/*--------------------------------*- C++ -*----------------------------------*\
| =========                 |                                                 |
| \\      /  F ield         | OpenFOAM: The Open Source CFD Toolbox           |
|  \\    /   O peration     | Version:  3.0.1                                 |
|   \\  /    A nd           | Web:      www.OpenFOAM.org                      |
|    \\/     M anipulation  |                                                 |
\*---------------------------------------------------------------------------*/
FoamFile
{
    version     2.0;
    format      ascii;
    class       volScalarField;
    location    "0.711395";
    object      epsilon;
}
// * * * * * * * * * * * * * * * * * * * * * * * * * * * * * * * * * * * * * //

dimensions      [0 2 -3 0 0 0 0];

internalField   nonuniform List<scalar> 
21246
(
186.052
102.516
17.7451
4.13939
1.36911
0.749071
0.566581
0.498872
0.468903
0.45207
0.437392
298.162
223.823
21.8077
6.14013
1.68503
0.834008
0.576073
0.481607
0.437159
0.409315
0.385001
380.945
246.841
36.7838
8.17132
1.89189
0.918511
0.587197
0.468605
0.411083
0.373181
0.337787
417.31
232.338
43.5769
9.19737
1.98798
0.982543
0.592336
0.45735
0.390208
0.345498
0.303702
420.13
221.399
46.7695
9.43245
2.07129
1.02076
0.590981
0.447164
0.373805
0.325666
0.28263
403.873
218.089
50.9732
10.4238
2.18934
1.04021
0.588284
0.438469
0.361061
0.311508
0.269211
372.969
219.924
56.9074
12.5015
2.57778
1.06233
0.589038
0.431848
0.351387
0.301212
0.259114
331.662
224.682
63.7431
15.3905
3.2751
1.14869
0.603178
0.427756
0.344518
0.293963
0.252974
287.369
231.089
71.9568
19.2381
4.40299
1.34836
0.642436
0.431628
0.341666
0.28935
0.249039
244.172
238.468
83.0422
24.6928
6.26449
1.78054
0.734155
0.44838
0.343284
0.287643
0.24742
202.31
247.112
96.6452
31.8204
9.037
2.57869
0.928891
0.491348
0.352161
0.288755
0.247431
164.21
258.052
111.938
40.2524
12.6771
3.82866
1.28969
0.584036
0.374825
0.294251
0.249414
133.451
269.941
129.934
50.5702
17.4401
5.6885
1.91506
0.770297
0.42629
0.308484
0.254459
111.109
280.636
151.701
63.816
23.8391
8.41704
2.95347
1.12523
0.537604
0.342178
0.265857
98.8282
294.034
177.184
80.0404
31.9739
12.1357
4.52664
1.7367
0.756691
0.416273
0.29133
99.144
309.474
207.497
100.599
42.6102
17.2127
6.83933
2.73426
1.16029
0.569896
0.348077
111.189
320.624
241.988
127.53
57.24
24.4237
10.2845
4.33433
1.87438
0.87389
0.471905
132.697
323.949
276.667
161.664
77.461
34.8085
15.4496
6.87344
3.0992
1.44742
0.730551
159.169
314.394
302.088
201.536
105.317
50.2059
23.48
11.0135
5.21722
2.51546
1.25691
184.732
291.993
306.716
239.169
141.228
73.1047
36.4232
18.0821
9.02997
4.55195
2.33038
205.722
256.272
282.778
258.756
180.231
105.63
57.6275
30.7289
16.2968
8.64903
4.6087
256.462
223.866
247.466
255.679
213.154
147.446
91.4411
53.7003
30.724
17.379
9.75344
286.268
185.661
188.508
199.509
191.411
161.978
121.156
82.7221
53.2785
33.2382
20.1564
572.404
617.634
487.041
398.996
307.536
225.908
158.897
109.006
73.6136
49.2196
32.1985
139.36
66.7483
14.9577
3.05635
1.14285
0.703125
0.56884
0.520662
0.504712
0.503369
0.509379
185.543
55.5338
9.07519
3.06798
1.27942
0.764377
0.60007
0.543852
0.528428
0.532389
0.547585
224.514
68.6972
8.18602
3.33112
1.39692
0.842905
0.642519
0.571932
0.553186
0.560662
0.58506
238.133
66.1328
7.80601
3.4847
1.38086
0.830327
0.620315
0.544882
0.526195
0.536633
0.567846
237.872
55.8296
7.4976
3.44027
1.35671
0.827738
0.604541
0.520459
0.493668
0.497268
0.522199
234.043
46.4751
7.16821
3.25743
1.30499
0.814577
0.586138
0.497473
0.463538
0.459143
0.474291
229.895
39.5846
6.83836
3.03967
1.24618
0.794612
0.566005
0.476584
0.437215
0.424973
0.427721
224.707
34.5592
6.50696
2.83292
1.19384
0.771639
0.547317
0.458725
0.416316
0.399417
0.394999
221.458
30.93
6.22958
2.67046
1.16008
0.749941
0.531924
0.444278
0.400515
0.382049
0.37679
221.023
28.4551
6.02828
2.55145
1.14372
0.733921
0.520782
0.433168
0.38852
0.369616
0.365282
224.191
26.9714
5.93656
2.48807
1.14366
0.726229
0.51439
0.425247
0.379274
0.359947
0.357421
229.785
26.1286
5.91768
2.47017
1.15873
0.727013
0.512718
0.420283
0.37201
0.351306
0.349381
237.964
26.4214
5.99273
2.49807
1.19288
0.737439
0.516462
0.418366
0.36645
0.342818
0.338874
247.178
29.2036
6.55798
2.64126
1.27494
0.767662
0.531001
0.421668
0.363854
0.335431
0.327469
258.069
33.2146
7.58778
2.9232
1.41619
0.826106
0.560568
0.432817
0.365674
0.330284
0.316039
271.474
38.8213
9.28114
3.43445
1.64865
0.930353
0.613509
0.456849
0.374586
0.32915
0.306374
288.348
46.4573
11.9479
4.34107
2.04395
1.11611
0.70836
0.50441
0.396771
0.335964
0.301716
310.614
56.4089
15.8969
5.88585
2.73649
1.45534
0.885406
0.599066
0.446586
0.359764
0.308291
341.321
69.4864
21.6382
8.45301
3.97717
2.09931
1.23642
0.797367
0.560061
0.42405
0.342061
385.591
87.4574
30.1068
12.6904
6.22836
3.36232
1.97216
1.24037
0.833023
0.594989
0.449852
453.713
113.758
43.1089
19.7739
10.3491
5.88209
3.56457
2.27547
1.52214
1.06437
0.77725
569.637
155.481
64.464
32.1501
18.0684
10.9621
7.02774
4.70406
3.26752
2.34923
1.74768
796.64
241.877
108.987
58.3169
34.7712
22.2708
15.03
10.5736
7.71099
5.81208
4.51887
1452.67
441.649
228.258
141
95.3261
67.3351
49.8581
38.5595
30.8396
25.2166
20.6666
1220.96
543.601
184.588
77.5304
31.9179
12.8887
5.67724
3.01282
1.94996
1.47657
1.23783
1309.72
655.378
294.966
131.023
55.3889
20.3224
7.37975
3.45555
2.10525
1.5712
1.32915
988.111
565.86
325.507
168.798
80.5351
33.4974
12.1721
4.42292
2.31486
1.65566
1.41497
573.827
449.173
311.147
186.262
100.24
47.3167
19.2162
6.99127
2.89627
1.74441
1.46776
275.216
339.195
276.352
189.744
114.485
60.5166
27.7247
11.0843
4.29758
2.07294
1.51875
116.824
245.819
236.093
183.23
122.973
72.1569
36.9711
16.5654
6.74731
2.88275
1.69265
71.1881
178.966
198.934
170.184
125.231
80.6805
45.7123
22.8344
10.2015
4.35326
2.14416
63.8734
126.096
165.457
153.671
122.009
85.0679
52.549
28.8974
14.2362
6.46226
2.98565
50.1366
76.6724
128.82
134.394
114.641
85.3028
56.6251
33.7992
18.2092
8.95655
4.21031
34.5924
42.9486
88.4417
110.891
103.472
81.7179
57.6357
36.8752
21.4808
11.4342
5.66364
24.8355
26.0788
54.6334
84.1998
88.561
74.6019
55.5707
37.7468
23.5276
13.4541
7.07423
19.0784
17.3255
31.9674
58.547
71.364
64.7648
50.8543
36.4394
24.0938
14.6703
8.16677
15.3286
12.8447
20.3
37.5657
54.1958
53.535
44.3396
33.3956
23.2671
14.9469
8.74152
12.2745
9.8165
14.0077
23.9732
38.0161
42.1937
36.9252
29.198
21.3262
14.3312
8.7008
9.75926
7.64003
9.91617
15.9553
25.1612
31.375
29.3622
24.3789
18.5964
12.9702
8.106
7.83953
6.05032
7.20699
10.8882
16.4972
21.8406
22.2207
19.416
15.4448
11.1299
7.11241
6.35063
4.90674
5.36941
7.54375
10.8181
14.4718
15.8989
14.7319
12.2591
9.14519
5.96693
5.37715
4.16587
4.13333
5.3444
7.14164
9.36227
10.8733
10.8032
9.53448
7.47563
5.06341
4.8337
3.71033
3.31979
3.94413
4.88442
6.21581
7.58576
8.23715
7.92541
6.74338
4.85312
5.07565
3.70859
2.91273
3.22531
3.80347
4.85081
6.36428
7.61738
8.07995
7.62529
6.03982
7.49695
4.22454
2.98899
3.19822
3.85701
5.39166
7.55712
9.33105
10.2372
10.2852
9.23295
11.2091
5.15763
3.48163
3.97922
5.46525
7.8306
10.006
10.8914
10.5913
9.88992
9.03741
13.7584
5.88537
5.73073
7.44323
10.1513
12.0348
12.1522
11.0294
9.52314
8.22239
7.30202
42.0441
24.7467
20.6528
18.8151
16.8169
14.37
11.825
9.55296
7.81854
6.68773
6.01602
1358.03
337.64
147.338
61.4414
25.2067
10.7694
5.11876
2.84281
1.86372
1.39809
1.14253
1085
287.951
128.322
59.6295
26.7509
12.0082
5.72955
3.07785
1.92691
1.39077
1.10656
868.413
272.745
124.237
63.052
30.6949
14.3889
6.85674
3.53089
2.07786
1.42365
1.10147
640.112
223.943
109.153
62.1892
34.2099
17.4808
8.56751
4.28334
2.35071
1.49661
1.10342
470.513
175.634
92.4555
56.7466
35.289
21.0005
11.4237
5.798
2.96968
1.69809
1.14954
346.6
135.576
77.4969
50.8278
34.3027
22.7519
14.1585
8.04522
4.2464
2.23145
1.30211
250.266
103.3
64.1161
44.8485
32.6937
23.7926
16.3219
10.072
5.57031
2.89983
1.56908
173.719
76.8839
51.8922
38.7604
30.4676
24.1651
18.1275
12.1352
7.1416
3.83365
2.0411
116.228
55.7957
40.7751
32.5985
27.6471
23.8255
19.462
14.1149
8.88347
4.98121
2.64806
75.4529
39.2224
31.0134
26.627
24.3477
22.737
20.1795
15.846
10.6806
6.29187
3.4261
48.7612
27.1104
23.0269
21.2824
20.9014
20.9743
20.1591
17.169
12.4016
7.69133
4.36902
33.024
19.1221
17.2202
17.0658
17.809
18.9069
19.332
17.7673
13.9341
9.14766
5.36355
24.9525
14.6136
13.5919
14.18
15.41
16.9606
18.096
17.607
14.7961
10.4849
6.51785
21.3749
12.5649
11.6919
12.463
13.7404
15.3261
16.732
16.9426
15.0411
11.3693
7.49813
20.2231
11.9594
10.9059
11.5552
12.6245
13.9876
15.3562
15.9468
14.7776
11.7839
8.19629
20.3505
12.0926
10.723
11.0908
11.8158
12.8143
13.9589
14.702
14.1091
11.7759
8.5964
21.1989
12.5863
10.8424
10.8398
11.1479
11.7056
12.5168
13.2587
13.1193
11.4185
8.73592
22.6756
13.3017
11.1549
10.7375
10.5959
10.6737
11.0811
11.7002
11.8874
10.7892
8.625
24.9928
14.2791
11.6921
10.8404
10.2411
9.82116
9.77575
10.1632
10.5254
9.95681
8.35882
28.5582
15.6667
12.5629
11.2595
10.2026
9.27674
8.74325
8.79911
9.1493
8.96277
7.85462
33.8204
17.6832
13.9115
12.122
10.5907
9.148
8.1059
7.75758
7.92678
7.90898
7.23622
42.803
20.7836
16.1237
13.6196
11.4716
9.46672
7.91623
7.12957
6.99829
6.96029
6.56037
54.4305
27.5405
19.8084
15.7745
12.6709
10.0897
8.11529
6.92753
6.44533
6.24914
5.96327
122.548
35.9412
24.2201
17.5207
13.648
10.8279
8.67252
7.19814
6.3687
5.94101
5.6459
1715.11
569.284
245.305
103.413
39.3412
13.6183
4.54938
1.51094
0.506458
0.177209
0.0696981
1300.61
362.594
179.515
83.0992
34.3485
12.9029
4.53919
1.53264
0.510149
0.174808
0.0671953
804.588
284.222
150.084
77.3484
34.88
13.8821
5.04553
1.71966
0.564956
0.188572
0.0707874
557.6
221.603
128.238
72.4416
35.42
14.9807
5.68454
1.99903
0.668645
0.222723
0.0817662
402.036
163.988
98.4366
61.1722
33.3196
15.473
6.23822
2.26575
0.76517
0.24886
0.0860492
324.169
129.377
78.9095
50.1501
28.4218
13.8715
5.84192
2.19279
0.761985
0.25661
0.0931531
274.683
106.821
65.5583
41.9882
24.0547
11.9575
5.19144
2.0275
0.734406
0.256226
0.0945214
240.078
90.9181
55.6868
35.6599
20.5407
10.3308
4.57603
1.8386
0.689155
0.24969
0.0985191
215.122
79.1727
48.1869
30.7584
17.7328
8.97598
4.03278
1.65891
0.642559
0.242129
0.0989919
196.288
70.3621
42.4935
27.0355
15.5819
7.9173
3.59342
1.50562
0.599153
0.232831
0.0963569
181.237
63.4845
38.0773
24.1783
13.9397
7.10559
3.25035
1.38119
0.560793
0.222535
0.0945128
169.834
57.9243
34.5412
21.9169
12.6544
6.47552
2.98397
1.28311
0.529401
0.213727
0.0921199
161.82
53.522
31.7443
20.156
11.6744
6.00474
2.7877
1.21149
0.506792
0.207724
0.0914023
156.143
50.2152
29.6152
18.8543
10.9798
5.68512
2.65992
1.16685
0.493687
0.204781
0.0920562
153.18
47.6618
27.9572
17.8828
10.4997
5.48698
2.59124
1.14748
0.490296
0.205298
0.0927745
153.002
45.8197
26.7382
17.2232
10.23
5.41315
2.58546
1.15603
0.498085
0.20972
0.0948997
155.454
44.7914
25.9932
16.9062
10.202
5.48786
2.65683
1.1993
0.519894
0.218978
0.0986978
161.801
45.0345
25.8128
16.9593
10.4635
5.75054
2.82454
1.28769
0.560856
0.235363
0.10531
173.154
46.8393
26.3045
17.386
11.0137
6.26645
3.17178
1.47105
0.64506
0.270126
0.118978
191.895
50.8091
27.7494
18.3244
11.9258
7.07217
3.73975
1.7951
0.805299
0.342519
0.148688
223.074
58.0405
30.6023
19.9966
13.3032
8.23723
4.59956
2.33165
1.09789
0.488049
0.214545
278.966
69.5466
35.4484
22.6582
15.2586
9.83646
5.8413
3.18973
1.62523
0.783484
0.366077
382.852
88.4616
42.9711
26.8564
18.1788
12.1429
7.68755
4.5773
2.58051
1.38961
0.722762
613.012
93.7935
50.0225
31.031
22.1795
15.8337
10.9031
7.17546
4.52721
2.75427
1.62891
1755.01
993.146
452.436
201.538
77.1297
23.5206
7.08163
2.1184
0.668219
0.222142
0.083693
1837.33
1069.22
625.946
333.377
159.6
63.7521
18.8778
3.88642
1.06776
0.337482
0.117961
946.627
880.519
643.786
402.28
223.55
106.686
40.1942
10.3439
1.91428
0.542157
0.183302
531.269
942.041
682.767
451.917
272.265
144.557
63.8556
21.0918
4.74624
0.927182
0.299493
580.451
768.891
708.456
493.842
311.861
177.063
86.8303
34.1363
9.80351
2.10454
0.492964
580.172
606.229
727.171
552.488
355.379
208.059
108.733
48.0652
16.6538
4.34015
1.02168
524.055
444.55
640.882
631.473
419.257
244.987
131.141
62.2347
24.6124
7.66693
2.0179
485.855
370.953
526.535
663.165
497.406
292.673
156.227
76.5949
33.0277
11.8233
3.55544
457.986
325.117
438.016
628.143
578.223
354.346
186.609
91.7255
41.5353
16.4558
5.60021
435.365
291.487
380.346
559.026
623.11
421.328
222.338
107.938
49.9191
21.2251
8.02655
416.909
261.693
335.436
492.289
622.222
479.473
259.899
124.574
57.8945
25.8376
10.6703
401.977
237.733
297.652
429.866
578.052
513.321
291.622
139.029
64.6287
29.9248
13.296
393.842
218.123
264.174
373.534
516.21
514.582
309.211
147.933
69.0995
33.1433
15.722
392.723
202.854
234.474
320.852
446.574
486.816
308.223
148.811
70.539
35.2839
17.9119
401.732
194.579
210.508
272.627
371.311
437.361
287.513
140.528
68.9031
36.3841
19.8824
419.135
191.222
190.983
230.369
291.319
347.708
257.061
124.939
64.6104
36.8383
21.7682
443.888
191.14
172.325
189.967
221.621
245.743
215.735
110.545
59.8613
37.4311
23.8439
481.638
196.836
156.751
154.114
164.65
174.597
166.134
103.634
57.4341
39.3908
26.8595
545.252
213.428
149.15
128.796
126.269
130.855
131.018
102.596
63.1351
45.1855
31.8749
664.034
251.35
158.655
121.164
108.862
111.126
116.528
108.64
80.0711
55.9461
39.2404
921.743
344.938
220.209
163.295
136.551
129.546
129.961
123.506
100.099
70.7201
47.977
1529.36
607.255
456.381
367.715
297.39
249.594
193.551
149.94
107.391
73.2324
47.4653
1108.78
565.368
524.113
378.461
273.279
194.207
132.989
89.5201
58.7749
37.7237
23.597
1054.59
554.423
321.468
199.08
127.976
83.4597
54.2697
34.7906
21.8332
13.3822
7.99759
75.8359
72.6208
64.8832
54.812
39.8592
19.1326
3.88049
3.01531
3.4105
23.122
22.4278
21.3761
21.4432
19.7997
14.0035
6.48948
2.38874
2.1794
12.3099
11.6659
11.3787
12.5989
13.7214
11.5776
6.2565
2.60513
2.40912
7.03711
6.84358
6.7571
7.76915
9.36146
9.08874
5.72483
2.68721
2.72515
77.3141
75.5225
75.52
71.3291
62.5707
52.538
38.5668
19.853
5.39722
24.0301
24.9493
24.3033
23.6445
22.6182
22.503
20.8928
16.5091
7.94631
13.0056
13.5742
12.8795
12.0773
12.1144
13.5029
14.9392
14.2355
8.2932
7.39411
7.86487
7.38427
6.89951
7.27074
8.33317
10.0345
11.0738
7.88627
0.00901755
0.00829352
0.00834684
0.00649513
0.463299
0.00755162
0.127345
0.00809617
0.00752696
0.0069515
0.464914
0.00813323
0.0103595
0.00513785
0.014614
0.00728572
0.00605207
0.00642194
0.00724971
0.00710329
0.00663592
0.061464
0.00852177
0.108753
0.00792273
0.00508813
0.00995715
0.11897
1.20311
0.381742
0.00717283
0.00643964
0.00646839
0.00806759
0.00681431
0.00826329
0.0996896
0.00790621
0.00720427
0.00757864
0.190391
0.00809928
0.0337093
0.00849732
0.733447
0.246038
0.0188756
0.35302
0.00692961
0.0073672
0.383265
0.00759708
0.0696841
0.034545
0.00734765
0.00666334
0.0584263
0.00761689
1.23832
0.0294623
0.0951146
0.0721845
0.506963
0.0380518
0.206813
0.00714248
0.356597
0.00721965
0.00829561
0.00693872
0.00515194
0.0072185
0.0144629
0.00802396
0.0235203
0.00714474
0.0749466
0.00828189
0.0573698
1.12563
0.300847
0.0283088
0.00793259
0.00838135
0.00697443
0.014524
2.03572
0.0848547
0.0198895
0.100782
0.00809376
0.00765139
0.204113
0.00743593
1.05525
0.664575
0.0134213
0.00597257
0.0249273
0.00739689
0.00783352
0.317407
0.00680819
0.00616703
0.0147737
0.00812536
0.00458967
0.00845333
0.0153792
0.00668025
0.00796911
0.00815137
0.00724489
0.00696023
0.0207432
0.00769104
0.00753804
0.00732414
0.00793068
0.00673752
0.00729093
0.00779163
0.00973393
0.00500982
0.225955
0.00719016
0.41784
0.00470819
0.0065806
0.00948824
0.00778012
0.0289272
0.327514
0.00715518
0.00834036
0.00805098
0.062323
0.0165235
0.404442
0.00733109
0.0330205
0.006599
0.22479
0.00867939
0.00751224
0.0256119
0.0151969
0.00721663
0.00714628
0.00706708
0.00717431
0.00766419
0.028235
0.00777045
0.00689838
0.0181605
0.0186975
0.0420474
0.00543592
0.00747709
0.00549336
0.0334115
0.00720475
0.00771902
0.37053
0.0249471
0.0208075
0.00699104
0.00693526
0.201823
0.00556494
0.00539306
0.00844461
0.00645697
0.0064268
0.00641951
0.00595745
0.0296705
0.749311
0.00696093
0.00720735
0.0678124
0.00849731
0.113832
0.00794577
0.0138265
0.0070861
0.0072743
0.00824918
0.0827593
0.0142346
0.00528698
0.00718863
0.186457
0.0083234
0.00760931
0.00744201
0.0256794
0.0101935
0.00856746
0.0265455
0.00734891
0.0131017
0.00770636
0.00838586
0.0866282
0.00740307
0.00654778
0.00741401
0.00740834
0.120787
0.00759166
0.00827374
0.00674081
0.00791293
0.0362419
0.00797983
0.0255461
0.00715882
0.0112794
0.00859912
0.00694645
0.0137851
0.0207871
0.00480897
0.00763308
0.0757331
0.023394
0.0126238
0.158334
0.0420138
0.00713592
0.00714688
0.00774367
0.0284575
1.66861
0.319319
0.00845036
0.00814993
0.00810686
0.0256108
0.0469182
0.00613624
0.164593
0.00819629
0.0402648
0.00800572
0.00797899
0.454612
0.410888
0.00793533
0.122162
0.0100424
0.00727088
0.00602232
0.00746983
0.00672768
0.00785852
0.0195244
0.00706103
0.00859882
0.00965157
0.00738244
0.00820012
0.00796253
0.017087
0.00659238
0.00806226
0.0176463
0.00694277
0.206131
0.00731795
0.00732433
0.0178001
0.00756827
0.00736638
0.00531535
0.00776331
0.00691428
0.0182172
0.00731512
0.00829082
0.301519
0.296187
0.0060332
0.00759476
1.42239
0.00825259
0.0068344
0.0301831
0.00835193
0.114014
0.00715299
0.0090996
0.00856538
0.00743944
0.00683327
0.00816623
0.00682092
0.00532228
0.00775733
0.00927376
0.00709915
0.39074
0.00676458
0.00667543
0.00828528
0.0907012
0.0652381
0.0074417
0.0851794
0.00817068
0.0064598
0.00627438
0.0812977
0.00655754
0.00715254
0.0146666
0.00671303
0.00776352
0.00708216
0.235552
0.00746395
0.00538593
0.0245807
0.00680665
0.00778232
0.00598131
0.00709118
0.14004
0.0072318
0.521122
0.0716988
0.00846443
0.0115882
0.7181
0.01582
0.00824306
0.00785173
0.00589577
0.027408
0.115682
0.00731519
0.0247654
0.186787
0.0915356
0.0227954
0.00753562
0.0860956
0.442228
0.113568
0.00581284
0.00700527
0.00682056
0.0131597
0.00860274
0.00894924
0.00696004
0.00850148
0.191815
0.0098641
0.0053191
0.00800618
0.00798809
0.0072904
0.0196423
0.00508235
0.0141594
0.147166
0.00817725
0.00774106
0.107697
0.571022
0.0047853
0.0120918
0.00832204
0.00904963
0.00676927
0.00752888
0.00709163
0.234448
0.0075614
0.0248391
0.00765599
0.0052465
0.332429
0.00865302
0.0047737
0.0454104
0.0234552
0.00769828
0.0529696
0.00464852
0.0079436
0.339185
0.21225
0.00787087
0.00721326
0.00836707
0.0346583
0.019268
0.00764711
0.00850574
0.0302327
0.00672589
0.203078
0.0547346
0.0329534
0.00733975
0.235113
0.00688796
0.0072017
0.0107693
0.0102632
0.0309214
0.00640113
0.0143783
0.00844583
0.00493853
0.0418457
0.289322
0.0063273
0.157212
0.0139933
0.00628928
0.00664763
0.00792675
0.0279952
0.0100607
0.212319
0.00789723
0.0246973
0.00509118
0.00663466
0.00690062
0.0110679
0.186092
0.405815
0.00505931
0.00860025
0.00596878
2.05462
0.00767652
0.00892689
0.00681781
0.017085
0.036987
0.041564
0.00742208
0.0356894
0.00773794
0.00833641
0.00794015
0.0318537
0.0177063
0.163549
0.00555168
0.0283515
0.0267656
0.00825612
0.00740652
0.433267
0.00512171
0.00599582
0.00686737
0.144239
0.115638
0.0902244
0.0916648
0.00724231
0.00657935
0.0169425
0.0069816
0.0953147
0.0068382
0.00824082
0.00734965
0.0347657
0.0334846
0.00711218
0.00778133
0.00668459
0.102881
0.0696951
0.00845589
0.024668
0.244127
0.00941028
0.0125404
0.00741174
0.0283187
0.00760184
0.00684235
0.00761822
0.00831494
0.00641098
0.00715495
0.00536508
0.00853441
0.00802182
0.00567631
0.0059441
0.00807413
0.00806413
0.503814
0.0135615
0.0131875
0.00722783
0.285702
0.00835797
0.256607
0.0162243
0.025114
0.0207591
0.00796948
0.318947
0.0315031
0.00533642
0.0077848
0.00634931
0.00667791
0.00828483
0.00769536
0.00819135
0.0067625
0.225009
0.0079951
0.00745697
0.0817555
0.00772992
0.184578
0.00663383
0.0707653
0.00560429
0.0198017
0.00856516
0.00786444
0.00841551
0.182882
0.0345318
0.0079514
0.00790971
0.00498862
0.00834918
0.00792895
0.00831449
0.184936
0.00681679
0.0451529
0.00785083
0.00782309
0.27016
0.268841
0.00679419
0.00657739
0.00711146
0.00831262
0.0109836
0.0401873
0.00721257
0.00865453
0.481648
0.964723
0.00791751
0.00736572
0.00828316
0.0364447
0.338429
0.0190308
0.00808912
0.00751789
0.297494
0.00727285
0.00839623
0.00710387
0.0424408
0.344911
0.0077101
0.0208292
0.00782102
0.0320777
0.00738974
0.0212175
0.00622342
0.00643901
0.0856602
0.0344174
0.00842442
0.00854797
0.993194
0.00763831
0.00615965
0.0111438
0.0326913
0.0325875
0.0272721
0.00760848
0.00692911
0.00773063
0.00790885
0.538569
0.0160002
0.012208
0.00711189
0.00794839
0.0444226
0.00703229
0.0076672
0.00683547
0.00713228
0.00826488
0.0153237
0.0320536
0.0181239
0.00621384
0.0108697
0.00724743
0.054644
0.00711051
0.00778632
0.475949
0.170073
0.00755267
0.00757694
0.0609747
0.00676848
0.00738756
0.0194649
0.00831587
0.00673408
0.0101934
0.00863913
0.00828282
0.0048106
0.00584116
0.0394466
0.15718
0.0338068
0.0311383
0.00626277
0.0212747
0.0266141
0.00849667
0.00836483
0.00679211
0.0253859
0.00607061
0.00695831
0.00713111
0.00511562
0.0329867
0.431957
0.00608491
0.00964169
0.00769012
0.0130177
0.00811864
0.00724672
0.00693349
0.0133186
0.00703475
0.00725687
0.00684346
0.00826423
0.0161308
0.0556208
0.153377
0.00710943
0.00698901
0.00754988
0.0310088
0.00764112
0.131142
0.00720892
0.0329417
0.223021
0.00770664
0.0118839
0.00849857
0.00638977
0.021039
0.0083538
0.416786
0.00556294
0.00667796
0.00841777
0.0124207
0.00514613
0.0328163
0.430536
0.00750838
0.00641905
0.00840431
0.00784347
0.006907
0.0217112
0.00813776
0.00761282
0.00762405
0.0100287
0.0269086
0.00816092
0.00787075
0.0075121
0.022185
0.00546777
0.00648254
0.01347
0.14548
0.00870454
0.00633289
0.00619332
0.00847306
0.0370695
0.00600682
0.138628
0.00783891
0.00678208
0.00790973
0.00719845
0.0794162
0.00825405
0.0296267
0.00512284
0.00727979
0.00672785
0.00671129
0.0282736
0.00823748
0.301356
0.0267008
0.176827
0.00663029
0.0102548
0.0369817
0.0314642
0.00765957
0.00884011
0.0342494
0.0124429
0.00803185
0.00534602
0.470973
0.00811562
0.175803
0.00946149
0.00832849
0.0296573
0.00754413
0.0068583
0.00681738
0.00796123
0.00734041
0.00481841
0.00819339
0.00643265
0.0071441
0.00872663
0.0135989
0.143095
0.0148642
0.00723444
0.162178
0.238689
0.00781997
0.00480838
0.00710719
0.0210324
0.00996901
0.0434418
0.00702711
0.0206359
0.00791036
0.00883762
0.00721768
0.00694674
0.00765615
0.016937
0.0561998
0.00860677
0.0078931
0.00741585
0.256694
0.221741
0.00756501
0.00820748
0.00696212
0.00738154
0.00813905
0.00821625
0.00837922
0.00787685
0.00787716
0.00577473
0.0497318
0.0884182
0.00478411
0.00712139
0.00770582
0.00793353
0.00671518
0.204704
0.00827539
0.0062984
0.0075951
0.271208
0.117048
0.0414861
0.0077951
0.0158856
0.00771784
0.0078168
0.213928
0.00715036
0.00816899
0.00717565
0.0455423
0.00602517
0.00593659
0.00813936
0.0105955
0.173209
0.0193038
0.0081636
0.00471574
0.0211998
0.0272512
0.0189631
0.0084308
0.00719522
0.00628162
0.013839
0.0195583
0.0082936
0.00684836
0.0081265
0.00737449
0.00825839
0.019842
0.00625944
0.17393
0.223147
0.0283728
0.00810726
0.458657
0.00853337
0.00719848
0.00977739
0.00789625
0.00766163
0.0076619
0.0141565
0.0583869
0.0184812
0.00765154
0.0114395
0.00768951
0.00859828
0.00737308
0.00756418
0.00715151
0.0079277
0.00815017
0.007334
1.71639
0.00754331
0.0071287
0.00769634
0.158928
0.00714516
0.00796714
0.019697
1.58602
0.00697603
0.00772285
0.010809
0.0133095
0.00846825
0.00808523
0.00679787
0.00860324
0.0417761
0.00828553
0.0801418
0.00919808
0.158477
0.00753899
0.00821653
0.00611595
0.0288539
0.00774868
0.00770631
0.00727015
0.00831839
0.00593033
0.197649
0.00666378
0.025348
0.25009
0.0222858
0.00604585
0.0420563
0.00851216
0.00814633
0.00524432
0.00724823
0.00602068
0.00759934
0.276568
0.00725146
0.0107227
0.00731307
0.00465707
0.00532183
0.0192999
0.00766324
0.00693899
0.00804213
0.307889
0.0619821
0.421266
0.00657154
0.00988423
0.00690601
0.00776796
0.312807
0.0075395
0.0083043
0.00609952
0.205081
0.0369123
0.038051
0.00714559
0.00529295
0.0377131
0.646209
0.00801524
0.0069797
0.422078
0.00760574
0.0212585
0.00792261
0.0820446
0.00780465
0.0297353
0.00830472
0.00730425
0.00845174
0.00762864
0.0142866
0.00765241
0.0071139
0.00780735
0.00732129
0.00965157
0.00848931
0.0389055
0.00748104
0.00687336
0.203362
0.0241196
0.0438361
0.00832589
0.0426638
0.00677664
0.00829096
0.0264315
0.00646784
0.0345791
0.339643
0.00609847
0.0134388
0.00653797
0.00741922
0.0181329
0.0162492
0.00701043
0.0505058
0.00813387
1.57283
0.0455749
0.720656
0.00812846
0.0211679
0.0138854
0.324431
0.00791896
0.00534645
0.00855556
0.00463409
0.125518
0.00815865
0.00890767
0.02026
0.0290579
0.200042
0.007897
0.00778247
0.00736557
0.0444062
0.00684148
0.199072
0.0101023
0.0700439
0.336449
0.00829244
0.0163297
0.0318783
0.0297219
0.0810474
0.0173072
0.00758197
0.0114276
0.0048325
0.00809955
0.00782304
0.00856502
0.0175205
0.00660003
0.00832739
0.0055832
0.0262489
0.00483099
0.00802383
0.102378
0.0147319
0.00689245
0.0105488
0.00813807
0.00708495
0.00734417
0.204024
0.00708357
0.0433692
0.00616378
0.0239699
0.00796416
0.00694824
0.00795994
0.0075348
0.0181854
0.0829878
0.0336156
0.648953
0.210872
0.660767
0.00688131
0.00724131
0.00956333
0.00838945
0.0059654
0.056816
0.00691699
0.10369
0.00612239
0.198916
0.00683041
0.0049178
0.00811854
0.324243
0.00862521
0.477189
0.00674518
0.00821472
0.0446099
0.0546867
0.00675867
0.0248544
0.0216494
0.0636717
0.11541
0.0199449
0.229532
0.00941804
0.00751826
0.248918
0.0179627
0.00833096
0.00617903
0.00822071
0.00503987
0.00531094
0.010595
0.00773558
0.0167975
0.638585
0.00752782
0.00722344
0.00687714
0.00819404
0.00914299
0.00542581
0.00701858
0.00561651
0.3677
0.0072701
0.63397
0.0704596
0.00769109
0.147928
0.0512721
0.018068
0.00661414
0.160459
0.00768786
0.00803735
0.337836
0.00752277
0.00824528
0.00574524
0.00809732
0.00772318
0.212136
0.00781016
0.565319
0.0133911
0.0187659
0.00723201
0.0123976
0.0363741
0.00607192
0.230718
0.00776423
0.0102285
0.0269888
0.00669499
0.0111891
0.0304129
0.0225862
0.00747243
0.0391918
0.0827552
0.00645069
0.00733839
0.0281148
0.00694799
0.0184754
0.0237991
0.338271
0.00711892
0.00860341
0.00796773
0.00622471
0.0071702
0.00477967
0.0376562
1.31461
0.00804076
0.0240206
0.028046
0.00820834
0.0350527
0.00709325
0.0069732
1.02419
0.0453961
0.304421
0.170095
0.00816386
0.00792997
0.0222502
0.233819
0.200739
0.24018
0.00492213
0.00817774
0.00718587
0.00615446
0.278757
0.0475813
0.00846961
0.00739821
0.0280136
0.0408894
0.0357546
0.00677471
0.0880227
0.222355
0.00638919
0.00558918
0.00727858
0.00718258
0.22652
0.00528836
0.00823132
0.0151234
0.00777928
0.00636779
0.368067
0.010865
0.0104284
0.0375559
0.00857089
0.0075145
0.192814
0.0218786
0.00836254
0.00453782
0.0164543
0.00661704
0.393806
0.00806541
0.00769081
0.00704342
0.155607
0.00608318
0.00746026
0.0322052
0.00833875
0.00814945
0.00859551
0.00526855
0.0077058
0.0339854
0.0181501
0.00814583
0.451933
0.0354266
0.00802146
0.0318877
0.00729
0.00518439
0.0325845
0.00802518
0.00816662
0.00788543
0.00695092
0.00793593
0.00719408
0.00799871
0.050291
0.0341157
0.0058549
0.0252584
0.00692271
0.0225299
0.018133
0.00855536
0.00672353
0.0158898
0.00496516
0.0067489
0.00599558
0.00666215
0.00685434
0.00795447
0.037982
0.207024
0.0240723
0.0898612
0.00859361
0.00981473
0.430459
0.016633
0.0124294
0.00760011
0.0336979
0.0415169
0.151934
0.00474959
0.0210966
0.0329542
0.00607615
0.00795322
0.901139
0.00480375
0.00674386
0.0301993
0.0291045
0.00584388
0.0121788
0.0163087
0.0046183
0.594188
0.411745
0.00789936
0.00719318
0.0390581
0.0787584
0.0104514
0.00811664
0.00702299
0.0083907
0.00750038
0.0784709
0.0076177
0.00846188
0.132734
0.00862178
0.00734711
0.0077036
0.00757106
0.00672199
0.00858041
0.00727668
0.00962181
0.00704381
0.00879242
0.00804148
0.0315184
0.00819187
0.0354165
0.00770441
0.020945
0.00838768
0.00767929
0.0597614
0.276921
0.00705228
0.00780596
0.0073443
0.0219964
0.00826576
0.00871328
0.00802239
0.00742214
0.00622089
0.00736986
0.0314685
0.00512406
0.0590301
0.00848367
0.0106317
0.00788921
0.00669324
0.00878863
0.00840535
0.00801869
0.209946
0.0075911
0.017134
0.00790159
0.00799658
0.478167
0.00845228
0.00855412
0.141571
0.226577
0.01415
0.00756291
0.0199046
0.00789154
0.0303326
0.0116358
0.0166865
0.00742963
0.00631507
0.0236486
0.00763238
0.0321275
0.00705998
0.0153486
0.0280429
0.00813305
0.0148332
0.00764331
0.144552
0.0123034
0.00497297
0.0272944
0.00642933
0.00597028
0.00840158
0.0104312
0.0304909
0.00752718
0.00811357
0.0338333
0.00680737
0.00681317
0.00691097
0.00546852
0.007895
0.0286157
0.030548
0.00695131
0.0177305
0.00798138
0.00743214
0.00702445
1.1903
0.00976652
0.00744728
0.176102
0.0321516
0.00820992
0.00706195
0.0289709
0.0105783
0.00661362
0.00727795
0.0155184
0.0393131
0.00754333
0.00693633
0.074249
0.00715387
0.00830228
0.00735673
0.00693682
0.00793286
0.0231642
0.00764381
0.0267184
0.00610644
0.0134089
0.00813196
0.00502348
0.0283936
0.00690755
0.0216497
0.00765782
0.00733679
0.0395068
0.0136545
0.00554936
0.00845835
0.00743808
0.23555
0.00745124
0.0069909
1.69239
0.00673473
0.00711258
0.00701199
0.00700238
0.00647688
0.00632083
0.0159579
0.00513873
0.0162097
0.00710426
0.00758866
0.0156591
0.00452427
0.00748394
0.00646067
0.00564013
0.00730896
0.274691
0.00855626
0.0248299
0.00748852
0.00689174
0.00600313
0.0072799
0.0124191
0.00795532
0.00721608
0.00673635
0.00756684
0.00837756
0.0343678
0.0233965
0.013319
0.0107015
0.0333056
0.00672733
0.00756547
0.0074665
0.217454
0.00726031
0.00626675
0.337596
0.00684262
0.229913
0.148455
0.00684734
0.00810048
0.00718187
0.00536937
0.00491881
0.00681166
0.00795948
0.0227546
0.0376774
0.00474339
0.0350083
0.00780811
0.0653417
0.018117
0.948191
0.0104882
0.0118336
0.00496732
0.00828671
0.00690675
0.0252616
0.00790242
0.0111285
0.00524356
0.00989128
0.0052314
0.0554576
0.0159575
0.0254902
0.243944
0.007805
0.333908
0.00909603
0.00650428
0.00603372
0.00893878
0.0084055
0.584497
0.00781528
0.36352
0.311635
0.00506602
0.0630151
0.0237712
0.344495
0.00740064
0.00788722
0.00741773
0.00726803
0.00766014
0.00621867
0.00702564
0.0222708
0.00780109
0.236524
0.0165466
0.00764128
0.00818117
0.00963982
0.0666047
0.00813379