/*--------------------------------*- C++ -*----------------------------------*\
| =========                 |                                                 |
| \\      /  F ield         | OpenFOAM: The Open Source CFD Toolbox           |
|  \\    /   O peration     | Version:  3.0.1                                 |
|   \\  /    A nd           | Web:      www.OpenFOAM.org                      |
|    \\/     M anipulation  |                                                 |
\*---------------------------------------------------------------------------*/
FoamFile
{
    version     2.0;
    format      ascii;
    class       volScalarField;
    location    "0.791276";
    object      nut;
}
// * * * * * * * * * * * * * * * * * * * * * * * * * * * * * * * * * * * * * //

dimensions      [0 2 -1 0 0 0 0];

internalField   nonuniform List<scalar> 
21246
(
4.7204e-05
0.000292429
0.000435984
0.000566188
0.000640922
0.000687275
0.000716161
0.00072188
0.000706121
0.000677143
0.000640086
3.6197e-05
0.000160796
0.000264422
0.000378202
0.000484375
0.00058931
0.000686362
0.000726033
0.000718056
0.000690394
0.000653606
3.15453e-05
0.00010919
0.000199512
0.000289136
0.000376462
0.000458325
0.00055635
0.000678949
0.000716766
0.000698456
0.00066439
2.83631e-05
8.9209e-05
0.000164331
0.000240802
0.000315177
0.000381155
0.000449103
0.000548596
0.000660766
0.000694638
0.000672785
2.46323e-05
8.28152e-05
0.000145338
0.000210988
0.000276135
0.000332825
0.000382016
0.000443481
0.000543349
0.0006418
0.00066807
2.03346e-05
8.19604e-05
0.000135222
0.000192082
0.000249668
0.000300206
0.000339811
0.000377513
0.000438508
0.000537322
0.000623887
1.82748e-05
8.95764e-05
0.000135535
0.000182887
0.000232813
0.000278334
0.000313143
0.000339237
0.000371935
0.000435855
0.00053577
1.89978e-05
0.000110022
0.000149741
0.000185632
0.000226004
0.000265531
0.00029701
0.000318045
0.000335706
0.000368515
0.000440095
1.88745e-05
0.00013358
0.000173087
0.000199971
0.000229534
0.000261103
0.000288576
0.00030707
0.000317812
0.000331645
0.000369569
1.75489e-05
0.00013811
0.000191983
0.000219336
0.000241043
0.000263911
0.000286153
0.000302456
0.000310206
0.000314015
0.000327834
1.63563e-05
0.000134567
0.000202105
0.000234755
0.00025517
0.000271482
0.000288231
0.000302016
0.000308277
0.000307083
0.000305961
1.54474e-05
0.000127114
0.000199345
0.000239367
0.000265484
0.000280004
0.000292619
0.000303883
0.000309002
0.000305123
0.000295005
1.47074e-05
0.000120427
0.000186838
0.000232379
0.000267379
0.000285431
0.000296494
0.000305909
0.0003099
0.000304084
0.000288201
1.38639e-05
0.000114043
0.00017446
0.000218256
0.000257762
0.000284511
0.00029697
0.000305747
0.000308707
0.000301078
0.000280895
1.28668e-05
0.000107388
0.00016262
0.000203184
0.000240915
0.000274655
0.000291863
0.000301431
0.000303742
0.00029449
0.000271432
1.1795e-05
0.000100026
0.000151392
0.000189334
0.000223466
0.000256729
0.000280738
0.000292565
0.000295394
0.000285752
0.000261631
1.06771e-05
9.12575e-05
0.000140239
0.000177011
0.000207652
0.000237783
0.000266166
0.000282887
0.000289122
0.000282246
0.000259695
9.58712e-06
8.20868e-05
0.000129041
0.000166435
0.000195784
0.000224367
0.000256728
0.000282953
0.000298846
0.000300715
0.000283313
8.55191e-06
7.32907e-05
0.000118888
0.000158725
0.000190253
0.000221892
0.000262194
0.000302386
0.000332965
0.000347824
0.000336072
7.79566e-06
6.7307e-05
0.000113334
0.000155621
0.000188865
0.000221747
0.000261371
0.000297389
0.000322625
0.000336771
0.000330106
7.53329e-06
6.12321e-05
0.000105969
0.00014286
0.000165543
0.000182677
0.000199884
0.00021156
0.000219914
0.000229084
0.000233845
6.82478e-06
5.1371e-05
8.50009e-05
0.000106823
0.000115499
0.000124972
0.000138922
0.000159312
0.000187472
0.000221219
0.000249132
5.30243e-06
3.16525e-05
4.60623e-05
5.98043e-05
7.79068e-05
0.000105875
0.000142234
0.000184759
0.000230209
0.000273546
0.000305082
4.56039e-06
1.27833e-05
3.15363e-05
6.2981e-05
0.000105796
0.000156969
0.000212797
0.000267288
0.000313638
0.000345519
0.000357975
4.3712e-05
0.00031952
0.000498342
0.000597615
0.00065325
0.000686715
0.000705175
0.00070675
0.000691024
0.000663309
0.000627112
2.76996e-05
0.000245174
0.000445633
0.000581795
0.000652974
0.000684891
0.000696365
0.000695046
0.00068093
0.000656214
0.000624201
2.53918e-05
0.000200893
0.00040303
0.000571538
0.000662268
0.000692679
0.000693222
0.000684271
0.000669705
0.000648582
0.000623239
2.61029e-05
0.000183351
0.000382582
0.000572862
0.000683644
0.000715569
0.000702364
0.000677743
0.000655231
0.000633202
0.00061194
2.76177e-05
0.000175665
0.00037277
0.000573395
0.000708385
0.000753506
0.000731191
0.00068721
0.00064826
0.000616456
0.000591319
2.8846e-05
0.000170154
0.000365893
0.000568448
0.000717387
0.000782612
0.000772345
0.000720339
0.000657597
0.000601023
0.000559894
2.94518e-05
0.000162973
0.000355136
0.000555758
0.000713675
0.000797197
0.000806652
0.000765974
0.000699802
0.00062304
0.000548509
2.93735e-05
0.000153066
0.000338093
0.000533059
0.000695199
0.000794065
0.000826221
0.000807437
0.000754487
0.000675205
0.000575415
2.83969e-05
0.000138608
0.000313096
0.000499003
0.000661003
0.000771327
0.000825162
0.000832561
0.000804912
0.000745081
0.000647882
2.66656e-05
0.000122949
0.000281644
0.000453954
0.000612088
0.000729892
0.00080187
0.000834188
0.00083543
0.000807513
0.000735822
2.43801e-05
0.000109915
0.000251873
0.00040782
0.000555007
0.000673969
0.000758673
0.000811366
0.000837507
0.000843091
0.000811532
2.20136e-05
0.000101791
0.000228856
0.000368528
0.000502643
0.000617475
0.000707266
0.000770465
0.000810859
0.000840511
0.000851555
1.99843e-05
9.81324e-05
0.000213491
0.000338745
0.00046018
0.000568552
0.000658212
0.000725017
0.000769573
0.000804318
0.000841206
1.85455e-05
9.67855e-05
0.00020311
0.000317206
0.000428627
0.000530671
0.000617333
0.000683093
0.000725977
0.000755937
0.00079387
1.76112e-05
9.62731e-05
0.000195623
0.000302017
0.000406583
0.000503543
0.000586167
0.000648317
0.000686663
0.00070766
0.000733289
1.69275e-05
9.54025e-05
0.000189476
0.000290665
0.000390622
0.000483673
0.000562247
0.000619912
0.00065311
0.000664828
0.000674517
1.62527e-05
9.37454e-05
0.000183928
0.000281232
0.000377535
0.000467066
0.000541558
0.000594584
0.000623346
0.000628159
0.000623133
1.54123e-05
9.12167e-05
0.000178704
0.000272757
0.000365529
0.000451174
0.000521001
0.000569002
0.000594202
0.000595409
0.000580937
1.43231e-05
8.76055e-05
0.000173173
0.000264186
0.000353222
0.000434493
0.00049898
0.000541139
0.000562743
0.000563017
0.000543724
1.29437e-05
8.21915e-05
0.000165463
0.00025306
0.000338237
0.000415444
0.000475082
0.000511158
0.00052838
0.000528553
0.000509542
1.11998e-05
7.34896e-05
0.000152632
0.000235839
0.000317588
0.000392438
0.000449654
0.000481152
0.000493327
0.000492563
0.000475417
9.1017e-06
6.20143e-05
0.000132069
0.000209541
0.000289262
0.000364448
0.000422749
0.000453136
0.000461052
0.000457579
0.000441679
6.4523e-06
4.0242e-05
9.99077e-05
0.000173295
0.000253109
0.000330123
0.000391472
0.000425227
0.000433296
0.000427801
0.000412877
4.12203e-06
3.72588e-05
8.92965e-05
0.000154223
0.000223125
0.000290174
0.000347417
0.000385824
0.000402205
0.000402031
0.000390469
5.22303e-05
0.000323079
0.000448744
0.000500126
0.000514287
0.000520175
0.000526596
0.000530127
0.000522502
0.000495343
0.000444007
3.56845e-05
0.00026873
0.000432531
0.000504506
0.000524198
0.000525493
0.000523569
0.000519997
0.000509639
0.000483418
0.000435259
2.90383e-05
0.000236619
0.000409287
0.000503886
0.000536102
0.000539649
0.000535044
0.000527257
0.000513667
0.000487006
0.00043961
2.75117e-05
0.000215162
0.00038893
0.000498478
0.000544005
0.000553364
0.00055031
0.00054285
0.000528965
0.000501494
0.00045282
2.71411e-05
0.000190542
0.000359179
0.000482624
0.000543238
0.00055914
0.000554074
0.000541106
0.0005216
0.00049231
0.000445351
2.75478e-05
0.000179466
0.000336265
0.000456149
0.000524024
0.000549774
0.000552094
0.000545248
0.00053199
0.000508417
0.000466163
2.82459e-05
0.000171814
0.000320276
0.000433245
0.000500104
0.00053079
0.000541596
0.000543349
0.000536165
0.000514539
0.000470302
2.91563e-05
0.000165849
0.000307279
0.000413623
0.000478323
0.000511729
0.000528591
0.000537602
0.000537442
0.000522539
0.000485006
3.00037e-05
0.000160629
0.00029608
0.000396649
0.000458791
0.000493614
0.000515121
0.000530614
0.000537269
0.000527359
0.000489887
3.06227e-05
0.000155013
0.00028546
0.000381636
0.000441811
0.000477707
0.000502901
0.000523626
0.000535322
0.000527385
0.000486641
3.11309e-05
0.000149312
0.000275454
0.000368321
0.000427205
0.000464167
0.000492405
0.000517229
0.000532635
0.000527171
0.000491859
3.15633e-05
0.00014428
0.000266651
0.000356775
0.000414755
0.000452805
0.000483718
0.000512008
0.000530619
0.000527539
0.000493624
3.1775e-05
0.000139282
0.000258493
0.000346587
0.000404201
0.000443542
0.000477025
0.000508554
0.000530224
0.000528975
0.000493496
3.17646e-05
0.00013361
0.000250142
0.000337153
0.00039517
0.000436191
0.000472309
0.000507003
0.000531577
0.000532091
0.000498866
3.15123e-05
0.000127936
0.000242033
0.000328454
0.000387371
0.000430402
0.000469291
0.000507208
0.000534704
0.000536598
0.000501212
3.09813e-05
0.000121851
0.000233724
0.000320087
0.000380484
0.000425937
0.000467812
0.000509125
0.000539769
0.000543138
0.000506604
3.0208e-05
0.000114651
0.000224248
0.000311238
0.000373904
0.000422356
0.000467523
0.000512502
0.000546747
0.000552031
0.000515103
2.90493e-05
0.000105405
0.000211834
0.000299948
0.000365723
0.000418139
0.000467176
0.000516038
0.000554658
0.000563122
0.000526175
2.74756e-05
9.40084e-05
0.000195361
0.000284118
0.000352526
0.000407202
0.000457469
0.000507684
0.000549742
0.0005634
0.000532687
2.54502e-05
8.04621e-05
0.000173979
0.000262379
0.000333056
0.000388798
0.000436724
0.000482031
0.000520516
0.000535975
0.000516329
2.29096e-05
6.53412e-05
0.000147543
0.000233489
0.000305831
0.000362102
0.000405919
0.000441989
0.000470006
0.000480677
0.000468863
1.98054e-05
5.01863e-05
0.000118308
0.000197885
0.000269986
0.000326304
0.000366291
0.000393036
0.000408533
0.000409852
0.000397011
1.59597e-05
3.61133e-05
8.81526e-05
0.000158235
0.000226107
0.000280134
0.000316845
0.000337505
0.000344547
0.000338634
0.000322054
1.14018e-05
3.56915e-05
7.90702e-05
0.000127782
0.00017436
0.000214147
0.00024312
0.000259971
0.000265277
0.000259961
0.000246146
4.7139e-05
0.000187229
0.000267096
0.000344617
0.000429227
0.000510947
0.000554686
0.000581131
0.000566497
0.0005321
0.00047462
3.26752e-05
9.97147e-05
0.000164647
0.000222599
0.000275079
0.000315215
0.000375772
0.000561968
0.000624392
0.000584015
0.000516577
2.55068e-05
7.127e-05
0.000122262
0.000169069
0.000210895
0.000241668
0.000269697
0.000355268
0.000610446
0.000646538
0.000571893
2.42352e-05
7.88295e-05
0.000106863
0.000139669
0.000173306
0.000200329
0.000219579
0.000256216
0.000394515
0.00066304
0.000642283
2.9054e-05
0.000132448
0.000133203
0.000139852
0.000156929
0.000175862
0.000190234
0.00020883
0.000275566
0.000471882
0.000688306
3.31397e-05
0.000185689
0.000201846
0.000175076
0.000163895
0.000166472
0.000172907
0.000182368
0.000216948
0.000331185
0.000561731
3.60749e-05
0.000215683
0.00031743
0.000263739
0.000205951
0.000176889
0.000167132
0.000167364
0.000185454
0.000253629
0.000424097
3.90128e-05
0.000233969
0.000381569
0.000376869
0.00028568
0.000212379
0.00017526
0.00016158
0.000167888
0.000210816
0.000329453
4.15904e-05
0.000250497
0.000433556
0.000503399
0.000405577
0.000279891
0.000201002
0.000165324
0.000159169
0.000186134
0.000271256
4.36241e-05
0.0002627
0.000468419
0.000575897
0.000527125
0.000373993
0.000245817
0.000179324
0.000157505
0.000171997
0.000235173
4.50612e-05
0.000272425
0.000491637
0.000622366
0.000632086
0.000481202
0.000307018
0.00020312
0.000161977
0.000164913
0.000212855
4.60731e-05
0.00027518
0.000502026
0.000645844
0.000696179
0.000578946
0.000375247
0.000233382
0.000171172
0.000163147
0.00019972
4.66638e-05
0.000276368
0.000502682
0.000647846
0.000717106
0.000645826
0.000436284
0.000264
0.000182735
0.000165311
0.000193385
4.68836e-05
0.00027386
0.000492757
0.000631336
0.00070727
0.000675531
0.000478251
0.000288332
0.000194039
0.000170242
0.000192565
4.67718e-05
0.000267021
0.000474339
0.000599213
0.000670522
0.000666979
0.00049354
0.000300841
0.00020325
0.000177399
0.000196405
4.61497e-05
0.000258536
0.000451657
0.00055753
0.00060899
0.000612239
0.000488525
0.000300723
0.000209858
0.000187276
0.000204669
4.49103e-05
0.000247514
0.00042505
0.00051189
0.000541766
0.00053279
0.000459419
0.000300525
0.000217696
0.00020213
0.000218322
4.30042e-05
0.000234516
0.000396516
0.000467541
0.000479867
0.000463748
0.000415348
0.000310846
0.00023452
0.000226341
0.000238803
4.0512e-05
0.000221674
0.00036987
0.000431296
0.000435265
0.000420502
0.000393032
0.000336577
0.000276998
0.000268713
0.000273341
3.75667e-05
0.000212714
0.000350623
0.000408983
0.000416661
0.000413218
0.000407016
0.000386053
0.000351824
0.000332871
0.000316496
3.43752e-05
0.000219228
0.000351526
0.000397869
0.000403225
0.000400663
0.000392529
0.000370566
0.000344814
0.000311046
0.000261451
3.04573e-05
0.00021432
0.000304801
0.000322688
0.000291175
0.000232119
0.000180148
0.000161564
0.000143369
0.000125773
0.000107732
1.78902e-05
0.000107707
0.000130242
0.000111454
8.97799e-05
7.7132e-05
6.96531e-05
6.62366e-05
6.44433e-05
6.30077e-05
6.09768e-05
8.63372e-06
1.05514e-05
1.41539e-05
1.9633e-05
2.79348e-05
3.92018e-05
5.26091e-05
6.63746e-05
7.83798e-05
8.69698e-05
9.13606e-05
2.47491e-05
4.92973e-05
4.43702e-05
4.23917e-05
3.57743e-05
2.99348e-05
2.67736e-05
2.51851e-05
2.43545e-05
2.39292e-05
2.37826e-05
2.17166e-05
5.59432e-05
4.01994e-05
4.57465e-05
3.75455e-05
3.06725e-05
2.65788e-05
2.45283e-05
2.34871e-05
2.30107e-05
2.29633e-05
2.25404e-05
5.35419e-05
3.43559e-05
4.8169e-05
3.8657e-05
3.15812e-05
2.65942e-05
2.4103e-05
2.28493e-05
2.2319e-05
2.23587e-05
2.4968e-05
5.00214e-05
3.42031e-05
4.86279e-05
3.91073e-05
3.23855e-05
2.66343e-05
2.379e-05
2.2341e-05
2.1768e-05
2.19463e-05
2.76291e-05
4.82139e-05
3.45349e-05
4.75396e-05
3.9615e-05
3.30108e-05
2.66621e-05
2.35476e-05
2.19047e-05
2.12459e-05
2.14154e-05
2.98274e-05
4.77938e-05
3.47231e-05
4.44122e-05
4.03506e-05
3.35512e-05
2.67602e-05
2.33834e-05
2.15342e-05
2.07483e-05
2.08352e-05
3.15526e-05
4.85895e-05
3.51023e-05
4.02425e-05
3.96228e-05
3.41343e-05
2.70217e-05
2.33227e-05
2.12449e-05
2.02953e-05
2.02699e-05
3.28337e-05
5.06547e-05
3.60592e-05
3.68674e-05
3.70546e-05
3.43046e-05
2.75534e-05
2.33946e-05
2.10613e-05
1.99081e-05
1.96926e-05
3.34926e-05
5.37398e-05
3.7767e-05
3.46268e-05
3.36467e-05
3.32264e-05
2.81291e-05
2.37075e-05
2.10523e-05
1.96211e-05
1.9162e-05
3.34592e-05
5.74908e-05
4.04728e-05
3.35144e-05
3.02686e-05
3.04601e-05
2.8094e-05
2.41605e-05
2.12432e-05
1.95071e-05
1.8743e-05
3.28845e-05
6.21102e-05
4.44536e-05
3.38948e-05
2.8069e-05
2.7033e-05
2.67267e-05
2.43982e-05
2.16026e-05
1.9584e-05
1.84974e-05
3.18335e-05
6.80796e-05
4.99144e-05
3.58851e-05
2.74675e-05
2.44415e-05
2.43351e-05
2.38573e-05
2.19375e-05
1.98455e-05
1.84557e-05
3.04123e-05
7.52498e-05
5.72058e-05
3.95956e-05
2.83669e-05
2.31236e-05
2.18725e-05
2.22503e-05
2.18183e-05
2.01851e-05
1.86269e-05
2.89129e-05
8.33169e-05
6.68134e-05
4.54655e-05
3.09258e-05
2.32129e-05
2.01816e-05
2.00429e-05
2.07546e-05
2.02699e-05
1.89427e-05
2.76541e-05
9.34991e-05
7.93973e-05
5.39925e-05
3.54396e-05
2.4883e-05
1.9801e-05
1.82839e-05
1.89224e-05
1.96196e-05
1.91431e-05
2.70757e-05
0.000106323
9.59838e-05
6.61958e-05
4.25354e-05
2.83876e-05
2.08934e-05
1.76068e-05
1.71592e-05
1.81206e-05
1.87553e-05
2.71773e-05
0.000121036
0.000117428
8.3762e-05
5.35213e-05
3.44667e-05
2.38103e-05
1.83585e-05
1.62829e-05
1.64135e-05
1.74897e-05
2.73336e-05
0.000136888
0.000143748
0.000108502
7.0309e-05
4.44459e-05
2.93423e-05
2.10223e-05
1.68925e-05
1.5498e-05
1.58873e-05
2.6894e-05
0.000151269
0.000172379
0.000141438
9.56479e-05
6.07209e-05
3.91315e-05
2.66235e-05
1.96843e-05
1.62253e-05
1.50927e-05
2.53585e-05
0.000160713
0.000197803
0.000179993
0.00013184
8.69519e-05
5.63256e-05
3.74383e-05
2.61893e-05
1.97202e-05
1.63436e-05
2.2525e-05
0.000159188
0.000213055
0.000216064
0.000177473
0.000127142
8.62586e-05
5.81629e-05
3.99849e-05
2.85467e-05
2.1577e-05
1.94117e-05
0.000151135
0.000218481
0.000240018
0.00022263
0.000180326
0.000134492
9.64582e-05
6.83535e-05
4.87446e-05
3.54533e-05
1.4603e-05
0.000118559
0.000170242
0.000205501
0.0002178
0.00020812
0.000181213
0.000147276
0.000114604
8.72566e-05
6.57616e-05
1.11969e-05
6.13468e-05
8.30474e-05
0.000107287
0.000127849
0.000143233
0.00014833
0.000142944
0.000129906
0.000113192
9.52808e-05
2.01344e-05
4.5283e-05
4.18981e-05
4.06111e-05
3.4803e-05
3.00031e-05
2.74868e-05
2.62246e-05
2.55895e-05
2.53047e-05
2.52611e-05
1.53057e-05
3.96659e-05
4.45494e-05
4.34578e-05
3.73549e-05
3.20843e-05
2.92042e-05
2.77951e-05
2.71468e-05
2.69207e-05
2.69743e-05
1.60711e-05
3.84988e-05
4.21085e-05
4.80013e-05
4.21045e-05
3.62261e-05
3.24569e-05
3.0567e-05
2.97135e-05
2.94639e-05
2.96313e-05
1.8589e-05
3.64494e-05
4.12414e-05
5.11099e-05
4.60115e-05
4.10958e-05
3.77603e-05
3.61068e-05
3.54445e-05
3.53233e-05
3.55744e-05
2.16621e-05
3.38044e-05
4.16562e-05
5.33204e-05
4.94822e-05
4.5402e-05
4.20389e-05
4.03545e-05
3.97273e-05
3.97709e-05
4.03057e-05
2.47136e-05
3.17291e-05
4.2459e-05
5.47287e-05
5.23225e-05
4.91538e-05
4.59108e-05
4.44137e-05
4.4007e-05
4.43651e-05
4.52606e-05
2.76332e-05
3.03307e-05
4.3253e-05
5.57697e-05
5.47792e-05
5.25102e-05
4.9519e-05
4.84469e-05
4.85142e-05
4.95134e-05
5.11934e-05
3.04146e-05
2.94189e-05
4.39523e-05
5.67409e-05
5.71079e-05
5.55904e-05
5.30132e-05
5.25473e-05
5.34456e-05
5.57878e-05
5.96835e-05
3.29068e-05
2.88385e-05
4.45834e-05
5.78297e-05
5.95455e-05
5.85072e-05
5.64382e-05
5.66151e-05
5.8445e-05
6.22165e-05
6.8099e-05
3.50879e-05
2.84875e-05
4.52392e-05
5.90342e-05
6.20933e-05
6.13833e-05
5.97978e-05
6.05392e-05
6.32259e-05
6.83289e-05
7.62083e-05
3.69449e-05
2.82851e-05
4.58594e-05
6.04046e-05
6.47135e-05
6.42893e-05
6.30797e-05
6.42232e-05
6.75369e-05
7.35174e-05
8.21e-05
3.85383e-05
2.81542e-05
4.64073e-05
6.18688e-05
6.7399e-05
6.72471e-05
6.62841e-05
6.7628e-05
7.12828e-05
7.77289e-05
8.67581e-05
3.97282e-05
2.78024e-05
4.68107e-05
6.33449e-05
7.01862e-05
7.02846e-05
6.94485e-05
7.07609e-05
7.44637e-05
8.09956e-05
9.02779e-05
4.04231e-05
2.67225e-05
4.47087e-05
6.31048e-05
7.20275e-05
7.30397e-05
7.25579e-05
7.37245e-05
7.72721e-05
8.35853e-05
9.26835e-05
4.0561e-05
2.56248e-05
4.09643e-05
6.07284e-05
7.22708e-05
7.50596e-05
7.54372e-05
7.65593e-05
7.98513e-05
8.57271e-05
9.43068e-05
4.00975e-05
2.45989e-05
3.62024e-05
5.57599e-05
7.00789e-05
7.5576e-05
7.76087e-05
7.91103e-05
8.22141e-05
8.75505e-05
9.53949e-05
3.90137e-05
2.36963e-05
3.11961e-05
4.83502e-05
6.44871e-05
7.33042e-05
7.79899e-05
8.07535e-05
8.41095e-05
8.90703e-05
9.61729e-05
3.72179e-05
2.29366e-05
2.67764e-05
3.98648e-05
5.54627e-05
6.69077e-05
7.47595e-05
7.99047e-05
8.44776e-05
8.97264e-05
9.64605e-05
3.46522e-05
2.21935e-05
2.32425e-05
3.18704e-05
4.44628e-05
5.62083e-05
6.61459e-05
7.39457e-05
8.0682e-05
8.73203e-05
9.46759e-05
3.12748e-05
2.1256e-05
2.05115e-05
2.53024e-05
3.37498e-05
4.31997e-05
5.25837e-05
6.12488e-05
6.94104e-05
7.75384e-05
8.61434e-05
2.70341e-05
1.98337e-05
1.83004e-05
2.03503e-05
2.50103e-05
3.10068e-05
3.76618e-05
4.45242e-05
5.15309e-05
5.88606e-05
6.67952e-05
2.19397e-05
1.75589e-05
1.61406e-05
1.66273e-05
1.86265e-05
2.15993e-05
2.52045e-05
2.92067e-05
3.3509e-05
3.8135e-05
4.31901e-05
1.6028e-05
1.3841e-05
1.31192e-05
1.30829e-05
1.36688e-05
1.47312e-05
1.61617e-05
1.78831e-05
1.98504e-05
2.20567e-05
2.45171e-05
9.65971e-06
9.86639e-06
1.09477e-05
1.20836e-05
1.31957e-05
1.42013e-05
1.63109e-05
1.98187e-05
2.47128e-05
3.07745e-05
3.73696e-05
7.20637e-06
6.36185e-06
6.51594e-06
7.49231e-06
1.13802e-05
1.44167e-05
1.60855e-05
1.71657e-05
1.80586e-05
2.44443e-05
2.44741e-05
2.43338e-05
2.62054e-05
3.49932e-05
5.15861e-05
7.60184e-05
0.0001053
0.000125494
4.22419e-05
3.78127e-05
3.6112e-05
4.33038e-05
6.66258e-05
0.000106099
0.00015485
0.00020589
0.000239071
6.17562e-05
5.28047e-05
4.77823e-05
6.11957e-05
9.8647e-05
0.000158461
0.000228485
0.00029749
0.000334983
1.19833e-05
1.49576e-05
1.6464e-05
1.73315e-05
1.79328e-05
1.81928e-05
1.82115e-05
1.82333e-05
1.85174e-05
3.12759e-05
4.45996e-05
6.80299e-05
9.83448e-05
0.000119274
0.000137352
0.000150992
0.000157605
0.000145035
5.93735e-05
9.09575e-05
0.000141151
0.000197262
0.000233755
0.000262669
0.000280629
0.000288754
0.000271662
8.78287e-05
0.000135975
0.000210193
0.000286886
0.000328061
0.000357146
0.000371522
0.000379105
0.000367098
0.000195624
0.000229704
0.000229753
7.57313e-05
0.00043002
0.000229223
8.45872e-05
0.000229617
0.000229299
0.000234089
0.000417962
0.000229674
0.000122302
0.000186239
0.000123814
0.000228749
0.00016407
7.62154e-05
0.000228752
0.00022858
0.000229572
3.1974e-05
0.000229986
0.000249146
0.00022931
0.000190117
0.000130379
8.57127e-05
0.00045377
0.000557399
0.000145946
0.000236034
0.000112067
0.000229456
0.000241399
0.000229667
0.000235765
0.000229303
9.4753e-05
0.00022915
2.1298e-05
0.000229498
0.000119427
0.00022997
0.000446199
5.41535e-05
5.12746e-05
8.91822e-05
0.000239949
0.000229963
0.000554814
0.000229128
0.000506541
0.000119077
0.000229788
0.000229353
3.16843e-05
0.000229116
0.000462243
0.000155748
2.72832e-05
0.00043477
0.000495933
0.000162574
2.9402e-05
0.000228583
0.000658219
0.000231848
0.000229702
0.000233591
0.000189505
0.000234479
6.06344e-05
0.000245765
0.000188127
0.000232317
1.9662e-05
0.000229736
0.000137081
0.000426848
0.000613944
0.000138542
0.000229258
0.0002298
0.000247208
6.13903e-05
0.000400132
0.000321013
4.46528e-05
0.000260446
0.00022952
0.000229098
2.45089e-05
0.000235646
0.000441551
0.000103245
0.000143179
0.000236794
4.3225e-05
0.000237078
0.000252708
0.000104884
0.000230316
0.000236541
4.96261e-05
0.000229614
0.00018151
0.000229875
0.000109736
0.000235879
0.000229377
0.000229556
0.000231618
7.02664e-05
7.89569e-05
0.000229018
0.000229242
0.000228991
0.000229351
0.000229255
6.80491e-05
0.000243147
0.000260873
0.000190557
5.18571e-05
0.000211689
0.000830477
0.000176248
0.000146017
0.000121628
0.000229161
0.000151625
9.46869e-05
0.000232857
0.000229769
0.000230689
2.23222e-05
0.000105309
0.00054908
0.000244594
0.000125049
0.00023119
0.000243581
0.000167994
0.000229288
3.9013e-05
0.000112641
0.000231361
0.000235999
0.000229061
0.00022933
0.000229146
4.04602e-05
0.00024251
7.48859e-05
6.2136e-05
6.91056e-05
3.03782e-05
0.000169401
0.000228946
0.000217255
4.83865e-05
0.0002339
0.000229117
0.000678725
0.00011338
5.60204e-05
0.000237621
0.000230323
2.91833e-05
0.000144027
0.000158625
0.000217051
0.000229571
0.000235256
0.000220367
0.000154994
3.94292e-05
0.00044817
0.000199724
0.000230736
2.81873e-05
0.000229928
0.000134119
0.000229382
0.000107553
0.000229398
0.000228945
0.000229647
0.000172289
0.000110048
0.000196613
0.000228574
2.12307e-05
0.000229733
0.000229128
0.000229748
4.35436e-05
0.000118141
0.000230001
3.54061e-05
0.000230248
0.000111387
0.000142066
0.000229808
0.000317197
0.000234869
0.00014604
0.000229754
0.000228743
0.000298203
0.000228967
0.000175318
0.000239215
0.000229285
0.000351165
0.000229409
5.03552e-05
0.000229608
8.20646e-05
7.30124e-05
6.6255e-05
0.000139224
7.80022e-05
0.000193475
0.00022912
0.000104793
0.000113999
0.000112069
0.000312097
3.34986e-05
0.000228529
0.000229356
0.000242892
3.94224e-05
0.000295225
0.000657993
0.000229875
0.000229666
0.000229609
5.08059e-05
0.000196896
0.000236661
1.99551e-05
0.000246239
4.9081e-05
0.000229382
0.000143781
0.000182514
0.000815232
0.000143597
0.000299879
0.000237886
0.00022874
0.000233953
0.000229591
0.000229254
0.000229267
4.69329e-05
0.000229468
0.000123439
0.00018744
0.000228225
0.00022965
0.000229368
5.08189e-05
0.00023159
0.000245833
0.000159536
0.000179812
0.000190721
0.000229445
0.000230254
5.08412e-05
0.000229195
0.000229
0.000186189
0.000229228
0.000238252
4.89315e-05
0.000236207
0.000229861
0.000615265
0.000618918
0.000233557
0.000229195
0.00045579
0.000229816
0.000238072
0.000120698
0.000229889
0.000101017
0.000241015
7.9413e-05
0.000230014
0.000229708
0.000231061
0.00022963
0.000240962
0.00018873
0.000229141
5.98308e-05
0.000242986
0.000555054
0.000229177
0.00023619
0.00022975
0.00023645
2.83716e-05
0.000229239
5.40537e-05
0.000229661
0.000234202
0.000115801
2.32069e-05
0.000231551
0.000174222
6.44581e-05
0.000228776
0.000241073
0.000229242
0.000485288
0.000228945
0.00019223
0.00011469
0.000234157
0.000229147
0.000208826
0.000228235
0.000706582
0.000234497
0.000495086
1.75642e-05
0.000229904
0.000100287
0.000197163
6.73783e-05
0.000229706
0.000229285
0.000238732
5.09906e-05
0.000288199
0.000230277
0.000108466
0.00018094
0.00023776
9.6014e-05
0.000229001
0.0002036
0.000893263
5.44127e-05
0.000236929
0.000179873
0.000229138
0.00010599
0.000230037
7.10113e-05
0.000206769
0.000229967
0.0007551
0.000136121
0.00018417
0.000229441
0.000229319
0.000229817
5.01791e-05
0.000167363
5.95392e-05
6.43886e-05
0.000256954
0.000229226
0.000125335
0.000192737
0.000192468
0.000113037
0.000229861
0.000152678
0.000241221
0.000229167
0.000229044
0.000513553
0.000229121
3.75958e-05
0.000229104
0.000196569
0.000688333
5.98113e-05
0.000193109
0.000197557
4.61759e-05
0.000229163
4.69808e-05
0.000186187
0.000247548
0.000691023
2.88304e-05
0.000229238
0.000229133
0.000229907
8.64972e-05
4.70253e-05
0.000228979
0.000229941
0.000123277
9.4613e-05
2.23995e-05
0.000103608
0.000132534
0.000230169
0.000486447
0.000234977
0.000228722
0.000117866
0.000120037
4.95587e-05
0.000234063
0.000110181
0.000251553
0.000182814
5.08029e-05
0.000321624
0.000150455
8.23517e-05
0.000110258
0.000227357
0.000235047
0.00024426
7.42491e-05
0.000206389
3.67149e-05
0.000229251
3.79295e-05
0.000207468
0.000228679
0.000240757
6.51436e-05
0.000295361
0.000515386
0.000189929
0.000230038
0.00023664
0.000390484
9.322e-05
5.97176e-05
0.000231796
7.75516e-05
0.000229782
2.5745e-05
0.000228954
3.9733e-05
0.000229159
0.000229747
0.000229371
5.12096e-05
9.62956e-05
6.60906e-05
0.000146027
3.34254e-05
8.17336e-05
0.000229648
0.000228942
0.000857824
0.000182327
0.000234027
0.000233878
4.13418e-05
4.53232e-05
2.96836e-05
2.93526e-05
0.000234349
0.000211895
5.26925e-05
0.00022911
2.66199e-05
0.000233117
0.000229772
0.00022941
8.05662e-05
3.52344e-05
0.00022933
0.000229124
0.000229587
0.000262119
2.58638e-05
0.000229924
4.12046e-05
0.000357035
0.000156662
6.44136e-05
0.000228833
3.56001e-05
0.000229147
0.000232773
0.000229129
0.000127776
0.00014941
0.000228596
0.000193826
0.000168919
0.000244951
0.000223891
0.000208849
0.000229583
0.000229418
0.000239866
7.15383e-05
5.69159e-05
0.000234632
9.98054e-05
0.000229775
0.00044776
0.000104809
4.44426e-05
0.000107786
0.00025235
0.000653232
7.44325e-05
0.0001936
0.000229132
0.000184392
0.000228886
0.000229851
0.000229236
0.000229709
0.000232713
0.000492442
0.000229453
0.000228886
0.00015602
0.000229127
4.39492e-05
0.000241593
0.000203013
0.000176294
4.61749e-05
0.000230021
0.000229297
0.000229921
2.11624e-05
3.53264e-05
0.00022932
0.000229252
0.000190461
0.000229841
8.714e-05
0.000229816
0.000866981
0.000236969
3.17773e-05
8.97494e-05
0.000131537
5.74222e-05
0.000476338
0.00022919
0.000231717
0.000235655
0.00022985
6.52268e-05
2.46295e-05
0.000223857
0.000130205
0.000186684
9.09489e-05
0.00022932
0.000230487
0.000229758
0.000227342
0.000702234
8.40173e-05
0.000229598
0.000229238
0.000622012
0.000231986
9.46293e-05
0.000140247
0.000150549
0.000283878
0.000229128
8.87051e-05
0.000229279
7.49463e-05
0.000229783
0.000193181
0.000150528
0.000234912
2.37975e-05
0.000130347
0.00022995
0.000229999
0.000453776
0.000229068
0.000183585
9.98772e-05
8.11059e-05
0.000215754
5.04077e-05
0.000155874
0.000231707
0.000229119
0.000229324
0.000107037
5.15995e-05
0.000113086
0.000228575
0.00022935
8.87465e-05
0.000229445
0.000239527
0.00023388
0.000234286
0.000107728
5.42253e-05
8.16203e-05
0.000159966
0.000233597
0.00022654
0.000228714
0.000150055
0.000232253
0.000229175
0.000169277
0.00038434
0.000228942
0.000229077
2.27982e-05
0.00023037
0.0002289
0.000147684
0.000229776
0.000233579
9.58179e-05
8.31443e-05
0.00015869
0.000178785
0.000159882
6.98754e-05
0.000346996
6.27814e-05
0.000105902
0.000180216
5.18147e-05
7.17551e-05
0.000128842
0.000229779
0.000229902
0.000113864
0.000230223
0.00022915
0.000241971
0.000207548
0.000120431
0.000187548
0.000193053
0.000253422
0.000229085
0.000190952
0.0002295
0.000229134
0.000236487
8.00042e-05
0.000232197
0.00023556
0.000230267
0.000229798
0.000119373
6.22503e-05
0.000298764
0.000232577
0.000229752
0.000189892
0.000143787
0.000239187
0.000169855
0.000232077
0.000192347
0.000463443
0.00022911
6.83489e-05
0.000229948
0.000116679
0.00013077
0.000104541
0.000147806
0.000215454
0.000246491
0.000229832
9.9908e-05
0.000182504
4.83392e-05
0.000800126
0.000228987
0.000233902
0.000229819
0.000161135
0.000229367
4.36505e-05
0.00022965
0.000229123
0.000229192
0.000130489
6.71158e-05
0.000229542
0.000129884
0.000229285
0.000112991
0.000169535
0.000231161
0.000109758
1.89563e-05
7.90496e-05
0.000236519
0.000201406
0.000140522
0.000121133
0.000125416
8.20727e-05
0.000229198
0.000146889
0.000229305
0.000233919
5.04864e-05
0.000224548
3.46349e-05
0.000186196
0.000231669
0.000233839
0.00022928
5.57014e-05
0.000229629
0.00106119
0.000110253
0.000844669
0.000233894
0.000138841
0.000153894
0.000211397
0.000242215
0.000123882
3.67181e-05
6.10973e-05
0.000229463
0.000184203
0.000180185
0.000229538
4.62429e-05
0.000119494
0.000248984
0.000191761
0.000229198
0.000232091
0.000235007
0.000131178
0.000236911
0.000191942
0.000229682
0.000116592
0.000234785
8.29419e-05
7.11339e-05
0.000336439
0.000109799
0.000228927
0.000262548
6.35339e-05
0.000229157
0.000189679
0.000188154
8.20726e-05
0.000238164
2.98487e-05
0.000238384
7.96851e-05
8.97083e-05
0.000251636
0.000229078
0.000247092
0.000229066
9.86308e-05
2.08757e-05
0.00023006
0.000229294
0.00025257
0.000357327
0.00047016
0.000155674
0.000229775
0.000144098
0.000245098
0.000229546
0.000229608
0.000229828
0.000229262
0.000242697
0.000159769
4.6651e-05