/*--------------------------------*- C++ -*----------------------------------*\
| =========                 |                                                 |
| \\      /  F ield         | OpenFOAM: The Open Source CFD Toolbox           |
|  \\    /   O peration     | Version:  3.0.1                                 |
|   \\  /    A nd           | Web:      www.OpenFOAM.org                      |
|    \\/     M anipulation  |                                                 |
\*---------------------------------------------------------------------------*/
FoamFile
{
    version     2.0;
    format      ascii;
    class       volScalarField;
    location    "0.0426383";
    object      k;
}
// * * * * * * * * * * * * * * * * * * * * * * * * * * * * * * * * * * * * * //

dimensions      [0 2 -2 0 0 0 0];

internalField   nonuniform List<scalar> 
21246
(
0.512416
0.731607
0.63439
0.495305
0.3571
0.241998
0.158487
0.102607
0.0658182
0.0417657
0.0268932
0.418651
0.625843
0.594265
0.479707
0.347822
0.235254
0.153166
0.0979193
0.061922
0.0389501
0.0249431
0.31741
0.552267
0.552741
0.471231
0.354243
0.2435
0.158413
0.0999551
0.0619813
0.0382835
0.0242712
0.270298
0.48646
0.513594
0.460023
0.35928
0.253031
0.166566
0.105401
0.065092
0.0396931
0.0246418
0.236794
0.416618
0.455285
0.430002
0.35354
0.258855
0.174026
0.110706
0.0678976
0.0405752
0.024365
0.218532
0.370631
0.408152
0.392343
0.331607
0.250146
0.171936
0.110789
0.0685517
0.0415015
0.0254424
0.206365
0.337438
0.37324
0.36082
0.307781
0.235532
0.164786
0.108158
0.0679692
0.0415459
0.0254804
0.198628
0.312914
0.345524
0.333974
0.286391
0.221112
0.156577
0.104186
0.066383
0.041143
0.0258867
0.19282
0.293534
0.322857
0.311465
0.267591
0.207688
0.148353
0.0998634
0.064503
0.04054
0.0257549
0.187696
0.277131
0.303955
0.292907
0.251941
0.196263
0.141105
0.0958564
0.0625918
0.0397208
0.025221
0.183171
0.263007
0.288075
0.277634
0.239178
0.186933
0.135105
0.0924307
0.0608461
0.0389207
0.0251202
0.179833
0.251209
0.274833
0.264993
0.228726
0.179382
0.130288
0.0896833
0.0594471
0.0383081
0.0249011
0.177318
0.241146
0.263792
0.254744
0.220519
0.173666
0.126782
0.0877734
0.0585439
0.037937
0.0246313
0.174996
0.232224
0.25455
0.246758
0.21463
0.169947
0.12477
0.0868524
0.0582088
0.0378303
0.0246479
0.173462
0.224624
0.24692
0.240629
0.210679
0.168013
0.124185
0.0869313
0.0584777
0.0379989
0.0245286
0.172596
0.217948
0.240698
0.23631
0.208764
0.168052
0.125248
0.0882048
0.0594994
0.0385749
0.0246655
0.172078
0.211736
0.235629
0.23384
0.209189
0.170507
0.128396
0.0910202
0.0615214
0.0397098
0.0250959
0.1722
0.206006
0.231611
0.233103
0.212009
0.17568
0.134058
0.0957856
0.0648568
0.0416165
0.0258665
0.173425
0.200646
0.228012
0.233493
0.217155
0.18418
0.142978
0.103128
0.0700261
0.0446934
0.0273592
0.175917
0.195276
0.224572
0.234454
0.223671
0.194949
0.155118
0.113741
0.0777722
0.0495779
0.0299619
0.180036
0.18975
0.220853
0.235584
0.231068
0.20758
0.170016
0.127563
0.0885509
0.0570137
0.0344568
0.187419
0.182927
0.216827
0.235888
0.237928
0.220613
0.186761
0.144584
0.103148
0.0681653
0.0420446
0.196919
0.176516
0.209268
0.234234
0.242695
0.232208
0.203907
0.164334
0.122231
0.0844083
0.0544849
0.223671
0.185457
0.223423
0.230211
0.237078
0.232142
0.212605
0.180921
0.143139
0.105747
0.0734288
0.465801
0.631757
0.600662
0.517215
0.41099
0.295341
0.194293
0.126839
0.0809776
0.0506072
0.0323593
0.3513
0.456998
0.513576
0.498178
0.436074
0.345449
0.247233
0.166497
0.105093
0.066155
0.0412582
0.172671
0.434399
0.465739
0.468116
0.436959
0.373254
0.289086
0.205726
0.136009
0.0865144
0.0544747
0.171727
0.329993
0.471056
0.471906
0.443694
0.392678
0.321321
0.241879
0.167962
0.110169
0.0719362
0.189245
0.299458
0.497749
0.565326
0.511914
0.438474
0.359719
0.278533
0.201284
0.136388
0.0903519
0.213658
0.298123
0.465735
0.666644
0.679347
0.565496
0.441318
0.33314
0.241642
0.166885
0.111264
0.2401
0.31469
0.450194
0.645598
0.827968
0.781609
0.608624
0.438762
0.306054
0.207865
0.137694
0.265508
0.338061
0.449053
0.607343
0.814078
0.958543
0.844047
0.61954
0.418238
0.272714
0.175221
0.289163
0.364681
0.457503
0.575571
0.739218
0.954775
1.03133
0.843788
0.58466
0.373646
0.231502
0.311089
0.393486
0.472811
0.554194
0.665177
0.846654
1.05667
1.02335
0.77042
0.504765
0.309702
0.331764
0.425179
0.494426
0.543545
0.607569
0.736527
0.954094
1.0912
0.920455
0.63871
0.400434
0.352407
0.459753
0.521366
0.543495
0.571495
0.653629
0.830949
1.05276
1.00686
0.744546
0.486106
0.374334
0.499036
0.553311
0.553595
0.555993
0.604805
0.736219
0.965475
1.03894
0.807246
0.54551
0.399251
0.543635
0.58927
0.571507
0.555869
0.583394
0.674164
0.841683
1.02985
0.836211
0.570589
0.424996
0.595253
0.631878
0.594421
0.558832
0.566258
0.625896
0.731681
0.86187
0.858576
0.566233
0.452985
0.656843
0.683584
0.621973
0.559949
0.540856
0.567137
0.626213
0.701811
0.748147
0.59091
0.484204
0.730771
0.747195
0.655585
0.560227
0.510708
0.505609
0.528125
0.563297
0.59132
0.574241
0.520571
0.820691
0.829282
0.702152
0.565894
0.483035
0.451658
0.451185
0.465106
0.479286
0.480771
0.567342
0.948045
0.962695
0.799827
0.615445
0.494943
0.442727
0.433936
0.439263
0.438013
0.431932
0.545413
1.00475
1.08539
0.953671
0.757622
0.60623
0.527309
0.502101
0.458743
0.421291
0.392586
0.480766
0.921928
1.05183
0.991525
0.84902
0.722985
0.61296
0.461929
0.389776
0.322026
0.257735
0.458105
0.840645
0.974379
0.95926
0.847641
0.669359
0.510774
0.383812
0.297012
0.232384
0.178786
0.391758
0.641958
0.660259
0.571179
0.443888
0.350389
0.285017
0.23878
0.201824
0.167214
0.132618
0.268753
0.220303
0.206737
0.203971
0.206438
0.208603
0.204713
0.191067
0.167277
0.136404
0.103424
0.232581
0.21901
0.107392
0.050077
0.0258826
0.0159049
0.0119742
0.0102673
0.00939408
0.00885409
0.00845238
0.277457
0.302844
0.100104
0.0562618
0.0294177
0.0175954
0.0124837
0.0103073
0.0092316
0.00861868
0.00821817
0.321159
0.351274
0.0981172
0.0650096
0.0322436
0.0194952
0.0132829
0.010556
0.00917307
0.00835102
0.00774796
0.360385
0.329077
0.0990583
0.0690845
0.032826
0.0209888
0.0139017
0.0108475
0.00920423
0.00823015
0.00755304
0.391919
0.292198
0.0986085
0.0678123
0.0323481
0.0218961
0.0142064
0.0111046
0.00927974
0.00821132
0.00749083
0.417149
0.263483
0.0969224
0.0641428
0.031772
0.0221613
0.0143076
0.0112801
0.00934716
0.00823157
0.00749236
0.436519
0.244802
0.0948822
0.060386
0.031422
0.0219252
0.0143253
0.0113717
0.00938873
0.00825903
0.00750185
0.448404
0.232594
0.0925833
0.0571729
0.0311383
0.0214892
0.0143141
0.0113996
0.00940773
0.00828753
0.00754298
0.455139
0.225089
0.0905341
0.0547496
0.0309005
0.0210808
0.014308
0.0113993
0.00941721
0.00831156
0.007568
0.457957
0.224405
0.0895575
0.0532997
0.0308791
0.0208257
0.0143461
0.0114081
0.00943097
0.00833471
0.0075825
0.455947
0.227687
0.0908685
0.0530166
0.0311347
0.0207445
0.0144541
0.0114483
0.0094612
0.00836492
0.00760172
0.449537
0.232353
0.0930479
0.0534301
0.0317635
0.02091
0.0146789
0.0115381
0.00952322
0.00841011
0.00762501
0.439874
0.238456
0.0968857
0.0547089
0.0328145
0.0213812
0.0150698
0.0117302
0.00966122
0.00848737
0.00767353
0.427515
0.246711
0.103551
0.0573722
0.0345331
0.0223195
0.0157013
0.0120597
0.00989425
0.00861357
0.00775567
0.412604
0.255945
0.11164
0.0611687
0.0368925
0.0237476
0.0166314
0.0125838
0.0102428
0.00881675
0.00788774
0.395905
0.266081
0.121725
0.0665073
0.0401822
0.0258312
0.0179776
0.0133996
0.0107665
0.00913953
0.00809609
0.377833
0.277248
0.135091
0.0743378
0.0450221
0.0289439
0.0199878
0.0146731
0.0115781
0.00965619
0.0084306
0.358401
0.28912
0.151355
0.0850866
0.0519307
0.0335013
0.0229975
0.0166528
0.0128638
0.0104963
0.00898304
0.337956
0.301071
0.171051
0.0998049
0.0619292
0.040309
0.027626
0.0198003
0.0149736
0.0119117
0.00993441
0.316854
0.311861
0.194574
0.119928
0.076683
0.0508241
0.0350405
0.0250139
0.0185963
0.014418
0.0116655
0.29528
0.319444
0.221773
0.147213
0.0987832
0.0676463
0.0474988
0.0341355
0.0251982
0.0191595
0.0150539
0.273808
0.322314
0.251989
0.18388
0.132348
0.0954866
0.0695222
0.0511607
0.0381628
0.0289362
0.022372
0.24963
0.311146
0.279258
0.229224
0.181528
0.141404
0.109398
0.084509
0.065448
0.0509886
0.0400432
0.232835
0.291538
0.280936
0.255319
0.223765
0.191493
0.161485
0.135018
0.112453
0.0936818
0.07822
0.248488
0.239697
0.110709
0.052695
0.026886
0.0163812
0.0123946
0.0107819
0.0100287
0.00959836
0.00928539
0.299784
0.35027
0.0997333
0.0592682
0.0307332
0.0191404
0.0143845
0.0124126
0.0114939
0.0109945
0.0106643
0.34364
0.401093
0.0976892
0.0674209
0.0339514
0.0214939
0.0159463
0.0136704
0.0126786
0.0121899
0.011878
0.377714
0.360618
0.0978661
0.070089
0.0351749
0.0232795
0.0174851
0.0152092
0.014373
0.0141749
0.0142396
0.400388
0.304022
0.0959257
0.0676482
0.0352835
0.0245439
0.0188389
0.0167131
0.0161023
0.0161941
0.016564
0.414177
0.26011
0.0922514
0.0633794
0.035096
0.0254256
0.0200384
0.0182519
0.0180401
0.01872
0.0199474
0.422377
0.229363
0.0881147
0.059334
0.034917
0.026126
0.0211628
0.0198328
0.0201063
0.0214906
0.023684
0.425842
0.207164
0.0839961
0.0560197
0.0348318
0.0268022
0.0222939
0.0214528
0.0222803
0.0245612
0.0283064
0.427293
0.190984
0.0803693
0.053547
0.0349603
0.0275054
0.0234864
0.0230835
0.0244929
0.0277979
0.033604
0.428786
0.179118
0.0774666
0.0518845
0.0353929
0.0282396
0.0247367
0.024673
0.0265947
0.0307434
0.0379033
0.431475
0.171617
0.0754312
0.0509903
0.0361558
0.0290742
0.026009
0.0261609
0.0284459
0.0331251
0.0408892
0.432854
0.167606
0.0740619
0.0506456
0.0371996
0.030025
0.027289
0.0275104
0.0299825
0.0348481
0.0428229
0.432893
0.166093
0.0740857
0.0509128
0.0385885
0.0312154
0.0286732
0.02882
0.0313523
0.0361514
0.0438972
0.431732
0.16751
0.0758958
0.0518588
0.0403391
0.0327455
0.0302078
0.0301452
0.0325657
0.0370574
0.0441157
0.429329
0.170565
0.0788895
0.0534281
0.0423677
0.0346378
0.0319276
0.0315339
0.0336388
0.037601
0.0436432
0.425803
0.175274
0.0832924
0.0557904
0.0447112
0.0369365
0.0338992
0.0330624
0.034637
0.0378759
0.0427076
0.421165
0.181837
0.0894379
0.0592413
0.0475119
0.039694
0.0362044
0.0348346
0.0356852
0.0380355
0.0415674
0.415263
0.189928
0.0975
0.0641249
0.051012
0.0429843
0.0389473
0.0369772
0.0369687
0.0383076
0.0405213
0.407862
0.199302
0.107766
0.0709658
0.0556681
0.0470104
0.0422839
0.0396473
0.0387227
0.0389917
0.039945
0.398565
0.209656
0.120743
0.080598
0.0623154
0.0522873
0.0465419
0.0430891
0.0412311
0.0404532
0.0402473
0.386566
0.220282
0.136839
0.0942014
0.0723578
0.0599553
0.0525051
0.0478127
0.0448675
0.0430447
0.0418078
0.369967
0.229721
0.156248
0.113295
0.0880153
0.0722431
0.0619698
0.0550667
0.0503568
0.0470909
0.0446672
0.344745
0.235493
0.178515
0.139723
0.112822
0.0935345
0.0793294
0.0686889
0.0606223
0.0553869
0.0523144
0.253048
0.224563
0.198301
0.178297
0.161528
0.147126
0.134584
0.123688
0.114396
0.105704
0.0978445
0.61858
1.01595
0.614663
0.377179
0.222228
0.123832
0.0735874
0.0523399
0.0448465
0.042543
0.0419162
0.602271
0.859703
0.663442
0.453776
0.289501
0.166367
0.0898228
0.0566579
0.0446574
0.0408338
0.0395868
0.511367
0.68536
0.639794
0.48476
0.334164
0.205779
0.113795
0.0655301
0.0454428
0.0391975
0.0368245
0.363818
0.604703
0.605249
0.493355
0.361713
0.237346
0.138317
0.0776015
0.0488332
0.0380962
0.0345218
0.206209
0.583517
0.588615
0.499725
0.3825
0.263722
0.162175
0.0922974
0.054428
0.0384508
0.0328273
0.185759
0.604192
0.606537
0.516181
0.402989
0.287735
0.185435
0.109138
0.062736
0.0404618
0.0318211
0.199683
0.640295
0.663871
0.551474
0.427991
0.310895
0.207683
0.127045
0.0734951
0.0445389
0.0318758
0.196548
0.617403
0.752011
0.617132
0.46456
0.335357
0.228543
0.144708
0.0857595
0.0506385
0.0333623
0.170226
0.518389
0.772554
0.688964
0.512247
0.362657
0.248205
0.161238
0.0984848
0.0583037
0.0363834
0.144135
0.417179
0.703283
0.738277
0.564005
0.392252
0.266746
0.176132
0.110806
0.0668859
0.0408169
0.12331
0.338469
0.590186
0.730142
0.60185
0.418502
0.282434
0.188446
0.121789
0.0756057
0.0462754
0.108293
0.283525
0.48877
0.671394
0.610265
0.433411
0.292227
0.196916
0.13055
0.0836839
0.052278
0.0976352
0.244889
0.402106
0.583477
0.587444
0.433129
0.294436
0.201019
0.13674
0.0906658
0.0583614
0.0899602
0.21644
0.330965
0.477414
0.543489
0.41812
0.289088
0.20097
0.140454
0.0964029
0.0642472
0.0820664
0.19304
0.280507
0.388127
0.473969
0.393089
0.277197
0.19723
0.141933
0.100888
0.0698536
0.0747189
0.172907
0.238949
0.320395
0.394269
0.361166
0.261497
0.191075
0.141913
0.104544
0.0752975
0.0675822
0.154292
0.203207
0.265488
0.322801
0.322273
0.244111
0.183924
0.141344
0.108015
0.0809666
0.0604893
0.137118
0.172087
0.21968
0.264201
0.278268
0.22661
0.177041
0.14121
0.112077
0.0875745
0.0542308
0.121843
0.144995
0.180864
0.216228
0.235646
0.208773
0.17145
0.142502
0.117691
0.0957432
0.0491157
0.108545
0.12115
0.148015
0.17687
0.198733
0.191515
0.167489
0.145425
0.124858
0.105334
0.0454999
0.0961168
0.100233
0.121484
0.146545
0.169979
0.176175
0.163545
0.1475
0.130567
0.113339
0.0468996
0.0880814
0.095896
0.116363
0.139068
0.161625
0.171095
0.16246
0.148248
0.132103
0.115572
0.115398
0.223153
0.264958
0.271599
0.285849
0.289567
0.269415
0.237614
0.201912
0.168738
0.140305
0.210836
0.185699
0.165748
0.160654
0.159204
0.157644
0.154544
0.148745
0.139463
0.126869
0.113304
0.588398
0.746307
0.513112
0.300592
0.169784
0.0997827
0.0655132
0.0508131
0.0455796
0.0442614
0.0442478
0.423013
0.555016
0.421446
0.271186
0.162201
0.0984394
0.0653806
0.0509623
0.0461778
0.0454825
0.0461947
0.356086
0.530759
0.404058
0.275534
0.168098
0.101101
0.0656558
0.0503078
0.0457302
0.0458536
0.0477168
0.32678
0.485905
0.395935
0.287514
0.1774
0.103682
0.0646046
0.0479807
0.0434948
0.0444807
0.0477775
0.307374
0.431992
0.369913
0.291801
0.188612
0.109429
0.0645279
0.0446254
0.0390819
0.0401105
0.0441137
0.294011
0.388306
0.344423
0.281155
0.193219
0.118522
0.0683906
0.042821
0.0346078
0.0346933
0.0384623
0.283554
0.353884
0.323838
0.27133
0.192775
0.12282
0.0729063
0.0445072
0.0329839
0.0313933
0.0347056
0.275182
0.326544
0.306519
0.262073
0.19184
0.127419
0.0781492
0.0472376
0.0326977
0.0290477
0.0310086
0.26823
0.304675
0.292408
0.25377
0.190535
0.131495
0.0840178
0.0518682
0.0345604
0.028494
0.0288359
0.262528
0.287487
0.280535
0.246377
0.189803
0.135466
0.0903242
0.0579636
0.0384968
0.029933
0.0284562
0.257678
0.273225
0.27032
0.240487
0.189765
0.139622
0.0969553
0.0651134
0.0443106
0.0334677
0.0299041
0.253568
0.260847
0.261145
0.235601
0.190108
0.143795
0.103578
0.0726919
0.0513451
0.0388392
0.0335065
0.250163
0.249739
0.252871
0.23155
0.190809
0.147997
0.110059
0.0802991
0.0590033
0.0456487
0.0393688
0.247382
0.239371
0.245223
0.228205
0.191944
0.152347
0.116401
0.0876205
0.0664943
0.0525957
0.0455383
0.245162
0.229495
0.23787
0.225221
0.193345
0.156835
0.122644
0.0945816
0.0734549
0.059051
0.0514893
0.243428
0.220029
0.230239
0.221949
0.194801
0.161593
0.129125
0.101546
0.0800386
0.0649833
0.0569562
0.242217
0.210878
0.221986
0.217666
0.195504
0.165974
0.135522
0.108506
0.0867138
0.0708935
0.0622369
0.241599
0.201967
0.213027
0.212257
0.195227
0.16982
0.141842
0.115666
0.0936664
0.0771383
0.0674177
0.241763
0.193275
0.20327
0.205536
0.193639
0.172826
0.147959
0.123187
0.101307
0.0841733
0.0732936
0.243066
0.184842
0.192562
0.19718
0.190231
0.174431
0.153459
0.130956
0.109869
0.0924461
0.080499
0.246169
0.176769
0.180703
0.186697
0.184236
0.1737
0.157436
0.138319
0.119068
0.102046
0.0892915
0.252541
0.169197
0.167495
0.173337
0.174391
0.168982
0.158062
0.14351
0.12745
0.111972
0.0990673
0.26463
0.162225
0.152435
0.156119
0.159229
0.158239
0.152721
0.14348
0.131823
0.11924
0.107356
0.297485
0.153814
0.143556
0.144897
0.147739
0.148728
0.146781
0.141716
0.133877
0.123988
0.113122
0.175991
0.199425
0.211111
0.213916
0.206478
0.181078
0.177591
0.179998
0.182122
0.204831
0.251911
0.290203
0.30787
0.309585
0.287854
0.254037
0.237062
0.223795
0.22225
0.241532
0.257325
0.274072
0.278622
0.257674
0.224734
0.203556
0.189241
0.194557
0.200529
0.210738
0.213845
0.212607
0.192763
0.162565
0.148239
0.145166
0.124948
0.0544247
0.0458023
0.045953
0.0360517
0.0713609
0.138453
0.166986
0.17886
0.161965
0.127701
0.0649154
0.0710475
0.0785492
0.11707
0.141192
0.170801
0.201277
0.189415
0.144968
0.0737428
0.0786195
0.0908172
0.128185
0.153515
0.171872
0.181447
0.182901
0.146499
0.08247
0.0884573
0.0964461
0.123146
0.138898
0.144007
0.146588
0.00479353
0.00460158
0.00461695
0.00468002
0.00506032
0.0055516
0.014084
0.00455445
0.00568093
0.00484825
0.0050727
0.00456111
0.004721
0.00482455
0.00489379
0.00519284
0.00478203
0.00470424
0.00518745
0.00555271
0.00486656
0.0054584
0.00466513
0.00488907
0.00457863
0.00480591
0.00473019
0.0134897
0.0119749
0.00488103
0.00481164
0.00490349
0.00481908
0.00454161
0.00500016
0.00459236
0.0049428
0.00458186
0.0048398
0.00563041
0.00667771
0.00454865
0.00489338
0.00465804
0.00665992
0.0738694
0.00527385
0.0492218
0.00508451
0.0055927
0.0049213
0.00554479
0.00503301
0.00488984
0.00557926
0.00485829
0.00545395
0.00561475
0.01115
0.00485662
0.00591826
0.00502954
0.00510898
0.00468048
0.0201328
0.00560902
0.00485966
0.0051911
0.00460194
0.00487182
0.00469622
0.00520708
0.00475548
0.00559978
0.00545813
0.00525764
0.00515945
0.00459752
0.00559457
0.0109816
0.00486012
0.00467467
0.00455322
0.00462591
0.00512988
0.00473557
0.0153642
0.00494234
0.00510212
0.00533927
0.00454561
0.00544033
0.0072749
0.00525346
0.0102999
0.0445814
0.00515086
0.00496068
0.005065
0.00534253
0.00519297
0.0415584
0.00502334
0.00475646
0.00496949
0.00455395
0.00488233
0.00464642
0.00487418
0.00512272
0.00464372
0.00456134
0.00525227
0.00463501
0.00485979
0.00492022
0.00595515
0.00581829
0.00454598
0.00511882
0.00464454
0.00556914
0.00573953
0.00474466
0.0824134
0.00521567
0.00512696
0.0047921
0.00510296
0.00486335
0.0046814
0.00486846
0.0467841
0.0052282
0.00461404
0.00527693
0.00536636
0.00467784
0.00487648
0.00503436
0.00489137
0.00494003
0.0094053
0.00477315
0.00597162
0.00487939
0.00536506
0.00520304
0.0047698
0.00512754
0.00511739
0.00490708
0.00504705
0.00553192
0.00462694
0.0049094
0.00468861
0.00532954
0.00487685
0.00553002
0.00466882
0.00494237
0.00523141
0.00487254
0.0049228
0.00541022
0.00524532
0.00513308
0.00523476
0.0170173
0.00485975
0.00462114
0.00525163
0.00484837
0.00493334
0.00464634
0.00471953
0.00499202
0.00684691
0.00463914
0.00524222
0.00533235
0.0046596
0.0050135
0.00453876
0.00471019
0.00506232
0.00569824
0.00458939
0.0056174
0.00488217
0.00466466
0.00525624
0.00605471
0.00461003
0.00525817
0.00560293
0.00502859
0.00484802
0.00467914
0.00528968
0.00568034
0.00498638
0.00482631
0.00462755
0.00494879
0.00520901
0.00510252
0.00586437
0.00541643
0.00525666
0.00493397
0.00483316
0.00505087
0.00455181
0.00499402
0.00453346
0.00514232
0.00524319
0.00484029
0.00475002
0.00463862
0.00521177
0.00483825
0.00474686
0.00537936
0.00500397
0.00529061
0.00485572
0.00497423
0.00533134
0.00515934
0.00510499
0.00553767
0.00497461
0.0180104
0.00481765
0.00464635
0.00456352
0.00455337
0.00517964
0.00490027
0.00476563
0.00522631
0.00553614
0.00497531
0.00453177
0.00467823
0.0468657
0.00485948
0.00467654
0.00526987
0.00564255
0.00546815
0.00498607
0.00560188
0.0049005
0.00464109
0.00484827
0.00504412
0.0047882
0.00528167
0.00536941
0.00457535
0.00462443
0.00520419
0.0049529
0.00553604
0.00539175
0.00473826
0.00511777
0.00541846
0.00563124
0.00528109
0.00549807
0.00589784
0.00471063
0.00482662
0.00505812
0.00495868
0.00523157
0.00459731
0.0048673
0.00487351
0.00495697
0.00547295
0.00861937
0.00458889
0.00509289
0.00490114
0.00461567
0.013514
0.00512326
0.00496127
0.00467843
0.00589819
0.00524093
0.00456807
0.00502337
0.00470614
0.00483505
0.00470822
0.00505903
0.00487449
0.00491527
0.00513573
0.00459837
0.00539765
0.00535694
0.00583639
0.0116019
0.00456453
0.00506677
0.00481417
0.0049791
0.00499906
0.00489474
0.00504873
0.00494627
0.00544549
0.00498096
0.00514687
0.00532088
0.00462781
0.00486334
0.00507464
0.00468922
0.00489164
0.00502736
0.00507279
0.0053611
0.00511264
0.0051547
0.00464932
0.00477288
0.0368684
0.0046787
0.00458696
0.00463038
0.00496755
0.00541072
0.00529597
0.00558519
0.00516261
0.00506739
0.00541771
0.0048634
0.00535831
0.00493686
0.00508167
0.0188319
0.00481932
0.00472681
0.00497926
0.00473463
0.00468914
0.00474453
0.00475111
0.00465928
0.0050252
0.0046349
0.00474053
0.00453356
0.00454105
0.00564533
0.00518834
0.00462662
0.00483619
0.021747
0.00530403
0.00487588
0.00517733
0.0430814
0.00481487
0.00472402
0.0046079
0.00464129
0.00496712
0.00567789
0.00518381
0.0050582
0.00558393
0.00489076
0.00507539
0.00466788
0.0048032
0.0046945
0.00474288
0.00494193
0.00540007
0.00481656
0.0074498
0.00482518
0.0050803
0.00479791
0.0194927
0.0045795
0.00563315
0.00461869
0.00485296
0.00483365
0.00504057
0.00466145
0.00487944
0.00480744
0.0144485
0.00652417
0.00501507
0.00562318
0.00517627
0.00510235
0.00517261
0.00491255
0.00487738
0.0052313
0.00508048
0.00489202
0.00573726
0.00469468
0.00686383
0.005001
0.00480824
0.0166356
0.00486367
0.00467238
0.00509483
0.00555747
0.0046406
0.00536143
0.0774888
0.00454642
0.00486841
0.00462022
0.00499143
0.00556654
0.00478667
0.00507659
0.00489741
0.00473938
0.00468834
0.0046932
0.0146705
0.00528489
0.00469603
0.00509505
0.00485809
0.00479115
0.00528436
0.00557559
0.00503566
0.00473187
0.0046131
0.00454275
0.00597137
0.00542525
0.0246973
0.00485691
0.00533527
0.00477184
0.00459119
0.00552837
0.00511271
0.0048341
0.00496669
0.00515275
0.00674466
0.0063553
0.00545505
0.00546768
0.00532605
0.00465324
0.00482247
0.00505452
0.00585757
0.00507379
0.00458635
0.00542853
0.00600654
0.00514982
0.005063
0.00468265
0.00489549
0.00480559
0.00528956
0.00464624
0.00490855
0.00507752
0.0047479
0.00478423
0.0056435
0.00530441
0.00546591
0.00510325
0.00530928
0.00497507
0.00486062
0.00542201
0.00462944
0.00477432
0.00548298
0.00473502
0.00491164
0.00454605
0.00454263
0.0403198
0.00477614
0.0048559
0.00535315
0.0360502
0.00461904
0.00498644
0.00479567
0.00548046
0.00531516
0.00522574
0.00477401
0.00493484
0.00465468
0.00464591
0.00468982
0.00496922
0.00459551
0.00500316
0.00457418
0.0050625
0.00508459
0.00454999
0.00556418
0.00492312
0.00492366
0.0749196
0.00561351
0.00523311
0.0046545
0.00518513
0.0046781
0.00459016
0.004633
0.00560982
0.00516097
0.0045329
0.00455769
0.00474781
0.00461439
0.0051666
0.0046042
0.00499154
0.00508245
0.005438
0.00493384
0.00485222
0.0624948
0.00495658
0.00496362
0.00495487
0.00481008
0.00460569
0.00478225
0.00518506
0.00496501
0.00485094
0.00585911
0.0397327
0.00455763
0.00548111
0.00459561
0.00479986
0.00474986
0.0045649
0.00454584
0.00546157
0.00489455
0.005098
0.00490139
0.00502522
0.00513581
0.00514354
0.006071
0.00473538
0.00465371
0.00492925
0.00560026
0.00538825
0.0047472
0.00496731
0.00489371
0.00555833
0.00463529
0.00467307
0.0102393
0.00512349
0.0046835
0.00471723
0.00486811
0.0048434
0.00540717
0.00485119
0.00498576
0.00487474
0.00454923
0.0474424
0.00516659
0.00472758
0.00555555
0.00454448
0.00612335
0.005024
0.00536973
0.00504841
0.00490771
0.00488958
0.00502234
0.00484722
0.00548858
0.00510512
0.00568929
0.00546378
0.00517064
0.00512333
0.00475382
0.0471265
0.00519299
0.00500053
0.00533368
0.00536577
0.00503061
0.00559352
0.00538396
0.00460551
0.00509103
0.00480589
0.00498224
0.00461737
0.00499466
0.00478337
0.00635766
0.00549466
0.00557266
0.00529445
0.00462025
0.00527773
0.00470756
0.00483988
0.00462097
0.00504077
0.00488563
0.00485562
0.00503449
0.00518278
0.0046314
0.00490507
0.0458847
0.00459291
0.00658804
0.0049575
0.00569867
0.00455438
0.00588911
0.00497095
0.00479696
0.0048642
0.00545238
0.00506898
0.00459313
0.0048004
0.00541704
0.00498441
0.00509235
0.00512468
0.00474881
0.00465585
0.00539627
0.00997291
0.00531805
0.00565957
0.00551464
0.00564825
0.00477987
0.00465903
0.00483124
0.00474771
0.00488531
0.0473077
0.00465679
0.00505491
0.00463621
0.00456276
0.00483683
0.00602125
0.00508536
0.00536744
0.00506395
0.0046324
0.00471294
0.00497463
0.00476584
0.00455638
0.00534463
0.00540112
0.0047528
0.00495931
0.0045642
0.00479768
0.00572637
0.00518018
0.00488425
0.0049052
0.00474228
0.00490731
0.00495164
0.00524667
0.00479588
0.00486698
0.00529865
0.00482525
0.0149894
0.00457314
0.00488976
0.00455998
0.00528603
0.0107565
0.00561058
0.00528412
0.00483582
0.00511193
0.00509535
0.00506648
0.00517695
0.00458605
0.00492683
0.00492801
0.00500943
0.00505777
0.00461177
0.00479001
0.00485101
0.00530871
0.00478434
0.00508517
0.00498497
0.00458199
0.00472809
0.0058559
0.00455077
0.0644417
0.00485053
0.00554748
0.00567742
0.00539692
0.00517044
0.00502933
0.00489293
0.00522148
0.00481292
0.00457099
0.00484139
0.00488189
0.00497608
0.00478042
0.00524567
0.00486184
0.00552286
0.00501589
0.0601034
0.00462203
0.00483968
0.0046803
0.00495052
0.00564922
0.00534727
0.00514046
0.00487451
0.00494193
0.00543688
0.00591269
0.00513745
0.00507147
0.00490478
0.00540226
0.00468994
0.00456161
0.00509015
0.00510819
0.00507641
0.00483524
0.00457798
0.00488318
0.00514514
0.00455794
0.00457995
0.0046242
0.0045805
0.00554692
0.00473643
0.0073122
0.00511612
0.00469951
0.00537478
0.00522581
0.00454568
0.00470632
0.00495741
0.00459529
0.00513573
0.0048177
0.0318833
0.00526277
0.0055408
0.00473697
0.00490282
0.00526604
0.00462679
0.0838364
0.00490684
0.00456879
0.00519196
0.00508448
0.00473421
0.00463813
0.0045571
0.00462262
0.00530236
0.00476552
0.00456896
0.00512847
0.0048622
0.00497443
0.00481164
0.00463986
0.00578877
0.00473742
0.00498929
0.004919
0.0046009
0.00503609
0.00551003
0.00555015
0.00459052
0.00485293
0.00461624
0.0661347
0.0231555
0.00492037
0.00455253
0.00499148
0.00466894
0.00533087
0.00585525
0.0045594
0.00514098
0.00527368
0.00503166
0.00501068
0.00491838
0.0052194
0.00491547
0.0050545
0.00468787
0.00544417
0.00537512
0.00517201
0.0045718
0.00455967
0.00521811
0.0177878
0.00584884
0.00540476
0.0056855
0.0113953
0.00525756
0.00453707
0.00466133
0.0199351
0.00517039
0.00523319
0.00487417
0.00479321
0.00464895
0.0045465
0.0050907
0.00474585
0.00468227
0.00459706
0.00491431
0.0049462
0.00545245
0.004952
0.00458036
0.00480639
0.00646738
0.00536621
0.00549891
0.00539966
0.00460756
0.00492453
0.0857528
0.00541856
0.00520369
0.00492475
0.00495122
0.00486156
0.00664969
0.00466267
0.00456521
0.00469198
0.00474375
0.00477397
0.00539538
0.00509118
0.00528201
0.00478248
0.00548819
0.0047943
0.0046007
0.00493539
0.00468866
0.00534978
0.00454054
0.0047066
0.00535232
0.00508998
0.00550714
0.00488433
0.00515988
0.0048103
0.00499455
0.00569375
0.00460329
0.00466503
0.0649286
0.00468532
0.00532227
0.0050047
0.00475761
0.00499324
0.0062427
0.00453853
0.00516103
0.00509361
0.00520697
0.00585123
0.00454425
0.00539336
0.0049819
0.0049806
0.00460468
0.00470842
0.00464476
0.00544071
0.00489841
0.0046506
0.00501909
0.00471198
0.00522648
0.00528833
0.00528834
0.00660568
0.00534743
0.00510052
0.0127852
0.00518807
0.0054303
0.00461014
0.00512668
0.0048549
0.00459701
0.00461905
0.00505736
0.00488468
0.00485665
0.0049578
0.00479087
0.00501721
0.00597982
0.00502974
0.00510201
0.00511027
0.00518277
0.00455522
0.0193137
0.00505133
0.0448554
0.00455483
0.00475532
0.00473968
0.00479325
0.00487737
0.00461128
0.0046757
0.00513009
0.00486337
0.00456428
0.00479456
0.00487697
0.00502953
0.0049326
0.00474805
0.00470762
0.0054899
0.0054289
0.00511323
0.00690901
0.00490641
0.00519048
0.00473932
0.00459915
0.00495647
0.00504507
0.00482967
0.00537826
0.00486796
0.00592543
0.00459482
0.00495888
0.00455004
0.00511318
0.00467858
0.00550327
0.00502674
0.00460717
0.00475527
0.00478109
0.00484304
0.00458285
0.0162217
0.00530651
0.00499618
0.00495767
0.00455777
0.00478089
0.00505411
0.0209735
0.00533284
0.00477066
0.00506254
0.00504155
0.00455415
0.00484495
0.00454318
0.00539632
0.00494069
0.00532518
0.00480965
0.00689601
0.095744
0.00624967
0.00506973
0.00520311
0.0047249
0.0046283
0.0048896
0.00500163
0.00507333
0.00577441
0.00471211
0.00499328
0.00508027
0.00474704
0.0045533
0.00469129
0.00469498
0.0391684
0.00517839
0.0057062
0.00706208
0.00527356
0.00507427
0.00524237
0.00488359
0.00542197
0.00523771
0.00558514
0.010714
0.00486848
0.00463939
0.0644159
0.00500466
0.00460994
0.00479455
0.00551647
0.00461287
0.00481111
0.00469108
0.00474734
0.00511457
0.00738057
0.00541576
0.00526374
0.00506581
0.00457583
0.00496703
0.00462059
0.00488302
0.00479254
0.00490204
0.00549057
0.00534347
0.00989499
0.00522904
0.00587245
0.00547447
0.00528669
0.00459045
0.00553998
0.00496274
0.004535
0.00475043
0.00545328
0.00458624
0.00469713
0.00455098
0.00551217
0.00494287
0.00553891
0.0441692
0.00475007
0.00469628
0.00539534
0.00465682
0.0048132
0.00482052
0.0591178
0.00475379
0.00491198
0.00485787
0.00490992
0.00477522
0.00599941
0.00492618
0.0049764
0.00474684
0.00535284
0.00498042
0.00553713
0.00498989
0.00463291
0.00517997
0.00495927
0.00484121
0.00504177
0.00468924
0.00453461
0.00513223
0.00475267
0.00482448
0.00520011
0.00814362
0.00489425
0.00584249
0.0063209
0.00457452
0.00501031
0.00538526
0.00516736
0.0164745
0.00554445
0.037435
0.00500705
0.00456948
0.0045526
0.00477364
0.00496004
0.00509173
0.0278812
0.0047898
0.00456636
0.0052756
0.00479404
0.00516166
0.00566595
0.00488613
0.00597863
0.00533279
0.00476296
0.0047506
0.00502976
0.00491592
0.00521206
0.00491228
0.00477525
0.0060589
0.00477212
0.00496599
0.00486463
0.00476733
0.00497258
0.00531422
0.00531117
0.0048336
0.00471653
0.00487485
0.0046754
0.00763746
0.00593498
0.019252
0.00469808
0.00462125
0.00494862
0.00486807
0.00494903
0.00481964
0.00454328
0.00499759
0.00485438
0.00505136
0.0046387
0.00543271
0.00495938
0.00461426
0.00456195
0.00468819
0.00473145
0.00481061
0.00555772
0.00541334
0.00456022
0.0049849
0.00621265
0.00480829
0.00505225
0.00532275
0.00485874
0.00486037
0.00454475
0.00456679
0.00456616
0.00492481
0.00455704
0.00514103
0.00514614
0.00529091
0.00487099
0.00485465
0.00469075
0.00507192
0.00468545
0.00542798
0.00467559
0.00569055
0.00470583
0.00471872
0.00491291
0.00487333
0.00489171
0.00505635
0.00455478
0.00499826
0.00554667
0.00538528
0.00512034
0.00468828
0.00478093
0.00506264
0.00479199
0.00487364
0.00526345
0.00603622
0.00491828
0.00578556
0.00473837
0.00490218
0.00497699
0.00482927
0.00454107
0.00951736
0.00468543
0.00510304
0.00499565