/*--------------------------------*- C++ -*----------------------------------*\
| =========                 |                                                 |
| \\      /  F ield         | OpenFOAM: The Open Source CFD Toolbox           |
|  \\    /   O peration     | Version:  3.0.1                                 |
|   \\  /    A nd           | Web:      www.OpenFOAM.org                      |
|    \\/     M anipulation  |                                                 |
\*---------------------------------------------------------------------------*/
FoamFile
{
    version     2.0;
    format      ascii;
    class       surfaceScalarField;
    location    "0.0426383";
    object      phi;
}
// * * * * * * * * * * * * * * * * * * * * * * * * * * * * * * * * * * * * * //

dimensions      [0 3 -1 0 0 0 0];

internalField   nonuniform List<scalar> 
32369
(
-4.24228e-06
-5.64642e-06
9.8887e-06
-6.88477e-06
-6.54137e-06
9.18386e-06
-9.14405e-06
-7.88799e-06
1.01473e-05
-1.16157e-05
-9.43181e-06
1.19034e-05
-1.4332e-05
-1.10314e-05
1.37478e-05
-1.72898e-05
-1.25995e-05
1.55573e-05
-2.0608e-05
-1.40878e-05
1.7406e-05
-2.4485e-05
-1.54201e-05
1.92971e-05
-2.90799e-05
-1.64455e-05
2.10404e-05
-3.46005e-05
-1.6911e-05
2.24316e-05
-1.63641e-05
2.30974e-05
-4.13339e-05
-4.12062e-06
-1.5258e-06
-7.48324e-06
-3.17875e-06
-1.05477e-05
-4.82354e-06
-1.34772e-05
-6.50233e-06
-1.64101e-05
-8.09853e-06
-1.94955e-05
-9.51408e-06
-2.29173e-05
-1.0666e-05
-2.68912e-05
-1.14462e-05
-3.16519e-05
-1.16848e-05
-3.74709e-05
-1.1092e-05
-9.22596e-06
-4.4609e-05
-2.26623e-06
7.40432e-07
-4.89566e-06
-5.49317e-07
-7.82484e-06
-1.89436e-06
-1.09665e-05
-3.36071e-06
-1.43105e-05
-4.7545e-06
-1.78899e-05
-5.93469e-06
-2.18245e-05
-6.73137e-06
-2.62962e-05
-6.97444e-06
-3.15324e-05
-6.4486e-06
-3.77907e-05
-4.83365e-06
-1.67477e-06
-4.53419e-05
-1.21082e-06
1.95125e-06
-3.06796e-06
1.30783e-06
-5.55827e-06
5.95945e-07
-8.53652e-06
-3.82456e-07
-1.19017e-05
-1.38929e-06
-1.56638e-05
-2.1726e-06
-1.9891e-05
-2.50415e-06
-2.46961e-05
-2.16934e-06
-3.02286e-05
-9.16195e-07
-3.66978e-05
1.63558e-06
6.03813e-06
-4.44107e-05
-7.49046e-07
2.7003e-06
-1.99495e-06
2.55373e-06
-3.88294e-06
2.48393e-06
-6.41436e-06
2.14897e-06
-9.54739e-06
1.74373e-06
-1.32338e-05
1.51382e-06
-1.74811e-05
1.74319e-06
-2.23539e-05
2.70341e-06
-2.80244e-05
4.75428e-06
-3.46684e-05
8.27962e-06
1.38792e-05
-4.25095e-05
-6.90614e-07
3.39091e-06
-1.72882e-06
3.59194e-06
-3.2043e-06
3.95941e-06
-5.22586e-06
4.17053e-06
-7.90754e-06
4.42541e-06
-1.12815e-05
4.88774e-06
-1.53314e-05
5.79309e-06
-2.01176e-05
7.4896e-06
-2.57091e-05
1.03458e-05
-3.22465e-05
1.4817e-05
2.15998e-05
-3.99671e-05
-6.29091e-07
4.02e-06
-1.62358e-06
4.58643e-06
-2.90509e-06
5.24092e-06
-4.65619e-06
5.92164e-06
-6.9804e-06
6.74962e-06
-9.96371e-06
7.87105e-06
-1.36824e-05
9.5118e-06
-1.81775e-05
1.19847e-05
-2.35196e-05
1.56879e-05
-2.98116e-05
2.1109e-05
2.8928e-05
-3.71397e-05
-6.46747e-07
4.66675e-06
-1.53607e-06
5.47575e-06
-2.72842e-06
6.43327e-06
-4.30898e-06
7.5022e-06
-6.38705e-06
8.82769e-06
-9.06823e-06
1.05522e-05
-1.24471e-05
1.28907e-05
-1.66031e-05
1.61407e-05
-2.16216e-05
2.07065e-05
-2.76009e-05
2.70883e-05
3.60436e-05
-3.47166e-05
-6.187e-07
5.28545e-06
-1.4753e-06
6.33235e-06
-2.58531e-06
7.54328e-06
-4.04108e-06
8.95796e-06
-5.93667e-06
1.07233e-05
-8.37747e-06
1.2993e-05
-1.14665e-05
1.59797e-05
-1.53037e-05
1.99778e-05
-1.9985e-05
2.53878e-05
-2.56496e-05
3.27529e-05
4.2854e-05
-3.24599e-05
-5.39794e-07
5.82524e-06
-1.32447e-06
7.11702e-06
-2.35293e-06
8.57174e-06
-3.69994e-06
1.0305e-05
-5.44868e-06
1.2472e-05
-7.69706e-06
1.52414e-05
-1.05508e-05
1.88334e-05
-1.41147e-05
2.35417e-05
-1.85109e-05
2.97841e-05
-2.387e-05
3.8112e-05
4.92869e-05
-3.0303e-05
-4.68875e-07
6.29412e-06
-1.18361e-06
7.83176e-06
-2.12983e-06
9.51796e-06
-3.37172e-06
1.15469e-05
-4.98788e-06
1.40882e-05
-7.06881e-06
1.73223e-05
-9.71366e-06
2.14783e-05
-1.3033e-05
2.68611e-05
-1.71489e-05
3.38999e-05
-2.22058e-05
4.3169e-05
5.54037e-05
-2.83226e-05
-4.66505e-07
6.76062e-06
-1.14188e-06
8.50713e-06
-2.01986e-06
1.03959e-05
-3.16672e-06
1.26937e-05
-4.65418e-06
1.55756e-05
-6.57106e-06
1.92392e-05
-9.01452e-06
2.39218e-05
-1.20914e-05
2.99379e-05
-1.59275e-05
3.7736e-05
-2.06608e-05
4.79023e-05
6.1194e-05
-2.64511e-05
-4.33542e-07
7.19416e-06
-1.04907e-06
9.12266e-06
-1.85133e-06
1.11982e-05
-2.89864e-06
1.3741e-05
-4.26167e-06
1.69387e-05
-6.02226e-06
2.09998e-05
-8.27702e-06
2.61765e-05
-1.11341e-05
3.2795e-05
-1.47023e-05
4.13042e-05
-1.91333e-05
5.23332e-05
6.66743e-05
-2.46135e-05
-3.21117e-07
7.51528e-06
-8.34994e-07
9.63653e-06
-1.53565e-06
1.18989e-05
-2.47052e-06
1.46759e-05
-3.703e-06
1.81711e-05
-5.30771e-06
2.26045e-05
-7.3715e-06
2.82403e-05
-9.99798e-06
3.54215e-05
-1.32957e-05
4.4602e-05
-1.7384e-05
5.64215e-05
7.17188e-05
-2.24285e-05
-2.94763e-07
7.81004e-06
-7.35354e-07
1.00771e-05
-1.33307e-06
1.24966e-05
-2.14319e-06
1.5486e-05
-3.22029e-06
1.92482e-05
-4.63749e-06
2.40217e-05
-6.48221e-06
3.0085e-05
-8.83841e-06
3.77777e-05
-1.18015e-05
4.75651e-05
-1.5496e-05
6.01159e-05
7.62244e-05
-2.00016e-05
-2.36547e-07
8.04659e-06
-5.79918e-07
1.04205e-05
-1.05669e-06
1.29733e-05
-1.71251e-06
1.61418e-05
-2.61179e-06
2.01475e-05
-3.81867e-06
2.52286e-05
-5.4079e-06
3.16743e-05
-7.4568e-06
3.98266e-05
-1.0043e-05
5.01513e-05
-1.32199e-05
6.32928e-05
8.01074e-05
-1.7103e-05
-9.80224e-08
8.14461e-06
-2.82912e-07
1.06054e-05
-5.92187e-07
1.32826e-05
-1.06397e-06
1.66136e-05
-1.74607e-06
2.08296e-05
-2.70697e-06
2.61895e-05
-4.006e-06
3.29733e-05
-5.69529e-06
4.15159e-05
-7.80816e-06
5.22642e-05
-1.03848e-05
6.58694e-05
8.32301e-05
-1.35074e-05
9.87791e-09
8.13474e-06
-1.15293e-08
1.06268e-05
-1.24935e-07
1.3396e-05
-3.66777e-07
1.68555e-05
-7.86708e-07
2.12496e-05
-1.43986e-06
2.68427e-05
-2.36878e-06
3.39022e-05
-3.59611e-06
4.27432e-05
-5.11999e-06
5.3788e-05
-6.93567e-06
6.76851e-05
8.53117e-05
-9.01727e-06
1.42651e-07
7.99209e-06
3.28952e-07
1.04405e-05
4.57546e-07
1.32674e-05
4.94606e-07
1.68184e-05
3.97487e-07
2.13467e-05
1.2467e-07
2.71155e-05
-3.40346e-07
3.43672e-05
-9.74025e-07
4.33769e-05
-1.7161e-06
5.45301e-05
-2.4963e-06
6.84653e-05
8.61226e-05
-3.30721e-06
3.15391e-07
7.67669e-06
7.59061e-07
9.99682e-06
1.17058e-06
1.28559e-05
1.53548e-06
1.64535e-05
1.8239e-06
2.10583e-05
2.02262e-06
2.69168e-05
2.15867e-06
3.42312e-05
2.31287e-06
4.32227e-05
2.59235e-06
5.42506e-05
3.12929e-06
6.79284e-05
8.52054e-05
4.04654e-06
5.32953e-07
7.14374e-06
1.25686e-06
9.27292e-06
1.97734e-06
1.21354e-05
2.7188e-06
1.5712e-05
3.46537e-06
2.03117e-05
4.25322e-06
2.61289e-05
5.17286e-06
3.33115e-05
6.35298e-06
4.20426e-05
7.95361e-06
5.265e-05
1.01645e-05
6.57175e-05
8.21848e-05
1.3185e-05
7.48685e-07
6.39506e-06
1.67233e-06
8.34928e-06
2.73311e-06
1.10747e-05
3.88445e-06
1.45607e-05
5.17975e-06
1.90164e-05
6.72491e-06
2.45837e-05
8.65981e-06
3.13766e-05
1.11467e-05
3.95557e-05
1.43925e-05
4.94042e-05
1.86429e-05
6.14671e-05
7.662e-05
2.42077e-05
5.2977e-07
5.86529e-06
1.96457e-06
6.91448e-06
3.23673e-06
9.80249e-06
4.78578e-06
1.30117e-05
6.73974e-06
1.70624e-05
9.23879e-06
2.20847e-05
1.2425e-05
2.81904e-05
1.64878e-05
3.54929e-05
2.16457e-05
4.42463e-05
2.81903e-05
5.49225e-05
6.83186e-05
3.64917e-05
-1.58705e-06
7.45234e-06
-4.32823e-07
5.76025e-06
1.51945e-06
7.85021e-06
4.03004e-06
1.05011e-05
7.16647e-06
1.3926e-05
1.10532e-05
1.81979e-05
1.58478e-05
2.33958e-05
2.17488e-05
2.9592e-05
2.90202e-05
3.69748e-05
3.80287e-05
4.5914e-05
5.70905e-05
4.92569e-05
4.40617e-06
5.48253e-06
6.51365e-06
7.07638e-06
6.47273e-06
1.01882e-05
5.02302e-06
1.33531e-05
2.38129e-06
1.63895e-05
-1.40272e-06
1.93413e-05
-6.13288e-06
2.21361e-05
-1.16052e-05
2.47695e-05
-1.78001e-05
2.72352e-05
-2.49478e-05
2.95794e-05
3.12295e-05
-3.30799e-05
5.60262e-06
-1.20093e-07
8.82806e-06
3.85095e-06
1.09789e-05
8.0373e-06
1.20117e-05
1.23204e-05
1.15755e-05
1.68257e-05
9.42113e-06
2.14957e-05
5.49877e-06
2.60585e-05
-5.49987e-08
3.03233e-05
-6.9027e-06
3.40829e-05
-1.47844e-05
3.74611e-05
4.04675e-05
-2.40224e-05
2.51186e-06
-2.63196e-06
6.707e-06
-3.44196e-07
1.0378e-05
4.36633e-06
1.31981e-05
9.50028e-06
1.47959e-05
1.52279e-05
1.48285e-05
2.1463e-05
1.29613e-05
2.79257e-05
9.04085e-06
3.42437e-05
3.10537e-06
4.00184e-05
-4.46223e-06
4.50287e-05
4.93089e-05
-1.33036e-05
6.44997e-07
-3.27695e-06
3.53155e-06
-3.23075e-06
8.17355e-06
-2.75664e-07
1.24788e-05
5.19499e-06
1.58831e-05
1.18237e-05
1.80193e-05
1.93268e-05
1.84167e-05
2.75283e-05
1.66762e-05
3.59842e-05
1.25751e-05
4.41195e-05
6.22991e-06
5.13738e-05
5.75094e-05
-1.97062e-06
9.20568e-07
-4.19752e-06
2.1514e-06
-4.46159e-06
5.56742e-06
-3.69169e-06
1.06677e-05
9.46942e-08
1.56601e-05
6.83128e-06
1.97113e-05
1.52756e-05
2.23019e-05
2.49377e-05
2.28887e-05
3.53974e-05
2.10337e-05
4.59745e-05
1.65639e-05
5.58436e-05
6.43375e-05
9.73587e-06
1.2562e-06
-5.45372e-06
2.65654e-06
-5.86192e-06
4.6969e-06
-5.73205e-06
8.80774e-06
-4.01614e-06
1.45136e-05
1.12545e-06
2.015e-05
9.63914e-06
2.47507e-05
2.03371e-05
2.76117e-05
3.25364e-05
2.81337e-05
4.54524e-05
2.59287e-05
5.80486e-05
6.9318e-05
2.09483e-05
1.3239e-06
-6.77762e-06
2.94164e-06
-7.47966e-06
5.02712e-06
-7.81753e-06
8.0225e-06
-7.01153e-06
1.31109e-05
-3.96291e-06
1.95479e-05
3.20213e-06
2.57528e-05
1.41321e-05
3.06901e-05
2.75991e-05
3.3539e-05
4.26035e-05
3.37152e-05
5.78724e-05
7.19181e-05
3.11151e-05
1.26824e-06
-8.04586e-06
2.9116e-06
-9.12302e-06
5.04381e-06
-9.94974e-06
7.85677e-06
-9.82449e-06
1.20029e-05
-8.10903e-06
1.82741e-05
-3.06904e-06
2.53921e-05
7.01405e-06
3.19805e-05
2.10107e-05
3.69333e-05
3.76507e-05
3.94779e-05
5.53278e-05
7.2339e-05
3.90569e-05
1.12986e-06
-9.17572e-06
2.64665e-06
-1.06398e-05
4.62404e-06
-1.19271e-05
7.25145e-06
-1.24519e-05
1.08902e-05
-1.17478e-05
1.63962e-05
-8.57509e-06
2.38727e-05
-4.62399e-07
3.14702e-05
1.34132e-05
3.80989e-05
3.10221e-05
4.29148e-05
5.05119e-05
6.9617e-05
4.56369e-05
9.47395e-07
-1.01231e-05
2.21093e-06
-1.19033e-05
3.85424e-06
-1.35704e-05
6.09407e-06
-1.46917e-05
9.24099e-06
-1.48947e-05
1.37957e-05
-1.31299e-05
2.07244e-05
-7.39103e-06
2.89032e-05
5.23439e-06
3.66779e-05
2.32474e-05
4.3134e-05
4.40558e-05
6.49691e-05
4.77819e-05
5.74118e-07
-1.06972e-05
1.53307e-06
-1.28623e-05
2.71945e-06
-1.47568e-05
4.37575e-06
-1.6348e-05
6.80767e-06
-1.73266e-05
1.04949e-05
-1.68171e-05
1.62821e-05
-1.31783e-05
2.43836e-05
-2.86705e-06
3.25841e-05
1.50468e-05
4.03431e-05
3.62968e-05
5.80506e-05
4.72616e-05
3.27202e-07
-1.10244e-05
8.09182e-07
-1.33443e-05
1.38548e-06
-1.53331e-05
2.33008e-06
-1.72926e-05
3.78724e-06
-1.87838e-05
6.1749e-06
-1.92048e-05
1.02689e-05
-1.72722e-05
1.71898e-05
-9.78796e-06
2.55454e-05
6.69119e-06
3.41246e-05
2.77176e-05
4.8712e-05
4.34633e-05
-9.49022e-09
-1.10149e-05
-4.67553e-08
-1.3307e-05
-5.001e-08
-1.53299e-05
1.35939e-08
-1.73562e-05
3.18395e-07
-1.90886e-05
1.15029e-06
-2.00367e-05
3.14494e-06
-1.92669e-05
8.25891e-06
-1.49019e-05
1.62203e-05
-1.27017e-06
2.44491e-05
1.94888e-05
3.94171e-05
3.37439e-05
-4.63368e-07
-1.05516e-05
-1.07279e-06
-1.26976e-05
-1.80337e-06
-1.45993e-05
-2.64512e-06
-1.65145e-05
-3.51578e-06
-1.82179e-05
-4.22424e-06
-1.93282e-05
-4.28328e-06
-1.92078e-05
-2.56625e-06
-1.6619e-05
3.75962e-06
-7.59604e-06
1.31147e-05
1.01337e-05
3.03524e-05
2.21794e-05
-8.90216e-07
-9.66136e-06
-2.10627e-06
-1.14815e-05
-3.62474e-06
-1.30808e-05
-5.45885e-06
-1.46804e-05
-7.56365e-06
-1.61131e-05
-9.78037e-06
-1.71115e-05
-1.17324e-05
-1.72558e-05
-1.2672e-05
-1.56794e-05
-9.62413e-06
-1.06439e-05
-6.96901e-07
1.20648e-06
1.94597e-05
1.01958e-05
-1.36037e-06
-8.30099e-06
-3.21745e-06
-9.62447e-06
-5.56624e-06
-1.0732e-05
-8.43465e-06
-1.1812e-05
-1.17865e-05
-1.27612e-05
-1.54483e-05
-1.34497e-05
-1.89998e-05
-1.37044e-05
-2.15323e-05
-1.31468e-05
-2.13027e-05
-1.08735e-05
-1.50824e-05
-5.01374e-06
6.69576e-06
-2.31849e-06
-1.87918e-06
-6.4218e-06
-4.39998e-06
-7.10367e-06
-7.58014e-06
-7.55186e-06
-1.14505e-05
-7.94165e-06
-1.5951e-05
-8.26062e-06
-2.08912e-05
-8.50952e-06
-2.584e-05
-8.75564e-06
-2.9942e-05
-9.04478e-06
-3.16617e-05
-9.1538e-06
-2.84028e-05
-8.27266e-06
-4.2653e-06
-1.74418e-05
-2.46357e-06
-3.95823e-06
-5.62269e-06
-3.94455e-06
-9.52688e-06
-3.64767e-06
-1.41736e-05
-3.29497e-06
-1.94403e-05
-2.99386e-06
-2.51036e-05
-2.84626e-06
-3.07167e-05
-3.14253e-06
-3.54165e-05
-4.345e-06
-3.79077e-05
-6.66256e-06
-3.67802e-05
-9.40016e-06
-1.21573e-05
-2.88882e-05
-3.18575e-06
-7.72482e-07
-6.75508e-06
-3.75221e-07
-1.08277e-05
4.25001e-07
-1.53712e-05
1.24843e-06
-2.02762e-05
1.9112e-06
-2.53105e-05
2.18801e-06
-2.99425e-05
1.4895e-06
-3.29088e-05
-1.37868e-06
-3.31505e-05
-6.42089e-06
-3.06766e-05
-1.18741e-05
-1.78373e-05
-2.49966e-05
-2.36163e-06
1.58915e-06
-4.80765e-06
2.0708e-06
-7.54726e-06
3.16461e-06
-1.0541e-05
4.24214e-06
-1.36489e-05
5.01911e-06
-1.65231e-05
5.06228e-06
-1.84169e-05
3.38325e-06
-1.69414e-05
-2.85416e-06
-1.25182e-05
-1.08441e-05
-6.35427e-06
-1.8038e-05
-2.40406e-05
-1.50981e-07
-1.22629e-06
2.81544e-06
-2.50309e-06
3.3476e-06
-3.79768e-06
4.45919e-06
-4.87268e-06
5.31715e-06
-5.25771e-06
5.40413e-06
-3.68534e-06
3.48991e-06
1.57636e-06
-1.87846e-06
9.88916e-06
-1.1167e-05
1.73909e-05
-1.83459e-05
2.52726e-05
-2.59198e-05
-3.25234e-05
3.37554e-05
-9.90888e-07
3.80632e-06
-8.57657e-07
3.21437e-06
1.0472e-07
3.49682e-06
2.57285e-06
2.84902e-06
7.66081e-06
3.16171e-07
1.59797e-05
-4.829e-06
2.54938e-05
-1.13925e-05
3.3028e-05
-1.87011e-05
4.09439e-05
-2.62618e-05
4.95548e-05
-3.45306e-05
-4.39293e-05
6.09607e-05
1.47474e-06
2.33159e-06
4.40374e-06
2.85369e-07
9.46896e-06
-1.5684e-06
1.66178e-05
-4.2998e-06
2.50732e-05
-8.13924e-06
3.30942e-05
-1.285e-05
4.02271e-05
-1.85255e-05
4.66312e-05
-2.51052e-05
5.29397e-05
-3.25702e-05
5.96689e-05
-4.12599e-05
-5.17798e-05
6.75194e-05
9.78392e-06
1.58295e-05
2.21114e-05
2.83126e-05
3.40994e-05
3.94473e-05
4.43177e-05
4.88044e-05
5.3209e-05
5.78631e-05
6.31738e-05
-1.38158e-05
1.4248e-05
-4.32186e-07
-2.37687e-05
1.14492e-05
-1.49628e-06
-3.28167e-05
1.14737e-05
-2.42564e-06
-4.10805e-05
1.17177e-05
-3.4539e-06
-4.93455e-05
1.28878e-05
-4.62279e-06
-5.7991e-05
1.46884e-05
-6.04289e-06
-6.7484e-05
1.73992e-05
-7.90621e-06
-7.82287e-05
2.11154e-05
-1.03707e-05
-9.06382e-05
2.6062e-05
-1.36526e-05
-0.00010517
3.25919e-05
-1.80599e-05
4.1219e-05
-2.3995e-05
-0.000122394
-3.09031e-06
1.73383e-05
-7.32706e-06
1.56859e-05
-1.4855e-05
1.90017e-05
-2.31008e-05
1.99635e-05
-3.1972e-05
2.17589e-05
-4.15203e-05
2.42367e-05
-5.20312e-05
2.79101e-05
-6.38795e-05
3.29637e-05
-7.75351e-05
3.97176e-05
-9.35161e-05
4.85729e-05
6.01037e-05
-0.000112401
-4.93604e-07
1.78319e-05
-2.72195e-06
1.79143e-05
-7.44723e-06
2.3727e-05
-1.33636e-05
2.58799e-05
-2.11703e-05
2.95656e-05
-3.01342e-05
3.32006e-05
-4.03786e-05
3.81545e-05
-5.20225e-05
4.46075e-05
-6.54385e-05
5.31336e-05
-8.11209e-05
6.42553e-05
7.87098e-05
-9.9727e-05
-2.97677e-07
1.81296e-05
-2.31134e-06
1.99279e-05
-5.24016e-06
2.66558e-05
-9.27996e-06
2.99197e-05
-1.53044e-05
3.559e-05
-2.26297e-05
4.0526e-05
-3.15746e-05
4.70993e-05
-4.20163e-05
5.50493e-05
-5.41891e-05
6.53064e-05
-6.84193e-05
7.84854e-05
9.54147e-05
-8.51242e-05
-3.35713e-07
1.84653e-05
-2.34205e-06
2.19343e-05
-4.49268e-06
2.88064e-05
-7.46213e-06
3.28892e-05
-1.18834e-05
4.00113e-05
-1.75808e-05
4.62234e-05
-2.48649e-05
5.43834e-05
-3.36611e-05
6.38454e-05
-4.41445e-05
7.57899e-05
-5.65332e-05
9.08741e-05
0.000110105
-7.12239e-05
-1.49307e-07
1.86146e-05
-1.95192e-06
2.37369e-05
-3.51544e-06
3.03699e-05
-6.12992e-06
3.55036e-05
-9.36542e-06
4.32468e-05
-1.37464e-05
5.06044e-05
-1.94806e-05
6.01176e-05
-2.66175e-05
7.09823e-05
-3.5344e-05
8.45164e-05
-4.58068e-05
0.000101337
0.000122582
-5.82833e-05
1.47529e-08
1.85998e-05
-1.41075e-06
2.51624e-05
-2.56731e-06
3.15265e-05
-4.71084e-06
3.76472e-05
-7.21417e-06
4.57501e-05
-1.06695e-05
5.40597e-05
-1.51343e-05
6.45824e-05
-2.08037e-05
7.66517e-05
-2.78813e-05
9.15939e-05
-3.65181e-05
0.000109974
0.000132997
-4.69327e-05
-1.08924e-07
1.87088e-05
-1.12816e-06
2.61816e-05
-2.08583e-06
3.24842e-05
-3.72595e-06
3.92873e-05
-5.61629e-06
4.76405e-05
-8.29075e-06
5.67342e-05
-1.16977e-05
6.79894e-05
-1.60898e-05
8.10438e-05
-2.165e-05
9.71541e-05
-2.85143e-05
0.000116838
0.0001414
-3.69181e-05
-8.53709e-08
1.87941e-05
-8.39439e-07
2.69357e-05
-1.54017e-06
3.31849e-05
-2.79279e-06
4.05399e-05
-4.16962e-06
4.90173e-05
-6.1536e-06
5.87182e-05
-8.67641e-06
7.05122e-05
-1.19725e-05
8.43399e-05
-1.61984e-05
0.00010138
-2.14923e-05
0.000122132
0.00014796
-2.80514e-05
2.06622e-07
1.85875e-05
-1.56735e-07
2.7299e-05
-5.55999e-07
3.35841e-05
-1.44055e-06
4.14245e-05
-2.37102e-06
4.99478e-05
-3.78563e-06
6.01328e-05
-5.57266e-06
7.22992e-05
-7.95143e-06
8.67187e-05
-1.1066e-05
0.000104495
-1.50176e-05
0.000126083
0.000153017
-2.00748e-05
4.34878e-07
1.81526e-05
4.09994e-07
2.73239e-05
3.07887e-07
3.36863e-05
-1.71199e-07
4.19036e-05
-6.6264e-07
5.04392e-05
-1.53122e-06
6.10014e-05
-2.62799e-06
7.3396e-05
-4.14935e-06
8.82401e-05
-6.22503e-06
0.00010657
-8.89918e-06
0.000128758
0.000156532
-1.24141e-05
4.18738e-07
1.77339e-05
6.05363e-07
2.71373e-05
7.63967e-07
3.35276e-05
6.71301e-07
4.19962e-05
6.26962e-07
5.04836e-05
3.38748e-07
6.12896e-05
-3.8848e-08
7.37736e-05
-6.92363e-07
8.88936e-05
-1.6694e-06
0.000107547
-3.04865e-06
0.000130137
0.000158457
-4.97403e-06
5.22823e-07
1.72111e-05
9.95924e-07
2.66642e-05
1.42616e-06
3.30974e-05
1.7355e-06
4.16869e-05
2.11658e-06
5.01025e-05
2.4058e-06
6.10004e-05
2.76149e-06
7.34179e-05
2.86564e-06
8.87894e-05
3.04495e-06
0.000107368
2.87201e-06
0.00013031
0.000158864
2.46458e-06
8.13058e-07
1.6398e-05
1.666e-06
2.58113e-05
2.4483e-06
3.23151e-05
3.20107e-06
4.09341e-05
4.02982e-06
4.92737e-05
4.83405e-06
6.01961e-05
5.89962e-06
7.23523e-05
6.92216e-06
8.77669e-05
8.06039e-06
0.00010623
9.16404e-06
0.000129206
0.000157734
1.02942e-05
8.4858e-07
1.55494e-05
1.95547e-06
2.47044e-05
3.0696e-06
3.1201e-05
4.30539e-06
3.96983e-05
5.67963e-06
4.78995e-05
7.19035e-06
5.86854e-05
8.95671e-06
7.05859e-05
1.09271e-05
8.57965e-05
1.32307e-05
0.000103926
1.57447e-05
0.000126692
0.000154909
1.85698e-05
9.44843e-07
1.46046e-05
2.33945e-06
2.33098e-05
3.82161e-06
2.97188e-05
5.54858e-06
3.79713e-05
7.46712e-06
4.5981e-05
9.72922e-06
5.64233e-05
1.23359e-05
6.79792e-05
1.53622e-05
8.27702e-05
1.88933e-05
0.000100395
2.2936e-05
0.000122649
0.000150254
2.75914e-05
1.19194e-06
1.34126e-05
2.96365e-06
2.1538e-05
4.90164e-06
2.77808e-05
7.20447e-06
3.56685e-05
9.75192e-06
4.34335e-05
1.27908e-05
5.33844e-05
1.62907e-05
6.44794e-05
2.04488e-05
7.86121e-05
2.52902e-05
9.55536e-05
3.09467e-05
0.000116993
0.000143658
3.75425e-05
1.32348e-06
1.20892e-05
3.40102e-06
1.94605e-05
5.79823e-06
2.53836e-05
8.72666e-06
3.27401e-05
1.20098e-05
4.01504e-05
1.59556e-05
4.94386e-05
2.05071e-05
5.99279e-05
2.59449e-05
7.31743e-05
3.23048e-05
8.91937e-05
3.98335e-05
0.000109464
0.000134825
4.8666e-05
1.47175e-06
1.06174e-05
3.85527e-06
1.7077e-05
6.73514e-06
2.25038e-05
1.0315e-05
2.91602e-05
1.44281e-05
3.60373e-05
1.93897e-05
4.44771e-05
2.51575e-05
5.41601e-05
3.20402e-05
6.62915e-05
4.0121e-05
8.1113e-05
4.97246e-05
9.98607e-05
0.000123423
6.11272e-05
1.63433e-06
8.98308e-06
4.30766e-06
1.44036e-05
7.6813e-06
1.91301e-05
1.19526e-05
2.48889e-05
1.699e-05
3.09999e-05
2.30798e-05
3.83872e-05
3.02059e-05
4.7034e-05
3.8677e-05
5.78204e-05
4.86633e-05
7.11267e-05
6.05715e-05
8.79524e-05
0.000109192
7.4802e-05
1.80188e-06
7.1812e-06
4.7024e-06
1.15031e-05
8.52946e-06
1.53031e-05
1.34896e-05
1.99287e-05
1.94969e-05
2.49926e-05
2.67644e-05
3.11197e-05
3.53266e-05
3.84718e-05
4.54918e-05
4.76552e-05
5.75202e-05
5.90983e-05
7.19046e-05
7.35681e-05
9.18967e-05
8.92002e-05
1.85434e-06
5.32686e-06
4.91632e-06
8.44113e-06
9.12802e-06
1.10914e-05
1.47132e-05
1.43436e-05
2.16022e-05
1.81036e-05
2.99359e-05
2.2786e-05
3.98352e-05
2.85725e-05
5.16149e-05
3.58755e-05
6.56453e-05
4.50679e-05
8.2504e-05
5.67094e-05
7.13515e-05
0.000103049
1.99678e-06
3.33009e-06
5.06551e-06
5.3724e-06
9.48422e-06
6.67267e-06
1.53838e-05
8.44396e-06
2.26997e-05
1.07877e-05
3.16171e-05
1.38686e-05
4.23692e-05
1.78204e-05
5.53196e-05
2.29251e-05
7.09067e-05
2.94808e-05
8.96921e-05
3.7924e-05
4.8736e-05
0.000112308
1.10789e-06
2.2222e-06
5.00962e-06
1.47066e-06
9.91372e-06
1.76857e-06
1.57028e-05
2.65486e-06
2.26983e-05
3.79221e-06
3.12618e-05
5.3052e-06
4.17488e-05
7.33336e-06
5.463e-05
1.0044e-05
7.04242e-05
1.36866e-05
8.97464e-05
1.86018e-05
2.51535e-05
0.000113329
-1.3194e-05
1.27618e-05
-2.32473e-05
8.55704e-06
-3.30107e-05
7.33776e-06
-4.20628e-05
5.59819e-06
-5.09846e-05
4.29897e-06
-6.01788e-05
3.15134e-06
-7.0154e-05
2.06901e-06
-8.13642e-05
8.39481e-07
-9.42339e-05
-7.82894e-07
-0.000109174
-3.11966e-06
-6.57316e-06
-0.000126596
-3.14866e-06
1.59105e-05
-7.54582e-06
1.29542e-05
-1.57276e-05
1.55195e-05
-2.49358e-05
1.48064e-05
-3.49771e-05
1.43403e-05
-4.57361e-05
1.39103e-05
-5.74695e-05
1.38024e-05
-7.05427e-05
1.39127e-05
-8.54154e-05
1.40899e-05
-0.000102579
1.40439e-05
1.34324e-05
-0.000122584
-8.66303e-07
1.67768e-05
-3.53993e-06
1.56278e-05
-8.96682e-06
2.09464e-05
-1.60213e-05
2.1861e-05
-2.50527e-05
2.33717e-05
-3.54707e-05
2.43283e-05
-4.72937e-05
2.56253e-05
-6.05934e-05
2.72124e-05
-7.57351e-05
2.92316e-05
-9.31703e-05
3.14791e-05
3.3616e-05
-0.000113354
-6.32187e-07
1.7409e-05
-3.26101e-06
1.82566e-05
-6.93877e-06
2.46242e-05
-1.20992e-05
2.70214e-05
-1.92982e-05
3.05706e-05
-2.83331e-05
3.33632e-05
-3.89826e-05
3.62748e-05
-5.13478e-05
3.95776e-05
-6.55987e-05
4.34825e-05
-8.20537e-05
4.79341e-05
5.27707e-05
-0.000101208
-7.34879e-07
1.81438e-05
-3.45356e-06
2.09753e-05
-6.33484e-06
2.75055e-05
-1.03629e-05
3.10495e-05
-1.59582e-05
3.61658e-05
-2.31609e-05
4.05659e-05
-3.21614e-05
4.52754e-05
-4.29305e-05
5.03467e-05
-5.55639e-05
5.61158e-05
-7.0258e-05
6.26282e-05
6.98866e-05
-8.73739e-05
-7.14067e-07
1.88579e-05
-3.20837e-06
2.34696e-05
-5.66818e-06
2.99653e-05
-9.01704e-06
3.43984e-05
-1.34389e-05
4.05877e-05
-1.91101e-05
4.62371e-05
-2.64072e-05
5.25725e-05
-3.53349e-05
5.92744e-05
-4.59848e-05
6.67657e-05
-5.84975e-05
7.51409e-05
8.44234e-05
-7.30343e-05
-6.03042e-07
1.94609e-05
-2.70731e-06
2.55739e-05
-4.77359e-06
3.20316e-05
-7.56908e-06
3.71938e-05
-1.11464e-05
4.41651e-05
-1.56044e-05
5.06951e-05
-2.13946e-05
5.83627e-05
-2.85241e-05
6.64039e-05
-3.71319e-05
7.53735e-05
-4.72875e-05
8.52965e-05
9.62039e-05
-5.90679e-05
-6.16119e-07
2.00771e-05
-2.33726e-06
2.7295e-05
-4.03972e-06
3.3734e-05
-6.3004e-06
3.94545e-05
-9.13298e-06
4.69976e-05
-1.2625e-05
5.41871e-05
-1.70422e-05
6.27799e-05
-2.24757e-05
7.18374e-05
-2.90756e-05
8.19734e-05
-3.67889e-05
9.30097e-05
0.0001049
-4.54855e-05
-5.20618e-07
2.05977e-05
-1.90157e-06
2.8676e-05
-3.17596e-06
3.50084e-05
-5.02526e-06
4.13038e-05
-7.01354e-06
4.89859e-05
-9.67304e-06
5.68466e-05
-1.29044e-05
6.60112e-05
-1.68469e-05
7.57799e-05
-2.15742e-05
8.67007e-05
-2.6976e-05
9.84115e-05
0.000110596
-3.26713e-05
-3.21333e-07
2.0919e-05
-1.39648e-06
2.97511e-05
-2.19688e-06
3.58088e-05
-3.60599e-06
4.27129e-05
-4.94079e-06
5.03207e-05
-6.757e-06
5.86628e-05
-8.89288e-06
6.81471e-05
-1.14751e-05
7.83621e-05
-1.45388e-05
8.97644e-05
-1.79223e-05
0.000101795
0.000114203
-2.15296e-05
-3.87697e-08
2.09578e-05
-5.68347e-07
3.02807e-05
-1.04605e-06
3.62865e-05
-1.84883e-06
4.35157e-05
-2.59524e-06
5.10671e-05
-3.64495e-06
5.97125e-05
-4.78177e-06
6.9284e-05
-6.17254e-06
7.97529e-05
-7.74417e-06
9.1336e-05
-9.47478e-06
0.000103526
0.000115918
-1.11894e-05
1.0765e-07
2.08501e-05
-4.7998e-08
3.04364e-05
-9.68126e-08
3.63353e-05
-3.65927e-07
4.37848e-05
-4.56151e-07
5.11574e-05
-7.03036e-07
5.99594e-05
-8.45781e-07
6.94267e-05
-1.08886e-06
7.9996e-05
-1.19688e-06
9.14441e-05
-1.23241e-06
0.000103561
0.000115776
-1.09042e-06
3.32625e-07
2.05175e-05
5.77727e-07
3.01913e-05
9.40468e-07
3.59726e-05
1.24276e-06
4.34825e-05
1.77241e-06
5.06277e-05
2.33284e-06
5.9399e-05
3.15358e-06
6.8606e-05
4.08175e-06
7.90678e-05
5.33954e-06
9.01863e-05
6.87239e-06
0.000102028
0.000113877
8.7715e-06
6.80767e-07
1.98367e-05
1.40736e-06
2.94647e-05
2.21468e-06
3.51653e-05
3.10305e-06
4.25942e-05
4.2568e-06
4.9474e-05
5.61333e-06
5.80425e-05
7.34319e-06
6.68761e-05
9.42952e-06
7.69815e-05
1.20105e-05
8.76053e-05
1.50792e-05
9.89596e-05
0.000110353
1.86025e-05
8.84748e-07
1.8952e-05
2.01202e-06
2.83374e-05
3.29332e-06
3.3884e-05
4.80409e-06
4.10834e-05
6.61739e-06
4.76607e-05
8.81673e-06
5.58431e-05
1.1547e-05
6.41458e-05
1.4832e-05
7.36965e-05
1.87776e-05
8.36596e-05
2.34247e-05
9.43126e-05
0.000105068
2.87101e-05
1.12716e-06
1.78248e-05
2.69537e-06
2.67692e-05
4.4717e-06
3.21077e-05
6.62542e-06
3.89297e-05
9.15836e-06
4.51277e-05
1.22803e-05
5.27212e-05
1.60061e-05
6.042e-05
2.05077e-05
6.91949e-05
2.58428e-05
7.83246e-05
3.21058e-05
8.80496e-05
9.78988e-05
3.92747e-05
1.43268e-06
1.63922e-05
3.46394e-06
2.47379e-05
5.78641e-06
2.97852e-05
8.62799e-06
3.60881e-05
1.19306e-05
4.18251e-05
1.59853e-05
4.86665e-05
2.0785e-05
5.56203e-05
2.65537e-05
6.34262e-05
3.33241e-05
7.15541e-05
4.12347e-05
8.0139e-05
8.88276e-05
5.0306e-05
1.72248e-06
1.46697e-05
4.22098e-06
2.22394e-05
7.12648e-06
2.68797e-05
1.07e-05
3.25146e-05
1.48476e-05
3.76775e-05
1.99094e-05
4.36048e-05
2.58664e-05
4.96633e-05
3.29574e-05
5.63352e-05
4.12327e-05
6.32789e-05
5.0857e-05
7.05146e-05
7.77309e-05
6.19537e-05
2.01553e-06
1.26542e-05
4.96674e-06
1.92882e-05
8.49415e-06
2.33523e-05
1.2842e-05
2.81667e-05
1.79327e-05
3.25869e-05
2.40693e-05
3.74682e-05
3.12696e-05
4.24629e-05
3.9748e-05
4.78568e-05
4.95752e-05
5.34517e-05
6.09484e-05
5.91414e-05
6.46906e-05
7.39887e-05
2.32977e-06
1.03244e-05
5.73604e-06
1.58819e-05
9.89757e-06
1.91908e-05
1.50714e-05
2.29929e-05
2.11653e-05
2.64929e-05
2.84434e-05
3.01901e-05
3.69345e-05
3.39718e-05
4.68127e-05
3.79786e-05
5.82205e-05
4.20438e-05
7.13791e-05
4.59828e-05
4.94354e-05
8.66344e-05
2.64941e-06
7.67498e-06
6.47215e-06
1.20592e-05
1.12734e-05
1.43895e-05
1.7278e-05
1.69883e-05
2.43921e-05
1.93787e-05
3.27887e-05
2.17935e-05
4.25167e-05
2.42439e-05
5.37545e-05
2.67408e-05
6.66812e-05
2.91171e-05
8.15732e-05
3.10908e-05
3.22492e-05
9.87594e-05
3.00048e-06
4.6745e-06
7.21358e-06
7.84607e-06
1.25788e-05
9.02429e-06
1.9291e-05
1.02761e-05
2.72482e-05
1.14215e-05
3.6544e-05
1.24978e-05
4.72835e-05
1.35043e-05
5.96544e-05
1.43699e-05
7.38933e-05
1.48782e-05
9.03023e-05
1.46818e-05
1.33076e-05
0.000109244
3.37341e-06
1.3011e-06
7.87702e-06
3.34245e-06
1.35089e-05
3.39238e-06
2.0422e-05
3.363e-06
2.86053e-05
3.23826e-06
3.81786e-05
2.92448e-06
4.93067e-05
2.37624e-06
6.22035e-05
1.4731e-06
7.70541e-05
2.76e-08
9.39619e-05
-2.226e-06
-5.81345e-06
0.000113083
3.5233e-06
8.33642e-06
1.34974e-05
1.95152e-05
2.65457e-05
3.47754e-05
4.4485e-05
5.6002e-05
6.97162e-05
8.6092e-05
0.000105432
2.05504e-06
1.58642e-05
-1.79193e-05
2.92188e-06
1.58142e-05
-1.6681e-05
7.06302e-07
2.0712e-05
-1.84964e-05
-3.5539e-06
2.51158e-05
-2.08556e-05
-8.77556e-06
2.88964e-05
-2.36748e-05
-1.44968e-05
3.29176e-05
-2.71963e-05
-2.0553e-05
3.75485e-05
-3.14923e-05
-2.71503e-05
4.33802e-05
-3.67829e-05
-3.4576e-05
5.08094e-05
-4.33838e-05
-4.3125e-05
6.0288e-05
-5.1739e-05
7.25247e-05
-6.24274e-05
-5.32223e-05
6.24241e-06
9.62181e-06
9.39836e-06
1.26582e-05
1.04412e-05
1.96692e-05
9.64326e-06
2.59137e-05
6.71925e-06
3.18204e-05
1.89026e-06
3.77466e-05
-4.28301e-06
4.37218e-05
-1.13752e-05
5.04724e-05
-1.93232e-05
5.87574e-05
-2.84642e-05
6.94291e-05
8.3177e-05
-3.91165e-05
4.55712e-06
5.06469e-06
7.25966e-06
9.95568e-06
9.94274e-06
1.69861e-05
1.15177e-05
2.43387e-05
1.12216e-05
3.21166e-05
8.87271e-06
4.00954e-05
4.61604e-06
4.79785e-05
-1.11694e-06
5.62054e-05
-7.96185e-06
6.56023e-05
-1.59192e-05
7.73865e-05
9.26154e-05
-2.53577e-05
3.34246e-06
1.72223e-06
6.04678e-06
7.25136e-06
8.76225e-06
1.42706e-05
1.10418e-05
2.20591e-05
1.22461e-05
3.09124e-05
1.19247e-05
4.04167e-05
9.83939e-06
5.00638e-05
6.12589e-06
5.99189e-05
1.07457e-06
7.06536e-05
-5.03353e-06
8.34946e-05
9.97705e-05
-1.21886e-05
2.37854e-06
-6.56311e-07
5.144e-06
4.4859e-06
8.06684e-06
1.13478e-05
1.06025e-05
1.95235e-05
1.25214e-05
2.89934e-05
1.34583e-05
3.94799e-05
1.30545e-05
5.04676e-05
1.12005e-05
6.17729e-05
8.05802e-06
7.37961e-05
3.88318e-06
8.76694e-05
0.00010487
-1.21651e-06
1.5897e-06
-2.24601e-06
4.32124e-06
1.75436e-06
7.31674e-06
8.35229e-06
1.01902e-05
1.665e-05
1.26558e-05
2.65279e-05
1.44343e-05
3.77014e-05
1.522e-05
4.96819e-05
1.48267e-05
6.21662e-05
1.33082e-05
7.53146e-05
1.08873e-05
9.00904e-05
0.000107951
7.80611e-06
6.63592e-07
-2.90961e-06
3.05872e-06
-6.40766e-07
6.13824e-06
5.27276e-06
9.32501e-06
1.34632e-05
1.22693e-05
2.35836e-05
1.47186e-05
3.5252e-05
1.64122e-05
4.79883e-05
1.71825e-05
6.1396e-05
1.70195e-05
7.54775e-05
1.61082e-05
9.10016e-05
0.000109377
1.46822e-05
4.69581e-07
-3.37919e-06
1.99922e-06
-2.1704e-06
4.76657e-06
2.50541e-06
8.01536e-06
1.02144e-05
1.12487e-05
2.03502e-05
1.41816e-05
3.23192e-05
1.6593e-05
4.55769e-05
1.83183e-05
5.96707e-05
1.93253e-05
7.44706e-05
1.97726e-05
9.05543e-05
0.000109213
1.99369e-05
3.42338e-07
-3.72153e-06
1.21587e-06
-3.04394e-06
3.48706e-06
2.34225e-07
6.57339e-06
7.1281e-06
9.89735e-06
1.70263e-05
1.31268e-05
2.90897e-05
1.60517e-05
4.26519e-05
1.85269e-05
5.71955e-05
2.05117e-05
7.24858e-05
2.21275e-05
8.89385e-05
0.000107686
2.36543e-05
2.74342e-07
-3.99587e-06
8.78891e-07
-3.64848e-06
2.51361e-06
-1.4005e-06
5.23634e-06
4.40537e-06
8.47059e-06
1.3792e-05
1.1829e-05
2.57313e-05
1.50888e-05
3.93922e-05
1.81221e-05
5.41621e-05
2.08811e-05
6.97269e-05
2.34656e-05
8.6354e-05
0.000105076
2.60761e-05
2.12325e-07
-4.20819e-06
6.51569e-07
-4.08773e-06
1.71766e-06
-2.46659e-06
3.90889e-06
2.21414e-06
6.85708e-06
1.08438e-05
1.01704e-05
2.24179e-05
1.36095e-05
3.59531e-05
1.70597e-05
5.07119e-05
2.04819e-05
6.63047e-05
2.39537e-05
8.28822e-05
0.000101293
2.7737e-05
1.21639e-07
-4.32983e-06
3.30606e-07
-4.2967e-06
9.54189e-07
-3.09017e-06
2.52985e-06
6.38476e-07
5.0679e-06
8.30578e-06
8.16404e-06
1.93218e-05
1.16393e-05
3.24778e-05
1.53936e-05
4.69577e-05
1.93891e-05
6.23092e-05
2.36715e-05
7.85998e-05