/*--------------------------------*- C++ -*----------------------------------*\
| =========                 |                                                 |
| \\      /  F ield         | OpenFOAM: The Open Source CFD Toolbox           |
|  \\    /   O peration     | Version:  3.0.1                                 |
|   \\  /    A nd           | Web:      www.OpenFOAM.org                      |
|    \\/     M anipulation  |                                                 |
\*---------------------------------------------------------------------------*/
FoamFile
{
    version     2.0;
    format      ascii;
    class       volScalarField;
    location    "0.824003";
    object      nut;
}
// * * * * * * * * * * * * * * * * * * * * * * * * * * * * * * * * * * * * * //

dimensions      [0 2 -1 0 0 0 0];

internalField   nonuniform List<scalar> 
21246
(
3.13063e-05
8.62439e-05
7.93119e-05
8.05655e-05
6.93343e-05
5.45097e-05
4.38746e-05
3.76141e-05
3.3355e-05
2.98448e-05
2.65467e-05
2.66309e-05
7.97236e-05
5.89453e-05
8.29102e-05
7.51359e-05
5.77674e-05
4.42057e-05
3.64032e-05
3.14045e-05
2.75109e-05
2.40701e-05
2.66619e-05
6.88967e-05
5.56248e-05
6.78762e-05
7.81365e-05
6.21347e-05
4.57981e-05
3.62623e-05
3.04454e-05
2.61584e-05
2.25317e-05
2.83789e-05
6.17486e-05
5.52915e-05
6.19125e-05
7.37564e-05
6.63457e-05
4.80371e-05
3.68362e-05
3.02116e-05
2.55865e-05
2.19127e-05
3.01495e-05
5.89454e-05
5.53396e-05
5.8387e-05
6.92771e-05
7.00644e-05
5.06844e-05
3.79553e-05
3.05308e-05
2.55861e-05
2.19158e-05
3.12719e-05
5.86532e-05
5.56243e-05
5.55955e-05
6.36489e-05
7.06245e-05
5.37889e-05
3.95843e-05
3.1319e-05
2.60148e-05
2.22745e-05
3.18074e-05
6.00862e-05
5.64835e-05
5.37801e-05
5.81156e-05
6.65016e-05
5.66739e-05
4.18344e-05
3.25422e-05
2.67997e-05
2.28932e-05
3.18697e-05
6.32497e-05
5.8302e-05
5.32343e-05
5.4078e-05
6.05861e-05
5.73052e-05
4.464e-05
3.43985e-05
2.79425e-05
2.37767e-05
3.1392e-05
6.75772e-05
6.12702e-05
5.38326e-05
5.14792e-05
5.49017e-05
5.52666e-05
4.69963e-05
3.6752e-05
2.95571e-05
2.49761e-05
3.04238e-05
7.24789e-05
6.55492e-05
5.55773e-05
5.00825e-05
5.01503e-05
5.1186e-05
4.77074e-05
3.93333e-05
3.16252e-05
2.65072e-05
2.92135e-05
7.83455e-05
7.14258e-05
5.8738e-05
5.01247e-05
4.70455e-05
4.68442e-05
4.62201e-05
4.1382e-05
3.40897e-05
2.84207e-05
2.79737e-05
8.586e-05
7.92925e-05
6.35617e-05
5.17242e-05
4.57839e-05
4.36648e-05
4.35098e-05
4.20326e-05
3.66178e-05
3.07471e-05
2.69529e-05
9.4883e-05
8.95274e-05
7.0386e-05
5.49143e-05
4.60898e-05
4.18692e-05
4.07653e-05
4.1029e-05
3.85298e-05
3.33844e-05
2.63758e-05
0.000104842
0.00010243
7.98051e-05
6.0023e-05
4.79369e-05
4.14358e-05
3.87388e-05
3.8959e-05
3.90382e-05
3.59142e-05
2.63203e-05
0.000116965
0.000118612
9.24392e-05
6.74843e-05
5.15343e-05
4.24913e-05
3.79411e-05
3.69753e-05
3.80366e-05
3.75677e-05
2.67035e-05
0.000130772
0.000138239
0.00010921
7.80906e-05
5.72847e-05
4.51519e-05
3.84944e-05
3.58238e-05
3.62838e-05
3.76284e-05
2.71961e-05
0.000144111
0.000160397
0.000131065
9.3155e-05
6.60824e-05
4.98757e-05
4.06116e-05
3.59146e-05
3.48007e-05
3.6224e-05
2.69284e-05
0.000155793
0.000183212
0.000158079
0.000114094
7.92529e-05
5.75669e-05
4.48431e-05
3.76858e-05
3.44813e-05
3.44996e-05
2.58324e-05
0.000163794
0.000203674
0.000188587
0.000142145
9.87969e-05
6.98857e-05
5.23285e-05
4.18849e-05
3.60851e-05
3.38307e-05
2.38598e-05
0.000166146
0.000218035
0.000218014
0.00017685
0.000127145
8.96758e-05
6.53872e-05
5.01727e-05
4.08302e-05
3.56016e-05
2.09799e-05
0.00015821
0.000222389
0.000240131
0.000214568
0.000166229
0.000121406
8.85414e-05
6.62192e-05
5.14586e-05
4.1973e-05
1.83705e-05
0.000144599
0.000216137
0.000250605
0.000246169
0.000212167
0.000168088
0.000128106
9.68198e-05
7.39766e-05
5.78084e-05
1.39318e-05
0.000111235
0.000158678
0.000197867
0.000216756
0.000216793
0.000199448
0.000171163
0.000140376
0.000112733
8.96861e-05
1.08198e-05
4.19623e-05
5.7223e-05
7.80243e-05
9.95595e-05
0.000120177
0.000136355
0.000142086
0.00013802
0.000127537
0.000113218
2.58088e-05
7.78403e-05
7.64442e-05
7.53424e-05
6.72026e-05
5.49602e-05
4.60504e-05
4.05545e-05
3.67445e-05
3.36152e-05
3.06885e-05
1.79368e-05
6.79563e-05
8.03119e-05
8.23029e-05
7.43693e-05
6.17253e-05
5.18636e-05
4.57383e-05
4.16875e-05
3.85113e-05
3.5575e-05
1.83685e-05
6.26603e-05
7.98696e-05
9.63079e-05
8.83726e-05
7.40757e-05
6.15718e-05
5.37866e-05
4.91655e-05
4.60972e-05
4.34831e-05
2.07741e-05
5.88591e-05
7.79132e-05
0.000105547
0.000105302
9.48209e-05
8.15804e-05
7.15875e-05
6.51113e-05
6.07157e-05
5.75702e-05
2.37537e-05
5.49224e-05
7.85719e-05
0.000110974
0.000113285
0.000103919
8.9824e-05
7.9133e-05
7.26504e-05
6.89389e-05
6.67285e-05
2.66579e-05
5.19077e-05
7.96283e-05
0.000112861
0.000117099
0.00010969
9.60576e-05
8.5659e-05
7.96297e-05
7.6796e-05
7.59617e-05
2.93772e-05
4.98201e-05
8.04633e-05
0.000113176
0.000119181
0.000113948
0.000101176
9.14744e-05
8.60778e-05
8.41253e-05
8.45685e-05
3.19314e-05
4.84218e-05
8.10407e-05
0.000113054
0.000120854
0.000117577
0.000105874
9.70507e-05
9.23829e-05
9.13503e-05
9.3052e-05
3.41568e-05
4.74775e-05
8.14475e-05
0.000113088
0.000122813
0.000121039
0.000110555
0.000102537
9.84457e-05
9.78877e-05
9.96251e-05
3.60421e-05
4.67879e-05
8.18421e-05
0.000113369
0.000125179
0.000124709
0.000115435
0.000108057
0.000104405
0.000104225
0.000106232
3.75642e-05
4.61909e-05
8.21014e-05
0.00011402
0.000127876
0.000128801
0.000120639
0.000113702
0.000110346
0.000110546
0.000113119
3.88114e-05
4.56111e-05
8.21992e-05
0.0001149
0.000130821
0.000133324
0.000126216
0.000119528
0.00011629
0.000116797
0.000119931
3.97098e-05
4.49307e-05
8.20568e-05
0.000115854
0.000133975
0.000138304
0.000132258
0.000125623
0.000122257
0.000122899
0.000126694
4.01378e-05
4.27963e-05
7.94467e-05
0.00011478
0.000135618
0.000142672
0.000138462
0.00013206
0.000128365
0.00012885
0.000133023
4.00378e-05
4.03021e-05
7.44485e-05
0.000110554
0.000133855
0.000144218
0.000143308
0.000138363
0.00013474
0.000134924
0.000139129
3.93751e-05
3.75518e-05
6.73443e-05
0.000102855
0.000128203
0.000141879
0.00014531
0.000143428
0.000140973
0.000141105
0.000145055
3.81375e-05
3.47003e-05
5.87837e-05
9.16614e-05
0.000118178
0.000134702
0.000142621
0.000145093
0.000145547
0.000146762
0.000150682
3.6244e-05
3.19144e-05
4.99402e-05
7.80053e-05
0.000103939
0.00012229
0.00013379
0.000140607
0.000145249
0.000149438
0.000154675
3.36291e-05
2.9167e-05
4.1623e-05
6.34529e-05
8.64944e-05
0.000104991
0.000118428
0.000128132
0.000136238
0.000144124
0.000152495
3.0263e-05
2.63107e-05
3.42048e-05
4.95424e-05
6.77088e-05
8.42083e-05
9.75773e-05
0.000108127
0.000117342
0.000126687
0.000137062
2.61107e-05
2.31255e-05
2.77053e-05
3.73523e-05
4.98271e-05
6.24649e-05
7.3767e-05
8.33244e-05
9.16602e-05
9.96938e-05
0.000108327
2.11635e-05
1.93464e-05
2.18479e-05
2.72127e-05
3.45207e-05
4.25666e-05
5.04317e-05
5.76109e-05
6.40269e-05
6.99188e-05
7.56894e-05
1.54576e-05
1.44261e-05
1.57338e-05
1.82871e-05
2.17789e-05
2.5818e-05
3.00479e-05
3.42162e-05
3.81796e-05
4.18939e-05
4.53843e-05
9.33764e-06
9.71577e-06
1.13571e-05
1.33125e-05
1.5516e-05
1.7822e-05
2.02868e-05
2.41286e-05
2.947e-05
3.6248e-05
4.39369e-05
4.07692e-05
0.000227572
0.000390507
0.000542574
0.000624535
0.000630094
0.000626355
0.000649588
0.000664269
0.000612232
0.000498846
2.98237e-05
0.000129245
0.000250501
0.000381916
0.000486409
0.000533662
0.000548583
0.000594098
0.000635067
0.000595616
0.00047865
2.40893e-05
8.85517e-05
0.000181892
0.000288102
0.000387273
0.000450093
0.000473157
0.000494612
0.000558457
0.000583297
0.000469139
1.92278e-05
7.70021e-05
0.000147679
0.000232727
0.000320299
0.00038643
0.000416371
0.000425019
0.000457715
0.00051432
0.00047019
1.5404e-05
7.9451e-05
0.000133181
0.000200657
0.000275343
0.000338424
0.0003723
0.000378422
0.000386761
0.000421444
0.000433839
1.4829e-05
8.80926e-05
0.000131322
0.000184027
0.000245778
0.000302487
0.000337059
0.000344154
0.000341122
0.000351164
0.000369852
1.49401e-05
9.38997e-05
0.000134996
0.00017705
0.000227155
0.000275988
0.000308586
0.00031682
0.00030974
0.00030512
0.000311519
1.47972e-05
9.40866e-05
0.00013601
0.000174434
0.00021556
0.000256393
0.000285317
0.00029379
0.000285865
0.00027423
0.00026926
1.42374e-05
9.11123e-05
0.000132715
0.000170589
0.000207124
0.000240998
0.000265703
0.00027366
0.000266126
0.000251891
0.000240361
1.35896e-05
8.61342e-05
0.000127825
0.000163008
0.000198711
0.000227635
0.000248598
0.000255872
0.000249317
0.000235017
0.000221123
1.29913e-05
8.02889e-05
0.000121584
0.000154888
0.000188779
0.000215511
0.000233831
0.000240826
0.000235852
0.00022325
0.000209799
1.24652e-05
7.48121e-05
0.000115776
0.000147903
0.000179647
0.000205389
0.000222483
0.000230084
0.000227563
0.000218087
0.000207105
1.19198e-05
6.9615e-05
0.000111166
0.000143369
0.000174057
0.00019923
0.000216784
0.000226386
0.000227495
0.000222141
0.000214356
1.13517e-05
6.4188e-05
0.000107522
0.000141751
0.000173028
0.000199103
0.000219208
0.000232661
0.00023852
0.000237332
0.000231307
1.08487e-05
5.88146e-05
0.000104436
0.000141597
0.000175595
0.000205285
0.000230289
0.000249358
0.000260278
0.000261765
0.000254696
1.03606e-05
5.38952e-05
0.000100475
0.000140447
0.000178909
0.000214307
0.000246005
0.000271525
0.000286628
0.000288429
0.000277524
9.803e-06
4.94113e-05
9.55035e-05
0.000137104
0.000179682
0.000221193
0.000260018
0.000291725
0.000309895
0.000310783
0.000295165
9.11301e-06
4.58891e-05
9.05596e-05
0.000132604
0.000178422
0.000225778
0.000271294
0.000308383
0.000329099
0.000329119
0.000309246
8.2976e-06
4.34183e-05
8.64218e-05
0.000129637
0.0001798
0.000232406
0.000280187
0.000318063
0.00034031
0.000340949
0.000317896
7.34807e-06
4.22118e-05
8.70961e-05
0.000136009
0.000183945
0.000220818
0.000233188
0.000254631
0.000287118
0.000310789
0.000300654
7.16693e-06
5.32391e-05
9.51164e-05
0.000112147
0.000111075
0.000117087
0.000138581
0.000162827
0.000184041
0.000202078
0.000216246
7.54241e-06
4.36186e-05
5.3366e-05
5.28364e-05
7.54501e-05
0.00010503
0.000137981
0.0001685
0.000189044
0.000191197
0.000175509
6.14435e-06
1.68244e-05
3.18361e-05
5.72318e-05
9.15302e-05
0.000131774
0.000172786
0.000208914
0.000234213
0.00023924
0.000213518
8.36749e-06
2.3528e-05
5.27346e-05
9.54161e-05
0.000146948
0.000199274
0.000244236
0.000276682
0.000293903
0.000293875
0.000269593
3.89502e-05
0.00033078
0.000547567
0.000657578
0.000683032
0.000668636
0.00066336
0.000686615
0.000701515
0.000649484
0.000532442
2.35187e-05
0.000246573
0.000502416
0.000659103
0.000715212
0.000713803
0.000709773
0.000736226
0.000763556
0.000722078
0.000596305
1.63144e-05
0.000184035
0.000426428
0.000612807
0.000712639
0.000741879
0.000748197
0.000781177
0.00082821
0.000809391
0.000681467
1.104e-05
0.000127107
0.000327801
0.000518864
0.000657937
0.000730734
0.000761423
0.000806953
0.000880051
0.000898968
0.000783351
1.08588e-05
8.21981e-05
0.000229059
0.000405472
0.000561485
0.000670693
0.00073127
0.000793513
0.000899941
0.000984647
0.000924094
1.22748e-05
7.90271e-05
0.000188197
0.000328674
0.000476946
0.000593821
0.000658035
0.000701584
0.000807405
0.000963035
0.00101539
1.38195e-05
8.42545e-05
0.000185344
0.00030616
0.000437109
0.000554145
0.000624814
0.000647587
0.000711586
0.000886076
0.00104412
1.54226e-05
9.08573e-05
0.000190971
0.000304531
0.000426324
0.000540237
0.000616079
0.000631597
0.000638422
0.000770066
0.000989821
1.6952e-05
9.84399e-05
0.00019996
0.000309656
0.000424837
0.000535995
0.000616434
0.000637
0.000608278
0.000655901
0.000874393
1.8342e-05
0.000106973
0.00021063
0.000317489
0.000425917
0.000532188
0.00061551
0.000645815
0.000610253
0.000580508
0.000729882
1.95468e-05
0.000115081
0.000221031
0.000326125
0.00042744
0.000525396
0.000607689
0.000647783
0.00062078
0.000553483
0.000598748
2.0615e-05
0.000123104
0.000233381
0.000335083
0.000428944
0.000515246
0.0005909
0.000637993
0.000626025
0.000550168
0.000518849
2.14793e-05
0.000130257
0.000243764
0.000343538
0.000430159
0.000502931
0.000565917
0.000615124
0.000619773
0.000553112
0.000478907
2.21623e-05
0.00013606
0.000253028
0.000351032
0.000430617
0.000490326
0.000536896
0.000580014
0.000599225
0.000552592
0.000460503
2.25976e-05
0.000141186
0.000260575
0.000356314
0.000428983
0.000477029
0.00050872
0.000540149
0.00056372
0.000541187
0.000454933
2.27309e-05
0.000145649
0.000267153
0.00036032
0.000425835
0.000462437
0.000481122
0.000501469
0.000521806
0.000514887
0.000456945
2.25551e-05
0.000149572
0.000273351
0.000364153
0.000422569
0.000448076
0.000455471
0.000466147
0.000481007
0.00048146
0.000450305
2.20038e-05
0.000153202
0.000280125
0.000369505
0.000420725
0.00043649
0.000434338
0.00043562
0.000443376
0.000444848
0.000427044
2.10171e-05
0.000156509
0.000286951
0.000373528
0.000418392
0.000429202
0.000420011
0.000411573
0.000410761
0.000409079
0.00039691
1.94356e-05
0.000157268
0.000285963
0.000372211
0.000418093
0.000427762
0.000413302
0.000395664
0.000385814
0.000378679
0.000366519
1.69161e-05
0.000148347
0.0002742
0.00036578
0.00041756
0.000429039
0.000411399
0.000386459
0.000369031
0.000357704
0.000347373
1.38518e-05
0.000130015
0.000249072
0.000348724
0.000409107
0.000426023
0.000409422
0.00038084
0.00035782
0.000342313
0.000330881
1.03702e-05
9.34419e-05
0.000212426
0.000316944
0.000384773
0.000409953
0.000401241
0.00037589
0.000351038
0.000331979
0.000313936
7.22419e-06
8.7063e-05
0.00017721
0.000271064
0.000330538
0.000362801
0.000370705
0.000360786
0.000341703
0.000322353
0.000298595
5.9848e-05
0.000339454
0.00043661
0.000476042
0.000493416
0.000503881
0.00051157
0.000513318
0.000501095
0.000463033
0.000400809
3.94985e-05
0.000273785
0.000414884
0.000475775
0.00049873
0.000507242
0.000508586
0.000504193
0.00048989
0.000455366
0.000397385
3.2056e-05
0.000239977
0.00040123
0.000487265
0.00051865
0.000527764
0.000528152
0.000522049
0.000505618
0.000469953
0.000409881
3.04034e-05
0.000203613
0.00037402
0.000488324
0.000535746
0.000546098
0.000543194
0.000534495
0.000516973
0.000482936
0.000425035
3.07231e-05
0.000183879
0.000340851
0.000460598
0.000521374
0.000541673
0.000542763
0.000535154
0.000517156
0.000481405
0.000420853
3.14313e-05
0.000172032
0.000318633
0.000431097
0.000492617
0.000521385
0.00053303
0.000534062
0.000521729
0.000489997
0.000433539
3.23145e-05
0.00016192
0.000299355
0.00040413
0.000465368
0.00049916
0.000518737
0.000528002
0.000522078
0.000493698
0.00043752
3.33525e-05
0.000153838
0.000283056
0.00038054
0.000439841
0.00047621
0.000501648
0.000518318
0.000519696
0.000498157
0.000449589
3.42999e-05
0.000146881
0.00026913
0.000360401
0.000417384
0.000455137
0.000485018
0.000508211
0.000516918
0.000501506
0.000454458
3.5009e-05
0.000139972
0.000256437
0.000342975
0.000398119
0.000436888
0.000470299
0.000498912
0.000513569
0.000501636
0.000452404
3.56096e-05
0.000133276
0.000244791
0.00032772
0.00038158
0.000421303
0.000457669
0.000490738
0.000509979
0.000500779
0.00045471
3.60938e-05
0.00012732
0.00023448
0.000314409
0.000367314
0.000407985
0.000446969
0.000483888
0.000506942
0.000499845
0.000453823
3.63363e-05
0.000121577
0.000225002
0.000302633
0.000355018
0.000396749
0.000438192
0.000478659
0.000505237
0.000500214
0.000455689
3.63676e-05
0.000115466
0.000215653
0.000291854
0.000344316
0.000387335
0.000431216
0.000475139
0.000505189
0.000502343
0.000460422
3.61127e-05
0.000109472
0.000206662
0.000281901
0.000334818
0.000379309
0.000425664
0.000473138
0.000506958
0.000506492
0.000464385
3.55503e-05
0.000103248
0.000197586
0.000272332
0.000326125
0.000372312
0.000421211
0.000472456
0.000510643
0.000513032
0.000471177
3.47119e-05
9.48897e-05
0.000185875
0.000260883
0.000316261
0.000364656
0.000416658
0.000472008
0.000515488
0.0005217
0.000480579
3.34067e-05
8.52922e-05
0.000171058
0.00024569
0.000301736
0.000349972
0.000401078
0.000457584
0.000506315
0.000520292
0.000487407
3.16085e-05
7.44455e-05
0.000152681
0.000225896
0.000281974
0.000328262
0.000374281
0.000425155
0.000473031
0.000494588
0.000477986
2.92723e-05
6.25954e-05
0.000130541
0.000200458
0.000256029
0.000299655
0.000338256
0.000377869
0.00041656
0.000439546
0.000439509
2.6322e-05
5.03039e-05
0.000105442
0.000169007
0.000223001
0.000264185
0.000295742
0.000322716
0.000346808
0.000362053
0.000367182
2.27007e-05
3.86596e-05
8.00012e-05
0.000133324
0.000183137
0.000221839
0.000248626
0.000266286
0.000277407
0.000281306
0.000279573
1.82491e-05
2.78109e-05
5.58878e-05
9.66906e-05
0.000138535
0.000172979
0.000196685
0.000210069
0.000214853
0.000212102
0.000203834
1.28405e-05
2.56531e-05
5.00401e-05
7.47323e-05
0.000100417
0.000122893
0.000139572
0.000149576
0.000153029
0.000150386
0.000142762
5.50755e-05
0.000250088
0.000304683
0.000423012
0.000507145
0.000540858
0.000560838
0.000557974
0.00054017
0.000493562
0.000424191
3.97352e-05
0.000143221
0.000199143
0.000259017
0.00032482
0.000406615
0.000558712
0.000604222
0.000588406
0.000536517
0.000454513
3.49931e-05
0.000103523
0.000160155
0.000207382
0.000257955
0.000313206
0.000452394
0.000627217
0.000637902
0.000588546
0.000500996
3.1637e-05
9.15682e-05
0.00013977
0.000180244
0.000222835
0.000269058
0.000370636
0.000610566
0.000689146
0.000651587
0.000567091
2.73555e-05
9.94951e-05
0.000132928
0.000164954
0.000200365
0.000240791
0.000323065
0.000530782
0.000724871
0.000717976
0.000632317
3.15582e-05
0.000119936
0.000138923
0.000159253
0.000185857
0.000220093
0.00028944
0.000461278
0.000693061
0.000778423
0.000702257
3.68719e-05
0.000151108
0.000157102
0.000162826
0.000178261
0.000205029
0.000263915
0.000407374
0.000630281
0.000792106
0.000776128
4.16939e-05
0.000191347
0.000188106
0.000175938
0.000177247
0.000195073
0.00024479
0.000366926
0.000568262
0.000757729
0.000810656
4.52826e-05
0.000231809
0.000230194
0.000198874
0.000182549
0.000189535
0.000230458
0.000335842
0.000514118
0.000703574
0.000799644
4.75008e-05
0.000257458
0.000275365
0.000230625
0.00019406
0.000188005
0.000219871
0.000311251
0.000468087
0.000644629
0.000757879
4.87761e-05
0.000274574
0.00031754
0.000268897
0.000211665
0.000190304
0.000212264
0.000290982
0.000428328
0.000587062
0.000700671
4.95758e-05
0.000287588
0.000354026
0.000310234
0.000234731
0.000196447
0.000207665
0.0002746
0.000394474
0.000534334
0.000637548
4.97988e-05
0.000298111
0.000383886
0.000351128
0.000262388
0.000206401
0.000205967
0.000261429
0.000365253
0.000486831
0.000574908
4.93933e-05
0.000303557
0.00040536
0.000388458
0.000293474
0.000220225
0.000207213
0.00025105
0.000339645
0.00044381
0.000517263
4.84538e-05
0.00030146
0.000417977
0.000419428
0.000325946
0.000237606
0.000211691
0.000243792
0.00031767
0.000405174
0.000465563
4.68693e-05
0.000294115
0.000420946
0.000441702
0.000357241
0.000257966
0.000219664
0.000239981
0.0002994
0.000370876
0.000418951
4.46154e-05
0.000282888
0.000413468
0.000452893
0.00038414
0.000280218
0.000231433
0.000240371
0.000285367
0.000341121
0.000377454
4.16609e-05
0.000267278
0.000397223
0.000447861
0.000403281
0.000302642
0.000247394
0.000246249
0.000276909
0.000316821
0.000341301
3.80443e-05
0.000247234
0.000372917
0.000424821
0.000409789
0.000324578
0.000268951
0.000260065
0.000276427
0.000299824
0.000311202
3.38401e-05
0.000222832
0.000342115
0.000391866
0.000395979
0.000349345
0.000299754
0.000285533
0.000287154
0.000292572
0.000289364
2.91836e-05
0.000191527
0.000307108
0.000355047
0.000372151
0.000366329
0.00033314
0.000312723
0.000298905
0.000286507
0.000268128
2.57029e-05
0.000184755
0.000270276
0.000307343
0.000321487
0.000318229
0.000270334
0.000237033
0.000206584
0.00017593
0.000142235
1.59276e-05
0.000106154
0.000121304
0.000107289
9.31537e-05
7.91304e-05
6.86018e-05
6.10633e-05
5.50042e-05
4.98623e-05
4.51182e-05
9.28701e-06
1.06171e-05
1.23593e-05
1.50701e-05
1.90138e-05
2.39716e-05
2.95839e-05
3.52347e-05
4.02398e-05
4.40044e-05
4.6104e-05
1.8005e-05
1.71381e-05
1.59628e-05
1.40437e-05
1.04412e-05
5.8325e-06
6.19616e-06
6.51655e-06
7.40142e-06
0.000117183
8.65216e-05
5.66391e-05
3.63532e-05
2.5558e-05
2.10728e-05
2.61655e-05
2.44576e-05
2.42238e-05
0.000236271
0.000180921
0.00011842
7.21297e-05
4.52984e-05
3.30166e-05
3.732e-05
3.4742e-05
3.80399e-05
0.000343802
0.000271082
0.000177634
0.000105994
6.49813e-05
4.65571e-05
4.98923e-05
4.47486e-05
5.15245e-05
1.84984e-05
1.84527e-05
1.81844e-05
1.83057e-05
1.77393e-05
1.6924e-05
1.58918e-05
1.43593e-05
1.17673e-05
0.000141796
0.000158526
0.000166434
0.00015226
0.000131071
0.000109558
7.78741e-05
5.04809e-05
3.17815e-05
0.00028285
0.000311471
0.000316326
0.000293827
0.000256888
0.00021605
0.000158745
0.000102631
5.97956e-05
0.000401088
0.000433136
0.000431085
0.000410072
0.000371701
0.00031778
0.000233571
0.00014873
8.48997e-05
0.000195637
0.00022971
0.000229761
7.32253e-05
0.000430033
0.000229339
8.8392e-05
0.000229468
0.000229409
0.00023388
0.000423594
0.000229521
0.000119321
0.000187004
0.000123826
0.000228725
0.00016304
7.33943e-05
0.000228718
0.000228574
0.000229689
2.98603e-05
0.000229988
0.000254489
0.000229339
0.000190845
0.000127069
8.89148e-05
0.000465563
0.000557936
0.000144874
0.000235968
0.000111513
0.000229425
0.000241073
0.000229671
0.000240952
0.000229337
9.4357e-05
0.000229339
2.15402e-05
0.000229465
0.000116309
0.000229966
0.000440924
5.8603e-05
5.17512e-05
0.000108015
0.000239923
0.000229414
0.000556155
0.000229307
0.000583577
0.00011555
0.000229371
0.000229468
2.93267e-05
0.000229304
0.000457183
0.000132863
2.46663e-05
0.00051572
0.000488927
0.000161599
2.92578e-05
0.000228555
0.000662395
0.000230035
0.000229712
0.000233302
0.000189598
0.00023422
6.06485e-05
0.000246711
0.000156298
0.000232314
2.24873e-05
0.000229698
0.0001376
0.000467864
0.0006374
0.000137832
0.00022927
0.000229788
0.000247435
6.13794e-05
0.00038719
0.000389727
4.52864e-05
0.000269241
0.000229484
0.000229271
2.36427e-05
0.000234026
0.000471851
0.000125642
0.000120589
0.000237455
4.38922e-05
0.000237501
0.000253474
0.000112772
0.000230136
0.000236583
4.8894e-05
0.000229514
0.000181514
0.000229868
0.000109373
0.000236341
0.000229342
0.00022952
0.00023121
6.9904e-05
7.74829e-05
0.000229037
0.000229396
0.000228901
0.000229269
0.000229205
6.7568e-05
0.00024329
0.000263415
0.000190076
5.37436e-05
0.000215175
0.000795602
0.000176216
0.000146174
0.000120926
0.000229232
0.000128939
0.00010847
0.000232833
0.000229787
0.000231777
2.33029e-05
0.000104838
0.000550753
0.000244759
0.000122668
0.000231412
0.000242624
0.000167922
0.000229406
3.88609e-05
0.000110267
0.000229874
0.00023605
0.000228937
0.000228962
0.000229166
4.03537e-05
0.000242901
7.40446e-05
6.03997e-05
6.85351e-05
3.02082e-05
0.000169636
0.000228848
0.00021725
4.83035e-05
0.000233733
0.000229161
0.0006798
0.000114727
5.67004e-05
0.000242585
0.000235397
2.8448e-05
0.000143208
0.000158612
0.00022247
0.000229617
0.000235211
0.000220374
0.000155515
3.93964e-05
0.000438854
0.000199748
0.000229565
2.72858e-05
0.000229934
0.000143873
0.00022928
0.000106279
0.000229087
0.000228836
0.000229639
0.000172843
0.000109352
0.000198125
0.000228533
2.07036e-05
0.000229747
0.000229058
0.000229581
4.40104e-05
0.000117338
0.000230001
3.38426e-05
0.000229528
0.000110919
0.000140983
0.00022983
0.000396681
0.000233095
0.000146297
0.000229492
0.000228717
0.000309853
0.000228995
0.000175392
0.000238975
0.00022928
0.00030874
0.000229371
5.03702e-05
0.000229092
8.31906e-05
7.26551e-05
6.59953e-05
0.000116989
7.66345e-05
0.000193119
0.000229307
0.000108536
0.000114644
0.00011144
0.000308982
3.30696e-05
0.000228498
0.000228991
0.000244296
3.93318e-05
0.000252008
0.000674488
0.000229889
0.000229546
0.000229495
5.07689e-05
0.000191057
0.000236699
1.80051e-05
0.000237354
4.95875e-05
0.000229359
0.000141642
0.000196791
0.000821929
0.00014153
0.000311601
0.000247834
0.000228633
0.000234066
0.000229539
0.000229417
0.000229298
4.57153e-05
0.00022919
0.000123848
0.000188041
0.000228199
0.000229593
0.000229338
5.21852e-05
0.000231867
0.000234003
0.000159543
0.000179829
0.00019351
0.000229135
0.000229533
5.15591e-05
0.000229068
0.000228937
0.000185311
0.00022917
0.000238406
4.83099e-05
0.000236125
0.000229776
0.000639617
0.00063565
0.000233649
0.000229073
0.000359122
0.000229695
0.000238144
0.000120008
0.000229822
0.00010075
0.000246994
8.05507e-05
0.000229998
0.000229524
0.000236198
0.000229559
0.000240661
0.000187678
0.000229163
5.95947e-05
0.000242767
0.000555757
0.00022933
0.000236505
0.000229699
0.00023928
2.67536e-05
0.00022921
5.55515e-05
0.000229572
0.000234197
0.000114947
2.64713e-05
0.000231525
0.000172866
6.3678e-05
0.00022876
0.000239481
0.000229009
0.000500874
0.00022895
0.000192384
0.000114262
0.000235913
0.000229174
0.000208028
0.000228208
0.000657527
0.000231681
0.000488325
1.98507e-05
0.000229953
9.8273e-05
0.000231574
6.6846e-05
0.00022965
0.000229238
0.00023871
4.91222e-05
0.000298559
0.000229472
0.000108682
0.000190375
0.000241341
9.23859e-05
0.000229038
0.000205232
0.000863951
5.66605e-05
0.000236631
0.000179908
0.000229292
0.000106018
0.000230037
7.08559e-05
0.000206725
0.000229963
0.00071498
0.00013614
0.000185358
0.000229399
0.000229325
0.000229696
5.09505e-05
0.00016739
5.87324e-05
6.38301e-05
0.000258951
0.00022917
0.000114957
0.000225396
0.000192227
0.000113036
0.000229786
0.000152689
0.000240987
0.000229016
0.000228886
0.000533895
0.000228999
3.72396e-05
0.000229278
0.000197975
0.000689465
5.93646e-05
0.000192764
0.000190585
4.73862e-05
0.000229177
4.46754e-05
0.000186104
0.000250402
0.000696731
2.92635e-05
0.000229249
0.000228902
0.000229885
8.34105e-05
4.58746e-05
0.000228992
0.00022999
0.00012365
9.29355e-05
2.45052e-05
0.000104931
0.000134496
0.000229517
0.000500816
0.00023791
0.000228682
0.000117187
0.000119185
4.8989e-05
0.000234008
0.000109432
0.000254283
0.000182845
4.93654e-05
0.000320118
0.000150849
8.32688e-05
0.000110289
0.000227356
0.000235493
0.000245524
7.42719e-05
0.000180088
3.73186e-05
0.000229247
3.7591e-05
0.000208042
0.000228638
0.000233279
6.51761e-05
0.000303962
0.000520903
0.000189419
0.000230039
0.000236663
0.000376792
8.44747e-05
5.93242e-05
0.000232751
7.68724e-05
0.000200755
2.52334e-05
0.0002288
4.06548e-05
0.000229172
0.000229735
0.000229336
5.13002e-05
9.40695e-05
6.34061e-05
0.00014537
3.20504e-05
8.17255e-05
0.000229632
0.00022878
0.000823254
0.000182349
0.00023412
0.000236316
4.13734e-05
4.5302e-05
2.96835e-05
2.93526e-05
0.000231618
0.000211906
5.25187e-05
0.000229135
2.45738e-05
0.000234695
0.000229663
0.000229162
8.05638e-05
3.60769e-05
0.000229005
0.000229176
0.000229743
0.000260452
2.6254e-05
0.000229909
4.12833e-05
0.000355311
0.000156603
6.39068e-05
0.000228748
3.69618e-05
0.000229059
0.000234187
0.000229315
0.00012792
0.000149594
0.000228552
0.000193835
0.000169012
0.00023336
0.000223242
0.000208089
0.00022944
0.000229421
0.000236261
7.2883e-05
5.68664e-05
0.000231899
9.95376e-05
0.000229766
0.000453547
0.000104834
4.55184e-05
0.000108599
0.0002533
0.000663601
7.21103e-05
0.000193608
0.000229151
0.000184435
0.000228861
0.000229763
0.000229153
0.000229607
0.000233824
0.000510986
0.000229345
0.000228809
0.00016001
0.000229168
4.17275e-05
0.000241183
0.000204029
0.000176426
4.70572e-05
0.000229997
0.000229296
0.000229945
1.9732e-05
3.60751e-05
0.000229306
0.000229306
0.000189975
0.000229837
7.94428e-05
0.000229785
0.000831602
0.000237094
3.13202e-05
9.01829e-05
0.000131926
6.55912e-05
0.000483083
0.000229361
0.000231987
0.000235573
0.000229767
6.53693e-05
2.45459e-05
0.000223802
0.000129307
0.000149351
8.93152e-05
0.000229343
0.000229848
0.000229734
0.000194956
0.000717993
8.40195e-05
0.000229474
0.000229353
0.000639858
0.000231187
9.63434e-05
0.000139934
0.000153684
0.000296369
0.000229225
8.87232e-05
0.000229274
7.23783e-05
0.000229606
0.000160997
0.000151021
0.000234883
2.71832e-05
0.00013261
0.00022995
0.000230001
0.000465359
0.000229068
0.000183669
9.86744e-05
7.81506e-05
0.000183219
4.84999e-05
0.000154814
0.000231504
0.000229203
0.00022924
0.000136983
5.32227e-05
0.000113079
0.000228552
0.000229362
9.0233e-05
0.000229253
0.000237127
0.000235874
0.000234183
0.000110274
5.48831e-05
7.85618e-05
0.000159975
0.00023366
0.00023975
0.000228622
0.000150869
0.000232182
0.00022917
0.000194075
0.000399211
0.000228965
0.000229004
2.31961e-05
0.00023015
0.000228746
0.000147675
0.000229776
0.000234641
9.67801e-05
8.41429e-05
0.000158701
0.000177314
0.000160258
7.0644e-05
0.000357184
7.30958e-05
0.000108401
0.000180199
5.2857e-05
7.14325e-05
0.000128939
0.000229768
0.000230267
0.00011329
0.000230321
0.000229221
0.000244791
0.000208114
0.000118023
0.000190064
0.000193065
0.00024927
0.000229148
0.000204543
0.000229504
0.000228924
0.000236625
7.83461e-05
0.000232189
0.000232529
0.00023081
0.000229702
0.000116384
6.22798e-05
0.000295737
0.000232395
0.000229655
0.000189826
0.000154954
0.000237776
0.000168877
0.000231998
0.000167197
0.000460954
0.000229195
7.04256e-05
0.000229922
0.000116351
0.0001291
0.000106994
0.000164816
0.000215455
0.000246548
0.000229823
9.98951e-05
0.000182529
4.80046e-05
0.000782433
0.000229012
0.000233884
0.000229809
0.000161161
0.000229589
4.34793e-05
0.000229533
0.000229315
0.000229086
0.000127019
6.50401e-05
0.000229544
0.000130374
0.000229239
0.000113325
0.000169783
0.000231248
0.000108391
1.65798e-05
7.9605e-05
0.000236572
0.000198896
0.000139106
0.000121183
0.000124532
8.53071e-05
0.000229201
0.000149706
0.000229285
0.000231468
5.17254e-05
0.000193375
3.58976e-05
0.00018691
0.000230992
0.000234879
0.000229223
5.52924e-05
0.000229616
0.000989883
0.00011031
0.000811028
0.000234441
0.000138846
0.000141632
0.000176291
0.000243301
0.000123505
3.77353e-05
6.07378e-05
0.000229404
0.000185482
0.000144781
0.000229506
4.36025e-05
0.000119749
0.0002479
0.00016556
0.00022934
0.000233204
0.000235106
0.000131481
0.000236791
0.000191765
0.000229619
0.000116424
0.000234755
8.40742e-05
7.20122e-05
0.000348175
0.000109689
0.000228823
0.000271207
6.62597e-05
0.000229207
0.000189332
0.000188167
7.96712e-05
0.000247908
2.96704e-05
0.000243828
7.80847e-05
9.02521e-05
0.000254764
0.000228887
0.00024735
0.000229136
9.00958e-05
2.26983e-05
0.000230041
0.000229237
0.000252842
0.000355886
0.00048965
0.00015472
0.000229633
0.000146985
0.000251297
0.000229515
0.000229604
0.000229858
0.000229263
0.00023574
0.000160203
4.45451e-05
0.000105557