/*--------------------------------*- C++ -*----------------------------------*\
| =========                 |                                                 |
| \\      /  F ield         | OpenFOAM: The Open Source CFD Toolbox           |
|  \\    /   O peration     | Version:  3.0.1                                 |
|   \\  /    A nd           | Web:      www.OpenFOAM.org                      |
|    \\/     M anipulation  |                                                 |
\*---------------------------------------------------------------------------*/
FoamFile
{
    version     2.0;
    format      ascii;
    class       surfaceVectorField;
    location    "0.402849";
    object      Uf;
}
// * * * * * * * * * * * * * * * * * * * * * * * * * * * * * * * * * * * * * //

dimensions      [0 1 -1 0 0 0 0];

internalField   nonuniform List<vector> 
32369
(
(6.07727 -1.45966 -4.54768e-20)
(5.58572 -2.02734 3.48848e-19)
(6.40497 -0.580645 -5.82506e-19)
(5.60067 -1.25887 1.07855e-19)
(5.40457 -1.83228 2.7381e-19)
(5.51886 -0.712935 1.02009e-18)
(5.34082 -1.0724 1.0849e-20)
(5.24986 -1.55325 -1.30108e-21)
(5.32072 -0.769093 -1.38858e-21)
(5.11726 -0.889553 8.19883e-20)
(5.09221 -1.28553 3.51094e-20)
(5.22915 -0.697958 8.5228e-20)
(4.89414 -0.730717 1.48062e-19)
(4.9161 -1.05253 1.30177e-19)
(5.05902 -0.590947 -7.69005e-20)
(4.68095 -0.603342 6.40079e-20)
(4.72615 -0.861364 2.0647e-20)
(4.83869 -0.490433 -1.32227e-19)
(4.48295 -0.502505 5.43262e-20)
(4.53617 -0.710083 4.22565e-20)
(4.61634 -0.403063 5.27868e-20)
(4.29716 -0.422057 2.02546e-20)
(4.35395 -0.591085 -8.00613e-20)
(4.41263 -0.331019 -6.66159e-20)
(4.12343 -0.360695 -3.89531e-20)
(4.18063 -0.497279 2.95159e-20)
(4.22013 -0.274302 4.1707e-20)
(3.96095 -0.316214 -9.52948e-20)
(4.01753 -0.426071 -3.14484e-21)
(4.04327 -0.234233 -5.76238e-20)
(3.86834 -0.385185 -4.64241e-20)
(3.88601 -0.218449 -6.72258e-20)
(3.78917 -0.300169 -1.67736e-20)
(4.97153 -2.56819 4.44101e-19)
(4.31289 -2.77097 5.96797e-19)
(5.00995 -2.13428 2.50838e-19)
(4.59346 -2.45656 -3.70292e-19)
(4.98173 -1.7619 -3.67031e-20)
(4.72084 -2.1378 -9.29949e-20)
(4.89046 -1.44464 -9.5149e-20)
(4.74431 -1.80821 -2.6478e-19)
(4.75347 -1.18153 -9.70863e-20)
(4.68856 -1.50686 2.04297e-19)
(4.591 -0.970379 -9.48225e-20)
(4.57848 -1.24763 -3.82409e-20)
(4.42049 -0.804158 -1.26692e-19)
(4.43803 -1.03391 2.15581e-20)
(4.2518 -0.674174 -7.92668e-20)
(4.28538 -0.861965 -2.99282e-20)
(4.08939 -0.573479 7.30732e-20)
(4.1309 -0.725079 -7.20597e-20)
(3.93549 -0.496336 1.28445e-19)
(3.97989 -0.618853 8.13497e-20)
(3.83945 -0.547104 6.27376e-20)
(3.7786 -0.446902 -1.295e-19)
(4.06577 -2.75233 1.81691e-19)
(3.49171 -2.81301 6.58945e-19)
(4.3287 -2.51222 -6.83051e-19)
(3.86855 -2.61323 -2.63836e-20)
(4.47556 -2.21225 -2.89137e-19)
(4.12112 -2.41987 -3.22766e-19)
(4.52975 -1.89673 -8.30024e-21)
(4.27904 -2.15457 -4.61199e-19)
(4.50559 -1.59592 2.73871e-19)
(4.34397 -1.86632 1.67686e-19)
(4.42365 -1.33049 6.63228e-20)
(4.33269 -1.58747 -5.15953e-20)
(4.30615 -1.10843 1.55585e-19)
(4.2651 -1.33794 5.50087e-20)
(4.17158 -0.928622 2.85574e-20)
(4.16252 -1.1255 2.15011e-20)
(4.03257 -0.785632 -7.88441e-20)
(4.04167 -0.95013 1.15076e-20)
(3.89691 -0.673872 4.13878e-20)
(3.91443 -0.810612 -6.49594e-20)
(3.79153 -0.706712 4.83345e-20)
(3.75136 -0.594432 -4.51269e-19)
(3.40721 -2.64154 4.4123e-19)
(3.06875 -2.67819 5.59619e-19)
(3.70635 -2.56606 2.23443e-19)
(3.36931 -2.56066 4.87024e-19)
(3.95024 -2.39319 -5.23656e-19)
(3.60285 -2.47798 -2.71958e-19)
(4.10689 -2.15391 -3.13117e-19)
(3.81193 -2.30966 2.46999e-19)
(4.17827 -1.88647 -1.08353e-19)
(3.95585 -2.08555 -4.3962e-19)
(4.17991 -1.62053 -7.71046e-20)
(4.02425 -1.83507 2.49566e-20)
(4.12997 -1.37606 -8.49708e-20)
(4.02692 -1.5861 1.92428e-20)
(4.04591 -1.16436 5.23927e-21)
(3.98258 -1.35687 -1.5333e-20)
(3.93993 -0.989988 3.10665e-20)
(3.90877 -1.15523 7.84066e-20)
(3.8237 -0.850704 -7.0583e-20)
(3.81586 -0.985238 2.94714e-20)
(3.71309 -0.853384 -4.47884e-20)
(3.69904 -0.738406 1.74256e-21)
(3.07226 -2.53625 6.10387e-19)
(2.86514 -2.55237 5.43324e-19)
(3.26239 -2.51032 0)
(3.07643 -2.45779 -2.25722e-20)
(3.47132 -2.42053 4.3386e-19)
(3.23375 -2.43273 0)
(3.66839 -2.26979 1.79182e-19)
(3.41967 -2.33463 4.81714e-19)
(3.81045 -2.06475 -3.54283e-19)
(3.58202 -2.17827 -2.08673e-20)
(3.88166 -1.82985 1.07742e-19)
(3.696 -1.97611 -4.91075e-19)
(3.88991 -1.5924 8.43723e-20)
(3.75442 -1.75226 5.33123e-20)
(3.85262 -1.37026 4.59063e-20)
(3.76206 -1.52873 1.57714e-19)
(3.78768 -1.17115 1.00813e-19)
(3.73036 -1.31911 0)
(3.70692 -0.999835 8.89463e-20)
(3.67311 -1.13007 1.31899e-19)
(3.59943 -0.977812 -3.78565e-20)
(3.6023 -0.855725 1.04375e-19)
(2.88255 -2.42452 -2.84707e-20)
(2.71504 -2.42663 -7.54553e-21)
(3.01454 -2.41287 -2.4738e-20)
(2.88328 -2.34563 -6.60286e-19)
(3.16552 -2.36147 0)
(2.98293 -2.34366 5.01858e-19)
(3.32197 -2.266 3.07681e-19)
(3.13438 -2.27713 0)
(3.46018 -2.118 -1.27889e-19)
(3.27551 -2.16911 3.42841e-19)
(3.56256 -1.92869 -5.81804e-19)
(3.39377 -2.01484 -5.15364e-19)
(3.62077 -1.71705 1.30505e-19)
(3.47674 -1.82746 1.00733e-19)
(3.63572 -1.5031 1.31731e-19)
(3.521 -1.62537 -3.81602e-20)
(3.61528 -1.30215 1.45621e-20)
(3.52928 -1.42502 2.73904e-19)
(3.57095 -1.12359 2.63898e-20)
(3.50999 -1.23821 -8.03924e-20)
(3.46649 -1.08019 -7.48226e-20)
(3.50162 -0.966397 7.31809e-21)
(2.72897 -2.32159 -5.70723e-19)
(2.60432 -2.32617 6.94075e-19)
(2.83036 -2.29658 -2.04091e-19)
(2.71082 -2.2385 -1.23124e-18)
(2.94714 -2.26368 5.52142e-19)
(2.80162 -2.24156 5.00459e-19)
(3.07483 -2.19601 0)
(2.91805 -2.18796 0)
(3.19676 -2.08672 2.77325e-20)
(3.03437 -2.10629 -2.89022e-19)
(3.29922 -1.93846 1.14445e-19)
(3.14225 -1.98655 1.45005e-19)
(3.37276 -1.76257 -3.98482e-20)
(3.23121 -1.83434 4.11867e-19)
(3.4143 -1.57365 9.20112e-20)
(3.29383 -1.66152 -2.36766e-19)
(3.42566 -1.38643 1.94461e-19)
(3.32902 -1.48155 1.84517e-19)
(3.41189 -1.21152 -1.81692e-19)
(3.33939 -1.30706 7.9669e-20)
(3.32633 -1.15597 -3.52699e-19)
(3.36736 -1.05383 -7.36597e-20)
(2.60227 -2.22541 4.02065e-19)
(2.4834 -2.24834 6.97327e-19)
(2.6712 -2.1986 -6.56842e-19)
(2.58411 -2.15035 -4.76972e-20)
(2.7683 -2.16645 0)
(2.64872 -2.1427 1.65963e-20)
(2.87248 -2.10983 -2.58667e-19)
(2.74401 -2.09776 -2.31317e-19)
(2.97632 -2.02284 -2.12443e-19)
(2.84165 -2.02865 -2.89103e-19)
(3.07117 -1.90389 4.23832e-19)
(2.93617 -1.92968 3.25435e-19)
(3.14968 -1.75799 2.79221e-19)
(3.02081 -1.8032 2.43988e-19)
(3.20681 -1.59539 -1.92119e-19)
(3.09008 -1.65633 1.56865e-19)
(3.24133 -1.42772 5.20727e-20)
(3.14091 -1.49794 -1.02566e-19)
(3.25551 -1.26487 8.34058e-21)
(3.1718 -1.33882 5.37728e-20)
(3.17893 -1.19757 -2.52432e-19)
(3.24171 -1.10764 6.49845e-19)
(2.48465 -2.14689 4.99755e-19)
(2.37427 -2.17447 -4.51157e-19)
(2.53903 -2.10953 5.5726e-19)
(2.46523 -2.06723 5.04888e-19)
(2.61837 -2.07587 -1.7857e-19)
(2.51699 -2.05428 3.67827e-19)
(2.70559 -2.02393 -2.55714e-19)
(2.59646 -2.01154 -5.78391e-19)
(2.79453 -1.94818 1.80988e-19)
(2.67973 -1.9488 0)
(2.8797 -1.84696 1.5185e-19)
(2.76263 -1.86215 4.71491e-19)
(2.95622 -1.72306 1.15666e-19)
(2.8409 -1.75279 -3.61761e-19)
(3.01988 -1.58272 2.24691e-19)
(2.91083 -1.6253 4.41973e-19)
(3.06801 -1.43386 -1.44359e-19)
(2.96949 -1.48527 -1.57405e-20)
(3.10038 -1.28442 -1.3595e-19)
(3.01372 -1.34051 -1.22187e-19)
(3.03574 -1.20688 1.53725e-19)
(3.111 -1.13522 0)
(2.38439 -2.07175 -5.43426e-19)
(2.28547 -2.10916 -4.5928e-19)
(2.42337 -2.02782 2.59521e-19)
(2.36186 -1.99175 -4.66781e-20)
(2.48899 -1.99198 8.55119e-20)
(2.4 -1.97355 3.52383e-19)
(2.56293 -1.94207 -3.82699e-19)
(2.46721 -1.93039 -3.47464e-19)
(2.63979 -1.87245 2.43596e-19)
(2.53893 -1.87052 0)
(2.71597 -1.78188 4.26401e-20)
(2.61213 -1.79088 6.02591e-19)
(2.78831 -1.6724 -1.22032e-19)
(2.68418 -1.6924 -5.35042e-19)
(2.85357 -1.54816 2.10893e-19)
(2.75251 -1.57841 2.12415e-19)
(2.90862 -1.41426 -8.34221e-21)
(2.81471 -1.45256 -1.63307e-19)
(2.95097 -1.27612 1.36454e-19)
(2.86727 -1.32064 2.03716e-19)
(2.90089 -1.19872 -1.42931e-19)
(2.96934 -1.13379 -2.40572e-20)
(2.29529 -2.00763 -1.15205e-21)
(2.2078 -2.05587 1.62637e-19)
(2.31964 -1.95377 3.87987e-21)
(2.26583 -1.92647 -2.65408e-19)
(2.37342 -1.91437 0)
(2.29268 -1.90035 2.06856e-19)
(2.43649 -1.86416 0)
(2.3502 -1.85409 -2.30384e-19)
(2.50362 -1.79732 2.9602e-19)
(2.41274 -1.79424 1.79631e-19)
(2.57225 -1.71293 1.33851e-19)
(2.47818 -1.71786 3.31334e-19)
(2.64034 -1.61275 -2.8098e-19)
(2.54494 -1.62586 -2.54338e-19)
(2.70545 -1.50006 -1.33192e-19)
(2.61134 -1.521 1.75228e-19)
(2.76475 -1.37879 1.5609e-20)
(2.67558 -1.4059 -5.39981e-19)
(2.81614 -1.25382 -8.34008e-21)
(2.73414 -1.28495 4.02806e-19)
(2.77535 -1.17319 -5.72398e-19)
(2.85203 -1.12489 -1.90456e-19)
(2.20378 -1.95301 -6.80769e-20)
(2.12198 -1.99868 3.97284e-19)
(2.21879 -1.88668 -4.15735e-20)
(2.16727 -1.86289 -3.07174e-19)
(2.26461 -1.8417 2.10043e-20)
(2.18829 -1.82974 2.10855e-19)
(2.31993 -1.78895 -9.6289e-20)
(2.23954 -1.77973 -1.3318e-19)
(2.37992 -1.72227 1.98864e-19)
(2.29564 -1.71836 1.80518e-19)
(2.44289 -1.64085 0)
(2.35559 -1.64284 0)
(2.50768 -1.54639 1.56809e-19)
(2.41868 -1.55422 0)
(2.57257 -1.44167 -1.6504e-19)
(2.4839 -1.45513 2.58299e-20)
(2.63513 -1.32972 -2.18054e-19)
(2.55 -1.34764 -2.80274e-19)
(2.69316 -1.214 1.43164e-20)
(2.61381 -1.23465 7.06991e-19)
(2.66264 -1.12814 -3.89526e-19)
(2.73994 -1.09265 -1.95398e-19)
(2.11115 -1.89503 2.27501e-19)
(2.03619 -1.93755 8.875e-21)
(2.11917 -1.81953 -4.10429e-20)
(2.07082 -1.79697 -6.33514e-21)
(2.15936 -1.76979 9.41563e-20)
(2.0866 -1.75814 6.62011e-20)
(2.20921 -1.71397 1.08764e-19)
(2.13282 -1.70458 2.19665e-21)
(2.26429 -1.64599 0)
(2.18425 -1.64094 -1.50772e-19)
(2.32358 -1.56536 0)
(2.24067 -1.5647 1.16857e-19)
(2.38658 -1.47386 -1.34414e-19)
(2.30186 -1.47729 0)
(2.45206 -1.37403 -6.7017e-20)
(2.3672 -1.38146 -4.40046e-21)
(2.51776 -1.26795 5.78791e-19)
(2.43561 -1.279 1.88206e-21)
(2.58092 -1.15669 4.98907e-19)
(2.5039 -1.1715 4.97361e-19)
(2.55762 -1.0695 -1.0271e-19)
(2.6313 -1.03278 -3.45203e-19)
(2.02537 -1.83551 -2.1407e-19)
(1.96012 -1.88929 -5.00559e-20)
(2.02352 -1.75115 9.32466e-20)
(1.97817 -1.73512 -2.59645e-19)
(2.05743 -1.69663 -2.10283e-20)
(1.98745 -1.68687 1.10769e-19)
(2.10248 -1.63726 -2.43267e-19)
(2.02902 -1.62784 -9.77866e-20)
(2.15405 -1.56694 -6.13328e-20)
(2.07695 -1.56046 -1.74559e-20)
(2.21136 -1.4855 1.29475e-19)
(2.13144 -1.48198 1.36925e-20)
(2.2742 -1.39507 1.32949e-19)
(2.19253 -1.3941 -7.42881e-20)
(2.34149 -1.29827 6.62522e-20)
(2.25965 -1.29995 1.49249e-19)
(2.41074 -1.19706 -1.31978e-19)
(2.33163 -1.20147 -1.99538e-19)
(2.47878 -1.09294 2.79e-20)
(2.40527 -1.09972 2.4491e-19)
(2.4646 -1.00401 -9.09201e-20)
(2.53833 -0.982443 3.26189e-21)
(1.93441 -1.78019 2.23572e-20)
(1.87633 -1.82937 4.8823e-19)
(1.92639 -1.68278 -2.83238e-19)
(1.88051 -1.66784 -5.41399e-19)
(1.95613 -1.62119 5.5272e-20)
(1.88698 -1.61108 -2.00169e-20)
(1.99805 -1.55677 1.20328e-19)
(1.92598 -1.54623 3.43985e-20)
(2.04779 -1.4828 5.41854e-20)
(1.97218 -1.47419 4.46411e-20)
(2.10494 -1.39926 -1.81457e-19)
(2.02665 -1.3923 -1.42654e-20)
(2.1695 -1.30865 -8.24267e-20)
(2.08972 -1.30284 -3.42254e-21)
(2.24035 -1.21393 -7.92196e-20)
(2.16074 -1.2095 0)
(2.31457 -1.11699 1.42575e-19)
(2.23798 -1.11467 -8.91377e-20)
(2.38848 -1.01837 2.33174e-19)
(2.31797 -1.01869 1.97558e-19)
(2.38407 -0.929033 -6.09441e-20)
(2.45428 -0.91267 1.26532e-19)
(1.84 -1.71692 1.94774e-19)
(1.79168 -1.75843 4.53241e-19)
(1.82743 -1.60833 -3.32818e-19)
(1.78238 -1.59233 -2.4277e-19)
(1.85444 -1.53985 -4.91532e-20)
(1.78642 -1.52781 -6.90892e-20)
(1.89472 -1.46977 -4.25164e-20)
(1.82341 -1.45698 8.38115e-22)
(1.94439 -1.39117 -1.71018e-20)
(1.8692 -1.37949 -1.15274e-19)
(2.00348 -1.30452 1.66039e-19)
(1.92568 -1.2932 1.61977e-19)
(2.0721 -1.21303 8.24247e-20)
(1.99326 -1.20144 1.2607e-19)
(2.14869 -1.12024 0)
(2.07077 -1.10887 -1.58826e-19)
(2.22951 -1.02809 -5.30899e-20)
(2.15532 -1.01848 3.46672e-20)
(2.30991 -0.936468 -3.42019e-20)
(2.24287 -0.929749 -1.75575e-20)
(2.31527 -0.847517 2.92977e-20)
(2.3824 -0.837764 2.60177e-20)
(1.74983 -1.64545 1.53029e-19)
(1.71188 -1.69299 2.66352e-19)
(1.7299 -1.52635 3.31751e-21)
(1.68548 -1.51501 -9.55654e-20)
(1.75321 -1.45055 -2.72412e-20)
(1.68587 -1.43835 2.47667e-20)
(1.79229 -1.37385 -6.25572e-20)
(1.72111 -1.35887 -1.36573e-19)
(1.84347 -1.28951 3.4771e-20)
(1.768 -1.27386 4.96997e-20)
(1.90694 -1.19892 1.23103e-19)
(1.82902 -1.18185 7.45106e-20)
(1.98247 -1.10643 -8.83543e-20)
(1.90429 -1.08748 5.16629e-20)
(2.06742 -1.01643 -1.45071e-19)
(1.99139 -0.996695 -1.59812e-19)
(2.15657 -0.930788 7.6515e-20)
(2.08541 -0.91286 9.86531e-20)
(2.24391 -0.848401 5.83776e-20)
(2.18139 -0.834329 1.37958e-20)
(2.26009 -0.762604 -3.67172e-21)
(2.32226 -0.761175 -1.29344e-21)
(1.65617 -1.57222 5.68229e-20)
(1.63093 -1.61546 2.26574e-19)
(1.63033 -1.43825 -8.41952e-20)
(1.58495 -1.4285 -2.34501e-19)
(1.65097 -1.35186 -6.57111e-20)
(1.58324 -1.33773 2.25763e-19)
(1.69052 -1.26608 -3.85975e-20)
(1.61853 -1.24727 -1.72858e-19)
(1.7458 -1.17429 8.68043e-20)
(1.66938 -1.15273 7.5032e-20)
(1.817 -1.07923 2.72763e-21)
(1.73867 -1.05423 -2.3088e-20)
(1.90299 -0.986658 0)
(1.82597 -0.958024 1.82598e-20)
(1.9991 -0.901689 5.65135e-20)
(1.926 -0.871733 -4.60702e-22)
(2.09809 -0.825558 4.13143e-20)
(2.03116 -0.798204 5.44338e-20)
(2.19293 -0.754943 -3.23788e-20)
(2.13563 -0.733417 -3.93661e-20)
(2.22004 -0.674808 1.00681e-20)
(2.27781 -0.681671 -1.78366e-19)
(1.55874 -1.48895 -1.62126e-20)
(1.54968 -1.52382 1.76938e-19)
(1.52784 -1.33884 6.79599e-20)
(1.48082 -1.32903 -1.40009e-19)
(1.54734 -1.23918 1.55874e-19)
(1.47971 -1.2205 1.98889e-19)
(1.59014 -1.142 -7.94684e-20)
(1.51814 -1.11625 -7.04489e-20)
(1.65352 -1.04143 -2.47311e-20)
(1.57765 -1.01036 3.72557e-21)
(1.73723 -0.94209 -1.02843e-20)
(1.66068 -0.905476 -2.23981e-20)
(1.8379 -0.851786 1.98671e-20)
(1.76459 -0.810536 1.89217e-20)
(1.94758 -0.776087 -8.80487e-21)
(1.88019 -0.734137 9.96106e-22)
(2.05668 -0.713985 -1.99491e-20)
(1.99657 -0.676523 -9.35402e-21)
(2.15755 -0.658916 -1.66346e-20)
(2.10739 -0.630063 -6.8414e-21)
(2.19549 -0.586129 1.51562e-20)
(2.24744 -0.600286 1.79002e-19)
(1.45829 -1.38927 8.40563e-20)
(1.46866 -1.41419 7.94578e-20)
(1.42388 -1.22107 -5.15278e-21)
(1.37409 -1.21087 7.04835e-21)
(1.44541 -1.10472 -9.49864e-22)
(1.37882 -1.07846 -1.60568e-20)
(1.49664 -0.993896 5.25495e-21)
(1.42673 -0.957393 -3.33089e-20)
(1.57451 -0.884478 1.52773e-20)
(1.50223 -0.840037 3.09649e-20)
(1.67654 -0.784043 3.76425e-21)
(1.60593 -0.732578 2.35149e-20)
(1.79514 -0.701861 9.15924e-22)
(1.73027 -0.646078 -2.09578e-20)
(1.91869 -0.641804 5.25145e-22)
(1.8617 -0.587451 4.72631e-22)
(2.03564 -0.599239 2.994e-21)
(1.98634 -0.552461 -9.15584e-22)
(2.13845 -0.563601 4.12922e-21)
(2.09824 -0.529247 2.75775e-20)
(2.18577 -0.50468 -1.33957e-20)
(2.22548 -0.523803 2.2655e-21)
(1.35483 -1.26829 1.09545e-20)
(1.38974 -1.27753 -1.68766e-19)
(1.32109 -1.07551 2.97541e-20)
(1.2648 -1.05758 3.34032e-20)
(1.3521 -0.939405 -3.74807e-20)
(1.29277 -0.898853 -7.08537e-21)
(1.42015 -0.814585 -2.57607e-20)
(1.35939 -0.761887 -1.2738e-19)
(1.52097 -0.699622 4.59619e-20)
(1.45993 -0.63746 1.51625e-20)
(1.64681 -0.605474 1.42544e-21)
(1.59016 -0.537584 1.5949e-19)
(1.78476 -0.540663 -2.37607e-20)
(1.73585 -0.470838 -2.64881e-20)
(1.91889 -0.504572 -8.13945e-22)
(1.87838 -0.440113 5.98104e-20)
(2.03797 -0.487306 1.72684e-20)
(2.0041 -0.433982 -6.91885e-20)
(2.13698 -0.474504 8.04104e-21)
(2.10931 -0.436852 1.65717e-20)
(2.19049 -0.433151 -4.67948e-20)
(2.21799 -0.450793 -1.97247e-20)
(1.24587 -1.08799 -3.53444e-19)
(1.34038 -1.073 -2.65454e-19)
(1.23672 -0.885286 2.47677e-20)
(1.20887 -0.854563 4.01291e-20)
(1.28521 -0.732859 -8.33533e-20)
(1.24451 -0.678123 0)
(1.38075 -0.599311 -1.31839e-19)
(1.34368 -0.527741 -9.16696e-20)
(1.51257 -0.489258 1.08979e-19)
(1.47821 -0.409366 2.45273e-19)
(1.66513 -0.414632 1.49115e-19)
(1.63531 -0.332905 -1.0712e-19)
(1.81709 -0.379207 4.8162e-20)
(1.79376 -0.301569 2.82519e-20)
(1.95298 -0.374763 9.24411e-21)
(1.93552 -0.306677 -9.56546e-20)
(2.06502 -0.386239 -8.64631e-20)
(2.05099 -0.331731 1.5572e-19)
(2.15275 -0.397253 -3.21959e-20)
(2.14021 -0.359648 -2.52596e-20)
(2.20668 -0.375088 -5.84749e-20)
(2.2209 -0.397734 -1.79609e-20)
(1.2139 -0.989369 9.74363e-20)
(1.3957 -0.731643 -2.76845e-19)
(1.17798 -0.698772 5.15181e-20)
(1.13049 -0.578157 -4.09882e-20)
(1.26698 -0.506961 0)
(1.30156 -0.38953 3.95216e-19)
(1.40818 -0.367204 2.21905e-19)
(1.44673 -0.267729 -4.37853e-19)
(1.57613 -0.27679 4.19926e-20)
(1.60533 -0.188921 -2.36666e-20)
(1.74619 -0.236971 -2.67973e-19)
(1.76727 -0.158265 -2.21723e-20)
(1.89815 -0.239372 -1.23807e-19)
(1.91425 -0.169646 3.70364e-19)
(2.02192 -0.26827 3.20487e-20)
(2.03515 -0.208657 -1.06454e-19)
(2.11591 -0.306321 2.61546e-19)
(2.12609 -0.259142 2.09687e-19)
(2.18413 -0.337539 -3.34107e-20)
(2.18947 -0.306038 3.46925e-20)
(2.2327 -0.335991 -2.41845e-20)
(2.2384 -0.342752 8.12836e-20)
(1.18775 -0.266744 -1.76563e-18)
(2.30501 0.0686394 -5.27583e-18)
(1.35681 -0.153462 2.44693e-19)
(1.55495 -0.421979 -1.4746e-18)
(1.49617 -0.0733795 5.20218e-20)
(1.61991 -0.32826 9.31389e-19)
(1.65062 -0.0351358 -5.90936e-19)
(1.72705 -0.207476 -1.21259e-18)
(1.80442 -0.0331319 2.22414e-20)
(1.84671 -0.13386 -1.63898e-19)
(1.94126 -0.0652904 4.61626e-19)
(1.96624 -0.113236 4.56992e-19)
(2.05214 -0.121121 4.25169e-19)
(2.07319 -0.133458 2.77372e-19)
(2.1362 -0.187296 6.81826e-20)
(2.15964 -0.178236 -4.1218e-20)
(2.19442 -0.251323 3.15761e-20)
(2.21978 -0.235268 1.7583e-19)
(2.23075 -0.300267 5.04177e-20)
(2.2527 -0.289568 -1.20108e-19)
(2.26575 -0.323815 5.2393e-20)
(2.25691 -0.321924 2.34168e-20)
(4.82406 -0.473976 4.16054e-19)
(4.8427 -1.33254 4.79678e-19)
(5.15521 -0.551018 3.40384e-19)
(4.48449 -0.80653 1.33462e-18)
(5.2452 -0.506902 7.9911e-20)
(4.81448 -0.512439 0)
(5.19731 -0.42962 -2.44429e-20)
(5.04226 -0.354796 -1.07144e-19)
(5.05107 -0.354588 -2.5145e-19)
(5.06412 -0.236791 -2.30029e-19)
(4.83456 -0.28928 -6.76138e-20)
(4.9481 -0.146327 -8.35926e-20)
(4.59406 -0.232968 -8.04287e-21)
(4.75038 -0.0905085 0)
(4.36989 -0.185902 -2.87887e-20)
(4.51733 -0.06024 1.29663e-19)
(4.1717 -0.154016 1.27836e-20)
(4.27736 -0.0385892 7.28892e-20)
(3.98895 -0.138345 -1.37596e-20)
(4.07251 -0.0284121 0)
(3.88961 -0.0395963 -1.54047e-20)
(3.81319 -0.152458 -1.29413e-20)
(4.03818 -1.41397 2.55583e-18)
(4.23635 -3.20679 -7.69819e-19)
(4.39031 -0.835497 1.02565e-18)
(4.13959 -1.84801 1.52759e-18)
(4.68552 -0.494529 -1.47143e-19)
(4.38788 -1.03538 -5.85812e-19)
(4.88584 -0.273937 -8.10445e-20)
(4.66218 -0.545624 4.19324e-19)
(4.95534 -0.114421 1.81515e-19)
(4.83325 -0.211234 2.05231e-19)
(4.88874 -0.00736233 6.672e-20)
(4.87663 0.0207697 7.05673e-20)
(4.70898 0.0510955 1.16738e-19)
(4.79369 0.158643 -1.20223e-19)
(4.46476 0.0737522 2.47707e-19)
(4.60452 0.219546 2.66399e-19)
(4.21801 0.0765947 6.6696e-20)
(4.34481 0.224723 -3.18044e-20)
(4.00497 0.0657895 0)
(4.08908 0.200993 -9.93044e-20)
(3.8832 0.166276 -4.04731e-20)
(3.79861 0.0231381 -5.93831e-20)
(4.30333 -3.42121 -1.19822e-18)
(4.46465 -4.09681 -9.98066e-19)
(4.19451 -1.98528 2.00759e-19)
(4.25693 -3.15571 8.65209e-19)
(4.36671 -1.10109 -6.65304e-20)
(4.24989 -1.978 -5.40069e-19)
(4.5852 -0.528823 7.12022e-19)
(4.41161 -1.11416 4.43533e-19)
(4.74119 -0.132346 1.0072e-19)
(4.59615 -0.48403 2.42868e-19)
(4.78929 0.135751 -8.98095e-20)
(4.71482 -0.025128 -1.6439e-19)
(4.71283 0.290953 -5.41009e-20)
(4.72441 0.28207 -4.96352e-20)
(4.5248 0.350947 6.52981e-21)
(4.61161 0.450584 -4.05527e-20)
(4.26556 0.342812 -2.09974e-19)
(4.39039 0.501258 -1.66176e-19)
(4.00281 0.304121 -1.45286e-19)
(4.10632 0.469788 -2.56891e-20)
(3.8625 0.40006 -3.01739e-20)
(3.77462 0.254482 4.88486e-20)
(4.4574 -4.02188 3.58791e-19)
(4.69099 -4.26526 1.16255e-18)
(4.32548 -3.20056 2.30526e-19)
(4.50109 -3.92633 -1.47919e-18)
(4.29324 -2.0213 -9.97492e-20)
(4.35757 -3.02506 -1.24915e-18)
(4.41583 -1.10214 -5.4767e-21)
(4.34545 -1.92352 3.55502e-20)
(4.55588 -0.417639 -7.25262e-21)
(4.45546 -0.994801 7.53811e-19)
(4.64394 0.0819607 -1.24872e-19)
(4.56597 -0.279967 -2.40964e-19)
(4.63293 0.411902 -5.4843e-20)
(4.6098 0.24915 -1.29805e-19)
(4.50733 0.584695 -2.16782e-19)
(4.54863 0.58862 3.65907e-19)
(4.28136 0.623802 9.03672e-21)
(4.37389 0.747634 -3.88778e-20)
(4.00108 0.571385 9.54263e-20)
(4.10355 0.755537 -1.61179e-20)
(3.82468 0.668334 9.71115e-21)
(3.73081 0.463937 5.74976e-21)
(4.702 -4.25456 -5.58436e-19)
(4.88399 -4.4663 -1.37078e-18)
(4.55549 -3.85614 -2.97209e-18)
(4.78076 -4.19345 1.13277e-20)
(4.43584 -3.00995 -1.36275e-18)
(4.61948 -3.71053 -1.29141e-18)
(4.39856 -1.88015 5.84335e-19)
(4.47849 -2.78501 5.51043e-20)
(4.46266 -0.914385 6.2743e-19)
(4.44202 -1.6824 6.64909e-19)
(4.52366 -0.158452 -2.69756e-19)
(4.47994 -0.709919 -6.28723e-19)
(4.52403 0.390372 2.40636e-19)
(4.49943 0.0619137 1.84031e-19)
(4.43072 0.731785 5.63151e-19)
(4.44608 0.611044 4.44632e-19)
(4.23694 0.876911 -5.91005e-20)
(4.29622 0.928853 -7.97801e-20)
(3.96578 0.860893 -1.07573e-19)
(4.04711 1.02852 1.20443e-19)
(3.75202 0.962619 -2.01896e-19)
(3.67145 0.720807 5.12005e-19)
(4.95226 -4.47622 -1.09044e-18)
(5.06787 -4.72138 -2.56025e-18)
(4.84075 -4.14368 1.82994e-18)
(5.04944 -4.43557 3.63047e-18)
(4.68266 -3.60327 -1.11851e-19)
(4.89686 -4.04827 -1.445e-18)
(4.55312 -2.68819 -3.78569e-20)
(4.72745 -3.40979 -1.65479e-19)
(4.47873 -1.55841 -4.59047e-19)
(4.56379 -2.40022 4.34549e-20)
(4.457 -0.559219 -3.02172e-19)
(4.47559 -1.26785 -4.93571e-19)
(4.41822 0.227529 3.87738e-19)
(4.41768 -0.266583 1.8297e-19)
(4.31649 0.772494 -1.54591e-19)
(4.32585 0.510042 4.23523e-19)
(4.13304 1.06825 8.46859e-20)
(4.16578 1.01977 -5.52997e-19)
(3.87524 1.13647 1.04896e-19)
(3.92499 1.2528 2.15005e-19)
(3.62831 1.24823 -3.81913e-19)
(3.58647 0.982817 -1.32161e-19)
(5.18056 -4.71078 1.56284e-18)
(5.2308 -4.9648 -2.1942e-20)
(5.10098 -4.41224 7.6653e-19)
(5.28541 -4.68052 3.93255e-18)
(4.9574 -3.94757 -1.62586e-18)
(5.14298 -4.33855 -2.93175e-18)
(4.76763 -3.24482 -9.60478e-20)
(4.97303 -3.79818 -1.1689e-18)
(4.59966 -2.22006 6.67693e-20)
(4.75957 -2.99165 -2.83456e-19)
(4.45583 -1.07409 -1.11242e-19)
(4.54732 -1.86609 1.2501e-18)
(4.33053 -0.0669002 1.90042e-19)
(4.37544 -0.706012 3.72383e-19)
(4.17778 0.696765 5.9523e-20)
(4.2008 0.286369 1.1642e-18)
(3.97268 1.17307 -5.0835e-19)
(3.99105 1.00324 -4.56695e-19)
(3.71291 1.36105 -1.57147e-19)
(3.73145 1.40006 3.66271e-19)
(3.44803 1.48995 -7.7189e-19)
(3.42639 1.30223 -1.23106e-19)
(5.37126 -4.94003 1.95521e-18)
(5.3752 -5.18674 2.76656e-18)
(5.31532 -4.67704 6.65371e-19)
(5.48182 -4.91236 2.05928e-18)
(5.18359 -4.25281 -2.65852e-18)
(5.33774 -4.61541 -3.14493e-18)
(4.99107 -3.64755 -1.46277e-18)
(5.17259 -4.12066 2.40324e-19)
(4.75043 -2.76392 7.18647e-19)
(4.94376 -3.43374 -1.09185e-18)
(4.50801 -1.61437 1.83159e-18)
(4.65707 -2.43509 -9.64066e-19)
(4.26624 -0.460234 1.25846e-18)
(4.36345 -1.20445 2.29951e-18)
(4.02226 0.504941 7.53119e-19)
(4.07331 -0.0454726 -2.33997e-19)
(3.76062 1.1736 3.24902e-19)
(3.77784 0.868578 -8.18624e-19)
(3.47682 1.50934 -2.60391e-19)
(3.47079 1.44296 -1.09977e-18)
(3.17398 1.67206 1.13681e-18)
(3.15509 1.57293 -4.28933e-19)
(5.5303 -5.15165 3.2264e-18)
(5.5014 -5.37944 2.6519e-18)
(5.48678 -4.92311 -1.5735e-18)
(5.6403 -5.12042 -2.19699e-19)
(5.35592 -4.53794 -5.85308e-19)
(5.48121 -4.87282 -1.18365e-18)
(5.15753 -3.98762 7.7733e-19)
(5.31586 -4.42056 3.48826e-18)
(4.89217 -3.22467 -2.84006e-18)
(5.07413 -3.80169 -7.29728e-19)
(4.57366 -2.1628 -1.05733e-18)
(4.74779 -2.93882 -2.11482e-18)
(4.21082 -0.928138 1.05108e-18)
(4.35568 -1.73725 2.36769e-18)
(3.84897 0.198911 -1.77209e-18)
(3.93849 -0.471542 -1.46452e-18)
(3.50111 1.05026 -2.21189e-18)
(3.52905 0.607129 7.72596e-19)
(3.18162 1.54858 2.11009e-19)
(3.15234 1.34517 -1.57963e-18)
(2.82577 1.69894 6.02675e-19)
(2.89675 1.71207 2.08755e-18)
(5.65575 -5.33433 -2.48386e-19)
(5.60671 -5.54546 2.71116e-18)
(5.61361 -5.1413 9.21692e-20)
(5.75428 -5.2953 -2.12616e-18)
(5.47456 -4.80023 2.42387e-18)
(5.57195 -5.10094 -1.77928e-18)
(5.26634 -4.30732 2.45623e-18)
(5.40057 -4.69908 2.89442e-18)
(4.9817 -3.61772 1.99474e-19)
(5.14365 -4.1527 7.11303e-19)
(4.59708 -2.65285 7.558e-19)
(4.78865 -3.38984 -1.8846e-18)
(4.1429 -1.43052 3.18383e-19)
(4.31661 -2.29742 2.54294e-18)
(3.65172 -0.208779 8.48501e-19)
(3.78299 -0.974394 -1.92681e-18)
(3.19633 0.789459 1.60531e-18)
(3.24628 0.216918 1.56481e-18)
(2.81058 1.43359 -1.28307e-18)
(2.77887 1.09896 -8.10002e-19)
(2.41109 1.58433 -2.23609e-18)
(2.49703 1.7187 2.07297e-18)
(5.73415 -5.48198 1.54293e-18)
(5.64861 -5.65264 3.48507e-19)
(5.69248 -5.32496 -4.04651e-18)
(5.81394 -5.45094 2.55337e-19)
(5.53552 -5.03091 -1.91363e-18)
(5.60994 -5.29171 -4.08652e-18)
(5.31062 -4.60592 1.36564e-18)
(5.42271 -4.94748 2.92433e-18)
(5.00286 -4.00305 -1.04559e-18)
(5.14448 -4.48272 -7.86108e-20)
(4.58007 -3.15211 -6.01017e-19)
(4.76379 -3.81773 -9.57188e-19)
(4.04081 -1.99753 8.77677e-19)
(4.23388 -2.86878 1.8068e-18)
(3.42505 -0.72366 -1.59433e-18)
(3.60864 -1.55759 -2.89144e-18)
(2.85357 0.381578 -9.54234e-19)
(2.94227 -0.304021 2.00477e-18)
(2.39582 1.15686 -1.60419e-18)
(2.37824 0.685537 6.85066e-19)
(1.96909 1.28624 -2.14436e-19)
(2.07556 1.56237 -5.35484e-19)
(5.77204 -5.59116 -1.09957e-18)
(5.6612 -5.74909 9.45051e-19)
(5.71399 -5.4743 6.68235e-19)
(5.80769 -5.56912 1.71735e-18)
(5.53326 -5.2308 -1.00903e-19)
(5.58914 -5.43653 -4.9986e-18)
(5.28996 -4.87715 1.80527e-18)
(5.37994 -5.16353 2.9352e-18)
(4.95842 -4.36885 1.33203e-19)
(5.07671 -4.78492 -1.42518e-18)
(4.50685 -3.63126 1.16161e-18)
(4.67289 -4.23629 -2.19226e-19)
(3.89949 -2.57994 -1.36429e-18)
(4.1093 -3.44111 8.76954e-19)
(3.1833 -1.3229 4.42677e-19)
(3.40002 -2.22786 -1.51617e-18)
(2.49522 -0.170213 3.6935e-18)
(2.6262 -0.942398 -2.44178e-18)
(1.97417 0.69811 1.93555e-18)
(1.97611 0.0954521 4.56489e-18)
(1.55992 0.780282 -2.19568e-18)
(1.66937 1.23207 4.97482e-19)
(5.75919 -5.67024 3.72409e-18)
(5.6443 -5.80024 3.66492e-18)
(5.67306 -5.58718 -3.47559e-18)
(5.74068 -5.64476 -2.01671e-18)
(5.47261 -5.39098 -2.88746e-18)
(5.51372 -5.54853 -1.91293e-18)
(5.20209 -5.11172 1.40574e-19)
(5.26799 -5.34052 7.09168e-19)
(4.83904 -4.70773 -1.94173e-18)
(4.93468 -5.04619 -1.96997e-18)
(4.35416 -4.11728 -6.9018e-19)
(4.49927 -4.618 -1.27577e-18)
(3.70642 -3.21863 9.85781e-19)
(3.92852 -4.00612 -1.05716e-19)
(2.92101 -2.02968 -4.23127e-18)
(3.16051 -2.99763 3.14432e-18)
(2.14015 -0.86406 -1.722e-18)
(2.33122 -1.69559 -4.63165e-18)
(1.55978 0.0505472 3.20389e-19)
(1.60622 -0.64721 2.53878e-18)
(1.16845 0.125401 -1.86611e-18)
(1.19179 0.666531 -2.51957e-19)
(5.69107 -5.70208 -1.10172e-18)
(5.5695 -5.79127 3.1825e-19)
(5.57178 -5.65421 -5.00185e-19)
(5.60468 -5.68215 -1.61095e-18)
(5.3437 -5.51324 1.36953e-18)
(5.36808 -5.62281 2.54508e-18)
(5.0422 -5.30464 -1.13661e-18)
(5.08973 -5.48246 -2.78251e-18)
(4.64978 -5.00061 -1.39964e-18)
(4.72651 -5.27247 1.76213e-18)
(4.14889 -4.5588 -8.94202e-19)
(4.26508 -4.9606 1.7423e-22)
(3.47611 -3.87544 1.54455e-18)
(3.68439 -4.50598 -1.00114e-18)
(2.64555 -2.82476 3.50898e-18)
(2.94194 -3.77086 3.04588e-18)
(1.84483 -1.63936 -3.96776e-19)
(2.13355 -2.59624 -9.37941e-19)
(1.21964 -0.716389 6.44771e-19)
(1.32877 -1.48506 1.55771e-19)
(0.86274 -0.669297 -5.18828e-19)
(0.85997 -0.0632575 1.43151e-18)
(5.55514 -5.69783 0)
(5.43883 -5.73499 -2.52308e-19)
(5.40051 -5.68462 1.17075e-18)
(5.3999 -5.67805 2.04966e-19)
(5.1442 -5.60091 -1.05161e-18)
(5.14757 -5.65933 3.23661e-18)
(4.81257 -5.46502 -3.82586e-19)
(4.84057 -5.59121 -3.9874e-18)
(4.39223 -5.25345 3.37376e-18)
(4.45547 -5.47146 1.87922e-18)
(3.87033 -4.93269 1.92839e-22)
(3.98468 -5.27045 -2.1317e-18)
(3.23063 -4.44985 -7.1468e-20)
(3.41889 -4.948 1.52099e-18)
(2.46628 -3.67713 -7.94636e-19)
(2.75061 -4.42929 -3.73732e-19)
(1.63954 -2.5942 -4.81774e-20)
(2.00659 -3.5287 -1.6068e-18)
(0.975117 -1.5719 -5.49779e-19)
(1.22451 -2.43334 7.86616e-19)
(0.723004 -1.54318 -6.24075e-19)
(0.660555 -0.878394 1.01731e-18)
(5.34968 -5.64525 -9.26308e-20)
(5.23731 -5.6214 1.04029e-18)
(5.15457 -5.66899 1.95356e-18)
(5.11989 -5.61822 -1.70199e-18)
(4.87017 -5.64928 1.0499e-18)
(4.84555 -5.64963 1.77083e-18)
(4.51696 -5.59679 -2.35353e-18)
(4.51612 -5.66329 -9.5227e-19)
(4.08882 -5.48914 -3.14325e-18)
(4.12393 -5.64573 -1.34356e-19)
(3.58184 -5.29215 -1.0064e-18)
(3.67095 -5.5643 -2.8347e-18)
(2.9901 -4.9522 1.6022e-18)
(3.16047 -5.37475 1.52227e-18)
(2.30401 -4.39369 -1.02784e-18)
(2.59041 -5.01011 -9.39296e-20)
(1.57087 -3.5525 -9.1714e-19)
(1.95679 -4.36887 6.88993e-19)
(0.952577 -2.54571 7.38062e-19)
(1.29401 -3.42998 9.30656e-19)
(0.802998 -2.49601 6.53666e-19)
(0.575914 -1.68077 -1.20445e-18)
(5.05884 -5.52994 -4.2626e-20)
(4.9399 -5.44414 1.26172e-18)
(4.82088 -5.59626 -2.20751e-18)
(4.74817 -5.4927 -1.66004e-18)
(4.51185 -5.65029 6.52801e-20)
(4.44871 -5.5873 9.45751e-20)
(4.15039 -5.69453 1.17453e-18)
(4.10807 -5.69607 -1.05298e-18)
(3.7387 -5.70407 4.67936e-19)
(3.73181 -5.79336 1.87395e-18)
(3.28155 -5.64132 -8.65724e-19)
(3.33037 -5.83856 -1.68033e-18)
(2.78051 -5.45264 0)
(2.91296 -5.7816 5.64563e-19)
(2.23047 -5.07005 1.10434e-18)
(2.47673 -5.55965 0)
(1.64082 -4.42106 2.20743e-18)
(2.01004 -5.10523 5.1659e-19)
(1.10687 -3.53643 3.0719e-19)
(1.50798 -4.33739 7.77375e-19)
(1.05349 -3.46244 -6.95822e-19)
(0.713359 -2.63744 -4.98063e-19)
(4.65869 -5.34255 1.6355e-19)
(4.51808 -5.20793 -6.45119e-19)
(4.38003 -5.46139 3.91068e-19)
(4.25832 -5.29998 1.80089e-19)
(4.05634 -5.60339 -8.91087e-19)
(3.9359 -5.47109 -8.67728e-19)
(3.70917 -5.75947 -6.79768e-19)
(3.60634 -5.68648 -4.7436e-19)
(3.348 -5.89534 1.62803e-19)
(3.28376 -5.90238 7.61547e-19)
(2.98279 -5.96587 -5.1882e-19)
(2.97968 -6.06404 -6.93812e-19)
(2.61843 -5.9145 6.25729e-19)
(2.70202 -6.11515 7.0412e-20)
(2.24595 -5.67278 -5.55497e-19)
(2.44381 -5.9983 -3.04087e-19)
(1.83727 -5.1759 -8.35228e-19)
(2.1755 -5.66471 2.77479e-19)
(1.42124 -4.42017 -6.35226e-19)
(1.85219 -5.06557 1.31723e-19)
(1.4953 -4.29722 -1.78621e-19)
(0.962959 -3.49385 -5.33384e-19)
(4.12938 -5.08108 -7.02759e-19)
(3.9132 -4.93096 -6.63788e-19)