/*--------------------------------*- C++ -*----------------------------------*\
| =========                 |                                                 |
| \\      /  F ield         | OpenFOAM: The Open Source CFD Toolbox           |
|  \\    /   O peration     | Version:  3.0.1                                 |
|   \\  /    A nd           | Web:      www.OpenFOAM.org                      |
|    \\/     M anipulation  |                                                 |
\*---------------------------------------------------------------------------*/
FoamFile
{
    version     2.0;
    format      ascii;
    class       volScalarField;
    location    "0.384841";
    object      p;
}
// * * * * * * * * * * * * * * * * * * * * * * * * * * * * * * * * * * * * * //

dimensions      [0 2 -2 0 0 0 0];

internalField   nonuniform List<scalar> 
21246
(
10.3726
5.29763
3.08763
2.28271
2.12322
2.17829
2.24563
2.25552
2.20658
2.134
2.12612
20.8305
16.7921
13.0702
10.1563
8.01126
6.52632
5.50042
4.75076
4.16308
3.70353
3.4018
18.9689
18.4764
16.5255
14.2923
12.0663
10.0649
8.39025
7.04436
5.97577
5.1436
4.58586
16.6736
17.0331
16.5645
15.4959
13.9498
12.1792
10.4379
8.88276
7.56786
6.50258
5.72417
15.0169
15.6881
15.621
15.2276
14.3778
13.1735
11.758
10.2935
8.90419
7.6805
6.73423
13.5497
14.3189
14.3508
14.3906
14.0569
13.3351
12.2907
11.0512
9.75064
8.51423
7.49269
12.3097
12.903
13.0841
13.2464
13.177
12.8091
12.1271
11.189
10.0943
8.96653
7.96083
11.3815
11.7946
11.9643
12.1448
12.1814
12.0107
11.5864
10.9148
10.0489
9.0939
8.21949
10.6048
10.9262
11.0474
11.1994
11.2592
11.1771
10.9038
10.422
9.74911
8.9564
8.19665
9.86369
10.161
10.26
10.3872
10.4424
10.3942
10.2014
9.84108
9.31204
8.65612
7.99865
9.28174
9.5234
9.5871
9.68391
9.72093
9.67911
9.52545
9.23866
8.80941
8.26317
7.71698
8.90529
9.03566
9.03392
9.08219
9.08469
9.02944
8.88836
8.64297
8.28152
7.81806
7.35161
8.49996
8.57158
8.53902
8.54422
8.50904
8.43088
8.28643
8.06135
7.74469
7.34319
6.94412
8.01145
8.07816
8.03982
8.02226
7.95951
7.85976
7.70596
7.48937
7.20183
6.84349
6.49112
7.69096
7.67295
7.58204
7.52142
7.42427
7.29965
7.13253
6.91858
6.65356
6.33408
6.02604
7.30615
7.23231
7.11005
7.01354
6.88303
6.73282
6.55151
6.33902
6.09497
5.81214
5.54467
6.80877
6.71957
6.59109
6.4698
6.31127
6.13878
5.94734
5.74072
5.52118
5.27769
5.04677
6.36739
6.21879
6.05275
5.89068
5.69832
5.50384
5.30777
5.11675
4.93177
4.73712
4.56165
5.89316
5.67256
5.46124
5.25177
5.02425
4.81412
4.62778
4.46997
4.33425
4.1965
4.07208
5.31921
5.01939
4.76416
4.51147
4.26054
4.05704
3.91023
3.81353
3.74482
3.66985
3.58028
4.61975
4.22105
3.91935
3.6363
3.39229
3.24072
3.17987
3.17721
3.19022
3.18157
3.13449
3.75928
3.21504
2.89068
2.61752
2.44645
2.42049
2.49838
2.61139
2.70538
2.75259
2.74506
2.35325
1.987
1.6332
1.47847
1.5136
1.70273
1.94818
2.1653
2.31502
2.38888
2.37691
3.00228
0.783803
0.761756
0.862576
1.10789
1.43692
1.72865
1.93959
2.07069
2.12533
2.07953
-35.45
-15.8988
-8.71103
-5.04306
-2.81282
-1.43259
-0.550651
-0.000207302
0.359177
0.596533
0.833927
-51.0616
-33.0417
-24.3071
-16.9325
-10.8199
-6.77412
-4.30029
-2.77227
-1.77348
-1.09562
-0.548981
-43.9921
-38.9231
-34.2707
-27.1433
-19.5408
-13.437
-9.11304
-6.19914
-4.28604
-2.97774
-2.01672
-35.6044
-36.3123
-35.3075
-31.201
-25.2303
-19.0581
-13.8051
-9.81596
-6.98042
-4.99798
-3.53362
-30.921
-32.5096
-32.5674
-30.8219
-27.1998
-22.2771
-17.2322
-12.9029
-9.48472
-6.93708
-5.03691
-28.8797
-29.8897
-29.9702
-29.1851
-27.0343
-23.4283
-19.1366
-15.0204
-11.4625
-8.59709
-6.39046
-27.5463
-28.2807
-28.2707
-27.7575
-26.2529
-23.4937
-19.9204
-16.2122
-12.7801
-9.82169
-7.4514
-26.1012
-26.7775
-26.8167
-26.4839
-25.3299
-23.0891
-20.0468
-16.7302
-13.5125
-10.6012
-8.09628
-24.6778
-25.3023
-25.3946
-25.2062
-24.301
-22.4223
-19.772
-16.7837
-13.7937
-11.0161
-8.53311
-23.3221
-23.9333
-24.0259
-23.9133
-23.1834
-21.5694
-19.217
-16.4976
-13.7167
-11.0804
-8.6705
-22.0577
-22.6518
-22.7317
-22.6697
-22.0429
-20.6062
-18.4674
-15.9555
-13.3539
-10.8598
-8.54232
-20.8694
-21.3706
-21.4753
-21.4249
-20.8583
-19.5479
-17.5659
-15.2114
-12.7563
-10.3944
-8.22052
-19.7075
-20.1013
-20.2293
-20.1599
-19.6308
-18.4084
-16.5369
-14.2968
-11.9564
-9.70646
-7.64611
-18.5475
-18.8493
-18.9664
-18.8791
-18.3752
-17.204
-15.4
-13.2335
-10.9778
-8.83087
-6.87501
-17.3971
-17.6
-17.6824
-17.5722
-17.0667
-15.9298
-14.1518
-12.0261
-9.83032
-7.77896
-5.9487
-16.2457
-16.3518
-16.382
-16.2365
-15.7048
-14.5701
-12.7958
-10.669
-8.51611
-6.5618
-4.89546
-15.0761
-15.0926
-15.0652
-14.86
-14.2845
-13.1097
-11.3038
-9.15479
-7.03506
-5.18834
-3.63139
-13.8766
-13.8045
-13.7138
-13.4307
-12.7786
-11.5261
-9.64284
-7.46553
-5.3976
-3.71032
-2.3159
-12.6378
-12.4617
-12.2939
-11.9275
-11.1414
-9.77158
-7.7883
-5.60384
-3.64686
-2.18082
-0.982562
-11.3348
-11.0333
-10.7712
-10.2916
-9.3465
-7.79494
-5.7387
-3.61596
-1.86768
-0.672971
0.209552
-9.81216
-9.47033
-9.13062
-8.4958
-7.3285
-5.59806
-3.54656
-1.56993
-0.132799
0.713403
1.26028
-7.45988
-7.43704
-7.351
-6.54066
-5.11512
-3.40734
-1.60466
0.0415097
1.01437
1.48995
1.84512
-7.00454
-8.15594
-7.08505
-5.55795
-3.5704
-1.54185
0.0783728
1.11809
1.61556
1.86784
2.07252
-12.1744
-5.18202
-2.83632
-1.44485
-0.143082
0.809705
1.39877
1.72147
1.87678
1.94048
1.87131
-1.18493
3.18401
3.8682
3.71556
3.15159
2.52283
1.9362
1.41905
0.966124
0.592534
0.411976
-25.324
-11.7962
-7.2287
-3.51924
-1.46876
-0.528269
-0.188511
-0.134518
-0.209287
-0.335415
-0.389363
-29.8141
-20.8151
-17.0724
-11.5493
-7.49786
-4.76404
-3.11767
-2.19041
-1.68878
-1.41394
-1.2098
-26.1117
-22.7166
-21.0328
-16.3128
-12.3529
-8.87956
-6.28745
-4.52508
-3.38845
-2.65661
-2.13265
-21.557
-20.68
-20.2851
-17.387
-14.6255
-11.5031
-8.77323
-6.60957
-5.02733
-3.91372
-3.10219
-18.0446
-17.9024
-17.8831
-16.3138
-14.6885
-12.3741
-10.0872
-8.00186
-6.29013
-4.97314
-3.96692
-15.3082
-15.4142
-15.4422
-14.5645
-13.6253
-12.0365
-10.3363
-8.59703
-7.01481
-5.68213
-4.58898
-13.0108
-13.2575
-13.28
-12.7757
-12.2104
-11.1265
-9.90767
-8.5528
-7.22314
-6.01611
-4.97806
-11.2159
-11.402
-11.4151
-11.133
-10.7803
-10.0316
-9.15612
-8.11983
-7.04511
-6.00802
-5.06823
-9.85511
-9.91998
-9.90603
-9.72945
-9.48302
-8.94689
-8.30182
-7.50322
-6.64043
-5.76733
-4.93784
-8.72195
-8.70585
-8.68377
-8.55376
-8.35917
-7.95444
-7.45795
-6.82787
-6.12811
-5.39783
-4.70161
-7.79107
-7.69064
-7.64616
-7.54757
-7.38905
-7.07052
-6.67021
-6.15633
-5.57541
-4.95138
-4.33551
-7.09458
-6.89873
-6.83423
-6.73295
-6.58115
-6.30711
-5.96062
-5.52027
-5.02156
-4.48117
-3.93929
-6.57309
-6.3072
-6.22378
-6.1042
-5.93387
-5.66798
-5.33846
-4.93512
-4.48778
-4.01256
-3.55246
-6.13965
-5.82048
-5.71511
-5.56915
-5.38113
-5.11325
-4.78377
-4.39444
-3.97517
-3.54213
-3.12189
-5.7671
-5.41386
-5.28325
-5.10757
-4.89729
-4.617
-4.27491
-3.88317
-3.47601
-3.07486
-2.70332
-5.43804
-5.0612
-4.90789
-4.70471
-4.46725
-4.16407
-3.79618
-3.38749
-2.98192
-2.60835
-2.28117
-5.11672
-4.7303
-4.55247
-4.3233
-4.05787
-3.72578
-3.32239
-2.88819
-2.48123
-2.13711
-1.8573
-4.79205
-4.40437
-4.20753
-3.95719
-3.65861
-3.28359
-2.83014
-2.36739
-1.96593
-1.66204
-1.44987
-4.47056
-4.08755
-3.87772
-3.60479
-3.2563
-2.81079
-2.29762
-1.8131
-1.43791
-1.1897
-1.03828
-4.139
-3.77933
-3.55676
-3.24255
-2.81049
-2.26832
-1.70253
-1.2309
-0.918109
-0.73753
-0.630305
-3.72582
-3.46858
-3.20547
-2.79895
-2.24334
-1.61557
-1.05624
-0.67239
-0.459627
-0.365181
-0.296216
-3.59734
-3.27624
-2.83414
-2.2359
-1.56088
-0.936561
-0.485119
-0.247566
-0.130207
-0.0499752
0.169518
-2.9599
-2.05386
-1.47276
-0.91382
-0.456495
-0.167092
-0.0717255
-0.0927355
-0.134349
-0.161112
-0.0774687
22.7699
16.1193
11.5815
8.50288
6.31337
4.7562
3.59848
2.69415
1.96231
1.3902
1.034
17.2681
17.3468
15.1082
12.167
9.39315
7.12647
5.36048
3.98916
2.91301
2.08871
1.58687
10.6262
12.9858
12.9497
12.2125
10.4716
8.40167
6.48068
4.87001
3.58915
2.61651
1.98394
4.81369
8.25051
9.21096
9.8307
9.39727
8.21572
6.76062
5.31911
4.03759
3.01185
2.32496
0.776866
3.95737
5.0867
6.566
7.13206
6.93378
6.1938
5.17716
4.08202
3.12978
2.47475
-1.78292
0.819589
1.69742
3.42834
4.41694
4.93752
4.84114
4.33777
3.63679
2.90833
2.35999
-3.35771
-1.23971
-0.700394
1.00314
1.98079
2.86499
3.22767
3.19304
2.85977
2.39874
2.01607
-4.27016
-2.52713
-2.33014
-0.66341
0.0741261
1.07123
1.66545
1.95002
1.93634
1.73832
1.51946
-4.95677
-3.38863
-3.44668
-1.93301
-1.26431
-0.328578
0.334218
0.795483
1.00832
1.03522
0.996885
-5.52592
-4.2216
-4.02691
-2.94234
-2.27115
-1.40034
-0.730393
-0.183991
0.169214
0.358397
0.464869
-5.93509
-4.9551
-4.56078
-3.65051
-3.02076
-2.21227
-1.55528
-0.971293
-0.536651
-0.242373
-0.0241418
-6.16768
-5.35157
-4.97165
-4.1539
-3.56405
-2.81034
-2.17469
-1.57784
-1.09724
-0.734404
-0.451356
-6.35743
-5.59106
-5.24173
-4.49022
-3.93608
-3.22648
-2.61451
-2.01881
-1.51598
-1.1112
-0.782163
-6.53374
-5.75023
-5.40631
-4.69274
-4.16343
-3.48743
-2.89691
-2.30985
-1.80085
-1.37751
-1.02614
-6.49017
-5.76556
-5.45624
-4.77809
-4.26757
-3.61847
-3.04417
-2.46881
-1.96284
-1.53436
-1.18361
-6.38856
-5.70087
-5.41227
-4.76414
-4.26335
-3.63707
-3.07278
-2.51038
-2.01312
-1.58894
-1.24545
-6.27055
-5.58744
-5.29515
-4.66641
-4.16201
-3.55229
-2.99267
-2.44433
-1.96141
-1.55202
-1.22411
-6.06438
-5.39391
-5.09497
-4.48356
-3.96558
-3.36642
-2.80902
-2.27799
-1.81766
-1.43603
-1.13556
-5.77607
-5.11843
-4.80558
-4.20829
-3.66928
-3.07639
-2.52424
-2.01847
-1.59274
-1.25214
-0.985459
-5.4199
-4.76559
-4.42297
-3.831
-3.2649
-2.67773
-2.14204
-1.67635
-1.30124
-1.01574
-0.80263
-4.98279
-4.31827
-3.92689
-3.3314
-2.74147
-2.17096
-1.67506
-1.27119
-0.964604
-0.739879
-0.581759
-4.41897
-3.73124
-3.2695
-2.67377
-2.08757
-1.56605
-1.14633
-0.82944
-0.595604
-0.434569
-0.333801
-3.80509
-2.97979
-2.45586
-1.91269
-1.39202
-0.965623
-0.651654
-0.422313
-0.257323
-0.157433
-0.110648
-2.28135
-1.60801
-1.20593
-0.847581
-0.526375
-0.296066
-0.124774
0.0370675
0.188239
0.280125
0.194859
-10.2842
-5.61939
-3.58472
-2.47303
-1.66122
-1.12945
-0.819017
-0.630134
-0.526441
-0.465248
-0.388843
-11.7433
-8.28575
-6.49297
-4.95536
-3.54629
-2.50954
-1.83033
-1.39724
-1.13116
-0.957254
-0.822553
-8.70124
-8.18334
-7.55894
-6.47122
-5.14253
-3.91903
-2.94901
-2.25701
-1.78554
-1.46537
-1.23304
-7.29511
-7.36746
-7.19198
-6.65745
-5.8162
-4.80713
-3.81749
-2.99791
-2.38389
-1.94487
-1.61951
-6.68052
-6.70028
-6.62779
-6.36925
-5.86473
-5.13413
-4.2942
-3.4948
-2.83405
-2.32255
-1.9322
-6.24092
-6.20604
-6.15598
-5.99648
-5.66433
-5.13419
-4.45452
-3.73896
-3.0946
-2.56512
-2.13899
-5.81684
-5.75217
-5.70985
-5.59094
-5.34969
-4.94875
-4.4022
-3.7859
-3.19411
-2.68206
-2.25483
-5.4188
-5.32618
-5.27715
-5.16192
-4.96895
-4.65185
-4.20804
-3.6862
-3.16148
-2.68855
-2.28357
-5.0641
-4.9422
-4.87154
-4.74216
-4.56838
-4.29977
-3.92931
-3.48798
-3.03187
-2.60651
-2.22693
-4.75774
-4.60865
-4.51793
-4.37482
-4.19365
-3.94643
-3.62197
-3.24183
-2.84642
-2.47053
-2.12598
-4.50635
-4.3313
-4.22442
-4.06396
-3.86866
-3.62639
-3.32728
-2.98947
-2.64143
-2.3085
-2.00114
-4.30311
-4.10509
-3.98805
-3.80986
-3.60255
-3.35579
-3.06881
-2.75733
-2.44173
-2.13986
-1.85756
-4.14027
-3.92498
-3.80358
-3.61227
-3.39428
-3.14069
-2.85804
-2.55923
-2.26159
-1.97953
-1.7205
-4.01306
-3.78601
-3.66344
-3.46287
-3.2369
-2.97828
-2.69425
-2.39753
-2.10493
-1.82994
-1.57637
-3.91373
-3.67852
-3.55605
-3.35018
-3.11993
-2.85732
-2.56809
-2.26547
-1.96765
-1.69189
-1.44322
-3.83634
-3.5967
-3.47502
-3.26801
-3.03495
-2.76738
-2.46868
-2.15298
-1.842
-1.55947
-1.31413
-3.77945
-3.53947
-3.41904
-3.21385
-2.9779
-2.70234
-2.38783
-2.05069
-1.71955
-1.42481
-1.17571
-3.74097
-3.50542
-3.38879
-3.18797
-2.9487
-2.65996
-2.31998
-1.95138
-1.59419
-1.28821
-1.04629
-3.72058
-3.49663
-3.38763
-3.19513
-2.95101
-2.63908
-2.25752
-1.84558
-1.46028
-1.14917
-0.920985
-3.7208
-3.51726
-3.42205
-3.24072
-2.9861
-2.63916
-2.21399
-1.74836
-1.32146
-1.00697
-0.805092
-3.73557
-3.57686
-3.52055
-3.3628
-3.11776
-2.73655
-2.23354
-1.71304
-1.24489
-0.902787
-0.716447
-3.76597
-3.76408
-3.77123
-3.60867
-3.24128
-2.7659
-2.24495
-1.73514
-1.2814
-0.925767
-0.711738
-4.02482
-4.34023
-3.90124
-3.51957
-3.09152
-2.62412
-2.17022
-1.75123
-1.37525
-1.06078
-0.828362
-5.4253
-3.49604
-3.32601
-2.97813
-2.63299
-2.3217
-2.03757
-1.76839
-1.50649
-1.25831
-1.0341
0.758665
-0.378695
-0.743112
-0.662208
-0.426728
-0.196334
-0.0512908
0.00606441
0.00222938
-0.0162688
0.00741859
3.80385
2.9181
2.01834
1.42048
1.10879
0.954399
0.837828
0.701177
0.543509
0.407337
0.369596
3.70816
3.56867
3.18308
2.70897
2.29123
1.95854
1.66527
1.36611
1.05753
0.786988
0.664884
3.19265
3.21469
3.1611
2.98712
2.74623
2.48287
2.1902
1.84181
1.44767
1.07959
0.902945
2.68648
2.69501
2.70729
2.67054
2.58292
2.4539
2.26882
1.98634
1.60793
1.20666
0.954955
2.19587
2.16453
2.1647
2.13999
2.09506
2.03155
1.94488
1.80367
1.55168
1.20647
0.940259
1.7251
1.64322
1.61489
1.55969
1.49599
1.43353
1.38584
1.34059
1.22051
0.988745
0.778633
1.27242
1.13656
1.07479
0.971578
0.858879
0.747615
0.662541
0.623778
0.600821
0.500507
0.38293
0.841621
0.648015
0.554613
0.394344
0.221159
0.0394585
-0.127056
-0.232605
-0.236613
-0.212481
-0.214075
0.443535
0.175632
0.0678073
-0.157708
-0.395154
-0.655046
-0.913994
-1.11933
-1.19408
-1.10987
-0.949768
0.0737965
-0.270652
-0.367181
-0.670436
-0.969462
-1.30768
-1.66145
-1.97433
-2.15204
-2.10299
-1.82946
-0.267589
-0.635697
-0.797328
-1.1263
-1.48275
-1.89258
-2.33388
-2.75186
-3.03857
-3.06155
-2.79249
-0.57202
-0.955258
-1.17123
-1.51932
-1.92593
-2.39322
-2.90421
-3.40788
-3.79214
-3.89506
-3.61244
-0.82715
-1.21745
-1.47307
-1.83978
-2.27965
-2.78805
-3.34866
-3.91151
-4.3634
-4.52652
-4.30732
-1.02857
-1.41399
-1.69266
-2.06848
-2.52383
-3.0525
-3.64001
-4.23562
-4.72429
-4.92952
-4.76527
-1.16986
-1.53638
-1.82397
-2.19618
-2.64886
-3.17602
-3.76183
-4.35559
-4.84642
-5.08287
-4.99065
-1.24292
-1.57688
-1.85974
-2.21476
-2.64646
-3.15177
-3.71186
-4.27222
-4.73025
-4.95878
-4.86538
-1.2431
-1.53313
-1.79823
-2.12323
-2.51789
-2.98311
-3.49723
-4.00324
-4.40961
-4.61403
-4.55973
-1.17454
-1.41473
-1.65249
-1.93783
-2.28533
-2.6965
-3.15127
-3.59311
-3.93555
-4.08723
-3.99878
-1.05391
-1.24257
-1.44457
-1.68785
-1.98916
-2.35221
-2.74546
-3.10977
-3.36854
-3.43829
-3.25639
-0.889765
-1.02838
-1.20466
-1.43338
-1.72391
-2.05462
-2.37854
-2.64467
-2.79892
-2.78271
-2.55036
-0.698273
-0.829014
-1.02516
-1.30352
-1.61835
-1.91127
-2.13941
-2.28247
-2.32437
-2.23068
-1.95318
-0.648109
-0.765676
-1.09401
-1.46375
-1.76862
-1.95613
-2.03731
-2.04064
-1.97612
-1.82878
-1.56339
-0.258937
-1.07253
-1.59439
-1.92116
-2.05053
-2.04608
-1.96902
-1.85375
-1.70853
-1.5303
-1.31931
-1.68784
-0.627617
0.176506
0.611191
0.700238
0.0718771
-0.972837
-1.85547
-2.13779
-1.32034
-0.563462
0.0615687
0.435367
0.507789
0.00854498
-0.796896
-1.3905
-1.66649
-1.25871
-0.571748
-0.0597288
0.265289
0.334498
-0.0777414
-0.762181
-1.38042
-1.55998
-1.14255
-0.579625
-0.158117
0.117481
0.165395
-0.171072
-0.730893
-1.12323
-1.36519
-2.36297
-2.27382
-1.59916
-1.13576
-1.01232
-1.0205
-1.10004
-1.3126
-1.84931
-1.80328
-1.79297
-1.35246
-1.12401
-1.02318
-1.02339
-1.08464
-1.18818
-1.48171
-1.7011
-1.68423
-1.30149
-1.08078
-1.00659
-1.00728
-1.05116
-1.14642
-1.40015
-1.47654
-1.49037
-1.21003
-1.01452
-0.976594
-0.967155
-0.996091
-1.08471
-1.27236
1.73397
2.25211
2.26096
-0.724211
-0.744159
2.48309
-0.902333
2.06037
2.48312
1.7722
-0.762147
2.06438
-0.795678
-0.159795
1.72488
1.18258
-0.200182
-0.716857
1.1839
1.7515
0.752292
-1.00467
1.57087
-0.410548
2.26633
-0.167226
-0.786622
-0.906318
-1.66777
-0.452945
-0.201855
0.249332
-0.0192903
1.43935
0.170165
2.27711
-0.416759
2.28072
-0.0134733
2.13194
-1.73529
1.45037
0.0275023
1.58275
-0.937084
-0.911853
-0.427284
-0.851235
0.724235
2.22579
-0.454539
2.13566
0.00166059
0.0182613
2.18751
0.764485
-1.01542
2.0808
-1.69546
-0.0995729
-1.37485
-0.00250511
-0.769484
-0.72529
-1.46753
1.75022
-0.393109
2.63738
2.27353
1.78211
-0.329389
2.62893
-0.991667
3.43095
-0.403265
2.65829
-1.03455
1.49006
-0.89252
-0.886426
-0.3649
-0.743495
1.83893
1.86412
-0.702708
-0.96543
-1.53395
0.00609897
-0.863364
-0.38051
2.32854
2.05981
-1.55224
3.63842
-0.971692
-0.856327
-0.320579
-0.623832
-0.835503
2.77859
-0.614627
-0.868776
1.61073
-0.318618
-0.846151
2.33166
-0.0288362
1.84095
-0.108172
0.149031
1.6236
1.44163
2.99723
-0.867719
-0.471381
1.80755
2.07884
1.37018
2.15194
1.42366
-0.895374
3.12176
-0.4343
-0.22526
-0.947242
-0.665556
-0.0662872
-0.0275416
-0.0141478
-0.0833406
1.81738
-0.102967
-0.857548
2.62285
2.30259
-0.809342
-1.01034
-0.773185
-0.440664
0.849644
0.0531712
0.57557
-0.933916
0.943621
2.04468
-0.960358
-0.876851
2.5669
2.01759
1.43225
1.68076
2.46027
-0.985794
3.21494
-0.811568
-0.0215754
-0.785303
-0.900626
-0.207595
1.96733
-0.542317
-0.874944
2.66366
2.01321
-0.37057
-0.312673
-0.869225
0.51606
-0.678735
-1.43223
-0.0360438
-0.0693373
-0.690677
0.517177
0.313512
0.327705
-0.00485182
-0.963459
-0.976564
0.419202
2.4296
-1.02555
2.28237
-0.688349
2.32622
-0.723497
1.69687
1.32905
2.11611
-0.892422
-0.129855
-0.325811
1.65417
-1.66664
2.27825
2.14919
2.64724
-0.851753
-0.0864975
1.81561
-0.853823
2.43888
-0.237778
-0.262983
2.29613
0.00853225
3.61511
-0.015719
2.33702
1.71124
-0.358659
1.30881
0.365913
0.341741
1.50235
-0.133371
2.36172
-0.5728
1.85502
-0.677336
0.0100375
-0.908667
-0.331283
-0.50132
-0.186795
1.97344
-0.660117
-0.256474
-0.10395
-0.767005
-0.873774
1.62131
1.70646
2.87805
-0.963212
-0.879062
-0.516754
2.28142
1.84187
1.85468
-0.531901
-0.519235
-0.365677
-1.53118
3.9231
-0.906769
1.41925
-0.328989
-0.846942
-0.334515
-0.318021
-0.37618
-0.152607
1.98096
-0.306316
2.6054
0.872689
2.29135
-0.889635
1.66929
-0.00521525
-0.839761
1.68164
1.54075
1.60414
-0.588617
0.524073
2.94997
-0.464267
-0.442508
-0.734615
1.81196
2.52331
-0.429249
2.50056
1.36742
-0.272638
2.44897
0.919677
-0.86233
2.67556
2.16823
-0.373029
-0.511433
-0.247265
2.37067
-1.19288
1.92689
0.758313
0.0545568
1.77991
-0.904598
0.283788
-0.113181
2.25887
2.30626
-0.667717
1.60479
0.270795
-0.310165
2.29542
-0.896423
0.560888
-0.45981
0.918631
0.0966174
1.52691
-0.0458151
-1.02478
1.69959
-0.938217
2.32452
0.0456237
-0.0131726
-1.07241
1.02865
-0.7267
-0.842847
1.33596
3.88027
1.59311
-0.189001
1.32236
-0.417726
-0.820302
0.603916
1.43209
-0.677422
1.59711
-0.290746
2.31457
-0.778519
-1.00623
2.26117
-0.788322
-0.845585
-0.822426
1.54077
2.41285
-0.611238
-0.914694
-0.380193
2.48245
-0.353664
-0.732619
-0.0617151
-0.203899
1.38882
-0.402617
-0.113937
-0.924355
-0.6042
-0.416041
0.974656
-0.135553
1.81368
0.00748166
0.766994
1.55278
-0.315178
-0.419507
-0.20476
2.3517
1.83409
2.73884
-0.862295
-0.0681507
-0.0164786
-0.909039
-0.247494
2.44726
-0.73419
-0.855442
-0.0702028
-0.168876
1.76285
-0.237099
0.140016
2.39098
1.44018
-0.430829
2.19439
-0.922651
1.92549
-0.324714
-0.416741
-0.914342
-0.187539
-0.525835
-0.878872
2.43777
-0.945537
-0.0711164
2.11397
-0.421724
-1.52352
1.50948
1.51283
2.14921
-0.207842
-0.897734
1.80026
2.25672
0.0778737
0.00580807
-2.12728
-0.901247
-0.134359
2.39282
-0.169228
0.739878
1.15994
-0.234572
-0.222363
-1.03249
-0.0319902
-0.141511
3.27349
-0.0233238
-0.925675
-0.655738
-0.0310883
-0.896603
-0.040881
0.273229
0.220618
3.34955
-0.0404809
-0.770862
-1.25738
1.40003
-0.953845
-0.407128
1.23884
-0.702284
0.0210698
-0.4148
-0.458127
-0.231797
1.37312
-0.514566
-1.34902
-0.477689
-0.913893
1.02565
0.0308552
-0.0872016
-0.966582
2.08207
-0.92372
2.41686
1.86501
2.37869
-0.906324
-0.900682
-0.908943
-0.038397
-0.896652
-0.00702347
2.02055
2.11135
-0.0866056
-0.0873237
-0.336359
0.885614
-0.021036
-0.0101127
1.80131
1.3257
2.35493
0.290511
-0.925215
1.32574
-1.43684
0.92006
1.7891
1.78435
1.72289
-0.886541
1.67538
1.92518
0.798126
-0.708382
-1.01631
1.54576
-0.950838
-0.812838
1.00929
0.0356821
1.85419
-0.836838
2.18242
0.987395
1.95235
-0.0160323
-0.20916
1.67087
-0.404271
0.267722
2.90125
-0.679316
-0.667157
2.28055
1.90453
-0.845301
0.0411648
-0.995757
2.19318
-0.872781
1.36791
-0.389167
-0.191488
-0.884264
-0.308691
-0.639738
-0.467697
-0.195942
-0.397258
1.38872
-0.5104
1.28107
2.17803
2.44975
1.77221
0.743754
-0.450354
2.06674
1.87722
-0.437491
2.31359
-1.02988
-0.536838
-0.0355584
-0.328606
-0.869192
2.18961
2.37051
2.15832
-1.58292
-0.873192
1.41615
2.04183
-0.216934
2.26037
-0.468535
2.26509
-0.149783
0.905256
-0.956746
-0.036893
-0.0309267
-0.866714
-0.3886
0.935674
0.47665
1.95686
1.72707
0.0135093
-0.951524
1.54808
-0.223187
-0.818203
-0.839075
2.30566
2.83269
2.30565
-0.0932469
-0.518717
-0.0458758
2.3074
1.87646
-0.518692
3.24088
-0.175716
-0.0491343
-0.109494
-0.777078
1.60626
-0.0240936
2.37516
-0.187758
2.79261
-0.381164
-0.00756234
0.403467
-1.07624
-0.313381
2.04291
1.48197
-0.990754
1.98766
-0.505089
-0.708158
-0.199548
-0.0999121
-0.892867
-0.705238
1.92913
2.14958
2.32786
-0.865892
-0.589223
-0.182158
1.71433
2.30648
-0.89789
1.62306
4.02203
0.765859
2.32042
-0.335041
-0.294371
-0.165906
-0.447599
-0.149908
-0.118754
1.94605
-0.401635
2.53379
2.28309
-0.854679
-0.416963
1.29035
2.10067
-0.990888
1.56209
2.05555
-0.36897
2.30168
0.535154
-0.668145
-0.0989265
-0.35723
-0.01983
-0.0320355
-0.898097
-0.122994
-1.20814
-0.405571
-0.58352
-0.868374
-0.870948
-0.250352
1.37502
1.0175
-0.828348
-0.10032
1.29279
0.120363
-0.431206
0.0360311
-0.853986
-0.630841
-0.648707
1.45809
-0.323859
2.23052
1.50044
1.24027
-0.813766
2.18268
2.05499
1.20895
1.71323
-0.636441
-0.0788703
-0.783524
2.48843
1.67339
0.786484
0.0545906
3.76869
-0.924198
2.89998
-0.45674
-0.0459554
1.54668
0.010673
2.02755
-0.0335646
-0.638349
-0.317932
-0.870478
-0.53581
-0.633384
1.83898
-0.0285846
-0.0928207
-0.913048
-0.118338
1.3645
0.0253824
1.85693
-0.437348
1.25821
-0.897515
2.31048
2.23933
2.34873
-0.779645
-0.118485
2.23559
-0.00897118
2.60763
-0.225248
-0.216676
0.437291
-0.702457
-1.37779
-0.0596369
-0.333761
-0.531608
-0.741867
-0.382534
-0.0168626
-0.902131
1.38489
-0.385214
1.78198
2.15836
-0.948708
-0.79385
-0.844501
-0.143738
3.16353
0.522892
1.38361
-0.502544
2.03528
-0.00919679
0.0571346
-0.146716
0.335845
-0.287678
-0.0124348
-0.11678
2.57186
-0.706388
-0.827758
-0.844269
1.65247
-0.222027
-0.80717
2.31145
-0.988457
-0.0351014
4.05845
-0.447676
1.87918
1.14542
1.20664
-0.0467267
2.61968
-0.0779276
2.32122
-0.0414235
2.27077
-0.120771
0.0413699
-0.409311
-0.0678858
1.3005
-0.420728
-0.881935
1.92657
-0.0668896
-0.211308
0.0763889
-0.239894
-0.904937
0.46425
-0.513009
-0.0482382
-0.215733
1.45139
-0.724039
1.45027
-0.223155
-1.01575
2.25114
2.14583
-0.532035
-0.825687
-0.260158
-0.696586
2.03025
-0.388542
0.112133
1.41957
2.12484
2.28788
1.77446
3.78754
-0.0155953
-0.942688
-0.711368
-0.0800732
-0.719614
2.28974
1.90235
-0.365829
-0.452423
2.29876
-0.556374
-0.344587
-0.879571
-0.454945
-1.18854
0.119735
-0.513978
2.27134
1.81271
-0.967327
1.52605
2.05405
0.0592716
-0.0313975
-0.561742
-0.497486
2.3015
-0.581364
-1.38996
-0.966302
2.01413
-0.0450927
0.0378658
-0.142791
-0.627944
1.93388
1.42786
-0.676069
-0.313068
0.0574429
1.85912
1.2285
4.07622
2.82846
1.97804
-0.203099
-0.407773
-1.01267
-0.889427
0.0674244
2.2625
-0.636924
2.02931
2.84426
-0.469287
1.89119
2.5085
2.12422
-0.840173
-0.0410889
-0.0383918
2.50702
-0.501333
2.38934
2.28592
2.84853
2.13647
0.123591
1.55963
2.32579
3.27132
-0.87821
1.44989
1.84201
-0.780214
-0.933879
2.05143
2.36729
-0.74876
-0.859837
1.68982
-0.774209
-0.25921
-0.625298
1.72068
2.25026
0.589463
0.868437
0.0206622
1.90999
-0.43579
-0.128786
-0.13365
-0.0533741
1.59839
-0.193885
1.64111
1.5606
2.75691
2.14602
1.50268
-0.621224
-1.00744
-0.418169
-0.382041
-0.0871041
0.042018
-0.137045
-0.901853
1.4838
1.61961
-0.0162706
0.00396343
-0.229174
2.22305
-0.76946
2.99182
-0.724985
2.17305
-0.0174837
-0.102467
-0.873267
-0.312174
1.7262
2.25993
-0.47906
-0.982962
-0.0325118
-0.673981
-0.320492
0.264591
0.982919
-0.131804
2.59519
2.30719
-0.498651
-1.20238
-0.653736
-0.953493
-0.0492706
-0.188036
-0.12155
-0.716018
1.89337
0.259537
-0.0806542
1.96713
-0.160657
2.39147
-0.351967
-0.0961564
-0.141607
1.99221
-0.29798
2.22925
2.10935
-0.154252
-0.775937
1.60345
2.42897
3.23745
-0.82421
-0.722287
-0.92227
-0.225409
1.73924
-2.014
-0.579072
-0.949049
1.89155
-0.125427
-0.0319071
2.23043
-0.0492643
0.735389
-0.0415466
-0.382829
-0.149459
-0.81667
0.970458
2.64201
-0.805995
-0.256084
1.66375
-0.130517
2.31967
-0.861756
-0.023154
-0.827249
2.26095
-0.0329534
-0.681189
-0.439661
-0.037653
-0.10991
1.82856
-0.0205257
-0.716353
1.50918
0.317516
-0.246702
-0.922826
-0.43696
-0.39599
2.16357
2.12085
-0.859088
1.04077
-1.51897
-0.0369273
-0.0241944
-0.520572
1.98489
-0.78503
-0.838414
-0.0478294
-0.331302
0.0390472
2.29438
-0.522426
-0.0222421
1.99953
1.04515
2.28736
-0.405519
0.378231
2.22129
-0.669829
0.0633128
-0.0737751
1.63477
-0.925548
-0.815219
0.647354
-0.481237
1.40608
1.72267
0.793222
-0.895094
1.8116
-0.0833811
-0.145049
-0.836593
1.55589
0.931029
1.85351
1.87835
-1.01889
-0.465088
0.0654272
-0.918731
-1.16273
-0.75126
1.74385
0.0119604
-0.88087
1.94183
-0.09495
-0.0389901
0.473425
-1.59191
-0.716526
-0.456704
1.1563
-0.167478
1.89944
-0.511868
1.66685
-0.844925
-0.65452
3.16696
-0.930447
-0.389324
0.725444
-0.405122
0.0421514
-1.25793
-0.44138
0.166054
-0.937597
-0.0705305
-0.867801
-0.888948
-0.356776
2.29206
-0.518561
3.60705
-0.442606
-0.238726
-0.755873
0.0514072
-0.307578
-0.910472
1.95647
2.49108
0.59636
1.66258
-0.0802069
-0.426925
2.13852
-0.224604
-0.445945
2.05214
-0.781934
-0.918164
-0.795033
-1.77894
-1.03204
-0.454328
-0.0709006
-0.111568
1.99342
2.08856
-0.512811
2.11749
2.30456
-0.427459
1.83104
3.82614
-0.473336
2.67632
-0.86031
-0.143041
-0.769199
1.99116
-0.570393
-0.00551373
-0.196956
-0.888689
1.88617
-0.0410736
-0.288962
-0.0812314
0.0123128
1.19452
-0.0991665
1.54411
-0.601767
-0.139744
0.884721
2.04447
-0.99117
-0.27771
-0.532205
-0.889824
-0.383242
2.208
2.28545
2.12478
-0.518531
0.00563356
-0.0771356
-0.878851
-1.05679
1.71364
0.0999928
1.61948
2.30615
-0.922049
1.82031
1.68382
-1.54495
-1.20797
-0.872322
-0.805997
1.64936
1.33314
-0.0440759
-0.648067
-0.319084
-0.895054
-0.345642
2.31172
1.86885
-0.212979
-0.155758
-0.0811179
-0.195488
2.67255
-0.270007
-0.0162098
-0.848353
0.972626
-0.401534
-0.896201
0.715477
-0.588373
1.5226
1.46612
-0.688027
-0.092042
-0.401146
0.801812
0.737155
-0.509481
-0.428876
-0.714312
-0.264627
-0.656038
-0.882675
2.10614
-0.890577
-0.675827
2.07618
-0.0188318
0.00177145
1.16823
-0.333714
1.99943
2.44036
2.21006
-1.48296
-0.00968523
1.34384
-0.213701
2.00312
1.52683
1.8099
-0.265671
1.38597
-0.290736
-0.866489
2.0759
-0.673531
-0.923012
-0.268827
-0.935457
-0.695265
-0.534139
-0.00956804
2.08424
1.5594
2.40021
-0.0664881
1.82192
1.61061
-0.774752
-1.02191
-0.0799911
-0.0647375
0.0248118
0.607259
-0.67164
-0.859254
1.36625
-0.556722
1.27089
-0.0291974
1.36416
-0.107522
0.761618
1.61877
2.24376
-0.844562
-0.0563708
1.11919
-0.402887
1.33448
-0.000578835
-0.116767
-0.865513
-0.210073
2.00766
1.70628
-0.0703463
-1.81247
-0.169773
-0.0417186
-0.921177
-0.0318735
2.03504
-1.02733
-0.082788
1.48434
-0.921388
-0.837916
-0.640157
-0.843486
-0.684666
-0.0145603
-0.8619
-1.19676
1.37551
2.42211
-0.063302
-0.459893
-0.238199
1.49597
-0.666798
2.27352
2.83886
-1.07128
1.84648
2.00715
-0.904354
-0.939958
2.49385
1.78154
2.42261
0.781454
1.66074
3.25704
-0.689013
-0.359148
1.3084
2.33703
-1.03558
1.73935
-0.0725481
2.46475
1.13508
2.02927
-0.56881
-0.906092
-0.481875
1.82743
1.54853
-0.113305
-0.102064
1.99051
-0.723035
-0.344163
2.74493
-0.698902
-0.19721
-0.963844
-0.478241
-0.513602
1.98709
-0.697764
2.35301
0.81093
4.58021
-0.10274
2.11447
-0.450743
3.78882
-0.776906
2.38517
2.09745
-0.771072
1.58428
2.19746
-0.662465
-0.389789
-1.02377
2.27198
0.846957
2.36024
-0.179207
-0.110391
-0.577913
0.176671
-0.708222
-0.883022
1.66835
1.31343
1.7861
0.645212
-0.544511
4.21393
-0.654074
3.34584
-0.944309
0.0331844
-0.247407
-0.0239048
0.853457
-0.221075
2.27827
-0.548224
-1.01024
1.98668
2.07937
0.032764
0.524388
1.10145
1.76705
-0.593596
2.31493
-0.983335
-0.978009
-0.169035
-0.210677
1.34413
-0.66764
0.788953
-0.794757
-0.330309
-0.167569
-0.258753
1.79023
1.57428
1.72555
1.2477
-0.391321
0.62419
3.15496
-0.119914
-0.672646
1.76884
0.681361
-0.914353
-0.388675
1.88066
-0.718424
1.93456
1.79389
-0.366212
2.14805
0.0417183
-0.0825342
0.877755
2.32799
-0.337965
-0.99829
1.73648
-0.0695429
2.40657
2.85806
-0.279857
0.907565
-0.239498
2.03555
3.69544
-0.894647
0.081662
1.74005
-1.55016
0.878716
2.00564
1.58638
1.79453
0.0970312
-0.301904
-0.461386
-0.472589
-0.845682
1.95529
2.39259
-0.859028
-0.0141279
0.970876
0.37626
-0.641355
2.69537
-0.0793316
2.00541
-0.375809
2.57443
1.7603
-0.0388168
-0.477719
-0.246387
2.3184
1.92285
1.45863
1.74178
1.91893
-0.231298
-0.164091
-0.674849
-0.784618
0.0298427
0.457257
1.77415
1.86297
-0.888602
1.34697
-0.0615855
-0.892845
0.614085
-0.310398
-0.465715
1.10846
1.84078
-0.307415
-0.573606
-0.338651
0.96639
-0.30324
-0.109704
-0.818615
-0.0535193
-0.22401
1.6361
-0.397918
-1.00679
-1.03473
-0.471189
-0.786262
-0.0538088
2.12138
1.65602
-0.901467
2.33401
-0.195008
-0.246469
0.00630615
-0.456524
-0.390495
-0.709795
-1.11674
-0.48754
2.38413
-0.451264
-0.0609047
-0.499848
-0.561744
-0.881457
2.03037
-0.838137
2.38974
-0.0540725
-0.875839
-0.465648
-0.998317
-0.49361
-0.252297
2.784
3.91474
1.67186
2.20325
2.27225
0.0958165
1.88798
-0.873072
4.12797
-0.406724
-0.811589
1.28874
1.8825
-0.80675
-0.909876
2.33251
0.225881
1.55975
3.41721
-0.360652
-0.890914
2.13819
1.21138
1.12049
1.40356
4.16929
2.33546
-0.522353
-0.959755
2.31244
-0.593163
2.29122
1.31669
0.640749
2.41097
-0.52224
1.70398
1.92285
0.975723
1.76789
-0.071198
2.05456
-0.0404491
-0.954197
-0.913864
0.0362223
-0.182755
0.0208136
-0.100556
-0.0235089
-0.200184
-0.0636341
1.44962
-0.0409547
0.522489
2.20798
2.38146
-1.18688
-0.134854
-0.0605289
1.86976
-1.02101
3.71865
0.040971
-0.211228
1.39442
-0.245354
2.22388
-0.122773
2.10363
-0.896644
2.18719
1.82713
-0.35558
0.0356694
-0.122166
-1.01251
-0.470811
-0.80206
0.0269929
-0.491955