/*--------------------------------*- C++ -*----------------------------------*\
| =========                 |                                                 |
| \\      /  F ield         | OpenFOAM: The Open Source CFD Toolbox           |
|  \\    /   O peration     | Version:  3.0.1                                 |
|   \\  /    A nd           | Web:      www.OpenFOAM.org                      |
|    \\/     M anipulation  |                                                 |
\*---------------------------------------------------------------------------*/
FoamFile
{
    version     2.0;
    format      ascii;
    class       volScalarField;
    location    "0.0399651";
    object      nut;
}
// * * * * * * * * * * * * * * * * * * * * * * * * * * * * * * * * * * * * * //

dimensions      [0 2 -1 0 0 0 0];

internalField   nonuniform List<scalar> 
21246
(
4.28681e-05
0.000278828
0.000419577
0.000495468
0.000532751
0.000558443
0.000586278
0.000608525
0.00061047
0.000582259
0.000527356
3.06814e-05
0.000242179
0.000412599
0.000505012
0.000545057
0.000563606
0.000578601
0.000590668
0.000589483
0.000563798
0.000511439
2.5603e-05
0.000215147
0.000387722
0.000496732
0.00054734
0.000566816
0.000576603
0.000582359
0.000577864
0.00055346
0.000504169
2.46319e-05
0.000199277
0.000368642
0.000486465
0.000546794
0.000570174
0.000579159
0.000582995
0.000577468
0.00055357
0.00050458
2.45754e-05
0.000182269
0.000347858
0.000473696
0.000543811
0.000571603
0.00057824
0.000576234
0.000564529
0.00053775
0.000491967
2.5077e-05
0.000173516
0.000329661
0.000452849
0.000527982
0.000562031
0.000572286
0.00057313
0.000566374
0.000546151
0.000505498
2.58191e-05
0.000168373
0.000318023
0.000435162
0.000508566
0.000545319
0.000560459
0.000565991
0.000562606
0.000543993
0.000502804
2.67678e-05
0.000164645
0.000309075
0.000420498
0.000491353
0.000529
0.000547143
0.000556241
0.000556617
0.00054283
0.000508043
2.76489e-05
0.000161462
0.000301493
0.000407963
0.000475926
0.000513442
0.000533598
0.000545835
0.000549854
0.000539428
0.000505809
2.82996e-05
0.000157663
0.000294031
0.000396777
0.000462468
0.000499751
0.000521377
0.000535989
0.000542334
0.000532698
0.000496945
2.88431e-05
0.000153604
0.000286822
0.000386812
0.000450954
0.000488217
0.00051105
0.000527435
0.000535454
0.000527604
0.000497493
2.93143e-05
0.000150094
0.000280616
0.000378342
0.00044135
0.000478793
0.000502774
0.000520709
0.000530255
0.000524001
0.000495057
2.9579e-05
0.000146496
0.000274854
0.000370992
0.000433478
0.000471491
0.000496768
0.000516269
0.000527233
0.000521558
0.000490079
2.96215e-05
0.000142026
0.00026863
0.000364152
0.000427031
0.000466233
0.000493112
0.000514247
0.000526419
0.000521069
0.000490644
2.94354e-05
0.000137454
0.000262516
0.000357952
0.000421859
0.000462801
0.000491626
0.000514505
0.00052767
0.000521683
0.000487246
2.89802e-05
0.00013233
0.00025607
0.000352027
0.000417739
0.000461119
0.000492355
0.000517179
0.000531284
0.000524372
0.000486958
2.82774e-05
0.000125875
0.00024828
0.000345615
0.000414231
0.000461033
0.000495337
0.000522462
0.000537658
0.000529804
0.000489716
2.71995e-05
0.000117916
0.000238707
0.000338124
0.000410687
0.000461998
0.000500219
0.000530232
0.00054703
0.000538578
0.000494222
2.57434e-05
0.000107324
0.000224561
0.000326131
0.000403638
0.000460743
0.000504426
0.000539128
0.000558624
0.000551118
0.000504589
2.38689e-05
9.38585e-05
0.000205099
0.000308254
0.000390717
0.000452968
0.000499634
0.00053512
0.000555523
0.000549447
0.000505109
2.15e-05
7.80062e-05
0.000179434
0.000282709
0.000370029
0.000437114
0.000485006
0.0005167
0.00053117
0.000520983
0.000479522
1.86101e-05
6.03784e-05
0.000148862
0.000248748
0.000339643
0.000411157
0.000459873
0.000486381
0.000491333
0.000472459
0.000429241
1.50109e-05
4.3807e-05
0.000114597
0.000207479
0.000297982
0.000371426
0.00042088
0.000444442
0.000442937
0.000417729
0.000372631
1.09891e-05
4.38975e-05
0.000102918
0.000169142
0.000235952
0.000296123
0.000341253
0.000365701
0.000367542
0.000347935
0.000311453
3.79496e-05
0.00013838
0.000224515
0.000308054
0.000384954
0.000470485
0.000567861
0.000633226
0.000659758
0.000629646
0.000572019
2.5181e-05
7.2185e-05
0.000130871
0.000189094
0.000243394
0.000289778
0.000337369
0.000433583
0.000636499
0.000689879
0.000626495
1.78185e-05
5.96181e-05
9.73216e-05
0.000138192
0.000178859
0.000213481
0.000240908
0.000277184
0.000371268
0.000622101
0.000682611
1.8138e-05
7.44828e-05
0.000102045
0.000125084
0.00015109
0.000175846
0.000194857
0.000210898
0.000242386
0.000340313
0.000571845
2.10553e-05
9.8663e-05
0.000160448
0.000160677
0.000161081
0.000167292
0.000174733
0.000180272
0.000188747
0.00021872
0.000319916
2.42262e-05
0.000104047
0.000220087
0.000261241
0.000230798
0.000201403
0.000183398
0.000172818
0.000166969
0.000170438
0.000203189
2.76304e-05
0.000105947
0.000242867
0.000362862
0.000365628
0.000301708
0.000239295
0.000195885
0.000168661
0.00015394
0.00015643
3.11855e-05
0.00011197
0.000252684
0.000408223
0.000511199
0.000467019
0.000363029
0.000267016
0.000200984
0.000160997
0.000141987
3.45461e-05
0.00012249
0.000265274
0.00042835
0.000568882
0.000626449
0.000535325
0.000393618
0.000273662
0.000194552
0.00014957
3.7566e-05
0.000136514
0.000282416
0.000440567
0.000588542
0.000701403
0.000691717
0.000553225
0.000385829
0.000257435
0.000177946
4.01445e-05
0.000154063
0.000303411
0.000449191
0.000583928
0.00070677
0.000784763
0.000700371
0.000516326
0.000343176
0.000224556
4.24005e-05
0.000171213
0.000324474
0.00045555
0.000567443
0.000676606
0.000783281
0.000788007
0.000630319
0.00043335
0.00028137
4.42571e-05
0.000189902
0.000345577
0.000461256
0.00054748
0.000631689
0.000736817
0.00081064
0.000703635
0.000505724
0.000334065
4.57518e-05
0.000207136
0.000362635
0.000464673
0.000528171
0.000585911
0.000670157
0.000769735
0.000732805
0.000545225
0.000369858
4.67658e-05
0.000221748
0.000375577
0.000464798
0.000509705
0.00054594
0.000602095
0.000676136
0.000716084
0.000548336
0.000382418
4.72147e-05
0.000236037
0.000386701
0.000462243
0.000488955
0.000504394
0.000533815
0.000573693
0.000599113
0.000542584
0.000377916
4.70576e-05
0.000250203
0.000396853
0.000457839
0.000466437
0.000462029
0.000468373
0.000483172
0.000493427
0.000475558
0.00037621
4.61627e-05
0.000264223
0.000407002
0.000452816
0.000443876
0.000422478
0.000412532
0.000412814
0.000414421
0.000405808
0.000373072
4.44092e-05
0.000278939
0.000420617
0.000451898
0.000424043
0.000384538
0.000360105
0.000349484
0.000346863
0.000347509
0.000349881
4.1346e-05
0.00028381
0.00041678
0.000436097
0.000395558
0.000344379
0.000308923
0.000283466
0.000265508
0.000255588
0.000254552
3.39822e-05
0.000255688
0.000384918
0.000417069
0.000384787
0.000326497
0.000259291
0.000197488
0.00017252
0.000157488
0.000143297
2.70493e-05
0.000210443
0.000323629
0.000361924
0.000324148
0.000230936
0.000169929
0.000135437
0.000116298
0.000105299
9.63572e-05
1.79003e-05
0.000101985
0.000133892
0.000125488
9.89062e-05
8.50765e-05
8.06224e-05
8.2763e-05
8.83327e-05
9.36974e-05
9.54975e-05
8.56789e-06
1.06571e-05
1.56695e-05
2.3872e-05
3.72452e-05
5.71731e-05
8.27783e-05
0.000110148
0.000133365
0.00014704
0.000148728
2.57852e-05
6.22408e-05
5.83527e-05
5.7734e-05
5.39159e-05
4.7749e-05
4.41944e-05
4.29443e-05
4.3125e-05
4.44374e-05
4.70773e-05
2.27663e-05
6.43908e-05
5.37208e-05
5.9662e-05
5.57943e-05
4.92551e-05
4.49949e-05
4.3469e-05
4.37488e-05
4.5401e-05
4.84317e-05
2.36937e-05
6.63301e-05
4.97225e-05
6.17687e-05
5.67691e-05
5.06095e-05
4.57828e-05
4.40491e-05
4.4574e-05
4.72506e-05
5.32333e-05
2.64694e-05
6.20493e-05
4.81784e-05
6.21612e-05
5.65039e-05
5.14504e-05
4.61586e-05
4.43763e-05
4.51025e-05
4.86454e-05
5.66007e-05
2.96777e-05
5.73855e-05
4.73442e-05
6.06308e-05
5.59205e-05
5.17778e-05
4.60665e-05
4.43713e-05
4.51639e-05
4.92082e-05
5.80584e-05
3.26148e-05
5.37418e-05
4.65714e-05
5.8556e-05
5.54378e-05
5.16926e-05
4.56677e-05
4.40632e-05
4.47529e-05
4.89379e-05
5.78945e-05
3.52743e-05
5.11812e-05
4.5836e-05
5.67044e-05
5.51444e-05
5.12889e-05
4.51821e-05
4.35203e-05
4.39792e-05
4.80734e-05
5.70743e-05
3.76965e-05
5.0213e-05
4.52187e-05
5.52972e-05
5.50182e-05
5.07278e-05
4.47232e-05
4.28212e-05
4.297e-05
4.67312e-05
5.50233e-05
3.96504e-05
5.01586e-05
4.48252e-05
5.44272e-05
5.50589e-05
5.02738e-05
4.4335e-05
4.20578e-05
4.18473e-05
4.50942e-05
5.26113e-05
4.10132e-05
5.02462e-05
4.36699e-05
5.32149e-05
5.53068e-05
5.01127e-05
4.40992e-05
4.13082e-05
4.07176e-05
4.32823e-05
4.98421e-05
4.19212e-05
5.06798e-05
4.21534e-05
5.03938e-05
5.40869e-05
4.99999e-05
4.40744e-05
4.0668e-05
3.96615e-05
4.14146e-05
4.68252e-05
4.23644e-05
5.1845e-05
4.13567e-05
4.72223e-05
5.15551e-05
4.93991e-05
4.40958e-05
4.02115e-05
3.87432e-05
3.96206e-05
4.37333e-05
4.22131e-05
5.34069e-05
4.12035e-05
4.39821e-05
4.77953e-05
4.7761e-05
4.39026e-05
3.99237e-05
3.80194e-05
3.80635e-05
4.08947e-05
4.15291e-05
5.51447e-05
4.1781e-05
4.10314e-05
4.31383e-05
4.44615e-05
4.28466e-05
3.95807e-05
3.74769e-05
3.68062e-05
3.84341e-05
4.02677e-05
5.73576e-05
4.33475e-05
3.93934e-05
3.91806e-05
4.02073e-05
4.03698e-05
3.86225e-05
3.69009e-05
3.58237e-05
3.64281e-05
3.84489e-05
5.98812e-05
4.58796e-05
3.91543e-05
3.6511e-05
3.6079e-05
3.65829e-05
3.63362e-05
3.56946e-05
3.48332e-05
3.48051e-05
3.61884e-05
6.23999e-05
4.94424e-05
4.04278e-05
3.5429e-05
3.30462e-05
3.25226e-05
3.26393e-05
3.30439e-05
3.30823e-05
3.31313e-05
3.33618e-05
6.50209e-05
5.4128e-05
4.34746e-05
3.63183e-05
3.19224e-05
2.97001e-05
2.88584e-05
2.91308e-05
2.98075e-05
3.04838e-05
3.00552e-05
6.75165e-05
5.99953e-05
4.85601e-05
3.94972e-05
3.31384e-05
2.90628e-05
2.66351e-05
2.56417e-05
2.57056e-05
2.64131e-05
2.63766e-05
6.95384e-05
6.70364e-05
5.61166e-05
4.55986e-05
3.73386e-05
3.13506e-05
2.71399e-05
2.444e-05
2.29913e-05
2.25528e-05
2.24266e-05
7.05304e-05
7.50185e-05
6.67365e-05
5.58096e-05
4.5912e-05
3.79296e-05
3.17369e-05
2.71156e-05
2.38221e-05
2.16453e-05
1.83183e-05
7.0004e-05
8.3216e-05
8.0849e-05
7.198e-05
6.16475e-05
5.19829e-05
4.36503e-05
3.6779e-05
3.12801e-05
2.69851e-05
1.38749e-05
6.40515e-05
8.74966e-05
9.51307e-05
9.3369e-05
8.67522e-05
7.81382e-05
6.91589e-05
6.06678e-05
5.30987e-05
4.65263e-05
9.48187e-06
5.98528e-05
7.88875e-05
9.08957e-05
9.77791e-05
0.000100708
0.00010064
9.84805e-05
9.49814e-05
9.07958e-05
8.62874e-05
2.29914e-05
6.43184e-05
6.02619e-05
5.88404e-05
5.44082e-05
4.76588e-05
4.39221e-05
4.25121e-05
4.23067e-05
4.2882e-05
4.422e-05
1.90244e-05
5.74564e-05
5.52857e-05
6.27356e-05
5.78121e-05
5.03884e-05
4.56353e-05
4.34403e-05
4.2615e-05
4.25449e-05
4.30023e-05
2.01798e-05
5.59574e-05
4.99311e-05
6.62585e-05
6.16721e-05
5.41046e-05
4.87111e-05
4.59966e-05
4.4758e-05
4.42047e-05
4.40349e-05
2.32912e-05
5.11137e-05
4.80979e-05
6.83085e-05
6.43832e-05
5.74444e-05
5.20269e-05
4.95087e-05
4.85438e-05
4.83007e-05
4.83569e-05
2.69536e-05
4.60118e-05
4.78609e-05
6.86989e-05
6.62568e-05
6.04735e-05
5.55618e-05
5.36753e-05
5.34591e-05
5.40866e-05
5.50159e-05
3.04697e-05
4.23418e-05
4.79871e-05
6.84159e-05
6.79593e-05
6.34025e-05
5.92818e-05
5.84084e-05
5.94976e-05
6.18997e-05
6.51674e-05
3.37173e-05
3.99697e-05
4.8164e-05
6.82368e-05
6.97596e-05
6.6372e-05
6.31568e-05
6.35316e-05
6.624e-05
7.09163e-05
7.72623e-05
3.67264e-05
3.84441e-05
4.83758e-05
6.84027e-05
7.16942e-05
6.93938e-05
6.71677e-05
6.88624e-05
7.33261e-05
8.06197e-05
9.10161e-05
3.93258e-05
3.74829e-05
4.86169e-05
6.89403e-05
7.38447e-05
7.24098e-05
7.12572e-05
7.4191e-05
8.04156e-05
9.05804e-05
0.000106303
4.15161e-05
3.6902e-05
4.89041e-05
6.9767e-05
7.62512e-05
7.54237e-05
7.53041e-05
7.92699e-05
8.7005e-05
9.95166e-05
0.000118824
4.32964e-05
3.66595e-05
4.91898e-05
7.07648e-05
7.88183e-05
7.84625e-05
7.91789e-05
8.38793e-05
9.26856e-05
0.000106674
0.000127454
4.46946e-05
3.658e-05
4.94217e-05
7.18205e-05
8.14801e-05
8.14893e-05
8.28341e-05
8.79076e-05
9.72751e-05
0.00011191
0.000133308
4.55203e-05
3.6168e-05
4.84919e-05
7.17457e-05
8.36713e-05
8.44005e-05
8.63393e-05
9.14808e-05
0.000100976
0.000115531
0.000136398
4.57861e-05
3.53019e-05
4.56291e-05
6.93029e-05
8.44394e-05
8.69354e-05
8.96534e-05
9.47018e-05
0.000103953
0.000117828
0.000137307
4.54335e-05
3.4392e-05
4.20976e-05
6.47424e-05
8.3215e-05
8.86184e-05
9.25488e-05
9.75306e-05
0.000106225
0.000118926
0.000136335
4.44273e-05
3.34333e-05
3.83244e-05
5.82568e-05
7.91519e-05
8.85136e-05
9.44869e-05
9.97791e-05
0.000107779
0.000118984
0.000133905
4.27652e-05
3.24001e-05
3.4673e-05
5.05173e-05
7.16341e-05
8.51752e-05
9.42943e-05
0.000100811
0.000108399
0.00011808
0.000130363
4.03492e-05
3.12878e-05
3.14757e-05
4.27127e-05
6.12175e-05
7.72734e-05
8.99466e-05
9.89967e-05
0.000107162
0.000115866
0.000125795
3.7135e-05
2.99739e-05
2.87968e-05
3.57766e-05
4.9635e-05
6.48927e-05
7.94325e-05
9.14199e-05
0.000101503
0.00011057
0.000119252
3.30891e-05
2.8239e-05
2.64901e-05
3.00997e-05
3.88546e-05
5.03288e-05
6.31487e-05
7.5734e-05
8.73785e-05
9.77952e-05
0.000106836
2.81789e-05
2.57737e-05
2.4255e-05
2.56197e-05
3.01276e-05
3.68741e-05
4.52671e-05
5.4635e-05
6.44042e-05
7.40095e-05
8.27673e-05
2.24173e-05
2.21638e-05
2.15151e-05
2.18009e-05
2.35243e-05
2.64733e-05
3.04373e-05
3.51952e-05
4.05097e-05
4.60687e-05
5.13982e-05
1.59012e-05
1.69686e-05
1.74383e-05
1.76661e-05
1.81576e-05
1.90141e-05
2.02251e-05
2.17455e-05
2.34996e-05
2.53636e-05
2.77696e-05
7.75205e-06
1.44897e-05
1.72888e-05
2.03901e-05
2.41209e-05
2.86515e-05
3.41169e-05
4.06218e-05
4.83213e-05
5.74549e-05
6.73773e-05
4.31236e-05
0.000188967
0.000228859
0.000287995
0.000320463
0.000311186
0.000276322
0.000210627
0.000158885
0.000140996
0.000141111
3.38512e-05
0.000115718
0.000156855
0.000188391
0.000209066
0.000215979
0.000239256
0.000245392
0.000177076
0.000144137
0.000138484
2.97459e-05
8.26187e-05
0.000126732
0.000154235
0.000170838
0.000173702
0.000173124
0.000194889
0.000204718
0.000153601
0.000137596
2.62008e-05
7.27605e-05
0.00011019
0.000135881
0.000151944
0.000155468
0.000149338
0.000150568
0.000173946
0.000170266
0.000142047
2.1409e-05
7.34284e-05
0.000103246
0.000125586
0.000140627
0.000145136
0.000138967
0.000131572
0.000137306
0.000160627
0.000154068
1.95684e-05
8.10964e-05
0.000104461
0.000121538
0.000134034
0.000138635
0.000133535
0.000123572
0.000118472
0.000132286
0.000155771
2.11769e-05
9.70388e-05
0.000114588
0.000124089
0.000131961
0.000135192
0.00013081
0.000120608
0.000110783
0.000112644
0.0001376
2.23465e-05
0.000122158
0.000134877
0.000134024
0.000134641
0.000134666
0.000130057
0.000120273
0.000108793
0.00010367
0.000117678
2.22722e-05
0.000136935
0.000157353
0.00014967
0.00014169
0.000136803
0.000130855
0.000121399
0.00010965
0.00010109
0.000105863
2.1244e-05
0.000136562
0.000172787
0.000166782
0.000151698
0.000141069
0.000132894
0.00012343
0.000111984
0.000102
0.000101206
2.02453e-05
0.000132012
0.00017972
0.000180694
0.000162363
0.000146585
0.000135876
0.00012614
0.000115241
0.000105011
0.000101325
1.94408e-05
0.000125474
0.000176984
0.000188528
0.000171365
0.000152256
0.000139416
0.000129412
0.000119222
0.000109518
0.000104859
1.86267e-05
0.000119948
0.000168315
0.000187899
0.000177549
0.000157337
0.000143225
0.000133216
0.00012395
0.000115378
0.000111086
1.76775e-05
0.000113749
0.000158088
0.000181083
0.000180213
0.000161544
0.000147194
0.000137665
0.000129663
0.000122842
0.000120022
1.65195e-05
0.000107462
0.000148135
0.000171645
0.000178536
0.000164828
0.000151354
0.000143034
0.000136867
0.000132554
0.000132383
1.52398e-05
0.000101081
0.000138575
0.000162019
0.000173393
0.000167011
0.000156042
0.000149917
0.00014648
0.000145703
0.000149236
1.38396e-05
9.41283e-05
0.000129133
0.00015269
0.000166978
0.000167971
0.000161729
0.000159222
0.000159807
0.00016382
0.000171841
1.23291e-05
8.65694e-05
0.000119893
0.000143803
0.000160481
0.000168311
0.000168941
0.000171947
0.00017818
0.000188131
0.000200985
1.07959e-05
7.84088e-05
0.000110576
0.000135152
0.00015426
0.000168787
0.000177852
0.000188342
0.000201671
0.000218061
0.00023466
9.28288e-06
6.98185e-05
0.000100668
0.00012618
0.000148228
0.000169635
0.000187564
0.000206353
0.000226747
0.000248317
0.000266477
7.81306e-06
6.07662e-05
8.9823e-05
0.000116387
0.000142299
0.000169621
0.000194463
0.000219094
0.00024334
0.000266488
0.000284137
6.98095e-06
4.88971e-05
7.41779e-05
0.000101716
0.000132141
0.000161581
0.000187874
0.000211978
0.000233724
0.000253168
0.000267815
7.12285e-06
3.82802e-05
5.80627e-05
8.33658e-05
0.000109058
0.000132559
0.000152473
0.000168058
0.000180032
0.000190925
0.000202803
8.83975e-06
9.77166e-06
1.15711e-05
1.47785e-05
1.89462e-05
2.3996e-05
2.96037e-05
3.5519e-05
4.21855e-05
5.21227e-05
7.10691e-05
3.90656e-05
0.000227941
0.000296113
0.000311871
0.000305077
0.000284764
0.000245657
0.000190304
0.000151863
0.000140496
0.000144556
2.49867e-05
0.000181188
0.000277528
0.000313306
0.000312069
0.000291913
0.000251387
0.000192793
0.000150832
0.000138649
0.000143599
2.24341e-05
0.000164145
0.000269108
0.000325333
0.000332623
0.000313054
0.000270166
0.000203938
0.000151773
0.000135219
0.000139728
2.33611e-05
0.000155694
0.000270575
0.000342182
0.000357557
0.00033951
0.000296105
0.000223137
0.000155979
0.000130468
0.000131907
2.51588e-05
0.000148929
0.000272177
0.000367248
0.000395286
0.000378476
0.000334157
0.000256505
0.000169637
0.000127049
0.000119131
2.703e-05
0.000145501
0.00027077
0.000376477
0.00043165
0.000440363
0.000402328
0.000318295
0.000206264
0.000135236
0.000113574
2.87565e-05
0.000143294
0.000270487
0.000380699
0.00044797
0.000477308
0.000465686
0.000399604
0.000276401
0.000165549
0.000119521
3.03912e-05
0.000141717
0.000270601
0.000383539
0.000460101
0.00050598
0.000513882
0.000466782
0.000350594
0.00021525
0.000140188
3.17313e-05
0.000140425
0.000270494
0.000385131
0.000469031
0.000528922
0.000556767
0.000534866
0.000439547
0.000293698
0.000184485
3.27542e-05
0.000138674
0.000269792
0.000385767
0.000476229
0.000547816
0.000594445
0.000599346
0.000534527
0.000400745
0.000268658
3.34207e-05
0.000136007
0.000267608
0.000385245
0.000481525
0.000563305
0.000626796
0.000657141
0.000626721
0.00052593
0.000402637
3.38358e-05
0.000132695
0.000264245
0.000383505
0.000484787
0.000575302
0.000653042
0.000704822
0.000704613
0.000639253
0.000538657
3.39246e-05
0.000128454
0.000259417
0.000380127
0.000485675
0.000583542
0.000672833
0.000741392
0.000764732
0.000730917
0.000667385
3.3707e-05
0.000122846
0.000252428
0.000374349
0.000483518
0.000587458
0.000685708
0.000766304
0.000805332
0.000793031
0.000756519
3.31475e-05
0.000115752
0.000243251
0.00036574
0.000477636
0.000586223
0.000690973
0.000779528
0.000827693
0.000828265
0.000811969
3.22176e-05
0.000105977
0.000228864
0.000350732
0.00046372
0.00057459
0.000683062
0.000776999
0.000831554
0.000839886
0.000839007
3.09096e-05
9.39644e-05
0.000208731
0.000327847
0.000439369
0.000548335
0.00065466
0.000748256
0.000807359
0.000824805
0.000837447
2.91579e-05
8.06103e-05
0.000183277
0.000296729
0.000404502
0.000508531
0.000608579
0.000697471
0.000758996
0.000786091
0.00080704
2.69254e-05
6.66522e-05
0.000153378
0.000257123
0.000358611
0.000455582
0.000547021
0.000628386
0.000689628
0.000724749
0.000750417
2.41849e-05
5.26664e-05
0.000120499
0.000209445
0.000301088
0.000389046
0.000470715
0.000543157
0.000601216
0.000640775
0.000667523
2.08968e-05
3.93658e-05
8.7137e-05
0.00015616
0.00023281
0.000308668
0.000379291
0.000441958
0.000494235
0.000533774
0.000559666
1.70591e-05
2.74672e-05
5.6753e-05
0.000102722
0.000158507
0.000217158
0.000273589
0.000324625
0.000368506
0.000403848
0.000427812
1.26668e-05
1.70035e-05
3.14252e-05
5.55884e-05
8.75793e-05
0.000123994
0.000161278
0.000196614
0.000228318
0.000255617
0.000276972
7.90203e-06
1.00183e-05
1.65802e-05
2.6547e-05
3.94839e-05
5.45246e-05
7.05224e-05
8.63779e-05
0.000101493
0.000116413
0.000133376
2.21659e-05
2.30513e-05
2.34468e-05
2.33629e-05
2.31081e-05
2.17182e-05
2.15209e-05
2.17706e-05
2.19843e-05
6.82718e-05
0.000104613
0.000132384
0.000149219
0.000159955
0.000151321
0.000131264
0.000115602
9.97785e-05
0.000122215
0.000181696
0.000216393
0.00024041
0.00025061
0.000239347
0.000207624
0.000183615
0.000161481
0.00015624
0.000234642
0.000275826
0.000301197
0.000305296
0.000298625
0.00025548
0.000230052
0.000207482
1.99142e-05
1.32423e-05
1.14594e-05
1.15044e-05
1.03381e-05
1.21757e-05
1.82906e-05
2.0782e-05
2.17973e-05
4.23509e-05
3.78421e-05
4.52422e-05
6.40575e-05
3.7198e-05
3.29113e-05
3.27324e-05
4.65215e-05
6.97766e-05
7.19092e-05
5.26934e-05
5.40166e-05
8.37005e-05
4.56151e-05
4.25917e-05
5.23405e-05
8.07779e-05
0.000120978
9.14074e-05
6.28591e-05
5.85694e-05
9.65208e-05
5.71988e-05
5.02879e-05
6.53759e-05
0.000101716
0.000156435
0.000209168
0.000229716
0.000229768
0.000238894
0.000248131
0.000258222
7.23769e-05
0.000229765
0.000260485
0.000241378
0.000248423
0.000229783
0.00023881
0.00024271
0.000135241
0.00025019
0.000240903
0.000239735
0.000250343
0.000258968
0.000243324
0.000226081
0.000229955
0.000244258
0.000229826
0.000242231
0.000238707
7.94861e-05
0.000323561
0.000243819
0.000241594
0.000242856
0.000241561
0.000229732
0.000245676
0.000229669
0.000245952
0.000230546
0.000241877
0.000247929
2.19701e-05
0.000229674
0.00024386
0.000229936
0.00023445
0.000171351
0.00025008
0.000138573
0.000248355
0.000252716
0.000245001
0.000246479
0.000247224
0.000243897
0.000250512
0.000243079
0.000238766
0.00024404
0.000317701
0.000241843
5.16551e-05
0.000247176
0.000249637
0.000237406
2.39291e-05
0.000259866
0.00024256
0.000250674
0.000229709
0.000242072
0.000238438
0.000250781
0.000238984
0.0002639
0.000252772
0.000251814
0.000155286
0.000229738
0.000253128
7.88456e-05
0.000242649
0.000237148
0.000231147
0.000229799
0.000250403
0.000238572
0.000249133
0.000245091
0.000248006
0.000255689
0.000229713
0.000241124
1.95605e-05
0.000253759
7.87719e-05
0.000164316
0.000246921
0.000244022
0.000247454
0.000255756
0.000251528
0.00011697
0.000246237
0.000240474
0.000245327
0.000229738
0.000243772
0.000229871
0.000243235
0.000250714
0.000209726
0.000229632
0.000251672
0.000236472
0.000243696
0.000241835
0.000248955
0.000247325
0.000230903
0.000248697
0.000236845
0.000263272
0.000269014
0.000240061
0.000177927
0.000250676
0.000249475
0.000241508
0.000249091
0.000243356
0.000234465
0.000242258
0.000127998
0.000250979
0.000229754
0.000253636
0.000233989
0.000237033
0.00024359
0.000248135
0.000243249
0.000245147
0.000211277
0.000224323
0.000249898
0.000242496
0.000255128
0.000250398
0.000239344
0.000244643
0.000246265
0.00024469
0.000246656
0.00026243
0.000236482
0.000243856
0.000238683
0.000253981
0.00024296
0.000256196
0.000238011
0.000244071
0.000251352
0.000241186
0.000244188
0.000257047
0.000251455
0.000248311
0.000252385
2.15847e-05
0.000243377
0.000236735
0.000253379
0.000242455
0.000243536
0.000236876
0.000238487
0.000245793
0.000220731
0.000235731
0.000250892
0.000223298
0.00022994
0.000246958
0.000230918
0.000239305
0.000246319
0.000248391
0.000229679
0.000254887
0.00024332
0.000237684
0.00024822
2.32237e-05
0.000229741
0.000248796
0.000259669
0.000246814
0.000242721
0.00023
0.000252594
0.000257024
0.000245164
0.000242684
0.000229807
0.00024543
0.000252515
0.000248803
0.000260437
0.000252328
0.000253212
0.000244249
0.000227313
0.000246758
0.000230394
0.000244911
0.000230517
0.000250137
0.000250109
0.00024291
0.000239418
0.000236477
0.000248271
0.000243311
0.000239826
0.000244205
0.000246633
0.000251532
0.000242756
0.000245403
0.000253534
0.00024641
0.0002465
0.00026187
0.00024511
0.00012022
0.000242119
0.000229888
0.00022979
0.000229818
0.000250901
0.000244542
0.000240615
2.82908e-05
0.00025963
0.000244812
0.000230023
0.000237805
0.000195416
0.000243243
0.000237963
0.000253618
0.000258063
0.000253281
0.000245417
0.000259881
0.000243886
0.00023173
0.000241987
0.000246277
0.000237983
0.000253222
0.000250671
0.000229699
0.00021463
0.000250705
0.000245631
0.000262188
0.000156687
0.000237376
0.000248698
0.00025209
0.000256319
0.000250528
0.000258254
0.000245815
0.000239215
0.000240533
0.000248049
0.000244889
0.00025196
0.000229794
0.000242769
0.000243802
0.000244907
0.000252867
0.000236509
0.00022982
0.000248744
0.000243008
0.000229837
0.000113959
0.000249144
0.000245963
0.000230011
0.000261276
0.000252379
0.000229346
0.000246186
0.000238514
0.00023913
0.000238039
0.000247738
0.000243574
0.000244139
0.000251129
0.000229751
0.000254487
0.00023487
0.000235073
5.80002e-05
0.000229688
0.000249364
0.000241632
0.000116673
0.000247002
0.00024378
0.000246978
0.000245804
0.000258261
0.000244205
0.000251151
0.000251706
0.00023671
0.000241607
0.000248536
0.000235798
0.000244198
0.000244149
0.000247787
0.000256967
0.000249674
0.000145415
0.000229885
0.000241026
0.000167192
0.000238283
0.000229726
0.000234622
0.000244422
0.000255595
0.000254421
0.000255485
0.000251174
0.000247618
0.000255328
0.000243134
0.00025116
0.000244656
0.00024906
4.55195e-05
0.000240206
0.000236429
0.000245568
0.000212038
0.000230036
0.000239406
0.000236771
0.000229935
0.00024697
0.00021751
0.000240404
0.000230228
0.00023039
0.000257337
0.000249855
0.000236944
0.000241561
5.11341e-05
0.000257392
0.000242418
0.000249772
0.00018369
0.00024169
0.000209042
0.000229822
0.000214413
0.000244829
0.000257302
0.000244317
0.000248194
0.000249271
0.000242779
0.000244728
0.000237908
0.000239978
0.000238285
0.00023968
0.000245495
0.000253974
0.000241931
0.000198957
0.000243177
0.000247529
0.000240098
2.35255e-05
0.000231098
0.000238466
0.000229817
0.000241361
0.000241643
0.000244919
0.000229934
0.000242152
0.000241841
2.14108e-05
0.000254333
0.000247091
0.000256107
0.000251956
0.000247332
0.00025013
0.000243585
0.00024289
0.000250419
0.000249574
0.000243547
0.0002675
0.000237667
0.000256887
0.000246065
0.000240301
6.22064e-05
0.000243469
0.000237372
0.000249909
0.000263028
0.000101138
0.000253312
9.29025e-05
0.000231496
0.000242251
0.000236043
0.000246752
0.000257535
0.000240759
0.000248789
0.000244425
0.000240008
0.000230034
0.000237704
0.000219014
0.000253079
0.00023826
0.00024737
0.00024213
0.000240081
0.000251812
0.000256014
0.000245706
0.000239173
0.00022975
0.000231253
0.000263314
0.000255746
5.45866e-05
0.000243262
0.000254161
0.000116753
0.000229684
0.000253924
0.000249363
0.000242067
0.000244911
0.000247851
3.75677e-05
4.12166e-05
2.96836e-05
2.93526e-05
0.000255964
0.000236938
0.000241454
0.000246059
5.10971e-05
0.000246563
0.000229789
0.000252201
8.45292e-05
0.000248762
0.000245949
0.000235692
0.000243897
0.000240419
0.000214535
0.000229893
0.000243732
0.000248042
0.000215511
0.000240831
0.000259556
0.000253843
0.000247
0.000246984
0.000246617
0.000246263
0.00024228
0.000252557
0.000236959
0.00022325
0.000260298
0.000240032
0.000244511
0.000229938
0.000229711
0.000181005
0.000240574
0.000242552
0.000256805
9.46454e-05
0.000229771
0.000244375
0.000170413
0.000255726
0.000254799
0.000252293
0.000240227
0.000243614
0.000237966
0.000235141
0.00023719
0.000246424
0.000229788
0.000246654
0.000229667
0.000248102
0.000249039
0.000229644
0.000257731
0.00024408
0.000241408
0.00010688
0.000260214
0.000250123
0.000237281
0.000249523
0.000230008
0.000233158
0.000229837
2.41614e-05
0.000249215
0.00023057
0.000231473
0.000240049
0.00022977
0.000250205
0.000229746
0.000245335
0.00024881
0.000256947
0.000244611
0.000240095
0.000155526
0.000243818
0.000245267
0.000245753
0.000240446
0.00022979
0.000240651
0.000251057
0.000242089
0.000242316
0.000255608
0.000147132
0.000231122
0.000257034
0.000229701
0.00024022
0.000239807
0.000146812
0.000229818
0.000254348
0.000244306
0.000248415
0.000244495
0.000248038
0.000250243
0.000249405
0.000188969
0.000147784
0.000235229
0.000243536
0.000255589
0.000251168
0.000239085
0.000244404
9.03978e-05
0.000260234
0.000229861
0.000229983
8.13198e-05
0.000247124
0.000237247
0.000238993
0.000241814
0.000241256
0.00025589
0.000241953
0.000245844
0.000237503
0.000231638
0.00016913
0.000250001
0.000207359
0.000257667
0.000230698
0.000259663
0.000246099
0.000255808
0.000246689
0.000242654
0.000243499
0.000244927
0.000241314
0.000157159
0.000249195
0.000256317
0.000254104
0.000250255
0.000248061
0.000236908
0.000192898
0.00025193
0.000245891
0.000253208
0.000240825
0.000246229
0.000256172
0.000144673
0.000229726
0.000249342
0.000241791
0.000246153
0.000226068
0.000247728
0.000239745
0.000263387
0.000259335
0.000193805
0.000254399
0.000235294
0.000251779
0.000238525
0.00024002
0.000229776
0.000247184
0.000242337
0.000242717
0.000246125
0.000251727
0.000236183
0.000243985
0.00019629
0.000234796
0.000282791
0.000237343
0.000248131
0.00022948
0.000234488
0.00024521
0.000241411
0.000242218
0.000259187
0.000248037
0.000229669
0.000241589
6.20596e-05
0.000245731
0.000247207
0.000248719
0.000233869
0.000236765
0.000257364
0.00021072
0.000254685
0.000258823
0.000257462
0.000195756
0.000240922
0.000229934
0.000241911
0.000240216
0.000243363
0.000181438
0.000237572
0.000248624
0.000229828
0.000207418
0.000242347
0.000264168
0.000249497
0.000251878
0.000249269
0.000229817
0.000232234
0.000245849
0.00024042
0.000229729
0.00025216
0.000249308
0.000239092
0.000244688
0.000229543
0.000239307
0.000260609
0.000248718
0.000243462
0.000244255
0.000239753
3.22333e-05
0.000245184
0.000252371
0.000241292
0.000242801
0.000253176
0.000242132
6.55017e-05
0.000232933
0.000243675
0.000228724
0.000255026
5.99033e-05
0.000257613
0.000253106
0.000242978
0.00024786
0.000249513
0.000248026
0.000250524
0.000229672
0.000243663
0.000243291
0.000245774
0.000248808
0.000204235
0.000239985
0.000241553
0.000254372
0.000240644
0.000246777
0.000244925
0.000219258
0.000239937
0.000253781
0.000229654
9.51261e-05
0.000234709
0.000260422
0.000258616
0.000253076
0.000248196
0.00024723
0.000240317
0.000251737
0.000241602
0.000229683
0.000242177
0.000241983
0.000246148
0.000240594
0.000253374
0.000243148
0.000250019
0.000247142
0.000142735
0.000233804
0.000242509
0.000231683
0.000245066
0.000258534
0.000254666
0.00024842
0.000243874
0.000244807
0.000256589
0.000236831
0.000250438
0.000240022
0.000243855
0.000203685
0.00023005
0.000231572
0.000249067
0.000248504
0.000249024
0.000241478
0.000229788
0.000243899
0.000249949
0.000229639
0.000229643
0.000229788
0.000228757
0.000259798