/*--------------------------------*- C++ -*----------------------------------*\
| =========                 |                                                 |
| \\      /  F ield         | OpenFOAM: The Open Source CFD Toolbox           |
|  \\    /   O peration     | Version:  3.0.1                                 |
|   \\  /    A nd           | Web:      www.OpenFOAM.org                      |
|    \\/     M anipulation  |                                                 |
\*---------------------------------------------------------------------------*/
FoamFile
{
    version     2.0;
    format      ascii;
    class       surfaceScalarField;
    location    "0.0399651";
    object      phi;
}
// * * * * * * * * * * * * * * * * * * * * * * * * * * * * * * * * * * * * * //

dimensions      [0 3 -1 0 0 0 0];

internalField   nonuniform List<scalar> 
32369
(
-5.35462e-06
-7.05929e-06
1.24139e-05
-8.63334e-06
-8.14223e-06
1.14209e-05
-1.14115e-05
-9.78692e-06
1.25651e-05
-1.44016e-05
-1.16283e-05
1.46184e-05
-1.76096e-05
-1.35083e-05
1.67163e-05
-2.10165e-05
-1.53405e-05
1.87474e-05
-2.47972e-05
-1.70955e-05
2.08763e-05
-2.91747e-05
-1.87075e-05
2.30849e-05
-3.43318e-05
-2.0038e-05
2.51951e-05
-4.05024e-05
-2.08526e-05
2.70232e-05
-2.07227e-05
2.82254e-05
-4.8005e-05
-5.00553e-06
-2.05375e-06
-9.10302e-06
-4.04474e-06
-1.28169e-05
-6.07307e-06
-1.6326e-05
-8.11916e-06
-1.97835e-05
-1.00508e-05
-2.33622e-05
-1.17618e-05
-2.72818e-05
-1.31759e-05
-3.17928e-05
-1.41965e-05
-3.71618e-05
-1.4669e-05
-4.36958e-05
-1.43187e-05
-1.27188e-05
-5.16997e-05
-2.72447e-06
6.7072e-07
-5.87689e-06
-8.92323e-07
-9.39001e-06
-2.55995e-06
-1.31482e-05
-4.36101e-06
-1.71088e-05
-6.09019e-06
-2.12963e-05
-7.57426e-06
-2.58476e-05
-8.62468e-06
-3.09692e-05
-9.07478e-06
-3.69144e-05
-8.72378e-06
-4.3966e-05
-7.26712e-06
-4.21733e-06
-5.24675e-05
-1.4674e-06
2.13812e-06
-3.68906e-06
1.32934e-06
-6.65382e-06
4.04811e-07
-1.01713e-05
-8.43488e-07
-1.41335e-05
-2.12805e-06
-1.8542e-05
-3.16574e-06
-2.34514e-05
-3.71532e-06
-2.89951e-05
-3.53106e-06
-3.5348e-05
-2.37085e-06
-4.27128e-05
9.77029e-08
4.43906e-06
-5.13692e-05
-8.71112e-07
3.00923e-06
-2.35418e-06
2.81241e-06
-4.60934e-06
2.65997e-06
-7.61719e-06
2.16436e-06
-1.13283e-05
1.58302e-06
-1.56547e-05
1.16071e-06
-2.0587e-05
1.21695e-06
-2.61964e-05
2.07835e-06
-3.2663e-05
4.09581e-06
-4.02465e-05
7.68115e-06
1.34089e-05
-4.92164e-05
-7.94774e-07
3.804e-06
-2.00287e-06
4.02051e-06
-3.70725e-06
4.36434e-06
-6.07498e-06
4.53209e-06
-9.20323e-06
4.71127e-06
-1.31308e-05
5.08828e-06
-1.7857e-05
5.94314e-06
-2.34012e-05
7.6226e-06
-2.98389e-05
1.05334e-05
-3.73151e-05
1.51574e-05
2.2197e-05
-4.61031e-05
-7.42281e-07
4.54629e-06
-1.87577e-06
5.154e-06
-3.36945e-06
5.85802e-06
-5.40321e-06
6.56585e-06
-8.10613e-06
7.41419e-06
-1.15762e-05
8.55838e-06
-1.58776e-05
1.02445e-05
-2.10605e-05
1.28055e-05
-2.71951e-05
1.6668e-05
-3.43833e-05
2.23455e-05
3.05369e-05
-4.27232e-05
-7.46929e-07
5.29321e-06
-1.78255e-06
6.18962e-06
-3.15995e-06
7.23542e-06
-4.98823e-06
8.39413e-06
-7.39193e-06
9.81789e-06
-1.04898e-05
1.16562e-05
-1.43827e-05
1.41374e-05
-1.91558e-05
1.75787e-05
-2.48994e-05
2.24116e-05
-3.17178e-05
2.91639e-05
3.8626e-05
-3.98068e-05
-7.15521e-07
6.00874e-06
-1.70391e-06
7.17801e-06
-2.98469e-06
8.5162e-06
-4.66198e-06
1.00714e-05
-6.84361e-06
1.19995e-05
-9.64811e-06
1.44607e-05
-1.31889e-05
1.76782e-05
-1.75748e-05
2.19646e-05
-2.2909e-05
2.77457e-05
-2.93403e-05
3.55952e-05
4.63282e-05
-3.70425e-05
-6.24117e-07
6.63285e-06
-1.5267e-06
8.08059e-06
-2.70802e-06
9.69752e-06
-4.25313e-06
1.16165e-05
-6.25567e-06
1.40021e-05
-8.82497e-06
1.703e-05
-1.2078e-05
2.09312e-05
-1.61294e-05
2.6016e-05
-2.11114e-05
3.27278e-05
-2.71634e-05
4.16472e-05
5.35667e-05
-3.4402e-05
-5.4147e-07
7.17432e-06
-1.36019e-06
8.89931e-06
-2.44191e-06
1.07792e-05
-3.85913e-06
1.30338e-05
-5.69966e-06
1.58426e-05
-8.06393e-06
1.93943e-05
-1.10612e-05
2.39285e-05
-1.48122e-05
2.97671e-05
-1.94491e-05
3.73647e-05
-2.51283e-05
4.73264e-05
6.04206e-05
-3.19822e-05
-5.35846e-07
7.71017e-06
-1.30523e-06
9.66869e-06
-2.30343e-06
1.17774e-05
-3.60444e-06
1.43348e-05
-5.28788e-06
1.7526e-05
-7.45186e-06
2.15582e-05
-1.0203e-05
2.66796e-05
-1.36573e-05
3.32214e-05
-1.79507e-05
4.16581e-05
-2.32308e-05
5.26065e-05
6.68579e-05
-2.96681e-05
-4.95096e-07
8.20526e-06
-1.192e-06
1.03656e-05
-2.09856e-06
1.2684e-05
-3.27903e-06
1.55152e-05
-4.81134e-06
1.90584e-05
-6.78522e-06
2.35321e-05
-9.30595e-06
2.92003e-05
-1.24903e-05
3.64057e-05
-1.6454e-05
4.56218e-05
-2.13585e-05
5.7511e-05
7.29003e-05
-2.74009e-05
-3.6528e-07
8.57054e-06
-9.42081e-07
1.09424e-05
-1.72804e-06
1.34699e-05
-2.77432e-06
1.65615e-05
-4.15002e-06
2.0434e-05
-5.93604e-06
2.53181e-05
-8.22583e-06
3.14901e-05
-1.11301e-05
3.931e-05
-1.47631e-05
4.92548e-05
-1.92497e-05
6.19977e-05
7.84168e-05
-2.47662e-05
-3.31302e-07
8.90185e-06
-8.21605e-07
1.14327e-05
-1.48632e-06
1.41347e-05
-2.38502e-06
1.74602e-05
-3.57671e-06
2.16257e-05
-5.14016e-06
2.68816e-05
-7.16856e-06
3.35185e-05
-9.74955e-06
4.1891e-05
-1.2982e-05
5.24873e-05
-1.69958e-05
6.60114e-05
8.32932e-05
-2.18721e-05
-2.62573e-07
9.16442e-06
-6.38884e-07
1.1809e-05
-1.16263e-06
1.46584e-05
-1.88178e-06
1.81794e-05
-2.86607e-06
2.261e-05
-4.18349e-06
2.8199e-05
-5.91191e-06
3.52469e-05
-8.13026e-06
4.41093e-05
-1.09166e-05
5.52736e-05
-1.43222e-05
6.94171e-05
8.74409e-05
-1.847e-05
-1.03657e-07
9.26808e-06
-2.97619e-07
1.2003e-05
-6.29484e-07
1.49903e-05
-1.13782e-06
1.86877e-05
-1.87327e-06
2.33455e-05
-2.90806e-06
2.92338e-05
-4.3008e-06
3.66396e-05
-6.10056e-06
4.59091e-05
-8.33528e-06
5.75083e-05
-1.10414e-05
7.21231e-05
9.07047e-05
-1.43051e-05
1.98384e-08
9.24824e-06
1.24087e-08
1.20104e-05
-9.75341e-08
1.51002e-05
-3.45919e-07
1.89361e-05
-7.84975e-07
2.37845e-05
-1.47188e-06
2.99207e-05
-2.44263e-06
3.76104e-05
-3.71166e-06
4.71781e-05
-5.26718e-06
5.90639e-05
-7.0969e-06
7.39529e-05
9.27756e-05
-9.16782e-06
1.7013e-07
9.07811e-06
3.95836e-07
1.17847e-05
5.56846e-07
1.49392e-05
6.18259e-07
1.88747e-05
5.39514e-07
2.38633e-05
2.78906e-07
3.01813e-05
-1.68685e-07
3.8058e-05
-7.65806e-07
4.77752e-05
-1.43168e-06
5.97297e-05
-2.08572e-06
7.46069e-05
9.3416e-05
-2.72611e-06
3.60001e-07
8.71811e-06
8.67345e-07
1.12774e-05
1.34326e-06
1.44633e-05
1.77249e-06
1.84455e-05
2.11415e-06
2.35216e-05
2.37008e-06
2.99254e-05
2.58939e-06
3.78387e-05
2.87974e-06
4.74849e-05
3.3671e-06
5.92424e-05
4.19706e-06
7.3777e-05
9.21117e-05
5.5013e-06
5.67514e-07
8.15059e-06
1.40733e-06
1.04375e-05
2.23135e-06
1.36393e-05
3.05977e-06
1.7617e-05
3.89237e-06
2.2689e-05
4.79063e-06
2.90271e-05
5.87883e-06
3.67505e-05
7.31699e-06
4.60467e-05
9.28291e-06
5.72764e-05
1.19787e-05
7.10812e-05
8.8472e-05
1.56185e-05
7.93274e-07
7.35732e-06
1.87175e-06
9.35906e-06
3.04154e-06
1.24695e-05
4.28788e-06
1.63707e-05
5.69917e-06
2.12777e-05
7.42437e-06
2.73019e-05
9.64108e-06
3.45338e-05
1.25348e-05
4.3153e-05
1.63244e-05
5.34869e-05
2.12683e-05
6.61372e-05
8.2039e-05
2.77013e-05
7.19879e-07
6.63744e-06
2.20385e-06
7.87509e-06
3.49488e-06
1.11784e-05
5.129e-06
1.47366e-05
7.2555e-06
1.91512e-05
1.00459e-05
2.45115e-05
1.36617e-05
3.0918e-05
1.82987e-05
3.8516e-05
2.41826e-05
4.7603e-05
3.16269e-05
5.86929e-05
7.26194e-05
4.10466e-05
-2.25564e-06
8.89308e-06
-1.13112e-06
6.75057e-06
1.11221e-06
8.93512e-06
3.94467e-06
1.19041e-05
7.47352e-06
1.56224e-05
1.1875e-05
2.011e-05
1.73006e-05
2.54924e-05
2.39426e-05
3.1874e-05
3.20969e-05
3.94486e-05
4.21717e-05
4.86181e-05
6.00658e-05
5.47252e-05
5.16638e-06
7.24753e-06
7.60699e-06
8.98034e-06
7.38748e-06
1.27846e-05
5.43872e-06
1.65671e-05
2.08545e-06
2.00696e-05
-2.5266e-06
2.33594e-05
-8.09753e-06
2.64472e-05
-1.43916e-05
2.9379e-05
-2.14401e-05
3.22435e-05
-2.94956e-05
3.50788e-05
3.73535e-05
-3.86238e-05
5.87656e-06
1.37097e-06
9.79643e-06
5.06047e-06
1.23657e-05
1.02153e-05
1.34976e-05
1.54352e-05
1.2776e-05
2.07912e-05
9.95083e-06
2.61846e-05
5.0959e-06
3.13021e-05
-1.47819e-06
3.59531e-05
-9.31721e-06
4.00826e-05
-1.81933e-05
4.3955e-05
4.77056e-05
-2.85454e-05
3.40914e-06
-2.03817e-06
7.71264e-06
7.5697e-07
1.16159e-05
6.31208e-06
1.46744e-05
1.23766e-05
1.62619e-05
1.92037e-05
1.59297e-05
2.65168e-05
1.33523e-05
3.38795e-05
8.47007e-06
4.08354e-05
1.4972e-06
4.70554e-05
-7.03293e-06
5.24851e-05
5.75079e-05
-1.68352e-05
1.36145e-06
-3.39962e-06
4.81493e-06
-2.69651e-06
9.74078e-06
1.38623e-06
1.41335e-05
7.98392e-06
1.75361e-05
1.58012e-05
1.94318e-05
2.46211e-05
1.92906e-05
3.40207e-05
1.67192e-05
4.34068e-05
1.16337e-05
5.21409e-05
4.34052e-06
5.97783e-05
6.64271e-05
-4.57874e-06
1.00817e-06
-4.40778e-06
2.78301e-06
-4.47135e-06
6.95512e-06
-2.78588e-06
1.24219e-05
2.51711e-06
1.74536e-05
1.07694e-05
2.13515e-05
2.07232e-05
2.35183e-05
3.18539e-05
2.33941e-05
4.3531e-05
2.06146e-05
5.49204e-05
1.51875e-05
6.52054e-05
7.40141e-05
7.60049e-06
1.23418e-06
-5.64196e-06
2.70365e-06
-5.94083e-06
5.32135e-06
-5.40358e-06
1.0265e-05
-2.42658e-06
1.63163e-05
4.71823e-06
2.19449e-05
1.50946e-05
2.62398e-05
2.7559e-05
2.8494e-05
4.12768e-05
2.81534e-05
5.5261e-05
2.49872e-05
6.83715e-05
7.97744e-05
1.92269e-05
1.34417e-06
-6.98614e-06
2.98557e-06
-7.58223e-06
5.16711e-06
-7.58512e-06
8.82345e-06
-6.08293e-06
1.475e-05
-1.20837e-06
2.14389e-05
8.40575e-06
2.75138e-05
2.14841e-05
3.19457e-05
3.68449e-05
3.39896e-05
5.32171e-05
3.3184e-05
6.91771e-05
8.32804e-05
2.96779e-05
1.34613e-06
-8.33227e-06
3.0834e-06
-9.31949e-06
5.32126e-06
-9.82298e-06
8.3323e-06
-9.09397e-06
1.32724e-05
-6.14847e-06
2.01934e-05
1.48477e-06
2.74053e-05
1.42722e-05
3.36398e-05
3.06105e-05
3.78753e-05
4.89817e-05
3.94501e-05
6.76023e-05
8.47453e-05
3.79853e-05
1.24801e-06
-9.58028e-06
2.92147e-06
-1.09929e-05
5.10546e-06
-1.2007e-05
7.99048e-06
-1.1979e-05
1.20491e-05
-1.02071e-05
1.83788e-05
-4.84494e-06
2.60429e-05
6.60809e-06
3.35406e-05
2.31127e-05
3.96432e-05
4.28791e-05
4.359e-05
6.36555e-05
8.30789e-05
4.52563e-05
1.10553e-06
-1.06858e-05
2.55956e-06
-1.2447e-05
4.46499e-06
-1.39124e-05
7.04674e-06
-1.45607e-05
1.06534e-05
-1.38137e-05
1.60505e-05
-1.02421e-05
2.36411e-05
-9.82502e-07
3.16579e-05
1.5096e-05
3.90252e-05
3.55118e-05
4.48463e-05
5.78344e-05
7.93437e-05
4.85815e-05
7.30936e-07
-1.14167e-05
1.90757e-06
-1.36236e-05
3.40036e-06
-1.54052e-05
5.4711e-06
-1.66315e-05
8.4442e-06
-1.67868e-05
1.28289e-05
-1.46268e-05
1.96138e-05
-7.7674e-06
2.77559e-05
6.95385e-06
3.58877e-05
2.73799e-05
4.31989e-05
5.05233e-05
7.31866e-05
4.93559e-05
5.15694e-07
-1.19324e-05
1.25915e-06
-1.43671e-05
2.15972e-06
-1.63058e-05
3.5223e-06
-1.79941e-05
5.59736e-06
-1.88619e-05
8.9118e-06
-1.79412e-05
1.43789e-05
-1.32345e-05
2.20644e-05
-7.31698e-07
3.01525e-05
1.92919e-05
3.85e-05
4.21757e-05
6.43537e-05
4.7333e-05
1.76574e-07
-1.2109e-05
3.7913e-07
-1.45696e-05
6.89668e-07
-1.66163e-05
1.18984e-06
-1.84942e-05
2.09396e-06
-1.9766e-05
3.82747e-06
-1.96747e-05
7.35555e-06
-1.67625e-05
1.37467e-05
-7.12289e-06
2.16825e-05
1.13561e-05
3.03612e-05
3.3497e-05
5.49723e-05
3.97427e-05
-2.7685e-07
-1.18322e-05
-6.49941e-07
-1.41965e-05
-1.06905e-06
-1.61972e-05
-1.50149e-06
-1.80618e-05
-1.82879e-06
-1.94387e-05
-1.7622e-06
-1.97413e-05
-5.91614e-07
-1.79331e-05
3.73542e-06
-1.14499e-05
1.1708e-05
3.38352e-06
2.01854e-05
2.50196e-05
4.51318e-05
3.00259e-05
-7.05783e-07
-1.11264e-05
-1.70293e-06
-1.31994e-05
-2.92991e-06
-1.49702e-05
-4.38401e-06
-1.66077e-05
-5.99141e-06
-1.78313e-05
-7.5327e-06
-1.82e-05
-8.46825e-06
-1.69976e-05
-7.08457e-06
-1.28336e-05
-9.03164e-07
-2.79788e-06
8.66602e-06
1.54504e-05
3.40751e-05
1.97227e-05
-1.19613e-06
-9.93025e-06
-2.87158e-06
-1.15239e-05
-4.97866e-06
-1.28631e-05
-7.53102e-06
-1.40553e-05
-1.0465e-05
-1.48974e-05
-1.35392e-05
-1.51258e-05
-1.6193e-05
-1.43438e-05
-1.72788e-05
-1.17478e-05
-1.4188e-05
-5.88865e-06
-4.39731e-06
5.65966e-06
2.06632e-05
9.01465e-06
-1.74896e-06
-8.18129e-06
-4.14539e-06
-9.12751e-06
-7.1689e-06
-9.83962e-06
-1.08374e-05
-1.03868e-05
-1.50617e-05
-1.0673e-05
-1.95548e-05
-1.06327e-05
-2.36787e-05
-1.02199e-05
-2.6206e-05
-9.22046e-06
-2.51221e-05
-6.9726e-06
-1.76894e-05
-1.77305e-06
7.42415e-06
-4.45034e-06
-2.35227e-06
-5.82902e-06
-5.4839e-06
-5.99588e-06
-9.41003e-06
-5.91348e-06
-1.40982e-05
-5.69864e-06
-1.93991e-05
-5.37222e-06
-2.49706e-05
-5.06116e-06
-3.01463e-05
-5.04421e-06
-3.378e-05
-5.58674e-06
-3.42942e-05
-6.45839e-06
-2.94015e-05
-6.66573e-06
-5.10855e-06
-1.68688e-05
-3.00223e-06
-2.8268e-06
-6.81925e-06
-2.17886e-06
-1.14391e-05
-1.29367e-06
-1.67236e-05
-4.14119e-07
-2.23663e-05
2.70459e-07
-2.79298e-05
5.0237e-07
-3.27094e-05
-2.64626e-07
-3.54906e-05
-2.80557e-06
-3.52052e-05
-6.74371e-06
-3.12709e-05
-1.06e-05
-1.48521e-05
-2.15274e-05
-3.31743e-06
4.90631e-07
-6.6682e-06
1.17192e-06
-1.03288e-05
2.36696e-06
-1.42571e-05
3.51411e-06
-1.82107e-05
4.2241e-06
-2.16884e-05
3.98006e-06
-2.34552e-05
1.5022e-06
-2.18213e-05
-4.43951e-06
-1.72471e-05
-1.13179e-05
-1.04199e-05
-1.74272e-05
-2.27365e-05
-2.53546e-06
-2.00108e-06
2.49171e-06
-4.02729e-06
3.19813e-06
-5.99262e-06
4.3323e-06
-7.67701e-06
5.19849e-06
-8.38487e-06
4.93197e-06
-6.68052e-06
2.27572e-06
-1.324e-06
-3.85432e-06
6.56862e-06
-1.23321e-05
1.47065e-05
-1.94558e-05
2.34361e-05
-2.61568e-05
-3.18532e-05
3.25528e-05
-1.61367e-06
4.10537e-06
-1.71447e-06
3.29893e-06
-8.5733e-07
3.47515e-06
1.76262e-06
2.57854e-06
7.32605e-06
-6.31468e-07
1.61563e-05
-6.55457e-06
2.54604e-05
-1.31584e-05
3.34672e-05
-2.03389e-05
4.18202e-05
-2.78088e-05
5.13629e-05
-3.56995e-05
-4.45585e-05
6.40682e-05
1.64115e-06
2.46422e-06
4.89777e-06
4.23147e-08
1.0535e-05
-2.16204e-06
1.84191e-05
-5.30556e-06
2.73595e-05
-9.57191e-06
3.54142e-05
-1.46092e-05
4.27362e-05
-2.04804e-05
4.95357e-05
-2.71384e-05
5.63697e-05
-3.46429e-05
6.39461e-05
-4.32758e-05
-5.36805e-05
7.30681e-05
1.13573e-05
1.81502e-05
2.49233e-05
3.15218e-05
3.75723e-05
4.30731e-05
4.80851e-05
5.28207e-05
5.76264e-05
6.29687e-05
6.9354e-05
-1.28826e-05
1.60234e-05
-3.14073e-06
-2.218e-05
1.36772e-05
-4.37985e-06
-3.108e-05
1.43972e-05
-5.49715e-06
-3.9389e-05
1.49128e-05
-6.60375e-06
-4.78518e-05
1.63508e-05
-7.8881e-06
-5.67695e-05
1.85146e-05
-9.59686e-06
-6.65304e-05
2.16543e-05
-1.18934e-05
-7.75203e-05
2.59316e-05
-1.49418e-05
-9.01657e-05
3.16004e-05
-1.8955e-05
-0.000104949
3.90346e-05
-2.4251e-05
4.87786e-05
-3.1249e-05
-0.000122479
-2.2918e-06
1.83152e-05
-5.62542e-06
1.70108e-05
-1.26695e-05
2.14412e-05
-2.05598e-05
2.28031e-05
-2.94347e-05
2.52258e-05
-3.90906e-05
2.81705e-05
-4.97765e-05
3.23403e-05
-6.1812e-05
3.7967e-05
-7.56574e-05
4.54459e-05
-9.1826e-05
5.52032e-05
6.78543e-05
-0.000110902
-4.26142e-10
1.83156e-05
-1.77256e-06
1.87829e-05
-5.95853e-06
2.56272e-05
-1.13609e-05
2.82054e-05
-1.88041e-05
3.2669e-05
-2.75405e-05
3.69069e-05
-3.76952e-05
4.24949e-05
-4.92953e-05
4.95671e-05
-6.27014e-05
5.8852e-05
-7.8384e-05
7.08857e-05
8.64742e-05
-9.70039e-05
5.3001e-08
1.82626e-05
-1.69736e-06
2.05333e-05
-4.14127e-06
2.80711e-05
-7.73596e-06
3.18001e-05
-1.32758e-05
3.82089e-05
-2.01944e-05
4.38255e-05
-2.88214e-05
5.11219e-05
-3.89791e-05
5.97248e-05
-5.09201e-05
7.07931e-05
-6.49252e-05
8.48908e-05
0.000102939
-8.13897e-05
-1.14211e-08
1.8274e-05
-1.81129e-06
2.23332e-05
-3.56156e-06
2.98214e-05
-6.19407e-06
3.44326e-05
-1.0216e-05
4.22308e-05
-1.5339e-05
4.89485e-05
-2.21841e-05
5.7967e-05
-3.05047e-05
6.80454e-05
-4.05664e-05
8.08548e-05
-5.25202e-05
9.68446e-05
0.000117161
-6.67422e-05
1.43736e-07
1.81303e-05
-1.33545e-06
2.38124e-05
-2.65648e-06
3.11424e-05
-4.77351e-06
3.65497e-05
-7.73897e-06
4.51962e-05
-1.15789e-05
5.27885e-05
-1.6861e-05
6.3249e-05
-2.34093e-05
7.45937e-05
-3.15963e-05
8.90418e-05
-4.14691e-05
0.000106717
0.000128998
-5.33066e-05
3.14016e-07
1.78162e-05
-8.51568e-07
2.49779e-05
-1.6827e-06
3.19735e-05
-3.51851e-06
3.83855e-05
-5.5643e-06
4.7242e-05
-8.54778e-06
5.5772e-05
-1.25123e-05
6.72136e-05
-1.75581e-05
7.96395e-05
-2.40382e-05
9.55219e-05
-3.19744e-05
0.000114653
0.000138664
-4.16406e-05
1.83681e-07
1.76326e-05
-5.61924e-07
2.57236e-05
-1.08916e-06
3.25008e-05
-2.53314e-06
3.98294e-05
-3.9461e-06
4.8655e-05
-6.19058e-06
5.80165e-05
-9.06303e-06
7.0086e-05
-1.28211e-05
8.33976e-05
-1.7753e-05
0.000100454
-2.38339e-05
0.000120734
0.000146232
-3.14016e-05
1.76972e-07
1.74556e-05
-2.12858e-07
2.61134e-05
-5.72878e-07
3.28608e-05
-1.51628e-06
4.07728e-05
-2.49664e-06
4.96354e-05
-4.04425e-06
5.95641e-05
-6.01411e-06
7.20559e-05
-8.68915e-06
8.60727e-05
-1.22363e-05
0.000104001
-1.66985e-05
0.000125197
0.0001519
-2.23669e-05
4.51315e-07
1.70043e-05
4.5705e-07
2.61076e-05
3.96523e-07
3.29213e-05
-1.42825e-07
4.13122e-05
-6.30167e-07
5.01227e-05
-1.66852e-06
6.06024e-05
-2.76159e-06
7.3149e-05
-4.69546e-06
8.80065e-05
-6.98194e-06
0.000106287
-1.0143e-05
0.000128358
0.000156017
-1.426e-05
6.62451e-07
1.63418e-05
1.02264e-06
2.57475e-05
1.26944e-06
3.26745e-05
1.16589e-06
4.14157e-05
1.11151e-06
5.01771e-05
5.94855e-07
6.11191e-05
1.54662e-07
7.35892e-05
-8.4872e-07
8.90099e-05
-2.06164e-06
0.0001075
-3.99467e-06
0.000130291
0.000158507
-6.48447e-06
6.45778e-07
1.56961e-05
1.22478e-06
2.51685e-05
1.73648e-06
3.21628e-05
2.0546e-06
4.10976e-05
2.42953e-06
4.98021e-05
2.56729e-06
6.09813e-05
2.77988e-06
7.33766e-05
2.6871e-06
8.91027e-05
2.52693e-06
0.00010766
1.96107e-06
0.000130857
0.000159409
1.05887e-06
7.39783e-07
1.49563e-05
1.59778e-06
2.43105e-05
2.39704e-06
3.13636e-05
3.12987e-06
4.03648e-05
3.93561e-06
4.89964e-05
4.68577e-06
6.02312e-05
5.56609e-06
7.24963e-05
6.36812e-06
8.83007e-05
7.231e-06
0.000106798
7.9643e-06
0.000130123
0.000158812
8.56187e-06
9.90392e-07
1.39659e-05
2.21838e-06
2.30825e-05
3.39659e-06
3.01853e-05
4.60465e-06
3.91567e-05
5.86622e-06
4.77348e-05
7.22659e-06
5.88708e-05
8.7426e-06
7.09803e-05
1.04226e-05
8.66206e-05
1.22728e-05
0.000104947
1.4268e-05
0.000128128
0.000156663
1.64166e-05
1.03367e-06
1.29322e-05
2.48324e-06
2.16329e-05
4.00079e-06
2.86678e-05
5.70025e-06
3.74573e-05
7.48486e-06
4.59502e-05
9.52376e-06
5.68319e-05
1.1788e-05
6.8716e-05
1.44296e-05
8.3979e-05
1.74059e-05
0.000101971
2.08125e-05
0.000124721
0.000152848
2.46281e-05
1.10774e-06
1.18245e-05
2.8098e-06
1.99308e-05
4.70052e-06
2.67771e-05
6.91697e-06
3.52408e-05
9.28055e-06
4.35866e-05
1.20473e-05
5.40652e-05
1.51331e-05
6.56302e-05
1.87922e-05
8.032e-05
2.29822e-05
9.77811e-05
2.7883e-05
0.000119821
0.000147201
3.35299e-05
1.30519e-06
1.05193e-05
3.31664e-06
1.79194e-05
5.64314e-06
2.44506e-05
8.41096e-06
3.2473e-05
1.1432e-05
4.05656e-05
1.49752e-05
5.0522e-05
1.89658e-05
6.16395e-05
2.37108e-05
7.5575e-05
2.9193e-05
9.22989e-05
3.56539e-05
0.00011336
0.000139655
4.31999e-05
1.38662e-06
9.13267e-06
3.61514e-06
1.56909e-05
6.34564e-06
2.17201e-05
9.6902e-06
2.91285e-05
1.3444e-05
3.68118e-05
1.78723e-05
4.60937e-05
2.29144e-05
5.65974e-05
2.88944e-05
6.95949e-05
3.58672e-05
8.53261e-05
4.41375e-05
0.000105089
0.000129916
5.3876e-05
1.45883e-06
7.67384e-06
3.86997e-06
1.32797e-05
6.9763e-06
1.86137e-05
1.08903e-05
2.52144e-05
1.5429e-05
3.22732e-05
2.08276e-05
4.06951e-05
2.70639e-05
5.03611e-05
3.44445e-05
6.22144e-05
4.31015e-05
7.66692e-05
5.33835e-05
9.48075e-05
0.000117662
6.5638e-05
1.51603e-06
6.15781e-06
4.05706e-06
1.07387e-05
7.48151e-06
1.51893e-05
1.19376e-05
2.07583e-05
1.72792e-05
2.69316e-05
2.37099e-05
3.42644e-05
3.12433e-05
4.28276e-05
4.01577e-05
5.33e-05
5.06697e-05
6.61573e-05
6.31848e-05
8.22923e-05
0.000102668
7.81782e-05
1.53822e-06
4.61958e-06
4.11621e-06
8.1607e-06
7.75043e-06
1.15551e-05
1.26284e-05
1.58804e-05
1.86962e-05
2.08638e-05
2.61143e-05
2.68462e-05
3.4944e-05
3.39979e-05
4.54488e-05
4.27952e-05
5.79061e-05
5.37e-05
7.27836e-05
6.74148e-05
8.47684e-05
9.06834e-05
1.42566e-06
3.19392e-06
3.9466e-06
5.63976e-06
7.61973e-06
7.88194e-06
1.27071e-05
1.0793e-05
1.92529e-05
1.4318e-05
2.73996e-05
1.86995e-05
3.72809e-05
2.41166e-05
4.916e-05
3.09162e-05
6.33956e-05
3.94643e-05
8.05202e-05
5.02902e-05
6.37714e-05
0.000101517
1.36763e-06
1.82629e-06
3.65545e-06
3.35194e-06
7.10528e-06
4.43211e-06
1.19978e-05
5.90051e-06
1.84446e-05
7.87114e-06
2.66393e-05
1.05049e-05
3.6805e-05
1.39509e-05
4.92762e-05
1.8445e-05
6.44969e-05
2.42436e-05
8.28716e-05
3.19156e-05
4.1773e-05
0.00010487
2.47405e-07
1.57889e-06
2.91443e-06
6.84922e-07
6.70167e-06
6.44862e-07
1.13004e-05
1.30175e-06
1.70643e-05
2.10726e-06
2.43631e-05
3.20607e-06
3.35522e-05
4.76181e-06
4.50762e-05
6.92092e-06
5.94122e-05
9.90768e-06
7.72197e-05
1.4108e-05
2.01182e-05
9.88745e-05
-1.31777e-05
1.00369e-05
-2.41653e-05
6.60779e-06
-3.45805e-05
4.91809e-06
-4.39821e-05
2.79775e-06
-5.29639e-05
1.09379e-06
-6.20834e-05
-4.77426e-07
-7.19552e-05
-2.02157e-06
-8.31029e-05
-3.79405e-06
-9.59642e-05
-6.0937e-06
-0.000110947
-9.2685e-06
-1.37398e-05
-0.000128456
-3.9166e-06
1.39535e-05
-9.0489e-06
1.17401e-05
-1.75562e-05
1.34254e-05
-2.71126e-05
1.23541e-05
-3.73298e-05
1.1311e-05
-4.8246e-05
1.04388e-05
-6.0034e-05
9.76643e-06
-7.31455e-05
9.31743e-06
-8.80733e-05
8.83415e-06
-0.000105333
7.99083e-06
6.41235e-06
-0.000125485
-1.43996e-06
1.53935e-05
-4.53832e-06
1.48385e-05
-1.02908e-05
1.91779e-05
-1.7722e-05
1.97853e-05
-2.70972e-05
2.06862e-05
-3.77028e-05
2.10444e-05
-4.96838e-05
2.17475e-05
-6.31638e-05
2.27974e-05
-7.85175e-05
2.41879e-05
-9.62336e-05
2.57069e-05
2.69885e-05
-0.00011681
-1.03171e-06
1.64252e-05
-3.83451e-06
1.76412e-05
-7.82605e-06
2.31694e-05
-1.33187e-05
2.52779e-05
-2.07887e-05
2.81562e-05
-3.00834e-05
3.03391e-05
-4.10493e-05
3.27135e-05
-5.36687e-05
3.54168e-05
-6.8171e-05
3.86902e-05
-8.49202e-05
4.24561e-05
4.65193e-05
-0.000104451
-1.06182e-06
1.7487e-05
-3.82705e-06
2.04065e-05
-6.93972e-06
2.62821e-05
-1.12148e-05
2.9553e-05
-1.70752e-05
3.40167e-05
-2.45908e-05
3.78547e-05
-3.38512e-05
4.19738e-05
-4.48554e-05
4.64209e-05
-5.77103e-05
5.1545e-05
-7.26268e-05
5.73727e-05
6.3865e-05
-8.99725e-05
-9.84132e-07
1.84712e-05
-3.5035e-06
2.29258e-05
-6.13516e-06
2.89137e-05
-9.64291e-06
3.30607e-05
-1.42936e-05
3.86674e-05
-2.02169e-05
4.37779e-05
-2.77257e-05
4.94827e-05
-3.68487e-05
5.55438e-05
-4.76473e-05
6.23437e-05
-6.02484e-05
6.99738e-05
7.84002e-05
-7.47836e-05
-8.23683e-07
1.92948e-05
-2.95983e-06
2.5062e-05
-5.16672e-06
3.11206e-05
-8.05913e-06
3.59531e-05
-1.18069e-05
4.24152e-05
-1.64678e-05
4.84388e-05
-2.24147e-05
5.54297e-05
-2.97e-05
6.28291e-05
-3.83931e-05
7.10368e-05
-4.85301e-05
8.01108e-05
9.00227e-05
-6.01526e-05
-7.94593e-07
2.00894e-05
-2.55313e-06
2.68205e-05
-4.37568e-06
3.29432e-05
-6.71895e-06
3.82964e-05
-9.62161e-06
4.53179e-05
-1.32779e-05
5.2095e-05
-1.7855e-05
6.00068e-05
-2.34317e-05
6.84058e-05
-3.01089e-05
7.7714e-05
-3.78319e-05
8.78337e-05
9.86687e-05
-4.64779e-05
-6.65094e-07
2.07545e-05
-2.11353e-06
2.8269e-05
-3.45072e-06
3.42804e-05
-5.43251e-06
4.02782e-05
-7.51832e-06
4.74037e-05
-1.02822e-05
5.48589e-05
-1.36376e-05
6.33622e-05
-1.77182e-05
7.24864e-05
-2.25691e-05
8.25649e-05
-2.8141e-05
9.34056e-05
0.000104719
-3.41913e-05
-4.47912e-07
2.12024e-05
-1.56956e-06
2.93906e-05
-2.47866e-06
3.51895e-05
-3.90947e-06
4.1709e-05
-5.41617e-06
4.89104e-05
-7.33363e-06
5.67764e-05
-9.6066e-06
6.56352e-05
-1.23593e-05
7.52391e-05
-1.56221e-05
8.58277e-05
-1.9379e-05
9.71625e-05
0.000109015
-2.36748e-05
-1.51544e-07
2.1354e-05
-7.36683e-07
2.99757e-05
-1.32384e-06
3.57766e-05
-2.19197e-06
4.25771e-05
-3.04935e-06
4.97678e-05
-4.21369e-06
5.79407e-05
-5.51957e-06
6.69411e-05
-7.10939e-06
7.68289e-05
-8.97774e-06
8.76961e-05
-1.11598e-05
9.93446e-05
0.000111622
-1.37673e-05
2.86039e-08
2.13254e-05
-2.10583e-07
3.02149e-05
-3.47413e-07
3.59134e-05
-6.95833e-07
4.29256e-05
-9.17669e-07
4.99896e-05
-1.29582e-06
5.83189e-05
-1.65287e-06
6.72981e-05
-2.10066e-06
7.72767e-05
-2.61878e-06
8.82142e-05
-3.28745e-06
0.000100013
0.000112495
-4.1598e-06
2.67055e-07
2.10583e-05
4.2686e-07
3.00551e-05
6.97374e-07
3.56429e-05
9.08757e-07
4.27142e-05
1.30028e-06
4.95981e-05
1.70087e-06
5.79183e-05
2.27309e-06
6.67259e-05
2.9099e-06
7.66399e-05
3.71608e-06
8.7408e-05
4.54802e-06
9.91813e-05
0.000111814
5.22855e-06
6.27038e-07
2.04313e-05
1.26027e-06
2.94219e-05
1.9758e-06
3.49274e-05
2.75396e-06
4.1936e-05
3.76452e-06
4.85875e-05
4.9401e-06
5.67427e-05
6.41977e-06
6.52463e-05
8.14583e-06
7.49138e-05
1.0214e-05
8.53399e-05
1.25514e-05
9.68439e-05
0.000109327
1.50385e-05
8.41055e-07
1.95902e-05
1.87083e-06
2.83921e-05
3.05783e-06
3.37404e-05
4.44071e-06
4.05531e-05
6.10292e-06
4.69253e-05
8.11573e-06
5.47299e-05
1.05442e-05
6.28178e-05
1.34245e-05
7.20335e-05
1.68291e-05
8.19352e-05
2.07524e-05
9.29206e-05
0.000104951
2.51286e-05
1.093e-06
1.84972e-05
2.5605e-06
2.69246e-05
4.23464e-06
3.20663e-05
6.23901e-06
3.85488e-05
8.59466e-06
4.45696e-05
1.147e-05
5.18545e-05
1.48803e-05
5.94075e-05
1.89568e-05
6.7957e-05
2.37449e-05
7.71471e-05
2.93123e-05
8.73532e-05
9.85714e-05
3.56918e-05
1.40769e-06
1.70895e-05
3.33675e-06
2.49956e-05
5.54621e-06
2.98568e-05
8.21596e-06
3.5879e-05
1.1314e-05
4.14716e-05
1.50696e-05
4.80989e-05
1.95451e-05
5.4932e-05
2.48617e-05
6.26404e-05
3.10793e-05
7.09295e-05
3.83381e-05
8.00943e-05
9.01414e-05
4.67681e-05
1.70676e-06
1.53828e-05
4.10638e-06
2.25959e-05
6.88962e-06
2.70736e-05
1.02733e-05
3.24953e-05
1.41932e-05
3.75517e-05
1.89497e-05
4.33424e-05
2.45231e-05
4.93586e-05
3.11291e-05
5.60343e-05
3.885e-05
6.32087e-05
4.78752e-05
7.10691e-05
7.95867e-05
5.84299e-05
2.01074e-06
1.3372e-05
4.87347e-06
1.97332e-05
8.27439e-06
2.36726e-05
1.2419e-05
2.83507e-05
1.72513e-05
3.27194e-05
2.30403e-05
3.75534e-05
2.98177e-05
4.25813e-05
3.77881e-05
4.80639e-05
4.70683e-05
5.39286e-05
5.79113e-05
6.02261e-05
6.68907e-05
7.06072e-05
2.33893e-06
1.10331e-05
5.67875e-06
1.63934e-05
9.71898e-06
1.96324e-05
1.46802e-05
2.33895e-05
2.04847e-05
2.6915e-05
2.73666e-05
3.06714e-05
3.53911e-05
3.45568e-05
4.47435e-05
3.87115e-05
5.56113e-05
4.30607e-05
6.82774e-05
4.756e-05
5.1994e-05
8.31741e-05
2.68312e-06
8.34999e-06
6.4816e-06
1.25949e-05
1.1181e-05
1.4933e-05
1.69636e-05
1.76069e-05
2.37469e-05
2.01317e-05
3.17159e-05
2.27025e-05
4.09523e-05
2.53203e-05
5.16575e-05
2.80063e-05
6.40518e-05
3.06664e-05
7.84789e-05
3.31329e-05
3.50802e-05
9.53928e-05
3.06464e-06
5.28535e-06
7.33323e-06
8.32633e-06
1.26136e-05
9.65267e-06
1.90874e-05
1.1133e-05
2.66992e-05
1.25199e-05
3.55785e-05
1.38232e-05
4.58529e-05
1.50459e-05
5.77247e-05
1.61346e-05
7.14574e-05
1.69337e-05
8.74097e-05
1.71805e-05
1.64009e-05
0.000106089
3.77208e-06
1.51327e-06
8.32452e-06
3.77389e-06
1.38161e-05
4.16106e-06
2.05122e-05
4.43694e-06
2.84491e-05
4.58296e-06
3.77436e-05
4.52871e-06
4.85615e-05
4.22802e-06
6.11213e-05
3.57484e-06
7.56673e-05
2.38768e-06
9.234e-05
5.07827e-07
-2.33056e-06
0.000111071
3.09216e-06
7.55097e-06
1.23569e-05
1.80956e-05
2.47858e-05
3.25206e-05
4.15104e-05
5.20062e-05
6.43015e-05
7.89174e-05
9.67051e-05
2.17611e-06
1.51218e-05
-1.72979e-05
3.1168e-06
1.51954e-05
-1.61361e-05
1.15018e-06
1.99509e-05
-1.79842e-05
-2.70386e-06
2.42386e-05
-2.03845e-05
-7.47985e-06
2.7993e-05
-2.3217e-05
-1.27473e-05
3.20134e-05
-2.6746e-05
-1.83517e-05
3.66592e-05
-3.10547e-05
-2.44302e-05
4.24286e-05
-3.63501e-05
-3.12677e-05
4.97653e-05
-4.29278e-05
-3.91433e-05
5.90632e-05
-5.11876e-05
7.09685e-05
-6.16087e-05
-4.85031e-05
5.95277e-06
9.169e-06
9.00822e-06
1.214e-05
1.01353e-05
1.88238e-05
9.57644e-06
2.47974e-05
7.0338e-06
3.05356e-05
2.71472e-06
3.63325e-05
-2.87735e-06
4.22513e-05
-9.35699e-06
4.89082e-05
-1.66431e-05
5.70515e-05
-2.5051e-05
6.74711e-05
8.08238e-05
-3.49062e-05
4.31367e-06
4.85533e-06
6.81748e-06
9.63618e-06
9.39926e-06
1.6242e-05
1.10014e-05
2.31953e-05
1.09082e-05
3.06289e-05
8.94527e-06
3.82954e-05
5.25078e-06
4.59457e-05
1.81327e-07
5.39777e-05
-5.9326e-06
6.31654e-05
-1.31223e-05
7.46608e-05
8.94103e-05
-2.17089e-05
3.00695e-06
1.84838e-06
5.47763e-06
7.1655e-06
7.99245e-06
1.37272e-05
1.01785e-05
2.10092e-05
1.14441e-05
2.93633e-05
1.13686e-05
3.8371e-05
9.73514e-06
4.75792e-05
6.65349e-06
5.70593e-05
2.36505e-06
6.74538e-05
-2.91322e-06
7.99391e-05
9.57112e-05
-9.21408e-06
2.05183e-06
-2.03452e-07
4.48371e-06
4.73362e-06
7.11346e-06
1.10974e-05
9.42799e-06
1.86947e-05
1.12732e-05
2.7518e-05
1.23171e-05
3.73271e-05
1.22398e-05
4.76565e-05
1.09372e-05
5.83619e-05
8.53372e-06
6.98573e-05
5.24234e-06
8.32304e-05
9.98234e-05
1.13005e-06
1.55104e-06
-1.7545e-06
3.82232e-06
2.46235e-06
6.34944e-06
8.57032e-06
8.83246e-06
1.62117e-05
1.1045e-05
2.53054e-05
1.2764e-05
3.56082e-05
1.37279e-05
4.66926e-05
1.37735e-05
5.83163e-05
1.2938e-05
7.06928e-05
1.14018e-05
8.47666e-05
0.000101869
9.35618e-06
7.169e-07
-2.4714e-06
2.76404e-06
4.15212e-07
5.2702e-06
6.06416e-06
7.89821e-06
1.35836e-05
1.04093e-05
2.27944e-05
1.26201e-05
3.33973e-05
1.43259e-05
4.49868e-05
1.5395e-05
5.72473e-05
1.58192e-05
7.02685e-05
1.57469e-05
8.48389e-05
0.000102267
1.53495e-05
3.49834e-07
-2.82123e-06
1.77382e-06
-1.00878e-06
4.01287e-06
3.82512e-06
6.6032e-06
1.09933e-05
9.24922e-06
2.01484e-05
1.17778e-05
3.08687e-05
1.40375e-05
4.27271e-05
1.59094e-05
5.53754e-05
1.73765e-05
6.88014e-05
1.85738e-05
8.36417e-05
0.000101105
1.97352e-05
1.98601e-07
-3.01983e-06
1.01604e-06
-1.82622e-06
2.85821e-06
1.98295e-06
5.2454e-06
8.60613e-06
7.8616e-06
1.75321e-05
1.05452e-05
2.81851e-05
1.31723e-05
4.01e-05
1.56459e-05
5.29018e-05
1.79471e-05
6.65001e-05
2.01794e-05
8.14094e-05
9.8725e-05
2.25596e-05
1.00138e-07
-3.11997e-06
5.83276e-07
-2.30936e-06
1.94199e-06
6.24231e-07
4.01395e-06
6.53417e-06
6.49099e-06
1.50551e-05
9.20618e-06
2.54699e-05
1.20495e-05
3.72567e-05
1.49479e-05
5.00034e-05
1.78767e-05
6.35713e-05
2.09253e-05
7.83608e-05
9.54021e-05
2.42482e-05
-1.97653e-09
-3.11799e-06
2.19072e-07
-2.5304e-06
1.13873e-06
-2.95425e-07
2.80597e-06
4.86693e-06
5.03476e-06
1.28263e-05
7.66608e-06
2.28386e-05
1.0612e-05
3.43108e-05
1.38171e-05
4.67982e-05
1.7266e-05
6.01224e-05
2.10277e-05
7.45991e-05
9.11031e-05
2.53267e-05
-7.84067e-08
-3.03959e-06
-1.0028e-07
-2.50853e-06
3.52722e-07
-7.48426e-07
1.60379e-06
3.61586e-06
3.4889e-06
1.09412e-05
5.93794e-06
2.03896e-05
8.89961e-06
3.13491e-05
1.23324e-05
4.33655e-05
1.62216e-05
5.62332e-05
2.06097e-05
7.0211e-05
8.6131e-05
2.55818e-05
-1.6057e-07
-2.87902e-06