/*--------------------------------*- C++ -*----------------------------------*\
| =========                 |                                                 |
| \\      /  F ield         | OpenFOAM: The Open Source CFD Toolbox           |
|  \\    /   O peration     | Version:  3.0.1                                 |
|   \\  /    A nd           | Web:      www.OpenFOAM.org                      |
|    \\/     M anipulation  |                                                 |
\*---------------------------------------------------------------------------*/
FoamFile
{
    version     2.0;
    format      ascii;
    class       volScalarField;
    location    "0.853217";
    object      epsilon;
}
// * * * * * * * * * * * * * * * * * * * * * * * * * * * * * * * * * * * * * //

dimensions      [0 2 -3 0 0 0 0];

internalField   nonuniform List<scalar> 
21246
(
1685.27
535.416
148.19
33.8999
7.94846
1.96554
0.513376
0.146407
0.0502433
0.0234586
0.0149511
917.161
246.684
94.8831
32.3306
9.1771
2.47293
0.659426
0.181284
0.0570527
0.024096
0.014531
838.43
236.209
83.8935
32.7067
10.9132
3.24598
0.894613
0.239125
0.0693868
0.0264925
0.0149337
741.297
214.934
72.7913
30.0715
10.5612
3.36266
0.9767
0.271594
0.0795547
0.0294687
0.0159957
652.496
182.453
62.322
26.5137
9.4571
3.15573
0.96668
0.284451
0.0869348
0.0323819
0.0171391
582.748
152.727
53.5008
22.9501
8.23134
2.82695
0.900177
0.278783
0.0895798
0.0342424
0.0181118
525.865
130.267
46.4286
19.7396
7.13294
2.48558
0.813717
0.262709
0.0885818
0.0350973
0.0187242
477.296
112.584
40.5074
17.048
6.20175
2.17839
0.726304
0.242068
0.0851415
0.0350143
0.019267
439.361
98.847
35.6526
14.8821
5.44126
1.91917
0.647676
0.221289
0.0808013
0.0346062
0.0196996
412.694
88.6386
31.892
13.2286
4.85305
1.71414
0.58262
0.202793
0.0764541
0.03404
0.0199101
392.338
80.9124
28.9382
11.9561
4.40057
1.55526
0.530881
0.187341
0.0725216
0.0333682
0.0200361
375.483
74.6511
26.4712
10.9251
4.04041
1.43075
0.490188
0.174921
0.0692406
0.0327778
0.0201367
364.646
69.8301
24.5041
10.1276
3.7687
1.33908
0.460347
0.165736
0.0668232
0.0323822
0.0202498
359.751
67.6339
23.1263
9.58109
3.592
1.28215
0.442045
0.160167
0.0654673
0.0322677
0.0204339
358.328
66.7672
22.3511
9.27408
3.51272
1.26
0.434957
0.158299
0.0653181
0.0325388
0.0207931
361.256
67.5814
22.2787
9.24888
3.58085
1.3103
0.457918
0.166821
0.0685761
0.0339585
0.0215683
368.451
71.4752
23.3694
9.66555
3.85565
1.45746
0.523578
0.19192
0.0778024
0.0375517
0.0230809
382.444
77.5194
25.574
10.5917
4.38173
1.73351
0.651743
0.244239
0.0977861
0.0452245
0.0261408
405.456
86.451
29.3091
12.2869
5.30153
2.22146
0.890214
0.349405
0.140832
0.0623341
0.0329475
441.792
99.693
35.2993
15.2099
6.89746
3.09514
1.34454
0.568265
0.239203
0.104486
0.0505219
500.378
119.718
44.7086
20.1401
9.70296
4.71357
2.25127
1.05032
0.48131
0.220149
0.103651
600.444
150.023
59.3997
28.4047
14.7133
7.81198
4.14135
2.16535
1.11238
0.562684
0.282517
784.767
199.766
83.8773
42.9006
24.0198
13.9709
8.21956
4.81961
2.79519
1.5981
0.900549
1262.08
206.853
109.946
66.0767
41.754
26.9608
17.5337
11.3873
7.34601
4.69086
2.9587
2167.38
1172.08
209.393
57.3651
13.7496
3.10758
0.717574
0.182844
0.0577051
0.0257938
0.016206
2905.9
1838.54
488.342
103.262
24.7573
5.84793
1.32077
0.307219
0.0849025
0.0333009
0.0191496
2741.67
1725.93
578.896
147.409
34.3603
9.02646
2.19614
0.513196
0.131732
0.0465132
0.0252563
2168.32
1437.7
547.383
150.677
38.9763
11.5433
3.10516
0.767994
0.194875
0.0652719
0.03472
1618.37
1210.76
474.533
137.995
39.7037
12.9573
3.82654
1.01919
0.265328
0.0876075
0.0462767
1210.45
1045.27
408.817
123.257
38.4744
13.4265
4.28094
1.22354
0.332477
0.112185
0.0622677
924.422
924.258
356.858
110.204
36.5047
13.3195
4.50844
1.36586
0.388326
0.135538
0.0784422
723.572
829.731
314.593
99.063
34.3029
12.9178
4.58182
1.45295
0.430478
0.157537
0.0988651
585.96
753.579
280.596
89.8323
32.1851
12.4219
4.57522
1.50321
0.461069
0.176872
0.119794
490.865
687.743
253.911
83.0078
30.4097
11.9615
4.54678
1.53655
0.485327
0.19419
0.141078
423.649
628.44
235.111
78.9359
29.5026
11.8105
4.62884
1.61565
0.527353
0.21651
0.163062
373.475
577.135
220.258
76.4364
29.2231
11.9205
4.81696
1.74939
0.596042
0.249087
0.186542
336.15
531.342
209.146
75.4711
29.6429
12.3556
5.15041
1.9584
0.702078
0.297246
0.214363
307.507
488.479
202.206
76.496
30.9999
13.2455
5.69959
2.27979
0.864788
0.370777
0.250012
285.235
449.786
197.445
78.8602
33.2251
14.652
6.53192
2.75885
1.11284
0.48576
0.301986
268.053
414.3
194.736
82.6927
36.5126
16.7616
7.78723
3.4855
1.50139
0.674465
0.386658
254.717
381.226
193.94
88.2212
41.1546
19.8433
9.68672
4.61642
2.13373
1.00082
0.541353
244.674
350.77
194.535
95.4898
47.4325
24.2461
12.5555
6.41187
3.19864
1.59311
0.846419
237.542
322.842
196.127
104.621
55.7655
30.4777
16.8941
9.30652
5.04342
2.70996
1.48387
232.961
297.804
198.286
115.843
66.8765
39.395
23.5329
14.0433
8.29632
4.8594
2.84861
228.981
270.625
199.574
129.308
82.017
52.6044
34.0164
21.9712
14.1022
8.99979
5.72208
232.792
271.779
205.652
146.253
102.039
71.0703
49.3647
34.1185
23.4818
16.1238
11.1141
249.54
196.326
161.168
125.23
99.3574
77.4694
59.1257
44.1659
32.3032
23.1761
16.234
1510.49
739.163
404.518
243.555
154.105
99.7033
65.0338
42.4506
27.5925
17.7935
11.3383
599.463
278.561
54.8721
13.5848
3.24233
0.943575
0.426214
0.292676
0.253917
0.246597
0.254165
801.22
453.678
115.913
23.3973
5.18339
1.3609
0.521402
0.322463
0.271297
0.264266
0.277166
829.998
448.322
150.871
39.0191
8.00127
1.89436
0.654935
0.362617
0.290805
0.281014
0.297809
728.199
399.433
159.258
47.5044
10.9951
2.42673
0.802823
0.408791
0.311445
0.29628
0.314807
590.513
357.341
157.196
51.6901
13.3788
3.03948
0.947699
0.456747
0.332415
0.309836
0.3267
463.424
323.519
153.505
55.3584
15.8785
3.86624
1.12092
0.504248
0.352563
0.321696
0.335698
354.728
295.79
150.033
59.2013
18.7602
4.94608
1.39437
0.567524
0.371453
0.331844
0.343802
266.072
272.341
146.657
62.7889
21.8347
6.28333
1.78237
0.662098
0.396294
0.340691
0.349866
198.954
251.577
144.364
66.4421
25.1729
7.93558
2.33353
0.807784
0.43243
0.350979
0.354147
149.518
232.865
143.727
70.811
29.0873
10.0659
3.14037
1.04507
0.492477
0.36564
0.358106
112.659
216.494
144.279
75.6979
33.4768
12.6748
4.26566
1.42169
0.596902
0.390882
0.363084
86.4133
203.261
145.76
80.7074
38.0117
15.6155
5.70852
1.97834
0.772972
0.437832
0.372548
70.1806
192.202
148.386
86.2374
42.8594
18.9228
7.51324
2.77378
1.06228
0.526151
0.393606
62.5365
182.031
152.043
92.8219
48.3764
22.7409
9.7613
3.88512
1.52471
0.689466
0.440697
63.8232
175.014
156.801
100.475
54.552
27.022
12.4371
5.35231
2.22033
0.974662
0.540209
72.6989
168.122
161.752
109.856
62.0468
32.0952
15.6802
7.26632
3.23386
1.45107
0.736906
82.8041
156.367
163.718
121.064
71.8945
38.6867
19.8624
9.82656
4.70285
2.22475
1.10639
90.0642
139.608
158.569
131.813
84.4579
47.6188
25.565
13.3816
6.85354
3.46174
1.77323
94.7601
120.753
144.261
136.938
98.3584
59.654
33.7851
18.661
10.1651
5.48541
2.96555
98.0318
103.034
123.343
131.282
109.132
74.3347
45.7371
26.9855
15.6413
8.99407
5.16655
102.313
88.1642
100.574
115.319
111.777
89.0591
62.0877
40.2485
25.1581
15.4703
9.46113
130.797
80.8836
84.4841
98.9476
106.822
98.7942
79.6524
58.3017
40.2163
26.9178
17.6849
158.528
84.0604
82.4944
85.5159
88.1544
86.5058
78.9027
66.2496
51.8307
38.8278
27.8575
332.198
332.547
274.144
246.02
216.551
182.416
145.202
108.412
78.1674
55.7281
39.0987
511.211
147.088
40.3422
9.13734
2.31695
0.774762
0.388758
0.277039
0.240461
0.230682
0.233856
462.419
116.686
31.1841
9.3917
2.65505
0.894847
0.420224
0.280421
0.233418
0.217546
0.215247
467.736
135.202
31.8228
11.3129
3.68665
1.25916
0.521954
0.305025
0.235906
0.211819
0.205192
426.988
128.912
29.7386
11.6535
4.19129
1.5569
0.650667
0.349329
0.249283
0.213772
0.202454
377.89
108.902
27.0902
11.1694
4.10135
1.57689
0.679354
0.36963
0.259373
0.218363
0.204281
335.926
90.0069
24.3667
10.2443
3.83782
1.54663
0.688287
0.379421
0.266809
0.223512
0.208746
302.267
75.4203
21.9476
9.29757
3.5313
1.47839
0.679185
0.384491
0.273301
0.229074
0.213222
274.254
64.4142
19.8525
8.45631
3.25293
1.40601
0.662543
0.385628
0.278488
0.234522
0.218133
253.1
56.1303
18.1767
7.76382
3.03703
1.34397
0.648097
0.387102
0.284374
0.241803
0.226224
238.026
50.157
16.8467
7.22671
2.89312
1.29916
0.639193
0.389889
0.290703
0.249677
0.234904
228.119
45.9843
15.9035
6.87014
2.81467
1.2775
0.638239
0.394823
0.297511
0.257674
0.243488
221.799
42.9446
15.207
6.65193
2.79033
1.27898
0.646106
0.402657
0.305095
0.265928
0.253322
219.44
40.8624
14.7578
6.566
2.82344
1.3072
0.665054
0.414667
0.313998
0.274384
0.26397
219.465
40.9477
14.7806
6.67615
2.94956
1.37871
0.702625
0.434001
0.32541
0.283234
0.273506
221.59
42.2555
15.2534
6.98743
3.20363
1.5233
0.780155
0.472544
0.345949
0.296078
0.284097
226.307
44.8794
16.2893
7.55402
3.61159
1.7656
0.915033
0.542019
0.382339
0.316909
0.298183
234.149
49.1517
18.0865
8.48658
4.23246
2.1496
1.13921
0.664742
0.448717
0.354224
0.320812
246.502
55.1718
20.8482
9.94039
5.1623
2.74533
1.50701
0.881287
0.573404
0.426789
0.364297
265.368
63.4608
24.9168
12.1767
6.57787
3.67977
2.11614
1.26764
0.813755
0.576231
0.458574
294.423
75.2276
30.9649
15.6612
8.81293
5.19503
3.15364
1.97248
1.28804
0.895337
0.675975
341.161
92.8734
40.2134
21.2343
12.4935
7.76711
4.9947
3.30007
2.24753
1.5924
1.19028
422.865
121.314
55.2424
30.5891
18.8711
12.3706
8.42342
5.89944
4.24106
3.13908
2.41068
586.445
180.287
85.676
49.2738
31.5981
21.6398
15.4643
11.4113
8.66314
6.76702
5.45091
1070.3
310.601
162.102
103.658
73.7691
55.7678
43.5103
35.345
29.6519
25.4575
21.9831
64.6719
59.7614
37.3216
25.2112
14.0137
6.62369
2.82099
1.152
0.478547
0.212805
0.107789
71.4301
48.0641
29.6419
19.7483
11.1018
5.03099
2.07155
0.822691
0.335748
0.146935
0.0721547
61.548
34.0071
21.909
14.585
8.39996
3.92607
1.62807
0.647176
0.262851
0.113323
0.0533177
49.2919
24.0359
15.9982
10.6163
6.25959
3.09193
1.34367
0.550457
0.226608
0.0972108
0.044594
40.6303
18.1465
12.2032
8.10886
4.91774
2.57527
1.1864
0.507596
0.213307
0.0913412
0.0412438
34.4907
14.7751
10.0242
6.72993
4.21298
2.32456
1.13205
0.504334
0.215438
0.0918524
0.0408975
29.7695
12.7414
8.80402
6.03559
3.90673
2.25389
1.1486
0.527774
0.227603
0.0963226
0.0421949
26.4244
11.398
8.04102
5.68068
3.80279
2.27749
1.20286
0.565632
0.24537
0.103129
0.0446872
23.9515
10.4883
7.53775
5.48547
3.78174
2.33719
1.27026
0.608505
0.265438
0.111156
0.0479648
22.0666
9.85444
7.19141
5.3621
3.78915
2.40574
1.33875
0.65139
0.285913
0.119737
0.0516454
20.5627
9.41079
6.93549
5.26486
3.79874
2.46731
1.40125
0.691884
0.305893
0.128435
0.055524
19.3824
9.04347
6.71145
5.16552
3.79198
2.51068
1.45207
0.727629
0.324895
0.13716
0.0595805
18.5547
8.7655
6.52217
5.07231
3.77718
2.54343
1.49636
0.761192
0.343798
0.146223
0.0638019
17.9573
8.60627
6.38872
5.00246
3.77064
2.57922
1.54335
0.797614
0.364738
0.156232
0.0685269
17.5922
8.50014
6.28847
4.94996
3.77208
2.62014
1.59596
0.839434
0.389385
0.168093
0.0741925
17.4776
8.46532
6.23087
4.92464
3.79311
2.67836
1.66485
0.894115
0.421856
0.18369
0.0813232
17.5492
8.54118
6.24236
4.94543
3.85168
2.77175
1.76596
0.973446
0.468951
0.206087
0.0911515
17.8784
8.71371
6.32599
5.0212
3.95984
2.91502
1.91491
1.09087
0.539717
0.239979
0.105595
18.4969
9.01572
6.50906
5.17833
4.14547
3.13691
2.13914
1.26935
0.649955
0.294154
0.127949
19.4627
9.49413
6.84953
5.47624
4.4677
3.49163
2.4848
1.54582
0.826114
0.384497
0.166267
20.8412
10.2348
7.48514
6.06244
5.06309
4.08894
3.03199
1.97845
1.11097
0.539619
0.236946
22.9264
11.6976
8.88103
7.40191
6.32015
5.19528
3.93982
2.66354
1.57227
0.809825
0.372927
24.868
14.4212
13.265
11.5315
9.60138
7.56552
5.58636
3.79038
2.32409
1.28069
0.639403
207.319
115.641
72.3809
47.292
29.2072
17.1919
10.2333
6.19606
3.72689
2.15636
1.18311
72.4447
48.5721
41.1677
31.1549
19.2867
9.99494
4.57363
1.92602
0.794458
0.348411
0.17554
70.8124
32.7568
33.611
34.5964
28.1942
17.4993
8.96883
3.97746
1.61145
0.661255
0.314201
83.6386
34.4183
30.3196
33.4355
33.6016
26.3022
16.7959
8.79706
3.7624
1.44043
0.622049
91.5338
38.2426
30.4068
32.2166
35.6115
33.8865
24.6784
15.2281
8.0106
3.19929
1.33353
95.2215
40.1493
30.279
30.5516
34.5073
37.9245
33.359
22.7264
13.2337
6.58022
2.60788
97.5677
40.7299
29.6758
28.4861
31.3898
36.7547
38.8537
30.9811
19.7642
10.823
5.1383
99.3221
40.6169
28.9676
26.5001
27.7698
32.6259
38.5411
36.879
26.753
15.886
8.23839
100.722
40.4828
28.5495
24.9665
24.6071
27.9109
34.654
38.675
32.2774
21.1154
11.7528
102.692
40.5307
28.5353
23.9703
22.2406
23.8744
29.6958
36.7692
35.3105
25.4645
15.32
105.48
40.9411
28.9946
23.4762
20.6713
20.9321
25.2995
33.3569
36.1748
28.4114
18.188
109.496
42.0833
29.9738
23.4346
19.8023
19.0924
22.0929
29.7418
35.5287
29.9909
20.0771
114.98
44.1896
31.3796
23.8966
19.5474
18.1996
20.1976
26.4247
34.4345
30.7361
21.1489
122.828
47.2599
33.3182
24.8409
19.7869
17.9929
19.3221
23.8062
31.8251
31.853
21.406
132.476
51.2023
35.8973
26.2117
20.257
17.8853
18.5779
21.7126
26.8291
30.8804
21.3202
144.284
56.4303
39.3895
28.1642
20.978
17.7283
17.5519
19.4108
22.4961
25.1767
22.1717
159.694
63.3566
44.1212
30.9439
22.1198
17.7025
16.5484
17.3043
19.0819
20.9658
20.9214
180.204
72.586
50.6644
35.0516
24.0712
18.1354
15.929
15.7951
16.7033
17.9143
18.4878
208.469
85.0737
60.1789
41.7242
27.8857
19.754
16.0863
14.9089
14.9343
15.3701
15.5963
248.667
102.63
75.7893
54.6594
37.2201
25.7179
19.6291
16.8461
15.684
15.1158
14.4039
268.282
118.089
94.1625
73.6608
53.6756
38.4931
29.6029
25.67
24.785
25.416
26.3662
264.633
116.567
95.4261
78.518
61.1763
46.1174
35.5647
29.6534
26.6982
23.5082
19.5213
276.016
116.074
94.1484
78.3106
63.2927
49.778
38.8344
31.3794
24.4238
16.9208
11.0482
329.963
127.802
92.7086
73.5742
59.4401
47.7651
37.7753
27.656
17.8175
11.0338
6.61517
578.642
141.563
90.9327
65.8293
50.9658
37.8381
25.2226
15.479
9.29937
5.45544
3.10039
39.3649
37.1607
36.1011
36.5469
37.6749
37.8606
36.421
31.2742
21.2672
13.152
12.7881
11.4729
10.7451
10.7884
10.9161
12.077
12.8053
11.5376
6.5712
6.3009
5.66473
5.26645
5.03598
5.09828
6.26347
7.95675
8.4583
3.29367
2.92246
2.57488
2.51392
2.45807
2.64101
3.41625
4.76416
5.89996
39.9119
37.9202
33.3879
24.3086
8.56354
3.95755
3.26619
2.36175
8.37738
13.91
14.2591
15.0153
14.5581
11.1251
3.64098
2.08243
3.82603
7.80347
6.81873
7.40494
9.38941
11.213
10.4199
4.15557
2.2511
3.71877
6.67191
3.55808
4.06338
5.57641
7.87714
8.88856
4.62569
2.50931
3.63327
5.46366
0.00900897
0.00829372
0.00834643
0.00546645
0.457474
0.00756231
0.134413
0.00808337
0.00752949
0.00689226
0.457286
0.00811788
0.0102643
0.00517855
0.0146005
0.00728316
0.00609877
0.0053916
0.00724627
0.00711002
0.00665013
0.059899
0.00851844
0.122683
0.00792641
0.005116
0.00991143
0.125677
1.90478
0.384694
0.00725076
0.00641645
0.00713082
0.00806734
0.0067719
0.00826362
0.112006
0.00790873
0.00803844
0.00759505
0.220254
0.00809806
0.0405945
0.00849291
0.760077
0.363044
0.0185483
0.476262
0.00690936
0.00729657
0.389699
0.00761731
0.0823759
0.0411793
0.00728896
0.00667812
0.0580093
0.00764079
1.9115
0.0159361
0.117209
0.0641483
0.515744
0.0346227
0.250202
0.00714666
0.37699
0.0071537
0.0082958
0.00687911
0.00515424
0.0070242
0.014928
0.00730261
0.012055
0.00702711
0.0865474
0.00827633
0.0567185
1.07355
0.26556
0.0261201
0.0079363
0.00838003
0.00696334
0.014925
3.52011
0.0392277
0.0201039
0.107266
0.00809327
0.00768066
0.209488
0.00713402
1.05048
0.605068
0.00712382
0.00612575
0.0253215
0.00712794
0.00780599
0.409353
0.00676114
0.0061657
0.0146982
0.00811556
0.00461336
0.00845239
0.014877
0.00667044
0.00797537
0.00814853
0.0071369
0.00647719
0.0217829
0.00769143
0.00753909
0.00731034
0.00793794
0.00671961
0.00693885
0.00728415
0.00704368
0.00504621
0.324201
0.00827115
0.297914
0.00474132
0.00639818
0.00922511
0.00780513
0.0162275
0.449581
0.00701762
0.00833784
0.00811351
0.0684596
0.0158194
0.405198
0.00731787
0.0432735
0.00662737
0.209205
0.00868328
0.00750386
0.0249878
0.0167506
0.00715872
0.00702415
0.00708825
0.00716209
0.0076829
0.0277612
0.00720594
0.00608027
0.0202926
0.0196187
0.0419425
0.00545446
0.00746143
0.0054917
0.0334459
0.00702261
0.0077149
0.385459
0.0259621
0.020775
0.00797444
0.00644301
0.227408
0.00589946
0.00544521
0.00664979
0.00646342
0.00640797
0.00641429
0.00577904
0.0291092
0.786386
0.00695506
0.007167
0.0659836
0.00849736
0.117224
0.00794393
0.0122716
0.00711062
0.00726217
0.0082508
0.0812186
0.0139647
0.00530693
0.00718729
0.187653
0.00832311
0.00759008
0.00740249
0.0260625
0.00995485
0.00856732
0.0264771
0.00726845
0.013303
0.00785051
0.00838419
0.0402882
0.00713579
0.00636177
0.00736241
0.00740427
0.125617
0.00759397
0.00827173
0.00670262
0.00792096
0.0222692
0.0079776
0.0245709
0.00714772
0.0112028
0.0109143
0.0065602
0.0070861
0.0219994
0.00484089
0.00765794
0.0777133
0.0238309
0.0122041
0.149673
0.0408042
0.00713658
0.00714426
0.00729036
0.0278891
0.954768
0.337097
0.0084499
0.00813851
0.00809888
0.0246522
0.0318016
0.00613511
0.126862
0.0072802
0.0403797
0.00800705
0.00825124
0.526797
0.339382
0.00818691
0.128059
0.0100101
0.0072684
0.00602584
0.00744409
0.00675158
0.00785813
0.0193758
0.00709703
0.00832868
0.00994595
0.00737853
0.00819437
0.00796944
0.0167082
0.00662461
0.00736743
0.0176544
0.00694636
0.223274
0.00727739
0.00724707
0.0175097
0.007555
0.00735294
0.00536463
0.00776091
0.00692285
0.0181849
0.00705788
0.00827287
0.268945
0.31275
0.00603742
0.00757646
1.50884
0.00823482
0.00682335
0.0431858
0.00833779
0.115828
0.0080086
0.00957723
0.00856439
0.00739329
0.00648779
0.00816014
0.00677708
0.00537606
0.00778402
0.00907935
0.00705929
0.392064
0.00678913
0.00664436
0.00827774
0.0697091
0.0629124
0.00741975
0.0893653
0.00816033
0.00644963
0.00690413
0.0888074
0.0065568
0.00711737
0.0144722
0.0067059
0.00715814
0.00710426
0.19153
0.00745993
0.00538148
0.0237277
0.00707907
0.00779079
0.00596395
0.0070916
0.151071
0.00721589
0.525524
0.081201
0.00846328
0.0114001
0.746739
0.0163791
0.00823614
0.00784791
0.00594469
0.0312884
0.122459
0.00723908
0.0266948
0.199857
0.0710473
0.0227814
0.00753502
0.0941297
0.338294
0.115994
0.00596625
0.00700848
0.00685004
0.0132312
0.00860266
0.0116199
0.00695714
0.00849743
0.196272
0.00986709
0.00536276
0.00800404
0.00799114
0.0072596
0.0196531
0.00512363
0.0161163
0.143503
0.00725931
0.00773793
0.112944
0.66003
0.00476695
0.0119675
0.00830819
0.00905417
0.00673406
0.00751041
0.00710537
0.236654
0.00753959
0.0244735
0.00768134
0.00526801
0.332433
0.00848872
0.00480502
0.0305084
0.0230922
0.00771679
0.0531932
0.00466863
0.00778968
0.351292
0.271746
0.00788111
0.00719886
0.00835365
0.034729
0.0190821
0.0076462
0.00850642
0.0447942
0.00782177
0.390677
0.0536104
0.0311964
0.00726515
0.189476
0.00747867
0.00719888
0.0109358
0.0103937
0.0302045
0.006393
0.0141603
0.00749287
0.00484371
0.0416234
0.278986
0.00614584
0.157563
0.013122
0.00627967
0.00665174
0.00722507
0.0281877
0.0112453
0.298628
0.007902
0.0242438
0.00509364
0.00662508
0.00901909
0.014775
0.19622
0.410274
0.00509695
0.00859993
0.00596744
3.1136
0.00522487
0.00876258
0.00699339
0.0258198
0.0164312
0.0416328
0.00740416
0.0355904
0.0077581
0.0083352
0.00793719
0.0309249
0.0201035
0.154503
0.00585763
0.0281989
0.0265579
0.008257
0.00739017
0.315578
0.00504967
0.00599609
0.00738402
0.144809
0.115816
0.0902244
0.0916647
0.00720765
0.00657228
0.0167089
0.00702491
0.10741
0.00715185
0.00822587
0.00731034
0.0347635
0.0334868
0.00712417
0.00778456
0.00670009
0.0940689
0.070467
0.00845061
0.0241677
0.240125
0.00941737
0.0165131
0.007401
0.0271317
0.0075812
0.00712638
0.00763858
0.00794933
0.00643027
0.00715435
0.00536213
0.00853158
0.00733498
0.00565588
0.00593447
0.00806119
0.00806823
0.5131
0.021478
0.0133818
0.00722823
0.327642
0.00835625
0.278614
0.0162825
0.024624
0.0215971
0.00797723
0.338106
0.031459
0.00533247
0.00779122
0.00634804
0.00666892
0.00826701
0.00768546
0.00817961
0.0069365
0.230205
0.00799425
0.00744509
0.0880865
0.00775823
0.200854
0.00690177
0.0544881
0.00560285
0.0198472
0.0085629
0.00786119
0.00840634
0.158375
0.034506
0.00795467
0.00791786
0.00502516
0.00833988
0.00596764
0.00830328
0.214107
0.00682541
0.0465363
0.00854625
0.00757298
0.390988
0.290581
0.00682292
0.00660649
0.00700102
0.00829851
0.014749
0.0394432
0.00721327
0.00877713
0.268869
0.539414
0.00792017
0.00727944
0.00827475
0.0165063
0.350775
0.0191859
0.00807731
0.00751129
0.311965
0.00714949
0.00866615
0.00693284
0.0385623
0.359451
0.0077265
0.020584
0.00781521
0.0325857
0.00735059
0.0120984
0.00603588
0.00642223
0.0925355
0.0357387
0.00841319
0.00854619
1.04946
0.0076279
0.00615844
0.00916066
0.0328574
0.0142646
0.0306467
0.00760088
0.00685146
0.00776194
0.00791109
0.592492
0.015689
0.0120862
0.00711562
0.00795127
0.043326
0.00708178
0.00717527
0.00721304
0.00698218
0.00834354
0.0153838
0.0324386
0.0181327
0.00622322
0.0104929
0.00724678
0.059278
0.00698617
0.00780926
0.575356
0.17836
0.00755365
0.00755906
0.0649874
0.00672578
0.00737272
0.0194585
0.00830921
0.00688049
0.0101482
0.00919592
0.00828739
0.00491633
0.00567893
0.0383192
0.124981
0.0288989
0.032448
0.00626391
0.0211373
0.0276291
0.0085055
0.00836288
0.00684682
0.0245827
0.00607536
0.00700671
0.00718322
0.00511792
0.0428983
0.47079
0.00608438
0.00737702
0.00769908
0.0124644
0.00812405
0.00722844
0.00694241
0.0130932
0.00694674
0.00727538
0.00695298
0.00825018
0.0116044
0.055876
0.145652
0.00698488
0.00707509
0.0075503
0.0537418
0.0071369
0.126773
0.00709801
0.016508
0.159544
0.00772043
0.0185117
0.00849531
0.00691817
0.0171596
0.00845229
0.508801
0.00556133
0.00666614
0.00841669
0.0125262
0.00507649
0.0319799
0.304091
0.00750582
0.006411
0.00840315
0.00784612
0.0069751
0.0211727
0.00812487
0.00763918
0.00760548
0.0100247
0.0277917
0.0081652
0.00759497
0.00750573
0.0224544
0.00548427
0.00649421
0.0111484
0.103636
0.00947745
0.00637911
0.00642139
0.00841853
0.0396795
0.00649386
0.144079
0.00784347
0.00681753
0.00792353
0.00721195
0.0834409
0.0137959
0.0282204
0.00516345
0.00716355
0.00686503
0.00669278
0.0269531
0.00823885
0.313288
0.0420618
0.207448
0.00666526
0.0102607
0.0303544
0.0141722
0.00731147
0.00882682
0.0341405
0.0121776
0.00803376
0.00538972
0.257344
0.0081154
0.178101
0.00920415
0.00727903
0.0157363
0.007545
0.00710512
0.00682426
0.00773103
0.00708281
0.00478629
0.00818502
0.00695329
0.00700188
0.00924576
0.0211735
0.151913
0.0141081
0.00722498
0.172477
0.327748
0.00782502
0.00483479
0.00710894
0.0292142
0.0100929
0.044092
0.00806695
0.0214289
0.00859403
0.00898337
0.00720511
0.00694469
0.0076636
0.0138957
0.0631381
0.00860546
0.007906
0.00737178
0.254042
0.195563
0.00756592
0.00818874
0.00698816
0.00788082
0.00813644
0.00821921
0.00837473
0.00789438
0.00727366
0.00561306
0.0500275
0.091726
0.00481803
0.00798809
0.00769178
0.00794453
0.00671721
0.222492
0.00827371
0.00632121
0.00757093
0.284587
0.127997
0.0351228
0.00778848
0.0170361
0.00770525
0.00783982
0.283971
0.00715108
0.00815147
0.00713881
0.0371852
0.00602798
0.00593514
0.00813998
0.0105963
0.138135
0.01992
0.00814729
0.00470249
0.0362403
0.0277834
0.0198916
0.00842816
0.00718553
0.00525718
0.0138906
0.0265786
0.00829258
0.00695421
0.00720937
0.00732897
0.00823953
0.00904916
0.00625054
0.180135
0.206862
0.0435987
0.00809205
0.469954
0.00853052
0.0070955
0.00700175
0.00791179
0.00766539
0.00769204
0.0140647
0.0494149
0.0204019
0.00765285
0.0117174
0.00767685
0.00859966
0.00729072
0.0075432
0.00730998
0.00793685
0.00814626
0.00716848
1.10283
0.00754205
0.00713696
0.0139024
0.15281
0.0071404
0.00796438
0.0184874
0.896296
0.00708917
0.00778975
0.011022
0.0133649
0.00846021
0.00808999
0.00703589
0.00860618
0.0607778
0.00826795
0.0856783
0.00965157
0.127133
0.00809928
0.00820816
0.00623741
0.028856
0.00776369
0.00731294
0.0072505
0.00831174
0.00612092
0.2336
0.006636
0.0271969
0.259275
0.0294005
0.00605029
0.040899
0.00850954
0.0081399
0.00510973
0.00848863
0.00611419
0.00762256
0.288217
0.00716336
0.0106527
0.00730758
0.00463904
0.00536195
0.0192333
0.00787871
0.00693969
0.00804735
0.274348
0.0599343
0.319613
0.00716101
0.00998417
0.0070587
0.00776822
0.296107
0.00753495
0.00830107
0.00609822
0.265301
0.0319659
0.0397937
0.00698311
0.00533681
0.0240119
0.483525
0.00802011
0.00723077
0.338508
0.00759389
0.0168123
0.00791849
0.0857758
0.0082732
0.0285594
0.0083039
0.00730106
0.00844773
0.00765441
0.0141582
0.00656404
0.00712338
0.00780402
0.00717848
0.010005
0.00832723
0.038454
0.00689883
0.00684399
0.36249
0.0232968
0.0444639
0.00832448
0.0389343
0.00738545
0.00827471
0.0266216
0.00646338
0.0373368
0.358749
0.00610363
0.0132227
0.00653499
0.00739703
0.0178348
0.0165128
0.00708361
0.0461751
0.00813301
0.909254
0.0368874
0.531871
0.00813221
0.020909
0.0115617
0.312374
0.00768917
0.00538629
0.00855523
0.00462335
0.115719
0.00815457
0.00890416
0.0117877
0.0280783
0.21804
0.00816274
0.00781187
0.00735257
0.0431228
0.00706808
0.191078
0.0111241
0.0533206
0.349947
0.00827416
0.0160974
0.0321916
0.0295462
0.0842086
0.0257931
0.00756139
0.0114279
0.00493827
0.00810527
0.00783136
0.00856563
0.00940644
0.00663888
0.00831273
0.0055664
0.0464171
0.00485685
0.00802622
0.10714
0.0137812
0.00689586
0.0108692
0.00813564
0.00703119
0.00732282
0.189836
0.00725082
0.0182593
0.00617438
0.0243315
0.0079707
0.00695354
0.00796414
0.00752364
0.0184011
0.0407278
0.0461129
0.630761
0.290408
0.481276
0.00681187
0.00709265
0.00935813
0.0083873
0.00585414
0.0457066
0.0068701
0.115846
0.00613354
0.151588
0.00694328
0.00494355
0.00812138
0.297065
0.00862467
0.470034
0.0067586
0.00745705
0.0446224
0.0597002
0.00690518
0.0259257
0.0364578
0.0487499
0.126361
0.0199404
0.216123
0.0091305
0.00714632
0.362295
0.0191323
0.00832443
0.00637347
0.00732159
0.00503425
0.00528468
0.0097188
0.0077309
0.0167591
0.626663
0.00751247
0.00716988
0.00738701
0.00818462
0.00978721
0.00542035
0.0069144
0.00557812
0.381859
0.00729301
0.612056
0.0699304
0.00777316
0.182377
0.0563181
0.0177124
0.00667908
0.125206
0.00768158
0.00804651
0.349758
0.00750365
0.00824231
0.00575154
0.00809815
0.00721363
0.164599
0.00746357
0.659105
0.0134554
0.0195761
0.00723421
0.0123984
0.0303614
0.00619828
0.30062
0.007767
0.0112083
0.0288871
0.00710724
0.0162524
0.0304066
0.0215961
0.00747335
0.0323066
0.0712464
0.00644792
0.00732847
0.0275674
0.00695111
0.0195488
0.0239429
0.357831
0.00712927
0.00860373
0.00797715
0.00625385
0.00829167
0.00477688
0.0371351
1.28829
0.00806617
0.0240138
0.0280467
0.00819669
0.0348999
0.0071038
0.00707569
2.03371
0.0387252
0.365041
0.163037
0.00815608
0.00793078
0.0220134
0.219925
0.190711
0.243083
0.00494769
0.00816678
0.00716524
0.00626895
0.210921
0.047784
0.00871374
0.00737559
0.0279783
0.0241792
0.0357826
0.00682646
0.0915471
0.219183
0.00638495
0.00560841
0.0072567
0.00717502
0.21325
0.00541961
0.00848981
0.0151205
0.00772496
0.00654859
0.367467
0.00884881
0.010604
0.0328258
0.0305622
0.00750728
0.182052
0.0191378
0.00836063
0.00455263
0.019076
0.00660975
0.325134
0.00807222
0.00768129
0.0069294
0.113338
0.00614667
0.00745556
0.0318758
0.00833695
0.00814527
0.00859552
0.00531485
0.00771204
0.0351541
0.0184932
0.00815153
0.470926
0.034749
0.00819239
0.0317274
0.00775963
0.00519065
0.0324401
0.00802019
0.008161
0.0078834
0.00737716
0.00793873
0.00717871
0.00805783
0.0507922
0.0367071
0.006111
0.0509855
0.00689527
0.0198426
0.0180737
0.0085549
0.00688658
0.0158984
0.00487093
0.00674459
0.00588647
0.00667609
0.00679787
0.0079535
0.0382087
0.150072
0.0240729
0.100189
0.00859361
0.012814
0.332626
0.0163569
0.0127744
0.00758695
0.0336949
0.0219262
0.17553
0.00478028
0.0188102
0.0326653
0.00655093
0.00796239
1.00605
0.0048381
0.00670843
0.029007
0.0278255
0.00584309
0.0119336
0.0141294
0.00460668
0.568124
1.03863
0.00790226
0.00716229
0.0168532
0.0434582
0.0104548
0.00811409
0.00631612
0.00839055
0.00719166
0.0851031
0.0076141
0.00845349
0.136632
0.00846706
0.00727077
0.00770527
0.00758637
0.00680034
0.00857815
0.00714153
0.0125732
0.0070404
0.00879619
0.00803172
0.0308635
0.00818052
0.0182901
0.00770048
0.0209378
0.00837379
0.00768098
0.0585077
0.23862
0.00706419
0.00782029
0.00768558
0.0207165
0.00826608
0.00776137
0.0083305
0.00738607
0.00621094
0.00728449
0.031245
0.00512582
0.0631412
0.00847633
0.00858128
0.00789253
0.00670844
0.00730109
0.00845577
0.00802813
0.155034
0.00715222
0.0164192
0.00789788
0.00800637
0.469021
0.00844605
0.00855177
0.137262
0.209459
0.0144842
0.00754164
0.0199064
0.00789255
0.0173683
0.011394
0.0104372
0.00737134
0.00628099
0.0270844
0.00764475
0.032127
0.00721213
0.0153444
0.0266934
0.00724353
0.00733355
0.00715931
0.135774
0.0152876
0.00498018
0.0312468
0.00642658
0.0059725
0.00840048
0.0104285
0.0301827
0.00751045
0.00812067
0.0407292
0.0070507
0.00693587
0.00683374
0.00548267
0.00789611
0.0282995
0.0303226
0.00686206
0.01779
0.00798148
0.00808515
0.00702089
1.01365
0.00984086
0.00694458
0.156584
0.032151
0.00820251
0.00706908
0.0289655
0.0105779
0.00663949
0.00714398
0.0150757
0.036623
0.00754374
0.00693978
0.0731043
0.00714745
0.00830129
0.0073036
0.00686158
0.00792083
0.0249241
0.0076278
0.033416
0.00637558
0.0134015
0.00812904
0.00502647
0.0279375
0.00689723
0.019905
0.00764414
0.00710033
0.0394582
0.013651
0.00560462
0.0084551
0.00714522
0.329236
0.00783606
0.00713232
2.30557
0.00676016
0.00712787
0.00723708
0.00712693
0.00644751
0.00634668
0.0157015
0.00514403
0.0160328
0.00712751
0.00760995
0.0153796
0.00453772
0.00748384
0.00647462
0.00563906
0.00728251
0.278164
0.00855484
0.0266929
0.00747185
0.00686917
0.00584475
0.00727551
0.0124458
0.00795649
0.00721838
0.00670093
0.00756566
0.00836261
0.0341826
0.023341
0.0108769
0.0108752
0.0395646
0.00686277
0.00757071
0.00744432
0.214648
0.00727996
0.00664856
0.329786
0.00724278
0.22497
0.162314
0.007051
0.00810181
0.00671868
0.00535386
0.00493929
0.00700455
0.00795508
0.0218608
0.0376634
0.00473109
0.034945
0.00782648
0.0720741
0.0536842
1.02819
0.0107511
0.0116855
0.00493711
0.00828724
0.00684326
0.0246062
0.00790221
0.0110265
0.0052893
0.0128494
0.00523173
0.0608467
0.0241511
0.0239388
0.259708
0.00781623
0.350181
0.00982197
0.00664145
0.00596396
0.00874112
0.00840237
0.602924
0.00782482
0.247165