/*--------------------------------*- C++ -*----------------------------------*\
| =========                 |                                                 |
| \\      /  F ield         | OpenFOAM: The Open Source CFD Toolbox           |
|  \\    /   O peration     | Version:  3.0.1                                 |
|   \\  /    A nd           | Web:      www.OpenFOAM.org                      |
|    \\/     M anipulation  |                                                 |
\*---------------------------------------------------------------------------*/
FoamFile
{
    version     2.0;
    format      ascii;
    class       volScalarField;
    location    "0.998968";
    object      epsilon;
}
// * * * * * * * * * * * * * * * * * * * * * * * * * * * * * * * * * * * * * //

dimensions      [0 2 -3 0 0 0 0];

internalField   nonuniform List<scalar> 
21246
(
571.739
181.646
87.8686
44.0866
20.6106
8.64771
3.34788
1.2661
0.4804
0.18601
0.07773
504.179
142.345
74.4991
39.0397
18.6411
8.03512
3.19821
1.21613
0.455501
0.173419
0.0713301
343.121
120.857
66.7469
37.5858
19.0494
8.54626
3.46506
1.31349
0.481779
0.1787
0.072546
247.484
100.988
60.1556
36.0095
19.3101
9.06662
3.79238
1.46482
0.541319
0.19919
0.0787488
183.701
78.1258
49.4881
32.5322
19.048
9.60209
4.20902
1.66761
0.620741
0.222576
0.082336
149.96
63.5299
41.1901
28.0476
17.3072
9.2447
4.2483
1.72881
0.650727
0.237397
0.0909849
128.952
53.55
35.3108
24.3906
15.2899
8.37935
3.9809
1.68009
0.653059
0.243645
0.0941703
114.998
46.817
30.8697
21.4353
13.5986
7.56788
3.67205
1.58943
0.634506
0.243121
0.098806
104.751
41.8047
27.4457
19.0685
12.1638
6.83398
3.36581
1.48721
0.609343
0.240356
0.100241
96.8288
37.9983
24.8014
17.2236
11.0193
6.23051
3.10236
1.39359
0.583677
0.235859
0.0993836
90.3404
34.988
22.7257
15.7812
10.1223
5.75308
2.8897
1.31496
0.560045
0.230326
0.0999106
85.5664
32.5449
21.0492
14.623
9.40649
5.37451
2.72142
1.2524
0.541053
0.226204
0.0999235
82.3334
30.6163
19.7168
13.7155
8.85689
5.09104
2.5989
1.20849
0.528934
0.224469
0.100088
79.9324
29.1792
18.7107
13.0511
8.47486
4.90704
2.52641
1.18605
0.524603
0.22488
0.101568
78.893
28.105
17.9456
12.569
8.22457
4.80722
2.49946
1.18455
0.528467
0.227852
0.102546
79.1848
27.3784
17.4121
12.2686
8.11186
4.79921
2.52448
1.20777
0.542338
0.234251
0.104789
80.4812
27.048
17.1368
12.1761
8.16508
4.90674
2.61652
1.26345
0.569667
0.245332
0.108673
83.5679
27.1424
17.1259
12.2998
8.40057
5.1512
2.79302
1.36174
0.615228
0.263099
0.114647
89.3222
28.058
17.518
12.7042
8.88344
5.5999
3.09308
1.52253
0.688883
0.292015
0.125042
98.8582
30.0604
18.4438
13.4318
9.61913
6.26754
3.58227
1.80447
0.824609
0.349359
0.147075
114.637
33.8189
20.1552
14.6118
10.6725
7.1977
4.29334
2.25491
1.06686
0.464921
0.196647
143.215
39.7111
22.9422
16.355
12.0844
8.41533
5.27216
2.94338
1.48718
0.69332
0.308298
194.873
48.9475
26.9737
18.9521
14.0461
10.0533
6.6366
3.99433
2.21177
1.1424
0.560979
342.952
55.6885
33.9789
22.2152
16.7691
12.4959
8.81306
5.80935
3.58989
2.09672
1.17302
549.916
288.601
152.585
79.6837
39.3803
15.9435
5.40511
1.89876
0.674613
0.252295
0.103437
497.474
303.833
201.944
124.572
71.0643
35.7152
15.0014
4.84492
1.23243
0.407227
0.157391
201.984
287.296
217.95
152.662
98.599
57.1889
28.7573
11.7582
3.59112
0.776679
0.261637
199.235
180.806
213.703
169.88
120.565
77.3453
44.0464
21.4137
8.31845
2.35045
0.536203
205.087
142.317
189.288
192.182
146.465
99.178
60.7723
32.9972
15.1856
5.51242
1.52913
206.038
126.341
153.186
201.936
183.862
130.748
82.5694
47.3074
24.058
10.336
3.55363
207.821
116.342
126.249
175.115
211.359
173.697
114.568
67.1129
35.6976
16.8585
6.75503
210.537
108.598
107.323
142.139
196.862
208.776
155.162
94.618
51.447
25.4043
11.1808
214.993
102.383
93.2812
116.629
163.365
211.315
190.121
126.771
71.4174
36.2238
16.7658
220.934
97.5519
82.865
96.5753
131.335
184.345
204.498
155.12
92.8512
48.5757
23.2627
228.614
94.0637
75.8908
81.6976
105.645
151.795
194.903
171.098
110.616
60.3146
29.8204
238.165
93.6105
72.0622
71.3334
86.273
121.993
169.674
172.198
120.19
68.5746
35.1813
250.957
95.0591
70.557
64.8973
72.9343
98.6587
143.201
162.531
120.306
71.4092
37.9939
268.039
99.4464
71.322
61.5819
64.4136
81.1705
116.235
146.973
112.509
68.5352
37.8888
290.487
107.442
74.1415
60.2699
58.9922
69.1248
89.4551
114.491
101.565
61.0171
35.4352
320.019
119.037
79.1201
60.1111
54.0175
57.8866
68.1643
80.3233
83.5267
54.7317
31.8525
360.071
135.827
87.4604
62.0313
50.6259
49.2379
53.3723
59.4132
62.339
48.8744
28.8431
417.328
160.44
101.45
67.9941
50.8151
45.2911
45.7437
48.218
49.2865
43.4801
28.561
505.007
197.533
125.972
82.2418
57.8495
48.4332
46.7779
47.6159
47.2947
42.5675
31.3617
649.628
259.796
176.67
119.423
84.1874
70.1954
68.7567
70.0127
66.7055
56.6435
40.6103
756.849
339.851
263.524
194.744
145.861
124.933
113.046
100.85
83.6711
64.4873
43.0543
862.226
359.384
294.452
239.333
173.362
132.29
101.657
75.5937
54.1812
37.6508
24.7798
783.186
366.477
270.59
195.534
138.576
96.9911
67.2695
45.8666
30.5701
19.805
12.3834
646.662
319.201
185.23
115.751
75.2545
49.6932
32.7116
21.1492
13.2737
8.02646
4.66104
181.459
63.9395
15.3928
3.29242
0.960306
0.449417
0.298273
0.234518
0.197209
0.168392
0.141628
300.523
135.069
15.1845
4.19297
1.18212
0.512941
0.306587
0.225005
0.181539
0.151586
0.127093
392.05
181.555
16.6659
5.48293
1.3683
0.594277
0.328579
0.225087
0.170434
0.132197
0.0982654
445.943
172.732
18.4317
6.26087
1.44052
0.66485
0.34959
0.229867
0.165084
0.121274
0.0853227
472.773
152.257
19.2648
6.30201
1.4577
0.716881
0.363594
0.236555
0.163997
0.116705
0.0802001
484.888
138.642
19.5484
6.02397
1.46643
0.748562
0.371877
0.243813
0.165376
0.116005
0.0792393
483.505
132.68
19.6817
5.70191
1.4828
0.76072
0.379075
0.250988
0.168152
0.117481
0.0794585
470.12
128.758
19.6999
5.4376
1.50709
0.760924
0.387173
0.257813
0.171997
0.120767
0.0823681
450.852
127.307
19.796
5.28002
1.53859
0.761027
0.396683
0.264842
0.176992
0.125408
0.0858544
428.978
130.197
21.4558
5.40626
1.5903
0.769072
0.409165
0.272857
0.183512
0.131315
0.0902914
403.069
135.319
24.9145
6.04688
1.74323
0.80043
0.427672
0.282102
0.192126
0.138405
0.0962824
374.163
140.68
29.0001
7.08665
2.01362
0.863122
0.458052
0.295653
0.203793
0.1473
0.104112
345.575
146.691
34.2428
8.74174
2.48964
0.984199
0.505879
0.315981
0.21861
0.158182
0.113817
317.459
154.145
41.4719
11.4375
3.35932
1.23104
0.59038
0.34951
0.238401
0.17197
0.125439
290.175
162.382
49.6962
15.0907
4.73571
1.6838
0.745786
0.408427
0.267339
0.190185
0.139657
264.786
171.445
59.3951
20.0183
6.85652
2.49178
1.04592
0.523242
0.317263
0.217185
0.158162
241.223
181.544
71.6597
26.9396
10.1624
3.92446
1.63857
0.764973
0.419577
0.265839
0.186131
220.842
193.194
86.6009
36.2531
15.0955
6.33539
2.76221
1.27291
0.647391
0.371287
0.239505
204.912
206.775
105.36
49.1293
22.5326
10.3467
4.84069
2.31883
1.16291
0.623667
0.36525
195.784
222.593
129.468
67.4978
34.1083
17.1511
8.69732
4.45129
2.31819
1.2398
0.691064
197.52
241.018
160.709
94.5749
52.9797
29.2419
16.1267
8.90343
4.93505
2.75325
1.55472
218.664
264.053
200.895
135.262
85.2162
52.1022
31.4293
18.8138
11.2073
6.65237
3.93944
260.079
282.135
240.017
185.806
134.304
92.815
62.2749
40.9585
26.5466
17.0138
10.7738
384.271
240.125
202.191
169.879
138.719
109.657
84.1023
62.8682
45.9218
32.9107
23.086
174.147
62.2921
15.7062
3.46044
0.989877
0.470542
0.328633
0.272276
0.240518
0.21616
0.192879
306.832
125.033
13.7984
3.9096
1.26924
0.639075
0.43884
0.361809
0.323922
0.299446
0.278752
384.627
164.854
13.7116
4.62557
1.48156
0.779198
0.542744
0.453888
0.414602
0.391318
0.371236
406.682
148.698
13.6454
4.90397
1.57237
0.87371
0.624732
0.539976
0.513295
0.509778
0.514587
399.057
119.825
13.0618
4.72215
1.57926
0.934367
0.688912
0.612377
0.599455
0.616482
0.647195
382.51
96.714
12.1816
4.34335
1.55808
0.974506
0.738047
0.671988
0.67478
0.718322
0.79163
364.754
80.4591
11.2716
3.96383
1.53238
1.00239
0.775132
0.719073
0.733321
0.795964
0.899749
345.623
68.7483
10.3995
3.63992
1.50799
1.02175
0.803234
0.7545
0.774232
0.846791
0.971353
330.178
60.1709
9.64729
3.38424
1.49266
1.03259
0.825054
0.778758
0.797264
0.86743
0.988034
319.942
53.8763
9.04418
3.19734
1.49036
1.03852
0.841686
0.792413
0.80375
0.860798
0.954963
315.738
49.6921
8.6161
3.07479
1.50096
1.04514
0.853706
0.796819
0.796428
0.834186
0.897717
314.505
46.9056
8.31835
3.00084
1.52154
1.05314
0.862509
0.794054
0.779152
0.795098
0.825848
314.997
46.5876
8.41718
3.01948
1.56634
1.06803
0.872033
0.787603
0.756554
0.750509
0.752233
317.278
49.0105
9.32353
3.20782
1.65996
1.10049
0.886609
0.78151
0.732522
0.705006
0.682567
321.846
52.8669
10.8521
3.59843
1.81544
1.15911
0.909926
0.77933
0.710348
0.662656
0.62071
329.468
58.432
13.2076
4.31117
2.08017
1.26464
0.951715
0.786834
0.694248
0.627436
0.569791
340.878
66.3122
16.7174
5.55485
2.55567
1.46261
1.03396
0.81537
0.691197
0.603937
0.532555
357.912
76.7571
21.7103
7.6173
3.42286
1.84863
1.20713
0.891319
0.715992
0.600563
0.513288
383.026
90.6369
28.7608
10.9509
5.00519
2.62508
1.59155
1.08357
0.808261
0.639882
0.524596
420.496
109.831
39.0595
16.3714
7.90135
4.21204
2.46963
1.57526
1.08428
0.794768
0.611424
478.531
137.984
54.9383
25.5025
13.2901
7.48152
4.48384
2.83137
1.87494
1.29763
0.936381
573.872
183.572
82.0977
42.2728
23.9514
14.4564
9.13778
5.98477
4.03833
2.80055
1.99747
749.124
279.246
142.066
81.146
49.89
32.2022
21.4894
14.6916
10.239
7.25899
5.53068
760.468
431.413
268.124
177.906
124.962
91.4803
68.9047
52.9573
41.2709
32.4331
25.1877
969.384
387.737
106.332
33.5096
9.81808
3.07126
1.20782
0.657084
0.468206
0.393014
0.365395
1167.77
564.942
191.851
60.0002
15.8141
4.56857
1.61308
0.779195
0.521785
0.433412
0.410122
1064.15
534.99
233.438
87.4942
27.2204
6.7228
2.15979
0.947384
0.590742
0.481178
0.465729
809.781
461.958
241.081
104.101
37.6793
10.7138
2.88446
1.14767
0.669323
0.529944
0.515324
560.388
394.356
235.69
115.206
47.3597
15.5803
4.39812
1.43241
0.758561
0.578218
0.55598
367.277
336.012
225.784
124.485
57.6604
21.7453
6.84212
2.11368
0.910146
0.62908
0.59093
227.865
284.737
214.304
132.165
68.4768
29.3529
10.5033
3.39233
1.25947
0.720973
0.627241
133.961
240.464
202.539
137.687
78.8576
37.9638
15.434
5.49794
1.96252
0.923352
0.688472
81.7832
206.236
192.267
141.252
88.1426
47.0159
21.5074
8.59466
3.21428
1.34792
0.81936
68.6931
181.72
183.941
143.689
96.2957
56.0803
28.4826
12.7432
5.20343
2.14732
1.10041
71.1089
154.021
175.234
146.061
103.74
64.822
35.9304
17.7854
8.01215
3.47231
1.64496
64.8384
115.438
159.744
147.711
111.05
73.2568
43.4793
23.4164
11.5714
5.41152
2.57519
51.515
76.2209
130.539
143.257
117.315
81.5475
51.0778
29.4211
15.7459
7.97757
3.98679
37.8221
47.012
93.2853
126.481
118.781
88.7684
58.5037
35.5872
20.3445
11.093
5.9159
27.5656
28.8865
60.3815
99.0326
111.263
92.3743
64.7137
41.3791
25.0087
14.5467
8.2962
20.9262
18.6987
37.0274
69.0351
93.9761
89.577
68.072
45.9811
29.2604
18.0361
10.9598
16.9559
12.9454
22.338
44.0159
70.9973
79.2819
66.8331
48.2776
32.4368
21.1361
13.6354
15.0314
10.03
14.2707
26.8405
48.5232
63.5951
60.3827
47.2515
33.7551
23.2821
15.944
14.679
8.73414
10.1323
16.4987
30.6822
46.4432
49.9267
42.6815
32.6485
23.9303
17.3624
15.363
8.24658
7.98976
11.2247
18.8234
31.1199
37.8904
35.3329
28.9882
22.6205
17.392
17.0827
8.1643
6.84355
8.52382
12.6349
19.7535
26.6981
26.688
23.273
19.2508
15.6203
21.4526
9.44416
7.88146
8.66621
10.6857
14.2426
18.4783
18.8067
16.9607
14.6097
12.3381
50.3
31.9416
28.6107
23.3449
20.853
19.3836
17.7791
15.8992
13.4227
11.2352
9.42963
221.776
148.676
103.679
82.4666
69.4757
58.5686
46.4038
32.2073
20.6559
13.5854
9.77178
916.248
229.286
79.674
23.7491
7.04539
2.39276
1.03917
0.60186
0.436428
0.361461
0.323264
750.348
190.211
65.8645
23.2915
7.61293
2.67244
1.14092
0.634363
0.443377
0.356565
0.310021
668.054
196.455
64.7372
25.552
9.51416
3.46259
1.40175
0.722164
0.476792
0.369977
0.313604
558.461
177.696
59.9202
25.8
10.5669
4.1811
1.72368
0.858011
0.540454
0.405308
0.33689
464.34
148.867
54.1341
24.5262
10.4218
4.29098
1.85742
0.953278
0.607181
0.455912
0.37745
393.486
123.607
48.4293
22.7809
10.0329
4.29837
1.91964
1.0029
0.646015
0.491257
0.413166
339.954
104.231
43.485
21.0741
9.56289
4.24706
1.96108
1.04848
0.683635
0.525335
0.448734
298.202
89.4663
39.3007
19.5759
9.13015
4.19563
2.00283
1.0972
0.723709
0.55912
0.481462
266.922
78.3222
35.9164
18.3653
8.81021
4.18541
2.06397
1.15876
0.772367
0.597371
0.515481
243.573
69.9048
33.2669
17.4513
8.63585
4.23751
2.15917
1.24265
0.836286
0.643911
0.550426
226.268
63.7831
31.2933
16.844
8.62465
4.37525
2.30566
1.36202
0.925964
0.706914
0.591464
213.011
59.058
29.7627
16.4895
8.76045
4.60935
2.52088
1.53525
1.05997
0.803871
0.651877
203.587
55.4803
28.6535
16.3872
9.06063
4.96536
2.83151
1.78959
1.26727
0.964674
0.760697
197.05
53.5791
28.0863
16.5949
9.58137
5.49088
3.27708
2.16311
1.58944
1.23696
0.966247
192.949
52.7615
27.9407
17.0413
10.3296
6.24418
3.93258
2.72028
2.08185
1.67855
1.33936
191.382
53.0379
28.2628
17.7475
11.3106
7.24331
4.83182
3.50649
2.79111
2.33741
1.93329
192.468
54.5552
29.1578
18.7663
12.5472
8.51339
6.01212
4.56705
3.76134
3.25238
2.79313
196.906
57.2927
30.6989
20.1492
14.0599
10.0698
7.49909
5.9352
5.02242
4.43931
3.92354
205.807
61.4926
33.0463
22.0001
15.8973
11.9327
9.30699
7.62511
6.57827
5.87878
5.2784
221.282
67.8278
36.528
24.5163
18.1648
14.144
11.4454
9.62668
8.39559
7.50379
6.74152
247.887
77.5252
41.7488
28.0531
21.0701
16.8033
13.9399
11.9155
10.4072
9.20295
8.16448
296.31
92.9927
49.8124
33.2783
25.0243
20.1422
16.8954
14.5068
12.5609
10.8622
9.39471
395.976
124.142
65.1038
42.5821
31.5093
25.1398
21.012
17.9739
15.3841
12.9117
10.7034
702.045
171.059
91.8389
62.2536
47.9753
40.2849
35.4461
30.9101
25.197
18.9396
13.7294
28.7785
44.5376
56.126
64.6029
69.3413
70.5219
60.3815
59.1835
58.6129
18.8803
21.5153
22.1379
22.4643
23.0701
23.3076
20.1701
18.3567
17.7303
15.1367
14.3273
12.5046
11.8859
12.3363
12.6883
10.9871
9.74199
9.14088
11.1435
9.22121
7.65986
7.11327
7.12788
7.15341
6.02893
5.21564
4.99481
8.93264
4.31443
3.70281
4.07246
10.6439
27.335
41.3792
50.2208
55.4433
12.1579
3.57261
2.36246
4.23774
9.39547
15.2146
17.8179
17.8918
17.6039
12.1677
4.1569
2.50277
4.31039
8.34241
11.5679
11.4325
9.87773
9.06801
10.7822
4.56265
2.63666
4.23645
7.12837
8.4835
7.38884
6.00623
5.24255
0.00901093
0.00829696
0.00835085
0.00544859
0.469416
0.0075456
0.136038
0.00810779
0.007516
0.00694636
0.467866
0.00814105
0.0101794
0.0051989
0.0146054
0.00728703
0.00616145
0.00535713
0.00725138
0.0071106
0.00663475
0.0647754
0.00851855
0.120719
0.00792078
0.00513479
0.00978143
0.126126
1.03252
0.386751
0.00734496
0.00642431
0.00710307
0.00807193
0.00680666
0.00826514
0.110156
0.00790375
0.00801855
0.00757022
0.134668
0.00810324
0.0387194
0.00849363
0.715405
0.328753
0.0189254
0.471868
0.00692176
0.00735782
0.391096
0.00759189
0.0229406
0.03945
0.00734061
0.00666344
0.062298
0.00761264
0.96789
0.0123307
0.0728689
0.0156254
0.518749
0.0349074
0.16482
0.00715024
0.371254
0.0073128
0.0082983
0.00693361
0.00515134
0.00711792
0.0143981
0.00762817
0.0132635
0.00707384
0.082307
0.00828207
0.0564067
1.22048
0.269395
0.0262741
0.00793434
0.00838177
0.00698737
0.0144166
1.28514
0.0147482
0.0198364
0.107843
0.00809111
0.00765172
0.149507
0.00733616
1.17242
0.829021
0.00679009
0.00612462
0.0250944
0.00725048
0.00776548
0.331136
0.00679278
0.00616248
0.0148566
0.00812238
0.00460548
0.00845318
0.015442
0.00659687
0.00797974
0.00815448
0.00720188
0.00644142
0.0206597
0.00768947
0.00752157
0.0073239
0.00795222
0.00672971
0.00690715
0.00749329
0.00851139
0.00506772
0.250769
0.00817175
0.350193
0.00472078
0.00662179
0.00954413
0.00778901
0.0124372
0.398502
0.00707532
0.00834016
0.00818332
0.0638299
0.0158057
0.408567
0.0073484
0.0407152
0.00659354
0.212703
0.00868122
0.00749315
0.0252841
0.0157228
0.0072935
0.00708609
0.00710388
0.00721389
0.00767083
0.0280934
0.0074602
0.00606047
0.0212345
0.0190039
0.0415266
0.00544179
0.00747427
0.00549403
0.0336541
0.00710732
0.00771137
0.379132
0.0262046
0.020431
0.0070367
0.00710154
0.1581
0.0058855
0.00540726
0.00782179
0.00645628
0.00641365
0.00641483
0.00581012
0.0293873
0.73569
0.006957
0.00729394
0.0692015
0.00849936
0.113532
0.00796309
0.012422
0.00715396
0.00727826
0.00825513
0.0808962
0.0144122
0.00533312
0.00719268
0.131151
0.00832645
0.00759958
0.00742156
0.0259699
0.0102772
0.00856738
0.0268378
0.00734797
0.013569
0.00792671
0.00838739
0.0147885
0.00732307
0.00659028
0.00739518
0.00740793
0.126365
0.00759136
0.00827556
0.00672483
0.00791989
0.0116879
0.00798017
0.0250396
0.00721466
0.0112294
0.0105087
0.00648443
0.00699109
0.0209274
0.00485263
0.00762966
0.077239
0.0243925
0.0126639
0.152167
0.041132
0.00714052
0.00719611
0.00747729
0.0281901
1.35443
0.328706
0.00845293
0.00815804
0.00811809
0.0251508
0.0329346
0.00613189
0.122865
0.00779457
0.040265
0.0080102
0.0082587
0.464565
0.352635
0.00820041
0.128624
0.0105314
0.00728255
0.00601695
0.00745102
0.00673091
0.00785502
0.0193438
0.00713207
0.00838432
0.00977131
0.00738233
0.00820371
0.00797215
0.0168346
0.00658159
0.00817465
0.0176525
0.00694407
0.211191
0.00732156
0.00732614
0.017793
0.00756747
0.00736354
0.00539094
0.00776758
0.00692326
0.0183993
0.00718525
0.00828062
0.271791
0.306089
0.00602979
0.0075898
1.1722
0.00825007
0.00683016
0.0399376
0.00834565
0.117102
0.00684572
0.00968706
0.00856538
0.00741544
0.00708997
0.00817169
0.00680524
0.00538888
0.00777303
0.00898684
0.00709707
0.394839
0.0067708
0.00659218
0.00828529
0.0791939
0.0674711
0.00742849
0.0902063
0.00816457
0.00643919
0.00686415
0.0849193
0.0065633
0.00715436
0.0146714
0.00670979
0.00747347
0.00713619
0.204391
0.00746116
0.00538301
0.023834
0.00680507
0.0077858
0.00597917
0.007095
0.146104
0.0075149
0.532373
0.0816769
0.00846283
0.0114496
0.838857
0.0157864
0.00824491
0.00785721
0.00597209
0.028625
0.122981
0.00732927
0.0265179
0.188394
0.0801943
0.0199108
0.00753236
0.094296
0.385034
0.119144
0.00586793
0.00700732
0.00683131
0.0131993
0.00860268
0.0111077
0.00696015
0.0084981
0.190816
0.00986397
0.0053871
0.00800566
0.00799021
0.00727914
0.019293
0.00509555
0.0165764
0.148534
0.0073413
0.00774377
0.110232
0.643912
0.00477546
0.0119795
0.00831783
0.00905368
0.00675794
0.0075282
0.00712764
0.235008
0.00755457
0.0244344
0.0076544
0.00529274
0.326406
0.00837862
0.00481426
0.0316745
0.0225212
0.00770685
0.055087
0.00467145
0.00767059
0.343499
0.171011
0.0078772
0.00723228
0.00835594
0.0357395
0.0190687
0.007645
0.00850524
0.0408483
0.00761353
0.200163
0.0529918
0.0325484
0.00734419
0.203144
0.00712164
0.00720465
0.0111268
0.0105844
0.0305769
0.00639005
0.0145982
0.00788984
0.00485769
0.0421487
0.294905
0.00617461
0.165151
0.0138788
0.00628305
0.0065814
0.00755956
0.0281247
0.00740329
0.199681
0.00790164
0.0242681
0.00510361
0.0066323
0.00689393
0.014318
0.192842
0.410649
0.00512009
0.00859988
0.00596577
1.32011
0.0050917
0.00864392
0.00693827
0.0249978
0.0111282
0.0412564
0.00742405
0.034967
0.00775083
0.00833729
0.0079426
0.0307757
0.0188514
0.15882
0.0058504
0.0286976
0.0266612
0.00826107
0.00741096
0.368375
0.00506038
0.00598939
0.00720491
0.144961
0.116103
0.0902244
0.0916648
0.00747188
0.00657535
0.0163713
0.00702018
0.0722012
0.00701143
0.00824157
0.00734664
0.0347682
0.0328603
0.00717076
0.00777847
0.00668257
0.0952559
0.0702574
0.00845252
0.0244328
0.240004
0.00941606
0.0163329
0.00741213
0.0287751
0.00759262
0.00705021
0.00761231
0.00832694
0.00641472
0.00716038
0.00536152
0.00853716
0.00799819
0.00565653
0.00594671
0.0080809
0.00806725
0.492337
0.019893
0.0128507
0.00754917
0.260753
0.00835748
0.275444
0.0162634
0.0241181
0.021743
0.0079154
0.331404
0.032699
0.00533237
0.00778809
0.00634852
0.0066742
0.00827428
0.00769328
0.00819584
0.00678264
0.228721
0.00801402
0.0074552
0.0841411
0.00774348
0.157316
0.00694742
0.0624111
0.00560052
0.0194418
0.00856447
0.0078637
0.00840611
0.131245
0.0339621
0.00795597
0.00790901
0.00504572
0.00834114
0.00552279
0.00830571
0.199866
0.00681543
0.0451685
0.00861363
0.00761662
0.395809
0.28662
0.00680265
0.00656316
0.00706327
0.00830971
0.0142217
0.0414826
0.00721551
0.0089079
0.421013
0.930743
0.00791603
0.00734368
0.00827592
0.0112689
0.340595
0.0191121
0.00809067
0.0075014
0.305262
0.00723816
0.00874317
0.0071547
0.0408137
0.34514
0.0077113
0.0206678
0.00781901
0.0340821
0.00737481
0.0127321
0.00606811
0.00642655
0.0891555
0.0362634
0.00841425
0.0085462
1.10952
0.0076298
0.00615818
0.00926313
0.034041
0.00950035
0.0279998
0.00762842
0.00689587
0.00774153
0.00792693
0.708048
0.0157376
0.0120961
0.00711871
0.00794727
0.0427286
0.00710755
0.00746811
0.00695385
0.00705693
0.00842358
0.0156735
0.0335906
0.01813
0.0062159
0.0113065
0.00725894
0.059822
0.00703884
0.007804
0.524925
0.178096
0.00755192
0.00756894
0.0616405
0.00675995
0.00739262
0.0194664
0.00831042
0.0067104
0.0101745
0.00929826
0.0082846
0.00490159
0.00570404
0.0379469
0.137132
0.0338552
0.0324872
0.00626013
0.0206416
0.0270998
0.00849663
0.00836437
0.00681163
0.0247372
0.00606715
0.00699647
0.00679488
0.00512727
0.0404425
0.418208
0.00608509
0.0115116
0.00769076
0.0133352
0.00811974
0.00725922
0.00694809
0.0131881
0.00698051
0.00773138
0.00690686
0.00826411
0.0119506
0.055871
0.148029
0.00703815
0.00709157
0.00754995
0.0433185
0.00740275
0.127239
0.00714754
0.018267
0.183883
0.0077078
0.0167785
0.00849793
0.0069162
0.0174796
0.00853615
0.446503
0.005563
0.00667508
0.00841777
0.01246
0.00508685
0.0319598
0.348581
0.00750464
0.00640434
0.00840451
0.00784418
0.00695228
0.021441
0.00813436
0.00760999
0.00761692
0.00986457
0.0292526
0.0081627
0.0076475
0.00751081
0.0230404
0.00547266
0.00647902
0.0112914
0.12035
0.00959319
0.00637232
0.00628622
0.00847718
0.040193
0.00646706
0.148109
0.00784251
0.00687548
0.00792416
0.00745315
0.0838645
0.00727289
0.0298656
0.00518341
0.00724351
0.00669445
0.00670405
0.0276786
0.00824264
0.332731
0.0388627
0.194104
0.00658076
0.0102581
0.0242578
0.00946644
0.00744075
0.00885434
0.0333842
0.0122737
0.00804281
0.005415
0.424386
0.00811334
0.151317
0.00925359
0.00777514
0.0174125
0.00753029
0.00708365
0.00683184
0.00776886
0.00720823
0.00479533
0.00818738
0.00695854
0.00707103
0.0093516
0.0198365
0.152128
0.014794
0.00724005
0.167306
0.252652
0.00781851
0.00484236
0.00710851
0.0292209
0.0105382
0.0433527
0.00700852
0.0202812
0.00866717
0.00908407
0.00723246
0.00696488
0.00765512
0.0114049
0.0653535
0.00860597
0.00791465
0.00735295
0.253365
0.202876
0.00758684
0.00820721
0.00704613
0.00685164
0.00814172
0.00822215
0.00837538
0.00789043
0.00775789
0.0056397
0.0515069
0.0900037
0.00480007
0.00658485
0.00769681
0.0079514
0.00671775
0.220495
0.00827489
0.00621266
0.00756139
0.238008
0.127497
0.0429703
0.00779504
0.015563
0.00770867
0.00782806
0.205496
0.0071526
0.00817248
0.00682012
0.0416942
0.00602315
0.00593522
0.00813777
0.0105929
0.141895
0.0193197
0.0081685
0.00474379
0.0333755
0.0292489
0.0189072
0.00843101
0.00721216
0.00521756
0.0140885
0.026765
0.00829489
0.00690678
0.00766256
0.0073577
0.00825481
0.0062719
0.00625117
0.149298
0.204988
0.0401106
0.00811053
0.460859
0.00853234
0.00714184
0.00871305
0.0079132
0.0076643
0.00766469
0.0142692
0.0148457
0.0213881
0.00765367
0.010509
0.00768354
0.00859843
0.00734853
0.00755672
0.00679307
0.00793642
0.0081467
0.00730099
1.3056
0.00753771
0.00713842
0.00746953
0.154071
0.00722876
0.00796884
0.0185564
1.27831
0.0071215
0.00782548
0.0111518
0.0125891
0.0084619
0.00808482
0.00677265
0.00860382
0.0449161
0.00827983
0.0821122
0.00976401
0.138673
0.00815575
0.00821972
0.00627806
0.0288582
0.00775188
0.00746662
0.00761987
0.00831757
0.00606132
0.1717
0.00679027
0.0274438
0.260162
0.0297878
0.00604216
0.0406602
0.00850989
0.00815272
0.00513105
0.00830187
0.00615494
0.00759522
0.275143
0.00721587
0.0107087
0.00732635
0.00464067
0.00533576
0.0193625
0.00790515
0.00693205
0.00804099
0.275671
0.0647021
0.380392
0.00662064
0.0100784
0.00671697
0.00776745
0.317374
0.00753902
0.00830297
0.00609785
0.17857
0.0324393
0.0376748
0.00719792
0.00536015
0.0114109
0.641785
0.0080179
0.0067491
0.388796
0.00759801
0.0203595
0.00793316
0.0866582
0.00834874
0.0296689
0.0083085
0.00729546
0.00844696
0.00762725
0.0145662
0.00658341
0.00716316
0.00781227
0.00729517
0.0098411
0.00696703
0.0387413
0.00708689
0.0068526
0.18257
0.0236853
0.0433556
0.00832742
0.0411167
0.0073929
0.00828001
0.0265544
0.00646561
0.0350396
0.35349
0.00609515
0.0132963
0.0065409
0.00741647
0.017875
0.0168722
0.00710888
0.0486609
0.00813092
1.30496
0.0415819
0.834707
0.00812872
0.0209922
0.0117143
0.31168
0.00772821
0.00536058
0.00855538
0.00465914
0.117343
0.00816265
0.00890982
0.00790219
0.0284322
0.215835
0.00819667
0.00779888
0.00737361
0.0432184
0.00701833
0.148886
0.0113141
0.0616114
0.340538
0.00828621
0.0161363
0.0317863
0.0296346
0.0851961
0.025148
0.00757584
0.0114175
0.00492577
0.0081036
0.00783809
0.00856568
0.00986052
0.00656541
0.00831584
0.00557023
0.0401291
0.0048662
0.00803447
0.108646
0.0145408
0.00689305
0.0106694
0.00814007
0.00706395
0.00736831
0.194843
0.00760374
0.0116075
0.00616453
0.0242095
0.00797321
0.00695292
0.007962
0.00752975
0.0176836
0.0494164
0.0415582
0.616547
0.205542
0.6488
0.00685717
0.00685869
0.0092631
0.00839053
0.00586728
0.0152156
0.00690079
0.0775163
0.0060948
0.161978
0.00689459
0.00496329
0.00812203
0.295051
0.00862327
0.459467
0.00722407
0.00774649
0.0454611
0.0589364
0.0067756
0.0261272
0.0338784
0.0617897
0.125623
0.0199441
0.215653
0.00946478
0.00713596
0.312406
0.0191289
0.00832556
0.00623441
0.00792758
0.00503944
0.00528793
0.00978782
0.00773687
0.0170919
0.604744
0.00752211
0.00729508
0.00689945
0.00819827
0.00991734
0.00542215
0.00696182
0.00558007
0.373843
0.00778567
0.62451
0.0724312
0.00778479
0.104396
0.0597807
0.0179895
0.00662951
0.138925
0.00767996
0.00803985
0.341364
0.00751806
0.00824304
0.00579698
0.00809919
0.00757763
0.174022
0.00755087
0.676581
0.0134288
0.0189638
0.00724453
0.0123936
0.0241376
0.00623712
0.222016
0.00776209
0.01141
0.026816
0.00715034
0.0150869
0.0304114
0.022503
0.00747424
0.0328626
0.0763534
0.00645398
0.00734706
0.027889
0.00694815
0.0191274
0.0240967
0.352395
0.0071212
0.00860331
0.00796787
0.00617601
0.008142
0.00478586
0.0389497
1.14473
0.00779886
0.0240196
0.02805
0.00820152
0.0343643
0.00710176
0.00710566
1.42755
0.047891
0.288586
0.165159
0.0081701
0.00793243
0.0220929
0.223462
0.193301
0.254172
0.00494032
0.00817175
0.00723508
0.00631205
0.230258
0.0477864
0.00879451
0.00739379
0.0280031
0.017576
0.0356827
0.00678817
0.090532
0.218805
0.00638541
0.00559345
0.00728604
0.00715834
0.216771
0.00543654
0.00853807
0.0151242
0.00784193
0.00642479
0.365869
0.00895269
0.0107098
0.0332976
0.040025
0.00749706
0.192402
0.0194251
0.0083663
0.00455493
0.0198252
0.00662871
0.334456
0.00806893
0.0076882
0.0069881
0.120966
0.00609013
0.00745702
0.0331406
0.00834191
0.00815435
0.00859551
0.00534349
0.00770686
0.0357584
0.0176925
0.00815076
0.462145
0.0348486
0.00826086
0.0312291
0.00659205
0.00519013
0.0325483
0.00804259
0.00817149
0.00789655
0.00742586
0.00793774
0.00722301
0.0079894
0.0502285
0.0344408
0.00613273
0.0404799
0.00692418
0.0201353
0.0175457
0.00855495
0.00705596
0.015878
0.00488467
0.00674684
0.00589873
0.00665991
0.00685051
0.00797321
0.0380058
0.172226
0.0240752
0.0983986
0.00859361
0.0123531
0.374981
0.0164486
0.012986
0.00759209
0.0337015
0.0114625
0.106248
0.00478884
0.0203549
0.0323912
0.00653971
0.00795408
0.960618
0.00482018
0.00673522
0.0294012
0.0282427
0.00584313
0.012007
0.0143258
0.00464315
0.59081
0.275093
0.00790309
0.007291
0.011223
0.051106
0.0104557
0.00812166
0.00691718
0.00839411
0.00732762
0.0811894
0.00761388
0.00845356
0.137409
0.00834094
0.00734203
0.00770325
0.00756562
0.00673022
0.00857703
0.00723543
0.0119723
0.00704248
0.00879217
0.00804605
0.0312491
0.00819711
0.0135143
0.00770584
0.0209449
0.00837733
0.00767426
0.0578791
0.242834
0.00705778
0.00781137
0.00774352
0.0217342
0.00827032
0.00714749
0.00832806
0.0074049
0.00621317
0.00728657
0.0308136
0.00512094
0.0623488
0.0084758
0.00869169
0.00790685
0.00669404
0.00795554
0.00850889
0.00802046
0.16557
0.00741443
0.01639
0.00790507
0.00799797
0.478621
0.00844809
0.00855369
0.139642
0.210881
0.0139009
0.00755726
0.0199087
0.00790659
0.00944587
0.011753
0.0110159
0.00743155
0.00630384
0.0248975
0.00762743
0.0321271
0.00744684
0.0153501
0.0273618
0.0076687
0.0148114
0.00740435
0.137737
0.0153288
0.00499394
0.0325099
0.00643067
0.0059673
0.00840417
0.0104316
0.0298851
0.00752141
0.008118
0.0402178
0.00676025
0.00687724
0.00688701
0.00547885
0.00789275
0.0286157
0.0299617
0.00686688
0.0177734
0.00798365
0.00849687
0.00702858
1.12681
0.00992652
0.00703369
0.162866
0.0321514
0.008213
0.00706663
0.0289661
0.0105812
0.00660793
0.00722803
0.0156205
0.0390048
0.00753102
0.00693657
0.0757566
0.00715152
0.0083038
0.00735539
0.00690037
0.00770537
0.0248758
0.00763355
0.0340389
0.00640607
0.0134053
0.00812881
0.00503718
0.0276662
0.00689206
0.0211416
0.00765241
0.00721067
0.0394975
0.0136491
0.00563458
0.00845863
0.00734951
0.253739
0.00687421
0.0072115
1.32253
0.00673621
0.00721409
0.00746874
0.0072045
0.00646187
0.00634561
0.0158788
0.00513132
0.0162602
0.00719627
0.00758606
0.0154977
0.00454055
0.00748441
0.00645623
0.00564262
0.00730162
0.288015
0.0085524
0.0268324
0.00747232
0.00687245
0.00586854
0.00732591
0.0124301
0.00795443
0.00722801
0.00673611
0.00756566
0.008368
0.0351192
0.0203382
0.0110241
0.0106546
0.0397469
0.00667967
0.00755529
0.00744777
0.213713
0.00724624
0.00667476
0.346429
0.00687232
0.223201
0.155149
0.00702387
0.00810277
0.00706008
0.00539515
0.0049328
0.00692279
0.00794988
0.022735
0.0367656
0.0047728
0.0349853
0.00781498
0.0709835
0.213025
1.04304
0.0105968
0.0117991
0.00500234
0.0082925
0.00689997
0.0248624
0.00790185
0.0110323
0.00531802
0.0124424
0.00523052
0.0600116
0.0201771
0.0278258
0.256832
0.00782101
0.341767
0.0099566
0.00665778
0.00600954
0.00867365
0.00840703
0.588389
0.00782987
0.289646
0.311181
0.00506217
0.141074
0.0240326
0.28848
0.00738397
0.0075498
0.00740561
0.00728218
0.00765052
0.00621151
0.00719129
0.0220347
0.00754778