/*--------------------------------*- C++ -*----------------------------------*\
| =========                 |                                                 |
| \\      /  F ield         | OpenFOAM: The Open Source CFD Toolbox           |
|  \\    /   O peration     | Version:  3.0.1                                 |
|   \\  /    A nd           | Web:      www.OpenFOAM.org                      |
|    \\/     M anipulation  |                                                 |
\*---------------------------------------------------------------------------*/
FoamFile
{
    version     2.0;
    format      ascii;
    class       surfaceVectorField;
    location    "0.85471";
    object      Uf;
}
// * * * * * * * * * * * * * * * * * * * * * * * * * * * * * * * * * * * * * //

dimensions      [0 1 -1 0 0 0 0];

internalField   nonuniform List<vector> 
32369
(
(1.72245 -6.16052 -2.57443e-18)
(-0.109839 -3.98612 0)
(5.38325 -7.17083 0)
(2.24554 -4.47723 -3.54469e-18)
(0.726143 -4.12213 -1.67093e-18)
(4.21459 -4.63744 -4.4805e-18)
(2.65592 -3.46664 1.32209e-18)
(1.56106 -3.63955 2.66463e-19)
(3.839 -3.77332 1.14981e-18)
(2.86185 -2.72977 1.34169e-18)
(2.11809 -3.03608 5.72397e-19)
(3.60292 -2.94211 1.43896e-18)
(2.94566 -2.1711 -2.8999e-19)
(2.43416 -2.48589 6.2497e-20)
(3.43017 -2.32249 -3.86155e-19)
(2.96071 -1.73671 1.65623e-19)
(2.61166 -2.01423 3.57215e-19)
(3.30221 -1.84275 0)
(2.94044 -1.39114 2.05618e-19)
(2.69966 -1.61968 -2.01619e-19)
(3.19556 -1.46581 3.22707e-19)
(2.90436 -1.11337 0)
(2.73342 -1.29559 -7.58361e-19)
(3.09978 -1.16623 0)
(2.86213 -0.889949 -4.1461e-19)
(2.73672 -1.03349 5.62735e-19)
(3.0127 -0.926244 2.09503e-19)
(2.81621 -0.711283 -2.80465e-19)
(2.7262 -0.825153 4.10038e-19)
(2.93405 -0.735845 -5.61168e-19)
(2.70174 -0.664283 2.19403e-19)
(2.85855 -0.590293 1.88161e-19)
(2.74751 -0.549515 3.94407e-19)
(-1.02654 -2.89351 6.81725e-19)
(-1.5489 -1.56558 1.2726e-18)
(0.0225539 -3.28763 8.4048e-19)
(-0.717256 -2.16089 -2.27292e-18)
(0.958915 -3.09602 -5.91227e-19)
(0.00857886 -2.43329 0)
(1.64443 -2.70254 -1.71188e-19)
(0.787934 -2.45565 8.8066e-19)
(2.08824 -2.2769 9.96683e-19)
(1.40519 -2.28369 6.02027e-19)
(2.35585 -1.87716 2.2794e-20)
(1.84118 -1.99403 1.03007e-18)
(2.50446 -1.52384 -1.1952e-18)
(2.13367 -1.67041 -2.93169e-19)
(2.57781 -1.22426 -4.0964e-19)
(2.32051 -1.36399 -7.10867e-19)
(2.60871 -0.977561 1.4016e-18)
(2.43432 -1.09539 1.84829e-18)
(2.62173 -0.777785 1.10449e-18)
(2.4993 -0.870679 4.39853e-19)
(2.53023 -0.694704 -4.56633e-20)
(2.61513 -0.603479 -1.95968e-18)
(-1.1125 -1.1679 -5.94416e-19)
(-1.32763 -0.469745 -1.32601e-18)
(-0.753646 -1.59432 -2.67229e-18)
(-0.687154 -0.963752 3.529e-18)
(-0.171458 -1.9004 1.32807e-18)
(-0.452388 -1.26479 -1.55788e-18)
(0.477441 -2.03308 1.6492e-18)
(0.0810922 -1.55144 6.34481e-19)
(1.08566 -1.96167 7.83252e-19)
(0.645671 -1.66034 0)
(1.57253 -1.75148 9.09805e-19)
(1.15874 -1.61436 8.64414e-19)
(1.92346 -1.48635 -8.35738e-20)
(1.57478 -1.4594 -3.4927e-19)
(2.16092 -1.22142 1.14193e-18)
(1.8863 -1.25147 -1.37173e-19)
(2.31464 -0.984338 1.09226e-18)
(2.10878 -1.0353 5.89284e-19)
(2.41031 -0.786444 -4.87354e-19)
(2.25965 -0.838785 -1.04299e-18)
(2.35281 -0.674607 0)
(2.46471 -0.613139 0)
(-0.665852 -0.349428 1.83707e-18)
(-0.845096 0.167033 3.76354e-19)
(-0.526812 -0.655588 4.71004e-18)
(-0.275533 -0.222342 2.90178e-18)
(-0.249057 -0.95935 -2.34564e-18)
(-0.289531 -0.431699 -3.60981e-18)
(0.149974 -1.20299 -8.21975e-19)
(0.0336452 -0.730376 4.9846e-19)
(0.624617 -1.32344 0)
(0.402425 -0.944227 0)
(1.09232 -1.32028 -3.48914e-19)
(0.822155 -1.05829 9.6501e-19)
(1.49546 -1.2195 -5.56334e-19)
(1.22148 -1.06566 -1.35696e-18)
(1.80944 -1.064 -8.49669e-19)
(1.56423 -0.991135 -7.61959e-19)
(2.03825 -0.893022 -1.4042e-18)
(1.83685 -0.869999 -4.36434e-19)
(2.19892 -0.732895 -6.73702e-19)
(2.04216 -0.734191 -1.55531e-19)
(2.18412 -0.607627 3.25486e-19)
(2.30671 -0.586752 0)
(-0.227558 0.190998 1.10481e-18)
(-0.343836 0.513442 2.42746e-18)
(-0.145381 -0.00213295 -4.76984e-18)
(0.154637 0.24499 -2.43881e-18)
(-0.00455169 -0.256468 -1.20971e-18)
(0.0238336 0.12172 -2.00556e-18)
(0.216176 -0.511504 1.35054e-18)
(0.243042 -0.147111 1.09462e-18)
(0.525903 -0.709192 8.52171e-19)
(0.454851 -0.363943 1.38537e-18)
(0.883881 -0.824455 1.7147e-19)
(0.746696 -0.538468 -1.7585e-18)
(1.24103 -0.851525 -1.6274e-18)
(1.0645 -0.641356 4.19807e-19)
(1.55863 -0.80715 -3.7256e-19)
(1.37291 -0.669863 2.50863e-19)
(1.81815 -0.718857 8.23729e-19)
(1.64633 -0.638845 -2.43178e-19)
(2.01899 -0.613238 8.17607e-19)
(1.87232 -0.571558 6.10458e-19)
(2.03995 -0.489891 8.67211e-20)
(2.17119 -0.494679 1.3794e-18)
(0.168135 0.500861 -1.33642e-19)
(0.0784608 0.652694 -1.75688e-18)
(0.244151 0.39946 2.39824e-19)
(0.523734 0.545842 1.37208e-18)
(0.306441 0.204653 -1.0396e-19)
(0.35637 0.457006 0)
(0.432857 -0.0111785 1.10134e-18)
(0.510259 0.24398 6.54773e-22)
(0.621435 -0.212489 -9.08516e-19)
(0.629309 0.0492673 1.55133e-18)
(0.86874 -0.374641 -1.70211e-18)
(0.821871 -0.125756 -2.57819e-18)
(1.1461 -0.476562 2.19761e-18)
(1.05312 -0.266105 5.60819e-19)
(1.42169 -0.515152 3.76142e-19)
(1.30129 -0.354043 1.33212e-18)
(1.671 -0.502128 -5.34014e-19)
(1.54306 -0.388326 -6.38242e-19)
(1.88126 -0.45709 -6.16395e-20)
(1.76059 -0.380656 -4.10715e-20)
(1.93362 -0.344177 2.91379e-19)
(2.05286 -0.389838 8.996e-19)
(0.505216 0.645721 -7.97012e-19)
(0.376167 0.716246 -1.45339e-18)
(0.57277 0.633942 1.26995e-18)
(0.808005 0.68383 1.15314e-18)
(0.600763 0.487701 9.96779e-20)
(0.659116 0.656969 -9.71198e-20)
(0.674492 0.32084 2.80523e-19)
(0.766349 0.492549 1.11241e-19)
(0.796226 0.143044 2.48129e-19)
(0.83334 0.340247 1.76011e-19)
(0.961614 -0.020465 -5.87977e-19)
(0.961617 0.177482 -2.05487e-19)
(1.16401 -0.150053 -3.37701e-19)
(1.12453 0.0330987 -5.74897e-19)
(1.38259 -0.234306 5.04322e-19)
(1.31393 -0.0811931 5.54218e-19)
(1.5995 -0.274028 -2.05643e-19)
(1.51368 -0.15158 -1.64898e-19)
(1.79729 -0.277085 2.70104e-19)
(1.70618 -0.186347 -2.37193e-19)
(1.86649 -0.190627 7.91437e-19)
(1.96678 -0.247327 -4.03841e-20)
(0.744273 0.722933 0)
(0.598723 0.768192 0)
(0.83747 0.762512 -8.72781e-20)
(1.02027 0.77928 1.77535e-18)
(0.857457 0.659253 -1.07205e-19)
(0.905317 0.777356 -1.39229e-18)
(0.905429 0.53207 0)
(0.990728 0.650555 0)
(0.982356 0.386386 -2.34567e-19)
(1.03079 0.532345 0)
(1.09466 0.239854 -1.50527e-19)
(1.11819 0.393073 -6.12624e-20)
(1.24016 0.108973 2.29901e-19)
(1.23318 0.259577 2.76424e-19)
(1.41034 0.00538445 -3.86337e-20)
(1.37552 0.142987 9.15337e-19)
(1.588 -0.064636 -1.88738e-19)
(1.53523 0.0534208 -2.93738e-19)
(1.76031 -0.10407 1.6899e-19)
(1.69799 -0.00703291 3.69656e-19)
(1.83756 -0.0378831 -3.4375e-19)
(1.91826 -0.115977 -6.0444e-19)
(0.9325 0.777866 1.60164e-18)
(0.787524 0.806691 0)
(1.04336 0.846386 5.68664e-19)
(1.20262 0.845952 1.78271e-18)
(1.06712 0.770084 -1.42508e-18)
(1.10745 0.860662 -2.56583e-18)
(1.10475 0.671237 0)
(1.18093 0.755792 9.95336e-19)
(1.15869 0.552604 1.77826e-19)
(1.20689 0.662433 -8.38481e-19)
(1.2378 0.42629 3.30355e-19)
(1.27025 0.545327 1.16538e-18)
(1.34398 0.304682 8.9673e-19)
(1.35372 0.427947 -1.4941e-19)
(1.47327 0.198712 7.51339e-19)
(1.46118 0.317824 8.152e-20)
(1.61642 0.115517 1.83533e-19)
(1.58733 0.223673 -4.63129e-19)
(1.76268 0.0556883 -5.0141e-20)
(1.72303 0.150288 4.53045e-19)
(1.84551 0.103674 -1.47667e-18)
(1.90412 0.0172917 1.66338e-18)
(1.10211 0.794131 0)
(0.931383 0.782007 0)
(1.22146 0.893521 -1.14474e-18)
(1.35468 0.865615 0)
(1.24366 0.84047 -6.11505e-19)
(1.27339 0.907768 -2.42154e-18)
(1.27424 0.76388 3.47161e-19)
(1.3407 0.823167 1.89668e-18)
(1.31506 0.66754 -7.0818e-20)
(1.35876 0.751565 -1.19918e-18)
(1.37404 0.560809 8.27989e-19)
(1.40803 0.653916 1.85136e-18)
(1.45414 0.45285 -9.86694e-19)
(1.4713 0.552954 -2.65443e-19)
(1.55423 0.352394 -1.07633e-18)
(1.55462 0.453081 -2.51531e-18)
(1.6697 0.266406 -2.53788e-19)
(1.6554 0.361936 2.4527e-19)
(1.79384 0.198397 -7.3375e-19)
(1.76866 0.284603 4.47087e-19)
(1.87354 0.230081 -2.88524e-19)
(1.92196 0.154843 -7.01935e-19)
(1.22382 0.777332 0)
(1.02223 0.727804 -2.00012e-19)
(1.3642 0.911159 -1.03255e-18)
(1.46021 0.866517 -1.62124e-19)
(1.38903 0.881277 -5.53935e-19)
(1.40024 0.93233 -1.15146e-18)
(1.41667 0.824735 6.70663e-19)
(1.46971 0.865289 6.95552e-19)
(1.45022 0.747873 3.92816e-19)
(1.486 0.813131 6.69618e-19)
(1.49711 0.658872 9.69748e-19)
(1.52851 0.732493 3.50876e-19)
(1.5604 0.565079 -1.56271e-18)
(1.57969 0.646861 4.12015e-19)
(1.64034 0.473402 -1.45545e-18)
(1.64713 0.55822 -1.41598e-18)
(1.73451 0.390053 9.72212e-19)
(1.72958 0.473181 -4.43275e-19)
(1.83805 0.318825 9.51703e-19)
(1.8249 0.396058 1.45865e-18)
(1.91344 0.33866 5.55498e-19)
(1.94466 0.260857 3.49419e-19)
(1.2929 0.77072 -3.67095e-19)
(1.10204 0.712008 -2.00713e-19)
(1.46541 0.926086 -1.78963e-19)
(1.5423 0.886332 -7.27811e-21)
(1.5012 0.910582 -1.86516e-19)
(1.50177 0.957672 -1.0016e-18)
(1.53239 0.868104 7.03668e-19)
(1.57485 0.898948 7.78354e-19)
(1.56452 0.806422 6.80767e-19)
(1.59213 0.860258 7.32865e-19)
(1.60544 0.732184 -2.25984e-19)
(1.63249 0.792376 -4.88667e-20)
(1.6586 0.651258 7.50494e-19)
(1.67709 0.71965 7.88192e-19)
(1.72516 0.569011 -4.89809e-19)
(1.7347 0.641483 -8.49498e-19)
(1.80424 0.490613 -1.42051e-19)
(1.80462 0.563651 -6.0284e-20)
(1.8931 0.419628 1.15986e-18)
(1.88706 0.489367 1.00598e-18)
(1.9644 0.432203 0)
(1.98811 0.359017 0)
(1.35667 0.774465 1.50801e-19)
(1.17322 0.700287 2.25762e-19)
(1.54975 0.944769 -7.27146e-19)
(1.61858 0.903435 1.60431e-19)
(1.59284 0.937648 -2.99026e-19)
(1.59078 0.981235 -1.23927e-18)
(1.62808 0.904167 8.18479e-19)
(1.66525 0.928721 9.96407e-19)
(1.66122 0.853194 9.4831e-20)
(1.68308 0.900335 -6.08275e-19)
(1.69994 0.790273 8.74462e-19)
(1.72317 0.841586 4.79662e-19)
(1.74758 0.720012 -6.48429e-19)
(1.76429 0.77913 3.74949e-21)
(1.80579 0.646455 -4.97653e-19)
(1.8161 0.709813 -6.35213e-19)
(1.87476 0.573893 9.74548e-19)
(1.8777 0.639044 1.73359e-18)
(1.95383 0.505748 -4.6064e-20)
(1.95156 0.568728 -1.28847e-18)
(2.02078 0.51451 4.27691e-19)
(2.04534 0.450703 0)
(1.41741 0.759134 2.08991e-19)
(1.1958 0.654655 1.90218e-19)
(1.62653 0.954583 -2.10308e-19)
(1.66856 0.903374 0)
(1.67347 0.959821 -2.57457e-19)
(1.66167 0.99767 -2.32523e-19)
(1.71124 0.935442 -2.64744e-19)
(1.74201 0.953722 0)
(1.7454 0.893314 -3.51781e-19)
(1.76207 0.93548 -2.95549e-19)
(1.78349 0.839343 -3.51146e-19)
(1.80358 0.884012 -1.58679e-20)
(1.82825 0.777696 8.58705e-20)
(1.84314 0.830045 -7.24109e-19)
(1.88138 0.71159 1.35061e-18)
(1.8917 0.767992 1.06515e-18)
(1.94356 0.644757 -2.32054e-19)
(1.94766 0.703606 5.57652e-20)
(2.0148 0.58018 -1.0066e-18)
(2.01554 0.636903 -6.7531e-19)
(2.07867 0.585865 2.27003e-21)
(2.09483 0.522225 2.74047e-19)
(1.44485 0.754609 0)
(1.23131 0.638144 -1.47625e-18)
(1.68314 0.967071 6.66686e-21)
(1.71294 0.918302 0)
(1.74135 0.981738 8.16367e-21)
(1.7249 1.01854 -6.67571e-19)
(1.78405 0.964352 0)
(1.80961 0.979212 7.0556e-19)
(1.82033 0.929281 0)
(1.83268 0.967973 0)
(1.85896 0.882468 -3.17225e-19)
(1.87637 0.922058 1.05611e-18)
(1.90238 0.827827 6.07159e-20)
(1.91555 0.875002 -1.00952e-18)
(1.95243 0.76799 -1.24989e-19)
(1.96245 0.818914 4.9269e-19)
(2.0101 0.706229 -3.11413e-19)
(2.0146 0.76034 -1.1432e-18)
(2.07616 0.645066 2.64967e-19)
(2.07843 0.696902 5.83131e-19)
(2.13761 0.648136 -8.08536e-19)
(2.15165 0.589863 -1.19349e-18)
(1.4746 0.758809 -1.62168e-18)
(1.27637 0.628206 -2.47034e-20)
(1.73398 0.983414 -6.03893e-19)
(1.75712 0.931457 -1.12304e-18)
(1.80224 1.00509 -1.75975e-19)
(1.78732 1.03706 2.03071e-19)
(1.84966 0.992625 7.7881e-19)
(1.87254 1.00457 7.04093e-19)
(1.88862 0.962649 9.47425e-19)
(1.89883 0.998012 -1.31452e-18)
(1.92849 0.921459 5.74436e-19)
(1.94403 0.956917 1.25968e-18)
(1.97145 0.872509 -7.43116e-19)
(1.98339 0.915235 -6.5721e-19)
(2.01961 0.818075 -3.5142e-19)
(2.02935 0.864132 -1.94349e-20)
(2.07427 0.760868 -4.11695e-19)
(2.07902 0.810825 -3.72419e-19)
(2.13685 0.702939 -3.38524e-19)
(2.13993 0.75099 4.90538e-19)
(2.19858 0.704767 -7.43316e-19)
(2.21134 0.648513 7.33755e-19)
(1.51112 0.749399 6.56913e-19)
(1.28924 0.602273 -2.27982e-20)
(1.78335 0.990367 -4.49572e-19)
(1.78129 0.930955 -9.70142e-19)
(1.86041 1.02422 1.01991e-18)
(1.8406 1.04811 1.74413e-18)
(1.91157 1.01839 -1.21394e-18)
(1.92921 1.02719 6.63057e-19)
(1.95295 0.993152 -1.28804e-18)
(1.96133 1.02462 -1.56931e-18)
(1.99412 0.956718 2.20659e-19)
(2.00799 0.988486 1.99614e-19)
(2.037 0.912429 0)
(2.04794 0.951087 0)
(2.08397 0.862735 0)
(2.09312 0.904477 -4.32458e-19)
(2.13664 0.809844 4.3852e-19)
(2.1412 0.855947 3.25944e-19)
(2.19653 0.755756 2.39056e-19)
(2.1993 0.800297 3.75154e-20)
(2.25711 0.755326 3.19159e-19)
(2.26547 0.703342 -1.22681e-18)
(1.5274 0.741988 -1.50599e-18)
(1.30847 0.583543 -2.94466e-18)
(1.82034 0.994353 1.01421e-18)
(1.80012 0.931451 2.28247e-18)
(1.91235 1.04056 1.55554e-18)
(1.88889 1.05772 -6.11966e-20)
(1.96968 1.04139 4.78744e-19)
(1.98202 1.0482 7.42386e-19)
(2.01429 1.02039 -2.80197e-19)
(2.02136 1.04778 -7.48989e-19)
(2.05677 0.988081 0)
(2.06907 1.01624 6.2326e-21)
(2.09953 0.947966 -3.86771e-19)
(2.10947 0.982486 2.84536e-19)
(2.14549 0.902838 -1.91265e-19)
(2.15362 0.940499 -4.34864e-19)
(2.19667 0.854293 -4.5485e-20)
(2.20067 0.896681 4.01976e-19)
(2.25463 0.803815 9.14227e-20)
(2.25662 0.845782 -5.71335e-19)
(2.31462 0.80157 4.73079e-19)
(2.32182 0.75314 5.77427e-19)
(1.53833 0.736372 2.76421e-19)
(1.33105 0.566248 -1.47337e-18)
(1.84995 0.99668 1.45082e-18)
(1.81537 0.928384 2.10202e-18)
(1.95967 1.05464 -9.47591e-19)
(1.93516 1.0624 -8.60308e-19)
(2.02499 1.06126 -3.54851e-19)
(2.03385 1.06446 6.44208e-19)
(2.07322 1.04354 -5.53874e-19)
(2.08012 1.0652 -9.90361e-19)
(2.11655 1.01493 2.6247e-19)
(2.12732 1.03843 6.22208e-21)
(2.15874 0.979177 3.15994e-19)
(2.16719 1.00883 2.84892e-19)
(2.20374 0.939059 6.55994e-20)
(2.21002 0.972584 0)
(2.25404 0.895228 -1.53119e-20)
(2.25671 0.934228 -9.51689e-22)
(2.31123 0.84839 -3.17752e-19)
(2.31172 0.889022 -2.16725e-19)
(2.37219 0.845738 -2.86489e-19)
(2.37663 0.797216 -1.49594e-19)
(1.55106 0.727784 -1.22024e-22)
(1.3551 0.546681 -1.64924e-18)
(1.87702 0.991109 4.95921e-20)
(1.82544 0.914768 2.28573e-23)
(2.0053 1.06056 5.64972e-19)
(1.97775 1.05416 9.3282e-19)
(2.07878 1.07319 1.64399e-19)
(2.08311 1.06832 -1.05961e-19)
(2.12952 1.05922 -5.48567e-19)
(2.13511 1.07139 -4.92315e-19)
(2.17216 1.03555 -5.76362e-23)
(2.17955 1.05168 3.6287e-19)
(2.21325 1.00587 -7.18324e-23)
(2.21831 1.02923 -5.67263e-21)
(2.25765 0.972177 -6.67401e-20)
(2.26048 1.00119 -1.97734e-19)
(2.30796 0.934132 -1.78495e-19)
(2.30802 0.96984 -7.51469e-20)
(2.36532 0.892013 -1.77902e-19)
(2.36337 0.931353 -2.00992e-19)
(2.42476 0.889948 -6.66797e-20)
(2.42667 0.844953 -9.68585e-19)
(1.56301 0.711572 -1.79403e-18)
(1.38211 0.519172 1.74237e-19)
(1.89914 0.969571 7.77449e-19)
(1.83205 0.882708 -2.70542e-18)
(2.04583 1.04892 4.22017e-19)
(2.01185 1.0213 1.67833e-18)
(2.12652 1.06913 -7.30054e-19)
(2.12161 1.0485 -8.16958e-19)
(2.17784 1.06333 3.21977e-19)
(2.1759 1.05957 -5.07694e-19)
(2.21954 1.04792 3.95688e-19)
(2.21935 1.05296 1.10833e-18)
(2.26002 1.02771 -1.82579e-19)
(2.25786 1.04296 -1.46529e-19)
(2.3052 1.003 -2.20039e-19)
(2.30181 1.02679 -2.96176e-19)
(2.35708 0.972195 -8.31064e-20)
(2.35273 1.00445 1.40601e-22)
(2.41569 0.935253 -1.04781e-19)
(2.41055 0.973332 -1.76518e-19)
(2.47353 0.934454 -1.20551e-19)
(2.47921 0.892244 0)
(1.58241 0.680822 -6.29926e-19)
(1.44041 0.469274 3.63393e-18)
(1.91493 0.918011 -2.26859e-18)
(1.83035 0.805075 -2.51743e-18)
(2.07434 1.00571 7.52332e-19)
(2.02088 0.950706 1.10159e-18)
(2.15926 1.03854 -6.29728e-19)
(2.12918 0.99658 8.13274e-20)
(2.21103 1.04759 8.94148e-20)
(2.18671 1.02589 -3.58554e-19)
(2.25241 1.04938 7.03353e-19)
(2.23177 1.0413 5.31505e-19)
(2.29493 1.04463 -2.45627e-19)
(2.27688 1.04992 -6.84642e-20)
(2.34402 1.03189 -1.09927e-19)
(2.32916 1.04899 -1.48882e-19)
(2.39994 1.0097 -7.25651e-20)
(2.38777 1.03739 0)
(2.46181 0.978445 -1.98465e-19)
(2.45125 1.01476 1.95044e-20)
(2.51953 0.978254 7.42578e-20)
(2.51878 0.937171 -8.91067e-20)
(1.53701 0.584394 2.11739e-18)
(1.55133 0.323579 1.79943e-18)
(1.86628 0.833861 2.3708e-19)
(1.77941 0.753975 -1.06235e-18)
(2.03109 0.929609 4.57054e-19)
(1.97516 0.822913 9.63596e-19)
(2.1264 0.98288 3.30625e-19)
(2.07891 0.899286 1.84538e-19)
(2.19073 1.01692 -1.73551e-20)
(2.1467 0.964253 5.17297e-20)
(2.24624 1.04233 -1.61716e-19)
(2.20448 1.01368 1.61127e-19)
(2.30411 1.05651 3.14647e-20)
(2.2671 1.04781 1.46184e-19)
(2.36645 1.05708 -5.65518e-20)
(2.33557 1.06424 -2.06594e-19)
(2.43186 1.04483 8.93451e-20)
(2.4059 1.0645 -1.95088e-19)
(2.50049 1.02216 2.87513e-19)
(2.47729 1.05255 1.00445e-19)
(2.55134 1.02648 1.8751e-19)
(2.56606 0.991987 1.52816e-19)
(2.07265 0.444099 -6.76145e-19)
(2.25025 -0.935188 -1.15123e-18)
(2.11473 0.566531 -7.30169e-19)
(1.02821 0.0636094 2.59858e-20)
(2.15762 0.73047 5.79162e-19)
(1.23616 0.229978 4.50499e-19)
(2.17916 0.841821 -1.19213e-21)
(1.49225 0.362273 0)
(2.19789 0.936838 3.12383e-19)
(1.66677 0.513297 8.59994e-20)
(2.23597 1.0109 4.58918e-19)
(1.83459 0.649606 -1.58891e-19)
(2.29466 1.05449 -5.25647e-20)
(1.99983 0.76333 2.41922e-19)
(2.36447 1.0724 -3.44799e-19)
(2.14679 0.852348 -3.52882e-19)
(2.43811 1.07312 -2.16283e-19)
(2.27312 0.915779 1.60949e-19)
(2.51439 1.06317 0)
(2.38467 0.958388 3.31849e-19)
(2.49397 0.993165 -2.3186e-19)
(2.58375 1.05447 0)
(5.71958 -4.08508 -2.02271e-19)
(6.82395 -5.24667 0)
(5.05364 -3.9719 -2.58056e-19)
(5.89117 -2.17864 -1.88493e-19)
(4.66805 -3.37979 7.44965e-19)
(5.77793 -2.69941 6.61739e-19)
(4.20409 -2.68837 -2.28491e-19)
(5.22212 -2.39154 -5.95849e-19)
(3.83839 -2.10856 -3.72991e-19)
(4.57366 -1.97676 2.19595e-19)
(3.57687 -1.64824 2.29929e-19)
(4.09398 -1.61523 1.32481e-19)
(3.38178 -1.29215 2.8643e-19)
(3.74669 -1.29185 3.95441e-19)
(3.22742 -1.01573 1.84228e-19)
(3.49102 -1.02133 0)
(3.10005 -0.800276 1.53502e-19)
(3.29415 -0.8012 2.21695e-19)
(2.99226 -0.63275 -1.71094e-19)
(3.13774 -0.625989 4.63286e-20)
(3.00837 -0.493464 -3.17757e-19)
(2.88483 -0.49411 1.4515e-19)
(5.15215 -1.32229 0)
(4.93647 -2.77364 0)
(5.85466 -1.72737 -2.09635e-19)
(5.12472 0.0925354 0)
(5.82151 -1.88841 -7.79222e-19)
(6.17637 -0.995911 -5.86766e-18)
(5.35593 -1.86012 -4.0528e-19)
(6.0185 -1.15436 4.16299e-18)
(4.76331 -1.65961 4.84702e-19)
(5.42688 -1.16027 6.07954e-19)
(4.25778 -1.37597 2.21495e-19)
(4.81496 -1.09371 4.11859e-19)
(3.86507 -1.09553 1.85816e-19)
(4.29093 -0.941648 1.82925e-19)
(3.5691 -0.854203 1.83074e-20)
(3.88373 -0.767539 0)
(3.34156 -0.659568 1.12416e-19)
(3.57347 -0.603325 4.51489e-20)
(3.16099 -0.50978 -3.77279e-20)
(3.33311 -0.462569 4.2527e-20)
(3.14485 -0.354859 -1.60012e-19)
(2.98801 -0.389191 1.47401e-19)
(3.97056 -0.0312914 0)
(3.22684 -1.42461 1.69601e-17)
(5.31299 0.191053 -4.73562e-18)
(3.93518 1.20016 -1.24084e-17)
(5.82627 -0.0866971 -7.35238e-19)
(5.54889 0.442274 -5.5894e-18)
(5.76713 -0.470332 4.71462e-18)
(5.83772 0.271979 4.35671e-18)
(5.32989 -0.703041 -7.60541e-20)
(5.63782 -0.0415957 -3.35568e-19)
(4.79442 -0.754242 2.2859e-19)
(5.1816 -0.269519 1.6272e-19)
(4.29875 -0.684054 -1.10013e-19)
(4.66391 -0.359085 -9.75114e-20)
(3.89259 -0.564053 -1.78441e-20)
(4.19472 -0.354487 0)
(3.57487 -0.439549 -7.27498e-20)
(3.80961 -0.300521 -2.00044e-20)
(3.32923 -0.328146 -6.68934e-20)
(3.50705 -0.230902 -4.34129e-20)
(3.27283 -0.1707 -1.38914e-21)
(3.11511 -0.233468 -2.10178e-21)
(2.85992 0.293972 5.18808e-18)
(1.90595 -0.90883 1.60749e-17)
(4.3915 1.11322 -1.37792e-17)
(2.97054 1.40534 -1.14889e-17)
(5.24541 1.12784 -4.58619e-19)
(4.66463 1.26169 -4.50032e-19)
(5.53526 0.780135 -8.22796e-20)
(5.19661 1.32992 1.699e-21)
(5.38112 0.376973 -2.88645e-19)
(5.34339 0.957056 -3.53342e-21)
(4.9992 0.0721532 -2.98965e-19)
(5.12959 0.599272 -1.76449e-18)
(4.54507 -0.0878122 0)
(4.75568 0.329801 3.15507e-19)
(4.11498 -0.138214 0)
(4.33597 0.167054 1.76202e-18)
(3.75143 -0.127705 4.68528e-20)
(3.946 0.0889644 -1.09692e-18)
(3.46134 -0.0933069 7.78607e-20)
(3.61688 0.064555 1.57001e-19)
(3.35532 0.0618303 1.8926e-19)
(3.18948 -0.0587442 1.24732e-20)
(1.94574 0.193664 7.88766e-20)
(0.932736 -0.823768 -5.12545e-18)
(3.49606 1.37286 6.11838e-19)
(2.2789 1.25384 -2.15272e-20)
(4.49906 1.73799 -3.07696e-20)
(3.88435 1.62241 6.82069e-19)
(4.98514 1.61151 7.71911e-20)
(4.49654 1.93956 3.5762e-20)
(5.05849 1.24793 -1.27946e-18)
(4.82582 1.65327 4.21152e-20)
(4.8742 0.858753 -1.38186e-18)
(4.79894 1.3089 -3.09634e-18)
(4.54967 0.555758 1.8218e-18)
(4.59556 0.967099 -3.43565e-19)
(4.17877 0.358423 1.16645e-18)
(4.2862 0.698505 2.93851e-18)
(3.82742 0.247774 -1.26821e-18)
(3.9512 0.511264 -1.08749e-18)
(3.52695 0.192839 1.61576e-19)
(3.63969 0.394559 1.03329e-19)
(3.37425 0.328979 3.73437e-19)
(3.24075 0.154451 5.61851e-19)
(1.2386 0.00629596 -5.72805e-18)
(0.22336 -0.916186 -5.11435e-19)
(2.75056 1.3782 4.51361e-20)
(1.74621 1.03879 -5.61012e-19)
(3.79636 1.98828 8.18071e-19)
(3.23196 1.75316 2.65491e-21)
(4.3664 2.06851 0)
(3.87387 2.24515 9.08306e-19)
(4.57057 1.81968 -1.43117e-18)
(4.27695 2.07503 0)
(4.5412 1.46277 -2.30677e-18)
(4.35704 1.80441 -1.60657e-18)
(4.3564 1.11867 2.69206e-19)
(4.28632 1.46743 1.29899e-18)
(4.08421 0.838707 1.28148e-18)
(4.09028 1.1602 -1.49478e-18)
(3.78803 0.636785 0)
(3.83631 0.908293 1.04874e-19)
(3.51181 0.499657 1.82406e-19)
(3.57092 0.720834 -7.29158e-19)
(3.32602 0.600278 1.97584e-19)
(3.21934 0.386404 2.25781e-18)
(0.691911 -0.176123 4.7054e-18)
(-0.282479 -1.0731 4.30331e-18)
(2.15142 1.30691 -6.26709e-19)
(1.29588 0.827537 0)
(3.19252 2.07425 4.26455e-20)
(2.67165 1.77411 3.83386e-19)
(3.79082 2.29924 1.00721e-18)
(3.33362 2.38035 -3.17709e-18)
(4.05783 2.15773 0)
(3.76493 2.31149 2.45521e-18)
(4.12534 1.87086 1.7406e-18)
(3.89983 2.12098 3.74364e-18)
(4.04947 1.54643 -2.27589e-19)
(3.91723 1.82249 -1.34354e-18)
(3.87471 1.24225 -2.88238e-18)
(3.81094 1.52007 -2.64325e-18)
(3.64996 0.990211 -5.2883e-19)
(3.63603 1.2436 1.64585e-18)
(3.4189 0.795949 -1.08177e-18)
(3.42821 1.01298 6.3726e-20)
(3.21601 0.83894 -1.07676e-18)
(3.17336 0.626659 1.39391e-18)
(0.279061 -0.353657 0)
(-0.63159 -1.23226 -6.4208e-18)
(1.67632 1.20478 9.81046e-19)
(0.931273 0.642628 1.18976e-17)
(2.68969 2.0825 -2.45191e-18)
(2.19852 1.74065 -7.84363e-18)
(3.28812 2.40716 -2.33858e-18)
(2.86746 2.4202 -1.11544e-18)
(3.58031 2.3473 6.08047e-18)
(3.30324 2.43226 2.47414e-18)
(3.70119 2.1285 1.13813e-18)
(3.46489 2.31045 2.98628e-18)
(3.69845 1.84464 -3.66609e-18)
(3.5376 2.05787 -1.33067e-18)
(3.60147 1.55026 1.36288e-18)
(3.49593 1.78032 7.61704e-20)
(3.44493 1.28201 2.40399e-18)
(3.3871 1.50475 1.60931e-18)
(3.26202 1.05805 2.07543e-20)
(3.23773 1.25734 7.88364e-19)
(3.0726 1.05641 -1.47564e-18)
(3.04209 0.8589 8.0373e-19)
(-0.0430501 -0.502923 3.25031e-18)
(-0.885353 -1.37007 -7.33465e-18)
(1.28904 1.09292 4.93411e-18)
(0.620267 0.487289 9.67802e-18)
(2.26465 2.0459 -7.08078e-18)
(1.79333 1.6789 -9.03511e-18)
(2.85076 2.44224 3.31523e-18)
(2.46277 2.40343 4.24507e-18)
(3.1503 2.44459 -6.73002e-19)
(2.88977 2.47967 0)
(3.29911 2.28225 8.9721e-19)
(3.06352 2.41234 -3.22998e-18)
(3.34265 2.04035 2.21634e-18)
(3.17005 2.20288 2.09827e-18)
(3.30251 1.7694 1.7908e-19)
(3.17341 1.95652 1.23643e-18)
(3.20359 1.50467 1.16547e-19)
(3.11635 1.69435 1.04991e-19)
(3.07327 1.26646 -3.98583e-19)
(3.01558 1.44372 0)
(2.89104 1.23556 -9.0437e-19)
(2.89182 1.03504 1.39462e-18)
(-0.308177 -0.619456 -3.07069e-18)
(-1.07733 -1.47445 2.02175e-18)
(0.95855 0.982955 -2.62536e-18)
(0.336097 0.349986 -2.3118e-18)
(1.89501 1.98277 1.10896e-18)
(1.43355 1.59578 0)
(2.46519 2.43019 1.36391e-18)
(2.10311 2.34944 4.16141e-20)
(2.76374 2.48023 -2.2213e-18)
(2.51641 2.47877 1.59656e-18)
(2.92669 2.36371 -2.57228e-18)
(2.6967 2.45311 -4.84224e-18)
(2.99963 2.15984 1.33784e-18)
(2.82324 2.28103 8.37583e-19)
(3.00044 1.91593 1.34355e-18)
(2.85806 2.06504 -1.08741e-18)
(2.9468 1.66348 0)
(2.84072 1.82128 1.27284e-18)
(2.86001 1.42579 -4.04562e-19)
(2.7815 1.57648 -4.72149e-19)
(2.69323 1.36351 1.64209e-20)
(2.72527 1.18251 2.03867e-18)
(-0.541835 -0.73027 3.25254e-18)
(-1.26702 -1.58116 5.46719e-18)
(0.655382 0.85855 1.06474e-19)
(0.0593102 0.209283 -1.73925e-18)
(1.55461 1.89342 -1.08388e-18)
(1.10292 1.48759 2.8389e-18)
(2.11281 2.38189 1.03267e-19)
(1.77023 2.26397 -2.34844e-19)
(2.41072 2.47164 -4.07786e-19)
(2.17236 2.4409 1.60511e-18)
(2.58247 2.39196 -2.01188e-18)
(2.35969 2.44813 -2.25142e-18)
(2.67493 2.22006 -1.32298e-18)
(2.4988 2.30812 -6.80196e-19)
(2.70549 2.00182 -1.38013e-18)
(2.55696 2.11916 -2.13795e-18)
(2.68778 1.76561 9.97621e-19)
(2.57056 1.89504 1.1777e-18)
(2.63766 1.53613 -1.05481e-19)
(2.54655 1.66216 -1.58884e-18)
(2.49578 1.45419 1.04423e-19)
(2.54244 1.30352 2.80632e-19)
(-0.755435 -0.842974 1.17824e-18)
(-1.42983 -1.67281 -2.06663e-18)
(0.373624 0.728625 6.24807e-19)
(-0.19093 0.0774328 -1.44663e-18)
(1.23863 1.78398 4.01696e-18)
(0.798475 1.35912 2.85366e-18)
(1.78649 2.30444 1.07961e-18)
(1.45702 2.15275 2.66278e-18)
(2.08495 2.42872 9.76783e-20)
(1.8514 2.37223 -1.38113e-18)
(2.26359 2.37949 -1.08955e-18)
(2.0471 2.40664 1.97554e-18)
(2.37039 2.23455 -1.34764e-18)
(2.19511 2.29437 -1.95641e-18)
(2.42392 2.03937 7.91223e-20)
(2.27202 2.12869 1.83475e-18)
(2.43561 1.82016 -1.0774e-18)
(2.3109 1.92346 -6.83005e-19)
(2.41841 1.60191 -1.5987e-18)
(2.31723 1.70446 -1.119e-18)
(2.30174 1.50266 -3.50054e-19)
(2.36856 1.38349 6.33081e-19)
(-0.953914 -0.944839 -4.81826e-18)
(-1.56461 -1.75424 -5.17745e-18)
(0.109754 0.593886 4.51836e-19)
(-0.426222 -0.0570896 -2.23495e-18)
(0.939558 1.65277 1.51524e-18)
(0.507699 1.20816 4.52614e-18)
(1.47857 2.19971 6.09182e-19)
(1.15582 2.01574 -8.80412e-19)
(1.77978 2.3557 1.43002e-19)
(1.54659 2.27511 -1.93937e-18)
(1.96557 2.33295 1.52545e-18)
(1.7532 2.33383 1.76987e-18)
(2.08459 2.2112 8.42746e-19)
(1.90931 2.24621 -6.01601e-19)
(2.15749 2.03637 1.34301e-18)
(2.00305 2.10047 2.72182e-18)
(2.19469 1.83355 -6.70905e-19)
(2.06414 1.91254 -1.13063e-18)
(2.20676 1.62759 0)
(2.09749 1.70808 5.27946e-19)
(2.1164 1.51107 -8.50829e-20)
(2.19256 1.41576 7.61152e-19)
(-1.14272 -1.04994 -2.93518e-18)
(-1.68954 -1.85265 1.21955e-20)
(-0.147454 0.439561 1.25349e-18)
(-0.658396 -0.208714 -2.3107e-18)
(0.645808 1.49306 2.63356e-18)
(0.221988 1.02901 4.76922e-18)
(1.17979 2.06498 -3.33991e-18)
(0.859393 1.8467 -8.11239e-19)
(1.48767 2.25337 -6.99499e-19)
(1.25176 2.14806 -2.33061e-18)
(1.68291 2.25551 -1.02702e-19)
(1.47207 2.2311 6.71288e-19)
(1.81452 2.15453 9.17377e-19)
(1.63781 2.16664 -2.7992e-21)
(1.90565 1.99773 6.84542e-19)
(1.74848 2.03852 1.01258e-19)
(1.96661 1.81034 -1.12746e-19)
(1.83089 1.86642 2.78575e-19)
(2.00577 1.6165 4.98186e-19)
(1.88923 1.67681 5.302e-19)
(1.93932 1.48829 -3.36802e-19)
(2.03004 1.42792 -1.74171e-18)
(-1.32274 -1.16242 8.59144e-19)
(-1.79859 -1.94243 5.09328e-19)
(-0.395476 0.268179 5.79525e-19)
(-0.883681 -0.365471 -9.98941e-21)
(0.359476 1.30692 1.85017e-18)
(-0.056966 0.828458 -6.83178e-21)
(0.887289 1.90124 3.38622e-19)
(0.567038 1.6491 1.41027e-18)
(1.20457 2.12191 -1.24885e-18)
(0.962405 1.98965 -6.58729e-19)
(1.41178 2.14826 8.50688e-19)
(1.19832 2.09768 6.83414e-19)
(1.55757 2.0667 -8.29243e-19)
(1.37674 2.05593 -6.33044e-19)
(1.66745 1.92632 -3.22685e-19)
(1.50602 1.94419 -4.50649e-19)
(1.75182 1.75401 8.95787e-19)
(1.61096 1.78744 7.28289e-20)
(1.81699 1.57423 -2.23958e-19)
(1.69507 1.61367 8.29151e-20)
(1.77758 1.44082 -6.55566e-21)
(1.86661 1.40527 -1.88458e-19)
(-1.49559 -1.27775 -3.04683e-19)
(-1.89993 -2.03073 0)
(-0.638353 0.0806101 -5.93617e-19)
(-1.10835 -0.533122 -1.39866e-18)
(0.0758004 1.09364 -5.87087e-19)
(-0.335455 0.60266 6.07517e-19)
(0.596803 1.70511 6.11761e-19)
(0.271057 1.41826 -3.5133e-19)
(0.925808 1.95771 1.14428e-18)
(0.670839 1.795 1.11436e-18)
(1.14698 2.00971 -6.53774e-19)
(0.925583 1.93158 -8.5717e-20)
(1.30985 1.94724 -2.73267e-19)
(1.12053 1.91193 -4.0732e-19)
(1.44104 1.82274 -1.02512e-19)
(1.27218 1.81625 4.80655e-19)
(1.55069 1.66595 -7.3464e-19)
(1.40299 1.67564 -7.29685e-19)
(1.64409 1.50114 3.16348e-19)
(1.51493 1.51865 -3.38519e-20)
(1.63007 1.35714 3.22347e-19)
(1.73686 1.36175 -3.5438e-19)
(-1.66661 -1.40098 -9.51082e-19)
(-1.99853 -2.12942 0)
(-0.88248 -0.127762 -4.14499e-19)
(-1.33631 -0.7199 -1.06055e-18)
(-0.212983 0.848956 9.36946e-19)
(-0.619164 0.345908 8.86894e-19)
(0.298208 1.4724 0)
(-0.0360089 1.14841 0)
(0.638984 1.75729 0)
(0.368215 1.55856 0)
(0.880076 1.83532 2.01428e-19)
(0.644039 1.72264 0)
(1.0659 1.79244 2.49954e-19)
(0.861483 1.72695 -4.37274e-20)
(1.22349 1.68499 0)
(1.04216 1.64966 1.74922e-19)
(1.36203 1.54584 -9.95998e-20)
(1.20449 1.52864 1.5069e-20)
(1.48413 1.39806 -6.27142e-20)
(1.34723 1.39282 -9.48585e-20)
(1.49771 1.25034 3.66622e-20)
(1.59616 1.26138 -6.60857e-20)
(-1.83946 -1.53872 -9.65342e-21)
(-2.09646 -2.23899 0)
(-1.13114 -0.36108 2.57431e-20)
(-1.56928 -0.927147 -7.54232e-20)
(-0.511707 0.567974 4.62038e-20)
(-0.912671 0.0559582 -6.24695e-19)
(-0.0153356 1.19546 0)
(-0.36186 0.832619 9.69426e-19)
(0.337726 1.5095 0)
(0.0428161 1.2675 -3.0628e-19)
(0.602452 1.61445 -2.39728e-19)
(0.341719 1.45805 2.84566e-19)
(0.818957 1.59388 -1.45868e-19)
(0.590297 1.48766 -4.82885e-19)
(1.01062 1.5078 2.0776e-19)
(0.809691 1.43435 1.02477e-19)
(1.1832 1.39192 2.90589e-20)
(1.01144 1.34092 5.13525e-20)
(1.33607 1.26772 -1.42381e-20)
(1.18969 1.23476 3.26391e-20)
(1.37894 1.12176 -3.76738e-20)
(1.47503 1.17062 3.70728e-19)
(-2.01707 -1.69516 -5.77248e-20)
(-2.19713 -2.36371 1.39978e-18)
(-1.38855 -0.622629 -6.63477e-19)
(-1.81179 -1.15577 -9.64761e-19)
(-0.827841 0.244882 1.4966e-19)
(-1.22477 -0.269871 -1.20791e-19)
(-0.355545 0.863249 7.70729e-19)
(-0.719187 0.461618 4.5378e-19)
(0.00722557 1.19882 -8.43483e-20)
(-0.320888 0.903288 -2.04849e-19)
(0.301979 1.32964 1.17761e-19)
(0.00365342 1.11299 1.4861e-19)
(0.560185 1.33622 -3.02439e-19)
(0.294865 1.17046 -2.30637e-19)
(0.796079 1.28048 -6.83183e-20)
(0.564957 1.15248 -7.24157e-20)
(1.00962 1.19799 5.65268e-20)
(0.814779 1.10059 3.77477e-20)
(1.19816 1.10699 1.56331e-20)
(1.03402 1.03611 6.11658e-20)
(1.2599 0.964274 8.59887e-21)
(1.36263 1.02747 -1.67612e-20)