/*--------------------------------*- C++ -*----------------------------------*\
| =========                 |                                                 |
| \\      /  F ield         | OpenFOAM: The Open Source CFD Toolbox           |
|  \\    /   O peration     | Version:  3.0.1                                 |
|   \\  /    A nd           | Web:      www.OpenFOAM.org                      |
|    \\/     M anipulation  |                                                 |
\*---------------------------------------------------------------------------*/
FoamFile
{
    version     2.0;
    format      ascii;
    class       surfaceScalarField;
    location    "0.983755";
    object      phi;
}
// * * * * * * * * * * * * * * * * * * * * * * * * * * * * * * * * * * * * * //

dimensions      [0 3 -1 0 0 0 0];

internalField   nonuniform List<scalar> 
32369
(
-1.22042e-05
-9.77115e-06
2.19753e-05
-1.96732e-05
-1.1609e-05
1.9078e-05
-2.5974e-05
-1.39836e-05
2.02844e-05
-3.16633e-05
-1.61686e-05
2.18579e-05
-3.69051e-05
-1.80436e-05
2.32855e-05
-4.21599e-05
-1.96188e-05
2.48736e-05
-4.78006e-05
-2.09102e-05
2.65508e-05
-5.41873e-05
-2.18874e-05
2.82742e-05
-6.1616e-05
-2.24585e-05
2.98872e-05
-7.03922e-05
-2.2439e-05
3.12151e-05
-2.1487e-05
3.19888e-05
-8.0894e-05
-8.79019e-06
-9.80958e-07
-1.61538e-05
-4.24532e-06
-2.2904e-05
-7.23349e-06
-2.91421e-05
-9.93053e-06
-3.50192e-05
-1.21665e-05
-4.0846e-05
-1.3792e-05
-4.70227e-05
-1.47335e-05
-5.39614e-05
-1.49487e-05
-6.20633e-05
-1.43567e-05
-7.17511e-05
-1.27512e-05
-9.77624e-06
-8.34618e-05
-4.1203e-06
3.13934e-06
-9.36376e-06
9.98151e-07
-1.54429e-05
-1.15432e-06
-2.18161e-05
-3.55734e-06
-2.8336e-05
-5.64667e-06
-3.50697e-05
-7.05828e-06
-4.22422e-05
-7.56104e-06
-5.01632e-05
-7.02765e-06
-5.91814e-05
-5.33851e-06
-6.96579e-05
-2.27459e-06
2.60776e-06
-8.20419e-05
-1.66185e-06
4.80119e-06
-4.81958e-06
4.15588e-06
-9.48388e-06
3.50998e-06
-1.52488e-05
2.20754e-06
-2.18194e-05
9.23979e-07
-2.89191e-05
4.13562e-08
-3.64948e-05
1.47205e-08
-4.47576e-05
1.2351e-06
-5.40929e-05
3.99685e-06
-6.4966e-05
8.5985e-06
1.54617e-05
-7.782e-05
-1.3261e-06
6.12729e-06
-3.377e-06
6.20678e-06
-6.48217e-06
6.61516e-06
-1.08019e-05
6.52731e-06
-1.63327e-05
6.45476e-06
-2.29619e-05
6.67051e-06
-3.05679e-05
7.62073e-06
-3.91121e-05
9.77928e-06
-4.87175e-05
1.36023e-05
-5.96562e-05
1.95372e-05
2.8192e-05
-7.23864e-05
-1.21384e-06
7.34113e-06
-3.13576e-06
8.1287e-06
-5.63705e-06
9.11645e-06
-9.09275e-06
9.983e-06
-1.36525e-05
1.10145e-05
-1.93711e-05
1.23892e-05
-2.62347e-05
1.44843e-05
-3.42272e-05
1.77718e-05
-4.34067e-05
2.27819e-05
-5.39537e-05
3.00841e-05
4.0466e-05
-6.62277e-05
-1.09157e-06
8.4327e-06
-2.71372e-06
9.75084e-06
-4.91007e-06
1.13128e-05
-7.86139e-06
1.29343e-05
-1.17237e-05
1.48767e-05
-1.66442e-05
1.73097e-05
-2.27071e-05
2.05472e-05
-2.99615e-05
2.50262e-05
-3.84774e-05
3.12978e-05
-4.83746e-05
3.99813e-05
5.18911e-05
-5.97998e-05
-1.04473e-06
9.47744e-06
-2.5304e-06
1.12365e-05
-4.46782e-06
1.32502e-05
-7.02868e-06
1.54952e-05
-1.03676e-05
1.82157e-05
-1.46329e-05
2.1575e-05
-1.99518e-05
2.58661e-05
-2.64271e-05
3.15014e-05
-3.4166e-05
3.90368e-05
-4.32902e-05
4.91055e-05
6.26513e-05
-5.40504e-05
-9.72011e-07
1.04494e-05
-2.33289e-06
1.25974e-05
-4.07582e-06
1.49931e-05
-6.34062e-06
1.776e-05
-9.26138e-06
2.11364e-05
-1.2988e-05
2.53016e-05
-1.76607e-05
3.05388e-05
-2.34125e-05
3.72532e-05
-3.03645e-05
4.59889e-05
-3.87119e-05
5.74528e-05
7.26179e-05
-4.86784e-05
-7.92663e-07
1.12421e-05
-1.97364e-06
1.37784e-05
-3.51084e-06
1.65303e-05
-5.51213e-06
1.97613e-05
-8.08655e-06
2.37108e-05
-1.13675e-05
2.85826e-05
-1.54979e-05
3.46693e-05
-2.0614e-05
4.23693e-05
-2.68756e-05
5.22505e-05
-3.44537e-05
6.50309e-05
8.16833e-05
-4.35191e-05
-6.37827e-07
1.18799e-05
-1.65008e-06
1.47906e-05
-2.98384e-06
1.78641e-05
-4.72864e-06
2.15061e-05
-6.9833e-06
2.59655e-05
-9.86454e-06
3.14638e-05
-1.34995e-05
3.83042e-05
-1.80305e-05
4.69003e-05
-2.36141e-05
5.78341e-05
-3.04397e-05
7.18566e-05
8.98835e-05
-3.864e-05
-6.06038e-07
1.2486e-05
-1.51141e-06
1.5696e-05
-2.67339e-06
1.90261e-05
-4.18287e-06
2.30156e-05
-6.12409e-06
2.79067e-05
-8.60906e-06
3.39488e-05
-1.17579e-05
4.1453e-05
-1.57021e-05
5.08445e-05
-2.0599e-05
6.2731e-05
-2.66209e-05
7.78784e-05
9.72331e-05
-3.39705e-05
-5.16531e-07
1.30025e-05
-1.27452e-06
1.6454e-05
-2.25377e-06
2.00053e-05
-3.52519e-06
2.4287e-05
-5.16593e-06
2.95474e-05
-7.27194e-06
3.60548e-05
-9.95686e-06
4.41379e-05
-1.33488e-05
5.42364e-05
-1.75676e-05
6.69498e-05
-2.27926e-05
8.31034e-05
0.000103707
-2.92666e-05
-2.97847e-07
1.33004e-05
-8.40663e-07
1.69968e-05
-1.59332e-06
2.0758e-05
-2.60551e-06
2.52992e-05
-3.93818e-06
3.08801e-05
-5.66871e-06
3.77853e-05
-7.88857e-06
4.63578e-05
-1.07121e-05
5.706e-05
-1.42584e-05
7.04961e-05
-1.86636e-05
8.75086e-05
0.000109164
-2.412e-05
-2.18481e-07
1.35188e-05
-6.0466e-07
1.7383e-05
-1.13858e-06
2.12919e-05
-1.87673e-06
2.60373e-05
-2.86042e-06
3.18638e-05
-4.16045e-06
3.90853e-05
-5.86338e-06
4.80607e-05
-8.04828e-06
5.92449e-05
-1.08134e-05
7.32612e-05
-1.43082e-05
9.10033e-05
0.000113498
-1.86423e-05
-9.47467e-08
1.36136e-05
-2.80063e-07
1.75683e-05
-5.66939e-07
2.15788e-05
-9.87436e-07
2.64578e-05
-1.59126e-06
3.24676e-05
-2.42669e-06
3.99208e-05
-3.55302e-06
4.91871e-05
-5.03772e-06
6.07296e-05
-6.95543e-06
7.51789e-05
-9.34995e-06
9.33978e-05
0.000116503
-1.23555e-05
1.47083e-07
1.34665e-05
2.59881e-07
1.74555e-05
2.91045e-07
2.15476e-05
2.30136e-07
2.65187e-05
6.34447e-08
3.26343e-05
-2.54587e-07
4.02388e-05
-7.49785e-07
4.96823e-05
-1.44905e-06
6.14288e-05
-2.37021e-06
7.61001e-05
-3.55928e-06
9.45869e-05
0.000118026
-5.08225e-06
3.35385e-07
1.31311e-05
7.31533e-07
1.70593e-05
1.10975e-06
2.11694e-05
1.47033e-06
2.61581e-05
1.80535e-06
3.22993e-05
2.10277e-06
3.99414e-05
2.37127e-06
4.94138e-05
2.62316e-06
6.11769e-05
2.87625e-06
7.5847e-05
3.1285e-06
9.43347e-05
0.000117746
3.4084e-06
5.57962e-07
1.25732e-05
1.29112e-06
1.63262e-05
2.0695e-06
2.0391e-05
2.90759e-06
2.532e-05
3.82167e-06
3.13852e-05
4.84095e-06
3.89221e-05
6.0172e-06
4.82375e-05
7.41594e-06
5.97782e-05
9.11467e-06
7.41482e-05
1.11916e-05
9.22578e-05
0.000115291
1.36467e-05
8.28981e-07
1.17442e-05
1.95306e-06
1.52021e-05
3.18161e-06
1.91625e-05
4.56687e-06
2.39348e-05
6.15445e-06
2.97976e-05
8.02864e-06
3.70479e-05
1.02977e-05
4.59685e-05
1.30971e-05
5.69788e-05
1.65479e-05
7.06974e-05
2.07978e-05
8.80079e-05
0.000110085
2.60045e-05
1.13081e-06
1.06134e-05
2.6581e-06
1.36748e-05
4.38127e-06
1.74393e-05
6.37918e-06
2.19369e-05
8.74896e-06
2.74279e-05
1.16449e-05
3.41519e-05
1.52461e-05
4.23673e-05
1.97276e-05
5.24973e-05
2.52736e-05
6.51515e-05
3.21097e-05
8.11717e-05
0.000101662
4.05324e-05
1.30782e-06
9.30554e-06
3.23641e-06
1.17462e-05
5.47447e-06
1.52013e-05
8.13984e-06
1.92715e-05
1.14209e-05
2.41468e-05
1.55432e-05
3.00296e-05
2.07191e-05
3.71914e-05
2.71555e-05
4.60608e-05
3.51056e-05
5.72014e-05
4.48841e-05
7.13931e-05
8.96962e-05
5.68498e-05
1.35317e-06
7.95236e-06
3.73642e-06
9.36297e-06
6.29354e-06
1.26442e-05
9.64799e-06
1.59171e-05
1.39702e-05
1.98246e-05
1.9477e-05
2.45228e-05
2.63702e-05
3.02982e-05
3.49086e-05
3.75224e-05
4.54142e-05
4.66959e-05
5.83328e-05
5.84746e-05
7.37973e-05
7.42316e-05
-2.34054e-06
1.02929e-05
1.74489e-07
6.84793e-06
4.28528e-06
8.53336e-06
9.25489e-06
1.09474e-05
1.52847e-05
1.37949e-05
2.25893e-05
1.72181e-05
3.13756e-05
2.15119e-05
4.20155e-05
2.68825e-05
5.50039e-05
3.37075e-05
7.09609e-05
4.25176e-05
5.41156e-05
9.06426e-05
3.80334e-06
1.8172e-05
5.14379e-06
1.77376e-05
1.77217e-06
2.3656e-05
-4.5549e-06
2.8185e-05
-1.22559e-05
3.09864e-05
-2.04406e-05
3.30584e-05
-2.88843e-05
3.49945e-05
-3.79906e-05
3.73805e-05
-4.80163e-05
3.99129e-05
-5.92206e-05
4.24195e-05
4.46619e-05
-7.18937e-05
8.09579e-06
1.00762e-05
1.16217e-05
1.42117e-05
1.22606e-05
2.30172e-05
1.00655e-05
3.03801e-05
4.61619e-06
3.64357e-05
-3.42482e-06
4.10994e-05
-1.27853e-05
4.4355e-05
-2.2983e-05
4.75782e-05
-3.4259e-05
5.1189e-05
-4.67882e-05
5.49486e-05
5.87588e-05
-6.08851e-05
5.11876e-06
4.95742e-06
8.22005e-06
1.11104e-05
1.08745e-05
2.03627e-05
1.16201e-05
2.96345e-05
9.40187e-06
3.86539e-05
4.05647e-06
4.64448e-05
-3.72229e-06
5.21338e-05
-1.28881e-05
5.6744e-05
-2.33242e-05
6.16251e-05
-3.51472e-05
6.67716e-05
7.21637e-05
-4.85521e-05
4.25699e-06
7.0043e-07
6.64541e-06
8.72196e-06
9.15292e-06
1.78552e-05
1.06832e-05
2.81042e-05
1.02866e-05
3.90505e-05
7.38288e-06
4.93485e-05
1.92997e-06
5.75867e-05
-5.39571e-06
6.40697e-05
-1.40978e-05
7.03272e-05
-2.41789e-05
7.68527e-05
8.36867e-05
-3.5702e-05
3.06564e-06
-2.36521e-06
5.8173e-06
5.9703e-06
8.32786e-06
1.53446e-05
1.00057e-05
2.64264e-05
1.03998e-05
3.86564e-05
9.01818e-06
5.07302e-05
5.54936e-06
6.10555e-05
1.97919e-07
6.94211e-05
-6.57417e-06
7.70992e-05
-1.464e-05
8.49186e-05
9.3001e-05
-2.39542e-05
1.93869e-06
-4.3039e-06
4.70663e-06
3.20235e-06
7.52117e-06
1.25301e-05
9.57494e-06
2.43726e-05
1.05793e-05
3.7652e-05
1.02026e-05
5.11069e-05
8.16486e-06
6.30933e-05
4.52942e-06
7.30566e-05
-4.49242e-07
8.20779e-05
-6.5317e-06
9.1001e-05
0.000100121
-1.36521e-05
1.01971e-06
-5.32361e-06
3.58656e-06
6.35494e-07
6.493e-06
9.62364e-06
8.96828e-06
2.18973e-05
1.05691e-05
3.60512e-05
1.10295e-05
5.06465e-05
1.01364e-05
6.39864e-05
7.90733e-06
7.52856e-05
4.55126e-06
8.5434e-05
2.06976e-07
9.53453e-05
0.000105138
-4.80958e-06
5.71213e-07
-5.89482e-06
2.60748e-06
-1.40077e-06
5.40694e-06
6.82418e-06
8.08072e-06
1.92235e-05
1.01462e-05
3.39857e-05
1.13145e-05
4.94782e-05
1.14137e-05
6.38872e-05
1.04379e-05
7.62615e-05
8.54439e-06
8.73275e-05
5.84106e-06
9.80487e-05
0.000108702
2.27669e-06
4.61019e-07
-6.35584e-06
1.90869e-06
-2.84844e-06
4.43397e-06
4.2989e-06
7.20358e-06
1.64539e-05
9.59895e-06
3.15903e-05
1.135e-05
4.77272e-05
1.2305e-05
6.29321e-05
1.24419e-05
7.61246e-05
1.19015e-05
8.78679e-05
1.08479e-05
9.91022e-05
0.000110145
9.40569e-06
4.22513e-07
-6.77835e-06
1.4911e-06
-3.91702e-06
3.62624e-06
2.16376e-06
6.35966e-06
1.37205e-05
9.00696e-06
2.8943e-05
1.12488e-05
4.54854e-05
1.2959e-05
6.12218e-05
1.40993e-05
7.49844e-05
1.47964e-05
8.71708e-05
1.5185e-05
9.87136e-05
0.000109936
1.53931e-05
3.38122e-07
-7.11647e-06
1.24447e-06
-4.82337e-06
3.00937e-06
3.98862e-07
5.646e-06
1.10838e-05
8.49661e-06
2.60924e-05
1.11808e-05
4.28012e-05
1.3562e-05
5.88406e-05
1.56174e-05
7.2929e-05
1.74487e-05
8.53394e-05
1.92235e-05
9.69388e-05
0.000108189
2.09713e-05
2.85725e-07
-7.4022e-06
9.81081e-07
-5.51873e-06
2.39697e-06
-1.01703e-06
4.83746e-06
8.64337e-06
7.78782e-06
2.31421e-05
1.08427e-05
3.97463e-05
1.38699e-05
5.58134e-05
1.68259e-05
6.99729e-05
1.98038e-05
8.23616e-05
2.29798e-05
9.37628e-05
0.000104626
2.65422e-05
1.79499e-07
-7.5817e-06
6.97284e-07
-6.03651e-06
1.85402e-06
-2.17376e-06
4.06292e-06
6.43446e-06
7.05564e-06
2.01493e-05
1.04399e-05
3.6362e-05
1.40684e-05
5.21849e-05
1.79075e-05
6.61338e-05
2.20138e-05
7.82553e-05
2.65457e-05
8.92309e-05
9.9454e-05
3.1718e-05
3.19965e-08
-7.61369e-06
4.11624e-07
-6.41614e-06
1.35806e-06
-3.1202e-06
3.34511e-06
4.44741e-06
6.35664e-06
1.71378e-05
1.00162e-05
3.27025e-05
1.4228e-05
4.79732e-05
1.89235e-05
6.14383e-05
2.41632e-05
7.30155e-05
3.00902e-05
8.3304e-05
9.26532e-05
3.6891e-05
-9.24712e-08
-7.52122e-06
8.595e-08
-6.59456e-06
8.0916e-07
-3.84341e-06
2.52735e-06
2.72922e-06
5.45673e-06
1.42084e-05
9.38735e-06
2.87719e-05
1.40917e-05
4.32688e-05
1.96796e-05
5.58504e-05
2.6112e-05
6.65832e-05
3.35233e-05
7.58927e-05
8.41378e-05
4.20388e-05
-2.16159e-07
-7.30506e-06
-2.69542e-07
-6.54118e-06
1.7911e-07
-4.29207e-06
1.65105e-06
1.25728e-06
4.42595e-06
1.14335e-05
8.49499e-06
2.47028e-05
1.3829e-05
3.79348e-05
2.02405e-05
4.94389e-05
2.7914e-05
5.89096e-05
3.68698e-05
6.69369e-05
7.34445e-05
4.7563e-05
-3.59502e-07
-6.94556e-06
-6.54087e-07
-6.24659e-06
-5.4764e-07
-4.39851e-06
6.24396e-07
8.52437e-08
3.22108e-06
8.83684e-06
7.36346e-06
2.05605e-05
1.3119e-05
3.21792e-05
2.05142e-05
4.20438e-05
2.94451e-05
4.99787e-05
3.98855e-05
5.64965e-05
6.12133e-05
5.21167e-05
-5.39087e-07
-6.40648e-06
-1.10085e-06
-5.68483e-06
-1.37035e-06
-4.12901e-06
-7.4731e-07
-5.37797e-07
1.66689e-06
6.42264e-06
5.8346e-06
1.63927e-05
1.20428e-05
2.59711e-05
2.02818e-05
3.38048e-05
3.04249e-05
3.98355e-05
4.24103e-05
4.45111e-05
4.72008e-05
5.64228e-05
-7.78158e-07
-5.62832e-06
-1.67674e-06
-4.78624e-06
-2.38601e-06
-3.41975e-06
-2.40799e-06
-5.15813e-07
-5.1309e-07
4.52774e-06
3.78152e-06
1.20981e-05
1.03611e-05
1.93915e-05
1.94132e-05
2.47527e-05
3.07051e-05
2.85436e-05
4.40748e-05
3.11415e-05
3.20905e-05
5.91851e-05
-1.13054e-06
-4.49778e-06
-2.48802e-06
-3.42876e-06
-3.78095e-06
-2.12682e-06
-4.43644e-06
1.39685e-07
-3.26005e-06
3.35135e-06
9.5012e-07
7.88797e-06
7.85495e-06
1.24866e-05
1.74913e-05
1.51164e-05
2.94992e-05
1.65356e-05
4.3546e-05
1.70947e-05
1.59812e-05
5.96552e-05
-1.57393e-06
-2.92385e-06
-3.72014e-06
-1.28255e-06
-5.85577e-06
8.80876e-09
-7.11467e-06
1.39858e-06
-6.41878e-06
2.65546e-06
-2.76764e-06
4.23682e-06
4.24572e-06
5.47327e-06
1.41074e-05
5.25471e-06
2.61076e-05
4.53551e-06
4.02128e-05
2.98949e-06
-8.08193e-07
5.70022e-05
-4.16615e-06
1.2423e-06
-6.43763e-06
9.88932e-07
-8.20122e-06
1.77239e-06
-8.44959e-06
1.64695e-06
-6.53898e-06
7.44855e-07
-1.29726e-06
-1.00489e-06
7.69137e-06
-3.51537e-06
1.88078e-05
-5.86171e-06
3.21535e-05
-8.81017e-06
4.83009e-05
-1.31579e-05
-1.95923e-05
6.7085e-05
-3.45171e-07
1.58747e-06
1.101e-06
-4.57237e-07
4.67868e-06
-1.80529e-06
1.04867e-05
-4.16102e-06
1.80923e-05
-6.86079e-06
2.70228e-05
-9.93543e-06
3.68686e-05
-1.33611e-05
4.83681e-05
-1.73613e-05
6.20164e-05
-2.24584e-05
7.79812e-05
-2.91228e-05
-3.78795e-05
9.62684e-05
1.18804e-05
1.82711e-05
2.49991e-05
3.17856e-05
3.87197e-05
4.60023e-05
5.41532e-05
6.36744e-05
7.49235e-05
8.83183e-05
0.000104554
-5.35143e-06
1.94106e-05
-1.40592e-05
-1.02939e-05
1.77874e-05
-1.28449e-05
-1.74779e-05
2.11376e-05
-1.39537e-05
-2.48782e-05
2.28308e-05
-1.54305e-05
-3.24158e-05
2.50669e-05
-1.75293e-05
-4.02676e-05
2.81978e-05
-2.03461e-05
-4.87816e-05
3.25142e-05
-2.40001e-05
-5.83518e-05
3.82778e-05
-2.87077e-05
-6.94153e-05
4.58679e-05
-3.48043e-05
-8.24865e-05
5.58452e-05
-4.2774e-05
6.90505e-05
-5.32286e-05
-9.83084e-05
2.55475e-06
1.68558e-05
2.7401e-06
1.7602e-05
-1.00074e-06
2.48785e-05
-6.51982e-06
2.83499e-05
-1.35906e-05
3.21377e-05
-2.16882e-05
3.62954e-05
-3.07564e-05
4.15823e-05
-4.10265e-05
4.85479e-05
-5.29015e-05
5.77429e-05
-6.69188e-05
6.98624e-05
8.58895e-05
-8.37577e-05
2.4386e-06
1.44172e-05
2.88338e-06
1.71572e-05
1.95054e-06
2.58113e-05
-5.54513e-07
3.0855e-05
-5.25577e-06
3.68389e-05
-1.16181e-05
4.26577e-05
-1.94107e-05
4.93749e-05
-2.85856e-05
5.77229e-05
-3.93357e-05
6.8493e-05
-5.20697e-05
8.25965e-05
0.000101271
-6.74516e-05
1.7606e-06
1.26566e-05
1.76235e-06
1.71555e-05
1.76541e-06
2.58082e-05
7.03303e-07
3.19171e-05
-1.99877e-06
3.9541e-05
-6.17923e-06
4.68382e-05
-1.19209e-05
5.51166e-05
-1.91331e-05
6.49351e-05
-2.78653e-05
7.72252e-05
-3.83301e-05
9.30613e-05
0.000113861
-5.09198e-05
1.39116e-06
1.12655e-05
1.38028e-06
1.71664e-05
1.57934e-06
2.56092e-05
9.96119e-07
3.25003e-05
-4.68301e-07
4.10054e-05
-2.98747e-06
4.93573e-05
-6.80169e-06
5.89308e-05
-1.19353e-05
7.00687e-05
-1.84246e-05
8.37144e-05
-2.63561e-05
0.000100993
0.000123398
-3.58927e-05
1.28985e-06
9.97563e-06
1.63293e-06
1.68233e-05
2.08727e-06
2.51548e-05
1.80659e-06
3.2781e-05
1.03727e-06
4.17747e-05
-4.60163e-07
5.08548e-05
-2.85427e-06
6.1325e-05
-6.25332e-06
7.34678e-05
-1.07426e-05
8.82037e-05
-1.63569e-05
0.000106607
0.000130162
-2.31213e-05
1.26505e-06
8.71058e-06
1.94561e-06
1.61427e-05
2.67623e-06
2.44242e-05
2.76017e-06
3.2697e-05
2.50693e-06
4.2028e-05
1.70728e-06
5.16544e-05
3.1217e-07
6.27201e-05
-1.76775e-06
7.55477e-05
-4.6258e-06
9.10617e-05
-8.30324e-06
0.000110285
0.000134699
-1.28401e-05
1.11032e-06
7.60027e-06
2.04372e-06
1.52093e-05
2.99354e-06
2.34744e-05
3.43238e-06
3.22582e-05
3.62805e-06
4.18323e-05
3.39797e-06
5.18845e-05
2.78894e-06
6.33291e-05
1.73143e-06
7.66052e-05
1.96334e-07
9.25968e-05
-1.81154e-06
0.000112292
0.000137116
-4.22851e-06
1.05232e-06
6.54794e-06
2.19079e-06
1.40709e-05
3.32964e-06
2.23356e-05
4.10619e-06
3.14816e-05
4.67914e-06
4.12593e-05
4.93211e-06
5.16316e-05
4.9489e-06
6.33123e-05
4.70391e-06
7.68502e-05
4.21698e-06
9.30838e-05
3.5076e-06
0.000113002
0.000137944
2.67957e-06
1.15909e-06
5.38885e-06
2.53017e-06
1.26998e-05
3.9143e-06
2.09514e-05
5.04264e-06
3.03533e-05
5.97731e-06
4.03247e-05
6.63916e-06
5.09697e-05
7.15281e-06
6.27987e-05
7.53446e-06
7.64685e-05
7.8393e-06
9.27789e-05
8.12055e-06
0.000112721
0.000137637
8.42713e-06
1.17841e-06
4.21043e-06
2.69735e-06
1.11808e-05
4.312e-06
1.93368e-05
5.78986e-06
2.88754e-05
7.08125e-06
3.90333e-05
8.16054e-06
4.98904e-05
9.13149e-06
6.18277e-05
1.00733e-05
7.55267e-05
1.10652e-05
9.17871e-05
1.22148e-05
0.000111571
0.000136136
1.37165e-05
1.0507e-06
3.15974e-06
2.57919e-06
9.65235e-06
4.32717e-06
1.75888e-05
6.07892e-06
2.71237e-05
7.72727e-06
3.73849e-05
9.234e-06
4.83837e-05
1.06893e-05
6.03724e-05
1.21994e-05
7.40166e-05
1.38743e-05
9.01122e-05
1.58291e-05
0.000109616
0.000133753
1.82112e-05
9.53156e-07
2.20658e-06
2.45741e-06
8.14809e-06
4.32555e-06
1.57207e-05
6.34637e-06
2.51029e-05
8.34784e-06
3.53835e-05
1.0288e-05
4.64436e-05
1.22315e-05
5.84289e-05
1.42912e-05
7.19568e-05
1.66049e-05
8.77985e-05
1.93164e-05
0.000106905
0.000130523
2.25469e-05
9.05782e-07
1.3008e-06
2.38789e-06
6.66599e-06
4.38153e-06
1.3727e-05
6.66872e-06
2.28157e-05
9.04582e-06
3.30064e-05
1.14369e-05
4.40525e-05
1.38825e-05
5.59833e-05
1.64993e-05
6.934e-05
1.94407e-05
8.48571e-05
2.28777e-05
0.000103468
0.000126345
2.70554e-05
7.40688e-07
5.60112e-07
2.0745e-06
5.33218e-06
4.08097e-06
1.17205e-05
6.56076e-06
2.03359e-05
9.28665e-06
3.02805e-05
1.21596e-05
4.11796e-05
1.5184e-05
5.29588e-05
1.84606e-05
6.60635e-05
2.21497e-05
8.1168e-05
2.64281e-05
9.91893e-05
0.000121309
3.14646e-05
5.59571e-07
5.41328e-10
1.7383e-06
4.15344e-06
3.72348e-06
9.73537e-06
6.36809e-06
1.76913e-05
9.43651e-06
2.72121e-05
1.28111e-05
3.78051e-05
1.64637e-05
4.93062e-05
2.0477e-05
6.20501e-05
2.50051e-05
7.66399e-05
3.02272e-05
9.39672e-05
0.000115165
3.63715e-05
4.48694e-07
-4.48152e-07
1.4737e-06
3.12844e-06
3.40871e-06
7.80035e-06
6.18833e-06
1.49117e-05
9.59847e-06
2.38019e-05
1.34914e-05
3.39121e-05
1.78278e-05
4.49698e-05
2.26683e-05
5.72096e-05
2.81392e-05
7.1169e-05
3.44113e-05
8.76951e-05
0.000107857
4.17187e-05
2.8236e-07
-7.30512e-07
1.14662e-06
2.26418e-06
2.94797e-06
5.99901e-06
5.76701e-06
1.20926e-05
9.45144e-06
2.01175e-05
1.3865e-05
2.94985e-05
1.8957e-05
3.98778e-05
2.47618e-05
5.14048e-05
3.13741e-05
6.45567e-05
3.89508e-05
8.01184e-05
9.91397e-05
4.76682e-05
1.63261e-07
-8.93774e-07
8.67238e-07
1.5602e-06
2.4663e-06
4.39995e-06
5.20128e-06
9.35763e-06
9.06614e-06
1.62526e-05
1.39802e-05
2.45845e-05
1.98874e-05
3.39705e-05
2.67902e-05
4.45021e-05
3.47312e-05
5.66157e-05
4.38357e-05
7.1014e-05
8.85967e-05
5.43787e-05
6.52815e-08
-9.59055e-07
6.07609e-07
1.01787e-06
1.93376e-06
3.0738e-06
4.44147e-06
6.84992e-06
8.35662e-06
1.23375e-05
1.37203e-05
1.92209e-05
2.04704e-05
2.72203e-05
2.85511e-05
3.64214e-05
3.79598e-05
4.7207e-05
4.88079e-05
6.01659e-05
7.60001e-05
6.14045e-05
-4.77656e-09
-9.54279e-07
2.70466e-07
7.42631e-07
1.2158e-06
2.12846e-06
3.35046e-06
4.71527e-06
7.17939e-06
8.50854e-06
1.28819e-05
1.35184e-05
2.03858e-05
1.97163e-05
2.95746e-05
2.72326e-05
4.04409e-05
3.63407e-05
5.3113e-05
4.74938e-05
6.11735e-05
6.79396e-05
-5.48481e-07
-4.05798e-07
-6.156e-07
8.0975e-07
-2.42962e-08
1.53715e-06
1.83984e-06
2.85113e-06
5.54101e-06
4.80737e-06
1.13483e-05
7.71113e-06
1.92431e-05
1.18215e-05
2.91386e-05
1.73372e-05
4.11137e-05
2.43655e-05
5.54386e-05
3.31689e-05
4.3814e-05
7.2798e-05
-7.97855e-07
3.92057e-07
-9.11546e-07
9.2344e-07
-2.3104e-07
8.56647e-07
1.56065e-06
1.05945e-06
4.80583e-06
1.56219e-06
9.86982e-06
2.64715e-06
1.70253e-05
4.66602e-06
2.64433e-05
7.91918e-06
3.84203e-05
1.23885e-05
5.3164e-05
1.84252e-05
2.64448e-05
7.05332e-05
1.48287e-06
-1.09081e-06
3.59549e-06
-1.18919e-06
5.66437e-06
-1.21223e-06
7.76995e-06
-1.04613e-06
1.01255e-05
-7.93364e-07
1.32026e-05
-4.29945e-07
1.7761e-05
1.07598e-07
2.47105e-05
9.69673e-07
3.45565e-05
2.54253e-06
4.77668e-05
5.21493e-06
9.66026e-06
6.45513e-05
-1.44785e-05
4.19337e-07
-2.49594e-05
-2.36391e-06
-3.34102e-05
-5.5029e-06
-4.06195e-05
-8.2212e-06
-4.75248e-05
-1.0624e-05
-5.46887e-05
-1.31822e-05
-6.25751e-05
-1.61137e-05
-7.1591e-05
-1.96918e-05
-8.21253e-05
-2.42701e-05
-9.46015e-05
-3.02978e-05
-3.84015e-05
-0.000109429
-7.39731e-06
7.81665e-06
-1.42302e-05
4.46896e-06
-2.25714e-05
2.8383e-06
-3.10432e-05
2.50647e-07
-3.92799e-05
-2.38737e-06
-4.77261e-05
-4.73591e-06
-5.68998e-05
-6.93998e-06
-6.73045e-05
-9.2871e-06
-7.93979e-05
-1.21767e-05
-9.36463e-05
-1.60494e-05
-2.1389e-05
-0.000110659
-2.66509e-06
1.04817e-05
-6.75823e-06
8.5621e-06
-1.31878e-05
9.26787e-06
-2.09376e-05
8.00044e-06
-2.97259e-05
6.40092e-06
-3.92927e-05
4.83092e-06
-4.95764e-05
3.34368e-06
-6.09099e-05
2.04647e-06
-7.37702e-05
6.83629e-07
-8.8694e-05
-1.12554e-06
-3.86749e-06
-0.000106216
-1.68306e-06
1.21648e-05
-4.71614e-06
1.15952e-05
-9.22721e-06
1.37789e-05
-1.50986e-05
1.38718e-05
-2.26308e-05
1.39331e-05
-3.13973e-05
1.35975e-05
-4.14589e-05
1.34053e-05
-5.28381e-05
1.34256e-05
-6.58071e-05
1.36527e-05
-8.07641e-05
1.38315e-05
1.35867e-05
-9.82183e-05
-1.45951e-06
1.36243e-05
-4.11965e-06
1.42553e-05
-7.60757e-06
1.72669e-05
-1.22448e-05
1.85091e-05
-1.83927e-05
2.0081e-05
-2.60119e-05
2.12167e-05
-3.50642e-05
2.24576e-05
-4.55768e-05
2.39382e-05
-5.77015e-05
2.57773e-05
-7.17321e-05
2.78621e-05
2.99139e-05
-8.80592e-05
-1.28153e-06
1.49058e-05
-3.67162e-06
1.66454e-05
-6.54818e-06
2.01434e-05
-1.03123e-05
2.22732e-05
-1.53416e-05
2.51103e-05
-2.16885e-05
2.75635e-05
-2.94855e-05
3.02546e-05
-3.87611e-05
3.32138e-05
-4.9601e-05
3.66172e-05
-6.22109e-05
4.0472e-05
4.4578e-05
-7.6875e-05
-1.07923e-06
1.59851e-05
-3.18013e-06
1.87463e-05
-5.62073e-06
2.2584e-05
-8.73181e-06
2.53843e-05
-1.28808e-05
2.92593e-05
-1.81232e-05
3.28059e-05
-2.46585e-05
3.679e-05
-3.25702e-05
4.11255e-05
-4.19466e-05
4.59936e-05
-5.29318e-05
5.14571e-05
5.74329e-05
-6.57867e-05
-1.00463e-06
1.69897e-05
-2.8153e-06
2.0557e-05
-4.8742e-06
2.46429e-05
-7.59828e-06
2.81083e-05
-1.09201e-05
3.25812e-05
-1.51881e-05
3.70739e-05
-2.0541e-05
4.21428e-05
-2.70891e-05
4.76736e-05
-3.49461e-05
5.38506e-05
-4.4206e-05
6.0717e-05
6.82322e-05
-5.50053e-05
-8.57797e-07
1.78475e-05
-2.46171e-06
2.21609e-05
-3.99785e-06
2.6179e-05
-6.27817e-06
3.03887e-05
-9.00904e-06
3.5312e-05
-1.24783e-05
4.05431e-05
-1.67843e-05
4.64489e-05
-2.20746e-05
5.29639e-05
-2.84633e-05
6.02393e-05
-3.60757e-05
6.83294e-05
7.72214e-05
-4.50649e-05
-6.69791e-07
1.85173e-05
-1.92561e-06
2.34167e-05
-3.26916e-06
2.75226e-05
-5.02752e-06
3.2147e-05
-7.14013e-06
3.74247e-05
-9.84381e-06
4.32468e-05
-1.31985e-05
4.98036e-05
-1.73237e-05
5.70891e-05
-2.23343e-05
6.52498e-05
-2.83431e-05
7.43382e-05
8.43206e-05
-3.54422e-05
-4.37647e-07
1.89549e-05
-1.27394e-06
2.4253e-05
-2.21742e-06
2.84661e-05
-3.5383e-06
3.34679e-05
-5.09475e-06
3.89811e-05
-7.09535e-06
4.52474e-05
-9.56482e-06
5.22731e-05
-1.26186e-05
6.01429e-05
-1.63303e-05
6.89615e-05
-2.07927e-05
7.88006e-05
8.96533e-05
-2.61254e-05
-2.32787e-07
1.91877e-05
-7.94739e-07
2.4815e-05
-1.37393e-06
2.90453e-05
-2.21789e-06
3.43118e-05
-3.20375e-06
3.9967e-05
-4.49291e-06
4.65365e-05
-6.08677e-06
5.3867e-05
-8.06371e-06
6.21199e-05
-1.04784e-05
7.13762e-05
-1.339e-05
8.17122e-05
9.30943e-05
-1.6831e-05
6.48449e-09
1.91812e-05
-2.29716e-07
2.50512e-05
-4.47834e-07
2.92634e-05
-8.15111e-07
3.46791e-05
-1.23309e-06
4.0385e-05
-1.81632e-06
4.71198e-05
-2.5402e-06
5.45908e-05
-3.46472e-06
6.30444e-05
-4.59128e-06
7.25027e-05
-5.96241e-06
8.30833e-05
9.4719e-05
-7.58713e-06
3.41668e-07
1.88396e-05
5.04463e-07
2.48884e-05
6.8017e-07
2.90877e-05
7.95062e-07
3.45642e-05
9.50167e-07
4.02298e-05
1.06597e-06
4.7004e-05
1.1951e-06
5.44617e-05
1.3161e-06
6.29234e-05
1.45528e-06
7.23636e-05
1.6392e-06
8.28994e-05
9.44769e-05
1.88132e-06
5.54564e-07
1.8285e-05
1.06242e-06
2.43805e-05
1.6514e-06
2.84987e-05
2.28698e-06
3.39287e-05
3.03916e-06
3.94777e-05
3.90651e-06
4.61366e-05
4.93143e-06
5.34368e-05
6.14866e-06
6.17062e-05
7.613e-06
7.08992e-05
9.39956e-06
8.11128e-05
9.22632e-05
1.16133e-05
8.00608e-07
1.74844e-05
1.69556e-06
2.34856e-05
2.70799e-06
2.74863e-05
3.88162e-06
3.2755e-05
5.26059e-06
3.80987e-05
6.90615e-06
4.44911e-05
8.86412e-06
5.14788e-05
1.12067e-05
5.93636e-05
1.40272e-05
6.80787e-05
1.74457e-05
7.76943e-05
8.80934e-05
2.16155e-05
1.1024e-06
1.6382e-05
2.41295e-06
2.2175e-05
3.88963e-06
2.60096e-05
5.63917e-06
3.10055e-05
7.67946e-06
3.60584e-05
1.01334e-05
4.20371e-05
1.30615e-05
4.85508e-05
1.6575e-05
5.585e-05
2.07878e-05
6.38659e-05
2.58605e-05
7.26217e-05
8.19527e-05
3.20011e-05
1.39233e-06
1.49897e-05
3.13699e-06
2.04304e-05
5.11199e-06
2.40346e-05
7.47515e-06
2.86423e-05
1.02259e-05
3.33077e-05
1.35505e-05
3.87124e-05
1.75061e-05
4.45952e-05
2.22446e-05
5.11114e-05
2.79113e-05
5.81992e-05
3.46962e-05
6.58368e-05
7.37817e-05
4.28673e-05
1.68776e-06
1.33019e-05
3.87082e-06
1.82473e-05
6.38403e-06
2.15214e-05
9.39765e-06
2.56287e-05
1.29291e-05
2.97762e-05
1.71721e-05
3.44695e-05
2.22219e-05
3.95454e-05
2.82487e-05
4.50846e-05
3.54173e-05
5.10307e-05
4.39506e-05
5.73035e-05
6.36234e-05
5.41089e-05
2.00421e-06
1.12977e-05
4.64584e-06
1.56057e-05
7.71693e-06
1.84503e-05
1.14276e-05
2.19181e-05
1.57879e-05
2.54158e-05
2.10013e-05
2.92562e-05
2.71897e-05
3.3357e-05
3.4525e-05
3.77493e-05
4.32053e-05
4.23504e-05
5.35132e-05
4.69956e-05
5.13758e-05
6.57608e-05
2.32923e-06
8.96847e-06
5.40158e-06
1.25333e-05
9.05177e-06
1.48001e-05
1.34805e-05
1.74893e-05
1.87013e-05
2.01951e-05
2.49062e-05
2.30512e-05
3.22259e-05
2.60373e-05
4.08532e-05
2.91221e-05
5.10358e-05
3.21678e-05
6.30419e-05
3.49895e-05
3.72188e-05
7.71989e-05
2.57446e-06
6.39401e-06
6.06023e-06
9.04754e-06
1.02671e-05
1.05932e-05
1.53799e-05
1.23765e-05
2.1424e-05
1.4151e-05
2.85482e-05
1.5927e-05
3.69009e-05
1.76845e-05
4.67043e-05
1.93187e-05
5.8205e-05
2.06671e-05
7.1715e-05
2.14794e-05
2.13525e-05
8.75813e-05
3.08169e-06
3.31232e-06
6.90789e-06
5.22133e-06
1.15079e-05
5.99321e-06
1.7083e-05
6.80149e-06
2.36883e-05
7.54568e-06
3.14381e-05
8.17717e-06
4.05118e-05
8.61079e-06
5.11419e-05
8.68862e-06
6.36068e-05
8.20224e-06
7.81682e-05
6.91805e-06
4.64014e-06
9.48805e-05
2.22151e-06
6.25365e-06
1.10346e-05
1.679e-05
2.35423e-05
3.12895e-05
4.00079e-05
4.96662e-05
6.0411e-05
7.2544e-05
8.68444e-05
1.9382e-06
8.96887e-06
-1.09071e-05
2.78208e-06
9.52794e-06
-1.03718e-05
1.89865e-06
1.25218e-05
-1.16383e-05
-1.30708e-07
1.54921e-05
-1.34627e-05
-2.96944e-06
1.83783e-05
-1.55395e-05
-6.44311e-06
2.14424e-05
-1.79688e-05
-1.04012e-05
2.49386e-05
-2.09805e-05
-1.47683e-05
2.93117e-05
-2.49447e-05
-1.97691e-05
3.53096e-05
-3.03088e-05
-2.56654e-05
4.34683e-05
-3.7572e-05
5.45479e-05
-4.73466e-05
-3.28667e-05
3.57146e-06
5.3974e-06
5.76709e-06
7.33231e-06
6.9306e-06
1.13583e-05
7.06237e-06
1.53603e-05
5.95042e-06
1.94902e-05
3.57789e-06
2.3815e-05
1.48078e-07
2.83684e-05
-4.02379e-06
3.34836e-05
-8.80853e-06
4.00943e-05
-1.43985e-05
4.90583e-05
6.13381e-05
-2.11887e-05
2.86412e-06
2.53328e-06
4.67066e-06
5.52576e-06
6.39666e-06
9.63227e-06
7.68516e-06
1.40718e-05
8.08657e-06
1.90888e-05
7.35962e-06
2.45419e-05
5.47796e-06
3.02501e-05
2.61786e-06
3.63437e-05
-9.02472e-07
4.36147e-05
-4.99908e-06
5.31549e-05
6.61998e-05
-9.86077e-06
1.78746e-06
7.45828e-07
3.48533e-06
3.82789e-06
5.3349e-06
7.7827e-06
6.95518e-06
1.24515e-05
8.11507e-06
1.79289e-05
8.594e-06
2.4063e-05
8.17313e-06
3.06709e-05
6.84259e-06
3.76742e-05
4.86173e-06
4.55955e-05
2.49827e-06
5.55183e-05
6.88384e-05
-1.40291e-07
1.02639e-06
-2.80558e-07
2.49825e-06
2.35603e-06
4.19898e-06
6.08197e-06
5.90294e-06
1.07475e-05
7.4639e-06
1.63679e-05
8.6628e-06
2.28641e-05
9.30381e-06
3.00299e-05
9.2853e-06
3.76927e-05
8.74286e-06
4.6138e-05
7.95676e-06
5.63044e-05
6.95995e-05
7.1957e-06
3.75535e-07
-6.56092e-07
1.53458e-06
1.19698e-06
3.06324e-06
4.55331e-06
4.7623e-06
9.04849e-06
6.49391e-06
1.46363e-05
8.11693e-06
2.12411e-05
9.4709e-06
2.8676e-05
1.04291e-05
3.67345e-05
1.10452e-05
4.55219e-05
1.15459e-05
5.58038e-05
6.89072e-05
1.22382e-05
-9.5662e-10
-6.55135e-07
6.79037e-07
5.16985e-07
1.91445e-06
3.3179e-06
3.48054e-06
7.4824e-06
5.23257e-06
1.28843e-05
7.06992e-06
1.94037e-05
8.87015e-06
2.68757e-05
1.05301e-05
3.50745e-05
1.20447e-05
4.40074e-05
1.35644e-05
5.42841e-05
6.71447e-05
1.53268e-05
-1.86687e-07
-4.68447e-07
-5.13734e-09
3.35435e-07
8.48815e-07
2.46395e-06
2.15815e-06
6.17307e-06
3.77918e-06
1.12633e-05
5.6563e-06
1.75266e-05
7.71069e-06
2.48213e-05
9.85716e-06
3.29281e-05
1.20639e-05
4.18006e-05
1.44185e-05
5.19295e-05
6.4411e-05
1.71522e-05
-2.51348e-07
-2.17099e-07
-3.44961e-07
4.29049e-07
4.80255e-08
2.07096e-06
1.0324e-06
5.1887e-06
2.42739e-06
9.86827e-06
4.22394e-06
1.573e-05
6.3771e-06
2.26682e-05
8.82751e-06
3.04776e-05
1.15266e-05
3.91015e-05
1.44892e-05
4.89669e-05
6.10672e-05
1.78329e-05
-2.70754e-07
5.36557e-08
-4.73348e-07
6.31644e-07
-4.22659e-07
2.02027e-06
2.26463e-07
4.53957e-06
1.4045e-06
8.69023e-06
3.06177e-06
1.40728e-05
5.21477e-06
2.05152e-05
7.82755e-06
2.78649e-05
1.0838e-05
3.60911e-05
1.42192e-05
4.55857e-05
5.72713e-05
1.80151e-05
-2.54092e-07
3.07748e-07
-4.97111e-07
8.74663e-07
-5.88387e-07
2.11155e-06
-2.5211e-07
4.2033e-06
6.91001e-07
7.74712e-06
2.1877e-06
1.25761e-05
4.29153e-06
1.84114e-05
6.98174e-06
2.51746e-05
1.01944e-05
3.28785e-05
1.38662e-05
4.19139e-05
5.31128e-05
1.80247e-05
-2.24968e-07
5.32716e-07
-4.76246e-07
1.12594e-06
-6.16228e-07
2.25153e-06
-4.58424e-07
4.04549e-06
2.63091e-07
7.02561e-06
1.61965e-06
1.12195e-05
3.65877e-06
1.63722e-05
6.38035e-06
2.24531e-05
9.71941e-06
2.95394e-05
1.35934e-05
3.80399e-05
4.87698e-05
1.79364e-05
-1.73831e-07
7.06548e-07
-3.85898e-07
1.33801e-06
-4.96327e-07
2.36196e-06
-3.80725e-07
3.92989e-06
2.12066e-07
6.43281e-06
1.47299e-06