/*--------------------------------*- C++ -*----------------------------------*\
| =========                 |                                                 |
| \\      /  F ield         | OpenFOAM: The Open Source CFD Toolbox           |
|  \\    /   O peration     | Version:  3.0.1                                 |
|   \\  /    A nd           | Web:      www.OpenFOAM.org                      |
|    \\/     M anipulation  |                                                 |
\*---------------------------------------------------------------------------*/
FoamFile
{
    version     2.0;
    format      ascii;
    class       surfaceVectorField;
    location    "0.630335";
    object      Uf;
}
// * * * * * * * * * * * * * * * * * * * * * * * * * * * * * * * * * * * * * //

dimensions      [0 1 -1 0 0 0 0];

internalField   nonuniform List<vector> 
32369
(
(6.97494 -4.63465 -9.57643e-20)
(5.37841 -5.02494 -5.21751e-19)
(9.09961 -3.25633 5.69389e-19)
(6.2522 -3.59025 -3.45362e-19)
(5.28286 -4.48154 -7.36497e-19)
(6.98761 -2.32589 -1.06607e-19)
(5.88858 -2.88356 2.99372e-21)
(5.29639 -3.71863 -1.84227e-18)
(6.41792 -2.19535 2.91439e-20)
(5.56358 -2.301 1.00266e-19)
(5.22381 -3.0387 -3.83821e-20)
(6.08006 -1.95719 -3.04433e-19)
(5.2368 -1.85313 4.35939e-20)
(5.06124 -2.46229 -5.17258e-19)
(5.64376 -1.6282 2.39598e-19)
(4.92635 -1.51427 -8.16547e-20)
(4.84504 -1.99709 1.32744e-20)
(5.23917 -1.34583 1.59588e-19)
(4.63905 -1.25167 -2.92473e-20)
(4.61113 -1.62973 2.53315e-19)
(4.89011 -1.1143 -7.06077e-20)
(4.3774 -1.04604 7.45434e-21)
(4.37891 -1.34138 9.00568e-21)
(4.58231 -0.929274 -5.99938e-22)
(4.14228 -0.882476 -2.29919e-20)
(4.15904 -1.11383 -4.55812e-21)
(4.31303 -0.783582 -3.01594e-21)
(3.93211 -0.75201 1.10978e-20)
(3.95615 -0.933526 -8.28234e-20)
(4.07461 -0.665948 -1.60991e-20)
(3.77073 -0.801561 1.54925e-19)
(3.86595 -0.583653 -2.29194e-21)
(3.70669 -0.647392 2.13555e-20)
(3.70219 -5.26102 -2.84596e-18)
(2.35344 -4.77546 -5.93534e-18)
(4.23322 -4.5322 -2.20681e-18)
(3.1759 -4.63418 3.15281e-18)
(4.54809 -3.82332 -1.94003e-18)
(3.74006 -4.1972 -1.59902e-18)
(4.67149 -3.16265 -5.42578e-19)
(4.09871 -3.63987 -2.2558e-19)
(4.64751 -2.58547 -6.00779e-19)
(4.27028 -3.07326 -4.99588e-19)
(4.52825 -2.10759 2.52306e-19)
(4.29615 -2.55212 5.00051e-20)
(4.35927 -1.72404 3.01e-19)
(4.22573 -2.10191 4.99568e-19)
(4.17166 -1.42065 -2.34642e-21)
(4.10117 -1.72954 -2.05794e-21)
(3.98413 -1.18175 -5.82266e-20)
(3.95262 -1.42855 -3.36424e-19)
(3.80711 -0.993472 2.46163e-20)
(3.79814 -1.18794 -1.11495e-19)
(3.64481 -1.00627 2.81895e-19)
(3.62085 -0.839086 -3.53234e-19)
(1.98199 -4.46003 -2.1772e-18)
(1.09386 -3.89488 -7.34938e-18)
(2.69903 -4.40125 3.85572e-18)
(1.83573 -4.03307 4.06013e-19)
(3.24514 -4.04933 -1.05472e-19)
(2.45569 -4.00464 4.87628e-18)
(3.6342 -3.5742 -1.30976e-19)
(2.9887 -3.737 -1.66029e-18)
(3.86744 -3.05652 0)
(3.36916 -3.33046 0)
(3.9622 -2.56018 2.03023e-19)
(3.60277 -2.8794 4.10804e-19)
(3.95259 -2.12147 2.54065e-19)
(3.70811 -2.43807 2.55096e-20)
(3.87707 -1.75344 -2.92854e-19)
(3.71803 -2.03898 -3.62373e-19)
(3.76767 -1.45439 -4.42937e-19)
(3.66731 -1.69681 -3.26378e-19)
(3.64559 -1.21669 6.11484e-20)
(3.58395 -1.41457 -7.41066e-20)
(3.4845 -1.19348 -2.02609e-19)
(3.49485 -1.02083 -3.61418e-19)
(1.13 -3.54905 -5.14653e-18)
(0.702565 -3.24305 -2.27433e-18)
(1.65193 -3.75565 1.2513e-18)
(1.17683 -3.38926 -3.33483e-18)
(2.2239 -3.77054 3.76147e-18)
(1.60245 -3.51968 5.26582e-18)
(2.71833 -3.55951 -1.71454e-18)
(2.09692 -3.48098 -1.5314e-18)
(3.08704 -3.2061 3.59512e-19)
(2.54596 -3.28406 0)
(3.33288 -2.79656 2.45228e-19)
(2.89408 -2.97291 -3.3199e-20)
(3.46756 -2.38538 -5.71327e-19)
(3.12808 -2.60708 -1.91172e-18)
(3.51276 -2.00796 -3.97831e-19)
(3.26113 -2.23608 1.11633e-18)
(3.49337 -1.68174 0)
(3.31749 -1.89118 -9.26526e-21)
(3.43426 -1.40978 -3.1703e-19)
(3.31956 -1.58802 0)
(3.28029 -1.3384 5.84058e-20)
(3.34284 -1.1758 1.52847e-19)
(0.831063 -3.0432 -3.4883e-19)
(0.608691 -2.82843 1.74164e-18)
(1.10401 -3.20138 6.38506e-20)
(0.941712 -2.92252 -1.41279e-18)
(1.47817 -3.28294 6.08838e-19)
(1.17281 -3.04774 5.56306e-19)
(1.91289 -3.2625 0)
(1.52805 -3.0886 1.16506e-18)
(2.32942 -3.10859 -3.56789e-19)
(1.91658 -3.02623 -2.33448e-18)
(2.66685 -2.83474 -1.93079e-18)
(2.27873 -2.84687 5.32508e-20)
(2.90586 -2.49766 -4.96025e-19)
(2.57592 -2.5847 -1.08863e-18)
(3.05384 -2.14849 1.64302e-18)
(2.79239 -2.28038 1.82884e-18)
(3.13146 -1.8198 -1.02229e-20)
(2.93266 -1.96781 -9.67766e-19)
(3.15921 -1.52809 3.63254e-19)
(3.01175 -1.67235 1.11315e-18)
(3.03616 -1.41907 -4.2745e-20)
(3.13462 -1.26245 4.22843e-19)
(0.742622 -2.65532 9.91254e-19)
(0.565315 -2.4703 5.88078e-19)
(0.938536 -2.76858 -1.0669e-18)
(0.825882 -2.51637 -1.34813e-18)
(1.18771 -2.85506 1.03988e-18)
(0.981044 -2.63015 5.04977e-19)
(1.49009 -2.87651 -8.43027e-19)
(1.24089 -2.68322 1.54496e-18)
(1.82315 -2.80447 -2.11064e-18)
(1.53795 -2.67116 -2.30909e-18)
(2.14676 -2.6397 1.00698e-18)
(1.84939 -2.57515 8.74972e-19)
(2.42661 -2.40428 9.80371e-19)
(2.14129 -2.40358 5.70613e-19)
(2.64273 -2.12969 -4.7951e-19)
(2.3883 -2.17856 1.98379e-18)
(2.79187 -1.84724 -1.30508e-19)
(2.57913 -1.9265 -1.6023e-18)
(2.88423 -1.58075 8.34849e-19)
(2.71297 -1.6729 3.85244e-19)
(2.78654 -1.44207 -9.4558e-19)
(2.923 -1.32787 5.09205e-19)
(0.690265 -2.32063 -1.52603e-18)
(0.547976 -2.1884 -1.14167e-18)
(0.835991 -2.39009 8.47884e-20)
(0.765895 -2.1869 -3.0895e-19)
(1.02748 -2.46298 8.49207e-19)
(0.880058 -2.27146 4.739e-19)
(1.26119 -2.49664 4.02562e-19)
(1.08131 -2.31858 3.64228e-19)
(1.52755 -2.46991 3.6138e-19)
(1.31432 -2.32305 -4.83216e-19)
(1.80554 -2.37396 4.48195e-19)
(1.57142 -2.27135 4.04049e-19)
(2.06985 -2.21541 1.41744e-18)
(1.83162 -2.16244 0)
(2.29895 -2.01195 1.19794e-18)
(2.07323 -2.00518 7.31645e-19)
(2.4808 -1.78586 -1.28112e-18)
(2.28091 -1.81466 -5.9685e-19)
(2.61302 -1.55798 -1.23736e-18)
(2.44552 -1.61087 -1.10364e-18)
(2.55574 -1.41906 -5.36845e-19)
(2.68839 -1.33175 -2.49033e-19)
(0.656636 -2.04248 1.1724e-21)
(0.529303 -1.94586 -6.51715e-21)
(0.77393 -2.07438 0)
(0.726219 -1.9145 0)
(0.928716 -2.12809 0)
(0.819353 -1.97187 0)
(1.11715 -2.15755 -4.32466e-19)
(0.983898 -2.00761 -2.99669e-19)
(1.33422 -2.14794 -5.34067e-19)
(1.17441 -2.01512 4.51096e-19)
(1.5694 -2.0911 0)
(1.3887 -1.98454 6.83264e-19)
(1.80676 -1.98669 -7.02915e-19)
(1.61462 -1.91311 -5.22697e-19)
(2.02888 -1.84219 -8.90236e-19)
(1.83719 -1.80338 -7.87879e-19)
(2.22217 -1.67088 -4.08427e-19)
(2.0431 -1.66232 5.40512e-19)
(2.38058 -1.48824 -4.24365e-19)
(2.21966 -1.50235 -7.7012e-19)
(2.34722 -1.34424 1.10337e-20)
(2.49578 -1.29017 1.25184e-18)
(0.6318 -1.80469 -1.86816e-20)
(0.518899 -1.72716 -3.11218e-19)
(0.73366 -1.80964 0)
(0.70052 -1.67467 -2.12246e-19)
(0.86556 -1.84649 -2.69326e-19)
(0.77902 -1.71449 3.41278e-19)
(1.02395 -1.86807 4.9153e-19)
(0.919826 -1.74045 -4.86501e-20)
(1.20656 -1.86297 1.62777e-18)
(1.08132 -1.74617 5.04719e-19)
(1.40776 -1.82561 2.7358e-19)
(1.26435 -1.72514 3.68045e-19)
(1.61778 -1.75419 -5.78969e-19)
(1.46158 -1.67513 -2.80647e-19)
(1.82426 -1.65085 4.64552e-19)
(1.66306 -1.59635 0)
(2.01543 -1.52197 2.00343e-19)
(1.85891 -1.49115 7.69977e-20)
(2.18358 -1.37764 -4.22305e-19)
(2.03724 -1.36595 -1.59204e-20)
(2.17585 -1.23443 -4.76905e-19)
(2.32158 -1.21674 -1.16475e-18)
(0.627384 -1.59906 -5.04455e-19)
(0.526961 -1.55298 -4.09758e-19)
(0.712517 -1.58129 7.31989e-20)
(0.690235 -1.47146 -5.01723e-21)
(0.825397 -1.60473 6.08391e-19)
(0.754027 -1.49297 -1.23888e-19)
(0.961505 -1.61858 -9.30563e-20)
(0.876754 -1.50858 2.44897e-19)
(1.11901 -1.6132 -7.42169e-19)
(1.01693 -1.50987 -4.16471e-19)
(1.29442 -1.58506 -1.28282e-19)
(1.17694 -1.49212 -1.73551e-19)
(1.48137 -1.53263 2.68061e-19)
(1.35181 -1.45389 2.69563e-20)
(1.67106 -1.45587 -4.1707e-19)
(1.5346 -1.39461 2.25377e-21)
(1.85407 -1.35683 -1.60765e-19)
(1.71821 -1.31436 1.59802e-20)
(2.02194 -1.24013 -1.94338e-20)
(1.89259 -1.21633 3.63566e-19)
(2.03354 -1.11262 -1.05207e-20)
(2.16166 -1.09918 5.31347e-19)
(0.627478 -1.43009 4.85788e-20)
(0.536275 -1.41583 -1.36789e-20)
(0.700565 -1.3855 -1.93393e-19)
(0.678846 -1.29953 2.06815e-19)
(0.798803 -1.39469 -5.26486e-19)
(0.734789 -1.30114 -3.22533e-19)
(0.918207 -1.39984 -8.51215e-21)
(0.845594 -1.30499 2.19023e-19)
(1.05717 -1.39141 1.28047e-19)
(0.970777 -1.29966 -1.76898e-19)
(1.21326 -1.36697 -3.46826e-20)
(1.11421 -1.28126 1.35255e-19)
(1.38198 -1.32544 -2.36696e-19)
(1.27232 -1.24887 -3.83796e-21)
(1.55676 -1.26622 4.09848e-19)
(1.44005 -1.20185 4.65531e-19)
(1.72993 -1.18983 5.21387e-19)
(1.61235 -1.13941 1.33959e-19)
(1.89435 -1.09975 4.20334e-19)
(1.78083 -1.0626 0)
(1.91914 -0.979395 2.36787e-19)
(2.04212 -0.991036 3.38939e-18)
(0.61191 -1.28119 1.33216e-19)
(0.534933 -1.27149 2.32954e-19)
(0.683858 -1.21154 1.34303e-19)
(0.659817 -1.13456 -2.65952e-19)
(0.775642 -1.20737 3.68745e-19)
(0.715565 -1.12365 2.85488e-19)
(0.885243 -1.20362 9.19788e-20)
(0.820005 -1.11875 2.27938e-19)
(1.01197 -1.19066 -2.03069e-19)
(0.935742 -1.10738 -1.77771e-19)
(1.15447 -1.16678 1.80313e-19)
(1.06816 -1.08687 -1.3718e-19)
(1.30965 -1.13141 6.45505e-19)
(1.21459 -1.05713 3.05838e-19)
(1.47262 -1.0839 2.13327e-19)
(1.37127 -1.01787 1.05981e-19)
(1.63731 -1.02387 -3.69743e-19)
(1.53457 -0.968072 -1.10768e-19)
(1.79775 -0.95279 -1.99452e-19)
(1.69813 -0.907224 0)
(1.83754 -0.838921 -3.12234e-19)
(1.94747 -0.865475 -1.28411e-18)
(0.596708 -1.13324 -1.12667e-19)
(0.535686 -1.12917 1.10798e-19)
(0.667229 -1.04624 -1.63717e-19)
(0.645161 -0.975383 -2.61667e-19)
(0.754938 -1.03257 1.49985e-19)
(0.699925 -0.954772 7.2987e-20)
(0.858522 -1.02165 0)
(0.799132 -0.942967 4.96553e-20)
(0.977553 -1.00428 -1.1655e-19)
(0.90847 -0.926444 -3.6028e-20)
(1.11124 -0.979582 -5.9709e-20)
(1.03391 -0.903535 -1.59849e-19)
(1.25737 -0.947651 -2.14896e-19)
(1.17294 -0.874919 9.42384e-20)
(1.41215 -0.907982 -1.92683e-19)
(1.32235 -0.840836 -3.5688e-19)
(1.57081 -0.859266 2.47313e-19)
(1.47925 -0.800187 2.11179e-19)
(1.72896 -0.799838 -7.79848e-20)
(1.63886 -0.75085 0)
(1.77654 -0.693131 -1.93078e-19)
(1.881 -0.715149 -6.95168e-19)
(0.592967 -0.996063 3.50004e-21)
(0.535952 -1.02139 -4.8591e-20)
(0.656764 -0.889949 -5.13991e-20)
(0.630778 -0.834124 -7.01289e-20)
(0.738852 -0.866452 -2.61274e-20)
(0.685956 -0.796832 -1.87424e-19)
(0.837384 -0.848621 2.24705e-20)
(0.782029 -0.775612 1.45411e-19)
(0.951325 -0.826908 -6.63934e-20)
(0.887721 -0.753039 3.69893e-20)
(1.0797 -0.800849 -3.26354e-20)
(1.00946 -0.72717 1.01493e-19)
(1.22043 -0.771088 0)
(1.1446 -0.698952 -2.05995e-20)
(1.37007 -0.737412 -1.09523e-20)
(1.29004 -0.669038 2.9461e-20)
(1.52405 -0.698192 -1.3624e-20)
(1.44286 -0.636506 8.95517e-20)
(1.67759 -0.651611 -9.33847e-20)
(1.59942 -0.598644 3.1945e-20)
(1.73491 -0.553165 -1.8232e-19)
(1.82528 -0.58982 1.1856e-18)
(0.574316 -0.867683 -1.24211e-19)
(0.534552 -0.89702 -9.88773e-20)
(0.641852 -0.739947 -1.945e-19)
(0.612547 -0.686426 -6.94418e-20)
(0.723886 -0.705581 -5.06207e-20)
(0.672321 -0.638504 -3.69309e-20)
(0.820926 -0.680625 1.71924e-19)
(0.7683 -0.610215 6.51836e-21)
(0.932876 -0.654505 1.99337e-19)
(0.873302 -0.582377 -5.32741e-20)
(1.05912 -0.626947 1.26581e-19)
(0.99448 -0.553795 3.1859e-19)
(1.19759 -0.599105 3.52795e-21)
(1.12894 -0.526155 -2.30633e-20)
(1.3448 -0.571066 1.23587e-19)
(1.27331 -0.500575 -2.34874e-19)
(1.49628 -0.54084 1.43903e-19)
(1.42415 -0.476165 -6.43577e-20)
(1.64794 -0.505196 -3.39796e-20)
(1.57884 -0.449307 2.48537e-19)
(1.71392 -0.414722 1.22336e-20)
(1.79633 -0.453174 6.90463e-19)
(0.557188 -0.732124 -4.38237e-20)
(0.539762 -0.764386 -1.79321e-19)
(0.628198 -0.58709 8.71533e-20)
(0.599499 -0.534136 2.21221e-19)
(0.711605 -0.544117 1.64674e-20)
(0.663846 -0.477487 -2.22111e-19)
(0.809407 -0.513078 -2.14096e-19)
(0.760062 -0.443081 -7.94618e-21)
(0.922152 -0.483089 2.6045e-20)
(0.86621 -0.410537 -1.21422e-19)
(1.04936 -0.454561 2.03351e-19)
(0.989621 -0.379856 8.84901e-20)
(1.1885 -0.429311 -2.39854e-19)
(1.12633 -0.353923 -2.58258e-19)
(1.33566 -0.407706 -4.42947e-19)
(1.27221 -0.334024 1.38541e-19)
(1.48593 -0.387182 7.9751e-21)
(1.42246 -0.319128 -1.73571e-19)
(1.63533 -0.362991 3.2142e-19)
(1.57541 -0.304487 -6.527e-21)
(1.70844 -0.280873 -2.62779e-19)
(1.78243 -0.321668 -1.34887e-19)
(0.553242 -0.596976 3.84709e-20)
(0.542568 -0.651366 -4.43464e-20)
(0.622217 -0.433196 -4.89129e-20)
(0.587346 -0.389582 7.2901e-20)
(0.705525 -0.380537 -2.69256e-19)
(0.65956 -0.316535 -1.00195e-19)
(0.804739 -0.342861 9.7804e-20)
(0.757605 -0.273263 8.24364e-20)
(0.920548 -0.309196 -8.07699e-20)
(0.867933 -0.23488 2.29123e-19)
(1.0515 -0.280696 -3.39909e-19)
(0.996788 -0.202844 -4.34109e-19)
(1.19405 -0.25983 7.82514e-20)
(1.1388 -0.180413 1.26576e-19)
(1.34289 -0.246779 4.46764e-19)
(1.28828 -0.16903 2.53605e-19)
(1.49231 -0.237909 -2.0732e-19)
(1.43822 -0.166277 -3.88513e-19)
(1.6383 -0.226758 -5.53194e-19)
(1.58847 -0.166275 -2.1691e-19)
(1.71686 -0.156468 -3.2321e-19)
(1.77942 -0.198991 -2.41683e-19)
(0.544001 -0.463764 -2.07296e-20)
(0.550703 -0.526231 1.79796e-19)
(0.617334 -0.278515 3.61407e-20)
(0.576122 -0.23753 -1.37872e-19)
(0.703666 -0.212908 2.31913e-19)
(0.659725 -0.149521 2.09348e-19)
(0.808027 -0.167427 1.98491e-19)
(0.764053 -0.095531 -2.69048e-19)
(0.930502 -0.130461 -5.50907e-20)
(0.883127 -0.0521186 4.2812e-19)
(1.06874 -0.103882 -2.51959e-20)
(1.02166 -0.0209062 -8.82506e-19)
(1.21711 -0.0904213 2.90006e-19)
(1.17162 -0.00570761 6.02688e-19)
(1.36833 -0.0892602 -5.08886e-19)
(1.32497 -0.00710911 1.87878e-19)
(1.51609 -0.0948145 -4.18726e-19)
(1.47302 -0.0198975 -1.65379e-19)
(1.65801 -0.0983916 1.58359e-20)
(1.61811 -0.0360501 3.13524e-21)
(1.74127 -0.0393675 1.72497e-19)
(1.79694 -0.0846222 7.81482e-19)
(0.53615 -0.322016 9.39723e-20)
(0.56666 -0.389623 -8.14291e-20)
(0.616116 -0.115309 0)
(0.569796 -0.0739853 -2.14643e-19)
(0.710816 -0.0354634 -2.40391e-19)
(0.671186 0.0308021 1.51684e-19)
(0.825309 0.0175007 -1.0667e-19)
(0.787069 0.0947006 -7.13284e-19)
(0.959624 0.05535 -2.61216e-19)
(0.920647 0.140503 5.50773e-19)
(1.1087 0.0756163 -4.16123e-19)
(1.07286 0.165419 -3.97475e-19)
(1.26348 0.0764852 5.37377e-19)
(1.23139 0.166489 2.16839e-19)
(1.41494 0.0614965 5.66803e-19)
(1.38571 0.146539 3.33948e-19)
(1.55767 0.0392558 2.45059e-19)
(1.52755 0.115192 3.32856e-20)
(1.69156 0.0208651 1.27795e-19)
(1.66182 0.0827583 -1.42925e-19)
(1.77854 0.067623 5.28295e-19)
(1.82446 0.0194958 9.97238e-20)
(0.536881 -0.165614 -3.72039e-19)
(0.594644 -0.239188 -4.4466e-19)
(0.626769 0.0618799 -9.98434e-20)
(0.574961 0.105242 2.3904e-19)
(0.734952 0.156639 -2.31001e-19)
(0.703547 0.228326 1.11989e-19)
(0.865973 0.214729 -1.77455e-19)
(0.8394 0.299923 -2.17639e-19)
(1.01733 0.247752 5.11263e-19)
(0.993648 0.341557 1.8824e-19)
(1.17898 0.253953 1.62058e-19)
(1.16094 0.350432 3.38894e-19)
(1.33781 0.235032 0)
(1.32407 0.327967 0)
(1.48422 0.199474 -1.68141e-19)
(1.47193 0.283635 -2.07059e-19)
(1.61565 0.159482 -3.43017e-19)
(1.59981 0.232251 -3.7295e-20)
(1.73532 0.127821 1.92147e-19)
(1.71561 0.185349 -1.41453e-19)
(1.81899 0.158006 1.95711e-19)
(1.85039 0.113948 2.45946e-19)
(0.551029 0.00971256 1.97586e-19)
(0.647003 -0.0673008 -1.73136e-19)
(0.659048 0.258717 4.66408e-19)
(0.604405 0.312685 4.49681e-19)
(0.789985 0.366108 1.52861e-19)
(0.777633 0.445487 -1.6973e-19)
(0.945731 0.422292 1.15192e-19)
(0.943336 0.516061 1.85873e-19)
(1.11755 0.439481 -6.19405e-21)
(1.12096 0.539514 -2.85351e-19)
(1.28827 0.420431 2.13929e-19)
(1.29683 0.517841 1.91207e-19)
(1.44253 0.37437 -1.8397e-19)
(1.45222 0.462704 0)
(1.57404 0.316053 -1.19991e-19)
(1.58065 0.392061 -3.70473e-19)
(1.68579 0.259938 1.70131e-19)
(1.68457 0.323613 3.86661e-19)
(1.78564 0.217566 -1.72221e-19)
(1.77539 0.267644 0)
(1.86066 0.232371 -4.53159e-20)
(1.88515 0.198023 1.97874e-19)
(0.599422 0.228647 1.77543e-19)
(0.781634 0.146877 2.10481e-19)
(0.737514 0.478095 -1.19265e-19)
(0.711414 0.528085 1.25247e-20)
(0.902642 0.589247 -1.81761e-19)
(0.926919 0.674366 -1.34076e-19)
(1.08956 0.626556 -1.41991e-19)
(1.13094 0.720844 7.98654e-20)
(1.27659 0.610025 -1.25326e-19)
(1.31992 0.702342 -1.10874e-19)
(1.44196 0.554213 0)
(1.4822 0.636484 4.74663e-20)
(1.57522 0.47831 -1.44826e-19)
(1.6083 0.54767 8.85057e-20)
(1.67877 0.400852 3.19077e-21)
(1.70199 0.45791 -3.83185e-19)
(1.76242 0.334908 2.60969e-19)
(1.77301 0.382126 1.32132e-19)
(1.83792 0.287923 1.32866e-19)
(1.83481 0.32667 0)
(1.90015 0.292355 -8.83299e-20)
(1.91237 0.25747 -3.30727e-19)
(0.66611 0.359608 7.03504e-20)
(1.10101 0.408967 7.10328e-19)
(0.849121 0.689273 1.03841e-20)
(0.877375 0.816942 3.49052e-19)
(1.08689 0.779076 4.63958e-20)
(1.27368 0.836409 5.93985e-20)
(1.30495 0.773744 6.32187e-20)
(1.45004 0.819399 -1.06089e-19)
(1.48712 0.710555 4.14715e-20)
(1.59468 0.750663 0)
(1.62274 0.619537 1.80037e-19)
(1.70029 0.65343 -5.00422e-20)
(1.71736 0.524713 -4.87697e-20)
(1.77248 0.553707 8.61498e-20)
(1.78346 0.441529 -3.28249e-19)
(1.82019 0.466797 -3.22156e-19)
(1.83479 0.378242 -8.81366e-20)
(1.85357 0.400761 2.20862e-20)
(1.88448 0.337626 -1.99103e-19)
(1.88506 0.358765 0)
(1.92754 0.336274 -1.79785e-19)
(1.94705 0.320297 -3.50766e-19)
(1.40255 1.09829 8.94991e-20)
(3.2216 0.479297 7.06315e-20)
(1.62963 1.00566 -1.29593e-19)
(1.45815 0.37678 -1.69578e-18)
(1.73802 0.948155 -2.37894e-19)
(1.54654 0.390574 1.83291e-18)
(1.81777 0.841623 4.66774e-20)
(1.68731 0.43517 -5.85672e-19)
(1.86486 0.720171 4.96052e-21)
(1.78826 0.427166 0)
(1.8836 0.607428 6.31034e-21)
(1.84833 0.394865 5.33616e-21)
(1.89163 0.510888 -9.1832e-20)
(1.89082 0.361197 -1.51781e-20)
(1.89525 0.436692 -1.3336e-20)
(1.90873 0.333877 -1.23961e-19)
(1.9022 0.388393 1.24809e-19)
(1.9127 0.319555 1.94215e-19)
(1.92034 0.364685 3.47666e-20)
(1.91772 0.32166 -3.69042e-20)
(1.93539 0.344403 8.49723e-20)
(1.95239 0.360848 2.58067e-20)
(6.3829 -0.949912 5.88764e-19)
(6.35984 -2.0047 -1.59147e-19)
(6.611 -1.48661 0)
(5.27656 -0.526676 0)
(6.58899 -1.50042 -2.9985e-19)
(6.05313 -0.633557 1.62588e-18)
(6.27474 -1.36545 -4.8618e-19)
(6.33994 -0.738225 -2.51978e-18)
(5.79413 -1.19104 5.58636e-20)
(6.10096 -0.690343 1.47198e-18)
(5.31385 -0.995506 1.78908e-19)
(5.68968 -0.634537 1.40465e-19)
(4.90917 -0.825388 2.1961e-20)
(5.22817 -0.569916 3.80314e-19)
(4.57355 -0.695362 3.32921e-20)
(4.81189 -0.498974 -9.09233e-20)
(4.28566 -0.591807 2.47857e-20)
(4.47565 -0.43577 -1.30193e-19)
(4.036 -0.513706 -2.67444e-20)
(4.18405 -0.378945 -3.10028e-20)
(3.93386 -0.341793 1.79333e-20)
(3.79479 -0.466011 4.11167e-19)
(3.8138 -0.891428 -7.69136e-19)
(3.13238 -2.65067 6.75919e-19)
(4.9118 -0.407864 1.26872e-18)
(3.359 -0.929699 1.64004e-18)
(5.60585 -0.286089 -3.08333e-19)
(4.70021 -0.275627 1.75456e-19)
(5.95689 -0.301122 -1.33585e-18)
(5.49873 -0.0476709 -2.96037e-18)
(5.93837 -0.329312 1.32209e-18)
(5.79405 0.0753351 6.80848e-19)
(5.6236 -0.33628 3.08664e-19)
(5.75096 0.0918563 1.77331e-18)
(5.17548 -0.320325 6.32795e-19)
(5.42983 0.0518104 3.37578e-19)
(4.75681 -0.289951 -2.38789e-19)
(4.98909 -0.00100898 -1.03238e-19)
(4.412 -0.258477 -1.90646e-19)
(4.59259 -0.0377647 6.19077e-20)
(4.11547 -0.234113 -1.8188e-19)
(4.25916 -0.0527004 -3.28963e-19)
(3.97771 -0.0677726 1.43213e-19)
(3.82792 -0.234298 2.12727e-21)
(2.58889 -2.20199 2.70906e-18)
(1.60866 -4.80335 2.07537e-18)
(3.4925 -0.868311 7.52374e-19)
(2.52686 -2.36132 1.4848e-18)
(4.4065 -0.113199 -2.14086e-18)
(3.53234 -0.918621 -1.57065e-18)
(5.11926 0.238729 -1.35481e-18)
(4.43369 -0.0724774 -3.16727e-18)
(5.50741 0.375898 1.0872e-18)
(5.06959 0.427316 -2.69676e-19)
(5.5373 0.370378 2.00646e-18)
(5.38244 0.64168 2.30579e-18)
(5.26842 0.288481 -1.37804e-19)
(5.3357 0.648736 -3.18606e-19)
(4.8633 0.196698 1.12521e-19)
(5.02013 0.539968 -1.53491e-19)
(4.48203 0.13163 2.49635e-19)
(4.62715 0.409257 4.36333e-19)
(4.15772 0.0939864 -3.34695e-19)
(4.27748 0.313579 3.69355e-19)
(3.98662 0.236184 -7.13222e-20)
(3.85902 0.0545664 1.12792e-19)
(1.81815 -5.05142 9.54789e-19)
(1.30939 -6.37648 -9.8948e-19)
(2.63015 -2.41088 -4.19028e-19)
(1.98289 -3.96802 -8.39224e-19)
(3.49564 -0.833816 -2.29319e-18)
(2.76538 -1.96183 5.9224e-19)
(4.27664 0.125396 -1.89732e-18)
(3.59603 -0.561755 -3.31035e-18)
(4.85855 0.664619 8.1842e-19)
(4.32351 0.373071 1.56194e-19)
(5.1474 0.877041 2.28713e-19)
(4.82725 0.90614 6.06869e-19)
(5.1114 0.854541 -5.64491e-19)
(5.00886 1.09699 -1.28918e-18)
(4.83066 0.712388 1.0204e-19)
(4.87338 1.03889 -7.45374e-19)
(4.46968 0.558123 5.52362e-19)
(4.55793 0.863576 -3.66266e-20)
(4.1411 0.439789 6.07296e-19)
(4.21745 0.694324 1.11697e-18)
(3.92757 0.554709 -4.66086e-19)
(3.82891 0.317552 3.1184e-19)
(1.48883 -5.73997 -3.4052e-18)
(1.23588 -6.75944 -1.5369e-18)
(2.03641 -3.71694 -7.45206e-20)
(1.58978 -5.21379 -8.55812e-19)
(2.79197 -1.78274 -1.281e-19)
(2.18062 -3.10124 9.74706e-19)
(3.55559 -0.35617 -1.4987e-18)
(2.93243 -1.30562 6.83397e-19)
(4.2037 0.596633 0)
(3.66015 0.0344806 -9.3486e-19)
(4.63431 1.11763 -6.94108e-19)
(4.24002 0.915228 -6.44352e-19)
(4.77725 1.27243 -1.52723e-18)
(4.56428 1.35947 -7.34388e-19)
(4.64729 1.17801 -1.14148e-18)
(4.58619 1.43595 1.29097e-18)
(4.36059 0.983919 -1.28008e-19)
(4.37934 1.28251 3.16014e-20)
(4.04882 0.796544 2.52316e-19)
(4.08432 1.06681 3.16806e-19)
(3.79812 0.874979 -3.19242e-19)
(3.74395 0.598018 -6.85371e-19)
(1.43358 -6.3647 8.61843e-19)
(1.33146 -6.93183 2.88129e-18)
(1.67256 -4.83474 0)
(1.49661 -5.97573 -5.42389e-19)
(2.26745 -2.80565 1.75328e-18)
(1.78938 -4.21876 0)
(2.95913 -1.03249 1.33792e-18)
(2.41233 -2.18356 1.3398e-18)
(3.60452 0.290231 -1.6095e-18)
(3.08861 -0.493895 -1.17994e-20)
(4.0962 1.13375 -6.99131e-19)
(3.67797 0.725922 -3.43117e-19)
(4.35197 1.52214 1.89442e-18)
(4.07424 1.44988 -2.10958e-19)
(4.34846 1.54731 2.5087e-18)
(4.20871 1.71218 2.0614e-18)
(4.15441 1.36919 3.17027e-19)
(4.10535 1.63604 2.31164e-20)
(3.88976 1.13977 0)
(3.8743 1.40817 0)
(3.61375 1.16997 4.41827e-19)
(3.60274 0.860123 0)
(1.48276 -6.64233 1.88447e-18)
(1.38932 -7.09579 8.33174e-19)
(1.53346 -5.55519 -6.01145e-19)
(1.52405 -6.35193 -5.6043e-19)
(1.90738 -3.81023 -5.51455e-19)
(1.59984 -5.10429 7.99228e-19)
(2.47927 -1.81677 1.15084e-19)
(2.02423 -3.09567 -3.09146e-19)
(3.07423 -0.17404 1.22891e-18)
(2.60572 -1.14418 4.36054e-19)
(3.57184 0.980664 6.80197e-20)
(3.15939 0.387954 4.20862e-19)
(3.88531 1.62214 -2.11699e-19)
(3.57416 1.39513 -1.37721e-19)
(3.97242 1.80919 -2.18773e-19)
(3.77549 1.86929 -9.92413e-19)
(3.86428 1.69218 -3.06878e-19)
(3.75623 1.90977 -1.4424e-18)
(3.65324 1.44911 3.90272e-19)
(3.59216 1.70753 2.38608e-19)
(3.39164 1.4227 -2.66947e-19)
(3.41997 1.15191 3.0573e-19)
(1.51442 -6.87671 -1.52971e-18)
(1.41621 -7.27573 -1.32134e-18)
(1.52893 -6.04415 7.42498e-19)
(1.55845 -6.62606 9.27154e-19)
(1.69432 -4.6092 1.16257e-18)
(1.53704 -5.66574 4.37926e-19)
(2.11056 -2.62789 -6.73501e-20)
(1.7591 -3.9236 3.12914e-19)
(2.61725 -0.739865 -3.92375e-19)
(2.20846 -1.85 -2.31974e-19)
(3.0775 0.703434 2.12577e-19)
(2.69022 -0.051107 9.5341e-19)
(3.40333 1.5985 -8.47426e-19)
(3.08101 1.22512 9.0869e-20)
(3.5449 1.96725 -2.22095e-18)
(3.30798 1.9171 -1.43152e-19)
(3.50835 1.9432 -1.10662e-18)
(3.34898 2.09568 -1.00693e-18)
(3.35441 1.71469 -3.04479e-19)
(3.24805 1.94958 2.09826e-19)
(3.1187 1.66594 -6.02189e-19)
(3.14461 1.4099 -2.25962e-18)
(1.52788 -7.08912 7.66226e-19)
(1.43264 -7.46025 -1.01198e-20)
(1.53121 -6.35835 7.01453e-19)
(1.57495 -6.86509 9.50825e-19)
(1.58149 -5.16703 -4.17918e-19)
(1.51719 -6.03072 -3.80761e-19)
(1.84179 -3.36197 2.0173e-19)
(1.59748 -4.60564 0)
(2.22752 -1.34924 9.76818e-19)
(1.89049 -2.5485 -2.25258e-19)
(2.6159 0.337348 9.0216e-19)
(2.26611 -0.553918 1.15359e-18)
(2.9171 1.47208 7.97289e-19)
(2.59944 0.964502 -1.12039e-19)
(3.08104 2.0263 1.145e-18)
(2.81765 1.86597 5.13842e-19)
(3.10003 2.11225 1.64316e-19)
(2.89509 2.18856 2.73478e-19)
(3.01426 1.92065 1.52729e-21)
(2.85016 2.10985 6.74549e-20)
(2.78049 1.83434 5.05345e-20)
(2.88264 1.59907 -3.8212e-19)
(1.53501 -7.29375 0)
(1.44467 -7.64691 0)
(1.52873 -6.62957 0)
(1.58468 -7.08235 -1.09235e-19)
(1.53591 -5.61794 0)
(1.50348 -6.32108 0)
(1.64635 -4.01 -4.0593e-19)
(1.50188 -5.11084 5.75993e-19)
(1.89313 -1.96644 -2.04049e-19)
(1.63519 -3.19223 -1.02186e-18)
(2.1826 -0.0904301 2.72968e-19)
(1.87987 -1.09071 -3.26188e-19)
(2.42921 1.25974 -4.52569e-19)
(2.12822 0.631738 5.06536e-19)
(2.58844 1.99098 -3.34647e-19)
(2.30967 1.72374 -6.20824e-20)
(2.6455 2.19163 1.9857e-19)
(2.40257 2.18598 1.08514e-19)
(2.61739 2.05169 1.1899e-19)
(2.40774 2.18528 -6.38175e-21)
(2.39815 1.94014 2.32089e-19)
(2.54202 1.77764 -2.98469e-19)
(1.53155 -7.48058 -9.87302e-20)
(1.43791 -7.78722 0)
(1.5199 -6.8708 -1.20725e-19)
(1.57051 -7.29422 2.06034e-19)
(1.49922 -5.94772 5.18786e-19)
(1.47063 -6.58379 1.37285e-18)
(1.49775 -4.50459 1.39476e-19)
(1.42415 -5.48775 -1.64427e-18)
(1.60471 -2.54536 -1.22494e-18)
(1.42474 -3.75636 -1.33834e-20)
(1.77249 -0.559236 -1.51743e-19)
(1.52617 -1.63686 6.8975e-19)
(1.93891 0.969999 9.77121e-19)
(1.66589 0.238792 4.91298e-19)
(2.07166 1.86129 3.63995e-19)
(1.78825 1.49316 -1.68599e-19)
(2.15374 2.17419 -9.07475e-20)
(1.8803 2.08189 -4.78947e-19)
(2.18442 2.09642 7.89703e-20)
(1.93165 2.16075 -1.88842e-19)
(1.9752 1.96127 3.57044e-20)
(2.17285 1.85238 1.05159e-18)
(1.5232 -7.64869 2.864e-19)
(1.41223 -7.93011 -1.04308e-18)
(1.49504 -7.08769 1.58865e-18)
(1.53295 -7.47817 -1.1496e-18)
(1.43487 -6.22944 -4.31377e-19)
(1.41611 -6.79694 4.03308e-18)
(1.3664 -4.91889 -1.9825e-18)
(1.33024 -5.79414 -2.76871e-18)
(1.34941 -3.07093 1.81186e-18)
(1.22999 -4.2355 1.46865e-18)
(1.38204 -1.04494 1.35896e-18)
(1.19473 -2.16052 1.35966e-18)
(1.44862 0.615038 -5.91167e-19)
(1.21037 -0.197132 -1.10843e-18)
(1.53838 1.6382 -9.86329e-19)
(1.25916 1.17783 -8.3404e-19)
(1.63594 2.05231 -5.78914e-19)
(1.34029 1.87027 -8.6634e-19)
(1.72363 2.04066 -2.70407e-19)
(1.4351 2.02534 4.4303e-19)
(1.54948 1.8711 -1.96419e-19)
(1.79526 1.84457 3.05667e-19)
(1.49436 -7.78783 -2.55653e-18)
(1.39093 -8.04062 1.9863e-18)
(1.43542 -7.26524 8.44591e-19)
(1.48191 -7.61106 -4.27079e-18)
(1.34465 -6.4635 2.4744e-18)
(1.34486 -6.97841 3.30433e-18)
(1.21964 -5.27294 2.16829e-19)
(1.2091 -6.0475 -1.06359e-18)
(1.09743 -3.54904 1.01657e-18)
(1.02682 -4.64762 -4.12647e-19)
(1.00011 -1.53393 -8.86465e-19)
(0.873484 -2.66155 6.91631e-19)
(0.960113 0.201328 -1.38602e-18)
(0.761697 -0.672176 -1.50727e-18)
(0.999075 1.31949 -7.02243e-19)
(0.731802 0.776216 -3.15114e-19)
(1.10743 1.81859 9.86865e-20)
(0.80001 1.54495 -1.11159e-18)
(1.24713 1.87319 5.93288e-19)
(0.935699 1.77422 1.49649e-18)
(1.13233 1.68515 -7.90404e-19)
(1.38297 1.72418 0)
(1.45906 -7.88341 9.88805e-19)
(1.36797 -8.0976 3.03154e-18)
(1.36969 -7.39938 -2.44412e-18)
(1.4076 -7.70184 -2.79769e-18)
(1.23762 -6.65904 2.26353e-19)
(1.24954 -7.11464 1.27747e-18)
(1.0612 -5.56965 -1.78289e-18)
(1.06125 -6.2664 -5.37629e-19)
(0.840423 -3.97686 -8.9528e-19)
(0.802162 -5.00408 -5.03722e-19)
(0.63035 -2.02824 2.40738e-19)
(0.557494 -3.15405 1.34865e-18)
(0.484042 -0.272316 -5.3908e-19)
(0.330004 -1.18519 -1.41953e-18)
(0.470328 0.900523 -6.25407e-19)
(0.222337 0.287078 1.86277e-18)
(0.590771 1.46647 1.31446e-19)
(0.282669 1.10028 -7.33919e-19)
(0.786717 1.59208 3.24118e-19)
(0.461039 1.39799 9.65517e-19)
(0.724776 1.38675 8.88346e-20)
(0.990601 1.51447 -4.61619e-19)
(1.40142 -7.93941 0)
(1.34389 -8.11739 -4.92709e-19)
(1.28016 -7.48787 5.76375e-19)
(1.30852 -7.74717 7.25916e-19)
(1.1047 -6.81094 7.06328e-19)
(1.12711 -7.19512 1.22125e-18)
(0.866129 -5.82748 7.3858e-19)
(0.88387 -6.42207 -9.94251e-19)
(0.56242 -4.37249 1.51798e-18)
(0.558016 -5.30973 -1.57547e-18)
(0.266833 -2.52756 -6.50598e-20)
(0.234801 -3.65908 1.94334e-18)
(0.0359298 -0.804576 6.41401e-19)
(-0.0711254 -1.74156 -1.63489e-18)
(-0.017773 0.383691 2.05221e-18)
(-0.241266 -0.290183 1.81188e-19)
(0.111643 0.995028 0)
(-0.185837 0.544486 7.85211e-19)
(0.362192 1.19359 7.75773e-19)
(0.0387237 0.898353 0)
(0.368438 0.979167 8.75494e-19)
(0.635536 1.19006 -2.72744e-19)
(1.32653 -7.94914 1.11539e-19)
(1.31626 -8.08624 -9.66439e-19)
(1.16696 -7.51704 1.31906e-18)
(1.18848 -7.73933 -7.13315e-19)
(0.943028 -6.88649 -2.51692e-19)
(0.977194 -7.21897 5.92283e-19)
(0.646223 -6.0129 -3.30355e-18)
(0.681585 -6.51229 -1.9071e-18)
(0.277696 -4.76546 -1.56009e-18)
(0.305113 -5.54293 -1.3262e-19)
(-0.0971396 -3.07833 7.25404e-19)
(-0.0900643 -4.16092 9.78547e-20)
(-0.38617 -1.39515 -2.15402e-18)
(-0.436175 -2.37343 -5.88561e-19)
(-0.463765 -0.235194 -8.74449e-19)
(-0.635876 -0.948536 -1.65689e-18)
(-0.302134 0.406364 8.73489e-19)
(-0.57037 -0.129471 7.88245e-19)
(0.00308162 0.674039 0)
(-0.31023 0.277611 0)
(0.109175 0.447146 0)
(0.350595 0.81681 0)
(1.23055 -7.90103 -1.80954e-18)
(1.27202 -7.98144 -8.90693e-19)
(1.02739 -7.49158 -1.56001e-18)
(1.04236 -7.66499 -2.06535e-18)
(0.754843 -6.9122 -7.86259e-19)
(0.793959 -7.18588 1.66153e-18)
(0.406771 -6.12964 1.01196e-18)
(0.451065 -6.55737 -9.10271e-19)
(-0.00924044 -5.07549 1.50165e-18)
(0.0397696 -5.72327 2.24947e-18)
(-0.440793 -3.65626 -1.18494e-18)
(-0.390405 -4.60573 -1.16237e-18)
(-0.737688 -2.09537 1.29192e-19)
(-0.745781 -3.10304 -3.58882e-19)
(-0.819821 -0.949702 0)
(-0.943493 -1.70978 9.59577e-19)
(-0.627703 -0.298985 0)
(-0.854847 -0.904138 3.90258e-19)
(-0.278742 0.0389619 0)
(-0.564794 -0.449547 -3.36638e-19)
(-0.0889794 -0.145777 1.09201e-19)
(0.106249 0.204216 -6.40542e-19)
(1.10186 -7.77804 -1.03954e-18)
(1.19611 -7.78537 4.3534e-20)
(0.852806 -7.39779 6.9422e-19)
(0.862819 -7.50875 -6.41536e-19)
(0.531577 -6.8844 1.79411e-18)
(0.567335 -7.08672 2.06578e-18)
(0.141183 -6.2164 0)
(0.179303 -6.5617 0)
(-0.295339 -5.34852 0)
(-0.249874 -5.89153 0)
(-0.727026 -4.22234 -4.68116e-19)
(-0.664831 -5.02277 0)
(-1.01709 -2.88962 7.08237e-19)
(-0.983321 -3.86926 -5.23701e-19)
(-1.06696 -1.77334 1.41387e-18)
(-1.1473 -2.60838 9.6e-19)
(-0.839854 -1.10076 1.34571e-19)
(-1.01506 -1.77551 1.64482e-19)
(-0.460035 -0.680397 -4.94594e-20)
(-0.702199 -1.27083 -3.38534e-19)
(-0.190432 -0.829127 5.60711e-20)
(-0.0627535 -0.371465 1.73195e-19)
(0.934379 -7.55893 4.94534e-19)
(1.06663 -7.478 4.41435e-19)
(0.632635 -7.21847 4.03511e-19)
(0.628384 -7.24602 -2.65304e-19)