/*--------------------------------*- C++ -*----------------------------------*\
| =========                 |                                                 |
| \\      /  F ield         | OpenFOAM: The Open Source CFD Toolbox           |
|  \\    /   O peration     | Version:  3.0.1                                 |
|   \\  /    A nd           | Web:      www.OpenFOAM.org                      |
|    \\/     M anipulation  |                                                 |
\*---------------------------------------------------------------------------*/
FoamFile
{
    version     2.0;
    format      ascii;
    class       volScalarField;
    location    "0.86874";
    object      epsilon;
}
// * * * * * * * * * * * * * * * * * * * * * * * * * * * * * * * * * * * * * //

dimensions      [0 2 -3 0 0 0 0];

internalField   nonuniform List<scalar> 
21246
(
2004.35
670.711
279.7
111.801
40.0488
13.3208
4.31558
1.38997
0.452717
0.155157
0.0608459
1469.21
409.953
198.026
88.0346
34.9618
12.7305
4.36207
1.43504
0.464753
0.155455
0.0592531
895.922
319.891
164.769
82.1882
35.7874
13.8261
4.90961
1.63975
0.52902
0.174308
0.065172
623.462
243.488
139.212
77.8048
37.1422
15.2643
5.65511
1.94859
0.639047
0.2091
0.0760996
456.09
182.581
106.761
64.669
34.3439
15.5854
6.17304
2.20136
0.726339
0.230035
0.0791916
370.209
144.438
85.8318
53.0605
29.1101
13.8042
5.68015
2.09109
0.713489
0.236322
0.0851902
314.067
119.293
71.255
44.3718
24.6148
11.8713
5.02261
1.9195
0.682252
0.234555
0.086346
274.15
101.297
60.3567
37.5493
20.9168
10.1873
4.38991
1.72451
0.634173
0.226408
0.0891057
245.231
87.9267
52.0502
32.2563
17.9686
8.79569
3.83952
1.54292
0.586244
0.21776
0.0890367
223.539
77.894
45.7436
28.2425
15.7177
7.71588
3.39927
1.39082
0.543217
0.208575
0.0868132
206.259
70.0785
40.8549
25.1672
14.0041
6.89189
3.05824
1.26897
0.506187
0.198962
0.0856378
193.057
63.7521
36.9352
22.7327
12.6664
6.25552
2.79525
1.17401
0.476762
0.191557
0.0846254
183.775
58.7431
33.8348
20.8404
11.6489
5.78142
2.60222
1.1051
0.456138
0.187104
0.0842353
177.319
54.9872
31.479
19.4443
10.9286
5.45968
2.47642
1.06226
0.444339
0.184966
0.0847981
173.924
52.083
29.6398
18.4
10.4303
5.25965
2.40787
1.04315
0.441331
0.185677
0.085648
173.755
49.9825
28.2815
17.6895
10.1489
5.18285
2.39969
1.04999
0.448366
0.189843
0.0877166
176.687
48.9203
27.4499
17.3418
10.1148
5.25262
2.46529
1.08919
0.468293
0.19842
0.0913078
183.972
49.3515
27.2675
17.3843
10.3779
5.52653
2.64234
1.17567
0.50648
0.213637
0.0977372
196.893
51.5681
27.8399
17.8326
10.9433
6.0424
2.98641
1.35958
0.591235
0.249134
0.111846
218.128
56.2124
29.4821
18.8379
11.8887
6.85878
3.55326
1.68281
0.751521
0.322006
0.141999
253.434
64.5802
32.7069
20.6509
13.3339
8.05587
4.42388
2.22405
1.04698
0.46949
0.209258
316.412
77.7231
38.1655
23.5876
15.4322
9.7353
5.70958
3.10694
1.58917
0.77404
0.366557
433.744
99.5655
46.8515
28.3117
18.6485
12.2264
7.67367
4.57019
2.59433
1.41332
0.745387
681.074
104.69
53.2421
33.1102
23.2288
16.3612
11.1961
7.37671
4.68602
2.88173
1.72584
2082.36
1209.67
521.845
221.038
74.9514
22.9563
6.65662
1.94508
0.598315
0.196678
0.0751895
2256.18
1317.63
737.809
375.269
168.573
63.1274
15.812
3.45591
0.970848
0.301691
0.105922
1346.8
1094.97
764.886
456.204
240.232
107.545
35.9576
7.83413
1.67053
0.482596
0.159604
551.783
1131.5
792.892
505.114
290.342
145.26
58.2942
16.5746
3.31492
0.785284
0.258728
608.243
1016.33
801.412
537.914
326.647
175.746
79.4101
27.4655
6.80313
1.40638
0.421427
676.635
891.531
869.232
592.792
363.356
202.623
98.731
39.1735
11.7782
2.77115
0.724166
619.428
674.259
854.196
660.22
408.299
229.693
116.693
50.8279
17.7693
4.90975
1.28734
566.551
519.804
751.727
736.775
470.641
261.472
134.219
61.8744
24.167
7.71102
2.21463
528.847
441.601
638.057
768.672
542.52
300.197
152.502
72.2359
30.5003
10.9649
3.5125
499.504
388.64
547.837
748.519
612.836
345.423
172.15
81.9451
36.443
14.4253
5.11636
475.25
347.223
480.705
687.8
661.228
392.292
192.676
90.9624
41.8009
17.8745
6.98235
453.726
313.759
427.788
617.781
674.474
431.441
211.176
98.5129
46.2735
21.102
8.99421
438.368
285.616
381.186
549.679
655.122
455.329
224.376
103.735
49.6677
23.9979
11.0879
429.629
261.866
338.208
482.099
605.512
459.346
229.485
105.94
51.9228
26.5452
13.273
431.344
245.355
299.621
413.062
536.869
441.37
224.084
104.625
53.0795
28.8005
15.5924
441.562
234.265
266.241
344.614
439.407
407.137
208.469
99.7349
53.3746
31.0348
18.125
457.914
225.404
233.745
281.181
335.323
342.882
190.863
93.14
53.5196
33.6462
21.1105
484.986
220.618
203.076
222.768
249.568
255.917
176.209
88.1585
54.8252
37.402
25.0178
533.568
224.569
178.764
174.988
183.655
188.295
158.572
93.2898
60.2965
44.0452
30.8423
628.769
246.426
168.206
144.085
141.417
147.655
143.512
110.672
73.1919
54.7929
39.4495
846.215
316.166
199.594
156.58
139.906
137.457
134.231
119.3
85.7279
63.9553
45.6554
1497.03
563.634
418.137
339.123
279.438
244.727
197.433
151.295
107.615
74.3707
48.7915
1087.87
580.989
582.406
418.515
305.286
218.992
151.034
101.408
66.2501
42.3062
26.4203
1136.96
606.072
351.714
217.806
139.922
91.1765
59.2397
37.9842
23.8947
14.7161
8.85958
224.516
125.007
20.2733
4.67203
1.41539
0.709352
0.511103
0.44071
0.411734
0.398942
0.39286
353.292
255.037
33.2919
7.15924
1.81668
0.807977
0.527834
0.432991
0.393538
0.374459
0.363552
440.984
275.161
53.1479
10.1804
2.12688
0.911798
0.548209
0.428423
0.377918
0.351342
0.331344
469.869
259.832
61.9255
12.4809
2.32125
0.998856
0.564171
0.424678
0.364768
0.332029
0.305581
458.996
249.853
66.0805
13.8859
2.50185
1.06274
0.575045
0.421406
0.354162
0.317345
0.288456
427.368
247.294
71.0651
16.1047
2.92387
1.11182
0.585393
0.419543
0.346175
0.306623
0.276974
381.539
249.073
77.798
19.4966
3.81757
1.22443
0.600796
0.41993
0.340858
0.299034
0.268313
327.48
253.306
85.4805
23.7314
5.17286
1.45665
0.646001
0.426355
0.338254
0.294176
0.263073
273.682
258.644
94.5569
28.9324
7.10983
1.89508
0.737193
0.444008
0.34069
0.292366
0.260382
224.508
263.918
106.574
35.8519
9.96118
2.70023
0.92565
0.484519
0.349621
0.293399
0.259816
180.118
269.829
121.056
44.4917
13.8504
4.01128
1.28498
0.571349
0.370554
0.298366
0.261235
142.716
278.113
137.179
54.3906
18.6263
5.87317
1.88543
0.739053
0.414606
0.310108
0.265175
115.503
286.936
155.949
66.173
24.5291
8.41606
2.82722
1.04313
0.503908
0.335579
0.27345
98.8238
293.93
178.066
80.8665
32.0807
11.8819
4.25443
1.56751
0.678112
0.389889
0.290884
93.5562
303.108
203.453
98.4637
41.3254
16.3311
6.25378
2.39389
0.99036
0.499145
0.327904
100.604
311.939
232.165
120.198
53.0385
22.1192
9.009
3.64158
1.51894
0.707688
0.405428
116.911
313.43
261.698
147.577
68.6954
30.0315
12.9015
5.51655
2.38795
1.08961
0.563553
139.505
304.808
285.874
180.032
89.542
41.0231
18.4842
8.33394
3.78786
1.76366
0.873826
161.222
285.002
295.921
214.016
116.701
56.6568
26.8008
12.7101
6.08014
2.94751
1.46856
181.507
258.318
285.515
240.238
148.907
78.6839
39.6269
19.8563
10.0087
5.08765
2.61772
198.436
222.908
252.657
245.643
179.971
108.15
59.725
32.1141
17.1688
9.18825
4.9348
253.882
196.798
216.192
234.654
203.628
144.394
90.7398
53.6914
30.8888
17.5801
9.93807
284.261
166.685
168.888
179.004
174.018
150.073
114.341
79.0211
51.2714
32.1748
19.6373
569.993
630.054
475.149
388.575
302.475
223.232
157.254
107.199
71.8815
47.8282
31.1739
167.196
74.3526
16.3029
3.29906
1.14702
0.657114
0.50777
0.453185
0.432909
0.428323
0.43237
209.489
59.4054
10.4562
3.36893
1.28045
0.709857
0.5315
0.468615
0.447982
0.447376
0.459231
250.419
75.2958
9.9233
3.89159
1.50034
0.806744
0.568466
0.481879
0.451773
0.448202
0.460483
262.011
73.804
9.5364
4.06793
1.51914
0.833894
0.574663
0.476294
0.441567
0.436154
0.448987
258.415
62.8343
9.14994
4.03116
1.51311
0.847069
0.574001
0.468126
0.426936
0.41636
0.424067
251.196
52.5025
8.71646
3.81743
1.45532
0.838483
0.565187
0.458024
0.413177
0.39828
0.399875
244.014
44.7388
8.27915
3.55485
1.38282
0.818759
0.551082
0.44704
0.401248
0.38448
0.382571
236.011
39.0029
7.84498
3.30323
1.31808
0.794923
0.535959
0.436122
0.390683
0.373867
0.37205
230.329
34.798
7.48112
3.10468
1.27486
0.771892
0.52269
0.425969
0.380861
0.364263
0.363631
227.748
31.8883
7.20728
2.95736
1.25194
0.754635
0.512658
0.417096
0.371599
0.354872
0.355879
228.835
30.0686
7.06412
2.87636
1.24808
0.746081
0.506635
0.409881
0.362751
0.344592
0.344594
232.406
28.9439
7.00569
2.84886
1.2617
0.746493
0.504785
0.404578
0.354439
0.333532
0.331366
239.018
28.8398
7.05406
2.87559
1.29685
0.757359
0.508058
0.401745
0.347131
0.322202
0.315952
246.75
31.2146
7.57942
3.02869
1.38512
0.789977
0.522243
0.403888
0.342496
0.312069
0.300822
256.212
34.8685
8.5655
3.32985
1.54166
0.854767
0.553144
0.414392
0.342666
0.304866
0.287482
268.234
40.0341
10.1996
3.865
1.79871
0.971027
0.610415
0.439111
0.350884
0.302784
0.277817
283.711
47.2261
12.7761
4.79344
2.22764
1.17685
0.714745
0.490176
0.374178
0.310157
0.27473
304.619
56.6491
16.5997
6.34821
2.95902
1.54554
0.909225
0.593647
0.428518
0.336913
0.284645
333.78
69.0761
22.1452
8.89744
4.23477
2.22719
1.28803
0.809519
0.552893
0.408486
0.324462
376.257
86.2174
30.328
13.0673
6.50325
3.52946
2.06163
1.28208
0.847407
0.595242
0.444059
442.251
111.422
42.8435
19.9796
10.591
6.07067
3.69301
2.35707
1.57204
1.09447
0.795869
555.151
151.324
63.2606
31.9192
18.1342
11.1011
7.16705
4.82299
3.36394
2.42706
1.81228
777.67
233.989
105.47
56.7805
34.1364
22.063
15.0162
10.6503
7.82951
5.94917
4.66029
1425.57
415.039
212.887
131.61
89.5871
64.0262
47.5433
36.8471
29.5415
24.2324
19.9421
1203.47
548.205
204.194
92.9871
42.4673
18.5304
8.14471
4.03119
2.40714
1.7575
1.50178
1235.28
623.344
302.61
146.292
68.7924
29.5464
10.7345
4.60618
2.51126
1.78389
1.54354
875.078
522.113
320.794
179.734
94.0634
44.4312
17.7988
6.58473
2.77618
1.79881
1.54667
461.778
397.652
294.911
190.513
111.484
58.5107
26.5322
10.4323
3.88719
1.92811
1.50308
193.718
286.266
251.814
185.83
121.141
70.1674
35.5906
15.6232
6.04062
2.49563
1.52469
83.405
202.057
208.558
172.056
123.45
78.3387
43.8709
21.485
9.15731
3.67197
1.77218
63.8295
139.867
169.548
153.069
119.162
81.9726
50.063
27.0366
12.7946
5.43535
2.35289
52.9847
90.0468
133.374
131.693
109.894
80.8982
53.193
31.2454
16.2605
7.51424
3.24947
37.6305
50.4232
95.3995
108.254
97.2399
75.8351
53.0588
33.4746
18.9104
9.50049
4.30917
26.7952
30.2566
61.0428
83.7439
82.3675
67.8474
50.0944
33.597
20.3528
11.0108
5.30244
20.2946
19.9186
36.6309
60.2021
66.3894
58.0182
45.0052
31.8349
20.4623
11.7852
5.99621
15.6581
14.3175
22.9757
39.6524
50.9407
47.5271
38.6416
28.6623
19.3676
11.7358
6.2536
12.1627
10.6331
15.5322
25.5496
36.5729
37.3793
31.8375
24.6688
17.3841
10.9621
6.0481
9.33934
8.00022
10.808
16.8389
24.7811
28.0686
25.1868
20.3476
14.8564
9.65906
5.45948
7.27043
6.1486
7.7124
11.3309
16.425
19.971
19.0741
16.0645
12.1051
8.06854
4.65518
5.86308
4.91402
5.68808
7.78867
10.8519
13.5901
13.7863
12.1448
9.46107
6.47772
3.82423
4.83672
4.08319
4.37133
5.51264
7.22855
9.01027
9.59092
8.90816
7.2567
5.16908
3.14707
4.23322
3.54511
3.52879
4.07857
4.96736
6.04977
6.73497
6.71284
5.86381
4.45651
2.86162
3.94273
3.22768
2.97778
3.20306
3.70291
4.54183
5.47908
6.05578
5.82181
4.80069
3.26758
4.16165
3.30884
2.71825
2.88018
3.42152
4.63029
6.36151
7.74371
8.07264
7.15309
5.16652
7.20002
4.07248
3.01939
3.35994
4.53243
7.47169
10.4122
12.0567
12.3085
11.6031
9.61304
12.1572
5.28525
3.9536
5.50338
9.15391
12.8366
14.0794
13.5644
12.3859
11.2585
10.1344
15.1816
8.25876
11.2639
15.7982
18.3285
17.7434
15.6306
13.0456
10.7388
9.1703
8.33281
74.3588
47.1631
37.5753
29.7737
23.3342
17.9474
13.5928
10.3712
8.26942
7.11942
6.67223
1400.63
353.008
163.63
76.2364
35.0146
16.0702
7.64038
3.98435
2.4124
1.73328
1.43406
1142.33
300.025
144.124
75.253
38.3135
18.8462
9.16445
4.65122
2.64897
1.77854
1.39669
826.131
269.958
136.109
78.1193
44.0669
23.4304
11.7672
5.83546
3.09799
1.90532
1.3951
519.464
195.546
109.3
73.2431
48.1834
28.8431
15.5029
7.73101
3.87627
2.16095
1.43607
307.264
131.108
81.5865
60.8046
46.9894
33.6963
20.8075
11.0738
5.42872
2.74361
1.61221
169.344
81.7192
57.7635
47.6789
41.3806
34.2377
24.8534
15.3132
8.21745
4.11029
2.12183
87.8319
48.118
38.7286
35.6582
34.6503
32.2575
26.3008
17.9454
10.3811
5.39532
2.74848
45.2235
27.5435
25.1417
25.774
27.91
29.0113
26.3863
19.8788
12.4362
6.79439
3.5022
26.5251
16.9067
16.8887
18.8354
22.0976
25.2512
25.4191
21.0715
14.2607
8.25751
4.43146
19.4237
12.4003
12.7406
14.7865
17.9716
21.652
23.7187
21.5948
15.7649
9.63802
5.35211
17.0514
10.9628
11.062
12.7696
15.3988
18.8138
21.6298
21.36
16.9961
10.9034
6.29181
16.558
10.8671
10.5983
11.8608
13.862
16.7202
19.6088
20.4441
17.524
12.1322
7.20548
16.9218
11.3132
10.6277
11.4388
12.8658
15.1008
17.7239
19.1457
17.394
12.8503
8.11817
17.6834
11.9747
10.8576
11.2168
12.0928
13.6926
15.8851
17.5611
16.7605
13.1061
8.71134
18.7188
12.7202
11.1925
11.0947
11.4172
12.3731
14.042
15.7452
15.7199
12.9551
9.0171
20.0431
13.5304
11.6156
11.0471
10.8178
11.1376
12.2356
13.7934
14.3675
12.4602
9.10377
21.7712
14.4462
12.1633
11.118
10.3559
10.0747
10.598
11.8667
12.8112
11.7005
8.9709
24.2541
15.5693
12.9515
11.4333
10.1489
9.29819
9.27076
10.1467
11.1874
10.7376
8.7542
28.1107
17.1384
14.1575
12.1426
10.3113
8.88687
8.32558
8.75268
9.62969
9.64338
8.33659
33.8311
19.3733
15.9238
13.3689
10.9388
8.89396
7.78519
7.74318
8.29431
8.49507
7.7311
41.3997
22.4493
18.3643
15.1915
12.0499
9.32109
7.64037
7.12237
7.29614
7.44482
7.05902
54.2036
27.0713
22.0517
17.5225
13.4268
10.028
7.81663
6.8432
6.65262
6.63972
6.40704
70.504
39.3298
26.8372
19.715
14.5821
10.7716
8.20599
6.85825
6.3503
6.16905
6.01841
215.656
50.0032
31.0027
20.6826
15.3191
11.533
8.82781
7.22168
6.43172
6.09039
6.00332
58.3729
68.9198
77.0194
82.3353
78.7316
79.9064
78.2433
73.0994
64.2801
23.1108
23.971
25.238
26.1707
25.6253
24.4216
23.557
22.5736
21.9391
12.859
12.4342
13.2104
13.9978
13.9973
13.2009
12.3661
11.5033
11.6479
7.58451
7.13464
7.6272
8.03467
8.01692
7.4868
7.01812
6.5731
6.89057
44.9896
27.7054
7.46619
3.85906
3.23571
2.79296
11.6257
34.5092
52.2645
22.189
18.6771
11.1572
3.05717
1.98971
4.32298
12.0851
19.298
22.1099
14.6152
14.8867
10.8285
3.3941
2.14415
4.71691
10.5339
14.0924
13.502
9.20126
10.7616
9.39967
3.66204
2.28261
4.45848
8.45789
9.90518
8.36914
0.00901816
0.00829372
0.0083469
0.00545871
0.468336
0.00755455
0.131829
0.00809156
0.00753042
0.0069473
0.470397
0.00812874
0.0102749
0.00517968
0.0146144
0.00728517
0.00612345
0.00537304
0.00724895
0.00710237
0.00663911
0.0625754
0.0085222
0.121522
0.00792328
0.00511796
0.00987776
0.123235
1.33982
0.385056
0.00729116
0.00643843
0.00709167
0.00806656
0.00680645
0.00826376
0.111012
0.00790696
0.00799467
0.00758305
0.195109
0.00809821
0.0395082
0.00849762
0.744876
0.236388
0.0184959
0.334801
0.00692767
0.00735554
0.390334
0.00760088
0.070821
0.0401036
0.00734015
0.00666629
0.0592055
0.00762075
1.3622
0.0160852
0.102071
0.0548709
0.507517
0.0346218
0.207516
0.00714109
0.377235
0.00716672
0.0082961
0.00693286
0.00515261
0.00722699
0.0148643
0.00809902
0.0113415
0.00715378
0.0781243
0.00828093
0.0564748
1.07848
0.273429
0.0261263
0.00793261
0.00838099
0.00697727
0.0148901
2.15329
0.0346749
0.0200385
0.109535
0.00809312
0.0076545
0.203962
0.00742282
1.02159
0.601867
0.00668899
0.00595391
0.0252784
0.00742104
0.00786915
0.312386
0.00680639
0.00616703
0.014837
0.00812297
0.00461448
0.00845318
0.0150664
0.00669663
0.00796739
0.00815027
0.00724448
0.00646364
0.0216586
0.00769157
0.0075427
0.00732249
0.00792736
0.00673721
0.00693247
0.00783821
0.00991587
0.0050555
0.221512
0.00706416
0.31131
0.00473934
0.00646742
0.00932976
0.0077806
0.0163403
0.31673
0.00716488
0.00834134
0.00809978
0.0659612
0.0157992
0.409177
0.00733252
0.0417959
0.00660481
0.217931
0.00867946
0.00751638
0.0251413
0.0156458
0.00717664
0.00715335
0.00706141
0.00716313
0.00766396
0.0278473
0.00782974
0.00606876
0.0200811
0.0195923
0.0424131
0.00544849
0.00747544
0.00549416
0.0337646
0.00721527
0.00772078
0.38488
0.0264688
0.0206089
0.00708827
0.00680675
0.201583
0.00587734
0.00543786
0.00832388
0.00645913
0.00642593
0.00641923
0.00578461
0.0293051
0.760719
0.00696072
0.00717252
0.0704946
0.0084969
0.118085
0.00794213
0.0123318
0.00707369
0.00727185
0.00824859
0.0809451
0.0141064
0.00531109
0.00718738
0.188389
0.00832388
0.00760909
0.00744124
0.0261461
0.0100582
0.00856745
0.0263938
0.00733393
0.013502
0.00791977
0.00838652
0.0360043
0.00738444
0.00643101
0.00741028
0.00740786
0.12788
0.00759215
0.00827302
0.00673551
0.00791208
0.0175161
0.00797864
0.0245661
0.00714273
0.0111254
0.0107095
0.00654119
0.00672327
0.0218658
0.00484286
0.00763681
0.0781484
0.0243041
0.0123555
0.150859
0.0419959
0.0071348
0.00713506
0.00779837
0.0280657
1.73378
0.338095
0.00845028
0.00814635
0.00810325
0.0246407
0.0319639
0.00613643
0.162716
0.0081246
0.040493
0.0080048
0.00827277
0.455979
0.346297
0.00821669
0.13044
0.0101585
0.0072676
0.00602902
0.00747122
0.00673103
0.0078595
0.0193593
0.00704861
0.00833948
0.00977769
0.00738192
0.00819846
0.00796107
0.0166575
0.00659953
0.00767565
0.017653
0.00694337
0.212736
0.0073113
0.00730988
0.017467
0.00756578
0.00736548
0.00538844
0.00776211
0.00691594
0.0184011
0.00733075
0.00828986
0.27666
0.314114
0.00603905
0.00759291
1.44589
0.00824977
0.00683481
0.0414878
0.00835091
0.11654
0.00727931
0.00954655
0.00856474
0.00743792
0.00670081
0.00816411
0.00681421
0.00539551
0.00775663
0.0090498
0.00709247
0.393775
0.00676735
0.00668941
0.00828403
0.073298
0.0673639
0.00744252
0.0889914
0.00816912
0.00646332
0.00686429
0.0852477
0.00655576
0.00711338
0.0145797
0.00671282
0.0077851
0.00707264
0.199226
0.00746431
0.00538162
0.0237296
0.00684203
0.00778235
0.00596289
0.00709025
0.139207
0.00712077
0.52121
0.0733669
0.00846598
0.0114885
0.68547
0.0163781
0.00824154
0.00785048
0.0058847
0.0284302
0.124803
0.00729657
0.026573
0.193693
0.0746523
0.0226384
0.00753664
0.093681
0.349925
0.117276
0.00582288
0.00700549
0.00682276
0.0132235
0.00860274
0.0113752
0.00695934
0.00850176
0.188517
0.00986596
0.00536243
0.00800497
0.00798794
0.00729069
0.0194918
0.00511834
0.0159774
0.149436
0.00836327
0.00774003
0.110531
0.55967
0.00476632
0.0119807
0.0083206
0.00904954
0.00676401
0.00752584
0.00708536
0.239678
0.00755973
0.0245157
0.00765926
0.00527098
0.331996
0.00846398
0.00480594
0.0305882
0.0227233
0.00769807
0.0539746
0.00467232
0.00801715
0.350876
0.214265
0.00787037
0.00720701
0.00836806
0.0345789
0.0190955
0.0076476
0.00850697
0.0429467
0.00774263
0.214226
0.0531798
0.0318088
0.00732606
0.197164
0.00693996
0.00720071
0.0110675
0.0105048
0.0302904
0.00640306
0.0143024
0.0085606
0.0048452
0.0416515
0.292939
0.00615343
0.160839
0.0133866
0.00628855
0.00666228
0.00800357
0.0281861
0.0108597
0.213085
0.00789662
0.0243492
0.0050989
0.00663388
0.00712328
0.0143873
0.199488
0.415698
0.00510871
0.00860032
0.00597026
2.12931
0.00513777
0.00873107
0.00683161
0.0246879
0.0158256
0.0432988
0.00741883
0.0352753
0.00773737
0.00833599
0.00793895
0.0307414
0.0182883
0.164784
0.00583838
0.0282023
0.0265642
0.00825533
0.0074028
0.328968
0.00505361
0.00600246
0.00690545
0.14492
0.115789
0.0902244
0.0916648
0.00714694
0.00657876
0.0165718
0.0069785
0.101741
0.00686323
0.00823805
0.0073449
0.0347647
0.0328221
0.00710028
0.00778265
0.00668841
0.0942185
0.0732962
0.00845586
0.0241174
0.239238
0.00940978
0.0160762
0.00741
0.0284917
0.00760115
0.00686229
0.00762219
0.00806875
0.00642344
0.0071535
0.00536448
0.00853336
0.00764691
0.00566291
0.00592799
0.00806987
0.00806394
0.505682
0.0204767
0.0132278
0.00711622
0.282943
0.0083578
0.276763
0.0162759
0.0242749
0.0219357
0.00801417
0.338623
0.0313152
0.00533489
0.0077847
0.00634861
0.00667755
0.00828388
0.00769424
0.0081885
0.00678461
0.232873
0.0079912
0.00745563
0.085815
0.00772966
0.183135
0.00659427
0.0572299
0.00560102
0.0196716
0.00856454
0.00786461
0.00841757
0.182064
0.0338176
0.00795064
0.00791076
0.00503252
0.00835046
0.00586001
0.00831507
0.203839
0.00681806
0.0457391
0.00852498
0.00758532
0.255352
0.289045
0.006797
0.0065846
0.00711457
0.0083108
0.0143558
0.0409494
0.00721188
0.00884691
0.484089
0.888068
0.00791794
0.00735629
0.00828394
0.0159997
0.3516
0.0191769
0.0080858
0.00752181
0.313575
0.00726361
0.00862881
0.00700604
0.039658
0.35512
0.00771163
0.0205953
0.0078214
0.0323679
0.00738925
0.0111785
0.00604226
0.00643839
0.0894871
0.0365695
0.00842577
0.00854821
0.976497
0.00763931
0.00615758
0.00916025
0.0326946
0.013742
0.0283125
0.00756993
0.00692856
0.0077313
0.00790571
0.498306
0.0156184
0.0120994
0.00711068
0.00794849
0.0429032
0.00702129
0.00766221
0.00687188
0.00713743
0.00832653
0.0153164
0.0322595
0.0181322
0.00621749
0.0109716
0.00724446
0.0593764
0.00711864
0.00778498
0.471575
0.181062
0.00755312
0.00757642
0.0644818
0.00676524
0.00738396
0.019462
0.00831708
0.00675705
0.0100889
0.00917166
0.00828356
0.00490328
0.00568562
0.037961
0.130898
0.0359697
0.0332286
0.0062633
0.0208609
0.0275439
0.00850085
0.00836461
0.00679831
0.024624
0.00607541
0.00695596
0.00720609
0.00512329
0.0414835
0.435836
0.0060843
0.00864279
0.00769108
0.0135349
0.00811874
0.00724146
0.00693423
0.0131907
0.00703993
0.00712462
0.00684912
0.00826186
0.0116305
0.0558919
0.146986
0.00711499
0.00697685
0.00754974
0.0515252
0.00765859
0.127154
0.00721664
0.0160288
0.167352
0.00770796
0.0177301
0.00849794
0.00689205
0.017281
0.00843046
0.413031
0.00556394
0.00667702
0.00841756
0.0125172
0.00508098
0.031927
0.318665
0.00750923
0.00642188
0.00840402
0.00784363
0.00690712
0.0211791
0.00813508
0.00761689
0.00762287
0.00994666
0.0276005
0.00816114
0.00760675
0.00751134
0.0228436
0.00547846
0.00648573
0.0111546
0.142711
0.00945338
0.00633227
0.0062768
0.00840995
0.0398502
0.00646399
0.142912
0.00783848
0.00682126
0.00790809
0.00709383
0.0830328
0.00897262
0.0299704
0.00516481
0.00727364
0.00675072
0.00671076
0.0269136
0.00823678
0.305051
0.0400779
0.196697
0.0066451
0.0102553
0.0306519
0.0137328
0.00770075
0.00877919
0.0336302
0.0122195
0.0080297
0.00538897
0.469546
0.00811506
0.174618
0.00921728
0.00839638
0.0152239
0.00754816
0.00686854
0.00681733
0.00774367
0.00735468
0.00478688
0.00819264
0.00692888
0.00714978
0.00921741
0.0202077
0.154554
0.0143504
0.00723191
0.173294
0.233967
0.00782105
0.00483147
0.0071087
0.0281168
0.0101226
0.0439602
0.00713616
0.0213129
0.00857254
0.00889524
0.00721263
0.00694926
0.00765746
0.013651
0.0570243
0.00860622
0.00789036
0.00742576
0.251863
0.201885
0.00753037
0.00820398
0.00699411
0.00752641
0.00813807
0.00821583
0.0083809
0.00787564
0.00774715
0.00561863
0.0504254
0.0909279
0.00481548
0.00735896
0.00770657
0.00793111
0.0067159
0.225316
0.00827615
0.00633252
0.00757518
0.269159
0.130652
0.0430806
0.00779379
0.0168192
0.00771879
0.00781657
0.211761
0.00714989
0.00816485
0.00724771
0.0388119
0.00602764
0.00593739
0.00813913
0.010597
0.169023
0.0198089
0.00815955
0.00471739
0.0342318
0.0276129
0.019785
0.00843018
0.00718991
0.00523515
0.0138338
0.0256597
0.00829314
0.00685407
0.00821358
0.00737309
0.00825557
0.00843499
0.00624929
0.172868
0.223095
0.0416518
0.00810327
0.465219
0.00853295
0.00720465
0.00978879
0.00789436
0.0076605
0.00766446
0.0141934
0.0395666
0.0202095
0.0076505
0.0115535
0.00768931
0.0085979
0.00736522
0.00756294
0.00723793
0.00792667
0.00814935
0.00731297
1.79601
0.00754491
0.00712748
0.00826898
0.154651
0.00712222
0.0079658
0.0185115
1.63056
0.00695809
0.00775912
0.0109694
0.013329
0.00846866
0.00808521
0.00683192
0.00860349
0.0599222
0.00828366
0.084252
0.00961558
0.133099
0.00808186
0.00821449
0.00622669
0.028853
0.0077495
0.00775088
0.00715113
0.00831746
0.00592368
0.195997
0.00662226
0.027236
0.251336
0.0284518
0.00605094
0.0406193
0.00851237
0.00814402
0.00511355
0.00839548
0.00610544
0.00760318
0.285803
0.00725206
0.0105971
0.00730921
0.00463436
0.00535534
0.0193952
0.00792208
0.00694129
0.00804213
0.274156
0.0637579
0.330899
0.00665363
0.00995209
0.00695824
0.00776812
0.291861
0.00753848
0.00830515
0.00609766
0.205577
0.0320525
0.0397514
0.00705418
0.00533703
0.0186815
0.630507
0.00801519
0.00704811
0.346982
0.0076062
0.0215194
0.00791995
0.087582
0.00825371
0.0290326
0.00830383
0.00729682
0.00845375
0.00763192
0.0142934
0.00655293
0.00710391
0.00780624
0.00730302
0.00978758
0.00887072
0.0384455
0.00751303
0.00687543
0.214229
0.0232881
0.04434
0.0083253
0.0400089
0.00735829
0.00829044
0.0266167
0.00646711
0.0367388
0.35921
0.00610353
0.0133162
0.00653671
0.00741865
0.0176522
0.0168034
0.0069978
0.0474762
0.00813346
1.60202
0.0385065
0.617373
0.00812846
0.0209223
0.0115842
0.310842
0.00770111
0.00537945
0.00855555
0.00463549
0.115991
0.00815716
0.00890658
0.010088
0.028101
0.220586
0.00817576
0.00778191
0.00736153
0.0444018
0.00685638
0.197677
0.0110889
0.0560516
0.350119
0.0082904
0.0159377
0.0319662
0.0295561
0.0859003
0.024687
0.00758017
0.0114282
0.00492547
0.00809942
0.00784513
0.00856464
0.00891564
0.00661201
0.00832799
0.00557165
0.0441845
0.00485446
0.00802175
0.106325
0.0146076
0.00689327
0.0108585
0.00813723
0.00708786
0.0073451
0.204766
0.00701021
0.0175187
0.00616846
0.0243993
0.00796283
0.00694803
0.00795993
0.00753452
0.0181471
0.0389475
0.0443657
0.651789
0.209391
0.651625
0.00687916
0.00731054
0.00932372
0.00838875
0.00586212
0.0358498
0.00691019
0.11054
0.00610017
0.150967
0.00683767
0.00494879
0.00811816
0.297887
0.00862594
0.478591
0.00659507
0.0083143
0.0447386
0.0596979
0.00677897
0.0265331
0.0344629
0.0654948
0.128708
0.0199433
0.22442
0.00924182
0.00714681
0.240569
0.0190684
0.00833223
0.00626566
0.00801269
0.00504126
0.00528955
0.00973599
0.0077342
0.016692
0.641775
0.00752706
0.00718994
0.0069336
0.0081917
0.00976428
0.0054211
0.00702394
0.00558401
0.379207
0.00712745
0.637678
0.0714758
0.00772701
0.15603
0.0518205
0.0176752
0.00666909
0.131267
0.00768935
0.00803765
0.349712
0.00752103
0.00824569
0.00580412
0.00809699
0.00764419
0.162892
0.00786259
0.547986
0.0134489
0.0195675
0.00722924
0.0123995
0.03054
0.00618853
0.227433
0.00776525
0.0111731
0.0285264
0.00709274
0.0156877
0.0304123
0.0219411
0.00747207
0.032329
0.0740923
0.00644908
0.00733472
0.0277108
0.0069504
0.0190379
0.0241919
0.358416
0.00712035
0.00860295
0.00796853
0.00624938
0.00821096
0.00477592
0.0382097
1.32676
0.00811195
0.0240184
0.0280451
0.00820715
0.0347012
0.00709259
0.00695751
1.19402
0.04671
0.30163
0.164276
0.00816142
0.00792939
0.0220265
0.22161
0.195241
0.240759
0.00494066
0.00817624
0.00717079
0.00625768
0.220181
0.0478
0.0086757
0.0073983
0.0279861
0.0245604
0.0356732
0.00678155
0.093569
0.2175
0.00638893
0.00559297
0.00727403
0.00719575
0.21529
0.00541445
0.00852458
0.0151227
0.00777214
0.00638724
0.364622
0.00884939
0.0105583
0.0329536
0.00827288
0.00751807
0.195063
0.0192318
0.00836144
0.00455622
0.0188174
0.00661346
0.335329
0.00806541
0.00768989
0.00704654
0.153061
0.00613795
0.00746069
0.0317429
0.00833776
0.00814777
0.00859551
0.00533467
0.00770631
0.03596
0.0186107
0.00814564
0.460522
0.0347574
0.00826326
0.0314692
0.00752605
0.00518975
0.0324431
0.00802099
0.00816471
0.00788314
0.00736523
0.00793582
0.00718528
0.00803291
0.0527353
0.0361641
0.00610183
0.0489698
0.00691981
0.0199603
0.0185315
0.00855541
0.00665881
0.0158942
0.0048728
0.0067488
0.00589484
0.00666597
0.00684931
0.00795054
0.0382142
0.157541
0.0240715
0.100248
0.00859361
0.0125267
0.343582
0.0164557
0.0127082
0.00760044
0.0336966
0.0181298
0.159042
0.00478108
0.0193708
0.0326718
0.00652417
0.00795393
0.901028
0.0048353
0.0067416
0.0290549
0.0278693
0.0058429
0.0119709
0.0141906
0.0046186
0.5889
0.5125
0.00789869
0.00715661
0.0158987
0.0409979
0.0104509
0.00811516
0.00694071
0.00839073
0.00752471
0.0825629
0.00761828
0.00846328
0.135657
0.00844171
0.00733444
0.00770398
0.0075742
0.0067334
0.00858126
0.00727228
0.00938738
0.00704348
0.00879296
0.00803809
0.0309508
0.0081889
0.0183673
0.00770321
0.0209439
0.00838812
0.00768104
0.0580594
0.237955
0.00705259
0.00780606
0.00766525
0.0211058
0.00826495
0.00900206
0.0083271
0.00742227
0.00622445
0.00729422
0.0310861
0.00512653
0.0608916
0.00848526
0.00856808
0.00788618
0.00669611
0.0089337
0.00839973
0.00801911
0.154531
0.00760737
0.0163923
0.00790049
0.00799711
0.484358
0.00845232
0.00855342
0.145171
0.20431
0.0143227
0.00756089
0.0199041
0.00788874
0.014102
0.0115055
0.0104444
0.00740932
0.00628879
0.0244862
0.00763528
0.0321275
0.00699393
0.0153476
0.026662
0.00821768
0.0123385
0.00767577
0.145604
0.0150059
0.00498258
0.0306987
0.00642805
0.00597531
0.00840158
0.0104309
0.0300783
0.0075262
0.00811354
0.0396577
0.00684491
0.006823
0.00690789
0.00547276
0.00789575
0.0283967
0.0301242
0.00687164
0.0177841
0.00798078
0.00719435
0.00702518
1.15021
0.00981457
0.00749307
0.161987
0.0321516
0.00820809
0.00706186
0.0289714
0.0105771
0.00661937
0.00727626
0.0152553
0.0402236
0.00754699
0.00693717
0.0748564
0.00715351
0.00830176
0.00736596
0.00693756
0.00799628
0.024791
0.00764441
0.0324912
0.00636667
0.0134085
0.00813117
0.0050299
0.0278067
0.00691058
0.0203784
0.00765701
0.00735311
0.0394688
0.013655
0.00560207
0.00845748
0.00742809
0.230947
0.00759695
0.00696097
1.74138
0.00673901
0.00708827
0.00696381
0.00697224
0.00647457
0.00632102
0.015664
0.00515341
0.0161563
0.00708427
0.00759175
0.0154825
0.00454127
0.00748386
0.00646432
0.00563903
0.00730947
0.270603
0.00855786
0.0266317
0.00749045
0.00689444
0.00585194
0.00728236
0.0124377
0.00795511
0.00721345
0.00673169
0.00756701
0.00837734
0.0340658
0.0231289
0.010867
0.0105879
0.0385874
0.00675156
0.00756908
0.00746859
0.212409
0.00727341
0.00663424
0.333904
0.00688798
0.219746
0.155392
0.00685823
0.00810014
0.00714342
0.00537224
0.00493498
0.00682863
0.00795089
0.0221909
0.0368886
0.00474644
0.034956
0.00780824
0.0718155
0.0120544
0.941094
0.0107953
0.0116869
0.00495959
0.00828597
0.00690139
0.0247891
0.00790247
0.011038
0.00530642
0.0125655
0.00523293
0.0606651
0.0161308
0.026478
0.261935
0.00780277
0.35007
0.00980294
0.0064868
0.00603634
0.00872396
0.00840445
0.597327
0.0078134
0.259395
0.31175
0.005071
0.0903995
0.0252263
0.286941
0.00739972
0.00791825
0.00741751
0.00726494
0.00766024
0.00621767
0.00699558
0.0223706
0.00778826
0.207087
0.0161488
0.00764144
0.00818064