/*--------------------------------*- C++ -*----------------------------------*\
| =========                 |                                                 |
| \\      /  F ield         | OpenFOAM: The Open Source CFD Toolbox           |
|  \\    /   O peration     | Version:  3.0.1                                 |
|   \\  /    A nd           | Web:      www.OpenFOAM.org                      |
|    \\/     M anipulation  |                                                 |
\*---------------------------------------------------------------------------*/
FoamFile
{
    version     2.0;
    format      ascii;
    class       volScalarField;
    location    "0.86874";
    object      k;
}
// * * * * * * * * * * * * * * * * * * * * * * * * * * * * * * * * * * * * * //

dimensions      [0 2 -2 0 0 0 0];

internalField   nonuniform List<scalar> 
21246
(
1.11089
1.57958
1.18698
0.787528
0.478065
0.27747
0.158745
0.0901573
0.0509286
0.0289022
0.0170275
0.781184
1.11997
0.977683
0.700629
0.44999
0.272442
0.159368
0.0910219
0.0511587
0.0287139
0.0167414
0.54864
0.929227
0.86948
0.67821
0.461022
0.287997
0.171268
0.0983368
0.0550764
0.0306917
0.0177487
0.445956
0.768058
0.780553
0.659123
0.474721
0.307161
0.186856
0.109033
0.0615297
0.0341174
0.0194628
0.379753
0.623102
0.652106
0.588353
0.45498
0.311505
0.195667
0.115622
0.0651753
0.0355609
0.0197368
0.345107
0.537975
0.565837
0.517156
0.410147
0.289704
0.186721
0.112794
0.0650875
0.0365486
0.0209121
0.321908
0.47719
0.502184
0.460165
0.367934
0.26356
0.173589
0.107693
0.0638091
0.0366041
0.0211572
0.305498
0.430989
0.451717
0.412737
0.330992
0.239188
0.159973
0.101334
0.0614865
0.0361879
0.0218072
0.293023
0.394315
0.410919
0.373856
0.299854
0.217852
0.147414
0.0950676
0.0590256
0.0356147
0.0218912
0.282558
0.363899
0.377559
0.342529
0.274731
0.200396
0.136846
0.0895564
0.0566701
0.0348441
0.021542
0.273636
0.338153
0.349922
0.31715
0.254617
0.186428
0.128286
0.0849493
0.0545462
0.0340204
0.0215047
0.266493
0.316479
0.326833
0.296224
0.238272
0.175212
0.121442
0.0812513
0.0528349
0.0334063
0.0214324
0.260822
0.297981
0.307533
0.279173
0.225299
0.166528
0.116263
0.0785338
0.0516704
0.0330874
0.0214111
0.25616
0.28191
0.291397
0.26564
0.215531
0.16032
0.112769
0.0768542
0.051076
0.0330182
0.0216143
0.252671
0.268048
0.277748
0.254752
0.208249
0.156154
0.110754
0.0761477
0.0510626
0.0332423
0.0217867
0.250404
0.255844
0.266232
0.246292
0.203369
0.154045
0.110294
0.0765034
0.0517149
0.0338354
0.022178
0.249381
0.244773
0.256494
0.240161
0.201028
0.154239
0.111627
0.0781138
0.0531844
0.0348886
0.0228312
0.24956
0.234864
0.24759
0.235379
0.200797
0.156854
0.115089
0.0812252
0.0556465
0.0365599
0.0239058
0.25109
0.225808
0.239163
0.23114
0.201676
0.16113
0.12034
0.085959
0.0593607
0.0392082
0.0256234
0.254356
0.21729
0.230891
0.227116
0.203309
0.166819
0.127367
0.0923614
0.0644648
0.0430605
0.0282284
0.260072
0.209165
0.222322
0.222728
0.204943
0.173274
0.135942
0.100713
0.0715001
0.0486689
0.032308
0.270119
0.200856
0.2132
0.216997
0.205223
0.179204
0.145374
0.111139
0.0811984
0.0569776
0.0388111
0.283844
0.192268
0.201615
0.20968
0.203721
0.183812
0.154973
0.123537
0.0941857
0.0691013
0.049127
0.299565
0.193759
0.204087
0.202572
0.198046
0.184121
0.162259
0.136259
0.109835
0.0854266
0.0644785
1.07876
1.66825
1.27825
0.942195
0.62582
0.367552
0.204694
0.111558
0.0609521
0.0337896
0.0196476
0.9408
1.28349
1.20754
0.991666
0.739149
0.485134
0.275228
0.150957
0.0816077
0.0438137
0.0242125
0.660834
0.972123
1.06262
0.958862
0.774752
0.555404
0.34612
0.19665
0.109546
0.0581454
0.0311518
0.389164
1.01524
1.00474
0.920521
0.776711
0.590582
0.396395
0.241076
0.141182
0.0773449
0.0422632
0.448637
1.10164
1.04083
0.918697
0.776759
0.608656
0.430295
0.277258
0.171992
0.10047
0.0570705
0.514991
1.35168
1.28824
1.02141
0.80928
0.62713
0.454952
0.306313
0.19868
0.124189
0.0757584
0.514129
1.27225
1.5266
1.22357
0.89703
0.661241
0.477556
0.32995
0.221792
0.145672
0.0941084
0.510145
1.18874
1.6938
1.53379
1.06876
0.727703
0.50551
0.350329
0.241449
0.164991
0.112395
0.507966
1.14007
1.68618
1.80582
1.30953
0.836136
0.545658
0.370297
0.258231
0.182242
0.129551
0.505055
1.10445
1.64825
1.99688
1.59107
0.987772
0.602196
0.39233
0.273017
0.197577
0.145106
0.500064
1.07011
1.60349
2.05521
1.84961
1.16938
0.674937
0.417862
0.286727
0.211253
0.159732
0.493092
1.02919
1.54608
2.0228
2.02425
1.3497
0.754934
0.445245
0.299569
0.223554
0.173184
0.486468
0.988037
1.47531
1.9462
2.1011
1.498
0.829431
0.471226
0.311492
0.234995
0.185917
0.481149
0.943506
1.38839
1.83119
2.07664
1.59048
0.885252
0.49207
0.322382
0.246171
0.198805
0.479829
0.900532
1.28998
1.67654
1.96103
1.60996
0.909177
0.504041
0.332227
0.257856
0.212722
0.480556
0.863381
1.19032
1.49116
1.73508
1.56447
0.896534
0.504741
0.341702
0.27182
0.228331
0.480865
0.825099
1.08395
1.29958
1.45345
1.41274
0.871486
0.499623
0.35374
0.290502
0.24747
0.482126
0.788833
0.975094
1.10779
1.19035
1.16523
0.852117
0.502466
0.375038
0.318576
0.273472
0.488174
0.763547
0.878304
0.937794
0.968699
0.956809
0.818432
0.552221
0.422309
0.366733
0.31294
0.507162
0.764998
0.816606
0.816741
0.81788
0.829196
0.796681
0.661443
0.513763
0.441425
0.370385
0.559705
0.846494
0.8679
0.82497
0.790378
0.785776
0.774013
0.718427
0.583165
0.482865
0.381221
0.709789
1.15665
1.19866
1.11848
0.981862
0.845825
0.69091
0.563579
0.441341
0.340853
0.25368
0.46363
0.873667
0.947003
0.739819
0.565887
0.442602
0.345953
0.27161
0.212434
0.165027
0.126704
0.334982
0.269242
0.232914
0.211288
0.197873
0.185874
0.171199
0.152597
0.130921
0.108119
0.0861026
0.257808
0.283566
0.107706
0.0504546
0.0252886
0.0160439
0.0125913
0.0111157
0.0103684
0.009929
0.00964061
0.3017
0.418024
0.124396
0.0648638
0.0296035
0.0174381
0.0127769
0.0108622
0.00991677
0.00937054
0.00902247
0.341729
0.418117
0.15109
0.0770602
0.0327817
0.0189745
0.013113
0.0107451
0.00958641
0.00891153
0.00843936
0.369173
0.390617
0.163859
0.0832868
0.0346618
0.0203215
0.0134373
0.0106962
0.00934572
0.00855771
0.0079969
0.381502
0.376265
0.170578
0.0855022
0.036361
0.0213964
0.0137252
0.0106944
0.00917954
0.00829928
0.00768382
0.380113
0.373876
0.178215
0.0887484
0.0390534
0.0223141
0.0140488
0.0107513
0.00908492
0.0081246
0.00746773
0.367036
0.379814
0.188551
0.0941864
0.0429485
0.0236994
0.0144986
0.0108814
0.0090634
0.00802339
0.0073133
0.344597
0.392613
0.201362
0.101525
0.0476543
0.0255497
0.0153553
0.0111584
0.00911851
0.00799286
0.00723178
0.316011
0.410193
0.217724
0.11111
0.0534429
0.0281015
0.0165787
0.0116334
0.00930364
0.0080498
0.00721992
0.284182
0.429729
0.240076
0.124387
0.0611044
0.0317584
0.0183295
0.0123771
0.00962859
0.00819226
0.00728069
0.250789
0.452524
0.268624
0.141804
0.0709918
0.0367434
0.0207575
0.0134772
0.0101348
0.00843698
0.00741426
0.218626
0.481981
0.303257
0.163218
0.0830445
0.0430848
0.0239625
0.0150149
0.0108725
0.00880976
0.00763045
0.192021
0.515737
0.346204
0.190434
0.0982245
0.0512155
0.0282038
0.0171457
0.0119305
0.00935701
0.00795013
0.173974
0.550571
0.399559
0.226286
0.118275
0.0619938
0.0339297
0.020122
0.0134534
0.010158
0.00841275
0.167475
0.594114
0.465254
0.272226
0.144143
0.0759614
0.0414859
0.0241874
0.0156118
0.01132
0.00908082
0.174229
0.643711
0.545325
0.332491
0.178756
0.0946876
0.051697
0.0298109
0.0186978
0.0130244
0.010059
0.189624
0.686366
0.636579
0.412525
0.227273
0.12125
0.0662131
0.0378929
0.0232362
0.0155888
0.0115392
0.207873
0.713936
0.727515
0.513744
0.295125
0.159763
0.0875611
0.0499228
0.0301222
0.0195669
0.0138679
0.220217
0.717507
0.797284
0.629635
0.388009
0.216866
0.120413
0.0688422
0.0411626
0.0260759
0.0177361
0.225535
0.695378
0.824308
0.737047
0.505077
0.300656
0.172762
0.100432
0.0601513
0.0375297
0.0246713
0.22149
0.635478
0.792609
0.799012
0.629854
0.417301
0.257035
0.155793
0.0952358
0.0594611
0.0383028
0.233756
0.575054
0.730652
0.808813
0.734058
0.561349
0.38674
0.253315
0.162711
0.10445
0.0676215
0.214595
0.464362
0.557599
0.638008
0.651762
0.596554
0.490072
0.369831
0.264272
0.183676
0.125324
0.266477
0.594119
0.599848
0.625756
0.6132
0.567722
0.495417
0.408145
0.322458
0.247834
0.184881
0.200501
0.207702
0.0937537
0.0412761
0.022447
0.0155136
0.0127944
0.0115914
0.0109935
0.0106797
0.0105254
0.192947
0.174871
0.077579
0.0435112
0.0248436
0.0169297
0.0137201
0.0123494
0.0117319
0.0114771
0.0114396
0.215658
0.193888
0.0751157
0.0505198
0.0293423
0.0195987
0.0152579
0.0133722
0.0125403
0.0122214
0.0121986
0.236661
0.187314
0.0731152
0.0535724
0.0312002
0.0215654
0.0167742
0.0145814
0.0135997
0.0131922
0.0131165
0.253109
0.166874
0.072
0.054575
0.0323483
0.0228946
0.0177743
0.0154168
0.0143477
0.0139295
0.0138825
0.265974
0.148012
0.0708738
0.0537412
0.0325328
0.0236823
0.0185099
0.0161739
0.0151449
0.0148173
0.014882
0.276614
0.133642
0.0695938
0.0522044
0.0323173
0.0241492
0.0190435
0.0168499
0.015954
0.0158267
0.0161612
0.284868
0.122855
0.0681451
0.0505813
0.0320833
0.0244346
0.0194549
0.0174127
0.0166357
0.0166586
0.0171514
0.292212
0.114795
0.0668688
0.0493223
0.0320886
0.0246444
0.0198148
0.0178766
0.0171819
0.0173332
0.0180631
0.299537
0.109072
0.0659503
0.0484546
0.0323443
0.0248964
0.0201696
0.0182656
0.0175988
0.0178215
0.0187193
0.307574
0.105338
0.0655691
0.0481633
0.0328458
0.0252703
0.0205533
0.018605
0.0178975
0.0180951
0.0189459
0.316064
0.102876
0.0655175
0.0483426
0.0335832
0.0257904
0.0209886
0.0189219
0.0181077
0.0182091
0.0189963
0.325054
0.101923
0.065872
0.0489887
0.0346269
0.0265017
0.0215167
0.0192517
0.0182681
0.018209
0.0188481
0.332783
0.103704
0.0668986
0.0501085
0.0361473
0.0275376
0.0222672
0.0196796
0.0184572
0.0181757
0.0186025
0.339349
0.10685
0.0683492
0.0515326
0.0380827
0.0289612
0.0233324
0.0203012
0.0187628
0.018199
0.0183624
0.344932
0.111467
0.0703639
0.053315
0.0404211
0.0308739
0.0248103
0.0212332
0.0192805
0.0183665
0.0182187
0.349676
0.117861
0.0731853
0.0555534
0.0431755
0.0333784
0.0268352
0.0226381
0.0201581
0.0188086
0.0182855
0.353679
0.125834
0.0770219
0.0583511
0.0463488
0.0365334
0.0295517
0.0247177
0.0216116
0.0197271
0.0187445
0.357063
0.13538
0.082189
0.0619066
0.0499965
0.0403723
0.0330977
0.0277019
0.0239341
0.0214257
0.0198874
0.360025
0.146634
0.0891951
0.0665977
0.054292
0.0449211
0.0375733
0.0318096
0.0274686
0.0243298
0.0221688
0.362857
0.159602
0.0985612
0.0730189
0.0596011
0.0502538
0.0429948
0.0371418
0.0324843
0.0288801
0.026185
0.366278
0.173631
0.110582
0.0819064
0.0665526
0.0565954
0.0492653
0.04348
0.038817
0.0350877
0.0321773
0.370651
0.19027
0.126533
0.094641
0.0764339
0.0647397
0.0565229
0.0504091
0.0457227
0.0420999
0.0392864
0.389949
0.212005
0.160185
0.132839
0.115353
0.102128
0.0934237
0.090026
0.0897565
0.0907674
0.0909412
0.792532
1.32055
1.02182
0.793199
0.563716
0.375083
0.248316
0.175035
0.135573
0.115832
0.107405
0.697797
1.03971
0.965561
0.813931
0.627685
0.438065
0.276678
0.185279
0.137869
0.116188
0.108738
0.541992
0.780217
0.853779
0.784882
0.651206
0.486209
0.323789
0.208234
0.142369
0.115295
0.107587
0.366818
0.619044
0.738729
0.73245
0.648423
0.515499
0.365431
0.239485
0.156207
0.115906
0.103816
0.21609
0.509236
0.64017
0.674142
0.631038
0.530276
0.398936
0.272781
0.177041
0.122311
0.100557
0.128467
0.434273
0.56593
0.617901
0.603864
0.532511
0.422923
0.304099
0.20234
0.134663
0.100869
0.111645
0.388219
0.518585
0.570584
0.571717
0.523421
0.43562
0.329285
0.22801
0.151317
0.105627
0.102589
0.344957
0.485621
0.534402
0.539781
0.505838
0.436683
0.345158
0.249732
0.169114
0.113849
0.0844209
0.269667
0.431276
0.497811
0.508182
0.482287
0.427402
0.350586
0.26441
0.184632
0.123378
0.0689805
0.205025
0.352552
0.448592
0.472287
0.453355
0.409486
0.346013
0.270558
0.195136
0.131643
0.0585609
0.161795
0.271169
0.382771
0.427297
0.418354
0.384194
0.332465
0.267823
0.198884
0.13622
0.050155
0.133721
0.208771
0.305321
0.373446
0.377297
0.352596
0.311291
0.256763
0.195204
0.135801
0.0428864
0.112003
0.166185
0.238104
0.310154
0.331201
0.315957
0.284131
0.238761
0.184756
0.130128
0.0361853
0.0937677
0.133782
0.186844
0.247026
0.281034
0.275729
0.2527
0.215655
0.169139
0.120235
0.0305914
0.0788272
0.10903
0.14824
0.194289
0.229855
0.234148
0.219248
0.190031
0.150996
0.108598
0.0262759
0.0671991
0.0903243
0.11936
0.153256
0.183903
0.194444
0.187201
0.165799
0.134366
0.0984577
0.0227473
0.0579257
0.0760736
0.0977821
0.122402
0.146938
0.160703
0.161066
0.147961
0.124035
0.0932943
0.0202598
0.0507917
0.0653727
0.0819079
0.100217
0.120585
0.137485
0.146124
0.142005
0.124994
0.0973368
0.0185733
0.0457224
0.0576021
0.0711174
0.0866075
0.106913
0.129345
0.146677
0.15083
0.139208
0.111886
0.0182249
0.0452793
0.0547899
0.0677854
0.0834518
0.106219
0.133227
0.153246
0.160785
0.155003
0.131389
0.024261
0.0501645
0.0569834
0.0688095
0.0845977
0.111002
0.133855
0.149196
0.158245
0.160833
0.149281
0.0307713
0.052895
0.0557448
0.0696751
0.092967
0.119789
0.140006
0.15361
0.161615
0.165866
0.163102
0.0303593
0.0475285
0.0634888
0.0940829
0.126253
0.149536
0.163593
0.16881
0.168096
0.165957
0.163688
0.0679397
0.0963735
0.132701
0.161562
0.180809
0.189053
0.187055
0.178653
0.168932
0.161465
0.15723
0.829807
1.15752
1.00186
0.749398
0.521585
0.352411
0.241285
0.17408
0.135539
0.1147
0.104372
0.598948
0.939989
0.900266
0.746236
0.556552
0.389812
0.267743
0.188735
0.14158
0.115288
0.101853
0.479676
0.81518
0.839252
0.760617
0.61125
0.448004
0.310729
0.213868
0.153158
0.118346
0.100402
0.375943
0.649394
0.728004
0.736256
0.653614
0.514568
0.369286
0.252341
0.173086
0.125423
0.100057
0.287236
0.501252
0.60201
0.655845
0.647518
0.570788
0.44534
0.315051
0.211684
0.143155
0.104361
0.207928
0.370015
0.479992
0.555596
0.59083
0.571898
0.495245
0.384057
0.272705
0.182794
0.121473
0.143046
0.260086
0.36713
0.452549
0.515815
0.539156
0.505168
0.420843
0.316372
0.219551
0.144746
0.0969187
0.183858
0.274567
0.358528
0.436045
0.489143
0.492979
0.43981
0.351004
0.255672
0.172868
0.0704519
0.139786
0.212717
0.286611
0.363881
0.433271
0.465909
0.442393
0.373727
0.287406
0.204608
0.0586406
0.119053
0.178122
0.241725
0.311554
0.381968
0.431578
0.433159
0.383869
0.309394
0.231085
0.0547065
0.111781
0.161919
0.217452
0.278395
0.343511
0.397898
0.415993
0.384747
0.320821
0.251687
0.054388
0.111962
0.156526
0.205762
0.258727
0.316685
0.369683
0.395811
0.377252
0.324209
0.262349
0.0556101
0.11556
0.156144
0.200151
0.246345
0.296958
0.345891
0.375461
0.36543
0.319502
0.264742
0.057349
0.120238
0.157864
0.197125
0.236795
0.279831
0.32336
0.35406
0.351112
0.311129
0.259298
0.0592063
0.125269
0.160691
0.195344
0.22819
0.26296
0.299816
0.330032
0.333891
0.300583
0.250557
0.0610644
0.130086
0.164166
0.194345
0.220175
0.246004
0.27485
0.302847
0.313064
0.287801
0.241344
0.06298
0.134726
0.168528
0.194648
0.21368
0.230356
0.250142
0.2738
0.288598
0.272467
0.231357
0.0652517
0.139928
0.174763
0.197419
0.210083
0.217869
0.228202
0.245516
0.26169
0.254274
0.222122
0.0683413
0.14643
0.183106
0.20293
0.209985
0.209656
0.210856
0.220515
0.234266
0.233546
0.210561
0.0719349
0.153134
0.192112
0.210488
0.213489
0.206356
0.199215
0.200785
0.209235
0.211246
0.196262
0.074449
0.157781
0.200072
0.219071
0.219956
0.20778
0.193544
0.187308
0.189267
0.190151
0.18115
0.0772623
0.160915
0.206368
0.226246
0.226329
0.211517
0.192475
0.17967
0.175344
0.173207
0.166656
0.0743505
0.159798
0.206987
0.2267
0.227048
0.213044
0.193045
0.176501
0.167389
0.162276
0.157012
0.109769
0.181995
0.210672
0.219721
0.218082
0.207229
0.190646
0.175055
0.164334
0.157709
0.153732
0.104469
0.116394
0.125134
0.130667
0.126722
0.128076
0.126476
0.121161
0.111554
0.151853
0.176207
0.195487
0.211408
0.214495
0.202051
0.187223
0.169151
0.146402
0.160541
0.176461
0.195604
0.212292
0.216734
0.205225
0.188947
0.169448
0.152113
0.148996
0.160354
0.175164
0.186969
0.1897
0.179568
0.167118
0.153101
0.141383
0.0877648
0.0632639
0.0262539
0.0169828
0.0151002
0.0137001
0.0357546
0.0736372
0.0972417
0.121334
0.0893799
0.0598191
0.0289257
0.0245903
0.0329549
0.0613348
0.0894436
0.118519
0.14073
0.111901
0.0768483
0.0369345
0.030743
0.0445188
0.0759058
0.107361
0.132988
0.135963
0.115482
0.0849265
0.0438943
0.0366406
0.0519335
0.0818222
0.109838
0.127966
0.00442723
0.00460087
0.00461607
0.00210119
0.0473001
0.00438676
0.0113785
0.00454299
0.00438054
0.00425048
0.0468384
0.004554
0.00371731
0.00329507
0.00448377
0.00430299
0.00331093
0.00208561
0.00429228
0.00424709
0.00411553
0.00474526
0.0046667
0.0187316
0.00449314
0.00330593
0.00376954
0.011054
0.0843486
0.0489174
0.00340364
0.00410935
0.00301642
0.00453482
0.00427207
0.00459222
0.0174175
0.00448847
0.00294864
0.00439453
0.00678225
0.00454412
0.00688094
0.00465979
0.0606581
0.0120831
0.00326513
0.0187414
0.00429762
0.00433373
0.0491917
0.00439941
0.0202341
0.00691586
0.00432804
0.00412196
0.00456509
0.00440506
0.0852735
0.00438782
0.00524849
0.0167646
0.0526707
0.00788282
0.00820362
0.00425862
0.0527597
0.00428984
0.00460154
0.00424133
0.003297
0.00434038
0.00316241
0.00471205
0.00410127
0.00429844
0.00428734
0.0045975
0.00931548
0.0730045
0.0452904
0.00632873
0.00449521
0.00462592
0.00437863
0.00318504
0.0971052
0.0115798
0.00318948
0.0184968
0.00454296
0.00441453
0.00740622
0.0044069
0.0721179
0.0264806
0.00274757
0.00396178
0.00351784
0.00442443
0.00470102
0.0193212
0.00417335
0.00402628
0.00284839
0.00455206
0.00305051
0.00464658
0.00428165
0.00419149
0.004506
0.00455928
0.00431783
0.00223241
0.00429388
0.00442414
0.00438373
0.00431613
0.00449418
0.0041427
0.00227472
0.00460769
0.00540721
0.00325867
0.0113177
0.0041128
0.0540704
0.003048
0.00321235
0.00351226
0.00445104
0.00438358
0.0186494
0.00430686
0.0046148
0.00455987
0.00418182
0.00429594
0.0500758
0.0044643
0.00722508
0.00411966
0.0241629
0.00402517
0.00437646
0.00327473
0.0044501
0.00428992
0.00433204
0.00423861
0.00427083
0.00441728
0.00353566
0.00460062
0.00223259
0.00365497
0.00385833
0.00373415
0.00320867
0.00436058
0.00364227
0.00429851
0.00433174
0.00443364
0.0539199
0.0058465
0.00362036
0.00433918
0.00419002
0.00804075
0.00309827
0.00310014
0.00449087
0.00405916
0.00409861
0.00396483
0.00315998
0.00358267
0.0613807
0.00393062
0.00428359
0.00480345
0.00465908
0.0133753
0.00449864
0.00381202
0.00424452
0.00430065
0.00458768
0.0125092
0.00413799
0.00341661
0.00427232
0.00662531
0.00460954
0.00440131
0.00435824
0.0035923
0.00359672
0.00467918
0.00321226
0.00432958
0.0040687
0.00350264
0.00462764
0.0120729
0.00438755
0.003205
0.00434886
0.00433905
0.0215115
0.00439497
0.00401459
0.00423075
0.00448955
0.00628841
0.00450955
0.00369889
0.00426668
0.00315883
0.00297627
0.00218266
0.00273535
0.004292
0.00321764
0.00440972
0.00954177
0.00561313
0.0038971
0.0227555
0.0038892
0.00425627
0.0042626
0.00459434
0.00349813
0.0743374
0.0507815
0.00464579
0.00455897
0.00454633
0.00372073
0.00821574
0.00401729
0.00591609
0.00470599
0.00476182
0.00451672
0.00360388
0.03107
0.0570599
0.00358934
0.0217767
0.00512891
0.0042974
0.00395928
0.00436578
0.00414111
0.00447464
0.00313304
0.00423763
0.00338583
0.00454452
0.00432654
0.00457361
0.00450416
0.00307923
0.00412176
0.00453076
0.00559411
0.00372516
0.0211713
0.00431645
0.00432258
0.00316295
0.0043891
0.00432898
0.00332079
0.00444617
0.0042792
0.00316008
0.00438838
0.00460124
0.0456093
0.0475809
0.00395911
0.00439706
0.0831295
0.00458942
0.00425228
0.00710732
0.00461842
0.0114988
0.00443226
0.00296833
0.0046785
0.00435681
0.00416552
0.00456376
0.00427077
0.00334951
0.0044438
0.002453
0.00437524
0.04936
0.00415151
0.00419164
0.00459847
0.0145541
0.00467521
0.00435403
0.0074945
0.00456553
0.00410134
0.00301068
0.0048932
0.00410685
0.00368738
0.00321354
0.00413089
0.0045695
0.00424315
0.0346181
0.00435757
0.00339266
0.00546694
0.00422388
0.00445136
0.00370808
0.00424026
0.0292208
0.00429278
0.0533464
0.00388604
0.00465059
0.00354395
0.0395083
0.00348666
0.00458619
0.00447196
0.00395099
0.0040439
0.0208135
0.00431833
0.00570423
0.0198088
0.0147478
0.00472195
0.00437925
0.0147905
0.0592721
0.00862548
0.00391513
0.00374245
0.00416805
0.00394801
0.00468917
0.00302159
0.00399865
0.00466089
0.0367068
0.00386343
0.00333421
0.0045173
0.00451145
0.00431475
0.00333358
0.00308909
0.00324362
0.0104735
0.00490799
0.00443984
0.0121873
0.0356043
0.00319852
0.00387733
0.00460969
0.0039185
0.00425754
0.00437718
0.00424556
0.0384556
0.00438675
0.00316061
0.004416
0.00340438
0.0504548
0.00236531
0.00320308
0.00801008
0.00341736
0.00442726
0.00527516
0.00310572
0.00470558
0.0522193
0.00827194
0.00447729
0.00428269
0.00462358
0.00560535
0.00311292
0.00441109
0.00466217
0.00733488
0.00286946
0.00732046
0.00781717
0.00702477
0.00432666
0.0344466
0.00426366
0.00427767
0.00377736
0.00370956
0.00407333
0.0040807
0.0041698
0.00490626
0.00313799
0.00476507
0.0323523
0.00320915
0.0123215
0.00404036
0.003986
0.00417311
0.00466986
0.00482408
0.00488974
0.00929251
0.00448486
0.00316332
0.00342946
0.00410561
0.00435392
0.00322538
0.0259109
0.0490044
0.00326981
0.00468852
0.00396231
0.095917
0.00212609
0.0024029
0.00419642
0.00444284
0.00503083
0.00358602
0.00434391
0.00397962
0.00443846
0.00461294
0.00449795
0.00412046
0.00444482
0.0110707
0.0031101
0.00322848
0.00491057
0.00458953
0.00433904
0.0564267
0.00320005
0.00395117
0.00424122
0.00816585
0.00763257
0.00545505
0.00546768
0.0043014
0.00393593
0.00310134
0.00421444
0.00519617
0.00421961
0.00458573
0.00432628
0.00557856
0.00358176
0.00425194
0.00445138
0.00413102
0.0164778
0.00473946
0.00464782
0.00329929
0.0308179
0.00404732
0.00335711
0.00434037
0.00346585
0.00439914
0.00421551
0.00440562
0.00335426
0.00327141
0.00426243
0.0033979
0.00400224
0.00451589
0.00374833
0.00369719
0.00453661
0.00453382
0.0369303
0.003971
0.00288648
0.0042926
0.0177379
0.00461928
0.0375843
0.0043549
0.00344856
0.00516197
0.00474057
0.0502224
0.00496786
0.0033866
0.00445187
0.0036075
0.004121
0.00459946
0.00442678
0.00457127
0.00419135
0.0370532
0.0045132
0.00435426
0.0122839
0.004436
0.00939451
0.00420148
0.0118275
0.0033157
0.00320976
0.00467851
0.00447628
0.0046375
0.00647112
0.00363516
0.00450083
0.0044891
0.00325038
0.00461808
0.00220485
0.00460796
0.0413748
0.00423733
0.00395931
0.00297738
0.00333167
0.0130729
0.0396018
0.00416073
0.00411822
0.00431665
0.00460683
0.0032253
0.00340386
0.00423519
0.00354362
0.0306759
0.0295136
0.0044917
0.00433914
0.00459876
0.00498013
0.0533217
0.00423267
0.00454135
0.00437754
0.0477458
0.0043258
0.00306922
0.00327003
0.00843103
0.0335884
0.0044311
0.00450501
0.00446382
0.00505519
0.00434337
0.00409168
0.00318237
0.0040996
0.00506543
0.00743576
0.00463998
0.00467393
0.0709823
0.00440962
0.00354546
0.0031618
0.00527544
0.00446224
0.00401535
0.0035932
0.00422351
0.00443651
0.0044878
0.0249632
0.00300058
0.00389725
0.0042495
0.00450062
0.00650206
0.00422939
0.00451514
0.00423072
0.00431124
0.00319331
0.00307255
0.00524905
0.00567717
0.00401725
0.00516519
0.00429036
0.010103
0.00428718
0.00445217
0.0306397
0.0289552
0.0043834
0.00439133
0.00416434
0.00416102
0.00433314
0.0056511
0.00460819
0.00419075
0.00325129
0.00297836
0.00382218
0.00312663
0.0031796
0.00538042
0.023804
0.00496923
0.00630909
0.00354113
0.0034979
0.00466459
0.00349195
0.00462119
0.00416803
0.00554963
0.00394253
0.0042081
0.0044118
0.00343793
0.00707832
0.0305133
0.00361208
0.00498647
0.0044247
0.00520872
0.00455006
0.00429307
0.00426883
0.00338116
0.00426254
0.00430106
0.00418685
0.00459266
0.0038666
0.00622024
0.0219995
0.00428876
0.00421863
0.00399116
0.00899461
0.0045138
0.0153596
0.00431482
0.00518237
0.0306314
0.00442984
0.00366685
0.00465955
0.00303421
0.0049758
0.00317013
0.0266864
0.00365013
0.00427681
0.00463633
0.00372919
0.00321024
0.00407158
0.0544811
0.00437112
0.00408543
0.00463247
0.0037481
0.00419559
0.00316071
0.00455576
0.00440401
0.00440577
0.00378864
0.00443688
0.00456234
0.00331718
0.00437434
0.0054096
0.00321888
0.00408171
0.00365193
0.00538425
0.00294734
0.00407881
0.00373634
0.00359081
0.00740565
0.00303587
0.0116549
0.00446782
0.00335631
0.00448851
0.00428029
0.00699938
0.00464266
0.00350127
0.00329001
0.0043262
0.00419109
0.00413476
0.00405558
0.00458419
0.0567716
0.0066795
0.0399705
0.00415752
0.00397785
0.00652325
0.00438024
0.00455764
0.00344457
0.00372092
0.00286098
0.00452438
0.00334224
0.0296677
0.00454931
0.00942124
0.00349976
0.00482962
0.00501692
0.00438484
0.00420993
0.00421934
0.00336043
0.00440193
0.00319952
0.00457242
0.00304377
0.00431963
0.00298321
0.00392204
0.0249623
0.00417848
0.00428864
0.0227542
0.012886
0.00446265
0.00320264
0.00385537
0.00482625
0.00513469
0.00377144
0.00436231
0.00427328
0.00298657
0.00497319
0.00428401
0.00436933
0.00441488
0.00355086
0.00371839
0.00469029
0.0044832
0.00456611
0.0316641
0.0342482
0.00358178
0.00457617
0.00336271
0.00454685
0.00455578
0.00457819
0.00462641
0.00447892
0.00455388
0.00316071
0.00506225
0.0104886
0.00308741
0.00441309
0.00443028
0.00449541
0.00376976
0.0335661
0.00459598
0.00411311
0.00352598
0.0171
0.0210678
0.00471896
0.00392052
0.00374009
0.00443377
0.00446159
0.0109645
0.0042185
0.00456469
0.00443225
0.00851979
0.00400059
0.00390413
0.00455624
0.00409626
0.00645473
0.00372415
0.00456311
0.00309769
0.00579062
0.00442014
0.00402482
0.00464008
0.00427718
0.00206019
0.00299082
0.00449541
0.00460056
0.00418585
0.00475034
0.00433953
0.00459118
0.00322105
0.00344476
0.00899321
0.0149217
0.00696346
0.00454649
0.0515767
0.00466955
0.00430893
0.00538848
0.00448456
0.0044167
0.0044173
0.00302355
0.012629
0.00366071
0.00441385
0.00304349
0.00442524
0.00468781
0.00434153
0.00438749
0.00442348
0.00449394
0.00455947
0.00434299
0.0682166
0.00438217
0.00425499
0.00453915
0.0177365
0.00426249
0.00450585
0.00488403
0.0624835
0.00421899
0.00449693
0.00297071
0.00324093
0.0046519
0.00454034
0.00422257
0.00400773
0.0111457
0.00459927
0.0121825
0.00297831
0.0240554
0.00302718
0.00457847
0.00326664
0.00564084
0.00444202
0.00457522
0.00430936
0.00460801
0.00395212
0.00996566
0.00420095
0.00575336
0.0492988
0.00483978
0.00394156
0.00557799
0.00466376
0.00455796
0.0031388
0.0028592
0.00329883
0.0044001
0.0280374
0.00431612
0.00328532
0.004311
0.00313639
0.0031313
0.00326648
0.00354895
0.00420158
0.00452783
0.0462093
0.00446649
0.0573162
0.00424225
0.00303071
0.00429691
0.00420979
0.0539454
0.00438175
0.00460442
0.00352605
0.00906916
0.00767136
0.00357119
0.00327957
0.00332568
0.00668245
0.037799
0.0045195
0.00433503
0.0596008
0.00439975
0.00539886
0.00449229
0.0154313
0.00303619
0.00653608
0.00460366
0.00342668
0.00464737
0.00440811
0.00416958
0.00242575
0.00425238
0.0044591
0.00433596
0.00455681
0.00463738
0.00457204
0.00456155
0.00418843
0.00736122
0.0035619
0.00392181
0.00460979
0.00847538
0.00302726
0.00460125
0.00468198
0.00408821
0.00654375
0.0508481
0.00397372
0.00339579
0.0041018
0.00434844
0.00305832
0.00449974
0.00422364
0.0097378
0.00455473
0.069733
0.00849637
0.0233315
0.004553
0.00454292
0.00373695
0.0430557
0.00335032
0.00313845
0.00467581
0.00307316
0.01924
0.00456148
0.00402843
0.00397303
0.00388023
0.032688
0.00368643
0.00445117
0.00432654
0.00416523
0.0042085
0.00732667
0.0029404
0.0116554
0.0528523
0.00460129
0.00300727
0.00387424
0.00512802
0.0152491
0.00443133
0.00439293
0.00406613
0.00313428
0.00454413
0.00467397
0.0046784
0.00341846
0.00413928
0.00461203
0.00371495
0.00734072
0.00321163
0.00452204
0.00827609
0.00414073
0.00407724
0.00400582
0.0045555
0.00431793
0.0044717
0.0140645
0.00425611
0.00566493
0.00400057
0.00347778
0.00450456
0.004177
0.00450323
0.00437808
0.00340015
0.0101796
0.00786316
0.0554541
0.00972872
0.0390994
0.00420782
0.00446243
0.00248943
0.00462819
0.00324717
0.011536
0.0043009
0.00514157
0.00388453
0.0280338
0.00418541
0.00319979
0.00454965
0.0490735
0.00469604
0.0356877
0.00409706
0.00480882
0.00487932
0.0105483
0.00419024
0.00556873
0.00579507
0.00448577
0.0206518
0.00558619
0.024188
0.00349586
0.0023527
0.0128007
0.00472067
0.0046126
0.00372513
0.00466316
0.00344402
0.00331617
0.00316964
0.00390609
0.00314968
0.0543078
0.00437612
0.0042893
0.00426767
0.00457201
0.00295046
0.00340588
0.00425678
0.0033214
0.0435626
0.00430428
0.0572279
0.00740078
0.00448322
0.00559441
0.00385282
0.00317736
0.0031829
0.023998
0.00442438
0.00452619
0.0525525
0.00437476
0.00458735
0.00355637
0.00454344
0.00450607
0.0301136
0.00462477
0.0320367
0.00398168
0.00387816
0.00428578
0.00430417
0.00642965
0.00325799
0.0126697
0.00444614
0.00295078
0.00529494
0.00309032
0.00339981
0.00527986
0.00537361
0.00424038
0.00793787
0.01427
0.00406505
0.00431809
0.00348575
0.00381222
0.0047266
0.00353116
0.0510749
0.00425707
0.00468927
0.00450605
0.00407189
0.0028644
0.00320835
0.00335104
0.0758748
0.00475818
0.005878
0.00555633
0.00457669
0.00396192
0.00424447
0.00421609
0.0776526
0.00458865
0.0190271
0.0237181
0.00456312
0.00449442
0.00463975
0.0312358
0.0324647
0.0210598
0.00335361
0.00456776
0.00427496
0.00327532
0.0387145
0.0065805
0.00307635
0.00434306
0.00616047
0.00608213
0.00537
0.00416488
0.0137903
0.0278882
0.00405294
0.00382833
0.00430306
0.00437848
0.0302661
0.0032079
0.00372287
0.00460013
0.00465829
0.00411865
0.0482267
0.00309356
0.00297547
0.00776663
0.00467488
0.00437699
0.0140191
0.00530563
0.0046203
0.00305137
0.00354806
0.00412291
0.0546896
0.00453418
0.00442539
0.00426955
0.0056609
0.00310656
0.0043566
0.00498756
0.0046135
0.00455881
0.00468819
0.00330227
0.00442892
0.00736679
0.00423456
0.00455765
0.049461
0.00425902
0.00354043
0.00357352
0.0044512
0.00351831
0.00534354
0.00452204
0.00456389
0.00448151
0.00306407
0.00449618
0.00427702
0.00442707
0.00372102
0.00642958
0.00315162
0.00814258
0.00429905
0.00542499
0.00421315
0.00467579
0.0042261
0.00458651
0.00314683
0.00414064
0.00325679
0.00412478
0.00420781
0.00450121
0.00452691
0.0287279
0.00546803
0.0162721
0.00468828
0.00308827
0.0585547
0.00319312
0.00297776
0.00439811
0.00548812
0.00629719
0.00565857
0.00319397
0.0050091
0.00380007
0.00305285
0.00450167
0.0677599
0.00309369
0.00415023
0.00403438
0.00394659
0.00361055
0.00276706
0.00426719
0.00306778
0.0558729
0.0353781
0.00448551
0.00427991
0.00522538
0.0107007
0.00401697
0.0045492
0.00424673
0.00462877
0.00447425
0.00488942
0.00440262
0.00465052
0.0131057
0.00237448
0.00432928
0.00442764
0.00439227
0.00416302
0.00468352
0.0043325