/*--------------------------------*- C++ -*----------------------------------*\
| =========                 |                                                 |
| \\      /  F ield         | OpenFOAM: The Open Source CFD Toolbox           |
|  \\    /   O peration     | Version:  3.0.1                                 |
|   \\  /    A nd           | Web:      www.OpenFOAM.org                      |
|    \\/     M anipulation  |                                                 |
\*---------------------------------------------------------------------------*/
FoamFile
{
    version     2.0;
    format      ascii;
    class       surfaceVectorField;
    location    "0.86874";
    object      Uf;
}
// * * * * * * * * * * * * * * * * * * * * * * * * * * * * * * * * * * * * * //

dimensions      [0 1 -1 0 0 0 0];

internalField   nonuniform List<vector> 
32369
(
(6.90878 -4.83964 -4.40535e-20)
(5.24701 -5.17551 8.45887e-21)
(9.16848 -3.49176 -4.27186e-18)
(6.20072 -3.73401 -5.32323e-20)
(5.17724 -4.61404 1.80232e-19)
(7.01932 -2.45968 1.73167e-18)
(5.84762 -2.98945 5.07093e-20)
(5.21757 -3.82723 1.5612e-18)
(6.43247 -2.30284 -1.93935e-18)
(5.5291 -2.3808 1.4556e-19)
(5.16351 -3.12631 -2.10082e-18)
(6.07625 -2.04279 -5.69914e-19)
(5.20588 -1.9174 4.94217e-20)
(5.01166 -2.53322 1.37171e-18)
(5.62411 -1.69305 3.84153e-19)
(4.89759 -1.56504 -1.02376e-20)
(4.80322 -2.05444 -3.16132e-19)
(5.22042 -1.39914 1.9641e-20)
(4.61121 -1.29277 -3.90698e-22)
(4.57428 -1.67552 -3.2514e-19)
(4.86827 -1.15673 1.2434e-21)
(4.35048 -1.07931 1.76038e-20)
(4.34546 -1.37796 -1.31578e-19)
(4.56013 -0.964663 4.2747e-20)
(4.11612 -0.909588 -6.28266e-20)
(4.12811 -1.14317 1.71432e-19)
(4.29033 -0.812719 -3.83749e-20)
(3.9064 -0.774277 -5.05945e-21)
(3.92736 -0.957636 -9.75091e-20)
(4.05189 -0.690137 -6.50215e-21)
(3.74232 -0.819487 9.36386e-20)
(3.84312 -0.603061 1.10741e-20)
(3.68224 -0.663494 7.00931e-19)
(3.53582 -5.35424 1.84828e-19)
(2.16304 -4.80039 -3.26335e-18)
(4.1022 -4.62618 1.48377e-18)
(3.01928 -4.6912 1.4312e-18)
(4.44565 -3.90988 -1.21493e-19)
(3.6105 -4.26376 1.34098e-18)
(4.5924 -3.23668 -1.14439e-18)
(3.99227 -3.7049 -1.44954e-18)
(4.58513 -2.6476 1.19579e-18)
(4.18695 -3.13214 1.2167e-18)
(4.47736 -2.1584 -6.0037e-19)
(4.22909 -2.60329 -1.02234e-18)
(4.31598 -1.76485 -4.84812e-19)
(4.17041 -2.14444 4.78279e-19)
(4.13356 -1.45309 -3.65621e-20)
(4.05429 -1.76377 -7.26467e-19)
(3.94984 -1.20732 1.60287e-19)
(3.91182 -1.45563 2.97423e-19)
(3.77587 -1.01325 -3.0746e-20)
(3.76165 -1.20954 3.19081e-19)
(3.61381 -1.02201 -6.58314e-20)
(3.5917 -0.856034 5.99445e-20)
(1.80428 -4.45897 -2.09156e-18)
(0.91969 -3.85658 -2.48572e-18)
(2.54589 -4.43464 1.36915e-18)
(1.67283 -4.02189 1.47304e-18)
(3.11545 -4.09213 3.69174e-19)
(2.30437 -4.01927 -6.38855e-19)
(3.52463 -3.62137 4.58442e-19)
(2.862 -3.76839 3.53355e-19)
(3.7775 -3.10263 -6.7946e-19)
(3.26333 -3.36535 0)
(3.88897 -2.60149 -2.34452e-19)
(3.5146 -2.91444 8.30917e-19)
(3.89235 -2.15636 3.17591e-19)
(3.63509 -2.47025 -1.74337e-18)
(3.82656 -1.78167 -5.36402e-19)
(3.65702 -2.06662 -4.39767e-19)
(3.72461 -1.47652 4.48255e-19)
(3.6154 -1.71947 -3.21694e-19)
(3.60859 -1.23398 2.80702e-19)
(3.53905 -1.43283 6.90882e-19)
(3.44652 -1.20718 2.29618e-20)
(3.46229 -1.03229 -7.75665e-19)
(0.97479 -3.50504 3.73413e-19)
(0.56075 -3.1878 3.15559e-19)
(1.49375 -3.72935 -5.32006e-19)
(1.03198 -3.34347 8.94502e-19)
(2.07906 -3.77299 -6.6901e-19)
(1.45527 -3.49436 1.43899e-19)
(2.59472 -3.57929 2.61647e-20)
(1.96039 -3.47378 -5.15269e-19)
(2.98255 -3.23149 1.38341e-18)
(2.42593 -3.29012 6.43797e-19)
(3.24564 -2.82325 -4.87072e-19)
(2.79095 -2.98723 2.39924e-18)
(3.39485 -2.41082 -2.64763e-18)
(3.04129 -2.62485 -3.06872e-18)
(3.45131 -2.03053 -3.1868e-19)
(3.18862 -2.25381 8.6993e-19)
(3.44007 -1.70055 -2.11638e-19)
(3.25665 -1.9069 -4.05381e-20)
(3.38782 -1.42463 4.67217e-19)
(3.2675 -1.60062 1.1436e-18)
(3.23517 -1.34739 1.91006e-20)
(3.30394 -1.18565 1.38645e-18)
(0.702247 -2.98606 7.17686e-19)
(0.486245 -2.76076 0)
(0.968222 -3.15536 1.42735e-18)
(0.82122 -2.86516 -9.86101e-19)
(1.33913 -3.24957 2.77425e-19)
(1.0467 -3.00137 1.69282e-18)
(1.77804 -3.24301 8.18523e-20)
(1.40318 -3.05349 7.97922e-19)
(2.20679 -3.1037 1.46686e-18)
(1.79876 -3.00487 -1.28341e-18)
(2.56 -2.83931 3.20939e-19)
(2.17188 -2.83684 8.46784e-19)
(2.81551 -2.50656 -3.08268e-20)
(2.48209 -2.582 -1.05844e-21)
(2.97885 -2.15801 1.28487e-18)
(2.71179 -2.28144 7.6259e-19)
(3.06974 -1.82796 1.16741e-18)
(2.86436 -1.97003 -5.49036e-19)
(3.10764 -1.53441 8.29945e-19)
(2.95462 -1.67424 7.93696e-19)
(2.98726 -1.42024 7.42902e-20)
(3.09108 -1.26601 7.59213e-19)
(0.631437 -2.58675 -1.60629e-18)
(0.458547 -2.39297 8.08372e-19)
(0.825693 -2.70747 -9.49718e-19)
(0.721531 -2.44558 -3.05368e-18)
(1.07408 -2.80421 2.29399e-18)
(0.872684 -2.56769 1.07444e-18)
(1.37784 -2.83718 -3.67585e-19)
(1.13317 -2.6297 2.39474e-18)
(1.7166 -2.77653 -2.06896e-18)
(1.43314 -2.62834 -1.86084e-18)
(2.0493 -2.62138 5.63585e-19)
(1.75113 -2.54288 0)
(2.3401 -2.39302 7.01981e-19)
(2.05208 -2.38035 -6.98802e-21)
(2.56756 -2.12296 -9.71246e-19)
(2.3093 -2.16226 4.51069e-19)
(2.72737 -1.84304 -1.15009e-18)
(2.51044 -1.91498 -1.08733e-18)
(2.82931 -1.57764 8.45922e-20)
(2.654 -1.66434 -7.13609e-19)
(2.73575 -1.43479 5.75973e-19)
(2.87668 -1.32466 3.25248e-20)
(0.593381 -2.24361 -2.50274e-19)
(0.454639 -2.10651 1.8711e-18)
(0.737091 -2.31809 -1.33852e-18)
(0.676566 -2.10962 -7.04657e-19)
(0.927586 -2.39877 9.98752e-19)
(0.786735 -2.19966 -4.38407e-19)
(1.1618 -2.44113 1.25712e-18)
(0.988163 -2.25423 1.81682e-18)
(1.43127 -2.42404 0)
(1.22263 -2.26729 -5.2627e-19)
(1.71515 -2.33766 -5.34671e-19)
(1.48365 -2.22479 0)
(1.98746 -2.18762 -2.27269e-19)
(1.74986 -2.12488 -1.81691e-18)
(2.22561 -1.99099 4.98544e-19)
(1.99892 -1.97556 2.10259e-18)
(2.41663 -1.76991 -6.68847e-19)
(2.21472 -1.79149 -6.06743e-19)
(2.55752 -1.54539 -3.77696e-19)
(2.3874 -1.59255 4.09882e-19)
(2.50473 -1.40383 -1.68943e-20)
(2.64095 -1.32078 -3.30552e-19)
(0.57242 -1.96091 1.67979e-18)
(0.447826 -1.86086 1.06107e-18)
(0.688858 -1.99597 2.05491e-19)
(0.649134 -1.8328 5.65213e-19)
(0.842551 -2.05581 1.30186e-19)
(0.739148 -1.89442 -8.30002e-19)
(1.03107 -2.09238 2.78193e-19)
(0.903686 -1.93625 9.87678e-19)
(1.24994 -2.0909 -5.81652e-19)
(1.09494 -1.95092 -4.96674e-20)
(1.48885 -2.04274 -1.03609e-18)
(1.31168 -1.92838 -3.67925e-19)
(1.73166 -1.94682 2.14333e-19)
(1.54162 -1.86532 -6.24774e-19)
(1.96044 -1.8099 1.24171e-18)
(1.7695 -1.76359 8.14481e-19)
(2.16093 -1.64488 3.55973e-19)
(1.98156 -1.62963 -6.04214e-19)
(2.32652 -1.46721 8.55913e-19)
(2.16461 -1.47553 1.12689e-18)
(2.29816 -1.32157 -5.59594e-19)
(2.44901 -1.27266 -4.01132e-19)
(0.558829 -1.72026 -1.94895e-20)
(0.448151 -1.63992 -1.861e-19)
(0.660568 -1.72731 -3.55507e-19)
(0.634497 -1.58998 0)
(0.791669 -1.76922 -1.66121e-19)
(0.71038 -1.63324 -2.20719e-19)
(0.949983 -1.79682 7.67288e-19)
(0.851179 -1.66445 2.54199e-20)
(1.13368 -1.79872 1.94204e-19)
(1.01302 -1.67635 6.97473e-19)
(1.33731 -1.76911 7.09727e-20)
(1.19763 -1.66245 -3.6821e-19)
(1.55107 -1.70564 -1.46224e-19)
(1.3976 -1.62011 5.354e-19)
(1.76234 -1.60989 -8.95345e-19)
(1.60284 -1.54899 -1.17033e-18)
(1.95899 -1.48777 -4.13963e-21)
(1.80327 -1.451 2.60828e-19)
(2.13289 -1.34916 -5.17396e-21)
(1.9867 -1.33211 -4.03099e-19)
(2.13031 -1.20538 -2.67939e-19)
(2.27695 -1.19278 0)
(0.5647 -1.51323 -1.74036e-19)
(0.465594 -1.46554 -7.03798e-19)
(0.650208 -1.4966 1.57948e-19)
(0.634137 -1.3854 1.06577e-19)
(0.762429 -1.52429 -6.043e-20)
(0.695711 -1.40947 3.37139e-19)
(0.898381 -1.54335 -1.15184e-19)
(0.818488 -1.42967 -5.43112e-19)
(1.05656 -1.54413 2.43179e-19)
(0.958805 -1.43639 2.20463e-19)
(1.2336 -1.52296 0)
(1.11985 -1.42503 -1.51487e-19)
(1.42315 -1.4779 -3.24231e-19)
(1.2966 -1.39381 -3.32145e-21)
(1.61631 -1.40844 -1.70494e-19)
(1.48206 -1.34175 -1.63606e-19)
(1.80346 -1.31622 -4.97341e-20)
(1.66905 -1.26853 2.54319e-19)
(1.97592 -1.20557 -6.47326e-19)
(1.84733 -1.17697 5.06836e-19)
(1.99216 -1.07831 -2.84123e-19)
(2.12088 -1.06943 -1.204e-18)
(0.573579 -1.34404 -5.25335e-19)
(0.482666 -1.32928 -4.81434e-19)
(0.647785 -1.29966 2.63474e-19)
(0.631175 -1.21298 5.83154e-20)
(0.745586 -1.31241 -4.9905e-20)
(0.685529 -1.21651 3.16637e-19)
(0.864841 -1.32213 -2.86931e-19)
(0.796595 -1.22441 -3.22572e-19)
(1.00425 -1.3192 -1.35849e-19)
(0.921868 -1.22393 -1.86766e-19)
(1.16146 -1.30108 -1.70723e-19)
(1.06604 -1.21131 -2.00725e-21)
(1.332 -1.26638 1.72043e-19)
(1.22547 -1.18539 -1.18636e-19)
(1.50927 -1.21408 2.25379e-19)
(1.39509 -1.14514 3.51098e-19)
(1.68549 -1.14434 7.82932e-19)
(1.56984 -1.08946 1.10032e-19)
(1.85336 -1.06033 9.86074e-19)
(1.74124 -1.01904 6.14834e-19)
(1.88255 -0.941086 -1.30139e-19)
(2.00495 -0.956992 -8.30706e-19)
(0.565262 -1.19499 3.77253e-20)
(0.48869 -1.18526 1.24243e-19)
(0.639307 -1.12506 8.87699e-20)
(0.619739 -1.04743 4.72348e-20)
(0.731057 -1.12406 1.1717e-19)
(0.674487 -1.03834 1.18673e-19)
(0.840664 -1.12447 -2.36266e-19)
(0.779404 -1.03725 -1.19205e-19)
(0.967755 -1.11653 -7.17221e-20)
(0.895254 -1.03037 -1.87688e-19)
(1.11107 -1.09847 6.50049e-20)
(1.02825 -1.01522 1.34532e-19)
(1.26756 -1.06946 1.5257e-20)
(1.17563 -0.991493 -1.14701e-19)
(1.4323 -1.0285 2.69365e-19)
(1.33364 -0.958605 1.59255e-19)
(1.59921 -0.974908 -1.25116e-19)
(1.49867 -0.915271 2.6182e-21)
(1.76224 -0.909924 -3.91444e-19)
(1.66439 -0.860688 -1.86013e-19)
(1.8061 -0.797629 -3.67978e-20)
(1.91516 -0.828226 2.29852e-19)
(0.557044 -1.04697 1.50958e-19)
(0.496516 -1.04354 6.12438e-21)
(0.630291 -0.959414 6.87767e-20)
(0.612377 -0.888083 8.93871e-21)
(0.718249 -0.948764 -9.18882e-20)
(0.666548 -0.869219 2.96751e-20)
(0.821986 -0.94176 -6.38667e-20)
(0.766345 -0.861089 -5.80364e-20)
(0.941371 -0.929109 -1.45761e-20)
(0.875808 -0.84883 8.91441e-20)
(1.07568 -0.909882 -1.79849e-20)
(1.00172 -0.831008 -8.16959e-21)
(1.22272 -0.883942 0)
(1.1414 -0.8081 0)
(1.37873 -0.850506 -9.55128e-20)
(1.29171 -0.780074 1.34283e-19)
(1.53898 -0.808003 -4.48975e-20)
(1.44975 -0.745614 -1.07391e-19)
(1.69911 -0.754581 1.59398e-19)
(1.6109 -0.702361 2.1673e-19)
(1.75034 -0.649785 5.02735e-20)
(1.854 -0.675517 -1.09246e-18)
(0.560081 -0.910522 -1.36676e-19)
(0.5024 -0.937392 4.94372e-20)
(0.627095 -0.803359 -3.4244e-20)
(0.604485 -0.747335 -1.64467e-19)
(0.709612 -0.782652 7.2744e-20)
(0.659689 -0.711586 1.2571e-19)
(0.808389 -0.768561 8.01612e-20)
(0.756548 -0.693892 0)
(0.922667 -0.751372 1.06012e-19)
(0.862418 -0.675429 -1.35922e-19)
(1.05151 -0.730544 9.12172e-21)
(0.984546 -0.65448 8.26865e-21)
(1.19283 -0.706511 1.20262e-19)
(1.1201 -0.631758 1.67337e-19)
(1.34323 -0.678807 1.4919e-19)
(1.26602 -0.607666 6.51026e-20)
(1.49822 -0.645553 1.25048e-19)
(1.41945 -0.581079 4.39444e-20)
(1.65308 -0.604729 1.32295e-19)
(1.57694 -0.549099 -1.68061e-21)
(1.71362 -0.508622 -2.90976e-20)
(1.80263 -0.548452 -1.40566e-18)
(0.547251 -0.782813 4.99002e-20)
(0.506919 -0.81438 1.07759e-19)
(0.618854 -0.653812 -3.12547e-20)
(0.592666 -0.600043 8.34776e-20)
(0.701654 -0.622176 6.44372e-20)
(0.652912 -0.553795 -1.85981e-19)
(0.799074 -0.600897 -2.03194e-19)
(0.749808 -0.529071 2.74196e-19)
(0.911363 -0.579217 -2.5009e-19)
(0.855044 -0.505302 -8.01562e-20)
(1.0379 -0.556765 1.50033e-19)
(0.976511 -0.481623 2.06332e-19)
(1.17666 -0.534465 1.22709e-19)
(1.11111 -0.459334 1.65978e-21)
(1.32419 -0.51218 -3.93546e-20)
(1.25556 -0.439404 -7.06988e-20)
(1.47613 -0.487685 -8.19524e-20)
(1.40646 -0.420709 4.42322e-20)
(1.62856 -0.457581 -1.55301e-19)
(1.56152 -0.399484 -1.43118e-19)
(1.69734 -0.369571 -2.41153e-21)
(1.77857 -0.410714 7.03324e-19)
(0.536093 -0.648006 1.46431e-19)
(0.518257 -0.683361 1.94751e-19)
(0.611799 -0.501643 -4.2383e-20)
(0.586244 -0.448595 1.55703e-19)
(0.696153 -0.461513 -2.64843e-20)
(0.651341 -0.393887 -2.46052e-19)
(0.794402 -0.434205 4.35629e-19)
(0.748435 -0.363038 9.23907e-20)
(0.907561 -0.408663 3.48844e-19)
(0.854855 -0.334402 -1.13969e-19)
(1.0348 -0.385162 7.83241e-20)
(0.978279 -0.308954 2.0301e-19)
(1.17389 -0.365355 -1.86044e-19)
(1.11488 -0.28822 -1.68457e-19)
(1.32088 -0.349325 0)
(1.26035 -0.273845 0)
(1.47106 -0.334272 0)
(1.41006 -0.264379 0)
(1.62071 -0.315295 0)
(1.5628 -0.255016 0)
(1.69609 -0.235726 0)
(1.76891 -0.278774 0)
(0.538165 -0.514575 1.97193e-19)
(0.526208 -0.572854 1.93601e-19)
(0.612863 -0.349266 -7.42593e-21)
(0.580739 -0.304543 -1.55422e-19)
(0.696809 -0.299204 -1.64164e-19)
(0.653233 -0.235364 0)
(0.796583 -0.265361 -4.37253e-19)
(0.752851 -0.194829 -1.82603e-19)
(0.912469 -0.236204 -2.94733e-19)
(0.863307 -0.160714 -3.3013e-20)
(1.04341 -0.212786 -6.92007e-21)
(0.992052 -0.13372 -6.26009e-21)
(1.18546 -0.197319 0)
(1.13339 -0.116634 0)
(1.33351 -0.189659 0)
(1.28173 -0.110629 -3.61879e-19)
(1.48221 -0.185916 0)
(1.43054 -0.112947 0)
(1.62788 -0.179528 0)
(1.57999 -0.117725 -3.8146e-19)
(1.70803 -0.111824 -2.76224e-19)
(1.76948 -0.156047 9.78352e-19)
(0.534917 -0.383359 -1.34195e-19)
(0.540039 -0.449841 -1.76553e-19)
(0.6135 -0.19634 -1.64333e-19)
(0.574923 -0.155547 -1.60247e-19)
(0.701857 -0.133421 0)
(0.660429 -0.06959 2.0845e-19)
(0.806763 -0.0919429 2.05586e-19)
(0.766155 -0.0195293 0)
(0.929209 -0.0597442 2.53732e-19)
(0.885268 0.0192643 -2.69335e-21)
(1.06681 -0.0384191 0)
(1.02327 0.045154 -3.15384e-19)
(1.21392 -0.0302883 -3.23649e-19)
(1.17181 0.0549501 2.5646e-19)
(1.36362 -0.0341665 -4.02716e-19)
(1.32317 0.0485578 -1.6017e-19)
(1.51005 -0.0443146 -3.40843e-19)
(1.46942 0.0313652 -2.45278e-19)
(1.65115 -0.0521252 -6.72995e-19)
(1.61308 0.0111474 1.9574e-19)
(1.73559 0.00456228 3.25012e-21)
(1.79046 -0.0420568 -5.02153e-19)
(0.532411 -0.243674 -2.03738e-19)
(0.561235 -0.316783 -1.69172e-19)
(0.619102 -0.0354877 1.67363e-19)
(0.575166 0.00562892 -2.82469e-19)
(0.715768 0.0413816 2.29072e-19)
(0.679086 0.10785 2.06104e-19)
(0.830878 0.0899412 -2.11107e-19)
(0.796247 0.167301 0)
(0.964844 0.122588 -5.42766e-19)
(0.929511 0.207867 -2.35123e-19)
(1.1126 0.137402 -1.2256e-19)
(1.08037 0.227085 -3.14852e-19)
(1.2653 0.133133 4.63032e-19)
(1.23648 0.222822 3.10149e-19)
(1.41438 0.113707 -3.67215e-21)
(1.3878 0.198466 4.54575e-19)
(1.55504 0.0877319 2.29598e-19)
(1.52701 0.163733 -4.61055e-19)
(1.68762 0.0659669 8.7871e-19)
(1.65936 0.128329 7.28254e-19)
(1.77539 0.110612 4.82566e-20)
(1.82051 0.0613106 -5.24934e-19)
(0.539583 -0.0901889 -2.35834e-19)
(0.595112 -0.170339 1.66236e-19)
(0.636755 0.138344 -3.03437e-19)
(0.58729 0.181208 -2.71474e-19)
(0.747115 0.229699 0)
(0.718931 0.300914 3.15806e-19)
(0.878464 0.282726 0)
(0.855744 0.367308 -2.17358e-20)
(1.02868 0.309994 0)
(1.00882 0.40297 -1.63399e-19)
(1.18785 0.310637 3.94083e-20)
(1.17335 0.405935 0)
(1.34338 0.287087 2.81084e-19)
(1.33258 0.378679 2.47077e-19)
(1.48649 0.248111 9.90848e-20)
(1.47633 0.331109 -3.88219e-20)
(1.61532 0.205608 -1.05221e-19)
(1.60097 0.277809 -2.15173e-19)
(1.73353 0.171706 -3.02053e-20)
(1.7147 0.229382 -9.78922e-20)
(1.81749 0.20039 -2.34367e-19)
(1.8484 0.155357 3.7702e-19)
(0.560475 0.0811501 1.7018e-19)
(0.65396 -0.0040278 3.13066e-20)
(0.676462 0.330129 2.79611e-19)
(0.624834 0.383021 -3.77693e-19)
(0.809561 0.433353 3.14252e-19)
(0.800618 0.51101 3.46369e-19)
(0.964811 0.483621 -1.76232e-19)
(0.966295 0.575367 1.57474e-19)
(1.134 0.49462 -1.80235e-19)
(1.14099 0.592302 -2.32815e-19)
(1.30051 0.4704 1.62387e-19)
(1.312 0.565179 5.59053e-20)
(1.45003 0.420904 -3.66636e-20)
(1.46176 0.506711 2.78206e-19)
(1.57746 0.360797 -3.00378e-19)
(1.58521 0.43483 -2.69223e-19)
(1.68645 0.303785 -2.28479e-19)
(1.6858 0.366422 0)
(1.78502 0.260493 -2.87525e-19)
(1.77494 0.310567 2.09761e-20)
(1.86005 0.274631 -3.68047e-19)
(1.88453 0.239234 3.87768e-19)
(0.617231 0.29311 -5.29657e-19)
(0.79724 0.201592 -2.40649e-19)
(0.76261 0.54149 -4.5297e-19)
(0.738471 0.588707 -1.37216e-19)
(0.929234 0.647398 2.23627e-19)
(0.956465 0.728836 -2.35019e-19)
(1.11378 0.67803 1.3262e-19)
(1.15804 0.768111 2.5414e-19)
(1.29571 0.655591 -2.993e-20)
(1.34118 0.743603 1.02683e-19)
(1.45473 0.596091 1.46947e-19)
(1.49617 0.67425 -6.38706e-20)
(1.58204 0.518983 1.06951e-19)
(1.61535 0.584862 -6.80501e-20)
(1.6813 0.442017 0)
(1.70407 0.496646 0)
(1.76267 0.377047 2.35593e-19)
(1.77255 0.423121 6.47834e-20)
(1.83762 0.330505 -2.88272e-20)
(1.83375 0.36939 2.65705e-19)
(1.9001 0.335308 -1.71097e-19)
(1.91238 0.299094 4.70291e-19)
(0.688133 0.417394 1.20349e-19)
(1.12516 0.445465 -2.05774e-19)
(0.8799 0.74193 -6.22254e-20)
(0.911571 0.863836 2.43952e-19)
(1.11663 0.82385 -2.32943e-19)
(1.30434 0.870539 -2.81987e-19)
(1.32896 0.81202 1.60285e-19)
(1.47352 0.849766 7.71122e-20)
(1.50333 0.744944 3.54336e-20)
(1.60985 0.778856 7.87506e-20)
(1.63119 0.653309 -1.61869e-19)
(1.70707 0.682309 -6.04858e-20)
(1.71984 0.560493 -1.17347e-19)
(1.77272 0.585844 -1.03319e-19)
(1.78267 0.480397 5.69222e-20)
(1.81704 0.503438 1.64176e-19)
(1.83311 0.419859 7.20682e-20)
(1.8498 0.441574 -1.42283e-19)
(1.88356 0.380964 1.6262e-19)
(1.8823 0.402586 -2.70685e-20)
(1.92726 0.381074 1.83308e-19)
(1.9476 0.363415 5.42229e-19)
(1.45208 1.12183 4.79264e-19)
(3.25607 0.430262 2.80765e-18)
(1.66912 1.02255 -5.46755e-19)
(1.46461 0.383062 -1.59083e-18)
(1.76742 0.964506 -2.83186e-20)
(1.54787 0.395809 2.44394e-19)
(1.83612 0.859033 0)
(1.68606 0.440869 4.78785e-19)
(1.87265 0.74049 0)
(1.78266 0.43528 0)
(1.88303 0.633133 0)
(1.83781 0.408747 -2.856e-20)
(1.88653 0.543173 1.4253e-19)
(1.87792 0.383438 -5.97229e-20)
(1.88939 0.474849 -1.66459e-20)
(1.89673 0.364909 1.95628e-19)
(1.8976 0.430844 -2.66609e-19)
(1.90321 0.357558 -2.19337e-19)
(1.91816 0.410037 -3.00856e-20)
(1.91126 0.365023 1.89437e-20)
(1.93363 0.391054 -1.93527e-20)
(1.95276 0.407182 0)
(6.47701 -1.03101 -2.5857e-18)
(6.48628 -2.08411 4.74023e-18)
(6.67248 -1.58304 4.12361e-18)
(5.35927 -0.523003 8.61314e-19)
(6.63267 -1.59101 -2.51311e-18)
(6.1373 -0.669087 -4.3154e-18)
(6.29162 -1.44271 -6.57713e-19)
(6.40423 -0.788074 1.86684e-18)
(5.7887 -1.25274 4.02142e-19)
(6.12863 -0.736328 3.25886e-19)
(5.30119 -1.04237 -4.52499e-21)
(5.6981 -0.679081 3.5996e-19)
(4.89369 -0.865272 -7.46009e-20)
(5.21815 -0.607562 3.40966e-19)
(4.55554 -0.728062 -8.0081e-21)
(4.80083 -0.532299 -1.21922e-19)
(4.2662 -0.61887 1.98675e-20)
(4.4609 -0.464012 -9.72134e-20)
(4.01597 -0.535947 1.97078e-20)
(4.16745 -0.402596 2.19384e-20)
(3.91646 -0.361033 -4.9803e-20)
(3.77441 -0.482869 -3.00288e-19)
(3.87133 -0.835919 7.10452e-18)
(3.15419 -2.59164 6.07773e-18)
(4.99485 -0.38192 -2.68386e-18)
(3.3945 -0.815817 -6.37746e-20)
(5.68817 -0.286695 -7.71156e-19)
(4.78044 -0.208644 -1.56889e-18)
(6.02306 -0.323155 2.66203e-18)
(5.58259 -0.0188387 3.01681e-18)
(5.97635 -0.362668 2.94953e-19)
(5.85591 0.0812174 -9.06933e-19)
(5.6339 -0.372681 6.575e-19)
(5.78905 0.0785498 2.86194e-19)
(5.16948 -0.354407 6.07764e-19)
(5.43638 0.0288881 3.15094e-19)
(4.74796 -0.319909 -2.41831e-20)
(4.98432 -0.028632 -1.0728e-19)
(4.39918 -0.284216 -1.04938e-19)
(4.58508 -0.0625835 7.6134e-20)
(4.10062 -0.255792 -2.61597e-20)
(4.24817 -0.0747309 2.4334e-20)
(3.96461 -0.0863949 -1.90906e-19)
(3.81152 -0.251499 -2.24089e-20)
(2.55639 -2.06892 5.00351e-19)
(1.47909 -4.6228 -1.26972e-18)
(3.51614 -0.744022 5.4991e-19)
(2.4752 -2.184 1.06793e-18)
(4.46264 -0.0200333 1.29294e-18)
(3.55056 -0.767746 -8.67633e-19)
(5.18543 0.295182 1.77079e-20)
(4.48634 0.0383272 -1.39595e-19)
(5.56334 0.399247 -1.24957e-18)
(5.12804 0.500324 -1.00747e-18)
(5.57007 0.367378 -3.55455e-19)
(5.43065 0.676901 -3.14724e-19)
(5.27466 0.269824 0)
(5.35639 0.654229 0)
(4.85819 0.173238 1.46826e-19)
(5.01945 0.525567 -7.804e-19)
(4.47532 0.10956 3.59488e-19)
(4.62121 0.389871 4.59896e-19)
(4.1478 0.0740564 -4.35595e-20)
(4.271 0.294697 -1.90982e-19)
(3.97743 0.218723 -3.69049e-19)
(3.84695 0.0375676 -9.68815e-20)
(1.68844 -4.81193 -8.365e-19)
(1.08776 -6.2539 -1.39243e-18)
(2.5791 -2.20183 -7.56803e-20)
(1.88255 -3.7419 7.90336e-19)
(3.49791 -0.660845 -1.79983e-18)
(2.72763 -1.7595 -2.04836e-18)
(4.31106 0.255289 -8.77152e-19)
(3.60443 -0.394024 2.70248e-20)
(4.90347 0.750258 -1.40388e-19)
(4.35713 0.502266 9.2362e-19)
(5.1833 0.919716 0)
(4.86665 0.990205 1.28244e-18)
(5.12569 0.862216 -6.84627e-19)
(5.03172 1.13666 -1.45521e-18)
(4.82721 0.700307 -6.02064e-19)
(4.87493 1.04287 1.26841e-18)
(4.46253 0.540607 3.00611e-19)
(4.54958 0.8511 -2.3353e-19)
(4.13478 0.422621 -4.22212e-19)
(4.21031 0.67847 7.83476e-19)
(3.92102 0.539134 -4.01447e-19)
(3.81936 0.301428 -1.88996e-19)
(1.32705 -5.63405 0)
(0.996305 -6.75154 -4.0071e-19)
(1.95802 -3.47166 -8.75244e-19)
(1.45635 -5.02023 3.12262e-19)
(2.76601 -1.56672 -4.53142e-19)
(2.11995 -2.86253 -7.47315e-19)
(3.5635 -0.175866 1.60194e-18)
(2.91579 -1.08704 -1.17106e-19)
(4.23016 0.733286 2.15058e-18)
(3.67211 0.214012 1.39899e-18)
(4.66209 1.20398 1.31824e-19)
(4.26543 1.04478 1.84966e-18)
(4.79101 1.30984 3.31759e-19)
(4.58254 1.43381 -1.10489e-18)
(4.64439 1.18073 1.93977e-18)
(4.58652 1.46016 2.32618e-18)
(4.35069 0.971456 2.95062e-19)
(4.36857 1.27737 -1.17025e-18)
(4.04076 0.781003 1.19958e-18)
(4.07357 1.05273 9.11168e-19)
(3.79097 0.860096 -1.05531e-19)
(3.7366 0.583107 1.52358e-19)
(1.21775 -6.31323 -1.91066e-19)
(1.07901 -6.93459 -1.11814e-18)
(1.54617 -4.66154 5.54659e-19)
(1.30328 -5.86454 3.1429e-19)
(2.20345 -2.56798 -4.76724e-19)
(1.68327 -3.94833 2.34185e-19)
(2.93988 -0.809114 -4.76717e-19)
(2.3645 -1.91652 -1.48076e-18)
(3.61181 0.472112 1.1444e-18)
(3.07822 -0.264722 4.86104e-19)
(4.1124 1.26037 9.58316e-19)
(3.68817 0.900711 -3.34693e-20)
(4.36115 1.58901 4.79576e-19)
(4.08526 1.55961 -1.0387e-18)
(4.34382 1.56557 -3.64951e-19)
(4.20669 1.758 -1.42388e-18)
(4.14252 1.36183 -9.1339e-19)
(4.09233 1.6386 2.58192e-19)
(3.87897 1.1246 -1.99513e-19)
(3.861 1.39433 -3.91389e-19)
(3.60403 1.15425 -4.28407e-19)
(3.59435 0.845998 -4.07617e-19)
(1.25142 -6.6072 -7.91301e-19)
(1.13046 -7.10102 9.14953e-19)
(1.35135 -5.3698 0)
(1.29368 -6.28074 -5.12291e-19)
(1.80763 -3.51082 -5.83995e-19)
(1.43482 -4.86832 -4.13115e-19)
(2.43376 -1.53844 -7.21714e-19)
(1.94292 -2.79046 1.64801e-20)
(3.06183 0.0565691 -5.8097e-19)
(2.57154 -0.864427 -2.89639e-20)
(3.57501 1.14837 -1.98685e-18)
(3.15262 0.610138 1.13813e-20)
(3.88843 1.7192 -2.88809e-18)
(3.57599 1.54213 -5.71862e-20)
(3.96592 1.84394 -9.64016e-19)
(3.77081 1.93875 -7.39145e-19)
(3.85088 1.68949 8.01465e-19)
(3.74249 1.9214 8.70838e-19)
(3.64121 1.43358 -6.14807e-19)
(3.57813 1.6932 -5.70398e-19)
(3.38054 1.404 1.21589e-19)
(3.4109 1.13461 -2.96444e-19)
(1.26697 -6.84843 1.41046e-18)
(1.15444 -7.26636 2.61141e-18)
(1.30377 -5.92879 -9.41766e-19)
(1.31748 -6.56111 -1.23605e-18)
(1.54912 -4.37045 1.43606e-19)
(1.32949 -5.49751 -4.82269e-20)
(2.03113 -2.31886 7.17964e-19)
(1.63614 -3.60818 1.29229e-18)
(2.58105 -0.460578 5.62707e-19)
(2.14521 -1.52411 -1.41775e-19)
(3.0655 0.914628 1.87444e-18)
(2.66325 0.219213 9.28109e-20)
(3.39918 1.72776 2.09543e-18)
(3.07148 1.41121 1.38419e-18)
(3.5371 2.02031 9.12509e-19)
(3.30026 2.01225 1.64707e-19)
(3.49557 1.94595 -3.17937e-19)
(3.33649 2.11837 3.82305e-19)
(3.34281 1.69766 7.79233e-20)
(3.23609 1.93553 -8.12418e-19)
(3.11004 1.64287 4.80489e-19)
(3.13685 1.38866 2.98473e-18)
(1.27441 -7.05595 4.56852e-19)
(1.16383 -7.44335 2.09831e-18)
(1.2958 -6.25878 -4.46635e-19)
(1.32262 -6.80309 -1.07106e-18)
(1.3931 -4.94547 9.83351e-19)
(1.28023 -5.89233 7.5755e-19)
(1.72303 -3.03419 5.83345e-19)
(1.42504 -4.30567 -2.73024e-19)
(2.16301 -1.0267 -6.31723e-19)
(1.79179 -2.18966 -1.13444e-19)
(2.5856 0.592633 -5.32313e-19)
(2.21607 -0.237517 -7.30588e-19)
(2.90435 1.63526 -4.80958e-19)
(2.57692 1.19011 -6.28251e-20)
(3.07267 2.09975 -3.89838e-19)
(2.80687 1.98822 -4.59971e-19)
(3.09058 2.12234 2.08839e-20)
(2.8862 2.22458 -7.49905e-20)
(3.0061 1.90243 -5.05428e-19)
(2.8436 2.09821 -5.40881e-20)
(2.7773 1.8088 1.83651e-20)
(2.87724 1.57357 1.65043e-18)
(1.26893 -7.25199 9.68842e-19)
(1.16761 -7.61511 2.25508e-18)
(1.27397 -6.53268 -4.68428e-20)
(1.31879 -7.01295 -1.11042e-18)
(1.30734 -5.41388 -3.79729e-19)
(1.2475 -6.19006 3.74531e-19)
(1.48737 -3.68122 -9.92225e-19)
(1.28817 -4.84962 -8.65515e-19)
(1.79795 -1.60717 -1.44937e-19)
(1.49971 -2.81994 4.52549e-19)
(2.13229 0.207823 -3.20867e-19)
(1.80475 -0.733385 -5.00199e-19)
(2.40752 1.45752 -4.3689e-21)
(2.09203 0.89613 6.0937e-20)
(2.58095 2.08667 -1.91988e-19)
(2.2967 1.87403 5.96374e-21)
(2.64261 2.21174 -1.48862e-19)
(2.40022 2.23798 -4.64297e-19)
(2.61676 2.03493 4.80052e-19)
(2.4108 2.17935 4.10348e-19)
(2.40459 1.91456 5.23555e-20)
(2.54473 1.74827 -9.25765e-19)
(1.25646 -7.42594 5.51062e-19)
(1.15485 -7.74306 4.84034e-20)
(1.25278 -6.76948 -8.39815e-19)
(1.2949 -7.21448 9.30937e-19)
(1.25075 -5.77094 3.25967e-20)
(1.20663 -6.4497 -6.7745e-19)
(1.30371 -4.20877 4.46901e-19)
(1.18592 -5.25834 5.67573e-19)
(1.47662 -2.17253 2.02151e-19)
(1.25332 -3.38982 6.34887e-21)
(1.70062 -0.224633 -1.64775e-19)
(1.4235 -1.24987 3.19304e-19)
(1.90868 1.20165 8.49593e-20)
(1.61593 0.538877 -2.57663e-19)
(2.06722 1.98102 -2.17386e-19)
(1.77482 1.67194 -1.57268e-19)
(2.16106 2.20789 0)
(1.88772 2.15313 1.82592e-19)
(2.19547 2.08497 3.02171e-20)
(1.94839 2.16549 -3.74595e-19)
(1.99514 1.94112 3.78196e-21)
(2.18558 1.82486 2.02093e-20)
(1.24089 -7.58402 3.04506e-19)
(1.12448 -7.87595 -1.0505e-18)
(1.22025 -6.97995 1.24007e-18)
(1.25088 -7.39 8.74378e-19)
(1.17859 -6.05637 -2.70839e-19)
(1.14839 -6.66181 -3.51785e-19)
(1.14656 -4.63655 1.95821e-19)
(1.07995 -5.57753 5.33295e-19)
(1.18888 -2.69524 9.44564e-20)
(1.03533 -3.87819 4.44324e-19)
(1.28855 -0.682671 2.52481e-19)
(1.06762 -1.75908 -6.74932e-19)
(1.41133 0.87841 -5.11266e-19)
(1.14928 0.132224 -4.94766e-19)
(1.53966 1.7835 2.07189e-19)
(1.24788 1.38477 3.99139e-20)
(1.65689 2.10403 -1.44297e-19)
(1.36045 1.96454 1.83181e-19)
(1.75005 2.04047 -4.46719e-19)
(1.46873 2.04719 -5.96832e-19)
(1.58451 1.86328 -1.68026e-19)
(1.82071 1.82389 1.56166e-18)
(1.207 -7.71668 -7.50311e-19)
(1.09927 -7.98051 5.08019e-19)
(1.15702 -7.15383 -5.84686e-19)
(1.19504 -7.51951 7.8058e-19)
(1.08388 -6.2935 3.63443e-19)
(1.07191 -6.84363 -6.19095e-19)
(0.987616 -4.99518 8.04299e-19)
(0.952348 -5.84067 -1.06944e-18)
(0.920878 -3.16725 -1.92381e-19)
(0.819289 -4.3056 1.75947e-18)
(0.892778 -1.15197 -1.48055e-18)
(0.729153 -2.2505 -6.93083e-19)
(0.918518 0.492572 0)
(0.692245 -0.316265 0)
(1.00887 1.49168 0)
(0.725144 1.0106 0)
(1.14445 1.89362 -1.95377e-19)
(0.834455 1.66675 -3.4483e-19)
(1.2915 1.89155 -3.63361e-19)
(0.987321 1.82032 4.87424e-19)
(1.18325 1.69598 1.1992e-19)
(1.425 1.71768 1.71081e-18)
(1.16764 -7.80852 2.01416e-18)
(1.07378 -8.03417 9.95468e-19)
(1.08687 -7.2867 8.68723e-19)
(1.11837 -7.60765 1.61461e-18)
(0.971373 -6.49223 -2.00677e-18)
(0.973522 -6.9812 -2.92233e-19)
(0.819446 -5.31036 -4.51754e-19)
(0.802881 -6.06486 -1.04699e-18)
(0.653582 -3.61036 1.55405e-18)
(0.587379 -4.6863 -7.816e-19)
(0.510867 -1.63442 7.42409e-19)
(0.403478 -2.73807 6.71886e-19)
(0.440088 0.043114 0)
(0.252516 -0.809218 8.74343e-19)
(0.489863 1.10108 -3.07989e-19)
(0.220353 0.546929 5.44507e-19)
(0.643342 1.57051 2.85634e-19)
(0.329874 1.25465 -7.53193e-19)
(0.847995 1.63619 1.01648e-18)
(0.527762 1.47553 1.46047e-18)
(0.790019 1.42467 -1.29887e-19)
(1.04741 1.52986 1.45627e-19)
(1.10851 -7.86207 5.43444e-19)
(1.04878 -8.05338 4.85172e-19)
(0.996725 -7.37515 5.89621e-19)
(1.02069 -7.6519 1.45842e-18)
(0.837865 -6.64834 7.63514e-19)
(0.853703 -7.06389 5.50424e-20)
(0.626151 -5.58066 -1.39526e-18)
(0.631325 -6.23167 9.87537e-19)
(0.376718 -4.01834 -1.81731e-18)
(0.342396 -5.0249 -8.3906e-19)
(0.140993 -2.12991 7.82577e-19)
(0.0807656 -3.23259 1.15981e-18)
(-0.00750877 -0.467943 1.4561e-18)
(-0.15417 -1.35309 7.68429e-19)
(0.00470398 0.612427 1.59608e-19)
(-0.244878 -0.00169702 -4.48436e-19)
(0.175122 1.13224 2.10907e-19)
(-0.131457 0.730812 3.31693e-19)
(0.436312 1.27018 4.89463e-19)
(0.114222 1.01194 -3.51056e-19)
(0.442358 1.05067 -1.03668e-19)
(0.70304 1.23429 -3.81118e-19)
(1.03564 -7.87253 1.247e-18)
(1.02319 -8.02672 1.83292e-18)
(0.887956 -7.40633 1.06978e-18)
(0.906245 -7.647 -7.13192e-19)
(0.683208 -6.73352 1.94205e-19)
(0.711604 -7.09198 -5.90026e-19)
(0.415664 -5.79691 1.79819e-18)
(0.438551 -6.33369 9.60302e-19)
(0.0855101 -4.42519 1.94498e-18)
(0.0928151 -5.28962 1.2939e-19)
(-0.219932 -2.65786 1.20363e-18)
(-0.242101 -3.75742 -1.08026e-18)
(-0.433506 -1.04582 -9.8713e-19)
(-0.524552 -1.95381 -1.66402e-18)
(-0.435599 0.0229432 -2.35549e-19)
(-0.644102 -0.642055 -9.96858e-19)
(-0.231807 0.579976 -1.0856e-19)
(-0.519348 0.0885982 7.43179e-19)
(0.0817622 0.788769 -8.79615e-19)
(-0.23619 0.432026 -1.51342e-18)
(0.180394 0.555672 9.93351e-20)
(0.423409 0.8916 9.02998e-19)
(0.945831 -7.83085 1.172e-19)
(0.985691 -7.9329 9.33585e-19)
(0.757426 -7.38756 -2.3736e-18)
(0.769663 -7.58187 -7.79292e-19)
(0.506131 -6.76666 0)
(0.540133 -7.06827 -5.62342e-19)
(0.185157 -5.92416 -6.17113e-19)
(0.220482 -6.39035 0)
(-0.198605 -4.7811 -2.75494e-18)
(-0.1628 -5.48632 6.01602e-20)
(-0.562945 -3.25441 -3.83982e-18)
(-0.546794 -4.2599 -2.03151e-19)
(-0.793693 -1.70706 -1.7038e-18)
(-0.844262 -2.66717 -1.35525e-18)
(-0.799586 -0.669991 0)
(-0.964819 -1.37457 0)
(-0.566135 -0.0913674 -4.12735e-19)
(-0.817673 -0.657737 -3.5422e-19)
(-0.203422 0.194976 -7.01898e-19)
(-0.500153 -0.259746 7.05212e-19)
(-0.0264087 -0.00179428 -4.27328e-19)
(0.17549 0.324002 -3.17702e-20)
(0.827583 -7.72049 2.50239e-19)
(0.922194 -7.75356 -8.66181e-19)
(0.595342 -7.30658 1.03786e-18)
(0.603243 -7.44107 2.60875e-18)
(0.296192 -6.75183 -6.17153e-19)
(0.328351 -6.98354 -2.08812e-18)
(-0.0685606 -6.02675 6.34512e-19)
(-0.0367996 -6.40899 1.52122e-18)
(-0.475314 -5.08112 2.55149e-18)
(-0.440637 -5.67275 6.6005e-19)
(-0.864971 -3.85678 2.30841e-18)
(-0.822643 -4.71672 7.95256e-19)
(-1.08294 -2.49298 1.46644e-19)
(-1.09827 -3.46562 8.17307e-19)
(-1.0687 -1.46106 -3.1571e-19)
(-1.18833 -2.23603 -5.18003e-19)
(-0.793878 -0.861835 5.55241e-19)
(-1.00287 -1.50946 8.68388e-20)
(-0.404363 -0.490852 7.77091e-19)
(-0.662501 -1.04726 6.51853e-19)
(-0.148567 -0.650975 -2.06204e-19)
(-0.0102703 -0.221547 -1.27782e-19)
(0.675311 -7.52011 1.1297e-18)
(0.812353 -7.46651 3.55367e-19)
(0.391722 -7.14539 1.29689e-19)