/*--------------------------------*- C++ -*----------------------------------*\
| =========                 |                                                 |
| \\      /  F ield         | OpenFOAM: The Open Source CFD Toolbox           |
|  \\    /   O peration     | Version:  3.0.1                                 |
|   \\  /    A nd           | Web:      www.OpenFOAM.org                      |
|    \\/     M anipulation  |                                                 |
\*---------------------------------------------------------------------------*/
FoamFile
{
    version     2.0;
    format      ascii;
    class       volScalarField;
    location    "0.804414";
    object      epsilon;
}
// * * * * * * * * * * * * * * * * * * * * * * * * * * * * * * * * * * * * * //

dimensions      [0 2 -3 0 0 0 0];

internalField   nonuniform List<scalar> 
21246
(
645.543
264.524
61.0908
16.3497
4.26432
1.30109
0.569802
0.366385
0.299925
0.278928
0.279892
829.556
424.539
119.41
27.481
6.70909
1.87629
0.715227
0.415346
0.330376
0.310899
0.321432
822.989
420.252
153.415
44.4085
10.5864
2.60605
0.909298
0.478777
0.365315
0.345702
0.36984
689.458
370.728
162.392
54.6815
14.9793
3.47024
1.12075
0.548587
0.400592
0.377293
0.40988
532.018
326.38
161.81
61.422
19.0399
4.80853
1.3541
0.620392
0.434277
0.403764
0.438584
394.61
289.22
159.188
67.9713
23.7714
6.7089
1.83772
0.71184
0.466318
0.425089
0.459334
282.383
257.731
156.068
74.7357
29.4551
9.41261
2.68971
0.912965
0.511548
0.442564
0.475885
194.891
230.658
152.973
81.2882
35.8341
12.9866
4.06439
1.30615
0.604975
0.465824
0.486706
131.849
207.058
150.86
87.8687
42.8585
17.5099
6.13985
2.02728
0.806341
0.515346
0.499341
89.6759
186.745
150.171
94.8627
50.6481
23.1007
9.11958
3.26301
1.22077
0.632606
0.52747
66.5558
172.034
151.207
102.224
58.9509
29.5942
13.0559
5.17794
1.98705
0.891622
0.600916
63.6352
163.332
154.58
110.482
67.6674
36.7248
17.8427
7.85011
3.24303
1.39684
0.77519
71.6759
152.057
158.612
120.625
77.6294
44.754
23.5258
11.3592
5.12464
2.27879
1.13763
73.3899
129.011
156.199
131.682
89.769
54.372
30.3862
15.8461
7.77798
3.68757
1.80838
66.8322
98.8241
140.08
138.103
103.036
65.8499
38.6833
21.4399
11.3149
5.76019
2.92534
56.6155
71.0581
112.326
132.771
113.504
78.5161
48.6328
28.3796
15.9022
8.64307
4.63781
45.5302
49.2099
81.9412
113.788
115.087
89.4517
59.61
36.7339
21.7059
12.4967
7.09848
35.9585
33.3648
55.8359
86.8861
104.205
93.833
69.2598
45.7882
28.6215
17.3805
10.4163
29.07
22.8211
36.2295
59.7699
83.272
88.287
74.2533
53.8855
36.0467
23.1316
14.5815
25.5264
16.7517
23.0664
38.1802
59.8274
74.6328
72.7247
59.0328
42.761
29.0911
19.2538
27.1404
15.1119
17.2448
25.7365
40.8872
58.7508
65.6358
59.6093
46.7954
33.6319
23.2271
40.7235
22.271
21.9572
26.7406
34.5192
45.7642
55.7813
54.5725
45.5898
34.1627
24.3262
142.544
72.7736
71.0025
67.1175
60.4821
52.8473
45.8815
39.6708
33.9835
27.5168
20.3546
261.503
186.402
152.528
134.179
119.698
104.941
88.7253
72.1263
56.4927
41.2453
27.2476
576.893
152.716
45.3309
11.3769
3.08036
1.05301
0.510141
0.341387
0.278637
0.2525
0.242264
506.623
124.535
35.8474
11.5641
3.49524
1.2108
0.55863
0.353894
0.277917
0.245236
0.230235
494.11
141.229
36.9675
13.5701
4.69045
1.66916
0.702318
0.398481
0.291453
0.247017
0.225863
439.002
134.537
34.9448
13.8056
5.24433
2.03698
0.881235
0.474882
0.325941
0.264424
0.236026
380.488
114.371
32.1612
13.3438
5.24074
2.104
0.938559
0.52063
0.360523
0.29124
0.257739
332.547
95.2461
29.2907
12.5125
5.0399
2.09828
0.964665
0.547396
0.384805
0.314725
0.282422
294.665
80.4254
26.7723
11.6761
4.797
2.05801
0.975637
0.566797
0.405989
0.338164
0.309519
263.911
69.2109
24.621
10.9572
4.59383
2.02833
0.986541
0.585179
0.426631
0.361968
0.338039
240.663
60.8799
22.9159
10.4127
4.47455
2.02937
1.00797
0.607413
0.44811
0.383943
0.360888
223.641
54.7342
21.6416
10.0604
4.45247
2.06732
1.04681
0.637963
0.47355
0.40755
0.384622
211.618
50.4756
20.7848
9.90076
4.53043
2.15167
1.10827
0.680082
0.505349
0.435036
0.411342
202.963
47.3364
20.1932
9.8983
4.69261
2.28277
1.19498
0.735938
0.545048
0.46724
0.440516
197.703
45.1306
19.8594
10.0518
4.94562
2.46846
1.31237
0.808745
0.594462
0.504935
0.472556
194.803
44.7061
19.9657
10.4273
5.33612
2.73821
1.47671
0.905914
0.657688
0.551358
0.508386
194.025
45.1932
20.4098
10.9878
5.87962
3.12737
1.72267
1.05405
0.751544
0.617852
0.558694
195.702
46.7323
21.268
11.7648
6.59479
3.66316
2.07928
1.2778
0.895492
0.721132
0.641025
200.23
49.5227
22.6849
12.8298
7.52348
4.38738
2.59041
1.61785
1.12427
0.89082
0.785559
208.647
53.6957
24.7978
14.2785
8.72543
5.35497
3.3159
2.13514
1.49429
1.17769
1.04171
222.68
59.6863
27.8852
16.2916
10.315
6.6547
4.34324
2.91995
2.09475
1.6657
1.48884
245.32
68.4706
32.4784
19.2128
12.5168
8.44636
5.81051
4.10819
3.06217
2.48881
2.25187
282.759
81.9705
39.584
23.6964
15.7784
11.0461
7.96538
5.92
4.60921
3.85628
3.52966
349.8
104.252
51.2647
31.0806
21.0337
15.1239
11.3101
8.76309
7.09847
6.11049
5.63888
487.212
150.807
74.882
45.6296
31.109
22.6922
17.3484
13.8181
11.5253
10.1907
9.60142
906.19
253.336
130.618
83.4025
59.2316
44.8353
35.7296
30.0845
26.8885
25.2394
23.5566
230.244
71.1657
37.2906
20.6417
10.7568
5.07558
2.19926
0.918153
0.38145
0.160917
0.0726349
224.441
66.179
34.779
19.1784
9.86909
4.62966
2.00831
0.831001
0.33759
0.138714
0.0609782
162.929
61.1552
33.7616
19.458
10.359
4.95353
2.15604
0.884052
0.353362
0.14221
0.0605588
127.502
52.504
31.3956
19.4748
11.0165
5.49174
2.44675
1.01184
0.402481
0.157962
0.0648974
103.027
44.2558
27.7352
18.327
11.1042
5.90075
2.74545
1.14666
0.445246
0.16804
0.0664003
88.3603
37.8374
24.442
16.7154
10.5072
5.80834
2.79288
1.19394
0.471223
0.179085
0.0710475
77.0561
32.7543
21.7156
15.2221
9.79533
5.55855
2.7444
1.20104
0.483764
0.187114
0.0747333
69.8696
29.2163
19.5475
13.855
9.05839
5.23386
2.63675
1.17826
0.484321
0.191309
0.0795379
64.3315
26.5815
17.8041
12.6919
8.38171
4.90413
2.50918
1.14194
0.479289
0.193894
0.0825743
59.9552
24.5669
16.4284
11.7521
7.81433
4.61371
2.38877
1.10378
0.471976
0.194885
0.0838396
56.3156
22.959
15.3285
10.9962
7.35128
4.37208
2.28528
1.06895
0.463808
0.194419
0.0856456
53.6843
21.6465
14.4225
10.3719
6.9672
4.17109
2.19883
1.03947
0.456662
0.193993
0.0866556
51.9406
20.615
13.6946
9.87427
6.66588
4.01743
2.13533
1.01931
0.452872
0.194725
0.0876535
50.6249
19.8612
13.1492
9.5123
6.45986
3.92235
2.10218
1.01241
0.453989
0.196918
0.0898501
50.1439
19.3243
12.7417
9.25512
6.33185
3.87958
2.09899
1.0199
0.460961
0.201069
0.0917386
50.4645
18.9979
12.4723
9.10805
6.29084
3.89875
2.13297
1.04596
0.475794
0.207998
0.0946491
51.3097
18.9151
12.3647
9.09435
6.36115
4.00034
2.21791
1.09796
0.501674
0.218839
0.098911
53.2586
19.1418
12.4286
9.22245
6.55628
4.20201
2.36888
1.18508
0.543161
0.235496
0.104738
56.8312
19.8274
12.7482
9.53118
6.91597
4.55018
2.62064
1.32458
0.609115
0.261925
0.114253
62.6661
21.1568
13.3925
10.0434
7.4408
5.05059
3.00873
1.56448
0.729094
0.313176
0.133723
72.159
23.4941
14.4928
10.8301
8.17144
5.73609
3.56783
1.9403
0.938405
0.413762
0.176341
89.1327
26.9324
16.2505
11.9866
9.1538
6.63473
4.33493
2.50695
1.29472
0.608733
0.270591
118.363
34.832
19.5472
13.9235
10.5908
7.86125
5.39681
3.35576
1.89483
0.984083
0.480263
210.047
39.7987
24.0229
16.916
12.8769
9.76404
7.05663
4.75932
2.98474
1.75012
0.972338
205.314
104.548
60.3775
34.9519
19.3287
8.99807
3.6503
1.46364
0.576748
0.236091
0.103232
152.794
105.388
78.1307
53.5315
33.9113
19.233
9.41096
3.69345
1.12832
0.403195
0.168638
108.752
106.462
91.3648
69.3976
48.7754
31.312
17.8642
8.63064
3.27071
0.857869
0.301699
119.906
76.0764
92.2206
83.8769
63.8442
44.2497
27.87
15.5001
7.22683
2.56531
0.692734
131.723
74.1103
81.2252
97.2522
85.0898
61.8484
40.695
24.36
12.8854
5.67332
1.94439
142.525
74.4034
71.2984
90.0015
103.745
86.6002
59.776
36.9532
20.7324
10.2671
4.26752
151.779
73.9221
63.9536
75.4644
98.3287
106.576
84.1953
55.0538
31.9701
16.7436
7.77281
158.873
72.6946
58.1961
63.5131
81.0066
104.717
103.489
76.1654
46.8355
25.5299
12.5525
165.329
71.2891
53.9297
54.4027
65.3848
88.0003
107.201
93.2547
62.8832
36.1241
18.615
171.815
70.1504
51.1976
47.9268
53.3891
70.337
95.5555
100.673
75.9882
46.6629
25.1994
179.081
69.6995
49.9799
43.734
45.1065
56.6818
80.4909
98.5787
83.3689
54.8558
31.0936
187.603
71.1787
50.2358
41.4876
39.9916
47.323
66.5227
89.936
85.0489
59.1932
35.1562
198.833
74.1475
51.7729
40.8927
37.3455
41.6943
55.9073
79.9927
82.9527
59.5572
36.4545
213.952
79.5714
54.6499
41.6325
36.4541
38.6789
48.1648
66.1722
80.0599
57.0586
35.4175
232.474
87.203
58.977
43.2576
35.9967
36.1065
42.0164
52.4755
63.6649
54.9628
32.4834
256.566
97.7352
65.2849
46.0183
35.9324
33.4534
35.9632
41.3758
47.3522
47.8205
31.5212
288.631
112.238
74.4954
50.609
36.9234
31.7202
31.5887
34.0683
37.4243
38.6379
30.7226
333.132
132.295
88.3481
58.5635
40.2693
32.1249
29.8151
30.12
31.2067
31.5486
29.439
398.543
160.827
111.098
74.2032
49.5163
37.7456
33.9893
33.7318
34.0508
33.3303
31.4484
499.12
201.324
150.656
109.99
78.5074
61.3848
55.416
54.4245
51.9234
47.0083
43.7583
491.857
224.459
179.793
140.329
106.887
88.2685
77.9329
65.8274
51.1565
40.2838
29.2022
518.046
222.051
185.08
153.825
118.181
90.9029
68.9529
50.6889
35.9652
25.048
16.5101
516.467
229.279
171.287
127.529
91.7736
65.1008
45.3981
31.1762
20.9718
13.7163
8.60989
424.04
200.722
115.646
73.2762
48.4632
32.6281
21.9782
14.5713
9.36886
5.77327
3.38691
253.972
79.7327
22.8468
4.52723
0.98495
0.284462
0.124732
0.0764875
0.0560691
0.0443653
0.0358622
372.579
121.188
20.9083
5.08801
1.24039
0.365278
0.144077
0.0777672
0.0517544
0.0383228
0.0296573
448.777
155.148
20.3148
5.95157
1.5262
0.47426
0.174611
0.0855769
0.051883
0.0355957
0.0258519
479.382
148.565
19.8584
6.38853
1.60293
0.548236
0.200285
0.0946991
0.0540797
0.0349946
0.0242434
485.158
129.162
19.0606
6.24948
1.55221
0.587362
0.216387
0.102987
0.0573281
0.0358285
0.0240627
484.59
112.355
18.1583
5.84536
1.48063
0.595414
0.224038
0.109339
0.060526
0.0371842
0.0245441
478.74
100.322
17.2843
5.37444
1.41774
0.585
0.226497
0.11382
0.0633258
0.0386883
0.0251396
465.572
91.549
16.4211
4.94254
1.36132
0.566617
0.22652
0.116995
0.0657918
0.0403693
0.0263425
452.275
85.0738
15.6492
4.6
1.31552
0.548663
0.226353
0.119716
0.0682124
0.0422081
0.0275421
444.499
81.3468
15.1599
4.37371
1.2897
0.537125
0.227844
0.122864
0.0709267
0.0443003
0.0288298
434.722
81.8132
14.9497
4.2434
1.28418
0.533147
0.231783
0.126998
0.0742379
0.0468309
0.0305108
422.46
83.0916
15.0109
4.17939
1.29437
0.53579
0.238432
0.132472
0.0784207
0.0500067
0.032545
410.488
85.4952
15.8975
4.32714
1.35075
0.552708
0.250296
0.140076
0.0839027
0.0541313
0.035348
398.818
90.649
18.1931
4.85375
1.51374
0.60101
0.274233
0.152603
0.0921358
0.059934
0.0393896
388.045
95.9076
21.1009
5.72015
1.79752
0.691311
0.313686
0.171645
0.103903
0.0679111
0.0450563
379.183
101.86
24.8947
7.08372
2.28259
0.857838
0.381169
0.202248
0.121329
0.0791627
0.0530337
372.138
109.907
30.2763
9.29471
3.14295
1.17872
0.509417
0.257665
0.149766
0.096163
0.0646382
368.686
119.173
36.993
12.5087
4.56152
1.77512
0.762242
0.368458
0.203114
0.125299
0.0829914
369.903
130.399
45.5162
17.1275
6.87646
2.87793
1.27839
0.6102
0.320153
0.185824
0.117631
377.901
144.415
56.6157
23.7994
10.6117
4.89001
2.33656
1.15894
0.604825
0.336206
0.200506
396.591
162.463
71.4258
33.6188
16.6923
8.54186
4.48415
2.4016
1.31652
0.742722
0.434558
434.687
185.54
91.4322
48.3724
26.8051
15.2425
8.83101
5.17977
3.07159
1.84297
1.12209
504.804
213.618
118.433
70.9881
44.0991
27.8447
17.7721
11.4174
7.36988
4.77891
3.11453
700.557
262.965
165.942
112.634
77.8197
53.8466
37.319
25.892
17.9807
12.5044
8.70451
342.844
106.025
22.0604
4.5438
0.985446
0.298948
0.141568
0.0932549
0.0728256
0.0612623
0.0529081
582.572
276.78
23.42
5.9246
1.33415
0.419498
0.191316
0.123737
0.0969321
0.0824952
0.071986
696.501
363.501
28.1223
7.70785
1.67233
0.559941
0.255027
0.166893
0.135026
0.120547
0.111091
705.437
320.883
30.6632
8.43376
1.81758
0.67529
0.31932
0.217821
0.185158
0.174874
0.171792
665.412
254.856
29.9992
8.05404
1.83124
0.75058
0.376483
0.270376
0.239632
0.235585
0.240859
614.199
203.633
27.7882
7.24518
1.78978
0.791924
0.425457
0.323612
0.300597
0.312378
0.344429
564.273
167.907
25.2744
6.44578
1.73318
0.813041
0.467284
0.375108
0.362004
0.389074
0.439882
516.252
142.109
22.8183
5.76665
1.6766
0.825563
0.504263
0.424563
0.422692
0.468878
0.555012
476.477
123.363
20.6721
5.23409
1.63217
0.837888
0.538679
0.471825
0.480603
0.54715
0.674896
445.926
109.544
18.9453
4.82902
1.6106
0.852503
0.572488
0.516211
0.533176
0.616405
0.779246
423.186
100.966
17.7005
4.55673
1.61913
0.870525
0.60748
0.55668
0.578352
0.669935
0.847162
403.375
95.5026
16.9683
4.43357
1.65249
0.894424
0.645176
0.592238
0.615758
0.706069
0.884006
387.5
92.4393
17.3065
4.57645
1.75745
0.942472
0.69288
0.627341
0.649781
0.732079
0.897497
375.019
92.349
18.942
5.08744
1.96543
1.02924
0.752642
0.665281
0.680194
0.748789
0.88838
365.976
93.7951
21.3901
5.97791
2.30938
1.17142
0.831006
0.710632
0.708454
0.757646
0.862653
360.785
97.0373
24.7913
7.39603
2.87481
1.40967
0.946357
0.772155
0.739207
0.762168
0.827347
359.731
102.572
29.4606
9.58511
3.8204
1.82788
1.14093
0.870094
0.783817
0.770007
0.792909
363.894
110.612
35.6542
12.8307
5.38654
2.5828
1.50682
1.05408
0.870526
0.798337
0.772358
374.668
121.897
43.9452
17.6042
7.96611
3.96743
2.24234
1.44781
1.0751
0.893721
0.79634
394.341
137.952
55.4889
24.7795
12.2568
6.53104
3.76339
2.3486
1.60212
1.1937
0.95532
427.306
160.96
72.3442
36.0396
19.6224
11.3722
6.94398
4.43948
2.97305
2.08836
1.53501
480.777
195.084
98.633
55.1173
33.2039
21.0187
13.79
9.30577
6.43978
4.56476
3.30909
567.961
240.017
137.767
87.1381
58.3079
40.3271
28.4553
20.4636
15.1458
11.529
9.02569
893.516
388.729
227.058
149.402
104.483
75.4748
55.5094
41.1787
30.5367
22.6071
16.6951
35.8068
22.5616
8.12851
3.83669
3.61546
4.65037
12.0598
33.1871
46.8499
16.0015
13.28
7.96934
3.69526
2.34202
4.8422
14.4688
19.7102
21.0739
10.5775
10.3668
7.17421
3.76977
2.57531
5.65554
13.7138
15.1461
13.173
6.86756
7.72789
6.12137
3.64871
2.83442
6.13424
11.5258
10.7054
8.17629
43.8193
48.0149
50.1493
49.974
49.0425
51.4725
58.9522
59.768
54.8524
15.7617
15.1471
15.2805
15.2896
15.6957
17.8174
19.6784
20.2794
20.0208
8.8903
7.79918
7.81665
8.14669
8.37287
9.39
10.4749
10.3299
10.6748
5.20128
4.34589
4.23207
4.45718
4.40481
4.74288
5.63646
5.67955
6.30937
0.0090078
0.00829822
0.008351
0.00561116
0.464727
0.00754823
0.133727
0.00810083
0.00751616
0.00692117
0.462257
0.00813271
0.0102425
0.00520234
0.0146005
0.00728608
0.00599797
0.00558027
0.0072501
0.00711319
0.00664102
0.0616353
0.0085178
0.117717
0.00792074
0.00513553
0.00987206
0.124084
1.53924
0.387784
0.00710555
0.00641391
0.00722261
0.0080721
0.0067851
0.00826738
0.107315
0.00790328
0.00816735
0.00757462
0.13579
0.00810293
0.0426887
0.00849251
0.719868
0.370426
0.0187016
0.514355
0.00689745
0.00732847
0.391611
0.00759757
0.0781394
0.0434697
0.00731805
0.00666988
0.0598803
0.00761981
1.40869
0.0159829
0.071763
0.0571056
0.522263
0.0350049
0.174919
0.00715187
0.374378
0.00727345
0.00829984
0.00690756
0.00515854
0.00705923
0.0146351
0.00744429
0.0189695
0.00703917
0.083155
0.00827966
0.0560084
1.17862
0.239683
0.0262745
0.00793572
0.00838112
0.0069786
0.0146203
1.48248
0.0360758
0.0194562
0.0996842
0.00809091
0.00766113
0.146134
0.00725668
1.15299
0.805159
0.0106521
0.00617498
0.0246877
0.00716755
0.00773289
0.36115
0.00677574
0.00616003
0.0149913
0.00811756
0.00459985
0.00845278
0.014156
0.00658368
0.00798284
0.00815339
0.00717329
0.00654208
0.0219835
0.0076897
0.00752096
0.00731868
0.00795624
0.00672284
0.0070113
0.00734889
0.00759766
0.00501355
0.285983
0.00853581
0.294717
0.00473182
0.00628333
0.00892354
0.00779841
0.0158962
0.441125
0.00703443
0.00834091
0.0081829
0.0631377
0.015835
0.408061
0.00731217
0.0456453
0.00660762
0.212218
0.00868279
0.00748934
0.0252409
0.0161587
0.00726559
0.00704169
0.00711268
0.00720678
0.00767763
0.0278382
0.00731715
0.00613743
0.0220437
0.0196677
0.0418467
0.00546841
0.00746857
0.00549281
0.0334403
0.00705442
0.00771006
0.385441
0.0247454
0.0201341
0.00764599
0.00692237
0.162556
0.00594511
0.00544655
0.00721833
0.00645846
0.00640467
0.00641175
0.00580275
0.0291264
0.743196
0.00695398
0.00726782
0.06521
0.0084978
0.113698
0.00796191
0.0124512
0.00716124
0.00727347
0.00825616
0.0800585
0.0133328
0.00531703
0.00719217
0.125572
0.00832724
0.00759328
0.00740851
0.0256068
0.00961134
0.00856734
0.0270484
0.00731579
0.0128502
0.00768993
0.00838711
0.0355025
0.00725244
0.00625206
0.00737495
0.00740641
0.115302
0.00759209
0.00827488
0.00670377
0.00792331
0.0438435
0.00797719
0.0247592
0.00720712
0.0112173
0.0111367
0.00660288
0.0102763
0.0223388
0.00481654
0.00763709
0.077294
0.022723
0.011681
0.151791
0.0414796
0.00714073
0.00719267
0.00734157
0.0279756
1.20988
0.321281
0.00845172
0.00815241
0.00811429
0.0248665
0.0329302
0.00612925
0.109608
0.00758837
0.0396397
0.00801097
0.00809842
0.476351
0.32323
0.00803383
0.11773
0.0101137
0.00728161
0.00601725
0.00744245
0.00674081
0.00785393
0.0195849
0.00714364
0.00836718
0.00987698
0.00738087
0.00820116
0.00797549
0.0167009
0.00659639
0.0077856
0.017652
0.00694504
0.215296
0.00730448
0.00729621
0.0175934
0.00756205
0.00735854
0.00531887
0.00776822
0.00691402
0.018651
0.00710962
0.00827523
0.242596
0.297414
0.00602992
0.00758344
1.08603
0.0082421
0.00681425
0.0452679
0.0083405
0.115235
0.00722169
0.00968425
0.00856418
0.00739835
0.00695887
0.00816904
0.00678311
0.00533961
0.00778456
0.00910254
0.00705833
0.395374
0.00678071
0.00656971
0.00828202
0.0633081
0.0633463
0.00742023
0.0872933
0.00816106
0.00643077
0.0069796
0.0846435
0.00656083
0.00712553
0.0145964
0.00670687
0.00733376
0.00714357
0.173128
0.00745967
0.00538494
0.0240512
0.00696309
0.0077887
0.0059659
0.00709512
0.19251
0.00741342
0.534027
0.0820509
0.00846254
0.0114684
0.816601
0.0163225
0.0082418
0.0078559
0.00598735
0.0294719
0.113352
0.00729648
0.0256843
0.19127
0.0643623
0.0218971
0.00753199
0.0922637
0.336552
0.115541
0.00591991
0.00700819
0.0068427
0.0132343
0.00860266
0.0118564
0.00695846
0.00849705
0.225404
0.00986452
0.00538485
0.00800297
0.00799142
0.00727302
0.019012
0.00512454
0.017146
0.143562
0.00694551
0.00774401
0.11136
0.650461
0.00478052
0.0119515
0.00831228
0.00905523
0.00674228
0.00752087
0.00713303
0.219009
0.00754684
0.0246948
0.00766244
0.00527921
0.329368
0.00848845
0.00478139
0.0319838
0.0228568
0.00771454
0.0538023
0.00465273
0.00756722
0.345712
0.186239
0.0078812
0.00722617
0.00835348
0.0365766
0.0192976
0.00764477
0.00850481
0.0465879
0.00784544
0.255251
0.0540743
0.0288763
0.00731275
0.171682
0.00752768
0.00720358
0.0106263
0.0101013
0.0303082
0.00638226
0.0135184
0.00763788
0.00485594
0.0430901
0.288942
0.00616252
0.160382
0.0125937
0.00627811
0.00657659
0.00738801
0.0281216
0.00742001
0.227105
0.00790355
0.0244948
0.00508964
0.00662832
0.00767495
0.0155995
0.190833
0.409238
0.00506326
0.00859981
0.00596236
1.27309
0.00576732
0.00876971
0.00703199
0.0286873
0.0209051
0.0397477
0.00741721
0.0348241
0.00775942
0.00833666
0.00793945
0.032138
0.0194831
0.152536
0.0059038
0.0288537
0.026633
0.00826129
0.00740454
0.31274
0.00505543
0.00598871
0.00756544
0.144317
0.116055
0.0902244
0.0916648
0.00738766
0.00657178
0.0172192
0.00703719
0.0697336
0.00720299
0.00823472
0.00733059
0.0347674
0.0333986
0.00717287
0.00777947
0.0066887
0.0959017
0.0672614
0.00845085
0.0243783
0.238447
0.00941918
0.0178643
0.00740805
0.0277551
0.00758569
0.00720878
0.00761824
0.00775692
0.00644674
0.0071602
0.00535505
0.00853623
0.00769624
0.00565663
0.00593298
0.00807293
0.00806906
0.49383
0.0229107
0.0132088
0.00743067
0.273094
0.00835681
0.272299
0.0162898
0.0246637
0.0206838
0.00788013
0.329214
0.0331453
0.00532578
0.00779022
0.00634811
0.0066704
0.00826891
0.00769112
0.00819039
0.00688647
0.213864
0.00801392
0.00745081
0.0846851
0.00775503
0.15982
0.00702683
0.0500259
0.00560908
0.0191943
0.00856319
0.00786184
0.00840516
0.120273
0.0345631
0.00795747
0.00791169
0.00499174
0.0083405
0.00632347
0.00830427
0.252832
0.00680904
0.0458215
0.00870191
0.00759514
0.436824
0.283636
0.0068139
0.00657528
0.0070221
0.00830371
0.0155056
0.0398873
0.00721572
0.00857987
0.334522
0.848942
0.0079154
0.00731517
0.00827605
0.0207382
0.335135
0.0191525
0.00808378
0.00749836
0.29522
0.00720312
0.00872825
0.00677971
0.0353123
0.347124
0.00771657
0.0206359
0.00781718
0.0347545
0.00736468
0.0196187
0.00605918
0.00641819
0.0887225
0.0338455
0.00841225
0.0085458
1.12833
0.00762652
0.00615863
0.00934834
0.0347686
0.0184986
0.0287157
0.0075916
0.00686743
0.00775347
0.00792838
0.715478
0.0156518
0.0120678
0.00712018
0.0079468
0.0435983
0.00712367
0.00735517
0.00719801
0.00700332
0.00839276
0.0155237
0.0344158
0.0181293
0.00621619
0.0106606
0.00725877
0.0583031
0.00700296
0.00781455
0.541101
0.164899
0.00755221
0.00756288
0.0602315
0.00674442
0.00738682
0.0194628
0.00831097
0.00679178
0.0101452
0.00932464
0.00828604
0.0049284
0.00569325
0.0393873
0.11202
0.0302194
0.0317921
0.00626273
0.0205493
0.0276193
0.00851868
0.00836358
0.00683624
0.0248928
0.0060675
0.00701466
0.00676652
0.00511281
0.0452007
0.422431
0.00608665
0.0102544
0.00769348
0.012417
0.00812333
0.00725183
0.00694497
0.0132255
0.00694774
0.00756529
0.00695235
0.00825783
0.0120082
0.0557595
0.147059
0.00699918
0.0071177
0.00754975
0.0502771
0.00728756
0.129408
0.00711684
0.0221045
0.14821
0.0077121
0.018992
0.00849645
0.00700106
0.0173706
0.00850702
0.465141
0.0055617
0.0066681
0.00841728
0.0125061
0.0050812
0.0333222
0.289596
0.00750367
0.00639702
0.00840396
0.00784493
0.00697718
0.0215274
0.00812816
0.00761821
0.00761092
0.00997885
0.0297604
0.00816631
0.00762839
0.00750755
0.0214027
0.00549905
0.00648323
0.0114161
0.106844
0.00968228
0.00638375
0.00631503
0.00844116
0.0391666
0.00655109
0.145021
0.00784417
0.00684373
0.00793075
0.0073737
0.0811038
0.00892608
0.0286554
0.00518743
0.00721169
0.00676483
0.00669678
0.0273683
0.0082433
0.377055
0.0448437
0.245391
0.00659099
0.01026
0.0274095
0.0181225
0.00732275
0.00881571
0.0335452
0.0123969
0.00804427
0.00541148
0.34899
0.00811408
0.149535
0.00922941
0.00754207
0.021482
0.00752954
0.00720002
0.00682923
0.00774613
0.00712804
0.0047978
0.00818587
0.00704037
0.00701656
0.0093682
0.0228245
0.141267
0.0134682
0.0072364
0.166536
0.284336
0.00782006
0.00485449
0.00710873
0.0329867
0.0101534
0.0436893
0.0076277
0.0215329
0.00875091
0.00896225
0.00722755
0.00695921
0.0076573
0.0130663
0.0654473
0.00860499
0.00792142
0.00733668
0.251728
0.176917
0.00755002
0.0081984
0.00700967
0.00696232
0.00814071
0.00822414
0.00837561
0.00789828
0.00756016
0.00563158
0.0508112
0.0904498
0.00481508
0.00682397
0.00769281
0.0079572
0.00671804
0.212102
0.00827655
0.00622337
0.00755348
0.240795
0.119658
0.0388476
0.00779208
0.0171504
0.00770505
0.00783726
0.228416
0.0071528
0.00816352
0.00675363
0.0344687
0.00602052
0.0059322
0.0081394
0.010597
0.129852
0.019666
0.00816025
0.0046701
0.0393021
0.0296117
0.0201364
0.00842971
0.00720845
0.00547337
0.0139642
0.0299708
0.00829436
0.00695267
0.00746483
0.00734571
0.00824652
0.0133059
0.00625633
0.148173
0.196991
0.0460418
0.00810207
0.464365
0.0085312
0.0071136
0.00778525
0.00792082
0.00766614
0.00767455
0.0140999
0.0577611
0.0221024
0.00765471
0.0117304
0.00768025
0.00859769
0.00732177
0.00754944
0.00679876
0.00794055
0.00814621
0.00725333
1.054
0.00753702
0.0071418
0.00969698
0.155752
0.0072181
0.00796555
0.0184936
1.09943
0.00714662
0.00783553
0.0110882
0.0133953
0.00845981
0.00808767
0.00690269
0.00860492
0.052097
0.00827284
0.0823246
0.00975685
0.113542
0.00821294
0.00821592
0.0062807
0.0288591
0.00775687
0.00734135
0.00748546
0.00831475
0.00612592
0.181253
0.0067639
0.0267378
0.308833
0.0331185
0.00604228
0.0423034
0.00850923
0.00815003
0.00512554
0.0085854
0.00615289
0.00760198
0.276867
0.00719318
0.0106868
0.00732441
0.00464979
0.00536916
0.0197123
0.00772552
0.0069324
0.00804302
0.278971
0.060844
0.33301
0.00685234
0.0100283
0.00675774
0.00776756
0.338278
0.00753645
0.00830415
0.00609829
0.196833
0.0324678
0.0371194
0.00682356
0.00535917
0.0438574
0.599111
0.00801993
0.00682543
0.35248
0.00759417
0.017386
0.00793038
0.0791749
0.00837745
0.0265954
0.00830782
0.00731673
0.00844681
0.00763513
0.0135442
0.00665289
0.00716553
0.00781213
0.00725241
0.00995568
0.00681688
0.0399851
0.00684829
0.00684243
0.22911
0.0234093
0.0439559
0.00832664
0.0356227
0.00748822
0.00827595
0.0265678
0.00646148
0.0380125
0.35521
0.00609521
0.0133404
0.00653726
0.00741071
0.0179072
0.0158702
0.00713148
0.0420591
0.00813165
1.19439
0.0343099
0.795197
0.00813177
0.0209555
0.0118004
0.314889
0.00770714
0.00539446
0.00855528
0.00459553
0.11829
0.00816101
0.00890862
0.0206973
0.028217
0.207984
0.00811076
0.00781128
0.0073685
0.0435883
0.00713537
0.142522
0.0114651
0.0491128
0.338485
0.00827896
0.0161967
0.0316441
0.0295953
0.0776694
0.0288017
0.00756857
0.0114221
0.00495268
0.00810642
0.00781489
0.00856468
0.0138163
0.0065787
0.00831324
0.00556804
0.0461609
0.00487754
0.00803607
0.105874
0.0142525
0.0068943
0.0105873
0.00813914
0.00704184
0.00732833
0.186986
0.00751455
0.0229185
0.00616586
0.0238059
0.00797636
0.00695493
0.00796361
0.00752593
0.0182937
0.0597836
0.0473739
0.61028
0.231006
0.590904
0.00683055
0.00675444
0.00939711
0.00838932
0.00585422
0.0584255
0.00686852
0.074345
0.00612701
0.174394
0.00694077
0.00490415
0.00812339
0.293974
0.00862323
0.457314
0.00721398
0.00753221
0.0458868
0.0567778
0.00686324
0.0255299
0.0398678
0.0549881
0.118706
0.019941
0.216121
0.00884178
0.00723003
0.354271
0.0186359
0.00832571
0.00625168
0.00766375
0.00503653
0.00527974
0.0098983
0.0077347
0.0169133
0.601171
0.00751673
0.00726654
0.00720727
0.00819404
0.00995524
0.00542369
0.00692756
0.00557028
0.375673
0.00761402
0.612699
0.0708646
0.00780468
0.104395
0.0594371
0.0177881
0.00668208
0.112775
0.00767801
0.00804386
0.340771
0.00751118
0.00824447
0.0057581
0.00809955
0.00744287
0.189338
0.00741782
0.681766
0.0134574
0.0196255
0.00724547
0.0123984
0.0271977
0.00624154
0.245815
0.00776298
0.0115438
0.0290488
0.00719678
0.0167747
0.0304091
0.0202872
0.00747453
0.0333838
0.0637324
0.00645162
0.00734312
0.0276737
0.00694869
0.0190977
0.0240363
0.353732
0.00712629
0.00860255
0.00797115
0.00618824
0.00838861
0.00479275
0.0376582
1.04197
0.00778751
0.0240153
0.0280504
0.00819828
0.0341091
0.00710597
0.00712802
2.22129
0.0435874
0.306905
0.16389
0.00816668
0.00793276
0.0220553
0.223859
0.172471
0.253854
0.00494008
0.00816807
0.00722363
0.00631263
0.192361
0.0476803
0.00877609
0.0073886
0.027973
0.0243092
0.0360307
0.00681231
0.0890963
0.21641
0.00638214
0.00559869
0.00727727
0.00715652
0.216667
0.00545935
0.00844317
0.0151232
0.00776826
0.00648986
0.370336
0.00902189
0.0106509
0.0331644
0.0601839
0.00749328
0.184569
0.019413
0.00836484
0.00453583
0.0208395
0.00662479
0.295012
0.00807209
0.00768592
0.0069493
0.107041
0.00613791
0.00745533
0.0334747
0.00834067
0.00815265
0.00859552
0.00527094
0.00770882
0.0333376
0.0177041
0.00815384
0.46737
0.036202
0.0080251
0.0313158
0.00669546
0.00517631
0.0325193
0.00804025
0.00816912
0.00789558
0.00746672
0.0079388
0.00721644
0.00802617
0.0481864
0.0373324
0.00616677
0.0452364
0.00689836
0.0200372
0.0174346
0.00855483
0.00709041
0.0158809
0.00488218
0.00674509
0.00588499
0.00666612
0.00682775
0.0079725
0.0375356
0.1383
0.024075
0.0948146
0.00859361
0.013268
0.328566
0.0165573
0.012909
0.00758776
0.0337005
0.0385228
0.10435
0.004756
0.0177751
0.0321148
0.00661991
0.00795738
1.00599
0.00483593
0.0067222
0.0291953
0.0280289
0.00584518
0.0121577
0.0143893
0.00457921
0.581274
0.620318
0.00790421
0.00726733
0.0227732
0.065156
0.0104569
0.00812078
0.00666764
0.00839344
0.00722851
0.0805942
0.00761274
0.00845215
0.136295
0.00846609
0.00731216
0.00770389
0.00756968
0.0067752
0.00857668
0.00719772
0.0129759
0.00704043
0.00879348
0.0080396
0.0309316
0.00819179
0.0199188
0.00770578
0.0209423
0.00837397
0.00767953
0.0594103
0.250239
0.00706236
0.00781651
0.00775836
0.0194495
0.00827033
0.0067927
0.00820493
0.0073951
0.0062088
0.00726882
0.0308099
0.00512034
0.0626665
0.0084747
0.00881028
0.00790896
0.00670046
0.00767535
0.00845486
0.00802434
0.174364
0.0073098
0.0164231
0.00790241
0.00800175
0.472197
0.00844622
0.00855227
0.13652
0.232925
0.0142666
0.00754961
0.0199093
0.00790734
0.0328317
0.0109508
0.0113972
0.00739443
0.00628851
0.0257642
0.00763083
0.0321269
0.00738884
0.0153485
0.0270583
0.00749055
0.0114382
0.00728102
0.131798
0.0163573
0.0049888
0.0345724
0.00642824
0.00596682
0.00840331
0.0104302
0.0300208
0.00751553
0.00812167
0.0442652
0.00688659
0.00693331
0.0068582
0.0054596
0.00789177
0.0282038
0.0301815
0.00685007
0.0177951
0.00798375
0.00869488
0.00701155
1.07617
0.00987806
0.00681654
0.139541
0.0321512
0.00820976
0.00706933
0.0289641
0.0105803
0.00662084
0.00719386
0.0143373
0.037686
0.00753038
0.00693785
0.074572
0.00714858
0.00830322
0.0073296
0.00687332
0.00766186
0.0241866
0.00762852
0.0373976
0.00643654
0.0134025
0.00812846
0.00502686
0.0284214
0.00688797
0.0187131
0.00764849
0.00713764
0.0394556
0.0136477
0.00563024
0.00845688
0.00727512
0.287353
0.00691358
0.00722625
1.34506
0.00674659
0.00720829
0.0074556
0.00721697
0.00644958
0.00635015
0.0157297
0.0051247
0.0161044
0.00719947
0.00759216
0.0155721
0.00452043
0.00748436
0.0064609
0.00564229
0.00729711
0.331064
0.00855225
0.0261477
0.0074666
0.0068648
0.00585677
0.00727812
0.0124659
0.00795323
0.00722909
0.00672211
0.0075653
0.00836357
0.0357806
0.0223854
0.0111925
0.0108823
0.0435092
0.00674227
0.00755618
0.00743954
0.211294
0.00724624
0.00672594
0.343957
0.00712001
0.249786
0.157594
0.00711723
0.00810337
0.00688243
0.00538486
0.00493284
0.00703438
0.00797045
0.0205258
0.0370941
0.00469709
0.0349439
0.00782182
0.0685799
0.189227
1.07799
0.0104954
0.011794
0.00489013
0.00829265
0.00687525
0.0248924
0.00790033
0.0110081
0.00524547
0.0133565
0.00522491
0.0579406
0.0231583
0.0258233
0.247268
0.00782689
0.341744
0.0100199
0.00669559
0.005983
0.00875444
0.00840517
0.587963
0.00783499
0.238233
0.300422