/*--------------------------------*- C++ -*----------------------------------*\
| =========                 |                                                 |
| \\      /  F ield         | OpenFOAM: The Open Source CFD Toolbox           |
|  \\    /   O peration     | Version:  3.0.1                                 |
|   \\  /    A nd           | Web:      www.OpenFOAM.org                      |
|    \\/     M anipulation  |                                                 |
\*---------------------------------------------------------------------------*/
FoamFile
{
    version     2.0;
    format      ascii;
    class       surfaceVectorField;
    location    "0.16132";
    object      Uf;
}
// * * * * * * * * * * * * * * * * * * * * * * * * * * * * * * * * * * * * * //

dimensions      [0 1 -1 0 0 0 0];

internalField   nonuniform List<vector> 
32369
(
(6.51183 -1.98083 1.46676e-20)
(5.85659 -2.61108 -1.9149e-18)
(7.05916 -0.918132 -1.83777e-18)
(5.93488 -1.6736 0)
(5.63754 -2.36514 1.21353e-18)
(5.89504 -0.957209 -2.05669e-19)
(5.6304 -1.42003 0)
(5.47272 -1.99907 -6.90168e-19)
(5.6332 -1.01631 -2.25252e-19)
(5.37047 -1.17871 -3.04246e-20)
(5.30392 -1.65722 1.36011e-19)
(5.52119 -0.937815 -3.84941e-19)
(5.11216 -0.969755 6.62522e-21)
(5.11041 -1.35955 2.06077e-20)
(5.31729 -0.80599 1.6361e-19)
(4.86767 -0.802398 -5.97969e-21)
(4.89875 -1.11401 3.57466e-20)
(5.0583 -0.676991 -1.55914e-20)
(4.64329 -0.669582 -1.00667e-20)
(4.68666 -0.918613 2.67344e-20)
(4.80202 -0.561966 -1.06346e-19)
(4.43485 -0.561282 2.78791e-20)
(4.48425 -0.763468 7.589e-20)
(4.57255 -0.465035 1.24517e-19)
(4.24174 -0.475217 -7.34973e-20)
(4.29291 -0.63891 -1.16631e-19)
(4.35785 -0.385567 -4.81563e-20)
(4.0629 -0.407557 3.19329e-20)
(4.11396 -0.540422 -1.95189e-20)
(4.16277 -0.324461 -1.66374e-20)
(3.94983 -0.47588 1.09319e-19)
(3.98975 -0.289888 6.84674e-20)
(3.87254 -0.367531 -5.16267e-20)
(5.00417 -3.21256 -4.1076e-19)
(4.20747 -3.34513 -3.17681e-18)
(5.1047 -2.68504 6.09283e-19)
(4.56063 -3.02389 1.6715e-18)
(5.1137 -2.22699 -6.17404e-19)
(4.7532 -2.64775 -1.61715e-18)
(5.03772 -1.8316 2.1618e-19)
(4.81905 -2.25076 4.79174e-19)
(4.90005 -1.50029 1.05541e-19)
(4.78532 -1.8816 9.85032e-20)
(4.72716 -1.23202 9.51275e-20)
(4.68131 -1.55954 -9.39742e-21)
(4.54207 -1.01906 1.34088e-19)
(4.53708 -1.29093 -1.42226e-21)
(4.35797 -0.850558 -5.85014e-20)
(4.37584 -1.07271 6.60439e-20)
(4.1808 -0.717432 -7.34309e-20)
(4.21101 -0.897072 -4.0721e-20)
(4.01356 -0.611857 4.29746e-20)
(4.04921 -0.757903 6.91224e-21)
(3.89703 -0.65853 1.41227e-20)
(3.84196 -0.535007 -3.20915e-20)
(3.89055 -3.31071 -8.47666e-19)
(3.18741 -3.25878 -1.23119e-18)
(4.22203 -3.04871 -3.21771e-19)
(3.66047 -3.10298 2.22924e-18)
(4.43615 -2.70517 -7.34454e-19)
(3.9876 -2.90166 -9.8731e-19)
(4.54149 -2.33028 3.80874e-19)
(4.20697 -2.60058 -4.34817e-19)
(4.55004 -1.96571 0)
(4.32225 -2.26317 4.91518e-19)
(4.48422 -1.63929 -1.42749e-19)
(4.34394 -1.92952 -3.72348e-19)
(4.37121 -1.36295 -1.27278e-19)
(4.29424 -1.62552 -1.58086e-19)
(4.23409 -1.13692 1.2194e-19)
(4.19935 -1.36311 1.88214e-19)
(4.08852 -0.955764 6.95645e-20)
(4.08036 -1.14353 2.89288e-20)
(3.94486 -0.813123 -2.22081e-20)
(3.95133 -0.964769 -7.99596e-20)
(3.82109 -0.831502 -3.34027e-20)
(3.78874 -0.703366 3.28124e-20)
(3.08576 -3.05286 1.3647e-18)
(2.67297 -3.018 -3.46012e-18)
(3.47484 -3.01511 1.47437e-18)
(3.05469 -2.95511 1.44837e-18)
(3.78417 -2.83799 -7.93838e-19)
(3.35388 -2.88668 1.90725e-18)
(3.99512 -2.57179 -4.05637e-19)
(3.629 -2.71281 -7.71566e-19)
(4.11378 -2.26292 1.81783e-19)
(3.82936 -2.46381 -6.73279e-20)
(4.14996 -1.94729 -4.0632e-19)
(3.94299 -2.17399 -1.33901e-21)
(4.12254 -1.65159 1.09181e-19)
(3.97807 -1.87915 -2.50493e-20)
(4.05246 -1.39133 1.14785e-19)
(3.95494 -1.60439 -4.07964e-20)
(3.95574 -1.1727 -1.07811e-19)
(3.89456 -1.36066 2.05115e-19)
(3.84302 -0.995462 -9.56844e-20)
(3.81194 -1.15156 -2.32815e-19)
(3.71452 -0.985662 0)
(3.71352 -0.853489 2.36369e-19)
(2.68793 -2.86975 -4.1067e-18)
(2.45153 -2.83738 -6.41071e-18)
(2.92866 -2.86824 1.78745e-18)
(2.70549 -2.78101 1.05537e-18)
(3.20423 -2.7931 2.07581e-18)
(2.90424 -2.77246 1.02075e-18)
(3.46871 -2.64093 -5.46844e-19)
(3.14651 -2.68267 1.34021e-18)
(3.66702 -2.41287 -2.78664e-19)
(3.36373 -2.51791 -5.49783e-19)
(3.78297 -2.14148 3.54986e-19)
(3.52987 -2.29318 -3.22362e-20)
(3.82385 -1.86193 -1.7922e-19)
(3.63249 -2.03652 -5.46356e-19)
(3.80819 -1.59918 2.30005e-20)
(3.67589 -1.77537 2.28694e-19)
(3.75645 -1.36299 1.24503e-19)
(3.66964 -1.52827 2.2834e-19)
(3.68554 -1.15665 -1.58371e-19)
(3.62966 -1.3045 -1.41111e-19)
(3.56741 -1.1172 0)
(3.58726 -0.977576 0)
(2.483 -2.70461 -2.52249e-18)
(2.30171 -2.6666 -4.21056e-18)
(2.64271 -2.71334 4.22885e-19)
(2.4955 -2.61223 -5.48819e-21)
(2.82949 -2.67836 2.42064e-19)
(2.62583 -2.62324 -8.94318e-19)
(3.0305 -2.58666 1.46633e-18)
(2.81317 -2.56892 2.45048e-18)
(3.2187 -2.43022 -3.7492e-19)
(2.99765 -2.46092 -4.99501e-19)
(3.37188 -2.22061 -8.88029e-19)
(3.16208 -2.29635 -5.62662e-19)
(3.47548 -1.98094 -2.05908e-19)
(3.29229 -2.08864 -3.83172e-19)
(3.52799 -1.73291 4.30873e-19)
(3.37723 -1.85781 3.85841e-19)
(3.53606 -1.49623 0)
(3.41888 -1.62517 0)
(3.5119 -1.28289 0)
(3.42437 -1.40621 3.35005e-19)
(3.39772 -1.21828 -2.45479e-19)
(3.45427 -1.09013 1.14523e-19)
(2.32694 -2.54834 -2.3384e-18)
(2.1816 -2.52183 -2.33002e-18)
(2.44976 -2.53999 -1.16332e-18)
(2.32047 -2.45025 8.5115e-19)
(2.59498 -2.51923 9.48879e-19)
(2.42848 -2.46189 -7.19395e-19)
(2.75678 -2.45884 7.65874e-19)
(2.57375 -2.41955 1.25526e-18)
(2.91819 -2.34883 -6.94687e-19)
(2.72513 -2.34075 -4.82936e-19)
(3.06322 -2.1909 -8.0717e-20)
(2.8724 -2.21685 6.90032e-19)
(3.17964 -1.99562 1.46313e-19)
(3.00258 -2.05299 -5.25912e-19)
(3.25972 -1.78094 0)
(3.10547 -1.86177 -1.80771e-19)
(3.30343 -1.5646 2.9602e-19)
(3.17668 -1.65829 0)
(3.3152 -1.36034 1.73734e-19)
(3.21666 -1.45839 3.32114e-19)
(3.22531 -1.2832 -2.43177e-19)
(3.28896 -1.17281 -3.00602e-20)
(2.19359 -2.40657 3.56424e-19)
(2.0597 -2.39842 -6.0247e-19)
(2.28297 -2.38753 1.42755e-18)
(2.1856 -2.3136 1.21962e-18)
(2.40267 -2.36499 -6.53113e-19)
(2.26804 -2.31227 -7.38264e-20)
(2.53507 -2.31514 1.60961e-19)
(2.38723 -2.27546 1.45937e-19)
(2.67208 -2.22964 7.55721e-19)
(2.51413 -2.20989 1.95028e-19)
(2.80398 -2.10598 3.34364e-19)
(2.64234 -2.1099 9.96875e-19)
(2.92112 -1.94914 -8.70619e-19)
(2.76373 -1.97719 -6.4015e-19)
(3.0157 -1.76986 -2.00189e-19)
(2.87035 -1.81892 1.29214e-20)
(3.08389 -1.58138 0)
(2.95673 -1.64458 0)
(3.12674 -1.39578 0)
(3.01882 -1.46667 0)
(3.04967 -1.30628 -4.61081e-19)
(3.13596 -1.21279 0)
(2.07255 -2.28339 -9.73492e-20)
(1.95096 -2.28218 3.83682e-19)
(2.14517 -2.25119 -1.59027e-19)
(2.06405 -2.18651 -1.48728e-18)
(2.24491 -2.22463 7.04877e-19)
(2.13188 -2.17797 1.22042e-18)
(2.35665 -2.17827 1.74913e-19)
(2.23286 -2.1415 4.68013e-19)
(2.47436 -2.10476 3.51263e-19)
(2.34175 -2.08226 -3.60622e-19)
(2.59216 -2.0018 1.67609e-19)
(2.45434 -1.99605 -2.42013e-23)
(2.70367 -1.87182 1.568e-19)
(2.56555 -1.88367 -4.31404e-19)
(2.80255 -1.72109 1.94994e-19)
(2.66987 -1.74949 1.89015e-19)
(2.88391 -1.55812 0)
(2.76252 -1.59916 -2.27177e-19)
(2.94611 -1.39227 -4.08584e-19)
(2.8381 -1.44126 0)
(2.88555 -1.29303 1.75676e-20)
(2.98278 -1.22442 1.98065e-19)
(1.97234 -2.16851 -8.13256e-19)
(1.86501 -2.18057 -5.4426e-19)
(2.02803 -2.12683 -2.39077e-19)
(1.9608 -2.07181 -8.47349e-19)
(2.11209 -2.09658 1.06103e-18)
(2.0139 -2.05588 5.8221e-19)
(2.20795 -2.05119 2.36504e-20)
(2.10067 -2.01755 6.75162e-19)
(2.31056 -1.98392 -7.43963e-19)
(2.19552 -1.9608 -5.54814e-19)
(2.4161 -1.89314 -5.48761e-19)
(2.29564 -1.88227 1.05415e-19)
(2.52039 -1.78057 -4.50701e-19)
(2.39775 -1.78272 -6.25482e-19)
(2.61853 -1.65014 -1.87655e-19)
(2.49796 -1.66518 3.30079e-19)
(2.70567 -1.50699 -2.52077e-19)
(2.59241 -1.53309 6.37939e-19)
(2.77785 -1.35719 4.02442e-19)
(2.67576 -1.39257 -1.65382e-20)
(2.73517 -1.26072 2.2955e-19)
(2.82259 -1.19982 -7.07378e-20)
(1.88493 -2.06934 -5.46067e-19)
(1.79095 -2.09583 -5.2216e-19)
(1.92517 -2.01459 -9.65159e-20)
(1.86592 -1.97128 -1.18008e-20)
(1.99606 -1.9791 1.85153e-19)
(1.90756 -1.94519 0)
(2.07925 -1.93239 2.27406e-19)
(1.98348 -1.90237 -3.82643e-19)
(2.17002 -1.86773 2.26935e-19)
(2.06755 -1.84502 1.45539e-19)
(2.26568 -1.78395 1.06998e-19)
(2.15801 -1.76999 2.4513e-19)
(2.36339 -1.68261 6.05461e-20)
(2.25278 -1.6781 -3.64695e-21)
(2.4594 -1.56667 1.10563e-18)
(2.34908 -1.57188 3.08605e-19)
(2.54939 -1.43996 8.84668e-19)
(2.44401 -1.45362 8.40322e-19)
(2.63 -1.30764 -1.8477e-19)
(2.53245 -1.32767 5.35965e-19)
(2.59874 -1.20926 -6.64937e-19)
(2.69276 -1.16802 -3.26275e-19)
(1.79475 -1.98213 -3.69179e-20)
(1.70923 -2.0069 -3.72604e-19)
(1.82606 -1.91222 8.40833e-20)
(1.76919 -1.87371 3.37929e-21)
(1.8886 -1.8697 -5.33221e-19)
(1.80554 -1.83922 4.56844e-19)
(1.96312 -1.81951 -5.26531e-19)
(1.87469 -1.79171 -1.31157e-18)
(2.04546 -1.75471 1.53149e-19)
(1.95144 -1.73231 2.82897e-19)
(2.13391 -1.67437 1.59735e-19)
(2.03525 -1.65822 -1.14217e-19)
(2.22665 -1.58006 2.10244e-19)
(2.12499 -1.57053 -1.40697e-19)
(2.32089 -1.47429 -1.2616e-20)
(2.21874 -1.47171 2.52418e-19)
(2.41294 -1.35984 4.76997e-19)
(2.31431 -1.36349 -3.02167e-20)
(2.49947 -1.24021 2.83651e-19)
(2.40727 -1.24855 4.0906e-19)
(2.48143 -1.13842 -4.15528e-19)
(2.57326 -1.11288 -4.25457e-20)
(1.70488 -1.89231 -3.68072e-19)
(1.62915 -1.91479 -6.18162e-19)
(1.72953 -1.81134 3.29505e-19)
(1.67626 -1.77504 1.9205e-19)
(1.78632 -1.76303 -1.31223e-19)
(1.70785 -1.73378 5.60476e-19)
(1.85494 -1.70907 -6.72869e-19)
(1.77169 -1.682 -7.19799e-19)
(1.9317 -1.6427 5.47245e-20)
(1.84333 -1.61992 2.69326e-19)
(2.01557 -1.56346 -4.13194e-19)
(1.92301 -1.54517 -4.35401e-21)
(2.10548 -1.47313 -1.354e-19)
(2.01012 -1.45935 -4.84936e-19)
(2.19929 -1.37399 2.66497e-19)
(2.10315 -1.36515 2.53655e-19)
(2.2937 -1.26778 -1.47713e-19)
(2.20022 -1.26401 -3.32624e-20)
(2.38513 -1.15525 -1.62718e-19)
(2.29711 -1.15709 -1.6238e-19)
(2.3761 -1.05415 -4.49353e-21)
(2.46332 -1.02752 -9.91404e-20)
(1.62402 -1.80275 -1.8848e-19)
(1.55908 -1.83978 -6.67985e-19)
(1.63869 -1.71079 3.86138e-19)
(1.58802 -1.68287 2.67854e-19)
(1.68901 -1.65661 1.1216e-19)
(1.61396 -1.63035 3.93785e-19)
(1.75263 -1.59841 1.20562e-19)
(1.67323 -1.57214 -3.04494e-19)
(1.82561 -1.52945 2.39414e-19)
(1.74136 -1.50582 2.55242e-19)
(1.90712 -1.44969 -2.52311e-20)
(1.81903 -1.42885 1.02844e-19)
(1.9964 -1.36134 -1.68949e-19)
(1.90582 -1.34322 -1.53017e-19)
(2.09146 -1.26683 -1.51877e-20)
(2.0003 -1.252 -9.35799e-20)
(2.18878 -1.16773 -2.98128e-20)
(2.10044 -1.15689 -1.70342e-19)
(2.28428 -1.06518 -1.76279e-20)
(2.20216 -1.05839 -2.06497e-20)
(2.28634 -0.964388 -3.86191e-19)
(2.37058 -0.954855 5.38778e-19)
(1.53732 -1.71858 -3.55149e-19)
(1.48291 -1.7515 -6.2783e-19)
(1.547 -1.61134 2.60058e-19)
(1.49563 -1.58488 0)
(1.59368 -1.54894 5.30483e-20)
(1.51999 -1.52275 2.891e-19)
(1.65447 -1.48502 -2.25704e-19)
(1.57719 -1.45803 -3.02886e-20)
(1.72581 -1.4122 1.36075e-19)
(1.64402 -1.38667 -6.55261e-20)
(1.80727 -1.33066 0)
(1.72207 -1.30641 0)
(1.89826 -1.24311 -8.38068e-20)
(1.81115 -1.21994 0)
(1.99669 -1.15236 -2.41863e-19)
(1.90961 -1.13104 -2.28887e-21)
(2.09864 -1.05984 -1.78867e-19)
(2.01476 -1.04176 -1.5513e-19)
(2.19959 -0.965597 -3.26492e-19)
(2.12238 -0.951798 -9.58368e-20)
(2.21311 -0.866928 -3.13921e-19)
(2.29185 -0.863758 9.17515e-20)
(1.44854 -1.62613 -3.35088e-19)
(1.40823 -1.65197 -3.04281e-19)
(1.45478 -1.50588 0)
(1.40448 -1.4785 2.14127e-19)
(1.49949 -1.43569 2.46957e-19)
(1.42763 -1.40769 -1.65999e-19)
(1.5593 -1.36556 1.32834e-19)
(1.48349 -1.33641 2.6794e-19)
(1.63121 -1.28799 -2.08878e-19)
(1.55071 -1.25928 -2.13547e-19)
(1.71522 -1.20383 0)
(1.63167 -1.17489 -7.69886e-21)
(1.81071 -1.1166 8.36486e-20)
(1.72606 -1.08717 -5.55597e-21)
(1.91503 -1.02973 1.03859e-19)
(1.83148 -1.00092 2.33925e-20)
(2.0233 -0.944574 -7.82737e-20)
(1.94381 -0.918661 5.31009e-20)
(2.13012 -0.860216 -5.51465e-20)
(2.05835 -0.838995 -1.52852e-19)
(2.1547 -0.764351 1.07476e-19)
(2.22863 -0.768168 -2.77381e-19)
(1.36647 -1.52598 1.92561e-19)
(1.33855 -1.56083 -7.6743e-21)
(1.36589 -1.39302 7.00089e-20)
(1.3151 -1.37136 2.24499e-19)
(1.40759 -1.31445 -1.89298e-19)
(1.33674 -1.28664 -1.65543e-19)
(1.46711 -1.23712 -3.02442e-20)
(1.39198 -1.20576 -2.10147e-22)
(1.54163 -1.15377 -3.45006e-20)
(1.4617 -1.12073 -1.92326e-19)
(1.63117 -1.0664 -1.35106e-20)
(1.54874 -1.03107 1.15258e-19)
(1.73447 -0.979834 -6.93797e-20)
(1.65217 -0.942291 1.6162e-20)
(1.84747 -0.898243 -3.11601e-20)
(1.7679 -0.86037 -1.36883e-19)
(1.96369 -0.822619 1.52544e-21)
(1.88947 -0.787892 9.43062e-20)
(2.07635 -0.750598 -4.92771e-20)
(2.01137 -0.721926 -7.36542e-20)
(2.11278 -0.660867 7.31397e-20)
(2.17897 -0.672958 3.35824e-19)
(1.28115 -1.42451 1.73189e-21)
(1.26896 -1.45714 -3.60997e-22)
(1.27599 -1.27394 1.24175e-20)
(1.22286 -1.2542 5.0819e-22)
(1.31641 -1.18345 6.54611e-21)
(1.24554 -1.15355 0)
(1.37796 -1.09633 -1.41816e-19)
(1.30261 -1.06069 8.83461e-20)
(1.4584 -1.00561 -7.04366e-20)
(1.37848 -0.965793 -2.3585e-19)
(1.55749 -0.914968 1.56365e-19)
(1.47614 -0.870546 1.46732e-19)
(1.67251 -0.830732 -3.45092e-20)
(1.59343 -0.782462 -1.51702e-20)
(1.79699 -0.757466 -3.90821e-20)
(1.7229 -0.708613 -7.34007e-20)
(1.9223 -0.694973 3.8183e-20)
(1.85488 -0.650437 2.24371e-20)
(2.04094 -0.638177 1.78663e-20)
(1.98343 -0.60209 -8.25114e-21)
(2.08858 -0.557331 1.19129e-20)
(2.14799 -0.577873 2.55043e-20)
(1.19352 -1.31201 -1.74255e-21)
(1.20074 -1.3383 -1.38538e-20)
(1.18486 -1.14261 -1.30088e-20)
(1.12842 -1.12286 -3.87127e-20)
(1.22609 -1.0373 7.24361e-20)
(1.15588 -1.00241 0)
(1.29328 -0.938033 2.43814e-20)
(1.21887 -0.894529 8.0416e-20)
(1.38457 -0.838981 -5.3592e-20)
(1.30686 -0.788338 -4.70795e-20)
(1.49873 -0.746181 -8.82457e-21)
(1.42166 -0.688701 5.2933e-20)
(1.62995 -0.667805 -4.77613e-20)
(1.55762 -0.60581 -2.9389e-20)
(1.76789 -0.608049 -2.50319e-20)
(1.70273 -0.546789 -8.0648e-21)
(1.90166 -0.563702 -2.08343e-20)
(1.84398 -0.509311 5.45734e-21)
(2.02384 -0.525829 -1.64282e-20)
(1.9757 -0.483226 0)
(2.08193 -0.456349 -5.17394e-20)
(2.13301 -0.483019 -1.39357e-20)
(1.10511 -1.18162 -4.78504e-20)
(1.13512 -1.2004 -1.66377e-19)
(1.09479 -0.991479 -2.95606e-20)
(1.03334 -0.971258 9.31658e-20)
(1.14086 -0.867443 0)
(1.07219 -0.823903 -2.89432e-20)
(1.22034 -0.753931 2.06955e-20)
(1.14962 -0.69786 1.11798e-20)
(1.33037 -0.647511 5.29133e-20)
(1.25896 -0.581437 1.84703e-20)
(1.46596 -0.557449 4.10229e-20)
(1.39862 -0.483667 3.38625e-20)
(1.61597 -0.492548 6.99522e-21)
(1.55644 -0.415561 6.70809e-21)
(1.76612 -0.453892 1.63674e-20)
(1.71558 -0.380741 1.43377e-20)
(1.90446 -0.433578 2.12256e-20)
(1.8612 -0.370926 1.72253e-20)
(2.02461 -0.418264 -2.9526e-20)
(1.98908 -0.371461 0)
(2.09082 -0.366144 1.02926e-20)
(2.12719 -0.396031 -1.16702e-20)
(1.01603 -1.02987 1.09688e-19)
(1.07135 -1.03546 -8.14014e-20)
(1.00843 -0.810119 1.20337e-19)
(0.935718 -0.779899 1.03636e-19)
(1.06947 -0.663603 -6.88468e-21)
(1.01019 -0.602014 -1.29052e-19)
(1.17214 -0.536633 8.25096e-21)
(1.1148 -0.461169 5.16582e-20)
(1.31069 -0.428922 -3.00293e-21)
(1.25643 -0.342832 -4.48175e-21)
(1.47332 -0.351907 3.78696e-21)
(1.42612 -0.260364 7.47257e-20)
(1.64144 -0.311675 2.7636e-21)
(1.60336 -0.221742 -3.28636e-20)
(1.79809 -0.302979 -1.48851e-21)
(1.76855 -0.221802 8.45882e-20)
(1.93318 -0.311961 -2.11391e-21)
(1.90894 -0.245051 -1.89692e-21)
(2.04433 -0.321752 3.11218e-20)
(2.0238 -0.273425 0)
(2.11408 -0.290104 -3.33365e-22)
(2.13647 -0.316457 2.96823e-20)
(0.920525 -0.808742 -1.45961e-19)
(1.03681 -0.818321 3.53702e-19)
(0.946534 -0.578364 -1.02527e-19)
(0.910581 -0.530541 -1.00654e-19)
(1.03527 -0.414127 -7.73238e-20)
(1.00469 -0.331555 -4.34312e-20)
(1.17558 -0.283013 3.74289e-20)
(1.15285 -0.185134 3.30211e-20)
(1.35093 -0.189486 6.2913e-20)
(1.33288 -0.0857623 0)
(1.53864 -0.142587 4.98011e-20)
(1.52636 -0.0408241 -1.89547e-20)
(1.71555 -0.139877 4.67068e-20)
(1.70881 -0.0465946 -1.18015e-19)
(1.86675 -0.167649 9.06177e-20)
(1.86412 -0.0874998 2.002e-19)
(1.98765 -0.207455 0)
(1.98587 -0.143508 -4.84551e-20)
(2.08118 -0.241527 -2.25215e-20)
(2.07762 -0.196472 -4.0557e-20)
(2.14706 -0.231455 -2.21273e-20)
(2.15409 -0.260336 3.21734e-20)
(0.91951 -0.661087 1.67928e-19)
(1.1606 -0.418304 1.28845e-18)
(0.927215 -0.334952 -2.59008e-20)
(0.870456 -0.204996 3.19491e-19)
(1.07401 -0.142896 7.03683e-20)
(1.14914 -0.0084245 6.08531e-20)
(1.26839 -0.0213798 0)
(1.34157 0.0915125 0)
(1.47786 0.0363489 -1.12324e-19)
(1.53523 0.134335 0)
(1.67438 0.037161 -2.06704e-19)
(1.71843 0.123237 8.32536e-20)
(1.84024 -0.00345934 1.38003e-20)
(1.87543 0.0719808 -3.19329e-19)
(1.96955 -0.0658478 4.7625e-20)
(1.99889 -0.00155078 9.09827e-20)
(2.06444 -0.131328 -8.95917e-20)
(2.0877 -0.0802977 -4.77142e-20)
(2.13233 -0.18379 -3.45527e-20)
(2.14709 -0.148888 -4.99243e-20)
(2.18771 -0.194709 3.48638e-20)
(2.18895 -0.205142 5.89129e-22)
(1.04015 0.184044 4.42954e-19)
(2.42381 0.412764 1.03323e-18)
(1.26818 0.261421 1.06993e-19)
(1.41976 -0.103949 2.29103e-18)
(1.44915 0.313729 0)
(1.54763 0.00528457 -1.41567e-18)
(1.62943 0.305521 0)
(1.68338 0.0966385 0)
(1.79318 0.260748 1.78921e-19)
(1.82223 0.135236 0)
(1.93045 0.185913 2.33979e-20)
(1.95363 0.123264 -7.32654e-20)
(2.037 0.0942302 -2.59912e-19)
(2.06406 0.0743985 1.57013e-19)
(2.1149 -0.00130041 0)
(2.1483 0.00481244 0)
(2.16534 -0.088195 -9.42934e-21)
(2.20097 -0.0742125 -1.69984e-19)
(2.19502 -0.153615 7.94225e-21)
(2.22516 -0.144624 1.62459e-19)
(2.23174 -0.188963 6.61397e-20)
(2.21891 -0.18661 -4.06104e-20)
(5.06648 -0.522922 -2.10439e-18)
(4.96766 -1.50979 -2.16017e-18)
(5.45435 -0.690748 -4.08905e-19)
(4.54425 -0.836945 1.51511e-21)
(5.56285 -0.671336 -5.69382e-19)
(5.00503 -0.564208 -2.35865e-19)
(5.50432 -0.600082 -3.29434e-19)
(5.30275 -0.443566 -5.17185e-19)
(5.32664 -0.521374 2.47319e-19)
(5.33557 -0.343217 2.41055e-19)
(5.06836 -0.442117 1.22679e-19)
(5.20334 -0.258191 -1.34408e-19)
(4.78899 -0.364715 -5.01818e-20)
(4.97452 -0.198851 -3.21769e-20)
(4.53513 -0.296016 -1.35645e-20)
(4.70892 -0.158562 -1.15991e-19)
(4.3141 -0.245859 -3.03313e-20)
(4.43954 -0.122093 1.47963e-21)
(4.11235 -0.212921 8.98078e-20)
(4.21275 -0.0971311 5.7485e-20)
(4.00981 -0.0939756 -8.12272e-20)
(3.91736 -0.212372 8.30137e-20)
(3.86533 -1.49047 -4.701e-19)
(3.82902 -3.4582 6.16128e-19)
(4.382 -0.876445 5.03527e-19)
(3.86942 -1.95696 -8.58955e-20)
(4.79863 -0.533876 3.38489e-19)
(4.33096 -1.07741 6.45563e-19)
(5.08333 -0.329198 1.12855e-19)
(4.7459 -0.575305 -2.13884e-19)
(5.19591 -0.186815 -7.00281e-20)
(5.00455 -0.242908 6.16911e-19)
(5.1334 -0.0916212 -1.7696e-19)
(5.09435 -0.0200152 1.35709e-19)
(4.9314 -0.0355734 -8.71539e-20)
(5.01996 0.106365 -3.94664e-19)
(4.65586 -0.00602878 -1.09723e-19)
(4.81431 0.161222 -1.63892e-19)
(4.3809 0.0093653 3.74894e-20)
(4.52664 0.170314 0)
(4.14585 0.0126853 -3.04916e-20)
(4.24741 0.156053 -1.85251e-20)
(4.02185 0.132135 -1.53917e-20)
(3.91608 -0.014234 7.55137e-20)
(3.80896 -3.67305 1.42766e-18)
(3.89029 -4.60731 1.50901e-18)
(3.92478 -2.07493 1.27382e-20)
(3.80838 -3.47398 9.08684e-19)
(4.25569 -1.14585 1.46979e-19)
(4.00936 -2.08797 3.45585e-19)
(4.61608 -0.549077 2.23555e-19)
(4.31347 -1.1853 -1.15406e-18)
(4.87414 -0.146669 9.3269e-19)
(4.62894 -0.508301 1.18314e-19)
(4.98192 0.114384 8.73811e-20)
(4.84357 -0.0298888 3.21173e-19)
(4.92456 0.257152 -4.37124e-19)
(4.9079 0.275523 -6.44606e-20)
(4.72642 0.308558 4.0112e-21)
(4.81145 0.433075 -1.10498e-19)
(4.44426 0.301328 -5.10665e-20)
(4.5794 0.475549 0)
(4.16051 0.271344 -9.57754e-21)
(4.27659 0.445662 -5.73787e-20)
(4.01568 0.381659 6.18978e-20)
(3.91524 0.232294 4.86711e-20)
(3.94733 -4.59943 5.59121e-19)
(4.15323 -4.92042 -3.66338e-19)
(3.9025 -3.54989 1.28844e-18)
(3.97755 -4.44805 2.311e-18)
(4.03996 -2.17209 -7.0447e-19)
(3.94589 -3.30403 -1.38947e-18)
(4.30641 -1.16872 -1.20552e-18)
(4.10221 -2.05949 -8.15235e-20)
(4.57196 -0.430913 -4.34785e-19)
(4.35755 -1.05184 -3.41547e-19)
(4.75423 0.0898695 2.58789e-19)
(4.5906 -0.280936 7.08732e-20)
(4.80113 0.418392 3.30188e-19)
(4.72388 0.267684 1.46307e-19)
(4.69639 0.579192 -8.19758e-20)
(4.71424 0.604309 1.45807e-19)
(4.46453 0.608423 0)
(4.55482 0.750529 0)
(4.16838 0.556714 0)
(4.27743 0.750337 0)
(3.98703 0.664599 -2.48453e-20)
(3.87957 0.455762 -2.89075e-19)
(4.14864 -4.89127 1.16332e-18)
(4.32114 -5.1532 -4.65091e-20)
(4.02822 -4.35406 1.76637e-19)
(4.21856 -4.82063 1.30223e-18)
(4.02305 -3.30023 -9.31676e-19)
(4.0985 -4.17845 -1.52924e-18)
(4.14949 -2.01702 8.02037e-19)
(4.08021 -3.04287 -6.96739e-19)
(4.35664 -0.960481 1.51324e-19)
(4.20848 -1.79391 8.89096e-19)
(4.53822 -0.150935 -8.86895e-21)
(4.39179 -0.732218 -6.34114e-19)
(4.62806 0.418089 -3.39418e-20)
(4.52927 0.0859484 2.68182e-19)
(4.58736 0.755638 2.44971e-19)
(4.55946 0.648893 4.29779e-19)
(4.4119 0.886954 0)
(4.45456 0.957792 -2.23467e-19)
(4.13702 0.862721 -2.18584e-20)
(4.21776 1.04277 0)
(3.91901 0.971276 1.91624e-20)
(3.82878 0.724795 4.32643e-20)
(4.37249 -5.15347 -5.14743e-20)
(4.48286 -5.4276 -5.903e-21)
(4.27661 -4.75149 -1.68287e-19)
(4.4627 -5.10658 -7.13484e-20)
(4.16713 -4.0544 -1.47597e-18)
(4.33673 -4.63424 -2.43073e-19)
(4.15746 -2.93415 -8.96054e-19)
(4.22595 -3.82782 -1.27039e-18)
(4.24166 -1.66145 2.81582e-19)
(4.19398 -2.60889 8.89908e-19)
(4.3664 -0.57313 -4.62803e-19)
(4.26864 -1.33902 -5.80629e-20)
(4.44468 0.259617 7.11828e-19)
(4.35465 -0.254031 -6.73439e-19)
(4.42581 0.816562 -3.14139e-21)
(4.37506 0.55895 6.93527e-19)
(4.28786 1.10194 -2.4796e-19)
(4.28922 1.07139 1.80005e-20)
(4.04477 1.15529 3.85712e-20)
(4.08454 1.28835 -2.71586e-19)
(3.79751 1.26935 1.82985e-19)
(3.74784 0.994351 2.86439e-20)
(4.58088 -5.42032 -1.75748e-20)
(4.6271 -5.69733 -3.00445e-18)
(4.51365 -5.06514 -1.28078e-19)
(4.68056 -5.38804 -2.58187e-20)
(4.40168 -4.51478 8.22261e-20)
(4.56052 -4.97245 3.42091e-18)
(4.28247 -3.63716 1.76246e-19)
(4.43226 -4.33219 -1.24975e-18)
(4.24249 -2.40483 6.53455e-19)
(4.29983 -3.33364 0)
(4.2568 -1.12638 -1.6565e-19)
(4.23289 -2.01304 1.21669e-19)
(4.2731 -0.0411012 -8.2744e-19)
(4.21623 -0.723154 -4.53686e-19)
(4.22989 0.754919 7.46593e-19)
(4.17732 0.338514 7.30897e-19)
(4.09722 1.23 -9.43307e-21)
(4.0691 1.07597 -1.09461e-19)
(3.87352 1.40036 -1.82068e-19)
(3.87116 1.46135 -1.84315e-19)
(3.61687 1.52717 8.36674e-20)
(3.5973 1.32647 -1.29535e-18)
(4.75689 -5.68522 -3.54096e-18)
(4.756 -5.95078 -3.11689e-18)
(4.71252 -5.36791 3.33376e-18)
(4.86457 -5.66008 4.90184e-20)
(4.60917 -4.8675 2.61352e-18)
(4.74174 -5.28799 3.5188e-18)
(4.46532 -4.15198 -1.57023e-18)
(4.61241 -4.70523 -2.87316e-18)
(4.3245 -3.08547 -5.4864e-19)
(4.44077 -3.88308 8.29174e-19)
(4.2138 -1.74337 -1.327e-19)
(4.25728 -2.66908 -1.3156e-18)
(4.12095 -0.459846 9.9287e-19)
(4.11162 -1.26781 6.95224e-19)
(4.00851 0.570578 -3.19447e-20)
(3.97075 0.00105077 -5.6669e-19)
(3.84521 1.25451 -3.07821e-19)
(3.80079 0.961681 -7.34745e-19)
(3.621 1.57487 5.52683e-20)
(3.58079 1.53558 6.20761e-19)
(3.33782 1.73886 -4.04925e-19)
(3.32918 1.61781 -1.72079e-18)
(4.90515 -5.93368 -1.41603e-20)
(4.8713 -6.17516 1.23795e-18)
(4.87282 -5.65447 0)
(5.0152 -5.90833 0)
(4.76957 -5.19328 -1.30285e-18)
(4.87483 -5.58496 0)
(4.61376 -4.53792 -8.88153e-19)
(4.74214 -5.0471 -1.45883e-18)
(4.40761 -3.61225 2.77776e-19)
(4.5463 -4.30833 1.764e-18)
(4.19872 -2.34877 -7.95794e-19)
(4.29045 -3.25241 -2.82533e-19)
(3.97874 -0.955505 -7.37715e-19)
(4.02337 -1.84334 -7.83976e-19)
(3.76231 0.270134 -1.2478e-18)
(3.75422 -0.43532 9.41284e-19)
(3.53615 1.15813 1.87141e-19)
(3.48721 0.720399 -3.70445e-19)
(3.30024 1.64679 3.48424e-19)
(3.21958 1.47532 5.30535e-19)
(2.96912 1.80482 -1.03955e-18)
(3.06218 1.78522 1.8212e-18)
(5.02517 -6.14995 1.39682e-18)
(4.97172 -6.37253 5.00743e-18)
(4.9919 -5.91011 0)
(5.12662 -6.11681 -5.04675e-18)
(4.87662 -5.49468 0)
(4.95688 -5.84739 1.88772e-18)
(4.70457 -4.8999 8.43705e-19)
(4.81298 -5.36058 -8.04473e-19)
(4.47022 -4.07067 1.47237e-18)
(4.59396 -4.694 3.4034e-19)
(4.17126 -2.90825 -1.6792e-19)
(4.29013 -3.76202 -6.47968e-19)
(3.8348 -1.49144 7.23182e-19)
(3.91959 -2.43411 -6.3628e-19)
(3.48942 -0.135136 2.00227e-18)
(3.5195 -0.946868 3.18358e-18)
(3.16855 0.926989 0)
(3.12999 0.354109 -1.02033e-18)
(2.89135 1.57618 -6.81666e-19)
(2.79136 1.2691 0)
(2.51832 1.74016 7.49519e-19)
(2.63955 1.84449 1.24349e-18)
(5.1008 -6.3259 -2.89351e-19)
(5.01489 -6.49833 3.40358e-18)
(5.06603 -6.12628 -3.65876e-18)
(5.18544 -6.29877 -5.39126e-18)
(4.92919 -5.75846 1.36328e-18)
(4.98997 -6.06835 1.90033e-18)
(4.7334 -5.2312 -1.45593e-18)
(4.82447 -5.64004 1.63512e-18)
(4.46661 -4.48752 -1.71227e-18)
(4.5753 -5.05624 -3.35035e-18)
(4.10239 -3.43805 -1.18044e-18)
(4.23217 -4.23021 1.05252e-18)
(3.66383 -2.06817 1.32173e-18)
(3.7696 -3.03949 -1.75578e-18)
(3.18263 -0.638558 4.43555e-19)
(3.25639 -1.5291 1.38028e-18)
(2.75356 0.554906 -1.13392e-18)
(2.73767 -0.141861 -2.14645e-18)
(2.41943 1.34821 1.43678e-18)
(2.31692 0.901523 0)
(2.01896 1.4962 2.69256e-20)
(2.18192 1.73432 -1.68746e-18)
(5.14273 -6.45653 -6.72367e-19)
(5.03013 -6.61246 -1.87929e-18)
(5.08977 -6.29798 -3.37171e-19)
(5.18336 -6.43679 2.59679e-18)
(4.92179 -5.98195 2.21257e-18)
(4.96805 -6.23215 4.83344e-19)
(4.69718 -5.52936 2.79378e-19)
(4.77145 -5.8761 2.46853e-18)
(4.3929 -4.8838 -1.05194e-18)
(4.48612 -5.38173 -2.73041e-18)
(3.97877 -3.95719 7.44469e-19)
(4.10396 -4.67264 2.22918e-18)
(3.44473 -2.68045 -2.12512e-18)
(3.56895 -3.64304 -2.00086e-18)
(2.84302 -1.23725 -1.00302e-18)
(2.96618 -2.18145 1.58907e-18)
(2.30557 0.034934 -1.24878e-18)
(2.32554 -0.765041 -1.19529e-18)
(1.92123 0.937316 -1.56144e-18)
(1.82159 0.355376 8.13405e-19)
(1.53145 1.0397 -1.71426e-18)
(1.72083 1.45498 -1.07462e-18)
(5.136 -6.55058 5.58136e-19)
(5.02107 -6.67602 -2.92777e-18)
(5.05028 -6.42608 3.64008e-18)
(5.12367 -6.51959 5.47508e-19)
(4.85626 -6.15794 5.33641e-19)
(4.89499 -6.3536 3.83428e-18)
(4.59541 -5.78163 0)
(4.65267 -6.06308 -4.00441e-18)
(4.24683 -5.2441 0)
(4.32517 -5.65766 -1.046e-19)
(3.78248 -4.46061 -9.51893e-21)
(3.89904 -5.07982 3.54162e-18)
(3.18116 -3.31325 1.40955e-18)
(3.3279 -4.24673 -9.08126e-19)
(2.49056 -1.91459 1.56667e-18)
(2.64678 -2.92391 3.15057e-18)
(1.84756 -0.626048 1.02573e-18)
(1.91633 -1.49374 -1.09044e-18)
(1.40942 0.33568 9.06874e-19)
(1.33967 -0.349343 8.16358e-19)
(1.04896 0.427625 8.71352e-19)
(1.16944 0.946455 -3.62443e-18)
(5.07974 -6.58794 -3.67963e-18)
(4.96209 -6.66966 -1.08215e-18)
(4.95668 -6.49725 5.54213e-19)
(4.99769 -6.55398 -2.36701e-18)
(4.72738 -6.28472 1.11062e-19)
(4.75385 -6.42629 1.04428e-18)
(4.42529 -5.98221 -4.53661e-18)
(4.46804 -6.20299 -1.74597e-18)
(4.03421 -5.55474 3.02578e-18)
(4.09657 -5.88551 1.86655e-18)
(3.53145 -4.93768 3.30512e-18)
(3.62768 -5.43584 4.77421e-18)
(2.86807 -3.99037 3.90312e-19)
(3.03847 -4.79166 -2.69078e-18)
(2.12526 -2.68234 6.85801e-19)
(2.32548 -3.76106 -1.04561e-19)
(1.43398 -1.39275 -1.29708e-18)
(1.57479 -2.34505 -1.171e-18)
(0.956807 -0.401388 8.0697e-19)
(0.941145 -1.17483 0)
(0.634033 -0.343659 9.10123e-19)
(0.736261 0.254544 5.29028e-19)
(4.95831 -6.57901 3.54668e-19)
(4.85378 -6.60694 1.60531e-18)
(4.79436 -6.51999 -2.06943e-18)
(4.80546 -6.53701 -1.99196e-18)
(4.52739 -6.36336 -5.17882e-19)
(4.5398 -6.44978 -3.57428e-18)
(4.18205 -6.13299 4.2626e-18)
(4.21326 -6.29783 3.61703e-18)
(3.74639 -5.80175 3.32068e-18)
(3.80475 -6.07232 1.30931e-18)
(3.20997 -5.33036 -1.22446e-19)
(3.30903 -5.73972 1.22585e-18)
(2.56489 -4.65015 -3.36242e-18)
(2.71983 -5.24991 -2.57026e-18)
(1.81218 -3.58774 -1.71798e-18)
(2.04447 -4.51863 -1.5516e-18)
(1.08497 -2.29342 0)
(1.34214 -3.30439 -9.08718e-19)
(0.601957 -1.24693 0)
(0.696023 -2.11196 6.72191e-19)
(0.377284 -1.2197 0)
(0.434475 -0.548629 7.81288e-19)
(4.77199 -6.51171 -9.33596e-20)
(4.68097 -6.47446 9.54244e-19)
(4.56116 -6.48604 -3.3422e-18)
(4.54276 -6.45233 -1.97876e-18)
(4.25551 -6.39228 -2.10874e-19)
(4.24705 -6.41479 -1.27962e-18)
(3.87466 -6.24576 9.36114e-19)
(3.88495 -6.34491 1.64249e-18)
(3.41464 -6.02202 -6.92817e-19)
(3.45405 -6.22539 -1.11879e-18)
(2.87519 -5.68237 -6.99077e-19)
(2.96154 -6.02116 1.83885e-18)
(2.25876 -5.16454 -8.66516e-19)
(2.41654 -5.68408 -1.96512e-18)
(1.56771 -4.38583 -8.11213e-19)
(1.82589 -5.14099 -1.0964e-18)
(0.908283 -3.30406 2.94375e-20)
(1.21031 -4.24332 -1.11293e-19)
(0.438657 -2.21349 7.49029e-19)
(0.633143 -3.14116 1.66016e-18)
(0.34195 -2.17686 4.62896e-19)
(0.248439 -1.35045 0)
(4.50631 -6.36826 -3.37979e-19)
(4.41825 -6.26106 -1.94425e-19)
(4.2451 -6.38136 0)
(4.19432 -6.28664 0)
(3.90284 -6.36113 2.58168e-19)
(3.86298 -6.313 0)
(3.49901 -6.31474 -1.23008e-19)
(3.47487 -6.34184 -5.73932e-20)
(3.04054 -6.21739 1.09969e-18)
(3.04409 -6.34695 -1.25819e-19)
(2.53901 -6.02869 9.4361e-19)
(2.5901 -6.28644 1.471e-18)
(2.00348 -5.6881 -2.42597e-18)
(2.13023 -6.10616 7.17857e-19)
(1.43311 -5.11839 -2.33602e-19)
(1.66772 -5.73441 -2.0407e-18)
(0.877528 -4.26324 2.1754e-18)
(1.19806 -5.08075 -7.07985e-19)
(0.468862 -3.25053 1.5102e-18)
(0.7465 -4.14675 8.01545e-19)
(0.474383 -3.16247 4.66348e-19)
(0.282159 -2.35211 -2.60413e-19)
(4.13647 -6.13472 1.20503e-19)
(4.0351 -5.96573 -1.04669e-19)
(3.82546 -6.19746 0)
(3.7325 -6.0342 -7.69019e-20)
(3.45445 -6.26811 -2.6796e-19)
(3.36359 -6.14242 0)
(3.04852 -6.34349 -6.89544e-20)
(2.96843 -6.28973 -1.80235e-19)
(2.62592 -6.39066 -7.95225e-22)
(2.57546 -6.43497 5.57838e-19)
(2.20579 -6.36111 1.31248e-18)
(2.20966 -6.52092 8.38441e-20)
(1.79951 -6.19033 1.171e-18)
(1.8876 -6.48438 1.91741e-18)
(1.40252 -5.80129 -2.19441e-18)
(1.60368 -6.25807 -2.48361e-19)
(1.0119 -5.13072 -1.10324e-18)
(1.32786 -5.78246 -1.60881e-18)
(0.69606 -4.22892 -1.59466e-20)
(1.03891 -5.01559 8.76885e-20)
(0.827094 -4.09793 0)
(0.44076 -3.23747 0)
(3.63621 -5.80168 -2.50967e-19)
(3.46566 -5.59278 7.67105e-19)
(3.27754 -5.93612 -8.401e-20)
(3.10813 -5.69603 2.08952e-19)
(2.89433 -6.11955 1.03754e-19)
(2.72393 -5.88611 -1.00517e-18)
(2.51966 -6.33271 3.31016e-19)
(2.36998 -6.13505 -2.04869e-20)
(2.17902 -6.52408 5.87913e-19)
(2.08315 -6.38729 2.2519e-19)
(1.89115 -6.63315 4.18193e-19)
(1.8769 -6.56249 3.96407e-19)
(1.66271 -6.59105 6.17956e-19)
(1.75941 -6.57906 0)