/*--------------------------------*- C++ -*----------------------------------*\
| =========                 |                                                 |
| \\      /  F ield         | OpenFOAM: The Open Source CFD Toolbox           |
|  \\    /   O peration     | Version:  3.0.1                                 |
|   \\  /    A nd           | Web:      www.OpenFOAM.org                      |
|    \\/     M anipulation  |                                                 |
\*---------------------------------------------------------------------------*/
FoamFile
{
    version     2.0;
    format      ascii;
    class       volScalarField;
    location    "0.536571";
    object      p;
}
// * * * * * * * * * * * * * * * * * * * * * * * * * * * * * * * * * * * * * //

dimensions      [0 2 -2 0 0 0 0];

internalField   nonuniform List<scalar> 
21246
(
-4.57289
-2.17135
-1.1576
-0.593428
-0.20906
0.00911599
0.111236
0.154215
0.163371
0.156452
0.161986
-5.01561
-3.4821
-2.64696
-1.84438
-1.16351
-0.707303
-0.421846
-0.252475
-0.158058
-0.105451
-0.0665492
-4.32724
-3.87761
-3.43979
-2.76423
-2.05611
-1.46077
-1.02194
-0.719325
-0.517759
-0.386178
-0.292176
-3.85172
-3.7184
-3.51812
-3.09302
-2.558
-2.01069
-1.53111
-1.15302
-0.870831
-0.666803
-0.515671
-3.52755
-3.44385
-3.33606
-3.08399
-2.72798
-2.30214
-1.87165
-1.48746
-1.1702
-0.919442
-0.722187
-3.31432
-3.21471
-3.1374
-2.96198
-2.71697
-2.40101
-2.05006
-1.70352
-1.38926
-1.12091
-0.89523
-3.17479
-3.04425
-2.98408
-2.83276
-2.64304
-2.39894
-2.11615
-1.81806
-1.52756
-1.26191
-1.0254
-3.05671
-2.92124
-2.86974
-2.71913
-2.55741
-2.35434
-2.11793
-1.86085
-1.59851
-1.3462
-1.11093
-2.96747
-2.83262
-2.76169
-2.61794
-2.47343
-2.29278
-2.08505
-1.85729
-1.61905
-1.38193
-1.15347
-2.8975
-2.75219
-2.67003
-2.53674
-2.3951
-2.22453
-2.03325
-1.82436
-1.60382
-1.38025
-1.16071
-2.83038
-2.67635
-2.59146
-2.45995
-2.31625
-2.15149
-1.96915
-1.77129
-1.56236
-1.34908
-1.13758
-2.75883
-2.59891
-2.51333
-2.38055
-2.23543
-2.07268
-1.89405
-1.70179
-1.49976
-1.2935
-1.08796
-2.69125
-2.52268
-2.43379
-2.29818
-2.15013
-1.98621
-1.80769
-1.61728
-1.41891
-1.21808
-1.01863
-2.62479
-2.44596
-2.35159
-2.21173
-2.05871
-1.89095
-1.70971
-1.51839
-1.32141
-1.12423
-0.928938
-2.54655
-2.36009
-2.26186
-2.11704
-1.95782
-1.78433
-1.59827
-1.40413
-1.20739
-1.01412
-0.824544
-2.46037
-2.2653
-2.162
-2.01107
-1.84428
-1.66332
-1.47086
-1.27301
-1.07681
-0.889127
-0.707832
-2.366
-2.16084
-2.05048
-1.89218
-1.71598
-1.52549
-1.32519
-1.12368
-0.930002
-0.750913
-0.58147
-2.25661
-2.04193
-1.92459
-1.75768
-1.56976
-1.36726
-1.15802
-0.954621
-0.768165
-0.603958
-0.452718
-2.13184
-1.90757
-1.7822
-1.60436
-1.401
-1.18322
-0.965248
-0.765113
-0.594475
-0.453555
-0.325224
-1.99067
-1.75739
-1.62171
-1.42813
-1.20263
-0.96589
-0.743127
-0.557773
-0.41671
-0.309078
-0.210715
-1.83469
-1.59234
-1.43973
-1.21926
-0.960496
-0.705088
-0.491755
-0.343074
-0.250265
-0.185401
-0.118512
-1.64938
-1.39365
-1.2211
-0.942814
-0.64528
-0.390408
-0.222363
-0.144919
-0.118943
-0.0989077
-0.0547468
-1.4621
-1.32894
-0.970052
-0.611685
-0.29344
-0.0708089
0.0131901
-0.0121938
-0.0582337
-0.0716735
-0.0404866
-2.06249
-0.42457
-0.328211
-0.150474
0.0132234
0.0824776
0.0715664
0.00570063
-0.0765055
-0.098188
-0.0581551
-0.728125
-0.529871
-0.19544
0.11513
0.343385
0.464988
0.493752
0.473832
0.431144
0.38546
0.364075
0.5775
0.480193
0.521499
0.654918
0.809588
0.900473
0.886614
0.802377
0.692036
0.588127
0.53389
0.818787
0.748255
0.764782
0.832313
0.948771
1.06286
1.1049
1.03371
0.879697
0.726119
0.635971
0.767037
0.678191
0.682258
0.712101
0.785506
0.886016
0.972678
1.0044
0.945807
0.792125
0.678172
0.608941
0.479587
0.456602
0.434517
0.443159
0.48654
0.556172
0.641953
0.713549
0.691632
0.600199
0.421172
0.232182
0.168707
0.0795573
0.0066949
-0.0378868
-0.0399524
0.018992
0.144811
0.286288
0.354684
0.241028
-0.0187276
-0.133883
-0.304377
-0.473664
-0.631578
-0.7528
-0.786101
-0.68976
-0.462186
-0.195768
0.0635971
-0.256614
-0.422723
-0.679502
-0.951229
-1.23671
-1.5074
-1.68987
-1.70067
-1.47659
-1.06354
-0.0871189
-0.467057
-0.676894
-1.01828
-1.38917
-1.80405
-2.23636
-2.60746
-2.78308
-2.63091
-2.18521
-0.172848
-0.645292
-0.86843
-1.28997
-1.75137
-2.28672
-2.8758
-3.44653
-3.81397
-3.77922
-3.32941
-0.200458
-0.763482
-0.953867
-1.46779
-2.00882
-2.64472
-3.36509
-4.11058
-4.66774
-4.80613
-4.38604
-0.182498
-0.722646
-1.02204
-1.53553
-2.13814
-2.84953
-3.65966
-4.51147
-5.2415
-5.57802
-5.20665
-0.0835631
-0.598431
-0.958345
-1.47969
-2.1182
-2.8786
-3.74338
-4.65601
-5.50449
-5.92826
-5.60036
0.11944
-0.368956
-0.757603
-1.27956
-1.92649
-2.70265
-3.58972
-4.53129
-5.40113
-5.86035
-5.69816
0.400253
-0.0437333
-0.433604
-0.939191
-1.57051
-2.33258
-3.2031
-4.11571
-4.93515
-5.43352
-5.39892
0.761977
0.370978
-0.00420593
-0.481622
-1.08177
-1.81004
-2.63802
-3.48851
-4.23043
-4.71007
-4.79456
1.19511
0.852843
0.496658
0.0501469
-0.511566
-1.19187
-1.95576
-2.72201
-3.374
-3.80651
-3.91675
1.65071
1.34117
0.997156
0.57686
0.0575122
-0.559794
-1.23799
-1.90497
-2.46631
-2.81941
-2.93193
2.04136
1.74465
1.40886
1.02638
0.573858
0.0367177
-0.559315
-1.1382
-1.59615
-1.83964
-1.85989
2.28799
2.01296
1.7004
1.3622
0.968198
0.496893
-0.0280226
-0.533221
-0.896934
-1.00064
-0.8666
2.42152
2.16256
1.85742
1.51291
1.10904
0.652326
0.177988
-0.248827
-0.526808
-0.543644
-0.338425
2.39058
2.08963
1.73318
1.33755
0.917551
0.494108
0.0923927
-0.252188
-0.483777
-0.52901
-0.352257
2.09161
1.69735
1.26399
0.861981
0.503236
0.189424
-0.0892858
-0.32058
-0.455245
-0.429184
-0.224455
1.4757
0.856019
0.513221
0.25418
0.0744497
-0.0680455
-0.194807
-0.287139
-0.308239
-0.243552
-0.130068
22.7493
15.1049
11.1089
8.78486
7.23763
6.16498
5.34781
4.6763
4.10983
3.65301
3.35985
25.0739
22.6983
18.6138
15.094
12.2032
9.94383
8.21046
6.87434
5.83999
5.06349
4.53647
20.3521
20.7322
19.7582
17.7755
15.3969
12.963
10.7918
9.00096
7.56987
6.44855
5.65749
16.6808
18.1296
18.179
17.5849
16.2269
14.423
12.4705
10.6136
8.97961
7.62075
6.59592
13.4821
15.1471
15.4714
15.7888
15.387
14.3947
12.9884
11.4108
9.85628
8.45921
7.35437
10.9805
12.6217
12.9105
13.5595
13.7003
13.3597
12.5568
11.4331
10.1582
8.89388
7.81756
9.40004
10.5494
10.9829
11.6215
11.9558
11.9796
11.6217
10.9242
9.98935
8.95372
7.99017
8.47119
9.22298
9.57383
10.1224
10.484
10.6548
10.5494
10.158
9.51985
8.73087
7.95847
7.7483
8.32702
8.57164
9.00756
9.32534
9.53535
9.55165
9.3451
8.91942
8.33159
7.72266
7.05222
7.59263
7.79616
8.15975
8.42443
8.62393
8.68636
8.58234
8.29816
7.86065
7.38038
6.62909
7.07612
7.21966
7.51688
7.72534
7.89364
7.96133
7.90614
7.70789
7.37466
7.00072
6.53902
6.80535
6.84712
7.05558
7.19305
7.31472
7.36371
7.3237
7.17382
6.91261
6.61683
6.38088
6.56003
6.55715
6.70089
6.77567
6.84909
6.86846
6.82411
6.69716
6.48104
6.24187
6.09505
6.27705
6.27705
6.38752
6.41968
6.45449
6.44402
6.38676
6.26716
6.07401
5.86835
6.02728
6.10833
6.0528
6.1127
6.10198
6.10221
6.06381
5.99109
5.87195
5.69208
5.5047
5.8972
5.91489
5.82933
5.85
5.80293
5.77241
5.70898
5.62108
5.49943
5.32789
5.15394
5.62041
5.64367
5.57007
5.57257
5.50317
5.44941
5.36694
5.26684
5.14149
4.97394
4.79891
5.44289
5.41956
5.32045
5.28999
5.19846
5.12527
5.03048
4.92323
4.79559
4.63284
4.46037
5.25721
5.18248
5.05387
4.98999
4.88116
4.79574
4.69767
4.58979
4.46215
4.30392
4.13485
4.99331
4.87427
4.73061
4.6501
4.54254
4.46203
4.37366
4.27106
4.14291
3.98352
3.80168
4.65708
4.49502
4.3481
4.27483
4.19589
4.14282
4.07454
3.97657
3.84161
3.6748
3.48411
4.26603
4.05287
3.93517
3.90989
3.89185
3.87907
3.82644
3.71801
3.56213
3.37976
3.18426
3.60377
3.58662
3.53384
3.60751
3.67465
3.69602
3.6328
3.48741
3.29671
3.09114
2.86524
4.62617
3.56344
3.77008
3.85962
3.83717
3.74478
3.54159
3.28505
3.03724
2.81075
2.56627
-17.8388
-4.30752
-0.0600426
1.85021
2.57277
2.72471
2.66755
2.53756
2.38166
2.22881
2.16513
-46.3482
-25.7912
-16.8435
-9.75846
-4.89798
-2.24318
-0.832766
-0.0692137
0.367194
0.643237
0.887078
-48.8959
-37.9506
-31.1495
-22.1648
-14.4256
-8.99536
-5.51178
-3.37211
-2.04255
-1.16878
-0.521245
-43.3294
-40.0753
-36.8393
-29.6394
-22.1385
-15.5786
-10.563
-7.07296
-4.73373
-3.16109
-2.01361
-37.4861
-37.1378
-36.0482
-31.6175
-26.0407
-20.0416
-14.7035
-10.4744
-7.35527
-5.1418
-3.54913
-33.0028
-33.409
-32.9806
-30.3846
-26.6685
-21.9462
-17.193
-12.9541
-9.50367
-6.8582
-4.91871
-29.6309
-30.1725
-29.822
-28.1143
-25.567
-22.0078
-18.121
-14.3117
-10.933
-8.1222
-5.90486
-26.8868
-27.3995
-27.0188
-25.7519
-23.8468
-21.0989
-17.9766
-14.7134
-11.6311
-8.90104
-6.59642
-24.5824
-24.9994
-24.5647
-23.5374
-21.9866
-19.7644
-17.2115
-14.442
-11.7191
-9.19339
-6.93407
-22.5755
-22.8806
-22.3889
-21.4945
-20.1474
-18.2643
-16.1119
-13.7402
-11.3564
-9.09199
-6.96632
-20.7877
-20.9572
-20.437
-19.614
-18.3806
-16.7208
-14.8485
-12.7812
-10.6832
-8.67272
-6.76704
-19.0705
-19.1031
-18.6139
-17.8301
-16.6712
-15.1713
-13.5027
-11.6709
-9.80819
-8.01403
-6.31582
-17.416
-17.3514
-16.8854
-16.1089
-15.0036
-13.6239
-12.1079
-10.4624
-8.79776
-7.19513
-5.66563
-15.8407
-15.6976
-15.2198
-14.4499
-13.3775
-12.0863
-10.6841
-9.18732
-7.6924
-6.2717
-4.91423
-14.2925
-14.0734
-13.5788
-12.8134
-11.7861
-10.5561
-9.24037
-7.86461
-6.51677
-5.26487
-4.09798
-12.7935
-12.4902
-11.9788
-11.2175
-10.2201
-9.02497
-7.7789
-6.50273
-5.28673
-4.19617
-3.23425
-11.3438
-10.9561
-10.4261
-9.66144
-8.66735
-7.51101
-6.30213
-5.10461
-4.0123
-3.07949
-2.28526
-9.92675
-9.45772
-8.91121
-8.14206
-7.14266
-5.98775
-4.79606
-3.66953
-2.70447
-1.93528
-1.29396
-8.54106
-7.99663
-7.43286
-6.65087
-5.62403
-4.4384
-3.24937
-2.20247
-1.38824
-0.808745
-0.360457
-7.18535
-6.57836
-5.98955
-5.1698
-4.07637
-2.83012
-1.64935
-0.721396
-0.099635
0.269442
0.531593
-5.91335
-5.24063
-4.5815
-3.67103
-2.45342
-1.14932
-0.0440332
0.681122
1.04715
1.18727
1.28728
-4.55422
-3.72402
-2.98295
-1.87038
-0.514882
0.767686
1.68178
2.12086
2.20659
2.10723
1.98524
-2.83505
-2.62217
-1.5569
-0.249128
1.09376
2.10637
2.58055
2.61457
2.48198
2.34096
2.31025
-5.22046
0.403899
1.645
2.59854
3.29939
3.52128
3.38411
3.10886
2.84343
2.61841
2.39983
-2.53925
1.51425
2.5231
2.62329
2.31775
1.90967
1.51152
1.15015
0.828467
0.560145
0.406638
-22.2038
-10.9512
-6.74465
-3.55739
-1.64278
-0.710452
-0.310531
-0.178521
-0.174236
-0.221193
-0.240606
-24.9888
-17.8645
-14.5985
-10.1622
-6.64509
-4.24932
-2.75921
-1.89278
-1.40383
-1.12017
-0.924697
-21.388
-18.8819
-17.4635
-13.8424
-10.4821
-7.5677
-5.33319
-3.79188
-2.78265
-2.12544
-1.67377
-17.4624
-16.9073
-16.5771
-14.4368
-12.1175
-9.57875
-7.27976
-5.43935
-4.07713
-3.10804
-2.40475
-14.5609
-14.527
-14.5015
-13.3698
-11.9951
-10.1498
-8.24216
-6.49892
-5.04802
-3.92009
-3.0508
-12.3127
-12.4599
-12.4698
-11.8449
-11.0369
-9.77892
-8.35532
-6.91228
-5.58388
-4.45524
-3.52198
-10.4417
-10.6686
-10.6779
-10.3261
-9.83539
-8.98005
-7.95141
-6.82547
-5.71089
-4.69413
-3.80473
-8.99552
-9.13043
-9.13307
-8.94215
-8.63604
-8.04819
-7.30618
-6.44306
-5.53942
-4.6674
-3.86425
-7.88448
-7.91609
-7.89369
-7.76826
-7.55363
-7.13345
-6.58738
-5.92333
-5.19765
-4.46587
-3.75446
-6.95845
-6.92096
-6.88089
-6.78427
-6.61624
-6.29903
-5.8818
-5.36148
-4.7764
-4.17047
-3.57368
-6.19694
-6.07845
-6.02657
-5.94475
-5.80581
-5.55564
-5.22362
-4.80458
-4.32521
-3.81777
-3.3079
-5.62322
-5.42246
-5.3532
-5.26292
-5.12859
-4.9125
-4.62979
-4.27635
-3.87185
-3.44026
-3.00139
-5.19379
-4.93415
-4.84646
-4.73313
-4.58438
-4.37313
-4.10803
-3.78898
-3.43245
-3.05772
-2.68077
-4.84306
-4.54007
-4.43101
-4.2907
-4.12278
-3.90559
-3.64231
-3.33792
-3.00986
-2.67655
-2.34644
-4.54397
-4.2166
-4.08224
-3.91174
-3.72005
-3.48855
-3.21593
-2.91222
-2.5987
-2.29618
-2.01243
-4.27504
-3.93291
-3.77659
-3.5801
-3.36278
-3.11009
-2.81771
-2.50227
-2.1926
-1.9134
-1.66913
-4.00802
-3.66233
-3.4866
-3.26906
-3.02811
-2.75058
-2.43082
-2.09542
-1.78442
-1.52712
-1.32197
-3.73988
-3.39985
-3.21211
-2.98081
-2.71492
-2.40207
-2.0433
-1.68198
-1.37081
-1.13912
-0.980386
-3.48218
-3.15499
-2.96198
-2.7192
-2.41881
-2.05208
-1.64305
-1.25845
-0.95827
-0.759703
-0.63815
-3.2312
-2.92837
-2.73435
-2.46863
-2.11166
-1.67439
-1.22089
-0.836974
-0.570288
-0.412098
-0.310013
-2.93333
-2.71562
-2.50149
-2.17672
-1.73631
-1.24008
-0.787945
-0.459619
-0.258963
-0.142449
-0.0503169
-2.8318
-2.58551
-2.25629
-1.80006
-1.2818
-0.795819
-0.426411
-0.205945
-0.0733348
0.0429381
0.27824
-2.37533
-1.73706
-1.25612
-0.823287
-0.472123
-0.235987
-0.13883
-0.132156
-0.141313
-0.137591
-0.0548003
19.1412
13.349
9.44868
6.85453
5.09769
3.88553
2.98021
2.27071
1.69769
1.25014
0.952135
15.493
15.1854
12.9999
10.4226
8.02325
6.09263
4.60211
3.44781
2.55965
1.90028
1.47466
10.1138
11.7697
11.6886
10.8389
9.22409
7.32165
5.64985
4.28053
3.20255
2.39026
1.86061
5.29339
7.90976
8.67066
8.96639
8.47542
7.37647
6.04475
4.76768
3.63428
2.73246
2.14924
1.86798
4.37739
5.352
6.38339
6.73882
6.52393
5.7175
4.74383
3.74858
2.88979
2.2991
-0.41098
1.69134
2.50139
3.77339
4.53101
4.83662
4.69321
4.18361
3.48434
2.78529
2.25295
-1.89158
-0.155266
0.397874
1.67307
2.51671
3.13385
3.35642
3.24359
2.8825
2.41166
2.02398
-2.80565
-1.36799
-1.09032
0.150303
0.868984
1.60641
2.04735
2.20735
2.11604
1.87683
1.64855
-3.50991
-2.19731
-2.17687
-0.981288
-0.372631
0.357758
0.8882
1.21765
1.33119
1.28236
1.18059
-4.10091
-2.99924
-2.79097
-1.91746
-1.32304
-0.626939
-0.0736105
0.3463
0.596421
0.70006
0.733555
-4.54827
-3.71338
-3.35313
-2.60685
-2.04805
-1.39321
-0.842356
-0.378377
-0.0452513
0.160485
0.300926
-4.83701
-4.13599
-3.79509
-3.11968
-2.59465
-1.97799
-1.43901
-0.955398
-0.572437
-0.298465
-0.0926723
-5.07775
-4.42046
-4.10703
-3.48459
-2.99031
-2.40586
-1.882
-1.39254
-0.981664
-0.661563
-0.412776
-5.29992
-4.63068
-4.32107
-3.72857
-3.25582
-2.69617
-2.18703
-1.69977
-1.27699
-0.93176
-0.650867
-5.32636
-4.70762
-4.42829
-3.86444
-3.40861
-2.86851
-2.37142
-1.8904
-1.46601
-1.11108
-0.823719
-5.29505
-4.70884
-4.44739
-3.90773
-3.46166
-2.93774
-2.44893
-1.97585
-1.55631
-1.20245
-0.916545
-5.24249
-4.66158
-4.39693
-3.87195
-3.42475
-2.91178
-2.4277
-1.96417
-1.55542
-1.21286
-0.944937
-5.10794
-4.53815
-4.268
-3.75559
-3.29928
-2.79238
-2.31169
-1.86135
-1.47103
-1.14972
-0.897217
-4.89402
-4.336
-4.05491
-3.55208
-3.08066
-2.57691
-2.10289
-1.67381
-1.31304
-1.02602
-0.807848
-4.61634
-4.0602
-3.75403
-3.25294
-2.76163
-2.26214
-1.80543
-1.41187
-1.09532
-0.855155
-0.681441
-4.26038
-3.69359
-3.34634
-2.84024
-2.33294
-1.84981
-1.43184
-1.09365
-0.835894
-0.651001
-0.526278
-3.7853
-3.19538
-2.78988
-2.28398
-1.78715
-1.35196
-1.00489
-0.742135
-0.552134
-0.423598
-0.350411
-3.2471
-2.54535
-2.08889
-1.63249
-1.20306
-0.857115
-0.604043
-0.416499
-0.288738
-0.208132
-0.198674
-1.9609
-1.37272
-1.02773
-0.745409
-0.500624
-0.326499
-0.200807
-0.0803565
0.0404515
0.134647
0.0888222
-0.733894
-0.824615
-1.33309
-1.9389
-1.91262
-1.2292
-0.191318
0.520775
0.878797
-0.739782
-0.81228
-1.05594
-1.45032
-1.38954
-0.876348
-0.131098
0.420586
0.717082
-0.720517
-0.762684
-1.00271
-1.34016
-1.30575
-0.814934
-0.136463
0.321858
0.570803
-0.690978
-0.692184
-0.914573
-1.14607
-1.06809
-0.701929
-0.153226
0.243591
0.437592
-0.788356
-0.885441
-1.11236
-1.62155
-2.02667
-1.86174
-1.05935
0.0339347
0.827644
-0.785369
-0.865625
-0.999997
-1.30615
-1.55687
-1.37316
-0.793585
0.0312274
0.673538
-0.768748
-0.831517
-0.956468
-1.23272
-1.45278
-1.3224
-0.732214
-0.00964606
0.533877
-0.723485
-0.778034
-0.89143
-1.10783
-1.2473
-1.06405
-0.649311
-0.077081
0.398519
2.27754
2.42561
2.42105
-0.389444
-0.433232
2.20266
-0.673925
1.86567
2.18735
2.79223
-0.459489
1.87355
-0.349255
-0.0934165
2.271
1.07794
-0.158262
-0.376149
1.07755
2.36241
0.724425
-0.757732
1.40733
-0.4606
2.49747
-0.0930534
-0.34033
-0.675247
-0.972259
-0.475793
-0.160182
1.06101
-0.0764474
1.29224
1.02085
2.42327
-0.44548
2.49892
-0.0832344
1.84473
-0.957448
1.30202
-0.171542
1.41784
-0.461882
-1.2557
-0.0906748
-0.716779
1.57563
1.83263
-0.486178
1.85604
-0.00898442
-0.161784
1.80136
0.735304
-0.747363
1.81067
-0.845175
-0.162552
0.015918
-0.0162156
-0.459488
-0.435073
-1.28633
2.35307
-0.594856
1.9555
2.41783
2.77506
-0.268442
3.54316
-0.356019
4.39936
-0.413157
3.35727
-0.734041
1.33629
-0.520594
-0.662377
-0.173711
-0.437064
2.34089
2.34914
-0.00280748
-0.341513
-0.373036
-0.0353845
-0.569246
-0.288333
2.41316
1.79742
-1.06399
3.22346
-0.704036
-0.598962
-0.315713
-0.262945
-0.542041
3.74626
0.304254
-0.694242
2.41313
0.408513
-0.495648
2.30127
-0.0198837
2.3373
-0.0647097
0.196303
1.44489
1.29518
3.16113
-0.406819
-0.15449
2.32991
1.78511
1.21586
1.94525
2.15348
-0.415383
4.26123
-0.351992
-0.183
-1.27928
-0.300655
0.0242109
-0.0184397
-0.00816978
-0.055557
1.60279
-0.157678
-0.719738
3.39191
2.35466
-0.127634
-0.71035
-0.438315
-0.406064
1.72331
-0.180432
0.564487
-0.526363
1.66031
1.75281
-0.382962
-0.357953
1.9288
3.14625
1.23257
1.41382
2.26925
-0.389927
4.20315
-0.402944
-0.132069
-0.254311
-0.598031
-0.169921
2.45941
-0.272461
-0.513812
3.4931
2.45638
-0.563419
-0.256068
-0.56133
0.459408
-0.265887
-1.25167
-0.0600337
-0.0528168
-0.25727
0.55798
1.11942
1.0824
-0.00719914
-0.419657
-0.500102
1.16131
1.87388
-0.766854
2.37024
-0.417583
2.17814
-0.424433
1.40833
1.18133
2.44512
-0.511462
-0.0847427
-0.121218
2.25151
-0.934157
2.40844
2.54345
2.30959
-0.546218
-0.0577902
2.32453
-0.46018
1.97838
-0.182852
-0.223137
2.36174
-0.00728428
3.1439
-0.00745132
1.95174
2.27614
-0.241805
1.1807
0.457614
1.18113
1.34314
-0.132919
2.43318
-0.0914672
1.52268
-0.212241
-0.0478838
-0.405142
-0.34325
-0.15169
-0.15299
1.71777
-0.391003
-0.189867
-0.0635196
-0.44933
-0.582653
2.23035
1.42709
4.20679
-0.398249
-0.346068
-0.53559
2.37623
1.64734
1.65807
-0.0582187
-0.475595
0.346192
-0.908154
2.43529
-0.539235
1.27511
-0.289529
-0.53685
-0.129317
-0.277873
-0.26978
0.749821
2.52091
-0.00866625
2.28102
0.816208
2.5091
-0.406201
1.38287
-0.00770694
-0.301738
2.254
1.37882
1.42905
-0.137235
0.515985
1.85808
-0.203211
-0.151224
-0.430826
1.53159
2.03769
-0.0990291
2.62359
1.21563
-0.230739
2.45279
1.78942
-0.509003
3.66936
2.01403
-0.183362
-0.478064
0.0308688
2.60609
-0.170348
1.73572
1.60797
-0.221156
1.5959
-0.635921
0.212101
-0.0992906
2.40102
1.93818
-0.268261
1.43331
1.11646
-0.2701
2.07155
-0.446655
1.40737
-0.455578
0.851417
0.159821
1.36805
0.00475334
-0.748638
1.46945
-0.771206
2.28667
0.171993
-0.0644815
-0.834479
1.83717
-0.268865
-0.50393
2.03672
3.68476
1.34182
-0.0149922
1.18761
-0.306103
-0.468395
0.54285
1.28312
-0.252106
2.21016
-0.144753
1.65805
-0.460321
-0.67028
2.19247
-0.324481
-0.497952
-0.292562
1.37935
2.42871
-0.249636
-0.475025
-0.278773
1.9983
-0.330875
-0.430532
-0.00310407
-0.125606
1.24114
-0.450147
0.0231321
-0.792038
-0.263162
-0.125721
0.888422
-0.10978
2.32374
-0.0379176
1.50696
1.39192
-0.162485
-0.140896
-0.101313
2.42696
2.33637
2.89214
-0.565046
-0.0539076
-0.154487
-0.764376
-0.287817
2.47247
-0.410453
-0.525164
-0.0569073
-0.078086
1.57903
0.0212658
0.987115
2.6433
1.24207
-0.299263
2.57477
-0.412374
1.67992
-0.118662
-0.548756
-0.426673
-0.152725
-0.472891
-0.587904
2.26212
-0.71962
-0.0581836
3.72817
-0.556165
-1.23351
1.34837
1.30793
1.99895
-0.0372562
-0.404731
2.32808
2.1857
-0.186457
-0.0145507
-0.929594
-0.560212
-0.0608157
1.94298
-0.0051632
0.676076
1.05784
-0.182921
-0.172068
-0.35533
0.128746
-0.0949337
4.67008
-0.0251449
-0.66493
-0.403377
-0.0244842
-0.693332
-0.0161173
1.03427
0.262753
4.26049
-0.0320787
-0.282338
-1.4195
1.25722
-0.445295
-0.146438
1.95058
-0.212123
-0.10818
-0.454895
-0.428182
-0.191774
1.23932
0.112873
-0.313975
-0.35579
-0.433295
0.895627
-0.200584
-0.160006
-0.5974
2.54967
-0.528823
2.24036
2.34975
2.43103
-0.623576
-0.389944
-0.780626
-0.0647554
-0.5231
-0.00893477
2.41895
2.57189
0.0129552
-0.055389
-0.0294241
0.795717
-0.0151174
-0.0117339
2.31575
1.20016
1.69009
1.03597
-0.454381
1.14541
-0.0346653
0.818241
1.60223
1.51506
2.269
-0.522785
1.39787
2.40071
0.754365
-0.426621
-0.750668
1.3853
-0.342405
-0.44414
1.71871
-0.148167
2.3918
-0.451717
2.55992
0.869334
1.69861
-0.00986285
-0.170504
2.27507
-0.146414
0.386476
1.8634
-0.250284
-0.245809
2.1458
2.37429
-0.546311
-0.0861187
-0.398616
1.59738
-0.728704
1.23473
-0.52322
-0.154392
-0.598144
-0.254995
0.310165
-0.569408
-0.0188123
-0.141976
1.24711
-0.253657
1.99179
2.03018
2.53151
1.58502
0.669749
-0.316474
1.86185
2.4034
-0.421391
2.08963
-1.17455
-0.128059
-0.0108607
-0.264477
-0.577856
2.43361
2.48648
2.01441
-0.990615
-0.519142
1.27137
2.44795
-0.174548
2.17321
-0.312541
2.17516
-0.0139364
1.76635
-0.65075
-0.101199
-0.0238095
-1.12449
-0.528131
0.858272
0.479486
3.0416
1.54594
-0.105643
-0.583571
2.16707
-0.174127
-0.237572
-0.616749
2.49111
2.40203
2.2828
-0.156581
-0.522847
-0.0364744
2.21523
1.61603
-0.469119
3.08058
-0.0805644
-0.0335123
-0.0499997
-0.454065
1.42039
-0.0169851
2.50322
-0.0140098
2.64956
-0.389168
-0.00901506
1.21172
-0.853429
-0.244185
1.86938
1.3303
-0.6798
2.45195
-0.278108
-0.425026
-0.0487374
-0.170125
-0.454871
-0.258445
2.82451
1.90288
2.16885
-0.602973
-0.128883
-0.0815379
2.32336
2.47985
-0.565939
1.3502
3.33069
0.685588
3.3392
-0.107821
-0.0586052
-0.0605185
-0.184404
0.0842425
0.76549
2.49601
-0.441269
3.30779
2.068
-0.550856
-0.303745
1.16595
2.5253
-0.690361
2.35859
2.54061
0.23681
2.28545
0.489562
-0.217528
-0.116554
-0.0755608
-0.0240898
-0.0234238
-0.59324
-0.0233291
-0.227653
-0.39729
-0.196451
-0.568159
-0.271577
-0.200837
1.24063
0.904642
-0.47431
0.123434
1.11978
0.0868688
-0.153305
-0.205141
-0.550581
-0.178861
-0.249092
1.30055
0.63327
2.46145
1.30148
2.15983
-0.320742
3.0604
1.51609
1.03673
1.53252
-0.440593
-0.0645398
-0.454012
3.30794
1.36655
1.51948
-0.139765
3.60302
-0.556091
3.29846
-0.497078
0.0143723
1.3713
-0.0181366
2.41608
-0.0772466
-0.423068
-0.101132
-0.587427
-0.262951
0.0760486
2.33632
-0.0233181
-0.059446
-0.635194
0.0344419
1.22147
0.164561
2.34534
-0.153133
1.08707
-0.310035
2.23073
1.95981
2.5979
-0.341538
-0.0673232
2.45704
-0.010282
2.54622
-0.158061
-0.178027
0.475242
-0.422971
-0.895051
-0.105112
-0.0252128
-0.3577
-0.278706
-0.389703
-0.0648773
-0.691521
1.24574
-0.123178
1.58025
1.59006
-0.783961
-0.286988
-0.464499
-0.0917106
3.02666
0.485304
2.11199
-0.0653496
2.42406
0.0063403
-0.216269
-0.0154357
0.34968
-0.0187571
-0.183166
-0.171078
3.98179
-0.240153
-0.456755
-0.492375
1.47169
-0.102877
-0.233207
2.42456
-1.08863
-0.0232612
4.23584
-0.469311
1.62355
0.987244
2.10553
-0.0294848
3.71035
-0.0596998
2.31459
-0.0823872
3.32922
-0.102953
-0.106348
-0.299803
-0.0357183
1.1595
-0.444896
-1.01648
2.39775
-0.0599576
0.0418665
-0.14891
0.690744
-0.594566
0.404868
-0.148822
-0.107081
0.712206
1.26357
-0.050486
1.29291
-0.170944
-0.606661
2.40693
1.93152
0.366064
-0.448051
-0.0855428
-0.251595
1.84153
-0.113455
0.0315354
1.27661
2.44813
2.24465
1.57123
2.3501
-0.0171096
-0.70541
-0.412979
-0.0600408
-0.241746
2.55824
1.69209
-0.0762821
-0.460325
2.38099
-0.154709
-0.128321
-0.734591
-0.395758
-0.364343
0.842031
-0.179805
2.55435
1.60228
-1.21497
2.15376
1.8652
0.0328458
-0.00319278
0.0598805
0.120116
2.42712
-0.187227
-0.979384
-0.328488
1.82166
-0.0311604
-0.209683
-0.0462129
-0.204828
2.38145
1.24342
-0.387379
-0.0768833
-0.165755
2.34708
1.05524
3.91804
2.66484
1.78961
-0.224859
-0.299374
-1.11542
-0.716966
-0.195141
2.1246
-0.446202
2.41622
3.27916
-0.324035
1.67883
2.46083
1.86039
-0.508572
-0.0680777
-0.12526
2.47362
-0.216037
2.56908
2.29448
2.43782
2.54673
0.0734676
1.38915
2.37804
2.709
-0.512456
1.28835
2.43923
-0.271033
-0.55779
1.63398
2.42196
-0.43281
-0.506017
1.35839
-0.110493
-0.0891071
-0.233214
1.54197
2.46805
0.533604
1.59135
-0.0155989
1.71929
-0.422384
-0.10126
-0.0218559
-0.0851504
1.42856
-0.0964194
2.21734
1.38475
4.11494
1.56031
1.34769
-0.269992
-1.2278
-0.0927414
-0.383743
0.0263966
-0.191798
0.103198
-0.601348
1.33171
1.44705
-0.0154237
-0.0385018
-0.0989777
1.93946
-0.460991
3.10529
-0.247831
2.64756
-0.0177532
-0.0842438
-0.507761
-0.274963
2.39926
2.47086
-0.432106
-0.690488
0.00979356
-0.213173
-0.0980498
0.236335
0.924021
0.0278925
2.55408
2.3602
-0.277862
-1.39261
-0.42981
-0.570621
-0.0353538
-0.0987799
-0.122134
-0.25455
2.36978
0.218574
0.0269862
2.44192
0.728824
2.33069
-0.250347
-0.117047
-0.0667973
2.4076
-0.23904
2.12514
1.83812
-0.103953
-0.4124
1.35451
2.43105
2.7235
-0.258792
-0.252321
-0.653446
-0.170017
2.49019
-0.963062
-0.106841
-0.648663
2.36284
-0.0579721
-0.0861123
2.10916
-0.0392972
1.53418
-0.116789
-0.560877
0.0939737
-0.333172
1.77205
2.72333
-0.242722
-0.187732
1.36575
-0.0533814
2.40986
-0.374697
0.000469486
-0.659839
2.45155
-0.0210535
-0.423982
-0.442161
-0.0211743
-0.0905318
2.33088
-0.0128609
-0.433985
1.35166
0.422361
-0.246578
-0.268456
-0.463538
-0.342468
1.92614
2.58945
-0.571997
0.908008
-1.11523
-0.123057
-0.00825456
-0.553921
1.79913
-0.236619
-0.536706
-0.0261958
-0.232227
-0.195001
2.60575
-0.177978
-0.0266204
2.41823
1.9801
2.33324
-0.417419
0.390473
2.09726
-0.241881
-0.166415
-0.0653994
1.45588
-0.7731
-0.377443
0.664384
-0.366331
1.26538
2.79557
1.65802
-0.706395
1.39696
-0.148466
0.0942399
-0.533727
1.38772
0.882481
2.34929
2.39289
-0.40709
-0.493184
-0.16041
-0.459852
-1.42971
-0.28735
2.6053
-0.0273869
-0.44933
2.38501
-0.0497107
-0.082666
1.3162
-0.214501
-0.271387
-0.505614
0.997303
-0.132662
2.37057
-0.450701
1.49394
-0.557072
-0.27118
4.56822
-0.676363
-0.354619
0.65525
-0.39165
-0.211317
-0.477336
-0.392517
0.876938
-0.540335
-0.0455167
-0.417927
-1.12558
-0.339302
2.25732
-0.356321
2.19367
-0.321354
-0.100302
-0.421472
0.770195
-0.0538622
-0.464224
2.4486
1.91792
0.536086
1.48549
-0.108633
-0.307693
3.00457
-0.097032
-0.387792
1.50781
-0.418699
-0.669171
-0.163208
-0.500556
-0.577891
-0.0856677
-0.0554269
0.00957285
2.44775
2.45423
-0.591601
2.53978
2.37349
-0.341038
2.33354
2.52327
-0.519477
4.15776
-0.541132
-0.115937
-0.250653
2.5399
-0.184504
-0.165618
-0.0965646
-0.980354
2.37699
-0.114854
-0.0841331
-0.0967163
-0.032854
1.09273
-0.0502844
2.15936
-0.423757
-0.0522357
1.65373
2.5485
-0.403305
-0.00330674
-0.376315
-0.526164
-0.565746
2.77659
2.34268
2.47064
-0.13362
-0.0435929
-0.0620154
-0.517681
-0.171755
3.14048
0.800204
2.20255
2.24399
-0.515912
2.43231
1.36152
-1.30027
-0.432053
-0.702331
-0.452101
1.47309
1.20454
-0.0256049
-0.42146
-0.141721
-0.593423
-0.285803
2.25927
1.54081
-0.100936
0.00360599
-0.0643784
-0.083138
2.73907
-0.106075
-0.139232
-0.244631
0.869395
-0.4333
-0.51214
1.48984
-0.254381
1.32248
2.51912
-0.426244
-0.0765115
-0.348233
0.785839
1.58702
-0.114354
-0.446867
-0.426339
-0.0879128
-0.424498
-0.251583
1.80428
-0.688381
-0.421097
2.43216
-0.0104394
-0.141025
1.98251
-0.13246
2.42012
2.54241
3.1454
-0.906167
-0.00678903
1.2039
-0.0177785
2.41067
1.36643
2.32348
-0.221612
1.24319
-0.220897
-0.406878
2.44357
-0.471558
-0.651217
-0.22706
-0.503394
-0.225434
-0.187166
-0.00993306
1.88219
1.39495
2.34757
-0.0927064
2.33017
1.36944
-0.233364
-0.666952
-0.108384
-0.082517
-0.0175622
1.45276
-0.419707
-0.407261
1.23361
-0.143089
1.15464
-0.0255434
2.05254
-0.0547183
0.726716
2.52197
2.06556
-0.505304
0.00114749
1.80934
-0.412242
1.20855
-0.0830122
0.0366425
-0.374793
-0.0812555
2.46864
2.25879
-0.114818
-0.625109
-0.136035
-0.0194061
-0.476216
-0.0754137
2.44086
-0.627262
-0.06405
2.25827
-0.272492
-0.218329
-0.19361
-0.490818
-0.421297
-0.00824545
-0.490895
-0.660106
1.23996
1.85026
-0.128978
-0.493805
0.0200169
1.34026
-0.249377
2.39656
3.97779
-0.833765
2.36063
1.82955
-0.630204
-0.425879
2.03661
2.31153
2.14304
0.708013
1.48803
3.14362
-0.322754
0.267727
1.18586
2.25669
-0.374329
1.55335
-0.149631
2.49419
1.04557
1.85253
-0.189833
-0.565395
-0.54966
2.45118
1.37731
-0.0948313
-0.0541671
2.40855
-0.255582
-0.303039
2.47165
-0.182118
-0.0874279
-0.515709
-0.317918
-0.412638
1.80794
-0.432131
2.21294
0.771773
3.80817
0.801544
2.46339
-0.535134
3.40599
-0.442382
2.42496
2.45928
-0.459672
1.41981
2.43253
-0.419838
-0.254169
-0.386764
2.60375
0.820841
2.23263
-0.158256
-0.0710964
-0.466814
1.03925
-0.267204
-0.423088
1.46455
1.19025
1.39229
0.665967
-0.0986936
3.82321
-0.324958
3.97844
-0.897412
-0.143718
-0.103351
-0.134402
1.61607
0.047242
2.39024
-0.0233356
-0.534394
2.46912
2.44736
-0.119091
0.474132
0.957771
2.65326
-0.207362
2.50069
-0.391131
-0.518048
-0.0771074
-0.169417
1.21386
-0.292212
1.65085
-0.580963
-0.0980447
-0.139227
-0.094279
2.31027
1.40804
2.35159
1.13662
0.211878
0.600041
3.14537
-0.0742591
-0.380311
1.53569
0.69059
-0.655948
0.225538
2.35774
0.0279351
2.80239
3.24611
-0.351077
2.53328
-0.128479
-0.0957284
0.843212
2.39013
-0.127685
-0.429207
2.45081
-0.0348617
2.57376
3.72843
-0.111199
0.866329
-0.100635
2.4187
3.13232
-1.06335
0.00440244
1.37576
-0.218632
0.811615
1.59625
1.27525
1.41374
0.912832
-0.0148265
-0.0860077
-0.331257
-0.505428
1.56644
2.11467
-0.358581
-0.00634848
0.913731
0.426896
-0.145763
2.87136
0.0296999
1.83019
-0.373351
2.27548
2.49241
-0.0272409
-0.155471
-0.197933
2.47648
2.48941
2.27201
2.28882
1.73357
-0.0410579
-0.117956
-0.431264
-0.355754
-0.0940435
0.42674
1.54377
1.59485
-0.504915
2.37047
-0.0871841
-0.593436
0.552603
-0.131135
-0.426348
0.957485
2.33871
-0.12437
-0.324093
-0.278265
0.849337
-0.24098
-0.0609242
-0.477763
-0.037339
-0.0946038
1.44858
-0.406458
-0.235911
-0.658581
-0.368003
-0.286184
-0.037396
2.44348
2.57859
-0.336091
2.48321
-0.0843001
-0.204656
-0.0913582
-0.164272
-0.365229
-0.346104
-0.298487
-0.443125
2.22757
-0.572783
-0.112315
-0.117915
-0.18289
-0.441139
2.41849
-0.466309
2.24579
0.0380342
-0.577825
-0.324982
-0.532288
-0.126144
-0.0284949
2.48005
3.83867
1.44467
2.68046
2.57716
0.86115
1.47819
-0.464465
3.04861
-0.274287
-0.256463
1.16594
2.36012
-0.278276
-0.372234
2.35098
0.358255
1.3941
4.58153
-0.146721
-0.449506
2.43888
1.10689
1.03379
1.2646
4.09688
2.40309
0.0180815
-0.424932
2.16718
0.102603
2.37019
1.1927
1.49066
2.44427
-0.181305
2.30205
1.73831
0.860549
2.31109
-0.0560042
1.64838
-0.0204976
-0.437439
-0.80602
-0.132247
-0.156783
-0.159977
-0.0723182
-0.139893
-0.032641
0.031047
1.28128
-0.114989
0.578813
2.0236
2.47746
0.118848
-0.0476394
-0.0463205