/*--------------------------------*- C++ -*----------------------------------*\
| =========                 |                                                 |
| \\      /  F ield         | OpenFOAM: The Open Source CFD Toolbox           |
|  \\    /   O peration     | Version:  3.0.1                                 |
|   \\  /    A nd           | Web:      www.OpenFOAM.org                      |
|    \\/     M anipulation  |                                                 |
\*---------------------------------------------------------------------------*/
FoamFile
{
    version     2.0;
    format      ascii;
    class       volScalarField;
    location    "0.888235";
    object      p;
}
// * * * * * * * * * * * * * * * * * * * * * * * * * * * * * * * * * * * * * //

dimensions      [0 2 -2 0 0 0 0];

internalField   nonuniform List<scalar> 
21246
(
0.858787
0.874442
0.861184
0.844549
0.819021
0.784773
0.742576
0.693898
0.644154
0.605268
0.596428
0.4147
0.534662
0.59892
0.642849
0.668328
0.675369
0.666966
0.647847
0.622158
0.596978
0.586837
-0.0411175
0.165684
0.289842
0.391053
0.471503
0.529052
0.563297
0.57698
0.574171
0.563188
0.560192
-0.402532
-0.171038
-0.0270098
0.112449
0.238722
0.342656
0.419589
0.469842
0.496726
0.507848
0.516924
-0.656406
-0.435144
-0.29986
-0.148128
0.00265407
0.139068
0.252024
0.337526
0.395878
0.433144
0.46383
-0.837352
-0.626887
-0.512509
-0.362725
-0.205717
-0.0538592
0.0824267
0.195643
0.282279
0.345269
0.397674
-0.968164
-0.760065
-0.673052
-0.527467
-0.373844
-0.218868
-0.0713171
0.0598594
0.168381
0.254172
0.327711
-1.03671
-0.866846
-0.786628
-0.645522
-0.500451
-0.349174
-0.198795
-0.058325
0.0646511
0.167996
0.260858
-1.086
-0.938228
-0.850054
-0.72534
-0.589743
-0.444422
-0.296093
-0.152571
-0.0215267
0.0932062
0.201157
-1.12449
-0.98117
-0.893265
-0.776964
-0.648121
-0.509021
-0.364745
-0.221712
-0.0869292
0.0339436
0.151448
-1.14042
-1.00115
-0.916791
-0.805809
-0.682179
-0.54843
-0.408514
-0.267817
-0.132576
-0.00727419
0.116049
-1.12957
-0.997573
-0.918801
-0.813192
-0.6947
-0.565978
-0.430456
-0.292853
-0.158762
-0.0319615
0.0954685
-1.11023
-0.981046
-0.905232
-0.80337
-0.68917
-0.56499
-0.433806
-0.299786
-0.167973
-0.0416797
0.0884554
-1.08664
-0.955913
-0.880879
-0.781112
-0.670032
-0.549643
-0.422558
-0.29247
-0.163907
-0.0400428
0.0890075
-1.0415
-0.914882
-0.843533
-0.746785
-0.639032
-0.522445
-0.399637
-0.274046
-0.149639
-0.0292632
0.0982614
-0.989264
-0.865393
-0.796593
-0.702535
-0.598207
-0.485758
-0.36785
-0.247703
-0.12853
-0.012938
0.111175
-0.936341
-0.811588
-0.743309
-0.651388
-0.55054
-0.442789
-0.330769
-0.217411
-0.104734
0.00542271
0.125026
-0.868763
-0.746893
-0.68157
-0.593528
-0.497668
-0.396465
-0.292441
-0.187718
-0.0828078
0.0216343
0.139484
-0.792425
-0.674674
-0.612746
-0.529898
-0.441048
-0.349455
-0.257144
-0.164191
-0.0684526
0.0304773
0.146955
-0.711309
-0.598163
-0.539015
-0.462444
-0.383612
-0.306474
-0.230924
-0.153043
-0.0669938
0.0282091
0.141339
-0.625172
-0.516741
-0.460025
-0.392684
-0.330802
-0.276737
-0.2245
-0.163343
-0.0839367
0.0134301
0.130171
-0.525346
-0.426372
-0.372384
-0.32545
-0.295969
-0.277509
-0.253795
-0.205642
-0.123601
-0.0136904
0.117142
-0.465542
-0.328198
-0.297357
-0.299037
-0.316547
-0.339833
-0.339512
-0.289402
-0.188038
-0.0538764
0.0944147
-0.0459546
-0.0825513
-0.184635
-0.276589
-0.353179
-0.446106
-0.461781
-0.392313
-0.258198
-0.0926105
0.0759799
1.05706
1.05833
1.01755
0.961265
0.909896
0.857608
0.798671
0.73143
0.661942
0.603408
0.58023
1.01344
1.07623
1.06891
0.986718
0.897844
0.83388
0.788771
0.733229
0.653657
0.582177
0.549264
0.670909
0.786078
0.857615
0.850769
0.772756
0.680622
0.62471
0.599272
0.564811
0.508968
0.479559
0.175933
0.276734
0.388287
0.453492
0.435138
0.350619
0.276693
0.258957
0.283303
0.301383
0.328594
-0.356919
-0.31959
-0.229043
-0.163176
-0.144127
-0.204057
-0.293304
-0.31983
-0.25113
-0.119332
0.00908204
-0.884436
-0.936651
-0.903146
-0.900319
-0.928407
-0.9962
-1.10694
-1.16021
-1.07686
-0.859081
-0.570143
-1.35499
-1.51834
-1.56347
-1.66388
-1.79949
-1.96368
-2.13709
-2.25317
-2.18566
-1.89685
-1.45614
-1.76893
-2.03494
-2.16202
-2.38468
-2.65745
-2.97597
-3.29755
-3.54333
-3.53549
-3.20723
-2.60213
-2.10335
-2.46429
-2.66562
-3.01284
-3.42859
-3.92014
-4.4537
-4.87716
-5.0113
-4.70102
-4.00351
-2.31127
-2.78844
-3.03942
-3.49992
-4.04928
-4.7054
-5.43929
-6.10928
-6.46842
-6.2013
-5.3829
-2.37239
-2.97903
-3.24047
-3.80517
-4.47105
-5.2696
-6.18248
-7.10171
-7.67716
-7.52583
-6.65972
-2.34626
-2.94541
-3.3095
-3.91733
-4.6614
-5.56053
-6.59479
-7.68282
-8.44791
-8.47916
-7.58956
-2.17193
-2.74435
-3.18027
-3.81029
-4.6012
-5.55725
-6.64946
-7.78375
-8.66736
-8.84296
-7.88272
-1.81243
-2.35568
-2.82644
-3.46218
-4.26462
-5.23424
-6.33033
-7.441
-8.32679
-8.51373
-7.66255
-1.31335
-1.79942
-2.26721
-2.88248
-3.66248
-4.60286
-5.65
-6.68257
-7.47259
-7.62206
-6.94756
-0.674145
-1.09644
-1.54469
-2.12819
-2.86979
-3.75734
-4.71966
-5.61455
-6.23006
-6.34087
-5.83467
0.0783321
-0.301332
-0.738576
-1.29846
-2.00182
-2.82503
-3.67901
-4.4078
-4.82565
-4.81983
-4.39743
0.826809
0.446468
-0.00646967
-0.558967
-1.22556
-1.97228
-2.70204
-3.25766
-3.47355
-3.29915
-2.93152
1.34088
0.915502
0.427002
-0.111061
-0.714013
-1.36348
-1.96852
-2.36699
-2.40276
-2.06885
-1.58048
1.45727
1.00074
0.512608
0.0219152
-0.506942
-1.07652
-1.58988
-1.85895
-1.72123
-1.2179
-0.496094
1.28382
0.838809
0.385075
-0.0797337
-0.587668
-1.12445
-1.5697
-1.73158
-1.42442
-0.757033
0.0142111
0.87303
0.442976
0.0193701
-0.405626
-0.864311
-1.33968
-1.65286
-1.5515
-1.0875
-0.49868
0.0141995
0.417746
-0.0670036
-0.415879
-0.749707
-1.09251
-1.30691
-1.30281
-1.06982
-0.69445
-0.299784
0.0311572
-0.540089
-0.746093
-0.80129
-0.843846
-0.896357
-0.886471
-0.812813
-0.639702
-0.405281
-0.161527
0.0541095
26.791
21.0253
16.4794
13.0994
10.59
8.72275
7.28613
6.14244
5.21708
4.49167
3.99662
20.043
19.8209
18.2315
15.8169
13.3494
11.0638
9.12327
7.55393
6.30355
5.33502
4.65134
12.7598
15.3085
15.6797
15.2054
13.7871
12.0272
10.1866
8.52437
7.11764
5.98842
5.1807
6.48155
9.88764
10.9677
12.0189
11.9478
11.2202
10.0724
8.75463
7.47481
6.35534
5.48499
2.64455
5.72072
6.52225
8.42815
9.16785
9.3768
8.99997
8.24828
7.31949
6.38722
5.6146
0.513692
3.11522
3.55464
5.39967
6.45805
7.21198
7.44137
7.24113
6.73764
6.09037
5.48028
-0.416084
1.39851
1.93014
3.37661
4.38456
5.31299
5.86605
6.05669
5.92422
5.57702
5.16983
-0.481184
0.570023
1.05673
2.1815
3.02003
3.90839
4.55695
4.95283
5.07143
4.96534
4.76472
-0.440394
0.328644
0.674685
1.54652
2.21019
2.9818
3.60227
4.06663
4.32011
4.37713
4.32922
-0.492235
0.227692
0.522604
1.243
1.77237
2.42427
2.97077
3.42749
3.73133
3.87879
3.93277
-0.253666
0.345746
0.566225
1.1672
1.58521
2.12992
2.59128
3.00539
3.30827
3.48816
3.59474
0.355447
0.729979
0.821813
1.2853
1.58762
2.02865
2.40152
2.7574
3.03214
3.21309
3.3326
0.803707
1.08669
1.13176
1.50052
1.70923
2.06068
2.34979
2.64272
2.87468
3.03674
3.15463
1.03554
1.34159
1.40714
1.73001
1.88311
2.1695
2.38851
2.62207
2.80496
2.93324
3.02827
1.50674
1.70894
1.71923
1.98066
2.08581
2.32053
2.48252
2.66285
2.79599
2.8834
2.94051
1.88034
2.02849
2.01552
2.2335
2.30372
2.49554
2.61182
2.74428
2.82866
2.87209
2.88815
2.06597
2.24372
2.25985
2.46532
2.5231
2.68426
2.76472
2.85286
2.88845
2.88404
2.84727
2.3677
2.51697
2.52122
2.70224
2.75232
2.88891
2.93711
2.98042
2.96418
2.90736
2.81987
2.683
2.80011
2.78882
2.95177
3.00066
3.11293
3.13201
3.12153
3.04601
2.9309
2.79252
2.96289
3.06511
3.0453
3.22473
3.28604
3.36209
3.3416
3.26497
3.12031
2.94052
2.74443
3.25514
3.36573
3.34102
3.58269
3.6286
3.64247
3.55409
3.39303
3.17058
2.92534
2.67771
3.66658
3.78409
3.80344
4.14276
4.05217
3.93401
3.73763
3.47755
3.17859
2.87754
2.59195
3.88892
4.43174
4.55689
4.82902
4.50138
4.17638
3.83268
3.4725
3.11733
2.78545
2.48071
5.97084
5.94417
6.07558
5.80305
5.0323
4.3826
3.83567
3.36191
2.96635
2.63162
2.32215
7.33942
10.5045
10.5786
9.70601
8.3336
7.00579
5.87829
4.95766
4.21637
3.64003
3.25748
-19.2158
-6.27371
-0.993157
2.65844
4.04017
4.28081
3.98246
3.52118
3.07175
2.7043
2.47031
-30.6014
-19.5476
-13.8896
-7.22018
-2.89717
-0.329872
0.900389
1.38821
1.4985
1.49382
1.49485
-32.2958
-25.9257
-22.2205
-15.3859
-10.0462
-5.82229
-3.05285
-1.38698
-0.462838
0.0461479
0.419393
-30.1998
-26.9708
-25.1177
-19.8117
-15.1268
-10.5321
-6.93701
-4.35278
-2.6308
-1.54099
-0.795211
-27.5122
-25.6635
-24.7604
-21.0631
-17.587
-13.5029
-9.89215
-6.92116
-4.68453
-3.08422
-1.97823
-25.1348
-23.8568
-23.2676
-20.6028
-18.1342
-14.8121
-11.6319
-8.71944
-6.30601
-4.40484
-2.95756
-22.9694
-22.0298
-21.5504
-19.4727
-17.6675
-14.9939
-12.3393
-9.70419
-7.35873
-5.37577
-3.75872
-21.0924
-20.3106
-19.8822
-18.1383
-16.7508
-14.5329
-12.3361
-10.0236
-7.86703
-5.93992
-4.29535
-19.5009
-18.7244
-18.3378
-16.7602
-15.6511
-13.7258
-11.8889
-9.86375
-7.92995
-6.13652
-4.53826
-18.0812
-17.3591
-16.884
-15.3963
-14.4752
-12.7249
-11.1649
-9.37142
-7.65148
-6.01836
-4.54449
-16.6027
-15.9639
-15.3646
-14.0764
-13.2424
-11.606
-10.2589
-8.64971
-7.12254
-5.64601
-4.32188
-15.1932
-14.5331
-13.9137
-12.7931
-11.8914
-10.4127
-9.22243
-7.76816
-6.41437
-5.09388
-3.90641
-13.8733
-13.142
-12.5054
-11.4389
-10.5257
-9.17747
-8.08914
-6.77357
-5.57598
-4.41595
-3.34584
-12.437
-11.6836
-11.0613
-10.0334
-9.14087
-7.89136
-6.87981
-5.69414
-4.64037
-3.64727
-2.73602
-11.0006
-10.2071
-9.59027
-8.59036
-7.70055
-6.56245
-5.60259
-4.54399
-3.6333
-2.8165
-2.10571
-9.58857
-8.73267
-8.10337
-7.12166
-6.22749
-5.16427
-4.25734
-3.33361
-2.57552
-1.94272
-1.41757
-8.12634
-7.21354
-6.57377
-5.6097
-4.70343
-3.69529
-2.85169
-2.07726
-1.4893
-1.04717
-0.705144
-6.60102
-5.63516
-4.98575
-4.03446
-3.10929
-2.1509
-1.39677
-0.799963
-0.409003
-0.168063
-0.00398415
-5.0491
-3.9929
-3.33431
-2.37811
-1.43155
-0.528066
0.0781357
0.450775
0.615456
0.647309
0.618149
-3.36817
-2.24177
-1.57185
-0.585999
0.372267
1.13215
1.50175
1.60128
1.53019
1.37263
1.19974
-1.70559
-0.392031
0.334116
1.3654
2.23272
2.69488
2.70662
2.51135
2.24727
1.966
1.71271
0.47648
1.54521
2.62903
3.65244
4.09014
3.93398
3.52392
3.03366
2.6244
2.27227
1.98909
0.501896
4.38321
5.17828
5.06135
4.68827
4.18653
3.6754
3.20052
2.81169
2.49638
2.26768
-0.937337
2.06047
2.77565
2.74153
2.40027
1.99264
1.60774
1.26539
0.963834
0.71117
0.550184
-17.5873
-8.49525
-4.87747
-2.34374
-0.842731
-0.135557
0.140466
0.203944
0.169241
0.098368
0.0548725
-20.1492
-14.2392
-11.4154
-7.85927
-4.98577
-3.04712
-1.85976
-1.184
-0.816864
-0.614876
-0.480033
-17.1718
-15.0371
-13.8177
-10.9335
-8.16006
-5.78613
-3.97533
-2.73578
-1.93516
-1.42233
-1.07602
-13.8181
-13.3386
-13.0689
-11.3874
-9.48041
-7.43332
-5.5708
-4.08369
-2.99017
-2.21741
-1.65492
-11.3318
-11.3021
-11.3018
-10.4366
-9.32866
-7.8725
-6.34219
-4.94344
-3.78074
-2.87868
-2.17829
-9.40434
-9.52386
-9.55974
-9.10647
-8.4821
-7.52387
-6.4041
-5.26459
-4.21189
-3.31588
-2.56653
-7.81936
-7.99336
-8.02566
-7.79194
-7.43978
-6.82173
-6.03947
-5.17261
-4.30521
-3.50942
-2.79751
-6.61847
-6.70671
-6.7237
-6.6126
-6.41575
-6.02005
-5.48289
-4.84254
-4.15681
-3.48805
-2.85628
-5.73292
-5.724
-5.71086
-5.64197
-5.51655
-5.25364
-4.88049
-4.40971
-3.87633
-3.3289
-2.78025
-5.05203
-4.96031
-4.92805
-4.86799
-4.77036
-4.58059
-4.30902
-3.95599
-3.5404
-3.0991
-2.64658
-4.5529
-4.37564
-4.32067
-4.25324
-4.16205
-4.0097
-3.7973
-3.52117
-3.19054
-2.83099
-2.4548
-4.22847
-3.98371
-3.89724
-3.79964
-3.68989
-3.54363
-3.35665
-3.12383
-2.84889
-2.54852
-2.22932
-4.01117
-3.73105
-3.61053
-3.47522
-3.33409
-3.17351
-2.98716
-2.77126
-2.52739
-2.2669
-1.9949
-3.82141
-3.52274
-3.37275
-3.20419
-3.03628
-2.86068
-2.66852
-2.45647
-2.22731
-1.99192
-1.75343
-3.636
-3.33187
-3.163
-2.97205
-2.78305
-2.59391
-2.39181
-2.17374
-1.94598
-1.72275
-1.51004
-3.46369
-3.16593
-2.98926
-2.78931
-2.5858
-2.38109
-2.16034
-1.92314
-1.68219
-1.45769
-1.25798
-3.31624
-3.03138
-2.85405
-2.65433
-2.44253
-2.21795
-1.969
-1.69936
-1.43277
-1.19837
-1.00921
-3.19729
-2.93096
-2.75924
-2.56651
-2.34891
-2.09873
-1.80872
-1.49436
-1.19491
-0.945985
-0.760846
-3.10485
-2.86161
-2.7018
-2.51752
-2.28855
-2.00149
-1.65988
-1.29955
-0.97102
-0.709405
-0.515417
-3.02672
-2.81578
-2.67296
-2.4867
-2.22943
-1.89271
-1.50263
-1.11477
-0.779629
-0.515405
-0.298148
-2.91442
-2.77853
-2.64708
-2.43285
-2.12363
-1.73705
-1.32692
-0.954018
-0.651657
-0.409704
-0.199631
-2.9105
-2.81475
-2.62159
-2.31702
-1.94746
-1.55326
-1.18747
-0.889644
-0.660922
-0.448293
-0.129923
-2.80157
-2.38797
-2.0134
-1.68848
-1.39769
-1.13867
-0.941888
-0.827856
-0.765392
-0.71694
-0.661698
16.6549
11.8262
8.44778
6.21181
4.6687
3.58763
2.78796
2.1664
1.65607
1.25273
0.973851
13.3392
13.1039
11.289
9.0913
7.04444
5.39622
4.11097
3.11623
2.34576
1.76663
1.38087
8.61801
10.08
10.0549
9.32104
7.95313
6.38134
4.9496
3.77603
2.8498
2.14614
1.67629
4.32355
6.6279
7.3692
7.6583
7.24589
6.33604
5.20951
4.12448
3.16036
2.38812
1.87891
1.26081
3.48086
4.39469
5.31539
5.67458
5.49533
4.85818
4.03795
3.19943
2.47164
1.96745
-0.769646
1.09857
1.8601
2.97335
3.68913
4.01929
3.91454
3.49941
2.92133
2.33797
1.89537
-2.08536
-0.541666
-0.00501517
1.08917
1.88073
2.45882
2.69365
2.64318
2.35689
1.97428
1.66919
-2.89469
-1.62406
-1.3151
-0.284269
0.417057
1.08451
1.50737
1.68767
1.65182
1.47697
1.31195
-3.51313
-2.36643
-2.28034
-1.25612
-0.697735
-0.0355781
0.464809
0.787728
0.923047
0.919967
0.874707
-4.03975
-3.03706
-2.88157
-2.07625
-1.53461
-0.911008
-0.396969
0.00116563
0.253378
0.380474
0.450779
-4.43395
-3.67905
-3.36813
-2.69219
-2.18151
-1.59352
-1.08551
-0.652487
-0.329894
-0.116307
0.044663
-4.68661
-4.05895
-3.75323
-3.14838
-2.67093
-2.11671
-1.62164
-1.17469
-0.811179
-0.540776
-0.331001
-4.89887
-4.31361
-4.0305
-3.47489
-3.0263
-2.50169
-2.02229
-1.57321
-1.18817
-0.879866
-0.643566
-5.09762
-4.50494
-4.22489
-3.69815
-3.26925
-2.76806
-2.30344
-1.85843
-1.46508
-1.13451
-0.872824
-5.1283
-4.58271
-4.32894
-3.83084
-3.41756
-2.93555
-2.48295
-2.04459
-1.65089
-1.31044
-1.04003
-5.11136
-4.59823
-4.36021
-3.88689
-3.48378
-3.01825
-2.57495
-2.14467
-1.75599
-1.4161
-1.14526
-5.07891
-4.57568
-4.3356
-3.8788
-3.47751
-3.02426
-2.58804
-2.16769
-1.78918
-1.45875
-1.18953
-4.97937
-4.49134
-4.24809
-3.80623
-3.40119
-2.95644
-2.52689
-2.12003
-1.75865
-1.44974
-1.19853
-4.81557
-4.34371
-4.09382
-3.66465
-3.25207
-2.81372
-2.39385
-2.00707
-1.67134
-1.39086
-1.16282
-4.60142
-4.1379
-3.87079
-3.44804
-3.025
-2.59416
-2.19218
-1.83615
-1.53649
-1.29229
-1.09323
-4.325
-3.85991
-3.56396
-3.14249
-2.71292
-2.29929
-1.93127
-1.62062
-1.36746
-1.16566
-1.00498
-3.95233
-3.47606
-3.13943
-2.72381
-2.30929
-1.93749
-1.62717
-1.377
-1.17635
-1.01619
-0.888735
-3.52592
-2.97554
-2.60378
-2.233
-1.87863
-1.57932
-1.34257
-1.15386
-0.996771
-0.867258
-0.770717
-2.52355
-2.05528
-1.76925
-1.53986
-1.3333
-1.16524
-1.03464
-0.922526
-0.813125
-0.703033
-0.608244
-0.603949
-1.06284
-1.71502
-1.74205
-1.0934
-0.0982691
0.58843
0.956578
0.943133
-0.601643
-0.816352
-1.25197
-1.23191
-0.737396
-0.0254769
0.505516
0.815391
0.790792
-0.565336
-0.754226
-1.13123
-1.12383
-0.663802
-0.0164508
0.425348
0.69192
0.663949
-0.514748
-0.674792
-0.965915
-0.909303
-0.550117
-0.0183871
0.356721
0.596436
0.5391
-0.603851
-0.663194
-0.802081
-1.07458
-1.5157
-1.78975
-1.559
-0.777934
0.214853
-0.606857
-0.661928
-0.770537
-0.935662
-1.20347
-1.36381
-1.12592
-0.564645
0.208076
-0.58719
-0.642051
-0.729341
-0.881769
-1.1148
-1.25361
-1.07921
-0.50721
0.175349
-0.558534
-0.593762
-0.674915
-0.805795
-0.97263
-1.05251
-0.862888
-0.450654
0.128234
1.85719
1.81626
1.8084
-0.16543
-0.219706
1.59312
-0.575363
1.4154
1.58256
2.40811
-0.243283
1.42053
-0.137901
-0.0663
1.85398
0.968453
-0.0446331
-0.163836
0.966952
1.93075
0.773732
-0.43393
1.15298
-0.104534
1.86748
-0.0649512
-0.127893
-0.560761
0.0381045
-0.209814
-0.0454632
1.19169
-0.0347434
1.08776
1.19871
1.80663
-0.0983779
1.86426
-0.035081
1.39281
-0.117053
1.09401
-0.105028
1.15893
-0.3025
-0.814348
-0.158821
-0.906738
1.67709
1.37606
-0.213058
1.40022
-0.00696867
-0.104356
1.35834
0.777238
-0.418339
1.37495
0.192735
-0.0851338
0.384457
-0.00456449
-0.259111
-0.23269
-0.283122
1.92233
-0.161778
1.43027
1.80313
2.37588
-0.080522
2.48153
-0.190678
2.52212
-0.098288
2.34195
-0.336418
1.113
-0.342345
-0.526628
-0.0902617
-0.233441
1.8762
1.875
0.328969
-0.185993
0.0221731
0.000863556
-0.327094
-0.0461919
1.78376
1.36874
-0.168909
1.99623
-0.49739
-0.797848
-0.102487
-0.0430049
-0.295915
2.52734
0.617815
-0.813444
2.06477
0.640712
-0.255935
1.69414
-0.00655291
1.87301
-0.0241464
0.525075
1.17173
1.09034
2.09734
-0.18942
-0.129364
1.87653
1.35748
1.04311
1.46103
1.87708
-0.196839
2.62038
0.384994
-0.052043
-0.739859
-0.0884717
-0.0227437
-0.00688431
-0.0042217
-0.0180681
1.26215
-0.0861262
-0.864837
2.38337
1.74412
0.240837
-0.351529
-0.229613
-0.166564
1.87116
-0.0692789
0.692224
-0.364935
1.54241
1.33904
-0.198951
0.00278734
1.41897
2.57966
1.04441
1.14333
1.64216
-0.197745
2.53886
-0.180408
-0.103034
-0.177317
-0.337857
-0.0483886
1.93383
-0.0596767
-0.264035
2.42673
1.91522
-0.132865
-0.0627589
-0.340714
0.517036
-0.0349289
-0.298725
-0.0337383
-0.0167775
-0.0129836
0.672284
1.23193
1.16202
-0.00236812
-0.208697
-0.328031
1.20918
1.39054
-0.421338
1.76287
-0.21758
1.60259
-0.199397
1.1355
1.02236
1.87333
-0.337969
-0.026793
-0.0909255
1.86144
-0.118505
1.79446
1.93956
1.64061
-0.294971
-0.0189647
1.8716
-0.20725
1.45176
-0.0503128
-0.0599525
1.751
0.00366254
1.96314
-0.00172938
1.44292
1.86342
-0.0643985
1.02463
0.597225
1.32337
1.11704
-0.0455869
1.7901
-0.133797
1.20028
-0.137761
-0.0139222
-0.189834
-0.102491
-0.138373
-0.0448194
1.32195
-0.185362
-0.052345
-0.0227011
-0.258916
-0.329247
1.85473
1.14875
2.73224
-0.194806
-0.345865
-0.102729
1.76844
1.28955
1.29474
-0.10665
-0.169205
0.587178
-0.116539
1.63668
-0.288317
1.07807
-0.0821922
-0.575935
-0.0442041
-0.0782811
-0.0720336
1.01732
1.98159
0.255816
1.62776
0.822869
1.86819
-0.198688
1.12027
-0.00226255
0.045747
1.85196
1.13633
1.1648
-0.153718
0.662501
1.39872
0.0142937
0.07319
-0.256281
1.21179
1.48255
-0.160211
1.89285
1.04246
-0.063823
1.78004
1.8409
-0.262799
2.53546
1.50785
-0.0849591
-0.0721752
0.290784
1.91708
0.0155909
1.341
1.6864
-0.0806484
1.26044
-0.516022
0.489923
-0.0799314
1.79487
1.43776
-0.0424672
1.16818
1.27913
-0.0740925
1.53076
-0.219367
1.55129
-0.201563
0.840551
0.505261
1.13046
0.0129879
-0.405827
1.18196
-0.571211
1.68511
0.489306
-0.0214015
-0.452123
1.75331
-0.118782
-0.28145
1.7838
2.1336
1.10331
-0.0124866
1.028
-0.098404
-0.267291
0.632296
1.08289
-0.100025
1.84568
-0.033738
1.28031
-0.257771
-0.276071
1.62684
-0.136206
-0.533318
-0.189356
1.13693
1.77198
-0.0261367
-0.113877
-0.0368526
1.46238
-0.075038
-0.255479
0.00384005
-0.11157
1.05852
-0.117795
-0.0292753
-0.622202
-0.0467401
0.100412
0.853824
-0.0328292
1.87184
-0.0118841
1.45445
1.14452
-0.0420972
0.0805357
-0.0757486
1.78814
1.87329
2.00942
-0.335011
-0.0162251
-0.10059
-0.661389
0.436126
1.79529
-0.229252
-0.560071
-0.0330732
-0.0477175
1.25097
0.246234
1.16393
1.93801
1.05049
-0.0442787
1.95092
-0.203176
1.30253
-0.0886648
-0.0676309
-0.203785
-0.0431109
-0.16501
-0.357633
1.64279
-0.481781
-0.0165893
3.09475
-0.0699318
-0.261656
1.12068
1.08938
1.50064
-0.137254
-0.203581
1.87752
1.62249
-0.0539117
-0.00235778
-0.103251
-0.379608
-0.0219372
1.4328
-0.00896035
0.638258
0.9567
-0.0501337
-0.0475795
-0.194456
0.444709
-0.0298141
2.66508
-0.0115851
-0.445477
-0.188694
-0.0119021
-0.619076
-0.00835949
1.13246
0.555417
2.50434
-0.0104664
0.00798588
-0.404069
1.06667
-0.240812
-0.0881676
1.73892
0.0828369
-0.0324028
-0.155998
-0.184637
-0.0544463
1.05939
0.374443
-0.0625064
-0.135379
-0.208788
0.813752
-0.07538
-0.04899
-0.2617
1.96874
-0.276233
1.63072
1.87523
1.78332
-0.402197
-0.0171038
-0.679276
-0.033045
-0.267752
-0.00247761
1.88288
1.97754
-0.0315798
-0.033487
0.23203
0.701158
-0.00693634
-0.000969719
1.86782
1.03759
1.29574
1.12219
-0.21694
0.989966
0.338966
0.753722
1.26277
1.20328
1.85299
-0.264717
1.13107
1.89833
0.787835
-0.232409
-0.402301
1.14072
-0.188579
-0.259611
1.5808
-0.0419498
1.91636
-0.175936
1.94333
0.778299
1.31172
-0.00224502
-0.0489315
1.87609
-0.0847155
0.548145
1.39892
-0.0734421
-0.100876
1.58679
1.88355
-0.551382
-0.00720847
-0.191109
1.23999
-0.792835
1.05667
-0.125659
-0.0459154
-0.363889
-0.0610304
0.625332
-0.0961104
-0.123725
-0.08111
1.06197
-0.0395283
1.76187
1.51868
1.83859
1.25367
0.70938
-0.0664181
1.41314
1.91774
-0.144729
1.53928
-0.598333
0.237868
-0.00589417
-0.0791353
-0.342838
1.84207
1.82749
1.5111
-0.150658
-0.260422
1.07513
1.89927
-0.0496436
1.61201
-0.136286
1.61257
-0.0371379
1.80354
-0.377818
-0.0441792
-0.0116033
-0.931314
-0.117879
0.83774
0.644326
2.51996
1.23134
-0.0389455
-0.295027
1.8205
-0.0480138
-0.111212
-0.998211
1.85107
1.67313
1.68767
-0.0532889
-0.085945
-0.011803
1.63393
1.2636
-0.071524
1.99676
-0.0775035
-0.00896126
-0.0324472
-0.285615
1.1581
-0.00770546
1.83841
-0.121529
1.83885
-0.0960186
-0.00273643
1.30751
-0.456516
-0.0740941
1.42168
1.10967
-0.458277
1.92049
-0.0664325
-0.182465
-0.151487
-0.0737896
-0.101189
-0.128108
2.30862
1.43091
1.59508
-0.756051
-0.137923
-0.0496372
1.90766
1.84158
-0.379025
1.10321
1.98587
0.672408
2.51401
-0.109375
-0.117448
-0.158458
0.033546
0.373095
1.03629
1.97385
-0.115882
2.36675
1.53035
-0.601072
-0.0301053
1.01674
1.94333
-0.335804
2.03875
1.97104
0.447231
1.69083
0.632909
-0.140748
-0.0915331
0.150911
-0.0143972
-0.012667
-0.395863
-0.04802
0.23633
-0.11924
-0.0562901
-0.343278
-0.186414
-0.0586899
1.05983
0.860113
-0.272187
0.367385
0.976601
0.505564
-0.0898887
-0.101302
-0.578628
0.0174895
0.284753
1.09079
0.913853
1.85036
1.08714
2.08536
-0.140591
2.36077
1.19198
0.912436
1.22376
-0.175608
-0.0187432
-0.263699
2.39201
1.1051
1.45783
-0.0138215
2.12912
-0.397004
2.20921
-0.116617
-0.00581109
1.12988
-0.00498448
1.87825
-0.0380563
-0.189523
-0.106084
-0.651377
-0.0486881
0.390931
1.87293
-0.00774054
-0.0365282
-0.406763
-0.00912946
1.04696
0.469322
1.87439
0.0690404
0.955039
-0.157572
1.64574
1.45947
1.91787
-0.123677
-0.125395
1.84546
-0.00416728
1.80826
-0.0452707
-0.05098
0.642963
-0.185394
-0.146008
-0.0669896
0.308153
-0.138489
-0.128755
-0.105455
-0.0230441
-0.597122
1.0621
-0.106867
1.2481
1.23485
-0.565071
0.00116271
-0.187188
-0.0617056
1.98498
0.644963
1.85087
-0.144088
1.88198
0.00870418
-0.0710223
-0.0294349
0.595914
0.206166
-0.083829
-0.0692369
2.82623
-0.131931
-0.202276
-0.264601
1.18801
-0.0782539
-0.128398
1.79729
-0.648388
-0.0124204
2.27036
-0.115183
1.26886
0.851203
2.02713
-0.0167492
2.60099
-0.0352723
1.70848
-0.044507
2.54041
-0.0871902
-0.0146242
-0.0289201
-0.0154106
1.00982
-0.155765
-0.886969
1.89494
-0.035271
0.269245
-0.0418277
0.961883
-0.329123
0.492645
-0.137555
-0.0550662
0.977957
1.06422
0.283706
1.08645
-0.107881
-0.188207
1.80182
1.45077
0.662986
-0.265767
-0.0258895
-0.12791
1.40316
-0.0991919
0.466358
1.07984
1.87284
1.66079
1.24276
1.605
-0.00722993
-0.468928
-0.22613
-0.0186888
0.0459947
1.9068
1.31319
0.152118
-0.0722112
1.76774
0.125225
-0.0717607
-0.760834
-0.0921382
0.13678
0.961083
-0.148756
1.90953
1.2623
-0.701075
1.81729
1.41663
0.496206
-0.00659604
0.333042
0.37214
1.80224
-0.0379581
-0.193556
-0.185211
1.39161
-0.00992708
-0.0695571
-0.119036
-0.156053
1.88012
1.05258
-0.161084
-0.125928
-0.0588372
1.87514
0.93014
2.17034
1.8409
1.37317
-0.0822882
-0.0950114
-0.600746
-0.694017
-0.0588102
1.57418
-0.246738
1.87769
2.21781
0.373607
1.30521
1.77143
1.40418
-0.281432
-0.0202915
-0.11197
1.7806
-0.149516
1.88464
1.70172
1.69348
1.94635
0.493262
1.14071
1.75719
1.79503
-0.466161
1.08304
1.96295
0.0265758
-0.399849
1.25921
1.77949
-0.226615
-0.505485
1.09196
0.2428
-0.116833
-0.158465
1.22986
1.85061
0.642941
1.49774
-0.00619243
1.33179
-0.144603
-0.0864483
-0.0363117
-0.0420047
1.16605
-0.0793761
1.83483
1.13748
2.76424
1.2156
1.11919
-0.0517569
-0.645766
0.30628
-0.103939
-0.0243084
-0.0877291
0.354432
-0.406745
1.11041
1.17415
-0.00739323
-0.0134959
-0.0834815
1.44787
-0.292976
2.0667
-0.138657
2.01482
-0.00952816
-0.0262495
-0.259783
-0.0749456
1.97808
1.84937
-0.0605054
-0.349058
0.000992406
0.0863828
-0.117212
0.551469
0.880081
-0.0295335
1.81822
1.74743
-0.0656422
-0.421316
-0.210284
-0.227749
-0.0111056
-0.0745045
-0.0467501
-0.290109
1.88272
0.538125
-0.0253652
1.91921
1.00627
1.70368
-0.0705179
-0.0825084
-0.0226893
1.88191
-0.071519
1.58103
1.39007
-0.031565
-0.180231
1.11177
1.76934
1.8083
0.0921418
0.0260069
-0.43096
0.426465
2.07103
-0.105762
-0.141279
-0.383634
1.87713
-0.0305573
-0.0410779
1.56906
-0.0128103
1.53664
-0.12081
-0.106575
0.35432
-0.147472
1.69874
1.92377
-0.161259
-0.0505176
1.10634
-0.0285657
1.78409
-0.388955
-0.0019558
-1.02422
1.83374
-0.0105256
-0.186239
-0.1887
-0.0123759
-0.0280348
1.87207
-0.0042109
-0.242135
1.12147
0.570613
-0.0791386
-0.179692
-0.0620885
-0.107596
1.44698
1.98729
-0.322101
0.811598
-0.210479
-0.0770373
-0.00359009
-0.0994304
1.37888
-0.150205
-0.281316
-0.0149131
-0.0672326
-0.0680995
1.9413
-0.0617644
-0.0151519
1.88848
2.17593
1.7322
-0.106614
0.613176
1.56176
-0.068124
-0.0303378
-0.0379913
1.17798
-0.601698
-0.0987203
0.730743
-0.136718
1.07325
2.46858
1.80802
-0.661969
1.11305
-0.0366938
0.372209
-0.287563
1.14103
0.858436
1.87868
1.90713
-0.194904
-0.101215
-0.0426224
-0.308337
-0.459963
-0.273691
2.20365
0.484682
-0.221739
1.88009
-0.0314604
-0.021529
1.45314
0.224165
-0.0564355
-0.0821141
0.888812
-0.0376143
1.88159
-0.0610835
1.20283
-0.549635
-0.0500911
2.70895
-0.449075
-0.0831101
0.707182
-0.12024
-0.0689974
0.0755499
-0.0785885
0.983693
-0.37839
-0.0149471
-0.19833
-0.880148
-0.0843539
1.67016
-0.13602
1.54312
-0.106734
-0.0667214
-0.198531
0.905797
-0.123114
-0.302323
1.92938
1.41327
0.598816
1.19647
-0.077902
-0.0995348
2.34102
-0.0625635
-0.146327
1.19138
-0.268312
-0.499964
0.191154
0.0620303
-0.152506
-0.139201
-0.0170068
0.00128744
1.91494
1.88984
-0.117661
1.94865
1.75991
-0.113393
1.87293
1.6799
-0.0838314
2.85406
-0.598012
-0.0347757
-0.18194
1.99479
-0.0402454
-0.0791106
-0.0799856
-0.856509
1.89196
-0.0748479
-0.12833
-0.0619745
-0.0074665
0.97528
-0.0214481
1.81359
-0.188979
-0.039987
1.58438
1.98258
-0.209136
0.227103
-0.152589
-0.276214
-0.10039
2.10635
1.74027
1.89084
0.14714
-0.0122481
-0.0371547
-0.247148
-0.0177712
2.9566
0.924875
1.82861
1.65643
-0.264172
1.96663
1.09828
-0.464331
0.0880743
-0.781341
-0.266226
1.1903
1.03872
-0.0141491
-0.225905
-0.0167216
-0.513151
-0.0873099
1.66731
1.21192
-0.0847849
-0.0220755
-0.0177535
-0.0815419
1.92571
-0.0585876
-0.0636229
-0.175848
0.840297
-0.123799
-0.334378
1.47836
-0.0364477
1.09891
2.40894
-0.23318
-0.0506791
-0.110089
0.798868
1.80401
0.201746
-0.191126
-0.180396
-0.110506
-0.211047
0.0237125
1.36824
-0.648216
-0.200263
1.87488
-0.00402604
-0.0844456
1.84767
-0.0319773
1.89
1.84895
2.42243
-0.146355
-0.00204544
1.03782
-0.118663
1.88101
1.12902
1.87477
-0.0612049
1.05921
-0.0627979
-0.0786043
1.88568
-0.270622
-0.421095
-0.0618693
-0.257375
0.0567509
-0.0951289
-0.0033844
1.42427
1.14591
1.71373
-0.0542173
1.87292
1.11894
0.0910326
-0.324484
-0.120933
-0.0432418
0.000421969
1.57546
-0.203273
-0.0843416
1.0563
0.240684
1.0108
-0.0129163
1.78741
-0.0351643
0.771327
2.20607
1.53228
-0.250676
-0.020244
1.62944
-0.0845408
1.04519
-0.0407396
-0.0293986
-0.184723
-0.113944
1.92758
1.84922
-0.0452868
0.00178443
-0.0385901
-0.00850935
-0.230761
-0.0346841
1.89538
-0.38238
-0.0191911
1.96584
-0.187301
-0.169989
0.000425737
-0.258876
-0.195569
-0.00219292
-0.335176
-0.159305
1.06046
1.37594
-0.0447396
-0.10241
0.243204
1.11522
-0.00563608
1.78695
2.63975
-0.470715
1.89069
1.39778
-0.520907
-0.204105
1.48392
1.87046
1.5616
0.747058
1.19923
2.02459
-0.114098
0.483912
1.02931
1.65884
-0.206892
1.23581
-0.0622624
1.80636
0.950253
1.41124
-0.0515623
-0.391379
-0.0856466
1.98219
1.13473
-0.0748471
-0.0216449
1.88387
0.0200712
-0.0867515
1.73276
0.0960876
-0.0547401
-0.271797
-0.104036
-0.17499
1.38489
-0.178422
1.6227
0.795917
2.06473
1.05431
1.88837
-0.0847357
2.04478
-0.234418
1.77642
1.89062
-0.254078
1.1602
1.83844
-0.199743
-0.0410811
-0.189831
1.94688
0.818637
1.6364
-0.0564948
-0.0236844
-0.156422
1.24764
-0.107652
-0.0628715
1.18135
1.03287
1.11342
0.725127
-0.166838
2.12099
0.315626
2.39357
-0.664536
-0.0427889
-0.0756841
-0.124995
1.55366
0.298719
1.78011
0.195821
-0.303427
1.93434
1.88777
-0.0841482
0.619284
0.871314
2.24155
-0.101388
1.85572
-0.191279
-0.281325
-0.0487028
-0.0509256
1.04393
-0.0795539
1.76034
-0.531189
-0.112215
0.441611
-0.0315026
1.86777
1.1529
1.93078
1.00223
0.427398
0.707588
2.05053
-0.0251088
-0.191445
1.22003
0.745368
-0.494621
0.443602
1.87715
0.368252
2.28032
2.97583
-0.0837121
1.93255
-0.0779725
-0.0608727
0.833455
1.76575
-0.0841214
-0.204243
2.02763
-0.0174294
1.88227
2.48445
-0.0647608
0.846316
-0.0829963
1.87785
1.94898
-0.85892
0.490223
1.09819
0.220244
0.815149
1.23713
1.02983
1.12438
1.07489
0.308875
-0.126734
-0.113271
-0.287401
1.22224
1.54593
-0.17763
-0.00263782
0.874628
0.620064
0.0891591
2.00837
-0.0261842
1.39875
-0.0979704
1.62864
2.06052
-0.014896
-0.120938
-0.0591822
1.83543
1.97708
2.0081
1.86226
1.3409
-0.138461
-0.105523
-0.183683
-0.124244
-0.0783792
0.62365
1.22507
1.2499
-0.32915
2.34405
-0.0483835
-0.514004
0.620788
-0.047403
-0.174978
0.839143
1.8735
0.377486
-0.114433
-0.0841686
0.788219
-0.0719753
-0.025899
-0.223767
-0.0123026
-0.0564767
1.1733
-0.102407
0.0770883
-0.402274
-0.135375
-0.142596
-0.0121102
1.87046
2.24458
-0.141322
1.83596
-0.0514637
-0.0581296
-0.0365212
-0.0858819
-0.083104
-0.141876
0.170405
-0.0717298
1.62623
-0.0891582
-0.0703936
0.238676
0.0670827
-0.21663
1.87869
-0.333732
1.63912
0.0100626
-0.543313
-0.108493
-0.3059
-0.140378
-0.00591364
1.7307
2.17936
1.16628
2.03075
1.92741
1.00305
1.16432
-0.177284
1.87557
-0.040696
-0.155093
1.01541
1.87771
0.0565301
-0.0444176
1.73375
0.527372
1.14579
2.58368
0.359035
-0.113607
1.86132
0.98527
0.942306
1.07318
2.2047
1.77393
0.238429
-0.202462
1.59746
0.404641
1.76071
1.03311
1.65223