/*--------------------------------*- C++ -*----------------------------------*\
| =========                 |                                                 |
| \\      /  F ield         | OpenFOAM: The Open Source CFD Toolbox           |
|  \\    /   O peration     | Version:  3.0.1                                 |
|   \\  /    A nd           | Web:      www.OpenFOAM.org                      |
|    \\/     M anipulation  |                                                 |
\*---------------------------------------------------------------------------*/
FoamFile
{
    version     2.0;
    format      ascii;
    class       surfaceScalarField;
    location    "0.512973";
    object      phi;
}
// * * * * * * * * * * * * * * * * * * * * * * * * * * * * * * * * * * * * * //

dimensions      [0 3 -1 0 0 0 0];

internalField   nonuniform List<scalar> 
32369
(
-8.02986e-06
-9.28169e-06
1.73116e-05
-1.2857e-05
-1.07229e-05
1.55501e-05
-1.68934e-05
-1.28019e-05
1.68383e-05
-2.10042e-05
-1.49621e-05
1.90728e-05
-2.50847e-05
-1.70153e-05
2.10958e-05
-2.9159e-05
-1.88921e-05
2.29663e-05
-3.35813e-05
-2.05898e-05
2.50121e-05
-3.8559e-05
-2.20501e-05
2.70278e-05
-4.43497e-05
-2.31694e-05
2.89601e-05
-5.11892e-05
-2.37449e-05
3.05844e-05
-2.34164e-05
3.16183e-05
-5.93912e-05
-6.66532e-06
-2.61637e-06
-1.21667e-05
-5.22151e-06
-1.7131e-05
-7.83759e-06
-2.17231e-05
-1.037e-05
-2.60971e-05
-1.26413e-05
-3.04709e-05
-1.45182e-05
-3.5135e-05
-1.59257e-05
-4.03889e-05
-1.67961e-05
-4.65473e-05
-1.70111e-05
-5.39541e-05
-1.63381e-05
-1.44004e-05
-6.29701e-05
-3.43382e-06
8.17458e-07
-7.51141e-06
-1.14393e-06
-1.20638e-05
-3.28517e-06
-1.68938e-05
-5.54006e-06
-2.19003e-05
-7.63478e-06
-2.70646e-05
-9.35397e-06
-3.25401e-05
-1.04501e-05
-3.85786e-05
-1.07577e-05
-4.54836e-05
-1.01061e-05
-5.35735e-05
-8.24817e-06
-4.76999e-06
-6.32039e-05
-1.7587e-06
2.57615e-06
-4.51742e-06
1.61479e-06
-8.25482e-06
4.52229e-07
-1.26837e-05
-1.11115e-06
-1.76301e-05
-2.68843e-06
-2.30429e-05
-3.94117e-06
-2.8969e-05
-4.52403e-06
-3.55323e-05
-4.19438e-06
-4.29287e-05
-2.70961e-06
-5.14257e-05
2.48842e-07
5.21537e-06
-6.14111e-05
-1.0025e-06
3.57865e-06
-2.75165e-06
3.36395e-06
-5.48045e-06
3.18103e-06
-9.16947e-06
2.57787e-06
-1.36894e-05
1.83147e-06
-1.89575e-05
1.327e-06
-2.48991e-05
1.41752e-06
-3.15688e-05
2.4753e-06
-3.91596e-05
4.8812e-06
-4.7954e-05
9.04327e-06
1.55211e-05
-5.82597e-05
-9.41443e-07
4.52009e-06
-2.38104e-06
4.80355e-06
-4.39295e-06
5.19293e-06
-7.20741e-06
5.39234e-06
-1.09773e-05
5.60138e-06
-1.56968e-05
6.04647e-06
-2.13354e-05
7.05609e-06
-2.78874e-05
9.02736e-06
-3.54158e-05
1.24096e-05
-4.40785e-05
1.7706e-05
2.56266e-05
-5.41841e-05
-8.78903e-07
5.399e-06
-2.19605e-06
6.12069e-06
-3.9612e-06
6.95809e-06
-6.36743e-06
7.79857e-06
-9.56992e-06
8.80386e-06
-1.36763e-05
1.01529e-05
-1.87434e-05
1.21231e-05
-2.48079e-05
1.50919e-05
-3.19302e-05
1.95318e-05
-4.0213e-05
2.59888e-05
3.51917e-05
-4.9778e-05
-8.63218e-07
6.26221e-06
-2.07296e-06
7.33044e-06
-3.67846e-06
8.56358e-06
-5.81282e-06
9.93293e-06
-8.62087e-06
1.16119e-05
-1.2234e-05
1.3766e-05
-1.67593e-05
1.66484e-05
-2.2281e-05
2.06136e-05
-2.88892e-05
2.614e-05
-3.66959e-05
3.37955e-05
4.44196e-05
-4.59237e-05
-8.19803e-07
7.08202e-06
-1.95617e-06
8.46681e-06
-3.43049e-06
1.00379e-05
-5.36135e-06
1.18638e-05
-7.87183e-06
1.41224e-05
-1.10937e-05
1.69879e-05
-1.51505e-05
2.07052e-05
-2.01582e-05
2.56213e-05
-2.62254e-05
3.22072e-05
-3.35183e-05
4.10884e-05
5.31369e-05
-4.22356e-05
-7.03477e-07
7.78549e-06
-1.7252e-06
9.48853e-06
-3.06352e-06
1.13762e-05
-4.81414e-06
1.36144e-05
-7.08104e-06
1.63893e-05
-9.98458e-06
1.98914e-05
-1.36525e-05
2.43732e-05
-1.82089e-05
3.01776e-05
-2.3797e-05
3.77953e-05
-3.05694e-05
4.78608e-05
6.12323e-05
-3.86648e-05
-5.98162e-07
8.38365e-06
-1.50836e-06
1.03987e-05
-2.71159e-06
1.25795e-05
-4.28791e-06
1.51907e-05
-6.33292e-06
1.84343e-05
-8.95542e-06
2.25139e-05
-1.22735e-05
2.76912e-05
-1.64178e-05
3.43219e-05
-2.15321e-05
4.29097e-05
-2.77899e-05
5.41186e-05
6.87778e-05
-3.53354e-05
-5.8184e-07
8.96549e-06
-1.42169e-06
1.12386e-05
-2.50964e-06
1.36674e-05
-3.92612e-06
1.66072e-05
-5.75563e-06
2.02638e-05
-8.103e-06
2.48613e-05
-1.10819e-05
3.06701e-05
-1.48165e-05
3.80565e-05
-1.94538e-05
4.7547e-05
-2.51569e-05
5.98217e-05
7.57391e-05
-3.21182e-05
-5.24031e-07
9.48953e-06
-1.26644e-06
1.1981e-05
-2.23035e-06
1.46313e-05
-3.48296e-06
1.78598e-05
-5.10486e-06
2.18857e-05
-7.18932e-06
2.69458e-05
-9.84645e-06
3.33273e-05
-1.31993e-05
4.14094e-05
-1.737e-05
5.17177e-05
-2.25338e-05
6.49854e-05
8.21261e-05
-2.89208e-05
-3.65506e-07
9.85503e-06
-9.55785e-07
1.25713e-05
-1.76272e-06
1.54383e-05
-2.83653e-06
1.89336e-05
-4.24519e-06
2.32944e-05
-6.06932e-06
2.87699e-05
-8.40293e-06
3.56609e-05
-1.13599e-05
4.43664e-05
-1.50605e-05
5.54183e-05
-1.96413e-05
6.95662e-05
8.77784e-05
-2.52935e-05
-3.16266e-07
1.01713e-05
-7.95472e-07
1.30505e-05
-1.44621e-06
1.6089e-05
-2.32631e-06
1.98137e-05
-3.49001e-06
2.44581e-05
-5.01278e-06
3.02927e-05
-6.98545e-06
3.76335e-05
-9.49362e-06
4.68746e-05
-1.26392e-05
5.85638e-05
-1.65662e-05
7.34933e-05
9.25981e-05
-2.1386e-05
-2.2823e-07
1.03995e-05
-5.65033e-07
1.33873e-05
-1.03825e-06
1.65622e-05
-1.68979e-06
2.04653e-05
-2.58273e-06
2.5351e-05
-3.77689e-06
3.14868e-05
-5.34199e-06
3.91986e-05
-7.35175e-06
4.88843e-05
-9.8846e-06
6.10966e-05
-1.29967e-05
7.66054e-05
9.64197e-05
-1.68183e-05
-4.084e-08
1.04404e-05
-1.59115e-07
1.35055e-05
-3.9942e-07
1.68025e-05
-7.8943e-07
2.08553e-05
-1.36571e-06
2.59273e-05
-2.18938e-06
3.23105e-05
-3.30296e-06
4.03122e-05
-4.74436e-06
5.03257e-05
-6.53698e-06
6.28893e-05
-8.72735e-06
7.87958e-05
9.91033e-05
-1.1411e-05
1.03802e-07
1.03366e-05
2.05295e-07
1.34041e-05
2.29194e-07
1.67786e-05
1.54471e-07
2.093e-05
-5.43001e-08
2.61361e-05
-4.33961e-07
3.26901e-05
-9.95907e-07
4.08742e-05
-1.73573e-06
5.10656e-05
-2.63785e-06
6.37914e-05
-3.70764e-06
7.98656e-05
0.000100331
-4.93553e-06
2.76876e-07
1.00597e-05
6.4242e-07
1.30385e-05
9.7647e-07
1.64446e-05
1.26258e-06
2.06439e-05
1.48175e-06
2.59169e-05
1.63291e-06
3.2539e-05
1.74616e-06
4.07609e-05
1.87964e-06
5.09321e-05
2.11004e-06
6.3561e-05
2.50377e-06
7.94719e-05
9.97952e-05
3.03975e-06
4.90653e-07
9.56904e-06
1.17228e-06
1.23569e-05
1.85428e-06
1.57626e-05
2.55107e-06
1.99471e-05
3.26702e-06
2.5201e-05
4.05153e-06
3.17545e-05
4.99738e-06
3.98151e-05
6.23629e-06
4.96932e-05
7.89086e-06
6.19064e-05
1.00911e-05
7.72717e-05
9.69312e-05
1.29551e-05
7.35075e-07
8.83396e-06
1.74485e-06
1.13471e-05
2.80114e-06
1.47063e-05
3.94794e-06
1.88003e-05
5.23879e-06
2.39101e-05
6.79889e-06
3.01944e-05
8.80105e-06
3.78129e-05
1.14237e-05
4.70705e-05
1.48422e-05
5.8488e-05
1.92506e-05
7.28633e-05
9.12971e-05
2.48846e-05
8.8943e-07
7.94453e-06
2.18498e-06
1.00516e-05
3.61584e-06
1.32754e-05
5.2355e-06
1.71806e-05
7.20508e-06
2.19405e-05
9.74256e-06
2.76569e-05
1.3064e-05
3.44915e-05
1.7369e-05
4.27655e-05
2.28825e-05
5.29745e-05
2.98691e-05
6.58767e-05
8.25199e-05
3.86463e-05
8.33487e-07
7.11104e-06
2.47071e-06
8.41433e-06
4.02074e-06
1.17254e-05
6.10128e-06
1.51001e-05
8.91025e-06
1.91316e-05
1.26603e-05
2.39069e-05
1.75302e-05
2.96216e-05
2.37413e-05
3.65543e-05
3.15605e-05
4.51553e-05
4.13579e-05
5.60792e-05
7.02619e-05
5.36159e-05
-2.80365e-06
9.9147e-06
-1.41771e-06
7.02839e-06
1.36275e-06
8.94493e-06
4.88302e-06
1.15798e-05
9.3058e-06
1.47088e-05
1.48056e-05
1.8407e-05
2.15299e-05
2.28973e-05
2.97686e-05
2.83157e-05
3.99234e-05
3.50006e-05
5.2512e-05
4.34906e-05
5.45689e-05
6.8205e-05
5.53198e-06
1.17796e-05
8.09026e-06
1.29918e-05
6.94244e-06
1.79862e-05
3.36143e-06
2.26538e-05
-1.9018e-06
2.6359e-05
-8.29623e-06
2.93608e-05
-1.53037e-05
3.20195e-05
-2.26915e-05
3.44156e-05
-3.08381e-05
3.71068e-05
-3.98983e-05
3.96446e-05
4.17333e-05
-5.00132e-05
7.40804e-06
4.37153e-06
1.166e-05
8.73983e-06
1.38542e-05
1.57919e-05
1.40414e-05
2.24667e-05
1.16036e-05
2.87968e-05
6.45793e-06
3.45064e-05
-7.69802e-07
3.92472e-05
-9.20676e-06
4.28526e-05
-1.83189e-05
4.62189e-05
-2.84494e-05
4.97751e-05
5.31101e-05
-3.98262e-05
5.48108e-06
-1.10955e-06
9.19041e-06
5.0305e-06
1.29188e-05
1.20636e-05
1.53341e-05
2.00514e-05
1.55576e-05
2.85732e-05
1.30979e-05
3.69661e-05
7.93861e-06
4.44065e-05
5.15887e-07
5.02753e-05
-8.16285e-06
5.48976e-05
-1.77707e-05
5.93829e-05
6.39789e-05
-2.86395e-05
2.91655e-06
-4.02611e-06
7.50708e-06
4.39982e-07
1.16938e-05
7.87679e-06
1.50454e-05
1.66998e-05
1.69126e-05
2.67061e-05
1.66486e-05
3.72302e-05
1.37954e-05
4.72597e-05
8.3352e-06
5.57355e-05
9.04035e-07
6.23288e-05
-7.6201e-06
6.79071e-05
7.34364e-05
-1.70776e-05
1.07977e-06
-5.10588e-06
4.73293e-06
-3.21317e-06
9.66691e-06
2.94281e-06
1.40223e-05
1.23444e-05
1.72245e-05
2.35039e-05
1.86734e-05
3.57812e-05
1.78325e-05
4.81006e-05
1.4417e-05
5.9151e-05
8.72155e-06
6.80243e-05
1.50921e-06
7.51194e-05
8.15021e-05
-6.55652e-06
9.48573e-07
-6.05445e-06
2.90213e-06
-5.16673e-06
7.3836e-06
-1.53866e-06
1.24877e-05
7.2403e-06
1.68384e-05
1.91532e-05
1.97356e-05
3.2884e-05
2.06061e-05
4.72302e-05
1.90565e-05
6.07006e-05
1.51341e-05
7.19466e-05
9.49674e-06
8.07568e-05
8.81004e-05
2.89853e-06
1.01043e-06
-7.06489e-06
2.44287e-06
-6.59916e-06
5.59409e-06
-4.68988e-06
1.07133e-05
2.12113e-06
1.58623e-05
1.40042e-05
1.99444e-05
2.8802e-05
2.2268e-05
4.49065e-05
2.23661e-05
6.06025e-05
2.01333e-05
7.41794e-05
1.60068e-05
8.48833e-05
9.31609e-05
1.09462e-05
1.10007e-06
-8.16496e-06
2.51901e-06
-8.0181e-06
4.65154e-06
-6.82241e-06
8.97299e-06
-2.20032e-06
1.43815e-05
8.5957e-06
1.93162e-05
2.38672e-05
2.28181e-05
4.14046e-05
2.43479e-05
5.90728e-05
2.36986e-05
7.48288e-05
2.11185e-05
8.74633e-05
9.71807e-05
1.70987e-05
1.08708e-06
-9.25204e-06
2.51738e-06
-9.4484e-06
4.40885e-06
-8.71389e-06
7.65737e-06
-5.44884e-06
1.2722e-05
3.53111e-06
1.80889e-05
1.85002e-05
2.2467e-05
3.70266e-05
2.51836e-05
5.63561e-05
2.59989e-05
7.40135e-05
2.5129e-05
8.83332e-05
9.9051e-05
2.32587e-05
1.04596e-06
-1.0298e-05
2.40769e-06
-1.08101e-05
4.17063e-06
-1.04768e-05
6.71102e-06
-7.98923e-06
1.11049e-05
-8.62733e-07
1.64112e-05
1.31939e-05
2.13081e-05
3.21296e-05
2.49427e-05
5.27215e-05
2.70385e-05
7.19177e-05
2.77097e-05
8.7662e-05
9.93401e-05
2.74206e-05
7.79135e-07
-1.10771e-05
2.02382e-06
-1.20548e-05
3.62222e-06
-1.20752e-05
5.80216e-06
-1.01692e-05
9.40218e-06
-4.46276e-06
1.43484e-05
8.2477e-06
1.94352e-05
2.70428e-05
2.3723e-05
4.84336e-05
2.69133e-05
6.87274e-05
2.91267e-05
8.54486e-05
9.78169e-05
3.06499e-05
6.74497e-07
-1.17516e-05
1.69738e-06
-1.30777e-05
2.94787e-06
-1.33257e-05
4.78289e-06
-1.20042e-05
7.58829e-06
-7.26816e-06
1.18459e-05
3.99011e-06
1.67436e-05
2.21451e-05
2.14148e-05
4.37625e-05
2.55669e-05
6.45753e-05
2.93228e-05
8.16928e-05
9.40309e-05
3.31088e-05
4.2697e-07
-1.21786e-05
1.04704e-06
-1.36978e-05
1.94421e-06
-1.42229e-05
3.26064e-06
-1.33206e-05
5.432e-06
-9.43952e-06
8.95709e-06
4.65024e-07
1.34041e-05
1.76981e-05
1.81974e-05
3.89692e-05
2.31914e-05
5.95812e-05
2.83615e-05
7.65226e-05
8.8477e-05
3.39154e-05
9.11144e-08
-1.22697e-05
3.00829e-07
-1.39075e-05
6.75456e-07
-1.45975e-05
1.36677e-06
-1.40119e-05
2.74254e-06
-1.08153e-05
5.53416e-06
-2.3266e-06
9.53119e-06
1.3701e-05
1.43446e-05
3.41558e-05
2.00842e-05
5.38417e-05
2.67274e-05
6.98794e-05
8.09694e-05
3.42351e-05
-1.96785e-07
-1.20729e-05
-4.48122e-07
-1.36561e-05
-6.71711e-07
-1.43739e-05
-7.76759e-07
-1.39069e-05
-4.28525e-07
-1.11635e-05
1.36035e-06
-4.11547e-06
5.13941e-06
9.92197e-06
1.00957e-05
2.91996e-05
1.64834e-05
4.74539e-05
2.45363e-05
6.18264e-05
7.1397e-05
3.41087e-05
-5.31313e-07
-1.15416e-05
-1.2799e-06
-1.29076e-05
-2.12725e-06
-1.35266e-05
-3.00668e-06
-1.30275e-05
-3.64592e-06
-1.05243e-05
-3.06976e-06
-4.69163e-06
1.68858e-07
6.68335e-06
5.46008e-06
2.39084e-05
1.26825e-05
4.02315e-05
2.22578e-05
5.22511e-05
5.932e-05
3.43348e-05
-9.23765e-07
-1.06178e-05
-2.21039e-06
-1.16209e-05
-3.70135e-06
-1.20356e-05
-5.31375e-06
-1.14151e-05
-6.71333e-06
-9.1247e-06
-7.12719e-06
-4.27777e-06
-4.8942e-06
4.45036e-06
8.7791e-07
1.81363e-05
8.89326e-06
3.22162e-05
1.95043e-05
4.16401e-05
4.63643e-05
3.246e-05
-1.34461e-06
-9.27324e-06
-3.17539e-06
-9.79015e-06
-5.34147e-06
-9.86954e-06
-7.70967e-06
-9.04686e-06
-9.86114e-06
-6.97323e-06
-1.09513e-05
-3.18758e-06
-9.48456e-06
2.98359e-06
-3.76823e-06
1.24199e-05
5.24199e-06
2.3206e-05
1.68268e-05
3.00552e-05
3.19702e-05
3.12209e-05
-1.78705e-06
-7.48618e-06
-4.20389e-06
-7.37331e-06
-7.11571e-06
-6.95771e-06
-1.02835e-05
-5.87909e-06
-1.31509e-05
-4.10584e-06
-1.47774e-05
-1.56107e-06
-1.37444e-05
1.95056e-06
-8.36827e-06
7.04383e-06
1.3522e-06
1.34855e-05
1.36576e-05
1.77498e-05
1.75451e-05
2.80827e-05
-2.37192e-06
-5.11426e-06
-5.49015e-06
-4.25507e-06
-9.26257e-06
-3.1853e-06
-1.3242e-05
-1.89971e-06
-1.67196e-05
-6.28201e-07
-1.86985e-05
4.17782e-07
-1.79086e-05
1.16075e-06
-1.29289e-05
2.06408e-06
-3.06645e-06
3.62305e-06
9.8337e-06
4.84968e-06
2.66164e-06
2.47171e-05
-3.64885e-06
-1.46542e-06
-7.6975e-06
-2.06424e-07
-1.17749e-05
8.92147e-07
-1.54306e-05
1.75591e-06
-1.8021e-05
1.96223e-06
-1.8595e-05
9.91795e-07
-1.60195e-05
-1.41477e-06
-9.65873e-06
-4.29667e-06
8.74521e-07
-6.9102e-06
1.48229e-05
-9.09873e-06
-1.29301e-05
3.04147e-05
-4.11014e-06
2.64472e-06
-6.04993e-06
1.73336e-06
-7.15693e-06
1.99915e-06
-6.52491e-06
1.12389e-06
-3.28757e-06
-1.27511e-06
3.13639e-06
-5.43217e-06
1.14681e-05
-9.74644e-06
2.06785e-05
-1.35071e-05
3.14505e-05
-1.76822e-05
4.49292e-05
-2.25775e-05
-2.92071e-05
6.12062e-05
8.86252e-07
1.75847e-06
3.33067e-06
-7.11062e-07
7.88627e-06
-2.55645e-06
1.44326e-05
-5.42246e-06
2.20598e-05
-8.90233e-06
2.94619e-05
-1.28343e-05
3.68865e-05
-1.71711e-05
4.5276e-05
-2.18965e-05
5.50382e-05
-2.74444e-05
6.68225e-05
-3.43618e-05
-4.33024e-05
8.09178e-05
1.16732e-05
1.79905e-05
2.4379e-05
3.05363e-05
3.63428e-05
4.19156e-05
4.76418e-05
5.40609e-05
6.16171e-05
7.0746e-05
8.20125e-05
-8.48566e-06
1.93274e-05
-1.08417e-05
-1.52256e-05
1.75634e-05
-1.08234e-05
-2.36901e-05
2.02351e-05
-1.17706e-05
-3.20082e-05
2.13053e-05
-1.29872e-05
-4.04498e-05
2.33582e-05
-1.49166e-05
-4.92381e-05
2.63145e-05
-1.75263e-05
-5.88543e-05
3.05115e-05
-2.08952e-05
-6.97197e-05
3.60967e-05
-2.52313e-05
-8.23061e-05
4.34335e-05
-3.08471e-05
-9.71474e-05
5.30152e-05
-3.81739e-05
6.55629e-05
-4.77444e-05
-0.000114966
6.61828e-07
1.86656e-05
-2.80611e-07
1.85058e-05
-5.6393e-06
2.55938e-05
-1.23475e-05
2.80135e-05
-2.06794e-05
3.16901e-05
-2.99744e-05
3.56095e-05
-4.03249e-05
4.0862e-05
-5.20975e-05
4.78693e-05
-6.5732e-05
5.7068e-05
-8.17558e-05
6.9039e-05
8.45831e-05
-0.000100776
1.61672e-06
1.70489e-05
1.23948e-06
1.88831e-05
-1.08776e-06
2.7921e-05
-4.80118e-06
3.17269e-05
-1.09447e-05
3.78336e-05
-1.86868e-05
4.33515e-05
-2.80153e-05
5.01906e-05
-3.88534e-05
5.87073e-05
-5.15837e-05
6.97983e-05
-6.66355e-05
8.40907e-05
0.000102642
-8.46942e-05
1.19098e-06
1.58579e-05
4.90383e-07
1.95836e-05
-4.70976e-07
2.88824e-05
-2.57856e-06
3.38345e-05
-6.60903e-06
4.18641e-05
-1.21213e-05
4.88638e-05
-1.94308e-05
5.75e-05
-2.84512e-05
6.77278e-05
-3.91867e-05
8.05338e-05
-5.20791e-05
9.69832e-05
0.000118008
-6.74454e-05
9.68053e-07
1.48898e-05
2.15471e-07
2.03362e-05
-3.00448e-07
2.93983e-05
-1.79209e-06
3.53261e-05
-4.32338e-06
4.43954e-05
-7.99778e-06
5.25382e-05
-1.32657e-05
6.27679e-05
-2.00878e-05
7.45499e-05
-2.86675e-05
8.91135e-05
-3.90053e-05
0.000107321
0.000130547
-5.15445e-05
1.01495e-06
1.38749e-05
6.44109e-07
2.07071e-05
4.87491e-07
2.95549e-05
-6.48922e-07
3.64626e-05
-2.25357e-06
4.60001e-05
-4.72227e-06
5.50069e-05
-8.37805e-06
6.64237e-05
-1.32751e-05
7.94469e-05
-1.96336e-05
9.54721e-05
-2.76214e-05
0.000115309
0.000140305
-3.73796e-05
1.07474e-06
1.28001e-05
1.14778e-06
2.0634e-05
1.35435e-06
2.93484e-05
6.3592e-07
3.7181e-05
-2.99925e-07
4.69359e-05
-1.94192e-06
5.66489e-05
-4.36522e-06
6.8847e-05
-7.72242e-06
8.28041e-05
-1.22403e-05
9.99899e-05
-1.80713e-05
0.00012114
0.000147654
-2.54197e-05
1.01784e-06
1.17823e-05
1.42348e-06
2.02284e-05
1.91247e-06
2.88594e-05
1.61799e-06
3.74755e-05
1.24935e-06
4.73045e-05
2.81613e-07
5.76166e-05
-1.13151e-06
7.02601e-05
-3.23072e-06
8.49034e-05
-6.15443e-06
0.000102914
-1.00344e-05
0.00012502
0.000152644
-1.50249e-05
1.00895e-06
1.07733e-05
1.73405e-06
1.95033e-05
2.48604e-06
2.81074e-05
2.62791e-06
3.73336e-05
2.72961e-06
4.72028e-05
2.35429e-06
5.7992e-05
1.75483e-06
7.08596e-05
6.84935e-07
8.59733e-05
-8.90465e-07
0.000104489
-3.1182e-06
0.000127248
0.000155632
-6.1056e-06
1.19396e-06
9.57939e-06
2.32143e-06
1.83758e-05
3.39785e-06
2.7031e-05
4.00243e-06
3.6729e-05
4.5261e-06
4.66792e-05
4.67394e-06
5.78441e-05
4.7297e-06
7.08038e-05
4.49115e-06
8.62118e-05
3.9883e-06
0.000104992
3.1103e-06
0.000128126
0.000157028
1.71414e-06
1.32287e-06
8.25651e-06
2.75343e-06
1.69453e-05
4.15886e-06
2.56255e-05
5.2395e-06
3.56484e-05
6.17529e-06
4.57434e-05
6.85372e-06
5.71657e-05
7.49708e-06
7.01604e-05
8.02005e-06
8.56888e-05
8.47827e-06
0.000104534
8.8352e-06
0.000127769
0.000156767
9.09608e-06
1.25688e-06
6.99963e-06
2.8593e-06
1.53428e-05
4.51581e-06
2.3969e-05
6.01382e-06
3.41504e-05
7.38339e-06
4.43738e-05
8.60193e-06
5.59471e-05
9.84527e-06
6.89171e-05
1.11275e-05
8.44066e-05
1.25364e-05
0.000103125
1.40849e-05
0.00012622
0.000155052
1.58003e-05
1.24815e-06
5.75148e-06
3.0055e-06
1.35855e-05
4.92023e-06
2.20543e-05
6.83775e-06
3.22329e-05
8.64968e-06
4.25619e-05
1.04075e-05
5.41894e-05
1.22399e-05
6.70847e-05
1.42399e-05
8.24066e-05
1.65296e-05
0.000100835
1.91951e-05
0.000123555
0.00015197
2.22768e-05
1.32014e-06
4.43134e-06
3.22966e-06
1.1676e-05
5.43057e-06
1.98534e-05
7.77914e-06
2.98843e-05
1.00766e-05
4.02644e-05
1.23905e-05
5.18754e-05
1.48178e-05
6.46574e-05
1.75189e-05
7.97055e-05
2.06465e-05
9.77075e-05
2.43588e-05
0.000119842
0.000147478
2.88504e-05
1.20199e-06
3.22934e-06
3.09441e-06
9.78357e-06
5.46859e-06
1.74792e-05
8.18384e-06
2.71691e-05
1.09803e-05
3.74679e-05
1.3908e-05
4.89477e-05
1.7027e-05
6.15384e-05
2.05279e-05
7.62046e-05
2.45995e-05
9.36359e-05
2.94535e-05
0.000114988
0.000141654
3.52781e-05
1.05047e-06
2.17888e-06
2.87298e-06
7.96106e-06
5.38542e-06
1.49668e-05
8.4447e-06
2.41098e-05
1.1753e-05
3.41597e-05
1.53338e-05
4.53669e-05
1.92131e-05
5.76591e-05
2.35905e-05
7.18271e-05
2.86812e-05
8.85453e-05
3.47442e-05
0.000108925
0.000134307
4.20912e-05
9.15284e-07
1.26359e-06
2.64962e-06
6.22672e-06
5.26671e-06
1.23497e-05
8.64288e-06
2.07336e-05
1.24852e-05
3.03173e-05
1.67568e-05
4.10953e-05
2.14742e-05
5.29418e-05
2.68236e-05
6.64776e-05
3.30202e-05
8.23487e-05
4.03474e-05
0.000101598
0.000125508
4.91461e-05
7.06743e-07
5.56849e-07
2.24554e-06
4.68792e-06
4.83045e-06
9.76476e-06
8.42696e-06
1.71371e-05
1.27548e-05
2.59895e-05
1.77517e-05
3.60983e-05
2.34101e-05
4.72834e-05
2.98882e-05
5.99995e-05
3.73916e-05
7.48454e-05
4.62204e-05
9.27692e-05
0.000115016
5.67128e-05
5.01095e-07
5.57536e-08
1.81258e-06
3.37644e-06
4.2481e-06
7.32925e-06
7.9215e-06
1.34637e-05
1.26434e-05
2.12676e-05
1.83555e-05
3.03862e-05
2.50368e-05
4.06021e-05
3.27969e-05
5.22394e-05
4.18035e-05
6.58388e-05
5.23423e-05
8.22304e-05
0.000102482
6.48759e-05
3.29503e-07
-2.73749e-07
1.40606e-06
2.29988e-06
3.55395e-06
5.18136e-06
7.09735e-06
9.92028e-06
1.20592e-05
1.63057e-05
1.84223e-05
2.40231e-05
2.61505e-05
3.2874e-05
3.52788e-05
4.3111e-05
4.59367e-05
5.5181e-05
5.83939e-05
6.97732e-05
8.77454e-05
7.31308e-05
2.47156e-07
-5.20905e-07
9.98529e-07
1.5485e-06
2.68154e-06
3.49835e-06
5.84122e-06
6.7606e-06
1.08076e-05
1.13392e-05
1.7665e-05
1.71658e-05
2.63236e-05
2.42153e-05
3.67557e-05
3.26789e-05
4.90652e-05
4.28715e-05
6.34991e-05
5.53393e-05
7.0705e-05
8.05395e-05
-1.93756e-07
-3.2715e-07
1.59006e-07
1.19574e-06
1.36757e-06
2.28979e-06
4.08123e-06
4.04695e-06
8.84125e-06
6.57922e-06
1.58283e-05
1.01787e-05
2.49795e-05
1.50641e-05
3.6299e-05
2.13595e-05
4.99436e-05
2.92269e-05
6.61854e-05
3.90974e-05
5.09554e-05
8.59351e-05
-4.10084e-07
8.29337e-08
-3.00467e-07
1.08613e-06
7.28246e-07
1.26107e-06
3.09475e-06
1.68044e-06
7.18747e-06
2.4865e-06
1.33438e-05
4.02244e-06
2.1774e-05
6.63382e-06
3.2716e-05
1.04176e-05
4.64427e-05
1.55001e-05
6.32852e-05
2.22549e-05
3.10852e-05
8.31554e-05
4.19986e-07
-3.37052e-07
2.5206e-06
-1.01449e-06
4.79157e-06
-1.00989e-06
7.17442e-06
-7.02407e-07
1.00572e-05
-3.96258e-07
1.408e-05
-3.48779e-10
2.00585e-05
6.55271e-07
2.86535e-05
1.82259e-06
4.0354e-05
3.79966e-06
5.56229e-05
6.98599e-06
1.2157e-05
7.45511e-05
-1.44716e-05
3.62989e-06
-2.63257e-05
1.03069e-06
-3.62491e-05
-1.84727e-06
-4.45748e-05
-4.6615e-06
-5.2438e-05
-7.05338e-06
-6.06499e-05
-9.31441e-06
-6.97918e-05
-1.17533e-05
-8.02611e-05
-1.4762e-05
-9.24622e-05
-1.86459e-05
-0.000106852
-2.37845e-05
-3.07138e-05
-0.000123882
-6.25425e-06
9.88414e-06
-1.29797e-05
7.7561e-06
-2.18179e-05
6.99093e-06
-3.12371e-05
4.75772e-06
-4.08996e-05
2.60917e-06
-5.07823e-05
5.68306e-07
-6.13072e-05
-1.22848e-06
-7.31354e-05
-2.93374e-06
-8.68376e-05
-4.94373e-06
-0.000102956
-7.6661e-06
-1.15239e-05
-0.000122146
-2.60719e-06
1.24913e-05
-6.1925e-06
1.13414e-05
-1.23553e-05
1.31538e-05
-2.01463e-05
1.25486e-05
-2.93504e-05
1.18133e-05
-3.96787e-05
1.08967e-05
-5.10484e-05
1.01412e-05
-6.37246e-05
9.7424e-06
-7.80831e-05
9.4148e-06
-9.4697e-05
8.94776e-06
7.91353e-06
-0.000114134
-1.66336e-06
1.41547e-05
-4.61518e-06
1.42932e-05
-9.08682e-06
1.76254e-05
-1.49555e-05
1.84173e-05
-2.26246e-05
1.94824e-05
-3.17168e-05
1.99888e-05
-4.22683e-05
2.06927e-05
-5.42373e-05
2.17114e-05
-6.79222e-05
2.30997e-05
-8.37044e-05
2.47299e-05
2.63178e-05
-0.000102109
-1.46558e-06
1.56203e-05
-4.18467e-06
1.70123e-05
-7.61293e-06
2.10537e-05
-1.21688e-05
2.29732e-05
-1.828e-05
2.55936e-05
-2.59543e-05
2.76631e-05
-3.51899e-05
2.99284e-05
-4.5961e-05
3.24825e-05
-5.84008e-05
3.55395e-05
-7.27239e-05
3.9053e-05
4.2839e-05
-8.9245e-05
-1.27877e-06
1.6899e-05
-3.75401e-06
1.94876e-05
-6.596e-06
2.38956e-05
-1.02927e-05
2.66699e-05
-1.52724e-05
3.05732e-05
-2.15024e-05
3.38931e-05
-2.92743e-05
3.77003e-05
-3.85741e-05
4.17823e-05
-4.94718e-05
4.64373e-05
-6.21158e-05
5.1697e-05
5.74232e-05
-7.67e-05
-1.06178e-06
1.79608e-05
-3.22427e-06
2.16501e-05
-5.62394e-06
2.62953e-05
-8.67017e-06
2.97161e-05
-1.2689e-05
3.4592e-05
-1.78215e-05
3.90256e-05
-2.42373e-05
4.41161e-05
-3.20433e-05
4.95883e-05
-4.13344e-05
5.57283e-05
-5.22362e-05
6.25988e-05
7.0154e-05
-6.4967e-05
-9.89072e-07
1.89499e-05
-2.83969e-06
2.35007e-05
-4.83629e-06
2.82919e-05
-7.51123e-06
3.23911e-05
-1.06995e-05
3.77802e-05
-1.48022e-05
4.31283e-05
-1.99657e-05
4.92796e-05
-2.63209e-05
5.59435e-05
-3.39897e-05
6.33972e-05
-4.30655e-05
7.16746e-05
8.07811e-05
-5.36927e-05
-8.31013e-07
1.97809e-05
-2.44297e-06
2.51126e-05
-3.90755e-06
2.97565e-05
-6.12233e-06
3.46059e-05
-8.69029e-06
4.03482e-05
-1.19766e-05
4.64146e-05
-1.60454e-05
5.33484e-05
-2.1068e-05
6.09661e-05
-2.71619e-05
6.94912e-05
-3.44552e-05
7.89679e-05
8.94249e-05
-4.3099e-05
-6.28069e-07
2.0409e-05
-1.87421e-06
2.63588e-05
-3.10565e-06
3.09879e-05
-4.77242e-06
3.62726e-05
-6.70267e-06
4.22785e-05
-9.19741e-06
4.89094e-05
-1.22696e-05
5.64206e-05
-1.60564e-05
6.47529e-05
-2.066e-05
7.40948e-05
-2.61731e-05
8.4481e-05
9.59109e-05
-3.26592e-05
-3.58715e-07
2.07677e-05
-1.15099e-06
2.7151e-05
-1.97169e-06
3.18086e-05
-3.1771e-06
3.7478e-05
-4.51876e-06
4.36201e-05
-6.27943e-06
5.06701e-05
-8.42172e-06
5.85629e-05
-1.10742e-05
6.74054e-05
-1.42814e-05
7.7302e-05
-1.81067e-05
8.83063e-05
0.000100454
-2.26499e-05
-1.48283e-07
2.0916e-05
-6.40132e-07
2.76429e-05
-1.06644e-06
3.2235e-05
-1.77067e-06
3.81823e-05
-2.51328e-06
4.43627e-05
-3.5283e-06
5.16851e-05
-4.74848e-06
5.97831e-05
-6.26268e-06
6.89196e-05
-8.08581e-06
7.91251e-05
-1.02297e-05
9.04501e-05
0.00010288
-1.26553e-05
1.02991e-07
2.0813e-05
-3.02035e-08
2.77761e-05
-7.71603e-08
3.22819e-05
-2.76337e-07
3.83814e-05
-4.23938e-07
4.45103e-05
-7.02619e-07
5.19638e-05
-1.00929e-06
6.00897e-05
-1.42119e-06
6.93315e-05
-1.88737e-06
7.95913e-05
-2.3987e-06
9.09615e-05
0.000103312
-2.83096e-06
4.62101e-07
2.03509e-05
7.6287e-07
2.74753e-05
1.1258e-06
3.1919e-05
1.44327e-06
3.8064e-05
1.88783e-06
4.40658e-05
2.34061e-06
5.1511e-05
2.91885e-06
5.95115e-05
3.59133e-06
6.8659e-05
4.43209e-06
7.87506e-05
5.49916e-06
8.98944e-05
0.000101947
6.86382e-06
6.83421e-07
1.96675e-05
1.3583e-06
2.68004e-05
2.15224e-06
3.1125e-05
3.02749e-06
3.71887e-05
4.0871e-06
4.30062e-05
5.32958e-06
5.02685e-05
6.83152e-06
5.80096e-05
8.63532e-06
6.68552e-05
1.08272e-05
7.65587e-05
1.34973e-05
8.72244e-05
9.86703e-05
1.67743e-05
9.40108e-07
1.87274e-05
2.03304e-06
2.57075e-05
3.26898e-06
2.98891e-05
4.71877e-06
3.57389e-05
6.42492e-06
4.13e-05
8.48289e-06
4.82105e-05
1.09433e-05
5.55491e-05
1.39018e-05
6.38967e-05
1.74653e-05
7.29952e-05
2.17617e-05
8.29279e-05
9.34826e-05
2.69495e-05
1.25601e-06
1.74713e-05
2.7958e-06
2.41677e-05
4.51817e-06
2.81667e-05
6.58162e-06
3.36755e-05
8.97246e-06
3.89092e-05
1.18748e-05
4.53082e-05
1.53306e-05
5.20934e-05
1.9486e-05
5.97413e-05
2.44517e-05
6.80295e-05
3.03875e-05
7.69921e-05
8.63602e-05
3.75099e-05
1.55692e-06
1.59144e-05
3.56063e-06
2.2164e-05
5.80754e-06
2.59198e-05
8.52357e-06
3.09594e-05
1.16553e-05
3.57774e-05
1.54653e-05
4.14981e-05
1.99774e-05
4.75813e-05
2.53807e-05
5.43381e-05
3.18097e-05
6.16005e-05
3.94672e-05
6.93346e-05
7.72481e-05
4.85793e-05
1.86247e-06
1.4052e-05
4.33128e-06
1.96952e-05
7.14776e-06
2.31033e-05
1.05548e-05
2.75523e-05
1.45082e-05
3.18241e-05
1.92741e-05
3.67322e-05
2.49139e-05
4.19415e-05
3.16269e-05
4.76251e-05
3.9573e-05
5.36544e-05
4.89785e-05
5.99291e-05
6.61721e-05
6.00545e-05
2.19016e-06
1.18618e-05
5.14282e-06
1.67425e-05
8.55305e-06
1.96931e-05
1.27013e-05
2.34041e-05
1.75323e-05
2.69931e-05
2.33076e-05
3.09569e-05
3.01191e-05
3.51299e-05
3.8169e-05
3.95752e-05
4.76555e-05
4.41679e-05
5.88243e-05
4.87603e-05
5.29777e-05
7.20187e-05
2.52875e-06
9.33304e-06
5.93519e-06
1.33361e-05
9.96627e-06
1.5662e-05
1.48772e-05
1.84932e-05
2.06199e-05
2.12504e-05
2.74218e-05
2.4155e-05
3.53978e-05
2.71539e-05
4.47639e-05
3.02091e-05
5.57457e-05
3.31861e-05
6.86326e-05
3.58733e-05
3.78764e-05
8.37339e-05
2.79506e-06
6.53798e-06
6.64673e-06
9.48445e-06
1.12726e-05
1.10361e-05
1.68984e-05
1.28674e-05
2.34999e-05
1.46489e-05
3.12403e-05
1.64146e-05
4.02763e-05
1.81179e-05
5.08236e-05
1.96619e-05
6.3146e-05
2.08637e-05
7.75445e-05
2.14749e-05
2.10559e-05
9.4365e-05
3.38869e-06
3.14929e-06
7.59284e-06
5.28029e-06
1.26081e-05
6.02091e-06
1.86812e-05
6.79425e-06
2.58357e-05
7.49443e-06
3.4193e-05
8.05736e-06
4.39469e-05
8.36393e-06
5.53473e-05
8.26151e-06
6.86567e-05
7.55427e-06
8.4108e-05
6.0236e-06
3.38029e-06
0.000101784
2.81224e-06
7.07804e-06
1.20891e-05
1.81809e-05
2.52791e-05
3.33361e-05
4.23553e-05
5.24394e-05
6.37933e-05
7.68029e-05
9.23401e-05
-4.56273e-07
1.30155e-05
-1.25592e-05
-1.35124e-06
1.2687e-05
-1.1792e-05
-4.0268e-06
1.58732e-05
-1.31977e-05
-7.85009e-06
1.88827e-05
-1.50594e-05
-1.22995e-05
2.18362e-05
-1.73868e-05
-1.71652e-05
2.51342e-05
-2.02686e-05
-2.25302e-05
2.92131e-05
-2.38481e-05
-2.86072e-05
3.44052e-05
-2.83281e-05
-3.56686e-05
4.10411e-05
-3.39798e-05
-4.40489e-05
4.95489e-05
-4.11686e-05
6.0558e-05
-5.03395e-05
-5.42673e-05
4.00169e-06
9.01382e-06
5.63684e-06
1.10519e-05
5.52349e-06
1.59866e-05
3.99807e-06
2.04081e-05
1.00623e-06
2.4828e-05
-3.28871e-06
2.94292e-05
-8.60341e-06
3.45278e-05
-1.48281e-05
4.06299e-05
-2.21785e-05
4.83915e-05
-3.09776e-05
5.8348e-05
7.12467e-05
-4.16662e-05
3.01479e-06
5.99903e-06
4.66758e-06
9.39907e-06
6.1075e-06
1.45467e-05
6.61703e-06
1.98986e-05
5.74509e-06
2.57e-05
3.35554e-06
3.18187e-05
-4.34948e-07
3.83183e-05
-5.41554e-06
4.56105e-05
-1.15488e-05
5.45247e-05
-1.90507e-05
6.585e-05
8.06294e-05
-2.84335e-05
2.31784e-06
3.68119e-06
3.96062e-06
7.7563e-06
5.55362e-06
1.29537e-05
6.85505e-06
1.85972e-05
7.36595e-06
2.51891e-05
6.73018e-06
3.24545e-05
4.79932e-06
4.02492e-05
1.60789e-06
4.88019e-05
-2.72853e-06
5.88612e-05
-8.23921e-06
7.13607e-05
8.75069e-05
-1.51167e-05
1.65744e-06
2.02375e-06
3.38187e-06
6.03187e-06
5.30853e-06
1.1027e-05
6.93756e-06
1.69681e-05
8.17832e-06
2.39483e-05
8.73306e-06
3.18998e-05
8.33588e-06
4.06464e-05
6.87249e-06
5.02653e-05
4.41035e-06
6.13233e-05
1.00315e-06
7.47679e-05
9.19243e-05
-3.41428e-06
1.36258e-06
6.61167e-07
3.19044e-06
4.20401e-06
5.1805e-06
9.03693e-06
7.14148e-06
1.50072e-05
8.8929e-06
2.21969e-05
1.02404e-05
3.05522e-05
1.09623e-05
3.99245e-05
1.08957e-05
5.03319e-05
1.00535e-05
6.21655e-05
8.52905e-06
7.62923e-05
9.40622e-05
6.39122e-06
1.02102e-06
-3.59857e-07
2.79501e-06
2.43003e-06
4.85706e-06
6.97487e-06
7.05147e-06
1.28128e-05
9.21493e-06
2.00334e-05
1.11819e-05
2.85852e-05
1.27513e-05
3.83551e-05
1.38008e-05
4.92824e-05
1.43107e-05
6.16556e-05
1.44039e-05
7.6199e-05
9.42082e-05
1.42578e-05
5.45736e-07
-9.05593e-07
1.98902e-06
9.86748e-07
4.05843e-06
4.90546e-06
6.44388e-06
1.04273e-05
8.93009e-06
1.75472e-05
1.13706e-05
2.61448e-05
1.36323e-05
3.60934e-05
1.55932e-05
4.73215e-05
1.72417e-05
6.00071e-05
1.87257e-05
7.4715e-05
9.26355e-05
2.02985e-05
2.18424e-07
-1.12402e-06
1.23677e-06
-3.16003e-08
3.12442e-06
3.01781e-06
5.53065e-06
8.02107e-06
8.20145e-06
1.48764e-05
1.09832e-05
2.3363e-05
1.37581e-05
3.33185e-05
1.64361e-05
4.46435e-05
1.9025e-05
5.74182e-05
2.16555e-05
7.20845e-05
8.96525e-05
2.46385e-05
1.55604e-07
-1.27962e-06
7.91983e-07
-6.67978e-07
2.28438e-06
1.52542e-06
4.51632e-06
5.78913e-06
7.2126e-06
1.21801e-05
1.01856e-05
2.039e-05
1.33112e-05
3.01928e-05
1.65228e-05
4.14319e-05
1.98286e-05
5.41124e-05
2.33762e-05
6.85369e-05
8.55502e-05
2.74785e-05
9.1704e-08
-1.37133e-06
4.38936e-07
-1.01521e-06
1.48249e-06
4.81865e-07
3.36222e-06
3.9094e-06
5.89312e-06
9.64924e-06
8.87597e-06
1.74072e-05
1.21859e-05
2.68829e-05
1.57672e-05
3.78506e-05
1.964e-05
5.02396e-05
2.39376e-05
6.42393e-05
8.04844e-05
2.90035e-05
1.4621e-08
-1.38595e-06
1.30224e-07
-1.13081e-06
7.25292e-07
-1.13202e-07
2.11969e-06
2.515e-06
4.29779e-06
7.47114e-06
7.09809e-06
1.46069e-05
1.04189e-05
2.35621e-05
1.42152e-05
3.40543e-05
1.85162e-05
4.59386e-05
2.34434e-05
5.93121e-05
7.46897e-05
2.92381e-05
-6.13811e-08
-1.32457e-06
-1.16775e-07