/*--------------------------------*- C++ -*----------------------------------*\
| =========                 |                                                 |
| \\      /  F ield         | OpenFOAM: The Open Source CFD Toolbox           |
|  \\    /   O peration     | Version:  3.0.1                                 |
|   \\  /    A nd           | Web:      www.OpenFOAM.org                      |
|    \\/     M anipulation  |                                                 |
\*---------------------------------------------------------------------------*/
FoamFile
{
    version     2.0;
    format      ascii;
    class       volScalarField;
    location    "0.610145";
    object      nut;
}
// * * * * * * * * * * * * * * * * * * * * * * * * * * * * * * * * * * * * * //

dimensions      [0 2 -1 0 0 0 0];

internalField   nonuniform List<scalar> 
21246
(
4.26027e-05
0.000178699
0.000186095
0.000212087
0.000262332
0.000306075
0.000324183
0.000311286
0.000284834
0.000265501
0.000257144
2.86673e-05
0.000125757
0.00017979
0.000237066
0.000287057
0.000322967
0.000339445
0.000330368
0.000302626
0.000278539
0.000266822
2.71567e-05
0.000108299
0.000165351
0.000239079
0.000295071
0.000332525
0.000350418
0.000344982
0.000318648
0.000290984
0.000274855
2.84942e-05
9.49169e-05
0.000150148
0.00023023
0.000289802
0.00033331
0.000355251
0.000354265
0.000330962
0.000302578
0.000283867
3.05881e-05
8.42243e-05
0.00013801
0.000216926
0.000276754
0.000326894
0.000354075
0.000358804
0.00033991
0.000312494
0.000291633
3.26405e-05
7.58252e-05
0.000128096
0.000202393
0.000261449
0.000315035
0.000346703
0.000357187
0.000343374
0.000318481
0.000297351
3.46367e-05
6.94383e-05
0.000119495
0.000188109
0.000246097
0.000300295
0.00033496
0.000350357
0.000341831
0.000320742
0.000300707
3.65802e-05
6.45765e-05
0.000111969
0.000175196
0.000231535
0.00028458
0.000320794
0.000339855
0.000336332
0.000319963
0.000303208
3.83144e-05
6.0716e-05
0.000105291
0.00016389
0.000218146
0.000269192
0.000305829
0.000327319
0.000328222
0.000316954
0.00030412
3.98001e-05
5.74978e-05
9.92018e-05
0.000153962
0.000205972
0.000254781
0.00029105
0.000313902
0.000318389
0.000311942
0.000302927
4.11556e-05
5.4842e-05
9.36217e-05
0.000145102
0.000194854
0.000241406
0.000276781
0.000300137
0.000307338
0.000305203
0.000300316
4.2244e-05
5.27071e-05
8.85582e-05
0.000137135
0.000184656
0.000228969
0.000263071
0.000286259
0.000295364
0.000296939
0.000296054
4.29656e-05
5.0927e-05
8.38652e-05
0.000129905
0.000175298
0.000217472
0.00024999
0.000272422
0.000282639
0.000287249
0.000290184
4.32918e-05
4.82743e-05
7.75985e-05
0.000121524
0.000165476
0.000206446
0.00023744
0.00025864
0.000269175
0.000276058
0.00028267
4.31333e-05
4.59878e-05
7.07494e-05
0.000111265
0.000152383
0.0001911
0.0002206
0.000241559
0.000253114
0.00026227
0.000272482
4.24604e-05
4.37544e-05
6.33149e-05
9.89986e-05
0.000135979
0.000171334
0.000198641
0.000219573
0.000232918
0.000244615
0.000258133
4.13494e-05
4.12461e-05
5.51925e-05
8.43583e-05
0.000115957
0.000146784
0.000171345
0.000191991
0.000207642
0.00022216
0.000238596
3.959e-05
3.8833e-05
4.78016e-05
6.95951e-05
9.45863e-05
0.000119525
0.000140246
0.000159125
0.000176225
0.00019345
0.000212493
3.71688e-05
3.63698e-05
4.13961e-05
5.60639e-05
7.39185e-05
9.20329e-05
0.00010763
0.000122558
0.00013832
0.000156452
0.000177339
3.40619e-05
3.36676e-05
3.59833e-05
4.47142e-05
5.59819e-05
6.74554e-05
7.73599e-05
8.67439e-05
9.75471e-05
0.000111973
0.00013107
3.02001e-05
3.04989e-05
3.13791e-05
3.58524e-05
4.19415e-05
4.80584e-05
5.31087e-05
5.74171e-05
6.22282e-05
6.9354e-05
8.05667e-05
2.55531e-05
2.66383e-05
2.72263e-05
2.91867e-05
3.18679e-05
3.44336e-05
3.62896e-05
3.74306e-05
3.8355e-05
3.99156e-05
4.31314e-05
2.00554e-05
2.15701e-05
2.27439e-05
2.37962e-05
2.47975e-05
2.5534e-05
2.58038e-05
2.55692e-05
2.49867e-05
2.43689e-05
2.41113e-05
1.41407e-05
1.98861e-05
2.10083e-05
2.12869e-05
2.11633e-05
2.07783e-05
2.01688e-05
1.93436e-05
1.83413e-05
1.725e-05
1.61953e-05
4.24659e-05
0.00017666
0.0001854
0.000213363
0.000246982
0.000275601
0.000283894
0.000265918
0.000241636
0.000228662
0.000227185
3.27313e-05
0.000155609
0.000140735
0.000201489
0.000237373
0.000261778
0.000265539
0.000245859
0.000219737
0.000206056
0.000204604
3.26318e-05
0.000132353
0.000118823
0.000188161
0.000230457
0.00025889
0.000254663
0.000225685
0.000191434
0.000171926
0.000166005
3.54177e-05
0.000115197
0.000112083
0.000174965
0.000222124
0.000256453
0.000245902
0.000207126
0.000165513
0.000141965
0.000132959
3.87013e-05
0.000104805
0.000106306
0.000161569
0.000212918
0.000249932
0.000235469
0.000189936
0.000144443
0.000119592
0.000109335
4.15055e-05
9.91449e-05
0.000101053
0.000149685
0.000203287
0.000239445
0.000222672
0.000173559
0.000127155
0.000102462
9.16222e-05
4.37895e-05
9.56077e-05
9.63072e-05
0.000139729
0.000193547
0.000226905
0.000208596
0.000158113
0.000112891
8.91837e-05
7.80563e-05
4.57379e-05
9.30256e-05
9.19664e-05
0.000131335
0.00018404
0.000213955
0.000194479
0.000144048
0.000101311
7.9316e-05
6.8896e-05
4.71276e-05
9.1029e-05
8.80083e-05
0.000124109
0.000175082
0.000201729
0.000181331
0.00013181
9.2257e-05
7.26282e-05
6.42822e-05
4.7964e-05
8.9456e-05
8.44051e-05
0.000117729
0.000166879
0.000190798
0.000169732
0.000121591
8.53705e-05
6.80611e-05
6.14174e-05
4.82361e-05
8.82763e-05
8.11752e-05
0.000111941
0.000159576
0.000181424
0.000160064
0.000113391
8.02709e-05
6.50161e-05
6.00349e-05
4.81097e-05
8.69128e-05
7.75358e-05
0.000104317
0.000149604
0.00016969
0.000150018
0.00010691
7.69138e-05
6.31901e-05
5.95575e-05
4.75088e-05
8.52418e-05
7.36911e-05
9.52393e-05
0.000136134
0.000155199
0.000139455
0.000101892
7.49896e-05
6.23433e-05
5.96912e-05
4.64621e-05
8.29965e-05
6.97581e-05
8.49928e-05
0.000119523
0.000138011
0.00012807
9.77562e-05
7.41587e-05
6.23078e-05
6.01548e-05
4.49143e-05
8.04709e-05
6.62046e-05
7.52061e-05
0.00010198
0.000119107
0.000115345
9.34487e-05
7.38957e-05
6.29008e-05
6.08297e-05
4.28491e-05
7.74793e-05
6.30863e-05
6.64901e-05
8.50797e-05
9.95301e-05
0.000100732
8.75873e-05
7.32914e-05
6.38209e-05
6.16101e-05
4.027e-05
7.38302e-05
6.03818e-05
5.92213e-05
7.01751e-05
8.0715e-05
8.4407e-05
7.87678e-05
7.06847e-05
6.41878e-05
6.22851e-05
3.7105e-05
6.9426e-05
5.79864e-05
5.3602e-05
5.82465e-05
6.4374e-05
6.78785e-05
6.67416e-05
6.40725e-05
6.18721e-05
6.17033e-05
3.33051e-05
6.41022e-05
5.56532e-05
4.95215e-05
4.95309e-05
5.16138e-05
5.32651e-05
5.3312e-05
5.31919e-05
5.42218e-05
5.68589e-05
2.88597e-05
5.76669e-05
5.30053e-05
4.66528e-05
4.37551e-05
4.2718e-05
4.21296e-05
4.13574e-05
4.10188e-05
4.20847e-05
4.52204e-05
2.37631e-05
4.9827e-05
4.95141e-05
4.4482e-05
4.04004e-05
3.74326e-05
3.50505e-05
3.2974e-05
3.14032e-05
3.07877e-05
3.15764e-05
1.80179e-05
4.13209e-05
4.48792e-05
4.23041e-05
3.86825e-05
3.51113e-05
3.179e-05
2.87801e-05
2.61914e-05
2.41767e-05
2.28552e-05
1.17754e-05
3.04351e-05
3.4809e-05
3.50383e-05
3.36194e-05
3.05294e-05
2.71275e-05
2.39397e-05
2.11431e-05
1.87828e-05
1.68257e-05
9.49446e-06
1.05073e-05
1.10546e-05
1.16125e-05
1.19306e-05
1.21679e-05
1.22952e-05
1.22854e-05
1.21348e-05
1.18661e-05
1.15218e-05
3.7489e-05
0.000161176
0.000180186
0.000209339
0.000218432
0.000205817
0.000172687
0.000143689
0.000124871
0.000111174
9.92844e-05
3.06934e-05
0.000120741
0.000124258
0.00017857
0.000219058
0.000214022
0.000177509
0.000141313
0.000118237
0.000102117
8.84355e-05
2.94473e-05
9.37057e-05
0.000106627
0.000138403
0.000194358
0.000218737
0.00018602
0.000143365
0.000115414
9.6919e-05
8.22974e-05
3.00286e-05
7.88423e-05
9.86404e-05
0.000121912
0.000168458
0.000217776
0.000194968
0.00014811
0.000115513
9.48361e-05
7.95793e-05
3.06504e-05
7.18129e-05
9.33129e-05
0.000111962
0.000150683
0.000205409
0.000202117
0.000154318
0.000117707
9.50999e-05
7.96069e-05
3.06666e-05
6.87033e-05
8.9204e-05
0.000104306
0.000135223
0.000184149
0.000202241
0.000161259
0.000121349
9.6897e-05
8.09836e-05
3.0212e-05
6.79475e-05
8.63498e-05
9.85366e-05
0.000122014
0.000160558
0.000189352
0.000167
0.000126154
9.97731e-05
8.32052e-05
2.94244e-05
6.91375e-05
8.50773e-05
9.47346e-05
0.000111884
0.000140059
0.000168985
0.000165687
0.000132162
0.000104027
8.62372e-05
2.82569e-05
7.14158e-05
8.53445e-05
9.2559e-05
0.0001043
0.00012355
0.000146891
0.000155735
0.000136277
0.000109247
9.02794e-05
2.67481e-05
7.43293e-05
8.70553e-05
9.18119e-05
9.87436e-05
0.000110528
0.000126398
0.000138729
0.000134953
0.000114542
9.51356e-05
2.51152e-05
7.82418e-05
9.06023e-05
9.28584e-05
9.54874e-05
0.000101289
0.000110198
0.000119954
0.000126007
0.00011762
0.000100594
2.36424e-05
8.42892e-05
9.67901e-05
9.62684e-05
9.48289e-05
9.57775e-05
9.90943e-05
0.00010422
0.000112056
0.000115312
0.000105567
2.2882e-05
9.36472e-05
0.000106703
0.000102847
9.70186e-05
9.35229e-05
9.228e-05
9.28851e-05
9.78107e-05
0.000106453
0.000107425
2.33001e-05
0.000107312
0.000122076
0.000114282
0.000103056
9.46965e-05
8.92438e-05
8.5892e-05
8.66004e-05
9.40856e-05
0.000103152
2.43862e-05
0.000126333
0.000145192
0.000133392
0.00011506
0.000100448
9.03026e-05
8.32174e-05
7.98995e-05
8.31594e-05
9.33829e-05
2.49905e-05
0.000146697
0.000174931
0.000162689
0.000136331
0.000113123
9.662e-05
8.51289e-05
7.79215e-05
7.65129e-05
8.2922e-05
2.45646e-05
0.000162371
0.000205563
0.000201097
0.000170137
0.000136642
0.000111081
9.32838e-05
8.14263e-05
7.53684e-05
7.64323e-05
2.32223e-05
0.00017149
0.000231412
0.000242091
0.000215826
0.000174705
0.000138138
0.000111282
9.28254e-05
8.13324e-05
7.67447e-05
2.12071e-05
0.000173966
0.000248808
0.000276685
0.00026581
0.000227032
0.000182195
0.000144628
0.000116926
9.79838e-05
8.67532e-05
1.86711e-05
0.000169293
0.000255443
0.000298687
0.000308955
0.000286641
0.000244382
0.000199495
0.000161342
0.000132336
0.000112163
1.5803e-05
0.000155714
0.00025143
0.000308444
0.000339752
0.000343501
0.000319297
0.00027852
0.000234285
0.00019469
0.000162982
1.37544e-05
0.000133415
0.000232944
0.000300425
0.000350745
0.000378943
0.000382138
0.000362073
0.000326758
0.000285764
0.000245228
1.16599e-05
0.000109034
0.000173
0.000226325
0.000273141
0.000310409
0.000337995
0.000352357
0.0003511
0.000336631
0.000309925
8.71151e-06
3.01633e-05
4.89114e-05
7.09495e-05
9.56893e-05
0.000123181
0.000152303
0.000179513
0.000199984
0.000214739
0.00022285
3.21162e-05
0.000154112
0.000181038
0.000199014
0.000211882
0.00020364
0.000177006
0.000152365
0.000135629
0.000123234
0.000112191
2.11901e-05
0.000119593
0.000174544
0.00020842
0.000222587
0.000217578
0.000193656
0.000168443
0.00015126
0.000139493
0.000129821
2.08344e-05
0.000101153
0.000161665
0.000223707
0.0002459
0.000242091
0.000216867
0.000187096
0.000166961
0.000154647
0.000145905
2.2816e-05
9.18743e-05
0.00015136
0.000228101
0.000262364
0.0002644
0.000240761
0.000208168
0.000183181
0.000167831
0.000157994
2.54285e-05
8.505e-05
0.000146376
0.000225888
0.000263811
0.00027098
0.000250966
0.000219931
0.000194861
0.000179022
0.000168862
2.79456e-05
8.00556e-05
0.0001431
0.000220602
0.00026083
0.000273275
0.000256761
0.000227073
0.000202383
0.000186865
0.000177501
3.02392e-05
7.63777e-05
0.000140338
0.000214439
0.000255846
0.000272454
0.000259254
0.000231562
0.000207719
0.000192582
0.000183525
3.23699e-05
7.36729e-05
0.000137911
0.000208637
0.000250665
0.000270463
0.000259964
0.000234304
0.000211526
0.000196983
0.000188395
3.41687e-05
7.15937e-05
0.000135567
0.000203479
0.000246336
0.000268559
0.000260405
0.000236518
0.000214696
0.000200709
0.000192534
3.56207e-05
6.97853e-05
0.000133403
0.000199122
0.000243238
0.000267278
0.000261408
0.000239002
0.000217778
0.00020405
0.000195893
3.67068e-05
6.79682e-05
0.000131083
0.000195431
0.000241012
0.000267017
0.00026358
0.000242463
0.000221512
0.000207801
0.000199576
3.75257e-05
6.61488e-05
0.000128622
0.000192211
0.000239398
0.000267779
0.000267217
0.000247495
0.000226613
0.00021268
0.000203949
3.80068e-05
6.41467e-05
0.000125863
0.000189135
0.000238132
0.000269446
0.000272525
0.000254667
0.00023384
0.000219601
0.000210591
3.80837e-05
6.04815e-05
0.000120613
0.000183736
0.000234804
0.000269882
0.000278435
0.000264155
0.000243942
0.000229443
0.000220494
3.7693e-05
5.62833e-05
0.000112869
0.000174668
0.000226509
0.000264561
0.000280108
0.000273266
0.000256682
0.00024287
0.000234052
3.68074e-05
5.16755e-05
0.000102784
0.000161952
0.000213499
0.000253376
0.00027584
0.000279112
0.000270183
0.000259517
0.000251541
3.54249e-05
4.67398e-05
9.0734e-05
0.000145604
0.000195832
0.00023643
0.000264376
0.000278053
0.000280212
0.000276809
0.000272043
3.34642e-05
4.17561e-05
7.76934e-05
0.000126326
0.000173873
0.000214145
0.000245457
0.000267326
0.000281038
0.00028867
0.000291678
3.08872e-05
3.67814e-05
6.45465e-05
0.000105154
0.000148136
0.000186773
0.000219354
0.000246054
0.000268284
0.000286976
0.000301401
2.76629e-05
3.17401e-05
5.18586e-05
8.33023e-05
0.00011949
0.000154582
0.000186333
0.000214697
0.000241043
0.000266604
0.000291097
2.37592e-05
2.65066e-05
4.00501e-05
6.21642e-05
8.96355e-05
0.000118644
0.000146984
0.00017411
0.000200762
0.000228153
0.000257011
1.91841e-05
2.09743e-05
2.928e-05
4.29816e-05
6.09668e-05
8.15426e-05
0.000103387
0.000125917
0.000149338
0.000174431
0.000202255
1.39715e-05
1.4691e-05
1.89646e-05
2.59115e-05
3.52992e-05
4.67166e-05
5.97743e-05
7.42879e-05
9.04121e-05
0.000108682
0.000130242
8.43454e-06
9.04259e-06
1.15945e-05
1.516e-05
1.9719e-05
2.52576e-05
3.16971e-05
3.94089e-05
4.94624e-05
6.19708e-05
7.73164e-05
1.78699e-05
0.000138049
0.000228336
0.000289921
0.000334882
0.000373272
0.000410238
0.000444995
0.000468346
0.000471541
0.000453215
1.40692e-05
0.000108873
0.000200152
0.000273423
0.000323849
0.000360584
0.000391948
0.000419128
0.000436197
0.000436667
0.00041898
1.30522e-05
9.26177e-05
0.000177856
0.00025401
0.000309319
0.000348153
0.000378446
0.000403064
0.000417541
0.000415546
0.000394093
1.3314e-05
8.71909e-05
0.00016914
0.000244673
0.000301236
0.000340094
0.000368277
0.000390556
0.000404422
0.000403642
0.000384118
1.39825e-05
8.64919e-05
0.000167672
0.000242069
0.000298442
0.000336465
0.000362071
0.000381455
0.000394465
0.000395318
0.000378081
1.46327e-05
8.72696e-05
0.000168953
0.000242501
0.000298389
0.000335713
0.000359433
0.00037648
0.000388753
0.000391522
0.000377721
1.52358e-05
8.87991e-05
0.000171378
0.000244277
0.000299645
0.000336535
0.000359208
0.000374872
0.000386803
0.000391051
0.000379079
1.59521e-05
9.10864e-05
0.000174483
0.000246839
0.000301661
0.000338215
0.000360398
0.000375506
0.00038771
0.000394062
0.000386748
1.65996e-05
9.31826e-05
0.000177673
0.000249737
0.000304105
0.000340388
0.000362456
0.00037764
0.000390616
0.000398754
0.000392743
1.70858e-05
9.46256e-05
0.000180093
0.000252275
0.000306534
0.000342831
0.000365145
0.000380827
0.000394724
0.000403907
0.000397317
1.74835e-05
9.55883e-05
0.000181827
0.000254365
0.000308821
0.000345424
0.000368274
0.000384699
0.000399487
0.00040949
0.000404242
1.78308e-05
9.65741e-05
0.000183409
0.000256317
0.000311066
0.00034813
0.000371692
0.000388971
0.00040453
0.000414821
0.000408512
1.80436e-05
9.71411e-05
0.00018449
0.000257898
0.000313151
0.000350916
0.000375389
0.000393614
0.00040989
0.000420464
0.000414555
1.80893e-05
9.67698e-05
0.000184478
0.000258668
0.000314847
0.00035373
0.000379413
0.00039872
0.000415761
0.000426914
0.000422761
1.79885e-05
9.60244e-05
0.000183833
0.000258848
0.000316197
0.00035654
0.000383743
0.00040433
0.000422262
0.000433936
0.000428875
1.77116e-05
9.45147e-05
0.000182177
0.000258124
0.000316989
0.000359263
0.00038842
0.00041058
0.00042958
0.000441775
0.000436168
1.72667e-05
9.08332e-05
0.000178139
0.000255438
0.000316569
0.000361579
0.000393357
0.000417539
0.000437836
0.000450503
0.000444357
1.65703e-05
8.6143e-05
0.000171966
0.000250203
0.00031354
0.000361674
0.000396862
0.000423932
0.00044637
0.000459958
0.000452182
1.56095e-05
7.98777e-05
0.000162813
0.000241408
0.000306943
0.000358243
0.000396403
0.000425182
0.00044844
0.000463248
0.000456585
1.43566e-05
7.15608e-05
0.00014966
0.000227581
0.000295062
0.000349511
0.000390335
0.000419687
0.000441475
0.000454934
0.000449921
1.27673e-05
6.08277e-05
0.000131522
0.000206801
0.000275443
0.000333013
0.000376667
0.000406145
0.000424292
0.000432518
0.000426677
1.0835e-05
4.88504e-05
0.000107917
0.000176479
0.000244345
0.000304852
0.000352229
0.000383066
0.000397966
0.000399245
0.000388031
8.44702e-06
3.05281e-05
7.221e-05
0.000130095
0.000195158
0.000258203
0.000310606
0.000345908
0.000361872
0.000360026
0.000343801
5.96932e-06
1.73991e-05
4.46385e-05
8.62431e-05
0.000136534
0.000190103
0.000240088
0.000278755
0.000300635
0.000304335
0.000292498
1.25611e-05
6.17098e-05
0.000128027
0.000204027
0.000277339
0.000339452
0.000398209
0.000462664
0.000512688
0.000533861
0.000521987
9.31887e-06
2.81171e-05
5.99083e-05
0.000102469
0.000155516
0.000212245
0.000272973
0.000369418
0.000476796
0.000573093
0.000593842
1.0958e-05
3.09582e-05
5.88604e-05
7.89118e-05
0.000103703
0.000138429
0.000180749
0.000231946
0.000322108
0.000503146
0.000635121
1.35113e-05
3.86192e-05
8.14502e-05
0.000115337
0.000119237
0.000124994
0.000141409
0.00016792
0.000209493
0.000302264
0.000551445
1.64686e-05
4.81324e-05
0.000103944
0.000164318
0.000195402
0.000177919
0.000159822
0.000154397
0.000164802
0.000199866
0.000312479
1.93835e-05
5.95827e-05
0.00012685
0.00020667
0.000271753
0.00028422
0.000241277
0.000196567
0.000169253
0.000165786
0.000204647
2.21541e-05
7.27485e-05
0.000151247
0.000242476
0.00032871
0.000385525
0.000362475
0.000292479
0.000222641
0.000177774
0.000169723
2.48276e-05
8.70613e-05
0.000176509
0.000273061
0.000366239
0.00044634
0.000481037
0.000418015
0.000316951
0.000228306
0.000177709
2.72496e-05
0.000102658
0.000202548
0.000299819
0.000389792
0.000474833
0.000540632
0.000526942
0.0004274
0.000305967
0.000215041
2.93751e-05
0.000119349
0.000228424
0.000323089
0.000403614
0.000480406
0.000556371
0.000598148
0.00052715
0.000392458
0.000268802
3.11746e-05
0.000136391
0.000252673
0.000342886
0.000411372
0.000472888
0.000544061
0.000613327
0.000593852
0.000468389
0.000325489
3.27605e-05
0.000151611
0.000274173
0.000358664
0.000414966
0.000459805
0.000518323
0.000596761
0.000627248
0.000522339
0.000373544
3.40917e-05
0.000165338
0.000291377
0.000370128
0.000415375
0.000446106
0.00048941
0.000559263
0.000624184
0.0005514
0.000402614
3.51216e-05
0.000178018
0.000305803
0.00037819
0.000412985
0.000432193
0.000461854
0.000511881
0.000568966
0.000559907
0.000409533
3.57457e-05
0.000189851
0.000318502
0.000383988
0.000407975
0.000415135
0.000430301
0.000461008
0.000498057
0.00051079
0.000414898
3.59527e-05
0.000201436
0.000330681
0.000389059
0.000402231
0.000397373
0.000398201
0.000410942
0.000428768
0.000435708
0.000401064
3.57151e-05
0.000213005
0.000343308
0.000395114
0.000398385
0.000383178
0.000372638
0.000372482
0.000377794
0.00038078
0.000371067
3.49225e-05
0.000224691
0.00035756
0.000404542
0.000399898
0.000377211
0.000360186
0.000354924
0.000357101
0.00036009
0.00035627
3.34607e-05
0.000238379
0.000376975
0.000423217
0.000412822
0.000382927
0.000359136
0.000349115
0.000348631
0.000351513
0.000355046
2.97576e-05
0.000231885
0.000365595
0.000414088
0.00040608
0.00037056
0.000334636
0.000311069
0.000296798
0.000286887
0.00029273
2.39638e-05
0.000200457
0.000327153
0.000385942
0.000390985
0.00035888
0.000311106
0.000260572
0.000206968
0.000184828
0.000172127
1.79255e-05
0.000156095
0.00026926
0.00033189
0.000348095
0.000321447
0.000261188
0.000195256
0.000155363
0.000134155
0.000121025
1.22557e-05
0.00011161
0.000182931
0.00022054
0.000214282
0.000177924
0.000139772
0.000119897
0.000113891
0.000115572
0.000118458
6.13008e-06
2.12503e-05
3.74628e-05
4.67185e-05
5.47312e-05
6.83983e-05
8.91993e-05
0.000115695
0.000142646
0.00016328
0.000173025
1.56988e-05
1.46179e-05
1.45983e-05
1.46877e-05
1.4766e-05
1.4684e-05
1.42852e-05
1.32218e-05
1.10079e-05
0.000105159
0.000103681
9.27732e-05
8.25905e-05
7.23782e-05
5.788e-05
4.18103e-05
3.05076e-05
2.40684e-05
0.0001654
0.000159399
0.000146372
0.000135203
0.000123125
0.00010685
8.09879e-05
5.90007e-05
4.43943e-05
0.000190208
0.000181527
0.000169369
0.000161668
0.000152532
0.000139407
0.00011077
8.35532e-05
6.50132e-05
1.57945e-05
1.54936e-05
1.49155e-05
1.37754e-05
1.12785e-05
7.46442e-06
6.59893e-06
6.23546e-06
7.4344e-06
9.66323e-05
8.49715e-05
6.25706e-05
4.22874e-05
2.97041e-05
2.57103e-05
2.65958e-05
2.40331e-05
2.19947e-05
0.000156121
0.000143364
0.000116256
8.23177e-05
5.4642e-05
4.09325e-05
4.14741e-05
3.89049e-05
3.76053e-05
0.000185155
0.000179225
0.000155093
0.000115439
7.80506e-05
5.73454e-05
5.82789e-05
5.75766e-05
5.64086e-05
0.000195936
0.000229731
0.000229768
0.000102098
0.000401943
0.000229273
9.04705e-05
0.000229547
0.000229247
0.000233316
0.000393966
0.000229555
0.00012409
0.00019289
0.000123968
0.000228725
0.000169995
0.000105778
0.000228723
0.000228695
0.00022969
2.89741e-05
0.000229944
0.000258581
0.000229305
0.000195913
0.00013189
8.81048e-05
0.00026047
0.000559484
0.00015168
0.000235659
0.000118858
0.000229483
0.000240831
0.000229697
0.00024426
0.000229283
0.000101629
0.000229242
1.56334e-05
0.000229511
0.000234815
0.000229919
0.000462507
5.07337e-05
5.28601e-05
0.000100137
0.000239486
0.000229229
0.000556812
0.000229278
0.000912377
0.000223693
0.000229178
0.000229485
2.96664e-05
0.000229306
0.00025374
0.000442451
2.96926e-05
0.00088561
0.000484605
0.000165092
2.19423e-05
0.000228677
0.000676044
0.000231733
0.000229727
0.000232818
0.000189045
0.0002319
6.46021e-05
0.000236807
0.000368404
0.000230676
2.29925e-05
0.000229687
0.000140628
0.000433785
0.000561851
0.000141203
0.000229301
0.000229791
0.000247929
6.55275e-05
0.000289438
0.000776025
4.61689e-05
0.000255365
0.000229506
0.000229373
1.79764e-05
0.0002324
0.000424631
0.0001517
0.000343856
0.000234681
4.45809e-05
0.000233391
0.000251324
9.32756e-05
0.000229706
0.000236463
4.91163e-05
0.000229502
0.00018059
0.000229866
0.000112043
0.000235051
0.000229517
0.00022955
0.000230378
7.56185e-05
9.83373e-05
0.000229005
0.000229139
0.00022885
0.00022955
0.000228999
7.22871e-05
0.000236277
0.000242411
0.000193327
4.49676e-05
0.000190821
0.000532568
0.000173928
0.000163539
0.000133323
0.000229463
0.00042682
9.55334e-05
0.000230962
0.000229756
0.000232174
2.08575e-05
0.000107711
0.000548263
0.000244167
0.000268114
0.000231475
0.000239892
0.000167798
0.000229091
3.77549e-05
0.000113572
0.000231297
0.000234234
0.00022954
0.000229458
0.000229368
3.94931e-05
0.000235447
8.51657e-05
6.11192e-05
7.50946e-05
2.96027e-05
0.000167928
0.000228773
0.000217063
4.88223e-05
0.0002315
0.00022902
0.000686298
0.000112072
5.79913e-05
0.000251389
0.000234313
2.21518e-05
0.000150168
0.000155421
0.000235444
0.00022959
0.000234939
0.000220196
0.000154782
3.85383e-05
0.000458038
0.0001996
0.000230827
2.40722e-05
0.000229921
0.000149576
0.000229448
0.000113533
0.000230086
0.000228848
0.000229697
0.000177602
0.00011295
0.000201986
0.000228587
1.61001e-05
0.000229748
0.000228885
0.000229261
4.47404e-05
0.000127701
0.00023
3.41247e-05
0.000229476
0.000113073
0.000146613
0.000229798
0.000788141
0.000232048
0.000163907
0.000229141
0.000228695
0.000288199
0.000228983
0.000175333
0.000238621
0.000229415
0.000739943
0.000229363
4.7802e-05
0.000229855
8.64093e-05
7.63331e-05
7.16731e-05
0.000323655
9.44371e-05
0.00019556
0.000229326
0.000119757
0.000110489
0.000118349
0.000316934
3.1614e-05
0.000228567
0.000229642
0.000236542
3.83895e-05
0.000306786
0.000681846
0.000229871
0.000229596
0.00022959
4.81472e-05
0.000196623
0.000236573
1.8059e-05
0.000236947
5.02263e-05
0.000229428
0.000145313
0.000163618
0.000738766
0.000145605
0.000291943
0.00023858
0.00022879
0.000233831
0.000229239
0.000229507
0.000229215
4.65549e-05
0.000230304
0.00012337
0.000195118
0.000228178
0.000229616
0.000229501
5.35108e-05
0.000231877
0.00023898
0.000159528
0.000179579
0.000223585
0.000229063
0.000229533
5.30614e-05
0.000229055
0.000228848
0.000189305
0.000229242
0.000238215
4.87643e-05
0.000232855
0.000229666
0.000568262
0.000641152
0.000233454
0.000228988
0.000372788
0.000229641
0.000237751
0.000254556
0.000229739
9.65659e-05
0.000250079
9.07564e-05
0.000229998
0.000229132
0.000233378
0.000229603
0.000240331
0.00019075
0.000229513
6.18059e-05
0.000242277
0.000555959
0.000229457
0.000235085
0.000229684
0.000169494
2.44607e-05
0.000228943
5.49021e-05
0.000229548
0.000233822
0.000121717
2.60749e-05
0.00023157
0.000174174
6.37603e-05
0.000228674
0.000234292
0.000229827
0.000391859
0.000228884
0.000192055
0.00011491
0.000237782
0.000229249
0.000208684
0.000228265
0.000833529
0.000235319
0.00047886
2.14768e-05
0.000229879
0.000100999
0.0002393
7.4202e-05
0.000229652
0.000229269
0.000238876
5.04311e-05
0.000282453
0.000229611
0.000109405
0.000210459
0.000172479
0.000199106
0.000228968
0.000206101
0.000623128
6.23365e-05
0.000234702
0.000179629
0.000229499
0.000105719
0.000230036
7.45852e-05
0.000206695
0.000229919
0.000829644
0.000136051
0.000191922
0.000229396
0.000229361
0.00022949
5.20516e-05
0.000164625
6.23329e-05
7.45616e-05
0.000241165
0.000229221
0.000130521
0.00020776
0.000193754
0.000112479
0.000229719
0.000152472
0.000240749
0.000228975
0.000229433
0.000509332
0.000228867
3.66081e-05
0.000229329
0.000201967
0.00068345
6.22179e-05
0.000195052
0.000198379
4.7458e-05
0.000229403
4.61272e-05
0.000187282
0.000243316
0.000701435
2.11951e-05
0.000229381
0.000229109
0.000229757
7.90314e-05
4.64752e-05
0.00022895
0.000229931
0.000274105
9.55634e-05
1.8999e-05
0.00010499
0.000120335
0.00022945
0.00038823
0.000244252
0.000228708
0.000120936
0.000123684
4.69463e-05
0.00023376
0.000112606
0.000239517
0.000182603
4.95689e-05
0.000289633
0.000150009
9.45715e-05
0.000115826
0.000227159
0.000234536
0.000235878
7.41723e-05
0.000223454
2.92618e-05
0.00022933
3.67616e-05
0.000208357
0.000228542
0.000230892
7.1055e-05
0.000296097
0.000515203
0.000192771
0.000230033
0.00023651
0.000292602
0.000197164
6.20682e-05
0.000234576
9.83495e-05
0.000592574
2.68686e-05
0.000228787
4.05907e-05
0.000229439
0.000229741
0.000229322
5.01677e-05
9.41907e-05
7.39512e-05
0.000152618
3.19772e-05
8.15422e-05
0.00022968
0.000228805
0.000557013
0.000181659
0.00023386
0.000242497
4.12407e-05
4.51114e-05
2.96836e-05
2.93526e-05
0.000234898
0.000211711
5.31957e-05
0.000229826
3.09733e-05
0.000238162
0.000229639
0.000229005
8.05658e-05
3.5971e-05
0.000229828
0.000229124
0.0002297
0.000265636
2.25301e-05
0.000229866
4.03698e-05
0.000365956
0.00015648
7.00868e-05
0.000228726
3.84653e-05
0.000228894
0.000237421
0.000229275
0.000145017
0.000148153
0.000228628
0.00019267
0.000168959
0.000238102
0.000223902
0.000208619
0.000229472
0.000229476
0.000207469
9.44769e-05
5.96873e-05
0.000235647
8.26013e-05
0.000229757
0.000462106
0.000104695
4.52017e-05
0.000107787
0.000250566
0.000677116
6.5074e-05
0.000192448
0.000229213
0.000184231
0.000228758
0.000229661
0.00022914
0.000229623
0.000235137
0.000491016
0.000229556
0.000228755
0.00016397
0.000229498
3.97425e-05
0.000246425
0.000147642
0.00017584
4.78764e-05
0.000229994
0.000229234
0.000229811
1.71988e-05
3.59762e-05
0.000229386
0.000229313
0.000193311
0.000229741
0.000176146
0.000229697
0.000830017
0.000236927
3.20417e-05
9.94507e-05
0.000131273
5.86538e-05
0.000492614
0.000229526
0.000231928
0.000234082
0.00022971
7.13262e-05
2.64109e-05
0.000223863
0.000134602
0.000174224
0.000122876
0.000229305
0.00022957
0.000229678
0.00057769
0.000722842
8.37089e-05
0.000229477
0.000229064
0.000641461
0.000230646
0.000107679
0.000156248
0.000130683
0.000318968
0.000229287
8.85431e-05
0.000229195
6.55883e-05
0.000229351
0.000390912
0.000150256
0.000234621
2.78263e-05
0.000126126
0.000229819
0.000229977
0.000421428
0.000228913
0.000183427
0.000108026
7.25728e-05
0.000553722
5.10227e-05
0.000156711
0.000230633
0.000229501
0.00022945
0.00014747
5.47049e-05
0.000112515
0.000228659
0.000229344
9.05702e-05
0.000230441
0.000234238
0.000239637
0.00023214
0.000120008
5.85831e-05
7.40197e-05
0.000159953
0.000233586
0.000230275
0.000228782
0.000149902
0.000230563
0.000229525
0.00016948
0.0003816
0.000228942
0.000228854
2.06256e-05
0.000229857
0.000228781
0.000147668
0.000229715
0.000235378
0.000100443
9.44854e-05
0.000158544
0.000180844
0.000159441
6.97292e-05
0.000261483
7.23293e-05
0.00010668
0.000179417
5.38006e-05
7.28515e-05
0.00012836
0.000229761
0.000230611
0.000114157
0.000230132
0.000229908
0.000239961
0.000208407
0.000236978
0.000157443
0.000192548
0.000238276
0.000229169
0.000197416
0.000229573
0.000229032
0.000236535
7.96619e-05
0.000230843
0.0002371
0.000231825
0.000229673
0.000131475
6.22319e-05
0.000304461
0.000230847
0.000231259
0.000189828
0.000370439
0.000233562
0.000170359
0.00023062
0.000306233
0.000305971
0.000229243
8.78312e-05
0.000229916
0.000124535
0.000136907
0.000117303
0.000138785
0.00021525
0.000246616
0.000229822
9.92428e-05
0.000181826
4.67877e-05
0.000550361
0.000228934
0.000233586
0.00022981
0.000160957
0.00023035
4.2575e-05
0.000229509
0.00022935
0.000228973
0.000131654
6.07833e-05
0.00022961
0.000129816
0.000229201
0.00010944
0.000168137
0.000231224
0.000116194
1.97892e-05
8.86755e-05
0.000237188
0.000197335
0.000140759
0.00011968
0.000131565
9.18298e-05
0.000229266
0.000157479
0.000229548
0.000234983
5.00772e-05
0.000199708
3.83551e-05
0.000192767
0.000230409
0.000235402
0.000229023
5.07229e-05
0.000229671
0.00070725
0.000205516
0.000829907
0.000233899
0.000138724
0.00042716
0.000536814
0.000237009
0.000126394
3.74914e-05
6.0598e-05
0.000229554
0.000191996
0.000184295
0.000229534
4.487e-05
0.000119256
0.000237307
0.000312494
0.000229109
0.000236126
0.000235077
0.000130769
0.00023345
0.000192725
0.000229595
0.000124929
0.000232665
9.46499e-05
9.18281e-05
0.000333929
0.000113533
0.000228868
0.000266882
5.58331e-05
0.000229183
0.000192732
0.00018788
9.62183e-05
0.000237411
2.98705e-05
0.000252351
0.000102211
9.97585e-05
0.000249552
0.000229051
0.000248039
0.000229123
0.000241137
2.19705e-05
0.000230041
0.000229563
0.000251691
0.000368177
0.000410887
0.000156712
0.000229598
0.000154294
0.000247235
0.000229543
0.000229673
0.00022978
0.000229536
0.000236571
0.000159437
4.62758e-05
0.000121173
0.000176014