/*--------------------------------*- C++ -*----------------------------------*\
| =========                 |                                                 |
| \\      /  F ield         | OpenFOAM: The Open Source CFD Toolbox           |
|  \\    /   O peration     | Version:  3.0.1                                 |
|   \\  /    A nd           | Web:      www.OpenFOAM.org                      |
|    \\/     M anipulation  |                                                 |
\*---------------------------------------------------------------------------*/
FoamFile
{
    version     2.0;
    format      ascii;
    class       volScalarField;
    location    "0.511763";
    object      k;
}
// * * * * * * * * * * * * * * * * * * * * * * * * * * * * * * * * * * * * * //

dimensions      [0 2 -2 0 0 0 0];

internalField   nonuniform List<scalar> 
21246
(
1.02468
1.46516
1.12565
0.765688
0.475753
0.280255
0.162218
0.0932638
0.0532519
0.0304587
0.0179936
0.733779
1.06044
0.941887
0.688182
0.448941
0.274665
0.162186
0.0936022
0.053236
0.0302014
0.0176882
0.51891
0.880705
0.837727
0.66408
0.458084
0.289149
0.173262
0.100237
0.0566207
0.0318094
0.0184929
0.421112
0.738635
0.754339
0.640464
0.46624
0.304953
0.186921
0.109816
0.0624869
0.0349865
0.0200851
0.355872
0.597709
0.633615
0.577512
0.451035
0.311304
0.196578
0.116879
0.0664933
0.0367083
0.0204825
0.32225
0.515303
0.548894
0.507942
0.408424
0.29155
0.189324
0.115114
0.0669085
0.0378732
0.0218084
0.300376
0.45774
0.487876
0.452614
0.366804
0.26571
0.176519
0.110319
0.0658455
0.0380321
0.0220552
0.285223
0.414483
0.439977
0.40711
0.331051
0.2421
0.163396
0.104258
0.0636915
0.0377113
0.0227693
0.273797
0.380269
0.401349
0.369847
0.300871
0.221303
0.151151
0.0981754
0.0613368
0.0371988
0.0228848
0.264159
0.351844
0.369729
0.339776
0.276454
0.204202
0.140768
0.0927649
0.0590336
0.0364518
0.0225416
0.255899
0.327733
0.343506
0.315382
0.256866
0.190477
0.13232
0.0882097
0.05693
0.0356402
0.022542
0.249347
0.307458
0.321618
0.295266
0.24093
0.179432
0.125546
0.0845374
0.0552222
0.0350267
0.0224752
0.244152
0.290148
0.30332
0.278866
0.228272
0.170876
0.120421
0.0818409
0.0540588
0.0346985
0.022422
0.239787
0.275053
0.287993
0.265834
0.218744
0.164777
0.116988
0.0801948
0.0534732
0.0346219
0.022614
0.236534
0.262035
0.275047
0.255367
0.211661
0.160717
0.115052
0.0795427
0.0534826
0.0348408
0.0227441
0.234394
0.250568
0.264146
0.247261
0.206957
0.158731
0.114706
0.0799861
0.0541794
0.0354403
0.0231083
0.233308
0.240156
0.254942
0.241435
0.204793
0.159091
0.116207
0.0817308
0.0557233
0.0365191
0.0237523
0.233416
0.230743
0.246695
0.237181
0.204968
0.162017
0.119746
0.0849618
0.0582902
0.0382379
0.0248063
0.234845
0.222094
0.23891
0.233504
0.206295
0.166739
0.125478
0.0900017
0.0621786
0.0409434
0.0265296
0.237941
0.213859
0.231282
0.230103
0.208451
0.172921
0.133017
0.0967899
0.0675186
0.0449022
0.0291756
0.243375
0.205862
0.223344
0.226423
0.210711
0.179924
0.142103
0.105546
0.0748239
0.0506656
0.0333387
0.253012
0.197501
0.214905
0.221476
0.211693
0.186421
0.152
0.116342
0.084797
0.0591712
0.0399776
0.266031
0.188874
0.20383
0.215078
0.211
0.19162
0.162029
0.129078
0.0980663
0.0715342
0.0504829
0.283613
0.192547
0.207899
0.207648
0.204627
0.191306
0.169028
0.141832
0.113935
0.0881491
0.0661162
0.986981
1.49049
1.18762
0.89426
0.61262
0.366448
0.208026
0.115571
0.0638347
0.0356656
0.0208001
0.845172
1.13307
1.10303
0.928605
0.708934
0.476316
0.280308
0.154941
0.0852863
0.0464182
0.0258044
0.55098
0.862383
0.963667
0.890754
0.736666
0.54096
0.347595
0.201713
0.113632
0.061796
0.0335052
0.384508
0.939989
0.926066
0.857651
0.737565
0.574045
0.39612
0.244933
0.14511
0.0820573
0.0455934
0.441047
1.07941
1.02861
0.885487
0.747148
0.594311
0.430118
0.281387
0.174562
0.105497
0.0618253
0.477284
1.17512
1.277
1.03066
0.804706
0.622656
0.457813
0.311791
0.201576
0.12782
0.0815682
0.471294
1.07813
1.52318
1.33027
0.95667
0.68484
0.490205
0.338744
0.226006
0.148802
0.0991967
0.471206
1.02457
1.53887
1.63672
1.20721
0.802185
0.539349
0.366347
0.248054
0.168179
0.116596
0.471628
0.991253
1.5005
1.87416
1.54013
0.990227
0.617141
0.399875
0.268937
0.185873
0.132859
0.470589
0.962393
1.45811
1.92911
1.84989
1.23616
0.728902
0.443445
0.290212
0.20205
0.147648
0.467513
0.930097
1.40719
1.89703
2.05357
1.49551
0.866837
0.497323
0.312807
0.217023
0.161441
0.463368
0.892257
1.34438
1.81854
2.12557
1.71541
1.00801
0.554642
0.335433
0.23081
0.174067
0.460415
0.856476
1.2713
1.70914
2.07043
1.84313
1.12114
0.603729
0.355203
0.243274
0.185857
0.45942
0.820673
1.18749
1.57244
1.935
1.8644
1.18119
0.632936
0.368932
0.254272
0.19755
0.462598
0.790523
1.10286
1.41648
1.73791
1.79139
1.1725
0.633539
0.374986
0.264148
0.210147
0.467991
0.767601
1.02303
1.25661
1.47718
1.5906
1.11336
0.605721
0.373298
0.27469
0.224477
0.473497
0.746486
0.939532
1.09308
1.21967
1.26088
1.02746
0.571943
0.371296
0.289597
0.242656
0.480777
0.731354
0.859796
0.936948
0.987708
0.993239
0.886473
0.570636
0.381557
0.315443
0.269049
0.494129
0.732209
0.800575
0.813928
0.81677
0.815927
0.776688
0.607399
0.431752
0.366723
0.311142
0.52219
0.767167
0.7888
0.752939
0.727555
0.734103
0.741499
0.682844
0.545998
0.450424
0.372048
0.585587
0.897605
0.90988
0.838835
0.778802
0.761846
0.760042
0.720998
0.615689
0.493849
0.377301
0.719686
1.19592
1.23727
1.14511
0.986161
0.820432
0.64027
0.534014
0.423818
0.327289
0.243536
0.469065
0.837568
0.890938
0.699488
0.533784
0.417336
0.327088
0.260322
0.206781
0.162817
0.126277
0.322228
0.258335
0.226625
0.208792
0.19853
0.188973
0.175855
0.157774
0.135687
0.111924
0.0887973
0.231329
0.245382
0.095691
0.0449033
0.0233777
0.0155343
0.0126007
0.011359
0.0107572
0.0104253
0.0102111
0.273811
0.380761
0.102039
0.0570063
0.0267031
0.0166231
0.0126611
0.0110201
0.0102281
0.00979131
0.00952478
0.314601
0.388886
0.124003
0.0675944
0.0289034
0.0177887
0.0128305
0.010808
0.00981855
0.00924786
0.00883575
0.345586
0.364533
0.135222
0.0722185
0.0300057
0.0187471
0.0129651
0.0106526
0.00949412
0.00881519
0.00831573
0.363612
0.350181
0.141068
0.0726816
0.0310241
0.0194252
0.0130419
0.010532
0.00923732
0.00847819
0.00793329
0.369171
0.347059
0.147966
0.0743399
0.0324087
0.0199189
0.0131327
0.0104533
0.00904166
0.00821913
0.00764731
0.363466
0.352395
0.157495
0.077974
0.0350941
0.0205313
0.013312
0.0104295
0.00890657
0.00802371
0.00741313
0.348138
0.364534
0.169286
0.0834411
0.0385021
0.021614
0.013756
0.0104776
0.00883541
0.00788848
0.00724181
0.325695
0.381488
0.184359
0.0910677
0.0428609
0.0232672
0.0144928
0.0107004
0.00886416
0.00782104
0.00712102
0.298469
0.401255
0.205143
0.102157
0.0488858
0.0258528
0.0156482
0.0111313
0.00900503
0.0078337
0.00706579
0.267887
0.424718
0.231889
0.117175
0.0569586
0.0296049
0.0173569
0.0118453
0.00929137
0.00793299
0.00707626
0.236325
0.454535
0.264293
0.136017
0.0671083
0.0346145
0.0197338
0.0129195
0.00976674
0.00814086
0.00716291
0.207725
0.488645
0.304598
0.160385
0.0802596
0.0413215
0.0230411
0.0144983
0.0105092
0.00849705
0.00734415
0.185232
0.524061
0.355194
0.193003
0.0980634
0.0505581
0.027723
0.0168213
0.0116479
0.0090698
0.00765433
0.172532
0.568354
0.417899
0.235262
0.121469
0.0629101
0.0341667
0.0201462
0.0133466
0.0099553
0.00814693
0.173626
0.621709
0.496297
0.291494
0.153274
0.079888
0.0431923
0.0249448
0.0158874
0.0113188
0.00891351
0.186235
0.673333
0.590464
0.367969
0.198571
0.104462
0.0564085
0.0321062
0.0197819
0.0134573
0.0101244
0.204705
0.715531
0.693247
0.468817
0.263399
0.140836
0.0763549
0.0431277
0.0259227
0.0169071
0.0120997
0.221271
0.734682
0.784011
0.591829
0.355436
0.196188
0.107852
0.0609989
0.0361313
0.0227763
0.0155057
0.229856
0.723718
0.835017
0.717235
0.477587
0.280295
0.159463
0.0917142
0.0542958
0.0335143
0.0218656
0.227481
0.669277
0.821711
0.804196
0.616403
0.401827
0.244958
0.147041
0.0889066
0.0548387
0.0348968
0.237032
0.606903
0.769982
0.831694
0.739331
0.556893
0.379742
0.246687
0.157155
0.0998993
0.0639307
0.216797
0.487528
0.588381
0.669774
0.678775
0.613898
0.497837
0.371835
0.263515
0.181694
0.122847
0.268374
0.632292
0.648416
0.670896
0.647939
0.591763
0.508681
0.415198
0.325899
0.249027
0.184804
0.180336
0.187756
0.0847822
0.0375075
0.0210313
0.0151113
0.0128532
0.0118963
0.0114739
0.0113057
0.0112733
0.178887
0.1579
0.0677944
0.038801
0.0230448
0.016344
0.0136915
0.0126271
0.0122364
0.0121879
0.0123557
0.201744
0.174335
0.0636556
0.0432667
0.0259123
0.0182828
0.0148491
0.0134271
0.0129041
0.0128479
0.0130914
0.223531
0.167548
0.0619275
0.0458609
0.0269954
0.0193201
0.0156403
0.0140805
0.0135311
0.0135026
0.0138225
0.241154
0.148883
0.0610665
0.0464417
0.027604
0.0201576
0.0162382
0.0145495
0.0139161
0.0138604
0.0141953
0.255409
0.131959
0.0602386
0.0456281
0.0276894
0.0207411
0.0167382
0.0150272
0.0143654
0.0143061
0.014637
0.267553
0.11925
0.059307
0.0443533
0.0275807
0.0211648
0.0171728
0.0155429
0.0149351
0.0149624
0.0153887
0.277303
0.109826
0.0582402
0.043072
0.0275003
0.0214878
0.0175789
0.0160537
0.0155211
0.0156378
0.0161302
0.286125
0.102888
0.0573251
0.0421302
0.0276484
0.0217772
0.0179826
0.0165438
0.0160893
0.0163302
0.0170369
0.29491
0.0980715
0.0567367
0.0415412
0.028018
0.0221155
0.0184044
0.0170071
0.0166066
0.0169627
0.0179028
0.304448
0.0951014
0.0566304
0.0414503
0.0285969
0.0225593
0.0188598
0.0174434
0.0170446
0.0174396
0.0184217
0.3144
0.0933192
0.0568241
0.0417662
0.0293753
0.0231238
0.0193589
0.0178596
0.0174012
0.0177642
0.0187843
0.324596
0.0931619
0.0573859
0.0424812
0.0304142
0.02384
0.0199295
0.018273
0.0176909
0.0179436
0.0188981
0.333449
0.0957321
0.058642
0.0436139
0.0318683
0.0248244
0.0206822
0.0187535
0.0179785
0.0180438
0.0188201
0.341045
0.0996985
0.060362
0.0450394
0.0336807
0.0261339
0.0216846
0.0193745
0.0183294
0.0181347
0.0186429
0.347551
0.105186
0.0627067
0.0468215
0.0358421
0.0278594
0.0230175
0.0202314
0.01882
0.0182908
0.0184581
0.353104
0.112527
0.0659486
0.049078
0.0383724
0.0300937
0.0247964
0.0214601
0.0195741
0.018628
0.0183872
0.357797
0.121521
0.0703273
0.0519488
0.0412977
0.0328953
0.0271499
0.0232339
0.020778
0.0193267
0.0186112
0.361752
0.132166
0.0761943
0.0556866
0.0447193
0.0363144
0.0302083
0.0257555
0.022688
0.0206568
0.0194035
0.365158
0.144607
0.0841072
0.0607499
0.0488942
0.0404335
0.0340931
0.029231
0.0256106
0.0229932
0.0211663
0.368294
0.158858
0.0946443
0.0678488
0.054331
0.0454596
0.0389156
0.0338086
0.0298126
0.0267364
0.0244243
0.371832
0.174266
0.108173
0.0778759
0.0618808
0.0518747
0.0448243
0.0394697
0.0352682
0.0319632
0.0294121
0.37602
0.192515
0.126165
0.0924857
0.0731952
0.0609196
0.0524707
0.0463301
0.0417264
0.0382358
0.0355816
0.394716
0.218225
0.164836
0.13598
0.116954
0.102226
0.0937189
0.0904904
0.0902458
0.0910697
0.0908953
0.798693
1.33421
0.96316
0.717646
0.492498
0.323983
0.218788
0.15986
0.127667
0.109852
0.0992591
0.71987
1.07529
0.940421
0.757513
0.561222
0.376565
0.243067
0.170456
0.132592
0.113396
0.103235
0.577988
0.817646
0.85156
0.74757
0.594756
0.426198
0.281437
0.186196
0.13781
0.115785
0.106217
0.411211
0.657411
0.751186
0.712635
0.604802
0.461259
0.318952
0.210948
0.147569
0.117273
0.107245
0.259937
0.54713
0.66145
0.669399
0.602102
0.485868
0.353871
0.240045
0.163137
0.122046
0.107003
0.151558
0.463425
0.588568
0.624639
0.590126
0.501376
0.384706
0.271535
0.184561
0.131472
0.107847
0.11756
0.414941
0.542087
0.585926
0.572159
0.507437
0.408755
0.301886
0.209849
0.145954
0.111728
0.112977
0.384039
0.519296
0.559902
0.553915
0.505623
0.423993
0.327287
0.235512
0.164088
0.119334
0.0972227
0.319221
0.484746
0.539271
0.537628
0.498313
0.430321
0.345232
0.258046
0.18329
0.129982
0.0778461
0.240886
0.414152
0.505804
0.518133
0.485711
0.428171
0.354527
0.27476
0.200637
0.141839
0.0641961
0.185362
0.32828
0.448317
0.486664
0.465266
0.417326
0.354564
0.283744
0.213407
0.152324
0.0552284
0.148654
0.246876
0.371155
0.439503
0.434816
0.397504
0.345349
0.284069
0.219534
0.159099
0.0481533
0.125251
0.192815
0.289125
0.378879
0.394238
0.369086
0.327611
0.275883
0.218142
0.160324
0.0415515
0.106358
0.155039
0.22456
0.306848
0.345262
0.332948
0.3023
0.259865
0.209226
0.155334
0.0354688
0.0907343
0.126048
0.177204
0.240571
0.288632
0.29084
0.270757
0.237272
0.193807
0.145107
0.0303321
0.0775287
0.103843
0.141595
0.187781
0.231173
0.245626
0.235524
0.210845
0.174905
0.132283
0.0259957
0.0667114
0.0865016
0.114379
0.147169
0.181276
0.201534
0.201036
0.185513
0.157746
0.121331
0.0227392
0.0583317
0.0730673
0.0938694
0.117012
0.14295
0.165203
0.174125
0.168915
0.150103
0.119377
0.0204884
0.0521412
0.0631987
0.0794193
0.0967289
0.118267
0.143183
0.161526
0.167045
0.157305
0.130299
0.0202579
0.050584
0.0585911
0.0723963
0.0871164
0.107569
0.13479
0.157121
0.167987
0.165959
0.145343
0.0249925
0.0526156
0.0584823
0.0702281
0.0833998
0.10473
0.128765
0.145589
0.154594
0.158282
0.15156
0.0296485
0.0538559
0.0566228
0.0677946
0.0835723
0.104974
0.125049
0.139359
0.148819
0.155273
0.156348
0.028917
0.0449863
0.0537336
0.0723269
0.0992339
0.125224
0.143343
0.153354
0.156865
0.157119
0.155701
0.049385
0.0665509
0.0959277
0.126703
0.150617
0.165707
0.171334
0.16945
0.163836
0.157816
0.152314
0.817989
1.11129
0.926846
0.662374
0.445935
0.298777
0.20815
0.155006
0.124296
0.106291
0.0948201
0.585355
0.903887
0.824939
0.650279
0.465075
0.319672
0.221916
0.161639
0.126083
0.105315
0.0926068
0.495996
0.797256
0.774306
0.665332
0.506025
0.357018
0.246498
0.174529
0.131153
0.106056
0.0915685
0.424943
0.681375
0.701939
0.659709
0.544714
0.404455
0.282497
0.195362
0.140408
0.108399
0.0907094
0.366213
0.579672
0.628336
0.623827
0.560574
0.456916
0.337798
0.234582
0.161316
0.116194
0.0914516
0.311524
0.488614
0.557907
0.577321
0.548188
0.480225
0.386338
0.286616
0.200381
0.137291
0.098092
0.256725
0.403051
0.485669
0.523224
0.522777
0.487101
0.418373
0.328546
0.237809
0.162407
0.109539
0.203363
0.32207
0.410885
0.461729
0.484836
0.478559
0.437186
0.363949
0.276154
0.193408
0.128083
0.155605
0.249641
0.336317
0.395566
0.43671
0.45568
0.441571
0.389437
0.311437
0.227886
0.154617
0.116549
0.192702
0.270506
0.331382
0.382997
0.421339
0.432108
0.40283
0.339284
0.260303
0.183458
0.0887025
0.152744
0.219424
0.278012
0.333089
0.381477
0.410767
0.404135
0.357234
0.286925
0.213255
0.0718671
0.128734
0.185129
0.239463
0.293283
0.344736
0.383764
0.393569
0.364454
0.305712
0.236867
0.0634853
0.116998
0.165288
0.214923
0.265084
0.315064
0.357307
0.3767
0.36059
0.313658
0.253879
0.0601921
0.113011
0.155457
0.200672
0.246249
0.2923
0.333618
0.357596
0.350356
0.31235
0.259964
0.0594545
0.113394
0.151656
0.192739
0.23331
0.274137
0.312101
0.337444
0.336385
0.30527
0.258153
0.0598038
0.115553
0.150845
0.187863
0.223048
0.257755
0.290854
0.315626
0.319406
0.294416
0.251885
0.0605273
0.118106
0.151437
0.184435
0.213916
0.241744
0.268745
0.291473
0.299295
0.28079
0.242832
0.0614533
0.120779
0.153179
0.182455
0.206204
0.22665
0.246456
0.265594
0.276313
0.264682
0.232914
0.062733
0.123763
0.156247
0.182364
0.200797
0.213884
0.225777
0.239646
0.251095
0.246139
0.220605
0.0643551
0.126728
0.160109
0.183968
0.19814
0.204706
0.208748
0.216024
0.225371
0.225067
0.206015
0.0656348
0.128261
0.163379
0.186373
0.198026
0.199805
0.197058
0.197291
0.202178
0.203081
0.19058
0.0670868
0.128692
0.165083
0.188353
0.199207
0.198366
0.190867
0.184784
0.183986
0.183133
0.174638
0.0635989
0.120718
0.161619
0.186782
0.198095
0.196994
0.187812
0.177788
0.171891
0.168031
0.161281
0.0791693
0.13818
0.170409
0.186213
0.193285
0.191837
0.183829
0.173659
0.165377
0.159257
0.153301
0.10033
0.112663
0.122694
0.127711
0.124454
0.125876
0.125172
0.121594
0.113233
0.144486
0.169968
0.189226
0.203809
0.212047
0.202677
0.18852
0.172393
0.152383
0.157322
0.172689
0.189018
0.204664
0.213976
0.205448
0.190415
0.172502
0.155846
0.147915
0.158635
0.169955
0.180758
0.187387
0.178953
0.166962
0.154466
0.143982
0.0820204
0.0532914
0.0222631
0.0166802
0.0152027
0.0156081
0.0469476
0.0806889
0.100985
0.113709
0.0828224
0.0510923
0.0260786
0.0260568
0.0402274
0.0684246
0.0973948
0.125771
0.135965
0.105515
0.0665131
0.0330963
0.0332133
0.0526863
0.0854987
0.115543
0.138267
0.134335
0.111418
0.0758681
0.0397862
0.0393372
0.0603162
0.0917686
0.116751
0.132185
0.00442722
0.0046008
0.00461604
0.0109975
0.0458107
0.00438582
0.0114454
0.00454442
0.00437945
0.00425071
0.0453699
0.0045554
0.00372842
0.00331855
0.00448379
0.00430314
0.00324002
0.0113403
0.0042925
0.00424718
0.00411417
0.00482437
0.00466658
0.0121649
0.00449294
0.00332725
0.00377834
0.0111084
0.0791537
0.0471749
0.00329227
0.00410706
0.00304681
0.00453513
0.00427198
0.00459208
0.0113832
0.0044882
0.00291874
0.00439312
0.00657199
0.00454444
0.00576086
0.00465971
0.0608694
0.0119533
0.00356333
0.0185549
0.00429592
0.00433761
0.0461647
0.00439819
0.00564556
0.00601497
0.0043306
0.00412071
0.00464929
0.00440381
0.0808043
0.00605633
0.00517827
0.00516485
0.0523365
0.0100005
0.00805004
0.00425888
0.0428333
0.00430708
0.0046014
0.00424223
0.00329113
0.00433707
0.00552578
0.00468758
0.040647
0.00429506
0.0041985
0.0045978
0.00952254
0.073178
0.0334139
0.00794555
0.00449518
0.00462602
0.00437639
0.00585565
0.0951971
0.00432356
0.00327817
0.00996149
0.00454319
0.00441352
0.00727478
0.00441129
0.0722155
0.0276994
0.0236985
0.0039618
0.00363121
0.00441575
0.00469181
0.0190242
0.00417334
0.00402226
0.00311365
0.00455284
0.00300258
0.00464662
0.00360664
0.00418499
0.00450651
0.00455961
0.00431784
0.0054351
0.010441
0.00442393
0.00438228
0.00431666
0.0044952
0.00414225
0.00439183
0.00459195
0.00539185
0.00323434
0.0111702
0.00411091
0.0742572
0.00300306
0.00309846
0.00326062
0.00445085
0.0063935
0.0183678
0.00430322
0.00461452
0.00456146
0.00409354
0.0053135
0.0481007
0.00446131
0.00510568
0.00411719
0.0248388
0.00402455
0.00437518
0.00325705
0.00445355
0.00430305
0.00432859
0.00424033
0.00427438
0.00441733
0.00351661
0.00458089
0.00777025
0.00354537
0.00866923
0.00369688
0.00319723
0.00436104
0.00363607
0.00444549
0.00432781
0.00443304
0.0468151
0.00439096
0.00365648
0.00430418
0.00420639
0.00792492
0.00319194
0.00306516
0.00449747
0.004058
0.00409638
0.0039624
0.0032407
0.00353365
0.0616764
0.00392849
0.00429482
0.00480954
0.00465919
0.012569
0.00449977
0.00679811
0.00424839
0.00430143
0.00458784
0.0127903
0.00354366
0.00341501
0.00427257
0.00647062
0.00460939
0.00440134
0.00435858
0.00372171
0.00330293
0.00467918
0.00320928
0.00433456
0.00357901
0.00339045
0.00462743
0.00435353
0.0043938
0.00309187
0.00435017
0.00433912
0.0112379
0.00439478
0.00401356
0.00423005
0.00448979
0.00734033
0.00450993
0.00425693
0.00427181
0.00318852
0.00273724
0.00520505
0.0278116
0.0106149
0.00319274
0.00440851
0.00908222
0.00421517
0.00343468
0.0240587
0.0038705
0.00425645
0.00426634
0.00457538
0.00345755
0.0747625
0.0339337
0.00464579
0.00456008
0.00454743
0.00430925
0.0254043
0.00401318
0.00588394
0.00473225
0.00474486
0.00451699
0.00350896
0.0306621
0.064767
0.00349592
0.0112809
0.00514226
0.00429832
0.00395541
0.00436541
0.00413976
0.00447431
0.00313393
0.00424148
0.00347304
0.00454127
0.00432661
0.00457411
0.00450459
0.00322239
0.00411876
0.00465469
0.00558982
0.00371946
0.0203401
0.00431864
0.00432741
0.00338367
0.00438986
0.00432926
0.00329467
0.00444652
0.00427658
0.00347097
0.00438258
0.00460159
0.0328599
0.0304969
0.00395555
0.00439761
0.0842362
0.00459032
0.00425003
0.00439086
0.00461876
0.0115904
0.00438701
0.00290469
0.00467869
0.00435742
0.00418247
0.00456441
0.00427032
0.00333248
0.004444
0.0029836
0.00437491
0.0477871
0.00415036
0.00418602
0.00459886
0.0109805
0.00471209
0.00435381
0.00752906
0.00456607
0.00409937
0.00307058
0.00478392
0.00410611
0.00368808
0.00346062
0.00413041
0.00456267
0.0042461
0.0265811
0.00435744
0.0033856
0.00610739
0.00421072
0.00445132
0.00370069
0.00424036
0.0528113
0.00432825
0.0530368
0.00385561
0.00465011
0.0035583
0.0403028
0.00847046
0.00458666
0.00447234
0.00395239
0.00405265
0.0109659
0.00432446
0.00453261
0.0187957
0.0109203
0.00913044
0.00437891
0.0107895
0.0810042
0.00869095
0.00390986
0.003737
0.0041671
0.00392451
0.00468917
0.00270981
0.0039976
0.00466082
0.0623756
0.00385867
0.00334568
0.00451769
0.00451147
0.0043146
0.0033762
0.00305385
0.00295128
0.0106289
0.00486228
0.00444014
0.0118636
0.0354613
0.00326657
0.00390096
0.00461016
0.00391542
0.00425638
0.0043781
0.00424749
0.0223719
0.00438725
0.00313255
0.00441493
0.00340487
0.04345
0.00314614
0.00317583
0.0265891
0.0034487
0.00442731
0.00534108
0.00306356
0.00467943
0.0414455
0.00807676
0.00447741
0.00428468
0.00462333
0.00882326
0.00311399
0.00441089
0.00466178
0.00422931
0.00298195
0.00698206
0.00791092
0.0048876
0.0043312
0.0271189
0.00424428
0.00427795
0.00347109
0.00343119
0.00426235
0.00407925
0.00355964
0.00486852
0.00322005
0.00479204
0.0308201
0.00328115
0.0125015
0.00350442
0.0039834
0.00416723
0.00464456
0.00474674
0.00478593
0.00912452
0.00448503
0.00313714
0.00342189
0.00410517
0.0043009
0.00258374
0.0212387
0.045755
0.00324575
0.00468851
0.00395757
0.0943908
0.018992
0.00309779
0.00419086
0.00283981
0.00529405
0.00357641
0.00434487
0.00387216
0.00443861
0.00461306
0.00449832
0.00414027
0.00445336
0.0112546
0.00319632
0.00322002
0.00495712
0.00458976
0.00434015
0.0770673
0.0032469
0.00394728
0.00422665
0.0079621
0.00760127
0.00545505
0.00546768
0.00433227
0.00393341
0.00357339
0.00421526
0.00512658
0.00420989
0.00458659
0.00432786
0.00557864
0.00351496
0.00425566
0.00445092
0.00412946
0.0191378
0.0046858
0.00464784
0.00332131
0.0317871
0.00404693
0.00262724
0.00434084
0.00346727
0.00439932
0.0042075
0.00440434
0.00316595
0.00326295
0.00426272
0.00339044
0.00400102
0.00463809
0.00373846
0.00368974
0.00453795
0.00453386
0.0370718
0.00253727
0.00380132
0.00432805
0.0176023
0.00461933
0.0272948
0.00433937
0.00348685
0.0041156
0.00473099
0.03594
0.00716446
0.0033798
0.00445187
0.00359991
0.0041205
0.00459983
0.00442712
0.00457215
0.00418298
0.0211195
0.00451439
0.00435462
0.0107113
0.00443605
0.00938877
0.00421344
0.00908814
0.00331082
0.00326782
0.0046787
0.0044762
0.00463691
0.0063822
0.00356825
0.00450105
0.00448873
0.00322496
0.00461774
0.0170149
0.00460783
0.0413223
0.00423494
0.00393911
0.00290258
0.00340883
0.0129742
0.0288618
0.00415956
0.0041152
0.00431448
0.0046074
0.00257456
0.00340063
0.00423529
0.00336991
0.031181
0.0316195
0.00449155
0.00434237
0.00459858
0.00549295
0.0373794
0.0041787
0.00454241
0.00437632
0.0305724
0.00432881
0.00303522
0.00313932
0.00569061
0.0322904
0.00443057
0.00456458
0.00446368
0.00693694
0.00434357
0.0374343
0.00326332
0.0040974
0.00496612
0.00505818
0.00463961
0.00467386
0.0712627
0.00440926
0.00353707
0.00997465
0.00786134
0.00606447
0.0040235
0.00359884
0.00422304
0.00443627
0.00448877
0.0253903
0.00310088
0.00391971
0.00424969
0.00450057
0.00651612
0.00423273
0.00451741
0.00421706
0.00430876
0.00318622
0.00321455
0.00763679
0.00567219
0.00401487
0.00518364
0.00429117
0.00749113
0.00428411
0.00445257
0.0302241
0.0151031
0.00438323
0.00439145
0.00409076
0.00416143
0.00433421
0.00564957
0.00460786
0.00418201
0.00327638
0.00290281
0.00381802
0.0032683
0.00324918
0.00540512
0.0170998
0.00495402
0.00541084
0.00353307
0.00352391
0.00796396
0.00348833
0.00462126
0.00416558
0.00608674
0.0039394
0.00420864
0.00438444
0.00342988
0.00527479
0.0302946
0.00360444
0.00517654
0.00442436
0.00521049
0.00455003
0.00429475
0.00426678
0.00339862
0.00426023
0.00434247
0.00418441
0.00459339
0.0158523
0.00611668
0.0229749
0.0042865
0.00422223
0.00399023
0.0032167
0.00450835
0.0156614
0.00431204
0.0425566
0.0309467
0.00442938
0.00252742
0.00465974
0.00306146
0.0105054
0.0031603
0.0262911
0.00364379
0.00427372
0.00463639
0.00368766
0.00325255
0.00409604
0.0719632
0.00437084
0.00408367
0.00463255
0.00374248
0.00419522
0.00318052
0.00455664
0.0044027
0.00440612
0.00379757
0.00536556
0.00456228
0.00340327
0.00437455
0.00411386
0.0032091
0.00408006
0.00999086
0.00543203
0.00284691
0.00407799
0.00372794
0.00360031
0.00584314
0.00311203
0.0117635
0.00446793
0.00335462
0.00448899
0.00431335
0.0070268
0.00453859
0.00350039
0.0033157
0.00432822
0.00418237
0.00413435
0.00514516
0.00458439
0.0560538
0.00372991
0.0427235
0.00415163
0.00397467
0.00508083
0.00641486
0.00454287
0.00346108
0.00361543
0.0031871
0.00452503
0.00335106
0.0302348
0.00454951
0.00945548
0.0035787
0.00480717
0.0418393
0.00438356
0.00420525
0.00421768
0.00342998
0.00439649
0.00326135
0.0045727
0.00306254
0.00431688
0.00291588
0.00255185
0.0131669
0.00356519
0.00428943
0.0189401
0.0127204
0.00446226
0.00328051
0.00385199
0.0034711
0.00514433
0.00373699
0.00432315
0.0102697
0.00290916
0.00497865
0.00428562
0.00436719
0.00441443
0.0102155
0.00371814
0.00469046
0.00448404
0.00455971
0.032462
0.022396
0.00358775
0.00457728
0.00336209
0.00449406
0.00455608
0.00457829
0.00462592
0.00447926
0.00459707
0.00323487
0.00511945
0.0101774
0.00304987
0.00435806
0.00443003
0.00449614
0.00376478
0.0193838
0.00459577
0.00410042
0.00352368
0.0170974
0.0114233
0.00471495
0.00391799
0.0105034
0.00443345
0.00446163
0.0108469
0.0042185
0.00456599
0.00440601
0.00638824
0.00399553
0.00389916
0.00455634
0.00409158
0.00650871
0.00603954
0.00456437
0.00304255
0.00302245
0.00548508
0.0104572
0.00464027
0.00427886
0.0118335
0.00307309
0.00332547
0.00460069
0.00418345
0.00472231
0.00434005
0.00459208
0.0122749
0.0034408
0.00902038
0.0151721
0.00396898
0.00454776
0.0500587
0.00466968
0.00430667
0.00541063
0.00448513
0.00441703
0.00441646
0.00323029
0.00522034
0.00362686
0.00441416
0.0105954
0.00442528
0.00468792
0.00434426
0.00438785
0.00439207
0.00449423
0.00455976
0.00435014
0.0680477
0.00438164
0.00425518
0.00445068
0.0181258
0.0042698
0.00450627
0.00608899
0.0633046
0.00422427
0.00449707
0.00296898
0.0102088
0.00465179
0.00454035
0.00420988
0.00400708
0.00298607
0.00459988
0.0105531
0.00291982
0.0168204
0.00296476
0.00457909
0.00326479
0.00564091
0.00444173
0.00455958
0.00434766
0.0046083
0.00395001
0.00990572
0.00421494
0.00474295
0.0481547
0.00377555
0.00393822
0.0056006
0.0046637
0.00455866
0.00321834
0.00287259
0.00329862
0.00439887
0.0267201
0.00431582
0.00331101
0.00431211
0.00324986
0.00310407
0.0035672
0.00345719
0.00420047
0.00452783
0.0532053
0.00451407
0.0776931
0.00421219
0.00303049
0.00427763
0.00420987
0.0684966
0.00438204
0.00460418
0.00351738
0.00893699
0.0119743
0.00356182
0.00314779
0.00333987
0.00689173
0.0387798
0.00451949
0.00431013
0.0808862
0.00439956
0.0054108
0.00449311
0.00843399
0.00297863
0.00464034
0.00460391
0.00342819
0.00464678
0.00440704
0.00356473
0.0086641
0.0042555
0.00445943
0.00434215
0.00455522
0.00457351
0.00459519
0.00455074
0.00418729
0.00702719
0.00398049
0.00389562
0.00460996
0.0056834
0.00301329
0.00460148
0.00461305
0.00408671
0.00728792
0.0403909
0.00397062
0.00341254
0.00410084
0.00434859
0.00311519
0.00374871
0.00422742
0.00629877
0.0045549
0.0710944
0.00644629
0.0252835
0.00455301
0.00460339
0.00940304
0.0469719
0.0034214
0.00311253
0.00467581
0.00301704
0.0218499
0.00456193
0.00402738
0.0199076
0.00419411
0.0191581
0.00362081
0.00445132
0.00432774
0.00416728
0.00420234
0.00724134
0.00277584
0.00914436
0.0381673
0.00460196
0.00305139
0.00392658
0.00516022
0.00839211
0.00289127
0.00439347
0.00406043
0.00326742
0.00454415
0.00466416
0.0046785
0.0368285
0.00413447
0.00461191
0.00370443
0.00320877
0.00328258
0.00452267
0.0083174
0.00414362
0.00407647
0.00393788
0.00455575
0.0043154
0.00446889
0.0143375
0.00427807
0.00474533
0.0039977
0.00360792
0.00450495
0.00417698
0.00450321
0.00437811
0.00426773
0.0542828
0.00450729
0.0560329
0.00959594
0.04013
0.00420774
0.00443727
0.00297967
0.0046284
0.00328648
0.00533305
0.00430066
0.00505444
0.00387688
0.0549158
0.00418239
0.00316274
0.00454975
0.049214
0.00469582
0.0360787
0.00410853
0.00477654
0.00491553
0.00710974
0.00418249
0.00485424
0.00310509
0.00447861
0.0114162
0.00558491
0.024735
0.00324881
0.00432361
0.01264
0.00411363
0.00461225
0.0037184
0.00473389
0.00343958
0.00332258
0.00581986
0.00390355
0.0033538
0.054944
0.00437631
0.00430018
0.00424696
0.00457273
0.00286047
0.00339874
0.00425441
0.00332955
0.0401554
0.00434897
0.0566443
0.00749518
0.0044827
0.00542214
0.00385902
0.0034017
0.0031528
0.0179462
0.00442386
0.00452607
0.039288
0.00437527
0.00458725
0.00355297
0.00454353
0.00453324
0.0559794
0.0046065
0.0320607
0.00395829
0.0088992
0.00428652
0.00429963
0.00524202
0.00325786
0.0125346
0.00444577
0.00279552
0.00976107
0.00307668
0.0025403
0.00527994
0.00411472
0.00424048
0.0162578
0.00899662
0.00406422
0.00431916
0.00345532
0.00380834
0.00456027
0.00371874
0.0400007
0.00425637
0.00468941
0.00450577
0.00406227
0.00288243
0.00327595
0.00334494
0.0774903
0.00473216
0.00587657
0.00555639
0.00457712
0.00385813
0.00424446
0.0042207
0.0710473
0.00458778
0.0188299
0.0246965
0.00456387
0.00449458
0.00469341
0.0334326
0.0185558
0.0214644
0.0033502
0.00456828
0.00427979
0.00327301
0.0363808
0.0064643
0.00304764
0.00434299
0.00615267
0.00512673
0.00800781
0.0041622
0.0114514
0.0286514
0.0040512
0.00382439
0.00430452
0.00437213
0.0320967
0.00326111
0.00365291
0.00460001
0.00465803
0.00411048
0.0492233
0.0103108
0.00297206
0.0113269
0.00480165
0.00437588
0.0143076
0.00879806
0.00462061
0.00300114
0.00322089
0.00412296
0.0500563
0.00453416
0.00442567
0.00426788
0.00566867
0.00306873
0.00435645
0.00736274
0.00461378
0.00455932
0.00468819
0.00327454
0.00442873
0.00502726
0.00423526
0.00455769
0.0473064
0.00428144
0.00342311
0.00348618
0.00439805
0.00350761
0.00537145
0.00452333
0.00456447
0.00448221
0.00303667
0.00449619
0.00427983
0.00441953
0.00369746
0.0075013
0.00318244
0.00273447
0.00429764
0.00841882
0.0042135
0.00467578
0.00424702
0.00458656
0.00322453
0.00414017
0.00329378
0.0041232
0.00420841
0.00450242
0.00452299
0.0270317
0.00546784
0.0100841
0.00468828
0.00263441
0.0798325
0.00320466
0.00298923
0.00439797
0.00548822
0.00623515
0.00548821
0.00316512
0.0040262
0.00371135
0.00311063
0.00450141
0.0684841
0.00305737
0.00415032
0.00444963
0.00445263
0.00360222
0.00308383
0.00810313
0.00301114
0.0562637
0.0311533
0.00448569
0.0042917
0.00510002
0.0546206
0.00401412
0.00454964
0.00425727
0.00462874
0.00446544
0.00477724
0.00440239
0.00465012
0.0131929
0.00332966