/*--------------------------------*- C++ -*----------------------------------*\
| =========                 |                                                 |
| \\      /  F ield         | OpenFOAM: The Open Source CFD Toolbox           |
|  \\    /   O peration     | Version:  3.0.1                                 |
|   \\  /    A nd           | Web:      www.OpenFOAM.org                      |
|    \\/     M anipulation  |                                                 |
\*---------------------------------------------------------------------------*/
FoamFile
{
    version     2.0;
    format      ascii;
    class       volVectorField;
    location    "0.511763";
    object      U;
}
// * * * * * * * * * * * * * * * * * * * * * * * * * * * * * * * * * * * * * //

dimensions      [0 1 -1 0 0 0 0];

internalField   nonuniform List<vector> 
21246
(
(7.60797 -4.35271 -4.6327e-19)
(6.47172 -3.78663 7.30251e-20)
(6.07481 -3.01301 -9.34146e-20)
(5.74866 -2.40791 3.13487e-21)
(5.41496 -1.92769 0)
(5.09256 -1.56239 2.22156e-20)
(4.79455 -1.2852 -3.74121e-20)
(4.52058 -1.06999 2.86527e-20)
(4.27417 -0.899166 7.40705e-21)
(4.05285 -0.762272 -5.57986e-21)
(3.85498 -0.66437 0)
(3.95771 -5.1257 8.92819e-20)
(4.26487 -4.67967 0)
(4.60209 -3.99906 0)
(4.76913 -3.32009 1.58527e-19)
(4.77213 -2.71867 0)
(4.66398 -2.21718 -8.40311e-20)
(4.49841 -1.80849 0)
(4.30726 -1.48491 -2.99087e-20)
(4.11251 -1.22984 -6.74537e-20)
(3.9256 -1.02938 0)
(3.75137 -0.881806 0)
(1.92674 -4.40332 -9.49244e-18)
(2.73146 -4.41178 5.27736e-19)
(3.25525 -4.15732 4.96242e-18)
(3.67692 -3.71299 2.19916e-19)
(3.9389 -3.20163 4.81097e-19)
(4.05731 -2.6972 4.34723e-19)
(4.06226 -2.24098 1.39468e-18)
(3.99254 -1.85207 -1.0475e-18)
(3.88194 -1.53243 6.75375e-20)
(3.75502 -1.275 2.33178e-19)
(3.62325 -1.07848 0)
(1.04096 -3.53965 5.15254e-19)
(1.65985 -3.71596 6.14783e-18)
(2.22145 -3.80819 -5.07155e-18)
(2.73177 -3.65423 -3.32518e-18)
(3.12322 -3.32972 1.75657e-18)
(3.39194 -2.92915 -3.00584e-18)
(3.54351 -2.51412 3.29357e-18)
(3.60107 -2.12358 -1.3244e-18)
(3.59098 -1.77918 4.30458e-19)
(3.53471 -1.48965 -2.31357e-19)
(3.44815 -1.25939 0)
(0.809677 -3.08692 -5.04851e-18)
(1.19567 -3.18985 -3.476e-18)
(1.50041 -3.30487 -2.02195e-18)
(1.92509 -3.32223 6.15117e-18)
(2.35771 -3.20597 -3.40377e-18)
(2.71573 -2.95529 3.75372e-18)
(2.96943 -2.62731 -1.73821e-18)
(3.12557 -2.27617 -2.06019e-18)
(3.20642 -1.93744 1.42834e-18)
(3.2358 -1.63078 -6.38953e-19)
(3.22262 -1.37394 0)
(0.755679 -2.7257 -3.22192e-18)
(1.04505 -2.78905 3.11505e-18)
(1.22959 -2.89927 0)
(1.52192 -2.93747 0)
(1.84568 -2.89173 2.12126e-18)
(2.17097 -2.74869 -8.65568e-19)
(2.45932 -2.52694 -2.25329e-18)
(2.68618 -2.25625 2.1459e-18)
(2.84538 -1.96779 -2.00876e-18)
(2.94337 -1.68905 6.98298e-19)
(2.98558 -1.44653 -8.89823e-19)
(0.715084 -2.4225 7.35606e-19)
(0.947688 -2.43859 0)
(1.07899 -2.52787 -8.33985e-19)
(1.30308 -2.56956 0)
(1.55901 -2.55838 1.02458e-18)
(1.832 -2.47796 1.4693e-18)
(2.09665 -2.33094 -4.2592e-20)
(2.33007 -2.13266 0)
(2.51874 -1.90426 9.82438e-19)
(2.65732 -1.66868 6.62927e-19)
(2.74006 -1.45008 8.20227e-19)
(0.674143 -2.16999 0)
(0.875379 -2.14752 0)
(0.981691 -2.21015 1.59296e-18)
(1.16051 -2.24332 -1.19863e-18)
(1.36675 -2.24172 -9.0265e-19)
(1.59448 -2.1936 1.37911e-18)
(1.82823 -2.09652 -1.05092e-18)
(2.05074 -1.95598 -1.4213e-18)
(2.24821 -1.78324 8.36979e-20)
(2.40963 -1.59527 -6.35197e-19)
(2.51889 -1.41659 9.55188e-19)
(0.643259 -1.948 -1.14099e-18)
(0.82482 -1.90054 0)
(0.914216 -1.94205 1.39741e-18)
(1.06479 -1.96473 -5.30618e-19)
(1.23725 -1.96324 8.71481e-19)
(1.43026 -1.92972 0)
(1.63473 -1.86162 9.39825e-19)
(1.83895 -1.76021 -6.83887e-19)
(2.03188 -1.63015 -9.50816e-19)
(2.20177 -1.48147 7.08315e-19)
(2.32905 -1.33379 -9.21043e-19)
(0.630893 -1.75507 0)
(0.795835 -1.68501 8.18852e-19)
(0.868404 -1.71033 -1.35777e-20)
(0.998046 -1.72389 -1.48174e-18)
(1.14612 -1.71962 7.77635e-19)
(1.31326 -1.69221 0)
(1.49374 -1.64011 -9.07642e-19)
(1.67956 -1.5633 -6.39359e-19)
(1.86255 -1.4629 9.078e-19)
(2.03214 -1.34347 -4.58628e-20)
(2.16693 -1.217 -4.67979e-19)
(0.629302 -1.59923 -9.58833e-19)
(0.775076 -1.50062 -7.96275e-21)
(0.834673 -1.50877 -2.30659e-21)
(0.948886 -1.5124 9.06718e-19)
(1.07903 -1.50331 3.48226e-19)
(1.22711 -1.47743 -1.12638e-20)
(1.38909 -1.43396 1.2713e-18)
(1.55921 -1.37269 6.31217e-19)
(1.73163 -1.29341 -2.2976e-20)
(1.89719 -1.19859 0)
(2.02988 -1.10042 -4.16852e-19)
(0.620571 -1.46223 4.44246e-19)
(0.74564 -1.33666 0)
(0.802363 -1.32871 0)
(0.908311 -1.32232 -2.19588e-19)
(1.02691 -1.30728 -3.50709e-19)
(1.16191 -1.28027 -1.02794e-18)
(1.3105 -1.24112 1.13827e-18)
(1.46847 -1.18978 5.71071e-19)
(1.63165 -1.12562 -4.21932e-19)
(1.79266 -1.04941 0)
(1.92672 -0.969059 0)
(0.608561 -1.323 0)
(0.716203 -1.17854 0)
(0.772824 -1.15923 -5.06862e-19)
(0.873391 -1.14505 6.00336e-19)
(0.984527 -1.12461 -3.16543e-19)
(1.11108 -1.09551 -4.66835e-19)
(1.25085 -1.0583 -7.76757e-21)
(1.40055 -1.01335 -2.71576e-19)
(1.55712 -0.95982 -4.65151e-19)
(1.71518 -0.896427 6.76174e-19)
(1.85156 -0.824812 -1.97368e-19)
(0.602442 -1.19549 0)
(0.695561 -1.02867 3.72486e-20)
(0.748855 -0.997466 0)
(0.843882 -0.975761 -1.84154e-19)
(0.949608 -0.95006 1.43654e-19)
(1.07098 -0.918444 0)
(1.20559 -0.882049 0)
(1.35038 -0.841702 2.38463e-19)
(1.50252 -0.796674 -8.89899e-20)
(1.65761 -0.744812 -3.73669e-19)
(1.79011 -0.687074 9.13647e-20)
(0.591853 -1.07813 9.08396e-20)
(0.668127 -0.885285 -1.77687e-19)
(0.72383 -0.840708 -2.22611e-19)
(0.817612 -0.810854 2.17729e-21)
(0.921368 -0.779634 1.34015e-19)
(1.04081 -0.745248 9.98325e-20)
(1.17355 -0.709303 -7.66907e-20)
(1.31647 -0.673131 1.58309e-19)
(1.46646 -0.636126 4.1354e-20)
(1.62008 -0.595299 1.48222e-19)
(1.75363 -0.547998 -2.09842e-20)
(0.582009 -0.951777 -2.64e-19)
(0.640227 -0.737379 1.41684e-19)
(0.701277 -0.682236 0)
(0.795685 -0.645429 0)
(0.899939 -0.609107 -2.35733e-19)
(1.02041 -0.572256 0)
(1.15441 -0.537242 2.62679e-19)
(1.29829 -0.505942 -5.9771e-19)
(1.44802 -0.47774 -2.78387e-19)
(1.60099 -0.448661 2.95068e-19)
(1.73416 -0.412647 7.63674e-20)
(0.579732 -0.826062 1.75789e-19)
(0.620898 -0.587587 2.64821e-19)
(0.685632 -0.520995 -1.25217e-20)
(0.780192 -0.476599 0)
(0.886587 -0.434978 2.3874e-19)
(1.01088 -0.396137 0)
(1.14916 -0.363412 -7.33814e-19)
(1.29647 -0.339 5.65941e-19)
(1.44699 -0.321758 -6.08248e-19)
(1.59882 -0.306379 -1.99254e-20)
(1.72935 -0.283299 1.26052e-19)
(0.577444 -0.703409 0)
(0.599978 -0.43819 -2.36088e-20)
(0.673106 -0.356175 3.48435e-19)
(0.770889 -0.302 0)
(0.883014 -0.254419 1.80559e-19)
(1.01492 -0.214514 4.54705e-19)
(1.16122 -0.186578 -1.59366e-19)
(1.31365 -0.172693 0)
(1.46482 -0.169758 2.698e-19)
(1.61439 -0.170646 1.70381e-19)
(1.74079 -0.161337 -2.36285e-19)
(0.579505 -0.572043 7.68469e-20)
(0.580195 -0.280329 -3.03206e-19)
(0.666743 -0.181009 -3.62581e-19)
(0.772687 -0.115991 0)
(0.896398 -0.0634356 -3.93949e-19)
(1.04074 -0.0258878 4.68422e-19)
(1.19671 -0.0080214 4.36452e-20)
(1.35385 -0.00999249 9.63812e-21)
(1.50316 -0.0250959 2.0234e-19)
(1.64668 -0.0438554 -2.8843e-19)
(1.7681 -0.048708 2.12242e-19)
(0.591853 -0.42508 -1.45002e-19)
(0.567818 -0.107207 -2.71663e-19)
(0.674873 0.0108839 2.5719e-20)
(0.795176 0.0861813 -2.25072e-19)
(0.936671 0.139774 0)
(1.0975 0.167771 -9.01214e-19)
(1.26329 0.167224 3.1414e-19)
(1.4212 0.142702 5.88907e-20)
(1.56273 0.106329 -3.30105e-19)
(1.69268 0.0701026 4.46694e-19)
(1.80513 0.0516229 0)
(0.619211 -0.260603 2.651e-19)
(0.572289 0.0883979 5.77435e-19)
(0.709229 0.224681 -1.80461e-19)
(0.854003 0.306075 -3.18978e-19)
(1.01967 0.351363 4.06445e-19)
(1.19732 0.357415 0)
(1.36705 0.32772 0)
(1.51611 0.275 5.23385e-20)
(1.64056 0.216684 4.85737e-19)
(1.74899 0.165722 -8.40472e-20)
(1.84533 0.135737 -3.18759e-19)
(0.712762 -0.0390389 0)
(0.598201 0.31618 0)
(0.799208 0.462384 1.31784e-19)
(0.977361 0.5363 0)
(1.16744 0.554124 -1.80443e-19)
(1.352 0.52124 0)
(1.51003 0.453747 0)
(1.63479 0.37283 2.54583e-19)
(1.73069 0.297498 -4.25847e-19)
(1.81078 0.238467 -2.27728e-19)
(1.88695 0.20151 2.84057e-19)
(0.641733 0.047576 0)
(0.738349 0.529108 7.61198e-21)
(0.94728 0.687819 1.137e-19)
(1.17643 0.727835 -6.47134e-20)
(1.3821 0.695596 7.52193e-20)
(1.55104 0.615253 -2.35501e-20)
(1.67551 0.515397 -1.35064e-19)
(1.76112 0.41865 -1.36744e-19)
(1.82041 0.339596 1.28175e-19)
(1.86878 0.284469 1.39442e-20)
(1.92117 0.252288 -3.39611e-19)
(2.23974 0.933079 0)
(1.2225 1.05303 -1.00147e-20)
(1.69588 0.9431 0)
(1.77214 0.857441 8.13229e-20)
(1.83375 0.743152 -5.18396e-20)
(1.87503 0.618713 0)
(1.89788 0.504156 1.90471e-20)
(1.90611 0.409319 4.95072e-20)
(1.91035 0.341135 1.6288e-19)
(1.91922 0.301464 3.27613e-20)
(1.94278 0.284178 1.21807e-19)
(7.74583 -2.13642 -7.4604e-18)
(6.05761 -0.903712 0)
(6.40108 -1.20499 0)
(6.39699 -1.29228 0)
(5.98273 -1.1427 -2.91633e-19)
(5.49388 -0.971843 2.72149e-19)
(5.07672 -0.818114 -6.89963e-20)
(4.72264 -0.684488 -7.78912e-20)
(4.42261 -0.58215 2.61221e-20)
(4.15982 -0.499053 0)
(3.93217 -0.446278 -2.43504e-20)
(4.89534 -1.81273 0)
(4.08662 -0.44264 4.81617e-18)
(5.18589 -0.271407 -8.52075e-19)
(5.82483 -0.292686 -2.04372e-18)
(5.93276 -0.2709 -8.74543e-19)
(5.73834 -0.262837 -1.02965e-18)
(5.35091 -0.260317 5.61616e-19)
(4.90588 -0.243167 -2.17999e-19)
(4.55453 -0.222152 0)
(4.24378 -0.19842 0)
(3.97599 -0.185211 2.38884e-20)
(2.28562 -3.29212 0)
(2.97287 -1.53034 0)
(4.03611 -0.494471 0)
(4.85715 0.0161219 -1.27481e-18)
(5.35376 0.290339 3.6644e-18)
(5.53223 0.386401 -9.71386e-19)
(5.39307 0.359644 -3.95602e-19)
(5.02543 0.277408 1.38211e-18)
(4.61963 0.194946 0)
(4.28895 0.144873 -3.52253e-19)
(4.00826 0.098181 -2.90775e-20)
(1.39876 -6.52798 1.60492e-18)
(2.36718 -3.49674 -5.08917e-19)
(3.16187 -1.60173 4.7395e-19)
(3.96547 -0.397446 1.23807e-18)
(4.63307 0.35313 -1.52805e-18)
(5.05684 0.750177 -3.75681e-18)
(5.16402 0.867779 3.93582e-19)
(4.96984 0.798677 1.49592e-18)
(4.61827 0.647899 -6.00158e-19)
(4.26149 0.5155 4.37785e-19)
(3.97707 0.411328 2.75609e-19)
(1.60229 -6.54851 -5.42047e-21)
(1.86467 -5.01423 -1.55684e-18)
(2.51392 -2.84104 2.24596e-19)
(3.25267 -1.15831 0)
(3.95285 0.0456037 0)
(4.49224 0.81062 2.09896e-18)
(4.77087 1.17975 1.50181e-18)
(4.74829 1.23073 -1.41945e-18)
(4.50271 1.08633 -8.08777e-19)
(4.17821 0.896489 5.98444e-19)
(3.88387 0.725372 0)
(1.66842 -6.79662 -5.76786e-21)
(1.778 -5.8653 1.12844e-18)
(2.0889 -3.99427 -1.72685e-18)
(2.70962 -2.05794 0)
(3.36946 -0.486207 -4.20338e-19)
(3.93587 0.635936 3.12664e-19)
(4.30659 1.29702 -1.43674e-18)
(4.41347 1.53699 0)
(4.27904 1.46674 1.20702e-18)
(4.01513 1.25842 6.91289e-19)
(3.72264 1.04667 0)
(1.74575 -6.96313 1.32463e-18)
(1.83848 -6.26512 -3.0934e-18)
(1.88701 -5.11433 3.24126e-18)
(2.31267 -3.05991 1.82423e-18)
(2.88118 -1.17216 -4.48485e-19)
(3.42093 0.287794 -1.5516e-18)
(3.82225 1.24967 2.19722e-19)
(4.00861 1.71458 -1.10888e-18)
(3.9671 1.7679 -2.52224e-18)
(3.77297 1.58268 1.21652e-19)
(3.53122 1.3259 0)
(1.79122 -7.1551 6.18121e-19)
(1.90633 -6.54222 9.57551e-19)
(1.86396 -5.64575 0)
(2.05148 -3.9488 -2.39395e-18)
(2.48732 -1.92835 -8.9093e-19)
(2.95958 -0.180874 1.22936e-18)
(3.34339 1.07168 8.99393e-19)
(3.56237 1.77409 1.33767e-18)
(3.58644 1.98045 1.12041e-18)
(3.45538 1.85559 4.79871e-19)
(3.29176 1.57959 2.24774e-19)
(1.81813 -7.36304 -2.87438e-19)
(1.94204 -6.7965 -1.37566e-18)
(1.87824 -6.02221 1.43905e-18)
(1.91896 -4.72413 2.91538e-18)
(2.1857 -2.70015 -1.12638e-20)
(2.54972 -0.731046 6.29644e-19)
(2.87803 0.789612 -1.81814e-18)
(3.09019 1.72658 -6.28438e-19)
(3.15259 2.09833 8.68151e-20)
(3.07893 2.05607 -8.26977e-19)
(2.9704 1.79538 -4.50791e-19)
(1.84657 -7.56777 -2.77332e-19)
(1.97575 -7.03765 -4.37654e-19)
(1.89698 -6.32911 0)
(1.87014 -5.21718 1.71918e-18)
(1.96125 -3.39628 5.15774e-21)
(2.18667 -1.32081 -1.33032e-18)
(2.42668 0.427181 4.91052e-19)
(2.59856 1.5826 9.16446e-19)
(2.67267 2.11802 -2.24502e-19)
(2.64622 2.16816 1.10283e-19)
(2.60381 1.94019 -1.14281e-19)
(1.86843 -7.74439 0)
(1.99494 -7.26503 0)
(1.88477 -6.60489 3.40848e-19)
(1.82537 -5.59059 2.78839e-19)
(1.7926 -3.98037 -1.81137e-18)
(1.86657 -1.91023 1.35637e-18)
(1.9873 0.00239834 4.68419e-19)
(2.09028 1.34738 6.8206e-19)
(2.15423 2.03425 4.35977e-19)
(2.16725 2.17996 -4.62845e-19)
(2.17644 2.00046 4.62441e-20)
(1.85254 -7.90497 8.40001e-18)
(1.97259 -7.47823 -3.28487e-18)
(1.84819 -6.84725 -3.02922e-18)
(1.76573 -5.90748 1.87804e-18)
(1.63672 -4.49292 9.03326e-19)
(1.5715 -2.47513 0)
(1.55423 -0.464634 1.44496e-18)
(1.56827 1.02797 -2.1321e-18)
(1.60712 1.84211 -1.23632e-18)
(1.65653 2.07852 1.30121e-19)
(1.71874 1.9537 6.51561e-19)
(1.83406 -8.04243 -4.06938e-18)
(1.94296 -7.64434 -3.29238e-18)
(1.79981 -7.04641 3.88922e-18)
(1.67179 -6.17591 0)
(1.47403 -4.88657 -8.89041e-19)
(1.28054 -2.99441 1.39423e-18)
(1.12314 -0.960236 2.03588e-18)
(1.03857 0.627104 0)
(1.04593 1.53451 0)
(1.12769 1.85303 -9.34299e-19)
(1.27768 1.79358 -9.66353e-19)
(1.82091 -8.13228 -9.78452e-19)
(1.88901 -7.76336 -7.83727e-19)
(1.72349 -7.21 -1.29715e-18)
(1.53939 -6.41025 0)
(1.27399 -5.23827 1.7172e-18)
(0.985862 -3.48391 -2.77849e-18)
(0.698465 -1.4847 -9.07997e-20)
(0.513153 0.143839 2.5414e-18)
(0.494409 1.10463 -2.53018e-18)
(0.610061 1.49651 3.10908e-18)
(0.839345 1.51487 6.51864e-19)
(1.80029 -8.17545 1.93447e-18)
(1.80035 -7.83645 7.89005e-19)
(1.6129 -7.32066 -1.32032e-18)
(1.3719 -6.59599 4.02571e-18)
(1.03578 -5.55347 -1.73025e-18)
(0.665954 -3.94794 4.0985e-18)
(0.296257 -2.03116 -2.01044e-18)
(0.0200935 -0.427668 -2.74831e-18)
(-0.0234742 0.556481 -1.55279e-18)
(0.137945 1.00862 -3.6839e-18)
(0.423412 1.10974 -8.41694e-19)
(1.77338 -8.16694 -9.67883e-19)
(1.68314 -7.85198 1.44023e-18)
(1.46643 -7.36357 -2.39151e-18)
(1.16717 -6.69544 -1.40571e-19)
(0.777353 -5.77846 1.53171e-18)
(0.335804 -4.50375 0)
(-0.0927837 -2.62345 1.75684e-18)
(-0.405722 -1.07437 0)
(-0.455242 -0.0999564 1.57567e-18)
(-0.257874 0.39168 1.75346e-18)
(0.112091 0.584436 -7.05142e-19)
(1.73124 -8.08855 0)
(1.5386 -7.80251 -1.48493e-18)
(1.28569 -7.34922 1.18604e-18)
(0.935208 -6.74683 -1.92345e-18)
(0.499594 -5.93974 -2.95268e-18)
(0.00435648 -4.85933 2.18297e-18)
(-0.422976 -3.37023 -1.7916e-18)
(-0.753769 -1.80395 0)
(-0.7793 -0.8645 0)
(-0.556772 -0.345216 0)
(-0.0966638 -0.0326976 0)
(1.65922 -7.92276 0)
(1.35873 -7.67162 -1.25116e-18)
(1.06149 -7.26613 -2.12941e-18)
(0.664012 -6.75157 1.67658e-18)
(0.203048 -6.08562 1.97086e-19)
(-0.278191 -5.21639 -2.23132e-18)
(-0.694608 -4.06043 2.68533e-18)
(-0.98608 -2.69434 -3.60455e-18)
(-0.977594 -1.71334 0)
(-0.725594 -1.16631 0)
(-0.234724 -0.722568 0)
(1.53759 -7.65241 7.55063e-19)
(1.1291 -7.44065 1.34128e-18)
(0.775894 -7.10477 0)
(0.336752 -6.71316 0)
(-0.12509 -6.2285 1.29499e-18)
(-0.552282 -5.59938 -1.68258e-18)
(-0.882627 -4.7546 2.27802e-19)
(-1.08827 -3.67947 1.6456e-18)
(-1.02563 -2.67206 0)
(-0.757728 -2.06339 0)
(-0.255882 -1.4799 5.20055e-20)
(1.32051 -7.25061 2.22096e-18)
(0.81857 -7.09104 2.29057e-18)
(0.400552 -6.87086 -1.74305e-18)
(-0.058408 -6.66315 0)
(-0.476336 -6.41784 0)
(-0.795897 -6.0621 7.14255e-19)
(-0.975777 -5.49007 5.20511e-20)
(-1.04285 -4.68958 0)
(-0.917333 -3.74861 0)
(-0.641972 -3.00211 0)
(-0.217065 -2.29847 -5.34634e-20)
(0.860102 -6.67618 -3.14093e-18)
(0.254661 -6.5823 2.54448e-18)
(-0.239597 -6.49935 3.26048e-18)
(-0.647906 -6.48934 -1.86495e-18)
(-0.910401 -6.46818 0)
(-0.991341 -6.32402 1.29014e-18)
(-0.891445 -5.9788 0)
(-0.655477 -5.37122 0)
(-0.39134 -4.51041 5.50216e-20)
(-0.139811 -3.61781 0)
(0.234713 -2.70991 0)
(-0.142947 -5.48196 -2.54733e-18)
(-0.490437 -5.34299 -1.17249e-18)
(-0.528337 -5.42315 -1.95252e-18)
(-0.505057 -5.55021 1.72053e-18)
(-0.25787 -5.44783 0)
(0.174484 -4.95657 -6.81956e-19)
(0.7036 -4.15939 0)
(0.956618 -3.59772 7.22977e-20)
(1.14147 -2.91722 -1.01564e-19)
(1.23981 -2.24183 3.18967e-20)
(1.33382 -1.54206 -1.14937e-19)
(-1.25751 -4.32673 0)
(0.342568 -3.44077 4.54677e-18)
(0.205754 -3.28783 -2.84043e-18)
(0.593558 -2.79325 -2.71817e-18)
(1.07333 -2.25758 2.23041e-18)
(1.47898 -1.8473 0)
(1.73776 -1.48888 0)
(1.84364 -1.15401 -7.43185e-20)
(1.87063 -0.822595 -1.21788e-21)
(1.85738 -0.522833 -1.78212e-21)
(1.83929 -0.220172 1.17755e-19)
(0.862538 -0.277964 0)
(0.204744 -0.407954 3.22741e-18)
(0.821799 -0.179204 -2.18257e-18)
(1.33553 0.00763309 0)
(1.66682 0.106374 -7.38015e-19)
(1.86642 0.15366 5.16126e-19)
(1.96555 0.172731 4.49046e-20)
(1.98677 0.180091 -3.18446e-20)
(1.97442 0.191861 1.30314e-21)
(1.95602 0.214972 -6.98614e-21)
(1.94231 0.264399 6.2261e-21)
(0.31992 5.59477 0)
(0.67763 4.0464 -3.73589e-18)
(0.946567 3.32331 2.88664e-18)
(1.22649 2.60344 -1.76213e-18)
(1.49549 2.09067 9.94104e-19)
(1.73715 1.71842 0)
(1.94363 1.45227 0)
(2.12104 1.25635 5.23458e-19)
(2.27771 1.11037 -3.95968e-19)
(2.41899 1.00262 -3.88793e-19)
(2.53707 0.93078 -2.5247e-19)
(2.11406 5.27717 -4.32156e-18)
(2.96244 2.74061 2.25019e-18)
(2.57022 3.56434 9.64549e-19)
(2.43462 2.9181 3.42276e-19)
(2.31088 2.48319 2.00359e-19)
(2.29027 2.04348 2.59376e-20)
(2.33538 1.69893 -7.81877e-19)
(2.41694 1.4351 3.75084e-19)
(2.5134 1.24033 1.82163e-19)
(2.61449 1.09849 -1.88188e-19)
(2.70733 1.00446 1.29573e-20)
(2.59516 3.66077 0)
(3.90152 1.13712 2.08746e-18)
(3.67328 2.90386 -1.58305e-18)
(3.49176 2.4096 0)
(3.18097 2.36247 -8.4791e-19)
(2.95004 2.05568 0)
(2.81411 1.77279 0)
(2.76602 1.51387 -1.80841e-20)
(2.77833 1.30573 5.94347e-21)
(2.82773 1.14798 -5.07498e-20)
(2.89547 1.04445 1.63022e-20)
(2.23688 2.23992 -1.07531e-18)
(3.88244 0.142551 0)
(4.06352 2.01755 8.16347e-19)
(4.05936 1.53887 -1.74828e-18)
(3.79641 1.8952 -5.00136e-19)
(3.50897 1.75475 0)
(3.27447 1.62678 0)
(3.12314 1.44864 -3.57873e-19)
(3.05137 1.2808 0)
(3.04207 1.13922 -1.31264e-19)
(3.0706 1.04101 0)
(1.60995 1.3358 -2.00855e-19)
(3.4114 -0.338709 -1.3318e-19)
(3.94101 1.2524 0)
(4.15807 0.747026 1.06281e-18)
(4.05688 1.32555 1.26155e-18)
(3.82903 1.28315 0)
(3.59985 1.32278 0)
(3.41194 1.25181 4.91165e-19)
(3.28997 1.16029 7.0908e-19)
(3.23452 1.06366 -3.39558e-19)
(3.22675 0.991761 4.87363e-19)
(0.961026 0.784145 -3.78337e-18)
(2.81564 -0.559447 -1.11541e-18)
(3.5807 0.685671 7.45522e-19)
(3.96998 0.183192 0)
(4.0342 0.818997 7.20167e-19)
(3.90889 0.801522 9.00882e-19)
(3.74861 0.964821 0)
(3.58156 0.980673 -5.2663e-19)
(3.45404 0.970617 0)
(3.37865 0.931697 0)
(3.34864 0.900941 -1.46214e-19)
(0.315502 0.458588 -6.40353e-19)
(2.21101 -0.634426 0)
(3.14356 0.288064 -1.98928e-18)
(3.65718 -0.171174 8.04487e-20)
(3.84827 0.419564 -6.21676e-19)
(3.82405 0.400651 2.39652e-19)
(3.74741 0.63116 4.01898e-19)
(3.62917 0.696754 7.60142e-19)
(3.52798 0.752072 3.51851e-19)
(3.45933 0.765304 0)
(3.42774 0.775524 -1.56124e-19)
(-0.305489 0.314086 3.24721e-21)
(1.6298 -0.602635 1.62831e-19)
(2.68904 0.0305886 2.19087e-18)
(3.30655 -0.377852 0)
(3.59151 0.128973 8.35646e-19)
(3.64938 0.104368 -1.27102e-18)
(3.64691 0.353821 -2.94442e-19)
(3.582 0.441916 -7.03857e-19)
(3.5206 0.540124 -5.19585e-19)
(3.47469 0.5918 0)
(3.45654 0.63457 2.02674e-19)
(-0.867097 0.295335 -3.11174e-18)
(1.081 -0.508135 -1.53105e-19)
(2.23649 -0.119544 1.79963e-18)
(2.9499 -0.480229 -1.30804e-18)
(3.31135 -0.0724329 3.26854e-19)
(3.43592 -0.0975022 7.38237e-19)
(3.4898 0.139921 0)
(3.47383 0.233243 0)
(3.45238 0.353074 -1.99935e-19)
(3.43403 0.428459 1.40425e-19)
(3.43577 0.496141 0)
(-1.39005 0.355428 0)
(0.536963 -0.375862 9.5226e-20)
(1.77556 -0.191503 0)
(2.58624 -0.510138 0)
(3.02249 -0.206745 0)
(3.20891 -0.226752 -1.29579e-18)
(3.30699 -0.0179036 1.09011e-18)
(3.33148 0.0738788 -5.40323e-19)
(3.34393 0.198991 4.21526e-19)
(3.35244 0.285556 2.20267e-19)
(3.3764 0.366942 -1.6405e-19)
(-1.90637 0.492564 -2.39881e-18)
(-0.0118753 -0.201319 -1.09696e-19)
(1.30153 -0.190511 -2.83487e-19)
(2.21186 -0.486647 7.02264e-19)
(2.72833 -0.285386 -7.10095e-19)
(2.97812 -0.302288 -8.51933e-19)
(3.11512 -0.129341 5.65533e-19)
(3.17322 -0.0428796 0)
(3.21232 0.0775769 0)
(3.24333 0.168991 0)
(3.28626 0.252941 2.52366e-19)
(-2.38667 0.693006 2.44882e-19)
(-0.53743 0.00480689 1.33245e-18)
(0.832531 -0.125102 2.70345e-19)
(1.83589 -0.421103 -5.68906e-19)
(2.43437 -0.315411 -8.75115e-19)
(2.7487 -0.337789 2.12733e-18)
(2.92291 -0.203195 -6.47448e-19)
(3.00955 -0.125488 -4.09668e-19)
(3.06878 -0.0158021 -2.50411e-21)
(3.1165 0.0749833 5.4592e-20)
(3.17223 0.157084 0)
(-2.79354 0.912148 1.16073e-18)
(-1.03266 0.215694 -1.40373e-18)
(0.3721 -0.0196575 0)
(1.45809 -0.328024 0)
(2.13871 -0.310396 7.00333e-19)
(2.51975 -0.346342 -4.30674e-19)
(2.73238 -0.249908 -5.50147e-19)
(2.84489 -0.183119 4.05056e-19)
(2.91964 -0.0868156 -1.03791e-18)
(2.97958 0.000128871 3.65672e-19)
(3.04453 0.0781427 -8.23392e-19)
(-3.15062 1.13853 3.63738e-19)
(-1.51477 0.432423 2.64711e-19)
(-0.0952798 0.11697 0)
(1.06195 -0.216879 -2.63568e-19)
(1.8273 -0.281549 0)
(2.28102 -0.338789 0)
(2.538 -0.279169 0)
(2.67778 -0.22431 1.90083e-20)
(2.76648 -0.141149 9.51212e-21)
(2.83562 -0.0584976 -5.46897e-19)
(2.90524 0.0156411 4.1211e-19)
(-3.47671 1.37077 -1.21954e-18)
(-1.97189 0.649615 9.12909e-19)
(-0.561958 0.278387 0)
(0.648272 -0.090293 2.65707e-19)
(1.49461 -0.231697 3.51297e-19)
(2.02398 -0.319103 5.31146e-19)
(2.33192 -0.295726 -7.75169e-19)
(2.50312 -0.254387 5.98308e-19)
(2.6072 -0.183375 0)
(2.684 -0.105856 1.00066e-18)
(2.7548 -0.0355717 -5.90395e-19)
(-3.74325 1.58115 0)
(-2.39105 0.855323 -3.95274e-19)
(-1.02744 0.453832 2.9309e-19)
(0.210932 0.0493877 0)
(1.12987 -0.162494 -3.55797e-19)
(1.73575 -0.287519 0)
(2.10174 -0.301078 5.15981e-20)
(2.31143 -0.275464 0)
(2.43625 -0.215616 2.97874e-19)
(2.52339 -0.142934 -3.08922e-19)
(2.59805 -0.0731499 4.75757e-20)
(-3.94515 1.76863 -1.09332e-18)
(-2.77486 1.05527 1.60219e-18)
(-1.49986 0.645638 5.53955e-19)
(-0.263325 0.209172 -1.68382e-18)
(0.715973 -0.0695469 1.21611e-18)
(1.39806 -0.239277 -1.27305e-18)
(1.83007 -0.292199 6.75259e-19)
(2.08855 -0.285611 0)
(2.24409 -0.237091 0)
(2.34831 -0.170024 -6.5809e-19)
(2.4307 -0.101034 0)
(-4.09445 1.93429 2.69008e-19)
(-3.11412 1.2487 -2.06765e-18)
(-1.96778 0.852975 2.23335e-18)
(-0.772201 0.395462 -1.58987e-18)
(0.246092 0.0558756 5.84733e-19)
(0.99755 -0.164404 0)
(1.49996 -0.260224 2.79206e-19)
(1.81819 -0.277423 0)
(2.01808 -0.24274 0)
(2.15122 -0.183644 6.2129e-20)
(2.24951 -0.119756 1.67796e-19)
(-4.18603 2.06927 -1.88384e-20)
(-3.39625 1.4301 1.93588e-19)
(-2.41418 1.07137 5.36561e-19)
(-1.31012 0.611291 0)
(-0.287826 0.221985 2.43784e-19)
(0.518034 -0.0498174 0)
(1.091 -0.190599 2.00227e-19)
(1.47987 -0.237182 -6.36959e-20)
(1.74085 -0.222193 -1.68513e-19)
(1.91985 -0.176285 -6.18455e-20)
(2.04983 -0.119643 -1.62543e-19)
(-4.23849 2.18595 8.20608e-19)
(-3.62503 1.60391 -1.62386e-18)
(-2.82385 1.29446 8.13543e-19)
(-1.8652 0.855178 -5.19377e-19)
(-0.891495 0.438185 1.48249e-19)
(-0.0597945 0.123894 -5.2821e-19)
(0.578404 -0.0600894 5.88102e-19)
(1.04833 -0.142588 -8.38402e-20)
(1.38844 -0.157954 3.60122e-20)
(1.63219 -0.136246 1.16171e-19)
(1.81051 -0.0943715 6.27718e-20)
(-4.26203 2.30572 1.13583e-18)
(-3.81318 1.7674 1.96915e-19)
(-3.19304 1.50839 0)
(-2.42651 1.11664 -1.87235e-19)
(-1.56747 0.71552 1.19429e-19)
(-0.7528 0.387788 0)
(-0.0613646 0.168985 -1.70461e-19)
(0.495881 0.0414691 -8.79071e-21)
(0.929217 -0.021755 4.3695e-20)
(1.25466 -0.0434772 0)
(1.49869 -0.0349857 8.3475e-21)
(-4.20423 2.24845 9.01335e-21)
(-3.94464 1.84669 1.50278e-18)
(-3.53441 1.6503 -1.41264e-19)
(-2.98118 1.36752 -7.23107e-19)
(-2.29236 1.06251 0)
(-1.54712 0.778118 0)
(-0.831338 0.543426 1.15392e-22)
(-0.198567 0.362598 -2.24881e-20)
(0.32738 0.233775 2.27623e-20)
(0.7434 0.149829 -3.20188e-21)
(1.0847 0.123375 0)
(-4.48716 2.55764 -1.432e-18)
(-4.14605 2.06296 0)
(-3.83637 1.95305 0)
(-3.43224 1.79055 -4.17048e-19)
(-2.92695 1.60548 1.82317e-19)
(-2.31503 1.37593 8.51357e-20)
(-1.65458 1.11739 5.99244e-20)
(-1.01697 0.864026 -1.20992e-20)
(-0.449768 0.644124 0)
(0.0131173 0.469007 3.61684e-20)
(0.464308 0.363775 -3.6666e-20)
(-2.51154 1.35065 -1.24044e-18)
(-2.69714 1.35845 0)
(-2.56828 1.51753 0)
(-2.51386 1.65467 0)
(-2.40911 1.76095 3.06533e-20)
(-2.23302 1.78796 -3.54549e-20)
(-1.9315 1.70635 -1.15977e-19)
(-1.53405 1.54203 9.61274e-20)
(-1.10507 1.33826 -6.84743e-20)
(-0.706846 1.12335 -3.49287e-20)
(-0.228047 0.875654 3.33731e-20)
(-2.65849 1.95465 -7.68735e-18)
(-1.73691 1.70134 5.29354e-18)
(-0.437121 1.60136 0)
(0.365579 1.50295 0)
(0.918475 1.38191 2.37057e-19)
(1.31503 1.2526 3.1632e-19)
(1.61276 1.13364 1.86783e-20)
(1.84675 1.03124 -1.03058e-19)
(2.03848 0.94604 6.68871e-20)
(2.20069 0.877941 2.35053e-19)
(2.33403 0.828196 0)
(-1.42828 -2.31263 -6.54823e-18)
(-0.862315 -1.12709 0)
(-0.658911 -0.235525 -6.86296e-18)
(-0.130426 0.387401 8.50886e-19)
(0.432831 0.703608 2.76783e-18)
(0.913593 0.826029 -2.56524e-20)
(1.28369 0.844551 -8.13757e-19)
(1.56819 0.821733 5.99929e-19)
(1.79125 0.785005 0)
(1.97078 0.747427 0)
(2.10959 0.713731 -1.2835e-20)
(-0.373251 -2.99121 6.84486e-19)
(0.275751 -1.70381 -1.06017e-17)
(-0.0716793 -1.47652 5.62598e-18)
(0.0508896 -0.813388 -4.21205e-19)
(0.276304 -0.274537 4.41359e-20)
(0.621038 0.13998 2.62948e-20)
(0.976186 0.392047 0)
(1.2869 0.515844 1.05313e-18)
(1.54154 0.569396 -9.32762e-19)
(1.74136 0.585078 0)
(1.88877 0.57801 3.25163e-19)
(0.540815 -2.91761 3.45313e-20)
(1.31778 -1.66945 0)
(0.725501 -1.86386 3.14083e-18)
(0.650084 -1.29683 -2.14569e-18)
(0.600479 -0.857427 2.10567e-18)
(0.718047 -0.421805 -9.1688e-19)
(0.922298 -0.0834826 -4.31964e-19)
(1.14468 0.146342 0)
(1.35657 0.290948 1.61966e-19)
(1.53692 0.37471 0)
(1.67319 0.414523 -1.0813e-19)
(1.18982 -2.55936 -3.09783e-20)
(2.01314 -1.48866 -4.04547e-19)
(1.41136 -1.89697 5.39057e-19)
(1.2818 -1.43392 2.15097e-19)
(1.08511 -1.14746 0)
(1.03599 -0.757751 4.13192e-19)
(1.08662 -0.421134 1.04394e-18)
(1.20145 -0.148108 -1.49727e-19)
(1.34163 0.0486781 -6.54659e-19)
(1.4762 0.179689 3.2281e-19)
(1.57917 0.255475 3.90695e-19)
(1.60009 -2.14798 4.23201e-19)
(2.41802 -1.26719 0)
(1.89772 -1.74382 -2.03666e-19)
(1.78169 -1.35307 -1.99656e-19)
(1.53766 -1.21632 0)
(1.4027 -0.903939 0)
(1.34238 -0.622193 -3.68746e-19)
(1.35691 -0.35673 0)
(1.41537 -0.142524 0)
(1.48987 0.0177238 -3.13979e-19)
(1.54933 0.123567 0)
(1.84535 -1.75685 -2.11864e-18)
(2.6398 -1.0487 -1.26752e-18)
(2.21244 -1.52815 1.94926e-18)
(2.1204 -1.17873 -1.91421e-19)
(1.88483 -1.15761 -2.69442e-20)
(1.72843 -0.907345 -2.13887e-20)
(1.60232 -0.701904 1.01766e-18)
(1.54674 -0.471114 -3.9118e-19)
(1.5366 -0.269361 0)
(1.55598 -0.104596 -3.47752e-19)
(1.57709 0.0116552 5.07693e-19)
(1.99956 -1.41834 1.75283e-18)
(2.75576 -0.874631 9.63043e-19)
(2.41414 -1.31065 8.61855e-20)
(2.34599 -0.986209 -2.39647e-19)
(2.11715 -1.0458 0)
(1.97901 -0.832258 -6.28125e-20)
(1.8247 -0.693322 -1.39039e-19)
(1.72785 -0.506324 0)
(1.66814 -0.333284 6.76531e-20)
(1.64118 -0.180821 2.12254e-19)
(1.62663 -0.0653876 -2.00842e-19)
(2.11065 -1.12987 0)
(2.83403 -0.736328 -9.9484e-19)
(2.53044 -1.11809 8.6824e-19)
(2.51113 -0.80408 8.06729e-19)
(2.27565 -0.908084 -7.68146e-19)
(2.15607 -0.726058 3.52342e-19)
(1.99558 -0.634976 0)
(1.87881 -0.487331 -1.04639e-19)
(1.78756 -0.347732 1.57435e-19)
(1.72569 -0.217814 8.48119e-20)
(1.67911 -0.118734 5.54642e-20)
(2.18172 -0.897268 0)
(2.91279 -0.590604 -2.37242e-19)
(2.60483 -0.936491 -4.13396e-19)
(2.61994 -0.654188 0)
(2.39174 -0.761094 -6.70666e-19)
(2.28132 -0.608178 7.45877e-19)
(2.1208 -0.551167 -2.49748e-19)
(1.9949 -0.435095 4.73067e-19)
(1.88442 -0.327276 -6.2349e-20)
(1.798 -0.222615 -3.04576e-20)
(1.7254 -0.14245 0)
(2.20245 -0.718686 -2.49402e-18)
(2.96567 -0.439574 -1.41441e-19)
(2.66754 -0.760604 9.00165e-19)
(2.6891 -0.510636 2.90089e-19)
(2.473 -0.617896 3.5779e-19)
(2.36906 -0.486024 -4.13282e-19)
(2.20977 -0.454826 2.32824e-19)
(2.07945 -0.363402 -2.4652e-19)
(1.9571 -0.283504 2.83507e-19)
(1.85495 -0.201724 -8.59156e-20)
(1.76754 -0.138045 0)
(2.19206 -0.569062 -5.47559e-19)
(2.9834 -0.295847 1.2631e-18)
(2.7079 -0.602444 0)
(2.73192 -0.370472 5.68001e-19)
(2.52535 -0.481265 -2.29425e-19)
(2.42709 -0.363312 4.63332e-19)
(2.26935 -0.352974 -7.84098e-20)
(2.13714 -0.280646 -3.74843e-19)
(2.00724 -0.225056 4.64284e-20)
(1.89411 -0.164544 0)
(1.79551 -0.117038 1.08606e-19)
(2.17275 -0.431168 2.21886e-18)
(2.98561 -0.154193 -1.24987e-18)
(2.72699 -0.460589 -2.19339e-19)
(2.75559 -0.233518 -1.01335e-18)
(2.55394 -0.3525 6.26773e-19)
(2.46133 -0.241708 -1.64777e-19)
(2.30438 -0.250091 -1.74165e-19)
(2.17193 -0.192226 0)
(2.03732 -0.157963 -2.13517e-19)
(1.91692 -0.116409 0)
(1.80747 -0.089492 -4.03359e-20)
(2.13735 -0.286367 0)
(2.96321 -0.00980075 0)
(2.73299 -0.317439 2.18017e-19)
(2.75877 -0.105676 1.48564e-19)
(2.56521 -0.224823 -1.03966e-19)
(2.47415 -0.125539 -3.87066e-19)
(2.31906 -0.146475 7.75148e-19)
(2.18653 -0.102548 -1.91125e-19)
(2.04943 -0.0862911 6.27371e-20)
(1.9252 -0.0612025 3.50448e-20)
(1.81031 -0.0495951 -6.75969e-20)
(2.07785 -0.147933 -7.76178e-19)
(2.91591 0.120791 6.05431e-19)
(2.72357 -0.178998 -8.04812e-19)
(2.74325 0.0125461 6.32923e-19)
(2.56159 -0.0980434 1.29248e-19)
(2.46807 -0.0159166 1.65058e-20)
(2.31619 -0.0430639 -8.75597e-20)
(2.18316 -0.0145488 -5.31365e-20)
(2.04548 -0.0132616 4.91531e-20)
(1.91982 -0.00428263 -1.27435e-19)
(1.80433 -0.00693967 4.19661e-20)
(2.01254 -0.0147684 0)
(2.85054 0.242182 0)
(2.70076 -0.0434982 0)
(2.71187 0.122926 0)
(2.54415 0.0264861 -2.55214e-20)
(2.44554 0.087941 -2.587e-19)
(2.29764 0.0582296 1.14425e-19)
(2.16404 0.0700885 1.17068e-19)
(2.02745 0.0581648 -4.07373e-21)
(1.90239 0.0511356 -9.65536e-20)
(1.78853 0.0344538 -7.91563e-20)
(1.93869 0.118891 0)
(2.76566 0.363335 0)
(2.66356 0.093825 1.86933e-19)
(2.66573 0.229156 -3.00149e-19)
(2.51284 0.148544 0)
(2.40776 0.187224 2.36358e-19)
(2.26415 0.155597 -8.2173e-20)
(2.13052 0.149993 0)
(1.99674 0.125352 -4.48055e-20)
(1.87446 0.102894 6.50817e-20)
(1.76427 0.071255 6.98968e-20)
(1.84826 0.250386 -7.55858e-19)
(2.65665 0.483347 5.79705e-19)
(2.60663 0.232372 -5.48335e-19)
(2.60297 0.333656 2.90199e-19)
(2.4656 0.267396 0)
(2.3546 0.282596 -2.68965e-19)
(2.21566 0.247028 2.8374e-19)
(2.08357 0.223514 0)
(1.95487 0.185682 1.04223e-19)
(1.83742 0.148212 9.24684e-20)
(1.7331 0.100633 0)