/*--------------------------------*- C++ -*----------------------------------*\
| =========                 |                                                 |
| \\      /  F ield         | OpenFOAM: The Open Source CFD Toolbox           |
|  \\    /   O peration     | Version:  3.0.1                                 |
|   \\  /    A nd           | Web:      www.OpenFOAM.org                      |
|    \\/     M anipulation  |                                                 |
\*---------------------------------------------------------------------------*/
FoamFile
{
    version     2.0;
    format      ascii;
    class       volScalarField;
    location    "0.880677";
    object      nut;
}
// * * * * * * * * * * * * * * * * * * * * * * * * * * * * * * * * * * * * * //

dimensions      [0 2 -1 0 0 0 0];

internalField   nonuniform List<scalar> 
21246
(
3.36169e-05
0.000218086
0.000335685
0.000401046
0.000432569
0.00045095
0.000470676
0.000489757
0.000497761
0.000484461
0.000448258
2.43291e-05
0.000191582
0.000331202
0.000410347
0.000444663
0.000458304
0.000468302
0.000478485
0.000481891
0.000468484
0.000433248
2.04624e-05
0.000171286
0.000311878
0.000404338
0.000448485
0.000464512
0.000471694
0.000477877
0.000479644
0.000468134
0.000435041
1.98544e-05
0.000160662
0.000298418
0.000397748
0.000450533
0.00047103
0.000478635
0.000483758
0.000484414
0.000471438
0.000438143
1.99285e-05
0.000150234
0.000286633
0.000391876
0.000452216
0.000476656
0.000482737
0.0004824
0.000475677
0.000459121
0.000427604
2.0401e-05
0.00014484
0.000276008
0.000380991
0.000446379
0.000476124
0.000484336
0.000485151
0.000481913
0.00046978
0.00044172
2.10453e-05
0.000142554
0.000269897
0.000371262
0.000436469
0.000469613
0.00048226
0.000486713
0.000486162
0.000475657
0.000447392
2.19037e-05
0.000140832
0.000265351
0.000363173
0.000427359
0.00046205
0.000477938
0.000485998
0.000489136
0.000483107
0.00046025
2.26876e-05
0.000139511
0.00026151
0.0003563
0.000418945
0.000454284
0.0004727
0.000484245
0.00049112
0.0004881
0.000465059
2.32706e-05
0.000137462
0.000257369
0.000349963
0.000411432
0.000447284
0.000467802
0.000482302
0.000491974
0.000489969
0.0004645
2.37569e-05
0.00013505
0.000253107
0.000344144
0.000404933
0.000441418
0.000463775
0.000480691
0.000492557
0.000492398
0.000471545
2.41859e-05
0.000133001
0.000249453
0.000339215
0.000399573
0.000436786
0.000460852
0.000479894
0.000493722
0.000495194
0.000475076
2.44404e-05
0.000130744
0.000245916
0.000334866
0.00039524
0.00043346
0.000459297
0.000480392
0.000496033
0.000498331
0.000475929
2.44945e-05
0.000127591
0.000241692
0.000330555
0.000391671
0.000431401
0.00045922
0.00048235
0.000499568
0.000502519
0.00048131
2.43586e-05
0.000124253
0.00023735
0.000326482
0.000388813
0.00043047
0.000460499
0.00048566
0.000504166
0.000506739
0.000481351
2.3993e-05
0.000120322
0.000232487
0.000322306
0.000386444
0.000430565
0.000463119
0.000490369
0.000509996
0.000511838
0.000483315
2.34027e-05
0.0001151
0.000226194
0.00031732
0.000384105
0.000431449
0.000466993
0.000496507
0.000517294
0.000518467
0.000487539
2.24866e-05
0.000108738
0.000218303
0.000311055
0.00038121
0.000432567
0.00047168
0.000503794
0.000526082
0.000527005
0.000492321
2.12578e-05
9.98242e-05
0.00020647
0.000300942
0.000375205
0.000431616
0.0004757
0.000510953
0.00053549
0.000537664
0.000501991
1.96792e-05
8.82881e-05
0.000189897
0.000285525
0.000363692
0.000424328
0.000471011
0.000507337
0.000532423
0.000535932
0.000503316
1.76881e-05
7.41315e-05
0.00016788
0.000263401
0.000345026
0.000409226
0.00045668
0.000490049
0.000510051
0.000510359
0.000482161
1.52728e-05
5.89634e-05
0.000142221
0.000234336
0.000317818
0.000384696
0.000432117
0.000460861
0.000472543
0.000465364
0.000437322
1.22471e-05
4.4496e-05
0.000113016
0.000198365
0.000280169
0.0003472
0.000394035
0.000419496
0.000424948
0.000411484
0.000381475
9.04064e-06
4.29903e-05
9.8419e-05
0.000160752
0.000221423
0.000275997
0.000317752
0.00034257
0.000349394
0.000339036
0.000314872
2.959e-05
0.000105595
0.000178372
0.000250535
0.000315144
0.000378432
0.00045126
0.00050518
0.000539176
0.000528229
0.000491019
1.93143e-05
5.24251e-05
9.82268e-05
0.000148375
0.000197573
0.000240187
0.000278954
0.000348535
0.000512282
0.000579566
0.000540267
1.4574e-05
5.03909e-05
7.47457e-05
0.000106161
0.000141604
0.000174992
0.000202037
0.000232198
0.000305736
0.000527827
0.000596258
1.66995e-05
7.54278e-05
9.28561e-05
0.000104702
0.000122794
0.000144251
0.00016355
0.000180089
0.000207883
0.000295404
0.000524612
1.96197e-05
8.88349e-05
0.000164044
0.000158003
0.000146854
0.000145002
0.000149462
0.000155516
0.000165173
0.000196299
0.000305351
2.26897e-05
9.3826e-05
0.000204264
0.000268725
0.000236462
0.000195332
0.000168174
0.000153923
0.0001484
0.000155243
0.000199255
2.57835e-05
9.93195e-05
0.000226227
0.000344429
0.000375894
0.000311705
0.000238166
0.000185472
0.000154624
0.000141605
0.000153629
2.88668e-05
0.000106421
0.000240526
0.000385849
0.000486892
0.000466378
0.000366973
0.000263472
0.000190843
0.000149938
0.000137858
3.17061e-05
0.00011578
0.000253901
0.00040637
0.000536129
0.000602403
0.000526268
0.000386368
0.000261926
0.000181388
0.000142006
3.42096e-05
0.00012734
0.000268292
0.000416524
0.000549935
0.000651651
0.000651273
0.000523026
0.000359376
0.000234161
0.000162455
3.63063e-05
0.000141266
0.000283812
0.000420303
0.00054181
0.000651106
0.000716386
0.000636721
0.000461387
0.000298831
0.000194132
3.81082e-05
0.000154277
0.000297993
0.00041973
0.000521066
0.000619763
0.000710214
0.000698506
0.000541728
0.000359508
0.000229093
3.95469e-05
0.000168048
0.000311107
0.000417159
0.000495249
0.000573126
0.000666292
0.000708552
0.000584834
0.000400803
0.000257027
4.0652e-05
0.000180184
0.000320527
0.000412409
0.000468778
0.000522163
0.000598604
0.00066857
0.000588694
0.000414289
0.000271201
4.1318e-05
0.000190036
0.000326463
0.000405243
0.000443194
0.000474522
0.000522585
0.000574677
0.000562583
0.000398307
0.000269831
4.14973e-05
0.000199432
0.000331176
0.000397053
0.0004179
0.000428405
0.000450075
0.000475728
0.000476561
0.000381339
0.000259257
4.11734e-05
0.000208877
0.000336377
0.000390449
0.000396699
0.000390283
0.000391731
0.000397079
0.000390761
0.000345063
0.000255387
4.02576e-05
0.000218902
0.000344132
0.000388633
0.000384341
0.000367882
0.000359184
0.00035562
0.000347266
0.00032211
0.000268774
3.86947e-05
0.000230588
0.000356872
0.000394452
0.000382899
0.000361839
0.000351443
0.000349738
0.000348892
0.000340251
0.000319839
3.64728e-05
0.000248398
0.000376157
0.000405497
0.000383206
0.00035211
0.000332991
0.000320151
0.000314051
0.000306946
0.00029753
3.06669e-05
0.000229104
0.000344733
0.000373289
0.000346488
0.000300498
0.000248921
0.00021752
0.000199473
0.000189301
0.000170553
2.38992e-05
0.000189471
0.000287107
0.000314952
0.000271132
0.000190749
0.00014757
0.000125356
0.000113331
0.000106485
9.94146e-05
1.52989e-05
9.17905e-05
0.000118933
0.000110579
8.90537e-05
7.86411e-05
7.70891e-05
8.14491e-05
8.86493e-05
9.5338e-05
9.85674e-05
7.07095e-06
9.67084e-06
1.52148e-05
2.43558e-05
3.88752e-05
5.99359e-05
8.62652e-05
0.000113831
0.000137266
0.000152054
0.000156506
2.4925e-05
6.35785e-05
6.22857e-05
6.38738e-05
6.26867e-05
5.7225e-05
5.36336e-05
5.28752e-05
5.417e-05
5.72444e-05
6.24835e-05
2.19902e-05
6.31244e-05
5.68016e-05
6.58329e-05
6.54014e-05
6.00518e-05
5.59372e-05
5.49741e-05
5.6501e-05
6.01005e-05
6.58579e-05
2.29068e-05
6.47817e-05
5.12293e-05
6.75418e-05
6.68592e-05
6.22931e-05
5.79478e-05
5.70347e-05
5.93517e-05
6.51673e-05
7.67528e-05
2.56098e-05
6.0926e-05
4.87363e-05
6.74628e-05
6.6385e-05
6.3469e-05
5.89445e-05
5.83701e-05
6.1426e-05
6.90489e-05
8.41143e-05
2.87435e-05
5.59766e-05
4.73846e-05
6.53465e-05
6.49781e-05
6.36198e-05
5.89051e-05
5.8833e-05
6.24047e-05
7.1173e-05
8.79132e-05
3.16763e-05
5.23063e-05
4.62215e-05
6.24039e-05
6.34571e-05
6.2837e-05
5.81389e-05
5.84749e-05
6.22682e-05
7.15317e-05
8.86812e-05
3.43845e-05
4.95955e-05
4.50677e-05
5.9589e-05
6.20896e-05
6.13676e-05
5.69901e-05
5.74635e-05
6.1239e-05
7.05908e-05
8.80902e-05
3.68937e-05
4.82418e-05
4.3969e-05
5.71869e-05
6.08253e-05
5.96286e-05
5.56374e-05
5.60005e-05
5.95598e-05
6.85763e-05
8.51364e-05
3.8977e-05
4.76873e-05
4.30003e-05
5.52554e-05
5.96287e-05
5.79322e-05
5.41971e-05
5.42721e-05
5.7451e-05
6.58441e-05
8.14508e-05
4.05124e-05
4.73933e-05
4.19986e-05
5.37992e-05
5.86193e-05
5.64355e-05
5.27636e-05
5.24198e-05
5.50711e-05
6.26252e-05
7.69972e-05
4.16321e-05
4.73268e-05
4.00065e-05
5.12171e-05
5.73572e-05
5.51484e-05
5.14117e-05
5.05458e-05
5.2557e-05
5.91078e-05
7.18485e-05
4.23221e-05
4.79612e-05
3.83381e-05
4.77816e-05
5.47884e-05
5.36177e-05
5.00771e-05
4.86949e-05
5.00183e-05
5.54466e-05
6.63567e-05
4.24414e-05
4.89633e-05
3.70216e-05
4.35628e-05
5.05832e-05
5.13388e-05
4.85674e-05
4.68581e-05
4.75333e-05
5.1732e-05
6.06189e-05
4.20425e-05
5.01065e-05
3.62588e-05
3.8907e-05
4.46277e-05
4.75166e-05
4.64711e-05
4.49504e-05
4.51423e-05
4.81637e-05
5.50982e-05
4.1071e-05
5.17476e-05
3.65002e-05
3.53613e-05
3.86501e-05
4.2221e-05
4.32168e-05
4.26496e-05
4.27489e-05
4.48039e-05
4.99622e-05
3.9533e-05
5.36927e-05
3.76847e-05
3.31298e-05
3.3536e-05
3.60921e-05
3.83097e-05
3.92565e-05
3.99481e-05
4.15115e-05
4.52307e-05
3.75319e-05
5.57022e-05
3.98647e-05
3.23432e-05
2.99022e-05
3.03612e-05
3.21532e-05
3.40738e-05
3.58733e-05
3.77231e-05
4.06335e-05
3.49204e-05
5.78414e-05
4.30884e-05
3.32522e-05
2.82727e-05
2.63925e-05
2.65036e-05
2.78148e-05
2.99672e-05
3.24489e-05
3.53574e-05
3.17552e-05
5.98636e-05
4.73727e-05
3.59851e-05
2.87906e-05
2.47199e-05
2.28303e-05
2.24703e-05
2.34637e-05
2.55218e-05
2.8385e-05
2.81044e-05
6.1375e-05
5.26672e-05
4.0781e-05
3.17487e-05
2.56573e-05
2.18305e-05
1.96175e-05
1.87712e-05
1.91464e-05
2.06674e-05
2.40211e-05
6.17357e-05
5.86814e-05
4.79476e-05
3.77761e-05
2.98606e-05
2.41254e-05
2.00796e-05
1.7405e-05
1.58841e-05
1.5411e-05
1.95845e-05
6.03702e-05
6.47159e-05
5.76647e-05
4.79052e-05
3.87754e-05
3.12025e-05
2.51953e-05
2.05864e-05
1.7172e-05
1.47851e-05
1.47441e-05
5.40711e-05
6.7717e-05
6.80888e-05
6.22465e-05
5.41898e-05
4.59018e-05
3.82509e-05
3.15809e-05
2.59784e-05
2.13973e-05
9.97143e-06
4.91105e-05
6.2582e-05
6.85916e-05
6.97055e-05
6.75203e-05
6.32421e-05
5.7785e-05
5.17864e-05
4.57078e-05
3.97963e-05
2.2981e-05
6.50544e-05
6.37543e-05
6.39158e-05
6.17519e-05
5.53624e-05
5.11718e-05
4.98492e-05
5.02759e-05
5.19092e-05
5.4733e-05
1.90314e-05
5.76333e-05
5.35611e-05
6.31807e-05
6.0277e-05
5.32709e-05
4.85766e-05
4.66905e-05
4.64805e-05
4.72543e-05
4.87774e-05
2.01893e-05
5.69739e-05
4.62383e-05
6.43641e-05
6.11594e-05
5.36867e-05
4.81521e-05
4.56244e-05
4.48979e-05
4.51516e-05
4.60479e-05
2.32858e-05
5.19847e-05
4.34803e-05
6.43405e-05
6.11661e-05
5.41415e-05
4.83511e-05
4.56717e-05
4.4861e-05
4.50544e-05
4.57895e-05
2.6908e-05
4.62537e-05
4.24397e-05
6.28066e-05
6.06164e-05
5.44923e-05
4.88751e-05
4.64083e-05
4.58879e-05
4.64388e-05
4.75243e-05
3.03473e-05
4.19351e-05
4.17397e-05
6.07407e-05
6.00148e-05
5.47239e-05
4.95535e-05
4.75987e-05
4.77059e-05
4.91656e-05
5.15644e-05
3.34808e-05
3.89857e-05
4.10856e-05
5.88746e-05
5.95253e-05
5.49249e-05
5.03162e-05
4.90382e-05
4.99311e-05
5.25431e-05
5.659e-05
3.63475e-05
3.69248e-05
4.04594e-05
5.73819e-05
5.91521e-05
5.51591e-05
5.11303e-05
5.05484e-05
5.22752e-05
5.6229e-05
6.26575e-05
3.87865e-05
3.54776e-05
3.98835e-05
5.62783e-05
5.89479e-05
5.53952e-05
5.19638e-05
5.19619e-05
5.44449e-05
5.97027e-05
6.88064e-05
4.08119e-05
3.44599e-05
3.93777e-05
5.55098e-05
5.89461e-05
5.56049e-05
5.27456e-05
5.31346e-05
5.61401e-05
6.22171e-05
7.26327e-05
4.24386e-05
3.38651e-05
3.89296e-05
5.49807e-05
5.9117e-05
5.58411e-05
5.3405e-05
5.39676e-05
5.7185e-05
6.34838e-05
7.3937e-05
4.3675e-05
3.34621e-05
3.84965e-05
5.45787e-05
5.9402e-05
5.60921e-05
5.39247e-05
5.44351e-05
5.75625e-05
6.35841e-05
7.34475e-05
4.43721e-05
3.28772e-05
3.7093e-05
5.32019e-05
5.93077e-05
5.62913e-05
5.43628e-05
5.46547e-05
5.74809e-05
6.29056e-05
7.17014e-05
4.45444e-05
3.1991e-05
3.42662e-05
4.99404e-05
5.81891e-05
5.62993e-05
5.47089e-05
5.46988e-05
5.70555e-05
6.16703e-05
6.91564e-05
4.41354e-05
3.10976e-05
3.11668e-05
4.51723e-05
5.56676e-05
5.5811e-05
5.4857e-05
5.45841e-05
5.63541e-05
6.00354e-05
6.61337e-05
4.31109e-05
3.01997e-05
2.81772e-05
3.92886e-05
5.11892e-05
5.42023e-05
5.45206e-05
5.42612e-05
5.54366e-05
5.81579e-05
6.29117e-05
4.14672e-05
2.92882e-05
2.55696e-05
3.30649e-05
4.45242e-05
5.04968e-05
5.2981e-05
5.34212e-05
5.4261e-05
5.61378e-05
5.96794e-05
3.91068e-05
2.83607e-05
2.35338e-05
2.74978e-05
3.65186e-05
4.39673e-05
4.89301e-05
5.11092e-05
5.23705e-05
5.38359e-05
5.64441e-05
3.59834e-05
2.73107e-05
2.20525e-05
2.31561e-05
2.87694e-05
3.52608e-05
4.12947e-05
4.55253e-05
4.82557e-05
5.02676e-05
5.2621e-05
3.20597e-05
2.59364e-05
2.09678e-05
2.01202e-05
2.25781e-05
2.65367e-05
3.12148e-05
3.57191e-05
3.96105e-05
4.28403e-05
4.58829e-05
2.72983e-05
2.39344e-05
1.99911e-05
1.81691e-05
1.83977e-05
1.98276e-05
2.20281e-05
2.46453e-05
2.74469e-05
3.03053e-05
3.32904e-05
2.1704e-05
2.08687e-05
1.85786e-05
1.67702e-05
1.58828e-05
1.56751e-05
1.59435e-05
1.65328e-05
1.73409e-05
1.83129e-05
1.94655e-05
1.53645e-05
1.62847e-05
1.59191e-05
1.50131e-05
1.4135e-05
1.3406e-05
1.28279e-05
1.23748e-05
1.20176e-05
1.18178e-05
1.23126e-05
7.5698e-06
1.426e-05
1.72024e-05
2.00575e-05
2.28854e-05
2.56498e-05
2.83473e-05
3.09093e-05
3.32987e-05
3.54022e-05
3.65918e-05
4.16025e-05
0.000209488
0.000263111
0.000312903
0.000339904
0.000340959
0.000305458
0.000254853
0.000214538
0.000185089
0.000161173
3.33887e-05
0.000139614
0.000177964
0.000246496
0.000324413
0.000353918
0.000324956
0.000265768
0.000214934
0.000178757
0.000150782
3.12122e-05
0.000102974
0.000146803
0.000196647
0.000264289
0.000344221
0.000344988
0.000284398
0.000222411
0.000178056
0.000145095
3.09085e-05
8.50505e-05
0.000131309
0.000173156
0.000226425
0.000300504
0.000353483
0.000307427
0.000236811
0.000184121
0.000147167
3.0532e-05
7.73182e-05
0.000121304
0.000158716
0.000202514
0.000259803
0.00032848
0.000328492
0.000257563
0.000196641
0.000155616
2.94069e-05
7.45999e-05
0.000114524
0.000148522
0.00018486
0.000227058
0.000282832
0.000321294
0.000281857
0.00021527
0.000168532
2.76906e-05
7.4833e-05
0.00011069
0.000141583
0.000172007
0.000202937
0.000241175
0.000283659
0.000290847
0.000240486
0.00018647
2.55665e-05
7.74544e-05
0.000110087
0.000137875
0.00016358
0.000186843
0.000211712
0.000242715
0.000271782
0.000259853
0.0002112
2.32668e-05
8.28682e-05
0.000113288
0.000137468
0.00015893
0.000176829
0.00019289
0.00021185
0.000239108
0.000258502
0.000235821
2.19152e-05
9.34185e-05
0.000121966
0.000141377
0.000158137
0.000171572
0.00018179
0.000191998
0.000209722
0.000237306
0.000247952
2.27609e-05
0.000112716
0.0001398
0.000152661
0.000162986
0.000171359
0.00017696
0.00018126
0.000190208
0.000211823
0.000240084
2.38613e-05
0.000138873
0.000168963
0.000175207
0.000176533
0.000177651
0.000178031
0.000177639
0.000180082
0.000192904
0.000220843
2.35353e-05
0.00016079
0.000203035
0.000209244
0.00020158
0.000192749
0.000185723
0.000180069
0.000177219
0.00018245
0.000202655
2.20137e-05
0.000171221
0.000230841
0.00024766
0.000237785
0.000218925
0.000201979
0.000189119
0.000180695
0.000179573
0.000191335
1.99423e-05
0.000172582
0.000247709
0.000279933
0.000278989
0.000255666
0.000228419
0.000206266
0.000190959
0.000183771
0.000188174
1.77837e-05
0.000166603
0.000252969
0.000298475
0.000314246
0.000297195
0.00026404
0.000232335
0.000208853
0.000195178
0.000193089
1.57777e-05
0.000154383
0.000246946
0.000301029
0.000333686
0.000333177
0.000303526
0.000265909
0.000234596
0.000214251
0.000206285
1.40344e-05
0.000138292
0.000232059
0.000290351
0.000334518
0.00035399
0.000338058
0.000302142
0.0002664
0.000240687
0.000228061
1.26285e-05
0.000121708
0.000211961
0.000271568
0.000320546
0.000356111
0.000359633
0.000334038
0.000299998
0.000272488
0.000257423
1.14407e-05
0.000107784
0.000192464
0.000249302
0.000298026
0.000343748
0.000365453
0.000355205
0.000329078
0.000304732
0.000291045
1.0207e-05
9.60565e-05
0.000174274
0.000229798
0.000276015
0.000323202
0.000358554
0.000361832
0.00034606
0.000328686
0.000319934
9.05291e-06
7.66358e-05
0.0001386
0.000192624
0.00024504
0.000295437
0.000339337
0.000351735
0.000344314
0.000333634
0.000329777
9.602e-06
7.15194e-05
0.000108193
0.000140364
0.000166409
0.000199158
0.000252836
0.000295156
0.000313476
0.000316686
0.000315841
8.56823e-06
1.36993e-05
1.86752e-05
2.46259e-05
3.20967e-05
4.38477e-05
6.41762e-05
0.000102477
0.000160264
0.000218118
0.000260956
3.62889e-05
0.000205993
0.000267471
0.000299601
0.000324982
0.000328179
0.000298011
0.000255729
0.000221899
0.000197464
0.000178289
2.34252e-05
0.000153464
0.00024366
0.000300624
0.000331727
0.000338793
0.000312303
0.000269889
0.000234872
0.000210618
0.000193213
2.24435e-05
0.000126082
0.000218715
0.000308702
0.000355556
0.000365679
0.000338638
0.000290867
0.000249846
0.000222232
0.000203731
2.4145e-05
0.000115351
0.000206871
0.000311158
0.000374341
0.000395026
0.000372233
0.000320579
0.000270904
0.000236482
0.000214118
2.65914e-05
0.000109821
0.00020317
0.000310362
0.000380822
0.000413358
0.000401427
0.000352819
0.000298736
0.000257659
0.00022875
2.89616e-05
0.000106844
0.000202498
0.000309237
0.000384476
0.000426337
0.000423547
0.000379124
0.000323566
0.000279
0.000246225
3.1109e-05
0.000105294
0.000202958
0.00030812
0.000386464
0.000435936
0.000442091
0.000403636
0.000348785
0.000302338
0.000266929
3.31002e-05
0.000104743
0.000204059
0.000307723
0.000388377
0.000444104
0.000458354
0.000426438
0.000373634
0.000326444
0.000289382
3.47464e-05
0.000104648
0.000205283
0.000307992
0.00039075
0.00045163
0.000472865
0.0004473
0.000397137
0.000349617
0.000311003
3.60245e-05
0.000104558
0.000206382
0.000308565
0.000393502
0.000458508
0.000485624
0.000465746
0.000418303
0.000370279
0.000328789
3.69015e-05
0.000103881
0.00020668
0.000308814
0.000396056
0.000464514
0.000496509
0.000481523
0.000436893
0.000389345
0.000347578
3.74856e-05
0.000102807
0.000206182
0.000308616
0.000397999
0.000469417
0.00050546
0.000494624
0.00045287
0.000406526
0.000363895
3.76951e-05
0.000101001
0.000204567
0.000307485
0.000398884
0.000473025
0.000512654
0.000505508
0.000466731
0.000422519
0.000379951
3.75357e-05
9.69382e-05
0.000200039
0.000303565
0.00039716
0.000474488
0.000517882
0.000514676
0.000479429
0.000438839
0.000399279
3.694e-05
9.1605e-05
0.000192107
0.000294884
0.000388682
0.00046697
0.000514183
0.000517998
0.000490258
0.000456084
0.000422476
3.58841e-05
8.49385e-05
0.000180541
0.00028121
0.000373873
0.000451814
0.000502498
0.000515565
0.000499495
0.000475204
0.000449993
3.43646e-05
7.69133e-05
0.000165062
0.000262004
0.0003526
0.000429757
0.000484046
0.000507884
0.000506779
0.000496039
0.00048253
3.23121e-05
6.79976e-05
0.000146217
0.000237266
0.000324747
0.000400965
0.000459019
0.000494048
0.000509438
0.000514976
0.000516065
2.96892e-05
5.84697e-05
0.000124685
0.00020708
0.0002898
0.000364519
0.000425945
0.000471193
0.000502318
0.000524734
0.000541901
2.64733e-05
4.84714e-05
0.000101253
0.00017185
0.000247147
0.000318706
0.000381882
0.000434736
0.000478361
0.000515371
0.000547061
2.26345e-05
3.82429e-05
7.70585e-05
0.000132925
0.000197026
0.000262023
0.000323456
0.000379346
0.000429874
0.000476235
0.000518395
1.81989e-05
2.81875e-05
5.37717e-05
9.29549e-05
0.000141598
0.000194822
0.000248732
0.00030094
0.000350728
0.000398868
0.000446321
1.3214e-05
1.80429e-05
3.18447e-05
5.43407e-05
8.46746e-05
0.000120763
0.000160053
0.00020041
0.000241153
0.000283749
0.000331588
7.97582e-06
1.05663e-05
1.77401e-05
2.85798e-05
4.33624e-05
6.20805e-05
8.42199e-05
0.000109093
0.000136012
0.00016665
0.000205936
1.25856e-05
1.49313e-05
1.62325e-05
1.70093e-05
1.74769e-05
1.75524e-05
1.65315e-05
1.65097e-05
1.65857e-05
3.6368e-05
5.36494e-05
7.82767e-05
0.000104901
0.00012073
0.000132423
0.000131307
0.000118224
0.000105822
7.0855e-05
0.000108794
0.000153927
0.000192058
0.000213518
0.000227163
0.000221743
0.000203259
0.000187075
0.000104661
0.000158291
0.000217784
0.000258648
0.000272654
0.000277882
0.00026891
0.000247859
0.000235129
8.13955e-06
6.86885e-06
6.65269e-06
7.15941e-06
1.0413e-05
1.33997e-05
1.50061e-05
1.58691e-05
1.63842e-05
2.85005e-05
2.53908e-05
2.59783e-05
2.43526e-05
2.75648e-05
3.53779e-05
5.02074e-05
7.12369e-05
9.15756e-05
4.85807e-05
3.95648e-05
4.16646e-05
4.28992e-05
5.1798e-05
7.04363e-05
0.000101208
0.000139176
0.000168006
6.91983e-05
5.3125e-05
5.79087e-05
6.43848e-05
7.7339e-05
0.000103735
0.000145325
0.000192024
0.000222627
0.000195845
0.000229746
0.000229798
7.29326e-05
0.000413994
0.000229164
8.74429e-05
0.000229737
0.000229175
0.000233949
0.000400084
0.000229743
0.000123997
0.000188467
0.00012392
0.000228755
0.000160317
7.30064e-05
0.000228763
0.000228679
0.000229542
3.25241e-05
0.000229949
0.000263239
0.000229277
0.000191977
0.000132687
8.65156e-05
0.000284928
0.000558999
0.000142121
0.000235803
0.000116301
0.000229508
0.000241235
0.000229694
0.000249076
0.000229265
9.86433e-05
0.000229067
1.96284e-05
0.000229543
0.000106457
0.000229928
0.000464661
4.43748e-05
5.14417e-05
8.2676e-05
0.000239759
0.000229777
0.00055693
0.000229088
0.000481199
0.000106051
0.00022965
0.000229341
3.31454e-05
0.000229088
0.000310644
0.000103768
3.24061e-05
0.000422705
0.000495225
0.00016148
2.66798e-05
0.000228687
0.00066307
0.000232903
0.000229737
0.000233445
0.000189914
0.000233007
6.0475e-05
0.000240413
0.000131212
0.000231288
1.98101e-05
0.000229733
0.000138082
0.0003963
0.00068128
0.000137893
0.000229278
0.000229804
0.000247545
6.12356e-05
0.000428065
0.00031647
4.52799e-05
0.000282362
0.000229488
0.000229132
2.30408e-05
0.000234137
0.000399974
0.000136346
9.90743e-05
0.000234789
4.37361e-05
0.000234977
0.000251161
8.44031e-05
0.000230065
0.000236476
4.94509e-05
0.000229559
0.000181508
0.000229872
0.00011022
0.000234611
0.000229513
0.00022959
0.00023098
6.94299e-05
7.65228e-05
0.000228993
0.000229045
0.000228968
0.000229617
0.000229132
6.7321e-05
0.000239021
0.000249475
0.000188567
4.20654e-05
0.000192856
0.000862727
0.000176512
0.000143009
0.00011911
0.000229296
0.000102213
8.00953e-05
0.000231697
0.00022977
0.000230396
2.04201e-05
0.00010502
0.000548683
0.000244716
0.000110468
0.000231117
0.00023914
0.000167954
0.000229052
3.82721e-05
0.000113927
0.000232285
0.000235101
0.000229563
0.000229824
0.000229251
4.04469e-05
0.000238245
7.39367e-05
5.97949e-05
6.82687e-05
2.92152e-05
0.000170151
0.000228893
0.000217327
4.90685e-05
0.000232489
0.000229016
0.000679297
0.000115988
5.67722e-05
0.00023987
0.000230018
2.74805e-05
0.000147734
0.00015924
0.000225147
0.000229533
0.000235058
0.000220272
0.000155231
3.92207e-05
0.000465973
0.000199654
0.000231771
2.66384e-05
0.000229946
0.000139357
0.000229583
0.000106441
0.000230308
0.000228978
0.000229716
0.00017362
0.000109771
0.000197264
0.000228623
2.00679e-05
0.00022977
0.00022899
0.000229465
4.41293e-05
0.000115976
0.000230001
3.57874e-05
0.000230166
0.000109671
0.000139282
0.000229824
0.000333086
0.000233637
0.000143089
0.000229468
0.00022873
0.000328871
0.00022896
0.000175277
0.000238931
0.000229377
0.000182777
0.000229402
4.99005e-05
0.000230318
8.12047e-05
7.52878e-05
6.5563e-05
9.81709e-05
7.57196e-05
0.000192009
0.000229105
0.000113259
0.000116513
0.000111073
0.000309473
3.17159e-05
0.000228588
0.000229989
0.000239183
3.90901e-05
0.000312588
0.000687968
0.0002299
0.000229747
0.000229731
5.03525e-05
0.000190698
0.000236594
2.02019e-05
0.000240962
5.00146e-05
0.000229437
0.000141587
0.000153626
0.000851137
0.000141578
0.000330056
0.000231322
0.000228886
0.000233819
0.000229346
0.000229295
0.000229217
4.63265e-05
0.000230434
0.000123614
0.000191792
0.000228214
0.000229685
0.00022949
5.05849e-05
0.000231441
0.000245244
0.000159548
0.000179814
0.000215499
0.000229449
0.000230213
5.10243e-05
0.000229173
0.000228945
0.000184144
0.000229283
0.000238356
4.90203e-05
0.000234326
0.00022973
0.000682487
0.000650339
0.000233453
0.000229116
0.000504926
0.000229769
0.000237967
0.000107386
0.000229808
9.89349e-05
0.000237626
8.27362e-05
0.00023001
0.000229373
0.000229495
0.000229686
0.000240681
0.000187465
0.000229366
5.98384e-05
0.000242823
0.000555706
0.000229261
0.000234896
0.000229744
0.000265911
2.77705e-05
0.000229051
5.45679e-05
0.00022958
0.000233831
0.000119798
2.28386e-05
0.000231638
0.000171756
6.40463e-05
0.000228726
0.000237099
0.000229967
0.000550103
0.0002289
0.00019253
0.000113498
0.000234534
0.000229194
0.000207462
0.000228287
0.000530943
0.000237712
0.000490515
1.85715e-05
0.000229887
9.95745e-05
0.000214668
6.67146e-05
0.00022972
0.000229347
0.000238998
5.13887e-05
0.000314507
0.000230376
0.000111689
0.000197583
0.000267891
8.7987e-05
0.000228953
0.000212609
0.000916434
5.85297e-05
0.000235685
0.000179846
0.000229288
0.000106102
0.000230036
7.29706e-05
0.000206789
0.000229928
0.000628179
0.000136159
0.000186187
0.000229423
0.000229344
0.000229657
5.08434e-05
0.000167957
5.9303e-05
7.14539e-05
0.000245258
0.000229261
0.000139746
0.000183584
0.000193231
0.000112919
0.000229801
0.000152604
0.000241033
0.000229138
0.000229525
0.000559055
0.000229015
3.65749e-05
0.000229108
0.000197353
0.000690562
5.95755e-05
0.000191811
0.000189276
4.59442e-05
0.000229293
4.82603e-05
0.000185873
0.00024395
0.00069974
2.52837e-05
0.000229323
0.000229357
0.000229782
8.16647e-05
4.61776e-05
0.000228946
0.000229936
0.000110247
9.70076e-05
1.68823e-05
0.000102928
0.000141562
0.000230145
0.000550727
0.000239514
0.00022875
0.000115253
0.000117085
4.9554e-05
0.000233831
0.000109849
0.000244244
0.000182902
4.97651e-05
0.000305837
0.000150503
9.08989e-05
0.000109978
0.000227238
0.000234047
0.000239289
7.43157e-05
0.000235129
3.10034e-05
0.000229308
3.6785e-05
0.000207474
0.000228633
0.000244392
6.53835e-05
0.000295486
0.00051491
0.000187921
0.000230033
0.000236566
0.000404062
7.89115e-05
5.95859e-05
0.000233751
7.12514e-05
0.000132608
2.73595e-05
0.00022896
3.9987e-05
0.000229342
0.000229756
0.000229387
4.98132e-05
9.49188e-05
7.29381e-05
0.000149747
3.35605e-05
8.16942e-05
0.000229704
0.00022898
0.000887586
0.000182306
0.000233875
0.000239778
4.14174e-05
4.5281e-05
2.96836e-05
2.93526e-05
0.000236996
0.000211793
5.23066e-05
0.000229657
3.17585e-05
0.000236087
0.000229767
0.000229334
8.0568e-05
3.52922e-05
0.000230103
0.000229085
0.000229544
0.0002596
2.34479e-05
0.000229884
4.08173e-05
0.000357689
0.000156616
6.32469e-05
0.000228825
3.71436e-05
0.000229014
0.000236159
0.000229076
0.00012499
0.00015003
0.000228665
0.000193686
0.000168884
0.000243248
0.000223713
0.000207392
0.00022964
0.000229458
0.000214333
6.86801e-05
5.66751e-05
0.000238244
8.45065e-05
0.000229768
0.000462659
0.000104879
4.39688e-05
0.000109312
0.000250364
0.000670901
7.07887e-05
0.000193461
0.000229175
0.000184512
0.000228828
0.000229723
0.000229205
0.000229749
0.000233261
0.000534332
0.00022968
0.00022885
0.000161578
0.000229328
4.4465e-05
0.000246237
0.000224738
0.000176687
4.66572e-05
0.000230009
0.000229278
0.000229819
2.06548e-05
3.53892e-05
0.000229378
0.000229244
0.000188429
0.000229751
7.43468e-05
0.000229714
0.000733735
0.000236933
3.15388e-05
9.37568e-05
0.000131579
5.01075e-05
0.000490731
0.000229308
0.00023151
0.000234916
0.000229804
6.55073e-05
2.65304e-05
0.000223917
0.000126874
0.000220931
0.000123243
0.000229294
0.000230138
0.000229679
0.00012915
0.000728694
8.41001e-05
0.000229595
0.000229028
0.000656274
0.00023143
9.77279e-05
0.000137093
0.000163625
0.000303204
0.000229155
8.86794e-05
0.000229245
7.09051e-05
0.000229573
0.000131706
0.000150721
0.000234725
2.41084e-05
0.000135817
0.000229835
0.00022998
0.000412941
0.000228952
0.000183744
9.83234e-05
7.64921e-05
0.00012139
5.19166e-05
0.00015326
0.000231184
0.00022929
0.000229546
0.000125524
5.12784e-05
0.000112963
0.000228666
0.000229328
8.83891e-05
0.00023048
0.000236721
0.000236243
0.00023314
0.000109238
5.50245e-05
7.67408e-05
0.000159974
0.000233578
0.000220362
0.000228859
0.00015557
0.000231209
0.000229421
0.000149755
0.000419986
0.000228927
0.00022896
2.09557e-05
0.000230217
0.000228948
0.000147689
0.000229719
0.000233418
9.48493e-05
8.68248e-05
0.000158695
0.000180131
0.000159907
6.85836e-05
0.000397228
6.26214e-05
0.000105665
0.000180187
5.22519e-05
7.09138e-05
0.000129134
0.000229773
0.000230216
0.000112802
0.000230108
0.000229693
0.00023718
0.000207537
0.00010703
0.000158824
0.000192966
0.000222707
0.000229096
0.000186275
0.000229517
0.000229271
0.000236696
7.83248e-05
0.000231387
0.00024099
0.000231238
0.000229785
0.000115871
6.23049e-05
0.000296837
0.000231528
0.000231182
0.00018994
0.000135873
0.000235916
0.000168073
0.000231196
0.000149793
0.000517989
0.000229133
6.78308e-05
0.000229937
0.000120849
0.000129474
0.000106349
0.000124011
0.00021551
0.000246545
0.00022983
0.000100027
0.000182472
4.67535e-05
0.000855208
0.000228932
0.00023362
0.00022982
0.000161153
0.000230022
4.26105e-05
0.000229593
0.000229122
0.000229087
0.000133023
6.4024e-05
0.000229569
0.000130059
0.000229265
0.00011536
0.000170299
0.000231086
0.000107752
2.04491e-05
8.2735e-05
0.000237091
0.000198309
0.000137583
0.000123884
0.000129202
8.77247e-05
0.000229243
0.000147708
0.000229497
0.000236848
5.02097e-05
0.000241996
3.67523e-05
0.000188447
0.000231113
0.00023351
0.000229165
5.4906e-05
0.000229688
0.00094714
9.81102e-05
0.000707756
0.000233176
0.000138828
0.000121665
0.000117686
0.000239137
0.000121956
3.67508e-05
6.04259e-05
0.000229597
0.000186119
0.000222068
0.000229507
4.84062e-05
0.000119515
0.000241842
0.00014773
0.000229028
0.000235571
0.000235215
0.000131136
0.000234987
0.000192485
0.000229605
0.000120887
0.000233669
8.66326e-05
6.79645e-05
0.000365018
0.000110025
0.000228982
0.000264403
5.22062e-05
0.000229136
0.000191203
0.000188035
7.39547e-05
0.000230733
2.93419e-05
0.000239793
7.70132e-05
9.37547e-05
0.00024744
0.00022925
0.00024756
0.000229055
8.204e-05
2.01467e-05
0.000230048
0.000229573
0.000251719
0.000359256
0.00052892
0.000153195
0.000229752
0.000144658
0.000237846
0.000229576
0.000229678
0.00022979
0.000229447
0.00024039
0.000159902
4.77584e-05
0.000125445
0.000178303