/*--------------------------------*- C++ -*----------------------------------*\
| =========                 |                                                 |
| \\      /  F ield         | OpenFOAM: The Open Source CFD Toolbox           |
|  \\    /   O peration     | Version:  3.0.1                                 |
|   \\  /    A nd           | Web:      www.OpenFOAM.org                      |
|    \\/     M anipulation  |                                                 |
\*---------------------------------------------------------------------------*/
FoamFile
{
    version     2.0;
    format      ascii;
    class       volScalarField;
    location    "0.0755343";
    object      p;
}
// * * * * * * * * * * * * * * * * * * * * * * * * * * * * * * * * * * * * * //

dimensions      [0 2 -2 0 0 0 0];

internalField   nonuniform List<scalar> 
21246
(
-6.19892
-3.50491
-2.37533
-1.7588
-1.36581
-1.10895
-0.954813
-0.877404
-0.854674
-0.859973
-0.832639
-10.567
-6.94549
-5.33049
-4.07346
-3.0205
-2.26941
-1.79217
-1.49999
-1.3287
-1.23246
-1.16359
-8.98037
-7.78143
-6.93322
-5.80003
-4.60063
-3.57134
-2.78937
-2.23949
-1.87361
-1.62527
-1.42429
-7.11162
-6.98303
-6.72899
-6.15449
-5.34719
-4.44474
-3.61431
-2.93709
-2.42529
-2.05181
-1.75571
-6.03218
-6.05647
-5.98699
-5.74204
-5.30387
-4.72792
-4.06578
-3.42557
-2.87933
-2.44282
-2.08831
-5.53043
-5.44625
-5.37845
-5.25793
-5.03074
-4.67015
-4.19411
-3.6706
-3.16789
-2.72769
-2.34199
-5.35312
-5.13708
-5.04549
-4.92601
-4.75805
-4.51014
-4.1649
-3.74612
-3.30413
-2.88487
-2.49143
-5.3029
-5.0102
-4.90508
-4.74726
-4.57335
-4.36292
-4.08324
-3.73163
-3.33745
-2.94205
-2.56025
-5.26834
-4.96033
-4.841
-4.6501
-4.46292
-4.25805
-4.00095
-3.67982
-3.3103
-2.92572
-2.54974
-5.24283
-4.93789
-4.79507
-4.59672
-4.4018
-4.18988
-3.93213
-3.61502
-3.24784
-2.85883
-2.47678
-5.21594
-4.91835
-4.76372
-4.56324
-4.35799
-4.13393
-3.8654
-3.53755
-3.15726
-2.75127
-2.35325
-5.17362
-4.87781
-4.7216
-4.51722
-4.30056
-4.06399
-3.7811
-3.43632
-3.03544
-2.60514
-2.17925
-5.1125
-4.81853
-4.66014
-4.449
-4.2214
-3.97097
-3.67167
-3.30681
-2.88239
-2.42777
-1.98067
-5.03524
-4.74443
-4.5829
-4.36516
-4.12336
-3.85735
-3.54067
-3.15418
-2.70519
-2.22592
-1.75652
-4.94663
-4.65687
-4.49428
-4.27047
-4.01499
-3.72983
-3.39558
-2.98941
-2.51692
-2.01532
-1.52221
-4.8501
-4.56342
-4.4008
-4.17301
-3.91033
-3.60933
-3.25968
-2.83349
-2.34003
-1.82022
-1.31451
-4.75392
-4.47445
-4.31432
-4.08748
-3.82397
-3.5189
-3.15623
-2.71365
-2.20088
-1.66163
-1.13226
-4.66522
-4.39655
-4.24373
-4.02575
-3.77071
-3.47143
-3.10552
-2.65535
-2.12836
-1.57328
-1.03345
-4.58504
-4.33428
-4.19627
-3.9964
-3.76118
-3.47937
-3.12554
-2.67913
-2.14735
-1.57992
-1.02114
-4.51809
-4.29407
-4.17813
-4.00728
-3.80345
-3.55159
-3.22194
-2.79254
-2.2688
-1.69381
-1.10653
-4.46358
-4.28249
-4.19529
-4.06237
-3.89793
-3.68743
-3.39335
-2.99201
-2.49471
-1.93175
-1.31719
-4.40671
-4.3039
-4.25411
-4.16307
-4.04836
-3.89499
-3.66899
-3.30678
-2.81762
-2.23422
-1.55988
-4.36432
-4.42236
-4.39908
-4.34784
-4.25408
-4.08093
-3.83059
-3.51776
-3.11488
-2.59968
-1.95983
-4.99474
-4.58409
-4.47527
-4.41377
-4.33566
-4.2228
-4.04467
-3.79097
-3.44278
-2.98354
-2.39399
3.90841
1.83035
0.533573
-0.045286
-0.253379
-0.313236
-0.341424
-0.386601
-0.456708
-0.528506
-0.542267
4.39587
3.77327
2.68079
1.72502
1.05617
0.63072
0.347748
0.127267
-0.0695656
-0.23251
-0.293907
2.87654
3.08389
2.85388
2.34473
1.78731
1.30079
0.900734
0.561836
0.25919
0.00493346
-0.117312
1.75012
2.09382
2.19792
2.10142
1.83759
1.49353
1.13692
0.7887
0.451491
0.157865
0.0208289
1.01439
1.28131
1.43795
1.49654
1.44182
1.28919
1.06944
0.802226
0.499535
0.204738
0.0425255
0.447286
0.606305
0.73502
0.834934
0.877701
0.845555
0.74421
0.582958
0.362074
0.11782
-0.00795252
-0.0667736
0.00556716
0.085256
0.159341
0.213195
0.231581
0.207844
0.143788
0.028478
-0.13015
-0.211434
-0.554042
-0.544885
-0.51272
-0.486143
-0.466775
-0.45778
-0.460624
-0.474711
-0.505181
-0.562898
-0.572818
-1.0141
-1.06718
-1.07164
-1.09606
-1.12783
-1.16184
-1.18987
-1.20003
-1.18573
-1.16139
-1.08416
-1.45153
-1.56632
-1.59705
-1.67543
-1.7617
-1.8511
-1.93273
-1.97963
-1.96192
-1.87851
-1.72037
-1.86911
-2.04125
-2.09139
-2.22762
-2.36672
-2.5139
-2.65813
-2.7678
-2.7891
-2.67965
-2.46087
-2.26124
-2.47843
-2.5686
-2.74696
-2.93586
-3.14153
-3.34926
-3.52556
-3.60991
-3.5184
-3.25311
-2.63018
-2.8846
-3.01715
-3.22547
-3.46431
-3.72536
-3.99215
-4.22931
-4.37397
-4.32599
-4.00882
-2.97273
-3.25524
-3.42494
-3.66311
-3.94351
-4.25132
-4.567
-4.85252
-5.04273
-5.03751
-4.75588
-3.28157
-3.5831
-3.78374
-4.04688
-4.35721
-4.69742
-5.04519
-5.36082
-5.5786
-5.60012
-5.36078
-3.5511
-3.85852
-4.08046
-4.35725
-4.67976
-5.0314
-5.3894
-5.71454
-5.94204
-5.97773
-5.79772
-3.76801
-4.06562
-4.29603
-4.57017
-4.88442
-5.22545
-5.57219
-5.88717
-6.10697
-6.13622
-5.91073
-3.92092
-4.19529
-4.4197
-4.67487
-4.96376
-5.27704
-5.59555
-5.88351
-6.08134
-6.11099
-5.94605
-4.01038
-4.25125
-4.45484
-4.67967
-4.93188
-5.20496
-5.48049
-5.72435
-5.88125
-5.87517
-5.6528
-4.04521
-4.24341
-4.4164
-4.60571
-4.81623
-5.04132
-5.26176
-5.44511
-5.54286
-5.49146
-5.23701
-4.03846
-4.18876
-4.32985
-4.48408
-4.65329
-4.82779
-4.98565
-5.09672
-5.12653
-5.01816
-4.73006
-3.98971
-4.11532
-4.22568
-4.35113
-4.4858
-4.61249
-4.70383
-4.73323
-4.67347
-4.48408
-4.09454
-4.03394
-4.0695
-4.14888
-4.25229
-4.34886
-4.41443
-4.42651
-4.3651
-4.20891
-3.9398
-3.52613
-3.70714
-3.89642
-4.02699
-4.11902
-4.16619
-4.16007
-4.0888
-3.94245
-3.70959
-3.37418
-2.92141
1.14429
-0.224899
-0.426551
-0.313361
-0.0499982
0.281116
0.520311
0.665322
0.724785
0.730894
0.797519
9.95256
7.5158
5.54157
4.20774
3.35108
2.82213
2.4762
2.21598
1.98522
1.7749
1.6419
10.5121
9.84386
8.6
7.307
6.11785
5.13197
4.34346
3.71709
3.20054
2.7605
2.44321
9.61032
9.5959
9.15252
8.45307
7.55434
6.64708
5.75703
4.94325
4.22744
3.62019
3.18607
8.87865
9.03412
8.90722
8.61267
8.05698
7.37089
6.59097
5.79853
5.04928
4.3901
3.89932
8.32374
8.56228
8.53853
8.4163
8.12614
7.67724
7.09244
6.41678
5.70385
5.01796
4.45747
7.81728
8.05306
8.09212
8.09578
7.98519
7.71907
7.29276
6.73289
6.08617
5.42035
4.83523
7.35452
7.53292
7.59274
7.63558
7.60726
7.46249
7.17449
6.74449
6.20005
5.60653
5.07946
6.91919
7.06702
7.11761
7.16313
7.1629
7.07902
6.88071
6.55448
6.10872
5.59175
5.11295
6.49048
6.62882
6.67209
6.71259
6.71837
6.66016
6.51117
6.25428
5.88692
5.44078
5.00924
6.11616
6.23066
6.25793
6.286
6.28585
6.23436
6.10947
5.89497
5.58359
5.19868
4.836
5.81982
5.88437
5.88051
5.88453
5.86707
5.80878
5.69115
5.50014
5.22734
4.88838
4.56765
5.50663
5.53799
5.51187
5.49252
5.45356
5.38065
5.2593
5.07879
4.83212
4.53083
4.25068
5.15086
5.16981
5.13146
5.09237
5.03169
4.94055
4.8089
4.63016
4.39989
4.12576
3.88009
4.84975
4.82206
4.75004
4.68055
4.59218
4.47803
4.33123
4.1495
3.93248
3.68598
3.47082
4.51259
4.44098
4.33946
4.23873
4.1194
3.97857
3.81379
3.62803
3.4256
3.21044
3.03574
4.09567
3.99738
3.87634
3.74579
3.59351
3.42381
3.24123
3.05529
2.8749
2.70042
2.57106
3.67725
3.52378
3.36328
3.18921
2.99537
2.79349
2.59689
2.42168
2.27926
2.16446
2.09999
3.20672
2.98145
2.76977
2.53842
2.29253
2.05814
1.86058
1.71955
1.64103
1.6068
1.62207
2.63129
2.31991
2.04641
1.74497
1.44297
1.18838
1.01923
0.950924
0.97125
1.04045
1.13495
1.91709
1.48692
1.12812
0.746152
0.39803
0.161432
0.0783848
0.140418
0.301438
0.49956
0.691547
1.03112
0.361807
-0.0847146
-0.538746
-0.88156
-1.01196
-0.915803
-0.655195
-0.318184
0.0203938
0.313574
-0.689515
-1.1587
-1.73096
-2.17514
-2.36259
-2.23298
-1.8527
-1.34883
-0.831359
-0.365895
0.00819596
0.155237
-2.9125
-3.53365
-3.76316
-3.61334
-3.13563
-2.48052
-1.79604
-1.1633
-0.621099
-0.205088
-22.4186
-10.857
-6.41726
-4.44858
-2.87646
-1.80053
-1.18702
-0.749909
-0.468919
-0.302789
-0.12913
-22.8061
-16.4891
-13.0286
-10.0947
-7.19888
-4.9964
-3.50942
-2.50945
-1.87244
-1.43536
-1.06451
-16.1088
-16.2201
-15.4384
-13.5233
-10.9884
-8.47391
-6.33029
-4.70025
-3.5557
-2.75584
-2.13323
-14.9004
-15.0942
-15.0482
-14.4092
-13.0528
-11.1298
-8.98289
-7.00306
-5.42482
-4.2436
-3.31205
-15.0686
-15.004
-14.8698
-14.6439
-14.0554
-12.8754
-11.1413
-9.16657
-7.32524
-5.80962
-4.59137
-15.4575
-15.4108
-15.2419
-15.0946
-14.8433
-14.1863
-12.9267
-11.1555
-9.20778
-7.4055
-5.87004
-15.9993
-16.0358
-15.9613
-15.8193
-15.7274
-15.4149
-14.5638
-13.0545
-11.097
-9.06731
-7.16664
-16.6129
-16.7317
-16.7357
-16.7493
-16.7433
-16.6808
-16.1753
-14.9309
-13.0071
-10.7948
-8.59685
-17.2752
-17.4858
-17.576
-17.7564
-17.9328
-18.0744
-17.8291
-16.8121
-14.9176
-12.4949
-9.89642
-17.8803
-18.2086
-18.3901
-18.7427
-19.1759
-19.5065
-19.4886
-18.6614
-16.7755
-14.1437
-11.1903
-18.2541
-18.8369
-19.093
-19.6101
-20.257
-20.828
-21.0544
-20.3761
-18.453
-15.5794
-12.2981
-18.5865
-19.2402
-19.5557
-20.2264
-21.0428
-21.8806
-22.329
-21.746
-19.7487
-16.6071
-13.0117
-18.6911
-19.3226
-19.7949
-20.5274
-21.4608
-22.4763
-23.0475
-22.5213
-20.4335
-17.0264
-13.0043
-18.4794
-19.0983
-19.6633
-20.4345
-21.3887
-22.4191
-22.9749
-22.486
-20.2918
-16.7166
-12.5592
-17.9858
-18.5147
-19.0897
-19.8349
-20.7309
-21.6245
-22.0772
-21.4574
-19.2065
-15.5662
-11.5018
-17.1137
-17.494
-18.006
-18.6636
-19.434
-20.1353
-20.3698
-19.483
-17.1322
-13.6603
-9.80436
-15.7992
-16.0093
-16.4138
-16.9529
-17.5638
-18.027
-17.9566
-16.8549
-14.4238
-11.1859
-7.61981
-14.0409
-14.101
-14.4116
-14.8737
-15.3661
-15.6037
-15.2059
-13.8423
-11.4312
-8.42848
-5.22092
-11.8806
-11.912
-12.2525
-12.7581
-13.2166
-13.2664
-12.5371
-10.8635
-8.43977
-5.79503
-3.16597
-9.61879
-9.86041
-10.4086
-11.0237
-11.4377
-11.2697
-10.1717
-8.15378
-5.69903
-3.40547
-1.32987
-8.1134
-8.75059
-9.64453
-10.4144
-10.8062
-10.397
-8.88432
-6.50837
-4.07494
-1.92727
-0.121442
-7.78482
-9.1112
-10.3852
-11.2158
-11.5661
-10.5156
-7.81612
-5.25048
-3.05907
-1.30324
0.0366698
-9.98236
-12.8741
-12.6764
-11.7669
-10.1255
-8.07614
-5.62174
-3.69601
-2.17914
-1.02274
-0.248422
-16.8522
-10.8308
-8.60072
-7.26842
-5.8828
-4.50764
-3.23918
-2.22869
-1.40205
-0.740817
-0.283543
12.8394
12.7702
11.4223
9.70204
7.75829
6.18123
4.86874
3.79425
2.90333
2.19661
1.79307
-12.8659
-1.90193
1.22537
3.68887
4.20856
3.98161
3.37375
2.71881
2.09419
1.55929
1.228
-24.2519
-13.8691
-10.3058
-4.68662
-1.73894
0.115142
0.82693
0.996932
0.8945
0.709966
0.585205
-25.2311
-19.3391
-17.3316
-11.2711
-7.72078
-4.45376
-2.4495
-1.28052
-0.711137
-0.410625
-0.233234
-22.5887
-19.7748
-19.1601
-14.4695
-11.7118
-8.10048
-5.56143
-3.6068
-2.4973
-1.68762
-1.14069
-19.6568
-18.1489
-18.1031
-14.9306
-13.2873
-10.0865
-7.74484
-5.58392
-4.01557
-2.8942
-2.06674
-16.9279
-16.0556
-16.1261
-13.9979
-13.1339
-10.5986
-8.78231
-6.75505
-5.13852
-3.84288
-2.831
-14.3097
-13.8774
-13.9945
-12.5296
-12.0798
-10.1727
-8.89103
-7.15707
-5.71976
-4.44448
-3.39432
-11.9821
-11.8529
-11.9324
-10.9192
-10.6664
-9.27073
-8.39002
-6.99067
-5.81094
-4.6669
-3.67353
-10.1726
-10.0329
-10.0625
-9.35461
-9.18582
-8.17454
-7.55937
-6.4737
-5.54815
-4.57921
-3.69405
-8.45779
-8.35243
-8.33034
-7.86576
-7.75417
-7.02961
-6.59694
-5.77434
-5.06583
-4.28008
-3.5552
-6.81843
-6.74929
-6.7556
-6.46611
-6.41224
-5.90773
-5.61174
-5.0019
-4.46762
-3.84257
-3.25575
-5.54109
-5.43237
-5.43539
-5.24381
-5.22038
-4.87395
-4.6736
-4.22843
-3.82878
-3.34065
-2.88107
-4.60785
-4.43624
-4.41139
-4.26076
-4.23162
-3.98131
-3.83297
-3.50382
-3.20089
-2.82276
-2.46628
-3.82013
-3.61164
-3.58348
-3.46391
-3.42449
-3.2318
-3.10497
-2.84989
-2.61041
-2.31508
-2.03388
-3.24728
-3.00606
-2.96298
-2.85039
-2.7876
-2.61796
-2.48651
-2.26969
-2.06658
-1.83328
-1.62462
-2.87716
-2.61336
-2.54297
-2.41308
-2.30872
-2.12713
-1.96503
-1.75505
-1.56665
-1.37645
-1.21335
-2.60785
-2.33173
-2.22915
-2.08172
-1.92881
-1.71608
-1.50961
-1.28618
-1.10015
-0.944859
-0.833541
-2.39261
-2.10977
-1.97728
-1.80162
-1.6007
-1.34706
-1.09046
-0.844205
-0.658632
-0.537668
-0.484484
-2.18716
-1.90341
-1.74842
-1.54653
-1.29811
-0.994313
-0.686649
-0.419619
-0.241101
-0.152768
-0.136874
-1.97327
-1.69438
-1.52602
-1.29687
-0.995249
-0.634903
-0.287889
-0.0203149
0.136669
0.196016
0.203188
-1.72707
-1.4908
-1.29186
-1.01535
-0.645546
-0.243359
0.0955299
0.315372
0.424513
0.448346
0.433702
-1.61042
-1.25936
-1.00648
-0.629625
-0.194716
0.180035
0.427646
0.557344
0.619382
0.659403
1.00469
-0.794703
-0.629446
-0.229938
0.189833
0.445681
0.567499
0.590981
0.541312
0.458301
0.388267
0.531451
26.7656
21.4703
16.5171
12.5449
9.65682
7.54957
5.90425
4.57412
3.48775
2.63874
2.09282
15.2377
17.0293
16.2412
14.3658
11.5663
8.99688
6.84916
5.18759
3.91543
2.9754
2.37915
3.90741
9.27405
10.7869
11.4259
10.5165
8.8814
7.14655
5.53861
4.19975
3.18671
2.51356
-3.72009
1.77482
3.96354
6.46193
7.39862
7.18642
6.2839
5.1347
3.99746
3.06312
2.45432
-7.75672
-3.46417
-1.68701
1.41725
3.25735
4.3087
4.40356
3.99008
3.31358
2.63307
2.1386
-9.65531
-6.43997
-5.31127
-2.38349
-0.463134
1.21986
2.06497
2.34722
2.20586
1.88282
1.58117
-10.4815
-7.94729
-7.33339
-4.76039
-3.23079
-1.33893
-0.156811
0.599356
0.911459
0.946899
0.891433
-10.6943
-8.63265
-8.43198
-6.06176
-5.0476
-3.21052
-1.96515
-0.966206
-0.346751
-0.00946424
0.171805
-10.7986
-8.94865
-9.03148
-6.88884
-6.07471
-4.48134
-3.29752
-2.21781
-1.43224
-0.885638
-0.505841
-10.8838
-9.31563
-9.11325
-7.53521
-6.68902
-5.30017
-4.2145
-3.13979
-2.28894
-1.62644
-1.10996
-10.8648
-9.65653
-9.16231
-7.8778
-7.06198
-5.80952
-4.80981
-3.77115
-2.90965
-2.19727
-1.6089
-10.6404
-9.63422
-9.13101
-7.99187
-7.2272
-6.0804
-5.15392
-4.15951
-3.31322
-2.58339
-1.9797
-10.4052
-9.45002
-8.97674
-7.92763
-7.21379
-6.147
-5.28659
-4.33894
-3.52464
-2.79952
-2.20772
-10.2007
-9.1996
-8.73492
-7.73105
-7.05213
-6.0471
-5.23948
-4.33984
-3.56674
-2.86538
-2.28619
-9.74813
-8.80124
-8.3819
-7.42189
-6.76491
-5.81275
-5.04194
-4.19053
-3.46129
-2.79811
-2.2512
-9.24696
-8.32648
-7.93427
-7.0103
-6.36242
-5.4572
-4.71176
-3.91031
-3.22866
-2.61732
-2.11548
-8.74289
-7.80744
-7.40886
-6.50746
-5.84987
-4.98522
-4.25901
-3.51184
-2.88636
-2.34185
-1.90347
-8.13903
-7.19708
-6.78416
-5.90417
-5.22347
-4.396
-3.6916
-3.00928
-2.44832
-1.98461
-1.61536
-7.43124
-6.48247
-6.04198
-5.18207
-4.4725
-3.68473
-3.01681
-2.41379
-1.93718
-1.57103
-1.29648
-6.63208
-5.65824
-5.16488
-4.32072
-3.58729
-2.8523
-2.25028
-1.74787
-1.3795
-1.12502
-0.956385
-5.70558
-4.68084
-4.11415
-3.29662
-2.57111
-1.92389
-1.42112
-1.04875
-0.807123
-0.66883
-0.60164
-4.57587
-3.47173
-2.84249
-2.10441
-1.45684
-0.948476
-0.587421
-0.361133
-0.248106
-0.219749
-0.247042
-3.22538
-2.02564
-1.43398
-0.891399
-0.414178
-0.0704467
0.139101
0.234721
0.237624
0.165793
0.041662
-1.27355
-0.333815
0.00866719
0.276025
0.526318
0.693088
0.766007
0.797448
0.775988
0.68228
0.460068
-2.14627
-1.83969
-1.76106
-1.76918
-2.00181
-2.81314
-3.74487
-3.74222
-2.69697
-1.96845
-1.82376
-1.76216
-1.77081
-1.93132
-2.4053
-3.01305
-2.93947
-2.10915
-1.87267
-1.76348
-1.72772
-1.74288
-1.8746
-2.31728
-2.83406
-2.78016
-2.01317
-1.74294
-1.68303
-1.67148
-1.71192
-1.80385
-2.17589
-2.54137
-2.42881
-1.8091
-2.61148
-3.00816
-2.7501
-1.79883
-0.528224
0.443978
0.504774
0.0917455
-0.947725
-2.21212
-2.4378
-2.17353
-1.5007
-0.543232
0.240909
0.297498
-0.0681833
-0.887418
-2.10391
-2.30033
-2.10689
-1.43056
-0.593185
0.0746871
0.112117
-0.208523
-0.894001
-1.92065
-2.04124
-1.83335
-1.35015
-0.66449
-0.0713565
-0.0442879
-0.329346
-0.903227
0.621656
1.00731
1.0168
-0.0363373
-0.0721842
1.37262
-0.526566
1.27253
1.38681
0.567739
-0.0757142
1.26912
-0.14429
-0.0288066
0.616504
0.961812
-0.0177973
-0.0359262
0.963938
0.604033
0.705742
-0.636728
1.13678
-0.0319493
0.969491
-0.0297615
-0.147503
-0.530277
-0.812062
-0.0417632
-0.0177932
-0.199
-0.0106646
1.08453
-0.327836
1.03082
-0.0318926
0.981006
-0.0105662
1.39069
-0.674461
1.08983
-0.0165952
1.14132
-0.301165
-0.60855
-0.0406042
-0.704367
-0.0258742
1.54914
-0.038633
1.38099
-0.000748015
-0.0174442
1.5398
0.711082
-0.668536
1.3678
-0.822138
-0.0164882
-0.894168
-0.000878767
-0.0574951
-0.0274142
-0.627868
0.606208
-0.0319294
1.8737
1.03152
0.570712
-0.040718
0.853236
-0.0420687
0.961033
-0.0263356
0.894479
-0.613096
1.10557
-0.0819489
-0.520541
-0.0136114
-0.0221563
0.682068
0.700048
-0.429543
-0.0420628
-1.29238
-0.000709068
-0.170762
-0.0207839
1.08218
1.35729
-0.641665
1.26648
-0.448647
-0.652789
-0.0240857
-0.22795
-0.152632
0.877499
-0.55827
-0.659088
0.495835
-0.309156
-0.0579202
1.16703
-0.00209362
0.68624
-0.00719107
0.2133
1.17119
1.08496
1.0891
-0.0370441
-0.0332756
0.659436
1.40077
1.09793
1.29928
0.420296
-0.0384689
0.91786
-0.296725
-0.0220933
-0.542082
-0.253089
-0.00228365
-0.00216832
-0.000835149
-0.00606447
1.26612
-0.0171047
-0.685923
0.874676
1.10362
-0.454834
-0.590182
-0.0314952
-0.038638
0.0620858
-0.0146144
0.575946
-0.364613
0.201127
1.39851
-0.0778317
-0.441116
1.84727
0.66228
1.23587
1.3936
1.29453
-0.0692324
0.934729
-0.0374201
-0.0217026
-0.0403058
-0.408223
-0.0240231
0.736173
-0.127132
-0.0831021
0.871711
0.775619
-0.0317563
-0.02201
-0.147319
0.512052
-0.311216
-0.629255
-0.0107998
-0.00612607
-0.312954
0.522339
-0.163589
-0.0906567
-0.00096547
-0.0777444
-0.314294
-0.038209
1.77143
-0.623591
1.07456
-0.118132
1.26086
-0.0332185
1.46142
1.07766
0.871373
-0.0689715
-0.00936484
-0.047488
0.564394
-0.664159
1.0425
0.844726
1.40564
-0.132188
-0.00639665
0.671874
-0.160002
1.5911
-0.0184928
-0.0257454
1.09181
-6.2322e-05
1.2943
-0.000604959
1.50629
0.602109
-0.0187684
1.02712
0.415243
-0.234888
1.12043
-0.0112568
1.09537
-0.044073
1.53127
-0.0674449
-0.00333152
-0.0379519
-0.024806
-0.0342235
-0.0193731
1.34012
-0.116103
-0.0177065
-0.00701191
-0.0184279
-0.390945
0.546279
1.42361
0.866134
-0.0777285
-1.09179
-0.0244983
1.06978
1.23722
1.2413
-0.0428331
-0.0348248
-0.31164
-0.643716
1.82129
-0.0879594
1.07551
-0.0339793
-0.683216
-0.0126578
-0.0329952
-0.0194336
-0.874771
0.722908
-0.02963
1.39989
0.796998
0.982477
-0.113246
1.47266
-0.000849793
-0.436056
0.585066
1.12858
1.16474
-0.0487005
0.539983
2.51812
-0.0914871
-0.092509
-0.144884
1.39751
1.5988
-0.0419303
1.07513
1.08949
-0.0278976
1.14777
0.107832
-0.066275
0.852674
1.25217
-0.0142579
-0.0251442
0.000866794
0.987275
-1.07671
1.24774
0.000388852
-0.01216
1.20948
-0.492712
0.221258
-0.0270654
1.03175
1.48984
-0.284564
1.15836
-0.284673
-0.0319496
1.32647
-0.0407471
-0.161366
-0.0401649
0.83173
0.177242
1.12064
-0.00218955
-0.606683
1.28905
-0.590881
1.17376
0.159093
-0.00913744
-0.704567
0.19735
-0.0977223
-0.0404356
0.385407
1.15143
1.38059
-0.00847118
1.04448
-0.0584001
-0.00904703
0.638427
1.08923
-0.106439
0.534889
-0.01347
2.33311
-0.0761874
-0.615134
1.19279
-0.119904
-0.84539
-0.0390332
1.12791
1.13827
-0.226604
-0.477897
-0.0203299
1.61384
-0.0298646
-0.147196
-0.00269743
-0.0245732
1.08205
-0.0353352
-0.00418616
-0.512778
-0.209156
-0.0788569
0.880154
-0.0154857
0.670927
-0.0027161
0.109586
1.12907
-0.0134962
-0.0756551
-0.0345809
1.0915
0.679587
1.08176
-0.174133
-0.00683921
-0.0195569
-0.555127
-0.211429
1.13262
-0.171041
-0.786632
-0.0144018
-0.0281228
1.2065
0.0226352
-0.321508
0.981276
1.22703
-0.0192728
0.867132
-0.10019
1.32416
-0.0471659
-0.0281238
-0.0401164
-0.0184231
-0.0343341
-0.330431
1.28501
-0.645698
-0.00764299
0.705793
-0.0286441
-0.641368
1.12686
1.23482
1.24562
-0.0287906
-0.10959
0.654032
1.19428
-0.0107792
-0.000764733
-0.747846
-0.237125
-0.00833423
1.58934
-0.00776927
0.824125
0.952614
-0.0187786
-0.0177883
-0.0571423
0.114326
-0.0102563
0.891898
-0.00502995
-0.715432
-0.0785225
-0.00556851
-0.549677
-0.00162126
-0.117587
0.270965
0.960518
-0.0045141
-0.350656
-0.629098
1.06783
-0.103207
-0.0599188
0.338368
-0.271004
-0.0063627
-0.0441261
-0.0399663
-0.0235078
1.04963
-0.306432
-1.27948
-0.0305509
-0.0414537
1.13548
-0.0095899
-0.0113572
-0.485553
0.78947
-0.105723
1.28546
0.700558
1.10988
-0.579537
-0.457652
-0.561622
-0.0116234
-0.184482
-0.00119891
0.801701
0.803919
-0.00275039
-0.0162474
-0.0482881
1.06671
-0.00293654
-0.000134638
0.662409
1.02609
2.25691
-0.0941528
-0.0489715
1.17929
-0.845204
1.04286
1.214
1.37424
0.615491
-0.115522
1.43188
0.727293
0.748439
-0.0261928
-0.62428
1.12718
-0.0673971
-0.0210373
0.235906
-0.0097834
0.673677
-0.321206
0.864991
1.14728
1.33762
-0.000967733
-0.0239707
0.567935
-0.0609806
0.346814
2.46745
-0.131471
-0.102449
1.2465
0.723184
-0.692955
-0.00397379
-0.0445934
2.30062
-0.668025
1.04736
-0.034229
-0.0230107
-0.367904
-0.0225888
-0.594021
-0.0278187
-0.030239
-0.0618921
1.06615
-0.103792
0.356429
1.24729
1.09447
1.21287
0.782756
-0.0197594
1.28689
0.686831
-0.05009
1.32452
-0.59494
-0.170898
-0.000826549
-0.0407996
-0.189123
0.946115
1.06373
1.24131
-0.661322
-0.126283
1.07496
0.804341
-0.0206121
1.20741
-0.0296726
1.20994
-0.00666903
0.100101
-0.552187
-0.0177142
-0.00546873
-0.516238
-0.0341724
0.851664
0.498827
0.639081
1.19461
-0.00543723
-0.395691
0.509071
-0.018097
-0.731123
-0.591075
1.00868
1.44809
1.16152
-0.0121382
-0.0245048
-0.00493105
1.21403
1.34862
-0.0240845
1.21743
-0.0320916
-0.00365159
-0.00650203
-0.143727
1.18608
-0.00433127
1.05517
-0.0289893
1.24535
-0.0254535
-0.00150066
-0.127431
-0.653084
-0.0204685
1.24946
1.10024
-0.422395
0.756465
-0.0990105
-0.0363254
-0.0289656
-0.0137776
-0.447341
-0.090795
0.633035
1.34167
1.26947
-0.667273
-0.0497983
-0.0305445
0.587645
1.01594
-0.249945
1.45212
1.28129
0.858095
0.758645
-0.0437286
-0.0371912
-0.0281563
-0.0811798
0.0582435
-0.967168
0.705851
-0.0339753
0.850811
1.31824
-0.718753
-0.0203526
1.01737
0.81595
-0.553744
0.475642
0.773096
-0.225365
1.15608
0.5534
-0.0691479
-0.0241385
-0.051117
-0.00507576
-0.006079
-0.451143
-0.00595218
-0.638516
-0.0462958
-0.112264
-0.18432
-0.0418937
-0.0304583
1.05067
0.982272
-0.00530626
0.098747
1.16329
0.109789
-0.0630615
-0.0152158
-0.631334
-0.165898
-0.278209
1.10834
-0.928472
0.962985
1.21953
0.308804
-0.100723
0.727562
2.3859
1.23185
1.19171
-0.0358126
-0.00830894
-0.0171492
0.832983
1.57098
0.123556
-0.00409416
1.16097
-0.398823
1.00825
-0.0286002
-0.00204098
1.15614
-0.000949321
0.809405
-0.012427
-0.0320168
-0.0420253
-0.676056
-0.123363
-0.409463
0.685126
-0.00311726
-0.0173869
-0.619344
-0.00422545
1.06758
0.153533
0.695944
-0.0880663
1.17195
-0.0703402
1.20445
1.3822
0.975165
-0.161526
-0.0281849
0.970643
-0.00128328
1.19566
-0.0160532
-0.0250686
0.461633
-0.0360441
-0.605586
-0.020585
-0.0614632
-0.0843715
-0.0992762
-0.0380251
-0.00925301
-0.533311
1.06147
-0.049019
1.23561
2.22745
-0.595484
-0.336296
-0.326789
-0.0269746
1.21494
0.532918
0.400948
-0.0398884
0.811532
-0.000151047
-0.010704
-0.00731974
0.362748
-0.0104604
-0.0133555
-0.0144732
0.805649
-0.077444
-0.104075
-0.0445986
1.18094
-0.0362471
-0.737997
1.05941
-0.588049
-0.00621824
1.05743
-0.0283667
1.34062
1.33999
0.28555
-0.00831999
0.833717
-0.0155718
1.15076
-0.0138488
0.741352
-0.026099
-0.00497294
-0.0209449
-0.00404627
1.05782
-0.0455284
-0.633548
0.729823
-0.0146922
0.0360254
-0.0133757
-0.864086
-0.445816
0.430854
-0.0334419
-0.0188703
-0.753494
1.18708
-0.424742
1.10753
-0.0243574
-0.566387
1.02045
1.3044
-0.524585
-0.0292418
-0.0112965
-0.0875153
1.26336
-0.0476331
0.0444844
1.07448
0.877332
1.17538
1.23714
1.90158
-0.00299715
-0.661747
-0.155058
-0.0073971
-0.297878
0.952255
1.26837
-0.0596054
-0.0275999
1.08105
-0.194899
-0.0555511
-0.65711
-0.0238333
-0.599997
-0.141106
-0.0316674
0.939289
1.25877
-0.58713
0.496865
1.26695
0.0631841
-0.000491447
-0.321339
-0.288374
1.04875
-0.12129
-0.613431
-0.0432584
1.26592
-0.00347123
-0.00824282
-0.0289131
-0.0350456
0.745631
1.17899
-0.0349035
-0.0387291
-0.0138083
0.697067
1.22713
1.11416
1.25511
1.25387
-0.0184378
-0.0581218
-0.600456
-0.585791
-0.0109069
1.24734
-0.0486066
0.81069
0.991377
-0.292389
1.2698
1.18637
1.36026
-0.0530197
-0.00369807
-0.0227927
1.17552
-0.0319214
1.02508
1.13583
1.42734
0.832546
0.104835
1.14692
1.10504
1.42811
-0.940884
1.1167
0.645981
-0.309112
-0.406946
1.6783
1.10744
-0.0271164
-0.933666
1.6965
-0.432783
-0.036487
-0.0348404
1.19031
0.976285
0.609163
0.164216
-0.000277511
1.24448
-0.0502192
-0.0283471
-0.00678367
-0.0198879
1.15493
-0.0330131
0.568363
1.15805
0.842131
2.35689
1.1096
-0.210349
-0.568498
-0.121532
-0.036362
-0.00343366
-0.0154857
0.0715541
-0.505512
1.10126
1.16032
-0.00315453
-0.00317946
-0.0363141
1.38798
-0.143725
1.1094
-0.0783321
0.817507
-0.00395774
-0.0115766
-0.0595387
-0.0327846
0.573835
0.98279
-0.0217676
-0.577393
-0.000636299
-0.257797
-0.0407006
0.26127
0.831305
-0.00486833
1.18454
1.10346
-0.100188
-0.607682
-0.031853
-0.477356
-0.00411771
-0.0324392
-0.0103735
-0.81067
0.715226
0.243409
-0.00280845
0.744021
-1.05304
1.19545
-0.0191266
-0.0239033
-0.00875072
0.781763
-0.036882
1.21726
1.3684
-0.0112774
-0.0369422
1.36715
1.14873
1.40864
-0.431127
-0.323825
-0.663069
-0.125948
0.56568
-0.703964
-0.0455523
-0.5349
0.716627
-0.00717447
-0.0138417
1.23087
-0.00557141
0.0476366
-0.0211557
-0.0326904
0.0617767
-0.107351
0.166288
1.11141
-0.0628997
-0.0176171
1.53317
-0.00754254
1.07726
-1.0555
-3.72674e-05
-0.652197
0.996655
-0.00591209
-0.0366339
-0.0319512
-0.00675327
-0.0123772
0.679155
-0.00119589
-0.0299298
1.11582
0.382064
-0.0185745
-0.0523729
-0.0274806
-0.046431
1.33445
0.802568
-0.42406
1.17982
-0.646521
-0.0196813
-0.000253443
-0.0262763
1.25177
-0.0647526
-0.127968
-0.00868062
-0.0184237
-0.0103468
0.929152
-0.0953195
-0.00579922
0.782835
0.264494
1.1074
-0.02635
0.401068
1.23312
-0.134289
-0.00631575
-0.0159022
1.17285
-0.507633
-0.298417
0.609156
-0.0662249
1.0674
0.552718
0.0131689
-0.576018
2.20225
-0.0093446
0.0598046
-0.126776
1.14355
0.802501
0.690695
0.691519
-0.046025
-0.0253789
-0.0112182
-0.292936
-0.601608
-0.779505
0.555825
0.0107151
-0.0380997
0.750218
-0.017
-0.0044196
-0.186355
-0.781715
-0.171576
-0.0250321
1.19835
-0.0157152
0.720087
-0.0226339
1.17105
-0.639361
-0.258563
0.89404
-0.691844
-0.0282948
0.754826
-0.0453205
-0.00905809
-0.600843
-0.0245774
-0.110465
-0.387953
-0.00480151
-0.0379711
-0.51319
-0.0324703
1.16885
-0.0823017
2.06785
-0.0645672
-0.0385275
-0.0329092
-0.166371
-0.0376172
-0.29862
0.733026
1.76284
0.622927
1.17606
-0.0234824
-0.0601663
0.713857
-0.0370361
-0.0458634
2.49536
-0.130579
-0.586084
-0.433213
-0.710861
-0.562771
-0.0429452
-0.0067347
-0.00475495
0.763069
0.841885
-0.0270324
0.821751
1.09144
-0.0570201
0.679207
1.74387
-0.0240733
0.82387
-0.767392
-0.0166501
-0.0397131
0.724242
-0.11743
-0.0142777
-0.0331865
-0.635393
0.705836
-0.0208409
-0.0286497
-0.020608
-0.00114482
0.9536
-0.00679221
0.50823
-0.0313039
-0.00704211
0.143662
0.762147
-0.0732115
-0.00981665
-0.0796936
-0.0909385
-0.0318828
0.79764
1.09858
0.863937
-0.168801
-0.00375238
-0.0159769
-0.333149
-1.03976
0.607829
-0.1254
0.555976
1.19144
-0.099935
0.632509
1.65562
-0.794862
-0.594679
-0.660772
-0.0230045
1.17367
1.03135
-0.00792476
-0.0315919
-0.0149308
-0.46786
-0.0408593
1.1835
1.51197
-0.0348514
-0.00638946
-0.00717096
-0.0334068
1.12124
-0.0424386
-0.0113132
-0.0423073
0.940491
-0.0443994
-0.0672261
0.0611088
-0.197334
1.21956
0.456249
-0.0299316
-0.0201603
-0.0489405
0.711018
-0.0308119
-0.15627
-0.0318114
-0.0368194
-0.0372992
-0.0302325
-0.321
1.4135
-0.566413
-0.0324488
0.842363
-0.00106018
-0.0196102
0.270748
-0.0125018
0.781841
1.07965
0.732732
-0.645716
-0.000941457
1.0598
-0.0311246
0.789888
1.12314
0.670234
-0.0249257
1.06793
-0.0198171
-0.373828
0.836989
-0.0490429
-0.655433
-0.0261047
-0.101172
-0.292073
-0.0795936
-0.00157211
1.28461
1.13716
1.18838
-0.0201254
0.672703
1.3266
-0.379646
-0.508903
-0.0217747
-0.0179624
-0.000426419
-0.108342
-0.0323324
-0.365054
1.04645
-0.180686
0.996462
-0.00583944
0.403382
-0.0190537
0.72091
0.497371
1.278
-0.109567
-0.00230533
0.292711
-0.0287132
1.03383
-0.00501957
-0.00474411
-0.106636
-0.0335415
0.765422
0.60535
-0.00939644
-0.717141
-0.0165574
-0.00176641
-0.088989
-0.0118714
0.80208
-0.389723
-0.00810895
0.43956
-0.0517722
-0.0494429
-0.162794
-0.0473101
-0.0380911
-0.000529646
-0.13231
-0.604275
1.05566
1.81055
-0.00971216
-0.024509
0.0194383
1.11064
-0.293574
1.04779
0.877723
-0.720005
0.679248
1.24764
-0.500537
-0.0389699
1.56889
0.646569
1.37709
0.789224
1.16929
1.19334
-0.253396
-0.237608
1.01693
1.20598
-0.0592075
1.20578
-0.0127454
1.12999
0.921668
1.2504
-0.111113
-0.301564
-0.0268485
0.632471
1.14941
-0.0256461
-0.0059987
0.780463
-0.329235
-0.0394857
1.34195
-0.30264
-0.0330128
-0.0994001
-0.0792652
-0.0598433
1.24524
-0.0359317
1.25451
0.74684
1.15735
-0.680875
0.859107
-0.0264907
1.2217
-0.0288871
1.11871
0.846723
-0.0858942
1.14084
0.953529
-0.0869607
-0.0175145
-0.0463048
0.912634
0.739108
1.24537
-0.0130749
-0.00790331
-0.0337832
-0.437978
-0.109207
-0.477105
1.2278
1.02089
2.11315
0.60618
-0.0412203
1.14529
-0.33963
0.998148
-0.606426
-0.0121314
-0.0387314
-0.0218542
0.13409
0.0182211
1.05635
-0.213106
-0.105575
0.74711
0.837963
-0.0188595
0.533347
1.14208
0.564548
-0.0869259
1.01018
-0.0693721
-0.106516
-0.0287907
-0.0252047
1.03633
-0.265033
0.0102391
-0.551534
-0.0418888
-0.0927559
-0.011143
0.65668
1.1422
0.587189
0.985341
-0.229242
0.621789
1.15843
-0.00828019
-0.142573
1.29439
0.632312
-0.571642
-0.2398
0.710532
-0.449768
0.636943
0.625027
-0.0314784
0.84947
-0.0181044
-0.0204719
0.762237
1.09884
-0.0506937
-0.0544249
0.569591
-0.00397798
1.0343
0.910707
-0.0484487
0.780717
-0.0376201
0.815129
1.3189
-0.594532
0.0272487
1.85405
-1.17461
0.817094
1.68737
2.02892
1.85715
-0.264098
-0.0419244
-0.0447338
-0.0746902
-0.0409241
1.66071
1.37663
-0.102069
-0.000464697
0.825873
0.413005
-0.228688
1.06644
-0.00313189
1.2449
-0.0346914
1.38071
0.578101
-0.00717587
-0.0568227
-0.0301436
1.02801
0.690635
0.422563
0.621259
1.23888
-0.0299491
-0.0243601
-0.0343567
-0.181166
-0.019451
0.460903
1.28912
1.36333
-0.0514961
0.401853
-0.0175728
-0.467176
0.63986
-0.0122062
-0.049526
1.26322
0.684596
-0.115873
-0.118624
-0.0402365
1.06246
-0.0379773
-0.00780025
-0.103107
-0.00426243
-0.0394132
1.19026
-0.0289852
-0.280766
-0.395654
-0.0625048
-0.0865071
-0.00424607
0.877202
0.514143
-0.0793199
1.03687
-0.0323846
-0.0238182
-0.00572579
-0.0662981
-0.0290281
-0.24629
-0.576484