/*--------------------------------*- C++ -*----------------------------------*\
| =========                 |                                                 |
| \\      /  F ield         | OpenFOAM: The Open Source CFD Toolbox           |
|  \\    /   O peration     | Version:  3.0.1                                 |
|   \\  /    A nd           | Web:      www.OpenFOAM.org                      |
|    \\/     M anipulation  |                                                 |
\*---------------------------------------------------------------------------*/
FoamFile
{
    version     2.0;
    format      ascii;
    class       surfaceScalarField;
    location    "0.0755343";
    object      phi;
}
// * * * * * * * * * * * * * * * * * * * * * * * * * * * * * * * * * * * * * //

dimensions      [0 3 -1 0 0 0 0];

internalField   nonuniform List<scalar> 
32369
(
-1.64232e-07
9.22729e-06
-9.06306e-06
-7.16284e-07
9.18106e-06
-8.62901e-06
-2.45253e-06
1.15038e-05
-9.76752e-06
-5.00318e-06
1.38976e-05
-1.13469e-05
-8.15312e-06
1.64372e-05
-1.32873e-05
-1.18197e-05
1.92835e-05
-1.56169e-05
-1.59931e-05
2.27076e-05
-1.85342e-05
-2.07761e-05
2.71561e-05
-2.2373e-05
-2.63667e-05
3.31646e-05
-2.75741e-05
-3.30484e-05
4.13894e-05
-3.47077e-05
5.27413e-05
-4.45277e-05
-4.1262e-05
2.77457e-06
6.45272e-06
3.98082e-06
7.97481e-06
4.0256e-06
1.1459e-05
3.11543e-06
1.48078e-05
1.15381e-06
1.83988e-05
-1.87578e-06
2.23131e-05
-5.84102e-06
2.66728e-05
-1.06012e-05
3.19163e-05
-1.6262e-05
3.88254e-05
-2.30725e-05
4.81999e-05
6.11298e-05
-3.1461e-05
2.25845e-06
4.19427e-06
3.46949e-06
6.76377e-06
4.41181e-06
1.05167e-05
4.82341e-06
1.43962e-05
4.30626e-06
1.8916e-05
2.69123e-06
2.39281e-05
-6.7202e-08
2.94312e-05
-3.84686e-06
3.56959e-05
-8.54535e-06
4.35239e-05
-1.43287e-05
5.39832e-05
6.85157e-05
-2.17146e-05
1.54163e-06
2.65264e-06
2.75169e-06
5.55372e-06
4.05599e-06
9.21236e-06
4.98496e-06
1.34672e-05
5.34941e-06
1.85515e-05
4.9566e-06
2.4321e-05
3.55897e-06
3.08289e-05
1.10898e-06
3.81459e-05
-2.25981e-06
4.68926e-05
-6.51863e-06
5.82421e-05
7.38671e-05
-1.18701e-05
1.12282e-06
1.52982e-06
2.39983e-06
4.27671e-06
3.75793e-06
7.85425e-06
4.9721e-06
1.2253e-05
5.91938e-06
1.76042e-05
6.32543e-06
2.39149e-05
6.0046e-06
3.11497e-05
4.81105e-06
3.93395e-05
2.78424e-06
4.89195e-05
7.21662e-08
6.09541e-05
7.72394e-05
-3.30009e-06
9.20769e-07
6.09046e-07
2.25544e-06
2.94205e-06
3.69504e-06
6.41465e-06
5.11301e-06
1.08351e-05
6.39067e-06
1.63266e-05
7.36386e-06
2.29417e-05
7.84067e-06
3.06729e-05
7.65574e-06
3.95244e-05
6.78279e-06
4.97924e-05
5.37394e-06
6.2363e-05
7.89962e-05
3.61717e-06
7.19782e-07
-1.10736e-07
1.94669e-06
1.71513e-06
3.44282e-06
4.91852e-06
5.05067e-06
9.22721e-06
6.62031e-06
1.47569e-05
8.01737e-06
2.15447e-05
9.09546e-06
2.95948e-05
9.70503e-06
3.89148e-05
9.78958e-06
4.97079e-05
9.47881e-06
6.26738e-05
7.94512e-05
9.02378e-06
4.55113e-07
-5.65849e-07
1.41726e-06
7.52989e-07
2.86244e-06
3.47334e-06
4.59704e-06
7.49261e-06
6.4004e-06
1.29536e-05
8.13913e-06
1.98059e-05
9.69719e-06
2.80367e-05
1.09578e-05
3.76542e-05
1.18633e-05
4.88024e-05
1.25401e-05
6.1997e-05
7.87274e-05
1.32639e-05
2.45061e-07
-8.10909e-07
9.28134e-07
6.99161e-08
2.21442e-06
2.18706e-06
3.91913e-06
5.7879e-06
5.842e-06
1.10307e-05
7.82724e-06
1.78207e-05
9.76132e-06
2.61027e-05
1.15516e-05
3.58639e-05
1.31672e-05
4.71867e-05
1.46735e-05
6.04907e-05
7.70228e-05
1.63782e-05
1.83809e-07
-9.94719e-07
6.73196e-07
-4.19471e-07
1.66016e-06
1.20009e-06
3.17983e-06
4.26823e-06
5.08992e-06
9.1206e-06
7.21102e-06
1.56996e-05
9.4132e-06
2.39005e-05
1.16219e-05
3.36552e-05
1.38059e-05
4.50027e-05
1.60548e-05
5.82419e-05
7.44171e-05
1.86605e-05
1.13104e-07
-1.10782e-06
4.0964e-07
-7.16006e-07
1.10554e-06
5.04198e-07
2.35221e-06
3.02155e-06
4.11098e-06
7.36183e-06
6.22961e-06
1.3581e-05
8.58647e-06
2.15436e-05
1.111e-05
3.11317e-05
1.37854e-05
4.23273e-05
1.66894e-05
5.53378e-05
7.09417e-05
2.01648e-05
3.64138e-08
-1.14424e-06
1.55424e-07
-8.35016e-07
5.76993e-07
8.2629e-08
1.48534e-06
2.11321e-06
2.96003e-06
5.88714e-06
4.93638e-06
1.16046e-05
7.31859e-06
1.91614e-05
1.00567e-05
2.83935e-05
1.31506e-05
3.92334e-05
1.66841e-05
5.18043e-05
6.67352e-05
2.08905e-05
-3.19014e-08
-1.11234e-06
-5.02189e-08
-8.16699e-07
1.29469e-07
-9.70587e-08
7.11427e-07
1.53125e-06
1.86703e-06
4.73154e-06
3.60729e-06
9.86435e-06
5.90397e-06
1.68647e-05
8.74243e-06
2.55551e-05
1.21682e-05
3.58077e-05
1.62758e-05
4.76967e-05
6.17412e-05
2.12698e-05
-9.1258e-08
-1.02108e-06
-2.04558e-07
-7.03399e-07
-2.04611e-07
-9.70059e-08
8.49783e-08
1.24166e-06
9.32139e-07
3.88438e-06
2.40254e-06
8.39395e-06
4.54543e-06
1.47218e-05
7.41269e-06
2.26878e-05
1.10787e-05
3.21416e-05
1.56513e-05
4.31241e-05
5.60895e-05
2.13031e-05
-1.28958e-07
-8.9212e-07
-3.25507e-07
-5.06849e-07
-4.47195e-07
2.46818e-08
-3.94768e-07
1.18923e-06
1.18443e-07
3.37116e-06
1.30865e-06
7.20374e-06
3.23729e-06
1.27932e-05
6.07484e-06
1.98503e-05
9.94662e-06
2.82698e-05
1.49515e-05
3.81192e-05
4.98076e-05
2.12334e-05
-1.5816e-07
-7.33959e-07
-4.05883e-07
-2.59127e-07
-6.00731e-07
2.1953e-07
-6.84536e-07
1.27304e-06
-4.41504e-07
3.12813e-06
4.72797e-07
6.28944e-06
2.19823e-06
1.10678e-05
4.9834e-06
1.70651e-05
9.02548e-06
2.42278e-05
1.44946e-05
3.26501e-05
4.27412e-05
2.1561e-05
-1.6397e-07
-5.69989e-07
-4.32442e-07
9.34474e-09
-6.62038e-07
4.49126e-07
-8.19173e-07
1.43017e-06
-7.25292e-07
3.03425e-06
-5.71292e-08
5.62128e-06
1.50053e-06
9.51011e-06
4.24224e-06
1.43234e-05
8.45133e-06
2.00187e-05
1.4298e-05
2.68034e-05
3.52312e-05
2.1808e-05
-1.59395e-07
-4.10594e-07
-4.29516e-07
2.79466e-07
-6.69092e-07
6.88702e-07
-8.65136e-07
1.62622e-06
-8.59469e-07
3.02858e-06
-3.66692e-07
5.1285e-06
1.05392e-06
8.0895e-06
3.772e-06
1.16053e-05
8.13746e-06
1.56532e-05
1.43861e-05
2.05548e-05
2.69175e-05
2.26998e-05
-1.54082e-07
-2.56512e-07
-4.0851e-07
5.33894e-07
-6.57343e-07
9.37535e-07
-8.85676e-07
1.85455e-06
-9.39219e-07
3.08213e-06
-5.42937e-07
4.73222e-06
7.92998e-07
6.75356e-06
3.52466e-06
8.87364e-06
8.0584e-06
1.11195e-05
1.47145e-05
1.38986e-05
1.78943e-05
2.37378e-05
-1.41056e-07
-1.15456e-07
-4.16544e-07
8.09382e-07
-7.27451e-07
1.24844e-06
-1.00971e-06
2.13681e-06
-1.09823e-06
3.17064e-06
-7.15485e-07
4.34948e-06
6.86882e-07
5.35119e-06
3.57467e-06
5.98586e-06
8.35816e-06
6.33599e-06
1.54135e-05
6.84332e-06
8.31538e-06
2.49924e-05
-2.6122e-07
1.45764e-07
-6.27201e-07
1.17536e-06
-9.8635e-07
1.60759e-06
-1.2101e-06
2.36055e-06
-1.06834e-06
3.02889e-06
-9.65751e-08
3.37771e-06
2.31702e-06
2.9376e-06
6.55667e-06
1.74621e-06
1.27649e-05
1.27803e-07
2.08921e-05
-1.28397e-06
-2.01673e-06
3.12243e-05
-6.56374e-07
8.02138e-07
-8.66804e-07
1.38579e-06
-8.31207e-07
1.57199e-06
-1.10665e-07
1.64001e-06
1.76862e-06
1.14961e-06
5.25319e-06
-1.06861e-07
1.01898e-05
-1.99904e-06
1.62419e-05
-4.30584e-06
2.33063e-05
-6.93658e-06
3.17876e-05
-9.7653e-06
-1.23069e-05
4.20778e-05
-2.13182e-07
1.01532e-06
6.71282e-07
5.01328e-07
2.35873e-06
-1.15451e-07
5.0069e-06
-1.00816e-06
8.4595e-06
-2.30299e-06
1.23912e-05
-4.03853e-06
1.6627e-05
-6.23485e-06
2.14307e-05
-9.10958e-06
2.72652e-05
-1.27711e-05
3.47615e-05
-1.72616e-05
-2.23179e-05
4.47725e-05
2.87134e-06
-1.85602e-06
5.04152e-06
-1.66885e-06
7.24829e-06
-2.32222e-06
9.59774e-06
-3.35762e-06
1.20987e-05
-4.80397e-06
1.48369e-05
-6.77675e-06
1.798e-05
-9.37789e-06
2.16906e-05
-1.28202e-05
2.62365e-05
-1.7317e-05
3.20407e-05
-2.30659e-05
-3.01158e-05
3.98387e-05
-6.27857e-06
-2.78449e-06
-1.04088e-05
-4.49879e-06
-1.38808e-05
-6.29556e-06
-1.70247e-05
-8.20296e-06
-2.01231e-05
-1.01889e-05
-2.34211e-05
-1.2319e-05
-2.71495e-05
-1.48058e-05
-3.15214e-05
-1.80011e-05
-3.67279e-05
-2.23675e-05
-4.29525e-05
-2.84832e-05
-3.70965e-05
-5.03836e-05
-3.44089e-06
6.56404e-07
-6.95918e-06
-9.805e-07
-1.05406e-05
-2.71417e-06
-1.41122e-05
-4.63135e-06
-1.77271e-05
-6.57394e-06
-2.15538e-05
-8.49226e-06
-2.58533e-05
-1.05063e-05
-3.08997e-05
-1.29547e-05
-3.69452e-05
-1.63221e-05
-4.4234e-05
-2.11943e-05
-2.82873e-05
-5.30433e-05
-1.2314e-06
1.88781e-06
-3.18108e-06
9.69179e-07
-5.95477e-06
5.95207e-08
-9.27605e-06
-1.31007e-06
-1.29993e-05
-2.85067e-06
-1.71536e-05
-4.33794e-06
-2.19009e-05
-5.75906e-06
-2.74769e-05
-7.37872e-06
-3.41352e-05
-9.66371e-06
-4.21192e-05
-1.32103e-05
-1.87218e-05
-5.16847e-05
-3.39139e-08
1.92172e-06
-8.58942e-07
1.79421e-06
-2.52422e-06
1.7248e-06
-5.03242e-06
1.19813e-06
-8.2981e-06
4.1501e-07
-1.22632e-05
-3.7284e-07
-1.7014e-05
-1.00826e-06
-2.27366e-05
-1.65614e-06
-2.96226e-05
-2.77767e-06
-3.78885e-05
-4.9445e-06
-8.68878e-06
-4.79215e-05
2.38975e-07
1.68275e-06
5.4784e-08
1.9784e-06
-5.99697e-07
2.37928e-06
-1.95977e-06
2.5582e-06
-4.14483e-06
2.60008e-06
-7.21825e-06
2.70058e-06
-1.1295e-05
3.06847e-06
-1.65963e-05
3.64515e-06
-2.33437e-05
3.96971e-06
-3.16532e-05
3.36502e-06
1.18094e-06
-4.15229e-05
2.40128e-07
1.44262e-06
2.79571e-07
1.93896e-06
1.08572e-07
2.55028e-06
-5.05103e-07
3.17188e-06
-1.74676e-06
3.84174e-06
-3.78015e-06
4.73397e-06
-6.79806e-06
6.08638e-06
-1.11039e-05
7.95099e-06
-1.70352e-05
9.901e-06
-2.47735e-05
1.11033e-05
1.08072e-05
-3.43997e-05
2.37065e-07
1.20555e-06
3.64733e-07
1.81129e-06
4.28062e-07
2.48695e-06
2.45358e-07
3.35458e-06
-3.58316e-07
4.44541e-06
-1.55653e-06
5.93218e-06
-3.57799e-06
8.10785e-06
-6.78272e-06
1.11557e-05
-1.16484e-05
1.47667e-05
-1.84851e-05
1.79399e-05
1.96019e-05
-2.72797e-05
2.23754e-07
9.81799e-07
3.99395e-07
1.63565e-06
5.85406e-07
2.30094e-06
6.49953e-07
3.29004e-06
4.56104e-07
4.63926e-06
-1.38685e-07
6.52697e-06
-1.32414e-06
9.2933e-06
-3.45001e-06
1.32816e-05
-7.11344e-06
1.84302e-05
-1.28977e-05
2.37241e-05
2.75896e-05
-2.08854e-05
2.11411e-07
7.70388e-07
4.30627e-07
1.41643e-06
6.93509e-07
2.03806e-06
9.05055e-07
3.07849e-06
9.75585e-07
4.56873e-06
7.85172e-07
6.71738e-06
2.029e-07
9.87557e-06
-1.03e-06
1.45145e-05
-3.4727e-06
2.08729e-05
-7.92013e-06
2.81716e-05
3.43687e-05
-1.46992e-05
2.01966e-07
5.68422e-07
4.66772e-07
1.15162e-06
7.77185e-07
1.72764e-06
1.06644e-06
2.78924e-06
1.30235e-06
4.33281e-06
1.38891e-06
6.63083e-06
1.21208e-06
1.00524e-05
6.07706e-07
1.51189e-05
-8.22612e-07
2.23032e-05
-3.92683e-06
3.12758e-05
4.00536e-05
-9.61177e-06
2.0816e-07
3.60262e-07
5.45284e-07
8.145e-07
8.24665e-07
1.44826e-06
1.16108e-06
2.45282e-06
1.49267e-06
4.00122e-06
1.74605e-06
6.37745e-06
1.83537e-06
9.96308e-06
1.64333e-06
1.53109e-05
9.1506e-07
2.30314e-05
-9.70646e-07
3.31615e-05
4.42704e-05
-5.18744e-06
1.93597e-07
1.66665e-07
4.94825e-07
5.13272e-07
8.00817e-07
1.14227e-06
1.15746e-06
2.09618e-06
1.51022e-06
3.64846e-06
1.82268e-06
6.065e-06
2.0358e-06
9.74995e-06
2.07685e-06
1.52699e-05
1.80835e-06
2.33e-05
8.28933e-07
3.41409e-05
4.67799e-05
-1.68059e-06
1.68038e-07
-1.37375e-09
4.48097e-07
2.33214e-07
7.45155e-07
8.45213e-07
1.0545e-06
1.78683e-06
1.36919e-06
3.33377e-06
1.64667e-06
5.78752e-06
1.84367e-06
9.55295e-06
1.93804e-06
1.51755e-05
1.8996e-06
2.33384e-05
1.49336e-06
3.45471e-05
4.85511e-05
-2.77866e-07
1.34529e-07
-1.35903e-07
3.67499e-07
2.4339e-10
6.03966e-07
6.08746e-07
8.35479e-07
1.55532e-06
1.04168e-06
3.12757e-06
1.19154e-06
5.63766e-06
1.26314e-06
9.48135e-06
1.26849e-06
1.51701e-05
1.2643e-06
2.33426e-05
1.2163e-06
3.45951e-05
4.91228e-05
6.44662e-07
8.20496e-08
-2.17952e-07
2.30362e-07
-1.48069e-07
3.51924e-07
4.87183e-07
4.31007e-07
1.47623e-06
4.48972e-07
3.1096e-06
3.95554e-07
5.69108e-06
2.74391e-07
9.60251e-06
1.21697e-07
1.53228e-05
3.0931e-08
2.34333e-05
9.01394e-08
3.45359e-05
4.92505e-05
-3.76059e-08
1.18415e-08
-2.29794e-07
2.67797e-08
-1.63007e-07
-1.99862e-08
5.33949e-07
-1.44029e-07
1.60028e-06
-3.44357e-07
3.30993e-06
-6.11071e-07
5.95779e-06
-9.2904e-07
9.92048e-06
-1.26125e-06
1.5655e-05
-1.50939e-06
2.36815e-05
-1.49543e-06
3.4522e-05
4.86114e-05
-8.56349e-07
-8.36758e-08
-1.46118e-07
-2.31974e-07
-1.47083e-08
-4.59749e-07
7.61723e-07
-7.68596e-07
1.90912e-06
-1.15152e-06
3.69286e-06
-1.60355e-06
6.40982e-06
-2.11535e-06
1.04323e-05
-2.65552e-06
1.61952e-05
-3.15498e-06
2.41809e-05
-3.54557e-06
3.49126e-05
4.89309e-05
-3.86499e-06
-1.88687e-07
4.25694e-08
-4.8252e-07
2.79125e-07
-8.37877e-07
1.11708e-06
-1.26428e-06
2.33553e-06
-1.77382e-06
4.2024e-06
-2.37317e-06
7.00917e-06
-3.05126e-06
1.11104e-05
-3.77088e-06
1.69148e-05
-4.44929e-06
2.48593e-05
-4.89636e-06
3.53596e-05
4.87813e-05
-4.7468e-06
-2.76826e-07
3.19396e-07
-6.35836e-07
6.38134e-07
-1.03283e-06
1.51408e-06
-1.50572e-06
2.80841e-06
-2.08118e-06
4.77786e-06
-2.76635e-06
7.69434e-06
-3.53771e-06
1.18817e-05
-4.34228e-06
1.77194e-05
-5.11724e-06
2.56343e-05
-5.82116e-06
3.60635e-05
4.94625e-05
-6.50234e-06
-2.78506e-07
5.97901e-07
-6.13895e-07
9.73523e-07
-9.92639e-07
1.89282e-06
-1.45293e-06
3.2687e-06
-2.01816e-06
5.3431e-06
-2.68025e-06
8.35643e-06
-3.39143e-06
1.25929e-05
-4.08258e-06
1.84106e-05
-4.66994e-06
2.62217e-05
-5.10545e-06
3.6499e-05
4.97829e-05
-5.42582e-06
-1.9696e-07
7.94861e-07
-4.67142e-07
1.24371e-06
-7.77637e-07
2.20332e-06
-1.15166e-06
3.64272e-06
-1.59182e-06
5.78326e-06
-2.05486e-06
8.81947e-06
-2.45805e-06
1.29961e-05
-2.68017e-06
1.86327e-05
-2.61636e-06
2.61579e-05
-2.17248e-06
3.60552e-05
4.88069e-05
-1.19655e-06
-1.41442e-07
9.36303e-07
-3.18693e-07
1.42096e-06
-5.00415e-07
2.38504e-06
-6.93022e-07
3.83533e-06
-8.53509e-07
5.94375e-06
-8.89236e-07
8.85519e-06
-6.75028e-07
1.27819e-05
-5.54411e-08
1.80131e-05
1.14205e-06
2.49604e-05
3.07953e-06
3.41177e-05
4.62128e-05
5.67367e-06
-5.36902e-08
9.89993e-07
-1.17614e-07
1.48488e-06
-2.0676e-07
2.47419e-06
-1.99705e-07
3.82827e-06
4.44053e-08
5.69964e-06
6.35421e-07
8.26418e-06
1.74651e-06
1.16708e-05
3.58357e-06
1.6176e-05
6.41987e-06
2.21241e-05
1.06426e-05
2.98949e-05
3.99645e-05
1.68909e-05
-8.66027e-07
-1.04999e-06
-8.98029e-07
-4.27373e-07
4.68292e-07
1.95572e-06
4.24863e-06
7.60448e-06
1.24115e-05
1.92406e-05
2.90893e-05
-7.2724e-06
-9.19225e-06
1.64647e-05
-1.1641e-05
-1.05633e-05
1.49319e-05
-1.52941e-05
-1.263e-05
1.62831e-05
-1.91189e-05
-1.48476e-05
1.86724e-05
-2.30587e-05
-1.70325e-05
2.09723e-05
-2.70384e-05
-1.90959e-05
2.30756e-05
-3.14057e-05
-2.10327e-05
2.53999e-05
-3.63597e-05
-2.27924e-05
2.77464e-05
-4.21366e-05
-2.4266e-05
3.0043e-05
-4.89891e-05
-2.52482e-05
3.21007e-05
-2.53579e-05
3.36699e-05
-5.73011e-05
-6.35607e-06
-2.83618e-06
-1.15802e-05
-5.33913e-06
-1.62838e-05
-7.92644e-06
-2.0656e-05
-1.04754e-05
-2.48632e-05
-1.28253e-05
-2.91044e-05
-1.48546e-05
-3.36573e-05
-1.64799e-05
-3.88192e-05
-1.76304e-05
-4.49021e-05
-1.81832e-05
-5.22489e-05
-1.79015e-05
-1.63991e-05
-6.12077e-05
-3.37825e-06
5.42073e-07
-7.28599e-06
-1.43139e-06
-1.1646e-05
-3.56648e-06
-1.62967e-05
-5.82475e-06
-2.11321e-05
-7.98986e-06
-2.61449e-05
-9.8418e-06
-3.14972e-05
-1.11275e-05
-3.7434e-05
-1.16936e-05
-4.42518e-05
-1.13654e-05
-5.22651e-05
-9.88827e-06
-6.83128e-06
-6.18329e-05
-1.80295e-06
2.34502e-06
-4.52413e-06
1.28979e-06
-8.1484e-06
5.77918e-08
-1.24108e-05
-1.56237e-06
-1.71855e-05
-3.21518e-06
-2.24465e-05
-4.5808e-06
-2.8244e-05
-5.32992e-06
-3.47102e-05
-5.22746e-06
-4.20405e-05
-4.03499e-06
-5.04907e-05
-1.43807e-06
3.09702e-06
-6.0419e-05
-9.96628e-07
3.34165e-06
-2.77833e-06
3.07149e-06
-5.52338e-06
2.80283e-06
-9.17424e-06
2.0885e-06
-1.36231e-05
1.23369e-06
-1.87948e-05
5.90923e-07
-2.46195e-05
4.94726e-07
-3.11588e-05
1.31184e-06
-3.86194e-05
3.42567e-06
-4.73096e-05
7.25204e-06
1.33429e-05
-5.75555e-05
-9.02995e-07
4.24465e-06
-2.30089e-06
4.46938e-06
-4.27385e-06
4.7758e-06
-7.05953e-06
4.87418e-06
-1.07819e-05
4.95609e-06
-1.5437e-05
5.24595e-06
-2.10071e-05
6.06491e-06
-2.74947e-05
7.79938e-06
-3.49662e-05
1.08972e-05
-4.3585e-05
1.58708e-05
2.341e-05
-5.3652e-05
-8.66813e-07
5.11146e-06
-2.15969e-06
5.76226e-06
-3.89612e-06
6.51223e-06
-6.26925e-06
7.24731e-06
-9.43518e-06
8.12203e-06
-1.34987e-05
9.30946e-06
-1.85188e-05
1.1085e-05
-2.45388e-05
1.38194e-05
-3.16235e-05
1.79818e-05
-3.98803e-05
2.41277e-05
3.29625e-05
-4.94328e-05
-8.54306e-07
5.96576e-06
-2.04943e-06
6.95738e-06
-3.63549e-06
8.0983e-06
-5.75051e-06
9.36232e-06
-8.53362e-06
1.09051e-05
-1.21215e-05
1.28973e-05
-1.66221e-05
1.55856e-05
-2.21239e-05
1.93212e-05
-2.87126e-05
2.45705e-05
-3.65168e-05
3.19319e-05
4.21892e-05
-4.57435e-05
-8.15637e-07
6.7814e-06
-1.94329e-06
8.08503e-06
-3.40818e-06
9.56319e-06
-5.32818e-06
1.12823e-05
-7.82965e-06
1.34066e-05
-1.10422e-05
1.61099e-05
-1.5092e-05
1.96354e-05
-2.00976e-05
2.43268e-05
-2.61732e-05
3.06461e-05
-3.3462e-05
3.92207e-05
5.08908e-05
-4.21636e-05
-7.06702e-07
7.4881e-06
-1.72612e-06
9.10444e-06
-3.065e-06
1.09021e-05
-4.81523e-06
1.30326e-05
-7.08231e-06
1.56737e-05
-9.9917e-06
1.90193e-05
-1.36668e-05
2.33104e-05
-1.82393e-05
2.88993e-05
-2.38439e-05
3.62507e-05
-3.06289e-05
4.60057e-05
5.89884e-05
-3.87265e-05
-6.04849e-07
8.09295e-06
-1.52179e-06
1.00214e-05
-2.73386e-06
1.21142e-05
-4.319e-06
1.46177e-05
-6.3772e-06
1.77319e-05
-9.01561e-06
2.16577e-05
-1.23586e-05
2.66534e-05
-1.65323e-05
3.3073e-05
-2.168e-05
4.13985e-05
-2.79539e-05
5.22795e-05
6.65784e-05
-3.5544e-05
-5.94754e-07
8.68771e-06
-1.44404e-06
1.08707e-05
-2.54383e-06
1.32139e-05
-3.97764e-06
1.60515e-05
-5.83278e-06
1.9587e-05
-8.21143e-06
2.40364e-05
-1.1232e-05
2.9674e-05
-1.50164e-05
3.68574e-05
-1.97045e-05
4.60866e-05
-2.54538e-05
5.80288e-05
7.35763e-05
-3.24516e-05
-5.3715e-07
9.22485e-06
-1.29524e-06
1.16288e-05
-2.27929e-06
1.4198e-05
-3.56026e-06
1.73325e-05
-5.21889e-06
2.12457e-05
-7.3497e-06
2.61672e-05
-1.00611e-05
3.23854e-05
-1.34743e-05
4.02706e-05
-1.77238e-05
5.0336e-05
-2.29777e-05
6.32828e-05
8.00327e-05
-2.94342e-05
-3.86041e-07
9.6109e-06
-9.9959e-07
1.22423e-05
-1.83419e-06
1.50326e-05
-2.94584e-06
1.84441e-05
-4.40079e-06
2.27006e-05
-6.28505e-06
2.80514e-05
-8.69627e-06
3.47966e-05
-1.17432e-05
4.33176e-05
-1.55478e-05
5.41406e-05
-2.02471e-05
6.79821e-05
8.57903e-05
-2.60047e-05
-3.39652e-07
9.95055e-06
-8.44849e-07
1.27475e-05
-1.53389e-06
1.57216e-05
-2.45897e-06
1.93692e-05
-3.68303e-06
2.39247e-05
-5.2874e-06
2.96558e-05
-7.35596e-06
3.68652e-05
-9.98479e-06
4.59464e-05
-1.32714e-05
5.74272e-05
-1.73371e-05
7.20478e-05
9.07791e-05
-2.23258e-05
-2.56693e-07
1.02072e-05
-6.26015e-07
1.31168e-05
-1.14205e-06
1.62377e-05
-1.85212e-06
2.00793e-05
-2.82092e-06
2.48935e-05
-4.11217e-06
3.0947e-05
-5.80289e-06
3.85559e-05
-7.96429e-06
4.81078e-05
-1.066e-05
6.01229e-05
-1.39808e-05
7.53686e-05
9.48456e-05
-1.80473e-05
-7.25771e-08
1.02798e-05
-2.32263e-07
1.32765e-05
-5.23647e-07
1.65291e-05
-9.83327e-07
2.05389e-05
-1.65392e-06
2.55641e-05
-2.59948e-06
3.18926e-05
-3.86615e-06
3.98226e-05
-5.49362e-06
4.97353e-05
-7.51377e-06
6.2143e-05
-9.95895e-06
7.78138e-05
9.777e-05
-1.28834e-05
6.71157e-08
1.02127e-05
1.23296e-07
1.32203e-05
8.6392e-08
1.6566e-05
-7.07573e-08
2.06961e-05
-3.90272e-07
2.58836e-05
-9.16609e-07
3.24189e-05
-1.66818e-06
4.05741e-05
-2.6385e-06
5.07056e-05
-3.8057e-06
6.33102e-05
-5.15172e-06
7.91598e-05
9.93243e-05
-6.70601e-06
2.39667e-07
9.97304e-06
5.52654e-07
1.29073e-05
8.14764e-07
1.63039e-05
1.00839e-06
2.05025e-05
1.09534e-06
2.57966e-05
1.06854e-06
3.24457e-05
9.52966e-07
4.06897e-05
8.0886e-07
5.08497e-05
7.18627e-07
6.34004e-05
7.45179e-07
7.91333e-05
9.91676e-05
9.0186e-07
4.47439e-07
9.5256e-06
1.07397e-06
1.22808e-05
1.67925e-06
1.56986e-05
2.26659e-06
1.99151e-05
2.82565e-06
2.52376e-05
3.39749e-06
3.18739e-05
4.07069e-06
4.00165e-05
4.97678e-06
4.99436e-05
6.25274e-06
6.21245e-05
8.03664e-06
7.73494e-05
9.67445e-05
1.04598e-05
6.89305e-07
8.83629e-06
1.64252e-06
1.13276e-05
2.61474e-06
1.47264e-05
3.62853e-06
1.89013e-05
4.72992e-06
2.41362e-05
6.03426e-06
3.05696e-05
7.71403e-06
3.83367e-05
9.96095e-06
4.76967e-05
1.29515e-05
5.91339e-05
1.6884e-05
7.34169e-05
9.16491e-05
2.19794e-05
8.50792e-07
7.9855e-06
2.08426e-06
1.00941e-05
3.40699e-06
1.34036e-05
4.86214e-06
1.74462e-05
6.60532e-06
2.2393e-05
8.84556e-06
2.83293e-05
1.1811e-05
3.53713e-05
1.57094e-05
4.37983e-05
2.07512e-05
5.40921e-05
2.72046e-05
6.69635e-05
8.34514e-05
3.54023e-05
8.03384e-07
7.18212e-06
2.35251e-06
8.54499e-06
3.74619e-06
1.201e-05
5.61628e-06
1.55761e-05
8.16175e-06
1.98476e-05
1.15961e-05
2.4895e-05
1.61161e-05
3.08513e-05
2.19149e-05
3.79995e-05
2.92436e-05
4.67634e-05
3.84645e-05
5.77426e-05
7.18688e-05
5.00472e-05
-2.91971e-06
1.01018e-05
-1.7429e-06
7.36817e-06
8.45973e-07
9.42109e-06
4.14716e-06
1.22749e-05
8.31453e-06
1.56802e-05
1.35428e-05
1.96667e-05
1.99839e-05
2.44101e-05
2.78529e-05
3.01305e-05
3.752e-05
3.70963e-05
4.95085e-05
4.57541e-05
5.6903e-05
6.44743e-05
6.03416e-06
1.04305e-05
8.82323e-06
1.21428e-05
8.10252e-06
1.70039e-05
5.11889e-06
2.1656e-05
4.20922e-07
2.56702e-05
-5.57504e-06
2.90715e-05
-1.23866e-05
3.22114e-05
-1.97175e-05
3.50773e-05
-2.78284e-05
3.81539e-05
-3.69092e-05
4.11816e-05
4.38683e-05
-4.71077e-05
7.38439e-06
3.0461e-06
1.19037e-05
7.62348e-06
1.44931e-05
1.44144e-05
1.52002e-05
2.0949e-05
1.34789e-05
2.73916e-05
9.09556e-06
3.34549e-05
2.4792e-06
3.88278e-05
-5.65726e-06
4.32138e-05
-1.47217e-05
4.72183e-05
-2.48276e-05
5.12875e-05
5.54203e-05
-3.63796e-05
4.85801e-06
-1.81191e-06
9.22234e-06
3.25915e-06
1.34233e-05
1.02135e-05
1.63804e-05
1.79919e-05
1.73212e-05
2.64508e-05
1.5719e-05
3.50571e-05
1.14299e-05
4.31168e-05
4.6659e-06
4.99778e-05
-3.76733e-06
5.56515e-05
-1.33067e-05
6.08269e-05
6.59972e-05
-2.38836e-05
2.30312e-06
-4.11503e-06
6.80784e-06
-1.24557e-06
1.16472e-05
5.37415e-06
1.57688e-05
1.38702e-05
1.85421e-05
2.36775e-05
1.92976e-05
3.43015e-05
1.75075e-05
4.49069e-05
1.29721e-05
5.45133e-05
6.11496e-06
6.25086e-05
-2.26079e-06
6.92026e-05
7.53907e-05
-1.16542e-05
9.58955e-07
-5.07398e-06
3.96054e-06
-4.24715e-06
9.18259e-06
1.52101e-07
1.4386e-05
8.66681e-06
1.86343e-05
1.94293e-05
2.12835e-05
3.16523e-05
2.171e-05
4.44804e-05
1.94713e-05
5.6752e-05
1.4609e-05
6.73709e-05
7.79979e-06
7.60118e-05
8.33141e-05
-1.23626e-07
1.10172e-06
-6.1757e-06
2.68838e-06
-5.83382e-06
6.69678e-06
-3.8563e-06
1.24188e-05
2.94478e-06
1.79036e-05
1.39445e-05
2.21743e-05
2.73817e-05
2.45251e-05
4.21295e-05
2.43952e-05
5.6882e-05
2.15741e-05
7.0192e-05
1.64472e-05
8.11387e-05
8.97375e-05
1.00237e-05
1.26909e-06
-7.44478e-06
2.83675e-06
-7.40148e-06
5.3441e-06
-6.36365e-06
1.03693e-05
-2.08046e-06
1.64855e-05
7.82835e-06
2.20601e-05
2.1807e-05
2.60658e-05
3.81238e-05
2.78167e-05
5.51311e-05
2.69502e-05
7.10585e-05
2.35995e-05
8.44894e-05
9.49751e-05
1.8362e-05
1.31075e-06
-8.75553e-06
2.95687e-06
-9.0476e-06
5.11524e-06
-8.52202e-06
8.86409e-06
-5.8293e-06
1.47609e-05
1.93156e-06
2.10555e-05
1.55123e-05
2.63419e-05
3.28375e-05
2.9707e-05
5.1766e-05
3.06601e-05
7.01054e-05
2.92532e-05
8.58963e-05
9.7898e-05
2.63303e-05
1.27386e-06
-1.00294e-05
2.95529e-06
-1.0729e-05
5.08062e-06
-1.06473e-05
8.01823e-06
-8.76692e-06
1.30539e-05
-3.1041e-06
1.94177e-05
9.14855e-06
2.55284e-05
2.67268e-05
3.01621e-05
4.71322e-05
3.26894e-05
6.75782e-05
3.29718e-05
8.56139e-05
9.9481e-05
3.13888e-05
1.19548e-06
-1.12249e-05
2.76154e-06
-1.22951e-05
4.77093e-06
-1.26567e-05
7.42817e-06
-1.14242e-05
1.14834e-05
-7.15929e-06
1.73599e-05
3.27202e-06
2.37198e-05
2.03669e-05
2.92239e-05
4.16281e-05
3.30469e-05
6.37552e-05
3.5065e-05
8.35959e-05
9.89647e-05
3.55812e-05
8.64888e-07
-1.20898e-05
2.25174e-06
-1.36819e-05
4.034e-06
-1.4439e-05
6.40961e-06
-1.37998e-05
9.77745e-06
-1.05271e-05
1.49547e-05
-1.90528e-06
2.1066e-05
1.42556e-05
2.69257e-05
3.57684e-05
3.17576e-05
5.89233e-05
3.53448e-05
8.00086e-05
9.63618e-05
3.79477e-05
7.12436e-07
-1.28022e-05
1.77202e-06
-1.47415e-05
3.07428e-06
-1.57413e-05
4.93993e-06
-1.56654e-05
7.62583e-06
-1.3213e-05
1.18339e-05
-6.11337e-06
1.73472e-05
8.74237e-06
2.32153e-05
2.99002e-05
2.87284e-05
5.34102e-05
3.37421e-05
7.4995e-05
9.12048e-05
3.88991e-05
4.14499e-07
-1.32167e-05
9.99522e-07
-1.53265e-05
1.82332e-06
-1.65651e-05
3.02066e-06
-1.68628e-05
4.92696e-06
-1.51193e-05
8.10962e-06
-9.29604e-06
1.27718e-05
4.08021e-06
1.82923e-05
2.43798e-05
2.41847e-05
4.75178e-05
3.03369e-05
6.88427e-05
8.49202e-05
3.66215e-05
2.94011e-08
-1.32461e-05
1.08657e-07
-1.54058e-05
3.04207e-07
-1.67606e-05
7.06187e-07
-1.72647e-05
1.57561e-06
-1.59888e-05
3.58661e-06
-1.1307e-05
7.54119e-06
1.25637e-07
1.25435e-05
1.93775e-05
1.86031e-05
4.14581e-05
2.59607e-05
6.14851e-05
7.6563e-05
3.43179e-05
-3.19885e-07
-1.29262e-05
-7.77782e-07
-1.49479e-05
-1.28108e-06
-1.62573e-05
-1.78718e-06
-1.67586e-05
-2.10143e-06
-1.56745e-05
-1.65101e-06
-1.17575e-05
1.03866e-06
-2.56403e-06
6.16107e-06
1.42551e-05
1.26446e-05
3.49746e-05
2.08921e-05
5.32376e-05
6.62188e-05
3.12364e-05
-7.18788e-07
-1.22074e-05
-1.76811e-06
-1.38986e-05
-3.01189e-06
-1.50135e-05
-4.42683e-06
-1.53437e-05
-5.83582e-06
-1.42655e-05
-6.76196e-06
-1.08313e-05
-5.69252e-06
-3.63346e-06
-9.41574e-07
9.50414e-06
6.26322e-06
2.77699e-05
1.56578e-05
4.3843e-05
5.37198e-05
2.81568e-05
-1.18481e-06
-1.10226e-05
-2.8524e-06
-1.2231e-05
-4.86751e-06
-1.29984e-05
-7.18462e-06
-1.30266e-05
-9.55648e-06
-1.18936e-05
-1.13689e-05
-9.01891e-06
-1.14415e-05
-3.56087e-06
-7.82404e-06
5.8867e-06
7.09184e-08
1.98749e-05
1.05623e-05
3.33516e-05
3.95309e-05
2.47512e-05
-1.6637e-06
-9.35891e-06
-3.95985e-06
-9.93484e-06
-6.77044e-06
-1.01878e-05
-9.99906e-06
-9.79797e-06
-1.32966e-05
-8.5961e-06
-1.59387e-05
-6.37685e-06
-1.67233e-05
-2.7762e-06
-1.38986e-05
3.06198e-06
-6.10204e-06
1.20783e-05
5.20559e-06
2.2044e-05
2.59015e-05
1.8835e-05
-2.18266e-06
-7.17626e-06
-5.15683e-06
-6.96067e-06
-8.82733e-06
-6.51733e-06
-1.29714e-05
-5.65386e-06
-1.71226e-05
-4.44498e-06
-2.04491e-05
-3.05032e-06
-2.16995e-05
-1.5258e-06
-1.9301e-05
6.63444e-07
-1.18983e-05
4.67565e-06
1.43327e-08
1.01314e-05
1.05661e-05
1.53497e-05
-2.91752e-06
-4.25874e-06
-6.7767e-06
-3.10149e-06
-1.13954e-05
-1.8986e-06
-1.63541e-05
-6.95155e-07
-2.1011e-05
2.11893e-07
-2.44666e-05
4.05293e-07
-2.55827e-05
-4.09774e-07
-2.31714e-05
-1.74778e-06
-1.6152e-05
-2.34379e-06
-4.08896e-06
-1.93165e-06
-5.33666e-06
1.18138e-05
-3.97073e-06
-2.88008e-07
-7.97232e-06
9.00095e-07
-1.18546e-05
1.98372e-06
-1.53038e-05
2.75406e-06
-1.77455e-05
2.65356e-06
-1.76697e-05
3.29478e-07
-1.44024e-05
-3.67706e-06
-8.1766e-06
-7.97358e-06
1.454e-06
-1.19744e-05
1.47175e-05
-1.51952e-05
-1.97072e-05
2.90881e-05
-3.70897e-06
3.42096e-06
-5.08269e-06
2.27382e-06
-5.51074e-06
2.41177e-06
-4.04289e-06
1.2862e-06
3.99882e-07
-1.78922e-06
7.90073e-06
-7.17137e-06
1.59343e-05
-1.17106e-05
2.46058e-05
-1.66451e-05
3.43801e-05
-2.17488e-05
4.64144e-05
-2.72294e-05
-3.37716e-05
6.04787e-05
1.34931e-06
2.07165e-06
4.2849e-06
-6.61768e-07
9.4627e-06
-2.76603e-06
1.66888e-05
-5.9399e-06
2.47624e-05
-9.86281e-06
3.19088e-05
-1.43178e-05
3.92364e-05
-1.90382e-05
4.69722e-05
-2.43809e-05
5.57221e-05
-3.04986e-05
6.62756e-05
-3.7783e-05
-4.70212e-05
7.95252e-05
1.21735e-05
1.88799e-05
2.55349e-05
3.18699e-05
3.76873e-05
4.30363e-05
4.84082e-05
5.41578e-05
6.07555e-05
6.87267e-05
7.86085e-05
-9.86118e-06
1.82e-05
-8.33886e-06
-1.73442e-05
1.6398e-05
-8.91502e-06
-2.58572e-05
1.85079e-05
-9.99483e-06
-3.42516e-05
1.94251e-05
-1.10307e-05
-4.27512e-05
2.12566e-05
-1.2757e-05
-5.16038e-05
2.4005e-05
-1.51523e-05
-6.12675e-05
2.79335e-05
-1.82698e-05
-7.21811e-05
3.31985e-05
-2.22849e-05
-8.4819e-05
4.01285e-05
-2.74906e-05
-9.97081e-05
4.91711e-05
-3.42821e-05
6.09994e-05
-4.31686e-05
-0.000117539
-3.3256e-07
1.85326e-05
-2.00019e-06
1.80657e-05
-7.84777e-06
2.43554e-05
-1.48195e-05
2.63968e-05
-2.33214e-05
2.97585e-05
-3.27141e-05
3.33976e-05
-4.31814e-05
3.84008e-05
-5.50526e-05
4.50697e-05
-6.8771e-05
5.38469e-05
-8.48699e-05
6.52701e-05
8.00776e-05
-0.000103948
1.09309e-06
1.74395e-05
2.90748e-07
1.8868e-05
-2.6031e-06
2.72493e-05
-6.78702e-06
3.05807e-05
-1.32967e-05
3.62682e-05
-2.13262e-05
4.14272e-05
-3.08591e-05
4.79337e-05
-4.19142e-05
5.61247e-05
-5.48199e-05
6.67526e-05
-7.00033e-05
8.04534e-05
9.81554e-05
-8.8081e-05
8.11647e-07
1.66279e-05
-2.12781e-07
1.98924e-05
-1.59089e-06
2.86274e-05
-4.13282e-06
3.31226e-05
-8.57992e-06
4.07153e-05
-1.44734e-05
4.73207e-05
-2.21373e-05
5.55976e-05
-3.14058e-05
6.53932e-05
-4.25015e-05
7.78483e-05
-5.56508e-05
9.36028e-05
0.000113757
-7.12526e-05
6.56246e-07
1.59716e-05
-4.1246e-07
2.09611e-05
-1.28871e-06
2.95036e-05
-3.10038e-06
3.49343e-05
-6.02695e-06
4.36418e-05
-1.00944e-05
5.13881e-05
-1.57774e-05
6.12806e-05
-2.30517e-05
7.26675e-05
-3.1904e-05
8.67007e-05
-4.26773e-05
0.000104376
0.000126732
-5.56521e-05
7.39316e-07
1.52323e-05
5.54333e-08
2.1645e-05
-4.35222e-07
2.99943e-05
-1.85574e-06
3.63548e-05
-3.81571e-06
4.56018e-05
-6.63182e-06
5.42042e-05
-1.06955e-05
6.53442e-05
-1.60214e-05
7.79934e-05
-2.29035e-05
9.35828e-05
-3.1335e-05
0.000112808
0.000137
-4.16035e-05
8.44627e-07
1.43877e-05
6.01179e-07
2.18885e-05
4.79223e-07
3.01163e-05
-5.29139e-07
3.73632e-05
-1.77722e-06
4.68499e-05
-3.72102e-06
5.6148e-05
-6.53595e-06
6.81591e-05
-1.03151e-05
8.17726e-05
-1.53157e-05
9.85834e-05
-2.17082e-05
0.0001192
0.000144978
-2.96858e-05
8.27089e-07
1.35606e-05
8.78978e-07
2.18366e-05
1.06992e-06
2.99253e-05
4.79424e-07
3.79537e-05
-1.57569e-07
4.74869e-05
-1.41471e-06
5.74052e-05
-3.17683e-06
6.99212e-05
-5.6712e-06
8.4267e-05
-9.08282e-06
0.000101995
-1.35374e-05
0.000123655
0.000150652
-1.92111e-05
7.93951e-07
1.27666e-05
1.20508e-06
2.14255e-05
1.67361e-06
2.94568e-05
1.50588e-06
3.81214e-05
1.37859e-06
4.76142e-05
7.26163e-07
5.80576e-05
-1.65712e-07
7.08131e-05
-1.5982e-06
8.56995e-05
-3.64132e-06
0.000104038
-6.44935e-06
0.000126463
0.000154357
-1.01547e-05
1.01399e-06
1.17527e-05
1.83415e-06
2.06053e-05
2.64434e-06
2.86466e-05
2.93365e-06
3.78321e-05
3.23853e-06
4.73093e-05
3.13332e-06
5.81628e-05
2.94373e-06
7.10027e-05
2.37745e-06
8.62657e-05
1.45075e-06
0.000104965
1.59309e-08
0.000127897
0.000156461
-2.08799e-06
1.19752e-06
1.05551e-05
2.38458e-06
1.94182e-05
3.4977e-06
2.75335e-05
4.26217e-06
3.70677e-05
4.9879e-06
4.65835e-05
5.42778e-06
5.77229e-05
5.87007e-06
7.05604e-05
6.10464e-06
8.60312e-05
6.20225e-06
0.000104867
6.04022e-06
0.000128059
0.000156918
5.58366e-06
1.17444e-06
9.38069e-06
2.56559e-06
1.80271e-05
3.95388e-06
2.61452e-05
5.16654e-06
3.5855e-05
6.31746e-06
4.54326e-05
7.32812e-06
5.67123e-05