/*--------------------------------*- C++ -*----------------------------------*\
| =========                 |                                                 |
| \\      /  F ield         | OpenFOAM: The Open Source CFD Toolbox           |
|  \\    /   O peration     | Version:  3.0.1                                 |
|   \\  /    A nd           | Web:      www.OpenFOAM.org                      |
|    \\/     M anipulation  |                                                 |
\*---------------------------------------------------------------------------*/
FoamFile
{
    version     2.0;
    format      ascii;
    class       surfaceScalarField;
    location    "0.435629";
    object      phi;
}
// * * * * * * * * * * * * * * * * * * * * * * * * * * * * * * * * * * * * * //

dimensions      [0 3 -1 0 0 0 0];

internalField   nonuniform List<scalar> 
32369
(
-1.13745e-06
1.38051e-05
-1.26676e-05
-2.6055e-06
1.33271e-05
-1.18591e-05
-5.85424e-06
1.64287e-05
-1.31799e-05
-1.01823e-05
1.92559e-05
-1.49279e-05
-1.50301e-05
2.19933e-05
-1.71455e-05
-2.02316e-05
2.51264e-05
-1.99249e-05
-2.59573e-05
2.91255e-05
-2.33998e-05
-3.24186e-05
3.41962e-05
-2.7735e-05
-3.98829e-05
4.06635e-05
-3.31992e-05
-4.86812e-05
4.89535e-05
-4.01553e-05
5.96603e-05
-4.90381e-05
-5.93034e-05
3.8165e-06
9.98859e-06
5.19977e-06
1.19439e-05
4.5959e-06
1.70325e-05
2.46294e-06
2.13889e-05
-1.15687e-06
2.56131e-05
-6.00797e-06
2.99776e-05
-1.17999e-05
3.49175e-05
-1.85417e-05
4.0938e-05
-2.64556e-05
4.85774e-05
-3.58452e-05
5.83431e-05
7.0953e-05
-4.71379e-05
2.72324e-06
7.26534e-06
4.30248e-06
1.03646e-05
5.4567e-06
1.58783e-05
5.52692e-06
2.13187e-05
4.07642e-06
2.70636e-05
1.03596e-06
3.3018e-05
-3.36956e-06
3.9323e-05
-8.97095e-06
4.65394e-05
-1.57769e-05
5.53834e-05
-2.40346e-05
6.66008e-05
8.10997e-05
-3.41813e-05
2.33874e-06
4.92661e-06
3.65089e-06
9.05248e-06
5.04021e-06
1.4489e-05
5.99025e-06
2.03686e-05
6.00481e-06
2.7049e-05
4.76114e-06
3.42617e-05
2.16186e-06
4.19223e-05
-1.72439e-06
5.04257e-05
-6.8182e-06
6.04772e-05
-1.32056e-05
7.29882e-05
8.89851e-05
-2.1091e-05
1.77599e-06
3.15062e-06
3.31362e-06
7.51485e-06
4.95022e-06
1.28524e-05
6.27809e-06
1.90407e-05
7.09525e-06
2.62318e-05
7.09971e-06
3.42572e-05
6.04798e-06
4.2974e-05
3.87206e-06
5.26016e-05
5.92983e-07
6.37563e-05
-3.77595e-06
7.73571e-05
9.46136e-05
-9.40449e-06
1.47578e-06
1.67483e-06
3.21816e-06
5.77247e-06
5.07301e-06
1.09976e-05
6.77929e-06
1.73345e-05
8.16047e-06
2.48507e-05
9.01992e-06
3.33978e-05
9.12369e-06
4.28703e-05
8.34965e-06
5.33756e-05
6.68664e-06
6.54193e-05
4.15739e-06
7.98864e-05
9.80787e-05
6.92379e-07
1.26332e-06
4.11513e-07
3.08835e-06
3.94744e-06
5.0763e-06
9.00962e-06
7.07082e-06
1.534e-05
8.93961e-06
2.29819e-05
1.04762e-05
3.18611e-05
1.14947e-05
4.18518e-05
1.18658e-05
5.30045e-05
1.15662e-05
6.57189e-05
1.06604e-05
8.07922e-05
9.95241e-05
9.21494e-06
8.80738e-07
-4.69224e-07
2.51865e-06
2.30952e-06
4.587e-06
6.94128e-06
6.85902e-06
1.30679e-05
9.13887e-06
2.0702e-05
1.12631e-05
2.97369e-05
1.30574e-05
4.00576e-05
1.4416e-05
5.16458e-05
1.53122e-05
6.48227e-05
1.58579e-05
8.02465e-05
9.9228e-05
1.6154e-05
3.61306e-07
-8.3053e-07
1.69215e-06
9.78675e-07
3.77435e-06
4.85908e-06
6.24979e-06
1.05925e-05
8.87892e-06
1.80729e-05
1.14952e-05
2.71207e-05
1.39607e-05
3.75921e-05
1.61652e-05
4.94413e-05
1.81183e-05
6.28697e-05
1.98993e-05
7.84654e-05
9.73977e-05
2.17296e-05
1.84927e-07
-1.01546e-06
1.11669e-06
4.69113e-08
2.97894e-06
2.99684e-06
5.48719e-06
8.08423e-06
8.33969e-06
1.52204e-05
1.1339e-05
2.41214e-05
1.43371e-05
3.4594e-05
1.72482e-05
4.65302e-05
2.00709e-05
6.00469e-05
2.29358e-05
7.56006e-05
9.42155e-05
2.6118e-05
1.59897e-07
-1.17535e-06
7.64276e-07
-5.57468e-07
2.22082e-06
1.5403e-06
4.51984e-06
5.78521e-06
7.40412e-06
1.23361e-05
1.06256e-05
2.08999e-05
1.40207e-05
3.11989e-05
1.75026e-05
4.30482e-05
2.10783e-05
5.64713e-05
2.48748e-05
7.18041e-05
8.98032e-05
2.92871e-05
1.15647e-07
-1.291e-06
4.48083e-07
-8.89904e-07
1.45347e-06
5.34906e-07
3.37197e-06
3.86671e-06
6.07233e-06
9.63576e-06
9.31498e-06
1.76573e-05
1.29319e-05
2.7582e-05
1.68426e-05
3.91374e-05
2.10563e-05
5.22576e-05
2.57142e-05
6.71462e-05
8.43899e-05
3.11275e-05
6.03943e-08
-1.3514e-06
2.17719e-07
-1.04723e-06
8.45379e-07
-9.27535e-08
2.2866e-06
2.42548e-06
4.61837e-06
7.30399e-06
7.68781e-06
1.45878e-05
1.1335e-05
2.39348e-05
1.54831e-05
3.49893e-05
2.01738e-05
4.75669e-05
2.55514e-05
6.17685e-05
7.80277e-05
3.19137e-05
-9.82738e-09
-1.34157e-06
1.178e-08
-1.06884e-06
3.18889e-07
-3.99863e-07
1.28988e-06
1.45449e-06
3.16878e-06
5.42509e-06
5.90788e-06
1.18487e-05
9.40768e-06
2.0435e-05
1.36264e-05
3.07706e-05
1.86017e-05
4.25916e-05
2.44824e-05
5.58878e-05
7.09556e-05
3.15545e-05
-7.1038e-08
-1.27053e-06
-1.85041e-07
-9.54833e-07
-1.45821e-07
-4.39082e-07
3.3449e-07
9.74179e-07
1.69332e-06
4.06626e-06
3.97255e-06
9.56948e-06
7.15447e-06
1.72531e-05
1.12519e-05
2.66732e-05
1.63642e-05
3.74793e-05
2.26128e-05
4.96392e-05
6.33126e-05
3.02558e-05
-1.36728e-07
-1.1338e-06
-3.53753e-07
-7.37807e-07
-4.9414e-07
-2.98696e-07
-4.04065e-07
8.84105e-07
3.79119e-07
3.28307e-06
2.16742e-06
7.78118e-06
4.90584e-06
1.45147e-05
8.75822e-06
2.28208e-05
1.3847e-05
3.23905e-05
2.03678e-05
4.31184e-05
5.50456e-05
2.86347e-05
-1.89238e-07
-9.44564e-07
-4.79113e-07
-4.47933e-07
-7.38962e-07
-3.88459e-08
-8.73136e-07
1.01828e-06
-5.79807e-07
2.98974e-06
6.56916e-07
6.54446e-06
2.95183e-06
1.22198e-05
6.44987e-06
1.93228e-05
1.1424e-05
2.74164e-05
1.8089e-05
3.64534e-05
4.66026e-05
2.6532e-05
-2.16808e-07
-7.27756e-07
-5.53718e-07
-1.11023e-07
-8.8633e-07
2.93767e-07
-1.15754e-06
1.28949e-06
-1.15693e-06
2.98914e-06
-4.63497e-07
5.85102e-06
1.36356e-06
1.03927e-05
4.48175e-06
1.62046e-05
9.24325e-06
2.26549e-05
1.59153e-05
2.97814e-05
3.77033e-05
2.48146e-05
-2.22958e-07
-5.04798e-07
-5.74036e-07
2.40055e-07
-9.40025e-07
6.59756e-07
-1.2753e-06
1.62477e-06
-1.41984e-06
3.13368e-06
-1.06247e-06
5.49365e-06
3.21653e-07
9.00858e-06
3.09153e-06
1.34347e-05
7.61392e-06
1.81325e-05
1.4277e-05
2.31183e-05
2.84507e-05
2.35296e-05
-2.33469e-07
-2.71329e-07
-5.81561e-07
5.88147e-07
-9.36985e-07
1.01518e-06
-1.25703e-06
1.94481e-06
-1.41728e-06
3.29393e-06
-1.17674e-06
5.25311e-06
-7.34574e-08
7.9053e-06
2.42357e-06
1.09377e-05
6.68564e-06
1.38704e-05
1.32043e-05
1.65997e-05
1.91464e-05
2.25086e-05
-2.74434e-07
3.10496e-09
-5.62699e-07
8.76411e-07
-8.3313e-07
1.28561e-06
-1.02332e-06
2.135e-06
-1.03385e-06
3.30446e-06
-6.59344e-07
4.8786e-06
5.20255e-07
6.7257e-06
3.01208e-06
8.44585e-06
7.23312e-06
9.64939e-06
1.37416e-05
1.00911e-05
9.64861e-06
2.32395e-05
-1.942e-07
1.97305e-07
-3.8664e-07
1.06885e-06
-4.32631e-07
1.3316e-06
-2.77431e-07
1.9798e-06
1.75416e-07
2.85161e-06
1.14303e-06
3.91099e-06
3.00551e-06
4.86322e-06
6.17127e-06
5.28009e-06
1.10102e-05
4.81047e-06
1.7841e-05
3.2603e-06
6.5374e-07
2.68359e-05
-3.25721e-07
5.23025e-07
-1.25264e-08
7.55657e-07
5.13626e-07
8.0545e-07
1.35421e-06
1.13921e-06
2.67015e-06
1.53568e-06
4.71415e-06
1.86699e-06
7.75568e-06
1.82169e-06
1.1956e-05
1.0798e-06
1.72719e-05
-5.05423e-07
2.36497e-05
-3.11757e-06
-7.09676e-06
3.14002e-05
1.62061e-06
-1.09759e-06
2.69835e-06
-3.22081e-07
3.81366e-06
-3.0986e-07
5.36789e-06
-4.15014e-07
7.43734e-06
-5.3377e-07
1.01676e-05
-8.63268e-07
1.35901e-05
-1.6008e-06
1.75727e-05
-2.90278e-06
2.20387e-05
-4.97143e-06
2.71631e-05
-8.24201e-06
-1.31051e-05
3.31714e-05
-9.98815e-06
-2.67949e-06
-1.65032e-05
-5.34404e-06
-2.18933e-05
-7.78987e-06
-2.65814e-05
-1.02397e-05
-3.09948e-05
-1.27321e-05
-3.55189e-05
-1.54009e-05
-4.04844e-05
-1.84343e-05
-4.61633e-05
-2.2056e-05
-5.2805e-05
-2.65575e-05
-6.06553e-05
-3.2305e-05
-3.97584e-05
-6.99351e-05
-5.344e-06
2.66451e-06
-1.09921e-05
3.04066e-07
-1.67959e-05
-1.98604e-06
-2.23348e-05
-4.7008e-06
-2.77378e-05
-7.32906e-06
-3.32363e-05
-9.90238e-06
-3.91406e-05
-1.253e-05
-4.57889e-05
-1.54078e-05
-5.35114e-05
-1.8835e-05
-6.26349e-05
-2.31815e-05
-2.88738e-05
-7.35195e-05
-2.45129e-06
5.1158e-06
-5.91671e-06
3.76948e-06
-1.06898e-05
2.787e-06
-1.62991e-05
9.08545e-07
-2.22692e-05
-1.35898e-06
-2.84976e-05
-3.67394e-06
-3.51677e-05
-5.85994e-06
-4.25751e-05
-8.00039e-06
-5.10551e-05
-1.0355e-05
-6.09397e-05
-1.32969e-05
-1.72408e-05
-7.25727e-05
-1.39586e-06
6.51166e-06
-3.63112e-06
6.00474e-06
-7.05474e-06
6.21063e-06
-1.16525e-05
5.50629e-06
-1.72635e-05
4.25199e-06
-2.36399e-05
2.7025e-06
-3.06439e-05
1.1441e-06
-3.83403e-05
-3.04014e-07
-4.69837e-05
-1.7116e-06
-5.69339e-05
-3.34673e-06
-5.58489e-06
-6.85898e-05
-1.14688e-06
7.65854e-06
-2.96751e-06
7.82537e-06
-5.51344e-06
8.75656e-06
-8.97381e-06
8.96667e-06
-1.35237e-05
8.80185e-06
-1.91416e-05
8.32038e-06
-2.57315e-05
7.73408e-06
-3.32514e-05
7.21581e-06
-4.17701e-05
6.80713e-06
-5.14817e-05
6.36494e-06
5.59013e-06
-6.26568e-05
-9.51839e-07
8.61038e-06
-2.5262e-06
9.39973e-06
-4.59711e-06
1.08275e-05
-7.37147e-06
1.1741e-05
-1.10608e-05
1.24912e-05
-1.57765e-05
1.3036e-05
-2.15392e-05
1.34968e-05
-2.8348e-05
1.40245e-05
-3.62531e-05
1.47123e-05
-4.53427e-05
1.54546e-05
1.6089e-05
-5.58416e-05
-7.74486e-07
9.38487e-06
-2.09901e-06
1.07242e-05
-3.79455e-06
1.2523e-05
-6.05107e-06
1.39975e-05
-9.05283e-06
1.5493e-05
-1.29528e-05
1.6936e-05
-1.78605e-05
1.84045e-05
-2.38381e-05
2.00021e-05
-3.09447e-05
2.18189e-05
-3.92303e-05
2.37402e-05
2.5652e-05
-4.87933e-05
-6.52582e-07
1.00374e-05
-1.74393e-06
1.18156e-05
-3.11463e-06
1.38937e-05
-4.91829e-06
1.58012e-05
-7.31923e-06
1.78939e-05
-1.04775e-05
2.00942e-05
-1.4542e-05
2.2469e-05
-1.96398e-05
2.50999e-05
-2.58165e-05
2.79955e-05
-3.32022e-05
3.11259e-05
3.42838e-05
-4.1834e-05
-4.99144e-07
1.05366e-05
-1.33048e-06
1.26469e-05
-2.38991e-06
1.49531e-05
-3.76997e-06
1.71813e-05
-5.62084e-06
1.97448e-05
-8.08237e-06
2.25557e-05
-1.13165e-05
2.57031e-05
-1.54741e-05
2.92575e-05
-2.06897e-05
3.32112e-05
-2.70596e-05
3.74958e-05
4.1859e-05
-3.46348e-05
-2.75886e-07
1.08125e-05
-9.19467e-07
1.32905e-05
-1.59925e-06
1.56329e-05
-2.56332e-06
1.81453e-05
-3.88376e-06
2.10652e-05
-5.67148e-06
2.43435e-05
-8.09621e-06
2.81279e-05
-1.13222e-05
3.24836e-05
-1.55234e-05
3.74123e-05
-2.08548e-05
4.28272e-05
4.85198e-05
-2.75156e-05
-7.31179e-08
1.08856e-05
-3.31371e-07
1.35488e-05
-6.75817e-07
1.59774e-05
-1.24106e-06
1.87106e-05
-2.00924e-06
2.18334e-05
-3.14133e-06
2.54756e-05
-4.76765e-06
2.97542e-05
-7.06916e-06
3.47851e-05
-1.0239e-05
4.05821e-05
-1.44568e-05
4.7045e-05
5.39504e-05
-1.98875e-05
1.17994e-07
1.07676e-05
1.35025e-07
1.35317e-05
1.13886e-07
1.59985e-05
1.75523e-09
1.88227e-05
-2.46037e-07
2.20812e-05
-7.10803e-07
2.59403e-05
-1.52348e-06
3.05669e-05
-2.86561e-06
3.61272e-05
-4.94302e-06
4.26595e-05
-7.95096e-06
5.0053e-05
5.81006e-05
-1.21012e-05
3.13578e-07
1.0454e-05
6.16141e-07
1.32292e-05
9.29164e-07
1.56855e-05
1.2318e-06
1.85201e-05
1.49991e-06
2.18131e-05
1.67167e-06
2.57686e-05
1.6458e-06
3.05927e-05
1.27145e-06
3.65016e-05
3.20102e-07
4.36109e-05
-1.46221e-06
5.18353e-05
6.09181e-05
-4.27963e-06
5.46073e-07
9.90795e-06
1.13404e-06
1.26412e-05
1.77071e-06
1.50488e-05
2.46933e-06
1.78215e-05
3.21766e-06
2.10648e-05
3.98428e-06
2.50019e-05
4.70158e-06
2.98754e-05
5.23963e-06
3.59635e-05
5.39657e-06
4.34539e-05
4.90607e-06
5.23258e-05
6.23962e-05
3.42797e-06
6.6914e-07
9.23881e-06
1.48722e-06
1.18231e-05
2.41728e-06
1.41187e-05
3.47988e-06
1.67589e-05
4.67764e-06
1.9867e-05
6.00469e-06
2.36749e-05
7.42117e-06
2.8459e-05
8.83799e-06
3.45467e-05
1.00782e-05
4.22137e-05
1.09002e-05
5.15039e-05
6.23042e-05
1.09921e-05
7.73377e-07
8.46543e-06
1.7835e-06
1.0813e-05
2.96181e-06
1.29404e-05
4.33652e-06
1.53842e-05
5.92827e-06
1.82752e-05
7.75041e-06
2.18528e-05
9.79536e-06
2.6414e-05
1.20104e-05
3.23317e-05
1.42712e-05
3.99528e-05
1.63603e-05
4.94147e-05
6.06182e-05
1.80463e-05
8.5444e-07
7.61099e-06
2.0217e-06
9.64574e-06
3.39748e-06
1.15647e-05
5.0258e-06
1.37558e-05
6.93967e-06
1.63614e-05
9.17434e-06
1.96181e-05
1.17506e-05
2.38377e-05
1.46588e-05
2.94235e-05
1.78037e-05
3.68079e-05
2.09889e-05
4.62295e-05
5.7793e-05
2.38141e-05
8.9971e-07
6.71128e-06
2.1693e-06
8.37615e-06
3.68799e-06
1.0046e-05
5.50186e-06
1.1942e-05
7.65655e-06
1.42067e-05
1.02065e-05
1.70682e-05
1.32002e-05
2.0844e-05
1.66619e-05
2.59618e-05
2.05759e-05
3.2894e-05
2.48352e-05
4.19702e-05
5.32002e-05
2.9428e-05
9.27046e-07
5.78424e-06
2.25786e-06
7.04534e-06
3.86186e-06
8.44196e-06
5.79022e-06
1.00136e-05
8.09929e-06
1.18976e-05
1.08544e-05
1.43131e-05
1.4125e-05
1.75734e-05
1.79752e-05
2.21116e-05
2.243e-05
2.84391e-05
2.74053e-05
3.69949e-05
4.79667e-05
3.26388e-05
9.54366e-07
4.82987e-06
2.31213e-06
5.68758e-06
3.95445e-06
6.79964e-06
5.9318e-06
8.03626e-06
8.30895e-06
9.52047e-06
1.11578e-05
1.14643e-05
1.45585e-05
1.41727e-05
1.86024e-05
1.80677e-05
2.3383e-05
2.36585e-05
2.89403e-05
3.14376e-05
4.16095e-05
3.52974e-05
9.83281e-07
3.84659e-06
2.3373e-06
4.33356e-06
3.9772e-06
5.15974e-06
5.95475e-06
6.05871e-06
8.33153e-06
7.14369e-06
1.11778e-05
8.61803e-06
1.45729e-05
1.07775e-05
1.86332e-05
1.40074e-05
2.35174e-05
1.87743e-05
2.93867e-05
2.55684e-05
3.43546e-05
3.66416e-05
9.88592e-07
2.858e-06
2.31085e-06
3.01131e-06
3.92712e-06
3.54347e-06
5.87949e-06
4.10634e-06
8.21713e-06
4.80606e-06
1.09857e-05
5.84941e-06
1.426e-05
7.50326e-06
1.81758e-05
1.00916e-05
2.29276e-05
1.40225e-05
2.86433e-05
1.98527e-05
2.7809e-05
3.51888e-05
9.79113e-07
1.87888e-06
2.26773e-06
1.72269e-06
3.87429e-06
1.93691e-06
5.79616e-06
2.18446e-06
8.04821e-06
2.55401e-06
1.06684e-05
3.22925e-06
1.37372e-05
4.4344e-06
1.74268e-05
6.40209e-06
2.20021e-05
9.44716e-06
2.77924e-05
1.40624e-05
2.04387e-05
3.51628e-05
7.81295e-07
2.1819e-06
3.80895e-06
5.5784e-06
7.59864e-06
9.96462e-06
1.27982e-05
1.62975e-05
2.07732e-05
2.65937e-05
3.39272e-05
-6.77855e-06
-8.49634e-06
1.52749e-05
-1.08538e-05
-9.76979e-06
1.3845e-05
-1.42562e-05
-1.16588e-05
1.50612e-05
-1.7812e-05
-1.3671e-05
1.72268e-05
-2.14654e-05
-1.56263e-05
1.92797e-05
-2.51351e-05
-1.74338e-05
2.11035e-05
-2.91536e-05
-1.90863e-05
2.31047e-05
-3.36935e-05
-2.05175e-05
2.50574e-05
-3.89742e-05
-2.16076e-05
2.68883e-05
-4.52153e-05
-2.2141e-05
2.83822e-05
-2.17341e-05
2.92673e-05
-5.27485e-05
-5.87078e-06
-2.62556e-06
-1.07105e-05
-4.93003e-06
-1.50635e-05
-7.30576e-06
-1.91023e-05
-9.63216e-06
-2.29789e-05
-1.17497e-05
-2.68803e-05
-1.35324e-05
-3.10552e-05
-1.49114e-05
-3.57772e-05
-1.57955e-05
-4.13338e-05
-1.6051e-05
-4.80335e-05
-1.54413e-05
-1.35897e-05
-5.6178e-05
-3.1167e-06
4.91137e-07
-6.71303e-06
-1.3337e-06
-1.07297e-05
-3.28905e-06
-1.50121e-05
-5.34978e-06
-1.9455e-05
-7.30681e-06
-2.40563e-05
-8.93115e-06
-2.89682e-05
-9.99949e-06
-3.44173e-05
-1.03464e-05
-4.06669e-05
-9.80142e-06
-4.80047e-05
-8.10344e-06
-4.81014e-06
-5.67843e-05
-1.65471e-06
2.14585e-06
-4.15609e-06
1.16767e-06
-7.48763e-06
4.249e-08
-1.14038e-05
-1.43364e-06
-1.57974e-05
-2.91322e-06
-2.0637e-05
-4.09152e-06
-2.59631e-05
-4.67342e-06
-3.18916e-05
-4.41784e-06
-3.85998e-05
-3.09322e-06
-4.63174e-05
-3.85853e-07
4.2404e-06
-5.53679e-05
-9.01748e-07
3.0476e-06
-2.53219e-06
2.79811e-06
-5.04764e-06
2.55795e-06
-8.39127e-06
1.90999e-06
-1.2491e-05
1.18646e-06
-1.72379e-05
6.55401e-07
-2.25808e-05
6.69531e-07
-2.85801e-05
1.58142e-06
-3.543e-05
3.75665e-06
-4.34134e-05
7.59754e-06
1.36352e-05
-5.28081e-05
-8.29201e-07
3.8768e-06
-2.10912e-06
4.07803e-06
-3.93031e-06
4.37914e-06
-6.51173e-06
4.49141e-06
-9.92842e-06
4.60315e-06
-1.4211e-05
4.93802e-06
-1.93379e-05
5.79641e-06
-2.53053e-05
7.54881e-06
-3.21735e-05
1.06248e-05
-4.00926e-05
1.55166e-05
2.28891e-05
-4.93465e-05
-7.91049e-07
4.66785e-06
-1.98727e-06
5.27424e-06
-3.58494e-06
5.97681e-06
-5.77002e-06
6.67649e-06
-8.69101e-06
7.52414e-06
-1.2439e-05
8.68602e-06
-1.7069e-05
1.04264e-05
-2.26198e-05
1.30995e-05
-2.915e-05
1.7155e-05
-3.67602e-05
2.31269e-05
3.1697e-05
-4.55681e-05
-7.86261e-07
5.45411e-06
-1.88546e-06
6.37345e-06
-3.34854e-06
7.43988e-06
-5.30129e-06
8.62924e-06
-7.87178e-06
1.00946e-05
-1.1187e-05
1.20012e-05
-1.53463e-05
1.45858e-05
-2.04315e-05
1.81848e-05
-2.65222e-05
2.32457e-05
-3.37399e-05
3.03445e-05
4.02391e-05
-4.2282e-05
-7.5121e-07
6.20532e-06
-1.79201e-06
7.41425e-06
-3.14539e-06
8.79326e-06
-4.92122e-06
1.04051e-05
-7.23633e-06
1.24097e-05
-1.0211e-05
1.49759e-05
-1.39626e-05
1.83373e-05
-1.86017e-05
2.28239e-05
-2.42362e-05
2.88802e-05
-3.10028e-05
3.71111e-05
4.83307e-05
-3.90944e-05
-6.52185e-07
6.85751e-06
-1.59509e-06
8.35716e-06
-2.83484e-06
1.0033e-05
-4.45695e-06
1.20272e-05
-6.55969e-06
1.45125e-05
-9.25999e-06
1.76762e-05
-1.26734e-05
2.17507e-05
-1.6924e-05
2.70745e-05
-2.21399e-05
3.40961e-05
-2.84641e-05
4.34353e-05
5.58947e-05
-3.60281e-05
-5.59282e-07
7.41679e-06
-1.40954e-06
9.20741e-06
-2.5346e-06
1.11581e-05
-4.00723e-06
1.34998e-05
-5.92084e-06
1.64261e-05
-8.37592e-06
2.01313e-05
-1.14895e-05
2.48643e-05
-1.53814e-05
3.09664e-05
-2.01886e-05
3.89034e-05
-2.60577e-05
4.93044e-05
6.30068e-05
-3.31699e-05
-5.50996e-07
7.96778e-06
-1.34071e-06
9.99713e-06
-2.36439e-06
1.21817e-05
-3.70014e-06
1.48356e-05
-5.42982e-06
1.81558e-05
-7.64955e-06
2.2351e-05
-1.04713e-05
2.76861e-05
-1.40115e-05
3.45066e-05
-1.84047e-05
4.32966e-05
-2.3804e-05
5.47037e-05
6.95953e-05
-3.03925e-05
-4.99142e-07
8.46693e-06
-1.2064e-06
1.07044e-05
-2.12512e-06
1.31005e-05
-3.32202e-06
1.60325e-05
-4.87297e-06
1.97067e-05
-6.86723e-06
2.43453e-05
-9.40791e-06
3.02267e-05
-1.26113e-05
3.771e-05
-1.66081e-05
4.72934e-05
-2.15638e-05
5.96594e-05
7.57081e-05
-2.76766e-05
-3.60278e-07
8.8272e-06
-9.35839e-07
1.12799e-05
-1.71807e-06
1.38827e-05
-2.76011e-06
1.70745e-05
-4.12458e-06
2.10712e-05
-5.89302e-06
2.61137e-05
-8.15881e-06
3.24925e-05
-1.10272e-05
4.05783e-05
-1.46179e-05
5.08841e-05
-1.90683e-05
6.41098e-05
8.11841e-05
-2.45443e-05
-3.19246e-07
9.14645e-06
-7.95502e-07
1.17562e-05
-1.44423e-06
1.45314e-05
-2.3151e-06
1.79454e-05
-3.46731e-06
2.22234e-05
-4.97797e-06
2.76244e-05
-6.92764e-06
3.44422e-05
-9.40981e-06
4.30605e-05
-1.25217e-05
5.3996e-05
-1.63864e-05
6.79745e-05
8.59479e-05
-2.11503e-05
-2.42782e-07
9.38923e-06
-5.95006e-07
1.21084e-05
-1.08474e-06
1.50212e-05
-1.75734e-06
1.8618e-05
-2.67349e-06
2.31396e-05
-3.89364e-06
2.88445e-05
-5.49174e-06
3.60403e-05
-7.53813e-06
4.51069e-05
-1.00982e-05
5.6556e-05
-1.32665e-05
7.11428e-05
8.98531e-05
-1.71717e-05
-7.34442e-08
9.46268e-06
-2.32509e-07
1.22675e-05
-5.14298e-07
1.5303e-05
-9.54549e-07
1.90582e-05
-1.59322e-06
2.37782e-05
-2.49018e-06
2.97415e-05
-3.69018e-06
3.72403e-05
-5.23435e-06
4.66511e-05
-7.15794e-06
5.84796e-05
-9.5011e-06
7.3486e-05
9.26753e-05
-1.23233e-05
5.49298e-08
9.40775e-06
9.50159e-08
1.22274e-05
4.84837e-08
1.53495e-05
-1.08864e-07
1.92156e-05
-4.19637e-07
2.4089e-05
-9.22847e-07
3.02447e-05
-1.63675e-06
3.79542e-05
-2.55826e-06
4.75726e-05
-3.67237e-06
5.95937e-05
-4.9708e-06
7.47844e-05
9.41952e-05
-6.49064e-06
2.12853e-07
9.19489e-06
4.94207e-07
1.1946e-05
7.26775e-07
1.51169e-05
8.89628e-07
1.90527e-05
9.64077e-07
2.40146e-05
9.34163e-07
3.02746e-05
8.23419e-07
3.80649e-05
6.87202e-07
4.77088e-05
5.9897e-07
5.9682e-05
6.11151e-07
7.47722e-05
9.40783e-05
7.28041e-07
4.06747e-07
8.78815e-06
9.6663e-07
1.13862e-05
1.52256e-06
1.4561e-05
2.06763e-06
1.85076e-05
2.58423e-06
2.3498e-05
3.12036e-06
2.97385e-05
3.75943e-06
3.74259e-05
4.62348e-06
4.68448e-05
5.83884e-06
5.84666e-05
7.53186e-06
7.30792e-05
9.17897e-05
9.82043e-06
6.10035e-07
8.17811e-06
1.50315e-06
1.0493e-05
2.401e-06
1.36631e-05
3.34147e-06
1.75672e-05
4.37157e-06
2.24679e-05
5.60311e-06
2.8507e-05
7.19934e-06
3.58296e-05
9.34063e-06
4.47035e-05
1.21934e-05
5.56138e-05
1.59454e-05
6.93272e-05
8.69265e-05
2.08086e-05
8.22465e-07
7.35565e-06
1.92713e-06
9.38838e-06
3.14496e-06
1.24453e-05
4.50025e-06
1.62119e-05
6.1385e-06
2.08296e-05
8.25845e-06
2.6387e-05
1.10753e-05
3.30128e-05
1.47873e-05
4.09914e-05
1.95983e-05
5.08029e-05
2.57656e-05
6.31599e-05
7.909e-05
3.3602e-05
6.79299e-07
6.67635e-06
2.14129e-06
7.9264e-06
3.45763e-06
1.1129e-05
5.21492e-06
1.44546e-05
7.61643e-06
1.84281e-05
1.08678e-05
2.31356e-05
1.51543e-05
2.87263e-05
2.06682e-05
3.54775e-05
2.76603e-05
4.38107e-05
3.6483e-05
5.43373e-05
6.798e-05
4.75929e-05
-2.6744e-06
9.35075e-06
-1.55793e-06
6.80993e-06
8.14785e-07
8.75624e-06
3.88848e-06
1.13809e-05
7.8113e-06
1.45053e-05
1.27416e-05
1.82053e-05
1.88225e-05
2.26455e-05
2.62892e-05
2.80109e-05
3.55053e-05
3.45946e-05
4.69702e-05
4.28724e-05
5.36284e-05
6.13219e-05
5.49597e-06
9.77892e-06
8.05557e-06
1.12854e-05
7.33904e-06
1.57777e-05
4.49189e-06
2.00739e-05
4.24186e-08
2.37291e-05
-5.59786e-06
2.67438e-05
-1.19578e-05
2.94647e-05
-1.87426e-05
3.18422e-05
-2.62296e-05
3.43753e-05
-3.45634e-05
3.6716e-05
3.85692e-05
-4.38653e-05
6.81934e-06
2.95958e-06
1.09707e-05
7.13403e-06
1.3304e-05
1.34444e-05
1.38697e-05
1.95082e-05
1.21542e-05
2.54446e-05
7.93484e-06
3.09632e-05
1.64119e-06
3.57583e-05
-6.00716e-06
3.94906e-05
-1.4432e-05
4.28001e-05
-2.37878e-05
4.60718e-05
4.91638e-05
-3.43824e-05
4.5808e-06
-1.62122e-06
8.57342e-06
3.14141e-06
1.23857e-05
9.63212e-06
1.503e-05
1.6864e-05
1.57662e-05
2.47084e-05
1.40947e-05
3.26346e-05
9.89513e-06
3.99579e-05
3.38598e-06
4.59997e-05
-4.58798e-06
5.07741e-05
-1.35049e-05
5.49888e-05
5.90188e-05
-2.336e-05
2.23761e-06
-3.85883e-06
6.42226e-06
-1.04324e-06
1.08558e-05
5.19858e-06
1.4567e-05
1.31528e-05
1.69804e-05
2.22951e-05
1.74673e-05
3.21477e-05
1.55367e-05
4.18884e-05
1.1012e-05
5.05245e-05
4.34141e-06
5.74446e-05
-3.64698e-06
6.29772e-05
6.78899e-05
-1.25181e-05
9.44384e-07
-4.80321e-06
3.80862e-06
-3.90748e-06
8.64614e-06
3.61059e-07
1.33849e-05
8.41401e-06
1.71654e-05
1.85146e-05
1.93904e-05
2.99227e-05
1.94795e-05
4.17994e-05
1.70236e-05
5.29803e-05
1.2099e-05
6.23693e-05
5.3988e-06
6.96773e-05
7.5536e-05
-2.24728e-06
1.05441e-06
-5.85762e-06
2.58494e-06
-5.43801e-06
6.37484e-06
-3.42884e-06
1.16334e-05
3.15547e-06
1.65836e-05
1.35643e-05
2.03129e-05
2.61935e-05
2.21656e-05
3.99466e-05
2.16223e-05
5.35236e-05
1.85106e-05
6.54811e-05
1.32469e-05
7.4941e-05
8.19532e-05
6.82969e-06
1.1908e-06
-7.04842e-06
2.67227e-06
-6.91948e-06
5.0849e-06
-5.84147e-06
9.80093e-06
-1.56056e-06
1.53766e-05
7.98867e-06
2.03237e-05
2.12464e-05
2.36985e-05
3.65718e-05
2.48692e-05
5.23529e-05
2.3513e-05
6.68372e-05
1.97908e-05
7.86633e-05
8.74537e-05
1.42903e-05
1.23181e-06
-8.28023e-06
2.7782e-06
-8.46587e-06
4.81327e-06
-7.87654e-06
8.39139e-06
-5.13868e-06
1.38316e-05
2.54847e-06
1.94953e-05
1.55827e-05
2.40707e-05
3.19964e-05
2.67282e-05
4.96953e-05
2.70319e-05
6.65336e-05
2.50608e-05
8.06344e-05
9.08863e-05
2.16281e-05
1.20069e-06
-9.48092e-06
2.78427e-06
-1.00495e-05
4.7843e-06
-9.87657e-06
7.56434e-06
-7.91872e-06
1.22886e-05
-2.1758e-06
1.80747e-05
9.79655e-06
2.34456e-05
2.66255e-05
2.72898e-05
4.58512e-05
2.90538e-05
6.47696e-05
2.86336e-05
8.10545e-05
9.31122e-05
2.64078e-05
1.12799e-06
-1.06089e-05
2.60506e-06
-1.15265e-05
4.49293e-06
-1.17644e-05
6.97928e-06
-1.04051e-05
1.08184e-05
-6.01489e-06
1.62122e-05
4.40272e-06
2.18964e-05
2.09413e-05
2.65886e-05
4.1159e-05
2.95899e-05
6.17683e-05
3.08142e-05
7.98302e-05
9.33644e-05
3.0562e-05
8.16956e-07
-1.14259e-05
2.13566e-06
-1.28452e-05
3.82901e-06
-1.34578e-05
6.07405e-06
-1.26501e-05
9.25573e-06
-9.19658e-06
1.40582e-05
-3.99758e-07
1.95675e-05
1.5432e-05
2.4667e-05
3.60596e-05
2.86655e-05
5.77697e-05
3.14124e-05
7.70833e-05
9.16177e-05
3.31592e-05
6.81271e-07
-1.21071e-05
1.70579e-06
-1.38698e-05
2.94314e-06
-1.46951e-05
4.72242e-06
-1.44294e-05
7.26782e-06
-1.1742e-05
1.12386e-05
-4.37051e-06
1.62613e-05
1.04093e-05
2.14534e-05
3.08675e-05
2.61867e-05
5.30364e-05
3.03622e-05
7.29078e-05
8.7422e-05
3.45579e-05
3.97422e-07
-1.25046e-05
9.66118e-07
-1.44384e-05
1.77278e-06
-1.55018e-05
2.93176e-06
-1.55884e-05
4.77741e-06
-1.35876e-05
7.8339e-06
-7.427e-06
1.21332e-05
6.10995e-06
1.71362e-05
2.58644e-05
2.23618e-05
4.78108e-05
2.77401e-05
6.75295e-05
8.19903e-05
3.31717e-05
3.82966e-08
-1.25429e-05
1.4101e-07
-1.45412e-05
3.63619e-07
-1.57244e-05
8.01247e-07
-1.6026e-05
1.70619e-06
-1.44926e-05
3.73875e-06
-9.45955e-06
7.43193e-06
2.41677e-06
1.20814e-05
2.1215e-05
1.76154e-05
4.22769e-05
2.42801e-05
6.08647e-05
7.44572e-05
3.18133e-05
-2.84182e-07
-1.22587e-05
-6.79919e-07
-1.41454e-05
-1.10449e-06
-1.52998e-05
-1.50813e-06
-1.56224e-05
-1.68564e-06
-1.4315e-05
-1.0295e-06
-1.01157e-05
1.74789e-06
-3.60616e-07
6.4588e-06
1.6504e-05
1.24975e-05
3.62382e-05
2.01892e-05
5.3173e-05
6.49247e-05
2.97216e-05
-6.52674e-07
-1.1606e-05
-1.59926e-06
-1.31988e-05
-2.71078e-06
-1.41883e-05
-3.95789e-06
-1.43753e-05
-5.15921e-06
-1.31137e-05
-5.85583e-06
-9.41907e-06
-4.41446e-06
-1.80199e-06
2.705e-07
1.18191e-05
6.99961e-06
2.95091e-05
1.5921e-05
4.42517e-05
5.32298e-05
2.76158e-05
-1.08463e-06
-1.05214e-05
-2.60986e-06
-1.16736e-05
-4.44064e-06
-1.23575e-05
-6.52707e-06
-1.22888e-05
-8.62237e-06
-1.10184e-05
-1.01206e-05
-7.9208e-06
-9.81396e-06
-2.10868e-06
-5.82481e-06
7.82994e-06
1.78133e-06
2.1903e-05
1.1737e-05
3.4296e-05
3.97697e-05
2.51972e-05
-1.5316e-06
-8.98977e-06
-3.64285e-06
-9.56236e-06
-6.21172e-06
-9.78866e-06
-9.13923e-06
-9.36133e-06
-1.20759e-05
-8.08173e-06
-1.43041e-05
-5.69261e-06
-1.46388e-05
-1.77402e-06
-1.13777e-05
4.56889e-06
-3.50062e-06
1.40258e-05
7.3283e-06
2.3467e-05
2.67307e-05
2.03673e-05
-2.01043e-06
-6.97934e-06
-4.74661e-06
-6.82617e-06
-8.1106e-06
-6.42468e-06
-1.18823e-05
-5.5896e-06
-1.5593e-05
-4.37105e-06
-1.84265e-05
-2.85914e-06
-1.91667e-05
-1.03382e-06
-1.62969e-05
1.69909e-06
-8.5856e-06
6.31458e-06
3.01486e-06
1.18666e-05
1.22506e-05
1.74949e-05
-2.6808e-06
-4.29854e-06
-6.21543e-06
-3.29154e-06
-1.04579e-05
-2.18222e-06
-1.5002e-05
-1.04546e-06
-1.92329e-05
-1.40221e-07
-2.22774e-05
1.85404e-07
-2.30493e-05
-2.61895e-07
-2.03069e-05
-1.04331e-06
-1.29884e-05
-1.0039e-06
-1.22971e-06
1.07838e-07
-2.88316e-06
1.39041e-05
-3.78231e-06
-5.16229e-07
-7.64527e-06
5.71411e-07
-1.14116e-05
1.58408e-06
-1.47603e-05
2.30325e-06
-1.71498e-05
2.24928e-06
-1.72882e-05
3.23802e-07
-1.44849e-05
-3.06522e-06
-8.77697e-06
-6.7512e-06
4.13277e-07
-1.01941e-05
1.33993e-05
-1.28782e-05
-1.71782e-05
2.76943e-05
-3.55503e-06
3.0388e-06
-5.00103e-06
2.01741e-06
-5.56359e-06
2.14664e-06
-4.37133e-06
1.11099e-06
-4.6627e-07
-1.65578e-06
6.28379e-06
-6.42626e-06
1.38031e-05
-1.05845e-05
2.20701e-05
-1.50182e-05
3.15037e-05
-1.96277e-05
4.33171e-05
-2.46916e-05
-3.09508e-05
5.70897e-05
1.1636e-06
1.8752e-06
3.8246e-06
-6.4359e-07
8.5566e-06
-2.58536e-06
1.51517e-05
-5.48415e-06
2.25635e-05
-9.06755e-06
2.92784e-05
-1.31411e-05
3.62239e-05
-1.75301e-05
4.36427e-05
-2.2437e-05
5.21395e-05
-2.81245e-05
6.24631e-05
-3.50152e-05
-4.39392e-05
7.54515e-05
1.12259e-05
1.73923e-05
2.35632e-05
2.94599e-05
3.48976e-05
3.99618e-05
4.50772e-05
5.06511e-05
5.71212e-05
6.49784e-05
7.46676e-05
-9.79299e-06
1.87569e-05
-8.96396e-06
-1.72755e-05
1.69039e-05
-9.4214e-06
-2.59237e-05
1.91083e-05
-1.04601e-05
-3.44563e-05
2.00229e-05
-1.14903e-05
-4.30731e-05
2.18672e-05
-1.32504e-05
-5.20351e-05
2.46297e-05
-1.56677e-05
-6.18075e-05
2.85648e-05
-1.87924e-05
-7.28305e-05
3.38219e-05
-2.27989e-05
-8.55741e-05
4.07194e-05
-2.79758e-05
-0.000100559
4.96912e-05
-3.4706e-05
6.13881e-05
-4.34793e-05
-0.000118468
-2.05115e-07
1.89621e-05
-1.75763e-06
1.84564e-05
-7.66195e-06
2.50127e-05
-1.47359e-05
2.70968e-05
-2.33794e-05
3.05107e-05
-3.2924e-05
3.41743e-05
-4.35541e-05
3.91949e-05
-5.55906e-05
4.58584e-05
-6.9475e-05
5.46038e-05
-8.57362e-05
6.59524e-05
8.06228e-05
-0.000104971
1.17393e-06
1.77881e-05
4.22679e-07
1.92077e-05
-2.48933e-06
2.79247e-05
-6.69089e-06
3.12984e-05
-1.3299e-05
3.71188e-05
-2.14639e-05
4.23392e-05
-3.11566e-05
4.88875e-05
-4.23996e-05
5.71014e-05
-5.55031e-05
6.77074e-05
-7.08989e-05
8.13482e-05
9.89277e-05
-8.92038e-05
8.70523e-07
1.69176e-05
-1.56558e-07
2.02347e-05
-1.54584e-06
2.9314e-05
-4.09668e-06
3.38492e-05
-8.61625e-06
4.16383e-05
-1.46081e-05
4.8331e-05
-2.24228e-05
5.67023e-05
-3.18691e-05
6.65477e-05
-4.31705e-05
7.90088e-05
-5.65547e-05
9.47323e-05
0.000114794
-7.24214e-05
7.08664e-07
1.62089e-05
-3.86498e-07
2.13299e-05
-1.27406e-06
3.02015e-05
-3.11664e-06
3.56918e-05
-6.10599e-06
4.46277e-05
-1.02499e-05
5.2475e-05
-1.60523e-05
6.25046e-05
-2.34796e-05
7.39751e-05
-3.25598e-05
8.8089e-05
-4.35849e-05
0.000105757
0.000128083
-5.68737e-05
7.86757e-07
1.54222e-05
7.87508e-08
2.20379e-05
-4.21342e-07
3.07016e-05
-1.891e-06
3.71614e-05
-3.91159e-06
4.66483e-05
-6.8039e-06
5.53673e-05
-1.09846e-05
6.66853e-05
-1.6466e-05
7.94565e-05
-2.35254e-05
9.51484e-05
-3.22263e-05
0.000114458
0.00013867
-4.28128e-05
8.87638e-07
1.45345e-05
6.28423e-07
2.22971e-05
5.01265e-07
3.08288e-05
-5.62641e-07
3.82253e-05
-1.87035e-06
4.7956e-05
-3.89379e-06
5.73907e-05
-6.82307e-06
6.96146e-05
-1.07513e-05
8.33847e-05
-1.59539e-05
0.000100351
-2.25917e-05
0.000121096
0.000146955
-3.08764e-05
8.62374e-07
1.36722e-05
9.06511e-07
2.2253e-05
1.09422e-06
3.06411e-05
4.4839e-07
3.88712e-05
-2.4281e-07
4.86472e-05
-1.58401e-06
5.87319e-05
-3.457e-06
7.14876e-05
-6.09358e-06
8.60213e-05
-9.69548e-06
0.000103953
-1.43913e-05
0.000125792
0.000152941
-2.03782e-05
8.27809e-07
1.28444e-05
1.23528e-06
2.18455e-05
1.70193e-06
3.01744e-05
1.48118e-06
3.90919e-05
1.30349e-06
4.88249e-05
5.65979e-07
5.94695e-05
-4.28807e-07
7.24824e-05
-1.99961e-06
8.75921e-05
-4.22704e-06
0.00010618
-7.26868e-06
0.000128833
0.000156942
-1.12693e-05
1.04285e-06
1.18015e-05
1.87163e-06
2.10167e-05
2.68392e-06
2.93621e-05
2.92733e-06
3.88485e-05
3.18393e-06
4.85683e-05
2.99366e-06
5.96597e-05
2.70623e-06
7.27698e-05
2.00534e-06
8.8293e-05
9.03669e-07
0.000107282
-7.59129e-07
0.000130496
0.000159343
-3.15977e-06
1.22655e-06
1.0575e-05
2.42653e-06
1.98167e-05
3.54612e-06
2.82425e-05
4.27226e-06
3.81224e-05
4.95105e-06
4.78895e-05
5.30882e-06
5.9302e-05
5.65844e-06
7.24202e-05
5.76284e-06
8.81886e-05
5.69624e-06
0.000107349
5.31895e-06
0.000130874
0.000160077
4.5848e-06
1.19859e-06
9.37638e-06
2.60656e-06
1.84088e-05
4.00005e-06
2.6849e-05
5.18068e-06
3.69417e-05
6.28594e-06
4.67842e-05
7.21981e-06
5.83681e-05
8.21669e-06
7.14233e-05
9.14591e-06
8.72593e-05
1.0102e-05
0.000106393
1.10095e-05
0.000129966