# Forces     
# CofR       : (0.000000e+00 0.000000e+00 0.000000e+00)
# Time       forces(pressure viscous porous) moment(pressure viscous porous)
1.292046e-04	((3.264433e-01 -7.264746e-01 4.173392e-19) (1.970811e-02 6.219355e-04 -4.656851e-18) (0.000000e+00 0.000000e+00 0.000000e+00)) ((1.816186e-03 8.161082e-04 -3.137219e-02) (-1.554839e-06 4.927028e-05 -1.747243e-03) (0.000000e+00 0.000000e+00 0.000000e+00))
7.609288e-04	((3.050824e-01 -9.619682e-01 -1.417991e-18) (4.123151e-02 2.330444e-03 2.636753e-17) (0.000000e+00 0.000000e+00 0.000000e+00)) ((2.404921e-03 7.627060e-04 -2.483955e-02) (-5.826111e-06 1.030788e-04 -3.653819e-03) (0.000000e+00 0.000000e+00 0.000000e+00))
1.685274e-03	((3.697427e-01 -1.234540e+00 1.594951e-18) (5.278798e-02 3.786226e-03 1.505673e-17) (0.000000e+00 0.000000e+00 0.000000e+00)) ((3.086351e-03 9.243567e-04 -2.177558e-02) (-9.465565e-06 1.319699e-04 -4.670623e-03) (0.000000e+00 0.000000e+00 0.000000e+00))
2.932034e-03	((5.293289e-01 -1.596031e+00 -6.087550e-19) (5.395514e-02 5.570789e-03 4.061812e-17) (0.000000e+00 0.000000e+00 0.000000e+00)) ((3.990077e-03 1.323322e-03 -2.016852e-02) (-1.392697e-05 1.348879e-04 -4.772317e-03) (0.000000e+00 0.000000e+00 0.000000e+00))
4.514687e-03	((7.700251e-01 -2.022950e+00 -1.902558e-18) (5.129973e-02 8.438774e-03 9.249695e-17) (0.000000e+00 0.000000e+00 0.000000e+00)) ((5.057374e-03 1.925063e-03 -1.558769e-02) (-2.109694e-05 1.282493e-04 -4.553456e-03) (0.000000e+00 0.000000e+00 0.000000e+00))
6.196203e-03	((1.112401e+00 -2.462012e+00 5.508538e-19) (4.774735e-02 1.091208e-02 -4.654934e-17) (0.000000e+00 0.000000e+00 0.000000e+00)) ((6.155029e-03 2.781003e-03 -1.087286e-02) (-2.728019e-05 1.193684e-04 -4.267207e-03) (0.000000e+00 0.000000e+00 0.000000e+00))
7.866899e-03	((1.516594e+00 -2.855412e+00 -6.682476e-19) (4.485084e-02 1.310570e-02 8.528879e-18) (0.000000e+00 0.000000e+00 0.000000e+00)) ((7.138531e-03 3.791485e-03 -4.850106e-03) (-3.276425e-05 1.121271e-04 -4.047270e-03) (0.000000e+00 0.000000e+00 0.000000e+00))
9.532322e-03	((1.971962e+00 -3.173957e+00 -8.298245e-19) (4.145501e-02 1.463616e-02 2.743772e-17) (0.000000e+00 0.000000e+00 0.000000e+00)) ((7.934892e-03 4.929906e-03 1.875906e-03) (-3.659040e-05 1.036375e-04 -3.780016e-03) (0.000000e+00 0.000000e+00 0.000000e+00))
1.114979e-02	((2.454319e+00 -3.405694e+00 -3.127735e-18) (3.826394e-02 1.577973e-02 9.200101e-17) (0.000000e+00 0.000000e+00 0.000000e+00)) ((8.514234e-03 6.135797e-03 8.681660e-03) (-3.944933e-05 9.565984e-05 -3.528532e-03) (0.000000e+00 0.000000e+00 0.000000e+00))
1.267475e-02	((2.932176e+00 -3.541839e+00 1.565963e-18) (3.518654e-02 1.656829e-02 1.778925e-17) (0.000000e+00 0.000000e+00 0.000000e+00)) ((8.854597e-03 7.330440e-03 1.492229e-02) (-4.142073e-05 8.796635e-05 -3.286454e-03) (0.000000e+00 0.000000e+00 0.000000e+00))
1.411903e-02	((3.388253e+00 -3.589994e+00 9.860022e-19) (3.202140e-02 1.682163e-02 2.439785e-17) (0.000000e+00 0.000000e+00 0.000000e+00)) ((8.974986e-03 8.470633e-03 2.056926e-02) (-4.205407e-05 8.005350e-05 -3.025863e-03) (0.000000e+00 0.000000e+00 0.000000e+00))
1.549345e-02	((3.815573e+00 -3.560759e+00 4.546248e-18) (2.888298e-02 1.657588e-02 -3.973678e-17) (0.000000e+00 0.000000e+00 0.000000e+00)) ((8.901899e-03 9.538933e-03 2.530590e-02) (-4.143971e-05 7.220744e-05 -2.752373e-03) (0.000000e+00 0.000000e+00 0.000000e+00))
1.681006e-02	((4.206833e+00 -3.462497e+00 -2.645732e-18) (2.589160e-02 1.591702e-02 -5.505267e-17) (0.000000e+00 0.000000e+00 0.000000e+00)) ((8.656241e-03 1.051708e-02 2.904385e-02) (-3.979254e-05 6.472899e-05 -2.474828e-03) (0.000000e+00 0.000000e+00 0.000000e+00))
1.808100e-02	((4.551639e+00 -3.299151e+00 4.366703e-18) (2.311914e-02 1.496708e-02 2.625528e-17) (0.000000e+00 0.000000e+00 0.000000e+00)) ((8.247878e-03 1.137910e-02 3.174418e-02) (-3.741770e-05 5.779785e-05 -2.201829e-03) (0.000000e+00 0.000000e+00 0.000000e+00))
1.931350e-02	((4.848962e+00 -3.082767e+00 4.331060e-18) (2.057391e-02 1.381468e-02 1.441171e-16) (0.000000e+00 0.000000e+00 0.000000e+00)) ((7.706918e-03 1.212240e-02 3.336677e-02) (-3.453670e-05 5.143477e-05 -1.937384e-03) (0.000000e+00 0.000000e+00 0.000000e+00))
2.050924e-02	((5.097810e+00 -2.824032e+00 2.705774e-18) (1.825088e-02 1.247509e-02 3.797283e-17) (0.000000e+00 0.000000e+00 0.000000e+00)) ((7.060080e-03 1.274452e-02 3.389916e-02) (-3.118774e-05 4.562720e-05 -1.679798e-03) (0.000000e+00 0.000000e+00 0.000000e+00))
2.166967e-02	((5.287807e+00 -2.528672e+00 -1.415549e-18) (1.618906e-02 1.099223e-02 -6.534948e-17) (0.000000e+00 0.000000e+00 0.000000e+00)) ((6.321680e-03 1.321952e-02 3.343572e-02) (-2.748058e-05 4.047264e-05 -1.431327e-03) (0.000000e+00 0.000000e+00 0.000000e+00))
2.279976e-02	((5.424643e+00 -2.208940e+00 3.254418e-18) (1.440588e-02 9.459536e-03 -6.320653e-17) (0.000000e+00 0.000000e+00 0.000000e+00)) ((5.522349e-03 1.356161e-02 3.209034e-02) (-2.364884e-05 3.601471e-05 -1.197473e-03) (0.000000e+00 0.000000e+00 0.000000e+00))
2.390299e-02	((5.508020e+00 -1.872797e+00 -1.693547e-18) (1.289861e-02 7.997362e-03 1.362312e-16) (0.000000e+00 0.000000e+00 0.000000e+00)) ((4.681994e-03 1.377005e-02 2.998576e-02) (-1.999340e-05 3.224652e-05 -9.856974e-04) (0.000000e+00 0.000000e+00 0.000000e+00))
2.498309e-02	((5.530069e+00 -1.526682e+00 -5.365064e-19) (1.164935e-02 6.712267e-03 4.901217e-17) (0.000000e+00 0.000000e+00 0.000000e+00)) ((3.816705e-03 1.382517e-02 2.738618e-02) (-1.678067e-05 2.912338e-05 -8.022352e-04) (0.000000e+00 0.000000e+00 0.000000e+00))
2.604431e-02	((5.491022e+00 -1.179382e+00 -2.431751e-18) (1.062722e-02 5.629642e-03 3.458591e-17) (0.000000e+00 0.000000e+00 0.000000e+00)) ((2.948454e-03 1.372756e-02 2.452868e-02) (-1.407411e-05 2.656804e-05 -6.468158e-04) (0.000000e+00 0.000000e+00 0.000000e+00))
2.709183e-02	((5.400699e+00 -8.382354e-01 3.272501e-18) (9.764724e-03 4.747354e-03 1.950714e-17) (0.000000e+00 0.000000e+00 0.000000e+00)) ((2.095589e-03 1.350175e-02 2.146590e-02) (-1.186838e-05 2.441181e-05 -5.168980e-04) (0.000000e+00 0.000000e+00 0.000000e+00))
2.812912e-02	((5.249144e+00 -5.095227e-01 3.294329e-19) (9.005209e-03 4.016773e-03 3.352401e-17) (0.000000e+00 0.000000e+00 0.000000e+00)) ((1.273807e-03 1.312286e-02 1.841691e-02) (-1.004193e-05 2.251302e-05 -4.067259e-04) (0.000000e+00 0.000000e+00 0.000000e+00))
2.915873e-02	((5.050919e+00 -2.014951e-01 1.481469e-18) (8.329939e-03 3.458454e-03 4.725461e-17) (0.000000e+00 0.000000e+00 0.000000e+00)) ((5.037377e-04 1.262730e-02 1.547184e-02) (-8.646136e-06 2.082485e-05 -3.170933e-04) (0.000000e+00 0.000000e+00 0.000000e+00))
3.018325e-02	((4.810885e+00 8.030039e-02 -1.434312e-18) (7.712934e-03 3.060995e-03 -7.159805e-17) (0.000000e+00 0.000000e+00 0.000000e+00)) ((-2.007510e-04 1.202721e-02 1.275171e-02) (-7.652488e-06 1.928234e-05 -2.465179e-04) (0.000000e+00 0.000000e+00 0.000000e+00))
3.120590e-02	((4.534979e+00 3.323126e-01 -3.822509e-19) (7.118724e-03 2.794099e-03 3.135496e-17) (0.000000e+00 0.000000e+00 0.000000e+00)) ((-8.307816e-04 1.133745e-02 1.025675e-02) (-6.985247e-06 1.779681e-05 -1.923530e-04) (0.000000e+00 0.000000e+00 0.000000e+00))
3.223044e-02	((4.232327e+00 5.520125e-01 -7.118435e-19) (6.545480e-03 2.647942e-03 5.384075e-17) (0.000000e+00 0.000000e+00 0.000000e+00)) ((-1.380031e-03 1.058082e-02 7.996084e-03) (-6.619854e-06 1.636370e-05 -1.533467e-04) (0.000000e+00 0.000000e+00 0.000000e+00))
3.326151e-02	((3.904062e+00 7.367522e-01 5.016013e-19) (5.975591e-03 2.584743e-03 4.260267e-17) (0.000000e+00 0.000000e+00 0.000000e+00)) ((-1.841880e-03 9.760156e-03 5.991530e-03) (-6.461857e-06 1.493898e-05 -1.260956e-04) (0.000000e+00 0.000000e+00 0.000000e+00))
3.430458e-02	((3.564222e+00 8.876230e-01 4.568327e-19) (5.414756e-03 2.558441e-03 2.930596e-17) (0.000000e+00 0.000000e+00 0.000000e+00)) ((-2.219057e-03 8.910556e-03 4.213883e-03) (-6.396103e-06 1.353689e-05 -1.064502e-04) (0.000000e+00 0.000000e+00 0.000000e+00))
3.536627e-02	((3.209743e+00 1.002084e+00 2.954799e-18) (4.855052e-03 2.547021e-03 3.709142e-17) (0.000000e+00 0.000000e+00 0.000000e+00)) ((-2.505210e-03 8.024358e-03 2.678826e-03) (-6.367553e-06 1.213763e-05 -9.236715e-05) (0.000000e+00 0.000000e+00 0.000000e+00))
3.645396e-02	((2.847621e+00 1.080449e+00 1.843127e-18) (4.289018e-03 2.528329e-03 1.772233e-17) (0.000000e+00 0.000000e+00 0.000000e+00)) ((-2.701122e-03 7.119053e-03 1.356994e-03) (-6.320821e-06 1.072254e-05 -8.209013e-05) (0.000000e+00 0.000000e+00 0.000000e+00))
3.757587e-02	((2.479977e+00 1.121479e+00 7.835205e-20) (3.716087e-03 2.494255e-03 1.398359e-17) (0.000000e+00 0.000000e+00 0.000000e+00)) ((-2.803699e-03 6.199942e-03 2.358164e-04) (-6.235637e-06 9.290217e-06 -7.510143e-05) (0.000000e+00 0.000000e+00 0.000000e+00))
3.874217e-02	((2.113945e+00 1.126678e+00 5.948901e-19) (3.137056e-03 2.435101e-03 3.399147e-17) (0.000000e+00 0.000000e+00 0.000000e+00)) ((-2.816694e-03 5.284862e-03 -7.629121e-04) (-6.087753e-06 7.842639e-06 -7.083441e-05) (0.000000e+00 0.000000e+00 0.000000e+00))
3.996515e-02	((1.751341e+00 1.093964e+00 2.743049e-19) (2.558554e-03 2.323689e-03 1.726475e-17) (0.000000e+00 0.000000e+00 0.000000e+00)) ((-2.734909e-03 4.378352e-03 -1.605452e-03) (-5.809222e-06 6.396385e-06 -6.739052e-05) (0.000000e+00 0.000000e+00 0.000000e+00))
4.125635e-02	((1.395455e+00 1.021482e+00 1.512960e-19) (1.995586e-03 2.122357e-03 -3.623752e-17) (0.000000e+00 0.000000e+00 0.000000e+00)) ((-2.553706e-03 3.488638e-03 -2.301340e-03) (-5.305891e-06 4.988964e-06 -6.198025e-05) (0.000000e+00 0.000000e+00 0.000000e+00))
4.263834e-02	((1.055025e+00 9.119314e-01 -1.837708e-19) (1.464324e-03 1.837448e-03 2.403011e-17) (0.000000e+00 0.000000e+00 0.000000e+00)) ((-2.279829e-03 2.637562e-03 -2.883031e-03) (-4.593621e-06 3.660811e-06 -5.480509e-05) (0.000000e+00 0.000000e+00 0.000000e+00))
4.413838e-02	((7.355708e-01 7.626151e-01 -6.768636e-19) (9.712010e-04 1.497727e-03 7.601678e-17) (0.000000e+00 0.000000e+00 0.000000e+00)) ((-1.906538e-03 1.838927e-03 -3.261261e-03) (-3.744319e-06 2.428003e-06 -4.821340e-05) (0.000000e+00 0.000000e+00 0.000000e+00))
4.579455e-02	((4.429709e-01 5.714231e-01 3.851923e-21) (5.303614e-04 1.091038e-03 1.763961e-17) (0.000000e+00 0.000000e+00 0.000000e+00)) ((-1.428558e-03 1.107427e-03 -3.437019e-03) (-2.727595e-06 1.325904e-06 -4.099419e-05) (0.000000e+00 0.000000e+00 0.000000e+00))
4.767492e-02	((1.950755e-01 3.457599e-01 1.347656e-19) (1.817241e-04 5.887132e-04 7.698087e-18) (0.000000e+00 0.000000e+00 0.000000e+00)) ((-8.643998e-04 4.876887e-04 -3.301138e-03) (-1.471783e-06 4.543102e-07 -3.034468e-05) (0.000000e+00 0.000000e+00 0.000000e+00))
4.956809e-02	((2.721489e-02 1.230628e-01 -1.172714e-19) (-1.106640e-05 5.750803e-05 -2.807036e-17) (0.000000e+00 0.000000e+00 0.000000e+00)) ((-3.076570e-04 6.803722e-05 -2.729833e-03) (-1.437701e-07 -2.766599e-08 -1.654761e-05) (0.000000e+00 0.000000e+00 0.000000e+00))
5.133957e-02	((-6.904819e-02 -7.824691e-02 1.535369e-19) (-3.572285e-05 -4.509734e-04 1.505696e-17) (0.000000e+00 0.000000e+00 0.000000e+00)) ((1.956173e-04 -1.726205e-04 -1.726015e-03) (1.127434e-06 -8.930712e-08 7.377341e-07) (0.000000e+00 0.000000e+00 0.000000e+00))
5.301117e-02	((-9.917154e-02 -2.274487e-01 1.948496e-19) (7.062006e-05 -9.227603e-04 1.339628e-17) (0.000000e+00 0.000000e+00 0.000000e+00)) ((5.686218e-04 -2.479289e-04 -3.591200e-04) (2.306901e-06 1.765501e-07 2.036421e-05) (0.000000e+00 0.000000e+00 0.000000e+00))
5.459282e-02	((-9.493451e-02 -3.606942e-01 -1.034810e-19) (2.676788e-04 -1.327446e-03 2.137687e-17) (0.000000e+00 0.000000e+00 0.000000e+00)) ((9.017355e-04 -2.373363e-04 1.360600e-03) (3.318616e-06 6.691970e-07 3.989292e-05) (0.000000e+00 0.000000e+00 0.000000e+00))
5.609256e-02	((-6.478881e-02 -4.830761e-01 2.434222e-19) (5.703155e-04 -1.642644e-03 1.639291e-17) (0.000000e+00 0.000000e+00 0.000000e+00)) ((1.207690e-03 -1.619720e-04 3.457820e-03) (4.106610e-06 1.425789e-06 6.146308e-05) (0.000000e+00 0.000000e+00 0.000000e+00))
5.752403e-02	((-1.560375e-02 -5.903320e-01 -3.768022e-20) (9.254927e-04 -1.870446e-03 1.480859e-17) (0.000000e+00 0.000000e+00 0.000000e+00)) ((1.475830e-03 -3.900939e-05 5.620933e-03) (4.676116e-06 2.313732e-06 8.302954e-05) (0.000000e+00 0.000000e+00 0.000000e+00))
5.889984e-02	((4.723427e-02 -6.829497e-01 1.113906e-20) (1.307960e-03 -2.007432e-03 1.359635e-17) (0.000000e+00 0.000000e+00 0.000000e+00)) ((1.707374e-03 1.180857e-04 7.695636e-03) (5.018579e-06 3.269901e-06 1.043120e-04) (0.000000e+00 0.000000e+00 0.000000e+00))
6.023094e-02	((1.179164e-01 -7.613722e-01 -1.479519e-19) (1.681167e-03 -2.064002e-03 1.156260e-17) (0.000000e+00 0.000000e+00 0.000000e+00)) ((1.903431e-03 2.947909e-04 9.421790e-03) (5.160006e-06 4.202917e-06 1.235650e-04) (0.000000e+00 0.000000e+00 0.000000e+00))
6.152586e-02	((1.917480e-01 -8.192473e-01 -2.881143e-21) (2.020225e-03 -2.050436e-03 -3.018342e-17) (0.000000e+00 0.000000e+00 0.000000e+00)) ((2.048118e-03 4.793701e-04 1.065676e-02) (5.126089e-06 5.050562e-06 1.395252e-04) (0.000000e+00 0.000000e+00 0.000000e+00))
6.278761e-02	((2.643009e-01 -8.574949e-01 7.561416e-19) (2.308428e-03 -1.987216e-03 2.365227e-17) (0.000000e+00 0.000000e+00 0.000000e+00)) ((2.143737e-03 6.607522e-04 1.129207e-02) (4.968039e-06 5.771070e-06 1.513673e-04) (0.000000e+00 0.000000e+00 0.000000e+00))
6.401642e-02	((3.308906e-01 -8.749505e-01 2.519443e-19) (2.535753e-03 -1.892782e-03 1.789408e-17) (0.000000e+00 0.000000e+00 0.000000e+00)) ((2.187376e-03 8.272264e-04 1.128166e-02) (4.731955e-06 6.339381e-06 1.584706e-04) (0.000000e+00 0.000000e+00 0.000000e+00))
6.521776e-02	((3.876011e-01 -8.698539e-01 -5.147219e-19) (2.691037e-03 -1.784325e-03 7.349390e-17) (0.000000e+00 0.000000e+00 0.000000e+00)) ((2.174635e-03 9.690028e-04 1.064616e-02) (4.460812e-06 6.727593e-06 1.599235e-04) (0.000000e+00 0.000000e+00 0.000000e+00))
6.639595e-02	((4.307991e-01 -8.432801e-01 -3.045964e-19) (2.764330e-03 -1.678885e-03 -3.197206e-17) (0.000000e+00 0.000000e+00 0.000000e+00)) ((2.108200e-03 1.076998e-03 9.414785e-03) (4.197214e-06 6.910824e-06 1.546642e-04) (0.000000e+00 0.000000e+00 0.000000e+00))
6.755483e-02	((4.598651e-01 -8.008992e-01 7.585463e-20) (2.747330e-03 -1.594945e-03 7.966749e-17) (0.000000e+00 0.000000e+00 0.000000e+00)) ((2.002248e-03 1.149663e-03 7.708350e-03) (3.987362e-06 6.868324e-06 1.416114e-04) (0.000000e+00 0.000000e+00 0.000000e+00))
6.869918e-02	((4.732194e-01 -7.441333e-01 4.491015e-19) (2.639277e-03 -1.551770e-03 2.888229e-17) (0.000000e+00 0.000000e+00 0.000000e+00)) ((1.860333e-03 1.183048e-03 5.633400e-03) (3.879424e-06 6.598192e-06 1.201751e-04) (0.000000e+00 0.000000e+00 0.000000e+00))
6.983514e-02	((4.726007e-01 -6.793834e-01 4.981579e-19) (2.445447e-03 -1.569038e-03 6.779585e-17) (0.000000e+00 0.000000e+00 0.000000e+00)) ((1.698459e-03 1.181502e-03 3.321075e-03) (3.922595e-06 6.113618e-06 9.002413e-05) (0.000000e+00 0.000000e+00 0.000000e+00))
7.096705e-02	((4.605106e-01 -6.112274e-01 5.366345e-19) (2.178368e-03 -1.661893e-03 4.763875e-18) (0.000000e+00 0.000000e+00 0.000000e+00)) ((1.528069e-03 1.151277e-03 9.300253e-04) (4.154733e-06 5.445920e-06 5.132184e-05) (0.000000e+00 0.000000e+00 0.000000e+00))
7.209901e-02	((4.434230e-01 -5.487619e-01 -7.697535e-19) (1.857620e-03 -1.841999e-03 2.045423e-17) (0.000000e+00 0.000000e+00 0.000000e+00)) ((1.371905e-03 1.108558e-03 -1.449694e-03) (4.604996e-06 4.644050e-06 4.712811e-06) (0.000000e+00 0.000000e+00 0.000000e+00))
7.323437e-02	((4.268620e-01 -4.952751e-01 -9.021730e-19) (1.510244e-03 -2.121592e-03 2.429828e-17) (0.000000e+00 0.000000e+00 0.000000e+00)) ((1.238188e-03 1.067155e-03 -3.678924e-03) (5.303980e-06 3.775610e-06 -4.879638e-05) (0.000000e+00 0.000000e+00 0.000000e+00))
7.437748e-02	((4.185151e-01 -4.552841e-01 9.300842e-19) (1.160161e-03 -2.490170e-03 7.580146e-17) (0.000000e+00 0.000000e+00 0.000000e+00)) ((1.138210e-03 1.046288e-03 -5.670028e-03) (6.225425e-06 2.900401e-06 -1.074328e-04) (0.000000e+00 0.000000e+00 0.000000e+00))
7.553428e-02	((4.303514e-01 -4.334213e-01 3.744691e-19) (8.173730e-04 -2.953923e-03 2.156209e-17) (0.000000e+00 0.000000e+00 0.000000e+00)) ((1.083553e-03 1.075879e-03 -7.304563e-03) (7.384806e-06 2.043433e-06 -1.717143e-04) (0.000000e+00 0.000000e+00 0.000000e+00))
7.671238e-02	((4.695063e-01 -4.283721e-01 1.821983e-18) (5.093722e-04 -3.538797e-03 9.902570e-18) (0.000000e+00 0.000000e+00 0.000000e+00)) ((1.070930e-03 1.173766e-03 -8.584223e-03) (8.846993e-06 1.273430e-06 -2.426936e-04) (0.000000e+00 0.000000e+00 0.000000e+00))
7.792150e-02	((5.388190e-01 -4.331012e-01 2.111779e-19) (2.686640e-04 -4.269309e-03 8.439827e-18) (0.000000e+00 0.000000e+00 0.000000e+00)) ((1.082753e-03 1.347048e-03 -9.467527e-03) (1.067327e-05 6.716599e-07 -3.216641e-04) (0.000000e+00 0.000000e+00 0.000000e+00))
7.917459e-02	((6.429674e-01 -4.423263e-01 9.921352e-19) (1.277963e-04 -5.177613e-03 5.742818e-17) (0.000000e+00 0.000000e+00 0.000000e+00)) ((1.105816e-03 1.607419e-03 -9.998690e-03) (1.294403e-05 3.194908e-07 -4.113195e-04) (0.000000e+00 0.000000e+00 0.000000e+00))
8.048783e-02	((7.792911e-01 -4.462929e-01 7.117327e-19) (1.294325e-04 -6.283599e-03 2.038674e-17) (0.000000e+00 0.000000e+00 0.000000e+00)) ((1.115732e-03 1.948228e-03 -1.027447e-02) (1.570900e-05 3.235814e-07 -5.139065e-04) (0.000000e+00 0.000000e+00 0.000000e+00))
8.188399e-02	((9.401682e-01 -4.335437e-01 -7.216715e-19) (3.156088e-04 -7.597828e-03 1.474941e-17) (0.000000e+00 0.000000e+00 0.000000e+00)) ((1.083859e-03 2.350420e-03 -1.036713e-02) (1.899457e-05 7.890220e-07 -6.319341e-04) (0.000000e+00 0.000000e+00 0.000000e+00))
8.338972e-02	((1.100047e+00 -3.907168e-01 -4.229678e-19) (7.209877e-04 -9.130920e-03 1.522912e-17) (0.000000e+00 0.000000e+00 0.000000e+00)) ((9.767919e-04 2.750116e-03 -1.048945e-02) (2.282730e-05 1.802469e-06 -7.690692e-04) (0.000000e+00 0.000000e+00 0.000000e+00))
8.503856e-02	((1.230728e+00 -3.137424e-01 4.189331e-19) (1.391530e-03 -1.084936e-02 7.709089e-18) (0.000000e+00 0.000000e+00 0.000000e+00)) ((7.843559e-04 3.076820e-03 -1.104057e-02) (2.712340e-05 3.478825e-06 -9.257259e-04) (0.000000e+00 0.000000e+00 0.000000e+00))
8.690431e-02	((1.304144e+00 -2.038431e-01 -4.732869e-19) (2.420730e-03 -1.263083e-02 8.346906e-18) (0.000000e+00 0.000000e+00 0.000000e+00)) ((5.096077e-04 3.260360e-03 -1.233005e-02) (3.157708e-05 6.051824e-06 -1.095448e-03) (0.000000e+00 0.000000e+00 0.000000e+00))
8.885935e-02	((1.328831e+00 -8.247369e-02 4.293035e-19) (3.761588e-03 -1.391461e-02 1.716104e-17) (0.000000e+00 0.000000e+00 0.000000e+00)) ((2.061842e-04 3.322078e-03 -1.409087e-02) (3.478652e-05 9.403970e-06 -1.233538e-03) (0.000000e+00 0.000000e+00 0.000000e+00))
9.070246e-02	((1.341465e+00 3.402439e-02 -1.107565e-18) (5.217202e-03 -1.457925e-02 8.303961e-18) (0.000000e+00 0.000000e+00 0.000000e+00)) ((-8.506097e-05 3.353663e-03 -1.572930e-02) (3.644814e-05 1.304300e-05 -1.329296e-03) (0.000000e+00 0.000000e+00 0.000000e+00))
9.243607e-02	((1.353071e+00 1.472774e-01 2.149584e-18) (6.808562e-03 -1.502130e-02 1.556515e-17) (0.000000e+00 0.000000e+00 0.000000e+00)) ((-3.681935e-04 3.382679e-03 -1.720091e-02) (3.755326e-05 1.702140e-05 -1.418460e-03) (0.000000e+00 0.000000e+00 0.000000e+00))
9.407365e-02	((1.334922e+00 2.493887e-01 6.774991e-19) (8.515344e-03 -1.547011e-02 2.130199e-17) (0.000000e+00 0.000000e+00 0.000000e+00)) ((-6.234718e-04 3.337304e-03 -1.863672e-02) (3.867529e-05 2.128836e-05 -1.521321e-03) (0.000000e+00 0.000000e+00 0.000000e+00))
9.562495e-02	((1.273627e+00 3.323106e-01 -1.107285e-18) (1.025146e-02 -1.591038e-02 1.727082e-17) (0.000000e+00 0.000000e+00 0.000000e+00)) ((-8.307766e-04 3.184067e-03 -1.981162e-02) (3.977596e-05 2.562866e-05 -1.633927e-03) (0.000000e+00 0.000000e+00 0.000000e+00))
9.710101e-02	((1.182212e+00 3.915640e-01 -2.682591e-18) (1.192244e-02 -1.620792e-02 -4.364650e-17) (0.000000e+00 0.000000e+00 0.000000e+00)) ((-9.789101e-04 2.955531e-03 -2.082996e-02) (4.051979e-05 2.980611e-05 -1.741082e-03) (0.000000e+00 0.000000e+00 0.000000e+00))
9.851477e-02	((1.079546e+00 4.335711e-01 -7.188834e-19) (1.346777e-02 -1.625659e-02 2.494481e-17) (0.000000e+00 0.000000e+00 0.000000e+00)) ((-1.083928e-03 2.698865e-03 -2.152507e-02) (4.064148e-05 3.366943e-05 -1.830941e-03) (0.000000e+00 0.000000e+00 0.000000e+00))
9.987902e-02	((9.839774e-01 4.673097e-01 9.893525e-19) (1.488302e-02 -1.604019e-02 3.097435e-17) (0.000000e+00 0.000000e+00 0.000000e+00)) ((-1.168274e-03 2.459944e-03 -2.196829e-02) (4.010049e-05 3.720756e-05 -1.901586e-03) (0.000000e+00 0.000000e+00 0.000000e+00))
1.012034e-01	((9.014702e-01 4.993530e-01 -9.019135e-20) (1.618831e-02 -1.559997e-02 1.884118e-17) (0.000000e+00 0.000000e+00 0.000000e+00)) ((-1.248382e-03 2.253675e-03 -2.219639e-02) (3.899992e-05 4.047078e-05 -1.957053e-03) (0.000000e+00 0.000000e+00 0.000000e+00))
1.024954e-01	((8.277877e-01 5.287044e-01 -7.369719e-19) (1.740581e-02 -1.498907e-02 -3.736483e-17) (0.000000e+00 0.000000e+00 0.000000e+00)) ((-1.321761e-03 2.069469e-03 -2.232166e-02) (3.747267e-05 4.351453e-05 -2.002468e-03) (0.000000e+00 0.000000e+00 0.000000e+00))
1.037546e-01	((7.651499e-01 5.575298e-01 1.232808e-18) (1.855176e-02 -1.425118e-02 9.748159e-17) (0.000000e+00 0.000000e+00 0.000000e+00)) ((-1.393825e-03 1.912875e-03 -2.249772e-02) (3.562796e-05 4.637939e-05 -2.041854e-03) (0.000000e+00 0.000000e+00 0.000000e+00))
1.049847e-01	((7.095283e-01 5.850692e-01 1.918440e-18) (1.966207e-02 -1.342010e-02 2.823314e-17) (0.000000e+00 0.000000e+00 0.000000e+00)) ((-1.462673e-03 1.773821e-03 -2.271272e-02) (3.355024e-05 4.915518e-05 -2.080035e-03) (0.000000e+00 0.000000e+00 0.000000e+00))
1.061914e-01	((6.593742e-01 6.117105e-01 5.287893e-19) (2.076223e-02 -1.252658e-02 -3.142867e-17) (0.000000e+00 0.000000e+00 0.000000e+00)) ((-1.529276e-03 1.648436e-03 -2.300184e-02) (3.131644e-05 5.190558e-05 -2.120849e-03) (0.000000e+00 0.000000e+00 0.000000e+00))
1.073786e-01	((6.132072e-01 6.382452e-01 -2.493666e-19) (2.186120e-02 -1.158119e-02 3.020423e-17) (0.000000e+00 0.000000e+00 0.000000e+00)) ((-1.595613e-03 1.533018e-03 -2.333801e-02) (2.895297e-05 5.465301e-05 -2.165769e-03) (0.000000e+00 0.000000e+00 0.000000e+00))
1.085507e-01	((5.685231e-01 6.612107e-01 2.029807e-19) (2.294667e-02 -1.058058e-02 8.301590e-17) (0.000000e+00 0.000000e+00 0.000000e+00)) ((-1.653027e-03 1.421308e-03 -2.377508e-02) (2.645144e-05 5.736667e-05 -2.213970e-03) (0.000000e+00 0.000000e+00 0.000000e+00))
1.097134e-01	((5.231331e-01 6.788628e-01 -7.319937e-19) (2.400055e-02 -9.510597e-03 1.896735e-17) (0.000000e+00 0.000000e+00 0.000000e+00)) ((-1.697157e-03 1.307833e-03 -2.423696e-02) (2.377649e-05 6.000138e-05 -2.263726e-03) (0.000000e+00 0.000000e+00 0.000000e+00))
1.108726e-01	((4.752351e-01 6.840563e-01 1.787471e-18) (2.502425e-02 -8.359784e-03 2.361193e-17) (0.000000e+00 0.000000e+00 0.000000e+00)) ((-1.710141e-03 1.188088e-03 -2.477975e-02) (2.089946e-05 6.256063e-05 -2.315211e-03) (0.000000e+00 0.000000e+00 0.000000e+00))
1.120328e-01	((4.243982e-01 6.707382e-01 -2.762438e-18) (2.602778e-02 -7.140888e-03 -5.897327e-17) (0.000000e+00 0.000000e+00 0.000000e+00)) ((-1.676845e-03 1.060996e-03 -2.538400e-02) (1.785222e-05 6.506945e-05 -2.370197e-03) (0.000000e+00 0.000000e+00 0.000000e+00))
1.131987e-01	((3.732353e-01 6.383799e-01 -1.964303e-18) (2.709290e-02 -5.861578e-03 2.216158e-17) (0.000000e+00 0.000000e+00 0.000000e+00)) ((-1.595950e-03 9.330884e-04 -2.598025e-02) (1.465395e-05 6.773226e-05 -2.436577e-03) (0.000000e+00 0.000000e+00 0.000000e+00))
1.143740e-01	((3.230875e-01 5.816486e-01 1.146765e-18) (2.832881e-02 -4.535727e-03 -4.475962e-17) (0.000000e+00 0.000000e+00 0.000000e+00)) ((-1.454121e-03 8.077187e-04 -2.654331e-02) (1.133932e-05 7.082203e-05 -2.524677e-03) (0.000000e+00 0.000000e+00 0.000000e+00))
1.155648e-01	((2.767228e-01 4.963552e-01 6.819350e-19) (2.976514e-02 -3.152640e-03 1.078805e-16) (0.000000e+00 0.000000e+00 0.000000e+00)) ((-1.240888e-03 6.918071e-04 -2.699954e-02) (7.881601e-06 7.441286e-05 -2.637231e-03) (0.000000e+00 0.000000e+00 0.000000e+00))
1.167794e-01	((2.393059e-01 3.830986e-01 -7.731014e-19) (3.138286e-02 -1.680125e-03 2.276880e-17) (0.000000e+00 0.000000e+00 0.000000e+00)) ((-9.577464e-04 5.982646e-04 -2.734654e-02) (4.200312e-06 7.845714e-05 -2.772384e-03) (0.000000e+00 0.000000e+00 0.000000e+00))
1.180281e-01	((2.149277e-01 2.358965e-01 -2.662715e-19) (3.308934e-02 -6.544388e-05 -4.823183e-17) (0.000000e+00 0.000000e+00 0.000000e+00)) ((-5.897412e-04 5.373193e-04 -2.742700e-02) (1.636097e-07 8.272335e-05 -2.922118e-03) (0.000000e+00 0.000000e+00 0.000000e+00))
1.193254e-01	((2.102116e-01 5.561221e-02 -7.236197e-19) (3.478106e-02 1.731485e-03 -4.849471e-17) (0.000000e+00 0.000000e+00 0.000000e+00)) ((-1.390305e-04 5.255290e-04 -2.712180e-02) (-4.328712e-06 8.695265e-05 -3.077976e-03) (0.000000e+00 0.000000e+00 0.000000e+00))
1.206907e-01	((2.336851e-01 -1.586317e-01 7.369277e-19) (3.636039e-02 3.738167e-03 7.994146e-17) (0.000000e+00 0.000000e+00 0.000000e+00)) ((3.965791e-04 5.842129e-04 -2.632744e-02) (-9.345418e-06 9.090097e-05 -3.232364e-03) (0.000000e+00 0.000000e+00 0.000000e+00))
1.221499e-01	((2.981573e-01 -4.301713e-01 -6.336911e-19) (3.779651e-02 5.992663e-03 1.329228e-17) (0.000000e+00 0.000000e+00 0.000000e+00)) ((1.075428e-03 7.453934e-04 -2.483672e-02) (-1.498166e-05 9.449126e-05 -3.384000e-03) (0.000000e+00 0.000000e+00 0.000000e+00))
1.237328e-01	((4.221574e-01 -7.565186e-01 3.808335e-19) (3.907844e-02 8.452713e-03 2.434963e-17) (0.000000e+00 0.000000e+00 0.000000e+00)) ((1.891296e-03 1.055393e-03 -2.247485e-02) (-2.113178e-05 9.769611e-05 -3.530919e-03) (0.000000e+00 0.000000e+00 0.000000e+00))
1.254930e-01	((6.495077e-01 -1.173579e+00 -2.494276e-19) (3.998290e-02 1.120555e-02 -3.328316e-17) (0.000000e+00 0.000000e+00 0.000000e+00)) ((2.933948e-03 1.623769e-03 -1.949234e-02) (-2.801387e-05 9.995725e-05 -3.656354e-03) (0.000000e+00 0.000000e+00 0.000000e+00))
1.274318e-01	((9.868125e-01 -1.634198e+00 3.308731e-19) (3.991802e-02 1.415400e-02 6.412793e-18) (0.000000e+00 0.000000e+00 0.000000e+00)) ((4.085494e-03 2.467031e-03 -1.372723e-02) (-3.538499e-05 9.979505e-05 -3.712515e-03) (0.000000e+00 0.000000e+00 0.000000e+00))
1.293675e-01	((1.399540e+00 -2.026491e+00 -2.221540e-18) (3.849916e-02 1.662233e-02 1.620050e-17) (0.000000e+00 0.000000e+00 0.000000e+00)) ((5.066227e-03 3.498850e-03 -6.624447e-03) (-4.155581e-05 9.624790e-05 -3.654414e-03) (0.000000e+00 0.000000e+00 0.000000e+00))
1.311819e-01	((1.956028e+00 -2.410677e+00 9.317959e-19) (3.652530e-02 1.866648e-02 2.655218e-17) (0.000000e+00 0.000000e+00 0.000000e+00)) ((6.026692e-03 4.890070e-03 -3.075620e-03) (-4.666620e-05 9.131324e-05 -3.549239e-03) (0.000000e+00 0.000000e+00 0.000000e+00))
1.328915e-01	((2.459625e+00 -2.642018e+00 -2.093188e-18) (3.372999e-02 1.970247e-02 1.563182e-17) (0.000000e+00 0.000000e+00 0.000000e+00)) ((6.605045e-03 6.149062e-03 4.056776e-03) (-4.925618e-05 8.432498e-05 -3.351189e-03) (0.000000e+00 0.000000e+00 0.000000e+00))
1.345095e-01	((2.941145e+00 -2.756479e+00 3.872260e-19) (3.082995e-02 2.018050e-02 2.712041e-17) (0.000000e+00 0.000000e+00 0.000000e+00)) ((6.891196e-03 7.352863e-03 1.084867e-02) (-5.045124e-05 7.707488e-05 -3.131273e-03) (0.000000e+00 0.000000e+00 0.000000e+00))
1.360432e-01	((3.386206e+00 -2.773094e+00 -1.375070e-18) (2.768778e-02 2.007328e-02 2.618414e-17) (0.000000e+00 0.000000e+00 0.000000e+00)) ((6.932735e-03 8.465516e-03 1.706735e-02) (-5.018320e-05 6.921945e-05 -2.877500e-03) (0.000000e+00 0.000000e+00 0.000000e+00))
1.375053e-01	((3.783805e+00 -2.705416e+00 -2.686004e-18) (2.449450e-02 1.931891e-02 -5.350396e-17) (0.000000e+00 0.000000e+00 0.000000e+00)) ((6.763539e-03 9.459512e-03 2.253461e-02) (-4.829728e-05 6.123626e-05 -2.593211e-03) (0.000000e+00 0.000000e+00 0.000000e+00))
1.389086e-01	((4.125728e+00 -2.564750e+00 -6.718740e-20) (2.145149e-02 1.809863e-02 2.462039e-18) (0.000000e+00 0.000000e+00 0.000000e+00)) ((6.411876e-03 1.031432e-02 2.696865e-02) (-4.524658e-05 5.362873e-05 -2.297973e-03) (0.000000e+00 0.000000e+00 0.000000e+00))
1.402655e-01	((4.411789e+00 -2.365732e+00 -4.661781e-19) (1.871061e-02 1.659781e-02 -4.982298e-17) (0.000000e+00 0.000000e+00 0.000000e+00)) ((5.914329e-03 1.102947e-02 3.030545e-02) (-4.149453e-05 4.677652e-05 -2.008657e-03) (0.000000e+00 0.000000e+00 0.000000e+00))
1.415853e-01	((4.638604e+00 -2.118360e+00 -2.802754e-18) (1.625956e-02 1.494396e-02 2.127589e-17) (0.000000e+00 0.000000e+00 0.000000e+00)) ((5.295901e-03 1.159651e-02 3.246620e-02) (-3.735991e-05 4.064891e-05 -1.731654e-03) (0.000000e+00 0.000000e+00 0.000000e+00))
1.428737e-01	((4.800283e+00 -1.831958e+00 5.728231e-19) (1.410275e-02 1.313117e-02 9.342002e-17) (0.000000e+00 0.000000e+00 0.000000e+00)) ((4.579894e-03 1.200071e-02 3.344580e-02) (-3.282793e-05 3.525688e-05 -1.463238e-03) (0.000000e+00 0.000000e+00 0.000000e+00))
1.441304e-01	((4.902098e+00 -1.520707e+00 9.757912e-19) (1.227011e-02 1.120939e-02 1.140707e-16) (0.000000e+00 0.000000e+00 0.000000e+00)) ((3.801767e-03 1.225524e-02 3.329483e-02) (-2.802347e-05 3.067529e-05 -1.205101e-03) (0.000000e+00 0.000000e+00 0.000000e+00))
1.453603e-01	((4.941298e+00 -1.193419e+00 1.224234e-18) (1.075259e-02 9.289326e-03 3.071524e-17) (0.000000e+00 0.000000e+00 0.000000e+00)) ((2.983548e-03 1.235325e-02 3.213788e-02) (-2.322332e-05 2.688148e-05 -9.635211e-04) (0.000000e+00 0.000000e+00 0.000000e+00))
1.465684e-01	((4.920753e+00 -8.605319e-01 6.844176e-19) (9.534019e-03 7.493076e-03 1.481605e-17) (0.000000e+00 0.000000e+00 0.000000e+00)) ((2.151330e-03 1.230188e-02 3.016345e-02) (-1.873269e-05 2.383505e-05 -7.458567e-04) (0.000000e+00 0.000000e+00 0.000000e+00))
1.477587e-01	((4.837322e+00 -5.310681e-01 7.746935e-19) (8.575393e-03 5.919794e-03 3.507358e-17) (0.000000e+00 0.000000e+00 0.000000e+00)) ((1.327670e-03 1.209331e-02 2.761406e-02) (-1.479949e-05 2.143848e-05 -5.575970e-04) (0.000000e+00 0.000000e+00 0.000000e+00))