/*--------------------------------*- C++ -*----------------------------------*\
| =========                 |                                                 |
| \\      /  F ield         | OpenFOAM: The Open Source CFD Toolbox           |
|  \\    /   O peration     | Version:  3.0.1                                 |
|   \\  /    A nd           | Web:      www.OpenFOAM.org                      |
|    \\/     M anipulation  |                                                 |
\*---------------------------------------------------------------------------*/
FoamFile
{
    version     2.0;
    format      ascii;
    class       volScalarField;
    location    "0.73484";
    object      p;
}
// * * * * * * * * * * * * * * * * * * * * * * * * * * * * * * * * * * * * * //

dimensions      [0 2 -2 0 0 0 0];

internalField   nonuniform List<scalar> 
21246
(
24.0233
16.2531
12.1437
9.6942
8.00299
6.78609
5.84282
5.07176
4.43556
3.94026
3.61626
25.014
23.0109
19.142
15.623
12.653
10.3243
8.53647
7.15977
6.09909
5.30705
4.76815
20.1052
20.6706
19.7464
17.8834
15.6093
13.2147
11.0426
9.23088
7.77083
6.6248
5.82194
16.0889
17.7766
17.9208
17.4945
16.2361
14.4922
12.5679
10.719
9.08161
7.71854
6.69058
12.6865
14.5318
14.9069
15.39
15.1108
14.2244
12.896
11.3718
9.85116
8.47496
7.38344
10.1447
11.9412
12.251
12.9999
13.2435
13.0139
12.3088
11.2662
10.0548
8.83017
7.78396
8.5904
9.83402
10.2959
11.0213
11.4266
11.5344
11.2669
10.6601
9.81921
8.82308
7.90032
7.7132
8.51739
8.89364
9.51039
9.93158
10.1754
10.1422
9.81661
9.22944
8.52919
7.81637
7.04773
7.66354
7.92465
8.41155
8.77554
9.04557
9.12529
8.9852
8.62441
8.10429
7.55207
6.4004
6.97657
7.19388
7.59875
7.89952
8.14827
8.26459
8.22054
7.99869
7.62265
7.1976
6.0379
6.51535
6.66955
7.00195
7.23964
7.44914
7.56219
7.5583
7.4149
7.13724
6.8153
6.02125
6.3085
6.35602
6.59377
6.75468
6.91123
6.99849
7.00225
6.89965
6.6868
6.43568
5.92482
6.12298
6.12519
6.29472
6.38879
6.49227
6.54413
6.53725
6.45073
6.27591
6.0746
5.69322
5.8954
5.90205
6.03694
6.086
6.1477
6.16531
6.14038
6.05526
5.89719
5.72365
5.68558
5.78447
5.73515
5.81803
5.82286
5.84797
5.8343
5.78963
5.69957
5.54871
5.38736
5.61186
5.64722
5.5686
5.61201
5.58019
5.57327
5.53204
5.4684
5.37052
5.22212
5.06932
5.38496
5.42969
5.36595
5.39208
5.33901
5.30816
5.24593
5.1663
5.05925
4.90888
4.74836
5.26332
5.26281
5.17567
5.17003
5.09658
5.04583
4.96909
4.87762
4.76167
4.60862
4.4424
5.13439
5.08604
4.97293
4.93596
4.84746
4.7836
4.70002
4.60111
4.47666
4.31916
4.14842
4.93184
4.84488
4.72108
4.67049
4.5856
4.52411
4.44337
4.33957
4.20384
4.03522
3.84406
4.66573
4.54302
4.42234
4.38295
4.32691
4.28582
4.21211
4.09877
3.94393
3.75774
3.55013
4.35607
4.19732
4.11454
4.12558
4.12314
4.10212
4.02457
3.88437
3.69711
3.48686
3.26693
3.81518
3.86211
3.85394
3.95178
4.00056
3.98318
3.87242
3.68222
3.45371
3.21615
2.96291
4.91877
4.02457
4.24248
4.28999
4.20921
4.04594
3.78442
3.4841
3.20174
2.94467
2.66917
-14.1699
-1.98799
1.6239
3.12018
3.54351
3.48689
3.27693
3.03188
2.79414
2.58527
2.47898
-43.3662
-23.3179
-14.7063
-8.01003
-3.58771
-1.25743
-0.0695637
0.540461
0.868785
1.04643
1.21287
-47.3219
-35.9707
-29.146
-20.3048
-12.9086
-7.80906
-4.59986
-2.66091
-1.47491
-0.71462
-0.159387
-42.5901
-38.7984
-35.3819
-28.0328
-20.6924
-14.345
-9.5747
-6.29325
-4.1165
-2.66864
-1.62118
-37.0251
-36.3375
-35.0911
-30.3786
-24.8189
-18.9107
-13.7376
-9.67991
-6.71438
-4.61872
-3.10465
-32.6469
-32.7784
-32.2665
-29.4193
-25.68
-20.9728
-16.313
-12.1922
-8.86498
-6.33659
-4.46853
-29.2968
-29.6279
-29.218
-27.3135
-24.7485
-21.1763
-17.3421
-13.61
-10.3222
-7.62047
-5.55373
-26.5384
-26.8987
-26.4787
-25.0462
-23.1401
-20.3716
-17.2848
-14.0753
-11.0588
-8.39809
-6.21239
-24.2221
-24.5222
-24.0542
-22.89
-21.3515
-19.1083
-16.5854
-13.8582
-11.1885
-8.72199
-6.5854
-22.2142
-22.4207
-21.891
-20.8834
-19.5516
-17.6546
-15.5336
-13.1975
-10.8587
-8.62886
-6.6493
-20.4378
-20.5144
-19.9461
-19.0261
-17.808
-16.1403
-14.3006
-12.2661
-10.2117
-8.21726
-6.39754
-18.7105
-18.668
-18.1286
-17.258
-16.1145
-14.6113
-12.9757
-11.1765
-9.3612
-7.58945
-5.95393
-17.0458
-16.9164
-16.3912
-15.5464
-14.4578
-13.0784
-11.5967
-9.98608
-8.37311
-6.80696
-5.35878
-15.4658
-15.2616
-14.7198
-13.8923
-12.836
-11.5488
-10.1834
-8.72563
-7.2852
-5.90709
-4.62713
-13.9035
-13.6202
-13.07
-12.2579
-11.239
-10.0204
-8.74524
-7.41346
-6.12234
-4.91688
-3.79816
-12.3856
-12.0188
-11.4579
-10.6554
-9.66046
-8.48878
-7.28523
-6.05958
-4.90407
-3.86657
-2.94059
-10.9149
-10.4643
-9.88906
-9.08668
-8.09586
-6.96285
-5.80542
-4.66985
-3.64502
-2.77206
-2.01276
-9.46995
-8.93819
-8.34981
-7.5449
-6.54824
-5.42509
-4.29717
-3.2473
-2.3602
-1.65906
-1.06979
-8.04821
-7.44033
-6.83711
-6.02213
-5.00043
-3.85978
-2.75124
-1.80032
-1.07537
-0.566683
-0.167865
-6.65053
-5.97782
-5.35183
-4.50382
-3.42185
-2.23927
-1.16039
-0.353644
0.171775
0.471352
0.676149
-5.30668
-4.58415
-3.88792
-2.95146
-1.76636
-0.552431
0.438419
0.992066
1.28225
1.37164
1.41153
-3.96765
-3.03965
-2.27443
-1.17706
0.118978
1.28589
2.05107
2.36981
2.34171
2.24995
2.1182
-2.16225
-1.79885
-0.669002
0.602401
1.76806
2.57842
2.90351
2.84931
2.6639
2.50907
2.49424
-4.14407
1.24335
2.32841
3.14126
3.70423
3.82314
3.62421
3.31268
3.02099
2.7732
2.52711
-2.21039
1.68953
2.66114
2.74578
2.43635
2.03139
1.63821
1.28211
0.965124
0.69883
0.538805
-21.3993
-10.4727
-6.358
-3.26638
-1.41222
-0.512606
-0.129297
-0.00549552
-0.00439033
-0.0510468
-0.0762108
-24.1548
-17.2094
-14.0131
-9.70437
-6.28236
-3.95391
-2.50766
-1.6685
-1.19581
-0.920858
-0.731583
-20.6637
-18.2058
-16.817
-13.2974
-10.0221
-7.18534
-5.01195
-3.51423
-2.53448
-1.89639
-1.45832
-16.8387
-16.2869
-15.9632
-13.8802
-11.6176
-9.14604
-6.90788
-5.11733
-3.79268
-2.85018
-2.16493
-14.0064
-13.9679
-13.9433
-12.8404
-11.4996
-9.70418
-7.84648
-6.14954
-4.73752
-3.63942
-2.79138
-11.8108
-11.9488
-11.96
-11.3517
-10.5651
-9.34291
-7.95761
-6.55331
-5.26026
-4.16094
-3.24991
-9.98118
-10.1988
-10.2092
-9.86765
-9.39176
-8.56309
-7.56393
-6.46986
-5.38577
-4.39564
-3.5261
-8.56788
-8.69583
-8.69968
-8.515
-8.21999
-7.6529
-6.93449
-6.09796
-5.22058
-4.37283
-3.58857
-7.48251
-7.50976
-7.48827
-7.36769
-7.16258
-6.75965
-6.23343
-5.59226
-4.88962
-4.18005
-3.4872
-6.58146
-6.54059
-6.50119
-6.40819
-6.24837
-5.94597
-5.54608
-5.04597
-4.48146
-3.89591
-3.31619
-5.84412
-5.72258
-5.67138
-5.59228
-5.46051
-5.22311
-4.9064
-4.50534
-4.04444
-3.55565
-3.05914
-5.29385
-5.09154
-5.02279
-4.93453
-4.80592
-4.60056
-4.33123
-3.99381
-3.60587
-3.19095
-2.7586
-4.88771
-4.62802
-4.5402
-4.4282
-4.28402
-4.08146
-3.82805
-3.52349
-3.18224
-2.82432
-2.46389
-4.55956
-4.25862
-4.14832
-4.0081
-3.84306
-3.63313
-3.3805
-3.08956
-2.7758
-2.45753
-2.14317
-4.27955
-3.95631
-3.81995
-3.64895
-3.45931
-3.23434
-2.9719
-2.68091
-2.38054
-2.09045
-1.81843
-4.02429
-3.68841
-3.53035
-3.33398
-3.11928
-2.87358
-2.59175
-2.2886
-1.99092
-1.72193
-1.48666
-3.76923
-3.43147
-3.25553
-3.03992
-2.80295
-2.53328
-2.22471
-1.90139
-1.60104
-1.35161
-1.15298
-3.5151
-3.18483
-2.99882
-2.77158
-2.51146
-2.20767
-1.86084
-1.51095
-1.20842
-0.981731
-0.824809
-3.27406
-2.95845
-2.76908
-2.5328
-2.24097
-1.88555
-1.48913
-1.1146
-0.819762
-0.622034
-0.496674
-3.04293
-2.75209
-2.5639
-2.30771
-1.96351
-1.54109
-1.10079
-0.724669
-0.458916
-0.29773
-0.185414
-2.76829
-2.56042
-2.35595
-2.04542
-1.62321
-1.14486
-0.704904
-0.380711
-0.178353
-0.0547032
0.0484189
-2.67622
-2.44779
-2.13693
-1.70234
-1.20646
-0.737803
-0.376895
-0.157605
-0.0251547
0.0894991
0.318814
-2.2589
-1.65828
-1.19157
-0.7754
-0.436571
-0.204419
-0.105459
-0.0979697
-0.111404
-0.125081
-0.0829722
18.8409
13.2066
9.39626
6.86124
5.12853
3.95529
3.06731
2.3723
1.81039
1.36874
1.07357
15.2649
14.9663
12.8413
10.3258
7.98423
6.09428
4.63988
3.51287
2.64123
1.9799
1.56025
10.0103
11.6269
11.5536
10.7237
9.15924
7.28374
5.65707
4.32418
3.27086
2.4622
1.91849
5.29198
7.85064
8.60497
8.89865
8.42021
7.34863
6.04015
4.79507
3.6909
2.80302
2.20289
1.92307
4.38272
5.34452
6.3554
6.71161
6.50385
5.70738
4.75761
3.78668
2.94676
2.36555
-0.321316
1.74303
2.54373
3.78804
4.53672
4.84735
4.70611
4.206
3.52281
2.84034
2.33983
-1.78118
-0.0742773
0.475539
1.72188
2.55514
3.1639
3.38605
3.2835
2.93886
2.47533
2.10675
-2.68267
-1.26913
-0.988363
0.221769
0.937464
1.66131
2.09748
2.25552
2.16134
1.93698
1.70876
-3.37612
-2.08456
-2.06072
-0.88625
-0.285274
0.433804
0.958558
1.28451
1.39777
1.35969
1.28715
-3.96167
-2.87302
-2.66855
-1.80734
-1.2207
-0.534957
0.0122178
0.42757
0.675499
0.782003
0.831283
-4.40044
-3.57848
-3.22289
-2.48735
-1.93532
-1.28985
-0.745315
-0.286601
0.0431017
0.248806
0.399328
-4.68549
-3.99551
-3.65868
-2.99327
-2.47457
-1.86653
-1.33381
-0.855758
-0.476638
-0.202695
0.0114517
-4.92494
-4.27698
-3.96688
-3.35359
-2.86516
-2.28883
-1.77113
-1.28744
-0.880943
-0.563067
-0.30005
-5.14431
-4.48498
-4.17879
-3.59496
-3.12766
-2.57573
-2.07273
-1.59155
-1.17366
-0.834412
-0.549728
-5.17157
-4.56186
-4.28536
-3.72984
-3.27923
-2.74662
-2.25563
-1.78097
-1.36176
-1.01387
-0.728315
-5.14175
-4.56414
-4.30524
-3.77366
-3.33271
-2.81613
-2.33337
-1.86662
-1.45205
-1.1037
-0.821206
-5.0908
-4.51866
-4.2567
-3.73973
-3.29784
-2.79209
-2.31407
-1.85655
-1.45218
-1.11275
-0.841383
-4.95859
-4.39819
-4.13106
-3.62667
-3.1761
-2.67646
-2.20196
-1.75733
-1.37096
-1.05249
-0.805346
-4.75018
-4.20108
-3.92296
-3.42816
-2.96318
-2.46697
-1.99946
-1.5758
-1.21832
-0.932178
-0.711145
-4.47741
-3.93083
-3.62852
-3.13593
-2.65217
-2.16076
-1.71092
-1.32234
-1.00775
-0.766183
-0.589669
-4.12812
-3.57158
-3.22944
-2.73262
-2.23433
-1.76004
-1.34914
-1.0152
-0.75739
-0.567687
-0.431315
-3.66185
-3.08323
-2.6849
-2.18949
-1.7031
-1.27727
-0.937107
-0.677824
-0.485013
-0.349845
-0.264494
-3.13227
-2.44674
-1.99964
-1.55419
-1.13591
-0.799262
-0.55266
-0.368527
-0.230975
-0.136316
-0.0828495
-1.87852
-1.30289
-0.965454
-0.692684
-0.457106
-0.290057
-0.170164
-0.0555235
0.0597814
0.152181
0.125834
-3.33185
-1.42555
-0.618698
-0.165935
0.128368
0.266824
0.330999
0.347399
0.339044
0.320822
0.316725
-3.94006
-2.63125
-1.9336
-1.27681
-0.741565
-0.364819
-0.135768
-0.00869509
0.0584107
0.092171
0.116961
-3.53958
-3.06786
-2.66746
-2.08718
-1.5063
-1.02497
-0.66784
-0.420621
-0.259697
-0.156192
-0.0818437
-3.22365
-3.03606
-2.83431
-2.44717
-1.98771
-1.52998
-1.13069
-0.813778
-0.577811
-0.408726
-0.283489
-3.00786
-2.8793
-2.76264
-2.5181
-2.19663
-1.8267
-1.45845
-1.12964
-0.856499
-0.641703
-0.473453
-2.87494
-2.74052
-2.65658
-2.47796
-2.24603
-1.96142
-1.6514
-1.34703
-1.07057
-0.834218
-0.636503
-2.79122
-2.6363
-2.57323
-2.41641
-2.23136
-2.00403
-1.74611
-1.47685
-1.21537
-0.976298
-0.764015
-2.71069
-2.56054
-2.50938
-2.35463
-2.19487
-2.00117
-1.77974
-1.54156
-1.30001
-1.06832
-0.852343
-2.64949
-2.50756
-2.43612
-2.29168
-2.14871
-1.97423
-1.7761
-1.56087
-1.33729
-1.11584
-0.902752
-2.60132
-2.45306
-2.37027
-2.23854
-2.09852
-1.93308
-1.74877
-1.54875
-1.33882
-1.12715
-0.919606
-2.55021
-2.39608
-2.31111
-2.18209
-2.04123
-1.88105
-1.70438
-1.51343
-1.31268
-1.10875
-0.90645
-2.49008
-2.33235
-2.24736
-2.11795
-1.97635
-1.81813
-1.64482
-1.45865
-1.26357
-1.06526
-0.867438
-2.43046
-2.26578
-2.17802
-2.04651
-1.90262
-1.7436
-1.57059
-1.38623
-1.19439
-1.00058
-0.807264
-2.3691
-2.19541
-2.10263
-1.96748
-1.81939
-1.65719
-1.4821
-1.29733
-1.10711
-0.916713
-0.727139
-2.29301
-2.113
-2.01682
-1.87741
-1.72402
-1.55703
-1.37823
-1.19174
-1.00262
-0.816501
-0.632076
-2.207
-2.0194
-1.91859
-1.77375
-1.61384
-1.4407
-1.2571
-1.06861
-0.881406
-0.701502
-0.524933
-2.11131
-1.91424
-1.80668
-1.6551
-1.48702
-1.3062
-1.11711
-0.927401
-0.744523
-0.573978
-0.409047
-1.99853
-1.79238
-1.67804
-1.51854
-1.34042
-1.15033
-0.955842
-0.767659
-0.59414
-0.438835
-0.290625
-1.86819
-1.65242
-1.52995
-1.3603
-1.16931
-0.968391
-0.770576
-0.590184
-0.43444
-0.30171
-0.174544
-1.71904
-1.49276
-1.35921
-1.17512
-0.966652
-0.75444
-0.559986
-0.399608
-0.274062
-0.171937
-0.0716647
-1.54924
-1.31062
-1.15926
-0.952116
-0.72042
-0.502304
-0.328152
-0.208422
-0.128262
-0.0628871
0.0112612
-1.35057
-1.088
-0.911537
-0.662286
-0.410759
-0.211704
-0.0927698
-0.0415694
-0.0188489
0.0116984
0.0699335
-1.09649
-0.909663
-0.604703
-0.303022
-0.0584251
0.0765455
0.0935774
0.0561378
0.024702
0.0347601
0.0873134
-1.49835
-0.0872172
-0.0105012
0.1099
0.214304
0.233779
0.171462
0.0660634
0.000334628
0.0131001
0.0790978
-0.277124
-0.0810322
0.198011
0.442341
0.603155
0.66347
0.655371
0.620953
0.569798
0.516458
0.487018
0.677535
0.643661
0.715833
0.848604
0.978482
1.03494
0.994152
0.898254
0.787336
0.685582
0.630836
0.810036
0.773972
0.817878
0.903429
1.01864
1.11798
1.14806
1.07979
0.93072
0.78627
0.704442
0.712771
0.64478
0.665905
0.711977
0.792832
0.891213
0.966157
0.996215
0.961166
0.836511
0.738235
0.5274
0.411914
0.401371
0.392879
0.410982
0.458315
0.526415
0.605771
0.688633
0.695762
0.638173
0.320897
0.139481
0.083882
0.00365558
-0.0628927
-0.104063
-0.104768
-0.0497111
0.0758515
0.238202
0.345857
0.130295
-0.127795
-0.239759
-0.407082
-0.575683
-0.735116
-0.859001
-0.896139
-0.799838
-0.562321
-0.251545
-0.0506496
-0.374032
-0.541325
-0.800881
-1.07837
-1.3723
-1.65342
-1.84318
-1.8542
-1.61831
-1.17393
-0.198637
-0.585095
-0.79998
-1.14946
-1.53222
-1.96232
-2.41251
-2.79915
-2.98075
-2.81324
-2.30201
-0.274125
-0.755764
-0.987488
-1.42088
-1.89946
-2.45637
-3.07054
-3.66643
-4.04683
-4.00492
-3.47454
-0.282451
-0.859415
-1.0589
-1.58667
-2.14943
-2.81169
-3.56237
-4.3396
-4.91772
-5.05714
-4.55547
-0.239385
-0.791906
-1.1037
-1.63321
-2.25855
-2.99808
-3.84163
-4.72842
-5.48454
-5.82798
-5.3911
-0.107628
-0.632627
-1.0062
-1.54445
-2.20583
-2.99452
-3.89248
-4.83896
-5.71779
-6.14885
-5.74185
0.137933
-0.359127
-0.761348
-1.29995
-1.96912
-2.77277
-3.69057
-4.66197
-5.55364
-6.00208
-5.78474
0.466705
0.0165656
-0.385786
-0.907122
-1.55937
-2.34682
-3.24405
-4.17953
-5.01053
-5.49531
-5.41536
0.881356
0.485265
0.0980242
-0.394934
-1.01505
-1.76619
-2.61575
-3.48057
-4.22295
-4.68208
-4.73417
1.36727
1.01732
0.646825
0.18318
-0.398102
-1.09819
-1.87727
-2.6467
-3.28363
-3.68672
-3.76935
1.86152
1.53664
1.17287
0.732539
0.194172
-0.440281
-1.12963
-1.79068
-2.32089
-2.63382
-2.72224
2.25533
1.93469
1.57483
1.17279
0.702889
0.151725
-0.450217
-1.01962
-1.44479
-1.6469
-1.64635
2.4715
2.16778
1.83052
1.47325
1.06206
0.577017
0.0470458
-0.444293
-0.769074
-0.836737
-0.669832
2.54703
2.25673
1.92827
1.56611
1.14958
0.684092
0.205102
-0.213872
-0.451967
-0.440871
-0.223993
2.43513
2.10627
1.73884
1.34317
0.92515
0.502655
0.0975804
-0.255206
-0.465307
-0.430449
-0.130459
2.07498
1.66471
1.25136
0.874144
0.528305
0.212894
-0.0706295
-0.298991
-0.402589
-0.285619
-0.0289126
1.38054
0.84609
0.561566
0.330468
0.153144
0.00217721
-0.12413
-0.200106
-0.190819
-0.100038
0.0335108
0.0570833
0.728883
1.05862
0.906829
0.0475816
-1.06024
-1.79838
-1.88668
-1.43518
0.0854883
0.617743
0.890839
0.767731
0.0720131
-0.756222
-1.31009
-1.42355
-1.13738
0.061624
0.512778
0.744124
0.639298
0.0580979
-0.690006
-1.22929
-1.31536
-1.06451
0.0254217
0.430257
0.620151
0.50295
0.0198598
-0.591105
-1.01233
-1.11219
-0.933197
-1.00243
-1.72347
-1.82183
-1.25968
-0.739771
-0.58955
-0.661384
-0.763248
-0.986806
-0.660389
-1.20715
-1.33134
-0.96293
-0.704674
-0.604976
-0.659636
-0.745371
-0.877211
-0.598932
-1.1339
-1.21774
-0.898397
-0.649232
-0.581439
-0.640457
-0.711724
-0.828116
-0.500123
-0.884138
-1.02025
-0.791176
-0.578603
-0.566254
-0.604292
-0.663897
-0.758693
2.39393
2.49325
2.48731
-0.203077
-0.299877
2.23817
-0.558165
1.91937
2.22249
2.96596
-0.325967
1.92724
-0.191355
-0.0877863
2.38791
1.15893
-0.0619889
-0.19614
1.15841
2.48408
0.818284
-0.618162
1.47598
-0.19075
2.5674
-0.0855875
-0.182654
-0.556914
-0.703497
-0.299167
-0.0621857
1.24477
-0.067815
1.36502
1.21025
2.488
-0.180843
2.56733
-0.072273
1.89396
-0.668703
1.37452
-0.169887
1.48612
-0.336369
-1.17613
-0.132262
-0.63566
1.76459
1.87763
-0.305658
1.90528
-0.0106702
-0.160355
1.84782
0.828773
-0.602792
1.86187
-0.573449
-0.117998
0.209984
-0.02078
-0.328401
-0.293226
-1.0188
2.47406
-0.275889
1.98537
2.48262
2.94369
-0.131604
3.62503
-0.210531
4.35138
-0.153242
3.42187
-0.573104
1.4075
-0.381968
-0.558436
-0.0482019
-0.292829
2.4496
2.4555
0.191031
-0.201959
-0.4799
-0.0236031
-0.378683
-0.0768387
2.47174
1.84953
-0.7861
3.16283
-0.588469
-0.492844
-0.132369
-0.135899
-0.346405
3.81238
0.506549
-0.60243
2.56254
0.593723
-0.308978
2.3533
-0.00700964
2.44554
-0.0163479
0.309013
1.51161
1.36798
3.16961
-0.237051
-0.110583
2.44143
1.83605
1.29051
1.99577
2.30053
-0.246405
4.27712
-0.163541
-0.0774086
-1.17941
-0.174603
0.0361805
-0.00695712
-0.00269611
-0.0160537
1.66345
-0.114985
-0.63494
3.46488
2.41269
0.0697301
-0.561209
-0.287474
-0.248302
1.92123
-0.154636
0.662036
-0.400019
1.8179
1.80498
-0.238543
-0.174356
1.96166
3.31476
1.30488
1.47852
2.30828
-0.23887
4.19597
-0.22587
-0.1509
-0.167933
-0.412334
-0.0770014
2.56149
-0.139972
-0.316605
3.56471
2.55273
-0.248325
-0.0920866
-0.391586
0.534665
-0.138716
-0.994742
-0.0555939
-0.0215446
-0.129148
0.660431
1.3017
1.25838
-0.00515732
-0.255733
-0.37364
1.33385
1.91186
-0.624941
2.43138
-0.28296
2.22478
-0.260601
1.47265
1.25715
2.52903
-0.375705
-0.0224626
-0.104177
2.37548
-0.657716
2.4722
2.62926
2.33578
-0.345789
-0.0164199
2.43491
-0.26861
2.01414
-0.0653248
-0.0937688
2.42079
-0.00584831
3.08782
-0.000563345
1.992
2.39515
-0.0705198
1.25757
0.565208
1.3683
1.41399
-0.0844227
2.4893
-0.102914
1.58187
-0.148946
-0.0380588
-0.234403
-0.137456
-0.116851
-0.0654749
1.77269
-0.255279
-0.0629607
-0.0163903
-0.317138
-0.398335
2.3567
1.49096
4.28443
-0.239162
-0.253567
-0.199983
2.43786
1.70755
1.71778
-0.0734708
-0.248884
0.531015
-0.644578
2.40237
-0.342315
1.34853
-0.132659
-0.431579
-0.00412287
-0.12597
-0.0864266
0.946552
2.62589
0.117922
2.30962
0.906015
2.57678
-0.24745
1.44824
-0.00519709
-0.118178
2.3746
1.44837
1.49659
-0.134398
0.614228
1.89152
-0.0717326
-0.0230559
-0.303933
1.59178
2.06953
-0.137294
2.67367
1.29037
-0.101142
2.50056
1.97887
-0.316106
3.7507
2.0659
-0.0498601
-0.156354
0.156451
2.66974
-0.0236738
1.7935
1.7953
-0.184893
1.65813
-0.514463
0.291184
-0.109973
2.46656
1.9799
-0.141698
1.50091
1.30499
-0.121145
2.11655
-0.273419
1.59737
-0.287077
0.939746
0.27593
1.43808
0.0328816
-0.602759
1.53348
-0.651591
2.33869
0.293276
-0.0526621
-0.688165
2.00801
-0.154567
-0.332941
2.18235
3.57613
1.40953
0.0547614
1.26396
-0.162108
-0.321143
0.628258
1.35612
-0.13901
2.33785
-0.0284417
1.71033
-0.329805
-0.503803
2.24549
-0.181405
-0.396723
-0.18631
1.44893
2.47913
-0.122397
-0.300397
-0.0648341
2.03232
-0.131874
-0.3026
0.0288954
-0.0973808
1.31541
-0.203539
0.0472492
-0.680484
-0.13542
0.00198272
0.974344
-0.0498851
2.43432
-0.0312723
1.6719
1.46121
-0.0340842
-0.0125447
-0.0947871
2.48383
2.44526
2.92537
-0.386447
-0.0222499
-0.157135
-0.657113
-0.13791
2.52132
-0.282212
-0.421867
-0.0502474
-0.0624086
1.64177
0.145271
1.17608
2.70636
1.31417
-0.0708536
2.65731
-0.250345
1.73668
-0.10181
-0.182006
-0.25517
-0.0635892
-0.242719
-0.414511
2.30289
-0.585597
-0.0235693
3.95021
-0.187077
-0.95413
1.41904
1.37784
2.05172
-0.108478
-0.250835
2.44034
2.23877
-0.156898
-0.0107102
-0.630626
-0.419528
0.00030651
1.98083
0.0585367
0.75491
1.1395
-0.066926
-0.0624496
-0.217916
0.252711
-0.0262109
4.62219
-0.0201733
-0.522433
-0.263936
-0.0192843
-0.582028
-0.000439283
1.21201
0.372908
4.22771
-0.0143599
-0.151219
-1.18315
1.3311
-0.286831
-0.105744
2.10065
-0.0826359
-0.084205
-0.250488
-0.266718
-0.0823715
1.31434
0.293039
-0.306031
-0.160921
-0.261164
0.976045
-0.162424
-0.11349
-0.426894
2.6441
-0.331033
2.28201
2.45605
2.48519
-0.468593
-0.206265
-0.675654
-0.0579003
-0.329157
-0.00577218
2.5121
2.66434
0.0355611
-0.0479592
0.097387
0.876041
-0.00731889
-0.0064313
2.42707
1.27672
1.73949
1.21163
-0.271961
1.22046
0.177828
0.899104
1.66407
1.57617
2.38601
-0.31832
1.46282
2.50359
0.846202
-0.293304
-0.608075
1.45478
-0.218386
-0.31307
1.8741
-0.115894
2.50268
-0.26556
2.64303
0.949764
1.75429
-0.00187354
-0.0776831
2.39892
-0.103537
0.497177
1.89678
-0.120951
-0.137738
2.19475
2.47779
-0.44569
-0.0598514
-0.232708
1.65334
-0.636488
1.3099
-0.232487
-0.0733624
-0.422826
-0.0924009
0.513211
-0.208527
-0.0976691
-0.0997105
1.32143
-0.120884
2.14031
2.08207
2.58286
1.6474
0.754928
-0.0917284
1.91516
2.5123
-0.230133
2.13378
-1.03516
0.0132927
0.00379845
-0.129774
-0.3947
2.50874
2.54425
2.06722
-0.717973
-0.314092
1.34479
2.54047
-0.0725888
2.22527
-0.150497
2.2269
0.0263033
1.95315
-0.477045
-0.0896093
-0.0186554
-1.0716
-0.227341
0.945392
0.579605
3.20932
1.60975
-0.0843984
-0.397109
2.29678
-0.0644766
-0.117594
-0.527836
2.55636
2.41643
2.33657
-0.114474
-0.181978
-0.0161988
2.26517
1.67418
-0.152791
3.06141
-0.0955467
-0.00922359
-0.00875786
-0.328661
1.48768
-0.0127012
2.56128
-0.0962334
2.6707
-0.14591
-0.00622743
1.39326
-0.705095
-0.0916017
1.9244
1.40176
-0.560434
2.55106
-0.142495
-0.241787
-0.128121
-0.126686
-0.279911
-0.158371
2.96913
1.95231
2.21494
-0.496531
-0.121113
-0.0644705
2.44625
2.54434
-0.421705
1.41718
3.22976
0.766764
3.46391
-0.113418
-0.105313
-0.142806
-0.0535541
0.210261
0.962501
2.60358
-0.19917
3.39023
2.11378
-0.444913
-0.0651393
1.24345
2.61601
-0.540654
2.50978
2.63771
0.408096
2.33977
0.580013
-0.153956
-0.124244
0.050649
-0.0226609
-0.0196386
-0.445118
0.00375562
0.000290713
-0.198538
-0.0938452
-0.395268
-0.17822
-0.0955571
1.31556
0.98804
-0.325157
0.245465
1.19587
0.187759
-0.108109
-0.184989
-0.444998
-0.0379653
-0.0727715
1.37257
0.833677
2.53343
1.37184
2.34782
-0.182167
3.18317
1.57864
1.11443
1.59675
-0.240005
-0.0293074
-0.320741
3.39861
1.43244
1.683
-0.104083
3.51338
-0.42827
3.32344
-0.188829
0.0254675
1.44043
-0.0160982
2.50826
-0.069132
-0.255479
-0.110182
-0.480857
-0.130735
0.268667
2.44474
-0.0107517
-0.0518617
-0.479303
0.0719309
1.29647
0.285834
2.45229
-0.0244582
1.16394
-0.18671
2.28124
2.00533
2.66367
-0.180348
-0.127769
2.52823
-0.0075794
2.58186
-0.0483647
-0.0813238
0.579602
-0.245873
-0.649095
-0.107141
0.108579
-0.210381
-0.163822
-0.178311
-0.053278
-0.577816
1.32027
-0.113095
1.64194
1.64626
-0.663073
-0.160136
-0.278657
-0.0847031
3.0157
0.577639
2.26006
-0.103178
2.51583
0.0296623
-0.177258
0.0259269
0.453603
0.106553
-0.161491
-0.117134
4.11539
-0.154225
-0.254867
-0.317632
1.53761
-0.0959287
-0.115509
2.48557
-0.965955
-0.0187447
4.0622
-0.178902
1.68166
1.06614
2.28988
-0.0243512
3.80718
-0.0526895
2.36854
-0.0755204
3.46311
-0.11478
-0.0749922
-0.0638445
-0.00663707
1.23622
-0.246933
-0.944848
2.50022
-0.05458
0.165154
-0.129422
0.889002
-0.412797
0.479375
-0.110744
-0.0985954
0.9098
1.33531
0.141799
1.36516
-0.104639
-0.428202
2.47366
1.98188
0.565993
-0.317592
0.0215764
-0.156
1.89639
-0.104008
0.0995601
1.35009
2.53122
2.29794
1.63314
2.32799
-0.0130272
-0.568547
-0.283776
-0.023576
-0.112248
2.62874
1.75015
0.0502702
-0.156891
2.44105
-0.0249396
-0.0907264
-0.639259
-0.146562
-0.137807
1.018
-0.127636
2.62676
1.66314
-1.10375
2.28518
1.9193
0.140815
0.00269989
0.241005
0.298136
2.48935
-0.0785146
-0.734078
-0.197282
1.87691
-0.0103802
-0.166749
-0.11302
-0.138021
2.48209
1.31589
-0.196475
-0.116159
-0.144477
2.4539
1.13273
3.76692
2.68293
1.84605
-0.108901
-0.157225
-0.980897
-0.614528
-0.162068
2.17406
-0.309015
2.5082
3.31161
-0.134872
1.73716
2.50297
1.91026
-0.332929
-0.0443868
-0.152882
2.51641
-0.139472
2.62891
2.3509
2.45133
2.63426
0.167873
1.45793
2.43498
2.69048
-0.381191
1.36057
2.55552
-0.142854
-0.431743
1.68681
2.47685
-0.285335
-0.376891
1.42485
0.0834793
-0.1191
-0.147996
1.60603
2.53829
0.620659
1.75138
-0.0257192
1.7776
-0.22962
-0.113865
0.0168755
-0.0820153
1.49643
-0.0978827
2.34
1.45345
4.21511
1.61882
1.4185
-0.142706
-1.09892
0.0506951
-0.1753
0.0460094
-0.172621
0.226577
-0.455944
1.4031
1.51407
-0.0125588
-0.0317825
-0.0991136
1.98553
-0.335459
3.11344
-0.160183
2.73715
-0.0156462
-0.0378312
-0.313612
-0.122877
2.52806
2.54014
-0.133734
-0.539162
0.0354552
-0.0828046
-0.116893
0.332458
1.01154
0.0566714
2.59142
2.41809
-0.141288
-1.17325
-0.276441
-0.398854
-0.0111602
-0.0947614
-0.0857526
-0.160176
2.4742
0.311061
0.0431367
2.54278
0.927073
2.37855
-0.0809734
-0.117134
-0.00268715
2.50316
-0.116508
2.1774
1.8883
-0.0288666
-0.23069
1.42188
2.4799
2.70775
-0.0724726
-0.122456
-0.506476
-0.0268769
2.62743
-0.657993
-0.113827
-0.472478
2.46694
-0.00650814
-0.07724
2.16058
-0.0176381
1.7093
-0.141864
-0.223958
0.218168
-0.191298
1.94262
2.76184
-0.168385
-0.0621619
1.43168
0.00109451
2.46925
-0.283011
0.00568671
-0.587947
2.51964
-0.0162767
-0.248673
-0.276056
-0.0178227
-0.0408825
2.44016
-0.0035493
-0.303072
1.42226
0.531351
-0.111101
-0.179357
-0.152838
-0.173839
1.97549
2.68175
-0.393309
0.988042
-0.844919
-0.124942
0.000859559
-0.201785
1.85544
-0.159959
-0.332027
-0.0210551
-0.0734508
-0.157416
2.67821
-0.0937568
-0.0246465
2.51368
2.19498
2.39174
-0.155892
0.493408
2.14887
-0.114356
-0.126774
-0.0586417
1.52225
-0.658935
-0.199234
0.762792
-0.208249
1.33926
2.98252
1.85406
-0.60014
1.466
-0.111006
0.21963
-0.338255
1.45674
0.971739
2.45691
2.50072
-0.235606
-0.176282
-0.137138
-0.334923
-1.22651
-0.188458
2.75705
0.0828665
-0.276362
2.48494
-0.0428154
-0.0598449
1.50428
0.0154994
-0.117855
-0.17061
1.07619
-0.0529997
2.47434
-0.141295
1.55978
-0.455916
-0.144713
4.56714
-0.535604
-0.137705
0.741484
-0.197415
-0.168549
-0.244641
-0.139842
1.05128
-0.414481
-0.0123709
-0.250197
-1.05979
-0.144844
2.31092
-0.207541
2.18846
-0.17353
-0.0831118
-0.257264
0.94716
-0.106531
-0.338322
2.55133
1.95289
0.617256
1.55123
-0.115022
-0.164103
3.13005
-0.0790434
-0.224253
1.57219
-0.296741
-0.540113
0.0286976
-0.231373
-0.393075
-0.115482
-0.0231966
0.0545238
2.54586
2.54185
-0.229441
2.62934
2.43248
-0.181596
2.44266
2.48747
-0.181056
4.28273
-0.43419
-0.0532227
-0.170023
2.64512
-0.079544
-0.144331
-0.0975667
-0.902161
2.48283
-0.120772
-0.0980447
-0.0942966
-0.0242643
1.17338
-0.00561658
2.28876
-0.257965
-0.00606422
1.82061
2.64763
-0.251579
0.121732
-0.224769
-0.329974
-0.220274
2.87064
2.40194
2.55506
-0.00386267
-0.0344035
-0.0559846
-0.329032
-0.0365274
3.3952
0.975088
2.32657
2.29552
-0.31769
2.55098
1.42783
-1.10581
-0.205348
-0.608075
-0.321684
1.53931
1.28074
-0.020437
-0.289399
0.00833022
-0.480951
-0.141321
2.3111
1.59941
-0.101863
0.0514309
-0.0271954
-0.0975103
2.77474
-0.0762106
-0.12694
-0.162791
0.953862
-0.215341
-0.381811
1.66133
-0.126341
1.39213
2.7251
-0.295358
-0.0733288
-0.178296
0.879298
1.78642
0.0190365
-0.279172
-0.238334
-0.113729
-0.275927
-0.125203
1.85422
-0.581221
-0.263445
2.51973
-0.00295062
-0.143945
2.15048
0.00647886
2.51569
2.59524
3.27212
-0.653933
-0.00249419
1.27958
-0.0924587
2.5052
1.43639
2.43466
-0.0938734
1.31757
-0.076836
-0.227939
2.532
-0.334346
-0.500257
-0.0960247
-0.311058
-0.0957195
-0.118441
-0.00670908
1.93493
1.46397
2.39532
-0.0903369
2.44011
1.43619
-0.0513214
-0.500347
-0.129322
-0.0750608
-0.0162977
1.64139
-0.266383
-0.228305
1.30886
0.00142169
1.23287
-0.0210447
2.19591
-0.0472515
0.819756
2.68674
2.11386
-0.302209
0.0109152
1.95957
-0.15804
1.28503
-0.0714663
0.0531378
-0.228586
-0.119242
2.56651
2.37694
-0.0902409
-0.351316
-0.0555325
-0.0018774
-0.284722
-0.0657538
2.53368
-0.499922
-0.0258038
2.40906
-0.185289
-0.157225
-0.0540362
-0.312095
-0.258736
-0.00144484
-0.369154
-0.49868
1.31498
1.889
-0.0953602
-0.1811
0.144187
1.41129
-0.12132
2.46023
4.04797
-0.693363
2.46991
1.88546
-0.510876
-0.253829
2.06974
2.42485
2.18131
0.795437
1.554
3.12216
-0.197093
0.442344
1.26296
2.30596
-0.235569
1.61671
-0.120905
2.54216
1.12825
1.90781
-0.0890344
-0.428103
-0.189627
2.5707
1.44653
-0.103416
-0.0089029
2.50444
-0.125174
-0.143096
2.49348
-0.00754828
-0.0704283
-0.325441
-0.173745
-0.248767
1.86436
-0.237629
2.25877
0.863764
3.60883
0.99741
2.54857
-0.183099
3.32204
-0.291989
2.47806
2.54616
-0.329526
1.48812
2.50664
-0.279541
-0.0660811
-0.224421
2.67871
0.912798
2.27876
-0.0864672
-0.0193418
-0.219062
1.23131
-0.147615
-0.246658
1.52972
1.26726
1.46124
0.764386
-0.128486
3.664
-0.128386
3.94491
-0.787045
-0.116835
-0.0915763
-0.16478
1.78275
0.17199
2.45299
0.136702
-0.355134
2.56944
2.53564
-0.130291
0.562044
1.03797
2.80704
-0.126931
2.56543
-0.234306
-0.333916
-0.0631669
-0.08042
1.2897
-0.166453
1.84297
-0.491369
-0.112598
-0.00416262
0.013357
2.42258
1.47654
2.4757
1.21571
0.383186
0.695479
3.13557
-0.0179868
-0.248291
1.59753
0.787884
-0.527212
0.398979
2.46282
0.225567
2.94312
3.49838
-0.146314
2.6187
-0.138439
-0.0924344
0.934177
2.4475
-0.100357
-0.253488
2.58372
-0.00631166
2.6318
3.77912
-0.0821578
0.956295
-0.0978367
2.51015
3.0701
-0.988279
0.0900977
1.44228
-0.0275712
0.900335
1.65092
1.35022
1.47854
1.09872
0.11687
-0.10646
-0.182792
-0.338497
1.62291
2.15421
-0.219388
-0.0010502
1.00161
0.533582
0.0169101
2.90895
0.0433294
1.88628
-0.166487
2.30615
2.62647
-0.0225382
-0.12827
-0.095125
2.53949
2.59945
2.42992
2.40495
1.79182
-0.108739
-0.0983057
-0.246776
-0.187629
-0.116489
0.520698
1.60546
1.65331
-0.373864
2.57998
-0.0809586
-0.483137
0.635293
-0.015453
-0.253547
1.03666
2.44702
0.0230638
-0.187869
-0.136473
0.930453
-0.117749
-0.0115581
-0.275654
-0.0129967
-0.0720346
1.51487
-0.169913
-0.0944126
-0.531553
-0.207078
-0.173529
-0.0126208
2.52672
2.74424
-0.181366
2.54483
-0.0663006
-0.0873152
-0.0753855
-0.108257
-0.142126
-0.220349
-0.0780682
-0.14477
2.27131
-0.206331
-0.112641
0.0211672
-0.0546356
-0.270847
2.51042
-0.346452
2.28985
0.0577227
-0.470999
-0.177614
-0.430444
-0.108537
0.0633175
2.49881
3.71657
1.50953
2.76846
2.65076
1.04218
1.53927
-0.284948
2.96026
-0.0719682
-0.169819
1.24342
2.46506
-0.0964918
-0.232855
2.40569
0.470295
1.46312
4.53382
0.00505971
-0.274
2.51993
1.18714
1.11686
1.33862
3.91741
2.46039
0.180899
-0.251482
2.21452
0.292757
2.4304
1.26953
1.68352
2.49568
-0.114486
2.42426
1.79643
0.943075
2.42588
-0.0242028
1.70083
-0.00413752
-0.257265
-0.701266
-0.141377
-0.0865702
-0.131031
-0.0259277
-0.142103
0.0411082
0.0506419
1.35343
-0.157484
0.681561
2.07305
2.53358
0.319736