/*--------------------------------*- C++ -*----------------------------------*\
| =========                 |                                                 |
| \\      /  F ield         | OpenFOAM: The Open Source CFD Toolbox           |
|  \\    /   O peration     | Version:  3.0.1                                 |
|   \\  /    A nd           | Web:      www.OpenFOAM.org                      |
|    \\/     M anipulation  |                                                 |
\*---------------------------------------------------------------------------*/
FoamFile
{
    version     2.0;
    format      ascii;
    class       surfaceVectorField;
    location    "0.73484";
    object      Uf;
}
// * * * * * * * * * * * * * * * * * * * * * * * * * * * * * * * * * * * * * //

dimensions      [0 1 -1 0 0 0 0];

internalField   nonuniform List<vector> 
32369
(
(1.55466 -6.07293 1.87193e-18)
(-0.225527 -3.81268 1.2229e-18)
(5.18197 -7.15134 -2.59927e-18)
(2.11695 -4.39789 1.67904e-18)
(0.610178 -3.98663 2.76481e-18)
(4.06596 -4.62201 2.97578e-18)
(2.55014 -3.40297 -2.98963e-18)
(1.45591 -3.54405 -3.54751e-18)
(3.7125 -3.74063 -2.07576e-18)
(2.77066 -2.68028 0)
(2.02923 -2.97002 -7.34945e-19)
(3.49792 -2.91144 0)
(2.8676 -2.13041 1.94389e-19)
(2.35556 -2.43097 9.4521e-19)
(3.34312 -2.29506 0)
(2.89478 -1.70201 2.40666e-19)
(2.54339 -1.96742 2.03001e-19)
(3.22954 -1.8174 -2.18358e-19)
(2.8856 -1.36086 -2.86922e-19)
(2.64089 -1.57965 0)
(3.13473 -1.44232 3.62241e-19)
(2.85933 -1.08646 -2.36571e-19)
(2.68313 -1.2613 4.72112e-19)
(3.04899 -1.14425 -4.88982e-19)
(2.82474 -0.866035 1.50482e-19)
(2.69569 -1.00396 -7.6269e-19)
(2.97052 -0.905837 3.70692e-19)
(2.78484 -0.689704 -2.47568e-19)
(2.69232 -0.799166 3.62951e-19)
(2.89882 -0.716973 0)
(2.67357 -0.640929 1.41826e-19)
(2.82897 -0.572639 -3.42262e-20)
(2.72195 -0.529915 -1.8209e-19)
(-1.09289 -2.68961 6.82227e-19)
(-1.56732 -1.39324 5.61279e-18)
(-0.0699365 -3.14328 -9.09956e-19)
(-0.752114 -2.01922 -1.67395e-18)
(0.866881 -2.99484 -1.72586e-18)
(-0.050143 -2.30249 1.71577e-18)
(1.56617 -2.62958 3.63073e-20)
(0.723065 -2.34437 8.98852e-20)
(2.0208 -2.21679 9.71283e-19)
(1.34261 -2.19579 -1.10845e-18)
(2.29659 -1.82665 0)
(1.7848 -1.9243 -6.22314e-19)
(2.45161 -1.48062 7.10844e-19)
(2.08421 -1.61409 3.96001e-19)
(2.5313 -1.18689 7.2518e-20)
(2.27728 -1.31672 1.76921e-19)
(2.57005 -0.945075 -7.63636e-19)
(2.39688 -1.05482 -9.04571e-19)
(2.59029 -0.749274 7.63901e-19)
(2.46797 -0.835922 7.39253e-19)
(2.50424 -0.664641 -3.75768e-19)
(2.59036 -0.578638 4.28079e-19)
(-1.1094 -1.02767 3.7823e-18)
(-1.31766 -0.318352 4.08686e-18)
(-0.771747 -1.46172 4.49351e-19)
(-0.672595 -0.841104 -1.52896e-18)
(-0.209114 -1.76634 3.19433e-18)
(-0.454778 -1.14027 2.2377e-18)
(0.428331 -1.90998 -1.06313e-18)
(0.0608449 -1.42811 7.17054e-19)
(1.03359 -1.86211 -2.86332e-18)
(0.614526 -1.55298 -4.97286e-19)
(1.52425 -1.67238 -3.25339e-19)
(1.12359 -1.52397 -3.32538e-19)
(1.88211 -1.42295 -2.1892e-19)
(1.54003 -1.38429 3.78365e-19)
(2.1258 -1.16969 -8.34026e-19)
(1.85526 -1.18964 -7.38779e-19)
(2.28439 -0.941214 3.3892e-19)
(2.08072 -0.984495 1.73686e-19)
(2.38451 -0.750139 -2.24457e-19)
(2.23517 -0.796448 2.51107e-19)
(2.33178 -0.638817 -1.08195e-18)
(2.44347 -0.582691 3.62224e-19)
(-0.63473 -0.22396 -4.87244e-19)
(-0.814083 0.297359 -4.3636e-19)
(-0.5082 -0.531159 0)
(-0.232662 -0.118387 -2.30151e-19)
(-0.240447 -0.837851 0)
(-0.264029 -0.31485 0)
(0.144581 -1.08875 1.35526e-18)
(0.0478632 -0.615427 0)
(0.608859 -1.22156 1.91397e-18)
(0.402809 -0.8368 1.50412e-18)
(1.07029 -1.23273 3.31506e-19)
(0.813271 -0.963214 2.95599e-19)
(1.47093 -1.14606 0)
(1.20658 -0.984086 4.35579e-19)
(1.7854 -1.00318 1.52256e-19)
(1.54682 -0.922708 -3.26637e-19)
(2.01611 -0.842608 8.56523e-20)
(1.81908 -0.813015 5.66268e-19)
(2.17925 -0.690761 -4.1208e-19)
(2.02539 -0.686592 -1.25231e-19)
(2.16899 -0.567488 -3.54671e-20)
(2.28988 -0.55166 1.49353e-18)
(-0.182341 0.300108 -2.0419e-19)
(-0.298876 0.616891 0)
(-0.103895 0.108555 -2.51378e-19)
(0.208808 0.338164 1.47901e-18)
(0.0285102 -0.14596 0)
(0.0649599 0.225879 -1.20305e-18)
(0.235977 -0.403673 0)
(0.277898 -0.0487232 -1.15359e-19)
(0.534256 -0.609091 0)
(0.476573 -0.265675 -9.12227e-20)
(0.882599 -0.735401 3.84206e-19)
(0.758527 -0.44814 -1.3901e-19)
(1.2333 -0.774554 1.65339e-19)
(1.06731 -0.560683 3.27053e-19)
(1.54748 -0.741985 -1.12918e-20)
(1.36989 -0.599852 -3.21376e-19)
(1.80573 -0.664155 4.37097e-19)
(1.63989 -0.579251 -7.37615e-21)
(2.00675 -0.567281 2.66647e-19)
(1.86424 -0.521035 -2.41032e-19)
(2.03163 -0.446901 5.59349e-19)
(2.16022 -0.456536 2.46035e-19)
(0.223347 0.589462 1.51837e-18)
(0.130961 0.737333 0)
(0.296509 0.491442 6.40325e-19)
(0.585645 0.624979 1.77816e-18)
(0.350711 0.299145 -1.42247e-18)
(0.406096 0.544459 -1.19078e-18)
(0.468166 0.0824947 -2.07698e-19)
(0.556219 0.32865 -4.76625e-20)
(0.649034 -0.123456 -2.2353e-19)
(0.664054 0.13996 -1.3e-18)
(0.88486 -0.291279 -2.42802e-19)
(0.847908 -0.0466983 1.0662e-18)
(1.15367 -0.401504 -1.11784e-19)
(1.06988 -0.191376 6.53413e-21)
(1.4235 -0.449674 -3.4085e-19)
(1.31119 -0.286375 -5.18552e-19)
(1.6688 -0.446008 -6.39051e-19)
(1.54781 -0.329601 -3.47153e-19)
(1.87697 -0.409115 -4.50652e-20)
(1.76138 -0.329719 2.66588e-20)
(1.93243 -0.300163 1.72653e-19)
(2.04781 -0.349493 2.06593e-19)
(0.565007 0.718714 7.49418e-20)
(0.431881 0.786471 1.26861e-18)
(0.631726 0.710979 9.1947e-20)
(0.873437 0.749953 2.25603e-19)
(0.653685 0.566533 5.63045e-20)
(0.71472 0.731275 -1.56501e-18)
(0.720765 0.399636 -1.01336e-18)
(0.819422 0.565791 2.65187e-19)
(0.831234 0.221367 -2.57103e-19)
(0.876835 0.414714 -1.2095e-18)
(0.989148 0.0538924 1.40502e-18)
(0.996627 0.248636 2.74246e-19)
(1.18325 -0.0813031 -3.51328e-19)
(1.15152 0.10032 7.52321e-19)
(1.39656 -0.172461 -5.1319e-19)
(1.33374 -0.0167501 -5.14869e-19)
(1.60697 -0.218741 2.94794e-19)
(1.5273 -0.0975035 3.41668e-20)
(1.80095 -0.229046 2.20889e-19)
(1.71524 -0.137215 2.62407e-19)
(1.87243 -0.146864 -8.10314e-20)
(1.96856 -0.206515 -7.17869e-20)
(0.805721 0.784025 1.97526e-18)
(0.655451 0.827117 1.15434e-18)
(0.899804 0.827314 -1.5072e-18)
(1.08693 0.834682 1.4263e-19)
(0.914693 0.725929 -1.54623e-18)
(0.963988 0.839638 -1.56903e-18)
(0.95675 0.599955 2.23286e-19)
(1.04733 0.712152 -1.10379e-18)
(1.02597 0.453785 -8.14212e-19)
(1.07963 0.595368 1.12223e-18)
(1.13048 0.304772 -4.02045e-19)
(1.16014 0.454802 -9.10892e-19)
(1.26847 0.170092 7.24685e-19)
(1.26775 0.319021 9.26052e-19)
(1.43039 0.0626425 0)
(1.40262 0.199254 4.32537e-19)
(1.6038 -0.0128458 0)
(1.55587 0.104515 -6.38686e-19)
(1.77171 -0.0580375 0)
(1.71398 0.0391459 -4.27158e-19)
(1.8498 0.00367202 3.17724e-19)
(1.92595 -0.0760866 0)
(0.994042 0.828876 -1.32635e-19)
(0.844069 0.855733 -3.59606e-18)
(1.10688 0.900759 0)
(1.26945 0.89197 1.43032e-18)
(1.12654 0.826033 -1.17753e-18)
(1.16756 0.91272 0)
(1.15932 0.728495 -4.15925e-19)
(1.23938 0.807254 -1.31349e-18)
(1.20699 0.609931 1.24142e-18)
(1.25885 0.715613 9.0828e-20)
(1.27923 0.482577 2.43397e-19)
(1.31635 0.59791 1.60169e-18)
(1.37846 0.358865 6.87381e-19)
(1.39318 0.479352 -1.51086e-18)
(1.50083 0.249682 -1.23886e-19)
(1.49398 0.366997 1.6169e-18)
(1.6383 0.162326 -1.08752e-18)
(1.61396 0.269627 -6.37532e-19)
(1.77978 0.0982551 -2.04657e-19)
(1.74447 0.192499 -4.26075e-19)
(1.86272 0.14207 3.20406e-19)
(1.917 0.0550756 -4.45712e-19)
(1.16269 0.835759 -2.95765e-18)
(0.985711 0.821964 -3.35795e-18)
(1.285 0.938519 1.57731e-18)
(1.42048 0.902981 2.5739e-18)
(1.30384 0.886951 0)
(1.33364 0.950944 0)
(1.33039 0.811743 -9.29927e-19)
(1.39976 0.865751 -2.18297e-19)
(1.36589 0.715874 2.7798e-19)
(1.41225 0.796032 4.87003e-20)
(1.41894 0.608819 1.73611e-19)
(1.45648 0.698205 -4.38692e-19)
(1.49284 0.499708 -9.06668e-19)
(1.51387 0.596781 -8.80966e-19)
(1.5868 0.397148 1.30407e-18)
(1.59128 0.495568 1.51593e-19)
(1.69659 0.308253 0)
(1.68632 0.402292 5.24212e-19)
(1.81573 0.236899 3.28761e-21)
(1.79437 0.322244 -7.28491e-19)
(1.89496 0.264814 -5.61115e-19)
(1.93956 0.189317 3.27639e-18)
(1.28218 0.810781 8.1964e-19)
(1.07302 0.75995 -1.41466e-20)
(1.42679 0.947919 1.25524e-18)
(1.52413 0.896532 1.29249e-18)
(1.44895 0.919464 -1.96426e-19)
(1.45966 0.967888 -1.03467e-18)
(1.47324 0.864331 7.35787e-19)
(1.52843 0.900123 3.95705e-19)
(1.50225 0.788151 -6.21182e-19)
(1.53992 0.849951 1.07845e-18)
(1.54398 0.699225 -1.44801e-18)
(1.57813 0.769358 -2.05389e-18)
(1.60176 0.604872 8.36238e-20)
(1.62408 0.683723 9.05305e-19)
(1.67613 0.511944 -6.55408e-19)
(1.68623 0.594359 -6.99403e-19)
(1.76499 0.426685 -6.6605e-20)
(1.76338 0.508011 5.25477e-19)
(1.8637 0.353076 -1.3001e-18)
(1.85374 0.429015 6.77907e-19)
(1.93816 0.369538 -1.06396e-18)
(1.96598 0.292142 3.22967e-19)
(1.34858 0.79758 -6.92619e-20)
(1.14982 0.737463 1.34621e-18)
(1.5265 0.955985 -7.53497e-19)
(1.60446 0.910152 -1.0424e-18)
(1.56021 0.941697 -6.83539e-19)
(1.56004 0.986711 -1.04028e-18)
(1.58862 0.900512 6.68284e-19)
(1.63275 0.92703 1.01377e-18)
(1.61682 0.83958 -2.31994e-20)
(1.64577 0.890365 -3.33343e-19)
(1.65321 0.765657 0)
(1.68242 0.822603 -9.87589e-19)
(1.70146 0.684577 2.95514e-19)
(1.72234 0.750177 3.909e-19)
(1.76297 0.601666 3.667e-19)
(1.77518 0.671707 9.00843e-19)
(1.83711 0.522091 1.25129e-18)
(1.84021 0.593173 0)
(1.92135 0.449497 1.13314e-18)
(1.91797 0.517682 2.04619e-18)
(1.99127 0.459057 -7.91792e-20)
(2.01192 0.386665 8.28217e-19)
(1.40979 0.795296 8.05382e-19)
(1.21798 0.719596 3.02609e-18)
(1.60921 0.968652 -1.33072e-18)
(1.67877 0.921416 -2.36612e-18)
(1.65063 0.962604 3.60673e-19)
(1.64768 1.00444 -2.29003e-19)
(1.68351 0.930279 1.5485e-19)
(1.72205 0.950767 4.02213e-19)
(1.71318 0.880054 -1.24093e-18)
(1.73599 0.924471 -6.10082e-19)
(1.74786 0.817583 -7.36709e-19)
(1.7728 0.865834 -6.3386e-20)
(1.79107 0.747445 9.4325e-19)
(1.80966 0.803904 4.06879e-20)
(1.84467 0.673644 6.32236e-19)
(1.85712 0.734582 5.44892e-19)
(1.90905 0.600444 5.69075e-19)
(1.91422 0.663567 -1.2119e-18)
(1.98371 0.531244 1.13141e-18)
(1.98369 0.592552 6.67669e-19)
(2.04907 0.537362 -1.76178e-20)
(2.07088 0.474333 -1.12987e-18)
(1.46757 0.774144 7.85466e-19)
(1.23642 0.668708 1.29828e-18)
(1.68398 0.972729 -1.47903e-18)
(1.72604 0.916016 -1.15738e-18)
(1.72981 0.979178 -2.52709e-19)
(1.7169 1.01557 2.16855e-19)
(1.76557 0.955881 -2.59587e-19)
(1.79742 0.97033 0)
(1.79657 0.914495 5.14626e-19)
(1.81387 0.95422 -2.80271e-19)
(1.83101 0.861069 7.09126e-19)
(1.85246 0.902813 9.32836e-19)
(1.87171 0.799755 -4.1491e-19)
(1.88806 0.849575 -3.48705e-19)
(1.9206 0.733726 -1.12096e-18)
(1.93262 0.787747 -1.0634e-18)
(1.97853 0.66668 -1.29403e-18)
(1.98442 0.723503 -8.2357e-19)
(2.04567 0.601527 -3.73205e-19)
(2.04822 0.656532 1.15885e-18)
(2.10779 0.604992 -4.54868e-19)
(2.12167 0.542352 4.20877e-19)
(1.49186 0.764721 -1.98637e-19)
(1.26833 0.647223 -5.06659e-21)
(1.73842 0.980103 4.07422e-19)
(1.76784 0.926065 1.39644e-19)
(1.79604 0.995967 4.98893e-19)
(1.77839 1.03143 1.11949e-18)
(1.83698 0.979612 1.10451e-20)
(1.86335 0.990818 -6.96145e-19)
(1.87037 0.945279 1.35942e-20)
(1.88311 0.981696 2.87392e-19)
(1.90561 0.899088 0)
(1.9241 0.935833 2.05853e-19)
(1.94526 0.844964 -9.26714e-19)
(1.95956 0.889684 -3.1439e-19)
(1.99138 0.785487 -7.93515e-19)
(2.00275 0.834039 -5.41361e-19)
(2.04513 0.723881 1.45717e-18)
(2.05105 0.775951 4.01043e-19)
(2.10737 0.662563 1.2646e-18)
(2.1111 0.712655 1.12202e-18)
(2.16699 0.663767 -1.86063e-20)
(2.179 0.606556 0)
(1.51853 0.764176 3.26617e-19)
(1.30985 0.632366 1.82452e-19)
(1.78695 0.991633 7.49958e-19)
(1.80918 0.934379 1.23454e-18)
(1.8551 1.01453 1.77945e-19)
(1.83888 1.04508 6.59082e-19)
(1.90098 1.00303 -5.19094e-19)
(1.92437 1.01148 -2.04902e-18)
(1.93721 0.973786 4.91706e-19)
(1.94761 1.00695 2.82522e-19)
(1.9739 0.933314 -5.37178e-20)
(1.9902 0.966022 -3.96997e-19)
(2.01333 0.885068 1.00946e-19)
(2.02604 0.925416 5.82735e-21)
(2.05783 0.831273 5.58524e-19)
(2.06853 0.875012 1.42583e-18)
(2.10887 0.774571 -2.1128e-20)
(2.11468 0.822506 -3.45177e-19)
(2.16792 0.716887 -2.05737e-20)
(2.17208 0.763193 4.66132e-19)
(2.22777 0.717093 -7.60863e-19)
(2.23867 0.661962 -1.34848e-20)
(1.55155 0.749894 9.92455e-19)
(1.31841 0.602119 -8.95362e-20)
(1.83359 0.993763 1.12434e-18)
(1.82987 0.929273 2.07083e-18)
(1.91113 1.02898 -1.15753e-18)
(1.88977 1.05138 -1.2127e-20)
(1.96094 1.02417 -1.45546e-18)
(1.97875 1.02964 -2.67977e-18)
(1.99971 0.999715 -5.50708e-19)
(2.00806 1.02899 1.05516e-20)
(2.03783 0.964157 -3.70783e-19)
(2.05212 0.993247 -9.87301e-19)
(2.07738 0.920806 1.18102e-18)
(2.08874 0.95714 9.15774e-19)
(2.12096 0.872054 7.1644e-19)
(2.13069 0.911555 4.93388e-19)
(2.17034 0.819988 5.32615e-20)
(2.1756 0.864137 -2.17516e-20)
(2.22706 0.766459 -9.72846e-20)
(2.23059 0.809359 2.68941e-19)
(2.28579 0.764749 -7.43411e-19)
(2.2927 0.713967 -5.02864e-19)
(1.56402 0.737964 7.69801e-19)
(1.33329 0.579158 -2.79356e-21)
(1.8674 0.993066 9.81561e-19)
(1.84479 0.92515 -2.19099e-19)
(1.96052 1.04076 -1.14462e-18)
(1.9352 1.05618 -8.31907e-21)
(2.01667 1.04271 -1.43067e-18)
(2.02876 1.04626 -1.3231e-18)
(2.05874 1.02263 -3.47048e-19)
(2.06547 1.04775 5.0321e-19)
(2.09828 0.991452 1.13951e-19)
(2.11059 1.01699 -1.13745e-18)
(2.1379 0.952592 2.69725e-19)
(2.14787 0.98484 8.10042e-19)
(2.18081 0.908744 -1.90853e-19)
(2.18912 0.944283 -3.3348e-19)
(2.22908 0.861334 1.62061e-19)
(2.23343 0.901891 2.54779e-19)
(2.28431 0.811686 -2.52254e-19)
(2.28675 0.852159 -2.17543e-19)
(2.34254 0.808501 1.58969e-19)
(2.34849 0.761165 0)
(1.57083 0.72785 -9.55768e-19)
(1.35133 0.557678 1.63764e-18)
(1.89325 0.990643 -1.29154e-18)
(1.85546 0.917248 -2.30036e-18)
(2.00468 1.05022 0)
(1.97783 1.0558 0)
(2.06897 1.05817 4.4396e-19)
(2.07699 1.05807 -9.9898e-21)
(2.11472 1.04172 -1.14158e-19)
(2.12077 1.06096 2.41252e-21)
(2.15525 1.01465 -6.41649e-19)
(2.16548 1.0356 -1.20421e-20)
(2.19462 0.980576 3.31479e-19)
(2.20262 1.00806 1.85064e-21)
(2.237 0.942101 4.70562e-20)
(2.24304 0.973694 -1.46117e-20)
(2.28489 0.899673 -7.25436e-20)
(2.28758 0.937037 2.87078e-19)
(2.33982 0.853867 1.55081e-19)
(2.34053 0.893174 -2.00478e-19)
(2.39911 0.85056 1.43585e-19)
(2.40282 0.80329 1.2042e-19)
(1.57887 0.71459 6.3822e-19)
(1.37027 0.533915 1.46208e-18)
(1.91563 0.980011 -1.24684e-18)
(1.85991 0.898435 -1.04284e-18)
(2.04612 1.05127 -8.89486e-21)
(2.01542 1.04207 0)
(2.11872 1.06571 -4.49283e-19)
(2.12124 1.05732 8.24798e-20)
(2.16711 1.05378 1.0639e-19)
(2.17083 1.06337 -9.23425e-19)
(2.20743 1.03219 6.29649e-19)
(2.21365 1.04607 1.20328e-18)
(2.24618 1.00466 -3.43421e-19)
(2.25022 1.02607 -2.06709e-19)
(2.28855 0.972996 1.92858e-19)
(2.29068 1.00036 -1.03827e-19)
(2.33709 0.936542 2.11776e-19)
(2.33686 0.970886 4.33299e-19)
(2.39274 0.895497 -2.52604e-19)
(2.39084 0.933741 -3.14839e-19)
(2.4508 0.893038 -1.96281e-19)
(2.45222 0.849071 1.48432e-19)
(1.58525 0.693383 9.84472e-21)
(1.39123 0.502191 6.99748e-21)
(1.93161 0.952963 7.93276e-20)
(1.85923 0.860721 -2.06937e-20)
(2.08086 1.03443 8.14339e-20)
(2.04236 1.00347 9.42112e-19)
(2.16107 1.05733 -2.85469e-19)
(2.15259 1.03328 -4.39981e-21)
(2.2108 1.05412 -7.94259e-20)
(2.20582 1.04857 -1.41214e-18)
(2.25053 1.04217 5.22004e-19)
(2.24762 1.04554 7.46771e-19)
(2.28952 1.02484 2.10584e-20)
(2.28556 1.03849 8.72333e-21)
(2.33361 1.00235 7.60667e-20)
(2.32913 1.0249 1.27065e-20)
(2.3845 0.973114 -1.35378e-20)
(2.37963 1.00436 1.73933e-19)
(2.44201 0.937151 -2.7224e-19)
(2.43679 0.974383 -1.03152e-19)
(2.49882 0.936102 -1.28993e-19)
(2.50409 0.894626 -2.86867e-20)
(1.5975 0.65711 -9.864e-21)
(1.4413 0.447661 5.56909e-20)
(1.93883 0.895595 7.36107e-19)
(1.84709 0.777475 1.06874e-19)
(2.10079 0.98632 1.01585e-18)
(2.04032 0.927846 9.04936e-19)
(2.18592 1.02351 -9.54022e-19)
(2.14961 0.978627 -2.91568e-19)
(2.23703 1.03723 -8.38388e-19)
(2.20776 1.0136 -1.41101e-18)
(2.27812 1.04283 3.18046e-19)
(2.25392 1.03333 4.92004e-19)
(2.32079 1.04111 0)
(2.30038 1.04527 0)
(2.37001 1.03047 9.27979e-20)
(2.35371 1.04671 1.98016e-19)
(2.42578 1.00961 1.15409e-19)
(2.41286 1.03655 3.75391e-20)
(2.48714 0.979088 4.6008e-20)
(2.47634 1.01469 -1.30054e-19)
(2.54404 0.978542 -6.43931e-20)
(2.54331 0.938327 -1.12563e-19)
(1.54238 0.556404 1.61608e-19)
(1.53827 0.297178 -1.83612e-18)
(1.87816 0.80684 2.0198e-19)
(1.78208 0.723027 1.25752e-20)
(2.04532 0.908072 -1.78149e-19)
(1.97782 0.800899 0)
(2.14263 0.967365 -6.03108e-19)
(2.08617 0.883032 -3.48625e-19)
(2.20891 1.00673 -3.04037e-19)
(2.15809 0.953482 1.08488e-19)
(2.26665 1.03617 2.31218e-19)
(2.22011 1.00684 -1.36899e-19)
(2.32654 1.05302 1.73695e-19)
(2.28624 1.04356 -2.14619e-20)
(2.39021 1.05518 1.60948e-19)
(2.35709 1.06155 1.75993e-19)
(2.45627 1.04384 -1.88144e-19)
(2.42881 1.0627 -4.84453e-19)
(2.52497 1.02155 -2.48378e-19)
(2.50092 1.05115 2.7587e-19)
(2.57514 1.0253 -1.18302e-19)
(2.58987 0.991475 6.78592e-20)
(2.05668 0.403083 -2.30753e-18)
(2.18655 -0.955039 -8.86432e-19)
(2.10276 0.538566 -4.56552e-19)
(0.993912 0.054232 1.53715e-18)
(2.15108 0.710934 2.49135e-20)
(1.21008 0.21971 -4.64643e-19)
(2.17923 0.829431 4.83008e-19)
(1.47701 0.353888 6.65821e-19)
(2.20485 0.929161 2.74439e-19)
(1.66093 0.507374 2.46116e-20)
(2.2489 1.00602 -3.92641e-19)
(1.83621 0.645357 -1.12127e-19)
(2.31196 1.05113 -3.55707e-20)
(2.00703 0.759517 2.85089e-19)
(2.38453 1.06987 -3.75463e-19)
(2.15801 0.848435 1.94152e-19)
(2.45987 1.07102 -1.4611e-19)
(2.28736 0.911743 -2.8744e-19)
(2.5371 1.06114 4.26203e-19)
(2.40126 0.954153 5.30815e-19)
(2.51237 0.988556 -3.9184e-20)
(2.60697 1.05241 1.90437e-19)
(5.60297 -4.15125 -8.38629e-20)
(6.73017 -5.3162 1.93874e-18)
(4.9319 -3.99579 1.22127e-19)
(5.83161 -2.2512 9.17966e-18)
(4.55016 -3.37843 1.50491e-19)
(5.68601 -2.74424 -1.90203e-18)
(4.10147 -2.67832 0)
(5.11609 -2.4107 -1.1697e-18)
(3.75319 -2.09427 -4.81189e-19)
(4.48193 -1.98515 0)
(3.50646 -1.63258 -2.26044e-19)
(4.01637 -1.61453 -7.47493e-19)
(3.32353 -1.27611 2.2393e-19)
(3.68219 -1.28614 3.98856e-19)
(3.17912 -0.999813 7.17421e-20)
(3.4375 -1.01266 -1.61272e-19)
(3.05989 -0.784865 3.25761e-19)
(3.24974 -0.791029 2.56174e-19)
(2.95879 -0.617692 2.44787e-19)
(3.10113 -0.615146 1.96598e-20)
(2.97772 -0.482004 2.97381e-19)
(2.85724 -0.479485 2.30229e-19)
(5.13647 -1.38163 1.38165e-17)
(4.94931 -2.83296 2.17172e-18)
(5.807 -1.79681 9.6618e-18)
(5.14161 0.0440185 7.32135e-18)
(5.7469 -1.94394 -2.14839e-18)
(6.14967 -1.07039 -1.01574e-18)
(5.26725 -1.89682 -1.15783e-18)
(5.95166 -1.209 2.14116e-18)
(4.68126 -1.67882 -2.07629e-19)
(5.35157 -1.20403 -2.3548e-18)
(4.18611 -1.38358 -1.60805e-19)
(4.74372 -1.11983 -8.35641e-21)
(3.8048 -1.09601 1.2505e-19)
(4.22827 -0.955839 1.09007e-19)
(3.51905 -0.850431 -2.28968e-20)
(3.83057 -0.773527 1.25623e-19)
(3.30021 -0.653137 1.03565e-20)
(3.52914 -0.604249 5.41624e-21)
(3.12679 -0.502092 4.19752e-20)
(3.29619 -0.460012 6.4753e-20)
(3.11471 -0.349771 -1.21764e-20)
(2.96047 -0.379873 1.75195e-20)
(4.01459 -0.0527789 6.35133e-19)
(3.29441 -1.44517 -1.72069e-17)
(5.33419 0.136274 5.60147e-19)
(3.99721 1.20174 1.23907e-17)
(5.81032 -0.151963 3.34049e-18)
(5.57969 0.379401 6.15819e-19)
(5.71776 -0.53303 1.32528e-18)
(5.81712 0.212102 2.91654e-18)
(5.26735 -0.751189 -2.06132e-18)
(5.59371 -0.103964 1.34459e-19)
(4.73312 -0.78557 5.62363e-19)
(5.13006 -0.31553 -2.46863e-18)
(4.24306 -0.70259 1.08812e-19)
(4.61232 -0.391233 1.44726e-18)
(3.84458 -0.573734 1.25654e-19)
(4.14755 -0.374857 -3.47632e-19)
(3.53446 -0.443452 -6.31303e-21)
(3.76864 -0.312457 -1.28687e-20)
(3.29563 -0.328251 -8.86426e-21)
(3.47227 -0.236876 9.18782e-21)
(3.24341 -0.172103 -4.71198e-20)
(3.08767 -0.231377 -1.27589e-20)
(2.9335 0.318827 -5.76442e-18)
(2.00123 -0.887479 -3.09587e-17)
(4.4551 1.09627 1.34185e-17)
(3.05042 1.45336 3.25274e-17)
(5.27271 1.07892 0)
(4.73067 1.22793 -7.77705e-18)
(5.52478 0.715499 2.06091e-18)
(5.20975 1.28342 4.63212e-18)
(5.34809 0.317264 -1.65782e-19)
(5.33097 0.894008 -1.04448e-18)
(4.95733 0.0254454 -2.31184e-18)
(5.10184 0.545618 -4.53852e-18)
(4.50131 -0.121085 1.26966e-18)
(4.72094 0.286808 1.7374e-18)
(4.07405 -0.160174 -6.06831e-19)
(4.29986 0.135855 -6.45793e-19)
(3.71533 -0.141176 0)
(3.91219 0.0676835 6.32576e-19)
(3.43041 -0.100709 -2.2402e-20)
(3.58692 0.0509933 2.21327e-19)
(3.32951 0.0539812 -2.65688e-19)
(3.16422 -0.0607846 -3.4423e-20)
(2.03168 0.258533 3.32023e-18)
(1.04254 -0.764679 -2.48115e-17)
(3.58103 1.39449 1.63718e-17)
(2.36446 1.33524 2.06637e-17)
(4.55178 1.71538 -4.4646e-18)
(3.97063 1.61952 -1.04711e-18)
(5.00216 1.5593 1.9225e-18)
(4.52818 1.91113 2.56532e-19)
(5.05151 1.19032 -5.0134e-18)
(4.83635 1.59891 -2.70588e-19)
(4.85348 0.807218 -1.36306e-18)
(4.79176 1.25708 1.26022e-19)
(4.52162 0.514431 1.71175e-19)
(4.57814 0.920933 -9.00075e-19)
(4.1487 0.327851 2.6192e-19)
(4.26326 0.661695 -2.18533e-19)
(3.79869 0.226554 8.96358e-19)
(3.92691 0.483781 6.27138e-19)
(3.50119 0.178967 1.34409e-19)
(3.61652 0.37525 6.007e-19)
(3.35365 0.316058 -1.8691e-19)
(3.21901 0.147152 -1.71874e-19)
(1.32795 0.100124 -1.22635e-17)
(0.338931 -0.823812 -1.65393e-17)
(2.84623 1.4306 5.83291e-18)
(1.83314 1.14326 -7.32596e-18)
(3.86384 1.98997 3.49736e-18)
(3.33078 1.7765 6.87119e-18)
(4.39894 2.03137 -1.97257e-18)
(3.91637 2.23274 -4.931e-18)
(4.58191 1.77067 4.81578e-18)
(4.30204 2.03144 4.65043e-18)
(4.53814 1.41393 6.33745e-19)
(4.36497 1.75896 3.45888e-18)
(4.34365 1.07573 -1.46172e-18)
(4.28347 1.42324 -2.07637e-18)
(4.0662 0.804129 -1.47549e-19)
(4.07988 1.12234 1.34377e-18)
(3.76832 0.610781 3.3678e-19)
(3.82207 0.877996 0)
(3.49267 0.481214 4.90786e-19)
(3.55552 0.698116 4.78218e-20)
(3.31163 0.58396 9.19677e-19)
(3.20235 0.375514 5.00611e-20)
(0.784997 -0.0629318 -1.29595e-17)
(-0.176851 -0.956528 -1.44109e-18)
(2.25314 1.38133 -8.34277e-18)
(1.38712 0.950946 -7.66699e-18)
(3.26983 2.09488 6.73506e-20)
(2.7793 1.81933 1.97027e-19)
(3.83394 2.27642 7.24935e-19)
(3.3852 2.38216 2.86214e-19)
(4.08129 2.11857 3.61068e-18)
(3.79982 2.27824 3.64728e-18)
(4.13536 1.82806 1.30079e-18)
(3.91853 2.08317 1.71348e-19)
(4.04942 1.50597 3.93027e-19)
(3.92572 1.78278 -1.96741e-18)
(3.86786 1.20742 1.63865e-18)
(3.81119 1.4841 1.4751e-18)
(3.63942 0.962297 -3.3027e-19)
(3.63107 1.21315 6.87337e-19)
(3.40709 0.774863 3.30917e-19)
(3.42046 0.98889 8.2817e-21)
(3.20776 0.821108 8.45213e-19)
(3.16188 0.612666 -3.25187e-19)
(0.371446 -0.221671 4.61848e-18)
(-0.534509 -1.09719 -3.04568e-18)
(1.78122 1.29905 0)
(1.02433 0.781284 5.30237e-18)
(2.77359 2.11962 7.76067e-19)
(2.3104 1.80425 0)
(3.33902 2.39676 2.86855e-18)
(2.92593 2.43479 3.68512e-18)
(3.61206 2.31736 6.94777e-19)
(3.34561 2.40858 -2.14919e-18)
(3.7207 2.09257 -2.81647e-18)
(3.49144 2.2803 -1.713e-18)
(3.7083 1.80858 -1.14932e-18)
(3.55485 2.02362 -1.02001e-19)
(3.60402 1.51753 6.11086e-19)
(3.50483 1.74785 1.21144e-18)
(3.4427 1.25437 1.13247e-18)
(3.39013 1.47588 6.87238e-19)
(3.25738 1.03622 4.57891e-19)
(3.23703 1.23342 3.93447e-19)
(3.07029 1.03829 -1.37837e-18)
(3.03704 0.844021 2.81293e-20)
(0.0477834 -0.357335 -3.6398e-18)
(-0.795318 -1.22097 -1.3783e-17)
(1.39511 1.20358 5.88148e-18)
(0.715941 0.638201 5.39432e-18)
(2.35235 2.09708 2.53714e-18)
(1.90665 1.75759 1.18611e-19)
(2.90737 2.4429 -6.61146e-19)
(2.5261 2.42913 6.74245e-18)
(3.18853 2.42311 -4.73535e-18)
(2.93768 2.46495 -6.13201e-18)
(3.32573 2.25307 8.37748e-19)
(3.09615 2.38973 1.24737e-18)
(3.36012 2.00937 2.12139e-18)
(3.19424 2.17446 -8.10317e-19)
(3.31266 1.74001 1.34604e-18)
(3.18936 1.92835 1.29965e-19)
(3.2085 1.47872 1.05921e-20)
(3.12616 1.66789 7.10179e-19)
(3.07506 1.24522 -1.27142e-18)
(3.02112 1.42102 -9.12378e-19)
(2.89454 1.21849 -1.44857e-18)
(2.89186 1.02055 7.80322e-19)
(-0.21852 -0.462921 -7.29494e-18)
(-0.993337 -1.31456 -6.47858e-18)
(1.06531 1.10672 3.14657e-19)
(0.434315 0.511516 2.64276e-20)
(1.98524 2.04558 3.74378e-18)
(1.54664 1.68744 -6.22355e-19)
(2.52605 2.44095 2.69875e-18)
(2.17085 2.3852 6.21472e-18)
(2.80683 2.4669 -9.29888e-19)
(2.56857 2.47284 6.05185e-19)
(2.95898 2.34145 -1.56057e-19)
(2.73414 2.43764 -3.43062e-18)
(3.0233 2.13427 -2.78408e-18)
(2.85292 2.25837 -8.65306e-19)
(3.01686 1.89018 -5.17579e-19)
(2.87966 2.0413 2.08809e-18)
(2.95765 1.63963 -3.12059e-23)
(2.85617 1.7978 -7.67247e-19)
(2.86749 1.40584 -9.80082e-19)
(2.79245 1.55572 -1.63339e-18)
(2.70137 1.34774 1.57865e-18)
(2.73108 1.16835 3.53935e-21)
(-0.454136 -0.564502 0)
(-1.1888 -1.41377 0)
(0.762005 0.99364 -6.69471e-19)
(0.159257 0.379865 3.72487e-18)
(1.64654 1.96686 1.24143e-18)
(1.21481 1.59092 -2.84919e-18)
(2.17755 2.40225 4.74714e-18)
(1.84187 2.30935 3.21428e-18)
(2.45798 2.46605 -1.53286e-18)
(2.22828 2.44366 9.36199e-19)
(2.6193 2.37612 -4.40476e-18)
(2.40126 2.43944 -7.65893e-18)
(2.70353 2.19967 3.73943e-18)
(2.53296 2.29111 2.41532e-18)
(2.72711 1.98011 2.14534e-18)
(2.58328 2.0999 2.08355e-18)
(2.70376 1.74486 -2.27358e-18)
(2.59076 1.87509 -2.01179e-18)
(2.64998 1.51831 4.66808e-19)
(2.56214 1.64384 -1.03588e-18)
(2.50823 1.44004 1.06909e-18)
(2.55186 1.28987 9.04187e-19)
(-0.670201 -0.669319 3.36572e-18)
(-1.3545 -1.49923 -5.54394e-19)
(0.479487 0.873557 2.12196e-18)
(-0.0900074 0.255157 3.74539e-18)
(1.33183 1.86701 -1.50189e-18)
(0.908092 1.47212 -5.15023e-18)
(1.85467 2.33407 -3.72118e-19)
(1.53219 2.20747 4.56895e-18)
(2.1359 2.43073 -4.36587e-18)
(1.91075 2.38374 -2.92009e-18)
(2.30427 2.36984 -1.93422e-18)
(2.0923 2.40456 -2.37131e-19)
(2.40309 2.21924 8.07386e-19)
(2.23303 2.28295 1.78075e-19)
(2.44987 2.02178 -1.60757e-18)
(2.30236 2.11397 -2.1909e-19)
(2.45593 1.80261 -8.83878e-19)
(2.3352 1.90721 -1.15059e-18)
(2.43486 1.58646 -7.07755e-19)
(2.33691 1.68888 1.92675e-19)
(2.31803 1.49048 -4.95792e-19)
(2.38156 1.37093 1.18123e-18)
(-0.870778 -0.764833 -6.10799e-19)
(-1.49207 -1.5755 -5.02505e-19)
(0.214861 0.746441 -2.74037e-18)
(-0.326319 0.125958 1.55023e-18)
(1.03338 1.74486 -2.3166e-20)
(0.615155 1.33079 -4.12409e-18)
(1.54977 2.23864 2.80564e-18)
(1.23426 2.07972 6.55495e-18)
(1.83411 2.36539 9.35404e-19)
(1.60916 2.29558 -2.60418e-18)
(2.00964 2.32945 1.83501e-18)
(1.80175 2.33837 1.97291e-18)
(2.12085 2.20097 -8.08564e-19)
(1.95052 2.24038 -7.66609e-19)
(2.18716 2.02297 3.52537e-19)
(2.03693 2.09033 1.465e-18)
(2.21881 1.81929 -2.52537e-19)
(2.09204 1.90005 -1.62599e-18)
(2.22689 1.61465 4.68067e-19)
(2.12077 1.69545 1.10163e-18)
(2.13594 1.50085 -4.37163e-19)
(2.20899 1.40443 -1.35367e-19)
(-1.06255 -0.864794 1.48844e-18)
(-1.62151 -1.66994 5.80292e-19)
(-0.0447535 0.599114 7.4438e-19)
(-0.560998 -0.0210066 1.55044e-18)
(0.739821 1.59438 1.46325e-18)
(0.326955 1.1604 -1.6119e-18)
(1.2536 2.1136 2.0851e-18)
(0.940715 1.92041 3.62307e-18)
(1.54523 2.27102 -2.04872e-18)
(1.3173 2.17774 -1.22728e-18)
(1.73019 2.25829 -3.30946e-19)
(1.52392 2.24248 -1.77811e-18)
(1.85404 2.14947 1.27115e-18)
(1.68215 2.16656 1.57369e-18)
(1.93869 1.98858 -1.4793e-19)
(1.78566 2.03306 -5.28339e-21)
(1.99413 1.79952 -5.84882e-19)
(1.8621 1.85781 -1.02817e-18)
(2.02909 1.60623 3.64871e-19)
(1.91571 1.66737 6.2372e-19)
(1.96186 1.48016 -3.6826e-19)
(2.04976 1.41821 -2.14058e-19)
(-1.24572 -0.973841 5.59156e-19)
(-1.73521 -1.75673 5.07035e-19)
(-0.295321 0.433245 -4.84924e-19)
(-0.789844 -0.17455 -1.47545e-19)
(0.453514 1.41714 6.26053e-20)
(0.0455891 0.967924 -2.51737e-18)
(0.963785 1.95956 8.06975e-19)
(0.650603 1.7326 1.73369e-18)
(1.26541 2.14779 -8.9863e-19)
(1.03086 2.02913 0)
(1.46225 2.15758 -2.46712e-19)
(1.25366 2.11645 -6.6684e-19)
(1.60025 2.06697 4.54421e-19)
(1.42427 2.06192 1.42465e-18)
(1.70369 1.92159 -7.63454e-19)
(1.54647 1.94364 -6.89513e-19)
(1.7825 1.74685 0)
(1.64539 1.78296 0)
(1.84321 1.56687 0)
(1.72456 1.60772 1.68849e-19)
(1.80296 1.43515 -3.21416e-19)
(1.88915 1.39795 3.04322e-19)
(-1.42215 -1.08684 -1.3249e-19)
(-1.84112 -1.84316 0)
(-0.541424 0.250475 -1.93777e-18)
(-1.0189 -0.340275 7.18847e-20)
(0.169348 1.21266 -1.23312e-18)
(-0.235741 0.749678 -1.76034e-19)
(0.675492 1.77362 1.10636e-18)
(0.356286 1.51194 -2.00593e-19)
(0.989795 1.99255 2.99619e-19)
(0.742218 1.84504 0)
(1.20083 2.0261 7.68934e-19)
(0.984683 1.95831 8.12293e-19)
(1.35587 1.95322 4.94045e-19)
(1.1716 1.92453 8.04258e-20)
(1.48055 1.82276 0)
(1.31615 1.82114 0)
(1.58448 1.66278 1.50605e-19)
(1.44079 1.67579 2.13249e-19)
(1.67311 1.49701 -1.10827e-19)
(1.54745 1.51661 9.43422e-21)
(1.65794 1.35454 -3.23544e-19)
(1.76194 1.35654 2.98624e-19)
(-1.59744 -1.20875 1.9672e-19)
(-1.94453 -1.94132 0)
(-0.78978 0.046075 1.84696e-18)
(-1.25221 -0.526271 1.47386e-19)
(-0.120616 0.976606 8.54535e-19)
(-0.523067 0.49972 3.16782e-18)
(0.378918 1.55155 -1.32224e-18)
(0.0502082 1.2524 -2.24774e-18)
(0.706644 1.80184 4.27053e-19)
(0.442604 1.61975 0)
(0.937835 1.85958 2.05623e-19)
(0.707377 1.75856 1.20727e-19)
(1.11575 1.80488 -4.05318e-19)
(0.916788 1.74726 -7.78383e-20)
(1.26663 1.69044 1.90258e-19)
(1.09026 1.66099 0)
(1.39914 1.54726 1.27106e-19)
(1.24607 1.53432 1.99713e-19)
(1.51608 1.39763 -1.78752e-19)
(1.38306 1.39536 -1.6121e-19)
(1.52811 1.25111 0)
(1.62389 1.2595 0)
(-1.7752 -1.34629 -6.25049e-20)
(-2.0475 -2.05158 0)
(-1.04362 -0.184351 1.16427e-18)
(-1.49148 -0.734005 -6.88256e-20)
(-0.421339 0.703793 5.43038e-19)
(-0.821093 0.215432 1.51298e-18)
(0.0670139 1.28564 -1.16119e-18)
(-0.275391 0.946811 -1.13643e-18)
(0.409236 1.56485 -3.17384e-19)
(0.120378 1.3407 0)
(0.664852 1.64796 -1.36474e-19)
(0.410013 1.50471 -3.77298e-19)
(0.873475 1.61411 3.18829e-19)
(0.65086 1.51748 2.86981e-19)
(1.05805 1.51991 -1.2768e-20)
(0.862855 1.45391 -6.77291e-20)
(1.22409 1.39896 -1.59508e-20)
(1.05752 1.3537 5.34652e-20)
(1.3712 1.27179 0)
(1.22939 1.24313 -8.67505e-21)
(1.41219 1.12694 7.31285e-21)
(1.50563 1.1724 0)
(-1.95843 -1.50358 0)
(-2.1537 -2.17824 1.42389e-18)
(-1.30719 -0.444381 1.26462e-19)
(-1.74153 -0.964912 0)
(-0.740357 0.387968 7.34194e-20)
(-1.13868 -0.106515 4.96403e-19)
(-0.27185 0.964758 -1.01811e-19)
(-0.633002 0.585485 -2.32573e-19)
(0.0831131 1.26636 -2.08293e-20)
(-0.239975 0.989437 -1.67108e-19)
(0.370047 1.37445 -2.58761e-20)
(0.0777103 1.17274 2.3798e-19)
(0.620525 1.36654 -6.02635e-20)
(0.361925 1.21274 -4.52965e-20)
(0.848809 1.30139 -3.93909e-20)
(0.624384 1.18334 -5.50803e-20)
(1.05506 1.21245 6.50691e-20)
(0.866435 1.12314 9.35001e-20)
(1.23715 1.117 2.03963e-20)