/*--------------------------------*- C++ -*----------------------------------*\
| =========                 |                                                 |
| \\      /  F ield         | OpenFOAM: The Open Source CFD Toolbox           |
|  \\    /   O peration     | Version:  3.0.1                                 |
|   \\  /    A nd           | Web:      www.OpenFOAM.org                      |
|    \\/     M anipulation  |                                                 |
\*---------------------------------------------------------------------------*/
FoamFile
{
    version     2.0;
    format      ascii;
    class       volScalarField;
    location    "0";
    object      yPlus;
}
// * * * * * * * * * * * * * * * * * * * * * * * * * * * * * * * * * * * * * //

dimensions      [0 0 0 0 0 0 0];

internalField   uniform 0;

boundaryField
{
    FrontAndBack
    {
        type            empty;
    }
    patch1
    {
        type            calculated;
        value           nonuniform List<scalar> 
248
(
0.259374
0.257515
0.252673
0.249871
0.246068
0.240206
0.234865
0.234226
0.23399
0.228385
0.223971
0.227252
0.227637
0.225975
0.22927
0.237493
0.241822
0.24029
0.24403
0.247863
0.253545
0.258891
0.262091
0.264968
0.265153
0.270012
0.272318
0.274425
0.278355
0.277383
0.279287
0.284063
0.286053
0.285099
0.287199
0.290656
0.290996
0.288944
0.291371
0.294895
0.294281
0.294606
0.29821
0.298512
0.298849
0.301947
0.302125
0.302364
0.302698
0.303042
0.306747
0.310499
0.310941
0.31141
0.311903
0.312403
0.312904
0.313457
0.313997
0.314575
0.315153
0.31575
0.316354
0.316975
0.31759
0.318255
0.31891
0.319569
0.320236
0.320921
0.321623
0.31903
0.319781
0.323857
0.324616
0.32544
0.326232
0.323736
0.321291
0.322211
0.32313
0.324075
0.321819
0.319589
0.320611
0.321649
0.319514
0.31741
0.315331
0.313382
0.311458
0.312742
0.314217
0.309237
0.307635
0.305629
0.300597
0.298803
0.297095
0.296356
0.294668
0.289871
0.286093
0.285578
0.285136
0.280412
0.27467
0.27005
0.263399
0.256827
0.252194
0.247705
0.243152
0.236699
0.229001
0.218276
0.209943
0.203466
0.24652
0.269346
0.276703
0.275451
0.272592
0.273638
0.260196
0.260272
0.259118
0.261511
0.260988
0.260513
0.260704
0.254916
0.252799
0.256466
0.257682
0.253077
0.249255
0.249164
0.247925
0.247146
0.246677
0.244072
0.241945
0.242649
0.24363
0.244895
0.246451
0.246709
0.249007
0.24999
0.249706
0.251754
0.255325
0.256056
0.252934
0.254228
0.256355
0.261954
0.267076
0.265819
0.268422
0.271102
0.273624
0.276471
0.279431
0.282314
0.282
0.285179
0.288405
0.288331
0.291693
0.295073
0.295136
0.295256
0.298792
0.30232
0.302523
0.306137
0.309721
0.309998
0.313644
0.317254
0.317573
0.31787
0.318178
0.318487
0.318803
0.319109
0.322779
0.32308
0.320013
0.320304
0.320577
0.320851
0.321095
0.321341
0.32154
0.321742
0.321946
0.322174
0.319006
0.315818
0.315989
0.316102
0.312861
0.309642
0.306351
0.303061
0.303146
0.299833
0.296476
0.296489
0.293152
0.28648
0.283127
0.279729
0.27636
0.272973
0.266138
0.262703
0.25925
0.252476
0.245827
0.24231
0.235708
0.225595
0.218825
0.21195
0.204937
0.198324
0.18828
0.178068
0.168092
0.161342
0.154492
0.144409
0.134243
0.120901
0.110615
0.0981633
0.0888099
0.161216
0.215396
0.243037
0.257128
0.264734
0.270283
0.271554
)
;
    }
    patch2
    {
        type            calculated;
        value           nonuniform List<scalar> 
248
(
0.254169
0.253372
0.253008
0.248845
0.240871
0.236743
0.237608
0.236526
0.231516
0.230592
0.231173
0.2295
0.232414
0.233999
0.234715
0.235893
0.240446
0.245323
0.247156
0.252442
0.256497
0.259174
0.262725
0.266009
0.26813
0.273509
0.275704
0.27455
0.277122
0.279613
0.282048
0.281112
0.283564
0.285694
0.284388
0.286828
0.289317
0.287958
0.286615
0.29003
0.292795
0.293956
0.299171
0.302055
0.297636
0.296462
0.302784
0.305985
0.304943
0.305773
0.307856
0.306854
0.308988
0.314087
0.313194
0.312334
0.314488
0.31372
0.314289
0.316486
0.315773
0.315135
0.317389
0.320724
0.320163
0.319612
0.320071
0.320471
0.322771
0.322345
0.32197
0.321631
0.319335
0.321765
0.321533
0.319274
0.319646
0.319985
0.319883
0.322364
0.324878
0.322337
0.320158
0.318013
0.318125
0.320733
0.318636
0.316419
0.316671
0.317044
0.315031
0.313015
0.313404
0.311455
0.309605
0.3078
0.303635
0.301774
0.300173
0.296308
0.294534
0.29279
0.291348
0.285231
0.279136
0.27527
0.271439
0.267632
0.263829
0.2605
0.252471
0.244003
0.240292
0.234468
0.223902
0.21807
0.211342
0.229198
0.260865
0.272563
0.277279
0.278269
0.273598
0.269137
0.25675
0.259647
0.257939
0.25965
0.261855
0.260983
0.257398
0.254229
0.254927
0.256103
0.251396
0.25093
0.251071
0.248239
0.246227
0.247995
0.249724
0.245601
0.246045
0.246164
0.246729
0.247648
0.247385
0.247285
0.249248
0.254317
0.252415
0.25085
0.254623
0.253767
0.253016
0.257446
0.259604
0.259447
0.260012
0.264872
0.269839
0.271085
0.274435
0.276935
0.277714
0.278536
0.279489
0.283406
0.286149
0.288941
0.293097
0.297329
0.30021
0.30161
0.303021
0.301507
0.304498
0.307492
0.309048
0.310631
0.309196
0.312263
0.313902
0.315563
0.315575
0.314213
0.31894
0.320616
0.319232
0.322316
0.325352
0.322299
0.320916
0.322546
0.321132
0.318309
0.31824
0.321258
0.321411
0.319904
0.315373
0.313839
0.316746
0.315179
0.312184
0.30611
0.304489
0.305867
0.301174
0.299545
0.297824
0.293137
0.289948
0.288219
0.286474
0.283241
0.276955
0.270695
0.264418
0.258083
0.2563
0.251532
0.245215
0.238873
0.232563
0.226229
0.219882
0.212068
0.204096
0.197727
0.191429
0.180615
0.169726
0.163352
0.155471
0.144717
0.132349
0.123166
0.112417
0.102489
0.121876
0.199184
0.230123
0.247996
0.260366
0.269361
0.264254
0.257698
)
;
    }
    patch3
    {
        type            calculated;
        value           nonuniform List<scalar> 
248
(
0.257655
0.252197
0.245308
0.244478
0.243059
0.237323
0.2371
0.237826
0.234647
0.232107
0.228313
0.228504
0.232753
0.233365
0.232122
0.233888
0.240185
0.247614
0.248484
0.249573
0.254267
0.258468
0.262264
0.265806
0.269012
0.268865
0.273042
0.27729
0.27873
0.279985
0.279825
0.279784
0.282723
0.283792
0.284819
0.285786
0.286772
0.289937
0.288438
0.289553
0.29541
0.296548
0.297728
0.298935
0.297699
0.298975
0.30285
0.306335
0.307192
0.305915
0.307328
0.310721
0.312209
0.310941
0.309722
0.311261
0.314711
0.316351
0.315164
0.314002
0.312837
0.316287
0.319675
0.318555
0.317434
0.320859
0.322777
0.321705
0.32068
0.319652
0.318678
0.320781
0.324229
0.323312
0.322386
0.322746
0.321878
0.320995
0.32132
0.323657
0.321736
0.31671
0.319173
0.322704
0.322024
0.318167
0.317552
0.320116
0.319551
0.318071
0.317546
0.31705
0.312491
0.307958
0.307551
0.307182
0.306033
0.304947
0.30393
0.299673
0.29546
0.29525
0.291806
0.284373
0.279683
0.27498
0.27432
0.273638
0.265824
0.258588
0.25136
0.24701
0.23977
0.228789
0.224382
0.220541
0.209506
0.220699
0.258845
0.275374
0.277401
0.276024
0.27438
0.2693
0.259643
0.263205
0.261606
0.257791
0.25735
0.258953
0.258898
0.256739
0.255257
0.254102
0.250934
0.246298
0.246956
0.24833
0.247291
0.246918
0.245671
0.24206
0.24402
0.246093
0.243882
0.24263
0.245242
0.248006
0.251173
0.25105
0.247755
0.24804
0.252612
0.257492
0.258611
0.259929
0.261468
0.263206
0.26514
0.267253
0.269547
0.271995
0.274593
0.275797
0.277069
0.279992
0.281376
0.282839
0.286029
0.289321
0.290932
0.292612
0.296106
0.297841
0.299631
0.301421
0.303266
0.305103
0.30699
0.310785
0.312688
0.314632
0.313829
0.315794
0.317742
0.316972
0.318922
0.318946
0.320922
0.322864
0.322111
0.319355
0.319368
0.323243
0.322429
0.321605
0.321529
0.32149
0.320618
0.319727
0.319601
0.316775
0.315821
0.315683
0.314716
0.310942
0.307991
0.305059
0.301221
0.297336
0.294341
0.295995
0.29484
0.289008
0.283178
0.280134
0.278931
0.273055
0.264401
0.26027
0.257241
0.25132
0.245407
0.239507
0.235416
0.228478
0.219647
0.209187
0.200392
0.196245
0.190313
0.181583
0.170026
0.161203
0.152576
0.141912
0.131547
0.122802
0.111388
0.104383
0.11242
0.191356
0.23064
0.250437
0.260964
0.264319
0.263084
0.257387
)
;
    }
    Shaft
    {
        type            calculated;
        value           nonuniform List<scalar> 
18
(
12.2052
12.1534
12.1161
12.0936
12.0861
12.0936
12.1161
12.1534
12.2052
12.2052
12.1534
12.1161
12.0936
12.0861
12.0936
12.1161
12.1534
12.2052
)
;
    }
    Inlet
    {
        type            calculated;
        value           uniform 0;
    }
    Lat-Wall
    {
        type            calculated;
        value           nonuniform List<scalar> 
168
(
557.72
631.153
511.031
660.043
599.535
677.842
646.939
480.263
655.839
488.491
616.126
471.095
576.682
710.667
500.387
622.521
488.357
509.913
662.681
641.707
617.289
429.415
471.005
426.865
511.031
630.124
583.032
431.248
608.881
643.093
602.933
619.346
584.553
437.42
484.69
509.913
603.559
510.986
429.638
510.45
524.447
492.695
574.938
587.639
516.8
429.638
519.17
559.196
402.626
545.109
544.527
482.454
464.968
537.327
533.302
479.905
396.634
418.592
436.391
461.972
435.854
482.722
503.339
419.486
442.115
451.283
420.604
439.611
382.278
450.836
405.623
501.103
531.692
421.32
469.887
428.207
375.033
380.221
421.32
539.295
464.61
398.78
389.121
510.986
445.514
430.533
411.034
500.477
473.42
411.213
514.206
408.887
385.319
501.371
442.25
468.635
462.285
470.648
468.948
452.133
425.434
407.635
368.236
442.071
450.881
383.307
447.035
412.51
434.736
408.932
414.746
463.045
402
432.411
384.648
321.636
451.06
379.237
452.178
440.505
421.409
423.914
396.41
420.739
439.879
426.508
448.242
470.066
426.15
428.744
407.367
369.264
418.234
360.186
416.714
377.046
372.037
440.327
349.587
340.017
404.862
418.681
226.827
228.839
370.025
317.701
391.044
417.295
422.125
377.851
353.88
355.445
368.012
329.462
320.697
335.187
330.491
270.967
317.074
292.209
330.312
292.88
323.738
368.325
314.749
252.497
266.539
268.865
)
;
    }
    Outlet
    {
        type            calculated;
        value           uniform 0;
    }
    AMI-St
    {
        type            cyclicAMI;
        value           uniform 0;
    }
    AMI-Rt
    {
        type            cyclicAMI;
        value           uniform 0;
    }
}


// ************************************************************************* //
