/*--------------------------------*- C++ -*----------------------------------*\
| =========                 |                                                 |
| \\      /  F ield         | OpenFOAM: The Open Source CFD Toolbox           |
|  \\    /   O peration     | Version:  3.0.1                                 |
|   \\  /    A nd           | Web:      www.OpenFOAM.org                      |
|    \\/     M anipulation  |                                                 |
\*---------------------------------------------------------------------------*/
FoamFile
{
    version     2.0;
    format      ascii;
    class       volScalarField;
    location    "0.297188";
    object      nut;
}
// * * * * * * * * * * * * * * * * * * * * * * * * * * * * * * * * * * * * * //

dimensions      [0 2 -1 0 0 0 0];

internalField   nonuniform List<scalar> 
21246
(
2.08604e-05
9.94698e-05
0.000154981
0.000216834
0.000268522
0.000309765
0.000354621
0.000409846
0.000471665
0.000526317
0.000552619
1.55038e-05
7.1939e-05
0.000124898
0.000186914
0.000244961
0.000295912
0.000349025
0.000397809
0.000444479
0.000477563
0.000481569
1.33234e-05
6.07702e-05
0.000111878
0.000169417
0.000226274
0.000278598
0.000330726
0.000381078
0.000419165
0.000438072
0.000424117
1.26613e-05
5.90401e-05
0.000108401
0.000161611
0.000215526
0.000266727
0.000316282
0.000363552
0.000397999
0.000409919
0.000391337
1.27901e-05
5.90935e-05
0.000108236
0.000159363
0.000211388
0.000260994
0.000307848
0.000350375
0.000381147
0.000390248
0.000372787
1.30148e-05
5.924e-05
0.000110135
0.000160536
0.000211856
0.000260332
0.000303994
0.000340892
0.000367217
0.000376135
0.000361695
1.3253e-05
5.9537e-05
0.00011296
0.000164348
0.000215651
0.000262639
0.00030233
0.000333567
0.000355862
0.000365421
0.000354773
1.35996e-05
6.07167e-05
0.000116244
0.000169357
0.000220862
0.000265601
0.000301244
0.000327955
0.000347601
0.000358222
0.000351291
1.39163e-05
6.18977e-05
0.000119673
0.000174579
0.000225631
0.000268144
0.000300686
0.000324517
0.000342839
0.000354794
0.000351442
1.41484e-05
6.30595e-05
0.000123053
0.000178899
0.000229434
0.000270519
0.000301225
0.000323511
0.00034134
0.000354747
0.000354497
1.43573e-05
6.40273e-05
0.000125884
0.000182588
0.00023299
0.000273483
0.000303342
0.000324915
0.000342682
0.000357418
0.00035949
1.45241e-05
6.55007e-05
0.000128925
0.00018647
0.000237036
0.000277428
0.00030704
0.000328403
0.000346347
0.00036227
0.000366399
1.45902e-05
6.6851e-05
0.000131625
0.000190087
0.000241095
0.000281767
0.000311574
0.000333113
0.000351445
0.000368468
0.000374468
1.45523e-05
6.72398e-05
0.000133055
0.000192592
0.000244393
0.000285756
0.000316183
0.000338242
0.000357121
0.000375202
0.000382849
1.43817e-05
6.74824e-05
0.00013391
0.00019436
0.000247067
0.000289377
0.000320765
0.000343653
0.0003632
0.000382219
0.0003916
1.40638e-05
6.71275e-05
0.000133685
0.000194883
0.000248586
0.000292127
0.000324845
0.000348829
0.000369037
0.000388741
0.000399649
1.36074e-05
6.546e-05
0.000131433
0.00019319
0.000248072
0.000293226
0.000327706
0.000353016
0.000373671
0.000393472
0.000405986
1.29342e-05
6.27798e-05
0.000127253
0.000189039
0.000245057
0.000292131
0.000328775
0.000355547
0.000376147
0.000394945
0.000408123
1.20302e-05
5.8837e-05
0.000120636
0.00018163
0.000238539
0.000287717
0.000326855
0.00035514
0.000374949
0.000391042
0.000402727
1.08755e-05
5.34072e-05
0.000111028
0.000169893
0.000226854
0.000277827
0.000319561
0.000349496
0.00036806
0.000379782
0.00038739
9.42157e-06
4.60524e-05
9.78467e-05
0.000151897
0.00020611
0.000257135
0.000301226
0.000333776
0.000352365
0.000359852
0.000361226
7.71634e-06
4.00892e-05
8.09819e-05
0.000120411
0.000163672
0.000210799
0.0002578
0.000296814
0.000321133
0.000329688
0.00032667
5.68754e-06
1.82167e-05
3.09416e-05
5.03738e-05
7.62961e-05
0.000113694
0.000164717
0.000216679
0.000258551
0.000281641
0.000285442
8.64566e-06
2.15004e-05
4.43317e-05
7.55608e-05
0.00010088
0.00010819
0.000103634
0.000119832
0.000159572
0.000200972
0.000225589
1.96871e-05
0.000114356
0.000183731
0.000231745
0.000260629
0.000289298
0.000339708
0.000411552
0.000495287
0.00057975
0.000634603
1.25771e-05
6.84494e-05
0.000141894
0.000201572
0.000236265
0.000256992
0.000302638
0.000391683
0.000501904
0.000624836
0.000723783
1.20093e-05
4.60634e-05
0.000113969
0.000184655
0.000229965
0.000237161
0.000241709
0.000319063
0.000456454
0.000633613
0.000807024
1.36482e-05
4.67386e-05
0.000110982
0.00018803
0.00025069
0.000272608
0.000242832
0.000222554
0.000292703
0.000496733
0.000787101
1.58539e-05
5.46294e-05
0.00012291
0.000205012
0.00028172
0.000328843
0.000317063
0.000258907
0.000231583
0.000300016
0.000590806
1.81438e-05
6.57837e-05
0.000141818
0.000228413
0.000313305
0.000380916
0.000400755
0.00034456
0.000268888
0.000240059
0.000356182
2.03948e-05
7.88241e-05
0.000163943
0.000253585
0.000340713
0.000419616
0.000467533
0.000438815
0.000347901
0.000264344
0.000257894
2.26266e-05
9.27298e-05
0.000187091
0.000278158
0.000362563
0.000442855
0.000508771
0.00052241
0.000440408
0.000325863
0.000254304
2.46843e-05
0.000107512
0.000210724
0.000301732
0.000380001
0.000453147
0.000523569
0.000568069
0.000520303
0.000399702
0.000287191
2.65189e-05
0.000122956
0.000233746
0.000323407
0.000393917
0.000454742
0.000518414
0.000579479
0.000573727
0.000467234
0.00033415
2.8097e-05
0.000137596
0.000254673
0.000342435
0.000404769
0.000451807
0.000502873
0.000568262
0.000601103
0.000518859
0.000380044
2.95163e-05
0.000150435
0.000273806
0.000357893
0.000412038
0.000446661
0.000484353
0.000544004
0.000602183
0.000552437
0.000416208
3.07039e-05
0.000162099
0.00028913
0.00036976
0.000415876
0.000440512
0.000466814
0.000512335
0.000572401
0.000571409
0.00043846
3.15967e-05
0.000173238
0.000302901
0.000379281
0.000417015
0.00043197
0.000447908
0.000479957
0.000523709
0.000545805
0.000453961
3.21114e-05
0.000183433
0.000315222
0.000387119
0.000416346
0.000421447
0.00042639
0.000444739
0.000472259
0.00049034
0.00045753
3.2246e-05
0.00019321
0.000327084
0.000394547
0.000415355
0.000410766
0.000404844
0.000410843
0.000426316
0.000440654
0.000434376
3.19748e-05
0.000202736
0.000339383
0.000403193
0.000416247
0.000402752
0.000386685
0.000381233
0.000385002
0.000390544
0.000388958
3.12049e-05
0.000212209
0.000353574
0.000416101
0.000423355
0.000402435
0.000377501
0.000361666
0.000355234
0.000353365
0.000348234
2.98224e-05
0.000223346
0.000372479
0.000438042
0.000443566
0.00041791
0.000387229
0.000366236
0.000356376
0.00035218
0.000347326
2.67553e-05
0.000220939
0.000368519
0.000439707
0.00045161
0.000426289
0.000390683
0.000365032
0.000354871
0.000356448
0.000363087
2.20743e-05
0.000197328
0.000340428
0.000421093
0.000445375
0.000425934
0.000384929
0.000344625
0.000315262
0.000293591
0.000274206
1.71058e-05
0.000160339
0.000290799
0.000378776
0.000417215
0.000411063
0.00037546
0.000327808
0.000276023
0.00022182
0.000169965
1.20212e-05
0.000108972
0.000225592
0.000313825
0.000361743
0.000365155
0.000336654
0.000289004
0.000226349
0.000169572
0.000139358
7.55541e-06
8.48835e-05
0.000160729
0.000237012
0.000271108
0.000271644
0.000244431
0.000194624
0.000155545
0.000143527
0.000146186
5.5202e-05
0.000269146
0.000315784
0.000346455
0.000387697
0.000428758
0.000456074
0.000458332
0.000426081
0.000369465
0.00031947
3.42407e-05
0.000227109
0.000322102
0.000362522
0.000399624
0.000437909
0.000461853
0.000462308
0.000429696
0.000372114
0.000318788
3.04386e-05
0.000175263
0.000291635
0.000372529
0.000416537
0.000444438
0.000458511
0.000457183
0.000433541
0.000379971
0.000322472
3.07815e-05
0.000153128
0.000264443
0.000357128
0.000410254
0.000443474
0.000461885
0.000464768
0.000443712
0.000391511
0.000331866
3.2164e-05
0.000137476
0.00024276
0.000334851
0.000391105
0.000433063
0.000460851
0.000470783
0.000452671
0.000400711
0.00033823
3.35897e-05
0.000125242
0.000224811
0.000312186
0.000368683
0.000416447
0.000452478
0.000470214
0.000456887
0.000407198
0.000345251
3.50422e-05
0.000115678
0.000209689
0.000290985
0.000346892
0.000397488
0.000439279
0.000464021
0.000456358
0.000410153
0.000349095
3.65544e-05
0.000108257
0.000197058
0.000272704
0.000327208
0.000378627
0.000424022
0.000454177
0.000451831
0.000410194
0.000354003
3.79086e-05
0.000102147
0.000186355
0.00025731
0.00031014
0.000361397
0.00040889
0.000443117
0.000445827
0.000409344
0.000357063
3.90217e-05
9.65519e-05
0.00017686
0.000244263
0.000295543
0.000346262
0.000395028
0.00043246
0.000439627
0.00040767
0.00035783
4.00185e-05
9.14038e-05
0.000168286
0.000233
0.000282966
0.000333053
0.000382623
0.00042264
0.000433564
0.000405354
0.000359017
4.08293e-05
8.68803e-05
0.000160618
0.000223159
0.000272018
0.000321487
0.000371607
0.000413821
0.000428062
0.000403191
0.000359649
4.13368e-05
8.26052e-05
0.000153533
0.000214469
0.000262506
0.000311486
0.000362038
0.000406233
0.000423509
0.000401542
0.000360061
4.16302e-05
7.82042e-05
0.000146582
0.000206596
0.000254207
0.00030292
0.000353864
0.000399938
0.00042008
0.000400569
0.000360992
4.15154e-05
7.33741e-05
0.000139347
0.000199131
0.000246666
0.000295322
0.000346614
0.000394525
0.00041761
0.000400435
0.000362546
4.09519e-05
6.79443e-05
0.00012991
0.000188859
0.000235778
0.000283293
0.000333806
0.000383587
0.00041172
0.000399626
0.000365032
4.00022e-05
6.12864e-05
0.000117001
0.000174076
0.000219258
0.000263034
0.00030891
0.000357027
0.000390936
0.000390177
0.000364724
3.8461e-05
5.45292e-05
0.000102181
0.000155507
0.000197988
0.000236315
0.000274269
0.000315564
0.000351786
0.000365641
0.000357023
3.62997e-05
4.77381e-05
8.60894e-05
0.000133308
0.000172197
0.000204591
0.000233315
0.000263495
0.000294535
0.000318317
0.000330757
3.34817e-05
4.09918e-05
6.97131e-05
0.000108467
0.00014246
0.000169238
0.000189704
0.000208083
0.000227551
0.000248645
0.000272663
2.99364e-05
3.43659e-05
5.4205e-05
8.30721e-05
0.000110544
0.000132033
0.000146502
0.000156135
0.000164083
0.000173614
0.000189777
2.55944e-05
2.79365e-05
4.06116e-05
5.98673e-05
7.96607e-05
9.57776e-05
0.000106204
0.000111291
0.00011277
0.000113089
0.000115777
2.03652e-05
2.14222e-05
2.89437e-05
4.03414e-05
5.27346e-05
6.35029e-05
7.08787e-05
7.4307e-05
7.42388e-05
7.18209e-05
6.87555e-05
1.45129e-05
2.03732e-05
2.43815e-05
2.97605e-05
3.54675e-05
4.05596e-05
4.42907e-05
4.62036e-05
4.61705e-05
4.44109e-05
4.14831e-05
5.33403e-05
0.000264983
0.000292555
0.000379918
0.00042279
0.000454362
0.000480966
0.00047988
0.000441261
0.0003782
0.000324179
4.00754e-05
0.000177379
0.000182331
0.000261329
0.000396831
0.000456691
0.000494088
0.000500684
0.000467148
0.000400873
0.000340249
3.82315e-05
0.000134493
0.000157566
0.000214968
0.000354963
0.000460204
0.000514564
0.000526367
0.000496539
0.000428308
0.000358374
3.94313e-05
0.000115342
0.000146425
0.000197917
0.000336485
0.000465134
0.000537429
0.000555688
0.000526122
0.000453457
0.000374318
4.09384e-05
0.000109564
0.000140385
0.000189731
0.000325912
0.00046606
0.000554028
0.000581553
0.000551551
0.000471062
0.000381406
4.19168e-05
0.000110404
0.000137137
0.000184638
0.000316461
0.000461888
0.000561755
0.000599046
0.000568571
0.000475577
0.000367197
4.25239e-05
0.000114512
0.000135701
0.000180539
0.000307758
0.000454123
0.000561998
0.000607398
0.000576326
0.000469457
0.000341546
4.3096e-05
0.000120512
0.000135747
0.000177415
0.000299635
0.000444417
0.000557093
0.000608193
0.000575778
0.000455123
0.000311366
4.34968e-05
0.00012717
0.000136732
0.000174539
0.000289838
0.000433091
0.000548999
0.000603941
0.000569488
0.000435223
0.000276905
4.37166e-05
0.000133792
0.000138277
0.000171394
0.000277603
0.000415114
0.000531891
0.000590148
0.000556497
0.000412976
0.000246931
4.36662e-05
0.000139285
0.000140019
0.000167223
0.000261806
0.000390226
0.000503985
0.000560871
0.000525458
0.000382415
0.000224002
4.34123e-05
0.000144328
0.000142049
0.000162757
0.000244473
0.00036103
0.000468254
0.000520871
0.000483507
0.000349418
0.000206288
4.28399e-05
0.000148691
0.000144164
0.000158057
0.000226014
0.00032845
0.000426281
0.000473444
0.000436266
0.000317217
0.000193023
4.1911e-05
0.000151429
0.000146143
0.000153149
0.000206684
0.000293139
0.000379286
0.000421036
0.000387356
0.000286755
0.000182791
4.05538e-05
0.00015286
0.000148017
0.000148677
0.000188173
0.000257727
0.000330285
0.000366643
0.000339171
0.000257989
0.00017349
3.87281e-05
0.00015256
0.000149625
0.000144861
0.000171159
0.000223717
0.000281526
0.000312234
0.000292369
0.00023021
0.000163262
3.64033e-05
0.000149967
0.000150671
0.000141899
0.00015632
0.000192694
0.000235404
0.000259775
0.000247098
0.000202311
0.000150966
3.34836e-05
0.000144887
0.00015074
0.000139921
0.000144394
0.000166259
0.000194496
0.00021166
0.000204068
0.000173633
0.00013577
2.99346e-05
0.000136949
0.000149117
0.000138731
0.000135834
0.000145614
0.000160948
0.000170386
0.000164947
0.000144783
0.000117973
2.57968e-05
0.000126286
0.000144859
0.000137729
0.000130766
0.000131518
0.000136245
0.000138174
0.000132214
0.000118008
9.90855e-05
2.0826e-05
0.000109922
0.000136666
0.000135753
0.000128712
0.000124076
0.000121022
0.00011649
0.000108343
9.64878e-05
8.21443e-05
1.68948e-05
0.000107784
0.000129108
0.000131254
0.000125653
0.000118506
0.00011077
0.00010201
9.19358e-05
8.07335e-05
6.70909e-05
1.22476e-05
7.52702e-05
9.40315e-05
8.86583e-05
7.86951e-05
6.89532e-05
5.99351e-05
5.14168e-05
4.33407e-05
3.58323e-05
2.96706e-05
9.8449e-06
1.11045e-05
1.13817e-05
1.18958e-05
1.27673e-05
1.38345e-05
1.4952e-05
1.59557e-05
1.66874e-05
1.7025e-05
1.6909e-05
3.75744e-05
0.000149212
0.000156785
0.000176724
0.000177199
0.000159381
0.000128816
0.00010494
8.95974e-05
7.80301e-05
6.75063e-05
3.09828e-05
0.000115277
0.000109603
0.000149533
0.000180885
0.000168593
0.000133125
0.000102848
8.41722e-05
7.09855e-05
5.98194e-05
2.9919e-05
9.10197e-05
9.66935e-05
0.000118316
0.000159644
0.000175755
0.000141173
0.000104488
8.18088e-05
6.6735e-05
5.46129e-05
3.06926e-05
7.76617e-05
9.0953e-05
0.000106036
0.000139983
0.000178815
0.000150449
0.000108696
8.19593e-05
6.517e-05
5.27778e-05
3.15017e-05
7.17272e-05
8.71431e-05
9.87878e-05
0.000127303
0.000171594
0.000159077
0.000114563
8.39865e-05
6.55429e-05
5.30268e-05
3.16755e-05
6.94987e-05
8.43157e-05
9.33187e-05
0.00011629
0.000156881
0.000163216
0.00012154
8.73805e-05
6.72041e-05
5.42948e-05
3.13623e-05
6.95758e-05
8.26008e-05
8.93465e-05
0.000106793
0.000139711
0.000157678
0.000128748
9.18569e-05
6.97785e-05
5.62126e-05
3.07237e-05
7.16004e-05
8.23452e-05
8.69853e-05
9.95434e-05
0.000124523
0.000145853
0.000132008
9.77978e-05
7.34282e-05
5.87193e-05
2.97412e-05
7.46703e-05
8.35107e-05
8.59595e-05
9.41224e-05
0.00011198
0.000131503
0.000129713
0.00010339
7.79791e-05
6.1944e-05
2.84551e-05
7.82681e-05
8.59878e-05
8.6088e-05
9.00701e-05
0.000101591
0.000116731
0.000121746
0.000106678
8.31107e-05
6.57688e-05
2.70725e-05
8.2707e-05
9.00272e-05
8.76397e-05
8.76562e-05
9.37624e-05
0.00010386
0.000110504
0.000105681
8.7957e-05
7.01791e-05
2.57635e-05
8.86294e-05
9.60659e-05
9.09387e-05
8.71089e-05
8.86454e-05
9.41171e-05
9.92725e-05
0.00010029
9.09437e-05
7.49664e-05
2.4718e-05
9.59564e-05
0.000104325
9.62492e-05
8.84118e-05
8.5757e-05
8.7119e-05
8.95798e-05
9.21099e-05
9.03667e-05
7.93344e-05
2.4134e-05
0.000104315
0.000114994
0.000104056
9.18311e-05
8.49364e-05
8.24923e-05
8.19687e-05
8.32952e-05
8.56298e-05
8.16883e-05
2.41896e-05
0.000115357
0.000129038
0.000115191
9.7958e-05
8.64784e-05
8.03122e-05
7.68582e-05
7.58291e-05
7.83367e-05
8.02713e-05
2.47932e-05
0.000128973
0.000147067
0.000130891
0.000107812
9.08856e-05
8.0625e-05
7.41746e-05
7.05026e-05
7.08868e-05
7.48167e-05
2.50965e-05
0.000142578
0.000168334
0.000152502
0.000123211
9.94278e-05
8.40558e-05
7.41222e-05
6.76485e-05
6.50881e-05
6.74193e-05
2.45626e-05
0.000154062
0.000190624
0.00018022
0.000146337
0.000114327
9.21849e-05
7.76625e-05
6.78868e-05
6.21241e-05
6.11067e-05
2.31905e-05
0.000160723
0.000210023
0.000211169
0.000178495
0.000138813
0.000108072
8.70746e-05
7.27452e-05
6.32295e-05
5.82875e-05
2.10847e-05
0.000161055
0.000222904
0.000239588
0.000217707
0.00017611
0.000136855
0.000107211
8.60698e-05
7.12701e-05
6.16233e-05
1.84013e-05
0.000152166
0.000226952
0.00026055
0.000258244
0.000226841
0.00018504
0.000146748
0.00011625
9.33601e-05
7.69333e-05
1.60381e-05
0.000138338
0.000220734
0.000269241
0.000288144
0.00027886
0.000249223
0.000211198
0.000173956
0.000142117
0.000116564
1.23915e-05
0.000109457
0.000163182
0.000209108
0.000240059
0.000259406
0.000264915
0.000255421
0.000234674
0.000209327
0.000183364
9.73807e-06
3.71044e-05
5.49639e-05
7.80707e-05
0.000104036
0.0001326
0.000161754
0.000184591
0.00019869
0.000204229
0.00020152
3.18838e-05
0.000140062
0.000156341
0.000166305
0.000170663
0.000157247
0.000132543
0.000112345
9.89712e-05
8.89972e-05
7.99944e-05
2.10634e-05
0.000112345
0.000153557
0.000175501
0.000180965
0.000169744
0.0001461
0.000124803
0.000110791
0.000101095
9.29988e-05
2.07884e-05
9.59645e-05
0.000145607
0.000193753
0.000204511
0.000192827
0.000166341
0.000140509
0.000123794
0.00011327
0.000105378
2.28366e-05
8.74406e-05
0.000138046
0.000202121
0.000224842
0.000219599
0.000194089
0.000163855
0.000142452
0.000129558
0.00012118
2.55325e-05
8.10654e-05
0.000134816
0.000202344
0.000228488
0.000228157
0.000206072
0.000177434
0.000155751
0.000142577
0.000134239
2.81397e-05
7.64023e-05
0.000132639
0.000198809
0.000227502
0.00023223
0.000213206
0.000185752
0.000164305
0.000151214
0.00014341
3.05368e-05
7.30063e-05
0.000130712
0.000194167
0.0002244
0.000233155
0.000217344
0.000192086
0.000171678
0.000159428
0.000152842
3.27726e-05
7.0533e-05
0.000128916
0.00018968
0.000221082
0.000233089
0.000220096
0.000197219
0.000178241
0.00016717
0.000162071
3.46777e-05
6.86505e-05
0.000127146
0.000185715
0.000218462
0.000232929
0.000222514
0.000201703
0.00018395
0.000173967
0.000170221
3.62388e-05
6.70051e-05
0.000125488
0.000182372
0.000216786
0.00023308
0.000224988
0.000205785
0.000188902
0.000179676
0.000176959
3.74383e-05
6.53648e-05
0.00012364
0.000179646
0.000215721
0.000233806
0.000227788
0.000209678
0.000193135
0.000184088
0.000181399
3.83752e-05
6.36992e-05
0.00012161
0.000177293
0.000215029
0.000235062
0.000231023
0.000213615
0.000196907
0.000187564
0.000184635
3.89713e-05
6.18359e-05
0.000119251
0.000175031
0.000214534
0.000236825
0.000234876
0.000217942
0.000200597
0.000190488
0.000186927
3.91726e-05
5.83793e-05
0.000114678
0.000170962
0.000212706
0.000238105
0.000239253
0.000223076
0.000204732
0.000193459
0.000188934
3.88903e-05
5.4289e-05
0.000107282
0.00016298
0.000205762
0.000233756
0.000239582
0.000227227
0.000209647
0.000197393
0.000191714
3.80914e-05
4.97128e-05
9.72514e-05
0.000150928
0.000193782
0.000223416
0.000234426
0.000228513
0.000214565
0.000202595
0.000196038
3.67652e-05
4.48197e-05
8.50352e-05
0.000134722
0.000176694
0.000207019
0.000222537
0.000224159
0.000217006
0.000208164
0.000202149
3.48299e-05
3.99582e-05
7.18803e-05
0.000115276
0.000154921
0.000184996
0.000203559
0.00021167
0.000212705
0.000210525
0.000208316
3.22358e-05
3.52159e-05
5.89047e-05
9.40621e-05
0.000129327
0.000157947
0.000177908
0.000190176
0.000197726
0.00020329
0.000208449
2.89473e-05
3.05082e-05
4.68469e-05
7.28539e-05
0.000101533
0.000126929
0.000146537
0.000160595
0.000171405
0.000181701
0.000193381
2.49192e-05
2.56973e-05
3.60916e-05
5.33877e-05
7.40405e-05
9.41276e-05
0.000111292
0.000124996
0.000136364
0.000147456
0.000160502
2.0162e-05
2.06104e-05
2.66719e-05
3.6776e-05
4.94722e-05
6.28751e-05
7.54983e-05
8.66397e-05
9.65024e-05
0.000106058
0.000116838
1.471e-05
1.47322e-05
1.77708e-05
2.26674e-05
2.89316e-05
3.5923e-05
4.30388e-05
4.99054e-05
5.64553e-05
6.29829e-05
7.01764e-05
8.88377e-06
9.42631e-06
1.16295e-05
1.44723e-05
1.78519e-05
2.16258e-05
2.55744e-05
3.12131e-05
3.91771e-05
5.02376e-05
6.47988e-05
6.8038e-06
7.96571e-06
1.16978e-05
1.3194e-05
1.38925e-05
1.42647e-05
1.44982e-05
1.47912e-05
1.47897e-05
2.59429e-05
2.40494e-05
2.72404e-05
4.07719e-05
6.04434e-05
7.93644e-05
9.38355e-05
0.000111203
0.000117959
3.82732e-05
3.75571e-05
4.95838e-05
7.68146e-05
0.000110304
0.000135576
0.0001593
0.000190997
0.000208354
5.08938e-05
5.0375e-05
6.80479e-05
0.000104026
0.000147983
0.000182252
0.000213872
0.000257751
0.000283237
6.33625e-06
5.71139e-06
9.27338e-06
1.2354e-05
1.38047e-05
1.44418e-05
1.46972e-05
1.48271e-05
1.4846e-05
2.79961e-05
2.06134e-05
1.9908e-05
2.44735e-05
3.45314e-05
5.17756e-05
7.37605e-05
9.08985e-05
0.000106553
4.11969e-05
3.13277e-05
3.28238e-05
4.42849e-05
6.63309e-05
9.94157e-05
0.000135361
0.000167088
0.000194183
5.68632e-05
4.46884e-05
4.59201e-05
6.10362e-05
9.07268e-05
0.000137235
0.000188385
0.000234178
0.000269614
0.000195834
0.0002297
0.000229746
0.000308301
0.00037162
0.000229355
0.000101401
0.000229455
0.000229345
0.000233207
0.000374251
0.000229488
0.00017066
0.000221485
0.00012392
0.00022869
0.0002204
0.000299676
0.000228679
0.000228633
0.000229595
2.88813e-05
0.000229955
0.000104227
0.000229349
0.00022204
0.000174686
9.98713e-05
0.000325574
0.000392441
0.000220597
0.000235328
0.000186722
0.000229441
0.000240373
0.000229661
0.000104003
0.000229332
0.000164785
0.000229372
1.68529e-05
0.000229473
0.000101466
0.000229928
0.000460514
5.75972e-05
7.03407e-05
0.000115033
0.000239354
0.000229072
0.00036227
0.000229387
0.00013729
0.000103085
0.000229031
0.000229397
2.84778e-05
0.000229413
0.000319
0.000133664
2.37562e-05
0.000125209
0.000446248
0.00044774
2.40959e-05
0.000228605
0.000247063
0.000230598
0.000229697
0.000232693
0.000186463
0.000232082
0.000114076
0.000237819
0.000327567
0.000230872
2.31503e-05
0.000229674
0.000180116
0.000470986
0.000158859
0.000407736
0.000229297
0.000229786
0.000247034
0.000115126
0.000343992
0.000102108
6.29114e-05
0.00011309
0.000229502
0.000229444
1.83996e-05
0.000231578
0.000461765
0.000161457
0.000271849
0.000236639
5.13057e-05
0.000234021
0.000251126
0.000111979
0.000229654
0.000235604
7.70115e-05
0.000229494
0.000196044
0.000229865
0.000181321
0.000235575
0.000229425
0.000229518
0.00023018
0.0002429
0.000128645
0.000229022
0.000229291
0.000228795
0.000229375
0.000228979
0.000190893
0.000237574
0.000246051
0.00021785
5.09936e-05
0.000208489
0.000201066
0.000187672
0.000218137
0.000206539
0.000229423
0.000137446
0.000111847
0.000231176
0.000229742
0.000231881
2.17432e-05
0.000309327
0.000403963
0.000244059
9.57337e-05
0.000231324
0.000257277
0.0001675
0.000229237
4.80594e-05
0.000116679
0.000230285
0.000234491
0.000229197
0.000229058
0.000229323
4.40769e-05
0.000235815
0.000309545
7.12402e-05
0.000120197
2.87717e-05
0.000170308
0.000228746
0.000214378
4.27412e-05
0.000231643
0.00022908
0.000276629
0.000170811
0.00010372
0.000248537
0.0002385
2.32621e-05
0.000212013
0.000165227
0.000239297
0.00022942
0.000234637
0.000219628
0.00016212
4.10075e-05
0.000452773
0.000198941
0.00022992
2.52878e-05
0.000229934
0.000131076
0.000229321
0.000434198
0.000229508
0.00022876
0.000229656
0.000196951
0.000188671
0.000221616
0.000228536
1.60476e-05
0.000229725
0.000228898
0.000229263
4.8233e-05
0.000203437
0.00023
4.41011e-05
0.000229187
0.000203878
0.000219123
0.000229794
0.000101036
0.000231201
0.000218407
0.000229131
0.000228684
0.000111308
0.000228991
0.000174779
0.000238318
0.00022936
0.00017506
0.000229377
6.91106e-05
0.000229299
0.000127846
0.000143906
0.000187706
0.000281183
0.000128073
0.000215184
0.000229428
0.00010395
0.000172358
0.000192949
0.000452996
3.03925e-05
0.000228515
0.000229178
0.000238194
4.31922e-05
0.000278025
0.000163414
0.000229877
0.000229523
0.000229495
6.99467e-05
0.000466422
0.000235669
1.52015e-05
0.000234371
3.85884e-05
0.000229387
0.000212148
0.000201728
0.000226909
0.000213293
0.000111534
0.000243737
0.000228668
0.000233348
0.000229286
0.000229433
0.000229263
7.27817e-05
0.000229708
0.000129556
0.000196905
0.000228165
0.000229578
0.000229417
7.25263e-05
0.000231773
0.000235804
0.000159247
0.000177291
0.000184357
0.000228912
0.000229212
7.03917e-05
0.000229006
0.000228821
0.000218024
0.000229168
0.000238082
6.51721e-05
0.000233087
0.000229667
0.000156304
0.000148829
0.000232971
0.000228955
0.000273734
0.00022962
0.000237657
8.69793e-05
0.00022974
0.000108316
0.000251578
0.000121448
0.000230005
0.000229171
0.000238125
0.000229549
0.000239941
0.000216114
0.000229391
0.000108729
0.000242061
0.00040205
0.000229373
0.000235596
0.000229668
0.000124982
2.46995e-05
0.00022899
6.1196e-05
0.000229538
0.00023368
0.00019293
2.76375e-05
0.000231376
0.000208511
0.000107477
0.000228641
0.000233441
0.000229355
0.000146751
0.00022889
0.000186621
0.000279293
0.000237281
0.000229237
0.000222691
0.000228215
0.000292102
0.000233564
0.000448488
2.07572e-05
0.000229904
0.000148852
0.000269272
0.000122276
0.000229626
0.00022922
0.000238292
5.07889e-05
0.00011178
0.000229227
0.000161959
0.000178041
0.000124353
0.000137329
0.000228994
0.000103684
0.000222251
6.46514e-05
0.000235947
0.000177408
0.0002294
0.000110079
0.000230036
0.000139396
0.000206321
0.000229928
0.000295449
0.000134806
0.000220598
0.000229408
0.000229351
0.000229378
8.31399e-05
0.000174227
7.58312e-05
7.29886e-05
0.000248318
0.000229157
0.000103749
0.000247512
0.00021524
0.000117802
0.000229713
0.000151343
0.00024028
0.000228917
0.000229096
0.000122903
0.000228848
4.90586e-05
0.000229412
0.000222346
0.000229774
0.000118128
0.000213424
0.000456837
5.57754e-05
0.00022933
4.756e-05
0.000202154
0.000246772
0.000219324
2.41311e-05
0.000229339
0.000228879
0.000229772
0.00010639
7.29567e-05
0.000228967
0.00022996
8.55851e-05
0.000187599
2.27073e-05
0.000113449
0.000141334
0.000229172
0.000148243
0.00024153
0.00022865
0.000211789
0.000213149
5.47738e-05
0.000233525
0.000189958
0.000242296
0.000195218
5.0602e-05
0.000252893
0.000157151
9.78471e-05
0.000183476
0.000226598
0.000234894
0.000236285
7.60255e-05
0.000197488
3.3016e-05
0.000229296
4.93096e-05
0.000213875
0.000228475
0.00022831
0.000102538
0.000164149
0.000370668
0.000218129
0.000230035
0.000235219
0.000331861
0.000287934
0.000114495
0.0002337
7.41155e-05
0.000124357
2.65266e-05
0.00022871
3.07408e-05
0.000229337
0.000229734
0.000229327
5.02213e-05
9.67088e-05
7.04971e-05
0.000212054
3.95847e-05
8.384e-05
0.000229648
0.000228713
0.00020577
0.000193691
0.000233362
0.000239567
4.09181e-05
4.52042e-05
2.96836e-05
2.93526e-05
0.000233243
0.000210971
7.85858e-05
0.000229515
2.43139e-05
0.000236541
0.000229605
0.000228913
8.05638e-05
2.7954e-05
0.000229313
0.000229166
0.000229648
0.000499307
2.43941e-05
0.000229871
5.29394e-05
0.000377884
0.00015623
8.67388e-05
0.000228687
4.62105e-05
0.000228897
0.000235872
0.00022939
0.000211449
0.000151376
0.000228565
0.000193535
0.000168347
0.00023523
0.000227241
0.000222573
0.000229422
0.000229456
0.000243997
8.79911e-05
0.000108714
0.000233885
9.54585e-05
0.000229756
0.000150198
0.000108182
4.77893e-05
0.000180252
0.000250695
0.000184338
9.25247e-05
0.000194109
0.0002292
0.000180865
0.00022872
0.00022966
0.000229091
0.000229571
0.000234624
0.000119824
0.000229404
0.000228731
0.000111744
0.000229403
3.86864e-05
0.000243612
0.000127808
0.000173755
6.74645e-05
0.000229996
0.000229252
0.000229836
1.55509e-05
2.79002e-05
0.000229346
0.000229344
0.000218281
0.000229745
0.00025115
0.000229695
0.000253037
0.00023682
3.09904e-05
0.000145698
0.000137488
6.61884e-05
0.000155022
0.000229442
0.000231863
0.000234242
0.000229698
0.000104271
2.64864e-05
0.000223787
0.00021807
0.000119766
0.000126237
0.000229348
0.00022935
0.000229663
0.000127635
0.000177374
8.69841e-05
0.000229452
0.000229195
0.000147587
0.000230269
0.000140226
0.000216476
0.000131667
0.000286589
0.000229319
9.17791e-05
0.000229202
8.99039e-05
0.000229265
0.000321471
0.0001571
0.000234346
2.9153e-05
0.000152709
0.000229842
0.000229983
0.000453723
0.000228952
0.000179271
0.000435473
9.88551e-05
0.000144216
5.10672e-05
0.000197287
0.000230682
0.000229448
0.000229306
0.000162355
7.56392e-05
0.000117736
0.000228593
0.000229378
0.00010645
0.000229852
0.000232997
0.000238069
0.000232465
0.000153447
7.54131e-05
9.79554e-05
0.000159633
0.000233186
0.000236537
0.000228665
0.000107988
0.0002307
0.000229377
0.000205125
0.000111628
0.000228949
0.00022886
2.13843e-05
0.000229736
0.000228688
0.000147432
0.000229705
0.00023519
0.000144731
0.000129378
0.000157039
0.000225305
0.000167375
7.36718e-05
0.000128393
7.64536e-05
0.000120852
0.000172716
8.43913e-05
0.000116807
0.000131338
0.000229759
0.000230457
0.00026187
0.000229691
0.000229623
0.000243291
0.000213365
9.58749e-05
0.00019096
0.000185845
0.000241864
0.00022919
0.000205181
0.000229547
0.000228851
0.000236386
0.000125095
0.000231129
0.000234929
0.000231467
0.000229645
0.000463018
6.29382e-05
0.000434748
0.000231025
0.000230569
0.000189425
7.72565e-05
0.00023275
0.000171773
0.000230682
0.000355732
0.00014941
0.00022927
0.00010512
0.000229913
0.000187652
0.000491605
0.00015018
0.000168561
0.000212608
0.000245791
0.00022982
0.000104539
0.000193751
4.64753e-05
0.000204002
0.000228954
0.000233388
0.000229806
0.000158899
0.000230079
6.24225e-05
0.000229497
0.000229445
0.000228954
0.000173836
7.89277e-05
0.000229574
0.000135821
0.000229187
0.000173504
0.000169989
0.000231031
0.000456707
1.59721e-05
0.000126904
0.000236493
0.000217392
0.000187199
0.000123648
0.000200117
9.9252e-05
0.000229243
0.000192045
0.000229427
0.000233407
5.59414e-05
0.000185161
4.3843e-05
0.000221798
0.000230075
0.000235342
0.000228994
7.87901e-05
0.000229637
0.000213241
7.76312e-05
0.000257587
0.000234143
0.000137733
0.000107271
0.000149657
0.000238633
0.000172637
2.90607e-05
9.71474e-05
0.000229454
0.000220042
0.000124934
0.000229521
4.19712e-05
0.000125429
0.000236793
0.000352081
0.000229244
0.000234778
0.00023489
0.000137305
0.00023384
0.000211454
0.00022958
0.000186146
0.000233086
0.000128206
8.64362e-05
0.000110421
0.000180501
0.000228767
0.000156117
6.42453e-05
0.000229218
0.000222921
0.000186636
7.27657e-05
0.000243023
2.87275e-05
0.000250165
0.000128153
0.000144533
0.000252014
0.000228856
0.000247133
0.000229156
0.000160158
2.19122e-05
0.000230047
0.000229382
0.000251428
0.000366155
0.000133986
0.000196972
0.000229563
0.000189227
0.000252448
0.000229515
0.000229629
0.000229786
0.000229429
0.000234179
0.000167526
4.73291e-05