/*--------------------------------*- C++ -*----------------------------------*\
| =========                 |                                                 |
| \\      /  F ield         | OpenFOAM: The Open Source CFD Toolbox           |
|  \\    /   O peration     | Version:  3.0.1                                 |
|   \\  /    A nd           | Web:      www.OpenFOAM.org                      |
|    \\/     M anipulation  |                                                 |
\*---------------------------------------------------------------------------*/
FoamFile
{
    version     2.0;
    format      ascii;
    class       volScalarField;
    location    "0.0291587";
    object      epsilon;
}
// * * * * * * * * * * * * * * * * * * * * * * * * * * * * * * * * * * * * * //

dimensions      [0 2 -3 0 0 0 0];

internalField   nonuniform List<scalar> 
21246
(
2728.8
901.748
370.275
144.675
51.0244
17.0391
5.62527
1.87234
0.640992
0.234965
0.0993393
2010.26
560.081
263.859
114.224
44.7225
16.3022
5.66787
1.92018
0.651273
0.232204
0.0950967
1242.66
445.09
222.925
107.706
45.8017
17.6138
6.30676
2.15588
0.724121
0.252133
0.0998208
860.539
328.973
183.692
101.439
48.0509
19.6042
7.26516
2.53482
0.853804
0.290589
0.110519
641.234
251.083
142.331
83.9937
43.5225
19.4623
7.67588
2.75282
0.921339
0.300783
0.108109
522.08
199.161
115.422
69.4553
36.7688
17.0178
6.92289
2.54797
0.878154
0.297462
0.110777
443.145
164.825
96.0089
58.1291
31.1823
14.6368
6.08122
2.30372
0.819894
0.285721
0.107766
386.223
139.779
81.301
49.2106
26.5301
12.5484
5.28473
2.04445
0.746818
0.267564
0.106417
344.895
121.115
70.0816
42.3075
22.8288
10.8373
4.60664
1.81305
0.679422
0.251049
0.102714
314.05
107.13
61.5907
37.0948
20.0155
9.52067
4.07255
1.62436
0.621832
0.23575
0.0975061
289.571
96.2476
55.0216
33.1144
17.8838
8.52408
3.66431
1.47645
0.574359
0.221673
0.0942218
270.763
87.4385
49.7557
29.9679
16.226
7.76049
3.35355
1.36341
0.537718
0.211133
0.0916051
257.503
80.4661
45.5968
27.5307
14.974
7.1985
3.12923
1.28292
0.512357
0.204421
0.0898511
248.344
75.2351
42.4432
25.7454
14.1019
6.82724
2.98799
1.23451
0.498008
0.200875
0.0894278
243.42
71.1885
39.9828
24.4211
13.514
6.60939
2.91803
1.21545
0.49454
0.200923
0.0896471
243.025
68.252
38.173
23.5375
13.2074
6.54929
2.92436
1.22874
0.503454
0.205261
0.0914065
247.01
66.9205
37.1354
23.1398
13.2268
6.68083
3.02599
1.28321
0.528439
0.215088
0.0949092
256.979
67.5985
36.9347
23.2625
13.6496
7.09577
3.28416
1.40669
0.57901
0.233431
0.10173
274.739
70.6914
37.7576
23.9346
14.4857
7.84406
3.77217
1.65797
0.690778
0.278222
0.118319
304.023
77.1694
40.0555
25.3715
15.8486
9.01357
4.57279
2.10366
0.904577
0.371385
0.155164
352.873
88.8223
44.5551
27.9338
17.9158
10.7247
5.80482
2.85591
1.30473
0.564359
0.240136
440.118
106.935
52.1837
32.0764
20.909
13.123
7.62485
4.08685
2.04577
0.970342
0.444721
603.36
138.866
64.5833
38.8042
25.5061
16.6745
10.3962
6.12155
3.42101
1.8294
0.944874
938.808
142.384
73.1085
44.7963
31.4157
22.1339
15.1146
9.8981
6.2275
3.7845
2.23676
2817.3
1614.04
679.747
280.612
90.3763
28.5123
8.47458
2.57179
0.830862
0.291351
0.120237
3051.46
1765.2
976.154
487.314
212.717
77.8464
18.8583
4.34901
1.28404
0.421833
0.158918
1833.8
1473.91
1020.72
601.241
310.633
135.996
44.1461
9.45943
2.07998
0.625737
0.219122
718.183
1479.9
1051.51
670.649
382.287
188.443
74.0696
20.6375
4.06157
0.945173
0.317794
761.022
1293.84
1053.75
716.591
436.398
233.623
104.416
35.6932
8.68134
1.69925
0.469538
835.452
1069.07
1125.59
791.161
492.184
275.948
134.326
53.1796
15.8904
3.55921
0.809196
750.827
775.866
1072.63
884.228
562.414
321.172
164.428
72.0351
25.3035
6.81012
1.56063
683.998
592.536
896.884
977.731
662.113
378.199
196.915
91.7155
36.2163
11.4686
2.98059
634.156
499.536
732.825
990.6
776.344
452.16
234.898
112.545
48.0602
17.3143
5.19263
595.842
435.289
608.67
905.373
878.973
543.114
280.847
135.148
60.4503
23.9849
8.166
564.855
384.17
522.406
789.354
919.266
634.366
333.067
159.536
73.0673
31.0786
11.7901
539.485
342.981
453.291
680.148
890.399
704.865
383.942
183.458
85.0341
38.07
15.7974
524.439
309.956
394.273
579.81
802.564
735.067
422.423
202.97
95.0826
44.4226
19.9086
520.107
284.21
343.312
490.464
694.813
716.877
437.833
213.493
101.769
49.6333
23.909
530.78
268.983
301.694
409.261
577.913
658.457
425.188
211.958
103.985
53.3313
27.6631
559.373
264.405
271.123
339.759
454.15
561.749
388.289
197.235
101.622
55.7274
31.1566
600.384
265.665
244.739
279.617
342.97
403.2
344.307
175.368
96.2945
57.4552
34.6113
661.188
275.624
223.09
226.474
252.37
279.028
272.504
164.791
92.0814
60.0922
38.7523
760.204
301.574
212.659
188.384
191.13
204.743
210.558
163.82
96.9989
66.7998
45.0027
940.277
359.062
226.644
175.484
161.178
167.713
178.443
166.559
118.737
79.4928
54.3243
1325.69
500.72
316.269
231.831
191.711
180.965
181.183
171.455
138.403
94.7967
62.7039
2270.42
911.056
684.114
549.637
440.848
368.775
282.993
218.238
155.401
104.954
67.3993
1668.84
868.745
824.511
591.237
425.377
300.334
203.681
135.689
88.162
56.0082
34.7638
1615.01
853.381
494.072
304.274
194.056
125.514
80.9784
51.5653
32.1946
19.6572
11.7187
487.652
219.189
42.4561
10.2797
3.20152
1.61709
1.1739
1.01815
0.951581
0.914736
0.883084
690.366
391.167
63.9082
14.822
4.02527
1.80938
1.19642
0.987573
0.896157
0.842256
0.796222
774.107
404.636
94.2657
20.6724
4.68301
1.99062
1.22149
0.963808
0.84942
0.778003
0.710222
742.046
372.818
107.677
25.5924
5.11636
2.1135
1.23246
0.940517
0.809703
0.72607
0.644751
654.862
348.043
114.638
29.5151
5.8732
2.18508
1.22891
0.916158
0.775734
0.686561
0.603137
552.045
332.159
122.674
35.1835
7.68147
2.36783
1.22258
0.892262
0.746406
0.655918
0.574728
444.599
321.574
132.838
43.2816
10.8584
2.97323
1.28854
0.874384
0.720859
0.630839
0.551407
340.044
314.095
144.257
53.2623
15.5281
4.24846
1.52127
0.891236
0.703402
0.609828
0.533784
248.05
307.944
157.848
65.3736
21.9791
6.52902
2.09962
0.991294
0.702322
0.593959
0.51959
172.902
301.626
175.019
80.556
30.7795
10.2768
3.31778
1.29537
0.752027
0.588255
0.506914
119.206
301.932
196.719
98.9654
42.0456
15.7622
5.48304
1.99178
0.929888
0.616461
0.501282
105.251
323.803
227.601
121.67
55.8517
23.058
8.80985
3.2923
1.36215
0.733258
0.521394
132.961
351.986
270.991
152.955
74.1509
32.9048
13.6891
5.47955
2.23843
1.04224
0.613619
163.788
343.394
317.324
197.817
101.322
47.4491
21.0994
9.06536
3.86317
1.7232
0.873898
174.017
289.025
336.62
251.806
141.37
69.9826
32.8394
14.9912
6.75971
3.08244
1.48058
170.466
223.687
307.539
293.342
193.676
104.94
52.3615
25.2849
12.0526
5.74701
2.78948
162.856
172.992
250.04
295.952
243.873
153.426
84.1748
43.5742
22.0488
11.0776
5.5817
158.09
139.976
194.898
259.848
266.51
204.576
129.506
74.1627
40.5344
21.6997
11.5205
158.218
120.16
153.491
208.391
249.45
236.195
180.214
118.959
72.2382
41.9497
23.7828
166.515
110.756
126.476
163.856
210.444
236.684
220.234
172.797
119.907
77.0655
47.3944
203.459
117.077
117.664
139.77
178.254
219.124
236.843
218.285
174.404
125.573
85.0115
291.273
151.297
139.265
151.171
172.502
199.443
221.105
221.372
197.413
158.862
118.454
567.345
271.085
264.094
272.241
274.706
268.042
249.802
221.32
187.358
152.187
115.756
708.352
607.784
640.209
651.65
646.549
625.455
582.284
515.231
424.732
318.26
220.392
400.951
144.21
35.8991
7.66853
2.6497
1.5135
1.17684
1.05931
1.01733
1.00525
1.003
428.298
110.682
23.3024
7.6985
2.9493
1.62704
1.22873
1.10034
1.0675
1.07722
1.10913
457.834
128.594
21.9094
8.44127
3.31439
1.78467
1.27514
1.10702
1.06523
1.08203
1.1322
438.718
120.319
20.4691
8.4679
3.26381
1.76351
1.21845
1.03429
0.994516
1.02343
1.09611
403.489
100.172
18.8257
8.04926
3.13326
1.7122
1.15116
0.95329
0.898813
0.916028
0.9814
370.424
82.329
17.147
7.35747
2.90094
1.61634
1.06599
0.859849
0.78552
0.777379
0.812705
343.068
69.0166
15.5979
6.63349
2.64837
1.49794
0.969631
0.760347
0.665959
0.625943
0.614924
319.066
59.1178
14.2218
5.982
2.42323
1.37526
0.873284
0.664947
0.5575
0.497833
0.464501
301.336
51.7658
13.0812
5.45479
2.24479
1.26247
0.785791
0.579653
0.463994
0.389408
0.330989
289.566
46.5873
12.2093
5.05604
2.11222
1.1693
0.711624
0.507304
0.387394
0.305576
0.238489
284.382
43.1236
11.6217
4.80004
2.0273
1.10104
0.65313
0.44896
0.327282
0.244194
0.180253
283.388
40.7888
11.234
4.65681
1.98633
1.05808
0.610677
0.404329
0.281721
0.199676
0.138872
287.749
39.4614
11.061
4.62619
1.99433
1.04333
0.585495
0.373171
0.248821
0.168187
0.110968
295.25
41.0617
11.3914
4.77189
2.08188
1.06872
0.582699
0.356664
0.227439
0.147117
0.0936845
305.701
44.4431
12.3097
5.1277
2.28705
1.15456
0.615571
0.360678
0.220165
0.136379
0.0843429
320.076
49.881
14.0304
5.78532
2.64949
1.32906
0.70025
0.394858
0.231233
0.137448
0.0825968
339.492
58.0213
16.9148
6.92624
3.25402
1.64524
0.869221
0.479614
0.272402
0.156622
0.0914509
366.467
69.1635
21.3708
8.83032
4.25343
2.19797
1.18482
0.656741
0.370741
0.210723
0.121021
404.723
84.3253
28.05
11.969
5.94081
3.17445
1.77325
1.01457
0.588218
0.342294
0.199931
461.043
105.76
38.1905
17.1844
8.89087
4.96208
2.90534
1.74889
1.06946
0.658444
0.406836
549.267
137.963
54.0891
26.0303
14.2299
8.38041
5.18551
3.31455
2.16491
1.433
0.957328
701.413
190.473
80.7898
41.7592
24.3109
15.2163
10.0008
6.80635
4.75402
3.38451
2.44349
1006.13
301.182
136.971
75.1056
46.1289
30.4633
21.1569
15.2574
11.3326
8.62298
6.66991
1914.24
582.912
297.483
186.016
130.558
98.5686
78.2414
64.2647
54.4043
48.5981
42.8054
342.631
178.632
46.7299
15.5497
4.6647
1.28896
0.388821
0.151011
0.0816362
0.0580606
0.0485508
393.618
209.255
80.4199
29.1999
9.25028
2.18434
0.509417
0.165944
0.0803779
0.0543943
0.0447238
325.219
176.254
86.5064
36.6943
13.4834
3.81426
0.874672
0.207852
0.0845107
0.0523016
0.0409863
220.599
136.582
77.6652
37.0555
15.2758
5.01857
1.31586
0.314115
0.100188
0.0528884
0.0386121
139.986
102.102
63.9924
33.4491
15.133
5.59124
1.68006
0.445805
0.132919
0.0592123
0.0383512
90.3782
75.0389
50.607
28.5116
13.9556
5.67646
1.925
0.577588
0.178758
0.0719607
0.0408132
61.0506
54.5393
39.0308
23.4006
12.2835
5.43253
2.05104
0.693172
0.232623
0.0911878
0.0465605
43.5437
39.3384
29.5514
18.6542
10.4458
4.98625
2.07728
0.785936
0.2904
0.116522
0.0558073
33.1339
28.264
22.1596
14.6372
8.71635
4.47581
2.04901
0.863302
0.351902
0.148101
0.0689515
26.2549
20.4561
16.6417
11.4759
7.25859
4.01435
2.01703
0.941628
0.421427
0.187371
0.0869662
21.4067
15.0987
12.6413
9.08507
6.10527
3.64737
2.00909
1.03301
0.503632
0.236416
0.110421
17.9322
11.4721
9.802
7.33151
5.23654
3.38404
2.03615
1.1434
0.601205
0.296676
0.140491
15.4224
9.04983
7.84179
6.10267
4.62566
3.22523
2.10362
1.27597
0.715763
0.369353
0.177842
13.5129
7.47199
6.5273
5.27476
4.22037
3.15082
2.20343
1.42662
0.845345
0.453913
0.222185
12.0035
6.41106
5.64654
4.71537
3.94957
3.12178
2.31311
1.58191
0.98312
0.548252
0.274449
10.796
5.68417
5.05137
4.33352
3.76374
3.11333
2.41869
1.73327
1.12499
0.651553
0.335152
9.78535
5.18475
4.64814
4.07098
3.63351
3.11522
2.51756
1.88058
1.27212
0.766159
0.406232
8.95204
4.82493
4.37307
3.89084
3.54617
3.13023
2.61831
2.03322
1.43397
0.901708
0.497681
8.26759
4.56926
4.19518
3.78313
3.51108
3.18123
2.74857
2.21814
1.63481
1.07872
0.623823
7.71081
4.39958
4.10747
3.75986
3.55892
3.31212
2.95719
2.48354
1.91935
1.33703
0.81685
7.23562
4.28882
4.11536
3.8553
3.74683
3.59493
3.32307
2.90998
2.36644
1.74968
1.13981
6.83364
4.35666
4.33098
4.18579
4.23433
4.22994
4.08137
3.75165
3.2239
2.53404
1.74994
6.36755
4.58574
5.10755
6.02884
6.79433
7.24797
7.3569
7.06146
6.30236
5.09993
3.55146
47.7798
27.8143
21.0725
18.1252
16.5667
15.5291
14.5203
13.1907
11.4947
9.64051
7.63139
354.616
90.2736
35.3052
11.7028
3.59207
1.10661
0.377506
0.159204
0.0887986
0.0629846
0.0518276
274.372
69.3456
28.6487
11.3251
4.03026
1.36806
0.483656
0.198931
0.10455
0.0698929
0.0549766
221.693
65.2036
27.3985
12.3102
4.91002
1.78796
0.646295
0.258156
0.126799
0.0786093
0.0580286
166.085
52.3934
22.7606
11.8682
5.54459
2.25876
0.852444
0.336133
0.156474
0.0900859
0.0617662
126.959
40.4944
18.0339
9.92007
5.19222
2.46243
1.05198
0.438169
0.199007
0.106797
0.0683271
100.086
31.2586
14.3853
8.19654
4.50706
2.32873
1.13938
0.545953
0.264933
0.136161
0.0795944
80.6104
24.5096
11.6202
6.80037
3.91418
2.17702
1.16776
0.616655
0.328343
0.179422
0.103438
65.7774
19.6195
9.58028
5.73991
3.44893
2.05895
1.20978
0.703693
0.407457
0.235454
0.138424
54.3662
16.1598
8.14816
5.01298
3.15095
2.01419
1.2864
0.815639
0.510361
0.31324
0.190682
45.2084
13.8031
7.23987
4.5996
3.0345
2.07011
1.42142
0.967692
0.645098
0.417778
0.266911
37.6037
12.5777
6.86193
4.50927
3.11964
2.24942
1.63644
1.17714
0.824951
0.560985
0.380696
31.1232
12.0317
7.03516
4.81736
3.45655
2.58016
1.95112
1.45914
1.0613
0.748913
0.528653
26.0883
12.1171
7.71366
5.54205
4.11487
3.12998
2.40367
1.83225
1.36756
0.991233
0.723825
22.9857
13.0403
9.03508
6.80006
5.1627
3.93862
3.0264
2.32865
1.76643
1.29921
0.959256
22.2195
14.9411
11.1335
8.74287
6.74394
5.10965
3.85815
2.9388
2.24849
1.69173
1.26215
23.6948
17.5759
13.9617
11.4651
9.01595
6.78793
4.99839
3.70669
2.80761
2.14233
1.62161
26.7855
20.282
17.0864
14.7852
12.0144
9.09817
6.56624
4.7086
3.47643
2.64933
2.03805
30.7745
22.4587
19.8381
18.1471
15.4725
12.0182
8.64126
6.03094
4.31313
3.24105
2.51756
35.1955
23.9181
21.7101
20.8406
18.7902
15.2592
11.1797
7.73315
5.39419
3.97817
3.09997
40.0318
24.8701
22.6108
22.378
21.2497
18.249
13.9302
9.78852
6.785
4.94258
3.86253
45.727
25.7392
22.8023
22.7049
22.3607
20.3114
16.4175
12.0237
8.49885
6.22129
4.89858
54.4469
27.2043
22.973
22.3431
22.2402
21.0835
18.1294
14.1121
10.4446
7.8677
6.31081
66.6359
31.795
24.1294
22.0202
21.3623
20.5856
18.6422
15.5402
12.27
9.70149
7.95399
141.19
38.0957
27.8312
22.9509
21.0778
19.9464
18.4356
16.1414
13.4673
11.0724
9.10665
186.362
189.234
182.353
172.203
150.199
152.911
162.124
168.75
167.217
64.5743
63.1181
61.5973
61.1608
50.0295
46.9781
48.8969
51.5421
58.722
28.7729
27.0248
28.3521
27.7063
22.0121
20.0344
19.9906
21.837
29.6636
12.6236
10.8685
11.5297
10.6803
7.61516
6.83914
7.27159
9.04418
14.1374
171.367
130.286
43.6939
23.4396
22.8218
19.4499
25.3192
95.1231
146.41
73.6939
76.8087
65.989
20.3124
10.1934
11.0544
52.8165
62.9477
65.9188
42.2823
56.7535
56.3076
24.7553
9.30049
15.1918
42.1198
48.3479
41.8671
21.9331
36.8955
43.74
24.9128
10.126
16.3496
32.6573
34.1775
24.1673
0.0118693
0.0083431
0.00836329
0.00973034
0.00948882
0.0112667
0.0399595
0.00959419
0.0111471
0.00868489
0.00956784
0.00912204
0.00902761
0.00927197
0.0178692
0.00967017
0.00915869
0.00993656
0.00970854
0.0105249
0.00921359
0.010673
0.00852173
0.0102182
0.0125173
0.00930537
0.00890075
0.0320214
0.0194374
0.00928089
0.00917868
0.00884776
0.0090779
0.00885261
0.00910334
0.00834033
0.0103884
0.0122105
0.00884716
0.0113544
0.0742056
0.00867348
0.0089279
0.00849692
0.0110054
3.02293
0.00950879
1.28169
0.00928895
0.0100934
0.00943396
0.0116707
0.0100064
0.00900629
0.01012
0.00920128
0.0107282
0.0123427
0.0205505
0.00864018
0.0528642
0.0101411
0.00967656
0.00869434
0.0700818
0.0105899
0.00882275
0.0106231
0.00833819
0.00865643
0.00875298
0.00959513
0.00862026
0.0131059
0.00928534
0.00947278
0.010088
0.00832971
0.00923442
0.0297419
0.00912913
0.00870987
0.0103636
0.00838775
0.0097166
0.00863183
0.354609
0.0103719
0.00954978
0.0100896
0.00879379
0.013121
0.0613719
0.0105146
0.0232715
1.49458
0.00900606
0.00889482
0.00951854
0.0109661
0.01013
0.805653
0.00946424
0.00884129
0.00906589
0.00867886
0.00918703
0.00845344
0.00915528
0.0101602
0.0279846
0.00842949
0.0105901
0.00842331
0.00911012
0.011615
0.0108568
0.00997081
0.0108775
0.00963028
0.00841827
0.0124546
0.0149209
0.00880257
1.6467
0.0103863
0.00931966
0.00917757
0.00923639
0.00942731
0.0114118
0.00867179
1.07194
0.00941576
0.00835873
0.00995989
0.00981357
0.00871043
0.00940142
0.00975837
0.00868123
0.00949299
0.0119263
0.00864092
0.0106499
0.00945682
0.0110439
0.0105412
0.00857172
0.00937142
0.00949692
0.0112672
0.0099158
0.0125652
0.00877268
0.00900693
0.00915851
0.00980597
0.00871525
0.010641
0.00872572
0.00917078
0.00965835
0.012224
0.00903431
0.0103524
0.00951054
0.0097502
0.0103744
0.062489
0.00989466
0.00877597
0.0109708
0.00919883
0.00884766
0.0084598
0.00867354
0.00999855
0.0112004
0.00878079
0.0101517
0.01025
0.00849774
0.0104082
0.0103585
0.00888195
0.0100687
0.00982047
0.00831306
0.00946747
0.00910062
0.00872305
0.00908934
0.059074
0.00834618
0.0106172
0.010764
0.00935885
0.00928067
0.00856741
0.00958859
0.00966747
0.00927927
0.00908806
0.00839432
0.0105836
0.0105383
0.00917375
0.0100609
0.00957668
0.0101396
0.0100951
0.00909594
0.00910597
0.011003
0.00974971
0.0101328
0.0105895
0.010012
0.00911759
0.00875764
0.00843547
0.00902872
0.00918061
0.00884003
0.0119332
0.0102959
0.0093492
0.00918089
0.00933592
0.00966038
0.00905104
0.00975751
0.0117439
0.00979291
1.44585
0.00932885
0.00845224
0.00848305
0.00868542
0.0104418
0.0102754
0.00875592
0.0335654
0.0103506
0.00913086
0.00910822
0.00888625
0.646868
0.00960352
0.00899394
0.0100686
0.011566
0.00995289
0.00914572
0.0107672
0.00920874
0.0127817
0.00877407
0.0101213
0.00869211
0.0107954
0.00936873
0.00835856
0.0202303
0.0101771
0.00960181
0.0100352
0.0159913
0.00888632
0.00951655
0.0094974
0.00967974
0.00952287
0.0118305
0.0101456
0.00891484
0.0131856
0.00932018
0.00904446
0.00991051
0.00834222
0.00908605
0.00943093
0.00911186
0.0116335
0.0603416
0.00833895
0.0092876
0.00858268
0.00835959
0.0222461
0.00987276
0.00948472
0.00856401
0.0101876
0.0103949
0.0092538
0.00912629
0.0087973
0.0141985
0.00869767
0.0094034
0.00931034
0.00919447
0.0101687
0.00831885
0.00953026
0.0103329
0.00981356
0.0199767
0.00845922
0.0100168
0.00946544
0.0101013
0.00994626
0.00897761
0.00927233
0.00967092
0.010716
0.00966276
0.0114822
0.0102381
0.00862818
0.00858484
0.0102122
0.0114732
0.00930331
0.00898623
0.00959983
0.010642
0.00976469
0.0102746
0.00846918
0.00910533
1.03308
0.00908191
0.00831922
0.0126405
0.00873685
0.0104926
0.0100438
0.00968089
0.0108144
0.00971711
0.00964089
0.00961004
0.010764
0.0101509
0.009531
0.0427296
0.00875502
0.00890751
0.0092675
0.00899318
0.00860272
0.00883021
0.00844935
0.00850105
0.00949582
0.00908153
0.00924212
0.00976514
0.00976785
0.0102316
0.00938305
0.00876399
0.00876757
0.094562
0.0142343
0.0135121
0.0094472
0.873964
0.00893085
0.00970688
0.00837389
0.00877278
0.00903027
0.0110102
0.00935062
0.00954188
0.010497
0.00893568
0.0116164
0.00879912
0.00859631
0.00864173
0.00893335
0.0103421
0.00946408
0.0113231
0.0114886
0.00955416
0.00964589
0.00871195
0.0779162
0.0115731
0.00943475
0.00837706
0.00875927
0.00872448
0.0113862
0.00850962
0.00851646
0.00977449
0.138402
0.00961688
0.00968748
0.0097582
0.0115093
0.00963336
0.00956536
0.00917458
0.00921683
0.00931498
0.0102779
0.00909911
0.0139771
0.00845181
0.0107811
0.00922471
0.00868501
0.0779863
0.00942418
0.00847033
0.0100051
0.0129618
0.0171218
0.010296
0.182941
0.00993668
0.00889165
0.00858727
0.00937147
0.00997593
0.00893822
0.009703
0.00980449
0.00881355
0.00860027
0.00841811
0.46928
0.0100623
0.00868303
0.009518
0.00886782
0.00914185
0.00984168
0.0096495
0.00936642
0.0114215
0.00835294
0.0109867
0.010054
0.01105
0.124353
0.00973719
0.00983104
0.0155847
0.00836499
0.00954911
0.00933713
0.00874257
0.00910512
0.00955065
0.109255
0.0838765
0.0902259
0.0916664
0.0106176
0.00855265
0.00934411
0.00951705
0.0490821
0.00951834
0.00832976
0.00936872
0.0443935
0.00931545
0.00989007
0.011835
0.00925087
0.00874976
0.0100676
0.00845493
0.0100351
0.0096959
0.00887067
0.0089342
0.0113818
0.0105192
0.0109988
0.00943742
0.0114876
0.00922546
0.00862965
0.00947383
0.00907687
0.00917611
0.0100186
0.0092802
0.00921901
0.00907956
0.00934049
0.350562
0.00904439
0.00881032
0.0109366
0.590055
0.00837447
0.00895042
0.0112023
0.0095359
0.0102061
0.0102102
0.0091721
0.00889549
0.00923119
0.0105611
0.00876733
0.00956357
0.00835396
0.0133309
0.00865703
0.010067
0.00967169
0.0115441
0.0114576
0.00937918
0.0139951
0.183899
0.0106182
0.00914291
0.00887543
0.0094137
0.00856341
0.0117507
0.00842149
0.0476569
0.00939329
0.00955319
0.0110143
0.00882286
0.00835915
0.0095423
0.00833151
0.00893222
0.00937309
0.0101385
0.00909747
0.00878465
3.51422
0.00899303
0.00925957
0.00964246
0.00864932
0.00856957
0.00894602
0.0103034
0.00890885
0.00913031
0.0122488
2.45392
0.0115127
0.010874
0.00834179
0.00909014
0.00903448
0.0115072
0.00860075
0.0105395
0.00938077
0.0110182
0.0097538
0.00952843
0.00974755
0.00949947
0.02914
0.0122857
0.0122077
0.00898483
0.0095433
0.00917816
0.00866233
0.00888101
0.0103379
0.0102437
0.0084311
0.0085479
0.0202828
0.0116528
0.00847992
0.00923916
0.00884203
0.00899283
0.0104226
0.00878009
0.00897542
0.0127306
0.0108165
1.2176
0.0101437
0.00974663
0.0100528
0.0109908
0.00979999
0.0100885
0.0100619
0.00986613
0.00854017
0.00925205
0.00927982
0.00887392
0.0167708
0.0100269
0.0118168
0.0102485
0.0104121
0.00894171
0.0140771
0.787523
0.00997053
0.0100458
0.0106433
0.00978844
0.00939809
0.00969216
0.0171226
0.00834889
0.0100632
0.00900754
0.0093993
0.00880775
0.0113644
0.00863608
0.0102643
0.0112109
0.0118721
0.0108519
0.00835228
0.00941224
0.00894509
0.00928003
0.00837758
0.00946157
0.00864732
0.00900198
0.0095262
0.0112337
0.00851923
0.00882183
0.53264
0.00860625
0.0121685
0.0125191
0.011565
0.00940786
0.00960878
0.00936554
0.00893048
0.00859708
0.0113202
0.00949956
0.00890975
0.0100257
0.038828
0.00937443
0.00886115
0.0100721
0.00840315
0.0087313
0.0107114
0.0120813
0.0106797
0.0106621
0.0103151
0.021467
0.00895044
0.00849669
0.00899179
0.00917997
0.00934472
0.698118
0.00877721
0.00961008
0.00841884
0.0088444
0.00884387
0.0102104
0.00960016
0.0104795
0.0101255
0.00840948
0.00891135
0.00964879
0.0100589
0.00839771
0.0121041
0.0121671
0.00880034
0.00927196
0.00887295
0.00869185
0.0105474
0.00924372
0.00885035
0.00952927
0.00926576
0.0226183
0.00929746
0.0100545
0.00898039
0.00891809
0.0101904
0.00969052
0.0531587
0.00998361
0.0090034
0.0112378
0.010816
0.0161552
0.0100678
0.0105403
0.00925141
0.0109461
0.0100817
0.00976143
0.0098438
0.00837619
0.00924217
0.00867299
0.00899416
0.00995919
0.00915673
0.00876273
0.00895991
0.0101007
0.0089101
0.00931272
0.00887219
0.0231149
0.00918327
0.0121059
0.00870176
0.14331
0.00891899
0.0115796
0.0103434
0.0107352
0.00934151
0.00958153
0.00888133
0.00981654
0.00886606
0.00849947
0.00894695
0.00851771
0.00942623
0.00902548
0.0100223
0.00929006
0.00959604
0.00955513
1.58622
0.0116049
0.00923445
0.00851342
0.00912703
0.0114313
0.00989523
0.00975628
0.00905754
0.009144
0.0107618
0.010009
0.00967074
0.0122936
0.00940302
0.0103941
0.00860526
0.0113985
0.00986582
0.00964259
0.0109071
0.00875368
0.00885656
0.00914559
0.010555
0.00838262
0.00833164
0.0083862
0.011577
0.0100052
0.00863893
0.011302
0.009448
0.00891642
0.0101355
0.01413
0.010467
0.00897639
0.0100583
0.00832791
0.00993406
0.00916401
0.442803
0.010262
0.0113637
0.00911515
0.00906532
0.0154582
0.0113268
0.884311
0.00888427
0.00889834
0.0116383
0.00907174
0.00859187
0.00838751
0.008631
0.00902503
0.0290825
0.00864646
0.00925797
0.00997017
0.00878029
0.00925969
0.00922862
0.00842971
0.00996996
0.0101337
0.00913414
0.00909484
0.00833255
0.00959047
0.010944
0.00956036
0.00847005
0.00935889
0.00859678
0.132274
0.216465
0.00862633
0.00891135
0.00904893
0.00853182
0.0105613
0.0147008
0.010863
0.0118871
0.0129431
0.00934293
0.00973382
0.00904078
0.0122764
0.00908854
0.0123638
0.00859796
0.0104141
0.0101833
0.0108337
0.0133791
0.00857936
0.010246
2.15825
0.0121648
0.0106361
0.0100026
0.0129126
0.0095846
0.0105178
0.00879388
2.2141
0.00980531
0.00982157
0.00931737
0.00921593
0.00847498
0.00946662
0.0101575
0.00850696
0.00987332
0.0083238
0.00945502
0.00951698
0.0113847
0.00913128
0.00875606
0.00922949
0.0311266
0.0230684
0.0113322
0.01111
0.00833978
0.00886077
0.321862
0.0106036
0.00991003
0.0089431
0.00930425
0.0089979
0.0103417
0.00851186
0.0109422
0.00850672
0.00896312
0.00919492
0.0117836
0.00952414
0.0104508
0.00911599
0.00945889
0.00939375
0.00849609
0.0090047
0.00912893
0.0101189
0.0100001
0.00910013
0.0102675
0.00934696
0.00999115
0.00931912
0.0105391
0.00898205
0.00924224
0.0110387
0.00833923
0.00846744
0.130018
0.00894522
0.0098206
0.00963898
0.00928707
0.00980638
0.0143432
0.00998462
0.0103708
0.00927134
0.0113544
0.0141444
0.0105167
0.0101275
0.00928951
0.009609
0.00833347
0.00936011
0.00845749
0.0123169
0.00910201
0.00887179
0.00954628
0.0129994
0.0102507
0.0106521
0.0103421
0.0105676
0.0133971
0.00937463
0.129578
0.0110446
0.00998811
0.0083556
0.00983204
0.00884843
0.00834473
0.0158184
0.00933636
0.00920162
0.00879506
0.00923966
0.00897253
0.00986601
0.0103986
0.0101569
0.00932696
0.0101795
0.0101676
0.0085648
1.41973
0.00913215
2.21604
0.00872176
0.0127669
0.00914315
0.00929941
0.00883782
0.00847137
0.00855546
0.00978308
0.00884869
0.00850192
0.00924005
0.0100623
0.00919045
0.0100937
0.00855851
0.0125722
0.0095401
0.00966583
0.00937503
0.0526549
0.00931427
0.00909186
0.00898601
0.00841569
0.0101391
0.0093347
0.0184106
0.0101138
0.0088801
0.0125201
0.00944477
0.0110592
0.00893096
0.0117381
0.00856481
0.00939706
0.00988517
0.00835417
0.00935981
0.00865629
0.00918969
0.0226072
0.0329694
0.0104046
0.00934137
0.00927028
0.00838848
0.00900556
0.00974315
0.168133
0.0111353
0.00926145
0.00968363
0.00946829
0.0125331
0.00969363
0.0101574
0.0117454
0.0089304
0.00932805
0.00850914
0.0111416
0.359231
0.0149065
0.00964291
0.0120873
0.00869891
0.00838982
0.00914482
0.00968283
0.00926126
0.0469497
0.00877034
0.00902149
0.00949101
0.00925098
0.0088131
0.00889821
0.00862623
0.272651
0.0100749
0.0131943
0.01099
0.0112024
0.0100274
0.0102696
0.00877649
0.0117684
0.010369
0.0192998
0.0125463
0.00946403
0.00843684
2.37523
0.0100595
0.00834538
0.00898213
0.00998249
0.0087803
0.00878018
0.0087271
0.00904662
0.00936252
0.0114989
0.0109161
0.0101966
0.0100326
0.0108529
0.0093744
0.00861543
0.00876723
0.00883939
0.0101363
0.0114544
0.0098805
0.0136237
0.00981926
0.0668035
0.01044
0.0096531
0.0085409
0.0109891
0.0119557
0.00933896
0.00892754
0.0100766
0.00834185
0.0087615
0.00894322
0.0101629
0.00906401
0.0113317
1.05932
0.00917738
0.00921734
0.00997341
0.00981147
0.0087402
0.00918307
1.25065
0.0126142
0.00930039
0.00933473
0.00904629
0.00894901
0.0349822
0.00925527
0.00896364
0.00933142
0.0105959
0.00918122
0.0096872
0.00981039
0.00862278
0.00997722
0.00904911
0.00875145
0.00936387
0.0086026
0.0101146
0.00969598
0.0089672
0.0090355
0.0105003
0.054434
0.0099288
0.0224016
0.0290367
0.00829222
0.00950334
0.0106111
0.00989392
0.0178493
0.0110976
0.63985
0.0094719
0.012055
0.0100689
0.013602
0.00908026
0.0102231
0.0613985
0.0088624
0.0083458
0.00993129
0.00925808
0.0108279
0.03583
0.00974604
0.0102039
0.02029
0.00891942
0.00919131
0.009513
0.00930849
0.00960496
0.00897649
0.00840552
0.00969958
0.0101788
0.00914841
0.00931284
0.00857472
0.0136362
0.0104597
0.00972766
0.00913993
0.00930976
0.00928894
0.00892303
0.0106609
0.0105422
0.12749
0.00900001
0.00836823
0.00925046
0.0089019
0.00987471
0.00939856
0.00921166
0.0128666
0.008502
0.0276006
0.00896742
0.0102431
0.00893386
0.00835061
0.00849034
0.00859552
0.00888232
0.0109583
0.00996809
0.0107776
0.00855091
0.00922016
0.0104206
0.00918834
0.00954383
0.0102317
0.00864143
0.0198073
0.0104512
0.00848111
0.0110428
0.00904337
0.0103943
0.00918264
0.0100737
0.00968048
0.00926671
0.0091289
0.00894216
0.00929105
0.00898778
0.0107998
0.00855534
0.0108358
0.0194035
0.00845021
0.00967311
0.00923375
0.00926022
0.00949932
0.0116244
0.0090977
0.0104717
0.0222136
0.0106817
0.00859361
0.00880373
0.0096625
0.00872104
0.00925142
0.0114164
0.0419036
0.00966409
0.0607873
0.00905268
0.00907608
0.00998003
0.00928858
0.0104304
0.0154564
0.00891694
0.00919454
0.00921529
0.00954719
0.00867303
0.00881844
0.00896482
0.00981297
0.0097361
0.0126483
0.00951145
0.01026
0.00922198
0.00931701
0.009327
0.00868711
0.0103349
0.00839626
0.0111833
0.0100293
0.0125253
0.00846857
0.0280786
0.00859397
0.00969229
0.011366
0.011739
0.00992462
0.0085814
0.0110524
0.0109004
0.00902909
0.00920951
0.0088601
0.00947086
0.00940198
0.00888805
0.0134823
0.0210541
0.00840835
0.0083954
0.00988111
0.00866077
0.0104693
0.0195296
0.00930138
0.00917861
0.00833072
0.0104618
0.00857844
0.0101129
0.00870986
0.00909127
0.00969244
0.00842122
0.00942299
0.00848668
0.00946426
0.0106845
0.00919529
0.0108717
0.0105667
0.00949792
0.00901218
0.0103607
0.00864056
0.0117439
0.00982146
0.00961645
0.00845151
0.0085524
0.0104579
0.00974232
0.00867506
0.0120272
0.0198884
0.0102394
0.00958857
0.00911388
0.0122464
0.00967895
0.00931688
0.0106866
0.0163379
0.0328289
0.0106582
0.0143696
0.00991631
0.0104868
0.0141618
0.0123658
0.0670181
0.0089307
0.0091299
0.00970612
0.00883614
0.0089192
0.00840601
0.0101229
0.00967953
0.010804
0.0087147
0.00934736
0.0101685
0.00953174
0.00923836
0.00882045
0.011861
0.0103074
0.00956344
0.00934148
0.0122448
0.00961488
0.0104062
0.00931903
0.0287045
0.00930196
0.0132361
0.0113866
0.0328409
0.0083872
0.0103953
0.0368996
0.0103267
0.00944557
0.010931
0.00914161
0.00964366
0.0101741
0.0094435
0.0133958
0.00923076
0.00833548
0.0100789
0.00905968
0.00971289
0.0104278
0.0109938
0.00973097
0.00905131
0.0117555
0.00864946
0.00900336
0.0100267
0.00951279
0.00907909
0.0120904
0.0109633
0.0301555
0.0122197
0.00905825
0.00845652
0.0103628
1.73104
0.010879
0.00994099
0.111983
0.00928193
0.00956113
0.0104002
0.00992799
0.0089073
0.010225
0.00944541
0.00846649
0.00942915
0.00974858
0.0122332
0.00873205
0.00927337
0.00919087
0.00965283
0.00864029
0.0103203
0.0090224
0.00855958
0.0100254
0.010781
0.00940042
0.00868962
0.00945972
0.0100333
0.0109631
0.0102694
0.00951364
0.0105427
0.00838061
0.0087416
0.00959248
0.00943997
0.00866166
0.0095366
0.0101412
0.0103795
0.0101547
0.00961225
0.0107031
0.00903082
0.0735519
0.0101158
0.0094062
0.00952663
0.00932178
0.00883926
0.0117377
0.00894684
0.00876346
0.00961149
0.00931552
0.009312
0.00925287
0.0100757
0.025306
0.0359901
0.0108502
0.0120549
0.0163777
0.00924008
0.00900061
0.0103136
0.00831706
0.00907587
0.00921415
0.0116108
0.0091986
0.00886645
0.00879761
0.0083751
0.0109994
0.0109518
0.0111953
0.00976624
0.011191
0.00892517
0.00935698
0.0103362