/*--------------------------------*- C++ -*----------------------------------*\
| =========                 |                                                 |
| \\      /  F ield         | OpenFOAM: The Open Source CFD Toolbox           |
|  \\    /   O peration     | Version:  3.0.1                                 |
|   \\  /    A nd           | Web:      www.OpenFOAM.org                      |
|    \\/     M anipulation  |                                                 |
\*---------------------------------------------------------------------------*/
FoamFile
{
    version     2.0;
    format      ascii;
    class       surfaceScalarField;
    location    "0.787684";
    object      phi;
}
// * * * * * * * * * * * * * * * * * * * * * * * * * * * * * * * * * * * * * //

dimensions      [0 3 -1 0 0 0 0];

internalField   nonuniform List<scalar> 
32369
(
8.2511e-07
1.08252e-05
-1.16503e-05
9.15891e-07
1.09357e-05
-1.10265e-05
-6.82667e-07
1.40145e-05
-1.2416e-05
-3.41137e-06
1.70872e-05
-1.43585e-05
-6.86828e-06
2.02055e-05
-1.67486e-05
-1.08983e-05
2.36539e-05
-1.96239e-05
-1.54318e-05
2.77142e-05
-2.31807e-05
-2.05723e-05
3.2854e-05
-2.77136e-05
-2.65659e-05
3.95668e-05
-3.35732e-05
-3.37365e-05
4.83365e-05
-4.11659e-05
5.97968e-05
-5.09511e-05
-4.25822e-05
3.89657e-06
6.92867e-06
5.88915e-06
8.94309e-06
6.53744e-06
1.33662e-05
6.04937e-06
1.75752e-05
4.28107e-06
2.19738e-05
1.23603e-06
2.6699e-05
-2.88516e-06
3.18353e-05
-7.87885e-06
3.78477e-05
-1.37745e-05
4.54625e-05
-2.08786e-05
5.54406e-05
6.85487e-05
-2.96304e-05
3.04663e-06
3.88205e-06
4.83896e-06
7.15076e-06
6.53773e-06
1.16674e-05
7.61946e-06
1.64935e-05
7.64723e-06
2.19461e-05
6.42812e-06
2.79181e-05
3.95045e-06
3.4313e-05
3.76493e-07
4.14217e-05
-4.12257e-06
4.99615e-05
-9.61829e-06
6.09363e-05
7.54333e-05
-1.65029e-05
2.03561e-06
1.84644e-06
3.85787e-06
5.32849e-06
5.78597e-06
9.73935e-06
7.36625e-06
1.49132e-05
8.44585e-06
2.08664e-05
8.69298e-06
2.76709e-05
7.89963e-06
3.51064e-05
6.06753e-06
4.32538e-05
3.37239e-06
5.26567e-05
-5.4222e-08
6.43629e-05
7.96623e-05
-4.28317e-06
1.39078e-06
4.55661e-07
3.15331e-06
3.56596e-06
5.08239e-06
7.81026e-06
6.97361e-06
1.3022e-05
8.57183e-06
1.92682e-05
9.70407e-06
2.65387e-05
1.01778e-05
3.46326e-05
9.86842e-06
4.35632e-05
8.86715e-06
5.36579e-05
7.40745e-06
6.58226e-05
8.14511e-05
5.61865e-06
9.73596e-07
-5.17935e-07
2.60494e-06
1.93462e-06
4.49808e-06
5.91711e-06
6.48196e-06
1.10381e-05
8.40528e-06
1.73449e-05
1.01331e-05
2.48109e-05
1.14597e-05
3.33061e-05
1.2286e-05
4.27368e-05
1.26558e-05
5.32881e-05
1.27902e-05
6.56882e-05
8.12859e-05
1.29554e-05
4.62787e-07
-9.80721e-07
1.78446e-06
6.12949e-07
3.5993e-06
4.10227e-06
5.65889e-06
8.97853e-06
7.79249e-06
1.52113e-05
9.88545e-06
2.27179e-05
1.18141e-05
3.13774e-05
1.34847e-05
4.10663e-05
1.49102e-05
5.18626e-05
1.62936e-05
6.43048e-05
7.96315e-05
1.7948e-05
1.57963e-07
-1.13868e-06
9.72467e-07
-2.01554e-07
2.50532e-06
2.56943e-06
4.46923e-06
7.01462e-06
6.65216e-06
1.30284e-05
8.95186e-06
2.04182e-05
1.12822e-05
2.90471e-05
1.35709e-05
3.87776e-05
1.58249e-05
4.96085e-05
1.82334e-05
6.18963e-05
7.67341e-05
2.11308e-05
-1.26812e-08
-1.126e-06
3.4492e-07
-5.59155e-07
1.46682e-06
1.44752e-06
3.15966e-06
5.32178e-06
5.23161e-06
1.09564e-05
7.58265e-06
1.80672e-05
1.01414e-05
2.64883e-05
1.28566e-05
3.60624e-05
1.57466e-05
4.67185e-05
1.89103e-05
5.87326e-05
7.30146e-05
2.26299e-05
-9.78915e-08
-1.02811e-06
-2.56283e-08
-6.31419e-07
6.09467e-07
8.12427e-07
1.94198e-06
3.98927e-06
3.78902e-06
9.10939e-06
6.06177e-06
1.57944e-05
8.70155e-06
2.38485e-05
1.16813e-05
3.30827e-05
1.50038e-05
4.3396e-05
1.87598e-05
5.49766e-05
6.86182e-05
2.31562e-05
-1.65491e-07
-8.62621e-07
-2.81073e-07
-5.15837e-07
-7.9679e-08
6.11033e-07
8.35791e-07
3.0738e-06
2.38672e-06
7.55847e-06
4.46606e-06
1.37151e-05
7.07386e-06
2.12408e-05
1.0197e-05
2.99596e-05
1.38415e-05
3.97514e-05
1.80508e-05
5.07673e-05
6.36304e-05
2.30386e-05
-2.19706e-07
-6.42915e-07
-4.56262e-07
-2.79281e-07
-5.30244e-07
6.85015e-07
-8.12052e-08
2.62476e-06
1.12762e-06
6.34965e-06
2.94268e-06
1.19e-05
5.43161e-06
1.87518e-05
8.61832e-06
2.67728e-05
1.25072e-05
3.58626e-05
1.71093e-05
4.61652e-05
5.82865e-05
2.24532e-05
-2.51027e-07
-3.91888e-07
-5.47745e-07
1.74372e-08
-7.3955e-07
8.7682e-07
-6.17719e-07
2.50293e-06
2.24464e-07
5.50746e-06
1.77799e-06
1.03465e-05
4.11949e-06
1.64103e-05
7.30452e-06
2.35878e-05
1.13664e-05
3.18007e-05
1.62941e-05
4.12375e-05
5.24995e-05
2.20811e-05
-2.36287e-07
-1.55601e-07
-5.37474e-07
3.18624e-07
-7.62706e-07
1.10205e-06
-7.72227e-07
2.51245e-06
-2.39802e-07
4.97504e-06
1.08848e-06
9.01819e-06
3.29286e-06
1.42059e-05
6.46708e-06
2.04136e-05
1.06424e-05
2.76253e-05
1.57914e-05
3.60886e-05
4.64316e-05
2.18593e-05
-1.93405e-07
3.78039e-08
-4.77658e-07
6.02877e-07
-6.83916e-07
1.30831e-06
-7.35465e-07
2.564e-06
-3.71146e-07
4.61072e-06
7.72344e-07
7.8747e-06
2.86014e-06
1.21182e-05
6.01602e-06
1.72577e-05
1.02954e-05
2.3346e-05
1.5655e-05
3.07289e-05
4.00692e-05
2.20174e-05
-1.40294e-07
1.78098e-07
-3.74999e-07
8.37582e-07
-5.17843e-07
1.45115e-06
-5.3687e-07
2.58302e-06
-2.06141e-07
4.27999e-06
8.43561e-07
6.825e-06
2.85389e-06
1.01078e-05
6.00014e-06
1.41115e-05
1.03727e-05
1.89734e-05
1.59792e-05
2.51224e-05
3.32667e-05
2.27818e-05
-7.37851e-08
2.51883e-07
-2.38003e-07
1.0018e-06
-2.97726e-07
1.51088e-06
-2.4635e-07
2.53165e-06
1.24426e-07
3.90921e-06
1.14902e-06
5.80041e-06
3.11954e-06
8.1373e-06
6.28691e-06
1.09441e-05
1.07958e-05
1.44645e-05
1.66347e-05
1.92835e-05
2.62719e-05
2.36294e-05
-2.30572e-08
2.7494e-07
-1.25469e-07
1.10421e-06
-1.24254e-07
1.50966e-06
-2.28368e-08
2.43023e-06
3.72454e-07
3.51392e-06
1.3761e-06
4.79676e-06
3.34517e-06
6.16823e-06
6.59961e-06
7.68965e-06
1.13232e-05
9.74089e-06
1.75119e-05
1.30949e-05
1.87143e-05
2.50695e-05
5.9692e-09
2.68971e-07
-5.64709e-08
1.16665e-06
-7.11724e-08
1.52436e-06
-1.15779e-08
2.37064e-06
3.05506e-07
3.19684e-06
1.25976e-06
3.8425e-06
3.2887e-06
4.1393e-06
6.76061e-06
4.21773e-06
1.18695e-05
4.63202e-06
1.85723e-05
6.39206e-06
1.05881e-05
2.66986e-05
-1.50145e-08
2.83986e-07
-1.6215e-07
1.31379e-06
-3.52415e-07
1.71463e-06
-4.56556e-07
2.47478e-06
-2.55642e-07
2.99592e-06
8.63974e-07
2.72288e-06
3.3941e-06
1.60917e-06
7.48506e-06
1.26774e-07
1.3035e-05
-9.17919e-07
2.00863e-05
-6.59208e-07
2.01827e-06
2.8656e-05
-2.81387e-07
5.65373e-07
-5.54487e-07
1.58689e-06
-8.30573e-07
1.99071e-06
-6.78794e-07
2.323e-06
5.83557e-07
1.73357e-06
3.37411e-06
-6.76717e-08
7.32584e-06
-2.34255e-06
1.20061e-05
-4.55349e-06
1.75679e-05
-6.47976e-06
2.44085e-05
-7.49975e-06
-6.31147e-06
3.27382e-05
-6.21099e-07
1.18647e-06
-6.30219e-07
1.59601e-06
2.69207e-08
1.33357e-06
1.94423e-06
4.05685e-07
5.07658e-06
-1.39878e-06
8.54418e-06
-3.53527e-06
1.20518e-05
-5.85022e-06
1.59945e-05
-8.49617e-06
2.08507e-05
-1.1336e-05
2.72007e-05
-1.38498e-05
-1.47353e-05
3.56245e-05
1.54346e-07
1.03213e-06
1.65363e-06
9.67263e-08
3.95826e-06
-9.71054e-07
6.72565e-06
-2.36171e-06
9.3364e-06
-4.00952e-06
1.18044e-05
-6.00327e-06
1.43864e-05
-8.43224e-06
1.73019e-05
-1.14117e-05
2.09328e-05
-1.49669e-05
2.59226e-05
-1.88395e-05
-2.20964e-05
3.32837e-05
3.39561e-06
-2.36349e-06
5.65596e-06
-2.16362e-06
7.642e-06
-2.95709e-06
9.42657e-06
-4.14629e-06
1.10798e-05
-5.66272e-06
1.26574e-05
-7.58092e-06
1.42563e-05
-1.00311e-05
1.60344e-05
-1.31898e-05
1.82183e-05
-1.71507e-05
2.12922e-05
-2.19135e-05
-2.7155e-05
2.63509e-05
-7.36537e-06
-4.28498e-06
-1.21468e-05
-6.24502e-06
-1.61031e-05
-8.4597e-06
-1.96189e-05
-1.08427e-05
-2.30151e-05
-1.33523e-05
-2.65639e-05
-1.60751e-05
-3.05132e-05
-1.92314e-05
-3.50937e-05
-2.31331e-05
-4.05242e-05
-2.81427e-05
-4.70275e-05
-3.46626e-05
-4.31579e-05
-5.48206e-05
-4.6176e-06
3.32616e-07
-9.02449e-06
-1.83813e-06
-1.33615e-05
-4.12265e-06
-1.75848e-05
-6.61937e-06
-2.17604e-05
-9.17675e-06
-2.60799e-05
-1.17555e-05
-3.0827e-05
-1.44844e-05
-3.62976e-05
-1.76624e-05
-4.27741e-05
-2.16662e-05
-5.05407e-05
-2.6896e-05
-3.3754e-05
-5.99447e-05
-2.04402e-06
2.37664e-06
-4.79872e-06
9.16565e-07
-8.43904e-06
-4.82328e-07
-1.26132e-05
-2.4452e-06
-1.71666e-05
-4.62333e-06
-2.21275e-05
-6.79467e-06
-2.76377e-05
-8.97421e-06
-3.39383e-05
-1.13618e-05
-4.131e-05
-1.42945e-05
-5.00302e-05
-1.81758e-05
-2.34173e-05
-6.03668e-05
-4.95954e-07
2.87259e-06
-2.00106e-06
2.42168e-06
-4.56104e-06
2.07765e-06
-8.09708e-06
1.09084e-06
-1.24428e-05
-2.77626e-07
-1.74775e-05
-1.75992e-06
-2.32593e-05
-3.19245e-06
-2.99433e-05
-4.67776e-06
-3.77484e-05
-6.48948e-06
-4.69388e-05
-8.98534e-06
-1.24707e-05
-5.78855e-05
1.5013e-08
2.85758e-06
-5.91805e-07
3.0285e-06
-1.93717e-06
3.42302e-06
-4.27277e-06
3.42644e-06
-7.7169e-06
3.1665e-06
-1.22638e-05
2.78698e-06
-1.78904e-05
2.43415e-06
-2.46242e-05
2.056e-06
-3.25662e-05
1.45254e-06
-4.18722e-05
3.20659e-07
-1.70555e-06
-5.26373e-05
1.60664e-07
2.69691e-06
-3.90655e-08
3.22822e-06
-6.30756e-07
4.01471e-06
-1.89885e-06
4.69453e-06
-4.09178e-06
5.35944e-06
-7.42635e-06
6.12154e-06
-1.20531e-05
7.06095e-06
-1.80834e-05
8.08628e-06
-2.561e-05
8.97914e-06
-3.47672e-05
9.47786e-06
9.21701e-06
-4.56898e-05
2.01456e-07
2.49546e-06
1.97421e-07
3.23226e-06
2.29651e-08
4.18916e-06
-5.75813e-07
5.29331e-06
-1.85717e-06
6.64079e-06
-4.10921e-06
8.37358e-06
-7.62531e-06
1.0577e-05
-1.2655e-05
1.3116e-05
-1.93078e-05
1.56319e-05
-2.76375e-05
1.78075e-05
1.9377e-05
-3.77975e-05
1.92086e-07
2.30337e-06
2.96052e-07
3.12829e-06
3.57991e-07
4.12722e-06
1.92306e-07
5.459e-06
-4.00687e-07
7.23379e-06
-1.68674e-06
9.65963e-06
-4.03445e-06
1.29248e-05
-7.8562e-06
1.69377e-05
-1.34065e-05
2.11822e-05
-2.07128e-05
2.51138e-05
2.84377e-05
-2.97735e-05
2.01388e-07
2.10198e-06
3.76021e-07
2.95366e-06
5.90462e-07
3.91278e-06
7.05428e-07
5.34403e-06
5.90411e-07
7.3488e-06
5.79489e-08
1.01921e-05
-1.21675e-06
1.41995e-05
-3.72599e-06
1.9447e-05
-7.97542e-06
2.54316e-05
-1.40497e-05
3.11881e-05
3.61849e-05
-2.17969e-05
1.95331e-07
1.90665e-06
4.43937e-07
2.70506e-06
7.68864e-07
3.58785e-06
1.07562e-06
5.03727e-06
1.30184e-06
7.12258e-06
1.31156e-06
1.01824e-05
8.88649e-07
1.46224e-05
-4.01245e-07
2.07369e-05
-3.20907e-06
2.82394e-05
-7.94683e-06
3.59259e-05
4.27743e-05
-1.45362e-05
2.13422e-07
1.69323e-06
5.54841e-07
2.36364e-06
9.07625e-07
3.23507e-06
1.3466e-06
4.5983e-06
1.81765e-06
6.65153e-06
2.22983e-06
9.7702e-06
2.43174e-06
1.44205e-05
2.1109e-06
2.10577e-05
6.85503e-07
2.96648e-05
-2.53655e-06
3.91479e-05
4.79493e-05
-7.71157e-06
2.03809e-07
1.48942e-06
5.47033e-07
2.02041e-06
9.43967e-07
2.83814e-06
1.46867e-06
4.0736e-06
2.08007e-06
6.04013e-06
2.75602e-06
9.09425e-06
3.40875e-06
1.37677e-05
3.82195e-06
2.06445e-05
3.53743e-06
2.99493e-05
1.84606e-06
4.08393e-05
5.14743e-05
-1.6789e-06
1.90045e-07
1.29938e-06
5.44738e-07
1.66572e-06
9.61945e-07
2.42093e-06
1.48631e-06
3.54923e-06
2.14846e-06
5.37798e-06
2.95082e-06
8.29189e-06
3.87402e-06
1.28445e-05
4.80573e-06
1.97128e-05
5.41427e-06
2.93408e-05
5.06638e-06
4.11872e-05
5.36135e-05
2.92717e-06
1.83712e-07
1.11566e-06
5.2888e-07
1.32055e-06
9.27875e-07
2.02193e-06
1.42731e-06
3.0498e-06
2.0636e-06
4.74169e-06
2.87209e-06
7.4834e-06
3.88292e-06
1.18337e-05
5.08718e-06
1.85085e-05
6.31637e-06
2.81116e-05
7.08884e-06
4.04147e-05
5.40854e-05
6.61692e-06
1.60087e-07
9.55577e-07
4.74267e-07
1.00637e-06
8.24558e-07
1.67164e-06
1.24991e-06
2.62444e-06
1.78115e-06
4.21046e-06
2.46412e-06
6.80042e-06
3.38054e-06
1.09173e-05
4.63483e-06
1.72542e-05
6.22847e-06
2.6518e-05
7.89857e-06
3.87446e-05
5.31744e-05
8.80959e-06
1.3762e-07
8.17957e-07
3.96302e-07
7.4769e-07
6.68122e-07
1.39982e-06
9.7078e-07
2.32178e-06
1.3241e-06
3.85713e-06
1.78176e-06
6.34276e-06
2.46508e-06
1.0234e-05
3.56894e-06
1.61504e-05
5.27304e-06
2.48139e-05
7.5348e-06
3.64829e-05
5.07626e-05
9.94661e-06
1.11539e-07
7.06418e-07
2.84951e-07
5.74278e-07
4.36525e-07
1.24825e-06
5.65183e-07
2.19313e-06
6.90342e-07
3.73198e-06
8.75628e-07
6.15748e-06
1.25256e-06
9.85702e-06
2.05164e-06
1.53513e-05
3.55509e-06
2.33104e-05
5.81343e-06
3.42245e-05
4.83846e-05
8.19142e-06
6.7141e-08
6.39277e-07
1.11591e-07
5.29828e-07
1.05114e-07
1.25473e-06
4.33794e-08
2.25486e-06
-5.28361e-08
3.82819e-06
-1.2798e-07
6.23262e-06
-6.82279e-08
9.79727e-06
3.39399e-07
1.49437e-05
1.44666e-06
2.22032e-05
3.62825e-06
3.20429e-05
4.51554e-05
6.85742e-06
-7.03456e-09
6.46312e-07
-1.02469e-07
6.25263e-07
-2.44802e-07
1.39706e-06
-4.56208e-07
2.46627e-06
-7.38375e-07
4.11036e-06
-1.05526e-06
6.54951e-06
-1.3042e-06
1.00462e-05
-1.29431e-06
1.49338e-05
-7.34839e-07
2.16437e-05
6.76398e-07
3.06317e-05
4.25316e-05
3.30014e-06
-7.51862e-08
7.21498e-07
-2.48341e-07
7.98418e-07
-4.67779e-07
1.6165e-06
-7.8921e-07
2.7877e-06
-1.2357e-06
4.55685e-06
-1.76905e-06
7.08286e-06
-2.27744e-06
1.05546e-05
-2.58562e-06
1.5242e-05
-2.47223e-06
2.15303e-05
-1.61438e-06
2.97739e-05
4.05183e-05
3.98972e-07
-7.18412e-08
7.93339e-07
-2.65877e-07
9.92454e-07
-5.37699e-07
1.88832e-06
-9.52279e-07
3.20228e-06
-1.51897e-06
5.12355e-06
-2.168e-06
7.73188e-06
-2.77486e-06
1.11614e-05
-3.17603e-06
1.56432e-05
-3.17025e-06
2.15245e-05
-2.51657e-06
2.91202e-05
3.86245e-05
-6.22739e-07
-5.5514e-08
8.48853e-07
-2.85691e-07
1.22263e-06
-6.10612e-07
2.21324e-06
-1.08245e-06
3.67412e-06
-1.64355e-06
5.68464e-06
-2.18419e-06
8.27252e-06
-2.5681e-06
1.15454e-05
-2.67635e-06
1.57514e-05
-2.36151e-06
2.12097e-05
-1.52897e-06
2.82876e-05
3.73472e-05
-2.51674e-07
-1.31144e-07
9.79997e-07
-4.27186e-07
1.51867e-06
-8.74988e-07
2.66104e-06
-1.33514e-06
4.13427e-06
-1.66819e-06
6.01769e-06
-1.75685e-06
8.36118e-06
-1.50634e-06
1.12949e-05
-8.39799e-07
1.50849e-05
4.02549e-07
1.99673e-05
2.52642e-06
2.61638e-05
3.38148e-05
6.05876e-06
-1.38349e-06
-2.02844e-06
-2.32449e-06
-2.33651e-06
-1.98154e-06
-1.20128e-06
6.24428e-08
1.95751e-06
4.77414e-06
9.0244e-06
1.56842e-05
-1.04618e-05
-1.00017e-05
2.04635e-05
-1.67875e-05
-1.17189e-05
1.80446e-05
-2.2105e-05
-1.40325e-05
1.93501e-05
-2.72073e-05
-1.6294e-05
2.13962e-05
-3.19427e-05
-1.83159e-05
2.30514e-05
-3.67271e-05
-2.01092e-05
2.48936e-05
-4.18536e-05
-2.16653e-05
2.67918e-05
-4.76452e-05
-2.295e-05
2.87416e-05
-5.43712e-05
-2.38664e-05
3.05924e-05
-6.23115e-05
-2.42252e-05
3.21654e-05
-2.36725e-05
3.32167e-05
-7.18558e-05
-7.9922e-06
-2.0095e-06
-1.46089e-05
-5.10225e-06
-2.06646e-05
-7.97677e-06
-2.62593e-05
-1.06993e-05
-3.15216e-05
-1.30537e-05
-3.6744e-05
-1.48868e-05
-4.22717e-05
-1.61376e-05
-4.84759e-05
-1.67458e-05
-5.57258e-05
-1.66164e-05
-6.44048e-05
-1.55462e-05
-1.31868e-05
-7.48905e-05
-3.89313e-06
1.88363e-06
-8.7914e-06
-2.03978e-07
-1.42515e-05
-2.5167e-06
-1.99829e-05
-4.96786e-06
-2.59014e-05
-7.13523e-06
-3.20185e-05
-8.76959e-06
-3.84954e-05
-9.66074e-06
-4.56174e-05
-9.62375e-06
-5.37452e-05
-8.48864e-06
-6.32495e-05
-6.04186e-06
-1.95102e-06
-7.44853e-05
-1.7899e-06
3.67353e-06
-4.92317e-06
2.92929e-06
-9.32937e-06
1.88951e-06
-1.46354e-05
3.38119e-07
-2.05402e-05
-1.23037e-06
-2.69186e-05
-2.39119e-06
-3.3819e-05
-2.76033e-06
-4.13916e-05
-2.05117e-06
-4.9884e-05
3.79198e-09
-5.96884e-05
3.76252e-06
9.69877e-06
-7.13382e-05
-1.1637e-06
4.83723e-06
-3.01693e-06
4.78251e-06
-5.97504e-06
4.84761e-06
-1.01096e-05
4.47268e-06
-1.53132e-05
3.9732e-06
-2.14357e-05
3.73131e-06
-2.83813e-05
4.18525e-06
-3.61892e-05
5.75673e-06
-4.50435e-05
8.85816e-06
-5.51804e-05
1.38994e-05
2.14744e-05
-6.6956e-05
-1.12208e-06
5.95932e-06
-2.83264e-06
6.49307e-06
-5.14331e-06
7.15828e-06
-8.34281e-06
7.67218e-06
-1.26148e-05
8.24517e-06
-1.79843e-05
9.10087e-06
-2.44124e-05
1.06133e-05
-3.18788e-05
1.32231e-05
-4.04418e-05
1.74212e-05
-5.02886e-05
2.37462e-05
3.29251e-05
-6.17394e-05
-1.01698e-06
6.9763e-06
-2.51967e-06
7.99576e-06
-4.54972e-06
9.18833e-06
-7.28763e-06
1.04101e-05
-1.09128e-05
1.18703e-05
-1.55545e-05
1.37427e-05
-2.12751e-05
1.63338e-05
-2.81107e-05
2.00587e-05
-3.61254e-05
2.54359e-05
-4.54413e-05
3.30621e-05
4.36842e-05
-5.62004e-05
-9.77905e-07
7.9542e-06
-2.35948e-06
9.37734e-06
-4.17518e-06
1.1004e-05
-6.58625e-06
1.28212e-05
-9.73974e-06
1.50238e-05
-1.3786e-05
1.77889e-05
-1.88413e-05
2.13891e-05
-2.49992e-05
2.62167e-05
-3.23507e-05
3.27873e-05
-4.10364e-05
4.17478e-05
5.39317e-05
-5.12839e-05
-9.22166e-07
8.87637e-06
-2.20203e-06
1.06572e-05
-3.85243e-06
1.26544e-05
-6.00439e-06
1.49731e-05
-8.79385e-06
1.78132e-05
-1.23607e-05
2.13558e-05
-1.68404e-05
2.58689e-05
-2.23602e-05
3.17365e-05
-2.90424e-05
3.94695e-05
-3.7047e-05
4.97525e-05
6.34867e-05
-4.6602e-05
-7.7282e-07
9.64919e-06
-1.90192e-06
1.17863e-05
-3.37966e-06
1.41322e-05
-5.3046e-06
1.68981e-05
-7.78699e-06
2.02956e-05
-1.09617e-05
2.45305e-05
-1.49596e-05
2.98668e-05
-1.99219e-05
3.66987e-05
-2.59924e-05
4.55401e-05
-3.33342e-05
5.70943e-05
7.22589e-05
-4.21064e-05
-6.37673e-07
1.02869e-05
-1.62719e-06
1.27758e-05
-2.93233e-06
1.54373e-05
-4.63588e-06
1.86016e-05
-6.84186e-06
2.25016e-05
-9.66165e-06
2.73503e-05
-1.32272e-05
3.34323e-05
-1.76712e-05
4.11427e-05
-2.31468e-05
5.10157e-05
-2.98148e-05
6.37623e-05
8.03098e-05
-3.78657e-05
-6.18007e-07
1.09049e-05
-1.51456e-06
1.36724e-05
-2.6677e-06
1.65904e-05
-4.16782e-06
2.01017e-05
-6.10296e-06
2.44368e-05
-8.57928e-06
2.98266e-05
-1.17205e-05
3.65735e-05
-1.56536e-05
4.50758e-05
-2.05258e-05
5.58879e-05
-2.65035e-05
6.97399e-05
8.75907e-05
-3.37843e-05
-5.37214e-07
1.14421e-05
-1.31045e-06
1.44456e-05
-2.3084e-06
1.75884e-05
-3.60444e-06
2.13978e-05
-5.27807e-06
2.61104e-05
-7.42518e-06
3.19737e-05
-1.01569e-05
3.93052e-05
-1.35981e-05
4.8517e-05
-1.78875e-05
6.01774e-05
-2.32002e-05
7.50526e-05
9.41436e-05
-2.97532e-05
-3.45048e-07
1.17871e-05
-9.2985e-07
1.50304e-05
-1.73135e-06
1.83899e-05
-2.80406e-06
2.24705e-05
-4.20803e-06
2.75143e-05
-6.02773e-06
3.37934e-05
-8.35964e-06
4.16371e-05
-1.13136e-05
5.1471e-05
-1.50145e-05
6.38782e-05
-1.96047e-05
7.96428e-05
9.97843e-05
-2.52454e-05
-2.80758e-07
1.20679e-05
-7.24816e-07
1.54745e-05
-1.33714e-06
1.90022e-05
-2.16576e-06
2.32991e-05
-3.26613e-06
2.86147e-05
-4.71541e-06
3.52427e-05
-6.59257e-06
4.35143e-05
-8.9933e-06
5.38717e-05
-1.20154e-05
6.69004e-05
-1.57872e-05
8.34145e-05
0.000104467
-2.04701e-05
-1.7287e-07
1.22408e-05
-4.41726e-07
1.57433e-05
-8.33911e-07
1.93944e-05
-1.38637e-06
2.38516e-05
-2.15383e-06
2.93822e-05
-3.19156e-06
3.62804e-05
-4.5701e-06
4.48928e-05
-6.35663e-06
5.56582e-05
-8.61411e-06
6.91579e-05
-1.14393e-05
8.62396e-05
0.000107987
-1.49586e-05
4.97231e-08
1.2191e-05
4.02914e-08
1.57528e-05
-6.81899e-08
1.95029e-05
-3.03171e-07
2.40865e-05
-6.8818e-07
2.97672e-05
-1.27451e-06
3.68668e-05
-2.09558e-06
4.57139e-05
-3.18679e-06
5.67495e-05
-4.58093e-06
7.0552e-05
-6.31805e-06
8.79767e-05
0.000110093
-8.425e-06
2.20519e-07
1.19705e-05
4.70592e-07
1.55027e-05
6.70749e-07
1.93027e-05
8.15681e-07
2.39416e-05
8.78623e-07
2.97042e-05
8.37201e-07
3.69082e-05
6.87644e-07
4.58634e-05
4.4132e-07
5.69958e-05
1.14726e-07
7.08786e-05
-2.82769e-07
8.83742e-05
0.000110596
-7.85596e-07
4.25651e-07
1.15449e-05
9.84604e-07
1.49437e-05
1.54367e-06
1.87437e-05
2.11211e-06
2.33732e-05
2.68604e-06
2.91303e-05
3.28229e-06
3.63119e-05
3.94364e-06
4.52021e-05
4.73357e-06
5.62058e-05
5.72533e-06
6.98868e-05
6.97566e-06
8.71239e-05
0.000109075
8.49683e-06
6.73888e-07
1.0871e-05
1.58674e-06
1.40309e-05
2.55697e-06
1.77734e-05
3.6142e-06
2.23159e-05
4.78477e-06
2.79598e-05
6.14292e-06
3.49538e-05
7.79089e-06
4.35541e-05
9.85786e-06
5.41389e-05
1.24709e-05
6.72738e-05
1.5767e-05
8.38278e-05
0.000104951
1.98911e-05
9.48805e-07
9.92217e-06
2.23616e-06
1.27435e-05
3.65095e-06
1.63586e-05
5.24537e-06
2.07215e-05
7.10792e-06
2.60972e-05
9.38325e-06
3.26785e-05
1.22487e-05
4.06887e-05
1.5889e-05
5.04986e-05
2.04754e-05
6.26874e-05
2.62185e-05
7.80847e-05
9.7799e-05
3.33706e-05
1.10906e-06
8.81311e-06
2.75517e-06
1.10974e-05
4.61394e-06
1.44999e-05
6.78818e-06
1.85473e-05
9.46548e-06
2.34199e-05
1.28664e-05
2.92775e-05
1.72142e-05
3.63409e-05
2.27137e-05
4.49991e-05
2.9591e-05
5.58101e-05
3.81425e-05
6.95332e-05
8.72349e-05
4.87066e-05
1.11905e-06
7.69406e-06
3.15481e-06
9.06169e-06
5.22593e-06
1.24287e-05
7.9895e-06
1.57837e-05
1.16266e-05
1.97828e-05
1.63575e-05
2.45466e-05
2.23807e-05
3.03177e-05
2.99186e-05
3.74612e-05
3.92744e-05
4.64543e-05
5.08662e-05
5.79414e-05
7.29043e-05
6.51968e-05
-2.68896e-06
1.0383e-05
-7.20256e-07
7.09299e-06
2.80964e-06
8.89884e-06
7.15536e-06
1.1438e-05
1.24961e-05
1.4442e-05
1.90546e-05
1.79882e-05
2.69874e-05
2.23849e-05
3.66215e-05
2.78271e-05
4.84167e-05
3.46591e-05
6.2941e-05
4.34171e-05
5.48879e-05
8.09574e-05
4.90039e-06
1.55631e-05
6.9932e-06
1.59518e-05
4.71491e-06
2.16284e-05
-4.34132e-07
2.65453e-05
-7.20254e-06
2.98198e-05
-1.47988e-05
3.24899e-05
-2.26787e-05
3.46717e-05
-3.11334e-05
3.71963e-05
-4.04394e-05
3.98983e-05
-5.08013e-05
4.25273e-05
4.48811e-05
-6.24657e-05
8.01072e-06
7.55237e-06
1.20357e-05
1.19268e-05
1.3555e-05
2.0109e-05
1.25954e-05
2.75049e-05
8.48327e-06
3.39319e-05
1.56561e-06
3.94075e-05
-7.09124e-06
4.33285e-05
-1.65645e-05
4.66696e-05
-2.69787e-05
5.03126e-05
-3.85934e-05
5.4142e-05
5.79717e-05
-5.16841e-05
5.98543e-06
1.56693e-06
9.32285e-06
8.58942e-06
1.24774e-05
1.69545e-05
1.40636e-05
2.59187e-05
1.29517e-05
3.50438e-05
8.83361e-06
4.35256e-05
1.94543e-06
5.02167e-05
-6.6346e-06
5.52496e-05
-1.62634e-05
5.99414e-05
-2.71129e-05
6.49916e-05
7.00927e-05
-3.92339e-05
4.05484e-06
-2.4879e-06
7.73869e-06
4.90556e-06
1.11384e-05
1.35548e-05
1.35262e-05
2.35309e-05
1.41332e-05
3.44367e-05
1.2335e-05
4.53238e-05
7.81367e-06
5.47381e-05
1.01657e-06
6.20467e-05
-7.17948e-06
6.81375e-05
-1.64641e-05
7.42761e-05
8.06327e-05
-2.70041e-05
2.3145e-06
-4.8024e-06
6.1472e-06
1.07286e-06
9.90486e-06
9.79712e-06
1.28511e-05
2.05847e-05
1.44736e-05
3.28143e-05
1.4245e-05
4.55525e-05
1.16952e-05
5.72879e-05
6.88764e-06
6.68542e-05
3.96636e-07
7.46285e-05
-7.17257e-06
8.18454e-05
8.91341e-05
-1.56739e-05
1.04893e-06
-5.85133e-06
4.33991e-06
-2.21813e-06
8.41356e-06
5.72347e-06
1.20156e-05
1.69826e-05
1.45215e-05
3.03083e-05
1.54755e-05
4.45985e-05
1.44576e-05
5.83058e-05
1.13679e-05
6.99439e-05
6.60531e-06
7.9391e-05
6.75197e-07
8.77755e-05
9.56911e-05
-5.88184e-06
8.0666e-07
-6.65799e-06
2.99091e-06
-4.40238e-06
6.92841e-06
1.78597e-06
1.09443e-05
1.29667e-05
1.41712e-05
2.70815e-05
1.61019e-05
4.26678e-05
1.63405e-05
5.80671e-05
1.4723e-05
7.15614e-05
1.15186e-05
8.25955e-05
7.16251e-06
9.21315e-05
0.000101014
1.83934e-06
7.66106e-07
-7.42409e-06
2.22786e-06
-5.86413e-06
5.53491e-06
-1.52109e-06
9.62612e-06
8.87551e-06
1.33321e-05
2.33755e-05
1.60168e-05
3.99831e-05
1.72996e-05
5.67843e-05
1.69994e-05
7.18616e-05
1.52781e-05
8.43168e-05
1.25906e-05
9.48189e-05
0.000104147
9.45815e-06
7.58376e-07
-8.18247e-06
1.96951e-06
-7.07526e-06
4.40362e-06
-3.9552e-06
8.24832e-06
5.03081e-06
1.22133e-05
1.94105e-05
1.54613e-05
3.67351e-05
1.75999e-05
5.46458e-05
1.84462e-05
7.10153e-05
1.81039e-05
8.46591e-05
1.68782e-05
9.60446e-05
0.000105951
1.50741e-05
7.30733e-07
-8.9132e-06
1.8219e-06
-8.16642e-06
3.59038e-06
-5.72368e-06
6.91789e-06
1.7033e-06
1.08964e-05
1.5432e-05
1.45348e-05
3.30966e-05
1.73658e-05
5.18148e-05
1.9228e-05
6.91531e-05
2.01785e-05
8.37086e-05
2.05078e-05
9.57154e-05
0.000105974
2.04843e-05
5.36113e-07
-9.44932e-06
1.51221e-06
-9.14252e-06
2.94776e-06
-7.15923e-06
5.73191e-06
-1.08085e-06
9.53476e-06
1.16292e-05
1.3396e-05
2.92354e-05
1.67819e-05
4.84288e-05
1.95295e-05
6.64055e-05
2.16946e-05
8.15435e-05
2.35205e-05
9.38894e-05
0.000104165
2.53304e-05
4.48457e-07
-9.89777e-06
1.2138e-06
-9.90786e-06
2.3361e-06
-8.28153e-06
4.53157e-06
-3.27632e-06
7.96662e-06
8.19412e-06
1.18639e-05
2.53382e-05
1.56609e-05
4.46319e-05
1.92243e-05
6.2842e-05
2.2578e-05
7.81898e-05
2.59075e-05
9.056e-05
0.000100462
2.96096e-05
2.8785e-07
-1.01856e-05
8.13358e-07
-1.04334e-05
1.70273e-06
-9.1709e-06
3.34533e-06
-4.91893e-06
6.32582e-06
5.21364e-06
1.01245e-05
2.15395e-05
1.42246e-05
4.05317e-05
1.85221e-05
5.85445e-05
2.3022e-05
7.36899e-05
2.77754e-05
8.58066e-05
9.53217e-05
3.2916e-05
6.50829e-08
-1.02507e-05
3.20754e-07
-1.0689e-05
9.08031e-07
-9.75818e-06
2.14293e-06
-6.15383e-06
4.6547e-06
2.70186e-06
8.27719e-06
1.7917e-05
1.25729e-05
3.62361e-05
1.75633e-05
5.35541e-05
2.31835e-05
6.80697e-05
2.9474e-05
7.95161e-05
8.83239e-05
3.64718e-05
-1.2377e-07
-1.01269e-05
-1.80723e-07
-1.06321e-05
-1.65154e-08
-9.92238e-06
7.38567e-07
-6.90891e-06
2.80843e-06
6.32003e-07
6.17164e-06
1.45538e-05
1.071e-05
3.16977e-05
1.62476e-05
4.80165e-05
2.30145e-05
6.13028e-05
3.08809e-05
7.16496e-05
7.94339e-05
3.9771e-05
-3.30727e-07
-9.79621e-06
-7.2878e-07
-1.0234e-05
-1.01831e-06
-9.63286e-06
-8.54814e-07
-7.0724e-06
6.32533e-07
-8.55344e-07
3.80034e-06
1.1386e-05
8.37796e-06
2.71201e-05
1.47042e-05
4.16903e-05
2.26241e-05
5.33829e-05
3.20922e-05
6.21816e-05
6.82383e-05
4.32878e-05
-5.94993e-07
-9.20122e-06
-1.35965e-06
-9.46938e-06
-2.0911e-06
-8.90141e-06
-2.52741e-06
-6.63609e-06
-1.86161e-06
-1.52114e-06
1.1654e-06
8.359e-06
5.98393e-06
2.23016e-05
1.28849e-05
3.47893e-05
2.19723e-05
4.42954e-05
3.29435e-05
5.12104e-05
5.51062e-05
4.60756e-05
-9.01353e-07
-8.29986e-06
-2.07201e-06
-8.29873e-06
-3.28448e-06
-7.68894e-06
-4.26863e-06
-5.65193e-06
-4.33901e-06
-1.45076e-06
-1.92201e-06
5.94201e-06
3.30736e-06
1.70722e-05
1.08429e-05
2.72538e-05
2.09181e-05
3.42202e-05
3.31013e-05
3.90271e-05
4.14097e-05
4.67978e-05
-1.25494e-06
-7.04493e-06
-2.89085e-06
-6.66281e-06
-4.68248e-06
-5.89731e-06
-6.2922e-06
-4.04221e-06
-6.95808e-06
-7.84886e-07
-5.30533e-06
4.28926e-06
5.54417e-08
1.17114e-05
8.27961e-06
1.90296e-05
1.92266e-05
2.32733e-05
3.2522e-05
2.57317e-05
2.58652e-05
4.80665e-05
-1.69911e-06
-5.34581e-06
-3.90716e-06
-4.45477e-06
-6.4083e-06
-3.39617e-06
-8.73873e-06
-1.71178e-06
-9.95844e-06
4.34831e-07
-8.80379e-06
3.1346e-06
-3.76888e-06
6.67651e-06
4.99115e-06
1.02696e-05
1.64232e-05
1.18412e-05
3.00005e-05
1.21544e-05
1.02382e-05
4.56276e-05
-2.55405e-06
-2.79176e-06
-5.7449e-06
-1.26393e-06
-9.09543e-06
-4.56422e-08
-1.18535e-05
1.04632e-06
-1.31947e-05
1.77603e-06
-1.21523e-05
2.09217e-06
-7.55956e-06
2.08377e-06
1.21242e-06
1.49761e-06
1.29514e-05
1.02235e-07
2.69701e-05
-1.86433e-06
-6.66128e-06
4.38696e-05
-4.57411e-06
1.78235e-06
-7.09477e-06
1.25673e-06
-8.9642e-06
1.8238e-06
-9.22122e-06
1.30334e-06
-7.09194e-06
-3.53259e-07
-1.76759e-06
-3.23217e-06
6.80289e-06
-6.48671e-06
1.7756e-05
-9.45546e-06
3.06896e-05
-1.28314e-05
4.62089e-05
-1.73836e-05
-2.37452e-05
6.32929e-05
1.2445e-07
1.6579e-06
2.06687e-06
-6.85682e-07
6.14502e-06
-2.25436e-06
1.23812e-05
-4.93283e-06
2.00822e-05
-8.05429e-06
2.83144e-05
-1.14643e-05
3.71292e-05
-1.53016e-05
4.73226e-05
-1.96488e-05
5.94831e-05
-2.49919e-05
7.39446e-05
-3.18451e-05
-4.09702e-05
9.11696e-05
1.20409e-05
1.84482e-05
2.50927e-05
3.15978e-05
3.79856e-05
4.45095e-05
5.15928e-05
5.9771e-05
6.94382e-05
8.10102e-05
9.49278e-05
-6.5012e-06
1.95833e-05
-1.30821e-05
-1.21174e-05
1.7923e-05
-1.23068e-05
-1.98828e-05
2.10786e-05
-1.33132e-05
-2.76893e-05
2.25289e-05
-1.47224e-05
-3.56307e-05
2.4729e-05
-1.67876e-05
-4.39194e-05
2.78457e-05
-1.95571e-05
-5.29583e-05
3.21925e-05
-2.31537e-05
-6.31813e-05
3.80207e-05
-2.77977e-05
-7.50596e-05
4.57023e-05
-3.3824e-05
-8.91653e-05
5.57975e-05
-4.16918e-05
6.91485e-05
-5.20017e-05
-0.000106312
1.9178e-06
1.76655e-05
1.7266e-06
1.81142e-05
-2.65005e-06
2.54553e-05
-8.66375e-06
2.85426e-05
-1.62718e-05
3.23371e-05
-2.49014e-05
3.64753e-05
-3.4586e-05
4.18772e-05
-4.55938e-05
4.90284e-05
-5.83896e-05
5.84981e-05
-7.35458e-05
7.09537e-05
8.73456e-05
-9.17429e-05
2.18037e-06
1.54851e-05
2.34594e-06
1.79486e-05
9.13321e-07
2.68879e-05
-2.05387e-06
3.15098e-05
-7.32894e-06
3.76122e-05
-1.42617e-05
4.3408e-05
-2.27176e-05
5.03331e-05
-3.2674e-05
5.89848e-05
-4.43737e-05
7.01978e-05
-5.82754e-05
8.48555e-05
0.000104115
-7.50449e-05
1.58612e-06
1.3899e-05
1.33991e-06
1.81948e-05
1.02511e-06
2.72027e-05
-4.22017e-07
3.29569e-05
-3.61433e-06
4.08045e-05
-8.3106e-06
4.81043e-05
-1.46845e-05
5.6707e-05
-2.26479e-05
6.69483e-05
-3.23025e-05
7.98524e-05
-4.3889e-05
9.6442e-05
0.000118052
-5.78261e-05
1.27442e-06
1.26246e-05
1.01511e-06
1.84541e-05
9.8437e-07
2.72334e-05
7.17011e-08
3.38696e-05
-1.76299e-06
4.26392e-05
-4.70755e-06
5.10489e-05
-9.0652e-06
6.10646e-05
-1.48587e-05
7.27418e-05
-2.21717e-05
8.71653e-05
-3.11492e-05
0.000105419
0.000128949
-4.20461e-05
1.23224e-06
1.13923e-05
1.349e-06
1.83374e-05
1.61808e-06
2.69644e-05
1.03941e-06
3.44482e-05
-5.39483e-09
4.3684e-05
-1.84217e-06
5.28857e-05
-4.66796e-06
6.38904e-05
-8.61026e-06
7.66841e-05
-1.37962e-05
9.23513e-05
-2.03192e-05
0.000111942
0.000136911
-2.8281e-05
1.24017e-06
1.01521e-05
1.76336e-06
1.78142e-05
2.34222e-06
2.63855e-05
2.16004e-06
3.46304e-05
1.68701e-06
4.4157e-05
6.1388e-07
5.39588e-05
-1.10248e-06
6.56068e-05
-3.59953e-06
7.91811e-05
-7.01137e-06
9.57631e-05
-1.14342e-05
0.000116365
0.000142487
-1.7011e-05
1.14752e-06
9.00463e-06
1.94772e-06
1.7014e-05
2.77613e-06
2.55571e-05
2.99446e-06
3.44121e-05
3.01532e-06
4.41362e-05
2.55969e-06
5.44144e-05
1.71949e-06
6.6447e-05
3.68439e-07
8.05322e-05
-1.56111e-06
9.76926e-05
-4.12759e-06
0.000118932
0.000145712
-7.35213e-06
1.09337e-06
7.91125e-06
2.16235e-06
1.5945e-05
3.22581e-06
2.44936e-05
3.83347e-06
3.38044e-05
4.2728e-06
4.36968e-05
4.35074e-06
5.43365e-05
4.20932e-06
6.65884e-05
3.76992e-06
8.09716e-05
3.02619e-06
9.84364e-05
1.95418e-06
0.000120004
0.000147092
5.74362e-07
1.23932e-06
6.67193e-06
2.60625e-06
1.45781e-05
3.95746e-06
2.31424e-05
4.96909e-06
3.27928e-05
5.79512e-06
4.28708e-05
6.33652e-06
5.37951e-05
6.75055e-06
6.61744e-05
7.02541e-06
8.06967e-05
7.19525e-06
9.82665e-05
7.2892e-06
0.00011991
0.000147083
7.298e-06
1.29892e-06
5.37301e-06
2.87832e-06
1.29987e-05
4.50054e-06
2.15202e-05
5.91664e-06
3.13767e-05
7.13963e-06
4.16478e-05
8.13339e-06
5.28013e-05
9.05662e-06
6.52511e-05
9.96176e-06
7.97916e-05
1.09381e-05
9.72902e-05
1.20638e-05
0.000118784
0.000145654
1.34933e-05
1.18559e-06
4.18742e-06
2.82686e-06
1.13574e-05
4.6352e-06
1.97119e-05
6.39011e-06
2.96218e-05
8.00035e-06
4.00376e-05
9.46661e-06
5.13351e-05
1.0923e-05
6.37948e-05
1.2462e-05
7.82526e-05
1.42139e-05
9.55383e-05
1.63017e-05