/*--------------------------------*- C++ -*----------------------------------*\
| =========                 |                                                 |
| \\      /  F ield         | OpenFOAM: The Open Source CFD Toolbox           |
|  \\    /   O peration     | Version:  3.0.1                                 |
|   \\  /    A nd           | Web:      www.OpenFOAM.org                      |
|    \\/     M anipulation  |                                                 |
\*---------------------------------------------------------------------------*/
FoamFile
{
    version     2.0;
    format      ascii;
    class       surfaceVectorField;
    location    "0.733329";
    object      Uf;
}
// * * * * * * * * * * * * * * * * * * * * * * * * * * * * * * * * * * * * * //

dimensions      [0 1 -1 0 0 0 0];

internalField   nonuniform List<vector> 
32369
(
(0.835314 -5.63598 -4.58699e-18)
(-0.637975 -3.06207 -4.96138e-18)
(4.27968 -6.99751 -6.18136e-18)
(1.5684 -4.00195 3.82558e-18)
(0.140356 -3.32694 4.61739e-18)
(3.40552 -4.49485 3.53125e-18)
(2.10319 -3.0794 -1.14882e-18)
(1.01527 -3.05772 4.09864e-19)
(3.15519 -3.5455 -6.23052e-19)
(2.39821 -2.42354 -1.00977e-18)
(1.63447 -2.61644 -9.61924e-19)
(3.03737 -2.72718 -4.58813e-19)
(2.5529 -1.92319 -5.89809e-19)
(2.01896 -2.16034 5.06906e-19)
(2.9677 -2.13514 -7.80359e-19)
(2.6296 -1.52773 9.79851e-19)
(2.2542 -1.74313 1.05612e-19)
(2.92039 -1.67491 1.0997e-19)
(2.66427 -1.21028 3.21904e-19)
(2.39545 -1.38879 1.31451e-18)
(2.8782 -1.31492 1.16997e-18)
(2.67415 -0.954586 -6.65267e-19)
(2.47948 -1.09772 -5.58389e-19)
(2.83553 -1.02918 -7.5495e-19)
(2.66834 -0.7492 2.58408e-20)
(2.52843 -0.861837 -1.11042e-19)
(2.7925 -0.801631 6.81375e-19)
(2.65221 -0.584628 5.05465e-20)
(2.55378 -0.673678 -4.4549e-19)
(2.74986 -0.622197 -6.94722e-19)
(2.55755 -0.527932 2.77346e-19)
(2.70421 -0.48599 7.83753e-19)
(2.61518 -0.435455 7.81066e-19)
(-1.25638 -1.8144 2.50029e-18)
(-1.61161 -0.568813 -7.7509e-18)
(-0.39709 -2.4688 1.72169e-18)
(-0.814852 -1.4098 3.2535e-18)
(0.485696 -2.48188 3.61765e-19)
(-0.228247 -1.74358 -9.82363e-19)
(1.19826 -2.24651 6.75927e-19)
(0.490914 -1.85359 6.39715e-19)
(1.69995 -1.91708 1.03016e-18)
(1.09506 -1.78167 7.50221e-20)
(2.02115 -1.57774 1.59625e-19)
(1.55453 -1.58752 2.05269e-20)
(2.21777 -1.26908 5.29297e-19)
(1.87881 -1.33826 -3.74481e-19)
(2.33819 -1.00548 -3.85774e-20)
(2.099 -1.08688 6.16811e-19)
(2.41437 -0.787986 -5.76389e-19)
(2.24667 -0.861378 -1.0034e-18)
(2.46542 -0.612322 -5.46215e-19)
(2.34405 -0.671781 -1.1999e-19)
(2.40269 -0.523573 -5.5862e-19)
(2.49138 -0.46074 -9.6344e-19)
(-1.03782 -0.409492 -7.81144e-18)
(-1.24667 0.397481 -1.98089e-18)
(-0.777764 -0.883774 1.51137e-18)
(-0.556241 -0.294412 2.44081e-18)
(-0.276639 -1.20971 -5.94456e-19)
(-0.420974 -0.578836 -5.46496e-18)
(0.305966 -1.39269 -3.08676e-20)
(0.0417832 -0.897031 2.23536e-18)
(0.879175 -1.41454 -1.07119e-18)
(0.53699 -1.07395 -9.61465e-19)
(1.36403 -1.30711 -6.79479e-19)
(1.01811 -1.1138 -6.58237e-19)
(1.73163 -1.12744 -6.56861e-19)
(1.42492 -1.04206 -2.6723e-19)
(1.99053 -0.928031 -1.46135e-19)
(1.74205 -0.907232 -2.95374e-19)
(2.16629 -0.74107 -7.17899e-19)
(1.97607 -0.751258 -1.52755e-19)
(2.28387 -0.582226 -1.94943e-19)
(2.14282 -0.602219 -1.62493e-19)
(2.25227 -0.474893 -1.10167e-19)
(2.36132 -0.442261 5.17571e-19)
(-0.463446 0.336063 7.4984e-18)
(-0.63526 0.851333 6.01345e-18)
(-0.373972 0.0135615 -3.88749e-18)
(-0.018618 0.382182 3.01812e-19)
(-0.151406 -0.309472 -3.39104e-18)
(-0.122962 0.203402 -2.22526e-18)
(0.171553 -0.590038 1.6166e-18)
(0.156248 -0.136303 -1.92217e-18)
(0.58459 -0.771684 -5.93072e-19)
(0.448846 -0.377618 1.59789e-18)
(1.01108 -0.842439 -2.49139e-19)
(0.813182 -0.550444 -6.59415e-19)
(1.39374 -0.816419 8.39375e-20)
(1.17423 -0.626036 -3.60195e-19)
(1.70337 -0.728404 -2.98369e-19)
(1.49677 -0.618866 1.28422e-18)
(1.93738 -0.613918 3.69811e-19)
(1.76242 -0.557696 -6.21038e-19)
(2.10785 -0.499484 -1.23425e-19)
(1.96917 -0.472558 1.82284e-20)
(2.11698 -0.386854 -2.13891e-19)
(2.22816 -0.392116 1.79762e-18)
(0.0667181 0.758017 2.12809e-19)
(-0.0612629 1.06583 8.20483e-21)
(0.105269 0.577194 1.79819e-18)
(0.486299 0.736942 2.97951e-21)
(0.194826 0.324795 -8.18537e-19)
(0.268844 0.670971 4.12196e-18)
(0.360649 0.0509428 -2.12311e-18)
(0.45893 0.381799 -5.20096e-18)
(0.607424 -0.182291 1.75343e-18)
(0.603773 0.144891 1.78999e-18)
(0.910146 -0.35014 -7.55846e-19)
(0.840411 -0.0656239 -8.12713e-21)
(1.22846 -0.43827 7.07613e-19)
(1.10921 -0.213861 -5.8783e-20)
(1.52275 -0.454478 1.13669e-18)
(1.3823 -0.295676 8.834e-19)
(1.77143 -0.42086 -1.04387e-18)
(1.63324 -0.317146 -7.47134e-19)
(1.96983 -0.36222 -5.26358e-20)
(1.84738 -0.2976 -2.17563e-19)
(2.01077 -0.256378 2.55396e-19)
(2.12578 -0.286161 -2.30509e-18)
(0.505209 0.962374 -1.99766e-19)
(0.391713 1.09765 -1.02176e-19)
(0.561661 0.878005 1.90058e-18)
(0.89336 0.951027 -2.20424e-18)
(0.577009 0.693648 1.09774e-18)
(0.649791 0.913129 5.61453e-18)
(0.650081 0.476314 -1.88642e-18)
(0.785249 0.687868 -1.57416e-18)
(0.788747 0.256201 2.11469e-19)
(0.84323 0.5002 -9.44087e-19)
(0.983406 0.0625603 6.84972e-19)
(0.986935 0.298006 -9.25031e-19)
(1.21427 -0.0805898 3.55755e-20)
(1.16928 0.127088 1.48211e-18)
(1.4538 -0.165403 -7.97604e-19)
(1.37671 -0.00011434 -1.85192e-18)
(1.67943 -0.199399 8.20076e-21)
(1.58769 -0.0746056 9.26667e-19)
(1.87593 -0.197796 2.51138e-20)
(1.78368 -0.107216 -2.32574e-19)
(1.94368 -0.108045 1.70219e-19)
(2.04029 -0.171542 1.49456e-18)
(0.855316 1.01919 -1.88833e-18)
(0.69694 1.07073 0)
(0.918713 1.02991 1.08659e-18)
(1.18971 1.01433 -4.23161e-19)
(0.911357 0.893813 4.19852e-18)
(0.980757 1.03653 2.22862e-18)
(0.945152 0.730951 -7.70741e-19)
(1.07572 0.864189 1.25149e-19)
(1.01633 0.547444 -2.0737e-18)
(1.09121 0.720433 -1.88912e-18)
(1.13341 0.366758 -3.44103e-19)
(1.17534 0.546187 -5.19818e-19)
(1.29055 0.210774 -9.08929e-20)
(1.2925 0.383312 4.19401e-19)
(1.47306 0.092678 -3.79735e-19)
(1.44112 0.245163 -5.49745e-19)
(1.66 0.0165451 8.11806e-19)
(1.60676 0.142445 7.28211e-19)
(1.83591 -0.022969 -1.38948e-19)
(1.77247 0.0753339 -4.34978e-19)
(1.91394 0.0401844 3.00887e-19)
(1.99139 -0.0299235 9.6882e-20)
(1.09555 1.02459 1.51317e-18)
(0.916779 1.05581 -4.63687e-21)
(1.19598 1.08742 5.34787e-19)
(1.40164 1.04856 1.80111e-18)
(1.18769 0.995492 -1.40627e-18)
(1.23974 1.08954 -2.53179e-18)
(1.20412 0.876439 -8.4903e-19)
(1.31662 0.958147 -1.15482e-18)
(1.24045 0.730281 -4.9248e-19)
(1.31445 0.850893 8.22159e-19)
(1.30956 0.574802 1.82082e-19)
(1.3649 0.707097 -1.99633e-19)
(1.41299 0.427081 6.59927e-20)
(1.4389 0.564392 1.16584e-21)
(1.54386 0.301104 4.72418e-19)
(1.54215 0.431852 -3.85398e-19)
(1.68946 0.204675 -3.85437e-19)
(1.66656 0.320662 5.56772e-19)
(1.83589 0.137229 -7.99053e-20)
(1.8 0.235453 -7.88741e-19)
(1.91755 0.180079 7.39956e-19)
(1.97336 0.0944075 3.24175e-19)
(1.27718 1.02127 5.2501e-19)
(1.09757 1.03711 3.49134e-19)
(1.40338 1.11238 -1.39157e-18)
(1.57922 1.06334 -1.02669e-18)
(1.40523 1.04645 -2.43639e-18)
(1.44605 1.11645 -1.51e-18)
(1.41752 0.956816 3.46454e-19)
(1.51334 1.0079 -7.96314e-19)
(1.43802 0.841099 1.22376e-18)
(1.50392 0.926953 1.39433e-18)
(1.48018 0.711911 -4.13017e-19)
(1.53624 0.808845 -2.49254e-20)
(1.5484 0.581425 -4.00803e-19)
(1.58353 0.687865 -1.56855e-19)
(1.64101 0.460994 -3.82827e-19)
(1.65535 0.568205 -4.16034e-19)
(1.75128 0.358917 2.82226e-19)
(1.74767 0.459896 -7.16422e-21)
(1.86948 0.277727 -1.67413e-19)
(1.85338 0.368653 -1.485e-18)
(1.95163 0.303002 8.56734e-19)
(1.98672 0.214801 -1.72384e-18)
(1.43559 0.984995 -2.21637e-19)
(1.22321 0.961324 -9.41321e-19)
(1.57733 1.10797 -1.35666e-18)
(1.72099 1.036 -1.14614e-18)
(1.58231 1.06505 6.23767e-20)
(1.60955 1.11521 1.2547e-19)
(1.59222 0.997992 5.76426e-20)
(1.67315 1.02702 7.82864e-19)
(1.60488 0.906397 3.09759e-19)
(1.66099 0.968727 -7.92616e-19)
(1.63216 0.80031 2.49314e-19)
(1.68401 0.872012 8.02397e-19)
(1.67872 0.688422 -1.501e-19)
(1.71544 0.771054 -4.00921e-19)
(1.74539 0.579363 -7.87708e-20)
(1.76681 0.666197 -2.35047e-19)
(1.82936 0.480631 -1.59291e-18)
(1.83615 0.566259 -1.01557e-18)
(1.92532 0.39667 -7.55186e-19)
(1.92039 0.476607 2.8585e-19)
(2.0011 0.408192 5.53604e-19)
(2.02901 0.333101 9.46423e-19)
(1.54016 0.923343 -1.41009e-18)
(1.28955 0.864142 -2.72202e-18)
(1.71136 1.08106 2.1081e-19)
(1.81255 0.997463 1.02795e-18)
(1.72323 1.06113 7.78291e-19)
(1.72918 1.09884 1.31382e-18)
(1.73405 1.01405 5.22825e-20)
(1.79757 1.02741 6.13171e-19)
(1.74362 0.942833 -4.71716e-19)
(1.78781 0.988977 -1.75195e-18)
(1.76308 0.856492 2.78607e-19)
(1.80809 0.910121 2.05235e-19)
(1.79675 0.761899 -5.00027e-19)
(1.83115 0.826842 4.12868e-19)
(1.84646 0.665775 -1.08776e-18)
(1.87001 0.736321 5.37604e-19)
(1.91141 0.574543 7.38354e-19)
(1.92359 0.646529 -4.694e-19)
(1.98811 0.492638 1.54075e-18)
(1.99158 0.561532 7.2264e-19)
(2.05723 0.494779 -4.52598e-19)
(2.07045 0.420594 0)
(1.59055 0.881057 -9.70902e-19)
(1.34833 0.811788 -1.32739e-18)
(1.80148 1.05929 2.10809e-18)
(1.88198 0.984196 2.53134e-19)
(1.82788 1.05268 1.33958e-18)
(1.82204 1.08949 1.70333e-18)
(1.84533 1.01885 -1.03119e-18)
(1.89578 1.02499 3.27246e-20)
(1.85679 0.962959 -1.3077e-18)
(1.88992 1.0001 -3.3788e-19)
(1.87374 0.892451 3.12092e-19)
(1.9112 0.934056 -1.3252e-18)
(1.90057 0.812753 1.45149e-18)
(1.93069 0.865207 1.0586e-18)
(1.93982 0.728986 1.27465e-18)
(1.96266 0.787244 9.84269e-20)
(1.99195 0.646381 -5.92001e-19)
(2.00613 0.707678 0)
(2.05539 0.568796 -1.14154e-18)
(2.06301 0.628953 -6.66379e-19)
(2.11819 0.565749 -8.53302e-21)
(2.12583 0.498246 -3.28011e-19)
(1.63669 0.852402 -5.33156e-19)
(1.39896 0.766944 1.06534e-18)
(1.87434 1.04602 -1.39157e-19)
(1.94458 0.970226 -2.038e-18)
(1.91056 1.0471 6.73785e-19)
(1.90134 1.08226 8.10683e-19)
(1.93432 1.02137 7.28756e-19)
(1.97802 1.02271 -3.2094e-19)
(1.94923 0.97596 -2.496e-19)
(1.97459 1.00843 5.53996e-19)
(1.96666 0.917273 -8.22963e-19)
(1.998 0.951125 -1.30331e-18)
(1.99066 0.849558 -2.0231e-19)
(2.01628 0.89366 3.24193e-20)
(2.02404 0.776568 -1.179e-18)
(2.04486 0.825968 -6.7561e-20)
(2.06815 0.702525 0)
(2.08218 0.755768 3.66381e-19)
(2.1232 0.630683 4.00029e-19)
(2.13227 0.68361 0)
(2.18065 0.625969 4.51096e-19)
(2.19095 0.567612 3.57111e-19)
(1.67782 0.806156 1.47664e-19)
(1.3958 0.693744 -3.53502e-19)
(1.93755 1.02543 -1.17955e-18)
(1.97686 0.941984 -2.45907e-19)
(1.98109 1.03975 -7.07269e-20)
(1.96104 1.0707 -5.93905e-19)
(2.00935 1.02263 -5.91516e-19)
(2.04518 1.01903 1.25731e-18)
(2.02699 0.985854 -2.91485e-19)
(2.04556 1.01506 -7.63626e-19)
(2.04584 0.936415 -5.78595e-19)
(2.07224 0.964546 0)
(2.06904 0.878278 1.83872e-19)
(2.09064 0.916522 -6.4832e-19)
(2.09943 0.814334 1.44585e-18)
(2.11796 0.857145 1.48214e-18)
(2.13874 0.748154 4.07607e-19)
(2.15156 0.795279 -3.51336e-19)
(2.18778 0.682347 0)
(2.19748 0.728913 -1.03355e-18)
(2.24148 0.676809 3.89331e-19)
(2.24579 0.619783 -3.26543e-19)
(1.68525 0.775891 -6.53231e-19)
(1.40888 0.651259 1.44341e-18)
(1.97994 1.01089 3.70374e-19)
(2.00435 0.931194 1.15095e-19)
(2.03802 1.03471 4.51378e-19)
(2.0129 1.06513 -1.58644e-18)
(2.07267 1.02424 1.2552e-18)
(2.10177 1.01844 2.20444e-18)
(2.09374 0.994405 -5.52117e-19)
(2.1068 1.02113 -9.89392e-19)
(2.11463 0.952439 0)
(2.13679 0.976047 3.79899e-19)
(2.1381 0.902132 4.21159e-19)
(2.1562 0.935779 0)
(2.16717 0.845819 -1.26003e-19)
(2.18349 0.883371 4.72925e-19)
(2.2038 0.786543 -1.7288e-18)
(2.21509 0.829024 -3.94688e-19)
(2.24936 0.726281 -8.30893e-19)
(2.25865 0.767956 -2.95136e-19)
(2.30031 0.720065 -3.29011e-19)
(2.30393 0.668548 6.96646e-19)
(1.69546 0.755287 2.29965e-18)
(1.43215 0.615934 2.63491e-18)
(2.01575 1.00185 -1.67318e-18)
(2.03015 0.918879 -8.84283e-19)
(2.08704 1.03298 -4.0279e-19)
(2.06276 1.05788 -9.92877e-19)
(2.12763 1.02718 2.43039e-19)
(2.15243 1.01949 1.08002e-18)
(2.1523 1.00227 -2.20057e-19)
(2.16223 1.02619 -1.44535e-18)
(2.17556 0.966313 4.2084e-19)
(2.19423 0.986441 1.24076e-20)
(2.19988 0.922591 0)
(2.21497 0.952334 7.07369e-19)
(2.22866 0.873043 2.98423e-19)
(2.24268 0.906182 2.09886e-19)
(2.26405 0.820027 1.03063e-18)
(2.27363 0.858632 1.80045e-19)
(2.30787 0.764983 2.0926e-19)
(2.31594 0.803084 9.8417e-19)
(2.35888 0.759035 -7.28651e-19)
(2.36268 0.709887 4.14482e-19)
(1.71023 0.720717 -8.90549e-20)
(1.41972 0.568406 -6.58225e-19)
(2.04765 0.98338 -1.78861e-19)
(2.03227 0.894331 8.85675e-19)
(2.13158 1.02769 1.98678e-19)
(2.10093 1.04377 -1.77273e-18)
(2.1772 1.02892 -3.89423e-19)
(2.19476 1.01907 6.16075e-19)
(2.20501 1.00896 -1.40584e-18)
(2.21202 1.02907 -4.81339e-19)
(2.23035 0.978495 2.38838e-19)
(2.24558 0.995473 -3.69787e-19)
(2.2557 0.940579 9.73388e-19)
(2.268 0.96663 5.70036e-19)
(2.28484 0.897268 9.39146e-20)
(2.29628 0.926647 4.42063e-22)
(2.32007 0.850146 2.97749e-20)
(2.32763 0.885389 4.48918e-19)
(2.36321 0.800508 2.54461e-19)
(2.36926 0.83573 -3.29783e-19)
(2.41317 0.794158 0)
(2.41475 0.749654 -9.54777e-19)
(1.70333 0.690248 1.63177e-19)
(1.41372 0.528814 -5.68135e-19)
(2.06464 0.962768 -5.323e-19)
(2.0267 0.870848 1.9236e-18)
(2.16756 1.02018 -1.6631e-18)
(2.13134 1.02799 -2.37825e-18)
(2.22071 1.02883 6.32516e-19)
(2.23048 1.01755 1.64252e-19)
(2.25236 1.01385 5.24812e-19)
(2.25652 1.02947 4.59346e-19)
(2.27963 0.988776 -1.25717e-19)
(2.29111 1.00259 -1.11017e-20)
(2.30603 0.956616 -3.44929e-19)
(2.31526 0.978884 -1.40946e-19)
(2.33597 0.919577 3.07369e-19)
(2.3443 0.945623 -2.12408e-19)
(2.37188 0.878282 1.6946e-19)
(2.37709 0.910584 4.61724e-19)
(2.41532 0.833516 -6.26837e-19)
(2.41915 0.86698 -4.59167e-19)
(2.46513 0.827095 -1.28106e-19)
(2.46695 0.78573 1.44169e-19)
(1.68945 0.662015 9.3594e-19)
(1.41009 0.491435 0)
(2.071 0.940302 3.4551e-19)
(2.01391 0.843135 2.12663e-18)
(2.19551 1.01017 -8.83516e-19)
(2.15533 1.00598 -1.69338e-18)
(2.25808 1.02604 -2.48394e-21)
(2.26082 1.01094 5.93016e-19)
(2.29402 1.01609 -2.60116e-20)
(2.29546 1.02505 -4.82661e-19)
(2.32298 0.996865 -1.22968e-20)
(2.32999 1.00643 -4.43018e-20)
(2.35055 0.971214 0)
(2.35576 0.989225 0)
(2.382 0.94096 -1.34413e-19)
(2.38629 0.964061 0)
(2.41971 0.90565 -7.12679e-20)
(2.42188 0.93571 -1.5163e-19)
(2.4649 0.865304 6.74335e-21)
(2.46613 0.898421 1.094e-19)
(2.51643 0.859832 -1.48198e-19)
(2.51731 0.818347 -4.26682e-19)
(1.67457 0.630188 9.73851e-19)
(1.40546 0.45252 -8.9545e-19)
(2.06966 0.908555 3.45771e-19)
(1.9903 0.803682 1.14299e-18)
(2.21606 0.990767 -4.57932e-19)
(2.16821 0.969146 -1.69253e-18)
(2.28841 1.01537 2.05473e-19)
(2.28093 0.991314 1.28308e-18)
(2.32814 1.01298 -5.46939e-19)
(2.32338 1.01125 -4.642e-19)
(2.3586 1.00193 -3.69172e-20)
(2.35829 1.00502 1.50342e-20)
(2.38802 0.984957 0)
(2.38678 0.997862 0)
(2.42235 0.962828 0)
(2.42093 0.98304 -1.94848e-19)
(2.4635 0.933925 0)
(2.46161 0.962241 1.36429e-19)
(2.5118 0.898269 -1.61913e-20)
(2.5098 0.931371 -4.71555e-20)
(2.5634 0.894452 1.60509e-20)
(2.56315 0.855476 -3.23976e-19)
(1.6542 0.589732 -9.10617e-19)
(1.39913 0.406234 -1.64653e-18)
(2.05527 0.859044 -6.47969e-19)
(1.95444 0.744085 -1.42298e-20)
(2.22221 0.952422 -3.37185e-19)
(2.16054 0.906606 -9.21013e-19)
(2.30417 0.989378 7.74934e-19)
(2.27793 0.949431 1.23294e-18)
(2.34828 1.00036 4.20855e-20)
(2.32847 0.983767 0)
(2.38183 1.00307 5.24901e-20)
(2.36737 0.997185 4.69151e-20)
(2.41581 0.998552 -1.73121e-19)
(2.40352 1.00536 0)
(2.45594 0.98619 -9.56669e-20)
(2.44619 1.00338 -1.77531e-20)
(2.5028 0.964163 1.10378e-19)
(2.49532 0.990894 1.39544e-20)
(2.55548 0.932888 -2.14662e-20)
(2.54969 0.966058 1.34445e-19)
(2.60731 0.930811 3.4721e-20)
(2.61117 0.893166 -4.218e-19)
(1.63336 0.532452 -8.89425e-19)
(1.41373 0.335224 -7.37242e-19)
(2.02155 0.778358 -2.07642e-19)
(1.89374 0.639217 -8.51824e-19)
(2.20106 0.883805 3.04636e-19)
(2.10738 0.80976 9.43664e-19)
(2.29134 0.941636 5.94861e-19)
(2.22545 0.88262 4.62941e-20)
(2.34348 0.976123 0)
(2.29074 0.943332 3.24505e-19)
(2.38603 0.999975 0)
(2.34469 0.983566 0)
(2.4306 1.01216 1.60221e-19)
(2.39854 1.01131 0)
(2.48113 1.01104 9.18509e-20)
(2.45764 1.02329 4.85909e-19)
(2.53657 0.996112 2.20603e-20)
(2.51989 1.01944 -6.02979e-19)
(2.59555 0.968979 2.0334e-19)
(2.5835 1.00093 2.6572e-19)
(2.64823 0.966724 1.02368e-19)
(2.648 0.930926 -2.93624e-19)
(1.53344 0.417736 -6.75154e-19)
(1.44945 0.170133 0)
(1.90496 0.67176 3.25215e-20)
(1.76788 0.5695 -7.24807e-19)
(2.08909 0.797151 7.18912e-19)
(1.97081 0.686638 8.82876e-19)
(2.20037 0.882644 -1.97678e-19)
(2.10277 0.793744 -5.94693e-19)
(2.27924 0.946224 3.55935e-19)
(2.19569 0.890023 2.56926e-19)
(2.34952 0.994387 0)
(2.27888 0.961901 -6.46134e-20)
(2.41982 1.02358 2.68763e-19)
(2.36229 1.01062 4.57736e-20)
(2.49051 1.0331 -8.24317e-20)
(2.44543 1.03559 5.89661e-20)
(2.55991 1.0257 -4.62001e-19)
(2.52469 1.04037 4.0782e-19)
(2.62866 1.00504 1.70354e-19)
(2.60023 1.03019 -1.13064e-19)
(2.67469 1.00543 3.15243e-20)
(2.69032 0.975734 2.00305e-19)
(1.95574 0.21182 0)
(1.91834 -1.02692 1.24612e-18)
(2.03079 0.39864 -3.4732e-19)
(0.85354 0.0153079 2.91802e-19)
(2.10394 0.607054 -4.49386e-19)
(1.08667 0.177451 -3.4276e-19)
(2.16277 0.75935 -1.45892e-19)
(1.39406 0.314514 -8.95241e-21)
(2.2212 0.880851 -2.5843e-19)
(1.62057 0.473073 -1.68008e-19)
(2.29385 0.970179 -2.90328e-20)
(1.82989 0.614981 -5.9934e-20)
(2.37858 1.02218 -1.48793e-19)
(2.02641 0.73056 2.14256e-19)
(2.46585 1.04392 4.87831e-19)
(2.19765 0.818191 -7.63569e-19)
(2.54999 1.04625 7.93483e-19)
(2.34181 0.879883 7.49664e-19)
(2.63148 1.03621 -2.40758e-19)
(2.46629 0.920282 -5.537e-19)
(2.5848 0.95236 2.12381e-19)
(2.70308 1.02704 -6.84886e-19)
(5.03925 -4.39666 -8.37424e-19)
(6.25769 -5.59472 -9.10216e-18)
(4.36932 -4.05573 0)
(5.51814 -2.54534 0)
(4.01862 -3.32759 0)
(5.24647 -2.90923 6.47881e-19)
(3.64656 -2.59444 -4.34272e-19)
(4.62824 -2.45328 0)
(3.38218 -1.99668 -5.38063e-19)
(4.07122 -1.99004 -2.41304e-19)
(3.203 -1.53575 1.52848e-19)
(3.67271 -1.58127 -1.72792e-19)
(3.07418 -1.18387 3.0752e-19)
(3.39948 -1.23655 4.4294e-20)
(2.97305 -0.912836 3.75074e-19)
(3.20512 -0.955168 -2.16436e-20)
(2.88907 -0.702747 1.05795e-19)
(3.05867 -0.730542 2.14912e-19)
(2.81687 -0.540183 -2.15504e-19)
(2.94316 -0.553881 -1.83488e-19)
(2.84663 -0.421554 0)
(2.7414 -0.406311 0)
(5.01363 -1.64987 -5.74392e-18)
(4.94757 -3.12032 -7.31217e-18)
(5.54827 -2.08918 5.0556e-19)
(5.16949 -0.188537 0)
(5.37774 -2.1614 6.29208e-19)
(5.98132 -1.39983 1.35033e-18)
(4.85121 -2.03079 7.77967e-20)
(5.60448 -1.42962 -5.10898e-19)
(4.30812 -1.73425 -4.42734e-20)
(5.00268 -1.37188 6.94321e-19)
(3.86498 -1.39131 -3.38861e-19)
(4.41647 -1.20957 -9.60707e-19)
(3.53816 -1.07643 -3.61083e-19)
(3.9452 -0.996322 -1.78576e-19)
(3.29971 -0.816394 -2.07638e-19)
(3.59325 -0.781231 -1.63115e-19)
(3.11998 -0.612005 -1.07359e-20)
(3.3327 -0.591617 4.79086e-20)
(2.97877 -0.456212 6.75772e-21)
(3.13552 -0.435374 1.4533e-19)
(2.98241 -0.317999 1.4238e-20)
(2.8426 -0.330347 -3.59598e-19)
(4.16653 -0.190399 -2.44335e-18)
(3.54537 -1.59303 -1.71442e-17)
(5.37849 -0.130787 2.72675e-19)
(4.23926 1.15859 2.31993e-17)
(5.68428 -0.450315 -9.16872e-20)
(5.66203 0.0664097 -8.97073e-18)
(5.45854 -0.800738 -1.97589e-20)
(5.66593 -0.0614136 -3.72708e-18)
(4.97417 -0.940347 3.69265e-19)
(5.37738 -0.365923 3.48355e-18)
(4.44713 -0.902674 -5.77398e-19)
(4.88028 -0.502611 5.99946e-19)
(3.98887 -0.765071 8.12636e-21)
(4.37038 -0.516038 -1.467e-18)
(3.6288 -0.599672 9.01665e-20)
(3.93115 -0.448762 2.89864e-19)
(3.35537 -0.44561 1.83292e-19)
(3.58377 -0.350442 6.50364e-20)
(3.14838 -0.316049 1.3287e-19)
(3.31791 -0.250668 1.09895e-19)
(3.11543 -0.169843 1.40703e-20)
(2.96859 -0.208742 -2.53097e-20)
(3.2312 0.362622 6.5802e-18)
(2.38693 -0.868948 -1.49028e-17)
(4.69508 0.966624 1.84249e-17)
(3.38659 1.59886 1.2784e-17)
(5.34071 0.825491 -1.28714e-17)
(4.97512 1.01763 -7.93448e-18)
(5.43378 0.419901 -7.81665e-19)
(5.21439 1.04788 1.57486e-18)
(5.17757 0.0611245 4.28763e-18)
(5.25095 0.612828 2.85047e-18)
(4.75107 -0.168977 2.67695e-19)
(4.95488 0.312953 1.34398e-18)
(4.29408 -0.254022 -1.52183e-18)
(4.54937 0.106489 -2.12058e-18)
(3.88499 -0.24337 2.36633e-19)
(4.12837 0.00942259 8.88649e-19)
(3.55195 -0.188074 -1.51989e-19)
(3.75557 -0.0147445 1.14158e-19)
(3.29292 -0.122339 -7.53548e-20)
(3.45119 0.00154123 -2.12792e-19)
(3.21438 0.0280493 0)
(3.05261 -0.061984 0)
(2.39965 0.46194 -8.76198e-18)
(1.49491 -0.594369 1.15356e-17)
(3.92505 1.4201 -1.07649e-17)
(2.75166 1.62006 -9.93088e-18)
(4.74255 1.55551 6.52506e-18)
(4.29757 1.52549 -5.45246e-18)
(5.0363 1.30214 5.13196e-18)
(4.63133 1.74144 4.70483e-18)
(4.99543 0.929835 9.31361e-20)
(4.8587 1.34416 0)
(4.73975 0.581604 -4.33161e-19)
(4.73803 1.02304 -1.52103e-18)
(4.3813 0.339015 -2.03295e-19)
(4.48284 0.719139 -6.46685e-19)
(4.00475 0.20214 8.91363e-19)
(4.14847 0.505067 1.98389e-18)
(3.66511 0.142523 1.56237e-19)
(3.81031 0.370175 5.27811e-19)
(3.38409 0.126808 -1.61598e-19)
(3.50881 0.29796 -6.0179e-19)
(3.25981 0.266432 3.94034e-19)
(3.12188 0.122663 3.38425e-19)
(1.73192 0.431898 1.25625e-17)
(0.816267 -0.519432 2.13899e-17)
(3.24593 1.58334 -5.4505e-18)
(2.25652 1.53334 -8.08477e-18)
(4.11986 1.92 -7.1879e-18)
(3.70189 1.78385 -6.20471e-18)
(4.51342 1.83399 7.28718e-20)
(4.0798 2.1238 4.50284e-18)
(4.61076 1.53969 -1.44502e-18)
(4.39213 1.81858 -9.49586e-19)
(4.50505 1.1928 -1.78984e-18)
(4.38228 1.54691 -2.63362e-18)
(4.27134 0.886923 1.11971e-18)
(4.25455 1.22454 -2.41776e-18)
(3.97467 0.655972 1.78196e-18)
(4.02099 0.956235 3.39758e-18)
(3.67315 0.502274 -3.43871e-20)
(3.74942 0.74813 4.00006e-19)
(3.40327 0.406733 -3.02036e-19)
(3.48127 0.603067 -3.01714e-19)
(3.2443 0.517197 2.4628e-19)
(3.12516 0.333906 5.87691e-19)
(1.20824 0.365439 3.80785e-18)
(0.287753 -0.539174 9.88953e-18)
(2.68685 1.63022 -8.5144e-18)
(1.8366 1.42795 -7.24482e-18)
(3.56696 2.09982 4.36242e-18)
(3.18013 1.91127 3.47131e-19)
(3.99934 2.13543 4.16988e-18)
(3.59153 2.32545 4.47343e-19)
(4.16807 1.92657 -2.16e-18)
(3.93588 2.10822 3.20772e-18)
(4.16365 1.62905 -3.23575e-18)
(3.98755 1.90118 -1.85698e-18)
(4.03515 1.32356 -7.6435e-19)
(3.94949 1.60012 -4.2283e-18)
(3.8263 1.054 2.32735e-18)
(3.80074 1.32253 3.97871e-18)
(3.5846 0.841976 2.03131e-19)
(3.59995 1.07917 -1.93451e-18)
(3.34951 0.686193 3.1015e-20)
(3.38007 0.885233 1.74684e-19)
(3.1676 0.745578 -1.84364e-19)
(3.10727 0.555386 -1.28304e-19)
(0.803683 0.284589 7.23057e-19)
(-0.0927464 -0.592683 -1.17255e-17)
(2.23778 1.62636 8.87005e-19)
(1.49051 1.32567 1.13561e-17)
(3.09836 2.18574 -3.59289e-18)
(2.73122 1.96544 -4.94135e-18)
(3.53933 2.30438 -8.38305e-19)
(3.16483 2.42535 -4.02896e-18)
(3.73916 2.16335 3.87469e-18)
(3.51489 2.27874 2.05615e-18)
(3.79422 1.92118 -2.53373e-18)
(3.59884 2.12985 -3.47883e-18)
(3.74001 1.64241 -2.68968e-19)
(3.61965 1.86264 2.14673e-19)
(3.60529 1.37003 4.14792e-19)
(3.53425 1.59876 3.05812e-18)
(3.42527 1.13232 -2.19681e-18)
(3.39537 1.34603 -1.32087e-18)
(3.23172 0.941901 0)
(3.22833 1.12827 0)
(3.05688 0.959532 -7.14928e-20)
(3.01144 0.78094 1.27878e-18)
(0.481478 0.209936 -3.68484e-18)
(-0.374589 -0.648709 -1.02925e-17)
(1.86494 1.59406 7.21155e-18)
(1.19276 1.23249 1.0677e-17)
(2.69791 2.21656 -5.48254e-18)
(2.34182 1.97527 -7.48207e-18)
(3.13501 2.39446 -1.86279e-18)
(2.78922 2.46505 2.64139e-18)
(3.34518 2.3043 -4.70696e-18)
(3.13324 2.37239 6.74199e-19)
(3.43312 2.10992 -1.12167e-18)
(3.23262 2.27054 -1.62539e-18)
(3.42765 1.8635 3.29812e-18)
(3.29151 2.037 1.82188e-19)
(3.34911 1.60457 1.80299e-18)
(3.25121 1.79551 2.22866e-18)
(3.22353 1.36176 7.0085e-19)
(3.16227 1.54711 5.2424e-19)
(3.07822 1.1515 -6.33949e-20)
(3.04068 1.31993 2.80002e-19)
(2.90688 1.14213 -1.73783e-19)
(2.89062 0.957205 -8.63437e-19)
(0.214105 0.151248 1.77259e-18)
(-0.590289 -0.690926 8.99577e-19)
(1.54124 1.54762 -2.24869e-18)
(0.919271 1.14629 0)
(2.34575 2.21264 -2.26284e-19)
(1.99248 1.95607 -3.25197e-18)
(2.77552 2.43387 5.39984e-18)
(2.45209 2.46429 1.53511e-18)
(2.98736 2.38196 3.90897e-18)
(2.78561 2.41518 3.69819e-18)
(3.09312 2.22613 -4.87017e-19)
(2.89299 2.34859 2.18887e-18)
(3.1194 2.00951 -1.11725e-18)
(2.97598 2.14467 3.46862e-19)
(3.08189 1.76914 1.16756e-18)
(2.9678 1.92677 -1.16749e-18)
(2.99997 1.53151 1.68466e-19)
(2.91827 1.6894 -1.30013e-18)
(2.89636 1.31686 3.39354e-19)
(2.83662 1.46189 1.20992e-18)
(2.73495 1.27643 -5.4823e-19)
(2.75192 1.10421 -4.32816e-20)
(-0.0273271 0.0898164 -8.24658e-19)
(-0.800578 -0.754027 4.98146e-18)
(1.24002 1.48114 -6.6868e-19)
(0.649245 1.04862 -4.66024e-18)
(2.01931 2.17919 -1.83383e-18)
(1.6659 1.90849 6.39964e-19)
(2.44509 2.43427 -4.74367e-19)
(2.13851 2.42926 -1.23623e-18)
(2.65785 2.41326 2.02846e-18)
(2.46375 2.42039 1.71718e-18)
(2.77475 2.28811 3.24961e-18)
(2.57856 2.37928 1.58856e-20)
(2.82279 2.09726 4.48183e-19)
(2.67695 2.20123 1.50402e-18)
(2.81607 1.87624 -3.58751e-18)
(2.69292 2.00459 -4.02856e-18)
(2.76949 1.64862 -5.33902e-19)
(2.67444 1.78073 -5.53996e-19)
(2.70101 1.4367 6.24765e-19)
(2.62735 1.55924 1.60453e-18)
(2.56048 1.37475 -4.90068e-19)
(2.58974 1.22552 -3.68081e-19)
(-0.251165 0.0191373 2.14912e-18)
(-0.97079 -0.808753 4.6001e-18)
(0.957959 1.4003 -3.89241e-18)
(0.399024 0.948721 -3.79441e-18)
(1.71569 2.11995 1.44355e-18)
(1.3589 1.83347 -2.27831e-18)
(2.13803 2.40383 5.85048e-19)
(1.84501 2.36734 -4.12343e-20)
(2.35234 2.40907 -1.18779e-19)
(2.1624 2.39493 1.40091e-18)
(2.47733 2.30801 -1.88252e-18)
(2.28539 2.37231 -2.16157e-19)
(2.54126 2.13853 -2.41894e-18)
(2.39434 2.21666 -1.51433e-18)
(2.55847 1.9351 -1.38262e-18)
(2.43013 2.03789 -8.7822e-19)
(2.54115 1.71919 1.34833e-18)
(2.43719 1.82769 6.75527e-19)
(2.50433 1.51413 7.62717e-19)
(2.42027 1.61525 5.723e-20)
(2.38704 1.43252 -4.02912e-19)
(2.43491 1.30979 -3.18849e-20)
(-0.458014 -0.049489 -4.80308e-19)
(-1.11742 -0.857808 -6.26789e-19)
(0.690514 1.3053 -2.33063e-18)
(0.155552 0.842228 8.89946e-19)
(1.42372 2.039 -3.93344e-18)
(1.06679 1.73648 -3.09649e-18)
(1.84682 2.34661 6.24196e-19)
(1.5624 2.27746 9.17771e-19)
(2.06521 2.37469 1.47553e-18)
(1.87472 2.34147 -1.10621e-18)
(2.19787 2.29333 3.37504e-19)
(2.00907 2.33356 2.60993e-18)
(2.27499 2.14168 -5.01597e-20)
(2.12669 2.19761 -8.47187e-19)
(2.31241 1.95357 9.85924e-19)
(2.18034 2.03339 1.56396e-18)
(2.3207 1.74935 -5.50862e-19)
(2.20981 1.83589 -8.8976e-20)
(2.31234 1.55227 -9.99732e-19)
(2.21968 1.63381 5.34648e-19)
(2.21892 1.4498 -3.52007e-19)
(2.27694 1.34668 4.39552e-19)
(-0.66017 -0.126795 6.10211e-19)
(-1.26409 -0.93131 4.79714e-18)
(0.425154 1.18803 5.32257e-19)
(-0.0927858 0.713266 -1.03291e-19)
(1.13761 1.92941 1.42484e-18)
(0.777678 1.60876 -1.46628e-18)
(1.56405 2.26024 -6.0229e-19)
(1.28338 2.15868 8.60326e-19)
(1.79021 2.31187 -3.20362e-19)
(1.59574 2.26039 -1.73038e-18)
(1.93226 2.24807 1.83847e-18)
(1.7452 2.26561 1.72807e-18)
(2.02235 2.11168 5.14033e-19)
(1.87182 2.14762 -1.0451e-18)
(2.07858 1.93678 6.84929e-19)
(1.94317 1.99543 1.35291e-18)
(2.1106 1.74366 9.13363e-19)
(1.9939 1.80957 -1.71459e-19)
(2.12815 1.55439 1.26337e-18)
(2.02811 1.61864 3.29404e-19)
(2.05744 1.43688 -2.44459e-19)
(2.13163 1.36627 0)
(-0.855186 -0.219771 4.32576e-18)
(-1.39494 -1.00268 8.9513e-18)
(0.166516 1.04937 -1.97346e-18)
(-0.336718 0.57346 -2.63865e-18)
(0.856754 1.79298 -2.26677e-18)
(0.49358 1.45615 -3.98905e-18)
(1.28745 2.14557 0)
(1.00523 2.01188 1.32996e-18)
(1.52425 2.22153 0)
(1.32187 2.15127 -8.37203e-19)
(1.67776 2.17405 -8.61624e-19)
(1.48927 2.16912 8.62079e-20)
(1.78185 2.05112 -4.44993e-19)
(1.62705 2.06776 -9.72448e-19)
(1.857 1.88792 6.88216e-19)
(1.71743 1.92605 6.79663e-19)
(1.91209 1.70582 -7.63074e-19)
(1.79035 1.75152 -2.06707e-19)
(1.9543 1.52642 -1.09537e-18)
(1.84916 1.57284 -7.91699e-19)
(1.91012 1.401 -6.91101e-20)
(1.98316 1.3551 1.79869e-19)
(-1.04579 -0.321606 2.57024e-18)
(-1.51926 -1.07918 4.68813e-18)
(-0.090441 0.890486 -4.5221e-18)
(-0.583182 0.418044 -4.68673e-18)
(0.575515 1.62889 -8.79682e-19)
(0.207074 1.2764 1.4615e-18)
(1.01052 2.00143 7.16038e-19)
(0.721176 1.83443 2.81761e-19)
(1.26239 2.10192 -8.30809e-19)
(1.04605 2.00928 -8.35311e-19)
(1.43004 2.071 7.4034e-20)
(1.23557 2.04289 -3.72606e-19)
(1.55083 1.96051 -5.60996e-21)
(1.38824 1.95702 4.82903e-19)
(1.64699 1.80832 -1.19972e-19)
(1.50104 1.82524 -4.31212e-19)
(1.72655 1.6377 -1.49502e-19)
(1.59906 1.66274 3.65457e-19)
(1.79543 1.46904 1.57514e-19)
(1.68402 1.49687 -1.68434e-19)
(1.7751 1.33208 6.15007e-20)
(1.86649 1.32213 6.21361e-19)
(-1.23855 -0.435753 -1.94215e-18)
(-1.64375 -1.17327 0)
(-0.353366 0.707897 5.85751e-19)
(-0.837562 0.238898 -2.14407e-18)
(0.285825 1.43351 2.73392e-18)
(-0.0891076 1.06308 2.03001e-18)
(0.724666 1.82386 -1.14896e-18)
(0.423221 1.62023 7.33344e-19)
(0.994083 1.95028 -4.10044e-19)
(0.760091 1.8296 -6.79992e-19)
(1.18232 1.93583 -8.25216e-20)
(0.975419 1.8791 -1.04026e-19)
(1.3255 1.83772 1.55938e-19)
(1.14965 1.80997 7.61251e-20)
(1.44714 1.69736 -6.07389e-20)
(1.29104 1.69008 -3.45508e-19)
(1.55415 1.53994 4.00512e-19)
(1.41902 1.54252 3.9371e-19)
(1.64992 1.38374 -2.52168e-19)
(1.53247 1.39283 -1.75057e-19)
(1.6552 1.24128 -7.84225e-20)
(1.73945 1.23809 -6.36681e-20)
(-1.43694 -0.569677 0)
(-1.7699 -1.28469 -1.35663e-18)
(-0.625687 0.496357 -1.18531e-18)
(-1.10181 0.0341822 2.6218e-18)
(-0.0179032 1.20103 1.7696e-19)
(-0.400303 0.812294 -2.51437e-18)
(0.422497 1.60528 1.32687e-18)
(0.103186 1.36131 1.74926e-18)
(0.713054 1.75668 -4.34593e-19)
(0.452607 1.60016 -6.74428e-19)
(0.927605 1.76022 3.25822e-20)
(0.698486 1.66714 3.51673e-19)
(1.10115 1.677 -3.79929e-19)
(0.904224 1.61681 -4.08665e-19)
(1.25508 1.55218 7.37392e-21)
(1.08331 1.51416 1.41374e-19)
(1.39375 1.4127 -1.17867e-19)
(1.24811 1.38838 -1.14411e-19)
(1.51748 1.2747 2.97535e-20)
(1.39402 1.26201 -3.1676e-20)
(1.55078 1.13357 1.30683e-20)
(1.6328 1.16534 1.1927e-19)
(-1.64449 -0.727345 1.20355e-18)
(-1.90167 -1.4177 -1.23972e-18)
(-0.912108 0.251246 1.95529e-18)
(-1.38113 -0.199369 2.55892e-18)
(-0.343814 0.923993 -1.32011e-18)
(-0.735945 0.518865 -1.25126e-18)
(0.0925023 1.33422 0)
(-0.251664 1.04615 -4.72353e-19)
(0.406097 1.50732 0)
(0.108711 1.30291 7.28865e-19)
(0.655859 1.53044 0)
(0.391337 1.3863 -1.09207e-19)
(0.871079 1.46765 5.18141e-20)
(0.641877 1.35999 -8.57846e-20)
(1.06663 1.36643 7.04246e-20)
(0.870194 1.28572 5.81472e-20)