/*--------------------------------*- C++ -*----------------------------------*\
| =========                 |                                                 |
| \\      /  F ield         | OpenFOAM: The Open Source CFD Toolbox           |
|  \\    /   O peration     | Version:  3.0.1                                 |
|   \\  /    A nd           | Web:      www.OpenFOAM.org                      |
|    \\/     M anipulation  |                                                 |
\*---------------------------------------------------------------------------*/
FoamFile
{
    version     2.0;
    format      ascii;
    class       volScalarField;
    location    "0.0732344";
    object      epsilon;
}
// * * * * * * * * * * * * * * * * * * * * * * * * * * * * * * * * * * * * * //

dimensions      [0 2 -3 0 0 0 0];

internalField   nonuniform List<scalar> 
21246
(
976.237
457.014
226.971
139.397
89.561
53.2941
28.121
13.6926
6.78842
3.81452
2.54242
920.13
465.191
267.334
166.158
107.413
65.9062
33.4788
15.3805
7.10224
3.83774
2.53963
598.014
373.874
258.65
175.574
118.619
76.5321
42.7655
19.3681
7.99479
3.98144
2.54816
295.596
272.735
225.383
170.408
122.664
83.3989
50.566
25.2796
10.2244
4.29701
2.57606
132.761
197.898
190.221
158.585
121.775
87.1522
56.4871
31.0765
13.6646
5.32867
2.67848
90.5572
148.173
161.181
144.861
117.659
88.287
60.4899
36.0921
17.5542
7.05386
3.05795
80.8994
109.948
135.366
130.245
111.068
86.878
62.3761
39.7814
21.2283
9.22079
3.75653
65.0653
75.1702
107.497
113.728
102.279
83.0276
61.997
41.747
24.0915
11.416
4.70613
48.1808
48.3976
78.0958
94.3875
91.2463
76.9923
59.4927
41.8958
25.7887
13.2416
5.73816
35.5206
32.3861
53.3427
73.7816
78.1605
69.1073
55.2072
40.3962
26.223
14.4188
6.63998
26.9057
22.6557
35.6348
54.3756
63.8738
59.8322
49.5285
37.5169
25.4528
14.8077
7.2205
20.6273
16.6787
24.2823
38.0694
49.8094
49.8742
42.922
33.6002
23.6571
14.4003
7.37759
15.8553
12.547
17.2175
26.2964
36.8419
39.9937
35.909
29.046
21.1115
13.317
7.10366
12.0754
9.53639
12.3976
18.3157
26.1066
30.7009
28.9216
24.2002
18.0956
11.7442
6.46094
9.33863
7.3917
9.06472
12.8499
18.1399
22.4501
22.3205
19.3481
14.8581
9.88326
5.58619
7.47262
5.91626
6.77965
9.09782
12.4693
15.744
16.4331
14.7886
11.6818
7.97844
4.64087
6.10813
4.90888
5.21738
6.53625
8.52816
10.6935
11.5606
10.8405
8.87428
6.28652
3.78455
5.25983
4.23684
4.16114
4.82023
5.88581
7.17956
7.96787
7.86814
6.80943
5.12165
3.25928
4.84478
3.82633
3.43841
3.68555
4.21942
5.03358
5.84723
6.26837
5.9487
4.91772
3.36971
4.79698
3.68517
2.97984
3.04799
3.43816
4.26262
5.65436
6.86481
7.28692
6.68854
4.98105
7.47859
4.47368
3.08681
3.19134
4.25118
6.81527
11.8914
16.5877
18.3439
17.3555
13.7317
15.8102
6.28792
4.8217
6.93226
15.5855
24.7025
29.8796
29.9699
27.6337
24.5372
21.1711
20.0576
19.2652
31.8368
41.8783
46.4748
44.3736
38.7728
32.0495
25.7488
20.8138
17.3461
236.863
151.011
110.427
82.5075
62.3537
46.7725
34.3211
24.9387
18.3266
14.0905
11.6064
1191.75
332.184
189.364
123.669
81.2574
49.9165
27.7184
14.173
7.19599
4.00642
2.58445
785.62
231.399
146.83
111.142
83.6977
57.4632
34.4312
18.0898
8.94161
4.67865
2.83748
266.478
125.656
97.9291
89.6563
80.5005
64.4636
43.5209
24.3753
11.9546
5.85089
3.26739
55.7525
42.6508
48.5499
57.9183
64.7441
63.0469
50.5933
32.2713
16.6937
7.85774
3.96888
30.9041
19.5312
21.7394
30.2294
41.6119
50.1974
49.773
38.7602
23.3422
11.459
5.3964
30.151
17.8437
15.9945
18.0429
24.1195
32.9521
39.1808
37.2992
26.669
14.5251
6.97707
31.2572
18.418
15.6879
15.4795
17.3965
22.1183
28.6812
32.0161
27.0452
16.6619
8.45011
32.7532
19.2632
16.1725
15.289
15.512
17.444
21.5198
25.9456
25.3903
17.8471
9.82409
34.7436
20.291
16.9003
15.633
15.0029
15.3752
17.3677
20.7567
22.3798
17.9708
10.8359
37.2307
21.4724
17.8131
16.1555
14.9206
14.3351
14.8817
16.9136
18.9423
17.0899
11.2927
40.2794
23.0019
18.941
16.7131
14.9594
13.7117
13.2886
14.1655
15.8581
15.4823
11.2576
43.9375
24.8119
20.1375
17.2879
15.04
13.256
12.1792
12.2154
13.3326
13.6588
10.8123
48.3782
26.733
21.4143
17.9485
15.1416
12.8646
11.3414
10.856
11.4183
11.8983
10.1455
53.9301
28.9026
22.8403
18.6753
15.2535
12.5182
10.6975
9.91631
10.0609
10.4083
9.48669
61.3315
31.5466
24.5374
19.6087
15.5531
12.3699
10.2644
9.27478
9.15415
9.32918
8.90422
70.5004
34.7744
26.7217
20.972
16.1982
12.4171
9.97027
8.83476
8.55864
8.60698
8.41053
81.7558
38.8693
29.6729
23.0592
17.3617
12.7682
9.92364
8.60402
8.18843
8.1337
8.02385
95.311
44.1736
33.8062
26.2679
19.2787
13.7432
10.2771
8.60162
7.97893
7.81244
7.74199
111.361
51.0585
39.4058
30.4791
22.3254
15.582
11.1399
8.86707
7.91837
7.57071
7.45093
127.657
59.1593
45.7134
35.9933
26.6127
18.3152
12.5415
9.42757
8.01689
7.39135
7.08431
148.102
69.016
53.6096
42.6795
31.6818
21.6428
14.3831
10.2806
8.31511
7.36486
6.83045
189.013
83.0505
64.046
49.4748
36.3544
24.8688
16.416
11.3841
8.84514
7.59921
6.8984
256.685
119.787
75.5648
54.4226
39.1749
27.2907
18.4137
12.6973
9.59637
8.08867
7.24183
716.693
142.799
84.9842
55.3604
40.2454
29.2491
20.3904
14.6497
11.1479
9.21551
8.19199
1950.45
641.519
279.612
120.286
46.9589
16.6012
5.64688
1.91246
0.655792
0.235082
0.09463
1510.18
419.445
209.065
98.121
41.2358
15.7597
5.6417
1.94322
0.663269
0.234233
0.0923071
940.767
330.344
175.491
91.444
41.8127
16.9109
6.2523
2.17333
0.732149
0.252397
0.0984585
649.552
257.698
149.827
85.2275
42.1165
18.0619
6.96024
2.49235
0.853903
0.293598
0.111716
466.615
190.026
114.844
71.9538
39.5349
18.5609
7.58044
2.79765
0.966603
0.324938
0.116127
374.329
149.455
91.7113
58.7143
33.5937
16.5936
7.08935
2.70467
0.958665
0.331496
0.124433
316.135
123.14
76.0067
49.0052
28.3417
14.2543
6.27248
2.48646
0.916797
0.327234
0.124022
275.368
104.575
64.4151
41.533
24.1575
12.2913
5.51145
2.24194
0.851969
0.314025
0.126307
246.002
90.8714
55.6282
35.76
20.8203
10.658
4.84119
2.01085
0.786482
0.300007
0.124551
223.809
80.5848
48.9624
31.3778
18.2645
9.3816
4.29952
1.81476
0.726738
0.284849
0.119639
206.06
72.5507
43.7943
28.0156
16.3121
8.40258
3.87678
1.65627
0.674865
0.26944
0.116466
192.567
66.0511
39.6593
25.3554
14.785
7.64292
3.54875
1.53174
0.633193
0.257149
0.113259
183.007
60.9092
36.3895
23.2843
13.6196
7.07405
3.30671
1.44079
0.603327
0.248835
0.110781
176.152
57.0256
33.8945
21.748
12.7894
6.68548
3.14762
1.38322
0.585277
0.243932
0.110033
172.385
54.0165
31.9461
20.5963
12.2113
6.44119
3.05965
1.35627
0.578941
0.243037
0.109862
171.791
51.8238
30.5063
19.8076
11.8792
6.34388
3.04682
1.36282
0.585934
0.246797
0.111428
174.083
50.5521
29.61
19.4123
11.8281
6.42078
3.12542
1.41077
0.60955
0.256311
0.114923
180.754
50.6836
29.351
19.444
12.1134
6.70935
3.31733
1.51223
0.655694
0.274151
0.121533
193.069
52.578
29.8538
19.9022
12.7297
7.30153
3.71711
1.72335
0.751146
0.312405
0.135839
213.629
56.8795
31.4237
20.9416
13.7616
8.22896
4.37422
2.09851
0.935013
0.393879
0.168391
247.983
64.7924
34.5656
22.8136
15.3291
9.5715
5.36935
2.71955
1.27165
0.559092
0.241833
309.853
77.3679
39.9527
25.8042
17.5554
11.4082
6.80068
3.70831
1.87644
0.894651
0.411818
424.996
98.8413
48.3682
30.5458
20.878
14.044
8.91332
5.29437
2.96411
1.57971
0.811305
683.494
104.138
56.6738
35.0346
25.235
18.1169
12.4984
8.20771
5.14818
3.10489
1.81676
1971.6
1099.54
510.487
231.465
92.5074
28.2991
8.70348
2.64578
0.853691
0.290576
0.111735
2022.02
1176.62
700.8
379.865
186.048
75.9766
24.0441
4.83827
1.31815
0.417868
0.14911
952.442
967.31
717.788
456.565
258.928
126.42
49.765
13.6372
2.44951
0.64597
0.219203
575.211
987.303
746.417
508.334
313.917
170.963
78.3496
27.4269
6.5051
1.16736
0.342369
614.762
744.296
768.197
555.479
360.024
209.871
106.455
44.0201
13.4674
2.91657
0.604168
585.234
556.732
741.849
618.074
412.165
248.08
133.823
61.83
22.7377
6.21124
1.35087
531.364
418.377
613.233
685.653
488.262
295.645
163.066
80.3622
33.4695
11.0085
2.85073
491.057
351.932
488.171
681.008
577.934
359.038
197.725
99.9922
44.9539
16.9247
5.16694
462.337
309.149
404.574
602.208
647.304
437.643
241.207
121.885
56.9203
23.4881
8.207
439.597
276.154
348.575
518.619
660.846
514.602
291.865
146.337
69.1778
30.2536
11.7275
422.678
247.1
304.046
444.646
614.315
568.161
342.393
171.649
81.1588
36.7922
15.4418
411.01
224.768
267.233
381.875
543.505
580.155
379.744
192.872
91.2175
42.4546
18.9746
407.572
207.487
235.885
326.184
468.746
553.893
394.115
204.295
97.2536
46.5308
22.0002
412.242
195.656
210.364
277.469
392.673
493.362
381.088
201.979
97.7489
48.5173
24.4133
427.757
191.511
191.425
236.189
317.775
414.419
345.719
185.423
92.6434
48.4461
26.165
452.278
192.534
176.505
201.199
249.624
305.56
297.576
159.862
83.3168
46.9801
27.4845
486.47
198.08
163.303
168.151
190.777
216.959
220.998
141.376
73.697
45.5484
28.8953
537.894
211.365
154.703
140.762
144.669
155.014
158.087
123.354
70.2252
46.0055
30.8297
622.584
238.411
156.075
124.463
115.698
118.808
122.896
111.793
76.7487
51.1556
35.7795
777.028
291.997
179.324
128.764
108.822
107.923
113.458
112.251
93.3422
63.7026
42.2786
1103.29
415.666
271.374
197.582
160.076
149.16
148.933
141.508
121.808
83.8632
54.6446
1752.62
717.967
539.458
431.97
342.158
277.751
214.594
164.241
118.544
80.4635
51.612
1298.58
653.314
576.567
414.676
297.426
209.233
143.21
96.2469
63.1792
40.5458
25.3206
1194.82
625.03
362.427
224.109
143.797
93.6029
60.7433
38.8253
24.2624
14.7781
8.76386
195.449
96.3548
18.5315
4.29437
1.45676
0.81959
0.628734
0.555547
0.520817
0.498944
0.478274
311.18
209.049
19.8922
6.06781
1.72339
0.887201
0.627303
0.528961
0.480847
0.449773
0.422894
396.09
236.754
31.1581
7.92445
1.88935
0.95637
0.629999
0.509878
0.45009
0.410419
0.374094
433.465
223.856
36.4899
8.82593
1.95969
1.00803
0.628766
0.49437
0.425881
0.379624
0.335744
436.983
212.203
39.1356
8.90889
2.02709
1.03707
0.62263
0.481093
0.406915
0.357136
0.311287
421.595
207.425
43.4448
9.38562
2.13255
1.05001
0.616389
0.469978
0.392126
0.340843
0.295439
391.383
207.43
49.5625
11.0049
2.43589
1.06079
0.614562
0.46141
0.380765
0.328748
0.283032
350.388
209.897
56.4498
13.5391
3.03505
1.13168
0.624721
0.455765
0.372537
0.32005
0.275347
305.737
213.653
64.5313
17.148
4.06957
1.31615
0.661956
0.458372
0.368649
0.314281
0.270268
261.365
218.319
75.1815
22.461
5.87268
1.74478
0.756167
0.475705
0.370016
0.311981
0.267976
217.327
223.877
87.9525
29.5369
8.68263
2.58327
0.970585
0.525404
0.380642
0.313348
0.267799
175.807
230.816
102.063
38.0573
12.5394
3.97157
1.39528
0.642306
0.411166
0.321276
0.27057
140.342
238.008
118.371
48.5478
17.7402
6.13291
2.17452
0.894457
0.487386
0.344261
0.278888
112.617
244.24
137.828
61.9218
24.829
9.40366
3.52346
1.40044
0.663672
0.403751
0.300433
96.4349
254.29
160.893
78.4188
34.0182
14.005
5.64866
2.3117
1.02945
0.543929
0.354385
97.7871
269.33
189.516
99.7983
46.3275
20.492
8.89434
3.85783
1.73088
0.848773
0.483817
115.393
280.699
222.97
128.808
63.9776
30.1334
13.9643
6.45467
3.02351
1.47366
0.778373
140.067
277.378
253.22
166.141
89.7585
45.0525
22.164
10.8844
5.38563
2.71473
1.42002
161.723
254.153
264.496
205.246
125.526
68.5773
36.072
18.8378
9.87829
5.23204
2.81851
176.77
219.565
247.757
228.851
165.762
102.939
59.6057
33.6585
18.8948
10.6303
6.01852
187.161
186.85
211.641
222.857
194.634
143.891
95.9073
60.5566
37.258
22.6782
13.7484
219.17
161.157
175.312
196.599
199.308
176.141
138.685
100.962
70.05
47.4135
31.4796
216.62
143.599
149.997
169.893
179.578
175.208
156.865
130.508
102.619
78.1559
57.5179
473.173
397.088
476.516
464.342
412.932
346.223
273.624
208.712
156.429
116.662
85.865
150.709
69.3488
16.8402
3.45661
1.27911
0.79174
0.64464
0.591526
0.572174
0.567133
0.567993
216.18
67.3927
10.5348
3.48385
1.46466
0.881759
0.693774
0.630956
0.61387
0.617415
0.631808
259.614
80.7354
9.57064
3.83338
1.60069
0.976012
0.754737
0.678196
0.660357
0.671263
0.699881
272.39
75.4578
9.14398
4.04735
1.60759
0.9756
0.741106
0.663297
0.651587
0.674659
0.722721
269.323
62.9731
8.76303
3.98831
1.58568
0.979033
0.727685
0.637524
0.614159
0.627326
0.66723
262.772
52.2503
8.35181
3.77407
1.5369
0.972487
0.711344
0.612459
0.577794
0.579441
0.607326
256.48
44.54
7.95327
3.5316
1.48176
0.958182
0.693007
0.589655
0.545321
0.534636
0.545316
249.497
38.9912
7.57189
3.30954
1.43435
0.939899
0.676396
0.570713
0.519199
0.497672
0.490275
245.134
35.0218
7.26772
3.14286
1.40907
0.923443
0.664129
0.556986
0.501186
0.473806
0.45823
244.145
32.3607
7.06314
3.03022
1.40522
0.914821
0.658146
0.549318
0.491475
0.463082
0.448869
247.306
30.8257
6.99867
2.98694
1.42292
0.917928
0.659747
0.548041
0.488991
0.461775
0.451711
253.247
30.0315
7.03093
3.00182
1.46227
0.933713
0.66937
0.552968
0.492326
0.466471
0.461458
262.214
30.5111
7.18665
3.07687
1.52932
0.964406
0.688294
0.564137
0.500459
0.474665
0.474318
272.331
33.7
7.91617
3.29703
1.66004
1.02398
0.723999
0.584544
0.514607
0.486142
0.487375
284.253
38.3023
9.19463
3.69131
1.87035
1.1246
0.782972
0.618118
0.536576
0.501537
0.499809
298.865
44.6412
11.2351
4.36689
2.2011
1.29033
0.877639
0.67238
0.57009
0.522603
0.512204
317.168
53.2813
14.3903
5.51928
2.7414
1.56834
1.03421
0.763037
0.624245
0.554621
0.528008
341.246
64.4431
19.0084
7.42684
3.65237
2.04977
1.30695
0.923633
0.720249
0.610998
0.556465
374.189
78.9734
25.6468
10.5303
5.23086
2.9207
1.8142
1.23096
0.909344
0.726373
0.621789
421.412
98.8738
35.3592
15.58
8.02463
4.56257
2.8199
1.86799
1.32064
0.993042
0.791026
493.878
127.861
50.208
23.9472
13.0582
7.75006
4.90776
3.27406
2.2863
1.66421
1.25893
615.846
174.132
74.7415
38.597
22.4529
14.1
9.35419
6.47207
4.63434
3.41571
2.58052
851.843
270.45
126.336
69.7721
42.8561
28.2669
19.6513
14.2416
10.687
8.25936
6.54025
1394.68
502.726
277.171
180.656
129.014
97.5071
78.5227
66.4426
58.2153
52.1242
46.6428
9.75581
7.41974
7.6227
9.3474
24.7168
46.602
62.5263
73.1863
81.4851
11.1359
5.46842
5.00669
12.7211
20.9721
25.2797
26.9098
26.6331
27.134
10.3204
5.65131
5.59978
12.8875
18.081
18.3288
16.2774
13.8096
13.4715
9.25839
5.81836
6.3128
11.9807
13.9815
12.1743
9.68543
7.9492
7.49887
31.0485
54.973
69.5537
77.3313
81.3883
81.6607
81.1324
85.2938
86.7491
19.9808
25.5507
25.8422
24.7212
24.9516
25.1214
26.6738
29.066
27.9271
16.1951
17.3934
14.8214
12.8817
12.6288
12.986
14.1451
15.7226
14.5418
12.4045
11.505
9.06089
7.65141
6.95476
6.77992
7.23817
8.54536
7.98651
0.00902961
0.00829447
0.00834731
0.00749469
0.0127802
0.0075494
0.378028
0.00809704
0.00752766
0.00940135
0.013993
0.00813434
0.00837252
0.00754975
0.0146371
0.00744571
0.00760907
0.00748597
0.00746475
0.00794078
0.00920115
0.385626
0.00852153
0.00822918
0.00792217
0.00752747
0.0083785
0.377405
0.952641
0.00844315
0.00763156
0.00852848
0.007987
0.00806654
0.00871795
0.0082651
0.00821819
0.00790522
0.00802718
0.007579
0.239336
0.00809829
0.0080064
0.00849703
0.0941598
1.65237
0.00829055
1.05215
0.00883131
0.00758831
0.00838605
0.0075965
0.00820384
0.00801876
0.00761881
0.00920724
0.304678
0.00761617
0.958908
0.00824974
0.0692846
0.00813773
0.0159101
0.00899976
0.474064
0.00778889
0.00798351
0.00929513
0.00829705
0.00951327
0.00745304
0.0104466
0.00791401
0.0114027
0.00804574
0.0100696
0.17776
0.00828102
0.118343
0.158088
0.00792739
0.0090483
0.00793106
0.00838077
0.0086395
0.00790474
0.844057
0.00798559
0.0213288
0.00815371
0.00809698
0.00765005
0.347774
0.00985306
0.130759
1.03605
0.00806325
0.00871058
0.0159039
0.01062
0.00922123
0.693404
0.0094062
0.0080998
0.0104974
0.00812917
0.00762498
0.00845299
0.0085649
0.00854405
0.00796772
0.00815037
0.00880717
0.00789578
0.00781155
0.00768765
0.00754621
0.00767557
0.00793083
0.00971693
0.00808139
0.0111026
0.0101246
0.00764298
1.11059
0.00903704
0.00788971
0.00761947
0.00781761
0.00803896
0.00777882
0.00824477
0.909207
0.0102409
0.00834245
0.00914296
0.0817735
0.00902187
0.00854281
0.00892891
0.00795159
0.009328
0.261097
0.00974658
0.00752873
0.00879109
0.0110205
0.00897243
0.0101986
0.0113478
0.00792175
0.0076601
0.00874524
0.0111411
0.00762112
0.00864198
0.00801581
0.0368414
0.00755291
0.00749154
0.00784864
0.00965486
0.0103645
0.00771343
0.00791001
0.00859139
0.0419888
0.00872177
0.00959551
0.497534
0.00787548
0.00778631
0.0104481
0.00829697
0.00852849
0.00817774
0.00788665
0.00891138
0.0935979
0.00831204
0.00856976
0.22885
0.00849696
0.00990596
0.00794647
0.00805088
0.00844225
0.00784286
0.00824858
0.123807
0.00846661
0.00775326
0.00770234
0.244301
0.00832454
0.00760323
0.00747584
0.0125494
0.00811078
0.00856741
0.00957061
0.00764507
0.00805655
0.00768558
0.008387
0.0079819
0.00952986
0.00782427
0.0074915
0.00747349
0.00817474
0.00759081
0.00949572
0.00868467
0.00791148
0.00857328
0.00798142
0.00829661
0.00831025
0.00777669
0.00801152
0.00789109
0.00796698
0.00785556
0.00761385
0.00763149
0.00972997
0.00855117
0.00833101
0.0136319
0.0320933
0.00785878
0.00805163
0.0109403
0.00887381
1.1392
0.00807525
0.00845038
0.0081494
0.00810628
0.00831067
0.0075853
0.00803876
0.23167
0.0108144
0.0098258
0.00800457
0.00780168
0.458705
0.00772697
0.00779366
0.00813624
0.00985919
0.007491
0.00818437
0.00748459
0.0101692
0.00785645
0.00897234
0.00864063
0.00847128
0.00959509
0.00748844
0.00819892
0.00796119
0.00790061
0.00913338
0.0116199
0.0175089
0.00817638
0.0113393
0.00752114
0.00771261
0.00821648
0.00756347
0.00758393
0.00765519
0.0077592
0.00883344
0.0101849
0.0105612
0.00829381
0.00791104
0.0080955
0.00812836
0.00758986
0.911151
0.00825303
0.00879789
0.00791632
0.00835173
0.330965
0.00873143
0.0080532
0.00856468
0.00748857
0.00955223
0.00816494
0.00871845
0.00761875
0.00775578
0.00860824
0.00889381
0.00848649
0.0103611
0.0085312
0.00828421
0.00888097
0.197017
0.0075215
0.41825
0.00817506
0.00832899
0.00799751
0.409321
0.00916073
0.00770723
0.0149894
0.0092716
0.0109148
0.00863489
0.00835668
0.0074875
0.00741738
0.0151381
0.00864261
0.00778045
0.00760961
0.00804399
0.00867656
0.0106647
0.0176794
0.1315
0.00846584
0.00834964
0.664124
0.00794396
0.00824194
0.00785007
0.00870765
0.0163244
0.00812547
0.0077479
0.00864845
0.0107939
0.0088999
0.00766947
0.00754154
0.00821423
0.00779278
0.380925
0.00845923
0.00826786
0.0113193
0.011254
0.00860271
0.00798461
0.0083622
0.00850119
0.00845693
0.00995125
0.00758046
0.00800813
0.00798687
0.00765038
0.0342999
0.00779336
0.00844578
0.348078
0.00923241
0.00773658
0.00993847
0.580149
0.00770808
0.010192
0.00832171
0.00981879
0.00869559
0.00753146
0.0108781
0.00791931
0.0075618
0.00904059
0.00765411
0.00770388
0.00792597
0.00836562
0.00760243
0.00756843
0.0562538
0.0076947
0.519557
0.007703
0.0105451
0.00796073
0.442789
0.00786927
0.00915571
0.00836976
0.00790441
0.00893351
0.00764424
0.00850663
0.00789238
0.00802899
0.260336
0.142386
0.00917118
0.00764179
0.00836335
0.00879547
0.00751605
0.00786479
0.0078396
0.00834829
0.00825494
0.00845037
0.011628
0.00775453
0.38589
0.00976043
0.00785922
0.356575
0.00829022
0.00819586
0.00856397
0.0113461
0.0231753
0.0117532
0.589387
0.00789574
0.00900872
0.00783198
0.00901977
0.00929933
0.00798717
0.00836772
0.00854224
0.00765003
0.00860019
0.00776654
0.963246
0.00748538
0.00841703
0.00927688
0.00806223
0.00825909
0.023243
0.00745879
0.00938117
0.00773537
0.00833577
0.00794088
0.190131
0.0120366
0.348345
0.00785197
0.00970078
0.0206714
0.00825512
0.00745627
0.00787293
0.0077425
0.0082095
0.00902883
0.121563
0.0933983
0.0902244
0.0916648
0.0106191
0.00812948
0.00866565
0.0133163
0.0689842
0.00896454
0.00824023
0.00748046
0.0347825
0.00980408
0.00823123
0.0077775
0.00991999
0.00942494
0.198692
0.00845548
0.00845324
0.0292563
0.0105196
0.00805821
0.00745178
0.0116566
0.00759732
0.00907469
0.00761667
0.0079017
0.00764826
0.00779767
0.00763393
0.00969674
0.0115787
0.0076337
0.00759998
0.00807679
0.00806328
0.356295
0.00796569
0.00815407
0.0106812
0.565785
0.00835766
0.00821994
0.0139402
0.0658882
0.00853832
0.00927208
0.0080945
0.00808162
0.00761771
0.00778272
0.00792276
0.00920017
0.00828798
0.00768879
0.00819064
0.00899627
0.00793717
0.00799549
0.00747509
0.00858938
0.00772798
0.579778
0.00882389
0.00886422
0.00750972
0.0311953
0.00856421
0.00786254
0.00841794
0.260113
0.00996942
0.00795012
0.00790782
0.00763298
0.0083523
0.00747614
0.00831793
0.00806557
0.00880217
0.0752009
0.00796487
0.00815793
2.0824
0.00822431
0.0112277
0.00899761
0.00996819
0.00831193
0.00797296
0.0178519
0.00814532
0.00768999
0.263881
1.58939
0.00791745
0.00755725
0.00828713
0.00828572
0.00802628
0.0155596
0.00809222
0.00752182
0.00806207
0.00881906
0.00791837
0.00783625
0.00920916
0.014597
0.00771013
0.0161188
0.00781764
0.00817528
0.0075001
0.00814385
0.00790473
0.00854717
0.537542
0.00865456
0.0084261
0.00854777
0.118891
0.00763287
0.00777499
0.00767293
0.00800915
0.00845812
0.0159194
0.00769365
0.0100681
0.00772925
0.00790907
0.86507
0.00780592
0.0103127
0.00793195
0.00794886
0.116673
0.00882557
0.010368
0.00874133
0.0106787
0.00777707
0.00839147
0.00802758
0.0181538
0.00811188
0.0101092
0.00752169
0.00831167
0.0103885
0.00778506
0.522327
0.00801583
0.0075537
0.0075728
0.0731657
0.00936402
0.00744493
0.020134
0.00831927
0.0087437
0.00778235
0.00801562
0.00912729
0.00785553
0.00778958
0.148369
0.00869253
0.0211828
0.00856649
0.00767203
0.0479282
0.00814492
0.00823055
0.00836449
0.0140756
0.0169334
0.00798141
0.0137105
0.00868161
0.00783152
0.00798713
0.403446
0.00796809
0.0102685
0.00768771
0.0110403
0.00812019
0.00890404
0.00880225
0.00841002
0.0108858
0.0107646
0.0101687
0.00826329
0.00755427
0.0482628
0.0153959
0.0104881
0.00948535
0.00868118
0.00790939
0.0107076
0.2986
0.00936371
0.00776778
0.00840059
0.00770678
0.0078851
0.00849739
0.00794771
0.00787432
0.00779487
0.507112
0.00787394
0.00850164
0.00841736
0.0103866
0.00774801
0.232532
0.00788344
0.00751974
0.00826946
0.00840382
0.00864839
0.0130249
0.00837577
0.00814157
0.0076107
0.00761843
0.00841535
0.00845673
0.00816251
0.00820978
0.00751632
0.00857191
0.00754266
0.00846535
0.00774333
0.239567
0.0080142
0.00836599
0.00795747
0.0077658
0.00842542
0.00796364
0.374462
0.00783722
0.00772474
0.00790899
0.010567
0.447544
0.0105527
0.0125495
0.00755145
0.00857165
0.00870535
0.00968489
0.00839075
0.00823657
0.0080573
0.00793248
0.00808347
0.00865887
0.0107727
0.00802177
0.00848681
0.0107117
0.00773967
0.0094002
0.0113104
0.00803062
0.00758807
0.235555
0.00811844
0.540153
0.0087807
0.0115202
0.00782315
0.00754446
0.00940768
0.00880353
0.00819614
0.0105774
0.00771277
0.00819741
0.00793071
0.0106112
0.00802478
0.00798148
0.0080456
0.00845406
0.00789079
0.00841376
1.14154
0.00781678
0.00768871
0.00845814
0.00819045
0.00986533
0.0432898
0.00873051
0.00777391
0.00796539
0.00946534
0.00956994
0.00861303
0.00765389
0.00769275
0.0641496
0.00860605
0.007893
0.00907149
0.0349427
0.00828985
0.00769216
0.00820866
0.00775467
0.00884137
0.00813806
0.00821591
0.00838176
0.00787594
0.0105592
0.00782213
0.514764
0.00982185
0.00776731
0.00957989
0.00770026
0.00793312
0.00818608
0.00834791
0.0082779
0.00879473
0.00809048
0.472001
0.00811783
0.0267637
0.00871241
0.00762756
0.00771212
0.00781569
0.825059
0.00833713
0.00817025
0.00872002
0.00885678
0.00784526
0.00766034
0.00814211
0.0101584
0.38808
0.00797906
0.00816445
0.00766725
0.00797185
0.00841562
0.00785773
0.00842974
0.00998486
0.0074776
0.00828125
0.00821478
0.00829291
0.0104805
0.0113103
0.00752377
0.00825931
0.00869939
0.00780788
0.57015
0.355559
0.00791994
0.00811027
0.00955905
0.00853241
0.00928426
0.0102171
0.00789576
0.00765577
0.00766042
0.0148768
0.00809576
0.00866548
0.00764615
0.0075507
0.00768301
0.00859799
0.00752731
0.00756128
0.00869063
0.00792632
0.00815371
0.00827298
1.40301
0.00756008
0.00783513
0.0100685
0.321262
0.00885245
0.00796843
0.00882328
1.37908
0.0101964
0.00896295
0.00812021
0.00772717
0.00846815
0.00808674
0.00863604
0.00956561
0.00790666
0.00828602
0.00861698
0.00805781
0.00869408
0.00794257
0.00821528
0.00771772
0.0292218
0.00774756
0.0108664
0.010778
0.00831752
0.008659
0.613922
0.00868487
0.00844127
0.00797897
0.00827335
0.00799927
0.167019
0.00851189
0.00814498
0.0077785
0.00806979
0.00767142
0.00759716
0.012333
0.00846932
0.00777745
0.00753879
0.00780238
0.00783231
0.00978328
0.00776277
0.00894176
0.00804366
0.00813154
0.142682
0.0079137
0.00901767
0.00792824
0.00855514
0.00876958
0.00785398
0.00753895
0.00830688
0.0077281
0.566034
0.00817837
0.0225458
0.00784057
0.00757573
0.00850733
0.250288
0.00801414
0.00858211
0.00782882
0.00760135
0.0148676
0.00792283
0.00835518
0.00795513
0.00912706
0.00830361
0.0080139
0.00845378
0.00762735
0.00841529
0.00762349
0.00840512
0.00780459
0.00812156
0.00959322
0.0105087
0.341431
0.00896964
0.00943389
0.261508
0.00818735
0.0645871
0.00832503
0.00920565
0.00795214
0.00829461
0.0218559
0.00877081
0.00793031
0.00801125
0.00804749
0.00846909
0.00910178
0.00746305
0.00789846
0.00827981
0.00922483
0.00920047
0.00813719
1.04135
0.0088044
1.51519
0.0081305
0.016419
0.00779312
0.0082881
0.00818445
0.00782093
0.00855545
0.00767289
0.00997529
0.00815744
0.0100143
0.00896151
0.00829047
0.00837675
0.0078548
0.0077814
0.00745451
0.0441996
0.00919793
0.377299
0.00811541
0.00883405
0.00802168
0.00829357
0.00786661
0.0120864
0.0231734
0.00840012
0.00808018
0.00758211
0.0105719
0.00784305
0.00809893
0.00913914
0.00856469
0.00791729
0.00874342
0.00833098
0.00759866
0.00790409
0.00766706
0.00802249
0.394361
0.00976082
0.00863742
0.00801758
0.00813713
0.00926292
0.00893633
0.341713
0.0105585
0.00814886
0.00809515
0.0143331
0.00796282
0.00845509
0.0079585
0.00753519
0.00815269
0.00824571
0.00788963
0.125863
0.69456
0.290787
0.00937201
0.00876228
0.00869138
0.00838843
0.00781592
0.00810391
0.00880033
0.0765827
0.00780314
0.0081237
0.0100455
0.00759586
0.00811773
0.00807863
0.00862512
0.316562
0.0092319
0.0113381
0.434351
0.00843081
0.00906584
0.00846381
0.0079814
0.0446353
0.00814738
0.0200469
0.268018
0.0080207
0.00813377
1.54561
0.00843432
0.00833403
0.00796357
0.0112036
0.00744565
0.00751138
0.00807712
0.00860785
0.00839416
0.138933
0.00753039
0.00848373
0.00859773
0.00819289
0.00806428
0.00744429
0.0107607
0.00757667
0.00859666
0.0107753
0.0414338
0.322178
0.00896194
0.126873
0.0492143
0.00816309
0.00791977
0.00868136
0.0076822
0.00803718
0.00801204
0.00752609
0.00824816
0.00765483
0.00809655
0.0100201
0.00819422
0.0108901
0.651708
0.0114956
0.00801751
0.00754882
0.0113947
0.00803329
0.00773234
0.943818
0.00776066
0.00814316
0.00763193
0.00787953
0.00789176
0.0305472
0.00897028
0.00826375
0.00788376
0.00904292
0.00862393
0.00744813
0.00882525
0.00826474
0.00828813
0.0100531
0.00801669
0.00866524
0.00860299
0.00796707
0.00864244
0.00807826
0.00768611
0.0155793
0.81796
0.0102587
0.0240122
0.0286309
0.00821228
0.00929034
0.00798485
0.00999434
0.941287
0.0297433
0.582906
0.0181308
0.00816266
0.00792869
0.0173056
0.0096415
0.00816293
0.285305
0.0074201
0.00818172
0.00812482
0.00770204
0.00822834
0.0426111
0.00790911
0.00746408
0.0229341
0.00815001
0.00833827
0.0134885
0.00855805
0.0530003
0.00850733
0.00821968
0.00854514
0.00893734
0.00996132
0.00767497
0.00789455
0.0176469
0.0090491
0.00862312
0.0083746
0.00763934
0.00805574
0.00825143
0.0111241
0.00752679
0.334745
0.00810937
0.00836119
0.00763046
0.00850711
0.00916414
0.00779978
0.00806473
0.00768469
0.0108033
0.235676
0.00760554
0.00748715
0.00807441
0.00833748
0.00814819
0.00859551
0.00765599
0.00770354
0.00866271
0.0113372
0.00814556
0.00948666
0.28732
0.00771907
0.00919181
0.00977784
0.00771144
0.025335
0.00802576
0.00816533
0.00788469
0.00790375
0.00793452
0.00800966
0.00898993
0.0404385
0.00790668
0.00779257
0.0080139
0.00881357
0.0081635
0.0111755
0.00855529
0.00886128
0.0159005
0.00774432
0.0092346
0.00783066
0.00972816
0.00906734
0.00795524
0.0100332
0.00847784
0.0271351
0.00819784
0.00859361
0.00798203
0.00778092
0.008638
0.00834795
0.00759549
0.0337313
0.00833606
0.134031
0.00759623
0.00861551
0.0090916
0.00793142
0.00795192
0.106126
0.00777466
0.00950861
0.00832376
0.00837932
0.00784601
0.010597
0.00798929
0.00768049
0.0500632
0.517581
0.00789784
0.00878155
0.00822017
0.00834102
0.0110454
0.0081154
0.00968124
0.00839096
0.0107583
0.383538
0.00761576
0.00846308
0.345099
0.00830583
0.00762715
0.00770097
0.00756852
0.0100725
0.0085803
0.00905068
0.00913566
0.00815592
0.00879327
0.00804419
0.00838876
0.00819088
0.00822639
0.00769893
0.0213692
0.00838931
0.00833145
0.156048
0.00800725
0.00821406
0.00780429
0.00791018
0.00892541
0.00826472
0.0106222
0.0078177
0.00745915
0.00819232
0.00803919
0.00914025
0.00754194
0.00843079
0.0084847
0.00759162
0.00788856
0.00931673
0.0117211
0.00931015
0.00801849
0.00804508
0.0104257
0.00924461
0.00790133
0.0079962
0.0153397
0.00845186
0.00855314
0.00950388
0.00842922
0.00804752
0.00756566
0.0233312
0.00789157
0.0088096
0.00825286
0.00751917
0.0089827
0.00765975
0.014586
0.00763518
0.0321274
0.0106021
0.0174643
0.00839942
0.0111911
0.0128818
0.0110605
0.408191
0.0081021
0.00751136
0.00847051
0.0083924
0.00799362
0.00840175
0.0108784
0.00909726
0.00752862
0.00811343
0.00809183
0.00858217
0.00989715
0.00944814
0.00768853
0.00789413
0.00874871
0.00912824
0.00796402
0.0152535
0.00798029
0.00914313
0.00886794
0.171349
0.00788681
0.00892398
0.00848532
0.0321515
0.00820869
0.00815816
0.0289799
0.010931
0.00959071
0.00888945
0.00857412
0.00948419
0.00754684
0.00872648
0.281138
0.00829385
0.00830154
0.0089119
0.0101776
0.0102273
0.00856824
0.00763711
0.00831715
0.00781559
0.0156113
0.00813544
0.00771027
0.0084668
0.0092591
0.00882593
0.00765107
0.0105095
0.0331483
0.0157774
0.00761431
0.00845702
0.00963467
1.18515
0.00888796
0.0105448
0.968707
0.0111966
0.00917509
0.010406
0.0105178
0.00855978
0.00830194
0.00804616
0.00764983
0.0179928
0.00915235
0.00758609
0.0085069
0.00762643
0.00870943
0.00837995
0.00756767
0.00756548
0.00796809
0.00855687
0.00847874
0.00749553
0.00936557
0.00778782
0.0078345
0.0109738
0.00795562
0.0075792
0.00924644
0.00757186
0.00837836
0.00790017
0.00769979
0.00768739
0.00871193
0.00814006
0.00862714
0.00756677
0.00748481
0.063079
0.00891468
0.00785568
0.243589
0.00859763
0.00818441
0.0084442
0.0093215
0.00809965
0.00887835
0.00775056
0.00743559
0.00913824
0.00829623
0.0089651
0.00964168
0.00766636
0.0287751
0.0078066
0.00830601
0.0152892
0.100362
0.00801375
0.0079144
0.00767797
0.00828592
0.00916023
0.00884541
0.00790178
0.00957082
0.00765032
0.00799192
0.00760517
0.0084106
0.00924079