/*--------------------------------*- C++ -*----------------------------------*\
| =========                 |                                                 |
| \\      /  F ield         | OpenFOAM: The Open Source CFD Toolbox           |
|  \\    /   O peration     | Version:  3.0.1                                 |
|   \\  /    A nd           | Web:      www.OpenFOAM.org                      |
|    \\/     M anipulation  |                                                 |
\*---------------------------------------------------------------------------*/
FoamFile
{
    version     2.0;
    format      ascii;
    class       volScalarField;
    location    "0.0732344";
    object      nut;
}
// * * * * * * * * * * * * * * * * * * * * * * * * * * * * * * * * * * * * * //

dimensions      [0 2 -1 0 0 0 0];

internalField   nonuniform List<scalar> 
21246
(
4.38657e-05
0.000301609
0.000552149
0.000775339
0.000871665
0.00086332
0.000807233
0.000764614
0.000757124
0.000746623
0.000697607
3.21877e-05
0.000169933
0.00035503
0.000565238
0.000729347
0.000799838
0.000790481
0.000758201
0.000757367
0.000754294
0.000706703
2.66452e-05
0.000114893
0.000257731
0.000430699
0.000597878
0.000708693
0.000739984
0.000729191
0.000744446
0.00075781
0.000716032
2.26377e-05
9.76124e-05
0.000208976
0.000349724
0.000500891
0.000623631
0.0006825
0.000684497
0.000698207
0.000746927
0.000724952
1.90886e-05
9.78831e-05
0.000186434
0.000300462
0.000431508
0.000551911
0.000626224
0.0006418
0.000640701
0.000689311
0.000719797
1.81682e-05
0.000109537
0.000183203
0.000273761
0.000383354
0.000493877
0.000574433
0.00060243
0.000594483
0.000613564
0.000670564
1.89743e-05
0.000129906
0.000196354
0.000266829
0.000354673
0.000450544
0.000529811
0.000566555
0.0005596
0.000552427
0.000593275
1.91114e-05
0.000148664
0.000217392
0.000274818
0.000343276
0.000422181
0.000494377
0.00053489
0.000532021
0.000510208
0.000519696
1.84777e-05
0.000156336
0.000234315
0.00028822
0.000343509
0.000406358
0.00046815
0.000507774
0.000508594
0.00048075
0.000463982
1.7552e-05
0.000153089
0.000240647
0.00029732
0.000347332
0.0003983
0.000449191
0.0004847
0.000487334
0.000457944
0.000424377
1.66937e-05
0.000145196
0.000235255
0.000296298
0.000347465
0.000392559
0.00043445
0.000464376
0.00046683
0.000437603
0.000394871
1.58375e-05
0.000137278
0.000221735
0.00028423
0.000339477
0.000384131
0.000420191
0.000444674
0.000445608
0.000416965
0.000370335
1.48508e-05
0.000128281
0.000205835
0.000265432
0.000321224
0.000369237
0.000402721
0.00042306
0.00042221
0.000394401
0.000347362
1.37283e-05
0.000117887
0.000188311
0.000243741
0.000296126
0.000346224
0.000379678
0.000397722
0.000395834
0.000369641
0.00032468
1.25787e-05
0.000107087
0.000171182
0.000222138
0.000269859
0.000316909
0.000351418
0.00036888
0.000367477
0.000344427
0.000304121
1.14784e-05
9.64695e-05
0.000155338
0.000202554
0.000245188
0.000287049
0.000321261
0.000339826
0.000341323
0.00032395
0.000290691
1.04036e-05
8.59661e-05
0.000140324
0.000185348
0.000224307
0.000261805
0.000295389
0.000317935
0.000326363
0.000318332
0.000293523
9.38479e-06
7.59474e-05
0.000126182
0.00017032
0.000208338
0.0002453
0.000282385
0.00031501
0.00033708
0.000342814
0.000326074
8.43809e-06
6.7109e-05
0.000113607
0.00015798
0.000198348
0.000240772
0.000288021
0.000335506
0.000373698
0.000392319
0.000378295
7.52816e-06
6.06926e-05
0.000106601
0.000153223
0.000195534
0.000239062
0.000279818
0.000317185
0.000349012
0.000368476
0.000360838
7.46844e-06
5.98235e-05
0.000105175
0.000143294
0.000159852
0.000173542
0.000178536
0.000193856
0.000213437
0.000228843
0.000232361
7.66821e-06
5.11515e-05
6.93485e-05
8.0461e-05
8.76973e-05
0.000119858
0.000158906
0.000196672
0.000230285
0.000257406
0.000272694
5.9978e-06
1.82404e-05
3.18271e-05
6.23671e-05
0.000105672
0.000154803
0.000204857
0.000249998
0.000286392
0.000314129
0.000332256
8.27143e-06
2.63708e-05
6.15259e-05
0.000114461
0.000179983
0.00024872
0.000308843
0.000352388
0.000378561
0.000391797
0.00039485
4.20202e-05
0.000378432
0.000677371
0.000856753
0.000915504
0.000886179
0.000820914
0.000771624
0.000756357
0.000741987
0.00069131
2.51092e-05
0.000268987
0.000590362
0.000828861
0.000938694
0.000937746
0.000873305
0.000806043
0.000773841
0.000756253
0.00070771
1.73398e-05
0.000198489
0.000489035
0.000754655
0.000923207
0.000977157
0.0009376
0.000860589
0.000806459
0.000780736
0.000734843
1.17274e-05
0.00013497
0.000376276
0.000633974
0.000843707
0.00096377
0.000979533
0.00091999
0.000851189
0.000811623
0.000764969
1.09053e-05
9.2668e-05
0.000258734
0.000485214
0.000707943
0.000879843
0.000962097
0.000948552
0.000883918
0.000834234
0.000800478
1.23663e-05
8.7477e-05
0.000205935
0.000372338
0.000571376
0.000760831
0.000889988
0.000929366
0.000889704
0.000837778
0.000812486
1.40776e-05
9.44759e-05
0.000201372
0.000331208
0.000490173
0.000663028
0.000810791
0.000886318
0.000875628
0.000826975
0.000807501
1.58608e-05
0.000103298
0.000210713
0.000328044
0.000459868
0.000607379
0.000746751
0.000838156
0.000851203
0.000807036
0.000785113
1.75871e-05
0.000112694
0.000224163
0.000338384
0.000455817
0.000581174
0.000704622
0.000794935
0.000821659
0.000783697
0.000749766
1.92038e-05
0.000122991
0.000239419
0.000353806
0.000463755
0.000572388
0.000677274
0.000758819
0.000789566
0.000760041
0.000709185
2.06587e-05
0.000133141
0.000254656
0.00037105
0.000476904
0.000573062
0.000659249
0.000726849
0.000756342
0.000734152
0.000674132
2.19982e-05
0.000143606
0.000272467
0.000389509
0.00049217
0.000578201
0.000646551
0.000696592
0.000720944
0.000705373
0.000646915
2.31441e-05
0.000153849
0.000289558
0.000408283
0.000507961
0.000584711
0.000636294
0.000667681
0.000683726
0.000673661
0.000623859
2.41018e-05
0.000163687
0.000306871
0.000427462
0.000523253
0.000589444
0.000624746
0.000639928
0.000647509
0.000640965
0.00060413
2.48793e-05
0.000172579
0.000323276
0.000444987
0.000535763
0.000590631
0.000611078
0.000613908
0.000614714
0.00060959
0.000584117
2.53329e-05
0.000181387
0.000339275
0.000461731
0.000546279
0.000588538
0.0005961
0.000589425
0.000584672
0.000579154
0.000560955
2.53795e-05
0.000189389
0.000353783
0.000475808
0.000552132
0.000584269
0.000582257
0.000567221
0.000556246
0.000547505
0.000530461
2.486e-05
0.000195111
0.000363497
0.000482392
0.000553807
0.000581085
0.000572479
0.000549036
0.000530342
0.000516737
0.000499952
2.3623e-05
0.000196254
0.000362599
0.000481491
0.000554096
0.000580975
0.000568422
0.000536757
0.000508853
0.00048807
0.000466988
2.14232e-05
0.000188399
0.000351273
0.000473777
0.000551783
0.000582434
0.000569387
0.000531178
0.000493738
0.00046478
0.000438353
1.84403e-05
0.000171723
0.000328454
0.000454932
0.000541769
0.000580918
0.000572422
0.000531667
0.000486194
0.000449196
0.00041646
1.50488e-05
0.000146411
0.000288567
0.000419919
0.000517736
0.000569498
0.000572086
0.000535955
0.000486853
0.000444328
0.000406716
1.08754e-05
0.000100551
0.000235343
0.000368
0.000474147
0.000538353
0.000557936
0.00053605
0.000490738
0.000447258
0.000407829
7.56123e-06
9.32023e-05
0.000196413
0.00031449
0.00040448
0.000468756
0.000504212
0.000503088
0.000479669
0.000449676
0.000419508
5.48872e-05
0.000344921
0.000485521
0.000546595
0.000566295
0.000576098
0.000585397
0.000590128
0.000580318
0.000547574
0.000489489
3.77156e-05
0.000288125
0.000469225
0.000552473
0.000578527
0.000583532
0.000584148
0.000581962
0.000570723
0.000540044
0.000484689
3.07419e-05
0.000253401
0.000442944
0.000550173
0.000590027
0.000597866
0.000595719
0.000589085
0.000574782
0.000544401
0.000490291
2.91021e-05
0.000230425
0.000419941
0.000542271
0.000596206
0.000610468
0.000610044
0.00060372
0.00058915
0.000558395
0.000503197
2.86794e-05
0.000204167
0.00038767
0.000523977
0.00059365
0.000615168
0.00061322
0.000601667
0.000581559
0.000548413
0.000495358
2.90624e-05
0.000191916
0.000361972
0.000493769
0.00057074
0.000602584
0.000608449
0.000603357
0.00059004
0.000563669
0.000515811
2.97644e-05
0.000183547
0.000344187
0.000467991
0.000543251
0.000579691
0.000594013
0.000597663
0.000590586
0.000566337
0.000516561
3.06875e-05
0.000177038
0.000329809
0.000446102
0.000518486
0.000557123
0.000577139
0.00058779
0.000587621
0.000570305
0.000528002
3.15451e-05
0.000171343
0.000317452
0.000427189
0.00049629
0.000535735
0.00055992
0.000576708
0.000583201
0.000571081
0.000529603
3.21623e-05
0.000165241
0.000305761
0.000410445
0.00047694
0.000516884
0.000544263
0.000565874
0.00057714
0.000567011
0.000522699
3.26633e-05
0.00015906
0.000294759
0.000395578
0.000460243
0.000500753
0.000530721
0.000556039
0.000570772
0.000563197
0.00052486
3.30865e-05
0.000153607
0.000285083
0.000382671
0.000445968
0.000487135
0.000519379
0.000547821
0.000565566
0.000560437
0.000523697
3.32792e-05
0.000148202
0.000276127
0.000371271
0.000433819
0.000475926
0.000510405
0.000541784
0.000562387
0.000559018
0.000520611
3.32392e-05
0.000142087
0.000266984
0.000360718
0.000423385
0.000466909
0.000503756
0.000538038
0.000561344
0.000559642
0.000523491
3.2948e-05
0.00013598
0.00025813
0.000351002
0.000414358
0.000459706
0.00049912
0.000536392
0.000562406
0.000561947
0.000523648
3.23673e-05
0.000129453
0.000249098
0.000341695
0.000406397
0.000454071
0.000496336
0.0005368
0.000565722
0.000566537
0.000527038
3.15341e-05
0.000121753
0.000238861
0.000331936
0.000398876
0.000449567
0.000495083
0.000539048
0.000571297
0.000573733
0.00053356
3.0302e-05
0.000111947
0.000225586
0.000319695
0.000389856
0.000444768
0.000494151
0.000541898
0.000578233
0.000583448
0.000542645
2.86416e-05
9.9838e-05
0.000208077
0.000302793
0.000375736
0.000433178
0.00048418
0.000533461
0.000573164
0.000583244
0.000547783
2.65152e-05
8.54457e-05
0.000185453
0.000279802
0.000355233
0.000414062
0.000463085
0.000507566
0.000543461
0.000554914
0.000529885
2.38573e-05
6.9398e-05
0.000157555
0.000249438
0.000326814
0.000386553
0.000431799
0.000467111
0.000492247
0.000498403
0.000480726
2.06172e-05
5.34006e-05
0.000126708
0.000212095
0.000289539
0.000349731
0.000391471
0.000417583
0.000430112
0.000426677
0.000407849
1.66109e-05
3.82186e-05
9.46084e-05
0.000170499
0.000243966
0.00030215
0.000340882
0.000361173
0.000365574
0.000355277
0.000333264
1.18762e-05
3.821e-05
8.50604e-05
0.000138373
0.000189159
0.000232502
0.000263606
0.000280751
0.000284498
0.0002761
0.000258284
4.93564e-05
0.000194929
0.000283976
0.000370124
0.000460202
0.000556907
0.000607817
0.000641061
0.000622724
0.00058166
0.000517591
3.40154e-05
0.000102837
0.00017281
0.000236425
0.00029421
0.000338492
0.000398007
0.000602996
0.000679163
0.000630942
0.000552872
2.59227e-05
7.51018e-05
0.000128482
0.000178619
0.000224104
0.0002576
0.000286046
0.000361357
0.000619186
0.000688805
0.000602853
2.49806e-05
8.31253e-05
0.000113126
0.00014789
0.000183786
0.000212664
0.00023229
0.000261653
0.00037238
0.000645349
0.000666374
2.9732e-05
0.000146077
0.000146602
0.000151379
0.000167828
0.000186918
0.000201
0.000214471
0.000259554
0.000408433
0.000650504
3.34636e-05
0.000191074
0.000229201
0.00019714
0.000180196
0.000179355
0.000183599
0.000188468
0.00020709
0.000277684
0.000458651
3.64479e-05
0.000219758
0.000342742
0.000299375
0.000234435
0.000196501
0.000180589
0.000174896
0.000179982
0.000214363
0.000320193
3.93616e-05
0.000235161
0.000405094
0.000435573
0.000337297
0.000246785
0.000196059
0.000172562
0.000166217
0.000182057
0.000244257
4.19303e-05
0.000248742
0.000452602
0.000552046
0.000475829
0.000336685
0.000235456
0.00018302
0.000161915
0.000165159
0.000203405
4.39788e-05
0.000257999
0.000481693
0.000616817
0.000608564
0.000455892
0.000300089
0.000207676
0.000166083
0.000157493
0.000180827
4.54835e-05
0.000265253
0.000499587
0.000655865
0.000710466
0.000583242
0.000384763
0.000245702
0.000178002
0.000156404
0.000168867
4.66248e-05
0.000266047
0.000504321
0.000668327
0.000752
0.000682127
0.000472302
0.000291017
0.000195379
0.000160218
0.000163831
4.73924e-05
0.000266727
0.000500721
0.000660373
0.000756117
0.000738063
0.000543446
0.000333619
0.000214087
0.000167107
0.000163764
4.78131e-05
0.000265134
0.000488681
0.000635884
0.000729715
0.000745728
0.000583047
0.000363043
0.000229487
0.000175212
0.000167641
4.78936e-05
0.00025989
0.000469605
0.000598165
0.000677145
0.000706604
0.000585979
0.00037213
0.000238407
0.000183461
0.000174832
4.74404e-05
0.000253104
0.000447172
0.000554145
0.000607565
0.000625685
0.00056236
0.000362499
0.000240409
0.000192338
0.000185548
4.6378e-05
0.0002443
0.000421773
0.000508503
0.000537522
0.000537349
0.000493262
0.00035716
0.000241623
0.000205033
0.00020149
4.46532e-05
0.000234352
0.000395779
0.00046636
0.000476289
0.000463405
0.000429377
0.000350564
0.000256663
0.000227959
0.000225137
4.23323e-05
0.000225643
0.000373465
0.000434416
0.000436112
0.000422124
0.000402211
0.000362005
0.000300274
0.000272985
0.000265879
3.95257e-05
0.000222227
0.000361466
0.000419092
0.000424926
0.000420419
0.000417028
0.00040364
0.000374396
0.000344937
0.00031728
3.63994e-05
0.000236066
0.000368586
0.00041001
0.000407214
0.000394995
0.000375259
0.000352072
0.000333417
0.000299072
0.000247671
3.18727e-05
0.000224414
0.000316981
0.000333664
0.000295139
0.000222622
0.000174184
0.000154354
0.000138263
0.000122057
0.000105481
1.88681e-05
0.000107822
0.000131664
0.00011273
9.05437e-05
7.767e-05
7.08852e-05
6.82614e-05
6.73696e-05
6.66519e-05
6.49523e-05
9.03321e-06
1.09483e-05
1.47486e-05
2.06419e-05
2.97263e-05
4.22109e-05
5.71674e-05
7.2491e-05
8.56566e-05
9.46702e-05
9.86548e-05
2.55465e-05
5.51054e-05
4.9744e-05
4.7916e-05
4.08869e-05
3.4511e-05
3.11029e-05
2.93896e-05
2.8456e-05
2.78992e-05
2.75508e-05
2.2305e-05
6.18512e-05
4.61622e-05
5.11546e-05
4.24498e-05
3.5024e-05
3.06306e-05
2.84049e-05
2.7211e-05
2.65606e-05
2.62923e-05
2.30557e-05
5.84035e-05
3.97571e-05
5.3559e-05
4.33445e-05
3.57644e-05
3.043e-05
2.77313e-05
2.62898e-05
2.55443e-05
2.53067e-05
2.54589e-05
5.38512e-05
3.91843e-05
5.39441e-05
4.36064e-05
3.64324e-05
3.02964e-05
2.72252e-05
2.5565e-05
2.47467e-05
2.46043e-05
2.81144e-05
5.11491e-05
3.92172e-05
5.28197e-05
4.40221e-05
3.69542e-05
3.01887e-05
2.68346e-05
2.49654e-05
2.40476e-05
2.38919e-05
3.03188e-05
4.99013e-05
3.88769e-05
5.02394e-05
4.48069e-05
3.74374e-05
3.01975e-05
2.65623e-05
2.44752e-05
2.34247e-05
2.31964e-05
3.20639e-05
4.99312e-05
3.86189e-05
4.60133e-05
4.46328e-05
3.80449e-05
3.04276e-05
2.64355e-05
2.41043e-05
2.28831e-05
2.2543e-05
3.33769e-05
5.12847e-05
3.90193e-05
4.21112e-05
4.23692e-05
3.84232e-05
3.10022e-05
2.64908e-05
2.38793e-05
2.24412e-05
2.19133e-05
3.40691e-05
5.36658e-05
4.02388e-05
3.9232e-05
3.87762e-05
3.75216e-05
3.17359e-05
2.68644e-05
2.38845e-05
2.21385e-05
2.1356e-05
3.40558e-05
5.66909e-05
4.24721e-05
3.75271e-05
3.48928e-05
3.46433e-05
3.18336e-05
2.74568e-05
2.41639e-05
2.20681e-05
2.09504e-05
3.34707e-05
6.05558e-05
4.60182e-05
3.75161e-05
3.22554e-05
3.08726e-05
3.03326e-05
2.77988e-05
2.46825e-05
2.22659e-05
2.07766e-05
3.23432e-05
6.57031e-05
5.11047e-05
3.93738e-05
3.15116e-05
2.80592e-05
2.75926e-05
2.70961e-05
2.51395e-05
2.27246e-05
2.08936e-05
3.07275e-05
7.19796e-05
5.80608e-05
4.31961e-05
3.26082e-05
2.68461e-05
2.49387e-05
2.50661e-05
2.4852e-05
2.32288e-05
2.13128e-05
2.88982e-05
7.92614e-05
6.74144e-05
4.9453e-05
3.57543e-05
2.74598e-05
2.3497e-05
2.26298e-05
2.32701e-05
2.31554e-05
2.18427e-05
2.73263e-05
8.93362e-05
8.02569e-05
5.89129e-05
4.14193e-05
3.01824e-05
2.39038e-05
2.12282e-05
2.11297e-05
2.19214e-05
2.18957e-05
2.68419e-05
0.000104055
9.87362e-05
7.3358e-05
5.07265e-05
3.55801e-05
2.64865e-05
2.16156e-05
1.98265e-05
2.00491e-05
2.08596e-05
2.7408e-05
0.000123433
0.000125338
9.61878e-05
6.63251e-05
4.52992e-05
3.21616e-05
2.44274e-05
2.0404e-05
1.89848e-05
1.92263e-05
2.77683e-05
0.000145094
0.000160284
0.000131434
9.2827e-05
6.28516e-05
4.3249e-05
3.11347e-05
2.39891e-05
2.01813e-05
1.86831e-05
2.70129e-05
0.000163307
0.000197928
0.000179735
0.000136103
9.47323e-05
6.49589e-05
4.54754e-05
3.31792e-05
2.56551e-05
2.13448e-05
2.49655e-05
0.000172896
0.000229471
0.000233339
0.000197864
0.000149268
0.000107007
7.60184e-05
5.47565e-05
4.05668e-05
3.12862e-05
2.18053e-05
0.000170989
0.000249047
0.00028002
0.000269419
0.000230037
0.000182055
0.000138692
0.00010425
7.85026e-05
5.97977e-05
1.84151e-05
0.000163204
0.000256771
0.000309785
0.000329588
0.000319337
0.00028703
0.00024472
0.000201903
0.000163814
0.000131625
1.32623e-05
0.000132577
0.000214339
0.000268405
0.000309726
0.000336609
0.000345121
0.000335913
0.000313429
0.000284377
0.000252391
1.06229e-05
9.02772e-05
0.000137753
0.000180189
0.000219105
0.000255145
0.000283083
0.000302717
0.000313386
0.000315486
0.00030792
2.10151e-05
5.19254e-05
4.76518e-05
4.65732e-05
4.02633e-05
3.4898e-05
3.21662e-05
3.08575e-05
3.022e-05
2.99304e-05
2.98446e-05
1.62285e-05
4.43058e-05
4.97758e-05
5.00287e-05
4.34387e-05
3.74903e-05
3.4258e-05
3.28179e-05
3.22353e-05
3.21052e-05
3.22442e-05
1.69661e-05
4.24991e-05
4.66745e-05
5.47875e-05
4.87e-05
4.22798e-05
3.82326e-05
3.62516e-05
3.54931e-05
3.54266e-05
3.58146e-05
1.95283e-05
3.97774e-05
4.57567e-05
5.8069e-05
5.26189e-05
4.69668e-05
4.3226e-05
4.16123e-05
4.12864e-05
4.17032e-05
4.26389e-05
2.26583e-05
3.67179e-05
4.61983e-05
6.01552e-05
5.60205e-05
5.12805e-05
4.74998e-05
4.581e-05
4.54613e-05
4.60166e-05
4.73054e-05
2.5756e-05
3.44401e-05
4.70593e-05
6.14881e-05
5.89832e-05
5.52595e-05
5.15405e-05
4.9901e-05
4.95835e-05
5.02593e-05
5.17725e-05
2.87126e-05
3.29677e-05
4.79666e-05
6.26273e-05
6.17783e-05
5.90706e-05
5.55569e-05
5.41843e-05
5.4078e-05
5.50215e-05
5.6821e-05
3.15286e-05
3.20643e-05
4.88534e-05
6.38888e-05
6.46754e-05
6.28538e-05
5.9764e-05
5.88944e-05
5.94018e-05
6.12946e-05
6.46183e-05
3.40511e-05
3.15458e-05
4.97502e-05
6.54496e-05
6.79298e-05
6.67621e-05
6.42629e-05
6.40539e-05
6.54548e-05
6.86356e-05
7.35907e-05
3.62595e-05
3.12915e-05
5.07476e-05
6.72955e-05
7.15327e-05
7.09443e-05
6.90976e-05
6.96146e-05
7.20674e-05
7.67897e-05
8.38136e-05
3.81415e-05
3.12079e-05
5.17531e-05
6.9456e-05
7.54396e-05
7.54774e-05
7.42655e-05
7.54798e-05
7.89744e-05
8.51163e-05
9.33451e-05
3.97595e-05
3.12146e-05
5.27202e-05
7.18226e-05
7.96284e-05
8.03762e-05
7.97514e-05
8.15611e-05
8.59773e-05
9.33983e-05
0.000102984
4.09736e-05
3.10041e-05
5.35414e-05
7.42609e-05
8.40993e-05
8.56451e-05
8.55614e-05
8.77852e-05
9.29196e-05
0.00010143
0.000112792
4.16807e-05
2.9957e-05
5.16537e-05
7.47552e-05
8.75448e-05
9.07572e-05
9.16065e-05
9.41883e-05
9.98653e-05
0.0001092
0.000122026
4.18147e-05
2.8838e-05
4.79347e-05
7.28042e-05
8.91019e-05
9.50401e-05
9.75622e-05
0.000100726
0.000106857
0.000116739
0.000130598
4.13276e-05
2.77326e-05
4.29732e-05
6.78533e-05
8.77057e-05
9.74145e-05
0.000102655
0.000107032
0.000113724
0.000123935
0.00013831
4.01983e-05
2.66883e-05
3.75244e-05
5.99535e-05
8.21587e-05
9.62072e-05
0.000105319
0.000112053
0.000119874
0.000130488
0.000145
3.83312e-05
2.57371e-05
3.24826e-05
5.04467e-05
7.22531e-05
8.97045e-05
0.000103125
0.000113487
0.000123591
0.000135301
0.000150022
3.5666e-05
2.47506e-05
2.82194e-05
4.09841e-05
5.93515e-05
7.73815e-05
9.36686e-05
0.000107777
0.000121149
0.000135163
0.00015105
3.21601e-05
2.35065e-05
2.46974e-05
3.2694e-05
4.58772e-05
6.10804e-05
7.68423e-05
9.23027e-05
0.000107804
0.000124047
0.00014176
2.77615e-05
2.17087e-05
2.16545e-05
2.59746e-05
3.40011e-05
4.44048e-05
5.63713e-05
6.9325e-05
8.32165e-05
9.83324e-05
0.000115095
2.24804e-05
1.89862e-05
1.86165e-05
2.05521e-05
2.46066e-05
3.0337e-05
3.74314e-05
4.56545e-05
5.49135e-05
6.52449e-05
7.6769e-05
1.63668e-05
1.47772e-05
1.46782e-05
1.54314e-05
1.70646e-05
1.9502e-05
2.26929e-05
2.66003e-05
3.11964e-05
3.64681e-05
4.24015e-05
9.4919e-06
1.07612e-05
1.30663e-05
1.59264e-05
1.91895e-05
2.3205e-05
3.00932e-05
4.03736e-05
5.46714e-05
7.34651e-05
9.58218e-05
9.40199e-06
8.41846e-06
8.45245e-06
8.99457e-06
1.23319e-05
1.5393e-05
1.7062e-05
1.80747e-05
1.88446e-05
2.92537e-05
3.36207e-05
3.36121e-05
3.02028e-05
3.34298e-05
4.5884e-05
6.57264e-05
9.17865e-05
0.000114211
5.04946e-05
5.39202e-05
5.21665e-05
4.78469e-05
6.1252e-05
9.0457e-05
0.000127464
0.000169497
0.000197646
7.38633e-05
7.72802e-05
6.94346e-05
6.58971e-05
8.80309e-05
0.00012776
0.00017538
0.000225851
0.000252069
1.37735e-05
1.64664e-05
1.77004e-05
1.8275e-05
1.8558e-05
1.85886e-05
1.8607e-05
1.90567e-05
1.92476e-05
3.31005e-05
4.53931e-05
6.71313e-05
9.37304e-05
0.000109633
0.000123759
0.00013712
0.000146076
0.000133818
6.19715e-05
8.90487e-05
0.000130777
0.000171788
0.000192674
0.000209551
0.000224334
0.000238512
0.000225934
8.93105e-05
0.000126258
0.000181097
0.000228596
0.000243398
0.000254206
0.000265084
0.000280942
0.000276809
0.00019535
0.000229715
0.000229758
0.000236903
0.000213097
0.000229164
0.000128178
0.000229619
0.000229257
0.000249487
0.000199912
0.000229679
0.000246389
0.000237663
0.000123656
0.00023023
0.000238384
0.000236829
0.000230658
0.000234249
0.000247087
7.05745e-05
0.000229984
0.000245103
0.000229304
0.000237396
0.000246374
0.00012848
0.00052635
0.000248121
0.000238601
0.000248915
0.000242644
0.000229442
0.000251042
0.000229688
0.000244992
0.000229293
0.000243052
0.000229099
3.17493e-05
0.000229485
0.000242908
0.000229968
0.000121255
5.71924e-05
0.000244988
6.76979e-05
0.000252054
0.000230515
0.000247515
0.000229079
0.00024344
0.000243055
0.000230129
0.00024759
5.81621e-05
0.000229069
0.000522191
0.000244908
4.02739e-05
0.000242934
0.000189277
0.000249013
6.663e-05
0.000232917
0.000242702
0.000244822
0.000229718
0.000249387
0.000233666
0.000257593
0.000241523
0.000271359
0.000241661
0.000251293
3.52935e-05
0.000229726
0.000151145
0.00023281
0.000241919
0.000249399
0.000229243
0.000229794
0.000250219
0.00024139
0.000259416
0.000241867
0.000158902
0.000244145
0.000229553
0.00022906
4.66004e-05
0.000253105
0.000237652
9.5107e-05
0.000241833
0.000250524
0.000198554
0.000262238
0.000255948
6.13099e-05
0.000252586
0.000243866
0.000259352
0.000229653
0.000238579
0.000229871
0.000248577
0.000248541
0.000229357
0.000229543
0.000243188
0.000241066
0.000240302
0.000228983
0.000229175
0.000226369
0.000229344
0.000255302
0.000243216
0.000269145
0.000263114
0.000238728
4.94966e-05
0.000253876
0.000241581
0.000238422
0.000241086
0.000243357
0.000229139
0.00024484
6.29614e-05
0.000253405
0.000229793
0.000252074
3.08242e-05
0.00025026
0.000249064
0.000253289
0.000242248
0.000244773
0.000147881
0.000196533
0.000229218
0.000250628
0.000231428
0.000242127
0.000254742
0.000204394
0.000231328
0.000229088
0.00025005
0.000268872
0.000238136
0.000247598
0.000242306
5.48084e-05
0.000235277
0.000229007
0.000239722
0.000257916
0.000256077
0.000229058
0.000241754
0.000248285
0.000106602
0.00024928
0.000259124
7.13472e-05
0.00024151
0.000238861
0.000265087
0.000245772
0.000248893
0.000241576
0.000238558
0.00025199
0.0001272
0.000231506
0.000238376
4.50463e-05
0.000229924
0.000253517
0.000229381
0.000242918
0.000235363
0.000225177
0.000229641
0.000144391
0.000247636
0.000239939
0.000232072
3.30145e-05
0.000229745
0.000229045
0.000229971
0.000237161
0.000244091
0.000230001
0.00025603
0.000231865
0.000243011
0.000239041
0.000229821
0.000241803
0.00025012
0.000241159
0.000230103
0.000229202
0.000244513
0.000228957
0.00020233
0.000250571
0.000229267
0.000246837
0.000229423
0.000244669
0.000233198
0.000240342
0.000243115
0.000241118
0.000241035
0.000240754
0.000238441
0.000229078
0.000257299
0.000248309
0.000246302
0.000231079
6.46059e-05
0.000233557
0.000232722
0.000268203
0.000251533
0.000186888
0.000243575
0.000229876
0.000229655
0.000229597
0.000244863
0.000237945
0.000243218
3.33327e-05
0.000267179
0.000257991
0.000229368
0.000240412
9.96056e-05
0.000239322
0.000240306
0.000244053
0.000252867
0.000230296
0.000245359
0.000229666
0.000241038
0.000229243
0.00025292
0.000236869
0.000218647
0.00025092
0.000228958
0.000229635
0.000229348
0.000241137
0.000245711
0.000270402
0.000159344
0.000219094
0.000232821
0.000230237
0.000232336
0.00024424
0.00022912
0.000227247
0.000238852
0.000229173
0.000251941
0.000259273
0.000260356
0.000229893
0.00024173
0.000243725
0.000244706
0.000229104
0.000350536
0.000229818
0.000251638
0.000241784
0.000229886
0.000128618
0.000249872
0.000243235
0.000230006
0.000229907
0.00025879
0.000229613
0.000250993
0.000238445
0.000229113
0.000249717
0.000252798
0.000248556
0.000238989
0.000248653
0.000229737
0.000252443
4.07098e-05
0.000228368
0.000111054
0.000229706
0.000246852
0.000242785
6.79469e-05
0.00025465
0.000239535
0.000235803
0.000250387
0.000264308
0.000229829
0.000246993
0.000229097
0.000233594
0.000228043
0.000244995
0.000229125
0.000238452
0.000235108
0.000246155
0.000257889
0.000176079
2.91269e-05
0.000229921
0.000246288
0.000146889
0.000241603
0.000229692
0.00022926
0.000250387
0.000158135
0.000243899
0.000232635
0.000248728
0.000241046
0.000252655
0.000239149
0.000228997
0.000244907
0.000240361
9.54111e-05
0.000248037
0.000217794
0.000230445
0.000161019
0.000230037
0.000242846
0.000231782
0.000229965
0.00024439
0.000179808
0.000238013
0.000229459
0.000229308
0.00023235
0.000113523
0.000240034
0.000245956
8.97947e-05
0.000256934
0.000229168
0.000254289
0.000131677
0.000239612
0.000179658
0.000229856
0.000189733
0.000250821
0.000229106
0.000205124
0.000241901
0.000229027
0.000253732
0.000229072
0.000239382
0.000242052
0.000246957
0.000238334
0.000237761
5.92336e-05
0.000229112
0.000123566
0.000239518
0.000266742
0.000242427
6.04623e-05
0.000229218
0.000211096
0.000229937
0.000241661
0.000252538
0.000228945
0.000229952
0.000241526
0.000243316
3.08352e-05
0.00011161
0.000254797
0.000231733
0.000247094
0.000249095
0.000231507
0.000241013
0.000240787
0.000245838
0.000246155
0.00024748
0.000274921
0.000239972
9.30845e-05
0.00024703
0.000235642
0.000117878
0.000245925
0.000243752
0.000248356
0.000270371
8.97198e-05
0.000249728
6.54564e-05
0.000229234
0.000253319
0.000240578
0.000249361
0.000253651
0.000242845
0.000246346
0.000249016
0.0002388
0.000230037
0.000240326
0.000232148
0.000236837
0.000247586
0.000245974
0.000243318
0.000244779
9.83469e-05
0.000229181
0.000256255
0.00022912
0.00022974
0.000229376
5.35934e-05
0.000217568
8.10596e-05
0.00024124
0.000255264
9.61141e-05
0.000229636
0.000229221
0.000241342
0.000239557
0.000245627
0.00025025
3.9061e-05
4.21536e-05
2.96836e-05
2.93526e-05
0.000257133
0.000237666
0.000250371
0.000203045
3.99376e-05
0.000248817
0.000229763
0.000229863
8.05787e-05
0.000254223
0.000233846
0.000229085
0.000242951
0.000249807
3.9936e-05
0.00022992
0.000247097
0.000165437
0.000183855
0.000243397
0.000229078
0.000225827
0.000229049
0.000249021
0.000229088
0.000242003
0.000230331
0.000232798
0.000236451
0.00019826
0.00026923
0.000238706
0.000238341
0.000229605
0.000229408
0.000130739
0.000242573
0.000244543
0.000256984
5.87818e-05
0.000229771
0.000244906
0.000133428
4.94448e-05
0.000247665
0.000256148
0.000243808
0.000243377
0.000236413
0.000229108
0.000231228
0.000250416
0.000229884
0.000229157
0.000229698
0.000242098
0.000242079
0.000229449
0.000228985
0.000248436
0.000229094
8.36911e-05
0.00025239
0.000252003
0.000230023
0.0001124
0.00023001
0.000229274
0.000229949
3.54303e-05
0.000252671
0.000229305
0.000229234
0.000238625
0.000229876
0.000236765
0.000229854
0.000242154
0.000251598
3.3257e-05
0.000242355
0.00022512
6.95444e-05
0.000244994
0.000232489
0.000246455
0.000252812
0.000229841
0.000242716
0.000136061
0.000230957
0.000239207
0.000167913
9.85181e-05
0.000229318
0.00023199
0.000229801
0.00024501
0.000243097
0.000121752
0.000229627
0.000229221
0.000243378
0.000242801
0.000241967
0.000241244
0.00025528
0.000192072
0.00022905
0.000116397
0.000229241
0.000244183
0.000230474
0.000242412
0.000237179
0.000249076
8.70286e-05
0.000249095
0.00022997
0.000229998
0.000240053
0.000229004
0.000232966
0.000238649
0.000242698
0.000246328
0.000162796
0.000239347
0.000249214
0.000229092
0.000229317
8.54649e-05
0.000240304
0.000177541
0.000234026
0.000229355
8.221e-05
0.000237695
0.000259543
0.000247333
0.000255601
0.000240404
0.000246109
0.000242914
0.000160063
0.000244571
0.00024873
0.000230566
0.000245872
0.000251422
0.000229151
9.86448e-05
0.000242826
0.000228952
0.000229018
3.10617e-05
0.00025316
0.000229284
0.000150141
0.000229815
0.000243924
0.000240366
0.000242857
0.00020029
0.000241385
0.000237922
5.82678e-05
0.000250854
0.000130214
0.000248646
0.000227227
8.56656e-05
0.000243511
0.000205276
0.000229775
0.000215996
0.000220766
0.000242534
0.000203995
0.000250091
0.000240571
0.000242635
9.71658e-05
0.00023441
0.000264384
0.000229049
0.000232641
0.000229518
0.000212262
0.000250801
0.000247004
0.000250334
0.0002588
0.000239097
0.000229785
0.000237477
6.26462e-05
0.000221599
0.000252852
0.00024213
0.000219098
0.000241776
0.000261859
0.000165738
0.000247867
0.000239587
0.000247581
0.000229029
0.000241765
0.000229935
0.000242199
0.000241019
0.000240609
8.19048e-05
0.000239466
0.000248788
0.000229827
0.000174859
0.000239523
5.95159e-05
0.000241475
0.00022902
0.000246264
0.000229814
0.000205515
0.000212716
0.000246498
0.000229687
0.000229082
0.000229097
0.000246763
0.000246377
0.00022956
0.000225988
0.000229267
0.000248607
0.00023469
0.000246533
0.000239458
3.52424e-05
0.000242775
0.000247492
0.000242108
0.000240171
0.000247036
0.000242427
0.000124643
0.000229179
0.000239821
0.000229291
0.000254661
0.000112387
0.000245236
0.000210568
0.000237693
0.000240577
0.000244832
0.000255355
0.000245814
0.000229619
0.000242853
0.000241909
0.000242221
0.000247846
0.000174455
0.000242934
0.000246565
0.000265813
0.000239842
0.000255931
0.000255237
0.000229445
0.000238112
0.000160814
0.000229569
8.29455e-05
0.000207453
0.000272191
0.000240008
0.000229162
0.00025034
0.000251024
0.000222888
0.000261305
0.000239617
0.000229725
0.000242007
0.00025614
0.000242944
0.000242723
0.000243081
0.000247524
0.000226203
0.000246766
5.09e-05
0.000229125
0.000239474
0.000220724
0.00024426
0.000253409
4.68261e-05
0.000249497
0.000239921
0.000242351
0.000256244
0.000206554
0.000249965
0.000229025
0.000239249
3.60468e-05
0.000230052
0.000229284
0.000255051
0.000153055
0.000246139
0.000239321
0.000229783
0.000240132
0.00025148
0.000229534
0.000229604
0.000229857
0.000229246
0.000263901
0.000238736
0.000120744