/*--------------------------------*- C++ -*----------------------------------*\
| =========                 |                                                 |
| \\      /  F ield         | OpenFOAM: The Open Source CFD Toolbox           |
|  \\    /   O peration     | Version:  3.0.1                                 |
|   \\  /    A nd           | Web:      www.OpenFOAM.org                      |
|    \\/     M anipulation  |                                                 |
\*---------------------------------------------------------------------------*/
FoamFile
{
    version     2.0;
    format      ascii;
    class       volScalarField;
    location    "0";
    object      yPlus;
}
// * * * * * * * * * * * * * * * * * * * * * * * * * * * * * * * * * * * * * //

dimensions      [0 0 0 0 0 0 0];

internalField   uniform 0;

boundaryField
{
    FrontAndBack
    {
        type            empty;
    }
    patch1
    {
        type            calculated;
        value           nonuniform List<scalar> 
61
(
0.979967
0.973555
0.973736
0.98146
0.996639
1.01745
1.0346
1.04487
1.05105
1.05812
1.06682
1.07582
1.08498
1.09633
1.1102
1.12188
1.13064
1.14154
1.15521
1.17102
1.1821
1.18828
1.19942
1.20864
1.21253
1.22108
1.22746
1.22837
1.2304
1.23017
1.22779
0.983184
0.983682
0.976006
0.9624
0.946323
0.924175
0.904603
0.888727
0.877907
0.87904
0.888489
0.905256
0.931328
0.957454
0.978943
1.00845
1.04136
1.07067
1.09554
1.11903
1.14398
1.16339
1.18366
1.2011
1.2122
1.22006
1.2245
1.22537
1.21919
1.20919
)
;
    }
    patch2
    {
        type            calculated;
        value           nonuniform 0();
    }
    patch3
    {
        type            calculated;
        value           nonuniform 0();
    }
    Shaft
    {
        type            calculated;
        value           nonuniform List<scalar> 
14
(
12.2052
12.1534
12.1161
12.0936
12.0861
12.0936
12.1161
12.2052
12.1534
12.1161
12.0936
12.0861
12.0936
12.1161
)
;
    }
    Inlet
    {
        type            calculated;
        value           uniform 0;
    }
    Lat-Wall
    {
        type            calculated;
        value           nonuniform List<scalar> 
13
(
1088.83
966.697
844.652
1025.01
1048.94
530.351
875.242
679.586
948.138
832.578
770.37
693.271
732.894
)
;
    }
    Outlet
    {
        type            calculated;
        value           nonuniform 0();
    }
    AMI-St
    {
        type            cyclicAMI;
        value           uniform 0;
    }
    AMI-Rt
    {
        type            cyclicAMI;
        value           uniform 0;
    }
    procBoundary2to0
    {
        type            processor;
        value           uniform 0;
    }
    procBoundary2to3
    {
        type            processor;
        value           uniform 0;
    }
}


// ************************************************************************* //
