/*--------------------------------*- C++ -*----------------------------------*\
| =========                 |                                                 |
| \\      /  F ield         | OpenFOAM: The Open Source CFD Toolbox           |
|  \\    /   O peration     | Version:  3.0.1                                 |
|   \\  /    A nd           | Web:      www.OpenFOAM.org                      |
|    \\/     M anipulation  |                                                 |
\*---------------------------------------------------------------------------*/
FoamFile
{
    version     2.0;
    format      ascii;
    class       surfaceVectorField;
    location    "0.591603";
    object      Uf;
}
// * * * * * * * * * * * * * * * * * * * * * * * * * * * * * * * * * * * * * //

dimensions      [0 1 -1 0 0 0 0];

internalField   nonuniform List<vector> 
32369
(
(0.604419 4.73462 -8.86716e-21)
(1.63379 6.12746 -1.01186e-18)
(-1.05571 4.35696 8.19522e-18)
(0.646275 3.81482 -1.08619e-20)
(2.14647 3.78115 -8.22077e-19)
(-0.476931 3.23288 -2.80719e-18)
(1.00626 3.02157 1.38579e-19)
(1.89587 3.64336 4.63035e-19)
(0.244146 2.55503 6.04885e-19)
(1.3005 2.38222 -5.16989e-19)
(1.88656 2.84707 1.40192e-19)
(0.76487 2.0543 -5.64619e-19)
(1.57297 1.923 -4.42301e-19)
(1.90389 2.30485 -7.0693e-19)
(1.17311 1.71846 -2.5887e-19)
(1.80195 1.59774 8.95632e-19)
(1.99561 1.87952 4.17119e-19)
(1.4949 1.47402 3.69495e-19)
(1.99684 1.3632 2.99029e-19)
(2.11689 1.57247 4.25308e-19)
(1.74812 1.2873 3.92209e-19)
(2.16482 1.19065 -4.27934e-19)
(2.24717 1.34435 -2.45016e-19)
(1.95356 1.14172 -2.32597e-19)
(2.31484 1.06269 -6.0094e-20)
(2.37729 1.17531 -9.65248e-20)
(2.12682 1.0279 -1.60457e-19)
(2.45567 0.967518 1.35222e-19)
(2.5055 1.05179 1.55996e-19)
(2.27775 0.939634 -2.17252e-20)
(2.62175 0.973661 0)
(2.40199 0.872402 9.51091e-20)
(2.60303 0.897784 -1.24334e-19)
(2.72778 3.34051 -5.68438e-18)
(2.33683 4.43212 3.95842e-19)
(2.57524 3.57735 -1.52626e-18)
(3.58037 2.10565 -1.6077e-18)
(2.47869 3.27004 4.63215e-19)
(3.25627 3.43212 8.01395e-19)
(2.29917 2.81553 0)
(3.06735 2.822 0)
(2.24839 2.32572 0)
(2.79272 2.51702 4.33895e-19)
(2.26941 1.91036 0)
(2.63233 2.09913 -1.19681e-19)
(2.3418 1.59082 0)
(2.56883 1.75956 8.86261e-20)
(2.43797 1.35435 5.24373e-20)
(2.58178 1.48725 0)
(2.54495 1.18215 9.77515e-20)
(2.63975 1.28104 -9.25858e-20)
(2.6552 1.05942 4.01624e-20)
(2.72205 1.12801 -4.85327e-21)
(2.80996 1.0285 -1.69239e-20)
(2.76472 0.97404 -2.07942e-19)
(3.23129 1.90953 1.26125e-18)
(2.24426 2.79725 1.10868e-18)
(3.7148 2.34426 -3.74827e-19)
(3.88352 0.647509 3.34434e-19)
(3.60473 2.50938 -4.6418e-19)
(3.8807 2.51341 -2.45999e-19)
(3.29513 2.49927 3.70586e-19)
(3.81886 2.05083 1.35894e-19)
(3.03682 2.26975 3.58705e-19)
(3.52526 2.20492 6.39043e-20)
(2.84868 1.97314 -2.52367e-19)
(3.25479 1.9649 -5.74797e-19)
(2.76442 1.68103 9.56872e-20)
(3.0547 1.73906 4.29444e-19)
(2.75399 1.43687 -9.81812e-20)
(2.94811 1.50553 0)
(2.79355 1.24801 -1.54886e-19)
(2.91949 1.30937 -3.36925e-19)
(2.86571 1.10792 -5.44834e-20)
(2.94498 1.15583 -3.51762e-20)
(2.99823 1.05436 -4.55707e-20)
(2.96364 1.01113 -2.23892e-20)
(2.96763 0.977203 2.91857e-19)
(1.81967 1.72684 -8.5758e-19)
(3.9463 1.27113 6.16832e-19)
(3.58517 -0.132598 9.81168e-19)
(4.06319 1.60048 1.0161e-19)
(3.92724 1.61493 1.63986e-19)
(3.90623 1.81074 -3.6877e-19)
(4.08515 1.15526 1.26474e-19)
(3.64843 1.83059 -1.22325e-18)
(3.92208 1.64411 -7.31267e-19)
(3.37528 1.74258 -3.65965e-19)
(3.67598 1.5553 -7.99419e-19)
(3.18571 1.57792 3.77395e-19)
(3.44628 1.5078 1.08093e-19)
(3.079 1.39705 -1.08456e-19)
(3.27793 1.37654 0)
(3.04537 1.23537 -1.3619e-19)
(3.18259 1.24016 -2.80169e-19)
(3.06379 1.10542 1.46273e-20)
(3.15385 1.11695 1.49104e-19)
(3.16545 1.02937 1.74963e-19)
(3.11368 1.01016 2.02791e-19)
(2.41168 0.441133 -2.02389e-19)
(1.26866 1.0597 -8.42329e-19)
(3.66127 0.569937 7.25637e-19)
(3.08985 -0.457653 1.56215e-19)
(4.02923 0.87286 3.34042e-22)
(3.69911 0.964143 8.01631e-21)
(4.09581 1.11313 -5.58903e-21)
(4.02463 0.466608 -2.97378e-19)
(3.94381 1.27145 -3.09478e-19)
(4.01161 1.08554 0)
(3.70844 1.3417 -6.44837e-19)
(3.85304 1.05987 2.068e-19)
(3.50431 1.31598 -2.51101e-19)
(3.67114 1.16559 2.43049e-19)
(3.35181 1.23769 -2.71848e-20)
(3.50396 1.13735 2.32839e-19)
(3.26794 1.13846 2.64705e-20)
(3.38622 1.08429 -3.03962e-20)
(3.2416 1.04434 3.03999e-19)
(3.32497 1.01353 1.46761e-19)
(3.30711 0.960786 1.60044e-19)
(3.25572 0.965065 1.2852e-19)
(1.79794 0.113504 -4.38093e-19)
(0.652457 0.628322 1.16499e-18)
(3.18526 0.127962 -5.36976e-19)
(2.52941 -0.591568 -1.95034e-18)
(3.74563 0.363391 -3.60008e-19)
(3.34414 0.503609 1.37509e-18)
(3.99661 0.565493 -3.2116e-19)
(3.79264 0.0159783 1.65495e-19)
(3.96826 0.769572 4.88757e-19)
(3.90741 0.634434 -3.51236e-19)
(3.82728 0.914277 1.07984e-18)
(3.84436 0.61504 4.74741e-19)
(3.66975 0.985479 7.72562e-19)
(3.73683 0.815324 7.9157e-19)
(3.5256 1.00079 2.56921e-19)
(3.60658 0.855578 -4.98035e-19)
(3.42814 0.975654 0)
(3.50286 0.87772 5.65985e-20)
(3.37866 0.932422 -6.16862e-20)
(3.43762 0.863325 0)
(3.40756 0.851923 -2.01465e-19)
(3.36607 0.886968 -2.25676e-19)
(1.18261 -0.0623201 -1.11955e-19)
(0.0184163 0.384408 1.2727e-18)
(2.66129 -0.140979 -5.52606e-19)
(1.94428 -0.618352 -2.70165e-18)
(3.36924 0.0216653 1.87105e-18)
(2.92018 0.179034 1.98084e-18)
(3.75097 0.1759 2.81369e-19)
(3.47977 -0.261211 1.04369e-18)
(3.8287 0.378328 -3.97115e-19)
(3.70162 0.295326 -3.96018e-19)
(3.78641 0.543283 2.3427e-19)
(3.72029 0.267964 -5.25136e-19)
(3.69442 0.666439 -3.40888e-19)
(3.68558 0.510193 -1.72597e-19)
(3.59004 0.743335 -7.62742e-19)
(3.60474 0.585173 -3.62949e-19)
(3.50984 0.778149 6.26007e-20)
(3.5344 0.661443 6.78646e-20)
(3.46192 0.784566 -1.1666e-19)
(3.4855 0.692785 -2.24885e-20)
(3.46418 0.718508 -4.12449e-20)
(3.44389 0.773621 -4.24761e-19)
(0.590962 -0.105147 -9.86591e-19)
(-0.562729 0.297177 -8.61486e-21)
(2.13904 -0.27343 -8.85948e-19)
(1.38493 -0.56085 -1.23369e-18)
(2.96808 -0.192 1.26802e-18)
(2.47617 -0.0285279 7.97689e-19)
(3.44858 -0.085356 7.55603e-19)
(3.13608 -0.417691 7.76061e-19)
(3.61109 0.0957507 -5.89019e-19)
(3.44545 0.0502825 -6.0839e-20)
(3.65005 0.25389 -8.54756e-19)
(3.53453 0.0193687 -3.28168e-19)
(3.62001 0.396704 -1.62342e-19)
(3.56118 0.265543 -6.68449e-19)
(3.56425 0.505529 3.78954e-19)
(3.52854 0.353403 3.31781e-19)
(3.51613 0.580101 -6.56898e-21)
(3.49683 0.461754 -6.0877e-22)
(3.48616 0.627012 7.09131e-20)
(3.47251 0.523922 -2.23718e-20)
(3.46669 0.577647 1.08948e-19)
(3.47816 0.655192 7.78484e-19)
(0.0417106 -0.0692783 -1.28709e-19)
(-1.08749 0.310877 -1.39251e-18)
(1.63473 -0.310349 1.10012e-19)
(0.848516 -0.452916 1.01735e-18)
(2.56523 -0.307575 2.94594e-19)
(2.02998 -0.144839 1.22591e-19)
(3.12982 -0.24739 1.83373e-19)
(2.78339 -0.487155 2.41658e-19)
(3.36357 -0.0978879 1.17541e-19)
(3.16891 -0.119664 4.02384e-19)
(3.4653 0.0427523 -1.88086e-20)
(3.32089 -0.147179 -1.62182e-19)
(3.48632 0.185743 -2.82567e-19)
(3.39675 0.0794034 -2.55079e-19)
(3.47636 0.305062 -1.09137e-20)
(3.40671 0.169096 -2.67697e-19)
(3.46261 0.400934 -1.3606e-20)
(3.41037 0.290983 3.01906e-20)
(3.45716 0.473108 0)
(3.41278 0.370539 7.89762e-20)
(3.42738 0.443645 1.53205e-20)
(3.47624 0.525558 5.91066e-19)
(-0.488543 0.0152021 -5.06925e-19)
(-1.61888 0.401835 -1.27996e-18)
(1.12964 -0.284552 1.12191e-18)
(0.301114 -0.305644 1.6954e-19)
(2.15392 -0.353355 5.71741e-20)
(1.56737 -0.186905 6.11962e-19)
(2.80215 -0.337176 4.43798e-19)
(2.4187 -0.494252 1.57866e-21)
(3.10524 -0.223937 1.10094e-19)
(2.88266 -0.229508 4.17303e-19)
(3.26014 -0.104271 -3.44729e-19)
(3.0961 -0.25122 -8.02105e-19)
(3.32264 0.0285205 -2.38889e-19)
(3.21326 -0.0565146 8.95203e-19)
(3.35064 0.146599 -2.69626e-19)
(3.25938 0.0301849 -8.88357e-19)
(3.36768 0.250155 1.20928e-19)
(3.29277 0.152564 6.40907e-20)
(3.38777 0.33501 9.91262e-20)
(3.3201 0.240115 1.37142e-19)
(3.35855 0.321646 1.53092e-20)
(3.42786 0.398469 -9.36586e-20)
(-1.01964 0.157775 -7.69173e-19)
(-2.12926 0.566171 -8.83365e-19)
(0.615641 -0.199996 -4.13855e-19)
(-0.240779 -0.119838 -1.96154e-19)
(1.72969 -0.3396 6.19712e-19)
(1.09477 -0.159503 1.15219e-19)
(2.46543 -0.370497 -6.87464e-20)
(2.04407 -0.45302 1.07875e-18)
(2.84235 -0.297191 -4.39446e-19)
(2.59081 -0.287274 -5.86167e-19)
(3.04776 -0.200838 2.03073e-19)
(2.86774 -0.308342 -4.91872e-19)
(3.14642 -0.0841914 3.97222e-19)
(3.02296 -0.150735 7.24796e-19)
(3.20481 0.0260968 -6.75878e-19)
(3.09978 -0.0705491 -5.01466e-19)
(3.24676 0.129215 8.76461e-20)
(3.15648 0.0441981 2.28873e-20)
(3.28931 0.220541 6.9041e-20)
(3.20303 0.134 6.22382e-20)
(3.25536 0.216755 1.12251e-19)
(3.35947 0.29771 0)
(-1.52366 0.345929 -3.46756e-19)
(-2.55687 0.765252 -1.06715e-18)
(0.116619 -0.0646663 2.7823e-19)
(-0.745365 0.0822956 6.64349e-19)
(1.30691 -0.273265 5.15328e-19)
(0.634504 -0.0807995 -5.02549e-19)
(2.12772 -0.35647 8.19814e-19)
(1.67079 -0.377463 1.29612e-18)
(2.58013 -0.327405 -6.48927e-19)
(2.299 -0.303399 -1.06743e-18)
(2.83538 -0.257837 -1.49849e-19)
(2.64028 -0.331925 3.69761e-19)
(2.96726 -0.161175 -8.20162e-20)
(2.83256 -0.212553 -4.13133e-19)
(3.04993 -0.0627288 1.28318e-19)
(2.93601 -0.141617 -5.64855e-20)
(3.11062 0.034456 0)
(3.01046 -0.0389911 0)
(3.16923 0.124434 9.99634e-20)
(3.07209 0.048489 0)
(3.13702 0.128341 1.12641e-19)
(3.25641 0.198484 3.35569e-19)
(-1.97611 0.544807 -1.96842e-19)
(-2.93122 0.977598 4.7803e-19)
(-0.360146 0.0966074 0)
(-1.22863 0.288802 -5.97641e-19)
(0.887867 -0.173251 1.34166e-19)
(0.177116 0.0321318 1.96342e-19)
(1.78834 -0.310075 -2.65603e-19)
(1.29024 -0.280699 1.37666e-19)
(2.3172 -0.327151 -1.44631e-19)
(2.00051 -0.291036 -4.80542e-19)
(2.62393 -0.286966 1.89815e-19)
(2.40955 -0.33448 8.47137e-20)
(2.78845 -0.212092 -4.26477e-19)
(2.64162 -0.25218 4.30694e-19)
(2.89152 -0.127442 -1.91618e-19)
(2.7705 -0.191905 -3.87e-20)
(2.96629 -0.0390424 0)
(2.85923 -0.102609 0)
(3.03664 0.0463631 0)
(2.93208 -0.0194602 0)
(3.00648 0.0555659 -1.72475e-19)
(3.12596 0.119282 8.21878e-19)
(-2.39632 0.751932 2.23262e-19)
(-3.28678 1.20816 8.49951e-19)
(-0.833198 0.275832 -5.27896e-19)
(-1.70474 0.50451 -1.34803e-18)
(0.45535 -0.0505434 1.99118e-19)
(-0.291118 0.176706 3.80058e-19)
(1.43169 -0.242445 -2.15359e-20)
(0.886014 -0.164733 1.05829e-18)
(2.0413 -0.307439 -2.57513e-19)
(1.68066 -0.254949 -1.34499e-20)
(2.40566 -0.29877 2.8955e-19)
(2.1637 -0.322385 -2.81089e-19)
(2.60658 -0.246053 8.39315e-19)
(2.44254 -0.276355 6.8046e-19)
(2.72977 -0.175263 1.47694e-19)
(2.59974 -0.228117 1.00929e-19)
(2.81614 -0.0958177 0)
(2.70235 -0.15151 1.47275e-19)
(2.89464 -0.014637 -1.53854e-19)
(2.78316 -0.0729773 3.17778e-19)
(2.85922 -0.00085687 -3.43468e-19)
(2.99825 0.0579034 4.55628e-19)
(-2.78765 0.966196 -4.95963e-19)
(-3.58112 1.4223 -4.12847e-19)
(-1.29244 0.467481 -7.7831e-19)
(-2.14304 0.711476 -1.54268e-18)
(0.0147841 0.0922104 1.18961e-18)
(-0.755753 0.33945 3.44637e-19)
(1.05613 -0.155844 1.20447e-18)
(0.462577 -0.0353127 1.08696e-18)
(1.74574 -0.271666 -2.85794e-20)
(1.33476 -0.198862 -1.34882e-20)
(2.17252 -0.297869 1.4237e-20)
(1.89349 -0.298367 -2.1379e-19)
(2.41525 -0.268277 -3.13551e-20)
(2.22586 -0.288382 1.92915e-20)
(2.56131 -0.211144 9.92476e-20)
(2.41682 -0.25401 -2.52066e-19)
(2.65924 -0.140138 4.39713e-19)
(2.53645 -0.18905 1.44844e-19)
(2.74271 -0.0646116 2.31433e-19)
(2.62609 -0.115769 -7.92185e-20)
(2.70693 -0.0473627 -1.71233e-19)
(2.83997 0.00232508 -1.34235e-19)
(-3.13011 1.16633 -1.34663e-18)
(-3.81518 1.61397 -7.0693e-19)
(-1.73127 0.659481 -8.83117e-19)
(-2.54577 0.90971 -7.93665e-19)
(-0.436276 0.248626 1.8665e-19)
(-1.22369 0.517056 -5.27179e-19)
(0.653569 -0.0524707 5.3324e-21)
(0.0100215 0.109014 1.02368e-18)
(1.41869 -0.220716 -2.03361e-19)
(0.949437 -0.122521 -4.43722e-19)
(1.91199 -0.28532 -2.41261e-19)
(1.5841 -0.261111 -3.32501e-20)
(2.20355 -0.280658 -1.72764e-19)
(1.9774 -0.288203 -2.344e-19)
(2.37861 -0.237483 -2.50222e-19)
(2.21056 -0.270142 -1.27722e-20)
(2.4919 -0.174283 -3.61177e-19)
(2.35447 -0.216131 -4.71805e-21)
(2.58202 -0.103311 -4.44281e-19)
(2.45687 -0.148041 -7.80769e-20)
(2.54249 -0.0797751 -1.97927e-19)
(2.67978 -0.0355903 3.12138e-19)
(-3.42226 1.3527 -1.46841e-19)
(-3.99953 1.79217 -2.02785e-20)
(-2.15504 0.854931 -6.26513e-19)
(-2.91474 1.10759 -8.88042e-20)
(-0.90939 0.421347 1.70035e-19)
(-1.69738 0.714117 -6.95242e-19)
(0.208062 0.0718718 7.56188e-19)
(-0.481967 0.278897 1.2146e-18)
(1.04232 -0.150301 -3.1661e-19)
(0.509498 -0.016996 -3.0484e-19)
(1.60608 -0.257598 -5.91427e-21)
(1.21794 -0.202207 3.77304e-21)
(1.95557 -0.280919 -7.66061e-20)
(1.6792 -0.269608 -1.20093e-19)
(2.16986 -0.253032 2.28547e-19)
(1.96547 -0.271875 2.06693e-19)
(2.30688 -0.197677 2.89009e-19)
(2.14531 -0.229893 8.06486e-20)
(2.40854 -0.131347 1.93931e-19)
(2.26932 -0.168434 2.20499e-19)
(2.36648 -0.103756 -1.21797e-19)
(2.50744 -0.0699133 2.82846e-19)
(-3.6656 1.52626 7.39193e-20)
(-4.12801 1.94532 -5.2982e-19)
(-2.55388 1.0542 -9.74985e-20)
(-3.23209 1.29579 7.6471e-21)
(-1.39676 0.615241 1.63823e-19)
(-2.15853 0.924092 0)
(-0.28233 0.225425 3.30866e-19)
(-1.00597 0.475422 -7.00097e-21)
(0.606493 -0.0511888 -1.9158e-20)
(0.00943295 0.123975 -9.20363e-20)
(1.23958 -0.205634 -1.00905e-19)
(0.781027 -0.111322 5.17847e-20)
(1.65463 -0.261179 1.49172e-19)
(1.31284 -0.221604 4.71778e-20)
(1.92055 -0.251774 7.20951e-20)
(1.66332 -0.249074 -4.831e-20)
(2.09389 -0.206626 -4.6753e-21)
(1.8943 -0.223037 -6.22784e-20)
(2.21731 -0.147048 -6.88199e-20)
(2.05408 -0.171943 -3.57527e-20)
(2.17428 -0.11449 3.85419e-20)
(2.31999 -0.0884214 1.69226e-19)
(-3.8524 1.67988 -6.46712e-19)
(-4.20568 2.07238 -1.07728e-18)
(-2.9129 1.25241 1.03268e-19)
(-3.49451 1.47579 6.76555e-21)
(-1.88673 0.829402 -1.72213e-19)
(-2.59216 1.14279 0)
(-0.818329 0.41414 -4.23272e-19)
(-1.55481 0.700209 -1.91185e-19)
(0.0989728 0.0871857 -2.42377e-20)
(-0.558303 0.308338 -2.35708e-20)
(0.793734 -0.11589 2.00336e-19)
(0.254869 0.0275077 2.13387e-20)
(1.27997 -0.207414 -1.40421e-19)
(0.855115 -0.125431 -1.10507e-21)
(1.61168 -0.221787 -1.80233e-19)
(1.28092 -0.183898 4.20696e-20)
(1.83786 -0.192569 -1.08033e-19)
(1.58068 -0.181984 -1.90906e-19)
(1.99802 -0.14415 4.32657e-20)
(1.79395 -0.149148 9.11841e-21)
(1.95179 -0.10174 -6.7502e-21)
(2.12545 -0.0932481 1.24097e-19)
(-3.9916 1.81982 -5.13961e-19)
(-4.24394 2.17889 -3.90861e-19)
(-3.22604 1.44881 -9.42151e-20)
(-3.70851 1.64626 -6.84849e-19)
(-2.3657 1.0597 0)
(-2.98708 1.3568 4.69135e-20)
(-1.39824 0.639564 1.88246e-19)
(-2.11688 0.945424 5.03726e-20)
(-0.49355 0.277884 2.89563e-21)
(-1.19951 0.547301 4.38807e-19)
(0.246408 0.0325703 -1.79402e-19)
(-0.379828 0.240129 -2.55078e-19)
(0.806923 -0.0966866 1.80334e-19)
(0.280759 0.0500972 1.06043e-19)
(1.21878 -0.143261 7.5371e-20)
(0.791034 -0.0476956 1.49939e-19)
(1.51606 -0.140886 -1.04183e-19)
(1.17634 -0.0843588 -6.31417e-20)
(1.73023 -0.11277 -3.86856e-20)
(1.46116 -0.0843275 -5.78574e-20)
(1.67346 -0.0599478 8.50689e-20)
(1.89387 -0.0795157 2.34918e-20)
(-4.09579 1.95948 -5.41729e-19)
(-4.24486 2.28822 0)
(-3.49826 1.637 -8.95348e-19)
(-3.8747 1.77774 -1.32255e-18)
(-2.82759 1.29254 9.32288e-20)
(-3.34911 1.53715 5.85099e-19)
(-2.01851 0.900499 2.88987e-19)
(-2.68252 1.20107 5.33544e-20)
(-1.18158 0.540792 2.34766e-19)
(-1.90634 0.86025 2.29365e-19)
(-0.422328 0.274397 -9.84409e-21)
(-1.12723 0.568392 -2.79943e-20)
(0.210014 0.107601 6.10097e-20)
(-0.425358 0.350714 8.81023e-21)
(0.711646 0.0151704 8.2747e-20)
(0.168048 0.200565 5.03744e-20)
(1.0952 -0.0279148 1.48965e-20)
(0.647008 0.104466 -4.10403e-20)
(1.38103 -0.0385031 1.07808e-20)
(1.01781 0.0509938 1.80265e-20)
(1.31183 0.0344147 1.3431e-20)
(1.58894 -0.0208604 2.33528e-20)
(-4.11893 1.98243 -6.39626e-19)
(-4.35189 2.24421 3.63515e-20)
(-3.73459 1.73815 -5.19688e-19)
(-4.04293 1.83845 -7.1488e-19)
(-3.27287 1.47981 5.92564e-19)
(-3.67428 1.69727 5.18111e-19)
(-2.6613 1.18644 7.55936e-21)
(-3.19286 1.50286 1.87893e-19)
(-1.94381 0.900476 -1.16689e-20)
(-2.59379 1.29163 -1.33537e-19)
(-1.20462 0.652658 -8.57318e-21)
(-1.91438 1.05932 -4.04906e-20)
(-0.522982 0.452275 1.56236e-20)
(-1.2263 0.822791 2.81641e-20)
(0.0592409 0.299438 -2.33708e-20)
(-0.59157 0.609681 -5.19076e-20)
(0.534113 0.193255 1.97705e-20)
(-0.0451755 0.440185 -2.92699e-20)
(0.905728 0.131979 2.12291e-20)
(0.395035 0.313643 1.50958e-20)
(0.792026 0.257899 1.6417e-20)
(1.22166 0.0830462 0)
(-4.3876 2.22777 2.21165e-20)
(-3.45838 2.02227 -1.28204e-18)
(-4.00554 1.96408 -2.11766e-20)
(-3.38471 1.78164 8.78803e-19)
(-3.66895 1.8121 1.5424e-19)
(-3.16725 1.82153 -2.81791e-19)
(-3.2118 1.65119 -8.70755e-20)
(-2.94577 1.80722 1.95895e-19)
(-2.64183 1.46382 -1.71894e-19)
(-2.64811 1.74326 -1.11341e-19)
(-1.99431 1.23533 5.67328e-20)
(-2.26105 1.60762 1.81447e-20)
(-1.34167 0.986116 -2.97481e-20)
(-1.78496 1.4004 -1.15988e-19)
(-0.741958 0.750918 -2.50033e-20)
(-1.27124 1.16519 6.86589e-20)
(-0.220353 0.555186 2.62104e-20)
(-0.773819 0.946498 -1.78843e-20)
(0.210695 0.41045 -5.75385e-20)
(-0.341896 0.752067 -3.75297e-21)
(0.122767 0.58006 1.63052e-20)
(0.525415 0.367157 1.32884e-20)
(-2.699 1.2514 -1.86594e-19)
(-0.417276 1.27697 -1.61456e-18)
(-2.6378 1.43704 9.27272e-19)
(-0.484956 1.46483 7.83151e-19)
(-2.54028 1.5773 -3.54455e-19)
(-0.451309 1.42791 -5.04964e-19)
(-2.45301 1.69965 3.15492e-19)
(-0.47451 1.36071 -6.57473e-20)
(-2.31373 1.76294 -3.90463e-20)
(-0.46527 1.31811 1.72776e-19)
(-2.08111 1.73464 -2.23947e-19)
(-0.40625 1.27826 1.18322e-20)
(-1.74545 1.61083 -5.97068e-20)
(-0.291736 1.22455 -1.2563e-19)
(-1.34198 1.42931 5.96649e-20)
(-0.144917 1.14965 1.04148e-19)
(-0.922369 1.22346 -1.64663e-20)
(0.00734003 1.05425 -1.4538e-20)
(-0.525194 1.00049 8.38148e-23)
(0.141272 0.943307 -6.08102e-20)
(0.314333 0.786608 4.21788e-20)
(-0.181822 0.880023 -9.31888e-21)
(-2.71702 1.67729 4.33398e-18)
(-1.98204 -0.974849 6.31586e-18)
(-1.14731 1.64008 -2.41694e-18)
(-1.23565 -0.062439 -2.22605e-18)
(-0.068526 1.54944 2.74496e-20)
(-0.544552 0.61817 4.95856e-19)
(0.625782 1.44564 -4.45263e-19)
(0.10815 0.979784 -7.56372e-19)
(1.09673 1.32239 4.55451e-19)
(0.663925 1.08534 1.78477e-18)
(1.43839 1.19933 -1.1929e-19)
(1.10222 1.06553 -1.06094e-18)
(1.70038 1.08947 -3.04876e-20)
(1.43572 1.00279 2.6046e-20)
(1.90723 0.996203 2.61361e-20)
(1.69413 0.93641 -6.40549e-20)
(2.07664 0.919337 -1.25897e-19)
(1.89913 0.874819 1.40871e-19)
(2.22178 0.857327 -9.41942e-20)
(2.06531 0.821507 -1.88614e-19)
(2.19571 0.778958 7.41723e-20)
(2.34955 0.808754 7.92243e-20)
(-1.00098 -1.66129 -1.10522e-20)
(-0.821538 -2.90332 -5.41519e-20)
(-0.860573 -0.845904 0)
(-0.221119 -1.63368 -4.08422e-18)
(-0.461419 -0.0187128 -2.29449e-19)
(-0.317982 -1.01947 2.85706e-18)
(0.102645 0.494843 8.1852e-19)
(-0.00990962 -0.294005 -2.54929e-19)
(0.656351 0.749135 5.51881e-19)
(0.373136 0.193539 1.18761e-18)
(1.09922 0.835261 -9.37795e-19)
(0.781328 0.494809 -1.10878e-18)
(1.42973 0.83714 9.85494e-21)
(1.14241 0.637589 1.01639e-19)
(1.68073 0.808317 -1.38079e-20)
(1.43938 0.684614 3.4043e-20)
(1.87765 0.771269 1.49491e-19)
(1.6769 0.689081 1.34091e-19)
(2.03819 0.734722 -6.45324e-20)
(1.86284 0.676142 -2.02539e-20)
(2.00131 0.652368 5.68569e-20)
(2.17956 0.695306 8.37152e-19)
(0.196118 -2.08622 -3.45287e-18)
(0.150381 -3.04197 5.25178e-20)
(0.0215505 -1.78976 -2.14037e-19)
(0.867945 -1.82361 -1.95672e-18)
(-0.000287102 -1.21845 2.97835e-18)
(0.388149 -1.77572 3.18189e-18)
(0.145568 -0.624286 -9.87149e-21)
(0.399923 -1.13453 -1.32626e-18)
(0.437047 -0.119225 -1.85346e-19)
(0.473452 -0.60582 -2.29999e-19)
(0.792917 0.237225 -2.32685e-19)
(0.694506 -0.164395 7.30577e-19)
(1.13515 0.444347 1.31577e-19)
(0.966359 0.145923 -1.4171e-18)
(1.42426 0.544502 1.65823e-19)
(1.22808 0.331727 6.67481e-19)
(1.65266 0.585869 0)
(1.45839 0.434548 0)
(1.83077 0.597957 9.10679e-20)
(1.64509 0.485976 0)
(1.78198 0.507481 -1.11859e-19)
(1.96805 0.588048 -1.32883e-19)
(1.11698 -2.02873 1.60037e-18)
(0.90028 -2.71151 -7.5702e-19)
(0.988989 -1.93069 8.87888e-19)
(1.72471 -1.63457 2.08916e-18)
(0.760639 -1.57964 -2.82944e-19)
(1.12788 -1.94329 4.6187e-19)
(0.62969 -1.14758 -1.63832e-18)
(1.02065 -1.43502 -1.39835e-18)
(0.663619 -0.686374 5.50882e-19)
(0.885686 -1.06024 1.05107e-19)
(0.809134 -0.293006 -3.4789e-19)
(0.903819 -0.621002 8.99412e-19)
(1.02032 0.00477777 -9.934e-19)
(1.02017 -0.267807 -6.8034e-19)
(1.24007 0.203431 5.60142e-19)
(1.18146 -0.00571704 -2.45643e-19)
(1.43852 0.324265 0)
(1.35371 0.17055 2.73512e-19)
(1.60561 0.39407 -1.88331e-19)
(1.50976 0.279258 1.66363e-19)
(1.62887 0.335557 -2.11963e-19)
(1.74883 0.427711 1.67057e-19)
(1.72226 -1.81743 4.08872e-19)
(1.41774 -2.31608 -3.56573e-19)
(1.70787 -1.81325 2.77428e-19)
(2.25616 -1.37472 3.38714e-19)
(1.43532 -1.61965 -9.72499e-20)
(1.69518 -1.82314 0)
(1.2039 -1.339 6.66771e-20)
(1.5759 -1.4175 6.64879e-20)
(1.07724 -0.988404 2.33575e-19)
(1.35004 -1.20968 2.10293e-19)
(1.05968 -0.626947 6.31077e-19)
(1.25188 -0.8598 3.11247e-19)
(1.13754 -0.311974 -2.66306e-20)
(1.2381 -0.541458 7.73372e-19)
(1.26466 -0.0670479 -5.85014e-19)
(1.29661 -0.264184 -8.28174e-19)
(1.40662 0.10599 4.49806e-19)
(1.3927 -0.0527592 -7.59199e-20)
(1.53834 0.220533 1.84577e-19)
(1.49696 0.0960778 1.38667e-19)
(1.58001 0.188622 0)
(1.64577 0.292308 -2.49769e-19)
(2.08387 -1.5535 4.74055e-19)
(1.74584 -1.92728 1.09624e-19)
(2.1664 -1.59443 9.67335e-20)
(2.56023 -1.13951 -6.09874e-21)
(1.92037 -1.48876 9.04324e-20)
(2.0815 -1.61562 1.99206e-19)
(1.68429 -1.31752 1.12025e-19)
(1.98157 -1.26113 3.31498e-20)
(1.50336 -1.07019 2.77026e-19)
(1.74175 -1.19191 -5.64162e-21)
(1.3833 -0.790723 3.09168e-19)
(1.59248 -0.913528 2.27572e-19)
(1.35487 -0.513277 -2.01092e-19)
(1.49689 -0.67202 3.38094e-19)
(1.38814 -0.26946 -4.25481e-19)
(1.4734 -0.422217 2.04839e-22)
(1.45719 -0.0762015 -2.53269e-19)
(1.49512 -0.211622 -2.68458e-19)
(1.53495 0.0664144 2.43062e-21)
(1.54066 -0.0465518 -1.14081e-19)
(1.58049 0.0671036 0)
(1.59899 0.172176 0)
(2.28855 -1.28543 -2.87607e-19)
(1.93889 -1.56135 2.61917e-20)
(2.44129 -1.35261 8.99403e-20)
(2.72407 -0.939818 -8.14415e-20)
(2.23384 -1.2941 -9.21316e-20)
(2.33569 -1.39849 6.97199e-19)
(2.02482 -1.19307 1.45094e-19)
(2.24997 -1.0612 -2.1409e-19)
(1.83988 -1.03396 -4.48531e-20)
(2.02157 -1.09134 -3.37526e-19)
(1.6817 -0.824446 6.80518e-20)
(1.87608 -0.867022 -8.47016e-20)
(1.58938 -0.601833 3.39771e-19)
(1.73508 -0.69786 9.78714e-20)
(1.55106 -0.387019 2.51837e-19)
(1.6585 -0.490717 -1.19054e-19)
(1.55458 -0.199982 -7.17696e-20)
(1.62241 -0.303641 7.25121e-20)
(1.5799 -0.0484163 -1.291e-19)
(1.61659 -0.143921 -4.2428e-19)
(1.61716 -0.0267224 1.20048e-19)
(1.6031 0.0774598 0)
(2.40466 -1.05886 2.47384e-19)
(2.07839 -1.2595 -1.29619e-19)
(2.60479 -1.13303 4.47941e-19)
(2.81724 -0.782107 8.51868e-19)
(2.4329 -1.1002 2.30686e-19)
(2.49807 -1.19945 2.43071e-19)
(2.25922 -1.01783 -3.46712e-19)
(2.44923 -0.880109 -2.2532e-19)
(2.086 -0.919467 -4.09352e-19)
(2.20838 -0.958496 -1.77334e-19)
(1.92105 -0.774469 -1.24374e-19)
(2.08249 -0.767026 -4.28068e-20)
(1.79642 -0.606742 -2.32384e-19)
(1.92698 -0.657091 -9.45059e-21)
(1.7126 -0.432027 -9.99314e-20)
(1.82175 -0.493295 -1.93427e-19)
(1.6671 -0.268565 -2.82375e-19)
(1.74648 -0.339204 1.16421e-20)
(1.64935 -0.126508 -2.54575e-19)
(1.70178 -0.198631 -1.96672e-19)
(1.67016 -0.0901298 3.53408e-19)
(1.63801 -0.00202816 -1.29169e-19)
(2.48484 -0.871982 6.54822e-19)
(2.17161 -1.00201 6.61155e-19)
(2.71084 -0.935306 8.83212e-19)
(2.90478 -0.648753 8.58624e-20)
(2.55768 -0.93189 -4.64301e-19)
(2.5787 -1.00245 3.91864e-19)
(2.41326 -0.867887 -7.86231e-22)
(2.58792 -0.715629 1.46234e-19)
(2.24977 -0.792588 1.06187e-19)
(2.3481 -0.819516 -7.4156e-20)
(2.09559 -0.685864 -1.63286e-20)
(2.23181 -0.653491 -2.2452e-19)
(1.9596 -0.560702 8.16202e-20)
(2.07201 -0.582852 7.37955e-20)
(1.85075 -0.424692 -2.99975e-20)
(1.95236 -0.4542 1.11711e-19)
(1.7723 -0.290946 5.9659e-20)
(1.85246 -0.333374 -9.38544e-20)
(1.72016 -0.169795 2.59251e-19)
(1.77951 -0.21663 6.33194e-20)
(1.72312 -0.124381 1.63824e-19)
(1.67219 -0.0552379 -6.16786e-20)
(2.54691 -0.707201 2.81858e-19)
(2.21658 -0.796127 1.01167e-18)
(2.78558 -0.773471 -4.21833e-19)
(2.97332 -0.501368 -8.82436e-19)
(2.64618 -0.755006 9.24788e-19)
(2.65963 -0.833499 4.40321e-19)
(2.52492 -0.714838 1.88596e-19)
(2.66934 -0.563984 2.38953e-19)
(2.36535 -0.659892 -3.90649e-19)
(2.44594 -0.6744 -1.86528e-19)
(2.21987 -0.581257 -2.28845e-19)
(2.33736 -0.533062 -1.9473e-19)
(2.08023 -0.487816 9.9809e-20)
(2.17754 -0.491708 2.97817e-19)
(1.95847 -0.384164 8.37501e-20)
(2.05069 -0.390555 -3.31449e-21)
(1.85917 -0.279539 -4.1692e-20)
(1.93537 -0.299607 -1.97968e-21)
(1.78332 -0.182272 -4.0088e-20)
(1.84284 -0.207637 2.89891e-20)
(1.76779 -0.134478 -6.07557e-20)
(1.70838 -0.0866148 1.41294e-19)
(2.58339 -0.523551 -1.25381e-19)
(2.21183 -0.628039 7.96487e-19)
(2.84224 -0.607354 -3.42768e-19)
(2.99158 -0.345302 -7.65018e-19)
(2.70605 -0.597734 -2.32233e-19)
(2.70799 -0.665119 -2.11375e-19)
(2.59915 -0.567045 0)
(2.7239 -0.421878 -1.46655e-19)
(2.44571 -0.526553 2.11073e-21)
(2.51048 -0.533731 -1.01896e-19)
(2.30691 -0.46931 2.14241e-19)
(2.40854 -0.410023 2.36333e-21)
(2.1659 -0.400634 2.32039e-19)
(2.25038 -0.392092 7.05518e-20)
(2.03719 -0.323487 -8.09283e-20)
(2.12034 -0.312568 -1.10475e-19)
(1.92466 -0.244768 6.86994e-20)
(1.99534 -0.247701 2.29862e-20)
(1.83166 -0.171311 2.78468e-20)
(1.88909 -0.178617 4.96323e-20)
(1.80117 -0.121031 -2.25242e-20)
(1.73547 -0.0980093 9.8621e-22)
(2.58286 -0.374148 1.03977e-19)
(2.19966 -0.486324 3.86106e-19)
(2.86899 -0.454427 -6.90541e-19)
(3.00208 -0.203512 -5.5661e-19)
(2.74362 -0.448006 -1.32092e-19)
(2.73321 -0.513686 0)
(2.64498 -0.426257 -2.53879e-19)
(2.75451 -0.282625 -3.52671e-19)
(2.49724 -0.39635 -1.12842e-19)
(2.5487 -0.400486 3.25418e-19)
(2.36415 -0.355 -1.99207e-19)
(2.45229 -0.287177 2.42602e-19)
(2.22295 -0.305998 -2.46687e-19)
(2.29575 -0.289247 -4.77563e-19)
(2.09053 -0.250743 -2.09657e-20)
(2.1648 -0.226439 2.02189e-19)
(1.96944 -0.194398 1.78902e-20)
(2.03407 -0.184408 -8.00446e-20)
(1.86417 -0.142459 6.70691e-20)
(1.91824 -0.136165 4.86342e-20)
(1.81955 -0.09518 -5.22458e-20)
(1.74409 -0.0876786 1.67981e-19)
(2.57116 -0.230572 -3.92131e-19)
(2.18032 -0.346858 3.89692e-19)
(2.87698 -0.313397 7.95328e-20)
(2.99442 -0.0613801 -3.0442e-19)
(2.76136 -0.308003 -1.87679e-19)
(2.74509 -0.371095 0)
(2.66931 -0.291952 7.88049e-20)
(2.76604 -0.15002 -1.71266e-19)
(2.52528 -0.27057 6.88333e-19)
(2.56647 -0.271873 3.21765e-19)
(2.39704 -0.241466 9.18079e-20)
(2.47351 -0.167937 2.434e-19)
(2.25597 -0.208524 -8.2984e-20)
(2.31846 -0.18566 -2.58318e-19)
(2.1219 -0.171561 1.85548e-19)
(2.18745 -0.137102 2.95302e-19)
(1.99538 -0.134842 -5.78501e-20)
(2.05351 -0.114638 -1.83223e-19)
(1.88204 -0.101525 -2.09838e-20)
(1.93211 -0.0852216 5.9892e-20)
(1.82359 -0.0621895 -4.91878e-20)
(1.75764 -0.070101 -1.25076e-19)
(2.53966 -0.0791128 4.21388e-19)
(2.11534 -0.202881 4.00099e-19)
(2.86529 -0.171654 -4.17284e-19)
(2.95228 0.0768631 -3.78856e-19)
(2.76264 -0.172067 3.32798e-20)
(2.74004 -0.229646 -3.84911e-19)
(2.67473 -0.163166 -5.15648e-20)
(2.75752 -0.0269162 3.86768e-19)
(2.53408 -0.148559 -1.13827e-19)
(2.56839 -0.144323 -1.03103e-19)
(2.40904 -0.130319 0)
(2.47504 -0.0549648 -1.61812e-20)
(2.26838 -0.110728 8.26538e-20)
(2.32255 -0.0819421 -1.04448e-20)
(2.13386 -0.0896501 8.00053e-21)
(2.19125 -0.0482054 9.27133e-20)
(2.00435 -0.0703636 -1.04537e-19)
(2.05583 -0.0420144 -6.25397e-20)
(1.88585 -0.054321 4.39312e-20)
(1.93158 -0.0293604 -3.2898e-22)
(1.81926 -0.0226635 4.26561e-21)
(1.75465 -0.0380122 3.10654e-19)
(2.48275 0.0569091 -4.4546e-19)
(2.05579 -0.0675902 -2.47513e-20)
(2.83329 -0.0384751 -3.45975e-19)
(2.89428 0.202532 -2.94276e-19)
(2.74753 -0.042194 -4.47888e-21)
(2.72178 -0.0923946 -3.46903e-19)
(2.66323 -0.0398015 3.85347e-19)
(2.73174 0.0872702 4.83096e-19)
(2.52631 -0.0304691 -1.44995e-20)
(2.55579 -0.0184373 -2.44111e-19)
(2.40279 -0.0224189 -2.72581e-20)
(2.45872 0.0517875 7.11844e-20)
(2.26288 -0.0144107 -1.15791e-20)
(2.30989 0.0205985 2.48903e-22)
(2.12855 -0.00787165 5.40525e-20)
(2.17812 0.0381667 0)
(1.99814 -0.00413628 3.49475e-20)
(2.04301 0.030433 8.25674e-20)
(1.8781 -0.00327223 -4.07034e-20)
(1.91869 0.0273825 -2.10148e-20)
(1.80545 0.0184101 3.11292e-20)
(1.75514 -0.00455525 -2.92724e-20)
(2.41439 0.186498 2.23259e-20)
(1.98933 0.0664166 2.79463e-19)
(2.78523 0.0881126 -2.8982e-19)
(2.81863 0.323644 -2.92327e-19)
(2.71786 0.0817484 1.61365e-19)
(2.6908 0.0443287 -1.11961e-19)
(2.63691 0.0784873 -4.0129e-20)
(2.69138 0.195373 2.63528e-19)
(2.50361 0.0832589 -1.73569e-19)
(2.52954 0.104975 -3.83066e-19)
(2.38043 0.0817087 1.05776e-19)
(2.42649 0.153288 1.54501e-19)
(2.24162 0.0788411 1.1632e-20)
(2.28172 0.120059 1.05029e-20)
(2.10809 0.0714627 1.98327e-20)
(2.14967 0.12051 0)
(1.97868 0.0605323 3.96959e-20)
(2.0166 0.0998704 -8.51941e-20)
(1.85982 0.046817 4.56684e-20)
(1.89453 0.0818273 1.92382e-20)
(1.78335 0.0557083 1.06137e-20)
(1.74654 0.0302417 -1.97731e-20)
(2.3329 0.318645 -1.05885e-19)
(1.90154 0.198651 3.81459e-19)
(2.72018 0.215325 -1.33919e-19)
(2.71736 0.443524 -2.88112e-19)
(2.67351 0.203792 -4.82695e-20)
(2.64132 0.182389 -2.35378e-19)
(2.59635 0.193818 4.52078e-20)
(2.63499 0.30044 6.67697e-20)
(2.46656 0.192966 -7.88025e-20)
(2.48832 0.22542 -2.58173e-19)
(2.3429 0.181707 7.45928e-20)
(2.37894 0.250462 6.08308e-20)
(2.20569 0.167509 0)
(2.23846 0.214473 4.90824e-21)
(2.07394 0.146253 -9.28732e-20)
(2.10712 0.197251 -1.79116e-20)
(1.94755 0.120963 -1.15853e-19)
(1.97805 0.163627 -3.71459e-20)
(1.83219 0.0932562 -1.01237e-20)
(1.8606 0.131262 4.19251e-20)
(1.75442 0.0888209 -4.42285e-20)
(1.72715 0.063219 6.97289e-21)
(2.23107 0.448717 1.19936e-19)
(1.79992 0.328527 8.69955e-19)
(2.63295 0.342743 -3.92369e-19)
(2.59103 0.562414 -1.58097e-19)
(2.61084 0.325031 -1.49978e-19)
(2.56904 0.321588 1.13676e-19)
(2.53954 0.307413 -1.85988e-19)
(2.55974 0.404523 -6.14084e-20)
(2.41407 0.29875 -1.37214e-19)
(2.42909 0.341894 -9.32162e-20)
(2.29008 0.276804 -3.4553e-21)
(2.31508 0.343238 -6.39751e-21)
(2.15558 0.249869 -1.05281e-20)
(2.17975 0.301521 4.8966e-21)
(2.02737 0.214335 3.37267e-20)
(2.05143 0.26621 9.62134e-20)