/*--------------------------------*- C++ -*----------------------------------*\
| =========                 |                                                 |
| \\      /  F ield         | OpenFOAM: The Open Source CFD Toolbox           |
|  \\    /   O peration     | Version:  3.0.1                                 |
|   \\  /    A nd           | Web:      www.OpenFOAM.org                      |
|    \\/     M anipulation  |                                                 |
\*---------------------------------------------------------------------------*/
FoamFile
{
    version     2.0;
    format      ascii;
    class       surfaceVectorField;
    location    "0.0767124";
    object      Uf;
}
// * * * * * * * * * * * * * * * * * * * * * * * * * * * * * * * * * * * * * //

dimensions      [0 1 -1 0 0 0 0];

internalField   nonuniform List<vector> 
32369
(
(3.92186 0.671917 -5.01392e-21)
(4.12338 0.577246 -7.00099e-19)
(4.92128 1.46482 1.55975e-19)
(3.74721 0.990408 -4.29043e-19)
(3.10602 0.603255 1.56249e-19)
(3.98536 1.58469 5.56389e-19)
(3.56276 1.01614 -4.65984e-19)
(3.29531 0.663394 -5.04019e-19)
(3.66493 1.51783 -3.46667e-19)
(3.33338 0.993541 3.65579e-19)
(3.26479 0.685031 3.54551e-19)
(3.38077 1.37855 3.19421e-19)
(3.09674 0.95711 2.52565e-20)
(3.12762 0.707177 2.56668e-19)
(3.13072 1.24654 -6.98052e-22)
(2.88038 0.9124 1.80709e-19)
(2.95095 0.726645 -1.09716e-20)
(2.90926 1.13433 7.09704e-20)
(2.69982 0.856102 7.71875e-20)
(2.7748 0.72857 1.59217e-19)
(2.72222 1.03593 1.29998e-19)
(2.55971 0.78417 -6.63353e-20)
(2.62332 0.7025 -2.70187e-20)
(2.57376 0.939843 -8.2415e-20)
(2.45822 0.693937 3.18699e-20)
(2.50545 0.645338 -1.42247e-19)
(2.4626 0.836594 4.28351e-20)
(2.39082 0.584793 4.3213e-20)
(2.42204 0.558478 2.28907e-19)
(2.38664 0.72156 6.22306e-20)
(2.37864 0.446865 -9.8685e-20)
(2.34731 0.600945 -5.23988e-20)
(2.35822 0.444067 0)
(2.57236 0.638956 -3.51299e-19)
(2.7871 1.20761 2.14235e-18)
(2.86994 0.531824 3.22929e-19)
(2.19286 0.78253 -1.38056e-18)
(3.01626 0.499254 1.09367e-19)
(2.63186 0.507616 -1.67989e-19)
(3.05606 0.511303 -3.09505e-20)
(2.81197 0.412665 1.55992e-19)
(2.99885 0.545995 2.96328e-20)
(2.86111 0.388952 3.26218e-19)
(2.8718 0.583695 -7.77555e-20)
(2.8259 0.413961 -5.85116e-20)
(2.72107 0.600836 1.08346e-19)
(2.73079 0.458633 6.17675e-20)
(2.58633 0.58379 -5.09163e-20)
(2.61151 0.487418 -5.49526e-20)
(2.48184 0.529444 -2.1003e-20)
(2.50459 0.474166 -2.26308e-19)
(2.41103 0.43983 1.3797e-19)
(2.42117 0.416088 2.45044e-19)
(2.37262 0.314976 -1.91673e-20)
(2.38002 0.300137 -2.98974e-19)
(1.98479 1.29623 4.92865e-19)
(2.13133 2.02442 1.70791e-18)
(2.15516 0.785533 -1.86007e-18)
(1.84081 1.33955 -6.55153e-20)
(2.38187 0.511933 -9.03915e-20)
(2.13161 0.835183 -1.01949e-18)
(2.57376 0.373612 3.04526e-19)
(2.33145 0.54471 -2.02102e-19)
(2.68115 0.323738 6.34674e-20)
(2.48061 0.362185 1.23084e-19)
(2.69619 0.337232 2.4548e-20)
(2.56565 0.285805 -6.46257e-20)
(2.638 0.377124 -3.19108e-20)
(2.5761 0.286797 1.87758e-19)
(2.54691 0.400291 -9.36008e-20)
(2.52559 0.318721 1.70989e-19)
(2.45916 0.378662 -4.62058e-20)
(2.45397 0.329489 -1.46558e-19)
(2.38952 0.302469 6.33931e-20)
(2.38612 0.290265 4.93643e-20)
(2.3468 0.187675 8.38086e-20)
(2.34987 0.124755 -2.05088e-19)
(1.89144 2.03479 6.83536e-19)
(2.02237 2.73388 -1.17374e-18)
(1.8959 1.34018 7.27802e-19)
(1.84355 1.94352 1.95088e-18)
(2.0308 0.868162 -1.14628e-18)
(1.93139 1.32474 -6.81552e-19)
(2.19653 0.549986 -3.6949e-19)
(2.05186 0.875286 -3.25733e-19)
(2.34545 0.350965 -2.06507e-20)
(2.18722 0.54781 1.19396e-19)
(2.44367 0.260512 7.27436e-20)
(2.30637 0.343151 -8.3999e-20)
(2.4739 0.249185 4.37978e-19)
(2.37921 0.248268 1.86405e-19)
(2.44769 0.266158 2.13603e-19)
(2.39339 0.231385 4.88792e-20)
(2.39592 0.259309 -9.56019e-20)
(2.36721 0.233073 2.87776e-20)
(2.34453 0.195694 9.99335e-20)
(2.32475 0.201885 -3.36991e-20)
(2.29733 0.103703 1.20902e-19)
(2.30951 0.0348883 1.00886e-19)
(2.0199 2.66367 -3.45182e-19)
(2.22604 3.26438 -1.80469e-18)
(1.90555 1.91334 8.58002e-19)
(1.99781 2.47906 -5.59078e-19)
(1.92535 1.33126 8.8137e-20)
(1.94134 1.8149 9.97099e-19)
(2.01199 0.879818 1.71334e-19)
(1.96331 1.2714 -4.03279e-20)
(2.12443 0.547566 7.72593e-20)
(2.03616 0.834945 -1.3341e-20)
(2.22879 0.338056 -1.53072e-21)
(2.12935 0.515845 3.75218e-19)
(2.29841 0.237794 -2.12402e-19)
(2.21122 0.319417 -2.68038e-19)
(2.32167 0.207008 -1.37392e-19)
(2.25787 0.229561 -3.83472e-19)
(2.30845 0.188797 1.27337e-19)
(2.26737 0.194839 1.36237e-19)
(2.28092 0.130124 -2.9364e-20)
(2.25066 0.157266 -2.27162e-20)
(2.23682 0.063996 5.48825e-20)
(2.25753 -0.0215145 -8.3708e-21)
(2.24178 3.16637 -2.25721e-18)
(2.52657 3.63081 -9.59949e-19)
(2.05292 2.41996 -6.32286e-19)
(2.20296 2.94909 -1.31772e-18)
(1.9761 1.78294 9.8883e-19)
(2.06632 2.26324 1.15229e-19)
(1.97439 1.24746 -1.90388e-19)
(2.00077 1.66189 -1.1721e-19)
(2.02232 0.818995 2.57576e-19)
(1.99952 1.15124 4.19777e-19)
(2.09406 0.508406 1.48395e-19)
(2.04064 0.746388 3.46229e-19)
(2.16228 0.316369 -4.29752e-19)
(2.09855 0.461227 -4.92601e-19)
(2.2046 0.219978 -1.6433e-19)
(2.14787 0.293073 6.0998e-20)
(2.21711 0.169559 5.39368e-21)
(2.1744 0.208844 -2.40291e-19)
(2.20952 0.105742 5.03442e-20)
(2.17609 0.152317 1.61061e-19)
(2.17323 0.0607 -3.74425e-20)
(2.19588 -0.0367977 4.81697e-20)
(2.4892 3.54046 1.43985e-20)
(2.76264 3.87247 1.30961e-20)
(2.25551 2.8535 -7.79639e-19)
(2.40512 3.33384 0)
(2.10283 2.19733 -9.80828e-19)
(2.23878 2.65848 -1.67156e-19)
(2.02607 1.60875 4.23295e-19)
(2.10247 2.03298 -5.75553e-19)
(2.00854 1.11113 5.17499e-19)
(2.03405 1.47085 4.85018e-19)
(2.03147 0.721712 -2.27893e-19)
(2.01875 1.00003 -3.33082e-19)
(2.07355 0.450165 -4.98444e-20)
(2.03759 0.641529 4.45812e-19)
(2.11304 0.287045 2.00593e-20)
(2.06969 0.402449 1.38819e-19)
(2.13611 0.195082 -1.41995e-19)
(2.09751 0.264294 -5.16075e-19)
(2.14106 0.11657 9.37339e-20)
(2.1097 0.180153 1.49437e-19)
(2.11405 0.0832634 7.54739e-21)
(2.13096 -0.0220853 -4.54531e-19)
(2.68944 3.77604 0)
(2.9312 4.00304 1.40133e-18)
(2.44617 3.20192 6.30966e-19)
(2.58909 3.60699 -1.07761e-18)
(2.25266 2.56978 2.34051e-19)
(2.4221 3.00207 3.07567e-20)
(2.12108 1.95438 -6.31984e-19)
(2.23463 2.38688 1.50702e-19)
(2.04621 1.40606 -2.77957e-19)
(2.10915 1.78911 3.055e-19)
(2.0188 0.954338 2.60824e-19)
(2.0397 1.26491 -3.26256e-19)
(2.02513 0.616108 6.64085e-19)
(2.01445 0.845375 7.6008e-19)
(2.04778 0.391664 -3.38448e-19)
(2.01895 0.544188 -3.86114e-19)
(2.07038 0.255678 -3.08e-19)
(2.0373 0.353471 -6.61212e-20)
(2.08354 0.156524 7.93173e-20)
(2.05414 0.237653 -1.29095e-19)
(2.06467 0.133359 8.27804e-20)
(2.0819 0.0179667 6.391e-20)
(2.83262 3.90603 3.25984e-19)
(3.07596 4.02012 1.4082e-18)
(2.61734 3.46326 -1.78775e-18)
(2.76528 3.78563 -1.95079e-18)
(2.41505 2.89833 -2.88714e-20)
(2.60689 3.28969 -6.39501e-19)
(2.24138 2.28499 1.07402e-18)
(2.38663 2.71414 6.15514e-19)
(2.11399 1.70193 3.39829e-19)
(2.21085 2.10266 1.01829e-18)
(2.03712 1.19974 6.24201e-20)
(2.08825 1.53911 -1.53057e-20)
(2.00431 0.805004 -1.96646e-19)
(2.01673 1.06903 -1.54152e-20)
(2.00313 0.525623 -1.68064e-19)
(1.98841 0.713764 -7.41796e-19)
(2.01839 0.346262 1.13369e-19)
(1.99082 0.473741 1.1698e-19)
(2.03606 0.223607 -1.5339e-19)
(2.00819 0.323498 -1.28767e-19)
(2.02707 0.207005 1.75398e-19)
(2.04345 0.0859763 -2.2482e-19)
(2.97965 3.97494 -7.83391e-19)
(3.20035 4.00367 -1.33695e-18)
(2.79812 3.64901 -1.05978e-18)
(2.91936 3.89026 -9.84075e-19)
(2.59066 3.175 -3.73097e-20)
(2.77727 3.49854 9.30296e-19)
(2.38097 2.59518 4.96272e-19)
(2.54639 2.99601 -1.06437e-18)
(2.20349 1.99898 7.92058e-19)
(2.33005 2.40391 1.12491e-18)
(2.07653 1.45944 -9.13478e-20)
(2.15648 1.82131 -8.51181e-19)
(2.00214 1.01728 -4.92875e-19)
(2.03762 1.31306 5.19026e-19)
(1.97331 0.688852 -5.38121e-19)
(1.97356 0.912115 -2.85412e-19)
(1.97744 0.46734 -9.61647e-20)
(1.95627 0.627 1.05933e-19)
(1.99863 0.318167 1.53253e-19)
(1.97152 0.441046 0)
(2.00074 0.307149 3.28714e-19)
(2.02115 0.181419 -9.38007e-20)
(3.09998 3.99635 -1.5841e-18)
(3.29786 3.9695 -2.61061e-18)
(2.94877 3.76005 6.79007e-19)
(3.03897 3.94142 8.65712e-19)
(2.75145 3.38262 1.13789e-19)
(2.9219 3.63317 7.32945e-19)
(2.52465 2.86771 -7.0557e-19)
(2.69771 3.22099 -1.08264e-18)
(2.30704 2.2882 -3.11658e-19)
(2.45599 2.67946 9.68117e-19)
(2.13226 1.73092 -3.86045e-19)
(2.23889 2.10328 -1.14407e-18)
(2.01526 1.25358 8.23812e-19)
(2.07468 1.57429 6.29796e-19)
(1.95659 0.883559 3.32489e-19)
(1.97423 1.13917 4.15773e-19)
(1.9474 0.622374 2.16027e-19)
(1.9354 0.815357 2.13625e-20)
(1.97183 0.444226 1.38886e-19)
(1.94677 0.594381 -1.026e-19)
(1.98815 0.439016 1.34422e-19)
(2.00991 0.294563 3.54683e-19)
(3.18919 3.98488 -1.35893e-19)
(3.37181 3.91723 -1.14821e-18)
(3.0624 3.81497 9.28824e-19)
(3.12573 3.94957 9.48074e-19)
(2.88518 3.52361 -3.19439e-19)
(3.03768 3.70528 -9.07134e-19)
(2.65847 3.08911 3.69719e-19)
(2.82841 3.38346 -6.48922e-19)
(2.41534 2.55424 3.88429e-19)
(2.57787 2.9138 9.73591e-19)
(2.20053 2.0039 -3.21025e-19)
(2.3302 2.3711 2.44848e-19)
(2.04367 1.50903 2.43493e-19)
(2.12732 1.84379 -2.1373e-19)
(1.9554 1.10875 1.47071e-19)
(1.99323 1.39041 2.56021e-19)
(1.93199 0.813177 -2.76765e-19)
(1.93344 1.03747 -3.64303e-19)
(1.95858 0.605414 -1.23979e-19)
(1.93997 0.784056 1.29526e-19)
(1.99249 0.601582 -2.76058e-19)
(2.00974 0.438829 -3.67391e-19)
(3.25657 3.94786 -2.83249e-19)
(3.42772 3.84673 1.18505e-19)
(3.14902 3.82619 -5.09944e-19)
(3.19014 3.92467 -9.60005e-19)
(2.99225 3.60674 -1.26511e-18)
(3.12536 3.7277 1.63751e-19)
(2.7757 3.25511 -2.20297e-19)
(2.93551 3.48751 -1.02653e-18)
(2.52229 2.7852 9.19295e-19)
(2.6909 3.10015 1.34765e-18)
(2.27963 2.26697 4.06914e-19)
(2.42819 2.61324 2.5627e-19)
(2.08988 1.77578 -2.53077e-19)
(2.19726 2.11077 1.43607e-19)
(1.97536 1.35997 -2.04264e-19)
(2.03587 1.65787 -4.96948e-20)
(1.93891 1.03789 -5.20038e-21)
(1.95841 1.28807 -3.73125e-19)
(1.96823 0.800747 1.89184e-20)
(1.96118 1.00779 2.32089e-19)
(2.02556 0.796677 -3.83417e-19)
(2.04192 0.616527 8.36648e-20)
(3.30775 3.89058 -8.25916e-19)
(3.46455 3.76246 9.33331e-19)
(3.21449 3.80335 -4.13015e-19)
(3.23697 3.87619 -9.51424e-21)
(3.07605 3.6433 5.26449e-19)
(3.18635 3.7105 -6.76645e-19)
(2.87668 3.37078 2.88135e-19)
(3.01974 3.53967 5.24262e-19)
(2.62751 2.97546 8.13459e-19)
(2.79459 3.23837 5.54974e-19)
(2.37106 2.50954 9.34145e-21)
(2.53163 2.82022 -1.51058e-19)
(2.15892 2.04296 3.62288e-19)
(2.28684 2.36241 1.62526e-19)
(2.02428 1.62863 -2.13884e-19)
(2.10769 1.92875 -3.19129e-20)
(1.97795 1.29036 -2.0268e-19)
(2.01905 1.55647 -2.95811e-20)
(2.01017 1.02723 -1.02522e-19)
(2.02024 1.25669 -1.82333e-19)
(2.09618 1.016 2.14912e-20)
(2.09384 0.811057 1.03853e-19)
(3.33922 3.81617 1.84586e-18)
(3.4879 3.6705 -1.52939e-19)
(3.25488 3.75232 -1.93792e-19)
(3.26564 3.80888 9.06379e-19)
(3.13321 3.63568 -7.39369e-19)
(3.22567 3.66238 -1.74269e-18)
(2.95892 3.43638 7.90249e-19)
(3.07974 3.5429 1.03729e-18)
(2.72735 3.12092 -3.14484e-19)
(2.88337 3.32297 -7.6538e-19)
(2.47228 2.71824 -2.26277e-20)
(2.6365 2.9836 3.96403e-19)
(2.25135 2.29513 -2.09368e-19)
(2.39262 2.58294 -1.03075e-20)
(2.10789 1.89901 1.37465e-19)
(2.21127 2.18682 -2.22187e-19)
(2.05794 1.55667 8.14339e-21)
(2.12154 1.82623 1.62338e-19)
(2.09422 1.27267 -1.00928e-19)
(2.12594 1.51536 1.87598e-19)
(2.2116 1.24308 8.35201e-20)
(2.18653 1.02947 9.05934e-20)
(3.35782 3.73059 -1.19815e-18)
(3.49958 3.56877 -1.19843e-18)
(3.2799 3.6818 -1.55112e-19)
(3.28146 3.72738 -9.57896e-19)
(3.1711 3.59366 -1.90033e-19)
(3.2502 3.59223 7.94936e-21)
(3.02086 3.45019 -3.26786e-19)
(3.1207 3.50844 1.27453e-19)
(2.81756 3.21555 -1.68285e-19)
(2.954 3.35288 -9.18368e-19)
(2.58148 2.88576 4.62283e-19)
(2.73963 3.09942 4.09107e-19)
(2.36682 2.51802 5.38182e-24)
(2.51173 2.76351 -3.50299e-19)
(2.22888 2.1556 -2.04636e-19)
(2.34552 2.41778 2.93037e-20)
(2.18561 1.81997 3.46912e-19)
(2.26956 2.08124 -7.27293e-20)
(2.2308 1.51896 3.3481e-19)
(2.28566 1.768 4.55943e-19)
(2.38578 1.46651 -1.0953e-19)
(2.34093 1.24484 -2.09506e-19)
(3.3693 3.63642 -1.40434e-18)
(3.5011 3.46166 -1.32578e-18)
(3.29557 3.59698 -8.95706e-19)
(3.28775 3.63438 -9.53698e-19)
(3.19747 3.52936 3.08121e-19)
(3.26251 3.50623 7.81639e-19)
(3.06805 3.42519 -3.4902e-19)
(3.14739 3.44901 -3.59973e-20)
(2.89791 3.25881 -4.89055e-19)
(3.00756 3.3398 -8.41317e-19)
(2.69384 3.0081 -3.08294e-19)
(2.83384 3.1633 -4.49028e-20)
(2.50273 2.70235 -3.3119e-19)
(2.64101 2.9015 -4.20564e-19)
(2.38771 2.38385 2.12802e-19)
(2.5079 2.61136 2.54426e-19)
(2.36356 2.06416 -1.02616e-20)
(2.46207 2.30653 -8.6948e-20)
(2.42165 1.75268 2.4893e-20)
(2.49895 1.99603 2.14958e-19)
(2.60693 1.66504 -9.04685e-20)
(2.53554 1.45612 -5.27842e-20)
(3.36959 3.53437 -1.32516e-18)
(3.49477 3.35491 1.33336e-19)
(3.29828 3.49984 5.43417e-19)
(3.28498 3.5317 3.07229e-20)
(3.2101 3.44736 4.57978e-19)
(3.26278 3.40932 7.1854e-19)
(3.09976 3.37296 -4.34847e-19)
(3.15945 3.37301 3.9894e-19)
(2.96206 3.25777 -4.93297e-19)
(3.04443 3.3 -4.19121e-19)
(2.80041 3.08135 -1.21574e-19)
(2.91192 3.1825 -5.40404e-19)
(2.65532 2.8444 1.1178e-19)
(2.77311 2.99695 5.41909e-19)
(2.58052 2.57297 -9.91046e-22)
(2.69312 2.76148 -2.59268e-19)
(2.58981 2.27346 1.15029e-19)
(2.69482 2.48968 -7.54224e-20)
(2.66736 1.95221 7.77812e-20)
(2.76449 2.18301 1.31446e-19)
(2.8879 1.82241 -1.80207e-20)
(2.78372 1.61663 -1.50225e-20)
(3.36308 3.42935 1.48091e-18)
(3.48025 3.25021 -1.22493e-19)
(3.29132 3.39519 1.36851e-19)
(3.2734 3.42274 -1.04359e-18)
(3.2097 3.3549 6.2579e-19)
(3.24718 3.30896 8.82601e-19)
(3.11556 3.30518 5.16424e-19)
(3.15328 3.29191 5.53903e-19)
(3.00991 3.2316 -4.31696e-19)
(3.06303 3.24948 2.76887e-19)
(2.89968 3.11623 3.37077e-21)
(2.97462 3.17763 -6.5203e-19)
(2.81739 2.94384 2.32203e-19)
(2.90384 3.05307 4.66639e-19)
(2.80294 2.71653 -3.52281e-19)
(2.89756 2.86157 -2.60447e-19)
(2.86067 2.43532 -7.95116e-20)
(2.96277 2.61337 -5.15779e-20)
(2.96669 2.10435 0)
(3.07667 2.30575 0)
(3.22168 1.91095 0)
(3.09871 1.73689 0)
(3.35125 3.32314 -2.5088e-18)
(3.45727 3.15713 -1.38945e-18)
(3.27026 3.28919 -7.42649e-19)
(3.24013 3.31153 -2.12289e-18)
(3.19061 3.26352 8.435e-19)
(3.20525 3.2153 1.513e-18)
(3.11246 3.2376 3.5537e-19)
(3.1254 3.21503 -6.50901e-19)
(3.04142 3.19768 1.91576e-19)
(3.06613 3.19327 8.55846e-19)
(2.98892 3.12647 -3.09981e-19)
(3.02868 3.14528 -6.07228e-19)
(2.98363 2.99783 2.8075e-20)
(3.03907 3.03674 2.28088e-19)
(3.0467 2.79669 1.80063e-20)
(3.12029 2.84561 7.52159e-20)
(3.16507 2.52058 2.25509e-20)
(3.25602 2.57633 -9.06406e-20)
(3.30871 2.17461 0)
(3.41864 2.23541 0)
(3.58069 1.79471 0)
(3.44543 1.77821 -2.92435e-19)
(3.32107 3.22545 -9.49784e-19)
(3.38459 3.04775 -9.3196e-19)
(3.21611 3.19039 -7.39247e-19)
(3.16488 3.18761 -1.13315e-18)
(3.14269 3.18058 2.5273e-19)
(3.13446 3.1095 1.45629e-20)
(3.08862 3.16973 -3.20303e-19)
(3.0847 3.10881 4.45696e-19)
(3.06088 3.13989 2.34419e-19)
(3.06841 3.06096 3.22742e-19)
(3.0797 3.0658 -1.6785e-19)
(3.09598 2.95333 -3.05165e-19)
(3.16759 2.91368 2.90913e-19)
(3.19212 2.74579 -5.0558e-20)
(3.31752 2.66719 -1.84366e-20)
(3.35133 2.44758 1.02347e-19)
(3.49993 2.33215 -1.28335e-19)
(3.54179 2.09082 -5.76054e-20)
(3.68116 1.93135 0)
(3.73314 1.70067 0)
(3.90137 1.2376 7.00584e-20)
(3.82442 1.48613 3.19066e-19)
(3.18417 3.08856 -1.08246e-18)
(3.17182 2.90658 -8.81596e-19)
(3.1075 3.06732 -7.29938e-19)
(3.05508 2.97597 -7.1103e-19)
(3.07126 3.05354 2.13135e-19)
(3.06186 2.90152 -5.1481e-19)
(3.0697 3.00177 1.08523e-18)
(3.07475 2.81326 6.1315e-19)
(3.11775 2.87929 -1.43915e-19)
(3.13847 2.6384 9.40097e-20)
(3.23048 2.65186 -2.21743e-19)
(3.26342 2.38616 2.17532e-19)
(3.39908 2.31742 -2.91403e-19)
(3.43696 2.06639 -3.84609e-19)
(3.59102 1.91896 8.48737e-20)
(3.62002 1.7204 1.68921e-19)
(3.77739 1.50257 1.40588e-19)
(3.794 1.36497 1.25413e-19)
(3.93519 1.09398 6.21008e-20)
(3.95774 1.00819 1.59292e-19)
(4.07674 0.591103 3.95298e-20)
(4.03034 0.721805 5.76622e-19)
(2.97233 2.83689 -5.45998e-19)
(2.91889 2.695 4.0749e-19)
(3.04148 2.80781 -4.91526e-19)
(3.05054 2.6303 -1.85605e-18)
(3.09647 2.6796 -2.12995e-19)
(3.1468 2.45427 1.93414e-18)
(3.17856 2.4624 -3.23111e-19)
(3.23562 2.24557 -9.51341e-19)
(3.29956 2.17471 3.89679e-19)
(3.34332 1.99783 -1.4973e-19)
(3.45145 1.84987 1.00121e-19)
(3.46522 1.72691 2.06322e-19)
(3.61587 1.52954 -6.91799e-22)
(3.60021 1.45312 1.03756e-19)
(3.78125 1.22537 2.21823e-19)
(3.74977 1.18417 2.8352e-19)
(3.9471 0.918014 1.40168e-19)
(3.91666 0.898153 -2.81509e-19)
(4.09766 0.590745 1.13578e-19)
(4.09239 0.589684 2.09437e-19)
(4.23227 0.210284 -3.03862e-19)
(4.16617 0.250567 2.04824e-20)
(3.14354 2.45846 -7.66161e-19)
(3.43095 2.07222 -3.57779e-18)
(3.24387 2.25657 5.0682e-20)
(3.33046 2.11808 -1.14914e-18)
(3.32527 2.04383 1.6177e-18)
(3.34944 1.96205 3.56584e-18)
(3.41153 1.81836 -8.95243e-19)
(3.40556 1.7761 -7.90777e-19)
(3.50517 1.59267 -3.99036e-19)
(3.48186 1.5767 -3.00858e-19)
(3.61146 1.36891 2.87842e-19)
(3.58098 1.36145 -2.1899e-20)
(3.73667 1.1382 3.85244e-19)
(3.70249 1.13228 -8.86744e-20)
(3.88421 0.885677 -2.27789e-19)
(3.84359 0.885708 -6.47916e-19)
(4.05166 0.604039 -2.81071e-19)
(4.00321 0.612821 -4.58681e-19)
(4.2228 0.290409 -1.73644e-19)
(4.17626 0.309126 -2.02866e-19)
(4.3318 -0.0460722 2.72685e-19)
(4.31758 -0.0183215 -1.5031e-19)
(4.11201 2.93544 -1.97817e-19)
(2.92758 3.2932 1.32773e-18)
(3.70857 2.34122 -2.23012e-20)
(3.19599 2.92092 -6.37509e-20)
(3.4475 1.91612 1.08362e-19)
(3.2236 2.49578 -2.37939e-19)
(3.21121 1.61685 1.07624e-21)
(3.14169 2.10788 0)
(2.9893 1.40495 -3.61434e-20)
(2.99537 1.79357 9.8237e-20)
(2.79084 1.24796 3.9578e-20)
(2.82141 1.54875 -3.9089e-20)
(2.62508 1.1191 2.40214e-20)
(2.65173 1.35693 1.00161e-19)
(2.49606 0.999659 1.17395e-20)
(2.50812 1.19722 -1.4297e-20)
(2.40343 0.878351 6.07779e-20)
(2.39902 1.05149 1.77089e-20)
(2.34464 0.748417 -6.43787e-20)
(2.32586 0.909436 1.71168e-20)
(2.29095 0.773972 -1.02161e-20)
(2.323 0.602749 -4.36473e-20)
(2.34403 3.49813 8.4502e-19)
(1.61605 3.51538 1.44759e-19)
(2.72181 3.1162 -6.89101e-19)
(2.12066 3.24737 2.67431e-19)
(2.87918 2.67816 -5.78389e-19)
(2.45861 2.99055 -8.94365e-19)
(2.89316 2.27151 7.83496e-20)
(2.64725 2.6464 -2.13299e-19)
(2.81086 1.92833 8.64605e-20)
(2.68884 2.2944 2.26045e-19)
(2.67884 1.65552 -4.28609e-20)
(2.6302 1.97535 -2.57021e-20)
(2.5385 1.43943 -2.10925e-20)
(2.5196 1.70631 -5.83713e-20)
(2.41727 1.2596 -1.32813e-20)
(2.40166 1.48225 -1.96133e-20)
(2.32733 1.09829 -7.76734e-21)
(2.30327 1.28886 -1.09022e-20)
(2.27149 0.942489 4.65574e-20)
(2.23515 1.11445 -7.23577e-21)
(2.20152 0.962352 2.52273e-20)
(2.25274 0.780371 3.19145e-20)
(1.57209 3.23321 -4.66439e-19)
(1.20214 3.30187 -1.13027e-18)
(1.92747 3.20378 -6.67853e-20)
(1.58964 3.15834 3.94632e-19)
(2.23922 3.00886 -6.0424e-19)
(1.85591 3.11155 -3.7404e-19)
(2.43297 2.70381 -9.9112e-20)
(2.11168 2.92918 1.78326e-19)
(2.49671 2.3661 1.07855e-19)
(2.27763 2.65641 -1.85822e-19)
(2.46294 2.04761 -3.78529e-20)
(2.33104 2.34589 1.45463e-19)
(2.37878 1.76956 -6.02656e-20)
(2.2973 2.04349 -1.99883e-19)
(2.28648 1.533 5.29528e-21)
(2.22584 1.77066 5.91018e-20)
(2.21161 1.32862 2.48413e-20)
(2.15474 1.53045 1.67674e-20)
(2.16525 1.14553 -5.26182e-21)
(2.10414 1.31888 -1.50927e-21)
(2.08225 1.14428 -1.35872e-22)
(2.14923 0.974612 -2.53279e-20)
(1.38476 3.05625 -4.34518e-19)
(1.26993 3.13706 -1.3162e-19)
(1.53664 3.1151 2.03101e-20)
(1.4604 3.02911 -3.57643e-19)
(1.74561 3.07578 3.30012e-19)
(1.55869 3.08006 8.54434e-21)
(1.96019 2.92532 8.11805e-20)
(1.72483 3.02649 3.69017e-19)
(2.11067 2.67639 -1.80253e-19)
(1.88047 2.87033 -2.75634e-19)
(2.16722 2.37554 7.41536e-21)
(1.97651 2.63158 2.69913e-19)
(2.14886 2.07299 -8.55549e-20)
(2.00261 2.34794 -2.39963e-19)
(2.09793 1.79547 7.31519e-20)
(1.98128 2.05561 2.59936e-20)
(2.04788 1.55044 -2.13939e-20)
(1.94779 1.77618 1.2515e-20)
(2.01678 1.33413 3.14723e-23)
(1.92442 1.52369 0)
(1.91324 1.32101 4.60531e-21)
(2.00815 1.13187 1.24775e-20)
(1.44839 2.97132 6.29855e-19)
(1.45984 3.0653 2.74738e-19)
(1.4666 3.02487 -4.01397e-19)
(1.51808 2.95996 -3.7049e-19)
(1.54243 3.04956 9.42918e-21)
(1.50232 3.01743 -6.00795e-22)
(1.65134 3.00342 0)
(1.55816 3.01662 -1.63901e-19)
(1.75315 2.86463 1.12577e-19)
(1.63215 2.94166 -3.08731e-21)
(1.81651 2.6425 2.74395e-20)
(1.68531 2.78388 1.31217e-19)
(1.83502 2.36728 -1.53366e-19)
(1.70055 2.55405 -2.58847e-20)
(1.82707 2.07326 -1.07651e-20)
(1.68767 2.28012 2.77956e-20)
(1.81833 1.78793 3.50313e-20)
(1.67519 1.98864 -3.70719e-20)
(1.82223 1.52748 1.82592e-21)
(1.68152 1.70781 0)
(1.70537 1.47822 7.74691e-21)
(1.83246 1.30146 -3.98616e-20)
(1.60099 2.96013 -1.09273e-21)
(1.6678 3.0464 3.41842e-20)
(1.53466 2.96883 -8.52996e-21)
(1.63561 2.94382 -3.55805e-20)
(1.51728 2.98786 -1.5545e-19)
(1.55557 2.96571 -8.05054e-21)
(1.53448 2.97175 -1.68056e-19)
(1.52538 2.96439 -9.47668e-20)
(1.56021 2.88918 3.05594e-20)
(1.51634 2.9161 -5.80122e-20)
(1.56931 2.73031 9.42896e-20)
(1.50369 2.80198 4.87365e-21)
(1.55497 2.50531 1.47722e-19)
(1.47102 2.61839 7.59771e-20)
(1.53342 2.23784 -2.28462e-20)
(1.42654 2.37778 7.07341e-20)
(1.5289 1.95441 -7.58898e-20)
(1.40026 2.09946 -6.52639e-20)
(1.55521 1.67779 5.01762e-21)
(1.41229 1.81248 1.35615e-20)
(1.45078 1.57032 9.10982e-21)
(1.61042 1.42 -7.72392e-20)
(1.76587 2.97762 2.53897e-19)
(1.87051 3.04211 3.8883e-20)
(1.65392 2.94822 -4.00707e-20)
(1.77131 2.9563 -1.2117e-19)
(1.57357 2.94125 6.24354e-20)
(1.66206 2.93829 5.23085e-20)
(1.51691 2.91785 2.85619e-20)
(1.57384 2.91664 6.30223e-20)
(1.46981 2.84969 -6.09175e-20)
(1.49831 2.86523 -5.47062e-20)
(1.41649 2.71942 6.7731e-21)
(1.42072 2.76282 -2.39299e-20)
(1.35185 2.52526 -3.15732e-22)
(1.32888 2.5994 -3.89255e-20)
(1.29361 2.27998 -5.09419e-21)
(1.23026 2.37828 2.71709e-20)
(1.27135 2.00557 9.05272e-20)
(1.1614 2.11115 -3.55608e-20)
(1.30105 1.72907 1.14459e-20)
(1.15696 1.82254 3.39628e-20)
(1.2018 1.57242 -3.11796e-21)
(1.37302 1.4702 1.76561e-19)
(1.91835 3.00011 -7.30879e-20)
(2.05232 3.04081 1.19188e-19)
(1.78987 2.94716 -1.9583e-20)
(1.9054 2.97845 -9.62192e-20)
(1.67432 2.91429 5.45158e-20)
(1.79055 2.92918 5.29263e-20)
(1.56774 2.87036 -1.03885e-20)
(1.66655 2.88372 -3.48124e-20)
(1.4633 2.79382 -2.57816e-20)
(1.54462 2.81514 6.38966e-20)
(1.35016 2.66703 -5.31988e-20)
(1.41623 2.70577 3.78942e-20)
(1.22627 2.48326 -2.45914e-20)
(1.27123 2.54292 -5.02522e-20)
(1.11148 2.24736 2.98967e-21)
(1.11339 2.3244 7.00684e-20)
(1.04485 1.9759 8.63171e-21)
(0.982515 2.05905 -8.56244e-21)
(1.05557 1.69357 2.67245e-20)
(0.934045 1.76436 5.61945e-20)
(0.969781 1.50356 5.01173e-20)
(1.12852 1.42544 -4.00526e-20)
(2.0583 3.02402 1.16805e-19)
(2.21272 3.05144 1.17614e-19)
(1.92676 2.9566 -1.44891e-20)
(2.03166 3.00349 1.41258e-20)
(1.79501 2.90382 -2.77692e-20)
(1.92663 2.93128 0)
(1.65742 2.83591 3.19555e-20)
(1.78073 2.86555 -1.65042e-19)
(1.51405 2.7406 1.46424e-19)
(1.62921 2.77427 2.42024e-20)
(1.3574 2.60296 8.07821e-20)
(1.46631 2.64726 9.24131e-20)
(1.182 2.41177 5.80388e-20)
(1.28278 2.47141 3.6593e-19)
(1.00563 2.16985 6.7232e-20)
(1.07707 2.24143 -2.45228e-20)
(0.878249 1.89217 9.58497e-21)
(0.881044 1.96404 8.64977e-20)
(0.849723 1.60627 3.18931e-20)
(0.770165 1.65652 -1.54113e-19)
(0.778335 1.37942 1.58106e-19)
(0.92647 1.3455 2.68339e-20)
(2.19144 3.04788 2.48931e-20)
(2.35083 3.06879 0)
(2.05983 2.97229 3.04602e-20)
(2.15548 3.03016 2.77666e-20)
(1.92241 2.90435 -1.19651e-19)
(2.06432 2.94 7.8515e-20)
(1.76852 2.81355 -1.95207e-19)
(1.90333 2.85727 -5.8447e-19)
(1.59988 2.6953 -4.16776e-20)
(1.73686 2.74296 1.23314e-19)
(1.41371 2.53723 3.27332e-19)
(1.55242 2.59295 -9.51833e-20)
(1.20538 2.32884 3.1073e-19)
(1.34449 2.39548 1.32756e-19)
(0.981598 2.06764 8.07869e-22)
(1.10931 2.14323 -2.30097e-19)
(0.78837 1.76873 -8.75551e-20)
(0.863498 1.84159 -1.97292e-19)
(0.701431 1.46444 -1.25925e-19)
(0.681483 1.51052 -5.99247e-19)
(0.638079 1.19998 3.00118e-19)
(0.753779 1.18339 5.64281e-19)
(2.31851 3.07459 0)
(2.48983 3.08468 0)
(2.18648 2.99577 7.08422e-20)
(2.28401 3.06416 -5.53451e-19)
(2.05124 2.90874 -3.2152e-19)
(2.19221 2.94848 2.51455e-19)
(1.89136 2.79828 -3.33415e-19)
(2.03059 2.85332 -3.35401e-19)
(1.70991 2.65742 8.65504e-20)
(1.86011 2.71762 1.77718e-19)
(1.506 2.47477 -3.3843e-19)
(1.66508 2.5429 8.25225e-20)
(1.27683 2.24047 -4.0949e-19)
(1.44415 2.31919 -2.69e-19)
(1.02651 1.95174 -4.64373e-19)
(1.19465 2.03772 2.38043e-19)
(0.78538 1.62194 -6.65182e-19)
(0.923575 1.70285 -3.41076e-19)
(0.628666 1.28513 -3.11974e-19)
(0.683525 1.33986 2.80273e-19)
(0.579582 0.982981 -2.26422e-19)
(0.628452 0.978864 -4.10245e-19)
(2.4416 3.10177 -5.00088e-19)
(2.62851 3.09269 -1.00326e-18)
(2.31696 3.0147 -3.5428e-19)
(2.40105 3.09313 -4.71603e-19)
(2.18035 2.91229 2.9785e-19)
(2.31758 2.96014 6.55159e-19)
(2.02051 2.786 1.38778e-19)
(2.16302 2.84926 1.26048e-19)
(1.83635 2.62247 1.83896e-19)
(1.99291 2.69223 0)
(1.62659 2.41343 1.961e-19)
(1.79734 2.49202 1.08555e-20)
(1.38944 2.14998 3.49739e-19)
(1.57524 2.23977 1.19443e-19)
(1.12673 1.82802 4.61664e-19)
(1.32467 1.92698 4.35511e-19)
(0.860938 1.46101 6.3225e-19)
(1.04885 1.5551 4.30201e-19)
(0.652202 1.08568 5.11377e-19)
(0.77969 1.15293 6.0071e-20)
(0.617586 0.761013 2.75006e-19)
(0.589309 0.761636 -1.8926e-19)
(2.55945 3.12448 -1.30551e-18)
(2.76106 3.09996 -1.27613e-18)
(2.44163 3.03281 6.88425e-19)
(2.51503 3.11778 6.76766e-19)
(2.30754 2.91683 5.43272e-19)
(2.44266 2.97009 -4.43893e-19)
(2.15417 2.77178 0)
(2.29674 2.83827 4.7459e-19)
(1.97498 2.58473 -1.82312e-19)
(2.13342 2.66123 3.26142e-19)
(1.77002 2.34817 -7.87957e-20)
(1.94669 2.43493 -4.54275e-19)
(1.5382 2.05417 1.81121e-19)
(1.73503 2.15297 1.63853e-19)
(1.27951 1.69852 4.04947e-19)
(1.49683 1.80893 -1.77178e-20)
(1.00773 1.29253 -1.78254e-19)
(1.23309 1.40316 -1.33517e-20)
(0.769823 0.870973 -1.84911e-19)
(0.960229 0.960526 -1.1155e-18)
(0.749161 0.514727 3.67377e-19)
(0.647326 0.46368 -3.82355e-21)
(2.67269 3.14327 2.4215e-19)
(2.88634 3.11018 -2.62638e-19)
(2.56395 3.04579 -3.74881e-19)
(2.62805 3.13378 1.25439e-18)
(2.43698 2.91448 -6.49172e-19)
(2.56653 2.97216 -1.31475e-18)
(2.2927 2.74964 8.16999e-19)
(2.43366 2.8186 3.76543e-19)
(2.12573 2.53864 1.39631e-19)
(2.28369 2.61928 1.39509e-19)
(1.93537 2.27413 -2.77312e-19)
(2.11416 2.36686 -2.50969e-19)
(1.72093 1.94982 -1.58467e-20)
(1.92322 2.05641 -2.48634e-19)
(1.48161 1.56273 -4.55864e-19)
(1.70942 1.68379 1.14254e-19)
(1.22425 1.12186 -8.73653e-19)
(1.47204 1.24975 -1.86893e-19)
(0.978241 0.657095 -5.84384e-19)
(1.21554 0.77599 -3.68625e-19)
(1.0114 0.277304 -3.27929e-19)
(0.813694 0.219217 1.34356e-18)
(2.78232 3.15779 5.98429e-19)
(2.99967 3.11634 -8.83126e-19)
(2.68396 3.04993 1.93629e-19)
(2.73851 3.13493 1.10503e-18)
(2.56819 2.90075 -5.07112e-19)
(2.68849 2.95835 -1.19136e-18)
(2.43859 2.71403 -2.81155e-19)
(2.57363 2.78247 -1.32145e-19)
(2.29074 2.47841 -2.0682e-19)
(2.44408 2.56078 -3.21781e-20)
(2.12352 2.18714 -2.22539e-19)
(2.2992 2.28495 3.1282e-19)
(1.93641 1.83571 -1.33521e-19)
(2.13733 1.95071 5.26599e-19)
(1.72848 1.42286 4.49995e-19)
(1.95753 1.55562 1.5873e-19)
(1.50172 0.956401 3.40574e-19)
(1.75874 1.10167 1.79625e-19)
(1.27076 0.458047 -3.43078e-20)
(1.53542 0.60781 -2.44455e-19)
(1.36648 0.0628146 3.61932e-19)
(1.10044 -0.0203191 2.97725e-19)
(2.88365 3.15843 -8.00063e-19)
(3.09798 3.11392 -1.37683e-18)
(2.79895 3.03519 -2.51312e-19)
(2.84387 3.11316 7.3221e-19)
(2.69955 2.86636 -9.5202e-19)
(2.80637 2.92215 -1.40623e-18)
(2.59065 2.65824 1.04119e-19)
(2.71404 2.72638 9.59895e-19)
(2.46835 2.401 4.59426e-19)
(2.61052 2.48641 -6.98682e-19)
(2.33126 2.08846 1.05073e-18)
(2.49611 2.19327 6.52063e-19)
(2.17921 1.71705 8.80464e-19)
(2.36987 1.84227 7.88628e-19)
(2.01203 1.2869 -1.17807e-19)
(2.23182 1.43202 2.44305e-19)
(1.82994 0.805641 -3.76997e-19)
(2.08205 0.966141 -6.48271e-19)
(1.63672 0.29074 1.66287e-19)
(1.91188 0.462485 2.65635e-19)
(1.79191 -0.0840722 -8.9327e-20)
(1.44596 -0.22618 1.14293e-19)
(2.97363 3.13666 -5.35603e-19)
(3.1758 3.09454 -1.05172e-18)
(2.90536 2.99368 -2.08746e-19)
(2.94006 3.06199 7.12716e-19)
(2.82664 2.80738 2.3195e-19)
(2.91469 2.86197 1.43758e-19)
(2.74265 2.5833 3.23809e-19)
(2.84709 2.65305 4.96636e-19)
(2.65021 2.31163 -6.48708e-19)
(2.77254 2.40148 -1.33365e-18)
(2.5484 1.98567 3.75481e-19)
(2.69237 2.09775 7.00748e-19)
(2.43783 1.60193 2.09716e-19)
(2.60691 1.73679 -5.80603e-22)
(2.31951 1.16145 -1.90971e-19)
(2.51687 1.31811 2.35313e-19)
(2.19431 0.670824 -1.20289e-19)
(2.42283 0.846263 -5.06856e-19)
(2.06918 0.139956 7.82309e-20)
(2.31605 0.331844 7.53037e-19)
(2.25401 -0.226615 -5.41038e-19)
(1.94907 -0.443366 -8.6021e-19)
(3.0488 3.08676 -4.80616e-19)
(3.22922 3.04708 -1.15405e-18)
(2.99741 2.92549 1.11517e-18)
(3.01998 2.98212 4.19725e-19)
(2.9409 2.72927 3.58572e-19)
(3.00551 2.7815 -7.31349e-20)
(2.88311 2.497 -9.59338e-19)
(2.96215 2.56647 1.19775e-19)
(2.82247 2.21784 -2.01132e-19)
(2.91719 2.30878 -5.32802e-19)
(2.7595 1.88491 3.99906e-19)
(2.8736 1.9997 3.59469e-19)
(2.6955 1.49541 -6.43507e-22)
(2.83301 1.63514 3.13252e-19)
(2.63175 1.05169 -1.23141e-21)
(2.79619 1.21566 -2.33054e-19)
(2.56829 0.561485 2.27082e-19)
(2.76329 0.747104 1.05756e-22)
(2.50062 0.0374244 3.46822e-19)
(2.72788 0.242528 1.30641e-19)
(2.73778 -0.293598 7.27303e-20)
(2.41301 -0.551814 -2.06057e-18)
(3.10413 3.00765 -6.61717e-19)
(3.2556 2.9673 1.17647e-19)
(3.06788 2.83663 -7.01179e-19)
(3.07654 2.88049 -5.30528e-19)
(3.03239 2.63774 -3.1981e-19)
(3.07236 2.68397 -1.20406e-18)
(3.00015 2.40215 6.05578e-19)
(3.05123 2.46644 9.16623e-19)
(2.97219 2.11953 -6.83364e-20)
(3.03553 2.20557 7.51464e-21)
(2.95077 1.78462 2.78329e-19)
(3.02982 1.89535 -7.53904e-22)
(2.9374 1.39617 1.41039e-19)
(3.03653 1.53385 4.67566e-19)
(2.93278 0.957338 -2.57695e-19)
(3.05572 1.12228 -2.3271e-19)
(2.93773 0.475695 -1.11879e-19)
(3.08681 0.6652 -8.78752e-20)
(2.95514 -0.0381528 -6.50007e-20)
(3.12625 0.171656 -1.57138e-19)
(3.20453 -0.354052 9.71521e-20)
(2.97979 -0.668099 9.22925e-19)
(3.13474 2.902 5.33906e-19)
(3.25988 2.86376 8.85306e-19)
(3.1126 2.73076 -9.5953e-19)
(3.11065 2.76092 -5.12717e-19)
(3.09596 2.53131 -1.78264e-19)
(3.11466 2.56734 -4.19041e-19)
(3.08824 2.29378 4.15095e-19)