/*--------------------------------*- C++ -*----------------------------------*\
| =========                 |                                                 |
| \\      /  F ield         | OpenFOAM: The Open Source CFD Toolbox           |
|  \\    /   O peration     | Version:  3.0.1                                 |
|   \\  /    A nd           | Web:      www.OpenFOAM.org                      |
|    \\/     M anipulation  |                                                 |
\*---------------------------------------------------------------------------*/
FoamFile
{
    version     2.0;
    format      ascii;
    class       volScalarField;
    location    "0.439644";
    object      k;
}
// * * * * * * * * * * * * * * * * * * * * * * * * * * * * * * * * * * * * * //

dimensions      [0 2 -2 0 0 0 0];

internalField   nonuniform List<scalar> 
21246
(
0.746794
1.11807
0.701523
0.454251
0.269195
0.15645
0.0946527
0.0628185
0.0467466
0.0380155
0.0327194
0.717966
1.03836
0.746612
0.522144
0.323239
0.191117
0.113084
0.0712688
0.0505981
0.0400736
0.034104
0.643026
0.84554
0.726777
0.547793
0.369688
0.224199
0.133075
0.0821163
0.0560788
0.0431889
0.03646
0.53866
0.703565
0.681492
0.548137
0.394501
0.254381
0.153416
0.0937934
0.0626783
0.0472065
0.039534
0.426497
0.613963
0.634333
0.54104
0.410974
0.279165
0.175205
0.107739
0.0702612
0.0520643
0.0432476
0.321883
0.550393
0.592247
0.533033
0.425406
0.303169
0.197927
0.124321
0.0806893
0.058081
0.0475201
0.231405
0.498762
0.557339
0.524858
0.438079
0.326973
0.222545
0.143566
0.0935217
0.0662871
0.052994
0.160646
0.461236
0.533112
0.517649
0.448216
0.349185
0.248079
0.165432
0.109151
0.0765882
0.0598454
0.12773
0.449587
0.527118
0.51575
0.457269
0.36926
0.273348
0.189208
0.127604
0.0893627
0.0684301
0.131858
0.457365
0.541808
0.526435
0.470242
0.388877
0.298038
0.214114
0.148541
0.104789
0.079146
0.127955
0.436748
0.562474
0.555192
0.494207
0.411808
0.32291
0.239488
0.171231
0.122679
0.0922079
0.111137
0.372309
0.554098
0.589355
0.53112
0.442079
0.349947
0.265373
0.19499
0.142555
0.107631
0.0910793
0.293787
0.496736
0.598192
0.570523
0.480166
0.381368
0.292813
0.21975
0.164053
0.125237
0.0735902
0.226821
0.408229
0.557793
0.589586
0.517964
0.416229
0.322314
0.24567
0.186969
0.144793
0.0604656
0.175164
0.315615
0.475127
0.568649
0.539571
0.447602
0.351503
0.271811
0.210703
0.165968
0.0520102
0.139995
0.238372
0.377714
0.506603
0.530664
0.464971
0.3752
0.295889
0.234155
0.188001
0.046768
0.117846
0.18427
0.28838
0.419018
0.48715
0.458824
0.386397
0.313896
0.255065
0.209404
0.0435332
0.104136
0.149129
0.218584
0.326089
0.417269
0.426147
0.379177
0.320858
0.269587
0.227395
0.0413771
0.0951421
0.126483
0.173368
0.245966
0.334364
0.372001
0.351952
0.312973
0.2739
0.237613
0.040097
0.0891307
0.110644
0.143464
0.19139
0.25551
0.306378
0.308441
0.288989
0.264629
0.237033
0.039201
0.0838635
0.0987468
0.12285
0.155541
0.198277
0.241978
0.256106
0.250637
0.239395
0.221594
0.0390286
0.0790563
0.0910994
0.110809
0.135428
0.165124
0.193103
0.205303
0.204815
0.199902
0.188886
0.0453577
0.0993743
0.110512
0.125485
0.142568
0.160738
0.173456
0.176035
0.17139
0.165771
0.157998
0.113173
0.116747
0.105649
0.1107
0.126781
0.148024
0.163945
0.167593
0.162249
0.155705
0.152511
0.694795
0.870656
0.626861
0.38209
0.22498
0.135259
0.0856635
0.0591965
0.0451485
0.0370821
0.0318451
0.491465
0.678299
0.536118
0.369573
0.231414
0.143048
0.0909987
0.0622351
0.0468373
0.0380829
0.0324705
0.441095
0.605324
0.493741
0.381371
0.258477
0.163287
0.102497
0.0682911
0.0501724
0.0401607
0.0338865
0.409922
0.542528
0.452468
0.3737
0.270479
0.179675
0.115401
0.0765074
0.0551022
0.0433554
0.0362256
0.386633
0.481136
0.417853
0.354732
0.264026
0.18226
0.121951
0.083471
0.0611757
0.0483634
0.0402817
0.367318
0.43021
0.388203
0.335221
0.255133
0.180827
0.123902
0.0865268
0.0644344
0.05168
0.0437497
0.350641
0.389989
0.36328
0.317291
0.245622
0.178074
0.124901
0.089044
0.0672999
0.0546287
0.0470064
0.336251
0.358423
0.342604
0.302268
0.237443
0.175688
0.125948
0.0915649
0.0700681
0.057182
0.0494317
0.323927
0.333618
0.325942
0.290673
0.231843
0.174984
0.128096
0.0948665
0.0733779
0.0599779
0.0517501
0.313342
0.313789
0.312947
0.282428
0.229367
0.176703
0.132216
0.0998229
0.0780439
0.0636446
0.0541377
0.304077
0.297772
0.302882
0.277275
0.230164
0.181392
0.13908
0.107354
0.0850708
0.0691969
0.0574576
0.295788
0.284273
0.294735
0.274711
0.233771
0.189107
0.149164
0.118288
0.0956229
0.0781268
0.0633852
0.288267
0.272366
0.288078
0.274238
0.239875
0.199838
0.162767
0.133263
0.110769
0.0920792
0.0744605
0.281069
0.261357
0.281824
0.274724
0.247678
0.213135
0.179781
0.152478
0.131088
0.112248
0.0924176
0.273773
0.251004
0.275049
0.274591
0.255393
0.227391
0.198919
0.174843
0.155445
0.137571
0.117078
0.266228
0.240786
0.267267
0.273121
0.261952
0.241276
0.218638
0.19869
0.182059
0.165982
0.146051
0.258208
0.230223
0.257903
0.26944
0.266072
0.253079
0.23686
0.221637
0.208302
0.194585
0.176486
0.249444
0.218898
0.246425
0.26261
0.266317
0.260814
0.251098
0.240785
0.230919
0.219773
0.204105
0.23973
0.206418
0.232332
0.251737
0.261292
0.26249
0.258818
0.253135
0.246546
0.237919
0.225001
0.228954
0.19244
0.215211
0.236073
0.249818
0.256406
0.257842
0.25615
0.252418
0.246173
0.236064
0.217178
0.176689
0.194811
0.215154
0.231102
0.241391
0.246699
0.248219
0.246953
0.243161
0.236097
0.205011
0.159046
0.171072
0.188774
0.20472
0.216813
0.22469
0.228736
0.229711
0.228546
0.225407
0.193532
0.139076
0.143551
0.156595
0.170423
0.182733
0.192561
0.199471
0.203113
0.204526
0.20558
0.192153
0.119318
0.122152
0.133416
0.148626
0.165138
0.178613
0.184958
0.18525
0.18327
0.183036
0.567495
0.815554
0.685483
0.517337
0.35775
0.230709
0.143641
0.0885438
0.0541256
0.0327849
0.0201539
0.442969
0.655527
0.615746
0.486583
0.342886
0.224195
0.140491
0.0861139
0.0520473
0.0311988
0.0189453
0.332273
0.562856
0.560034
0.47168
0.34759
0.232988
0.147185
0.0898184
0.0536243
0.0317373
0.019223
0.272046
0.495179
0.516232
0.454998
0.349123
0.24082
0.154776
0.0954523
0.0573714
0.0339711
0.0203644
0.231613
0.414442
0.454718
0.42758
0.346988
0.249224
0.163619
0.101612
0.060874
0.0354727
0.0205818
0.209961
0.362307
0.401298
0.386634
0.325753
0.243198
0.164392
0.103788
0.0627721
0.0370381
0.0220549
0.197185
0.327655
0.363978
0.352251
0.299549
0.227457
0.157329
0.101818
0.0629061
0.0376418
0.0224654
0.189256
0.302593
0.335074
0.324027
0.277147
0.212689
0.14933
0.0983593
0.0619103
0.0377797
0.023325
0.183351
0.282859
0.311594
0.300528
0.25753
0.198903
0.141205
0.0944215
0.0605134
0.0376321
0.0235621
0.178158
0.266171
0.29209
0.281237
0.241278
0.187207
0.134036
0.0907199
0.0589875
0.0371709
0.0233151
0.17355
0.251811
0.275755
0.265422
0.228075
0.177694
0.128114
0.0875396
0.0575368
0.0366367
0.0234288
0.170125
0.239793
0.262135
0.252354
0.217285
0.170005
0.123362
0.084986
0.056374
0.0362403
0.0233854
0.167466
0.2295
0.250736
0.241711
0.20876
0.164134
0.119879
0.0832222
0.0556701
0.0360795
0.0233277
0.164992
0.220356
0.241135
0.233311
0.202504
0.160183
0.117795
0.0823609
0.0554827
0.0361742
0.0236001
0.16327
0.212508
0.233116
0.226719
0.198099
0.15789
0.117004
0.0823881
0.0558316
0.0365332
0.0237698
0.162183
0.205567
0.226454
0.22184
0.195574
0.157375
0.117655
0.0834362
0.0568198
0.037236
0.0241681
0.161417
0.199089
0.220885
0.218675
0.195157
0.158964
0.120065
0.0857495
0.058606
0.0383725
0.0248016
0.161262
0.193085
0.21629
0.217075
0.19683
0.162829
0.124503
0.0895829
0.0614023
0.0400972
0.0256643
0.162146
0.187425
0.212064
0.216428
0.200404
0.169303
0.1315
0.0953198
0.0655329
0.0426853
0.0271005
0.164216
0.181777
0.207987
0.216195
0.204936
0.177325
0.140527
0.103198
0.0713672
0.0465715
0.0294178
0.167795
0.176039
0.203653
0.216015
0.209901
0.186358
0.151162
0.113085
0.0792464
0.0523301
0.0332392
0.1746
0.168905
0.19911
0.215011
0.214047
0.195112
0.16261
0.124953
0.0897954
0.0608782
0.0395418
0.183182
0.162929
0.192356
0.212985
0.216724
0.202539
0.17399
0.138586
0.103586
0.0733173
0.0497058
0.207
0.172765
0.202372
0.207725
0.210523
0.201336
0.180027
0.150914
0.119478
0.0899748
0.0651165
0.528428
0.736735
0.670927
0.55813
0.429282
0.290115
0.180184
0.110523
0.066512
0.0394878
0.0238425
0.415614
0.543903
0.590636
0.550395
0.46489
0.351013
0.23747
0.146716
0.0878025
0.0518224
0.030628
0.228385
0.463734
0.522967
0.519145
0.470025
0.384852
0.282969
0.187129
0.115659
0.0692838
0.0413792
0.223773
0.458148
0.537624
0.51998
0.475637
0.405801
0.316681
0.223572
0.14485
0.0904255
0.0566327
0.247401
0.479725
0.669243
0.630984
0.536021
0.442904
0.349724
0.256965
0.174302
0.112321
0.0731992
0.261595
0.473837
0.744083
0.857225
0.718164
0.547239
0.408528
0.296799
0.205333
0.135604
0.0898132
0.273988
0.459294
0.724997
1.00362
1.00465
0.770127
0.53543
0.364604
0.245316
0.161826
0.107752
0.286734
0.446787
0.687821
0.984967
1.21422
1.07418
0.755494
0.485728
0.307262
0.195423
0.12762
0.299628
0.437975
0.650092
0.927157
1.22706
1.31501
1.03175
0.668389
0.402956
0.242502
0.152022
0.31242
0.433586
0.615513
0.854734
1.14613
1.39825
1.27774
0.884783
0.530262
0.305668
0.182349
0.325059
0.435092
0.588667
0.781004
1.0332
1.32531
1.40122
1.07392
0.665574
0.378425
0.217613
0.338026
0.44209
0.570491
0.713607
0.913286
1.18983
1.39069
1.18615
0.77323
0.444568
0.252103
0.351837
0.455812
0.561455
0.660132
0.804608
1.03426
1.27758
1.20411
0.8246
0.485745
0.277433
0.367002
0.475091
0.559588
0.620958
0.713882
0.882529
1.11707
1.1511
0.812935
0.491783
0.288706
0.383955
0.500052
0.563602
0.592945
0.643796
0.748948
0.907556
1.03088
0.747561
0.462536
0.285122
0.402453
0.531827
0.573396
0.569511
0.579226
0.630619
0.713985
0.776536
0.675262
0.419183
0.272165
0.423763
0.574075
0.593988
0.556032
0.526039
0.532095
0.56328
0.588752
0.559627
0.396854
0.261776
0.449684
0.632364
0.634007
0.563271
0.499173
0.474952
0.479722
0.489204
0.475133
0.386997
0.266442
0.483639
0.71627
0.708922
0.608704
0.515587
0.472768
0.468186
0.475039
0.467661
0.418536
0.315568
0.530904
0.850328
0.858633
0.732634
0.606209
0.545066
0.537846
0.543105
0.532148
0.483675
0.37232
0.561351
0.97744
1.0397
0.922034
0.771189
0.677173
0.598139
0.546232
0.491052
0.414384
0.307083
0.544912
0.966023
1.05174
0.978637
0.762308
0.537591
0.424193
0.342587
0.278427
0.223951
0.173309
0.403582
0.654091
0.636231
0.507935
0.383489
0.300341
0.247098
0.208407
0.175922
0.145739
0.116503
0.250092
0.200914
0.18801
0.184717
0.185869
0.185599
0.179023
0.164068
0.141988
0.115997
0.0898712
0.22631
0.213041
0.100159
0.0466462
0.0248728
0.0164915
0.0132349
0.011766
0.0109484
0.0103668
0.00984955
0.273827
0.321548
0.0959969
0.0541715
0.0279881
0.017829
0.0134949
0.0115314
0.0104779
0.00978159
0.00923029
0.318566
0.371189
0.0972746
0.0629164
0.0300806
0.0192342
0.0139583
0.0115463
0.0102337
0.00938904
0.00872349
0.358032
0.349159
0.100788
0.066931
0.0305668
0.0203076
0.0143525
0.0116432
0.0101121
0.00914168
0.00838648
0.388615
0.317522
0.102027
0.065886
0.0305229
0.021015
0.0145536
0.0117273
0.0100535
0.00900175
0.0082026
0.410107
0.297102
0.101892
0.0631483
0.0304774
0.0213226
0.0145825
0.0117869
0.0100094
0.00891868
0.0081068
0.422894
0.287852
0.101548
0.0605431
0.0305407
0.0213389
0.0145476
0.0118187
0.00995937
0.00885948
0.00802766
0.427558
0.285438
0.10134
0.0584908
0.0307214
0.0211859
0.0145249
0.0118064
0.00991015
0.00881564
0.0079917
0.425378
0.287318
0.102634
0.0574522
0.0310477
0.0210156
0.01455
0.011761
0.00987833
0.00877663
0.00795166
0.417471
0.292294
0.107778
0.0584774
0.0318687
0.0210258
0.0146553
0.0117297
0.00986669
0.0087414
0.00791391
0.404071
0.300672
0.116204
0.0610674
0.0333374
0.0214095
0.0149457
0.0117754
0.00988856
0.00871811
0.00788851
0.38582
0.312178
0.126397
0.0649175
0.0353703
0.0221423
0.0153943
0.011907
0.00995762
0.0087282
0.0078824
0.364194
0.326123
0.13944
0.0705626
0.0382699
0.0233896
0.0160651
0.012173
0.0100852
0.00877315
0.00789337
0.340023
0.342191
0.157151
0.0791153
0.0426253
0.0254367
0.0170975
0.0126492
0.0103084
0.00887075
0.00793083
0.31375
0.361603
0.178447
0.0905238
0.0486162
0.028452
0.0186269
0.0134129
0.0106763
0.00904644
0.00800962
0.286828
0.38431
0.204894
0.106056
0.0570821
0.0329173
0.0209516
0.0146247
0.0112844
0.00935139
0.00815672
0.260545
0.409165
0.238938
0.128157
0.0696771
0.0398055
0.024646
0.016604
0.0123153
0.00988604
0.00842728
0.236338
0.438306
0.281968
0.159001
0.0883376
0.0505038
0.0306256
0.0199146
0.0141089
0.0108477
0.00893397
0.216934
0.472082
0.336996
0.202856
0.116782
0.0677208
0.0407274
0.0257432
0.0174049
0.0126816
0.00993712
0.205623
0.509732
0.407015
0.266121
0.161629
0.0967608
0.0587853
0.0367182
0.0239339
0.0164881
0.0121122
0.203727
0.545932
0.49105
0.356875
0.234344
0.148259
0.0932364
0.0590517
0.0380695
0.0252407
0.017413
0.209976
0.572628
0.578054
0.477675
0.350227
0.241869
0.162508
0.107906
0.0714622
0.0475286
0.0319492
0.20445
0.556219
0.61791
0.581043
0.489655
0.383978
0.287158
0.208334
0.148196
0.10417
0.0725407
0.239729
0.493739
0.527666
0.517282
0.477608
0.42175
0.358358
0.294667
0.235638
0.184226
0.140787
0.196666
0.202275
0.100228
0.0461818
0.0244029
0.0164856
0.0136369
0.0124452
0.0118439
0.011462
0.0111513
0.233356
0.244278
0.0846796
0.0478342
0.0272426
0.0185924
0.0150136
0.0135206
0.012833
0.0124781
0.0122527
0.26737
0.268679
0.0768587
0.0514222
0.0294602
0.0208405
0.0170877
0.0155532
0.0149199
0.014619
0.0144207
0.29465
0.242794
0.0732195
0.0530073
0.0303892
0.0221849
0.0185716
0.01737
0.017187
0.0174508
0.0178998
0.313908
0.206029
0.0705007
0.0518804
0.0304252
0.0230441
0.0196473
0.01871
0.0188719
0.0196013
0.0206293
0.32726
0.176546
0.0676714
0.0494231
0.0301569
0.0236031
0.0204091
0.0196875
0.0201394
0.0213474
0.0231428
0.337083
0.155416
0.0648333
0.0468418
0.0298362
0.0239721
0.0209152
0.020346
0.0209403
0.0223859
0.0245382
0.343586
0.139881
0.0620408
0.0445507
0.0295021
0.0241625
0.0212323
0.0207414
0.0213616
0.0229046
0.0253707
0.348809
0.128202
0.0595079
0.0426467
0.0292535
0.0241874
0.0214091
0.0209049
0.0214479
0.0229083
0.0253147
0.354196
0.11951
0.057363
0.0411803
0.029142
0.0241206
0.0214654
0.0208682
0.0212481
0.0224714
0.0244955
0.360908
0.113599
0.0557489
0.0401495
0.029141
0.0240452
0.0214306
0.0206763
0.0208343
0.0217359
0.0232777
0.367998
0.10948
0.0544927
0.0394449
0.0292317
0.0239803
0.0213416
0.0203824
0.0202893
0.0208461
0.0219223
0.373982
0.108083
0.0537972
0.0390581
0.029479
0.0239754
0.0212616
0.0200493
0.0196991
0.0199256
0.0205921
0.378733
0.109672
0.0541578
0.039019
0.0299577
0.0241322
0.021265
0.0197538
0.0191432
0.0190715
0.0194225
0.382308
0.112854
0.0552671
0.0392893
0.0306075
0.0244869
0.0213846
0.0195516
0.0186714
0.018334
0.0184436
0.384879
0.117844
0.0573377
0.0399863
0.0314423
0.0250976
0.0216815
0.0195104
0.0183412
0.0177579
0.0176713
0.386553
0.125014
0.0607559
0.0413315
0.0325358
0.0260264
0.0222383
0.0197123
0.0182243
0.0173943
0.0171254
0.387336
0.13417
0.0658292
0.0436102
0.034028
0.0273335
0.0231477
0.0202547
0.0184159
0.0173138
0.016831
0.387215
0.145306
0.0730391
0.0473066
0.0362345
0.0291485
0.0245272
0.0212585
0.0190445
0.0176289
0.0168824
0.386136
0.158637
0.0831269
0.0532397
0.0397949
0.0318121
0.0265936
0.0228924
0.0202791
0.0185092
0.017442
0.383888
0.174098
0.0970321
0.062685
0.0458931
0.0361443
0.0298655
0.0254921
0.0223694
0.0201781
0.0187398
0.379877
0.191531
0.115838
0.0775328
0.0565816
0.0439032
0.0356339
0.0299215
0.0258557
0.0229635
0.0209785
0.372649
0.214388
0.143379
0.101893
0.0762032
0.0593088
0.0476362
0.0392662
0.0331317
0.0286115
0.0259699
0.28832
0.271407
0.212804
0.177932
0.157771
0.145544
0.137549
0.131242
0.125107
0.118411
0.109858
0.0598168
0.0288618
0.0170992
0.0164621
0.0197838
0.0372566
0.0707436
0.0912712
0.104686
0.0742969
0.0499264
0.0311654
0.025741
0.0385931
0.0725238
0.0984069
0.126172
0.151196
0.0923994
0.0645346
0.0412471
0.0338514
0.052701
0.0951634
0.123134
0.144559
0.157328
0.0982794
0.0738374
0.049176
0.0416853
0.0650107
0.105004
0.12678
0.139541
0.146661
0.0823686
0.0956497
0.103515
0.107996
0.108824
0.110754
0.115586
0.116977
0.114202
0.0988029
0.120676
0.139377
0.152341
0.161303
0.17619
0.190548
0.181205
0.170435
0.114886
0.129267
0.14058
0.151607
0.158608
0.170569
0.186056
0.176631
0.167299
0.112946
0.120537
0.127265
0.133635
0.134315
0.139787
0.156442
0.151185
0.150511
0.00442762
0.00460172
0.00461726
0.0061155
0.0413768
0.00438316
0.0112966
0.00454942
0.00437511
0.0042502
0.0409217
0.00455921
0.00374711
0.00344125
0.00448405
0.00430349
0.00323168
0.00589735
0.00429302
0.00424967
0.00411168
0.00473154
0.00466549
0.012913
0.00449221
0.00343844
0.00379436
0.0108562
0.0583612
0.0440716
0.00328827
0.00410099
0.00342564
0.00453669
0.00427033
0.00459235
0.0121522
0.0044873
0.00339911
0.0043893
0.00564178
0.00454591
0.00315077
0.00465851
0.0610818
0.0120105
0.00271184
0.0194744
0.00429402
0.00433811
0.04223
0.00439552
0.0195594
0.00310707
0.00433054
0.00411878
0.00467628
0.00440136
0.0594159
0.00598188
0.00512793
0.0168776
0.0504122
0.0185562
0.00729749
0.00426167
0.0524817
0.00435203
0.004602
0.00424216
0.00326302
0.00430217
0.00638376
0.00454537
0.00691965
0.00426957
0.00407991
0.00459814
0.0107021
0.0731113
0.0452266
0.0147568
0.00449565
0.00462626
0.00437598
0.00638024
0.081142
0.0133027
0.00345696
0.0151667
0.00454248
0.00441263
0.00644675
0.00438098
0.0721161
0.0338253
0.00632111
0.00398484
0.00377866
0.00436377
0.00465359
0.0177052
0.00416876
0.00401853
0.00337802
0.00455254
0.00305655
0.00464662
0.00370615
0.00414995
0.00451009
0.00456085
0.00430359
0.00706837
0.00440451
0.00442324
0.00437585
0.00431689
0.00450262
0.00413968
0.00694305
0.00448528
0.00496861
0.00320606
0.0107775
0.0041674
0.033621
0.00305092
0.00318317
0.00331725
0.00445324
0.00575596
0.0180917
0.00427472
0.00461412
0.00457107
0.00370361
0.00870279
0.0438956
0.00446773
0.00341885
0.00411177
0.0258612
0.00402439
0.00436809
0.00340104
0.00444766
0.00433856
0.00430747
0.00425324
0.00429029
0.00441934
0.00374754
0.00446824
0.00756221
0.00271676
0.00560883
0.00376949
0.00317831
0.00436065
0.00362798
0.00465891
0.00429347
0.00443019
0.0597855
0.00477627
0.00408967
0.00426282
0.00424662
0.00723663
0.00341611
0.00309369
0.00442449
0.0040557
0.00409111
0.00395991
0.00315612
0.00378429
0.0620551
0.00392645
0.00433317
0.00441625
0.00466006
0.0115444
0.00450615
0.0144341
0.00427358
0.0043032
0.00458976
0.0145352
0.00365326
0.0034946
0.00427418
0.00562296
0.00461018
0.00439839
0.00435221
0.00385307
0.00336036
0.00467916
0.00326971
0.00433859
0.00366172
0.00335988
0.00462777
0.0136261
0.00437087
0.00318072
0.00434537
0.00433911
0.0184664
0.00439443
0.00401216
0.00422524
0.00449201
0.0102656
0.00451048
0.00301785
0.00429442
0.00321581
0.00339301
0.00654013
0.00602529
0.0045569
0.0031733
0.00440637
0.00872585
0.004655
0.0034999
0.0344059
0.0039916
0.00425819
0.00428551
0.00447952
0.0036825
0.0710454
0.0579331
0.00464673
0.00456363
0.0045519
0.00298375
0.0340509
0.0040094
0.00541028
0.00460597
0.00514862
0.00451854
0.00345522
0.0283941
0.0569737
0.00344371
0.0187069
0.00520112
0.00430293
0.00394841
0.0043591
0.00413882
0.00447303
0.00320773
0.00426767
0.00338846
0.00454183
0.00432668
0.00457568
0.00450777
0.00280847
0.00411104
0.004794
0.0055856
0.00371295
0.0200321
0.00432182
0.00433208
0.002721
0.00439038
0.00432846
0.00325766
0.00444809
0.0042787
0.00361794
0.00433706
0.00459865
0.0462162
0.0523389
0.00394957
0.00439659
0.081833
0.00459043
0.0042483
0.00358413
0.00461717
0.0114155
0.00423934
0.00318285
0.00467888
0.00435025
0.00423619
0.00456665
0.00426568
0.00328929
0.00444878
0.00520104
0.00437671
0.0443801
0.00415066
0.00415183
0.00459924
0.00881954
0.00444111
0.00434938
0.00720742
0.00456454
0.00408916
0.00342008
0.0044828
0.00410818
0.00371451
0.00401809
0.00412928
0.0044621
0.00426588
0.0277098
0.00435631
0.00336858
0.00802563
0.00419251
0.00445227
0.00371915
0.0042418
0.0237244
0.00446105
0.0508921
0.00394117
0.00464932
0.00358425
0.0441545
0.00582582
0.00458767
0.00447442
0.00397187
0.00401668
0.017584
0.0043345
0.00464263
0.0178539
0.00910666
0.00385691
0.00437748
0.0104246
0.0420675
0.00861485
0.00391045
0.00373072
0.00416911
0.00391984
0.00468915
0.00340063
0.00399757
0.00465972
0.0345135
0.00385339
0.00347551
0.00451793
0.0045121
0.0043106
0.00370452
0.00307821
0.0029322
0.0108016
0.00454634
0.0044412
0.011736
0.0357931
0.00328573
0.00392612
0.00460933
0.00391171
0.00425231
0.00437882
0.00426042
0.0389575
0.00438563
0.00325529
0.0044134
0.00349159
0.06667
0.00598613
0.0031619
0.0317151
0.00371716
0.00442987
0.00543394
0.0030931
0.00457739
0.0645447
0.00724582
0.00447934
0.00429238
0.00461959
0.00274967
0.0031855
0.00441005
0.00466147
0.00373366
0.00336686
0.00621512
0.00857972
0.00541307
0.00433685
0.0270992
0.00428593
0.00427893
0.00349702
0.00345646
0.00450673
0.00407278
0.00368006
0.00466909
0.00316122
0.00508095
0.0265113
0.00322165
0.012769
0.00351824
0.00398032
0.00413841
0.00451223
0.00476538
0.00439344
0.00856863
0.00448645
0.00325669
0.00345575
0.00410442
0.00428113
0.00332724
0.0171484
0.0401423
0.00321539
0.00468837
0.00395339
0.0806778
0.00524429
0.00582448
0.00422245
0.00318831
0.00857219
0.00342304
0.00434648
0.00421883
0.00444264
0.00461345
0.00449954
0.00451041
0.00445698
0.0113964
0.00341898
0.00327629
0.00483551
0.00459147
0.00434266
0.0360187
0.0032442
0.00393979
0.00430645
0.00795571
0.00741039
0.00545505
0.00546768
0.00443943
0.00393108
0.00417586
0.00422787
0.00505824
0.00425118
0.00458769
0.00432836
0.00557892
0.00378422
0.00427783
0.00444964
0.00412664
0.0317969
0.00418251
0.00464684
0.00339091
0.0377143
0.00404737
0.00321296
0.00434148
0.00333494
0.00439666
0.00426324
0.00440134
0.00323903
0.00324516
0.00426482
0.00341144
0.00399956
0.00470706
0.00374783
0.00370948
0.0045414
0.0045348
0.0353694
0.00337365
0.00609622
0.00447659
0.0162669
0.00461923
0.0277175
0.00431906
0.00374097
0.00432403
0.00469126
0.0553411
0.00266686
0.00340275
0.00445282
0.00359154
0.00411927
0.00459683
0.00442669
0.00457439
0.00417799
0.0367543
0.00452127
0.00435447
0.00945406
0.00444007
0.00905963
0.00433358
0.00707202
0.00328623
0.00349987
0.00467865
0.00447601
0.00463346
0.00569163
0.0038514
0.00450257
0.00448815
0.00319926
0.0046148
0.00489571
0.00460482
0.0360398
0.00423363
0.00405378
0.0033441
0.0033503
0.0135981
0.030307
0.0041606
0.00410636
0.00429807
0.00460709
0.00334105
0.00334826
0.0042366
0.00336898
0.0315597
0.0369406
0.00449105
0.00433759
0.00459593
0.00828988
0.0660275
0.00420085
0.00454393
0.00437005
0.0529266
0.00431927
0.00325205
0.00320968
0.00620157
0.0307277
0.00443039
0.00447096
0.00446299
0.00267683
0.00433873
0.0071375
0.00318329
0.00409238
0.0047235
0.00592015
0.00463609
0.00467327
0.0716279
0.00440634
0.00352787
0.0147293
0.00266733
0.00777657
0.00398237
0.00363311
0.00421233
0.00443922
0.0044952
0.0294266
0.00281953
0.00394867
0.00425212
0.00450024
0.00717816
0.00425989
0.00445095
0.00423383
0.00428331
0.00329771
0.002716
0.00263958
0.00566688
0.00401219
0.00525799
0.00429562
0.00730756
0.00425848
0.00445814
0.029118
0.0263492
0.00438274
0.00438912
0.00369243
0.00415948
0.00433687
0.00564934
0.00460569
0.00416274
0.00331278
0.00324663
0.00381337
0.00329579
0.00319245
0.00594445
0.0164307
0.00488049
0.00499695
0.00353473
0.00388668
0.005981
0.00346759
0.0046212
0.00416888
0.00789251
0.00393371
0.00422094
0.00425037
0.00346145
0.00330382
0.0278461
0.0036041
0.00538407
0.00442419
0.00524813
0.00455008
0.00430008
0.00427076
0.00343018
0.00424131
0.00455192
0.00420216
0.00459411
0.0194448
0.00610734
0.0326888
0.00426158
0.00425888
0.00399039
0.00546999
0.0044255
0.0166719
0.00429006
0.00899927
0.0182492
0.00442927
0.00343014
0.00465972
0.00342569
0.0227326
0.00328752
0.0246419
0.00363556
0.00426944
0.00463645
0.00371757
0.00325763
0.00442358
0.0375259
0.00436929
0.00407568
0.0046327
0.00373626
0.00420909
0.00323606
0.00455638
0.00440069
0.00440422
0.00381145
0.00261648
0.00456253
0.00332585
0.00437446
0.00451363
0.00318832
0.00407615
0.0163252
0.00531494
0.0032678
0.00409037
0.00369957
0.00363125
0.00565961
0.00342117
0.0118109
0.00446906
0.00345243
0.00449363
0.00443381
0.00667396
0.00436907
0.00337139
0.00343922
0.00431752
0.00416041
0.00413205
0.00299422
0.00458611
0.0345264
0.00353748
0.0349285
0.00412832
0.00397123
0.0050037
0.00741161
0.00446481
0.0035001
0.0039148
0.00370734
0.00452886
0.00347729
0.0314623
0.00454876
0.009217
0.00351788
0.00461205
0.00813526
0.00437811
0.00427233
0.00422202
0.00338558
0.00435056
0.00327497
0.00457085
0.00342813
0.00429223
0.00323703
0.00333694
0.0215195
0.00361112
0.0042917
0.0155354
0.0121257
0.00446147
0.00333662
0.00384716
0.00302397
0.00519617
0.0038189
0.00425692
0.0042565
0.00334007
0.00499608
0.00429154
0.00436839
0.00441365
0.00446269
0.00374898
0.00469035
0.00449125
0.00453217
0.0381407
0.0298723
0.00362287
0.0045783
0.00344507
0.00427815
0.00455715
0.0045801
0.00462427
0.00448349
0.00458668
0.00316335
0.00527475
0.0100406
0.00307485
0.00420372
0.00442704
0.00450209
0.00375886
0.0278851
0.00459526
0.00405822
0.00355547
0.0160614
0.0165733
0.00465482
0.00391633
0.00428453
0.00443034
0.00446492
0.0103221
0.00421958
0.00456837
0.00426715
0.00550184
0.00399102
0.0038961
0.0045557
0.00409437
0.00635379
0.00631923
0.00456714
0.00310229
0.00344529
0.00262002
0.0048017
0.00464051
0.00428552
0.00571731
0.00276878
0.00299751
0.00460122
0.00419921
0.00455538
0.00433479
0.00459188
0.00706036
0.00342431
0.0088054
0.0150871
0.00360918
0.00455005
0.0464708
0.00466948
0.00428643
0.00503428
0.00449061
0.00441807
0.0044165
0.00372135
0.0138688
0.00270082
0.00441507
0.00441957
0.00442345
0.00468813
0.00433831
0.0043859
0.00424699
0.00449702
0.00455872
0.00434363
0.064163
0.00437934
0.0042585
0.0044088
0.0190551
0.0043039
0.00450728
0.0115601
0.0619665
0.00427765
0.00450708
0.0029949
0.00503534
0.00464977
0.00453998
0.00418544
0.0040071
0.00825525
0.00459873
0.00924138
0.00317543
0.0169473
0.00336765
0.00458067
0.00345502
0.00564142
0.00444236
0.00447377
0.00450472
0.00460834
0.00396717
0.00944202
0.00426937
0.00465671
0.0381941
0.0029434
0.0039322
0.00613036
0.00466296
0.00456126
0.00314812
0.00337454
0.00346376
0.00439654
0.0248891
0.00430384
0.00335339
0.0043174
0.00320414
0.00311211
0.00375119
0.00341095
0.00419741
0.00452733
0.0541323
0.00434214
0.0324171
0.00420837
0.0031003
0.00419653
0.00421095
0.0416872
0.00438226
0.00460338
0.00350767
0.00837655
0.023528
0.00342912
0.0032132
0.0034742
0.0107517
0.0444543
0.00452025
0.00421009
0.0394807
0.00439702
0.00549283
0.00449719
0.0126573
0.00332762
0.00512755
0.00460532
0.00340361
0.00464483
0.00440565
0.00369207
0.0092418
0.00427396
0.00446125
0.0043375
0.00456304
0.00429983
0.00490769
0.00441113
0.00417979
0.00617022
0.00295822
0.0039931
0.0046106
0.00626581
0.00342408
0.00459814
0.00462938
0.00408559
0.00301871
0.0497376
0.00396519
0.00344457
0.00410183
0.00434788
0.0030466
0.00391798
0.00426273
0.00718283
0.00455394
0.0687983
0.00542396
0.0318721
0.00455285
0.00451734
0.0173723
0.0522215
0.00337087
0.00311824
0.00467576
0.0030893
0.0340805
0.00456355
0.00402608
0.00811607
0.00392874
0.0263882
0.00355965
0.00445623
0.00433146
0.00430425
0.00425153
0.00654884
0.00314028
0.00681408
0.0655877
0.00460066
0.00302975
0.00410915
0.00507334
0.012518
0.0031573
0.0043921
0.0040722
0.00330694
0.00454531
0.00466102
0.00467888
0.00645944
0.00411708
0.00460808
0.00371438
0.00404183
0.00334428
0.00452638
0.00812804
0.00405363
0.00407533
0.00386347
0.00455658
0.00430749
0.00447777
0.0145378
0.00448631
0.00946119
0.00399402
0.0037402
0.00450794
0.00417842
0.00450377
0.0043766
0.00611103
0.0116216
0.00406771
0.0558516
0.00914109
0.0455289
0.00420051
0.00429052
0.00497464
0.00462894
0.00328568
0.0131208
0.00429704
0.00487378
0.00388197
0.0330354
0.00420001
0.00315857
0.00455086
0.0603373
0.00469508
0.034826
0.00417365
0.00460721
0.00516443
0.00781447
0.00417734
0.00456166
0.0034023
0.00441825
0.015911
0.00558471
0.0252926
0.0033077
0.00725083
0.0124849
0.00407901
0.00461014
0.0036891
0.00467215
0.0034196
0.00336355
0.012162
0.0039023
0.00268311
0.0548155
0.00437475
0.00433292
0.00422446
0.00457471
0.00320146
0.00338245
0.00423454
0.00336799
0.0347855
0.00457578
0.0543867
0.00764465
0.00449316
0.00484704
0.00385843
0.00274516
0.003177
0.0159874
0.004421
0.00452658
0.0650786
0.00437433
0.00458622
0.00352349
0.00454416
0.00449749
0.0341476
0.00451355
0.0338387
0.00395056
0.00542684
0.00429122
0.00430439
0.00468903
0.00345467
0.0118297
0.00444479
0.00312702
0.00361341
0.00342363
0.00339967
0.00528022
0.00433246
0.00424157
0.0280615
0.0101423
0.00406541
0.00432298
0.00366806
0.00380338
0.00435443
0.00383971
0.0512238
0.00425639
0.00468952
0.0045055
0.00403571
0.00337759
0.0033111
0.00328772
0.0793846
0.00463545
0.00587634
0.00555687
0.0045752
0.00420256
0.0042472
0.00426917
0.0598528
0.00453325
0.0173565
0.0333128
0.00456646
0.00449545
0.00461372
0.0454551
0.0299601
0.0229219
0.00331444
0.00456674
0.00430005
0.00345492
0.0292092
0.00645616
0.00324765
0.00434152
0.00615415
0.00710167
0.0057468
0.00416317
0.00979693
0.033566
0.00404938
0.00382068
0.00430807
0.00435956
0.0442175
0.00343345
0.00359072
0.00460006
0.00468273
0.00412412
0.0499843
0.0134904
0.0030209
0.0234679
0.00712967
0.00436947
0.014668
0.0178475
0.0046221
0.00306159
0.00283129
0.00412756
0.0544984
0.00453511
0.00442506
0.00424913
0.00535248
0.00311173
0.00435516
0.00270782
0.00461504
0.00456127
0.00468819
0.00324098
0.00442883
0.00588602
0.00417633
0.00455911
0.0430001
0.00459274
0.00338777
0.0037565
0.00421267
0.00352663
0.00524359
0.00452987
0.00456648
0.00448629
0.00340143
0.00449672
0.00429147
0.00440212
0.00345091
0.00300752
0.00344949
0.00489398
0.00429906
0.0181685
0.00414489
0.00467564
0.00438047
0.00458677
0.00317447
0.00413939
0.0032985
0.00412021
0.00420855
0.00450931
0.00486945
0.0173302
0.00546821
0.0116324
0.00468828
0.00337839
0.0431295
0.00325474
0.00286153
0.00439538
0.00548861
0.0100266
0.00486343
0.00315541
0.00390067
0.00403385
0.00342794
0.00450136
0.0694103
0.00307934
0.00414807
0.00411099
0.00380727
0.00360256
0.00362113
0.0166727
0.00308655
0.055514
0.0200215
0.00448694
0.00433423
0.00900837
0.0119995
0.004011
0.00455155
0.00424735
0.00462988
0.00440443
0.00438524