/*--------------------------------*- C++ -*----------------------------------*\
| =========                 |                                                 |
| \\      /  F ield         | OpenFOAM: The Open Source CFD Toolbox           |
|  \\    /   O peration     | Version:  3.0.1                                 |
|   \\  /    A nd           | Web:      www.OpenFOAM.org                      |
|    \\/     M anipulation  |                                                 |
\*---------------------------------------------------------------------------*/
FoamFile
{
    version     2.0;
    format      ascii;
    class       volScalarField;
    location    "0.739029";
    object      nut;
}
// * * * * * * * * * * * * * * * * * * * * * * * * * * * * * * * * * * * * * //

dimensions      [0 2 -1 0 0 0 0];

internalField   nonuniform List<scalar> 
21246
(
5.86417e-05
0.000307179
0.000371209
0.0004021
0.000432376
0.00046073
0.000480602
0.000486061
0.000466703
0.00041616
0.000354597
3.73054e-05
0.000249819
0.000353981
0.000401037
0.000431944
0.000456781
0.000472852
0.000476468
0.000459246
0.00041234
0.000350446
3.13162e-05
0.000205179
0.000349253
0.000430436
0.000463334
0.000479298
0.000488322
0.000486512
0.000467248
0.00042301
0.000360408
3.08059e-05
0.000175485
0.000313108
0.000413397
0.000461848
0.000484224
0.000494699
0.000494407
0.000477773
0.000435281
0.000371137
3.17551e-05
0.000159611
0.000287899
0.000387512
0.000441973
0.000474897
0.000494535
0.000500246
0.000485664
0.00044232
0.00037505
3.28451e-05
0.000146933
0.000267247
0.000362243
0.000418199
0.000457651
0.000485745
0.00049923
0.000489597
0.000448942
0.000383791
3.40251e-05
0.000136674
0.000249518
0.000338177
0.000393844
0.000436821
0.000471397
0.000492491
0.000488989
0.000451739
0.000387444
3.53107e-05
0.000128545
0.000234658
0.000317259
0.000371483
0.000415992
0.000454956
0.000482216
0.000484705
0.00045263
0.000394602
3.64723e-05
0.00012173
0.000222033
0.00029952
0.000351973
0.000396966
0.000438842
0.000471061
0.000479374
0.000452668
0.000397928
3.73917e-05
0.000115302
0.00021074
0.000284316
0.000335222
0.000380329
0.000424272
0.000460524
0.000473952
0.000451559
0.000397923
3.8208e-05
0.000109267
0.000200486
0.000271065
0.000320766
0.000365918
0.000411485
0.000451094
0.000468751
0.0004498
0.000399954
3.88734e-05
0.000103939
0.000191365
0.000259454
0.000308188
0.000353415
0.000400393
0.000443002
0.000464463
0.000448669
0.000401276
3.92645e-05
9.88853e-05
0.000182989
0.000249175
0.000297264
0.000342688
0.000391006
0.000436471
0.000461574
0.000448569
0.000402395
3.94536e-05
9.36613e-05
0.000174823
0.000239833
0.000287723
0.00033355
0.000383235
0.000431571
0.000460276
0.000449587
0.000404651
3.93116e-05
8.86275e-05
0.000166953
0.000231176
0.00027918
0.000325596
0.000376691
0.000428011
0.000460578
0.000452157
0.000407534
3.87916e-05
8.28456e-05
0.000158213
0.000222167
0.000270809
0.000318209
0.000370733
0.000425168
0.000462219
0.000456591
0.000412415
3.79308e-05
7.52156e-05
0.00014583
0.000209089
0.000257275
0.000303222
0.000354365
0.00041026
0.000453512
0.00045583
0.000417245
3.65254e-05
6.69843e-05
0.000130847
0.000192275
0.000239091
0.000281209
0.000326357
0.000377707
0.000423785
0.000438287
0.000415476
3.45477e-05
5.83163e-05
0.000113384
0.000171229
0.000216072
0.000253251
0.000289335
0.000329837
0.000370998
0.000395348
0.000395265
3.19575e-05
4.93677e-05
9.39652e-05
0.000145789
0.000187922
0.000220372
0.000247191
0.000273872
0.000301967
0.000325124
0.00034144
2.86688e-05
4.04018e-05
7.38695e-05
0.000116926
0.000154882
0.000183367
0.000203262
0.000218274
0.000231496
0.000243096
0.000256549
2.46263e-05
3.18923e-05
5.50358e-05
8.73574e-05
0.000118801
0.000143346
0.000159217
0.000167795
0.000171427
0.00017196
0.000172911
1.97014e-05
2.36901e-05
3.827e-05
5.98543e-05
8.27981e-05
0.000102228
0.000115479
0.000122117
0.000123035
0.000119638
0.000114111
1.3901e-05
2.21104e-05
3.20922e-05
4.41308e-05
5.67059e-05
6.7851e-05
7.61741e-05
8.09645e-05
8.20684e-05
7.97856e-05
7.4955e-05
5.52908e-05
0.0002935
0.000329852
0.000427413
0.000474766
0.000502747
0.000519793
0.000524627
0.000498305
0.000438693
0.000369897
4.11836e-05
0.000182906
0.000205381
0.000265092
0.000368836
0.0004969
0.000544671
0.000561067
0.000538216
0.000474294
0.000393533
3.83671e-05
0.000133497
0.000173892
0.000218286
0.000297348
0.000459163
0.000566211
0.000598899
0.000581806
0.00051861
0.000430063
3.81893e-05
0.000114527
0.00015824
0.000196929
0.00026716
0.000424127
0.000582879
0.000638516
0.000630473
0.000572053
0.000480972
3.79969e-05
0.000111813
0.000150525
0.000184581
0.000250412
0.000406204
0.000593596
0.000674361
0.000679284
0.0006256
0.000526621
3.74018e-05
0.000117698
0.000148291
0.000177055
0.000238597
0.000391243
0.000597074
0.000702561
0.000723795
0.000677197
0.000573794
3.70869e-05
0.000126986
0.000149903
0.000172723
0.000229068
0.000375254
0.000585042
0.000721267
0.000760793
0.000720624
0.000605761
3.74817e-05
0.000138724
0.000154745
0.000171065
0.000221628
0.000359407
0.000564733
0.000722991
0.000788605
0.000756011
0.00062866
3.83509e-05
0.000151771
0.00016211
0.000171446
0.0002156
0.000343327
0.000538773
0.000705866
0.000790086
0.000775903
0.000645961
3.94118e-05
0.000165106
0.00017139
0.000173461
0.000210514
0.000326668
0.000508493
0.000674886
0.000767246
0.000760263
0.000636539
4.024e-05
0.000176712
0.000181923
0.000176793
0.00020579
0.000308571
0.000473748
0.000632928
0.000725864
0.000718833
0.000604111
4.08221e-05
0.000187241
0.000193443
0.000181445
0.000201913
0.000290531
0.000437274
0.000584516
0.000672763
0.000662478
0.000554456
4.10957e-05
0.000197159
0.000205382
0.000187318
0.000198923
0.000272729
0.000399808
0.000531986
0.000612562
0.000599605
0.000497412
4.08015e-05
0.000203883
0.000216722
0.000194405
0.000196843
0.000255212
0.000361812
0.000476853
0.000548448
0.000535277
0.000440887
3.99691e-05
0.000208218
0.000227017
0.00020261
0.000196219
0.000239213
0.000325261
0.000421908
0.000483733
0.000472615
0.00038982
3.86514e-05
0.000209984
0.000235576
0.000211585
0.000197206
0.000225243
0.000291169
0.000368863
0.000420422
0.000412869
0.000344415
3.67274e-05
0.000207997
0.000241407
0.000220738
0.000199951
0.00021396
0.000260659
0.000319467
0.000360163
0.000356248
0.000303457
3.41568e-05
0.000202491
0.000243575
0.000229051
0.000204431
0.000206195
0.000235318
0.000275867
0.000304978
0.000303091
0.000264916
3.09581e-05
0.000193056
0.000241101
0.000234993
0.000210179
0.000202634
0.00021656
0.000240133
0.000257077
0.000254494
0.000227506
2.75046e-05
0.000183448
0.000234186
0.000237461
0.000216825
0.000204234
0.000206129
0.000214575
0.000219194
0.000212816
0.000192232
2.38479e-05
0.000161195
0.000219092
0.000232968
0.000221819
0.000209996
0.000203898
0.000199798
0.000192872
0.000180585
0.000161254
2.13843e-05
0.000138817
0.000190603
0.000210892
0.000207397
0.000197939
0.000188352
0.000177686
0.000162055
0.000141058
0.000116432
1.46338e-05
9.91254e-05
0.000119549
0.000109126
9.65164e-05
8.43984e-05
7.30838e-05
6.21844e-05
5.27871e-05
4.51595e-05
3.87139e-05
9.77616e-06
1.10831e-05
1.17274e-05
1.30198e-05
1.4937e-05
1.72908e-05
1.98626e-05
2.23652e-05
2.44955e-05
2.59776e-05
2.66038e-05
3.57102e-05
0.000126177
0.00012426
0.000134253
0.000126396
0.000105671
8.26367e-05
6.75516e-05
5.79348e-05
5.06561e-05
4.43361e-05
2.97502e-05
0.000103245
8.93246e-05
0.00012169
0.000133394
0.000113171
8.51517e-05
6.63089e-05
5.49788e-05
4.67883e-05
3.97864e-05
2.90674e-05
8.3888e-05
8.11656e-05
9.6397e-05
0.000124071
0.000121126
9.05585e-05
6.74466e-05
5.39961e-05
4.48894e-05
3.76214e-05
3.01725e-05
7.27422e-05
7.79589e-05
8.72336e-05
0.000110583
0.000126969
9.72439e-05
7.02147e-05
5.44997e-05
4.44393e-05
3.68959e-05
3.13e-05
6.7965e-05
7.59062e-05
8.20605e-05
0.000101806
0.000127357
0.000104234
7.41274e-05
5.61367e-05
4.50976e-05
3.73697e-05
3.17759e-05
6.64752e-05
7.44517e-05
7.81855e-05
9.37252e-05
0.000120141
0.00011025
7.89543e-05
5.86647e-05
4.65614e-05
3.84937e-05
3.17296e-05
6.70892e-05
7.3849e-05
7.55185e-05
8.65681e-05
0.000108896
0.000111001
8.4709e-05
6.19454e-05
4.86465e-05
4.00703e-05
3.1315e-05
6.95865e-05
7.4466e-05
7.42145e-05
8.1203e-05
9.81073e-05
0.000106498
8.93557e-05
6.63412e-05
5.14186e-05
4.20964e-05
3.0502e-05
7.31364e-05
7.63603e-05
7.4077e-05
7.73486e-05
8.8953e-05
9.88113e-05
9.10932e-05
7.10524e-05
5.48785e-05
4.46458e-05
2.93445e-05
7.72084e-05
7.95084e-05
7.49971e-05
7.4648e-05
8.12932e-05
8.96075e-05
8.88394e-05
7.50542e-05
5.88991e-05
4.76617e-05
2.80631e-05
8.21252e-05
8.41621e-05
7.72317e-05
7.33635e-05
7.56445e-05
8.1031e-05
8.33499e-05
7.68582e-05
6.3117e-05
5.11555e-05
2.68424e-05
8.85693e-05
9.07238e-05
8.10623e-05
7.36984e-05
7.22016e-05
7.44479e-05
7.68258e-05
7.56591e-05
6.66892e-05
5.5066e-05
2.58456e-05
9.62723e-05
9.94023e-05
8.67485e-05
7.56439e-05
7.05787e-05
6.97838e-05
7.06922e-05
7.1846e-05
6.84061e-05
5.90567e-05
2.52062e-05
0.00010462
0.000110293
9.47364e-05
7.94497e-05
7.06546e-05
6.68466e-05
6.5661e-05
6.66715e-05
6.7294e-05
6.2255e-05
2.4996e-05
0.000114845
0.000123963
0.000105597
8.55534e-05
7.26635e-05
6.57821e-05
6.23109e-05
6.17844e-05
6.36955e-05
6.33743e-05
2.51996e-05
0.000126723
0.000140594
0.000120117
9.4658e-05
7.6947e-05
6.66297e-05
6.07084e-05
5.80945e-05
5.90341e-05
6.14892e-05
2.55011e-05
0.000138396
0.000159531
0.000139145
0.000107971
8.43429e-05
6.97937e-05
6.10201e-05
5.60587e-05
5.48518e-05
5.72014e-05
2.51692e-05
0.000148985
0.000179501
0.000162971
0.000126936
9.62277e-05
7.62368e-05
6.38402e-05
5.61734e-05
5.235e-05
5.25319e-05
2.40532e-05
0.000156334
0.000197801
0.000190245
0.000152885
0.000114753
8.7792e-05
7.04575e-05
5.92936e-05
5.24555e-05
4.95618e-05
2.21175e-05
0.000158209
0.000210802
0.000216835
0.000185514
0.000142648
0.000107772
8.36632e-05
6.7464e-05
5.66845e-05
5.01315e-05
1.94019e-05
0.000150893
0.000215024
0.000237277
0.000221443
0.000182105
0.000141419
0.000109055
8.54573e-05
6.87411e-05
5.72357e-05
1.68908e-05
0.000137687
0.000209387
0.000247274
0.000251297
0.000227907
0.000191055
0.000153647
0.000121773
9.682e-05
7.79878e-05
1.28236e-05
0.0001064
0.000153974
0.000195328
0.000218212
0.000226211
0.000218303
0.000197618
0.000170957
0.000144425
0.000120366
1.02303e-05
4.02271e-05
5.65276e-05
7.87234e-05
0.000102593
0.000126942
0.000148448
0.000160605
0.00016314
0.000158381
0.000148053
2.99814e-05
0.000116213
0.000122391
0.00012573
0.000122013
0.000105156
8.59127e-05
7.24296e-05
6.3361e-05
5.62562e-05
4.9831e-05
2.00922e-05
9.63102e-05
0.000123765
0.000135611
0.000132739
0.000117131
9.73663e-05
8.26324e-05
7.29528e-05
6.5751e-05
5.94594e-05
2.00861e-05
8.46556e-05
0.000120816
0.000154362
0.000153914
0.000137268
0.000114119
9.59264e-05
8.46566e-05
7.71045e-05
7.10967e-05
2.22705e-05
7.79823e-05
0.00011624
0.000164835
0.000174347
0.000162382
0.000138207
0.000115157
9.96609e-05
8.98551e-05
8.28924e-05
2.50622e-05
7.24073e-05
0.0001146
0.000167158
0.000180214
0.000172392
0.000150522
0.000128494
0.000113166
0.000103382
9.64549e-05
2.77669e-05
6.82188e-05
0.000113577
0.0001657
0.000181706
0.000178668
0.000159707
0.000139115
0.000124715
0.00011609
0.000110813
3.02608e-05
6.51816e-05
0.000112574
0.000162958
0.000181279
0.000182461
0.000166454
0.000147821
0.000134572
0.000126999
0.000122953
3.25912e-05
6.29946e-05
0.000111547
0.000160167
0.00018052
0.000185166
0.000171739
0.000154897
0.000142598
0.000135745
0.000132274
3.45916e-05
6.13607e-05
0.00011049
0.000157788
0.000180219
0.000187493
0.000176456
0.000161172
0.000149757
0.00014386
0.000141954
3.62444e-05
5.99851e-05
0.000109512
0.000155893
0.000180566
0.000189908
0.000181056
0.000166996
0.000156214
0.000151009
0.000149974
3.7534e-05
5.86601e-05
0.000108391
0.000154532
0.000181345
0.000192695
0.000185822
0.000172619
0.000162104
0.000157192
0.00015643
3.8555e-05
5.73354e-05
0.000107108
0.000153488
0.000182382
0.000195853
0.000190874
0.000178246
0.000167631
0.00016272
0.000162398
3.92367e-05
5.58618e-05
0.000105547
0.000152528
0.000183554
0.000199385
0.000196365
0.000184113
0.000172999
0.000167713
0.000167764
3.94968e-05
5.28538e-05
0.000101674
0.00014963
0.000183157
0.000202094
0.000201953
0.000190446
0.000178509
0.000172299
0.000171959
3.92609e-05
4.92928e-05
9.51783e-05
0.000143116
0.000178254
0.0002001
0.00020431
0.000195845
0.00018428
0.000177118
0.000175779
3.84962e-05
4.53508e-05
8.62278e-05
0.000132775
0.000168734
0.000192771
0.000201858
0.000198589
0.000189591
0.000182281
0.000179736
3.71963e-05
4.11692e-05
7.53542e-05
0.000118537
0.000154391
0.000179745
0.000193116
0.000196004
0.000192183
0.000186927
0.000184031
3.52709e-05
3.70358e-05
6.37519e-05
0.000101288
0.000135523
0.000161217
0.000177462
0.000185588
0.000188124
0.000187837
0.000187238
3.26735e-05
3.29965e-05
5.24649e-05
8.25399e-05
0.00011302
0.000137721
0.000155214
0.000166471
0.00017382
0.000179265
0.000183905
2.93648e-05
2.8952e-05
4.20915e-05
6.40093e-05
8.85715e-05
0.000110436
0.000127461
0.000139762
0.000149069
0.000157418
0.000166208
2.53037e-05
2.47255e-05
3.29125e-05
4.72382e-05
6.46502e-05
8.17151e-05
9.63475e-05
0.000107924
0.000117097
0.000125224
0.00013376
2.04924e-05
2.01181e-05
2.48233e-05
3.30681e-05
4.35922e-05
5.47659e-05
6.52852e-05
7.4427e-05
8.21104e-05
8.87639e-05
9.51272e-05
1.49583e-05
1.45953e-05
1.69736e-05
2.09418e-05
2.60688e-05
3.18012e-05
3.76162e-05
4.31381e-05
4.81691e-05
5.26902e-05
5.68634e-05
9.03243e-06
9.55363e-06
1.1563e-05
1.40718e-05
1.69709e-05
2.00858e-05
2.33834e-05
2.82012e-05
3.47875e-05
4.33727e-05
5.39433e-05
2.86979e-05
0.000142899
0.000231646
0.000313918
0.000354008
0.000353774
0.000359809
0.000419256
0.000521364
0.00062118
0.000650968
2.0895e-05
8.76518e-05
0.000161647
0.000238853
0.000294388
0.000313387
0.000323442
0.000383413
0.000479051
0.000558323
0.000572744
1.6673e-05
6.6584e-05
0.000126634
0.000192449
0.000248462
0.000278402
0.000292835
0.000331976
0.000422864
0.000504273
0.000504492
1.40903e-05
6.20751e-05
0.000110012
0.000165216
0.000216865
0.000251163
0.000270559
0.000298332
0.000363255
0.000446293
0.000456809
1.32345e-05
6.24352e-05
0.000103715
0.000150335
0.000196242
0.000231032
0.0002539
0.000277509
0.000322788
0.000390066
0.000413426
1.34028e-05
6.2162e-05
0.000100327
0.000142305
0.000183125
0.00021675
0.000241599
0.000264292
0.000298788
0.000349865
0.000376217
1.34063e-05
6.17474e-05
9.8777e-05
0.000137049
0.000175205
0.000207445
0.000233538
0.00025696
0.000286696
0.000326609
0.000349967
1.34529e-05
6.10008e-05
9.84024e-05
0.000134449
0.000171585
0.000203153
0.000230598
0.000255863
0.000284101
0.000316479
0.000334139
1.34328e-05
5.982e-05
9.90946e-05
0.000135236
0.000172441
0.000204568
0.000233996
0.000261472
0.000288725
0.000314505
0.000325989
1.33202e-05
5.85179e-05
0.000100981
0.000139498
0.00017778
0.000211815
0.000243572
0.000272189
0.000296746
0.000315686
0.000322088
1.32136e-05
5.74698e-05
0.000103886
0.000145548
0.000186122
0.000222899
0.000256238
0.000283789
0.000303875
0.000316835
0.000320126
1.31589e-05
5.672e-05
0.00010652
0.000151436
0.000194814
0.000233876
0.000267342
0.000292346
0.000308231
0.000317622
0.000320406
1.30633e-05
5.59756e-05
0.000108205
0.000155693
0.00020128
0.000241627
0.000274459
0.000297322
0.000310846
0.000318967
0.000322641
1.28976e-05
5.49238e-05
0.000108605
0.000157867
0.000204928
0.000246042
0.000278589
0.000300659
0.000313513
0.000321588
0.000326454
1.26249e-05
5.42913e-05
0.000108712
0.00015902
0.000207087
0.00024896
0.000281947
0.000304374
0.000317486
0.000325831
0.000331687
1.22305e-05
5.37054e-05
0.000108391
0.000159354
0.00020833
0.000251279
0.000285437
0.000309011
0.000322775
0.000331067
0.00033699
1.17142e-05
5.25209e-05
0.00010691
0.000158284
0.000208288
0.000252822
0.000288891
0.000314226
0.000328759
0.000336393
0.000341423
1.10131e-05
5.08675e-05
0.000104286
0.000155639
0.000206743
0.000253365
0.000292011
0.000319553
0.000334723
0.000340824
0.000343538
1.01187e-05
4.85195e-05
0.000100207
0.000151123
0.000203433
0.000252471
0.000293979
0.000323729
0.00033903
0.000342321
0.000340342
9.02154e-06
4.54224e-05
9.47616e-05
0.00014494
0.000197572
0.000247076
0.000289973
0.000321656
0.000337256
0.0003376
0.000329908
7.65527e-06
4.18985e-05
9.17401e-05
0.000136721
0.000175767
0.000206682
0.000248731
0.000290553
0.000313845
0.00031784
0.000308342
7.47899e-06
4.68162e-05
6.53596e-05
6.39087e-05
8.32411e-05
0.000109631
0.000139881
0.000180211
0.000229912
0.000259162
0.00026474
5.77901e-06
1.68109e-05
3.22626e-05
5.74612e-05
8.95455e-05
0.000121049
0.000141829
0.000145946
0.0001458
0.000163328
0.000186874
9.31231e-06
2.51043e-05
5.52945e-05
9.97213e-05
0.000150004
0.000194152
0.000220102
0.000219846
0.000190531
0.000152359
0.000138795
2.7038e-05
0.000206067
0.000322059
0.000381593
0.000389668
0.000370109
0.000371431
0.00043917
0.000564529
0.000691219
0.000732426
1.56146e-05
0.000139329
0.000276329
0.000367516
0.000404357
0.00039589
0.000386968
0.00044875
0.000596239
0.000765633
0.000848544
1.19886e-05
8.10126e-05
0.000206537
0.000322586
0.000397844
0.000416043
0.000398572
0.000437585
0.000598569
0.000821383
0.000975604
1.26569e-05
5.8253e-05
0.000155748
0.000275721
0.000376589
0.000426943
0.000409635
0.000399018
0.000546503
0.00081392
0.00105483
1.44816e-05
6.181e-05
0.000147362
0.000253766
0.000360827
0.000438157
0.0004474
0.000376896
0.000387201
0.000631515
0.000994702
1.64436e-05
7.05587e-05
0.000157135
0.00025762
0.000362233
0.000452079
0.000491844
0.000445098
0.00036134
0.000442243
0.000801135
1.84104e-05
8.14185e-05
0.000172718
0.000270899
0.000371514
0.000466196
0.000528302
0.000513135
0.000416527
0.000360896
0.000583983
2.03878e-05
9.30562e-05
0.000190376
0.000287361
0.000382451
0.000475466
0.000551214
0.000568665
0.0004876
0.000375699
0.00041886
2.22258e-05
0.000105479
0.000209218
0.000305108
0.000393225
0.000478389
0.000557356
0.000601394
0.000549284
0.000424309
0.000361195
2.38704e-05
0.000118458
0.000228077
0.000322569
0.000403092
0.000476188
0.000548732
0.000607664
0.000590635
0.000476609
0.000364257
2.52863e-05
0.000130564
0.00024547
0.000338644
0.000411612
0.00047103
0.000530894
0.000594718
0.000610177
0.000519224
0.000386728
2.65564e-05
0.00014137
0.000262231
0.00035227
0.00041778
0.000464375
0.000509681
0.000569771
0.000611721
0.000547597
0.000412188
2.76216e-05
0.000151072
0.000275535
0.000363003
0.000421111
0.000456895
0.00048885
0.000535262
0.000588437
0.000562959
0.000432291
2.84132e-05
0.000160171
0.00028731
0.00037145
0.000421818
0.000447517
0.000468434
0.000501748
0.000542381
0.000547313
0.000448565
2.88551e-05
0.000168265
0.000297551
0.0003781
0.000420634
0.000436396
0.00044638
0.000467109
0.000494463
0.000506189
0.000457657
2.89458e-05
0.000175854
0.000307225
0.00038419
0.000418917
0.000424879
0.000423918
0.000432801
0.000449307
0.000462413
0.000445122
2.86653e-05
0.000183165
0.00031722
0.000391309
0.000418737
0.000415368
0.000403482
0.000400545
0.000407646
0.000417221
0.000411302
2.79209e-05
0.000190369
0.000328806
0.000402062
0.000423737
0.000412114
0.000389264
0.000375546
0.000374642
0.000377552
0.000374341
2.66292e-05
0.000198047
0.000343548
0.000419057
0.000436423
0.000418087
0.000389151
0.000367615
0.000357078
0.000351629
0.000344118
2.44269e-05
0.000200072
0.000346266
0.000424592
0.000445718
0.000427367
0.000394065
0.000366537
0.000351435
0.000344748
0.000340349
2.06206e-05
0.00018607
0.000329597
0.000417061
0.000448667
0.000434593
0.000397614
0.000362257
0.000339912
0.000329341
0.000326362
1.64597e-05
0.000157447
0.000292363
0.000389447
0.000433761
0.000429685
0.000395527
0.000355013
0.000322705
0.000297871
0.00026785
1.19538e-05
0.000110038
0.000240013
0.000341116
0.000396273
0.000406065
0.000383375
0.000345093
0.00030404
0.000261874
0.000206674
7.99829e-06
9.53941e-05
0.000187872
0.000278714
0.000329922
0.000350598
0.000341638
0.000313017
0.000273131
0.000220285
0.000167844
1.59823e-05
1.62858e-05
1.61988e-05
1.6341e-05
1.63145e-05
1.60912e-05
1.56367e-05
1.50074e-05
1.38176e-05
0.000106301
0.000127119
0.000147196
0.000142852
0.00012641
0.000104657
7.99147e-05
5.16423e-05
3.32321e-05
0.000196202
0.000236264
0.000275235
0.000279123
0.000250463
0.000208151
0.000161463
0.000105715
6.51217e-05
0.00028062
0.000332524
0.000383148
0.000394599
0.000357516
0.000302352
0.000234877
0.000153633
9.23706e-05
1.52635e-05
1.43139e-05
1.28358e-05
9.81391e-06
6.99141e-06
6.45623e-06
6.03312e-06
7.07403e-06
1.14271e-05
8.44309e-05
5.69971e-05
3.61969e-05
2.53803e-05
2.32893e-05
2.78881e-05
2.31009e-05
2.02696e-05
2.28089e-05
0.000158067
0.000109834
6.96812e-05
4.39473e-05
3.4187e-05
4.07546e-05
3.39062e-05
3.05668e-05
4.04196e-05
0.000225194
0.000154376
9.63964e-05
6.01462e-05
4.56159e-05
5.43008e-05
4.8757e-05
4.28147e-05
5.7047e-05
0.00019575
0.000229698
0.000229751
8.35582e-05
0.000415892
0.000229389
9.26616e-05
0.000229441
0.000229411
0.000233616
0.000412168
0.000229483
0.000120307
0.000189112
0.000123882
0.000228712
0.000162855
8.45511e-05
0.000228703
0.000228614
0.00022973
2.92581e-05
0.000229969
0.000242123
0.000229356
0.000192581
0.000128099
9.16709e-05
0.000391739
0.000553261
0.000144962
0.000235872
0.000118054
0.000229428
0.000240936
0.000229656
0.000229785
0.000229346
9.89974e-05
0.000229418
1.86199e-05
0.000229463
0.000108203
0.000229943
0.000446689
5.52277e-05
5.23495e-05
0.000106096
0.000239906
0.000229156
0.000549437
0.00022941
0.000404224
0.00010877
0.000229122
0.000229515
2.90161e-05
0.000229425
0.000379524
0.000162763
2.20044e-05
0.000356691
0.00048113
0.000167242
2.56153e-05
0.000228583
0.000644783
0.000230172
0.000229698
0.00023304
0.000189318
0.000232979
6.17875e-05
0.000242
0.0002194
0.000231523
2.46511e-05
0.000229679
0.000139647
0.000473666
0.000652527
0.000142295
0.000229288
0.000229785
0.0002474
6.26965e-05
0.000357438
0.000286058
4.60642e-05
0.000253401
0.000229485
0.000229422
2.02516e-05
0.000232097
0.000469315
0.000143026
0.000166902
0.000236618
4.44366e-05
0.000235834
0.00025162
0.000106678
0.000229876
0.000236624
4.93254e-05
0.000229486
0.000181646
0.000229865
0.000109467
0.000236154
0.00022938
0.000229512
0.000230492
7.23832e-05
8.20469e-05
0.000229033
0.00022939
0.000228837
0.000229308
0.000229104
6.90898e-05
0.000240339
0.000250885
0.000190475
4.97069e-05
0.000206294
0.00100129
0.000176715
0.000142398
0.000119046
0.000229359
0.000161859
0.000104458
0.000231922
0.000229756
0.000230061
2.35046e-05
0.000107694
0.000545066
0.000244767
0.000108854
0.000231494
0.00023917
0.000167864
0.000229356
3.82226e-05
0.000108558
0.000229931
0.000235354
0.00022908
0.000228971
0.000229264
4.04455e-05
0.000238436
7.98613e-05
6.00476e-05
7.08452e-05
3.04518e-05
0.000169515
0.000228772
0.000217079
4.93996e-05
0.000232487
0.000229125
0.000670208
0.000113526
5.77855e-05
0.000246377
0.00023806
2.48553e-05
0.00015056
0.000159325
0.000234444
0.000229624
0.000235136
0.00022037
0.000153114
3.94269e-05
0.000442224
0.000199772
0.000229631
2.64486e-05
0.000229944
0.000149564
0.000229288
0.000110166
0.000229294
0.000228787
0.000229644
0.000175569
0.000109011
0.000197839
0.000228531
1.77828e-05
0.000229732
0.000228951
0.000229377
4.47194e-05
0.000115942
0.00023
3.39334e-05
0.000229233
0.000111113
0.000143183
0.000229812
0.00029559
0.000231496
0.000142405
0.000229261
0.000228695
0.000294194
0.000229006
0.000175391
0.000238846
0.000229324
0.000306183
0.000229374
5.12858e-05
0.000229146
8.02021e-05
7.53837e-05
6.80557e-05
0.000166181
8.07776e-05
0.000193
0.000229435
0.00011397
0.00011344
0.000110756
0.000314526
3.25047e-05
0.000228507
0.000229052
0.000241768
3.92018e-05
0.000240726
0.000643626
0.00022989
0.000229516
0.000229477
5.17865e-05
0.000219659
0.000236744
1.6023e-05
0.000233691
5.0766e-05
0.000229371
0.000144106
0.000190582
0.000883835
0.000144091
0.000294274
0.000243449
0.000228636
0.000234013
0.000229396
0.000229514
0.000229289
4.58592e-05
0.000229465
0.000122194
0.000189861
0.000228177
0.000229576
0.000229376
5.15575e-05
0.000231965
0.000234437
0.000159531
0.000179623
0.000204893
0.000228971
0.00022924
5.18512e-05
0.000229013
0.000228872
0.000186794
0.000229152
0.000238508
4.88709e-05
0.000234391
0.000229694
0.000650445
0.000603753
0.000233609
0.000228981
0.00029919
0.000229634
0.000238158
0.000100771
0.000229764
0.000100116
0.000250532
8.18807e-05
0.000230005
0.000229311
0.00023785
0.000229542
0.000240512
0.000189236
0.000229289
6.0669e-05
0.00024269
0.0005511
0.000229437
0.000236225
0.000229674
0.000276499
2.58347e-05
0.000229095
5.74014e-05
0.000229533
0.000234102
0.000122226
2.88758e-05
0.000231554
0.000171163
6.42064e-05
0.000228722
0.000235127
0.000229184
0.000544586
0.000228928
0.000192147
0.000115359
0.000236998
0.000229221
0.000207173
0.000228214
0.000664428
0.000232718
0.000479086
2.18827e-05
0.000229935
9.85135e-05
0.000248816
6.96406e-05
0.000229628
0.000229221
0.000238686
4.80293e-05
0.000281092
0.000229224
0.000108082
0.000201073
0.000276355
0.000101215
0.000229031
0.000197249
0.00103606
6.12385e-05
0.000235698
0.000179702
0.000229433
0.000106015
0.000230036
7.26527e-05
0.000206727
0.000229942
0.00073398
0.00013605
0.000186734
0.000229402
0.00022934
0.000229474
5.18108e-05
0.000167902
5.78139e-05
6.88463e-05
0.000252475
0.000229147
0.000115329
0.000230438
0.000193649
0.000112767
0.000229732
0.000152548
0.000240859
0.000228935
0.000228994
0.000512555
0.000228889
3.6874e-05
0.000229407
0.000197941
0.000687274
6.03872e-05
0.000192514
0.000221353
4.68952e-05
0.000229264
4.5292e-05
0.000185761
0.00024978
0.000680998
2.56461e-05
0.000229304
0.000228862
0.000229809
8.74724e-05
4.58848e-05
0.000228981
0.000229986
0.000101111
0.00010184
2.31609e-05
0.000104061
0.000137291
0.000229228
0.000549318
0.000240256
0.000228671
0.000117755
0.000119439
4.97992e-05
0.000233952
0.000109042
0.000249106
0.000181739
4.9462e-05
0.000302941
0.000148791
8.98113e-05
0.000110306
0.000227339
0.000235393
0.000240419
7.4256e-05
0.000183235
3.37477e-05
0.000229276
3.70893e-05
0.000207715
0.000228587
0.000227456
6.22891e-05
0.000296137
0.000514426
0.000190007
0.000230037
0.000236718
0.00034812
0.000107436
6.03484e-05
0.000233493
6.55486e-05
0.000206195
2.59982e-05
0.000228721
4.09797e-05
0.000229262
0.000229733
0.000229333
4.97555e-05
9.08454e-05
6.70066e-05
0.000152265
3.20563e-05
8.17049e-05
0.000229638
0.000228714
0.00102339
0.000181699
0.000234043
0.000238417
4.13297e-05
4.53099e-05
2.96835e-05
2.93526e-05
0.000232447
0.000211909
5.25572e-05
0.000229386
2.21268e-05
0.000235958
0.000229614
0.000228994
8.05632e-05
3.57979e-05
0.000229144
0.000229183
0.000229791
0.000267637
2.58772e-05
0.000229884
4.06632e-05
0.000362225
0.000156548
5.99353e-05
0.000228699
3.92205e-05
0.000228948
0.000235375
0.000229417
0.000124506
0.000149511
0.000228556
0.00019379
0.000169021
0.000233961
0.000223217
0.000207064
0.000229414
0.00022944
0.000225129
6.16799e-05
5.73431e-05
0.000233032
9.25956e-05
0.000229759
0.000437468
0.000104794
4.46466e-05
0.000108447
0.000251177
0.000636267
7.55828e-05
0.000193558
0.000229188
0.000184242
0.000228815
0.000229683
0.000229096
0.000229571
0.000234497
0.00048798
0.000229358
0.000228751
0.000160259
0.000229305
3.90375e-05
0.000243055
0.000236147
0.000176154
4.76355e-05
0.000229994
0.000229276
0.00022988
1.7016e-05
3.5712e-05
0.000229326
0.00022934
0.000190197
0.000229773
0.000100762
0.000229719
0.000821201
0.000237195
3.21147e-05
9.29924e-05
0.000130063
6.23243e-05
0.000466272
0.000229492
0.000232074
0.00023498
0.000229715
6.23851e-05
2.5836e-05
0.000223795
0.000129795
0.000129014
0.000107626
0.000229357
0.000229439
0.000229677
0.000207908
0.000691227
8.40987e-05
0.000229447
0.000229307
0.000609216
0.000230474
9.71204e-05
0.000136859
0.000159757
0.000309498
0.00022931
8.86075e-05
0.000229233
7.56586e-05
0.000229362
0.000216227
0.000148743
0.000234819
3.01541e-05
0.000129409
0.000229883
0.000229991
0.000458187
0.000229002
0.000183457
0.000106195
8.19868e-05
0.000208793
4.79858e-05
0.000151962
0.000231077
0.00022936
0.00022926
0.000147288
5.22218e-05
0.000112825
0.000228577
0.000229379
8.93526e-05
0.000229591
0.00023386
0.000237365
0.000233344
0.000109152
5.53878e-05
8.20381e-05
0.000159959
0.000233692
0.000234873
0.000228632
0.000145123
0.00023133
0.000229277
0.000193186
0.000376113
0.000228968
0.000228907
2.30951e-05
0.000229922
0.000228686
0.000147683
0.000229723
0.000235178
9.35488e-05
8.58853e-05
0.000158561
0.000183169
0.000158111
6.89738e-05
0.000397661
7.23556e-05
0.000107941
0.000180288
5.34568e-05
7.27281e-05
0.000128819
0.000229761
0.000230503
0.000114247
0.000230288
0.000229499
0.000244616
0.000207743
0.000105706
0.000180795
0.000193103
0.00024333
0.000229195
0.000198831
0.000229521
0.000228858
0.000236743
7.79496e-05
0.000231687
0.000233949
0.000231348
0.000229656
0.000130868
6.22172e-05
0.000301243
0.000231612
0.000230213
0.000189826
0.000104079
0.000234042
0.000167695
0.000231226
0.000228669
0.000569965
0.000229267
6.18967e-05
0.000229914
0.000122096
0.000137051
0.000106093
0.000160577
0.000215278
0.000246578
0.00022982
0.000100061
0.00018192
4.67043e-05
0.000963086
0.000228995
0.000233815
0.000229806
0.000160992
0.000229959
4.21202e-05
0.000229494
0.000229445
0.000228988
0.000127968
6.72019e-05
0.000229552
0.000128289
0.000229213
0.000112383
0.000169636
0.000231271
0.000115537
1.59404e-05
8.15739e-05
0.000236896
0.000198299
0.000136739
0.000118074
0.000131649
9.10762e-05
0.000229228
0.000148203
0.000229356
0.000232601
5.30316e-05
0.000181503
3.84076e-05
0.000189131
0.00023028
0.000235379
0.000229123
5.71735e-05
0.000229624
0.00107198
8.85649e-05
0.00079528
0.000234514
0.000138746
0.000147749
0.000209283
0.000241415
0.000120104
3.77291e-05
6.09676e-05
0.000229419
0.000186633
0.000129325
0.000229503
4.1997e-05
0.00011856
0.000241545
0.00022465
0.000229336
0.000234339
0.000235194
0.000129877
0.00023518
0.000192627
0.000229577
0.000121958
0.000233999
8.56986e-05
6.1527e-05
0.0003271
0.000109935
0.000228787
0.00026633
6.15498e-05
0.000229225
0.000192383
0.000187995
7.10224e-05
0.000243154
3.03059e-05
0.000247898
8.27973e-05
9.29446e-05
0.000252453
0.000228849
0.000247484
0.000229173
0.000109969
2.29252e-05
0.000230044
0.000229299
0.000252202
0.000363022
0.000504085
0.000151738
0.000229573
0.000145174
0.000253473
0.00022951
0.000229612
0.000229815
0.000229352
0.000233551
0.000157962