/*--------------------------------*- C++ -*----------------------------------*\
| =========                 |                                                 |
| \\      /  F ield         | OpenFOAM: The Open Source CFD Toolbox           |
|  \\    /   O peration     | Version:  3.0.1                                 |
|   \\  /    A nd           | Web:      www.OpenFOAM.org                      |
|    \\/     M anipulation  |                                                 |
\*---------------------------------------------------------------------------*/
FoamFile
{
    version     2.0;
    format      ascii;
    class       volScalarField;
    location    "0.867548";
    object      epsilon;
}
// * * * * * * * * * * * * * * * * * * * * * * * * * * * * * * * * * * * * * //

dimensions      [0 2 -3 0 0 0 0];

internalField   nonuniform List<scalar> 
21246
(
2166.48
727.533
297.028
114.751
39.7194
12.9132
4.10794
1.30096
0.418069
0.142375
0.0563109
1559.27
435.182
206.432
89.4281
34.7152
12.4107
4.1833
1.35507
0.432306
0.14298
0.0546208
953.558
341.889
172.783
84.0376
35.7482
13.5714
4.74559
1.56505
0.499834
0.163368
0.060945
658.796
254.084
143.549
79.6328
37.6586
15.2325
5.54698
1.88231
0.609625
0.197821
0.0718561
487.837
192.53
110.634
66.0197
34.5282
15.4212
6.01282
2.11165
0.685517
0.214738
0.0740971
397.354
152.673
89.255
54.2637
29.1086
13.5309
5.48001
1.99165
0.671478
0.220194
0.0792534
337.439
126.145
74.0369
45.2805
24.571
11.6117
4.83092
1.82135
0.63985
0.218044
0.0803181
294.47
106.97
62.5836
38.206
20.8128
9.92707
4.20453
1.62946
0.592679
0.209945
0.082717
263.257
92.6864
53.8498
32.7317
17.8286
8.54403
3.66474
1.45292
0.546318
0.201558
0.0826097
239.915
81.9778
47.2322
28.5955
15.5601
7.47678
3.23589
1.30626
0.505168
0.192882
0.0805772
221.369
73.6487
42.1122
25.4362
13.8392
6.66565
2.90522
1.18941
0.470051
0.183925
0.0795208
207.142
66.9064
38.0095
22.9396
12.499
6.04102
2.65098
1.09863
0.442245
0.177071
0.0786834
197.131
61.5687
34.7668
21.0022
11.4815
5.5765
2.46454
1.03271
0.422688
0.172921
0.0784111
190.252
57.5736
32.3059
19.5751
10.7624
5.2614
2.34277
0.991464
0.411365
0.170888
0.078963
186.637
54.485
30.3831
18.5076
10.2649
5.0652
2.27586
0.972599
0.408237
0.171489
0.0798432
186.511
52.2517
28.9611
17.7809
9.98374
4.98907
2.26657
0.978139
0.414465
0.175281
0.0818109
189.778
51.26
28.1306
17.4272
9.94922
5.0557
2.32771
1.01418
0.432792
0.183188
0.0851681
197.654
51.8535
27.9655
17.4744
10.2163
5.32993
2.50332
1.10163
0.471483
0.198064
0.0914099
211.538
54.3237
28.5976
17.9449
10.7926
5.84697
2.84409
1.28123
0.554521
0.23357
0.105528
234.295
59.4114
30.3715
19.0002
11.7602
6.66878
3.40838
1.60036
0.712283
0.305657
0.135474
272.074
68.5107
33.8475
20.9141
13.252
7.88477
4.28373
2.14129
1.00679
0.452767
0.202777
339.268
82.7556
39.7298
24.0475
15.4524
9.61869
5.59679
3.03741
1.55579
0.761191
0.362502
464.609
106.478
49.2234
29.1527
18.8855
12.2416
7.64119
4.54967
2.59168
1.42022
0.754147
723.085
111.667
55.1647
34.393
23.867
16.6739
11.3655
7.49091
4.7763
2.95479
1.78195
2271.93
1343.34
557.613
226.775
72.6127
22.2806
6.28429
1.81745
0.551808
0.180091
0.0692097
2512.39
1479.83
803.399
395.339
171.189
61.4322
13.642
3.15733
0.898943
0.275244
0.0964491
1570.93
1235.17
835.381
481.902
245.294
105.314
32.3403
6.37365
1.5092
0.438764
0.143944
581.656
1152.44
829.844
522.936
292.96
141.224
52.9993
13.6536
2.62344
0.699276
0.232289
583.564
1119.91
844.019
554.311
327.33
169.671
72.3237
22.8977
5.253
1.12312
0.372031
667.529
1040.17
890.65
594.065
358.002
193.634
89.7516
32.9676
9.10967
2.10684
0.593308
673.764
859.76
928.497
654.24
393.951
216.152
105.433
43.0353
13.8857
3.66569
1.00322
612.079
663.613
885.367
725.561
439.703
239.477
119.526
52.3974
19.0868
5.75951
1.67108
566.171
540.751
779.239
787.444
497.061
266.005
132.699
60.7745
24.2856
8.26482
2.61727
531.156
467.351
676.221
807.192
557.229
295.879
145.42
68.1001
29.1774
11.0209
3.81712
503.274
413.167
593.33
783.721
610.083
327.734
157.966
74.4944
33.6191
13.8824
5.27524
478.5
370.916
525.767
725.824
644.224
357.201
169.253
79.7299
37.452
16.7121
6.93362
459.123
335.794
468.169
657.542
651.918
379.421
178.064
83.6734
40.6607
19.4575
8.77791
445.464
304.925
414.771
586.642
633.962
390.913
183.306
86.2646
43.3319
22.1326
10.8434
442.224
281.477
365.396
513.074
594.146
387.87
183.339
87.3668
45.5606
24.7917
13.1828
447.883
264.874
322.265
430.874
526.695
370.256
177.11
86.6661
47.5376
27.6557
15.8747
459.736
250.602
280.65
351.303
418.336
343.253
165.9
84.9682
49.6695
31.0424
19.1493
481.082
239.34
240.073
276.848
310.94
291.397
157.168
83.8583
52.8986
35.5674
23.4175
521.322
235.077
204.336
212.866
227.876
226.303
155.536
87.1965
59.3361
42.6943
29.5765
603.127
246.302
180.666
165.955
169.12
176.115
153.626
103.04
72.0179
53.7265
38.6029
795.858
299.715
194.324
161.289
152.352
153.324
144.528
115.545
81.0879
61.7943
44.8624
1425.15
518.31
380.985
312.814
261.284
232.913
191.664
142.948
102.969
72.0883
47.9677
1048.48
579.738
603.418
429.831
314.742
226.657
157.037
105.552
69.0145
44.1304
27.6095
1182.24
634.443
367.969
227.713
146.147
95.1549
61.7941
39.6323
24.9742
15.4338
9.33771
258.671
143.969
22.7328
5.24279
1.51824
0.721637
0.504819
0.429684
0.399412
0.38667
0.38164
399.198
281.245
41.9473
8.16052
2.00181
0.83692
0.527583
0.42636
0.385942
0.3675
0.357986
487.49
298.638
64.5964
12.4623
2.40645
0.960096
0.554218
0.42558
0.374159
0.348985
0.331886
507.293
280.927
74.2931
15.7014
2.6809
1.06633
0.576942
0.425267
0.364076
0.333144
0.310225
483.883
269.524
78.672
17.7788
2.96637
1.14826
0.594812
0.425289
0.35595
0.320934
0.295634
440.114
265.509
83.6986
20.549
3.69662
1.21932
0.612276
0.426633
0.350131
0.312085
0.28585
384.004
265.63
90.3897
24.5181
4.95869
1.40683
0.642253
0.430264
0.346786
0.306027
0.278664
322.294
268.072
97.9398
29.2789
6.72987
1.75946
0.709764
0.442464
0.346398
0.302416
0.274493
263.77
271.436
106.857
34.9585
9.11321
2.36982
0.840299
0.46874
0.351429
0.301728
0.272665
212.449
274.36
118.631
42.3359
12.4435
3.40765
1.09672
0.525375
0.364199
0.303954
0.272588
168.02
277.852
132.722
51.3609
16.801
4.99682
1.55897
0.641078
0.392034
0.310573
0.274372
132.298
283.864
148.372
61.5309
21.9762
7.145
2.29137
0.853952
0.448493
0.325231
0.278707
107.881
290.376
166.492
73.464
28.1988
9.95988
3.38554
1.22149
0.558627
0.356257
0.287868
94.3571
294.648
187.561
88.16
35.9891
13.6687
4.97487
1.82691
0.764782
0.420731
0.307492
91.8875
300.31
211.31
105.556
45.3631
18.3026
7.12454
2.74383
1.12002
0.546515
0.349259
100.559
304.158
237.157
126.712
57.0734
24.206
10.0045
4.08297
1.70067
0.779124
0.435519
117.738
301.016
262.16
152.761
72.4981
32.1384
13.981
6.04036
2.62685
1.1927
0.607764
138.111
287.71
279.918
182.543
92.641
42.9731
19.5708
8.91212
4.08017
1.90346
0.938092
157.445
266.211
283.596
212.145
118.204
58.0815
27.7381
13.2778
6.40441
3.12193
1.55716
175.363
240.035
268.954
232.7
147.449
78.9112
40.1044
20.2694
10.3025
5.27518
2.72735
190.933
206.836
235.403
233.275
174.42
106.211
59.1932
32.0806
17.2849
9.31986
5.03804
246.461
183.907
200.7
220.945
194.415
139.473
88.4034
52.6708
30.5009
17.4697
9.93535
277.969
158.509
159.722
168.052
164.033
142.42
109.476
76.2324
49.7738
31.42
19.2781
558.816
614.563
458.54
375.744
294.223
218.179
154.306
105.249
70.5658
46.9664
30.646
194.593
82.0045
18.0189
3.63794
1.21104
0.661898
0.497277
0.437292
0.41436
0.408037
0.410935
231.234
64.0837
11.9911
3.77492
1.3564
0.715692
0.519298
0.449331
0.424433
0.420042
0.427795
271.886
81.3997
11.4792
4.39094
1.63709
0.837075
0.564051
0.46493
0.428374
0.419485
0.425915
280.225
79.8264
10.9462
4.56254
1.67659
0.879819
0.581545
0.467129
0.423324
0.410649
0.415718
272.891
67.8843
10.4274
4.51106
1.66911
0.89514
0.583676
0.462525
0.41357
0.397204
0.398597
262.396
56.5842
9.86397
4.25523
1.59593
0.881761
0.573842
0.453615
0.403169
0.385117
0.383938
252.493
48.0582
9.30955
3.94591
1.50533
0.855307
0.556891
0.441843
0.39226
0.37454
0.373388
242.266
41.742
8.77242
3.65178
1.42503
0.825153
0.538454
0.429118
0.38082
0.363947
0.364191
234.785
37.0965
8.32596
3.42002
1.37011
0.796762
0.5221
0.416779
0.369021
0.352093
0.352772
230.71
33.8637
7.98633
3.24754
1.33916
0.775371
0.509413
0.405709
0.357411
0.339593
0.340262
230.47
31.8011
7.79668
3.15083
1.33058
0.764026
0.50126
0.396528
0.346378
0.32648
0.324956
232.863
30.483
7.70407
3.11505
1.34233
0.762966
0.497869
0.389657
0.336362
0.313394
0.308845
238.563
30.114
7.73016
3.14087
1.37865
0.773903
0.500295
0.385783
0.327986
0.301068
0.292328
245.477
32.2661
8.22787
3.30102
1.47255
0.808896
0.514594
0.387515
0.322898
0.290858
0.27782
254.186
35.705
9.18718
3.61667
1.64189
0.88002
0.547785
0.398743
0.323456
0.284469
0.266325
265.495
40.6513
10.7899
4.17171
1.91953
1.00797
0.610592
0.425921
0.333133
0.28402
0.259277
280.264
47.6032
13.3237
5.1222
2.37711
1.23276
0.725471
0.482377
0.359554
0.293968
0.259259
300.419
56.7517
17.0858
6.69553
3.14369
1.62934
0.937933
0.596267
0.420047
0.324909
0.272822
328.717
68.8429
22.5401
9.25211
4.45721
2.34819
1.34482
0.830785
0.556286
0.404151
0.317966
370.115
85.5384
30.5774
13.4053
6.75822
3.69424
2.15801
1.33393
0.872627
0.605896
0.447646
434.626
110.096
42.8391
20.2482
10.8571
6.27708
3.83779
2.45333
1.63381
1.1332
0.820049
545.253
148.955
62.7625
31.9866
18.346
11.3228
7.35739
4.97383
3.47892
2.51282
1.8754
763.789
229.351
103.734
56.2097
34.0482
22.1725
15.1949
10.842
8.01025
6.10969
4.79751
1401.68
401.768
205.915
127.682
87.3904
62.9232
46.8964
36.4439
29.2734
24.0438
19.8065
1156.98
536.318
218.325
102.889
50.1159
23.0307
10.2211
4.82512
2.67636
1.84099
1.5551
1153.48
587.421
301.19
153.293
76.8125
35.5073
13.9407
5.54248
2.74962
1.80841
1.53972
784.042
481.874
308.904
181.231
100.165
50.5641
21.91
8.2538
3.13144
1.78639
1.47406
388.349
357.279
276.15
186.181
114.28
63.5042
30.8201
12.687
4.60397
1.99266
1.37908
149.969
251.239
230.441
176.449
119.821
72.8683
39.1288
18.0431
7.07894
2.70258
1.41362
71.7519
175.741
187.577
159.052
117.89
77.8693
45.726
23.4187
10.248
3.99146
1.70293
58.7385
119.01
149.402
137.866
110.021
78.1227
49.5834
27.8112
13.5102
5.69612
2.28741
45.9087
72.7652
113.629
115.249
98.1271
74.0426
50.2121
30.4276
16.1828
7.45797
3.0737
32.499
41.3364
78.4274
91.8916
83.9523
66.7708
47.902
30.991
17.7894
8.88981
3.87457
24.0029
25.9962
49.0999
69.17
68.8708
57.6201
43.431
29.7118
18.1729
9.72006
4.49141
17.9809
17.8602
30.0606
48.2174
54.0565
47.7239
37.6424
27.0243
17.4146
9.83655
4.77318
13.6231
12.8482
19.6598
31.4888
40.3364
38.0122
31.3091
23.4486
15.7597
9.27988
4.68102
10.4314
9.45137
13.4095
20.6275
28.3167
29.1395
25.0566
19.4924
13.5465
8.22659
4.26981
8.00108
7.09911
9.38694
13.7297
19.1407
21.3535
19.2811
15.5406
11.0992
6.90149
3.6574
6.34034
5.54484
6.77842
9.31797
12.7677
14.9693
14.2279
11.8814
8.70677
5.5361
3.00006
5.24526
4.49555
5.10949
6.51388
8.551
10.1685
10.1087
8.77945
6.64276
4.35446
2.43424
4.47972
3.79933
4.0635
4.7601
5.86662
6.8656
7.08954
6.47045
5.14277
3.54068
2.06615
4.04147
3.36524
3.41326
3.68589
4.24867
4.88027
5.28128
5.18046
4.44231
3.28718
2.03787
3.84106
3.11751
2.97718
3.0402
3.42242
4.09783
4.88746
5.33272
4.99727
3.95682
2.57098
3.94306
3.2033
2.7546
2.87021
3.4839
4.907
6.7634
8.15688
8.21697
6.76187
4.46915
7.18083
4.10252
3.15689
3.67157
5.45452
9.51793
12.6921
13.8207
13.4389
12.1006
9.27578
12.8984
5.50763
4.58321
7.45919
13.1886
16.4592
16.6732
15.5011
13.8977
12.4787
10.919
16.7699
12.0828
18.2482
23.1852
23.736
21.4664
18.0805
14.6601
11.9151
10.2149
9.32194
106.916
67.8546
50.4459
37.5781
27.9385
20.6063
15.1301
11.2981
8.93921
7.76754
7.43467
1376.21
353.709
170.769
85.482
42.2513
20.3678
9.74961
4.89512
2.77641
1.88396
1.53431
1128.86
294.637
148.858
84.0612
46.5258
24.3147
12.0587
5.96615
3.19697
2.00707
1.52276
709.899
245.029
133.662
84.6202
52.8782
30.4245
15.8632
7.80208
3.94009
2.25162
1.55756
369.538
151.69
98.0987
75.7528
56.3446
37.0447
21.0412
10.6296
5.17818
2.70191
1.6651
165.29
82.7948
62.0377
56.1578
51.4107
41.4852
27.5361
15.1754
7.44829
3.62532
1.98642
68.794
40.9856
36.5683
38.2776
40.8577
39.2605
31.2909
20.244
11.0533
5.50632
2.75646
31.6448
20.7945
21.4029
25.3696
30.8157
33.9335
30.9562
22.5311
13.4238
7.06319
3.62106
20.0057
13.2911
14.3015
17.7298
23.1305
28.3721
29.1851
23.7518
15.4337
8.59653
4.51942
16.8802
11.2831
11.713
14.1556
18.3183
23.5299
26.7201
24.1165
17.0116
10.0541
5.53386
16.2495
11.047
11.0019
12.7207
15.7143
20.0565
23.9697
23.8158
18.2059
11.3099
6.44183
16.4396
11.3662
10.9755
12.1434
14.2335
17.6458
21.4426
22.7133
19.0031
12.4741
7.28394
17.1695
12.0265
11.2024
11.8263
13.2244
15.8165
19.1798
21.1786
18.9953
13.4205
8.11927
18.2194
12.7984
11.5137
11.6292
12.4225
14.25
17.0415
19.3496
18.3958
13.8368
8.81815
19.4801
13.6255
11.9021
11.5342
11.7341
12.8168
14.9472
17.2746
17.3226
13.8182
9.19638
20.9824
14.5019
12.3782
11.5351
11.1578
11.528
12.9546
15.0705
15.8879
13.4292
9.33582
22.8592
15.4731
12.9642
11.6317
10.7041
10.4308
11.1836
12.9103
14.2048
12.7264
9.33009
25.3285
16.6128
13.7274
11.8976
10.4445
9.6014
9.76105
10.9893
12.3877
11.7651
9.14749
28.8815
18.0665
14.8468
12.5081
10.4996
9.10801
8.74725
9.45221
10.6193
10.6007
8.9439
34.47
20.2035
16.5815
13.6496
10.995
8.99854
8.12259
8.33244
9.09579
9.36334
8.49441
42.6985
23.3894
19.0898
15.4665
12.0489
9.32098
7.8566
7.58571
7.94075
8.19269
7.80357
52.3378
27.5606
22.4146
17.982
13.6339
10.0649
7.94365
7.17659
7.14839
7.23863
7.05409
68.8636
33.7051
27.1748
20.8393
15.3345
11.0002
8.29458
7.06633
6.69846
6.60583
6.45691
95.9006
50.8065
32.4689
23.0257
16.4917
11.8143
8.78731
7.21006
6.57111
6.34401
6.2867
301.586
61.5644
36.3571
23.4689
16.9604
12.5286
9.49155
7.6367
6.78133
6.46536
6.52278
60.5169
70.9161
77.9094
82.5645
80.8136
80.9921
78.4615
72.0483
62.5704
22.9861
24.0262
25.1191
26.2676
25.5876
24.3641
23.5273
22.4014
22.0014
12.323
12.2623
13.1766
14.0495
13.8411
13.0172
12.1686
11.3501
11.8349
7.15177
6.91645
7.57374
8.03406
7.84457
7.35311
6.88077
6.46094
6.93978
47.7809
30.9962
9.72277
4.00886
3.28594
2.86534
8.16409
30.2443
49.3806
22.4141
19.3013
12.637
3.94056
1.90038
3.41191
10.6211
18.0832
21.7602
14.1025
14.7397
11.8051
4.31589
2.02431
3.83716
9.32604
13.5906
13.6835
8.59819
10.244
9.73755
4.51944
2.20992
3.75209
7.60404
9.7516
8.56288
0.00901828
0.00829389
0.00834707
0.00545911
0.467168
0.00755637
0.131613
0.0080891
0.00753229
0.00694463
0.469526
0.00812622
0.0102877
0.00517977
0.0146142
0.00728478
0.00612053
0.00537427
0.00724843
0.00710209
0.00664062
0.0621385
0.00852231
0.121558
0.00792369
0.00511797
0.00989408
0.123211
1.42023
0.384707
0.00728641
0.00643767
0.00709383
0.00806604
0.00680196
0.00826394
0.111063
0.00790748
0.00799692
0.00758581
0.203091
0.00809766
0.039585
0.00849763
0.750448
0.240832
0.0184979
0.334856
0.00692714
0.00734745
0.390024
0.0076034
0.0717596
0.040179
0.00733443
0.00666775
0.05881
0.00762337
1.4334
0.016083
0.106338
0.0556583
0.506787
0.0346178
0.214297
0.00714049
0.377315
0.00713779
0.00829638
0.00692905
0.0051529
0.00722692
0.0148739
0.00812924
0.0113778
0.00715611
0.0782408
0.00828031
0.0564884
1.05743
0.272914
0.0261236
0.0079327
0.00838077
0.00697507
0.0148974
2.21793
0.035056
0.0200516
0.109354
0.00809258
0.00765679
0.209888
0.00740499
1.00759
0.568975
0.00671509
0.0059477
0.0252923
0.00743156
0.0078783
0.319432
0.0068045
0.00616756
0.0148247
0.00812132
0.00461441
0.00845307
0.015054
0.00670361
0.00796664
0.00814966
0.00724081
0.00646421
0.0216682
0.00769186
0.00754518
0.00732122
0.00792597
0.00673674
0.00693243
0.00785094
0.00966548
0.00505413
0.227866
0.00703521
0.310217
0.00473952
0.00646297
0.00932408
0.00778135
0.0163428
0.32134
0.00716723
0.00834181
0.00809561
0.066496
0.015801
0.408785
0.00733481
0.0419023
0.00660764
0.217807
0.00867957
0.00751835
0.025126
0.0157642
0.00715334
0.00715576
0.00705893
0.00715727
0.00766415
0.0278293
0.0078512
0.00606956
0.0200934
0.0195986
0.0425237
0.00544887
0.00747415
0.00549389
0.0337587
0.00721676
0.00772162
0.38495
0.0264535
0.0206278
0.00715048
0.00672946
0.207439
0.00587846
0.00543848
0.00822769
0.00645973
0.00642543
0.00641933
0.00578401
0.0292928
0.766368
0.00696069
0.00715414
0.0702864
0.00849691
0.118657
0.00794047
0.0123247
0.00706817
0.00727023
0.0082484
0.0809518
0.0140934
0.00531039
0.0071867
0.194635
0.00832423
0.00760838
0.00743944
0.0261527
0.0100523
0.00856745
0.0263707
0.00732358
0.0134852
0.00791567
0.00838699
0.0363861
0.00736346
0.0064264
0.00740687
0.0074075
0.127669
0.00759249
0.00827259
0.00673229
0.00791179
0.0178077
0.007978
0.0245666
0.00713445
0.0111291
0.0107241
0.00654254
0.00674451
0.0218769
0.00484225
0.00763939
0.0782668
0.0242615
0.0123462
0.150792
0.042019
0.00713424
0.00712914
0.00782518
0.0280513
1.7594
0.338013
0.00845047
0.00814436
0.00810135
0.0246406
0.0319426
0.006137
0.165161
0.00800491
0.0405099
0.00800436
0.00827318
0.462505
0.345772
0.00821699
0.130222
0.0100635
0.00726589
0.00603057
0.0074711
0.00673301
0.00786008
0.0193742
0.00704336
0.00833838
0.00980335
0.00738154
0.00819751
0.00796047
0.0166664
0.00660307
0.00747932
0.017653
0.00694352
0.213947
0.00730686
0.00729973
0.0174695
0.00756406
0.00736463
0.0053868
0.00776137
0.00691781
0.0183856
0.00733446
0.00828867
0.276167
0.313999
0.0060403
0.00759136
1.46511
0.00824785
0.00683564
0.041614
0.00834994
0.116591
0.00735532
0.00955075
0.00856438
0.00743566
0.00662564
0.00816294
0.00681008
0.00539508
0.00775676
0.00905199
0.00708932
0.393389
0.00676913
0.00669467
0.0082832
0.0730244
0.0670208
0.00744235
0.0889193
0.00816777
0.00646359
0.00686649
0.0855755
0.00655516
0.0071104
0.0145703
0.00671263
0.00777609
0.00706839
0.198666
0.00746439
0.00538151
0.0237253
0.00686387
0.00778256
0.00596142
0.00708979
0.139998
0.00707331
0.520137
0.0727668
0.00846696
0.0114896
0.667851
0.0163822
0.00824062
0.00784986
0.00587893
0.0287129
0.124595
0.00728477
0.0265824
0.195035
0.0743823
0.0226538
0.00753717
0.0935557
0.348979
0.116833
0.00583034
0.00700549
0.00682444
0.0132241
0.00860274
0.0113931
0.00695905
0.00850177
0.189057
0.0098663
0.00536251
0.00800426
0.00798793
0.00728979
0.019511
0.00511882
0.0159858
0.14878
0.00841978
0.00773934
0.110632
0.558493
0.00476612
0.0119797
0.00831946
0.0090494
0.00676082
0.00752375
0.00708247
0.239485
0.0075582
0.0245349
0.00766155
0.00527039
0.332017
0.00846612
0.00480557
0.030574
0.0227499
0.00769827
0.053858
0.00467226
0.00805795
0.350891
0.222116
0.00787032
0.00720345
0.00836803
0.0345855
0.0191088
0.00764782
0.00850787
0.0430866
0.00774862
0.226888
0.0532086
0.0317671
0.00731687
0.196595
0.00697584
0.00720009
0.011056
0.0104937
0.0302832
0.00640255
0.0142874
0.00860999
0.00484496
0.0416294
0.291355
0.00615268
0.159887
0.0133722
0.00628839
0.00666873
0.00803807
0.0281865
0.0113584
0.220608
0.00789641
0.0243628
0.00509855
0.00663337
0.0072806
0.0144136
0.199834
0.415686
0.00510719
0.00860035
0.00597086
2.18717
0.00514285
0.00873368
0.0068431
0.0247643
0.0158607
0.0434666
0.00741668
0.035326
0.00773754
0.00833575
0.00793839
0.030745
0.0184213
0.164289
0.00583932
0.0281685
0.0265633
0.00825502
0.00740046
0.327878
0.00505316
0.00600382
0.00693498
0.144912
0.11579
0.0902243
0.0916648
0.00710116
0.00657863
0.0165783
0.00697788
0.105828
0.00688238
0.00823629
0.00734144
0.0347642
0.0328609
0.00709474
0.00778345
0.00669042
0.0941871
0.0734355
0.00845567
0.0241039
0.239391
0.00940965
0.016104
0.00740881
0.0283688
0.00760016
0.00687932
0.00762479
0.00806133
0.00642393
0.00715275
0.00536435
0.00853274
0.00743554
0.00566316
0.00592674
0.00806751
0.00806393
0.509714
0.0205489
0.0132418
0.00706975
0.289267
0.00835767
0.276799
0.0162764
0.0242956
0.0219308
0.00802321
0.338556
0.0313232
0.00533473
0.00778482
0.00634855
0.00667725
0.00828267
0.00769323
0.00818683
0.00679842
0.232676
0.00798938
0.00745459
0.0861623
0.00773005
0.186606
0.00658369
0.0570175
0.00560121
0.0196927
0.00856411
0.00786474
0.00841832
0.186396
0.0338457
0.0079503
0.0079115
0.00503129
0.00835071
0.00586774
0.00831484
0.204583
0.00681944
0.0459216
0.00852713
0.00758416
0.257023
0.289176
0.00679895
0.00658807
0.00711472
0.00830949
0.0143829
0.0408152
0.00721154
0.00883959
0.484054
0.79598
0.00791831
0.00734798
0.00828384
0.0160292
0.351571
0.0191778
0.0080838
0.00752372
0.313455
0.00725413
0.00863161
0.00700197
0.039593
0.356947
0.00771283
0.0205941
0.00782154
0.0323799
0.0073876
0.0112297
0.00604159
0.00643806
0.0897617
0.0365217
0.00842605
0.00854828
0.971146
0.00763954
0.00615761
0.00915878
0.0327024
0.0137747
0.028611
0.00756886
0.00692673
0.00773224
0.00790435
0.481124
0.0156297
0.0120985
0.00711016
0.00794864
0.0429273
0.00701714
0.00763821
0.00689631
0.00713784
0.00832705
0.0153198
0.0322681
0.0181323
0.00621824
0.0108495
0.00724294
0.0592584
0.00712016
0.00778473
0.475537
0.18082
0.00755339
0.00757562
0.0649356
0.00676267
0.00738172
0.0194614
0.00831736
0.00677032
0.0100923
0.00917544
0.00828375
0.00490405
0.00568495
0.0379761
0.130467
0.0356315
0.033227
0.00626336
0.020887
0.0275567
0.00850118
0.00836445
0.00680271
0.0246163
0.0060765
0.0069559
0.00724657
0.005123
0.0415852
0.442254
0.00608427
0.00820205
0.00769183
0.0134794
0.00811874
0.00723828
0.00693571
0.0131888
0.00704114
0.00707282
0.0068551
0.00826031
0.0116262
0.055891
0.146926
0.0071147
0.0069734
0.00754975
0.0517283
0.00765086
0.127098
0.00721818
0.0160483
0.166712
0.007709
0.0177893
0.00849749
0.00689343
0.0172669
0.00843116
0.41833
0.00556376
0.00667631
0.00841741
0.0125181
0.0050805
0.0319287
0.317506
0.0075096
0.00642187
0.00840384
0.00784376
0.00690898
0.0211626
0.00813322
0.00761966
0.00762162
0.00996521
0.0276124
0.00816119
0.00760559
0.00751083
0.0228019
0.00547882
0.00648683
0.0111521
0.142745
0.00945642
0.00633214
0.00628875
0.00840612
0.0397666
0.00646552
0.142363
0.00783836
0.00682061
0.00790751
0.00705115
0.0830063
0.00945947
0.0298651
0.00516489
0.00726613
0.00676382
0.00671017
0.0269126
0.0082365
0.305531
0.040223
0.197477
0.00665242
0.0102555
0.0306531
0.0137629
0.00772133
0.00878031
0.0336877
0.0122143
0.00802868
0.00538899
0.467462
0.00811453
0.177052
0.00921604
0.00839927
0.0152459
0.00755035
0.00688132
0.00681832
0.00774251
0.0073574
0.00478661
0.00819174
0.00693025
0.00715098
0.00922144
0.0202761
0.154325
0.0143378
0.00723031
0.17381
0.240351
0.00782177
0.00483142
0.00710875
0.0281868
0.0100315
0.0440951
0.00720485
0.0213216
0.00857495
0.00885571
0.00720968
0.00694703
0.00765838
0.0136766
0.0563654
0.00860584
0.00788932
0.0074298
0.252
0.201475
0.00753007
0.00820171
0.00699366
0.00760676
0.00813752
0.00821572
0.00838167
0.00787534
0.00764902
0.00561805
0.0503349
0.0910416
0.00481578
0.00750634
0.00770654
0.00793014
0.00671574
0.225231
0.00827641
0.00634725
0.00757498
0.273937
0.130535
0.0422818
0.0077932
0.0168371
0.00771891
0.00781688
0.217848
0.00714967
0.00816236
0.00728531
0.038695
0.00602855
0.00593774
0.00813879
0.010597
0.169823
0.0198233
0.00815716
0.00471642
0.0343762
0.0276236
0.0197946
0.00842978
0.00718688
0.00523649
0.0138365
0.0257174
0.0082929
0.00685975
0.00823857
0.00737066
0.0082536
0.00847697
0.0062493
0.175465
0.223502
0.0417962
0.0081009
0.466122
0.00853261
0.00720521
0.00949449
0.0078937
0.00765984
0.00766647
0.0141842
0.0403178
0.0202211
0.00764985
0.0115673
0.00768877
0.0085978
0.00735788
0.00756166
0.00728575
0.00792631
0.00814858
0.00729424
1.85483
0.00754573
0.00712709
0.00867405
0.154594
0.00711099
0.00796513
0.0185094
1.64799
0.00695349
0.00775676
0.0109722
0.0133329
0.00846859
0.0080851
0.00685242
0.00860367
0.060061
0.00828218
0.0845853
0.0096199
0.132673
0.00808423
0.0082133
0.00622756
0.0288526
0.00775028
0.00777099
0.00709753
0.00831682
0.00592433
0.200744
0.0065998
0.0271916
0.251833
0.0285106
0.00605202
0.0406296
0.00851239
0.00814275
0.00511312
0.00840181
0.00610589
0.0076058
0.287529
0.00724969
0.0105967
0.00730715
0.00463459
0.00535592
0.0193818
0.00792156
0.00694262
0.00804208
0.274148
0.0633936
0.329937
0.00670942
0.00995352
0.00698707
0.00776823
0.292067
0.00753783
0.00830541
0.00609772
0.212048
0.0320407
0.0400733
0.00705031
0.00533713
0.0190187
0.622837
0.00801527
0.00708668
0.346252
0.00760609
0.0213274
0.0079187
0.0874189
0.00825671
0.0289963
0.00830342
0.00729713
0.00845476
0.00763427
0.0142777
0.00655343
0.00709914
0.00780562
0.00728692
0.00981049
0.00909542
0.038438
0.00751353
0.00687591
0.226485
0.0232916
0.0445119
0.00832498
0.039944
0.00735991
0.00828944
0.0266173
0.00646698
0.0367828
0.359277
0.00610466
0.0133168
0.00653636
0.00741778
0.0176577
0.0167792
0.00699367
0.0473966
0.00813298
1.5978
0.0383867
0.568973
0.00812835
0.020921
0.0115801
0.310927
0.0077
0.00538004
0.00855554
0.00463458
0.115947
0.00815633
0.00890597
0.010198
0.0281012
0.220552
0.00816928
0.00778217
0.00735914
0.0444481
0.0068701
0.202476
0.0110925
0.0558351
0.350114
0.00828879
0.0159401
0.0319893
0.029555
0.0857401
0.0247608
0.0075786
0.0114283
0.00492617
0.00809945
0.00785865
0.00856456
0.00894199
0.00661791
0.00832764
0.00557146
0.0443655
0.00485437
0.00802076
0.106059
0.0145545
0.00689351
0.0108795
0.00813675
0.00708937
0.00734697
0.204305
0.0069898
0.0175615
0.00616964
0.0244067
0.00796228
0.00694794
0.00796002
0.00753405
0.0181695
0.0390237
0.044501
0.654846
0.215924
0.647717
0.00687668
0.00734488
0.00932614
0.00838835
0.00586142
0.0365698
0.00690644
0.11513
0.00610397
0.150914
0.00684459
0.00494825
0.00811803
0.297837
0.00862632
0.481046
0.00652359
0.00835314
0.044695
0.059747
0.00679146
0.0265104
0.0346046
0.0643652
0.128641
0.019943
0.224834
0.00923595
0.00714612
0.245802
0.0190635
0.0083326
0.00627942
0.00782888
0.00504086
0.00528923
0.00973317
0.00773363
0.0166951
0.645485
0.00752622
0.00717129
0.00696933
0.00819034
0.00976811
0.00542098
0.00702488
0.00558363
0.379948
0.00707239
0.637145
0.071335
0.00772668
0.163363
0.051107
0.0176781
0.00666992
0.130812
0.00768997
0.00803794
0.349708
0.00751956
0.00824563
0.00579945
0.00809685
0.00756547
0.162921
0.00788924
0.541826
0.0134494
0.0195716
0.00722793
0.0123995
0.0305495
0.00618948
0.233725
0.00776587
0.0111772
0.0285552
0.00709447
0.0157299
0.0304119
0.0219188
0.00747191
0.0323214
0.0739128
0.00644847
0.00733261
0.0276938
0.00695075
0.01907
0.0241773
0.358445
0.00712137
0.00860272
0.00796913
0.00626005
0.0082162
0.00477574
0.0380795
1.34127
0.00815214
0.0240179
0.0280446
0.00820595
0.0347467
0.00709253
0.00695352
1.30463
0.0456687
0.308625
0.164257
0.00816007
0.00792912
0.0220252
0.221423
0.194965
0.239401
0.00494136
0.00817494
0.00716279
0.00625844
0.219461
0.0477991
0.00867821
0.00739778
0.0279856
0.024544
0.0356841
0.00678606
0.0936924
0.217569
0.00638904
0.00559426
0.00727111
0.00720391
0.215112
0.00541476
0.00851659
0.0151223
0.00776916
0.00640108
0.364675
0.00884791
0.0105605
0.0329379
0.00841233
0.00751979
0.193928
0.0192215
0.00836092
0.00455595
0.0188321
0.00661178
0.334606
0.00806552
0.00768904
0.00704606
0.154311
0.00613872
0.00746078
0.0317503
0.00833728
0.00814685
0.00859551
0.0053328
0.00770675
0.0359059
0.0187448
0.00814565
0.461114
0.034759
0.00825993
0.031515
0.00766784
0.00519029
0.0324424
0.00801894
0.00816365
0.0078821
0.00736692
0.00793583
0.0071804
0.00804478
0.0529507
0.0362035
0.00610261
0.0491671
0.00691876
0.019948
0.0186429
0.00855542
0.00663316
0.0158967
0.00487252
0.00674872
0.00589412
0.0066679
0.00684592
0.00794874
0.0382338
0.156933
0.0240712
0.100336
0.00859361
0.0125467
0.342699
0.0164577
0.0127131
0.00760023
0.0336958
0.0183632
0.166116
0.00478084
0.0193378
0.0327012
0.00652555
0.00795449
0.903199
0.00483563
0.00673973
0.0290528
0.0278674
0.00584294
0.0119662
0.0141831
0.00461767
0.586855
0.568217
0.00789841
0.00713741
0.0159538
0.0411211
0.0104506
0.00811438
0.00688171
0.00839097
0.00753259
0.0829388
0.00761848
0.00846372
0.135728
0.00844399
0.00732538
0.00770421
0.00757622
0.00674018
0.00858165
0.00726628
0.00936267
0.00704346
0.00879333
0.0080362
0.0309416
0.00818719
0.018362
0.00770234
0.0209432
0.00838782
0.00768113
0.0580931
0.237964
0.00705308
0.00780642
0.00766795
0.0210831
0.00826461
0.00916184
0.00832683
0.007421
0.00622537
0.00729354
0.031128
0.00512724
0.0608691
0.00848583
0.00856794
0.00788486
0.00669762
0.00896782
0.00837039
0.00801947
0.15449
0.00760524
0.0163944
0.00789999
0.00799756
0.483695
0.00845214
0.00855296
0.14512
0.204627
0.0143391
0.00755919
0.0199038
0.00788748
0.0143084
0.0114975
0.0104403
0.00739776
0.00628673
0.0247188
0.00763716
0.0321275
0.00697587
0.015347
0.0266608
0.00823863
0.0111441
0.0076852
0.145478
0.0150226
0.00498239
0.0307301
0.00642759
0.00597614
0.00840174
0.0104307
0.0301145
0.00752521
0.00811363
0.0397284
0.00686717
0.00683122
0.00690472
0.00547382
0.00789627
0.028379
0.030164
0.00687094
0.0177846
0.00798047
0.00710225
0.00702639
1.12538
0.0098159
0.00750472
0.161644
0.0321516
0.00820701
0.00706204
0.0289716
0.0105768
0.00662219
0.00727052
0.0152417
0.0400624
0.00754896
0.00693746
0.0747031
0.00715331
0.00830148
0.00736325
0.00693642
0.00803639
0.0247847
0.00764425
0.0325474
0.00636778
0.0134083
0.00813045
0.0050295
0.02781
0.00691205
0.0203527
0.00765609
0.00735839
0.039468
0.0136553
0.00560212
0.00845694
0.00741298
0.23736
0.00767636
0.00695313
1.77825
0.00674153
0.00707718
0.00695582
0.0069631
0.00647318
0.00632071
0.0156688
0.00515537
0.0161463
0.00707501
0.0075939
0.0154808
0.004541
0.00748381
0.00646562
0.00563891
0.00730885
0.271054
0.00855873
0.0265999
0.00749089
0.00689542
0.00585123
0.00728307
0.0124383
0.00795505
0.0072122
0.00672862
0.00756705
0.00837669
0.0340709
0.02315
0.0108659
0.0106073
0.0386492
0.00676525
0.00757117
0.00746906
0.21247
0.00728188
0.0066354
0.331827
0.00691664
0.220105
0.155919
0.00686999
0.0081
0.00710603
0.00536752
0.00493568
0.00684156
0.00795121
0.0221671
0.0369504
0.0047455
0.0349552
0.00780867
0.0718744
0.0109305
0.939312
0.0108121
0.0116804
0.00495823
0.00828571
0.00689758
0.0247787
0.0079026
0.0110372
0.00530456
0.0125848
0.00523297
0.0607129
0.0164292
0.0260409
0.261747
0.00780188
0.350062
0.00980608
0.00648204
0.00603294
0.00872538
0.00840386
0.599276
0.0078127
0.2584
0.309252
0.00507136
0.107282
0.0252455
0.286174
0.0073978
0.00791428
0.00741666
0.00726344
0.00765975
0.00621738
0.00698479
0.0223023
0.00775105
0.207363
0.0161477
0.00764162
0.0081804
0.00976879