/*--------------------------------*- C++ -*----------------------------------*\
| =========                 |                                                 |
| \\      /  F ield         | OpenFOAM: The Open Source CFD Toolbox           |
|  \\    /   O peration     | Version:  3.0.1                                 |
|   \\  /    A nd           | Web:      www.OpenFOAM.org                      |
|    \\/     M anipulation  |                                                 |
\*---------------------------------------------------------------------------*/
FoamFile
{
    version     2.0;
    format      ascii;
    class       volVectorField;
    location    "0.867548";
    object      U;
}
// * * * * * * * * * * * * * * * * * * * * * * * * * * * * * * * * * * * * * //

dimensions      [0 1 -1 0 0 0 0];

internalField   nonuniform List<vector> 
21246
(
(7.38017 -5.31393 1.03117e-18)
(6.19265 -4.49845 -8.29121e-19)
(5.86819 -3.53496 1.96736e-19)
(5.57917 -2.79858 -1.56297e-19)
(5.26716 -2.22948 0)
(4.95988 -1.80331 -2.71506e-21)
(4.66739 -1.47758 0)
(4.39886 -1.22514 1.29244e-19)
(4.15645 -1.02458 -2.26998e-20)
(3.93948 -0.864437 -1.19887e-19)
(3.74502 -0.746464 -9.49805e-20)
(3.21152 -5.53411 -4.38333e-18)
(3.63167 -5.0818 6.89816e-18)
(4.10473 -4.37759 0)
(4.38096 -3.66029 -3.26842e-19)
(4.46561 -3.01064 -4.26436e-19)
(4.41875 -2.45509 -5.39654e-19)
(4.29297 -2.00033 6.29939e-19)
(4.12917 -1.63719 7.78769e-20)
(3.95403 -1.34956 -3.3552e-19)
(3.78216 -1.12334 0)
(3.61912 -0.954601 -2.62844e-19)
(1.06522 -4.30418 5.91844e-18)
(2.02874 -4.52379 -8.50558e-18)
(2.63249 -4.33051 5.46156e-18)
(3.1536 -3.91162 3.50439e-19)
(3.51068 -3.40305 1.03931e-18)
(3.70652 -2.88296 -2.90288e-19)
(3.77422 -2.40076 0)
(3.75278 -1.98283 0)
(3.67939 -1.63546 3.365e-19)
(3.58169 -1.35425 5.71331e-19)
(3.47118 -1.13822 -6.78084e-19)
(0.362716 -3.31913 0)
(0.958465 -3.53679 5.48468e-20)
(1.54881 -3.75958 6.54816e-18)
(2.1467 -3.70686 -4.89191e-18)
(2.63128 -3.42553 -6.00393e-19)
(2.97848 -3.03999 9.08139e-19)
(3.19813 -2.62408 9.3592e-19)
(3.31032 -2.22352 -1.00949e-18)
(3.34141 -1.86422 -3.00133e-18)
(3.31458 -1.55836 1.29826e-18)
(3.26092 -1.30867 2.03271e-20)
(0.238692 -2.80166 1.05913e-18)
(0.630444 -2.95721 8.68744e-19)
(0.904376 -3.13008 1.19673e-18)
(1.32853 -3.20015 -9.64958e-19)
(1.79811 -3.1488 2.59548e-18)
(2.22054 -2.95152 -2.86738e-18)
(2.54609 -2.6526 -1.11553e-19)
(2.77154 -2.31092 -8.15011e-19)
(2.91363 -1.96998 2.10661e-18)
(2.99529 -1.65537 7.4772e-19)
(3.01515 -1.39075 -8.75387e-19)
(0.266028 -2.39689 -2.92593e-18)
(0.564551 -2.49775 1.46554e-18)
(0.727933 -2.64847 -1.16335e-18)
(1.03116 -2.73372 8.96024e-19)
(1.37187 -2.73885 0)
(1.73031 -2.64295 1.81826e-18)
(2.06276 -2.45828 -9.46992e-20)
(2.33821 -2.21304 0)
(2.54538 -1.93982 1.13916e-18)
(2.68739 -1.66863 -2.98581e-18)
(2.76589 -1.42811 2.08355e-18)
(0.285374 -2.06528 -8.13003e-19)
(0.532798 -2.10522 1.32011e-18)
(0.645381 -2.22315 -2.05938e-18)
(0.870936 -2.30095 4.5321e-20)
(1.13458 -2.3309 0)
(1.4281 -2.29381 0)
(1.72376 -2.18741 -1.27098e-18)
(1.9947 -2.02318 -8.95654e-19)
(2.22327 -1.82074 1.16873e-18)
(2.4007 -1.60326 6.95055e-19)
(2.5176 -1.39493 -4.36653e-20)
(0.299469 -1.79622 7.65719e-19)
(0.519293 -1.79046 0)
(0.609813 -1.87408 0)
(0.788287 -1.93627 -1.36955e-18)
(0.998146 -1.96867 9.71163e-21)
(1.23826 -1.95846 1.63961e-18)
(1.49241 -1.90005 2.421e-18)
(1.74156 -1.79543 3.13041e-20)
(1.9695 -1.65351 6.28615e-19)
(2.16228 -1.49002 8.16781e-19)
(2.29973 -1.32792 -2.1908e-18)
(0.317889 -1.56407 0)
(0.519655 -1.52907 -5.257e-19)
(0.596409 -1.58693 -4.12705e-19)
(0.746643 -1.63411 6.58264e-19)
(0.9207 -1.66152 4.97213e-19)
(1.12134 -1.66114 -7.67514e-19)
(1.33927 -1.62838 -2.83369e-18)
(1.56209 -1.56174 -7.99054e-19)
(1.77755 -1.46368 1.74084e-18)
(1.97203 -1.34242 -8.02037e-19)
(2.12257 -1.21508 3.90039e-20)
(0.349833 -1.36701 0)
(0.536952 -1.30565 -2.3212e-19)
(0.598571 -1.34362 -3.62585e-19)
(0.727954 -1.3784 0)
(0.876457 -1.3993 -4.53925e-19)
(1.04844 -1.40126 1.06985e-18)
(1.23797 -1.3813 5.60391e-19)
(1.43681 -1.33725 -3.59654e-19)
(1.63634 -1.26836 -5.52324e-19)
(1.82505 -1.17737 0)
(1.97934 -1.07322 0)
(0.385991 -1.21338 0)
(0.556614 -1.11829 2.25121e-19)
(0.607198 -1.13587 1.8556e-19)
(0.721669 -1.15813 0)
(0.851715 -1.1713 -2.0889e-19)
(1.00298 -1.17181 1.61687e-19)
(1.17112 -1.15772 2.36057e-19)
(1.35035 -1.12705 -3.51554e-19)
(1.53469 -1.07809 5.1714e-19)
(1.71451 -1.01158 -7.32423e-19)
(1.86152 -0.93591 -2.28735e-19)
(0.409383 -1.07992 9.83793e-20)
(0.561182 -0.952492 -2.43732e-20)
(0.611934 -0.952578 1.22334e-19)
(0.719308 -0.963307 0)
(0.837913 -0.968518 -4.70585e-20)
(0.975249 -0.965683 3.61195e-20)
(1.12813 -0.953661 -2.31669e-19)
(1.29243 -0.930947 -8.27776e-20)
(1.46404 -0.895676 1.94519e-19)
(1.63558 -0.847199 9.34076e-20)
(1.78074 -0.789827 -5.89093e-20)
(0.427987 -0.943588 2.74442e-19)
(0.563402 -0.793376 -6.84484e-20)
(0.616484 -0.781838 -3.30979e-19)
(0.719321 -0.784028 1.16141e-19)
(0.83066 -0.782568 4.63557e-20)
(0.959098 -0.776114 -3.55991e-20)
(1.10186 -0.764365 2.5756e-20)
(1.25581 -0.746445 -9.94637e-20)
(1.41807 -0.720531 -7.17591e-20)
(1.58362 -0.684259 9.29204e-20)
(1.72861 -0.635847 -1.89914e-19)
(0.450044 -0.821821 -6.82165e-19)
(0.57336 -0.645394 8.07091e-19)
(0.62485 -0.621106 -1.36399e-19)
(0.722596 -0.614993 5.46791e-21)
(0.828608 -0.607383 1.5664e-19)
(0.951506 -0.597417 0)
(1.08806 -0.585343 1.91128e-19)
(1.23536 -0.570811 -1.45769e-19)
(1.39082 -0.552212 -2.04528e-19)
(1.55077 -0.526523 4.41935e-19)
(1.68927 -0.490936 2.18559e-19)
(0.464164 -0.711641 4.37355e-19)
(0.573452 -0.504474 0)
(0.629822 -0.466621 2.55532e-19)
(0.727175 -0.452216 6.05513e-19)
(0.831439 -0.438762 -3.24637e-19)
(0.952108 -0.425559 4.72995e-19)
(1.08581 -0.41318 -3.63478e-19)
(1.22956 -0.401895 2.60754e-19)
(1.38063 -0.390236 -5.59887e-19)
(1.53671 -0.374565 -2.99356e-19)
(1.67411 -0.34867 5.55046e-19)
(0.479717 -0.592318 1.91425e-19)
(0.572962 -0.359209 3.30781e-19)
(0.636513 -0.311659 -7.61255e-19)
(0.735172 -0.290744 -3.97677e-19)
(0.840052 -0.272326 0)
(0.961219 -0.256604 0)
(1.0949 -0.244803 6.32485e-19)
(1.23782 -0.237729 4.65181e-19)
(1.38628 -0.233772 1.08771e-18)
(1.53926 -0.22856 2.38403e-19)
(1.67426 -0.212548 -7.68145e-20)
(0.502245 -0.475982 -4.15268e-19)
(0.581629 -0.215717 2.26535e-20)
(0.650537 -0.156732 4.53031e-19)
(0.749462 -0.128275 -1.40335e-18)
(0.856118 -0.104854 1.47077e-20)
(0.980358 -0.0874208 4.1655e-19)
(1.1167 -0.0779082 -6.37056e-20)
(1.26071 -0.0771382 -3.02231e-20)
(1.40721 -0.0827316 -3.29614e-19)
(1.55643 -0.0894258 -8.79687e-19)
(1.68651 -0.0844511 -6.9274e-19)
(0.522729 -0.364827 -3.73976e-19)
(0.587131 -0.0745035 -2.55947e-19)
(0.666967 -0.000411778 -1.3434e-18)
(0.769818 0.0373221 7.26162e-19)
(0.882167 0.0656631 5.12622e-19)
(1.0126 0.0832187 -6.97178e-19)
(1.1538 0.087764 -5.82667e-19)
(1.29976 0.079094 1.14328e-18)
(1.44374 0.061451 2.49058e-19)
(1.58845 0.0409164 1.29961e-18)
(1.71231 0.0344461 2.86062e-19)
(0.547784 -0.246175 7.92057e-19)
(0.594043 0.0734887 1.1404e-18)
(0.690297 0.163381 3.92393e-19)
(0.801632 0.210437 -2.76289e-20)
(0.924705 0.24176 -4.93875e-20)
(1.06508 0.255547 1.07326e-19)
(1.21262 0.250097 3.4155e-20)
(1.35938 0.227446 -1.11609e-18)
(1.49825 0.195225 -1.05758e-18)
(1.63411 0.16089 -3.19824e-19)
(1.75236 0.143028 0)
(0.58494 -0.115123 -3.47567e-19)
(0.610381 0.23292 4.84676e-19)
(0.729418 0.338962 -1.09334e-18)
(0.854668 0.393848 5.27527e-19)
(0.99319 0.423476 -3.73358e-19)
(1.14548 0.426366 6.8972e-20)
(1.29762 0.403645 8.75223e-19)
(1.44036 0.362112 0)
(1.56853 0.313791 4.09191e-19)
(1.68929 0.26753 7.0369e-19)
(1.79874 0.239464 -4.78049e-19)
(0.638956 0.0296303 -1.38452e-18)
(0.64515 0.408303 9.15919e-19)
(0.795895 0.528315 -3.30931e-19)
(0.943345 0.585612 -5.29429e-19)
(1.10094 0.604069 1.0506e-19)
(1.26272 0.585154 0)
(1.41188 0.537169 0)
(1.54106 0.474064 9.60577e-19)
(1.65049 0.411122 -4.47081e-19)
(1.7501 0.356881 5.80688e-19)
(1.84447 0.321671 -8.24125e-19)
(0.761885 0.213572 -1.2912e-19)
(0.707057 0.605472 -7.77151e-19)
(0.917272 0.727488 5.77226e-19)
(1.0919 0.773435 -7.78511e-19)
(1.26428 0.76372 3.26526e-19)
(1.42286 0.710237 3.37731e-19)
(1.55321 0.633067 0)
(1.6554 0.552033 -4.7325e-19)
(1.7374 0.481293 -2.39988e-20)
(1.81175 0.426139 -7.0588e-21)
(1.88908 0.388194 4.11709e-19)
(0.71417 0.294706 1.49495e-18)
(0.866973 0.76874 -6.28363e-19)
(1.08048 0.898587 -3.14208e-20)
(1.29388 0.907129 1.22469e-19)
(1.47003 0.85259 3.19192e-20)
(1.6045 0.763172 0)
(1.69875 0.667543 0)
(1.76469 0.583503 8.03172e-20)
(1.8158 0.518566 3.09931e-19)
(1.86455 0.473872 -5.87539e-19)
(1.9244 0.443952 -3.64753e-19)
(2.4414 0.899095 0)
(1.4069 1.17668 3.3961e-20)
(1.84448 1.00487 5.4483e-20)
(1.87156 0.929262 2.54942e-20)
(1.88726 0.826225 -1.44873e-19)
(1.88755 0.721044 2.45543e-19)
(1.88357 0.63326 -1.23714e-19)
(1.88227 0.567105 -8.94309e-20)
(1.889 0.522262 -3.45315e-20)
(1.90688 0.498948 3.57191e-19)
(1.9447 0.487312 -2.99705e-19)
(8.14552 -2.87724 -6.49877e-18)
(6.35252 -1.1894 9.92246e-18)
(6.65454 -1.58641 -3.85388e-18)
(6.52671 -1.64826 -1.00501e-18)
(5.96826 -1.41674 7.82842e-19)
(5.45271 -1.20026 -1.15598e-19)
(5.00976 -0.996955 9.00317e-20)
(4.64695 -0.83633 5.12972e-20)
(4.33798 -0.706834 5.00675e-20)
(4.07242 -0.601631 -3.05257e-20)
(3.84377 -0.528996 0)
(5.30381 -1.91267 -1.46767e-18)
(4.3399 -0.169068 -4.11083e-18)
(5.55468 -0.215558 -2.06354e-18)
(6.15481 -0.368051 2.3856e-19)
(6.13456 -0.390499 4.30955e-18)
(5.83077 -0.411107 -5.03178e-19)
(5.32141 -0.405091 -6.05375e-19)
(4.87706 -0.378102 0)
(4.50355 -0.339185 1.50086e-19)
(4.18108 -0.29677 -1.23245e-19)
(3.90834 -0.265556 -1.37017e-20)
(2.34101 -2.64259 -9.90653e-19)
(2.97339 -0.863409 -1.81242e-18)
(4.26499 -0.0236407 0)
(5.16551 0.307002 1.2614e-18)
(5.62525 0.44458 0)
(5.72156 0.416703 0)
(5.44844 0.306045 0)
(5.00079 0.177349 -7.80254e-19)
(4.59782 0.100444 4.21805e-19)
(4.24974 0.0554835 -1.69888e-19)
(3.95825 0.0202854 0)
(0.572692 -5.39991 2.84613e-19)
(2.07959 -2.53272 0)
(3.15685 -0.783621 -4.57437e-18)
(4.12001 0.229853 3.34889e-18)
(4.84709 0.795036 2.09605e-18)
(5.25503 1.00296 2.58852e-18)
(5.26084 0.955173 2.31971e-18)
(4.96955 0.768032 -5.11562e-19)
(4.58028 0.575106 -1.79546e-18)
(4.23843 0.443974 2.8483e-19)
(3.94301 0.340891 -2.88825e-19)
(0.551672 -6.55648 2.04227e-18)
(1.43687 -3.99399 3.06643e-18)
(2.32801 -1.85604 -4.2992e-18)
(3.26037 -0.304325 -2.93567e-18)
(4.07343 0.723024 1.81355e-19)
(4.64671 1.27434 -4.85469e-18)
(4.86638 1.42122 1.81598e-18)
(4.75321 1.28591 -1.59143e-18)
(4.46126 1.04655 2.04089e-18)
(4.13537 0.831558 1.20272e-18)
(3.85779 0.663775 4.5965e-19)
(0.570964 -6.77861 -1.73146e-18)
(1.04422 -5.1752 1.38856e-18)
(1.74346 -2.91451 1.04525e-18)
(2.5848 -1.00865 2.88956e-18)
(3.38835 0.402168 1.94096e-18)
(4.02489 1.29547 -3.98478e-18)
(4.37666 1.69144 1.15024e-19)
(4.41129 1.68379 -4.03781e-18)
(4.22758 1.45998 1.10614e-19)
(3.96348 1.2014 -1.16847e-18)
(3.68466 0.982495 -7.78014e-19)
(0.631262 -6.9796 1.18807e-18)
(0.918049 -5.85351 1.54044e-18)
(1.33002 -3.88567 -1.90628e-18)
(2.04815 -1.78565 -4.16949e-18)
(2.79797 -0.060424 -9.0987e-19)
(3.43695 1.14618 1.438e-18)
(3.85503 1.80044 7.40633e-20)
(3.99458 1.95874 4.52924e-18)
(3.90797 1.79705 1.23518e-18)
(3.71313 1.52441 0)
(3.48619 1.25701 7.61374e-19)
(0.656222 -7.13711 0)
(0.879126 -6.22706 2.65372e-19)
(1.0554 -4.73605 3.60845e-18)
(1.62469 -2.5773 -1.50551e-18)
(2.29052 -0.603447 -2.90107e-18)
(2.89428 0.883763 7.08867e-19)
(3.33056 1.78635 -8.56306e-19)
(3.53489 2.12344 7.28265e-19)
(3.52712 2.05179 1.48062e-18)
(3.39686 1.79561 8.68786e-19)
(3.2469 1.49246 4.19507e-19)
(0.663152 -7.28946 1.3129e-18)
(0.870572 -6.50111 -1.44794e-20)
(0.913169 -5.33688 -1.47718e-18)
(1.29355 -3.32534 -1.53826e-19)
(1.85013 -1.18926 1.43944e-18)
(2.39287 0.541976 1.0056e-18)
(2.81294 1.67452 4.52946e-19)
(3.0492 2.18886 5.66738e-20)
(3.10301 2.22055 -2.2139e-18)
(3.03529 2.00001 6.20446e-20)
(2.94193 1.69225 0)
(0.661766 -7.43949 -1.24153e-18)
(0.853523 -6.72176 -1.9414e-20)
(0.830496 -5.70348 -3.95939e-19)
(1.04512 -3.95262 9.55548e-19)
(1.46898 -1.77743 -3.62416e-21)
(1.92718 0.146362 8.48608e-19)
(2.3051 1.48306 -1.49696e-18)
(2.5469 2.16328 -1.2184e-18)
(2.64524 2.30158 5.38145e-19)
(2.63508 2.12774 -1.36551e-18)
(2.60737 1.82871 0)
(0.651073 -7.56386 -1.43393e-19)
(0.8218 -6.91473 9.36094e-19)
(0.761075 -5.9914 -7.42877e-19)
(0.860208 -4.47737 1.53889e-19)
(1.14198 -2.34794 2.34157e-19)
(1.49286 -0.290936 -1.63939e-19)
(1.8073 1.21965 2.36127e-19)
(2.03412 2.04937 3.89152e-19)
(2.16315 2.29198 5.44698e-20)
(2.20727 2.17308 5.66359e-19)
(2.23107 1.8994 -7.82881e-20)
(0.610343 -7.67257 1.39686e-19)
(0.762465 -7.08567 -2.18558e-19)
(0.69509 -6.22675 -1.76086e-19)
(0.713311 -4.89505 -1.48158e-19)
(0.856643 -2.87738 -2.29411e-19)
(1.08716 -0.750361 -1.68e-19)
(1.32225 0.89634 -2.34918e-19)
(1.51847 1.85117 4.63516e-19)
(1.66709 2.1892 0)
(1.76442 2.12948 3.317e-19)
(1.83798 1.89033 -7.75201e-20)
(0.573813 -7.76801 5.21019e-19)
(0.70372 -7.22137 2.15393e-19)
(0.62262 -6.41942 -1.20935e-18)
(0.577565 -5.20615 2.80183e-18)
(0.602279 -3.34551 -1.77609e-18)
(0.707088 -1.21723 1.59394e-20)
(0.85152 0.51999 3.60471e-20)
(1.00736 1.56908 3.50471e-19)
(1.16814 1.98943 0)
(1.31486 1.99204 -4.25849e-19)
(1.46561 1.79499 -3.32609e-19)
(0.546282 -7.83357 1.52149e-18)
(0.63563 -7.32479 -1.64672e-18)
(0.533097 -6.5845 1.30381e-18)
(0.433116 -5.4692 -5.50427e-19)
(0.36551 -3.76705 8.49183e-19)
(0.351187 -1.69051 6.53519e-19)
(0.396653 0.091679 -9.16659e-19)
(0.508724 1.1994 0)
(0.680174 1.6878 0)
(0.873416 1.75561 0)
(1.09434 1.61461 4.80167e-19)
(0.51862 -7.86797 0)
(0.547871 -7.39421 -1.58442e-18)
(0.424846 -6.71376 1.25427e-18)
(0.271705 -5.69553 0)
(0.129559 -4.14417 -8.61134e-19)
(0.0206369 -2.16538 0)
(-0.0346097 -0.391995 -3.85433e-20)
(0.0294232 0.744128 -1.21378e-18)
(0.218313 1.28216 1.25812e-18)
(0.457976 1.41526 0)
(0.733707 1.34358 0)
(0.49482 -7.87059 -9.24116e-19)
(0.447168 -7.41714 0)
(0.300631 -6.77611 0)
(0.101224 -5.86921 0)
(-0.125069 -4.54016 0)
(-0.307142 -2.64013 0)
(-0.430095 -0.928054 1.67101e-19)
(-0.40535 0.202715 0)
(-0.204766 0.767521 -1.31744e-18)
(0.0858759 0.966944 -7.81459e-19)
(0.436592 0.976833 -5.68057e-19)
(0.471162 -7.8279 7.83414e-20)
(0.335161 -7.39645 -1.43531e-18)
(0.16164 -6.79393 0)
(-0.0850104 -5.97125 0)
(-0.380842 -4.84279 0)
(-0.623732 -3.20163 0)
(-0.792887 -1.51809 1.5681e-18)
(-0.783654 -0.440908 0)
(-0.565429 0.140001 1.97977e-18)
(-0.236042 0.406758 -2.19515e-19)
(0.194611 0.514108 -3.13605e-19)
(0.438359 -7.72323 9.33437e-19)
(0.204051 -7.32018 0)
(-0.00520293 -6.76441 -1.00851e-18)
(-0.297647 -6.03443 0)
(-0.633566 -5.06901 -2.61985e-18)
(-0.925792 -3.77857 2.00727e-18)
(-1.11269 -2.22255 0)
(-1.09113 -1.18593 -1.31788e-18)
(-0.842401 -0.602745 9.7401e-19)
(-0.481208 -0.262888 -5.57134e-19)
(0.00563887 -0.0281245 0)
(0.384726 -7.53881 3.42821e-18)
(0.0422242 -7.1696 -2.49687e-18)
(-0.215606 -6.67602 1.48797e-19)
(-0.554344 -6.06551 0)
(-0.911275 -5.29601 1.084e-18)
(-1.20989 -4.31453 -1.56324e-18)
(-1.37433 -3.08707 1.17594e-18)
(-1.31304 -2.04452 9.86449e-19)
(-1.02535 -1.45923 -1.13924e-18)
(-0.640108 -1.03743 8.35904e-19)
(-0.118766 -0.65017 -1.92429e-19)
(0.287478 -7.24223 0)
(-0.16853 -6.91736 2.40373e-18)
(-0.493085 -6.52271 1.00035e-18)
(-0.869497 -6.08866 1.37452e-18)
(-1.21483 -5.57592 -3.13403e-18)
(-1.44614 -4.90893 6.03063e-20)
(-1.53166 -4.03711 -3.01718e-18)
(-1.40242 -3.0939 1.67416e-18)
(-1.06821 -2.44485 -2.86534e-20)
(-0.68759 -1.92607 5.47411e-20)
(-0.22128 -1.40188 0)
(0.0372092 -6.7577 -6.64806e-19)
(-0.536229 -6.49455 -7.3239e-19)
(-0.973171 -6.24655 0)
(-1.36004 -6.0381 -2.39692e-18)
(-1.61007 -5.81151 3.61228e-18)
(-1.68758 -5.4417 8.02181e-19)
(-1.61099 -4.8867 7.15474e-19)
(-1.37718 -4.17547 -2.57765e-19)
(-0.982298 -3.41182 2.28489e-19)
(-0.62164 -2.78028 2.18706e-19)
(-0.138624 -2.08306 3.0362e-20)
(-0.798326 -5.79543 -2.63617e-19)
(-1.23552 -5.53829 2.00072e-18)
(-1.33821 -5.54014 -4.10898e-19)
(-1.38881 -5.62011 -1.88647e-18)
(-1.20526 -5.54571 9.52265e-19)
(-0.805151 -5.11461 -5.72609e-19)
(-0.335329 -4.38785 0)
(0.0484625 -3.66395 0)
(0.376653 -2.91959 -4.25819e-20)
(0.640818 -2.20422 4.11653e-19)
(0.914014 -1.48815 -5.9467e-19)
(-1.87072 -4.4055 -2.73832e-18)
(-0.139843 -3.72093 -2.89613e-18)
(-0.335319 -3.53943 3.43834e-18)
(0.0867647 -3.05062 7.50804e-19)
(0.59617 -2.50603 6.92443e-19)
(1.01931 -2.07282 -4.28895e-19)
(1.32498 -1.64656 -3.18257e-19)
(1.50439 -1.21852 2.11758e-19)
(1.60544 -0.807668 -1.74977e-19)
(1.66891 -0.447113 3.13434e-19)
(1.72984 -0.0969097 -1.49828e-19)
(0.851871 -0.189164 1.23432e-17)
(0.0870158 -0.241989 -4.88189e-18)
(0.728997 -0.0928436 -2.48074e-19)
(1.26177 0.0420565 0)
(1.59145 0.122283 4.05715e-19)
(1.78084 0.182014 -1.96144e-19)
(1.87534 0.238779 7.32668e-21)
(1.90564 0.293235 -4.73334e-20)
(1.91128 0.345309 9.47762e-20)
(1.91513 0.399629 -1.07196e-19)
(1.92934 0.470963 -4.21082e-20)
(1.01689 5.83596 0)
(1.22056 4.10671 -6.92834e-19)
(1.31594 3.45729 -4.82719e-19)
(1.46223 2.72001 5.43768e-19)
(1.62221 2.17058 -3.37751e-19)
(1.78443 1.76181 0)
(1.93283 1.46254 -4.7635e-19)
(2.06733 1.23884 9.00942e-19)
(2.19314 1.0688 0)
(2.31469 0.940639 0)
(2.42469 0.853455 0)
(2.62328 5.01593 3.41326e-18)
(3.1844 2.39031 0)
(2.93113 3.32155 1.0368e-18)
(2.69726 2.78518 2.53367e-20)
(2.49275 2.38405 -6.4448e-20)
(2.38557 1.97084 -1.08722e-19)
(2.35951 1.63008 -3.1623e-19)
(2.38629 1.36171 -2.43242e-19)
(2.44586 1.15767 1.79953e-19)
(2.52646 1.00645 -3.902e-20)
(2.61634 0.905557 -1.84482e-19)
(2.70654 3.21758 -2.23484e-18)
(3.72946 0.697041 1.30887e-18)
(3.8327 2.41362 -1.58746e-18)
(3.63036 2.09328 4.7348e-19)
(3.31336 2.08146 -2.09075e-19)
(3.03065 1.85346 3.00907e-19)
(2.83977 1.60897 -4.00239e-19)
(2.74041 1.37361 -1.79416e-19)
(2.71413 1.17634 3.26863e-20)
(2.74171 1.0229 1.46168e-20)
(2.80693 0.921977 -1.97078e-20)
(2.02214 1.85524 4.13214e-18)
(3.43679 -0.201339 -5.2068e-18)
(3.98601 1.44953 2.80297e-18)
(4.00192 1.14788 -6.4361e-19)
(3.80903 1.49188 0)
(3.51401 1.45152 0)
(3.25678 1.37488 1.16036e-18)
(3.07324 1.24089 -2.17555e-19)
(2.97263 1.10095 2.41683e-19)
(2.94612 0.977069 -5.64741e-20)
(2.97816 0.891159 1.10898e-19)
(1.19836 1.09129 -8.43663e-18)
(2.81366 -0.541619 6.26499e-18)
(3.67103 0.723778 0)
(3.9199 0.371574 -1.05725e-18)
(3.93421 0.877483 -2.51349e-19)
(3.73003 0.93364 2.44703e-19)
(3.50879 1.01144 -1.25269e-18)
(3.31109 0.992028 3.83698e-19)
(3.17631 0.936968 2.23771e-19)
(3.11321 0.867949 -4.68859e-20)
(3.11446 0.818267 -4.36123e-19)
(0.439076 0.693968 6.07588e-18)
(2.14196 -0.625208 0)
(3.17635 0.247595 -7.07521e-19)
(3.60278 -0.124409 4.95997e-19)
(3.79588 0.375554 7.08468e-19)
(3.71069 0.455404 4.07675e-19)
(3.57673 0.628594 1.83996e-19)
(3.41749 0.693158 -3.43304e-20)
(3.29116 0.718377 -3.48754e-19)
(3.21852 0.710912 0)
(3.20372 0.704944 3.46748e-19)
(-0.262637 0.522454 -5.02055e-18)
(1.50137 -0.5772 3.29541e-18)
(2.64697 -0.0429245 -2.12527e-18)
(3.20784 -0.404937 -6.85918e-19)
(3.52473 0.0173553 0)
(3.547 0.0847282 0)
(3.50456 0.296181 0)
(3.40323 0.405164 -1.35761e-19)
(3.31178 0.487087 8.00052e-19)
(3.25267 0.529807 5.10021e-20)
(3.24085 0.564184 9.88157e-20)
(-0.903206 0.524224 0)
(0.910267 -0.440202 2.69647e-18)
(2.13078 -0.191615 -1.78046e-18)
(2.80519 -0.54196 2.02599e-19)
(3.21043 -0.218184 -2.12297e-18)
(3.31648 -0.170937 1.63818e-18)
(3.34792 0.0373812 0)
(3.3045 0.16067 -1.45184e-19)
(3.25477 0.27545 -2.0044e-19)
(3.22062 0.352385 -1.54787e-20)
(3.22308 0.41577 -1.352e-19)
(-1.45451 0.640079 1.69197e-19)
(0.366927 -0.252512 2.21178e-18)
(1.63843 -0.235565 -1.69217e-18)
(2.41506 -0.58101 -2.92494e-19)
(2.89133 -0.360482 2.19916e-19)
(3.06632 -0.334189 1.27931e-18)
(3.15217 -0.149075 -1.85804e-18)
(3.15587 -0.0280435 1.22291e-18)
(3.14442 0.0975444 -6.26666e-19)
(3.13642 0.193043 -4.34662e-19)
(3.15476 0.275537 3.34178e-19)
(-1.94348 0.815518 -2.61326e-18)
(-0.161008 -0.0368773 1.82848e-18)
(1.15542 -0.201608 -2.77363e-18)
(2.03031 -0.552342 2.66844e-18)
(2.57529 -0.434873 1.69758e-18)
(2.81509 -0.4295 -1.192e-18)
(2.94381 -0.277193 0)
(2.98446 -0.166325 0)
(3.00293 -0.0426758 -8.40215e-19)
(3.01745 0.059808 5.1049e-19)
(3.05157 0.149805 2.78805e-19)
(-2.40329 1.05658 1.81999e-18)
(-0.676387 0.212514 0)
(0.676916 -0.100351 -2.59976e-18)
(1.64459 -0.474112 3.30678e-18)
(2.26183 -0.4562 -3.02784e-18)
(2.56758 -0.475833 -3.95535e-19)
(2.73488 -0.360467 5.71612e-20)
(2.80573 -0.26384 5.15415e-19)
(2.84636 -0.149019 9.61642e-19)
(2.87793 -0.0452146 0)
(2.92227 0.0439219 2.35862e-19)
(-2.80925 1.34303 1.99136e-18)
(-1.15676 0.481171 -3.04056e-19)
(0.218015 0.0531294 2.69025e-19)
(1.26504 -0.358766 1.83572e-18)
(1.95413 -0.434622 -2.26048e-18)
(2.3254 -0.486322 9.18625e-19)
(2.53026 -0.409703 -1.16541e-18)
(2.62718 -0.330113 4.94509e-19)
(2.68397 -0.228017 -6.10303e-19)
(2.72668 -0.127904 0)
(2.77529 -0.0415163 -9.5834e-19)
(-3.13428 1.62103 0)
(-1.59859 0.743268 -1.94446e-18)
(-0.221507 0.23661 1.81994e-20)
(0.888923 -0.219322 9.53043e-19)
(1.64727 -0.382546 0)
(2.0842 -0.472277 -3.1401e-19)
(2.32837 -0.434986 5.38958e-19)
(2.45033 -0.373959 -3.07258e-19)
(2.52019 -0.285784 1.47183e-18)
(2.57068 -0.191844 -9.73208e-19)
(2.62172 -0.109479 1.28327e-19)
(-3.40087 1.88459 -2.41763e-18)
(-2.01416 1.00261 5.39446e-19)
(-0.656454 0.444229 2.34567e-20)
(0.499915 -0.0599412 1.15182e-18)
(1.32597 -0.306533 0)
(1.83164 -0.440437 0)
(2.12102 -0.443375 0)
(2.27125 -0.402047 -6.03928e-19)
(2.35482 -0.327322 -4.05571e-19)
(2.41209 -0.239401 0)
(2.46339 -0.159481 7.2715e-19)
(-3.62857 2.13404 -3.1985e-18)
(-2.39389 1.25256 3.25639e-18)
(-1.07981 0.668487 -2.96904e-20)
(0.100551 0.117184 -2.05551e-18)
(0.986849 -0.207408 1.15887e-18)
(1.56049 -0.391308 -5.01496e-20)
(1.90022 -0.436401 0)
(2.08378 -0.416957 5.18123e-19)
(2.1845 -0.355643 5.74395e-21)
(2.24911 -0.274598 0)
(2.29956 -0.197328 0)
(-3.79032 2.33924 -3.61497e-18)
(-2.72472 1.4819 3.5124e-18)
(-1.4896 0.901178 -1.30147e-18)
(-0.312238 0.312124 0)
(0.622332 -0.0837183 3.65426e-19)
(1.26077 -0.321934 -1.47286e-18)
(1.65527 -0.411993 3.89257e-19)
(1.87888 -0.417695 4.8679e-19)
(2.00353 -0.370693 3.32551e-19)
(2.08055 -0.297033 -7.13836e-19)
(2.13626 -0.220568 2.70792e-19)
(-3.90487 2.52709 3.07535e-19)
(-3.01385 1.70262 1.62359e-18)
(-1.89026 1.1466 -4.75738e-20)
(-0.746958 0.533115 -9.02997e-19)
(0.220351 0.0721652 -6.08505e-19)
(0.918705 -0.22458 4.63219e-19)
(1.37215 -0.363663 -8.87787e-19)
(1.64439 -0.399133 -4.67065e-21)
(1.80326 -0.369134 -4.60801e-19)
(1.90123 -0.305126 9.62324e-19)
(1.96887 -0.230964 1.70504e-19)
(-3.96491 2.66698 1.15541e-18)
(-3.25049 1.90476 0)
(-2.26826 1.3993 1.12656e-18)
(-1.19632 0.782615 -1.65559e-18)
(-0.220842 0.267384 3.33105e-19)
(0.526402 -0.089104 0)
(1.03878 -0.280485 4.75315e-19)
(1.36763 -0.351171 -3.58191e-19)
(1.5732 -0.343313 1.62027e-19)
(1.70445 -0.29373 -3.59844e-19)
(1.79273 -0.228921 1.15586e-19)
(-3.99264 2.78272 0)
(-3.43699 2.09493 1.32642e-18)
(-2.61184 1.65421 -1.01333e-18)
(-1.65193 1.05995 1.85074e-19)
(-0.703857 0.508442 1.61324e-19)
(0.0729936 0.0972768 0)
(0.640311 -0.146192 0)
(1.03328 -0.25764 -2.15553e-19)
(1.29973 -0.280151 -4.25417e-21)
(1.48033 -0.253225 9.27335e-20)
(1.60565 -0.203493 4.57332e-20)
(-4.00034 2.89052 0)
(-3.58174 2.27237 -1.28523e-18)
(-2.91402 1.9011 1.04259e-18)
(-2.1041 1.35641 -1.97743e-19)
(-1.23156 0.800898 5.83685e-19)
(-0.455063 0.353704 -3.36619e-19)
(0.15948 0.06381 0)
(0.623623 -0.0931323 0)
(0.96505 -0.159009 -1.95459e-20)
(1.21093 -0.168893 0)
(1.38865 -0.144828 7.03624e-21)
(-3.98118 2.99069 1.10285e-19)
(-3.6961 2.42969 1.4015e-19)
(-3.18276 2.1249 1.03612e-18)
(-2.55225 1.65884 0)
(-1.80629 1.15197 3.8162e-19)
(-1.06653 0.709868 -2.82101e-19)
(-0.416641 0.387491 0)
(0.121338 0.177435 -4.69903e-22)
(0.547424 0.0502941 2.48535e-20)
(0.869805 -0.0173459 -2.03165e-20)
(1.11293 -0.039343 -6.81452e-21)
(-3.91196 2.88859 -4.62472e-18)
(-3.76572 2.48031 1.66978e-19)
(-3.45394 2.27292 1.07172e-18)
(-2.9982 1.9413 5.69483e-19)
(-2.40733 1.5674 -1.4685e-19)
(-1.74001 1.19525 -2.88465e-19)
(-1.0782 0.867083 6.33152e-20)
(-0.479759 0.598382 1.81523e-21)
(0.024326 0.393805 1.91573e-20)
(0.424863 0.249618 0)
(0.759556 0.176108 0)
(-4.13737 3.17862 -2.84292e-18)
(-3.89727 2.73098 8.09508e-20)
(-3.66049 2.6002 1.56518e-19)
(-3.31766 2.41102 -4.15544e-19)
(-2.87241 2.18081 2.94667e-19)
(-2.32751 1.88632 -2.87838e-21)
(-1.73018 1.54738 -2.49419e-20)
(-1.14536 1.20784 0)
(-0.621136 0.908091 -2.16159e-20)
(-0.193954 0.667237 8.18165e-20)
(0.232016 0.495595 0)
(-2.01966 1.64223 0)
(-2.38977 1.68516 6.66684e-19)
(-2.24464 1.87591 -8.29743e-19)
(-2.1905 2.01948 1.60066e-20)
(-2.11231 2.12772 4.4229e-20)
(-1.98125 2.15909 -5.0102e-20)
(-1.76042 2.08006 6.63396e-20)
(-1.43002 1.88871 0)
(-1.06025 1.64407 1.40448e-19)
(-0.711046 1.38687 -1.32968e-19)
(-0.290444 1.08141 0)
(-2.35478 3.037 9.13745e-19)
(-1.57496 2.36801 -5.15257e-19)
(-0.341248 2.0547 4.45025e-19)
(0.416826 1.81522 -9.18735e-19)
(0.927571 1.59079 3.14247e-19)
(1.29154 1.3866 2.29628e-19)
(1.55999 1.21133 -5.32728e-19)
(1.76762 1.06436 1.83538e-20)
(1.9383 0.943841 -2.53446e-19)
(2.0854 0.847791 0)
(2.21031 0.777067 -1.80802e-19)
(-1.8841 -1.74155 -6.36137e-18)
(-1.3196 -0.376801 -4.09449e-19)
(-0.91904 0.391073 3.81427e-18)
(-0.259683 0.848337 2.51386e-18)
(0.346185 1.01367 -1.50218e-18)
(0.824324 1.02224 0)
(1.1875 0.96982 1.56065e-19)
(1.4623 0.892826 -1.14331e-19)
(1.67652 0.814836 8.38012e-20)
(1.84862 0.745421 0)
(1.98178 0.688734 7.46114e-20)
(-1.04198 -2.57432 3.96309e-18)
(-0.360896 -1.34707 5.92391e-19)
(-0.573762 -1.03815 -5.99337e-18)
(-0.321437 -0.398688 4.47178e-18)
(0.0186781 0.104298 0)
(0.451265 0.440755 -1.59057e-18)
(0.848639 0.599302 1.42253e-18)
(1.17673 0.650665 0)
(1.43434 0.648632 -2.99448e-19)
(1.63144 0.623147 2.16734e-19)
(1.77353 0.587491 1.04152e-19)
(-0.164842 -2.67876 1.28079e-18)
(0.640828 -1.53924 4.35838e-18)
(0.111908 -1.58639 -3.22336e-18)
(0.138995 -1.02697 0)
(0.196035 -0.583819 2.23187e-18)
(0.410432 -0.182216 -1.6631e-18)
(0.689808 0.109681 2.15465e-19)
(0.964936 0.289949 0)
(1.21347 0.389591 -6.21963e-19)
(1.41871 0.437437 4.51788e-19)
(1.57084 0.451958 -2.20788e-19)
(0.52452 -2.46564 7.24492e-20)
(1.35977 -1.51581 1.8402e-18)
(0.771898 -1.76897 -1.48587e-18)
(0.719284 -1.30184 0)
(0.609594 -0.972562 0)
(0.653774 -0.58373 0)
(0.788801 -0.264708 -2.18667e-19)
(0.972104 -0.0229892 -9.70795e-19)
(1.16531 0.140195 4.15772e-19)
(1.34003 0.241843 3.53265e-19)
(1.47227 0.296225 -4.65461e-19)
(0.999889 -2.15588 4.49829e-19)
(1.81425 -1.39545 -3.23367e-19)
(1.28181 -1.73389 -6.10317e-19)
(1.22321 -1.34172 3.3381e-19)
(1.03977 -1.146 0)
(0.983579 -0.819545 0)
(1.00024 -0.530661 1.62411e-18)
(1.08422 -0.276675 -5.00692e-19)
(1.20134 -0.0804721 2.88379e-19)
(1.3233 0.0599951 0)
(1.41947 0.149538 -2.188e-19)
(1.31261 -1.83295 -9.17664e-19)
(2.08904 -1.24042 -2.35592e-19)
(1.63907 -1.60212 8.54599e-19)
(1.59486 -1.25619 9.91791e-20)
(1.3952 -1.17498 0)
(1.30072 -0.907081 1.25186e-19)
(1.23909 -0.676541 -1.9533e-19)
(1.24459 -0.443442 2.14242e-19)
(1.29002 -0.246667 -4.13678e-19)
(1.35642 -0.0928943 0)
(1.41382 0.0114479 -3.12924e-19)
(1.52669 -1.54155 0)
(2.25007 -1.10495 1.39823e-18)
(1.88516 -1.44355 -7.44686e-19)
(1.8603 -1.12724 -3.28131e-19)
(1.65257 -1.12663 8.56032e-20)
(1.56211 -0.89815 -9.72325e-20)
(1.4583 -0.72705 -2.54814e-19)
(1.4119 -0.528738 0)
(1.40056 -0.350355 0)
(1.41619 -0.200369 0)
(1.43556 -0.0912004 3.07672e-19)
(1.6898 -1.28771 1.34725e-18)
(2.36527 -0.993854 3.47724e-19)
(2.04178 -1.29007 -1.61603e-18)
(2.06289 -0.991846 7.69638e-20)
(1.84216 -1.03474 2.5093e-19)
(1.75981 -0.842155 1.57564e-19)
(1.63852 -0.716305 6.06333e-20)
(1.56245 -0.552408 -2.26297e-19)
(1.51169 -0.399909 1.15666e-19)
(1.48666 -0.264604 0)
(1.47012 -0.163959 -1.48556e-19)
(1.80435 -1.08038 -2.1348e-19)
(2.47939 -0.872018 1.81229e-18)
(2.15545 -1.13621 1.42557e-18)
(2.20325 -0.875914 -8.81044e-19)
(1.99027 -0.923137 1.87263e-19)
(1.90984 -0.76188 -1.20081e-19)
(1.78068 -0.669072 -9.64138e-20)
(1.68805 -0.534158 8.43827e-20)
(1.61169 -0.407751 0)
(1.55762 -0.290647 0)
(1.51325 -0.200359 2.56018e-19)
(1.86255 -0.917543 -7.09079e-19)
(2.56573 -0.741232 3.95921e-20)
(2.25647 -0.983861 0)
(2.30354 -0.756974 -4.44552e-19)
(2.10273 -0.807002 2.94108e-19)
(2.024 -0.668399 0)
(1.89093 -0.600577 4.519e-19)
(1.78877 -0.488936 -2.83363e-19)
(1.69601 -0.386201 0)
(1.62325 -0.286727 -3.34245e-20)
(1.56235 -0.207302 1.89302e-20)
(1.88727 -0.776678 -3.47088e-19)
(2.61578 -0.611331 -4.64373e-19)
(2.33197 -0.843582 0)
(2.37728 -0.635637 6.72288e-19)
(2.18578 -0.690623 -8.42443e-19)
(2.10937 -0.567701 5.6365e-19)
(1.97441 -0.51979 -8.08843e-19)
(1.8669 -0.426703 5.31811e-19)
(1.76349 -0.34502 0)
(1.67795 -0.262748 -6.88828e-20)
(1.60497 -0.195886 -2.68586e-20)
(1.89999 -0.64472 -1.32204e-18)
(2.65082 -0.480396 1.03935e-18)
(2.38378 -0.714403 6.68641e-19)
(2.43099 -0.513615 -1.42192e-18)
(2.24446 -0.57642 7.09381e-19)
(2.17123 -0.463158 1.93817e-19)
(2.03478 -0.43252 0)
(1.92455 -0.354188 -2.49426e-19)
(1.81419 -0.291424 0)
(1.72052 -0.225266 1.01719e-19)
(1.63657 -0.176451 0)
(1.89732 -0.503215 -1.33278e-18)
(2.66336 -0.342081 1.04508e-18)
(2.42106 -0.582907 -1.7985e-19)
(2.46449 -0.394892 -1.16315e-18)
(2.28493 -0.461053 1.05923e-19)
(2.21217 -0.358624 4.81715e-19)
(2.07554 -0.341136 -2.38166e-19)
(1.96351 -0.276348 -8.75046e-20)
(1.84857 -0.230709 2.04889e-19)
(1.74999 -0.179788 0)
(1.66116 -0.14557 -3.8696e-20)
(1.87007 -0.36395 0)
(2.64964 -0.213048 9.3525e-19)
(2.44207 -0.453081 -5.62031e-19)
(2.47833 -0.281694 -1.20236e-19)
(2.30999 -0.34381 0)
(2.2337 -0.256227 0)
(2.09884 -0.246742 1.76866e-19)
(1.98464 -0.196483 -4.59986e-20)
(1.86704 -0.166003 -1.06921e-19)
(1.76478 -0.131214 -7.58334e-20)
(1.6739 -0.111686 6.21574e-20)
(1.83599 -0.228543 1.31056e-18)
(2.61721 -0.0899399 -1.01941e-18)
(2.44928 -0.323768 -6.56445e-19)
(2.47563 -0.173057 6.44668e-19)
(2.3207 -0.226213 6.23865e-19)
(2.23824 -0.155998 -4.88943e-19)
(2.10607 -0.151493 5.96628e-20)
(1.98939 -0.11676 -1.48774e-19)
(1.87048 -0.100266 1.15984e-19)
(1.7655 -0.0821617 -5.44838e-21)