/*--------------------------------*- C++ -*----------------------------------*\
| =========                 |                                                 |
| \\      /  F ield         | OpenFOAM: The Open Source CFD Toolbox           |
|  \\    /   O peration     | Version:  3.0.1                                 |
|   \\  /    A nd           | Web:      www.OpenFOAM.org                      |
|    \\/     M anipulation  |                                                 |
\*---------------------------------------------------------------------------*/
FoamFile
{
    version     2.0;
    format      ascii;
    class       volScalarField;
    location    "0.394482";
    object      k;
}
// * * * * * * * * * * * * * * * * * * * * * * * * * * * * * * * * * * * * * //

dimensions      [0 2 -2 0 0 0 0];

internalField   nonuniform List<scalar> 
21246
(
0.89156
1.28094
1.01263
0.712363
0.456994
0.275118
0.162256
0.0951289
0.0553359
0.0321158
0.0190813
0.655577
0.955154
0.865454
0.64846
0.43241
0.268824
0.161069
0.0945191
0.0547493
0.0315812
0.0186591
0.472406
0.797639
0.771969
0.624762
0.439485
0.281475
0.170672
0.100059
0.0573641
0.0326894
0.0192274
0.381526
0.681461
0.699625
0.599474
0.443093
0.293664
0.181764
0.108024
0.0623834
0.035505
0.0206443
0.320578
0.553111
0.595165
0.549084
0.433881
0.302167
0.19208
0.115345
0.0666242
0.0374567
0.0211473
0.2894
0.477003
0.515985
0.484914
0.396385
0.286536
0.187864
0.115299
0.0677546
0.038834
0.0226114
0.269915
0.425306
0.46041
0.433643
0.357158
0.262314
0.176194
0.111193
0.0670276
0.039104
0.0228441
0.25675
0.386845
0.417072
0.391913
0.324117
0.240567
0.16425
0.105779
0.0651752
0.0388976
0.0235851
0.246872
0.356455
0.382098
0.357676
0.29607
0.221167
0.152865
0.100178
0.0630561
0.0384788
0.0237218
0.238453
0.331094
0.353378
0.329963
0.273277
0.205097
0.143108
0.0951251
0.0609359
0.0378115
0.0234039
0.231182
0.309509
0.329518
0.307444
0.254952
0.192157
0.135134
0.090845
0.0589852
0.0370944
0.023492
0.225496
0.291388
0.309634
0.288886
0.240039
0.18173
0.128729
0.087391
0.0574057
0.0365645
0.0234778
0.22101
0.275917
0.293023
0.273768
0.228206
0.173671
0.123905
0.0848751
0.056348
0.0362961
0.0234464
0.217134
0.262363
0.27909
0.261765
0.219331
0.167976
0.120729
0.0833864
0.0558486
0.0362611
0.0236624
0.214278
0.250688
0.267359
0.252166
0.212793
0.164265
0.119028
0.0828793
0.0559268
0.0364945
0.0237529
0.21239
0.240396
0.257516
0.244795
0.208548
0.162595
0.118917
0.0834714
0.0566842
0.0370905
0.0240677
0.211308
0.230992
0.249224
0.239586
0.206778
0.163259
0.120678
0.0853898
0.0582949
0.0381621
0.0246556
0.211314
0.222408
0.24199
0.236168
0.207377
0.166338
0.124506
0.0888491
0.0609564
0.0398805
0.0256189
0.212588
0.214479
0.235211
0.23335
0.209449
0.171713
0.130718
0.0942411
0.0650182
0.0425871
0.0272683
0.215415
0.206846
0.228603
0.230901
0.212425
0.178632
0.138825
0.101449
0.0705994
0.0466054
0.0298803
0.220371
0.199339
0.221723
0.22833
0.21565
0.186467
0.148545
0.110656
0.0781834
0.052481
0.034055
0.229292
0.191226
0.214496
0.22467
0.217759
0.193861
0.159087
0.121895
0.0884469
0.0611439
0.0407598
0.241152
0.182961
0.204549
0.219805
0.21837
0.200005
0.169747
0.135065
0.102028
0.0737141
0.0513788
0.261361
0.18954
0.210904
0.212438
0.211495
0.199139
0.176445
0.147836
0.118114
0.0905927
0.0672299
0.849887
1.24595
1.04121
0.80914
0.579415
0.354361
0.206858
0.118229
0.066617
0.0377812
0.0221788
0.709484
0.933887
0.946099
0.824675
0.652548
0.45248
0.281065
0.15735
0.0888541
0.0494155
0.0277356
0.407248
0.734831
0.828424
0.78536
0.670133
0.50841
0.342488
0.205424
0.117654
0.066075
0.0364371
0.343451
0.783011
0.799078
0.75755
0.669097
0.537281
0.386773
0.24821
0.149214
0.0875115
0.0498917
0.391063
0.921682
0.961366
0.82488
0.695225
0.561975
0.420173
0.28476
0.179131
0.109953
0.0678168
0.402208
0.892759
1.19747
1.03722
0.7996
0.611556
0.454662
0.317239
0.207435
0.131761
0.086007
0.406962
0.853311
1.29419
1.35156
1.02896
0.724351
0.509045
0.351792
0.234592
0.15311
0.102714
0.41032
0.821211
1.26298
1.61829
1.38331
0.936572
0.606802
0.398214
0.262823
0.173873
0.119422
0.413277
0.796302
1.2222
1.6628
1.71095
1.23614
0.764055
0.467257
0.296053
0.19469
0.13539
0.41471
0.768186
1.17241
1.6226
1.91668
1.5674
0.977137
0.564267
0.337612
0.216509
0.150584
0.415556
0.738158
1.11489
1.54504
1.93459
1.82521
1.20999
0.682267
0.387206
0.239692
0.165362
0.417061
0.707525
1.04984
1.43901
1.84642
1.94717
1.40483
0.797662
0.437496
0.262614
0.179377
0.42083
0.684485
0.985031
1.31804
1.69939
1.92458
1.51478
0.87992
0.476646
0.282035
0.19211
0.427037
0.667351
0.922845
1.19226
1.514
1.78094
1.51584
0.905738
0.493805
0.294653
0.203392
0.437046
0.658815
0.868228
1.07002
1.30594
1.55123
1.42745
0.866713
0.484212
0.299339
0.213761
0.448586
0.657007
0.818899
0.954698
1.10061
1.24157
1.24823
0.791937
0.453347
0.298725
0.224337
0.461487
0.661115
0.772654
0.842745
0.909909
0.971298
0.964772
0.72205
0.422797
0.300204
0.237662
0.477964
0.676702
0.739228
0.748973
0.754326
0.76648
0.753658
0.643777
0.425707
0.316643
0.260982
0.502495
0.714034
0.735125
0.694789
0.659294
0.651972
0.650339
0.609084
0.478632
0.371463
0.30331
0.543835
0.793141
0.792128
0.714862
0.651766
0.638854
0.651971
0.647001
0.585337
0.47226
0.364957
0.621658
0.979492
0.995287
0.895663
0.798833
0.754041
0.727945
0.688824
0.634276
0.499969
0.364899
0.710253
1.21522
1.2594
1.15631
0.959603
0.736127
0.579506
0.476238
0.38486
0.298401
0.223466
0.472216
0.791095
0.809119
0.636304
0.483386
0.375875
0.299293
0.242655
0.196957
0.15805
0.124213
0.304271
0.243018
0.217025
0.204014
0.197829
0.191507
0.180471
0.163098
0.140571
0.115621
0.0911086
0.217437
0.223296
0.0933494
0.0441882
0.0238488
0.0164263
0.0136072
0.0123799
0.011745
0.0113405
0.0110025
0.258292
0.358384
0.0921657
0.0544024
0.0265025
0.0172908
0.0135443
0.0119216
0.0110909
0.0105886
0.0102254
0.299262
0.378241
0.105448
0.0638534
0.0279855
0.0182421
0.0136062
0.0116295
0.0106008
0.00995242
0.00941994
0.332644
0.355
0.111936
0.0676136
0.0283831
0.0189583
0.0136207
0.0114031
0.0102152
0.00946089
0.00884435
0.355033
0.336652
0.114394
0.066672
0.0287021
0.0193431
0.0135356
0.0112014
0.00990178
0.00908397
0.0084428
0.366438
0.32872
0.119043
0.0651503
0.0292903
0.0194672
0.0134179
0.0110185
0.0096402
0.00878574
0.00814561
0.367577
0.32911
0.126056
0.0659716
0.0303099
0.0194844
0.0133435
0.0108605
0.00941987
0.00853897
0.00788727
0.359478
0.336464
0.134689
0.0682971
0.032117
0.0196919
0.0133543
0.0107349
0.00923959
0.00833418
0.00768113
0.344023
0.348728
0.14589
0.0724376
0.0345742
0.0202905
0.0135977
0.0106912
0.00910635
0.00816719
0.00750146
0.322959
0.364288
0.162161
0.0794291
0.0382187
0.0215274
0.0141122
0.0107768
0.00905947
0.00805259
0.00735866
0.297155
0.383943
0.183417
0.0896282
0.0433707
0.0235997
0.0149788
0.0110385
0.00910216
0.00799123
0.0072524
0.268196
0.409331
0.209272
0.10294
0.0501019
0.0266042
0.0162832
0.0115331
0.009261
0.00799803
0.0071911
0.23901
0.439398
0.241653
0.120714
0.0591923
0.0309126
0.0182393
0.0123693
0.00959134
0.00810073
0.0071897
0.212094
0.471704
0.283177
0.145382
0.072054
0.0372297
0.0212242
0.0137354
0.0101907
0.00834912
0.00727535
0.190378
0.511786
0.334997
0.178035
0.0895486
0.0461242
0.0256186
0.0158621
0.0111944
0.00881844
0.00749063
0.178739
0.560966
0.401043
0.222379
0.114036
0.0589179
0.0321702
0.0191756
0.0128458
0.00964416
0.00791013
0.180106
0.615165
0.48509
0.284618
0.149934
0.0781813
0.042312
0.0244803
0.0156002
0.0110805
0.00867512
0.193381
0.672302
0.587862
0.371101
0.203077
0.107749
0.0583755
0.033169
0.0202843
0.0136106
0.0100631
0.211814
0.717715
0.69913
0.487423
0.282777
0.154719
0.084938
0.0480683
0.0286173
0.0182665
0.0126789
0.226971
0.735249
0.791481
0.626464
0.398457
0.230568
0.130786
0.0750912
0.0443861
0.0274124
0.0179683
0.229434
0.705579
0.826935
0.753878
0.547794
0.349099
0.21132
0.126441
0.0761799
0.0467737
0.0296202
0.233224
0.658602
0.807746
0.827231
0.701271
0.514126
0.346415
0.223865
0.142206
0.0900261
0.0572453
0.215018
0.539565
0.645208
0.712139
0.703514
0.618495
0.490034
0.360893
0.253741
0.173941
0.116847
0.251755
0.649322
0.725736
0.73867
0.692817
0.615851
0.518143
0.417971
0.325903
0.247873
0.183345
0.172069
0.182834
0.0862858
0.0387313
0.0220228
0.0161952
0.0140231
0.0131192
0.012711
0.0125117
0.0123844
0.181268
0.165054
0.0677053
0.0392496
0.0241326
0.0176856
0.0151109
0.0141389
0.0138321
0.0138436
0.0140269
0.203902
0.176736
0.0603104
0.0411574
0.0254738
0.019014
0.0161889
0.0150704
0.0147677
0.0148922
0.0152794
0.224881
0.164268
0.0572261
0.0426621
0.0257209
0.0193032
0.0163921
0.0153603
0.0152546
0.0156583
0.016414
0.24152
0.142541
0.0553521
0.0420879
0.0254145
0.0193893
0.0164111
0.0153682
0.0152798
0.0157697
0.016709
0.254881
0.124102
0.0536698
0.0404451
0.0248747
0.0193731
0.0163719
0.0153161
0.0151878
0.0156648
0.0166321
0.266354
0.110579
0.0520388
0.0386121
0.0243351
0.0193305
0.0163384
0.0153037
0.0151285
0.0155439
0.0164061
0.275633
0.10065
0.0504185
0.0369454
0.0239189
0.0192768
0.0163519
0.0153538
0.0151486
0.0155064
0.0162539
0.284256
0.0933616
0.0490373
0.0356886
0.0237486
0.0192518
0.0164331
0.0154707
0.0152623
0.0156082
0.0163157
0.29315
0.0882702
0.0480401
0.0348261
0.0238086
0.0193199
0.0165912
0.0156513
0.0154598
0.0158518
0.0166605
0.303174
0.0851089
0.0475542
0.0344463
0.0240824
0.01952
0.0168315
0.0158877
0.0157084
0.0161491
0.0170211
0.31385
0.0832267
0.0474159
0.0344627
0.0245574
0.0198564
0.0171542
0.0161723
0.015982
0.0164558
0.0174636
0.324688
0.083293
0.0476774
0.0348566
0.0252822
0.0203432
0.0175733
0.0165022
0.0162632
0.0167219
0.0178213
0.334298
0.0862264
0.0487431
0.0356631
0.0263913
0.0210766
0.0181731
0.0169235
0.0165882
0.0169685
0.0180475
0.342723
0.0907376
0.050395
0.0367993
0.0278322
0.0221002
0.0189906
0.0174785
0.016983
0.0172135
0.0181532
0.350086
0.0969693
0.0528273
0.0383419
0.0296015
0.0234889
0.0200839
0.0182308
0.017488
0.0174879
0.0181716
0.356482
0.105279
0.0563581
0.0404367
0.0317288
0.0253219
0.0215423
0.0192776
0.018184
0.0178627
0.018184
0.361966
0.115456
0.0612747
0.0432762
0.0342717
0.0276576
0.0234709
0.0207496
0.0192068
0.0184688
0.0183371
0.366619
0.127496
0.0679816
0.0471922
0.0373936
0.0305695
0.0259864
0.0228057
0.0207533
0.0195145
0.0188658
0.37058
0.141544
0.0771059
0.0527617
0.0414673
0.0342163
0.0292332
0.0256269
0.0230706
0.0213029
0.0201059
0.374048
0.157603
0.0893093
0.0608662
0.0472023
0.0389877
0.0334457
0.0294136
0.026414
0.0241753
0.0224964
0.377533
0.175037
0.105097
0.0726531
0.0557889
0.045735
0.0391169
0.0344199
0.0309348
0.0282892
0.0262624
0.380931
0.195698
0.126268
0.0902292
0.0694525
0.0563874
0.0476475
0.0415222
0.0370844
0.0337948
0.031297
0.397533
0.228471
0.17447
0.143995
0.122537
0.107083
0.0994099
0.0963362
0.0956486
0.0955234
0.0940984
0.797371
1.29288
0.887928
0.638405
0.426468
0.277981
0.188518
0.137463
0.108112
0.0900182
0.0772906
0.734473
1.08275
0.89044
0.687551
0.492176
0.318376
0.21175
0.150153
0.115641
0.0954106
0.0817002
0.611901
0.84162
0.826201
0.690067
0.526645
0.362169
0.239566
0.163539
0.123503
0.101179
0.0869553
0.462324
0.682861
0.743633
0.668793
0.541228
0.394057
0.268239
0.181509
0.131685
0.106546
0.0923694
0.316534
0.578794
0.667499
0.640182
0.54702
0.419626
0.296519
0.202143
0.143588
0.112783
0.0973521
0.198249
0.497799
0.602919
0.609593
0.54731
0.441171
0.325201
0.226593
0.159162
0.120933
0.10237
0.129625
0.444873
0.557544
0.581202
0.542585
0.457616
0.352547
0.253763
0.178999
0.132236
0.108126
0.121138
0.420647
0.539022
0.563169
0.536974
0.468965
0.376302
0.281188
0.202049
0.147195
0.115819
0.115464
0.391985
0.532329
0.559668
0.536541
0.477874
0.395847
0.306675
0.226443
0.165301
0.126186
0.0947388
0.307701
0.494054
0.556151
0.540853
0.486349
0.411537
0.328761
0.250133
0.185237
0.139159
0.0762222
0.233538
0.417202
0.528063
0.539057
0.491811
0.422517
0.34589
0.27087
0.204995
0.153714
0.0626854
0.179647
0.324945
0.464738
0.51728
0.487667
0.426137
0.356221
0.28646
0.222206
0.168121
0.0539987
0.144098
0.243115
0.379575
0.470339
0.468096
0.419352
0.358117
0.295249
0.234808
0.180094
0.0479742
0.122319
0.189478
0.293011
0.403075
0.431088
0.400025
0.350243
0.295955
0.240996
0.187398
0.042418
0.106161
0.154159
0.226336
0.322591
0.379597
0.367937
0.331867
0.28765
0.239269
0.188331
0.0374329
0.0929727
0.127496
0.179906
0.25031
0.314833
0.325237
0.303589
0.270391
0.229417
0.182163
0.0327172
0.0815191
0.105969
0.144778
0.194453
0.247973
0.274791
0.267718
0.245911
0.213115
0.170602
0.0286801
0.0715784
0.0893014
0.117948
0.152298
0.191794
0.222775
0.229681
0.219609
0.196305
0.160335
0.0257475
0.0642716
0.0769008
0.0983172
0.122025
0.150473
0.179495
0.197811
0.200105
0.18851
0.160023
0.0250164
0.0611451
0.069533
0.085995
0.10295
0.124371
0.150628
0.174732
0.185883
0.185145
0.165846
0.027567
0.0598271
0.0659098
0.0789768
0.09181
0.108816
0.132175
0.152122
0.162876
0.166233
0.158214
0.0293171
0.0584749
0.0620375
0.0733392
0.0848218
0.100252
0.118055
0.131828
0.140153
0.145812
0.147366
0.0288753
0.0497351
0.0565101
0.068563
0.0814594
0.0983396
0.116701
0.131471
0.14074
0.145852
0.14669
0.0420447
0.0453198
0.0581345
0.0790143
0.102729
0.125768
0.143003
0.152649
0.155875
0.154966
0.150586
0.790497
1.04731
0.838558
0.573402
0.375732
0.249755
0.174265
0.129766
0.103133
0.0860955
0.073629
0.557638
0.838306
0.726206
0.545872
0.377756
0.256765
0.179292
0.13212
0.103672
0.0857812
0.0731909
0.48269
0.730066
0.669432
0.549857
0.4002
0.275184
0.190295
0.137863
0.106341
0.0870083
0.0740559
0.432696
0.643606
0.611914
0.540848
0.419072
0.297911
0.205906
0.146277
0.110248
0.0887483
0.0752583
0.396772
0.571914
0.565259
0.518602
0.425244
0.320334
0.22839
0.160968
0.117821
0.0918706
0.0765469
0.366604
0.513129
0.528457
0.499555
0.425997
0.335927
0.250216
0.180813
0.130708
0.0978092
0.0782241
0.338071
0.463393
0.496218
0.481862
0.426776
0.352836
0.275452
0.205214
0.148251
0.106883
0.0804657
0.309631
0.419131
0.465478
0.464034
0.42618
0.368729
0.302173
0.234308
0.1723
0.121976
0.0864029
0.279732
0.376813
0.433441
0.443966
0.422522
0.381811
0.328282
0.266316
0.202437
0.144606
0.0990906
0.247759
0.333636
0.397742
0.419047
0.413203
0.389376
0.350821
0.298268
0.236266
0.173476
0.118638
0.215057
0.289016
0.356651
0.387028
0.395681
0.388403
0.366253
0.326367
0.27033
0.206534
0.1466
0.182156
0.245755
0.311875
0.34887
0.369161
0.376586
0.370955
0.346623
0.300414
0.239589
0.177257
0.150707
0.205706
0.26735
0.308234
0.336754
0.355557
0.363616
0.354171
0.321486
0.269021
0.207993
0.122933
0.17137
0.226941
0.269194
0.302799
0.329436
0.347628
0.350367
0.330319
0.288055
0.233094
0.100817
0.145021
0.194087
0.235762
0.271681
0.302728
0.32725
0.338687
0.328992
0.296536
0.248649
0.0852769
0.126964
0.169985
0.209912
0.246018
0.278545
0.305926
0.322512
0.320389
0.296109
0.255211
0.0755929
0.115799
0.153804
0.191379
0.226125
0.257855
0.285289
0.303989
0.306906
0.289167
0.254628
0.0701264
0.109425
0.14358
0.178492
0.210774
0.240019
0.265392
0.283909
0.289935
0.277647
0.249036
0.0672287
0.10578
0.137144
0.169257
0.198368
0.223947
0.245706
0.262273
0.269862
0.262613
0.239211
0.0657034
0.103275
0.132742
0.162134
0.187807
0.209099
0.226217
0.239401
0.246968
0.244085
0.225935
0.0647247
0.100597
0.1289
0.155946
0.178475
0.195663
0.207974
0.216904
0.222876
0.222613
0.210122
0.0640484
0.0972031
0.124503
0.149685
0.169946
0.184168
0.192649
0.197376
0.200386
0.20032
0.191971
0.0619019
0.088559
0.115576
0.140592
0.160388
0.173671
0.180426
0.182343
0.182145
0.180461
0.173859
0.0682351
0.0873665
0.114943
0.137133
0.153648
0.164727
0.170507
0.171436
0.169341
0.165784
0.159412
0.0929939
0.106612
0.117092
0.123189
0.12596
0.122848
0.121943
0.12025
0.11469
0.131911
0.15763
0.177907
0.193327
0.207451
0.202856
0.187606
0.17361
0.156799
0.149877
0.165347
0.178561
0.193278
0.207825
0.203747
0.188673
0.172967
0.157372
0.144195
0.153752
0.16239
0.171178
0.181617
0.176373
0.162905
0.151882
0.143271
0.0722978
0.0369505
0.0194481
0.0163105
0.0157583
0.0248735
0.061482
0.0882811
0.10457
0.101394
0.0729874
0.0374009
0.0252731
0.0298754
0.0515451
0.0787884
0.106736
0.133251
0.125743
0.0949845
0.0498346
0.0316072
0.0392619
0.0657413
0.0974154
0.12375
0.142323
0.128903
0.102996
0.0600503
0.0375309
0.0466662
0.0734666
0.102791
0.122425
0.13448
0.00442728
0.00460081
0.00461617
0.00608528
0.0402142
0.00438455
0.0119658
0.00454639
0.00437778
0.00425131
0.0397415
0.00455719
0.00375441
0.0033792
0.00448384
0.00430311
0.00330203
0.00591177
0.00429253
0.00424771
0.0041115
0.00503222
0.00466628
0.0149982
0.00449272
0.00337775
0.00380291
0.0116229
0.0702186
0.0498419
0.00335894
0.00410523
0.00330992
0.00453558
0.00427252
0.00459189
0.0138776
0.00448791
0.00330911
0.00439129
0.00627084
0.0045449
0.00774451
0.00465943
0.0613578
0.0119654
0.00295593
0.0187827
0.0042953
0.00434095
0.0486789
0.0043967
0.0196521
0.00754461
0.00433246
0.00411832
0.00487913
0.00440232
0.0725252
0.0111251
0.0050974
0.0195989
0.0493321
0.0178812
0.007849
0.00425961
0.059629
0.00432922
0.00460128
0.00424343
0.00326886
0.00432892
0.00430668
0.00464461
0.0140247
0.00428838
0.00415799
0.00459809
0.011837
0.072935
0.0208204
0.0153472
0.00449522
0.00462616
0.00437428
0.00420198
0.0916635
0.0179635
0.00365754
0.0115295
0.00454326
0.00441245
0.0070683
0.00440867
0.0719226
0.0304218
0.0114209
0.00395877
0.00389633
0.00440139
0.00467696
0.0187954
0.00417299
0.00401966
0.00372487
0.00455347
0.00314745
0.00464666
0.00352323
0.00417188
0.00450737
0.00456005
0.00431521
0.00519664
0.00437026
0.00442367
0.00437998
0.00431692
0.00449705
0.00414182
0.0050824
0.00456164
0.00529641
0.00326126
0.0110801
0.00410694
0.0118308
0.00313743
0.00331093
0.0033883
0.00445094
0.010982
0.0182953
0.00429589
0.00461412
0.00456275
0.00403213
0.0105264
0.0490472
0.00446058
0.00833457
0.00411255
0.0284454
0.00402448
0.00437291
0.00302763
0.00445431
0.00431912
0.00432294
0.00424321
0.00427948
0.00441761
0.00320493
0.00454656
0.00564607
0.00340899
0.00365839
0.00382512
0.00321102
0.00436145
0.00361923
0.00453644
0.00431925
0.00443215
0.0637172
0.00450582
0.00440358
0.00426011
0.00421914
0.00776411
0.00327862
0.00316523
0.00448156
0.0040551
0.0040947
0.00396115
0.00311696
0.00337042
0.0623291
0.00392745
0.00431041
0.00489089
0.0046595
0.010869
0.00450164
0.00977456
0.00425496
0.0043021
0.00458823
0.017293
0.00352058
0.00350683
0.00427311
0.00623075
0.00460933
0.00440098
0.00435767
0.00393811
0.00340762
0.00467918
0.00324898
0.00433918
0.00360352
0.00340781
0.00462728
0.0178924
0.00439366
0.00331136
0.00435044
0.00433924
0.0120346
0.00439448
0.00401078
0.00422974
0.00449024
0.0219654
0.0045104
0.00271457
0.00427929
0.00330702
0.00329071
0.00533809
0.0106477
0.00418156
0.00323506
0.0044071
0.00814217
0.00418012
0.0034536
0.0372405
0.00405864
0.00425697
0.00427201
0.00454695
0.0032559
0.0749014
0.0441032
0.004646
0.00456153
0.004549
0.00272418
0.0178294
0.00401053
0.00580416
0.00471575
0.00510225
0.0045174
0.00348129
0.0303827
0.0276354
0.00347163
0.0125066
0.00516124
0.00429986
0.00394677
0.00436396
0.00413757
0.00447389
0.00311862
0.0042482
0.00334787
0.00453813
0.00432675
0.00457475
0.00450532
0.00290914
0.00411324
0.00480853
0.00558149
0.00370784
0.0182693
0.00432079
0.00433187
0.00293761
0.00439063
0.00432918
0.00329991
0.004447
0.00427519
0.00385935
0.004371
0.00460137
0.0214883
0.0397124
0.00394751
0.00439797
0.0845682
0.00459111
0.00424867
0.00800336
0.00461879
0.0122739
0.00432361
0.00342882
0.00467892
0.00435666
0.0041984
0.00456526
0.00427017
0.00331966
0.00444473
0.00582369
0.0043762
0.0499171
0.00414861
0.0041738
0.00459923
0.00469546
0.00484316
0.00435278
0.00780226
0.00456627
0.0040937
0.00328329
0.00472606
0.00410641
0.00373695
0.00435986
0.00413016
0.00453867
0.00425108
0.0112008
0.00435701
0.0033602
0.0092846
0.0041934
0.00445137
0.00372942
0.00424078
0.0318697
0.00438604
0.049836
0.00387247
0.00464958
0.00357907
0.0427865
0.00378515
0.00458719
0.00447295
0.0039509
0.00405726
0.0125882
0.00433111
0.00469377
0.0164625
0.00479147
0.00783456
0.00437828
0.0119069
0.0150539
0.00899441
0.00389681
0.00372573
0.00416586
0.00396092
0.00468917
0.00332118
0.00399744
0.00466057
0.0326128
0.00384966
0.00345537
0.00451811
0.00451158
0.0043136
0.00400952
0.00314711
0.00341086
0.0110911
0.00477159
0.00444052
0.0108007
0.0361602
0.00317332
0.00385927
0.00461042
0.0039086
0.00425547
0.00437906
0.00425058
0.0235574
0.00438749
0.00306583
0.00441372
0.0034947
0.0554696
0.00544213
0.00322671
0.0176074
0.00395748
0.00442763
0.00568484
0.00317361
0.00464499
0.0561661
0.00782859
0.00447773
0.0042872
0.00462244
0.00343288
0.00309604
0.00441062
0.00466145
0.00831399
0.00315731
0.00674554
0.00922148
0.0041044
0.00433575
0.0109208
0.0042251
0.00427808
0.00350686
0.00347557
0.00323603
0.00407449
0.00353513
0.00480558
0.00308713
0.00522381
0.0256381
0.00316032
0.013126
0.00346506
0.00398198
0.00415562
0.00460387
0.00482411
0.00462472
0.00896251
0.00448533
0.00305361
0.00345028
0.0041051
0.00424463
0.00350371
0.0196434
0.04422
0.00326815
0.00468847
0.00395467
0.0913401
0.00783461
0.00556365
0.00418765
0.00449996
0.0146828
0.00358937
0.00434602
0.00420587
0.00443926
0.00461324
0.00449887
0.00471958
0.00445901
0.0117154
0.00328723
0.00326465
0.00479913
0.00459021
0.00434155
0.0124994
0.00314837
0.00393841
0.00421675
0.00799225
0.00738012
0.00545505
0.00546768
0.00437846
0.00393216
0.00522902
0.00421724
0.0050432
0.00420272
0.00458749
0.00432909
0.00557875
0.00378687
0.00426173
0.00445037
0.00412667
0.030082
0.00467421
0.00464769
0.0029266
0.042288
0.00404704
0.00357446
0.00434142
0.00346896
0.00439913
0.0042039
0.00440274
0.00336106
0.00327412
0.00426338
0.00339827
0.00399781
0.00476423
0.00375075
0.00372059
0.00453966
0.00453402
0.0375962
0.00428652
0.00540731
0.00438819
0.0175257
0.00461935
0.0339404
0.00434425
0.00391006
0.0041933
0.00471539
0.0498437
0.00320472
0.00338671
0.00445196
0.0035844
0.00412027
0.00459961
0.0044273
0.00457322
0.00417228
0.0233428
0.00451635
0.00435498
0.00955625
0.00443656
0.00943295
0.00424176
0.00426736
0.00328916
0.00374995
0.00467887
0.00447614
0.00463577
0.00622353
0.0038546
0.00450141
0.00448835
0.00325835
0.00461686
0.00750753
0.00460714
0.0230481
0.00423341
0.00408369
0.00339355
0.00328871
0.0131263
0.0366793
0.00415794
0.00410949
0.00431059
0.00460784
0.00350482
0.00345138
0.0042357
0.00342372
0.0311321
0.0348393
0.0044914
0.00434391
0.00459786
0.0144155
0.0484672
0.00426446
0.00454359
0.00437421
0.0384557
0.00432919
0.00347563
0.00332625
0.00428293
0.0286446
0.00443003
0.00441935
0.00446346
0.00333298
0.00434269
0.0153352
0.00313846
0.00409576
0.00492631
0.00521508
0.00463865
0.0046737
0.0715014
0.00440856
0.00352022
0.0067566
0.00337559
0.0145314
0.00402764
0.0036675
0.00422137
0.00443637
0.00449048
0.0269697
0.00290869
0.00388336
0.00425031
0.00450054
0.00784852
0.0042391
0.00450461
0.0042024
0.00430333
0.0035093
0.00311628
0.00344191
0.00566272
0.00400926
0.00521022
0.00429258
0.00802242
0.00427764
0.00445358
0.0301557
0.0176008
0.00438291
0.00439127
0.0040473
0.00416184
0.00433559
0.00564813
0.0046071
0.00416907
0.00340663
0.00343143
0.00380942
0.0031662
0.0031282
0.00635938
0.00694293
0.00492005
0.00521333
0.00353024
0.00421058
0.00360882
0.00348103
0.00462131
0.00416285
0.00903254
0.00393228
0.00421036
0.00433933
0.00345813
0.00783627
0.0301642
0.00359635
0.00537247
0.00442399
0.00521126
0.00454993
0.00429668
0.00426605
0.00340985
0.00425577
0.00441757
0.0041838
0.00459412
0.00857305
0.00613827
0.0363254
0.00428079
0.00423028
0.00399012
0.00908253
0.00448852
0.0178635
0.00430618
0.0135857
0.00707298
0.00442892
0.00401713
0.00465992
0.0033237
0.0135877
0.00350547
0.0260485
0.00362742
0.00427058
0.00463646
0.00378892
0.0031614
0.00456819
0.0132796
0.00437023
0.00407845
0.00463266
0.0037315
0.00419625
0.00292971
0.00455737
0.00440121
0.00440616
0.00382025
0.00332066
0.00456216
0.0032785
0.00437471
0.0040372
0.00321891
0.00407616
0.00794284
0.00547128
0.00340049
0.00407652
0.00368102
0.00365838
0.00600941
0.00327889
0.012317
0.00446814
0.00357753
0.00448994
0.00436818
0.0072613
0.00440988
0.00350433
0.00337246
0.00432762
0.00416918
0.00413402
0.00272362
0.0045848
0.0137645
0.00703943
0.0237775
0.00414096
0.00396804
0.0101141
0.0141007
0.00452032
0.00355655
0.00390155
0.00459546
0.00452605
0.00346533
0.0303539
0.00454951
0.00956777
0.00345569
0.00475349
0.0131549
0.00438157
0.00420747
0.00421742
0.00331605
0.00438516
0.0031661
0.00457257
0.00333763
0.00431146
0.00343584
0.00421249
0.0157781
0.00349005
0.00429016
0.0170665
0.0126213
0.00446185
0.00321423
0.00384421
0.00449486
0.00515762
0.00386142
0.00427242
0.00456349
0.003404
0.00498406
0.00428754
0.00436543
0.00441386
0.00907984
0.00373327
0.0046906
0.00448567
0.00454922
0.0432305
0.0134308
0.00366067
0.00457839
0.00357911
0.00441764
0.00455646
0.00457861
0.00462515
0.00448003
0.00463033
0.00311242
0.00546281
0.00927698
0.00314642
0.00427981
0.00442937
0.0044975
0.00375408
0.0271618
0.0045954
0.00407876
0.00353734
0.0172074
0.0145448
0.00469246
0.00391677
0.00539262
0.00443273
0.00446203
0.0107727
0.0042188
0.00456749
0.00436115
0.00392279
0.0039925
0.00389627
0.00455625
0.00409657
0.00656377
0.00395776
0.00456588
0.00320184
0.00604464
0.00326966
0.00418444
0.00464048
0.00428094
0.0060365
0.00315072
0.00421748
0.00460089
0.00418252
0.00467298
0.00433934
0.00459283
0.0138458
0.00341713
0.00911654
0.0157127
0.00748811
0.00454923
0.0472833
0.00466977
0.00430143
0.00533999
0.00448626
0.00441744
0.00441568
0.00392594
0.0210121
0.00338665
0.00441452
0.00653659
0.00442504
0.00468811
0.00434522
0.00438792
0.00434212
0.0044948
0.00455979
0.00435365
0.0681249
0.00438073
0.00425591
0.00435407
0.0203859
0.00428106
0.00450684
0.0129915
0.0641993
0.0042366
0.00449779
0.00335826
0.00495315
0.00465135
0.00454024
0.00419237
0.00400703
0.00873707
0.00460021
0.00947377
0.00343246
0.00713963
0.00342381
0.00457984
0.00349648
0.00564105
0.0044415
0.00453469
0.00440745
0.00460854
0.00394401
0.00987956
0.00423418
0.00483097
0.018182
0.00434896
0.00393063
0.00653698
0.00466352
0.0045596
0.00308841
0.00319297
0.00350968
0.00439742
0.0232367
0.00431336
0.0034031
0.00431389
0.00310914
0.00316978
0.00410222
0.00344274
0.00419926
0.00452775
0.0456354
0.00466559
0.0111387
0.00418178
0.00340767
0.0042469
0.00420975
0.0183438
0.00438233
0.00460373
0.00349995
0.00880343
0.0199301
0.00356031
0.00332566
0.00344531
0.0220983
0.0398276
0.00451959
0.0042718
0.0142186
0.00439906
0.00542883
0.00449443
0.0089782
0.0034435
0.00403725
0.00460436
0.00341227
0.0046459
0.00440587
0.00354466
0.00574585
0.00426047
0.00445994
0.00434547
0.00455426
0.00446715
0.00504919
0.00451748
0.00418545
0.00671359
0.00274541
0.0040392
0.00461022
0.00431872
0.00335459
0.00460107
0.00468703
0.00408606
0.00711687
0.0560394
0.00396358
0.00342488
0.00410083
0.00434846
0.00287041
0.00375076
0.00423537
0.00466332
0.00455483
0.0722978
0.00390005
0.0284347
0.00455291
0.00445727
0.00859136
0.0545054
0.00330593
0.00317447
0.0046758
0.00319268
0.032985
0.00456252
0.00402457
0.0189317
0.00277221
0.0266726
0.00356116
0.00445201
0.00432939
0.00437815
0.00420051
0.00709719
0.00338194
0.00418644
0.0518228
0.00460232
0.00293151
0.0041833
0.00501142
0.00869565
0.00444147
0.00439378
0.00407877
0.00317529
0.00454431
0.00465378
0.00467872
0.01201
0.00412572
0.00461109
0.00371514
0.00788192
0.00322576
0.00452366
0.00859982
0.00413808
0.00407455
0.00383674
0.00455607
0.00431252
0.00446845
0.0149692
0.00433167
0.0152547
0.00399123
0.00385653
0.00450563
0.00417666
0.00450327
0.00437797
0.0052598
0.024445
0.00933945
0.0578438
0.00948581
0.0412154
0.00420702
0.00439194
0.00591106
0.00462868
0.00319987
0.0213074
0.00430126
0.00494206
0.00388518
0.0377469
0.00418111
0.00323117
0.00454998
0.0460596
0.00469551
0.0369512
0.00412088
0.00472546
0.00530509
0.00802524
0.00417228
0.00472676
0.00595704
0.00445291
0.0147978
0.00558445
0.0276958
0.00338699
0.00507768
0.0126005
0.00413697
0.0046115
0.00367056
0.00477018
0.00340788
0.00330682
0.00741506
0.00390239
0.00304813
0.0571427
0.0043763
0.00431436
0.00422083
0.00457361
0.0034126
0.00337366
0.00424971
0.00330908
0.0361974
0.00443069
0.0535796
0.00811874
0.00448288
0.00518903
0.00386881
0.00292981
0.00324554
0.00675165
0.00442304
0.00452601
0.053302
0.00437563
0.00458688
0.00350601
0.0045437
0.00454254
0.0411178
0.00457912
0.0330783
0.00398883
0.00367061
0.0042879
0.00430904
0.0100734
0.00348726
0.0124545
0.00444534
0.00338889
0.00532587
0.00341175
0.00370674
0.00528002
0.00372819
0.00424084
0.0193639
0.00541956
0.00406438
0.00432072
0.00320859
0.00379975
0.00431777
0.00393122
0.0558252
0.00425578
0.00468958
0.00450551
0.00404581
0.00320172
0.00319539
0.00338506
0.0789408
0.00469587
0.00587602
0.00555653
0.00457712
0.00417034
0.00424493
0.00423163
0.0613205
0.00456905
0.0186896
0.0376338
0.00456485
0.00449481
0.00455017
0.047233
0.0149128
0.022981
0.00331832
0.00456844
0.00428665
0.00350441
0.011224
0.00648991
0.00347572
0.00434254
0.00609793
0.0118432
0.00332192
0.00415885
0.0106358
0.0394513
0.00405033
0.00381316
0.00430602
0.00436513
0.046542
0.00333485
0.00358944
0.00459961
0.00466198
0.00410295
0.055417
0.00654301
0.00336879
0.0205691
0.00519526
0.0043739
0.0150299
0.0147121
0.00462115
0.0031572
0.00346179
0.00412417
0.0232846
0.00453425
0.00442579
0.00426395
0.00564546
0.00319409
0.00435598
0.0031474
0.00461425
0.00456
0.00468819
0.00329212
0.00442852
0.00513476
0.00422905
0.00455789
0.0422864
0.00472829
0.00343159
0.00367747
0.00431679
0.00352971
0.00520655
0.00452534
0.00456523
0.00448339
0.00341259
0.00449628
0.0042836
0.00441175
0.00370908
0.00677474
0.00337341
0.00811668
0.00429757
0.0156371
0.00420616
0.00467575
0.00428576
0.00458662
0.00309462
0.00413994
0.00321211
0.00412028
0.00420942
0.00450443
0.00487666
0.00685477
0.0054679
0.0124545
0.00468828
0.00339154
0.0156756
0.00318803
0.00328924
0.00439751
0.00548837
0.0200214
0.00525221
0.00322372
0.00355028
0.00391143
0.00330429
0.00450119
0.0698653
0.00314916
0.00415044
0.00277996
0.00266354
0.00359502
0.00466956
0.0112484
0.00319129
0.0558454
0.0250639
0.00448599
0.0043083
0.0155659
0.0266431
0.004008
0.00455026
0.00425776
0.00462893
0.00444918
0.00470823
0.00440202
0.00464926
0.0138792
0.005478
0.0043372