/*--------------------------------*- C++ -*----------------------------------*\
| =========                 |                                                 |
| \\      /  F ield         | OpenFOAM: The Open Source CFD Toolbox           |
|  \\    /   O peration     | Version:  3.0.1                                 |
|   \\  /    A nd           | Web:      www.OpenFOAM.org                      |
|    \\/     M anipulation  |                                                 |
\*---------------------------------------------------------------------------*/
FoamFile
{
    version     2.0;
    format      ascii;
    class       surfaceScalarField;
    location    "0.394482";
    object      phi;
}
// * * * * * * * * * * * * * * * * * * * * * * * * * * * * * * * * * * * * * //

dimensions      [0 3 -1 0 0 0 0];

internalField   nonuniform List<scalar> 
32369
(
-7.46413e-06
-8.97194e-06
1.64361e-05
-1.19497e-05
-1.03405e-05
1.48261e-05
-1.56972e-05
-1.23407e-05
1.60881e-05
-1.95604e-05
-1.44451e-05
1.83083e-05
-2.34569e-05
-1.64681e-05
2.03645e-05
-2.73534e-05
-1.8325e-05
2.22215e-05
-3.16005e-05
-2.0016e-05
2.42631e-05
-3.63851e-05
-2.14799e-05
2.62646e-05
-4.19545e-05
-2.26056e-05
2.8175e-05
-4.85334e-05
-2.31826e-05
2.97615e-05
-2.28462e-05
3.07422e-05
-5.64294e-05
-6.31974e-06
-2.6522e-06
-1.15333e-05
-5.12693e-06
-1.62286e-05
-7.64539e-06
-2.05785e-05
-1.00951e-05
-2.47375e-05
-1.23091e-05
-2.89022e-05
-1.41604e-05
-3.33503e-05
-1.55679e-05
-3.83714e-05
-1.64588e-05
-4.42665e-05
-1.67105e-05
-5.13645e-05
-1.60846e-05
-1.41813e-05
-6.00294e-05
-3.30185e-06
6.49653e-07
-7.16917e-06
-1.25961e-06
-1.1488e-05
-3.3266e-06
-1.60796e-05
-5.50352e-06
-2.08454e-05
-7.54323e-06
-2.57682e-05
-9.2376e-06
-3.09986e-05
-1.03374e-05
-3.67773e-05
-1.06801e-05
-4.33949e-05
-1.00929e-05
-5.11595e-05
-8.32001e-06
-4.95736e-06
-6.03835e-05
-1.72315e-06
2.3728e-06
-4.37622e-06
1.39346e-06
-7.94124e-06
2.38417e-07
-1.21548e-05
-1.28994e-06
-1.68498e-05
-2.84828e-06
-2.20118e-05
-4.07558e-06
-2.76807e-05
-4.6685e-06
-3.39757e-05
-4.38517e-06
-4.1082e-05
-2.98657e-06
-4.92419e-05
-1.60126e-07
4.63251e-06
-5.88317e-05
-9.59001e-07
3.3318e-06
-2.66288e-06
3.09734e-06
-5.30574e-06
2.88128e-06
-8.84178e-06
2.24609e-06
-1.31919e-05
1.50179e-06
-1.82406e-05
9.73159e-07
-2.39253e-05
1.0162e-06
-3.03054e-05
1.99497e-06
-3.75748e-05
4.28279e-06
-4.60209e-05
8.28599e-06
1.45551e-05
-5.59435e-05
-8.92786e-07
4.22459e-06
-2.26277e-06
4.46732e-06
-4.19325e-06
4.81177e-06
-6.91046e-06
4.9633e-06
-1.05307e-05
5.12199e-06
-1.50658e-05
5.50826e-06
-2.04876e-05
6.43806e-06
-2.67914e-05
8.29873e-06
-3.40394e-05
1.15308e-05
-4.23848e-05
1.66313e-05
2.43003e-05
-5.213e-05
-8.41565e-07
5.06615e-06
-2.10725e-06
5.733e-06
-3.80097e-06
6.50549e-06
-6.11556e-06
7.27789e-06
-9.19864e-06
8.20507e-06
-1.31527e-05
9.46234e-06
-1.80349e-05
1.13202e-05
-2.38825e-05
1.41464e-05
-3.0755e-05
1.84033e-05
-3.87522e-05
2.46285e-05
3.35401e-05
-4.7992e-05
-8.31232e-07
5.89738e-06
-1.99397e-06
6.89574e-06
-3.53995e-06
8.05147e-06
-5.59708e-06
9.33503e-06
-8.3056e-06
1.09136e-05
-1.17932e-05
1.295e-05
-1.61645e-05
1.56914e-05
-2.15019e-05
1.94838e-05
-2.78936e-05
2.4795e-05
-3.54484e-05
3.21834e-05
4.24748e-05
-4.43831e-05
-7.91006e-07
6.68839e-06
-1.8872e-06
7.99193e-06
-3.31096e-06
9.47523e-06
-5.17723e-06
1.12013e-05
-7.60556e-06
1.33419e-05
-1.07241e-05
1.60686e-05
-1.46536e-05
1.96209e-05
-1.95072e-05
2.43374e-05
-2.53912e-05
3.0679e-05
-3.24668e-05
3.9259e-05
5.0935e-05
-4.0927e-05
-6.82276e-07
7.37067e-06
-1.67182e-06
8.98148e-06
-2.96883e-06
1.07722e-05
-4.66632e-06
1.28988e-05
-6.86591e-06
1.55415e-05
-9.68504e-06
1.88877e-05
-1.32486e-05
2.31844e-05
-1.76778e-05
2.87667e-05
-2.31131e-05
3.61142e-05
-2.97033e-05
4.58491e-05
5.88143e-05
-3.75826e-05
-5.83302e-07
7.95397e-06
-1.4687e-06
9.86687e-06
-2.63954e-06
1.19431e-05
-4.17388e-06
1.44331e-05
-6.16541e-06
1.7533e-05
-8.72075e-06
2.1443e-05
-1.19556e-05
2.64193e-05
-1.59983e-05
3.28094e-05
-2.09897e-05
4.11056e-05
-2.70997e-05
5.19591e-05
6.61861e-05
-3.44715e-05
-5.68942e-07
8.52291e-06
-1.38897e-06
1.06869e-05
-2.45219e-06
1.30063e-05
-3.83706e-06
1.5818e-05
-5.62675e-06
1.93227e-05
-7.92412e-06
2.37404e-05
-1.08409e-05
2.93361e-05
-1.44993e-05
3.64678e-05
-1.90439e-05
4.56503e-05
-2.46353e-05
5.75505e-05
7.30145e-05
-3.14636e-05
-5.15285e-07
9.0382e-06
-1.24418e-06
1.14158e-05
-2.19122e-06
1.39533e-05
-3.42247e-06
1.70492e-05
-5.01754e-06
2.09178e-05
-7.06837e-06
2.57912e-05
-9.68352e-06
3.19512e-05
-1.29844e-05
3.97686e-05
-1.70922e-05
4.97581e-05
-2.21802e-05
6.26385e-05
7.93077e-05
-2.84734e-05
-3.64927e-07
9.40312e-06
-9.50412e-07
1.20013e-05
-1.74966e-06
1.47526e-05
-2.81275e-06
1.81123e-05
-4.20746e-06
2.23125e-05
-6.0139e-06
2.75977e-05
-8.32536e-06
3.42627e-05
-1.12546e-05
4.26979e-05
-1.49209e-05
5.34244e-05
-1.94606e-05
6.71781e-05
8.49109e-05
-2.50638e-05
-3.19237e-07
9.72236e-06
-7.99824e-07
1.24819e-05
-1.45161e-06
1.54044e-05
-2.33217e-06
1.89929e-05
-3.49624e-06
2.34766e-05
-5.01909e-06
2.91205e-05
-6.99108e-06
3.62347e-05
-9.49775e-06
4.52046e-05
-1.26405e-05
5.65671e-05
-1.65619e-05
7.10996e-05
8.9723e-05
-2.1374e-05
-2.36117e-07
9.95848e-06
-5.81937e-07
1.28277e-05
-1.06562e-06
1.58881e-05
-1.72982e-06
1.96571e-05
-2.63822e-06
2.4385e-05
-3.85106e-06
3.03334e-05
-5.43859e-06
3.78222e-05
-7.47441e-06
4.72404e-05
-1.00365e-05
5.91292e-05
-1.31815e-05
7.42446e-05
9.35842e-05
-1.70427e-05
-5.72495e-08
1.00157e-05
-1.95106e-07
1.29655e-05
-4.57032e-07
1.615e-05
-8.72399e-07
2.00725e-05
-1.48126e-06
2.49938e-05
-2.34344e-06
3.11956e-05
-3.50417e-06
3.89829e-05
-5.00161e-06
4.87378e-05
-6.85972e-06
6.09873e-05
-9.12557e-06
7.65104e-05
9.63504e-05
-1.18917e-05
8.11825e-08
9.93454e-06
1.53516e-07
1.28932e-05
1.44578e-07
1.61589e-05
2.95411e-08
2.01875e-05
-2.32906e-07
2.52563e-05
-6.73463e-07
3.16361e-05
-1.31014e-06
3.96196e-05
-2.14002e-06
4.95677e-05
-3.14778e-06
6.19951e-05
-4.33699e-06
7.76996e-05
9.77112e-05
-5.69779e-06
2.47277e-07
9.68727e-06
5.73594e-07
1.25669e-05
8.59318e-07
1.58732e-05
1.0882e-06
1.99586e-05
1.24075e-06
2.51037e-05
1.30328e-06
3.15736e-05
1.30838e-06
3.96145e-05
1.31216e-06
4.95639e-05
1.39083e-06
6.19164e-05
1.61047e-06
7.748e-05
9.73714e-05
1.95022e-06
4.52198e-07
9.23507e-06
1.08146e-06
1.19376e-05
1.70445e-06
1.52502e-05
2.3269e-06
1.93362e-05
2.95023e-06
2.44804e-05
3.6172e-06
3.09066e-05
4.418e-06
3.88137e-05
5.48287e-06
4.84991e-05
6.93435e-06
6.04649e-05
8.90105e-06
7.55133e-05
9.47747e-05
1.14978e-05
6.83807e-07
8.55126e-06
1.63607e-06
1.09854e-05
2.61747e-06
1.42688e-05
3.66927e-06
1.82844e-05
4.83915e-06
2.33105e-05
6.24685e-06
2.94989e-05
8.06242e-06
3.69982e-05
1.04632e-05
4.60982e-05
1.36229e-05
5.73052e-05
1.77327e-05
7.14036e-05
8.94851e-05
2.30222e-05
8.50356e-07
7.70091e-06
2.06333e-06
9.7724e-06
3.39954e-06
1.29326e-05
4.89882e-06
1.67851e-05
6.71515e-06
2.14942e-05
9.06216e-06
2.71519e-05
1.21546e-05
3.39057e-05
1.61896e-05
4.20633e-05
2.13872e-05
5.21076e-05
2.80071e-05
6.47836e-05
8.11293e-05
3.6363e-05
7.66541e-07
6.93437e-06
2.321e-06
8.21794e-06
3.76193e-06
1.14917e-05
5.69333e-06
1.48537e-05
8.31678e-06
1.88707e-05
1.18434e-05
2.36253e-05
1.645e-05
2.92991e-05
2.23499e-05
3.61634e-05
2.97998e-05
4.46577e-05
3.91624e-05
5.5421e-05
6.93813e-05
5.09104e-05
-2.76992e-06
9.70429e-06
-1.51029e-06
6.95831e-06
1.0891e-06
8.89226e-06
4.41154e-06
1.15313e-05
8.61514e-06
1.46671e-05
1.38651e-05
1.83753e-05
2.03058e-05
2.28584e-05
2.82029e-05
2.82664e-05
3.79444e-05
3.49161e-05
5.00395e-05
4.3326e-05
5.42875e-05
6.51333e-05
5.56259e-06
1.08735e-05
8.14346e-06
1.22452e-05
7.2047e-06
1.70269e-05
3.96414e-06
2.15489e-05
-9.30943e-07
2.52596e-05
-6.99759e-06
2.82881e-05
-1.37363e-05
3.10019e-05
-2.08486e-05
3.33769e-05
-2.87071e-05
3.60334e-05
-3.74443e-05
3.84987e-05
4.04871e-05
-4.71892e-05
7.21534e-06
3.65814e-06
1.14436e-05
8.01697e-06
1.37041e-05
1.47663e-05
1.40792e-05
2.11739e-05
1.19812e-05
2.73576e-05
7.25647e-06
3.30129e-05
4.31001e-07
3.78273e-05
-7.67203e-06
4.14799e-05
-1.64796e-05
4.4841e-05
-2.62477e-05
4.82668e-05
5.14654e-05
-3.7226e-05
5.10623e-06
-1.44809e-06
8.86649e-06
4.2567e-06
1.27033e-05
1.09295e-05
1.52721e-05
1.8605e-05
1.5765e-05
2.68647e-05
1.3685e-05
3.50929e-05
8.9664e-06
4.25459e-05
1.92994e-06
4.85164e-05
-6.44848e-06
5.32194e-05
-1.57701e-05
5.75885e-05
6.19687e-05
-2.62734e-05
2.5263e-06
-3.97439e-06
7.03512e-06
-2.52117e-07
1.13583e-05
6.60635e-06
1.49027e-05
1.50606e-05
1.70559e-05
2.47115e-05
1.71638e-05
3.4985e-05
1.47495e-05
4.49603e-05
9.69493e-06
5.35709e-05
2.57817e-06
6.03362e-05
-5.72469e-06
6.58914e-05
7.11844e-05
-1.49405e-05
9.61661e-07
-4.93605e-06
4.32526e-06
-3.61572e-06
9.27551e-06
1.65611e-06
1.38502e-05
1.04859e-05
1.73433e-05
2.12184e-05
1.91702e-05
3.31581e-05
1.87706e-05
4.53599e-05
1.57825e-05
5.6559e-05
1.0402e-05
6.57167e-05
3.37159e-06
7.29218e-05
7.91361e-05
-4.58006e-06
1.03487e-06
-5.97092e-06
2.75462e-06
-5.33547e-06
6.95338e-06
-2.54265e-06
1.21748e-05
5.26445e-06
1.68572e-05
1.6536e-05
2.01793e-05
2.9836e-05
2.15235e-05
4.40157e-05
2.04354e-05
5.7647e-05
1.68576e-05
6.92945e-05
1.13731e-05
7.84063e-05
8.56889e-05
4.82026e-06
1.10214e-06
-7.07306e-06
2.55135e-06
-6.78469e-06
5.32919e-06
-5.32049e-06
1.03679e-05
2.25717e-07
1.57812e-05
1.11228e-05
2.03028e-05
2.53143e-05
2.31376e-05
4.11809e-05
2.37351e-05
5.70495e-05
2.18846e-05
7.1145e-05
1.79193e-05
8.23716e-05
9.07887e-05
1.28196e-05
1.16473e-06
-8.23779e-06
2.63685e-06
-8.2568e-06
4.68629e-06
-7.36993e-06
8.70077e-06
-3.78876e-06
1.42117e-05
5.61187e-06
1.95677e-05
1.99583e-05
2.36055e-05
3.71431e-05
2.56637e-05
5.49914e-05
2.54284e-05
7.13803e-05
2.30386e-05
8.47613e-05
9.48683e-05
1.8959e-05
1.15563e-06
-9.39342e-06
2.67096e-06
-9.77214e-06
4.62437e-06
-9.32334e-06
7.59003e-06
-6.75441e-06
1.25947e-05
6.07161e-07
1.82346e-05
1.43184e-05
2.31199e-05
3.22578e-05
2.63724e-05
5.17389e-05
2.76171e-05
7.01357e-05
2.69682e-05
8.54102e-05
9.67605e-05
2.50759e-05
1.09607e-06
-1.04895e-05
2.52049e-06
-1.11966e-05
4.34156e-06
-1.11444e-05
6.81607e-06
-9.22893e-06
1.09747e-05
-3.55151e-06
1.6419e-05
8.87415e-06
2.17585e-05
2.69183e-05
2.59048e-05
4.75926e-05
2.84169e-05
6.76236e-05
2.9324e-05
8.4503e-05
9.70461e-05
2.90384e-05
8.10978e-07
-1.13005e-05
2.11113e-06
-1.24967e-05
3.77568e-06
-1.2809e-05
6.00328e-06
-1.14565e-05
9.35468e-06
-6.90292e-06
1.42513e-05
3.97754e-06
1.96234e-05
2.15462e-05
2.43459e-05
4.28702e-05
2.78978e-05
6.40717e-05
3.03395e-05
8.20613e-05
9.54747e-05
3.19109e-05
6.88968e-07
-1.19894e-05
1.73016e-06
-1.35379e-05
2.99813e-06
-1.40769e-05
4.83092e-06
-1.32893e-05
7.52328e-06
-9.59529e-06
1.1696e-05
-1.95191e-07
1.66714e-05
1.65708e-05
2.15773e-05
3.79642e-05
2.60034e-05
5.96456e-05
2.99555e-05
7.81092e-05
9.1556e-05
3.38741e-05
4.21301e-07
-1.24107e-05
1.02502e-06
-1.41416e-05
1.88843e-06
-1.49403e-05
3.13394e-06
-1.45348e-05
5.13548e-06
-1.15968e-05
8.50655e-06
-3.56626e-06
1.29034e-05
1.2174e-05
1.78229e-05
3.30447e-05
2.29341e-05
5.45344e-05
2.8233e-05
7.28103e-05
8.5905e-05
3.38841e-05
6.86661e-08
-1.24794e-05
2.34061e-07
-1.4307e-05
5.394e-07
-1.52457e-05
1.10296e-06
-1.50984e-05
2.22967e-06
-1.27235e-05
4.69569e-06
-6.03228e-06
8.58942e-06
8.28023e-06
1.336e-05
2.82741e-05
1.9022e-05
4.88725e-05
2.57276e-05
6.61047e-05
7.83216e-05
3.33109e-05
-2.33832e-07
-1.22456e-05
-5.50646e-07
-1.39902e-05
-8.66495e-07
-1.49298e-05
-1.11598e-06
-1.48489e-05
-1.0339e-06
-1.28056e-05
1.81378e-07
-7.24755e-06
3.64211e-06
4.8195e-06
8.43956e-06
2.34767e-05
1.47464e-05
4.25657e-05
2.26382e-05
5.82129e-05
6.87107e-05
3.22492e-05
-5.86109e-07
-1.16595e-05
-1.42345e-06
-1.31529e-05
-2.39248e-06
-1.39608e-05
-3.43993e-06
-1.38015e-05
-4.3343e-06
-1.19113e-05
-4.44308e-06
-7.13877e-06
-1.96772e-06
2.34414e-06
3.16275e-06
1.83462e-05
1.00544e-05
3.5674e-05
1.94142e-05
4.88531e-05
5.66116e-05
3.15132e-05
-9.96268e-07
-1.06632e-05
-2.39568e-06
-1.17535e-05
-4.04679e-06
-1.23097e-05
-5.88525e-06
-1.1963e-05
-7.62462e-06
-1.01719e-05
-8.5873e-06
-6.17608e-06
-7.37595e-06
1.13278e-06
-2.21347e-06
1.31837e-05
5.60211e-06
2.78585e-05
1.58553e-05
3.85999e-05
4.3681e-05
2.87859e-05
-1.43125e-06
-9.23194e-06
-3.3958e-06
-9.7889e-06
-5.75889e-06
-9.94659e-06
-8.40362e-06
-9.31826e-06
-1.09478e-05
-7.62774e-06
-1.26063e-05
-4.51757e-06
-1.20396e-05
5.66064e-07
-7.42031e-06
8.56447e-06
1.23989e-06
1.91983e-05
1.2467e-05
2.73728e-05
2.94944e-05
2.66535e-05
-1.89206e-06
-7.33988e-06
-4.46507e-06
-7.21589e-06
-7.60403e-06
-6.80763e-06
-1.10794e-05
-5.84288e-06
-1.43705e-05
-4.33664e-06
-1.65913e-05
-2.29682e-06
-1.64151e-05
3.89927e-07
-1.22464e-05
4.39576e-06
-3.25195e-06
1.02038e-05
8.80354e-06
1.53173e-05
1.53599e-05
2.29381e-05
-2.52736e-06
-4.81252e-06
-5.84493e-06
-3.89833e-06
-9.86704e-06
-2.78551e-06
-1.41455e-05
-1.56446e-06
-1.80152e-05
-4.66902e-07
-2.05411e-05
2.2904e-07
-2.0531e-05
3.79902e-07
-1.65942e-05
4.58894e-07
-7.75815e-06
1.36777e-06
4.73576e-06
2.82342e-06
4.45121e-07
1.96505e-05
-3.77827e-06
-1.03425e-06
-7.82211e-06
1.45515e-07
-1.18144e-05
1.20682e-06
-1.53789e-05
2.00002e-06
-1.79183e-05
2.07244e-06
-1.83527e-05
6.63467e-07
-1.57652e-05
-2.20764e-06
-9.82734e-06
-5.47892e-06
3.33608e-09
-8.4629e-06
1.36024e-05
-1.07756e-05
-1.45132e-05
2.85607e-05
-3.87447e-06
2.84022e-06
-5.60239e-06
1.87343e-06
-6.4571e-06
2.06154e-06
-5.5593e-06
1.10221e-06
-2.01158e-06
-1.47527e-06
4.56847e-06
-5.91658e-06
1.25535e-05
-1.01927e-05
2.13634e-05
-1.42888e-05
3.15597e-05
-1.86592e-05
4.44466e-05
-2.36625e-05
-3.02584e-05
6.01918e-05
1.0302e-06
1.81002e-06
3.59453e-06
-6.90901e-07
8.24716e-06
-2.59109e-06
1.48305e-05
-5.48115e-06
2.23733e-05
-9.01801e-06
2.94841e-05
-1.30275e-05
3.66997e-05
-1.74082e-05
4.46468e-05
-2.22359e-05
5.38414e-05
-2.78539e-05
6.49462e-05
-3.47673e-05
-4.37038e-05
7.83916e-05
1.15143e-05
1.77817e-05
2.40829e-05
3.0133e-05
3.57821e-05
4.11299e-05
4.65801e-05
5.26106e-05
5.96728e-05
6.82315e-05
7.88152e-05
-9.06777e-06
1.911e-05
-1.00422e-05
-1.613e-05
1.72995e-05
-1.02372e-05
-2.46896e-05
1.97863e-05
-1.12267e-05
-3.3109e-05
2.07857e-05
-1.23663e-05
-4.16424e-05
2.27622e-05
-1.42288e-05
-5.05128e-05
2.56389e-05
-1.67685e-05
-6.02245e-05
2.97588e-05
-2.00472e-05
-7.11823e-05
3.52073e-05
-2.42494e-05
-8.38593e-05
4.23657e-05
-2.96887e-05
-9.87797e-05
5.1703e-05
-3.67826e-05
6.39067e-05
-4.60428e-05
-0.000116644
2.83114e-07
1.88269e-05
-9.28564e-07
1.85111e-05
-6.53522e-06
2.5393e-05
-1.34121e-05
2.76626e-05
-2.18921e-05
3.12422e-05
-3.13307e-05
3.50775e-05
-4.17833e-05
4.02115e-05
-5.36867e-05
4.71107e-05
-6.74407e-05
5.61196e-05
-8.35773e-05
6.78396e-05
8.30146e-05
-0.000102685
1.4297e-06
1.73972e-05
8.88025e-07
1.90528e-05
-1.70191e-06
2.79829e-05
-5.62995e-06
3.15906e-05
-1.19844e-05
3.75967e-05
-1.99083e-05
4.30013e-05
-2.94421e-05
4.97453e-05
-4.0459e-05
5.81276e-05
-5.33664e-05
6.9027e-05
-6.85994e-05
8.30725e-05
0.000101253
-8.68379e-05
1.054e-06
1.63432e-05
2.1917e-07
1.98876e-05
-9.40255e-07
2.91423e-05
-3.23585e-06
3.38862e-05
-7.48796e-06
4.18488e-05
-1.32092e-05
4.87226e-05
-2.07286e-05
5.72646e-05
-2.99573e-05
6.73563e-05
-4.09753e-05
8.0045e-05
-5.41083e-05
9.62055e-05
0.000116871
-6.97265e-05
8.52989e-07
1.54902e-05
-4.69729e-08
2.07876e-05
-7.1917e-07
2.98145e-05
-2.36407e-06
3.55311e-05
-5.09683e-06
4.45815e-05
-8.97566e-06
5.26014e-05
-1.44801e-05
6.27691e-05
-2.1563e-05
7.44391e-05
-3.03666e-05
8.88486e-05
-4.10442e-05
0.000106883
0.00012976
-5.39332e-05
9.22707e-07
1.45675e-05
4.03768e-07
2.13065e-05
1.04191e-07
3.01141e-05
-1.18638e-06
3.68217e-05
-2.97204e-06
4.63672e-05
-5.62035e-06
5.52497e-05
-9.50955e-06
6.66583e-05
-1.46681e-05
7.95976e-05
-2.13473e-05
9.55278e-05
-2.96575e-05
0.000115193
0.000139888
-3.9785e-05
9.99632e-07
1.35678e-05
9.22933e-07
2.13832e-05
9.93893e-07
3.00431e-05
1.22589e-07
3.7693e-05
-9.65682e-07
4.74555e-05
-2.77805e-06
5.70621e-05
-5.42149e-06
6.93018e-05
-9.03044e-06
8.32066e-05
-1.38544e-05
0.000100352
-2.00528e-05
0.000121392
0.000147689
-2.78539e-05
9.52161e-07
1.26157e-05
1.20732e-06
2.11281e-05
1.57435e-06
2.96761e-05
1.12245e-06
3.81449e-05
6.20367e-07
4.79576e-05
-5.08647e-07
5.81911e-05
-2.11528e-06
7.09084e-05
-4.45134e-06
8.55426e-05
-7.67323e-06
0.000103574
-1.19135e-05
0.000125632
0.00015312
-1.73448e-05
9.41543e-07
1.16741e-05
1.53358e-06
2.0536e-05
2.16735e-06
2.90423e-05
2.15154e-06
3.81607e-05
2.13543e-06
4.79737e-05
1.60595e-06
5.87206e-05
8.42197e-07
7.16722e-05
-4.42561e-07
8.68274e-05
-2.29483e-06
0.000105426
-4.87748e-06
0.000128215
0.000156557
-8.31389e-06
1.14699e-06
1.05271e-05
2.15787e-06
1.95252e-05
3.11386e-06
2.80864e-05
3.56566e-06
3.77089e-05
3.97738e-06
4.75619e-05
3.98123e-06
5.87168e-05
3.89735e-06
7.1756e-05
3.46403e-06
8.72607e-05
2.71195e-06
0.000106178
1.49872e-06
0.000129428
0.000158396
-3.40792e-07
1.28655e-06
9.24059e-06
2.62029e-06
1.81914e-05
3.92018e-06
2.67865e-05
4.85728e-06
3.67718e-05
5.6822e-06
4.6737e-05
6.23077e-06
5.81682e-05
6.75486e-06
7.12319e-05
7.10937e-06
8.69062e-05
7.34998e-06
0.000105937
7.40027e-06
0.000129378
0.000158562
7.2345e-06
1.24483e-06
7.99577e-06
2.77813e-06
1.66581e-05
4.32884e-06
2.52357e-05
5.69584e-06
3.54048e-05
6.95735e-06
4.54755e-05
8.06214e-06
5.70634e-05
9.20408e-06
7.009e-05
1.03488e-05
8.57615e-05
1.15771e-05
0.000104709
1.28635e-05
0.000128091
0.000157214
1.42114e-05
1.24858e-06
6.74719e-06
2.96778e-06
1.49389e-05
4.80018e-06
2.34033e-05
6.61019e-06
3.35948e-05
8.3192e-06
4.37665e-05
9.97855e-06
5.5404e-05
1.17244e-05
6.83441e-05
1.36178e-05
8.38682e-05
1.57657e-05
0.000102561
1.82188e-05
0.000125638
0.00015445
2.09825e-05
1.3505e-06
5.39669e-06
3.26454e-06
1.30249e-05
5.41155e-06
2.12563e-05
7.67815e-06
3.13282e-05
9.88082e-06
4.15638e-05
1.21098e-05
5.31751e-05
1.44623e-05
6.59917e-05
1.70846e-05
8.12459e-05
2.01083e-05
9.95374e-05
2.36608e-05
0.000122086
0.000150215
2.78959e-05
1.25588e-06
4.14082e-06
3.19713e-06
1.10836e-05
5.55429e-06
1.88992e-05
8.22062e-06
2.86619e-05
1.09409e-05
3.88436e-05
1.38004e-05
5.03156e-05
1.68583e-05
6.29337e-05
2.03068e-05
7.77974e-05
2.43139e-05
9.55303e-05
2.90695e-05
0.00011733
0.000144555
3.47297e-05
1.13808e-06
3.00274e-06
3.05433e-06
9.16737e-06
5.59146e-06
1.6362e-05
8.63901e-06
2.56143e-05
1.18969e-05
3.55857e-05
1.54294e-05
4.6783e-05
1.9264e-05
5.90991e-05
2.36138e-05
7.34477e-05
2.86787e-05
9.04654e-05
3.47049e-05
0.000111304
0.000137288
4.19721e-05
1.03811e-06
1.96463e-06
2.90951e-06
7.29597e-06
5.60073e-06
1.36708e-05
9.00919e-06
2.22059e-05
1.28338e-05
3.17611e-05
1.70831e-05
4.25337e-05
2.17775e-05
5.44047e-05
2.71241e-05
6.81011e-05
3.33318e-05
8.42576e-05
4.06819e-05
0.000103954
0.000128473
4.94968e-05
8.38079e-07
1.12655e-06
2.54441e-06
5.58964e-06
5.25812e-06
1.09571e-05
8.93954e-06
1.85245e-05
1.33005e-05
2.74001e-05
1.83156e-05
3.75186e-05
2.39839e-05
4.87364e-05
3.04888e-05
6.15963e-05
3.80417e-05
7.67047e-05
4.69531e-05
9.50424e-05
0.000117866
5.75597e-05
6.23821e-07
5.02728e-07
2.11751e-06
4.09595e-06
4.73382e-06
8.3408e-06
8.55652e-06
1.47018e-05
1.33761e-05
2.25805e-05
1.91586e-05
3.17361e-05
2.5893e-05
4.2002e-05
3.3716e-05
5.37733e-05
4.28131e-05
6.76076e-05
5.3492e-05
8.43636e-05
0.000105135
6.62236e-05
4.41094e-07
6.16335e-08
1.69739e-06
2.83966e-06
4.06404e-06
5.97415e-06
7.82744e-06
1.09384e-05
1.2959e-05
1.74489e-05
1.94536e-05
2.52415e-05
2.72858e-05
3.41698e-05
3.65204e-05
4.45387e-05
4.73148e-05
5.68131e-05
5.99708e-05
7.17076e-05
9.01154e-05
7.499e-05
3.58079e-07
-2.96446e-07
1.27403e-06
1.9237e-06
3.19727e-06
4.05091e-06
6.6282e-06
7.50743e-06
1.18337e-05
1.22435e-05
1.88823e-05
1.81929e-05
2.7704e-05
2.53482e-05
3.82906e-05
3.3952e-05
5.07917e-05
4.4312e-05
6.54882e-05
5.70112e-05
7.27238e-05
8.28797e-05
-4.32813e-08
-2.53164e-07
4.90283e-07
1.39014e-06
1.91489e-06
2.6263e-06
4.893e-06
4.52933e-06
9.91866e-06
7.21781e-06
1.71377e-05
1.09739e-05
2.64927e-05
1.59931e-05
3.80476e-05
2.23971e-05
5.19406e-05
3.0419e-05
6.85191e-05
4.04327e-05
5.2592e-05
8.86509e-05
-2.16338e-07
-3.68263e-08
6.18787e-09
1.16761e-06
1.16959e-06
1.4629e-06
3.73971e-06
1.95921e-06
8.08982e-06
2.8677e-06
1.45213e-05
4.54238e-06
2.32328e-05
7.28158e-06
3.44785e-05
1.11515e-05
4.85572e-05
1.63403e-05
6.57166e-05
2.32733e-05
3.21883e-05
8.61203e-05
-1.928e-08
-1.75463e-08
2.10845e-06
-9.60121e-07
4.50471e-06
-9.33354e-07
7.04025e-06
-5.7634e-07
1.01609e-05
-2.52966e-07
1.45414e-05
1.61911e-07
2.09224e-05
9.00543e-07
2.99186e-05
2.15533e-06
4.2024e-05
4.23489e-06
5.775e-05
7.54737e-06
1.28889e-05
7.70493e-05
-1.43149e-05
4.27269e-06
-2.62442e-05
1.69207e-06
-3.64598e-05
-1.01117e-06
-4.49591e-05
-3.86692e-06
-5.29596e-05
-6.22836e-06
-6.12907e-05
-8.43733e-06
-7.05489e-05
-1.0789e-05
-8.1164e-05
-1.36342e-05
-9.35208e-05
-1.7332e-05
-0.000108062
-2.22415e-05
-2.88744e-05
-0.00012523
-6.00017e-06
1.02729e-05
-1.2581e-05
8.27286e-06
-2.14022e-05
7.81003e-06
-3.09351e-05
5.66602e-06
-4.07708e-05
3.60734e-06
-5.09002e-05
1.69213e-06
-6.16762e-05
-1.3086e-08
-7.36968e-05
-1.61359e-06
-8.75851e-05
-3.44374e-06
-0.000103898
-5.92877e-06
-9.49419e-06
-0.000123278
-2.52997e-06
1.28028e-05
-6.07045e-06
1.18133e-05
-1.21533e-05
1.38929e-05
-1.99087e-05
1.34215e-05
-2.91477e-05
1.28463e-05
-3.95191e-05
1.20636e-05
-5.10144e-05
1.14822e-05
-6.38438e-05
1.12158e-05
-7.84178e-05
1.11302e-05
-9.52755e-05
1.09289e-05
1.02232e-05
-0.000114993
-1.62482e-06
1.44277e-05
-4.55547e-06
1.4744e-05
-8.97429e-06
1.83117e-05
-1.48046e-05
1.92517e-05
-2.2465e-05
2.05068e-05
-3.15967e-05
2.11952e-05
-4.22025e-05
2.2088e-05
-5.42817e-05
2.3295e-05
-6.80691e-05
2.49177e-05
-8.39703e-05
2.68301e-05
2.87624e-05
-0.00010251
-1.44538e-06
1.5873e-05
-4.16538e-06
1.7464e-05
-7.55807e-06
2.17044e-05
-1.20743e-05
2.3768e-05
-1.81514e-05
2.65839e-05
-2.58009e-05
2.88447e-05
-3.50213e-05
3.13084e-05
-4.57943e-05
3.4068e-05
-5.82354e-05
3.73588e-05
-7.25558e-05
4.11504e-05
4.52756e-05
-8.90689e-05
-1.26493e-06
1.7138e-05
-3.74387e-06
1.99429e-05
-6.56035e-06
2.45209e-05
-1.02227e-05
2.74303e-05
-1.51527e-05
3.15139e-05
-2.13279e-05
3.50199e-05
-2.90378e-05
3.90183e-05
-3.82693e-05
4.32995e-05
-4.90828e-05
4.81724e-05
-6.16104e-05
5.3678e-05
5.9684e-05
-7.60188e-05
-1.0512e-06
1.81892e-05
-3.21217e-06
2.21039e-05
-5.5888e-06
2.68975e-05
-8.60383e-06
3.04454e-05
-1.25888e-05
3.54989e-05
-1.76403e-05
4.00714e-05
-2.3971e-05
4.5349e-05
-3.16753e-05
5.10038e-05
-4.08396e-05
5.73367e-05
-5.15711e-05
6.44095e-05
7.21751e-05
-6.40623e-05
-9.82555e-07
1.91717e-05
-2.82732e-06
2.39487e-05
-4.8026e-06
2.88728e-05
-7.4423e-06
3.30851e-05
-1.0572e-05
3.86286e-05
-1.46144e-05
4.41137e-05
-1.96941e-05
5.04287e-05
-2.59421e-05
5.72519e-05
-3.34796e-05
6.48742e-05
-4.2388e-05
7.33178e-05
8.25848e-05
-5.27977e-05
-8.26175e-07
1.99979e-05
-2.42954e-06
2.5552e-05
-3.87137e-06
3.03146e-05
-6.05814e-06
3.52718e-05
-8.57351e-06
4.1144e-05
-1.17944e-05
4.73346e-05
-1.5781e-05
5.44153e-05
-2.07059e-05
6.21768e-05
-2.6688e-05
7.08563e-05
-3.38587e-05
8.04885e-05
9.11002e-05
-4.2374e-05
-6.22613e-07
2.06205e-05
-1.8603e-06
2.67897e-05
-3.0631e-06
3.15174e-05
-4.69987e-06
3.69086e-05
-6.58256e-06
4.30266e-05
-9.01881e-06
4.97709e-05
-1.20156e-05
5.7412e-05
-1.57176e-05
6.58788e-05
-2.02315e-05
7.53703e-05
-2.56607e-05
8.59177e-05
9.75302e-05
-3.20908e-05
-3.48773e-07
2.09693e-05
-1.12925e-06
2.75702e-05
-1.92351e-06
3.23116e-05
-3.09844e-06
3.80835e-05
-4.39155e-06
4.43198e-05
-6.09789e-06
5.14772e-05
-8.17154e-06
5.94857e-05
-1.07496e-05
6.84569e-05
-1.38809e-05
7.85016e-05
-1.76382e-05
8.9675e-05
0.000102025
-2.21334e-05
-1.38355e-07
2.11076e-05
-6.16067e-07
2.80479e-05
-1.01282e-06
3.27084e-05
-1.68673e-06
3.87574e-05
-2.38088e-06
4.50139e-05
-3.34289e-06
5.24392e-05
-4.49714e-06
6.06399e-05
-5.94079e-06
6.99005e-05
-7.69072e-06
8.02515e-05
-9.76527e-06
9.17496e-05
0.000104398
-1.21376e-05
1.14254e-07
2.09934e-05
-7.50296e-10
2.81629e-05
-1.67734e-08
3.27244e-05
-1.83743e-07
3.89244e-05
-2.82182e-07
4.51124e-05
-5.0795e-07
5.2665e-05
-7.47666e-07
6.08796e-05
-1.08768e-06
7.02406e-05
-1.47397e-06
8.06378e-05
-1.8969e-06
9.21725e-05
0.000104724
-2.22339e-06
4.7694e-07
2.05164e-05
8.00807e-07
2.7839e-05
1.19623e-06
3.2329e-05
1.54967e-06
3.8571e-05
2.04407e-06
4.46179e-05
2.55249e-06
5.21566e-05
3.20022e-06
6.02319e-05
3.95061e-06
6.94902e-05
4.88318e-06
7.97052e-05
6.06144e-06
9.09942e-05
0.00010321
7.57534e-06
7.00073e-07
1.98164e-05
1.40245e-06
2.71367e-05
2.23118e-06
3.15003e-05
3.14723e-06
3.76549e-05
4.25853e-06
4.35066e-05
5.56207e-06
5.0853e-05
7.13835e-06
5.86556e-05
9.02978e-06
6.75987e-05
1.13283e-05
7.74067e-05
1.4133e-05
8.81895e-05
9.97429e-05
1.76003e-05
9.58982e-07
1.88574e-05
2.08453e-06
2.60111e-05
3.35828e-06
3.02265e-05
4.85446e-06
3.61587e-05
6.61551e-06
4.17456e-05
8.74139e-06
4.87272e-05
1.12829e-05
5.61142e-05
1.43403e-05
6.45413e-05
1.80247e-05
7.37223e-05
2.2472e-05
8.37422e-05
9.43536e-05
2.78614e-05
1.27762e-06
1.75798e-05
2.85542e-06
2.44333e-05
4.61967e-06
2.84623e-05
6.73618e-06
3.40422e-05
9.18673e-06
3.9295e-05
1.2165e-05
4.57489e-05
1.57098e-05
5.25694e-05
1.99759e-05
6.02752e-05
2.50749e-05
6.86233e-05
3.11875e-05
7.76296e-05
8.70172e-05
3.85239e-05
1.58078e-06
1.5999e-05
3.62768e-06
2.23864e-05
5.92167e-06
2.61683e-05
8.69846e-06
3.12654e-05
1.18969e-05
3.60966e-05
1.57918e-05
4.1854e-05
2.04015e-05
4.79597e-05
2.59218e-05
5.47549e-05
3.25014e-05
6.20436e-05
4.03309e-05
6.98001e-05
7.76938e-05
4.96542e-05
1.88838e-06
1.41106e-05
4.40505e-06
1.98697e-05
7.27509e-06
2.32982e-05
1.07518e-05
2.77887e-05
1.47814e-05
3.2067e-05
1.96428e-05
3.69926e-05
2.53903e-05
4.22122e-05
3.22351e-05
4.79102e-05
4.03287e-05
5.395e-05
4.9907e-05
6.02219e-05
6.64305e-05
6.11703e-05
2.21829e-06
1.18923e-05
5.2233e-06
1.68647e-05
8.69491e-06
1.98266e-05
1.29229e-05
2.35607e-05
1.78417e-05
2.71482e-05
2.37241e-05
3.11102e-05
3.06515e-05
3.52847e-05
3.88353e-05
3.97264e-05
4.84752e-05
4.43101e-05
5.98149e-05
4.88821e-05
5.30534e-05
7.31921e-05
2.55983e-06
9.3325e-06
6.02358e-06
1.3401e-05
1.01252e-05
1.57251e-05
1.51253e-05
1.85606e-05
2.09646e-05
2.13089e-05
2.7872e-05
2.42029e-05
3.59799e-05
2.71768e-05
4.54884e-05
3.02178e-05
5.6625e-05
3.31736e-05
6.9679e-05
3.58281e-05
3.77807e-05
8.49516e-05
2.83418e-06
6.49832e-06
6.7521e-06
9.48304e-06
1.14564e-05
1.10208e-05
1.71767e-05
1.28403e-05
2.38824e-05
1.46031e-05
3.17425e-05
1.63428e-05
4.0903e-05
1.80164e-05
5.15914e-05
1.95294e-05
6.40691e-05
2.06959e-05
7.86321e-05
2.12651e-05
2.07893e-05
9.56235e-05
3.45046e-06
3.04787e-06
7.727e-06
5.2065e-06
1.28149e-05
5.93287e-06
1.89718e-05
6.68337e-06
2.62191e-05
7.35581e-06
3.46894e-05
7.87248e-06
4.45678e-05
8.13804e-06
5.611e-05
7.98713e-06
6.95728e-05
7.23311e-06
8.51816e-05
5.65636e-06
2.9559e-06
0.000103015
3.03032e-06
7.2767e-06
1.22762e-05
1.83832e-05
2.54861e-05
3.35205e-05
4.25591e-05
5.27015e-05
6.41695e-05
7.73733e-05
9.32181e-05
-7.23899e-07
1.3378e-05
-1.26541e-05
-1.84213e-06
1.29859e-05
-1.18676e-05
-4.75295e-06
1.6154e-05
-1.32432e-05
-8.79299e-06
1.91005e-05
-1.50605e-05
-1.34213e-05
2.19745e-05
-1.73462e-05
-1.84256e-05
2.51977e-05
-2.01935e-05
-2.39442e-05
2.9258e-05
-2.37394e-05
-3.01857e-05
3.44108e-05
-2.81693e-05
-3.74242e-05
4.09911e-05
-3.37526e-05
-4.59921e-05
4.94215e-05
-4.08536e-05
6.03223e-05
-4.99159e-05
-5.63985e-05
3.95245e-06
9.42553e-06
5.49643e-06
1.14419e-05
5.19325e-06
1.64572e-05
3.42287e-06
2.08709e-05
1.65243e-07
2.52321e-05
-4.36939e-06
2.97323e-05
-9.88923e-06
3.47778e-05
-1.63359e-05
4.08574e-05
-2.39297e-05
4.8585e-05
-3.29923e-05
5.84841e-05
7.12868e-05
-4.39568e-05
2.91331e-06
6.51222e-06
4.55307e-06
9.80212e-06
5.89086e-06
1.51194e-05
6.23234e-06
2.05294e-05
5.12956e-06
2.63349e-05
2.46623e-06
3.23957e-05
-1.5865e-06
3.88306e-05
-6.83182e-06
4.61027e-05
-1.32504e-05
5.50036e-05
-2.10858e-05
6.63195e-05
8.10211e-05
-3.08201e-05
2.35276e-06
4.15945e-06
3.86999e-06
8.28489e-06
5.4045e-06
1.35849e-05
6.57378e-06
1.93601e-05
6.89442e-06
2.60143e-05
6.01076e-06
3.32793e-05
3.8007e-06
4.10406e-05
3.1725e-07
4.95862e-05
-4.34185e-06
5.96627e-05
-1.02325e-05
7.22102e-05
8.8348e-05
-1.75594e-05
1.72552e-06
2.43393e-06
3.39867e-06
6.61174e-06
5.22523e-06
1.17583e-05
6.73532e-06
1.785e-05
7.82744e-06
2.49222e-05
8.17062e-06
3.29362e-05
7.51143e-06
4.16998e-05
5.75568e-06
5.13419e-05
2.95567e-06
6.24627e-05
-8.59609e-07
7.60255e-05
9.32835e-05
-5.7951e-06
1.41634e-06
1.01759e-06
3.22706e-06
4.80103e-06
5.17917e-06
9.80623e-06
7.07606e-06
1.59531e-05
8.68963e-06
2.33086e-05
9.8636e-06
3.17622e-05
1.03531e-05
4.12103e-05
1.00053e-05
5.16897e-05
8.82914e-06
6.36388e-05
6.8939e-06
7.79607e-05
9.59675e-05
4.20988e-06
1.11866e-06
-1.01079e-07
2.9337e-06
2.986e-06
4.98244e-06
7.75749e-06
7.12549e-06
1.38101e-05
9.20936e-06
2.12247e-05
1.1033e-05
2.99386e-05
1.24074e-05
3.98359e-05
1.32003e-05
5.08968e-05
1.33948e-05
6.34443e-05
1.30919e-05
7.82636e-05
9.66417e-05
1.24177e-05
6.64538e-07
-7.65617e-07
2.19229e-06
1.45825e-06
4.29035e-06
5.65943e-06
6.66843e-06
1.1432e-05
9.11665e-06
1.87765e-05
1.14735e-05
2.75817e-05
1.35883e-05
3.77211e-05
1.53363e-05
4.91489e-05
1.67106e-05
6.207e-05
1.78317e-05
7.71425e-05
9.55656e-05
1.89078e-05
2.46091e-07
-1.01171e-06
1.39652e-06
3.07822e-07
3.39315e-06
3.6628e-06
5.8698e-06
8.95535e-06
8.57315e-06
1.60731e-05
1.13407e-05
2.48142e-05
1.40399e-05
3.50219e-05
1.65765e-05
4.66123e-05
1.89411e-05
5.97054e-05
2.12705e-05
7.4813e-05
9.29985e-05
2.38376e-05
1.73209e-07
-1.18492e-06
9.23837e-07
-4.42806e-07
2.57472e-06
2.01191e-06
4.95203e-06
6.57804e-06
7.7601e-06
1.32651e-05
1.07991e-05
2.17752e-05
1.39303e-05
3.18907e-05
1.70745e-05
4.34681e-05
2.02325e-05
5.65474e-05
2.35542e-05
7.14914e-05
8.92104e-05
2.73423e-05
1.31986e-07
-1.3169e-06
5.77527e-07
-8.88347e-07
1.79018e-06
7.99261e-07
3.86716e-06
4.50107e-06
6.58142e-06
1.05508e-05
9.71242e-06
1.86442e-05
1.31117e-05
2.84915e-05
1.67076e-05
3.98721e-05
2.05152e-05
5.27398e-05
2.46737e-05
6.73329e-05
8.43498e-05
2.95343e-05
6.49513e-08
-1.38186e-06
2.73658e-07
-1.09705e-06
1.03779e-06
3.51292e-08
2.64659e-06
2.89227e-06
5.06709e-06
8.13031e-06
8.08422e-06
1.5627e-05
1.15708e-05
2.50049e-05
1.54608e-05
3.59821e-05
1.97777e-05
4.84229e-05
2.46552e-05
6.24554e-05
7.86391e-05
3.03658e-05
-5.00211e-09
-1.37685e-06