/*--------------------------------*- C++ -*----------------------------------*\
| =========                 |                                                 |
| \\      /  F ield         | OpenFOAM: The Open Source CFD Toolbox           |
|  \\    /   O peration     | Version:  3.0.1                                 |
|   \\  /    A nd           | Web:      www.OpenFOAM.org                      |
|    \\/     M anipulation  |                                                 |
\*---------------------------------------------------------------------------*/
FoamFile
{
    version     2.0;
    format      ascii;
    class       volScalarField;
    location    "0.914835";
    object      p;
}
// * * * * * * * * * * * * * * * * * * * * * * * * * * * * * * * * * * * * * //

dimensions      [0 2 -2 0 0 0 0];

internalField   nonuniform List<scalar> 
21246
(
-5.077
-0.865637
0.681057
1.29371
1.48534
1.49305
1.41217
1.29355
1.15278
1.01332
0.953391
-16.1136
-8.48041
-5.37793
-3.07398
-1.39478
-0.418585
0.0937053
0.344445
0.445538
0.465775
0.499568
-14.8098
-11.3602
-9.42502
-6.92142
-4.55509
-2.7916
-1.60185
-0.855667
-0.415392
-0.16115
0.0287839
-10.6505
-10.1898
-9.6903
-8.20819
-6.36214
-4.61252
-3.16084
-2.07432
-1.33196
-0.845248
-0.500452
-7.88215
-8.07163
-8.10374
-7.55194
-6.5737
-5.34862
-4.09226
-2.98842
-2.11825
-1.48272
-0.992342
-6.24776
-6.45315
-6.5193
-6.35843
-5.93578
-5.23545
-4.35614
-3.45098
-2.63567
-1.97343
-1.42269
-5.3717
-5.38668
-5.40332
-5.3534
-5.16488
-4.77844
-4.21207
-3.54712
-2.8732
-2.2698
-1.73231
-4.98732
-4.8076
-4.76476
-4.6963
-4.56026
-4.31037
-3.92879
-3.44422
-2.90975
-2.39213
-1.89947
-4.83449
-4.54594
-4.46073
-4.32274
-4.16344
-3.95303
-3.65655
-3.27578
-2.83867
-2.39441
-1.96104
-4.72513
-4.40319
-4.29125
-4.10339
-3.92089
-3.71584
-3.44968
-3.11473
-2.72773
-2.32841
-1.93064
-4.65198
-4.32992
-4.1754
-3.97188
-3.77892
-3.57019
-3.31038
-2.98682
-2.60941
-2.20569
-1.82919
-4.62977
-4.30745
-4.13529
-3.91887
-3.71152
-3.49264
-3.22727
-2.89596
-2.50541
-2.0853
-1.67784
-4.63032
-4.30955
-4.13712
-3.91664
-3.69992
-3.47026
-3.19109
-2.83757
-2.41417
-1.95451
-1.5048
-4.63427
-4.32107
-4.1526
-3.9346
-3.71125
-3.47675
-3.18101
-2.79847
-2.33105
-1.81717
-1.30894
-4.62849
-4.3233
-4.1586
-3.94084
-3.71385
-3.46867
-3.16021
-2.75222
-2.24264
-1.67506
-1.10061
-4.6006
-4.30255
-4.13946
-3.92318
-3.68839
-3.43338
-3.11321
-2.68626
-2.14423
-1.53523
-0.915723
-4.54615
-4.25712
-4.09459
-3.8798
-3.63846
-3.369
-3.04083
-2.60351
-2.0461
-1.41266
-0.751536
-4.46793
-4.18869
-4.02709
-3.81343
-3.56921
-3.28967
-2.95669
-2.52241
-1.97009
-1.33894
-0.679681
-4.36955
-4.1032
-3.94374
-3.73301
-3.49098
-3.21595
-2.88798
-2.47825
-1.95744
-1.35975
-0.729344
-4.25522
-4.0069
-3.85364
-3.65309
-3.42168
-3.16339
-2.86686
-2.50643
-2.05259
-1.52548
-0.937466
-4.13019
-3.91082
-3.76941
-3.58446
-3.37334
-3.14898
-2.91066
-2.63287
-2.29023
-1.87611
-1.37095
-4.01415
-3.82672
-3.69786
-3.52625
-3.34555
-3.17661
-3.02608
-2.87386
-2.68538
-2.42437
-2.03861
-3.91328
-3.75399
-3.60006
-3.44591
-3.32053
-3.24334
-3.21955
-3.2237
-3.2073
-3.11943
-2.90767
-3.87562
-3.42673
-3.38788
-3.355
-3.35388
-3.4195
-3.5403
-3.67326
-3.76226
-3.75003
-3.57761
13.2738
8.92032
6.12109
4.50333
3.52406
2.88976
2.43495
2.07114
1.75654
1.49444
1.31784
12.8184
11.9161
9.82971
7.77061
6.03299
4.69179
3.70771
2.98054
2.41847
1.98872
1.71578
9.28463
9.97788
9.64415
8.61158
7.2234
5.85892
4.6859
3.73811
2.98264
2.39561
2.01057
6.24176
7.51723
7.83239
7.68111
7.057
6.12794
5.09927
4.14272
3.32248
2.65863
2.20948
3.99665
5.29127
5.82824
6.17055
6.10753
5.65722
4.96789
4.19699
3.44959
2.795
2.32054
2.34926
3.47737
3.98639
4.52113
4.80419
4.76902
4.44576
3.93325
3.32856
2.75161
2.30899
1.14244
2.09247
2.49662
3.05177
3.4592
3.65928
3.62191
3.38258
2.95492
2.52133
2.15386
0.288616
1.06613
1.35254
1.86661
2.27928
2.57474
2.70384
2.65169
2.4398
2.14612
1.87936
-0.396014
0.283254
0.451384
0.939034
1.30426
1.62185
1.82938
1.90447
1.84254
1.67909
1.51829
-0.995097
-0.343951
-0.310835
0.212514
0.496858
0.813034
1.05188
1.19868
1.23767
1.18153
1.12296
-1.46729
-1.01409
-0.818701
-0.454406
-0.164546
0.129903
0.373901
0.556877
0.661229
0.68526
0.699813
-1.82873
-1.47179
-1.27791
-0.977823
-0.714579
-0.448044
-0.213634
-0.0185267
0.123901
0.204137
0.274512
-2.14687
-1.83043
-1.66115
-1.40123
-1.17045
-0.93687
-0.724205
-0.535419
-0.377338
-0.259216
-0.1534
-2.43653
-2.13703
-1.98058
-1.75286
-1.55171
-1.35282
-1.1707
-1.00388
-0.851527
-0.717486
-0.576518
-2.61925
-2.37013
-2.23809
-2.04526
-1.87466
-1.71184
-1.56545
-1.43177
-1.30367
-1.17677
-1.03854
-2.76825
-2.564
-2.45233
-2.293
-2.15397
-2.02881
-1.9227
-1.83077
-1.74097
-1.6376
-1.51402
-2.90709
-2.73863
-2.64145
-2.51209
-2.40412
-2.31735
-2.25532
-2.21253
-2.1724
-2.10567
-1.99169
-3.01768
-2.88971
-2.81036
-2.71083
-2.63423
-2.58622
-2.57105
-2.58346
-2.60317
-2.59427
-2.53219
-3.10974
-3.0235
-2.96439
-2.89372
-2.84779
-2.8376
-2.87001
-2.94051
-3.0234
-3.07107
-3.02355
-3.19611
-3.14694
-3.10703
-3.06117
-3.04221
-3.06628
-3.14409
-3.27221
-3.42203
-3.5304
-3.53761
-3.27585
-3.25712
-3.23338
-3.20562
-3.20688
-3.25903
-3.37635
-3.55421
-3.75624
-3.91341
-3.94038
-3.3433
-3.34677
-3.33095
-3.31086
-3.32403
-3.39697
-3.54389
-3.75447
-3.98465
-4.15653
-4.12898
-3.40789
-3.40231
-3.37869
-3.35913
-3.3819
-3.47136
-3.6352
-3.85455
-4.08154
-4.24811
-4.23824
-3.35785
-3.35899
-3.33972
-3.34217
-3.3857
-3.4834
-3.63527
-3.8183
-3.98914
-4.08837
-4.01204
1.92731
0.990269
0.895806
1.0281
1.25914
1.53441
1.73941
1.86669
1.92612
1.94382
2.00434
8.58035
6.81109
5.36213
4.40187
3.80033
3.43729
3.20598
3.03176
2.87393
2.72896
2.64281
9.04695
8.56369
7.66034
6.72246
5.873
5.16635
4.60544
4.1587
3.78642
3.4669
3.24597
8.39305
8.39631
8.07982
7.57618
6.96538
6.30452
5.6641
5.07736
4.55837
4.11336
3.79312
7.86464
7.99608
7.9177
7.71107
7.35474
6.84514
6.29282
5.72631
5.18643
4.70685
4.34533
7.47334
7.66773
7.66725
7.59349
7.40653
7.09735
6.68771
6.2074
5.69395
5.19408
4.78242
7.11779
7.32004
7.35659
7.37963
7.32103
7.14852
6.85545
6.45975
5.99448
5.50951
5.08097
6.79653
6.94917
7.00734
7.05799
7.05924
6.97561
6.78463
6.48483
6.09499
5.66386
5.28103
6.49458
6.62314
6.67473
6.72633
6.74715
6.70743
6.58213
6.35891
6.04211
5.66778
5.32182
6.19739
6.31888
6.36436
6.4112
6.43519
6.41307
6.32309
6.15049
5.89147
5.5696
5.25921
5.93992
6.04393
6.07696
6.11372
6.13213
6.11356
6.03999
5.89764
5.67933
5.40249
5.1438
5.74044
5.80738
5.81657
5.83465
5.83901
5.81388
5.74412
5.61775
5.42693
5.18339
4.95549
5.52857
5.57049
5.56222
5.562
5.54908
5.51146
5.43718
5.31698
5.14427
4.9279
4.73046
5.28401
5.31638
5.29796
5.28196
5.2514
5.19843
5.11453
4.99376
4.83161
4.63403
4.46109
5.07997
5.07632
5.0316
4.99157
4.93856
4.86631
4.76884
4.64369
4.48969
4.31153
4.16057
4.84673
4.81012
4.74152
4.67624
4.59785
4.50314
4.38963
4.25912
4.11435
3.95862
3.8388
4.55149
4.49392
4.40858
4.31872
4.21298
4.09371
3.96394
3.83088
3.70131
3.57554
3.48974
4.25209
4.15183
4.03423
3.90875
3.76819
3.62125
3.47776
3.35058
3.24911
3.16834
3.13192
3.9098
3.75294
3.59221
3.41997
3.23669
3.0615
2.91403
2.81079
2.75722
2.73944
2.76582
3.48284
3.25588
3.04202
2.81655
2.58576
2.38963
2.26079
2.21301
2.23744
2.30132
2.38936
2.94428
2.63307
2.35415
2.04975
1.77221
1.58468
1.5214
1.57659
1.71368
1.88138
2.04696
2.31145
1.76594
1.39671
1.03252
0.757142
0.652351
0.73211
0.947794
1.22787
1.51073
1.75969
0.835092
0.514122
0.0754423
-0.277546
-0.430538
-0.326467
-0.0156022
0.399836
0.82782
1.21594
1.53157
1.73391
-0.747982
-1.33389
-1.55581
-1.44221
-1.05279
-0.514015
0.0544127
0.575496
1.03168
1.38538
-15.6504
-6.98396
-3.57729
-2.08164
-0.877778
-0.0350047
0.453638
0.798686
1.02692
1.16609
1.31222
-15.7419
-11.0949
-8.51137
-6.33733
-4.16481
-2.48013
-1.32725
-0.545283
-0.0418951
0.304842
0.602897
-10.6521
-10.7628
-10.242
-8.8801
-7.02798
-5.14745
-3.51045
-2.24284
-1.34239
-0.709315
-0.212959
-9.99527
-10.0945
-10.0479
-9.60032
-8.63019
-7.21767
-5.59623
-4.06211
-2.81621
-1.8743
-1.12388
-10.282
-10.2152
-10.0877
-9.91799
-9.50446
-8.65232
-7.35374
-5.82443
-4.36108
-3.13791
-2.1424
-10.7263
-10.6843
-10.5414
-10.4079
-10.2451
-9.79896
-8.87452
-7.50696
-5.94891
-4.47615
-3.21107
-11.2879
-11.3275
-11.2648
-11.1663
-11.1217
-10.9325
-10.3294
-9.17309
-7.60001
-5.92025
-4.31892
-11.9091
-12.0356
-12.0523
-12.0959
-12.1179
-12.1259
-11.8023
-10.8663
-9.31993
-7.47473
-5.60679
-12.5586
-12.778
-12.874
-13.0619
-13.2718
-13.4601
-13.3478
-12.6011
-11.0806
-9.04816
-6.8153
-13.1454
-13.4828
-13.6685
-14.0226
-14.4648
-14.819
-14.9121
-14.3342
-12.8235
-10.6097
-8.05717
-13.5154
-14.0912
-14.3433
-14.8488
-15.4732
-16.0753
-16.4037
-15.9553
-14.4212
-12.0011
-9.15161
-13.8468
-14.4952
-14.7911
-15.447
-16.2357
-17.0799
-17.5965
-17.258
-15.6881
-13.0313
-9.89957
-13.9637
-14.5876
-15.0419
-15.7502
-16.6375
-17.6312
-18.2623
-18.0186
-16.3749
-13.4989
-9.98298
-13.7901
-14.4009
-14.9423
-15.6832
-16.5952
-17.5802
-18.2271
-18.0714
-16.3024
-13.2951
-9.64799
-13.3571
-13.8865
-14.4389
-15.1565
-16.0187
-16.8982
-17.4821
-17.1488
-15.3369
-12.3151
-8.7229
-12.5844
-12.9794
-13.4769
-14.1169
-14.872
-15.5975
-15.971
-15.3673
-13.4963
-10.5925
-7.24726
-11.4214
-11.6626
-12.0662
-12.6027
-13.2207
-13.7354
-13.8138
-13.0274
-11.0904
-8.35535
-5.28478
-9.86751
-9.9775
-10.3012
-10.7718
-11.2877
-11.6042
-11.3883
-10.3549
-8.40817
-5.8691
-3.11047
-7.97042
-8.06167
-8.41656
-8.92527
-9.40863
-9.55559
-9.03961
-7.7145
-5.72925
-3.48131
-1.20822
-6.02971
-6.30976
-6.8478
-7.44681
-7.88282
-7.8284
-6.9753
-5.32668
-3.28295
-1.32613
0.47267
-4.84402
-5.45876
-6.27643
-6.98292
-7.36967
-7.07665
-5.843
-3.86757
-1.82908
-0.00402135
1.55182
-4.73123
-5.85893
-6.94567
-7.66953
-7.97131
-7.0913
-4.88171
-2.7649
-0.942067
0.540993
1.67347
-6.48114
-8.80772
-8.76393
-8.05389
-6.74453
-5.06955
-3.08833
-1.46595
-0.210933
0.758258
1.40281
-12.0887
-7.31901
-5.61827
-4.4639
-3.30186
-2.17511
-1.1292
-0.272011
0.386388
0.956233
1.34811
15.3737
14.9646
13.4018
11.4908
9.49655
7.79028
6.39327
5.26279
4.33715
3.60765
3.17513
-10.7414
0.089754
3.24645
5.57652
5.9777
5.62065
4.93045
4.20862
3.5373
2.9724
2.61995
-23.0906
-12.3692
-8.66304
-3.00057
-0.0573933
1.74643
2.35008
2.4763
2.33269
2.11574
1.97112
-24.7692
-18.3729
-16.2535
-9.96864
-6.3038
-2.98605
-0.993668
0.131523
0.697474
0.968109
1.12597
-22.4538
-19.2043
-18.553
-13.5331
-10.6283
-6.8727
-4.26803
-2.32513
-1.13848
-0.355177
0.185941
-19.6601
-17.8073
-17.7859
-14.2563
-12.5076
-9.08884
-6.6271
-4.34126
-2.84181
-1.6544
-0.800352
-16.9778
-15.8457
-15.9611
-13.4717
-12.5898
-9.79145
-7.86991
-5.69457
-4.02498
-2.68376
-1.63324
-14.3339
-13.7257
-13.8908
-12.0944
-11.6863
-9.48875
-8.13564
-6.23616
-4.71078
-3.36173
-2.26089
-11.961
-11.7172
-11.8213
-10.5393
-10.3274
-8.6627
-7.73831
-6.16314
-4.89627
-3.65929
-2.59838
-10.1076
-9.90127
-9.86605
-8.99857
-8.83442
-7.6081
-6.95477
-5.70323
-4.69852
-3.6288
-2.66776
-8.30511
-8.14978
-8.08773
-7.50013
-7.36604
-6.46926
-5.99783
-5.02753
-4.24983
-3.36779
-2.5678
-6.52577
-6.43468
-6.42903
-6.04414
-5.96617
-5.32169
-4.98941
-4.25216
-3.65859
-2.94759
-2.29637
-5.11836
-4.99932
-4.99673
-4.73259
-4.69101
-4.23423
-4.00413
-3.45409
-3.0057
-2.44433
-1.92743
-4.06175
-3.88336
-3.84835
-3.63999
-3.5986
-3.26557
-3.09711
-2.68759
-2.34784
-1.91172
-1.51168
-3.10471
-2.88952
-2.86919
-2.71422
-2.67448
-2.4261
-2.2913
-1.98079
-1.71748
-1.38045
-1.06885
-2.38307
-2.13975
-2.10456
-1.97138
-1.91833
-1.71814
-1.59174
-1.34326
-1.12916
-0.869588
-0.64081
-1.87903
-1.60745
-1.54819
-1.41428
-1.32833
-1.13868
-0.99321
-0.772177
-0.584486
-0.382678
-0.213401
-1.4889
-1.20307
-1.12167
-0.981695
-0.857945
-0.654106
-0.470421
-0.250663
-0.0749082
0.0794045
0.187865
-1.19355
-0.901594
-0.793044
-0.639413
-0.468079
-0.227614
0.00808735
0.242282
0.409623
0.517768
0.557655
-0.9574
-0.665582
-0.529722
-0.347561
-0.116854
0.180768
0.474199
0.7235
0.87468
0.936525
0.92428
-0.743457
-0.452146
-0.290654
-0.0653149
0.240682
0.618098
0.953552
1.19568
1.31254
1.32936
1.28359
-0.494649
-0.241136
-0.0230228
0.283155
0.694165
1.13
1.43533
1.62504
1.67955
1.64842
1.56428
-0.383143
0.0243168
0.336739
0.782856
1.28072
1.68343
1.91003
1.99569
2.00092
1.9841
2.15316
0.560947
0.808058
1.28978
1.77143
2.04487
2.14867
2.12546
2.02073
1.88587
1.76006
1.9649
28.5668
23.3732
18.3591
14.2249
11.2435
9.07365
7.3838
6.01883
4.91095
4.04619
3.47934
16.5022
18.4898
17.7728
15.9436
13.1443
10.5412
8.34623
6.62554
5.3239
4.36801
3.75373
4.57896
10.2544
11.9598
12.7485
11.9102
10.2925
8.55016
6.94133
5.58959
4.5712
3.88696
-3.2893
2.4444
4.78408
7.46584
8.54305
8.41698
7.56712
6.44941
5.33347
4.41351
3.80508
-7.32925
-2.89687
-1.03812
2.22733
4.20974
5.37715
5.55802
5.20628
4.57712
3.93372
3.4619
-9.13454
-5.84149
-4.67919
-1.63896
0.393862
2.18455
3.12294
3.48313
3.40562
3.13585
2.87274
-9.84503
-7.26565
-6.63669
-3.9987
-2.38379
-0.408565
0.85493
1.68897
2.07023
2.16726
2.15439
-9.94353
-7.85702
-7.64174
-5.24084
-4.1824
-2.24674
-0.952247
0.113593
0.796864
1.19281
1.41062
-9.94694
-8.07825
-8.15905
-5.94586
-5.15945
-3.48375
-2.25786
-1.11899
-0.278762
0.321073
0.736699
-9.95167
-8.35333
-8.18216
-6.51686
-5.68833
-4.24477
-3.12976
-2.00448
-1.10864
-0.399956
0.149194
-9.86745
-8.62904
-8.14184
-6.80671
-5.98928
-4.69092
-3.6717
-2.59066
-1.69377
-0.942274
-0.327415
-9.57193
-8.54667
-8.0367
-6.86199
-6.09166
-4.90364
-3.96296
-2.93213
-2.05919
-1.29669
-0.671596
-9.27422
-8.3024
-7.81982
-6.73989
-6.01985
-4.91659
-4.04575
-3.06614
-2.23322
-1.48219
-0.872118
-9.01628
-7.99842
-7.52328
-6.49086
-5.80624
-4.76849
-3.95359
-3.02626
-2.24112
-1.52084
-0.92786
-8.51593
-7.55165
-7.12279
-6.13652
-5.47433
-4.49357
-3.71719
-2.84284
-2.10625
-1.42998
-0.871944
-7.97298
-7.03459
-6.6344
-5.68616
-5.03358
-4.10375
-3.35367
-2.53349
-1.84898
-1.22974
-0.72253
-7.43287
-6.47936
-6.07398
-5.15024
-4.48812
-3.60267
-2.87213
-2.10893
-1.48751
-0.93624
-0.496987
-6.79783
-5.83815
-5.41941
-4.51944
-3.8339
-2.9894
-2.2814
-1.58965
-1.02831
-0.564131
-0.198037
-6.06346
-5.09807
-4.65244
-3.77528
-3.05984
-2.25779
-1.5858
-0.977005
-0.501153
-0.139247
0.129496
-5.24249
-4.2544
-3.75614
-2.89719
-2.15562
-1.40704
-0.800795
-0.294454
0.06995
0.315097
0.472473
-4.29992
-3.26525
-2.69286
-1.86129
-1.12362
-0.46166
0.0484789
0.421099
0.653579
0.776191
0.825433
-3.15983
-2.05283
-1.41297
-0.656609
0.0104995
0.539267
0.907423
1.12861
1.22579
1.23165
1.1788
-1.82397
-0.615754
-0.00175824
0.567976
1.07453
1.43952
1.65014
1.73052
1.70501
1.59981
1.4454
0.191085
1.1366
1.5207
1.82815
2.10869
2.2879
2.34357
2.35468
2.29201
2.14687
1.91421
-0.289138
-0.0627481
0.00656999
-0.0378017
-0.112987
-0.544738
-1.19765
-1.36421
-0.901446
-0.137595
-0.0407291
0.00169558
-0.0416957
-0.0959979
-0.337321
-0.780434
-0.864211
-0.447721
-0.0748184
-1.7186e-05
0.0243276
-0.0214937
-0.0700638
-0.289523
-0.669141
-0.745014
-0.423686
0.0110362
0.0569542
0.0680396
-0.000152488
-0.0346743
-0.220297
-0.502417
-0.536221
-0.22496
-0.614512
-0.782954
-0.43697
0.360115
1.20067
1.67338
1.48414
1.03022
0.161446
-0.312969
-0.395476
-0.0769274
0.468016
1.12133
1.49627
1.34113
0.949988
0.267755
-0.231477
-0.297407
-0.0701277
0.485624
1.0353
1.34931
1.20342
0.867764
0.290966
-0.107171
-0.134121
0.101032
0.494276
0.943109
1.22911
1.09151
0.798979
0.316238
1.6847
2.08318
2.0908
-0.0320541
0.000526534
2.41669
0.00144937
2.34726
2.42856
1.70029
-0.00881436
2.34388
0.0360963
-0.0155634
1.67873
2.08303
0.0165382
-0.0324325
2.08636
1.67626
1.86234
0.0902158
2.23989
0.00808134
2.04896
-0.0130158
0.0447011
0.00407609
-0.0804399
-0.0384248
0.0155349
0.750973
-0.0190395
2.19432
0.632986
2.10589
0.0132032
2.0603
-0.019792
2.45226
0.398372
2.19925
-0.0699545
2.24389
-0.127212
0.307731
-0.0571079
0.105902
0.930038
2.58412
-0.0440546
2.44311
-0.00172736
-0.0648785
2.57946
1.86074
0.0845255
2.43419
-0.14734
-0.0385074
0.320247
-0.0014415
-0.0355606
-0.0355078
0.368513
1.67744
-0.0424233
2.79401
2.10614
1.69907
0.0441584
2.03334
-0.0342213
2.19886
-0.015176
2.05103
0.110997
2.21266
-0.048343
-0.0212056
-0.030545
-0.0344999
1.75028
1.76864
0.366969
-0.0322774
-1.03734
0.000721083
-0.0391038
0.030063
2.15617
2.42651
0.392374
2.35731
-0.0142672
-0.0159707
-0.0239414
0.25749
-0.0174383
2.07261
0.420873
0.0547649
1.5755
0.511322
-0.0290923
2.23605
0.000887399
1.75385
0.00412308
1.41507
2.27279
2.19465
2.2051
-0.0268276
-0.0184807
1.72652
2.46466
2.22494
2.3674
1.47312
-0.0262205
2.1502
0.926062
0.0223405
0.311103
0.187707
-0.00215871
0.000738472
-0.000264381
0.00498641
2.35671
-0.0360122
0.0912506
2.0374
2.17513
0.33954
0.128541
-0.030642
0.0162979
0.997826
-0.0423745
1.77839
-0.0851315
1.19657
2.46575
-0.024725
0.233086
2.78568
1.83121
2.38497
2.50966
2.34982
-0.0200282
2.15841
-0.0307653
-0.0601011
-0.0437042
0.000426066
0.0283084
1.8152
0.22627
-0.0480467
2.0433
1.85345
-0.00954113
0.0167465
-0.0286672
1.96379
0.247904
0.352094
-0.0169077
0.00474656
0.278684
1.62314
0.788421
0.837072
-0.00142072
-0.0275169
-0.153836
0.892164
2.74502
0.0962901
2.14768
0.0214415
2.32454
-0.0280476
2.57756
2.20706
1.94776
-0.0494513
0.00880516
-0.00810388
1.6253
0.36809
2.11693
1.92858
2.43829
-0.03862
0.00555864
1.73816
0.0140462
2.59949
0.0154542
0.0244416
2.16328
0.00338505
2.37272
0.00037878
2.53743
1.66525
0.00572025
2.14344
1.45155
0.720771
2.22951
-0.0120502
2.16928
-0.0124468
2.61791
-0.00370157
-0.0111303
-0.0271519
-0.0212626
-0.0247413
0.0190813
2.416
0.0587738
0.0123259
0.00474457
-0.0431778
0.0141959
1.6053
2.53599
2.10309
-0.0160312
-0.553089
-0.0186824
2.14362
2.32554
2.32842
0.012503
-0.0284662
0.487785
0.315994
2.65286
-0.0754256
2.18605
0.0290058
-0.179938
0.0131469
0.0289127
-0.000498017
0.144142
1.80816
0.801876
2.4348
1.95853
2.06234
-0.0199266
2.59642
-0.00128064
0.247827
1.64548
2.23379
2.2681
-0.0335724
1.7434
3.09403
0.349051
0.466846
0.00736339
2.49087
2.59968
-0.0576618
2.15707
2.21468
0.0272069
2.21856
1.08944
-0.0396409
2.04485
2.3224
-0.0243343
0.0127146
0.864003
2.07255
-0.704554
2.33078
0.966366
-0.0654425
2.30148
-0.0253303
1.63227
-0.0291198
2.10644
2.52645
0.243111
2.26085
0.671566
0.0296641
2.38512
-0.026596
0.772133
-0.0255567
1.99077
1.36276
2.22618
0.0258068
0.094307
2.39356
0.071393
2.24265
1.27548
-0.00802904
0.0574554
1.21288
0.0290525
-0.032486
1.42492
2.30292
2.51601
0.033296
2.16385
0.0762923
-0.0358689
1.98483
2.20148
0.0426112
1.5924
0.019387
3.17965
-0.0253686
0.138326
2.26289
0.0290484
-0.289837
-0.0537794
2.23302
2.20967
0.28824
0.198455
0.0380508
2.6159
0.0270459
-0.01296
0.019779
-0.0300504
2.19965
0.00255235
0.00291326
0.0850624
0.256191
0.512696
2.03991
0.0163256
1.73709
-0.0098612
1.08843
2.23324
0.0114012
0.474556
-0.0149542
2.16554
1.74705
2.17943
-0.0288288
0.00684925
-0.0657436
0.0704359
1.09215
2.2047
0.00280821
-0.242809
-0.00920401
-0.00203296
2.29962
0.779354
0.638457
2.06876
2.37193
0.026308
1.95384
-0.0226756
2.40566
-0.0086721
0.0303732
-0.0202684
0.0183564
-0.0273242
-0.0159749
2.34211
0.0556361
0.00938394
1.9537
0.0291916
0.371081
2.23626
2.36348
2.31797
-0.0549057
-0.0270087
1.72109
2.26436
-0.0403981
-0.00215586
0.42066
-0.0409277
0.0142288
2.60187
0.0339889
2.2818
2.07697
0.0162143
0.0156589
-0.0266802
1.19037
0.0088107
2.1547
-0.00414053
0.0223342
0.0223768
-0.00379819
0.0178645
0.00109272
0.80684
1.47542
2.1871
0.00315823
0.366264
0.377097
2.17909
-0.0647195
0.00739973
1.37044
0.533159
-0.0269096
0.0100361
-0.00256158
0.0231084
2.16052
0.39012
-0.868112
-0.0327504
-0.0224226
2.45836
-0.0682473
-0.0212162
0.0990681
1.87563
-0.0686791
2.34284
1.76924
2.18324
2.49108e-05
0.232949
0.0821269
-0.0146725
-0.0347558
-0.00166127
1.87652
1.89186
-0.00692339
-0.00820565
0.757723
2.50943
-0.00255701
0.00113817
1.72814
2.13816
3.11687
0.821982
-0.0226956
2.3432
0.349181
2.43046
2.30534
2.47085
1.67789
-0.0402736
2.55136
1.80051
1.91373
-0.0338694
0.106912
2.23169
-0.0224817
-0.0150492
1.24106
-0.0319916
1.74703
0.0854521
1.95057
2.52334
2.41551
0.00120459
0.0279618
1.63057
0.00897934
1.35766
3.09069
0.0716373
0.0393091
2.31287
1.79456
-0.211199
-0.00668534
-0.0157039
3.19209
0.0735427
2.15846
-0.00224747
0.0288634
-0.0169122
0.0198582
0.405458
0.00167827
-0.0426097
0.00988035
2.17916
0.256359
1.39131
2.31781
2.17093
2.30539
2.10915
0.00611014
2.36083
1.76135
0.0237474
2.38173
0.266825
0.759158
-2.12037e-05
0.0467254
-0.0361205
2.02214
2.14015
2.3139
0.330686
-0.0290599
2.18556
1.88132
0.0210861
2.27679
-0.0336596
2.27909
0.00447517
1.08548
-0.0035131
-0.0152115
-0.00375167
0.282579
0.00409528
2.01243
1.69506
1.79664
2.28973
-0.0348286
-0.00663989
1.56164
0.0160085
-0.213267
0.109594
2.08665
2.46614
2.23209
-0.0224101
-0.00215664
0.00319277
2.28142
2.43386
0.00975085
2.30767
-0.0138188
0.00386625
-0.00333738
-0.0271538
2.29185
-0.0018336
2.13256
-0.0432018
2.3102
-0.0152204
-0.000975338
0.831146
0.0614865
-0.000194028
2.32672
2.20735
-0.0197067
1.83445
0.195601
-0.0294252
-0.0725266
-0.0388298
0.204977
0.014161
1.75968
2.406
2.33207
-0.0421165
-0.0164408
-0.000888224
1.65562
2.09339
-0.0358801
2.58769
2.37943
2.24718
1.93107
-0.0226877
-0.0307456
-0.0838427
0.379356
1.02742
0.0494693
1.78931
0.00302946
2.00788
2.37846
-0.167744
0.044752
2.13416
1.89957
0.143128
1.55095
1.85872
0.426513
2.22702
1.85545
-0.0083642
-0.0472779
0.609566
-0.00711948
-0.00348454
-0.0197653
-0.0169511
0.353181
0.0272006
0.0655958
-0.0263554
-0.0452374
0.0375616
2.16155
2.19827
-0.03541
1.01869
2.3348
1.43282
0.00888155
-0.0735279
-0.16031
0.141588
0.753443
2.22119
0.172407
2.03999
2.34839
1.35171
0.024328
1.87139
3.30086
2.47199
2.28771
-0.0306382
0.0129123
-0.04143
1.99248
2.70075
1.1032
-0.018855
2.30398
-0.0629324
2.14612
-0.0200483
0.00794237
2.2649
-0.00519801
1.88376
-0.0189211
-0.025865
-0.021486
-0.108032
0.246353
0.395922
1.75273
0.00232096
-0.00872865
0.00405923
0.0247857
2.186
1.24467
1.76425
0.453496
2.36052
0.00750827
2.27292
2.4373
2.06059
0.054216
-0.05798
2.04736
-0.00237036
2.26388
0.0138052
0.0291412
1.61331
-0.0276785
0.297122
-0.0307994
0.892964
0.0723169
0.0205698
0.0174454
-0.00926719
0.0164459
2.17386
-0.0138307
2.32797
3.15013
0.0737529
0.434009
0.0832905
-0.014014
2.30245
1.82804
1.44963
-0.0320489
1.88645
0.0155954
-0.0615907
0.0126508
1.5924
0.699816
-0.0559051
-0.0304689
2.03833
0.00785292
0.0117537
-0.034523
2.28092
-0.0140215
-0.241602
2.13397
0.226259
-0.00332949
2.26956
-0.0201388
2.42601
2.67602
1.32322
-0.00405632
2.0335
-0.0104084
2.22113
-0.0227105
1.91595
-0.0383844
-0.0131999
0.0479652
0.00218826
2.18738
0.0143693
0.23704
1.80258
-0.0116103
0.829347
-0.0221189
0.190524
0.0144633
1.88153
-0.0290282
-0.0235604
0.277408
2.3195
0.347617
2.22147
-0.0274764
0.177878
2.09535
2.37201
0.442778
-0.0121112
0.0278899
0.0129884
2.34035
-0.00275465
1.43648
2.18466
1.95384
2.24453
2.33015
2.70133
-0.00326521
0.0478176
0.0239406
0.00719296
0.453448
2.03555
2.35218
0.601846
0.0247808
2.15543
0.569297
0.0101387
0.0700643
-0.00475189
0.32498
0.726554
-0.04331
2.02268
2.34967
0.287467
1.54844
2.34241
1.37118
-0.00141011
0.368181
0.387119
2.12384
0.0815294
0.287511
-0.0317233
2.34374
0.00249404
-0.0671975
-0.0477577
-0.0387246
1.81736
2.31518
-0.0333075
-0.0380512
-0.0391499
1.76566
2.45423
2.29421
2.31881
2.33416
-0.0244829
0.0748732
0.247101
0.0409991
-0.0473599
2.31421
-0.0613469
1.88497
2.12974
0.891794
2.35429
2.25358
2.42446
-0.0300985
-0.00537141
-0.0652969
2.24423
-0.0442481
2.10653
2.20733
2.4506
1.91706
1.44578
2.2525
2.17823
2.44989
-0.359269
2.23325
1.72415
0.475627
-0.0731085
2.72062
2.18061
-0.0297924
-0.311591
2.82639
0.33865
-0.0392371
-0.0400553
2.28573
2.05431
1.94731
1.15043
-0.00945415
2.32856
0.0207494
-0.0323637
-0.00169535
-0.00772884
2.25779
-0.0184676
1.62608
2.26514
2.0757
3.24126
2.21611
0.246844
0.287402
0.875632
0.0175264
0.00567162
-0.063614
0.983549
-0.0159196
2.20828
2.26143
-0.00318864
-0.0101622
-0.0165445
2.44379
-0.0347973
2.21903
0.00284302
1.91148
-0.00338628
0.0118614
-0.043901
0.0287325
1.64995
2.06057
0.0111063
0.126307
0.0124788
0.549192
-0.0310206
1.57756
1.94387
0.00811177
2.25485
2.17524
0.192073
0.365396
-0.0329411
0.125509
0.00398761
-0.0167524
-0.0159809
-0.361239
1.78588
1.58303
-0.000294043
1.82135
0.00367253
2.26245
0.000116826
-0.039824
0.0146615
1.85517
0.0427941
2.28709
2.43257
0.0107254
-0.0308594
2.49884
2.21934
2.43749
0.271656
0.38614
0.01475
1.10738
1.65259
0.466046
-0.0191268
-0.0184547
1.78626
0.00145025
-0.019546
2.30047
0.00351365
1.03246
-0.0633917
0.0122753
0.984622
0.0183129
1.17312
2.19579
-0.0148964
0.0147859
2.6631
0.00573647
2.1516
-0.508691
0.00114981
0.125144
2.07329
-0.00232087
-0.0269885
-0.0248998
-0.00189384
0.0130678
1.74613
-0.000186694
-0.0417883
2.22265
1.40212
-0.0204897
-0.0266421
0.0381297
0.0384899
2.39955
1.89196
0.0347656
2.5213
0.347654
-0.042446
-0.000873846
-0.00863804
2.33177
-0.00459405
-0.0247916
-0.00214205
0.00140544
-0.0592908
2.01625
0.0505003
-0.00614383
1.85716
1.25866
2.17967
-0.0202891
1.62488
2.30282
0.0734152
-0.0308482
-0.0121965
2.27352
0.0724531
0.120399
1.70766
0.0520645
2.17785
1.69161
0.938484
0.0288562
3.26521
-0.0175796
1.01778
-0.0217346
2.24949
1.91838
1.75969
1.76439
-0.0199423
-0.0188393
-0.0252688
-0.110434
0.347291
-0.322632
1.66003
1.32504
-0.0254529
1.82202
-0.00318042
-0.00721488
0.763633
0.374019
0.102669
0.00294443
2.45621
0.0165271
1.79083
0.0112766
2.26957
-0.186419
0.232726
2.15191
0.0332923
0.0146868
2.06957
0.0260188
-0.0647872
0.328945
0.011962
0.758247
-0.0792257
0.0038783
-0.0266262
0.274076
0.0249332
2.23873
0.0696875
2.78923
0.0768855
-0.00425752
-0.0270458
0.688118
-0.0336048
-0.0864264
1.8113
2.72991
2.02706
2.27509
-0.0347046
0.0813246
1.85372
-0.00265673
0.0365948
3.3833
-0.00376469
0.00964309
0.314549
0.411638
0.178519
-0.0322146
0.00620712
0.0315662
1.84051
1.91935
-0.0253642
1.9065
2.1652
0.0540427
1.74677
2.63089
-0.0043666
2.06651
-0.201668
0.0177091
-0.0525776
1.81164
0.0777535
-0.0461442
-0.0211018
0.215392
1.77768
-0.0370523
-0.037134
-0.0266251
-0.00781525
2.06707
0.00797391
1.55979
-0.0256783
-0.00708105
1.14107
1.84927
-0.0314156
0.737686
0.0502251
-0.0577447
0.0146189
1.90501
2.17114
1.94224
0.608913
-0.0082196
-0.0113148
0.0328572
-0.600398
1.83463
0.726783
1.61234
2.25993
-0.0615549
1.71061
2.78683
0.0630345
0.31105
0.0509177
-0.0362603
2.27388
2.14401
-0.00278273
-0.0301005
0.0454384
-0.0996673
0.0429767
2.25277
2.59688
-0.0203031
0.0166174
0.0114711
-0.0147082
2.20521
0.00904699
-0.035813
-0.0353894
2.156
0.0270384
-0.0699097
1.04323
0.276764
2.34376
1.56587
-0.034556
-0.0177462
0.0399861
1.80895
0.841841
0.709083
-0.0254934
-0.0296247
-0.0317966
-0.0298632
0.487516
2.47479
0.0109864
-0.0255299
1.91733
9.68464e-05
-0.048594
1.30203
0.0250036
1.85636
2.15741
1.88664
0.260128
0.00122491
2.18043
-0.0341168
1.86359
2.22905
1.73605
0.0231153
2.18202
0.00817303
0.174929
1.91384
-0.0896262
0.0128876
0.0253966
-0.0598129
0.44671
0.0203257
-0.00176913
2.35733
2.24173
2.25559
-0.0197487
1.74005
2.44898
0.261359
0.0615698
-0.0584088
-0.0129727
-0.00109356
0.839151
-0.0260316
0.170861
2.15755
0.759268
2.10945
-0.00368758
1.4451
-0.00364155
1.87915
1.59373
2.34279
-0.029371
-0.00596902
1.30829
0.018089
2.14585
-0.0358365
0.0055173
-0.0169835
-0.0420373
1.84454
1.66679
-0.0168177
0.376655
0.0174741
0.000423303
-0.0357879
-0.0162539
1.87828
-0.0506497
0.00893334
1.5025
-0.0354908
-0.0245787
0.129356
-0.032635
-0.0265663
-0.000238273
-0.0477682
0.186083
2.16875
2.77478
-0.0171839
-0.0246684
0.769522
2.21828
0.304452
2.12222
2.09389
0.0471215
1.74948
2.32663
-0.0376496
-0.0227046
2.57782
1.71262
2.42333
2.0603
2.26804
2.29249
0.149475
0.449079
2.1294
2.27297
-0.0366649
2.30034
-0.0305853
2.20266
2.03529
2.32814
0.0682335
-0.0430008
0.00233095
1.71295
2.25732
-0.0264467
0.00405581
1.85428
0.361029
0.0354748
2.38673
0.240662
-0.00209096
-0.0785416
0.103199
0.00476647
2.32532
-0.0311235
2.31725
1.8914
2.33359
0.321199
1.93682
0.00340777
2.33669
-0.0318632
2.19131
1.92426
0.00714871
2.24351
2.02948
0.0271607
0.0188582
-0.0199417
1.99993
1.8392
2.30874
-0.0141387
0.00676615
-0.0315465
0.509272
0.0388561
0.229599
2.33041
2.13331
3.20344
1.68538
-0.0521328
2.31481
0.766413
2.19665
0.141407
-0.0275906
-0.00937072
-0.0775848
1.12916
0.878999
2.13031
0.267446
-0.116248
1.8264
1.91522
-0.0401956
1.87544
2.40543
1.67463
0.0228775
2.08854
-0.0119081
-0.0916882
-0.00190487
0.0278322
2.14851
0.191788
0.960059
-0.0461276
-0.0247656
1.15717
0.0215974
1.72196
2.24572
1.65844
2.09855
0.414581
1.8288
2.2649
0.00695828
0.0411298
2.39085
1.73207
0.000140601
0.423718
1.78008
0.384253
1.75969
1.85064
0.0251638
1.93258
-0.0413572
-0.0254665
1.86861
2.17171
-0.00023473
-0.017962
1.65182
0.000629944
2.11564
2.09986
0.000869336
1.88808
-0.0158981
1.88969
2.39168
0.246642
1.40357
2.9668
-0.782758
1.98916
2.73689
3.22385
2.95301
0.676907
0.910726
-0.0191259
0.0819481
-0.0337046
2.72307
2.42393
-0.0110728
-0.00051052
1.9394
1.56321
0.208718
2.16483
0.00150221
2.32426
0.0187892
2.42011
1.66501
-0.00374204
-0.0129574
0.0349615
2.10519
1.77369
1.48777
1.68472
2.32292
-0.0532161
-0.0282791
-0.0297808
0.0646716
-0.0309278
1.75997
2.38472
2.44934
-0.060416
1.48704
-0.0192643
-0.109566
2.02812
0.00596075
0.0102086
2.58742
1.75234
1.0085
0.135539
0.0429804
2.39216
0.0452552
0.00641805
-0.00196146
0.00296984
0.00160909
2.2927
0.000704424
0.52794
-0.0422135
0.0487385
0.010932
0.00298706
1.95345
1.61716
0.0337809
2.11385
0.000407432
0.0209308
-0.0309439
0.0189051
0.0177324
0.109048
0.329944
0.0163484
2.32757
0.00687627
-0.0329699
0.771233
0.447781
-0.0251172
1.88409
-0.0977802
2.31886
0.0281483
-0.14159
0.0857607
0.402459
-0.0338165
0.0477193
2.39898
2.28661
2.38643
1.92408
2.01322
0.709323
2.91009
0.0799298
2.46167
0.0206993
-0.00565803
2.12564
1.77939
0.252069
0.217101
2.20179
1.31282
2.24513
2.18946
0.965306
0.170691
1.97067
2.07907
2.02426
2.17391
2.28565
2.16869
0.295561
-0.0208055
2.32297
0.404967
2.15597
2.13341
0.797731
2.19845
0.0204483
1.65216
2.32251
2.2798
1.69949
0.00640667
2.68986
0.0010257
-0.0173726
0.0954806
-0.0436672
-0.014619
-0.024107
0.00647537
-0.0538992
0.0260814
0.0189707
2.25632
-0.0758948
1.57756
2.34979
2.15364
0.305849
0.00754093
0.00516163
1.76728