/*--------------------------------*- C++ -*----------------------------------*\
| =========                 |                                                 |
| \\      /  F ield         | OpenFOAM: The Open Source CFD Toolbox           |
|  \\    /   O peration     | Version:  3.0.1                                 |
|   \\  /    A nd           | Web:      www.OpenFOAM.org                      |
|    \\/     M anipulation  |                                                 |
\*---------------------------------------------------------------------------*/
FoamFile
{
    version     2.0;
    format      ascii;
    class       volVectorField;
    location    "0.285054";
    object      U;
}
// * * * * * * * * * * * * * * * * * * * * * * * * * * * * * * * * * * * * * //

dimensions      [0 1 -1 0 0 0 0];

internalField   nonuniform List<vector> 
21246
(
(5.87831 -1.13548 1.64434e-19)
(5.45013 -1.15458 1.35194e-19)
(5.20768 -0.996216 -2.23225e-19)
(5.02195 -0.830356 0)
(4.8358 -0.684774 1.11064e-19)
(4.64842 -0.562111 -9.31325e-20)
(4.46989 -0.461649 -1.46409e-19)
(4.30081 -0.381486 1.12011e-19)
(4.13856 -0.318514 0)
(3.98496 -0.272176 -1.2891e-19)
(3.84581 -0.251371 7.46661e-20)
(4.86751 -2.1813 3.91235e-19)
(4.88641 -1.91527 1.87821e-19)
(4.87194 -1.62301 -1.19707e-19)
(4.80591 -1.33975 -1.35612e-19)
(4.6968 -1.09871 2.08411e-19)
(4.55942 -0.90209 -1.10572e-19)
(4.40952 -0.74492 -6.73327e-20)
(4.2574 -0.620287 2.1629e-19)
(4.10748 -0.521885 9.37425e-20)
(3.96319 -0.447199 -8.95963e-20)
(3.83063 -0.40145 6.5633e-20)
(3.97138 -2.4785 1.01472e-18)
(4.27911 -2.21698 -8.37462e-19)
(4.41757 -1.99804 1.09071e-19)
(4.47961 -1.7344 3.37045e-19)
(4.47037 -1.47233 -3.5008e-19)
(4.40634 -1.23431 0)
(4.30599 -1.0309 -5.44418e-20)
(4.186 -0.86302 1.12422e-19)
(4.05827 -0.726105 -5.34199e-19)
(3.93005 -0.617284 4.80533e-20)
(3.80619 -0.545469 -2.78513e-19)
(3.42296 -2.44141 -1.20613e-18)
(3.70623 -2.27414 7.08949e-19)
(3.93366 -2.15547 1.36371e-19)
(4.09954 -1.96318 0)
(4.1794 -1.73426 0)
(4.19057 -1.49958 1.8857e-19)
(4.15081 -1.28008 -7.80113e-20)
(4.07587 -1.08708 -2.65903e-20)
(3.97589 -0.927696 1.99938e-19)
(3.86479 -0.797947 1.39804e-19)
(3.75528 -0.694837 1.3586e-19)
(3.17467 -2.35755 1.0026e-19)
(3.38459 -2.2295 3.55057e-20)
(3.53446 -2.18547 -4.72696e-19)
(3.69798 -2.06934 -3.62792e-19)
(3.83465 -1.90086 1.16246e-18)
(3.91111 -1.69998 -3.61697e-19)
(3.92695 -1.49027 -2.79417e-19)
(3.89711 -1.28912 2.08905e-19)
(3.83906 -1.1033 0)
(3.76078 -0.94295 0)
(3.67159 -0.818433 -6.28101e-20)
(3.02278 -2.25711 -2.0841e-21)
(3.19169 -2.14831 -3.71853e-20)
(3.29352 -2.13664 0)
(3.42646 -2.06156 -6.54663e-19)
(3.54744 -1.94387 4.34576e-19)
(3.63901 -1.78601 -4.29848e-20)
(3.6907 -1.60333 -2.84416e-19)
(3.70201 -1.41386 2.06612e-19)
(3.6801 -1.23106 0)
(3.63451 -1.06481 -6.14132e-21)
(3.574 -0.929174 6.17887e-20)
(2.9145 -2.16048 -1.45491e-18)
(3.03107 -2.06751 1.60969e-18)
(3.10205 -2.07226 -6.4762e-19)
(3.21282 -2.01216 -6.50273e-20)
(3.31666 -1.92509 5.17107e-19)
(3.40491 -1.80247 -8.05172e-19)
(3.46782 -1.65146 5.46293e-19)
(3.50135 -1.48516 -2.97675e-19)
(3.50707 -1.31632 0)
(3.48947 -1.15526 -2.82956e-19)
(3.45146 -1.01696 2.69766e-19)
(2.80273 -2.10841 4.39139e-20)
(2.8917 -2.00539 0)
(2.95205 -2.00153 0)
(3.0393 -1.9535 5.45984e-19)
(3.1256 -1.88248 -3.33808e-19)
(3.20442 -1.78278 8.31095e-20)
(3.2685 -1.65725 0)
(3.31344 -1.51402 -8.63882e-20)
(3.33821 -1.36263 0)
(3.34397 -1.21342 2.8638e-19)
(3.32976 -1.08423 0)
(2.69622 -2.06275 -7.10407e-19)
(2.77592 -1.951 4.46473e-19)
(2.8224 -1.94007 0)
(2.89353 -1.89593 -9.35217e-20)
(2.96572 -1.83276 -4.35735e-19)
(3.03433 -1.74655 -3.00377e-19)
(3.09474 -1.63857 4.34748e-19)
(3.14362 -1.51387 -3.29731e-19)
(3.1792 -1.37876 5.08582e-19)
(3.20038 -1.24141 -3.736e-19)
(3.20346 -1.11817 -2.55151e-19)
(2.6037 -2.01725 0)
(2.67415 -1.89846 6.29393e-20)
(2.70726 -1.88389 0)
(2.76628 -1.84102 9.07258e-20)
(2.82731 -1.78191 3.01602e-19)
(2.8869 -1.70355 -2.3327e-19)
(2.94226 -1.60681 0)
(2.99124 -1.49523 4.72044e-19)
(3.03209 -1.3729 -6.89597e-19)
(3.06235 -1.24556 -1.64982e-19)
(3.07494 -1.12688 2.49861e-19)
(2.52445 -1.97941 4.76672e-19)
(2.58111 -1.8521 -3.67269e-19)
(2.6022 -1.83276 -3.59519e-19)
(2.65125 -1.78891 5.89196e-19)
(2.70314 -1.73124 1.42968e-19)
(2.75521 -1.65708 -2.04053e-19)
(2.8058 -1.56724 -1.89926e-19)
(2.85361 -1.4646 7.30471e-21)
(2.89736 -1.35211 1.02993e-20)
(2.93453 -1.23454 -1.54033e-19)
(2.9568 -1.12776 2.3064e-19)
(2.44536 -1.94739 4.69575e-19)
(2.48744 -1.81253 -6.98012e-19)
(2.50082 -1.78609 6.03326e-19)
(2.54282 -1.73893 -2.4584e-19)
(2.58785 -1.6804 -1.17609e-19)
(2.63419 -1.60769 0)
(2.68106 -1.5216 1.51867e-19)
(2.72781 -1.42472 -2.28809e-19)
(2.77368 -1.31939 7.43852e-19)
(2.81632 -1.20921 -2.82539e-19)
(2.8463 -1.10776 0)
(2.36178 -1.91138 -4.56795e-20)
(2.39281 -1.77148 0)
(2.40088 -1.73907 6.32255e-20)
(2.43773 -1.68848 -2.38913e-19)
(2.47776 -1.62806 -1.70081e-20)
(2.52011 -1.55502 1.57741e-19)
(2.56464 -1.47033 1.49491e-19)
(2.61118 -1.37656 -2.11241e-19)
(2.6593 -1.2756 7.29844e-22)
(2.7066 -1.1695 -2.51024e-19)
(2.74147 -1.06834 0)
(2.28218 -1.87525 6.40737e-20)
(2.30183 -1.72791 -2.56823e-19)
(2.30299 -1.69006 -6.87842e-21)
(2.33476 -1.63592 0)
(2.37071 -1.57286 -8.01977e-20)
(2.41041 -1.49817 2.96229e-19)
(2.454 -1.41317 -1.01851e-19)
(2.5015 -1.32065 -1.74095e-19)
(2.55249 -1.22255 2.09335e-20)
(2.60451 -1.1204 0)
(2.64453 -1.02546 -1.54848e-19)
(2.2012 -1.84103 -3.65796e-20)
(2.20731 -1.6853 2.99021e-20)
(2.20369 -1.63933 -5.55632e-20)
(2.23193 -1.57988 4.06337e-20)
(2.2652 -1.51283 7.98285e-20)
(2.30372 -1.43518 -2.52691e-19)
(2.34797 -1.34853 1.94263e-19)
(2.39805 -1.2561 1.2392e-20)
(2.45327 -1.1601 3.78046e-19)
(2.51101 -1.06152 -9.22804e-20)
(2.55708 -0.969298 1.53608e-19)
(2.11529 -1.79825 -2.87233e-20)
(2.10903 -1.63675 -3.01206e-20)
(2.10251 -1.58277 -2.26184e-19)
(2.12833 -1.51767 1.36977e-19)
(2.16016 -1.44575 -1.2678e-19)
(2.1991 -1.36407 5.41165e-20)
(2.24595 -1.2748 6.99541e-20)
(2.30067 -1.18182 5.48148e-20)
(2.36193 -1.08793 0)
(2.42675 -0.993543 -6.49766e-20)
(2.47956 -0.905938 -1.18373e-19)
(2.03074 -1.74887 2.92819e-20)
(2.0118 -1.58062 0)
(2.00089 -1.51861 1.74236e-19)
(2.02395 -1.44729 -1.49021e-19)
(2.05511 -1.36947 9.60421e-20)
(2.09617 -1.28263 1.22514e-19)
(2.14799 -1.19001 -1.86972e-19)
(2.20993 -1.09656 -5.49918e-20)
(2.27935 -1.0058 0)
(2.35247 -0.917514 6.49241e-20)
(2.41195 -0.836987 -9.23689e-20)
(1.94636 -1.69624 -2.58713e-19)
(1.91188 -1.51991 1.34536e-19)
(1.89675 -1.44676 1.58719e-20)
(1.9179 -1.36671 -7.73481e-20)
(1.95005 -1.28092 2.05811e-21)
(1.99574 -1.18764 4.43861e-20)
(2.05566 -1.09148 6.51184e-20)
(2.12795 -0.998689 -4.92806e-20)
(2.20782 -0.913312 -4.23193e-20)
(2.29031 -0.833944 3.15211e-20)
(2.35672 -0.762375 -6.51611e-20)
(1.86066 -1.63205 -1.61434e-19)
(1.80783 -1.44989 8.23916e-20)
(1.78953 -1.36294 0)
(1.81019 -1.27191 0)
(1.84604 -1.17626 -5.33381e-21)
(1.89992 -1.07567 3.82947e-21)
(1.9723 -0.97632 1.47047e-21)
(2.05832 -0.886985 1.0411e-21)
(2.15038 -0.810923 0)
(2.24254 -0.744339 0)
(2.31579 -0.684548 9.61446e-22)
(1.77433 -1.55112 2.0751e-21)
(1.70005 -1.36456 -2.92859e-22)
(1.68093 -1.26018 5.49549e-20)
(1.70419 -1.15569 2.36408e-20)
(1.74838 -1.04862 -5.0888e-20)
(1.816 -0.941172 1.25992e-20)
(1.90499 -0.842573 1.69734e-20)
(2.00722 -0.761921 -1.06427e-21)
(2.11153 -0.700603 1.5808e-20)
(2.21085 -0.651648 -1.16678e-20)
(2.28868 -0.606815 -9.68586e-22)
(1.68781 -1.45158 -2.08745e-19)
(1.59054 -1.25451 1.59754e-19)
(1.5753 -1.13007 2.0633e-19)
(1.60737 -1.01051 -1.55597e-19)
(1.6664 -0.892553 -5.71143e-20)
(1.75407 -0.781943 -1.23165e-20)
(1.86388 -0.690628 -1.9236e-20)
(1.98278 -0.62633 0)
(2.09648 -0.586458 -1.8937e-20)
(2.1978 -0.560147 1.38815e-20)
(2.27625 -0.534161 0)
(1.61715 -1.26757 2.00841e-20)
(1.47775 -1.10919 2.40072e-19)
(1.48871 -0.960798 -1.92173e-19)
(1.53619 -0.828703 1.99513e-19)
(1.61724 -0.704821 -2.50309e-19)
(1.73009 -0.600253 1.21879e-19)
(1.86112 -0.527309 0)
(1.99237 -0.488941 0)
(2.10896 -0.476648 0)
(2.20522 -0.475807 3.03999e-20)
(2.2786 -0.470912 -2.19368e-20)
(1.47541 -1.32395 -7.38062e-19)
(1.42672 -0.980963 5.29758e-19)
(1.43027 -0.786891 2.60599e-19)
(1.50894 -0.627067 -3.70303e-19)
(1.62336 -0.501133 6.05795e-19)
(1.76378 -0.41455 3.43111e-19)
(1.90954 -0.37165 -9.0454e-20)
(2.04217 -0.365958 1.20777e-20)
(2.15044 -0.382987 -2.21742e-19)
(2.23243 -0.406182 -2.70533e-20)
(2.29125 -0.419914 -2.32672e-19)
(1.84755 -0.313284 -9.08434e-19)
(1.37235 -0.500143 9.37665e-19)
(1.56163 -0.339601 -2.51063e-18)
(1.66677 -0.271543 1.15114e-19)
(1.79132 -0.220781 9.64171e-20)
(1.92331 -0.202736 -2.77108e-19)
(2.04727 -0.217696 5.30214e-19)
(2.15113 -0.256891 -2.71477e-19)
(2.22953 -0.307255 2.41989e-19)
(2.28279 -0.354966 1.21857e-19)
(2.31796 -0.387092 1.07725e-19)
(5.38558 -0.605966 1.03959e-18)
(4.78652 -0.543746 -4.68604e-19)
(4.94861 -0.501907 -1.31274e-20)
(5.04457 -0.437532 -1.35175e-19)
(4.96855 -0.352642 -1.97599e-20)
(4.79493 -0.269818 3.13057e-20)
(4.58364 -0.205704 -1.1742e-21)
(4.38146 -0.158693 2.46432e-20)
(4.19042 -0.119153 3.04084e-20)
(4.01509 -0.0953056 2.86473e-20)
(3.85801 -0.0958099 0)
(4.47909 -1.64793 -1.9508e-18)
(4.27216 -1.10743 -9.09898e-19)
(4.52576 -0.684162 8.76733e-19)
(4.76447 -0.409954 2.15699e-19)
(4.86112 -0.212758 0)
(4.831 -0.0630049 -1.72011e-19)
(4.69993 0.0350963 0)
(4.49614 0.0853227 -5.90269e-20)
(4.24727 0.103178 -1.02987e-20)
(4.03965 0.102911 0)
(3.85415 0.0829404 -9.30901e-20)
(4.63785 -3.77855 0)
(4.42625 -2.4415 1.08547e-18)
(4.43515 -1.44836 -1.49759e-18)
(4.57375 -0.804133 7.92991e-19)
(4.70507 -0.349735 -3.91649e-20)
(4.76032 -0.0200955 -7.12173e-20)
(4.71328 0.201628 6.13156e-20)
(4.56519 0.32332 -4.56646e-20)
(4.33023 0.35909 0)
(4.05685 0.336604 0)
(3.84661 0.294704 2.42285e-19)
(4.93754 -3.68109 0)
(4.71829 -3.41972 2.36034e-18)
(4.54473 -2.48591 -1.74461e-18)
(4.53169 -1.49728 -8.32472e-20)
(4.60923 -0.745681 0)
(4.67288 -0.176971 0)
(4.6656 0.233774 0)
(4.56411 0.494438 0)
(4.36451 0.612483 0)
(4.08821 0.610292 1.94896e-20)
(3.81889 0.533773 -1.29827e-19)
(5.1446 -3.88224 -3.17611e-20)
(5.01912 -3.66447 2.57322e-18)
(4.8526 -3.2367 -2.01118e-18)
(4.67335 -2.33686 7.94533e-20)
(4.61956 -1.3433 1.03636e-18)
(4.62681 -0.521029 -7.59468e-19)
(4.60766 0.114726 0)
(4.51742 0.561524 0)
(4.33985 0.81617 0)
(4.07552 0.888641 -6.11967e-20)
(3.78643 0.821697 7.18748e-20)
(5.35182 -4.11751 -1.79976e-18)
(5.31227 -3.86981 3.2136e-18)
(5.15709 -3.53391 2.03986e-18)
(4.97919 -2.97954 -1.90477e-18)
(4.77085 -2.02078 0)
(4.6603 -1.01306 9.52938e-19)
(4.57453 -0.149292 -1.60808e-18)
(4.45185 0.50978 1.50052e-18)
(4.26448 0.93893 -1.37383e-18)
(4.00335 1.13116 -1.85583e-19)
(3.68925 1.11463 5.25134e-19)
(5.53651 -4.3512 -1.22227e-19)
(5.57716 -4.08689 -1.86784e-19)
(5.43401 -3.78699 -1.97901e-19)
(5.25528 -3.30821 7.42545e-19)
(5.03642 -2.61632 -1.10049e-18)
(4.78485 -1.57502 2.34482e-18)
(4.5833 -0.536139 -6.80357e-19)
(4.38144 0.334465 -2.05005e-18)
(4.14622 0.959008 9.5767e-19)
(3.86576 1.30405 8.09704e-19)
(3.55298 1.37986 -4.10408e-19)
(5.69757 -4.56381 6.7118e-18)
(5.79563 -4.29716 -3.45397e-18)
(5.65745 -4.041 3.14221e-19)
(5.48644 -3.59864 -2.1052e-18)
(5.24937 -2.98806 3.65755e-19)
(4.94952 -2.11177 3.68365e-18)
(4.62712 -0.9988 -2.17221e-18)
(4.3119 0.0426664 2.38771e-18)
(3.99175 0.861315 1.36514e-19)
(3.65881 1.37736 0)
(3.3387 1.58315 -8.98107e-19)
(5.83773 -4.7493 4.10318e-18)
(5.97002 -4.48732 -7.38823e-18)
(5.82314 -4.27981 5.90791e-18)
(5.65623 -3.87838 -2.89074e-18)
(5.41375 -3.32931 9.07431e-19)
(5.08594 -2.56987 -5.90063e-18)
(4.67738 -1.48442 1.14407e-18)
(4.24189 -0.342791 2.26794e-18)
(3.80931 0.638378 -1.33364e-18)
(3.40041 1.32254 1.88348e-18)
(3.03215 1.65851 -1.39848e-18)
(5.95122 -4.89786 5.66174e-19)
(6.10042 -4.64999 4.93149e-18)
(5.93374 -4.49327 -3.05313e-18)
(5.76523 -4.13769 4.00181e-18)
(5.51312 -3.65494 -9.5146e-19)
(5.16454 -2.97983 -2.27568e-19)
(4.70021 -2.03391 1.4348e-18)
(4.15738 -0.820857 -2.25036e-18)
(3.59498 0.280614 -2.1031e-19)
(3.08843 1.10917 -1.28996e-18)
(2.66908 1.57856 0)
(6.01957 -5.00512 -4.8901e-18)
(6.17965 -4.78724 6.86838e-18)
(5.98795 -4.67482 -2.33246e-18)
(5.8127 -4.37091 -1.30584e-18)
(5.54764 -3.96479 -1.10841e-18)
(5.1839 -3.38249 1.89459e-18)
(4.67683 -2.55632 3.52715e-18)
(4.04958 -1.36823 -5.66522e-18)
(3.35891 -0.202745 5.99841e-18)
(2.7442 0.732337 2.72878e-18)
(2.2637 1.32313 -1.98967e-18)
(6.03336 -5.10038 -2.33907e-18)
(6.18923 -4.90871 -3.06513e-18)
(5.98722 -4.81927 4.93808e-18)
(5.79569 -4.57955 -1.1583e-18)
(5.51195 -4.25623 -3.50578e-18)
(5.12965 -3.78269 0)
(4.60278 -3.09331 -1.83198e-18)
(3.90218 -2.04007 6.04041e-18)
(3.1127 -0.814119 -6.81602e-18)
(2.39604 0.183196 6.55838e-18)
(1.87374 0.866486 -2.21096e-18)
(6.01787 -5.1589 -4.76063e-18)
(6.13911 -4.99047 1.78244e-18)
(5.92794 -4.93295 4.18061e-18)
(5.71043 -4.76127 1.64739e-18)
(5.40532 -4.51711 -3.66388e-18)
(4.99964 -4.15693 4.12952e-18)
(4.4606 -3.61712 -2.03292e-18)
(3.71621 -2.77227 -1.22167e-19)
(2.87053 -1.54464 2.38712e-18)
(2.06288 -0.537943 -8.38047e-18)
(1.52634 0.227098 -1.91026e-18)
(5.95583 -5.16568 -4.51788e-18)
(6.01865 -5.03969 4.43644e-18)
(5.80158 -5.01534 7.40193e-19)
(5.55381 -4.9082 2.80569e-18)
(5.22485 -4.74285 -2.223e-18)
(4.80049 -4.48899 -2.09477e-18)
(4.26183 -4.10706 0)
(3.56285 -3.54036 9.23728e-18)
(2.65148 -2.34792 -2.40153e-18)
(1.79907 -1.36492 2.71026e-19)
(1.23321 -0.555837 4.12607e-18)
(5.83017 -5.1315 0)
(5.82865 -5.05971 3.48177e-18)
(5.60144 -5.07237 -6.42671e-18)
(5.32897 -5.03352 2.34218e-18)
(4.98051 -4.9511 1.02317e-18)
(4.54481 -4.79876 -2.01725e-18)
(4.00931 -4.54355 1.57679e-18)
(3.35407 -4.12762 -1.6131e-18)
(2.5781 -3.38546 0)
(1.68765 -2.28232 0)
(1.05413 -1.41654 -1.75987e-18)
(5.63513 -5.05095 0)
(5.56336 -5.03611 0)
(5.32007 -5.09396 2.83744e-19)
(5.02866 -5.13107 0)
(4.6734 -5.14249 -1.03171e-18)
(4.25005 -5.10071 2.5856e-18)
(3.7549 -4.96808 -2.08095e-18)
(3.1755 -4.68628 -1.31642e-18)
(2.49575 -4.1709 -1.85316e-18)
(1.76946 -3.27665 1.38899e-18)
(1.10644 -2.34956 3.2183e-18)
(5.34791 -4.91754 -1.49554e-18)
(5.20807 -4.95836 2.43982e-18)
(4.94633 -5.07261 -2.28211e-18)
(4.64646 -5.19577 0)
(4.30465 -5.31072 3.77751e-19)
(3.92394 -5.38415 -8.03179e-19)
(3.5087 -5.37359 6.90575e-19)
(3.05462 -5.22232 -4.64148e-19)
(2.54451 -4.8593 0)
(1.96283 -4.18133 0)
(1.37199 -3.36398 -1.45104e-18)
(4.93772 -4.73503 -1.21125e-18)
(4.74169 -4.82478 -1.02687e-18)
(4.46667 -5.00847 1.57201e-18)
(4.17812 -5.22835 -1.70139e-18)
(3.88032 -5.45178 -6.82528e-19)
(3.5792 -5.63567 2.48579e-18)
(3.28126 -5.73353 -1.13614e-18)
(2.98188 -5.69069 4.7057e-19)
(2.65399 -5.44831 0)
(2.25445 -4.95637 0)
(1.76512 -4.23977 8.67326e-20)
(4.38325 -4.52407 -8.54125e-20)
(4.1536 -4.64375 2.37321e-18)
(3.88179 -4.90088 -1.26748e-18)
(3.63476 -5.21269 -3.54841e-20)
(3.41795 -5.52511 8.56687e-20)
(3.23425 -5.78071 1.35547e-19)
(3.08881 -5.92794 1.27265e-19)
(2.97157 -5.91666 1.60646e-19)
(2.84039 -5.71687 0)
(2.641 -5.32654 1.08393e-19)
(2.35643 -4.77748 7.33849e-21)
(3.71489 -4.32102 1.71689e-18)
(3.43991 -4.3794 2.13277e-19)
(3.19526 -4.61172 -6.23744e-19)
(3.0352 -4.90892 8.85388e-20)
(2.96026 -5.20466 1.03157e-18)
(2.95729 -5.42966 -4.06605e-20)
(3.01222 -5.50365 -8.75827e-19)
(3.08828 -5.33433 -1.70315e-19)
(3.11194 -5.00772 -1.57697e-19)
(3.01538 -4.59654 3.98839e-21)
(2.79561 -4.02471 -9.70396e-20)
(2.66504 -3.70339 -1.16693e-19)
(2.63299 -3.74152 2.69598e-19)
(2.53668 -3.94831 0)
(2.50358 -4.17452 0)
(2.55198 -4.35951 3.70058e-19)
(2.69813 -4.3979 1.21218e-20)
(2.93924 -4.10668 4.94689e-19)
(3.16077 -3.7059 -1.37891e-19)
(3.21541 -3.25776 9.95165e-20)
(3.08663 -2.94404 2.84018e-19)
(2.79099 -2.43578 -3.2496e-20)
(2.08086 -3.41411 0)
(2.01828 -3.31559 -3.19647e-19)
(2.00271 -3.36068 0)
(2.08845 -3.39544 0)
(2.30249 -3.27422 0)
(2.54182 -2.70572 -1.41446e-18)
(2.77462 -2.22702 0)
(2.93047 -1.89354 4.60841e-19)
(2.96033 -1.63489 0)
(2.86637 -1.42542 -2.39947e-19)
(2.65998 -1.18388 1.23083e-19)
(1.27796 -3.32407 0)
(1.73689 -2.53377 0)
(1.78575 -2.35855 2.96428e-18)
(1.92389 -2.00596 -1.45178e-18)
(2.11015 -1.50018 0)
(2.31399 -1.12215 7.04243e-19)
(2.47609 -0.870249 0)
(2.57283 -0.715415 -1.17003e-18)
(2.60047 -0.631999 -9.57215e-20)
(2.56339 -0.593135 -1.58102e-19)
(2.47838 -0.554455 -2.52204e-19)
(1.51363 -1.28839 -5.27394e-18)
(1.37034 -1.33768 4.02983e-18)
(1.54595 -1.0125 1.47055e-18)
(1.73424 -0.691798 -2.25882e-19)
(1.89899 -0.459623 -1.00375e-18)
(2.04273 -0.323756 0)
(2.16322 -0.265921 -4.75824e-19)
(2.2561 -0.265118 6.4156e-19)
(2.31822 -0.299313 6.4303e-19)
(2.34805 -0.346103 -2.20849e-20)
(2.35197 -0.381134 1.32572e-19)
(-1.84411 1.896 1.25279e-18)
(-1.07 0.783288 -6.74226e-20)
(-0.127147 0.367556 0)
(0.569748 0.228889 0)
(1.07224 0.220108 6.15928e-19)
(1.44313 0.253148 2.98318e-19)
(1.71711 0.300252 1.62759e-19)
(1.92312 0.344984 3.24945e-19)
(2.07995 0.381753 0)
(2.19829 0.408552 2.56961e-19)
(2.28019 0.423746 -3.6953e-19)
(-0.895754 3.53097 0)
(0.0362465 2.16696 -6.63577e-19)
(0.130839 1.82668 8.04104e-20)
(0.541205 1.31269 -4.77099e-18)
(0.934766 0.979749 3.6347e-18)
(1.30734 0.764218 0)
(1.60767 0.646974 -1.19309e-18)
(1.84551 0.583456 1.96291e-18)
(2.02863 0.548055 -5.42797e-19)
(2.16616 0.525152 -1.68753e-19)
(2.26142 0.506392 2.72442e-19)
(0.320565 3.87337 1.82875e-19)
(1.62582 2.37813 -3.63385e-18)
(1.02174 2.63171 2.53456e-18)
(1.15182 2.05316 0)
(1.24884 1.66008 0)
(1.45477 1.29471 1.71311e-18)
(1.66917 1.03836 -1.28884e-18)
(1.87281 0.862474 -1.33251e-18)
(2.04769 0.746346 1.02605e-18)
(2.18911 0.668565 5.50242e-19)
(2.29316 0.615942 -5.41243e-19)
(1.26368 3.43085 3.41328e-18)
(2.74386 2.13618 -1.76658e-18)
(1.93331 2.82583 1.45261e-18)
(1.96884 2.27526 1.10815e-18)
(1.81465 2.04196 -8.77876e-19)
(1.83666 1.66103 0)
(1.90418 1.36234 0)
(2.01678 1.11997 0)
(2.13853 0.941851 0)
(2.2506 0.813662 4.36688e-19)
(2.33784 0.72278 4.43085e-19)
(1.83353 2.79572 5.41014e-19)
(3.31255 1.8222 -4.39488e-18)
(2.60664 2.64574 3.32832e-18)
(2.66327 2.14218 0)
(2.37887 2.13426 -2.86291e-20)
(2.30173 1.79861 -1.01884e-19)
(2.23838 1.54638 0)
(2.2503 1.29741 0)
(2.29854 1.09523 -5.35275e-19)
(2.36393 0.9369 -3.47897e-19)
(2.4244 0.819942 -7.60665e-19)
(2.14049 2.1744 1.11796e-18)
(3.57394 1.50975 0)
(3.01335 2.31778 0)
(3.14022 1.86467 0)
(2.81384 2.02701 8.35503e-19)
(2.7184 1.7494 -7.567e-19)
(2.5763 1.58625 0)
(2.51486 1.37149 0)
(2.49514 1.18253 3.17767e-19)
(2.50839 1.02067 7.48364e-20)
(2.53115 0.895537 3.08652e-19)
(2.25025 1.62249 -1.06931e-18)
(3.68694 1.21952 -2.56125e-18)
(3.22682 1.95632 1.98505e-18)
(3.42693 1.57142 2.56923e-18)
(3.11123 1.81356 -1.5512e-18)
(3.02863 1.59941 2.24495e-19)
(2.85813 1.52051 -3.48092e-19)
(2.75923 1.35364 2.31692e-19)
(2.69268 1.2001 0)
(2.66327 1.05466 0)
(2.65195 0.934976 -4.77854e-19)
(2.23083 1.20822 -3.34065e-18)
(3.70081 0.971278 2.28983e-19)
(3.33187 1.62226 5.94789e-18)
(3.56719 1.31314 -1.55985e-18)
(3.29597 1.57141 -2.37439e-18)
(3.23504 1.40869 6.96375e-19)
(3.06509 1.39471 -1.97109e-19)
(2.95548 1.27288 -6.59605e-19)
(2.86421 1.16231 1.63406e-19)
(2.80721 1.04362 -7.54394e-20)
(2.77063 0.940507 2.27099e-19)
(2.16376 0.910494 7.17526e-19)
(3.65599 0.762368 -4.96708e-19)
(3.37669 1.3456 6.40391e-19)
(3.62142 1.08195 -6.24653e-19)
(3.39478 1.34358 2.01405e-18)
(3.35755 1.21287 -2.43627e-19)
(3.20131 1.2452 -5.88276e-19)
(3.09664 1.15857 4.24841e-19)
(2.99748 1.08871 -1.60818e-19)
(2.92682 0.998513 1.81457e-19)
(2.87453 0.917412 0)
(2.05352 0.655347 -6.97676e-19)
(3.57868 0.554955 9.12005e-19)
(3.37377 1.10822 0)
(3.62796 0.87355 -1.79447e-18)
(3.43433 1.14188 1.40632e-18)
(3.41903 1.02792 -7.46242e-19)
(3.28005 1.09521 5.77541e-19)
(3.18766 1.03283 0)
(3.09129 0.998159 0)
(3.01821 0.933386 -2.14151e-19)
(2.9602 0.875779 1.38342e-19)
(1.88081 0.423414 4.16426e-19)
(3.44577 0.365475 -3.59616e-18)
(3.32365 0.903407 6.73187e-19)
(3.59855 0.689169 0)
(3.43036 0.96808 0)
(3.43666 0.86056 3.38232e-19)
(3.31486 0.957051 -5.28207e-19)
(3.23751 0.909192 0)
(3.14973 0.904885 2.74988e-19)
(3.08103 0.86067 -1.20707e-19)
(3.02561 0.823677 0)
(1.67427 0.246157 -4.96237e-19)
(3.27908 0.231087 1.24214e-18)
(3.2407 0.739784 -1.3718e-18)
(3.53758 0.539234 7.27055e-19)
(3.39377 0.82389 2.24641e-19)
(3.42201 0.715141 3.39333e-19)
(3.31634 0.837103 -5.56747e-19)
(3.25481 0.794955 2.82735e-19)
(3.17886 0.817585 -3.93173e-19)
(3.11771 0.788141 -2.09331e-19)
(3.0683 0.771006 7.25245e-20)
(1.48799 0.113121 0)
(3.1054 0.128612 0)
(3.14631 0.603156 0)
(3.45475 0.424431 1.17774e-19)
(3.33906 0.701014 -4.07876e-19)
(3.38231 0.596794 7.55932e-19)
(3.29442 0.734624 -3.07421e-20)
(3.24698 0.694917 0)
(3.18534 0.740912 2.9921e-19)
(3.13295 0.720472 -6.5223e-20)
(3.09333 0.72164 0)
(1.29505 -0.00620964 0)
(2.90915 0.0297089 0)
(3.04035 0.474106 -3.27195e-20)
(3.35514 0.334032 -7.30194e-20)
(3.27412 0.592139 -1.73829e-19)
(3.32399 0.504608 0)
(3.25589 0.646341 -1.47263e-19)
(3.22138 0.613054 0)
(3.17246 0.674966 6.15797e-20)
(3.13281 0.662704 -6.06209e-21)
(3.10367 0.679157 -3.11517e-21)
(1.07977 -0.0965834 -4.33558e-19)
(2.69388 -0.041926 0)
(2.91699 0.367167 5.58614e-20)
(3.2416 0.265049 -4.34248e-20)
(3.19992 0.497854 0)
(3.25499 0.433415 1.17528e-19)
(3.20251 0.573748 -9.12857e-20)
(3.18334 0.548523 0)
(3.14521 0.620568 0)
(3.12022 0.617927 0)
(3.10191 0.643735 3.08075e-21)
(0.879826 -0.166238 -5.61137e-19)
(2.47153 -0.0980119 3.98979e-19)
(2.77952 0.274033 -1.73449e-19)
(3.11405 0.212718 -8.84273e-20)
(3.11352 0.419335 1.25485e-19)
(3.17809 0.376717 -4.36523e-20)
(3.13953 0.512191 0)
(3.13366 0.503069 -1.00543e-20)
(3.10884 0.577413 7.66755e-21)
(3.09693 0.585865 0)
(3.09158 0.617133 0)
(0.680322 -0.230024 0)
(2.22702 -0.15786 1.10323e-19)
(2.61952 0.179723 -1.2946e-19)
(2.96976 0.164238 5.28173e-20)
(3.01101 0.353365 0)
(3.08689 0.336035 0)
(3.06898 0.46034 -2.23582e-20)
(3.07423 0.47268 5.65309e-20)
(3.06469 0.546215 -1.50775e-21)
(3.06666 0.566188 0)
(3.07497 0.600652 0)
(0.461457 -0.276466 8.7911e-20)
(1.95446 -0.207258 0)
(2.42687 0.0971337 -8.20134e-21)
(2.80106 0.118061 0)
(2.88944 0.291075 0)
(2.97824 0.307252 0)
(2.98647 0.421693 3.47626e-20)
(3.0056 0.455626 -6.42456e-20)
(3.01365 0.5277 0)
(3.03107 0.558063 -4.84384e-20)
(3.05384 0.593717 2.41076e-21)
(0.236283 -0.308102 0)
(1.65485 -0.248492 0)
(2.19447 0.022087 -3.48305e-20)
(2.59453 0.0741835 1.28104e-20)
(2.73833 0.234293 1.57301e-19)
(2.84816 0.285108 -1.38956e-19)
(2.8875 0.395402 0)
(2.92627 0.45009 3.31076e-19)
(2.95564 0.521536 -9.65088e-20)
(2.99058 0.560006 3.82539e-19)
(3.02862 0.595089 8.49737e-20)
(0.00658385 -0.329202 0)
(1.32303 -0.28708 4.05204e-20)
(1.91089 -0.0519692 -3.08057e-20)
(2.3365 0.0277898 0)
(2.53967 0.182841 -1.6515e-19)
(2.68304 0.266765 5.58142e-19)
(2.76279 0.379678 0)
(2.83111 0.453208 -1.51253e-19)
(2.88778 0.525185 -1.41063e-19)
(2.94326 0.568844 -3.14364e-19)
(2.99774 0.602894 0)
(-0.241594 -0.33672 0)
(0.946198 -0.325496 0)
(1.55502 -0.124379 0)
(2.00255 -0.0211386 -2.62026e-19)
(2.26696 0.137464 -1.53677e-19)
(2.45984 0.251574 1.29529e-19)
(2.59476 0.371695 0)
(2.70705 0.459647 0)
(2.79986 0.532053 -3.45894e-19)
(2.88081 0.5781 -4.27111e-19)
(2.95372 0.610788 0)
(-0.492344 -0.349802 0)
(0.513153 -0.358027 1.15678e-19)
(1.10188 -0.18618 -8.52288e-20)
(1.56065 -0.0613657 5.22491e-19)
(1.88556 0.10583 0)
(2.14436 0.242241 -6.17276e-19)
(2.35086 0.366844 -4.46989e-19)
(2.52272 0.460358 9.01305e-19)
(2.66249 0.530373 6.82967e-19)
(2.77652 0.576567 -2.8274e-19)
(2.87503 0.615736 2.34672e-19)
(-0.893167 -0.261476 0)
(-0.0450413 -0.404699 -4.611e-19)
(0.499843 -0.209277 -6.07705e-19)
(0.963792 -0.0587047 8.4005e-19)
(1.34962 0.1039 -1.36495e-18)
(1.68614 0.236125 0)
(1.97396 0.34551 0)
(2.21492 0.428043 -6.56292e-19)
(2.41043 0.488731 -3.50341e-19)
(2.5653 0.529913 9.69675e-19)
(2.7056 0.577316 -4.20679e-20)
(-0.944134 -0.707978 9.11407e-19)
(-0.456902 -0.492574 6.40321e-19)
(-0.0843483 -0.21145 0)
(0.296237 4.07584e-05 6.43465e-19)
(0.669276 0.174017 8.54691e-19)
(1.02602 0.292515 0)
(1.35092 0.366699 3.26481e-19)
(1.6361 0.409686 0)
(1.87954 0.436436 8.54948e-19)
(2.08153 0.451522 -2.84767e-19)
(2.29235 0.486067 -3.2106e-19)
(1.27874 -4.45056 6.57292e-19)
(0.820952 -2.74588 1.64947e-18)
(0.896756 -1.69676 7.1865e-18)
(1.1428 -0.963519 -9.17275e-18)
(1.41485 -0.507626 2.4972e-18)
(1.6629 -0.211429 -4.65041e-19)
(1.86434 -0.0101829 0)
(2.02268 0.128913 -7.21248e-19)
(2.14623 0.227615 1.60065e-18)
(2.24073 0.2965 -5.89169e-19)
(2.3076 0.339473 -6.2064e-19)
(2.82636 -4.58675 5.07676e-19)
(2.61626 -2.35819 -2.74731e-18)
(2.23608 -2.37759 1.12679e-18)
(2.01704 -1.6863 2.10033e-18)
(1.92861 -1.14446 2.33065e-18)
(1.96128 -0.68169 -2.86613e-18)
(2.05105 -0.338073 2.08135e-18)
(2.14495 -0.0957029 -1.55078e-18)
(2.22963 0.075492 -1.57871e-18)
(2.29689 0.195085 5.41786e-19)
(2.34221 0.273816 -5.44902e-19)
(3.67493 -3.75497 -1.95596e-18)
(3.80711 -1.0833 -1.21799e-19)
(3.41581 -2.1508 -1.08759e-19)
(3.00831 -1.63683 0)
(2.6717 -1.31739 -1.5118e-18)
(2.46314 -0.90799 -4.58713e-19)
(2.37503 -0.547851 1.55505e-18)
(2.35673 -0.255695 0)
(2.36942 -0.0406387 -1.11924e-18)
(2.39141 0.113906 1.07162e-18)
(2.40747 0.218708 -4.31379e-19)
(3.87722 -2.63931 1.82576e-18)
(4.34066 -0.0190124 -9.39341e-19)
(4.14776 -1.51534 -1.29756e-18)
(3.75505 -1.11339 -7.40814e-19)
(3.35931 -1.09777 8.35936e-19)
(3.01646 -0.850449 2.89804e-19)
(2.77738 -0.580149 -8.62451e-19)
(2.63604 -0.317665 0)
(2.55756 -0.100223 8.8057e-19)
(2.5165 0.0670577 -8.90837e-19)
(2.49004 0.184272 -3.0804e-19)
(3.72495 -1.68003 -3.87932e-18)
(4.43298 0.630078 1.70465e-18)
(4.43255 -0.815044 6.61639e-19)
(4.14099 -0.456414 1.52901e-19)
(3.81554 -0.667398 6.40734e-19)
(3.45423 -0.570265 4.2601e-19)
(3.14676 -0.435394 1.00747e-19)
(2.91887 -0.256863 0)
(2.76071 -0.0814035 -7.17186e-20)
(2.65577 0.0675479 -5.23696e-22)
(2.58319 0.178548 -5.13207e-20)
(3.44991 -0.963376 -7.32065e-18)
(4.31655 1.02311 6.90826e-18)
(4.43417 -0.230299 0)
(4.23949 0.122562 9.47674e-19)
(4.02315 -0.201304 -1.02988e-18)
(3.7074 -0.193668 -4.7302e-19)
(3.40611 -0.181644 -3.26842e-21)
(3.14249 -0.0978316 0)
(2.9352 0.00883617 4.40417e-19)
(2.77855 0.112135 -1.96081e-19)
(2.66116 0.191949 2.12456e-19)
(3.14538 -0.436674 0)
(4.13235 1.28212 0)
(4.31115 0.213976 0)
(4.17607 0.569172 -1.04763e-18)
(4.055 0.204739 8.10502e-19)
(3.79575 0.17903 9.12612e-19)
(3.53928 0.105688 0)
(3.2777 0.113332 0)
(3.05384 0.147265 -3.60967e-19)
(2.86666 0.195089 4.76785e-19)
(2.71591 0.230927 -1.30691e-19)
(2.86475 -0.0462343 6.26312e-18)
(3.94462 1.44577 0)
(4.1512 0.548194 -3.04922e-18)
(4.0431 0.900139 2.39771e-18)
(3.99245 0.5268 1.36931e-18)
(3.77144 0.50295 -1.94373e-18)
(3.57019 0.375419 2.98648e-19)
(3.32647 0.334424 -3.45078e-19)
(3.10796 0.304448 -1.57636e-19)
(2.90549 0.298028 -3.36802e-19)
(2.72464 0.287102 1.97029e-20)
(2.62666 0.250008 0)
(3.77203 1.55934 0)
(3.98679 0.806248 5.78957e-21)
(3.88886 1.1495 0)
(3.88634 0.775838 0)
(3.6816 0.771488 -7.30364e-21)
(3.53196 0.604788 -2.90851e-19)
(3.30626 0.541052 3.37521e-19)
(3.10373 0.458161 1.92634e-19)
(2.89352 0.403837 0)
(2.68499 0.339364 0)
(2.41205 0.48591 -5.13829e-18)
(3.62145 1.65846 -4.34665e-19)
(3.81637 1.01427 -5.61204e-21)
(3.74215 1.34565 0)
(3.75229 0.971778 -3.46456e-19)
(3.56436 0.992857 7.14439e-21)
(3.44815 0.790959 3.06925e-19)
(3.23931 0.723357 1.0571e-18)
(3.05375 0.598225 -5.20981e-19)
(2.84093 0.510623 0)
(2.61469 0.403887 0)
(2.19483 0.644192 -4.75561e-18)
(3.46574 1.76465 2.90902e-18)
(3.63362 1.18971 -8.07714e-19)
(3.60443 1.50754 -1.87725e-19)
(3.59589 1.13496 -1.03115e-18)
(3.44032 1.17186 -8.51394e-19)
(3.33353 0.944723 -3.03605e-19)
(3.14334 0.877718 -3.72051e-19)
(2.97157 0.721239 -4.16747e-19)
(2.76244 0.61119 8.55439e-19)
(2.53479 0.485547 0)
(1.98953 0.745309 -4.35751e-18)
(3.28895 1.85149 7.94523e-19)
(3.45561 1.3272 6.17118e-19)
(3.45789 1.64116 0)
(3.43446 1.26985 0)
(3.30587 1.31553 8.45275e-19)
(3.20171 1.07361 0)
(3.02907 1.00523 0)
(2.86943 0.825541 -8.76628e-19)
(2.6696 0.698903 -5.37988e-19)
(2.4482 0.553658 3.33571e-19)
(1.80416 0.828594 0)
(3.09844 1.91623 0)
(3.28291 1.44696 -1.04326e-18)
(3.29864 1.73953 0)
(3.27172 1.38663 -2.10922e-18)
(3.15759 1.42387 1.65642e-18)
(3.05908 1.18025 0)
(2.90153 1.1033 1.26223e-18)
(2.75239 0.910927 6.81651e-20)
(2.56619 0.76997 -1.40114e-18)
(2.35913 0.597063 2.96702e-19)
(1.61283 0.901586 3.63336e-18)
(2.88605 1.96592 -2.74551e-18)
(3.10304 1.55572 1.03799e-18)
(3.13129 1.81006 0)
(3.10392 1.4885 0)
(3.00204 1.50249 1.28595e-18)
(2.90932 1.26578 8.79197e-19)
(2.76544 1.17408 -2.34245e-18)
(2.6275 0.976649 2.30538e-18)
(2.45801 0.824232 4.26849e-19)
(2.27052 0.6375 -1.03132e-18)
(1.41212 0.949833 3.35777e-18)
(2.66139 1.99052 -3.73816e-18)
(2.91501 1.64336 -2.43e-18)
(2.95698 1.85722 2.78646e-19)
(2.93089 1.57246 3.61204e-18)
(2.84256 1.55681 -2.61188e-18)
(2.75335 1.32986 -8.77201e-19)
(2.62453 1.21985 0)
(2.49989 1.02159 5.8795e-19)
(2.35022 0.859546 -7.04637e-19)
(2.18778 0.671931 0)
(1.21441 0.985278 3.09947e-18)
(2.42486 1.99582 -3.48675e-18)
(2.71587 1.71138 8.71166e-19)
(2.77354 1.88299 0)
(2.75202 1.63521 0)
(2.67652 1.58898 9.49527e-19)
(2.59247 1.37325 0)
(2.48228 1.24121 0)
(2.37391 1.04474 -5.88466e-19)
(2.24737 0.87507 7.03974e-19)
(2.11425 0.690009 0)
(1.01204 1.00982 0)
(2.16661 1.98537 0)
(2.49741 1.76151 0)
(2.57536 1.88969 0)
(2.5632 1.67595 0)
(2.5017 1.5974 -2.06979e-19)
(2.42959 1.39231 4.74523e-19)
(2.34122 1.23917 0)
(2.25344 1.04546 0)
(2.15291 0.871832 0)
(2.04864 0.693949 0)
(0.797017 1.01451 1.6108e-19)
(1.88063 1.95397 2.748e-18)
(2.25107 1.78779 0)
(2.35506 1.87527 7.27919e-19)
(2.35957 1.69051 4.64684e-19)
(2.31763 1.58031 -7.79257e-19)
(2.26561 1.38218 2.33476e-19)
(2.20427 1.21265 -5.49506e-19)
(2.14272 1.02324 -2.00317e-19)
(2.07098 0.850778 0)
(1.99563 0.682518 0)
(0.566614 0.995309 0)
(1.56021 1.89723 2.09346e-18)
(1.9665 1.78271 -2.28939e-18)
(2.10259 1.833 4.2165e-19)
(2.13391 1.67028 -1.70794e-18)
(2.12238 1.53308 7.6189e-19)
(2.10186 1.33816 -1.77742e-19)
(2.07555 1.15982 -3.07929e-19)
(2.04666 0.978578 2.4749e-20)
(2.00612 0.81465 8.90515e-20)
(1.95731 0.663358 -5.51661e-20)