/*--------------------------------*- C++ -*----------------------------------*\
| =========                 |                                                 |
| \\      /  F ield         | OpenFOAM: The Open Source CFD Toolbox           |
|  \\    /   O peration     | Version:  3.0.1                                 |
|   \\  /    A nd           | Web:      www.OpenFOAM.org                      |
|    \\/     M anipulation  |                                                 |
\*---------------------------------------------------------------------------*/
FoamFile
{
    version     2.0;
    format      ascii;
    class       volScalarField;
    location    "0.0457946";
    object      epsilon;
}
// * * * * * * * * * * * * * * * * * * * * * * * * * * * * * * * * * * * * * //

dimensions      [0 2 -3 0 0 0 0];

internalField   nonuniform List<scalar> 
21246
(
359.894
109.593
55.9298
30.1098
15.3584
7.1885
3.12949
1.33367
0.571982
0.250905
0.11884
352.802
100.551
52.4998
28.3994
14.3157
6.62263
2.86933
1.2054
0.505722
0.217652
0.101651
253.11
92.26
50.6521
28.7525
15.0149
7.0638
3.04942
1.25362
0.510144
0.21321
0.0972603
195.962
78.2711
46.7507
28.641
15.8849
7.76125
3.41135
1.40312
0.561603
0.226916
0.098893
156.312
64.9723
40.3683
26.3674
15.6998
8.18521
3.76391
1.57501
0.618234
0.237212
0.0969118
133.265
55.0236
34.9874
23.5338
14.5048
7.87002
3.73281
1.58945
0.633476
0.246809
0.101923
116.473
47.4089
30.7757
21.0917
13.2394
7.35452
3.57842
1.55974
0.633036
0.250118
0.103744
104.976
42.0831
27.4312
18.9412
12.0543
6.79952
3.3682
1.49666
0.618536
0.248514
0.106757
96.2975
38.0091
24.7599
17.1629
11.0125
6.27571
3.1508
1.42316
0.599236
0.245503
0.107191
89.5099
34.8789
22.6612
15.7498
10.1622
5.83438
2.95894
1.35425
0.579388
0.241197
0.105648
83.9048
32.3818
20.9931
14.6279
9.48317
5.47847
2.80119
1.29544
0.561002
0.236245
0.105596
79.7984
30.3404
19.6293
13.7132
8.93169
5.19149
2.67466
1.24828
0.546244
0.232542
0.105091
77.0694
28.7307
18.5413
12.9929
8.50703
4.97754
2.58409
1.21634
0.537404
0.230985
0.104678
75.0686
27.5482
17.7277
12.4732
8.22091
4.84752
2.53709
1.20383
0.535972
0.231673
0.105663
74.3184
26.6851
17.1194
12.107
8.04743
4.79209
2.5323
1.21168
0.542871
0.235055
0.106234
74.7984
26.135
16.7151
11.9011
7.99846
4.82351
2.57925
1.24537
0.56071
0.24233
0.108205
76.1884
25.9488
16.5465
11.8863
8.10704
4.97034
2.69706
1.31525
0.594213
0.255236
0.111963
79.2684
26.2049
16.6267
12.0754
8.39452
5.26006
2.90928
1.43571
0.650296
0.276585
0.118242
84.8367
27.1963
17.0889
12.5306
8.92611
5.76841
3.27137
1.63455
0.743019
0.312488
0.129834
93.9357
29.2168
18.0551
13.2981
9.71551
6.51785
3.85023
1.98846
0.917011
0.383879
0.15462
108.854
32.8778
19.7645
14.5091
10.8435
7.57493
4.70855
2.56063
1.23002
0.529106
0.212371
135.443
38.6151
22.5631
16.3412
12.4034
9.00464
5.92359
3.44853
1.77752
0.819721
0.345986
183.207
49.1659
27.2221
19.2737
14.6664
10.9741
7.63621
4.80498
2.71871
1.39188
0.653586
321.877
57.4453
34.9403
23.9103
18.1141
13.8557
10.1602
6.93999
4.36942
2.5396
1.37273
324.067
164.18
92.4284
51.7668
27.6639
13.0097
5.07364
2.0724
0.842029
0.356299
0.165915
241.485
163.878
118.989
79.7088
49.2142
27.4003
13.1219
5.38541
1.64376
0.598962
0.25534
122.178
147.861
128.962
98.7514
69.2337
44.0958
24.88
12.1125
4.70487
1.43034
0.452913
123.186
78.6621
110.182
107.199
84.7465
59.9814
38.1584
21.4593
10.2253
3.90613
1.20569
138.689
75.6437
83.19
108.128
101.878
78.0601
53.4159
32.9838
18.001
8.33667
3.14885
156.68
80.4975
72.7418
90.0023
111.408
100.619
73.9188
48.2443
28.4364
14.8712
6.63738
172.942
84.153
68.334
73.9138
94.6139
112.797
97.6323
68.8617
42.8424
24.0126
11.9532
186.087
85.8472
65.1399
63.5513
73.6122
96.4832
109.763
90.2464
60.942
36.2232
19.3632
198.056
86.643
62.9336
56.6616
59.1012
73.2422
97.5889
101.703
78.2035
50.2555
28.6013
209.961
87.4849
62.1378
52.5041
49.9226
56.5966
76.4244
98.1646
88.939
62.9065
38.4044
223.117
89.2511
63.0472
50.736
45.0197
47.0122
60.0399
84.8709
92.2296
71.7121
46.8918
238.555
93.5928
65.8124
51.1028
43.384
42.8593
51.27
73.0307
92.1236
76.9896
53.1473
258.935
100.501
70.3937
53.3589
44.1523
42.363
47.9051
63.7339
89.7183
81.2532
56.1831
284.396
110.34
76.8883
57.1434
46.3133
43.6568
47.8317
58.4754
76.7062
88.698
56.8496
314.575
123.469
85.7427
62.3184
48.8757
44.4279
46.5359
53.447
64.4601
76.9623
61.7591
352.447
140.653
97.4661
68.9378
51.5489
44.3046
43.7421
47.2116
53.4677
61.0124
64.1844
400.813
162.824
112.926
77.4386
54.4639
43.5204
40.1214
40.7034
43.5114
47.1033
49.091
465.461
192.205
135.257
90.8301
59.8959
43.8814
37.5314
36.0508
36.7425
37.3355
35.9739
561.737
231.423
170.303
119.379
80.0126
57.1911
47.1525
44.9738
47.0663
47.8491
48.0574
549.487
247.926
196.643
149.506
108.781
82.0046
68.2255
67.8481
62.6112
56.4033
50.0055
524.621
236.48
197.218
160.737
127.486
105.804
88.3504
76.9578
62.6773
48.2137
34.1521
553.222
233.453
194.188
164.596
138.859
117.078
95.7248
70.1412
49.9414
34.2127
22.1905
620.818
273.609
204.551
159.131
122.369
90.6408
64.5924
44.6773
30.0108
19.4217
11.9772
606.034
295.997
173.049
109.927
72.6759
48.7427
32.6463
21.5348
13.7698
8.40752
4.84002
287.729
90.5248
26.2689
5.20536
1.11709
0.309624
0.129496
0.0770877
0.0558865
0.0443629
0.0364396
412.241
131.279
23.4709
5.65101
1.35785
0.390443
0.150252
0.080383
0.0541265
0.0412385
0.0333189
487.625
163.101
22.4241
6.4668
1.64093
0.50079
0.180536
0.0881044
0.0538846
0.0374525
0.0273487
513.13
154.045
21.5922
6.8398
1.7005
0.570921
0.203991
0.0959985
0.0550839
0.0359536
0.0251736
512.95
132.924
20.444
6.61397
1.63012
0.604325
0.217224
0.102671
0.0571999
0.036011
0.0245807
506.983
114.92
19.2417
6.12701
1.54254
0.606419
0.222363
0.107558
0.0594101
0.0367515
0.0247478
496.412
101.995
18.1071
5.5865
1.46665
0.590708
0.222957
0.110906
0.0614468
0.0377838
0.0250888
478.926
92.4562
17.0181
5.10037
1.39849
0.568025
0.221663
0.113267
0.0633673
0.0391137
0.0260639
462.542
85.2871
16.0487
4.71417
1.34218
0.546627
0.220541
0.115406
0.0654062
0.0406966
0.0270916
452.787
80.8859
15.3856
4.45164
1.30713
0.532235
0.221264
0.118106
0.0678438
0.0426006
0.028264
442.402
80.4207
15.0137
4.28971
1.29303
0.525726
0.224506
0.121855
0.0709325
0.0449792
0.0298715
429.998
80.8187
14.8241
4.19224
1.2948
0.525945
0.230438
0.126943
0.0749099
0.0480111
0.0318773
418.457
82.579
15.4299
4.28026
1.33825
0.539464
0.241202
0.134051
0.0801553
0.0519605
0.034597
407.662
87.1984
17.373
4.71409
1.48017
0.582597
0.263472
0.145826
0.0880216
0.0575082
0.0385074
398.05
91.9303
19.8966
5.44559
1.72729
0.663213
0.299861
0.163659
0.0992188
0.0651368
0.0439631
390.719
97.3954
23.2475
6.6178
2.14838
0.809953
0.36085
0.191893
0.11563
0.0758602
0.0516157
385.453
105.011
28.1019
8.55318
2.89483
1.08957
0.473936
0.241637
0.141812
0.0918639
0.0626829
384.286
113.908
34.2051
11.3895
4.12766
1.60366
0.692103
0.338104
0.189211
0.118492
0.07989
388.529
124.739
41.9949
15.496
6.14759
2.55307
1.13251
0.543861
0.289535
0.171441
0.111116
400.564
138.416
52.1698
21.4523
9.42505
4.29305
2.03576
1.00748
0.528802
0.298376
0.182273
424.915
156.386
65.8445
30.25
14.7788
7.46735
3.87918
2.06147
1.12623
0.637491
0.377789
471.599
180.373
84.6611
43.5408
23.6997
13.3034
7.62369
4.42895
2.60625
1.55697
0.949306
556.476
213.835
112.076
64.743
39.2568
24.3768
15.3456
9.73718
6.21633
3.99486
2.5902
783.335
270.188
162.888
106.746
71.7306
48.5848
33.0257
22.4952
15.3514
10.507
7.22133
396.831
123.115
25.8569
5.34296
1.13553
0.326692
0.144943
0.0911392
0.0693608
0.0576296
0.0496214
666.011
312.578
27.5266
6.95355
1.52469
0.467274
0.207724
0.132664
0.103416
0.0877636
0.0763069
786.093
400.336
32.7765
8.97394
1.88889
0.617046
0.270565
0.169961
0.132025
0.113341
0.100251
787.33
349.314
35.3232
9.72039
2.03908
0.742102
0.336073
0.219422
0.180571
0.167507
0.164038
735.4
276.128
34.193
9.19406
2.04303
0.820013
0.392897
0.270272
0.23173
0.222402
0.222703
672.662
220.085
31.3879
8.20764
1.98552
0.858124
0.4402
0.321408
0.288931
0.292933
0.316071
613.212
181.014
28.3269
7.25781
1.91149
0.873562
0.479539
0.371388
0.34916
0.370028
0.416673
557.363
152.791
25.4028
6.46057
1.83839
0.880003
0.514411
0.420731
0.412016
0.45747
0.549735
511.85
132.247
22.8837
5.8393
1.78049
0.887273
0.547848
0.469883
0.476496
0.553982
0.717533
477.557
117.117
20.8786
5.3708
1.74939
0.898802
0.582214
0.518039
0.538956
0.646088
0.865819
452.435
107.751
19.4451
5.05929
1.75344
0.916413
0.619353
0.563694
0.595668
0.723539
0.97836
430.864
101.857
18.6596
4.93299
1.78995
0.9437
0.661047
0.605617
0.64537
0.782606
1.06152
413.63
98.7367
19.0527
5.10902
1.91154
0.999437
0.716038
0.649277
0.694166
0.833627
1.12255
400.024
98.8896
20.8898
5.70251
2.15595
1.10142
0.78742
0.698495
0.741481
0.876092
1.15439
389.939
100.789
23.6286
6.7317
2.56307
1.27089
0.883519
0.758899
0.788578
0.910074
1.16018
383.71
104.593
27.4411
8.36178
3.23281
1.55745
1.02698
0.841472
0.840587
0.93846
1.14554
381.523
110.773
32.6325
10.8548
4.34434
2.06093
1.26957
0.971545
0.911185
0.969172
1.12228
384.541
119.463
39.4632
14.5214
6.16561
2.96211
1.72158
1.21054
1.03578
1.0236
1.10849
394.119
131.307
48.4798
19.8517
9.12347
4.59064
2.61356
1.70709
1.30839
1.1613
1.14706
412.579
147.634
60.8447
27.7528
13.9701
7.55774
4.41983
2.80991
1.97699
1.55649
1.35935
444.143
170.695
78.5835
39.9707
22.1567
13.0556
8.11218
5.29701
3.6541
2.68571
2.1137
495.711
204.921
105.94
60.3713
36.9938
23.8018
15.8845
10.9362
7.76923
5.71328
4.36331
578.617
245.529
142.815
91.7861
62.2691
43.627
31.2314
22.8617
17.1864
13.2499
10.4646
987.823
425.983
242.446
155.703
106.399
75.1711
54.0559
39.1373
28.3394
20.5147
14.8618
887.844
562.635
162.764
50.2461
17.2976
6.04859
2.60823
1.54382
1.11979
0.892993
0.731548
1062.13
660.097
291.697
114.601
41.9203
13.193
3.53501
1.75178
1.17534
0.902513
0.723082
873.434
577.998
335.822
160.889
69.0724
25.2904
7.41107
2.3813
1.27922
0.930438
0.72137
516.486
502.321
343.496
189.316
91.9631
38.517
13.2385
4.06363
1.5937
0.97788
0.737624
209.223
442.414
339.889
209.261
112.053
52.0855
20.447
6.86103
2.3399
1.12678
0.77443
156.725
414.705
344.924
227.424
130.835
66.0525
28.8263
10.8021
3.70758
1.46951
0.849283
170.513
350.064
355.915
247.046
148.961
79.9562
37.8945
15.6889
5.77442
2.12375
1.00494
156.01
240.36
361.401
273.269
169.331
94.0355
47.1417
21.119
8.43582
3.14979
1.30217
120.795
156.919
314.784
295.697
193.434
109.412
56.5796
26.7801
11.494
4.5263
1.78425
92.0112
98.4743
212.559
291.676
217.68
126.696
66.5132
32.5438
14.7562
6.16935
2.46103
72.2151
67.0051
142.597
251.38
230.655
143.082
76.3038
38.0667
17.9563
7.92969
3.29397
59.5206
48.7472
97.7214
187.601
224.098
153.868
84.2277
42.6492
20.7325
9.60858
4.20282
51.4487
37.8547
69.1473
133.755
198.376
155.056
88.4161
45.5736
22.768
11.0316
5.09395
46.3132
31.189
51.2013
97.2998
163.504
145.987
87.6708
46.3129
23.842
12.0739
5.88966
43.1386
27.2203
39.6349
71.0964
126.723
129.355
82.0123
44.6679
23.8354
12.6536
6.53297
41.5352
24.7563
32.4579
52.7411
88.2077
110.102
72.8799
41.1174
22.9271
12.8108
7.00381
40.4663
22.6666
26.8
40.5472
61.7574
85.8643
62.5844
36.5139
21.413
12.6452
7.31684
39.864
20.955
22.0367
31.0827
44.4454
60.8978
52.624
31.765
19.6604
12.2818
7.51505
40.5715
19.9137
18.1934
23.6898
31.9052
42.0279
42.7381
27.572
18.0034
11.8836
7.65379
43.6457
20.0042
15.5089
18.1648
23.0617
29.7339
33.2964
24.5942
16.7516
11.5838
7.79241
52.6166
22.8077
15.6202
15.7022
18.3875
22.9207
26.6156
22.579
15.9741
11.3773
7.88159
84.435
39.5241
32.1148
30.5939
28.7598
28.4376
28.5113
24.2324
17.0188
11.8928
8.12311
501.507
282.979
268.926
218.544
174.381
139.119
102.289
65.5409
39.3915
23.579
13.9606
633.871
403.954
268.477
196.929
152.873
120.64
95.1032
73.9363
56.0239
41.0413
28.9469
902.842
260.335
100.279
33.5747
11.37
4.48363
2.27687
1.47836
1.12096
0.91262
0.751854
701.013
182.642
71.9543
27.8715
10.6514
4.56109
2.39757
1.57103
1.1977
0.981801
0.817002
548.283
180.859
66.6636
27.4829
11.0031
4.8394
2.56693
1.68957
1.29796
1.07582
0.907402
415.77
148.125
56.1263
26.0978
11.2839
4.98165
2.64107
1.76589
1.3895
1.18243
1.02479
326.027
117.128
45.216
21.8792
9.92336
4.67141
2.6037
1.78948
1.44751
1.28086
1.16865
268.163
93.3068
37.606
18.4067
8.26614
3.89718
2.18838
1.56636
1.35149
1.28182
1.25798
229.18
76.1838
32.15
16.078
7.28352
3.43694
1.91913
1.38745
1.22871
1.20972
1.24575
201.563
63.9242
28.1275
14.3727
6.59064
3.13494
1.73161
1.23835
1.10164
1.10746
1.18122
182.55
55.0984
25.2506
13.1403
6.11824
2.93956
1.60414
1.12551
0.995667
1.01215
1.10702
169.705
49.1003
23.1598
12.2537
5.84546
2.83813
1.53284
1.04941
0.914263
0.930612
1.03285
161.451
44.9975
21.7045
11.6968
5.73279
2.82114
1.51202
1.00497
0.851397
0.854654
0.945465
156.19
42.0801
20.6458
11.3669
5.73529
2.87185
1.53423
0.988499
0.806423
0.791484
0.87537
153.8
40.0744
19.9249
11.2265
5.83802
2.98437
1.59657
0.99904
0.778737
0.735618
0.793731
153.912
38.8506
19.5131
11.2662
6.04411
3.16209
1.70027
1.03621
0.767271
0.686071
0.706012
156.376
38.302
19.3346
11.4522
6.34787
3.40867
1.84936
1.10229
0.774119
0.648868
0.633579
161.205
38.9972
19.5534
11.8325
6.80306
3.76869
2.07281
1.21081
0.805278
0.629272
0.577577
168.904
41.0513
20.2603
12.4196
7.42338
4.27494
2.41189
1.40057
0.88889
0.643356
0.549096
180.693
44.5932
21.5977
13.2905
8.24087
4.95782
2.90133
1.70309
1.04941
0.710215
0.55523
198.563
50.1003
23.8501
14.6081
9.3363
5.87377
3.59585
2.1728
1.33423
0.864953
0.622597
226.25
58.6906
27.5714
16.6922
10.8872
7.1342
4.58776
2.89785
1.8252
1.17557
0.805284
271.76
72.4383
33.7948
20.1485
13.2631
8.97617
6.05384
4.03353
2.66601
1.77064
1.21145
354.393
95.3417
44.3584
26.1176
17.2158
11.9145
8.37413
5.89087
4.13279
2.90132
2.06242
530.26
140.771
64.7015
37.7625
24.9232
17.5379
12.7434
9.4003
6.9843
5.21371
3.92575
1084.05
162.362
87.9426
57.0727
40.7981
30.784
23.9398
18.9188
15.1075
12.1347
9.7342
108.337
142.01
160.893
171.002
164.344
148.585
136.604
136.527
138.509
59.6085
58.7201
55.6903
55.5
51.8274
48.4042
42.021
40.1564
41.0529
42.0644
33.0561
27.0604
26.6151
25.9306
24.1882
20.5858
18.8114
18.421
27.0115
18.0789
14.4019
13.3705
12.7047
11.3718
9.16342
8.2142
8.43743
41.0482
16.9734
14.3219
13.1689
14.2496
58.7141
101.718
124.209
133.79
50.7733
17.2227
6.81618
9.29777
29.9977
40.1399
46.924
45.4252
42.3606
45.0113
20.284
6.54051
9.96788
23.0991
31.4162
30.3298
23.71
19.249
35.3551
19.8763
7.08848
10.4433
18.7645
22.5023
18.1274
12.4474
9.55729
0.00970159
0.00829606
0.00834918
0.00812853
0.00922824
0.0100997
0.329689
0.00810735
0.0105382
0.00874805
0.0092769
0.00813644
0.00837228
0.0084914
0.0157821
0.00960992
0.00846676
0.00816742
0.00961035
0.01074
0.00868879
0.0194165
0.00851767
0.00869517
0.00804254
0.00844811
0.00842377
0.289938
0.0938381
0.0086996
0.00855912
0.00891844
0.00860005
0.00807551
0.00915668
0.00826509
0.00879403
0.00803525
0.00866843
0.0105945
0.279142
0.00810447
0.00871303
0.00849236
0.0287886
2.27521
0.00989195
1.24724
0.00928642
0.011512
0.008771
0.0102967
0.00913318
0.00869427
0.0116981
0.0086783
0.0161346
0.0105081
0.0754619
0.00872364
0.0601284
0.00910606
0.00934144
0.00829385
1.48114
0.0109153
0.00870272
0.00977571
0.00829781
0.00879671
0.00824459
0.00973459
0.00851417
0.0103888
0.0106677
0.00985978
0.0271644
0.00827926
0.0126177
0.132263
0.00871475
0.00829013
0.0080078
0.00838057
0.00932049
0.00845946
0.151932
0.00885651
0.00954764
0.00989666
0.0080928
0.00994784
0.387614
0.00952752
0.126368
0.828572
0.00978734
0.00904949
0.00937676
0.00994958
0.00955291
1.15657
0.00919746
0.00836415
0.00898991
0.00811988
0.0086725
0.00845257
0.00872398
0.00929859
0.0083212
0.00815314
0.0100607
0.00810494
0.0085501
0.00859301
0.011947
0.0129072
0.00800158
0.00949737
0.00811696
0.010315
0.0104179
0.00833208
2.59996
0.00964203
0.00930096
0.00843617
0.00924733
0.00866091
0.00815625
0.00874352
1.25761
0.00979824
0.00833971
0.0097568
0.0145329
0.00831969
0.00871835
0.00903873
0.00875041
0.00889681
0.0701276
0.00929732
0.0121951
0.00874219
0.0101709
0.00990002
0.00857177
0.0104281
0.00980902
0.00848514
0.00911663
0.0102224
0.00808547
0.00882914
0.00821622
0.0100439
0.00870908
0.0102914
0.00814808
0.00898308
0.00979475
0.00845022
0.00882866
0.0100159
0.010016
0.00974649
0.00962716
1.25748
0.00863248
0.0080239
0.00966522
0.00865656
0.00899138
0.008145
0.00838656
0.00897222
0.0338909
0.00817136
0.0100637
0.017505
0.00849738
0.00911277
0.00799491
0.00821432
0.0094715
0.0124708
0.00825322
0.0124256
0.00875633
0.00816089
0.0101595
0.21324
0.00832546
0.00941536
0.0106489
0.00919955
0.00864196
0.00856733
0.00989022
0.0116211
0.00910024
0.00848864
0.00838611
0.00887168
0.00947481
0.00927526
0.0118249
0.0102102
0.00974447
0.00864659
0.00937276
0.00928269
0.00800218
0.00904239
0.00800074
0.00927685
0.0100486
0.00854631
0.0084523
0.00812653
0.00993957
0.00848626
0.00836829
0.00979089
0.00911494
0.00998445
0.00867349
0.00900863
0.0100789
0.00990049
0.00970508
0.0102778
0.00893777
0.162542
0.00850675
0.00845103
0.00815252
0.00811501
0.00935793
0.00863234
0.00838985
0.120001
0.0104936
0.00907351
0.00802336
0.00822926
0.941822
0.00859422
0.00821015
0.00976194
0.0111021
0.0107279
0.00905817
0.0105294
0.00882704
0.00810971
0.00872748
0.0093643
0.00872376
0.00988832
0.0102061
0.00820052
0.00827038
0.00955058
0.00891517
0.0101788
0.0167479
0.00846035
0.00950119
0.0106131
0.0115015
0.00985456
0.00986347
0.0131233
0.00826237
0.0083448
0.00919081
0.00897823
0.00974984
0.0082757
0.0087366
0.00861976
0.00896028
0.00994741
0.0265431
0.00824243
0.0092836
0.00880877
0.00834029
0.209186
0.00960805
0.0088589
0.00856399
0.0117838
0.00965366
0.00817133
0.00921688
0.00830175
0.00835926
0.00838031
0.00923425
0.00869987
0.00888562
0.00932692
0.00828148
0.0102057
0.0154268
0.013154
0.404395
0.00816178
0.00912524
0.00856873
0.0398699
0.00900744
0.00869636
0.00923444
0.00885087
0.00998539
0.00933948
0.00928174
0.00978692
0.00805208
0.00877988
0.00930643
0.00815568
0.00864866
0.00947999
0.00914907
0.00980031
0.00937182
0.0282839
0.00846251
0.00839944
0.591257
0.00820245
0.0082412
0.00805621
0.00905142
0.0104784
0.00980728
0.0113612
0.00945534
0.0093391
0.0102156
0.00867705
0.00977397
0.00888399
0.00913979
0.826952
0.00870513
0.00846011
0.00908674
0.00991356
0.00860266
0.00842557
0.00863475
0.00849691
0.00901508
0.00905809
0.00830642
0.00801846
0.00802404
0.0113639
0.00984967
0.00803598
0.00868079
0.795655
0.00961896
0.00841824
0.00973173
0.786759
0.00855994
0.00973595
0.00831212
0.00929789
0.00907496
0.0106509
0.010836
0.00918008
0.0105798
0.00887294
0.0089237
0.00816046
0.00863294
0.00826168
0.00836995
0.0087242
0.0105797
0.00831635
0.0678213
0.00845837
0.00934878
0.00860115
1.43172
0.00802402
0.0140012
0.00835362
0.00877196
0.00867936
0.00886352
0.00850482
0.00878551
0.00847963
1.05739
0.021483
0.009086
0.0114212
0.00933814
0.00963931
0.00958192
0.00888129
0.00878432
0.0097615
0.00915716
0.00878925
0.0107302
0.00832147
0.0269557
0.00906397
0.00864732
0.452995
0.00865311
0.00823071
0.00922664
0.0102696
0.0200063
0.0104792
4.16676
0.00797783
0.00879689
0.00810113
0.00894132
0.011016
0.00849056
0.00915257
0.00874572
0.00831396
0.00859979
0.0082981
0.119693
0.00961632
0.00828199
0.0094412
0.0087107
0.0085686
0.0101418
0.0106303
0.00928429
0.00817542
0.00833594
0.00798613
0.0139291
0.0104373
0.899005
0.008632
0.00996351
0.018429
0.00825905
0.0106285
0.00924419
0.00858827
0.00901962
0.00982812
0.109743
0.0887393
0.0902245
0.0916648
0.0097369
0.00815049
0.00862181
0.00966024
0.058921
0.00950259
0.00823454
0.0105718
0.0375239
0.00951388
0.00953535
0.00812734
0.00878852
0.00860845
0.0184013
0.00845067
0.00878003
0.00939328
0.0096425
0.0084737
0.0106728
0.00989527
0.0101348
0.0095702
0.00958616
0.00890413
0.00870254
0.0106228
0.0080563
0.00936377
0.010076
0.00829322
0.00871688
0.00807923
0.00807485
0.757729
0.00846881
0.00863047
0.0097952
1.06121
0.00835671
0.00917873
0.0127422
0.0108184
0.0097629
0.00964224
0.00849045
0.00897224
0.00808728
0.00808616
0.00827979
0.0088874
0.00826939
0.00864239
0.00819109
0.0092682
0.00923539
0.00804751
0.0103619
0.00890994
0.00851566
3.16558
0.0108118
0.00984825
0.0081428
0.00985303
0.00856292
0.00800496
0.00840523
0.17014
0.0095279
0.00799087
0.00799684
0.00834843
0.00834037
0.00937468
0.00830417
0.00911901
0.00923204
0.010506
0.00889553
0.00884083
1.78469
0.0090899
0.00902857
0.00891104
0.00865098
0.0083036
0.0084811
0.00964927
0.00932028
0.00869004
0.0118749
0.645508
0.00799622
0.010507
0.00827536
0.00859131
0.00839141
0.0133462
0.00808724
0.0100808
0.00867079
0.00955653
0.00872276
0.00898777
0.00933021
0.00958613
0.0136319
0.014424
0.0080789
0.00895921
0.0110939
0.0105215
0.00847251
0.00906821
0.0543094
0.0104428
0.00841231
0.00854572
0.134379
0.00902133
0.00825911
0.00828754
0.00880879
0.00867282
0.0103922
0.00868731
0.00900658
0.00850486
0.00798571
0.941814
0.00947536
0.00983066
0.0108542
0.00799706
0.0164422
0.00926053
0.00984345
0.00939451
0.00896942
0.00873558
0.00931113
0.00875513
0.0172847
0.00926223
0.0113624
0.01069
0.00951354
0.00954929
0.0082325
0.921452
0.00952241
0.0088248
0.00954063
0.0133653
0.00923576
0.0107807
0.0182364
0.00831024
0.00927649
0.00849089
0.00894602
0.00859829
0.00886949
0.00856983
0.0179676
0.0101609
0.0166475
0.00967064
0.00812377
0.0101704
0.00834773
0.00871002
0.00836345
0.00921511
0.00883059
0.00867845
0.00948248
0.00951444
0.00814295
0.00874965
0.93661
0.00805557
0.0130774
0.00875985
0.0117833
0.00812494
0.0157547
0.00904224
0.00847316
0.00877346
0.0100057
0.0091725
0.00825822
0.00843714
0.0432754
0.00904103
0.00947528
0.00944613
0.00876696
0.00823609
0.00983266
0.0761168
0.00997476
0.0107617
0.0104032
0.0119822
0.00844235
0.00849589
0.00862988
0.00831555
0.00873463
1.03408
0.00813884
0.00910298
0.00841698
0.00928391
0.00857507
0.0143589
0.00910707
0.00984686
0.0091121
0.00840355
0.00862411
0.00906831
0.00841558
0.00812979
0.00946419
0.00979056
0.00849666
0.00901786
0.00816494
0.00868089
0.0107195
0.00974367
0.00869783
0.00877824
0.00833374
0.0916324
0.00891978
0.00963736
0.00850888
0.00866745
0.0099012
0.00857746
0.386148
0.00798754
0.00868154
0.00803582
0.0096869
0.402625
0.0113971
0.00987439
0.00851943
0.00971533
0.00927317
0.00928913
0.00938837
0.00824098
0.00892133
0.00892082
0.00915915
0.0091367
0.00970982
0.0086007
0.00868348
0.00984675
0.00850797
0.00941182
0.00907418
0.00816361
0.00828872
0.0118593
0.00811431
2.68158
0.00912482
0.0104026
0.0109149
0.00983519
0.00971964
0.00913603
0.00896305
0.00971277
0.00855174
0.00818594
0.00865761
0.0089012
0.00891203
0.00848596
0.0096434
0.0086732
0.0115053
0.0090217
1.74453
0.00804451
0.0086201
0.00854748
0.00887536
0.0110884
0.0101048
0.00977968
0.00860168
0.00891384
0.0102957
0.0160459
0.00935774
0.0090321
0.00882403
0.01844
0.00860489
0.00800077
0.00927887
0.00953205
0.00918872
0.00866129
0.00820024
0.00863465
0.00954347
0.00814077
0.00822096
0.00837525
0.00805831
0.0105275
0.00844281
0.0535382
0.00955184
0.00819456
0.0104107
0.0093679
0.00800279
0.00836767
0.00877137
0.00827495
0.00958028
0.00867311
0.95559
0.00958365
0.0173681
0.00883121
0.00870758
0.00946544
0.00807718
2.71381
0.00909488
0.00816607
0.00952586
0.00941843
0.00840521
0.00814948
0.00813878
0.00945921
0.174299
0.00856641
0.00816401
0.00920344
0.00878504
0.00906814
0.00841742
0.00842895
0.0151764
0.00822452
0.00917753
0.00880868
0.00829348
0.00907279
0.0102621
0.0110199
0.00824725
0.00871532
0.00822673
3.0235
0.687874
0.0088879
0.0081065
0.00909465
0.00853084
0.0100152
0.0106419
0.00799941
0.00899393
0.00948657
0.00919456
0.00903941
0.00884921
0.00915693
0.00871936
0.00880642
0.00859767
0.0103612
0.00979899
0.00950318
0.00808521
0.00814629
0.0097793
0.194808
0.012448
0.0103649
0.0116509
0.104984
0.0100165
0.00799687
0.00824749
0.225718
0.00955816
0.00965393
0.00874539
0.00836287
0.0084596
0.00809209
0.00931012
0.00914796
0.00815734
0.00827293
0.00886268
0.00881822
0.0100404
0.00894195
0.00821604
0.00848848
0.0350329
0.0108125
0.0102184
0.00988963
0.00831435
0.0089708
3.15599
0.0101005
0.00967155
0.00890903
0.00884781
0.00869393
0.021089
0.00850913
0.00815721
0.00832067
0.00841628
0.0084495
0.00963252
0.00941325
0.0102925
0.00845859
0.0112396
0.00849389
0.00806643
0.00893076
0.00821097
0.0100163
0.00805598
0.00827425
0.013269
0.00930784
0.0106917
0.00873339
0.00943936
0.00921901
0.009033
0.0104778
0.00830274
0.00821929
3.67709
0.00818128
0.0102359
0.00893466
0.00833526
0.00905475
0.0145755
0.00803771
0.00946114
0.0092229
0.00925689
0.014331
0.00798337
0.0100913
0.00896329
0.00903903
0.0083059
0.00833995
0.00844683
0.00997153
0.008812
0.00814061
0.00952969
0.0081647
0.00984083
0.00991648
0.0101302
0.0216977
0.0097132
0.00940095
0.935497
0.00940879
0.010399
0.00832558
0.00931231
0.00870054
0.0082763
0.0188081
0.00917543
0.00865968
0.00871029
0.00893877
0.0084607
0.00904442
0.011684
0.00891067
0.00943143
0.00944622
0.00945107
0.00813145
0.1842
0.00935375
0.828643
0.00813085
0.014849
0.00831927
0.00852273
0.00891977
0.00810886
0.00855524
0.00929768
0.00874996
0.00816094
0.00964902
0.00882272
0.00925743
0.0087215
0.00842439
0.00817754
0.0106964
0.0103738
0.00956796
0.361105
0.00880329
0.00976699
0.00841482
0.00827943
0.00872143
0.00925867
0.0212054
0.0100852
0.00872847
0.0115566
0.0099096
0.0088009
0.00810832
0.00909597
0.00856457
0.0107169
0.00906135
0.00831339
0.0083303
0.00861513
0.00863412
0.00816378
0.680654
0.00994354
0.00911475
0.0089276
0.00813968
0.00858286
0.00908224
0.615914
0.0097981
0.00848057
0.0091797
0.00926865
0.00806048
0.0087374
0.00800964
0.00976722
0.00885227
0.0103243
0.00862905
0.02933
4.27442
0.0141922
0.00922766
0.00953699
0.00844187
0.00838836
0.00867064
0.00901978
0.00930352
0.0658487
0.00828502
0.00927867
0.00922235
0.00836681
0.00812357
0.00823709
0.00862311
0.744022
0.00954003
0.0106369
0.0340839
0.00966429
0.0092757
0.00960364
0.00882834
0.0259508
0.00949119
0.019896
0.0980268
0.00866383
0.00809791
1.86296
0.0091027
0.00832524
0.00849619
0.0104131
0.00800474
0.00856466
0.00817981
0.00881782
0.00958417
0.0387599
0.0098937
0.0101898
0.00937574
0.00819687
0.00891937
0.00803828
0.00877222
0.00855093
0.00878817
0.0100958
0.0104748
0.127175
0.00967369
0.116575
0.0167349
0.00981408
0.00798681
0.010311
0.00864971
0.00804817
0.008464
0.01001
0.00824302
0.00824245
0.00810569
0.0103969
0.00914787
0.0103229
0.792079
0.0101976
0.0082165
0.0105673
0.0104899
0.00865709
0.00850893
1.7456
0.00825999
0.00881294
0.00871937
0.00883975
0.00843902
0.035554
0.00884696
0.00949386
0.0083165
0.00984691
0.00905569
0.010793
0.00897521
0.00830421
0.00943164
0.00900256
0.00867265
0.00979387
0.00860251
0.00800004
0.00957063
0.00844195
0.00858579
0.00963907
0.0236933
0.0088655
0.0238744
0.0341153
0.00819841
0.00922288
0.010262
0.0095473
0.204343
0.0177139
1.06909
0.00910721
0.0081725
0.00800326
0.0157653
0.00896965
0.00927816
0.471536
0.00844919
0.00816859
0.0102013
0.00847755
0.00926543
0.0387804
0.00870284
0.0118286
0.0216593
0.00851047
0.00845914
0.00918249
0.00882051
0.00998159
0.0088722
0.00859576
0.0167553
0.00849939
0.00897878
0.00868235
0.00847296
0.0152203
0.00963242
0.00993853
0.00861651
0.00828545
0.0087348
0.00817242
0.0224431
0.011985
0.519135
0.00818537
0.00836299
0.00884912
0.00873922
0.00895043
0.00854925
0.00807766
0.00864577
0.00877505
0.104638
0.00804643
0.0101283
0.00903227
0.00833893
0.00815238
0.00859552
0.00829309
0.00837528
0.0105066
0.010137
0.0081515
0.00906397
0.0163645
0.00843237
0.00936138
0.0102474
0.00873568
0.0229327
0.00805608
0.00816887
0.00799168
0.00887981
0.00801597
0.010192
0.00947058
0.0106696
0.00862839
0.00868451
0.00824268
0.00927702
0.00816473
0.0101726
0.00855481
0.010965
0.016233
0.00838168
0.00879078
0.00861972
0.00876998
0.00920607
0.0080224
0.00912517
0.010462
0.023827
0.00917249
0.00859362
0.00850946
0.00908321
0.00851769
0.00876859
0.00933906
0.0374091
0.00887123
0.116323
0.00835857
0.00880347
0.00913034
0.00860361
0.00800144
0.120742
0.00817166
0.00948572
0.00919412
0.00899898
0.00802941
0.0090104
0.00824951
0.00932535
0.0105096
0.045612
0.00796663
0.00992183
0.00854158
0.0101707
0.0101188
0.00812185
0.00953638
0.00839229
0.0100302
0.0351914
0.00923363
0.00845215
0.249414
0.00825274
0.0117462
0.00850417
0.010227
0.00915669
0.00857654
0.009461
0.00998031
0.00852284
0.00879863
0.0080467
0.00977254
0.00819435
0.00857871
0.00865955
0.0250817
0.00837408
0.00836443
0.0275802
0.00874357
0.010113
0.00909209
0.00891127
0.00882915
0.00826806
0.00990765
0.00830092
0.0102149
0.0085417
0.00847496
0.00928654
0.00798411
0.009579
0.00847469
0.00829589
0.00797555
0.00870259
0.0102999
0.0100336
0.00803288
0.00938216
0.00979719
0.00838596
0.00798967
0.00801496
0.00933245
0.00844602
0.00855193
0.00917963
0.008637
0.00869559
0.0119758
0.0215737
0.00796884
0.00892081
0.00867894
0.00890821
0.00930032
0.00859499
0.0104682
0.0133163
0.0321331
0.00962715
0.0153846
0.00930373
0.010238
0.0142057
0.0100311
1.64815
0.00847946
0.00834817
0.0086966
0.00885816
0.00858258
0.00840224
0.0107376
0.0092431
0.00999864
0.00812009
0.00856531
0.00932553
0.00927144
0.00919964
0.00878615
0.00800258
0.00930962
0.00933737
0.00840483
0.0139801
0.00801809
0.0096272
0.00914466
0.0839952
0.00872336
0.00964674
0.00943924
0.0321572
0.00820924
0.0106123
0.0305579
0.0103694
0.00891122
0.00965321
0.00874668
0.00921067
0.00994319
0.00907964
0.11346
0.00862216
0.00830227
0.00939975
0.00900289
0.00885078
0.00943601
0.00910587
0.00872708
0.00875402
0.0135568
0.00812898
0.00810375
0.00890922
0.00963752
0.00882872
0.009077
0.00994498
0.0316341
0.014148
0.00832924
0.00845605
0.00954139
1.93628
0.00953008
0.00954045
0.043813
0.00898902
0.00989391
0.00973259
0.00955186
0.00880232
0.0095384
0.00958983
0.00807087
0.00933455
0.00989615
0.0100862
0.00849323
0.00887233
0.00894012
0.00879163
0.00829302
0.0114504
0.00893183
0.00855221
0.00960419
0.0103617
0.0094372
0.00867703
0.0084238
0.0106427
0.00799796
0.010564
0.00913595
0.00935318
0.00836354
0.00884009
0.00866811
0.00834947
0.00890498
0.00851457
0.00929559
0.00974311
0.0104693
0.0102813
0.00853398
0.00872139
0.52887
0.00934326
0.00903112
0.00895607
0.00959405
0.00810745
0.0100502
0.0085885
0.00843975
0.00941903
0.00837854
0.00886385
0.00946963
0.00913816
0.0268887
0.0103351
0.00947305
0.0765309
0.117728
0.00892051
0.00849994
0.00923824