/*--------------------------------*- C++ -*----------------------------------*\
| =========                 |                                                 |
| \\      /  F ield         | OpenFOAM: The Open Source CFD Toolbox           |
|  \\    /   O peration     | Version:  3.0.1                                 |
|   \\  /    A nd           | Web:      www.OpenFOAM.org                      |
|    \\/     M anipulation  |                                                 |
\*---------------------------------------------------------------------------*/
FoamFile
{
    version     2.0;
    format      ascii;
    class       volScalarField;
    location    "0.0457946";
    object      k;
}
// * * * * * * * * * * * * * * * * * * * * * * * * * * * * * * * * * * * * * //

dimensions      [0 2 -2 0 0 0 0];

internalField   nonuniform List<scalar> 
21246
(
0.351533
0.501414
0.453523
0.370155
0.27993
0.199377
0.136659
0.0919614
0.0609652
0.0397969
0.0263171
0.300214
0.454965
0.437658
0.363879
0.273516
0.192124
0.129726
0.0857994
0.0559179
0.0360701
0.0236348
0.235211
0.414235
0.417066
0.362136
0.279561
0.198079
0.132897
0.0865599
0.055488
0.0353136
0.022866
0.20532
0.366924
0.391415
0.358069
0.287484
0.208156
0.140689
0.0913561
0.05787
0.0361483
0.0229018
0.185383
0.324499
0.355107
0.338796
0.284094
0.213087
0.146844
0.0955237
0.0596081
0.0362668
0.0222809
0.174151
0.295098
0.32599
0.315799
0.270328
0.207521
0.145415
0.0955325
0.0602342
0.0370563
0.0229954
0.165725
0.272065
0.302923
0.29562
0.255505
0.198909
0.141516
0.0942717
0.060108
0.037306
0.023212
0.160693
0.255061
0.283952
0.277377
0.241308
0.189501
0.136308
0.0918987
0.0592931
0.037252
0.0237201
0.156754
0.241579
0.268183
0.261827
0.228496
0.180439
0.130878
0.089173
0.0582364
0.0370437
0.023786
0.153146
0.230031
0.254876
0.248858
0.217658
0.172595
0.125999
0.086592
0.0571195
0.0366573
0.0235298
0.149886
0.219995
0.243593
0.238074
0.208708
0.16611
0.121914
0.0843603
0.0560761
0.0362555
0.0236212
0.147542
0.21162
0.234134
0.229069
0.201294
0.160803
0.118609
0.0825691
0.0552517
0.0359706
0.0235898
0.145808
0.20445
0.2262
0.221726
0.195451
0.156799
0.116246
0.0813839
0.0547914
0.0358688
0.023514
0.144111
0.198019
0.219514
0.21601
0.191323
0.154312
0.115042
0.0809768
0.0547836
0.0359851
0.0237035
0.143035
0.192564
0.213993
0.211656
0.188657
0.153217
0.11498
0.0813849
0.0552727
0.0363214
0.0237363
0.142456
0.18775
0.209483
0.208652
0.187573
0.153715
0.116292
0.0828064
0.0564043
0.0369991
0.0239746
0.142034
0.183167
0.20577
0.207047
0.188354
0.156222
0.119393
0.0855803
0.0584217
0.0381673
0.0244617
0.142062
0.178829
0.202771
0.206749
0.191045
0.161
0.124685
0.0901009
0.0616339
0.0400348
0.0252361
0.14293
0.174665
0.199955
0.207192
0.195484
0.168484
0.132876
0.0969695
0.0665595
0.043009
0.0266863
0.144731
0.170299
0.197055
0.207864
0.200825
0.177734
0.143711
0.106833
0.0739539
0.0477477
0.0292214
0.147713
0.165441
0.193562
0.208259
0.206541
0.188339
0.156923
0.119657
0.0842538
0.0549511
0.0335796
0.153051
0.15947
0.189314
0.207487
0.2114
0.199044
0.171693
0.13541
0.0981694
0.0657216
0.0409071
0.159363
0.153696
0.182106
0.204407
0.213811
0.207934
0.186406
0.153391
0.116142
0.0812748
0.052869
0.181214
0.159209
0.190617
0.201113
0.208862
0.207409
0.193517
0.167938
0.135226
0.101261
0.0708447
0.310159
0.413389
0.416172
0.377347
0.315365
0.240902
0.167906
0.115041
0.0767091
0.049647
0.0327005
0.210441
0.295235
0.349335
0.355779
0.327372
0.274935
0.209716
0.150558
0.100764
0.0659878
0.0426485
0.133222
0.275473
0.321895
0.335372
0.325432
0.292418
0.240659
0.183238
0.129607
0.0871284
0.057456
0.142876
0.225476
0.337841
0.357727
0.34107
0.309889
0.265319
0.212105
0.157656
0.11015
0.0759465
0.167067
0.229378
0.351175
0.44638
0.425043
0.366539
0.305098
0.244881
0.186836
0.13462
0.0943152
0.194065
0.250054
0.352021
0.488047
0.566142
0.50375
0.400198
0.305639
0.227705
0.164236
0.114982
0.219743
0.278736
0.36427
0.480752
0.620089
0.673428
0.570866
0.426561
0.302568
0.209736
0.14318
0.242907
0.308316
0.382556
0.472159
0.588419
0.728902
0.746487
0.604302
0.428885
0.286475
0.187242
0.263923
0.338237
0.404423
0.468524
0.547514
0.670028
0.806584
0.769638
0.588654
0.398027
0.253953
0.283353
0.369243
0.429934
0.470857
0.514406
0.597865
0.742393
0.845507
0.731686
0.524432
0.340137
0.301979
0.402564
0.459592
0.480125
0.495306
0.542608
0.655794
0.821176
0.823064
0.636532
0.429914
0.321087
0.438343
0.492925
0.496219
0.490763
0.512506
0.593316
0.756735
0.867025
0.718618
0.507486
0.342301
0.478258
0.529448
0.518359
0.498052
0.504239
0.559598
0.687765
0.863359
0.776431
0.556301
0.365196
0.523132
0.570063
0.54504
0.511367
0.507109
0.547359
0.634648
0.767443
0.834157
0.577246
0.388399
0.574285
0.616792
0.575346
0.523827
0.503644
0.524586
0.58049
0.662127
0.741814
0.618731
0.413008
0.633168
0.670639
0.608461
0.532927
0.490891
0.488887
0.516285
0.562777
0.614063
0.627707
0.439328
0.699981
0.732469
0.644517
0.538449
0.470222
0.445093
0.448834
0.469297
0.494605
0.506033
0.468108
0.776684
0.810084
0.69476
0.551634
0.451837
0.403551
0.388959
0.391422
0.395855
0.389347
0.503428
0.860763
0.906771
0.786287
0.620901
0.493026
0.423647
0.400845
0.404092
0.407177
0.41594
0.461635
0.85477
0.943589
0.866029
0.720153
0.584162
0.491461
0.462467
0.415628
0.379844
0.355941
0.405234
0.766607
0.893165
0.87244
0.77971
0.681334
0.575147
0.457999
0.374076
0.303277
0.237994
0.363858
0.678697
0.804798
0.811326
0.752531
0.64109
0.505483
0.378332
0.288926
0.223374
0.170775
0.317694
0.522795
0.567578
0.514911
0.423252
0.335629
0.271111
0.225004
0.189506
0.157514
0.125732
0.219594
0.191341
0.179858
0.178979
0.182354
0.185531
0.184066
0.174307
0.155074
0.128371
0.0984271
0.308041
0.336474
0.182718
0.0840691
0.0406551
0.0214017
0.0134487
0.0102065
0.00875966
0.00803099
0.00761836
0.337565
0.373013
0.162449
0.0871769
0.0452071
0.024547
0.0149387
0.0107595
0.0088987
0.00800009
0.00752641
0.368071
0.395321
0.148238
0.0930617
0.0500795
0.0282187
0.0167474
0.0116006
0.00921054
0.008009
0.007325
0.39361
0.360929
0.138437
0.0942723
0.0503782
0.0301516
0.0179383
0.0123051
0.00953676
0.00810262
0.0072951
0.412415
0.314461
0.129958
0.090205
0.0482235
0.030719
0.0184257
0.0127756
0.00982721
0.0082464
0.00733541
0.427027
0.276947
0.122265
0.0840195
0.0457586
0.0302061
0.01839
0.0129938
0.0100114
0.00836411
0.00739523
0.438003
0.249963
0.115306
0.0775476
0.0435285
0.0291028
0.0180576
0.0130084
0.0100854
0.00843628
0.00743253
0.444105
0.230102
0.108849
0.0717401
0.0414628
0.0277827
0.017591
0.0128858
0.0100737
0.0084728
0.00749542
0.448103
0.215203
0.103083
0.0669727
0.0396382
0.0265154
0.0171061
0.0126967
0.0100115
0.00847839
0.00752754
0.453036
0.205628
0.0986074
0.0633936
0.0382147
0.0254724
0.0166844
0.0124997
0.00992852
0.00846214
0.00753342
0.455761
0.201568
0.0952878
0.0607652
0.0371796
0.024672
0.0163547
0.012327
0.00984636
0.00843746
0.00754089
0.455221
0.199911
0.09268
0.0587558
0.0364371
0.0240728
0.0161209
0.0121947
0.00978082
0.00841607
0.0075399
0.452217
0.200146
0.0915759
0.0576017
0.0361254
0.0237624
0.0160385
0.0121279
0.00974916
0.00840966
0.00754737
0.447064
0.20324
0.092697
0.0574382
0.0363859
0.0238386
0.0162052
0.0121945
0.00979845
0.00844221
0.00757793
0.439769
0.207227
0.0948736
0.0579768
0.0370658
0.0242745
0.016603
0.012405
0.00993909
0.00852509
0.00763713
0.430883
0.212265
0.0985227
0.0594356
0.0382908
0.0251656
0.0172946
0.0128138
0.0102047
0.00868304
0.00774103
0.420684
0.219117
0.10465
0.0623665
0.0403612
0.0267022
0.0184211
0.0135219
0.0106559
0.00895859
0.00791688
0.409134
0.226947
0.112842
0.0669341
0.0434662
0.0290202
0.0201179
0.0146571
0.0113909
0.00942133
0.00821174
0.396472
0.235592
0.123527
0.0737711
0.0481361
0.0324851
0.0226683
0.0164439
0.0125882
0.0102018
0.00871644
0.382967
0.24455
0.137099
0.083756
0.0552108
0.0377462
0.0265862
0.0192866
0.0145729
0.0115483
0.00961403
0.368749
0.252803
0.153683
0.098019
0.0660588
0.0459977
0.0328399
0.0239575
0.0179692
0.0139554
0.0112863
0.354262
0.258183
0.172591
0.11758
0.0826307
0.059322
0.0433003
0.0320347
0.0240824
0.0184904
0.0145907
0.33711
0.256264
0.191411
0.142651
0.107092
0.0808362
0.0613075
0.0466884
0.0357579
0.0276325
0.0216431
0.33097
0.260229
0.216778
0.178095
0.144521
0.116169
0.0928317
0.073935
0.0588255
0.0468899
0.0375537
0.361709
0.374473
0.176703
0.0821087
0.039235
0.0208637
0.0133863
0.0103747
0.00906068
0.00841804
0.00806714
0.421998
0.559201
0.157284
0.0903623
0.0436024
0.0233674
0.0146837
0.0112983
0.0098957
0.00924069
0.00887317
0.467014
0.619394
0.155486
0.100885
0.0476118
0.0262136
0.0161564
0.0121965
0.0105705
0.00985705
0.00948049
0.497123
0.543749
0.154798
0.102731
0.0484619
0.0282438
0.0174546
0.0132334
0.0116217
0.0110742
0.0109858
0.512113
0.451046
0.148574
0.0967184
0.0474172
0.0291111
0.0183617
0.0141812
0.0126298
0.0121904
0.0122041
0.516181
0.380375
0.139203
0.0881816
0.0456987
0.0291254
0.0189573
0.0150471
0.0136825
0.0135379
0.0140216
0.514046
0.330407
0.129395
0.0802426
0.0438856
0.0287248
0.0193499
0.0158488
0.0147651
0.014985
0.0159349
0.507439
0.293694
0.119988
0.0735718
0.0421877
0.0282187
0.0196673
0.0166407
0.0159109
0.0166708
0.0185613
0.49944
0.266539
0.111671
0.0682736
0.0407914
0.0278133
0.0200021
0.0174588
0.0171333
0.0186337
0.0221099
0.492168
0.246287
0.104794
0.0641573
0.0398543
0.0275691
0.020413
0.018295
0.0183667
0.0206078
0.0254941
0.485649
0.233332
0.0995508
0.0612229
0.0394777
0.0275115
0.0209357
0.019114
0.0195216
0.0223403
0.0282208
0.477861
0.224703
0.0957473
0.0593165
0.0395285
0.0276741
0.0215928
0.0198819
0.0205537
0.023713
0.0303899
0.469206
0.219011
0.0939741
0.0583018
0.040015
0.0282046
0.0225179
0.0207175
0.0216006
0.0249526
0.0321335
0.459744
0.216622
0.0946469
0.0583175
0.0409601
0.0292041
0.0236975
0.0216771
0.0226341
0.0260239
0.0332433
0.44934
0.216261
0.0969025
0.0592403
0.0423024
0.030653
0.0251327
0.0228194
0.0236566
0.0269029
0.033731
0.438115
0.217765
0.100948
0.0612729
0.0441352
0.0325933
0.0268826
0.0242168
0.0247148
0.0276115
0.0336626
0.426075
0.221127
0.107089
0.0647754
0.0466884
0.0351147
0.0290483
0.0259617
0.0259087
0.0282265
0.0332235
0.413023
0.225927
0.115409
0.0701459
0.0503214
0.0383753
0.0317741
0.0281754
0.0273955
0.0289084
0.0326534
0.398661
0.23177
0.126097
0.0779732
0.0556505
0.0427512
0.0353281
0.0310516
0.0293971
0.0299057
0.0323096
0.382454
0.238076
0.139526
0.0891533
0.063726
0.049054
0.0402957
0.0349974
0.0322714
0.0316064
0.0326091
0.36335
0.24366
0.155785
0.104854
0.0762183
0.0588795
0.047966
0.0409757
0.036742
0.0346153
0.0341034
0.338932
0.24587
0.174191
0.126298
0.0955939
0.0751168
0.0610482
0.0512593
0.044559
0.0402032
0.0376192
0.30342
0.233687
0.184447
0.146902
0.118736
0.0972579
0.0806596
0.0679399
0.058444
0.0514456
0.0463488
0.306485
0.226902
0.18477
0.157233
0.135712
0.117624
0.101964
0.0881429
0.0758336
0.0650615
0.0558389
0.648313
1.10619
0.643293
0.407016
0.246185
0.141273
0.0865736
0.0617275
0.049635
0.0423066
0.0365604
0.63179
0.938625
0.697732
0.476642
0.308386
0.182702
0.1023
0.067605
0.0517093
0.0430167
0.036681
0.541649
0.737281
0.67235
0.503089
0.347149
0.217783
0.125646
0.0773106
0.055066
0.0443006
0.0369986
0.395213
0.632515
0.630975
0.507185
0.369387
0.244163
0.147066
0.0892769
0.060578
0.0461166
0.0379035
0.227366
0.592323
0.604367
0.508688
0.385732
0.26571
0.166788
0.101773
0.066883
0.0491151
0.0393891
0.1949
0.612064
0.616794
0.521769
0.403127
0.285899
0.185905
0.115183
0.0739972
0.052482
0.0411282
0.214605
0.664861
0.692806
0.565364
0.43018
0.307718
0.205005
0.129385
0.0821543
0.0562972
0.0428323
0.210264
0.637479
0.814109
0.659947
0.481248
0.336899
0.22541
0.144168
0.0912408
0.0607347
0.0445982
0.183188
0.532939
0.865563
0.78909
0.566881
0.381404
0.250299
0.160124
0.101197
0.0659261
0.0466149
0.156747
0.425573
0.776056
0.892398
0.682507
0.447309
0.28362
0.178629
0.112247
0.0719779
0.0491502
0.136289
0.345045
0.641734
0.896527
0.789837
0.527839
0.325562
0.200136
0.124389
0.0788553
0.0523782
0.121967
0.288765
0.528933
0.808711
0.850099
0.605192
0.370525
0.222953
0.136971
0.0862784
0.056343
0.11199
0.249722
0.43771
0.6838
0.838864
0.656995
0.409172
0.243851
0.148921
0.0938628
0.0609652
0.105073
0.223408
0.367615
0.571175
0.772689
0.670107
0.432348
0.259056
0.158927
0.101153
0.0661278
0.100188
0.205501
0.314192
0.472956
0.673794
0.645745
0.434947
0.265399
0.165648
0.107616
0.071672
0.0969701
0.192972
0.27656
0.391777
0.544676
0.597648
0.418874
0.262782
0.169015
0.113195
0.0774986
0.0939682
0.181168
0.244776
0.331779
0.435314
0.518811
0.392218
0.253778
0.169805
0.118186
0.083692
0.0907579
0.169675
0.215722
0.280577
0.35346
0.420989
0.362534
0.242466
0.169707
0.12323
0.0906168
0.0884593
0.159448
0.189709
0.236742
0.287701
0.336807
0.328532
0.233185
0.17099
0.129678
0.0990003
0.0880552
0.151045
0.167642
0.200406
0.236821
0.276468
0.291486
0.231786
0.176875
0.139409
0.110148
0.092532
0.145919
0.155489
0.178347
0.207022
0.242357
0.267166
0.238938
0.189684
0.153557
0.124348
0.113896
0.162874
0.195905
0.222111
0.241764
0.263925
0.283196
0.267467
0.2174
0.175883
0.141715
0.317866
0.614901
0.719497
0.70293
0.650591
0.608487
0.549841
0.448884
0.342267
0.257066
0.192161
0.28743
0.291691
0.265195
0.246727
0.238699
0.232647
0.22473
0.211986
0.196112
0.178348
0.158014
0.620742
0.796614
0.560045
0.335609
0.194908
0.117791
0.0787108
0.0595137
0.0492469
0.0425067
0.0367945
0.433571
0.586561
0.450975
0.300839
0.187774
0.119012
0.0811663
0.061712
0.0512306
0.0443962
0.0386494
0.365453
0.535821
0.413108
0.294361
0.190462
0.123195
0.0846581
0.0645685
0.0538712
0.0470187
0.0412552
0.323273
0.45112
0.35975
0.280812
0.191105
0.124459
0.0858005
0.0661724
0.0561465
0.0499379
0.0446467
0.296487
0.382942
0.307827
0.24663
0.17318
0.117762
0.084021
0.066091
0.0572438
0.0524488
0.048777
0.278461
0.332391
0.272836
0.218116
0.151369
0.102505
0.0731082
0.0587704
0.0531907
0.0514043
0.0506892
0.265683
0.295355
0.248742
0.199992
0.138992
0.0938729
0.0664156
0.0533458
0.0488744
0.0484135
0.0495119
0.256605
0.268292
0.231657
0.187658
0.13109
0.0887911
0.0620846
0.0490071
0.0445935
0.0445918
0.0467291
0.250253
0.248599
0.220109
0.179697
0.126703
0.0863602
0.0597415
0.0460491
0.0411222
0.0409741
0.0434131
0.246066
0.234882
0.212374
0.175011
0.125587
0.0864369
0.0594854
0.0447324
0.0388421
0.0381031
0.0402872
0.243546
0.22511
0.207505
0.17338
0.127163
0.0888883
0.0613509
0.0451919
0.0379103
0.0361312
0.0374561
0.242238
0.217825
0.204389
0.173842
0.130715
0.0933356
0.0652235
0.0475312
0.038573
0.0355092
0.0359783
0.241981
0.212165
0.202581
0.175879
0.135839
0.0995068
0.0709841
0.0518429
0.041072
0.0364333
0.0355656
0.242658
0.20745
0.201623
0.179116
0.142283
0.107192
0.0784572
0.0580441
0.0454444
0.0389907
0.0365013
0.243912
0.20322
0.200956
0.182961
0.149604
0.116055
0.0873523
0.0658933
0.0515691
0.0432226
0.0391716
0.245425
0.199276
0.199893
0.18663
0.157439
0.125973
0.0976221
0.0752424
0.059235
0.0490011
0.0436202
0.247267
0.195398
0.197976
0.189232
0.164822
0.136116
0.108656
0.0857588
0.0683639
0.0562631
0.0495358
0.249537
0.191434
0.195014
0.190461
0.171264
0.14604
0.12011
0.0970816
0.0785139
0.0647431
0.0562748
0.252455
0.18732
0.190843
0.190007
0.176237
0.155229
0.131626
0.109081
0.0897003
0.0744595
0.0641442
0.256435
0.183094
0.18527
0.187462
0.179081
0.162952
0.142659
0.121566
0.102107
0.0858004
0.0738214
0.262238
0.178831
0.178064
0.182267
0.178897
0.168126
0.152222
0.133922
0.115626
0.0991347
0.0859702
0.271556
0.174571
0.168971
0.173618
0.174297
0.16893
0.158359
0.144396
0.128987
0.113834
0.100524
0.28724
0.17029
0.1576
0.160857
0.16425
0.163759
0.158829
0.15025
0.139277
0.127211
0.115405
0.32513
0.162089
0.154421
0.155573
0.158909
0.160925
0.160222
0.156537
0.150443
0.142482
0.132982
0.157484
0.188327
0.204379
0.212735
0.207224
0.194155
0.183525
0.18379
0.186105
0.189224
0.240008
0.286136
0.310901
0.315499
0.312802
0.278124
0.256485
0.243781
0.218647
0.249294
0.269115
0.288361
0.296408
0.289346
0.256094
0.231802
0.216959
0.20644
0.218489
0.233296
0.240232
0.23943
0.226341
0.196439
0.176702
0.171454
0.082008
0.0455899
0.0407068
0.038385
0.0409069
0.104879
0.150886
0.172599
0.181848
0.152481
0.084936
0.0607319
0.0642435
0.107508
0.12296
0.15831
0.19309
0.225442
0.182216
0.107504
0.0689173
0.0755812
0.108896
0.141596
0.173221
0.191797
0.204412
0.185381
0.118067
0.079509
0.0868433
0.110989
0.138489
0.15565
0.163547
0.170207
0.00465671
0.00460174
0.00461693
0.00462706
0.005051
0.00525449
0.0149476
0.00454871
0.00540215
0.00486634
0.00506896
0.00455681
0.00472142
0.00476973
0.00475375
0.00515825
0.00476061
0.00464176
0.00516235
0.00556569
0.00484802
0.00535557
0.00466497
0.00484041
0.00452723
0.00475326
0.00474093
0.0141587
0.017493
0.00484861
0.00479598
0.00492791
0.00481252
0.00453821
0.00502126
0.0045927
0.00487673
0.00452658
0.004838
0.005289
0.00814696
0.0045465
0.00485197
0.00465779
0.00707268
0.0596303
0.00525238
0.0448457
0.00507046
0.00569766
0.00487497
0.00519817
0.0050035
0.00484457
0.00571326
0.00484413
0.00540098
0.0052236
0.0159534
0.00485405
0.00592871
0.00499222
0.00509272
0.00469051
0.0318234
0.00561747
0.00484956
0.0052382
0.00460218
0.00488502
0.00467132
0.0052311
0.00477376
0.00546766
0.00550889
0.00527238
0.00499064
0.00459688
0.00595372
0.0117435
0.00485503
0.00468791
0.00452124
0.00462577
0.00508425
0.00475324
0.0205135
0.00489979
0.00516592
0.00529791
0.00454278
0.00506287
0.00998596
0.00514255
0.0111821
0.0345365
0.00522253
0.00497752
0.00510237
0.00531283
0.00516522
0.0431141
0.00503172
0.00472051
0.0049585
0.00455077
0.00483798
0.00464635
0.00485809
0.00507637
0.00456225
0.00456042
0.00532841
0.00461782
0.00479121
0.00472921
0.0056463
0.00586103
0.00452096
0.00514389
0.00462214
0.00544513
0.0054401
0.00470824
0.066891
0.00518477
0.00506814
0.00474798
0.00505267
0.00483631
0.00457144
0.00486147
0.0451926
0.00525126
0.00461415
0.00524035
0.00532406
0.00469631
0.00485606
0.00497636
0.00486649
0.00492583
0.011058
0.00476275
0.00573247
0.00485592
0.00537468
0.00527861
0.004801
0.00526677
0.00521204
0.00471314
0.00498553
0.00541218
0.00461065
0.00489675
0.004662
0.00534091
0.00485025
0.0053247
0.00463431
0.00495241
0.00525214
0.0046802
0.00489406
0.0053284
0.00533928
0.00524524
0.00518959
0.0275102
0.00482418
0.00458643
0.00520464
0.00483147
0.00495434
0.00463152
0.00472448
0.00493972
0.00728272
0.00461286
0.00532974
0.00523646
0.00465926
0.00500562
0.00451838
0.00465921
0.00511465
0.00579487
0.00458946
0.00594438
0.00486963
0.00464039
0.00533031
0.00703846
0.00461013
0.00499815
0.00550336
0.00503621
0.00482882
0.00467913
0.00528519
0.00581833
0.00499613
0.00476686
0.00462746
0.00490601
0.00512585
0.00506315
0.00584423
0.00531417
0.00524414
0.00477579
0.00482868
0.0050668
0.0045179
0.00495444
0.00451758
0.00504753
0.00529985
0.00478948
0.00475402
0.00462616
0.00527446
0.0047667
0.00472231
0.00505049
0.00500614
0.00531181
0.00483979
0.00496526
0.00535604
0.00524706
0.00518704
0.00543147
0.00492618
0.0158456
0.00477167
0.00464607
0.00456143
0.00455093
0.00507462
0.00481662
0.0047305
0.00554791
0.00549324
0.00498524
0.00452369
0.00466541
0.0425503
0.00480349
0.0046584
0.00524964
0.00564688
0.005526
0.00497872
0.00545062
0.0048997
0.00454971
0.00485683
0.00507964
0.00478903
0.00528429
0.00531692
0.00457443
0.0045562
0.00514843
0.00493285
0.00538581
0.00540719
0.0046989
0.00515015
0.00546748
0.00578675
0.0052406
0.0051817
0.00587224
0.00468043
0.00464685
0.00503253
0.00495323
0.00523862
0.00459576
0.00486292
0.00481444
0.00494484
0.00515706
0.00950355
0.00458664
0.0050687
0.00488735
0.00461437
0.0142587
0.00519119
0.00490589
0.00467821
0.0058201
0.00519851
0.00456588
0.0050434
0.00469453
0.00464355
0.00472148
0.00505265
0.00484867
0.00492133
0.00508742
0.00459753
0.00538991
0.00529921
0.00574986
0.0144397
0.00456268
0.00501363
0.0048004
0.00475778
0.00496526
0.00484244
0.0050491
0.00490435
0.00530446
0.00505075
0.00506114
0.00516798
0.00459547
0.00487555
0.00507837
0.00457863
0.00482459
0.00510525
0.00500128
0.0052546
0.00510379
0.00499727
0.00464924
0.00473201
0.0295163
0.00465631
0.00458609
0.00454425
0.00498046
0.00543624
0.00526574
0.00574255
0.00512668
0.00509053
0.00539379
0.00483831
0.00512376
0.00490808
0.00500859
0.0251466
0.00484594
0.00468485
0.00499342
0.00472055
0.00468914
0.00474372
0.00478037
0.00465905
0.00495592
0.00459867
0.00469856
0.00452216
0.00452417
0.00575787
0.00527858
0.00459159
0.00484219
0.0257251
0.00519008
0.00467475
0.00522811
0.0365204
0.00479613
0.00470011
0.00460646
0.00464644
0.00499053
0.00540014
0.00534887
0.00503056
0.00530715
0.0049096
0.00483226
0.0046406
0.00481979
0.00467713
0.00472293
0.00484887
0.00553209
0.00465016
0.00763024
0.00475578
0.00508864
0.00480846
0.030416
0.00452508
0.00592191
0.00461806
0.00487337
0.00483918
0.00482345
0.00466134
0.00487798
0.00476228
0.0208984
0.00724396
0.0049897
0.00574894
0.00508046
0.00520204
0.00515817
0.00491727
0.00488111
0.00521632
0.00502572
0.00488153
0.00558893
0.0047034
0.00726632
0.00498474
0.00481768
0.0182155
0.00483357
0.00466644
0.00504943
0.00542645
0.00465241
0.00549803
0.0894929
0.00451423
0.00488166
0.00461562
0.00493822
0.00568126
0.0047685
0.00501037
0.00486634
0.00470119
0.00468833
0.00469451
0.0188289
0.00516287
0.00468489
0.00511788
0.00484926
0.00479067
0.00532693
0.00546258
0.00505607
0.00459692
0.00461293
0.004515
0.00629815
0.00545348
0.0288469
0.00482411
0.00531192
0.00476274
0.00459096
0.00545571
0.00504747
0.00480557
0.00496464
0.00526672
0.00678508
0.00639266
0.00545505
0.00546768
0.00523187
0.00462653
0.00481529
0.00511727
0.0058668
0.00514376
0.00458444
0.00544932
0.00586771
0.0051406
0.00513274
0.00456813
0.00488553
0.00480962
0.00517389
0.00464586
0.00486421
0.00510875
0.00472966
0.00476235
0.00546771
0.00528037
0.00516441
0.00516632
0.00502017
0.00492657
0.00484512
0.00549796
0.00459618
0.00477063
0.00534902
0.00469192
0.00485027
0.00454018
0.00453766
0.0378223
0.00475942
0.00481707
0.00525539
0.0392482
0.00461886
0.00502081
0.00477177
0.00561166
0.00523764
0.0051963
0.00476774
0.0049464
0.00460879
0.0045583
0.00466236
0.00491855
0.00459394
0.00475775
0.00457212
0.00506329
0.00505163
0.00453182
0.00535301
0.00492411
0.00469493
0.077494
0.00560716
0.00526466
0.00462578
0.00527825
0.00467789
0.00452505
0.00463278
0.00627977
0.00514677
0.00451553
0.00451834
0.00471471
0.00461418
0.00508498
0.00460373
0.00499798
0.0050484
0.00545156
0.00492201
0.00485266
0.0505106
0.00498833
0.00497315
0.00493124
0.00482994
0.00460405
0.00476486
0.00519786
0.00502814
0.0048459
0.00589638
0.0288517
0.00451722
0.00548936
0.00459544
0.00479944
0.00472664
0.00456671
0.00454192
0.00524841
0.00483346
0.00514938
0.0048548
0.00495805
0.00507779
0.00518036
0.00538249
0.00471933
0.00455233
0.00494053
0.00563407
0.00546151
0.00475543
0.00498281
0.00472251
0.00548094
0.00463482
0.00467299
0.0113341
0.00487506
0.00466366
0.00468808
0.00488581
0.00482946
0.00542283
0.00484059
0.00496189
0.00467927
0.00451737
0.0382047
0.00512576
0.00470504
0.00559623
0.00451668
0.00666291
0.00504393
0.00525437
0.00510907
0.00494917
0.00486096
0.00505438
0.00486537
0.00549906
0.00505897
0.00570295
0.00551777
0.00513442
0.00515866
0.0046012
0.0408953
0.00515993
0.00484324
0.00506936
0.00534713
0.00504511
0.00552159
0.00543537
0.00460553
0.00506746
0.0047688
0.00493858
0.00459087
0.00491119
0.00479317
0.00692241
0.00537253
0.00560863
0.00519606
0.00460476
0.0053923
0.00471197
0.00477372
0.00462077
0.00503911
0.00489555
0.00484307
0.00507833
0.00515149
0.00463156
0.00486615
0.0433476
0.00458179
0.00623286
0.00474247
0.00567855
0.00455192
0.0062133
0.00497509
0.00476096
0.0048746
0.00533227
0.00501812
0.00459113
0.00474303
0.00547378
0.00497798
0.00513258
0.00511192
0.00477017
0.00466858
0.00525039
0.01187
0.00531386
0.0055278
0.00544712
0.00516258
0.00474953
0.00465877
0.00482374
0.00469877
0.00486067
0.0440226
0.00463024
0.00500305
0.00463611
0.00454868
0.00480008
0.00633253
0.00499756
0.00516281
0.00500846
0.00463229
0.00467629
0.00496972
0.00473517
0.00455373
0.00501619
0.00508464
0.00476886
0.00496079
0.00456361
0.00480314
0.00546737
0.00522435
0.00484556
0.00487981
0.00470562
0.00504392
0.00493072
0.00519149
0.00477656
0.00483282
0.00527743
0.00480366
0.0162138
0.00452184
0.00483764
0.00452342
0.00521697
0.0139773
0.00581566
0.00527347
0.00478043
0.00520283
0.00506593
0.00506813
0.00508847
0.0045858
0.00492889
0.00492737
0.00501141
0.00501543
0.00460708
0.00480915
0.00483421
0.00527432
0.00477432
0.00510114
0.0049857
0.00454726
0.00469138
0.00587161
0.00454892
0.0685554
0.00484087
0.00545777
0.00557875
0.0051603
0.00521445
0.00500965
0.00487948
0.00522527
0.00479274
0.00456975
0.00483413
0.00492403
0.00492568
0.00476585
0.00520439
0.00484034
0.00562364
0.00496241
0.0520692
0.0045383
0.00481908
0.00468064
0.00491232
0.00564049
0.00535595
0.0052583
0.00481109
0.00492849
0.00541501
0.00627482
0.00509834
0.00482674
0.004893
0.00535014
0.00468979
0.00452222
0.00506792
0.00515834
0.00503339
0.00483099
0.00457467
0.00482071
0.00516263
0.00455689
0.00458015
0.00462423
0.00452833
0.005503
0.00474578
0.00752996
0.00516236
0.00465351
0.00547185
0.00490311
0.00452118
0.00466294
0.0048734
0.00459549
0.00517181
0.00474962
0.0355797
0.00517816
0.00552464
0.00469018
0.00485187
0.00491156
0.00454483
0.0700389
0.00495733
0.00456508
0.00515577
0.00511132
0.00473602
0.00463589
0.00455602
0.00460089
0.00622394
0.00479338
0.00456458
0.00503715
0.00487612
0.0049783
0.00474013
0.00463961
0.00613467
0.00466367
0.00501064
0.00488755
0.00460071
0.00498308
0.00540302
0.00561531
0.004588
0.00484788
0.00458801
0.0739689
0.0261079
0.00491559
0.00454774
0.00500012
0.00466875
0.00532836
0.00551839
0.00452163
0.00486621
0.00494558
0.00503706
0.00496473
0.00490395
0.00492474
0.00485633
0.00479472
0.00468773
0.00543877
0.0051315
0.00514643
0.00452883
0.0045582
0.0052408
0.0165747
0.00550723
0.00543212
0.00589832
0.0136291
0.0052861
0.00451705
0.00467017
0.0171698
0.00515654
0.00520444
0.00486314
0.00471891
0.00464847
0.00454227
0.0050798
0.00474575
0.00463736
0.00459519
0.00490743
0.00489068
0.00533129
0.00493806
0.00457893
0.00476691
0.00641856
0.00495935
0.00540912
0.00529004
0.00460685
0.00494693
0.0782232
0.00536716
0.00519789
0.00492612
0.00490267
0.0048489
0.00728129
0.00466253
0.00456128
0.00470177
0.00474107
0.00475139
0.00506846
0.00511835
0.00540189
0.00475592
0.00559298
0.00477054
0.00460276
0.00493473
0.00465931
0.00533031
0.0045318
0.00467905
0.00533919
0.00507025
0.00556955
0.00486136
0.00512535
0.00485042
0.00497092
0.00538459
0.00460345
0.00465109
0.0799626
0.00464727
0.00535364
0.00493812
0.00471003
0.0049588
0.00625878
0.00452722
0.00513259
0.00503899
0.00495468
0.00586595
0.00451512
0.00536593
0.00494473
0.0049724
0.00460446
0.00464729
0.00464472
0.00508781
0.00488965
0.00463194
0.00510648
0.00458306
0.0052608
0.00529317
0.00537343
0.00702611
0.00522549
0.00510548
0.0190737
0.0050924
0.00544022
0.00460991
0.00507156
0.00485029
0.0045958
0.00463269
0.00502407
0.00482876
0.00485171
0.00494071
0.0047561
0.00497881
0.00583246
0.00491623
0.00511689
0.00511096
0.00512222
0.00455391
0.016396
0.00508862
0.0335014
0.00455379
0.00474056
0.00470015
0.00477861
0.00487082
0.00461907
0.00467569
0.00507374
0.00486404
0.00456296
0.00479264
0.00488407
0.0050455
0.00485487
0.00474046
0.00458201
0.00548088
0.00545791
0.00516228
0.00955968
0.00488782
0.00523536
0.00473642
0.00459707
0.00484815
0.00505651
0.00482795
0.00536376
0.00485623
0.00551749
0.00458418
0.00488653
0.00454734
0.00499218
0.00467837
0.00552634
0.00498746
0.00460642
0.0047058
0.00481166
0.00482397
0.00454636
0.0213914
0.00529195
0.004947
0.00493237
0.00455648
0.00480358
0.00499241
0.0234978
0.0052611
0.00475811
0.0050273
0.00506258
0.00452677
0.00484847
0.00452035
0.00513857
0.00489792
0.00538353
0.00482022
0.00745357
0.0960014
0.00627272
0.00504403
0.00516002
0.00474464
0.00462804
0.00483299
0.0049563
0.00507704
0.0058034
0.00468917
0.00502568
0.00503681
0.00472186
0.00455165
0.00466532
0.00469497
0.0378481
0.00515557
0.00555824
0.00741254
0.00520275
0.00506678
0.00517116
0.00489255
0.00538237
0.005143
0.00558129
0.012628
0.00483771
0.00461481
0.0529004
0.00499263
0.00460991
0.00477215
0.00546581
0.00457891
0.0047953
0.00464585
0.00470362
0.00514674
0.00806804
0.00517869
0.00537251
0.00510537
0.00457318
0.00492944
0.00458951
0.004874
0.00478853
0.00488082
0.00536539
0.00545167
0.0103681
0.00521238
0.00603904
0.00544688
0.00522848
0.00456886
0.00542296
0.0047464
0.00453003
0.00475567
0.00522728
0.00458627
0.0046728
0.00454655
0.00545799
0.00497921
0.00544462
0.0356972
0.00473242
0.00466236
0.00547758
0.0046408
0.00483035
0.00477484
0.0523885
0.00461207
0.00489119
0.0048554
0.0049004
0.00474846
0.00587368
0.0049028
0.00503856
0.0047
0.00526572
0.00498024
0.00553552
0.00493767
0.00462621
0.00511861
0.00496085
0.00483786
0.0051754
0.00468911
0.00451702
0.00516523
0.00475107
0.0048058
0.00519576
0.00863806
0.0049117
0.00585462
0.00633324
0.00457327
0.00503386
0.0054024
0.0051505
0.0252427
0.00550289
0.040404
0.00500349
0.00456582
0.00452139
0.00475958
0.0049442
0.00506983
0.0303777
0.00475153
0.00456476
0.00534321
0.00476234
0.005051
0.00572529
0.00484762
0.00588546
0.00536853
0.00477196
0.00475398
0.00502884
0.00489142
0.00531297
0.00491076
0.00480809
0.00637184
0.00477259
0.00494866
0.00484245
0.00475918
0.00498764
0.00518284
0.0053015
0.00481529
0.00468713
0.00486043
0.00464374
0.00825549
0.00568498
0.0211973
0.00464858
0.00462089
0.00490701
0.00486368
0.00494291
0.00478956
0.00453849
0.00475633
0.00487608
0.00527308
0.00459535
0.00526717
0.00496897
0.00461395
0.00456065
0.0046882
0.00469302
0.00466041
0.0055023
0.00536945
0.00455989
0.00498817
0.00655807
0.00474519
0.00508244
0.00541386
0.00485804
0.00486313
0.00453446
0.00456549
0.00451968
0.00491538
0.00452388
0.0052671
0.00513884
0.00533524
0.00481712
0.00484365
0.00467174
0.0050676
0.0046406
0.00538229
0.00467557
0.00565976
0.00465087
0.00472667
0.00488082
0.00481292
0.00487848
0.00503574
0.00452655
0.00500443
0.00546851
0.00543312
0.00501969
0.00468828
0.00477549
0.0049878
0.00477877
0.00486952
0.00498962
0.00588473
0.00489502
0.00597254
0.00471857
0.00488782
0.00500004
0.00481376
0.00451793
0.0105761