/*--------------------------------*- C++ -*----------------------------------*\
| =========                 |                                                 |
| \\      /  F ield         | OpenFOAM: The Open Source CFD Toolbox           |
|  \\    /   O peration     | Version:  3.0.1                                 |
|   \\  /    A nd           | Web:      www.OpenFOAM.org                      |
|    \\/     M anipulation  |                                                 |
\*---------------------------------------------------------------------------*/
FoamFile
{
    version     2.0;
    format      ascii;
    class       surfaceScalarField;
    location    "0.0457946";
    object      phi;
}
// * * * * * * * * * * * * * * * * * * * * * * * * * * * * * * * * * * * * * //

dimensions      [0 3 -1 0 0 0 0];

internalField   nonuniform List<scalar> 
32369
(
-3.04997e-06
-3.75021e-06
6.80019e-06
-5.05037e-06
-4.41926e-06
6.41966e-06
-6.80407e-06
-5.39159e-06
7.1453e-06
-8.74928e-06
-6.53893e-06
8.48414e-06
-1.09463e-05
-7.74462e-06
9.94168e-06
-1.34157e-05
-8.92496e-06
1.13944e-05
-1.62512e-05
-1.00149e-05
1.28504e-05
-1.96053e-05
-1.0915e-05
1.42691e-05
-2.36177e-05
-1.14561e-05
1.54684e-05
-2.84629e-05
-1.13569e-05
1.62021e-05
-1.01351e-05
1.60733e-05
-3.44011e-05
-3.10719e-06
-6.4302e-07
-5.62224e-06
-1.90422e-06
-7.95544e-06
-3.05839e-06
-1.02476e-05
-4.24678e-06
-1.26111e-05
-5.38115e-06
-1.51683e-05
-6.36768e-06
-1.80669e-05
-7.11639e-06
-2.14823e-05
-7.49951e-06
-2.56143e-05
-7.32409e-06
-3.06889e-05
-6.28233e-06
-3.89074e-06
-3.69333e-05
-1.70156e-06
1.05854e-06
-3.72168e-06
1.15901e-07
-5.98812e-06
-7.9195e-07
-8.43343e-06
-1.80147e-06
-1.10702e-05
-2.74441e-06
-1.39612e-05
-3.47661e-06
-1.72102e-05
-3.86744e-06
-2.09728e-05
-3.73687e-06
-2.54511e-05
-2.84587e-06
-3.08371e-05
-8.9633e-07
2.62006e-06
-3.73478e-05
-8.58804e-07
1.91734e-06
-2.2686e-06
1.5257e-06
-4.19999e-06
1.13944e-06
-6.5555e-06
5.54035e-07
-9.25835e-06
-4.15619e-08
-1.22911e-05
-4.43888e-07
-1.57229e-05
-4.35568e-07
-1.96525e-05
1.92722e-07
-2.42243e-05
1.72589e-06
-2.96878e-05
4.56717e-06
9.21734e-06
-3.62851e-05
-5.97741e-07
2.51508e-06
-1.54306e-06
2.47102e-06
-2.97175e-06
2.56813e-06
-4.91024e-06
2.49253e-06
-7.36031e-06
2.40851e-06
-1.02998e-05
2.49557e-06
-1.37493e-05
3.01398e-06
-1.7789e-05
4.23245e-06
-2.25219e-05
6.45877e-06
-2.80765e-05
1.01218e-05
1.58175e-05
-3.46767e-05
-5.62647e-07
3.07773e-06
-1.38888e-06
3.29726e-06
-2.58432e-06
3.76357e-06
-4.18276e-06
4.09097e-06
-6.29229e-06
4.51804e-06
-8.96524e-06
5.16851e-06
-1.22282e-05
6.27694e-06
-1.61177e-05
8.12192e-06
-2.07168e-05
1.10579e-05
-2.61254e-05
1.55303e-05
2.22273e-05
-3.25352e-05
-4.83731e-07
3.56146e-06
-1.31903e-06
4.13255e-06
-2.3343e-06
4.77884e-06
-3.73614e-06
5.4928e-06
-5.59563e-06
6.37753e-06
-7.99397e-06
7.56685e-06
-1.09825e-05
9.26549e-06
-1.46249e-05
1.17643e-05
-1.89941e-05
1.54272e-05
-2.41826e-05
2.07189e-05
2.83112e-05
-3.02665e-05
-5.26384e-07
4.08785e-06
-1.2298e-06
4.83597e-06
-2.19216e-06
5.7412e-06
-3.46345e-06
6.76409e-06
-5.13345e-06
8.04753e-06
-7.29176e-06
9.72516e-06
-1.0025e-05
1.19988e-05
-1.34046e-05
1.51438e-05
-1.75117e-05
1.95343e-05
-2.24348e-05
2.5642e-05
3.41945e-05
-2.83181e-05
-4.97687e-07
4.58553e-06
-1.18873e-06
5.52701e-06
-2.08163e-06
6.63411e-06
-3.2557e-06
7.93816e-06
-4.7861e-06
9.57793e-06
-6.76189e-06
1.17009e-05
-9.27187e-06
1.45087e-05
-1.24047e-05
1.82767e-05
-1.62476e-05
2.33772e-05
-2.09265e-05
3.03209e-05
3.98541e-05
-2.65862e-05
-4.29926e-07
5.01546e-06
-1.06239e-06
6.15947e-06
-1.89286e-06
7.46458e-06
-2.98247e-06
9.02776e-06
-4.40037e-06
1.09958e-05
-6.22946e-06
1.353e-05
-8.56054e-06
1.68398e-05
-1.14852e-05
2.12013e-05
-1.51123e-05
2.70044e-05
-1.95608e-05
3.47693e-05
4.5227e-05
-2.49337e-05
-3.70323e-07
5.38578e-06
-9.46927e-07
6.73607e-06
-1.71293e-06
8.23058e-06
-2.72111e-06
1.00359e-05
-4.03749e-06
1.23122e-05
-5.73901e-06
1.52315e-05
-7.91097e-06
1.90118e-05
-1.06499e-05
2.39403e-05
-1.40643e-05
3.04187e-05
-1.82826e-05
3.89876e-05
5.03468e-05
-2.34023e-05
-3.70781e-07
5.75656e-06
-9.18421e-07
7.28371e-06
-1.63189e-06
8.94406e-06
-2.56711e-06
1.09712e-05
-3.7846e-06
1.35297e-05
-5.36021e-06
1.68072e-05
-7.37792e-06
2.10295e-05
-9.9313e-06
2.64937e-05
-1.31322e-05
3.36197e-05
-1.71047e-05
4.29601e-05
5.52358e-05
-2.19938e-05
-3.45418e-07
6.10198e-06
-8.46338e-07
7.78463e-06
-1.50067e-06
9.59838e-06
-2.35835e-06
1.18288e-05
-3.47943e-06
1.46508e-05
-4.93419e-06
1.82619e-05
-6.8067e-06
2.2902e-05
-9.19252e-06
2.88795e-05
-1.21891e-05
3.66163e-05
-1.59332e-05
4.67041e-05
5.98994e-05
-2.05967e-05
-2.51521e-07
6.3535e-06
-6.70384e-07
8.2035e-06
-1.24323e-06
1.01712e-05
-2.01148e-06
1.25971e-05
-3.0294e-06
1.56687e-05
-4.36163e-06
1.95941e-05
-6.08449e-06
2.46249e-05
-8.2907e-06
3.10857e-05
-1.10796e-05
3.94052e-05
-1.45619e-05
5.01864e-05
6.42252e-05
-1.88877e-05
-2.32255e-07
6.58576e-06
-5.92839e-07
8.56408e-06
-1.08278e-06
1.06612e-05
-1.75079e-06
1.32651e-05
-2.64358e-06
1.65615e-05
-3.82477e-06
2.07753e-05
-5.37205e-06
2.61721e-05
-7.36234e-06
3.3076e-05
-9.88511e-06
4.1928e-05
-1.30581e-05
5.33595e-05
6.81296e-05
-1.69626e-05
-1.86538e-07
6.77229e-06
-4.67875e-07
8.84542e-06
-8.58699e-07
1.1052e-05
-1.39982e-06
1.38062e-05
-2.14619e-06
1.73079e-05
-3.15404e-06
2.17832e-05
-4.49102e-06
2.75091e-05
-6.23015e-06
3.48151e-05
-8.44746e-06
4.41453e-05
-1.11987e-05
5.61107e-05
7.15226e-05
-1.45917e-05
-7.17704e-08
6.84407e-06
-2.21636e-07
8.99528e-06
-4.72589e-07
1.13029e-05
-8.59362e-07
1.4193e-05
-1.42232e-06
1.78708e-05
-2.22179e-06
2.25826e-05
-3.31373e-06
2.86011e-05
-4.75202e-06
3.62534e-05
-6.57618e-06
4.59694e-05
-8.8319e-06
5.83664e-05
7.42887e-05
-1.1598e-05
1.73149e-08
6.82675e-06
3.34996e-09
9.00925e-06
-8.2256e-08
1.13886e-05
-2.73051e-07
1.43838e-05
-6.10063e-07
1.82078e-05
-1.14289e-06
2.31155e-05
-1.91518e-06
2.93734e-05
-2.95985e-06
3.72981e-05
-4.28746e-06
4.7297e-05
-5.90377e-06
5.99827e-05
7.61686e-05
-7.78363e-06
1.2781e-07
6.69894e-06
2.87721e-07
8.84934e-06
4.08496e-07
1.12678e-05
4.60094e-07
1.43322e-05
4.08358e-07
1.82596e-05
2.14038e-07
2.33098e-05
-1.50563e-07
2.9738e-05
-6.8427e-07
3.78318e-05
-1.34559e-06
4.79583e-05
-2.0809e-06
6.07181e-05
7.69694e-05
-2.88169e-06
2.7191e-07
6.42703e-06
6.48002e-07
8.47324e-06
1.01404e-06
1.09017e-05
1.36021e-06
1.3986e-05
1.65968e-06
1.79601e-05
1.89138e-06
2.30781e-05
2.05652e-06
2.95728e-05
2.20484e-06
3.76834e-05
2.42201e-06
4.77412e-05
2.81427e-06
6.03258e-05
7.62787e-05
3.50493e-06
4.47295e-07
5.97974e-06
1.05958e-06
7.86095e-06
1.71047e-06
1.02509e-05
2.41075e-06
1.32858e-05
3.14143e-06
1.72294e-05
3.91073e-06
2.23088e-05
4.76585e-06
2.87177e-05
5.80101e-06
3.66483e-05
7.14645e-06
4.63957e-05
8.98686e-06
5.84854e-05
7.37602e-05
1.15054e-05
5.55123e-07
5.42461e-06
1.39562e-06
7.02046e-06
2.39891e-06
9.24757e-06
3.51911e-06
1.21655e-05
4.77107e-06
1.59775e-05
6.21196e-06
2.08679e-05
7.94318e-06
2.69865e-05
1.01003e-05
3.44911e-05
1.28714e-05
4.36247e-05
1.64879e-05
5.48689e-05
6.90157e-05
2.12324e-05
5.50128e-07
4.87449e-06
1.79202e-06
5.77857e-06
3.05459e-06
7.985e-06
4.55903e-06
1.06611e-05
6.38171e-06
1.41548e-05
8.62341e-06
1.86262e-05
1.14106e-05
2.41993e-05
1.49223e-05
3.09794e-05
1.93656e-05
3.91815e-05
2.50062e-05
4.92282e-05
6.18503e-05
3.21717e-05
-7.74162e-07
5.64865e-06
4.51726e-07
4.55268e-06
2.22487e-06
6.21186e-06
4.4196e-06
8.46636e-06
7.11609e-06
1.14583e-05
1.04471e-05
1.52952e-05
1.45719e-05
2.00745e-05
1.9679e-05
2.58723e-05
2.60069e-05
3.28535e-05
3.38662e-05
4.1369e-05
5.20399e-05
4.36766e-05
3.42493e-06
3.37525e-06
5.01773e-06
4.82686e-06
5.02679e-06
7.13624e-06
3.98573e-06
9.5252e-06
2.00517e-06
1.19222e-05
-9.38186e-07
1.43377e-05
-4.75473e-06
1.66669e-05
-9.30183e-06
1.88162e-05
-1.45739e-05
2.07406e-05
-2.07303e-05
2.23585e-05
2.31545e-05
-2.78115e-05
4.04625e-06
-6.70992e-07
6.77608e-06
2.09703e-06
8.70774e-06
5.20458e-06
9.67972e-06
8.55321e-06
9.50604e-06
1.20959e-05
7.98485e-06
1.58589e-05
4.99008e-06
1.96617e-05
5.1413e-07
2.32922e-05
-5.24163e-06
2.64963e-05
-1.20318e-05
2.91487e-05
3.11841e-05
-2.00615e-05
1.66966e-06
-2.34065e-06
4.94329e-06
-1.1766e-06
8.33226e-06
1.81562e-06
1.08896e-05
5.99588e-06
1.24909e-05
1.04946e-05
1.28241e-05
1.55258e-05
1.1599e-05
2.08867e-05
8.59356e-06
2.62976e-05
3.71804e-06
3.13718e-05
-2.83964e-06
3.57064e-05
3.90516e-05
-1.07071e-05
6.98741e-07
-3.03939e-06
2.69121e-06
-3.16908e-06
6.22503e-06
-1.71819e-06
1.02851e-05
1.93582e-06
1.35953e-05
7.18432e-06
1.58185e-05
1.33026e-05
1.66052e-05
2.01001e-05
1.55596e-05
2.73432e-05
1.23771e-05
3.45543e-05
6.96984e-06
4.11137e-05
4.65061e-05
-4.84654e-07
1.05444e-06
-4.09383e-06
2.27068e-06
-4.38531e-06
4.66269e-06
-4.11021e-06
8.68625e-06
-2.08774e-06
1.33284e-05
2.54212e-06
1.73639e-05
9.26711e-06
2.01752e-05
1.72888e-05
2.12819e-05
2.62365e-05
2.021e-05
3.56262e-05
1.66336e-05
4.46902e-05
5.25841e-05
1.05556e-05
1.26418e-06
-5.35801e-06
2.68988e-06
-5.81101e-06
4.58251e-06
-6.00284e-06
7.648e-06
-5.15323e-06
1.23646e-05
-2.17442e-06
1.76651e-05
3.96661e-06
2.23273e-05
1.26265e-05
2.55736e-05
2.29902e-05
2.6772e-05
3.44278e-05
2.54227e-05
4.60395e-05
5.67747e-05
2.12321e-05
1.23598e-06
-6.59399e-06
2.76968e-06
-7.34472e-06
4.74832e-06
-7.98148e-06
7.38376e-06
-7.78867e-06
1.14116e-05
-6.20227e-06
1.71012e-05
-1.72299e-06
2.30939e-05
6.63377e-06
2.82499e-05
1.78342e-05
3.1664e-05
3.10137e-05
3.26599e-05
4.50435e-05
5.8497e-05
3.09377e-05
1.12056e-06
-7.71455e-06
2.59573e-06
-8.81989e-06
4.51828e-06
-9.90402e-06
7.04549e-06
-1.03159e-05
1.05222e-05
-9.67895e-06
1.57601e-05
-6.96085e-06
2.25443e-05
-1.50429e-07
2.91344e-05
1.12441e-05
3.44981e-05
2.565e-05
3.77684e-05
4.17732e-05
5.7969e-05
3.82964e-05
9.45464e-07
-8.66001e-06
2.23169e-06
-1.01061e-05
3.90941e-06
-1.15817e-05
6.16297e-06
-1.25694e-05
9.28296e-06
-1.27989e-05
1.37321e-05
-1.141e-05
2.03342e-05
-6.75247e-06
2.79806e-05
3.59766e-06
3.49226e-05
1.8708e-05
4.03439e-05
3.6352e-05
5.43589e-05
4.3954e-05
7.23261e-07
-9.38327e-06
1.72437e-06
-1.11072e-05
3.02246e-06
-1.28798e-05
4.80612e-06
-1.43531e-05
7.35063e-06
-1.53435e-05
1.10895e-05
-1.51489e-05
1.67516e-05
-1.24146e-05
2.46352e-05
-4.28591e-06
3.25572e-05
1.0786e-05
3.94249e-05
2.94843e-05
4.91798e-05
4.4604e-05
3.75162e-07
-9.75844e-06
1.05761e-06
-1.17897e-05
1.84726e-06
-1.36695e-05
3.00801e-06
-1.55138e-05
4.75319e-06
-1.70886e-05
7.45898e-06
-1.78547e-05
1.17759e-05
-1.67315e-05
1.87721e-05
-1.12821e-05
2.73316e-05
2.22647e-06
3.52386e-05
2.15774e-05
4.17253e-05
4.26931e-05
1.17625e-07
-9.87606e-06
3.12171e-07
-1.19842e-05
5.66984e-07
-1.39243e-05
1.01328e-06
-1.59601e-05
1.79114e-06
-1.78665e-05
3.19797e-06
-1.92615e-05
5.85344e-06
-1.9387e-05
1.09608e-05
-1.63895e-05
1.90706e-05
-5.88328e-06
2.744e-05
1.32079e-05
3.22026e-05
3.69627e-05
-2.15835e-07
-9.66023e-06
-5.10219e-07
-1.16898e-05
-8.53336e-07
-1.35812e-05
-1.21044e-06
-1.5603e-05
-1.48931e-06
-1.75876e-05
-1.51607e-06
-1.92348e-05
-8.91605e-07
-2.00115e-05
1.37177e-06
-1.86529e-05
7.67094e-06
-1.21824e-05
1.64996e-05
4.37927e-06
2.34756e-05
2.52266e-05
-6.47415e-07
-9.01281e-06
-1.48239e-06
-1.08549e-05
-2.50648e-06
-1.25571e-05
-3.72176e-06
-1.43878e-05
-5.08789e-06
-1.62215e-05
-6.49666e-06
-1.7826e-05
-7.69693e-06
-1.88112e-05
-7.94575e-06
-1.8404e-05
-5.00312e-06
-1.51251e-05
3.40758e-06
-4.03143e-06
1.46204e-05
1.22627e-05
-1.04194e-06
-7.97087e-06
-2.43465e-06
-9.46217e-06
-4.18327e-06
-1.08085e-05
-6.3141e-06
-1.22569e-05
-8.81743e-06
-1.37182e-05
-1.16052e-05
-1.50383e-05
-1.44218e-05
-1.59946e-05
-1.66708e-05
-1.61551e-05
-1.72675e-05
-1.45284e-05
-1.22043e-05
-9.09461e-06
3.46382e-06
-1.0477e-06
-1.46542e-06
-6.50545e-06
-3.42847e-06
-7.49912e-06
-5.90992e-06
-8.32701e-06
-8.94873e-06
-9.21812e-06
-1.25445e-05
-1.01224e-05
-1.66049e-05
-1.09779e-05
-2.08602e-05
-1.17393e-05
-2.46951e-05
-1.23201e-05
-2.68535e-05
-1.237e-05
-2.49908e-05
-1.09573e-05
-6.09757e-06
-1.54294e-05
-1.92052e-06
-4.58493e-06
-4.448e-06
-4.97164e-06
-7.61725e-06
-5.15776e-06
-1.14607e-05
-5.37465e-06
-1.59555e-05
-5.62762e-06
-2.1002e-05
-5.93141e-06
-2.63438e-05
-6.39746e-06
-3.14287e-05
-7.23523e-06
-3.52125e-05
-8.58616e-06
-3.595e-05
-1.02198e-05
-1.12862e-05
-3.07614e-05
-2.35469e-06
-2.23024e-06
-5.36087e-06
-1.96545e-06
-9.02274e-06
-1.4959e-06
-1.33265e-05
-1.0709e-06
-1.8199e-05
-7.55109e-07
-2.34997e-05
-6.30693e-07
-2.89522e-05
-9.44958e-07
-3.39859e-05
-2.20158e-06
-3.76058e-05
-4.96624e-06
-3.88035e-05
-9.02211e-06
-1.3644e-05
-3.64456e-05
-2.80897e-06
5.78722e-07
-5.69354e-06
9.19124e-07
-8.89723e-06
1.70779e-06
-1.25257e-05
2.55757e-06
-1.65807e-05
3.29992e-06
-2.09493e-05
3.73787e-06
-2.53019e-05
3.40761e-06
-2.86148e-05
1.11132e-06
-2.95276e-05
-4.05338e-06
-2.82034e-05
-1.03463e-05
-1.69023e-05
-2.49452e-05
-1.80413e-06
2.38285e-06
-3.56151e-06
2.67651e-06
-5.50553e-06
3.65181e-06
-7.65304e-06
4.70507e-06
-9.93547e-06
5.58236e-06
-1.21429e-05
5.94533e-06
-1.39884e-05
5.25305e-06
-1.30206e-05
1.43497e-07
-8.85397e-06
-8.21997e-06
-3.16137e-06
-1.60389e-05
-2.2546e-05
2.48235e-06
-7.73174e-07
3.15602e-06
-1.47114e-06
3.37447e-06
-2.19443e-06
4.3751e-06
-2.70841e-06
5.21905e-06
-2.70121e-06
5.57516e-06
-1.38181e-06
4.62593e-06
3.20371e-06
6.6754e-07
1.12268e-05
-7.87956e-06
1.83099e-05
-1.53031e-05
2.55764e-05
-2.33053e-05
-3.07609e-05
3.37913e-05
-2.85213e-07
3.44123e-06
5.6677e-08
3.03258e-06
1.03765e-06
3.39412e-06
3.22557e-06
3.03113e-06
7.47472e-06
1.32601e-06
1.4574e-05
-2.47337e-06
2.35741e-05
-8.33251e-06
3.09904e-05
-1.52959e-05
3.84248e-05
-2.27375e-05
4.62292e-05
-3.11097e-05
-4.08194e-05
5.62877e-05
1.36926e-06
2.07198e-06
3.75863e-06
6.43208e-07
7.95358e-06
-8.0083e-07
1.39445e-05
-2.9598e-06
2.13282e-05
-6.05767e-06
2.90125e-05
-1.01577e-05
3.59708e-05
-1.52907e-05
4.21505e-05
-2.14756e-05
4.809e-05
-2.8677e-05
5.4163e-05
-3.71828e-05
-4.75664e-05
6.091e-05
7.72062e-06
1.29165e-05
1.83275e-05
2.38341e-05
2.92347e-05
3.43722e-05
3.91559e-05
4.35526e-05
4.77292e-05
5.19154e-05
5.63889e-05
-1.32249e-05
9.83605e-06
3.3889e-06
-2.39499e-05
8.02514e-06
2.69981e-06
-3.33901e-05
7.49402e-06
1.94621e-06
-4.1928e-05
7.49694e-06
1.04097e-06
-5.02179e-05
8.19861e-06
9.12379e-08
-5.8612e-05
9.37255e-06
-9.78451e-07
-6.77566e-05
1.14742e-05
-2.32965e-06
-7.8123e-05
1.44961e-05
-4.12962e-06
-9.01328e-05
1.8598e-05
-6.58826e-06
-0.000104235
2.40855e-05
-9.98339e-06
3.14249e-05
-1.46784e-05
-0.000120981
-4.33194e-06
1.4168e-05
-9.54099e-06
1.32342e-05
-1.71952e-05
1.51483e-05
-2.54413e-05
1.5743e-05
-3.42296e-05
1.69869e-05
-4.36749e-05
1.88178e-05
-5.39777e-05
2.17771e-05
-6.55446e-05
2.6063e-05
-7.88675e-05
3.19209e-05
-9.44839e-05
3.97018e-05
4.99216e-05
-0.000112981
-1.41575e-06
1.55837e-05
-4.2387e-06
1.60571e-05
-9.37227e-06
2.02818e-05
-1.58368e-05
2.22075e-05
-2.37378e-05
2.4888e-05
-3.27815e-05
2.78615e-05
-4.30138e-05
3.20093e-05
-5.45964e-05
3.76456e-05
-6.79008e-05
4.52254e-05
-8.34324e-05
5.52334e-05
6.83351e-05
-0.000101846
-8.99792e-07
1.64835e-05
-3.20358e-06
1.83609e-05
-6.68501e-06
2.37632e-05
-1.1225e-05
2.67475e-05
-1.75663e-05
3.12293e-05
-2.52946e-05
3.55899e-05
-3.44554e-05
4.117e-05
-4.50783e-05
4.82685e-05
-5.73843e-05
5.75314e-05
-7.17271e-05
6.95763e-05
8.51551e-05
-8.85472e-05
-8.3342e-07
1.73169e-05
-2.99871e-06
2.05262e-05
-5.59803e-06
2.63626e-05
-9.13949e-06
3.0289e-05
-1.39437e-05
3.60334e-05
-2.01018e-05
4.1748e-05
-2.77654e-05
4.88337e-05
-3.69489e-05
5.7452e-05
-4.77902e-05
6.83726e-05
-6.05397e-05
8.23258e-05
0.000100237
-7.56212e-05
-5.75889e-07
1.78928e-05
-2.53145e-06
2.24818e-05
-4.4718e-06
2.83029e-05
-7.36245e-06
3.31796e-05
-1.11409e-05
3.98119e-05
-1.60583e-05
4.66654e-05
-2.23055e-05
5.50808e-05
-2.99815e-05
6.5128e-05
-3.9236e-05
7.76271e-05
-5.0255e-05
9.33448e-05
0.000113323
-6.33415e-05
-4.28956e-07
1.83218e-05
-2.00308e-06
2.40559e-05
-3.61526e-06
2.99151e-05
-5.96538e-06
3.55297e-05
-8.92878e-06
4.27753e-05
-1.28526e-05
5.05892e-05
-1.78855e-05
6.01137e-05
-2.41749e-05
7.14175e-05
-3.18952e-05
8.53473e-05
-4.12309e-05
0.000102681
0.000124497
-5.24047e-05
-5.05589e-07
1.88274e-05
-1.73134e-06
2.52816e-05
-3.04392e-06
3.12277e-05
-4.97751e-06
3.74633e-05
-7.31658e-06
4.51144e-05
-1.04257e-05
5.36983e-05
-1.44122e-05
6.41003e-05
-1.9454e-05
7.64592e-05
-2.57233e-05
9.16167e-05
-3.33843e-05
0.000110342
0.00013378
-4.26678e-05
-4.21471e-07
1.92489e-05
-1.44449e-06
2.63047e-05
-2.48691e-06
3.22701e-05
-4.01732e-06
3.89937e-05
-5.85169e-06
4.69488e-05
-8.27958e-06
5.61262e-05
-1.13861e-05
6.72067e-05
-1.53466e-05
8.04197e-05
-2.03188e-05
9.65889e-05
-2.64772e-05
0.0001165
0.000141313
-3.40095e-05
-9.94824e-08
1.93483e-05
-7.73322e-07
2.69785e-05
-1.52876e-06
3.30255e-05
-2.68884e-06
4.01538e-05
-4.06811e-06
4.8328e-05
-5.92976e-06
5.79878e-05
-8.30481e-06
6.95818e-05
-1.1361e-05
8.34759e-05
-1.5241e-05
0.000100469
-2.01074e-05
0.000121366
0.000147383
-2.6178e-05
1.52011e-07
1.91963e-05
-2.15684e-07
2.73462e-05
-6.62848e-07
3.34727e-05
-1.44883e-06
4.09398e-05
-2.38966e-06
4.92689e-05
-3.70139e-06
5.92996e-05
-5.39453e-06
7.12749e-05
-7.60299e-06
8.56843e-05
-1.04584e-05
0.000103324
-1.40885e-05
0.000124996
0.000151967
-1.86725e-05
1.52941e-07
1.90434e-05
-2.3276e-08
2.75224e-05
-1.99779e-07
3.36492e-05
-6.3513e-07
4.13751e-05
-1.11288e-06
4.97466e-05
-1.86196e-06
6.00486e-05
-2.84341e-06
7.22564e-05
-4.18296e-06
8.70239e-05
-5.97318e-06
0.000105115
-8.3249e-06
0.000127348
0.000154999
-1.13568e-05
2.75064e-07
1.87683e-05
3.69128e-07
2.74284e-05
4.6519e-07
3.35531e-05
3.95721e-07
4.14446e-05
3.60503e-07
4.97818e-05
1.63585e-07
6.02456e-05
-1.17722e-07
7.25377e-05
-6.13595e-07
8.75197e-05
-1.36549e-06
0.000105867
-2.46282e-06
0.000128445
0.00015658
-4.04327e-06
5.90874e-07
1.81774e-05
1.05938e-06
2.69599e-05
1.5001e-06
3.31124e-05
1.84102e-06
4.11037e-05
2.25691e-06
4.9366e-05
2.61941e-06
5.98831e-05
3.01673e-06
7.21404e-05
3.35233e-06
8.71841e-05
3.61486e-06
0.000105604
3.7394e-06
0.000128321
0.000156655
3.66429e-06
6.45979e-07
1.75315e-05
1.37373e-06
2.62321e-05
2.13673e-06
3.23494e-05
2.93017e-06
4.03103e-05
3.85383e-06
4.84423e-05
4.87029e-06
5.88666e-05
6.04942e-06
7.09612e-05
7.31373e-06
8.59198e-05
8.75725e-06
0.00010416
1.02701e-05
0.000126808
0.000155047
1.18783e-05
7.70346e-07
1.67611e-05
1.8069e-06
2.51956e-05
2.93348e-06
3.12228e-05
4.22401e-06
3.90197e-05
5.69118e-06
4.69751e-05
7.39628e-06
5.71615e-05
9.43725e-06
6.89203e-05
1.17482e-05
8.36089e-05
1.44212e-05
0.000101487
1.74487e-05
0.000123781
0.000151626
2.08695e-05
1.06348e-06
1.56976e-05
2.5153e-06
2.37437e-05
4.09102e-06
2.96471e-05
5.93763e-06
3.71731e-05
8.05707e-06
4.48557e-05
1.05292e-05
5.46894e-05
1.34477e-05
6.60018e-05
1.68773e-05
8.01793e-05
2.08861e-05
9.74787e-05
2.55231e-05
0.000119143
0.000146241
3.09084e-05
1.23629e-06
1.44614e-05
3.04878e-06
2.19312e-05
5.09341e-06
2.76025e-05
7.54855e-06
3.4718e-05
1.03867e-05
4.20175e-05
1.37925e-05
5.12836e-05
1.77836e-05
6.20106e-05
2.25091e-05
7.54538e-05
2.80617e-05
9.19261e-05
3.45894e-05
0.000112616
0.000138593
4.22367e-05
1.44166e-06
1.30197e-05
3.64476e-06
1.97281e-05
6.21952e-06
2.50277e-05
9.38258e-06
3.15549e-05
1.30438e-05
3.83563e-05
1.74717e-05
4.68557e-05
2.26835e-05
5.67988e-05
2.88844e-05
6.92529e-05
3.61928e-05
8.46178e-05
4.48361e-05
0.000103972
0.000128347
5.50826e-05
1.68475e-06
1.13349e-05
4.29434e-06
1.71185e-05
7.44509e-06
2.1877e-05
1.13815e-05
2.76186e-05
1.60112e-05
3.37265e-05
2.1611e-05
4.12559e-05
2.82055e-05
5.02043e-05
3.60432e-05
6.14152e-05
4.53099e-05
7.53512e-05
5.63344e-05
9.29479e-05
0.000115184
6.9497e-05
1.95522e-06
9.37973e-06
4.95386e-06
1.41199e-05
8.73262e-06
1.80982e-05
1.34881e-05
2.28631e-05
1.91883e-05
2.80263e-05
2.60601e-05
3.43842e-05
3.41636e-05
4.21007e-05
4.37835e-05
5.17953e-05
5.51871e-05
6.39475e-05
6.8815e-05
7.932e-05
9.88119e-05
8.51874e-05
2.14615e-06
7.23358e-06
5.47636e-06
1.07897e-05
9.88273e-06
1.36918e-05
1.55157e-05
1.72301e-05
2.23123e-05
2.12298e-05
3.04527e-05
2.62437e-05
4.00743e-05
3.24791e-05
5.1493e-05
4.03766e-05
6.50901e-05
5.03504e-05
8.14144e-05
6.29957e-05
7.90306e-05
0.000101196
2.24926e-06
4.98433e-06
6.00255e-06
7.0364e-06
1.09801e-05
8.71426e-06
1.72861e-05
1.09241e-05
2.48882e-05
1.36276e-05
3.40025e-05
1.71295e-05
4.48642e-05
2.16174e-05
5.78559e-05
2.73849e-05
7.34443e-05
3.4762e-05
9.22326e-05
4.42074e-05
5.63221e-05
0.000114941
1.28799e-06
3.69633e-06
6.04697e-06
2.27742e-06
1.1855e-05
2.90622e-06
1.85889e-05
4.19017e-06
2.6485e-05
5.73154e-06
3.59236e-05
7.69097e-06
4.72836e-05
1.02574e-05
6.10438e-05
1.36247e-05
7.77684e-05
1.80375e-05
9.81366e-05
2.38393e-05
3.14363e-05
0.000123022
-1.17861e-05
1.5175e-05
-2.07273e-05
1.1641e-05
-2.98951e-05
1.1114e-05
-3.86559e-05
9.8018e-06
-4.74899e-05
8.9252e-06
-5.67056e-05
8.23729e-06
-6.67233e-05
7.68801e-06
-7.79509e-05
7.09799e-06
-9.07943e-05
6.25519e-06
-0.000105646
4.86809e-06
2.58185e-06
-0.000122906
-2.1722e-06
1.73472e-05
-5.26215e-06
1.47309e-05
-1.26433e-05
1.84952e-05
-2.13188e-05
1.84772e-05
-3.10881e-05
1.86945e-05
-4.16466e-05
1.87958e-05
-5.32545e-05
1.92959e-05
-6.61868e-05
2.00303e-05
-8.08763e-05
2.09447e-05
-9.77956e-05
2.17874e-05
2.22488e-05
-0.000117463
-3.3675e-07
1.7684e-05
-2.28489e-06
1.6679e-05
-6.93834e-06
2.31487e-05
-1.32204e-05
2.47593e-05
-2.16457e-05
2.71198e-05
-3.16805e-05
2.88306e-05
-4.30627e-05
3.06782e-05
-5.59937e-05
3.29613e-05
-7.07098e-05
3.56607e-05
-8.7629e-05
3.87066e-05
4.17861e-05
-0.000107166
-2.87767e-07
1.79717e-05
-2.56297e-06
1.89543e-05
-5.66638e-06
2.62521e-05
-1.01373e-05
2.92302e-05
-1.66508e-05
3.36332e-05
-2.49759e-05
3.71557e-05
-3.50909e-05
4.07932e-05
-4.69371e-05
4.48076e-05
-6.06129e-05
4.93365e-05
-7.6423e-05
5.45166e-05
6.01861e-05
-9.48229e-05
-4.59908e-07
1.84316e-05
-2.98941e-06
2.14838e-05
-5.47781e-06
2.87405e-05
-8.98711e-06
3.27395e-05
-1.39723e-05
3.86184e-05
-2.05286e-05
4.37119e-05
-2.89142e-05
4.91788e-05
-3.89931e-05
5.48865e-05
-5.09673e-05
6.13107e-05
-6.49593e-05
6.85087e-05
7.65124e-05
-8.12856e-05
-4.91877e-07
1.89235e-05
-2.83293e-06
2.38248e-05
-4.99079e-06
3.08984e-05
-7.96243e-06
3.57112e-05
-1.18882e-05
4.25442e-05
-1.70097e-05
4.88334e-05
-2.3655e-05
5.58241e-05
-3.19589e-05
6.31904e-05
-4.2001e-05
7.13528e-05
-5.39033e-05
8.0411e-05
9.04641e-05
-6.7855e-05
-4.13866e-07
1.93374e-05
-2.37877e-06
2.57897e-05
-4.18693e-06
3.27065e-05
-6.69579e-06
3.822e-05
-9.86172e-06
4.57101e-05
-1.38862e-05
5.28579e-05
-1.91299e-05
6.10677e-05
-2.57148e-05
6.97754e-05
-3.38198e-05
7.94578e-05
-4.35367e-05
9.0128e-05
0.000101932
-5.50046e-05
-4.46799e-07
1.97842e-05
-2.04666e-06
2.73896e-05
-3.52098e-06
3.41808e-05
-5.54837e-06
4.02474e-05
-8.04473e-06
4.82065e-05
-1.11226e-05
5.59358e-05
-1.51533e-05
6.50985e-05
-2.01503e-05
7.47723e-05
-2.63779e-05
8.56854e-05
-3.38198e-05
9.75698e-05
0.000110579
-4.24664e-05
-3.67805e-07
2.0152e-05
-1.61658e-06
2.86384e-05
-2.73933e-06
3.53036e-05
-4.29012e-06
4.17982e-05
-6.1519e-06
5.00683e-05
-8.39264e-06
5.81765e-05
-1.13254e-05
6.80312e-05
-1.49385e-05
7.83854e-05
-1.93716e-05
9.01185e-05
-2.46187e-05
0.000102817
0.000116394
-3.0434e-05
-1.80386e-07
2.03324e-05
-1.14487e-06
2.96028e-05
-1.79202e-06
3.59507e-05
-3.00981e-06
4.3016e-05
-4.1336e-06
5.11921e-05
-5.64098e-06
5.96839e-05
-7.51325e-06
6.99035e-05
-9.8115e-06
8.06836e-05
-1.26303e-05
9.29373e-05
-1.59014e-05
0.000106088
0.000119902
-1.94098e-05
9.74019e-08
2.0235e-05
-3.42204e-07
3.00424e-05
-5.96811e-07
3.62053e-05
-1.33632e-06
4.37555e-05
-1.79954e-06
5.16553e-05
-2.65402e-06
6.05384e-05
-3.52627e-06
7.07758e-05
-4.66309e-06
8.18205e-05
-5.99501e-06
9.42692e-05
-7.46483e-06
0.000107558
0.000121378
-8.94022e-06
2.1685e-07
2.00181e-05
1.82661e-07
3.00766e-05
2.75439e-07
3.61126e-05
1.61538e-07
4.38694e-05
3.0142e-07
5.15154e-05
1.74167e-07
6.06656e-05
3.14345e-07
7.06356e-05
3.3062e-07
8.18042e-05
4.78305e-07
9.41216e-05
7.34783e-07
0.000107301
0.000120748
1.36505e-06
4.30798e-07
1.95873e-05
7.88548e-07
2.97189e-05
1.2961e-06
3.5605e-05
1.72739e-06
4.34381e-05
2.44457e-06
5.07982e-05
3.15968e-06
5.99505e-05
4.25664e-06
6.95386e-05
5.42645e-06
8.06344e-05
7.00601e-06
9.2542e-05
8.94933e-06
0.000105358
0.000118049
1.1648e-05
7.62965e-07
1.88244e-05
1.60266e-06
2.88792e-05
2.54079e-06
3.46669e-05
3.56217e-06
4.24167e-05
4.90218e-06
4.94582e-05
6.43412e-06
5.84186e-05
8.43314e-06
6.75396e-05
1.07755e-05
7.8292e-05
1.37133e-05
8.96042e-05
1.7269e-05
0.000101802
0.000113707
2.16111e-05
9.53033e-07
1.78713e-05
2.19111e-06
2.76411e-05
3.5901e-06
3.32679e-05
5.24358e-06
4.07633e-05
7.23077e-06
4.7471e-05
9.64948e-06
5.59999e-05
1.26135e-05
6.45756e-05
1.61962e-05
7.47093e-05
2.05433e-05
8.52572e-05
2.57492e-05
9.65963e-05
0.000107574
3.18823e-05
1.17792e-06
1.66934e-05
2.84981e-06
2.59692e-05
4.73285e-06
3.13849e-05
7.03257e-06
3.84635e-05
9.72574e-06
4.47779e-05
1.30598e-05
5.26658e-05
1.70468e-05
6.05886e-05
2.18987e-05
6.98575e-05
2.76894e-05
7.94664e-05
3.45848e-05
8.97009e-05
9.95016e-05
4.26568e-05
1.46159e-06
1.52318e-05
3.58353e-06
2.38473e-05
6.00126e-06
2.89671e-05
8.98974e-06
3.5475e-05
1.24598e-05
4.13078e-05
1.67342e-05
4.83914e-05
2.18108e-05
5.5512e-05
2.79765e-05
6.36917e-05
3.52611e-05
7.21819e-05
4.38711e-05
8.10909e-05
8.95386e-05
5.38341e-05
1.72745e-06
1.35044e-05
4.29494e-06
2.12798e-05
7.27954e-06
2.59825e-05
1.09906e-05
3.1764e-05
1.53015e-05
3.69969e-05
2.06049e-05
4.3088e-05
2.68679e-05
4.9249e-05
3.43999e-05
5.61598e-05
4.32433e-05
6.33384e-05
5.36111e-05
7.07231e-05
7.75511e-05
6.55986e-05
1.99354e-06
1.15108e-05
4.98082e-06
1.82925e-05
8.56174e-06
2.24016e-05
1.30273e-05
2.72984e-05
1.8273e-05
3.17513e-05
2.46736e-05
3.66874e-05
3.22147e-05
4.17079e-05
4.11708e-05
4.72037e-05
5.16099e-05
5.28993e-05
6.37434e-05
5.85897e-05
6.37229e-05
7.75716e-05
2.27707e-06
9.23376e-06
5.66807e-06
1.49015e-05
9.84024e-06
1.82294e-05
1.51001e-05
2.20386e-05
2.13523e-05
2.54991e-05
2.88961e-05
2.91436e-05
3.77528e-05
3.28511e-05
4.81334e-05
3.68231e-05
6.01836e-05
4.08491e-05
7.41235e-05
4.46497e-05
4.76097e-05
9.02367e-05
2.55242e-06
6.68134e-06
6.27441e-06
1.11795e-05
1.10123e-05
1.34915e-05
1.70521e-05
1.59987e-05
2.43097e-05
1.82415e-05
3.29678e-05
2.04854e-05
4.30624e-05
2.27565e-05
5.47975e-05
2.5088e-05
6.83672e-05
2.72794e-05
8.40376e-05
2.89793e-05
2.96021e-05
0.000102045
2.84161e-06
3.83973e-06
6.7782e-06
7.24293e-06
1.19983e-05
8.27139e-06
1.87136e-05
9.2835e-06
2.67834e-05
1.01718e-05
3.62852e-05
1.09836e-05
4.73166e-05
1.17251e-05
6.00946e-05
1.231e-05
7.48907e-05
1.24834e-05
9.19905e-05
1.18794e-05
9.9301e-06
0.000111663
2.60506e-06
1.23466e-06
6.91508e-06
2.93292e-06
1.24936e-05
2.69283e-06
1.93456e-05
2.43156e-06
2.74782e-05
2.03918e-06
3.70343e-05
1.4275e-06
4.82016e-05
5.57709e-07
6.12335e-05
-7.21908e-07
7.64131e-05
-2.6961e-06
9.40245e-05
-5.732e-06
-1.04106e-05
0.000114365
4.931e-06
1.01413e-05
1.57404e-05
2.23621e-05
3.01328e-05
3.92513e-05
5.00664e-05
6.29692e-05
7.83105e-05
9.64178e-05
0.000117443
1.27831e-06
1.65492e-05
-1.78275e-05
1.61006e-06
1.62544e-05
-1.65861e-05
-1.06501e-06
2.09599e-05
-1.82848e-05
-5.73844e-06
2.52413e-05
-2.05679e-05
-1.13048e-05
2.90107e-05
-2.34443e-05
-1.73271e-05
3.30661e-05
-2.70438e-05
-2.36667e-05
3.78447e-05
-3.15051e-05
-3.06516e-05
4.40928e-05
-3.71079e-05
-3.85113e-05
5.20815e-05
-4.42217e-05
-4.75474e-05
6.24078e-05
-5.33717e-05
7.58535e-05
-6.52265e-05
-5.81744e-05
6.17212e-06
1.03771e-05
9.14311e-06
1.32834e-05
9.79443e-06
2.03085e-05
8.50034e-06
2.65354e-05
5.11142e-06
3.23996e-05
-1.43131e-07
3.83207e-05
-6.66618e-06
4.43677e-05
-1.40727e-05
5.14994e-05
-2.24142e-05
6.0423e-05
-3.19839e-05
7.19774e-05
8.69964e-05
-4.31268e-05
4.4711e-06
5.90601e-06
7.22582e-06
1.05287e-05
9.73783e-06
1.77965e-05
1.10172e-05
2.52561e-05
1.0348e-05
3.30688e-05
7.57855e-06
4.10901e-05
2.89153e-06
4.90547e-05
-3.19018e-06
5.75811e-05
-1.03835e-05
6.76163e-05
-1.86843e-05
8.02782e-05
9.67779e-05
-2.84658e-05
3.53422e-06
2.37178e-06
6.15367e-06
7.90924e-06
8.82882e-06
1.51214e-05
1.09782e-05
2.31067e-05
1.19398e-05
3.21072e-05
1.12746e-05
4.17553e-05
8.7779e-06
5.15514e-05
4.66194e-06
6.1697e-05
-7.53066e-07
7.30313e-05
-7.19054e-06
8.67156e-05
0.000104208
-1.46203e-05
2.58541e-06
-2.13625e-07
5.45709e-06
5.03756e-06
8.43068e-06
1.21478e-05
1.09535e-05
2.05839e-05
1.27482e-05
3.03124e-05
1.34415e-05
4.1062e-05
1.26794e-05
5.23135e-05
1.04067e-05
6.39698e-05
6.84596e-06
7.6592e-05
2.27398e-06
9.12876e-05
0.000109613
-3.13182e-06
1.82611e-06
-2.03973e-06
4.8009e-06
2.06277e-06
7.98469e-06
8.964e-06
1.09678e-05
1.76008e-05
1.34375e-05
2.78427e-05
1.50879e-05
3.94117e-05
1.55927e-05
5.18087e-05
1.47898e-05
6.47727e-05
1.27941e-05
7.85877e-05
9.86852e-06
9.42132e-05
0.000113161
6.32062e-06
7.44117e-07
-2.78385e-06
3.44492e-06
-6.38037e-07
6.89049e-06
5.51844e-06
1.03921e-05
1.40991e-05
1.35377e-05
2.46972e-05
1.6028e-05
3.69213e-05
1.7564e-05
5.02727e-05
1.79757e-05
6.4361e-05
1.72985e-05
7.92649e-05
1.57609e-05
9.57508e-05
0.000115269
1.36536e-05
5.22797e-07
-3.30665e-06
2.22532e-06
-2.34056e-06
5.44808e-06
2.29568e-06
9.20987e-06
1.03373e-05
1.28781e-05
2.10289e-05
1.60715e-05
3.3728e-05
1.85005e-05
4.78437e-05
1.99704e-05
6.28911e-05
2.04735e-05
7.87619e-05
2.02117e-05
9.60125e-05
0.00011596
1.95199e-05
4.29644e-07
-3.73629e-06
1.41811e-06
-3.32903e-06
4.05971e-06
-3.4592e-07
7.78939e-06
6.60766e-06
1.17778e-05
1.70406e-05
1.55075e-05
2.99982e-05
1.86566e-05
4.46946e-05
2.10206e-05
6.05271e-05
2.25619e-05
7.72206e-05
2.34408e-05
9.51336e-05
0.000115397
2.40039e-05
4.36416e-07
-4.17271e-06
1.19785e-06
-4.09047e-06
3.07598e-06
-2.22405e-06
6.43471e-06
3.24893e-06
1.05008e-05
1.29745e-05
1.45922e-05
2.59068e-05
1.82932e-05
4.09936e-05
2.13835e-05
5.74369e-05
2.37998e-05
7.48043e-05
2.56752e-05
9.32582e-05
0.000113799
2.72739e-05
4.06495e-07
-4.5792e-06
1.06311e-06
-4.74708e-06
2.34757e-06
-3.50851e-06
5.09727e-06
4.99229e-07
8.95571e-06
9.11605e-06
1.31786e-05
2.1684e-05
1.72494e-05
3.69228e-05
2.09236e-05
5.37627e-05
2.41338e-05
7.15941e-05
2.69866e-05
9.04054e-05
0.000110976
2.98096e-05
3.6047e-07
-4.93967e-06
8.62502e-07
-5.24912e-06
1.79934e-06
-4.44534e-06
3.86112e-06
-1.56256e-06
7.20447e-06
5.7727e-06
1.12616e-05
1.76269e-05
1.54857e-05
3.26987e-05