# Force coefficients
# liftDir    : (0.000000e+00 1.000000e+00 0.000000e+00)
# dragDir    : (1.000000e+00 0.000000e+00 0.000000e+00)
# pitchAxis  : (0.000000e+00 0.000000e+00 1.000000e+00)
# magUInf    : 2.800000e+00
# lRef       : 1.000000e+00
# Aref       : 1.000000e+00
# CofR       : (0.000000e+00 0.000000e+00 0.000000e+00)
# Time       	Cm           	Cd           	Cl           	Cl(f)        	Cl(r)        	Cm	Cd	Cl	Cl(f)	Cl(r)
1.418253e-07	-3.159680e-06	1.179747e-03	4.759740e-04	2.348273e-04	2.411467e-04
7.542174e-06	-2.370399e-06	5.244198e-04	7.375832e-06	1.317517e-06	6.058315e-06
1.079125e-04	1.053735e-06	3.217334e-04	6.257139e-06	4.182305e-06	2.074835e-06
1.087004e-03	4.265561e-06	2.746590e-04	4.479326e-06	6.505224e-06	-2.025898e-06
