/*--------------------------------*- C++ -*----------------------------------*\
| =========                 |                                                 |
| \\      /  F ield         | OpenFOAM: The Open Source CFD Toolbox           |
|  \\    /   O peration     | Version:  3.0.1                                 |
|   \\  /    A nd           | Web:      www.OpenFOAM.org                      |
|    \\/     M anipulation  |                                                 |
\*---------------------------------------------------------------------------*/
FoamFile
{
    version     2.0;
    format      ascii;
    class       surfaceVectorField;
    location    "0.375408";
    object      Uf;
}
// * * * * * * * * * * * * * * * * * * * * * * * * * * * * * * * * * * * * * //

dimensions      [0 1 -1 0 0 0 0];

internalField   nonuniform List<vector> 
32369
(
(1.14073 -5.84044 -5.67724e-18)
(-0.475526 -3.3937 -9.10334e-19)
(4.67362 -7.08501 -6.36909e-19)
(1.80195 -4.18736 4.53485e-20)
(0.334053 -3.62854 -6.60554e-19)
(3.69434 -4.56714 1.36656e-18)
(2.294 -3.23162 -9.63835e-19)
(1.20051 -3.28343 2.7752e-19)
(3.39877 -3.6446 -4.7565e-19)
(2.5562 -2.54508 -3.69676e-19)
(1.80523 -2.78448 -1.32143e-18)
(3.23907 -2.82009 -1.13601e-18)
(2.68506 -2.02154 1.71506e-18)
(2.16685 -2.28887 1.10877e-18)
(3.13219 -2.21576 1.72038e-18)
(2.74127 -1.60988 2.6488e-19)
(2.37945 -1.847 0)
(3.05532 -1.74572 1.93082e-19)
(2.75888 -1.2808 1.51312e-19)
(2.50069 -1.47617 2.80853e-19)
(2.99014 -1.37714 -1.4767e-19)
(2.7549 -1.01607 -2.20986e-19)
(2.56684 -1.17278 1.00343e-18)
(2.92929 -1.08453 -1.34565e-19)
(2.73751 -0.803565 -2.30686e-19)
(2.60117 -0.927359 -1.11168e-18)
(2.87131 -0.851128 -3.22441e-19)
(2.71152 -0.633352 -2.88601e-19)
(2.61465 -0.73153 -4.57136e-20)
(2.81632 -0.666859 -4.67231e-19)
(2.60909 -0.579889 3.76581e-19)
(2.7603 -0.52638 6.47018e-20)
(2.66325 -0.478876 0)
(-1.21021 -2.19693 1.6542e-18)
(-1.60188 -0.944794 1.74545e-18)
(-0.27123 -2.77049 -4.67927e-19)
(-0.80543 -1.67316 4.75389e-19)
(0.644224 -2.71817 0)
(-0.165911 -1.98606 -7.91791e-20)
(1.36096 -2.42849 -5.84411e-19)
(0.580162 -2.06791 -2.39859e-18)
(1.84717 -2.05999 -7.26407e-19)
(1.19659 -1.96688 4.80899e-19)
(2.14644 -1.69444 0)
(1.6532 -1.74204 0)
(2.32116 -1.36706 1.01928e-18)
(1.96782 -1.46572 0)
(2.42177 -1.08906 4.03272e-19)
(2.17584 -1.19234 1.37877e-18)
(2.48162 -0.860165 -9.69386e-19)
(2.31114 -0.949423 -6.76607e-19)
(2.5197 -0.674969 6.2362e-19)
(2.39755 -0.746233 2.59558e-19)
(2.44686 -0.587361 -9.05447e-20)
(2.5351 -0.514331 -6.95121e-19)
(-1.08119 -0.6834 7.32031e-19)
(-1.28752 0.0744061 3.26921e-19)
(-0.786743 -1.13711 6.86468e-19)
(-0.619981 -0.528227 1.56069e-18)
(-0.262713 -1.44944 -2.16013e-18)
(-0.443831 -0.826439 3.62584e-19)
(0.341957 -1.61333 -1.54214e-18)
(0.0391694 -1.1298 -7.74342e-19)
(0.931833 -1.60843 1.17761e-18)
(0.55895 -1.28387 -4.45955e-19)
(1.42478 -1.46935 0)
(1.05547 -1.29485 4.14085e-19)
(1.79289 -1.26029 8.38066e-20)
(1.46965 -1.19405 6.95771e-19)
(2.04755 -1.03687 5.87699e-19)
(1.78835 -1.03318 -3.89857e-19)
(2.21675 -0.831061 6.06574e-19)
(2.01975 -0.855541 7.25244e-19)
(2.32733 -0.657672 -4.03851e-19)
(2.18204 -0.689059 -1.19942e-19)
(2.28651 -0.54813 -7.36927e-19)
(2.39722 -0.505261 5.14781e-19)
(-0.547118 0.088695 9.59234e-19)
(-0.720962 0.611085 1.16065e-19)
(-0.438571 -0.225339 1.13106e-18)
(-0.123674 0.174365 6.71663e-19)
(-0.200952 -0.538346 1.7036e-18)
(-0.18691 -0.0340626 -2.37499e-20)
(0.151549 -0.807727 2.3148e-19)
(0.101812 -0.339345 3.53952e-19)
(0.587626 -0.968781 -1.17542e-18)
(0.421737 -0.575188 -1.23574e-18)
(1.03066 -1.01406 1.08292e-18)
(0.806711 -0.729478 4.02921e-19)
(1.42269 -0.96203 2.69672e-19)
(1.18308 -0.782612 1.07085e-20)
(1.73602 -0.850202 -4.5246e-19)
(1.51464 -0.752464 -2.64859e-19)
(1.96982 -0.715503 1.07088e-19)
(1.78449 -0.670376 1.83566e-19)
(2.13796 -0.584517 -3.81958e-19)
(1.99207 -0.567222 1.18232e-19)
(2.13878 -0.466822 -5.05371e-20)
(2.25471 -0.463056 -2.51981e-19)
(-0.0496884 0.562338 -2.01183e-19)
(-0.169131 0.873782 -2.8616e-19)
(0.00451253 0.378524 -3.59385e-19)
(0.35767 0.569333 0)
(0.119527 0.122812 -1.23622e-18)
(0.174648 0.479675 -3.98443e-19)
(0.301619 -0.144246 -8.00195e-19)
(0.375807 0.197894 -6.01845e-19)
(0.569236 -0.365804 2.24487e-19)
(0.544315 -0.0329875 -1.49258e-18)
(0.892842 -0.51732 -5.68365e-19)
(0.800112 -0.229041 1.10036e-18)
(1.22588 -0.585132 -4.58969e-19)
(1.08654 -0.364303 -4.08431e-19)
(1.53005 -0.580437 3.12927e-19)
(1.3727 -0.427938 -1.561e-20)
(1.78405 -0.52776 2.0744e-19)
(1.63321 -0.431511 0)
(1.98448 -0.452532 4.9076e-19)
(1.85284 -0.395464 2.22911e-19)
(2.0187 -0.340027 1.32521e-19)
(2.14007 -0.361282 1.26075e-18)
(0.377544 0.806071 -1.15445e-19)
(0.27593 0.946012 -1.04449e-19)
(0.44062 0.714968 0)
(0.754794 0.815459 2.19378e-18)
(0.473512 0.526185 2.24018e-19)
(0.539573 0.757277 -3.40987e-18)
(0.566389 0.30911 -1.20885e-18)
(0.681194 0.53584 1.61885e-18)
(0.724962 0.0941143 -8.17778e-19)
(0.761505 0.34717 -2.79133e-18)
(0.937384 -0.0892048 1.39198e-18)
(0.922878 0.151483 1.99448e-18)
(1.1828 -0.218364 -1.88083e-20)
(1.1226 -0.0132031 2.01538e-19)
(1.43689 -0.288565 -3.04135e-19)
(1.34475 -0.122573 -2.72349e-19)
(1.6724 -0.306823 -8.05322e-21)
(1.56756 -0.184286 0)
(1.87479 -0.290181 -1.13261e-19)
(1.7721 -0.203764 -3.31371e-19)
(1.93754 -0.19176 1.58239e-19)
(2.04263 -0.249495 -9.94912e-20)
(0.726495 0.895264 1.96533e-18)
(0.580797 0.954632 9.44407e-19)
(0.790395 0.896754 -9.94219e-19)
(1.04897 0.905835 3.84156e-18)
(0.795417 0.756223 -2.73272e-18)
(0.862083 0.908444 -4.72195e-18)
(0.843704 0.591076 4.93646e-19)
(0.960664 0.739167 1.75093e-19)
(0.932041 0.409345 -4.35366e-19)
(0.994639 0.591519 -2.09117e-19)
(1.06655 0.234168 1.00011e-18)
(1.09411 0.419813 9.01597e-19)
(1.24196 0.0855975 0)
(1.22824 0.261858 0)
(1.43696 -0.0217288 0)
(1.39221 0.132702 6.44041e-19)
(1.63476 -0.085603 -2.84835e-19)
(1.57011 0.0402306 -6.42845e-19)
(1.8192 -0.112635 -1.1079e-19)
(1.74582 -0.0161299 -4.34982e-19)
(1.89456 -0.0409022 -3.37181e-21)
(1.98039 -0.106778 2.81749e-20)
(0.968306 0.927569 2.5246e-18)
(0.803699 0.964839 -7.61094e-19)
(1.06473 0.980233 3.54782e-19)
(1.26285 0.962411 3.14786e-18)
(1.06626 0.883314 -2.52559e-18)
(1.1178 0.985975 -1.32499e-18)
(1.09366 0.760612 -4.47331e-19)
(1.19695 0.856215 -1.19118e-18)
(1.14413 0.613773 1.02138e-18)
(1.20992 0.743977 9.24391e-19)
(1.22873 0.460266 0)
(1.27325 0.600959 -6.53009e-19)
(1.34791 0.317373 5.72811e-19)
(1.36221 0.460524 -5.09139e-19)
(1.49278 0.198789 9.45701e-20)
(1.47977 0.332956 1.62597e-18)
(1.65018 0.111087 -8.09193e-19)
(1.61684 0.228627 -1.18586e-18)
(1.80629 0.0530198 -3.7278e-19)
(1.76105 0.151483 3.01124e-19)
(1.88686 0.104245 1.36859e-20)
(1.95165 0.0206871 -2.02542e-19)
(1.15421 0.945545 -9.5448e-19)
(0.989278 0.967221 -1.7183e-18)
(1.27296 1.0265 1.65002e-18)
(1.44366 0.99572 1.33258e-18)
(1.28223 0.955925 0)
(1.32378 1.03323 0)
(1.30325 0.862265 0)
(1.39253 0.925919 -1.06278e-18)
(1.3355 0.744664 -5.84447e-19)
(1.39578 0.839499 6.72661e-19)
(1.39075 0.615515 -1.16674e-18)
(1.4389 0.721066 -6.53514e-19)
(1.47261 0.487382 3.32752e-19)
(1.49915 0.600439 -5.09091e-19)
(1.57849 0.371439 5.95001e-19)
(1.58381 0.483456 9.73767e-19)
(1.70074 0.275315 -2.04244e-19)
(1.6883 0.379421 -1.02838e-18)
(1.82924 0.201017 7.03229e-19)
(1.80492 0.293784 4.09028e-19)
(1.91207 0.234263 2.79107e-19)
(1.95546 0.146208 2.10186e-19)
(1.31828 0.928141 -1.45916e-19)
(1.12312 0.909795 -1.50333e-18)
(1.44964 1.04049 -1.78436e-19)
(1.5904 0.984953 1.87045e-18)
(1.46023 0.993072 -9.55268e-19)
(1.48919 1.0492 -1.80384e-18)
(1.47717 0.921956 -5.35639e-19)
(1.55338 0.962261 -1.46721e-19)
(1.4997 0.82795 7.43752e-19)
(1.552 0.898248 1.00397e-18)
(1.53816 0.720819 0)
(1.58409 0.800608 -4.86355e-19)
(1.59667 0.609551 0)
(1.62684 0.698788 -3.7747e-19)
(1.67534 0.50284 -4.30832e-19)
(1.68963 0.595019 -6.03888e-19)
(1.77068 0.40789 -5.36686e-19)
(1.77026 0.497493 1.34439e-18)
(1.87688 0.32887 0)
(1.86497 0.411502 -9.87645e-19)
(1.95447 0.347388 2.61099e-20)
(1.98956 0.27173 -7.20094e-19)
(1.43036 0.882351 -2.02393e-19)
(1.19964 0.827785 -2.50891e-19)
(1.58785 1.02929 3.93337e-19)
(1.68799 0.960211 1.14668e-18)
(1.60373 1.00498 -1.27504e-18)
(1.61232 1.04724 -1.6077e-18)
(1.62018 0.953954 1.31375e-18)
(1.68036 0.977405 9.25024e-19)
(1.63812 0.880103 -5.78095e-20)
(1.67989 0.933181 6.13906e-19)
(1.6672 0.792096 -8.76485e-19)
(1.70779 0.853208 -4.88181e-19)
(1.71137 0.69705 -9.58079e-19)
(1.7408 0.7683 7.0112e-19)
(1.77187 0.601811 9.68543e-19)
(1.78981 0.677787 -1.1353e-18)
(1.8473 0.512681 1.11836e-18)
(1.8537 0.589008 5.67534e-19)
(1.93367 0.433886 -1.0918e-18)
(1.93149 0.506126 -6.70013e-19)
(2.0054 0.442088 -4.21527e-19)
(2.02484 0.366188 1.56996e-18)
(1.48857 0.852576 9.01534e-19)
(1.26724 0.788291 2.20691e-19)
(1.68283 1.02036 -7.88492e-19)
(1.76283 0.958501 -8.87056e-19)
(1.71193 1.00977 2.26793e-19)
(1.7091 1.05 6.27375e-19)
(1.73391 0.972351 2.6124e-19)
(1.78185 0.987647 -6.38086e-19)
(1.75255 0.913855 3.21535e-19)
(1.78427 0.956986 2.91871e-19)
(1.77788 0.841379 9.72518e-19)
(1.81205 0.889912 4.05502e-19)
(1.81399 0.760567 7.2621e-19)
(1.84039 0.818949 1.40712e-18)
(1.86294 0.676681 -1.72043e-18)
(1.88141 0.7403 4.7495e-19)
(1.92468 0.594912 -1.09348e-18)
(1.93427 0.660703 -1.63139e-18)
(1.99721 0.519018 -1.75643e-20)
(2.00026 0.582905 3.57398e-19)
(2.06335 0.521254 -5.43549e-20)
(2.07651 0.451364 -3.24445e-19)
(1.54206 0.835248 -1.19147e-18)
(1.32636 0.755 -1.08581e-18)
(1.76061 1.01822 3.72188e-19)
(1.83121 0.95538 1.2058e-19)
(1.79859 1.01556 -1.96097e-20)
(1.79264 1.05346 6.14885e-19)
(1.82607 0.98661 -7.05302e-19)
(1.86774 0.996552 -9.47817e-19)
(1.84731 0.938742 3.64134e-19)
(1.87196 0.976402 0)
(1.87215 0.877977 7.3386e-19)
(1.90099 0.91831 1.18166e-18)
(1.90444 0.808738 1.25951e-18)
(1.9273 0.858375 -1.21324e-18)
(1.94659 0.734926 7.96171e-19)
(1.96403 0.789548 1.0087e-18)
(1.99951 0.660781 -3.75398e-19)
(2.00993 0.718524 -7.08205e-19)
(2.06308 0.589615 3.95191e-19)
(2.06842 0.646395 1.10683e-18)
(2.12417 0.589372 3.73747e-19)
(2.13929 0.528739 3.14227e-19)
(1.59118 0.799726 1.08822e-19)
(1.33325 0.691227 0)
(1.82951 1.00822 3.08964e-19)
(1.87071 0.936939 9.75059e-21)
(1.87345 1.01846 -6.08254e-20)
(1.85704 1.05163 1.95874e-19)
(1.90471 0.998302 -3.3912e-19)
(1.93901 1.00282 -6.10493e-19)
(1.92809 0.959194 6.89069e-19)
(1.94646 0.992957 9.52877e-19)
(1.9536 0.907634 -5.39107e-19)
(1.97813 0.941847 5.85937e-19)
(1.98434 0.847682 -1.72141e-18)
(2.00396 0.891068 -1.54505e-18)
(2.02272 0.782385 -3.17367e-19)
(2.03869 0.830242 -8.89217e-19)
(2.07008 0.715376 6.12345e-19)
(2.08014 0.766886 -9.92204e-19)
(2.12696 0.649388 1.17092e-18)
(2.13378 0.699806 2.04254e-18)
(2.18451 0.647513 -2.22775e-20)
(2.19278 0.587812 -9.39646e-19)
(1.60659 0.778344 -1.08801e-19)
(1.35513 0.657605 1.06846e-18)
(1.87776 1.00309 -1.32915e-19)
(1.90513 0.9351 -9.50328e-19)
(1.93495 1.02277 -2.68262e-19)
(1.91361 1.05529 -1.81612e-19)
(1.97205 1.00939 5.67241e-19)
(2.00016 1.01118 -2.98767e-19)
(1.99842 0.977282 9.01546e-19)
(2.01168 1.00819 4.97021e-19)
(2.02545 0.933084 -2.22271e-19)
(2.0463 0.962561 -3.65697e-19)
(2.05586 0.880715 -7.7993e-19)
(2.0726 0.919248 5.49695e-19)
(2.09227 0.822613 -1.55646e-18)
(2.10669 0.865084 -8.65338e-19)
(2.13627 0.761892 1.5931e-19)
(2.14548 0.808677 -3.46534e-19)
(2.189 0.700722 1.0776e-18)
(2.19612 0.74621 5.68775e-20)
(2.24389 0.697461 1.27122e-20)
(2.2509 0.643228 7.29356e-19)
(1.62459 0.766272 5.14153e-19)
(1.38688 0.630855 -2.23615e-20)
(1.91974 1.0029 -1.07603e-18)
(1.93844 0.931644 -9.56149e-19)
(1.98887 1.02971 -2.0012e-19)
(1.96865 1.05704 8.4556e-21)
(2.03145 1.02104 -4.11746e-19)
(2.05585 1.02056 -1.4053e-19)
(2.0611 0.993946 -6.80735e-19)
(2.07155 1.02183 -4.59594e-19)
(2.09007 0.955654 3.12723e-19)
(2.10799 0.981391 -1.74302e-19)
(2.12086 0.909567 6.24013e-19)
(2.1352 0.943969 3.39943e-20)
(2.15637 0.857778 2.97905e-19)
(2.1692 0.895628 6.02333e-19)
(2.19847 0.802756 -4.72925e-19)
(2.20665 0.845518 1.74845e-19)
(2.24881 0.746139 -1.03476e-18)
(2.25542 0.787932 -1.13367e-18)
(2.30382 0.742591 1.28368e-20)
(2.31045 0.690607 8.6462e-19)
(1.64792 0.740263 -1.3278e-18)
(1.38398 0.590431 -2.25291e-18)
(1.95873 0.993281 3.45638e-20)
(1.94941 0.91542 -1.18496e-19)
(2.03896 1.03286 7.66851e-20)
(2.01295 1.05173 1.83631e-19)
(2.08603 1.03101 -1.55141e-19)
(2.10396 1.028 -6.6207e-20)
(2.11854 1.00879 0)
(2.12644 1.03282 5.37132e-19)
(2.1493 0.975753 -4.64549e-19)
(2.16439 0.998106 -3.27697e-21)
(2.1807 0.935085 -5.25666e-20)
(2.19287 0.965636 -8.94993e-19)
(2.21599 0.889025 5.26359e-19)
(2.22694 0.922877 3.98482e-19)
(2.25725 0.839382 -3.41137e-19)
(2.26405 0.878568 2.69175e-19)
(2.30618 0.787661 -2.29279e-19)
(2.31136 0.826321 -1.09438e-19)
(2.36008 0.783034 -1.36085e-19)
(2.36368 0.735625 0)
(1.65004 0.717574 -1.25206e-18)
(1.38745 0.55761 -1.1298e-18)
(1.98376 0.981222 0)
(1.95357 0.900203 9.56362e-19)
(2.08136 1.03359 6.69825e-20)
(2.05056 1.04483 -7.41056e-19)
(2.13536 1.03881 5.63458e-19)
(2.14647 1.03415 1.4584e-19)
(2.17142 1.02128 6.05528e-19)
(2.17701 1.04097 4.26684e-19)
(2.20388 0.993191 -3.43185e-19)
(2.21598 1.01218 -3.27895e-21)
(2.23587 0.957744 -5.8745e-19)
(2.2457 0.984359 -7.30434e-19)
(2.27129 0.917374 1.5439e-19)
(2.27986 0.947585 2.13021e-19)
(2.31242 0.873098 5.41524e-19)
(2.31746 0.909024 6.70957e-19)
(2.36088 0.825838 -1.13684e-20)
(2.36432 0.862451 -1.41509e-19)
(2.41446 0.820526 2.63908e-20)
(2.41776 0.776413 -9.77285e-19)
(1.64575 0.696889 8.54575e-19)
(1.39363 0.526595 0)
(1.99937 0.967334 3.15559e-19)
(1.95183 0.880868 1.95668e-18)
(2.11702 1.0319 -7.50141e-19)
(2.08338 1.03212 -1.46519e-18)
(2.17976 1.04373 -1.83201e-20)
(2.18522 1.03532 -4.91173e-19)
(2.21975 1.03058 -1.20583e-19)
(2.22351 1.04397 3.21228e-19)
(2.25355 1.00757 -3.17535e-19)
(2.26224 1.02214 3.17703e-19)
(2.28606 0.977898 -3.31645e-20)
(2.29276 1.00001 -3.90434e-19)
(2.32208 0.943734 6.80727e-19)
(2.32736 0.970526 1.87312e-19)
(2.36409 0.904957 6.54589e-20)
(2.36668 0.938309 1.42496e-20)
(2.41335 0.861966 -1.20939e-19)
(2.41452 0.897892 -2.79802e-19)
(2.46833 0.85718 2.624e-19)
(2.47019 0.813069 7.15842e-19)
(1.64144 0.672743 9.02478e-19)
(1.39964 0.49357 1.40688e-18)
(2.00917 0.944569 4.04946e-19)
(1.94127 0.850001 9.3285e-19)
(2.14739 1.02122 -1.30475e-18)
(2.10781 1.00517 -7.57616e-19)
(2.21913 1.04075 -2.182e-19)
(2.21655 1.02366 -1.71289e-18)
(2.26228 1.03374 7.57643e-19)
(2.2616 1.03697 1.188e-18)
(2.29676 1.01772 3.19417e-19)
(2.29959 1.02558 -8.92067e-20)
(2.32997 0.995838 -2.35552e-19)
(2.33128 1.01242 1.12806e-19)
(2.36759 0.969289 -4.62902e-19)
(2.36791 0.992592 -3.04558e-19)
(2.41178 0.936871 -2.99956e-19)
(2.41079 0.967823 -1.27956e-19)
(2.46314 0.898582 4.74282e-20)
(2.46135 0.934001 -2.41492e-19)
(2.51765 0.895134 1.24023e-19)
(2.5179 0.853865 1.09972e-18)
(1.63328 0.640172 1.44061e-18)
(1.40549 0.452762 2.03945e-18)
(2.00884 0.904528 -1.20357e-19)
(1.92152 0.799341 -6.25927e-19)
(2.1668 0.992008 -1.00772e-18)
(2.11603 0.952784 -8.60973e-19)
(2.24713 1.0222 -5.91628e-19)
(2.22927 0.989292 -5.60921e-20)
(2.29316 1.02646 4.93022e-19)
(2.28034 1.01473 6.40148e-19)
(2.32896 1.0224 -3.17976e-19)
(2.31988 1.02058 -1.45977e-19)
(2.36478 1.01202 8.92681e-20)
(2.35638 1.02178 -9.59539e-20)
(2.40638 0.995042 1.11762e-20)
(2.39912 1.01455 9.10342e-20)
(2.45484 0.969694 -5.37668e-20)
(2.44864 0.998427 2.33596e-19)
(2.50953 0.936163 -2.03126e-19)
(2.50412 0.971194 -8.91833e-20)
(2.56365 0.934382 -4.87902e-20)
(2.56794 0.894915 2.48392e-20)
(1.62733 0.591425 1.95584e-19)
(1.43561 0.388051 1.12485e-18)
(1.9938 0.83353 -1.34465e-18)
(1.88278 0.703185 -5.43018e-19)
(2.16444 0.931985 -2.68264e-20)
(2.08596 0.864843 -7.93157e-19)
(2.25152 0.980178 1.08606e-18)
(2.19931 0.927498 1.17848e-18)
(2.3024 1.00514 1.00336e-19)
(2.26049 0.976381 -3.69952e-19)
(2.34368 1.02068 6.60771e-20)
(2.31027 1.0073 5.12545e-20)
(2.38697 1.02657 -1.12215e-19)
(2.36034 1.02791 -2.40813e-19)
(2.43664 1.02117 2.98862e-19)
(2.41651 1.03519 3.02159e-19)
(2.49207 1.00355 2.3439e-19)
(2.47718 1.02853 -1.95025e-19)
(2.55206 0.974781 6.11176e-20)
(2.54068 1.00848 2.62999e-19)
(2.60678 0.973196 -1.82593e-19)
(2.60612 0.935293 6.32214e-20)
(1.54766 0.481832 4.06131e-19)
(1.49865 0.227417 -7.08526e-19)
(1.90265 0.734024 0)
(1.78395 0.639967 2.16983e-18)
(2.07805 0.848364 1.54581e-19)
(1.98218 0.739443 -1.15447e-18)
(2.18202 0.922172 -1.85391e-20)
(2.10284 0.835446 6.67875e-19)
(2.25444 0.974861 -4.49901e-19)
(2.18583 0.919872 -2.48904e-19)
(2.3185 1.01454 -2.08096e-19)
(2.25907 0.983386 -1.8934e-19)
(2.38371 1.03815 1.12176e-19)
(2.33429 1.02674 4.78046e-21)
(2.45098 1.0444 -1.32463e-19)
(2.41152 1.0487 1.05185e-19)
(2.51878 1.03526 -2.20431e-19)
(2.48721 1.05195 -3.81097e-20)
(2.58757 1.01379 5.64125e-20)
(2.56123 1.04117 2.86946e-19)
(2.63572 1.01575 7.47341e-20)
(2.65078 0.983932 -8.42562e-20)
(2.01082 0.297024 7.36338e-19)
(2.04028 -1.00042 -5.88049e-19)
(2.0711 0.462113 1.62883e-18)
(0.918367 0.0329086 2.27493e-18)
(2.13285 0.654779 -7.26116e-19)
(1.14652 0.195961 -1.82251e-18)
(2.17767 0.791707 5.41722e-19)
(1.43752 0.332282 5.67801e-19)
(2.22103 0.903492 -5.82098e-21)
(1.64507 0.489473 -2.48289e-19)
(2.28041 0.987362 -2.95799e-21)
(1.83904 0.629979 1.87458e-19)
(2.35486 1.03646 -4.85541e-21)
(2.02367 0.74488 4.52263e-21)
(2.43512 1.05716 2.00524e-19)
(2.18547 0.833262 2.54449e-20)
(2.5152 1.05913 3.96768e-19)
(2.32302 0.895816 1.17031e-19)
(2.5949 1.04914 3.14908e-19)
(2.44295 0.937147 1.70781e-19)
(2.55852 0.97017 4.78141e-20)
(2.66594 1.04001 1.73324e-19)
(5.29492 -4.30339 1.06242e-18)
(6.47464 -5.48504 -8.38389e-18)
(4.6205 -4.0431 5.49093e-19)
(5.66704 -2.4258 -2.9803e-18)
(4.25449 -3.36278 -1.14597e-20)
(5.44748 -2.8478 1.28952e-18)
(3.84811 -2.64227 5.96666e-19)
(4.8479 -2.44663 -3.65197e-19)
(3.54606 -2.04885 3.38988e-19)
(4.25531 -1.9978 5.5953e-20)
(3.33684 -1.58572 -3.2398e-19)
(3.82617 -1.60422 1.47815e-19)
(3.18441 -1.23006 -4.98601e-19)
(3.52566 -1.26513 -5.12756e-19)
(3.06445 -0.955525 -1.49959e-19)
(3.30884 -0.985684 2.43287e-19)
(2.96519 -0.742527 -5.26633e-19)
(3.1441 -0.761327 -2.2721e-19)
(2.88058 -0.577138 -1.66123e-19)
(3.0144 -0.584359 -7.78752e-20)
(2.90608 -0.450767 3.16709e-19)
(2.79379 -0.440668 5.38955e-20)
(5.0799 -1.53463 -1.19496e-17)
(4.96048 -2.99382 -1.70527e-17)
(5.67352 -1.96762 -3.75559e-18)
(5.17038 -0.0853301 -2.50449e-18)
(5.54975 -2.07517 1.09365e-18)
(6.06874 -1.25918 1.54334e-18)
(5.0414 -1.98191 -6.7845e-19)
(5.76783 -1.34121 -1.18962e-18)
(4.47703 -1.71891 -4.19502e-20)
(5.16376 -1.30659 1.32494e-21)
(4.00964 -1.39556 -4.27578e-20)
(4.56595 -1.17803 5.4873e-19)
(3.65806 -1.09129 1.33708e-19)
(4.07388 -0.985282 -3.79752e-19)
(3.3984 -0.83622 2.60544e-19)
(3.70097 -0.783335 2.41651e-19)
(3.20141 -0.633598 2.34946e-19)
(3.42207 -0.601818 1.21375e-19)
(3.04595 -0.479483 3.30799e-19)
(3.20848 -0.449818 1.99643e-19)
(3.04315 -0.334818 1.49504e-19)
(2.89659 -0.354396 -2.15171e-20)
(4.1115 -0.123789 -9.35948e-18)
(3.44606 -1.51975 -1.1427e-18)
(5.37314 -0.01147 5.40471e-19)
(4.14409 1.18639 0)
(5.75348 -0.321419 7.4618e-19)
(5.64137 0.207706 3.49408e-19)
(5.58387 -0.689106 9.063e-20)
(5.74532 0.0561321 -3.65664e-18)
(5.11129 -0.864371 5.10275e-19)
(5.48289 -0.256125 2.90835e-18)
(4.57911 -0.858104 4.58658e-19)
(4.99833 -0.426417 6.57517e-19)
(4.10537 -0.743676 -4.87723e-19)
(4.48313 -0.467104 -2.58391e-19)
(3.7275 -0.593346 4.64091e-21)
(4.0313 -0.421483 5.19132e-21)
(3.43733 -0.448908 6.96246e-20)
(3.6692 -0.338166 2.27851e-20)
(3.21599 -0.324546 2.10799e-21)
(3.38936 -0.24828 2.94881e-20)
(3.17481 -0.173809 -5.15758e-20)
(3.02377 -0.221277 -4.73404e-20)
(3.1093 0.355049 8.02208e-18)
(2.22581 -0.864215 7.2991e-18)
(4.6033 1.03211 -2.13987e-19)
(3.24606 1.54761 0)
(5.32495 0.941436 -3.42613e-18)
(4.88508 1.11991 6.81828e-18)
(5.48646 0.548386 -1.24497e-18)
(5.22394 1.1541 -8.68168e-18)
(5.26279 0.169706 3.12806e-18)
(5.29744 0.734484 3.19372e-18)
(4.85004 -0.0885404 2.26986e-20)
(5.02898 0.411785 -2.11455e-19)
(4.39169 -0.200683 1.14111e-19)
(4.63262 0.181412 3.20378e-20)
(3.97334 -0.21143 0)
(4.21008 0.0606747 4.32068e-19)
(3.62814 -0.17144 -5.05643e-20)
(3.82968 0.0175668 -2.47102e-19)
(3.35712 -0.116172 -2.4769e-20)
(3.51532 0.0198846 -1.38187e-19)
(3.26896 0.0365529 8.68387e-20)
(3.10506 -0.0639427 -2.15186e-19)
(2.24261 0.387473 3.13833e-20)
(1.30368 -0.653785 2.33611e-19)
(3.78644 1.421 6.24688e-18)
(2.58103 1.50905 -9.03167e-18)
(4.67273 1.63584 2.01564e-18)
(4.17518 1.58096 1.93242e-17)
(5.03292 1.41704 -5.37504e-18)
(4.59491 1.82257 -9.69603e-18)
(5.03061 1.04324 2.25204e-19)
(4.85976 1.45666 8.60145e-19)
(4.79892 0.677968 -2.89113e-19)
(4.77119 1.1248 -1.82008e-19)
(4.4506 0.412512 2.73195e-19)
(4.53314 0.805252 -6.44567e-19)
(4.07433 0.25367 3.50165e-19)
(4.20603 0.570803 1.17501e-18)
(3.72913 0.175997 -3.45615e-19)
(3.8676 0.41696 -1.1078e-18)
(3.44013 0.146698 -5.24952e-20)
(3.56133 0.329008 -2.02729e-20)
(3.30564 0.285681 1.2782e-20)
(3.1686 0.130934 3.06467e-20)
(1.55515 0.300542 -7.89729e-18)
(0.611214 -0.635928 -9.78329e-18)
(3.08047 1.53001 5.42258e-19)
(2.0633 1.37616 -1.32985e-18)
(4.02267 1.96483 8.85373e-18)
(3.56339 1.79875 1.23834e-17)
(4.47343 1.92466 -4.58676e-18)
(4.01535 2.18053 -4.57877e-18)
(4.60798 1.64217 5.86169e-19)
(4.36269 1.91416 -2.04001e-18)
(4.52872 1.28907 -4.86094e-19)
(4.3837 1.64066 2.74946e-18)
(4.31114 0.967819 5.43995e-20)
(4.27564 1.31077 -2.51758e-18)
(4.0218 0.718473 1.57302e-19)
(4.05426 1.02735 1.88775e-18)
(3.72089 0.547247 -9.03446e-19)
(3.78782 0.802958 -1.66149e-18)
(3.44771 0.436876 5.094e-20)
(3.51952 0.642533 5.28662e-19)
(3.27895 0.544433 8.70901e-19)
(3.16361 0.350003 -2.75311e-20)
(1.02033 0.190895 -4.42153e-18)
(0.083664 -0.705117 -9.09712e-18)
(2.50375 1.53684 8.58521e-18)
(1.62918 1.23259 7.83439e-18)
(3.45214 2.1144 0)
(3.02857 1.89271 1.10738e-18)
(3.93614 2.20286 -2.24001e-18)
(3.50807 2.36069 8.03474e-19)
(4.13902 2.01323 -1.21467e-19)
(3.88553 2.18603 -3.16565e-18)
(4.15988 1.71694 1.27507e-18)
(3.96561 1.98287 1.88436e-18)
(4.04935 1.40291 -1.15158e-18)
(3.94712 1.68046 -1.43647e-18)
(3.85165 1.11989 5.75069e-19)
(3.81268 1.39272 1.82243e-18)
(3.61493 0.892964 -4.77907e-19)
(3.62024 1.13668 -1.26273e-20)
(3.38033 0.723151 1.30575e-18)
(3.40365 0.929126 1.52002e-20)
(3.19052 0.777148 -8.68261e-20)
(3.13626 0.578696 6.11277e-19)
(0.609484 0.0761814 1.13027e-18)
(-0.290237 -0.797308 3.8005e-18)
(2.04251 1.50104 9.99805e-19)
(1.27544 1.10086 -5.43066e-18)
(2.97102 2.17515 1.95321e-18)
(2.56808 1.91841 -9.18435e-19)
(3.46024 2.35184 3.40178e-19)
(3.0677 2.4414 2.83304e-20)
(3.69166 2.23423 -1.41871e-18)
(3.44919 2.33976 -6.19528e-19)
(3.77003 1.99792 -4.40876e-19)
(3.55945 2.1985 -8.26134e-19)
(3.73371 1.71564 1.1658e-18)
(3.59886 1.93438 -2.2807e-18)
(3.61175 1.43425 1.40734e-18)
(3.52845 1.66437 3.32523e-18)
(3.43923 1.18484 4.64746e-19)
(3.39963 1.40251 2.27819e-18)
(3.24866 0.981944 -1.3434e-18)
(3.23801 1.17342 -9.8624e-19)
(3.06812 0.992999 -9.60122e-19)
(3.0279 0.807359 3.7588e-19)
(0.285023 -0.0248406 -1.55024e-18)
(-0.565406 -0.883405 9.36162e-18)
(1.66119 1.44257 -7.86067e-18)
(0.975241 0.987112 -1.03097e-17)
(2.55988 2.18361 -2.95422e-18)
(2.16785 1.90394 -1.97091e-18)
(3.04413 2.4243 -8.59893e-19)
(2.68168 2.46218 4.78308e-19)
(3.2841 2.36037 0)
(3.05535 2.4179 -9.1735e-19)
(3.39351 2.175 -2.5147e-18)
(3.1799 2.32628 0)
(3.40521 1.92865 -6.74378e-19)
(3.25614 2.09918 -1.84466e-18)
(3.3399 1.66429 4.31386e-18)
(3.2309 1.85461 2.28866e-19)
(3.22316 1.4127 1.20792e-18)
(3.15281 1.6002 7.00968e-19)
(3.08248 1.19182 -6.06556e-19)
(3.03784 1.36383 -5.45497e-19)
(2.90672 1.17509 0)
(2.89637 0.984211 -8.79381e-19)
(0.0177643 -0.102761 3.09479e-18)
(-0.77552 -0.948218 3.69175e-18)
(1.33433 1.3754 -5.255e-18)
(0.699981 0.884847 -4.85778e-18)
(2.19886 2.15885 1.2268e-18)
(1.81001 1.86269 4.80329e-18)
(2.67439 2.44626 5.72042e-19)
(2.33649 2.44279 -9.02012e-20)
(2.91534 2.4241 -1.01752e-18)
(2.6979 2.44638 -1.79841e-18)
(3.04138 2.27986 8.48884e-19)
(2.82997 2.39166 -2.29522e-18)
(3.08413 2.06598 -1.09584e-18)
(2.92883 2.19687 1.93597e-18)
(3.05988 1.82295 -3.36335e-18)
(2.93564 1.97828 8.58989e-19)
(2.98743 1.57904 -8.62697e-19)
(2.89722 1.73762 -2.87249e-18)
(2.88924 1.35563 0)
(2.82287 1.50311 9.92669e-19)
(2.72541 1.3077 0)
(2.748 1.13222 0)
(-0.22158 -0.181418 -3.24999e-18)
(-0.981767 -1.02761 -3.59993e-18)
(1.0318 1.28861 4.26437e-18)
(0.428372 0.773487 0)
(1.86548 2.10547 3.91643e-18)
(1.47865 1.79368 4.0098e-18)
(2.33561 2.43034 -2.2541e-18)
(2.01612 2.39034 -3.41724e-18)
(2.57702 2.44184 -3.03355e-18)
(2.36743 2.43748 2.902e-18)
(2.7132 2.33016 -1.69082e-18)
(2.50719 2.41 -1.39095e-18)
(2.77698 2.1443 3.98338e-18)
(2.62021 2.2434 1.87048e-19)
(2.7833 1.92312 1.73075e-18)
(2.65109 2.04819 3.01649e-19)
(2.74651 1.69151 -1.44712e-18)
(2.64371 1.82329 -1.38729e-18)
(2.68408 1.47277 1.10396e-18)
(2.60426 1.59682 1.72951e-18)
(2.54288 1.40383 -1.01532e-18)
(2.57865 1.25455 -1.33115e-20)
(-0.442858 -0.267082 -6.99426e-19)
(-1.1515 -1.09704 -4.78284e-18)
(0.748679 1.19117 -6.7861e-19)
(0.179478 0.663855 4.35531e-18)
(1.55558 2.02886 -2.67256e-18)
(1.1698 1.69933 1.76486e-18)
(2.02116 2.38417 1.10841e-18)
(1.71497 2.31141 -4.00237e-18)
(2.26388 2.4246 4.95225e-18)
(2.05843 2.39782 3.72703e-18)
(2.40768 2.33896 3.20496e-19)
(2.20686 2.39113 9.18826e-19)
(2.48684 2.17646 -3.51286e-18)
(2.32962 2.24891 -2.0641e-18)
(2.51687 1.97489 -2.61985e-18)
(2.38013 2.0735 -1.01497e-18)
(2.50948 1.75683 1.44749e-18)
(2.39826 1.86411 7.15278e-19)
(2.47926 1.54651 -3.09756e-20)
(2.38912 1.64833 -6.00839e-19)
(2.36207 1.45873 3.43037e-19)
(2.41723 1.33771 1.45269e-19)
(-0.648072 -0.347431 -6.4755e-19)
(-1.29446 -1.15899 -9.02849e-18)
(0.481855 1.0823 7.07534e-18)
(-0.0607311 0.547574 9.86916e-18)
(1.2598 1.92979 9.75033e-19)
(0.87508 1.58253 6.98905e-19)
(1.72357 2.31084 -2.22113e-18)
(1.42513 2.20565 -2.35363e-18)
(1.97002 2.37728 -8.34689e-20)
(1.76442 2.33006 -2.46001e-18)
(2.12126 2.31342 -1.12014e-18)
(1.92408 2.34075 1.30299e-18)
(2.21329 2.17062 3.43382e-19)
(2.05514 2.21996 -2.35363e-18)
(2.26332 1.98613 2.11421e-18)
(2.1233 2.06097 2.75547e-18)
(2.28159 1.78136 -1.19297e-18)
(2.16381 1.86586 1.02087e-18)
(2.2802 1.58058 -2.99839e-19)
(2.18162 1.66192 -6.49098e-19)
(2.18778 1.47332 1.00613e-18)
(2.25292 1.37355 -6.02489e-19)
(-0.846458 -0.434756 -2.99662e-19)
(-1.43415 -1.24215 -1.8549e-18)
(0.218083 0.951632 4.33369e-18)
(-0.303657 0.410503 5.49086e-18)
(0.969018 1.80257 -2.37705e-18)
(0.584549 1.43603 -2.88374e-18)
(1.43413 2.20854 -2.58259e-18)
(1.13928 2.07 3.5948e-19)
(1.6886 2.30131 -1.42963e-18)
(1.47943 2.23341 -1.30691e-18)
(1.84932 2.25723 4.58568e-19)
(1.65385 2.26096 1.61087e-18)
(1.95422 2.13156 -4.43184e-19)
(1.79412 2.15991 -1.18131e-18)
(2.02292 1.96194 1.83524e-18)
(1.8798 2.01488 4.30241e-19)
(2.06499 1.76977 1.73629e-18)
(1.94164 1.83283 7.52e-20)
(2.08998 1.57839 4.39011e-19)
(1.98407 1.64138 1.93168e-19)
(2.02078 1.45731 6.82822e-19)
(2.10144 1.39094 -2.04114e-19)
(-1.0368 -0.534837 3.29962e-18)
(-1.5581 -1.32057 4.12655e-18)
(-0.0380992 0.80086 -9.45602e-19)
(-0.54175 0.264536 -3.06433e-19)
(0.684607 1.64835 -4.773e-19)
(0.299859 1.26543 -5.42841e-19)
(1.1514 2.0772 1.80667e-18)
(0.85512 1.90567 2.00471e-18)
(1.41637 2.19709 1.46845e-18)
(1.19974 2.10769 4.6632e-19)
(1.58876 2.17193 2.81734e-19)
(1.39153 2.15207 -9.96e-19)
(1.70777 2.06175 -4.53971e-19)
(1.54351 2.06961 -8.68992e-20)
(1.79535 1.90542 -1.27815e-18)
(1.64808 1.93707 1.50105e-19)
(1.86066 1.72573 -1.47655e-18)
(1.73228 1.76772 -6.21832e-19)
(1.91081 1.54572 3.64483e-19)
(1.79975 1.58983 -9.17067e-19)
(1.86835 1.41771 1.00608e-18)
(1.94753 1.37596 4.61197e-20)
(-1.22175 -0.64158 9.68836e-19)
(-1.67453 -1.40136 2.90542e-18)
(-0.291252 0.631026 1.17535e-19)
(-0.78157 0.103711 -1.34439e-18)
(0.400791 1.46643 1.67542e-18)
(0.0138769 1.06819 2.14209e-18)
(0.868792 1.91534 8.24887e-19)
(0.565666 1.70965 8.04203e-19)
(1.14816 2.06255 -1.85989e-18)
(0.917973 1.94799 -1.48791e-18)
(1.33493 2.05692 -1.45775e-18)
(1.131 2.01242 -1.30136e-18)
(1.47086 1.9614 4.92519e-19)
(1.29863 1.94768 -4.51368e-21)
(1.57956 1.81775 9.05327e-19)
(1.42559 1.82719 7.07274e-19)
(1.66963 1.65096 -2.29758e-21)
(1.53516 1.67128 -2.89299e-19)
(1.74699 1.48318 -4.80264e-19)
(1.62935 1.50761 9.95234e-20)
(1.72885 1.34395 -2.15346e-20)
(1.82614 1.3394 0)
(-1.40712 -0.759531 8.14982e-19)
(-1.78978 -1.49757 1.86477e-18)
(-0.549196 0.438163 3.27659e-19)
(-1.02754 -0.0788317 -8.81861e-19)
(0.109515 1.25286 1.3584e-18)
(-0.280218 0.837572 1.6293e-18)
(0.5775 1.71868 -1.27562e-18)
(0.263011 1.47557 -1.42004e-18)
(0.873232 1.8944 -9.65904e-19)
(0.625533 1.74887 -7.64499e-19)
(1.08053 1.90862 0)
(0.863199 1.83369 4.8708e-19)
(1.2391 1.82797 1.3697e-19)
(1.05302 1.7881 2.52362e-19)
(1.37357 1.69792 -3.53842e-19)
(1.20867 1.68173 -1.86127e-19)
(1.49157 1.54586 -2.48022e-19)
(1.34871 1.54232 -4.41356e-19)
(1.59639 1.39209 5.45719e-19)
(1.47218 1.39656 4.30512e-19)
(1.60452 1.24796 -6.86936e-21)
(1.69405 1.24984 -1.88545e-19)
(-1.59695 -0.895561 2.44967e-19)
(-1.90562 -1.60869 1.47173e-18)
(-0.814613 0.217015 1.64528e-19)
(-1.28177 -0.285939 -9.02455e-19)
(-0.194423 1.00189 -8.72242e-19)
(-0.587381 0.570631 -6.40459e-19)
(0.270111 1.47954 -9.68412e-19)
(-0.0608503 1.19594 8.30955e-20)
(0.584663 1.68251 5.72626e-19)
(0.310904 1.49824 5.58537e-19)
(0.817805 1.71809 7.63572e-19)
(0.57709 1.60434 1.70016e-19)
(1.00697 1.6549 -1.79615e-20)
(0.798636 1.57991 2.47927e-19)
(1.17431 1.54236 -2.42045e-19)
(0.992311 1.4931 -3.35394e-19)
(1.32477 1.41003 1.04459e-19)
(1.17006 1.3774 2.16227e-19)
(1.45847 1.2762 -5.78727e-20)
(1.32705 1.25708 -1.47264e-19)
(1.49496 1.1335 2.80938e-20)
(1.58214 1.17105 3.31313e-19)
(-1.79414 -1.05363 5.61249e-19)
(-2.02593 -1.73919 1.26725e-18)
(-1.09224 -0.0360699 -1.79208e-18)
(-1.54913 -0.519813 -8.99073e-19)
(-0.519025 0.706839 2.79093e-19)
(-0.916977 0.263005 -6.76811e-19)
(-0.0649972 1.18665 1.56317e-18)
(-0.418644 0.859879 9.35116e-19)
(0.26877 1.4124 1.93459e-19)
(-0.0411443 1.17771 5.10744e-19)
(0.535761 1.4703 -3.50878e-19)
(0.258456 1.30232 -2.24225e-19)
(0.766768 1.42998 -3.55187e-22)