/*--------------------------------*- C++ -*----------------------------------*\
| =========                 |                                                 |
| \\      /  F ield         | OpenFOAM: The Open Source CFD Toolbox           |
|  \\    /   O peration     | Version:  3.0.1                                 |
|   \\  /    A nd           | Web:      www.OpenFOAM.org                      |
|    \\/     M anipulation  |                                                 |
\*---------------------------------------------------------------------------*/
FoamFile
{
    version     2.0;
    format      ascii;
    class       volScalarField;
    location    "0.555383";
    object      k;
}
// * * * * * * * * * * * * * * * * * * * * * * * * * * * * * * * * * * * * * //

dimensions      [0 2 -2 0 0 0 0];

internalField   nonuniform List<scalar> 
21246
(
0.796738
1.26563
0.848814
0.596827
0.388735
0.246854
0.162028
0.113743
0.0862625
0.0695526
0.0581367
0.742946
1.09049
0.86272
0.650428
0.450487
0.286663
0.185922
0.126965
0.0936719
0.0742655
0.0614599
0.633339
0.859511
0.811049
0.657702
0.48727
0.327514
0.210073
0.141289
0.102416
0.0802733
0.0663239
0.497148
0.701046
0.738103
0.641494
0.503176
0.356373
0.236262
0.157143
0.11146
0.0868277
0.0720783
0.360127
0.596311
0.667916
0.618409
0.511051
0.379808
0.261
0.175487
0.123107
0.0939358
0.0783686
0.241205
0.518067
0.607233
0.593643
0.515075
0.401102
0.286651
0.196398
0.137013
0.103091
0.0853085
0.153432
0.459922
0.560939
0.569823
0.515286
0.41956
0.312632
0.220186
0.154168
0.114232
0.0928739
0.123924
0.437163
0.540219
0.553767
0.514012
0.434422
0.337111
0.245519
0.174452
0.128028
0.10176
0.125346
0.429882
0.543398
0.553228
0.517287
0.447715
0.359413
0.270938
0.197016
0.144643
0.112639
0.112209
0.3801
0.538669
0.565378
0.529914
0.462998
0.380358
0.295554
0.220765
0.1637
0.125818
0.0904845
0.290729
0.488902
0.567246
0.54677
0.480946
0.400439
0.318549
0.244302
0.184255
0.141101
0.0732613
0.223336
0.405922
0.534491
0.55232
0.496423
0.418125
0.338651
0.266019
0.204863
0.157788
0.0606365
0.172882
0.312435
0.462172
0.530681
0.500108
0.429521
0.353958
0.284283
0.223903
0.1746
0.0524284
0.139126
0.234144
0.371289
0.478007
0.483602
0.429361
0.361669
0.297201
0.239602
0.189639
0.046952
0.118894
0.183015
0.284341
0.403601
0.445175
0.413717
0.358777
0.302504
0.249763
0.200873
0.0424101
0.104661
0.150284
0.220149
0.318615
0.388566
0.381885
0.343522
0.298425
0.252545
0.205881
0.0380789
0.0928421
0.125308
0.175544
0.245349
0.316997
0.336432
0.315933
0.284074
0.246623
0.203293
0.0340458
0.0827365
0.105333
0.142315
0.190663
0.24636
0.28128
0.278887
0.260953
0.23315
0.195064
0.0308358
0.0745848
0.0906146
0.117821
0.150772
0.190206
0.225353
0.2389
0.234605
0.21846
0.187669
0.0295228
0.0701732
0.0809232
0.101028
0.123434
0.150657
0.179899
0.202397
0.209277
0.205395
0.184542
0.0300687
0.0668633
0.0745431
0.0899804
0.105742
0.124806
0.147935
0.168958
0.179306
0.182069
0.171743
0.0298684
0.0639582
0.0684915
0.0817997
0.0942874
0.109014
0.125795
0.140153
0.148298
0.152495
0.150773
0.0301414
0.0568474
0.0638916
0.077645
0.0886898
0.100572
0.113248
0.124733
0.133616
0.140689
0.143615
0.0482593
0.0496169
0.0511851
0.06526
0.0828914
0.101765
0.120299
0.136006
0.146578
0.15189
0.152101
0.77387
1.01167
0.789775
0.52519
0.335853
0.217885
0.147594
0.10646
0.0821623
0.0667756
0.0557371
0.540036
0.79424
0.671951
0.494158
0.334514
0.222885
0.151987
0.109152
0.0836347
0.0676461
0.0563999
0.468386
0.686432
0.609223
0.492404
0.352532
0.238226
0.161507
0.114677
0.0870135
0.0700528
0.0584744
0.42467
0.605973
0.550802
0.474915
0.360267
0.252386
0.172718
0.121522
0.091052
0.0728432
0.060981
0.394472
0.538034
0.506286
0.448878
0.3532
0.257431
0.181102
0.128953
0.0964204
0.0767252
0.064365
0.370613
0.484568
0.473088
0.429035
0.346987
0.260075
0.187193
0.135018
0.100932
0.0795298
0.0663536
0.350118
0.442821
0.447279
0.413674
0.34391
0.266412
0.197515
0.144614
0.107421
0.0826946
0.0673332
0.331783
0.409624
0.42675
0.402584
0.344315
0.276318
0.212227
0.159165
0.118407
0.0888582
0.0692138
0.314401
0.382029
0.40966
0.394878
0.347874
0.289679
0.231437
0.179373
0.135529
0.100701
0.0757547
0.296692
0.357281
0.394178
0.388582
0.353125
0.305337
0.254291
0.20492
0.159242
0.119199
0.0872766
0.2778
0.332773
0.377762
0.381277
0.357827
0.32109
0.278804
0.234271
0.188751
0.14464
0.105528
0.257533
0.306707
0.357882
0.370425
0.358836
0.333677
0.301699
0.264423
0.221708
0.175736
0.130587
0.235895
0.279165
0.333191
0.353517
0.352919
0.339417
0.318744
0.29109
0.254659
0.209886
0.161329
0.212539
0.2499
0.30388
0.330269
0.339003
0.336172
0.326379
0.308945
0.28075
0.24137
0.193642
0.187642
0.219927
0.271457
0.301824
0.31787
0.324086
0.323953
0.316283
0.297072
0.264744
0.220965
0.162343
0.190544
0.237965
0.270366
0.291691
0.305019
0.312791
0.313564
0.302934
0.278175
0.240209
0.138307
0.163473
0.205961
0.23883
0.263575
0.282017
0.295648
0.302947
0.299591
0.281991
0.250627
0.117319
0.14036
0.177877
0.210103
0.236685
0.258324
0.275687
0.287309
0.289362
0.277865
0.252806
0.100674
0.122006
0.155033
0.185957
0.213089
0.23618
0.255226
0.268961
0.274393
0.267762
0.248298
0.0886663
0.10806
0.137314
0.16656
0.193202
0.216216
0.235115
0.249002
0.255997
0.253058
0.238613
0.0806443
0.097263
0.123401
0.150723
0.17604
0.19775
0.215088
0.22765
0.234767
0.23462
0.224431
0.0756258
0.0881332
0.111451
0.136569
0.159961
0.179677
0.194848
0.205411
0.21154
0.212895
0.20656
0.0724642
0.0779172
0.0980888
0.120943
0.142612
0.160817
0.174538
0.183759
0.188861
0.190409
0.186734
0.0779195
0.0700578
0.0888445
0.110673
0.130678
0.146468
0.157945
0.165705
0.169952
0.171082
0.168094
0.794765
1.14352
0.920243
0.661025
0.433432
0.265694
0.159053
0.0946969
0.0559584
0.0329306
0.0197926
0.594451
0.869924
0.797304
0.606758
0.410866
0.258913
0.156942
0.0932127
0.0546506
0.0318593
0.0189215
0.434013
0.731074
0.71415
0.584818
0.416795
0.270387
0.165749
0.0982271
0.056936
0.0327645
0.0193991
0.350405
0.631476
0.651047
0.56131
0.418676
0.280474
0.175422
0.105361
0.0616016
0.0355088
0.0208386
0.294273
0.515291
0.55898
0.51861
0.412404
0.28926
0.185254
0.112173
0.0654624
0.0372056
0.0211777
0.265517
0.445212
0.485793
0.460309
0.379871
0.276997
0.182941
0.113079
0.0669691
0.0387019
0.0226764
0.24805
0.398426
0.435198
0.41352
0.343893
0.254872
0.172488
0.109576
0.0665017
0.0390714
0.0229465
0.236472
0.363877
0.395899
0.375452
0.31371
0.235045
0.161682
0.104751
0.064917
0.0389783
0.0237451
0.227821
0.33658
0.364111
0.344094
0.287863
0.217129
0.151197
0.0996346
0.0630189
0.0386476
0.02391
0.220378
0.313695
0.337914
0.318605
0.266755
0.202187
0.142129
0.0949539
0.0610618
0.0380213
0.0235798
0.213885
0.294147
0.316095
0.297839
0.249732
0.190119
0.134686
0.090963
0.0592347
0.0373331
0.0236503
0.208881
0.277745
0.297912
0.280717
0.235863
0.180379
0.1287
0.0877354
0.0577513
0.0368149
0.0235885
0.204928
0.263724
0.282713
0.266766
0.224864
0.172865
0.124216
0.0854115
0.0567755
0.036555
0.0235255
0.201449
0.251393
0.269944
0.255695
0.216649
0.167609
0.121317
0.084081
0.0563501
0.0365482
0.0237665
0.198913
0.240775
0.259214
0.24688
0.210653
0.164259
0.119855
0.0837127
0.0564952
0.0368203
0.0239208
0.197244
0.231405
0.250233
0.240161
0.20685
0.162897
0.119955
0.0844317
0.0573173
0.0374526
0.0242972
0.196221
0.222801
0.242681
0.235494
0.205439
0.163823
0.121914
0.0864751
0.0589797
0.0385424
0.0249184
0.196164
0.214905
0.236211
0.232603
0.206312
0.167148
0.125957
0.0900755
0.0616948
0.0402633
0.0258466
0.197324
0.207579
0.230164
0.230447
0.208872
0.172899
0.132483
0.0956789
0.0658407
0.0429396
0.0274117
0.199948
0.200442
0.224312
0.228678
0.212381
0.180231
0.140934
0.103135
0.0715414
0.0469462
0.0299306
0.204506
0.193448
0.218203
0.226884
0.216252
0.188547
0.151018
0.112602
0.079268
0.0528363
0.0340181
0.212798
0.185633
0.211878
0.22416
0.219144
0.196495
0.161927
0.124088
0.0896804
0.0615373
0.0406536
0.223746
0.177812
0.202838
0.22034
0.220618
0.203215
0.172918
0.137474
0.103404
0.0741667
0.0512314
0.245635
0.185975
0.210584
0.213373
0.213744
0.202178
0.179445
0.150192
0.119544
0.0911119
0.0670883
0.752824
1.08536
0.931962
0.73919
0.544187
0.339262
0.202021
0.118238
0.0679216
0.0390013
0.0229461
0.61797
0.809076
0.837751
0.745366
0.603362
0.427759
0.27238
0.156855
0.0899918
0.0506249
0.0288909
0.343493
0.65491
0.73597
0.707249
0.615503
0.477426
0.330118
0.203505
0.118022
0.0677193
0.0384325
0.309066
0.689558
0.72391
0.688156
0.615194
0.503545
0.371713
0.24529
0.149167
0.0889013
0.0524201
0.347168
0.782492
0.877429
0.767632
0.649754
0.530698
0.404686
0.281358
0.179711
0.111135
0.0696063
0.356132
0.750011
1.09563
1.0142
0.785346
0.596505
0.445178
0.31556
0.209257
0.133482
0.0864281
0.363413
0.722942
1.11649
1.30724
1.05469
0.744734
0.517928
0.357348
0.239322
0.155991
0.103618
0.369148
0.698748
1.08447
1.46429
1.41132
1.01062
0.654465
0.422046
0.274625
0.179242
0.120445
0.37412
0.675087
1.03963
1.44935
1.67706
1.35049
0.867506
0.523819
0.321787
0.204841
0.137487
0.378622
0.64958
0.987389
1.38554
1.75064
1.6589
1.13485
0.665907
0.385241
0.234634
0.154847
0.383422
0.625654
0.931247
1.29572
1.68689
1.82691
1.38796
0.828375
0.461284
0.268546
0.172764
0.389424
0.605366
0.875054
1.18908
1.55797
1.83259
1.56124
0.972521
0.535188
0.302354
0.190218
0.397529
0.594257
0.824927
1.07969
1.3989
1.71203
1.61404
1.05835
0.586772
0.328891
0.205429
0.407754
0.589958
0.781195
0.975721
1.22553
1.52217
1.55535
1.06525
0.601158
0.341865
0.217259
0.421335
0.594366
0.746657
0.883518
1.05493
1.28022
1.41177
0.995808
0.573874
0.339701
0.225331
0.436083
0.60524
0.717922
0.800065
0.898857
1.02377
1.10877
0.903869
0.51844
0.326639
0.231488
0.452688
0.623798
0.695506
0.722651
0.754434
0.802512
0.829089
0.754858
0.484191
0.315864
0.240604
0.473185
0.655562
0.688734
0.665381
0.645082
0.648726
0.655726
0.626325
0.471915
0.327927
0.257044
0.501821
0.710417
0.713854
0.648392
0.592524
0.576701
0.582432
0.574899
0.50066
0.389371
0.30214
0.546831
0.808726
0.804767
0.70776
0.622987
0.596594
0.607211
0.615579
0.584775
0.498045
0.360311
0.624944
1.00315
1.02893
0.918719
0.801296
0.740367
0.695374
0.656544
0.611449
0.492144
0.350455
0.676468
1.17103
1.22654
1.12993
0.917235
0.651058
0.530893
0.433805
0.352111
0.27552
0.207325
0.464407
0.760673
0.757762
0.595201
0.450495
0.348846
0.281299
0.231122
0.190228
0.154528
0.122212
0.290792
0.231976
0.209661
0.199611
0.195863
0.19154
0.18184
0.164978
0.142298
0.11674
0.0915017
0.218796
0.218703
0.0951249
0.0450483
0.0244858
0.0169006
0.0139909
0.0126993
0.0119938
0.0114969
0.0110377
0.261368
0.352102
0.0926897
0.0545374
0.0271889
0.017854
0.0139751
0.0122569
0.0113323
0.0107238
0.0102436
0.303432
0.384324
0.100602
0.0639123
0.0286318
0.0188656
0.0141
0.0120107
0.0108799
0.0101454
0.00955581
0.338477
0.361306
0.10572
0.0676192
0.0288883
0.0196274
0.0141638
0.0118362
0.0105456
0.00970854
0.00903033
0.36296
0.337615
0.108085
0.0663434
0.0289834
0.0200185
0.0141064
0.0116802
0.010281
0.00938238
0.00867251
0.376954
0.326992
0.110083
0.0639849
0.0292824
0.0200951
0.0139813
0.0115303
0.010058
0.00912703
0.00841863
0.381081
0.324011
0.115238
0.0630118
0.0298178
0.020005
0.013867
0.0113843
0.0098617
0.00891316
0.00819593
0.376216
0.327624
0.121524
0.0637682
0.030801
0.0198787
0.0138078
0.0112461
0.00968845
0.00873016
0.00802285
0.364061
0.335683
0.129773
0.0660328
0.0323965
0.0200615
0.013878
0.0111295
0.00954334
0.00857101
0.00786471
0.346176
0.346834
0.142374
0.0706961
0.0349058
0.0207199
0.0141753
0.0111146
0.0094559
0.00844217
0.00772242
0.323175
0.361861
0.159551
0.0780378
0.0385505
0.0220238
0.0147171
0.0112234
0.00942897
0.00835079
0.00760823
0.296215
0.382212
0.180137
0.0877806
0.0433661
0.0240354
0.0155581
0.0114956
0.00947915
0.00830046
0.00751857
0.26764
0.406974
0.20592
0.101002
0.0499683
0.02704
0.0168633
0.012011
0.00964567
0.00831137
0.00746262
0.239327
0.434235
0.239394
0.119731
0.0595101
0.0315916
0.0189287
0.012911
0.0100003
0.00841981
0.00745944
0.21324
0.468375
0.281064
0.144748
0.0726616
0.0381443
0.0220654
0.0143735
0.0106456
0.00868186
0.0075411
0.193284
0.510126
0.334298
0.179004
0.0913106
0.0477688
0.0268875
0.0167425
0.0117731
0.00920268
0.00776552
0.183235
0.557219
0.403277
0.227702
0.119053
0.062567
0.034583
0.0206857
0.0137548
0.0101862
0.00824548
0.18596
0.612594
0.491585
0.296699
0.160672
0.085703
0.0471075
0.0273836
0.0172903
0.0120364
0.00921057
0.199853
0.668316
0.59819
0.394203
0.224784
0.123312
0.0684003
0.0392849
0.0238745
0.0156469
0.0111818
0.217101
0.706332
0.706568
0.523304
0.323322
0.186423
0.106428
0.0616914
0.0369054
0.023142
0.0154546
0.225214
0.703913
0.780791
0.665518
0.46376
0.29147
0.176495
0.106171
0.0644294
0.0398785
0.025484
0.23114
0.67525
0.798395
0.776517
0.629634
0.451067
0.301805
0.195361
0.124683
0.0793721
0.0507477
0.208479
0.580239
0.677769
0.725245
0.692146
0.589684
0.458519
0.335066
0.235318
0.161665
0.109145
0.266734
0.625431
0.732935
0.747908
0.693138
0.603778
0.503968
0.405495
0.316316
0.240888
0.178845
0.176278
0.18783
0.090756
0.0407698
0.0228486
0.0166719
0.0143949
0.013445
0.0129996
0.0127551
0.0125801
0.193637
0.182513
0.0715222
0.0411661
0.0251992
0.0183699
0.0155601
0.0144458
0.0140293
0.0139059
0.0139014
0.218102
0.193602
0.0633963
0.0432233
0.0268437
0.0202487
0.0174159
0.0162737
0.0158668
0.0158323
0.0159945
0.239817
0.176999
0.0597872
0.0444739
0.0270476
0.0207269
0.0180199
0.0172013
0.0172866
0.0178516
0.0187168
0.256444
0.151913
0.0575455
0.0436818
0.0267288
0.0209205
0.0182076
0.0174375
0.0176188
0.0183758
0.0195685
0.269302
0.131153
0.0554734
0.041802
0.026181
0.0209299
0.0181935
0.0174059
0.0175681
0.0183793
0.0197484
0.279971
0.116037
0.0534213
0.0397225
0.0255989
0.0208347
0.0180661
0.0172481
0.0173149
0.0180302
0.0192954
0.28826
0.104889
0.0513742
0.0378128
0.025076
0.0206563
0.0179016
0.0170509
0.0170042
0.0175773
0.0186594
0.295796
0.0965883
0.0495482
0.036259
0.0247293
0.0204471
0.0177531
0.0168611
0.0167107
0.0171412
0.0179936
0.303599
0.090604
0.0480881
0.0350881
0.0245787
0.0202891
0.0176517
0.016711
0.0164805
0.0168189
0.0175472
0.312637
0.0866643
0.0471276
0.0343724
0.0246119
0.020243
0.0176236
0.0166225
0.0163293
0.0166182
0.0172949
0.322391
0.0840762
0.0465073
0.0340295
0.0248224
0.0203247
0.0176839
0.016607
0.016256
0.016518
0.0172197
0.332118
0.0836058
0.046304
0.0340619
0.0252653
0.0205524
0.0178562
0.0166705
0.0162525
0.0164813
0.0172439
0.340744
0.0861021
0.0469346
0.0344575
0.0260581
0.0210223
0.0182233
0.0168617
0.0163545
0.0165212
0.0173067
0.348328
0.0902147
0.0482037
0.0351811
0.0271434
0.0217703
0.0188092
0.0172146
0.0165757
0.0166356
0.0173646
0.355
0.0961788
0.0503125
0.0363189
0.0285202
0.0228618
0.0196658
0.0177854
0.0169462
0.0168364
0.017408
0.36085
0.104372
0.0536219
0.038037
0.0302249
0.024364
0.0208705
0.0186576
0.0175323
0.0171726
0.0174826
0.365906
0.114595
0.0584461
0.040555
0.0323314
0.0263273
0.0225116
0.0199401
0.0184474
0.0177454
0.0176798
0.370207
0.126846
0.0652453
0.0442584
0.0350416
0.0288277
0.0246885
0.0217635
0.0198565
0.0187308
0.0182053
0.373831
0.141356
0.0746943
0.0498091
0.0388002
0.0320586
0.0275408
0.0242767
0.0219629
0.0203859
0.0193631
0.376875
0.158086
0.0875939
0.058226
0.0444594
0.0365168
0.0313531
0.0276793
0.0249832
0.0229972
0.0215328
0.379606
0.176576
0.104606
0.070893
0.0534669
0.0433001
0.0368088
0.0323425
0.0291147
0.0267127
0.0248903
0.38167
0.199202
0.128103
0.090428
0.0685565
0.0548871
0.0458692
0.0396579
0.0352395
0.0320182
0.0296011
0.370339
0.237556
0.184686
0.152494
0.128642
0.115159
0.108657
0.105747
0.104264
0.102821
0.100021
0.0370696
0.0165431
0.0155403
0.0175609
0.0289274
0.0633121
0.0855943
0.1011
0.112205
0.0583222
0.0342579
0.0249709
0.0311787
0.063762
0.0913975
0.119778
0.146355
0.16911
0.0744502
0.0458251
0.0321395
0.0414071
0.0844477
0.116149
0.141466
0.157842
0.169928
0.0830113
0.0546462
0.0386163
0.0511821
0.0959995
0.122521
0.139216
0.149243
0.156139
0.0701188
0.0915376
0.104518
0.112938
0.117032
0.118266
0.117208
0.12363
0.121064
0.0860046
0.112486
0.137017
0.15715
0.170526
0.1833
0.19683
0.198445
0.186459
0.105066
0.128248
0.145125
0.159488
0.17075
0.182562
0.195107
0.196201
0.184265
0.10881
0.124766
0.137057
0.146859
0.150567
0.156144
0.165951
0.168925
0.164313
0.00442737
0.00460096
0.00461641
0.00622173
0.0466859
0.0043841
0.0110759
0.00454771
0.00437701
0.00425251
0.0458943
0.00455828
0.00375204
0.00327919
0.0044839
0.00430353
0.00328201
0.00661387
0.00429302
0.00424828
0.00411288
0.00473815
0.00466606
0.0150811
0.0044926
0.00329075
0.00379805
0.0107164
0.0663108
0.0492492
0.0033421
0.00410571
0.00295782
0.00453596
0.00427501
0.00459186
0.0139783
0.00448774
0.00288463
0.00439053
0.00610327
0.00454526
0.0134177
0.0046592
0.0602939
0.0118121
0.00335364
0.0183184
0.00429756
0.00434239
0.0491351
0.00439617
0.0178711
0.0139642
0.00433342
0.00411961
0.00463531
0.00440181
0.0687251
0.0189393
0.0051496
0.0127935
0.0533837
0.00818916
0.00769549
0.00426025
0.0503318
0.00434227
0.00460134
0.00424469
0.00329834
0.00432293
0.00409187
0.00461824
0.0338639
0.00428383
0.0040214
0.00459825
0.00931669
0.0734964
0.0248953
0.00664238
0.00449531
0.00462623
0.0043795
0.00419461
0.0893412
0.00812403
0.00314978
0.0114478
0.00454316
0.00441223
0.00691214
0.00440449
0.0722936
0.0295929
0.0297168
0.00397307
0.00349752
0.00439245
0.00467408
0.018162
0.00417257
0.00402157
0.00299542
0.00455357
0.0030372
0.00464667
0.00359107
0.0041695
0.00450818
0.00456038
0.00431311
0.0031948
0.0101829
0.00442353
0.00437877
0.00431744
0.00449867
0.00414157
0.00286644
0.00454206
0.00521865
0.00326211
0.0108999
0.00413771
0.0372608
0.00303629
0.00314243
0.00329858
0.0044514
0.0198144
0.0177762
0.00429084
0.00461397
0.00457004
0.0038067
0.00464186
0.0501701
0.00446522
0.012723
0.00411414
0.0248362
0.00402476
0.00437164
0.00321621
0.00442753
0.00432902
0.00432001
0.0042466
0.00428385
0.00441806
0.0033919
0.00452575
0.00428128
0.0049624
0.00635331
0.00376196
0.00321699
0.0043615
0.00363877
0.00426027
0.00431321
0.00443155
0.0531971
0.00466889
0.00353874
0.00424715
0.00423944
0.00761073
0.0030699
0.00309765
0.00448894
0.00405764
0.00409517
0.00396182
0.00318345
0.00344422
0.0612054
0.00392803
0.00432099
0.00454598
0.00465974
0.0127226
0.00450312
0.00440729
0.00426123
0.004303
0.00458863
0.0125837
0.00356752
0.00340525
0.00427353
0.00607709
0.00460945
0.00440046
0.00435683
0.00358425
0.00334101
0.00467918
0.00324626
0.00434144
0.00366398
0.00343294
0.00462732
0.0073108
0.00439089
0.00313469
0.00435025
0.0043393
0.0123008
0.00439452
0.00401397
0.0042312
0.00449074
0.0391035
0.00451063
0.00370756
0.00428533
0.00322974
0.00281665
0.00313391
0.029143
0.00975343
0.00322429
0.00440665
0.0093364
0.00437893
0.00344407
0.0229494
0.0039631
0.00425741
0.00427706
0.0045296
0.00337718
0.0722998
0.0382964
0.00464623
0.0045625
0.00455013
0.00375614
0.0126752
0.00401252
0.00572904
0.00469155
0.00458114
0.00451777
0.00354767
0.0290494
0.037987
0.00353431
0.012565
0.00519313
0.00430094
0.00395432
0.004363
0.00413869
0.00447364
0.00318445
0.00425471
0.00341618
0.00453083
0.00432683
0.00457519
0.00450604
0.0030841
0.00411457
0.00486802
0.00559138
0.00372173
0.0209512
0.00432236
0.00433418
0.00321182
0.00439095
0.00432942
0.00331819
0.00444737
0.00427736
0.00333791
0.00436316
0.00460087
0.0251208
0.0349286
0.00395503
0.00439792
0.0849661
0.00459136
0.00425028
0.0110362
0.00461858
0.0113759
0.00429511
0.00297203
0.004679
0.00435582
0.00421999
0.00456586
0.00427201
0.00335118
0.00444567
0.00271483
0.00438019
0.049673
0.00414986
0.00417178
0.00459942
0.00715251
0.00452664
0.00435225
0.00717154
0.00456605
0.00409673
0.002957
0.00448782
0.00410756
0.00371135
0.00327194
0.00413013
0.0045198
0.00425607
0.01682
0.00435701
0.00338877
0.00565956
0.00419037
0.00445161
0.00371317
0.00424117
0.0541962
0.00442386
0.0539863
0.00381468
0.00464938
0.0035931
0.0412816
0.00583985
0.00458752
0.00447345
0.00396294
0.00399075
0.0124884
0.00433485
0.0049084
0.0191534
0.00721775
0.0150811
0.00437815
0.0127784
0.0432657
0.00841559
0.00390978
0.00373916
0.0041673
0.00395265
0.00468916
0.00283995
0.00399801
0.00466035
0.0526894
0.00386048
0.00331949
0.00451827
0.00451171
0.00431307
0.00326631
0.0030864
0.0037881
0.0104974
0.00472002
0.00444079
0.0124463
0.0346957
0.00319929
0.00386964
0.00461039
0.00391674
0.00425726
0.00437944
0.004254
0.0233622
0.00438731
0.0031588
0.00441338
0.00339198
0.0473566
0.00271296
0.00320937
0.0136933
0.00343607
0.00442815
0.0053733
0.00310314
0.00462569
0.0469071
0.00767258
0.00447816
0.00428957
0.00462164
0.0107225
0.0031646
0.00441046
0.00466138
0.0107345
0.00278368
0.00664625
0.00793184
0.00464254
0.00433836
0.0168025
0.00422804
0.00427872
0.00353983
0.00349591
0.00384867
0.00407863
0.0035911
0.00477076
0.00315586
0.00498101
0.0317713
0.00322522
0.0123428
0.00344678
0.00398277
0.00415422
0.00457973
0.00478433
0.0045739
0.00883958
0.00448567
0.00315974
0.00341577
0.00410524
0.00424399
0.00329233
0.0240643
0.048328
0.00327238
0.00468844
0.00395706
0.0891665
0.013965
0.00273559
0.00419394
0.00578689
0.0211007
0.00343726
0.00434655
0.00381645
0.00444008
0.00461334
0.00449924
0.00430074
0.00443226
0.0111644
0.00308244
0.00325438
0.00492361
0.00459058
0.00434228
0.0391005
0.00320075
0.00394611
0.00422686
0.00800704
0.00760942
0.00545505
0.00546768
0.00440858
0.00393297
0.00349012
0.00422054
0.00509135
0.00420941
0.00458793
0.00432999
0.00557882
0.00354873
0.00426738
0.00445008
0.0041278
0.0165793
0.00434257
0.00464752
0.00323132
0.0312163
0.00404737
0.00379654
0.00434168
0.00334816
0.0043987
0.00421357
0.00440213
0.00319488
0.00328074
0.0042639
0.00338487
0.00400159
0.00479262
0.00374637
0.00370209
0.00454067
0.0045342
0.0358536
0.00410896
0.00343014
0.00442986
0.016916
0.00461935
0.0333876
0.00436116
0.00350593
0.00433618
0.00471211
0.0420409
0.00764856
0.00337341
0.00445221
0.00360307
0.00412027
0.00459909
0.00442729
0.00457388
0.00417218
0.0228209
0.00451793
0.00435506
0.0115835
0.00443734
0.00920197
0.0042706
0.00619536
0.00331661
0.00316204
0.0046789
0.00447615
0.00463497
0.00610298
0.00361657
0.00450177
0.00448819
0.00325464
0.00461618
0.0126751
0.00460648
0.0650468
0.00423477
0.0040144
0.00294445
0.0033524
0.012957
0.0351668
0.00415926
0.00411073
0.00430863
0.00460795
0.00324663
0.00333134
0.00423606
0.00342708
0.0326805
0.034436
0.00449134
0.00434396
0.00459724
0.0231206
0.0411521
0.00421414
0.00454415
0.0043731
0.0343434
0.00432843
0.00307177
0.00318691
0.00509888
0.0326101
0.00443003
0.00451999
0.00446335
0.00786658
0.00434204
0.03479
0.00320457
0.00409621
0.00469585
0.00544067
0.00463789
0.00467358
0.0711071
0.00440798
0.00354039
0.00498588
0.00939784
0.0242078
0.0039555
0.00362733
0.00421996
0.00443693
0.00449192
0.0262341
0.00300651
0.00388887
0.00425088
0.00450051
0.00657743
0.00424573
0.00449268
0.00420391
0.00429943
0.00321476
0.00317157
0.00951622
0.00567405
0.00401561
0.00525102
0.00429362
0.00867995
0.00427303
0.00445469
0.028935
0.0171017
0.00438294
0.00439089
0.00381037
0.004162
0.00433634
0.00565006
0.00460655
0.00416724
0.00331741
0.0029697
0.00381976
0.00314151
0.00319473
0.00555126
0.0108255
0.00492509
0.00580612
0.00353383
0.00343977
0.006212
0.00349866
0.00462132
0.0041646
0.00571222
0.00393891
0.00421363
0.00431774
0.00342452
0.0126975
0.0288168
0.0036061
0.0054594
0.00442402
0.00524077
0.00454988
0.00429851
0.00426823
0.00344245
0.00425268
0.00447247
0.00418812
0.00459447
0.00734813
0.00615648
0.0221541
0.00427647
0.004239
0.00399063
0.0077205
0.00447307
0.0159208
0.00430238
0.0278279
0.0151397
0.00442894
0.00334671
0.00465995
0.00298527
0.00578564
0.00318987
0.0249939
0.00364637
0.0042742
0.00463649
0.00371989
0.00320894
0.0042606
0.0332294
0.0043701
0.00408213
0.0046327
0.00374471
0.00419986
0.00317054
0.00455751
0.00440076
0.00440589
0.00381468
0.00630992
0.00456214
0.00334587
0.00437491
0.00423702
0.00322763
0.00407893
0.00517467
0.00545398
0.00294309
0.0040853
0.00372603
0.00363366
0.00652974
0.00299281
0.0114764
0.00446843
0.00336724
0.00449092
0.00440285
0.00666878
0.00438587
0.00337835
0.0032741
0.00432645
0.00416714
0.00413385
0.00427219
0.00458517
0.0729616
0.00949566
0.0633093
0.00414008
0.00397607
0.0126533
0.0264652
0.00450677
0.00349909
0.00360046
0.00298615
0.00452694
0.00332814
0.0319215
0.00454937
0.00929484
0.00352089
0.00471328
0.0286072
0.00438059
0.00422023
0.00421945
0.00337567
0.00437739
0.00320009
0.00457222
0.00299509
0.00430784
0.0029781
0.00421093
0.0153091
0.00351861
0.00429119
0.0211687
0.0123312
0.00446166
0.0032007
0.00385304
0.00745699
0.00518576
0.00379916
0.0042551
0.0105945
0.00295655
0.00499733
0.00428947
0.00437083
0.00441378
0.0166496
0.00368239
0.0046906
0.0044872
0.00454779
0.0320971
0.0172743
0.00361604
0.00457888
0.00337802
0.00437872
0.00455675
0.00457895
0.00462473
0.00448091
0.00463708
0.00317996
0.00519907
0.0106356
0.00308459
0.00425926
0.00442879
0.00449877
0.00376672
0.0245497
0.00459521
0.00407782
0.0035157
0.016587
0.0138819
0.00469099
0.00391784
0.0114335
0.00443211
0.00446268
0.0105491
0.00421912
0.00456828
0.004339
0.00499805
0.00399491
0.00389916
0.00455609
0.00409368
0.0065225
0.00474467
0.00456674
0.00308509
0.00732031
0.00619048
0.0091084
0.00464057
0.00428305
0.00717742
0.00304889
0.00674607
0.00460102
0.00418626
0.00464055
0.00433867
0.00459302
0.0341514
0.00344279
0.00887383
0.0150532
0.0101061
0.00454999
0.0513268
0.00466975
0.00429794
0.00526762
0.0044874
0.00441774
0.00441565
0.00305929
0.0209315
0.00496447
0.0044148
0.0110788
0.00442472
0.00468819
0.00434495
0.00438766
0.00431792
0.00449541
0.00455961
0.00435387
0.0670639
0.00438042
0.00425663
0.004349
0.0183317
0.00428994
0.00450717
0.00520637
0.0624748
0.00424937
0.00450465
0.0030044
0.00882745
0.00465096
0.00454013
0.0041888
0.00400738
0.00605748
0.00460015
0.0114076
0.00298556
0.0108567
0.00298793
0.00458031
0.0032536
0.00564117
0.00444167
0.00451953
0.00444853
0.00460864
0.00395736
0.00966331
0.00425051
0.00515227
0.0692898
0.00783536
0.00393775
0.00578887
0.00466338
0.00456029
0.00315893
0.00276179
0.00328872
0.00439694
0.0269152
0.00431159
0.00335919
0.00431516
0.0031591
0.00313496
0.00345113
0.00349492
0.00419867
0.00452764
0.0443302
0.00438913
0.0462447
0.00418387
0.00305649
0.00423463
0.00421054
0.0615612
0.00438256
0.00460348
0.0035207
0.0086441
0.0083236
0.00342965
0.00319617
0.00331021
0.0363588
0.0421507
0.00451973
0.00425519
0.0501765
0.00439858
0.0054832
0.00449542
0.00926599
0.00301475
0.00449049
0.00460469
0.00343468
0.00464542
0.00440557
0.003606
0.0046208
0.00426522
0.00446037
0.004346
0.0045505
0.00443456
0.00478766
0.00449713
0.00418414
0.00660611
0.00354727
0.00396987
0.00461038
0.00512078
0.002971
0.00460043
0.00465023
0.00408679
0.0154582
0.0476711
0.00397021
0.00345498
0.00410179
0.00434853
0.00306832
0.00385393
0.00424376
0.00563451
0.00455463
0.0696329
0.00500052
0.0277555
0.00455283
0.00455615
0.00500336
0.0434306
0.00336722
0.00314311
0.00467579
0.00305641
0.0194394
0.00456295
0.00402789
0.0419169
0.00368852
0.024299
0.00364514
0.00445297
0.00433036
0.00425061
0.00420978
0.00696568
0.00301039
0.00613188
0.0431993
0.00460224
0.00305105
0.00384767
0.00512723
0.00909098
0.00591699
0.00439366
0.00406215
0.00314508
0.00454451
0.00465427
0.00467884
0.0300993
0.00412568
0.00461029
0.00371148
0.00796946
0.00320745
0.00452452
0.00797907
0.00406875
0.00407634
0.00397555
0.0045563
0.00431237
0.00447355
0.0142926
0.00438228
0.0165389
0.00399796
0.00346622
0.0045063
0.00417782
0.00450338
0.00437773
0.00397214
0.0422799
0.0115489
0.0551144
0.00936002
0.0435186
0.00420637
0.00436884
0.00273836
0.00462884
0.00324647
0.0229388
0.00430365
0.00495838
0.00388434
0.047111
0.00418542
0.00320102
0.00455021
0.0433814
0.00469534
0.0352447
0.00414558
0.00469212
0.00507589
0.00823702
0.00417245
0.0051607
0.00759827
0.00445746
0.0140069
0.0055851
0.024643
0.00328432
0.00288174
0.0123797
0.00433005
0.00461098
0.00371583
0.00476402
0.00344184
0.00330365
0.00380844
0.00390364
0.00325971
0.053963
0.00437608
0.00432356
0.00421499
0.00457418
0.00295918
0.00340186
0.00424636
0.00330986
0.0425467
0.00448991
0.0563495
0.00755325
0.00448897
0.00509548
0.00382141
0.00321535
0.00318337
0.0109435
0.00442245
0.00452607
0.0446053
0.00437558
0.0045866
0.00355572
0.00454384
0.00453828
0.0483475
0.00456263
0.0318833
0.0039845
0.00662508
0.00428898
0.0043021
0.0136558
0.00324335
0.0121399
0.00444512
0.00302676
0.0144043
0.00305256
0.00318899
0.00528012
0.00400219
0.00424116
0.00952618
0.00713956
0.00406525
0.00432169
0.00336369
0.00380975
0.00462962
0.00358895
0.047173
0.00425581
0.00468964
0.00450541
0.00404802
0.00277626
0.00320661
0.0032754
0.0803987
0.00467928
0.00587682
0.00555665
0.0045768
0.00378751
0.00424552
0.00424322
0.0592333
0.00456395
0.0180267
0.0239583
0.00456555
0.00449504
0.00464865
0.0313403
0.0168092
0.0219185
0.00335576
0.00456823
0.00429215
0.00326434
0.0194756
0.00650553
0.0030819
0.00434244
0.00613978
0.0153395
0.0062464
0.00416027
0.0126084
0.0282894
0.00405082
0.0038244
0.00430746
0.00436389
0.030296
0.00318812
0.00367925
0.00460016
0.00467169
0.00411066
0.0493746
0.00509605
0.00300221
0.00818122
0.00564652
0.0043728
0.0142841
0.00590711
0.00462152
0.00303672
0.00473796
0.00412581
0.0302346
0.00453441
0.00442574
0.00426107
0.00559815
0.00309706
0.00435594
0.00747622
0.00461456
0.00456051
0.00468819
0.00330138
0.00442861
0.00538302
0.00416502
0.00455814
0.0492715
0.00446165
0.00346677
0.00346005
0.00429253
0.00350681
0.00534723
0.00452689
0.00456577
0.00448434
0.00302826
0.00449638
0.00428692
0.0044037
0.00351597
0.0155059
0.00311858
0.00587488
0.0043005
0.00587087
0.00413652
0.00467572
0.0043182
0.00458668
0.00316193
0.00413995
0.00325493
0.00412149
0.00421052
0.00450602
0.00438622
0.0137644
0.00546808
0.0122853
0.00468828
0.00298541
0.0414251
0.00325392
0.00305383
0.00439703
0.00548846
0.0312304
0.00514781
0.0032005
0.00374936
0.00363452
0.00300948
0.00450114
0.0682777
0.00309204
0.00415044
0.00384401
0.00379568
0.00360424
0.00290389
0.00500395
0.00304946
0.0561855
0.0233284
0.0044863
0.00431982
0.0222061
0.0437304
0.00401546
0.00455074
0.00426872
0.00462918
0.00443867
0.00443751
0.00440175
0.00464862
0.0129191
0.00278908
0.0043389
0.00442726
0.0043895
0.00415323