/*--------------------------------*- C++ -*----------------------------------*\
| =========                 |                                                 |
| \\      /  F ield         | OpenFOAM: The Open Source CFD Toolbox           |
|  \\    /   O peration     | Version:  3.0.1                                 |
|   \\  /    A nd           | Web:      www.OpenFOAM.org                      |
|    \\/     M anipulation  |                                                 |
\*---------------------------------------------------------------------------*/
FoamFile
{
    version     2.0;
    format      ascii;
    class       volScalarField;
    location    "0.247257";
    object      nut;
}
// * * * * * * * * * * * * * * * * * * * * * * * * * * * * * * * * * * * * * //

dimensions      [0 2 -1 0 0 0 0];

internalField   nonuniform List<scalar> 
21246
(
2.93375e-05
0.00011204
0.000111482
0.000117392
0.000128104
0.000129765
0.000123294
0.000119533
0.000121856
0.000129847
0.000143663
2.43532e-05
9.3804e-05
9.9602e-05
0.000118444
0.000133941
0.000139074
0.000136097
0.00013376
0.000137395
0.000147665
0.000164377
2.43859e-05
8.41665e-05
8.74865e-05
0.000119216
0.000138029
0.000145331
0.000144756
0.000144423
0.000149651
0.000162255
0.000182534
2.64427e-05
7.42204e-05
7.92296e-05
0.000116357
0.00013593
0.000146673
0.000148476
0.000150648
0.000158106
0.000173305
0.000196739
2.90135e-05
6.52982e-05
7.36299e-05
0.000110653
0.000130364
0.000144463
0.000148168
0.000152966
0.000162857
0.000180469
0.0002058
3.1472e-05
5.85429e-05
6.91539e-05
0.000103851
0.000124071
0.000139574
0.000144813
0.000151798
0.000163701
0.000183224
0.000209881
3.38282e-05
5.36795e-05
6.5282e-05
9.70933e-05
0.000117939
0.000133184
0.000139515
0.000147976
0.00016134
0.000182478
0.000211004
3.60785e-05
5.01195e-05
6.18272e-05
9.10001e-05
0.000112025
0.000126242
0.000133187
0.000142368
0.000156569
0.000178742
0.000208156
3.80821e-05
4.74674e-05
5.87308e-05
8.5731e-05
0.000106465
0.000119395
0.000126457
0.000135703
0.000150128
0.000172766
0.00020327
3.98213e-05
4.5635e-05
5.59756e-05
8.123e-05
0.000101372
0.00011298
0.000119691
0.000128465
0.000142534
0.000165003
0.000196163
4.13462e-05
4.41608e-05
5.34849e-05
7.73161e-05
9.67429e-05
0.000107055
0.000113076
0.000120978
0.000134182
0.000155843
0.000186841
4.25321e-05
4.32243e-05
5.12122e-05
7.38393e-05
9.25269e-05
0.000101594
0.000106723
0.000113478
0.000125402
0.000145643
0.000175837
4.32265e-05
4.24338e-05
4.82223e-05
6.97998e-05
8.82319e-05
9.64909e-05
0.000100694
0.000106102
0.000116419
0.000134678
0.000163118
4.34667e-05
4.14279e-05
4.38212e-05
6.31823e-05
8.11491e-05
8.99306e-05
9.38804e-05
9.83812e-05
0.000107002
0.000122858
0.000148499
4.31695e-05
4.08597e-05
3.99355e-05
5.56884e-05
7.22857e-05
8.19287e-05
8.62825e-05
9.03373e-05
9.7388e-05
0.000110611
0.000132604
4.23073e-05
4.04883e-05
3.66834e-05
4.79315e-05
6.19346e-05
7.20301e-05
7.74591e-05
8.17103e-05
8.76223e-05
9.82828e-05
0.000116179
4.09615e-05
4.00615e-05
3.40873e-05
4.04806e-05
5.07448e-05
5.99817e-05
6.6499e-05
7.16674e-05
7.72614e-05
8.58655e-05
9.98035e-05
3.89311e-05
3.96941e-05
3.24867e-05
3.46905e-05
4.08397e-05
4.7625e-05
5.37433e-05
5.94465e-05
6.53358e-05
7.28007e-05
8.35867e-05
3.62192e-05
3.91838e-05
3.17173e-05
3.07591e-05
3.32571e-05
3.69269e-05
4.10112e-05
4.56329e-05
5.10936e-05
5.78295e-05
6.65451e-05
3.28243e-05
3.82253e-05
3.1536e-05
2.85522e-05
2.82913e-05
2.9209e-05
3.07743e-05
3.30547e-05
3.64068e-05
4.12012e-05
4.77352e-05
2.87057e-05
3.63556e-05
3.15492e-05
2.77724e-05
2.57472e-05
2.47007e-05
2.42606e-05
2.43633e-05
2.51989e-05
2.70543e-05
3.02307e-05
2.38848e-05
3.29739e-05
3.11098e-05
2.79157e-05
2.52133e-05
2.30553e-05
2.13585e-05
2.00562e-05
1.91933e-05
1.88757e-05
1.92389e-05
1.83278e-05
2.75385e-05
2.91526e-05
2.79267e-05
2.58666e-05
2.36258e-05
2.14866e-05
1.95329e-05
1.78196e-05
1.63981e-05
1.53167e-05
1.2567e-05
2.42624e-05
2.71195e-05
2.7556e-05
2.67576e-05
2.53134e-05
2.36411e-05
2.19095e-05
2.02096e-05
1.86065e-05
1.71399e-05
2.92871e-05
9.98847e-05
0.000102543
0.000105808
0.000112838
0.000109936
0.000101614
9.7134e-05
9.75264e-05
0.000101589
0.000108786
2.37297e-05
8.97576e-05
7.72274e-05
0.000100659
0.000107436
0.00010178
9.12367e-05
8.49314e-05
8.37545e-05
8.62491e-05
9.1694e-05
2.45961e-05
8.66903e-05
6.36286e-05
9.80664e-05
0.000104411
9.7018e-05
8.30049e-05
7.39237e-05
7.01914e-05
6.97864e-05
7.1539e-05
2.78057e-05
7.6746e-05
5.86117e-05
9.42326e-05
0.000100475
9.32746e-05
7.71668e-05
6.67266e-05
6.18586e-05
6.02484e-05
6.04963e-05
3.15742e-05
6.68328e-05
5.57744e-05
8.8487e-05
9.61038e-05
8.94838e-05
7.28781e-05
6.22398e-05
5.72182e-05
5.54663e-05
5.54849e-05
3.50373e-05
5.96052e-05
5.33015e-05
8.25093e-05
9.19194e-05
8.55202e-05
6.93639e-05
5.91864e-05
5.43415e-05
5.25988e-05
5.25065e-05
3.80858e-05
5.46339e-05
5.09907e-05
7.7322e-05
8.8087e-05
8.16773e-05
6.64733e-05
5.71489e-05
5.28211e-05
5.15956e-05
5.23131e-05
4.07974e-05
5.10685e-05
4.88443e-05
7.30423e-05
8.46497e-05
7.82369e-05
6.41919e-05
5.59328e-05
5.24177e-05
5.22252e-05
5.45744e-05
4.29948e-05
4.85224e-05
4.69108e-05
6.95846e-05
8.16974e-05
7.53865e-05
6.24968e-05
5.53512e-05
5.2761e-05
5.3716e-05
5.73765e-05
4.47152e-05
4.67037e-05
4.52196e-05
6.677e-05
7.93254e-05
7.31317e-05
6.13363e-05
5.52218e-05
5.3524e-05
5.56123e-05
6.09455e-05
4.59182e-05
4.55036e-05
4.37577e-05
6.44671e-05
7.75943e-05
7.14204e-05
6.06576e-05
5.53736e-05
5.44416e-05
5.75074e-05
6.45519e-05
4.66516e-05
4.45989e-05
4.21192e-05
6.18563e-05
7.60755e-05
7.00853e-05
6.04055e-05
5.56657e-05
5.53453e-05
5.90652e-05
6.73195e-05
4.68311e-05
4.36934e-05
3.97268e-05
5.74356e-05
7.28526e-05
6.86068e-05
6.05478e-05
5.61746e-05
5.6332e-05
6.04138e-05
6.93554e-05
4.64779e-05
4.26725e-05
3.68213e-05
5.12113e-05
6.74767e-05
6.65883e-05
6.08247e-05
5.68585e-05
5.72984e-05
6.14514e-05
7.04162e-05
4.55356e-05
4.17281e-05
3.42322e-05
4.45581e-05
6.0276e-05
6.33828e-05
6.07578e-05
5.75978e-05
5.81647e-05
6.2108e-05
7.04589e-05
4.39824e-05
4.07602e-05
3.21239e-05
3.82599e-05
5.17183e-05
5.8223e-05
5.95171e-05
5.80359e-05
5.88135e-05
6.23424e-05
6.95656e-05
4.18221e-05
3.96728e-05
3.05474e-05
3.29179e-05
4.27981e-05
5.07738e-05
5.58543e-05
5.72465e-05
5.88594e-05
6.2058e-05
6.79197e-05
3.89814e-05
3.83907e-05
2.94796e-05
2.89094e-05
3.48436e-05
4.18903e-05
4.8862e-05
5.35349e-05
5.71142e-05
6.07025e-05
6.54662e-05
3.5408e-05
3.67602e-05
2.87716e-05
2.62256e-05
2.87052e-05
3.33059e-05
3.93802e-05
4.55083e-05
5.12637e-05
5.63831e-05
6.11882e-05
3.10901e-05
3.45254e-05
2.81731e-05
2.46451e-05
2.45873e-05
2.65191e-05
3.00278e-05
3.46621e-05
4.01986e-05
4.61315e-05
5.18109e-05
2.60232e-05
3.13241e-05
2.72923e-05
2.38078e-05
2.22715e-05
2.21402e-05
2.31181e-05
2.50465e-05
2.79161e-05
3.16423e-05
3.589e-05
2.02289e-05
2.66678e-05
2.54524e-05
2.30419e-05
2.11697e-05
1.99394e-05
1.92836e-05
1.91528e-05
1.95224e-05
2.03474e-05
2.15016e-05
1.38186e-05
2.00062e-05
2.12203e-05
2.06483e-05
1.96121e-05
1.85071e-05
1.74607e-05
1.65638e-05
1.59138e-05
1.55543e-05
1.54985e-05
8.53235e-06
1.09312e-05
1.28123e-05
1.4507e-05
1.5795e-05
1.68192e-05
1.76513e-05
1.82936e-05
1.8763e-05
1.9093e-05
1.93116e-05
3.82328e-05
0.000175508
0.00020565
0.000241053
0.000257353
0.000250381
0.000217774
0.000184545
0.000161877
0.000145636
0.000131858
3.10839e-05
0.000125482
0.000140437
0.00019656
0.000251262
0.00025874
0.000225516
0.000184317
0.000155656
0.000135596
0.000118758
2.95678e-05
9.51926e-05
0.00011826
0.000153223
0.000212
0.00025826
0.000236315
0.000189306
0.000153932
0.000129967
0.00011109
2.98551e-05
7.93742e-05
0.000108029
0.00013486
0.000180568
0.000243053
0.000245771
0.000197724
0.000156116
0.000128464
0.000108146
3.0135e-05
7.19586e-05
0.000101368
0.000124002
0.000160253
0.000215499
0.000249351
0.000208366
0.000161641
0.000130483
0.000109223
2.9759e-05
6.89229e-05
9.65854e-05
0.00011626
0.000144459
0.000186537
0.000230266
0.000217959
0.000170189
0.000135304
0.000112614
2.88592e-05
6.85607e-05
9.37107e-05
0.000111084
0.000132616
0.000162058
0.000199247
0.000213455
0.000181394
0.000142846
0.00011796
2.75754e-05
7.03765e-05
9.30935e-05
0.000108453
0.000124827
0.000144607
0.000170479
0.000193392
0.00018702
0.000153832
0.000126111
2.59031e-05
7.37856e-05
9.4853e-05
0.000108149
0.000120365
0.000133175
0.000148971
0.000167898
0.00017979
0.000164115
0.000136914
2.40245e-05
7.88362e-05
9.92583e-05
0.00011024
0.000118775
0.000126406
0.000134674
0.00014589
0.000161401
0.000166601
0.000149078
2.26275e-05
8.74214e-05
0.000107795
0.000115793
0.000120557
0.000124007
0.000126959
0.000131409
0.000141955
0.000157252
0.000157806
2.28432e-05
0.000103236
0.000123495
0.000127081
0.000126939
0.000126107
0.000124907
0.000124364
0.000128545
0.000142239
0.000157067
2.4293e-05
0.000126846
0.000149266
0.000147363
0.000140101
0.00013347
0.000127871
0.000123248
0.000122098
0.000129752
0.000147402
2.49701e-05
0.000151083
0.000182987
0.000179083
0.000163327
0.000148305
0.000136584
0.000127493
0.000121791
0.000123271
0.000136158
2.43492e-05
0.000169146
0.000216901
0.000219896
0.00019891
0.000173754
0.000153255
0.000137997
0.000127449
0.000123386
0.000129506
2.27941e-05
0.000178693
0.000243115
0.000261081
0.000244521
0.000211936
0.000180828
0.000156875
0.000139942
0.000130176
0.000129638
2.06595e-05
0.000179996
0.000257973
0.000292584
0.000291292
0.00026073
0.000221314
0.000187029
0.000161507
0.000144785
0.00013749
1.81833e-05
0.000174323
0.000261152
0.000308785
0.00032732
0.000311286
0.000272432
0.00023011
0.000194881
0.000169528
0.00015464
1.566e-05
0.000162165
0.000253391
0.000308696
0.000344501
0.000351517
0.000326415
0.000284293
0.000241668
0.000207046
0.00018344
1.33229e-05
0.000142037
0.000236502
0.000296706
0.000344596
0.000375319
0.000374356
0.000344053
0.000300496
0.000258373
0.000225926
1.15446e-05
0.000120029
0.000213816
0.000279465
0.000336198
0.000386327
0.000410774
0.000400586
0.000364188
0.000318832
0.000279307
1.05621e-05
9.3656e-05
0.000178228
0.000246977
0.000311765
0.000373614
0.000421146
0.000432309
0.000411192
0.000370622
0.000329065
1.15136e-05
9.2559e-05
0.00014771
0.000195165
0.000240006
0.000285092
0.000318484
0.000340948
0.00035372
0.000352059
0.000333364
8.59563e-06
1.9919e-05
3.14285e-05
4.37792e-05
5.56057e-05
6.57691e-05
7.43863e-05
8.48705e-05
0.00010645
0.000148476
0.000198841
3.30075e-05
0.000170057
0.000207945
0.000231187
0.000249378
0.000245633
0.000219228
0.000191668
0.000172324
0.000158463
0.000146659
2.16443e-05
0.000129166
0.000195602
0.000237957
0.000258414
0.000257721
0.000234198
0.000206471
0.000186975
0.000174204
0.000164624
2.11285e-05
0.000108109
0.000178056
0.000249051
0.000279866
0.000280966
0.000256196
0.000223696
0.000200731
0.000187126
0.000178484
2.30208e-05
9.85044e-05
0.000166929
0.000251837
0.000295574
0.000302867
0.000279384
0.000243475
0.000215049
0.000197843
0.000187711
2.55656e-05
9.21918e-05
0.000162286
0.000249751
0.000297866
0.00031165
0.000292809
0.000257631
0.000227359
0.000207907
0.000195996
2.80215e-05
8.80236e-05
0.000160144
0.000246075
0.000297325
0.000317448
0.000303059
0.000268561
0.000236942
0.000216024
0.000203129
3.02538e-05
8.53394e-05
0.000159098
0.000242543
0.00029587
0.000321559
0.000312082
0.000279128
0.000246684
0.000224407
0.000210066
3.23286e-05
8.37646e-05
0.0001588
0.000240027
0.000295239
0.00032598
0.00032116
0.000290227
0.000257333
0.000233941
0.000218373
3.40706e-05
8.28737e-05
0.000158896
0.000238724
0.000296146
0.000331592
0.000331508
0.000303
0.000269826
0.000245264
0.000228426
3.54592e-05
8.2273e-05
0.000159266
0.000238412
0.000298522
0.000338436
0.000343601
0.000317916
0.000284353
0.000258133
0.00023908
3.64669e-05
8.15061e-05
0.000159413
0.00023857
0.000301758
0.000346356
0.000357374
0.000335079
0.000301133
0.000273023
0.000251947
3.71917e-05
8.06409e-05
0.000159252
0.000238946
0.000305282
0.000354778
0.000372287
0.000354209
0.000320096
0.000289688
0.000265338
3.75603e-05
7.93955e-05
0.00015849
0.000239019
0.000308473
0.000363011
0.000387639
0.000374816
0.000341013
0.000308093
0.000279972
3.75407e-05
7.62307e-05
0.000155035
0.000236446
0.000308942
0.000368721
0.000401699
0.000396024
0.000363521
0.000328368
0.00029667
3.70709e-05
7.2198e-05
0.000148821
0.000229883
0.000303586
0.000366443
0.000406904
0.000411461
0.000385024
0.000349972
0.000315973
3.61264e-05
6.72731e-05
0.000139639
0.000219097
0.000292539
0.000356381
0.000402225
0.000417791
0.000401859
0.000371013
0.000337378
3.4708e-05
6.14024e-05
0.000127368
0.000203644
0.000275613
0.000338856
0.000387669
0.000412793
0.000409967
0.000388362
0.000359602
3.27379e-05
5.49013e-05
0.000112544
0.000183554
0.000252762
0.000314336
0.000364121
0.00039616
0.000406311
0.000398102
0.000380102
3.01805e-05
4.79154e-05
9.58282e-05
0.000159061
0.000223753
0.00028271
0.000332236
0.000368789
0.000389938
0.000396902
0.000394853
2.7007e-05
4.04994e-05
7.78541e-05
0.00013072
0.000188369
0.000243286
0.00029158
0.000330978
0.000360717
0.000382047
0.000398401
2.31866e-05
3.27286e-05
5.95443e-05
9.99016e-05
0.000147306
0.000195565
0.00024081
0.000281211
0.000316811
0.00034936
0.000381214
1.87273e-05
2.4795e-05
4.19542e-05
6.89237e-05
0.000103031
0.000140741
0.000179211
0.000216905
0.0002539
0.000291717
0.000331757
1.3662e-05
1.64213e-05
2.52929e-05
3.97198e-05
5.92738e-05
8.29317e-05
0.000109529
0.000138216
0.000168912
0.000202457
0.000239945
8.28848e-06
9.48936e-06
1.36742e-05
1.99562e-05
2.83993e-05
3.90643e-05
5.20687e-05
6.77849e-05
8.69043e-05
0.000110188
0.000138664
2.52735e-05
0.000167887
0.000271519
0.000337262
0.000378011
0.000408345
0.000438523
0.000466705
0.000483352
0.000477544
0.000448624
1.8937e-05
0.000150371
0.000266744
0.000343213
0.000385751
0.000411024
0.000431955
0.000451115
0.000461515
0.000454329
0.0004258
1.64419e-05
0.000135502
0.000250684
0.000335777
0.000385224
0.000411876
0.000430431
0.000447014
0.000456564
0.000448761
0.000418776
1.63032e-05
0.000126242
0.000239997
0.00033075
0.000387196
0.000417219
0.000434763
0.000447735
0.000453284
0.000444454
0.000416755
1.68128e-05
0.000121544
0.00023272
0.000325374
0.000386113
0.000417895
0.000432177
0.000439421
0.000441953
0.00043483
0.000409881
1.74698e-05
0.000120177
0.000229601
0.00032109
0.000382888
0.000416554
0.000431628
0.000438905
0.000441855
0.000436694
0.000416086
1.8109e-05
0.00011977
0.000228197
0.00031795
0.000379522
0.00041445
0.000430973
0.000439503
0.000443941
0.000440263
0.000420404
1.89395e-05
0.000120091
0.00022767
0.000315433
0.000376205
0.000411736
0.000429703
0.000440026
0.000446839
0.000446651
0.000431822
1.96804e-05
0.000120477
0.000227385
0.000313512
0.000373329
0.000409116
0.000428429
0.000440763
0.000450027
0.000452096
0.000436858
2.02387e-05
0.000120105
0.000226448
0.000311568
0.000370785
0.000406894
0.000427479
0.000441635
0.000452667
0.000455153
0.000437163
2.07015e-05
0.000119312
0.00022508
0.000309599
0.000368578
0.000405167
0.000426942
0.000442593
0.000454812
0.000457853
0.000442021
2.11117e-05
0.000118721
0.000223958
0.00030799
0.00036686
0.000403987
0.000426867
0.000443747
0.000456759
0.000459917
0.000443408
2.13684e-05
0.000117819
0.000222654
0.000306489
0.000365551
0.000403423
0.000427453
0.000445471
0.000459238
0.000462918
0.000447744
2.14384e-05
0.000115987
0.000220462
0.000304614
0.000364442
0.0004035
0.000428891
0.000448102
0.000462741
0.000467452
0.000454758
2.13393e-05
0.000113877
0.000217918
0.000302604
0.000363568
0.000404191
0.000431204
0.000451738
0.000467286
0.000472393
0.000457137
2.10355e-05
0.000111115
0.000214652
0.000300163
0.000362755
0.000405462
0.000434478
0.000456526
0.000472983
0.000478072
0.000460801
2.0511e-05
0.000107052
0.000209812
0.000296609
0.000361578
0.000407135
0.00043872
0.000462568
0.000479956
0.000484774
0.000465658
1.97055e-05
0.000101429
0.000203097
0.000291497
0.000359472
0.000408688
0.000443572
0.000469682
0.00048824
0.000492761
0.00047004
1.86177e-05
9.38484e-05
0.000192797
0.000282472
0.000353947
0.0004077
0.000447126
0.000476742
0.000497095
0.000502203
0.000477967
1.72098e-05
8.38113e-05
0.000178127
0.000268432
0.000343214
0.000401065
0.000443616
0.000474216
0.00049466
0.000500072
0.000477616
1.54286e-05
7.11859e-05
0.000158335
0.000247893
0.000325481
0.000387065
0.000431724
0.000461014
0.000477342
0.000478715
0.000457965
1.32642e-05
5.76891e-05
0.00013431
0.000219787
0.000298721
0.000363472
0.000410016
0.000437485
0.000447736
0.000441504
0.000418051
1.0546e-05
4.0479e-05
0.000101536
0.000181097
0.000259035
0.000325407
0.000373993
0.000401556
0.000408432
0.000396565
0.000369023
7.79712e-06
3.72516e-05
8.69578e-05
0.000142386
0.000200935
0.00025668
0.00030221
0.000331507
0.000341949
0.000333986
0.000311197
2.15864e-05
7.62108e-05
0.000141062
0.000210098
0.000275764
0.000342589
0.000412688
0.000472065
0.000520162
0.000522135
0.000493318
1.31297e-05
3.96914e-05
7.69973e-05
0.000121077
0.000168862
0.00021588
0.000261796
0.000328882
0.000473687
0.000556633
0.000546936
1.21809e-05
3.97223e-05
6.24432e-05
8.72443e-05
0.000117569
0.000151055
0.000183798
0.00021967
0.000284116
0.000456363
0.000581936
1.44591e-05
5.18987e-05
9.17103e-05
0.000101482
0.000111106
0.000126486
0.000145731
0.000166867
0.000195705
0.000260063
0.000444115
1.75552e-05
5.82797e-05
0.00012692
0.000170089
0.000160331
0.000147542
0.000143053
0.000146455
0.000156583
0.000180354
0.000254645
2.0753e-05
6.58585e-05
0.000147663
0.000233883
0.000265881
0.000231097
0.000190417
0.000162513
0.000149137
0.000149318
0.000175605
2.38475e-05
7.64391e-05
0.000166708
0.000274457
0.000359613
0.000362385
0.000298393
0.000228465
0.000177825
0.000149853
0.000146156
2.68384e-05
8.90177e-05
0.000187536
0.000302973
0.000411538
0.000481024
0.000442668
0.00034573
0.0002493
0.000181837
0.00014733
2.95404e-05
0.000103427
0.000210446
0.000325983
0.000437265
0.000531934
0.000565872
0.000483677
0.000355559
0.000244036
0.000173155
3.18961e-05
0.000119398
0.000234426
0.000345014
0.000447082
0.000543949
0.000619887
0.000596462
0.000471327
0.00032626
0.000217682
3.3866e-05
0.000136616
0.00025802
0.00036067
0.000447124
0.00053123
0.000618524
0.000659785
0.000567243
0.000409383
0.000270949
3.55705e-05
0.000152261
0.000278925
0.00037257
0.000441805
0.00050688
0.000588924
0.00066576
0.000626009
0.00047461
0.000320307
3.69544e-05
0.000167219
0.000296357
0.000380904
0.000434053
0.000479627
0.000546963
0.000634145
0.000648532
0.000511532
0.000353248
3.80371e-05
0.000179991
0.000309477
0.00038529
0.00042492
0.000454511
0.000501583
0.000571934
0.000627769
0.000518428
0.000364123
3.86728e-05
0.000191752
0.000320307
0.000386864
0.000413313
0.000427991
0.000455839
0.000499213
0.000537815
0.000507082
0.000355796
3.8847e-05
0.000203162
0.000330203
0.000387142
0.000400453
0.000400224
0.000409349
0.000429519
0.000449238
0.000443093
0.00035176
3.85318e-05
0.000214479
0.000340299
0.000388048
0.000389325
0.000376425
0.00037114
0.000374943
0.000379542
0.00037185
0.000333109
3.76117e-05
0.000225809
0.000351965
0.000392099
0.000383498
0.000361617
0.000348364
0.000345608
0.000347035
0.000345153
0.00033274
3.59852e-05
0.000237772
0.000367851
0.000403923
0.000387508
0.000357714
0.000338851
0.000334018
0.000337687
0.00034515
0.000353389
3.30765e-05
0.000239378
0.00036675
0.000401022
0.000380204
0.000341695
0.000311341
0.000291893
0.00027724
0.000270373
0.000273624
2.68e-05
0.000211098
0.00033132
0.000374598
0.000362123
0.000318929
0.000266336
0.000211006
0.000182068
0.000168512
0.000158044
2.04558e-05
0.000169468
0.000272717
0.000318011
0.000307674
0.000240246
0.000178834
0.000143725
0.000124886
0.000115605
0.00010868
1.34907e-05
9.0493e-05
0.00013583
0.000137983
0.000114758
9.67966e-05
9.00857e-05
9.20543e-05
9.91614e-05
0.000107133
0.000111591
6.28067e-06
1.07111e-05
1.68205e-05
2.66806e-05
4.18884e-05
6.41419e-05
9.27499e-05
0.000123568
0.000150287
0.000167191
0.00017187
1.60128e-05
1.5553e-05
1.54735e-05
1.54738e-05
1.53421e-05
1.50058e-05
1.41878e-05
1.24658e-05
9.28597e-06
0.000119973
0.000109211
9.68902e-05
8.54294e-05
7.37631e-05
5.50842e-05
3.92178e-05
2.9057e-05
2.45231e-05
0.000191213
0.000175054
0.000159749
0.00014611
0.000132004
0.00010623
7.77554e-05
5.61504e-05
4.43872e-05
0.000220244
0.000200218
0.000187033
0.000178621
0.000169792
0.000144563
0.000110106
8.21713e-05
6.64656e-05
1.65441e-05
1.65652e-05
1.60817e-05
1.52411e-05
1.35853e-05
9.51142e-06
7.07787e-06
6.60132e-06
6.64239e-06
0.000112962
0.000102128
8.46325e-05
5.88941e-05
3.8759e-05
3.03351e-05
2.57475e-05
2.68232e-05
2.34439e-05
0.000184965
0.000174036
0.000155452
0.000114909
7.62094e-05
5.29227e-05
3.97395e-05
4.27175e-05
4.06005e-05
0.000217619
0.000216324
0.000206421
0.000161531
0.000110507
7.47679e-05
5.49159e-05
5.96257e-05
6.08558e-05
0.000195894
0.000229751
0.000229793
0.000162465
0.000245179
0.000229179
8.32591e-05
0.000229651
0.000229164
0.000233216
0.000255823
0.000229648
0.000168664
0.000234124
0.000123942
0.000228714
0.000227207
0.000156612
0.000228715
0.000228659
0.000229444
2.44567e-05
0.000229943
0.000107596
0.000229276
0.00023331
0.000175027
8.15495e-05
0.000212396
0.000221997
0.000225566
0.00023457
0.000235094
0.000229501
0.000239727
0.00022971
0.000108172
0.000229258
0.000227344
0.000229111
1.65824e-05
0.000229532
7.21661e-05
0.000229919
0.00045668
5.00246e-05
7.2233e-05
0.000100849
0.000238521
0.000229419
0.000197586
0.000229144
0.000166783
7.13023e-05
0.000229352
0.00022926
2.46272e-05
0.000229161
0.00021327
7.88788e-05
3.49728e-05
0.000164198
0.000309796
0.000432218
2.16531e-05
0.000228661
0.000205379
0.000232278
0.000229746
0.000232743
0.000196744
0.000232089
0.000106992
0.000237943
0.000170077
0.000230727
2.02058e-05
0.000229707
0.000368024
0.00041217
0.000162847
0.000447069
0.000229289
0.000229797
0.000246494
0.000107702
0.000369292
0.000159288
8.52896e-05
0.000129862
0.000229488
0.000229226
1.8903e-05
0.000233033
0.000401814
0.00016165
0.00012425
0.000236517
7.33229e-05
0.000233713
0.000251077
9.06917e-05
0.000229666
0.000234184
9.64739e-05
0.000229515
0.000211107
0.000229869
0.000223878
0.000234144
0.00022953
0.000229573
0.000230538
0.000168061
0.000102436
0.000228991
0.000229034
0.000228877
0.000229626
0.000228899
0.000160263
0.000236966
0.000244491
0.000225541
4.37088e-05
0.000202006
0.000146856
0.000203132
0.000237622
0.000235649
0.00022938
7.84357e-05
9.44013e-05
0.000231045
0.000229773
0.000239705
1.96334e-05
0.000429425
0.000231706
0.000243176
7.85996e-05
0.000231049
0.000240764
0.000167102
0.00022901
5.47441e-05
0.000147792
0.000231787
0.000234165
0.000229563
0.00022965
0.000229307
6.14507e-05
0.000236243
0.000180199
9.85624e-05
0.000109757
2.6296e-05
0.000181074
0.000228815
0.000212814
8.06016e-05
0.000231665
0.000229
0.000239947
0.000154126
0.000107907
0.00024722
0.000236028
2.25227e-05
0.000239819
0.000179497
0.000234414
0.000229297
0.000233939
0.000218724
0.000170558
5.73763e-05
0.000451968
0.000197904
0.000231306
2.04738e-05
0.00022993
0.000111177
0.000229545
0.000365605
0.000230247
0.000228884
0.000229719
0.000370781
0.000220991
0.000234843
0.000228585
1.74132e-05
0.000229771
0.000228915
0.000229296
7.1373e-05
0.000233887
0.00023
4.84125e-05
0.000229748
0.000201008
0.000219429
0.000229818
0.00016283
0.000232642
0.000237742
0.000229224
0.000228698
0.000136827
0.000228957
0.000174497
0.000237616
0.000229402
0.000117071
0.00022937
6.08256e-05
0.000230113
0.000126848
0.000228504
0.000144046
0.000128826
0.000104014
0.000224168
0.000229181
9.87764e-05
0.000170704
0.000229841
0.000459967
2.92119e-05
0.000228553
0.000229839
0.000237159
5.70201e-05
0.00033253
0.000225619
0.000229886
0.000229676
0.000229673
6.07791e-05
0.000339276
0.000234192
1.88525e-05
0.000238433
7.19252e-05
0.000229437
0.000221127
0.000161871
0.000169852
0.000220622
0.000135994
0.000238271
0.000228832
0.000233106
0.000229231
0.000229278
0.000229202
6.88725e-05
0.000230417
0.000135571
0.000216603
0.000228178
0.000229652
0.000229508
7.38214e-05
0.000231375
0.000241122
0.000159701
0.000175928
0.000169572
0.000229213
0.000229809
7.34326e-05
0.000229096
0.000228864
0.000225283
0.000229274
0.000237403
9.41183e-05
0.000233157
0.000229684
0.000164465
0.000211561
0.000232742
0.000229034
0.000435965
0.00022969
0.000236925
9.0067e-05
0.00022976
9.27144e-05
0.000243174
0.000177559
0.00023
0.000229171
0.000235641
0.000229649
0.000239221
0.000224673
0.000229465
0.000125429
0.000241257
0.000229075
0.000229252
0.000234289
0.00022971
0.000196606
2.06319e-05
0.000228947
5.13936e-05
0.000229552
0.000233301
0.000237622
2.28429e-05
0.000231159
0.000212355
0.00012932
0.000228553
0.000235266
0.00022993
0.000154869
0.000228866
0.000194876
0.000450761
0.000236253
0.000229216
0.000230343
0.000228241
0.0001622
0.000236261
0.000316629
1.94225e-05
0.000229883
0.000143939
0.000249867
0.000110969
0.000229684
0.000229319
0.000239059
6.92171e-05
0.000133968
0.000229932
0.00015149
0.000153211
0.000193882
8.07534e-05
0.000228937
0.000106981
0.000145791
5.93543e-05
0.000236418
0.000176071
0.000229304
0.000112407
0.000230036
0.000227708
0.00020583
0.00022992
0.000168543
0.000134113
0.000235674
0.000229395
0.000229354
0.000229523
9.69627e-05
0.000188789
0.000128795
7.27169e-05
0.000240386
0.000229249
0.000105076
0.000211718
0.000220934
0.000120006
0.000229747
0.000150772
0.000239537
0.000229038
0.00022949
0.000169132
0.000228919
5.03826e-05
0.000229189
0.000235258
0.0002717
0.000117885
0.000223135
0.000332416
9.70331e-05
0.000229356
4.54695e-05
0.000215918
0.000242096
0.000259763
2.03909e-05
0.000229354
0.00022922
0.000229763
7.26226e-05
6.87675e-05
0.000228938
0.000229931
9.36013e-05
0.000241965
1.58136e-05
0.000268965
0.000193581
0.000229728
0.000155413
0.000243447
0.000228699
0.000209836
0.000214194
7.79799e-05
0.000233273
0.000218014
0.000240959
0.00020235
6.336e-05
0.000155802
0.000163915
9.04832e-05
0.000236132
0.00022568
0.000233684
0.000236984
7.61873e-05
0.000240908
2.75335e-05
0.000229321
5.08552e-05
0.000226573
0.000228378
0.000242695
0.000198533
0.000110341
0.000206495
0.000225579
0.000230033
0.000233304
0.000395604
0.00013825
0.000120547
0.000234432
0.000147006
9.65233e-05
3.30119e-05
0.000228859
5.13312e-05
0.00022941
0.000229749
0.000229348
0.000104752
0.000126125
7.35568e-05
0.000239373
4.39075e-05
8.41615e-05
0.0002297
0.00022888
0.000146486
0.000198437
0.000233131
0.00024286
4.05094e-05
4.47465e-05
2.96836e-05
2.93526e-05
0.00023573
0.000209868
9.49764e-05
0.000229739
3.49633e-05
0.00023781
0.000229694
0.00022912
8.05671e-05
4.1897e-05
0.000230002
0.000229093
0.00022946
0.000424247
1.95589e-05
0.000229869
5.93616e-05
0.000456931
0.000155871
0.000172935
0.00022876
5.31059e-05
0.000228931
0.000237401
0.000229137
0.000239424
0.000160575
0.000228624
0.000205461
0.000168003
0.000239899
0.000232379
0.00023102
0.000229551
0.000229472
0.000216201
0.000189349
9.89139e-05
0.000236614
8.19062e-05
0.000229761
0.000119335
0.000109434
9.15897e-05
0.000162606
0.000250792
0.000230736
6.75861e-05
0.00020541
0.000229189
0.000179422
0.000228624
0.000229678
0.000229169
0.000229686
0.000234264
0.00016739
0.000229651
0.000228785
0.000110818
0.00022943
4.13236e-05
0.00024638
0.000208683
0.000183524
9.10586e-05
0.000229998
0.000229251
0.000229812
1.84142e-05
4.12356e-05
0.000229386
0.00022927
0.000226052
0.000229747
0.000121059
0.000229703
0.000153803
0.000236101
2.76776e-05
0.000209847
0.000143223
5.89479e-05
0.00012787
0.000229318
0.000231409
0.000234007
0.000229744
0.000201958
2.96862e-05
0.000223831
0.000219754
0.000167267
0.000133994
0.000229286
0.000229766
0.000229682
9.4688e-05
0.000239892
8.81969e-05
0.000229523
0.000228991
0.000210439
0.000230904
0.00018525
0.000237551
0.000193467
0.000249842
0.000229203
9.28159e-05
0.000229217
6.77982e-05
0.000229414
0.000163549
0.000164987
0.000233678
2.47383e-05
0.000142716
0.00022982
0.000229977
0.000403866
0.000228912
0.000178812
0.000281934
6.9136e-05
9.24338e-05
7.01774e-05
0.000201051
0.000230618
0.000229401
0.000229534
0.00015288
7.64788e-05
0.00011993
0.000228637
0.000229323
0.000247512
0.00023051
0.000235154
0.000238673
0.000232232
0.000182609
9.02302e-05
6.86128e-05
0.000159896
0.00023301
0.00023011
0.000228813
0.00012067
0.000230628
0.000229506
0.000168041
0.000147492
0.000228918
0.000228885
1.95827e-05
0.000229808
0.000228853
0.000147316
0.000229724
0.000234221
0.000145762
0.000189534
0.000156233
0.000235977
0.000174336
0.000182162
0.000167457
7.94479e-05
0.000163267
0.000185086
0.000108635
0.00010733
0.000137303
0.000229765
0.000230339
0.000438605
0.000229393
0.000229788
0.000236962
0.000226458
7.7056e-05
0.000156658
0.000188996
0.000230567
0.000229117
0.00019994
0.000229551
0.000229131
0.000235966
0.000117851
0.000230804
0.000238653
0.000231554
0.00022972
0.000295573
6.25348e-05
0.000461407
0.000230898
0.000231283
0.000188965
0.000133892
0.000234373
0.00019141
0.000230708
0.000218504
0.000169477
0.000229171
0.000213867
0.000229923
0.000234062
0.000370922
0.000182165
0.000134753
0.00021109
0.000244192
0.000229826
0.000108007
0.000198171
8.65898e-05
0.000147986
0.000228908
0.000233084
0.000229814
0.000157665
0.000230169
6.12293e-05
0.000229534
0.000229204
0.000229012
0.000174916
7.16384e-05
0.000229601
0.000142249
0.000229205
0.000178793
0.000180565
0.000230831
0.000321924
1.95673e-05
0.00019438
0.000236664
0.000225626
0.000186371
0.000139518
0.000238932
8.55714e-05
0.000229253
0.000212394
0.000229546
0.00023568
4.68326e-05
0.000232098
5.12893e-05
0.000234342
0.000230638
0.000234186
0.000228918
6.30638e-05
0.000229689
0.000147188
0.000111035
0.000154066
0.00023303
0.000137225
7.98426e-05
9.10268e-05
0.000237285
0.000174499
4.54573e-05
0.000124401
0.000229593
0.000235245
0.000173426
0.000229516
4.69993e-05
0.000130088
0.000238911
0.000210323
0.000229016
0.000236311
0.000234554
0.000142432
0.000233734
0.000216556
0.000229595
0.000232879
0.00023272
0.000186818
0.000184774
0.000139604
0.000231349
0.000228896
0.000109429
5.48881e-05
0.00022915
0.000231108
0.000186031
0.000114459
0.000237559
2.60877e-05
0.000247585
0.000100815
0.000208115
0.000249513
0.000229134
0.000246543
0.00022907
8.37463e-05
2.28427e-05
0.00023004
0.000229612
0.00024999
0.00045598
0.000152452
0.000201456
0.000229662
0.000208278
0.000240022
0.000229562
0.00022969
0.00022979
0.000229511
0.00023796
0.000175413
4.69803e-05