/*--------------------------------*- C++ -*----------------------------------*\
| =========                 |                                                 |
| \\      /  F ield         | OpenFOAM: The Open Source CFD Toolbox           |
|  \\    /   O peration     | Version:  3.0.1                                 |
|   \\  /    A nd           | Web:      www.OpenFOAM.org                      |
|    \\/     M anipulation  |                                                 |
\*---------------------------------------------------------------------------*/
FoamFile
{
    version     2.0;
    format      ascii;
    class       surfaceScalarField;
    location    "0.745346";
    object      phi;
}
// * * * * * * * * * * * * * * * * * * * * * * * * * * * * * * * * * * * * * //

dimensions      [0 3 -1 0 0 0 0];

internalField   nonuniform List<scalar> 
32369
(
-1.1872e-05
-9.88083e-06
2.17529e-05
-1.91147e-05
-1.1705e-05
1.89477e-05
-2.52173e-05
-1.40781e-05
2.01807e-05
-3.07997e-05
-1.62897e-05
2.1872e-05
-3.59418e-05
-1.82026e-05
2.33448e-05
-4.10997e-05
-1.9831e-05
2.49888e-05
-4.66336e-05
-2.11831e-05
2.67171e-05
-5.28982e-05
-2.22324e-05
2.8497e-05
-6.01824e-05
-2.28854e-05
3.01696e-05
-6.87811e-05
-2.29595e-05
3.15581e-05
-2.21115e-05
3.23947e-05
-7.90643e-05
-8.65503e-06
-1.2258e-06
-1.58819e-05
-4.47813e-06
-2.25058e-05
-7.45428e-06
-2.86203e-05
-1.01751e-05
-3.43726e-05
-1.24503e-05
-4.00782e-05
-1.41254e-05
-4.61244e-05
-1.51369e-05
-5.29157e-05
-1.54411e-05
-6.08469e-05
-1.49542e-05
-7.0333e-05
-1.34735e-05
-1.06351e-05
-8.18094e-05
-4.07902e-06
2.85322e-06
-9.27509e-06
7.17946e-07
-1.52383e-05
-1.49108e-06
-2.1491e-05
-3.92239e-06
-2.78878e-05
-6.05349e-06
-3.45028e-05
-7.51042e-06
-4.15398e-05
-8.09984e-06
-4.93033e-05
-7.67761e-06
-5.81546e-05
-6.10287e-06
-6.8444e-05
-3.18406e-06
1.51358e-06
-8.05927e-05
-1.69312e-06
4.54634e-06
-4.86717e-06
3.892e-06
-9.50749e-06
3.14923e-06
-1.52129e-05
1.78302e-06
-2.16874e-05
4.20965e-07
-2.86479e-05
-5.49896e-07
-3.60808e-05
-6.66941e-07
-4.41897e-05
4.31333e-07
-5.33317e-05
3.03905e-06
-6.39838e-05
7.4681e-06
1.41358e-05
-7.66061e-05
-1.28495e-06
5.83129e-06
-3.27789e-06
5.88494e-06
-6.34401e-06
6.21535e-06
-1.0622e-05
6.06102e-06
-1.61024e-05
5.90137e-06
-2.26531e-05
6.00081e-06
-3.01498e-05
6.82972e-06
-3.8575e-05
8.85653e-06
-4.80501e-05
1.25142e-05
-5.88368e-05
1.82548e-05
2.66833e-05
-7.13843e-05
-1.20396e-06
7.03524e-06
-3.08838e-06
7.76937e-06
-5.55239e-06
8.67936e-06
-8.9589e-06
9.46753e-06
-1.34583e-05
1.04007e-05
-1.9116e-05
1.16585e-05
-2.59064e-05
1.36202e-05
-3.38056e-05
1.67557e-05
-4.28766e-05
2.15852e-05
-5.32963e-05
2.86745e-05
3.88059e-05
-6.54188e-05
-1.08289e-06
8.11813e-06
-2.68326e-06
9.36973e-06
-4.85172e-06
1.08478e-05
-7.76575e-06
1.23816e-05
-1.15833e-05
1.42182e-05
-1.64534e-05
1.65286e-05
-2.24568e-05
1.96236e-05
-2.96383e-05
2.39371e-05
-3.80668e-05
3.00138e-05
-4.78595e-05
3.84672e-05
5.01055e-05
-5.91591e-05
-1.03579e-06
9.15393e-06
-2.50391e-06
1.08378e-05
-4.42202e-06
1.27659e-05
-6.95747e-06
1.4917e-05
-1.02648e-05
1.75256e-05
-1.44924e-05
2.07562e-05
-1.97664e-05
2.48976e-05
-2.61872e-05
3.0358e-05
-3.38605e-05
3.7687e-05
-4.29069e-05
4.75136e-05
6.0772e-05
-5.35734e-05
-9.65685e-07
1.01196e-05
-2.31362e-06
1.21858e-05
-4.04246e-06
1.44948e-05
-6.28973e-06
1.71643e-05
-9.18943e-06
2.04253e-05
-1.28906e-05
2.44574e-05
-1.75327e-05
2.95397e-05
-2.32473e-05
3.60726e-05
-3.01549e-05
4.45946e-05
-3.84481e-05
5.58067e-05
7.06742e-05
-4.83502e-05
-7.91866e-07
1.09115e-05
-1.96608e-06
1.336e-05
-3.49515e-06
1.60238e-05
-5.48589e-06
1.9155e-05
-8.04778e-06
2.29872e-05
-1.13138e-05
2.77234e-05
-1.54261e-05
3.3652e-05
-2.05204e-05
4.11669e-05
-2.67556e-05
5.08299e-05
-3.43015e-05
6.33526e-05
7.96987e-05
-4.33261e-05
-6.41043e-07
1.15525e-05
-1.65158e-06
1.43705e-05
-2.98315e-06
1.73554e-05
-4.72442e-06
2.08963e-05
-6.97478e-06
2.52376e-05
-9.85089e-06
3.05995e-05
-1.34798e-05
3.72809e-05
-1.80034e-05
4.56906e-05
-2.35777e-05
5.64041e-05
-3.03907e-05
7.01656e-05
8.78842e-05
-3.85762e-05
-6.10449e-07
1.2163e-05
-1.5172e-06
1.52773e-05
-2.68167e-06
1.85199e-05
-4.19387e-06
2.24085e-05
-6.13895e-06
2.71827e-05
-8.62897e-06
3.30895e-05
-1.17842e-05
4.04362e-05
-1.57362e-05
4.96426e-05
-2.06418e-05
6.13096e-05
-2.66723e-05
7.61962e-05
9.5243e-05
-3.4031e-05
-5.22665e-07
1.26856e-05
-1.28776e-06
1.60424e-05
-2.27493e-06
1.9507e-05
-3.55476e-06
2.36883e-05
-5.20675e-06
2.88346e-05
-7.3274e-06
3.52101e-05
-1.00309e-05
4.31397e-05
-1.34453e-05
5.30569e-05
-1.76918e-05
6.55561e-05
-2.2947e-05
8.14514e-05
0.000101756
-2.94599e-05
-3.08001e-07
1.29936e-05
-8.62706e-07
1.65971e-05
-1.62828e-06
2.02726e-05
-2.65689e-06
2.47169e-05
-4.0099e-06
3.01877e-05
-5.76534e-06
3.69656e-05
-8.01549e-06
4.53898e-05
-1.08755e-05
5.5917e-05
-1.44649e-05
6.91454e-05
-1.89232e-05
8.59098e-05
0.00010727
-2.44373e-05
-2.35722e-07
1.32294e-05
-6.32997e-07
1.69944e-05
-1.18509e-06
2.08247e-05
-1.94611e-06
2.54779e-05
-2.95883e-06
3.12004e-05
-4.29477e-06
3.83015e-05
-6.04145e-06
4.71365e-05
-8.27911e-06
5.81547e-05
-1.11071e-05
7.19734e-05
-1.46758e-05
8.94785e-05
0.000111691
-1.9097e-05
-1.1024e-07
1.33396e-05
-3.16239e-07
1.72004e-05
-6.27876e-07
2.11363e-05
-1.07857e-06
2.59286e-05
-1.72019e-06
3.1842e-05
-2.60309e-06
3.91844e-05
-3.78772e-06
4.83211e-05
-5.34243e-06
5.97094e-05
-7.34275e-06
7.39737e-05
-9.83433e-06
9.19701e-05
0.000114809
-1.29526e-05
1.2528e-07
1.32143e-05
2.12365e-07
1.71133e-05
2.12177e-07
2.11365e-05
1.12584e-07
2.60282e-05
-1.02897e-07
3.20575e-05
-4.81318e-07
3.95628e-05
-1.04976e-06
4.88896e-05
-1.83717e-06
6.04968e-05
-2.86204e-06
7.49986e-05
-4.17077e-06
9.32788e-05
0.000116469
-5.83035e-06
3.10839e-07
1.29035e-05
6.75414e-07
1.67487e-05
1.01511e-06
2.07968e-05
1.32793e-06
2.57154e-05
1.60309e-06
3.17823e-05
1.82622e-06
3.93397e-05
2.00369e-06
4.87121e-05
2.14692e-06
6.03535e-05
2.27326e-06
7.48723e-05
2.37954e-06
9.31725e-05
0.000116357
2.49119e-06
5.29786e-07
1.23737e-05
1.22552e-06
1.6053e-05
1.95747e-06
2.00649e-05
2.73751e-06
2.49354e-05
3.5785e-06
3.09413e-05
4.50694e-06
3.84113e-05
5.57261e-06
4.76464e-05
6.84071e-06
5.90854e-05
8.38835e-06
7.33246e-05
1.0292e-05
9.12689e-05
0.000114102
1.25478e-05
7.96523e-07
1.15772e-05
1.87688e-06
1.49726e-05
3.05015e-06
1.88916e-05
4.36526e-06
2.36203e-05
5.86419e-06
2.94424e-05
7.62857e-06
3.66469e-05
9.76591e-06
4.55091e-05
1.2412e-05
5.64393e-05
1.56876e-05
7.00491e-05
1.97378e-05
8.72187e-05
0.000109124
2.47152e-05
1.09359e-06
1.04836e-05
2.57066e-06
1.34956e-05
4.22798e-06
1.72343e-05
6.14105e-06
2.17072e-05
8.40388e-06
2.71796e-05
1.11697e-05
3.38811e-05
1.46183e-05
4.20604e-05
1.89255e-05
5.21321e-05
2.42734e-05
6.47012e-05
3.08844e-05
8.06077e-05
0.000100963
3.90452e-05
1.26518e-06
9.21839e-06
3.13582e-06
1.16249e-05
5.29518e-06
1.50749e-05
7.85751e-06
1.91449e-05
1.10114e-05
2.40257e-05
1.49848e-05
2.99077e-05
1.99916e-05
3.70536e-05
2.62371e-05
4.58866e-05
3.397e-05
5.69683e-05
4.35036e-05
7.10741e-05
8.92867e-05
5.51801e-05
1.30195e-06
7.91644e-06
3.61763e-06
9.30924e-06
6.07071e-06
1.26219e-05
9.30083e-06
1.59147e-05
1.34808e-05
1.98457e-05
1.88306e-05
2.45579e-05
2.5549e-05
3.03353e-05
3.38882e-05
3.75474e-05
4.41615e-05
4.6695e-05
5.68033e-05
5.84323e-05
7.36891e-05
7.24009e-05
-2.42522e-06
1.03417e-05
-2.79321e-08
6.91195e-06
3.9601e-06
8.63383e-06
8.80516e-06
1.10697e-05
1.46986e-05
1.39522e-05
2.18598e-05
1.73968e-05
3.04821e-05
2.1713e-05
4.09241e-05
2.71054e-05
5.36805e-05
3.39386e-05
6.93645e-05
4.27482e-05
5.43421e-05
8.87115e-05
4.06812e-06
1.76847e-05
5.58602e-06
1.74298e-05
2.44939e-06
2.33173e-05
-3.64419e-06
2.79656e-05
-1.11714e-05
3.0872e-05
-1.92666e-05
3.3084e-05
-2.75957e-05
3.50462e-05
-3.65741e-05
3.74754e-05
-4.64544e-05
4.00499e-05
-5.74877e-05
4.25915e-05
4.48631e-05
-6.99562e-05
8.14848e-06
9.53626e-06
1.17812e-05
1.37971e-05
1.26056e-05
2.2493e-05
1.0678e-05
2.98932e-05
5.49737e-06
3.60526e-05
-2.34202e-06
4.09234e-05
-1.15877e-05
4.42919e-05
-2.16364e-05
4.75241e-05
-3.27449e-05
5.11584e-05
-4.50853e-05
5.49319e-05
5.87408e-05
-5.8963e-05
5.0765e-06
4.45976e-06
8.32015e-06
1.05534e-05
1.11712e-05
1.96419e-05
1.21508e-05
2.89136e-05
1.01883e-05
3.80151e-05
5.10008e-06
4.60116e-05
-2.52847e-06
5.19204e-05
-1.15796e-05
5.65752e-05
-2.18516e-05
6.14304e-05
-3.34931e-05
6.65734e-05
7.1931e-05
-4.66833e-05
4.34816e-06
1.11599e-07
6.94051e-06
7.96107e-06
9.6079e-06
1.69746e-05
1.13178e-05
2.72037e-05
1.1135e-05
3.81978e-05
8.45513e-06
4.86915e-05
3.16955e-06
5.7206e-05
-4.07068e-06
6.38154e-05
-1.26582e-05
7.00179e-05
-2.25801e-05
7.64954e-05
8.32657e-05
-3.39149e-05
3.19431e-06
-3.08271e-06
6.16859e-06
4.98679e-06
8.87564e-06
1.42675e-05
1.07593e-05
2.53201e-05
1.13603e-05
3.75968e-05
1.01758e-05
4.9876e-05
6.85035e-06
6.05314e-05
1.57169e-06
6.90941e-05
-5.14333e-06
7.67329e-05
-1.30965e-05
8.44486e-05
9.24307e-05
-2.22616e-05
1.79115e-06
-4.87386e-06
4.79039e-06
1.98755e-06
7.88726e-06
1.11706e-05
1.02592e-05
2.29482e-05
1.15423e-05
3.63138e-05
1.13944e-05
5.00238e-05
9.50896e-06
6.24169e-05
5.93765e-06
7.26654e-05
9.8913e-07
8.16814e-05
-5.03356e-06
9.04713e-05
9.94493e-05
-1.20521e-05
8.88228e-07
-5.76209e-06
3.56141e-06
-6.8563e-07
6.74507e-06
7.98698e-06
9.53767e-06
2.01556e-05
1.14505e-05
3.44009e-05
1.21743e-05
4.93e-05
1.14598e-05
6.31314e-05
9.30784e-06
7.48173e-05
5.9716e-06
8.50177e-05
1.64479e-06
9.47981e-05
0.000104409
-3.31516e-06
5.63289e-07
-6.32538e-06
2.54203e-06
-2.66437e-06
5.55273e-06
4.97628e-06
8.54369e-06
1.71646e-05
1.09213e-05
3.20233e-05
1.23618e-05
4.78596e-05
1.26557e-05
6.28375e-05
1.17746e-05
7.56984e-05
9.90174e-06
8.68905e-05
7.19636e-06
9.75035e-05
0.000107955
3.65091e-06
5.32445e-07
-6.85782e-06
1.87154e-06
-4.00346e-06
4.49271e-06
2.35511e-06
7.52878e-06
1.41285e-05
1.02318e-05
2.93202e-05
1.22533e-05
4.58382e-05
1.34088e-05
6.1682e-05
1.36549e-05
7.54523e-05
1.31434e-05
8.7402e-05
1.20891e-05
9.85578e-05
0.000109383
1.06612e-05
4.69546e-07
-7.32737e-06
1.48806e-06
-5.02197e-06
3.63633e-06
2.06842e-07
6.55915e-06
1.12057e-05
9.47573e-06
2.64037e-05
1.19681e-05
4.33458e-05
1.3873e-05
5.9777e-05
1.51318e-05
7.41935e-05
1.58701e-05
8.66637e-05
1.62621e-05
9.81658e-05
0.000109183
1.64616e-05
3.63114e-07
-7.69048e-06
1.246e-06
-5.90485e-06
2.96423e-06
-1.51139e-06
5.70605e-06
8.46389e-06
8.77363e-06
2.33361e-05
1.16754e-05
4.04441e-05
1.42364e-05
5.7216e-05
1.64149e-05
7.2015e-05
1.83027e-05
8.4776e-05
2.00955e-05
9.63731e-05
0.000107424
2.18549e-05
3.09668e-07
-8.00015e-06
9.99215e-07
-6.5944e-06
2.3158e-06
-2.82798e-06
4.775e-06
6.00468e-06
7.86961e-06
2.02415e-05
1.1091e-05
3.72226e-05
1.42683e-05
5.40388e-05
1.73428e-05
6.89404e-05
2.03902e-05
8.17286e-05
2.36008e-05
9.31625e-05
0.000103831
2.71933e-05
1.95824e-07
-8.19597e-06
7.06033e-07
-7.10461e-06
1.75614e-06
-3.87808e-06
3.88997e-06
3.87086e-06
6.93604e-06
1.71954e-05
1.04192e-05
3.37395e-05
1.41585e-05
5.02995e-05
1.81032e-05
6.49958e-05
2.22884e-05
7.75434e-05
2.68702e-05
8.85807e-05
9.86196e-05
3.20818e-05
2.88992e-08
-8.22487e-06
3.70476e-07
-7.44618e-06
1.21067e-06
-4.71828e-06
3.05947e-06
2.02206e-06
6.03062e-06
1.42242e-05
9.70424e-06
3.00659e-05
1.39869e-05
4.60168e-05
1.8764e-05
6.02186e-05
2.40875e-05
7.22199e-05
3.00844e-05
8.25838e-05
9.17627e-05
3.69413e-05
-1.07017e-07
-8.11786e-06
2.00139e-09
-7.5552e-06
6.00547e-07
-5.31683e-06
2.14887e-06
4.73731e-07
4.95068e-06
1.14224e-05
8.84993e-06
2.61666e-05
1.3516e-05
4.13507e-05
1.9137e-05
5.45976e-05
2.56537e-05
6.57032e-05
3.3154e-05
7.50835e-05
8.31682e-05
4.17485e-05
-2.45972e-07
-7.87188e-06
-3.9307e-07
-7.4081e-06
-1.27919e-07
-5.58198e-06
1.1457e-06
-7.9989e-07
3.68813e-06
8.87999e-06
7.57723e-06
2.22775e-05
1.28276e-05
3.61003e-05
1.92883e-05
4.81369e-05
2.7045e-05
5.79466e-05
3.61066e-05
6.60219e-05
7.23551e-05
4.69197e-05
-4.09009e-07
-7.46288e-06
-8.14153e-07
-7.00296e-06
-9.21985e-07
-5.47414e-06
-1.17039e-07
-1.60484e-06
2.26668e-06
6.49628e-06
6.17367e-06
1.83705e-05
1.17957e-05
3.04783e-05
1.91518e-05
4.07809e-05
2.81417e-05
4.89566e-05
3.8695e-05
5.54687e-05
6.00383e-05
5.10118e-05
-6.09618e-07
-6.85326e-06
-1.30066e-06
-6.31191e-06
-1.78112e-06
-4.99369e-06
-1.59333e-06
-1.79263e-06
4.18303e-07
4.48465e-06
4.38602e-06
1.44028e-05
1.03779e-05
2.44865e-05
1.8539e-05
3.26197e-05
2.87354e-05
3.87603e-05
4.08002e-05
4.34039e-05
4.59806e-05
5.48579e-05
-8.73766e-07
-5.97949e-06
-1.92822e-06
-5.25746e-06
-2.87655e-06
-4.04535e-06
-3.26169e-06
-1.40749e-06
-1.96691e-06
3.18987e-06
2.04345e-06
1.03924e-05
8.36499e-06
1.81649e-05
1.72829e-05
2.37018e-05
2.85421e-05
2.75011e-05
4.18807e-05
3.00653e-05
3.08375e-05
5.70237e-05
-1.24372e-06
-4.73577e-06
-2.77599e-06
-3.7252e-06
-4.32391e-06
-2.49743e-06
-5.35677e-06
-3.74634e-07
-4.75692e-06
2.59002e-06
-1.08192e-06
6.71744e-06
5.60223e-06
1.14808e-05
1.50542e-05
1.42498e-05
2.69688e-05
1.55865e-05
4.09578e-05
1.60762e-05
1.4828e-05
5.69673e-05
-1.76785e-06
-2.96792e-06
-4.13963e-06
-1.35342e-06
-6.55556e-06
-8.14929e-08
-8.16318e-06
1.23298e-06
-7.92009e-06
2.34693e-06
-4.88661e-06
3.68397e-06
1.77744e-06
4.81672e-06
1.15232e-05
4.50407e-06
2.33934e-05
3.71631e-06
3.73912e-05
2.07837e-06
-1.84478e-06
5.4064e-05
-4.31644e-06
1.34852e-06
-6.7016e-06
1.03174e-06
-8.55337e-06
1.77028e-06
-8.87812e-06
1.55774e-06
-7.01684e-06
4.85644e-07
-1.83148e-06
-1.50139e-06
7.09543e-06
-4.1102e-06
1.82042e-05
-6.60474e-06
3.15292e-05
-9.60869e-06
4.76426e-05
-1.4035e-05
-2.05163e-05
6.63141e-05
-2.53682e-07
1.6022e-06
1.29353e-06
-5.15469e-07
4.9757e-06
-1.9119e-06
1.08772e-05
-4.34372e-06
1.85034e-05
-7.14059e-06
2.72704e-05
-1.02684e-05
3.69327e-05
-1.37725e-05
4.81789e-05
-1.78509e-05
6.15683e-05
-2.2998e-05
7.72425e-05
-2.97092e-05
-3.85343e-05
9.52604e-05
1.19439e-05
1.83403e-05
2.50623e-05
3.17882e-05
3.85999e-05
4.57282e-05
5.36687e-05
6.29231e-05
7.38637e-05
8.69028e-05
0.000102711
-5.56034e-06
1.9468e-05
-1.39077e-05
-1.0631e-05
1.78373e-05
-1.27667e-05
-1.79345e-05
2.11624e-05
-1.38589e-05
-2.5415e-05
2.28126e-05
-1.53321e-05
-3.30339e-05
2.50443e-05
-1.74254e-05
-4.09759e-05
2.81781e-05
-2.02361e-05
-4.95978e-05
3.25075e-05
-2.38856e-05
-5.92995e-05
3.82919e-05
-2.85902e-05
-7.05293e-05
4.5916e-05
-3.46861e-05
-8.38086e-05
5.5936e-05
-4.26567e-05
6.92015e-05
-5.31124e-05
-9.98976e-05
2.44795e-06
1.70201e-05
2.56709e-06
1.77181e-05
-1.29166e-06
2.50212e-05
-6.90741e-06
2.84283e-05
-1.4083e-05
3.22198e-05
-2.22862e-05
3.63813e-05
-3.14764e-05
4.16977e-05
-4.18953e-05
4.87108e-05
-5.39487e-05
5.79694e-05
-6.81942e-05
7.01814e-05
8.63248e-05
-8.53176e-05
2.39701e-06
1.46231e-05
2.79467e-06
1.73205e-05
1.77594e-06
2.60399e-05
-8.15509e-07
3.10198e-05
-5.62455e-06
3.70289e-05
-1.20959e-05
4.28527e-05
-2.00149e-05
4.96167e-05
-2.93399e-05
5.80358e-05
-4.02801e-05
6.89096e-05
-5.32518e-05
8.31531e-05
0.000102005
-6.89316e-05
1.7347e-06
1.28884e-05
1.69456e-06
1.73606e-05
1.64331e-06
2.60911e-05
5.13244e-07
3.21498e-05
-2.27803e-06
3.98202e-05
-6.55473e-06
4.71294e-05
-1.24138e-05
5.54758e-05
-1.97666e-05
6.53886e-05
-2.86751e-05
7.78181e-05
-3.93694e-05
9.38474e-05
0.000114906
-5.22704e-05
1.3766e-06
1.15118e-05
1.32406e-06
1.74132e-05
1.48483e-06
2.59304e-05
8.44575e-07
3.27901e-05
-6.85419e-07
4.13501e-05
-3.28152e-06
4.97255e-05
-7.19352e-06
5.93878e-05
-1.24467e-05
7.06419e-05
-1.9088e-05
8.44594e-05
-2.72167e-05
0.000101976
0.000124699
-3.70103e-05
1.28659e-06
1.02252e-05
1.59581e-06
1.7104e-05
2.02087e-06
2.55053e-05
1.6885e-06
3.31225e-05
8.7029e-07
4.21684e-05
-6.86588e-07
5.12824e-05
-3.15696e-06
6.18581e-05
-6.6492e-06
7.41341e-05
-1.12598e-05
8.907e-05
-1.70336e-05
0.00010775
0.000131678
-2.40125e-05
1.27091e-06
8.95428e-06
1.92909e-06
1.64458e-05
2.63859e-06
2.47958e-05
2.67824e-06
3.30828e-05
2.38657e-06
4.246e-05
1.53855e-06
5.21304e-05
8.87291e-08
6.3308e-05
-2.05878e-06
7.62816e-05
-5.00726e-06
9.20185e-05
-8.80404e-06
0.000111547
0.000136382
-1.35081e-05
1.1248e-06
7.82948e-06
2.04569e-06
1.55249e-05
2.98053e-06
2.3861e-05
3.3844e-06
3.26789e-05
3.55064e-06
4.22938e-05
3.28235e-06
5.23987e-05
2.63459e-06
6.39557e-05
1.53021e-06
7.7386e-05
-6.34539e-08
9.36122e-05
-2.14904e-06
0.000113632
0.000138911
-4.67819e-06
1.06883e-06
6.76065e-06
2.20374e-06
1.439e-05
3.33781e-06
2.27269e-05
4.09084e-06
3.19259e-05
4.64243e-06
4.17422e-05
4.86733e-06
5.21738e-05
4.85911e-06
6.39639e-05
4.58527e-06
7.76598e-05
4.06599e-06
9.41315e-05
3.31726e-06
0.000114381
0.000139795
2.43377e-06
1.1812e-06
5.57945e-06
2.56134e-06
1.30098e-05
3.94826e-06
2.134e-05
5.06374e-06
3.08104e-05
5.984e-06
4.08219e-05
6.62692e-06
5.15308e-05
7.12652e-06
6.34643e-05
7.49473e-06
7.72916e-05
7.78935e-06
9.38368e-05
8.06328e-06
0.000114107
0.000139495
8.36271e-06
1.20617e-06
4.37328e-06
2.74554e-06
1.14705e-05
4.37037e-06
1.97151e-05
5.84619e-06
2.93346e-05
7.13028e-06
3.95379e-05
8.19918e-06
5.04619e-05
9.16497e-06
6.24985e-05
1.01063e-05
7.63503e-05
1.11065e-05
9.28366e-05
1.22762e-05
0.000112937
0.000137958
1.38137e-05
1.07694e-06
3.29633e-06
2.63278e-06
9.91463e-06
4.40186e-06
1.79461e-05
6.16331e-06
2.75732e-05
7.81311e-06
3.78881e-05
9.31821e-06
4.89568e-05
1.07765e-05
6.10403e-05
1.22971e-05
7.48296e-05
1.39957e-05
9.11381e-05
1.59926e-05
0.000110941
0.000135509
1.84415e-05
9.8091e-07
2.31543e-06
2.51995e-06
8.37558e-06
4.41655e-06
1.60495e-05
6.45671e-06
2.5533e-05
8.46872e-06
3.5876e-05
1.04159e-05
4.70096e-05
1.237e-05
5.90862e-05
1.44494e-05
7.27502e-05
1.6799e-05
8.87885e-05
1.95708e-05
0.000108169
0.00013218
2.28995e-05
9.34016e-07
1.38141e-06
2.45535e-06
6.85425e-06
4.48486e-06
1.402e-05
6.80263e-06
2.32152e-05
9.19961e-06
3.34791e-05
1.16066e-05
4.46026e-05
1.40702e-05
5.66226e-05
1.67145e-05
7.01059e-05
1.97014e-05
8.58016e-05
2.3212e-05
0.000104658
0.000127885
2.75075e-05
7.6487e-07
6.16539e-07
2.13796e-06
5.48116e-06
4.18624e-06
1.19717e-05
6.70539e-06
2.06961e-05
9.46189e-06
3.07226e-05
1.2361e-05
4.17035e-05
1.54121e-05
5.35715e-05
1.87242e-05
6.67939e-05
2.24669e-05
8.20588e-05
2.6828e-05
0.000100297
0.000122721
3.19919e-05
5.78865e-07
3.76738e-08
1.79466e-06
4.26536e-06
3.82519e-06
9.94116e-06
6.51702e-06
1.80043e-05
9.62603e-06
2.76136e-05
1.30369e-05
3.82926e-05
1.67256e-05
4.98828e-05
2.07826e-05
6.27369e-05
2.53715e-05
7.74699e-05
3.06836e-05
9.49849e-05
0.000116438
3.69665e-05
4.64501e-07
-4.26827e-07
1.52187e-06
3.20799e-06
3.50313e-06
7.9599e-06
6.33586e-06
1.51715e-05
9.79588e-06
2.41535e-05
1.37353e-05
3.43532e-05
1.81175e-05
4.55006e-05
2.30102e-05
5.78443e-05
2.85487e-05
7.19314e-05
3.4915e-05
8.86186e-05
0.000108994
4.2359e-05
2.93326e-07
-7.20153e-07
1.1843e-06
2.31701e-06
3.02952e-06
6.11469e-06
5.90493e-06
1.22961e-05
9.6464e-06
2.04121e-05
1.41165e-05
2.98831e-05
1.92644e-05
4.03527e-05
2.51308e-05
5.19779e-05
3.1818e-05
6.52442e-05
3.94935e-05
8.0943e-05
0.000100141
4.83468e-05
1.70983e-07
-8.91135e-07
8.96219e-07
1.59178e-06
2.53371e-06
4.4772e-06
5.32401e-06
9.50581e-06
9.2508e-06
1.64853e-05
1.42284e-05
2.49055e-05
2.02026e-05
3.43785e-05
2.71775e-05
4.50031e-05
3.52016e-05
5.72201e-05
4.44113e-05
7.17333e-05
8.94615e-05
5.50905e-05
7.13732e-08
-9.62509e-07
6.29933e-07
1.03322e-06
1.98745e-06
3.11968e-06
4.54493e-06
6.94833e-06
8.52287e-06
1.25073e-05
1.39574e-05
1.9471e-05
2.07832e-05
2.75527e-05
2.89466e-05
3.68396e-05
3.84451e-05
4.77216e-05
4.94093e-05
6.07691e-05
7.67248e-05
6.21459e-05
1.19311e-10
-9.62628e-07
2.86826e-07
7.46512e-07
1.25562e-06
2.15089e-06
3.42983e-06
4.77412e-06
7.31754e-06
8.61964e-06
1.30936e-05
1.36949e-05
2.06822e-05
1.99641e-05
2.99659e-05
2.75559e-05
4.09387e-05
3.67488e-05
5.37249e-05
4.7983e-05
6.1759e-05
6.86907e-05
-5.47451e-07
-4.15177e-07
-6.10005e-07
8.09066e-07
-5.42657e-09
1.54632e-06
1.88827e-06
2.88042e-06
5.64057e-06
4.86734e-06
1.15211e-05
7.81436e-06
1.95059e-05
1.19793e-05
2.95051e-05
1.75567e-05
4.16025e-05
2.46514e-05
5.60486e-05
3.35369e-05
4.42401e-05
7.35675e-05
-7.98974e-07
3.83798e-07
-9.16509e-07
9.266e-07
-2.33606e-07
8.63413e-07
1.57518e-06
1.07163e-06
4.85815e-06
1.58436e-06
9.98421e-06
2.68831e-06
1.72249e-05
4.73861e-06
2.6748e-05
8.03353e-06
3.88478e-05
1.25517e-05
5.37354e-05
1.86493e-05
2.67494e-05
7.12261e-05
1.46142e-06
-1.07762e-06
3.57974e-06
-1.19172e-06
5.65631e-06
-1.21315e-06
7.7701e-06
-1.04216e-06
1.01411e-05
-7.86679e-07
1.32504e-05
-4.20901e-07
1.78674e-05
1.21572e-07
2.49018e-05
9.99153e-07
3.48619e-05
2.59153e-06
4.82135e-05
5.29774e-06
9.79509e-06
6.51677e-05
-1.45323e-05
6.24579e-07
-2.51409e-05
-2.15803e-06
-3.36913e-05
-5.30844e-06
-4.09945e-05
-8.02897e-06
-4.79828e-05
-1.04371e-05
-5.52446e-05
-1.29742e-05
-6.32451e-05
-1.58852e-05
-7.23953e-05
-1.94401e-05
-8.30912e-05
-2.39902e-05
-9.57655e-05
-2.99824e-05
-3.80391e-05
-0.000110839
-7.32674e-06
7.95132e-06
-1.41754e-05
4.6906e-06
-2.25995e-05
3.11569e-06
-3.1162e-05
5.33491e-07
-3.95126e-05
-2.08639e-06
-4.80644e-05
-4.42245e-06
-5.73484e-05
-6.60122e-06
-6.78785e-05
-8.90992e-06
-8.01202e-05
-1.17485e-05
-9.4546e-05
-1.55565e-05
-2.08048e-05
-0.00011178
-2.677e-06
1.06283e-05
-6.73552e-06
8.74912e-06
-1.31545e-05
9.53463e-06
-2.09361e-05
8.31516e-06
-2.97643e-05
6.74178e-06
-3.94222e-05
5.23549e-06
-4.98157e-05
3.79219e-06
-6.12736e-05
2.548e-06
-7.42738e-05
1.25177e-06
-8.93531e-05
-4.77228e-07
-3.11669e-06
-0.000107041
-1.68666e-06
1.2315e-05
-4.72203e-06
1.17845e-05
-9.24067e-06
1.40533e-05
-1.51166e-05
1.41911e-05
-2.26907e-05
1.43159e-05
-3.14916e-05
1.40364e-05
-4.16027e-05
1.39033e-05
-5.30498e-05
1.3995e-05
-6.61007e-05
1.43027e-05
-8.11623e-05
1.45843e-05
1.44638e-05
-9.87428e-05
-1.465e-06
1.378e-05
-4.13502e-06
1.44545e-05
-7.62509e-06
1.75433e-05
-1.22639e-05
1.88299e-05
-1.84241e-05
2.04761e-05
-2.60637e-05
2.1676e-05
-3.51532e-05
2.29928e-05
-4.5718e-05
2.45599e-05
-5.79017e-05
2.64864e-05
-7.20038e-05
2.86864e-05
3.08736e-05
-8.84136e-05
-1.28611e-06
1.50661e-05
-3.68645e-06
1.68548e-05
-6.56485e-06
2.04218e-05
-1.03292e-05
2.25943e-05
-1.53639e-05
2.55108e-05
-2.1717e-05
2.8029e-05
-2.9531e-05
3.08069e-05
-3.88305e-05
3.38594e-05
-4.97126e-05
3.73686e-05
-6.23729e-05
4.13466e-05
4.56003e-05
-7.70995e-05
-1.08219e-06
1.61483e-05
-3.19064e-06
1.89633e-05
-5.63111e-06
2.28622e-05
-8.74105e-06
2.57042e-05
-1.28878e-05
2.96576e-05
-1.81294e-05
3.32706e-05
-2.46666e-05
3.7344e-05
-3.25829e-05
4.17757e-05
-4.19699e-05
4.67555e-05
-5.29715e-05
5.23483e-05
5.84762e-05
-6.58475e-05
-1.00729e-06
1.71556e-05
-2.82351e-06
2.07795e-05
-4.87825e-06
2.4917e-05
-7.6022e-06
2.84281e-05
-1.09164e-05
3.29718e-05
-1.51768e-05
3.7531e-05
-2.05203e-05
4.26875e-05
-2.70575e-05
4.8313e-05
-3.49016e-05
5.45996e-05
-4.41466e-05
6.15933e-05
6.92612e-05
-5.49316e-05
-8.58767e-07
1.80143e-05
-2.4656e-06
2.23863e-05
-3.99642e-06
2.64478e-05
-6.27336e-06
3.07051e-05
-8.99341e-06
3.56918e-05
-1.24508e-05
4.09883e-05
-1.67395e-05
4.69763e-05
-2.2007e-05
5.35805e-05
-2.83647e-05
6.09572e-05
-3.59328e-05
6.91614e-05
7.81811e-05
-4.48527e-05
-6.69118e-07
1.86835e-05
-1.92576e-06
2.3643e-05
-3.26174e-06
2.77838e-05
-5.01414e-06
3.24575e-05
-7.11349e-06
3.77912e-05
-9.80201e-06
4.36768e-05
-1.31344e-05
5.03086e-05
-1.72297e-05
5.76758e-05
-2.21994e-05
6.5927e-05
-2.81506e-05
7.51126e-05
8.51993e-05
-3.51689e-05
-4.33427e-07
1.91169e-05
-1.26817e-06
2.44777e-05
-2.20281e-06
2.87184e-05
-3.51614e-06
3.37708e-05
-5.05719e-06
3.93322e-05
-7.04042e-06
4.56601e-05
-9.4848e-06
5.2753e-05
-1.2506e-05
6.0697e-05
-1.61743e-05
6.95953e-05
-2.05785e-05
7.95168e-05
9.04551e-05
-2.58343e-05
-2.27169e-07
1.93441e-05
-7.85774e-07
2.50363e-05
-1.3543e-06
2.92869e-05
-2.18914e-06
3.46057e-05
-3.15816e-06
4.03013e-05
-4.42836e-06
4.69303e-05
-5.99561e-06
5.43203e-05
-7.93909e-06
6.26405e-05
-1.03111e-05
7.19673e-05
-1.31687e-05
8.23743e-05
9.38257e-05
-1.65392e-05
1.37539e-08
1.93303e-05
-2.16819e-07
2.52669e-05
-4.23293e-07
2.94934e-05
-7.79844e-07
3.49622e-05
-1.17975e-06
4.07012e-05
-1.74292e-06
4.74934e-05
-2.43921e-06
5.50165e-05
-3.33033e-06
6.35316e-05
-4.41584e-06
7.30528e-05
-5.73896e-06
8.36975e-05
9.53953e-05
-7.30858e-06
3.51274e-07
1.8979e-05
5.22284e-07
2.50959e-05
7.10338e-07
2.93054e-05
8.37961e-07
3.48346e-05
1.01189e-06
4.05273e-05
1.14902e-06
4.73563e-05
1.30641e-06
5.48591e-05
1.46102e-06
6.3377e-05
1.6406e-06
7.28732e-05
1.87064e-06
8.34674e-05
9.51029e-05
2.16313e-06
5.65041e-07
1.8414e-05
1.08344e-06
2.45775e-05
1.6856e-06
2.87032e-05
2.33633e-06
3.41839e-05
3.10811e-06
3.97555e-05
3.99894e-06
4.64655e-05
5.0533e-06
5.38048e-05
6.30572e-06
6.21246e-05
7.812e-06
7.13669e-05
9.64668e-06
8.16328e-05
9.28355e-05
1.1914e-05
8.12011e-07
1.7602e-05
1.72005e-06
2.36695e-05
2.74667e-06
2.76766e-05
3.938e-06
3.29925e-05
5.3377e-06
3.83558e-05
7.00934e-06
4.47938e-05
8.9986e-06
5.18155e-05
1.1379e-05
5.97441e-05
1.42447e-05
6.85012e-05
1.77169e-05
7.81606e-05
8.86021e-05
2.19504e-05
1.11494e-06
1.6487e-05
2.44124e-06
2.23432e-05
3.93356e-06
2.61842e-05
5.70358e-06
3.12225e-05
7.76631e-06
3.6293e-05
1.02493e-05
4.23109e-05
1.32111e-05
4.88536e-05
1.67661e-05
5.61892e-05
2.10285e-05
6.42388e-05
2.61618e-05
7.30273e-05
8.23865e-05
3.23773e-05
1.40573e-06
1.50813e-05
3.16877e-06
2.05801e-05
5.16141e-06
2.41916e-05
7.54803e-06
2.88359e-05
1.03236e-05
3.35175e-05
1.36805e-05
3.8954e-05
1.76733e-05
4.48609e-05
2.24572e-05
5.14053e-05
2.81778e-05
5.85182e-05
3.50301e-05
6.61751e-05
7.41335e-05
4.32831e-05
1.70198e-06
1.33793e-05
3.90588e-06
1.83762e-05
6.43927e-06
2.16582e-05
9.47953e-06
2.57956e-05
1.30392e-05
2.99578e-05
1.73179e-05
3.46753e-05
2.24089e-05
3.97698e-05
2.84849e-05
4.53293e-05
3.57098e-05
5.12933e-05
4.43175e-05
5.75673e-05
6.38886e-05
5.45624e-05
2.01938e-06
1.13599e-05
4.68417e-06
1.57114e-05
7.77838e-06
1.8564e-05
1.15191e-05
2.20549e-05
1.59117e-05
2.55652e-05
2.11646e-05
2.94223e-05
2.73991e-05
3.35353e-05
3.47878e-05
3.79405e-05
4.35381e-05
4.25431e-05
5.39127e-05
4.71927e-05
5.15558e-05
6.62456e-05
2.34545e-06
9.01449e-06
5.44286e-06
1.2614e-05
9.11951e-06
1.48873e-05
1.35818e-05
1.75926e-05
1.88391e-05
2.03079e-05
2.50873e-05
2.31741e-05
3.24579e-05
2.61647e-05
4.11417e-05
2.92568e-05
5.13839e-05
3.23009e-05
6.34653e-05
3.51112e-05
3.73169e-05
7.77042e-05
2.59125e-06
6.42325e-06
6.10402e-06
9.10126e-06
1.03404e-05
1.0651e-05
1.54895e-05
1.24435e-05
2.15735e-05
1.42239e-05
2.87427e-05
1.60049e-05
3.71427e-05
1.77648e-05
4.70075e-05
1.9392e-05
5.85748e-05
2.07336e-05
7.2157e-05
2.1529e-05
2.13735e-05
8.81004e-05
3.10337e-06
3.31987e-06
6.95704e-06
5.24758e-06
1.15874e-05
6.02056e-06
1.71994e-05
6.83156e-06
2.38463e-05
7.577e-06
3.16433e-05
8.20791e-06
4.07727e-05
8.63544e-06
5.14594e-05
8.70527e-06
6.399e-05
8.203e-06
7.86209e-05
6.89809e-06
4.58498e-06
9.54094e-05
2.24225e-06
6.29811e-06
1.11055e-05
1.68949e-05
2.36852e-05
3.14722e-05
4.02293e-05
4.99337e-05
6.07282e-05
7.2924e-05
8.73041e-05
1.70971e-06
9.33825e-06
-1.1048e-05
2.41553e-06
9.79273e-06
-1.04986e-05
1.40444e-06
1.28076e-05
-1.17965e-05
-7.47151e-07
1.58076e-05
-1.3656e-05
-3.68933e-06
1.87572e-05
-1.5815e-05
-7.25463e-06
2.19288e-05
-1.83635e-05
-1.13116e-05
2.55749e-05
-2.15179e-05
-1.58125e-05
3.01399e-05
-2.5639e-05
-2.09976e-05
3.63466e-05
-3.11615e-05
-2.71379e-05
4.47053e-05
-3.8565e-05
5.59618e-05
-4.8424e-05
-3.46757e-05
3.62214e-06
5.7161e-06
5.79674e-06
7.61813e-06
6.87287e-06
1.17315e-05
6.90264e-06
1.57778e-05
5.68554e-06
1.99743e-05
3.2105e-06
2.44038e-05
-3.27507e-07
2.91129e-05
-4.63314e-06
3.44456e-05
-9.60469e-06
4.13181e-05
-1.54613e-05
5.05619e-05
6.3118e-05
-2.26175e-05
2.91441e-06
2.8017e-06
4.73162e-06
5.80092e-06
6.44796e-06
1.00152e-05
7.72291e-06
1.45029e-05
8.07205e-06
1.96251e-05
7.27752e-06
2.51984e-05
5.31163e-06
3.10788e-05
2.34582e-06
3.74114e-05
-1.32123e-06
4.49852e-05
-5.63576e-06
5.48765e-05
6.83112e-05
-1.0829e-05
1.85768e-06
9.44013e-07
3.59465e-06
4.06395e-06
5.50134e-06
8.10848e-06
7.13568e-06
1.28685e-05
8.2728e-06
1.8488e-05
8.73283e-06
2.47383e-05
8.26556e-06
3.1546e-05
6.8671e-06
3.88098e-05
4.78884e-06
4.70635e-05
2.28384e-06
5.73815e-05
7.11612e-05
-5.66071e-07
1.14239e-06
-1.98376e-07
2.70106e-06
2.50528e-06
4.46983e-06
6.33971e-06
6.21629e-06
1.11221e-05
7.82005e-06
1.68843e-05
9.0135e-06
2.35449e-05
9.63478e-06
3.09248e-05
9.57768e-06
3.88669e-05
8.97767e-06
4.76635e-05
8.11576e-06
5.82434e-05
7.20185e-05
7.25845e-06
5.17347e-07
-7.15723e-07
1.79452e-06
1.22812e-06
3.42531e-06
4.70892e-06
5.20585e-06
9.34152e-06
6.99795e-06
1.50922e-05
8.65309e-06
2.18897e-05
1.00155e-05
2.95624e-05
1.096e-05
3.79224e-05
1.15467e-05
4.70767e-05
1.20159e-05
5.77742e-05
7.13461e-05
1.26883e-05
9.14736e-08
-8.07196e-07
9.12186e-07
4.07403e-07
2.28246e-06
3.33864e-06
3.97282e-06
7.65116e-06
5.82232e-06
1.32427e-05
7.72701e-06
1.9985e-05
9.56526e-06
2.77241e-05
1.12371e-05
3.62506e-05
1.27473e-05
4.55665e-05
1.42676e-05
5.62539e-05
6.9554e-05
1.60597e-05
-1.27392e-07
-6.79804e-07
1.7569e-07
1.04321e-07
1.17709e-06
2.33724e-06
2.6215e-06
6.20676e-06
4.36856e-06
1.14956e-05
6.34345e-06
1.80101e-05
8.46414e-06
2.56034e-05
1.06484e-05
3.40664e-05
1.28775e-05
4.33373e-05
1.52648e-05
5.38667e-05
6.67461e-05
1.80726e-05
-2.11234e-07
-4.6857e-07
-2.4463e-07
1.37718e-07
2.81796e-07
1.81081e-06
1.40894e-06
5.07962e-06
2.93592e-06
9.96861e-06
4.84764e-06
1.60984e-05
7.0881e-06
2.3363e-05
9.60023e-06
3.15542e-05
1.23517e-05
4.05859e-05
1.53835e-05
5.08349e-05
6.32858e-05
1.88437e-05
-2.53051e-07
-2.1552e-07
-4.28671e-07
3.13338e-07
-3.03076e-07
1.68522e-06
4.63295e-07
4.31324e-06
1.7705e-06
8.66141e-06
3.54545e-06
1.43235e-05
5.79542e-06
2.1113e-05
8.48973e-06
2.88599e-05
1.1584e-05
3.74916e-05
1.50747e-05
4.73441e-05
5.9331e-05
1.90296e-05
-2.56546e-07
4.10267e-08
-4.95197e-07
5.51989e-07
-5.66152e-07
1.75617e-06
-1.48639e-07
3.89573e-06
8.93699e-07
7.61907e-06
2.48426e-06
1.27329e-05
4.68106e-06
1.89162e-05
7.4669e-06
2.60741e-05
1.0795e-05
3.41635e-05
1.46184e-05
4.35208e-05
5.4969e-05
1.89804e-05
-2.4086e-07
2.81887e-07
-5.08893e-07
8.20021e-07
-6.61983e-07
1.90926e-06
-4.91852e-07
3.7256e-06
2.93771e-07
6.83345e-06
1.71651e-06
1.13102e-05
3.83398e-06
1.67987e-05
6.66107e-06
2.3247e-05
1.01454e-05
3.06791e-05
1.42116e-05
3.94547e-05
5.03851e-05
1.87954e-05
-2.01399e-07
4.83286e-07
-4.47149e-07
1.06577e-06
-5.9594e-07
2.05806e-06
-5.08099e-07
3.63776e-06