/*--------------------------------*- C++ -*----------------------------------*\
| =========                 |                                                 |
| \\      /  F ield         | OpenFOAM: The Open Source CFD Toolbox           |
|  \\    /   O peration     | Version:  3.0.1                                 |
|   \\  /    A nd           | Web:      www.OpenFOAM.org                      |
|    \\/     M anipulation  |                                                 |
\*---------------------------------------------------------------------------*/
FoamFile
{
    version     2.0;
    format      ascii;
    class       volScalarField;
    location    "0.672688";
    object      p;
}
// * * * * * * * * * * * * * * * * * * * * * * * * * * * * * * * * * * * * * //

dimensions      [0 2 -2 0 0 0 0];

internalField   nonuniform List<scalar> 
21246
(
-7.10328
-2.48329
-0.685736
0.150324
0.529687
0.69438
0.733303
0.703868
0.632265
0.550119
0.538352
-15.8768
-8.92982
-6.08485
-3.9127
-2.21748
-1.14927
-0.55816
-0.231651
-0.0691012
0.00463439
0.0787923
-13.3965
-10.8147
-9.22894
-7.10911
-4.9779
-3.31334
-2.14724
-1.37907
-0.905142
-0.611429
-0.382305
-9.41448
-9.25387
-8.97416
-7.87396
-6.35474
-4.82918
-3.50948
-2.48929
-1.7634
-1.27183
-0.908075
-7.16116
-7.39949
-7.43424
-7.09241
-6.34833
-5.34379
-4.25822
-3.26957
-2.46879
-1.86684
-1.39469
-6.06111
-6.13979
-6.16128
-6.03768
-5.73556
-5.17927
-4.4356
-3.64098
-2.90794
-2.30055
-1.79691
-5.62538
-5.48184
-5.44382
-5.35972
-5.16942
-4.82374
-4.31934
-3.71722
-3.10095
-2.54491
-2.06382
-5.46728
-5.17877
-5.10865
-4.97235
-4.78677
-4.51759
-4.13308
-3.65357
-3.13102
-2.62927
-2.18043
-5.35953
-5.03645
-4.93355
-4.74909
-4.5508
-4.30509
-3.97048
-3.54893
-3.07718
-2.60631
-2.17693
-5.28874
-4.96467
-4.82832
-4.62599
-4.42122
-4.17752
-3.85513
-3.44998
-2.99062
-2.52307
-2.09206
-5.24715
-4.93314
-4.77742
-4.5652
-4.35452
-4.10339
-3.77539
-3.36215
-2.88908
-2.4022
-1.95003
-5.20259
-4.8923
-4.73488
-4.51837
-4.30328
-4.04152
-3.70192
-3.27073
-2.77124
-2.25208
-1.75638
-5.14184
-4.83728
-4.67956
-4.46043
-4.23104
-3.96449
-3.61218
-3.16062
-2.63204
-2.07983
-1.55131
-5.05864
-4.76154
-4.60082
-4.3796
-4.13531
-3.85695
-3.49411
-3.02543
-2.47182
-1.89061
-1.33241
-4.95563
-4.66233
-4.49946
-4.27452
-4.01563
-3.71899
-3.3475
-2.86877
-2.29873
-1.69899
-1.11441
-4.83768
-4.54966
-4.38498
-4.15622
-3.89036
-3.57694
-3.19861
-2.71396
-2.13828
-1.53113
-0.9429
-4.7168
-4.43818
-4.27373
-4.04474
-3.77865
-3.46472
-3.08143
-2.59875
-2.02457
-1.41678
-0.815985
-4.6037
-4.33659
-4.17859
-3.95902
-3.70316
-3.40172
-3.02804
-2.56014
-1.99672
-1.39517
-0.799913
-4.50164
-4.2529
-4.11119
-3.91178
-3.68011
-3.40615
-3.06442
-2.62694
-2.08966
-1.50217
-0.904864
-4.41656
-4.19661
-4.07853
-3.91072
-3.71832
-3.4906
-3.20028
-2.81429
-2.32203
-1.75671
-1.14397
-4.34811
-4.17507
-4.0852
-3.95995
-3.82084
-3.65724
-3.43788
-3.12702
-2.70256
-2.17408
-1.55247
-4.30766
-4.18766
-4.13543
-4.06053
-3.98749
-3.90364
-3.77333
-3.55812
-3.22672
-2.75298
-2.11535
-4.27774
-4.2432
-4.22227
-4.20165
-4.20373
-4.20741
-4.16231
-4.00568
-3.73258
-3.34625
-2.79959
-4.46181
-4.33905
-4.37264
-4.42539
-4.47295
-4.4938
-4.47028
-4.38602
-4.20782
-3.90673
-3.41469
11.0452
7.06139
4.58362
3.24748
2.50315
2.05241
1.73283
1.46815
1.22989
1.02979
0.90368
11.7355
10.6165
8.53627
6.58857
5.00398
3.83073
2.98901
2.36917
1.88965
1.52609
1.30867
8.62561
9.10526
8.66396
7.59314
6.29891
5.06729
4.01214
3.15533
2.47514
1.95218
1.62053
6.04159
7.00683
7.18194
6.93903
6.30752
5.41838
4.47528
3.61075
2.86606
2.25982
1.85543
4.08429
5.09932
5.50385
5.68938
5.53274
5.08029
4.44589
3.73808
3.03719
2.41795
1.96958
2.62393
3.51308
3.92623
4.30283
4.47014
4.37373
4.04088
3.54721
2.97928
2.42101
1.99741
1.55979
2.28975
2.62759
3.03098
3.32554
3.44551
3.36553
3.10506
2.71307
2.25836
1.89452
0.815759
1.38318
1.63058
1.99051
2.29587
2.50203
2.57114
2.48824
2.26462
1.93615
1.66451
0.237928
0.688827
0.860558
1.16339
1.43215
1.64888
1.78213
1.80662
1.71153
1.49971
1.32719
-0.255059
0.11969
0.228533
0.484334
0.704952
0.898557
1.04552
1.12334
1.11359
0.998968
0.914868
-0.681179
-0.385376
-0.328307
-0.103182
0.0677759
0.22482
0.359049
0.455711
0.49728
0.460403
0.432678
-1.03982
-0.865888
-0.777069
-0.622398
-0.508678
-0.398121
-0.296196
-0.205669
-0.134445
-0.108072
-0.0824011
-1.38279
-1.27689
-1.20541
-1.11353
-1.04567
-0.985549
-0.928681
-0.867266
-0.792691
-0.717607
-0.630651
-1.72458
-1.66689
-1.62486
-1.58069
-1.55894
-1.54928
-1.54308
-1.52363
-1.4702
-1.37568
-1.23494
-2.03411
-2.03266
-2.02612
-2.0274
-2.05348
-2.09583
-2.14286
-2.17233
-2.15334
-2.05946
-1.90072
-2.3353
-2.38826
-2.41323
-2.45738
-2.53072
-2.6245
-2.72562
-2.80771
-2.83023
-2.74747
-2.57915
-2.63638
-2.73471
-2.7871
-2.86965
-2.98642
-3.12785
-3.28019
-3.41371
-3.47884
-3.40738
-3.17404
-2.92695
-3.06404
-3.14186
-3.257
-3.41035
-3.5918
-3.7875
-3.96593
-4.0726
-4.03527
-3.82584
-3.20551
-3.37241
-3.47136
-3.61011
-3.78907
-3.9979
-4.22302
-4.43217
-4.56657
-4.53997
-4.27806
-3.47118
-3.6553
-3.76764
-3.91733
-4.10653
-4.32536
-4.56044
-4.7796
-4.92411
-4.91
-4.65809
-3.71775
-3.90357
-4.01859
-4.16384
-4.34541
-4.55486
-4.77788
-4.98233
-5.11322
-5.09297
-4.83942
-3.93188
-4.10309
-4.20712
-4.33293
-4.49121
-4.67435
-4.86335
-5.02477
-5.10918
-5.04157
-4.66878
-4.12627
-4.25641
-4.33532
-4.42954
-4.55372
-4.69462
-4.82602
-4.91652
-4.92899
-4.81446
-4.45349
-4.2111
-4.29601
-4.33924
-4.40334
-4.49223
-4.58048
-4.63456
-4.63467
-4.55682
-4.36672
-3.96402
2.55223
0.948643
0.637291
0.722093
1.0086
1.36544
1.6317
1.80641
1.89094
1.92101
1.99588
11.4198
8.91743
6.86208
5.45311
4.54229
3.98846
3.63445
3.37673
3.15443
2.956
2.8311
11.8078
11.171
9.92124
8.60745
7.36376
6.34562
5.53429
4.89559
4.3744
3.93416
3.61699
10.8451
10.854
10.4339
9.72652
8.81218
7.87308
6.95889
6.12944
5.40633
4.7991
4.36969
10.1005
10.2749
10.1576
9.86668
9.33201
8.63085
7.83247
7.02267
6.26056
5.59339
5.09332
9.55147
9.80213
9.78968
9.68268
9.4013
8.94824
8.35011
7.65845
6.9312
6.2334
5.65958
9.03907
9.28191
9.32603
9.33778
9.23287
8.96797
8.53747
7.97011
7.31524
6.64137
6.04667
8.58051
8.7635
8.82686
8.87493
8.85013
8.70663
8.41719
7.98379
7.43532
6.8372
6.30295
8.15668
8.30761
8.36076
8.41022
8.41243
8.32959
8.13098
7.80362
7.35657
6.83794
6.35525
7.74215
7.88342
7.92881
7.9727
7.9806
7.92369
7.77538
7.51899
7.15227
6.70638
6.27338
7.38572
7.50302
7.53222
7.56357
7.56567
7.516
7.39275
7.18006
6.87078
6.48736
6.12324
7.1111
7.17813
7.17616
7.18365
7.16885
7.11314
6.9982
6.81022
6.54073
6.2044
5.88318
6.82075
6.85522
6.83175
6.81659
6.78114
6.71191
6.59451
6.41831
6.17606
5.87806
5.5978
6.48894
6.5124
6.47805
6.4444
6.38861
6.3027
6.17659
6.00363
5.77885
5.50851
5.26107
6.2147
6.19271
6.12621
6.06383
5.98224
5.87539
5.73612
5.56182
5.35138
5.10945
4.89662
5.90616
5.84278
5.74878
5.6573
5.54723
5.41628
5.26139
5.0847
4.88924
4.6772
4.50004
5.52083
5.43396
5.32305
5.20464
5.06495
4.90842
4.73844
4.56294
4.38887
4.21432
4.07729
5.13848
5.00056
4.85312
4.69469
4.51789
4.33371
4.15262
3.98853
3.85002
3.72954
3.65187
4.70979
4.50572
4.31138
4.10107
3.87817
3.66671
3.48729
3.35601
3.27583
3.22678
3.21843
4.18465
3.90117
3.65112
3.37941
3.10921
2.88392
2.73427
2.67072
2.67914
2.72034
2.77692
3.52822
3.13791
2.81346
2.47472
2.17113
1.97046
1.9043
1.95949
2.09162
2.24327
2.37927
2.7162
2.11104
1.71411
1.32373
1.03984
0.946898
1.04684
1.27792
1.56097
1.82952
2.04734
1.14136
0.729193
0.24094
-0.116085
-0.238127
-0.0858489
0.266395
0.705542
1.13833
1.50595
1.77862
1.91949
-0.791773
-1.28489
-1.42853
-1.23536
-0.778838
-0.205787
0.375565
0.895105
1.31101
1.60199
-22.6826
-10.4834
-5.76673
-3.5808
-1.89382
-0.778034
-0.107292
0.392005
0.701811
0.90322
1.10235
-24.3796
-17.0594
-13.1295
-9.75542
-6.50039
-4.08472
-2.4609
-1.38448
-0.696601
-0.214467
0.190771
-17.4093
-17.2072
-16.1356
-13.7877
-10.7428
-7.8093
-5.38614
-3.60433
-2.36898
-1.50482
-0.833648
-15.4064
-15.7754
-15.7081
-14.8613
-13.1116
-10.7227
-8.17406
-5.93588
-4.2167
-2.94401
-1.95274
-15.5167
-15.5186
-15.4675
-15.1485
-14.2631
-12.6368
-10.4319
-8.09976
-6.05747
-4.43475
-3.15277
-15.6827
-15.7518
-15.6414
-15.5002
-15.0536
-13.9982
-12.2382
-10.0282
-7.81469
-5.89098
-4.31814
-15.9172
-16.0517
-16.034
-15.9393
-15.7585
-15.1353
-13.7887
-11.7812
-9.49571
-7.32839
-5.399
-16.2497
-16.4501
-16.5139
-16.5321
-16.5251
-16.201
-15.2055
-13.4163
-11.1103
-8.75711
-6.56682
-16.6289
-16.8973
-17.0354
-17.2274
-17.3376
-17.2451
-16.5443
-14.955
-12.6357
-10.0868
-7.57343
-16.9649
-17.3233
-17.5267
-17.8599
-18.1516
-18.2707
-17.8042
-16.3786
-14.0345
-11.3032
-8.53244
-17.1278
-17.6955
-17.9451
-18.4065
-18.9134
-19.2222
-18.9376
-17.6286
-15.2267
-12.2886
-9.29788
-17.2844
-17.9075
-18.1923
-18.7885
-19.4718
-19.9402
-19.8079
-18.5763
-16.0828
-12.9154
-9.71523
-17.2626
-17.8554
-18.2788
-18.9134
-19.7024
-20.2968
-20.2895
-19.0708
-16.4509
-13.0667
-9.5867
-16.9945
-17.5711
-18.0701
-18.7312
-19.509
-20.1728
-20.2343
-18.9484
-16.196
-12.6823
-9.11062
-16.5183
-17.0134
-17.52
-18.154
-18.8727
-19.4659
-19.3629
-18.056
-15.2357
-11.673
-8.18168
-15.7453
-16.107
-16.5592
-17.1103
-17.7056
-18.1084
-17.7935
-16.309
-13.5513
-10.1166
-6.77754
-14.6057
-14.8053
-15.1546
-15.5794
-15.9992
-16.1635
-15.6408
-13.9529
-11.2271
-7.89356
-4.86331
-13.0874
-13.1202
-13.3534
-13.6603
-13.9096
-13.8217
-13.0392
-11.2516
-8.57517
-5.63057
-2.81654
-11.1937
-11.1193
-11.3054
-11.5706
-11.7035
-11.3881
-10.3324
-8.41675
-5.91906
-3.39909
-1.07209
-9.01429
-9.03417
-9.33878
-9.64603
-9.67268
-9.11548
-7.75834
-5.67487
-3.36131
-1.2457
0.5789
-6.97795
-7.31319
-7.87752
-8.27879
-8.22981
-7.45959
-5.83249
-3.63132
-1.51552
0.233642
1.65433
-5.96458
-6.9899
-7.93384
-8.31017
-8.13325
-6.98903
-4.74114
-2.30487
-0.38758
0.97981
1.94852
-7.53577
-9.98152
-9.62162
-8.61384
-6.91933
-4.91781
-2.87793
-1.08161
0.209687
1.06999
1.61709
-13.7606
-7.89947
-5.78749
-4.45629
-3.10792
-1.86375
-0.796218
0.0883498
0.761085
1.24454
1.55078
10.0298
11.2991
10.4803
9.10506
7.55544
6.1992
5.04193
4.08619
3.28771
2.65457
2.33226
-17.455
-4.80869
-0.962088
2.22359
3.29807
3.50621
3.16088
2.72525
2.26288
1.84382
1.60907
-27.7275
-16.8688
-12.9753
-6.7661
-3.22824
-0.869714
0.278387
0.713505
0.841858
0.824409
0.82591
-27.2864
-21.6872
-19.646
-13.3469
-9.40727
-5.72657
-3.31876
-1.77992
-0.947491
-0.449538
-0.116322
-23.724
-21.3528
-20.7712
-16.145
-13.2197
-9.37394
-6.54142
-4.32248
-2.82189
-1.84228
-1.13877
-20.2735
-19.1443
-19.0851
-16.149
-14.4267
-11.168
-8.63577
-6.27943
-4.46529
-3.1166
-2.16863
-17.2315
-16.6769
-16.7137
-14.8468
-13.9021
-11.4416
-9.50717
-7.3697
-5.59141
-4.12682
-2.962
-14.4433
-14.2675
-14.3374
-13.1109
-12.5781
-10.8099
-9.43987
-7.66573
-6.11721
-4.72424
-3.54608
-12.0818
-12.0697
-12.1294
-11.322
-11.0072
-9.74445
-8.79175
-7.39999
-6.14018
-4.91086
-3.8148
-10.2021
-10.1785
-10.1987
-9.65261
-9.44413
-8.5406
-7.86911
-6.80336
-5.8135
-4.78209
-3.81266
-8.50551
-8.47189
-8.49772
-8.12536
-7.98411
-7.3399
-6.85982
-6.05243
-5.28472
-4.44734
-3.65165
-6.98326
-6.9377
-6.95405
-6.72887
-6.65144
-6.20223
-5.85998
-5.25294
-4.6582
-3.98022
-3.32234
-5.82447
-5.71331
-5.70257
-5.55355
-5.50244
-5.18396
-4.93155
-4.47093
-4.00449
-3.45557
-2.92342
-4.99329
-4.8068
-4.76908
-4.64499
-4.58008
-4.32898
-4.11706
-3.74956
-3.36916
-2.91819
-2.48163
-4.32927
-4.08664
-4.03744
-3.92535
-3.84091
-3.62214
-3.41861
-3.10126
-2.7708
-2.38813
-2.01575
-3.84943
-3.5635
-3.49305
-3.37134
-3.25678
-3.04106
-2.82078
-2.51927
-2.21111
-1.87699
-1.57096
-3.51782
-3.20543
-3.10566
-2.96084
-2.80333
-2.56306
-2.30229
-1.98761
-1.68103
-1.37934
-1.11326
-3.24855
-2.91766
-2.78803
-2.61686
-2.41723
-2.13968
-1.82515
-1.47929
-1.16454
-0.891655
-0.674217
-3.00146
-2.66155
-2.50512
-2.30601
-2.06178
-1.7316
-1.35209
-0.967926
-0.64923
-0.413381
-0.264055
-2.75555
-2.41288
-2.23781
-2.01077
-1.71013
-1.29834
-0.84693
-0.434931
-0.131428
0.0566969
0.151853
-2.50013
-2.16513
-1.97483
-1.69813
-1.30328
-0.807313
-0.274245
0.117846
0.373517
0.504645
0.56236
-2.1819
-1.91496
-1.66449
-1.27994
-0.748496
-0.162267
0.336132
0.648702
0.813871
0.874146
0.87399
-2.03482
-1.65711
-1.25526
-0.674003
-0.0225143
0.539867
0.903457
1.08546
1.18216
1.24707
1.537
-1.10691
-0.62602
0.0292947
0.620382
1.00236
1.18508
1.21572
1.18421
1.13677
1.10738
1.31302
28.1011
21.9303
16.7814
12.8824
10.0885
8.01733
6.39489
5.10089
4.06219
3.258
2.75967
17.9474
19.0562
17.8467
15.3775
12.3851
9.72191
7.59696
5.96964
4.71575
3.77695
3.18497
7.64972
12.1852
13.1856
13.2701
11.9798
10.1437
8.26266
6.56694
5.16736
4.11926
3.4267
0.182027
5.23057
7.09637
9.04882
9.53003
8.90618
7.75131
6.42468
5.17859
4.17341
3.5273
-4.11928
0.0214879
1.63894
4.33032
5.79354
6.44325
6.22764
5.56668
4.71418
3.9118
3.3397
-6.3581
-3.17223
-2.11667
0.555852
2.21458
3.57157
4.11753
4.13423
3.78329
3.30398
2.89841
-7.47447
-4.93575
-4.37354
-1.94461
-0.597998
1.05661
1.98843
2.49941
2.59964
2.46639
2.29652
-7.92788
-5.84824
-5.70393
-3.41042
-2.52498
-0.890704
0.171411
0.96335
1.38889
1.55856
1.62085
-8.23221
-6.36957
-6.49261
-4.44886
-3.68634
-2.25696
-1.22089
-0.315463
0.30187
0.690212
0.938709
-8.47832
-6.91315
-6.7449
-5.2502
-4.45964
-3.19304
-2.22524
-1.29671
-0.587582
-0.0643019
0.319898
-8.60206
-7.40245
-6.95253
-5.73083
-4.97633
-3.8253
-2.92122
-2.00465
-1.2604
-0.663718
-0.188456
-8.51927
-7.52608
-7.06725
-5.98282
-5.27635
-4.21795
-3.37134
-2.47975
-1.73009
-1.09647
-0.589721
-8.41716
-7.48286
-7.05273
-6.0553
-5.39551
-4.40745
-3.61388
-2.75336
-2.01806
-1.37271
-0.865245
-8.33802
-7.36639
-6.94485
-5.99436
-5.3658
-4.43188
-3.68092
-2.85437
-2.14423
-1.50606
-0.991183
-8.01615
-7.10419
-6.72634
-5.82052
-5.21197
-4.3243
-3.60227
-2.81077
-2.12921
-1.51328
-1.01089
-7.64656
-6.76803
-6.41662
-5.54813
-4.94748
-4.10086
-3.39681
-2.6421
-1.99236
-1.41273
-0.939525
-7.27548
-6.39127
-6.0349
-5.19141
-4.58089
-3.76865
-3.07529
-2.36036
-1.7491
-1.21961
-0.791871
-6.8123
-5.93233
-5.56467
-4.74531
-4.11161
-3.3282
-2.64432
-1.97479
-1.41338
-0.945588
-0.570413
-6.25699
-5.38367
-4.99377
-4.19659
-3.53162
-2.77469
-2.10871
-1.49675
-0.99912
-0.60631
-0.305765
-5.62744
-4.7476
-4.31261
-3.52929
-2.83021
-2.10361
-1.47626
-0.940905
-0.52584
-0.222266
-0.00944558
-4.89899
-3.99462
-3.49089
-2.71748
-1.99876
-1.32185
-0.769919
-0.333241
-0.0192926
0.186385
0.309437
-4.00943
-3.0609
-2.47176
-1.72836
-1.04071
-0.459217
-0.0219098
0.294883
0.501021
0.610536
0.644302
-3.02051
-1.91537
-1.28314
-0.656974
-0.0899794
0.345129
0.64651
0.847132
0.953411
0.966193
0.899665
-1.05421
-0.167518
0.261363
0.624298
0.938608
1.16419
1.32721
1.4789
1.5754
1.56735
1.40118
-0.422111
-0.310523
-0.312355
-0.354544
-0.641528
-1.26806
-1.66443
-1.47472
-0.702006
-0.361937
-0.313088
-0.3219
-0.358086
-0.52118
-0.935134
-1.1938
-1.004
-0.443044
-0.304869
-0.28936
-0.305171
-0.345307
-0.479814
-0.849257
-1.07251
-0.943843
-0.38927
-0.233271
-0.242694
-0.277012
-0.322348
-0.425239
-0.71985
-0.87194
-0.724692
-0.311647
-0.67239
-1.06282
-1.02647
-0.443625
0.458259
1.20018
1.27531
0.945494
0.335428
-0.46568
-0.692976
-0.625317
-0.187772
0.465397
1.05124
1.10969
0.826507
0.324157
-0.405862
-0.599831
-0.545443
-0.137752
0.436534
0.922291
0.958711
0.711421
0.278851
-0.312825
-0.453805
-0.386122
-0.0677668
0.392316
0.812669
0.833201
0.61525
0.242118
1.5839
2.0961
2.10755
-0.203727
-0.233968
2.53931
-0.249638
2.38238
2.55518
1.55632
-0.243852
2.37891
-0.205244
-0.142746
1.5766
1.94442
-0.00894059
-0.204353
1.94799
1.57037
1.63294
-0.205325
2.17976
-0.0464811
2.05516
-0.139165
-0.199389
-0.248837
-0.762702
-0.226356
-0.00842493
0.411198
-0.0803567
2.10791
0.260325
2.12595
-0.0375528
2.07001
-0.0829472
2.52163
-0.074529
2.11477
-0.258365
2.18613
-0.376712
-0.00925178
-0.289624
-0.157071
0.701635
2.70517
-0.228308
2.51109
-0.00656291
-0.266203
2.69038
1.63669
-0.214904
2.48978
-0.816067
-0.216095
-0.51753
-0.00478499
-0.266
-0.248852
-0.0157222
1.57221
-0.147946
3.11311
2.12618
1.55897
-0.046315
1.98823
-0.216316
2.1989
-0.125897
2.03118
-0.203778
2.13628
-0.285524
-0.237908
-4.12397e-06
-0.247647
1.66812
1.69174
-0.0360493
-0.214327
-1.12466
0.00488498
-0.281678
0.0436051
2.19127
2.4761
-0.0396328
2.54936
-0.260994
-0.244752
-0.174195
-0.026481
-0.258914
2.03583
-0.0961144
-0.199661
1.43566
0.137949
-0.251528
2.28906
-0.00301522
1.67248
0.000243998
1.09245
2.22424
2.10843
2.28194
-0.211658
-0.227765
1.63822
2.52644
2.11966
2.42067
1.31475
-0.215314
2.12271
0.536407
-0.0160601
-0.0122694
-0.089421
-0.0194661
-0.0041447
-0.00247755
-3.59232e-05
2.34956
-0.218987
-0.169031
2.00664
2.21227
-0.06715
-0.181486
-0.241803
-0.179781
0.827733
-0.199921
1.50502
-0.331401
0.977187
2.52068
-0.232804
-0.120524
3.07443
1.70214
2.28277
2.4777
2.44902
-0.223995
2.14788
-0.20842
-0.248511
-0.239705
-0.26987
-0.0191383
1.75008
-0.0105525
-0.270501
2.01014
1.80024
-0.127171
0.000338828
-0.27266
1.5634
-0.0630374
-0.0381072
-0.0697192
-0.00753581
-0.0513503
1.37527
0.462233
0.531741
-0.00621805
-0.234583
-0.408966
0.603346
2.97431
-0.204994
2.17688
-0.201122
2.39566
-0.222955
2.55182
2.09319
1.92261
-0.285296
0.00279759
-0.181095
1.50891
-0.0996346
2.1395
1.89787
2.59481
-0.275386
0.000518142
1.65172
-0.234124
2.77675
-0.00235193
-0.0179225
2.19795
0.0119015
2.57816
0.000389178
2.67161
1.55946
0.0228658
2.03055
1.19705
0.39561
2.15509
-0.0823634
2.21021
-0.239576
2.6442
-0.216137
-0.0313547
-0.211041
-0.163341
-0.237624
-0.0131233
2.44828
-0.165473
0.00303471
0.000206236
-0.267215
-0.251447
1.48334
2.51263
2.04628
-0.223348
-0.685363
-0.0100374
2.17143
2.31966
2.3256
-0.214669
-0.198066
0.116279
-0.134483
3.22906
-0.300002
2.09564
-0.0398577
-0.369964
0.0470488
-0.0353966
0.0181292
-0.42111
1.73859
0.489629
2.58338
1.74752
2.07332
-0.246518
2.56104
-0.00553048
-0.106735
1.53557
2.16776
2.21475
-0.255213
1.46109
3.88586
0.105114
0.195676
-0.216015
2.49471
2.79588
-0.28986
2.20408
2.10994
-0.0242918
2.28061
0.889989
-0.261706
1.99679
2.36845
0.00910146
0.0302489
0.55591
2.08898
-1.11275
2.3402
0.738754
-0.184646
2.28275
-0.271101
1.27123
-0.189942
2.12479
2.6498
-0.0602257
2.20718
0.327068
-0.033714
2.46646
-0.229035
0.523119
-0.217073
1.78852
1.03859
2.15739
0.0220792
-0.209288
2.36404
-0.204453
2.29555
0.960992
-0.0578908
-0.245661
1.00161
-0.194628
-0.260457
1.25775
2.44418
2.45529
0.0335742
2.05239
-0.0653964
-0.25993
1.64072
2.11285
-0.184626
1.46656
0.00944338
3.56067
-0.257006
-0.18159
2.31086
-0.200919
-0.453046
-0.239796
2.16689
2.26547
0.000442524
-0.136427
0.0563699
2.80814
-0.0182188
-0.234311
0.0167315
-0.257363
2.10119
-0.0742614
-0.00965319
-0.19091
-0.0162594
0.23779
1.84735
-0.0144358
1.6502
-0.0273262
0.843345
2.16945
0.0170668
0.209745
-0.160299
2.20478
1.66444
2.24135
-0.273267
-0.00544086
-0.217516
-0.199041
0.726489
2.26296
-0.228079
-0.417594
-0.0713263
-0.0993147
2.2774
0.49502
0.261534
2.0846
2.27349
0.066223
1.92979
-0.241109
2.42596
-0.177869
-0.0181933
-0.216577
-0.0126282
-0.193462
-0.268838
2.43496
-0.221095
-0.00224437
1.79148
-0.0163828
-0.030327
2.16289
2.28696
2.35986
-0.313065
-0.251736
1.63119
2.31201
-0.153536
-0.0102287
-0.117559
-0.285341
0.0086474
2.76936
0.0325637
1.87017
1.93319
-0.00399936
-0.00388521
-0.221738
0.874967
0.0030482
2.11423
-0.0253159
-0.245267
-0.199637
-0.026465
-0.235144
-0.00157921
0.491255
1.16014
2.18991
-0.00570344
-0.0167549
0.0274195
2.08522
-0.282367
-0.174743
1.18856
0.156971
-0.0615466
-0.151155
-0.195596
-0.0175874
2.06088
0.0407963
-1.06293
-0.198154
-0.220547
2.16434
-0.125083
-0.120657
-0.211567
1.82703
-0.293097
2.43304
1.69249
2.22939
-0.260704
-0.12245
-0.190685
-0.072864
-0.283989
-0.00660273
1.83017
1.84726
-0.0207715
-0.0726699
0.445844
2.10095
-0.00630932
-0.00787791
1.63947
2.02924
3.48732
0.515026
-0.226317
2.2132
-0.437529
2.07847
2.28934
2.46635
1.57547
-0.273493
2.51826
1.73257
1.6877
-0.250243
-0.194912
2.16646
-0.228859
-0.244518
1.02942
-0.0954467
1.66234
-0.197333
1.92562
2.18057
2.44307
0.00152425
-0.0203942
1.51616
-0.17041
1.09439
3.81645
-0.167976
-0.185185
2.37458
1.72444
-0.390887
-0.0275349
-0.204869
3.50004
-0.187028
2.05781
-0.0982713
-0.020799
-0.272197
-0.000388896
-0.137113
-0.0278463
-0.301294
-0.166105
2.08232
0.0221802
1.2162
2.36451
2.22002
2.28566
1.78879
0.0434956
2.39851
1.68099
-0.133753
2.46644
-0.0664204
0.407057
0.0030286
-0.045307
-0.281924
2.01769
2.17524
2.35622
-0.113737
-0.265038
2.09478
1.83652
-0.0139359
2.32739
-0.207526
2.33089
-0.0197449
0.877237
-0.284644
-0.116547
-0.0258333
-0.0258508
-0.089476
1.81255
1.40967
1.66567
2.26091
-0.0608635
-0.295052
1.42943
-0.00560736
-0.523145
-0.164799
2.10381
2.66438
2.27981
-0.130881
0.00902574
-0.00645414
2.34028
2.44779
0.0367328
2.45133
-0.194863
0.00149276
-0.00783652
-0.250926
2.23959
-0.0173526
2.16651
-0.298743
2.43156
-0.131991
-0.00776961
0.51981
-0.244688
-0.00645478
2.35398
2.1294
-0.27696
1.77533
-0.0178701
-0.209902
-0.331482
-0.164997
-0.126976
-0.203808
1.64479
2.46803
2.40559
-0.266468
-0.237647
-0.103033
1.5455
2.11258
-0.281359
2.53519
2.60535
1.87975
1.84613
-0.218724
-0.260308
-0.344121
0.131978
0.714179
-0.5228
1.71427
-0.0727011
1.96866
2.45581
-0.360211
0.0729406
2.01754
1.85881
-0.166377
1.4049
1.80469
0.107981
2.27322
1.5327
-0.219846
-0.192432
0.329466
-0.0308664
-0.0283264
-0.270921
-0.0275168
-0.182115
-0.0929461
-0.158175
-0.272179
-0.235183
-0.0286289
2.06236
1.98067
-0.26061
0.721054
2.19417
1.08696
-0.177044
-0.240688
-0.358172
-0.119752
0.399324
2.13806
-0.520304
2.04226
2.26888
1.17372
-0.200469
1.78603
3.55997
2.27045
2.25614
-0.204362
-0.00701834
-0.267007
1.94402
2.66575
0.861496
-0.0320345
2.44444
-0.308336
2.18218
-0.133329
8.4392e-05
2.20027
-0.0149452
1.83971
-0.0832142
-0.217723
-0.21752
-0.320281
0.00591757
-0.00478412
1.67095
-0.00387879
-0.078011
-0.260042
0.015649
2.08294
0.932616
1.68595
0.187968
2.20282
-0.199822
2.33025
2.52302
2.07265
-0.193615
-0.300135
2.05159
-0.00888744
2.35391
0.00482213
-0.0208165
1.3383
-0.212701
-0.123019
-0.163117
0.559774
-0.116822
-0.201277
-0.0603757
-0.0600746
-0.238109
2.07622
-0.207864
2.31275
3.41773
-0.204571
0.0405545
-0.20132
-0.134367
2.43969
1.50924
1.28625
-0.268751
1.84334
0.0192522
-0.152267
-0.0113435
1.28197
0.419025
-0.201375
-0.157715
1.94588
-0.206038
-0.214772
-0.256201
2.23783
-0.164658
-0.532808
2.16284
-0.0918748
-0.0267973
2.35912
-0.138132
2.43921
2.38082
1.14097
-0.0357449
1.97138
-0.076936
2.26872
-0.0927991
1.82201
-0.193651
-0.039525
0.0718634
-0.000475858
2.0682
-0.148492
-0.0632727
1.73543
-0.0783516
0.541321
-0.155832
-0.426125
-0.260888
1.49087
-0.239222
-0.131513
-0.289354
2.22927
-0.0462036
2.13652
-0.240157
-0.163938
2.11085
2.42628
-0.0546042
-0.242665
0.0462425
-0.203206
2.36823
-0.2035
1.07807
2.09408
1.93056
2.29319
2.31368
3.30448
-0.0161155
-0.227524
-0.204712
-0.00651076
0.0771861
2.03836
2.36081
0.319499
0.0128316
2.18692
0.227607
-0.151597
-0.191461
0.00155034
-0.153364
0.410137
-0.253857
2.02147
2.34086
-0.0355957
1.41228
2.37474
1.02431
-0.00258826
0.0159359
0.0452119
2.1497
-0.148346
-0.123507
-0.21571
2.36905
-0.00316528
-0.117471
-0.294315
-0.2394
1.75378
2.21879
-0.199836
-0.261206
-0.164307
1.68767
2.26386
2.4228
2.44703
2.35248
-0.165348
-0.0616615
-0.08012
-0.216059
-0.145253
2.37359
-0.272265
1.84141
2.1572
0.517277
2.36126
2.33111
2.4863
-0.259117
-0.0287689
-0.26266
2.31911
-0.247191
2.13352
2.24795
2.64341
1.88269
1.09486
2.19062
2.21778
2.69328
-0.418775
2.14779
1.6315
0.0859136
-0.31895
2.82437
2.22496
-0.240709
-0.425883
2.79917
-0.0575003
-0.245547
-0.233898
2.25506
2.06048
1.61085
0.921297
-0.0254426
2.33458
-0.132159
-0.199537
-0.0103146
-0.131075
2.20261
-0.173163
1.50965
2.20357
2.00598
3.55054
2.14245
-0.0315894
-0.0430207
0.531084
-0.060277
-0.0183621
-0.202157
0.682059
-0.268553
2.13071
2.21165
-0.0171002
-0.0293473
-0.180213
2.52776
-0.255808
2.3037
-0.210542
1.87226
-0.0211459
-0.00891434
-0.262957
-0.0334844
1.53508
2.06887
0.0291789
-0.178556
0.0138117
0.183292
-0.236751
1.23593
1.77246
-0.0106668
2.33959
2.21272
-0.0174448
0.0135782
-0.235325
-0.190334
3.39217e-05
-0.161731
-0.0895429
-0.548659
1.71376
1.23546
-0.0165887
1.7584
-0.638781
2.3279
0.0119855
-0.171599
0.00932107
1.80336
-0.0387761
2.33539
2.49378
0.00341299
-0.208666
2.44188
2.27934
2.66721
-0.0918564
0.0162527
-0.251493
0.749704
1.5311
-0.0566189
-0.242777
-0.294554
1.7147
-0.00145668
-0.0955528
2.35165
-0.00700094
0.777598
-0.295158
-0.0822026
0.679479
-0.208906
0.955053
2.26252
-0.226893
0.00270625
2.62489
0.00180593
2.18476
-0.646683
0.000874833
-0.138294
2.08482
-0.023384
-0.213806
-0.217442
-0.0276019
-0.00958307
1.66233
-0.00164043
-0.260325
2.1501
1.14438
-0.138655
-0.228248
0.0204645
-0.0753112
2.46142
1.8476
-0.231346
2.21401
-0.0729165
-0.180911
0.00295861
-0.013714
2.35093
-0.216791
-0.263149
-0.0314604
0.0107381
-0.125305
2.0131
-0.158492
-0.0323113
1.80572
1.09812
2.21531
-0.144575
1.32104
2.35279
-0.164917
-0.067977
-0.0839301
2.22723
-0.201088
-0.17648
1.48261
-0.113224
2.08474
1.53664
0.761835
-0.226967
3.3286
-0.087549
0.707222
-0.259714
2.18645
1.73602
1.6801
1.68584
-0.208549
-0.0856138
-0.145708
-0.354505
-0.00249761
-0.539904
1.52854
0.975922
-0.230217
1.76015
-0.0673559
-0.0339167
0.47532
-0.311833
-0.157822
-0.0424755
2.23307
-0.00877094
1.72008
0.039325
2.22824
-0.370452
-0.0602505
2.10615
-0.237795
-0.0116638
1.75623
-0.0915777
-0.123927
-0.139069
0.0120483
0.451101
-0.326885
-7.46473e-05
-0.217475
-0.0360422
-0.0345748
2.28658
-0.113945
3.47816
-0.0757632
-0.139829
-0.220985
0.365406
-0.269199
-0.333735
1.74466
2.97225
1.65214
2.23374
-0.183681
-0.0661258
1.76462
-0.130425
-0.157431
3.67459
-0.227869
-0.249729
-0.0706779
-0.153278
-0.174731
-0.262993
-0.00744449
0.0254801
1.78344
1.8856
-0.0472121
1.86814
2.19945
-0.0850825
1.66341
3.12155
-0.0377042
1.98021
-0.382651
-0.0154761
-0.250469
1.74199
-0.148948
-0.209845
-0.169482
-0.0815627
1.70269
-0.187503
-0.275968
-0.1389
-0.0144413
1.93423
0.00062306
1.42761
-0.218033
-0.00958301
0.909274
1.79123
-0.237374
0.449735
-0.135969
-0.281818
-0.0725557
1.8572
2.20493
1.9156
0.272054
-0.0318726
-0.0820368
-0.246889
-0.968922
1.63574
0.414886
1.49245
2.31388
-0.283011
1.61344
2.75462
-0.64685
-0.152492
-0.203457
-0.264557
2.22949
2.03677
-0.030056
-0.245837
0.0735297
-0.320338
-0.0517982
2.30604
2.62513
-0.180017
0.00926544
-0.00733075
-0.199058
2.27722
-0.126531
-0.172081
-0.228978
1.93181
-0.108203
-0.302092
0.785469
0.00514164
2.27073
1.38932
-0.252244
-0.109152
-0.0795739
1.61047
0.70479
0.361726
-0.217205
-0.207745
-0.236724
-0.234238
0.118977
2.54363
-0.238193
-0.223942
1.88396
-0.00304081
-0.211396
1.1092
0.0705801
1.80464
2.20234
1.79796
-0.180938
-0.00106068
2.07241
-0.291158
1.81415
2.16033
1.64772
-0.0196959
2.08453
0.00181367
-0.151515
1.87821
-0.301834
-0.254632
-0.0183041
-0.282518
0.0763885
-0.18271
-0.00791669
2.39799
2.17929
2.32104
-0.136423
1.65488
2.39795
-0.0855633
-0.249627
-0.296413
-0.106545
-0.0112311
0.587571
-0.226716
-0.151064
2.0565
0.405941
1.99055
-0.0280937
1.28214
-0.0751142
1.64948
1.44556
2.40694
-0.257379
-0.0120458
1.11267
-0.0140536
2.03735
-0.0584557
-0.014263
-0.239092
-0.251812
1.78827
1.5616
-0.0986524
-0.167863
-0.010075
0.000209487
-0.252861
-0.0801423
1.83279
-0.326309
-0.00585947
1.34952
-0.236592
-0.230673
-0.128283
-0.252895
-0.221107
-0.000837693
-0.273061
-0.383773
2.06878
3.01561
-0.109242
-0.0829905
0.487305
2.14301
-0.018908
2.14508
2.04677
-0.251617
1.66685
2.34807
-0.279519
-0.217223
2.7591
1.61969
2.53742
1.78027
2.22557
2.42716
-0.123931
0.120125
2.01726
2.33444
-0.233229
2.27395
-0.163334
2.26215
1.89084
2.35353
-0.154412
-0.287999
-0.0357349
1.61514
2.1927
-0.180059
0.00101424
1.80168
-0.0032145
-0.0483785
2.53452
-0.0792785
-0.114275
-0.299072
-0.0723704
-0.174153
2.34346
-0.206734
2.39115
1.67632
2.50765
-0.185665
1.90861
-0.0470395
2.51433
-0.244762
2.24018
1.89218
-0.226199
2.18613
2.02726
-0.194613
0.0365968
-0.206465
1.99145
1.64831
2.38132
-0.109062
0.000613356
-0.186053
0.139397
-0.189335
-0.109483
2.29247
2.02165
3.23455
1.46573
-0.285947
2.46811
0.388639
2.22745
-0.15212
-0.114941
-0.157917
-0.286936
0.892447
0.575439
2.15543
-0.0283645
-0.335856
1.765
1.8799
-0.249577
1.5347
2.16879
1.54332
-0.186796
2.10665
-0.214528
-0.313802
-0.101749
-0.0252056
2.04348
-0.090595
0.759114
-0.240274
-0.229151
0.801674
0.0388209
1.63089
2.18641
1.54796
1.97463
0.0944584
1.55911
2.37779
0.00245653
-0.182352
2.37732
1.5124
-0.255944
0.0984358
1.70618
-0.0404206
1.6484
1.65906
-0.0308825
1.90295
-0.231117
-0.136513
1.68069
2.21011
-0.16906
-0.215306
1.53387
-0.00242579
2.14649
2.07802
-0.134702
1.7053
-0.174888
1.84735
2.61428
-0.0577867
1.04609
2.96657
-1.27302
1.77359
2.82811
3.11514
2.97913
0.310727
0.582342
-0.244604
-0.0853918
-0.262801
2.79309
2.53345
-0.233216
-0.00260653
1.76526
1.28017
-0.0833775
2.21952
-0.022107
2.34498
-0.0516134
2.55857
1.54786
-0.0321574
-0.215492
-0.0297075
2.1281
1.69392
1.32903
1.58528
2.32986
-0.310698
-0.261785
-0.211891
-0.19251
-0.245005
1.43636
2.37185
2.46226
-0.292392
1.30774
-0.112194
-0.324875
1.66521
0.0258703
-0.16781
2.30021
1.67097
0.659278
-0.0847704
-0.0487648
2.08757
-0.0394279
-0.000732392
-0.231111
-0.00388075
-0.114999
2.24714
-0.0339303
0.158823
-0.318439
-0.111627
-0.206333
-0.00322628
1.92991
1.47127
-0.175021
2.13968
-0.107654
-0.0188064
-0.0604773
-0.173609
-0.0141541
-0.157033
-0.144578
0.0279875
2.40948
-0.0275026
-0.166048
0.423261
0.130878
-0.227218
1.84061
-0.318515
2.39901
0.0212321
-0.347317
-0.0794497
-0.0673954
-0.25098
0.0667226
2.55771
2.40944
2.35134
1.88756
2.00861
0.368615
2.97806
-0.215477
2.77842
0.037011
-0.217623
2.00994
1.70593
-0.095107
-0.203695
2.24736
1.04674
2.18252
2.1704
0.61419
-0.155209
1.95227
1.94844
1.87788
2.08039
2.40033
2.20725
-0.00597228
-0.213912
2.39127
0.0142351
2.18733
2.02287
0.590054
2.25115
-0.179977
1.54204
2.32995
2.01903
1.60377
-0.00818133
2.78809
-0.00168467
-0.215213
-0.180162
-0.227255
-0.120242
-0.136767
-0.00507531
-0.199838
0.0308128
0.0106925
2.16903
-0.29607
1.3431
2.40844
2.19338
-0.555898
0.00550896
-0.00436798
1.68947
-0.194596
2.48576
-0.210703
-0.00933054
2.08766
0.668544
2.4283
0.235311