/*--------------------------------*- C++ -*----------------------------------*\
| =========                 |                                                 |
| \\      /  F ield         | OpenFOAM: The Open Source CFD Toolbox           |
|  \\    /   O peration     | Version:  3.0.1                                 |
|   \\  /    A nd           | Web:      www.OpenFOAM.org                      |
|    \\/     M anipulation  |                                                 |
\*---------------------------------------------------------------------------*/
FoamFile
{
    version     2.0;
    format      ascii;
    class       volScalarField;
    location    "0.217724";
    object      epsilon;
}
// * * * * * * * * * * * * * * * * * * * * * * * * * * * * * * * * * * * * * //

dimensions      [0 2 -3 0 0 0 0];

internalField   nonuniform List<scalar> 
21246
(
613.237
296.859
56.4905
13.9949
3.32633
0.973657
0.443245
0.30512
0.264174
0.2559
0.263692
825.171
478.89
122.691
25.0914
5.3502
1.39287
0.535942
0.331768
0.278385
0.270451
0.283201
859.084
471.233
160.281
41.9814
8.56315
1.93462
0.666969
0.368582
0.294861
0.284952
0.303405
756
421.61
169.807
51.2931
11.99
2.48721
0.813814
0.411741
0.312539
0.297586
0.317746
613.133
379.997
168.497
56.1472
14.7238
3.22141
0.961975
0.457726
0.330968
0.308528
0.326683
479.808
346.909
165.624
60.5064
17.6186
4.2006
1.16679
0.505226
0.349404
0.318303
0.333305
365.279
319.772
162.992
65.0966
20.9446
5.48293
1.49003
0.578051
0.367833
0.327078
0.33966
271.99
296.782
160.53
69.4211
24.4908
7.06252
1.95403
0.689343
0.395315
0.335664
0.344793
201.872
276.187
159.285
73.8687
28.3205
8.9941
2.61115
0.863846
0.437629
0.346937
0.349032
150.944
257.338
159.893
79.1517
32.7819
11.4436
3.55941
1.14697
0.509522
0.364223
0.353707
113.747
240.976
161.831
85.0677
37.7668
14.4031
4.85795
1.58997
0.634053
0.394657
0.360204
88.2846
228.022
164.892
91.2083
42.9231
17.6994
6.4935
2.23209
0.840439
0.450551
0.372309
73.7907
217.41
169.288
98.0554
48.4654
21.3785
8.50478
3.12932
1.1709
0.552704
0.397595
68.3979
207.118
174.717
106.227
54.8362
25.6153
10.9759
4.35743
1.68643
0.735972
0.450984
72.5413
199.475
180.993
115.657
62.0118
30.3687
13.889
5.9496
2.44354
1.04675
0.558848
84.7562
190.979
186.663
126.859
70.6794
35.9962
17.3908
7.99508
3.52309
1.55146
0.764722
95.1193
176.276
187.84
139.621
81.8446
43.2398
21.8624
10.69
5.05592
2.35177
1.1406
102.641
156.589
180.595
151.224
95.6962
52.8544
27.8462
14.3572
7.24969
3.59881
1.7998
107.398
135.214
163.347
156.068
110.617
65.5196
36.2796
19.6717
10.538
5.58156
2.94679
111.359
115.745
139.248
148.935
122.055
80.86
48.3844
27.8905
15.8421
8.92349
5.00346
117.591
98.4846
113.184
130.673
125.138
96.8069
65.2858
41.0903
25.0281
15.0147
8.94726
152.4
92.3283
95.9167
112.474
121.224
109.172
85.0931
60.2145
40.2444
26.1454
16.686
196.271
99.6117
96.0821
96.7782
98.3047
94.7602
84.7282
69.6178
53.1706
38.8213
27.142
389.358
377.628
302.332
267.121
233.311
195.141
154.222
114.562
81.8824
57.7769
40.0427
518.293
152.325
41.5492
9.31956
2.36573
0.801978
0.408294
0.292447
0.253455
0.241825
0.242938
467.927
120.345
32.0747
9.51781
2.68926
0.922461
0.443283
0.300616
0.251829
0.235309
0.232989
473.91
138.563
32.085
11.3309
3.70973
1.28675
0.547507
0.328711
0.257099
0.231626
0.224404
432.88
131.038
29.7354
11.6378
4.19541
1.58304
0.678038
0.375086
0.272647
0.235155
0.222543
383.426
110.22
27.05
11.1696
4.10436
1.59933
0.702095
0.393651
0.282947
0.241177
0.226432
341.349
90.8853
24.3301
10.2449
3.83137
1.55686
0.702026
0.397963
0.28718
0.244944
0.230982
307.592
76.0805
21.9225
9.2936
3.51494
1.47791
0.684026
0.396292
0.288655
0.247161
0.234221
279.593
64.9552
19.837
8.44028
3.2296
1.39793
0.661213
0.392055
0.289415
0.249573
0.237968
258.545
56.6269
18.1732
7.7473
3.01182
1.33085
0.642117
0.388214
0.289581
0.250897
0.239812
243.576
50.6448
16.8562
7.21121
2.86773
1.28341
0.629946
0.386504
0.290556
0.25259
0.241908
233.999
46.4795
15.9269
6.85927
2.78999
1.26063
0.626793
0.388025
0.293004
0.255383
0.24538
228.124
43.4681
15.2463
6.64788
2.76714
1.26178
0.633223
0.393368
0.297236
0.259269
0.249439
226.27
41.4338
14.8152
6.57038
2.80238
1.2901
0.651075
0.403541
0.303662
0.264216
0.254328
227.078
41.5948
14.8493
6.68681
2.92795
1.35982
0.685967
0.42057
0.313261
0.270732
0.260211
230.107
43.006
15.3476
7.0072
3.18338
1.50255
0.760981
0.456806
0.33188
0.281841
0.268666
235.897
45.8743
16.4332
7.58905
3.59639
1.7437
0.893143
0.523426
0.366052
0.301199
0.281697
245.07
50.48
18.3248
8.54917
4.22792
2.12847
1.11485
0.642692
0.429526
0.336705
0.303647
259.052
56.9955
21.2407
10.0541
5.17925
2.73027
1.48192
0.855786
0.550471
0.406487
0.345693
280.164
65.9944
25.5729
12.3892
6.63953
3.68289
2.09645
1.24104
0.78715
0.551917
0.436633
312.38
78.7782
32.0362
16.0587
8.96566
5.24354
3.15545
1.95385
1.26192
0.867694
0.648857
363.832
97.9158
41.9659
21.9728
12.8334
7.9234
5.05942
3.3173
2.23984
1.57184
1.16206
453.715
128.781
58.1111
31.9426
19.5846
12.7689
8.65079
6.0273
4.30825
3.16714
2.40872
633.786
192.692
90.7947
51.8807
33.1081
22.5848
16.0871
11.8314
8.94732
6.95549
5.56871
1167.02
327.79
169.731
108.036
76.643
57.8309
45.0651
36.3825
30.3305
25.9171
22.3463
105.565
94.3367
62.3654
47.7914
31.5264
15.0235
6.14067
2.34209
0.886733
0.355592
0.16348
101.853
74.6497
52.331
40.3747
27.4789
13.9226
5.19311
1.76922
0.627367
0.240603
0.106046
73.3342
52.36
39.4353
30.9985
21.5563
11.4458
4.42135
1.40933
0.474995
0.175949
0.074233
51.1995
35.542
28.0268
22.2241
15.6145
8.52469
3.44777
1.13592
0.375673
0.138198
0.0573815
40.087
24.2528
19.6136
15.4691
10.8549
6.03383
2.56663
0.908456
0.312593
0.116714
0.0486245
32.7855
17.3688
13.9794
10.8654
7.59969
4.3009
1.94165
0.749455
0.276948
0.106593
0.044706
27.3347
13.329
10.5033
7.99478
5.59775
3.25545
1.57143
0.661369
0.262105
0.104528
0.0440296
23.536
10.9282
8.42432
6.34652
4.47674
2.69851
1.39044
0.629483
0.263397
0.107729
0.045419
20.7702
9.48191
7.23689
5.46749
3.91148
2.44881
1.333
0.636721
0.276218
0.114615
0.0483422
18.757
8.6111
6.5786
5.03037
3.66338
2.37584
1.34908
0.668845
0.296856
0.124105
0.0523743
17.2364
8.09615
6.21184
4.81313
3.57227
2.38678
1.39964
0.712949
0.321623
0.135162
0.0570113
16.062
7.73078
5.97106
4.68529
3.53969
2.42365
1.45817
0.759287
0.347539
0.147055
0.0623309
15.2221
7.47639
5.79911
4.59853
3.52837
2.46634
1.51705
0.806069
0.374542
0.159928
0.068353
14.5976
7.32913
5.6866
4.54265
3.53129
2.51422
1.57909
0.856338
0.404569
0.174588
0.0750691
14.1689
7.231
5.60674
4.50348
3.54118
2.56505
1.64513
0.912023
0.439321
0.192069
0.0832233
13.9399
7.19265
5.56422
4.48781
3.5671
2.62959
1.72554
0.981211
0.48377
0.214771
0.0935111
13.8421
7.23677
5.57987
4.51275
3.6262
2.72605
1.83761
1.07763
0.546606
0.246977
0.107707
13.9178
7.35405
5.65795
4.5886
3.73405
2.87365
2.00171
1.2191
0.640176
0.295402
0.128837
14.1676
7.56161
5.82226
4.74436
3.92623
3.11202
2.2562
1.43751
0.786639
0.372576
0.161945
14.5947
7.88103
6.12368
5.04928
4.28654
3.52703
2.67638
1.79091
1.02561
0.501841
0.218779
15.1269
8.29165
6.69481
5.70093
5.04163
4.32883
3.42477
2.39055
1.42867
0.72637
0.322735
16.1388
9.46251
8.24597
7.6081
7.1261
6.24189
4.95907
3.49364
2.13704
1.12816
0.520625
17.3071
21.4992
25.9803
24.8116
20.5835
14.5595
9.30305
5.92675
3.50598
1.87929
0.911694
271.017
162.365
107.796
77.0233
57.2186
41.5121
26.5563
14.3154
7.21897
3.58036
1.75744
124.568
75.413
60.9766
49.8844
34.5613
19.0873
8.70807
3.5903
1.4242
0.582847
0.268348
106.015
43.4342
42.7952
45.6529
41.4459
28.87
15.0538
6.60642
2.67273
1.07636
0.504506
98.1367
35.3493
31.321
36.6586
41.1494
37.7592
24.5348
12.0969
5.20309
2.07739
0.943091
98.3954
36.9182
28.2748
30.089
35.1535
38.3244
32.7428
20.7773
10.5582
4.37564
1.81264
97.0942
37.5998
27.2992
26.7289
30.1583
35.2812
36.4186
28.0678
16.7149
8.09405
3.31677
96.275
37.6296
26.7084
24.6642
26.291
30.9526
35.7433
33.2174
22.7852
12.6868
5.81056
96.0124
37.3893
26.3239
23.2405
23.2776
26.5269
32.2666
34.8625
27.8772
17.2785
9.09636
96.0856
37.3513
26.2752
22.3346
21.0552
22.7186
27.7719
33.1601
30.7323
21.2839
12.1517
97.1351
37.5684
26.5788
21.8626
19.5412
19.8298
23.5728
29.865
31.3993
24.0332
14.9659
99.2558
38.1465
27.2642
21.7534
18.6174
17.8769
20.3119
26.3806
30.4921
25.4717
16.9542
102.75
39.4578
28.3533
21.9629
18.1765
16.7507
18.1993
23.3076
28.9264
25.9932
17.9683
107.839
41.6333
29.773
22.5602
18.1483
16.2734
17.08
21.0081
27.6408
26.3999
18.5348
114.876
44.5267
31.6289
23.5127
18.4135
16.1746
16.6019
19.3869
24.4652
27.3374
18.4891
123.602
48.2011
34.0634
24.8318
18.856
16.0712
16.0067
17.9392
21.3432
24.5931
19.1215
134.34
53.0446
37.3297
26.6886
19.5426
15.9668
15.2426
16.3006
18.3581
20.4566
19.7187
148.482
59.4544
41.7637
29.3481
20.647
16.0046
14.5512
14.9596
16.3325
17.9481
18.5152
167.531
68.0516
47.9782
33.3958
22.6224
16.4781
14.088
13.8439
14.635
15.7199
16.4195
194.154
79.8331
57.2371
40.3242
26.8069
18.2477
14.1728
12.7411
12.5915
13.0706
13.5243
232.306
96.3564
72.0866
53.494
37.1828
25.4768
18.7317
15.5238
14.3272
14.0801
14.1019
251.361
110.712
87.8765
68.5795
49.8465
35.2073
26.3272
22.1195
20.8397
21.1548
21.9124
257.318
112.674
91.3599
74.7162
57.2166
41.8317
31.2219
25.3191
22.6465
21.1039
17.9429
280.64
116.338
93.1837
76.2326
59.746
45.0321
34.0989
27.0101
22.6228
17.5556
11.0532
347.12
135.614
95.0944
73.8498
57.1455
44.0648
34.4828
27.5259
20.7518
13.2
7.76625
718.423
154.515
97.5512
66.7678
51.74
41.1986
32.484
23.3859
14.3398
8.09565
4.30901
1992.63
636.901
196.024
49.1093
12.074
3.09525
0.824665
0.231947
0.0742675
0.0306338
0.0173598
1142.79
335.204
137.256
45.3612
12.9844
3.67701
1.02618
0.284591
0.0851371
0.032032
0.0170461
915.985
275.029
105.983
43.465
15.5409
4.95418
1.44894
0.398619
0.110571
0.0369005
0.0179927
767.983
235.313
90.1558
39.8912
15.2334
5.13803
1.5538
0.438687
0.124136
0.0411364
0.0195016
655.92
195.799
76.0258
34.6279
13.4308
4.72085
1.50223
0.448141
0.132854
0.044789
0.020825
574.945
162.919
64.4035
29.572
11.5178
4.15024
1.37286
0.43056
0.134384
0.0468572
0.0219926
512.809
138.549
55.3413
25.183
9.84475
3.59162
1.21918
0.398208
0.130564
0.0474827
0.0226433
462.526
119.671
48.0299
21.6264
8.4643
3.10301
1.07065
0.360621
0.123223
0.0466601
0.0232329
424.152
105.161
42.2001
18.8379
7.37023
2.70431
0.942007
0.32457
0.114976
0.0454582
0.0235916
396.98
94.4054
37.7594
16.7457
6.54414
2.39745
0.839032
0.293784
0.107252
0.0441328
0.0235895
376.217
86.2234
34.315
15.1614
5.92286
2.16507
0.758979
0.268758
0.100521
0.0427447
0.023536
359.323
79.5668
31.4797
13.9011
5.43996
1.98688
0.697167
0.248974
0.0949962
0.0415425
0.0234272
348.223
74.3656
29.2344
12.939
5.08399
1.85846
0.652488
0.23447
0.090907
0.0406702
0.0233973
343.507
70.8616
27.6271
12.2877
4.85904
1.78049
0.625224
0.225495
0.0884404
0.0402127
0.0234848
342.391
69.0161
26.4634
11.8516
4.7347
1.74525
0.613825
0.221939
0.0877348
0.040305
0.0238071
345.504
68.8763
26.0191
11.7406
4.78415
1.79078
0.633976
0.229095
0.090463
0.0414782
0.0245284
352.997
71.8447
26.6525
12.0717
5.07644
1.96126
0.710271
0.257994
0.100922
0.0454103
0.0261265
367.257
76.8474
28.3073
12.8773
5.63514
2.28496
0.864378
0.320787
0.124553
0.0542278
0.0294734
390.586
84.7805
31.386
14.3792
6.57808
2.83766
1.14591
0.445932
0.175253
0.0739092
0.0369257
427.512
97.0132
36.5938
16.9912
8.14615
3.77249
1.65636
0.696302
0.287454
0.121169
0.0559182
487.161
115.947
45.088
21.4389
10.8021
5.3983
2.60825
1.2137
0.548374
0.244609
0.111289
589.613
145.088
58.6528
28.949
15.4246
8.34946
4.46315
2.3292
1.18394
0.58802
0.287938
779.451
193.138
81.4096
42.1255
23.8891
14.0242
8.28186
4.84599
2.78859
1.57378
0.871349
1240.97
198.966
102.487
61.6751
39.2918
25.5686
16.7091
10.8632
6.99081
4.43896
2.77729
2488.2
1508.96
286.418
86.4138
21.9436
5.18475
1.23674
0.314326
0.0918842
0.0351585
0.0190785
3294.17
2135.22
661.021
184.836
41.3693
9.88472
2.34386
0.552987
0.143531
0.0478362
0.0231429
2992.77
1927.39
766.017
252.281
62.4267
15.4509
3.9467
0.949979
0.233666
0.0695872
0.0305784
2247.27
1597.09
726.937
260.922
71.1864
19.9087
5.6316
1.45553
0.361941
0.102532
0.0432057
1584.15
1355.29
652.46
241.276
70.8297
22.5079
7.01892
1.97762
0.515823
0.144929
0.058411
1123.67
1189.76
582.872
217.023
68.0567
23.58
7.97682
2.43541
0.673738
0.19254
0.077044
823.585
1069.26
525.669
197.188
64.6286
23.7509
8.56849
2.79653
0.818071
0.240706
0.0984538
628.378
976.003
477.624
180.477
61.3524
23.4615
8.90654
3.06659
0.941026
0.28516
0.117785
503.429
898.571
438.215
166.88
58.9236
23.1903
9.1189
3.27521
1.04356
0.324338
0.137646
421.933
830.291
406.036
156.421
57.2509
23.1205
9.43298
3.52102
1.15803
0.363033
0.15781
366.57
765.678
382.02
149.898
56.7877
23.4781
9.89435
3.8433
1.31739
0.421749
0.184558
326.415
709.282
362.306
145.458
57.1101
24.2212
10.5257
4.26323
1.53603
0.510408
0.218293
297.456
659.66
346.023
143.125
58.3634
25.4591
11.408
4.82683
1.83983
0.644158
0.268107
275.479
611.495
333.445
143.443
60.9069
27.4018
12.6701
5.60905
2.27192
0.847785
0.34809
258.619
566.085
322.802
145.406
64.5185
30.0857
14.408
6.69094
2.89099
1.15928
0.482134
245.813
522.06
313.861
149.127
69.4294
33.7412
16.8188
8.21999
3.80046
1.64894
0.71245
235.731
478.436
306.242
154.799
75.9854
38.683
20.1907
10.4303
5.17445
2.43976
1.12216
227.89
436.094
299.166
162.202
84.4319
45.2965
24.9193
13.6738
7.29908
3.75073
1.86733
221.78
395.136
291.545
170.93
95.079
54.1362
31.6019
18.5097
10.656
5.97483
3.25434
218.311
358.272
282.385
180.421
108.469
66.2085
41.3007
25.9058
16.0862
9.82097
5.86481
208.476
310.201
267.047
188.361
124.824
83.0588
55.8393
37.5366
25.0212
16.5013
10.7113
278.2
343.209
259.758
191.62
138.121
99.255
71.1773
50.7763
35.9842
25.4088
17.8699
376.12
258.242
222.569
174.807
136.638
105.503
79.963
59.201
42.7578
30.1309
20.6016
1552.37
795.26
442.947
267.973
169.774
109.76
71.3889
46.3584
29.9098
19.1045
12.0357
39.4623
34.1615
23.5093
8.62301
2.24492
3.29498
4.12576
6.48711
20.6165
13.0167
13.7957
12.7095
8.79864
4.3329
2.11826
2.79431
9.59491
12.9494
6.37217
8.23823
9.09641
7.34362
4.13172
2.26831
3.15701
8.87083
10.0601
3.33583
4.7212
6.07886
5.771
3.83807
2.44052
3.62567
7.63305
7.07664
41.4342
42.0403
41.4483
40.5754
40.4137
39.385
37.6428
34.5017
29.416
11.7796
11.9752
12.1818
12.8978
13.0919
12.7649
12.6731
12.8138
13.2832
5.35268
5.74216
6.25219
6.65851
6.57575
6.23865
6.00795
6.49303
8.27633
2.73488
2.86697
3.17018
3.40444
3.31795
3.1079
3.05246
3.47278
4.79905
0.00901218
0.00829296
0.00834613
0.0354009
0.16656
0.00756352
0.165266
0.00808151
0.00753151
0.00685113
0.174481
0.00811667
0.00913684
0.00585457
0.0146055
0.00728004
0.00564753
0.034393
0.00724286
0.00710218
0.00663486
0.0646828
0.00851887
0.0303706
0.00792672
0.00585353
0.00890697
0.164945
1.79039
0.113925
0.00575421
0.00629552
0.00597199
0.00806587
0.00662368
0.00826258
0.0282612
0.00790931
0.00617156
0.00759718
0.207156
0.0080968
0.0118509
0.00849333
0.772302
0.393115
0.011531
0.52682
0.00679565
0.00729234
0.105827
0.0076186
0.00909729
0.0120637
0.00728541
0.00666382
0.0627631
0.00764168
1.80108
0.0149753
0.0931374
0.00895902
0.241019
0.288827
0.255079
0.00713944
0.0941639
0.00711369
0.00829513
0.00684053
0.00622558
0.00701604
0.0440473
0.00735901
0.0317989
0.00702275
0.0658401
0.00827609
0.375
1.07091
0.0144572
0.281221
0.00793543
0.00837991
0.00654647
0.0437252
3.75267
0.00847135
0.0640725
0.0141209
0.00809242
0.00768005
0.201374
0.00710611
1.04192
0.615135
0.0246755
0.00613124
0.0739592
0.00714034
0.00742184
0.472799
0.00674122
0.00596313
0.0450612
0.00811497
0.0054465
0.00845237
0.00580632
0.00666021
0.00797166
0.00814759
0.00712434
0.0390929
0.0283551
0.00769093
0.00754255
0.00730754
0.00793275
0.00670264
0.0383671
0.00732564
0.00725531
0.00564892
0.349772
0.00735954
0.00972962
0.00558534
0.00530991
0.0055317
0.00780143
0.015224
0.507904
0.00701351
0.00833788
0.00726232
0.053601
0.190023
0.105054
0.00719132
0.0109803
0.00660626
0.472658
0.00869238
0.00750756
0.0301017
0.0120124
0.00712371
0.00699804
0.00707386
0.00714893
0.00768011
0.035929
0.00721425
0.040535
0.00947379
0.0384352
0.0565218
0.00650855
0.00745991
0.00618544
0.0728972
0.00701465
0.0077159
0.0989314
0.00821251
0.0652965
0.00781827
0.00628572
0.231165
0.00574476
0.00624367
0.00663607
0.00644048
0.00629697
0.00633617
0.00669152
0.0412723
0.797084
0.00691175
0.00713667
0.0616715
0.00849813
0.0388847
0.00794094
0.0964729
0.0070895
0.00725812
0.00824951
0.411643
0.00584608
0.00593221
0.00718208
0.175414
0.00832283
0.00759034
0.00740223
0.0737578
0.00558814
0.00856733
0.0245645
0.00726004
0.00633884
0.00605332
0.00838462
0.00827764
0.00710601
0.00529845
0.00736243
0.00740229
0.0127822
0.00759287
0.00827288
0.00657751
0.00791808
0.0147945
0.00797763
0.0172077
0.00712949
0.00921025
0.00615724
0.0371665
0.0252704
0.0296472
0.00559403
0.00765847
0.0277433
0.00710683
0.00568859
0.3077
0.0607269
0.00713051
0.00712859
0.00734656
0.0374392
1.27098
0.03915
0.00845051
0.00813692
0.00809652
0.0168926
0.0949906
0.00592577
0.117092
0.00718639
0.0862588
0.00800538
0.00629387
0.62864
0.0179377
0.00627937
0.0135426
0.00919333
0.00726179
0.00597122
0.00744523
0.00673881
0.00785903
0.0187944
0.00707404
0.00891224
0.0081581
0.00737645
0.00819344
0.00796595
0.0116243
0.00660323
0.00725239
0.0184408
0.00707724
0.0881817
0.00727336
0.00723745
0.0113738
0.00755351
0.00735105
0.00574391
0.00775879
0.00682504
0.0492782
0.00705116
0.00827328
0.014884
0.0351062
0.00598189
0.00757553
1.52445
0.0082347
0.00672559
0.00997572
0.00833816
0.184844
0.00796995
0.00719967
0.00856465
0.00739459
0.00630241
0.00815872
0.00663455
0.0057907
0.00777849
0.0392871
0.00692585
0.111652
0.00677673
0.00663538
0.00827745
0.00657961
0.0593813
0.00742088
0.105225
0.00815979
0.00642006
0.00588373
0.0763967
0.00650242
0.00707951
0.0686658
0.00668882
0.00713744
0.00708629
0.00978773
0.00745865
0.00647466
0.36792
0.00703423
0.007789
0.00650398
0.00708509
0.021046
0.00714784
0.25224
0.0606362
0.00846463
0.0100664
0.814808
0.03898
0.00823556
0.00784689
0.00599902
0.0225245
0.0142069
0.00722756
0.00994095
0.071279
0.00664348
0.0179445
0.00753436
0.0282542
0.0114441
0.124455
0.00613307
0.00711842
0.00683776
0.0134096
0.00860266
0.00617087
0.00692789
0.00849782
0.021809
0.0100601
0.005916
0.00800386
0.00799022
0.00725225
0.0619416
0.00598468
0.00841
0.15168
0.00752534
0.0077361
0.0501997
0.748775
0.00575081
0.0130238
0.00830839
0.00907302
0.00657939
0.00750862
0.00709198
0.0183017
0.00753898
0.0295565
0.0076811
0.00591575
0.0587802
0.0385716
0.00558045
0.0897744
0.0665256
0.00771323
0.0922251
0.00548798
0.00781809
0.0602227
0.276539
0.00787836
0.00719092
0.00835467
0.0155614
0.0186263
0.00764568
0.00850781
0.00975141
0.0057475
0.383183
0.255792
0.00637478
0.00725744
0.00961822
0.0073658
0.0071948
0.00616822
0.00604834
0.0384163
0.00635933
0.00589676
0.00766349
0.0058796
0.113664
0.0859143
0.00712379
0.175519
0.00560835
0.00617969
0.00663639
0.00725725
0.0267142
0.0119605
0.315168
0.00790007
0.0292065
0.00597579
0.00660305
0.00870547
0.00673591
0.0365629
0.0852047
0.00566708
0.00859999
0.00574442
3.62833
0.0286978
0.0388996
0.00695307
0.00777354
0.0130828
0.033163
0.00740113
0.0697096
0.00775385
0.008335
0.0079373
0.0974726
0.0140883
0.15915
0.00576013
0.0263734
0.024956
0.00825599
0.00738644
0.0100922
0.0061772
0.00594121
0.00727784
0.133343
0.10685
0.0902243
0.0916646
0.0071431
0.00650106
0.0433466
0.00700885
0.0866346
0.00708378
0.00822537
0.00730799
0.0347624
0.0599874
0.00710599
0.00778468
0.00668686
0.297366
0.0624092
0.00845092
0.0255264
0.377082
0.00943426
0.00724628
0.00739852
0.0217301
0.00758125
0.007063
0.00763973
0.00538013
0.00740118
0.00714806
0.00639374
0.00853335
0.00722974
0.00638079
0.00647826
0.00806036
0.00806706
0.667107
0.00684264
0.044696
0.00715856
0.373624
0.00835624
0.0643733
0.0167405
0.0692885
0.00786755
0.00757062
0.0540695
0.0143159
0.00637188
0.00778958
0.00704152
0.00664974
0.00826744
0.007684
0.00817856
0.00690001
0.0188601
0.00799017
0.00744331
0.0205871
0.00775329
0.20438
0.00676702
0.00628366
0.00667484
0.0622732
0.00856296
0.0078617
0.00840779
0.148152
0.0597442
0.00795278
0.00791735
0.00562931
0.0083405
0.0263208
0.00830362
0.0146572
0.00673467
0.0666513
0.00656629
0.00841692
0.423742
0.0677163
0.00681066
0.00658576
0.0069697
0.00829853
0.00666387
0.0325595
0.00720874
0.00593856
0.253959
0.545439
0.00792066
0.00727179
0.00827458
0.013349
0.0399882
0.0184865
0.00807682
0.0075143
0.0328004
0.00713272
0.0069646
0.00537705
0.0064253
0.15696
0.00772516
0.0198793
0.00781556
0.0133193
0.00734681
0.0308495
0.00694917
0.00631757
0.0816125
0.0088102
0.00841442
0.00854643
1.06928
0.00762852
0.00712931
0.0646455
0.0144127
0.0146673
0.0222696
0.00726469
0.00683276
0.0077577
0.00790737
0.621701
0.011382
0.0131863
0.00710825
0.00795138
0.178489
0.00705793
0.00713639
0.00713884
0.00697315
0.00690226
0.00979415
0.014096
0.0187689
0.00617693
0.00952536
0.00723983
0.0194486
0.00697926
0.00780338
0.660897
0.0166882
0.00755248
0.007559
0.0518522
0.00670143
0.00736881
0.0195839
0.00830931
0.00685037
0.00851548
0.00696964
0.00834122
0.00549626
0.00669831
0.129905
0.00780744
0.022849
0.0115859
0.007283
0.064517
0.042919
0.00944196
0.00836287
0.00683094
0.380289
0.00602489
0.00699053
0.00724747
0.00599369
0.0111276
0.581394
0.00689188
0.00702507
0.007698
0.0109112
0.00812224
0.00722217
0.00686554
0.0116225
0.00693841
0.00719352
0.00692989
0.00824981
0.0721673
0.0534198
0.313567
0.00697675
0.00704511
0.00753535
0.0080413
0.00711276
0.316356
0.0070925
0.0424661
0.00775789
0.00771918
0.00638282
0.0084953
0.00599562
0.107892
0.00691213
0.587708
0.00615864
0.00634233
0.00841666
0.0123344
0.00621735
0.0983255
0.0105212
0.00750507
0.0063787
0.00840307
0.00805825
0.00695732
0.0207521
0.00812451
0.00763981
0.007605
0.00895831
0.011642
0.00816345
0.0083372
0.00750486
0.00679141
0.00655304
0.00646796
0.0766982
0.0934857
0.00688415
0.00632775
0.00678917
0.00780283
0.0144041
0.00582723
0.16614
0.00784179
0.00643915
0.00791845
0.00714758
0.0972854
0.0134546
0.0226316
0.00584555
0.00714845
0.00683759
0.00667462
0.017632
0.00823765
0.00975866
0.00892515
0.0152018
0.00664718
0.0103037
0.0121922
0.0149987
0.00733965
0.00788342
0.0644236
0.0495126
0.00803041
0.00592743
0.218006
0.00811415
0.17827
0.00984376
0.00730085
0.0406045
0.00754771
0.00704978
0.00675282
0.00862306
0.00707769
0.00581904
0.00818433
0.00603075
0.00699291
0.00701547
0.00694246
0.0167175
0.00569445
0.00722013
0.0327659
0.361049
0.00782484
0.00566227
0.00709223
0.00880781
0.00924698
0.0573568
0.00792243
0.0271699
0.00660329
0.00842977
0.00719794
0.00651708
0.0076629
0.0188256
0.0472144
0.00860557
0.00790011
0.00709734
0.403928
0.0108592
0.00723064
0.00818835
0.00651938
0.00796432
0.00813558
0.00821762
0.00837557
0.00788923
0.00718777
0.006578
0.0961544
0.0383906
0.00571484
0.00804864
0.00769257
0.00793912
0.00675418
0.0334824
0.00827315
0.00633069
0.00882134
0.321479
0.0193304
0.0272912
0.00775298
0.0256111
0.0077062
0.00783535
0.302403
0.00714595
0.00815072
0.00721639
0.00605951
0.00577579
0.0057541
0.00813866
0.0117798
0.124586
0.045466
0.00814631
0.00529939
0.00790406
0.0118488
0.0311575
0.00842806
0.00717743
0.0333379
0.00932148
0.00865836
0.00829228
0.00693199
0.00718631
0.00732434
0.00823952
0.0185369
0.00742314
0.181962
0.225628
0.0092704
0.00809144
0.13366
0.00853052
0.00708806
0.00716509
0.00790611
0.00766314
0.0076908
0.0527691
0.0103369
0.00959082
0.00765071
0.0259251
0.00767662
0.00860024
0.0072838
0.00754272
0.00737571
0.00793346
0.00814525
0.00714508
1.61574
0.00754205
0.00712859
0.0131026
0.343873
0.0071159
0.00796442
0.220791
1.18285
0.00705239
0.00701895
0.00793694
0.0314395
0.0084609
0.00808834
0.00699687
0.00861246
0.00731271
0.00826818
0.0205994
0.00723604
0.00794312
0.0065179
0.0082073
0.00615784
0.0288537
0.00776178
0.0073411
0.00717587
0.00831162
0.00617098
0.241331
0.00656597
0.0107609
0.012138
0.00923622
0.00599666
0.139289
0.0085098
0.00813824
0.00613274
0.00593868
0.00613559
0.00762364
0.111373
0.0071526
0.00910986
0.00730067
0.00555059
0.00625843
0.0491938
0.00619006
0.00693074
0.00804618
0.0340719
0.0555249
0.00925826
0.00710664
0.00757541
0.0070674
0.0077701
0.012651
0.00753389
0.00830071
0.00711556
0.279799
0.190669
0.0314207
0.00539284
0.00590553
0.0143705
0.33761
0.00801894
0.00724555
0.0108322
0.00759412
0.0143944
0.00791709
0.0113429
0.00666968
0.00635006
0.00830323
0.00842297
0.00844909
0.00765451
0.00593202
0.046669
0.0071072
0.00780243
0.00715808
0.0081816
0.00868403
0.113201
0.00698936
0.00683247
0.356148
0.0159248
0.0662565
0.00832417
0.00646647
0.00614101
0.00827502
0.0253715
0.00639139
0.0140383
0.0870687
0.00605227
0.0117219
0.00647956
0.00739378
0.0150082
0.00661294
0.00705466
0.00668234
0.00813189
1.09272
0.00602477
0.54376
0.00813051
0.020329
0.0811233
0.1784
0.00854482
0.00629355
0.00855523
0.00527502
0.299866
0.00815339
0.00890701
0.0214277
0.0287564
0.034864
0.00621875
0.00780602
0.00734765
0.0736278
0.00701699
0.182921
0.00733801
0.00622614
0.0459978
0.0082744
0.0136578
0.0791029
0.0283995
0.0108101
0.00788928
0.00756079
0.0126573
0.00552162
0.00810365
0.00770148
0.00856623
0.0311398
0.00661896
0.00831336
0.00633847
0.00800962
0.00568737
0.00802285
0.120387
0.0108316
0.00688644
0.007128
0.0081349
0.00697898
0.00719428
0.20818
0.00717452
0.0119347
0.00612455
0.0720152
0.00796744
0.00694652
0.00796316
0.00752293
0.0480736
0.039033
0.0103422
0.781267
0.304168
0.355907
0.00678778
0.00718314
0.0401375
0.00838711
0.00702131
0.0107096
0.0067424
0.096148
0.00650516
0.0483987
0.00691982
0.00553194
0.00812022
0.03462
0.00862519
0.627826
0.0064434
0.0075722
0.109591
0.0161785
0.0068723
0.0101751
0.00804933
0.0396016
0.0204837
0.0198205
0.450986
0.00550735
0.0401308
0.395651
0.00867317
0.0083248
0.00670986
0.00721648
0.00607476
0.00644372
0.0749978
0.00769058
0.01046
0.815577
0.0075118
0.00714187
0.00731002
0.00818359
0.00713264
0.00653044
0.00690445
0.00678882
0.0697906
0.0072063
0.419745
0.145908
0.00699399
0.158846
0.0421659
0.0115568
0.00728343
0.00765994
0.00768244
0.00804482
0.0503691
0.00750262
0.00824146
0.00593358
0.00809752
0.00714119
0.045795
0.00752766
0.711006
0.0136684
0.037365
0.00722693
0.0136711
0.0125001
0.00614096
0.332344
0.00776688
0.00740686
0.0197445
0.00623212
0.00639804
0.0304079
0.00603466
0.0074713
0.138607
0.00709308
0.00639526
0.00732334
0.036145
0.00693266
0.00963858
0.0616821
0.0823562
0.00712007
0.00860407
0.00797626
0.00624149
0.0059516
0.00571526
0.030612
1.23776
0.00803359
0.0238634
0.0280437
0.00819629
0.0688171
0.00709505
0.00704223
1.96971
0.0298395
0.4268
0.328327
0.00815464
0.00792963
0.0214338
0.231166
0.0122483
0.310007
0.0058236
0.00816634
0.00714952
0.00617051
0.00969466
0.0458869
0.00698327
0.00737212
0.0288265
0.012469
0.0416239
0.00681032
0.0247925
0.450007
0.00631551
0.00579902
0.0072518
0.0071018
0.242546
0.0058007
0.00628012
0.0151218
0.00755877
0.00649923
0.154366
0.0619463
0.00783078
0.205376
0.0220431
0.00751066
0.197495
0.142079
0.00836019
0.00536471
0.00887797
0.00656074
0.0156457
0.00807059
0.00768024
0.00691585
0.1041
0.00672704
0.00745446
0.0147311
0.00833648
0.0081439
0.00859552
0.00571218
0.00771084
0.00853136
0.0136583
0.00814973
0.121164
0.10407
0.00615043
0.0568823
0.00791224
0.00603388
0.0302977
0.00801677
0.00815968
0.0078815
0.00632854
0.0079379
0.007168
0.00703188
0.0418002
0.014356
0.00595677
0.00689131
0.0067766
0.154556
0.0134844
0.00855495
0.00674838
0.0159048
0.00592364
0.00672909
0.00707385
0.00666196
0.00675829
0.00794993
0.0854742
0.00767624
0.0240495
0.0230367
0.00859361
0.0064315
0.0118306
0.015248
0.00852416
0.00758724
0.0336931
0.0132168
0.154156
0.00555513
0.00575402
0.0602643
0.00588903
0.00796136
1.06022
0.00574147
0.00668603
0.030199
0.0268611
0.0066822
0.04537
0.102332
0.00526312
0.465722
0.967254
0.00790061
0.0071283
0.0127139
0.0375841
0.0104903
0.00811257
0.00628811
0.00839089
0.00720664
0.0741809
0.00761383
0.00845468
0.204623
0.0387409
0.00726369
0.00770461
0.00758753
0.00677728
0.0085788
0.00712544
0.00965592
0.00701264
0.00879666
0.00803112
0.0396382
0.0081793
0.0132644
0.00769848
0.0209418
0.00837471
0.00879256
0.259042
0.0527305
0.00705522
0.00781765
0.00654186
0.00595644
0.00826513
0.00811485
0.0063129
0.00738429
0.00593128
0.00856305
0.0564835
0.00626098
0.016829
0.00847758
0.0585214
0.00788865
0.00669498
0.00725959
0.00806356
0.00802662
0.0516129
0.00712377
0.214469
0.00789778
0.00800503
0.190064
0.00844644
0.00855187
0.0458683
0.027054
0.0451818
0.00754087
0.0198976
0.00788943
0.0164463
0.00569063
0.0545145
0.00716296
0.00667946
0.0194284
0.00764533
0.032127
0.00714672
0.015345
0.0180525
0.00721893
0.00710084
0.00716442
0.135993
0.00742617
0.00588608
0.0108467
0.00637386
0.00591378
0.0084008
0.0109121
0.048337
0.00750974
0.00811877
0.0119223
0.00701513
0.00691006
0.00680513
0.00615908
0.00789692
0.0413287
0.0484378
0.00811413
0.0182735
0.00798047
0.0071494
0.00690853
0.945558
0.00755519
0.00704246
0.00964166
0.0321511
0.00820162
0.007061
0.0289676
0.0106614
0.00662018
0.00712803
0.00584628
0.0178553
0.007546
0.00693189
0.162286
0.00715477
0.00830096
0.0068574
0.00684548
0.00790504
0.0098863
0.00762855
0.0102659
0.00606932
0.0134088
0.008128
0.00596227
0.0511442
0.0068874
0.00585997
0.00764355
0.00710619
0.0406165
0.0136607
0.00599341
0.00845504
0.00711281
0.361838
0.00795166
0.00708476
2.30243
0.0067478
0.00709953
0.00716495
0.00708108
0.00630757
0.00629906
0.0105621
0.00615142
0.0839314
0.00709984
0.00761057
0.0141547
0.00534874
0.00748328
0.00644657
0.00587175
0.00727566
0.01166
0.00855607
0.0105867
0.00747326
0.00685882
0.00687451
0.00668834
0.0133233
0.00795654
0.00721077
0.00666965
0.0075647
0.00836335
0.0160694
0.0173632
0.0729424
0.0094543
0.0119216
0.00683874
0.00757263
0.00744673
0.473542
0.00719046
0.00605471
0.425243
0.00717915
0.0203068
0.0309938
0.00700491
0.00810102
0.00671292
0.00655181
0.00585925
0.00696076
0.00908377
0.00607931
0.0684381
0.00530807
0.0357308
0.0078232
0.0190792
0.0310961
1.02915
0.00703304
0.010266
0.00529362
0.00828626
0.00680206
0.0294639
0.00790267
0.0121649
0.00569244
0.00650007
0.00621216
0.0167989
0.0167506
0.0180182
0.0309725
0.00781155
0.0537645
0.00706979
0.00656492
0.00595613
0.0400608