/*--------------------------------*- C++ -*----------------------------------*\
| =========                 |                                                 |
| \\      /  F ield         | OpenFOAM: The Open Source CFD Toolbox           |
|  \\    /   O peration     | Version:  3.0.1                                 |
|   \\  /    A nd           | Web:      www.OpenFOAM.org                      |
|    \\/     M anipulation  |                                                 |
\*---------------------------------------------------------------------------*/
FoamFile
{
    version     2.0;
    format      ascii;
    class       volScalarField;
    location    "0.217724";
    object      nut;
}
// * * * * * * * * * * * * * * * * * * * * * * * * * * * * * * * * * * * * * //

dimensions      [0 2 -1 0 0 0 0];

internalField   nonuniform List<scalar> 
21246
(
3.74381e-05
0.000146321
0.000152011
0.000170072
0.000168723
0.00014988
0.00012042
9.81204e-05
8.38542e-05
7.30962e-05
6.33162e-05
3.09104e-05
0.000113644
0.0001065
0.000143266
0.000172906
0.000159272
0.000124845
9.65552e-05
7.91579e-05
6.67838e-05
5.62182e-05
2.98938e-05
8.99903e-05
9.44123e-05
0.00011363
0.000151832
0.00016674
0.000132824
9.84048e-05
7.72341e-05
6.30608e-05
5.16481e-05
3.0697e-05
7.69259e-05
8.906e-05
0.000102108
0.000133001
0.000170215
0.00014204
0.000102649
7.7628e-05
6.18065e-05
5.01179e-05
3.15185e-05
7.12016e-05
8.55239e-05
9.53476e-05
0.000120934
0.000162595
0.000150677
0.000108489
7.97888e-05
6.23727e-05
5.05536e-05
3.16945e-05
6.91557e-05
8.294e-05
9.03078e-05
0.00011054
0.000147903
0.000154471
0.00011544
8.32731e-05
6.41705e-05
5.19603e-05
3.13627e-05
6.94325e-05
8.14876e-05
8.67424e-05
0.000101696
0.000131268
0.000148595
0.000122512
8.78632e-05
6.68631e-05
5.40073e-05
3.06953e-05
7.16713e-05
8.15108e-05
8.4772e-05
9.50546e-05
0.000116881
0.000136757
0.000125417
9.38528e-05
7.06702e-05
5.66381e-05
2.967e-05
7.499e-05
8.30116e-05
8.4151e-05
9.02396e-05
0.000105256
0.000122835
0.00012268
9.93637e-05
7.53575e-05
5.99942e-05
2.83372e-05
7.88761e-05
8.59186e-05
8.47534e-05
8.68381e-05
9.58787e-05
0.000108945
0.000114489
0.000102324
8.05887e-05
6.39672e-05
2.69292e-05
8.371e-05
9.0511e-05
8.687e-05
8.51122e-05
8.90621e-05
9.7205e-05
0.000103514
0.000100824
8.5396e-05
6.85293e-05
2.56448e-05
9.01909e-05
9.72878e-05
9.08629e-05
8.52943e-05
8.48958e-05
8.86132e-05
9.30014e-05
9.51028e-05
8.81004e-05
7.34188e-05
2.47158e-05
9.83662e-05
0.000106567
9.70783e-05
8.74276e-05
8.29458e-05
8.27397e-05
8.4299e-05
8.70732e-05
8.70698e-05
7.77502e-05
2.43724e-05
0.000107933
0.00011865
0.000106125
9.1874e-05
8.31212e-05
7.92121e-05
7.7782e-05
7.8874e-05
8.20362e-05
7.98102e-05
2.47895e-05
0.000120597
0.000134643
0.000118997
9.93308e-05
8.57715e-05
7.81113e-05
7.37512e-05
7.22964e-05
7.49225e-05
7.79655e-05
2.56716e-05
0.000135798
0.000155052
0.000137103
0.000111026
9.15468e-05
7.95752e-05
7.21358e-05
6.79491e-05
6.81024e-05
7.23446e-05
2.5888e-05
0.000150491
0.000178578
0.000161753
0.000129019
0.000101951
8.43918e-05
7.32265e-05
6.61134e-05
6.31656e-05
6.52928e-05
2.52146e-05
0.000161912
0.000202216
0.000192477
0.000155502
0.00011944
9.43599e-05
7.81365e-05
6.74627e-05
6.11732e-05
5.97341e-05
2.36874e-05
0.000167814
0.000221804
0.000225288
0.000191134
0.000147281
0.000112792
8.93904e-05
7.36975e-05
6.33899e-05
5.78679e-05
2.14753e-05
0.000167287
0.00023401
0.000253875
0.000232708
0.000188187
0.000144915
0.000112125
8.89473e-05
7.28799e-05
6.23687e-05
1.87253e-05
0.000156083
0.000236789
0.000273874
0.000273768
0.000241747
0.000196891
0.000155192
0.000121945
9.70865e-05
7.92746e-05
1.63807e-05
0.000141756
0.000229099
0.000280393
0.000302585
0.000294381
0.000263659
0.000223156
0.000183076
0.000148681
0.000121052
1.29066e-05
0.00011347
0.000169885
0.000216063
0.000248242
0.00026795
0.000273902
0.000264646
0.000243297
0.000216607
0.000188572
9.8983e-06
3.46206e-05
5.16564e-05
7.33531e-05
9.81014e-05
0.000125815
0.000155031
0.00017992
0.000196373
0.000203884
0.000201929
3.17228e-05
0.000136881
0.000151354
0.000159791
0.000162268
0.000147706
0.000123637
0.000104555
9.19668e-05
8.26004e-05
7.42663e-05
2.09832e-05
0.000110557
0.000149281
0.000169138
0.000172827
0.000160309
0.000136776
0.000116239
0.000102628
9.29681e-05
8.47085e-05
2.0737e-05
9.48183e-05
0.000142602
0.000188295
0.000196836
0.000183927
0.00015768
0.000133001
0.00011703
0.000106817
9.90176e-05
2.28006e-05
8.65347e-05
0.000135641
0.000197557
0.000218221
0.000211737
0.000186151
0.00015672
0.00013611
0.000123602
0.000115341
2.55057e-05
8.02861e-05
0.000132716
0.000198208
0.000222274
0.000220469
0.000197911
0.000169676
0.000148489
0.000135396
0.000126797
2.81224e-05
7.5714e-05
0.000130754
0.000195021
0.000221693
0.000224901
0.000205402
0.000178461
0.000157759
0.000145137
0.000137544
3.05354e-05
7.23994e-05
0.00012901
0.000190712
0.000219043
0.000226351
0.000210146
0.000185516
0.00016603
0.000154536
0.000148549
3.27898e-05
7.00046e-05
0.000127382
0.000186526
0.000216169
0.000226827
0.000213566
0.000191425
0.000173513
0.000163422
0.000159201
3.47134e-05
6.81992e-05
0.000125785
0.00018287
0.000213981
0.000227184
0.000216607
0.000196555
0.000179824
0.000170621
0.000167167
3.62947e-05
6.66394e-05
0.000124307
0.000179836
0.00021272
0.000227856
0.000219679
0.000201231
0.000185282
0.00017667
0.000174041
3.75134e-05
6.50904e-05
0.000122658
0.000177433
0.000212078
0.000229101
0.00022306
0.000205716
0.000190074
0.000181692
0.000179669
3.84652e-05
6.35161e-05
0.000120835
0.000175418
0.000211823
0.000230877
0.000226856
0.000210224
0.000194384
0.000185713
0.000183611
3.90796e-05
6.17472e-05
0.000118696
0.000173515
0.000211788
0.000233165
0.000231239
0.00021507
0.000198534
0.000188993
0.000186092
3.9302e-05
5.83976e-05
0.000114416
0.000169968
0.000210618
0.000235184
0.000236242
0.000220678
0.000203054
0.000192185
0.000188007
3.90373e-05
5.4408e-05
0.000107335
0.000162531
0.000204444
0.000231731
0.000237366
0.000225398
0.000208315
0.000196267
0.0001906
3.82539e-05
4.98825e-05
9.75504e-05
0.000151003
0.00019325
0.000222366
0.000233129
0.000227359
0.00021362
0.000201633
0.000194776
3.69411e-05
4.5037e-05
8.55071e-05
0.000135275
0.000176933
0.000206953
0.000222256
0.000223842
0.000216621
0.000207498
0.000200875
3.50207e-05
4.01902e-05
7.24444e-05
0.000116162
0.000155812
0.000185826
0.000204303
0.000212342
0.000213161
0.000210472
0.000207348
3.24295e-05
3.54364e-05
5.94618e-05
9.50923e-05
0.000130654
0.000159476
0.000179555
0.000191868
0.000199269
0.00020431
0.000208369
2.91377e-05
3.0714e-05
4.73382e-05
7.38486e-05
0.000103017
0.000128847
0.000148805
0.000163113
0.000174004
0.000184041
0.000194802
2.51108e-05
2.58829e-05
3.64942e-05
5.42132e-05
7.53932e-05
9.60392e-05
0.000113729
0.000127888
0.00013959
0.000150775
0.000163387
2.03383e-05
2.07657e-05
2.69667e-05
3.73738e-05
5.05034e-05
6.44224e-05
7.75965e-05
8.92819e-05
9.96309e-05
0.000109531
0.000120377
1.48551e-05
1.48469e-05
1.79599e-05
2.30272e-05
2.95541e-05
3.68911e-05
4.44138e-05
5.17155e-05
5.86984e-05
6.55894e-05
7.29875e-05
8.98734e-06
9.50089e-06
1.17187e-05
1.45778e-05
1.79923e-05
2.18336e-05
2.58983e-05
3.12922e-05
3.89129e-05
4.94365e-05
6.32013e-05
2.1219e-05
9.72922e-05
0.000153797
0.000216119
0.000266057
0.000306296
0.000347734
0.000399946
0.000458391
0.000511295
0.000540754
1.56354e-05
6.95187e-05
0.000122096
0.000183556
0.000240382
0.000289826
0.000341369
0.000390687
0.000434708
0.000466892
0.000473353
1.32876e-05
5.90721e-05
0.000108787
0.000165252
0.00022113
0.000272514
0.000323814
0.000375374
0.000413374
0.000432669
0.000422422
1.25551e-05
5.81639e-05
0.000105625
0.000157435
0.000210325
0.000260824
0.00031011
0.000358722
0.000395362
0.000408398
0.000392466
1.27088e-05
5.87657e-05
0.000106026
0.000155531
0.000206324
0.0002553
0.00030253
0.000346959
0.000380431
0.000391227
0.000374998
1.2947e-05
5.92811e-05
0.000108548
0.000157185
0.000207216
0.000255327
0.000300139
0.000339419
0.000368109
0.000378365
0.000364363
1.31853e-05
5.97177e-05
0.000111905
0.000161713
0.000211959
0.000259174
0.000300588
0.000334085
0.000357944
0.000368076
0.000357503
1.3525e-05
6.08545e-05
0.00011555
0.000167587
0.000218574
0.000264042
0.000301418
0.000329767
0.000350192
0.000360884
0.000353823
1.38301e-05
6.18959e-05
0.000119136
0.000173534
0.000224558
0.000267926
0.000301833
0.000326698
0.000345348
0.000357224
0.0003538
1.40515e-05
6.29356e-05
0.000122575
0.000178192
0.000228936
0.000270785
0.000302497
0.000325471
0.000343476
0.000356841
0.000356754
1.42511e-05
6.37633e-05
0.000125345
0.000181929
0.000232595
0.000273729
0.000304365
0.000326479
0.0003444
0.0003592
0.000361688
1.44138e-05
6.51573e-05
0.00012831
0.000185748
0.000236566
0.000277509
0.000307779
0.000329619
0.000347727
0.000363808
0.000368598
1.44772e-05
6.64433e-05
0.000130947
0.000189305
0.000240551
0.000281717
0.000312112
0.000334078
0.000352554
0.00036979
0.00037661
1.44358e-05
6.68231e-05
0.000132372
0.0001918
0.000243822
0.000285636
0.0003166
0.000339043
0.000358033
0.000376299
0.000384755
1.42645e-05
6.708e-05
0.000133244
0.000193589
0.000246499
0.000289232
0.000321118
0.000344338
0.000363928
0.000383033
0.000393061
1.39474e-05
6.67579e-05
0.000133064
0.000194144
0.000248042
0.000291985
0.000325165
0.000349433
0.000369586
0.000389181
0.000400569
1.34911e-05
6.51328e-05
0.000130869
0.000192492
0.000247554
0.000293096
0.00032802
0.000353576
0.000374058
0.000393534
0.000406346
1.28196e-05
6.25142e-05
0.00012676
0.000188389
0.000244564
0.000292017
0.000329104
0.000356108
0.000376429
0.000394645
0.000407936
1.19172e-05
5.86364e-05
0.000120229
0.000181047
0.000238095
0.00028765
0.000327248
0.000355773
0.000375224
0.000390481
0.000402069
1.07645e-05
5.33088e-05
0.000110794
0.000169477
0.00022654
0.000277844
0.000320016
0.000350202
0.000368384
0.000379086
0.000386265
9.31527e-06
4.60673e-05
9.7956e-05
0.000151801
0.000205866
0.000256931
0.000301306
0.000334136
0.000352467
0.000358967
0.000359604
7.63502e-06
4.14131e-05
8.17443e-05
0.000119861
0.000161854
0.000208089
0.000255158
0.000294857
0.000319602
0.000327867
0.000324321
5.70032e-06
1.72623e-05
2.99186e-05
4.8871e-05
7.31368e-05
0.000106161
0.000155347
0.000208121
0.000251642
0.000276378
0.000281311
8.80331e-06
2.186e-05
4.54727e-05
7.85968e-05
0.000107458
0.000118726
0.000111753
0.000117346
0.000149874
0.000190317
0.000217511
2.00947e-05
0.00011646
0.00018896
0.000239069
0.000266401
0.000288257
0.000331271
0.000399867
0.000482127
0.000565913
0.000618371
1.29325e-05
7.14065e-05
0.000149346
0.000213271
0.000249558
0.000264677
0.000297421
0.000379644
0.000492222
0.000626594
0.0007466
1.22945e-05
4.80138e-05
0.000119792
0.000195873
0.000247136
0.000256983
0.000248897
0.000308041
0.000439866
0.000625467
0.000828602
1.39112e-05
4.81599e-05
0.000115108
0.00019618
0.000264718
0.000293883
0.000266442
0.000230798
0.000278619
0.000469181
0.00077285
1.61074e-05
5.6156e-05
0.000126728
0.00021126
0.00029176
0.000345409
0.000341778
0.000280095
0.000238397
0.000283658
0.000551213
1.83969e-05
6.76043e-05
0.000145916
0.00023393
0.000320476
0.000392005
0.000419557
0.000369199
0.000286827
0.000243685
0.000338579
2.06464e-05
8.09964e-05
0.000168524
0.000259085
0.000346344
0.000426383
0.000479396
0.000462727
0.000370671
0.000277536
0.00025746
2.28837e-05
9.52385e-05
0.00019221
0.000284082
0.000367858
0.000447034
0.000514411
0.000536446
0.000461553
0.000343113
0.000261336
2.49522e-05
0.000110414
0.000216375
0.000308303
0.000385847
0.000456567
0.00052506
0.000572783
0.000534853
0.000416046
0.000299372
2.67972e-05
0.000126219
0.000239902
0.000330699
0.000400788
0.000458905
0.000518654
0.000578883
0.000580702
0.000479933
0.000346892
2.83915e-05
0.000141094
0.000261247
0.000350397
0.000412718
0.000457448
0.00050395
0.000565398
0.0006024
0.0005271
0.000389846
2.98362e-05
0.000154063
0.000280614
0.000366285
0.000420734
0.000453744
0.000487138
0.000541024
0.000597871
0.000557554
0.000423971
3.10383e-05
0.000165998
0.000296344
0.000378653
0.000425125
0.000448451
0.000471452
0.000511658
0.00056499
0.000573938
0.000444004
3.19429e-05
0.000177417
0.000310526
0.000388645
0.000426708
0.000440372
0.000453341
0.000481025
0.000519505
0.000541505
0.00046302
3.24734e-05
0.000187895
0.000323305
0.000396973
0.000426446
0.00043027
0.000432673
0.00044784
0.000472103
0.000489708
0.000464925
3.2626e-05
0.000198051
0.000335845
0.000405122
0.000426038
0.000420181
0.000412243
0.000416483
0.000430712
0.00044487
0.000441761
3.23865e-05
0.00020816
0.000349344
0.000415191
0.000428247
0.000413373
0.000395334
0.000388562
0.000391808
0.000396972
0.000395152
3.16501e-05
0.00021856
0.000365656
0.000431091
0.000438701
0.000416229
0.000388544
0.000370551
0.000363606
0.000362394
0.000358247
3.03095e-05
0.000230628
0.000385583
0.000453482
0.000459237
0.000431251
0.000396892
0.000372721
0.000361068
0.000357158
0.00035506
2.69959e-05
0.000225612
0.000377255
0.000451828
0.000464822
0.000437375
0.000396538
0.000363781
0.000345753
0.000339277
0.00033888
2.2303e-05
0.000199812
0.000346755
0.000430871
0.000457111
0.000437361
0.000393483
0.000348219
0.000312317
0.000281279
0.000243049
1.73018e-05
0.000161944
0.000295445
0.000386737
0.000427778
0.000422825
0.000386722
0.000337041
0.000283049
0.000225049
0.000168676
1.2152e-05
0.000109626
0.000228976
0.000320522
0.000371715
0.000377298
0.000350397
0.000303822
0.000241982
0.000180105
0.000144717
7.67453e-06
8.60939e-05
0.000164383
0.000244207
0.000282117
0.000286144
0.000262333
0.000212953
0.00016606
0.000147217
0.000145685
5.57272e-05
0.00027417
0.000322183
0.000352449
0.000393048
0.000433128
0.000459844
0.000462993
0.000432202
0.000375277
0.000322994
3.46609e-05
0.000230681
0.000325689
0.000366396
0.000404242
0.000441899
0.000464958
0.000465942
0.000435007
0.000377099
0.000321707
3.0582e-05
0.000177615
0.00029764
0.000380122
0.000424256
0.000450957
0.000463669
0.000461706
0.000439252
0.000386721
0.000327436
3.08515e-05
0.000155533
0.00027023
0.000364751
0.000417804
0.000449404
0.000466449
0.000468956
0.000448955
0.000397847
0.000336558
3.22023e-05
0.000139938
0.000248217
0.000341838
0.000398069
0.000438603
0.000465212
0.000474879
0.000457689
0.000406562
0.000342522
3.36015e-05
0.000127696
0.000229945
0.000318621
0.000375143
0.000421715
0.000456672
0.000474147
0.000461691
0.000412807
0.000349478
3.50316e-05
0.00011808
0.000214456
0.000296872
0.00035285
0.000402406
0.000443288
0.000467827
0.000461032
0.000415536
0.000353066
3.6522e-05
0.000110609
0.00020151
0.000278128
0.0003327
0.000383236
0.000427866
0.000457873
0.000456392
0.000415519
0.000358102
3.7864e-05
0.000104454
0.000190559
0.00026236
0.000315228
0.000365713
0.000412559
0.000446739
0.000450364
0.000414613
0.000360995
3.89662e-05
9.88083e-05
0.000180863
0.00024901
0.000300307
0.000350363
0.000398603
0.00043607
0.000444194
0.000412834
0.00036132
3.99537e-05
9.36197e-05
0.00017214
0.000237514
0.00028749
0.000337017
0.000386193
0.000426345
0.000438274
0.000410533
0.000362219
4.07521e-05
8.90677e-05
0.00016438
0.000227512
0.000276376
0.000325382
0.000375241
0.00041771
0.000432984
0.000408324
0.000362025
4.12533e-05
8.47814e-05
0.000157251
0.00021873
0.000266778
0.000315381
0.000365803
0.000410385
0.000428735
0.000406763
0.000362466
4.15468e-05
8.03995e-05
0.000150304
0.000210828
0.000258469
0.000306883
0.000357838
0.000404456
0.000425759
0.0004061
0.00036364
4.14384e-05
7.56509e-05
0.000143324
0.00020344
0.000251008
0.000299436
0.000350896
0.000399564
0.000423998
0.000406622
0.000365626
4.08864e-05
7.02457e-05
0.000134111
0.000193572
0.000240662
0.000288157
0.000339152
0.000390008
0.000419653
0.000407173
0.000368953
3.99401e-05
6.34548e-05
0.000121375
0.000179261
0.000224749
0.000268664
0.000315134
0.000364374
0.000399777
0.000398707
0.000369793
3.84057e-05
5.65347e-05
0.00010661
0.000161132
0.00020414
0.000242705
0.00028119
0.000323357
0.000360678
0.000374369
0.000363133
3.62594e-05
4.94952e-05
9.03772e-05
0.000139251
0.000178966
0.000211712
0.000240805
0.000271441
0.000302884
0.000326282
0.000337112
3.34569e-05
4.24335e-05
7.35566e-05
0.00011437
0.000149601
0.00017697
0.000197727
0.000216203
0.000235459
0.000255649
0.000278242
2.99203e-05
3.54547e-05
5.73367e-05
8.83973e-05
0.000117515
0.000139966
0.000154843
0.000164469
0.000171981
0.000180461
0.000195057
2.55931e-05
2.869e-05
4.29168e-05
6.41181e-05
8.56925e-05
0.000103078
0.000114187
0.000119428
0.000120584
0.000120103
0.000121596
2.03714e-05
2.18802e-05
3.04176e-05
4.32517e-05
5.71598e-05
6.92099e-05
7.74545e-05
8.12842e-05
8.11688e-05
7.8302e-05
7.44866e-05
1.45031e-05
2.07547e-05
2.54863e-05
3.17545e-05
3.84025e-05
4.435e-05
4.87535e-05
5.10974e-05
5.12212e-05
4.93428e-05
4.60579e-05
5.37283e-05
0.00027
0.000297531
0.000385885
0.000430681
0.000461718
0.000488693
0.000489374
0.000452569
0.000388961
0.000332296
4.03368e-05
0.000178883
0.000185552
0.000260835
0.000401793
0.000466255
0.000505225
0.000513785
0.000481389
0.000413347
0.00034671
3.83874e-05
0.000134893
0.000160039
0.000214856
0.000349543
0.000467344
0.000526637
0.000540806
0.000511178
0.000440772
0.000365338
3.94666e-05
0.000115602
0.000148399
0.000197261
0.000328141
0.000469791
0.000549646
0.000571164
0.000542306
0.000469285
0.000387128
4.08411e-05
0.00011002
0.000142147
0.00018833
0.000319688
0.000469949
0.000566541
0.000598538
0.000570744
0.000491424
0.000397554
4.16783e-05
0.000111337
0.000138992
0.000182762
0.000311976
0.000466047
0.000574919
0.000618096
0.000592296
0.000503707
0.000393105
4.21836e-05
0.000115945
0.000137845
0.000178548
0.000304753
0.000458998
0.000576098
0.000628916
0.00060537
0.000507103
0.000383698
4.26936e-05
0.000122487
0.000138331
0.000175644
0.000297259
0.000450107
0.00057231
0.000632431
0.000610491
0.000501216
0.000359699
4.30759e-05
0.000129742
0.000139895
0.000173347
0.000287518
0.000437813
0.000565091
0.000630816
0.000609577
0.000488731
0.00033087
4.33221e-05
0.000137006
0.000142151
0.000171059
0.000275533
0.000419243
0.000546613
0.000616441
0.000598221
0.000470861
0.000302862
4.33221e-05
0.000143106
0.00014473
0.000168014
0.000260355
0.000393973
0.000517484
0.00058651
0.000567592
0.000439568
0.000277746
4.31329e-05
0.000148729
0.000147686
0.000164803
0.000243984
0.000364635
0.000480788
0.000545753
0.00052478
0.000402316
0.000255269
4.26279e-05
0.00015368
0.000150773
0.000161427
0.00022679
0.000332262
0.000438083
0.000497342
0.000475374
0.000364155
0.00023584
4.17643e-05
0.000156898
0.000153704
0.000157899
0.000208952
0.000297534
0.000390587
0.000443578
0.000423217
0.000327457
0.00021878
4.04652e-05
0.000158729
0.000156445
0.000154779
0.00019201
0.000263006
0.00034133
0.000387555
0.00037114
0.000292916
0.000203154
3.86868e-05
0.000158683
0.000158779
0.000152235
0.000176547
0.000230061
0.000292508
0.000331377
0.000320243
0.000260037
0.000187792
3.63892e-05
0.000156184
0.000160339
0.000150406
0.000163142
0.000200136
0.000246436
0.000277149
0.000271014
0.000227676
0.000171711
3.34868e-05
0.000151068
0.000160666
0.000149361
0.000152466
0.000174693
0.000205591
0.000227385
0.000224411
0.00019513
0.000153841
2.99426e-05
0.000142969
0.000158996
0.000148829
0.000144926
0.000154871
0.000172041
0.000184594
0.000182164
0.000162888
0.000133842
2.58203e-05
0.000132179
0.000154424
0.00014817
0.000140657
0.000141467
0.000147314
0.000151072
0.000146784
0.000133077
0.000112869
2.07954e-05
0.00011516
0.000145536
0.000146106
0.000139126
0.000134615
0.000132116
0.000128358
0.000120793
0.00010892
9.37e-05
1.75713e-05
0.000112784
0.000137931
0.000141047
0.000135607
0.000128539
0.000120925
0.000112249
0.000102089
9.02762e-05
7.5384e-05
1.26567e-05
7.95588e-05
0.000100314
9.2789e-05
8.22099e-05
7.21889e-05
6.2946e-05
5.4202e-05
4.58504e-05
3.81131e-05
3.17568e-05
9.87804e-06
1.12158e-05
1.14966e-05
1.21514e-05
1.32036e-05
1.44873e-05
1.58448e-05
1.709e-05
1.80385e-05
1.8542e-05
1.85194e-05
1.48388e-05
1.40645e-05
1.23901e-05
8.89912e-06
5.60912e-06
6.37874e-06
6.88819e-06
7.97917e-06
1.18545e-05
5.17764e-05
3.39634e-05
2.40262e-05
2.0184e-05
2.1058e-05
2.88992e-05
2.63327e-05
2.3631e-05
2.69442e-05
9.99594e-05
6.44705e-05
4.25476e-05
3.20588e-05
3.10685e-05
4.134e-05
3.81601e-05
3.60762e-05
4.8279e-05
0.000141515
8.83874e-05
5.7832e-05
4.38512e-05
4.325e-05
5.51097e-05
4.97559e-05
4.7512e-05
6.56647e-05
1.50962e-05
1.50999e-05
1.49796e-05
1.48447e-05
1.48218e-05
1.46718e-05
1.44531e-05
1.40715e-05
1.33889e-05
7.76658e-05
9.56433e-05
0.000111088
0.0001215
0.000115382
9.9434e-05
8.29442e-05
6.26607e-05
4.16994e-05
0.000144101
0.000178352
0.000205742
0.000216734
0.000202628
0.000173793
0.000144192
0.000114735
7.79492e-05
0.000207031
0.000256194
0.000290629
0.000296203
0.000276105
0.00023694
0.000197541
0.000155422
0.000105152
0.000195785
0.000229698
0.000229746
0.000109824
0.000204546
0.000229358
0.000109285
0.000229452
0.000229349
0.000232752
0.000206839
0.000229486
0.000175321
0.000239041
0.000123891
0.00022868
0.000237039
0.000105749
0.000228668
0.000228571
0.00022954
2.69136e-05
0.000229955
0.000132796
0.000229344
0.000237835
0.00018165
0.000115947
0.000338778
0.000205646
0.000239357
0.000234013
0.000246885
0.000229438
0.000238752
0.000229659
0.000132286
0.000229326
0.000247353
0.000229378
1.57973e-05
0.00022947
0.000140552
0.000229929
0.000379225
5.77096e-05
9.831e-05
0.000112043
0.000238123
0.000229056
0.000200254
0.000229392
0.00022357
0.000135262
0.000229019
0.000229345
2.72929e-05
0.000229417
0.000330322
0.000133563
2.95703e-05
0.000225953
0.000272491
0.000377971
2.23537e-05
0.000228551
0.000249526
0.00023048
0.000229696
0.000232279
0.000203806
0.000231859
0.000102873
0.000237593
0.000128474
0.000230715
2.03281e-05
0.000229674
0.000458334
0.000472988
0.000150087
0.000364612
0.000229292
0.000229786
0.000244194
0.000102131
0.000347433
0.000232016
9.06318e-05
0.000164313
0.000229497
0.000229445
1.67433e-05
0.000231414
0.000467739
0.000150112
0.000108351
0.000235934
8.85429e-05
0.000233781
0.000250361
0.00010743
0.000229425
0.000233239
8.60654e-05
0.000229491
0.000217325
0.000229865
0.000243983
0.00023554
0.000229418
0.000229516
0.000230064
0.000125302
7.3061e-05
0.000229015
0.000229299
0.000228788
0.000229368
0.000228792
0.000121333
0.000237299
0.000246722
0.000233127
5.01792e-05
0.000218487
0.000178471
0.000210506
0.000237951
0.00024196
0.000229417
0.000128949
0.000109491
0.000231006
0.000229742
0.000237639
2.04503e-05
0.000282743
0.000179759
0.000242729
0.000162709
0.00023126
0.000352572
0.000166637
0.000229245
5.48955e-05
0.000144774
0.000230182
0.000234073
0.000229165
0.00022903
0.000229322
5.73415e-05
0.000235543
0.000129198
0.000172416
9.01948e-05
3.98838e-05
0.000190555
0.000228732
0.000214158
9.25607e-05
0.000231441
0.000229073
0.000259186
0.000207194
0.000103269
0.000248267
0.000239894
2.13509e-05
0.000244375
0.000188665
0.000241234
0.000229319
0.00023344
0.000218173
0.000179943
6.01254e-05
0.000380739
0.000197284
0.000229834
2.21253e-05
0.000229936
0.000103359
0.000229317
0.000214921
0.000229461
0.00022875
0.000229653
0.000442904
0.000243719
0.000239166
0.000228497
1.5076e-05
0.000229725
0.00022889
0.000229252
9.07824e-05
0.000242651
0.00023
4.8788e-05
0.000229155
0.000236837
0.000235186
0.000229796
0.000233622
0.000231044
0.000237822
0.000229125
0.000228667
0.000172426
0.000228987
0.000174381
0.00023695
0.000229354
0.000179721
0.000229373
6.52373e-05
0.000229258
0.0001463
0.000249185
0.000115559
0.00010621
7.49929e-05
0.00023132
0.00022943
0.000105083
0.000227071
0.000243524
0.00034484
4.4884e-05
0.000228469
0.000229144
0.000237906
5.80658e-05
0.000266222
0.000171276
0.000229878
0.000229521
0.000229491
6.58194e-05
0.000243305
0.000233227
1.48298e-05
0.000234039
9.63807e-05
0.000229384
0.000225842
0.000192955
0.000139087
0.000227062
0.000168453
0.000248351
0.000228628
0.000233123
0.000229282
0.000229391
0.000229258
6.97892e-05
0.000229656
0.00014211
0.000213515
0.000228142
0.000229577
0.000229411
9.64397e-05
0.000231706
0.00023546
0.000161939
0.000175437
0.000107779
0.000228903
0.000229175
9.94909e-05
0.000228999
0.000228816
0.000232923
0.000229164
0.000237047
8.6917e-05
0.000232821
0.000229668
0.000149855
0.000164897
0.000232728
0.000228948
0.000260965
0.00022962
0.000236581
0.000185657
0.000229741
0.000154199
0.000251516
0.000222759
0.000230006
0.000229168
0.000239653
0.000229546
0.000238386
0.000231061
0.000229385
0.000102701
0.000240637
0.000196227
0.000229332
0.000235565
0.000229667
0.000232844
2.21065e-05
0.000228992
6.601e-05
0.000229536
0.00023358
0.000246492
2.31133e-05
0.000230825
0.000221696
0.00013451
0.000228466
0.000233238
0.000229316
0.000178489
0.000228885
0.000200672
0.000430733
0.000237182
0.000229233
0.000238833
0.000228156
0.00015826
0.00023336
0.00027896
1.94341e-05
0.000229907
0.000150219
0.000260633
9.20482e-05
0.000229624
0.000229217
0.000236898
6.6929e-05
0.000165045
0.000229186
0.000175133
0.00010585
0.000231918
7.3763e-05
0.000228991
0.000124232
0.000164865
6.44754e-05
0.000233813
0.000175418
0.000229362
0.000114511
0.000230036
0.000249336
0.000205334
0.000229929
0.000152463
0.000134431
0.000241529
0.000229404
0.000229347
0.000229319
9.36538e-05
0.000197936
0.000205167
7.02026e-05
0.000249227
0.000229153
8.68089e-05
0.000236504
0.000225905
0.00012297
0.000229713
0.000150188
0.000238584
0.000228908
0.000229068
0.000154896
0.000228838
5.49463e-05
0.000229413
0.00023946
0.000203612
0.000104596
0.000230194
0.000236923
8.7645e-05
0.000229326
7.82362e-05
0.00022221
0.000246097
0.000206112
2.25684e-05
0.000229333
0.000228863
0.000229774
7.29602e-05
6.9723e-05
0.000228959
0.000229963
0.000191891
0.000246206
2.21127e-05
0.000371742
0.00024039
0.000229145
0.000179797
0.000241293
0.000228638
0.000238586
0.000240038
6.44375e-05
0.000233407
0.00024346
0.000242262
0.000209914
0.000126045
0.000135145
0.000172797
9.63159e-05
0.000243382
0.000225126
0.000234842
0.000236043
7.63896e-05
0.000194718
3.2245e-05
0.000229292
5.50248e-05
0.000228367
0.00022823
0.000226468
0.000247047
0.00010866
0.000149102
0.000233272
0.000230035
0.000232532
0.000337881
9.22056e-05
0.000104413
0.000233603
0.000231204
0.000176699
3.21395e-05
0.00022869
7.65629e-05
0.000229332
0.000229733
0.000229324
0.000124424
0.00012442
6.65782e-05
0.000244325
4.48737e-05
8.39318e-05
0.000229646
0.000228691
0.000175147
0.000205694
0.000233135
0.000239326
4.02791e-05
4.40894e-05
2.96836e-05
2.93526e-05
0.00023305
0.000209213
8.84532e-05
0.000229478
3.03839e-05
0.000236387
0.000229604
0.000228908
8.05635e-05
6.1798e-05
0.000229274
0.000229158
0.000229601
0.000374856
2.11746e-05
0.000229872
5.53699e-05
0.000376503
0.000155468
0.000239662
0.000228668
5.54845e-05
0.000228889
0.000235722
0.000229393
0.000240025
0.000169022
0.000228518
0.000207498
0.000167873
0.000234914
0.000242808
0.000239012
0.000229421
0.000229451
0.000237762
0.000246833
0.000103288
0.000233676
8.8479e-05
0.000229756
0.000180227
0.000110487
8.61287e-05
0.000211016
0.000250613
0.000194261
7.90111e-05
0.000207541
0.000229196
0.000183085
0.000228522
0.000229661
0.000229087
0.000229569
0.00023454
0.000155064
0.000229398
0.000228715
0.000106154
0.000229397
3.52734e-05
0.000243288
0.000238068
0.000190493
8.93083e-05
0.000229996
0.000229248
0.000229839
1.46759e-05
5.98734e-05
0.000229342
0.000229337
0.000233492
0.000229746
8.18363e-05
0.000229696
0.000171866
0.000235853
4.25446e-05
0.000242725
0.000150573
6.61093e-05
0.000190105
0.000229404
0.000231797
0.000233803
0.000229698
0.000247825
3.13445e-05
0.000223692
0.000240154
0.000108155
0.000118934
0.000229343
0.000229309
0.000229663
0.000172853
0.000172744
8.91993e-05
0.000229451
0.000229201
0.000162076
0.000230155
0.000221342
0.000239185
0.000239186
0.000154537
0.000229315
9.33713e-05
0.000229199
8.91484e-05
0.000229236
0.000129001
0.000174256
0.00023322
2.44554e-05
0.000201913
0.000229844
0.000229984
0.000460809
0.000228944
0.000184873
0.000184868
7.94254e-05
0.000159848
6.71587e-05
0.000210771
0.00023043
0.000229443
0.000229301
0.000153439
9.91025e-05
0.000122779
0.000228536
0.000229372
0.000285982
0.000229798
0.00023278
0.000237908
0.000232198
0.000214435
0.000130645
8.20781e-05
0.000161807
0.000233008
0.000242842
0.000228622
0.00012259
0.000230533
0.00022937
0.000197025
0.000158795
0.000228945
0.000228851
2.03312e-05
0.000229479
0.000228664
0.000147958
0.000229705
0.000235125
0.0001647
0.000231165
0.000155594
0.000236983
0.000183367
0.000194503
0.000209427
9.34377e-05
0.000140335
0.000191663
9.64247e-05
9.46836e-05
0.000142667
0.000229759
0.000230412
0.000436807
0.000229351
0.000229584
0.000243457
0.000228292
0.000157148
0.000182767
0.000199652
0.000241547
0.000229187
0.000218542
0.000229541
0.000228838
0.000235589
0.000121806
0.000230921
0.000234683
0.000231411
0.000229645
0.000200935
6.22329e-05
0.000345886
0.000230842
0.000230497
0.000188417
0.000231789
0.000232554
0.000307887
0.000230555
0.000148361
0.000204907
0.000229267
0.000249938
0.000229913
0.000246638
0.000238563
0.000215018
0.00016171
0.000212168
0.000242253
0.00022982
0.000110708
0.000205284
0.000118459
0.000168753
0.000228951
0.000233273
0.000229806
0.000157707
0.000230035
6.02803e-05
0.000229495
0.000229448
0.000228948
0.000180786
0.00011152
0.000229569
0.000149676
0.000229181
0.000232555
0.000189923
0.000230933
0.000203262
1.55252e-05
0.00023699
0.000236378
0.000237939
0.000196098
0.000133985
0.000245931
0.000101699
0.000229239
0.000230768
0.000229418
0.000233215
5.95253e-05
0.000180842
5.33077e-05
0.000239208
0.00022997
0.000235283
0.000228798
6.54615e-05
0.000229634
0.000190804
0.000209254
0.000169662
0.000234083
0.000136803
0.00016139
0.000155078
0.000238214
0.000187261
6.922e-05
0.000107433
0.000229448
0.000241232
0.000109573
0.000229517
3.82229e-05
0.00013566
0.00023664
0.000145525
0.000229249
0.000234639
0.000234147
0.000149442
0.000233547
0.000222118
0.000229578
0.000246541
0.000232795
0.000228618
0.000245524
0.000157489
0.000243884
0.000228756
0.000103851
6.23098e-05
0.00022921
0.000234653
0.000185389
0.000205662
0.000248289
3.86563e-05
0.000249917
7.13816e-05
0.000241761
0.00025352
0.000228841
0.000244143
0.000229154
7.85433e-05
2.43997e-05
0.000230047
0.000229374
0.000248875
0.000391717
0.000173385
0.000211264
0.000229563
0.000227813
0.000252608
0.000229513
0.000229625
0.000229788
0.00022942
0.000233882
0.000184595
8.66473e-05
9.08824e-05