/*--------------------------------*- C++ -*----------------------------------*\
| =========                 |                                                 |
| \\      /  F ield         | OpenFOAM: The Open Source CFD Toolbox           |
|  \\    /   O peration     | Version:  3.0.1                                 |
|   \\  /    A nd           | Web:      www.OpenFOAM.org                      |
|    \\/     M anipulation  |                                                 |
\*---------------------------------------------------------------------------*/
FoamFile
{
    version     2.0;
    format      ascii;
    class       surfaceScalarField;
    location    "0.148936";
    object      phi;
}
// * * * * * * * * * * * * * * * * * * * * * * * * * * * * * * * * * * * * * //

dimensions      [0 3 -1 0 0 0 0];

internalField   nonuniform List<scalar> 
32369
(
-1.10373e-05
-1.01571e-05
2.11945e-05
-1.77255e-05
-1.19414e-05
1.86296e-05
-2.33577e-05
-1.4319e-05
1.99512e-05
-2.87e-05
-1.66181e-05
2.19604e-05
-3.36439e-05
-1.86621e-05
2.36061e-05
-3.86322e-05
-2.04611e-05
2.54493e-05
-4.3977e-05
-2.20213e-05
2.73661e-05
-5.00248e-05
-2.3307e-05
2.93548e-05
-5.70558e-05
-2.42241e-05
3.12551e-05
-6.5356e-05
-2.45913e-05
3.28914e-05
-2.40595e-05
3.39995e-05
-7.52959e-05
-8.33327e-06
-1.82387e-06
-1.52402e-05
-5.03454e-06
-2.15773e-05
-7.98191e-06
-2.74263e-05
-1.07691e-05
-3.29308e-05
-1.31576e-05
-3.83975e-05
-1.49943e-05
-4.41925e-05
-1.62263e-05
-5.07021e-05
-1.67974e-05
-5.83103e-05
-1.6616e-05
-6.74233e-05
-1.54782e-05
-1.30161e-05
-7.84667e-05
-4.01453e-06
2.19065e-06
-9.10575e-06
5.66897e-08
-1.48029e-05
-2.28475e-06
-2.07981e-05
-4.77383e-06
-2.69659e-05
-6.98991e-06
-3.33493e-05
-8.61088e-06
-4.01156e-05
-9.46e-06
-4.75655e-05
-9.34746e-06
-5.60758e-05
-8.10579e-06
-6.60121e-05
-5.54184e-06
-1.28961e-06
-7.77386e-05
-1.80162e-06
3.99227e-06
-5.0254e-06
3.28047e-06
-9.60792e-06
2.29777e-06
-1.51337e-05
7.51995e-07
-2.13233e-05
-8.00344e-07
-2.79832e-05
-1.95101e-06
-3.51686e-05
-2.27461e-06
-4.30418e-05
-1.47424e-06
-5.18807e-05
7.33125e-07
-6.2124e-05
4.70146e-06
1.08902e-05
-7.43038e-05
-1.21603e-06
5.2083e-06
-3.12506e-06
5.1895e-06
-6.16198e-06
5.3347e-06
-1.04182e-05
5.0082e-06
-1.58123e-05
4.5938e-06
-2.21829e-05
4.41961e-06
-2.9426e-05
4.96849e-06
-3.75751e-05
6.67477e-06
-4.67919e-05
9.94999e-06
-5.73195e-05
1.52291e-05
2.31317e-05
-6.9561e-05
-1.17023e-06
6.37853e-06
-2.96807e-06
6.98735e-06
-5.35795e-06
7.72457e-06
-8.67219e-06
8.32244e-06
-1.30843e-05
9.0059e-06
-1.86424e-05
9.97769e-06
-2.52993e-05
1.16254e-05
-3.30321e-05
1.44076e-05
-4.19073e-05
1.88251e-05
-5.21075e-05
2.54293e-05
3.49978e-05
-6.39736e-05
-1.05741e-06
7.43594e-06
-2.60949e-06
8.53943e-06
-4.71706e-06
9.83213e-06
-7.55798e-06
1.11634e-05
-1.13022e-05
1.27501e-05
-1.60941e-05
1.47696e-05
-2.20017e-05
1.7533e-05
-2.90624e-05
2.14683e-05
-3.73438e-05
2.71065e-05
-4.69638e-05
3.50493e-05
4.60939e-05
-5.80598e-05
-1.01448e-06
8.45041e-06
-2.4451e-06
9.97005e-06
-4.32345e-06
1.17105e-05
-6.81051e-06
1.36504e-05
-1.00642e-05
1.60038e-05
-1.42332e-05
1.89387e-05
-1.94396e-05
2.27394e-05
-2.57781e-05
2.78069e-05
-3.33506e-05
3.4679e-05
-4.22783e-05
4.3977e-05
5.66217e-05
-5.28062e-05
-9.52069e-07
9.40248e-06
-2.27425e-06
1.12922e-05
-3.97639e-06
1.34126e-05
-6.19293e-06
1.5867e-05
-9.0595e-06
1.88704e-05
-1.27244e-05
2.26036e-05
-1.73254e-05
2.73403e-05
-2.29907e-05
3.34722e-05
-2.98389e-05
4.15272e-05
-3.8058e-05
5.21961e-05
6.64337e-05
-4.787e-05
-7.92132e-07
1.01946e-05
-1.95518e-06
1.24553e-05
-3.47161e-06
1.49291e-05
-5.44735e-06
1.78427e-05
-7.99397e-06
2.1417e-05
-1.12444e-05
2.5854e-05
-1.53395e-05
3.14354e-05
-2.04139e-05
3.85465e-05
-2.66241e-05
4.77374e-05
-3.41363e-05
5.97084e-05
7.54053e-05
-4.31079e-05
-6.51452e-07
1.08461e-05
-1.6627e-06
1.34665e-05
-2.99525e-06
1.62616e-05
-4.73718e-06
1.95846e-05
-6.98984e-06
2.36696e-05
-9.87059e-06
2.87348e-05
-1.35065e-05
3.50714e-05
-1.80387e-05
4.30787e-05
-2.36214e-05
5.33201e-05
-3.044e-05
6.6527e-05
8.35949e-05
-3.86296e-05
-6.24119e-07
1.14702e-05
-1.53858e-06
1.4381e-05
-2.7148e-06
1.74378e-05
-4.24187e-06
2.11117e-05
-6.20734e-06
2.56351e-05
-8.72371e-06
3.12511e-05
-1.19119e-05
3.82595e-05
-1.59033e-05
4.70701e-05
-2.08537e-05
5.82706e-05
-2.69339e-05
7.26071e-05
9.10052e-05
-3.43441e-05
-5.42708e-07
1.20129e-05
-1.32513e-06
1.51634e-05
-2.33511e-06
1.84478e-05
-3.64389e-06
2.24205e-05
-5.33367e-06
2.73249e-05
-7.50204e-06
3.34195e-05
-1.02644e-05
4.10219e-05
-1.37491e-05
5.05548e-05
-1.80786e-05
6.26001e-05
-2.34332e-05
7.79617e-05
9.76272e-05
-3.00553e-05
-3.39068e-07
1.2352e-05
-9.22049e-07
1.57464e-05
-1.72494e-06
1.92507e-05
-2.79808e-06
2.34936e-05
-4.20673e-06
2.87335e-05
-6.032e-06
3.52448e-05
-8.36778e-06
4.33576e-05
-1.13307e-05
5.35177e-05
-1.50415e-05
6.63109e-05
-1.96366e-05
8.25568e-05
0.000103298
-2.53075e-05
-2.69358e-07
1.26213e-05
-7.09112e-07
1.61861e-05
-1.30851e-06
1.98501e-05
-2.12859e-06
2.43137e-05
-3.21698e-06
2.98219e-05
-4.64719e-06
3.6675e-05
-6.50964e-06
4.52201e-05
-8.88662e-06
5.58947e-05
-1.18783e-05
6.93026e-05
-1.56337e-05
8.63121e-05
0.000107933
-2.02685e-05
-1.53437e-07
1.27748e-05
-4.0684e-07
1.64395e-05
-7.80539e-07
2.02238e-05
-1.30788e-06
2.48411e-05
-2.04684e-06
3.05609e-05
-3.05108e-06
3.76792e-05
-4.38481e-06
4.65538e-05
-6.1182e-06
5.76281e-05
-8.32721e-06
7.15116e-05
-1.10591e-05
8.9044e-05
0.000111324
-1.44506e-05
7.03075e-08
1.27044e-05
9.54243e-08
1.64144e-05
1.8806e-08
2.03004e-05
-1.76434e-07
2.50363e-05
-5.1307e-07
3.08975e-05
-1.04191e-06
3.82081e-05
-1.79559e-06
4.73075e-05
-2.80481e-06
5.86373e-05
-4.08769e-06
7.27945e-05
-5.6887e-06
9.0645e-05
0.000113312
-7.67631e-06
2.52206e-07
1.24522e-05
5.41493e-07
1.61251e-05
7.88597e-07
2.00533e-05
9.85901e-07
2.4839e-05
1.11428e-06
3.07692e-05
1.1526e-06
3.81697e-05
1.10261e-06
4.73575e-05
9.74862e-07
5.8765e-05
7.88488e-07
7.29809e-05
5.41631e-07
9.08919e-05
0.000113596
2.57502e-07
4.63807e-07
1.19884e-05
1.0727e-06
1.55162e-05
1.69493e-06
1.94311e-05
2.3358e-06
2.41981e-05
2.99882e-06
3.01061e-05
3.70226e-06
3.74663e-05
4.49291e-06
4.65669e-05
5.43681e-06
5.78211e-05
6.61377e-06
7.18039e-05
8.10046e-06
8.94052e-05
0.000111808
9.88883e-06
7.21888e-07
1.12665e-05
1.70252e-06
1.45356e-05
2.74658e-06
1.8387e-05
3.89448e-06
2.30502e-05
5.17792e-06
2.88227e-05
6.6711e-06
3.59731e-05
8.48185e-06
4.47561e-05
1.07491e-05
5.55538e-05
1.35966e-05
6.89565e-05
1.71676e-05
8.58341e-05
0.000107366
2.16092e-05
1.00969e-06
1.02569e-05
2.37353e-06
1.31718e-05
3.87734e-06
1.68832e-05
5.58786e-06
2.13397e-05
7.59025e-06
2.68203e-05
1.00348e-05
3.35285e-05
1.31063e-05
4.16847e-05
1.69847e-05
5.16754e-05
2.18515e-05
6.40897e-05
2.79218e-05
7.97638e-05
9.98144e-05
3.54736e-05
1.17058e-06
9.08628e-06
2.91022e-06
1.14321e-05
4.88412e-06
1.49093e-05
7.19833e-06
1.90255e-05
1.00417e-05
2.39769e-05
1.36485e-05
2.99218e-05
1.82397e-05
3.70934e-05
2.40195e-05
4.58956e-05
3.12291e-05
5.68802e-05
4.01666e-05
7.08263e-05
8.87997e-05
5.11813e-05
1.19875e-06
7.88754e-06
3.33912e-06
9.29176e-06
5.54358e-06
1.27048e-05
8.47225e-06
1.60968e-05
1.23059e-05
2.01432e-05
1.72726e-05
2.49552e-05
2.35674e-05
3.07986e-05
3.14285e-05
3.80345e-05
4.11566e-05
4.7152e-05
5.31747e-05
5.88082e-05
7.3955e-05
6.80194e-05
-2.67606e-06
1.05636e-05
-5.74866e-07
7.19057e-06
3.13774e-06
8.99223e-06
7.68529e-06
1.15493e-05
1.32534e-05
1.45751e-05
2.00748e-05
1.81338e-05
2.83113e-05
2.25622e-05
3.82937e-05
2.8052e-05
5.05027e-05
3.4943e-05
6.55332e-05
4.37777e-05
5.53837e-05
8.41045e-05
4.79546e-06
1.6399e-05
6.78267e-06
1.66424e-05
4.24559e-06
2.24883e-05
-1.2491e-06
2.74551e-05
-8.34752e-06
3.07045e-05
-1.62435e-05
3.33453e-05
-2.4375e-05
3.54976e-05
-3.31344e-05
3.81142e-05
-4.27718e-05
4.08926e-05
-5.35222e-05
4.36418e-05
4.61222e-05
-6.56449e-05
8.24497e-06
8.15404e-06
1.22436e-05
1.26437e-05
1.36144e-05
2.11175e-05
1.24076e-05
2.86619e-05
7.94968e-06
3.51624e-05
6.47816e-07
4.06471e-05
-8.34536e-06
4.44908e-05
-1.8132e-05
4.79009e-05
-2.89343e-05
5.16948e-05
-4.09445e-05
5.5652e-05
5.96336e-05
-5.44559e-05
5.79158e-06
2.36246e-06
9.19411e-06
9.24121e-06
1.23817e-05
1.793e-05
1.38825e-05
2.7161e-05
1.25647e-05
3.64802e-05
8.15158e-06
4.50603e-05
9.18962e-07
5.17234e-05
-7.9406e-06
5.67604e-05
-1.79145e-05
6.16687e-05
-2.92288e-05
6.69663e-05
7.2456e-05
-4.20512e-05
4.19947e-06
-1.83701e-06
7.68691e-06
5.75377e-06
1.09862e-05
1.46306e-05
1.32799e-05
2.48673e-05
1.37319e-05
3.60283e-05
1.17096e-05
4.70826e-05
6.92103e-06
5.6512e-05
-1.24963e-07
6.38064e-05
-8.5641e-06
7.01078e-05
-1.81964e-05
7.65987e-05
8.34459e-05
-2.91863e-05
2.69407e-06
-4.53108e-06
6.38092e-06
2.06691e-06
9.95274e-06
1.10588e-05
1.27035e-05
2.21165e-05
1.41189e-05
3.46129e-05
1.36653e-05
4.75362e-05
1.08802e-05
5.92971e-05
5.86238e-06
6.88242e-05
-7.92323e-07
7.67625e-05
-8.61615e-06
8.44225e-05
9.23322e-05
-1.75025e-05
1.26576e-06
-5.79684e-06
4.6953e-06
-1.36263e-06
8.62762e-06
7.1265e-06
1.20081e-05
1.87361e-05
1.42709e-05
3.23501e-05
1.49813e-05
4.68257e-05
1.37298e-05
6.05486e-05
1.04588e-05
7.20952e-05
5.58487e-06
8.16365e-05
-4.04303e-07
9.04117e-05
9.91978e-05
-7.26988e-06
8.13049e-07
-6.60989e-06
3.28901e-06
-3.83859e-06
7.18617e-06
3.22934e-06
1.10225e-05
1.48998e-05
1.40085e-05
2.9364e-05
1.56911e-05
4.51432e-05
1.57049e-05
6.05348e-05
1.39256e-05
7.38745e-05
1.06599e-05
8.49022e-05
6.34389e-06
9.47277e-05
0.000104113
1.42877e-06
7.52829e-07
-7.36272e-06
2.34741e-06
-5.43317e-06
5.79074e-06
-2.13989e-07
9.74424e-06
1.09463e-05
1.32213e-05
2.5887e-05
1.56699e-05
4.26946e-05
1.67487e-05
5.94559e-05
1.63087e-05
7.43146e-05
1.45411e-05
8.66697e-05
1.18102e-05
9.74586e-05
0.000107682
8.24105e-06
7.02794e-07
-8.06551e-06
1.91588e-06
-6.64625e-06
4.57105e-06
-2.86916e-06
8.38568e-06
7.13168e-06
1.21566e-05
2.2116e-05
1.51905e-05
3.96607e-05
1.71509e-05
5.74956e-05
1.78911e-05
7.35743e-05
1.75448e-05
8.70161e-05
1.64854e-05
9.8518e-05
0.000109066
1.51011e-05
6.88679e-07
-8.75419e-06
1.76897e-06
-7.72654e-06
3.66388e-06
-4.76407e-06
7.05297e-06
3.74259e-06
1.09118e-05
1.82572e-05
1.43669e-05
3.62055e-05
1.70569e-05
5.48056e-05
1.88394e-05
7.17918e-05
1.98088e-05
8.60467e-05
2.02411e-05
9.80857e-05
0.00010885
2.04577e-05
5.147e-07
-9.26889e-06
1.48576e-06
-8.6976e-06
2.97488e-06
-6.2532e-06
5.86465e-06
8.52824e-07
9.63664e-06
1.44853e-05
1.33776e-05
3.24645e-05
1.66576e-05
5.15256e-05
1.93609e-05
6.90885e-05
2.15436e-05
8.3864e-05
2.34562e-05
9.61731e-05
0.000107002
2.53043e-05
4.21878e-07
-9.69077e-06
1.17652e-06
-9.45224e-06
2.33468e-06
-7.41135e-06
4.69227e-06
-1.50477e-06
8.16961e-06
1.10079e-05
1.20138e-05
2.86204e-05
1.57697e-05
4.77697e-05
1.93232e-05
6.5535e-05
2.27124e-05
8.04747e-05
2.61339e-05
9.27517e-05
0.000103213
2.99226e-05
2.64309e-07
-9.95508e-06
7.75616e-07
-9.96355e-06
1.68674e-06
-8.32248e-06
3.50948e-06
-3.32751e-06
6.62835e-06
7.88905e-06
1.04698e-05
2.47789e-05
1.45967e-05
4.36428e-05
1.89391e-05
6.11927e-05
2.34955e-05
7.59184e-05
2.83716e-05
8.78755e-05
9.7737e-05
3.38475e-05
4.94076e-08
-1.00045e-05
3.15041e-07
-1.02292e-05
9.5563e-07
-8.96307e-06
2.35766e-06
-4.72954e-06
5.07508e-06
5.17163e-06
8.82397e-06
2.103e-05
1.32437e-05
3.92231e-05
1.83145e-05
5.61219e-05
2.40249e-05
7.02079e-05
3.0408e-05
8.14924e-05
9.0523e-05
3.7622e-05
-1.23088e-07
-9.8814e-06
-1.55529e-07
-1.01967e-05
9.41899e-08
-9.21279e-06
1.05058e-06
-5.68594e-06
3.33085e-06
2.89136e-06
6.9152e-06
1.74457e-05
1.16004e-05
3.45379e-05
1.73234e-05
5.03989e-05
2.42198e-05
6.33115e-05
3.21764e-05
7.35359e-05
8.14633e-05
4.1236e-05
-3.14597e-07
-9.5668e-06
-6.63775e-07
-9.84756e-06
-8.5273e-07
-9.02383e-06
-4.77844e-07
-6.06083e-06
1.39442e-06
1.0191e-06
4.75936e-06
1.40807e-05
9.62903e-06
2.96682e-05
1.61746e-05
4.38533e-05
2.41966e-05
5.52895e-05
3.3734e-05
6.39984e-05
7.00087e-05
4.51886e-05
-5.54708e-07
-9.01209e-06
-1.25127e-06
-9.151e-06
-1.86687e-06
-8.40824e-06
-2.10226e-06
-5.82543e-06
-9.6042e-07
-1.22744e-07
2.40058e-06
1.07197e-05
7.42643e-06
2.46424e-05
1.45896e-05
3.66902e-05
2.38153e-05
4.60637e-05
3.48361e-05
5.29776e-05
5.71708e-05
4.7674e-05
-8.45817e-07
-8.16627e-06
-1.93036e-06
-8.06645e-06
-3.01457e-06
-7.32403e-06
-3.788e-06
-5.052e-06
-3.48454e-06
-4.26203e-07
-4.77572e-07
7.71278e-06
4.97519e-06
1.91896e-05
1.27996e-05
2.88658e-05
2.30893e-05
3.5774e-05
3.55082e-05
4.05587e-05
4.27239e-05
4.99552e-05
-1.19134e-06
-6.97494e-06
-2.73175e-06
-6.52603e-06
-4.37835e-06
-5.67743e-06
-5.77087e-06
-3.65949e-06
-6.08776e-06
-1.09313e-07
-3.82791e-06
5.45294e-06
1.93754e-06
1.34241e-05
1.03649e-05
2.04384e-05
2.16022e-05
2.45367e-05
3.50839e-05
2.7077e-05
2.74445e-05
5.03633e-05
-1.62947e-06
-5.34547e-06
-3.7294e-06
-4.4261e-06
-6.07686e-06
-3.32997e-06
-8.18708e-06
-1.54926e-06
-9.07656e-06
7.80163e-07
-7.42778e-06
3.80416e-06
-1.81333e-06
7.80969e-06
7.24546e-06
1.13797e-05
1.89541e-05
1.28281e-05
3.28303e-05
1.32009e-05
1.15554e-05
4.87193e-05
-2.42125e-06
-2.92422e-06
-5.49674e-06
-1.35061e-06
-8.71971e-06
-1.07006e-07
-1.13044e-05
1.03538e-06
-1.23878e-05
1.86359e-06
-1.09664e-05
2.38275e-06
-5.81014e-06
2.65345e-06
3.35017e-06
2.21934e-06
1.51473e-05
1.03099e-06
2.91901e-05
-8.41958e-07
-5.13348e-06
4.5879e-05
-4.65932e-06
1.7351e-06
-7.23256e-06
1.22263e-06
-9.17951e-06
1.83994e-06
-9.52532e-06
1.38119e-06
-7.48334e-06
-1.78392e-07
-2.17293e-06
-2.92766e-06
6.53219e-06
-6.05167e-06
1.76882e-05
-8.93664e-06
3.09601e-05
-1.22409e-05
4.69654e-05
-1.68473e-05
-2.34072e-05
6.52391e-05
4.49965e-08
1.6901e-06
1.93937e-06
-6.71738e-07
5.99158e-06
-2.21227e-06
1.2264e-05
-4.89123e-06
2.00861e-05
-8.0005e-06
2.85327e-05
-1.13742e-05
3.76562e-05
-1.51752e-05
4.82345e-05
-1.95149e-05
6.08312e-05
-2.48376e-05
7.56759e-05
-3.1692e-05
-4.06846e-05
9.29533e-05
1.22537e-05
1.87725e-05
2.55525e-05
3.22105e-05
3.87851e-05
4.55447e-05
5.29316e-05
6.14688e-05
7.15741e-05
8.36598e-05
9.83589e-05
-6.53815e-06
1.92865e-05
-1.27484e-05
-1.21452e-05
1.76698e-05
-1.20628e-05
-1.9841e-05
2.07602e-05
-1.30643e-05
-2.75614e-05
2.21857e-05
-1.44653e-05
-3.5411e-05
2.43652e-05
-1.65156e-05
-4.36016e-05
2.74553e-05
-1.92647e-05
-5.25248e-05
3.17703e-05
-2.28472e-05
-6.25982e-05
3.75531e-05
-2.74797e-05
-7.42796e-05
4.51787e-05
-3.34973e-05
-8.81129e-05
5.52125e-05
-4.13792e-05
6.8483e-05
-5.17266e-05
-0.000104869
1.82456e-06
1.7462e-05
1.58178e-06
1.79126e-05
-2.76946e-06
2.51114e-05
-8.72087e-06
2.81371e-05
-1.62361e-05
3.18805e-05
-2.47478e-05
3.5967e-05
-3.42825e-05
4.1305e-05
-4.51009e-05
4.83714e-05
-5.76547e-05
5.77325e-05
-7.25065e-05
7.00643e-05
8.63081e-05
-9.03316e-05
2.10601e-06
1.5356e-05
2.23829e-06
1.77803e-05
7.9324e-07
2.65565e-05
-2.16327e-06
3.10936e-05
-7.37891e-06
3.70961e-05
-1.42153e-05
4.28034e-05
-2.25325e-05
4.96222e-05
-3.2312e-05
5.81509e-05
-4.37883e-05
6.92088e-05
-5.74113e-05
8.36874e-05
0.00010279
-7.38932e-05
1.52078e-06
1.38352e-05
1.25088e-06
1.80502e-05
9.05008e-07
2.69024e-05
-5.44641e-07
3.25433e-05
-3.71489e-06
4.02663e-05
-8.3456e-06
4.74341e-05
-1.46133e-05
5.589e-05
-2.24236e-05
6.59612e-05
-3.18757e-05
7.86609e-05
-4.32265e-05
9.50382e-05
0.00011647
-5.69063e-05
1.20612e-06
1.26291e-05
9.07449e-07
1.83489e-05
8.35167e-07
2.69746e-05
-8.13882e-08
3.34598e-05
-1.90492e-06
4.20899e-05
-4.80876e-06
5.03379e-05
-9.09427e-06
6.01755e-05
-1.47728e-05
7.16398e-05
-2.19264e-05
8.58145e-05
-3.06899e-05
0.000103802
0.000127081
-4.13014e-05
1.15998e-06
1.14691e-05
1.22278e-06
1.8286e-05
1.43962e-06
2.67578e-05
8.37303e-07
3.40621e-05
-2.10776e-07
4.3138e-05
-2.02102e-06
5.21481e-05
-4.80454e-06
6.2959e-05
-8.65794e-06
7.54932e-05
-1.37202e-05
9.08767e-05
-2.0067e-05
0.000110149
0.00013481
-2.77961e-05
1.15923e-06
1.03099e-05
1.60599e-06
1.78393e-05
2.12431e-06
2.62395e-05
1.90107e-06
3.42854e-05
1.41159e-06
4.36274e-05
3.4327e-07
5.32165e-05
-1.34261e-06
6.46449e-05
-3.78453e-06
7.79351e-05
-7.10443e-06
9.41966e-05
-1.1386e-05
0.00011443
0.000140173
-1.67489e-05
1.06695e-06
9.2429e-06
1.78044e-06
1.71258e-05
2.52758e-06
2.54924e-05
2.68179e-06
3.41312e-05
2.67165e-06
4.36376e-05
2.20493e-06
5.36832e-05
1.37326e-06
6.54766e-05
4.96235e-08
7.92587e-05
-1.82189e-06
9.60681e-05
-4.29214e-06
0.0001169
0.000143246
-7.36516e-06
1.01616e-06
8.22674e-06
1.98e-06
1.6162e-05
2.9455e-06
2.45269e-05
3.47116e-06
3.36055e-05
3.85945e-06
4.32493e-05
3.91056e-06
5.36321e-05
3.76235e-06
6.56248e-05
3.32509e-06
7.9696e-05
2.60888e-06
9.67843e-05
1.59398e-06
0.000117915
0.000144519
3.21434e-07
1.15616e-06
7.07058e-06
2.41307e-06
1.4905e-05
3.64978e-06
2.32901e-05
4.56123e-06
3.2694e-05
5.32229e-06
4.24882e-05
5.81142e-06
5.31429e-05
6.20325e-06
6.52329e-05
6.45808e-06
7.94412e-05
6.62728e-06
9.66151e-05
6.73692e-06
0.000117806
0.000144467
6.78898e-06
1.22007e-06
5.85051e-06
2.68321e-06
1.34419e-05
4.18811e-06
2.17852e-05
5.48806e-06
3.13941e-05
6.61604e-06
4.13602e-05
7.5466e-06
5.22124e-05
8.42514e-06
6.43544e-05
9.29433e-06
7.8572e-05
1.02307e-05
9.56787e-05
1.13275e-05
0.000116709
0.00014304
1.27544e-05
1.12093e-06
4.72958e-06
2.65982e-06
1.1903e-05
4.341e-06
2.01041e-05
5.9617e-06
2.97734e-05
7.46718e-06
3.98548e-05
8.84837e-06
5.08312e-05
1.02324e-05
6.29704e-05
1.1712e-05
7.70923e-05
1.3397e-05
9.39937e-05
1.53988e-05
0.000114707
0.000140584
1.78543e-05
1.06087e-06
3.66871e-06
2.64633e-06
1.03176e-05
4.50282e-06
1.82476e-05
6.44374e-06
2.78325e-05
8.32906e-06
3.79694e-05
1.0165e-05
4.89953e-05
1.20517e-05
6.10837e-05
1.411e-05
7.50341e-05
1.64821e-05
9.16216e-05
1.93194e-05
0.00011187
0.000137146
2.2758e-05
1.06395e-06
2.60476e-06
2.69661e-06
8.6849e-06
4.73967e-06
1.62045e-05
7.00716e-06
2.5565e-05
9.3025e-06
3.56741e-05
1.16125e-05
4.66853e-05
1.4013e-05
5.86831e-05
1.66471e-05
7.24e-05
1.96793e-05
8.85894e-05
2.32978e-05
0.000108251
0.000132668
2.77759e-05
9.17934e-07
1.68683e-06
2.45499e-06
7.14784e-06
4.57872e-06
1.40808e-05
7.10103e-06
2.30427e-05
9.79826e-06
3.29769e-05
1.26286e-05
4.3855e-05
1.56302e-05
5.56816e-05
1.89423e-05
6.90878e-05
2.27456e-05
8.47862e-05
2.72408e-05
0.000103756
0.000127277
3.26314e-05
7.45788e-07
9.4104e-07
2.1558e-06
5.73783e-06
4.32356e-06
1.1913e-05
7.08628e-06
2.028e-05
1.01914e-05
2.98717e-05
1.35742e-05
4.04722e-05
1.72375e-05
5.20183e-05
2.13081e-05
6.50172e-05
2.59688e-05
8.01254e-05
3.14317e-05
9.8293e-05
0.000120731
3.79776e-05
6.10108e-07
3.30931e-07
1.90039e-06
4.44754e-06
4.08673e-06
9.7267e-06
7.06126e-06
1.73054e-05
1.05849e-05
2.63481e-05
1.45493e-05
3.65078e-05
1.89425e-05
4.76251e-05
2.38689e-05
6.00908e-05
2.94899e-05
7.45045e-05
3.6015e-05
9.17679e-05
0.00011302
4.37263e-05
4.44918e-07
-1.13987e-07
1.5478e-06
3.34466e-06
3.64111e-06
7.63339e-06
6.73665e-06
1.42099e-05
1.06238e-05
2.24609e-05
1.51909e-05
3.19407e-05
2.04037e-05
4.24123e-05
2.63366e-05
5.41578e-05
3.31245e-05
6.77167e-05
4.09707e-05
8.39216e-05
0.000103886
5.01044e-05
2.79799e-07
-3.93786e-07
1.20466e-06
2.41979e-06
3.12703e-06
5.71102e-06
6.21883e-06
1.11181e-05
1.03875e-05
1.82922e-05
1.55409e-05
2.67873e-05
2.16521e-05
3.63011e-05
2.87375e-05
4.70724e-05
3.68943e-05
5.95599e-05
4.63001e-05
7.45158e-05
9.29049e-05
5.72816e-05
1.60832e-07
-5.54618e-07
9.09979e-07
1.67064e-06
2.56286e-06
4.05814e-06
5.48091e-06
8.20005e-06
9.79313e-06
1.398e-05
1.55039e-05
2.10766e-05
2.25232e-05
2.92818e-05
3.08383e-05
3.87573e-05
4.05226e-05
4.98756e-05
5.17294e-05
6.3309e-05
7.98182e-05
6.48162e-05
1.09581e-07
-6.64199e-07
5.91085e-07
1.18914e-06
1.84528e-06
2.80395e-06
4.39944e-06
5.64589e-06
8.66368e-06
9.71576e-06
1.4755e-05
1.49853e-05
2.25973e-05
2.14394e-05
3.21332e-05
2.92215e-05
4.3349e-05
3.86597e-05
5.64439e-05
5.02141e-05
6.44182e-05
7.18439e-05
-3.25673e-07
-3.38526e-07
-1.76422e-07
1.03989e-06
6.99226e-07
1.9283e-06
2.9095e-06
3.43563e-06
7.00431e-06
5.62095e-06
1.32037e-05
8.78586e-06
2.14689e-05
1.31742e-05
3.17562e-05
1.89342e-05
4.42045e-05
2.62114e-05
5.90389e-05
3.53797e-05
4.63746e-05
7.70824e-05
-5.19013e-07
1.80487e-07
-4.99191e-07
1.02007e-06
3.51064e-07
1.07804e-06
2.38368e-06
1.40301e-06
5.94585e-06
2.05878e-06
1.13769e-05
3.35486e-06
1.8922e-05
5.62908e-06
2.88054e-05
9.05086e-06
4.13271e-05
1.36897e-05
5.67603e-05
1.99466e-05
2.83038e-05
7.48311e-05
7.99088e-07
-6.18601e-07
2.87416e-06
-1.05501e-06
5.01704e-06
-1.06484e-06
7.23642e-06
-8.16379e-07
9.83495e-06
-5.39747e-07
1.33518e-05
-1.61967e-07
1.85604e-05
4.20415e-07
2.61621e-05
1.44921e-06
3.66436e-05
3.2081e-06
5.04839e-05
6.10639e-06
1.08541e-05
6.79336e-05
-1.44407e-05
1.69236e-06
-2.54582e-05
-1.04533e-06
-3.44264e-05
-4.09611e-06
-4.20551e-05
-6.8367e-06
-4.93116e-05
-9.25908e-06
-5.69093e-05
-1.1667e-05
-6.53001e-05
-1.44563e-05
-7.48953e-05
-1.78845e-05
-8.61029e-05
-2.22896e-05
-9.93737e-05
-2.81084e-05
-3.59477e-05
-0.000115153
-6.8533e-06
8.54566e-06
-1.37024e-05
5.80374e-06
-2.22787e-05
4.48019e-06
-3.11298e-05
2.01446e-06
-3.99539e-05
-4.35029e-07
-4.89053e-05
-2.71548e-06
-5.85854e-05
-4.77631e-06
-6.95473e-05
-6.92258e-06
-8.22822e-05
-9.55468e-06
-9.72809e-05
-1.31097e-05
-1.80386e-05
-0.00011519
-2.67953e-06
1.12252e-05
-6.50469e-06
9.6289e-06
-1.27902e-05
1.07657e-05
-2.05677e-05
9.79202e-06
-2.95681e-05
8.56536e-06
-3.9478e-05
7.19443e-06
-5.02396e-05
5.98521e-06
-6.21383e-05
4.97612e-06
-7.56315e-05
3.93854e-06
-9.12508e-05
2.50959e-06
2.1574e-07
-0.000109505
-1.69661e-06
1.29218e-05
-4.71366e-06
1.26459e-05
-9.23313e-06
1.52852e-05
-1.51185e-05
1.56774e-05
-2.27014e-05
1.61482e-05
-3.16341e-05
1.61271e-05
-4.19086e-05
1.62597e-05
-5.35801e-05
1.66476e-05
-6.68959e-05
1.72543e-05
-8.22711e-05
1.78848e-05
1.81755e-05
-0.000100231
-1.47555e-06
1.43974e-05
-4.17154e-06
1.53419e-05
-7.65493e-06
1.87685e-05
-1.22816e-05
2.03041e-05
-1.84378e-05
2.23044e-05
-2.61278e-05
2.38171e-05
-3.53288e-05
2.54607e-05
-4.60422e-05
2.7361e-05
-5.8437e-05
2.9649e-05
-7.27737e-05
3.22215e-05
3.48345e-05
-8.94327e-05
-1.29112e-06
1.56885e-05
-3.72357e-06
1.77744e-05
-6.60471e-06
2.16497e-05
-1.03656e-05
2.4065e-05
-1.54049e-05
2.73437e-05
-2.1757e-05
3.01693e-05
-2.96185e-05
3.33222e-05
-3.90105e-05
3.67531e-05
-5.00335e-05
4.0672e-05
-6.2902e-05
4.509e-05
4.98274e-05
-7.78949e-05
-1.08042e-06
1.67689e-05
-3.21187e-06
1.99058e-05
-5.65119e-06
2.4089e-05
-8.75672e-06
2.71705e-05
-1.28844e-05
3.14714e-05
-1.81185e-05
3.54034e-05
-2.46631e-05
3.98669e-05
-3.26157e-05
4.47056e-05
-4.20794e-05
5.01356e-05
-5.32146e-05
5.62252e-05
6.29123e-05
-6.62994e-05
-1.00447e-06
1.77734e-05
-2.83409e-06
2.17354e-05
-4.87772e-06
2.61326e-05
-7.59617e-06
2.9889e-05
-1.08818e-05
3.47571e-05
-1.51115e-05
3.9633e-05
-2.04255e-05
4.51809e-05
-2.69445e-05
5.12246e-05
-3.47909e-05
5.79821e-05
-4.40694e-05
6.55036e-05
7.37777e-05
-5.49348e-05
-8.52141e-07
1.86255e-05
-2.46098e-06
2.33443e-05
-3.97336e-06
2.7645e-05
-6.2336e-06
3.21492e-05
-8.91058e-06
3.7434e-05
-1.23209e-05
4.30433e-05
-1.65485e-05
4.94086e-05
-2.17475e-05
5.64236e-05
-2.80286e-05
6.42632e-05
-3.5507e-05
7.2982e-05
8.25788e-05
-4.4308e-05
-6.56926e-07
1.92824e-05
-1.90791e-06
2.45953e-05
-3.21253e-06
2.89496e-05
-4.93578e-06
3.38725e-05
-6.97996e-06
3.94782e-05
-9.60433e-06
4.56677e-05
-1.28493e-05
5.26535e-05
-1.68361e-05
6.04104e-05
-2.16686e-05
6.90957e-05
-2.74386e-05
7.8752e-05
8.93509e-05
-3.42108e-05
-4.10339e-07
1.96928e-05
-1.22779e-06
2.54127e-05
-2.12355e-06
2.98454e-05
-3.39716e-06
3.51461e-05
-4.86942e-06
4.09505e-05
-6.77364e-06
4.75719e-05
-9.11056e-06
5.49905e-05
-1.19977e-05
6.32976e-05
-1.54947e-05
7.25927e-05
-1.96761e-05
8.29334e-05
9.43189e-05
-2.46441e-05
-2.01921e-07
1.98947e-05
-7.35094e-07
2.59459e-05
-1.25392e-06
3.03642e-05
-2.03901e-06
3.59312e-05
-2.92782e-06
4.18393e-05
-4.1058e-06
4.87499e-05
-5.5499e-06
5.64346e-05
-7.3424e-06
6.50901e-05
-9.5265e-06
7.47768e-05
-1.21494e-05
8.55563e-05
9.73792e-05
-1.52097e-05
4.2851e-08
1.98518e-05
-1.52364e-07
2.61411e-05
-3.01695e-07
3.05135e-05
-5.98175e-07
3.62276e-05
-9.0763e-07
4.21487e-05
-1.36782e-06
4.92101e-05
-1.92853e-06
5.69953e-05
-2.65889e-06
6.58204e-05
-3.55147e-06
7.56694e-05
-4.6536e-06
8.66584e-05
9.86936e-05
-5.96799e-06
3.88204e-07
1.94636e-05
6.04954e-07
2.59244e-05
8.5712e-07
3.02614e-05
1.05633e-06
3.60284e-05
1.32872e-06
4.18764e-05
1.57967e-06
4.89591e-05
1.88196e-06
5.6693e-05
2.20511e-06
6.54973e-05
2.57948e-06
7.5295e-05
3.01851e-06
8.62194e-05
9.81876e-05
3.52456e-06
6.05067e-07
1.88586e-05
1.17776e-06
2.53517e-05
1.85117e-06
2.9588e-05
2.58586e-06
3.52937e-05
3.46425e-06
4.0998e-05
4.48257e-06
4.79408e-05
5.69257e-06
5.5483e-05
7.1253e-06
6.40646e-05
8.83485e-06
7.35854e-05
1.08803e-05
8.41739e-05
9.57214e-05
1.33465e-05
8.56245e-07
1.80023e-05
1.82816e-06
2.43798e-05
2.93337e-06
2.84828e-05
4.22148e-06
3.40056e-05
5.73743e-06
3.9482e-05
7.55207e-06
4.61262e-05
9.71073e-06
5.33243e-05
1.22885e-05
6.14868e-05
1.53755e-05
7.04984e-05
1.90821e-05
8.04673e-05
9.12565e-05
2.3547e-05
1.16487e-06
1.68375e-05
2.56529e-06
2.29793e-05
4.14492e-06
2.69031e-05
6.02602e-06
3.21245e-05
8.21707e-06
3.7291e-05
1.08609e-05
4.34823e-05
1.40103e-05
5.0175e-05
1.7786e-05
5.77111e-05
2.2299e-05
6.59853e-05
2.77099e-05
7.50565e-05
8.47374e-05
3.42289e-05
1.46064e-06
1.53768e-05
3.3083e-06
2.11317e-05
5.39862e-06
2.48128e-05
7.91235e-06
2.96108e-05
1.08321e-05
3.43712e-05
1.43711e-05
3.99433e-05
1.85746e-05
4.59715e-05
2.36081e-05
5.26777e-05
2.96183e-05
5.99751e-05
3.6803e-05
6.78718e-05
7.60937e-05
4.54467e-05
1.76193e-06
1.36149e-05
4.06071e-06
1.88329e-05
6.70452e-06
2.2169e-05
9.89009e-06
2.64252e-05
1.36147e-05
3.06466e-05
1.80992e-05
3.54589e-05
2.34281e-05
4.06425e-05
2.9784e-05
4.63218e-05
3.73277e-05
5.24313e-05
4.63417e-05
5.88578e-05
6.53689e-05
5.70664e-05
2.08516e-06
1.15297e-05
4.85567e-06
1.60624e-05
8.07578e-06
1.89489e-05
1.1983e-05
2.2518e-05
1.65653e-05
2.60643e-05
2.20489e-05
2.99752e-05
2.85501e-05
3.41413e-05
3.62466e-05
3.86254e-05
4.5379e-05
4.32989e-05
5.61963e-05
4.80406e-05
5.24807e-05
6.90845e-05
2.41854e-06
9.11118e-06
5.6338e-06
1.28471e-05
9.45569e-06
1.5127e-05
1.41071e-05
1.78666e-05
1.9579e-05
2.05924e-05
2.60789e-05
2.34753e-05
3.3728e-05
2.64922e-05
4.27645e-05
2.95889e-05
5.34074e-05
3.2656e-05
6.597e-05
3.5478e-05
3.76603e-05
8.07904e-05
2.67965e-06
6.43152e-06
6.3292e-06
9.19758e-06
1.07305e-05
1.07257e-05
1.60855e-05
1.25116e-05
2.24002e-05
1.42777e-05
2.98354e-05
1.60401e-05
3.85443e-05
1.77833e-05
4.87515e-05
1.93816e-05
6.07353e-05
2.06723e-05
7.48123e-05
2.14011e-05
2.11277e-05
9.13448e-05
3.23293e-06
3.1986e-06
7.23594e-06
5.19457e-06
1.20314e-05
5.9303e-06
1.78419e-05
6.70106e-06
2.47086e-05
7.41104e-06
3.27467e-05
8.00196e-06
4.21802e-05
8.3498e-06
5.32272e-05
8.33458e-06
6.61707e-05
7.72872e-06
8.1262e-05
6.30983e-06
3.85722e-06
9.85325e-05
2.58e-06
6.71956e-06
1.1585e-05
1.74697e-05
2.4341e-05
3.2181e-05
4.09512e-05
5.0735e-05
6.16718e-05
7.4088e-05
8.87993e-05
2.46806e-06
8.55349e-06
-1.10215e-05
3.55408e-06
9.43922e-06
-1.05252e-05
2.89013e-06
1.24873e-05
-1.18234e-05
1.06811e-06
1.55911e-05
-1.37691e-05
-1.64048e-06
1.87055e-05
-1.59969e-05
-5.11468e-06
2.19686e-05
-1.84944e-05
-9.18932e-06
2.56014e-05
-2.15268e-05
-1.37112e-05
2.99987e-05
-2.54768e-05
-1.879e-05
3.59332e-05
-3.08545e-05
-2.47175e-05
4.41504e-05
-3.82229e-05
5.53866e-05
-4.82438e-05
-3.18603e-05
3.96506e-06
4.58842e-06
6.353e-06
7.05128e-06
7.79345e-06
1.10469e-05
8.18932e-06
1.51952e-05
7.33766e-06
1.95572e-05
5.13335e-06
2.41729e-05
1.71372e-06
2.9021e-05
-2.61318e-06
3.43256e-05
-7.57314e-06
4.08932e-05
-1.32508e-05
4.9828e-05
6.2176e-05
-2.00401e-05
2.936e-06
1.65243e-06
5.17408e-06
4.8132e-06
7.23665e-06
8.98431e-06
8.80652e-06
1.36254e-05
9.50397e-06
1.88597e-05
9.02968e-06
2.46472e-05
7.28081e-06
3.07699e-05
4.36316e-06
3.72432e-05
6.27824e-07
4.46285e-05
-3.66446e-06
5.41203e-05
6.71496e-05
-8.63808e-06
1.79951e-06
-1.47087e-07
3.89821e-06
2.71451e-06
6.12419e-06
6.75833e-06
8.11809e-06
1.16315e-05
9.61401e-06
1.73638e-05
1.03841e-05
2.3877e-05
1.01726e-05
3.09814e-05
8.87943e-06
3.85364e-05
6.71543e-06
4.67925e-05
4.07932e-06
5.67564e-05
7.00249e-05
1.20401e-06
8.81406e-07
-1.02849e-06
2.66665e-06
9.29264e-07
4.80553e-06
4.61945e-06
6.96668e-06
9.47031e-06
8.93765e-06
1.53928e-05
1.04993e-05
2.23154e-05
1.14165e-05
3.00643e-05
1.15222e-05
3.84307e-05
1.08721e-05
4.74426e-05
9.8067e-06
5.78218e-05
7.11018e-05
8.72975e-06
2.49732e-07
-1.27822e-06
1.4829e-06
-3.03902e-07
3.40742e-06
2.69493e-06
5.59986e-06
7.27787e-06
7.80708e-06
1.31856e-05
9.85179e-06
2.02707e-05
1.15473e-05
2.83688e-05
1.27133e-05
3.72647e-05
1.33201e-05
4.68358e-05
1.36056e-05
5.75363e-05
7.07093e-05
1.39982e-05
7.24295e-08
-1.35065e-06
6.30246e-07
-8.61719e-07
2.05848e-06
1.26669e-06
4.04811e-06
5.28824e-06
6.27109e-06
1.09626e-05
8.55261e-06
1.79891e-05
1.07327e-05
2.61887e-05
1.26618e-05
3.53356e-05
1.42647e-05
4.52329e-05
1.56783e-05
5.61227e-05
6.91537e-05
1.72338e-05
-9.40146e-08
-1.25664e-06
-4.14688e-09
-9.51587e-07
8.35679e-07
4.26866e-07
2.44755e-06
3.67637e-06
4.46969e-06
8.94049e-06
6.75822e-06
1.57006e-05
9.18493e-06
2.37619e-05
1.16244e-05
3.28962e-05
1.39958e-05
4.28615e-05
1.63663e-05
5.37522e-05
6.65038e-05
1.90163e-05
-1.91215e-07
-1.06542e-06
-3.01498e-07
-8.41304e-07
-3.41035e-08
1.59472e-07
1.02212e-06
2.62014e-06
2.72532e-06
7.23729e-06
4.84715e-06
1.35788e-05
7.31699e-06
2.12921e-05
1.00454e-05
3.01678e-05
1.296e-05
3.99468e-05
1.60619e-05
5.06504e-05
6.30744e-05
1.94913e-05
-2.59226e-07
-8.06199e-07
-4.87471e-07
-6.13058e-07
-5.78971e-07
2.50972e-07
-5.74576e-08
2.09863e-06
1.28844e-06
5.89139e-06
3.15435e-06
1.17129e-05
5.53091e-06
1.89155e-05
8.37765e-06
2.73211e-05
1.16344e-05
3.66901e-05
1.52625e-05
4.70222e-05
5.90493e-05
1.92876e-05
-2.83929e-07
-5.2227e-07
-5.84799e-07
-3.12188e-07
-8.07136e-07
4.73309e-07
-7.01041e-07
1.99253e-06
1.8356e-07
5.00679e-06
1.77421e-06
1.01222e-05
3.97882e-06
1.67109e-05
6.84141e-06
2.44585e-05
1.03178e-05
3.32137e-05
1.43283e-05
4.30118e-05
5.45235e-05
1.8854e-05
-2.70665e-07
-2.51605e-07
-6.03218e-07
2.0366e-08
-8.86662e-07
7.56752e-07
-9.67957e-07
2.07383e-06
-5.10155e-07
4.54899e-06
7.71432e-07
8.84063e-06
2.79422e-06
1.46881e-05
5.62672e-06
2.1626e-05
9.24025e-06
2.96001e-05
1.35247e-05
3.87274e-05
4.97102e-05
1.8338e-05
-2.34228e-07
-1.7377e-08
-5.44284e-07
3.30422e-07
-8.18143e-07
1.03061e-06
-9.56628e-07
2.21231e-06