/*--------------------------------*- C++ -*----------------------------------*\
| =========                 |                                                 |
| \\      /  F ield         | OpenFOAM: The Open Source CFD Toolbox           |
|  \\    /   O peration     | Version:  3.0.1                                 |
|   \\  /    A nd           | Web:      www.OpenFOAM.org                      |
|    \\/     M anipulation  |                                                 |
\*---------------------------------------------------------------------------*/
FoamFile
{
    version     2.0;
    format      ascii;
    class       volScalarField;
    location    "0.277449";
    object      nut;
}
// * * * * * * * * * * * * * * * * * * * * * * * * * * * * * * * * * * * * * //

dimensions      [0 2 -1 0 0 0 0];

internalField   nonuniform List<scalar> 
21246
(
4.50187e-05
0.000285734
0.000414284
0.000474125
0.000493686
0.000502802
0.000513875
0.000523456
0.000520911
0.000497654
0.000450646
3.15259e-05
0.000243092
0.000403805
0.000481424
0.000505759
0.000509413
0.000511024
0.000513259
0.000509147
0.000488582
0.00044505
2.61357e-05
0.000214168
0.000380203
0.000477182
0.000513692
0.000519664
0.000517793
0.000515289
0.000508377
0.000488668
0.000447521
2.47575e-05
0.000199633
0.000362455
0.000469627
0.000517482
0.000528602
0.000527171
0.000523905
0.000516443
0.000496793
0.000455221
2.44011e-05
0.000181435
0.000344063
0.000461957
0.000521104
0.000537503
0.000534672
0.000526521
0.000512773
0.000488391
0.000448334
2.47376e-05
0.000171157
0.00032366
0.000441622
0.00050974
0.000535656
0.000538337
0.000533583
0.000524229
0.00050532
0.000469034
2.54057e-05
0.000165686
0.000311205
0.00042317
0.000490687
0.000521513
0.00053158
0.000533361
0.000528117
0.00051038
0.000472227
2.62939e-05
0.000161527
0.000301507
0.000407949
0.000473877
0.000507285
0.000522405
0.000529694
0.000529611
0.000517241
0.000485043
2.71202e-05
0.000157829
0.000293092
0.000394727
0.000458523
0.000493209
0.000512217
0.000524642
0.000529753
0.000521114
0.00048881
2.77223e-05
0.000153524
0.000284816
0.000382846
0.000445014
0.000480686
0.000502853
0.000519543
0.000528535
0.000521095
0.000485498
2.82202e-05
0.000148985
0.000276832
0.000372194
0.00043336
0.000470062
0.000494928
0.000515096
0.000527203
0.000522136
0.000491994
2.86473e-05
0.000144997
0.000269847
0.000363004
0.000423499
0.000461285
0.000488599
0.000511845
0.00052686
0.000524172
0.000495153
2.8873e-05
0.000140948
0.000263314
0.000354889
0.000415225
0.00045433
0.000484066
0.000510263
0.000528083
0.000527007
0.00049572
2.8884e-05
0.000136093
0.000256362
0.000347243
0.000408195
0.000449061
0.000481342
0.000510426
0.000530804
0.000531154
0.000501564
2.8673e-05
0.000131167
0.000249523
0.000340159
0.000402222
0.000445214
0.000480195
0.000512135
0.000534823
0.000535689
0.000502312
2.82016e-05
0.00012574
0.000242361
0.000333254
0.000397031
0.000442622
0.000480539
0.000515383
0.000540298
0.000541458
0.000505548
2.74935e-05
0.000119083
0.000233903
0.000325759
0.00039211
0.000440976
0.000482191
0.000520107
0.000547407
0.000549063
0.000511482
2.64264e-05
0.000110857
0.000223309
0.000317004
0.000386726
0.000439541
0.00048443
0.000525665
0.000555884
0.000558847
0.0005189
2.49921e-05
0.000100264
0.000208701
0.00030358
0.000377071
0.00043414
0.000482725
0.0005276
0.000562278
0.000569203
0.000530691
2.31525e-05
8.71699e-05
0.000189141
0.000284514
0.000361418
0.000421543
0.000470663
0.000513643
0.000546733
0.000555141
0.000523843
2.08343e-05
7.20727e-05
0.000164093
0.000258341
0.00033821
0.000400638
0.000448082
0.000484525
0.000509384
0.000513646
0.000489463
1.80177e-05
5.52714e-05
0.000134811
0.000224906
0.000306304
0.0003703
0.00041542
0.000444028
0.000457723
0.000453479
0.000430115
1.45143e-05
4.08931e-05
0.000104436
0.000186837
0.000265738
0.000328489
0.000370878
0.000393709
0.000399225
0.000388167
0.000362987
1.05464e-05
4.12372e-05
9.2736e-05
0.000153027
0.00020916
0.000257627
0.000292894
0.000312847
0.000317806
0.000308809
0.00028876
4.02654e-05
0.000150273
0.000230775
0.000306383
0.000374415
0.000458308
0.00051878
0.000562046
0.000565343
0.000536875
0.000487063
2.72541e-05
7.89802e-05
0.000137802
0.000193441
0.00024377
0.000282043
0.000320263
0.00043691
0.000587926
0.000594163
0.000530147
2.00118e-05
6.2471e-05
0.000102846
0.000144015
0.000183485
0.000213713
0.000235254
0.000273046
0.000407452
0.000614611
0.000589462
2.10978e-05
7.90444e-05
0.000101498
0.000125391
0.000152831
0.000176965
0.000193283
0.000208239
0.000256953
0.000425468
0.000633909
2.49283e-05
0.000131901
0.000151139
0.000145948
0.000150263
0.0001608
0.000170248
0.000176665
0.000193694
0.000265794
0.000471313
2.80375e-05
0.000158381
0.000263128
0.000232929
0.000193677
0.00017267
0.000164622
0.00016131
0.000164142
0.000193166
0.000304444
3.09727e-05
0.000169795
0.000323323
0.000372538
0.000300012
0.000228166
0.000184386
0.000161393
0.00015135
0.000159372
0.000215422
3.38466e-05
0.000178572
0.000363645
0.000482732
0.00045008
0.000339261
0.000241641
0.00018256
0.0001524
0.000144494
0.000171159
3.64126e-05
0.000184325
0.000385909
0.00054446
0.000605264
0.000497455
0.000344574
0.000231828
0.000169177
0.000142372
0.000149265
3.86313e-05
0.000188902
0.000398118
0.000574397
0.000681232
0.000643103
0.00047731
0.000309313
0.000203014
0.000151294
0.000140683
4.0457e-05
0.000194464
0.000403781
0.000581803
0.000708896
0.000745351
0.000608547
0.000403439
0.000250626
0.000169391
0.000141162
4.20148e-05
0.000197801
0.000402958
0.000572014
0.0007007
0.000775142
0.000700967
0.000491354
0.00030193
0.00019237
0.00014753
4.32244e-05
0.000203485
0.000400459
0.000551483
0.000667065
0.00075364
0.000739036
0.000550903
0.000343234
0.000213885
0.000156512
4.40798e-05
0.000208643
0.000394393
0.000524328
0.000617391
0.000698276
0.000723668
0.000570014
0.000363489
0.000228061
0.000165475
4.45543e-05
0.000210956
0.000384525
0.000493331
0.000559277
0.000617294
0.000656487
0.000549852
0.000357945
0.000232108
0.000173407
4.44668e-05
0.000212292
0.000373106
0.000462025
0.000501489
0.000529803
0.000546827
0.000503278
0.000338473
0.000228678
0.000181182
4.38194e-05
0.000212932
0.000361004
0.000432504
0.000449294
0.000452487
0.000450707
0.000423382
0.000323274
0.000227432
0.000192128
4.25592e-05
0.000213923
0.000351291
0.000409835
0.00041181
0.000400086
0.000389091
0.000368259
0.000313876
0.00024509
0.000215046
4.06707e-05
0.000217252
0.000348442
0.000399757
0.000397121
0.000383299
0.000375324
0.000364719
0.000337407
0.000296899
0.000261921
3.81884e-05
0.000225934
0.00035858
0.000407296
0.000404357
0.000392076
0.000388986
0.000389564
0.00038535
0.000368857
0.000315727
3.49997e-05
0.00023539
0.000356063
0.000383267
0.000363072
0.000332955
0.000295946
0.000279277
0.000271316
0.000254475
0.000209378
2.8928e-05
0.000211304
0.00030347
0.000321356
0.000273964
0.000174756
0.000147194
0.000130657
0.000119431
0.000108463
9.66665e-05
1.76526e-05
9.58811e-05
0.000118885
0.000103637
8.35962e-05
7.23906e-05
6.922e-05
7.02489e-05
7.3112e-05
7.56682e-05
7.62957e-05
8.17095e-06
1.0207e-05
1.46593e-05
2.18098e-05
3.30948e-05
4.90405e-05
6.84988e-05
8.85637e-05
0.000105805
0.000117389
0.000122192
2.51175e-05
5.46645e-05
4.98984e-05
4.87076e-05
4.29854e-05
3.71814e-05
3.40832e-05
3.26792e-05
3.2134e-05
3.20973e-05
3.25072e-05
2.212e-05
6.11617e-05
4.62705e-05
5.09508e-05
4.4371e-05
3.78919e-05
3.39776e-05
3.2185e-05
3.15393e-05
3.16152e-05
3.23155e-05
2.2989e-05
6.10079e-05
4.34547e-05
5.31842e-05
4.49434e-05
3.86466e-05
3.40386e-05
3.19183e-05
3.11805e-05
3.14346e-05
3.27741e-05
2.55712e-05
5.67276e-05
4.22777e-05
5.34921e-05
4.46276e-05
3.91372e-05
3.39691e-05
3.16485e-05
3.08519e-05
3.12938e-05
3.32521e-05
2.84789e-05
5.3089e-05
4.14032e-05
5.20009e-05
4.41985e-05
3.92475e-05
3.37024e-05
3.12991e-05
3.04367e-05
3.09795e-05
3.31934e-05
3.10242e-05
5.10737e-05
4.06337e-05
5.02058e-05
4.39368e-05
3.90432e-05
3.33026e-05
3.08657e-05
2.99149e-05
3.04588e-05
3.26984e-05
3.32013e-05
5.03003e-05
3.93651e-05
4.86388e-05
4.3867e-05
3.86743e-05
3.28781e-05
3.03744e-05
2.93068e-05
2.97829e-05
3.20312e-05
3.5039e-05
5.06966e-05
3.81001e-05
4.62405e-05
4.38877e-05
3.82684e-05
3.25014e-05
2.98483e-05
2.86427e-05
2.89827e-05
3.10305e-05
3.63218e-05
5.20016e-05
3.71903e-05
4.29841e-05
4.28985e-05
3.7906e-05
3.22245e-05
2.93233e-05
2.79615e-05
2.81059e-05
2.98985e-05
3.69512e-05
5.36426e-05
3.67916e-05
3.88545e-05
3.97338e-05
3.70369e-05
3.2048e-05
2.88734e-05
2.7308e-05
2.71926e-05
2.86435e-05
3.70518e-05
5.5898e-05
3.74915e-05
3.52644e-05
3.51878e-05
3.48799e-05
3.16262e-05
2.84784e-05
2.67292e-05
2.63043e-05
2.7322e-05
3.6625e-05
5.91381e-05
3.93998e-05
3.32049e-05
3.10508e-05
3.14477e-05
3.04417e-05
2.79986e-05
2.6211e-05
2.5493e-05
2.60732e-05
3.56068e-05
6.31707e-05
4.25555e-05
3.26404e-05
2.79925e-05
2.74398e-05
2.7989e-05
2.70468e-05
2.56542e-05
2.47616e-05
2.49313e-05
3.41162e-05
6.77479e-05
4.72111e-05
3.37119e-05
2.63722e-05
2.38961e-05
2.43829e-05
2.50006e-05
2.47192e-05
2.40238e-05
2.39036e-05
3.22101e-05
7.34812e-05
5.35711e-05
3.66521e-05
2.65226e-05
2.18279e-05
2.09182e-05
2.18376e-05
2.2854e-05
2.29761e-05
2.29036e-05
3.01025e-05
8.04805e-05
6.21122e-05
4.18152e-05
2.8573e-05
2.14721e-05
1.8636e-05
1.85087e-05
1.98574e-05
2.10676e-05
2.16157e-05
2.81499e-05
8.86318e-05
7.35641e-05
5.00342e-05
3.30516e-05
2.30916e-05
1.80487e-05
1.61927e-05
1.65603e-05
1.80327e-05
1.94561e-05
2.65611e-05
9.87304e-05
8.8921e-05
6.2528e-05
4.09448e-05
2.73088e-05
1.95953e-05
1.56797e-05
1.43572e-05
1.48141e-05
1.62587e-05
2.54449e-05
0.000110609
0.000109116
8.13133e-05
5.4184e-05
3.55147e-05
2.41406e-05
1.75919e-05
1.4198e-05
1.29437e-05
1.32095e-05
2.432e-05
0.00012236
0.000133388
0.000108531
7.60371e-05
5.06185e-05
3.38284e-05
2.3366e-05
1.71132e-05
1.36347e-05
1.20628e-05
2.22884e-05
0.00012955
0.000157198
0.000143624
0.000110239
7.77455e-05
5.33482e-05
3.66774e-05
2.57497e-05
1.87899e-05
1.45493e-05
1.92646e-05
0.00013143
0.000174715
0.000179693
0.000156222
0.000122324
9.05996e-05
6.53981e-05
4.68237e-05
3.3676e-05
2.46069e-05
1.4402e-05
0.000114546
0.000165404
0.000188991
0.000189019
0.000170988
0.000143692
0.00011495
8.90776e-05
6.78527e-05
5.10844e-05
1.15579e-05
8.94622e-05
0.000124339
0.000150702
0.000162689
0.000163286
0.000155123
0.000140854
0.000123264
0.000104859
8.69998e-05
2.09362e-05
5.30299e-05
4.84432e-05
4.80061e-05
4.25234e-05
3.72927e-05
3.47221e-05
3.36143e-05
3.31958e-05
3.31344e-05
3.33134e-05
1.67192e-05
4.50241e-05
4.79178e-05
5.09547e-05
4.52088e-05
3.97152e-05
3.66683e-05
3.53766e-05
3.49684e-05
3.50171e-05
3.53013e-05
1.75474e-05
4.26911e-05
4.30987e-05
5.26963e-05
4.74678e-05
4.22559e-05
3.92736e-05
3.80246e-05
3.76762e-05
3.77752e-05
3.81341e-05
2.0178e-05
3.89995e-05
4.10215e-05
5.35311e-05
4.8198e-05
4.33698e-05
4.05818e-05
3.97302e-05
3.99953e-05
4.08846e-05
4.21336e-05
2.3339e-05
3.50626e-05
4.02715e-05
5.29493e-05
4.80775e-05
4.3894e-05
4.1366e-05
4.09066e-05
4.17229e-05
4.33961e-05
4.5718e-05
2.64276e-05
3.20503e-05
3.98177e-05
5.16629e-05
4.76506e-05
4.41281e-05
4.18609e-05
4.17548e-05
4.30538e-05
4.54917e-05
4.90131e-05
2.9334e-05
2.99266e-05
3.93399e-05
5.02641e-05
4.71746e-05
4.42335e-05
4.22018e-05
4.24189e-05
4.40995e-05
4.71425e-05
5.16284e-05
3.20678e-05
2.83964e-05
3.88049e-05
4.90011e-05
4.67454e-05
4.42506e-05
4.24876e-05
4.29903e-05
4.49706e-05
4.84539e-05
5.36106e-05
3.44815e-05
2.72578e-05
3.82484e-05
4.79688e-05
4.6476e-05
4.42373e-05
4.27825e-05
4.35346e-05
4.57927e-05
4.96878e-05
5.55402e-05
3.65674e-05
2.64056e-05
3.77482e-05
4.71787e-05
4.63919e-05
4.42837e-05
4.31243e-05
4.41054e-05
4.66602e-05
5.10125e-05
5.75562e-05
3.83309e-05
2.57851e-05
3.73035e-05
4.66536e-05
4.64765e-05
4.44531e-05
4.35428e-05
4.47368e-05
4.76113e-05
5.24537e-05
5.94752e-05
3.98234e-05
2.53055e-05
3.68902e-05
4.63366e-05
4.6727e-05
4.47666e-05
4.40623e-05
4.54494e-05
4.86563e-05
5.4061e-05
6.20299e-05
4.08854e-05
2.46625e-05
3.62371e-05
4.6055e-05
4.71628e-05
4.52352e-05
4.47068e-05
4.62345e-05
4.97517e-05
5.57026e-05
6.47049e-05
4.1458e-05
2.36028e-05
3.35747e-05
4.46594e-05
4.7259e-05
4.57873e-05
4.55332e-05
4.71776e-05
5.09939e-05
5.74355e-05
6.7332e-05
4.14815e-05
2.26429e-05
2.9945e-05
4.18972e-05
4.66909e-05
4.62694e-05
4.64772e-05
4.82579e-05
5.23282e-05
5.91391e-05
6.96309e-05
4.09128e-05
2.18607e-05
2.59663e-05
3.7451e-05
4.4788e-05
4.62611e-05
4.73357e-05
4.9387e-05
5.36569e-05
6.06661e-05
7.13447e-05
3.97376e-05
2.12902e-05
2.22949e-05
3.16092e-05
4.07002e-05
4.485e-05
4.7528e-05
5.02582e-05
5.478e-05
6.1833e-05
7.22844e-05
3.78524e-05
2.0915e-05
1.9442e-05
2.55806e-05
3.43364e-05
4.08113e-05
4.57707e-05
4.99519e-05
5.5102e-05
6.22412e-05
7.22059e-05
3.51996e-05
2.05985e-05
1.74849e-05
2.05233e-05
2.69979e-05
3.37853e-05
4.03904e-05
4.64807e-05
5.29181e-05
6.05858e-05
7.02356e-05
3.17295e-05
2.01219e-05
1.62447e-05
1.68966e-05
2.05005e-05
2.5475e-05
3.14371e-05
3.80116e-05
4.53216e-05
5.36721e-05
6.33712e-05
2.73902e-05
1.91703e-05
1.54104e-05
1.45887e-05
1.58569e-05
1.84059e-05
2.20288e-05
2.66529e-05
3.23783e-05
3.93624e-05
4.766e-05
2.21745e-05
1.73228e-05
1.4479e-05
1.31172e-05
1.29808e-05
1.37027e-05
1.51388e-05
1.72569e-05
2.01137e-05
2.38033e-05
2.8367e-05
1.61244e-05
1.39836e-05
1.25598e-05
1.15185e-05
1.09433e-05
1.07766e-05
1.09745e-05
1.15191e-05
1.24148e-05
1.36757e-05
1.52837e-05
9.06625e-06
1.11271e-05
1.23859e-05
1.33932e-05
1.47112e-05
1.68868e-05
2.01985e-05
2.44744e-05
2.95015e-05
3.49365e-05
4.02894e-05
4.7092e-05
0.000279998
0.000405717
0.000533437
0.000628906
0.000696588
0.000705147
0.000650774
0.000569705
0.000489465
0.000413165
3.66309e-05
0.000161532
0.000248845
0.000360319
0.000496015
0.000646448
0.000719377
0.000684839
0.000598342
0.000506885
0.000418689
3.2767e-05
0.00011301
0.000192387
0.000275221
0.000372459
0.000497967
0.000664441
0.000705314
0.000632904
0.000533383
0.000431258
3.07434e-05
9.07711e-05
0.000161094
0.000229663
0.000304826
0.000394762
0.000526591
0.000664226
0.000660931
0.000568246
0.00046042
2.83713e-05
8.21816e-05
0.000141904
0.000200699
0.000261955
0.000328245
0.000417848
0.000546905
0.000640884
0.000603274
0.000503266
2.50971e-05
7.92822e-05
0.00013008
0.000180942
0.000232088
0.000282743
0.000342435
0.000432125
0.000548136
0.000602151
0.000548083
2.14101e-05
8.03123e-05
0.000124454
0.000168147
0.000211394
0.000251725
0.000292904
0.000349542
0.000438768
0.000538257
0.000564296
1.96016e-05
8.99603e-05
0.000128148
0.00016351
0.000199148
0.000231899
0.000261921
0.000297545
0.000354851
0.000444652
0.000528593
2.06999e-05
0.000112608
0.000145281
0.000170121
0.000196422
0.000221653
0.000243885
0.000266821
0.000301344
0.00036355
0.000454432
2.0787e-05
0.000137924
0.000173304
0.000189988
0.000205236
0.000221173
0.000236025
0.000250453
0.000270549
0.000308855
0.000378517
1.94409e-05
0.000150073
0.000200646
0.000219399
0.000226201
0.000231537
0.000237893
0.000245122
0.000255812
0.000277725
0.000323049
1.79187e-05
0.000151378
0.000220875
0.00024864
0.000255089
0.000251952
0.000249174
0.000249182
0.000252886
0.000264071
0.000290736
1.64792e-05
0.00014619
0.000228649
0.000266755
0.000282426
0.00027781
0.000267842
0.000260964
0.000258905
0.000262873
0.000276677
1.53093e-05
0.000136665
0.000221578
0.000269838
0.000298755
0.000301635
0.000289676
0.000277939
0.000271447
0.000270497
0.000275499
1.4416e-05
0.00012746
0.000206831
0.000260709
0.000300318
0.000316532
0.000309173
0.000296435
0.000287716
0.000283724
0.000282593
1.36109e-05
0.000120637
0.000193081
0.000243372
0.000287956
0.00031826
0.000321115
0.000312127
0.000304234
0.000299084
0.000293141
1.27181e-05
0.00011413
0.000181047
0.000226053
0.000266886
0.000304894
0.000321975
0.00032096
0.000317166
0.000312697
0.000302828
1.16774e-05
0.000106925
0.000169673
0.000211187
0.000246323
0.000281488
0.000310711
0.000321046
0.000324329
0.000322738
0.000311043
1.05873e-05
9.87936e-05
0.000159316
0.000200068
0.000230246
0.00025993
0.000291401
0.000315731
0.000329034
0.000334837
0.00032597
9.57531e-06
8.97663e-05
0.000149788
0.000192382
0.000220222
0.000245427
0.000274815
0.000309405
0.00033379
0.000350256
0.000349381
8.51202e-06
7.88861e-05
0.000136763
0.000181549
0.000209564
0.00023215
0.000257946
0.000290363
0.000313236
0.000326914
0.000323505
7.11157e-06
6.47168e-05
0.000113929
0.000156534
0.000183925
0.000204085
0.000222743
0.000241421
0.000253113
0.000260715
0.000263887
5.65137e-06
4.51568e-05
7.57899e-05
0.000109075
0.000134158
0.000154064
0.000171206
0.000188151
0.000207689
0.000236331
0.000272457
5.15684e-06
9.58061e-06
1.57758e-05
3.28565e-05
6.00405e-05
9.4132e-05
0.000133598
0.00018013
0.00023572
0.000296191
0.000346124
4.26161e-05
0.000295975
0.000447912
0.000544452
0.000622972
0.000677657
0.000680007
0.000628665
0.000556134
0.000484434
0.000415534
2.67391e-05
0.000218595
0.000388263
0.000515066
0.000606432
0.000668135
0.000678822
0.000634714
0.000565994
0.000496969
0.000431484
2.46299e-05
0.000171668
0.000336327
0.000490953
0.000598021
0.00066458
0.000682957
0.000647162
0.000582422
0.000514976
0.000450396
2.57874e-05
0.00015474
0.000306346
0.000465588
0.000580981
0.000653849
0.000681339
0.000657076
0.000599168
0.000535728
0.000474684
2.78923e-05
0.000147689
0.000293675
0.000447703
0.000561234
0.000629043
0.000652021
0.000637679
0.000598648
0.000548635
0.00049637
2.99814e-05
0.000144726
0.000289577
0.000439154
0.000549804
0.000612372
0.000627418
0.000609198
0.000575533
0.000537318
0.000498446
3.18592e-05
0.000143537
0.000289094
0.000435839
0.000545729
0.00060654
0.000616059
0.000591597
0.000555541
0.000518747
0.000482864
3.35839e-05
0.00014355
0.000290834
0.000436611
0.000547784
0.000609769
0.000617458
0.000588392
0.000546429
0.000503468
0.000461765
3.49243e-05
0.000143746
0.000293165
0.000439585
0.000553925
0.000620038
0.000630323
0.000600944
0.00055445
0.000502314
0.000447964
3.58111e-05
0.000143576
0.000294501
0.000442283
0.000561294
0.000634019
0.000651216
0.000626966
0.000581069
0.000522519
0.000453579
3.61772e-05
0.000141302
0.00029281
0.000441653
0.000566125
0.000647172
0.000674847
0.000660886
0.000622638
0.000566821
0.000494412
3.60945e-05
0.000136962
0.000286881
0.000435616
0.00056463
0.000654523
0.000694719
0.000694589
0.000669701
0.000625456
0.000558891
3.54875e-05
0.000129117
0.000274093
0.000420117
0.000551228
0.000649105
0.000702892
0.000718785
0.000710237
0.000683225
0.000634987
3.43546e-05
0.000118544
0.000254709
0.0003951
0.000525188
0.000628572
0.000694676
0.000726186
0.00073337
0.000722741
0.000694811
3.26434e-05
0.00010719
0.000231809
0.000363998
0.000490146
0.00059604
0.000671638
0.000716609
0.000737498
0.000740047
0.000727085
3.03648e-05
9.55127e-05
0.00020715
0.000329367
0.000449359
0.000554824
0.000636491
0.000691861
0.000723995
0.000736832
0.000734262
2.75976e-05
8.39743e-05
0.0001824
0.000293822
0.000406208
0.000508814
0.000593245
0.000655705
0.00069644
0.000717049
0.000721705
2.44294e-05
7.31586e-05
0.000159219
0.000259949
0.000364054
0.000462067
0.000546545
0.00061309
0.000659828
0.00068602
0.00069491
2.103e-05
6.31266e-05
0.000138174
0.000228906
0.000324719
0.000417222
0.00049998
0.000568348
0.000618888
0.000649051
0.000660055
1.7581e-05
5.33691e-05
0.000118393
0.000199722
0.000287464
0.000374182
0.000454386
0.000523315
0.000576224
0.000609448
0.000621621
1.41911e-05
4.31154e-05
9.78805e-05
0.000169471
0.000248839
0.000329495
0.000406843
0.000476104
0.000531303
0.000567424
0.000581586
1.08965e-05
3.1976e-05
7.48575e-05
0.000134486
0.000203536
0.000276751
0.000350705
0.000420991
0.00048022
0.000520652
0.000537903
7.65571e-06
1.99845e-05
4.83879e-05
9.17281e-05
0.000146117
0.000208725
0.000277886
0.00035013
0.000416769
0.000465819
0.000488831
4.59939e-06
1.05227e-05
2.56371e-05
5.14609e-05
8.87919e-05
0.000137681
0.000198064
0.000267836
0.000339237
0.000398479
0.000432155
1.50828e-05
1.64571e-05
1.73295e-05
1.7991e-05
1.82527e-05
1.77623e-05
1.76943e-05
1.77038e-05
1.75724e-05
5.63675e-05
8.05172e-05
0.000108122
0.000126818
0.000143252
0.00015107
0.000138045
0.000123753
0.000107653
0.000115322
0.000161279
0.000204723
0.000234668
0.000260136
0.000267932
0.000248411
0.000227409
0.000202836
0.000170162
0.000233146
0.000285312
0.000315477
0.000336996
0.000339741
0.000316207
0.00029688
0.000274885
1.2596e-05
8.19731e-06
6.92444e-06
6.65635e-06
6.91561e-06
1.06029e-05
1.41092e-05
1.59214e-05
1.69648e-05
3.76768e-05
2.90665e-05
2.57151e-05
2.66439e-05
2.47034e-05
2.93052e-05
3.86001e-05
5.69863e-05
8.22793e-05
7.36019e-05
4.95004e-05
3.93154e-05
4.09192e-05
4.28006e-05
5.42768e-05
7.70028e-05
0.000116343
0.000164538
0.000109661
7.02649e-05
5.23883e-05
5.54804e-05
6.22516e-05
7.98062e-05
0.000114363
0.000170669
0.000234826
0.000195688
0.000229712
0.000229768
0.000253538
0.000333822
0.000229159
8.73687e-05
0.000229708
0.000229208
0.000233887
0.000328838
0.000229749
0.000170825
0.000227233
0.000123841
0.000228731
0.000220907
0.00024098
0.000228736
0.000228598
0.000229362
3.11507e-05
0.000229968
0.000108739
0.000229295
0.000227303
0.000176566
8.60441e-05
0.000377991
0.000294538
0.000218988
0.000235309
0.000208541
0.000229478
0.000240761
0.000229663
0.00010962
0.000229285
0.000190896
0.000229062
2.04599e-05
0.000229519
8.20504e-05
0.000229951
0.000471281
4.86241e-05
6.92124e-05
8.39135e-05
0.000239416
0.000230018
0.000263705
0.00022906
0.000125424
8.33839e-05
0.000229805
0.000229167
3.13551e-05
0.00022905
0.000393345
9.97105e-05
2.89581e-05
0.000117039
0.000427844
0.000493779
2.92294e-05
0.000228612
0.000206542
0.00023275
0.000229705
0.000233425
0.000190798
0.000233771
0.000109716
0.000243082
0.000268858
0.000231788
1.84065e-05
0.000229744
0.000247118
0.000391999
0.000191901
0.000478309
0.000229261
0.000229806
0.000247349
0.000110152
0.00043154
9.93624e-05
7.74407e-05
0.000111185
0.000229514
0.000229057
2.41117e-05
0.0002351
0.000405437
0.000127191
0.000203649
0.00023684
6.01202e-05
0.00023603
0.000251898
9.95386e-05
0.000230155
0.000235127
8.39218e-05
0.000229622
0.000201905
0.000229876
0.000183166
0.000234879
0.000229425
0.000229576
0.000231329
0.000255707
0.000120588
0.000229001
0.000229113
0.000228975
0.000229461
0.000229137
0.000224461
0.000241074
0.000253239
0.000220936
4.9172e-05
0.000212313
0.000172573
0.000193502
0.00022573
0.000211025
0.00022918
0.00010196
8.72538e-05
0.00023227
0.000229756
0.000236879
2.02069e-05
0.000408678
0.00030643
0.000244095
7.73938e-05
0.00023084
0.000242808
0.00016755
0.000229152
4.95001e-05
0.000136717
0.000232035
0.000235435
0.000229215
0.000229577
0.000229169
4.91074e-05
0.00024033
0.000289545
7.23895e-05
0.000115604
2.48471e-05
0.000173958
0.000228944
0.000213954
5.316e-05
0.000233205
0.000229064
0.000229348
0.00016234
0.000117946
0.000235603
0.000233994
2.94353e-05
0.000225383
0.000170148
0.000225593
0.000229311
0.000234593
0.000219379
0.000163816
4.5447e-05
0.000475845
0.000198605
0.000231449
2.51124e-05
0.000229945
0.000109758
0.000229485
0.000449924
0.000229766
0.000228953
0.000229674
0.000253931
0.000185438
0.000228063
0.000228589
2.06028e-05
0.000229739
0.000229084
0.000229639
5.60821e-05
0.000206538
0.000230001
4.89874e-05
0.000230363
0.000194665
0.000221762
0.000229808
0.00010059
0.000234466
0.000226374
0.000229688
0.000228738
0.00011559
0.000228947
0.000174587
0.000238592
0.000229311
0.000125455
0.000229425
6.9973e-05
0.000229977
0.00012341
0.000177289
0.000204265
0.000213343
0.00012058
0.000218125
0.000229059
9.3143e-05
0.000157732
0.000195596
0.000484779
2.60959e-05
0.000228543
0.000229648
0.000240988
4.68595e-05
0.000330166
0.000162709
0.00022989
0.00022973
0.000229684
7.00445e-05
0.000389985
0.000235178
2.01013e-05
0.000244156
4.70412e-05
0.000229403
0.000221576
0.000179604
0.000234168
0.000222072
0.000114393
0.000233197
0.00022881
0.0002332
0.000229477
0.000229098
0.000229243
7.1061e-05
0.000229846
0.000130944
0.00020732
0.000228219
0.000229677
0.000229409
7.18761e-05
0.000231179
0.000250148
0.000159249
0.000176983
0.000170469
0.000229501
0.000230373
6.99376e-05
0.000229212
0.000228968
0.000222284
0.00022925
0.000237816
7.47478e-05
0.000235286
0.000229823
0.000191602
0.00015237
0.000232842
0.000229186
0.000490676
0.000229833
0.000237579
7.30247e-05
0.000229872
9.71393e-05
0.000237433
0.000136291
0.000230022
0.000229595
0.000234187
0.000229667
0.000240285
0.000221385
0.0002292
0.000123592
0.000242473
0.00030298
0.000229052
0.000235217
0.00022976
0.000141356
2.60035e-05
0.00022915
5.53536e-05
0.000229648
0.000233652
0.000213564
2.11138e-05
0.000231348
0.000207153
0.000104655
0.000228684
0.000239236
0.000229517
0.000159067
0.000228908
0.000188252
0.000344074
0.000233258
0.000229151
0.000222789
0.00022824
0.000232888
0.000237248
0.000427581
1.7418e-05
0.000229886
0.000145792
0.000222595
0.000117596
0.000229726
0.000229317
0.000238632
6.35007e-05
0.00011244
0.000230502
0.000172207
0.000153536
0.000139882
0.000113664
0.000228959
0.000110306
0.000187107
5.99329e-05
0.000236858
0.000177099
0.00022905
0.000110818
0.000230037
0.000173563
0.00020624
0.00022995
0.000246357
0.000134599
0.000227124
0.000229452
0.000229326
0.000229719
9.814e-05
0.000179238
8.64488e-05
7.4093e-05
0.000251243
0.000229241
0.000114149
0.000200474
0.000217222
0.000118687
0.000229856
0.00015126
0.000240479
0.000229189
0.000229207
0.000150494
0.000229103
4.86592e-05
0.000229052
0.000228698
0.000207923
0.000130229
0.000216451
0.000384612
7.18875e-05
0.000229192
4.67601e-05
0.000206865
0.00024537
0.000191518
2.82393e-05
0.000229258
0.000229237
0.000229849
9.37639e-05
7.09251e-05
0.000228959
0.000229933
7.25783e-05
0.000212905
2.06446e-05
0.000152276
0.000142681
0.000230302
0.000158748
0.000234498
0.000228711
0.000205521
0.00020669
7.11782e-05
0.000233566
0.000184387
0.000247903
0.000196639
4.72215e-05
0.000224399
0.000158316
9.29082e-05
0.000198459
0.000226363
0.000234166
0.00024176
7.60845e-05
0.000223338
3.61626e-05
0.000229267
4.90492e-05
0.000220534
0.000228559
0.000242085
0.000132484
0.000123635
0.000281447
0.000221369
0.000230035
0.000234552
0.000412965
0.00021927
0.000127216
0.000231864
8.71121e-05
9.42881e-05
3.00046e-05
0.000228989
3.52095e-05
0.000229211
0.000229755
0.000229396
5.89638e-05
0.000116563
7.71662e-05
0.000225087
4.40504e-05
8.39899e-05
0.000229675
0.000228991
0.000175949
0.000194773
0.000233253
0.00023409
4.07697e-05
4.50917e-05
2.96836e-05
2.93526e-05
0.000236519
0.000210643
9.6757e-05
0.00022923
2.81556e-05
0.00023312
0.0002298
0.000229419
8.05675e-05
3.03695e-05
0.000229659
0.000229095
0.000229379
0.000511494
2.22221e-05
0.00022991
5.41937e-05
0.00041915
0.000156274
0.000109695
0.000228845
4.80871e-05
0.000229109
0.000233037
0.000229054
0.000222002
0.000154451
0.000228617
0.000200007
0.000168095
0.000247427
0.000226751
0.000222988
0.000229655
0.00022943
0.000248894
0.000115001
0.000107459
0.000237636
0.000101207
0.000229774
0.00012795
0.000108659
6.01225e-05
0.000174492
0.000251444
0.000162594
8.04754e-05
0.00020043
0.000229137
0.00018018
0.000228781
0.000229815
0.00022923
0.000229752
0.000232172
0.000142248
0.000229561
0.000228886
0.000103273
0.000229174
4.78158e-05
0.000243361
0.00014828
0.000177846
8.34644e-05
0.000230024
0.000229291
0.000229861
2.09193e-05
3.01179e-05
0.000229339
0.000229235
0.000221133
0.00022979
0.000191706
0.000229768
0.000195247
0.00023652
2.74632e-05
0.000169215
0.000138618
5.13167e-05
0.000133662
0.000229078
0.000231286
0.000235177
0.000229854
0.000135075
2.7676e-05
0.000223859
0.000214279
0.000191005
0.000119108
0.00022931
0.000230432
0.000229713
9.56084e-05
0.000185771
8.73993e-05
0.000229639
0.000229111
0.000156434
0.000231805
0.000151237
0.000222551
0.000139071
0.000249134
0.000229105
9.20929e-05
0.000229264
7.75151e-05
0.000229686
0.000259499
0.000158591
0.000234289
2.2376e-05
0.000141207
0.000229893
0.00022999
0.000432823
0.000229017
0.000178454
0.000406105
8.60344e-05
0.000105091
6.37181e-05
0.000195637
0.000231428
0.000229145
0.000229424
0.000118485
7.42467e-05
0.000118679
0.000228596
0.000229345
0.000151864
0.000229822
0.000238308
0.000233375
0.000233729
0.000159658
7.57998e-05
8.50566e-05
0.000159609
0.000233063
0.000220864
0.000228779
0.000122923
0.000231724
0.000229249
0.00016697
0.000120436
0.000228918
0.000229043
2.07009e-05
0.000230244
0.000228951
0.000147371
0.000229736
0.000232804
0.000140974
0.000147464
0.000156868
0.000230222
0.000168596
9.9803e-05
0.000139281
6.56198e-05
0.000139413
0.000175667
0.000105534
0.00010992
0.000133643
0.000229779
0.000229761
0.000317575
0.000229532
0.000229258
0.000239062
0.000220027
7.78761e-05
0.000188407
0.000185406
0.000236743
0.000229066
0.000188247
0.000229495
0.000229203
0.000236174
0.000120953
0.000231775
0.000239584
0.00023033
0.000229819
0.000407565
6.27985e-05
0.000473489
0.000232063
0.000230264
0.000189371
7.54063e-05
0.000237668
0.000163534
0.000231624
0.000315745
0.000149995
0.000229089
0.000140062
0.000229952
0.000208225
0.000457189
0.000157087
0.000142392
0.000212189
0.000245511
0.000229834
0.000105707
0.000194831
4.98049e-05
0.000179438
0.000228943
0.000233382
0.000229823
0.000158575
0.000229461
6.0974e-05
0.000229662
0.000229064
0.000229167
0.000176898
6.97685e-05
0.000229539
0.000137215
0.000229279
0.000158801
0.000173652
0.00023082
0.000428725
1.98385e-05
0.00014933
0.00023625
0.000224854
0.00018391
0.000144359
0.000218247
8.82721e-05
0.000229208
0.000197856
0.000229365
0.000236452
5.09327e-05
0.000237001
4.54326e-05
0.000227502
0.000231466
0.000233029
0.000229162
7.46332e-05
0.000229654
0.000171023
7.287e-05
0.000198892
0.000233123
0.000137636
8.39086e-05
0.000107704
0.000240609
0.000169685
3.23727e-05
0.000104253
0.000229518
0.000226625
0.000187702
0.000229527
5.13557e-05
0.000126434
0.000245501
0.00030912
0.000229084
0.000232668
0.000234741
0.000138277
0.000235972
0.000213038
0.000229657
0.000206647
0.000234227
0.000145242
0.000112142
0.000113405
0.000190316
0.000228938
0.000122397
6.09134e-05
0.000229136
0.000226483
0.000186567
7.51694e-05
0.000233319
2.52608e-05
0.00023592
0.000119835
0.000167492
0.000249301
0.000229151
0.000247352
0.000229035
0.0001239
2.12811e-05
0.000230062
0.000229398
0.000251355
0.000407834
0.000157579
0.000195575
0.000229808
0.000194265
0.000240452
0.000229563
0.00022963
0.000229795
0.000229313
0.000242963
0.000169062
4.57397e-05