/*--------------------------------*- C++ -*----------------------------------*\
| =========                 |                                                 |
| \\      /  F ield         | OpenFOAM: The Open Source CFD Toolbox           |
|  \\    /   O peration     | Version:  3.0.1                                 |
|   \\  /    A nd           | Web:      www.OpenFOAM.org                      |
|    \\/     M anipulation  |                                                 |
\*---------------------------------------------------------------------------*/
FoamFile
{
    version     2.0;
    format      ascii;
    class       volScalarField;
    location    "0.522661";
    object      p;
}
// * * * * * * * * * * * * * * * * * * * * * * * * * * * * * * * * * * * * * //

dimensions      [0 2 -2 0 0 0 0];

internalField   nonuniform List<scalar> 
21246
(
0.88066
0.580358
0.528501
0.550794
0.595217
0.650551
0.688782
0.695337
0.677469
0.650556
0.659858
3.10648
2.54417
2.03256
1.69816
1.48642
1.34686
1.24387
1.15302
1.06283
0.981251
0.939596
3.13435
3.0302
2.74681
2.4472
2.17394
1.93954
1.74094
1.5676
1.40845
1.26815
1.18466
2.76447
2.84425
2.7894
2.65556
2.48083
2.28474
2.07934
1.87516
1.68283
1.52044
1.41379
2.46745
2.60851
2.63834
2.62086
2.5537
2.43599
2.28092
2.10632
1.92716
1.75723
1.62939
2.24521
2.41762
2.47817
2.52199
2.52636
2.48407
2.39395
2.2627
2.10186
1.92859
1.7868
2.04136
2.23613
2.28376
2.36944
2.42563
2.4399
2.40275
2.31251
2.18058
2.02396
1.88382
1.89151
2.03203
2.10724
2.19559
2.2719
2.3196
2.32376
2.27643
2.18019
2.05369
1.94236
1.75848
1.88044
1.95151
2.03464
2.11424
2.17549
2.20349
2.18708
2.12269
2.02359
1.93383
1.63255
1.75015
1.81548
1.89244
1.96896
2.03275
2.07105
2.07295
2.03192
1.95601
1.88412
1.53122
1.63971
1.69702
1.76635
1.8365
1.89718
1.9378
1.94859
1.9222
1.86427
1.81511
1.46416
1.55373
1.59754
1.65552
1.71571
1.76903
1.80649
1.81965
1.80142
1.75551
1.71893
1.3952
1.472
1.50558
1.55268
1.60161
1.64503
1.67563
1.68663
1.67206
1.63497
1.61128
1.31322
1.38497
1.41179
1.44925
1.48678
1.51899
1.54034
1.54596
1.53131
1.49842
1.48235
1.25517
1.30757
1.31944
1.34293
1.36636
1.38513
1.39502
1.39319
1.3773
1.34948
1.34241
1.18468
1.21881
1.21666
1.22511
1.23246
1.23564
1.23228
1.22204
1.20527
1.18417
1.19082
1.08263
1.10533
1.0922
1.08528
1.0748
1.06049
1.04286
1.02486
1.00987
0.99926
1.01911
0.978312
0.978898
0.94587
0.916812
0.883455
0.848778
0.816743
0.794275
0.78744
0.796097
0.838437
0.850129
0.821784
0.761744
0.703098
0.641097
0.584428
0.541907
0.523215
0.535709
0.574632
0.650309
0.677623
0.610553
0.516999
0.421918
0.326837
0.249058
0.205516
0.207103
0.256251
0.33906
0.45133
0.439541
0.317832
0.179984
0.0432533
-0.084133
-0.172466
-0.196747
-0.150196
-0.042114
0.101478
0.26331
0.119694
-0.119879
-0.296186
-0.469707
-0.616879
-0.688708
-0.658074
-0.531377
-0.339649
-0.121079
0.0983414
-0.679359
-0.76156
-0.957061
-1.15209
-1.28001
-1.27915
-1.14043
-0.90042
-0.610001
-0.312936
-0.039262
0.266687
-1.11077
-1.59868
-1.85775
-1.92954
-1.80881
-1.53841
-1.18793
-0.812262
-0.450888
-0.134615
-5.01465
-2.19684
-1.04276
-0.607027
-0.249444
0.0257128
0.176704
0.252632
0.296985
0.309266
0.347583
-4.45119
-3.23561
-2.52244
-2.00408
-1.4488
-0.952428
-0.585456
-0.328187
-0.171532
-0.0885925
0.00186055
-3.20376
-3.26665
-3.11092
-2.82135
-2.44261
-1.99714
-1.53763
-1.12195
-0.798283
-0.578762
-0.401641
-3.6295
-3.48778
-3.3755
-3.26997
-3.13365
-2.89361
-2.52164
-2.06334
-1.60796
-1.23174
-0.908913
-4.1783
-4.04589
-3.86792
-3.75627
-3.73429
-3.69256
-3.50022
-3.11267
-2.59559
-2.06978
-1.58068
-4.87002
-4.80402
-4.66095
-4.5285
-4.50985
-4.57697
-4.55206
-4.29136
-3.77606
-3.12141
-2.44865
-5.59336
-5.6351
-5.57915
-5.55298
-5.56039
-5.67904
-5.78009
-5.65051
-5.17304
-4.40602
-3.53075
-6.30924
-6.46681
-6.50406
-6.61518
-6.77979
-6.98069
-7.20466
-7.20683
-6.7877
-5.92874
-4.79032
-6.97514
-7.2487
-7.38198
-7.64516
-7.99109
-8.39403
-8.77981
-8.92738
-8.57584
-7.65029
-6.32274
-7.5119
-7.91815
-8.14057
-8.56031
-9.09585
-9.73447
-10.3346
-10.6851
-10.409
-9.39341
-7.79765
-7.82021
-8.42233
-8.70747
-9.27047
-9.97423
-10.8139
-11.6863
-12.2691
-12.0971
-11.0157
-9.2311
-8.02839
-8.66381
-9.03424
-9.7155
-10.5465
-11.5448
-12.6351
-13.4023
-13.3858
-12.2501
-10.2864
-8.02528
-8.64343
-9.12179
-9.84072
-10.748
-11.8236
-12.9965
-13.9145
-14.0677
-12.8432
-10.6068
-7.73866
-8.33631
-8.87425
-9.61454
-10.5468
-11.6412
-12.7947
-13.7234
-13.8213
-12.6402
-10.3338
-7.20968
-7.73503
-8.2728
-8.99214
-9.89848
-10.9502
-12.0132
-12.7916
-12.7586
-11.6099
-9.45897
-6.40898
-6.83516
-7.33337
-8.00164
-8.84635
-9.80385
-10.7043
-11.2592
-11.1052
-9.93281
-7.97378
-5.33009
-5.66917
-6.12637
-6.75216
-7.54001
-8.39243
-9.10013
-9.39261
-9.03438
-7.85023
-6.0672
-4.05106
-4.36363
-4.83122
-5.46382
-6.22656
-6.98445
-7.49975
-7.51842
-6.88878
-5.62445
-4.08366
-2.81433
-3.22119
-3.79213
-4.47759
-5.22005
-5.86984
-6.17675
-5.9
-4.97978
-3.62406
-2.24215
-2.11565
-2.69907
-3.39731
-4.1196
-4.82816
-5.36974
-5.46196
-4.88487
-3.69741
-2.24995
-0.799669
-2.21883
-2.90311
-3.65045
-4.3905
-5.06581
-5.47797
-5.26795
-4.32656
-2.94057
-1.45432
-0.0943763
-2.80618
-3.59898
-4.41172
-5.12237
-5.6658
-5.63644
-4.75869
-3.53076
-2.25283
-1.06157
-0.155092
-3.85561
-5.25577
-5.64247
-5.56052
-5.16151
-4.44411
-3.47274
-2.47545
-1.56534
-0.781331
-0.194491
-7.31377
-5.30102
-4.29437
-3.77538
-3.29057
-2.72541
-2.1319
-1.55603
-1.02239
-0.551464
-0.178497
21.6932
18.716
15.6209
12.9048
10.5423
8.59293
6.99126
5.68339
4.61962
3.78618
3.22383
6.31237
11.366
11.7895
11.365
9.8537
8.35582
6.90967
5.64594
4.58868
3.7448
3.15682
-7.53452
0.800742
3.18497
5.85366
6.61743
6.48995
5.83857
5.01622
4.19566
3.48834
2.98585
-13.4536
-6.72872
-4.80803
-0.441585
1.72541
3.23084
3.69782
3.65722
3.32457
2.91317
2.56083
-14.6184
-10.1657
-9.43989
-4.93642
-2.84878
-0.267111
1.04083
1.80152
2.06268
2.06411
1.99741
-14.2401
-10.9954
-11.2052
-7.15426
-5.83544
-3.06392
-1.40268
-0.103046
0.650915
1.05298
1.27508
-13.2262
-10.8908
-11.155
-8.11432
-7.13335
-4.74483
-3.15751
-1.65818
-0.627577
0.0727295
0.543864
-11.6531
-10.3147
-10.2488
-8.26636
-7.40065
-5.48898
-4.14735
-2.68407
-1.58683
-0.738239
-0.108674
-10.1646
-9.36309
-9.16125
-7.8
-7.12126
-5.58947
-4.51391
-3.1955
-2.16479
-1.27906
-0.582689
-9.0177
-8.33852
-8.09676
-7.03113
-6.52972
-5.27881
-4.44658
-3.29757
-2.39982
-1.55089
-0.851895
-7.72229
-7.18334
-6.97029
-6.12681
-5.75061
-4.71734
-4.09828
-3.10688
-2.36994
-1.5983
-0.970121
-6.17642
-5.85103
-5.74836
-5.10802
-4.8453
-4.00644
-3.56704
-2.71786
-2.14892
-1.45287
-0.935291
-4.92044
-4.6554
-4.58792
-4.07493
-3.90634
-3.21229
-2.92772
-2.21298
-1.79954
-1.14727
-0.780565
-3.97486
-3.66577
-3.57156
-3.11601
-3.00271
-2.40081
-2.22329
-1.65815
-1.31389
-0.840854
-0.530916
-2.89613
-2.64658
-2.59522
-2.20881
-2.13484
-1.66357
-1.48051
-1.06297
-0.807011
-0.459574
-0.23652
-1.97381
-1.73871
-1.69748
-1.35038
-1.30583
-0.935924
-0.779392
-0.460516
-0.292325
-0.051839
0.0821947
-1.27478
-0.994094
-0.923845
-0.617418
-0.5065
-0.215433
-0.10043
0.127993
0.218263
0.354529
0.401134
-0.53935
-0.255427
-0.177466
0.103029
0.226886
0.465588
0.55194
0.694995
0.710003
0.74136
0.70071
0.149847
0.438094
0.526867
0.792486
0.91999
1.11568
1.17553
1.23296
1.1683
1.09409
0.966657
0.756096
1.05597
1.17202
1.43524
1.57828
1.74105
1.766
1.72916
1.57593
1.39994
1.19511
1.31179
1.63041
1.79096
2.04425
2.2157
2.34244
2.30576
2.15791
1.90883
1.64341
1.37751
1.87692
2.21141
2.41559
2.67563
2.85312
2.90009
2.74973
2.47207
2.13197
1.805
1.50747
2.24103
2.75288
3.06628
3.33138
3.45113
3.33862
3.02823
2.62897
2.2307
1.89686
1.69765
3.68788
3.91463
4.12317
4.12917
3.8422
3.42429
2.93096
2.45487
2.05227
1.74091
1.59365
20.8758
19.0723
16.0503
13.1169
10.5385
8.46441
6.82692
5.52801
4.49255
3.68774
3.1253
5.56603
11.1792
11.9072
11.5216
10.0755
8.37228
6.78096
5.43555
4.35158
3.52577
2.9693
-8.18741
0.373153
3.39402
6.16586
7.00002
6.69967
5.80188
4.81539
3.89485
3.14855
2.62881
-15.2462
-8.0753
-5.16729
-0.710181
1.9115
3.38586
3.61164
3.41539
2.95825
2.48239
2.1403
-17.569
-12.6684
-10.7847
-6.31688
-3.20636
-0.679105
0.75108
1.4089
1.57487
1.5157
1.44845
-17.7932
-14.4076
-13.3986
-9.69013
-6.96452
-4.16236
-2.13153
-0.797125
-0.0399331
0.356753
0.602006
-17.2813
-14.7377
-14.2119
-11.2374
-9.17473
-6.53511
-4.44232
-2.76079
-1.59781
-0.821569
-0.271668
-16.4122
-14.4365
-14.1959
-11.6765
-10.2612
-7.86154
-5.99942
-4.23782
-2.88258
-1.86585
-1.12219
-15.5977
-13.9004
-13.8691
-11.5372
-10.6766
-8.43973
-6.89695
-5.1803
-3.79826
-2.66331
-1.82265
-14.9237
-13.3782
-13.3433
-11.2476
-10.5854
-8.62037
-7.27436
-5.66267
-4.34533
-3.17257
-2.24599
-14.2528
-13.0135
-12.5959
-10.9802
-10.1608
-8.51689
-7.30444
-5.79376
-4.58124
-3.42027
-2.49461
-13.3766
-12.3763
-11.8255
-10.49
-9.63346
-8.17401
-7.07615
-5.65798
-4.57459
-3.46917
-2.57402
-12.5424
-11.5859
-11.0296
-9.81442
-8.99317
-7.65221
-6.65459
-5.3552
-4.33666
-3.32975
-2.49432
-11.7752
-10.7658
-10.1972
-9.03722
-8.24171
-6.99159
-6.05985
-4.8946
-3.95402
-3.05277
-2.29297
-10.7955
-9.81746
-9.27936
-8.17292
-7.39099
-6.22365
-5.34155
-4.298
-3.44741
-2.66096
-2.00893
-9.78371
-8.80913
-8.28654
-7.22254
-6.44438
-5.35232
-4.51959
-3.58395
-2.83475
-2.17628
-1.65335
-8.77906
-7.76885
-7.22905
-6.19092
-5.40141
-4.38677
-3.58335
-2.76681
-2.13675
-1.62078
-1.23028
-7.68203
-6.63993
-6.07418
-5.05793
-4.24428
-3.30093
-2.54852
-1.86769
-1.37857
-1.0194
-0.769882
-6.48055
-5.3994
-4.79204
-3.79356
-2.95377
-2.08707
-1.42663
-0.910858
-0.59136
-0.402376
-0.292655
-5.16876
-4.02693
-3.35184
-2.36708
-1.51679
-0.759329
-0.245208
0.0633786
0.182203
0.189056
0.136732
-3.69922
-2.46434
-1.70099
-0.748925
0.0537127
0.640228
0.932632
0.990751
0.89251
0.729443
0.556093
-2.00077
-0.630577
0.203837
1.04074
1.67143
1.98406
1.98032
1.76958
1.47176
1.1752
0.912939
0.0318808
1.51103
2.32022
2.87521
3.16035
3.10971
2.79491
2.3593
1.92585
1.55631
1.26895
2.10115
3.59155
4.05563
4.06126
3.87861
3.50175
2.99196
2.47696
2.00384
1.58189
1.26837
-1.93103
0.980709
1.83179
1.94106
1.74269
1.44792
1.14942
0.869844
0.609618
0.382657
0.245993
-15.7641
-7.92931
-4.7126
-2.48212
-1.08589
-0.400988
-0.118415
-0.0421133
-0.0700441
-0.141549
-0.1822
-17.0458
-12.3634
-9.99005
-7.0743
-4.59783
-2.89673
-1.83852
-1.23543
-0.915609
-0.752041
-0.640375
-13.8505
-12.4507
-11.5239
-9.36526
-7.09542
-5.13005
-3.60164
-2.54213
-1.86278
-1.43858
-1.15412
-10.7064
-10.5698
-10.445
-9.36085
-7.91638
-6.3329
-4.84612
-3.63226
-2.73373
-2.10504
-1.64393
-8.53991
-8.67975
-8.73651
-8.28059
-7.52966
-6.50168
-5.35564
-4.27314
-3.35861
-2.64599
-2.08317
-6.97576
-7.1546
-7.21033
-7.03156
-6.67041
-6.06822
-5.29219
-4.45952
-3.67039
-2.98939
-2.40498
-5.85658
-5.9501
-5.98019
-5.92448
-5.76166
-5.42395
-4.9296
-4.33711
-3.71503
-3.13148
-2.58585
-5.15569
-5.10118
-5.09029
-5.06636
-4.98347
-4.78828
-4.47505
-4.06476
-3.59444
-3.11968
-2.64529
-4.79013
-4.60511
-4.55414
-4.49539
-4.41181
-4.26939
-4.05101
-3.75624
-3.39954
-3.01906
-2.61455
-4.60608
-4.3432
-4.25363
-4.13743
-4.02152
-3.88499
-3.70421
-3.47135
-3.18805
-2.87828
-2.54217
-4.48202
-4.18472
-4.04433
-3.88514
-3.74018
-3.59593
-3.4289
-3.22723
-2.9867
-2.72214
-2.43736
-4.36421
-4.05939
-3.89314
-3.70775
-3.53996
-3.38437
-3.21906
-3.02927
-2.80798
-2.56442
-2.30486
-4.27717
-3.97707
-3.79981
-3.60354
-3.41952
-3.25048
-3.07792
-2.88435
-2.66115
-2.41529
-2.15749
-4.23405
-3.94001
-3.76009
-3.55823
-3.36145
-3.18018
-2.99618
-2.78876
-2.54777
-2.28172
-2.00899
-4.22627
-3.94116
-3.76497
-3.56487
-3.36239
-3.17018
-2.96998
-2.73865
-2.46539
-2.16238
-1.85668
-4.24514
-3.97318
-3.80407
-3.61143
-3.4099
-3.20817
-2.98822
-2.72387
-2.40614
-2.05235
-1.68909
-4.27879
-4.02374
-3.86524
-3.68116
-3.48123
-3.26893
-3.02322
-2.71973
-2.3542
-1.9525
-1.54931
-4.31671
-4.08191
-3.93609
-3.76087
-3.56061
-3.32999
-3.0487
-2.70031
-2.29372
-1.8609
-1.44148
-4.34702
-4.13441
-4.00392
-3.84016
-3.63382
-3.37166
-3.04247
-2.6453
-2.21309
-1.78297
-1.37236
-4.34524
-4.17342
-4.0669
-3.91502
-3.69315
-3.38848
-2.99844
-2.5503
-2.11437
-1.73077
-1.37918
-4.26655
-4.20907
-4.14958
-3.99753
-3.74189
-3.38205
-2.92445
-2.43071
-2.01415
-1.7259
-1.52133
-4.43456
-4.49663
-4.39266
-4.17434
-3.85811
-3.41712
-2.86513
-2.32857
-1.93822
-1.75566
-1.67737
-5.00938
-4.39164
-4.07228
-3.77377
-3.36499
-2.84489
-2.31214
-1.90388
-1.74156
-1.81885
-2.00665
14.1859
9.87561
6.89653
4.98755
3.70423
2.81388
2.15503
1.63141
1.19593
0.840633
0.59709
11.6013
11.2787
9.57323
7.62078
5.84621
4.41538
3.3082
2.45622
1.79576
1.28039
0.945389
7.48984
8.62187
8.59584
7.88077
6.64865
5.28249
4.04781
3.04344
2.23785
1.61188
1.19802
3.89259
5.7104
6.30567
6.47604
6.05572
5.24681
4.28388
3.33874
2.49591
1.81325
1.36691
1.31383
3.06233
3.82316
4.50876
4.74835
4.52469
3.96489
3.24812
2.51366
1.87536
1.43414
-0.437441
1.03323
1.68918
2.52108
3.07726
3.29264
3.16389
2.77938
2.26095
1.74519
1.35084
-1.61576
-0.402133
0.0906606
0.904295
1.53226
1.95812
2.12292
2.03006
1.7589
1.41012
1.12155
-2.38319
-1.39189
-1.06304
-0.320069
0.267837
0.761957
1.07769
1.19265
1.12902
0.951364
0.778004
-2.99357
-2.11257
-1.93495
-1.2298
-0.730921
-0.230811
0.149481
0.386287
0.471354
0.438588
0.364791
-3.53346
-2.73444
-2.5878
-1.96682
-1.51274
-1.03774
-0.636733
-0.334517
-0.15057
-0.0725454
-0.0468652
-3.95683
-3.36425
-3.09105
-2.57266
-2.1463
-1.69346
-1.29025
-0.954455
-0.70772
-0.554085
-0.456502
-4.27076
-3.77697
-3.51185
-3.05385
-2.65552
-2.22609
-1.82907
-1.47639
-1.18888
-0.978574
-0.829138
-4.55274
-4.09476
-3.85067
-3.43342
-3.05974
-2.65298
-2.26611
-1.90711
-1.59428
-1.33795
-1.12851
-4.82431
-4.36502
-4.12569
-3.73273
-3.37713
-2.9896
-2.61402
-2.25554
-1.93047
-1.64956
-1.40422
-4.95912
-4.54245
-4.3275
-3.95982
-3.62057
-3.24974
-2.88476
-2.53053
-2.20188
-1.90936
-1.64664
-5.0563
-4.67086
-4.47163
-4.12584
-3.79941
-3.44244
-3.08626
-2.73776
-2.41138
-2.11764
-1.8549
-5.14167
-4.76998
-4.57285
-4.24167
-3.92172
-3.57402
-3.22377
-2.88101
-2.56096
-2.27401
-2.0218
-5.17371
-4.82079
-4.62625
-4.30807
-3.99011
-3.64682
-3.29921
-2.96149
-2.65139
-2.38124
-2.15305
-5.15652
-4.82419
-4.63116
-4.32387
-4.00375
-3.6599
-3.31166
-2.97831
-2.68169
-2.43742
-2.24894
-5.1042
-4.78799
-4.59021
-4.28821
-3.96035
-3.61058
-3.25884
-2.92979
-2.6507
-2.44206
-2.30182
-5.01162
-4.70681
-4.4975
-4.19434
-3.85451
-3.49564
-3.13934
-2.81548
-2.55852
-2.39724
-2.33207
-4.85703
-4.56162
-4.33017
-4.02156
-3.67334
-3.30878
-2.94978
-2.63258
-2.40072
-2.29341
-2.32183
-4.70892
-4.36158
-4.1018
-3.80392
-3.46398
-3.099
-2.73486
-2.42059
-2.20752
-2.15126
-2.29789
-4.03425
-3.75928
-3.5373
-3.29518
-3.0066
-2.67496
-2.34264
-2.06921
-1.86914
-1.8073
-2.0234
-1.3374
-2.02649
-2.13973
-1.534
-0.484982
0.309468
0.692167
0.771779
0.218564
-1.11541
-1.57686
-1.62162
-1.13591
-0.393584
0.223169
0.556102
0.61011
0.153837
-1.05929
-1.4506
-1.49166
-1.06306
-0.375481
0.134386
0.427857
0.475933
0.0831963
-0.992856
-1.28757
-1.29275
-0.927176
-0.3698
0.0607381
0.319037
0.367666
0.00627047
-0.927881
-0.892231
-0.899004
-1.00281
-1.22032
-1.59515
-1.78987
-1.49663
-0.741277
-0.917516
-0.895191
-0.900951
-0.974195
-1.08248
-1.29935
-1.40233
-1.11268
-0.575205
-0.895425
-0.877821
-0.876761
-0.932989
-1.01946
-1.20866
-1.29475
-1.0871
-0.529679
-0.869975
-0.851631
-0.841646
-0.880775
-0.929764
-1.07432
-1.12703
-0.878566
-0.488353
0.888501
1.01272
1.01139
-0.459113
-0.523053
1.05753
-0.782944
1.00857
1.0577
1.0256
-0.541682
1.00871
-0.409255
-0.162128
0.885219
0.853847
-0.156269
-0.440978
0.85417
0.902752
0.757926
-0.614298
0.933781
-0.4877
1.01357
-0.159444
-0.401951
-0.768496
-0.0977192
-0.601718
-0.156842
0.391094
-0.123361
0.90858
0.386775
1.01746
-0.465685
1.01661
-0.133321
1.02971
-0.300497
0.911979
-0.343795
0.935969
-0.692077
-0.509359
-0.176375
-0.887558
0.580765
1.05035
-0.606217
1.02914
-0.0218393
-0.332985
1.04691
0.751908
-0.608415
1.02308
-0.0880182
-0.264457
-0.0276032
-0.036095
-0.562832
-0.539189
-0.356796
0.901289
-0.679716
1.06964
1.01637
1.01765
-0.304418
1.16926
-0.395055
1.24931
-0.420863
1.1405
-0.567311
0.918979
-0.648086
-0.781322
-0.0956715
-0.538018
0.914955
0.921109
-0.109076
-0.378506
-0.923849
-0.0416595
-0.629547
-0.244263
1.02864
1.02117
-0.307497
1.15498
-0.724499
-1.10671
-0.341727
-0.34654
-0.598786
1.19402
0.0833891
-0.905111
0.893991
0.0774422
-0.564755
1.032
-0.0188033
0.91598
-0.0502092
0.534684
0.946412
0.909832
1.12826
-0.481669
-0.207496
0.905966
1.0262
0.920247
1.02359
0.816793
-0.488741
1.25137
0.181871
-0.188886
-0.488708
-0.404666
0.049148
-0.0178126
-0.0069224
-0.0473329
0.98834
-0.261532
-0.876415
1.14665
1.02427
-0.158682
-0.556582
-0.532974
-0.532346
0.590174
-0.326881
0.739887
-0.705787
0.626048
1.02369
-0.429594
-0.326409
1.07241
1.12304
0.983294
1.01797
1.05144
-0.434886
1.23253
-0.4793
-0.282633
-0.288183
-0.631564
-0.184402
0.951394
-0.349671
-0.574739
1.15802
0.959737
-0.661351
-0.240168
-0.635067
1.09349
-0.348301
-0.361417
-0.0959316
-0.0535124
-0.318537
0.60893
0.412522
0.386899
-0.0104267
-0.469517
-0.714773
0.417325
1.06666
-0.604072
1.02046
-0.533401
1.03923
-0.521788
1.03249
0.910565
0.981045
-0.646314
-0.0701319
-0.194748
0.866601
-0.298332
1.01803
0.991081
1.07098
-0.60276
-0.0488693
0.911248
-0.499178
1.06145
-0.170635
-0.230995
1.0214
-0.00757304
1.14833
-0.00504995
1.05164
0.882146
-0.189797
0.882011
0.493244
0.43911
0.92658
-0.186441
1.03463
-0.148137
1.0408
-0.269345
-0.0684906
-0.473277
-0.366626
-0.203121
-0.157975
1.00953
-0.498772
-0.168496
-0.0505445
-0.559276
-0.619587
0.858222
1.02302
1.25449
-0.446549
-1.22026
-0.500157
1.02111
0.983097
0.98379
-0.115677
-0.593554
0.0456254
-0.315317
1.09428
-0.597594
0.904253
-0.313693
-1.04384
-0.0489775
-0.299002
-0.218339
0.324225
0.960912
0.0528761
1.06773
0.806258
1.01793
-0.461179
1.03834
-0.0102784
-0.30028
0.870772
0.92912
0.945978
-0.198642
0.722097
1.02253
-0.25522
-0.184204
-0.573404
1.01574
1.06677
-0.185821
1.0571
0.914617
-0.24435
1.0466
0.648817
-0.574943
1.1853
1.02029
-0.104742
-0.432791
0.0981011
1.03431
-0.787853
0.992679
0.591037
-0.347299
0.970412
-0.770168
0.84848
-0.203849
1.01512
1.05054
-0.355227
0.944598
0.421235
-0.291444
1.04057
-0.51955
0.510449
-0.580995
0.819424
0.493552
0.925542
0.0200462
-0.594531
0.988736
-0.693709
1.03274
0.41332
-0.101988
-0.650239
0.692525
-0.332659
-0.585465
0.774753
1.18542
1.02418
0.0416252
0.891526
-0.365824
-0.566333
0.962696
0.911906
-0.32181
0.85239
-0.103356
1.05663
-0.557493
-0.526794
1.02704
-0.384892
-1.12333
-0.326682
0.929205
1.04245
-0.323737
-0.403343
-0.229934
1.06662
-0.33984
-0.580094
0.0164264
-0.219527
0.909428
-0.491982
0.0600453
-0.703884
-0.346907
-0.150521
0.837203
-0.118407
0.911181
-0.0551108
0.563865
0.930341
-0.108448
-0.175115
-0.175287
1.03285
0.912562
1.09633
-0.631131
-0.0552563
-0.280891
-0.747155
0.323587
1.04612
-0.561286
-1.09869
-0.0921065
-0.122163
0.968953
0.037262
0.370736
1.03841
0.97784
-0.22886
1.00385
-0.467156
1.00597
-0.190495
-0.566994
-0.496564
-0.156952
-0.585523
-0.6436
1.05113
-0.665279
-0.0591935
1.30442
-0.574894
-0.359441
0.930503
0.973693
1.01842
-0.166715
-0.459881
0.904355
1.02652
-0.313815
-0.0226499
-0.307627
-0.67571
-0.0362515
1.05864
0.0483522
1.21029
0.85068
-0.173301
-0.162703
-0.387994
0.343122
-0.0790162
1.26677
-0.0374339
-0.67401
-0.510315
-0.036503
-0.795066
-0.00863243
0.370133
0.572677
1.23807
-0.0339176
-0.250746
-0.38701
0.899142
-0.500075
-0.215887
0.746853
-0.160455
-0.146426
-0.556611
-0.552143
-0.19951
0.893056
-0.0835428
-1.02526
-0.403537
-0.503646
1.10055
-0.269724
-0.249371
-0.52178
0.981219
-0.58388
1.04859
0.92136
1.03689
-0.664196
-0.336939
-0.739256
-0.103963
-0.559532
-0.0119618
0.959845
0.989936
0.0452862
-0.0895068
0.0210918
1.23048
-0.0151153
-0.0169079
0.906045
0.881809
1.05865
0.366855
-0.518394
0.965488
-0.0471291
1.1575
0.970443
1.01019
0.884776
-0.571155
1.02718
0.937284
0.786286
-0.536683
-0.59297
0.929404
-0.382013
-0.552509
0.656789
-0.214877
0.923915
-0.48515
1.00076
1.16184
1.00878
-0.00761546
-0.1855
0.870361
-0.214832
0.432112
1.03211
-0.326085
-0.315032
1.03267
0.932536
-1.0116
-0.116183
-0.451708
1.05762
-0.843811
0.891846
-0.59611
-0.171371
-0.648752
-0.242523
0.0894504
-0.574476
-0.15421
-0.209218
0.900027
-0.321576
0.757055
1.02125
1.04641
0.970542
0.994665
-0.247536
1.01349
0.928892
-0.51461
1.03954
-0.494007
0.0114471
-0.000161373
-0.300861
-0.63972
0.998641
1.03382
1.01965
-0.333776
-0.56567
0.903024
0.965377
-0.178303
1.02809
-0.358425
1.02889
0.00981194
0.647375
-0.654501
-0.175824
-0.0357236
-0.552392
-0.598843
0.825243
0.691769
1.09288
0.961684
-0.136134
-0.598963
0.833345
-0.166623
-0.647799
-1.02243
1.02265
1.08166
1.03101
-0.250258
-0.481803
-0.0383595
1.03331
1.00723
-0.415728
1.13477
-0.183518
-0.0290977
-0.0283921
-0.604164
0.952854
-0.0247189
1.03353
-0.148713
1.09005
-0.401291
-0.0131958
0.451926
-0.641779
-0.217741
1.00614
0.916465
-0.702098
0.954785
-0.351081
-0.520892
-0.18787
-0.262432
-0.391343
-0.320911
1.02656
1.02649
1.03925
-1.08861
-0.189921
-0.127033
0.889126
1.02207
-0.671071
1.04053
1.16598
1.10927
1.13884
-0.193827
-0.1663
-0.211904
-0.23345
0.218333
0.347385
0.952727
-0.483419
1.13079
1.03932
-1.06238
-0.245466
0.877792
0.983471
-0.537116
0.882538
0.976245
-0.033113
1.0302
0.852838
-0.275932
-0.214852
-0.0848132
-0.0393638
-0.0368753
-0.672675
0.0088248
-0.132359
-0.463773
-0.275225
-0.636852
-0.29864
-0.224608
0.893255
0.941284
-0.571646
0.205581
0.966302
0.602121
-0.222611
-0.361813
-1.01211
-0.279316
0.0179047
0.918964
0.291999
1.00609
0.969415
0.792253
-0.379358
1.07899
1.05649
1.04155
0.960134
-0.544078
-0.0706485
-0.562268
1.13217
1.05984
0.569769
-0.183149
1.18249
-0.712718
1.13975
-0.528523
0.0303689
0.939238
-0.0294033
0.961009
-0.123068
-0.52969
-0.189444
-1.04161
-0.336065
-0.0686135
0.915672
-0.0247114
-0.096098
-0.664301
0.0797311
0.902211
0.383507
0.919659
-0.1904
0.982137
-0.352591
1.03364
1.03812
1.03054
-0.404078
-0.222466
1.00741
-0.0139677
1.06718
-0.136807
-0.193755
0.626915
-0.52127
-0.334092
-0.200704
0.120812
-0.446443
-0.340182
-0.425832
-0.102465
-0.779874
0.898533
-0.201146
0.975166
1.06492
-0.686152
-0.234729
-0.495944
-0.158106
1.1297
0.835398
0.80175
-0.13019
0.962635
0.024874
-0.322016
0.00842375
0.655975
-0.0166474
-0.323105
-0.258412
1.25267
-0.298336
-0.512086
-0.571008
0.95242
-0.177547
-0.686393
1.02448
-0.548607
-0.0350022
1.22498
-0.498172
1.00667
1.15432
0.776075
-0.0457357
1.19848
-0.0972459
1.03197
-0.1318
1.14032
-0.20272
-0.141822
-0.245875
-0.0247927
0.90094
-0.546961
-0.618837
0.936904
-0.0998003
0.0699718
-0.281236
0.300121
-0.620378
1.05727
-0.198186
-0.185481
0.299085
0.955655
-0.13985
0.918867
-0.250901
-0.456262
1.01307
1.02125
0.106982
-0.558569
-0.0205732
-0.313426
1.0062
-0.193075
0.654225
0.904747
0.982856
1.02764
0.975085
1.08621
-0.0245964
-0.66546
-0.546053
-0.0601501
-0.202427
1.01962
0.993523
-0.0870704
-0.44588
1.02541
-0.116897
-0.192739
-0.823334
-0.357684
-0.200674
0.268581
-0.236265
1.01577
0.98644
-0.506879
0.828487
1.00878
0.549399
0.00375211
-0.11088
-0.0856202
1.02234
-0.271524
-0.355745
-0.362695
1.00593
-0.0290333
-0.276902
-0.195067
-0.245271
0.939493
0.95386
-0.455425
-0.17944
-0.288792
0.920371
1.03542
1.20054
1.09278
0.999359
-0.261467
-0.355982
-0.51428
-0.815181
-0.308637
1.03044
-0.584792
0.96115
1.13623
0.154261
0.992754
1.05524
1.02561
-0.586523
-0.0954519
-0.278694
1.05431
-0.271168
1.03765
1.02607
1.08397
0.988838
0.627613
0.935884
1.02955
1.11143
-1.37196
0.922937
0.925738
-0.207842
-0.721976
1.05556
1.03525
-0.530617
-1.33718
1.07421
-0.160472
-0.194006
-0.276856
0.961028
1.0119
0.934713
0.595328
-0.0311316
0.990965
-0.512379
-0.20725
0.0143886
-0.172107
0.943717
-0.178823
0.862259
0.939909
1.25032
1.04418
0.920509
-0.354448
-0.492072
0.108606
-0.419619
0.0493783
-0.325319
0.183781
-0.678283
0.916898
0.943091
-0.023451
-0.0561813
-0.181291
1.03802
-0.61093
1.12461
-0.30417
1.00504
-0.0284036
-0.0887246
-0.572763
-0.295773
0.902804
1.01344
-0.375148
-0.550992
0.0321364
-0.152327
-0.191466
0.709285
0.779871
0.0668332
1.06832
1.02533
-0.349867
-0.388882
-0.537726
-0.48928
-0.0316076
-0.175466
-0.179597
-0.906829
0.928706
0.728434
0.0560787
0.950007
0.356537
1.04336
-0.20505
-0.205214
-0.0426897
0.951756
-0.270044
1.02455
1.02439
-0.0876688
-0.496506
1.01925
1.0446
1.11357
-0.265601
-0.239675
-0.670795
0.325674
0.928052
-0.284442
-0.16495
-0.666692
0.927159
-0.0331214
-0.142228
1.02623
-0.0415053
0.578236
-0.277946
-0.635784
0.185321
-0.392433
0.661266
1.078
-0.287266
-0.16812
1.05264
-0.0252292
1.02749
-1.20639
0.00632904
-0.965487
1.01351
-0.0314382
-0.525661
-0.572866
-0.0339403
-0.0957365
0.913488
-0.0109761
-0.546182
0.923653
0.459321
-0.2615
-0.298445
-0.456358
-0.395464
1.02968
0.991627
-0.604491
1.12928
-0.344123
-0.229983
-0.00113767
-0.529261
0.999459
-0.283475
-0.589152
-0.0398906
-0.189408
-0.271895
1.02207
-0.253233
-0.0428206
0.954208
0.654378
1.02402
-0.432892
0.67007
1.02573
-0.318296
-0.229221
-0.107896
0.947373
-0.708384
-0.41892
0.652268
-0.44809
0.900987
1.03578
0.569987
-0.809261
1.09249
-0.225022
0.211741
-0.592335
0.935752
0.769327
0.918889
0.926576
-0.456415
-0.478796
-0.289523
-0.690027
-0.404536
-0.85003
0.962789
0.514472
-0.52374
0.94065
-0.0811142
-0.126443
0.491478
-0.109788
-0.348914
-0.497028
1.04882
-0.133514
0.930313
-0.387032
0.951574
-0.980871
-0.363514
1.27357
-0.668019
-0.34607
0.963874
-0.454446
-0.286154
-0.227042
-0.361626
0.28957
-0.712349
-0.0379909
-0.495973
-0.553333
-0.359736
1.02837
-0.443086
1.0645
-0.387994
-0.161508
-0.514417
0.234707
-0.162234
-0.671934
0.949685
1.0672
1.0517
0.95144
-0.212435
-0.369631
1.06857
-0.15463
-0.517632
1.05002
-0.589287
-0.718964
-0.197153
-0.198462
-0.436648
-0.165396
-0.05731
0.0466309
0.955357
0.976176
-0.586163
0.986693
1.02645
-0.406583
0.91341
1.11447
-0.500316
1.26829
-1.12409
-0.125695
-0.282461
0.965994
-0.267717
-0.304014
-0.174568
-0.638399
0.928644
-0.228904
-0.175174
-0.171339
-0.0427409
0.843262
-0.0340872
0.830445
-0.535598
-0.0212028
0.622366
0.976696
-0.449002
0.00987072
-0.469889
-0.586465
-0.63352
1.02693
1.02313
0.983742
-0.0883235
-0.0652973
-0.102886
-0.555731
-0.783667
1.253
0.260102
0.855595
1.03185
-0.572549
0.922541
1.07511
-0.0872946
-0.232535
-0.879283
-0.559357
0.95133
0.883236
-0.0386197
-0.53973
-0.0718603
-0.851573
-0.324456
1.03219
1.03799
-0.183679
0.0536156
-0.069091
-0.184697
1.08113
-0.162176
-0.249512
-0.270227
0.922379
-0.515723
-0.631739
0.56372
-0.33099
0.967075
0.95077
-0.542652
-0.131248
-0.405954
0.704646
0.516758
-0.0209612
-0.577342
-0.519864
-0.190499
-0.531802
-0.264214
1.03073
-0.82643
-0.523437
0.970488
-0.00933002
-0.277353
0.744533
-0.0480194
0.954299
1.04434
1.10139
-0.350982
-0.00697884
0.900493
-0.148055
0.954413
0.926171
0.913207
-0.229009
0.90056
-0.195571
-0.390984
0.973618
-0.60981
-0.666884
-0.234745
-0.558755
-0.199459
-0.255864
-0.0133535
1.01329
0.933711
1.04286
-0.172856
0.91091
0.99845
-0.268473
-0.570301
-0.261136
-0.143908
-0.031622
0.538467
-0.523312
-0.394833
0.891665
0.0103948
0.86577
-0.0391182
0.784269
-0.0895151
0.76553
0.935624
1.02813
-0.563796
0.0178896
0.694163
-0.416037
0.888969
-0.107161
0.0727063
-0.431418
-0.198102
0.959982
0.879644
-0.186684
-0.246926
-0.138634
-0.0113684
-0.533006
-0.121269
0.96311
-0.668368
-0.0652098
0.845645
-0.302176
-0.250239
-0.288818
-0.566847
-0.522949
-0.0065034
-0.639712
-0.248656
0.897638
1.06442
-0.18882
-0.46928
0.0316528
0.921427
-0.30366
1.01834
1.23218
-0.665529
0.917941
1.00189
-0.787299
-0.491961
1.06421
0.90085
1.05362
0.918207
0.950428
1.13779
-0.437156
-0.0135197
0.877028
1.03564
-0.410752
0.966973
-0.252339
1.04792
0.828691
1.00451
-0.269466
-0.687563
-0.539616
0.927736
0.937992
-0.193134
-0.037369
0.952594
-0.254276
-0.33755
1.0828
-0.266907
-0.137982
-0.571074
-0.392253
-0.521468
0.99908
-0.52707
1.04066
0.764862
1.19766
0.329621
0.981213
-0.531628
1.1661
-0.537383
1.03754
0.977697
-0.544996
0.935819
1.00001
-0.512649
-0.187524
-0.434287
1.01784
0.720452
1.04169
-0.196782
-0.0590203
-0.555485
0.398381
-0.334971
-0.364068
0.967783
0.880272
1.10812
0.631932
-0.16026
1.19618
0.0333262
1.21207
-0.650315
-0.227899
-0.17248
-0.298925
0.611527
0.108584
1.01918
-0.18496
-0.590698
0.954774
0.974769
-0.289837
0.903933
1.04308
0.977018
-0.274496
1.02454
-0.437342
-0.573761
-0.122788
-0.187318
0.885533
-0.400071
0.583788
-0.830067
-0.188893
0.368732
-0.031049
0.904819
0.935644
0.895586
0.861965
-0.0455598
0.768437
1.13664
-0.0586937
-0.517661
0.991006
0.665119
-0.725249
-0.0396092
0.925755
-0.0803974
1.01887
1.26078
-0.369297
0.99103
-0.291932
-0.168911
0.739032
1.02927
-0.197152
-0.482456
0.91606
-0.0228335
1.03955
1.19693
-0.167308
0.749
-0.178193
0.962905
1.15166
-0.592386
0.622559
1.08484
-0.674395
0.823153
1.05656
1.12989
1.08305
0.326116
0.130522
-0.162371
-0.406021
-0.590248
1.05835
1.05034
-0.414911
-0.00499939
0.77824
0.599882
-0.260497
1.09134
0.0527775
1.00155
-0.403643
1.06502
0.929934
-0.0421537
-0.22756
-0.221041
1.02435
0.94799
0.850412
0.887415
0.990629
-0.165087
-0.230891
-0.532685
-0.415321
-0.264587
0.800855
0.989955
1.00875
-0.628665
0.883848
-0.149584
-0.860713
1.02698
-0.0713348
-0.54153
1.12576
0.914855
0.227834
-0.41659
-0.314905
1.0889
-0.27332
-0.044231
-0.533887
-0.0349843
-0.144132
0.953738
-0.412424
-0.266832
-0.667995
-0.448431
-0.342058
-0.0345743
0.982249
0.952873
-0.385059
1.02759
-0.131949
-0.210933
-0.121932
-0.234868
-0.36239
-0.470967
-0.184153
-0.402646
1.04264
-0.582831
-0.208605
0.0208358
-0.20058
-0.516423
0.960701
-0.686566
1.04365
0.063944
-0.924843
-0.397304
-0.383421
-0.181081
0.0469607
1.08399
1.19505
0.982624
1.01413
1.01788
0.291026
1.07403
-0.482836
1.15628
-0.206052
-0.302591
0.872008
0.924859
-0.290768
-0.311345
1.03111
0.403112
0.93563
1.26068
0.192505
-0.412567
0.985487
0.851715
0.821476
0.899469
1.21267
1.03022
-0.160242
-0.487538
1.03832
-0.0602204
1.02312
0.879052
0.526326
1.04222
-0.249698
0.883331
0.991
1.00792
0.895417
-0.0584918
1.05351
-0.0142623
-0.496638
-0.723553
-0.291614
-0.194114
-0.274584
-0.067422
-0.257964
0.0240656
0.0583702
0.933497
-0.282055
0.569425
1.02773
1.03504