/*--------------------------------*- C++ -*----------------------------------*\
| =========                 |                                                 |
| \\      /  F ield         | OpenFOAM: The Open Source CFD Toolbox           |
|  \\    /   O peration     | Version:  3.0.1                                 |
|   \\  /    A nd           | Web:      www.OpenFOAM.org                      |
|    \\/     M anipulation  |                                                 |
\*---------------------------------------------------------------------------*/
FoamFile
{
    version     2.0;
    format      ascii;
    class       surfaceVectorField;
    location    "0.070967";
    object      Uf;
}
// * * * * * * * * * * * * * * * * * * * * * * * * * * * * * * * * * * * * * //

dimensions      [0 1 -1 0 0 0 0];

internalField   nonuniform List<vector> 
32369
(
(4.16024 0.0418083 -6.54275e-19)
(4.291 0.404598 2.32236e-18)
(5.71595 0.376486 4.46223e-19)
(4.25909 0.316872 -4.3607e-19)
(3.47436 0.339333 -3.18739e-19)
(4.78723 0.706199 -4.05929e-19)
(4.19521 0.393968 -8.39433e-22)
(3.73305 0.234138 4.86939e-19)
(4.5285 0.806073 1.81624e-19)
(4.02934 0.450773 -6.78061e-21)
(3.7988 0.21354 -3.4774e-19)
(4.27274 0.80548 3.48549e-21)
(3.79721 0.520272 -6.80485e-20)
(3.71109 0.250467 -6.42279e-20)
(3.97955 0.801469 -6.74114e-20)
(3.52473 0.595494 -2.08442e-21)
(3.54491 0.328024 7.0222e-21)
(3.67073 0.81722 5.25811e-20)
(3.24627 0.658898 -1.41196e-19)
(3.32369 0.429898 -1.4743e-19)
(3.36321 0.84162 -1.18854e-19)
(2.99488 0.689773 -1.03382e-19)
(3.08296 0.520626 -5.48182e-20)
(3.0826 0.851858 -9.74743e-20)
(2.77872 0.677703 4.49658e-20)
(2.86619 0.560969 2.88344e-20)
(2.84374 0.829265 4.00456e-20)
(2.59414 0.626885 3.15207e-20)
(2.67838 0.54821 0)
(2.64473 0.773327 -2.61091e-20)
(2.53042 0.493559 3.51795e-20)
(2.48776 0.699093 4.2546e-20)
(2.4317 0.536111 -2.51494e-19)
(3.02129 0.757131 1.86438e-18)
(3.35763 1.4715 5.68857e-20)
(3.23693 0.381542 4.24319e-19)
(2.85685 0.914576 -1.95489e-18)
(3.41076 0.201186 2.43893e-19)
(3.08952 0.447731 5.9481e-19)
(3.50359 0.129489 -3.9894e-19)
(3.24377 0.193115 7.18936e-19)
(3.49453 0.135348 -3.63318e-20)
(3.30184 0.0703685 0)
(3.38596 0.205931 -7.75739e-20)
(3.28553 0.0488128 -2.72147e-20)
(3.20271 0.313646 -3.88398e-20)
(3.18945 0.114989 -1.27032e-20)
(2.99238 0.406664 1.75139e-20)
(3.02747 0.229796 -1.03067e-19)
(2.79795 0.445667 -1.12944e-20)
(2.84928 0.323326 -6.98278e-20)
(2.62631 0.429148 0)
(2.68468 0.352219 1.89521e-20)
(2.54809 0.322605 0)
(2.47928 0.354693 2.65568e-19)
(2.90292 1.63728 -3.19672e-18)
(3.22888 2.39653 -3.78036e-18)
(2.83074 0.943123 -1.98529e-18)
(2.85295 1.60413 -1.78557e-18)
(2.90977 0.49169 1.23446e-18)
(2.83068 0.953446 1.36746e-19)
(3.02009 0.204316 1.1191e-18)
(2.87889 0.495119 8.62474e-19)
(3.09795 0.0426132 5.48357e-20)
(2.93533 0.189343 0)
(3.11026 -0.000120329 1.53669e-19)
(2.97482 0.00984955 -2.6871e-19)
(3.04684 0.055944 2.42365e-20)
(2.96702 -0.0350797 3.73096e-19)
(2.91988 0.160472 -1.78775e-19)
(2.89692 0.0271188 -8.33666e-20)
(2.76941 0.240044 -6.7935e-20)
(2.78186 0.129324 -3.93301e-20)
(2.62157 0.251302 2.08582e-20)
(2.65585 0.186574 1.85094e-20)
(2.54664 0.165802 9.25905e-22)
(2.47472 0.160457 9.11778e-20)
(3.17876 2.36934 -2.5902e-18)
(3.58001 2.9558 -4.3901e-18)
(2.87353 1.57389 0)
(3.09148 2.17743 1.5289e-18)
(2.76909 0.963615 -9.30349e-20)
(2.85527 1.47253 1.08954e-18)
(2.76535 0.503268 -1.15382e-19)
(2.7498 0.898009 -9.66765e-19)
(2.79755 0.180705 -2.88122e-19)
(2.72005 0.451751 0)
(2.83075 -0.00332348 -6.50632e-20)
(2.72804 0.138701 -3.20352e-19)
(2.83297 -0.0526621 3.69116e-19)
(2.74014 -0.0292356 7.28344e-19)
(2.78635 -0.000629335 8.88343e-20)
(2.72654 -0.0585346 -4.68707e-19)
(2.69941 0.0797322 3.7466e-20)
(2.67704 0.00608905 2.33456e-19)
(2.59366 0.113086 8.12364e-22)
(2.59995 0.068283 1.57225e-19)
(2.52666 0.0636261 -7.23166e-20)
(2.48274 0.0496296 -2.92493e-19)
(3.54995 2.87746 -7.71706e-19)
(3.90318 3.19663 -2.03358e-18)
(3.10012 2.10147 2.63558e-18)
(3.34977 2.59516 2.19954e-19)
(2.83411 1.42986 4.26852e-19)
(3.00666 1.9108 1.96925e-18)
(2.69173 0.869321 -9.46329e-19)
(2.77064 1.28905 -7.07605e-19)
(2.63328 0.432181 0)
(2.63493 0.764119 0)
(2.62459 0.130008 3.89334e-19)
(2.57342 0.35682 1.82138e-19)
(2.63333 -0.0284376 -1.54751e-20)
(2.55835 0.0865048 5.56797e-19)
(2.63117 -0.056909 -4.13639e-19)
(2.55987 -0.0370381 -5.90348e-19)
(2.59973 -0.0106247 3.5895e-19)
(2.55382 -0.0376423 4.77181e-19)
(2.54476 0.0260917 1.1991e-19)
(2.52632 0.00750031 -1.53579e-19)
(2.49262 0.00976749 -1.48287e-19)
(2.47216 -0.0174501 -5.11459e-19)
(3.72945 3.05569 -1.14341e-18)
(4.03593 3.23592 -1.67079e-18)
(3.31467 2.46768 -7.42584e-19)
(3.56788 2.87289 -2.1551e-19)
(2.96803 1.82915 1.10865e-18)
(3.19885 2.26766 1.00471e-18)
(2.72009 1.23082 1.51629e-19)
(2.86866 1.65133 -6.28269e-19)
(2.569 0.725678 1.61434e-19)
(2.63669 1.08713 5.11412e-19)
(2.49577 0.339767 3.09045e-19)
(2.49722 0.61864 -8.57777e-19)
(2.47669 0.0909207 6.89265e-20)
(2.43279 0.272609 5.02511e-19)
(2.48467 -0.0189961 1.64661e-19)
(2.42036 0.0674499 -7.40498e-20)
(2.49208 -0.0261989 5.84742e-20)
(2.43399 -0.00269545 1.78926e-19)
(2.48254 -0.00664684 -4.1419e-19)
(2.44633 0.00611911 -1.92123e-19)
(2.4506 0.0027563 -1.62905e-19)
(2.44989 -0.0411841 -1.29738e-19)
(3.88719 3.12698 -7.58028e-19)
(4.11621 3.19279 -4.14227e-18)
(3.51903 2.7118 1.26053e-18)
(3.74219 3.00435 3.65094e-18)
(3.1345 2.15589 -5.51635e-19)
(3.39112 2.52318 -5.42542e-19)
(2.8074 1.56615 -3.85167e-19)
(3.00486 1.9657 -7.62505e-19)
(2.57264 1.02941 -3.49787e-19)
(2.69515 1.39916 2.81666e-19)
(2.43085 0.589826 -7.35218e-19)
(2.48198 0.898821 -5.00948e-19)
(2.36864 0.273256 4.29738e-19)
(2.36146 0.502336 -2.78976e-19)
(2.3652 0.0918006 -8.66426e-20)
(2.31951 0.233812 3.30287e-19)
(2.39182 0.0262959 -5.71195e-22)
(2.33436 0.0995105 8.89781e-20)
(2.41865 0.0148793 6.22187e-20)
(2.37362 0.062549 -1.77257e-20)
(2.41089 0.0410512 6.78485e-20)
(2.42382 -0.0234642 -1.86491e-19)
(3.98329 3.11831 -2.24585e-19)
(4.16365 3.1062 -4.38235e-18)
(3.67311 2.84195 2.37042e-18)
(3.84997 3.02825 4.61621e-18)
(3.29759 2.39615 -7.30562e-19)
(3.54992 2.6799 -1.68346e-18)
(2.92534 1.85601 -2.03543e-19)
(3.1493 2.21418 -1.45051e-19)
(2.62314 1.32187 2.15609e-19)
(2.78789 1.67944 -8.82817e-19)
(2.41776 0.856549 -2.45095e-20)
(2.51354 1.1767 8.36859e-19)
(2.30842 0.4953 -3.9952e-19)
(2.33978 0.754459 -6.44175e-19)
(2.28205 0.257728 5.30959e-19)
(2.26276 0.442348 6.16657e-19)
(2.31334 0.137645 8.59295e-20)
(2.2672 0.254865 5.44263e-19)
(2.36633 0.0879879 -1.6471e-20)
(2.32133 0.170802 -4.05523e-19)
(2.38526 0.123581 1.54185e-19)
(2.40582 0.0324905 -3.04663e-20)
(4.02879 3.06184 -8.47948e-20)
(4.18554 2.9945 -3.85889e-18)
(3.77408 2.88109 1.38479e-18)
(3.90476 2.99546 2.8872e-18)
(3.43596 2.55054 -1.25161e-18)
(3.6622 2.75106 -4.66999e-19)
(3.0512 2.08776 -7.42698e-19)
(3.28326 2.38983 -5.64164e-19)
(2.70454 1.58652 -4.25646e-19)
(2.89896 1.91437 -8.47624e-19)
(2.44777 1.12196 3.66304e-19)
(2.58158 1.43601 -5.24674e-19)
(2.29484 0.738393 2.67027e-19)
(2.36382 1.01096 6.56697e-19)
(2.24166 0.461668 6.37791e-19)
(2.25324 0.674509 -2.72825e-19)
(2.26818 0.295215 1.5494e-19)
(2.24181 0.447031 3.79373e-19)
(2.33623 0.206043 -2.97051e-19)
(2.3007 0.318786 -2.66977e-19)
(2.38259 0.239134 -1.37139e-19)
(2.3989 0.127326 8.19286e-20)
(4.04751 2.97989 -1.06481e-18)
(4.1864 2.87455 -2.55401e-18)
(3.83547 2.86111 1.4705e-18)
(3.92859 2.93427 -5.60162e-21)
(3.54107 2.63216 1.95826e-19)
(3.73016 2.75341 1.43405e-18)
(3.17275 2.26007 -6.43593e-19)
(3.39977 2.49778 7.97672e-20)
(2.80764 1.81302 -9.77492e-19)
(3.02022 2.10047 -5.60926e-19)
(2.51561 1.37207 -3.44712e-19)
(2.67944 1.66403 -5.58509e-19)
(2.32754 0.986278 2.20418e-19)
(2.43076 1.25597 2.78376e-19)
(2.249 0.686509 -5.61524e-19)
(2.29304 0.912429 -2.73083e-19)
(2.2657 0.483282 2.34188e-20)
(2.26509 0.658124 2.06261e-19)
(2.3399 0.355554 -1.21731e-19)
(2.32169 0.491612 -5.53009e-21)
(2.41231 0.376921 -1.39637e-19)
(2.42502 0.256184 -1.12264e-19)
(4.0476 2.8881 -1.47665e-18)
(4.16912 2.75455 -6.11694e-19)
(3.86515 2.80746 -3.53513e-19)
(3.9313 2.85895 -6.84899e-19)
(3.61532 2.65266 1.42121e-18)
(3.76626 2.71139 8.81338e-19)
(3.28615 2.37474 2.25665e-19)
(3.49 2.54165 5.05765e-19)
(2.92525 1.99408 -1.63731e-19)
(3.14256 2.23241 -3.57072e-19)
(2.61624 1.5927 -1.28764e-20)
(2.79917 1.84953 4.00229e-19)
(2.40525 1.22157 -1.31577e-19)
(2.53596 1.47338 -5.26976e-19)
(2.30695 0.913497 4.55085e-19)
(2.38145 1.13756 2.72275e-19)
(2.31232 0.683747 1.86593e-19)
(2.34009 0.868822 1.7286e-19)
(2.38562 0.521318 1.25649e-20)
(2.38985 0.671916 3.94742e-19)
(2.48236 0.524448 -8.6894e-21)
(2.47705 0.388132 -5.46579e-21)
(4.02938 2.78943 1.91692e-19)
(4.14113 2.63575 0)
(3.87208 2.73459 2.34164e-19)
(3.91934 2.77461 1.09424e-19)
(3.66061 2.62578 0)
(3.78431 2.6438 -1.46806e-19)
(3.38029 2.42865 1.00987e-20)
(3.55284 2.53057 0)
(3.05124 2.12277 1.20077e-19)
(3.25798 2.30669 1.83251e-19)
(2.74176 1.76977 -1.5884e-20)
(2.93056 1.98431 1.05992e-19)
(2.52312 1.42677 -1.84048e-19)
(2.6713 1.64934 -2.90699e-19)
(2.41422 1.12323 0)
(2.51358 1.33301 3.26678e-19)
(2.40949 0.877189 3.36396e-19)
(2.46465 1.06032 0)
(2.47528 0.686661 4.19635e-19)
(2.50451 0.840515 2.64404e-19)
(2.58748 0.661431 9.15093e-20)
(2.56065 0.528638 0)
(4.00413 2.68763 -9.22027e-20)
(4.10989 2.51511 0)
(3.86887 2.64919 -2.45021e-19)
(3.90298 2.68561 -1.02535e-19)
(3.69068 2.57054 -1.62094e-19)
(3.79441 2.56001 -9.61891e-22)
(3.45894 2.42958 1.50019e-19)
(3.60131 2.48531 0)
(3.17166 2.19655 1.77256e-19)
(3.35886 2.32457 1.67553e-19)
(2.88439 1.8985 -1.29658e-19)
(3.06853 2.06761 -2.24032e-19)
(2.6744 1.59043 1.54073e-19)
(2.83045 1.77791 -2.75695e-19)
(2.56546 1.30034 3.62833e-19)
(2.68215 1.48749 2.23242e-19)
(2.55365 1.04618 -8.80749e-20)
(2.63233 1.21836 -1.14727e-19)
(2.60841 0.832293 -2.82721e-20)
(2.66223 0.982724 -1.83727e-19)
(2.73236 0.777479 1.33125e-20)
(2.69322 0.650805 3.18471e-20)
(3.98349 2.58635 0)
(4.08268 2.39921 -4.85388e-19)
(3.8664 2.55716 1.31459e-19)
(3.88863 2.59642 3.79016e-19)
(3.71617 2.49771 1.60931e-19)
(3.80247 2.46679 1.46261e-19)
(3.52693 2.39442 0)
(3.64291 2.41959 0)
(3.28675 2.21977 -1.92189e-19)
(3.44798 2.30066 7.07452e-20)
(3.03864 1.9775 -3.63171e-19)
(3.20798 2.10176 -3.5129e-19)
(2.8517 1.70748 -2.45682e-19)
(3.00586 1.85746 2.07854e-19)
(2.75249 1.43539 -2.13944e-19)
(2.87845 1.59541 -1.96595e-19)
(2.73719 1.17898 -1.97632e-19)
(2.83377 1.33427 3.68435e-21)
(2.77877 0.947909 -1.57473e-19)
(2.85403 1.08834 -2.09297e-20)
(2.90804 0.859974 -2.22535e-19)
(2.84283 0.740819 3.06789e-19)
(3.96316 2.48633 2.54128e-21)
(4.06121 2.29173 -9.76353e-19)
(3.86172 2.46197 4.17358e-19)
(3.87671 2.50814 3.79113e-19)
(3.73675 2.41322 0)
(3.81095 2.36908 0)
(3.58585 2.33482 6.35752e-20)
(3.67973 2.34118 2.41878e-20)
(3.39482 2.20221 -4.44463e-20)
(3.52775 2.24862 2.98566e-22)
(3.19612 2.00817 1.62765e-19)
(3.3436 2.09415 -8.80597e-20)
(3.04503 1.77522 2.94558e-19)
(3.1883 1.89119 2.94184e-19)
(2.96381 1.52334 -4.0001e-21)
(3.09088 1.65642 -5.90614e-21)
(2.94892 1.2691 1.79318e-19)
(3.05728 1.40497 1.15343e-19)
(2.97719 1.02488 -6.4302e-20)
(3.07086 1.15235 3.14048e-20)
(3.10488 0.902717 -8.86421e-20)
(3.02003 0.799704 3.63756e-20)
(3.949 2.39121 -5.39606e-19)
(4.04602 2.19093 -4.90946e-19)
(3.86025 2.36729 0)
(3.87089 2.42286 3.50543e-19)
(3.75739 2.32345 2.17374e-20)
(3.8228 2.27197 -2.73977e-19)
(3.63973 2.26022 -3.73623e-20)
(3.71557 2.25736 3.75465e-19)
(3.49654 2.15658 -3.44064e-20)
(3.60234 2.18099 -3.60793e-19)
(3.35238 2.00017 6.7734e-21)
(3.47455 2.05911 4.97619e-20)
(3.2447 1.79979 2.74165e-20)
(3.37092 1.88964 -1.71276e-19)
(3.18879 1.56659 1.00587e-19)
(3.31107 1.67815 1.78438e-19)
(3.17965 1.3144 -2.40993e-20)
(3.29532 1.43471 8.19017e-20)
(3.19651 1.05892 2.54051e-20)
(3.30543 1.17553 -1.04445e-19)
(3.3233 0.905246 9.50866e-20)
(3.22612 0.813253 1.2299e-19)
(3.94543 2.30237 3.14196e-19)
(4.03986 2.09905 -7.83761e-23)
(3.86646 2.27619 2.6738e-19)
(3.87349 2.34083 3.03774e-19)
(3.78204 2.2345 1.33561e-20)
(3.83852 2.18056 -2.38202e-19)
(3.69286 2.1806 1.47006e-19)
(3.75212 2.17535 4.0004e-19)
(3.59473 2.09671 -3.19973e-19)
(3.67448 2.11143 -2.54365e-19)
(3.50493 1.96887 -1.05081e-19)
(3.59993 2.01386 0)
(3.44464 1.79413 -4.17713e-20)
(3.55066 1.86944 -1.48421e-19)
(3.42068 1.57478 1.70514e-19)
(3.53542 1.67351 1.57456e-19)
(3.4222 1.32171 3.38621e-20)
(3.5439 1.43061 3.09028e-20)
(3.4283 1.05457 -4.10471e-20)
(3.55266 1.15894 -7.83718e-20)
(3.54345 0.864762 3.27108e-20)
(3.43372 0.801151 2.21266e-20)
(3.94809 2.219 -3.94711e-20)
(4.03946 2.01747 9.77136e-22)
(3.87628 2.19084 -1.82559e-20)
(3.88025 2.26148 -4.27728e-20)
(3.80756 2.15188 8.28032e-20)
(3.85433 2.09931 2.05965e-19)
(3.74416 2.10649 8.59267e-20)
(3.78636 2.10442 -4.14891e-19)
(3.68803 2.03904 3.88358e-20)
(3.74229 2.05626 1.51541e-19)
(3.65142 1.93326 -2.73638e-20)
(3.71987 1.97956 1.01296e-19)
(3.64395 1.77556 2.82086e-20)
(3.73071 1.85116 -6.05119e-20)
(3.65929 1.5597 1.98673e-20)
(3.76885 1.65661 1.14305e-19)
(3.67613 1.29515 -5.76036e-20)
(3.80778 1.39858 -5.20604e-20)
(3.67063 1.00654 0)
(3.81649 1.10113 0)
(3.77885 0.778063 1.06532e-21)
(3.63964 0.725095 1.71905e-19)
(3.95455 2.14171 2.20809e-22)
(4.03939 1.94515 1.1192e-18)
(3.88608 2.11327 1.52582e-19)
(3.88447 2.18549 -3.70382e-19)
(3.83082 2.0828 -2.81566e-19)
(3.86159 2.03697 8.80189e-20)
(3.79179 2.05171 -4.20952e-19)
(3.81166 2.06254 -2.45522e-19)
(3.77834 2.00454 2.18388e-19)
(3.80323 2.03856 -4.76786e-20)
(3.79979 1.91692 8.79436e-20)
(3.84094 1.98019 -1.31853e-19)
(3.8536 1.76255 2.40911e-20)
(3.92478 1.84684 1.16209e-19)
(3.91564 1.53038 4.94425e-20)
(4.02587 1.62388 1.2955e-19)
(3.95002 1.23525 0)
(4.09712 1.32451 -9.02782e-20)
(3.92938 0.913067 9.51315e-22)
(4.10023 0.985453 -4.20811e-20)
(4.0216 0.628903 8.67437e-21)
(3.87294 0.606958 -7.96266e-20)
(3.96065 2.06954 6.8131e-19)
(4.03908 1.89934 6.28638e-19)
(3.88838 2.04885 -4.7503e-19)
(3.86768 2.12314 5.5333e-19)
(3.84038 2.04474 1.05935e-19)
(3.83598 2.02061 -2.28775e-19)
(3.82496 2.04364 1.05261e-19)
(3.81142 2.07021 2.11948e-19)
(3.857 2.02086 -3.72759e-19)
(3.85135 2.05353 -2.46154e-19)
(3.94141 1.93842 -1.12009e-19)
(3.95917 1.95834 -1.02221e-19)
(4.06563 1.75232 2.34978e-19)
(4.10824 1.6857 2.00906e-19)
(4.18291 1.46478 1.41075e-20)
(4.25709 1.34506 1.4828e-19)
(4.23546 1.11221 -1.38327e-19)
(4.34574 0.977226 -5.42684e-20)
(4.19374 0.747037 -4.03257e-20)
(4.34069 0.631977 6.50209e-20)
(4.22632 0.320151 7.6852e-21)
(4.09149 0.421157 8.68635e-20)
(3.95266 2.02844 5.12722e-19)
(3.9504 1.86965 5.46353e-21)
(3.82499 2.03678 9.80903e-19)
(3.74426 2.07492 3.5333e-19)
(3.78937 2.07115 -1.90171e-19)
(3.73822 2.0049 2.351e-19)
(3.81613 2.08403 -7.51525e-20)
(3.77177 2.0235 -1.45386e-19)
(3.94652 1.99404 6.00152e-20)
(3.88172 1.79056 3.53508e-20)
(4.15712 1.73091 6.66413e-20)
(4.09299 1.44401 1.70517e-19)
(4.33822 1.32512 -2.10896e-19)
(4.29122 0.997846 -2.26452e-19)
(4.43708 0.90137 -1.42451e-20)
(4.38802 0.594123 6.69406e-21)
(4.44765 0.53283 1.09751e-19)
(4.3961 0.240092 6.41244e-20)
(4.36978 0.245564 4.81873e-20)
(4.32758 -0.0424787 -6.52367e-20)
(4.18868 -0.265099 4.85449e-20)
(4.23855 0.0209408 -2.86339e-20)
(3.67124 2.0035 1.20774e-19)
(3.49389 1.91731 2.76607e-18)
(3.63948 2.01377 -3.00966e-19)
(3.52448 1.81631 -1.23657e-18)
(3.75886 1.95517 3.13536e-19)
(3.69231 1.67761 3.88277e-19)
(3.91841 1.70104 -6.82934e-20)
(3.87208 1.38688 3.74675e-20)
(4.09965 1.25686 1.17493e-19)
(4.07165 0.910032 4.9169e-20)
(4.25213 0.762608 -7.72739e-20)
(4.21207 0.46956 2.84426e-20)
(4.33741 0.337814 -2.39995e-20)
(4.29179 0.0946134 -3.99417e-19)
(4.35069 -0.0191757 6.12419e-20)
(4.31787 -0.229639 2.60733e-19)
(4.29352 -0.31047 -9.61186e-20)
(4.28561 -0.508625 -6.61836e-20)
(4.16858 -0.527155 -7.83101e-20)
(4.18103 -0.730823 -6.73264e-20)
(3.98279 -0.895447 8.89776e-20)
(4.03519 -0.660706 1.33064e-19)
(3.36626 1.65365 2.26084e-18)
(3.21214 1.58505 5.01943e-18)
(3.72567 1.45987 -7.85442e-19)
(3.7215 1.13046 -1.18328e-18)
(3.88861 1.09627 1.5487e-19)
(3.87137 0.793925 -8.99206e-20)
(4.03394 0.647333 1.34312e-19)
(3.98931 0.38893 2.09762e-20)
(4.14827 0.237344 -3.45854e-20)
(4.0896 0.0388426 1.22602e-19)
(4.22233 -0.112244 -2.42875e-19)
(4.16282 -0.254632 -9.11851e-20)
(4.25709 -0.414437 -1.78328e-19)
(4.21463 -0.516325 4.03864e-20)
(4.24806 -0.676173 1.73292e-19)
(4.23722 -0.752135 3.97744e-19)
(4.1794 -0.898282 -6.47822e-20)
(4.21707 -0.966157 -2.11257e-19)
(4.02408 -1.06603 1.37325e-19)
(4.1265 -1.14848 -1.28459e-19)
(3.92017 -1.28759 2.08077e-19)
(3.80346 -1.16878 1.88688e-20)
(3.76836 0.897225 1.57114e-18)
(4.19824 -0.332162 1.23058e-18)
(3.89232 0.513231 -6.20612e-19)
(3.9184 0.117136 -2.10458e-19)
(3.97832 0.157185 -2.50557e-19)
(3.9184 -0.0665899 4.6205e-19)
(4.04251 -0.147156 -3.51303e-20)
(3.97487 -0.271565 -2.68629e-19)
(4.0985 -0.396452 9.37051e-20)
(4.03961 -0.455731 -5.85892e-19)
(4.15115 -0.614538 1.66792e-19)
(4.10974 -0.63711 3.80337e-19)
(4.19233 -0.819206 5.59659e-19)
(4.17757 -0.82397 2.5117e-19)
(4.20775 -1.01188 8.86749e-20)
(4.2238 -1.00484 -4.12067e-20)
(4.17365 -1.1914 -2.82712e-19)
(4.23683 -1.18864 6.23199e-21)
(4.05706 -1.33639 1.56507e-19)
(4.18562 -1.35938 -1.7281e-19)
(4.04321 -1.48784 2.43683e-19)
(3.8433 -1.43402 -4.78132e-21)
(5.57833 1.6374 -5.36753e-20)
(5.20672 2.36803 1.30759e-19)
(4.99967 1.40644 1.26749e-19)
(5.02238 2.12911 1.59448e-19)
(4.61665 1.22673 6.909e-20)
(4.78989 1.84647 8.871e-20)
(4.26377 1.11095 -5.58925e-20)
(4.50172 1.6068 -2.28308e-20)
(3.91173 1.0521 0)
(4.16396 1.43214 -1.61522e-20)
(3.56732 1.02868 2.8657e-20)
(3.79754 1.31988 -3.02443e-20)
(3.24916 1.0146 4.99315e-20)
(3.43414 1.2485 -8.88757e-21)
(2.97343 0.985976 1.77749e-20)
(3.10666 1.18772 -2.30504e-20)
(2.74354 0.930087 -2.30449e-20)
(2.83336 1.11349 0)
(2.55303 0.846759 3.85189e-20)
(2.61369 1.02061 -2.54469e-20)
(2.44698 0.91953 7.67551e-20)
(2.39665 0.740259 5.75517e-20)
(4.80503 2.94027 1.56683e-19)
(4.46405 3.2748 -1.42022e-19)
(4.76942 2.53651 4.26933e-20)
(4.58073 2.96976 -9.71671e-20)
(4.62845 2.17912 1.70702e-20)
(4.59593 2.65512 1.86232e-19)
(4.37917 1.88591 2.22889e-20)
(4.47037 2.34674 1.11463e-20)
(4.04927 1.66982 -4.10757e-20)
(4.22119 2.07499 -1.40014e-20)
(3.67913 1.52319 -6.3471e-20)
(3.88068 1.86187 -4.43861e-20)
(3.31455 1.41905 -3.83986e-20)
(3.49888 1.70224 -3.99853e-20)
(2.99229 1.325 2.90764e-21)
(3.13192 1.56984 2.55013e-21)
(2.72759 1.22072 0)
(2.82071 1.43823 0)
(2.51587 1.10034 1.06524e-20)
(2.57509 1.30179 6.59616e-21)
(2.39042 1.17545 2.98385e-21)
(2.33973 0.964081 9.12508e-21)
(4.35133 3.31756 -8.63572e-20)
(4.19221 3.44835 -8.50283e-19)
(4.43561 3.12222 7.73399e-20)
(4.26519 3.32434 -2.07262e-20)
(4.4332 2.85307 1.6109e-19)
(4.3203 3.13299 1.75739e-19)
(4.3084 2.55703 -7.40067e-21)
(4.28788 2.89344 -1.92653e-19)
(4.05964 2.2815 4.17324e-20)
(4.13418 2.63069 8.31283e-20)
(3.71798 2.05396 1.25782e-19)
(3.85752 2.38513 6.33248e-20)
(3.3395 1.87147 8.78349e-20)
(3.49418 2.17464 7.30113e-20)
(2.98463 1.70995 0)
(3.10928 1.98643 6.41078e-22)
(2.691 1.54981 5.76731e-21)
(2.76894 1.79565 1.37007e-20)
(2.4638 1.38795 1.07425e-20)
(2.50416 1.60274 -3.40909e-21)
(2.31306 1.43623 -2.22302e-21)
(2.28105 1.23088 -3.85339e-21)
(4.17945 3.40587 -8.1023e-19)
(4.17083 3.40533 -7.1546e-19)
(4.20052 3.34101 1.15929e-19)
(4.14296 3.41073 -3.21258e-19)
(4.20468 3.20433 -5.76113e-20)
(4.13978 3.32046 2.11723e-19)
(4.13592 2.99986 -7.92562e-20)
(4.10086 3.18535 -1.63401e-19)
(3.95649 2.76204 9.93439e-20)
(3.98562 2.99529 1.38026e-19)
(3.66285 2.52871 -3.10599e-20)
(3.75994 2.78491 -4.74593e-20)
(3.29421 2.31551 -6.16931e-20)
(3.42451 2.58135 -7.6743e-20)
(2.92169 2.10888 1.27328e-20)
(3.03028 2.38571 1.62464e-20)
(2.60807 1.89066 -3.64053e-20)
(2.66027 2.1697 1.35146e-20)
(2.37024 1.67139 -8.60961e-21)
(2.37793 1.92228 -1.07323e-20)
(2.18163 1.70403 6.24408e-20)
(2.16709 1.46775 5.89084e-21)
(4.1583 3.39714 -3.45217e-19)
(4.2111 3.3425 -1.38856e-22)
(4.11917 3.37441 -3.03149e-19)
(4.12941 3.40363 -3.41487e-19)
(4.07069 3.31693 1.45899e-19)
(4.0809 3.34751 1.0109e-19)
(3.98681 3.20443 2.8427e-20)
(3.99657 3.27914 7.68525e-20)
(3.82902 3.04304 -1.42729e-21)
(3.86829 3.16122 -2.4306e-20)
(3.56834 2.85858 -6.46216e-20)
(3.66003 3.00661 -4.03396e-20)
(3.21137 2.67226 -5.51114e-21)
(3.34297 2.83534 -3.52149e-20)
(2.81374 2.48017 1.73027e-20)
(2.9392 2.66417 2.87771e-20)
(2.45904 2.25233 -8.504e-22)
(2.52033 2.46467 -1.93287e-21)
(2.20298 1.98494 3.06642e-22)
(2.18871 2.19852 -3.48703e-20)
(1.98862 1.93518 -4.68415e-20)
(2.01975 1.72538 1.11937e-21)
(4.18147 3.37275 0)
(4.26622 3.29447 -3.13476e-20)
(4.11798 3.35438 -1.77896e-20)
(4.15226 3.38454 2.39805e-20)
(4.03001 3.31832 4.67522e-20)
(4.08708 3.32406 -1.99367e-20)
(3.91105 3.24995 2.54994e-20)
(3.96864 3.27725 6.86708e-20)
(3.74152 3.14367 -6.13736e-20)
(3.81319 3.19567 -4.05807e-20)
(3.48645 3.00357 -1.15993e-20)
(3.59462 3.07809 -1.75394e-20)
(3.12841 2.84593 2.69978e-21)
(3.2804 2.93217 -1.42773e-20)
(2.6979 2.6745 1.29922e-20)
(2.86256 2.77683 1.54112e-20)
(2.28307 2.46166 -3.41576e-21)
(2.38444 2.598 -1.92216e-21)
(1.98801 2.18894 -2.14949e-21)
(1.97741 2.34881 -3.52648e-21)
(1.74446 2.06882 -8.57696e-21)
(1.82214 1.89296 -1.46816e-20)
(4.22221 3.34723 1.09706e-19)
(4.3244 3.25685 -3.17679e-20)
(4.14869 3.32778 2.65783e-20)
(4.1907 3.36315 2.43687e-20)
(4.04189 3.29239 -5.26384e-21)
(4.12244 3.29062 0)
(3.89619 3.23263 3.75853e-21)
(3.98428 3.24602 -7.60296e-20)
(3.70258 3.14482 1.4379e-20)
(3.80804 3.17101 1.39599e-19)
(3.43852 3.02588 -1.23501e-20)
(3.57336 3.06567 -6.45508e-20)
(3.07894 2.88133 1.93952e-21)
(3.25328 2.92972 1.88433e-20)
(2.62143 2.71568 2.42258e-21)
(2.82513 2.77136 3.30909e-21)
(2.13602 2.52131 3.79434e-21)
(2.30542 2.59734 -5.28137e-20)
(1.76631 2.26947 1.50696e-20)
(1.8097 2.3772 4.26968e-21)
(1.50001 2.10453 -8.74625e-20)
(1.57828 1.96646 8.0753e-21)
(4.27515 3.31867 8.90492e-23)
(4.38665 3.22667 -9.84774e-21)
(4.19463 3.29683 1.0924e-22)
(4.23921 3.33766 -1.454e-19)
(4.07826 3.25677 -6.2899e-20)
(4.17196 3.25054 2.47854e-19)
(3.91874 3.19282 3.36366e-20)
(4.02071 3.2032 -4.6928e-20)
(3.70969 3.10494 9.3856e-20)
(3.83371 3.12159 2.55421e-20)
(3.43187 2.98826 -4.24678e-20)
(3.5893 3.01258 -5.36871e-20)
(3.06157 2.84178 1.90535e-20)
(3.26421 2.87218 6.0934e-20)
(2.5897 2.66945 -4.92991e-20)
(2.83203 2.70171 -2.11364e-21)
(2.05639 2.47396 -5.86852e-20)
(2.29116 2.51145 -4.12155e-20)
(1.59108 2.23716 -8.87662e-20)
(1.72074 2.2992 -9.40712e-20)
(1.29909 2.03934 -3.29925e-20)
(1.32007 1.93524 3.47147e-19)
(4.33411 3.28943 -1.42673e-19)
(4.45086 3.20314 -9.65033e-20)
(4.24846 3.26183 2.24727e-19)
(4.29146 3.30801 -1.47305e-19)
(4.12638 3.21406 3.51262e-19)
(4.22975 3.20276 5.88941e-20)
(3.95895 3.14003 -6.83261e-20)
(4.06738 3.15197 3.51614e-19)
(3.74305 3.04226 -1.1021e-19)
(3.87598 3.05644 -1.52501e-19)
(3.46121 2.9158 3.2524e-20)
(3.62879 2.93398 0)
(3.08905 2.75764 4.03784e-20)
(3.30643 2.77875 -2.71238e-19)
(2.60759 2.56876 4.58914e-20)
(2.88136 2.58872 1.98846e-19)
(2.04331 2.35355 -2.63171e-20)
(2.33568 2.36994 2.49991e-19)
(1.50341 2.11541 6.96333e-20)
(1.72127 2.13854 -2.47206e-19)
(1.2058 1.8758 -9.34482e-20)
(1.14927 1.84624 -6.95611e-19)
(4.39655 3.25473 -9.37746e-20)
(4.50898 3.17254 -8.56099e-20)
(4.3079 3.22166 -1.7311e-19)
(4.34828 3.27096 -3.52683e-20)
(4.18026 3.16408 1.71272e-21)
(4.29471 3.14909 4.52529e-20)
(4.00889 3.07594 3.0086e-19)
(4.11818 3.09123 -7.782e-20)
(3.79102 2.96246 -5.82034e-20)
(3.92766 2.97682 2.45833e-19)
(3.51176 2.81784 -2.83692e-19)
(3.6823 2.8345 -3.42948e-19)
(3.1491 2.63817 -2.06129e-19)
(3.36849 2.65653 6.39267e-21)
(2.67636 2.42315 3.97776e-19)
(2.96287 2.43841 -3.32837e-19)
(2.09867 2.1782 8.42333e-20)
(2.43556 2.18235 4.97081e-20)
(1.50575 1.91292 -3.62438e-19)
(1.80238 1.91705 -3.78292e-19)
(1.21531 1.62443 1.34634e-19)
(1.03953 1.62404 -5.72739e-19)
(4.45451 3.22212 -3.18767e-20)
(4.57186 3.12092 1.48068e-19)
(4.36014 3.18772 1.76257e-19)
(4.42146 3.23595 8.49426e-21)
(4.23356 3.10091 -2.3146e-20)
(4.33511 3.08383 -1.08788e-19)
(4.06392 2.99864 -1.58919e-19)
(4.17496 3.01449 -1.91797e-19)
(3.84819 2.86562 1.68553e-20)
(3.98672 2.88075 5.28016e-19)
(3.57595 2.69709 -8.95985e-20)
(3.74643 2.71396 -5.72772e-19)
(3.23086 2.48861 -8.85033e-20)
(3.44396 2.50716 3.25797e-19)
(2.78514 2.23779 -7.65694e-19)
(3.06406 2.2546 -3.0267e-19)
(2.22125 1.95241 -3.81298e-19)
(2.57823 1.95628 6.53515e-20)
(1.59814 1.65288 2.50962e-19)
(1.96575 1.65004 -1.20227e-18)
(1.3421 1.3137 7.54568e-19)
(1.06041 1.34674 6.8965e-19)
(4.51115 3.17915 1.94521e-19)
(4.63724 3.06077 1.05003e-19)
(4.42392 3.1228 -2.76762e-19)
(4.46708 3.18001 3.46404e-20)
(4.28723 3.02643 -2.55428e-19)
(4.38752 3.01945 -2.12014e-19)
(4.12357 2.90597 4.53418e-19)
(4.2336 2.91741 -6.5978e-20)
(3.91391 2.74887 7.4012e-20)
(4.04991 2.76327 5.84656e-19)
(3.65148 2.55072 -2.31835e-19)
(3.81907 2.56777 -2.43695e-20)
(3.32448 2.30764 2.53441e-19)
(3.53286 2.32784 0)
(2.91672 2.01724 5.48252e-19)
(3.18148 2.03484 2.904e-19)
(2.404 1.69167 -6.28934e-19)
(2.74979 1.69552 -3.37443e-21)
(1.79709 1.35443 -8.80781e-19)
(2.20176 1.34247 -6.48212e-19)
(1.60183 0.982919 -1.85034e-20)
(1.20156 1.04369 -3.01369e-19)
(4.5588 3.12437 -4.83916e-20)
(4.68824 3.00337 -1.86906e-21)
(4.4735 3.05314 1.29641e-19)
(4.50921 3.10516 4.623e-19)
(4.34133 2.93745 -9.83846e-20)
(4.43321 2.93594 -2.19436e-19)
(4.18274 2.792 -7.8372e-21)
(4.28951 2.80101 -2.86659e-19)
(3.9831 2.6062 5.72117e-19)
(4.1164 2.62003 2.33125e-19)
(3.73589 2.37502 2.30327e-19)
(3.90201 2.3918 -2.72181e-20)
(3.4335 2.09314 5.38229e-21)
(3.63884 2.11215 -2.31576e-19)
(3.06537 1.76077 -1.91227e-19)
(3.32528 1.77332 1.02501e-18)
(2.6145 1.38942 8.01196e-20)
(2.94747 1.39714 -5.47809e-19)
(2.07397 1.00371 1.9022e-19)
(2.47898 1.0018 -5.25156e-20)
(1.9354 0.597703 3.63468e-20)
(1.47798 0.607511 6.03519e-19)
(4.59258 3.05603 4.64939e-19)
(4.71666 2.9365 4.38081e-20)
(4.51224 2.96382 -7.77143e-21)
(4.54081 3.00655 7.61704e-19)
(4.38976 2.82515 -4.04114e-19)
(4.46879 2.82729 -4.01465e-19)
(4.24248 2.65175 -1.12073e-19)
(4.34088 2.65942 -1.25299e-19)
(4.06026 2.43366 -3.49494e-19)
(4.18615 2.44525 1.58998e-19)
(3.8367 2.16362 -4.68527e-19)
(3.99655 2.17805 1.02347e-20)
(3.56824 1.83545 6.74321e-19)
(3.7688 1.84749 -8.84597e-19)
(3.24952 1.46028 9.43018e-19)
(3.50118 1.4683 1.39697e-18)
(2.86753 1.05781 -7.36419e-19)
(3.1844 1.06772 -6.0718e-19)
(2.41098 0.650204 -3.23733e-19)
(2.80309 0.647428 -4.89214e-19)
(2.37755 0.21279 3.51959e-19)
(1.85298 0.246029 1.18121e-19)
(4.6126 2.96757 2.66028e-19)
(4.72283 2.85563 4.22481e-19)
(4.53813 2.85045 1.28286e-19)
(4.55602 2.88169 5.51503e-20)
(4.42922 2.68499 -1.36258e-19)
(4.48954 2.68685 4.76969e-20)
(4.29988 2.47841 1.16509e-19)
(4.38192 2.48357 -2.7433e-19)
(4.14257 2.21979 5.42018e-19)
(4.25313 2.22954 2.83931e-19)
(3.95285 1.89917 -3.09841e-19)
(4.09833 1.91349 3.88608e-21)
(3.72981 1.52421 -4.42914e-19)
(3.91736 1.53926 -6.58684e-19)
(3.46983 1.12146 8.52463e-20)
(3.70422 1.1417 6.79661e-19)
(3.16314 0.701218 -3.51242e-19)
(3.45516 0.726161 -3.63682e-19)
(2.7983 0.275162 -1.32859e-20)
(3.16175 0.289144 4.92403e-19)
(2.83979 -0.169554 0)
(2.34231 -0.179247 -4.25008e-19)
(4.60868 2.8533 6.6739e-19)
(4.69848 2.75315 3.74791e-19)
(4.54185 2.70526 -1.90575e-19)
(4.54478 2.72492 -3.77666e-19)
(4.45076 2.50755 -4.19094e-20)
(4.48647 2.50872 4.08463e-19)
(4.34609 2.26136 -1.60924e-19)
(4.40261 2.2666 -6.95714e-19)
(4.22283 1.95511 -2.12494e-19)
(4.30616 1.96788 2.2869e-19)
(4.07822 1.59198 -2.62661e-19)
(4.19499 1.6138 -6.04259e-19)
(3.90965 1.19792 3.04221e-19)
(4.06632 1.22781 3.56919e-19)
(3.71467 0.786013 3.65126e-19)
(3.91611 0.82248 -4.08561e-19)
(3.48585 0.35496 4.05544e-19)
(3.7413 0.392931 -9.40669e-20)
(3.21476 -0.0818989 5.26856e-19)
(3.54052 -0.0567684 4.75306e-19)
(3.32591 -0.512911 3.08491e-19)
(2.84081 -0.556731 0)
(4.57187 2.70523 -1.65109e-19)
(4.63515 2.61702 4.3587e-20)
(4.51423 2.52194 1.50968e-19)
(4.49662 2.53086 -7.96507e-20)
(4.44404 2.28795 -1.35869e-19)
(4.44667 2.28975 6.62073e-19)
(4.36878 1.99934 -4.01582e-19)
(4.38496 2.00987 -7.81012e-19)
(4.28475 1.65829 -7.56409e-20)
(4.32263 1.6836 2.27601e-19)
(4.18958 1.28462 -1.05219e-19)
(4.25786 1.3231 -1.01267e-18)
(4.0807 0.887956 -2.18874e-19)
(4.18527 0.935686 6.78485e-19)
(3.95636 0.463479 -7.86938e-19)
(4.10236 0.517922 -6.89503e-19)
(3.81207 0.0167535 -2.84884e-20)
(4.00602 0.075441 4.55787e-19)
(3.64352 -0.437941 2.74916e-19)
(3.89643 -0.383979 -4.00128e-19)
(3.77442 -0.847219 3.26795e-19)
(3.40805 -0.949238 1.04218e-19)
(4.49677 2.52117 1.11631e-19)
(4.53067 2.44101 1.98942e-19)
(4.44594 2.30329 3.4749e-19)
(4.40424 2.3008 -2.69086e-19)
(4.39319 2.03452 1.50176e-19)
(4.35597 2.03678 5.29349e-19)
(4.34268 1.7218 -2.58018e-19)
(4.31369 1.74078 9.06658e-21)
(4.29678 1.37842 -5.56623e-19)
(4.2838 1.41087 -2.28904e-19)
(4.25228 1.00592 -4.29554e-19)
(4.26392 1.04815 -5.41134e-19)
(4.20689 0.599976 3.56581e-19)
(4.25042 0.651644 3.20962e-19)
(4.15695 0.166263 4.29133e-19)
(4.23807 0.226917 2.73517e-19)
(4.09755 -0.283288 1.86429e-19)
(4.22168 -0.217042 1.23422e-19)
(4.02273 -0.72949 -6.1411e-19)
(4.20113 -0.669503 -7.88794e-19)
(4.17223 -1.11172 -5.14098e-19)
(3.88087 -1.2201 1.17719e-18)
(4.38008 2.305 -1.23605e-19)
(4.37574 2.22837 1.3646e-19)
(4.32658 2.05259 -1.38061e-19)
(4.25462 2.04074 -3.03537e-19)
(4.28242 1.76705 4.34179e-19)
(4.21112 1.77358 1.96654e-19)
(4.25616 1.45537 5.76297e-20)
(4.18682 1.47424 2.25836e-19)
(4.24681 1.10939 -2.03359e-19)
(4.1869 1.13507 -3.52531e-19)
(4.25456 0.727283 6.06995e-20)
(4.21214 0.761359 2.49374e-19)
(4.27463 0.315041 2.43368e-19)
(4.25749 0.361165 -2.86589e-19)
(4.29915 -0.118519 3.90426e-20)
(4.31183 -0.0578511 5.11498e-19)
(4.32128 -0.563367 -6.33649e-19)
(4.36589 -0.489428 -1.71976e-19)
(4.33774 -1.0092 -7.32967e-19)
(4.41632 -0.926861 -4.87488e-19)
(4.45131 -1.35381 -4.28871e-19)
(4.31357 -1.5249 1.00956e-18)
(4.19873 2.04015 0)
(4.17024 1.98169 -4.01992e-19)
(4.14661 1.78089 0)
(4.06194 1.76806 4.3812e-19)
(4.11966 1.50133 -9.91582e-21)
(4.02484 1.49954 -1.75604e-19)