/*--------------------------------*- C++ -*----------------------------------*\
| =========                 |                                                 |
| \\      /  F ield         | OpenFOAM: The Open Source CFD Toolbox           |
|  \\    /   O peration     | Version:  3.0.1                                 |
|   \\  /    A nd           | Web:      www.OpenFOAM.org                      |
|    \\/     M anipulation  |                                                 |
\*---------------------------------------------------------------------------*/
FoamFile
{
    version     2.0;
    format      ascii;
    class       volScalarField;
    location    "0.0869043";
    object      p;
}
// * * * * * * * * * * * * * * * * * * * * * * * * * * * * * * * * * * * * * //

dimensions      [0 2 -2 0 0 0 0];

internalField   nonuniform List<scalar> 
21246
(
-10.3704
-4.51765
-2.0563
-0.938929
-0.434485
-0.191854
-0.109106
-0.106396
-0.15526
-0.22097
-0.226717
-22.4836
-13.2512
-9.24277
-6.28637
-4.01142
-2.59565
-1.80491
-1.34663
-1.09424
-0.957288
-0.844697
-20.0699
-16.1
-13.8256
-10.7965
-7.7746
-5.48218
-3.90078
-2.85477
-2.1933
-1.76706
-1.45106
-14.9816
-14.5049
-13.9924
-12.2367
-9.9144
-7.67646
-5.79263
-4.35517
-3.33866
-2.63383
-2.115
-11.7415
-12.0301
-12.1205
-11.4439
-10.1822
-8.58571
-6.93374
-5.47233
-4.30985
-3.43115
-2.74442
-9.87126
-10.1767
-10.277
-10.0587
-9.46779
-8.49662
-7.2859
-6.05041
-4.94502
-4.0361
-3.27264
-8.80369
-8.91106
-8.9547
-8.87428
-8.57393
-7.98195
-7.14302
-6.18654
-5.23978
-4.39404
-3.63149
-8.19137
-8.09781
-8.08
-8.01181
-7.80546
-7.39871
-6.79475
-6.06062
-5.28131
-4.53974
-3.83605
-7.7941
-7.57362
-7.51639
-7.40047
-7.19997
-6.87036
-6.39634
-5.81055
-5.16614
-4.5262
-3.89987
-7.42645
-7.17163
-7.08064
-6.91917
-6.70753
-6.40973
-6.00533
-5.51248
-4.96572
-4.40982
-3.85369
-7.07531
-6.8109
-6.66989
-6.48447
-6.26743
-5.98823
-5.62809
-5.19793
-4.72217
-4.23297
-3.74308
-6.76699
-6.48906
-6.31184
-6.09815
-5.8645
-5.59258
-5.26425
-4.88165
-4.45934
-4.01869
-3.57009
-6.50865
-6.21625
-6.01629
-5.77774
-5.5217
-5.24586
-4.93502
-4.58475
-4.20113
-3.79775
-3.3858
-6.29768
-5.99504
-5.78314
-5.53023
-5.25476
-4.96983
-4.66393
-4.33093
-3.96987
-3.58779
-3.19459
-6.13041
-5.82001
-5.60299
-5.34429
-5.05749
-4.76103
-4.45463
-4.12824
-3.77625
-3.40041
-3.00607
-5.99823
-5.68594
-5.4698
-5.21362
-4.92565
-4.62347
-4.31124
-3.98121
-3.62598
-3.2454
-2.8458
-5.89703
-5.59113
-5.38082
-5.13221
-4.85018
-4.54703
-4.22633
-3.88422
-3.51632
-3.12181
-2.69767
-5.82148
-5.5281
-5.32892
-5.09048
-4.81523
-4.51007
-4.17716
-3.81774
-3.43408
-3.0269
-2.59323
-5.76179
-5.48757
-5.30343
-5.07768
-4.80715
-4.49391
-4.141
-3.76064
-3.36588
-2.95676
-2.52806
-5.70627
-5.4618
-5.29771
-5.08712
-4.81669
-4.48212
-4.09742
-3.69473
-3.3022
-2.91276
-2.49844
-5.63774
-5.45415
-5.32043
-5.12393
-4.83626
-4.45828
-4.02906
-3.60843
-3.24248
-2.90623
-2.54159
-5.57591
-5.51406
-5.42397
-5.208
-4.8538
-4.39259
-3.90767
-3.49585
-3.19721
-2.95981
-2.71166
-5.86399
-5.85681
-5.60328
-5.23201
-4.72459
-4.17834
-3.6958
-3.3619
-3.18391
-3.08086
-2.96999
-6.52076
-5.16569
-4.83702
-4.43764
-3.9864
-3.60928
-3.3532
-3.21695
-3.20784
-3.29041
-3.37082
12.2544
7.54623
4.65257
3.07097
2.17305
1.62902
1.24891
0.940737
0.668715
0.444999
0.307198
13.7378
12.2754
9.77087
7.39406
5.41903
3.94461
2.89452
2.13117
1.54704
1.10932
0.850101
10.2477
10.731
10.1692
8.82653
7.18167
5.6023
4.25015
3.17527
2.32905
1.68524
1.28783
7.22919
8.33843
8.53314
8.20464
7.36216
6.17758
4.93281
3.81363
2.87337
2.12364
1.64239
4.84251
6.09977
6.59336
6.80383
6.54515
5.89421
5.02023
4.0523
3.15211
2.3837
1.84834
2.97847
4.14859
4.66894
5.14989
5.31963
5.12593
4.62358
3.90549
3.14845
2.4529
1.94351
1.55635
2.57894
3.00958
3.55951
3.91801
4.02241
3.84471
3.43161
2.8822
2.3139
1.86547
0.51643
1.37788
1.68051
2.21675
2.61313
2.85811
2.89489
2.72442
2.38574
1.97303
1.61918
-0.337864
0.43955
0.603563
1.13659
1.49421
1.79006
1.94448
1.93465
1.76801
1.50197
1.25498
-1.08142
-0.387635
-0.242789
0.21139
0.556184
0.860313
1.06981
1.15965
1.11957
0.977147
0.835138
-1.69257
-1.18616
-0.955276
-0.565069
-0.244265
0.0556967
0.291057
0.44122
0.490498
0.444841
0.377927
-2.18947
-1.77253
-1.55962
-1.21824
-0.923822
-0.636812
-0.393048
-0.208103
-0.0972858
-0.0673276
-0.0672102
-2.63725
-2.25837
-2.06982
-1.7668
-1.49765
-1.22866
-0.988271
-0.787024
-0.636952
-0.547686
-0.493371
-3.05672
-2.68916
-2.50884
-2.23148
-1.98303
-1.73354
-1.50413
-1.30062
-1.1304
-1.00259
-0.896354
-3.34394
-3.02412
-2.86879
-2.61875
-2.393
-2.16405
-1.94986
-1.75419
-1.58049
-1.4351
-1.30556
-3.58693
-3.30749
-3.17053
-2.94679
-2.73918
-2.53096
-2.33349
-2.15114
-1.98621
-1.84105
-1.70722
-3.81155
-3.5592
-3.43034
-3.2275
-3.036
-2.84453
-2.66296
-2.49701
-2.34999
-2.22046
-2.10071
-3.98753
-3.7678
-3.64945
-3.46713
-3.28929
-3.11174
-2.94404
-2.79622
-2.67531
-2.57971
-2.50627
-4.12503
-3.94143
-3.83546
-3.67268
-3.50529
-3.33618
-3.17797
-3.04801
-2.95909
-2.90668
-2.87119
-4.24355
-4.09516
-4.00023
-3.85226
-3.68795
-3.51738
-3.36096
-3.24682
-3.19445
-3.19745
-3.22651
-4.34814
-4.23538
-4.1502
-4.00808
-3.83382
-3.64747
-3.48325
-3.38245
-3.36888
-3.42908
-3.50993
-4.43935
-4.36493
-4.28067
-4.12679
-3.92442
-3.708
-3.52979
-3.44133
-3.46343
-3.57013
-3.66088
-4.58729
-4.49503
-4.38467
-4.1922
-3.94265
-3.68982
-3.50088
-3.42521
-3.47163
-3.61067
-3.75424
-4.40772
-4.38607
-4.22933
-4.01067
-3.75881
-3.52625
-3.37287
-3.32089
-3.3627
-3.48685
-3.62425
0.645378
0.512442
0.466478
0.445629
0.426883
0.408899
0.38048
0.334292
0.273611
0.211326
0.192734
1.65226
1.40225
1.14685
0.977117
0.861646
0.771211
0.68894
0.605131
0.516308
0.432221
0.384312
1.53724
1.53255
1.4146
1.28415
1.16257
1.04851
0.938547
0.827938
0.714503
0.610302
0.555608
1.22528
1.33122
1.34686
1.31211
1.25017
1.17097
1.07643
0.970448
0.862331
0.765927
0.706316
0.974243
1.12638
1.18723
1.21978
1.2271
1.20615
1.15634
1.08459
0.99619
0.902474
0.836786
0.774277
0.948682
1.02846
1.10533
1.16216
1.18892
1.18228
1.14243
1.07251
0.986037
0.91839
0.5927
0.786615
0.85004
0.949817
1.03876
1.10291
1.13365
1.12706
1.08412
1.01613
0.955773
0.472483
0.615363
0.69639
0.797684
0.8969
0.981231
1.03858
1.06073
1.04511
1.00166
0.966748
0.369023
0.494852
0.572557
0.666705
0.764675
0.855062
0.926032
0.967429
0.97338
0.950654
0.93302
0.273596
0.395658
0.468678
0.556218
0.649305
0.738513
0.813693
0.865083
0.885374
0.878356
0.873393
0.201143
0.315764
0.382026
0.462541
0.549046
0.633511
0.707436
0.762181
0.790235
0.794122
0.804468
0.159727
0.25923
0.314261
0.385039
0.462486
0.53931
0.6082
0.661663
0.692707
0.702796
0.72101
0.120177
0.209559
0.256087
0.317712
0.385306
0.452757
0.513985
0.562827
0.59339
0.607035
0.632456
0.0728857
0.158663
0.199629
0.253274
0.31109
0.368311
0.420133
0.461839
0.488778
0.501778
0.529084
0.0480898
0.11876
0.147679
0.189965
0.235897
0.281136
0.321736
0.354431
0.376348
0.3887
0.418052
0.0168459
0.0732681
0.0909413
0.121078
0.153547
0.184971
0.212598
0.234978
0.251449
0.263673
0.298397
-0.0361533
0.0116563
0.0205699
0.0383581
0.0559098
0.0717031
0.0848877
0.0964984
0.10866
0.123328
0.164181
-0.0873443
-0.0566607
-0.0632274
-0.0630006
-0.0645329
-0.0673345
-0.0700367
-0.0683528
-0.0570172
-0.0337521
0.0202217
-0.153802
-0.144807
-0.172103
-0.195245
-0.220927
-0.245179
-0.263228
-0.267794
-0.250563
-0.210679
-0.134774
-0.252152
-0.269793
-0.322417
-0.374137
-0.428657
-0.477107
-0.508097
-0.510348
-0.475625
-0.407907
-0.3052
-0.396022
-0.45132
-0.535919
-0.62015
-0.706393
-0.778007
-0.81445
-0.800357
-0.731798
-0.620811
-0.474127
-0.595686
-0.731556
-0.842194
-0.958905
-1.07706
-1.16429
-1.18886
-1.13581
-1.01282
-0.845969
-0.663233
-1.13758
-1.15363
-1.28229
-1.42744
-1.56801
-1.64788
-1.62781
-1.50377
-1.30246
-1.06364
-0.819938
-0.23578
-1.19078
-1.60587
-1.90937
-2.10273
-2.15891
-2.06819
-1.85561
-1.56984
-1.26285
-0.971679
-1.99659
-0.739101
-0.265465
-0.156446
-0.062598
0.026009
0.0627684
0.046209
0.00996429
-0.0361524
-0.0511508
-1.58871
-1.12609
-0.87971
-0.783111
-0.680261
-0.553516
-0.442621
-0.365127
-0.328474
-0.333581
-0.319795
-1.38248
-1.27105
-1.17228
-1.14306
-1.16159
-1.1474
-1.07127
-0.952167
-0.83315
-0.746066
-0.675224
-2.03259
-1.81408
-1.63574
-1.566
-1.62077
-1.72915
-1.77103
-1.69619
-1.53545
-1.34986
-1.15438
-2.78643
-2.63245
-2.4362
-2.28705
-2.28432
-2.43218
-2.5886
-2.61288
-2.46271
-2.19501
-1.87073
-3.55227
-3.51128
-3.3913
-3.3035
-3.27498
-3.39934
-3.62554
-3.75405
-3.6511
-3.31941
-2.85227
-4.24909
-4.34516
-4.33302
-4.37898
-4.48065
-4.6525
-4.93248
-5.15932
-5.12107
-4.74613
-4.11416
-4.86053
-5.08818
-5.18697
-5.38899
-5.66686
-6.02545
-6.42759
-6.7912
-6.83998
-6.44134
-5.67038
-5.35314
-5.70158
-5.90242
-6.26362
-6.72518
-7.29767
-7.94481
-8.50569
-8.70117
-8.28219
-7.26008
-5.66365
-6.14878
-6.42823
-6.93403
-7.56899
-8.35253
-9.25725
-10.0907
-10.5346
-10.1473
-8.93529
-5.74843
-6.39262
-6.71226
-7.34269
-8.12445
-9.08388
-10.201
-11.3375
-12.0298
-11.7522
-10.3896
-5.69805
-6.34252
-6.77511
-7.47195
-8.35085
-9.43042
-10.6862
-12.0143
-12.9113
-12.8418
-11.4037
-5.43143
-6.04834
-6.5597
-7.29121
-8.22645
-9.37009
-10.6827
-12.0384
-13.0398
-13.1073
-11.4704
-4.90106
-5.48787
-6.03611
-6.77724
-7.7259
-8.88078
-10.1817
-11.4686
-12.419
-12.4265
-10.9453
-4.17467
-4.69579
-5.23709
-5.95618
-6.87958
-7.99534
-9.2187
-10.3696
-11.1367
-11.043
-9.80794
-3.25889
-3.71436
-4.23724
-4.9297
-5.81873
-6.87566
-7.98421
-8.93227
-9.43562
-9.22079
-8.14375
-2.21389
-2.64761
-3.18254
-3.87554
-4.74384
-5.73925
-6.71714
-7.44041
-7.64524
-7.19168
-6.25875
-1.25068
-1.7408
-2.34342
-3.06667
-3.9165
-4.83983
-5.6776
-6.17065
-6.07523
-5.38127
-4.46312
-0.75373
-1.34907
-2.02673
-2.75026
-3.55378
-4.40392
-5.12303
-5.3933
-5.00408
-4.05145
-2.89908
-0.880945
-1.52657
-2.2084
-2.90247
-3.66265
-4.4568
-5.08244
-5.0973
-4.40934
-3.27057
-1.9651
-1.38779
-2.03923
-2.69449
-3.37289
-4.09349
-4.79655
-5.31432
-5.07755
-3.91664
-2.70606
-1.47361
-2.20126
-2.82855
-3.43755
-4.02084
-4.6299
-5.09062
-5.01286
-4.38223
-3.28462
-2.24708
-1.33729
-2.87274
-3.87321
-4.29037
-4.47891
-4.50525
-4.3366
-3.93606
-3.29322
-2.52332
-1.82437
-1.27204
-5.50564
-4.4011
-3.76961
-3.48537
-3.32653
-3.11637
-2.79316
-2.36929
-1.90605
-1.47379
-1.1107
24.6159
20.424
16.5301
13.2304
10.6477
8.64876
7.06766
5.78439
4.73816
3.91492
3.34584
14.9589
16.6351
15.9452
14.3224
12.0859
9.95812
8.0854
6.53745
5.29152
4.32576
3.65434
3.12141
8.36124
10.0047
10.9923
10.4331
9.40986
8.06253
6.7154
5.51209
4.52529
3.81912
-3.67721
1.38529
3.23034
5.86936
6.92913
7.25806
6.85911
6.10392
5.22799
4.40264
3.74252
-6.4813
-2.70557
-1.67571
1.51687
3.10082
4.38017
4.8791
4.84494
4.47048
3.9624
3.50212
-7.52137
-4.59316
-4.29957
-1.4371
0.130636
1.75432
2.76584
3.2968
3.40952
3.26444
3.04564
-7.53491
-5.47172
-5.13289
-3.10996
-1.77221
-0.177729
0.992639
1.83337
2.29447
2.466
2.48689
-6.82702
-5.6471
-5.20561
-3.76342
-2.73624
-1.35873
-0.251039
0.682703
1.32371
1.70343
1.91835
-6.10665
-5.29444
-4.94642
-3.84285
-3.06539
-1.93138
-0.978455
-0.082939
0.606426
1.09487
1.43128
-5.59042
-4.84721
-4.5403
-3.63128
-3.02627
-2.09019
-1.30163
-0.499787
0.157464
0.67475
1.07196
-4.83108
-4.21876
-3.98084
-3.2258
-2.75801
-1.97984
-1.34072
-0.646219
-0.0605648
0.429876
0.825404
-3.74276
-3.35806
-3.24634
-2.65662
-2.3227
-1.68416
-1.18153
-0.593388
-0.0948944
0.345216
0.705498
-2.8789
-2.57445
-2.50327
-2.02688
-1.79431
-1.27024
-0.887597
-0.397907
0.00839081
0.384867
0.698669
-2.27577
-1.93776
-1.84305
-1.42007
-1.2438
-0.801752
-0.513321
-0.109468
0.207887
0.514177
0.761393
-1.46672
-1.21818
-1.17716
-0.821934
-0.691131
-0.314015
-0.0986259
0.234124
0.469469
0.703773
0.88149
-0.781153
-0.572041
-0.552612
-0.242405
-0.145853
0.180957
0.333616
0.611431
0.768973
0.928551
1.03694
-0.300649
-0.0516216
-0.000995128
0.299539
0.383926
0.677169
0.797459
0.991749
1.08699
1.16966
1.20169
0.276135
0.511301
0.555605
0.836746
0.92749
1.16731
1.26592
1.38923
1.41303
1.41165
1.36586
0.866045
1.07991
1.11352
1.37426
1.48783
1.68373
1.74696
1.79089
1.73169
1.63872
1.51323
1.43399
1.63769
1.67036
1.94584
2.08065
2.22998
2.23752
2.18061
2.02294
1.83322
1.62923
2.05866
2.27291
2.29173
2.64608
2.74487
2.80504
2.71592
2.52975
2.26027
1.9771
1.70425
2.86202
3.10124
3.16768
3.54575
3.5133
3.39727
3.14099
2.79474
2.41224
2.05467
1.73557
3.55178
4.22048
4.37589
4.66041
4.36696
3.95612
3.45753
2.93905
2.46646
2.07303
1.76925
5.87593
6.04678
6.09991
5.87463
5.1336
4.30908
3.51876
2.8499
2.33778
1.95355
1.66242
15.4092
14.8834
13.1899
11.2895
9.31892
7.62681
6.2225
5.07572
4.14645
3.41963
2.91828
-5.72832
3.12099
5.97309
7.34176
7.14131
6.29784
5.2661
4.30298
3.48995
2.85224
2.42441
-19.3366
-9.1433
-4.83557
-0.252889
2.17403
3.20248
3.27098
2.91723
2.47699
2.07193
1.79494
-24.4052
-16.9716
-13.6661
-7.95682
-4.03701
-1.27098
0.261911
0.782185
0.987335
0.980309
0.981504
-24.7377
-20.0977
-18.2675
-13.1991
-9.29557
-5.7631
-3.2427
-1.6852
-0.809686
-0.325533
-0.00147713
-23.5165
-20.4478
-19.5828
-15.6828
-12.5672
-9.10743
-6.2699
-4.10618
-2.66634
-1.69119
-1.01663
-22.0241
-19.7527
-19.3161
-16.3186
-14.0571
-11.0464
-8.38027
-6.05565
-4.27956
-2.96431
-1.99495
-20.4467
-18.7036
-18.4716
-16.0158
-14.4209
-11.8674
-9.57081
-7.34855
-5.47721
-3.98091
-2.81739
-19.0607
-17.5848
-17.4819
-15.2938
-14.196
-11.9535
-10.0493
-8.01594
-6.21778
-4.67268
-3.40494
-17.9143
-16.5038
-16.4959
-14.3942
-13.6815
-11.5937
-10.0458
-8.19102
-6.54151
-5.04739
-3.80797
-16.8514
-15.6657
-15.3848
-13.5312
-12.9447
-10.9812
-9.71451
-8.00385
-6.51743
-5.10531
-3.93078
-15.6122
-14.6712
-14.1583
-12.7218
-11.9901
-10.2268
-9.13865
-7.55437
-6.2256
-4.90418
-3.80012
-14.4403
-13.5363
-12.9831
-11.7283
-10.9163
-9.39962
-8.37082
-6.92085
-5.73463
-4.5289
-3.54647
-13.3603
-12.3985
-11.8196
-10.629
-9.80843
-8.4613
-7.46165
-6.15336
-5.0935
-4.02139
-3.12858
-12.1054
-11.1607
-10.5998
-9.46766
-8.6496
-7.40979
-6.44939
-5.27777
-4.3346
-3.40995
-2.62722
-10.8356
-9.88319
-9.32775
-8.24112
-7.41911
-6.25993
-5.34488
-4.30784
-3.48466
-2.72472
-2.1057
-9.57918
-8.58693
-8.00809
-6.94845
-6.10748
-5.01645
-4.15256
-3.25547
-2.56775
-1.98695
-1.54365
-8.23683
-7.21119
-6.60495
-5.56954
-4.70086
-3.67332
-2.87691
-2.13544
-1.60842
-1.21823
-0.941032
-6.77498
-5.71818
-5.08178
-4.07061
-3.16912
-2.23436
-1.52796
-0.97217
-0.642099
-0.459219
-0.368036
-5.16147
-4.06193
-3.39638
-2.41709
-1.51131
-0.684798
-0.130118
0.186882
0.281636
0.25205
0.167131
-3.32411
-2.15641
-1.47572
-0.546848
0.304858
0.948797
1.24834
1.26522
1.10497
0.881656
0.660647
-1.29032
0.0425566
0.756979
1.59258
2.24817
2.55355
2.4492
2.12516
1.73606
1.37046
1.06885
1.12804
2.55847
3.38341
3.9977
4.19228
4.04718
3.41878
2.76768
2.20562
1.74004
1.37264
2.73405
5.20938
5.8434
5.62474
5.12702
4.32322
3.44842
2.72619
2.18417
1.79078
1.56549
-2.70845
-1.95653
-1.47596
-1.27053
-1.1547
-1.13336
-1.58427
-2.48517
-2.82838
-2.1617
-1.70653
-1.41655
-1.26272
-1.1639
-1.16049
-1.37578
-1.92173
-2.10276
-2.01281
-1.63092
-1.35269
-1.23194
-1.14135
-1.11429
-1.28564
-1.77927
-1.9288
-1.7971
-1.52023
-1.26307
-1.16844
-1.09596
-1.04668
-1.18503
-1.59228
-1.65541
-2.85859
-2.3293
-1.18925
0.033768
0.769656
0.776058
0.246538
-0.723129
-2.04135
-2.24449
-1.77561
-0.972394
-0.00527268
0.596113
0.609057
0.151843
-0.597069
-1.51831
-2.08908
-1.71576
-0.901328
-0.0697883
0.446869
0.456171
0.0539093
-0.55586
-1.41824
-1.81227
-1.43727
-0.849629
-0.153687
0.293355
0.323793
-0.0351093
-0.542098
-1.22595
0.948334
0.905186
0.899286
0.00875912
-0.0678032
0.770941
-0.900715
0.694008
0.764812
1.27427
-0.0738701
0.696651
-0.0457196
0.00506578
0.946643
0.490491
-0.00582324
0.0090508
0.489217
0.989063
0.404934
-0.629218
0.575745
-0.00469604
0.931788
0.00529056
-0.0431562
-0.854749
0.0273765
-0.00273359
-0.00583943
0.615866
0.00165953
0.545647
0.643265
0.898637
-0.00538217
0.929558
0.00175306
0.67741
-0.39141
0.549269
0.00254437
0.578422
-0.307791
-0.82001
0.00667772
-1.33202
0.926028
0.658606
0.000272365
0.681683
0.000402442
0.00276082
0.651198
0.401525
-0.622646
0.671484
0.0675439
0.00200977
0.127087
0.000309938
-0.0512858
0.0233408
-0.581162
0.9844
0.00328224
0.646484
0.896706
1.25344
-0.0192969
1.23009
0.0124861
1.1979
0.00277225
1.16175
-0.49629
0.557693
-0.226426
-0.81982
-0.000637739
0.0325239
0.954575
0.953225
0.0479004
0.0117797
-0.57783
0.000513705
-0.284596
-0.00262849
0.884137
0.669698
-0.458187
0.954737
-0.760932
-1.52493
0.00393426
-0.162219
-0.229995
1.23768
0.253274
-1.31483
1.07633
0.267286
-0.0299624
0.834333
-0.000863292
0.953442
-0.00178087
0.259488
0.583514
0.547516
1.02304
0.0163147
0.00779602
0.955221
0.660804
0.53179
0.716336
0.975398
0.0161939
1.25424
-0.0592131
-0.00767635
-0.801956
-0.192947
4.94083e-05
-0.000784677
-6.98103e-05
-0.00174006
0.62612
0.00232015
-1.27939
1.18465
0.862962
-0.0207075
-0.496523
0.0200704
0.00119518
1.0402
0.00233663
0.384303
-0.415413
0.7887
0.652313
-0.00774477
-0.179607
0.646678
1.34625
0.541543
0.572447
0.799107
-0.00125578
1.21269
0.0118462
0.00363106
0.00804149
-0.519301
-0.0101705
0.980962
-0.0928911
-0.0534101
1.20078
0.969023
0.00405761
-0.00485599
-0.338158
0.602983
-0.201827
-0.610042
0.00145585
-0.0025033
-0.189324
0.316488
0.636731
0.577779
-0.00033747
-0.0118249
-0.34374
0.603075
0.640933
-0.58582
0.874363
-0.104053
0.785263
0.0194622
0.56569
0.521926
0.941716
-0.205664
-0.00248522
0.00664591
0.952197
-0.391463
0.891881
0.976355
0.789348
-0.166868
-0.00176879
0.95481
-0.100013
0.687196
-0.004968
-0.00923311
0.866441
0.000467398
0.93764
-0.000260964
0.690817
0.951765
-0.00245986
0.51643
0.252326
0.712485
0.560706
0.00142969
0.886447
0.00819874
0.585164
0.00511213
0.000428536
0.0158352
0.00416076
0.00790015
-0.00677235
0.64765
-0.0986557
-0.00401116
-0.00173765
0.0205015
-0.466519
0.949981
0.572214
1.31334
-0.00983711
-1.10593
0.000706964
0.877891
0.638525
0.639973
0.00845553
0.00894176
0.235828
-0.403127
0.734704
-0.0577532
0.541118
-0.0122994
-1.18577
0.000630023
-0.0121099
-0.00239221
0.599277
1.007
-0.00519654
0.784289
0.434473
0.930984
-0.0340904
0.560467
-0.000187069
-0.149516
0.945411
0.568011
0.582303
0.00753761
0.374881
0.554989
-0.0616685
-0.0624655
-0.140132
0.59858
0.700195
0.00687416
0.936993
0.529542
-0.0105127
0.876467
1.00571
-0.0391618
1.24874
0.740908
-0.000592965
-0.00110961
0.0143309
0.9544
-0.362171
0.661594
0.922728
0.00194873
0.62472
-0.770521
0.501512
0.00433371
0.893286
0.69091
-0.190896
0.584249
0.692657
-0.0120522
0.747349
0.0159358
0.861722
-0.000172503
0.443099
0.229941
0.565175
-0.000172448
-0.571885
0.590614
-0.809467
0.830402
0.175399
0.00175904
-0.60411
0.928814
5.04581e-05
-0.0347738
0.920855
1.01826
0.561752
-0.000556554
0.519946
-0.0316173
0.0327429
0.506115
0.544794
0.00226252
0.946165
0.00116438
0.524134
-0.0719824
-0.455925
0.801486
-0.0260388
-1.24292
0.00995374
0.568507
0.873948
-0.16076
-0.283681
-0.00241116
0.690099
-0.00802229
-0.138586
-0.000147623
0.00549424
0.535297
-0.0077555
0.000310221
-0.93294
-0.155153
-0.05128
0.449904
-0.00679099
0.955293
0.000205746
0.742872
0.571895
0.00124926
-0.0500145
0.00591041
0.885566
0.952836
0.98983
-0.339564
-0.00265573
0.00356165
-1.03816
0.0650709
0.885212
-0.158785
-1.25963
0.00269103
0.00553884
0.621013
0.0184484
0.617005
0.965122
0.542626
-0.0010355
0.981079
-0.0296296
0.640808
0.0046644
0.00249733
0.017724
-0.00692751
0.00921911
-0.525484
0.802155
-0.720599
-0.00300187
1.60077
0.00160276
-0.550878
0.56344
0.555152
0.73808
0.00517615
-0.0287378
0.956011
0.799276
0.00238751
0.000111957
-0.32474
-0.445878
-0.00141607
0.678712
-0.0005555
0.593619
0.485316
-0.00524734
-0.00501884
0.00564272
0.127624
-0.00266998
1.24413
0.000535142
-0.684727
-0.0611069
0.000393733
-0.991707
-0.000250531
0.563776
0.280991
1.19395
-0.0022143
-0.192293
-0.70238
0.535003
-0.0333024
0.00858935
0.89975
-0.177146
0.00108424
-0.0100322
-0.00117357
-0.0083685
0.532805
0.110342
-0.676524
0.00548554
0.0159116
0.525894
0.00126057
0.00109606
-0.404584
0.995632
-0.0684896
0.796439
0.953304
0.881123
-0.684
-0.201901
-1.09421
0.00192503
-0.138915
-0.000110012
0.951292
0.999905
0.000175782
0.00184844
-0.0185936
0.550912
-0.00245247
0.00246609
0.952248
0.522412
0.539843
0.55401
0.00898186
0.518947
0.0898873
0.550624
0.624289
0.596138
0.945941
-0.0857586
0.56578
0.962983
0.419944
0.0231455
-0.559303
0.570306
0.00272649
-0.0119475
0.810463
0.00171992
0.976529
-0.253075
0.977527
0.535753
0.644028
-0.000236343
-0.0101691
0.959154
0.00860012
0.21532
0.563255
-0.00363017
0.00347687
0.778339
0.956476
-1.10692
0.000968888
0.0140796
0.508369
-1.22345
0.531437
-0.00220526
-0.00974963
-0.579156
-0.00528183
0.264548
0.00105463
0.00507035
0.00556906
0.534123
-0.070072
0.91043
0.746296
0.908609
0.621651
0.512324
-0.00138444
0.694124
0.975825
-0.0188842
0.749861
-0.790207
-0.108985
0.000210421
-0.0192893
-0.350668
0.921961
0.90609
0.743511
-0.420031
-0.104573
0.539279
0.959103
-0.00688951
0.793528
0.00678958
0.793626
0.000824543
0.982371
-0.653246
0.00280978
0.000376002
-0.977387
-0.00227654
0.442254
0.356316
1.31865
0.611089
0.000860436
-0.36994
0.932192
-0.00526325
-0.368642
-1.70725
0.922285
0.79798
0.833023
0.00118953
0.00128256
-0.00241761
0.803007
0.622453
-0.000799343
0.96445
0.00651786
-0.00119873
-0.0011239
-0.147227
0.579492
0.000339622
0.911032
0.00639902
0.895537
0.00305627
-0.000203914
0.684108
-0.607182
-0.00425085
0.699893
0.555966
-0.723488
0.972965
-0.0674667
0.0122343
0.00493666
0.00162879
-0.266049
-0.000187088
1.19915
0.699016
0.780847
-1.4778
0.00828272
0.005411
0.977074
0.916606
-0.479196
0.557589
0.943064
0.546744
1.27189
0.00650578
0.00641733
0.00456414
-0.0526752
0.0674257
0.628146
1.00443
-0.0064516
1.18162
0.748041
-1.22226
-0.00147159
0.512868
0.981092
-0.474145
1.06645
0.998365
0.175928
0.834874
0.449515
0.0045732
0.0041656
-0.0340771
0.000200921
0.000547366
-0.646591
-0.000603019
-0.0380795
-0.017745
0.00787726
-0.425667
0.00977871
-0.013655
0.532781
0.493951
0.0324807
0.0771675
0.516789
0.301337
0.00815322
0.00241001
-1.16982
0.0142782
-0.162215
0.54773
0.528162
0.924344
0.554603
1.12502
-0.0103363
1.20427
0.471459
0.514568
0.607932
0.010413
-0.00251783
0.0192571
1.19801
0.547273
0.74356
0.00103668
1.01885
-0.515409
1.08425
0.00492563
3.29425e-05
0.565985
4.35331e-05
0.948371
0.00176744
0.0188509
0.00649528
-1.29937
-0.0886081
0.0914536
0.953538
-0.0012425
0.00242134
-0.682011
0.000265062
0.528921
0.158159
0.953358
-0.0590682
0.514953
0.00129425
0.80913
0.709436
0.95556
-0.0548686
0.00485724
0.92155
-4.7074e-05
0.88511
-0.00376739
-0.0106265
0.318459
0.013698
-0.440397
0.00378537
-0.0160415
-0.0571755
-0.00640535
-0.0124099
0.00186376
-0.937803
0.534425
0.00671111
0.617501
0.517643
-0.777438
-0.206353
-0.268182
0.00527921
0.961229
0.443568
0.961216
0.00755804
0.949939
0.000341552
0.00163538
0.000907397
0.334557
-0.00437447
0.00201279
0.00175407
1.38623
0.00436039
-0.0685442
-0.0146213
0.591753
0.00613788
-0.387739
0.892239
-0.750929
0.000537795
1.07922
0.00485375
0.625521
0.517031
1.09137
0.000920519
1.28502
0.00229631
0.843716
0.00188991
1.29037
0.00419927
0.00106775
-0.00198777
-0.000866355
0.515176
-0.0120219
-1.03622
0.961008
0.00203641
0.0270453
0.00263434
0.555335
-0.52928
0.621783
0.00667674
0.00298461
0.552436
0.542752
0.0190499
0.546131
0.00527409
-0.37581
0.897347
0.709554
0.283871
-0.0413366
-0.000666807
0.000501666
0.690338
0.00952144
0.367702
0.542573
0.941031
0.81829
0.615186
0.71348
2.83624e-06
-0.692808
-0.140012
-0.00242698
-0.175214
0.952875
0.647888
-0.0370918
-0.00236656
0.877059
-0.114697
0.00740452
-1.18209
-0.00231583
-0.132096
0.45821
0.00709279
0.954766
0.626356
-0.789108
0.931636
0.696187
0.261234
0.000286825
0.0829369
0.117226
0.89519
0.011643
-0.48095
0.011012
0.685689
-0.00114657
0.000851583
0.00474323
0.0080465
0.95361
0.538316
0.00893558
0.00636395
0.00246333
0.953671
0.522929
1.03258
0.894903
0.676649
0.00292051
-0.0323493
-0.777326
-1.11398
0.00182549
0.772291
-0.0202159
0.947891
1.09094
-0.0697619
0.644145
0.869891
0.684945
-0.0563194
0.000843573
0.00386417
0.874146
0.00653845
0.93667
0.841207
0.809231
0.980483
0.331142
0.570043
0.869545
0.85179
-1.56163
0.545011
1.00254
-0.203081
-0.502608
0.594955
0.87984
0.0268241
-1.54032
0.52458
-0.0108516
0.00603751
0.00819305
0.611207
0.924045
0.494347
0.763465
0.000363395
0.65791
-0.0198607
0.00473529
-0.000758096
0.00363201
0.583667
0.00554154
0.938583
0.569034
1.33699
0.482181
0.560025
-0.152574
-0.792451
-0.0485328
-0.010914
0.000444873
0.00242826
0.0616221
-0.659131
0.556317
0.58454
-9.11483e-05
0.000394168
0.0061423
0.704056
-0.140579
1.00793
0.00094075
1.01656
0.000374835
-0.00421177
-0.0208368
-0.0128083
1.01704
0.923002
0.00162365
-0.533051
0.000362865
-0.166619
0.0070818
0.385845
0.438309
0.000387155
0.892071
0.864748
-0.0695635
-0.622864
0.0193684
-0.383071
-0.00118666
0.00602623
0.00132325
-0.554513
0.956039
0.399125
0.000224899
0.973052
0.621178
0.838201
-0.00285702
0.00400576
-0.00155028
0.951332
-0.0174013
0.777778
0.677494
-0.00282031
0.0118304
0.564839
0.871685
0.861242
-0.116511
-0.178744
-0.674473
0.0816824
1.07348
-0.351121
0.0079881
-0.656675
0.952906
-0.00118046
0.00209387
0.771194
-0.00280959
0.810469
0.00363718
0.00122135
0.0580731
-0.0159882
0.895812
0.947959
0.00482227
-0.00391331
0.550787
-0.00122259
0.884727
-1.13709
0.000416123
-1.5794
0.914248
0.000377153
0.0126659
0.0125116
0.000795215
-0.00452567
0.953856
-0.000518004
0.0142824
0.56165
0.231926
0.00258276
0.00864872
-0.00155154
-0.0203326
0.708393
1.00408
-0.467504
0.52691
-0.492878
0.00360323
0.000222605
0.0011718
0.679124
0.00487808
-0.156773
0.000904837
-0.00294758
0.00138028
0.971405
0.0107712
0.000785991
0.954786
1.18384
0.857674
0.00415078
0.340729
0.767998
-0.00677695
0.00130133
0.00253824
0.586125
-0.902254
-0.154681
0.347441
-0.0372597
0.539106
1.31822
1.00842
-1.09724
0.464674
0.000703276
0.0632974
-0.174995
0.570828
0.42875
0.955417
0.969679
0.0132347
0.00299696
0.00206439
-0.324858
-0.592423
-0.52551
1.15279
0.235268
0.0190242
0.952947
0.00327793
0.00100481
0.798033
-0.0167638
-0.0245828
0.00392944
0.515016
-0.00553254
0.955282
0.000677777
0.59887
-1.04976
-0.177773
1.27542
-0.664952
-0.00620426
0.497111
-0.0173964
0.000972238
-0.195161
-0.00249312
0.469771
-0.470621
-0.00135951
0.0162516
-0.942864
-0.00963427
0.823423
-0.0544004
0.66641
-0.0370636
0.00562917
0.0208775
0.424908
0.00634865
-0.337465
0.979386
0.651919
0.556872
0.595093
0.00420223
-0.03278
1.19815
0.00588694
-0.00900421
0.456157
-0.167584
-0.691878
-0.0473859
-0.174353
-0.343514
0.00767437
-0.00277603
3.54626e-05
0.969607
0.95216
0.00142442
0.982849
0.872365
-0.0298224
0.953493
0.769046
0.00360901
1.38198
-1.29547
-0.007355
0.00778065
1.01423
0.0118503
0.00220831
0.00409244
-1.02076
0.961509
0.00389085
0.00582184
0.00347432
0.0002712
0.488641
-0.00121396
0.927913
0.0190685
-0.000906507
0.82441
1.0056
-0.00396504
-0.00181594
-0.0528641
-0.0670881
0.00130701
1.06523
0.862154
0.950986
-0.0979232
0.000588488
0.00237191
-0.309677
-0.387724
1.6694
0.435855
0.935498
0.815483
-0.0553421
1.00604
0.537207
-0.141254
-0.17437
-1.24909
-0.00222823
0.593423
0.522083
0.000594885
0.0125017
-0.0012008
-0.82475
-0.0175115
0.820985
0.59151
0.00583321
-0.000272553
-0.00200911
0.00693384
0.947539
0.00992198
0.00263687
0.00981821
0.483193
-0.0124877
-0.112571
0.768361
-0.146981
0.557879
1.31194
0.014495
0.0022976
-0.0226064
0.38718
1.02456
-0.0935165
0.0124243
0.0111622
0.00650934
0.021964
-0.270138
0.665281
-1.05788
0.0198038
0.943736
-0.000380263
0.00316405
0.977837
0.000438637
0.955621
0.914149
1.23663
-0.430596
-0.000361368
0.52575
0.0055646
0.950466
0.564404
0.959007
-0.00821884
0.532902
-0.00437608
-0.197775
0.950635
-0.0217828
-0.667853
-0.00883429
-0.0501061
-0.166851
0.00585309
0.000169596
0.698261
0.572884
0.842745
0.0035064
0.953614
0.563505
-0.091493
-0.446775
0.0038354
0.00336262
0.000420904
0.871831
0.01967
-0.202953
0.531466
-0.114262
0.507742
0.000918432
0.92204
0.00337868
0.408518
1.16574
0.748788
-0.0936292
4.83875e-05
0.83482
-0.00441097
0.52952
0.000378165
0.000244996
-0.0262048
0.0053223
0.976123
0.944078
0.00208969
-0.229447
-0.00596922
-0.000324698
-0.0365361
0.00215639
0.957153
-0.59502
-0.00288914
1.02585
0.00761931
0.00893559
0.00680294
-0.0149949
0.0113432
-0.000251246
-0.171994
-0.157076
0.534429
0.629151
0.00208033
0.00276292
0.0155265
0.558911
-0.18238
0.888292
1.28561
-0.611385
0.961983
0.688719
-0.786767
0.0195162
0.703683
0.953602
0.756834
0.472248
0.597153
0.977413
-0.197601
0.192387
0.517995
0.814937
0.00364332
0.614348
0.00142072
0.890265
0.477066
0.694808
0.00993948
-0.493395
0.00266048
1.01484
0.568519
0.00538128
-0.00126023
0.952895
-0.182449
-0.0167086
0.838516
-0.0424129
0.00551715
-0.0454143
-0.0507953
-0.030979
0.682537
0.0113167
0.794866
0.411927
0.981546
0.598088
0.950012
0.003274
0.975835
0.0230585
0.877136
0.95209
-0.0871324
0.57878
0.919461
-0.0700418
0.00104067
0.0106244
0.975375
0.398207
0.802652
0.00191353
-0.00207774
0.00778169
0.698887
-0.00307579
-0.258606
0.589456
0.521048
0.485402
0.338928
0.0072585
1.00951
-0.1662
1.14856
-0.919405
0.00215934
0.00556196
0.00370756
0.80567
0.0229738
0.884171
0.068176
-0.0459097
0.980282
0.951714
0.00324961
0.486138
0.519583
1.17334
0.00164682
0.924487
-0.00357154
-0.0494264
0.00500194
-0.0116612
0.524515
-0.193891
0.969735
-0.792826
0.00718124
0.121304
-0.000638957
0.953573
0.57569
0.989749
0.505078
0.167798
0.401822
0.994085
-0.00202123
-0.122234
0.605374
0.35626
-0.699353
0.170723
0.953869
0.0760722
1.18115
1.64334
-0.00815504
0.972766
0.00332735
0.00385498
0.409714
0.874373
0.00836406
0.00743596
1.04616
-0.00080173
0.934122
1.218
0.00131199
0.416816
0.00541661
0.947832
0.929552
-0.977082
0.351154
0.506495
-0.238496
0.43903
0.584919
0.454339
0.517784
0.543937
-0.00116549
0.00709245
-0.0473135
-0.0430612
0.584084
0.749436
-0.0181472
-0.000179508
0.436363
0.303189
0.00390231
0.990803
0.000381251
0.689369
-0.010145
0.786312
1.06546
0.000998017
0.00778616
-0.0139058
0.912498
1.00734
1.05551
0.949299
0.661885
0.0053611
0.00490456
0.014618
-0.0693573
0.00378773
0.42627
0.607749
0.615723
-0.104785
1.27855
0.00288046
-0.825228
0.539651
0.000958333