/*--------------------------------*- C++ -*----------------------------------*\
| =========                 |                                                 |
| \\      /  F ield         | OpenFOAM: The Open Source CFD Toolbox           |
|  \\    /   O peration     | Version:  3.0.1                                 |
|   \\  /    A nd           | Web:      www.OpenFOAM.org                      |
|    \\/     M anipulation  |                                                 |
\*---------------------------------------------------------------------------*/
FoamFile
{
    version     2.0;
    format      ascii;
    class       surfaceVectorField;
    location    "0.0869043";
    object      Uf;
}
// * * * * * * * * * * * * * * * * * * * * * * * * * * * * * * * * * * * * * //

dimensions      [0 1 -1 0 0 0 0];

internalField   nonuniform List<vector> 
32369
(
(4.67135 1.47751 1.60345e-20)
(5.35344 1.61587 5.72966e-18)
(5.65108 3.2592 2.76724e-18)
(4.23171 1.74205 1.96417e-20)
(3.74935 0.630307 1.57082e-20)
(4.17067 2.63062 3.29804e-19)
(3.92825 1.6036 -1.21377e-20)
(3.9535 0.864827 0)
(3.68277 2.25872 0)
(3.53325 1.38786 -5.80043e-20)
(3.80828 0.886224 -1.2279e-20)
(3.30582 1.85462 -1.5864e-20)
(3.16269 1.17522 -9.0371e-20)
(3.46872 0.847163 -6.51379e-19)
(3.00963 1.51892 9.58628e-20)
(2.86691 0.99646 5.68505e-20)
(3.11424 0.79411 5.1384e-19)
(2.77151 1.2506 -5.81218e-20)
(2.63342 0.845006 -4.18567e-20)
(2.8339 0.722174 -1.69361e-20)
(2.57656 1.03959 -5.71883e-20)
(2.44854 0.718649 2.25119e-20)
(2.60498 0.64111 -1.61385e-19)
(2.41329 0.870233 2.53171e-20)
(2.30331 0.610711 -2.30676e-20)
(2.42443 0.560485 -6.58402e-21)
(2.27862 0.730859 -7.05059e-21)
(2.19081 0.515847 -1.13187e-20)
(2.28459 0.482914 1.2925e-19)
(2.17059 0.613954 -6.22705e-21)
(2.18491 0.416026 -3.31218e-19)
(2.08627 0.521556 1.3327e-21)
(2.09737 0.427365 1.04424e-19)
(2.98815 0.31577 5.58903e-18)
(3.02005 1.38139 4.69494e-18)
(3.50772 0.370437 0)
(2.29163 0.0279922 0)
(3.69215 0.43628 0)
(3.22133 0.0337423 0)
(3.64012 0.517205 -5.01908e-19)
(3.49847 0.0921639 0)
(3.40771 0.579047 -4.81312e-19)
(3.44605 0.165079 -2.4308e-18)
(3.10499 0.591196 5.24399e-19)
(3.23683 0.264906 1.9288e-18)
(2.82939 0.5585 -1.06467e-19)
(2.9847 0.339182 -4.29521e-19)
(2.60138 0.510125 -2.00619e-19)
(2.73639 0.366641 -6.52621e-21)
(2.42151 0.453687 1.27332e-19)
(2.53157 0.360584 -2.79104e-19)
(2.28483 0.394807 -9.98312e-20)
(2.36858 0.333087 -2.92363e-19)
(2.25195 0.298734 -1.94464e-19)
(2.18154 0.336622 -2.09536e-19)
(1.63084 0.597429 0)
(1.51458 1.76895 3.94409e-18)
(2.3051 -0.0169539 0)
(1.27161 0.417549 -3.3809e-18)
(2.82214 -0.189116 0)
(2.23011 -0.0279104 1.89731e-18)
(3.13494 -0.155287 -1.61666e-18)
(2.72871 -0.230407 -6.20342e-19)
(3.21417 -0.0357869 -8.16903e-19)
(2.97951 -0.273566 2.34193e-19)
(3.10026 0.0994504 1.34259e-18)
(3.03038 -0.181234 3.32707e-19)
(2.89541 0.200713 -2.81306e-19)
(2.92993 -0.0440233 -1.05725e-18)
(2.68055 0.252043 1.80195e-19)
(2.75088 0.0678436 9.5794e-19)
(2.49521 0.263333 -6.84787e-19)
(2.56881 0.137062 -1.09529e-18)
(2.34689 0.245167 -3.68558e-19)
(2.41212 0.163266 -3.09887e-19)
(2.3014 0.164871 -3.12344e-20)
(2.23933 0.197493 8.8665e-20)
(0.94605 1.44592 1.17684e-18)
(0.624734 2.52776 3.78941e-18)
(1.4801 0.415289 -2.09698e-18)
(0.838972 1.14704 -2.55989e-18)
(2.02327 -0.130633 1.50731e-18)
(1.53393 0.358482 7.20082e-19)
(2.47018 -0.358556 1.19923e-18)
(2.02365 -0.124183 1.42447e-19)
(2.7521 -0.385394 1.29631e-18)
(2.40786 -0.374227 2.83371e-18)
(2.84414 -0.283058 -1.72663e-18)
(2.63892 -0.410334 -5.66093e-19)
(2.78773 -0.138526 5.83319e-20)
(2.70086 -0.316217 -7.0257e-19)
(2.65259 -0.0153181 2.89762e-19)
(2.63898 -0.185498 8.00316e-19)
(2.50164 0.0610992 -7.56305e-19)
(2.52357 -0.0727603 -5.02477e-19)
(2.36827 0.0916451 1.25735e-19)
(2.39982 -0.00286145 -3.13081e-19)
(2.30645 0.0356282 4.96243e-19)
(2.26369 0.0886256 2.56027e-19)
(0.569366 2.31481 5.39319e-19)
(0.262806 3.31347 0)
(1.00221 1.10948 -1.1414e-19)
(0.613266 1.92427 3.98506e-19)
(1.47093 0.304514 -4.2987e-19)
(1.11277 0.906229 -1.03069e-18)
(1.91296 -0.186641 1.32535e-18)
(1.53067 0.218629 5.72698e-19)
(2.26566 -0.423813 1.27459e-18)
(1.92879 -0.226855 2.47825e-19)
(2.48193 -0.45258 4.94103e-19)
(2.23258 -0.424755 3.93299e-19)
(2.55645 -0.359207 -7.37373e-20)
(2.4005 -0.434161 -3.30587e-19)
(2.52514 -0.230397 3.49717e-19)
(2.44436 -0.344821 4.47325e-19)
(2.43965 -0.120943 1.42848e-20)
(2.40982 -0.231057 8.47055e-19)
(2.34166 -0.0524022 -4.02303e-21)
(2.33637 -0.141951 -8.16607e-19)
(2.2763 -0.0808183 1.00357e-18)
(2.25195 -0.0232736 4.45749e-19)
(0.399801 3.08454 -1.77207e-19)
(0.227299 4.01595 0)
(0.719579 1.80751 -3.67779e-19)
(0.501037 2.63903 -1.56102e-19)
(1.1165 0.851 -1.98841e-19)
(0.839538 1.51943 -1.66324e-19)
(1.50913 0.171323 -3.3074e-19)
(1.20232 0.663803 -4.91209e-19)
(1.86282 -0.250432 -4.34574e-19)
(1.56897 0.0592337 -3.64307e-19)
(2.1301 -0.43166 -3.46715e-19)
(1.88475 -0.290046 -4.59896e-19)
(2.2859 -0.437718 7.45209e-20)
(2.10522 -0.419111 -9.01319e-19)
(2.33952 -0.353616 8.95975e-19)
(2.22167 -0.403307 4.42006e-19)
(2.32416 -0.250632 2.42417e-19)
(2.25676 -0.321165 4.50477e-19)
(2.27479 -0.169153 -3.88313e-20)
(2.23664 -0.23719 -3.37571e-19)
(2.21524 -0.168633 1.02843e-20)
(2.21742 -0.12093 -2.10706e-19)
(0.371897 3.74721 4.07138e-20)
(0.352356 4.59168 2.35424e-19)
(0.589577 2.46441 4.99522e-20)
(0.447181 3.27351 3.89059e-19)
(0.890678 1.41159 -4.07088e-19)
(0.685051 2.10966 -2.458e-19)
(1.22443 0.596563 -5.02126e-19)
(0.979 1.14615 -9.35872e-20)
(1.55105 0.0310969 -3.79809e-19)
(1.29983 0.415205 2.206e-21)
(1.82904 -0.286812 -9.95531e-19)
(1.60108 -0.063064 1.29252e-20)
(2.02694 -0.401546 -6.52237e-19)
(1.84196 -0.307209 2.52348e-20)
(2.13857 -0.386328 0)
(2.00272 -0.376113 -5.53796e-19)
(2.18085 -0.316241 0)
(2.09023 -0.344422 1.36325e-19)
(2.17888 -0.244003 -3.32496e-19)
(2.11775 -0.283792 0)
(2.13402 -0.225669 -1.82391e-19)
(2.15635 -0.199844 -9.16355e-19)
(0.409694 4.30169 5.87237e-19)
(0.500497 4.97079 1.68151e-19)
(0.534782 3.05034 1.80566e-19)
(0.42408 3.80053 8.44224e-19)
(0.750192 1.94822 5.21839e-20)
(0.600377 2.64733 -7.15732e-19)
(1.02067 1.03916 4.00402e-19)
(0.823826 1.6256 1.42848e-20)
(1.31008 0.363296 3.74843e-19)
(1.09348 0.804777 2.20662e-21)
(1.5792 -0.068912 9.74785e-19)
(1.36954 0.221341 4.16624e-19)
(1.79554 -0.285128 1.45223e-19)
(1.61321 -0.126025 5.75155e-19)
(1.94416 -0.345381 -4.87189e-19)
(1.79939 -0.280376 -8.51437e-20)
(2.03013 -0.321862 1.51023e-19)
(1.92456 -0.308354 -4.33062e-20)
(2.07019 -0.273669 1.6892e-19)
(1.99177 -0.28206 8.61266e-20)
(2.03986 -0.245115 -1.43475e-20)
(2.08336 -0.241561 -3.4368e-19)
(0.459852 4.64977 3.02449e-19)
(0.609443 5.15319 -2.66968e-19)
(0.505585 3.5368 1.60661e-19)
(0.427833 4.20667 6.22088e-19)
(0.652518 2.44416 -8.23501e-19)
(0.555282 3.13665 -2.41137e-19)
(0.8677 1.48246 -3.96648e-19)
(0.711316 2.10016 -4.37213e-19)
(1.11821 0.724333 0)
(0.932057 1.21662 2.29217e-19)
(1.37002 0.197579 0)
(1.17877 0.5481 -9.11687e-21)
(1.59173 -0.110083 4.03123e-19)
(1.41535 0.109283 -1.24986e-19)
(1.76356 -0.245731 3.39974e-19)
(1.61469 -0.12792 4.51849e-19)
(1.88201 -0.275317 -1.23089e-19)
(1.76633 -0.220255 -1.22782e-19)
(1.95622 -0.260384 -8.53855e-20)
(1.8659 -0.23627 8.59081e-20)
(1.94158 -0.227431 5.39187e-20)
(2.00115 -0.254356 -1.53299e-19)
(0.512043 4.83198 -2.9326e-20)
(0.716438 5.18932 -8.72673e-19)
(0.501336 3.92898 3.7076e-19)
(0.467014 4.50829 7.17988e-19)
(0.591659 2.91056 1.78698e-19)
(0.544671 3.58543 1.76228e-19)
(0.753876 1.93199 1.20048e-19)
(0.639883 2.57263 -2.76164e-22)
(0.964061 1.11349 2.44682e-19)
(0.811692 1.65037 2.82387e-19)
(1.19355 0.506713 -1.2453e-19)
(1.02494 0.913114 -9.13393e-21)
(1.41259 0.115193 -1.38445e-19)
(1.24688 0.392582 -3.95638e-19)
(1.59817 -0.0952254 4.98445e-20)
(1.45012 0.0749554 1.64119e-19)
(1.74076 -0.182382 6.2091e-20)
(1.61914 -0.0846575 5.20331e-20)
(1.84271 -0.207261 2.20716e-19)
(1.74418 -0.149404 -3.45228e-20)
(1.84271 -0.175553 2.74268e-19)
(1.9126 -0.228675 1.04323e-19)
(0.59151 4.94486 -1.84259e-19)
(0.815595 5.16005 6.78458e-19)
(0.544108 4.2512 5.78456e-19)
(0.534964 4.70576 3.97111e-20)
(0.577283 3.34948 1.46393e-20)
(0.570671 3.95791 -1.95767e-22)
(0.68368 2.38622 1.32488e-19)
(0.61325 3.02063 -5.86347e-20)
(0.849867 1.52818 5.82099e-20)
(0.735254 2.0936 -5.00969e-22)
(1.05119 0.854673 -2.42143e-19)
(0.910753 1.30757 2.84968e-19)
(1.25944 0.386082 -1.50172e-19)
(1.11092 0.716583 -6.34316e-19)
(1.4505 0.101753 1.79521e-19)
(1.30903 0.323386 1.64583e-19)
(1.60941 -0.0463749 -3.39565e-20)
(1.48637 0.0948444 -2.52253e-19)
(1.73349 -0.116096 -1.59099e-20)
(1.62925 -0.0230022 -3.45937e-20)
(1.74538 -0.0868935 1.118e-19)
(1.82733 -0.169469 1.62522e-20)
(0.673457 4.98522 9.65209e-19)
(0.901416 5.10571 1.38769e-19)
(0.607915 4.47601 -5.38847e-19)
(0.619251 4.80411 4.65657e-19)
(0.598242 3.72355 -6.83767e-20)
(0.628868 4.23266 7.58984e-19)
(0.656515 2.82106 -1.97751e-19)
(0.628839 3.41985 -2.26582e-20)
(0.779039 1.95297 1.9774e-19)
(0.702778 2.52738 -4.45786e-19)
(0.947469 1.23052 -1.08529e-20)
(0.837904 1.71726 5.5422e-19)
(1.13718 0.694723 -4.03521e-19)
(1.01019 1.07096 -1.59672e-19)
(1.32411 0.33992 -2.218e-19)
(1.19455 0.60959 5.31397e-19)
(1.49062 0.129407 -2.76028e-19)
(1.37084 0.313722 -6.73317e-20)
(1.62883 0.0112224 7.65523e-20)
(1.52316 0.13959 -1.36371e-19)
(1.65161 0.0334598 8.6261e-20)
(1.73762 -0.0762269 -1.01314e-18)
(0.758444 4.98284 -2.82573e-19)
(0.985832 5.05376 -9.44426e-19)
(0.691214 4.60725 1.73959e-18)
(0.712621 4.84468 1.95287e-18)
(0.653872 4.01318 8.751e-19)
(0.712062 4.41516 7.12724e-19)
(0.670773 3.21661 -2.24008e-19)
(0.682929 3.75277 -1.32396e-19)
(0.750501 2.37414 -1.94368e-19)
(0.71296 2.93727 -7.34692e-19)
(0.882536 1.62427 4.78093e-19)
(0.805798 2.13205 7.80884e-19)
(1.04695 1.03367 6.99989e-19)
(0.944565 1.44795 -5.40909e-19)
(1.22119 0.614065 7.49123e-19)
(1.10724 0.927791 5.31888e-19)
(1.38653 0.341678 7.6766e-20)
(1.27363 0.568289 -9.46844e-21)
(1.53197 0.172631 -1.51777e-19)
(1.42698 0.337478 9.38351e-20)
(1.56201 0.187832 -6.36729e-19)
(1.65404 0.0555368 1.3497e-18)
(0.847202 4.97333 1.46039e-18)
(1.06799 5.01259 -8.80243e-19)
(0.78815 4.68563 1.04906e-18)
(0.807177 4.86482 7.32374e-19)
(0.738846 4.22662 -2.21802e-19)
(0.809167 4.53217 9.8767e-19)
(0.723794 3.55959 -5.77086e-19)
(0.767444 4.01341 -1.23726e-18)
(0.762317 2.78001 7.85081e-20)
(0.762239 3.30742 1.07685e-18)
(0.855378 2.02845 -9.43521e-20)
(0.813463 2.54145 -1.14692e-20)
(0.98819 1.39775 -8.29515e-19)
(0.913753 1.84053 -7.41671e-19)
(1.14152 0.920823 -1.6723e-19)
(1.04701 1.27368 2.76302e-19)
(1.29713 0.589063 -3.19601e-21)
(1.19474 0.856534 -3.36382e-19)
(1.44227 0.368829 -3.0875e-19)
(1.34049 0.570629 7.08249e-19)
(1.47585 0.377396 -4.50573e-19)
(1.57069 0.211995 9.00589e-20)
(0.93156 4.96017 -1.54693e-18)
(1.14813 4.98136 -1.52203e-18)
(0.88393 4.73176 6.45244e-19)
(0.898031 4.87565 -4.36953e-19)
(0.837572 4.37565 1.87357e-19)
(0.909724 4.60819 9.12545e-21)
(0.805974 3.8363 1.83982e-19)
(0.868316 4.20457 -1.22147e-18)
(0.811508 3.1491 1.11142e-18)
(0.840606 3.61981 7.42893e-19)
(0.86437 2.42729 -5.75464e-19)
(0.85443 2.92432 9.70436e-19)
(0.960175 1.7772 2.47729e-19)
(0.914511 2.23542 -1.05037e-18)
(1.08477 1.25493 1.72619e-19)
(1.01221 1.64035 1.47832e-18)
(1.22211 0.869703 2.59485e-19)
(1.13344 1.17597 -4.96972e-19)
(1.35884 0.600143 6.89293e-19)
(1.26351 0.839287 -1.79376e-19)
(1.39378 0.6013 9.0293e-19)
(1.48613 0.408012 1.42148e-19)
(1.01561 4.94938 -5.28178e-19)
(1.22997 4.95505 -1.48787e-18)
(0.978702 4.76212 -1.11916e-18)
(0.98721 4.88318 1.58208e-18)
(0.941004 4.48094 -1.2808e-18)
(1.0102 4.66292 -1.95853e-18)
(0.904422 4.0509 -8.65311e-19)
(0.974153 4.34572 1.23984e-18)
(0.886194 3.46873 5.80288e-19)
(0.935574 3.87369 -6.83876e-19)
(0.902738 2.80617 7.18112e-19)
(0.920314 3.27011 5.11943e-19)
(0.959045 2.16333 -1.0734e-19)
(0.941723 2.62276 -1.06523e-18)
(1.04903 1.61304 1.0281e-18)
(1.00059 2.02321 7.33067e-19)
(1.1609 1.18382 -9.78741e-19)
(1.08924 1.52641 -4.3205e-20)
(1.28311 0.868934 -7.75714e-20)
(1.19673 1.14728 -1.29659e-18)
(1.31811 0.870265 1.00526e-18)
(1.41119 0.642637 5.27979e-19)
(1.10171 4.94287 5.63834e-19)
(1.31108 4.93103 -2.11264e-18)
(1.07416 4.78818 1.10132e-18)
(1.07392 4.89054 1.33723e-18)
(1.04478 4.56334 2.5406e-19)
(1.10635 4.70637 -9.77068e-19)
(1.00848 4.22059 1.62846e-18)
(1.07559 4.45605 9.79871e-19)
(0.975667 3.74045 -8.99206e-19)
(1.03436 4.08115 0)
(0.962521 3.15756 -1.11136e-18)
(1.00083 3.57679 -4.87974e-19)
(0.980977 2.54951 -4.36241e-19)
(0.990527 2.99563 3.70556e-19)
(1.03328 1.99318 -2.66274e-19)
(1.01164 2.41744 -4.90286e-19)
(1.11411 1.53372 -2.17169e-19)
(1.06433 1.90742 -8.57312e-21)
(1.21532 1.18124 -4.36125e-19)
(1.14324 1.49731 -2.21602e-19)
(1.24403 1.18605 1.61088e-21)
(1.33109 0.924775 1.54387e-20)
(1.18335 4.93444 -1.43495e-18)
(1.38738 4.90663 -9.10559e-19)
(1.16184 4.80715 -4.99368e-19)
(1.15442 4.89227 -4.52662e-19)
(1.1384 4.62843 -4.45882e-19)
(1.1916 4.73928 -1.38441e-18)
(1.10519 4.35853 -5.52115e-19)
(1.1643 4.54576 5.69648e-19)
(1.06661 3.97219 4.73303e-19)
(1.12522 4.25554 0)
(1.03457 3.47854 9.12386e-19)
(1.08551 3.84848 9.37857e-21)
(1.02271 2.92825 4.11444e-19)
(1.05621 3.34862 3.71712e-19)
(1.03923 2.38986 -2.85508e-19)
(1.04692 2.81511 0)
(1.08583 1.91835 1.46139e-20)
(1.06407 2.31327 2.28688e-21)
(1.16093 1.53881 2.05941e-19)
(1.11099 1.88782 -3.97073e-19)
(1.18793 1.55331 4.97481e-19)
(1.26372 1.25126 9.93829e-20)
(1.25918 4.92068 -3.57862e-21)
(1.45434 4.87485 -3.32663e-19)
(1.23966 4.81641 -1.23619e-18)
(1.22679 4.8804 1.00689e-18)
(1.21749 4.67965 -5.50994e-19)
(1.25915 4.75742 -1.75474e-18)
(1.18692 4.47563 1.17684e-18)
(1.23338 4.61991 1.3375e-18)
(1.15027 4.17653 -4.73936e-19)
(1.2022 4.41102 7.73049e-19)
(1.11312 3.77415 -5.87656e-19)
(1.17171 4.09567 -8.32249e-19)
(1.08428 3.29542 0)
(1.14091 3.68082 3.75103e-19)
(1.07217 2.79529 2.92182e-19)
(1.11309 3.20606 -4.78494e-19)
(1.08482 2.33159 -3.60862e-19)
(1.0982 2.7318 3.54268e-19)
(1.1304 1.94105 -2.09029e-19)
(1.11069 2.31067 -7.95153e-19)
(1.16389 1.96976 8.45421e-19)
(1.21644 1.62868 1.68073e-20)
(1.32447 4.89155 5.10589e-19)
(1.50451 4.82676 -3.44575e-18)
(1.29956 4.80623 8.69379e-19)
(1.28125 4.84466 1.0191e-18)
(1.27367 4.71318 -1.78827e-19)
(1.29572 4.75907 -1.16793e-18)
(1.24857 4.58006 9.94564e-19)
(1.27519 4.68168 1.509e-18)
(1.22576 4.36757 5.62493e-19)
(1.26943 4.55361 7.66033e-19)
(1.20279 4.05064 -8.42329e-22)
(1.27222 4.32505 -5.85092e-19)
(1.17425 3.64477 -9.91522e-21)
(1.25949 3.98285 7.40827e-19)
(1.14316 3.19422 -5.30381e-19)
(1.22394 3.56828 -1.03104e-18)
(1.12339 2.75721 5.08381e-20)
(1.17939 3.13539 7.16551e-19)
(1.13677 2.37716 4.88169e-20)
(1.15468 2.74026 -8.54204e-19)
(1.17872 2.41471 5.93983e-20)
(1.19356 2.05933 1.20287e-18)
(1.36057 4.82948 -3.11482e-18)
(1.50225 4.753 -3.22291e-18)
(1.32076 4.77395 -7.64723e-19)
(1.28403 4.78264 2.00953e-19)
(1.2939 4.73488 2.36824e-19)
(1.28801 4.75537 -2.88031e-18)
(1.29155 4.67534 1.35542e-18)
(1.30277 4.73716 2.49451e-18)
(1.3115 4.54597 -2.64531e-19)
(1.36131 4.66503 0)
(1.32869 4.30207 -1.35378e-20)
(1.42623 4.4983 -9.07939e-19)
(1.31421 3.95231 -8.88005e-20)
(1.44263 4.20816 5.98005e-19)
(1.26823 3.55157 -1.34743e-20)
(1.39711 3.84643 -6.82476e-19)
(1.21458 3.15731 -1.39498e-21)
(1.3187 3.46495 1.15824e-19)
(1.19203 2.81103 -9.79526e-19)
(1.25484 3.11621 -9.73382e-19)
(1.24763 2.8255 2.83709e-19)
(1.23258 2.52745 1.08671e-20)
(1.29559 4.71391 -1.05018e-19)
(1.25548 4.69205 -2.38732e-18)
(1.28174 4.73926 -1.67361e-18)
(1.25922 4.68819 1.85459e-19)
(1.30971 4.7759 -1.13232e-18)
(1.31496 4.67153 1.77046e-18)
(1.37972 4.76107 1.35733e-18)
(1.43468 4.60841 -6.54908e-19)
(1.47443 4.66209 -5.40628e-19)
(1.58185 4.53833 1.03715e-18)
(1.5382 4.4486 -4.21332e-19)
(1.694 4.40957 -2.00001e-18)
(1.53057 4.13663 1.53576e-19)
(1.70978 4.19709 1.38036e-18)
(1.45922 3.78754 -6.17871e-19)
(1.63132 3.91476 -2.6744e-19)
(1.3684 3.45214 -6.99107e-19)
(1.51332 3.6071 -3.2198e-19)
(1.31615 3.1574 1.28509e-19)
(1.41918 3.3244 1.46128e-20)
(1.40571 3.06467 4.72777e-19)
(1.3182 2.88844 3.83812e-19)
(1.39442 4.69449 -2.53746e-18)
(1.08291 3.52109 -8.54593e-18)
(1.49034 4.71528 3.65064e-18)
(1.45829 3.64384 1.84241e-18)
(1.57173 4.5916 2.28855e-18)
(1.61529 3.58764 6.14708e-18)
(1.69376 4.46771 -1.24425e-18)
(1.77155 3.55498 -3.56711e-18)
(1.80976 4.34511 -2.30405e-19)
(1.88465 3.58414 1.8613e-18)
(1.85771 4.19227 -5.55477e-19)
(1.93975 3.60397 -1.97791e-18)
(1.81342 3.99088 1.16708e-18)
(1.91766 3.57994 1.08753e-18)
(1.69913 3.74616 -4.43388e-21)
(1.83059 3.49589 1.48493e-19)
(1.5756 3.49619 3.24226e-19)
(1.70888 3.35275 2.9749e-19)
(1.50737 3.26359 2.97767e-19)
(1.61546 3.16556 -9.82333e-20)
(1.61824 2.92485 2.28387e-19)
(1.55173 3.0398 6.31873e-19)
(1.19679 2.6292 -4.72195e-18)
(2.35371 1.52158 -5.24762e-18)
(1.38088 2.59082 4.15953e-18)
(1.81817 1.75766 1.8886e-18)
(1.54639 2.6402 1.14313e-18)
(1.76661 1.81532 1.64065e-18)
(1.70677 2.74359 -1.09957e-18)
(1.79885 1.93725 -1.48794e-18)
(1.82923 2.87577 4.83388e-19)
(1.79863 2.10937 -1.32465e-19)
(1.88858 3.00078 -6.86229e-19)
(1.78557 2.2835 -6.25968e-19)
(1.88564 3.08379 2.6074e-19)
(1.7601 2.42015 4.785e-19)
(1.83507 3.10105 4.88943e-19)
(1.72187 2.50335 -3.30833e-20)
(1.76898 3.03253 -3.94891e-20)
(1.69049 2.5084 2.44918e-20)
(1.75014 2.87868 -1.82446e-19)
(1.6977 2.42068 -2.20649e-19)
(1.77697 2.21831 -4.03562e-19)
(1.79571 2.65119 1.41022e-18)
(3.1616 4.49354 2.86934e-18)
(1.353 4.01168 -2.85774e-18)
(3.05088 3.34608 -1.87261e-20)
(2.01392 3.72358 -1.42003e-20)
(2.98059 2.56283 1.14992e-20)
(2.33728 3.09863 0)
(2.85649 2.00522 1.37286e-19)
(2.47879 2.50782 1.5685e-18)
(2.70345 1.60214 1.01508e-19)
(2.48782 2.01956 -1.04713e-18)
(2.54665 1.30407 -1.2073e-19)
(2.42515 1.62869 -9.97832e-20)
(2.40058 1.07568 0)
(2.32998 1.32114 0)
(2.27204 0.895147 -7.09874e-21)
(2.22701 1.08009 -2.81793e-19)
(2.16418 0.747767 1.49685e-22)
(2.13033 0.888672 2.52567e-19)
(2.07769 0.623232 1.28081e-20)
(2.04697 0.734584 1.46675e-19)
(1.98113 0.615485 -6.79501e-20)
(2.00571 0.517149 5.02952e-21)
(0.366347 3.84259 -4.6674e-18)
(-0.642709 3.11471 -3.86918e-18)
(1.17606 3.54847 0)
(0.229444 3.09737 -5.71676e-19)
(1.69538 3.02122 1.23525e-18)
(0.913071 3.00836 0)
(2.0024 2.49618 5.9522e-19)
(1.45831 2.694 -6.8776e-19)
(2.14882 2.02631 -1.18093e-18)
(1.77723 2.2907 4.55044e-19)
(2.18087 1.63729 0)
(1.9432 1.89996 0)
(2.14619 1.32673 -2.37932e-19)
(1.99786 1.55519 2.30383e-19)
(2.08262 1.08171 -1.15622e-19)
(1.98755 1.26737 -2.62716e-19)
(2.01326 0.886906 3.98681e-19)
(1.94779 1.03368 2.19205e-19)
(1.9514 0.727161 1.35823e-19)
(1.898 0.844834 2.15935e-19)
(1.84845 0.699225 -9.89616e-20)
(1.89174 0.586585 1.27465e-20)
(-0.542186 2.52514 -4.75722e-19)
(-1.19657 2.17563 0)
(-0.000720929 2.76188 -5.91326e-19)
(-0.413473 2.22438 1.04809e-19)
(0.631077 2.78165 -1.69082e-18)
(0.0168217 2.41746 0)
(1.15771 2.54181 -6.60519e-19)
(0.565611 2.40143 -1.8663e-18)
(1.50811 2.18924 1.56628e-18)
(1.04909 2.2357 1.38513e-18)
(1.71481 1.83165 1.98467e-19)
(1.39029 1.96889 1.14641e-18)
(1.81136 1.50766 2.49658e-19)
(1.59181 1.6682 -5.40562e-19)
(1.83774 1.23225 -4.59309e-20)
(1.68904 1.38367 4.96532e-19)
(1.82618 1.0061 -2.15259e-21)
(1.7239 1.13723 -4.66281e-19)
(1.79942 0.821801 6.99887e-20)
(1.72376 0.93089 -1.35722e-19)
(1.70281 0.768126 -8.30415e-20)
(1.76171 0.663263 -2.55745e-20)
(-0.704002 1.77841 4.44696e-19)
(-1.15435 1.57096 1.98325e-18)
(-0.458271 1.9844 5.51295e-19)
(-0.499145 1.55271 -5.3145e-19)
(-0.0609415 2.13237 0)
(-0.338917 1.78509 9.49674e-19)
(0.421679 2.17216 0)
(0.0443228 1.90838 -7.23452e-19)
(0.884475 2.06967 1.00451e-18)
(0.474677 1.92854 0)
(1.23378 1.84197 5.16245e-19)
(0.865107 1.82259 6.86355e-19)
(1.45094 1.56892 -4.2764e-19)
(1.16666 1.63449 -7.71365e-19)
(1.56461 1.30703 2.12862e-19)
(1.36427 1.40897 4.89122e-19)
(1.61362 1.07915 -6.21901e-19)
(1.47838 1.1843 -9.18327e-20)
(1.62624 0.88344 -2.92661e-19)
(1.53158 0.98094 -3.10261e-19)
(1.53758 0.811066 1.58992e-19)
(1.60563 0.696857 -4.84389e-20)
(-0.628426 1.24408 1.94254e-18)
(-0.974116 1.11844 2.38214e-18)
(-0.490421 1.4027 -2.87007e-19)
(-0.407806 1.05491 -5.72271e-19)
(-0.254907 1.58591 3.95409e-19)
(-0.389204 1.27994 1.25683e-19)
(0.0561097 1.71305 -7.99045e-19)
(-0.12938 1.44169 -1.97738e-19)
(0.415673 1.73683 -3.38185e-19)
(0.179352 1.54233 4.04603e-19)
(0.765412 1.65794 -4.22363e-19)
(0.508186 1.55252 -1.00062e-18)
(1.05617 1.50227 0)
(0.808312 1.47739 0)
(1.26117 1.30717 3.11018e-19)
(1.05069 1.33611 5.00809e-19)
(1.38539 1.10532 2.94327e-19)
(1.22371 1.16266 2.96698e-20)
(1.44921 0.915871 -1.73978e-20)
(1.32895 0.986885 -1.13199e-19)
(1.37439 0.829232 4.31825e-19)
(1.45838 0.733616 1.86233e-19)
(-0.491652 0.86063 1.1154e-18)
(-0.758803 0.795667 1.3762e-19)
(-0.406356 0.962597 -4.51685e-19)
(-0.27049 0.702019 5.54632e-19)
(-0.25331 1.13487 -4.42194e-19)
(-0.321738 0.893497 -4.04932e-19)
(-0.0393918 1.29061 9.13853e-19)
(-0.135151 1.04912 5.24566e-19)
(0.225718 1.38519 -1.8181e-19)
(0.0796967 1.1767 6.42568e-19)
(0.510206 1.40001 -6.88529e-19)
(0.332611 1.2475 -1.06361e-18)
(0.776541 1.33622 4.43831e-19)
(0.588723 1.24988 3.39756e-19)
(0.992619 1.21644 2.71639e-19)
(0.825223 1.18838 -4.42521e-19)
(1.15094 1.06535 -3.56168e-19)
(1.01458 1.07561 -5.91102e-21)
(1.25482 0.903993 1.70513e-19)
(1.14703 0.940459 3.13357e-19)
(1.21655 0.806105 1.91881e-19)
(1.30226 0.72768 -8.08752e-20)
(-0.338295 0.596846 -4.07088e-19)
(-0.539794 0.580633 -1.53632e-19)
(-0.28353 0.647457 5.6604e-19)
(-0.13349 0.460004 -7.80076e-20)
(-0.180298 0.792931 4.45274e-19)
(-0.216294 0.61309 3.40148e-19)
(-0.0310878 0.941773 2.12656e-19)
(-0.068971 0.749119 2.11985e-19)
(0.162794 1.05751 -1.32053e-19)
(0.0806745 0.876264 -1.76273e-19)
(0.386179 1.1219 -1.52753e-19)
(0.271256 0.969406 -7.52016e-19)
(0.613447 1.12506 -4.20156e-19)
(0.47945 1.014 3.77561e-19)
(0.820854 1.06971 -6.57435e-19)
(0.686617 1.00382 -6.02921e-19)
(0.98871 0.971248 6.25149e-19)
(0.86921 0.943468 5.22045e-19)
(1.11097 0.849149 3.47976e-19)
(1.01137 0.850859 5.81204e-20)
(1.0966 0.747772 -1.9149e-19)
(1.17983 0.704549 0)
(-0.19769 0.414473 1.35293e-19)
(-0.346561 0.419832 1.40697e-19)
(-0.157655 0.426193 -2.59044e-19)
(-0.0126975 0.288555 -2.43413e-19)
(-0.0813468 0.544763 1.18421e-19)
(-0.10793 0.407079 2.97047e-20)
(0.0263884 0.677115 -1.25751e-19)
(0.0240783 0.527099 3.23813e-19)
(0.170937 0.790324 -7.08978e-19)
(0.126065 0.642757 -4.11096e-19)
(0.343649 0.873437 -2.88949e-19)
(0.272697 0.739814 -3.0933e-19)
(0.529742 0.912099 3.03088e-19)
(0.438318 0.804177 3.77716e-19)
(0.711753 0.901104 5.12315e-19)
(0.611302 0.825092 -4.6056e-20)
(0.871962 0.846462 4.87999e-21)
(0.774898 0.802157 3.62326e-19)
(0.999924 0.761299 -3.42389e-19)
(0.913678 0.744756 -2.20827e-19)
(1.00596 0.671674 -1.54729e-19)
(1.08294 0.646738 3.49048e-20)
(-0.0700759 0.278754 3.57395e-20)
(-0.171819 0.297995 1.79689e-20)
(-0.0348314 0.264869 7.33492e-20)
(0.0965329 0.152445 -4.79759e-20)
(0.0193639 0.364902 2.09731e-19)
(0.00187763 0.260244 8.52889e-20)
(0.106122 0.479066 9.76048e-20)
(0.118164 0.355472 8.08415e-20)
(0.214819 0.584538 -1.98027e-20)
(0.191706 0.465917 -5.45369e-20)
(0.348015 0.671229 2.80017e-19)
(0.305656 0.559193 4.7698e-20)
(0.497754 0.726057 9.368e-20)
(0.435865 0.629935 1.50398e-19)
(0.651269 0.741847 -1.80045e-19)
(0.577178 0.667899 -2.37541e-19)
(0.795158 0.719472 1.07863e-19)
(0.718587 0.669018 1.52993e-19)
(0.919066 0.66722 2.66461e-20)
(0.848152 0.637348 -1.79056e-20)
(0.942426 0.588707 -8.58022e-20)
(1.01025 0.586177 -1.83391e-19)
(0.0461768 0.173568 3.83201e-20)
(-0.0217664 0.22072 1.19909e-19)
(0.0793871 0.139806 4.93439e-20)
(0.199629 0.0385823 -9.71535e-20)
(0.122191 0.231222 -5.62311e-20)
(0.114355 0.147979 6.83947e-20)
(0.187466 0.330894 -5.28254e-20)
(0.212303 0.23124 -9.69543e-20)
(0.272665 0.428392 -4.1552e-21)
(0.265007 0.33037 -4.26068e-20)
(0.376898 0.512318 -8.82754e-20)
(0.352625 0.418951 4.1631e-20)
(0.496162 0.572896 -1.28305e-19)
(0.454141 0.490462 -1.47098e-19)
(0.623203 0.602609 5.30418e-20)
(0.567615 0.535787 -1.5191e-20)
(0.748976 0.599307 0)
(0.686954 0.549837 2.09979e-20)
(0.866275 0.566819 -9.45e-20)
(0.804693 0.532552 1.21278e-20)
(0.89808 0.493527 -1.02079e-19)
(0.968663 0.50318 -5.23265e-20)
(0.181387 0.101015 3.34516e-21)
(0.101026 0.176606 1.01255e-19)
(0.192639 0.0484381 -9.07185e-20)
(0.306096 -0.0182095 -1.16991e-20)
(0.224799 0.132882 2.30864e-20)
(0.227454 0.0669095 5.36308e-20)
(0.273894 0.220958 -7.39439e-20)
(0.303275 0.142151 -6.0106e-20)
(0.33763 0.310581 -5.66775e-21)
(0.340538 0.231991 0)
(0.417109 0.389913 -2.63666e-21)
(0.406147 0.313993 8.4845e-21)
(0.510375 0.450516 -4.63052e-20)
(0.482848 0.382221 7.53762e-21)
(0.613496 0.485326 -4.5056e-20)
(0.571435 0.42824 -5.76323e-20)
(0.721199 0.490631 1.70832e-20)
(0.669402 0.446598 2.47626e-20)
(0.82863 0.467504 1.43586e-20)
(0.774336 0.435157 7.10696e-21)
(0.868469 0.401486 -1.44782e-20)
(0.928388 0.416308 -5.25415e-21)
(0.289902 0.0619801 9.1282e-20)
(0.213668 0.150637 5.73609e-20)
(0.299438 -0.00859751 9.37864e-20)
(0.405785 -0.0591317 1.75491e-19)
(0.322581 0.0645254 -4.13261e-20)
(0.331819 0.0141831 -9.99233e-20)
(0.357941 0.143721 6.29928e-21)
(0.390864 0.0827652 3.58133e-20)
(0.404042 0.225687 1.25737e-20)
(0.414941 0.164621 -4.23105e-20)
(0.462213 0.298897 1.55276e-20)
(0.461562 0.239801 7.4149e-20)
(0.532273 0.355615 0)
(0.516178 0.30226 -2.09684e-20)
(0.613272 0.389114 3.31201e-21)
(0.581896 0.343876 3.75989e-21)
(0.703485 0.395379 1.32168e-20)
(0.6591 0.359291 1.6854e-20)
(0.800656 0.374919 -2.94571e-20)
(0.750267 0.346309 -1.81876e-20)
(0.84051 0.308519 -9.40658e-21)
(0.904504 0.331717 -1.04046e-20)
(0.396679 0.0420665 1.29903e-19)
(0.326674 0.142756 5.42264e-20)
(0.399849 -0.0423229 4.93346e-20)
(0.50705 -0.0763417 6.9383e-20)
(0.415225 0.0219764 -3.74228e-20)
(0.431251 -0.0153325 -5.81055e-20)
(0.438686 0.0943812 -5.77505e-21)
(0.475542 0.0486609 2.96663e-20)
(0.469244 0.169512 8.16273e-21)
(0.487363 0.12404 -4.24462e-20)
(0.508412 0.235831 4.85899e-20)
(0.516691 0.192673 7.98925e-20)
(0.557182 0.285788 -1.98936e-20)
(0.551203 0.247977 -5.53828e-20)
(0.617086 0.312616 1.59028e-20)
(0.595528 0.281475 1.18153e-20)
(0.689953 0.312346 7.457e-21)
(0.652319 0.287646 -1.66402e-20)
(0.778049 0.284538 -8.4301e-21)
(0.728857 0.264227 -9.96736e-21)
(0.813361 0.216588 6.9652e-21)
(0.879183 0.224728 5.31105e-21)
(0.508082 0.0478505 -8.40257e-21)
(0.439172 0.176183 -3.62102e-21)
(0.501133 -0.0512638 -5.60544e-21)
(0.60513 -0.0620563 4.23056e-20)
(0.50591 0.00361928 -3.47781e-21)
(0.52752 -0.0185659 -2.97892e-21)
(0.517154 0.0699262 4.409e-22)
(0.557501 0.0390669 -2.36639e-20)
(0.533029 0.138815 1.75901e-20)
(0.558256 0.108101 7.88015e-20)
(0.554623 0.198089 -8.62737e-21)
(0.571628 0.170306 1.65561e-20)
(0.583541 0.239598 -3.04988e-20)
(0.587989 0.217743 9.38556e-21)
(0.623148 0.255797 -1.76686e-20)
(0.612693 0.240664 1.03161e-19)
(0.678557 0.242368 -3.02871e-20)
(0.650151 0.232471 -9.71336e-21)
(0.756181 0.199938 3.5782e-21)
(0.711634 0.191022 3.22798e-21)
(0.792497 0.120271 -1.54611e-20)
(0.863321 0.135862 0)
(0.607806 0.0802328 4.24788e-20)
(0.548323 0.218509 -3.65176e-20)
(0.596205 -0.0347478 5.80714e-20)
(0.696001 -0.0282215 6.20492e-20)
(0.593106 0.00918041 -2.49955e-20)
(0.619874 1.58432e-05 7.0115e-21)
(0.593477 0.0692069 4.44689e-20)
(0.636918 0.0521084 9.88997e-20)
(0.596326 0.131949 8.42986e-20)
(0.628448 0.11498 1.77319e-19)
(0.602192 0.183959 3.51932e-20)
(0.627586 0.171137 -3.10213e-21)
(0.613406 0.215665 1.33278e-19)
(0.628109 0.210421 2.29793e-19)
(0.634653 0.218033 1.24305e-19)
(0.635607 0.221455 -1.79377e-20)
(0.673442 0.186115 2.27174e-20)
(0.656175 0.195835 2.05064e-20)
(0.73894 0.120406 -1.37781e-20)
(0.702905 0.131466 -7.46969e-20)
(0.781273 0.0323927 -5.90433e-20)
(0.841094 0.0356524 2.3879e-20)
(0.703544 0.130037 -1.75317e-20)
(0.656626 0.276845 5.58645e-21)
(0.68744 0.00280691 2.36441e-20)
(0.784737 0.0263387 1.48909e-20)
(0.677566 0.0362375 1.21307e-19)
(0.711367 0.0398426 1.02688e-20)
(0.668831 0.0902404 2.24329e-19)
(0.716348 0.0861836 -6.85295e-20)
(0.660318 0.147284 1.09904e-19)
(0.699954 0.143707 5.78646e-20)
(0.65264 0.192412 1.66788e-19)
(0.686916 0.194339 -7.23525e-20)
(0.648608 0.214157 1.06817e-19)
(0.674081 0.226018 -4.29733e-21)
(0.65413 0.201443 -1.24187e-19)
(0.66724 0.225173 -3.35034e-19)
(0.678713 0.147975 -6.66261e-20)
(0.674358 0.181117 5.31401e-20)
(0.73413 0.0545629 -1.15552e-19)
(0.709366 0.0909219 3.03928e-19)
(0.786092 -0.0403606 8.99075e-21)
(0.831287 -0.0532948 9.23019e-19)
(0.800719 0.19879 4.57808e-20)
(0.762567 0.358918 -1.47407e-19)
(0.779425 0.0619971 0)
(0.872831 0.105792 6.60325e-20)
(0.763022 0.0847103 -1.69774e-19)
(0.803881 0.103076 -5.09636e-20)
(0.74617 0.132689 -2.45485e-19)
(0.798606 0.142473 -1.88409e-19)
(0.728099 0.184587 -1.08406e-19)
(0.776021 0.194805 -3.952e-20)
(0.709171 0.223727 -2.48608e-19)
(0.753364 0.240852 8.10499e-20)
(0.692698 0.236346 -4.08206e-19)
(0.729918 0.266287 -3.05965e-19)
(0.685838 0.209007 -2.01512e-19)
(0.71203 0.254951 -4.10325e-19)
(0.700034 0.133299 3.95163e-19)
(0.709676 0.193485 1.69793e-19)
(0.75031 0.00869565 4.63609e-19)
(0.737613 0.0765006 -1.65328e-20)
(0.816929 -0.0914497 1.72299e-19)
(0.853946 -0.150076 1.841e-19)
(0.895735 0.289536 -1.47149e-19)
(0.867532 0.458747 2.07259e-20)
(0.872003 0.144878 3.34404e-20)
(0.961163 0.208252 4.47037e-19)
(0.85135 0.156098 -5.5931e-20)
(0.899062 0.190046 2.32583e-19)
(0.828772 0.197857 0)
(0.886943 0.222246 7.7087e-20)
(0.803697 0.245379 1.36667e-19)
(0.860912 0.270275 -1.23874e-19)
(0.776252 0.280069 6.52311e-20)
(0.831804 0.313761 3.24324e-19)
(0.750513 0.285586 -2.97419e-19)
(0.800921 0.335472 1.99739e-21)
(0.734959 0.245845 -1.0479e-19)
(0.775488 0.316767 -2.33289e-20)
(0.742935 0.150056 -2.28508e-19)
(0.767976 0.241579 -1.61267e-19)
(0.789775 -0.00280031 -3.44607e-19)
(0.794332 0.103071 1.96951e-19)
(0.876639 -0.0887681 -2.23813e-20)
(0.876393 -0.176461 -3.88768e-19)
(0.989588 0.400575 5.62788e-19)
(0.973693 0.574049 3.82805e-19)
(0.966755 0.251536 6.74586e-19)
(1.05257 0.332996 -2.78809e-19)