/*--------------------------------*- C++ -*----------------------------------*\
| =========                 |                                                 |
| \\      /  F ield         | OpenFOAM: The Open Source CFD Toolbox           |
|  \\    /   O peration     | Version:  3.0.1                                 |
|   \\  /    A nd           | Web:      www.OpenFOAM.org                      |
|    \\/     M anipulation  |                                                 |
\*---------------------------------------------------------------------------*/
FoamFile
{
    version     2.0;
    format      ascii;
    class       volVectorField;
    location    "0.315995";
    object      U;
}
// * * * * * * * * * * * * * * * * * * * * * * * * * * * * * * * * * * * * * //

dimensions      [0 1 -1 0 0 0 0];

internalField   nonuniform List<vector> 
21246
(
(5.54831 -0.342055 -1.27166e-18)
(4.06516 -0.273753 -1.0983e-18)
(3.97238 -0.1352 -1.55421e-20)
(3.61963 -0.115846 -1.23083e-19)
(3.2448 -0.117539 -5.39641e-20)
(2.91628 -0.136537 7.56532e-20)
(2.64537 -0.162922 1.35234e-19)
(2.41669 -0.190995 0)
(2.22065 -0.219987 -5.76236e-20)
(2.0501 -0.248926 -2.46582e-20)
(1.90584 -0.269586 0)
(3.96559 -0.665815 -3.59722e-19)
(2.50767 -0.845903 0)
(3.13669 -0.904823 5.46937e-19)
(3.25042 -0.849216 2.07548e-19)
(3.12518 -0.734325 0)
(2.91195 -0.60283 -2.34755e-19)
(2.69031 -0.510187 5.73602e-20)
(2.47471 -0.452466 -1.77166e-19)
(2.27974 -0.421571 9.91055e-20)
(2.10633 -0.410065 1.14635e-19)
(1.96106 -0.405752 -8.36465e-20)
(2.43915 0.355862 0)
(1.57224 -0.358576 0)
(2.24684 -0.876065 5.68005e-19)
(2.5432 -1.0596 -6.88433e-19)
(2.67065 -1.07535 0)
(2.68028 -0.975442 4.15108e-19)
(2.59064 -0.832763 2.99017e-19)
(2.44488 -0.710081 4.16071e-19)
(2.2887 -0.625742 -1.24315e-19)
(2.13481 -0.574831 0)
(2.0044 -0.548118 0)
(1.82821 1.57671 -3.81213e-18)
(1.42752 0.500057 2.79259e-18)
(1.7526 -0.322566 -4.95703e-19)
(1.97924 -0.788666 -5.69914e-19)
(2.1844 -1.04035 -2.17581e-19)
(2.32815 -1.0998 1.47119e-19)
(2.37354 -1.02848 -4.40749e-19)
(2.33183 -0.909285 0)
(2.24011 -0.798499 0)
(2.1293 -0.722846 -3.15965e-19)
(2.02998 -0.675987 6.46859e-20)
(1.8118 2.54589 2.74909e-18)
(1.55877 1.33024 -2.13047e-18)
(1.60088 0.387455 0)
(1.70076 -0.281061 -6.0465e-19)
(1.85937 -0.744625 3.90161e-19)
(2.02183 -0.990538 2.12762e-19)
(2.13337 -1.05208 -3.49727e-19)
(2.17385 -1.00253 -3.60195e-19)
(2.15441 -0.913824 3.57494e-19)
(2.09392 -0.834689 3.63775e-19)
(2.0325 -0.7803 -1.66238e-19)
(2.12902 3.27031 2.54112e-18)
(1.80414 2.0587 -1.72245e-18)
(1.65996 1.06844 0)
(1.63859 0.274247 0)
(1.7096 -0.335903 0)
(1.82754 -0.738006 2.41843e-19)
(1.94365 -0.939186 5.81444e-19)
(2.02324 -0.988876 -2.99748e-19)
(2.05573 -0.954775 -2.27212e-19)
(2.04333 -0.898064 -1.37053e-19)
(2.02181 -0.852568 8.00504e-20)
(2.59148 3.80218 -4.07947e-18)
(2.0948 2.70833 2.99081e-18)
(1.83649 1.68826 6.66998e-20)
(1.7049 0.812889 -1.73285e-18)
(1.68196 0.10179 1.23749e-18)
(1.73449 -0.419051 -9.35142e-19)
(1.82174 -0.741998 6.29515e-19)
(1.90664 -0.893843 4.87342e-20)
(1.96699 -0.929298 -6.34544e-20)
(1.9915 -0.910141 0)
(2.00447 -0.88478 0)
(2.87641 4.10401 2.30698e-19)
(2.34339 3.24644 0)
(2.05049 2.23672 -6.50237e-20)
(1.83059 1.3258 1.55993e-18)
(1.72486 0.544162 -1.10868e-18)
(1.71088 -0.0696875 -6.60697e-19)
(1.75587 -0.494854 3.07468e-19)
(1.82612 -0.741324 0)
(1.89576 -0.849756 6.22238e-20)
(1.94552 -0.876159 -3.0381e-19)
(1.98445 -0.875949 1.74591e-20)
(3.00958 4.13922 1.30433e-18)
(2.54981 3.61818 0)
(2.27119 2.72142 2.31887e-19)
(1.98851 1.82254 0)
(1.81285 0.991779 0)
(1.73428 0.302115 -3.51913e-19)
(1.73034 -0.210552 8.05591e-19)
(1.77419 -0.543201 -3.31482e-19)
(1.84031 -0.72362 -1.81623e-19)
(1.90602 -0.799944 3.43093e-19)
(1.96715 -0.828668 2.04713e-19)
(3.14896 4.12635 2.07431e-19)
(2.7726 3.86943 0)
(2.51251 3.14908 1.09459e-18)
(2.18467 2.30307 -1.34586e-18)
(1.942 1.44713 9.42497e-19)
(1.79548 0.69815 -7.24838e-19)
(1.73565 0.110244 9.55853e-19)
(1.74348 -0.300977 -1.07264e-18)
(1.79611 -0.551451 2.36063e-19)
(1.87004 -0.680572 -5.82095e-19)
(1.95134 -0.741655 4.32195e-19)
(3.2593 4.0811 3.95777e-19)
(2.94617 3.98884 -2.9255e-19)
(2.73555 3.46679 2.59827e-18)
(2.39996 2.73362 -1.31335e-18)
(2.10297 1.89515 0)
(1.88787 1.11256 -3.41825e-19)
(1.76664 0.465613 -9.26231e-19)
(1.73051 -0.013966 3.69476e-19)
(1.76095 -0.33007 4.43798e-19)
(1.83555 -0.512856 5.55978e-19)
(1.93669 -0.610747 -4.37478e-20)
(3.3425 4.02999 -6.47384e-18)
(3.06371 4.03195 2.63833e-18)
(2.91899 3.65786 1.26064e-18)
(2.60581 3.0779 -2.54267e-18)
(2.27589 2.30932 9.47676e-19)
(2.00089 1.52896 0)
(1.81815 0.84713 0)
(1.73356 0.315612 3.28435e-19)
(1.73557 -0.0567944 -4.4053e-19)
(1.80372 -0.290719 5.50407e-19)
(1.91991 -0.428328 -3.66954e-19)
(3.41027 3.96693 2.95394e-18)
(3.15188 4.03286 -1.02035e-19)
(3.05967 3.75556 -2.16696e-18)
(2.78131 3.32965 0)
(2.44412 2.66957 0)
(2.12516 1.93054 0)
(1.88668 1.24479 0)
(1.75368 0.683375 0)
(1.72436 0.268187 0)
(1.78149 -0.0113261 -5.42172e-20)
(1.90663 -0.189928 -6.69318e-19)
(3.46211 3.89172 2.99471e-18)
(3.21791 4.0014 -5.54686e-19)
(3.15651 3.78911 -1.24262e-18)
(2.9203 3.49739 1.29457e-18)
(2.59755 2.96591 0)
(2.25581 2.30305 0)
(1.97313 1.64622 0)
(1.79659 1.08076 0)
(1.73638 0.64022 0)
(1.77995 0.323964 4.92257e-19)
(1.9127 0.102617 2.85411e-19)
(3.49126 3.80712 0)
(3.25714 3.94374 8.30593e-19)
(3.21057 3.77139 4.1991e-19)
(3.02 3.58739 0)
(2.73039 3.19399 0)
(2.38673 2.62769 0)
(2.07766 2.02957 -4.57762e-19)
(1.8682 1.4879 0)
(1.78288 1.04324 7.25339e-19)
(1.81314 0.703398 -1.49773e-18)
(1.94604 0.446078 -5.24514e-19)
(3.50616 3.71187 -2.9823e-18)
(3.27711 3.86748 -2.78479e-19)
(3.23849 3.72006 -5.68222e-21)
(3.07366 3.59659 0)
(2.83946 3.34375 -4.56309e-19)
(2.51479 2.89441 0)
(2.19912 2.3726 4.63293e-19)
(1.97358 1.88073 -2.66314e-19)
(1.87413 1.45425 4.23338e-19)
(1.89665 1.10452 4.66416e-19)
(2.03312 0.810663 0)
(3.51062 3.60403 0)
(3.28405 3.77556 0)
(3.25025 3.64493 -6.35424e-19)
(3.10561 3.56179 0)
(2.90922 3.39476 -4.28305e-19)
(2.64273 3.09467 6.79261e-19)
(2.33394 2.65862 -2.24426e-19)
(2.11394 2.23578 2.51774e-19)
(2.01709 1.84622 -7.67283e-20)
(2.04092 1.502 -2.5012e-19)
(2.18038 1.18046 0)
(3.50006 3.48856 -1.90002e-19)
(3.27473 3.66795 -2.24343e-18)
(3.24425 3.54763 1.95885e-18)
(3.1173 3.49459 -1.23582e-18)
(2.95439 3.38448 9.48397e-19)
(2.7397 3.19088 0)
(2.48119 2.88025 4.55158e-19)
(2.28455 2.52935 1.49997e-19)
(2.21079 2.19131 0)
(2.25035 1.86286 0)
(2.39206 1.52489 0)
(3.48156 3.37132 3.32513e-18)
(3.25426 3.5472 -2.49167e-18)
(3.22487 3.43728 1.77922e-18)
(3.11168 3.40406 -1.32495e-18)
(2.97771 3.3339 1.17002e-19)
(2.81185 3.21255 6.44961e-19)
(2.62166 3.01624 -7.17619e-19)
(2.47597 2.74542 4.19628e-19)
(2.44712 2.46489 -8.7204e-19)
(2.51865 2.15871 2.56663e-19)
(2.67818 1.80099 0)
(3.45566 3.25571 0)
(3.22168 3.42285 3.97069e-20)
(3.18953 3.32027 -5.799e-20)
(3.08928 3.30061 -1.32405e-18)
(2.98203 3.25725 -1.35062e-19)
(2.86207 3.18441 7.2073e-19)
(2.74204 3.06633 0)
(2.67454 2.87341 -2.66656e-19)
(2.70862 2.64333 2.73618e-19)
(2.82776 2.36117 -2.25379e-19)
(3.01657 1.98931 8.05057e-20)
(3.38983 3.13312 7.39504e-18)
(3.17302 3.28875 -4.69003e-20)
(3.13935 3.19697 -5.58125e-20)
(3.0559 3.18243 -5.06427e-20)
(2.97461 3.15112 -1.01163e-18)
(2.89713 3.10254 -7.39952e-19)
(2.84768 3.0175 5.48847e-19)
(2.8703 2.86607 -4.42927e-20)
(2.97999 2.65629 2.83779e-19)
(3.16158 2.37529 -1.64234e-19)
(3.38831 1.97751 -2.00459e-19)
(3.32289 2.98722 -6.39006e-18)
(3.1109 3.14471 3.12478e-18)
(3.08951 3.04628 -2.50475e-18)
(3.02282 3.02272 2.07161e-18)
(2.96424 2.97383 -5.87216e-19)
(2.92666 2.90297 4.32298e-19)
(2.9446 2.78854 6.13481e-19)
(3.0418 2.60749 -2.16741e-19)
(3.21631 2.35454 0)
(3.45137 2.03813 0)
(3.71015 1.63461 2.06908e-19)
(3.10849 2.88048 -2.65304e-18)
(3.05133 2.95399 2.33126e-18)
(3.02517 2.84414 -1.70238e-18)
(2.97646 2.7708 -9.71769e-19)
(2.94514 2.65973 0)
(2.94729 2.51459 0)
(3.01175 2.31627 4.89052e-19)
(3.14752 2.06148 4.68993e-19)
(3.34077 1.77274 0)
(3.57874 1.48611 0)
(3.82172 1.14475 2.90854e-19)
(2.97124 2.27017 0)
(2.94598 2.52385 -6.1851e-19)
(3.01623 2.33801 8.59409e-19)
(3.00502 2.18498 -6.17909e-19)
(2.98252 2.02594 8.50666e-19)
(2.98536 1.84378 -6.14274e-19)
(3.03719 1.64269 -8.3721e-19)
(3.14513 1.44291 -5.71431e-19)
(3.30628 1.25435 4.26525e-19)
(3.52312 1.04677 -5.56363e-19)
(3.76121 0.756809 -3.36213e-19)
(4.76723 2.19929 5.30368e-19)
(4.10937 2.01866 -2.19595e-20)
(3.70467 1.32944 1.7117e-19)
(3.354 0.83619 0)
(3.04227 0.515786 -3.7416e-19)
(2.76988 0.30444 1.6144e-19)
(2.53354 0.159146 -2.87265e-19)
(2.32711 0.0539565 0)
(2.14591 -0.0267535 5.79011e-20)
(1.98607 -0.0897451 1.87705e-19)
(1.84504 -0.133136 -9.9109e-20)
(1.60061 3.25213 -4.94257e-18)
(2.42398 2.71678 2.13573e-18)
(2.68418 2.19436 -3.57038e-18)
(2.76375 1.62438 1.16947e-18)
(2.71253 1.14792 7.42792e-19)
(2.58432 0.780723 3.65494e-19)
(2.4196 0.511469 0)
(2.24616 0.316876 -8.2485e-20)
(2.07978 0.173792 2.70111e-19)
(1.92667 0.0673756 -2.6802e-19)
(1.78907 -0.00506957 2.06979e-20)
(0.305604 2.78263 0)
(1.01107 2.44139 0)
(1.57083 2.32107 1.78278e-18)
(1.99436 1.97612 -1.31148e-18)
(2.19938 1.55396 -3.21995e-20)
(2.24997 1.15737 -1.08965e-18)
(2.20279 0.828467 0)
(2.10078 0.57145 2.02057e-19)
(1.97577 0.375466 -1.56041e-19)
(1.84574 0.228357 2.00143e-19)
(1.72014 0.126301 5.50809e-20)
(-0.0617589 2.24154 0)
(0.504248 1.94249 3.91779e-18)
(0.791769 2.03688 -5.71784e-18)
(1.19378 1.91986 2.20692e-18)
(1.56218 1.68475 2.76269e-19)
(1.80431 1.37069 2.17867e-19)
(1.90388 1.04981 0)
(1.8976 0.770398 1.66694e-19)
(1.83285 0.545605 -1.97415e-19)
(1.7407 0.371309 -1.25218e-19)
(1.63662 0.248702 -8.52852e-20)
(-0.134478 1.76202 0)
(0.315127 1.48531 -2.51042e-18)
(0.461308 1.66021 1.83977e-18)
(0.763156 1.66584 1.39478e-18)
(1.0683 1.57952 -1.086e-18)
(1.33242 1.3996 9.01962e-20)
(1.51866 1.16233 4.63502e-19)
(1.6179 0.911368 -3.81765e-19)
(1.63929 0.680683 0)
(1.60655 0.48677 4.46257e-20)
(1.53999 0.342682 9.00918e-20)
(-0.0895713 1.39537 1.4354e-18)
(0.256856 1.13727 -2.47824e-18)
(0.316031 1.32004 -1.68327e-19)
(0.541024 1.36935 -2.11159e-20)
(0.783374 1.36499 -1.91834e-20)
(1.02147 1.28402 5.398e-19)
(1.21908 1.13604 -1.89825e-19)
(1.35445 0.947273 0)
(1.42505 0.748019 -2.87874e-19)
(1.44261 0.561797 2.11607e-19)
(1.41731 0.414058 0)
(0.0167153 1.13303 5.08548e-19)
(0.272561 0.891579 -1.12853e-18)
(0.275598 1.05786 -1.98058e-19)
(0.439922 1.11497 6.3717e-19)
(0.617414 1.14725 0)
(0.808952 1.12321 0)
(0.988213 1.03936 7.93004e-19)
(1.13291 0.906663 -4.6047e-19)
(1.23209 0.745377 2.44368e-19)
(1.28801 0.578367 -4.60844e-19)
(1.29948 0.437851 2.07434e-19)
(0.144055 0.956942 9.58719e-20)
(0.320709 0.732185 -1.67581e-20)
(0.29117 0.873817 3.37512e-19)
(0.412698 0.924486 -6.51409e-19)
(0.535641 0.968862 3.49544e-19)
(0.678126 0.971833 6.28194e-19)
(0.822894 0.925886 5.24116e-21)
(0.953069 0.833219 -3.12239e-19)
(1.05805 0.704074 -3.45615e-19)
(1.1356 0.556369 2.33555e-19)
(1.1752 0.424227 -1.55295e-19)
(0.274974 0.838352 -7.72358e-20)
(0.38756 0.631072 3.1597e-20)
(0.334211 0.751691 3.85433e-20)
(0.42693 0.792973 0)
(0.505233 0.839347 -2.23593e-19)
(0.603429 0.85248 5.87204e-21)
(0.709029 0.825369 0)
(0.812028 0.756327 -1.71284e-19)
(0.907257 0.650137 3.7421e-19)
(0.991695 0.518841 -9.60819e-20)
(1.05025 0.398523 7.75243e-20)
(0.418763 0.761818 4.39365e-19)
(0.464711 0.564947 -3.03662e-20)
(0.395221 0.676551 -3.72256e-20)
(0.466695 0.707965 -8.20287e-20)
(0.505329 0.753639 6.37629e-20)
(0.564986 0.768418 -7.92926e-20)
(0.631446 0.748227 3.11766e-20)
(0.701806 0.689192 6.1572e-20)
(0.776802 0.594734 -1.19164e-19)
(0.855738 0.471495 -1.00736e-20)
(0.919792 0.353791 0)
(0.562135 0.74189 0)
(0.555559 0.534798 1.63644e-19)
(0.485123 0.633378 0)
(0.522558 0.660407 -2.20743e-19)
(0.52739 0.705049 4.03193e-19)
(0.553103 0.715749 7.96702e-20)
(0.581026 0.694755 -1.10878e-19)
(0.615859 0.635829 0)
(0.663085 0.542663 -1.14757e-20)
(0.727198 0.419552 4.6622e-20)
(0.787424 0.294754 -2.72332e-20)
(0.710338 0.760317 1.14551e-18)
(0.667452 0.546303 -9.43171e-19)
(0.5887 0.625402 -4.93475e-19)
(0.591365 0.647207 5.87769e-19)
(0.571926 0.68473 4.40951e-20)
(0.564003 0.689616 3.01765e-19)
(0.555373 0.661692 -3.66992e-19)
(0.553285 0.594589 1.83352e-19)
(0.567484 0.493331 0)
(0.611144 0.363072 -1.74669e-19)
(0.667223 0.226553 8.36881e-20)
(0.868486 0.800272 -1.40692e-19)
(0.795503 0.587798 2.27098e-19)
(0.704603 0.644367 0)
(0.678208 0.662446 -2.00014e-19)
(0.636025 0.68797 1.68918e-19)
(0.597979 0.682968 -2.40108e-19)
(0.556716 0.643211 1.32982e-19)
(0.519428 0.562409 8.7156e-20)
(0.49824 0.446014 1.90687e-19)
(0.513544 0.301241 1.73677e-19)
(0.55381 0.146628 0)
(1.04448 0.861373 0)
(0.942864 0.653392 -2.27096e-19)
(0.838658 0.686432 -1.91893e-19)
(0.786258 0.698061 3.77305e-19)
(0.722614 0.709862 -1.00188e-18)
(0.658186 0.691663 1.4472e-20)
(0.588629 0.635614 3.93534e-20)
(0.520405 0.535229 5.08315e-20)
(0.466639 0.395499 2.71703e-20)
(0.451075 0.227533 -1.62292e-19)
(0.477327 0.0467067 0)
(1.23198 0.942738 9.39732e-20)
(1.10156 0.742624 0)
(0.989498 0.750453 -6.11897e-19)
(0.916795 0.750858 7.70957e-19)
(0.835087 0.74681 -2.42722e-19)
(0.749224 0.712527 6.98096e-19)
(0.656757 0.637168 -7.87197e-19)
(0.563379 0.513325 -1.69919e-19)
(0.482266 0.344862 -2.7952e-20)
(0.436922 0.146277 4.00623e-19)
(0.449655 -0.0719269 -5.70726e-19)
(1.42444 1.02822 6.99843e-19)
(1.27042 0.845752 0)
(1.15724 0.830764 0)
(1.07118 0.817764 0)
(0.976653 0.796753 -1.41438e-19)
(0.875732 0.744489 0)
(0.767219 0.647915 2.87961e-19)
(0.65632 0.498313 4.00566e-20)
(0.555908 0.297989 6.67976e-19)
(0.486777 0.0646658 -2.60413e-19)
(0.488423 -0.190185 -1.99573e-19)
(1.61896 1.11246 0)
(1.44886 0.9561 0)
(1.34122 0.922778 6.73711e-20)
(1.24931 0.896496 -8.98435e-19)
(1.14871 0.858992 1.4331e-19)
(1.0406 0.788436 4.71249e-19)
(0.924759 0.670184 2.70218e-19)
(0.806307 0.494065 -5.37392e-19)
(0.698008 0.260375 0)
(0.61842 -0.013131 1.67543e-19)
(0.602534 -0.306909 4.10123e-19)
(1.80904 1.19537 9.86626e-19)
(1.63109 1.07113 -7.61526e-19)
(1.53654 1.02395 -1.24454e-18)
(1.44721 0.985906 1.01137e-18)
(1.34876 0.933747 7.05558e-19)
(1.24282 0.846294 -5.38349e-19)
(1.1302 0.707779 -3.27193e-19)
(1.01619 0.506788 3.10361e-19)
(0.912466 0.242093 0)
(0.834426 -0.0692566 -5.29855e-19)
(0.822886 -0.402096 2.65064e-19)
(1.98957 1.27361 -2.32192e-18)
(1.81226 1.18662 8.65574e-19)
(1.73729 1.13079 1.34538e-18)
(1.65867 1.08407 -8.94426e-19)
(1.57101 1.02063 0)
(1.47721 0.919577 0)
(1.37952 0.764455 -1.25855e-19)
(1.28408 0.543085 1.10884e-20)
(1.20218 0.253088 -1.48921e-19)
(1.14761 -0.0900053 0)
(1.14731 -0.45553 -1.57198e-19)
(2.15965 1.34545 7.99901e-20)
(1.99052 1.29853 0)
(1.93882 1.23967 -1.99117e-19)
(1.8774 1.18845 4.57309e-19)
(1.80772 1.11841 -9.19914e-19)
(1.73474 1.00866 7.1547e-19)
(1.66288 0.842674 1.29321e-19)
(1.59977 0.608548 4.44725e-19)
(1.55568 0.303258 -4.09858e-21)
(1.54082 -0.0608462 5.06332e-19)
(1.57231 -0.454063 -1.99472e-19)
(2.31958 1.41343 1.60047e-18)
(2.16481 1.40569 -2.42525e-18)
(2.13713 1.34916 2.11747e-19)
(2.09662 1.29796 1.39636e-18)
(2.04885 1.22626 -1.60639e-18)
(2.0019 1.113 4.18178e-19)
(1.96384 0.942805 9.38944e-19)
(1.94422 0.706109 2.906e-20)
(1.95163 0.400557 -5.50432e-21)
(1.99204 0.0356635 2.32325e-20)
(2.05475 -0.360779 -6.67655e-21)
(2.47173 1.4736 -2.04523e-18)
(2.33511 1.50425 1.50319e-18)
(2.3295 1.45614 0)
(2.30888 1.41018 0)
(2.28183 1.34098 9.31159e-19)
(2.26184 1.22818 -6.92729e-19)
(2.26204 1.06005 1.65039e-20)
(2.29339 0.832227 -5.23283e-19)
(2.36268 0.543876 0)
(2.47876 0.200755 -5.61741e-19)
(2.57897 -0.192163 0)
(2.60988 1.54475 2.13006e-18)
(2.49958 1.60802 -2.05881e-18)
(2.50432 1.57735 1.45014e-18)
(2.4961 1.53936 0)
(2.48538 1.47179 -7.56293e-19)
(2.49221 1.35832 0)
(2.533 1.19529 -1.21683e-18)
(2.61605 0.985792 2.90933e-19)
(2.74268 0.729137 -8.3975e-19)
(2.91955 0.423407 1.18484e-18)
(3.06826 0.04337 -4.1824e-19)
(2.76334 1.5198 1.19135e-18)
(2.6563 1.70512 0)
(2.66676 1.69648 1.03737e-18)
(2.66981 1.66471 -3.41202e-19)
(2.68103 1.59218 5.99384e-19)
(2.72112 1.47329 4.09573e-19)
(2.80228 1.31709 2.31974e-19)
(2.92682 1.13437 -1.3129e-18)
(3.09216 0.922165 4.79748e-19)
(3.30359 0.673562 -1.33746e-20)
(3.50648 0.351915 0)
(7.51532 -3.19007 -3.33858e-19)
(6.51454 -2.88418 2.98458e-22)
(6.09336 -2.33417 1.13187e-19)
(5.76411 -1.88824 0)
(5.43334 -1.52308 0)
(5.11933 -1.23771 0)
(4.83506 -1.02165 7.23678e-21)
(4.57353 -0.852829 3.80387e-20)
(4.33664 -0.718363 0)
(4.1222 -0.609872 1.11337e-19)
(3.93094 -0.534638 -5.41061e-20)
(4.63031 -4.39569 -2.78098e-18)
(4.81455 -3.97977 3.56309e-18)
(5.00163 -3.3705 -1.23735e-18)
(5.05187 -2.78226 -1.03766e-18)
(4.9787 -2.27003 8.0755e-19)
(4.82413 -1.84667 0)
(4.63137 -1.50884 1.60894e-19)
(4.42637 -1.2436 -8.40357e-20)
(4.22427 -1.03542 -8.38476e-20)
(4.03237 -0.872244 1.92145e-20)
(3.85559 -0.753565 0)
(2.86101 -4.1627 -7.27977e-18)
(3.47249 -4.01048 -1.33669e-19)
(3.87807 -3.71279 0)
(4.17254 -3.27565 1.9271e-18)
(4.32819 -2.80075 -2.72302e-18)
(4.36109 -2.34513 9.23731e-19)
(4.30417 -1.94292 0)
(4.19201 -1.60677 7.49119e-20)
(4.0527 -1.33408 0)
(3.90531 -1.11572 1.09717e-19)
(3.76007 -0.950011 -5.76866e-20)
(1.86769 -3.53251 6.28953e-18)
(2.47719 -3.61595 -8.99718e-20)
(2.96056 -3.58787 -1.88484e-19)
(3.35006 -3.36429 -2.48278e-18)
(3.63405 -3.02799 9.06101e-20)
(3.80698 -2.6408 7.31237e-19)
(3.87926 -2.25348 -7.64023e-19)
(3.87536 -1.89835 0)
(3.8212 -1.59031 -5.66224e-19)
(3.73546 -1.33402 3.7341e-19)
(3.62471 -1.1359 -4.38688e-19)
(1.56212 -3.19056 -2.27435e-18)
(1.9243 -3.22117 0)
(2.23159 -3.26778 3.51001e-18)
(2.62617 -3.21829 -2.3659e-18)
(2.98001 -3.0413 0)
(3.24807 -2.7603 2.79088e-19)
(3.41464 -2.43014 1.93081e-18)
(3.49294 -2.09682 -1.13419e-18)
(3.50843 -1.78529 6.60411e-19)
(3.48468 -1.50748 -4.85493e-19)
(3.43517 -1.27482 -5.77025e-19)
(1.43751 -2.90355 2.1778e-18)
(1.7041 -2.91703 2.40461e-18)
(1.88954 -2.9786 -1.09433e-18)
(2.15352 -2.96406 -5.85931e-19)
(2.43473 -2.86734 -1.66893e-18)
(2.7024 -2.68577 -2.30708e-18)
(2.92486 -2.44108 2.18827e-18)
(3.08557 -2.1621 5.85978e-19)
(3.18352 -1.87677 -6.05863e-20)
(3.22833 -1.60805 -1.05461e-18)
(3.22885 -1.37846 6.35315e-19)
(1.34485 -2.65391 2.21624e-18)
(1.553 -2.63704 -5.55855e-18)
(1.68815 -2.69017 2.44372e-20)
(1.89599 -2.68902 5.0705e-18)
(2.12366 -2.63419 -1.56154e-18)
(2.35431 -2.51408 5.68972e-19)
(2.56667 -2.33544 7.92807e-19)
(2.74346 -2.11567 -1.7828e-18)
(2.87612 -1.8757 7.69121e-19)
(2.96318 -1.63666 2.59366e-18)
(3.00287 -1.42105 -7.40717e-19)
(1.25163 -2.44348 -1.49707e-18)
(1.4273 -2.39681 1.50935e-18)
(1.53749 -2.43104 6.10472e-19)
(1.70382 -2.42906 -4.74838e-19)
(1.88968 -2.39024 7.22941e-19)
(2.08647 -2.3052 -5.66555e-19)
(2.28051 -2.17443 -3.95944e-18)
(2.45767 -2.00607 3.39757e-18)
(2.60766 -1.81266 -3.84e-20)
(2.72321 -1.61122 -2.08269e-18)
(2.79345 -1.42653 7.23768e-19)
(1.17147 -2.25433 -4.5113e-19)
(1.32784 -2.18835 0)
(1.41972 -2.2068 0)
(1.55965 -2.19968 0)
(1.71626 -2.16586 1.30835e-18)
(1.88553 -2.09875 1.00826e-18)
(2.05921 -1.99768 1.51567e-18)
(2.22733 -1.86625 -1.09555e-18)
(2.38098 -1.71083 7.2233e-19)
(2.51115 -1.5426 -5.49183e-19)
(2.603 -1.38255 6.91195e-19)
(1.1127 -2.08523 -1.20594e-18)
(1.2521 -2.00193 0)
(1.32678 -2.00872 -2.45054e-18)
(1.44712 -1.99651 1.16104e-18)
(1.58229 -1.96373 5.80483e-19)
(1.73035 -1.90573 -1.87433e-18)
(1.88615 -1.82225 6.91252e-19)
(2.04276 -1.71522 -1.03748e-18)
(2.19322 -1.58752 -2.15243e-18)
(2.3286 -1.44536 2.49906e-18)
(2.4311 -1.30337 -7.11049e-19)
(1.06955 -1.94416 -1.85337e-18)
(1.18883 -1.83909 1.14528e-18)
(1.24952 -1.83293 4.6495e-19)
(1.35499 -1.81416 1.99976e-20)
(1.47404 -1.7797 0)
(1.6061 -1.7258 -1.25872e-18)
(1.74767 -1.6527 1.30948e-18)
(1.89375 -1.56187 0)
(2.03919 -1.45469 -6.30453e-19)
(2.17592 -1.33543 4.52843e-19)
(2.28203 -1.21978 -1.45481e-20)
(1.02432 -1.81867 0)
(1.12258 -1.69336 -2.61762e-19)
(1.17771 -1.67367 0)
(1.27438 -1.64715 3.37217e-19)
(1.38267 -1.60904 -1.01782e-18)
(1.50352 -1.55605 1.19332e-18)
(1.6347 -1.48884 -5.86154e-19)
(1.77253 -1.40883 4.46443e-19)
(1.91324 -1.31683 6.57515e-19)
(2.05008 -1.21527 -4.64092e-19)
(2.16173 -1.11572 -6.09716e-19)
(0.976839 -1.69084 0)
(1.05788 -1.55148 1.25763e-18)
(1.11058 -1.52163 -9.69921e-19)
(1.20142 -1.4887 0)
(1.30259 -1.44671 0)
(1.4162 -1.39303 0)
(1.54067 -1.32891 0)
(1.6732 -1.25605 3.97965e-19)
(1.81091 -1.17484 3.06631e-19)
(1.94843 -1.08558 0)
(2.0647 -0.993982 2.83747e-19)
(0.936892 -1.57085 -7.30344e-20)
(1.00226 -1.41414 1.13892e-19)
(1.0499 -1.37405 9.93149e-20)
(1.13498 -1.33482 0)
(1.23099 -1.28863 4.34917e-19)
(1.34025 -1.23327 4.86149e-19)
(1.46122 -1.17062 -3.88546e-19)
(1.59126 -1.10279 0)
(1.72769 -1.03025 1.28843e-19)
(1.86581 -0.952322 -1.9127e-19)
(1.9822 -0.874532 -2.54148e-21)
(0.895316 -1.45871 6.41936e-19)
(0.942403 -1.28196 -9.92487e-19)
(0.989751 -1.22936 1.45187e-18)
(1.07271 -1.18254 -6.58238e-21)
(1.1666 -1.13127 -4.07695e-19)
(1.27451 -1.0734 -1.59999e-19)
(1.39502 -1.01136 -1.19983e-19)
(1.52541 -0.947769 -3.31485e-19)
(1.66262 -0.883269 1.3688e-19)
(1.80244 -0.816209 -1.81889e-19)
(1.92251 -0.748216 0)
(0.853823 -1.33728 -5.41573e-19)
(0.882089 -1.14444 -8.26249e-19)
(0.931973 -1.0811 7.20283e-19)
(1.01476 -1.02723 0)
(1.10895 -0.970681 -8.81289e-20)
(1.21842 -0.910014 -2.75525e-19)
(1.34162 -0.848536 2.11283e-19)
(1.47525 -0.789545 0)
(1.61524 -0.733803 -1.4449e-20)
(1.75768 -0.678396 -1.52358e-19)
(1.88002 -0.621454 5.29649e-21)
(0.819374 -1.21341 5.10691e-19)
(0.82885 -1.00208 3.85638e-19)
(0.880025 -0.927268 -6.70081e-19)
(0.9624 -0.865708 2.27708e-19)
(1.0586 -0.803328 8.91743e-20)
(1.17261 -0.739736 1.22913e-19)
(1.30191 -0.67963 -1.84031e-19)
(1.4417 -0.626989 6.82824e-20)
(1.58597 -0.582252 -4.68184e-20)
(1.7308 -0.540913 3.49638e-20)
(1.85334 -0.497294 0)
(0.786331 -1.09077 -4.78495e-19)
(0.7743 -0.857398 1.23449e-20)
(0.830297 -0.767214 4.04675e-19)
(0.915185 -0.695376 -1.98691e-19)
(1.0173 -0.6256 -1.18546e-19)
(1.14008 -0.559303 0)
(1.27936 -0.50268 -1.92523e-20)
(1.42783 -0.45995 -1.9476e-19)
(1.57694 -0.430066 2.97567e-19)
(1.72325 -0.406103 -5.76947e-20)
(1.84508 -0.377382 1.25639e-19)
(0.756229 -0.957239 0)
(0.71964 -0.702479 0)
(0.785366 -0.59428 -1.3179e-19)
(0.876972 -0.5103 0)
(0.990052 -0.432881 2.49638e-19)
(1.12665 -0.366034 4.50807e-20)
(1.27956 -0.317461 -1.69407e-19)
(1.43791 -0.290352 1.59341e-19)
(1.59038 -0.280318 -5.25118e-19)
(1.73528 -0.277113 0)
(1.85455 -0.265013 0)
(0.734149 -0.805856 0)
(0.669697 -0.53106 0)
(0.751797 -0.401116 1.74776e-19)
(0.855793 -0.303322 -4.22728e-21)
(0.98722 -0.220236 1.52064e-19)
(1.14431 -0.158986 0)
(1.31342 -0.127199 2.20928e-19)
(1.47938 -0.123998 0)
(1.62984 -0.139067 2.32058e-19)
(1.76543 -0.158372 -1.05156e-19)
(1.87775 -0.163598 -3.17615e-19)
(0.722815 -0.638421 -3.35071e-19)
(0.632838 -0.331968 1.32862e-19)
(0.737422 -0.177998 -1.89794e-19)
(0.866149 -0.0679282 0)
(1.02614 0.0128208 -1.0668e-19)
(1.20803 0.0557794 -3.86645e-20)
(1.39046 0.0579086 -4.51702e-20)
(1.55577 0.0284075 9.21913e-20)
(1.69462 -0.0152912 0)
(1.81168 -0.056621 2.63582e-19)
(1.90918 -0.0787845 3.68948e-19)
(0.762933 -0.390521 1.85039e-19)
(0.599708 -0.0903155 0)
(0.771865 0.0854091 0)
(0.939712 0.1955 0)
(1.13436 0.25443 -7.50413e-20)
(1.33598 0.258875 0)
(1.51824 0.21774 1.01921e-19)
(1.667 0.150929 -9.70344e-20)
(1.78095 0.0803365 -3.68007e-20)
(1.87028 0.0217653 -2.91522e-19)
(1.94665 -0.0138671 -4.11904e-20)
(0.664464 -0.312456 0)
(0.699141 0.161518 0)
(0.878164 0.357247 0)
(1.10655 0.444798 0)
(1.33164 0.454977 8.49943e-20)
(1.53183 0.404372 1.89419e-19)
(1.68915 0.318063 -1.96702e-19)
(1.80197 0.22186 0)
(1.87879 0.135397 3.00895e-20)
(1.93352 0.0703391 1.26096e-19)
(1.98162 0.0323554 1.2825e-19)
(1.99137 0.834606 0)
(1.05543 0.786229 1.07232e-19)
(1.53653 0.772852 -7.68424e-20)
(1.66914 0.702461 -4.5886e-19)
(1.78346 0.600047 0)
(1.87444 0.47606 8.71229e-20)
(1.93457 0.349705 -2.56375e-19)
(1.97017 0.23674 -1.08934e-19)
(1.98824 0.146605 8.6953e-20)
(1.99754 0.0853301 -9.20951e-20)
(2.01099 0.0539011 1.91988e-20)
(7.12593 -1.41426 -5.49232e-18)
(5.6603 -0.658472 3.45575e-18)
(6.00346 -0.840799 -1.06696e-18)
(6.09348 -0.910107 -2.11414e-18)
(5.83276 -0.822216 1.78778e-19)
(5.41333 -0.698033 -2.33059e-19)
(5.05047 -0.595542 -2.281e-19)
(4.72483 -0.495467 -3.95931e-20)
(4.44684 -0.417826 0)
(4.19755 -0.357656 -7.31368e-20)
(3.98027 -0.322898 6.3358e-20)
(4.5722 -1.74533 1.67399e-18)
(3.97193 -0.729143 -1.80708e-18)
(4.85033 -0.37453 -7.2983e-19)
(5.43806 -0.257845 4.05324e-19)
(5.62366 -0.17559 1.38396e-18)
(5.52504 -0.123847 8.63297e-19)
(5.26069 -0.109044 3.0933e-19)
(4.87172 -0.0958892 5.83295e-19)
(4.54572 -0.0852211 6.31294e-20)
(4.26118 -0.0741014 1.2805e-19)
(4.02348 -0.0796153 -1.3872e-19)
(2.51956 -4.2184 -3.38716e-18)
(3.17767 -2.19175 1.0703e-18)
(3.93504 -0.975507 3.38228e-19)
(4.58819 -0.308884 -2.47557e-19)
(5.04962 0.0888969 -1.2105e-18)
(5.2626 0.303748 0)
(5.22738 0.371982 9.19404e-19)
(4.96073 0.353158 2.17864e-19)
(4.60598 0.292671 -2.77686e-19)
(4.28489 0.242438 0)
(4.0288 0.185737 -1.78996e-19)
(2.62939 -6.0012 -3.99835e-18)
(2.85005 -4.02158 1.95873e-18)
(3.33305 -2.22406 0)
(3.90826 -0.971871 2.85808e-20)
(4.44429 -0.115821 1.14303e-18)
(4.82428 0.424357 0)
(4.98192 0.696143 2.73295e-19)
(4.88312 0.762259 -8.85469e-19)
(4.60532 0.694123 0)
(4.2672 0.585844 0)
(3.98287 0.476961 -4.2791e-19)
(2.82298 -6.05613 2.38478e-18)
(2.76415 -5.31724 -9.15327e-19)
(2.9822 -3.52863 0)
(3.4353 -1.91037 9.61571e-19)
(3.93778 -0.648646 1.5852e-19)
(4.3664 0.253714 -1.17559e-19)
(4.63282 0.810184 2.16569e-19)
(4.67179 1.0578 0)
(4.49886 1.06371 9.1012e-19)
(4.20036 0.940475 -5.2205e-19)
(3.88874 0.783974 2.03877e-19)
(2.93495 -6.26818 -1.08318e-18)
(2.89936 -5.72129 1.67295e-18)
(2.87386 -4.75243 0)
(3.13245 -2.98221 -9.29261e-19)
(3.5426 -1.38785 6.99767e-19)
(3.94989 -0.138177 7.68947e-19)
(4.25365 0.729592 -1.00567e-18)
(4.37682 1.21603 -6.98245e-21)
(4.29602 1.3637 -8.74319e-19)
(4.05716 1.27939 7.60411e-19)
(3.77596 1.08297 -5.5087e-19)
(3.03771 -6.51308 4.1467e-18)
(3.05376 -6.02202 -7.78937e-19)
(2.96259 -5.31741 0)
(2.99472 -3.97979 -1.89633e-18)
(3.25926 -2.23841 1.44932e-18)
(3.59465 -0.691303 -1.42097e-18)
(3.88025 0.486099 7.29614e-19)
(4.03381 1.23862 7.15891e-19)
(4.01408 1.57414 4.73382e-19)
(3.83115 1.58009 3.81948e-19)
(3.61237 1.38054 5.35206e-19)
(3.11938 -6.77518 -3.98864e-18)
(3.17815 -6.31452 3.05921e-18)
(3.08581 -5.7105 0)
(3.02784 -4.75414 0)
(3.09891 -3.11283 -8.90689e-19)
(3.3091 -1.36014 -5.13118e-19)
(3.52756 0.108462 0)
(3.66289 1.13584 -7.65075e-19)
(3.66785 1.68468 -3.10537e-19)
(3.53006 1.81572 -6.02064e-19)
(3.35631 1.6505 1.27125e-19)
(3.19545 -7.03937 -3.89082e-18)
(3.2864 -6.60372 6.03064e-18)
(3.18935 -6.03978 -2.35246e-18)
(3.09928 -5.19818 0)
(3.03377 -3.85295 -1.29309e-20)
(3.09027 -2.06161 -2.25651e-18)
(3.19784 -0.368353 1.46114e-18)
(3.2718 0.919517 -3.34976e-20)
(3.26376 1.68891 -8.99612e-19)
(3.14866 1.96508 5.22887e-19)
(3.04546 1.86489 -3.74328e-19)
(3.26905 -7.28614 0)
(3.37875 -6.88047 0)
(3.26049 -6.35631 2.98339e-18)
(3.16264 -5.57653 -1.87771e-18)
(3.0238 -4.44404 -2.93496e-18)
(2.92646 -2.7391 -1.77938e-20)
(2.88835 -0.911591 2.01702e-18)
(2.86238 0.602744 -9.06433e-19)
(2.80894 1.58261 3.22921e-19)
(2.69855 2.01014 5.84128e-19)
(2.64617 2.00028 5.54268e-19)
(3.33093 -7.48555 0)
(3.45292 -7.13054 -3.01787e-18)
(3.29756 -6.64906 1.7706e-18)
(3.18501 -5.9141 -3.91383e-18)
(2.99599 -4.87731 3.10879e-18)
(2.78328 -3.32607 -1.31703e-18)
(2.59321 -1.47753 -2.89105e-18)
(2.43564 0.196791 1.30066e-18)
(2.30777 1.35818 7.23769e-19)
(2.18968 1.92818 -2.31024e-18)
(2.16485 2.01482 7.71204e-19)
(3.34609 -7.6639 -9.26127e-19)
(3.47108 -7.36097 0)
(3.29592 -6.90513 0)
(3.15624 -6.224 -3.96706e-18)
(2.92556 -5.26929 6.4276e-18)
(2.61411 -3.88941 1.37833e-18)
(2.29249 -2.0509 -3.0515e-18)
(1.98872 -0.286116 4.24113e-18)
(1.76963 1.01207 -2.09798e-18)
(1.63727 1.70261 1.09484e-18)
(1.6492 1.87653 4.2845e-19)
(3.35131 -7.80756 4.56921e-18)
(3.46411 -7.52951 -2.99208e-18)
(3.26598 -7.10531 -2.50005e-18)
(3.07477 -6.48973 1.88075e-18)
(2.79826 -5.61991 -3.32706e-18)
(2.40437 -4.37336 2.64234e-18)
(1.96693 -2.61985 2.12781e-18)
(1.52359 -0.836049 -1.41946e-18)
(1.211 0.543259 4.2159e-18)
(1.05752 1.32232 0)
(1.14258 1.59439 -1.37278e-18)
(3.34936 -7.88863 -3.60213e-18)
(3.41489 -7.63937 -1.52339e-18)
(3.19425 -7.25745 2.32775e-18)
(2.94626 -6.70721 3.33878e-20)
(2.60999 -5.9366 1.6034e-18)
(2.14519 -4.83824 0)
(1.61889 -3.19879 -2.15446e-18)
(1.06036 -1.45574 -7.62799e-20)
(0.666155 -0.0462929 -4.23484e-18)
(0.50329 0.790348 2.37258e-18)
(0.626377 1.155 8.61159e-20)
(3.32468 -7.91093 0)
(3.3117 -7.69493 4.32385e-18)
(3.06953 -7.3477 -4.53214e-18)
(2.7662 -6.86001 1.93503e-18)
(2.36735 -6.19264 -1.61149e-18)
(1.84652 -5.28115 -2.5341e-18)
(1.23946 -3.81519 6.1478e-18)
(0.623405 -2.11515 -2.82899e-18)
(0.184087 -0.743014 2.09726e-18)
(0.0248309 0.117113 -2.39176e-18)
(0.176142 0.561028 1.29348e-18)
(3.2742 -7.86981 8.22375e-19)
(3.16297 -7.68746 -5.52965e-18)
(2.88976 -7.37428 4.33202e-18)
(2.52965 -6.94723 0)
(2.06973 -6.36876 0)
(1.50624 -5.5866 2.28653e-19)
(0.8809 -4.49612 1.76818e-18)
(0.275727 -2.93724 -5.40987e-18)
(-0.194614 -1.52253 0)
(-0.327068 -0.660167 0)
(-0.130899 -0.155376 -9.18038e-19)
(3.18398 -7.74588 -8.52631e-19)
(2.96564 -7.60045 0)
(2.65179 -7.33121 3.21621e-18)
(2.24045 -6.97972 -3.29326e-18)
(1.74255 -6.51028 -4.05959e-18)
(1.17479 -5.87621 4.52771e-18)
(0.56754 -5.00725 0)
(0.0223641 -3.78782 2.59764e-18)
(-0.415825 -2.44443 1.3353e-18)
(-0.524202 -1.52506 1.41518e-18)
(-0.26142 -0.967905 -1.07602e-19)
(3.03236 -7.52376 3.06425e-18)
(2.70726 -7.41678 0)
(2.34451 -7.20686 4.8095e-18)
(1.89131 -6.95409 -4.38339e-18)
(1.38061 -6.62385 1.87766e-19)
(0.849983 -6.16916 -1.78191e-18)
(0.336218 -5.52642 -1.31741e-18)
(-0.113095 -4.60017 0)
(-0.471073 -3.45416 -1.36126e-18)
(-0.567523 -2.46576 -1.01626e-18)
(-0.243266 -1.8091 7.42647e-19)
(2.78122 -7.18864 2.79085e-18)
(2.36033 -7.11972 0)
(1.94232 -6.99789 0)
(1.46531 -6.884 1.47784e-18)
(0.982747 -6.73519 1.1874e-18)