/*--------------------------------*- C++ -*----------------------------------*\
| =========                 |                                                 |
| \\      /  F ield         | OpenFOAM: The Open Source CFD Toolbox           |
|  \\    /   O peration     | Version:  3.0.1                                 |
|   \\  /    A nd           | Web:      www.OpenFOAM.org                      |
|    \\/     M anipulation  |                                                 |
\*---------------------------------------------------------------------------*/
FoamFile
{
    version     2.0;
    format      ascii;
    class       volScalarField;
    location    "0.243501";
    object      k;
}
// * * * * * * * * * * * * * * * * * * * * * * * * * * * * * * * * * * * * * //

dimensions      [0 2 -2 0 0 0 0];

internalField   nonuniform List<scalar> 
21246
(
0.217937
0.202313
0.0985998
0.0459173
0.0239585
0.0150621
0.0115357
0.00996692
0.00912541
0.00856551
0.00810886
0.262827
0.287248
0.0932127
0.0521664
0.0274423
0.0167119
0.0120295
0.00994199
0.00884922
0.00816968
0.0076741
0.306861
0.340269
0.0918341
0.0603707
0.0302582
0.018583
0.0128257
0.0101914
0.00881509
0.00798193
0.00739503
0.34666
0.322663
0.0932934
0.0645255
0.0310244
0.0200551
0.0134738
0.010517
0.0089018
0.00793724
0.0072802
0.379014
0.288719
0.0935133
0.0638284
0.0307127
0.0209619
0.0138234
0.0108115
0.00903105
0.00797793
0.00727241
0.404979
0.262125
0.0925522
0.0607859
0.0302458
0.0212762
0.0139523
0.0110148
0.00913583
0.00803532
0.00730463
0.424391
0.2456
0.0912004
0.0575458
0.0299585
0.0211153
0.013977
0.0111222
0.00919672
0.00808187
0.00733056
0.436772
0.235116
0.0895615
0.0547659
0.0297458
0.0207459
0.0139595
0.0111558
0.00921976
0.0081157
0.00737602
0.443373
0.229502
0.088117
0.0526753
0.0295875
0.0203857
0.0139399
0.011153
0.00922208
0.00813534
0.0073958
0.445056
0.230998
0.0877813
0.0514987
0.0296329
0.0201582
0.0139582
0.0111519
0.00922003
0.0081477
0.00739837
0.441815
0.235703
0.0901738
0.0515912
0.0299761
0.0200895
0.0140403
0.0111753
0.00922817
0.0081624
0.00740285
0.434097
0.242004
0.0935599
0.0523535
0.0307026
0.0202767
0.0142417
0.0112481
0.00926465
0.00818735
0.00740954
0.423022
0.249829
0.0987494
0.0540818
0.0318601
0.0207709
0.0146046
0.0114056
0.00937442
0.0082396
0.00743953
0.409127
0.259832
0.107088
0.0573737
0.0337389
0.0217365
0.0152125
0.0116916
0.00956943
0.0083333
0.00749774
0.392535
0.271248
0.117145
0.0620056
0.0363477
0.0231926
0.0161093
0.0121639
0.00986763
0.00849228
0.00759574
0.374044
0.28398
0.129719
0.0685225
0.0400671
0.0253627
0.0174287
0.0129161
0.0103238
0.00875244
0.00775334
0.354089
0.297975
0.146308
0.0781234
0.0456498
0.0286763
0.0194399
0.0141146
0.0110432
0.00917844
0.00800926
0.332769
0.313305
0.166779
0.0915019
0.0538204
0.033676
0.0225311
0.0160205
0.0122055
0.00988347
0.00843521
0.310601
0.329403
0.192068
0.110206
0.06602
0.0414505
0.0274742
0.0191568
0.014168
0.0111009
0.00918297
0.288257
0.345076
0.223181
0.136484
0.0846647
0.0540353
0.0358108
0.0246266
0.0177026
0.0133531
0.0105958
0.266427
0.35836
0.260638
0.173415
0.113799
0.0752893
0.050745
0.0349034
0.0246359
0.0179425
0.0135727
0.246383
0.368361
0.304632
0.225467
0.160454
0.112785
0.0792332
0.055845
0.0396473
0.028467
0.0207832
0.225646
0.361209
0.345877
0.291509
0.231571
0.178239
0.134688
0.100595
0.0745749
0.0550406
0.0405085
0.215436
0.340263
0.338149
0.314128
0.279039
0.239795
0.201009
0.165321
0.133863
0.106988
0.0843634
0.222729
0.21476
0.100163
0.0476493
0.0245878
0.0153954
0.0119527
0.0105517
0.00988211
0.00948005
0.00917215
0.270882
0.312789
0.0901053
0.0526466
0.0277002
0.0175044
0.0133374
0.0115907
0.0107738
0.010324
0.0100107
0.312969
0.363771
0.0872251
0.0592547
0.0304832
0.0196228
0.0149672
0.0131283
0.0123952
0.0120908
0.0119286
0.345992
0.330419
0.0867457
0.0615451
0.0315816
0.02124
0.01648
0.0147122
0.0141714
0.0141556
0.0143247
0.368389
0.279362
0.084832
0.0596637
0.0317382
0.0224375
0.0177408
0.0160777
0.015706
0.0158941
0.016265
0.38236
0.238679
0.081542
0.056148
0.0316046
0.0232546
0.0187974
0.0173909
0.0173632
0.0181428
0.0195163
0.390904
0.209724
0.0778348
0.0526879
0.0314276
0.023854
0.0197161
0.0186489
0.0190155
0.0204535
0.0228641
0.394937
0.188477
0.0740764
0.0497467
0.0312766
0.0243578
0.0205429
0.0198091
0.020521
0.0225033
0.0257455
0.396958
0.172748
0.0706904
0.0474441
0.0312452
0.0247985
0.021313
0.0208133
0.0217491
0.0239966
0.0274192
0.398975
0.160988
0.0678878
0.0457792
0.031405
0.0251809
0.0220247
0.0216277
0.0226572
0.024967
0.0285166
0.402261
0.15321
0.0657926
0.0447248
0.0317743
0.0255694
0.022658
0.0222432
0.023238
0.025426
0.0288721
0.404791
0.14844
0.0642292
0.0440955
0.0323078
0.0259831
0.0232196
0.0226719
0.0235165
0.0254098
0.028466
0.406079
0.146229
0.0637545
0.0439233
0.0330595
0.0265046
0.0237814
0.0229908
0.0235899
0.02507
0.0275086
0.406272
0.14696
0.0648253
0.0442673
0.0340581
0.0272263
0.0243852
0.0232586
0.0235172
0.0245045
0.0262321
0.405357
0.14924
0.066909
0.0450783
0.0352294
0.02817
0.0250593
0.0235257
0.0233528
0.0237991
0.0247869
0.403466
0.153256
0.0702195
0.0465053
0.0366022
0.0293802
0.0258697
0.0238679
0.0231751
0.0230546
0.0233367
0.400641
0.159182
0.0751056
0.0488161
0.0382922
0.0309131
0.0269087
0.0243831
0.0230968
0.0223933
0.0220343
0.396776
0.166851
0.0817676
0.0523406
0.0405195
0.0328466
0.028283
0.0251952
0.0232664
0.0219638
0.0210161
0.391709
0.176148
0.0906025
0.0576075
0.0437143
0.0353794
0.0301487
0.0264618
0.0238725
0.0219562
0.0204556
0.385139
0.18699
0.102219
0.0654791
0.0486744
0.039007
0.0328342
0.0284338
0.0251594
0.0226161
0.0205707
0.376406
0.198991
0.117338
0.0772575
0.0568049
0.0448401
0.0371148
0.0316407
0.0275162
0.0242639
0.0216265
0.363925
0.21134
0.136724
0.0948409
0.07049
0.0551569
0.0448214
0.0374136
0.0318354
0.0274653
0.0239529
0.344373
0.223957
0.162549
0.122176
0.0947892
0.0753614
0.0610245
0.0501049
0.041576
0.0353607
0.0317825
0.243116
0.237142
0.209355
0.188394
0.171274
0.156467
0.143113
0.130808
0.119328
0.107959
0.0958212
0.649697
0.927611
0.539053
0.324072
0.179948
0.100114
0.0599701
0.0411144
0.0322952
0.0277471
0.0251561
0.643245
0.921079
0.599607
0.382489
0.222896
0.124193
0.0710509
0.0454544
0.0340288
0.0285767
0.0256348
0.599067
0.77323
0.603558
0.417965
0.262422
0.147646
0.0844281
0.0516484
0.0367578
0.0300298
0.0267804
0.525514
0.654311
0.581212
0.429876
0.287873
0.171269
0.0978305
0.0589135
0.0403295
0.0320405
0.0283438
0.439994
0.578654
0.55342
0.434104
0.3067
0.192807
0.113482
0.067015
0.0447056
0.0346094
0.0302688
0.354846
0.527346
0.527971
0.438029
0.325059
0.214651
0.130945
0.0781949
0.0503578
0.0377936
0.0325209
0.27609
0.489465
0.507648
0.442656
0.343879
0.238125
0.15098
0.0918976
0.0585179
0.0423256
0.0353151
0.207446
0.460926
0.494306
0.448125
0.362372
0.262562
0.173605
0.108621
0.0691145
0.0485617
0.0392055
0.154596
0.443401
0.490501
0.455739
0.380434
0.287227
0.1983
0.128469
0.0826212
0.0569416
0.0444393
0.129495
0.444025
0.500139
0.468706
0.399482
0.312079
0.224509
0.151211
0.099336
0.0679497
0.0514579
0.132913
0.459432
0.527321
0.493441
0.423279
0.338042
0.251658
0.176095
0.119042
0.0818485
0.0606968
0.135136
0.458295
0.56385
0.535501
0.457938
0.368188
0.280228
0.202493
0.14117
0.0985672
0.0724875
0.123778
0.413829
0.575685
0.5854
0.507067
0.407373
0.312816
0.231025
0.16552
0.117946
0.0869672
0.104534
0.341911
0.535322
0.613412
0.562593
0.457857
0.352747
0.263432
0.192517
0.139954
0.104179
0.0851748
0.270134
0.456935
0.594066
0.602947
0.513319
0.400457
0.301078
0.222802
0.164681
0.12418
0.0693138
0.210252
0.367386
0.526339
0.603301
0.557208
0.450728
0.34358
0.256937
0.192512
0.147139
0.0574209
0.164205
0.283338
0.430093
0.553129
0.568179
0.490493
0.385923
0.293597
0.223266
0.17319
0.0496937
0.131692
0.214759
0.33157
0.465746
0.535131
0.503802
0.417781
0.327732
0.254706
0.201629
0.0458141
0.111932
0.166428
0.248899
0.366452
0.465554
0.482252
0.428074
0.351227
0.281963
0.229286
0.0447347
0.101615
0.137869
0.190759
0.276228
0.380199
0.430719
0.41065
0.355098
0.296928
0.250097
0.045088
0.0960244
0.12169
0.159085
0.215884
0.296246
0.363598
0.366977
0.332861
0.290154
0.253694
0.0490085
0.0969988
0.122927
0.152913
0.190542
0.241812
0.298487
0.308329
0.287611
0.258419
0.232651
0.086858
0.186728
0.224839
0.235084
0.23626
0.246456
0.260895
0.263718
0.248379
0.224286
0.200874
0.153375
0.156783
0.155882
0.162186
0.173816
0.192424
0.218262
0.244253
0.248152
0.227202
0.200012
0.586263
0.707529
0.470026
0.26658
0.14926
0.087269
0.0554067
0.0396571
0.0317998
0.0274718
0.0248016
0.429808
0.556085
0.406314
0.265873
0.158202
0.094532
0.0598245
0.0420867
0.0332012
0.0283621
0.0253814
0.40115
0.517764
0.384245
0.284288
0.184945
0.11291
0.0694666
0.0468162
0.0357425
0.030009
0.0266608
0.382818
0.474416
0.361168
0.287819
0.20069
0.129629
0.0812466
0.0536883
0.0395488
0.0322502
0.0281569
0.36773
0.424567
0.340802
0.280356
0.200834
0.13389
0.0871685
0.0592835
0.0441835
0.0359699
0.031075
0.354174
0.381682
0.322202
0.269746
0.197602
0.135478
0.0904635
0.0626703
0.047339
0.0390445
0.034218
0.341836
0.347761
0.30584
0.258902
0.192945
0.135512
0.0927203
0.0655205
0.0501573
0.0417979
0.0369712
0.330707
0.321077
0.291526
0.24915
0.188452
0.135218
0.0945845
0.0680819
0.0527414
0.0443243
0.0395087
0.320933
0.299969
0.279384
0.241067
0.185088
0.135395
0.0965938
0.0707166
0.0553553
0.0467792
0.0419386
0.312499
0.282956
0.269334
0.234756
0.183205
0.136355
0.099041
0.0735904
0.0580504
0.0490821
0.0438548
0.305173
0.26913
0.261073
0.230196
0.182899
0.138399
0.102213
0.0769459
0.0610549
0.0515046
0.0457067
0.298779
0.257361
0.253906
0.22707
0.183892
0.141588
0.106344
0.0811176
0.0647729
0.0544517
0.0475701
0.293317
0.247014
0.247721
0.225288
0.186255
0.146182
0.111834
0.0866112
0.0698354
0.0587073
0.0504305
0.288433
0.23773
0.242168
0.22468
0.190181
0.152518
0.119188
0.0940742
0.077078
0.0654579
0.0559794
0.283655
0.229312
0.236422
0.223921
0.194653
0.160371
0.128774
0.104254
0.0874448
0.075872
0.0659392
0.27902
0.221502
0.230377
0.22285
0.199406
0.169471
0.140587
0.117482
0.1015
0.0906486
0.0810701
0.274525
0.214099
0.223859
0.221185
0.204059
0.179494
0.154469
0.13382
0.11948
0.110074
0.101803
0.270123
0.206875
0.216656
0.21851
0.207974
0.189714
0.169761
0.15275
0.140977
0.133686
0.127654
0.265811
0.199627
0.208505
0.214279
0.210274
0.198989
0.185184
0.172962
0.16465
0.159956
0.156373
0.261653
0.192156
0.199038
0.207773
0.209785
0.205659
0.19869
0.192108
0.187874
0.1859
0.184369
0.25782
0.184189
0.187794
0.198064
0.204961
0.207446
0.207286
0.206563
0.206491
0.206879
0.206465
0.254946
0.175365
0.174153
0.183904
0.193673
0.20119
0.206792
0.211272
0.214846
0.216973
0.216999
0.253858
0.165064
0.156855
0.16356
0.173556
0.183564
0.192814
0.201186
0.208278
0.212651
0.213638
0.265962
0.153074
0.143449
0.147952
0.157872
0.171664
0.188553
0.206283
0.218519
0.219529
0.212253
0.401794
0.574146
0.503205
0.397152
0.288233
0.195089
0.126583
0.0808553
0.0510808
0.0318451
0.0200246
0.327382
0.490768
0.469047
0.38253
0.279386
0.189183
0.122508
0.0775345
0.048366
0.0298742
0.0186658
0.249411
0.432944
0.435855
0.375256
0.284599
0.196451
0.127627
0.0800787
0.0492266
0.0300358
0.0186546
0.212117
0.385709
0.40718
0.366705
0.288817
0.204679
0.134983
0.085303
0.0525006
0.0318135
0.0194721
0.185193
0.332468
0.365683
0.347691
0.287964
0.212039
0.142895
0.0909375
0.0556489
0.0329636
0.0195326
0.170375
0.296561
0.330234
0.321202
0.274672
0.208971
0.144095
0.0927951
0.0572571
0.0344268
0.0207622
0.160826
0.271114
0.304035
0.297835
0.257344
0.1992
0.140236
0.0921443
0.0577894
0.0351528
0.0213148
0.15537
0.25299
0.283252
0.277635
0.241606
0.188997
0.134947
0.0900986
0.0574379
0.0355514
0.0222348
0.151222
0.238787
0.266206
0.260576
0.227446
0.1791
0.129239
0.0874889
0.0566799
0.035666
0.0225558
0.147491
0.226683
0.251926
0.246418
0.215499
0.170498
0.124027
0.0848892
0.0556988
0.035429
0.0223758
0.144138
0.216207
0.239896
0.234712
0.205673
0.163388
0.119626
0.0825691
0.0546756
0.0350601
0.0224444
0.141733
0.207473
0.22985
0.224987
0.197565
0.157569
0.116032
0.0806471
0.0537816
0.0347021
0.0223153
0.139935
0.199991
0.221425
0.217048
0.191149
0.153129
0.1134
0.0793107
0.0532215
0.0345554
0.0224448
0.138155
0.193283
0.21431
0.210814
0.186515
0.150239
0.11192
0.0787293
0.0531214
0.0346908
0.0228107
0.136991
0.187569
0.208402
0.20599
0.18337
0.148731
0.111553
0.0789361
0.0535182
0.0350699
0.0229564
0.136314
0.182515
0.203527
0.202524
0.181784
0.148757
0.112473
0.0800803
0.0545123
0.0357551
0.0232835
0.135754
0.177712
0.199466
0.200449
0.181993
0.150656
0.115012
0.0824129
0.0562612
0.0368421
0.0238295
0.135607
0.173246
0.196145
0.199666
0.184014
0.154613
0.119439
0.0861947
0.0589757
0.0384833
0.0245862
0.136296
0.168886
0.193101
0.199746
0.187792
0.161021
0.126143
0.0918125
0.0629978
0.0409647
0.0259087
0.137916
0.164379
0.190073
0.200103
0.192361
0.168846
0.135073
0.0996274
0.0687653
0.0447163
0.0280745
0.140721
0.159526
0.186649
0.20034
0.197228
0.17758
0.145582
0.109487
0.0766109
0.0503263
0.0316893
0.145972
0.153572
0.182857
0.199675
0.201265
0.186066
0.15691
0.121337
0.0871213
0.0586888
0.0376989
0.152028
0.148714
0.176982
0.197728
0.203635
0.193095
0.168037
0.134828
0.100776
0.0708561
0.0474326
0.174093
0.156417
0.185635
0.193872
0.198208
0.191805
0.173503
0.146545
0.116178
0.087041
0.0622904
0.365761
0.494798
0.476535
0.416081
0.334918
0.241687
0.15763
0.101111
0.0632883
0.0386813
0.0238969
0.271049
0.357813
0.40596
0.398834
0.354091
0.283774
0.203875
0.135004
0.0837453
0.0513044
0.030733
0.162877
0.359483
0.378803
0.378232
0.354781
0.306034
0.23896
0.169479
0.110982
0.0689304
0.0422065
0.175478
0.329454
0.421232
0.401979
0.368502
0.324001
0.265686
0.199986
0.138281
0.0898417
0.057775
0.192574
0.320648
0.505763
0.531451
0.454607
0.374357
0.301036
0.230909
0.165826
0.111755
0.0742453
0.210722
0.3158
0.498119
0.680905
0.649021
0.510428
0.380588
0.278871
0.198793
0.135915
0.091835
0.229276
0.31833
0.479132
0.688909
0.836618
0.737195
0.541495
0.37206
0.250928
0.167085
0.111437
0.246969
0.324599
0.461287
0.653571
0.870471
0.946815
0.77102
0.530261
0.339957
0.214216
0.13697
0.263534
0.334523
0.449127
0.608766
0.813494
1.01749
0.984888
0.733613
0.471171
0.284863
0.1727
0.278887
0.347531
0.443547
0.566533
0.733953
0.954385
1.085
0.91734
0.62198
0.375549
0.219533
0.29326
0.363881
0.444965
0.53184
0.6549
0.848308
1.05731
1.02862
0.75412
0.469068
0.272255
0.307449
0.383214
0.452139
0.506963
0.588649
0.740644
0.962377
1.05344
0.836318
0.542421
0.320086
0.322203
0.406507
0.464263
0.492611
0.539628
0.647663
0.842469
1.00498
0.857984
0.578221
0.349807
0.338415
0.433912
0.480168
0.486947
0.506969
0.57648
0.717153
0.902466
0.834839
0.572473
0.355936
0.355641
0.465893
0.500022
0.485931
0.481863
0.520414
0.607726
0.724319
0.772504
0.532909
0.339897
0.374547
0.505032
0.526643
0.489651
0.458684
0.465233
0.50862
0.570297
0.607993
0.499079
0.317197
0.396116
0.554338
0.564423
0.503046
0.444205
0.421897
0.432075
0.456561
0.470671
0.432721
0.305152
0.42171
0.617704
0.620257
0.534386
0.448254
0.402739
0.392172
0.397539
0.400992
0.381034
0.308533
0.454446
0.701765
0.707293
0.599715
0.486039
0.421315
0.400857
0.40103
0.401497
0.388353
0.358137
0.500737
0.827938
0.855275
0.737857
0.598361
0.512869
0.483504
0.472707
0.453856
0.416969
0.378497
0.469732
0.880433
0.956909
0.861644
0.716762
0.609061
0.521851
0.450442
0.379589
0.325072
0.264063
0.436243
0.80045
0.89954
0.850873
0.676234
0.501003
0.383525
0.303394
0.242864
0.196802
0.155377
0.342468
0.571841
0.558157
0.461326
0.349388
0.275763
0.227805
0.193888
0.165646
0.13863
0.111252
0.212531
0.174171
0.166935
0.167591
0.171405
0.173687
0.16981
0.157424
0.137249
0.112291
0.0865007
0.100998
0.0999588
0.0996966
0.0980771
0.0936177
0.0854071
0.0700785
0.0444334
0.0204659
0.165169
0.14963
0.138125
0.128211
0.115569
0.0992163
0.0805026
0.0596491
0.0398493
0.156853
0.143073
0.130982
0.122754
0.117104
0.109362
0.0960778
0.075414
0.0520672
0.125706
0.114884
0.106553
0.104677
0.105581
0.103436
0.0973393
0.0822736
0.061258
0.113966
0.114146
0.108304
0.0986919
0.0831776
0.0578048
0.0241389
0.0177423
0.0165592
0.177361
0.172541
0.158574
0.136465
0.110424
0.0841137
0.055345
0.0284131
0.0280976
0.168254
0.165692
0.155337
0.145452
0.131039
0.107613
0.0729939
0.038601
0.0368863
0.136576
0.142253
0.138961
0.134287
0.128415
0.114437
0.0846774
0.0480717
0.0445614
0.00442778
0.00460238
0.00461774
0.00859034
0.0238742
0.00438271
0.0112306
0.00454865
0.00437384
0.00423311
0.025062
0.00455785
0.00394289
0.00385556
0.00448411
0.00430253
0.00375685
0.00819486
0.00429194
0.00424945
0.00410838
0.00415218
0.00466515
0.00540841
0.00449193
0.00384771
0.00394655
0.0107637
0.0513217
0.0168734
0.00381019
0.0040637
0.00400351
0.00453689
0.00422645
0.0045931
0.005361
0.00448693
0.0040426
0.00438915
0.00515344
0.004546
0.00344585
0.00465805
0.0630811
0.0145779
0.00335333
0.0241875
0.00425799
0.00432925
0.0146704
0.00439581
0.00529604
0.00345291
0.00432404
0.00411602
0.00408457
0.004402
0.0510995
0.00397286
0.00513665
0.00518923
0.0322538
0.037522
0.00688153
0.00426142
0.0147658
0.00434245
0.0046027
0.00422563
0.00368247
0.00427679
0.00668575
0.00447547
0.00868692
0.00425329
0.00403242
0.00459758
0.0311412
0.0720811
0.00677127
0.0393118
0.00449596
0.00462614
0.00428738
0.00673909
0.0825765
0.00490475
0.00739602
0.00576727
0.00454201
0.004414
0.00583386
0.00435218
0.0708791
0.0399631
0.0063027
0.00399205
0.00723523
0.00432962
0.00457453
0.0195142
0.00415829
0.0039556
0.00739423
0.00455103
0.00356773
0.00464652
0.00399154
0.00413011
0.00451116
0.00456075
0.00429183
0.00969888
0.00626603
0.00442305
0.00437413
0.00431488
0.00450477
0.00413311
0.00935142
0.00442769
0.00468903
0.00370115
0.0121388
0.00419376
0.00481993
0.00355228
0.0037258
0.00385724
0.00445523
0.00398802
0.0216314
0.00425604
0.00461452
0.00448951
0.00342367
0.0362906
0.0182413
0.00442839
0.00349476
0.0041079
0.0275752
0.00401655
0.00436554
0.00429479
0.0045105
0.00433295
0.00428328
0.00425593
0.00428993
0.0044206
0.00520347
0.00441188
0.0101813
0.0034214
0.00689316
0.00344147
0.00362435
0.00435881
0.00364837
0.00831825
0.00427034
0.00442933
0.0175326
0.0041468
0.0080782
0.00438201
0.00421098
0.00681988
0.00392691
0.0035528
0.00430476
0.00404939
0.00405725
0.00392969
0.00363056
0.00510712
0.0638854
0.003901
0.00432897
0.00370525
0.00465987
0.00872116
0.00450709
0.0281939
0.00427789
0.00430144
0.00459044
0.0333965
0.00398979
0.00389894
0.00427346
0.00509283
0.00461077
0.00439615
0.00434709
0.00713928
0.00388589
0.00467915
0.00338002
0.00432961
0.00395951
0.00379355
0.00462804
0.00491169
0.00434544
0.00371943
0.00433858
0.00433833
0.00586429
0.0043942
0.00400513
0.00418598
0.00449287
0.00508714
0.00450973
0.00379316
0.0042946
0.00373918
0.00415591
0.00805052
0.0065326
0.00638417
0.00368513
0.00440711
0.00697256
0.00416348
0.00393671
0.0433319
0.00381129
0.0042575
0.00428654
0.0044249
0.0048975
0.0730836
0.0128897
0.00464673
0.00456287
0.00455173
0.00375432
0.0244478
0.00394353
0.00491589
0.00452976
0.00780256
0.00451885
0.00380622
0.0303807
0.00731941
0.00379994
0.0059666
0.00513259
0.00430262
0.00393098
0.00435524
0.0041377
0.00447254
0.00355573
0.0042727
0.00375972
0.00450068
0.0043259
0.00457529
0.0045088
0.00341995
0.00410642
0.00465743
0.00561417
0.00368765
0.0161183
0.0043173
0.0043239
0.00335119
0.0043886
0.00432646
0.00371247
0.00444839
0.00425331
0.00799471
0.00430538
0.00459674
0.00693775
0.011855
0.00393235
0.00439449
0.0759917
0.0045884
0.00421895
0.00360598
0.00461556
0.0114387
0.00426716
0.00381628
0.00467857
0.00434397
0.00421268
0.00456634
0.00422209
0.00372091
0.00445173
0.00782378
0.00433243
0.0176941
0.00415003
0.00412996
0.00459848
0.00427302
0.00366961
0.00434617
0.0071338
0.00456314
0.00407477
0.00399517
0.00445817
0.0040947
0.00401977
0.0092141
0.00412417
0.0044086
0.0042694
0.00518504
0.00435524
0.00375602
0.0392251
0.00421834
0.00445278
0.00397542
0.00424088
0.00739209
0.00443797
0.033211
0.00395866
0.00464939
0.00390548
0.050614
0.00684985
0.00458705
0.00447456
0.00397224
0.00421144
0.00598844
0.00432604
0.00401121
0.0138345
0.0042971
0.00458109
0.00437674
0.00487722
0.00525187
0.00889245
0.00391674
0.00370549
0.0041694
0.00414579
0.00468915
0.00417239
0.00398347
0.00465929
0.00774925
0.00383618
0.00389046
0.00451713
0.00451242
0.00430718
0.00762708
0.0035588
0.00365875
0.011188
0.00438325
0.00444127
0.0088469
0.0409985
0.00374349
0.00418907
0.00460778
0.0038947
0.00420796
0.00437663
0.00426248
0.0080286
0.00438313
0.00372348
0.00441439
0.00389397
0.0168697
0.00706764
0.00367911
0.0233913
0.00833478
0.00443155
0.00549746
0.00361838
0.00451975
0.0164261
0.00681859
0.00448024
0.00429113
0.00461847
0.00416254
0.00354864
0.00440969
0.0046615
0.00365785
0.00403453
0.00624073
0.0225471
0.00422171
0.00432854
0.00511404
0.00439697
0.00427786
0.00390986
0.00390557
0.00619958
0.00405875
0.00399765
0.00457627
0.00366231
0.00672539
0.0137954
0.00366626
0.0130991
0.00391225
0.00394478
0.00412211
0.00444731
0.00480314
0.0043249
0.00871818
0.0044869
0.0037555
0.00384443
0.0040976
0.00439076
0.00416961
0.0066235
0.0163606
0.00370359
0.00468834
0.00386843
0.0801305
0.00709288
0.00733949
0.00425204
0.0039826
0.00429252
0.00340225
0.00434455
0.00536412
0.00444486
0.00461337
0.004499
0.00951223
0.00455917
0.0117474
0.0039242
0.0033391
0.0049446
0.00459185
0.00434092
0.0049177
0.00369121
0.00392169
0.00442337
0.0078011
0.00743004
0.00545505
0.00546768
0.0044209
0.00389858
0.00665284
0.00423205
0.00506003
0.00430699
0.00458616
0.00432373
0.00557891
0.00438838
0.00428058
0.00444956
0.00412374
0.0374324
0.00362364
0.00464625
0.00437698
0.0474873
0.00404137
0.00406173
0.00434011
0.00348458
0.00439428
0.00431721
0.00440165
0.00377746
0.00365852
0.00426411
0.00379055
0.00399151
0.00459943
0.00387796
0.003984
0.00454003
0.00453532
0.0376752
0.00421122
0.00625282
0.00445109
0.0167484
0.00461904
0.00760464
0.00456
0.00834663
0.00404865
0.00461571
0.0143901
0.00376244
0.00378212
0.00445318
0.00361352
0.00411331
0.00459489
0.00442583
0.00457344
0.00419639
0.00807794
0.00452243
0.00435295
0.00541112
0.00444282
0.00935142
0.00436469
0.00418112
0.00369527
0.00752213
0.00467829
0.00447561
0.00463292
0.00513262
0.00437755
0.00450298
0.0044885
0.00370267
0.00461434
0.00630638
0.00460403
0.00622551
0.00420926
0.00378704
0.00397615
0.00373969
0.0171724
0.00837521
0.00416057
0.00410068
0.0042749
0.00460551
0.00418581
0.003149
0.00423563
0.00386337
0.0252213
0.0382917
0.00449071
0.00432814
0.0045956
0.00427138
0.0135408
0.00430652
0.00454236
0.00436784
0.0115605
0.00430612
0.00382765
0.00376606
0.0042551
0.025012
0.00443107
0.00463311
0.00446252
0.00359339
0.00433461
0.00830698
0.00364285
0.00406068
0.00482548
0.00436692
0.00463516
0.00467308
0.0718478
0.00440493
0.00361816
0.0187171
0.00384492
0.00434037
0.00418041
0.00401117
0.00419731
0.00444182
0.00449672
0.0358957
0.0034237
0.0042101
0.00425171
0.00449991
0.0194244
0.00426622
0.00440824
0.00429383
0.00425916
0.00383211
0.00336207
0.00377026
0.00568001
0.00399867
0.00518235
0.00429541
0.00435816
0.0042417
0.0044611
0.032626
0.00697133
0.00438235
0.00438701
0.00334122
0.00414906
0.0043353
0.00562829
0.00460567
0.0041702
0.00381781
0.00387387
0.00379253
0.00380015
0.00365495
0.0150216
0.00463505
0.00487944
0.00431875
0.00382684
0.00829392
0.00716696
0.00382732
0.00462098
0.0041726
0.0381712
0.0039183
0.00422519
0.00420512
0.00384997
0.00346838
0.0285908
0.00365795
0.00515578
0.00442441
0.00518934
0.00455077
0.00429821
0.0042525
0.00381384
0.00422488
0.00452796
0.00421405
0.00459266
0.019716
0.00614662
0.0437942
0.00424345
0.00426876
0.00397842
0.00413426
0.00438098
0.0203204
0.00427628
0.0118302
0.00446085
0.00442978
0.00425466
0.00465933
0.0039921
0.0289388
0.00382751
0.0269494
0.00364411
0.00418808
0.00463634
0.00389691
0.00369636
0.00837658
0.00503553
0.00436836
0.0040617
0.00463258
0.00371502
0.00421523
0.00386981
0.00455457
0.00440168
0.00440215
0.00394242
0.00333654
0.00456337
0.00371986
0.00437299
0.00414705
0.00363074
0.00406876
0.022774
0.00491264
0.00392735
0.00408344
0.00405441
0.00399477
0.00414778
0.00397479
0.0119132
0.0044694
0.00392562
0.0044956
0.00441381
0.00656503
0.00451503
0.0034952
0.00385469
0.00430552
0.00416422
0.0041251
0.00393226
0.00458661
0.00507692
0.00379519
0.00631708
0.00411747
0.0039548
0.00371886
0.00433124
0.00441453
0.00394732
0.00469228
0.00844641
0.00452968
0.00389208
0.0259641
0.00454854
0.00962132
0.00385918
0.00452546
0.011245
0.00437655
0.00431753
0.0042054
0.0037656
0.00431684
0.00372997
0.00456999
0.00398862
0.00426731
0.00385576
0.0041861
0.00663116
0.00395295
0.00429018
0.00653731
0.0136264
0.00446157
0.00379361
0.00382816
0.00369819
0.00513286
0.00346386
0.00436717
0.00613586
0.0039648
0.00493266
0.00429027
0.0042794
0.00441364
0.00464284
0.00383503
0.00469004
0.00449389
0.00446273
0.0484662
0.00567117
0.00401084
0.00457624
0.00392213
0.00423573
0.00455704
0.00458096
0.00462437
0.0044856
0.00451599
0.00363879
0.00551922
0.00775337
0.00357863
0.00421789
0.00442554
0.00450421
0.00373348
0.00860845
0.00459576
0.00404282
0.00389125
0.0161878
0.00626371
0.00470453
0.0038824
0.00585053
0.00442892
0.00446706
0.0110506
0.00421839
0.00456653
0.00421339
0.00411298
0.00389949
0.00381053
0.00455578
0.00434564
0.00587682
0.00688313
0.00456558
0.00363353
0.00401764
0.00335874
0.00649068
0.00464022
0.00428454
0.00785345
0.00340941
0.00371532
0.00460118
0.0042111
0.00448177
0.00432998
0.00458971
0.00483885
0.00380982
0.00915796
0.0152374
0.00373315
0.00454831
0.0242927
0.00466915
0.00427347
0.00474994
0.00449298
0.00441811
0.00441812
0.00768824
0.00516057
0.00339797
0.00441494
0.00577325
0.0044222
0.0046879
0.00432911
0.0043835
0.00420565
0.00449814
0.00455818
0.00432792
0.061204
0.00437839
0.00425864
0.00461695
0.0210482
0.00430462
0.00450659
0.0376436
0.0621295
0.00428944
0.00442216
0.0036297
0.00633951
0.00464893
0.00454034
0.00420244
0.0039984
0.00437277
0.00459674
0.00529736
0.00380117
0.00468817
0.00395898
0.00457998
0.00391563
0.0056415
0.00444314
0.00442193
0.00448245
0.00460763
0.00397821
0.00974316
0.00426087
0.00401985
0.00564771
0.00358393
0.00391566
0.0145164
0.00466268
0.00456102
0.00364373
0.00408676
0.00391533
0.00439711
0.0192579
0.00429427
0.0038391
0.00431697
0.00371376
0.00358012
0.00797255
0.00378485
0.00419478
0.00452742
0.0117226
0.00355893
0.00473966
0.00426662
0.00370277
0.00417754
0.00421
0.005642
0.00438102
0.00460375
0.00362471
0.00837008
0.0345705
0.00353755
0.00377323
0.00388952
0.0051037
0.0423775
0.00452076
0.00419402
0.00511273
0.00439549
0.00541393
0.00449734
0.00524927
0.00391254
0.00420378
0.00460543
0.00379084
0.00464478
0.00440661
0.00400069
0.0125795
0.00427625
0.00446155
0.00432356
0.00451874
0.00422334
0.00738259
0.00431701
0.00417247
0.00594772
0.00366874
0.00374723
0.00461052
0.00426736
0.00400407
0.00459649
0.00469262
0.00406567
0.00373241
0.0141845
0.00394956
0.00381311
0.00408733
0.00434583
0.00369179
0.00402312
0.00427185
0.00434477
0.00455369
0.0720713
0.00409863
0.0354246
0.00455338
0.00468297
0.0241747
0.0203588
0.00375482
0.00358464
0.00467572
0.00360977
0.0388453
0.00456337
0.00401886
0.00570578
0.00509266
0.0083939
0.00398736
0.00445935
0.00433015
0.00440851
0.00429241
0.00595629
0.0038637
0.00415845
0.0145287
0.00459856
0.00361581
0.00633444
0.00519585
0.00519618
0.0039453
0.00438976
0.00437663
0.00380612
0.0045461
0.00462796
0.00467867
0.00840351
0.00410879
0.00460685
0.00388027
0.00406204
0.00379528
0.00452719
0.00831619
0.00408906
0.00407118
0.00422393
0.00455643
0.00428642
0.00443807
0.0148619
0.00449301
0.00437764
0.00397957
0.00736255
0.00450893
0.0041771
0.00450415
0.00437514
0.00645445
0.0113619
0.00364561
0.0577655
0.00953897
0.042383
0.00418559
0.00422665
0.00818207
0.00462873
0.00369959
0.00514724
0.00425413
0.00485737
0.00384904
0.0144548
0.00421229
0.00368974
0.00455133
0.0120788
0.004695
0.0365469
0.00417664
0.00452577
0.00619677
0.00470567
0.0041926
0.00420993
0.00397663
0.00446639
0.00625427
0.00556838
0.0260221
0.00384775
0.0108134
0.0149773
0.00391981
0.00461005
0.00407178
0.00457421
0.00382748
0.0037458
0.0243249
0.00386654
0.0033264
0.0568354
0.00437288
0.00432764
0.00428253
0.004574
0.00385682
0.00376092
0.00421783
0.00374506
0.014279
0.00455311
0.0485121
0.00844992
0.00441262
0.00468786
0.00397117
0.00337278
0.00356942
0.00457759
0.00441997
0.00452741
0.015159
0.00437214
0.00458646
0.00401032
0.00454433
0.00444908
0.0138446
0.00445742
0.0398
0.00418213
0.00686069
0.00429128
0.00457019
0.00369207
0.00391667
0.0127938
0.00444471
0.00383733
0.00509918
0.00395589
0.00424178
0.00528014
0.00409361
0.00424063
0.0313251
0.00448006
0.00405158
0.00432195
0.00493989
0.0037822
0.00439676
0.00785825
0.0145303
0.00425593
0.00468929
0.00450599
0.00402248
0.00408036
0.00376274
0.00315075
0.0747998
0.00458997
0.00585719
0.00555686
0.00457388
0.00549317
0.00424732
0.00427989
0.0601784
0.00460522
0.0181283
0.045143
0.00456607
0.00449553
0.0047756
0.0362814
0.0061661
0.0240973
0.00374444
0.00456534
0.00429922
0.00391448
0.00500561
0.00647504
0.00381945
0.00433943
0.00632563
0.00402957
0.00703625
0.00416596
0.005123
0.0477077
0.0040292
0.00381474
0.00430565
0.00433791
0.0382339
0.00388686
0.00402537
0.00459898
0.00463086
0.0041353
0.0189063
0.0176751
0.00365008
0.0347073
0.00779812
0.00436693
0.0149986
0.0328716
0.00462204
0.00357721
0.00355887
0.00411599
0.00685642
0.0045359
0.00442416
0.00423062
0.00489417
0.00351743
0.00435406
0.00384598
0.00461498
0.00456113
0.00468819
0.0037141
0.00442896
0.00436684
0.00427816
0.00456004
0.020616
0.00766466
0.00379942
0.00462446
0.00419456
0.00390335
0.00532123
0.0045305
0.0045662
0.00448686
0.00395925
0.00449699
0.00429073
0.00431808
0.0031708
0.00380846
0.00393897
0.00432446
0.00426265
0.0337205
0.00424714
0.00467559
0.00440025
0.00458675
0.0036679
0.00413514
0.00370625
0.00411706
0.00419296
0.00451038
0.00722902
0.00447416
0.00546642
0.00546665
0.00468828
0.00418427
0.00535064
0.00366029
0.00352015
0.00439372
0.0054886
0.00482865
0.00465633
0.00367831
0.00398157
0.00540736
0.00397357
0.00450193
0.0715611
0.00358197
0.00413868
0.00524205
0.00484608
0.00367261
0.00781542
0.0288069
0.00360474
0.0500365