/*--------------------------------*- C++ -*----------------------------------*\
| =========                 |                                                 |
| \\      /  F ield         | OpenFOAM: The Open Source CFD Toolbox           |
|  \\    /   O peration     | Version:  3.0.1                                 |
|   \\  /    A nd           | Web:      www.OpenFOAM.org                      |
|    \\/     M anipulation  |                                                 |
\*---------------------------------------------------------------------------*/
FoamFile
{
    version     2.0;
    format      ascii;
    class       volScalarField;
    location    "0";
    object      yPlus;
}
// * * * * * * * * * * * * * * * * * * * * * * * * * * * * * * * * * * * * * //

dimensions      [0 0 0 0 0 0 0];

internalField   uniform 0;

boundaryField
{
    FrontAndBack
    {
        type            empty;
    }
    patch1
    {
        type            calculated;
        value           nonuniform List<scalar> 
88
(
1.58615
1.55681
1.54198
1.55332
1.58667
1.62876
1.66722
1.6944
1.71687
1.73676
1.75543
1.77645
1.80221
1.82149
1.84309
1.86508
1.88079
1.89936
1.91693
1.93316
1.94763
1.96027
1.97091
1.9795
1.9894
1.99402
1.99345
1.99118
1.98743
1.98226
1.96928
1.9522
1.93117
1.90347
1.8683
1.82279
1.77048
1.70449
1.61996
1.52151
1.40083
1.25801
1.35234
1.67325
1.60505
1.60201
1.58418
1.55739
1.53022
1.50379
1.48391
1.48184
1.49115
1.51351
1.54742
1.58223
1.62396
1.6711
1.71438
1.75552
1.79688
1.83761
1.87359
1.9044
1.92945
1.95178
1.97437
1.98353
1.98243
1.98086
1.97202
1.95251
1.92555
1.88782
1.84264
1.78676
1.72024
1.64309
1.55221
1.44785
1.32964
1.19859
1.05047
0.886522
0.699762
0.509034
1.15257
1.58353
)
;
    }
    patch2
    {
        type            calculated;
        value           nonuniform List<scalar> 
88
(
1.58722
1.55712
1.54194
1.55354
1.58619
1.62899
1.66527
1.69156
1.71636
1.73701
1.75734
1.7787
1.80075
1.82155
1.84117
1.86184
1.88287
1.89734
1.91253
1.93251
1.9451
1.96041
1.97241
1.98291
1.99274
1.99379
1.99556
1.99669
1.99197
1.98116
1.96952
1.95473
1.92983
1.90445
1.87178
1.82469
1.77037
1.7017
1.61615
1.51844
1.39852
1.25236
1.27547
1.64954
1.60337
1.60103
1.58189
1.55587
1.53082
1.50741
1.48823
1.48122
1.4907
1.51505
1.54648
1.58342
1.62512
1.67085
1.7141
1.7562
1.80067
1.83751
1.87056
1.90364
1.93176
1.95172
1.96892
1.98314
1.9882
1.9853
1.97421
1.95488
1.92575
1.89129
1.84397
1.78237
1.71704
1.64199
1.54989
1.44546
1.32882
1.19699
1.05362
0.886953
0.700073
0.506726
0.987628
1.54862
)
;
    }
    patch3
    {
        type            calculated;
        value           nonuniform List<scalar> 
88
(
1.58893
1.55532
1.53784
1.55148
1.58708
1.62952
1.66806
1.69474
1.71638
1.73847
1.75817
1.7774
1.80011
1.82278
1.83971
1.85702
1.87868
1.89994
1.91864
1.93264
1.94548
1.95967
1.96945
1.98048
1.99283
1.99452
1.99326
1.9922
1.99159
1.98507
1.97282
1.95704
1.93394
1.90532
1.86743
1.82185
1.76714
1.69986
1.61944
1.51974
1.39723
1.25275
1.22915
1.64019
1.60562
1.60075
1.58003
1.55825
1.53213
1.50509
1.48863
1.4802
1.48856
1.51388
1.54434
1.57943
1.62306
1.66863
1.71428
1.75665
1.7945
1.83335
1.87153
1.90479
1.93455
1.95488
1.97165
1.98382
1.98753
1.98406
1.97267
1.95568
1.92783
1.88794
1.8398
1.78332
1.71773
1.64115
1.54937
1.44388
1.32811
1.19737
1.05012
0.886579
0.701826
0.505566
0.878336
1.53126
)
;
    }
    Shaft
    {
        type            calculated;
        value           nonuniform List<scalar> 
18
(
12.2052
12.1534
12.1161
12.0936
12.0861
12.0936
12.1161
12.1534
12.2052
12.2052
12.1534
12.1161
12.0936
12.0861
12.0936
12.1161
12.1534
12.2052
)
;
    }
    Inlet
    {
        type            calculated;
        value           uniform 0;
    }
    Lat-Wall
    {
        type            calculated;
        value           nonuniform List<scalar> 
58
(
1424.87
1477.64
1522.58
1584.12
1933.04
1289.09
1621.02
1631.75
1792.83
1064.55
1242.58
1492.98
1604.78
1508.18
1843.06
1417.13
1229.57
1211.1
1424.82
1455.01
1397.72
689.156
723.592
1059.81
1263.38
851.226
867.997
1469.63
1010.88
1228.36
1318.21
988.253
1131.72
1257.43
967.994
1186.86
1134.98
1066.87
1075.55
1150.73
1081.94
1049.03
1080.69
1106.54
818.759
978.235
913.792
1103.86
789.511
1009.58
930.473
824.841
995.855
1162.44
1072.19
1043.3
1051.98
1024.48
)
;
    }
    Outlet
    {
        type            calculated;
        value           uniform 0;
    }
    AMI-St
    {
        type            cyclicAMI;
        value           uniform 0;
    }
    AMI-Rt
    {
        type            cyclicAMI;
        value           uniform 0;
    }
}


// ************************************************************************* //
