/*--------------------------------*- C++ -*----------------------------------*\
| =========                 |                                                 |
| \\      /  F ield         | OpenFOAM: The Open Source CFD Toolbox           |
|  \\    /   O peration     | Version:  3.0.1                                 |
|   \\  /    A nd           | Web:      www.OpenFOAM.org                      |
|    \\/     M anipulation  |                                                 |
\*---------------------------------------------------------------------------*/
FoamFile
{
    version     2.0;
    format      ascii;
    class       surfaceVectorField;
    location    "0.72828";
    object      Uf;
}
// * * * * * * * * * * * * * * * * * * * * * * * * * * * * * * * * * * * * * //

dimensions      [0 1 -1 0 0 0 0];

internalField   nonuniform List<vector> 
32369
(
(-1.59366 -2.78769 0)
(-1.63643 -0.688973 0)
(1.07218 -4.71644 2.40877e-18)
(-0.285026 -2.15654 -8.634e-20)
(-0.899215 -0.846378 4.0153e-19)
(1.13814 -3.39928 -1.64303e-18)
(0.646226 -1.67393 -1.06027e-19)
(-0.049498 -0.957075 4.68502e-19)
(1.40063 -2.52365 -6.08468e-19)
(1.24021 -1.27658 0)
(0.636844 -0.951492 -4.06427e-19)
(1.63567 -1.80753 2.93571e-19)
(1.6151 -0.96148 0)
(1.14674 -0.844495 0)
(1.83269 -1.30976 0)
(1.85789 -0.707321 0)
(1.51581 -0.683004 0)
(1.99799 -0.945674 7.36202e-19)
(2.02477 -0.502288 -3.10043e-19)
(1.78164 -0.510654 0)
(2.12675 -0.673058 -1.94278e-18)
(2.14589 -0.338409 -3.85931e-19)
(1.97408 -0.354033 -8.67717e-19)
(2.22369 -0.46372 1.00786e-18)
(2.23654 -0.209194 2.69293e-19)
(2.11485 -0.222789 -3.27989e-19)
(2.29554 -0.301149 -4.58012e-19)
(2.30501 -0.10872 1.85372e-19)
(2.21689 -0.118513 7.00725e-19)
(2.34721 -0.176207 3.01247e-19)
(2.28412 -0.04044 3.85382e-21)
(2.37894 -0.0848551 -5.62429e-19)
(2.35291 -0.0222509 -1.47635e-19)
(-1.21688 0.451416 3.21622e-19)
(-1.28066 1.47124 0)
(-0.740954 0.0446603 9.01241e-19)
(-0.472188 0.787393 -1.75621e-19)
(-0.116713 -0.254699 2.91456e-19)
(-0.204185 0.47513 3.165e-19)
(0.481071 -0.434715 -4.12049e-19)
(0.271712 0.100796 5.45525e-20)
(1.00396 -0.475213 0)
(0.730526 -0.114449 -2.23749e-18)
(1.4135 -0.421305 0)
(1.14835 -0.206399 8.52078e-19)
(1.71533 -0.323381 -4.55928e-19)
(1.49035 -0.203894 6.75657e-19)
(1.93176 -0.21767 -8.53653e-19)
(1.75699 -0.152629 -3.69002e-19)
(2.08691 -0.122345 -3.79459e-21)
(1.95818 -0.0852315 1.32269e-19)
(2.19973 -0.0440846 6.41384e-19)
(2.10601 -0.0201922 -1.57237e-19)
(2.20696 0.0320748 1.53322e-19)
(2.28068 0.0211196 -2.30803e-19)
(-0.248845 1.35201 -3.28835e-19)
(-0.460997 2.05844 7.32094e-19)
(-0.154454 1.11246 -5.87449e-19)
(0.41623 1.45049 -2.60775e-18)
(0.0898631 0.770417 1.14097e-19)
(0.26872 1.35141 6.72503e-20)
(0.414421 0.429083 -1.49049e-18)
(0.501687 0.934581 -1.82529e-18)
(0.80082 0.181 -1.51708e-18)
(0.750662 0.60533 -1.65144e-19)
(1.17784 0.0389127 1.52674e-18)
(1.06319 0.349623 1.96005e-18)
(1.50565 -0.0127811 9.1502e-19)
(1.36375 0.199097 -1.27021e-20)
(1.76734 -0.0081496 6.62638e-19)
(1.63134 0.129006 2.08604e-19)
(1.96644 0.0227111 1.87434e-20)
(1.85212 0.110261 3.12213e-21)
(2.11464 0.0595002 -7.12998e-19)
(2.02454 0.117405 -3.49366e-19)
(2.14816 0.134483 7.59113e-20)
(2.22653 0.0946445 -1.8516e-18)
(0.58958 1.70738 8.82127e-19)
(0.312353 2.08692 2.31872e-19)
(0.634139 1.65104 -2.25109e-18)
(1.21814 1.64336 -6.72649e-19)
(0.675568 1.38991 -1.70767e-18)
(0.888236 1.7724 4.75968e-19)
(0.754815 1.06416 -5.30741e-19)
(0.999158 1.38873 -3.26219e-18)
(0.943521 0.759119 3.07139e-18)
(1.04636 1.11165 1.84062e-18)
(1.18875 0.513168 5.73165e-19)
(1.21512 0.815287 2.05699e-19)
(1.44994 0.347382 -7.23724e-19)
(1.41317 0.587524 -1.2706e-18)
(1.69084 0.252841 -4.21772e-19)
(1.62391 0.429603 9.14451e-20)
(1.89366 0.208303 -3.18123e-19)
(1.82073 0.333133 8.02412e-19)
(2.05494 0.191572 3.76471e-19)
(1.98932 0.279678 3.78936e-19)
(2.11923 0.251773 -1.42506e-19)
(2.17772 0.187231 1.28611e-19)
(1.20576 1.76784 8.12288e-19)
(0.913074 1.94889 -8.66126e-20)
(1.30574 1.83466 1.10307e-18)
(1.78927 1.63729 1.46895e-18)
(1.26066 1.68045 -4.06715e-19)
(1.42809 1.88029 -3.8275e-19)
(1.22628 1.42461 -1.24489e-18)
(1.51818 1.57466 -4.93341e-19)
(1.27202 1.14944 -8.08846e-19)
(1.43693 1.38914 0)
(1.38291 0.88702 -1.46733e-18)
(1.49454 1.12032 -6.23811e-19)
(1.54264 0.671091 -4.89786e-19)
(1.58837 0.884586 6.67013e-19)
(1.72096 0.513058 1.28897e-18)
(1.72091 0.68991 -1.83224e-18)
(1.89333 0.40817 1.49885e-18)
(1.86731 0.545898 1.83101e-18)
(2.04593 0.34264 -7.61814e-20)
(2.00893 0.447062 -6.62489e-20)
(2.1267 0.385183 -2.8081e-19)
(2.1772 0.303413 -2.31162e-19)
(1.63434 1.66912 3.95453e-19)
(1.32356 1.69958 3.07512e-19)
(1.81241 1.80429 -5.87322e-19)
(2.18825 1.57555 7.0869e-21)
(1.74894 1.729 -5.59305e-19)
(1.8391 1.83092 -3.43885e-19)
(1.6786 1.56165 6.84819e-19)
(1.93662 1.59102 3.17801e-19)
(1.6431 1.34991 2.45452e-19)
(1.8071 1.48855 -4.92175e-19)
(1.65899 1.1218 1.43991e-18)
(1.80068 1.27248 5.35918e-19)
(1.72788 0.907814 -3.79162e-19)
(1.81824 1.06832 2.18336e-19)
(1.83346 0.7278 -1.53889e-18)
(1.88071 0.876773 -9.01276e-19)
(1.95598 0.589427 4.66474e-19)
(1.97095 0.717034 5.70568e-19)
(2.07821 0.489203 -2.15099e-19)
(2.07331 0.593211 -1.14518e-18)
(2.16654 0.506713 4.7725e-19)
(2.18914 0.41546 0)
(1.91895 1.49125 -2.54811e-20)
(1.55502 1.43788 -7.7864e-19)
(2.1557 1.69517 2.84096e-19)
(2.43513 1.44382 2.72758e-19)
(2.10308 1.66217 4.28972e-19)
(2.15065 1.72117 4.08566e-19)
(2.03922 1.56177 -7.71082e-19)
(2.2427 1.53093 -3.72989e-19)
(1.97249 1.4115 -3.4151e-19)
(2.10906 1.4818 -8.61502e-20)
(1.93806 1.23313 -5.76637e-19)
(2.07539 1.31627 -2.42526e-19)
(1.94539 1.04839 -2.2537e-19)
(2.04835 1.15533 -1.83543e-18)
(1.99058 0.876402 1.05127e-18)
(2.06135 0.987488 1.87789e-18)
(2.06315 0.730024 -8.42152e-19)
(2.10428 0.834973 -3.69227e-19)
(2.14962 0.613122 -6.36187e-19)
(2.1679 0.706068 -5.25307e-20)
(2.23191 0.607624 -3.40956e-19)
(2.23638 0.522364 4.18838e-19)
(2.08973 1.31236 -4.4613e-20)
(1.70146 1.26295 -1.29322e-18)
(2.38679 1.55102 3.84723e-19)
(2.57867 1.315 7.70172e-19)
(2.35304 1.55198 3.12138e-19)
(2.37069 1.58222 -2.43253e-20)
(2.30374 1.49515 2.8165e-19)
(2.46193 1.43661 -7.66926e-20)
(2.23322 1.39121 3.84126e-20)
(2.33966 1.42257 3.3007e-19)
(2.17952 1.25826 -1.32536e-18)
(2.29886 1.29592 -5.10091e-19)
(2.153 1.10983 -6.09422e-20)
(2.25028 1.17487 -5.90112e-19)
(2.15719 0.960658 6.67256e-19)
(2.23369 1.03623 9.30596e-19)
(2.18912 0.823574 3.55713e-19)
(2.24279 0.902127 -3.67688e-19)
(2.23975 0.705566 2.292e-19)
(2.27442 0.78011 8.58567e-19)
(2.31149 0.682322 -4.68295e-19)
(2.29547 0.601651 4.42769e-19)
(2.19445 1.17016 2.50946e-19)
(1.80277 1.11264 -8.04152e-19)
(2.53671 1.41639 7.21906e-19)
(2.68735 1.19834 4.43099e-19)
(2.52865 1.43247 1.14252e-19)
(2.52929 1.45187 -1.28785e-19)
(2.49425 1.40174 -9.23557e-20)
(2.61974 1.33089 -4.41101e-21)
(2.42959 1.32992 -7.82757e-20)
(2.51084 1.34054 -9.77143e-20)
(2.37223 1.2324 2.46156e-19)
(2.47183 1.24191 4.4301e-19)
(2.33046 1.11703 2.59814e-19)
(2.41513 1.15353 3.1491e-19)
(2.31092 0.99416 0)
(2.38335 1.04212 -2.61423e-19)
(2.31524 0.874208 0)
(2.37133 0.929822 0)
(2.33916 0.764233 3.01753e-19)
(2.38058 0.821288 0)
(2.39794 0.730554 -3.19782e-19)
(2.37156 0.662258 4.56543e-19)
(2.26783 1.01301 -2.79559e-19)
(1.82667 0.929723 -5.61282e-19)
(2.64504 1.27859 -4.0276e-20)
(2.74994 1.05758 1.04818e-19)
(2.65413 1.31086 -2.15418e-20)
(2.63564 1.32151 -2.78308e-22)
(2.6317 1.29926 0)
(2.7307 1.22002 -7.14095e-20)
(2.57471 1.25073 3.76119e-19)
(2.63455 1.2501 9.975e-20)
(2.52007 1.18006 5.07873e-19)
(2.60156 1.17204 3.041e-19)
(2.47329 1.09186 -1.36172e-19)
(2.54394 1.11003 3.64505e-19)
(2.44199 0.99345 -2.89842e-19)
(2.50616 1.0217 -7.43446e-19)
(2.43007 0.892783 0)
(2.48253 0.930648 2.0082e-19)
(2.43709 0.795838 -5.77422e-19)
(2.47831 0.838037 0)
(2.48312 0.758818 -6.5003e-19)
(2.45886 0.705516 -5.00033e-19)
(2.27799 0.8544 -3.02889e-20)
(1.78295 0.751187 -3.25252e-19)
(2.70714 1.14104 1.59448e-19)
(2.75974 0.927405 1.29653e-19)
(2.73664 1.19082 -4.31796e-20)
(2.69223 1.20074 1.1713e-20)
(2.72735 1.19564 1.06049e-19)
(2.80032 1.11248 -1.6039e-19)
(2.6793 1.16569 5.74753e-21)
(2.71859 1.16017 2.00779e-19)
(2.6305 1.11582 1.251e-19)
(2.69504 1.0968 -4.20143e-19)
(2.58421 1.04947 -1.02972e-19)
(2.64085 1.05622 4.8502e-19)
(2.54843 0.972135 -3.44893e-19)
(2.60282 0.98656 -6.9989e-19)
(2.52797 0.890078 2.23034e-19)
(2.57391 0.914619 3.9074e-19)
(2.52376 0.808377 0)
(2.56194 0.837156 -3.13303e-19)
(2.55883 0.770512 0)
(2.52902 0.725869 0)
(2.2401 0.73898 0)
(1.7498 0.630824 0)
(2.72629 1.03134 -6.74138e-21)
(2.75627 0.836741 0)
(2.78104 1.08781 -8.81191e-20)
(2.72383 1.10542 8.63418e-20)
(2.7877 1.10118 7.46106e-20)
(2.843 1.01942 -4.35463e-20)
(2.75065 1.08377 -1.05578e-19)
(2.77315 1.07924 -1.53934e-19)
(2.70996 1.04908 -1.05008e-19)
(2.75994 1.02388 -2.7175e-19)
(2.66751 0.999749 2.79742e-20)
(2.71109 1.00028 5.52521e-19)
(2.63175 0.939811 -7.14382e-20)
(2.67621 0.944847 -4.30514e-19)
(2.60792 0.874095 -6.87985e-20)
(2.64627 0.88949 -9.57801e-21)
(2.59798 0.806324 -3.48502e-19)
(2.63116 0.825768 -1.8072e-19)
(2.6231 0.770953 7.11681e-19)
(2.59593 0.736849 0)
(2.20552 0.64468 0)
(1.71772 0.527562 -5.33952e-20)
(2.73056 0.942162 9.33156e-20)
(2.74231 0.752261 0)
(2.80444 1.00263 3.16692e-19)
(2.74299 1.02128 1.03916e-19)
(2.82457 1.01999 -2.53784e-19)
(2.86985 0.939109 4.5765e-20)
(2.79718 1.01021 -2.91578e-19)
(2.80847 1.00854 -1.4253e-19)
(2.76506 0.985889 3.66145e-19)
(2.80428 0.957124 -1.1611e-19)
(2.72792 0.949361 2.29715e-19)
(2.7606 0.947332 2.07557e-19)
(2.69484 0.903323 -3.99757e-19)
(2.73032 0.902228 2.19247e-19)
(2.67115 0.851525 -9.16827e-20)
(2.70178 0.861156 -3.79125e-19)
(2.65954 0.796149 7.83386e-19)
(2.68705 0.809198 -2.99411e-19)
(2.67874 0.766149 7.08828e-19)
(2.65927 0.738568 5.40169e-19)
(2.1631 0.540252 -5.87873e-20)
(1.62608 0.415765 -1.9292e-19)
(2.72007 0.850871 0)
(2.68974 0.66568 2.40465e-19)
(2.81492 0.923485 0)
(2.74096 0.940332 -9.39233e-20)
(2.84646 0.947673 8.80305e-20)
(2.87913 0.868102 0)
(2.82685 0.944606 -1.98e-20)
(2.82919 0.944683 2.37808e-19)
(2.80238 0.928483 -2.6378e-19)
(2.83262 0.897285 -3.97316e-19)
(2.77049 0.902093 1.9419e-19)
(2.79425 0.898664 -2.46696e-20)
(2.74125 0.867278 3.04952e-19)
(2.76887 0.861912 3.09881e-19)
(2.71974 0.827299 -5.86873e-19)
(2.74313 0.833231 -1.71387e-19)
(2.709 0.783222 -5.11821e-19)
(2.73059 0.791431 -1.61623e-19)
(2.72422 0.758705 1.02752e-19)
(2.70615 0.734779 -5.80692e-19)
(2.09184 0.465406 -1.87861e-20)
(1.56269 0.336945 -1.25525e-19)
(2.68994 0.776084 9.73931e-20)
(2.63733 0.601714 2.24402e-19)
(2.81168 0.854884 -1.03566e-19)
(2.7316 0.871264 -9.4022e-20)
(2.85548 0.883898 1.24434e-19)
(2.8767 0.8084 -1.58622e-20)
(2.84365 0.885944 -2.44264e-20)
(2.83924 0.886455 1.38862e-19)
(2.82574 0.876652 -1.46274e-19)
(2.84781 0.844582 -4.46307e-19)
(2.79886 0.858804 3.35966e-20)
(2.8151 0.85407 2.57423e-19)
(2.77407 0.833784 -1.25915e-19)
(2.79433 0.825501 -4.30404e-21)
(2.75601 0.804154 2.59644e-19)
(2.77259 0.80751 0)
(2.74791 0.77018 4.27338e-19)
(2.76336 0.775114 2.92774e-19)
(2.76034 0.75081 2.2437e-19)
(2.74752 0.732007 -4.00396e-19)
(2.0267 0.403179 -1.58185e-20)
(1.51331 0.267817 -2.29332e-19)
(2.65306 0.71192 -1.93345e-20)
(2.5809 0.539848 -2.15582e-19)
(2.79943 0.795101 -1.42552e-20)
(2.71756 0.803264 1.54876e-19)
(2.85455 0.827811 -1.75089e-20)
(2.86616 0.755209 1.09282e-21)
(2.85005 0.833484 -1.72277e-19)
(2.84139 0.831496 1.87951e-21)
(2.83767 0.830388 -6.59321e-20)
(2.85192 0.798055 -2.13767e-19)
(2.81552 0.820093 2.50897e-19)
(2.82509 0.813607 1.35771e-19)
(2.79545 0.804218 1.25344e-19)
(2.8084 0.794062 1.1344e-19)
(2.78183 0.783846 0)
(2.79199 0.785526 0)
(2.77785 0.758757 9.76683e-20)
(2.78721 0.762205 0)
(2.79024 0.74492 3.23978e-21)
(2.78311 0.728015 6.37452e-19)
(1.96002 0.32911 -4.2992e-19)
(1.42392 0.20159 -2.26871e-19)
(2.60528 0.640538 -1.44084e-20)
(2.4948 0.475299 -1.96156e-19)
(2.77766 0.73386 1.85064e-19)
(2.68625 0.732144 1.54451e-19)
(2.84435 0.773758 1.94026e-20)
(2.84254 0.703807 -1.93285e-19)
(2.84682 0.78463 -1.67504e-20)
(2.83329 0.777146 1.28589e-19)
(2.83914 0.788819 -2.32717e-20)
(2.84446 0.756273 -2.26589e-20)
(2.82191 0.786349 0)
(2.82455 0.777669 -1.72863e-19)
(2.80716 0.779015 0)
(2.81279 0.768473 6.24296e-20)
(2.79874 0.767863 0)
(2.80208 0.768553 0)
(2.80021 0.751111 -9.57565e-20)
(2.80339 0.754227 -7.38101e-20)
(2.81276 0.742711 -5.34511e-20)
(2.81041 0.728489 -6.9555e-20)
(1.86805 0.265624 1.9278e-21)
(1.34209 0.148461 -7.74182e-19)
(2.5358 0.571515 9.5825e-22)
(2.40046 0.418436 5.96039e-19)
(2.74029 0.67215 -1.87526e-19)
(2.64344 0.661698 -2.32869e-19)
(2.82118 0.719858 -8.8071e-20)
(2.80511 0.65208 -1.52829e-19)
(2.83207 0.73824 1.38721e-19)
(2.81133 0.723313 2.01594e-19)
(2.82973 0.750448 -1.56448e-19)
(2.82507 0.718609 -1.22309e-19)
(2.81779 0.75822 -1.41075e-19)
(2.81113 0.747077 -1.68936e-19)
(2.80942 0.761227 6.94745e-20)
(2.8064 0.750025 3.53247e-19)
(2.80796 0.75804 -6.59508e-20)
(2.80472 0.758112 0)
(2.81626 0.748291 -3.105e-20)
(2.81365 0.752177 -7.4562e-20)
(2.83052 0.74489 5.56191e-20)
(2.83289 0.731227 4.63656e-20)
(1.75951 0.2056 -4.85871e-19)
(1.2613 0.104232 2.35603e-19)
(2.44371 0.501448 4.44064e-19)
(2.29977 0.363481 2.12956e-19)
(2.68154 0.607316 -2.15313e-19)
(2.58772 0.585251 -2.30248e-19)
(2.77828 0.664524 1.1709e-19)
(2.74785 0.594885 4.50661e-20)
(2.80068 0.694797 -1.26396e-20)
(2.76877 0.67093 1.80298e-19)
(2.80599 0.720121 -1.29705e-19)
(2.78747 0.686606 -1.92199e-19)
(2.80249 0.738038 2.69134e-19)
(2.78553 0.72364 1.84228e-19)
(2.80349 0.750542 3.26894e-19)
(2.79104 0.74017 -1.39775e-20)
(2.81113 0.754972 0)
(2.80085 0.755564 0)
(2.8277 0.750924 0)
(2.81943 0.75671 0)
(2.84529 0.752194 -1.62089e-19)
(2.8516 0.737316 -4.77864e-21)
(1.63107 0.141399 1.05482e-18)
(1.17052 0.0625369 1.1639e-18)
(2.31845 0.423325 -4.08928e-19)
(2.18171 0.294851 -3.65853e-19)
(2.58689 0.533878 0)
(2.50659 0.488946 0)
(2.70204 0.605758 7.67862e-20)
(2.65567 0.527479 1.50292e-19)
(2.74436 0.653436 3.1306e-20)
(2.69844 0.624443 2.17132e-19)
(2.76504 0.69505 8.29832e-20)
(2.729 0.664461 -5.04849e-20)
(2.77596 0.726239 -8.7317e-20)
(2.74508 0.711066 -7.60066e-20)
(2.79013 0.748409 -3.53981e-19)
(2.76652 0.739771 1.03019e-19)
(2.80937 0.759326 0)
(2.79121 0.761062 -1.78337e-19)
(2.83557 0.759737 -1.44554e-19)
(2.82121 0.767617 2.4088e-19)
(2.85622 0.765229 2.49507e-19)
(2.86605 0.749931 2.10152e-19)
(1.45953 0.0716397 2.07946e-19)
(1.0411 0.0194944 9.07948e-19)
(2.13103 0.338491 0)
(2.01651 0.19198 -9.43211e-19)
(2.42562 0.461788 1.33168e-19)
(2.36284 0.361914 8.13336e-19)
(2.57231 0.5462 3.11451e-19)
(2.52354 0.445967 -5.59362e-20)
(2.64898 0.616267 1.63778e-19)
(2.5927 0.587833 -7.52262e-19)
(2.69869 0.677657 -1.99062e-19)
(2.64526 0.656243 2.06213e-20)
(2.7348 0.722976 1.03828e-19)
(2.68798 0.711754 -2.50408e-19)
(2.76842 0.753726 3.17818e-19)
(2.73148 0.748033 6.24923e-19)
(2.80229 0.770019 1.8751e-20)
(2.77399 0.772528 -6.7579e-19)
(2.83935 0.77393 6.40569e-19)
(2.81706 0.782682 4.19927e-19)
(2.86213 0.782728 6.39548e-21)
(2.87861 0.766901 8.90878e-19)
(1.26319 -0.0118721 3.21958e-19)
(0.860228 -0.0563715 3.20336e-18)
(1.87822 0.230944 -7.12955e-19)
(1.74729 0.0130759 -1.10119e-18)
(2.193 0.371522 8.3473e-19)
(2.116 0.201644 7.81242e-19)
(2.37805 0.483701 -7.4149e-19)
(2.30981 0.355368 -1.96495e-19)
(2.49962 0.582861 -6.48374e-19)
(2.42803 0.556244 4.97094e-19)
(2.59413 0.664219 0)
(2.52508 0.655826 -6.83444e-20)
(2.66938 0.722364 1.73651e-19)
(2.60558 0.719951 0)
(2.73172 0.760859 -2.21424e-19)
(2.67631 0.75917 -1.54401e-19)
(2.78531 0.782517 -4.09083e-19)
(2.7392 0.783918 6.79059e-20)
(2.8356 0.790142 -1.75939e-19)
(2.79778 0.795961 3.1955e-19)
(2.85526 0.799188 -4.47168e-19)
(2.883 0.78692 1.59662e-19)
(0.933339 -0.137805 3.20728e-18)
(0.613031 -0.186937 -1.05814e-18)
(1.50653 0.0936067 -9.15633e-19)
(1.41135 -0.129718 -1.32004e-18)
(1.83756 0.273911 0)
(1.73303 0.0803099 -3.72427e-19)
(2.07745 0.429147 3.99833e-19)
(1.98846 0.295621 -2.37014e-19)
(2.26192 0.554387 5.45805e-19)
(2.18836 0.531318 6.0615e-19)
(2.41759 0.651341 -7.5276e-20)
(2.34426 0.650322 2.70225e-19)
(2.54706 0.719697 -1.80305e-19)
(2.468 0.719286 3.72559e-19)
(2.6524 0.764649 2.36811e-19)
(2.56946 0.758388 -1.51552e-18)
(2.73739 0.79069 7.73702e-19)
(2.65637 0.781389 8.41067e-19)
(2.80906 0.801097 1.77521e-19)
(2.73541 0.793916 -3.59295e-20)
(2.81727 0.804836 -2.81294e-19)
(2.8638 0.804 -1.90083e-20)
(1.13525 -0.546186 -4.25845e-18)
(0.834382 -1.34121 -2.42509e-18)
(1.39326 -0.189549 -8.87382e-19)
(0.177619 -0.157251 9.03769e-19)
(1.61706 0.141807 -6.04106e-19)
(0.539436 -0.0418457 6.36647e-19)
(1.84479 0.373799 -2.15522e-19)
(1.0005 0.0526171 -6.91555e-19)
(2.04035 0.530796 4.71667e-19)
(1.37322 0.247503 1.50594e-19)
(2.2232 0.641538 6.91272e-19)
(1.67366 0.393632 -1.29531e-19)
(2.38472 0.710443 -2.94781e-19)
(1.91934 0.493998 3.58562e-19)
(2.51946 0.751882 -1.29606e-18)
(2.11462 0.565745 -8.71057e-19)
(2.62989 0.776248 2.01005e-19)
(2.27581 0.618631 3.11611e-19)
(2.72337 0.790171 -3.95234e-19)
(2.41366 0.658411 -1.7037e-19)
(2.54841 0.705225 -2.25909e-19)
(2.80511 0.809161 -2.68239e-19)
(2.72141 -4.43128 2.0737e-18)
(4.16271 -5.53324 1.2211e-18)
(2.36744 -3.59154 -2.07678e-18)
(3.83172 -3.11459 7.53956e-20)
(2.27559 -2.69808 -1.82103e-19)
(3.39207 -2.91568 -4.20522e-19)
(2.21931 -1.95004 3.12319e-19)
(2.98068 -2.18021 1.48436e-19)
(2.23997 -1.3828 6.39429e-19)
(2.70642 -1.63388 -2.69211e-19)
(2.28854 -0.971663 -8.87612e-19)
(2.56943 -1.17859 9.448e-19)
(2.33913 -0.672157 -9.21641e-19)
(2.51373 -0.828889 -1.70104e-18)
(2.37961 -0.44981 1.17437e-18)
(2.49504 -0.561829 2.18329e-18)
(2.40818 -0.282475 -5.04208e-19)
(2.48932 -0.36004 -5.4567e-19)
(2.42627 -0.15646 -2.98062e-19)
(2.48596 -0.209185 0)
(2.47789 -0.101035 -3.33697e-19)
(2.4311 -0.0574668 2.85224e-19)
(4.0823 -2.40189 -2.44537e-18)
(4.42382 -3.8382 -8.20406e-18)
(4.08831 -2.70857 3.21869e-19)
(4.64742 -1.14123 3.87378e-18)
(3.78111 -2.46131 -7.57679e-20)
(4.68225 -2.23905 -1.99445e-18)
(3.3434 -2.05434 -4.14083e-19)
(4.16086 -1.84155 9.50157e-19)
(3.01173 -1.57121 -3.54015e-20)
(3.64623 -1.57167 2.80787e-19)
(2.8008 -1.13347 4.55514e-19)
(3.24343 -1.20719 2.56374e-19)
(2.6825 -0.781676 1.09732e-18)
(2.97669 -0.875111 2.4453e-19)
(2.61631 -0.513709 9.11564e-19)
(2.81298 -0.596016 8.18001e-19)
(2.57545 -0.314337 -1.16325e-19)
(2.71079 -0.37553 -5.84587e-19)
(2.54518 -0.168799 0)
(2.641 -0.20777 5.44943e-20)
(2.58727 -0.0890028 1.01908e-19)
(2.5095 -0.055986 0)
(4.24652 -0.905836 9.05908e-20)
(4.00334 -2.27158 8.22555e-19)
(4.84109 -1.14376 2.24418e-18)
(4.60787 0.459542 1.70511e-19)
(4.68862 -1.3481 -1.38859e-18)
(5.1135 -1.08107 1.99559e-18)
(4.2522 -1.42529 5.44233e-19)
(4.7569 -0.899146 1.59941e-18)
(3.78211 -1.27855 9.57669e-20)
(4.32283 -1.02051 -3.73373e-19)
(3.38375 -1.0215 0)
(3.84486 -0.892826 3.11704e-19)
(3.09806 -0.740671 -5.72395e-20)
(3.4489 -0.706015 -2.97928e-19)
(2.90636 -0.493679 -5.30688e-19)
(3.15546 -0.497588 -7.5242e-20)
(2.77876 -0.293668 -4.29991e-19)
(2.95526 -0.309756 -5.7667e-19)
(2.68974 -0.13934 1.49681e-19)
(2.8157 -0.154606 1.48758e-19)
(2.71138 -0.0415424 -2.09331e-20)
(2.61108 -0.0195613 -2.57494e-19)
(3.96657 0.00428653 4.04972e-18)
(3.43635 -1.22139 1.96955e-18)
(4.89352 0.0796385 -8.57334e-19)
(4.27532 1.3311 1.38653e-18)
(4.96258 -0.225849 5.44852e-18)
(5.00917 -0.0569989 6.51626e-18)
(4.70359 -0.513197 1.03173e-18)
(4.84417 0.0936889 -8.12968e-19)
(4.29504 -0.640207 -2.28122e-19)
(4.60533 -0.273215 -2.16411e-18)
(3.8589 -0.623489 3.64607e-20)
(4.19997 -0.345621 7.20891e-19)
(3.48418 -0.504116 -3.37797e-19)
(3.79774 -0.340065 1.64332e-19)
(3.19647 -0.345172 -1.28355e-19)
(3.44928 -0.258074 3.07839e-19)
(2.9889 -0.195706 -8.55957e-20)
(3.17591 -0.147436 -2.59563e-19)
(2.83989 -0.0671328 6.70378e-22)
(2.97952 -0.0377056 4.83497e-20)
(2.83152 0.0504438 -3.54279e-20)
(2.70244 0.0420282 1.11815e-19)
(3.5285 0.504947 3.26249e-19)
(2.89807 -0.559969 -2.10705e-20)
(4.60898 0.837801 7.15741e-18)
(3.93043 1.71589 6.41873e-19)
(4.82864 0.607957 4.28412e-19)
(4.70481 0.652844 1.07889e-19)
(4.75013 0.316324 -3.77126e-18)
(4.653 0.853968 -1.66073e-18)
(4.47891 0.0685684 -1.68122e-18)
(4.58189 0.412145 -1.71529e-18)
(4.11426 -0.0833402 8.82091e-19)
(4.29113 0.245524 6.31128e-19)
(3.74591 -0.123272 1.0338e-18)
(3.96036 0.114893 6.71069e-19)
(3.42253 -0.0869303 3.23575e-19)
(3.62717 0.0768069 7.38507e-19)
(3.16607 -0.0120837 -3.74718e-20)
(3.33719 0.0914872 -6.85158e-20)
(2.97239 0.063355 -2.22738e-20)
(3.10306 0.137145 4.04704e-20)
(2.92668 0.187537 -1.13613e-19)
(2.79874 0.134597 9.1631e-21)
(3.08848 0.816075 7.36137e-19)
(2.42496 -0.122062 4.32992e-18)
(4.22264 1.28801 -6.37391e-18)
(3.60574 1.90125 -3.85337e-18)
(4.51701 1.1536 -1.96642e-18)
(4.35776 1.1162 1.97686e-18)
(4.55943 0.928587 2.76288e-19)
(4.36181 1.36366 -3.14528e-18)
(4.41302 0.667025 6.10413e-19)
(4.39633 0.93694 -2.24443e-18)
(4.15331 0.444571 3.48278e-19)
(4.20127 0.756221 1.96822e-18)
(3.84811 0.301953 1.93981e-19)
(3.95937 0.553448 -5.66015e-20)
(3.54511 0.234696 4.13969e-19)
(3.67841 0.43412 3.29006e-19)
(3.27921 0.223064 6.46099e-20)
(3.40956 0.368467 2.49748e-19)
(3.06316 0.240672 -1.4946e-20)
(3.17309 0.345946 -1.46534e-19)
(2.98179 0.349302 -4.88255e-20)
(2.85412 0.26476 -5.79646e-20)
(2.69862 1.0232 -1.16901e-19)
(2.00563 0.174318 -3.84995e-18)
(3.84447 1.5736 3.93094e-18)
(3.29458 2.00564 5.07691e-18)
(4.16845 1.50882 1.14146e-18)
(4.01468 1.42682 5.42308e-19)
(4.27591 1.34775 -5.85309e-18)
(4.05073 1.69837 -3.4768e-18)
(4.21357 1.11362 -8.73693e-19)
(4.14792 1.31052 -2.27463e-18)
(4.04496 0.881342 1.76426e-18)
(4.016 1.15245 1.55084e-18)
(3.81513 0.692553 0)
(3.85099 0.92241 0)
(3.56067 0.558721 1.98513e-19)
(3.62778 0.761368 -1.97215e-19)
(3.31628 0.478389 1.11199e-19)
(3.39817 0.640765 5.73249e-19)
(3.1017 0.436781 -1.56464e-19)
(3.18075 0.561616 -4.54385e-19)
(2.98612 0.511902 2.70165e-19)
(2.89288 0.405458 1.19033e-19)
(2.37964 1.15347 4.35688e-19)
(1.68339 0.377135 -7.61949e-18)
(3.51109 1.7568 2.69603e-18)
(3.02033 2.06349 1.08567e-17)
(3.8414 1.74592 -4.3611e-18)
(3.70041 1.64006 -7.4886e-18)
(3.97812 1.63299 0)
(3.75005 1.92268 0)
(3.96451 1.43276 -3.73277e-20)
(3.88512 1.57149 0)
(3.85979 1.21463 -4.62895e-20)
(3.78869 1.4474 -4.19061e-20)
(3.69384 1.01416 -1.75758e-19)
(3.68361 1.21179 1.1823e-18)
(3.49198 0.846598 7.56098e-20)
(3.50948 1.0357 -5.35083e-19)
(3.28309 0.720818 1.52329e-19)
(3.32213 0.882358 6.6606e-19)
(3.08514 0.632033 -1.24065e-19)
(3.13398 0.764518 -2.66151e-19)
(2.95896 0.677713 2.12146e-19)
(2.87777 0.56616 1.48532e-19)
(2.11657 1.24152 9.37294e-19)
(1.42161 0.523471 -5.54434e-19)
(3.22256 1.87707 3.51048e-18)
(2.77444 2.10093 7.57382e-19)
(3.54785 1.90843 -3.89257e-18)
(3.42209 1.7893 -3.97869e-18)
(3.69485 1.83029 0)
(3.46815 2.07866 2.29209e-18)
(3.70701 1.66011 0)
(3.63006 1.75292 -1.79677e-18)
(3.64301 1.46133 1.05784e-18)
(3.54703 1.66479 5.42472e-19)
(3.52435 1.26468 9.89548e-19)
(3.48896 1.43002 1.37571e-18)
(3.36769 1.08351 -8.28053e-20)
(3.35154 1.25408 -2.50002e-18)
(3.1965 0.931786 3.51373e-19)
(3.20306 1.08231 6.12305e-19)
(3.0266 0.808855 0)
(3.04433 0.938921 0)
(2.89179 0.831615 3.59107e-19)
(2.82882 0.701706 0)
(1.89162 1.30371 -1.11924e-18)
(1.18671 0.622536 -1.38323e-18)
(2.96634 1.96824 -5.88332e-18)
(2.56157 2.13689 -5.35532e-19)
(3.2833 2.02198 1.59008e-18)
(3.15962 1.89766 -1.14972e-18)
(3.43131 1.97087 1.15597e-18)
(3.20607 2.19285 2.3092e-18)
(3.45651 1.82301 -1.50614e-18)
(3.38868 1.87796 -3.09468e-19)
(3.41752 1.64219 8.5255e-19)
(3.30302 1.82613 -1.09998e-18)
(3.3325 1.45428 -1.77667e-18)
(3.28476 1.58956 8.70425e-19)
(3.21135 1.26907 -2.11809e-18)
(3.17166 1.42214 -2.71954e-18)
(3.07344 1.10316 3.40619e-19)
(3.05747 1.23976 -9.13012e-19)
(2.93148 0.957401 3.18889e-19)
(2.92584 1.07866 6.99707e-19)
(2.78775 0.95082 7.62431e-19)
(2.74761 0.805558 -1.59895e-18)
(1.65877 1.35928 -8.38536e-19)
(0.951647 0.665028 -7.85451e-18)
(2.71937 2.0328 4.29797e-18)
(2.32518 2.15211 4.04506e-18)
(3.03578 2.09856 -7.92466e-19)
(2.8914 1.97136 3.02689e-21)
(3.18364 2.07701 1.34735e-18)
(2.97228 2.27393 9.23251e-19)
(3.21525 1.93909 7.73019e-21)
(3.15326 1.96387 1.50675e-18)
(3.19246 1.77436 -1.23583e-18)
(3.06327 1.94384 -6.2234e-19)
(3.13217 1.59416 1.2749e-19)
(3.07893 1.70151 1.26747e-19)
(3.03847 1.4091 -1.70817e-18)
(2.9812 1.54643 -4.40998e-19)
(2.92861 1.23524 -7.09179e-19)
(2.89691 1.35742 -7.2682e-20)
(2.80976 1.07384 1.13671e-18)
(2.78981 1.18525 -6.25776e-19)
(2.67009 1.0442 8.98769e-20)
(2.63298 0.897299 2.50667e-19)
(1.4371 1.38194 -3.84557e-18)
(0.75705 0.690408 -5.36787e-18)
(2.47823 2.06704 1.27296e-19)
(2.09285 2.15134 -4.63052e-19)
(2.79122 2.16243 1.61063e-18)
(2.64983 2.02594 7.08455e-19)
(2.94513 2.15423 1.02147e-18)
(2.74936 2.3171 2.61482e-20)
(2.98059 2.01652 9.23035e-19)
(2.91145 2.02262 0)
(2.97096 1.86742 6.43437e-19)
(2.83416 2.02071 1.03269e-18)
(2.92966 1.6917 -3.77924e-19)
(2.87248 1.77528 -5.56231e-19)
(2.85803 1.50923 1.14209e-18)
(2.78805 1.63138 2.47268e-19)
(2.77242 1.33101 7.89314e-20)
(2.72919 1.4384 1.02613e-18)
(2.67558 1.16012 -1.80378e-18)
(2.64525 1.2596 -1.64382e-18)
(2.54785 1.10595 -2.9848e-19)
(2.51253 0.963615 1.02306e-18)
(1.22482 1.39126 -2.47014e-18)
(0.574189 0.706786 -2.73601e-18)
(2.24253 2.08115 0)
(1.85913 2.13586 -6.83257e-19)
(2.56122 2.19366 -8.21318e-19)
(2.40898 2.05543 0)
(2.71981 2.18872 -1.00866e-18)
(2.52558 2.32754 -1.8695e-19)
(2.75308 2.06239 0)
(2.67627 2.06653 0)
(2.75523 1.92561 0)
(2.61779 2.06056 7.12727e-19)
(2.72803 1.75261 8.28532e-20)
(2.66604 1.81897 0)
(2.67579 1.57328 3.87607e-20)
(2.59745 1.68053 8.35531e-19)
(2.61175 1.39213 -4.03628e-19)
(2.55945 1.4858 -7.20269e-20)
(2.53579 1.21363 -3.95665e-19)
(2.49704 1.30323 -1.29062e-18)
(2.41977 1.12793 1.2455e-18)
(2.39255 0.98655 -6.30182e-19)
(1.00166 1.3863 -1.15219e-18)
(0.369488 0.686127 3.65704e-18)
(1.99924 2.07229 -7.52665e-19)
(1.60672 2.0894 -2.69239e-18)
(2.32734 2.20168 6.55086e-19)
(2.16242 2.06038 1.85574e-18)
(2.4911 2.20262 8.04509e-19)
(2.3028 2.31265 -1.45812e-18)
(2.53153 2.08461 6.39207e-19)
(2.44232 2.08623 1.37533e-18)
(2.5451 1.95351 7.89245e-19)
(2.40952 2.06825 -7.18554e-19)
(2.52932 1.78229 6.5315e-19)
(2.4605 1.83675 0)
(2.49573 1.60498 8.10888e-19)
(2.41165 1.69702 7.32643e-19)
(2.45162 1.42162 -8.43067e-19)
(2.39156 1.5025 0)
(2.39448 1.23705 4.56004e-20)
(2.34946 1.3192 -6.73194e-20)
(2.29487 1.12842 7.01707e-19)
(2.28926 1.01279 -5.12197e-19)
(0.775692 1.35186 2.23964e-18)
(0.178336 0.657979 -8.78859e-19)
(1.75195 2.03712 -5.47208e-19)
(1.35294 2.02253 4.32792e-19)
(2.09059 2.18528 -8.88465e-20)
(1.9137 2.04231 1.85159e-18)
(2.26346 2.19159 -1.17796e-18)
(2.07764 2.27243 -2.18308e-18)
(2.3129 2.08353 1.95405e-19)
(2.21172 2.08144 1.33133e-19)
(2.33887 1.95369 -1.58737e-18)
(2.20545 2.04587 -1.86639e-18)
(2.33484 1.78344 0)
(2.25659 1.82847 1.48292e-18)
(2.32023 1.60685 0)
(2.23156 1.68274 -9.19842e-19)
(2.29573 1.42286 7.6529e-19)
(2.22938 1.49058 0)
(2.25805 1.23683 5.16623e-19)
(2.20888 1.30925 7.43935e-19)
(2.18187 1.11559 -2.76769e-19)
(2.18096 1.02499 -3.69258e-19)
(0.545916 1.29976 -2.72865e-18)
(-0.0132648 0.615054 -1.63598e-18)
(1.49775 1.97737 2.68044e-18)
(1.08874 1.93346 2.36603e-19)
(1.84899 2.14343 0)
(1.65625 2.00003 -1.41373e-18)
(2.03388 2.15654 -1.11418e-18)
(1.84647 2.20757 1.32373e-18)
(2.09458 2.05767 -1.7155e-18)
(1.98124 2.05226 -2.18778e-18)
(2.13465 1.92585 7.34497e-19)
(2.001 1.99446 6.64856e-20)
(2.14515 1.75632 7.5666e-19)
(2.05559 1.79225 1.72188e-18)
(2.15136 1.57999 -1.02145e-18)
(2.05815 1.63854 -6.75987e-19)
(2.1483 1.39738 -8.72816e-20)
(2.07648 1.451 5.25923e-20)
(2.13388 1.21328 8.53756e-20)
(2.07978 1.27328 -8.43792e-20)
(2.07912 1.08115 4.44283e-19)
(2.10069 1.02006 4.03326e-19)
(0.30155 1.22772 1.00231e-18)
(-0.215703 0.540341 4.17835e-18)
(1.22675 1.89057 -3.66541e-18)
(0.805834 1.8129 -2.36188e-18)
(1.59492 2.07383 -1.95494e-19)
(1.38263 1.92658 -2.73301e-18)
(1.79712 2.09477 6.1117e-19)
(1.60223 2.114 1.09672e-18)
(1.87465 2.00284 -5.64999e-19)
(1.74368 1.99357 -1.53646e-19)
(1.93098 1.86833 7.62369e-19)
(1.79184 1.91423 -1.07169e-20)
(1.96124 1.6996 4.72734e-19)
(1.85824 1.72458 4.82168e-19)
(1.9916 1.52442 2.56795e-19)
(1.8927 1.56407 1.473e-20)
(2.01311 1.34592 6.52886e-20)
(1.93606 1.38432 1.39847e-20)
(2.02353 1.1671 2.4043e-19)
(1.96526 1.21374 -2.63854e-19)
(1.99048 1.02934 4.41212e-20)
(2.01595 0.981124 -4.9607e-20)
(0.0350793 1.11994 -9.30187e-20)
(-0.428414 0.425963 8.45143e-19)
(0.931543 1.76515 -1.21768e-18)
(0.504431 1.65705 -1.95048e-19)
(1.32024 1.96861 -1.6731e-18)
(1.09022 1.81733 -1.20927e-18)
(1.54469 1.99992 4.59148e-19)
(1.33724 1.98674 -7.9985e-19)
(1.64645 1.91501 4.15067e-19)
(1.49191 1.89784 1.23421e-18)
(1.72551 1.77819 -3.40353e-19)
(1.57283 1.79949 -3.51592e-19)
(1.78396 1.61078 8.44506e-20)
(1.66376 1.61933 8.99543e-20)
(1.84356 1.43998 -2.1567e-19)
(1.73686 1.45791 -2.11616e-19)
(1.89307 1.2707 -2.46425e-19)
(1.8113 1.29175 -6.90579e-21)
(1.92845 1.10383 -4.27175e-19)
(1.86921 1.13534 -2.93025e-19)
(1.92144 0.970239 -1.05298e-19)
(1.95276 0.956968 -8.48459e-20)
(-0.26003 0.968801 0)
(-0.656488 0.254757 0)
(0.601435 1.59275 9.25191e-20)
(0.178034 1.46683 0)
(1.01291 1.81748 -3.89048e-19)
(0.76855 1.66628 7.33664e-19)
(1.26369 1.86202 -2.1388e-19)
(1.0383 1.81885 -1.02807e-18)
(1.39988 1.78488 6.24617e-19)
(1.21427 1.7526 4.28813e-19)
(1.51436 1.64735 4.7486e-20)
(1.33691 1.63663 1.67831e-19)
(1.61343 1.48564 -1.66953e-19)
(1.47056 1.46764 -1.65255e-19)
(1.7094 1.3267 2.84928e-20)
(1.59156 1.31797 0)
(1.79086 1.17418 5.43579e-20)
(1.70305 1.17475 3.20779e-20)
(1.854 1.02578 -4.21856e-21)
(1.79186 1.04015 -2.4015e-20)
(1.86864 0.899615 2.54344e-20)
(1.90263 0.898991 1.16009e-20)
(-0.593733 0.77594 0)
(-0.914821 0.0112395 1.16005e-18)
(0.219421 1.36673 4.50487e-19)
(-0.202798 1.23782 -2.98967e-19)
(0.652116 1.60297 -3.92036e-19)
(0.385622 1.45536 1.16335e-19)
(0.936013 1.65838 -5.17372e-19)
(0.678743 1.58894 -4.75887e-19)
(1.12102 1.58991 -9.8912e-21)
(0.889404 1.535 1.14216e-20)
(1.29068 1.45848 1.33026e-20)