/*--------------------------------*- C++ -*----------------------------------*\
| =========                 |                                                 |
| \\      /  F ield         | OpenFOAM: The Open Source CFD Toolbox           |
|  \\    /   O peration     | Version:  3.0.1                                 |
|   \\  /    A nd           | Web:      www.OpenFOAM.org                      |
|    \\/     M anipulation  |                                                 |
\*---------------------------------------------------------------------------*/
FoamFile
{
    version     2.0;
    format      ascii;
    class       volScalarField;
    location    "0.239009";
    object      epsilon;
}
// * * * * * * * * * * * * * * * * * * * * * * * * * * * * * * * * * * * * * //

dimensions      [0 2 -3 0 0 0 0];

internalField   nonuniform List<scalar> 
21246
(
188.842
76.8589
17.7408
3.98051
1.28772
0.680864
0.492025
0.408536
0.357058
0.313933
0.269341
311.176
166.95
17.7497
5.23001
1.53422
0.748652
0.489647
0.37924
0.314988
0.2656
0.22062
403.178
212.835
20
6.79086
1.70893
0.827728
0.502116
0.367005
0.289566
0.232535
0.181327
453.239
201.555
22.4053
7.58905
1.76374
0.895159
0.515418
0.362717
0.275176
0.212504
0.158465
472.72
182.468
23.6308
7.54324
1.78266
0.939669
0.522611
0.362163
0.267879
0.201947
0.147569
474.936
172.386
24.3238
7.22963
1.80662
0.96166
0.525381
0.363484
0.264801
0.197364
0.143491
462.542
170.443
25.0548
6.95615
1.84543
0.968893
0.527516
0.365831
0.264371
0.196222
0.141614
437.704
170.981
26.5053
6.81175
1.89939
0.968564
0.531598
0.368895
0.265935
0.19768
0.143674
407.049
172.213
29.4046
7.19193
1.97903
0.968672
0.539694
0.372891
0.269291
0.201005
0.146967
374.234
175.854
35.0143
8.40204
2.24809
1.00305
0.557699
0.378768
0.274526
0.205971
0.151786
338.082
181.567
42.6394
10.5956
2.79472
1.10222
0.592276
0.391016
0.283181
0.213198
0.158644
300.188
188.634
51.0107
13.6216
3.67556
1.30372
0.651159
0.410979
0.294963
0.222109
0.167289
263.852
196.598
60.7349
17.7607
5.08227
1.6921
0.761676
0.446482
0.311797
0.233329
0.177292
229.596
205.564
72.9337
23.6198
7.3481
2.42675
0.985715
0.517447
0.339614
0.248647
0.189191
198.13
216.441
86.816
31.0527
10.5952
3.65519
1.41195
0.661439
0.39198
0.272522
0.204444
171.135
229.369
103.464
40.6765
15.2054
5.62854
2.1916
0.954199
0.501526
0.317429
0.227561
149.72
243.788
124.506
53.8219
21.9428
8.79096
3.58668
1.53998
0.740047
0.41569
0.271897
136.781
261.891
151.087
71.7413
31.7373
13.7488
5.98591
2.65902
1.24578
0.640117
0.372721
136.224
284.396
185.309
97.0143
46.5017
21.7166
10.1355
4.76695
2.29252
1.14962
0.617794
152.191
308.698
227.676
133.252
69.745
35.1734
17.6215
8.84518
4.47812
2.30347
1.21875
184.718
326.506
272.149
182.405
106.705
58.9579
31.9622
17.2308
9.28639
5.0188
2.73179
235.835
327.606
303.594
237.658
160.944
100.523
60.2867
35.4133
20.5646
11.8598
6.7997
271.809
318.526
292.673
258.92
207.665
152.762
105.343
69.5347
44.5856
28.0636
17.3195
590.673
334.27
293.763
252.909
205.012
161.354
123.097
91.1252
65.6115
46.1692
31.6258
157.472
65.4026
17.5761
3.75437
1.22218
0.687677
0.530035
0.465591
0.43019
0.404059
0.378967
261.62
95.8925
12.5446
3.69003
1.43859
0.822601
0.612487
0.530649
0.492162
0.469626
0.451988
320.713
117
11.3044
4.08295
1.61629
0.982882
0.758359
0.673597
0.63864
0.621438
0.609073
336.076
105.061
10.7186
4.30019
1.67479
1.05198
0.823622
0.749768
0.736211
0.749953
0.777219
329.14
84.8891
10.1107
4.17528
1.65456
1.08009
0.852768
0.783965
0.779643
0.808464
0.856416
316.588
68.615
9.42318
3.87854
1.60434
1.08461
0.860594
0.79545
0.797485
0.841913
0.921658
303.868
57.1186
8.74829
3.56072
1.54836
1.0767
0.855047
0.791683
0.792342
0.837197
0.91946
290.392
48.8315
8.10353
3.27615
1.49333
1.05827
0.841676
0.776991
0.769536
0.801759
0.863196
280.059
42.749
7.54285
3.03925
1.4473
1.03258
0.823868
0.754459
0.735705
0.750893
0.789002
274.057
38.3683
7.08451
2.85453
1.41405
1.00558
0.803196
0.726983
0.69594
0.693112
0.706154
273.235
35.4738
6.7602
2.7244
1.39205
0.981896
0.781871
0.697537
0.654547
0.635324
0.62611
275.468
33.5275
6.52639
2.63595
1.37967
0.962409
0.761726
0.66861
0.614828
0.582224
0.557363
279.888
33.4659
6.49186
2.60483
1.38437
0.949974
0.745568
0.642478
0.579305
0.536326
0.501945
285.843
36.104
7.07416
2.69518
1.43065
0.953893
0.738327
0.622108
0.550004
0.498707
0.458789
293.952
40.0633
8.18263
2.93407
1.52539
0.980393
0.742609
0.609937
0.528294
0.469993
0.426594
305.059
45.7577
10.0266
3.42232
1.70296
1.04479
0.765266
0.61013
0.51636
0.450982
0.404468
320.087
53.6828
12.9383
4.34421
2.04223
1.18105
0.822107
0.630842
0.518608
0.443699
0.392634
340.955
64.1761
17.2494
5.96741
2.69372
1.46364
0.950682
0.69136
0.545542
0.453728
0.393383
370.671
78.1473
23.5427
8.72036
3.94003
2.05782
1.24458
0.843878
0.627092
0.49849
0.417558
414.178
97.5582
32.9342
13.3568
6.31145
3.31896
1.93378
1.23341
0.8545
0.636118
0.503455
481.215
126.247
47.6771
21.3516
10.8479
5.99674
3.55705
2.24274
1.49797
1.05789
0.788506
593.424
173.064
73.0608
36.1445
19.9006
11.7733
7.35873
4.81052
3.27409
2.317
1.7058
807.428
273.984
129.674
70.2324
41.5647
26.1522
17.2219
11.7608
8.29011
6.02178
4.50574
1064.08
506.103
287.263
180.154
122.292
88.1032
66.3333
51.4822
40.6833
32.4338
25.7915
1201.68
491.529
148.415
53.3884
18.1843
6.33779
2.59215
1.35385
0.88673
0.67468
0.563102
1368.46
660.62
253.254
94.4538
29.8085
9.28679
3.41718
1.62776
0.999342
0.738773
0.612788
1152.58
597.622
293.947
127.919
47.9667
15.16
4.61312
1.97761
1.14402
0.822077
0.684398
795.969
500.765
294.051
146.583
63.1837
22.7543
7.06916
2.4506
1.30752
0.913849
0.760949
487.044
409.37
277.895
157.175
76.4065
31.199
10.7349
3.56227
1.56197
1.01443
0.83684
274.016
328.783
254.92
163.09
88.8164
40.8473
15.8557
5.53782
2.15228
1.18745
0.917606
141.399
258.827
229.859
164.319
99.5048
51.2027
22.4494
8.65177
3.29445
1.54892
1.04717
76.9451
207.421
206.93
161.525
107.159
61.0488
29.992
12.9383
5.2096
2.2643
1.29668
68.8606
169.438
187.596
156.552
111.902
69.5429
37.7938
18.1856
8.01215
3.51209
1.78572
65.8105
128.269
167.313
151.173
115.082
76.7154
45.3662
24.0534
11.6671
5.42387
2.65558
51.1962
80.879
136.656
143.003
117.03
82.6793
52.3017
30.0648
15.9325
7.99885
4.01396
36.3761
45.9881
97.1861
126.079
115.514
86.8868
58.132
35.6759
20.3988
11.0637
5.87059
26.0441
27.6259
61.1734
99.1043
107.148
87.8943
62.2235
40.3691
24.6128
14.3233
8.10871
19.3167
17.2733
35.6936
68.629
90.5954
83.7736
63.5195
43.4915
28.0643
17.3963
10.4887
15.4904
11.9586
20.9664
43.3471
69.2802
74.0009
61.0431
44.294
30.1803
19.8306
12.694
13.5042
9.37133
13.6415
26.4589
48.3445
60.2738
54.7715
42.4114
30.5735
21.2628
14.3708
12.2845
7.88788
9.83707
16.6893
31.1103
45.2076
45.6821
38.0037
29.1118
21.4405
15.2284
11.4511
6.92682
7.55504
11.5171
19.5568
30.9128
35.4075
31.775
25.9848
20.2732
15.0952
11.117
6.38226
6.07923
8.39515
12.9209
19.8086
25.3374
24.7971
21.7073
17.9901
13.9758
11.5286
6.28832
5.21537
6.46177
8.97617
12.8252
16.9158
18.1602
16.994
15.0074
12.2276
12.623
6.41916
4.80342
5.35713
6.73358
8.83212
11.3001
12.7896
12.6407
11.8848
10.3246
14.1095
7.04608
4.86646
5.09631
5.917
7.13938
8.47192
9.40555
9.55067
9.33011
8.52774
19.2255
9.88626
7.72853
7.65431
7.86864
8.20569
8.46605
8.54311
8.32551
7.90872
7.09341
82.1875
56.1631
32.1986
22.1101
16.7362
13.3861
11.2821
9.8477
8.63663
7.47263
6.40025
1214.4
296.092
114.484
39.553
13.4285
4.97027
2.19866
1.22225
0.827392
0.634339
0.521496
935.521
242.109
94.0129
36.961
13.6958
5.27767
2.33295
1.27188
0.845598
0.640056
0.518734
775.665
232.854
88.5863
38.5388
15.6954
6.17913
2.64774
1.38183
0.892538
0.669111
0.543315
616.409
202.008
78.5508
36.8783
16.3984
6.90657
3.0203
1.5365
0.958051
0.704426
0.569979
495.391
165.447
68.2732
33.4183
15.4748
6.90468
3.17516
1.65557
1.03305
0.755684
0.614172
409.607
135.457
59.4661
30.2849
14.5951
6.79077
3.23045
1.71647
1.07357
0.784835
0.646096
347.299
113.144
52.496
27.6696
13.8484
6.74849
3.35785
1.83431
1.14683
0.823231
0.668563
300.246
96.57
47.0631
25.6606
13.3517
6.83846
3.5835
2.03016
1.27448
0.89259
0.702621
265.386
84.3407
42.9766
24.2787
13.1754
7.12408
3.95436
2.34079
1.48582
1.01025
0.750305
239.032
75.1906
40.0305
23.4351
13.3387
7.63885
4.50669
2.80515
1.81844
1.209
0.840282
218.63
68.5735
37.9626
23.0733
13.8413
8.40113
5.27804
3.47128
2.32602
1.54189
1.02171
201.688
63.3541
36.4421
23.0698
14.6041
9.39661
6.28597
4.38086
3.06618
2.06783
1.33313
187.555
59.4233
35.364
23.3395
15.575
10.6026
7.52873
5.5579
4.09057
2.85438
1.85292
175.234
56.9217
34.7203
23.8022
16.6999
11.9862
8.97515
6.97642
5.40646
3.96558
2.67111
164.019
54.8295
34.1443
24.2172
17.7733
13.3719
10.4708
8.49001
6.87841
5.30725
3.75819
153.508
52.8863
33.4912
24.4418
18.6343
14.5884
11.8447
9.93005
8.34172
6.7308
5.01336
143.31
50.9106
32.6239
24.3438
19.134
15.4688
12.9238
11.1178
9.61061
8.04475
6.28623
133.569
48.6397
31.3943
23.8027
19.1496
15.8779
13.5665
11.9044
10.5212
9.07085
7.39326
124.71
46.074
29.7678
22.7855
18.643
15.7658
13.7113
12.215
10.9777
9.68741
8.17425
117.775
43.5325
27.9052
21.4041
17.7045
15.1986
13.4007
12.0665
10.9629
9.84576
8.54581
114.799
41.6938
26.1898
19.9449
16.5679
14.3644
12.7769
11.5588
10.5392
9.56152
8.50485
119.834
41.8167
25.3352
18.9176
15.6337
13.5815
12.0875
10.8824
9.85489
8.94463
8.06703
143.064
46.7503
26.7555
19.2715
15.671
13.5201
11.8922
10.4618
9.19975
8.16579
7.33812
238.578
60.2759
35.6227
26.5557
21.8678
18.3544
15.0702
12.0517
9.58624
7.82845
6.70231
902.805
292.673
136.221
64.863
28.5119
11.2024
4.1127
1.48957
0.543449
0.203224
0.0824721
758.79
212.423
109.827
55.5168
25.3399
10.4321
3.97714
1.45271
0.523787
0.192728
0.0772913
505.722
174.733
95.4942
52.4802
25.6683
11.0765
4.32231
1.57816
0.556792
0.19806
0.0775948
351.418
142.964
84.3169
49.3998
25.7
11.663
4.71253
1.7609
0.629912
0.22414
0.0861605
254.117
107.026
67.5063
43.8755
25.1296
12.3105
5.2208
2.00148
0.723078
0.253611
0.0918439
204.245
85.38
54.814
36.8064
22.2671
11.6036
5.18873
2.05432
0.75282
0.267617
0.100825
174.431
71.2224
46.2134
31.3791
19.2361
10.2484
4.73825
1.95335
0.743361
0.271389
0.102854
154.247
61.5375
39.8935
27.1619
16.8055
9.08759
4.2922
1.81783
0.712567
0.268162
0.107544
139.617
54.3957
35.0588
23.8394
14.8015
8.07428
3.87255
1.67716
0.676457
0.262812
0.108228
128.371
48.9943
31.3538
21.2785
13.2327
7.25987
3.52131
1.552
0.64077
0.255114
0.105673
119.231
44.7375
28.4596
19.2936
12.0186
6.62529
3.242
1.44823
0.608281
0.246252
0.104315
112.437
41.2888
26.1344
17.7132
11.0597
6.12728
3.02278
1.36565
0.581481
0.238665
0.10224
107.743
38.5597
24.2914
16.4788
10.3261
5.75484
2.86209
1.30631
0.562925
0.234063
0.102226
104.294
36.5115
22.8918
15.5699
9.81096
5.50754
2.76212
1.27227
0.553794
0.232774
0.103833
102.648
34.9526
21.8169
14.9023
9.46464
5.36376
2.71631
1.26268
0.554357
0.234853
0.10482
102.779
33.8598
21.0487
14.4683
9.2892
5.32985
2.73042
1.28105
0.56628
0.24075
0.107117
104.379
33.2981
20.6161
14.2967
9.31482
5.43062
2.82027
1.33525
0.592757
0.251544
0.111014
108.453
33.352
20.5333
14.3915
9.55764
5.68881
3.00465
1.43625
0.638983
0.269425
0.117135
115.99
34.4684
20.9593
14.8237
10.0894
6.1819
3.34093
1.61047
0.715918
0.299147
0.127899
128.527
37.0156
22.0569
15.6535
10.9256
6.9324
3.87781
1.92027
0.865227
0.362649
0.152394
149.319
41.8383
24.1619
17.0485
12.1502
7.99496
4.67161
2.41859
1.13353
0.491439
0.207969
187.004
49.9744
27.7742
19.1888
13.8243
9.40486
5.77981
3.18809
1.60266
0.747784
0.334414
256.181
61.3829
32.8267
22.3842
16.1877
11.3344
7.35104
4.38054
2.42075
1.25655
0.623488
439.707
68.4877
40.885
25.8577
19.3028
14.2104
9.91349
6.49371
4.01208
2.35725
1.33423
888.512
479.247
243.605
121.367
56.7227
20.4759
6.57106
2.17856
0.741246
0.264362
0.102909
841.026
498.999
322.209
190.725
103.985
48.8241
18.8698
5.2456
1.28148
0.40908
0.148841
348.843
433.348
337.039
230.576
143.268
78.748
36.8697
13.441
3.46314
0.72783
0.239031
289.743
331.441
333.282
254.154
173.307
105.827
56.5485
25.0644
8.45085
2.03354
0.434189
299.665
241.238
318.3
282.189
203.842
132.168
76.791
38.6876
15.9182
4.95148
1.17221
287.852
196.983
265.081
316.374
250.699
166.986
100.494
54.3528
25.3926
9.61541
2.83775
277.036
172.649
210.208
298.315
305.406
218.685
133.59
74.0684
36.9834
15.898
5.61374
269.79
155.502
175.429
249.278
323.407
277.606
179.22
100.62
51.53
23.7408
9.47955
266.567
141.532
149.254
205.107
290.686
316.814
231.489
134.879
69.9168
33.2507
14.3042
267.026
130.347
128.966
170.304
244.381
315.053
273.354
171.776
91.1716
44.1532
19.8279
271.019
121.458
113.481
141.884
200.288
278.845
290.175
201.916
111.676
55.1792
25.5469
278.081
116.999
102.834
119.545
163.241
235.492
280.992
217.09
126.129
64.0147
30.5357
289.424
115.214
95.8375
103.159
133.599
192.436
250.148
214.676
130.455
68.3448
33.723
305.545
116.958
92.3311
92.1641
111.269
154.001
211.023
198.197
123.984
67.1639
34.6445
328.244
123.469
91.9448
85.2914
95.3439
121.528
161.584
174.937
109.046
61.1182
33.5669
357.99
133.644
93.5788
79.717
81.4993
95.3452
116.302
131.917
95.5884
52.846
31.3019
398.534
149.178
98.419
76.2273
70.0377
74.5311
83.9888
90.9272
79.1749
47.9361
28.6573
457.163
173.058
108.947
77.0626
63.55
61.8323
65.4222
68.8921
65.6728
47.0779
27.9248
547.966
210.545
130.22
86.344
65.2282
59.1847
60.2152
62.6311
61.4202
51.1896
30.7195
700.056
274.64
177.206
116.504
84.5396
74.2473
75.566
78.3474
75.522
63.5692
39.228
937.259
388.555
287.699
212.262
161.535
143.099
133.111
122.842
106.049
78.2569
49.5017
1165.82
481.935
382.539
309.533
227.629
168.187
131.938
98.9029
71.4593
49.2784
32.2419
994.818
474.915
360.009
256.685
181.271
125.576
86.5805
58.6244
38.813
25.063
15.6399
822.08
413.922
239.091
148.316
95.6879
62.6676
40.8954
26.2005
16.3244
9.83968
5.72353
65.2355
65.1954
63.7082
58.6536
51.1901
39.0437
21.1776
5.94454
3.72724
20.9372
20.0851
19.6658
19.1078
19.5462
18.6235
13.9925
7.15309
3.02171
11.4632
10.7667
10.1821
10.1949
11.4793
12.8273
11.4303
6.78979
3.19303
6.34052
6.06187
5.79278
6.10808
7.19105
8.7955
8.99711
6.0731
3.19648
68.0246
73.782
70.565
62.1761
52.0421
37.6866
18.0545
5.71789
3.86915
22.9031
23.9816
23.641
22.7368
22.6984
20.9883
16.5882
7.48039
2.52344
12.576
12.9478
12.2829
12.2476
13.927
15.3926
14.8079
8.21115
2.86283
7.13132
7.58591
7.17164
7.32862
8.67625
10.5952
11.84
8.18405
3.21844
0.00901451
0.00829513
0.00834922
0.0405507
0.212041
0.00754456
0.13776
0.00810648
0.00751654
0.006919
0.224719
0.00814144
0.0084959
0.00572379
0.0146109
0.00728428
0.00558334
0.0385924
0.00724844
0.00710416
0.00661938
0.0620857
0.00851941
0.026187
0.00792135
0.00572168
0.00818834
0.128334
0.760976
0.113545
0.00576004
0.00633867
0.00607225
0.00807034
0.00671095
0.00826345
0.0254884
0.00790442
0.00635394
0.00756943
0.13911
0.00810192
0.0136785
0.00849474
0.769471
0.324439
0.013119
0.488474
0.00684687
0.00736813
0.0968489
0.0075902
0.0135752
0.0139517
0.0073466
0.00664883
0.0592725
0.00761042
0.768538
0.0171084
0.0722173
0.0131938
0.302466
0.29964
0.173506
0.0071444
0.095967
0.00730588
0.00829652
0.00691007
0.00617508
0.00713245
0.038893
0.00770948
0.0397275
0.0070825
0.0717885
0.00828257
0.250175
1.24196
0.0232256
0.317399
0.00793333
0.00838187
0.00669804
0.0392355
1.5295
0.0120502
0.058314
0.0216201
0.00809252
0.00764793
0.157126
0.0073649
1.18891
0.941845
0.0289976
0.0060118
0.0646824
0.0072725
0.00749631
0.344482
0.00678334
0.00600855
0.0496827
0.00812558
0.00540671
0.00845335
0.00613957
0.00659077
0.00797534
0.00815366
0.00720951
0.0478729
0.0349041
0.00768922
0.00752389
0.00732262
0.00794455
0.0067195
0.0468754
0.00754824
0.00900387
0.00548503
0.250115
0.00734335
0.0132769
0.00556276
0.00524653
0.00559417
0.00778334
0.0174063
0.407975
0.00708571
0.00833928
0.00750996
0.0510675
0.279476
0.12557
0.00725096
0.0127207
0.0065718
0.298365
0.00868708
0.00749697
0.0306664
0.0116991
0.00728184
0.00707427
0.00708692
0.00720203
0.00766665
0.0395849
0.00751808
0.0496056
0.00996839
0.0399781
0.0415132
0.00649457
0.00747532
0.00569094
0.076209
0.00712134
0.00771283
0.114485
0.00970103
0.0563634
0.00684953
0.00685732
0.169584
0.00576813
0.00627788
0.00769072
0.006436
0.0063348
0.00635421
0.00688079
0.0412542
0.791424
0.00692297
0.00727933
0.0593235
0.00849942
0.0612143
0.00795832
0.187905
0.00712909
0.00727544
0.0082529
0.285898
0.00621934
0.00582701
0.00718906
0.136924
0.00832477
0.00760279
0.00742783
0.0646716
0.00569559
0.00856741
0.0215201
0.00735601
0.00681684
0.00592941
0.00838646
0.0118155
0.00734787
0.00522875
0.007404
0.00740709
0.0207678
0.00758999
0.00827604
0.00664472
0.00791652
0.018542
0.00798135
0.0205261
0.00719908
0.00978189
0.0065813
0.0395189
0.0300737
0.0357959
0.00546386
0.00762717
0.0448045
0.00856858
0.00588959
0.36558
0.0457553
0.00713608
0.00718009
0.00752059
0.0381657
1.58709
0.0634052
0.00845246
0.00815714
0.00811566
0.0200975
0.150146
0.00597143
0.128246
0.00791714
0.0768877
0.00800838
0.00597368
0.500438
0.0268386
0.00597018
0.0217882
0.00999747
0.00727727
0.00596683
0.00745556
0.0067166
0.00785585
0.0170465
0.00710531
0.00927291
0.00827221
0.00738138
0.00820314
0.00796798
0.0135091
0.00655982
0.00842483
0.0178202
0.00696753
0.136038
0.00732289
0.00733229
0.0129093
0.00756829
0.00736309
0.00553187
0.00776564
0.0068498
0.058893
0.00720437
0.0082852
0.0241769
0.0571557
0.00598001
0.00759199
1.22585
0.00825329
0.0067614
0.0116826
0.0083488
0.126802
0.00682677
0.00715681
0.00856601
0.00742444
0.00682558
0.00817055
0.00671463
0.00556746
0.00776507
0.0436304
0.00701091
0.120322
0.00675641
0.00658815
0.00828604
0.00761225
0.0572886
0.00743182
0.088825
0.00816809
0.00641615
0.00598817
0.0803148
0.00652443
0.00689658
0.0609782
0.00669846
0.0075432
0.0071152
0.0139336
0.00746029
0.00650191
0.324549
0.0067417
0.00778342
0.00623877
0.00709034
0.0290541
0.00749883
0.315415
0.0716533
0.00846267
0.00972522
0.977429
0.0392505
0.00824507
0.00785559
0.00592445
0.0210745
0.0224514
0.00733423
0.00998068
0.111908
0.00776799
0.0231154
0.00753157
0.0216363
0.0159962
0.122684
0.00580861
0.00702793
0.00681634
0.0136803
0.0086027
0.00663703
0.00693831
0.00849913
0.0307825
0.00989186
0.00578019
0.00800712
0.00798918
0.00727843
0.0553358
0.00599589
0.00879524
0.159881
0.00754573
0.00774238
0.0667529
0.726644
0.0057098
0.0131317
0.00832054
0.00905567
0.00665526
0.0075293
0.00711199
0.031887
0.00755743
0.0255514
0.00765139
0.00580322
0.0901268
0.0380687
0.00546711
0.139905
0.0648849
0.00770177
0.0598406
0.00544299
0.00768374
0.0899584
0.176565
0.00787381
0.00722543
0.00835922
0.0207069
0.0169799
0.00764491
0.00850507
0.0115293
0.00596075
0.18244
0.175684
0.00753861
0.00735017
0.0135198
0.00690269
0.007201
0.00643512
0.00628826
0.0439636
0.00636314
0.0063188
0.00800827
0.00593413
0.0658351
0.109606
0.00731002
0.175234
0.00569993
0.00620595
0.0065701
0.00763474
0.0271469
0.00757038
0.200678
0.00789946
0.0256946
0.00588266
0.00661724
0.00667428
0.00745021
0.0347481
0.112475
0.005493
0.00859996
0.00576744
1.60821
0.0333943
0.0399839
0.0068515
0.00890027
0.0157922
0.0311447
0.00742389
0.0517216
0.00774439
0.00833724
0.00794291
0.0792753
0.0137118
0.173664
0.00577294
0.0230866
0.0259694
0.00825951
0.00740996
0.01387
0.00616842
0.00593866
0.00695508
0.134943
0.110554
0.0902244
0.0916648
0.00745273
0.00651895
0.0413967
0.00699938
0.0723817
0.00687924
0.00824325
0.00734941
0.0347677
0.0420456
0.00715031
0.00777837
0.0066684
0.298575
0.0596364
0.00845379
0.0289684
0.44255
0.00942708
0.00803959
0.00741165
0.0211826
0.00759588
0.0069104
0.00761077
0.00533581
0.00745085
0.00715582
0.00630341
0.00853846
0.00819612
0.00591507
0.00623989
0.00808186
0.00806576
0.575132
0.00783129
0.0366265
0.00752648
0.283192
0.00835775
0.0457226
0.0170322
0.0685044
0.00887887
0.00762842
0.0783334
0.0179898
0.00627744
0.00778594
0.00660416
0.00666144
0.00827899
0.00769373
0.0081959
0.00672853
0.0327214
0.00800826
0.00745552
0.0229961
0.00773612
0.177697
0.00684324
0.00698945
0.00666232
0.0567614
0.00856524
0.00786394
0.00840801
0.137968
0.0424079
0.00795389
0.00790824
0.00547576
0.0083429
0.0304763
0.00830826
0.0212898
0.00675169
0.0472502
0.0066473
0.00869863
0.39919
0.0514575
0.00678769
0.0065427
0.00704802
0.00831217
0.00738215
0.0308224
0.00721214
0.00604605
0.387757
1.12484
0.0079166
0.00735469
0.00827753
0.0159923
0.0654921
0.0188237
0.008093
0.00750417
0.0544668
0.00724749
0.0069107
0.0053457
0.00761071
0.223079
0.00770848
0.0206649
0.00781932
0.0161992
0.00737747
0.0378585
0.00715964
0.00635246
0.0877423
0.0113352
0.00841695
0.00854666
1.14781
0.00763188
0.00666122
0.104282
0.018406
0.0171828
0.0207308
0.00720471
0.00689042
0.00773463
0.00792108
0.77324
0.0131491
0.0132762
0.00711294
0.00794789
0.140054
0.00707766
0.00751625
0.00682519
0.00706217
0.00701454
0.0105213
0.017807
0.0182078
0.00617525
0.0107258
0.00725331
0.0153078
0.00704788
0.00779572
0.56201
0.0276797
0.00755062
0.00757163
0.0487776
0.00674668
0.00739123
0.0193642
0.0083111
0.0066735
0.00889259
0.00694633
0.00829116
0.00550242
0.0068389
0.113293
0.0102059
0.0278671
0.0101314
0.0071394
0.0586324
0.0438869
0.00954295
0.00836467
0.00678682
0.317892
0.00602436
0.00697522
0.00684565
0.0059025
0.0128265
0.454089
0.00642402
0.0113368
0.00768878
0.0122433
0.00811851
0.00725465
0.00688608
0.0113037
0.00698215
0.00767101
0.00686393
0.00826579
0.1109
0.0542314
0.372615
0.00704706
0.0070505
0.00753854
0.0101586
0.00745846
0.199649
0.00715598
0.0565127
0.00967161
0.00770524
0.00717247
0.00849868
0.00607031
0.194829
0.00700503
0.469059
0.00571311
0.00645625
0.00841793
0.0125636
0.00619739
0.0743737
0.0143821
0.00750406
0.00637852
0.00840464
0.00789498
0.00692493
0.0221507
0.00813802
0.00760692
0.00761959
0.00816737
0.0130734
0.00816104
0.00865309
0.00751026
0.00809032
0.0065363
0.00645545
0.135885
0.123524
0.00695837
0.00632649
0.00662949
0.00772877
0.011927
0.00590734
0.151793
0.00784056
0.00644636
0.0079177
0.00744114
0.0824108
0.00699677
0.0221853
0.00571646
0.00725271
0.00666256
0.00669289
0.0213077
0.00824086
0.0145031
0.0104972
0.0219369
0.00656425
0.0102614
0.0142827
0.0174538
0.0074692
0.00798904
0.0447686
0.05229
0.00803875
0.00579368
0.390633
0.00811428
0.17283
0.0102013
0.00789764
0.0532159
0.00753201
0.00695328
0.00677605
0.00887886
0.00722673
0.00578155
0.00818992
0.00609163
0.00707345
0.00697396
0.00792823
0.0266672
0.00588411
0.00723621
0.0340296
0.260398
0.00781803
0.00561033
0.00709022
0.00983713
0.0099451
0.0422518
0.00683826
0.0339339
0.0066648
0.00870893
0.00722638
0.00666947
0.00765353
0.0231178
0.0541955
0.00860671
0.00790618
0.00717724
0.46376
0.0169125
0.00718225
0.00821011
0.00655784
0.00692682
0.00814101
0.00821962
0.00837548
0.00788387
0.00785989
0.00673073
0.0587708
0.0541701
0.00569761
0.0065549
0.00769933
0.00794415
0.00671373
0.0440184
0.00827399
0.00618645
0.00872323
0.265487
0.0270079
0.0352464
0.00776662
0.0316646
0.00771117
0.00782182
0.216075
0.00714884
0.00817441
0.0068818
0.00654831
0.00580324
0.00575304
0.00813805
0.0116373
0.149026
0.0415856
0.00816965
0.00523703
0.00930418
0.0134275
0.0365135
0.00843142
0.00720507
0.0368571
0.0099503
0.00962084
0.00829468
0.00686514
0.00776455
0.00736136
0.00825848
0.0211693
0.00746678
0.169963
0.2312
0.0109151
0.00811268
0.194988
0.00853305
0.00714921
0.00918413
0.00790574
0.00766256
0.00766029
0.0503065
0.0146601
0.0100728
0.0076521
0.0307243
0.00768521
0.00859893
0.0073595
0.00755956
0.00684418
0.00793231
0.00814836
0.00731586
1.57819
0.00753754
0.00713121
0.00698808
0.21727
0.00720746
0.0079696
0.296299
1.51319
0.00706767
0.0072333
0.00809776
0.0348007
0.00846393
0.00808441
0.00672289
0.00860782
0.00950385
0.00828348
0.0218252
0.0071883
0.0105588
0.00653002
0.00821964
0.00603005
0.0288563
0.00774877
0.00750283
0.0075762
0.00831847
0.00596242
0.189624
0.00675245
0.00940812
0.017934
0.0101801
0.00599632
0.114206
0.00851055
0.00815126
0.00623344
0.00621813
0.00601406
0.00759297
0.164226
0.00722152
0.00940956
0.00732074
0.0055614
0.00628111
0.058048
0.00591412
0.00692614
0.00804114
0.0519888
0.0535312
0.0128201
0.00652418
0.00780201
0.00672433
0.00776899
0.0183141
0.00753844
0.00830236
0.00667332
0.188264
0.266477
0.0291464
0.00536995
0.00576827
0.0182326
0.603214
0.00801648
0.0067598
0.0152634
0.00760005
0.0193811
0.00793086
0.0173335
0.00662502
0.00748176
0.00830763
0.00847204
0.00844739
0.0076242
0.00638528
0.0633552
0.00714513
0.00781035
0.00730785
0.00832559
0.00707412
0.0698161
0.00719048
0.00684816
0.172812
0.0190697
0.0462711
0.00832724
0.00772808
0.00622318
0.0082844
0.0258033
0.00641456
0.0170884
0.0905648
0.0060505
0.0113239
0.00650139
0.0074152
0.0173176
0.0073778
0.00706994
0.00829006
0.008132
1.52437
0.00646691
0.990275
0.00812791
0.0211045
0.147782
0.146994
0.00880954
0.00631611
0.00855546
0.00520726
0.312371
0.00816168
0.00891202
0.0247939
0.0336538
0.0436389
0.0061929
0.00779043
0.00737102
0.054442
0.00690364
0.157931
0.00749771
0.00685932
0.0732531
0.00829026
0.0152345
0.0612666
0.0293545
0.0166539
0.00898534
0.00757857
0.0126566
0.00552401
0.00810153
0.00770082
0.00856604
0.0385169
0.00654695
0.00831948
0.00593124
0.00974469
0.00562649
0.00803049
0.110623
0.0107313
0.00688465
0.00758641
0.00813955
0.00702637
0.00726701
0.21898
0.00747429
0.0148985
0.00612039
0.0646038
0.00796928
0.00694599
0.00796085
0.00753096
0.0396765
0.053185
0.0122888
0.711557
0.20775
0.611183
0.0068464
0.00693265
0.0465126
0.00839067
0.0070597
0.0150185
0.00682222
0.0774859
0.00585419
0.0703538
0.00684959
0.00544215
0.00812057
0.0538673
0.00862352
0.537904
0.0068544
0.00783917
0.0625058
0.0178031
0.00672416
0.00893438
0.00942148
0.054715
0.0275899
0.019843
0.28087
0.00555045
0.0552725
0.311715
0.00820545
0.00832633
0.00664947
0.00810251
0.00614086
0.00632555
0.151732
0.00770344
0.0114614
0.707784
0.0075239
0.00728478
0.00679115
0.00819795
0.00714671
0.00654651
0.00696418
0.00668067
0.0996295
0.00771736
0.506514
0.086948
0.00719333
0.105896
0.0484428
0.013233
0.00738228
0.00982706
0.00768162
0.00803804
0.0785992
0.00752008
0.00824296
0.00619167
0.00809852
0.00763877
0.0665599
0.00758809
0.737688
0.0139373
0.0396573
0.0072382
0.0135815
0.0145466
0.00600986
0.235902
0.00776186
0.00753171
0.0267227
0.00619833
0.00714209
0.0304137
0.00667683
0.0074725
0.2255
0.00913008
0.00641574
0.00734385
0.0379544
0.00692432
0.00990761
0.065274
0.0909723
0.00711359
0.00860383
0.00796691
0.00614109
0.00621897
0.00565884
0.0288798
1.18098
0.00776868
0.0238855
0.0280478
0.0082049
0.0525303
0.00709428
0.00705651
0.861978
0.039274
0.308496
0.39336
0.0081689
0.00793131
0.0222099
0.286241
0.0203928
0.299188
0.00575242
0.00817517
0.00722211
0.00604773
0.0131845
0.046513
0.0069475
0.00739242
0.0289813
0.0148974
0.0447129
0.0067645
0.0208773
0.46887
0.00633479
0.00557682
0.00728336
0.00709791
0.307059
0.00572272
0.00632083
0.0151258
0.00771144
0.00636494
0.130882
0.0966049
0.00800432
0.269799
0.0205526
0.00750058
0.212031
0.23983
0.00836574
0.00531275
0.00937957
0.00659326
0.0238669
0.00806696
0.00768886
0.0069894
0.125837
0.00679546
0.00745633
0.0187123
0.00834143
0.0081531
0.00859551
0.00551718
0.0077051
0.0110707
0.0131293
0.00814832
0.167415
0.0713177
0.00600318
0.0425255
0.00660793
0.00593482
0.031464
0.00803795
0.00817045
0.00789339
0.0063118
0.00793681
0.00721367
0.00710096
0.0389351
0.017709
0.0059085
0.00841517
0.0068423
0.250463
0.01305
0.00855506
0.00696363
0.0158823
0.00597285
0.0067364
0.00710097
0.00664489
0.00682517
0.00796791
0.0714884
0.00955043
0.0240586
0.0248046
0.00859361
0.00700363
0.016531
0.0144964
0.00870871
0.00759434
0.0337006
0.0167842
0.108543
0.00545046
0.00596035
0.0497487
0.00594913
0.00795282
1.03277
0.0057248
0.00672256
0.0346854
0.0310419
0.00621028
0.0483338
0.193459
0.00519271
0.54008
0.177233
0.00790133
0.00727233
0.0155522
0.05065
0.0104623
0.00812013
0.00681859
0.00839307
0.00735398
0.0757343
0.00761435
0.00845559
0.149856
0.036694
0.00735038
0.00770266
0.00756425
0.00669739
0.00857767
0.0072448
0.00971995
0.00698148
0.00879202
0.00804726
0.0457721
0.00819689
0.0156329
0.0077049
0.0209497
0.00838082
0.00867788
0.17134
0.079144
0.00705022
0.0078078
0.00645467
0.00647357
0.00826895
0.00727846
0.00599067
0.00740865
0.00584921
0.00852496
0.0431338
0.00616295
0.0190629
0.00847754
0.0867832
0.00790097
0.00667999
0.00813811
0.00827883
0.00801892
0.0750853
0.00745457
0.288765
0.00790467
0.00799656
0.245775
0.00844959
0.00855446
0.0620983
0.0391865
0.0375772
0.00755991
0.0199007
0.00790185
0.0198688
0.00589311
0.0742001
0.00731218
0.00639166
0.0183316
0.00762638
0.0321273
0.00736819
0.0153511
0.0217957
0.00776416
0.0171672
0.00745477
0.152779
0.0080841
0.00575771
0.0118746
0.0063921
0.00591665
0.00840343
0.0105309
0.037922
0.00752336
0.00811558
0.0137467
0.0067169
0.00682736
0.00687417
0.00604362
0.0078934
0.0458893
0.0372082
0.00808975
0.0185764
0.00798271
0.00764409
0.00694676
1.10313
0.00781377
0.00713512
0.0147651
0.0321515
0.00821278
0.00706013
0.0289687
0.010543
0.0065878
0.00723833
0.00622809
0.0249192
0.00753242
0.00692949
0.094373
0.00710874
0.00830355
0.00703908
0.00689675
0.00768532
0.00943095
0.00763656
0.0113153
0.00600064
0.0134128
0.00813037
0.00585034
0.0505335
0.0068869
0.00622206
0.00765418
0.00723042
0.040844
0.0136584
0.00586372
0.00845924
0.00737297
0.259428
0.00697042
0.00714052
1.4406
0.00672161
0.00718642
0.00733168
0.00713982
0.00636281
0.00630358
0.0119586
0.00619037
0.072159
0.00716703
0.00758364
0.0136339
0.00529406
0.00748386
0.00643121
0.00551081
0.00729964
0.0171987
0.00855288
0.00950837
0.00747558
0.00686815
0.00701266
0.0067884
0.0135199
0.00795521
0.00722161
0.00671672
0.00756527
0.00837175
0.0216202
0.0222327
0.124017
0.00847368
0.0137313
0.00665349
0.00755591
0.00745247
0.469305
0.00717271
0.00604503
0.414393
0.00677594
0.0289631
0.0395089
0.00691762
0.00810189
0.00710209
0.00582038
0.00577232
0.00683401
0.00915324
0.0067901
0.0469604
0.00524671
0.0360207
0.00781054
0.0199973
0.136057
1.07701
0.00754862
0.0103782
0.00523091
0.00829063
0.00687519
0.0286751
0.0079023
0.0122089
0.00550913
0.00707161
0.00613437
0.0178197
0.0147119
0.021462
0.0484435
0.00781465
0.081746
0.0071382
0.00659604
0.00597676
0.0494508
0.00840731
0.456796
0.007824
0.0120486
0.363373
0.00614364
0.0481048
0.0331685
0.0193533
0.00738814
0.00763268
0.00740905