/*--------------------------------*- C++ -*----------------------------------*\
| =========                 |                                                 |
| \\      /  F ield         | OpenFOAM: The Open Source CFD Toolbox           |
|  \\    /   O peration     | Version:  3.0.1                                 |
|   \\  /    A nd           | Web:      www.OpenFOAM.org                      |
|    \\/     M anipulation  |                                                 |
\*---------------------------------------------------------------------------*/
FoamFile
{
    version     2.0;
    format      ascii;
    class       surfaceScalarField;
    location    "0.239009";
    object      phi;
}
// * * * * * * * * * * * * * * * * * * * * * * * * * * * * * * * * * * * * * //

dimensions      [0 3 -1 0 0 0 0];

internalField   nonuniform List<scalar> 
32369
(
-1.12436e-05
1.74891e-05
-6.24558e-06
-1.96683e-05
1.55753e-05
-7.15053e-06
-2.84023e-05
1.69638e-05
-8.22982e-06
-3.68299e-05
1.7692e-05
-9.26445e-06
-4.54635e-05
1.92859e-05
-1.06523e-05
-5.45149e-05
2.17622e-05
-1.27107e-05
-6.43236e-05
2.52317e-05
-1.5423e-05
-7.53453e-05
2.99405e-05
-1.89188e-05
-8.80456e-05
3.61348e-05
-2.34345e-05
-0.000102938
4.42017e-05
-2.93098e-05
5.47164e-05
-3.69894e-05
-0.000120665
-1.29102e-06
1.87802e-05
-3.6825e-06
1.79668e-05
-1.0141e-05
2.34223e-05
-1.76768e-05
2.52278e-05
-2.65434e-05
2.81525e-05
-3.6153e-05
3.13717e-05
-4.69009e-05
3.59797e-05
-5.90084e-05
4.2048e-05
-7.29576e-05
5.0084e-05
-8.92557e-05
6.04998e-05
7.39722e-05
-0.000108512
5.4637e-07
1.82338e-05
-6.89871e-07
1.9203e-05
-4.2624e-06
2.69948e-05
-9.09742e-06
3.00628e-05
-1.6129e-05
3.5184e-05
-2.47212e-05
3.9964e-05
-3.4706e-05
4.59645e-05
-4.62278e-05
5.35697e-05
-5.95877e-05
6.34439e-05
-7.52356e-05
7.61477e-05
9.25104e-05
-9.37738e-05
4.44428e-07
1.77894e-05
-9.77115e-07
2.06245e-05
-2.93315e-06
2.89509e-05
-6.03189e-06
3.31616e-05
-1.10876e-05
4.02397e-05
-1.76146e-05
4.6491e-05
-2.59054e-05
5.42552e-05
-3.58462e-05
6.35106e-05
-4.75904e-05
7.51881e-05
-6.14323e-05
8.99896e-05
0.000108838
-7.77602e-05
3.35943e-07
1.74534e-05
-1.15731e-06
2.21178e-05
-2.52182e-06
3.03154e-05
-4.78555e-06
3.54253e-05
-8.32436e-06
4.37785e-05
-1.30285e-05
5.11951e-05
-1.9438e-05
6.06647e-05
-2.74097e-05
7.14823e-05
-3.71533e-05
8.49317e-05
-4.88085e-05
0.000101645
0.00012282
-6.27898e-05
4.61072e-07
1.69923e-05
-6.59196e-07
2.32381e-05
-1.6527e-06
3.13089e-05
-3.46026e-06
3.72329e-05
-6.00719e-06
4.63255e-05
-9.42642e-06
5.46143e-05
-1.4235e-05
6.54733e-05
-2.03898e-05
7.7637e-05
-2.81635e-05
9.27054e-05
-3.76532e-05
0.000111135
0.000134299
-4.91324e-05
5.89544e-07
1.64028e-05
-1.12956e-07
2.39406e-05
-6.92534e-07
3.18885e-05
-2.11895e-06
3.86593e-05
-3.93375e-06
4.81403e-05
-6.44398e-06
5.71246e-05
-9.99032e-06
6.90197e-05
-1.46172e-05
8.22639e-05
-2.06177e-05
9.87059e-05
-2.81173e-05
0.000118634
0.000143516
-3.7335e-05
5.35254e-07
1.58676e-05
1.16037e-07
2.43598e-05
-7.50586e-08
3.20796e-05
-1.13995e-06
3.97242e-05
-2.29414e-06
4.92945e-05
-4.10126e-06
5.89317e-05
-6.57605e-06
7.14944e-05
-9.91312e-06
8.5601e-05
-1.43166e-05
0.000103109
-1.99151e-05
0.000124233
0.000150553
-2.69517e-05
4.99284e-07
1.53683e-05
4.90421e-07
2.43686e-05
5.53094e-07
3.20169e-05
-1.37232e-07
4.04145e-05
-7.05362e-07
4.98626e-05
-1.92918e-06
6.01555e-05
-3.48409e-06
7.30494e-05
-5.71952e-06
8.78364e-05
-8.73285e-06
0.000106123
-1.27583e-05
0.000128258
0.000155703
-1.79077e-05
7.84683e-07
1.45836e-05
1.20148e-06
2.39518e-05
1.56119e-06
3.16572e-05
1.33556e-06
4.06401e-05
1.19894e-06
4.99992e-05
5.31282e-07
6.08232e-05
-2.74392e-07
7.3855e-05
-1.61327e-06
8.91753e-05
-3.49012e-06
0.000108
-6.1138e-06
0.000130882
0.000159258
-9.66945e-06
9.67486e-07
1.36161e-05
1.77265e-06
2.31467e-05
2.46163e-06
3.09682e-05
2.71692e-06
4.03848e-05
3.0077e-06
4.97084e-05
2.89861e-06
6.09322e-05
2.78179e-06
7.39718e-05
2.2779e-06
8.96792e-05
1.46616e-06
0.000108811
1.10482e-07
0.000132238
0.000161139
-1.77003e-06
9.94291e-07
1.26218e-05
2.01468e-06
2.21263e-05
2.97627e-06
3.00066e-05
3.67236e-06
3.96888e-05
4.40319e-06
4.89776e-05
4.9e-06
6.04354e-05
5.46925e-06
7.34026e-05
5.839e-06
8.93094e-05
6.10351e-06
0.000108547
6.09124e-06
0.00013225
0.00016146
5.77029e-06
1.05477e-06
1.1567e-05
2.36e-06
2.08211e-05
3.63357e-06
2.8733e-05
4.81335e-06
3.8509e-05
5.98227e-06
4.78087e-05
7.08132e-06
5.93364e-05
8.29641e-06
7.21875e-05
9.49073e-06
8.81151e-05
1.07946e-05
0.000107243
1.20952e-05
0.000130949
0.000160257
1.32978e-05
1.27371e-06
1.02933e-05
2.91336e-06
1.91814e-05
4.57406e-06
2.70723e-05
6.2667e-06
3.68163e-05
7.91372e-06
4.61617e-05
9.61997e-06
5.76301e-05
1.14877e-05
7.03197e-05
1.35256e-05
8.60773e-05
1.58083e-05
0.00010496
1.83358e-05
0.000128422
0.000157516
2.10768e-05
1.27217e-06
9.02115e-06
3.0943e-06
1.73593e-05
5.09077e-06
2.50758e-05
7.27144e-06
3.46357e-05
9.46893e-06
4.39642e-05
1.18602e-05
5.52388e-05
1.44648e-05
6.77151e-05
1.74345e-05
8.31076e-05
2.08355e-05
0.000101559
2.47022e-05
0.000124555
0.000153069
2.91496e-05
1.2921e-06
7.72905e-06
3.29008e-06
1.53613e-05
5.618e-06
2.27479e-05
8.31291e-06
3.19408e-05
1.11062e-05
4.11709e-05
1.42181e-05
5.2127e-05
1.76465e-05
6.42867e-05
2.16045e-05
7.91496e-05
2.61644e-05
9.69993e-05
3.15494e-05
0.00011917
0.000146763
3.78547e-05
1.3887e-06
6.34035e-06
3.57656e-06
1.31734e-05
6.26101e-06
2.00635e-05
9.47331e-06
2.87285e-05
1.29336e-05
3.77106e-05
1.68303e-05
4.82303e-05
2.11607e-05
5.99563e-05
2.61923e-05
7.4118e-05
3.20595e-05
9.11321e-05
3.89776e-05
0.000112252
0.000138679
4.70614e-05
1.35503e-06
4.98532e-06
3.60771e-06
1.09208e-05
6.56806e-06
1.71031e-05
1.02639e-05
2.50326e-05
1.4419e-05
3.35555e-05
1.91901e-05
4.34592e-05
2.45807e-05
5.45657e-05
3.08559e-05
6.78428e-05
3.81833e-05
8.38047e-05
4.68326e-05
0.000103603
0.000128376
5.71363e-05
1.26511e-06
3.72021e-06
3.50393e-06
8.68194e-06
6.65364e-06
1.39534e-05
1.07794e-05
2.09069e-05
1.56393e-05
2.86956e-05
2.13561e-05
3.77424e-05
2.79378e-05
4.7984e-05
3.56321e-05
6.01484e-05
4.46518e-05
7.4785e-05
5.53532e-05
9.29013e-05
0.000115622
6.81073e-05
1.12179e-06
2.59842e-06
3.26603e-06
6.53771e-06
6.48052e-06
1.07389e-05
1.09212e-05
1.64661e-05
1.64319e-05
2.3185e-05
2.31105e-05
3.10638e-05
3.09744e-05
4.01201e-05
4.02429e-05
5.088e-05
5.11351e-05
6.38928e-05
6.4041e-05
7.99954e-05
0.000100203
7.94599e-05
9.63887e-07
1.63453e-06
2.88134e-06
4.62025e-06
5.97265e-06
7.6476e-06
1.05147e-05
1.19241e-05
1.65076e-05
1.7192e-05
2.40454e-05
2.35259e-05
3.31612e-05
3.10044e-05
4.4015e-05
4.00262e-05
5.68599e-05
5.10479e-05
7.21085e-05
6.47469e-05
8.19568e-05
9.03543e-05
6.81484e-07
9.53051e-07
2.31582e-06
2.98592e-06
5.06974e-06
4.89368e-06
9.40097e-06
7.59288e-06
1.55334e-05
1.10596e-05
2.35918e-05
1.54675e-05
3.36123e-05
2.09839e-05
4.57628e-05
2.78756e-05
6.03464e-05
3.64643e-05
7.78306e-05
4.72626e-05
6.05727e-05
9.92146e-05
6.24407e-07
3.28644e-07
1.77293e-06
1.83739e-06
4.02628e-06
2.64034e-06
7.84976e-06
3.7694e-06
1.3509e-05
5.40038e-06
2.12171e-05
7.75937e-06
3.11648e-05
1.10362e-05
4.36546e-05
1.53858e-05
5.89916e-05
2.11274e-05
7.75547e-05
2.86995e-05
3.84071e-05
9.97204e-05
-6.54558e-07
9.83201e-07
1.25385e-06
-7.10146e-08
4.19078e-06
-2.96595e-07
7.79239e-06
1.67786e-07
1.25163e-05
6.76465e-07
1.88444e-05
1.43133e-06
2.72228e-05
2.65775e-06
3.81478e-05
4.46081e-06
5.21624e-05
7.11284e-06
6.98532e-05
1.10087e-05
1.68654e-05
9.13949e-05
-1.35149e-05
7.26936e-06
-2.51481e-05
4.48265e-06
-3.56305e-05
2.2526e-06
-4.48425e-05
-5.2468e-08
-5.34806e-05
-2.01418e-06
-6.21679e-05
-4.02345e-06
-7.16855e-05
-5.9054e-06
-8.25356e-05
-8.06873e-06
-9.51161e-05
-1.0854e-05
-0.000109809
-1.46169e-05
-1.97699e-05
-0.000127028
-4.84029e-06
1.21096e-05
-1.06576e-05
1.03e-05
-1.941e-05
1.10049e-05
-2.90312e-05
9.56879e-06
-3.90507e-05
8.00527e-06
-4.9734e-05
6.65987e-06
-6.12014e-05
5.56202e-06
-7.39211e-05
4.65093e-06
-8.84103e-05
3.63525e-06
-0.000105203
2.17552e-06
-1.13908e-07
-0.000124859
-2.02488e-06
1.41345e-05
-5.35728e-06
1.36324e-05
-1.12611e-05
1.69087e-05
-1.87952e-05
1.71029e-05
-2.81067e-05
1.73168e-05
-3.8619e-05
1.71721e-05
-5.03737e-05
1.73167e-05
-6.35465e-05
1.78238e-05
-7.85557e-05
1.86445e-05
-9.59038e-05
1.95236e-05
2.00695e-05
-0.000116087
-1.35885e-06
1.54934e-05
-4.19778e-06
1.64714e-05
-8.38639e-06
2.10973e-05
-1.40086e-05
2.27251e-05
-2.15315e-05
2.48396e-05
-3.072e-05
2.63606e-05
-4.14737e-05
2.80705e-05
-5.37797e-05
3.01298e-05
-6.78538e-05
3.27186e-05
-8.40799e-05
3.57497e-05
3.90157e-05
-0.000103026
-1.27553e-06
1.67689e-05
-4.00495e-06
1.92008e-05
-7.24466e-06
2.4337e-05
-1.15902e-05
2.70707e-05
-1.74968e-05
3.07462e-05
-2.50083e-05
3.38721e-05
-3.41626e-05
3.72248e-05
-4.49449e-05
4.09121e-05
-5.74557e-05
4.52294e-05
-7.19208e-05
5.02147e-05
5.57263e-05
-8.86313e-05
-1.14435e-06
1.79132e-05
-3.63822e-06
2.16946e-05
-6.34551e-06
2.70443e-05
-9.87681e-06
3.0602e-05
-1.45931e-05
3.54624e-05
-2.05431e-05
3.98222e-05
-2.80236e-05
4.47053e-05
-3.70282e-05
4.99167e-05
-4.76059e-05
5.5807e-05
-5.98107e-05
6.24196e-05
6.96569e-05
-7.37414e-05
-9.55584e-07
1.88688e-05
-3.09415e-06
2.38332e-05
-5.36501e-06
2.93152e-05
-8.27315e-06
3.35102e-05
-1.20882e-05
3.92775e-05
-1.68117e-05
4.45457e-05
-2.28041e-05
5.06976e-05
-3.01024e-05
5.7215e-05
-3.87515e-05
6.44562e-05
-4.87833e-05
7.24514e-05
8.11076e-05
-6.0234e-05
-8.97133e-07
1.9766e-05
-2.69603e-06
2.56321e-05
-4.57675e-06
3.11959e-05
-6.98775e-06
3.59212e-05
-9.91052e-06
4.22002e-05
-1.37043e-05
4.83395e-05
-1.84044e-05
5.53978e-05
-2.41385e-05
6.29492e-05
-3.10028e-05
7.13204e-05
-3.90442e-05
8.04928e-05
9.03866e-05
-4.83231e-05
-7.61003e-07
2.0527e-05
-2.29206e-06
2.71632e-05
-3.64251e-06
3.25463e-05
-5.71918e-06
3.79978e-05
-7.96869e-06
4.44497e-05
-1.08484e-05
5.12192e-05
-1.44039e-05
5.89533e-05
-1.87725e-05
6.73178e-05
-2.40424e-05
7.65903e-05
-3.02825e-05
8.67329e-05
9.77716e-05
-3.76675e-05
-5.51357e-07
2.10783e-05
-1.727e-06
2.83388e-05
-2.77987e-06
3.35992e-05
-4.26702e-06
3.9485e-05
-5.91861e-06
4.61013e-05
-8.04091e-06
5.33415e-05
-1.05946e-05
6.1507e-05
-1.37488e-05
7.0472e-05
-1.75764e-05
8.0418e-05
-2.21772e-05
9.13336e-05
0.000103242
-2.76481e-05
-2.6118e-07
2.13395e-05
-9.55619e-07
2.90332e-05
-1.62549e-06
3.42691e-05
-2.63184e-06
4.04913e-05
-3.67366e-06
4.71431e-05
-5.0666e-06
5.47344e-05
-6.7271e-06
6.31675e-05
-8.78708e-06
7.2532e-05
-1.13122e-05
8.2943e-05
-1.43894e-05
9.44108e-05
0.000107025
-1.81718e-05
-6.0244e-08
2.13997e-05
-4.37672e-07
2.94107e-05
-6.92178e-07
3.45236e-05
-1.19539e-06
4.09945e-05
-1.6378e-06
4.75856e-05
-2.28916e-06
5.53858e-05
-3.03642e-06
6.39147e-05
-4.01047e-06
7.3506e-05
-5.22805e-06
8.41606e-05
-6.76027e-06
9.59431e-05
0.000108955
-8.69055e-06
1.74886e-07
2.12249e-05
1.90432e-07
2.93951e-05
3.20166e-07
3.43939e-05
3.3893e-07
4.09758e-05
4.9628e-07
4.74282e-05
5.77526e-07
5.53045e-05
7.20436e-07
6.37718e-05
8.24971e-07
7.34015e-05
9.07473e-07
8.40781e-05
9.2803e-07
9.59225e-05
0.000108975
9.0815e-07
5.47882e-07
2.0677e-05
1.00374e-06
2.89393e-05
1.55989e-06
3.38377e-05
2.11498e-06
4.04207e-05
2.85921e-06
4.6684e-05
3.67787e-06
5.44859e-05
4.70389e-06
6.27458e-05
5.8704e-06
7.2235e-05
7.24992e-06
8.26986e-05
8.8473e-06
9.43251e-05
0.000107083
1.07395e-05
7.59107e-07
1.99179e-05
1.61161e-06
2.80868e-05
2.61349e-06
3.28358e-05
3.74294e-06
3.92912e-05
5.11546e-06
4.53115e-05
6.73644e-06
5.28649e-05
8.68909e-06
6.07931e-05
1.09963e-05
6.99277e-05
1.37324e-05
7.99625e-05
1.69738e-05
9.10837e-05
0.000103178
2.08785e-05
1.02471e-06
1.88932e-05
2.30053e-06
2.68109e-05
3.76762e-06
3.13687e-05
5.49508e-06
3.75638e-05
7.5299e-06
4.32766e-05
9.98644e-06
5.04084e-05
1.29059e-05
5.78736e-05
1.63813e-05
6.64524e-05
2.05376e-05
7.58063e-05
2.54705e-05
8.61508e-05
9.72667e-05
3.1382e-05
1.33915e-06
1.7554e-05
3.08794e-06
2.50622e-05
5.05891e-06
2.93978e-05
7.42651e-06
3.51962e-05
1.0169e-05
4.05341e-05
1.35036e-05
4.70738e-05
1.74449e-05
5.39323e-05
2.2161e-05
6.17363e-05
2.77516e-05
7.02157e-05
3.44158e-05
7.94866e-05
8.92489e-05
4.24336e-05
1.64667e-06
1.59074e-05
3.86666e-06
2.28422e-05
6.39191e-06
2.68725e-05
9.4486e-06
3.21395e-05
1.29707e-05
3.70121e-05
1.72437e-05
4.28007e-05
2.22819e-05
4.88941e-05
2.82887e-05
5.57295e-05
3.53987e-05
6.31057e-05
4.38248e-05
7.10605e-05
7.9252e-05
5.38217e-05
1.9603e-06
1.3947e-05
4.66394e-06
2.01385e-05
7.78359e-06
2.37529e-05
1.15807e-05
2.83424e-05
1.59674e-05
3.26253e-05
2.12394e-05
3.75287e-05
2.74509e-05
4.26827e-05
3.48164e-05
4.83641e-05
4.34834e-05
5.44387e-05
5.37128e-05
6.0831e-05
6.71609e-05
6.58039e-05
2.29864e-06
1.16484e-05
5.49635e-06
1.69408e-05
9.25762e-06
1.99916e-05
1.38443e-05
2.37558e-05
1.91676e-05
2.7302e-05
2.55041e-05
3.11922e-05
3.29294e-05
3.52574e-05
4.16665e-05
3.9627e-05
5.19137e-05
4.41915e-05
6.39433e-05
4.88014e-05
5.30532e-05
7.8051e-05
2.65576e-06
8.99265e-06
6.3492e-06
1.32474e-05
1.07749e-05
1.55659e-05
1.61739e-05
1.83568e-05
2.24567e-05
2.10191e-05
2.98553e-05
2.37936e-05
3.84891e-05
2.66236e-05
4.85772e-05
2.95389e-05
6.03543e-05
3.24144e-05
7.41144e-05
3.50413e-05
3.69803e-05
9.01873e-05
3.01828e-06
5.97437e-06
7.21402e-06
9.05163e-06
1.2255e-05
1.05249e-05
1.83612e-05
1.22506e-05
2.5499e-05
1.38812e-05
3.38522e-05
1.54404e-05
4.35687e-05
1.69071e-05
5.48757e-05
1.82319e-05
6.80274e-05
1.92627e-05
8.33363e-05
1.97324e-05
1.91386e-05
0.000101178
3.84219e-06
2.13218e-06
8.36844e-06
4.52538e-06
1.36926e-05
5.2008e-06
2.01302e-05
5.81294e-06
2.77431e-05
6.26834e-06
3.66785e-05
6.50506e-06
4.71011e-05
6.48453e-06
5.92658e-05
6.06719e-06
7.34113e-05
5.11719e-06
8.97534e-05
3.39032e-06
5.73009e-07
0.000108319
3.11538e-06
7.56975e-06
1.2474e-05
1.84547e-05
2.53995e-05
3.33359e-05
4.24782e-05
5.30062e-05
6.52362e-05
7.96352e-05
9.70736e-05
-1.80465e-06
1.42453e-05
-1.24406e-05
-3.82226e-06
1.36392e-05
-1.16216e-05
-7.55381e-06
1.6574e-05
-1.28425e-05
-1.2256e-05
1.91801e-05
-1.44779e-05
-1.73584e-05
2.16852e-05
-1.65827e-05
-2.28128e-05
2.47031e-05
-1.92487e-05
-2.87872e-05
2.85607e-05
-2.25864e-05
-3.5507e-05
3.34859e-05
-2.6766e-05
-4.32378e-05
3.97894e-05
-3.20586e-05
-5.2291e-05
4.7907e-05
-3.88539e-05
5.84517e-05
-4.76201e-05
-6.31226e-05
3.48625e-06
1.0759e-05
4.59541e-06
1.25301e-05
3.53367e-06
1.76358e-05
8.77402e-07
2.18364e-05
-3.22446e-06
2.5787e-05
-8.46463e-06
2.99433e-05
-1.45984e-05
3.46945e-05
-2.17034e-05
4.05908e-05
-2.99786e-05
4.80646e-05
-3.97355e-05
5.7664e-05
7.00703e-05
-5.13541e-05
2.65489e-06
8.10414e-06
3.97877e-06
1.12062e-05
4.73604e-06
1.68785e-05
4.33569e-06
2.22367e-05
2.34957e-06
2.77731e-05
-1.19779e-06
3.34906e-05
-6.06453e-06
3.95612e-05
-1.21018e-05
4.66281e-05
-1.93787e-05
5.53415e-05
-2.80963e-05
6.63815e-05
8.06297e-05
-3.86557e-05
2.21399e-06
5.89015e-06
3.20704e-06
1.02131e-05
4.3546e-06
1.57309e-05
4.94409e-06
2.16472e-05
4.48239e-06
2.82348e-05
2.71459e-06
3.52584e-05
-4.17779e-07
4.26936e-05
-4.81329e-06
5.10236e-05
-1.04501e-05
6.09783e-05
-1.74088e-05
7.33403e-05
8.90594e-05
-2.58385e-05
1.6863e-06
4.20385e-06
3.04951e-06
8.84993e-06
4.32282e-06
1.44576e-05
5.31599e-06
2.06541e-05
5.70889e-06
2.78419e-05
5.21255e-06
3.57548e-05
3.61943e-06
4.42867e-05
8.70225e-07
5.37728e-05
-3.0152e-06
6.48637e-05
-8.08052e-06
7.84056e-05
9.54401e-05
-1.44613e-05
1.44567e-06
2.75818e-06
3.00747e-06
7.28813e-06
4.67354e-06
1.27915e-05
6.01161e-06
1.9316e-05
6.98563e-06
2.68679e-05
7.35499e-06
3.53854e-05
6.90609e-06
4.47356e-05
5.53296e-06
5.5146e-05
3.20434e-06
6.71923e-05
-1.10682e-07
8.17206e-05
9.98357e-05
-4.50628e-06
1.34434e-06
1.41384e-06
3.07636e-06
5.55611e-06
4.89978e-06
1.09681e-05
6.63881e-06
1.7577e-05
8.09776e-06
2.5409e-05
9.15266e-06
3.43305e-05
9.6038e-06
4.42845e-05
9.34454e-06
5.54052e-05
8.34256e-06
6.81943e-05
6.59183e-06
8.34714e-05
0.000102371
4.05635e-06
1.12181e-06
2.9203e-07
2.83794e-06
3.83997e-06
4.78888e-06
9.01719e-06
6.80368e-06
1.55622e-05
8.73571e-06
2.34769e-05
1.03921e-05
3.26741e-05
1.16315e-05
4.30451e-05
1.23438e-05
5.46929e-05
1.25087e-05
6.80295e-05
1.21509e-05
8.38291e-05
0.000103268
1.12537e-05
6.96949e-07
-4.04919e-07
2.21741e-06
2.31952e-06
4.27058e-06
6.96401e-06
6.58278e-06
1.325e-05
8.93519e-06
2.11245e-05
1.11661e-05
3.04432e-05
1.31205e-05
4.10907e-05
1.47055e-05
5.31078e-05
1.59165e-05
6.68186e-05
1.68093e-05
8.29363e-05
0.000102604
1.74741e-05
2.76622e-07
-6.81541e-07
1.48749e-06
1.10865e-06
3.57199e-06
4.87951e-06
6.11169e-06
1.07103e-05
8.84785e-06
1.83884e-05
1.15924e-05
2.76987e-05
1.42011e-05
3.8482e-05
1.65736e-05
5.07352e-05
1.87097e-05
6.46825e-05
2.07079e-05
8.09381e-05
0.000100593
2.27188e-05
1.50938e-07
-8.32479e-07
1.01124e-06
2.48349e-07
2.80203e-06
3.08872e-06
5.34078e-06
8.17151e-06
8.31169e-06
1.54175e-05
1.14757e-05
2.45348e-05
1.46523e-05
3.53054e-05
1.77453e-05
4.76422e-05
2.07489e-05
6.1679e-05
2.3784e-05
7.79029e-05
9.72832e-05
2.70935e-05
1.30801e-07
-9.6328e-07
6.53893e-07
-2.74743e-07
2.01108e-06
1.73154e-06
4.31432e-06
5.86827e-06
7.31224e-06
1.24195e-05
1.07275e-05
2.11195e-05
1.43523e-05
3.16805e-05
1.80779e-05
4.39167e-05
2.18976e-05
5.78593e-05
2.59409e-05
7.38596e-05
9.27356e-05
3.04886e-05
1.17521e-07
-1.0808e-06
4.3548e-07
-5.92701e-07
1.39307e-06
7.7395e-07
3.30492e-06
3.95641e-06
6.13641e-06
9.58806e-06
9.61736e-06
1.76385e-05
1.3528e-05
2.77699e-05
1.77402e-05
3.97045e-05
2.22501e-05
5.33494e-05
2.72069e-05
6.89028e-05
8.70135e-05
3.29289e-05
8.4772e-08
-1.16557e-06
2.87994e-07
-7.95923e-07
9.48671e-07
1.13273e-07
2.43259e-06
2.4725e-06
4.90394e-06
7.11671e-06
8.25056e-06
1.42919e-05
1.22472e-05
2.37732e-05
1.67637e-05
3.51881e-05
2.17977e-05
4.83154e-05
2.74927e-05
6.32078e-05
8.02973e-05
3.42089e-05
4.65193e-08
-1.21209e-06
1.27526e-07
-8.7693e-07
5.21382e-07
-2.80583e-07
1.54836e-06
1.44552e-06
3.53595e-06
5.12912e-06
6.51191e-06
1.13159e-05
1.03615e-05
1.99237e-05
1.49722e-05
3.05773e-05
2.03601e-05
4.29275e-05
2.66721e-05
5.68958e-05
7.27575e-05
3.4212e-05
-3.60237e-09
-1.20849e-06
-3.25454e-08
-8.47987e-07
1.24474e-07
-4.37602e-07
7.31088e-07
8.38904e-07
2.18945e-06
3.67076e-06
4.67445e-06
8.83093e-06
8.17257e-06
1.64255e-05
1.26571e-05
2.60928e-05
1.817e-05
3.74146e-05
2.48924e-05
5.01734e-05
6.44685e-05
3.31814e-05
-6.09837e-08
-1.14751e-06
-1.7774e-07
-7.31231e-07
-2.02323e-07
-4.1302e-07
3.77604e-08
5.98821e-07
9.59208e-07
2.74931e-06
2.89814e-06
6.89199e-06
5.90514e-06
1.34185e-05
1.00632e-05
2.19348e-05
1.54984e-05
3.19793e-05
2.2361e-05
4.33108e-05
5.59086e-05
3.09209e-05
-1.12634e-07
-1.03487e-06
-3.1278e-07
-5.31084e-07
-4.76086e-07
-2.49714e-07
-5.07745e-07
6.3048e-07
-9.17697e-08
2.33334e-06
1.24968e-06
5.55055e-06
3.70068e-06
1.09675e-05
7.37203e-06
1.82634e-05
1.25068e-05
2.68445e-05
1.93633e-05
3.64544e-05
4.70367e-05
2.82351e-05
-1.59484e-07
-8.75388e-07
-4.27691e-07
-2.62877e-07
-6.96725e-07
1.93204e-08
-8.9152e-07
8.25274e-07
-8.09703e-07
2.25152e-06
-3.28921e-08
4.77374e-06
1.86185e-06
9.0728e-06
4.9981e-06
1.51272e-05
9.72162e-06
2.2121e-05
1.63435e-05
2.98326e-05
3.80364e-05
2.53437e-05
-2.07682e-07
-6.67707e-07
-5.27639e-07
5.70799e-08
-8.56803e-07
3.48485e-07
-1.11955e-06
1.08802e-06
-1.16492e-06
2.29689e-06
-7.23966e-07
4.33279e-06
6.6927e-07
7.67956e-06
3.32062e-06
1.24758e-05
7.56372e-06
1.78779e-05
1.37964e-05
2.35998e-05
2.92818e-05
2.2551e-05
-2.80503e-07
-3.87204e-07
-6.14217e-07
3.90794e-07
-9.21327e-07
6.55596e-07
-1.10983e-06
1.27652e-06
-1.07209e-06
2.25915e-06
-6.51797e-07
3.91249e-06
4.97301e-07
6.53047e-06
2.83683e-06
1.01363e-05
6.67116e-06
1.40435e-05
1.24935e-05
1.77775e-05
2.07759e-05
2.09995e-05
-3.37007e-07
-5.01966e-08
-6.34714e-07
6.885e-07
-7.54732e-07
7.75614e-07
-6.34332e-07
1.15612e-06
-2.31586e-07
1.8564e-06
5.37045e-07
3.14386e-06
1.92151e-06
5.146e-06
4.37173e-06
7.68609e-06
8.26171e-06
1.01536e-05
1.4115e-05
1.19242e-05
1.25229e-05
2.2368e-05
-5.89204e-07
5.39008e-07
-4.15729e-07
5.15025e-07
5.50242e-08
3.04861e-07
7.94192e-07
4.16953e-07
1.81842e-06
8.32173e-07
3.25877e-06
1.70352e-06
5.41039e-06
2.99437e-06
8.69512e-06
4.40136e-06
1.35144e-05
5.33426e-06
2.03307e-05
5.10793e-06
3.14026e-06
2.97133e-05
2.06222e-06
-1.52321e-06
3.34797e-06
-7.70732e-07
4.40762e-06
-7.54783e-07
5.60225e-06
-7.77677e-07
7.0259e-06
-5.9148e-07
9.01719e-06
-2.87773e-07
1.20013e-05
1.02332e-08
1.63387e-05
6.39803e-08
2.21834e-05
-5.10422e-07
2.94444e-05
-2.15303e-06
-5.17294e-06
3.77576e-05
-1.03979e-05
-2.04275e-06
-1.73081e-05
-4.71135e-06
-2.29695e-05
-7.18105e-06
-2.78983e-05
-9.54921e-06
-3.2543e-05
-1.1938e-05
-3.73192e-05
-1.44725e-05
-4.25594e-05
-1.73462e-05
-4.85431e-05
-2.07824e-05
-5.55267e-05
-2.50749e-05
-6.37772e-05
-3.06034e-05
-3.78854e-05
-7.35119e-05
-5.44872e-06
3.40596e-06
-1.10958e-05
9.35755e-07
-1.71335e-05
-1.14335e-06
-2.29107e-05
-3.77205e-06
-2.85403e-05
-6.30833e-06
-3.43067e-05
-8.70614e-06
-4.05139e-05
-1.1139e-05
-4.74968e-05
-1.37995e-05
-5.55894e-05
-1.69823e-05
-6.51185e-05
-2.10743e-05
-2.65224e-05
-7.64816e-05
-2.3438e-06
5.74976e-06
-5.78554e-06
4.37749e-06
-1.06445e-05
3.71558e-06
-1.64434e-05
2.02693e-06
-2.27056e-05
-4.61931e-08
-2.92197e-05
-2.19202e-06
-3.61841e-05
-4.17462e-06
-4.38983e-05
-6.08528e-06
-5.27065e-05
-8.17411e-06
-6.29763e-05
-1.08044e-05
-1.44589e-05
-7.50398e-05
-1.39738e-06
7.14715e-06
-3.70586e-06
6.68596e-06
-7.13867e-06
7.14839e-06
-1.176e-05
6.64827e-06
-1.74845e-05
5.67832e-06
-2.4056e-05
4.37948e-06
-3.13344e-05
3.10376e-06
-3.93764e-05
1.95669e-06
-4.83997e-05
8.49207e-07
-5.87246e-05
-4.79513e-07
-2.36542e-06
-7.08181e-05
-1.20171e-06
8.34885e-06
-3.14632e-06
8.63058e-06
-5.79812e-06
9.80019e-06
-9.35017e-06
1.02003e-05
-1.39669e-05
1.02951e-05
-1.96777e-05
1.00902e-05
-2.63802e-05
9.80633e-06
-3.405e-05
9.62643e-06
-4.27926e-05
9.59186e-06
-5.28033e-05
9.5311e-06
9.22408e-06
-6.43927e-05
-1.0574e-06
9.40625e-06
-2.76539e-06
1.03386e-05
-4.97419e-06
1.2009e-05
-7.88281e-06
1.31089e-05
-1.16964e-05
1.41087e-05
-1.65349e-05
1.49286e-05
-2.24213e-05
1.56928e-05
-2.93514e-05
1.65565e-05
-3.73488e-05
1.75893e-05
-4.65553e-05
1.87376e-05
1.9822e-05
-5.71532e-05
-8.98049e-07
1.03043e-05
-2.39116e-06
1.18317e-05
-4.26159e-06
1.38794e-05
-6.69456e-06
1.55419e-05
-9.87589e-06
1.72901e-05
-1.39411e-05
1.89938e-05
-1.89842e-05
2.0736e-05
-2.50601e-05
2.26324e-05
-3.21888e-05
2.4718e-05
-4.04796e-05
2.70284e-05
2.94117e-05
-5.00693e-05
-8.0698e-07
1.11113e-05
-2.0954e-06
1.31201e-05
-3.68803e-06
1.54721e-05
-5.71667e-06
1.75706e-05
-8.35754e-06
1.99309e-05
-1.17352e-05
2.23714e-05
-1.59766e-05
2.49774e-05
-2.11415e-05
2.77973e-05
-2.7333e-05
3.09095e-05
-3.45861e-05
3.42815e-05
3.77777e-05
-4.29521e-05
-6.86733e-07
1.1798e-05
-1.76855e-06
1.42019e-05
-3.07432e-06
1.67778e-05
-4.73989e-06
1.92361e-05
-6.89221e-06
2.20832e-05
-9.64517e-06
2.51244e-05
-1.31208e-05
2.8453e-05
-1.74472e-05
3.21237e-05
-2.27237e-05
3.6186e-05
-2.9067e-05
4.06248e-05
4.53242e-05
-3.66135e-05
-5.06992e-07
1.2305e-05
-1.43143e-06
1.51264e-05
-2.38348e-06
1.77299e-05
-3.71994e-06
2.05726e-05
-5.39378e-06
2.37571e-05
-7.54149e-06
2.72721e-05
-1.02944e-05
3.12059e-05
-1.37734e-05
3.56027e-05
-1.81141e-05
4.05267e-05
-2.34457e-05
4.59564e-05
5.16792e-05
-2.98007e-05
-3.34624e-07
1.26396e-05
-8.83972e-07
1.56757e-05
-1.59633e-06
1.84422e-05
-2.52523e-06
2.15015e-05
-3.72173e-06
2.49536e-05
-5.28449e-06
2.88349e-05
-7.31416e-06
3.32356e-05
-9.94542e-06
3.8234e-05
-1.33137e-05
4.3895e-05
-1.75633e-05
5.02059e-05
5.69321e-05
-2.28161e-05
-1.56744e-07
1.27964e-05
-4.80441e-07
1.59994e-05
-8.66189e-07
1.8828e-05
-1.40556e-06
2.20408e-05
-2.1025e-06
2.56505e-05
-3.04448e-06
2.97768e-05
-4.31657e-06
3.45077e-05
-6.03961e-06
3.9957e-05
-8.36325e-06
4.62186e-05
-1.14526e-05
5.32952e-05
6.0926e-05
-1.54465e-05
4.21301e-08
1.27542e-05
-9.46273e-09
1.6051e-05
-7.88484e-08
1.88974e-05
-2.03738e-07
2.21657e-05
-3.96505e-07
2.58433e-05
-7.0373e-07
3.00841e-05
-1.19293e-06
3.49969e-05
-1.97755e-06
4.07416e-05
-3.20147e-06
4.74426e-05
-5.0712e-06
5.5165e-05
6.3711e-05
-7.85619e-06
3.04441e-07
1.24498e-05
5.6758e-07
1.57879e-05
8.39477e-07
1.86255e-05
1.13192e-06
2.18733e-05
1.45227e-06
2.55229e-05
1.77705e-06
2.97593e-05
2.06895e-06
3.4705e-05
2.24179e-06
4.05688e-05
2.15299e-06
4.75314e-05
1.61224e-06
5.57057e-05
6.49879e-05
3.35323e-07
4.87341e-07
1.19625e-05
1.026e-06
1.52492e-05
1.64861e-06
1.80029e-05
2.37226e-06
2.11496e-05
3.21477e-06
2.46804e-05
4.1895e-06
2.87846e-05
5.27598e-06
3.36185e-05
6.42481e-06
3.94199e-05
7.51211e-06
4.64441e-05
8.35897e-06
5.48588e-05
6.4672e-05
8.67491e-06
6.83276e-07
1.12792e-05
1.512e-06
1.44205e-05
2.47891e-06
1.7036e-05
3.62569e-06
2.00029e-05
4.98629e-06
2.33198e-05
6.59539e-06
2.71755e-05
8.463e-06
3.17509e-05
1.05642e-05
3.73187e-05
1.28094e-05
4.41989e-05
1.50299e-05
5.26383e-05
6.27905e-05
1.69114e-05
8.97576e-07
1.03816e-05
2.01248e-06
1.33056e-05
3.32165e-06
1.57268e-05
4.88219e-06
1.84423e-05
6.73968e-06
2.14624e-05
8.95026e-06
2.49649e-05
1.15573e-05
2.91438e-05
1.45669e-05
3.43091e-05
1.79212e-05
4.08446e-05
2.14762e-05
4.90833e-05
5.92105e-05
2.50562e-05
1.07892e-06
9.30269e-06
2.45941e-06
1.19251e-05
4.08807e-06
1.40981e-05
6.03397e-06
1.64964e-05
8.35088e-06
1.91454e-05
1.11227e-05
2.2193e-05
1.44081e-05
2.58584e-05
1.82488e-05
3.04685e-05
2.26325e-05
3.64609e-05
2.74355e-05
4.42802e-05
5.42604e-05
3.23856e-05
1.22986e-06
8.07283e-06
2.83494e-06
1.032e-05
4.74696e-06
1.21861e-05
7.02727e-06
1.42161e-05
9.75157e-06
1.64211e-05
1.3006e-05
1.89386e-05
1.68794e-05
2.1985e-05
2.14444e-05
2.59035e-05
2.67269e-05
3.11784e-05
3.27193e-05
3.82878e-05
4.74094e-05
3.95703e-05
1.35469e-06
6.71814e-06
3.14301e-06
8.53167e-06
5.27514e-06
1.0054e-05
7.82363e-06
1.16676e-05
1.08648e-05
1.33799e-05
1.44963e-05
1.53071e-05
1.88217e-05
1.76596e-05
2.39281e-05
2.07971e-05
2.9881e-05
2.52256e-05
3.66356e-05
3.15332e-05
4.00799e-05
4.3965e-05
1.44424e-06
5.2739e-06
3.34412e-06
6.63179e-06
5.62381e-06
7.77428e-06
8.34964e-06
8.94179e-06
1.15977e-05
1.01319e-05
1.54695e-05
1.14353e-05
2.00645e-05
1.30647e-05
2.54902e-05
1.53714e-05
3.18528e-05
1.8863e-05
3.92428e-05
2.41432e-05
3.16402e-05
4.76826e-05
1.47458e-06
3.79933e-06
3.40958e-06
4.69679e-06
5.75147e-06
5.43238e-06
8.55414e-06
6.13912e-06
1.18839e-05
6.80213e-06
1.58265e-05
7.4927e-06
2.0482e-05
8.40913e-06
2.59697e-05
9.88375e-06
3.24595e-05
1.23731e-05
4.02172e-05
1.63855e-05
2.20641e-05
4.97933e-05
1.43415e-06
2.36518e-06
3.3559e-06
2.77504e-06
5.67983e-06
3.10845e-06
8.43546e-06
3.38349e-06
1.16812e-05
3.55636e-06
1.54919e-05
3.68204e-06
1.99592e-05
3.94186e-06
2.51981e-05
4.64482e-06
3.13728e-05
6.19836e-06
3.86512e-05
9.10706e-06
1.37675e-05
4.69479e-05
8.41972e-07
2.84628e-06
5.19995e-06
7.80576e-06
1.07706e-05
1.41649e-05
1.8117e-05
2.28258e-05
2.85137e-05
3.54678e-05
4.40623e-05
-5.47825e-06
-7.37588e-06
1.28541e-05
-8.78187e-06
-8.4605e-06
1.17641e-05
-1.15443e-05
-1.0096e-05
1.28584e-05
-1.45094e-05
-1.18896e-05
1.48547e-05
-1.76517e-05
-1.36721e-05
1.68143e-05
-2.09096e-05
-1.53405e-05
1.85985e-05
-2.4474e-05
-1.6865e-05
2.04294e-05
-2.85426e-05
-1.81788e-05
2.22475e-05
-3.32845e-05
-1.91447e-05
2.38866e-05
-3.89091e-05
-1.95359e-05
2.51605e-05
-1.89553e-05
2.57335e-05
-4.56873e-05
-4.97593e-06
-2.39995e-06
-9.07174e-06
-4.3647e-06
-1.27494e-05
-6.41834e-06
-1.61802e-05
-8.45883e-06
-1.95103e-05
-1.03419e-05
-2.29001e-05
-1.19508e-05
-2.65654e-05
-1.31996e-05
-3.07444e-05
-1.39999e-05
-3.56875e-05
-1.42016e-05
-4.16777e-05
-1.35458e-05
-1.16345e-05
-4.89984e-05
-2.72498e-06
3.25032e-07
-5.79628e-06
-1.2934e-06
-9.22707e-06
-2.98754e-06
-1.28963e-05
-4.78957e-06
-1.67216e-05
-6.51666e-06
-2.07191e-05
-7.95327e-06
-2.50143e-05
-8.90446e-06
-2.98037e-05
-9.21053e-06
-3.53263e-05
-8.6789e-06
-4.18407e-05
-7.03143e-06
-3.80715e-06
-4.96681e-05
-1.48622e-06
1.81125e-06
-3.67173e-06
8.92108e-07
-6.54119e-06
-1.18087e-07
-9.90855e-06
-1.42221e-06
-1.3703e-05
-2.72224e-06
-1.79083e-05
-3.74796e-06
-2.25693e-05
-4.24347e-06
-2.7797e-05
-3.98281e-06
-3.37524e-05
-2.7235e-06
-4.06301e-05
-1.53756e-07
4.27058e-06
-4.87078e-05
-7.99358e-07
2.61061e-06
-2.26174e-06
2.35449e-06
-4.48629e-06
2.10646e-06
-7.4212e-06
1.5127e-06
-1.10047e-05
8.61285e-07
-1.51557e-05
4.02972e-07
-1.98275e-05
4.28338e-07
-2.50981e-05
1.2878e-06
-3.11477e-05
3.32612e-06
-3.82379e-05
6.93649e-06
1.26514e-05
-4.66188e-05
-7.07179e-07
3.31779e-06
-1.81452e-06
3.46183e-06
-3.42368e-06
3.71562e-06
-5.70082e-06
3.78984e-06
-8.72109e-06
3.88155e-06
-1.2491e-05
4.17286e-06
-1.70167e-05
4.95404e-06
-2.23013e-05
6.57244e-06
-2.84041e-05
9.4289e-06
-3.54649e-05
1.39973e-05
2.09307e-05
-4.37442e-05
-6.84786e-07
4.00257e-06
-1.74264e-06
4.51968e-06
-3.14654e-06
5.11952e-06
-5.07703e-06
5.72034e-06
-7.65517e-06
6.45969e-06
-1.09734e-05
7.49108e-06
-1.50849e-05
9.06556e-06
-2.00272e-05
1.15148e-05
-2.58571e-05
1.52588e-05
-3.26727e-05
2.08129e-05
2.88385e-05
-4.05805e-05
-6.94691e-07
4.69727e-06
-1.66131e-06
5.4863e-06
-2.95645e-06
6.41466e-06
-4.68808e-06
7.45197e-06
-6.9723e-06
8.74391e-06
-9.92552e-06
1.04443e-05
-1.36402e-05
1.27802e-05
-1.81941e-05
1.60687e-05
-2.36652e-05
2.07298e-05
-3.01675e-05
2.73152e-05
3.65589e-05
-3.78879e-05
-6.6646e-07
5.36373e-06
-1.59143e-06
6.41127e-06
-2.79671e-06
7.61994e-06
-4.38199e-06
9.03725e-06
-6.45347e-06
1.08154e-05
-9.12191e-06
1.31127e-05
-1.24966e-05
1.61549e-05
-1.66781e-05
2.02502e-05
-2.17719e-05
2.58236e-05
-2.79093e-05
3.34527e-05
4.3918e-05
-3.52683e-05
-5.84065e-07
5.94779e-06
-1.42878e-06
7.25598e-06
-2.54143e-06
8.73259e-06
-4.00119e-06
1.0497e-05
-5.89797e-06
1.27122e-05
-8.33764e-06
1.55524e-05
-1.14302e-05
1.92475e-05
-1.52884e-05
2.41083e-05
-2.00377e-05
3.0573e-05
-2.58111e-05
3.9226e-05
5.08427e-05
-3.27358e-05
-5.06347e-07
6.45414e-06
-1.27605e-06
8.02569e-06
-2.29497e-06
9.75151e-06
-3.63177e-06
1.18338e-05
-5.37022e-06
1.44506e-05
-7.60822e-06
1.77904e-05
-1.04517e-05
2.2091e-05
-1.40157e-05
2.76723e-05
-1.84244e-05
3.49816e-05
-2.38177e-05
4.46193e-05
5.74021e-05
-3.03771e-05
-5.00051e-07
6.95419e-06
-1.22125e-06
8.74689e-06
-2.15971e-06
1.069e-05
-3.38365e-06
1.30577e-05
-4.97344e-06
1.60404e-05
-7.01795e-06
1.98349e-05
-9.61773e-06
2.46908e-05
-1.28884e-05
3.09429e-05
-1.69527e-05
3.9046e-05
-2.19489e-05
4.96155e-05
6.34475e-05
-2.79943e-05
-4.61639e-07
7.41583e-06
-1.1149e-06