/*--------------------------------*- C++ -*----------------------------------*\
| =========                 |                                                 |
| \\      /  F ield         | OpenFOAM: The Open Source CFD Toolbox           |
|  \\    /   O peration     | Version:  3.0.1                                 |
|   \\  /    A nd           | Web:      www.OpenFOAM.org                      |
|    \\/     M anipulation  |                                                 |
\*---------------------------------------------------------------------------*/
FoamFile
{
    version     2.0;
    format      ascii;
    class       volScalarField;
    location    "0.996057";
    object      epsilon;
}
// * * * * * * * * * * * * * * * * * * * * * * * * * * * * * * * * * * * * * //

dimensions      [0 2 -3 0 0 0 0];

internalField   nonuniform List<scalar> 
21246
(
890.731
288.704
134.277
63.8208
27.9785
10.9556
4.01092
1.4472
0.525064
0.19511
0.0788486
746.326
208.957
107.969
54.5253
24.8546
10.2167
3.88848
1.41703
0.509263
0.186546
0.0744361
496.11
171.697
93.8025
51.523
25.1766
10.8534
4.23077
1.543
0.544019
0.1936
0.076023
345.163
140.493
82.875
48.5258
25.2196
11.4318
4.61238
1.72021
0.61386
0.21791
0.0836739
249.783
105.234
66.3076
43.0723
24.6496
12.0646
5.11164
1.9573
0.705755
0.246933
0.0892445
200.973
84.0037
53.8829
36.1462
21.8415
11.3676
5.07642
2.00727
0.734733
0.26095
0.0983418
171.647
70.0853
45.4464
30.83
18.8785
10.0447
4.63782
1.90939
0.725886
0.264918
0.100524
151.77
60.5632
39.2377
26.6918
16.4942
8.90614
4.19944
1.77545
0.694849
0.261199
0.104702
137.349
53.5373
34.4878
23.4301
14.5292
7.91283
3.78764
1.63676
0.658819
0.255581
0.105345
126.289
48.2217
30.8466
20.9163
12.9909
7.11516
3.44377
1.51442
0.624185
0.248547
0.103551
117.295
44.0353
28.0028
18.9685
11.8008
6.49398
3.17112
1.41381
0.593359
0.240829
0.103525
110.594
40.6417
25.7167
17.4163
10.8612
6.00729
2.95788
1.33459
0.568856
0.235115
0.103136
105.974
37.9572
23.904
16.2047
10.1427
5.64371
2.80222
1.27833
0.552672
0.232283
0.103062
102.582
35.9428
22.5289
15.313
9.63837
5.40282
2.70617
1.24697
0.545341
0.23184
0.104354
100.961
34.41
21.4721
14.6573
9.29934
5.26341
2.66296
1.23919
0.547048
0.234216
0.105278
101.095
33.3359
20.7163
14.2318
9.12821
5.23148
2.67832
1.25849
0.559514
0.240223
0.107526
102.657
32.7836
20.2904
14.0631
9.15446
5.33155
2.76754
1.31263
0.58619
0.251091
0.111416
106.651
32.8505
20.2111
14.1565
9.39339
5.58558
2.94903
1.41236
0.632074
0.268914
0.117598
114.058
33.9499
20.6289
14.5811
9.91561
6.06958
3.27928
1.58461
0.708128
0.29854
0.128487
126.363
36.4545
21.7092
15.3954
10.7351
6.80501
3.80549
1.88817
0.855206
0.36157
0.153125
146.788
41.2184
23.7797
16.7621
11.9329
7.8447
4.58241
2.37624
1.11872
0.48873
0.208529
183.816
49.2367
27.3151
18.8525
13.5671
9.22144
5.66622
3.12981
1.57898
0.741143
0.333867
251.711
60.2109
32.2237
21.9652
15.8699
11.104
7.20245
4.29752
2.38168
1.24177
0.619656
431.55
67.263
40.0849
25.3747
18.9266
13.9265
9.71675
6.37184
3.9451
2.32524
1.32094
877.629
473.481
240.073
119.37
55.6658
19.8941
6.40149
2.11599
0.719144
0.25727
0.101532
833.387
493.612
317.946
187.764
102.155
47.7552
18.3756
5.03979
1.24938
0.405974
0.150742
347.428
427.586
332.408
227.011
140.756
77.1256
35.962
13.0008
3.31665
0.722982
0.242064
289.596
333.533
330.291
250.705
170.428
103.731
55.2098
24.318
8.12577
1.95212
0.438129
301.217
244.597
318.928
279.24
200.673
129.628
75.0189
37.5953
15.3548
4.73937
1.15209
289.554
199.548
268.263
315.415
247.36
163.852
98.1864
52.8536
24.5407
9.23672
2.72531
278.402
174.874
213.621
301.204
302.932
214.716
130.408
71.9744
35.7579
15.2953
5.36279
270.535
157.348
178.57
253.639
324.651
273.863
175.031
97.6676
49.7784
22.8342
9.07491
266.535
143.002
152.115
209.493
295.19
315.568
226.983
130.956
67.4638
31.9522
13.6916
266.212
131.366
131.463
174.551
250.055
317.64
269.764
167.134
87.9355
42.3771
18.9688
269.503
122.037
115.528
145.742
206.003
284.036
288.817
197.253
107.791
52.9047
24.4006
275.947
117.17
104.407
122.851
168.57
241.609
282.139
213.097
121.96
61.3565
29.1366
286.666
115.003
96.9295
105.785
138.126
198.717
253.936
211.743
126.445
65.5521
32.1876
302.135
116.317
92.9612
94.1128
114.819
159.29
215.416
195.924
120.398
64.5303
33.1128
324.132
122.408
92.1616
86.6629
97.8706
125.223
165.899
173.251
105.924
58.881
32.2159
352.946
132.048
93.3077
80.5075
83.157
97.6458
118.684
132.732
92.5134
51.1051
30.1674
392.158
146.878
97.5327
76.3702
70.8819
75.8112
85.4373
92.0939
77.4057
46.2322
27.79
448.907
169.808
107.263
76.4987
63.6743
62.3294
66.0563
69.2442
64.7405
45.6195
27.0299
537.069
205.928
127.39
84.8836
64.6125
58.9683
60.1
62.3598
60.7128
49.9405
29.472
685.267
267.587
172.086
113.222
82.6876
73.0322
74.4718
77.2256
74.3922
62.531
37.1549
928.798
380.175
280.014
207.651
159.015
141.511
132.101
122.624
107.27
79.5267
49.1719
1166.12
482.035
381.223
308.762
228.195
167.503
132.142
99.3187
71.9968
49.5451
32.2614
983.72
469.385
357.297
254.683
179.821
124.432
85.7641
58.0568
38.4319
24.7937
15.5089
806.921
405.952
234.319
145.379
93.8327
61.4814
40.1415
25.7339
16.0494
9.68776
5.64958
187.72
76.8199
17.6801
3.94567
1.26067
0.657371
0.470871
0.389472
0.34081
0.302121
0.264638
309.001
167.47
17.6847
5.19123
1.50414
0.725153
0.472726
0.368408
0.310828
0.269539
0.234318
400.261
213.454
19.9403
6.74936
1.67777
0.80577
0.488987
0.361178
0.290452
0.239267
0.191378
449.746
202.101
22.3514
7.54674
1.73396
0.875637
0.504852
0.359542
0.278151
0.219837
0.167537
468.88
182.998
23.5699
7.49802
1.75454
0.922048
0.513575
0.360311
0.271679
0.209372
0.156363
470.912
172.898
24.2565
7.18029
1.77931
0.945053
0.517163
0.362186
0.268802
0.204702
0.152209
458.373
170.9
24.9879
6.90274
1.81815
0.952519
0.519555
0.364587
0.268222
0.203293
0.150006
433.533
171.379
26.5329
6.7631
1.87144
0.9519
0.523462
0.367359
0.269391
0.204346
0.151751
402.944
172.564
29.4783
7.16151
1.95138
0.951257
0.531024
0.370761
0.272132
0.207156
0.154631
370.162
176.155
35.1394
8.38458
2.22362
0.985133
0.54837
0.375848
0.27659
0.211482
0.158963
334.175
181.854
42.795
10.5915
2.77326
1.0838
0.581837
0.387018
0.284248
0.21789
0.165355
296.428
188.918
51.1634
13.6296
3.65774
1.28522
0.639504
0.405672
0.294836
0.225803
0.173283
260.303
196.962
60.92
17.783
5.06796
1.67375
0.748791
0.439729
0.310323
0.235851
0.182386
226.348
205.998
73.1491
23.6507
7.33426
2.40826
0.971679
0.50914
0.336586
0.249796
0.193196
195.22
216.985
87.0971
31.0905
10.5799
3.63519
1.39632
0.651517
0.387273
0.272113
0.207179
168.635
230.077
103.83
40.7333
15.1845
5.60315
2.17307
0.94223
0.49499
0.315359
0.228834
147.735
244.645
124.996
53.9166
21.9191
8.75604
3.56185
1.52457
0.731278
0.411719
0.2715
135.357
262.84
151.73
71.9005
31.7197
13.7034
5.95172
2.63771
1.23356
0.63384
0.370566
135.303
285.166
186.053
97.262
46.501
21.6595
10.0859
4.73469
2.27389
1.13969
0.613162
151.511
308.881
228.277
133.544
69.7599
35.0998
17.5488
8.79421
4.44664
2.28566
1.20946
183.775
325.8
272.233
182.559
106.656
58.8214
31.8309
17.1318
9.22113
4.97893
2.70894
234.496
326.345
303.017
237.396
160.636
100.18
59.9725
35.1656
20.3862
11.7387
6.72123
270.098
316.916
291.227
257.883
206.832
151.986
104.629
68.9167
44.0826
27.6738
17.0339
586.743
332.92
292.071
251.236
203.364
159.822
121.73
89.9454
64.6158
45.3445
30.9577
156.237
65.0909
17.4581
3.70455
1.19623
0.665412
0.507139
0.440451
0.401892
0.371733
0.341606
258.096
94.139
12.2765
3.63379
1.4329
0.823614
0.615108
0.534285
0.496677
0.475149
0.458853
315.891
115.076
11.0851
4.03013
1.5961
0.963447
0.737775
0.651885
0.616179
0.598585
0.586147
330.738
103.362
10.4965
4.22926
1.64056
1.02063
0.791418
0.715063
0.698206
0.707838
0.729975
323.772
83.4515
9.87651
4.08143
1.60496
1.03809
0.814353
0.74703
0.744247
0.775786
0.829081
311.322
67.3783
9.18057
3.76993
1.54347
1.03515
0.818402
0.757013
0.761545
0.807201
0.885918
298.9
56.0131
8.50051
3.44417
1.4803
1.0225
0.810616
0.75194
0.755036
0.800019
0.880003
285.626
47.8255
7.85481
3.15561
1.42096
1.00157
0.796199
0.736936
0.732871
0.767912
0.835932
275.501
41.8084
7.29451
2.91688
1.3723
0.974954
0.778168
0.714814
0.699993
0.71751
0.755087
269.687
37.4793
6.83672
2.73133
1.33715
0.947861
0.757861
0.688254
0.661472
0.660255
0.668177
268.961
34.6199
6.51202
2.60041
1.31374
0.924384
0.737263
0.660079
0.621732
0.604501
0.593324
271.189
32.6952
6.27746
2.51104
1.30022
0.905264
0.718029
0.63268
0.584026
0.554119
0.528364
275.643
32.6863
6.23837
2.47841
1.30359
0.893093
0.702777
0.608171
0.550673
0.511284
0.477831
281.634
35.2674
6.81009
2.56477
1.34759
0.89679
0.696136
0.589272
0.523459
0.476546
0.439038
289.755
39.2215
7.90258
2.79723
1.43913
0.922306
0.700548
0.57823
0.503577
0.450341
0.410555
300.85
44.8315
9.7221
3.27497
1.61171
0.984507
0.722574
0.578964
0.493011
0.433364
0.391257
315.792
52.7017
12.5933
4.18002
1.94321
1.11679
0.777602
0.599304
0.495886
0.427388
0.381164
336.596
63.1005
16.8551
5.77807
2.58226
1.39247
0.902499
0.658049
0.522346
0.437775
0.382843
366.069
76.9312
23.0659
8.48981
3.80667
1.97431
1.18928
0.806434
0.601629
0.481421
0.406667
409.174
96.1485
32.3542
13.0611
6.13992
3.21245
1.86439
1.1872
0.823527
0.615573
0.490075
475.68
124.602
46.9318
20.9497
10.6067
5.84397
3.45722
2.17638
1.45367
1.02847
0.769083
586.824
170.907
72.0214
35.5495
19.5262
11.5251
7.19007
4.69502
3.19471
2.26264
1.66918
798.818
270.743
127.942
69.185
40.8747
25.6786
16.8862
11.5193
8.1147
5.89359
4.40998
1057.29
500.185
283.464
177.47
120.275
86.5477
65.0996
50.4719
39.8449
31.7221
25.1854
1183.67
481.355
143.739
50.6805
16.7508
5.66431
2.24787
1.15091
0.75033
0.576054
0.491353
1359.51
655.029
247.161
90.4459
27.252
8.37309
3.00048
1.39249
0.84803
0.633945
0.542062
1159.95
597.249
288.896
123.482
44.8457
13.5979
4.08793
1.70983
0.976387
0.70899
0.613085
814.654
503.316
290.321
142.098
59.6639
20.7286
6.20373
2.12721
1.12336
0.791174
0.683335
509.902
415.362
276.237
153.163
72.6604
28.7383
9.52932
3.0692
1.32812
0.880137
0.749129
296.354
337.755
255.507
160.016
85.1334
38.0314
14.2558
4.79806
1.82368
1.02065
0.815642
159.14
269.56
232.638
162.765
96.3436
48.2528
20.476
7.59669
2.80276
1.31855
0.919144
85.059
217.273
211.146
161.634
104.953
58.2915
27.776
11.552
4.48585
1.91804
1.12094
69.5049
180.632
193.328
158.091
110.749
67.244
35.5298
16.523
7.01541
2.99014
1.52355
69.2573
143.374
175.639
153.947
114.813
74.945
43.2167
22.2165
10.4029
4.67936
2.25821
56.9606
96.2671
149.463
148.235
117.826
81.4636
50.3656
28.1668
14.4539
7.02017
3.44039
41.3995
56.3306
112.13
135.127
118.19
86.4559
56.526
33.8387
18.8005
9.88757
5.11056
29.7491
33.7171
73.9665
111.263
112.652
88.8175
61.2119
38.7641
23.0303
13.039
7.19663
21.7861
20.8772
44.4841
80.8428
98.8111
86.6525
63.5154
42.3752
26.6813
16.1374
9.5141
17.0706
13.9531
25.9929
52.9238
78.6444
78.8179
62.3554
43.9396
29.2103
18.7648
11.7821
14.5827
10.5527
16.4184
32.8003
57.0168
66.2545
57.3694
42.9869
30.2019
20.5587
13.6748
13.1567
8.69176
11.431
20.2883
37.8935
51.3432
49.1404
39.458
29.4236
21.2242
14.8823
12.1813
7.50947
8.57699
13.5498
23.7189
36.4751
39.0954
33.8214
26.905
20.5713
15.1658
11.7181
6.80277
6.75402
9.62751
15.3014
23.733
28.8354
27.0027
23.0009
18.6847
14.3991
11.9569
6.55592
5.62389
7.19963
10.3532
15.1524
19.6833
20.1184
18.3212
15.848
12.802
12.8917
6.55841
5.02159
5.7644
7.49374
10.1184
13.0411
14.1708
13.6435
12.5422
10.7404
14.4172
7.06677
4.99001
5.30961
6.30424
7.77938
9.28345
10.0388
9.94943
9.51008
8.56209
19.6361
10.7597
8.42371
8.1544
8.29646
8.58935
8.74005
8.60844
8.21791
7.72804
6.9613
98.4814
68.2142
39.8897
27.4873
20.3587
15.4336
12.2013
10.1214
8.62782
7.42569
6.40302
1182.11
289.156
110.209
37.2069
12.2926
4.42247
1.90454
1.03908
0.698587
0.537915
0.448357
919.681
237.242
90.8942
35.1787
12.737
4.78
2.05405
1.09293
0.716009
0.540312
0.442293
772.336
231.053
86.6125
37.221
14.9282
5.75409
2.39778
1.21565
0.766439
0.565005
0.455259
618.388
201.883
77.4153
35.9098
15.7718
6.53516
2.79642
1.38904
0.847083
0.611755
0.48977
499.197
165.888
67.6277
32.736
14.9625
6.57357
2.97165
1.52348
0.935374
0.672877
0.537852
413.825
136.04
59.0247
29.6971
14.1113
6.46689
3.03113
1.59316
0.989681
0.716484
0.579282
351.346
113.649
52.0806
27.0745
13.3247
6.37624
3.12069
1.69088
1.05835
0.759721
0.610546
303.933
96.8957
46.5636
24.9814
12.7313
6.37212
3.27071
1.83618
1.15792
0.816364
0.640362
268.814
84.4527
42.3328
23.4571
12.411
6.51882
3.52426
2.06005
1.31464
0.908655
0.687162
242.413
75.122
39.2081
22.4437
12.3938
6.85365
3.91743
2.39838
1.56117
1.06052
0.762111
222.295
68.3635
36.9832
21.9043
12.6901
7.40496
4.48903
2.89538
1.94363
1.31556
0.905957
206.034
63.1
35.3383
21.7387
13.2488
8.17454
5.26664
3.59571
2.51797
1.73021
1.15846
193.01
59.0198
34.1805
21.8879
14.0461
9.16491
6.26995
4.53781
3.34244
2.37335
1.59107
182.19
56.7478
33.5813
22.3337
15.082
10.3923
7.51537
5.73878
4.45482
3.32158
2.29345
172.941
55.1258
33.2381
22.8854
16.2157
11.757
8.92499
7.12373
5.78346
4.53299
3.28215
164.898
53.9811
33.042
23.4414
17.3257
13.1352
10.3797
8.5768
7.21427
5.90467
4.49304
157.653
53.168
32.8953
23.8967
18.2841
14.3809
11.7302
9.94675
8.59039
7.27595
5.80054
151.205
52.3721
32.6321
24.115
18.9469
15.3365
12.8151
11.0703
9.74057
8.46316
7.01264
145.775
51.4631
32.1353
23.9899
19.2003
15.8751
13.5021
11.8132
10.5218
9.31164
7.96027
142.146
50.5982
31.4117
23.4988
19.0066
15.9435
13.7286
12.1069
10.8536
9.72708
8.5208
142.316
50.241
30.6708
22.7654
18.4539
15.6023
13.5325
11.9709
10.7397
9.68393
8.64335
150.887
51.6144
30.5032
22.1803
17.8355
15.08
13.0881
11.5325
10.2685
9.22544
8.318
180.202
58.1088
32.5043
22.7329
17.9106
15.0365
12.9685
11.2447
9.75949
8.56734
7.66715
295.746
72.5836
41.7341
30.316
24.608
20.6105
16.9128
13.4229
10.5075
8.38336
7.05027
36.9723
50.8825
60.9976
69.5776
72.8661
69.3059
66.0722
65.3718
63.5214
20.4604
22.1861
22.3727
23.425
23.769
23.3221
21.222
19.9964
19.4443
14.9111
13.622
12.2249
12.3606
12.99
12.9827
11.6557
10.6154
10.0429
10.217
8.43944
7.44279
7.27979
7.62632
7.50101
6.48851
5.85719
5.70885
18.1295
5.62871
3.87102
3.63245
5.05791
18.7612
37.1426
49.8054
57.6995
16.3082
7.36532
2.40201
2.79255
6.4769
13.1865
18.3217
19.5161
19.2892
14.4482
8.13076
2.67083
2.95854
6.28023
11.0274
12.8057
11.5214
10.204
11.474
7.8765
2.98408
3.00041
5.78017
8.70413
8.79902
7.21602
6.10118
0.00901348
0.00829516
0.00834925
0.00545141
0.470612
0.00754621
0.134817
0.0081071
0.00751842
0.00695341
0.469956
0.00814199
0.0102104
0.00519777
0.014609
0.00728703
0.00615991
0.00535932
0.00725141
0.00710793
0.00663328
0.0647037
0.00851952
0.120238
0.00792144
0.00513364
0.00980453
0.125029
0.902234
0.386482
0.00734315
0.00643119
0.00709343
0.00807078
0.00681701
0.00826348
0.10975
0.00790454
0.00800598
0.00757081
0.145295
0.00810233
0.0386719
0.00849488
0.717555
0.28251
0.0189479
0.422623
0.00693185
0.00737228
0.39096
0.00759147
0.022675
0.0394038
0.0073502
0.00666153
0.0617967
0.0076116
0.911087
0.0123725
0.0776132
0.0155369
0.515669
0.0349173
0.169256
0.00714778
0.371426
0.00731562
0.00829654
0.0069417
0.00515155
0.00715654
0.0144207
0.00775622
0.013281
0.00709896
0.0806502
0.00828287
0.0564708
1.21778
0.269785
0.0262845
0.00793351
0.00838192
0.00698698
0.0144355
1.49455
0.0149526
0.0198776
0.107899
0.0080925
0.00764901
0.161119
0.0073847
1.15248
0.810975
0.00679161
0.00607198
0.0251095
0.0073035
0.00778612
0.309386
0.00680118
0.00616351
0.0148265
0.00812561
0.00460558
0.00845337
0.0154444
0.00662311
0.00797617
0.00815404
0.00722019
0.00644269
0.0206397
0.00768973
0.0075256
0.00732566
0.00794526
0.0067334
0.00690628
0.00759315
0.00914959
0.00506669
0.223283
0.00782139
0.351309
0.00472067
0.0066282
0.0095512
0.00778423
0.0124732
0.358021
0.00710412
0.00833927
0.00815624
0.0637516
0.0158134
0.409211
0.00735013
0.0406434
0.00659131
0.214975
0.00868035
0.00749883
0.0253187
0.0154771
0.0072901
0.00710989
0.00709204
0.0072067
0.00766764
0.0280982
0.00756001
0.00606512
0.0212183
0.0190041
0.0416507
0.00544144
0.00747686
0.00549436
0.0336543
0.00714324
0.00771341
0.379129
0.0262616
0.0204885
0.00687137
0.0071207
0.165095
0.00588031
0.00540689
0.00815593
0.0064562
0.00641949
0.00641649
0.00581106
0.029441
0.736188
0.0069586
0.00728691
0.0700753
0.00849939
0.114138
0.00795877
0.0124133
0.0071348
0.00727887
0.00825301
0.0810146
0.0144055
0.0053319
0.00719184
0.143545
0.00832478
0.00760396
0.00743097
0.0259784
0.0102822
0.00856741
0.0267288
0.00736075
0.0135782
0.00793024
0.00838645
0.0150067
0.00736544
0.00659654
0.00740726
0.00740851
0.12628
0.00759116
0.00827535
0.0067371
0.00791723
0.0116151
0.00798139
0.0250697
0.00720436
0.0112209
0.0104744
0.00648708
0.00699752
0.0209069
0.00485137
0.00762836
0.0773266
0.02441
0.012669
0.152185
0.0413968
0.00713931
0.00718508
0.00756714
0.0282324
1.44184
0.328484
0.00845244
0.00815782
0.00811639
0.0251794
0.0329678
0.00613295
0.134796
0.00794991
0.0403022
0.00800886
0.00825471
0.450473
0.353146
0.00819838
0.128562
0.01055
0.00727998
0.00601881
0.00745829
0.00672708
0.00785606
0.0193549
0.00711141
0.0083859
0.00972684
0.00738281
0.00820361
0.00796877
0.0168666
0.00658072
0.00845357
0.0176521
0.00694341
0.209673
0.00732653
0.00733696
0.0178196
0.00756982
0.00736581
0.0053922
0.00776626
0.00692066
0.0183597
0.00723373
0.0082854
0.272172
0.305898
0.00603125
0.00759332
1.2646
0.00825376
0.00683484
0.0398412
0.00834919
0.116694
0.00686379
0.00968743
0.008566
0.00742751
0.00707239
0.00817114
0.00681822
0.00539098
0.00776587
0.00899012
0.00711126
0.394885
0.00676612
0.00662076
0.00828643
0.079434
0.0680572
0.00743421
0.0898391
0.00816811
0.00644789
0.0068544
0.0845297
0.00656218
0.0071553
0.0146529
0.00671126
0.00757585
0.00712046
0.204821
0.00746227
0.00538304
0.0238178
0.00676341
0.00778416
0.00598055
0.00709399
0.145842
0.00751632
0.529905
0.0796579
0.00846265
0.0114842
0.818715
0.0157876
0.00824549
0.00785592
0.00594894
0.0280466
0.122967
0.0073392
0.0264405
0.188012
0.0804371
0.019892
0.00753317
0.0939055
0.386029
0.119279
0.00583776
0.00700649
0.00682503
0.0131988
0.0086027
0.0110698
0.00696043
0.00849926
0.190683
0.00986403
0.00538524
0.00800714
0.00798934
0.00728323
0.0193498
0.00509535
0.0165567
0.150167
0.00764882
0.00774303
0.110148
0.618029
0.00477467
0.0119801
0.00832095
0.00905229
0.00676641
0.00753103
0.00711691
0.234938
0.00755887
0.0244753
0.0076525
0.00529115
0.326313
0.00838246
0.00481319
0.0317116
0.0225623
0.00770267
0.0547888
0.00467207
0.00774846
0.343355
0.173176
0.00787455
0.00722956
0.00835936
0.0357445
0.0190868
0.00764553
0.00850504
0.0407403
0.00759642
0.181449
0.0530481
0.0325552
0.00735478
0.203572
0.0069228
0.00720431
0.0111317
0.0105858
0.030549
0.00639615
0.0145884
0.00806599
0.00485793
0.0419521
0.296583
0.00617542
0.165307
0.0139037
0.00628563
0.00660087
0.00767849
0.0281237
0.00797274
0.187986
0.00790005
0.02432
0.00510404
0.00663384
0.00670554
0.0142659
0.194257
0.412155
0.00511937
0.00859998
0.005967
1.55677
0.00509591
0.00864793
0.00686577
0.0249
0.0111996
0.0417386
0.00742587
0.0350246
0.00774518
0.0083373
0.00794301
0.0307521
0.0183933
0.162095
0.00584577
0.0285864
0.0266624
0.00825963
0.00741208
0.369495
0.00506025
0.00599185
0.00697101
0.144961
0.116102
0.0902244
0.0916648
0.00746962
0.00657702
0.0163589
0.00700533
0.0779074
0.00689422
0.00824382
0.00735281
0.0347678
0.0327964
0.00715558
0.00777875
0.0066811
0.0952473
0.0711795
0.00845396
0.0244136
0.239895
0.00941385
0.0162772
0.0074134
0.0288805
0.00759714
0.0069253
0.00761199
0.00833839
0.00641443
0.00715907
0.00536176
0.00853679
0.00822383
0.00566111
0.00594674
0.00808214
0.0080659
0.490078
0.019801
0.0128758
0.00754501
0.256973
0.00835783
0.27482
0.0162631
0.0241459
0.0217815
0.00793423
0.331277
0.0327088
0.00533251
0.00778668
0.00634859
0.00667604
0.00827918
0.00769462
0.00819651
0.00674668
0.228591
0.008009
0.00745709
0.0840266
0.00773696
0.161283
0.00684587
0.0625995
0.00560064
0.0194982
0.00856526
0.00786417
0.0084081
0.144395
0.0338755
0.00795443
0.00790844
0.00504446
0.00834294
0.00552454
0.00830831
0.199463
0.00681689
0.045037
0.00860842
0.00761792
0.34287
0.286192
0.00679693
0.0065641
0.00708406
0.00831265
0.0141695
0.0414927
0.00721471
0.00890766
0.455758
0.981228
0.00791668
0.00735963
0.00827753
0.0113357
0.340447
0.019111
0.00809315
0.00750609
0.305076
0.00725823
0.00874301
0.00716164
0.0408747
0.345518
0.00770953
0.0206691
0.00781969
0.034085
0.00738119
0.0127368
0.00606906
0.00643203
0.0888769
0.0363344
0.00841711
0.00854673
1.07327
0.00763276
0.00615796
0.0092678
0.0340462
0.00954405
0.0275843
0.00762321
0.00691163
0.00773556
0.00792158
0.667797
0.0157644
0.0120967
0.00711653
0.00794794
0.0427866
0.00708395
0.00754475
0.00684396
0.00708875
0.00842793
0.0156855
0.0335919
0.01813
0.00621595
0.0113933
0.00725616
0.0596233
0.00706465
0.0077965
0.499147
0.177988
0.00755197
0.00757285
0.0619593
0.00676633
0.00739336
0.0194666
0.0083111
0.00669622
0.0101681
0.00929776
0.00828378
0.00489935
0.00570473
0.0379417
0.137496
0.0350877
0.0326939
0.00626031
0.0207024
0.0271236
0.00849654
0.00836477
0.00679754
0.0247184
0.00606851
0.00698144
0.00689145
0.00512792
0.0403707
0.41389
0.00608506
0.0117142
0.0076898
0.0134128
0.00811855
0.00725854
0.00694215
0.0132183
0.00700187
0.00769257
0.00687366
0.00826636
0.0119638
0.05587
0.148092
0.00706536
0.00705784
0.00754988
0.0431755
0.00748679
0.127347
0.00716929
0.0182956
0.184373
0.00770629
0.0167032
0.00849873
0.00690904
0.0174708
0.00853995
0.424869
0.00556347
0.00667696
0.00841796
0.0124592
0.00508671
0.0319313
0.349667
0.00750578
0.00641117
0.00840468
0.00784363
0.00693233
0.0214337
0.00813811
0.00760812
0.00762076
0.00987795
0.0292563
0.00816108
0.00764907
0.00751228
0.02304
0.00547233
0.00647931
0.0112927
0.129201
0.0095893
0.00635973
0.00625857
0.00847606
0.0400827
0.0064593
0.147159
0.00784119
0.00687712
0.00791857
0.00745686
0.0835641
0.00716316
0.0300871
0.00518234
0.0072623
0.00668627
0.00670772
0.0276998
0.00824098
0.3324
0.0387336
0.193717
0.00659177
0.0102568
0.0243121
0.00950303
0.00751698
0.00884671
0.033413
0.0122573
0.00803954
0.00541302
0.451735
0.00811427
0.156355
0.00925496
0.00794929
0.0174366
0.00753374
0.00696727
0.00682645
0.00776997
0.00725864
0.00479471
0.00818993
0.006952
0.00710223
0.00935147
0.0197467
0.152113
0.0148122
0.00723991
0.168271
0.230516
0.00781834
0.00484107
0.00710842
0.0291319
0.0105317
0.0433255
0.00686319
0.0202622
0.00866273
0.00907567
0.00723043
0.00696275
0.00765467
0.0114073
0.0634547
0.00860671
0.00790694
0.00737057
0.252974
0.203222
0.00758107
0.00821061
0.00704912
0.00697994
0.00814137
0.00821974
0.00837548
0.00788478
0.00788925
0.00564048
0.0511815
0.0901821
0.00480012
0.00664126
0.00770006
0.00794501
0.00671716
0.220767
0.008274
0.0062305
0.00756186
0.241099
0.127719
0.0441786
0.00779574
0.0155437
0.00771183
0.00782271
0.194158
0.00715195
0.00817492
0.0069291
0.0418197
0.00602394
0.00593603
0.00813804
0.0105932
0.151433
0.0193503
0.00817021
0.00474522
0.0332301
0.0292564
0.018891
0.00843148
0.00720932
0.0052191
0.0141032
0.0266856
0.00829475
0.00687456
0.00780737
0.00736537
0.00825893
0.00626938
0.00625108
0.154315
0.211197
0.0399889
0.00811296
0.460711
0.00853309
0.00716209
0.00936805
0.00790663
0.00766359
0.00766129
0.0142541
0.0147162
0.0213762
0.00765321
0.0104966
0.00768601
0.0085989
0.00736439
0.00756096
0.00688977
0.00793306
0.00814834
0.00732589
1.45663
0.00753914
0.00713488
0.00708239
0.154436
0.00721348
0.00796967
0.0185655
1.38097
0.00707712
0.00780265
0.0111572
0.0125822
0.00846414
0.00808445
0.00674625
0.00860338
0.0448379
0.00828392
0.0822008
0.00976443
0.139041
0.00815291
0.00822017
0.00627607
0.0288569
0.00774973
0.00754908
0.00759615
0.00831878
0.00600884
0.171942
0.00677121
0.027358
0.259886
0.0297119
0.0060437
0.0406322
0.00851065
0.00815192
0.00513164
0.00828115
0.00615272
0.00759423
0.275973
0.00723049
0.0106979
0.00732362
0.00464013
0.00533551
0.0193209
0.00790584
0.00693323
0.00804117
0.275846
0.0650016
0.381436
0.00653217
0.0100865
0.00676045
0.0077675
0.317437
0.00754021
0.00830237
0.00609776
0.175818
0.0324306
0.0378988
0.00720447
0.00535844
0.0113373
0.647576
0.00801663
0.00679677
0.389666
0.00760103
0.0212846
0.00793113
0.0866507
0.00834779
0.0296613
0.00830773
0.00729551
0.0084474
0.00762535
0.0145549
0.00658846
0.00715013
0.00781082
0.00731672
0.00977791
0.0073358
0.0386079
0.00724845
0.00686017
0.171756
0.0237223
0.0434047
0.00832731
0.0411703
0.00738555
0.00828452
0.0265532
0.00646708
0.0350184
0.35367
0.00609661
0.0133287
0.00654076
0.00741816
0.0178514
0.0168869
0.00707697
0.0487218
0.00813198
1.385
0.0417046
0.845076
0.00812794
0.0209936
0.0117128
0.31148
0.00772934
0.0053603
0.00855546
0.00466005
0.117316
0.00816216
0.00890966
0.00786813
0.0284262
0.216109
0.00819021
0.00779129
0.00737338
0.0435637
0.00691805
0.160337
0.0113078
0.0617967
0.340373
0.00829064
0.0161127
0.0317807
0.0296354
0.0851637
0.0250519
0.00757989
0.0114181
0.00492346
0.00810167
0.00781496
0.00856602
0.00987132
0.00657175
0.00831959
0.00557351
0.0399698
0.00486499
0.00803128
0.108253
0.0146618
0.00689266
0.0106896
0.00813988
0.00707236
0.00736769
0.199522
0.00749486
0.011703
0.00616457
0.0242284
0.00797002
0.00695124
0.00796102
0.00753219
0.0177207
0.0495549
0.041488
0.62491
0.192152
0.659793
0.0068702
0.00698322
0.00926605
0.00839073
0.00586752
0.0150699
0.0069179
0.0837572
0.00609303
0.162096
0.00685996
0.00496261
0.0081207
0.295203
0.00862357
0.461339
0.00711477
0.00789999
0.0452033
0.0588668
0.00674357
0.0262567
0.0337342
0.0646604
0.125854
0.0199444
0.21826
0.00947367
0.00713389
0.272051
0.0190711
0.00832634
0.00621881
0.00813375
0.00504088
0.00528768
0.009782
0.00773696
0.0171062
0.612818
0.00752525
0.00729187
0.00681409
0.00819855
0.00991659
0.00542231
0.00698383
0.00557999
0.374125
0.00773985
0.630154
0.0722195
0.00776219
0.113066
0.0581438
0.0180191
0.00662893
0.139298
0.0076823
0.00803815
0.341198
0.00752154
0.00824296
0.00580537
0.00809861
0.00766468
0.174127
0.0076395
0.642721
0.0134283
0.0189601
0.00724111
0.0123941
0.0241809
0.00623527
0.210048
0.00776226
0.0114052
0.0267925
0.00714801
0.0150255
0.0304125
0.0225081
0.00747371
0.032857
0.0765343
0.00645351
0.00734625
0.0279173
0.0069483
0.0190095
0.0240828
0.352543
0.00711872
0.00860381
0.00796703
0.00618416
0.00812283
0.00478493
0.038877
1.21624
0.00786012
0.0240202
0.028049
0.00820495
0.0344433
0.00709827
0.00706504
0.987767
0.0490213
0.279665
0.165232
0.00816954
0.00793176
0.0220941
0.223544
0.19343
0.251766
0.00493918
0.00817521
0.00722713
0.00630999
0.230771
0.0477858
0.00879475
0.0073956
0.0280034
0.017664
0.0357115
0.00677614
0.091261
0.218614
0.00638693
0.00559063
0.00728705
0.00715924
0.216935
0.00543485
0.00853627
0.0151243
0.00783948
0.00638881
0.365295
0.00895809
0.010716
0.0332917
0.0219023
0.00750252
0.1955
0.0194141
0.00836583
0.00455518
0.0197985
0.00662633
0.335009
0.0080671
0.0076897
0.00701144
0.13174
0.00608954
0.00745827
0.0331535
0.00834153
0.00815363
0.00859551
0.00534368
0.00770602
0.0358174
0.0178056
0.00814845
0.460113
0.0347877
0.00826496
0.0312763
0.0067194
0.00519095
0.032549
0.00803866
0.008171
0.00789373
0.00742365
0.00793698
0.00721802
0.00798608
0.050815
0.0344178
0.0061304
0.0402909
0.0069308
0.0201258
0.0177261
0.00855508
0.00696699
0.0158798
0.00488482
0.00674767
0.00589896
0.00665845
0.006857
0.00796845
0.0380237
0.172683
0.0240744
0.0983029
0.00859361
0.0123098
0.37591
0.0164797
0.0129907
0.00759535
0.033701
0.0114495
0.115925
0.00478796
0.0204059
0.032482
0.00653284
0.00795299
0.93223
0.00482023
0.00674086
0.0293999
0.0282512
0.00584323
0.0119903
0.0143173
0.00464395
0.593683
0.249486
0.00790189
0.00728045
0.011301
0.0512045
0.0104543
0.00812065
0.00702266
0.00839307
0.00739087
0.0810779
0.0076151
0.00845573
0.13653
0.00834458
0.00735475
0.0077031
0.00756576
0.00671406
0.00857776
0.00725682
0.0110947
0.0070432
0.00879183
0.00804742
0.0312177
0.00819755
0.0135833
0.00770568
0.0209458
0.00838103
0.00767467
0.0579162
0.242966
0.00705486
0.00780867
0.0077426
0.0217509
0.00826907
0.00758787
0.00831878
0.00741186
0.00621657
0.00728692
0.0308813
0.00512182
0.0617243
0.00847767
0.00869847
0.00790147
0.00669188
0.00819004
0.00851965
0.00801903
0.165759
0.00748103
0.0163995
0.00790485
0.00799667
0.48158
0.00844979
0.00855447
0.141583
0.210909
0.0139313
0.00756132
0.0199076
0.0079023
0.00940718
0.0117533
0.0110323
0.00745128
0.00630797
0.0243158
0.00762758
0.0321273
0.00738539
0.0153502
0.0273843
0.00780498
0.0178654
0.007489
0.141178
0.015286
0.00499276
0.0324739
0.00643078
0.00596889
0.00840343
0.010432
0.0299426
0.00752474
0.00811571
0.0401639
0.00674172
0.00683869
0.0069006
0.0054786
0.00789352
0.0286145
0.0299982
0.00686718
0.017773
0.00798309
0.00818448
0.00703051
1.16778
0.00993566
0.00719356
0.163134
0.0321516
0.00821329
0.0070645
0.0289679
0.0105805
0.00660589
0.00724947
0.0156182
0.0397481
0.00753401
0.00693624
0.0755863
0.00715288
0.00830362
0.00736219
0.00691645
0.00776304
0.0247839
0.00763753
0.0339718
0.00640429
0.013407
0.00813035
0.00503654
0.0276506
0.0068966
0.0211771
0.00765513
0.00725803
0.0394977
0.0136508
0.00563237
0.0084593
0.00739251
0.22943
0.00702704
0.00715212
1.43281
0.00673248
0.00719309
0.00734807
0.00715089
0.00646917
0.00633869
0.0159095
0.00513573
0.0162425
0.00717342
0.00758497
0.0155264
0.00454074
0.00748431
0.0064567
0.00564209
0.00730392
0.287799
0.00855292
0.0267321
0.00747801
0.00687887
0.00586917
0.00733085
0.0124299
0.00795528
0.0072247
0.00674003
0.00756604
0.00837205
0.0351265
0.020321
0.0110286
0.010607
0.0396953
0.00667798
0.00755736
0.00745485
0.213478
0.00724294
0.00667136
0.345521
0.00679776
0.223154
0.154055
0.00693153
0.008102
0.00714589
0.00539417
0.00493241
0.00684906
0.00794993
0.022733
0.0367411
0.00477434
0.0349854
0.00781147
0.0708336
0.152985
1.00753
0.0106284
0.0117968
0.00500457
0.00829073
0.00690794
0.0249117
0.00790242
0.0110328
0.00531764
0.0123991
0.00523098
0.059891
0.0182093
0.028037
0.256784
0.00781527
0.341595
0.00995425
0.00660901
0.00602504
0.00867633
0.00840739
0.588372
0.00782456
0.290603
0.315838
0.00506477
0.0580356
0.0240056
0.289009
0.0073916
0.00766962
0.00741169
0.00727831
0.00765451
0.00621444
0.00715018
0.0222831
0.00764684
0.215553
0.0163408