/*--------------------------------*- C++ -*----------------------------------*\
| =========                 |                                                 |
| \\      /  F ield         | OpenFOAM: The Open Source CFD Toolbox           |
|  \\    /   O peration     | Version:  3.0.1                                 |
|   \\  /    A nd           | Web:      www.OpenFOAM.org                      |
|    \\/     M anipulation  |                                                 |
\*---------------------------------------------------------------------------*/
FoamFile
{
    version     2.0;
    format      ascii;
    class       surfaceVectorField;
    location    "0.996057";
    object      Uf;
}
// * * * * * * * * * * * * * * * * * * * * * * * * * * * * * * * * * * * * * //

dimensions      [0 1 -1 0 0 0 0];

internalField   nonuniform List<vector> 
32369
(
(6.80325 -2.42435 -1.30338e-19)
(5.96077 -3.08819 -1.42129e-18)
(7.62467 -1.18047 -2.32107e-18)
(6.1387 -1.9887 -8.48359e-20)
(5.73127 -2.77929 1.527e-18)
(6.19545 -1.09924 -9.94137e-19)
(5.78702 -1.65593 0)
(5.56738 -2.32457 -5.57844e-19)
(5.85763 -1.14936 0)
(5.48478 -1.35442 -1.81792e-21)
(5.38822 -1.91011 -1.88022e-19)
(5.69552 -1.05931 1.492e-19)
(5.18839 -1.10229 4.73126e-20)
(5.17515 -1.55451 9.67359e-20)
(5.43465 -0.906482 1.4269e-19)
(4.91292 -0.909448 1.65996e-19)
(4.93999 -1.26622 -8.85611e-20)
(5.12021 -0.758213 1.86325e-19)
(4.66171 -0.758564 8.08688e-20)
(4.70579 -1.04067 1.90502e-19)
(4.83532 -0.632778 1.52053e-19)
(4.43119 -0.63934 -1.10691e-20)
(4.48299 -0.864422 2.68706e-20)
(4.57785 -0.528152 -1.29807e-19)
(4.22072 -0.545896 1.13816e-19)
(4.27455 -0.725579 -4.48452e-20)
(4.34405 -0.445311 4.32046e-20)
(4.02874 -0.473464 2.96912e-19)
(4.0819 -0.617269 3.1456e-20)
(4.13357 -0.382383 1.10339e-19)
(3.90658 -0.545436 1.29338e-19)
(3.94845 -0.346834 -5.56448e-21)
(3.82486 -0.428896 3.52446e-19)
(4.90703 -3.69616 6.11929e-19)
(3.97318 -3.75401 -1.12513e-18)
(5.07524 -3.09411 1.09783e-18)
(4.41463 -3.4322 1.48114e-18)
(5.12334 -2.56284 -7.1184e-19)
(4.6736 -3.01428 -4.75073e-19)
(5.06288 -2.09972 -2.07046e-19)
(4.78168 -2.56291 -2.09351e-19)
(4.92407 -1.71108 -1.09858e-19)
(4.76908 -2.13844 7.17009e-20)
(4.74059 -1.39829 -8.57454e-20)
(4.67064 -1.76656 -1.01261e-19)
(4.54103 -1.15231 1.47871e-19)
(4.52249 -1.45693 9.10227e-20)
(4.34185 -0.960235 2.23915e-20)
(4.35255 -1.20714 4.80405e-20)
(4.15111 -0.810506 -1.34177e-19)
(4.1777 -1.00827 4.09932e-20)
(3.97303 -0.693123 -1.97174e-19)
(4.00649 -0.852147 -1.10552e-19)
(3.84559 -0.74019 -6.65219e-20)
(3.79088 -0.605947 -6.59962e-20)
(3.61603 -3.68126 1.04866e-19)
(2.83435 -3.53465 2.94132e-18)
(4.02465 -3.4215 1.29514e-19)
(3.38035 -3.42195 -4.04174e-18)
(4.30152 -3.05033 -8.36965e-20)
(3.7737 -3.22749 1.51856e-18)
(4.45366 -2.63201 7.22277e-21)
(4.05105 -2.90634 -1.24642e-19)
(4.49191 -2.21861 2.13683e-19)
(4.21076 -2.53477 -5.77354e-19)
(4.44075 -1.84582 9.39682e-20)
(4.26193 -2.16099 1.0918e-18)
(4.3316 -1.53003 -2.52733e-20)
(4.22848 -1.81744 -3.60472e-19)
(4.19192 -1.27282 6.52882e-20)
(4.14021 -1.52047 1.47766e-19)
(4.04088 -1.06839 1.21908e-19)
(4.02235 -1.27305 -5.24024e-20)
(3.89125 -0.909149 1.26315e-20)
(3.89178 -1.07248 0)
(3.75785 -0.922671 1.41512e-20)
(3.72788 -0.785341 -1.708e-20)
(2.7414 -3.29581 -2.05327e-19)
(2.29547 -3.20165 2.94735e-19)
(3.18332 -3.29924 -2.95577e-18)
(2.71866 -3.18336 -2.76715e-19)
(3.55047 -3.13336 1.61157e-18)
(3.06112 -3.13979 6.0947e-20)
(3.81312 -2.8539 -6.47595e-19)
(3.38784 -2.97378 6.83512e-21)
(3.97405 -2.51705 1.523e-19)
(3.63652 -2.71485 -1.40931e-18)
(4.04118 -2.16638 7.71493e-19)
(3.79026 -2.40136 1.53638e-18)
(4.03395 -1.83513 -2.49938e-19)
(3.85505 -2.07608 3.5954e-19)
(3.97533 -1.54338 4.42654e-20)
(3.85204 -1.77062 -3.70016e-19)
(3.88447 -1.29851 -1.76667e-19)
(3.80376 -1.49968 -1.57194e-19)
(3.77383 -1.10097 0)
(3.72948 -1.26793 0)
(3.63656 -1.08353 -2.96979e-19)
(3.64176 -0.942571 2.24322e-19)
(2.3246 -3.04221 2.62848e-19)
(2.0799 -2.97149 -4.68488e-18)
(2.58955 -3.06847 2.69425e-18)
(2.35695 -2.94404 5.32186e-18)
(2.90401 -3.01669 -1.50924e-18)
(2.57657 -2.9569 -2.66021e-18)
(3.21518 -2.87645 -6.10534e-19)
(2.85436 -2.88424 1.01356e-18)
(3.45907 -2.6423 -2.80454e-19)
(3.11148 -2.72494 -7.17941e-19)
(3.61454 -2.35062 1.23699e-18)
(3.31712 -2.49187 -2.33914e-19)
(3.68521 -2.04547 3.00339e-19)
(3.45824 -2.21781 2.23741e-18)
(3.69051 -1.75509 -5.85598e-19)
(3.52976 -1.9352 -8.07009e-19)
(3.65297 -1.49389 0)
(3.5449 -1.66519 3.4989e-19)
(3.59229 -1.26542 -2.60855e-19)
(3.51996 -1.42034 -2.57325e-19)
(3.46782 -1.21485 -6.11706e-19)
(3.50032 -1.06491 1.45824e-18)
(2.12475 -2.82974 -1.14337e-18)
(1.93692 -2.76117 -2.41744e-18)
(2.29908 -2.85691 6.81413e-19)
(2.14746 -2.72592 1.64466e-18)
(2.50713 -2.8408 -5.1943e-19)
(2.29333 -2.75338 -1.26598e-18)
(2.73759 -2.76132 1.07881e-18)
(2.5022 -2.71483 9.71731e-19)
(2.96107 -2.60854 -6.9093e-19)
(2.71572 -2.61607 3.40834e-19)
(3.1501 -2.39499 5.4257e-19)
(2.91561 -2.45254 -1.27862e-18)
(3.28874 -2.14154 1.40426e-18)
(3.079 -2.23713 1.15657e-18)
(3.37062 -1.87524 -4.84157e-21)
(3.19504 -1.99446 -5.05779e-19)
(3.40175 -1.6188 1.36433e-19)
(3.26326 -1.74614 7.51407e-19)
(3.39506 -1.38695 -5.65538e-19)
(3.28963 -1.51077 -2.45373e-19)
(3.27797 -1.30745 1.71866e-20)
(3.35084 -1.17644 4.06983e-19)
(1.97589 -2.6328 -2.59132e-19)
(1.82339 -2.58239 8.43049e-19)
(2.10938 -2.63873 0)
(1.98195 -2.5234 0)
(2.27137 -2.63195 0)
(2.09754 -2.54625 -2.57104e-19)
(2.45451 -2.5838 3.03751e-19)
(2.26057 -2.51765 8.25965e-19)
(2.64267 -2.48137 -8.40913e-20)
(2.43449 -2.44786 -6.58666e-19)
(2.81864 -2.32375 -8.93024e-19)
(2.60892 -2.32854 -1.20533e-18)
(2.966 -2.12305 -5.57441e-19)
(2.76854 -2.1642 -3.8248e-19)
(3.07531 -1.89843 1.42806e-19)
(2.90068 -1.9682 3.09923e-19)
(3.14431 -1.66929 4.85191e-19)
(2.99894 -1.75635 1.65119e-20)
(3.17663 -1.4515 3.02939e-19)
(3.06216 -1.54613 2.60956e-19)
(3.08862 -1.36013 3.29345e-19)
(3.16617 -1.24943 -2.47387e-19)
(1.84964 -2.45686 1.1965e-18)
(1.71141 -2.42693 1.68143e-18)
(1.94974 -2.44609 -2.3105e-19)
(1.85308 -2.35224 0)
(2.08217 -2.43523 4.56947e-19)
(1.94407 -2.3599 -9.33103e-21)
(2.23191 -2.39601 4.73168e-20)
(2.07759 -2.3336 7.06656e-20)
(2.39047 -2.31832 -1.70958e-18)
(2.22277 -2.27664 -7.80179e-20)
(2.54764 -2.19875 -7.43929e-19)
(2.37329 -2.18269 -2.51591e-18)
(2.69206 -2.04194 5.35848e-19)
(2.51978 -2.05303 3.31248e-19)
(2.81389 -1.85903 2.70343e-19)
(2.6527 -1.8947 5.36545e-19)
(2.90734 -1.66399 -1.83274e-19)
(2.76475 -1.71734 -3.6541e-19)
(2.97233 -1.47014 2.79287e-19)
(2.85016 -1.53413 2.50613e-19)
(2.89961 -1.36689 0)
(3.00016 -1.27614 0)
(1.73708 -2.30274 6.52191e-19)
(1.61297 -2.28213 1.50026e-18)
(1.81957 -2.27656 2.21777e-19)
(1.74036 -2.19496 0)
(1.93086 -2.25943 -4.07782e-19)
(1.81598 -2.19366 2.47135e-19)
(2.05726 -2.22219 -4.29961e-20)
(1.92964 -2.16608 -5.98305e-20)
(2.1931 -2.15629 -6.3052e-19)
(2.05415 -2.11479 6.29078e-19)
(2.33236 -2.05892 -1.66393e-18)
(2.18575 -2.03513 -1.76885e-18)
(2.46765 -1.93212 3.78741e-19)
(2.31872 -1.92763 6.61423e-19)
(2.59116 -1.78192 0)
(2.44641 -1.79632 -4.79431e-19)
(2.69646 -1.61699 0)
(2.56273 -1.64667 0)
(2.78074 -1.44735 0)
(2.66081 -1.48733 -4.7072e-19)
(2.72726 -1.33563 6.76575e-19)
(2.83734 -1.27361 -4.1353e-19)
(1.6471 -2.16162 9.9134e-19)
(1.53836 -2.15769 9.0368e-19)
(1.71193 -2.1236 0)
(1.64718 -2.05467 0)
(1.80632 -2.10129 6.27879e-19)
(1.70747 -2.04415 0)
(1.91504 -2.06386 5.37979e-19)
(1.80565 -2.01339 1.19003e-18)
(2.03347 -2.00381 -2.7359e-19)
(1.91431 -1.96391 -5.21676e-19)
(2.15775 -1.91923 3.07963e-19)
(2.03116 -1.89201 4.24661e-19)
(2.28304 -1.81153 -9.17296e-20)
(2.15253 -1.79829 9.19359e-19)
(2.4034 -1.68424 -5.31549e-19)
(2.27366 -1.68545 -4.75846e-19)
(2.5128 -1.54228 -4.1861e-19)
(2.38978 -1.55653 -3.28749e-19)
(2.60627 -1.39186 5.32121e-20)
(2.49439 -1.41749 -2.15713e-20)
(2.57212 -1.2852 6.76077e-19)
(2.67088 -1.23099 2.05e-19)
(1.57007 -2.04056 0)
(1.47518 -2.05445 -6.25302e-19)
(1.6193 -1.98689 0)
(1.56211 -1.93222 4.85056e-19)
(1.69971 -1.95788 4.40386e-19)
(1.61105 -1.90974 0)
(1.79454 -1.91811 3.12348e-19)
(1.69772 -1.8733 6.44076e-19)
(1.89953 -1.8602 7.50823e-20)
(1.79444 -1.82251 -2.69438e-19)
(2.01197 -1.78284 9.76461e-19)
(1.90009 -1.75398 5.79368e-19)
(2.12855 -1.68733 6.62592e-19)
(2.01227 -1.66844 3.11165e-19)
(2.24469 -1.57624 -3.07652e-19)
(2.12754 -1.56808 8.39652e-19)
(2.35516 -1.45299 3.48289e-20)
(2.24231 -1.45477 -3.41052e-19)
(2.45572 -1.32267 4.99174e-19)
(2.35052 -1.33248 1.99179e-19)
(2.4339 -1.21568 -3.14526e-19)
(2.53773 -1.18262 0)
(1.48898 -1.93371 -3.12594e-19)
(1.40421 -1.9469 2.91139e-20)
(1.53008 -1.86279 5.35439e-19)
(1.47494 -1.81397 2.73151e-20)
(1.6021 -1.82557 1.38515e-19)
(1.51921 -1.78216 3.58802e-19)
(1.68768 -1.78152 1.59146e-19)
(1.5989 -1.74033 1.7662e-20)
(1.78325 -1.72304 1.4531e-19)
(1.68765 -1.68701 -4.48456e-19)
(1.88713 -1.64919 -5.87087e-20)
(1.78565 -1.61929 5.05642e-19)
(1.99713 -1.56135 4.28677e-19)
(1.89149 -1.53831 -5.44173e-19)
(2.10978 -1.46161 8.98394e-19)
(2.00267 -1.44621 8.34541e-19)
(2.22071 -1.35232 -2.49959e-19)
(2.11652 -1.3443 -1.15543e-20)
(2.32586 -1.23678 -5.05494e-19)
(2.22791 -1.23479 -2.40365e-19)
(2.31849 -1.12815 -6.09123e-19)
(2.41799 -1.11181 -2.01334e-19)
(1.40883 -1.82513 3.09256e-19)
(1.33564 -1.83725 5.84003e-19)
(1.44384 -1.74177 -1.58134e-19)
(1.3924 -1.69601 -4.62435e-19)
(1.51016 -1.69805 2.72873e-19)
(1.43239 -1.65676 2.78025e-19)
(1.5896 -1.64969 -5.45588e-19)
(1.50663 -1.61021 -2.24737e-21)
(1.67901 -1.5894 -1.91585e-19)
(1.58988 -1.55393 1.77859e-19)
(1.77742 -1.51674 1.27614e-19)
(1.68313 -1.48557 -1.49358e-19)
(1.88342 -1.43338 -2.87185e-19)
(1.78542 -1.40681 -2.3727e-20)
(1.99432 -1.34124 0)
(1.89472 -1.32008 -6.32657e-22)
(2.10628 -1.24154 0)
(2.00875 -1.22639 -5.20831e-19)
(2.21539 -1.13462 -2.64186e-19)
(2.12286 -1.12628 1.91661e-19)
(2.21735 -1.02811 -1.68595e-19)
(2.31191 -1.01019 -2.35842e-19)
(1.33894 -1.71872 -7.80746e-20)
(1.27639 -1.74843 4.60949e-19)
(1.36415 -1.62277 -7.42256e-20)
(1.31466 -1.58692 -5.03532e-20)
(1.42395 -1.57244 3.12455e-20)
(1.34981 -1.53517 -2.0466e-21)
(1.49823 -1.51943 7.07062e-19)
(1.41959 -1.48161 -3.58355e-19)
(1.58354 -1.45642 2.54355e-19)
(1.49924 -1.42087 1.09937e-18)
(1.67901 -1.38344 -3.1879e-19)
(1.59015 -1.35041 -1.90978e-19)
(1.78352 -1.30261 2.5913e-19)
(1.69151 -1.2723 1.47571e-20)
(1.89457 -1.216 -4.74326e-19)
(1.80133 -1.18936 1.68356e-19)
(2.00817 -1.12459 -3.89881e-19)
(1.9172 -1.1028 -2.89146e-19)
(2.1199 -1.02892 3.2883e-19)
(2.0348 -1.01241 1.70669e-20)
(2.1332 -0.924349 -1.27318e-21)
(2.22262 -0.923742 -8.05712e-19)
(1.26214 -1.61885 5.39651e-19)
(1.21214 -1.64558 5.47224e-19)
(1.2836 -1.50608 1.85811e-20)
(1.2332 -1.47201 -8.41105e-22)
(1.34028 -1.44689 -3.54156e-19)
(1.26777 -1.41017 8.22953e-20)
(1.41192 -1.38789 -1.16915e-19)
(1.33586 -1.34991 -4.95384e-19)
(1.49554 -1.32106 7.88412e-19)
(1.41438 -1.28413 7.6227e-19)
(1.59064 -1.24665 1.19316e-19)
(1.50559 -1.2107 2.16742e-21)
(1.69622 -1.16731 -9.47745e-20)
(1.60883 -1.13243 -2.47157e-20)
(1.80966 -1.08543 3.99134e-19)
(1.72181 -1.05278 1.98199e-20)
(1.92664 -1.00176 8.95689e-20)
(1.84145 -0.973226 4.23713e-19)
(2.04249 -0.915596 -3.10407e-19)
(1.96348 -0.892583 -2.00984e-19)
(2.06704 -0.814663 -1.3291e-19)
(2.15007 -0.81993 -1.01357e-19)
(1.18418 -1.51089 6.27374e-20)
(1.15082 -1.53205 1.33119e-20)
(1.2033 -1.38394 5.58881e-20)
(1.15409 -1.34916 2.82568e-20)
(1.25863 -1.31663 0)
(1.18854 -1.27837 0)
(1.32971 -1.25139 2.5325e-19)
(1.2557 -1.21156 2.57541e-20)
(1.41408 -1.18007 5.07768e-20)
(1.33495 -1.14026 4.23557e-19)
(1.51162 -1.10365 -1.41795e-19)
(1.42921 -1.06331 -1.28251e-19)
(1.62117 -1.02557 8.35794e-20)
(1.53747 -0.984788 1.50527e-20)
(1.73949 -0.948754 -5.90331e-22)
(1.65656 -0.90908 -1.83199e-19)
(1.86136 -0.87367 1.75575e-19)
(1.78192 -0.837883 2.37111e-19)
(1.98139 -0.798416 -1.31914e-20)
(1.90906 -0.768748 2.73505e-20)
(2.01644 -0.701801 9.60109e-20)
(2.09359 -0.71307 3.07356e-19)
(1.11484 -1.39625 -2.13646e-20)
(1.09381 -1.42923 4.5688e-19)
(1.12774 -1.25517 -2.47178e-20)
(1.07703 -1.22704 -1.78543e-23)
(1.18059 -1.17914 2.31296e-20)
(1.11181 -1.14157 6.28696e-20)
(1.25188 -1.1068 1.54522e-19)
(1.17913 -1.06504 8.40056e-23)
(1.33925 -1.03022 2.99382e-19)
(1.26153 -0.986248 1.40617e-19)
(1.44237 -0.951553 1.11287e-20)
(1.36227 -0.904997 1.34137e-19)
(1.5592 -0.87549 -2.33157e-19)
(1.47932 -0.826945 -1.1349e-19)
(1.68499 -0.805448 8.63764e-21)
(1.60763 -0.757307 1.56127e-22)
(1.81299 -0.741236 9.92269e-20)
(1.74028 -0.697445 -1.60812e-20)
(1.93673 -0.67926 1.45981e-19)
(1.87244 -0.643164 4.88511e-20)
(1.9825 -0.590483 1.00776e-19)
(2.05063 -0.608735 8.33095e-20)
(1.04216 -1.28101 5.2166e-19)
(1.03802 -1.31386 9.078e-19)
(1.05197 -1.12102 8.18815e-20)
(0.998086 -1.09505 1.00765e-19)
(1.10462 -1.03265 4.54619e-20)
(1.03642 -0.993084 -2.95906e-19)
(1.17888 -0.950736 -2.91787e-20)
(1.10681 -0.904681 2.38747e-19)
(1.27287 -0.867646 -2.62397e-20)
(1.19644 -0.81686 0)
(1.38576 -0.78718 3.22713e-20)
(1.30842 -0.731567 6.12446e-20)
(1.51356 -0.71538 1.08319e-19)
(1.43853 -0.6566 -6.96324e-20)
(1.64907 -0.655551 -2.25807e-20)
(1.57888 -0.597345 3.14489e-20)
(1.78373 -0.605848 -7.27282e-20)
(1.71935 -0.553438 -7.34975e-20)
(1.91088 -0.559827 -2.04162e-21)
(1.85521 -0.517617 -8.29902e-20)
(1.96636 -0.481236 1.38692e-19)
(2.02697 -0.506531 0)
(0.96836 -1.1547 5.67995e-19)
(0.985299 -1.1833 4.48063e-19)
(0.976611 -0.974674 -2.3778e-19)
(0.918746 -0.948485 2.95683e-19)
(1.03173 -0.871245 -1.57831e-19)
(0.965082 -0.826637 -8.29617e-19)
(1.11311 -0.777871 2.92068e-19)
(1.04321 -0.723869 3.42546e-19)
(1.21894 -0.688086 8.09134e-20)
(1.14648 -0.62656 0)
(1.34679 -0.607966 -2.75672e-20)
(1.27609 -0.539738 9.04245e-20)
(1.48921 -0.544769 -1.5864e-19)
(1.4236 -0.47345 -1.43058e-19)
(1.6356 -0.500558 -7.85611e-21)
(1.57687 -0.43144 5.99859e-20)
(1.77551 -0.470243 -8.24715e-20)
(1.72279 -0.409573 -1.03424e-19)
(1.9031 -0.443429 3.40735e-20)
(1.8579 -0.396088 2.4128e-20)
(1.96742 -0.376407 -1.47535e-19)
(2.01942 -0.407226 8.12416e-20)
(0.896035 -1.01032 1.90257e-19)
(0.937976 -1.03351 3.79276e-19)
(0.90494 -0.808829 -1.78896e-19)
(0.841815 -0.781557 4.8633e-20)
(0.967057 -0.686952 -4.39514e-19)
(0.903562 -0.633488 -4.65944e-19)
(1.0629 -0.580824 8.13999e-20)
(0.998791 -0.513655 7.298e-20)
(1.18852 -0.48655 0)
(1.12497 -0.409792 -7.97155e-21)
(1.33741 -0.412859 0)
(1.2794 -0.329131 5.98887e-21)
(1.49647 -0.366479 5.34688e-20)
(1.44633 -0.281938 0)
(1.65091 -0.345478 -1.75016e-20)
(1.60883 -0.267136 -5.84297e-20)
(1.79072 -0.339577 -2.06131e-20)
(1.75365 -0.273418 1.09896e-19)
(1.91213 -0.334274 -1.2957e-19)
(1.8799 -0.285202 -5.19818e-20)
(1.98144 -0.285542 -8.99094e-20)
(2.01771 -0.317419 -2.04911e-19)
(0.826441 -0.844822 1.11622e-19)
(0.897185 -0.854667 5.18969e-19)
(0.841495 -0.612931 -1.66299e-19)
(0.766797 -0.573567 -2.69043e-19)
(0.921256 -0.469671 9.14283e-21)
(0.869206 -0.398931 8.13118e-21)
(1.04246 -0.353196 -7.06893e-21)
(0.995334 -0.267156 0)
(1.19789 -0.262516 -3.431e-21)
(1.15555 -0.166455 7.1252e-21)
(1.37165 -0.207282 6.62771e-21)
(1.33753 -0.108173 8.45484e-21)
(1.54391 -0.189407 -9.32452e-20)
(1.5182 -0.0953253 1.07603e-20)
(1.69881 -0.199493 5.4956e-20)
(1.67936 -0.117201 -1.37824e-21)
(1.82963 -0.221595 8.13631e-20)
(1.81205 -0.155193 3.74511e-20)
(1.93748 -0.238831 -1.92806e-20)
(1.91986 -0.19159 -5.1952e-20)
(2.00636 -0.211005 -2.92009e-20)
(2.0298 -0.236098 7.35425e-19)
(0.754447 -0.610256 -8.20594e-20)
(0.889686 -0.632127 6.81396e-20)
(0.806963 -0.368942 -1.23301e-19)
(0.775688 -0.311006 -8.39409e-20)
(0.919984 -0.209513 0)
(0.902271 -0.117187 -8.36759e-21)
(1.08218 -0.0949776 1.31864e-20)
(1.07544 0.0115538 7.84645e-20)
(1.27287 -0.026411 1.71271e-20)
(1.27181 0.0832368 -7.25965e-20)
(1.46596 -0.00769391 1.22972e-20)
(1.46996 0.0960402 -3.48387e-20)
(1.6387 -0.0301503 8.10198e-20)
(1.64575 0.0611637 1.06028e-20)
(1.78003 -0.0757485 -4.07796e-20)
(1.78742 -0.00027891 6.35671e-20)
(1.89034 -0.125248 -8.32173e-20)
(1.89421 -0.0666813 -1.40307e-19)
(1.97644 -0.162593 -8.19097e-20)
(1.97421 -0.122035 9.79032e-20)
(2.03768 -0.1546 -2.37516e-20)
(2.0471 -0.180601 -1.39376e-19)
(0.777034 -0.453137 -6.17923e-20)
(1.0706 -0.230649 -7.0446e-20)
(0.821549 -0.112428 1.88377e-20)
(0.781522 0.0273991 -6.16545e-19)
(1.00207 0.0640363 5.4504e-20)
(1.11136 0.196711 -7.86116e-21)
(1.21871 0.1567 -4.56125e-20)
(1.31885 0.264922 1.95686e-20)
(1.43627 0.179685 -1.86554e-19)
(1.51465 0.271396 1.50931e-19)
(1.62691 0.147873 -4.11038e-20)
(1.68724 0.225503 4.02333e-19)
(1.77746 0.0831066 0)
(1.82443 0.148222 -1.08115e-19)
(1.88828 0.0075769 -1.2481e-20)
(1.92478 0.060583 -3.89823e-20)
(1.96705 -0.0613963 -1.60565e-20)
(1.99295 -0.0208203 -2.36548e-20)
(2.02424 -0.110957 1.51391e-19)
(2.03747 -0.0842485 -2.86095e-22)
(2.07065 -0.121224 3.11908e-19)
(2.07714 -0.127131 1.25723e-19)
(1.03746 0.436377 -2.68193e-19)
(2.60159 0.541203 5.08073e-18)
(1.29092 0.473392 -3.3979e-19)
(1.39998 0.0369765 -9.2144e-19)
(1.47592 0.489084 1.10688e-19)
(1.53579 0.119331 0)
(1.64909 0.440323 2.39666e-19)
(1.68035 0.187704 1.36436e-18)
(1.79348 0.357505 4.25065e-19)
(1.81204 0.196653 -2.71032e-19)
(1.90238 0.253903 2.66148e-19)
(1.92525 0.159146 8.18105e-20)
(1.97838 0.14598 -1.52924e-19)
(2.01098 0.0966168 -6.95256e-21)
(2.0292 0.0469549 -2.95002e-20)
(2.06807 0.0260445 1.0002e-19)
(2.05977 -0.0342467 1.73064e-20)
(2.09739 -0.0428 3.47159e-20)
(2.07708 -0.0885178 1.37814e-19)
(2.10399 -0.0969708 0)
(2.1008 -0.121103 9.02896e-20)
(2.09537 -0.109864 -1.9638e-19)
(5.32416 -0.451885 -2.28858e-18)
(5.20727 -1.47233 -1.75174e-18)
(5.71746 -0.710352 9.386e-20)
(4.61306 -0.668312 7.11754e-20)
(5.80818 -0.712341 1.28455e-19)
(5.17437 -0.449288 0)
(5.70141 -0.647629 2.83816e-19)
(5.49902 -0.376783 2.74193e-19)
(5.45596 -0.573714 1.39479e-19)
(5.49792 -0.305743 3.00963e-19)
(5.13421 -0.494758 -1.06444e-19)
(5.30195 -0.244981 -1.5922e-20)
(4.81415 -0.412323 -1.96937e-19)
(5.02609 -0.209944 2.25987e-19)
(4.53618 -0.343863 -1.76872e-19)
(4.71295 -0.179931 -1.65812e-19)
(4.29477 -0.29441 -4.27472e-20)
(4.42782 -0.152932 -9.59076e-20)
(4.07821 -0.263201 -1.5313e-19)
(4.18252 -0.13463 2.75168e-20)
(3.96694 -0.136068 -1.40996e-19)
(3.86958 -0.263569 -1.44022e-19)
(3.69437 -1.35895 0)
(3.6176 -3.18237 -5.34737e-19)
(4.36923 -0.709199 0)
(3.59516 -1.80256 0)
(4.88041 -0.383301 -1.40323e-19)
(4.27514 -0.876873 5.08987e-19)
(5.2109 -0.211798 -3.07316e-19)
(4.80396 -0.382028 -7.47032e-20)
(5.32369 -0.108401 -1.65378e-19)
(5.10214 -0.0755271 -1.10712e-19)
(5.22183 -0.0512792 1.4441e-19)
(5.18282 0.105999 1.96316e-19)
(4.96645 -0.0261937 1.8145e-19)
(5.0774 0.182357 2.7264e-19)
(4.65044 -0.0173193 -5.03137e-20)
(4.81559 0.194569 8.44661e-20)
(4.35755 -0.0138943 5.24633e-20)
(4.50126 0.17077 1.73969e-19)
(4.10828 -0.0202723 -8.54144e-20)
(4.20863 0.140272 -3.40207e-20)
(3.97196 0.104032 1.77748e-20)
(3.86465 -0.0555083 4.45711e-20)
(3.4017 -3.40824 -5.47264e-19)
(3.40242 -4.68299 1.4214e-18)
(3.69197 -1.87135 4.26823e-19)
(3.42577 -3.34603 0)
(4.15838 -0.911657 5.9498e-19)
(3.77943 -1.91494 -1.98026e-19)
(4.6095 -0.320674 9.4632e-20)
(4.21526 -0.939467 3.89155e-19)
(4.92049 0.0529852 1.94869e-19)
(4.60829 -0.253801 -2.04548e-19)
(5.03688 0.265041 1.55959e-19)
(4.86209 0.197918 -3.51799e-20)
(4.95322 0.349669 2.82757e-20)
(4.93062 0.446724 -4.50886e-19)
(4.71177 0.348274 3.52569e-19)
(4.80008 0.536643 7.63505e-20)
(4.40208 0.305254 3.90576e-19)
(4.53181 0.516816 1.58422e-19)
(4.10993 0.25735 -8.47485e-20)
(4.21628 0.449066 -1.44546e-19)
(3.95112 0.366856 4.1406e-20)
(3.85648 0.202788 -3.18145e-20)
(3.51988 -4.80061 2.48442e-18)
(3.62751 -5.34126 2.23894e-18)
(3.55322 -3.4171 -4.23579e-19)
(3.50454 -4.53716 1.23874e-18)
(3.81114 -1.95328 -2.46987e-19)
(3.57911 -3.13492 -1.41022e-18)
(4.16907 -0.896928 1.24075e-19)
(3.8696 -1.77728 3.12707e-19)
(4.50937 -0.15031 -4.69157e-19)
(4.21412 -0.739144 -2.29504e-19)
(4.73427 0.336577 -6.08242e-19)
(4.51254 0.0279184 -4.3245e-19)
(4.78779 0.599888 -4.85421e-19)
(4.68029 0.527687 6.70984e-20)
(4.66015 0.682925 -2.41169e-19)
(4.66636 0.78453 -2.78269e-20)
(4.40034 0.645968 -3.05763e-19)
(4.48131 0.840997 -2.70785e-19)
(4.09458 0.55549 -9.79456e-20)
(4.18766 0.773304 3.35819e-20)
(3.89665 0.651941 9.58871e-21)
(3.80924 0.43366 2.01186e-19)
(3.6159 -5.23803 1.10535e-18)
(3.754 -5.57386 5.30803e-21)
(3.53659 -4.42294 5.24963e-19)
(3.65575 -5.11205 2.2827e-18)
(3.63527 -3.08152 -1.03419e-18)
(3.58142 -4.18126 -3.41703e-20)
(3.88342 -1.70846 0)
(3.68214 -2.76926 -6.89526e-19)
(4.17813 -0.62067 -1.71696e-19)
(3.93696 -1.434 -4.88754e-19)
(4.4244 0.173852 1.58376e-19)
(4.20731 -0.357079 5.38645e-19)
(4.54813 0.682244 5.23796e-19)
(4.40259 0.425852 1.94644e-19)
(4.51006 0.928413 -1.72569e-20)
(4.45644 0.906427 2.13108e-19)
(4.31895 0.965136 1.84028e-20)
(4.34638 1.10556 -2.06516e-20)
(4.0351 0.874142 1.04979e-19)
(4.09831 1.09084 8.55618e-20)
(3.80321 0.959301 9.23299e-20)
(3.72984 0.697342 3.41763e-19)
(3.793 -5.51387 9.39922e-19)
(3.89216 -5.82821 -3.09427e-18)
(3.69003 -4.99565 1.96476e-18)
(3.85353 -5.42173 2.41096e-18)
(3.6367 -4.01738 3.8455e-19)
(3.73481 -4.82011 9.04924e-19)
(3.73964 -2.61313 -1.1999e-18)
(3.6851 -3.71086 -6.91412e-19)
(3.94366 -1.26732 5.52782e-20)
(3.78468 -2.25594 -4.892e-19)
(4.15207 -0.177245 5.69921e-19)
(3.97073 -0.909423 6.91615e-19)
(4.28659 0.602189 -8.92099e-20)
(4.13574 0.16032 -2.21775e-19)
(4.29466 1.06078 2.3533e-19)
(4.20467 0.8951 -3.53826e-19)
(4.16038 1.22855 2.08489e-20)
(4.1383 1.28397 2.74181e-19)
(3.91593 1.18253 9.23352e-20)
(3.93596 1.37088 -7.15212e-20)
(3.65854 1.25647 6.42971e-20)
(3.62678 0.959326 -1.16464e-18)
(3.97078 -5.78088 -2.26242e-18)
(4.01868 -6.09943 -3.04244e-18)
(3.88724 -5.33377 1.51157e-18)
(4.04221 -5.71014 1.34469e-18)
(3.78244 -4.64909 0)
(3.92141 -5.19495 0)
(3.74973 -3.50482 0)
(3.81016 -4.39049 -9.46938e-20)
(3.81205 -2.03185 0)
(3.75327 -3.0744 1.50729e-19)
(3.93226 -0.681197 0)
(3.80885 -1.57412 -1.14568e-19)
(4.02656 0.374505 -4.67297e-19)
(3.89474 -0.244428 0)
(4.03563 1.07336 -3.2576e-19)
(3.93063 0.753521 -5.25425e-19)
(3.9302 1.41384 2.20252e-19)
(3.86908 1.3613 2.62688e-19)
(3.7192 1.4533 -1.28417e-19)
(3.69437 1.5917 -2.88671e-21)
(3.46271 1.52448 -7.47609e-20)
(3.45908 1.28034 -6.49653e-20)
(4.12406 -6.06004 7.73833e-20)
(4.13142 -6.36775 1.55316e-18)
(4.06319 -5.64954 -3.95577e-20)
(4.20527 -6.00253 1.18887e-18)
(3.96061 -5.03911 -8.52709e-20)
(4.08333 -5.53017 -1.86911e-18)
(3.82948 -4.11343 3.02067e-20)
(3.9559 -4.82775 -7.41659e-21)
(3.77253 -2.77055 6.47841e-20)
(3.81019 -3.75466 1.23914e-18)
(3.76821 -1.27721 -1.27268e-19)
(3.72107 -2.26247 6.20133e-21)
(3.77869 0.0232178 0)
(3.68627 -0.752569 -7.10632e-19)
(3.74513 0.967918 2.92646e-20)
(3.64398 0.492155 0)
(3.63593 1.50643 7.19421e-20)
(3.54835 1.32798 6.73465e-19)
(3.44537 1.66806 6.66498e-20)
(3.37702 1.72893 -8.29546e-19)
(3.17946 1.76705 6.12997e-19)
(3.1846 1.57195 -1.45141e-18)
(4.2553 -6.33165 2.8293e-18)
(4.23485 -6.6128 -2.58926e-19)
(4.20563 -5.95841 -4.79455e-19)
(4.34333 -6.27868 -9.10251e-19)
(4.10319 -5.39288 -1.99335e-18)
(4.20557 -5.84684 -1.93183e-18)
(3.95514 -4.5919 1.06855e-18)
(4.07389 -5.19148 1.6245e-18)
(3.79235 -3.41067 1.35635e-18)
(3.88573 -4.27078 -2.11008e-19)
(3.65792 -1.90153 -4.45589e-19)
(3.67835 -2.90637 6.02214e-19)
(3.54548 -0.425746 -7.89373e-19)
(3.50456 -1.31439 -7.13697e-19)
(3.42852 0.746449 5.70434e-19)
(3.3455 0.1258 5.01939e-19)
(3.28431 1.48947 -1.79099e-19)
(3.17995 1.17542 5.46975e-19)
(3.10789 1.79791 -3.35532e-19)
(2.98968 1.74851 -8.81579e-19)
(2.80827 1.88721 6.26364e-19)
(2.91449 1.77207 5.08577e-19)
(4.3686 -6.57614 -3.85907e-18)
(4.33022 -6.8386 -1.54791e-18)
(4.31902 -6.24259 -2.24318e-18)
(4.45413 -6.52088 -4.66509e-18)
(4.20519 -5.71627 1.28013e-18)
(4.28641 -6.13883 1.91776e-18)
(4.03788 -4.97467 5.34102e-19)
(4.14365 -5.52835 1.54585e-18)
(3.80859 -3.9218 -1.03879e-18)
(3.92491 -4.68863 -1.30566e-18)
(3.56627 -2.49486 5.28584e-19)
(3.63334 -3.48077 1.55059e-18)
(3.31533 -0.932721 4.48459e-19)
(3.32988 -1.89108 0)
(3.08289 0.418988 3.08404e-19)
(3.03181 -0.326608 2.34185e-18)
(2.87467 1.35114 -2.67429e-19)
(2.76691 0.898929 -1.03769e-18)
(2.68572 1.80584 -1.38502e-20)
(2.53375 1.63971 -4.94128e-19)
(2.35817 1.89657 0)
(2.49983 1.90608 -1.32201e-18)
(4.44364 -6.78382 -2.05468e-18)
(4.37688 -6.98925 1.89562e-19)
(4.39428 -6.4954 -7.83319e-19)
(4.51898 -6.73722 -2.82344e-18)
(4.26023 -6.0128 2.16836e-18)
(4.32516 -6.39866 1.9736e-18)
(4.06678 -5.33284 0)
(4.16085 -5.83852 8.66845e-19)
(3.79891 -4.38165 9.96296e-19)
(3.90969 -5.07131 -1.34863e-18)
(3.45817 -3.05808 1.23103e-18)
(3.55379 -3.99382 5.87649e-19)
(3.07427 -1.48056 1.68346e-18)
(3.14296 -2.473 9.7379e-19)
(2.7117 -0.00909992 1.07268e-18)
(2.70072 -0.855788 4.72688e-18)
(2.41027 1.07688 -1.52648e-18)
(2.31454 0.50265 -1.97113e-18)
(2.20079 1.67448 -5.97346e-19)
(2.02829 1.37831 -5.38191e-19)
(1.85288 1.75052 0)
(2.05011 1.87222 0)
(4.49642 -6.94691 -2.78891e-19)
(4.39891 -7.1338 -3.11819e-18)
(4.4341 -6.70237 -3.40865e-19)
(4.53418 -6.91384 2.12184e-18)
(4.26482 -6.27108 7.80766e-19)
(4.31602 -6.59786 2.0787e-18)
(4.03923 -5.66164 -2.3982e-19)
(4.11902 -6.11066 5.26245e-20)
(3.73066 -4.79892 -2.00133e-18)
(3.82917 -5.43099 -1.35479e-18)
(3.30985 -3.58008 2.45372e-19)
(3.42007 -4.4705 -1.82497e-18)
(2.81314 -2.04727 3.61797e-18)
(2.90913 -3.07107 3.44379e-21)
(2.31024 -0.529484 2.01143e-18)
(2.34184 -1.44086 1.55667e-18)
(1.91349 0.663668 -1.1399e-18)
(1.83658 -0.0192882 1.08655e-18)
(1.67806 1.37816 0)
(1.49524 0.952137 0)
(1.35133 1.41279 0)
(1.58867 1.69293 0)
(4.50423 -7.07253 -1.61437e-18)
(4.40356 -7.22661 -6.1146e-20)
(4.4081 -6.8666 4.55587e-18)
(4.4977 -7.02429 4.50176e-20)
(4.21163 -6.48363 1.61712e-18)
(4.26418 -6.75256 2.08506e-18)
(3.94545 -5.95192 -8.9077e-19)
(4.01609 -6.3325 -1.63595e-18)
(3.58341 -5.19701 -1.12773e-18)
(3.67567 -5.74519 1.46832e-18)
(3.0984 -4.11269 -2.43965e-18)
(3.21831 -4.91896 -2.43059e-18)
(2.50874 -2.66442 -2.4588e-18)
(2.62145 -3.70175 -1.04538e-18)
(1.8839 -1.13952 5.91289e-19)
(1.96775 -2.09412 4.18798e-20)
(1.402 0.111525 2.35149e-18)
(1.36259 -0.665704 1.12746e-18)
(1.13719 0.904762 0)
(0.967664 0.368539 -1.25128e-18)
(0.855614 0.926429 0)
(1.05109 1.31181 0)
(4.47289 -7.13791 1.61084e-18)
(4.37218 -7.24761 1.60705e-18)
(4.34158 -6.96774 -2.63758e-18)
(4.40226 -7.08298 -4.24168e-18)
(4.10669 -6.64286 -7.44142e-19)
(4.15156 -6.85068 -9.52059e-20)
(3.79273 -6.1893 4.04685e-19)
(3.85459 -6.49734 1.56734e-18)
(3.37711 -5.54937 6.17126e-19)
(3.46244 -6.00464 7.19255e-19)
(2.83156 -4.62797 -1.31119e-18)
(2.95756 -5.31784 -1.24672e-18)
(2.16886 -3.31441 1.32261e-18)
(2.31724 -4.33732 0)
(1.47953 -1.82262 7.087e-19)
(1.62106 -2.84438 -1.58915e-19)
(0.923799 -0.567456 -2.27797e-18)
(0.936145 -1.40865 -1.04891e-18)
(0.641619 0.281854 -1.39296e-18)
(0.508054 -0.353714 -2.17314e-18)
(0.412871 0.271324 1.86779e-19)
(0.600308 0.756634 0)
(4.38504 -7.15346 -3.26363e-18)
(4.30542 -7.2122 -4.61743e-18)
(4.21319 -7.01218 -2.02973e-18)
(4.24874 -7.08882 -2.28857e-19)
(3.93677 -6.73994 2.04063e-18)
(3.97597 -6.8941 -9.49929e-20)
(3.57398 -6.36001 1.97803e-18)
(3.63243 -6.60711 2.40075e-18)
(3.11147 -5.83499 -9.37293e-19)
(3.19504 -6.20719 -2.03653e-18)
(2.54175 -5.1077 -7.05022e-20)
(2.65595 -5.65431 9.3302e-19)
(1.83308 -4.01984 -1.34464e-18)
(2.0144 -4.89084 9.11965e-19)
(1.09053 -2.60889 -1.67002e-18)
(1.31477 -3.66182 -2.83343e-18)
(0.516785 -1.34147 -8.3827e-19)
(0.621022 -2.26636 -1.62538e-18)
(0.24625 -0.464742 -6.58507e-19)
(0.177533 -1.17905 6.38849e-19)
(0.0978513 -0.501218 8.00411e-19)
(0.254079 0.069177 -1.52074e-19)
(4.24387 -7.11121 -2.28716e-18)
(4.18939 -7.10501 -2.79309e-18)
(4.02546 -6.99925 1.77087e-18)
(4.03635 -7.0259 1.60151e-18)
(3.70644 -6.78503 0)
(3.73298 -6.87676 -1.70135e-18)
(3.30065 -6.48364 -1.13206e-18)
(3.34793 -6.66632 1.33666e-18)
(2.80195 -6.06455 -5.03375e-19)
(2.87933 -6.37086 5.7575e-19)
(2.21028 -5.48019 1.91832e-18)
(2.33429 -5.95343 8.55888e-19)
(1.52228 -4.65705 -3.30258e-19)
(1.72367 -5.35441 3.93149e-19)
(0.819326 -3.50202 -2.92251e-18)
(1.07475 -4.44347 -1.27286e-18)
(0.251026 -2.25038 7.88665e-20)
(0.445595 -3.21572 -2.42199e-18)
(-0.0124297 -1.3183 2.09633e-18)
(0.00419688 -2.0986 1.93964e-18)
(-0.0100536 -1.36606 8.05491e-19)
(0.0282081 -0.638633 4.89779e-19)
(4.03813 -6.99242 3.76296e-19)
(4.00156 -6.91087 5.99804e-19)
(3.76874 -6.91402 -1.52336e-18)
(3.75356 -6.87848 -2.05198e-18)
(3.40806 -6.76841 -6.99909e-19)
(3.41241 -6.78931 9.12502e-19)
(2.97026 -6.56341 3.07074e-18)
(2.99331 -6.67339 -8.13809e-19)
(2.46131 -6.27273 2.01854e-18)
(2.51318 -6.50327 2.75158e-18)
(1.89363 -5.85147 -5.53141e-19)
(1.9962 -6.23675 -2.03255e-18)
(1.27932 -5.23019 -6.95921e-19)
(1.46381 -5.81124 1.81663e-18)
(0.65898 -4.33298 -1.05736e-18)
(0.92963 -5.14259 4.2136e-19)
(0.149194 -3.2269 -6.63955e-19)
(0.41439 -4.15547 -1.29415e-18)
(-0.0862479 -2.26419 1.06246e-18)
(0.0045427 -3.09545 1.11615e-18)
(0.0247996 -2.23607 1.0302e-19)
(-0.00665339 -1.59016 1.35466e-19)
(3.74637 -6.78148 -1.54774e-18)
(3.71654 -6.62394 2.94328e-18)
(3.42519 -6.74483 2.16459e-21)
(3.37832 -6.63565 -4.86958e-18)
(3.02794 -6.68511 1.0015e-18)
(2.99148 -6.62792 4.19826e-18)
(2.57529 -6.60085 -1.57049e-18)
(2.55126 -6.63308 -2.21361e-18)
(2.08782 -6.46239 -7.22307e-19)
(2.09183 -6.61376 6.77457e-20)
(1.5913 -6.21859 4.16858e-21)
(1.65123 -6.51636 -8.76227e-19)
(1.10411 -5.79631 2.64755e-18)
(1.25205 -6.27066 2.48293e-18)
(0.6317 -5.11687 -3.57983e-19)
(0.887568 -5.80163 7.96571e-20)
(0.221389 -4.1863 5.11757e-19)
(0.529635 -5.0259 -5.02459e-19)
(0.0274543 -3.22604 1.28036e-19)
(0.209894 -4.08274 8.77867e-19)
(0.254151 -3.10118 2.56522e-19)
(0.0701801 -2.43259 -1.27808e-19)
(3.34106 -6.4581 4.40379e-19)
(3.28039 -6.24004 2.67122e-18)
(2.96516 -6.48552 -1.90445e-18)
(2.85842 -6.291 -2.82738e-18)
(2.54282 -6.54339 1.67551e-18)
(2.43004 -6.39562 2.65739e-18)
(2.10698 -6.61322 -8.49874e-19)
(2.00489 -6.54931 -1.28306e-18)
(1.6905 -6.65107 -8.53805e-20)
(1.62621 -6.6863 -7.86148e-19)
(1.32436 -6.59158 1.192e-18)
(1.33437 -6.73846 4.61975e-19)
(1.01739 -6.35172 0)