/*--------------------------------*- C++ -*----------------------------------*\
| =========                 |                                                 |
| \\      /  F ield         | OpenFOAM: The Open Source CFD Toolbox           |
|  \\    /   O peration     | Version:  3.0.1                                 |
|   \\  /    A nd           | Web:      www.OpenFOAM.org                      |
|    \\/     M anipulation  |                                                 |
\*---------------------------------------------------------------------------*/
FoamFile
{
    version     2.0;
    format      ascii;
    class       volScalarField;
    location    "0.818922";
    object      k;
}
// * * * * * * * * * * * * * * * * * * * * * * * * * * * * * * * * * * * * * //

dimensions      [0 2 -2 0 0 0 0];

internalField   nonuniform List<scalar> 
21246
(
0.464163
0.620118
0.258039
0.131059
0.0618748
0.0317551
0.0200104
0.0155494
0.0136143
0.0125906
0.0119194
0.498061
0.721058
0.327968
0.163914
0.0796838
0.0385446
0.0219042
0.0158681
0.0134652
0.0122829
0.0115507
0.510077
0.648188
0.361316
0.193488
0.0948653
0.0462697
0.024662
0.0165988
0.0135467
0.012153
0.0113627
0.49522
0.574332
0.366857
0.205571
0.106068
0.0532185
0.0277605
0.0176144
0.0138211
0.0121863
0.0113549
0.461116
0.531099
0.362544
0.209799
0.113691
0.0594022
0.0308765
0.0188291
0.0142588
0.0123529
0.0114632
0.416786
0.506074
0.358165
0.213958
0.120504
0.0654816
0.0342536
0.0202086
0.0148332
0.0126282
0.0116486
0.368102
0.492247
0.356326
0.219713
0.127641
0.0713053
0.038254
0.0220307
0.0155278
0.0129914
0.0119066
0.319329
0.487042
0.357498
0.226492
0.134989
0.0771951
0.0424643
0.0242898
0.0165169
0.01346
0.0122216
0.274508
0.485584
0.362948
0.234923
0.142909
0.0835041
0.047019
0.0269484
0.0177855
0.0140761
0.0126105
0.235214
0.48524
0.373535
0.246314
0.152334
0.0907769
0.0522278
0.0301247
0.0194042
0.014863
0.013082
0.201595
0.487823
0.389134
0.260787
0.163368
0.0990565
0.0581758
0.0338924
0.0214366
0.015872
0.0136468
0.174933
0.49622
0.410075
0.278128
0.175673
0.108059
0.064747
0.0382487
0.0239291
0.0171619
0.0143423
0.156914
0.507878
0.437015
0.299696
0.190145
0.118179
0.0721185
0.043319
0.0269878
0.0188158
0.0152226
0.146941
0.518194
0.46963
0.327383
0.20832
0.130233
0.0806751
0.0493274
0.0307945
0.0209711
0.0163696
0.145077
0.533163
0.508376
0.36177
0.230727
0.144512
0.0905398
0.0563508
0.0354683
0.0237727
0.0179154
0.151258
0.550115
0.552088
0.404816
0.259536
0.162392
0.102426
0.0647625
0.0412654
0.0274409
0.0200363
0.162123
0.560895
0.595975
0.458153
0.298141
0.186401
0.117806
0.0753567
0.0486605
0.0323386
0.0230215
0.1706
0.561117
0.63223
0.51991
0.349299
0.219523
0.138765
0.0894016
0.0584298
0.0390044
0.0273018
0.175114
0.547932
0.650566
0.582458
0.414698
0.266344
0.169236
0.109565
0.0722518
0.0485349
0.0336629
0.17482
0.520056
0.641096
0.629097
0.489988
0.331867
0.21588
0.141215
0.0938313
0.0633813
0.0437664
0.169886
0.471811
0.5988
0.641312
0.561964
0.419049
0.289144
0.195002
0.131527
0.0895016
0.0617406
0.179204
0.426406
0.544168
0.626508
0.613647
0.51855
0.395742
0.285523
0.200786
0.140227
0.0979848
0.167569
0.362589
0.434691
0.49763
0.523169
0.508202
0.453063
0.373477
0.291251
0.220453
0.163083
0.223134
0.449854
0.462194
0.500294
0.517711
0.509659
0.475748
0.416868
0.350093
0.286545
0.228382
0.3856
0.423931
0.220117
0.103162
0.0515984
0.0290397
0.0197088
0.0158342
0.0140539
0.013103
0.0125018
0.305771
0.341118
0.192283
0.108932
0.0575359
0.0326416
0.0216111
0.0169547
0.0148576
0.0137893
0.0131633
0.312773
0.347281
0.190528
0.127907
0.0729062
0.0414982
0.025749
0.0189904
0.0161042
0.0147535
0.0140617
0.31857
0.326196
0.181269
0.135128
0.0829203
0.0501737
0.0315238
0.0222635
0.0180536
0.0161166
0.0152022
0.320888
0.289062
0.173167
0.134504
0.0841051
0.0522445
0.033286
0.023718
0.0192089
0.0170742
0.016041
0.320825
0.255316
0.16472
0.128947
0.0818654
0.0524564
0.0340922
0.0245928
0.0200455
0.017896
0.0168959
0.319687
0.228838
0.156603
0.122164
0.0784479
0.0516263
0.0341878
0.0251099
0.0207102
0.0186541
0.0177746
0.317669
0.208332
0.148992
0.115639
0.0751474
0.0505498
0.0340276
0.0254461
0.02127
0.0193853
0.0186963
0.315798
0.192394
0.142468
0.110164
0.0726271
0.0495822
0.0338813
0.0257108
0.0217143
0.0199543
0.0193745
0.314708
0.180257
0.137046
0.10582
0.0710456
0.0489565
0.0338891
0.025984
0.0220942
0.0204194
0.0199579
0.314715
0.1711
0.132917
0.10292
0.0703294
0.0488349
0.0341431
0.0263287
0.0224516
0.0208136
0.0204587
0.31566
0.163886
0.129607
0.101143
0.070341
0.0492214
0.0346764
0.0267853
0.0228174
0.0211465
0.0208295
0.317793
0.158221
0.127129
0.100402
0.0711199
0.0501876
0.0355559
0.0274082
0.0232267
0.0214324
0.0210838
0.319798
0.154925
0.125446
0.100607
0.0728377
0.0519221
0.0369651
0.0283201
0.0237532
0.0217187
0.0212562
0.321258
0.152871
0.124029
0.1011
0.0752008
0.054384
0.0390929
0.0297568
0.0246123
0.0221809
0.0214766
0.322325
0.152088
0.122902
0.101843
0.0781135
0.0576394
0.0420526
0.0318976
0.0259765
0.0229592
0.0218619
0.323106
0.152623
0.122148
0.102796
0.081479
0.0617407
0.0459885
0.0349802
0.0281056
0.0242866
0.0225994
0.323646
0.154332
0.121807
0.10387
0.0851164
0.0666375
0.051016
0.039273
0.0313478
0.0265219
0.0240098
0.324036
0.157168
0.122014
0.105009
0.0888159
0.0721685
0.0571774
0.0450339
0.0361316
0.0301729
0.0266111
0.324432
0.161192
0.123003
0.106223
0.0923395
0.0780033
0.0643157
0.0523808
0.042861
0.0358583
0.0311407
0.325073
0.166373
0.125044
0.107603
0.095419
0.0835704
0.0718712
0.0609937
0.0515975
0.044034
0.0383811
0.326626
0.172312
0.128226
0.109259
0.0977364
0.087966
0.0785812
0.069572
0.0613005
0.0541169
0.0482547
0.329559
0.179775
0.133012
0.111471
0.0990985
0.0901315
0.082461
0.0754717
0.0690862
0.0633779
0.0584763
0.34676
0.190246
0.151211
0.133258
0.123134
0.115815
0.109497
0.107222
0.107611
0.109705
0.112029
0.300398
0.570376
0.565069
0.551162
0.485081
0.34863
0.225407
0.150079
0.105366
0.075741
0.0547703
0.246665
0.410528
0.461003
0.476367
0.446735
0.351199
0.23474
0.143215
0.091347
0.0614809
0.042443
0.169174
0.306513
0.369789
0.398459
0.39119
0.329447
0.233804
0.143469
0.0841692
0.0516355
0.0334186
0.108935
0.250766
0.301008
0.330425
0.33414
0.294923
0.22033
0.139117
0.0795027
0.0456872
0.0274381
0.0822777
0.209277
0.249962
0.275304
0.282666
0.2568
0.198966
0.129543
0.0742744
0.0412943
0.0236931
0.0739563
0.168577
0.207595
0.230562
0.238293
0.219896
0.174388
0.116565
0.0680219
0.0376512
0.021136
0.0655739
0.136599
0.171679
0.192519
0.200339
0.186106
0.149651
0.102267
0.0612035
0.0344298
0.0193548
0.0588157
0.112153
0.142203
0.16033
0.168103
0.156381
0.126877
0.0885506
0.0546656
0.031673
0.0181107
0.0530995
0.0936078
0.119219
0.134628
0.141568
0.131718
0.107816
0.0770202
0.0492581
0.0295862
0.0173612
0.0482968
0.080068
0.102524
0.115472
0.121068
0.112895
0.0935391
0.0686047
0.0455102
0.0283409
0.0171094
0.0444843
0.0707608
0.0912472
0.102045
0.106501
0.099864
0.0840376
0.0633489
0.043482
0.0279536
0.0172871
0.0417907
0.064789
0.0839216
0.0932981
0.0971046
0.0917715
0.0785509
0.0607599
0.0429402
0.0283351
0.0178836
0.039767
0.0609446
0.0793595
0.0880295
0.0916439
0.0874335
0.0761181
0.0602425
0.0436102
0.0293802
0.0188584
0.0380612
0.0583845
0.0765799
0.0850738
0.0888569
0.0856712
0.0758151
0.0612346
0.045231
0.0309892
0.0201401
0.0365306
0.0568394
0.075046
0.0835913
0.0877421
0.085513
0.0768706
0.0632618
0.0475911
0.0331105
0.0217788
0.0351191
0.0558441
0.0741841
0.0829233
0.0875953
0.0863618
0.078894
0.0661687
0.0507056
0.035807
0.0237895
0.0337119
0.0549527
0.0735211
0.0826042
0.0880032
0.0879772
0.0818698
0.0701312
0.0548371
0.0393286
0.0263505
0.0322173
0.0540843
0.0728937
0.0824348
0.0889019
0.0905387
0.0862116
0.0756926
0.0605222
0.0441118
0.0297862
0.0305579
0.0530828
0.0721526
0.0824828
0.0908005
0.0949998
0.093128
0.0840435
0.0687252
0.0507988
0.0343828
0.028658
0.0516994
0.071354
0.0834727
0.095272
0.103521
0.104833
0.0971077
0.0809281
0.0604203
0.0408638
0.0260486
0.0504979
0.0729656
0.0889699
0.106518
0.120256
0.124408
0.116496
0.0982752
0.0739658
0.0500195
0.0350322
0.0619179
0.0785775
0.105444
0.135043
0.153478
0.156606
0.143942
0.119759
0.0910521
0.0621645
0.034176
0.103981
0.145142
0.18783
0.220914
0.236547
0.230231
0.200389
0.153834
0.110431
0.0763525
0.186937
0.236426
0.284907
0.319257
0.333411
0.326719
0.303217
0.268192
0.216658
0.15044
0.0975495
0.314165
0.581459
0.60648
0.575421
0.483085
0.356607
0.245653
0.1737
0.128981
0.0968452
0.0709483
0.184315
0.339434
0.458334
0.522565
0.507968
0.419136
0.304017
0.218211
0.166111
0.129072
0.0992495
0.110001
0.184902
0.303802
0.421101
0.490117
0.470614
0.370594
0.269275
0.208926
0.167161
0.133923
0.101331
0.135716
0.21025
0.313771
0.418053
0.472367
0.423648
0.315331
0.252096
0.209497
0.172364
0.105657
0.138101
0.189747
0.258963
0.346738
0.430386
0.450331
0.356751
0.266472
0.236947
0.209495
0.111163
0.147323
0.191746
0.244193
0.311742
0.391951
0.44698
0.410177
0.294494
0.233338
0.226271
0.1171
0.158306
0.199529
0.241822
0.293675
0.363295
0.433465
0.441147
0.344804
0.2414
0.2228
0.123233
0.169903
0.209596
0.244116
0.282661
0.338704
0.410572
0.451409
0.388447
0.271207
0.213231
0.129484
0.182134
0.221184
0.248847
0.275581
0.316759
0.381079
0.440962
0.416045
0.304998
0.217463
0.135792
0.194997
0.233815
0.254824
0.271295
0.298136
0.349569
0.416049
0.425793
0.33339
0.230711
0.142305
0.208398
0.246975
0.261392
0.269268
0.283846
0.320957
0.384722
0.419917
0.35089
0.244245
0.149394
0.222289
0.260737
0.2688
0.269058
0.274151
0.298882
0.353444
0.406491
0.358595
0.255565
0.157442
0.236912
0.274171
0.276983
0.270097
0.268182
0.283728
0.322402
0.376994
0.364887
0.261616
0.165743
0.252696
0.288773
0.285918
0.271363
0.262251
0.270381
0.297701
0.336007
0.350246
0.26781
0.174131
0.270238
0.30551
0.296667
0.273513
0.25599
0.255782
0.272473
0.297673
0.314263
0.27602
0.18327
0.290871
0.325997
0.310918
0.27797
0.25069
0.241813
0.249713
0.266315
0.282149
0.273322
0.193569
0.316065
0.352611
0.331688
0.287741
0.248844
0.230362
0.230114
0.240745
0.253548
0.254229
0.205343
0.34784
0.389541
0.365305
0.310149
0.256602
0.224671
0.214214
0.217506
0.224144
0.225015
0.218686
0.388544
0.442895
0.421929
0.358599
0.287714
0.23715
0.213125
0.205699
0.204748
0.202791
0.228398
0.429258
0.499643
0.487421
0.419219
0.335502
0.270701
0.23436
0.218768
0.214027
0.212475
0.219552
0.441747
0.523462
0.52491
0.464948
0.377854
0.302291
0.255351
0.232824
0.225454
0.22616
0.214192
0.432502
0.520237
0.531001
0.480623
0.398839
0.321509
0.26795
0.237508
0.219816
0.193994
0.213482
0.411878
0.488429
0.498876
0.459384
0.393625
0.326621
0.273739
0.237167
0.205834
0.155492
0.275565
0.405312
0.438315
0.434105
0.406644
0.363105
0.312181
0.269734
0.231735
0.183407
0.125633
1.23853
1.63675
1.05239
0.584171
0.315975
0.171314
0.092465
0.0496873
0.0268603
0.0152574
0.00979523
0.776874
1.10378
0.834576
0.521932
0.304468
0.173208
0.096011
0.0520516
0.027958
0.0154978
0.00965022
0.587428
0.852837
0.741115
0.548189
0.34936
0.204078
0.113811
0.0613661
0.0323968
0.0173804
0.0103583
0.511881
0.707627
0.633231
0.507027
0.347193
0.214493
0.123555
0.0673259
0.0353488
0.0187123
0.0109981
0.470678
0.608905
0.551176
0.452367
0.317047
0.202811
0.120795
0.067971
0.0366237
0.0195841
0.0113737
0.441684
0.528633
0.484391
0.401823
0.284871
0.186054
0.113871
0.0660775
0.0366676
0.0200555
0.0118302
0.420142
0.467171
0.430113
0.356134
0.254383
0.168337
0.105171
0.0627158
0.0358544
0.0201296
0.0120301
0.403274
0.41896
0.385696
0.317804
0.227824
0.151962
0.0963707
0.0587491
0.0344798
0.0198812
0.0123323
0.390053
0.380564
0.349522
0.286677
0.205813
0.137935
0.0884076
0.0548554
0.0329751
0.0195539
0.012469
0.379826
0.349386
0.320229
0.261957
0.188247
0.126542
0.0817133
0.0514055
0.0315385
0.0191652
0.0124166
0.371687
0.32355
0.2961
0.242102
0.174244
0.117421
0.0762515
0.0484945
0.0302498
0.0187372
0.0123839
0.364839
0.301834
0.275742
0.225689
0.162834
0.110055
0.0718333
0.0461135
0.0291728
0.0183653
0.0123015
0.359709
0.283461
0.258719
0.21238
0.153813
0.104341
0.0684323
0.0442935
0.0283653
0.0180989
0.0122693
0.356839
0.268105
0.244761
0.202074
0.147165
0.100281
0.0660737
0.0430729
0.0278667
0.0179625
0.0123093
0.355085
0.25512
0.232963
0.193916
0.142338
0.0975927
0.0646397
0.0424287
0.0277032
0.0180015
0.0124309
0.354499
0.244148
0.223011
0.187817
0.139354
0.0963292
0.0641899
0.0424188
0.0279351
0.0182607
0.0126746
0.354771
0.235256
0.214149
0.182782
0.138054
0.096781
0.0650879
0.0433065
0.0287355
0.018879
0.0131054
0.35588
0.227853
0.206171
0.178503
0.137914
0.0986407
0.0672722
0.0451349
0.0301596
0.0199523
0.0138402
0.358058
0.221893
0.198997
0.174833
0.138782
0.101916
0.0709339
0.0481668
0.0324317
0.0216379
0.0149656
0.361756
0.21738
0.192525
0.171545
0.1404
0.106549
0.0763093
0.052833
0.0359907
0.0242574
0.0167191
0.367706
0.214398
0.186627
0.168291
0.142283
0.112265
0.0835418
0.0596653
0.0415397
0.0284456
0.0196165
0.377552
0.212441
0.181122
0.164618
0.14369
0.118417
0.0924385
0.0690625
0.0499246
0.0352121
0.0245955
0.391454
0.210573
0.175352
0.160018
0.143865
0.124036
0.102214
0.0808338
0.0616832
0.0456571
0.033048
0.408859
0.206206
0.174662
0.160187
0.146632
0.130732
0.112866
0.0943392
0.0764465
0.0601405
0.0460771
1.29609
2.51018
1.21289
0.800993
0.455074
0.234433
0.118866
0.0609663
0.0316818
0.017337
0.0107596
1.26973
2.19087
1.41243
0.955045
0.596366
0.324388
0.167298
0.0844253
0.0421114
0.0217165
0.0125648
1.12797
1.73511
1.37765
0.990439
0.674914
0.400251
0.221364
0.114869
0.0568236
0.0281608
0.0154956
0.924989
1.46525
1.2829
0.960995
0.689259
0.448402
0.268824
0.147212
0.0745658
0.0368285
0.0201169
0.726891
1.35138
1.20044
0.914424
0.674778
0.47077
0.303869
0.176994
0.0935634
0.0470243
0.0253079
0.573024
1.32083
1.1453
0.873431
0.65233
0.477609
0.32737
0.20176
0.111935
0.0578552
0.0310858
0.472563
1.31572
1.11428
0.84278
0.629999
0.475668
0.343145
0.221439
0.128554
0.0686651
0.0374109
0.414118
1.32521
1.10062
0.820047
0.609227
0.46929
0.351664
0.238189
0.143304
0.0788928
0.0427765
0.383634
1.33825
1.0995
0.804149
0.590981
0.461105
0.355597
0.250407
0.157111
0.0891064
0.0480525
0.36868
1.34626
1.10685
0.794545
0.575868
0.452617
0.356875
0.259561
0.168805
0.0983265
0.0537193
0.35908
1.33544
1.12041
0.792358
0.565145
0.445015
0.356869
0.266842
0.179187
0.107039
0.0592656
0.351895
1.31739
1.13741
0.795479
0.55824
0.438514
0.356118
0.272808
0.188727
0.115745
0.0645468
0.347309
1.29965
1.15393
0.803594
0.555833
0.433816
0.355295
0.278048
0.197893
0.124922
0.07047
0.340591
1.26491
1.1656
0.818308
0.559521
0.431917
0.355098
0.283102
0.20714
0.134994
0.077882
0.33312
1.22155
1.17023
0.837365
0.568682
0.433152
0.355975
0.288276
0.216726
0.146238
0.0874056
0.325503
1.1711
1.16595
0.859378
0.584002
0.438594
0.358783
0.294127
0.227014
0.159104
0.0993966
0.315844
1.10845
1.14984
0.882039
0.605702
0.449523
0.364779
0.301498
0.238402
0.173807
0.114362
0.304444
1.03837
1.11911
0.900551
0.632492
0.467092
0.375687
0.311713
0.251531
0.190504
0.132391
0.292138
0.960433
1.07038
0.907499
0.661152
0.492392
0.394287
0.327266
0.26785
0.209631
0.153445
0.28666
0.898841
1.00523
0.897567
0.689403
0.528774
0.426463
0.353774
0.291285
0.233075
0.177898
0.290778
0.776689
0.899756
0.851438
0.705879
0.574449
0.475114
0.39518
0.324979
0.262298
0.204982
0.356181
0.696217
0.73846
0.730116
0.636673
0.54217
0.460708
0.38836
0.319506
0.255932
0.19732
0.315204
0.649601
0.696934
0.569562
0.464373
0.377277
0.30273
0.237458
0.183723
0.140833
0.106478
0.403983
0.315984
0.245051
0.201704
0.172527
0.149634
0.129505
0.11072
0.0929623
0.0763741
0.0611949
0.0890886
0.0813173
0.0675018
0.0441291
0.0165584
0.013163
0.0156495
0.0183801
0.0354089
0.108251
0.0881605
0.0694467
0.0514652
0.0381985
0.0251719
0.0243708
0.037174
0.0546714
0.105817
0.0922669
0.0778311
0.0596637
0.0429313
0.0312478
0.0304503
0.0444027
0.0662904
0.094447
0.0827313
0.0727344
0.0601992
0.0463221
0.037263
0.0372206
0.0495691
0.0680842
0.0945213
0.0966409
0.0961883
0.0937663
0.0935435
0.0896081
0.0821809
0.0734586
0.0601418
0.127246
0.142576
0.153915
0.159095
0.146334
0.13259
0.11532
0.0937879
0.0725825
0.122603
0.141712
0.154742
0.156205
0.141976
0.125234
0.109955
0.0979282
0.0839574
0.108162
0.123428
0.134394
0.134502
0.122143
0.10776
0.0957141
0.0859808
0.0783183
0.00442769
0.00460058
0.00461597
0.00212629
0.046408
0.00439138
0.0113673
0.0045388
0.00438316
0.00423651
0.0462923
0.00454925
0.00372111
0.00328421
0.0044839
0.00430202
0.0033022
0.00212106
0.00429098
0.00424831
0.00411986
0.00433539
0.00466594
0.0183729
0.0044947
0.00329656
0.00376824
0.0110107
0.0868546
0.0487747
0.00338878
0.00410297
0.00298667
0.00453422
0.00425909
0.00459164
0.0170924
0.00448987
0.00291925
0.00440165
0.00713439
0.00454333
0.00745212
0.00465871
0.0618629
0.0145111
0.00326112
0.0229498
0.00429569
0.00431187
0.0489804
0.0044072
0.0238252
0.00749067
0.00430945
0.00412642
0.00423838
0.00441371
0.0849984
0.00487152
0.00580933
0.0193531
0.0524233
0.00790618
0.00867177
0.00425894
0.0526309
0.00425753
0.00460123
0.0042257
0.00329618
0.0042889
0.00314954
0.00455991
0.00534452
0.00426994
0.00455245
0.00459585
0.00926233
0.0731389
0.0416114
0.00632986
0.00449614
0.00462551
0.00437173
0.00316579
0.111654
0.0130265
0.00313489
0.0173774
0.00454216
0.00442391
0.00719569
0.00429843
0.0719797
0.0294198
0.00355133
0.0039814
0.00347248
0.00437701
0.00469232
0.021743
0.00415993
0.00402597
0.00284115
0.00454864
0.00304808
0.00464629
0.00417483
0.00419465
0.00450648
0.00455817
0.00428195
0.00225219
0.00435873
0.00442444
0.00438691
0.00431176
0.00449417
0.00413782
0.00229205
0.0044982
0.00463107
0.00325746
0.0131901
0.004184
0.0502805
0.00304581
0.00320361
0.00348116
0.00445724
0.00480949
0.0223161
0.0042736
0.00461399
0.00454435
0.0040841
0.00429069
0.0497906
0.00446816
0.00793074
0.0041276
0.0240473
0.00402385
0.00437697
0.00329571
0.00444139
0.00425985
0.00430823
0.00424105
0.00426328
0.00442156
0.00352311
0.00444432
0.00224271
0.00379816
0.00386649
0.00382553
0.00320915
0.0043556
0.00364046
0.00422683
0.00428236
0.00443337
0.0540114
0.005677
0.00357475
0.00457592
0.00409522
0.00816717
0.00307297
0.00309932
0.0042785
0.00406095
0.00409354
0.00396334
0.00316221
0.00356575
0.0623787
0.00392932
0.0042621
0.00433916
0.00465984
0.0142384
0.00449712
0.00382042
0.00424565
0.00429639
0.00458771
0.0123988
0.00404308
0.00341408
0.00427129
0.00647259
0.00460939
0.00439577
0.00434677
0.00353563
0.00355874
0.00467914
0.00314442
0.00430246
0.00399488
0.00349319
0.00462752
0.0130728
0.00428669
0.00319618
0.00433431
0.0043377
0.0200698
0.0043959
0.00401514
0.00421985
0.00449093
0.0117113
0.00450909
0.00371082
0.00425777
0.00322945
0.00300854
0.00219982
0.00343945
0.00436432
0.00321649
0.00441857
0.0100249
0.00539376
0.0038264
0.0227595
0.00393387
0.00425583
0.0042571
0.0045399
0.00349057
0.0589341
0.0494187
0.00464631
0.0045552
0.00454323
0.00373195
0.00828474
0.004017
0.00506038
0.0043117
0.00467813
0.00451655
0.00358606
0.0328172
0.054421
0.00357348
0.0203326
0.00514119
0.00429516
0.00396066
0.00435929
0.00414832
0.00447534
0.00317888
0.00424195
0.00338779
0.00456185
0.00432521
0.00457168
0.00450485
0.00310905
0.00413135
0.00431997
0.005594
0.00372465
0.0226356
0.00430356
0.00429547
0.00315887
0.00438443
0.00432507
0.00331879
0.00444437
0.00428509
0.0031466
0.00432394
0.00459579
0.0419599
0.0461491
0.00396068
0.00439104
0.0763123
0.00458419
0.00425348
0.0078256
0.00461442
0.0113245
0.00468136
0.00293393
0.0046784
0.00434442
0.00408985
0.00456154
0.00425769
0.00334646
0.00444908
0.00245625
0.00436742
0.0491675
0.00415884
0.00418858
0.00459625
0.0130139
0.00419288
0.00434894
0.00727723
0.00456178
0.00409853
0.00298251
0.00507278
0.00410639
0.0036977
0.00320322
0.00412887
0.00436675
0.00424456
0.0312249
0.00435675
0.00339213
0.00551537
0.00429832
0.0044536
0.00371293
0.00423981
0.0367271
0.00428253
0.0528445
0.00411111
0.00465111
0.00356257
0.0434164
0.00348187
0.00458404
0.0044706
0.00395562
0.00398513
0.0195139
0.00429166
0.00561895
0.021398
0.0131915
0.00480982
0.00437973
0.0144296
0.0560893
0.00845557
0.00393978
0.00374195
0.00417661
0.00394884
0.00468915
0.00306938
0.00399721
0.0046599
0.0416829
0.00386329
0.0033243
0.00451666
0.0045121
0.00430383
0.00329391
0.00308817
0.00331303
0.0100162
0.00468405
0.00443793
0.0119976
0.0398132
0.0031937
0.00387422
0.00460576
0.003918
0.00424639
0.00437101
0.004246
0.0363933
0.00438002
0.00321923
0.00442454
0.00340064
0.0503334
0.00236852
0.00320174
0.00813948
0.00349209
0.00443098
0.00512171
0.0031042
0.00475104
0.0518934
0.00904102
0.00447945
0.00427621
0.00461979
0.00577637
0.00316078
0.00441101
0.00466336
0.0080724
0.00285731
0.00983856
0.00795202
0.00662845
0.00430172
0.0310673
0.00440753
0.0042764
0.00373378
0.00366747
0.00406026
0.00407837
0.0040691
0.00478566
0.00313885
0.00484773
0.0311448
0.00321038
0.0119982
0.00395428
0.00398337
0.00417902
0.00451572
0.00481994
0.00516468
0.0105985
0.00448571
0.00321751
0.00342858
0.00410264
0.00467284
0.00335992
0.0257881
0.048831
0.00326866
0.00468847
0.00396162
0.110107
0.00229752
0.00240677
0.00424391
0.0049391
0.00664816
0.00341785
0.00433767
0.00399451
0.00444244
0.00461255
0.00449745
0.00427776
0.00441908
0.0103239
0.00308489
0.00315543
0.00491451
0.00458948
0.0043331
0.0526996
0.00319902
0.00395133
0.00436755
0.00814892
0.0076409
0.00545505
0.00546768
0.00427964
0.00393394
0.00317169
0.00422401
0.00568875
0.00429804
0.00458129
0.00431446
0.00557827
0.00367792
0.00425019
0.0044529
0.00413646
0.0165981
0.00440792
0.00464643
0.00333771
0.0307052
0.00404626
0.00354337
0.00433671
0.00337805
0.00439306
0.00428859
0.00441348
0.00333299
0.0032722
0.00426149
0.00339625
0.00400297
0.00431053
0.00375082
0.00370259
0.00453266
0.00453461
0.0358066
0.00433579
0.00290429
0.0042885
0.0183426
0.00461879
0.0371645
0.00435604
0.00355311
0.00505587
0.00473677
0.0494603
0.00510908
0.00338482
0.00445357
0.00360653
0.00411848
0.00459403
0.00442286
0.00456759
0.00423827
0.0351494
0.00451146
0.00435044
0.0125703
0.00444208
0.00929501
0.00426506
0.010667
0.00331525
0.00318279
0.00467783
0.00447591
0.00463532
0.00583021
0.00373392
0.00450116
0.00449165
0.00324903
0.00461527
0.00235966
0.00460437
0.0473449
0.00424239
0.00409727
0.0029424
0.00333236
0.015907
0.0392305
0.00416931
0.00412729
0.0042934
0.00460279
0.0033587
0.00330647
0.00423459
0.00351997
0.0241986
0.0249747
0.00449306
0.00430907
0.00459566
0.00653282
0.0521044
0.00423072
0.00453764
0.00437825
0.0461653
0.00428162
0.00304382
0.00325948
0.00784915
0.0355645
0.00443632
0.00450712
0.00446251
0.00523271
0.00433025
0.00551951
0.00318439
0.00409528
0.00528829
0.0071106
0.00463709
0.00467354
0.0708873
0.00440718
0.00354496
0.00318827
0.00544663
0.00598127
0.00395672
0.00361123
0.00420361
0.00444413
0.00448705
0.0295534
0.00304581
0.00389391
0.00424978
0.00450177
0.00662842
0.00423782
0.00433465
0.00432456
0.00427936
0.00319079
0.00305857
0.00543243
0.00567706
0.00402075
0.00517622
0.00428869
0.00980019
0.00425471
0.00445616
0.0341114
0.0272489
0.00438396
0.00438613
0.00397572
0.00414784
0.00432759
0.00565038
0.00460588
0.00423131
0.00331188
0.00294272
0.00382207
0.00311701
0.00318075
0.00556463
0.0212193
0.00497467
0.00623628
0.00354156
0.00349312
0.00467914
0.00349262
0.00462065
0.00418458
0.00558541
0.00394451
0.00421965
0.00446512
0.00343744
0.00773565
0.0305031
0.00361331
0.00435159
0.00442775
0.00526702
0.00455064
0.00428601
0.00427525
0.00340884
0.0042445
0.00430512
0.00421846
0.00458855
0.00390811
0.00621391
0.0219269
0.00425567
0.0042376
0.0039902
0.00954673
0.00433913
0.0155612
0.00428521
0.0061071
0.0274421
0.00443432
0.00390298
0.00465856
0.00300274
0.00497122
0.00316327
0.0293499
0.0036484
0.00427205
0.00463601
0.00372791
0.00320886
0.00420941
0.0497566
0.00437095
0.00408334
0.00463211
0.00374765
0.00421394
0.00321686
0.00455155
0.00441311
0.00439981
0.00378268
0.00458567
0.00456257
0.00331875
0.00437267
0.005198
0.00321942
0.0040849
0.00369183
0.00445468
0.0029135
0.00409211
0.00374047
0.003608
0.0071904
0.00300785
0.0115844
0.00446879
0.0033628
0.00449051
0.00428196
0.00677135
0.00518278
0.00341751
0.00327889
0.00428441
0.00423017
0.00412971
0.00408276
0.0045842
0.062441
0.00746669
0.0460981
0.00417167
0.00397779
0.00668805
0.0058045
0.00451724
0.00348039
0.00378323
0.00288445
0.00452366
0.003333
0.0229066
0.00454834
0.00904826
0.00350027
0.0045507
0.00597257
0.00438774
0.00427627
0.00422385
0.0033605
0.0043404
0.0031957
0.00456911
0.00301165
0.00429272
0.00294804
0.00429141
0.0235273
0.00408168
0.00428499
0.0228944
0.0148518
0.00446454
0.00319369
0.00385448
0.00536284
0.00515766
0.00388775
0.00461908
0.00433473
0.00295177
0.004983
0.00427839
0.00436472
0.00441774
0.00370886
0.00374438
0.00468991
0.00448444
0.00455713
0.0315312
0.0313225
0.00360133
0.00457056
0.00337438
0.00474663
0.00455479
0.00457841
0.00462537
0.00448203
0.00431113
0.00316249
0.00498618
0.0104952
0.00308627
0.00460169
0.00442651
0.00449635
0.00376918
0.0324626
0.00459497
0.00412964
0.00352376
0.0166776
0.0200116
0.00467479
0.00391888
0.00384446
0.00443052
0.00446671
0.0121756
0.00421813
0.00455938
0.00446099
0.00783974
0.00400094
0.00390373
0.00455548
0.00409659
0.00543626
0.00372441
0.00455809
0.00309528
0.00655297
0.00455319
0.00408133
0.00463929
0.00427214
0.0021073
0.00297599
0.004956
0.0046002
0.00421601
0.00443501
0.00432398
0.00458564
0.00443179
0.00344451
0.0087174
0.0135373
0.00773827
0.00454185
0.0522211
0.00466865
0.00427993
0.00457747
0.00448672
0.00441656
0.00442647
0.00299341
0.017771
0.00379394
0.00441314
0.00313598
0.00442117
0.00468868
0.00431304
0.00438115
0.00450969
0.00449537
0.00455745
0.0042783
0.0534709
0.00438284
0.00425636
0.00510083
0.0178559
0.00425375
0.0045053
0.00486257
0.0472545
0.00424693
0.00449019
0.00294813
0.00327051
0.00464985
0.00454079
0.00428872
0.00400642
0.0110844
0.00459418
0.0124313
0.00294533
0.0214316
0.00299177
0.00457583
0.00325041
0.00564084
0.0044464
0.00451134
0.00429688
0.0046061
0.00397954
0.0102964
0.00418105
0.00561307
0.0548121
0.0053302
0.00394337
0.00576836
0.00466313
0.00455562
0.00314043
0.00285068
0.00328598
0.00440861
0.0298842
0.00428687
0.00333508
0.0043077
0.00313446
0.0031311
0.0032617
0.00353638
0.00420298
0.00452872
0.0469274
0.00401466
0.0550421
0.00442012
0.00301995
0.00435851
0.00421013
0.0574693
0.00438028
0.00460304
0.00352556
0.00987009
0.00768393
0.00345808
0.00326854
0.00331505
0.0121141
0.0340543
0.00452057
0.00442789
0.0580638
0.00439663
0.00547762
0.00449078
0.0144068
0.00300222
0.00620179
0.00460327
0.00342725
0.00464686
0.00441684
0.00407098
0.00244266
0.0042504
0.00445744
0.00428042
0.0045705
0.00473574
0.00468471
0.00440488
0.00418151
0.00959162
0.00357308
0.00404656
0.00460933
0.00788842
0.0029944
0.00459612
0.00467877
0.00408731
0.00688781
0.0506212
0.0039758
0.00342291
0.00410124
0.00434099
0.00314298
0.00438368
0.00423832
0.00901897
0.00455357
0.0553373
0.00782271
0.0240167
0.00455304
0.00454435
0.00376712
0.0433381
0.00335073
0.00313836
0.0046757
0.00307019
0.0194087
0.00455993
0.0040289
0.00622739
0.00389817
0.0316909
0.00368012
0.00445719
0.00432131
0.00421405
0.00426894
0.00682508
0.00292268
0.0105077
0.0520323
0.00459594
0.00309234
0.00388044
0.00512986
0.0142301
0.00492776
0.00438644
0.00406583
0.00312382
0.00454517
0.00469324
0.00467909
0.00429121
0.00415247
0.00460753
0.00371713
0.00798906
0.00320248
0.00452149
0.00816521
0.00408535
0.00407904
0.00399484
0.00455457
0.004311
0.00447261
0.0129128
0.00430279
0.00746259
0.00400447
0.00341693
0.00450526
0.00417824
0.00450424
0.00437484
0.00344295
0.0128225
0.00864115
0.0559291
0.0109496
0.0337377
0.00418933
0.00446133
0.00249522
0.00462754
0.00324632
0.0173989
0.00428935
0.00558939
0.00388806
0.0302429
0.00421834
0.00319698
0.00455006
0.0489139
0.00469619
0.0337628
0.00408537
0.00470303
0.00491711
0.0103283
0.0042308
0.00548793
0.00657343
0.00442581
0.0197479
0.00558564
0.0242508
0.00346643
0.00236954
0.0153283
0.00465326
0.00461056
0.00372668
0.00431164
0.00344329
0.00331366
0.0031945
0.0039043
0.0031386
0.0549487
0.00437158
0.00426397
0.00439975
0.00456901
0.00291597
0.00340524
0.00423272
0.00331904
0.0440905
0.00431127
0.0575971
0.00719542
0.00448396
0.00615191
0.00380826
0.00317757
0.00318264
0.0213844
0.00442335
0.0045282
0.0519309
0.00436876
0.00458569
0.00355752
0.00454348
0.00428952
0.0327373
0.00460365
0.0371021
0.00398224
0.00388494
0.00428494
0.0043044
0.00657959
0.00324072
0.0141051
0.00444737
0.00293214
0.00544966
0.00305703
0.00357553
0.00527964
0.00515862
0.00423957
0.00804256
0.012905
0.00406381
0.00431384
0.0034788
0.00381161
0.00469871
0.00347057
0.0507691
0.00425991
0.00468961
0.00450866
0.00408697
0.00285138
0.00320209
0.00327975
0.0690354
0.00483884
0.00587716
0.00555625
0.00457261
0.00395888
0.0042467
0.00424086
0.0976694
0.00453324
0.0202194
0.0236187
0.00456045
0.00449438
0.00464088
0.031277
0.0299958
0.0211746
0.00335213
0.0045639
0.00426394
0.00326027
0.0347846
0.00657292
0.00305254
0.00433564
0.00615824
0.0068916
0.00541337
0.0041805
0.0136756
0.0276611
0.00405213
0.00383417
0.00429543
0.0043885
0.0302565
0.00318901
0.00371924
0.00460058
0.00464591
0.00417687
0.0485435
0.00311528
0.00295505
0.00774741
0.00533927
0.00437768
0.013042
0.005307
0.00461974
0.00304868
0.0037048
0.00411957
0.0502739
0.00453553
0.00442181
0.00424149
0.00471286
0.00310484
0.00435562
0.00511684
0.00461292
0.00455718
0.00468819
0.00330084
0.00443094
0.00703597
0.00421229
0.00455856
0.0500352
0.00438193
0.00353093
0.00361424
0.00459058
0.00352054
0.00534794
0.00451943
0.00456187
0.0044803
0.00302987
0.00449682
0.00426919
0.00444268
0.00346219
0.00674553
0.00312429
0.00832543
0.0042943
0.00540519
0.00418865
0.00467569
0.00425366
0.00458642
0.0031473
0.00413938
0.00325569
0.00412954
0.0041922
0.00449966
0.00446503
0.0256549
0.005468
0.0158864
0.00468828
0.00316333
0.0553811
0.00323277
0.0029553
0.0043946
0.00548777
0.0108402
0.00606833
0.00319254
0.00479594
0.00378429
0.00302322
0.00450421
0.0680065
0.00309266
0.00413962
0.0040536
0.00396748
0.00361195
0.00278949
0.00428555
0.00306457
0.0551618
0.0470673
0.00448592
0.00425992
0.00724618
0.0138264
0.00401663
0.00454797
0.00412137
0.00462917
0.0044136
0.00497933
0.00440186