/*--------------------------------*- C++ -*----------------------------------*\
| =========                 |                                                 |
| \\      /  F ield         | OpenFOAM: The Open Source CFD Toolbox           |
|  \\    /   O peration     | Version:  3.0.1                                 |
|   \\  /    A nd           | Web:      www.OpenFOAM.org                      |
|    \\/     M anipulation  |                                                 |
\*---------------------------------------------------------------------------*/
FoamFile
{
    version     2.0;
    format      ascii;
    class       volVectorField;
    location    "0.818922";
    object      U;
}
// * * * * * * * * * * * * * * * * * * * * * * * * * * * * * * * * * * * * * //

dimensions      [0 1 -1 0 0 0 0];

internalField   nonuniform List<vector> 
21246
(
(3.1571 5.16945 -6.72363e-19)
(2.58649 3.45313 5.00063e-19)
(2.37634 3.06156 5.17464e-19)
(2.17429 2.43846 -3.84528e-19)
(2.03705 1.93338 0)
(1.95803 1.53674 3.68898e-19)
(1.9152 1.23286 3.51837e-19)
(1.89265 1.00027 -1.76053e-19)
(1.88481 0.820227 0)
(1.88898 0.680683 0)
(1.90032 0.579547 -1.25907e-19)
(3.81028 3.5577 -1.04566e-18)
(3.28939 1.20421 0)
(3.49979 2.05144 1.21382e-19)
(3.1741 1.88836 3.74708e-19)
(2.81706 1.6605 1.80779e-19)
(2.52507 1.40873 -1.06607e-19)
(2.31638 1.16334 -1.30139e-19)
(2.17872 0.953471 0)
(2.09298 0.783506 0)
(2.04481 0.649883 -4.74667e-20)
(2.02509 0.553612 8.17704e-21)
(2.8285 1.95071 -7.08068e-18)
(2.85269 -0.276749 6.2919e-18)
(3.66745 0.853591 -4.37289e-19)
(3.56645 0.895081 -5.73971e-19)
(3.30632 0.993479 6.94624e-19)
(2.97509 0.990222 -4.78368e-19)
(2.67863 0.906844 -2.43618e-19)
(2.45011 0.791625 0)
(2.29048 0.674875 0)
(2.1882 0.573511 4.69275e-20)
(2.13431 0.500853 -8.96518e-20)
(1.53722 1.16257 1.5438e-17)
(2.12125 -0.732742 -1.15197e-17)
(3.23976 0.0278092 -6.29303e-18)
(3.379 -0.00417943 9.05149e-18)
(3.38219 0.254542 -3.07847e-18)
(3.15748 0.426026 3.73677e-19)
(2.88859 0.504366 0)
(2.63906 0.516952 0)
(2.44064 0.487971 0)
(2.29924 0.44468 3.4906e-20)
(2.21173 0.410964 8.8452e-20)
(0.496373 0.954999 -1.29015e-17)
(1.40535 -0.655668 -9.11286e-18)
(2.58858 -0.366738 7.07209e-18)
(2.91504 -0.552079 -4.06107e-18)
(3.14549 -0.310326 5.85455e-18)
(3.07409 -0.0972286 -5.53888e-19)
(2.90356 0.0761488 -2.18543e-18)
(2.699 0.190406 6.5775e-19)
(2.5087 0.249437 0)
(2.35653 0.273539 -3.44053e-20)
(2.25075 0.28934 -6.30518e-20)
(-0.278714 1.01428 0)
(0.796182 -0.402939 4.38062e-19)
(1.94629 -0.479809 -1.91143e-19)
(2.3981 -0.790053 -3.84663e-18)
(2.76631 -0.647753 2.95458e-18)
(2.82353 -0.478191 -4.40615e-19)
(2.76482 -0.281407 -4.27194e-19)
(2.63394 -0.115647 0)
(2.48489 0.0041467 0)
(2.34879 0.0851299 0)
(2.24299 0.147103 3.28156e-19)
(-0.880405 1.22913 0)
(0.288501 -0.08375 2.99843e-19)
(1.38146 -0.435404 -5.47535e-19)
(1.92114 -0.837601 -3.33447e-18)
(2.3635 -0.809552 2.56493e-18)
(2.50935 -0.707607 4.25402e-19)
(2.54076 -0.534345 -1.46603e-18)
(2.48374 -0.360634 2.20023e-18)
(2.38543 -0.210208 0)
(2.28049 -0.0938057 8.69425e-19)
(2.18861 0.00391373 -6.40508e-19)
(-1.33064 1.54862 -6.0347e-18)
(-0.129104 0.269876 4.37202e-18)
(0.900078 -0.292227 5.29206e-19)
(1.50613 -0.773628 -6.75178e-19)
(1.98964 -0.854262 2.03682e-18)
(2.19514 -0.821892 -1.56834e-18)
(2.28819 -0.688936 0)
(2.2887 -0.531913 -1.29486e-18)
(2.23912 -0.377721 -7.55235e-19)
(2.16874 -0.244026 5.64961e-19)
(2.09597 -0.126784 0)
(-1.66053 1.88635 -7.07645e-18)
(-0.492257 0.627671 4.71006e-18)
(0.492151 -0.084105 7.53907e-19)
(1.14904 -0.639335 1.22369e-18)
(1.65758 -0.821504 0)
(1.90595 -0.856047 0)
(2.04018 -0.768856 1.70247e-18)
(2.08137 -0.638662 -6.77995e-19)
(2.06954 -0.49465 7.55816e-19)
(2.02978 -0.358618 0)
(1.9779 -0.23147 0)
(-1.91413 2.22677 6.42401e-19)
(-0.818633 0.984607 -4.84517e-19)
(0.133296 0.167881 -7.36851e-19)
(0.829938 -0.458115 -5.54808e-19)
(1.35938 -0.736009 0)
(1.64454 -0.83535 0)
(1.80901 -0.795543 -7.50059e-19)
(1.87952 -0.695944 0)
(1.8955 -0.569074 5.99036e-19)
(1.87989 -0.439712 -1.00854e-18)
(1.84692 -0.312424 0)
(-2.10981 2.5904 -4.62712e-18)
(-1.10968 1.35229 3.09167e-18)
(-0.189008 0.456515 0)
(0.53637 -0.241062 1.74522e-18)
(1.0867 -0.610954 5.71541e-19)
(1.40658 -0.775436 8.80395e-19)
(1.59673 -0.784047 -5.47829e-20)
(1.69017 -0.716435 -9.11035e-19)
(1.72715 -0.609612 6.01173e-19)
(1.73083 -0.490622 -9.15496e-19)
(1.71376 -0.368269 -5.12007e-19)
(-2.24822 2.94695 -3.11866e-18)
(-1.36166 1.71318 2.69763e-18)
(-0.471333 0.764982 0)
(0.269725 -0.000160267 -1.86741e-18)
(0.838027 -0.456466 5.48318e-19)
(1.18891 -0.686341 -7.92113e-19)
(1.40204 -0.744162 -6.45233e-19)
(1.51475 -0.709302 9.13607e-20)
(1.56812 -0.623915 1.21959e-18)
(1.58623 -0.517767 0)
(1.58204 -0.401219 9.56052e-19)
(-2.33466 3.25149 -1.60404e-18)
(-1.57687 2.04689 1.20431e-18)
(-0.719788 1.07781 -4.2238e-19)
(0.023179 0.255572 -6.48137e-19)
(0.605498 -0.279686 1.49033e-18)
(0.984519 -0.574461 4.38211e-19)
(1.21992 -0.682278 4.99023e-19)
(1.35085 -0.680948 0)
(1.41877 -0.617728 0)
(1.44885 -0.526178 3.12095e-19)
(1.45524 -0.419924 -8.66667e-19)
(-2.38573 3.51642 3.31972e-18)
(-1.76235 2.3644 -1.10051e-18)
(-0.948534 1.39903 8.05062e-19)
(-0.216491 0.53041 -3.17081e-19)
(0.376568 -0.0787219 -4.72337e-19)
(0.782656 -0.439726 -2.84634e-19)
(1.04219 -0.599988 -1.34555e-18)
(1.19329 -0.634166 6.83857e-19)
(1.277 -0.594194 -4.18343e-19)
(1.32023 -0.517691 6.27648e-19)
(1.33949 -0.422008 0)
(-2.41905 3.75332 -3.6322e-19)
(-1.91816 2.65845 -1.95458e-18)
(-1.15599 1.71999 1.10213e-18)
(-0.447358 0.820107 0)
(0.150372 0.145531 -7.79697e-19)
(0.579732 -0.2809 3.11014e-19)
(0.863868 -0.495703 6.73655e-19)
(1.03744 -0.568216 5.39558e-19)
(1.13953 -0.553615 -9.47448e-19)
(1.19751 -0.493726 -2.0046e-19)
(1.22947 -0.409884 3.52556e-19)
(-2.42664 3.93568 0)
(-2.04135 2.91804 0)
(-1.34445 2.03416 -8.19052e-20)
(-0.672022 1.12391 0)
(-0.0776822 0.395798 0)
(0.370193 -0.0935222 -3.97546e-19)
(0.678892 -0.364588 2.48942e-20)
(0.877616 -0.479023 4.64801e-19)
(1.00211 -0.493373 2.81815e-19)
(1.07892 -0.453083 6.42074e-20)
(1.12762 -0.383693 -1.47735e-19)
(-2.40942 4.09143 -1.21903e-18)
(-2.13676 3.15666 9.2006e-19)
(-1.51687 2.3478 8.39793e-20)
(-0.894856 1.45032 2.76791e-20)
(-0.313911 0.681482 0)
(0.146759 0.132397 1.23969e-19)
(0.479563 -0.197165 1.34075e-19)
(0.706992 -0.358449 2.38412e-20)
(0.859584 -0.407466 -1.49733e-19)
(0.960934 -0.392211 -9.61959e-20)
(1.032 -0.341461 -7.88377e-20)
(-2.37691 4.18936 -1.17177e-18)
(-2.20218 3.36518 8.8795e-19)
(-1.66852 2.65391 0)
(-1.11147 1.79786 -2.86737e-20)
(-0.557676 1.00726 5.48307e-19)
(-0.0930341 0.405936 -4.8969e-20)
(0.26133 0.0183028 -2.59426e-19)
(0.520172 -0.194642 -1.46492e-19)
(0.706917 -0.286086 2.08501e-20)
(0.839545 -0.304341 1.97204e-19)
(0.936573 -0.280746 -1.14775e-19)
(-2.33134 4.26639 -1.14209e-18)
(-2.23802 3.55203 6.81423e-20)
(-1.79456 2.94726 6.05207e-19)
(-1.31793 2.16254 0)
(-0.809818 1.37806 3.75438e-20)
(-0.353543 0.739873 0)
(0.0184789 0.298828 0)
(0.311331 0.029994 -3.9508e-20)
(0.538294 -0.114059 0)
(0.709582 -0.177801 -3.64154e-20)
(0.840847 -0.192027 0)
(-2.27612 4.33148 0)
(-2.25091 3.71644 -7.82635e-19)
(-1.89618 3.21831 4.5591e-19)
(-1.51369 2.53435 1.84689e-19)
(-1.07261 1.79754 0)
(-0.639012 1.15198 0)
(-0.253383 0.668864 -1.56684e-19)
(0.0753677 0.340445 3.8381e-20)
(0.346746 0.130894 1.01392e-20)
(0.561447 0.00605721 4.11701e-20)
(0.733755 -0.059556 0)
(-2.20496 4.38263 0)
(-2.25287 3.85293 0)
(-1.98588 3.45776 1.48762e-19)
(-1.70591 2.90456 -2.01468e-19)
(-1.34566 2.27158 3.10922e-19)
(-0.945903 1.66629 -2.40418e-19)
(-0.551132 1.16138 1.22142e-19)
(-0.188738 0.770402 2.19254e-20)
(0.124978 0.481174 -2.20736e-22)
(0.381216 0.27746 6.59489e-22)
(0.59348 0.143045 3.83457e-21)
(-2.17642 4.24205 3.07623e-19)
(-2.26153 3.89457 -8.05098e-19)
(-2.10867 3.64581 6.00769e-19)
(-1.9036 3.26031 -1.5948e-19)
(-1.60813 2.79723 -2.72581e-19)
(-1.242 2.29274 1.26739e-19)
(-0.848451 1.79893 -3.69658e-20)
(-0.469129 1.35325 -4.13127e-20)
(-0.129586 0.980274 8.91109e-21)
(0.157569 0.688791 5.67629e-20)
(0.423256 0.471209 0)
(-2.23696 4.54133 -7.24835e-19)
(-2.23449 4.11963 -7.02347e-19)
(-2.10005 3.94489 4.46692e-19)
(-1.9102 3.69993 -3.21354e-20)
(-1.66158 3.40037 2.05755e-19)
(-1.35932 3.01217 -5.95386e-21)
(-1.03046 2.5574 4.2452e-20)
(-0.704608 2.08633 3.90624e-20)
(-0.402933 1.65111 8.12097e-21)
(-0.141316 1.28437 3.8045e-21)
(0.147101 0.960494 -8.07679e-20)
(-1.08259 2.46839 4.73087e-19)
(-1.39287 2.64999 -2.46081e-19)
(-1.18291 2.75034 2.61248e-19)
(-1.06715 2.83962 1.63932e-19)
(-0.96054 2.90026 -8.26995e-20)
(-0.851826 2.90074 2.11177e-20)
(-0.728543 2.8126 6.39077e-20)
(-0.556929 2.59368 2.66055e-21)
(-0.369517 2.30739 -7.97086e-20)
(-0.190508 2.00072 -5.95371e-20)
(0.0226955 1.62216 -8.76759e-20)
(-0.520067 4.56714 -1.09895e-18)
(-0.400488 3.55425 2.48392e-18)
(0.422817 2.78345 -2.89786e-18)
(0.931871 2.22932 3.85397e-19)
(1.23271 1.80187 -1.14105e-18)
(1.41539 1.46586 1.76885e-18)
(1.53331 1.19657 4.75428e-20)
(1.61317 0.982867 -4.93837e-19)
(1.6739 0.813811 7.63977e-19)
(1.72383 0.681757 -2.25264e-19)
(1.76385 0.58318 2.01629e-19)
(-2.50085 0.213765 2.04938e-18)
(-1.45151 1.44475 1.13338e-18)
(-0.777917 1.76487 -1.5302e-18)
(-0.0491846 1.74397 0)
(0.484584 1.56702 -1.20871e-18)
(0.872606 1.35338 3.38941e-20)
(1.1399 1.13945 -1.89275e-18)
(1.32487 0.947803 -4.69148e-19)
(1.45806 0.787247 -4.05471e-19)
(1.55634 0.65851 -6.76801e-20)
(1.62588 0.561154 2.84482e-19)
(-2.25933 -0.860209 5.31018e-19)
(-1.31904 -0.0918987 1.78781e-18)
(-1.18474 0.32521 1.6262e-18)
(-0.678011 0.78001 -9.71115e-19)
(-0.132153 1.02913 -2.01186e-20)
(0.375513 1.06138 -8.89101e-19)
(0.768984 0.978194 9.11039e-19)
(1.04724 0.850921 1.02103e-18)
(1.24532 0.722781 -6.13904e-19)
(1.38917 0.612568 6.3638e-19)
(1.48938 0.527035 -3.98601e-19)
(-1.63132 -1.37042 -5.79424e-18)
(-0.673919 -0.737362 2.39978e-18)
(-0.95003 -0.492252 1.71893e-18)
(-0.688532 -0.058171 2.02224e-19)
(-0.380143 0.283844 1.89227e-20)
(0.00371481 0.508452 7.74715e-19)
(0.390792 0.609843 -4.63383e-19)
(0.726203 0.621447 -5.34689e-19)
(0.992034 0.578334 6.02105e-19)
(1.19131 0.515445 2.87796e-20)
(1.32668 0.455483 5.86769e-19)
(-0.986558 -1.54939 0)
(-0.079915 -1.07822 1.87955e-18)
(-0.501786 -0.970929 6.10544e-19)
(-0.367215 -0.577723 -3.37899e-19)
(-0.2363 -0.247607 8.62956e-19)
(0.0016826 0.037422 -6.51535e-19)
(0.287123 0.228487 4.25439e-20)
(0.577037 0.3324 2.93742e-19)
(0.834311 0.368482 -7.14178e-20)
(1.04574 0.365818 -3.0336e-19)
(1.19943 0.347078 2.63961e-19)
(-0.460166 -1.5592 -1.05339e-20)
(0.368718 -1.23262 0)
(-0.0675909 -1.22528 1.99014e-20)
(0.0130121 -0.895423 -2.80281e-20)
(0.0261296 -0.628721 1.15113e-18)
(0.152263 -0.349589 -1.82146e-18)
(0.336774 -0.121186 6.77721e-19)
(0.552468 0.0416835 5.01676e-20)
(0.766802 0.141524 0)
(0.959623 0.193048 0)
(1.10547 0.212863 -2.09007e-19)
(-0.0546603 -1.47919 5.45894e-19)
(0.69379 -1.27351 0)
(0.29459 -1.32985 -1.8551e-20)
(0.362905 -1.04811 2.63057e-20)
(0.309609 -0.857355 6.90716e-19)
(0.366783 -0.608269 -4.64303e-19)
(0.466699 -0.386318 5.06613e-19)
(0.610107 -0.202641 -6.87372e-20)
(0.771083 -0.0656925 -4.57028e-19)
(0.9274 0.0261254 3.66387e-19)
(1.04997 0.0820276 -2.00676e-19)
(0.257162 -1.37242 -7.51058e-19)
(0.918161 -1.26911 0)
(0.58079 -1.35598 0)
(0.654121 -1.10563 0)
(0.560661 -0.977406 -3.2057e-19)
(0.589468 -0.76151 2.77203e-19)
(0.629839 -0.564901 -4.56683e-20)
(0.714159 -0.383686 0)
(0.823514 -0.234875 0)
(0.941599 -0.123361 -5.56104e-20)
(1.04046 -0.0481883 1.60495e-19)
(0.514367 -1.26481 -5.68191e-19)
(1.08938 -1.25764 1.13729e-18)
(0.795142 -1.33785 0)
(0.89818 -1.11808 -1.22444e-19)
(0.775733 -1.02825 1.25684e-19)
(0.789778 -0.843643 -4.75586e-20)
(0.794179 -0.674905 -3.09071e-19)
(0.836282 -0.507516 -4.49353e-20)
(0.902197 -0.360608 -7.34982e-21)
(0.983058 -0.24152 6.72771e-20)
(1.05281 -0.155006 0)
(0.713109 -1.16952 2.72586e-18)
(1.26032 -1.23158 -1.35395e-18)
(0.976197 -1.29294 0)
(1.0827 -1.11526 -2.23673e-19)
(0.964032 -1.03715 3.88547e-19)
(0.964829 -0.879052 -9.65321e-20)
(0.946463 -0.734552 -1.33801e-20)
(0.959531 -0.583866 -1.30926e-19)
(0.991912 -0.445946 1.75265e-19)
(1.04112 -0.328077 2.77781e-19)
(1.08457 -0.240141 -1.52075e-19)
(0.848779 -1.08402 2.74778e-19)
(1.40696 -1.18394 0)
(1.14558 -1.23867 -8.47034e-19)
(1.23633 -1.0882 2.32824e-19)
(1.12454 -1.02078 -2.80622e-19)
(1.11618 -0.883194 6.79053e-19)
(1.08269 -0.758449 -1.97013e-19)
(1.07545 -0.62373 0)
(1.08255 -0.497661 -7.53742e-20)
(1.10665 -0.386238 -1.77737e-19)
(1.13156 -0.301401 7.84811e-20)
(0.949486 -0.999162 -2.68549e-19)
(1.522 -1.11932 -1.41015e-18)
(1.28742 -1.17897 1.11537e-18)
(1.3682 -1.0445 3.06488e-19)
(1.26113 -0.987068 0)
(1.2465 -0.865167 4.8814e-19)
(1.20234 -0.756667 -4.7432e-19)
(1.18041 -0.636251 0)
(1.16812 -0.522736 -1.72217e-20)
(1.17198 -0.419882 4.28809e-20)
(1.18234 -0.338469 4.65384e-20)
(1.03586 -0.913475 1.14527e-18)
(1.62444 -1.04575 0)
(1.40495 -1.11457 0)
(1.4817 -0.989031 -3.86524e-19)
(1.37676 -0.940836 -2.59134e-19)
(1.35801 -0.830746 -2.7161e-19)
(1.30554 -0.736019 1.50752e-19)
(1.27258 -0.628261 0)
(1.24506 -0.527174 0)
(1.23178 -0.434588 -2.96831e-20)
(1.22425 -0.363128 -3.05948e-21)
(1.11039 -0.811456 -1.19009e-18)
(1.71345 -0.954923 0)
(1.50717 -1.04087 0)
(1.57885 -0.924134 -3.6266e-19)
(1.47518 -0.88434 3.53029e-19)
(1.45269 -0.784212 -2.29332e-19)
(1.39324 -0.701528 2.59583e-19)
(1.35134 -0.605231 4.47244e-19)
(1.31115 -0.516229 1.82534e-19)
(1.28429 -0.433816 -6.22834e-20)
(1.26327 -0.370415 -6.69532e-20)
(1.16329 -0.699495 0)
(1.77702 -0.858939 0)
(1.59327 -0.959341 0)
(1.65764 -0.852598 4.14574e-19)
(1.55929 -0.817549 5.19319e-19)
(1.53062 -0.727668 -1.42756e-18)
(1.46637 -0.654641 7.2349e-19)
(1.41607 -0.569793 -7.41216e-19)
(1.36537 -0.492698 -5.50249e-20)
(1.32643 -0.421889 3.11435e-20)
(1.29338 -0.368988 -7.22032e-20)
(1.20779 -0.586475 -7.84781e-19)
(1.82255 -0.758633 1.79332e-18)
(1.66597 -0.870651 -1.47249e-18)
(1.72072 -0.775516 4.9384e-19)
(1.62981 -0.742464 5.31929e-19)
(1.5933 -0.662937 -7.24756e-19)
(1.52527 -0.59803 5.23246e-19)
(1.46667 -0.524866 7.79087e-19)
(1.40683 -0.459736 -1.7873e-19)
(1.35685 -0.401386 1.52468e-19)
(1.31417 -0.358283 9.61306e-21)
(1.24501 -0.46743 -3.13386e-19)
(1.85408 -0.647604 0)
(1.72745 -0.771613 3.1556e-19)
(1.77037 -0.691454 0)
(1.68722 -0.659466 0)
(1.6415 -0.590541 -1.80441e-19)
(1.56968 -0.533398 0)
(1.50279 -0.472481 -2.73052e-19)
(1.43482 -0.419901 -1.5233e-19)
(1.37474 -0.375072 0)
(1.32064 -0.345276 0)
(1.26801 -0.340369 0)
(1.86753 -0.524431 -2.09677e-19)
(1.7743 -0.660619 0)
(1.80604 -0.598407 2.05048e-19)
(1.73032 -0.568108 1.36281e-19)
(1.67483 -0.510352 8.41215e-19)
(1.59861 -0.461966 -3.97782e-19)
(1.52382 -0.41439 0)
(1.4488 -0.375504 -5.6929e-20)
(1.38055 -0.344662 1.48152e-19)
(1.31717 -0.327617 -6.33158e-20)
(1.27709 -0.206315 -7.9265e-20)
(1.86152 -0.387697 -1.46872e-18)
(1.80338 -0.535055 1.31221e-18)
(1.82559 -0.493505 -3.1547e-19)
(1.7564 -0.467203 -6.43396e-19)
(1.69143 -0.422117 3.82777e-19)
(1.61037 -0.384969 -1.07083e-19)
(1.5289 -0.352533 2.4742e-19)
(1.44861 -0.328948 -2.13302e-19)
(1.37449 -0.313065 6.73776e-20)
(1.30422 -0.310489 8.97069e-21)
(1.2722 -0.0634054 8.81375e-20)
(1.83476 -0.231937 -1.71598e-18)
(1.81063 -0.38892 1.31546e-18)
(1.82471 -0.37159 1.06899e-19)
(1.76079 -0.354275 -3.61936e-21)
(1.68788 -0.325464 0)
(1.6028 -0.303793 0)
(1.51739 -0.289026 -4.98574e-20)
(1.43476 -0.282363 0)
(1.35798 -0.281846 0)
(1.28452 -0.292974 2.31675e-20)
(1.24536 0.091714 0)
(1.78007 -0.049726 0)
(1.78567 -0.214099 0)
(1.79293 -0.225814 0)
(1.73415 -0.225852 4.06352e-19)
(1.65768 -0.219749 -3.01002e-19)
(1.57251 -0.21936 0)
(1.48814 -0.225144 -2.51048e-21)
(1.40766 -0.2366 0)
(1.33198 -0.251746 4.19298e-21)
(1.25979 -0.27613 1.36999e-21)
(1.19955 0.266325 3.05794e-18)
(1.69036 0.168069 -3.8019e-18)
(1.71637 -0.000552183 1.15365e-18)
(1.71859 -0.0476236 -1.38159e-19)
(1.66793 -0.0761302 0)
(1.59678 -0.100825 0)
(1.51962 -0.127629 0)
(1.44359 -0.156467 0)
(1.37053 -0.186591 -3.12121e-21)
(1.30074 -0.21746 1.33749e-20)
(1.23481 -0.253989 -1.42243e-21)
(1.00666 0.435084 -2.44448e-19)
(1.4806 0.42274 -1.61497e-19)
(1.52544 0.246087 1.54259e-19)
(1.53326 0.156881 1.67187e-19)
(1.50604 0.0942797 6.0563e-20)
(1.46126 0.0377451 -1.9413e-20)
(1.40979 -0.0157321 2.34059e-20)
(1.35421 -0.0661024 0)
(1.29452 -0.115028 4.06665e-21)
(1.23303 -0.163698 -1.92177e-21)
(1.18156 -0.198521 -4.07698e-20)
(1.14103 0.703269 0)
(1.42311 0.855436 -2.76075e-19)
(1.40751 0.68471 3.42581e-19)
(1.36815 0.561367 -4.71561e-20)
(1.32035 0.463524 -7.46601e-20)
(1.27275 0.37977 -4.39107e-20)
(1.23002 0.319659 0)
(1.1707 0.313822 0)
(1.09692 0.350237 7.8411e-20)
(1.01587 0.405899 -1.5417e-20)
(0.922412 0.485029 1.25706e-19)
(4.90806 -1.95537 -2.00926e-20)
(3.96246 -1.38426 -1.71424e-20)
(4.18183 -1.37454 0)
(4.22476 -1.27005 -1.76552e-19)
(4.10961 -1.06147 1.99091e-19)
(3.9355 -0.79396 -3.34294e-20)
(3.76605 -0.572101 -1.03979e-20)
(3.60817 -0.417026 0)
(3.46671 -0.322263 -8.00276e-21)
(3.33971 -0.274859 -5.2916e-21)
(3.23814 -0.268474 4.60139e-22)
(4.0058 -0.634566 2.45646e-20)
(3.1625 -0.545364 -3.03299e-18)
(3.33932 -1.00183 2.12348e-18)
(3.48083 -1.17461 1.2482e-20)
(3.53987 -1.16105 -8.87471e-20)
(3.55189 -1.01878 0)
(3.52957 -0.813535 0)
(3.47071 -0.608799 0)
(3.39539 -0.471131 1.39831e-20)
(3.31404 -0.392269 -3.3528e-20)
(3.24112 -0.364508 -9.19437e-21)
(3.93573 0.532614 -2.61033e-18)
(3.18172 0.0796193 5.44081e-18)
(3.01839 -0.458298 -1.86852e-19)
(3.00805 -0.773511 -1.71487e-18)
(3.0558 -0.945465 8.99317e-20)
(3.13459 -0.972469 0)
(3.21601 -0.874393 0)
(3.26526 -0.710152 -2.16389e-19)
(3.27484 -0.562327 2.91909e-19)
(3.25291 -0.465634 -1.72479e-19)
(3.22365 -0.424089 1.86556e-19)
(4.10183 0.994758 -4.46969e-18)
(3.38028 0.493712 3.66615e-18)
(3.00846 0.0433041 -1.77535e-18)
(2.83211 -0.306069 1.88344e-18)
(2.78332 -0.577362 -1.12123e-18)
(2.83157 -0.730618 0)
(2.93931 -0.751884 -3.64669e-19)
(3.05307 -0.674878 2.05079e-19)
(3.13421 -0.571768 1.75516e-19)
(3.17153 -0.488075 -1.28439e-19)
(3.18521 -0.44452 -4.49704e-20)
(4.15213 1.03364 0)
(3.536 0.726808 -1.77639e-18)
(3.10831 0.393836 1.60028e-18)
(2.83812 0.0833568 -3.80873e-19)
(2.69999 -0.203405 0)
(2.68537 -0.417133 -5.79314e-19)
(2.76872 -0.526874 4.93438e-19)
(2.89615 -0.54021 8.11783e-20)
(3.01391 -0.502937 0)
(3.09305 -0.455704 0)
(3.14234 -0.428712 -1.71473e-19)
(4.09198 0.949492 -4.12217e-19)
(3.63401 0.827892 -1.19323e-18)
(3.24122 0.605897 9.07825e-19)
(2.93502 0.360655 0)
(2.74532 0.104812 8.77551e-19)
(2.67603 -0.118562 -3.61099e-19)
(2.7168 -0.275789 -3.81538e-19)
(2.82415 -0.356641 -2.04699e-19)
(2.94446 -0.382413 8.61788e-19)
(3.04086 -0.380887 4.44813e-19)
(3.10996 -0.38044 3.16176e-19)
(4.03553 0.863005 -6.8187e-19)
(3.68029 0.84295 2.4645e-19)
(3.35943 0.701254 0)
(3.07269 0.535556 2.7627e-19)
(2.8646 0.324427 0)
(2.76234 0.120569 2.45351e-19)
(2.76317 -0.0510057 -4.05426e-19)
(2.83618 -0.171358 4.69101e-19)
(2.93648 -0.244723 8.15214e-21)
(3.02829 -0.285092 -3.33774e-19)
(3.10078 -0.314557 -1.92453e-19)
(3.97748 0.776857 3.13861e-19)
(3.69797 0.81574 6.64206e-19)
(3.45031 0.719552 -1.01521e-18)
(3.21361 0.622367 2.51132e-19)
(3.01599 0.45696 3.58153e-19)
(2.90272 0.28423 -4.85164e-20)
(2.87499 0.119153 -3.71874e-19)
(2.91292 -0.0171161 -8.83233e-19)
(2.98332 -0.119219 2.95347e-20)
(3.05681 -0.190715 0)
(3.11906 -0.24421 0)
(3.93162 0.693528 -6.44153e-21)
(3.70834 0.774656 0)
(3.52278 0.696808 0)
(3.33879 0.641158 0)
(3.17218 0.516374 6.63078e-19)
(3.06424 0.375754 -4.68229e-19)
(3.02031 0.227279 0)
(3.02917 0.0909688 0)
(3.06887 -0.0235556 -2.54805e-19)
(3.11794 -0.113423 3.46966e-19)
(3.16264 -0.183888 -1.16267e-19)
(3.9079 0.616569 -1.2525e-19)
(3.72719 0.730589 3.59763e-19)
(3.5871 0.651326 -5.50773e-19)
(3.44821 0.617343 4.09101e-19)
(3.31926 0.522664 1.44671e-19)
(3.2258 0.40893 2.20282e-19)
(3.17513 0.279402 0)
(3.16277 0.151436 -1.91059e-19)
(3.17576 0.0354225 -3.65325e-19)
(3.19982 -0.0626632 3.29513e-19)
(3.22333 -0.142542 -2.02274e-19)
(3.90924 0.543306 1.15434e-19)
(3.76068 0.68195 0)
(3.6508 0.592921 0)
(3.54851 0.56884 -1.02519e-19)
(3.45312 0.492979 -1.41535e-19)
(3.37591 0.398359 -9.2386e-20)
(3.32449 0.286175 2.70637e-19)
(3.29804 0.16968 3.01969e-21)
(3.28985 0.0583103 1.23338e-19)
(3.29144 -0.0409608 0)
(3.29415 -0.123054 0)
(3.92674 0.470806 0)
(3.80476 0.623567 0)
(3.71687 0.525699 5.80979e-20)
(3.64167 0.504549 -4.91412e-21)
(3.57158 0.438824 -6.57389e-20)
(3.50941 0.356833 -9.2772e-20)
(3.46053 0.258719 5.81476e-20)
(3.42543 0.153603 -8.20119e-20)
(3.4012 0.0496237 5.96007e-20)
(3.38352 -0.046148 -3.36653e-20)
(3.36737 -0.12766 3.92957e-20)
(3.95431 0.398851 -1.24235e-20)
(3.85595 0.560018 0)
(3.78438 0.453763 -4.35316e-20)
(3.72823 0.431216 0)
(3.67621 0.370283 1.44469e-20)
(3.62638 0.295644 -4.00283e-20)
(3.58104 0.207395 1.44991e-19)
(3.54063 0.111603 -4.15182e-20)
(3.50417 0.0150753 0)
(3.47011 -0.075442 6.2836e-20)
(3.43659 -0.153884 -5.71872e-20)
(3.9951 0.32716 -1.19639e-20)
(3.91585 0.494682 0)
(3.8544 0.380606 -1.36175e-20)
(3.81082 0.353795 0)
(3.77077 0.294256 -1.43433e-20)
(3.72979 0.22278 -4.67155e-21)
(3.68739 0.140209 6.73694e-21)
(3.64307 0.0507474 -1.35855e-21)
(3.59657 -0.0397889 -4.44987e-20)
(3.54821 -0.124572 0)
(3.49896 -0.19836 0)
(4.04638 0.252327 9.327e-20)
(3.9806 0.426058 -6.73131e-20)
(3.92509 0.304843 2.78973e-21)
(3.88964 0.274052 3.87822e-20)
(3.85728 0.213867 0)
(3.82222 0.142516 -1.08099e-19)
(3.78164 0.0618544 -1.22675e-19)
(3.73362 -0.0246064 0)
(3.67776 -0.111289 5.60834e-21)
(3.61584 -0.190757 2.82955e-20)
(3.55067 -0.260616 0)
(4.10184 0.175744 -4.75792e-21)
(4.04726 0.356014 -7.0222e-20)
(3.99602 0.228117 -1.95999e-19)
(3.96602 0.193275 -1.40765e-19)
(3.93877 0.131013 0)
(3.90757 0.0572185 1.43889e-19)
(3.86753 -0.0252448 9.63054e-20)
(3.81483 -0.112476 -5.44306e-20)
(3.74853 -0.197897 4.08315e-20)
(3.67201 -0.272707 0)
(3.59049 -0.334714 -4.24382e-20)
(4.16253 0.0971772 0)
(4.11765 0.285473 0)
(4.06861 0.151778 1.99793e-19)
(4.04239 0.112142 2.79851e-19)
(4.01899 0.0465371 0)
(3.99063 -0.032617 0)
(3.94966 -0.121323 0)
(3.88978 -0.213683 0)
(3.80964 -0.30026 0)
(3.7153 -0.369832 0)
(3.6153 -0.421642 0)
(4.22755 0.0153983 -1.8767e-19)
(4.18994 0.21406 0)
(4.14189 0.0753315 0)
(4.11967 0.0316146 -4.02334e-19)
(4.10123 -0.0390219 3.83447e-19)
(4.0762 -0.128117 0)
(4.0324 -0.22953 0)
(3.96035 -0.332381 8.1011e-20)
(3.85987 -0.421823 -1.49035e-19)
(3.74232 -0.484176 -2.38234e-20)
(3.62021 -0.523885 0)
(4.29457 -0.0692809 1.84867e-19)
(4.2623 0.143279 -4.07275e-19)
(4.2162 0.00145447 1.88308e-19)
(4.20181 -0.0454714 -1.44641e-19)
(4.1932 -0.125326 -3.59299e-19)
(4.17319 -0.233577 1.28865e-19)
(4.12162 -0.357854 0)
(4.02716 -0.476906 0)
(3.89565 -0.567965 0)
(3.74854 -0.616604 9.0228e-20)
(3.60542 -0.632132 0)
(4.35954 -0.154608 0)
(4.3351 0.074587 2.85462e-19)
(4.29651 -0.0631957 3.87488e-19)
(4.30176 -0.113552 -5.55329e-19)
(4.31131 -0.213826 1.97093e-19)
(4.29341 -0.359471 -1.97793e-19)
(4.22105 -0.522239 9.99903e-20)
(4.08609 -0.661013 3.95097e-21)
(3.90827 -0.745157 -1.05307e-19)
(3.72526 -0.767178 7.57998e-21)
(3.56214 -0.748024 0)
(4.45017 -0.259635 0)
(4.40435 0.0451539 0)
(4.38038 -0.0751103 0)
(4.42553 -0.14167 1.21721e-19)
(4.46145 -0.309693 -1.99905e-19)
(4.43448 -0.543572 2.1082e-19)
(4.3128 -0.755343 -1.05382e-19)
(4.11488 -0.899123 1.34156e-19)
(3.87932 -0.958775 0)
(3.66018 -0.933136 1.78459e-20)
(3.48712 -0.863825 -1.13136e-20)
(4.41833 -0.123941 0)
(4.38849 0.146224 0)
(4.51059 -0.113739 0)
(4.62204 -0.393777 1.62364e-19)
(4.60078 -0.718588 0)
(4.4806 -0.985908 0)
(4.27975 -1.16789 -4.69194e-20)
(4.02647 -1.2393 -4.50816e-20)
(3.76602 -1.20343 0)
(3.53464 -1.1023 -2.46253e-20)
(3.37329 -0.969885 3.13523e-20)
(4.08817 0.398323 0)
(4.42299 -0.593031 0)
(4.48312 -0.735136 3.94414e-19)
(4.41175 -1.07334 -3.63396e-19)
(4.30259 -1.34342 0)
(4.15641 -1.52517 0)
(3.96325 -1.61097 5.05632e-20)
(3.72634 -1.58576 1.15004e-20)
(3.49246 -1.45071 -2.41523e-20)
(3.32122 -1.2499 2.2451e-20)
(3.22506 -1.04801 -6.31708e-21)
(3.95722 -1.2665 -1.23481e-18)
(4.06633 -1.01922 0)
(3.9585 -1.45848 4.70354e-19)
(3.89708 -1.65901 -2.43589e-19)
(3.84029 -1.78664 0)
(3.76612 -1.85671 0)
(3.65715 -1.85575 0)
(3.496 -1.76162 6.96302e-21)
(3.28237 -1.55264 -4.01559e-21)
(3.10563 -1.28058 -1.21763e-20)
(3.05974 -1.05352 4.10913e-21)
(6.29672 -1.43908 0)
(5.73488 -1.05728 3.84538e-20)
(5.28493 -0.948731 1.69913e-20)
(4.89303 -0.813048 0)
(4.5286 -0.636823 -8.29566e-21)
(4.20208 -0.451128 8.99459e-20)
(3.92683 -0.298162 -6.8507e-20)
(3.69903 -0.196161 0)
(3.50609 -0.141082 0)
(3.3393 -0.125938 1.14198e-20)
(3.20617 -0.149232 -1.19345e-20)
(6.42469 0.185494 -8.83759e-20)
(6.17968 0.0660969 -3.65994e-19)
(5.8361 -0.113884 -5.06434e-19)
(5.42241 -0.189654 2.42835e-19)
(4.97518 -0.168732 9.62155e-20)
(4.5349 -0.0815028 -1.50564e-19)
(4.14185 0.0104667 3.55991e-19)
(3.82018 0.0644289 -2.61025e-19)
(3.55971 0.0797838 0)
(3.34037 0.0653262 -3.22334e-19)
(3.16379 0.0254306 2.03821e-19)
(6.27882 0.816868 -2.57665e-19)
(6.23313 0.739907 -8.21004e-19)
(6.04249 0.534567 7.316e-19)
(5.72679 0.402235 2.99759e-19)
(5.30844 0.34092 1.53113e-19)
(4.82799 0.357022 1.51612e-19)
(4.34541 0.39895 0)
(3.92964 0.398538 -3.33603e-19)
(3.60127 0.355619 3.95277e-22)
(3.33363 0.29565 1.18006e-19)
(3.11629 0.229174 1.80683e-19)
(6.1685 0.984658 2.38748e-19)
(6.16112 1.05722 -4.88467e-19)
(6.05202 0.918336 9.85746e-21)
(5.82693 0.826325 -1.66188e-19)
(5.4842 0.764798 -5.00481e-19)
(5.03347 0.766941 1.91637e-19)
(4.51377 0.816325 8.8753e-21)
(4.00822 0.805852 -2.05173e-19)
(3.60762 0.686916 4.70296e-19)
(3.29328 0.551827 -1.6789e-19)
(3.04057 0.441777 -1.773e-19)
(6.13587 1.01869 0)
(6.11583 1.16119 1.34794e-19)
(6.01756 1.07826 1.01135e-19)
(5.82983 1.04875 2.63088e-19)
(5.54002 1.02627 0)
(5.13787 1.04296 0)
(4.63767 1.11802 2.61647e-19)
(4.08664 1.20592 0)
(3.57492 1.14441 8.00202e-21)
(3.19488 0.913103 -1.67733e-19)
(2.92753 0.717175 0)
(6.13796 1.01528 0)
(6.11145 1.19884 -1.14818e-19)
(6.01424 1.13151 1.35763e-19)
(5.82983 1.13797 -2.45314e-19)
(5.55215 1.1466 0)
(5.16072 1.18234 -1.78921e-19)
(4.65367 1.26142 0)
(4.07646 1.38146 0)
(3.49801 1.43298 2.79354e-20)
(3.01803 1.24925 1.38546e-19)
(2.73139 0.993009 -1.45641e-19)
(6.15361 0.99569 0)
(6.1235 1.20436 -3.77373e-20)
(6.02931 1.13622 -1.00945e-19)
(5.84594 1.1595 -7.3365e-20)
(5.57411 1.18068 1.31803e-20)
(5.18704 1.22695 7.49061e-20)
(4.66659 1.31143 3.88759e-21)
(4.03412 1.43706 3.04586e-20)
(3.39089 1.54094 5.32669e-20)
(2.83138 1.48485 -7.93977e-20)
(2.47327 1.23331 3.15844e-19)
(6.17726 0.964285 0)
(6.14301 1.18377 5.14616e-20)
(6.0526 1.10845 -3.96306e-20)
(5.87029 1.14043 5.54412e-20)
(5.60471 1.16121 0)
(5.22397 1.20628 3.54035e-20)
(4.69817 1.28739 5.24329e-20)
(4.0267 1.41666 -4.94251e-20)
(3.29864 1.53816 -1.7797e-22)
(2.6532 1.56708 -4.478e-20)
(2.21147 1.40636 3.39216e-20)
(6.20355 0.929934 2.06882e-20)
(6.16353 1.14792 9.11091e-20)
(6.07727 1.05678 0)
(5.89581 1.09296 4.3209e-22)
(5.63793 1.10322 0)
(5.26806 1.13587 0)
(4.74794 1.20035 2.62134e-21)
(4.05386 1.31556 7.48305e-23)
(3.25728 1.44703 -1.09629e-19)
(2.5063 1.50394 -4.14163e-20)
(1.9787 1.47192 -2.9467e-21)
(6.22023 0.894617 0)
(6.18293 1.10024 -3.017e-20)
(6.09666 0.986522 2.34453e-20)
(5.91642 1.02449 2.11433e-20)
(5.66748 1.01566 -1.67626e-20)
(5.31259 1.02601 0)
(4.81071 1.06165 -1.43406e-20)
(4.1176 1.14131 1.14601e-19)
(3.27031 1.27397 1.42167e-19)
(2.43066 1.33632 2.02834e-20)
(1.78916 1.36835 -6.30634e-21)
(6.22434 0.837965 0)
(6.20072 1.03449 -2.14083e-22)
(6.09712 0.908293 -6.52925e-22)
(5.92583 0.937748 2.23789e-21)
(5.68729 0.90339 0)
(5.34972 0.88325 0)
(4.87596 0.87907 -4.98354e-20)
(4.21225 0.904074 -6.46491e-20)
(3.34236 1.0188 4.94673e-20)
(2.43373 1.07527 -3.6514e-20)
(1.69375 1.10496 0)
(6.22245 0.753158 -2.79015e-20)
(6.19735 0.964863 -2.67124e-20)
(6.08339 0.832038 6.4023e-22)
(5.92397 0.821012 -2.19851e-21)
(5.69455 0.768262 -1.69408e-19)
(5.37405 0.71286 1.08087e-19)
(4.93188 0.660895 -1.5717e-19)
(4.32176 0.616871 -1.10992e-20)
(3.46502 0.669933 1.1025e-19)
(2.51193 0.728195 1.99496e-19)
(1.71685 0.750022 0)
(6.20397 0.678797 -1.37155e-20)
(6.16443 0.874625 -4.55338e-22)
(6.05951 0.74005 0)
(5.90192 0.690561 0)
(5.68064 0.611878 2.99731e-20)
(5.37472 0.519238 2.18412e-20)
(4.96296 0.418142 -1.31028e-19)
(4.42074 0.314479 0)
(3.69429 0.247748 2.76693e-19)
(2.68641 0.291611 -4.03104e-19)
(1.83582 0.338029 0)
(6.15886 0.606669 -4.19887e-20)
(6.10939 0.770203 -2.05318e-21)
(6.01178 0.630724 0)
(5.86116 0.545768 0)
(5.6525 0.435185 0)
(5.36629 0.304335 1.46928e-19)
(4.98447 0.15812 0)
(4.48755 0.00403194 0)
(3.84152 -0.142038 0)
(2.99571 -0.18344 0)
(2.0799 -0.153211 -9.24501e-19)
(6.08594 0.528748 3.82182e-20)
(6.02973 0.651449 2.06708e-21)
(5.93786 0.504209 0)
(5.79817 0.385824 1.49468e-19)
(5.60686 0.240603 1.71712e-20)
(5.3473 0.0703769 0)
(5.0055 -0.119397 0)
(4.56727 -0.31803 5.62608e-19)
(4.01013 -0.511695 0)
(3.29516 -0.634507 0)
(2.47433 -0.686336 1.2147e-20)
(5.98241 0.446082 4.91325e-20)
(5.91872 0.520877 -7.29287e-20)
(5.83199 0.361785 -1.42562e-20)
(5.70667 0.209832 -1.31814e-19)
(5.53894 0.0283583 -3.98666e-20)
(5.31471 -0.180808 0)
(5.02261 -0.410371 0)
(4.65261 -0.646953 -1.64895e-18)
(4.19269 -0.876072 4.40716e-19)
(3.61001 -1.04326 7.54145e-19)
(2.93179 -1.16665 6.33292e-20)
(5.83953 0.354767 0)
(5.76865 0.376945 -4.434e-20)
(5.68846 0.201122 6.9417e-20)
(5.58272 0.0138946 3.25284e-20)
(5.44811 -0.206005 4.2088e-20)
(5.27171 -0.454151 3.86526e-19)
(5.04196 -0.72168 7.8653e-20)
(4.75466 -0.998838 3.04263e-19)
(4.40032 -1.24345 0)
(3.95408 -1.43137 -1.38993e-18)
(3.43225 -1.59157 5.01932e-19)
(5.649 0.246761 0)
(5.57173 0.214426 0)
(5.50017 0.0159523 0)
(5.41968 -0.210306 6.49667e-21)
(5.32776 -0.474917 -4.35284e-20)
(5.20998 -0.771539 -7.95822e-20)
(5.05492 -1.08657 5.19562e-19)
(4.86434 -1.37306 -5.91547e-19)
(4.62056 -1.61754 0)
(4.30954 -1.82886 1.21503e-18)
(3.93379 -2.0214 -4.23545e-19)
(5.40596 0.115146 -4.36439e-19)
(5.31916 0.0314935 3.28018e-19)
(5.25148 -0.192955 1.50144e-19)