/*--------------------------------*- C++ -*----------------------------------*\
| =========                 |                                                 |
| \\      /  F ield         | OpenFOAM: The Open Source CFD Toolbox           |
|  \\    /   O peration     | Version:  3.0.1                                 |
|   \\  /    A nd           | Web:      www.OpenFOAM.org                      |
|    \\/     M anipulation  |                                                 |
\*---------------------------------------------------------------------------*/
FoamFile
{
    version     2.0;
    format      ascii;
    class       volScalarField;
    location    "0.309946";
    object      k;
}
// * * * * * * * * * * * * * * * * * * * * * * * * * * * * * * * * * * * * * //

dimensions      [0 2 -2 0 0 0 0];

internalField   nonuniform List<scalar> 
21246
(
0.772303
1.28657
1.06471
0.861289
0.637899
0.434979
0.286594
0.194398
0.141949
0.114493
0.103704
0.664335
0.993547
0.973446
0.856476
0.688258
0.498092
0.322759
0.206143
0.143364
0.112534
0.101942
0.499338
0.73602
0.840145
0.804726
0.694746
0.539141
0.371517
0.236214
0.150644
0.11089
0.0975592
0.321256
0.576431
0.713234
0.73391
0.674482
0.556868
0.409443
0.27064
0.169588
0.11435
0.0921796
0.176823
0.470599
0.609438
0.661539
0.640064
0.557208
0.434423
0.30288
0.19375
0.124201
0.0903702
0.115396
0.405163
0.536343
0.596253
0.597908
0.543785
0.446275
0.328541
0.218901
0.138969
0.0931753
0.106182
0.3627
0.490293
0.543962
0.554335
0.52
0.445092
0.344345
0.240477
0.155477
0.0997584
0.0925743
0.304015
0.447543
0.5014
0.513042
0.489651
0.432456
0.348848
0.254874
0.170059
0.107878
0.0757506
0.231809
0.381334
0.455672
0.472506
0.455295
0.41095
0.342681
0.260399
0.179814
0.115007
0.0636359
0.179552
0.301015
0.398531
0.428511
0.417519
0.382937
0.327602
0.257043
0.183091
0.119057
0.0537006
0.145431
0.23059
0.327783
0.378356
0.37607
0.349939
0.305411
0.24565
0.179452
0.118606
0.0454499
0.120176
0.181454
0.257284
0.321023
0.331188
0.313097
0.277811
0.227617
0.169443
0.113624
0.0384636
0.0998399
0.14519
0.20177
0.260085
0.284035
0.273768
0.24666
0.204956
0.154696
0.105087
0.0323909
0.0831057
0.117496
0.159426
0.206243
0.235843
0.233741
0.214071
0.180161
0.137693
0.0946988
0.0276959
0.070315
0.0967193
0.127798
0.163372
0.191287
0.195546
0.182764
0.156303
0.121449
0.0850819
0.0241823
0.0603079
0.0813393
0.104624
0.131064
0.154321
0.162373
0.156166
0.137116
0.109472
0.0787931
0.0214378
0.0523855
0.069947
0.0877146
0.107538
0.126338
0.137212
0.137775
0.126295
0.105008
0.0779136
0.0195023
0.0465023
0.0615711
0.075512
0.0912584
0.108105
0.122999
0.131084
0.127172
0.110893
0.0849324
0.018146
0.0425379
0.055461
0.067556
0.0825737
0.102071
0.123669
0.13974
0.142078
0.128593
0.100898
0.0176914
0.0431322
0.054091
0.0670582
0.0839209
0.10847
0.13532
0.153329
0.158619
0.149851
0.123203
0.0247173
0.0503158
0.0579668
0.0702318
0.0891265
0.118839
0.142389
0.158209
0.16717
0.167133
0.149413
0.0323595
0.0537246
0.0572824
0.0751083
0.106932
0.13558
0.155757
0.168967
0.176119
0.178924
0.171997
0.0328538
0.0532044
0.0788623
0.116413
0.148366
0.170301
0.181744
0.184015
0.181407
0.179124
0.176777
0.0884765
0.124335
0.161904
0.18973
0.205627
0.209071
0.202175
0.189846
0.178341
0.171647
0.170228
0.823011
1.18193
1.06019
0.830855
0.602062
0.415267
0.282488
0.197082
0.145474
0.116594
0.103494
0.596326
0.946053
0.949959
0.828549
0.64793
0.467736
0.32268
0.221998
0.15828
0.120998
0.102402
0.429173
0.785597
0.859121
0.827157
0.705811
0.541429
0.383469
0.261658
0.17977
0.12961
0.102841
0.292033
0.560926
0.70063
0.769505
0.734964
0.614166
0.458388
0.317383
0.213349
0.145352
0.106196
0.181628
0.365285
0.507599
0.623329
0.682667
0.651698
0.538616
0.395598
0.269353
0.177168
0.119369
0.107292
0.226161
0.349606
0.468675
0.567174
0.608152
0.566974
0.46288
0.340681
0.232021
0.149803
0.0683449
0.150628
0.242566
0.346545
0.45351
0.531365
0.541981
0.479331
0.37697
0.271687
0.183338
0.0540203
0.119406
0.187318
0.268194
0.364447
0.456032
0.501157
0.475404
0.397217
0.302753
0.21534
0.0508463
0.110637
0.16471
0.22904
0.307533
0.393669
0.457452
0.459466
0.402739
0.322584
0.244897
0.0514056
0.110785
0.15775
0.212167
0.276434
0.351118
0.417361
0.439006
0.398961
0.330061
0.263615
0.0531236
0.11398
0.157141
0.2051
0.258807
0.322588
0.385096
0.416331
0.3911
0.329004
0.270367
0.0556962
0.119876
0.160041
0.201969
0.247313
0.301368
0.357997
0.393746
0.379373
0.323463
0.267096
0.0585529
0.126461
0.164129
0.200772
0.238582
0.283019
0.332394
0.369816
0.365232
0.315014
0.25886
0.0614276
0.132944
0.168903
0.200843
0.2311
0.265512
0.306117
0.342782
0.347665
0.30536
0.247892
0.0642611
0.139281
0.174279
0.201901
0.224746
0.248902
0.279411
0.312717
0.32586
0.293885
0.237527
0.0671636
0.145443
0.18032
0.2039
0.219721
0.233988
0.253912
0.2813
0.299864
0.279556
0.22896
0.0703458
0.151923
0.187779
0.207774
0.216968
0.22197
0.231742
0.25134
0.2708
0.261722
0.220377
0.0742431
0.159869
0.198024
0.214705
0.217321
0.213731
0.214372
0.225542
0.2415
0.240532
0.213073
0.0796257
0.170336
0.210679
0.224482
0.221316
0.210005
0.202321
0.205381
0.215322
0.217844
0.20268
0.0855638
0.180949
0.223867
0.236955
0.229831
0.211655
0.195878
0.191099
0.19472
0.196759
0.189802
0.0886531
0.189136
0.236088
0.2509
0.241706
0.218111
0.195006
0.182707
0.180173
0.179739
0.175326
0.0923336
0.195491
0.246124
0.261616
0.251728
0.22564
0.197868
0.17958
0.171734
0.168457
0.164772
0.0930324
0.200752
0.246971
0.261418
0.2527
0.228799
0.201172
0.180111
0.16871
0.163515
0.161027
0.140245
0.219029
0.244686
0.248349
0.239773
0.22208
0.20048
0.181094
0.169323
0.163859
0.163296
1.16574
1.65041
1.22225
0.797799
0.477636
0.275017
0.156468
0.0884301
0.0498001
0.0282406
0.0167218
0.811327
1.15668
0.997399
0.705589
0.448955
0.270013
0.157013
0.0891387
0.0497801
0.0277805
0.0161402
0.570492
0.962788
0.890105
0.685579
0.461266
0.286284
0.169334
0.0967451
0.0538894
0.029851
0.017162
0.461813
0.784307
0.79377
0.668188
0.478893
0.307823
0.186211
0.108182
0.0608265
0.0336171
0.0191374
0.395797
0.6392
0.6631
0.594216
0.456559
0.310575
0.193978
0.114002
0.0638701
0.0346392
0.0191699
0.360325
0.552182
0.576198
0.522423
0.410123
0.287431
0.18423
0.11076
0.0635696
0.0354875
0.0202181
0.336275
0.489253
0.51065
0.464063
0.367473
0.261163
0.171003
0.10556
0.0622178
0.0355031
0.0204603
0.319048
0.441108
0.458423
0.415315
0.329873
0.236471
0.157217
0.099112
0.0598552
0.0350682
0.021096
0.305909
0.402838
0.416205
0.375435
0.29825
0.214943
0.144581
0.0928126
0.0573805
0.0344987
0.021191
0.294938
0.371157
0.381764
0.343388
0.272818
0.197391
0.133991
0.0872932
0.0550204
0.0337223
0.0208344
0.285606
0.344384
0.353283
0.317479
0.25249
0.183378
0.125427
0.082685
0.0528878
0.0328762
0.0207429
0.278109
0.321841
0.329496
0.296141
0.235993
0.172134
0.118581
0.0789797
0.051159
0.0322246
0.0206033
0.272139
0.302605
0.30962
0.278761
0.222904
0.163426
0.113395
0.0762495
0.0499668
0.0318612
0.0205353
0.267305
0.28593
0.293013
0.264969
0.213043
0.157187
0.109873
0.0745362
0.0493358
0.0317545
0.0207048
0.263681
0.271547
0.278949
0.253861
0.205674
0.152971
0.10781
0.0737798
0.049281
0.0319553
0.0209045
0.261353
0.258889
0.267064
0.245203
0.200699
0.150792
0.107272
0.0740642
0.0498867
0.0325246
0.0213172
0.260377
0.247452
0.256983
0.238891
0.198247
0.15087
0.10848
0.0755707
0.051289
0.0335417
0.0219721
0.260601
0.237269
0.247673
0.233774
0.197762
0.153258
0.111737
0.0785929
0.0537301
0.035187
0.0230502
0.262201
0.22801
0.238862
0.229192
0.198366
0.157273
0.116741
0.0830801
0.0572874
0.0377919
0.0247477
0.265582
0.219385
0.230235
0.224803
0.19969
0.162674
0.123502
0.0892495
0.0622182
0.0415641
0.0273117
0.271478
0.21127
0.221345
0.220024
0.20098
0.168827
0.131815
0.0973868
0.0690917
0.0470727
0.0313274
0.281788
0.203103
0.21191
0.213898
0.200907
0.174477
0.141028
0.10764
0.0786512
0.0552714
0.037741
0.295966
0.19468
0.200158
0.206139
0.199023
0.178823
0.150444
0.119897
0.0915113
0.0672753
0.0479492
0.310717
0.194816
0.201745
0.199329
0.19386
0.179583
0.15797
0.132653
0.107073
0.0834602
0.0631452
1.13779
1.78783
1.3339
0.969687
0.631549
0.367044
0.202389
0.109359
0.059494
0.0327462
0.0188511
1.00348
1.38638
1.2742
1.02971
0.756011
0.489299
0.27281
0.14828
0.0788322
0.0415461
0.0229712
0.723113
1.05807
1.13202
1.00196
0.796724
0.562749
0.345685
0.194078
0.105731
0.0551648
0.029705
0.400765
1.03552
1.05249
0.95957
0.799149
0.598812
0.396412
0.239479
0.137066
0.0734695
0.039936
0.441725
1.11759
1.06887
0.949242
0.796879
0.616309
0.429861
0.275169
0.168804
0.0958705
0.0531481
0.515824
1.37273
1.25086
1.01373
0.814996
0.63025
0.452908
0.303105
0.195464
0.120394
0.0686852
0.541329
1.40459
1.50038
1.1733
0.875553
0.653112
0.471568
0.325072
0.218198
0.142537
0.0883177
0.534643
1.31186
1.71601
1.42735
0.995997
0.695682
0.4909
0.342643
0.237368
0.162536
0.107018
0.52999
1.24775
1.78648
1.71406
1.18193
0.767213
0.515944
0.357861
0.253434
0.180485
0.124786
0.525019
1.20141
1.762
1.93553
1.40905
0.86922
0.549975
0.372621
0.267001
0.196417
0.141496
0.518693
1.16208
1.72018
2.06804
1.64521
0.996918
0.594274
0.388523
0.278915
0.210648
0.157119
0.510215
1.1185
1.66603
2.09395
1.84553
1.1349
0.645259
0.405471
0.289688
0.223541
0.171605
0.501325
1.07352
1.59738
2.04862
1.97471
1.26269
0.696952
0.422768
0.299864
0.235546
0.185373
0.493026
1.02212
1.50929
1.95831
2.02358
1.36276
0.742819
0.439332
0.310077
0.247219
0.1996
0.488701
0.970312
1.40541
1.82566
1.99219
1.41669
0.774093
0.453824
0.320955
0.259444
0.214408
0.486734
0.925738
1.29744
1.6394
1.85715
1.41864
0.783675
0.46375
0.333397
0.273885
0.230506
0.484446
0.878871
1.18018
1.43479
1.59406
1.37687
0.774059
0.471934
0.349672
0.293136
0.249898
0.482492
0.831183
1.05588
1.22344
1.31528
1.22991
0.776268
0.485579
0.374648
0.320834
0.274478
0.484526
0.790695
0.937543
1.02683
1.07179
1.03954
0.79704
0.525756
0.421101
0.365266
0.312816
0.498463
0.772437
0.847152
0.87119
0.887253
0.896188
0.814417
0.627798
0.50493
0.435265
0.364595
0.544493
0.824437
0.858216
0.837512
0.822578
0.824878
0.795194
0.70092
0.564742
0.478167
0.381266
0.696144
1.12372
1.16629
1.0985
0.978346
0.855467
0.712898
0.572185
0.447266
0.346048
0.257486
0.457344
0.889805
0.972297
0.755973
0.578102
0.451928
0.352733
0.275362
0.213977
0.165323
0.126199
0.343716
0.276167
0.23661
0.212496
0.197086
0.183605
0.168023
0.149128
0.127697
0.105456
0.0841004
0.277461
0.312671
0.117403
0.0551827
0.027145
0.0167623
0.0128971
0.0112348
0.010362
0.00980837
0.00940207
0.321522
0.445892
0.14064
0.0712944
0.0322477
0.0184134
0.0131664
0.0110077
0.00991627
0.00924637
0.0087794
0.360088
0.439583
0.169494
0.0850692
0.0361522
0.0202239
0.0135937
0.010924
0.00960567
0.00881338
0.00825246
0.384245
0.408778
0.182819
0.0924123
0.0385564
0.0218343
0.0140223
0.010919
0.00939717
0.00849812
0.00786522
0.392113
0.393214
0.189688
0.0956778
0.0407205
0.0231577
0.0144267
0.0109731
0.00927268
0.00828421
0.00760534
0.385821
0.390209
0.197376
0.0996036
0.0443576
0.0243423
0.0148811
0.0110957
0.0092273
0.00815765
0.00744063
0.367919
0.39568
0.207873
0.10586
0.0490292
0.0261931
0.0155652
0.0113017
0.00926033
0.00810689
0.00733946
0.341126
0.408188
0.220951
0.114066
0.05454
0.0285894
0.0166796
0.0117044
0.0093824
0.00812732
0.00731016
0.309054
0.425443
0.237833
0.124625
0.0611926
0.0317746
0.0182182
0.0123268
0.00964673
0.00823891
0.00735294
0.274837
0.444271
0.260896
0.139071
0.0698425
0.0361731
0.0203699
0.0132674
0.0100672
0.00844004
0.00746272
0.240253
0.466347
0.290347
0.157839
0.0808385
0.0420074
0.023298
0.0146262
0.0106955
0.00875182
0.0076452
0.208343
0.495394
0.326308
0.180844
0.0941231
0.0492729
0.0270953
0.0164928
0.0115934
0.00920639
0.00791347
0.183592
0.529135
0.371035
0.210018
0.110715
0.0584329
0.0320352
0.0190389
0.0128663
0.0098624
0.00829199
0.168755
0.564006
0.426554
0.248342
0.132511
0.0704162
0.0385904
0.0225409
0.0146811
0.0108153
0.00883165
0.166251
0.607429
0.494831
0.297528
0.160602
0.0858239
0.0471251
0.0272562
0.0172308
0.0121932
0.00961221
0.176626
0.655098
0.576957
0.361929
0.198194
0.106392
0.0585401
0.0336927
0.0208394
0.0142081
0.0107628
0.19503
0.693344
0.66746
0.446468
0.250762
0.135483
0.0746471
0.0428371
0.0260854
0.0172224
0.0125113
0.211692
0.712639
0.751899
0.550829
0.323648
0.177502
0.0981856
0.0563028
0.0339457
0.0218529
0.0152574
0.221941
0.708292
0.809921
0.66516
0.421435
0.23916
0.134121
0.0772643
0.046381
0.0293241
0.0197755
0.225026
0.680135
0.822978
0.762813
0.540029
0.327821
0.190642
0.111842
0.0674641
0.0422528
0.0277422
0.219611
0.616976
0.780052
0.808838
0.659426
0.447569
0.279961
0.171577
0.105848
0.0665787
0.0430864
0.233378
0.558358
0.711873
0.806933
0.752462
0.589779
0.413741
0.274586
0.17827
0.115513
0.0753847
0.216374
0.458015
0.549048
0.626455
0.648969
0.604562
0.506584
0.388775
0.281581
0.198032
0.136634
0.263685
0.565861
0.575128
0.606657
0.604045
0.568133
0.504355
0.420745
0.33567
0.260015
0.19546
0.216795
0.224805
0.101799
0.0447177
0.0239082
0.0161306
0.0130706
0.0116996
0.0109872
0.010569
0.0103062
0.20385
0.188871
0.086131
0.0478676
0.0266802
0.0177076
0.0140764
0.0124978
0.01174
0.0113541
0.0111657
0.226026
0.208494
0.0838636
0.0559003
0.0320682
0.0209568
0.0159743
0.0137837
0.0127729
0.0123143
0.0121536
0.246187
0.201009
0.081332
0.0595651
0.0350621
0.0241746
0.0186783
0.0160835
0.0148439
0.0142359
0.013964
0.261606
0.17903
0.0802013
0.061361
0.0370038
0.0261551
0.0200946
0.0171981
0.0158239
0.0152162
0.0150163
0.27337
0.158756
0.0790612
0.0608004
0.0374463
0.0271465
0.0209041
0.0179516
0.0165669
0.0160188
0.0159175
0.282896
0.14329
0.0776847
0.0592185
0.0371873
0.0275553
0.0212958
0.0184279
0.0171159
0.0167045
0.0168086
0.290123
0.131643
0.0760662
0.0574014
0.036788
0.0276686
0.0214899
0.0187465
0.0175413
0.0173184
0.0177504
0.296508
0.122915
0.0745991
0.055918
0.0366193
0.0276746
0.0216268
0.0189708
0.0178365
0.017732
0.0183447
0.302901
0.116668
0.0735009
0.0548372
0.0367344
0.0277422
0.0217852
0.0191492
0.018031
0.017978
0.0187175
0.31001
0.112494
0.0729768
0.0543964
0.0371414
0.0279813
0.0220162
0.0193199
0.0181504
0.0180557
0.0187141
0.317655
0.109646
0.0727985
0.0544897
0.0378389
0.0284255
0.0223496
0.0195156
0.0182314
0.0180281
0.0185624
0.325936
0.10824
0.0730581
0.0551177
0.0389099
0.0291331
0.0228342
0.0197765
0.0183163
0.0179521
0.0183207
0.333027
0.109592
0.0739691
0.0562721
0.0405311
0.0302508
0.0236165
0.0201979
0.018486
0.0179085
0.018088
0.339024
0.112268
0.0752779
0.0577405
0.0426271
0.031841
0.024808
0.020893
0.0188401
0.0179879
0.0179427
0.344106
0.116409
0.0770967
0.0595684
0.0451787
0.0340104
0.0265204
0.0219957
0.0194857
0.0182777
0.0179594
0.348418
0.122284
0.0796566
0.0618379
0.0481904
0.0368641
0.0289011
0.0236917
0.0205916
0.018919
0.0182459
0.352046
0.129678
0.0831361
0.0646156
0.0516376
0.0404517
0.0321017
0.0262068
0.0224044
0.0201363
0.0189831
0.355111
0.138561
0.0878299
0.0680571
0.0555319
0.0447784
0.0362563
0.0297937
0.0252566
0.0222782
0.0205017
0.357807
0.149109
0.0941916
0.0724749
0.0599687
0.0498045
0.0414263
0.0346698
0.0295271
0.0258286
0.02333
0.360438
0.161252
0.102726
0.0783707
0.065193
0.0554774
0.0475194
0.0408707
0.0354754
0.031273
0.028146
0.363748
0.174351
0.113634
0.0863603
0.0716512
0.0617927
0.0542015
0.0479611
0.0427768
0.0385438
0.0351907
0.368158
0.189832
0.128074
0.0976226
0.0803498
0.069179
0.0611673
0.0550461
0.050231
0.0464221
0.0434095
0.387719
0.209104
0.158654
0.13264
0.116492
0.104568
0.0960369
0.0928853
0.0930197
0.0946886
0.0956597
0.0141619
0.0152895
0.0175212
0.0325942
0.0694493
0.0921222
0.107786
0.119646
0.127817
0.0302028
0.0239078
0.0321867
0.0670146
0.0962801
0.128409
0.157625
0.181225
0.199551
0.0400907
0.0296655
0.0411852
0.0858953
0.119242
0.146952
0.165949
0.181157
0.197781
0.0470998
0.035674
0.0489833
0.0931813
0.12201
0.141168
0.15445
0.165264
0.175069
0.0299867
0.0690405
0.0947207
0.110773
0.121508
0.128475
0.130679
0.130279
0.133661
0.0567025
0.0846603
0.114223
0.142561
0.167625
0.187423
0.203589
0.217984
0.217458
0.069697
0.102727
0.130391
0.151016
0.168993
0.187883
0.205763
0.220861
0.216738
0.0752432
0.105176
0.126668
0.14266
0.155754
0.16776
0.179074
0.194217
0.189643
0.0044272
0.00460093
0.00461613
0.0189199
0.0433268
0.00438687
0.0124671
0.00454203
0.00438059
0.00424534
0.043138
0.00455303
0.0038759
0.00355381
0.00448374
0.00430211
0.00362898
0.0187859
0.00429129
0.00424661
0.00411155
0.00499863
0.0046667
0.0064733
0.00449324
0.00354761
0.00389799
0.0121606
0.0823392
0.0388472
0.00368771
0.00409789
0.00343702
0.00453457
0.00425787
0.00459228
0.00607032
0.0044886
0.00334042
0.00439496
0.00704154
0.00454386
0.00630621
0.00465975
0.0627115
0.0130076
0.00375477
0.0204591
0.00428678
0.00432968
0.0361442
0.0043998
0.00746201
0.00641761
0.00432491
0.00411839
0.00484123
0.0044055
0.0832967
0.00762593
0.00532619
0.00661999
0.0521214
0.0257875
0.00870219
0.00425808
0.0218148
0.0042771
0.00460164
0.00423614
0.00343771
0.004337
0.00788459
0.00471561
0.0223861
0.00429681
0.00405777
0.00459723
0.0109181
0.0730203
0.0069196
0.0217654
0.00449523
0.00462584
0.00436198
0.00784146
0.10181
0.00534583
0.00446188
0.00462166
0.00454275
0.00441493
0.00774098
0.00439701
0.0721567
0.0276678
0.0184514
0.00393334
0.00440974
0.00442345
0.00468438
0.021454
0.00417072
0.00400644
0.00583334
0.00455147
0.00336741
0.00464654
0.00362983
0.00418273
0.00450561
0.00455901
0.00431459
0.011114
0.00719797
0.00442419
0.00438392
0.00431482
0.0044936
0.00414099
0.00865886
0.00460566
0.0053465
0.00359021
0.0122066
0.00406558
0.00946318
0.00336059
0.0034716
0.00356657
0.00445106
0.00789572
0.0205208
0.004305
0.00461495
0.00454431
0.00391178
0.0136902
0.040456
0.00445262
0.00601668
0.00411387
0.030138
0.00402245
0.00437642
0.00306356
0.00442073
0.00427952
0.00432835
0.00423622
0.00426743
0.0044171
0.00303217
0.00460223
0.0165232
0.0039686
0.00770728
0.00368885
0.00348583
0.00436003
0.0036106
0.00385873
0.00432915
0.00443386
0.0241319
0.0039865
0.00568503
0.00434503
0.00414736
0.00852334
0.00354012
0.00339892
0.00443105
0.00405301
0.00408806
0.00395402
0.00348486
0.00297898
0.06339
0.0039213
0.00427514
0.00477127
0.00465908
0.0110068
0.00449799
0.0236869
0.00424092
0.00429913
0.00458762
0.0139019
0.00367055
0.00349787
0.00427182
0.00685581
0.00460965
0.00440098
0.00435676
0.00431466
0.0035901
0.00467918
0.003172
0.00432465
0.00383181
0.00373348
0.00462779
0.00520401
0.00437693
0.00346619
0.00434667
0.00433879
0.00463322
0.00439474
0.0040078
0.00421848
0.00448932
0.0109997
0.0045093
0.00426861
0.00426224
0.00348491
0.00317049
0.00898898
0.0191914
0.00733705
0.00355906
0.00441015
0.00795449
0.00390972
0.0036091
0.0315819
0.00391096
0.00425576
0.00425909
0.00459642
0.00300682
0.0791417
0.0110783
0.00464585
0.00455817
0.00454555
0.00434329
0.0380239
0.00399652
0.00602632
0.0046599
0.00365355
0.00451648
0.00371971
0.034169
0.010435
0.00372568
0.0046839
0.00509466
0.00429658
0.00394054
0.00436496
0.00413834
0.00447479
0.00333366
0.00423398
0.00366683
0.00451899
0.00432627
0.0045732
0.00450381
0.00341279
0.00411565
0.00445461
0.00557326
0.00369893
0.0179079
0.0043138
0.00431773
0.0035838
0.00438831
0.00432788
0.00360385
0.00444582
0.00427102
0.00525785
0.00438557
0.00460076
0.00690602
0.009645
0.00394099
0.00439639
0.0809265
0.00458866
0.00424342
0.00545946
0.00461799
0.0130035
0.00444033
0.00331395
0.00467838
0.00435506
0.0041248
0.00456326
0.00425684
0.00358823
0.00444367
0.00674904
0.00436158
0.0399961
0.00414895
0.00418236
0.00459811
0.00412772
0.00469604
0.00435316
0.00806147
0.00456504
0.00409042
0.003457
0.0047029
0.00410215
0.00372403
0.00656584
0.00412938
0.00456094
0.0042401
0.00572605
0.00435702
0.00339918
0.0149273
0.00422155
0.00445124
0.00365902
0.0042397
0.0170364
0.00427177
0.0530109
0.00371781
0.00465088
0.00377506
0.0428873
0.00747246
0.0045858
0.00447169
0.0039249
0.00398332
0.00470927
0.00431284
0.00403176
0.0165326
0.00412517
0.00752776
0.00437894
0.00623668
0.0108328
0.00917227
0.00388557
0.00371697
0.00416579
0.00416536
0.00468917
0.0031423
0.00399364
0.00466085
0.0165736
0.00384271
0.00354636
0.00451703
0.00451143
0.00431354
0.00495615
0.0033944
0.00341632
0.011314
0.00489647
0.00443951
0.0102853
0.0389827
0.00354076
0.00406752
0.00460921
0.00390257
0.00424333
0.00437628
0.00424313
0.00628486
0.00438612
0.00306421
0.00441638
0.00350492
0.0174256
0.00721837
0.00354483
0.0371636
0.00396224
0.00442712
0.00594432
0.00343044
0.00470761
0.0167195
0.00877447
0.00447711
0.00428028
0.0046235
0.00710656
0.00332413
0.0044111
0.00466244
0.00534227
0.00339097
0.0076471
0.00827186
0.00372154
0.00432214
0.00578057
0.00426468
0.00427654
0.00380795
0.00378426
0.00357152
0.00406894
0.00369487
0.00491685
0.00349074
0.00535445
0.0276792
0.00351951
0.0134143
0.00353704
0.00397359
0.00416461
0.00467516
0.00490915
0.00485312
0.00989212
0.00448467
0.00306753
0.0034193
0.00410349
0.00434376
0.00304718
0.014325
0.03754
0.00359507
0.00468853
0.00393487
0.100577
0.0202293
0.0072642
0.00419418
0.00347227
0.00718261
0.00342514
0.00434302
0.00292067
0.00443834
0.00461286
0.00449771
0.00443957
0.00441327
0.0120804
0.00354264
0.00313512
0.0050249
0.00458942
0.00433808
0.00975024
0.00350798
0.00393187
0.00424216
0.00800716
0.00762386
0.00545505
0.00546768
0.00428135
0.00392394
0.00559926
0.00421233
0.0052757
0.00421821
0.00458501
0.00432401
0.00557851
0.00293619
0.00424846
0.0044516
0.0041275
0.033928
0.00457167
0.00464771
0.00317148
0.0318071
0.00404516
0.0031242
0.00433982
0.00343288
0.0043987
0.00421387
0.00440603
0.00349243
0.00353638
0.00426186
0.0034039
0.0039944
0.00443499
0.00367895
0.00364564
0.00453572
0.00453381
0.041087
0.00305529
0.00752035
0.00427165
0.0197668
0.00461921
0.0133893
0.00456919
0.00383699
0.00395838
0.00472267
0.0136379
0.00642927
0.00340671
0.00445172
0.00357489
0.00411924
0.00459898
0.00442632
0.00457059
0.00418825
0.00618321
0.00451246
0.00435379
0.00828704
0.00443593
0.0100769
0.00418627
0.00395628
0.00343873
0.00443704
0.00467837
0.00447627
0.00463769
0.00666423
0.00300032
0.00450061
0.00448932
0.00358975
0.00461812
0.0170199
0.00460784
0.0147834
0.00422965
0.00406533
0.00332235
0.00362007
0.0140601
0.0138089
0.00415835
0.00411195
0.00431219
0.00460628
0.00303593
0.00324756
0.00423463
0.00375654
0.0283245
0.0283665
0.00449178
0.004335
0.0045987
0.00743599
0.0121043
0.00437606
0.0045406
0.00437748
0.00941473
0.00432032
0.00339274
0.00350577
0.00373599
0.0293816
0.00443117
0.00466305
0.00446381
0.00630063
0.00434198
0.0218099
0.00350069
0.00408969
0.00491273
0.00404288
0.00463999
0.00467393
0.0724461
0.00440962
0.003512
0.0273782
0.00670005
0.00854882
0.00395332
0.00366752
0.00422035
0.00443658
0.00448725
0.0266593
0.00333381
0.0040829
0.00424896
0.00450063
0.00700685
0.00422602
0.00450207
0.00422949
0.0043079
0.00345735
0.00351483
0.00660353
0.00565416
0.00400279
0.00513019
0.00428959
0.00513949
0.00428533
0.00445193
0.0334821
0.00525504
0.00438311
0.00439096
0.00389803
0.00415796
0.00433221
0.00563826
0.00460826
0.00418616
0.00353107
0.00331731
0.00380238
0.00357191
0.00349883
0.00562878
0.00470604
0.00496993
0.00445791
0.00347889
0.00478898
0.00881074
0.00370042
0.00462112
0.0041656
0.0142371
0.00392749
0.00420603
0.0044098
0.00341777
0.00605035
0.0336245
0.00354527
0.00485972
0.00442464
0.0051852
0.00455006
0.00429085
0.00426229
0.00367135
0.00426038
0.00427777
0.00418512
0.00459201
0.0336759
0.00628401
0.0297722
0.00428611
0.00421507
0.00398685
0.00445791
0.00450627
0.0179077
0.00431306
0.0257207
0.00591486
0.00442986
0.00298155
0.0046594
0.00345182
0.031969
0.00344663
0.0292772
0.00361836
0.00426112
0.00463628
0.00391568
0.0035105
0.00444689
0.00930521
0.00437073
0.00407407
0.00463241
0.00372309
0.00419366
0.0032553
0.00455507
0.00440453
0.00440523
0.00390845
0.00531319
0.00456236
0.00360988
0.00437374
0.00387101
0.00348951
0.00407418
0.0291365
0.00540995
0.00327536
0.00406399
0.00371444
0.00371218
0.00444426
0.00349024
0.0126712
0.00446764
0.00351913
0.00448816
0.00426077
0.00747208
0.00462886
0.00344164
0.00355653
0.00432161
0.00418616
0.0041329
0.00518802
0.0045841
0.0114644
0.00468214
0.0150049
0.00415021
0.00396225
0.00612906
0.0089884
0.00455843
0.00361865
0.0028275
0.00599477
0.0045239
0.00354119
0.027493
0.00454912
0.0101318
0.0037659
0.00482021
0.0251038
0.00438493
0.00420814
0.00421351
0.00364209
0.00439849
0.00353228
0.00457209
0.00345077
0.00431627
0.00332449
0.00308109
0.00506983
0.00357178
0.00428707
0.0133517
0.0140828
0.00446284
0.0035649
0.0038376
0.00409804
0.00510198
0.0037448
0.00436913
0.00708572
0.00332647
0.00494205
0.00428184
0.00435255
0.00441483
0.00931546
0.00360181
0.00469017
0.00448273
0.00455116
0.0320961
0.00539599
0.00365736
0.00457528
0.00352002
0.00455416
0.00455554
0.00457815
0.00462663
0.00447866
0.00451429
0.00348559
0.00570919
0.00889636
0.00340181
0.00439531
0.0044302
0.00449494
0.00374535
0.00703338
0.00459606
0.00409482
0.0036124
0.0190129
0.00505191
0.00470665
0.00390706
0.00786259
0.00443374
0.00446149
0.0118327
0.00421791
0.00456373
0.00442967
0.00372139
0.00397281
0.00387277
0.00455612
0.00407171
0.00661668
0.00832732
0.00456218
0.00342071
0.0038175
0.00538154
0.00739793
0.00463994
0.00427492
0.019201
0.00338113
0.00392491
0.00460048
0.00418426
0.004751
0.0043378
0.0045904
0.0132861
0.00347006
0.00960836
0.0164733
0.00497407
0.0045456
0.0463873
0.00466944
0.00430692
0.00531316
0.00448419
0.00441629
0.00441764
0.00635873
0.00761068
0.00403241
0.00441343
0.00867018
0.00442497
0.00468778
0.00433776
0.00438695
0.00442337
0.00449368
0.00455919
0.00433424
0.0711203
0.00438192
0.00425448
0.00452932
0.0210889
0.00425683
0.00450558
0.0163505
0.0643631
0.00421433
0.00447946
0.00332876
0.00753147
0.00465181
0.0045403
0.00421944
0.00400466
0.00408921
0.00459866
0.00800127
0.00332235
0.00466892
0.00337096
0.00457796
0.00353082
0.00564076
0.00444201
0.0045754
0.00428584
0.00460773
0.0039243
0.0107308
0.00418427
0.004093
0.0131774
0.00434839
0.00392524
0.00584706
0.00466374
0.00455742
0.00348066
0.00330547
0.00353301
0.00440054
0.0241009
0.00431356
0.00356399
0.00431001
0.00353226
0.00343606
0.00499638
0.00371476
0.00420121
0.0045278
0.0139217
0.00448547
0.0097518
0.0042332
0.00336697
0.0042931
0.00420843
0.0130581
0.00438118
0.0046045
0.00349247
0.00964425
0.0325585
0.00343567
0.00351484
0.00355174
0.0104909
0.0352107
0.00451951
0.00433367
0.0110803
0.00439963
0.00537917
0.0044918
0.00434964
0.00337611
0.00372433
0.00460352
0.00360436
0.00464767
0.0044085
0.00371133
0.0217767
0.00424927
0.00445881
0.00432832
0.00453201
0.00460161
0.0050813
0.00454949
0.00418721
0.00769466
0.00396873
0.00400955
0.00460968
0.00374446
0.00341317
0.00460085
0.0047891
0.00408169
0.00682541
0.0198268
0.003958
0.00367918
0.00409697
0.00434762
0.00330344
0.00386827
0.00422003
0.00379886
0.00455455
0.0745395
0.00372679
0.023787
0.00455296
0.00470484
0.0288334
0.0435645
0.00363353
0.0034433
0.0046758
0.00339614
0.0352409
0.00456111
0.00402146
0.0161237
0.0038253
0.00717341
0.0036813
0.00445107
0.00432553
0.00430608
0.00420652
0.00765562
0.00322288
0.00395532
0.013245
0.00460064
0.00331772
0.00374848
0.00524713
0.00431102
0.00352498
0.00439228
0.00405822
0.00357149
0.00454414
0.0046646
0.00467837
0.0225665
0.00413245
0.00461184
0.00363527
0.00416827
0.00356405
0.00452158
0.00878608
0.00415332
0.00407306
0.00385344
0.00455527
0.00431262
0.00445968
0.0154142
0.00424374
0.00636679
0.00398511
0.00452072
0.00450425
0.00417499
0.00450325
0.00437781
0.0072205
0.0223049
0.00573103
0.0608872
0.0103944
0.0365663
0.00420419
0.00445859
0.00669477
0.00462806
0.00352952
0.00801646
0.0042878
0.00522209
0.00384128
0.02058
0.00418368
0.00354244
0.0045496
0.0134227
0.00469614
0.0398878
0.00405741
0.00480824
0.00550869
0.00455112
0.00418642
0.00419621
0.00390185
0.0044631
0.00512546
0.00557962
0.030489
0.00355166
0.0096247
0.0138831
0.00394717
0.0046127
0.00370956
0.00459349
0.00345184
0.00348362
0.0195317
0.00389168
0.00362281
0.0605739
0.00437573
0.00428085
0.00426777
0.00457143
0.00328582
0.00340599
0.00425462
0.00350216
0.0333674
0.00427959
0.0566847
0.0084587
0.00446604
0.00571582
0.00375662
0.00358242
0.00345993
0.0047674
0.00442452
0.00452627
0.0142205
0.00437416
0.00458732
0.00359241
0.00454338
0.00447408
0.019612
0.00462637
0.0347458
0.00419929
0.00758172
0.00428505
0.00428713
0.0062711
0.0035339
0.0138668
0.0044463
0.00323925
0.00716103
0.00345402
0.00299127
0.00527973
0.0036549
0.00423987
0.0381676
0.00399026
0.00406022
0.00431717
0.00301185
0.00379248
0.00428913
0.00426959
0.0190093
0.00425672
0.0046892
0.00450623
0.00405378
0.00331565
0.00354997
0.00321085
0.0730517
0.00475909
0.00587013
0.00555624
0.00457625
0.00288669
0.00424403
0.00421193
0.0760642
0.00457024
0.0211351
0.0295536
0.00456255
0.00449424
0.00479643
0.0407718
0.00518195
0.0245469
0.00348107
0.00456728
0.00427073
0.00352812
0.0066169
0.00662514
0.00339639
0.0043423
0.00624437
0.00661747
0.0087147
0.00416214
0.00807099
0.0283621
0.00404628
0.00380285
0.00430098
0.00437344
0.0393317
0.00356938
0.00369547
0.00459896
0.00464137
0.00410555
0.0416745
0.0273361
0.00332817
0.0307047
0.00458069
0.00437687
0.0153685
0.0282662
0.00462012
0.00337175
0.00370093
0.00411851
0.00841482
0.0045342
0.00442499
0.00426653
0.00573291
0.00338453
0.00435605
0.00653612
0.00461333
0.0045584
0.00468819
0.00361134
0.0044288
0.00402704
0.00420571
0.00455765
0.0429297
0.00470498
0.00375114
0.00279832
0.00443018
0.00343725
0.00542566
0.00452121
0.00456343
0.00448109
0.00342697
0.00449617
0.00427408
0.00440269
0.0035122
0.00685592
0.00353109
0.00346946
0.00428762
0.0272664
0.00418749
0.00467579
0.00420833
0.00458646
0.00349466
0.00413934
0.00353374
0.00412097
0.00420288
0.0045005
0.00362788
0.00557273
0.00546734
0.00528807
0.00468828
0.00308068
0.0108116
0.0034833
0.00335576
0.00439796
0.00548804
0.00923553
0.00578577
0.00353836
0.00355507
0.00281928
0.00348595
0.00450184
0.0715547
0.0034084
0.00414758
0.00411983
0.00426883
0.00353856
0.0060071
0.026988
0.00339098
0.0588528
0.0327838
0.0044853
0.00427104
0.00687574
0.0219325
0.00400239
0.00454884
0.00420565
0.00462884
0.00447158
0.00469642
0.00440262
0.0046506
0.0146934
0.00765061
0.00432489
0.00442768
0.00439247
0.00415902
0.00468361
0.004328
0.00420438
0.00376467
0.00454556