/*--------------------------------*- C++ -*----------------------------------*\
| =========                 |                                                 |
| \\      /  F ield         | OpenFOAM: The Open Source CFD Toolbox           |
|  \\    /   O peration     | Version:  3.0.1                                 |
|   \\  /    A nd           | Web:      www.OpenFOAM.org                      |
|    \\/     M anipulation  |                                                 |
\*---------------------------------------------------------------------------*/
FoamFile
{
    version     2.0;
    format      ascii;
    class       volScalarField;
    location    "0.187206";
    object      nut;
}
// * * * * * * * * * * * * * * * * * * * * * * * * * * * * * * * * * * * * * //

dimensions      [0 2 -1 0 0 0 0];

internalField   nonuniform List<scalar> 
21246
(
4.11708e-05
0.00022443
0.000396452
0.000557668
0.000642
0.00063926
0.000610707
0.000627285
0.00068104
0.000689143
0.000597991
2.98083e-05
0.000126197
0.000252455
0.000391771
0.000504171
0.0005497
0.000542787
0.000555934
0.00063268
0.000662517
0.000575926
2.34602e-05
8.91014e-05
0.000182952
0.000293926
0.000401046
0.000468107
0.000480853
0.000472699
0.0005227
0.000620424
0.000562978
1.78398e-05
8.0921e-05
0.000149859
0.000236723
0.000330225
0.000402794
0.000430512
0.000419928
0.000425296
0.000498471
0.000535923
1.53899e-05
8.63472e-05
0.000139003
0.000205744
0.000283685
0.000352935
0.000388786
0.000383765
0.000367983
0.000391043
0.000445841
1.55442e-05
9.99044e-05
0.000142632
0.000192756
0.000255063
0.000316323
0.000354348
0.000355332
0.000333535
0.000325964
0.000351654
1.52627e-05
0.000106152
0.000149721
0.000189969
0.000238922
0.000290385
0.000326252
0.000330942
0.000309357
0.000287766
0.000287294
1.48668e-05
0.000104273
0.00015013
0.000189785
0.000229963
0.000271906
0.000303074
0.000308855
0.000289299
0.00026275
0.000247296
1.42345e-05
9.95548e-05
0.000146292
0.000184751
0.000222984
0.000257212
0.000282847
0.000287989
0.000270707
0.000243737
0.000221514
1.34767e-05
9.33917e-05
0.000139753
0.000175698
0.000212921
0.000243239
0.00026391
0.000267895
0.000252933
0.000227896
0.000204077
1.27513e-05
8.66183e-05
0.000131655
0.000165697
0.000199558
0.000228842
0.000245911
0.000249146
0.000236811
0.000215177
0.000192897
1.21825e-05
8.0348e-05
0.000124379
0.000156869
0.000187293
0.000215036
0.000230286
0.000233727
0.000224655
0.000207564
0.000189043
1.16288e-05
7.44275e-05
0.000118669
0.000151125
0.000179563
0.000205244
0.000220157
0.000225229
0.00022042
0.000208795
0.000195216
1.10502e-05
6.82966e-05
0.000113944
0.000148632
0.00017798
0.000202687
0.000219348
0.000228104
0.000228871
0.00022319
0.000213895
1.05291e-05
6.22753e-05
0.000109663
0.000148049
0.000180914
0.000208329
0.000229856
0.000245002
0.000252626
0.000252237
0.000244654
1.00514e-05
5.67065e-05
0.000104966
0.000146312
0.000184552
0.000218539
0.000248309
0.000272371
0.000287186
0.000289743
0.000279534
9.52482e-06
5.19195e-05
9.93104e-05
0.00014222
0.000185422
0.000227279
0.000266992
0.000300717
0.000321546
0.000324449
0.000308511
8.87774e-06
4.83154e-05
9.39822e-05
0.000137296
0.000184462
0.000233957
0.000282841
0.000324348
0.000349317
0.000351631
0.000329978
8.12102e-06
4.59962e-05
9.00502e-05
0.000135358
0.000187938
0.000243626
0.000292936
0.000333218
0.000359122
0.000363429
0.000339863
7.26903e-06
4.63202e-05
9.48244e-05
0.000145415
0.000190843
0.0002225
0.000220323
0.00023745
0.000268069
0.000303493
0.000306415
7.67254e-06
5.74397e-05
9.82874e-05
0.000111035
0.000109981
0.000113675
0.000135927
0.000161824
0.000184592
0.000200172
0.0002095
7.73715e-06
4.58454e-05
5.45757e-05
5.23019e-05
7.42687e-05
0.000103423
0.000137028
0.000170175
0.000196651
0.000206887
0.000193047
6.31666e-06
1.68122e-05
3.12135e-05
5.61495e-05
8.96625e-05
0.000129227
0.000170364
0.00020855
0.000239833
0.000256306
0.000242824
8.52629e-06
2.34899e-05
5.21757e-05
9.39261e-05
0.000144557
0.000196462
0.000242211
0.000277863
0.000302089
0.000312709
0.000302423
3.94954e-05
0.000341042
0.000570119
0.000687428
0.000708877
0.000676615
0.000648771
0.000669663
0.000722424
0.000726237
0.000625567
2.37791e-05
0.000253701
0.000523086
0.000689814
0.000745811
0.000728801
0.000699259
0.000715421
0.00077565
0.000793935
0.000693511
1.6379e-05
0.000187319
0.000441924
0.000640767
0.000746768
0.000766546
0.000745796
0.000757098
0.00082858
0.000877937
0.000798648
1.16234e-05
0.000132456
0.000343081
0.000545605
0.000694106
0.00076457
0.000770606
0.000782083
0.000862898
0.000953052
0.000913417
1.13874e-05
8.90355e-05
0.000249235
0.000435803
0.000602667
0.000715545
0.000757496
0.000775028
0.000859905
0.00100404
0.0010501
1.27015e-05
8.3613e-05
0.000201268
0.000355596
0.000518898
0.000649379
0.000714162
0.00071978
0.000764234
0.000924737
0.00107615
1.41802e-05
8.8168e-05
0.000193802
0.000321126
0.000465631
0.000602137
0.000685788
0.000694446
0.000694273
0.000822334
0.00103447
1.57202e-05
9.45705e-05
0.000197646
0.000312792
0.000440557
0.000569398
0.000666444
0.000689775
0.000656213
0.000714912
0.00093801
1.71854e-05
0.000102012
0.000205757
0.000314585
0.000429875
0.000548476
0.000647851
0.000688087
0.000648587
0.000629924
0.000805313
1.85157e-05
0.000110396
0.000215754
0.000320753
0.000425865
0.000532263
0.00062782
0.000679779
0.000653397
0.000585792
0.00066992
1.9664e-05
0.000118
0.000225382
0.000328479
0.000425176
0.000518063
0.000604228
0.000662481
0.000654152
0.000574867
0.000562384
2.06875e-05
0.000125559
0.000237006
0.000336565
0.000425875
0.000505028
0.000577288
0.000635815
0.000644946
0.000574663
0.000502826
2.15225e-05
0.000132191
0.000246585
0.000344354
0.000426889
0.000492936
0.000548265
0.000599727
0.000623071
0.000572665
0.000476238
2.21991e-05
0.000137834
0.000255147
0.000350907
0.000426655
0.000480971
0.000520513
0.000558993
0.000587093
0.000561052
0.000464814
2.26017e-05
0.000142857
0.000262336
0.00035573
0.000424703
0.000467967
0.000493634
0.000519347
0.000543554
0.000534937
0.000462675
2.27207e-05
0.000147397
0.000269008
0.000359926
0.000421927
0.000454127
0.000467633
0.000482578
0.000500749
0.000500704
0.000458893
2.25486e-05
0.000151682
0.000275922
0.000364838
0.000419946
0.000441287
0.000444068
0.000449976
0.000461869
0.000464833
0.000442086
2.20238e-05
0.000155872
0.00028377
0.000371407
0.000418585
0.000431057
0.000425422
0.000422688
0.000427782
0.000430375
0.000419337
2.10625e-05
0.000159713
0.000290849
0.000374954
0.000417402
0.000426116
0.000414332
0.000402533
0.000399281
0.000397584
0.000388296
1.94942e-05
0.000159468
0.000288436
0.000374403
0.000419279
0.000427523
0.000411225
0.00039116
0.000379621
0.000372691
0.000363239
1.68977e-05
0.000149871
0.000276806
0.000368914
0.000420512
0.000431423
0.000412974
0.000386836
0.000368862
0.000358225
0.000349614
1.39263e-05
0.000130788
0.000251469
0.000352265
0.000413205
0.000430535
0.000414323
0.000385947
0.000363983
0.000350881
0.000342251
1.0467e-05
9.38758e-05
0.000214675
0.000320612
0.000389526
0.000415894
0.000408541
0.000384609
0.000362296
0.000347843
0.000338001
7.32759e-06
8.78683e-05
0.000179318
0.000274168
0.000334569
0.000368161
0.000377976
0.000370619
0.000356076
0.000343371
0.000330701
5.97869e-05
0.000343896
0.000446386
0.000486042
0.000501732
0.000510805
0.000517796
0.000519305
0.000507975
0.000472017
0.000411004
3.96046e-05
0.000278235
0.000424613
0.00048609
0.000507044
0.0005136
0.000514008
0.000509242
0.000495259
0.000462264
0.000405767
3.20914e-05
0.000244534
0.000408794
0.000495201
0.000524707
0.000531638
0.000530892
0.000524434
0.000508252
0.000474166
0.000416199
3.03997e-05
0.000210627
0.000385846
0.000499539
0.000544444
0.000552765
0.000549969
0.00054214
0.000524821
0.000491223
0.000434945
3.05869e-05
0.000188271
0.000349444
0.000470602
0.000531319
0.000550325
0.000550123
0.000541518
0.000522734
0.000487011
0.000427588
3.12563e-05
0.000176504
0.00032675
0.00044049
0.000502289
0.00053021
0.000540455
0.000540149
0.000527257
0.000496281
0.000441653
3.21162e-05
0.000166464
0.000307416
0.000413681
0.000475314
0.000508173
0.000526217
0.000534079
0.000527599
0.000500098
0.000445674
3.3141e-05
0.000158419
0.00029112
0.000390216
0.000449863
0.00048517
0.000508913
0.000524048
0.000524821
0.000504348
0.00045783
3.40717e-05
0.000151479
0.000277207
0.000370147
0.000427407
0.000463992
0.000492063
0.000513625
0.000521661
0.000507275
0.000462182
3.47603e-05
0.000144542
0.000264493
0.000352743
0.000408126
0.000445662
0.000477177
0.000504083
0.000518008
0.000507077
0.00045986
3.53368e-05
0.000137778
0.00025279
0.000337475
0.000391573
0.000430034
0.000464431
0.000495695
0.000514148
0.00050621
0.000463386
3.58092e-05
0.000131774
0.00024243
0.000324149
0.000377313
0.000416717
0.000453677
0.000488729
0.000511138
0.00050604
0.000464621
3.60352e-05
0.000125951
0.000232889
0.000312348
0.000365039
0.000405531
0.000444938
0.000483549
0.000509747
0.00050718
0.000465237
3.60425e-05
0.000119715
0.000223436
0.000301523
0.000354377
0.000396229
0.000438095
0.000480194
0.000510048
0.000509749
0.000469601
3.57711e-05
0.000113584
0.000214329
0.000291514
0.000344936
0.000388371
0.000432764
0.000478425
0.000512088
0.000514028
0.000473036
3.51929e-05
0.000107193
0.000205119
0.000281883
0.000336334
0.000381627
0.000428653
0.000478058
0.000515967
0.000520515
0.000479219
3.43546e-05
9.88269e-05
0.000193535
0.00027074
0.000327169
0.000375108
0.000424907
0.000478221
0.000521106
0.000529162
0.000488274
3.30571e-05
8.90137e-05
0.000178781
0.000255854
0.000313341
0.000361851
0.000411989
0.000467165
0.000515314
0.000530374
0.000496337
3.127e-05
7.78169e-05
0.000160303
0.000236307
0.000294254
0.000341496
0.000387681
0.000438255
0.000485855
0.000507649
0.000488605
2.89552e-05
6.54741e-05
0.000137832
0.000210999
0.0002689
0.000314058
0.000353603
0.000393803
0.000432774
0.000455612
0.000452673
2.60433e-05
5.25728e-05
0.000112035
0.000179379
0.000236236
0.000279424
0.000312344
0.000340285
0.000364979
0.000380134
0.000383067
2.24682e-05
4.031e-05
8.55299e-05
0.000143007
0.000196275
0.000237433
0.000265764
0.00028433
0.000295898
0.000299649
0.000296587
1.80743e-05
2.89097e-05
6.01158e-05
0.000105172
0.000150915
0.000188174
0.000213529
0.000227652
0.000232534
0.000229325
0.000219973
1.2721e-05
2.66788e-05
5.48448e-05
8.22274e-05
0.00011073
0.000135508
0.000153689
0.000164411
0.000167939
0.000164836
0.00015631
5.48367e-05
0.000243502
0.000303363
0.00040749
0.000505404
0.000542667
0.000568794
0.00056508
0.000547242
0.000502196
0.000433408
3.93482e-05
0.000137401
0.000196829
0.000255419
0.000318368
0.000385643
0.000550163
0.00061167
0.000594278
0.000544401
0.000466632
3.42177e-05
9.98259e-05
0.000157212
0.000204164
0.000251851
0.000298124
0.000406633
0.000616141
0.000643553
0.000596755
0.000511698
3.02014e-05
8.85204e-05
0.000136082
0.000176294
0.000216328
0.000254899
0.000326971
0.000531467
0.000684227
0.000658313
0.000571904
2.76883e-05
9.95809e-05
0.000130111
0.000160583
0.000193358
0.000226662
0.000282082
0.000437977
0.00068283
0.000723844
0.000640285
3.33755e-05
0.00012359
0.000139447
0.000156486
0.000179523
0.000206558
0.000251552
0.000372236
0.000600961
0.000768491
0.000708852
3.89943e-05
0.000166575
0.000165676
0.000164291
0.000174028
0.000192887
0.00022948
0.000325841
0.000518713
0.000729
0.000772593
4.36969e-05
0.000222076
0.000212197
0.000185981
0.000177055
0.000185108
0.00021377
0.000293082
0.000454324
0.000662103
0.000775037
4.65025e-05
0.000252229
0.000266057
0.0002209
0.000188767
0.000182758
0.000202897
0.000269263
0.000405781
0.000595342
0.000737866
4.83314e-05
0.000272774
0.000318567
0.000266485
0.000209137
0.000185632
0.000195994
0.000251548
0.000368654
0.00053637
0.000682766
4.95325e-05
0.000289727
0.000366461
0.000318541
0.000237789
0.000193698
0.000192553
0.000238067
0.000339195
0.000485667
0.000622467
5.02859e-05
0.0003026
0.000404039
0.000371088
0.000273191
0.00020677
0.00019253
0.000228297
0.00031581
0.00044313
0.000563561
5.04472e-05
0.000312096
0.000430551
0.000418469
0.000313109
0.0002245
0.000195821
0.000221691
0.000296938
0.000407124
0.000509522
4.99921e-05
0.000315572
0.000447623
0.000457388
0.000354815
0.000246482
0.000202429
0.000217997
0.000281563
0.000375966
0.000462286
4.905e-05
0.000310655
0.000455006
0.000485755
0.000394694
0.00027156
0.000212387
0.000217464
0.000269666
0.00034909
0.000420799
4.7517e-05
0.000302153
0.000451029
0.000501761
0.000428723
0.000298067
0.000225509
0.000220427
0.000261422
0.000326366
0.000383874
4.53511e-05
0.000289494
0.00043776
0.00049965
0.000453282
0.000323744
0.000241747
0.000227613
0.000257517
0.000308246
0.000351815
4.24646e-05
0.000272112
0.000416368
0.000479157
0.000462546
0.000346669
0.000261141
0.000240336
0.000259365
0.000295719
0.000324825
3.89185e-05
0.000250435
0.000388247
0.000447364
0.000446252
0.000368837
0.000285927
0.000261618
0.00026992
0.000290825
0.000305382
3.48309e-05
0.000224491
0.000354934
0.000409067
0.000416724
0.000386704
0.000322155
0.00029624
0.000292844
0.000296545
0.000293782
3.05037e-05
0.000195137
0.000321555
0.000373444
0.00039166
0.000389422
0.000358044
0.000329611
0.000312457
0.000299147
0.000277251
2.73571e-05
0.000198422
0.000292659
0.000329625
0.000337904
0.00031923
0.000269457
0.000231848
0.000201156
0.000170957
0.000138882
1.65622e-05
0.000113166
0.000128867
0.00011194
9.3988e-05
8.02293e-05
6.96457e-05
6.19223e-05
5.58657e-05
5.08424e-05
4.62901e-05
9.27277e-06
1.07336e-05
1.2763e-05
1.57969e-05
2.0198e-05
2.5797e-05
3.2155e-05
3.85588e-05
4.42097e-05
4.84243e-05
5.07463e-05
3.03159e-05
7.93684e-05
7.22455e-05
7.21059e-05
6.12756e-05
4.80758e-05
3.90662e-05
3.3673e-05
2.98655e-05
2.66443e-05
2.36083e-05
2.59027e-05
7.56161e-05
5.44943e-05
7.51775e-05
6.6088e-05
5.04961e-05
3.90516e-05
3.24199e-05
2.80303e-05
2.45512e-05
2.15066e-05
2.60676e-05
6.62377e-05
5.13294e-05
6.38439e-05
6.89382e-05
5.38553e-05
4.00863e-05
3.21107e-05
2.70836e-05
2.33034e-05
2.01115e-05
2.79143e-05
5.96851e-05
5.11736e-05
5.85273e-05
6.74457e-05
5.72115e-05
4.16361e-05
3.24061e-05
2.67651e-05
2.2722e-05
1.94911e-05
2.9844e-05
5.70337e-05
5.13184e-05
5.50589e-05
6.44293e-05
6.027e-05
4.3503e-05
3.31449e-05
2.69102e-05
2.26199e-05
1.93794e-05
3.11411e-05
5.67158e-05
5.16233e-05
5.20438e-05
5.94093e-05
6.18188e-05
4.57519e-05
3.42861e-05
2.74384e-05
2.28744e-05
1.95652e-05
3.18593e-05
5.80475e-05
5.24266e-05
4.98966e-05
5.38661e-05
5.94632e-05
4.82974e-05
3.58512e-05
2.83143e-05
2.34213e-05
1.99618e-05
3.20878e-05
6.10508e-05
5.41122e-05
4.90027e-05
4.96147e-05
5.47086e-05
4.94708e-05
3.80125e-05
2.96726e-05
2.42431e-05
2.05814e-05
3.1748e-05
6.52433e-05
5.6888e-05
4.92609e-05
4.67527e-05
4.95085e-05
4.84275e-05
4.00594e-05
3.14517e-05
2.54496e-05
2.14644e-05
3.08766e-05
7.0052e-05
6.0954e-05
5.06688e-05
4.50927e-05
4.48596e-05
4.52031e-05
4.10225e-05
3.34983e-05
2.70214e-05
2.2617e-05
2.97036e-05
7.58183e-05
6.66017e-05
5.34992e-05
4.48927e-05
4.17089e-05
4.12848e-05
4.01183e-05
3.52786e-05
2.89405e-05
2.40862e-05
2.84308e-05
8.3235e-05
7.42017e-05
5.79834e-05
4.62587e-05
4.03583e-05
3.82293e-05
3.78692e-05
3.6023e-05
3.09865e-05
2.59082e-05
2.73114e-05
9.21192e-05
8.41499e-05
6.44548e-05
4.92109e-05
4.05646e-05
3.64416e-05
3.535e-05
3.53088e-05
3.26367e-05
2.80197e-05
2.66055e-05
0.000101975
9.68172e-05
7.35203e-05
5.40744e-05
4.23099e-05
3.59917e-05
3.34137e-05
3.35114e-05
3.3174e-05
3.01181e-05
2.64513e-05
0.00011413
0.000112899
8.58368e-05
6.12912e-05
4.58054e-05
3.70301e-05
3.26553e-05
3.16965e-05
3.23777e-05
3.15579e-05
2.68258e-05
0.000128303
0.000132785
0.00010245
7.16929e-05
5.1469e-05
3.96908e-05
3.32514e-05
3.06649e-05
3.0871e-05
3.16793e-05
2.73812e-05
0.000142471
0.000155851
0.000124571
8.67262e-05
6.02509e-05
4.44602e-05
3.54459e-05
3.088e-05
2.96396e-05
3.05549e-05
2.72457e-05
0.000155387
0.000180359
0.000152675
0.000108079
7.36221e-05
5.2313e-05
3.98261e-05
3.28127e-05
2.95756e-05
2.92194e-05
2.62199e-05
0.00016475
0.00020305
0.000185389
0.000137449
9.38942e-05
6.5085e-05
4.76318e-05
3.72742e-05
3.14756e-05
2.89899e-05
2.42523e-05
0.000168157
0.000219664
0.00021789
0.000174771
0.000123993
8.60065e-05
6.14444e-05
4.60965e-05
3.66672e-05
3.12622e-05
2.13243e-05
0.000161133
0.000225898
0.000243142
0.000216183
0.000166298
0.000120181
8.63612e-05
6.34081e-05
4.82361e-05
3.84242e-05
1.86353e-05
0.000147642
0.00022105
0.00025612
0.000251458
0.000216586
0.000171096
0.000129583
9.69613e-05
7.30792e-05
5.60969e-05
1.41183e-05
0.000114032
0.0001634
0.00020385
0.000223391
0.000223865
0.000206352
0.000177263
0.000145249
0.00011626
9.20053e-05
1.09454e-05
4.48788e-05
6.18444e-05
8.42013e-05
0.000106951
0.000128461
0.000144947
0.000150552
0.000146033
0.000134831
0.000119623
2.49136e-05
7.1674e-05
6.92863e-05
6.77306e-05
5.96243e-05
4.87746e-05
4.12293e-05
3.65126e-05
3.31064e-05
3.01838e-05
2.73579e-05
1.75648e-05
6.29219e-05
7.31887e-05
7.41307e-05
6.61453e-05
5.48319e-05
4.65145e-05
4.13892e-05
3.79198e-05
3.51119e-05
3.24546e-05
1.80544e-05
5.85511e-05
7.24944e-05
8.64727e-05
7.84286e-05
6.54122e-05
5.48105e-05
4.83e-05
4.43243e-05
4.15385e-05
3.91772e-05
2.04819e-05
5.4954e-05
7.07037e-05
9.45095e-05
9.29296e-05
8.35099e-05
7.28693e-05
6.51928e-05
6.01574e-05
5.65443e-05
5.3518e-05
2.34798e-05
5.11009e-05
7.12789e-05
9.94994e-05
0.000100434
9.22718e-05
8.11342e-05
7.31816e-05
6.85192e-05
6.59359e-05
6.44056e-05
2.64095e-05
4.81254e-05
7.22529e-05
0.000101399
0.000104243
9.77815e-05
8.69185e-05
7.9208e-05
7.49435e-05
7.30698e-05
7.25703e-05
2.91596e-05
4.60597e-05
7.30367e-05
0.000101865
0.000106386
0.000101682
9.13394e-05
8.41407e-05
8.0403e-05
7.93605e-05
8.01574e-05
3.17494e-05
4.46655e-05
7.35861e-05
0.000101919
0.000108099
0.000104888
9.52281e-05
8.86821e-05
8.56007e-05
8.56135e-05
8.82178e-05
3.40217e-05
4.37205e-05
7.39904e-05
0.000102109
0.000110035
0.000107891
9.90659e-05
9.31134e-05
9.0593e-05
9.13609e-05
9.4869e-05
3.59597e-05
4.30465e-05
7.44047e-05
0.000102526
0.000112322
0.000111086
0.000103102
9.76119e-05
9.55302e-05
9.68939e-05
0.000101217
3.75466e-05
4.24965e-05
7.47215e-05
0.000103302
0.000114924
0.000114701
0.00010748
0.000102285
0.000100462
0.000102106
0.000106235
3.88679e-05
4.19922e-05
7.49198e-05
0.000104316
0.0001178
0.00011878
0.000112278
0.000107219
0.000105484
0.000107269
0.000111345
3.98368e-05
4.13965e-05
7.49248e-05
0.000105434
0.000120941
0.000123375
0.0001176
0.000112515
0.000110682
0.000112526
0.000116913
4.03294e-05
3.94823e-05
7.25212e-05
0.000104624
0.000122781
0.000127619
0.000123258
0.00011827
0.00011619
0.000117944
0.000122606
4.02882e-05
3.7263e-05
6.78105e-05
0.000100877
0.00012164
0.000129723
0.000128157
0.0001242
0.000122155
0.000123739
0.000128564
3.96744e-05
3.48725e-05
6.11683e-05
9.38105e-05
0.00011692
0.000128548
0.000130976
0.000129456
0.000128277
0.000129881
0.000134757
3.84735e-05
3.24244e-05
5.32663e-05
8.33715e-05
0.000107963
0.000122891
0.000129829
0.000132156
0.000133336
0.000135843
0.000140983
3.65982e-05
3.00747e-05
4.52592e-05
7.06638e-05
9.48467e-05
0.000112041
0.000122898
0.000129516
0.000134463
0.000139521
0.000145981
3.3994e-05
2.77688e-05
3.78988e-05
5.73068e-05
7.86382e-05
9.61914e-05
0.00010932
0.000119123
0.000127616
0.000136181
0.000145572
3.06219e-05
2.53297e-05
3.14497e-05
4.47807e-05
6.13153e-05
7.68628e-05
8.99775e-05
0.000100814
0.000110684
0.000120942
0.000132445
2.64326e-05
2.25192e-05
2.5845e-05
3.40143e-05
4.51152e-05
5.67872e-05
6.76784e-05
7.73591e-05
8.6259e-05
9.52012e-05
0.000104997
2.14361e-05
1.90518e-05
2.07593e-05
2.51696e-05
3.15105e-05
3.87567e-05
4.61235e-05
5.31577e-05
5.97719e-05
6.61418e-05
7.2549e-05
1.56661e-05
1.43676e-05
1.52675e-05
1.73195e-05
2.02789e-05
2.38255e-05
2.76719e-05
3.16109e-05
3.55154e-05
3.93236e-05
4.29991e-05
9.46478e-06
9.76534e-06
1.12873e-05
1.31076e-05
1.51723e-05
1.73583e-05
1.98391e-05
2.38682e-05
2.95461e-05
3.68939e-05
4.54383e-05
6.61838e-06
6.83519e-06
7.66276e-06
1.20258e-05
1.4968e-05
1.66824e-05
1.78234e-05
1.8786e-05
1.93598e-05
2.75e-05
2.59866e-05
2.58615e-05
3.42013e-05
5.27364e-05
7.97206e-05
0.00011172
0.000134157
0.000155545
3.94529e-05
3.66924e-05
4.14148e-05
6.48069e-05
0.000107896
0.000162119
0.000218056
0.000259697
0.000297259
5.27775e-05
4.73967e-05
5.73351e-05
9.45716e-05
0.000159548
0.000240476
0.00031737
0.000370526
0.000410376
6.73561e-06
1.20211e-05
1.53863e-05
1.70881e-05
1.80826e-05
1.88243e-05
1.91896e-05
1.92944e-05
1.9363e-05
2.39751e-05
2.99921e-05
4.33617e-05
6.71534e-05
9.97816e-05
0.000125669
0.000147268
0.000164048
0.00017178
3.90108e-05
5.52139e-05
8.74299e-05
0.000139915
0.000203229
0.00024957
0.000287137
0.000315401
0.00032085
5.48951e-05
7.97523e-05
0.000130213
0.000211069
0.000299783
0.000359943
0.000398102
0.000429295
0.000431258
0.000195534
0.000229714
0.000229764
8.12255e-05
0.000123413
0.000229313
0.000241324
0.000229476
0.000229387
0.000233016
0.000116849
0.000229531
0.000184432
0.000239762
0.000123763
0.00022869
0.00023758
8.12546e-05
0.000228681
0.000228464
0.000229423
5.20834e-05
0.000229987
0.000171731
0.000229322
0.000239072
0.000189597
0.000264247
0.000449044
0.000259513
0.000239712
0.000233459
0.000242031
0.000229423
0.000237846
0.000229677
0.000177907
0.000229318
0.000243415
0.000229305
1.83059e-05
0.000229463
0.000244417
0.000229966
0.000400131
6.07894e-05
0.000173949
0.000112158
0.000237443
0.000229422
0.000246349
0.000229273
0.000242235
0.00024247
0.000229383
0.000229226
5.0355e-05
0.000229268
0.000448879
0.000234278
2.7058e-05
0.000242584
0.000174896
0.000224625
2.56614e-05
0.000228462
0.000164554
0.000229951
0.000229717
0.000232529
0.000213345
0.000233715
7.50429e-05
0.000245992
0.000163425
0.000231924
2.25963e-05
0.000229699
0.000474895
0.000382012
0.00019448
0.000209338
0.000229262
0.000229788
0.000244307
7.27429e-05
0.000410496
0.000243304
8.34283e-05
0.000223785
0.000229487
0.000229235
2.01609e-05
0.000233913
0.000400701
0.000110321
0.000174515
0.000225809
8.29878e-05
0.000236794
0.000248388
0.000131008
0.000229686
0.00023371
8.49379e-05
0.000229525
0.000222094
0.000229869
0.000242626
0.000235842
0.000229335
0.000229519
0.000231026
8.84193e-05
8.0499e-05
0.000229018
0.000229368
0.000228874
0.000229267
0.000228836
9.14775e-05
0.00024251
0.000266889
0.000235531
5.53655e-05
0.000224446
0.000239796
0.000216582
0.000237149
0.000240054
0.000229207
0.000231861
0.000119153
0.000232413
0.000229794
0.000237728
2.54046e-05
0.000164527
0.000267264
0.000242016
0.000249478
0.000231026
0.000397588
0.000166317
0.000229383
5.51218e-05
0.000151142
0.000229814
0.000235174
0.000228864
0.000228927
0.000229146
5.47639e-05
0.000242265
8.67282e-05
0.000247458
6.11898e-05
4.88498e-05
0.000200659
0.000228821
0.00022297
7.79155e-05
0.000233269
0.000229133
0.000167047
0.000245624
9.48054e-05
0.000240856
0.000230317
2.52438e-05
0.000239768
0.000196976
0.000232377
0.000229206
0.000232924
0.00021772
0.000190906
5.22067e-05
0.000411963
0.000196728
0.000229504
3.74491e-05
0.000229933
0.000103787
0.00022928
0.000162544
0.000229007
0.000228805
0.000229639
0.000479062
0.000242618
0.000242365
0.000228463
1.78141e-05
0.000229751
0.000229035
0.000229581
8.01777e-05
0.000240624
0.000230001
5.07381e-05
0.000229542
0.000244117
0.000241924
0.000229834
0.000242923
0.000233018
0.000237084
0.000229497
0.000228682
0.000221145
0.000228975
0.000173961
0.000236262
0.00022927
0.000239428
0.000229365
0.000101557
0.000229047
0.000185974
0.00024273
8.29428e-05
0.000169026
7.60089e-05
0.000233579
0.000229269
0.000114557
0.0002457
0.000241683
0.000345198
6.18543e-05
0.000228415
0.000228945
0.000243165
5.27872e-05
0.000308403
0.000138744
0.000229889
0.000229551
0.000229499
0.000105201
0.00017098
0.000234124
1.65146e-05
0.000238133
7.56901e-05
0.000229356
0.000242324
0.000217926
0.000191138
0.000242671
0.000219182
0.000245523
0.000228576
0.00023226
0.000229531
0.000229207
0.000229278
7.29899e-05
0.00022909
0.00015062
0.000216725
0.000228153
0.000229594
0.000229331
0.000152171
0.000231448
0.000234054
0.000165019
0.000180642
9.67516e-05
0.00022913
0.000229547
0.000171306
0.000229052
0.000228912
0.000237179
0.000229157
0.00023638
8.51715e-05
0.000235498
0.000229791
0.00019115
0.000144061
0.000232093
0.000229056
0.000383756
0.000229705
0.000235997
0.000251506
0.000229828
0.000333958
0.000245109
0.000249452
0.000229998
0.000229525
0.000229666
0.00022956
0.000237557
0.000237177
0.000229145
0.000101122
0.000239859
0.000264818
0.000229136
0.000236048
0.000229701
0.000244459
3.78802e-05
0.000229193
0.000147076
0.000229586
0.00023364
0.000241212
2.79603e-05
0.00023051
0.000232394
9.31471e-05
0.00022842
0.000239331
0.000228936
0.000230239
0.000228924
0.000208342
0.00020559
0.000235101
0.000229158
0.000241907
0.000228098
0.00020886
0.000231382
0.00016541
2.06217e-05
0.000229954
0.000163724
0.000221758
6.16755e-05
0.000229651
0.000229228
0.000225678
7.25847e-05
0.000219282
0.000229479
0.000237105
9.42064e-05
0.000244424
0.000171623
0.000229013
0.000164485
0.000235194
0.000115089
0.000228101
0.000179894
0.000229115
0.000117104
0.000230037
0.000242735
0.000204904
0.000229963
0.000201194
0.000139062
0.000243104
0.000229395
0.000229319
0.000229623
8.63038e-05
0.000205638
0.000251245
0.000115591
0.000259995
0.000229157
9.96302e-05
0.000221404
0.000228719
0.000127462
0.000229792
0.000150668
0.000237636
0.000228997
0.000228825
0.000177184
0.000228977
5.24477e-05
0.000229241
0.000242371
0.000136827
9.63489e-05
0.000232545
0.000166727
8.85696e-05
0.000229158
0.000126205
0.000225794
0.000248237
0.000138904
2.53484e-05
0.000229235
0.000228873
0.000229896
0.000169908
7.3927e-05
0.000228971
0.000229989
0.00025161
0.000239916
2.04069e-05
0.000362506
0.000244782
0.000229531
0.000231854
0.000236693
0.00022864
0.000243371
0.000242742
6.39829e-05
0.000233386
0.000242821
0.00025318
0.000217026
0.000113131
0.00010771
0.000183218
0.000180721
0.000241876
0.000224708
0.000234974
0.000244807
7.67234e-05
0.00020083
3.49587e-05
0.000229239
5.30612e-05
0.000231277
0.000228169
0.000238837
0.000246296
0.000152751
0.000250644
0.000235913
0.000230038
0.000237553
0.000404692
0.00011923
9.81797e-05
0.000232218
0.000250343
0.000245086
3.41101e-05
0.000228771
6.0836e-05
0.000229154
0.000229735
0.000229328
9.37857e-05
0.000131513
0.000105649
0.000239889
4.8127e-05
8.37254e-05
0.000229631
0.000228749
0.000238909
0.000213072
0.000232115
0.000235262
4.00392e-05
4.33124e-05
2.96836e-05
2.93526e-05
0.000231387
0.000208747
0.000101343
0.000229018
2.67992e-05
0.000233923
0.000229669
0.000229156
8.05637e-05
6.35281e-05
0.000228941
0.000229152
0.000229494
0.000272446
3.17544e-05
0.000229909
6.22893e-05
0.000364961
0.000155181
0.000248938
0.000228714
5.74293e-05
0.000229036
0.000233458
0.000229278
0.000238891
0.000179007
0.000228469
0.000212452
0.000167354
0.000233328
0.000244643
0.000242031
0.000229449
0.000229416
0.00029712
0.000246426
9.39471e-05
0.000231561
0.000126026
0.000229766
0.000153885
0.000111931
8.89176e-05
0.000245971
0.000248639
0.000140984
0.000177369
0.000212919
0.000229137
0.000191204
0.000228478
0.000229778
0.00022914
0.000229612
0.000233219
0.000178255
0.000229347
0.000228778
0.000121926
0.000229146
4.35346e-05
0.000240261
0.000244488
0.000200486
8.50253e-05
0.000229998
0.00022928
0.000229951
1.73604e-05
6.52067e-05
0.0002293
0.000229287
0.000235493
0.000229848
0.00011596
0.000229799
0.000232372
0.000235204
4.73004e-05
0.000246814
0.000159731
6.74025e-05
0.000154705
0.000229172
0.000231564
0.000234679
0.000229772
0.000245815
3.29228e-05
0.000223622
0.000241826
0.000142236
8.33965e-05
0.000229327
0.000229862
0.000229749
0.000244411
0.000133419
9.04997e-05
0.000229484
0.000229326
0.000144511
0.000231053
0.000247902
0.000237916
0.000244717
0.000110132
0.000229195
9.39911e-05
0.000229257
0.000192672
0.000229591
0.000167407
0.000185256
0.000232725
2.87671e-05
0.000244788
0.000229956
0.000230001
0.000432671
0.000229041
0.000191856
0.000129552
0.000182114
0.000239696
7.22684e-05
0.000227516
0.000230988
0.000229176
0.000229238
0.000122517
0.000151035
0.000127219
0.000228452
0.000229349
0.000263692
0.000229135
0.000237116
0.000234965
0.000233544
0.000242558
0.000213094
0.00018853
0.0001651
0.000232669
0.000238169
0.000228558
0.000179512
0.00023179
0.000229156
0.000200136
0.000199466
0.000228943
0.000228981
2.56813e-05
0.000229663
0.000228713
0.000150931
0.000229788
0.000234026
0.000200557
0.000249089
0.000157979
0.000235333
0.000193517
0.000143751
0.000241233
8.68883e-05
0.000171858
0.000195034
8.91566e-05
6.25761e-05
0.00015022
0.000229769
0.000229997
0.000214664
0.000229051
0.000229088
0.000244063
0.000231014
0.000248432
0.00023097
0.000206994
0.000252138
0.000229123
0.000208883
0.000229503
0.000228899
0.000235096
0.000138521
0.000231694
0.00023211
0.000230492
0.000229707
0.000140115
6.19894e-05
0.000356579
0.000231978
0.000229469
0.000187974
0.000248133
0.00023763
0.000438037
0.000231709
0.000148106
0.000242579
0.000229166
0.000243791
0.000229923
0.00024229
0.000176523
0.000243532
0.000178563
0.000220842
0.000242565
0.000229823
0.000114055
0.000212768
9.10061e-05
0.000236376
0.000228986
0.000233275
0.000229809
0.000163433
0.0002294
7.38588e-05
0.000229545
0.00022928
0.000229069
0.000188584
0.000216294
0.000229545
0.000159129
0.000229218
0.000245405
0.000200166
0.000230784
0.000147691
1.58759e-05
0.000248624
0.00023555
0.000241266
0.000216271
0.000198384
0.00024068
0.000210805
0.00022919
0.00024481
0.000229275
0.000231125
0.000132989
0.000212411
5.46721e-05
0.000239666
0.000230878
0.000234267
0.000228837
0.000109938
0.000229615
0.000240731
0.000251741
0.000230507
0.000233905
0.000138362
0.000247128
0.000238036
0.000242111
0.000214367
5.84006e-05
9.10144e-05
0.000229401
0.00024328
0.000137281
0.000229509
4.87944e-05
0.000142665
0.00024755
0.000150845
0.000229309
0.000232578
0.000233702
0.00015811
0.000236098
0.000226086
0.000229632
0.000242663
0.000234059
0.000249155
0.000247
0.000207567
0.000242252
0.000228787
0.000146204
7.33088e-05
0.000229186
0.000234441
0.000185261
0.000252214
0.000246109
4.48221e-05
0.000242018
8.52936e-05
0.000247128
0.000251268
0.000228856
0.000244624
0.00022911
0.000173318
2.75545e-05
0.000230042
0.000229231
0.000246973
0.000356557
0.000219474
0.000228206
0.000229645
0.000243593
0.000249756
0.000229514
0.000229603
0.000229864
0.000229249
0.000236088