/*--------------------------------*- C++ -*----------------------------------*\
| =========                 |                                                 |
| \\      /  F ield         | OpenFOAM: The Open Source CFD Toolbox           |
|  \\    /   O peration     | Version:  3.0.1                                 |
|   \\  /    A nd           | Web:      www.OpenFOAM.org                      |
|    \\/     M anipulation  |                                                 |
\*---------------------------------------------------------------------------*/
FoamFile
{
    version     2.0;
    format      ascii;
    class       volScalarField;
    location    "0.41532";
    object      k;
}
// * * * * * * * * * * * * * * * * * * * * * * * * * * * * * * * * * * * * * //

dimensions      [0 2 -2 0 0 0 0];

internalField   nonuniform List<scalar> 
21246
(
0.119921
0.269956
0.267471
0.267287
0.224662
0.166938
0.116
0.0783554
0.0529347
0.0363602
0.0260464
0.108544
0.214195
0.224006
0.227758
0.197728
0.145561
0.0983804
0.0646882
0.042648
0.0285912
0.0198139
0.0939037
0.166187
0.185216
0.18868
0.166681
0.125527
0.0850206
0.0555666
0.0362154
0.0238412
0.0159273
0.0824975
0.134628
0.154689
0.156617
0.139556
0.107642
0.0746868
0.0494125
0.0323005
0.0211436
0.0139226
0.0754975
0.114207
0.132575
0.13344
0.119808
0.0947278
0.0677282
0.0457621
0.030228
0.0198122
0.0130023
0.0703031
0.101495
0.118505
0.119024
0.107865
0.087267
0.0641304
0.0442391
0.0295289
0.0193987
0.0127174
0.0660581
0.0938928
0.110393
0.111281
0.101992
0.0841325
0.0632096
0.0443117
0.0297875
0.0195813
0.0127951
0.0631648
0.0897442
0.105844
0.107701
0.0999137
0.0837421
0.0639935
0.045386
0.0306425
0.0201443
0.0131513
0.0609415
0.08719
0.103472
0.106461
0.0998207
0.0847864
0.0656631
0.0469854
0.0318265
0.0209342
0.0136876
0.0590815
0.0855511
0.102337
0.106263
0.100567
0.0864617
0.0677137
0.048822
0.0331838
0.0218554
0.0143234
0.0575163
0.0844468
0.101657
0.106355
0.101544
0.0882432
0.0697962
0.0506897
0.0346
0.0228492
0.0150102
0.0562066
0.0838368
0.101211
0.106474
0.102417
0.0898242
0.0716952
0.0524629
0.0360065
0.0238794
0.0157592
0.0551512
0.0833849
0.100766
0.106496
0.103119
0.0912073
0.073454
0.0541884
0.0374353
0.024961
0.0165696
0.0542117
0.0827633
0.100173
0.106387
0.103713
0.0925343
0.0752383
0.0560124
0.0389911
0.0261449
0.0174398
0.0533642
0.0822732
0.0995941
0.106231
0.104255
0.0938622
0.0771227
0.0580172
0.0407484
0.0274941
0.0184365
0.0526208
0.0817576
0.098951
0.106024
0.104817
0.0953399
0.0793061
0.0604094
0.0428729
0.0291167
0.0195879
0.0518821
0.0809271
0.0980983
0.10572
0.105469
0.0971537
0.0820587
0.0634752
0.0456011
0.0311705
0.0209988
0.0510752
0.0798773
0.0970681
0.105335
0.106267
0.0994403
0.0856029
0.0674847
0.049183
0.0338333
0.022758
0.0501306
0.0784461
0.0957551
0.104839
0.107297
0.102407
0.0902475
0.0727965
0.0539581
0.0373847
0.0250065
0.0489255
0.0763895
0.0940523
0.104261
0.108729
0.10633
0.0963262
0.0797868
0.0603252
0.0421936
0.028083
0.04718
0.073245
0.0919286
0.103762
0.110787
0.111388
0.103958
0.0886279
0.0686123
0.0486988
0.0324611
0.0447719
0.0703265
0.0900609
0.103514
0.113266
0.116974
0.112334
0.0987055
0.078719
0.0573103
0.038771
0.0396666
0.0611595
0.0825584
0.0993143
0.111116
0.117728
0.116998
0.107035
0.0891463
0.0678125
0.0477154
0.141066
0.160011
0.175165
0.176767
0.156167
0.131652
0.121142
0.111586
0.0971307
0.0784442
0.0590623
0.123944
0.233755
0.27646
0.27913
0.244959
0.194955
0.144718
0.101974
0.0704229
0.0491273
0.0356945
0.0987592
0.138286
0.202304
0.249129
0.253798
0.224995
0.184717
0.140885
0.100814
0.0704125
0.0508461
0.105893
0.122775
0.175996
0.233139
0.259518
0.23657
0.20166
0.173257
0.138006
0.101524
0.0749546
0.118185
0.134551
0.180809
0.239253
0.28684
0.288209
0.234305
0.187833
0.156473
0.130002
0.106155
0.129949
0.15064
0.193593
0.249431
0.307996
0.344907
0.313564
0.238044
0.177675
0.141319
0.124487
0.140714
0.167416
0.208177
0.258174
0.315742
0.373936
0.390568
0.321181
0.2294
0.163154
0.130688
0.150478
0.183723
0.222851
0.264973
0.313474
0.375315
0.428224
0.402101
0.304518
0.206392
0.145339
0.159551
0.199656
0.237746
0.271141
0.306739
0.359872
0.428232
0.454481
0.380047
0.265121
0.174612
0.168203
0.215852
0.253455
0.277956
0.299993
0.338607
0.404994
0.468666
0.43745
0.325126
0.212286
0.176624
0.232712
0.270107
0.285684
0.295341
0.318692
0.373494
0.453475
0.468865
0.373898
0.251329
0.185173
0.250474
0.287494
0.294353
0.293551
0.303937
0.344609
0.424943
0.47805
0.406876
0.283865
0.194442
0.269125
0.305604
0.304349
0.294588
0.295282
0.323872
0.3927
0.473334
0.426612
0.306008
0.204897
0.289262
0.323866
0.315536
0.297735
0.291496
0.311007
0.362112
0.443073
0.443183
0.316327
0.215813
0.311585
0.344289
0.328331
0.301563
0.287562
0.298395
0.334417
0.388991
0.426893
0.320777
0.227005
0.336924
0.368084
0.343863
0.306503
0.282518
0.282577
0.303698
0.337005
0.363048
0.329459
0.239303
0.366744
0.396999
0.363895
0.314232
0.27842
0.266961
0.27517
0.294526
0.31404
0.311962
0.25313
0.402528
0.433566
0.391601
0.328111
0.278748
0.255478
0.252728
0.261453
0.272876
0.27659
0.269021
0.446403
0.482597
0.43424
0.35636
0.290657
0.252797
0.237518
0.235039
0.237053
0.236679
0.287401
0.503894
0.556442
0.510762
0.423011
0.340539
0.286229
0.258343
0.2467
0.242113
0.236757
0.283539
0.53796
0.616682
0.593938
0.512697
0.421292
0.353889
0.319336
0.31042
0.316137
0.325875
0.255735
0.504577
0.595731
0.59851
0.541512
0.458488
0.381707
0.328681
0.297165
0.268673
0.23079
0.229744
0.452419
0.545031
0.564123
0.529601
0.464455
0.390885
0.323582
0.259599
0.190313
0.136057
0.210231
0.39279
0.473664
0.493166
0.468628
0.417981
0.353444
0.275497
0.191878
0.134909
0.098366
0.220105
0.355062
0.386173
0.383207
0.354495
0.301602
0.22735
0.161773
0.121957
0.0953572
0.0742295
1.0096
1.22976
0.70594
0.360001
0.186175
0.0978301
0.0516698
0.0275741
0.0154132
0.00971633
0.00721689
0.58516
0.779956
0.587756
0.366537
0.204387
0.110948
0.0588667
0.030825
0.016588
0.00995659
0.00714355
0.530204
0.673091
0.517547
0.36536
0.224271
0.127607
0.0688343
0.0356467
0.0185073
0.0105439
0.00725491
0.501944
0.594744
0.455694
0.341534
0.218391
0.129576
0.0719804
0.0381981
0.0200407
0.0112959
0.0076216
0.481799
0.516123
0.402409
0.310308
0.201591
0.123851
0.0713525
0.0392394
0.021137
0.011986
0.00796953
0.465716
0.448916
0.358107
0.278536
0.182545
0.114759
0.0680416
0.0387188
0.0215242
0.0124217
0.00827658
0.452138
0.397246
0.321896
0.249419
0.164821
0.105027
0.0636175
0.0372571
0.0213501
0.0126158
0.00846569
0.440165
0.356368
0.291308
0.224459
0.149314
0.0958997
0.0589468
0.0353083
0.0207924
0.0125897
0.00864514
0.430163
0.323581
0.265564
0.203743
0.136189
0.0878813
0.0545784
0.033278
0.0200814
0.0124882
0.00877882
0.422967
0.297182
0.244408
0.187121
0.125549
0.0812297
0.0507963
0.0314031
0.0193551
0.0123433
0.00883393
0.417621
0.275516
0.226721
0.173626
0.116931
0.0758082
0.047633
0.0297672
0.0186752
0.0121674
0.00887085
0.4125
0.257204
0.21136
0.162227
0.10976
0.0713463
0.0450136
0.0283859
0.018083
0.0120053
0.00889479
0.408896
0.241756
0.198228
0.152832
0.103991
0.067832
0.0429568
0.0272963
0.0176164
0.0118822
0.00891549
0.407491
0.229569
0.187389
0.145504
0.0997043
0.0653246
0.041504
0.0265346
0.0173042
0.0118148
0.00895379
0.406022
0.219568
0.178039
0.139642
0.0966386
0.0636751
0.0406006
0.0260932
0.017159
0.0118212
0.00903278
0.404826
0.211479
0.169768
0.13458
0.0945817
0.0630224
0.0404567
0.0261285
0.0172892
0.0119806
0.00919189
0.404051
0.205975
0.162838
0.130447
0.0935906
0.0633754
0.0411451
0.0267233
0.0177615
0.0123523
0.00944859
0.403657
0.202279
0.157078
0.127042
0.0934411
0.0646647
0.0427188
0.0279875
0.0186724
0.013
0.00986722
0.403843
0.200514
0.15265
0.124404
0.0940865
0.0669466
0.045337
0.0301426
0.0202222
0.0140633
0.010535
0.404974
0.200858
0.149799
0.122624
0.0955018
0.0702942
0.0492178
0.0335168
0.0227473
0.0158043
0.0116335
0.4076
0.203445
0.148833
0.121877
0.0976582
0.0747205
0.0545572
0.0385058
0.0267431
0.0186895
0.0135342
0.412974
0.207728
0.149936
0.122439
0.100572
0.0801346
0.0614113
0.0454456
0.0327939
0.0234165
0.0168944
0.421248
0.212242
0.152833
0.124517
0.104289
0.0862945
0.0695115
0.0543216
0.0412832
0.0307181
0.0226379
0.451636
0.211835
0.162523
0.134669
0.114022
0.0963501
0.0803131
0.0656474
0.0524932
0.0410773
0.0315656
1.12764
1.82094
0.816006
0.49368
0.254548
0.126679
0.0628195
0.0315321
0.0167436
0.0102075
0.00746475
1.13223
1.89165
0.984734
0.591283
0.33651
0.173813
0.0857596
0.0413404
0.020599
0.0117569
0.00830909
1.07533
1.60833
0.997477
0.636331
0.385572
0.217696
0.112441
0.0544881
0.0262973
0.0141701
0.00947672
0.972954
1.36148
0.938893
0.620976
0.400719
0.248111
0.136347
0.0682366
0.0327651
0.017031
0.0110292
0.85851
1.21476
0.861219
0.579648
0.39626
0.263157
0.153355
0.0800699
0.038857
0.019778
0.0125624
0.753163
1.12948
0.790735
0.536799
0.383176
0.266416
0.16296
0.0886001
0.0437047
0.0218693
0.0135193
0.664311
1.07617
0.734064
0.49916
0.367148
0.262742
0.166877
0.093774
0.0470025
0.0233188
0.014337
0.592233
1.04077
0.686876
0.466641
0.350367
0.255556
0.167094
0.0962656
0.0488296
0.0241256
0.0148793
0.535324
1.01326
0.648265
0.438817
0.334186
0.247171
0.1654
0.0970641
0.04958
0.0244124
0.0152036
0.490722
0.987412
0.616029
0.415868
0.319402
0.239015
0.163179
0.0971125
0.0497411
0.02437
0.0154553
0.455009
0.958249
0.591614
0.397264
0.306009
0.231208
0.160799
0.0972806
0.0502594
0.0246218
0.0158176
0.425368
0.930894
0.571744
0.381568
0.293759
0.223852
0.158396
0.0975735
0.0512705
0.025427
0.0163262
0.400371
0.903147
0.556285
0.368905
0.28293
0.217244
0.156287
0.0983282
0.0530076
0.0269242
0.0171257
0.378381
0.87095
0.545991
0.36011
0.274033
0.211712
0.154789
0.0998467
0.0557037
0.0292343
0.0183734
0.358201
0.837059
0.538835
0.354558
0.267088
0.207238
0.15394
0.102194
0.0594621
0.0324889
0.0202355
0.339165
0.800277
0.534532
0.352719
0.262655
0.204172
0.15399
0.105532
0.0644381
0.0369341
0.0229504
0.320448
0.758858
0.532426
0.355205
0.261593
0.203084
0.155291
0.110036
0.0707795
0.0428344
0.0269255
0.301214
0.713097
0.531123
0.362175
0.264841
0.204842
0.15839
0.115942
0.0786172
0.0504369
0.0325512
0.28065
0.662426
0.528577
0.373411
0.27359
0.210891
0.164358
0.12382
0.0882337
0.0600213
0.0403467
0.257926
0.606949
0.52199
0.38808
0.289377
0.223667
0.175383
0.135143
0.100453
0.0721296
0.0508103
0.230271
0.537092
0.506321
0.403983
0.313697
0.246797
0.195414
0.153128
0.117451
0.0880865
0.0648629
0.203974
0.514803
0.492393
0.418951
0.342542
0.277262
0.222704
0.176927
0.138702
0.107333
0.0817484
0.179257
0.369428
0.374255
0.333263
0.28161
0.232905
0.189288
0.151109
0.118499
0.0913294
0.069208
0.405524
0.299922
0.225152
0.176584
0.143558
0.118503
0.0981618
0.0809635
0.0661163
0.0532413
0.0421511
0.503776
0.691363
0.317062
0.168407
0.0827317
0.0424408
0.0255901
0.0190822
0.0164334
0.0151778
0.0144469
0.528185
0.772635
0.384765
0.204918
0.105691
0.0524149
0.0287936
0.0198244
0.0164604
0.014986
0.0141837
0.527692
0.681185
0.410744
0.234382
0.124365
0.0631269
0.033236
0.0211819
0.0167953
0.0149971
0.0141007
0.500152
0.59302
0.408428
0.244157
0.136657
0.072037
0.0379656
0.0229259
0.0173824
0.0152061
0.0142255
0.455926
0.538183
0.39663
0.245346
0.14364
0.0793842
0.0423809
0.0248559
0.0181547
0.0155697
0.014488
0.404836
0.503256
0.384963
0.246188
0.149273
0.08586
0.0467932
0.0268654
0.0190376
0.016032
0.0148215
0.352397
0.480588
0.376088
0.248473
0.155035
0.0916743
0.0514539
0.0293283
0.0199932
0.0165534
0.015221
0.302117
0.466985
0.370547
0.251811
0.160926
0.097362
0.0560351
0.0321273
0.0212696
0.0171529
0.015652
0.257067
0.457561
0.369444
0.25679
0.167384
0.103404
0.0608359
0.0352416
0.0228265
0.0178942
0.0161302
0.217995
0.44996
0.373181
0.264516
0.1753
0.110422
0.066297
0.0388609
0.0247534
0.0188125
0.0166669
0.184542
0.445273
0.381647
0.275097
0.184758
0.118462
0.0725512
0.0431094
0.0271368
0.0199767
0.0172884
0.157589
0.445918
0.395345
0.2885
0.195509
0.127244
0.079483
0.0480136
0.0300519
0.0214703
0.018055
0.138942
0.450702
0.41487
0.305983
0.208411
0.137181
0.0873013
0.0537402
0.0336536
0.0234189
0.0190431
0.129437
0.457399
0.440445
0.329377
0.224994
0.149125
0.096421
0.0605494
0.0381617
0.0260044
0.0203808
0.130891
0.472734
0.474158
0.360284
0.2463
0.163598
0.107052
0.0685559
0.0437365
0.0294238
0.0222568
0.141482
0.491998
0.51567
0.402137
0.275541
0.182575
0.120225
0.0782886
0.050726
0.0339854
0.0249306
0.152008
0.500954
0.557528
0.457396
0.317895
0.209935
0.138226
0.0909981
0.0598577
0.040212
0.0288291
0.156805
0.493425
0.586393
0.521429
0.37746
0.250944
0.164879
0.109052
0.0725689
0.0490644
0.0346866
0.156186
0.469289
0.58894
0.577765
0.452585
0.31185
0.206941
0.137506
0.0922297
0.0627725
0.0440601
0.151316
0.433954
0.562154
0.604205
0.528709
0.394983
0.273843
0.18591
0.1263
0.0866903
0.0607542
0.144188
0.391096
0.512911
0.59143
0.583593
0.492341
0.37382
0.268969
0.189369
0.132894
0.094112
0.152204
0.356404
0.463623
0.557031
0.602004
0.573858
0.491162
0.389621
0.295314
0.219308
0.161499
0.147036
0.32331
0.393655
0.454927
0.496561
0.513961
0.49931
0.452501
0.386381
0.317981
0.254045
0.188869
0.37874
0.421734
0.47631
0.515136
0.533142
0.525296
0.485405
0.428826
0.36823
0.307564
0.429034
0.487268
0.271666
0.134038
0.0686424
0.0381545
0.0247581
0.0191976
0.0167751
0.0155979
0.0149233
0.331361
0.38695
0.236204
0.139284
0.0754697
0.042558
0.027046
0.0203968
0.0175384
0.0162085
0.0155167
0.330704
0.384202
0.231179
0.159645
0.0941624
0.0537879
0.0322736
0.022675
0.0187229
0.017006
0.0162063
0.330869
0.357626
0.216937
0.164702
0.104646
0.0634132
0.0387558
0.0261851
0.0206493
0.0182656
0.0172426
0.328863
0.316295
0.204347
0.161318
0.104468
0.065132
0.0407675
0.0279364
0.0219354
0.0192906
0.0181649
0.325342
0.279005
0.192068
0.153108
0.100824
0.0650004
0.041624
0.0288328
0.0227147
0.019943
0.018784
0.32134
0.249552
0.180828
0.144093
0.0959772
0.0635546
0.0416139
0.0293899
0.0233914
0.0206423
0.0195398
0.317011
0.226588
0.170699
0.135747
0.0913366
0.0618555
0.0412543
0.0297385
0.023994
0.021327
0.0202792
0.313219
0.208605
0.162116
0.128619
0.0876213
0.0603408
0.0409164
0.0300305
0.0245313
0.0219812
0.0210307
0.310454
0.194749
0.154953
0.122868
0.0850801
0.0592316
0.0407569
0.0303465
0.0250397
0.0225985
0.0217483
0.308866
0.184096
0.149342
0.118787
0.0835925
0.058718
0.040885
0.0307412
0.0255314
0.0231491
0.0223085
0.308322
0.175541
0.144719
0.115999
0.0829776
0.0588051
0.0413442
0.0312642
0.026041
0.023668
0.0228483
0.309029
0.168633
0.141062
0.114383
0.0832523
0.0595738
0.0422227
0.0319927
0.0266209
0.0241848
0.0233852
0.309824
0.163934
0.13827
0.113825
0.0845738
0.0612237
0.0437245
0.0330709
0.0273575
0.0247574
0.0239342
0.310175
0.160501
0.135745
0.113534
0.086551
0.0636506
0.0460424
0.034803
0.0285436
0.0255898
0.0246197
0.3102
0.158269
0.133471
0.113452
0.0890548
0.066898
0.0492798
0.0373714
0.0303746
0.0268631
0.0255864
0.309981
0.157292
0.131494
0.113516
0.091958
0.0709826
0.0535533
0.0410066
0.0331286
0.0288475
0.0270568
0.309544
0.157374
0.129824
0.113596
0.0950298
0.0757926
0.0589178
0.0459299
0.0371424
0.0319232
0.0293897
0.308954
0.15845
0.128549
0.113591
0.0980009
0.0810845
0.0653164
0.0523064
0.0427768
0.0365732
0.0331295
0.308344
0.160596
0.127855
0.113449
0.100558
0.086421
0.0724534
0.0600931
0.050287
0.0433031
0.0389669
0.307941
0.163741
0.127951
0.113174
0.102331
0.0910988
0.0795874
0.0687461
0.0594775
0.0523135
0.0474563
0.308347
0.16752
0.128878
0.112769
0.102868
0.0940504
0.0852444
0.0766825
0.0689472
0.0625851
0.0580219
0.31005
0.172484
0.130876
0.112277
0.101742
0.0940053
0.0872198
0.0809912
0.0754736
0.071006
0.067993
0.325294
0.180566
0.145176
0.129894
0.122087
0.117232
0.11305
0.113229
0.11693
0.123489
0.130924
0.0172826
0.0274906
0.0557054
0.0685636
0.0742893
0.0766107
0.0760241
0.0747845
0.0749641
0.0316927
0.0542368
0.0675753
0.0830279
0.0966049
0.105045
0.10984
0.117537
0.113369
0.0408203
0.0668036
0.0808324
0.0892433
0.0919107
0.0931355
0.097032
0.105156
0.104406
0.0502665
0.0718433
0.0794729
0.0797993
0.0781626
0.0752332
0.0747698
0.0820821
0.0825221
0.0147992
0.0121516
0.028091
0.0534391
0.0687138
0.075792
0.0777899
0.0777459
0.0762929
0.0251671
0.0300106
0.0421947
0.0554575
0.0677094
0.0791828
0.0896803
0.098119
0.105559
0.0322564
0.0374414
0.0500553
0.063576
0.0733144
0.0780931
0.0815909
0.0892363
0.0979271
0.039713
0.0437437
0.0538497
0.0626851
0.0658848
0.0656531
0.0667211
0.0718062
0.0783601
0.00442803
0.00460081
0.00461586
0.00570463
0.0394169
0.00438993
0.0121099
0.0045397
0.00438025
0.00422564
0.0396685
0.00454969
0.00377522
0.00342902
0.00448409
0.00430187
0.00326374
0.00568321
0.00429086
0.00424991
0.00411842
0.00452808
0.00466529
0.0148185
0.00449429
0.00342585
0.00382165
0.0117198
0.0814606
0.046201
0.00332004
0.00409652
0.00340087
0.00453505
0.00425298
0.00459207
0.0138374
0.00448909
0.00340418
0.00439956
0.00618484
0.00454398
0.0048627
0.00465802
0.0628898
0.0147857
0.00273497
0.0240148
0.00428632
0.00430943
0.0446858
0.00440618
0.0225802
0.0046848
0.0043068
0.00412533
0.00450837
0.00441323
0.0808082
0.00958131
0.00557772
0.0214342
0.0481275
0.0189758
0.00786371
0.00426059
0.0599421
0.00428184
0.00460136
0.00421703
0.00326221
0.00425494
0.00537369
0.00438775
0.00893751
0.00424494
0.00461644
0.00459572
0.0114095
0.0731419
0.0313124
0.0157087
0.00449662
0.00462555
0.00436648
0.00524545
0.113247
0.0175988
0.0035725
0.0141779
0.00454292
0.00442507
0.0063493
0.00428417
0.0715444
0.0322892
0.00842095
0.00399092
0.00386097
0.00430288
0.00466093
0.0216658
0.00415338
0.00402059
0.00349702
0.00454908
0.00309894
0.00464628
0.00358798
0.00417754
0.00450901
0.00455856
0.00427205
0.00540012
0.00375735
0.00442401
0.00438248
0.00431089
0.00449799
0.00413456
0.00555528
0.00438108
0.00437937
0.00323018
0.0130287
0.00421584
0.018815
0.0030906
0.00324666
0.00334644
0.00446064
0.00933129
0.0229135
0.00424477
0.00461343
0.00454051
0.00399553
0.00979549
0.0455744
0.00445395
0.00552288
0.00412677
0.0263453
0.00402289
0.0043717
0.00319139
0.00445398
0.00428037
0.00427703
0.00424883
0.00426962
0.00442463
0.00348291
0.00434248
0.00545618
0.00310535
0.00408396
0.00398
0.00319192
0.00435473
0.0036216
0.00463569
0.00425052
0.00443126
0.0666228
0.00476313
0.0043047
0.00469507
0.00410033
0.00740999
0.00336056
0.00312664
0.00418344
0.00405828
0.00408776
0.00395965
0.00310842
0.0035941
0.0633723
0.00392614
0.00427937
0.00431363
0.0046593
0.0120116
0.0044991
0.0128363
0.00425856
0.00429635
0.00458846
0.0159518
0.00356785
0.00351435
0.00427202
0.00563685
0.0046092
0.00439354
0.00434234
0.00392142
0.00337522
0.00467913
0.0032539
0.00430226
0.00364025
0.00338633
0.00462676
0.0179054
0.00428142
0.00324522
0.00432931
0.00433742
0.0158961
0.00439561
0.00401214
0.00421294
0.00449295
0.0155938
0.00450908
0.00267536
0.00426767
0.00323419
0.00338511
0.00529367
0.0080054
0.00375616
0.00320075
0.00441832
0.00868582
0.00446083
0.00345799
0.0375701
0.00404364
0.00425673
0.00426546
0.00438703
0.00347556
0.0554126
0.0544865
0.00464569
0.00455582
0.00454446
0.00266164
0.0238071
0.00401143
0.0046687
0.00435541
0.0052309
0.00451754
0.0034623
0.0332401
0.041697
0.00345307
0.0163698
0.00516638
0.00429736
0.00394997
0.00435474
0.00414839
0.00447402
0.00322196
0.00425637
0.00334184
0.00457232
0.00432496
0.00457197
0.00450726
0.00278028
0.00412987
0.00439498
0.00558383
0.0037101
0.0203376
0.00430229
0.00429618
0.00273519
0.0043845
0.00432367
0.00327493
0.00444546
0.00427918
0.00368808
0.00427391
0.00459467
0.0322383
0.0493136
0.00395062
0.0043902
0.0696937
0.00458363
0.00424449
0.00559494
0.0046134
0.0120607
0.00472819
0.00336924
0.00467838
0.00433874
0.00410678
0.00456213
0.00425068
0.00329835
0.00445438
0.00596522
0.00435692
0.0462904
0.0041594
0.00416944
0.00459605
0.00599715
0.00422947
0.00434481
0.00765856
0.00456206
0.00409105
0.00337798
0.00509118
0.00410568
0.00371841
0.0041237
0.00412732
0.00430756
0.00425517
0.0174842
0.00435566
0.00336253
0.00874535
0.00432061
0.00445465
0.0037206
0.00424049
0.0350093
0.00432821
0.0485486
0.00423725
0.00464962
0.00360102
0.0462415
0.00425362
0.00458407
0.00447078
0.00396169
0.00399438
0.0159731
0.00429399
0.00478789
0.0186495
0.00618329
0.00501182
0.00437852
0.011332
0.0242638
0.00889278
0.0039351
0.00372793
0.00417834
0.00393729
0.00468914
0.00339738
0.00399591
0.00465927
0.039726
0.00385164
0.00348909
0.00451686
0.00451267
0.0043013
0.00389042
0.00311011
0.00326107
0.010562
0.00447778
0.00443876
0.0106281
0.0414289
0.00322258
0.00389424
0.00460493
0.00390952
0.00424037
0.00437067
0.00425301
0.0322575
0.00437845
0.00320917
0.00442492
0.00350854
0.0619125
0.00599641
0.00319129
0.0212872
0.00383858
0.00443446
0.00559896
0.00313285
0.0046164
0.0631997
0.00817084
0.00448142
0.00427878
0.00461809
0.00279837
0.00319418
0.00441044
0.00466203
0.00595828
0.00327664
0.00953162
0.00886935
0.00466413
0.00430113
0.0170151
0.00448157
0.00427654
0.00350436
0.00346388
0.00390393
0.00407154
0.00358829
0.00448111
0.00310039
0.00525633
0.0247727
0.00316825
0.0128024
0.00345979
0.00397899
0.00416571
0.00435087
0.00478973
0.00499718
0.0100103
0.00448692
0.0031901
0.0034603
0.00410095
0.00472391
0.00345911
0.0182286
0.0416212
0.00323837
0.00468838
0.00395518
0.105526
0.00603546
0.00605839
0.00426146
0.00373109
0.0116203
0.00344012
0.00433767
0.00431989
0.00444639
0.00461264
0.00449716
0.00456937
0.00442691
0.0107602
0.00336715
0.00326014
0.00479086
0.00459011
0.00433361
0.0200619
0.00318745
0.00394025
0.00443463
0.00796334
0.00736192
0.00545505
0.00546768
0.00432275
0.00393014
0.00483011
0.0042327
0.00543288
0.0043361
0.004581
0.00431199
0.00557841
0.00385661
0.00426076
0.00445209
0.00413436
0.0328536
0.0043066
0.00464584
0.00311442
0.0409815
0.00404593
0.00344282
0.00433651
0.00345063
0.00439097
0.0043221
0.00441234
0.0032952
0.00325681
0.00426249
0.00341099
0.00399953
0.00437983
0.00374888
0.00371171
0.00453313
0.00453543
0.0367476
0.00375492
0.00589205
0.00433484
0.0178273
0.00461868
0.032188
0.00432865
0.00381644
0.00435111
0.00470584
0.0566222
0.00275335
0.00340142
0.00445441
0.00358719
0.00411663
0.00459298
0.00442303
0.00456778
0.00425251
0.031365
0.00451416
0.00434981
0.00966224
0.0044471
0.00900016
0.00432162
0.00512155
0.00328468
0.00363981
0.00467788
0.00447481
0.00463326
0.00518623
0.00391286
0.00450234
0.00449182
0.0032253
0.00461401
0.00555966
0.00460339
0.0321211
0.00423774
0.0043633
0.00343007
0.00329775
0.0165084
0.0352871
0.0041704
0.00412498
0.00426785
0.0046021
0.00346041
0.00344406
0.00423517
0.00339358
0.019614
0.0273328
0.0044925
0.00430698
0.00459517
0.0114095
0.0597166
0.00422823
0.00453795
0.00437346
0.0485683
0.00427682
0.00340799
0.00326838
0.00505756
0.0321141
0.00443701
0.00442162
0.00446122
0.00285988
0.00432713
0.00952156
0.00313356
0.00408968
0.00534199
0.00573762
0.00463521
0.00467318
0.0711248
0.00440498
0.00352377
0.00884682
0.0028052
0.0111223
0.00397228
0.00364007
0.00419018
0.00444857
0.00448966
0.0319056
0.00280137
0.00391852
0.00425121
0.00450162
0.00750176
0.00425312
0.00430956
0.00436894
0.00424566
0.00341941
0.00287771
0.00282833
0.00566501
0.00401353
0.00519975
0.00429094
0.00773359
0.00423105
0.00446146
0.0350604
0.0232663
0.00438351
0.00438419
0.00387874
0.00414331
0.00432826
0.00564796
0.00460514
0.00424036
0.00333795
0.00340354
0.00381138
0.00321696
0.00313827
0.00610981
0.0102823
0.00482284
0.00510266
0.00353349
0.00408234
0.00436253
0.00347153
0.00462054
0.00418693
0.0086054
0.0039355
0.00422818
0.00440635
0.0034666
0.00507756
0.0306706
0.00360111
0.00442368
0.00442787
0.00526899
0.004552
0.00428726
0.00426987
0.00343394
0.00422303
0.0043587
0.00422866
0.00458817
0.011227
0.00611697
0.0361711
0.00423367
0.0042578
0.00398931
0.00871387
0.0042952
0.0170209
0.00426471
0.00895163
0.0105524
0.00443479
0.00367741
0.00465855
0.00340753
0.0187504
0.00341646
0.0297169
0.00362978
0.00426564
0.004636
0.0037489
0.00320298
0.0044629
0.021243
0.00436965
0.00407612
0.00463213
0.00373366
0.00422276
0.00302258
0.00455172
0.00441309
0.00439858
0.00383861
0.00289956
0.00456379
0.00327685
0.00437188
0.00429517
0.00320075
0.00408217
0.0113796
0.0043858
0.00340399
0.00409277
0.00369385
0.00363124
0.00584359
0.0033712
0.0123596
0.00446974
0.003527
0.0044944
0.00432551
0.00709751
0.00524334
0.0034886
0.00342429
0.00427921
0.00423691
0.00412643
0.00262106
0.00458494
0.0213164
0.00504173
0.0328025
0.00416346
0.00396962
0.00896654
0.0108312
0.00439918
0.00350998
0.00400911
0.00400557
0.00452577
0.00349462
0.0196147
0.00454932
0.00890119
0.00346518
0.00437243
0.00878877
0.00438375
0.0043055
0.00422009
0.00333224
0.00428824
0.00321337
0.00456937
0.00341742
0.00425726
0.00339936
0.00370118
0.0199073
0.00352059
0.00428541
0.0163481
0.0147159
0.00446416
0.00327293
0.0038446
0.00364787
0.0051798
0.00409218
0.00473975
0.00375137
0.00343327
0.00499573
0.0042804
0.00436122
0.00441731
0.00625633
0.00377754
0.00469002
0.00448902
0.00453654
0.0415827
0.0204658
0.00363169
0.00457024
0.00352062
0.00470553
0.00455515
0.0045794
0.00462406
0.00448615
0.00435147
0.00311255
0.00546919
0.00928913
0.00310863
0.00455566
0.00442428
0.00450039
0.00375596
0.0302109
0.00459496
0.00410423
0.00355365
0.0162433
0.0169772
0.00453019
0.00391538
0.0041372
0.00442826
0.00447063
0.0118364
0.00421854
0.00455944
0.00439077
0.00441444
0.00399445
0.00389739
0.00455645
0.00409572
0.00528719
0.00499834
0.00455828
0.00315235
0.00454128
0.00286476
0.00386802
0.0046393
0.00427481
0.00563873
0.00292651
0.00354259
0.00460035
0.00422616
0.00433546
0.00432095
0.00458498
0.0100028
0.00341898
0.0085531
0.0138056
0.00531829
0.00454206
0.0469557
0.00466863
0.00426261
0.00435755
0.00449118
0.00441838
0.00442835
0.00380487
0.0207385
0.00308065
0.00441457
0.00461761
0.00442006
0.00468853
0.00431042
0.00437939
0.00445903
0.00449779
0.00455815
0.00428139
0.0486918
0.00438099
0.00425852
0.00523123
0.0194167
0.00426856
0.00450519
0.0128299
0.0456032
0.00427158
0.00449009
0.00319684
0.00419879
0.00464872
0.00454207
0.00430569
0.00400554
0.00984319
0.00459322
0.00953258
0.00336435
0.0106431
0.00345173
0.00457599
0.00350937
0.00564118
0.00444762
0.00439616
0.00434604
0.00460582
0.0039865
0.00986872
0.00419913
0.00476027
0.0269809
0.00355296
0.00393378
0.00628622
0.0046627
0.00455632
0.0030928
0.00331719
0.00351622
0.00440804
0.0262539
0.00427825
0.00334713
0.0043099
0.00313428
0.00313872
0.00387613
0.0034246
0.00420055
0.00452975
0.0508004
0.00409769
0.0177994
0.00444072
0.00326275
0.0043395
0.00421058
0.0282572
0.00438013
0.00460279
0.00350359
0.0092471
0.0223176
0.00347274
0.00326972
0.00348376
0.0164649
0.0356416
0.00452137
0.00441318
0.0227945
0.00439472
0.00546476
0.00449149
0.0112459
0.00344234
0.00451547
0.00460365
0.0034047
0.00464513
0.00441723
0.00360116
0.00589319
0.00425947
0.00445803
0.00428272
0.00458142
0.00458532
0.0050381
0.00430297
0.00417467
0.00896967
0.00269225
0.00426192
0.00460948
0.00511218
0.0034323
0.00459517
0.00465345
0.00408453
0.00421179
0.0565699
0.00396684
0.00345625
0.00409944
0.00433927
0.00290429
0.00385097
0.00425765
0.00571691
0.00455444
0.054763
0.00436253
0.02656
0.00455432
0.00446497
0.0127154
0.0550864
0.0033185
0.00314418
0.00467568
0.00314004
0.0354822
0.00456042
0.00402583
0.0119085
0.00323659
0.0290771
0.00355809
0.00446274
0.00432255
0.00434255
0.00429384
0.00611745
0.0033448
0.00495745
0.0613307
0.00459502
0.00292993
0.00418168
0.00502198
0.0109757
0.00369218
0.00438519
0.00407733
0.00322944
0.00454632
0.00466472
0.00467881
0.00822612
0.00414805
0.00460617
0.0037137
0.00615509
0.00328448
0.00452364
0.00859409
0.00410446
0.00407747
0.0038288
0.00455485
0.00429241
0.00445805
0.0134324
0.00435168
0.0122481
0.00399646
0.00382058
0.00450751
0.00417889
0.00450484
0.00437355
0.00592027
0.0151612
0.00724572
0.0580247
0.0105015
0.0339689
0.00417843
0.00437511
0.00588527
0.00462761
0.00323558
0.0202263
0.00427991
0.00525081
0.00389264
0.0288842
0.00422793
0.00319223
0.00455085
0.0537371
0.00469559
0.0348981
0.00411823
0.00446544
0.00537039
0.00839076
0.00424077
0.00463392
0.00445536
0.00427129
0.0167711
0.00558427
0.0261421
0.0033414
0.00582781
0.0155427
0.00413887
0.0046096
0.00367966
0.00437261
0.0034105
0.00334418
0.0104778
0.00390089
0.00280268
0.057319
0.00437009
0.00427924
0.00445296
0.00456921
0.00337714
0.00337618
0.00421024
0.00334643
0.0355088
0.00436772
0.0555974
0.00787107
0.00448668
0.00550437
0.00378504
0.00274094
0.00320766
0.00993191
0.00442123
0.00452953
0.0617634
0.00436755
0.00458595
0.00351046
0.00454386
0.00432279
0.0329941
0.00446552
0.039346
0.00396631
0.00398612
0.00428741
0.00430713
0.00853954
0.00350554
0.0138338
0.00444677
0.00333964
0.00372947
0.0034601
0.00353249
0.00527976
0.00397801
0.00424001
0.0240067
0.00723382
0.00406297
0.0043152
0.00343717
0.00380085
0.00431449
0.00389426
0.0574426
0.00426026
0.0046896
0.00450934
0.00406871
0.00332499
0.00324919
0.00341514
0.0648453
0.00474711
0.00587553
0.00555653
0.00457256
0.00428773
0.00424873
0.00426348
0.0896967
0.0043913
0.019848
0.0368111
0.00456096
0.00449495
0.00456103
0.0476885
0.0221342
0.0229316
0.00331141
0.00456401
0.00427172
0.00351189
0.0175986
0.00646621
0.00340216
0.00433341
0.00612916
0.0106204
0.00406131
0.00418217
0.0102022
0.0371227
0.00404919
0.00382544
0.00429558
0.00436772
0.0468656
0.00340079
0.00358942
0.00460038
0.00463238
0.004183
0.0533508
0.00798266
0.00321035
0.0229467
0.0061785
0.00437284
0.013767
0.0168863
0.00461996
0.00310662
0.00320741
0.00411979
0.0364531
0.00453675
0.00442171
0.00421954
0.00447739
0.00314807
0.0043544
0.00273341
0.00461317
0.00455779
0.0046882
0.00326342
0.00443116
0.00565957
0.00423257
0.00455983
0.0418862
0.0046625
0.00341305
0.0038087
0.00451366
0.00353301
0.00519873
0.00452154
0.00456239
0.00448132
0.0034541
0.00449729
0.00427367
0.00444168
0.00342899
0.00405565
0.00343943
0.00739399
0.00428493
0.017549
0.00421019
0.0046756
0.00431138
0.00458652
0.0031129
0.00413827
0.00324972
0.00412734
0.00418452
0.00450211
0.00496307
0.0101518
0.00546803
0.0130169
0.00468828
0.00343534
0.0252522
0.00324177
0.00309858
0.00439259
0.00548796
0.014552
0.00537761
0.00318683
0.0036407
0.00405457
0.00339083
0.00450491
0.0695721
0.00311236
0.0041353
0.00328993
0.00303849
0.00359973
0.00400792
0.0146432
0.00313746
0.0551965