/*--------------------------------*- C++ -*----------------------------------*\
| =========                 |                                                 |
| \\      /  F ield         | OpenFOAM: The Open Source CFD Toolbox           |
|  \\    /   O peration     | Version:  3.0.1                                 |
|   \\  /    A nd           | Web:      www.OpenFOAM.org                      |
|    \\/     M anipulation  |                                                 |
\*---------------------------------------------------------------------------*/
FoamFile
{
    version     2.0;
    format      ascii;
    class       volScalarField;
    location    "0";
    object      yPlus;
}
// * * * * * * * * * * * * * * * * * * * * * * * * * * * * * * * * * * * * * //

dimensions      [0 0 0 0 0 0 0];

internalField   uniform 0;

boundaryField
{
    FrontAndBack
    {
        type            empty;
    }
    patch1
    {
        type            calculated;
        value           nonuniform List<scalar> 
98
(
11.5132
10.7694
9.97438
9.65003
9.60161
9.70547
9.89842
10.1395
10.407
10.6756
10.9476
11.2144
11.4764
11.7313
11.9771
12.212
12.4333
12.6407
12.8347
13.0198
13.184
13.3314
13.4642
13.577
13.6738
13.7529
13.8105
13.8489
13.8674
13.8558
13.8121
13.7469
13.6556
13.5304
13.3705
13.1752
12.9396
12.6577
12.3316
11.9548
11.5245
11.0321
10.4784
9.85843
9.16848
8.40428
7.56457
6.66221
7.14749
9.97637
7.38247
5.99068
5.54286
5.56836
5.83357
6.24524
6.73667
7.26299
7.81084
8.36534
8.91309
9.44756
9.96367
10.4601
10.9323
11.3775
11.7938
12.1752
12.5211
12.8292
13.098
13.3253
13.512
13.6574
13.7557
13.806
13.8105
13.7642
13.6601
13.5009
13.2884
13.0195
12.6896
12.2997
11.8488
11.3333
10.7507
10.0965
9.37296
8.58279
7.72083
6.79023
5.78822
4.7212
3.59458
2.41962
1.23946
2.87781
)
;
    }
    patch2
    {
        type            calculated;
        value           nonuniform List<scalar> 
98
(
11.5055
10.7616
9.97314
9.64869
9.59934
9.70615
9.90077
10.1358
10.3999
10.668
10.944
11.2168
11.4769
11.7296
11.9758
12.212
12.4327
12.6432
12.8393
13.0215
13.1843
13.3317
13.4623
13.5783
13.6764
13.7561
13.8154
13.8537
13.8683
13.8537
13.8156
13.7519
13.6589
13.5332
13.3718
13.176
12.9426
12.6619
12.335
11.9615
11.5277
11.0336
10.4767
9.86137
9.17467
8.41277
7.57168
6.667
7.03824
9.96952
7.37499
5.98641
5.53751
5.56383
5.83407
6.24579
6.73141
7.26229
7.8052
8.36146
8.91067
9.44639
9.96556
10.4593
10.9314
11.3763
11.7877
12.1727
12.5215
12.8314
13.1016
13.3287
13.5131
13.6593
13.7574
13.8059
13.8089
13.7609
13.6591
13.4986
13.285
13.0164
12.6875
12.2999
11.8494
11.3332
10.7505
10.098
9.37601
8.58672
7.72075
6.78731
5.78709
4.71833
3.59255
2.41751
1.23556
2.6655
)
;
    }
    patch3
    {
        type            calculated;
        value           nonuniform List<scalar> 
98
(
11.5099
10.7637
9.96694
9.64608
9.60105
9.70088
9.8972
10.1358
10.3965
10.6656
10.9409
11.2111
11.4708
11.726
11.9712
12.206
12.4269
12.6347
12.8287
13.0144
13.1832
13.3322
13.4606
13.5748
13.6745
13.7563
13.8145
13.8552
13.8721
13.8578
13.8177
13.7559
13.6605
13.5348
13.3749
13.1767
12.9429
12.6637
12.3361
11.9605
11.5295
11.0386
10.4834
9.86894
9.18017
8.41506
7.57702
6.67343
6.95853
9.97347
7.37604
5.98352
5.53654
5.564
5.83383
6.24187
6.72911
7.26052
7.80765
8.36194
8.90783
9.4431
9.9586
10.4549
10.9308
11.3759
11.7894
12.1719
12.5194
12.8274
13.0961
13.3271
13.5141
13.6553
13.7534
13.806
13.81
13.764
13.6605
13.4986
13.285
13.0169
12.6887
12.3011
11.8486
11.3323
10.7466
10.0925
9.37279
8.583
7.71793
6.78651
5.78481
4.71841
3.58899
2.41522
1.23244
2.47308
)
;
    }
    Shaft
    {
        type            calculated;
        value           nonuniform List<scalar> 
68
(
0.682512
0.682291
0.68217
0.682343
0.682301
0.682218
0.68254
0.682627
0.682098
0.682151
0.682543
0.682349
0.682164
0.682343
0.682163
0.68195
0.68184
0.68184
0.68195
0.682163
0.682343
0.682164
0.682349
0.682543
0.682151
0.682098
0.682627
0.68254
0.682218
0.682301
0.682343
0.68217
0.682291
0.682512
0.682512
0.682291
0.68217
0.682343
0.682301
0.682218
0.68254
0.682627
0.682098
0.682151
0.682543
0.682349
0.682164
0.682343
0.682163
0.68195
0.68184
0.68184
0.68195
0.682163
0.682343
0.682164
0.682349
0.682543
0.682151
0.682098
0.682627
0.68254
0.682218
0.682301
0.682343
0.68217
0.682291
0.682512
)
;
    }
    Inlet
    {
        type            calculated;
        value           uniform 0;
    }
    Lat-Wall
    {
        type            calculated;
        value           nonuniform List<scalar> 
98
(
1273.75
294.535
309.651
277.004
237.157
597.433
593.139
908.157
638.576
947.69
1197.64
906.01
1090.71
595.107
1079.35
908.38
860.528
838.034
1069.6
826.585
1005.83
1177.38
1011.55
825.422
817.82
911.064
584.642
783.608
1093.35
592.782
1170.58
591.44
955.338
975.418
924.838
593.989
743.493
1015.31
901.627
521.764
1007.17
979.8
956.366
979.89
526.728
874.303
989.594
940.446
861.736
432.277
787.677
679.541
1003.46
528.606
436.346
850.69
860.752
503.026
700.65
693.986
984.675
861.96
912.987
951.492
440.729
761.515
962.225
643.183
482.096
823.007
844.742
752.75
656.51
836.692
603.828
726.007
787.23
928.326
630.795
589.562
394.353
559.822
708.163
457.634
571.181
556.513
742.196
457.321
523.777
733.341
777.526
491.398
458.752
523.553
505.754
577.755
669.881
534.957
)
;
    }
    Outlet
    {
        type            calculated;
        value           uniform 0;
    }
    AMI-St
    {
        type            cyclicAMI;
        value           uniform 0;
    }
    AMI-Rt
    {
        type            cyclicAMI;
        value           uniform 0;
    }
}


// ************************************************************************* //
