/*--------------------------------*- C++ -*----------------------------------*\
| =========                 |                                                 |
| \\      /  F ield         | OpenFOAM: The Open Source CFD Toolbox           |
|  \\    /   O peration     | Version:  3.0.1                                 |
|   \\  /    A nd           | Web:      www.OpenFOAM.org                      |
|    \\/     M anipulation  |                                                 |
\*---------------------------------------------------------------------------*/
FoamFile
{
    version     2.0;
    format      ascii;
    class       volScalarField;
    location    "0.350976";
    object      epsilon;
}
// * * * * * * * * * * * * * * * * * * * * * * * * * * * * * * * * * * * * * //

dimensions      [0 2 -3 0 0 0 0];

internalField   nonuniform List<scalar> 
21246
(
215.892
121.056
19.6521
4.5492
1.40213
0.718913
0.527304
0.460506
0.434373
0.423823
0.418944
340.74
248.331
31.7299
6.9647
1.79389
0.818689
0.545337
0.452608
0.413737
0.393697
0.379534
426.878
268.238
50.8638
9.7959
2.08812
0.920185
0.564509
0.446185
0.394942
0.36593
0.341713
456.837
253.243
59.2342
11.9123
2.26546
1.00229
0.57765
0.43989
0.378811
0.343247
0.312623
448.278
243.489
63.171
13.1704
2.42854
1.06001
0.584875
0.433827
0.365648
0.326212
0.293621
419.269
241.153
67.9836
15.2235
2.79809
1.10223
0.591357
0.429206
0.355445
0.313735
0.280958
376.075
243.228
74.5525
18.4307
3.61428
1.19903
0.602442
0.426956
0.348157
0.30472
0.271447
324.289
247.792
82.0791
22.4575
4.87132
1.40655
0.64107
0.430367
0.343744
0.298624
0.265511
272.242
253.52
91.0146
27.4539
6.68727
1.807
0.722521
0.444608
0.344299
0.295649
0.262098
224.312
259.281
102.89
34.1522
9.39374
2.55495
0.894772
0.480202
0.351082
0.295463
0.260854
180.632
265.729
117.268
42.5716
13.122
3.79116
1.22847
0.559245
0.369187
0.299062
0.261534
143.513
274.452
133.328
52.2653
17.7373
5.56645
1.79404
0.715092
0.409159
0.309108
0.264659
116.167
283.755
152.052
63.8593
23.4871
8.01748
2.69266
1.0021
0.492194
0.332198
0.271934
99.0851
291.273
174.216
78.4027
30.9018
11.391
4.07018
1.50412
0.657439
0.383044
0.288034
93.3674
301.118
199.775
95.9157
40.0388
15.7607
6.02147
2.30514
0.958137
0.487499
0.32316
100.198
311.033
228.99
117.682
51.7002
21.497
8.73756
3.52881
1.47398
0.689896
0.398183
116.595
313.678
259.475
145.332
67.4052
29.4066
12.6143
5.38821
2.33219
1.06601
0.55374
139.662
306.286
285.125
178.483
88.5084
40.4965
18.2289
8.21232
3.73087
1.73775
0.86245
162.067
287.163
296.723
213.649
116.284
56.4307
26.6863
12.6499
6.04822
2.93149
1.4618
182.87
260.575
287.355
241.267
149.536
79.0918
39.8551
19.9721
10.0655
5.11576
2.63312
200.112
225.057
254.833
247.678
181.83
109.576
60.6372
32.6443
17.4617
9.34696
5.02124
255.27
198.493
218.227
236.76
206.227
146.933
92.7057
55.0103
31.7055
18.0673
10.2221
286.203
168.345
170.675
181.07
176.43
152.749
116.885
81.1016
52.7969
33.2172
20.3102
570.251
628.272
477.325
391.725
305.896
226.537
160.128
109.53
73.6796
49.1595
32.1195
160.703
72.4595
15.8921
3.22569
1.13785
0.663551
0.520441
0.470111
0.453977
0.454024
0.463591
204.261
58.5491
10.2658
3.32749
1.278
0.717143
0.542985
0.482859
0.464785
0.466862
0.481451
245.084
73.9715
9.65326
3.80821
1.48622
0.816593
0.58621
0.503166
0.475951
0.475881
0.492732
257.304
72.403
9.2493
3.96786
1.49578
0.836326
0.584918
0.488642
0.454715
0.450293
0.465076
254.522
61.6307
8.89518
3.95456
1.50192
0.855135
0.584499
0.477765
0.435605
0.424693
0.432812
248.104
51.508
8.50417
3.76609
1.45467
0.850026
0.57533
0.465858
0.419313
0.403632
0.405359
241.517
43.9223
8.10699
3.52272
1.38875
0.831448
0.559949
0.452867
0.404896
0.386781
0.38408
234.118
38.3267
7.70644
3.28484
1.32763
0.807329
0.543319
0.440195
0.392584
0.374505
0.372071
228.917
34.2424
7.36975
3.09571
1.28662
0.783476
0.528674
0.428689
0.381665
0.364139
0.363099
226.717
31.4233
7.11901
2.95526
1.26527
0.765313
0.517492
0.418761
0.37156
0.353911
0.353793
228.167
29.6732
6.99414
2.87936
1.26262
0.756036
0.510549
0.410734
0.362106
0.343262
0.343216
232.116
28.607
6.95099
2.85609
1.27733
0.75593
0.508004
0.404805
0.353373
0.331991
0.330021
238.95
28.5518
7.01235
2.88642
1.31382
0.76657
0.51078
0.401479
0.345753
0.32045
0.314285
246.868
31.0267
7.55252
3.04298
1.40401
0.799512
0.524885
0.403334
0.340927
0.310199
0.299035
256.502
34.7176
8.55196
3.34738
1.5623
0.865157
0.556104
0.413785
0.340988
0.302937
0.285594
268.677
39.9741
10.1999
3.88668
1.82152
0.982993
0.614245
0.438771
0.349195
0.300806
0.275828
284.326
47.2098
12.795
4.82089
2.25326
1.19119
0.720184
0.490596
0.3727
0.308203
0.272734
305.328
56.692
16.6339
6.38287
2.98871
1.56353
0.917297
0.595626
0.42772
0.335179
0.282688
334.667
69.1973
22.2095
8.94395
4.27165
2.25083
1.30048
0.814435
0.553764
0.407606
0.322912
377.36
86.4292
30.419
13.131
6.55115
3.56186
2.08118
1.29228
0.851845
0.596578
0.444133
443.516
111.701
42.9799
20.0699
10.6578
6.11822
3.72486
2.37712
1.58386
1.10114
0.799805
556.766
151.793
63.4778
32.0581
18.2352
11.1763
7.22211
4.86202
3.39124
2.44618
1.82514
779.834
234.754
105.874
57.0308
34.3153
22.1964
15.1194
10.7308
7.89323
6.00098
4.70568
1428.6
417.449
214.274
132.556
90.2943
64.5833
48.0306
37.3095
29.9913
24.6803
20.3714
1208.31
551.797
207.915
94.9341
43.6456
19.1399
8.40497
4.12144
2.42506
1.74455
1.48151
1236.5
624.83
305.568
148.661
70.4398
30.5362
11.1844
4.73468
2.53152
1.76641
1.52271
871.625
522.227
322.825
182.013
95.9305
45.7142
18.5088
6.85659
2.81714
1.77946
1.51746
456.329
396.626
295.97
192.403
113.347
59.9634
27.4625
10.8753
4.01116
1.92619
1.46763
189.26
284.597
252.123
187.208
122.824
71.667
36.6755
16.2357
6.2811
2.53866
1.49554
82.7945
200.561
208.505
172.975
124.842
79.7551
45.0206
22.2292
9.52214
3.78489
1.76674
64.6679
138.27
169.23
153.639
120.251
83.2216
51.1839
27.8516
13.2626
5.62783
2.38682
53.2217
87.8032
132.575
131.995
110.738
81.9536
54.218
32.0634
16.7906
7.77643
3.32959
37.6736
49.3982
94.1209
108.215
97.8624
76.6994
53.9498
34.2399
19.4558
9.80873
4.43117
26.8922
29.7376
59.8164
83.3745
82.7733
68.5352
50.8397
34.2748
20.8737
11.3363
5.45341
20.3935
19.6551
35.8004
59.6165
66.5961
58.5494
45.6115
32.411
20.9321
12.1025
6.15837
15.7384
14.1778
22.563
39.0767
50.9755
47.922
39.1229
29.137
19.7725
12.0269
6.41166
12.2292
10.555
15.3122
25.192
36.4418
37.6624
32.2082
25.0486
17.72
11.2117
6.19713
9.38812
7.95689
10.6817
16.6416
24.6264
28.2267
25.4596
20.64
15.1257
9.86428
5.58937
7.30308
6.12317
7.63665
11.2213
16.3148
20.0315
19.2583
16.2759
12.3092
8.22795
4.76033
5.88714
4.89639
5.64071
7.72611
10.7818
13.5979
13.8932
12.282
9.60226
6.59183
3.90126
4.85581
4.07385
4.33902
5.47458
7.18344
8.99607
9.63676
8.98218
7.34268
5.24471
3.20096
4.24902
3.54142
3.50367
4.05233
4.93393
6.02371
6.73577
6.73767
5.90883
4.50753
2.90388
3.96302
3.22912
2.95743
3.18292
3.6712
4.4978
5.44263
6.04564
5.84791
4.85254
3.31849
4.20356
3.31768
2.70364
2.85958
3.3744
4.53976
6.28016
7.71666
8.12037
7.2577
5.27623
7.2478
4.08037
3.00227
3.32023
4.43835
7.37998
10.4647
12.2774
12.6152
11.9287
9.92957
12.2513
5.30681
3.93596
5.44781
9.12011
13.0312
14.4646
14.0027
12.8019
11.6108
10.4148
15.2963
8.29055
11.335
16.0083
18.7416
18.2551
16.1461
13.5035
11.1016
9.42247
8.4694
76.5287
48.4527
38.5847
30.6158
24.0532
18.5451
14.0632
10.7151
8.4955
7.23981
6.69947
1409.52
356.222
165.804
77.7936
35.9663
16.5615
7.85975
4.07068
2.43848
1.7313
1.42179
1151.55
302.385
145.963
76.7107
39.293
19.3868
9.41337
4.75118
2.68416
1.78553
1.39064
826.688
271.28
137.744
79.5664
45.1432
24.0708
12.066
5.9473
3.13182
1.91119
1.39088
515.984
195.238
110.337
74.6368
49.3937
29.6301
15.884
7.86511
3.90629
2.16007
1.43001
302.277
129.835
81.8199
61.7699
48.1767
34.645
21.3326
11.2603
5.45165
2.71925
1.58555
164.694
80.1154
57.4438
48.1654
42.3217
35.2527
25.6138
15.6962
8.30574
4.05176
2.02721
84.7334
46.7543
38.2334
35.8323
35.2894
33.0871
27.0085
18.333
10.464
5.32085
2.65029
43.8123
26.7411
24.7687
25.8423
28.3402
29.6431
26.9779
20.2214
12.5033
6.74006
3.49303
26.219
16.6412
16.7643
18.9313
22.4202
25.7345
25.8961
21.3616
14.3052
8.17937
4.3881
19.638
12.479
12.8269
14.9533
18.2476
22.0268
24.1
21.8319
15.7866
9.54008
5.32042
17.4767
11.2098
11.272
12.9884
15.6502
19.1039
21.9174
21.5438
16.9878
10.7622
6.24879
17.0859
11.1885
10.868
12.1031
14.0923
16.9416
19.8045
20.5568
17.4885
11.9371
7.12192
17.5162
11.6647
10.9248
11.6917
13.0804
15.271
17.8395
19.1815
17.3142
12.6196
7.98982
18.33
12.3337
11.1677
11.4774
12.3023
13.836
15.9478
17.5341
16.6296
12.8485
8.53403
19.4134
13.0758
11.5092
11.3623
11.6322
12.516
14.0888
15.6848
15.547
12.6794
8.79777
20.7928
13.8795
11.9378
11.3235
11.0471
11.3007
12.3003
13.7345
14.1769
12.182
8.86147
22.5883
14.7932
12.4951
11.4075
10.6023
10.2621
10.6933
11.8321
12.6314
11.4368
8.77814
25.1789
15.9346
13.3009
11.7368
10.4064
9.49793
9.38477
10.1347
11.0227
10.5023
8.52307
29.1843
17.5463
14.5263
12.4595
10.577
9.08962
8.44491
8.76129
9.5061
9.44218
8.20243
35.0286
19.8189
16.3125
13.707
11.2213
9.1028
7.90669
7.76957
8.2198
8.34064
7.62716
42.7133
22.9516
18.7903
15.571
12.3677
9.55062
7.77361
7.16954
7.26779
7.35005
6.97264
55.7808
27.6672
22.5529
17.9738
13.8023
10.2976
7.97857
6.91898
6.66351
6.60236
6.36222
72.5696
40.1707
27.4956
20.2727
15.0254
11.0934
8.41397
6.97465
6.39862
6.16992
5.99767
221.223
51.2567
31.8879
21.3238
15.8211
11.8998
9.08545
7.38428
6.51741
6.11729
5.97418
1990.72
665.75
278.6
112.012
40.3933
13.4996
4.39302
1.4225
0.466155
0.16066
0.0630837
1462.95
408.232
197.741
88.2989
35.2202
12.8697
4.42438
1.46113
0.475438
0.159886
0.0611576
892.115
318.333
164.504
82.3607
35.9967
13.949
4.96507
1.66137
0.536558
0.17681
0.06604
621.138
243.024
139.155
77.8645
37.26
15.3615
5.70938
1.97292
0.64875
0.212731
0.077496
453.251
181.864
106.639
64.7615
34.4782
15.6878
6.22924
2.22705
0.736989
0.234077
0.0805563
367.566
143.764
85.6704
53.1107
29.2373
13.9088
5.73821
2.11697
0.723751
0.240097
0.086499
311.739
118.721
71.1131
44.4148
24.7226
11.9627
5.07504
1.94379
0.692135
0.238242
0.0876618
272.151
100.823
60.2515
37.5967
21.0188
10.2728
4.44021
1.7488
0.644696
0.230741
0.0910173
243.487
87.5364
51.9733
32.3099
18.0644
8.8753
3.88733
1.56708
0.597344
0.222695
0.0912651
221.933
77.5692
45.6892
28.299
15.8082
7.78994
3.44437
1.41412
0.554186
0.213382
0.0886519
204.774
69.7985
40.8155
25.2241
14.0895
6.96126
3.10065
1.29111
0.516702
0.203434
0.0867111
191.694
63.5119
36.9099
22.791
12.747
6.32026
2.83504
1.19478
0.486332
0.195076
0.0844764
182.478
58.5326
33.8208
20.8981
11.7251
5.84242
2.63975
1.12454
0.464487
0.189365
0.083746
176.055
54.7983
31.471
19.5005
11.0015
5.51789
2.51213
1.08043
0.45168
0.186511
0.0843131
172.678
51.9106
29.6373
18.4563
10.5009
5.3158
2.44243
1.06051
0.448028
0.186918
0.0851565
172.48
49.8213
28.2837
17.7445
10.2178
5.23804
2.43375
1.06704
0.454831
0.190972
0.0872975
175.401
48.7672
27.4552
17.3972
10.1829
5.30792
2.49984
1.10647
0.474747
0.199507
0.0909463
182.639
49.1579
27.2699
17.4397
10.4462
5.58248
2.67739
1.19222
0.513141
0.21481
0.0973778
195.457
51.3405
27.8343
17.8859
11.0115
6.09969
3.02288
1.37739
0.598179
0.250378
0.111439
216.552
55.9432
29.4595
18.8874
11.9574
6.91813
3.59204
1.70268
0.759395
0.323634
0.141656
251.599
64.2159
32.6583
20.6939
13.4019
8.11666
4.46523
2.24608
1.0562
0.47182
0.209116
314.169
77.2557
38.0779
23.6133
15.4933
9.79512
5.75173
3.13033
1.59958
0.777129
0.366663
430.78
98.9269
46.6899
28.301
18.692
12.2774
7.71149
4.59198
2.604
1.41595
0.744903
677.447
104.031
53.1796
33.0428
23.2243
16.3798
11.2159
7.38825
4.68951
2.8799
1.72216
2064.95
1196.18
519.106
221.077
76.0035
23.2656
6.77653
1.98458
0.610827
0.199745
0.075212
2229.79
1300.74
731.815
374.034
169.171
63.8106
16.285
3.52202
0.98036
0.302012
0.105096
1320.25
1079.91
758.168
454.463
240.701
108.507
36.7597
8.13003
1.69098
0.48397
0.160738
552.726
1131.39
790.774
504.76
291.374
146.67
59.4724
17.161
3.44699
0.793778
0.260635
613.131
1002.68
799.869
538.359
328.233
177.636
80.9862
28.3832
7.11392
1.46718
0.412994
675.225
868.379
865.257
594.719
365.978
205.121
100.719
40.4223
12.3158
2.91265
0.720833
612.937
649.509
842.11
664.333
412.89
233.187
119.184
52.4032
18.5459
5.17104
1.34052
561.414
503.821
732.238
738.785
477.933
266.678
137.465
63.8129
25.1839
8.12088
2.31737
524.409
429.738
619.14
765.12
551.97
307.788
156.855
74.6219
31.7531
11.5264
3.67272
495.681
379.049
530.76
736.599
623.258
355.98
178.014
84.8942
37.9283
15.1253
5.36801
471.843
339.022
466.325
672.119
668.395
405.317
200.272
94.5685
43.5202
18.7002
7.3333
450.798
306.467
414.879
601.523
676.873
445.75
220.344
102.733
48.1899
22.0302
9.43127
436.104
279.169
369.577
533.654
651.346
469.153
234.424
108.326
51.6834
24.9791
11.5788
428.059
256.278
327.781
466.472
596.44
470.821
239.371
110.484
53.8871
27.5108
13.7942
430.423
240.567
290.498
398.642
524.392
449.563
232.691
108.618
54.8256
29.6809
16.1018
441.325
230.223
258.501
332.792
425.028
411.066
215.137
102.794
54.7634
31.7792
18.6014
458.656
222.244
227.389
271.634
324.228
338.474
196.621
95.1735
54.4907
34.213
21.5144
486.928
218.557
198.256
215.506
240.911
248.7
178.941
89.8517
55.4417
37.837
25.3781
537.122
223.882
175.655
169.969
177.478
182.423
158.062
95.1114
60.7595
44.4387
31.1553
634.976
247.547
167.151
141.425
137.713
143.668
141.514
112.017
73.9857
55.2306
39.498
857.592
320.212
201.734
156.89
138.986
135.991
133.473
120.426
87.5284
65.1693
46.385
1510.96
572.307
425.073
344.287
283.189
247.235
198.016
152.146
107.978
74.4425
48.8005
1095.41
582.145
579.46
416.717
303.663
217.651
149.921
100.644
65.7515
42.0064
26.1792
1134.35
604
350.501
217.054
139.438
90.8574
59.0316
37.8465
23.8006
14.6509
8.81233
79.0274
73.6771
64.6145
52.2573
34.5824
12.3094
2.76485
3.04209
3.64738
23.9434
22.9713
22.4439
21.9532
19.0165
11.8781
4.54668
1.98722
2.90805
12.4894
11.791
12.0048
13.4803
13.8533
10.2672
4.73992
2.15099
3.22994
7.11918
6.90363
7.09838
8.41938
9.76643
8.3359
4.53473
2.29304
3.58324
81.4556
78.9334
80.1233
75.943
68.0066
58.004
44.768
27.6753
7.51901
24.7141
25.8589
25.6506
24.6012
23.6174
23.3059
22.1577
18.674
11.1315
13.2265
14.0053
13.6136
12.496
12.247
13.206
14.8109
14.9431
10.8868
7.49129
8.06204
7.76445
7.00215
7.20474
7.99555
9.48997
10.915
9.56954
0.00901837
0.00829371
0.00834688
0.0441007
0.412232
0.00755352
0.142292
0.0080917
0.00752922
0.00694214
0.412212
0.00812888
0.00907759
0.00469204
0.0146148
0.00728393
0.00517113
0.0440112
0.00724762
0.00710189
0.00663102
0.0661438
0.00852213
0.0617974
0.00792318
0.004671
0.00888944
0.133963
1.28578
0.395549
0.00546952
0.0064264
0.00614308
0.00806651
0.00679273
0.00826373
0.0561393
0.00790683
0.00689406
0.00758187
0.206246
0.00809817
0.0392734
0.00849755
0.760075
0.25955
0.0128067
0.365527
0.00691434
0.00735444
0.387251
0.00759983
0.0722408
0.0404398
0.00733889
0.00665895
0.0629611
0.00761974
1.31358
0.0595458
0.100412
0.0674207
0.501959
0.0923583
0.224125
0.00714071
0.286983
0.00716678
0.00829606
0.00692837
0.0053388
0.00722166
0.0345467
0.00808119
0.162091
0.00714968
0.0749078
0.00828091
0.0686222
1.0962
0.0435268
0.0741889
0.00793256
0.00838101
0.00694393
0.0378548
2.2004
0.0527135
0.0242988
0.0305767
0.00809316
0.00765364
0.218977
0.00741858
1.03111
0.642904
0.127255
0.00588769
0.0290541
0.00741211
0.00781798
0.344208
0.00680418
0.00614783
0.0279754
0.00812312
0.00535862
0.00845318
0.00667835
0.00667705
0.00796727
0.00815024
0.00724168
0.0367101
0.0591606
0.00769142
0.00754129
0.00732113
0.0079274
0.00673535
0.0351553
0.00782441
0.00969834
0.00493701
0.242791
0.00678009
0.0289204
0.00556609
0.00514769
0.00568784
0.00778019
0.0608339
0.348222
0.0071604
0.00834126
0.00796765
0.0631264
0.041538
0.419341
0.0073149
0.0379196
0.00659289
0.304115
0.00868044
0.00751492
0.018103
0.0147806
0.00717627
0.00714657
0.00705924
0.00716167
0.00766362
0.0192598
0.00781544
0.039993
0.0205988
0.0485434
0.0447165
0.00604392
0.0074754
0.00546081
0.0346475
0.00721012
0.00772051
0.324147
0.0113516
0.0244547
0.00705594
0.0066686
0.21801
0.00526172
0.00638214
0.00803054
0.00644782
0.00641468
0.00640989
0.00628076
0.0212945
0.775764
0.0069551
0.00717194
0.0714193
0.00849691
0.0915695
0.00794224
0.0385103
0.00707178
0.0072704
0.00824861
0.12029
0.00664424
0.00481966
0.00718706
0.199922
0.00832384
0.00760897
0.00743998
0.0303796
0.00585493
0.00856745
0.0241283
0.007333
0.0070409
0.00575047
0.00838646
0.0505082
0.00738123
0.00512903
0.00740899
0.00740767
0.0294079
0.00759155
0.0082733
0.00672308
0.00791191
0.0942092
0.00797867
0.0158302
0.00714137
0.00835614
0.00912265
0.0401714
0.128912
0.0599357
0.00495478
0.00763581
0.0609728
0.009559
0.00620813
0.200357
0.0455541
0.0071344
0.0071335
0.0077829
0.0201188
1.81377
0.134586
0.00845027
0.00814641
0.0081033
0.01604
0.153878
0.0061165
0.171146
0.00812231
0.0380187
0.00800472
0.00623122
0.489835
0.0593843
0.00618241
0.0308292
0.00975131
0.00726752
0.0059948
0.00746992
0.00672475
0.00785934
0.0162469
0.00704647
0.00887412
0.00946804
0.00738173
0.00819843
0.00796094
0.0112814
0.0065866
0.0076898
0.0175722
0.00693581
0.172652
0.00730996
0.00730895
0.0120978
0.00756569
0.0073642
0.0049858
0.00776206
0.00690436
0.0308631
0.00732356
0.00828988
0.0450506
0.115904
0.00600621
0.00759286
1.42585
0.00824983
0.0068233
0.0370486
0.00835087
0.130806
0.00724069
0.00768087
0.00856478
0.00743653
0.00657623
0.00816409
0.00680035
0.00503401
0.0077564
0.0299558
0.00707681
0.406459
0.00676163
0.00667005
0.008284
0.0111859
0.0688976
0.00744112
0.0946928
0.00816922
0.00644447
0.00598909
0.0834951
0.00655055
0.00640155
0.0277004
0.00671104
0.00777549
0.00707068
0.0238877
0.0074633
0.0054185
0.0555263
0.00682315
0.00778202
0.00566834
0.00708976
0.0925068
0.00712286
0.513029
0.0703291
0.00846584
0.00986058
0.750415
0.0488651
0.00824152
0.00785047
0.00584015
0.0268586
0.0320242
0.00729581
0.0139775
0.154006
0.0114058
0.0420305
0.00753573
0.0566209
0.0360277
0.123483
0.00574609
0.00699964
0.00681768
0.0139341
0.00860274
0.00963904
0.0069561
0.00850169
0.0898991
0.00985198
0.0047527
0.00800502
0.00798792
0.00728933
0.0234887
0.00598988
0.0153531
0.159814
0.00825135
0.00773997
0.0887564
0.607274
0.00474522
0.012111
0.00832057
0.0090472
0.00674977
0.00752582
0.0070834
0.0546315
0.0075597
0.0197514
0.00765835
0.00478021
0.215398
0.0325622
0.00499602
0.163025
0.0276885
0.00769778
0.0604598
0.00524776
0.00799449
0.212042
0.230856
0.00787014
0.00720549
0.00836795
0.0450565
0.0159845
0.00764743
0.00850685
0.0366403
0.00665464
0.223079
0.0631657
0.00920019
0.00732498
0.0233941
0.00691731
0.00719924
0.00650031
0.00628967
0.0181747
0.0063832
0.00671346
0.00854109
0.00515592
0.0493886
0.237526
0.00659178
0.172065
0.00620616
0.00627704
0.00664348
0.00798538
0.0288414
0.0103774
0.230275
0.00789646
0.0193757
0.00493263
0.00663164
0.00699561
0.0133583
0.157998
0.406033
0.00493718
0.00860031
0.00594614
2.18846
0.0770623
0.0325517
0.00682001
0.0251438
0.0637226
0.0414593
0.00741887
0.0319165
0.00773715
0.00833601
0.00793897
0.0384072
0.0171982
0.177717
0.00522254
0.0260035
0.0266038
0.00825537
0.00740286
0.0302448
0.00522046
0.00596737
0.00688694
0.142523
0.114341
0.0902244
0.0916648
0.00714849
0.00656986
0.0329247
0.0069755
0.100262
0.00684785
0.00823807
0.0073435
0.0347648
0.0325673
0.00709855
0.00778244
0.00668082
0.156522
0.0724627
0.0084558
0.0162798
0.324742
0.00941185
0.016056
0.00740992
0.0272317
0.00760106
0.00684805
0.00762112
0.00535945
0.00706153
0.00715314
0.00540113
0.00853395
0.00766237
0.00553465
0.00562946
0.00807006
0.00806393
0.5509
0.0184793
0.0298842
0.00711799
0.31291
0.00835778
0.178272
0.0167844
0.0295312
0.0103101
0.0079523
0.17729
0.0336865
0.00536447
0.00778439
0.00633848
0.00667554
0.0082839
0.00769417
0.00818852
0.00676981
0.0553233
0.00799127
0.00745554
0.0667291
0.00772937
0.199543
0.0065804
0.00996458
0.00578914
0.0239946
0.00856459
0.00786451
0.00841739
0.193497
0.0337302
0.00795052
0.00791061
0.00493933
0.00835037
0.0581495
0.00831503
0.0683826
0.00680759
0.0487146
0.00721537
0.00805553
0.27967
0.186141
0.0067915
0.00657141
0.00710822
0.00831078
0.0131615
0.0397385
0.00721153
0.00592957
0.462604
0.949391
0.00791785
0.00735513
0.0082839
0.0658239
0.142779
0.0200641
0.00808597
0.00752034
0.109799
0.00726126
0.00675787
0.00526865
0.00977395
0.293952
0.00771097
0.0207694
0.00782127
0.033416
0.00738806
0.157293
0.00653681
0.00642763
0.0882708
0.0135998
0.00842562
0.00854817
0.995344
0.00763909
0.00615519
0.0440407
0.0395301
0.0742663
0.026766
0.00648821
0.00692547
0.00773085
0.00790578
0.533879
0.0108009
0.0122249
0.00711025
0.00794843
0.0520285
0.00701887
0.00765586
0.00685315
0.00713224
0.00640736
0.0112708
0.0398232
0.0180429
0.00619158
0.0104464
0.00724433
0.0351501
0.00711476
0.00778483
0.506242
0.0421351
0.00755243
0.00757632
0.0619083
0.00676292
0.00738401
0.0194316
0.008317
0.00674026
0.00772626
0.00748845
0.00827835
0.00477427
0.0060912
0.0471432
0.0160156
0.0327084
0.022956
0.00637468
0.0248374
0.0385924
0.00893499
0.00836459
0.00679106
0.0539845
0.00604885
0.00695265
0.00717618
0.00496205
0.0394628
0.468118
0.00609517
0.00870719
0.00769048
0.0126053
0.00811873
0.00723997
0.00692483
0.0110206
0.00703605
0.00712738
0.0068421
0.00826185
0.0737234
0.0560901
0.200804
0.00711112
0.00697377
0.00754799
0.0309439
0.00765027
0.166275
0.00721277
0.181861
0.0169598
0.00770731
0.0145784
0.00849798
0.00596767
0.0649637
0.00646615
0.445221
0.00553179
0.00665844
0.00841757
0.0134379
0.00522365
0.0391054
0.0303475
0.00750828
0.00640235
0.00840404
0.0078399
0.00690267
0.0149532
0.00813523
0.0076159
0.00762281
0.00896666
0.0263968
0.00816113
0.00814071
0.00751077
0.00894712
0.00605487
0.00647193
0.0498167
0.147523
0.0079934
0.00630723
0.00574656
0.00708876
0.0241172
0.00568658
0.153124
0.00783827
0.00558097
0.00790795
0.00709498
0.0879019
0.00860108
0.0287347
0.00468536
0.00727131
0.00673356
0.00670878
0.0180777
0.00823681
0.0438638
0.0361483
0.0693224
0.0066277
0.010251
0.0387643
0.0771267
0.00768689
0.00706774
0.0309507
0.0275103
0.00802964
0.0047708
0.451712
0.00811511
0.189926
0.00966018
0.00838828
0.177798
0.00754678
0.00685708
0.00680939
0.00816519
0.00734714
0.00480577
0.00819271
0.00597995
0.0071441
0.00747733
0.0188589
0.0402405
0.00644152
0.00723036
0.137129
0.258658
0.00782087
0.00466086
0.0070959
0.0307035
0.00970829
0.046102
0.0071008
0.0574977
0.00722736
0.00871981
0.00721106
0.00691612
0.00765676
0.0499888
0.0544198
0.00860626
0.00789034
0.00740268
0.351863
0.0281673
0.00644913
0.00820407
0.00570135
0.00748297
0.00813803
0.00821585
0.00838077
0.00787544
0.00774828
0.00606476
0.0569268
0.0726084
0.00559669
0.00721489
0.0077064
0.00793105
0.00670459
0.0848335
0.0082761
0.00628885
0.00778629
0.296991
0.0418511
0.0396579
0.00778946
0.0533735
0.00771861
0.00781625
0.232133
0.00714943
0.00816498
0.00721878
0.00871444
0.00600276
0.00591285
0.00813915
0.0107391
0.179007
0.0318187
0.00815966
0.00506559
0.0310794
0.0256713
0.0588605
0.00843022
0.00718826
0.0456962
0.0101351
0.0281464
0.00829316
0.0068475
0.00819433
0.00737186
0.00825563
0.103549
0.00634071
0.187331
0.24294
0.0369467
0.00810344
0.468732
0.00853298
0.00720105
0.00967658
0.00789424
0.00766033
0.00766371
0.0251946
0.0751105
0.0204534
0.00765029
0.0463577
0.00768921
0.00859792
0.007364
0.00756288
0.00720614
0.00792651
0.00814942
0.00731145
1.85923
0.0075439
0.00712704
0.00797178
0.19984
0.00712108
0.00796583
0.0494314
1.6977
0.0069543
0.00765081
0.00829176
0.0547962
0.00846856
0.00808521
0.00681267
0.00860408
0.0267186
0.00828366
0.065289
0.0076795
0.01638
0.00672016
0.00821448
0.00519931
0.0288529
0.00774898
0.00773657
0.00715425
0.00831743
0.00585435
0.214489
0.00661222
0.016136
0.0544672
0.031663
0.00602212
0.0507911
0.00851232
0.008144
0.00550819
0.00725859
0.00512627
0.00760216
0.231625
0.00724951
0.00815931
0.00730911
0.00477681
0.00619111
0.0319723
0.00595591
0.00694002
0.00804211
0.129369
0.065259
0.0293278
0.00659831
0.00745985
0.0069325
0.00776886
0.0489749
0.00753805
0.00830509
0.00609411
0.22249
0.0869994
0.0378557
0.00528666
0.00473641
0.0915109
0.613526
0.00801516
0.00701996
0.0361056
0.00760602
0.0204428
0.00792003
0.0231718
0.00677074
0.00897731
0.00830388
0.00768721
0.00845358
0.00763101
0.00675465
0.0399656
0.0071022
0.0078062
0.00730156
0.0094666
0.00857893
0.046134
0.00748823
0.00687357
0.223905
0.0149274
0.0474595
0.00832533
0.00987259
0.00629782
0.00829046
0.0273679
0.00645973
0.0419719
0.261423
0.006075
0.0111566
0.00653121
0.00741791
0.0121362
0.00782777
0.00699507
0.0109065
0.0081335
1.699
0.00863827
0.671382
0.00812847
0.0210751
0.051149
0.348697
0.00814025
0.00620697
0.00855555
0.00507003
0.174386
0.00815712
0.00890778
0.120839
0.0166747
0.0870485
0.00656101
0.00778164
0.00736158
0.0487435
0.00684382
0.212463
0.00961533
0.00974809
0.163172
0.00829043
0.0114568
0.0349404
0.0294257
0.0221078
0.0255484
0.00758016
0.0116699
0.00477372
0.0080994
0.0078234
0.00856466
0.155823
0.00659628
0.00832793
0.00545239
0.0330646
0.00465963
0.00802167
0.111952
0.0140336
0.0068888
0.00891513
0.00813719
0.00707974
0.00732734
0.221453
0.00700686
0.0572524
0.00614037
0.0288128
0.00796271
0.00694542
0.00795988
0.00753437
0.0283381
0.190335
0.0343887
0.718666
0.227565
0.633946
0.00687589
0.00728162
0.0294982
0.00838879
0.0061009
0.0775341
0.00689638
0.109439
0.00595706
0.208484
0.00682994
0.00501858
0.00811816
0.131094
0.00862585
0.523295
0.00646399
0.00828937
0.0520346
0.0282222
0.00676398
0.0180174
0.0318896
0.0611255
0.0435052
0.0199261
0.305081
0.0056552
0.0321189
0.265009
0.0114544
0.00833214
0.00573606
0.0080232
0.00501859
0.0052936
0.0312917
0.00772911
0.0121167
0.720165
0.00752695
0.00718945
0.00690952
0.00819169
0.00807912
0.0054531
0.00702021
0.0056449
0.348037
0.00713096
0.610602
0.0828219
0.00762117
0.159176
0.0493324
0.0120763
0.00767474
0.0156549
0.0076891
0.0080376
0.178927
0.00752101
0.00824567
0.00537449
0.008097
0.00764403
0.196157
0.00784614
0.588325
0.0141205
0.0508536
0.00722907
0.0125632
0.0402385
0.00518205
0.251626
0.00776507
0.00962463
0.05303
0.00597027
0.0133926
0.0304129
0.00773769
0.00747191
0.106603
0.012816
0.00644391
0.00733473
0.019632
0.00693363
0.0147635
0.0305174
0.249206
0.00711924
0.00860298
0.00796842
0.00620948
0.00711911
0.00468492
0.0369398
1.30209
0.00809449
0.023995
0.0280449
0.00820723
0.0309703
0.00709204
0.006954
1.12894
0.0431504
0.332385
0.224567
0.00816141
0.00792928
0.0221252
0.27018
0.032134
0.271135
0.00494186
0.00817634
0.0071695
0.00521298
0.0242557
0.0481056
0.00675826
0.00739741
0.0274119
0.0526913
0.0304118
0.00677366
0.0705086
0.328784
0.00638152
0.00554575
0.00727257
0.00718382
0.264124
0.00486085
0.00681705
0.0151235
0.00774977
0.00635512
0.399245
0.0445653
0.00797151
0.0865492
0.00804917
0.00751666
0.209642
0.0596986
0.0083615
0.00523018
0.0196461
0.00660918
0.0478887
0.00806538
0.00768983
0.00704251
0.159964
0.00714221
0.00745968
0.0327189
0.00833782
0.00814773
0.00859551
0.00497396
0.00770582
0.0132437
0.0176663
0.00814563
0.429989
0.0420969
0.00593489
0.0278797
0.0073748
0.00504839
0.0323022
0.00802108
0.00816469
0.00788319
0.00617731
0.00793579
0.00718382
0.00788979
0.0508604
0.0428972
0.00528263
0.0276885
0.00690627
0.0585546
0.0176284
0.0085554
0.00665214
0.015895
0.00516067
0.0067472
0.0061175
0.00665793
0.00684501
0.00795065
0.037516
0.0163126
0.0240691
0.0443905
0.00859361
0.011014
0.0366929
0.0134236
0.00975196
0.00760028
0.0336966
0.0864476
0.163253
0.00499944
0.00682011
0.0277811
0.00570974
0.00795382
0.942533
0.0056102
0.0067394
0.0169486
0.0166106
0.00585096
0.0279555
0.0467215
0.00506127
0.62047
0.45093
0.00789854
0.00715596
0.0635467
0.184724
0.0104501
0.00811512
0.0068198
0.00839071
0.00751461
0.0809339
0.0076181
0.00846313
0.150193
0.0350768
0.00733347
0.00770384
0.0075732
0.00672186
0.00858116
0.00726912
0.00857205
0.00703344
0.008793
0.00803825
0.018617
0.00818892
0.0570284
0.00770315
0.0209458
0.00838802
0.00788461
0.0699748
0.212497
0.00705184
0.00780569
0.00622759
0.00744787
0.00826499
0.00870407
0.00641384
0.00742104
0.00619275
0.00748448
0.0271914
0.00508604
0.0467888
0.00848509
0.0521941
0.00788625
0.00668925
0.00890744
0.00832024
0.00801904
0.219989
0.00759877
0.0436195
0.00790049
0.00799703
0.422772
0.00845225
0.00855347
0.113475
0.106751
0.0297071
0.00756089
0.0199007
0.00788879
0.0994467
0.00614477
0.106021
0.0073885
0.0059208
0.0231201
0.00763433
0.0321275
0.00699057
0.0153481
0.0176108
0.00819887
0.0128192
0.00766499
0.155371
0.0146833
0.0046995
0.0347101
0.00642261
0.00594362
0.00840157
0.0104284
0.0251498
0.00752612
0.00811352
0.0442578
0.00682455
0.00681426
0.00690421
0.00520283
0.00789562
0.0201069
0.0256703
0.0070592
0.0182159
0.0079807
0.00691842
0.00701128
1.12072
0.00736271
0.00746599
0.0224024
0.0321516
0.00820807
0.00706119
0.0289718
0.0105661
0.0066082
0.00727332
0.00674417
0.0325419
0.00754571
0.00693338
0.0876518
0.00714802
0.00830178
0.00732072
0.00693456
0.00797653
0.0139005
0.00764423
0.037331
0.00542061
0.0134115
0.00813123
0.00485128
0.0274647
0.00690886
0.00715598
0.00765693
0.00734575
0.0386691
0.0136588
0.00487434
0.00845754
0.00742355
0.254781
0.00755144
0.00695714
1.73921
0.00673229
0.00708695
0.00695821
0.00696888
0.00646145
0.00629637
0.010847
0.00503102
0.0284598
0.00708271
0.00759083
0.0125285
0.00521458
0.00748367
0.00644941
0.00561097
0.00730829
0.050687
0.00855769
0.0155688
0.00748923
0.00689266
0.00623939
0.00590026
0.0129829
0.00795506
0.00721325
0.00672895
0.00756684
0.00837727
0.0434135
0.0412669
0.059019
0.0098112
0.0452209
0.00673387
0.00756789
0.00746706
0.333896
0.00725988
0.00569566
0.381992
0.00686666
0.081114
0.124547
0.00684683
0.00810014
0.00713165
0.00526794
0.00497455
0.00681604
0.00831799
0.00782356
0.0342598
0.00505934
0.0343044
0.00780784
0.0342155
0.0119535
0.954368
0.00886101
0.00922489
0.00502901
0.008286
0.00689679
0.0182397
0.0079024
0.011179
0.00496852
0.0111701
0.00525659
0.0291547
0.0137765
0.0243603
0.0907308
0.00780276
0.18673
0.00826365
0.00646877
0.00599856
0.029762
0.00840451
0.521176
0.00781338
0.025052
0.343877
0.005015
0.0730447
0.0591206
0.0378934
0.00739847
0.00790671
0.00741609
0.00726469
0.00766011
0.00620357
0.00699308
0.0213991
0.00778243
0.11106
0.0115765