/*--------------------------------*- C++ -*----------------------------------*\
| =========                 |                                                 |
| \\      /  F ield         | OpenFOAM: The Open Source CFD Toolbox           |
|  \\    /   O peration     | Version:  3.0.1                                 |
|   \\  /    A nd           | Web:      www.OpenFOAM.org                      |
|    \\/     M anipulation  |                                                 |
\*---------------------------------------------------------------------------*/
FoamFile
{
    version     2.0;
    format      ascii;
    class       volScalarField;
    location    "0.604451";
    object      p;
}
// * * * * * * * * * * * * * * * * * * * * * * * * * * * * * * * * * * * * * //

dimensions      [0 2 -2 0 0 0 0];

internalField   nonuniform List<scalar> 
21246
(
23.5747
19.9893
16.5409
13.5722
11.0852
9.07176
7.4751
6.21877
5.1829
4.36338
3.79628
12.2992
15.2652
14.9522
13.7095
11.7972
9.91978
8.1939
6.70795
5.51812
4.59564
3.95886
-0.577723
5.98788
7.93198
9.51584
9.47507
8.77947
7.69374
6.53979
5.47967
4.60138
3.97436
-7.224
-1.34316
0.546838
3.89685
5.38071
6.15387
6.09907
5.61931
4.95485
4.29266
3.7547
-9.45061
-5.25818
-4.37843
-0.534524
1.21316
2.97496
3.82931
4.10944
3.98809
3.68317
3.38161
-9.95143
-6.78395
-6.73781
-3.31738
-1.7793
0.267423
1.56647
2.40123
2.77464
2.85025
2.81131
-9.54353
-7.27136
-7.25431
-4.77448
-3.4936
-1.5874
-0.220971
0.880799
1.57953
1.96703
2.17322
-8.48854
-7.17885
-6.88073
-5.22959
-4.23427
-2.6218
-1.38795
-0.240952
0.598326
1.17213
1.56009
-7.45152
-6.59485
-6.30873
-5.07649
-4.33565
-3.02241
-1.99122
-0.922663
-0.076321
0.579404
1.06962
-6.68365
-5.92216
-5.65487
-4.64365
-4.08085
-3.00187
-2.17
-1.22663
-0.449604
0.208358
0.739746
-5.70719
-5.09086
-4.87431
-4.03845
-3.61493
-2.71612
-2.06011
-1.24731
-0.573992
0.0324223
0.53957
-4.4232
-4.04041
-3.93973
-3.29165
-2.99838
-2.25488
-1.75556
-1.06508
-0.506454
0.0289546
0.476681
-3.39312
-3.08671
-3.02435
-2.50122
-2.30421
-1.69004
-1.32368
-0.741571
-0.298631
0.157237
0.538712
-2.64668
-2.30344
-2.21492
-1.7522
-1.6069
-1.08573
-0.825891
-0.32726
0.00443494
0.373515
0.668997
-1.7159
-1.45412
-1.41535
-1.02443
-0.922971
-0.475657
-0.315071
0.149544
0.364971
0.645925
0.85564
-0.920902
-0.69052
-0.669141
-0.323429
-0.25458
0.138764
0.273095
0.586286
0.751019
0.948291
1.07712
-0.336365
-0.0620886
-0.0065691
0.329469
0.399832
0.716912
0.839098
1.05881
1.15418
1.26164
1.30535
0.326009
0.592927
0.647225
0.95296
1.04515
1.30159
1.39597
1.53664
1.55654
1.56844
1.52631
0.976632
1.23417
1.28805
1.56765
1.68938
1.89762
1.95508
2.00655
1.94094
1.8522
1.72422
1.58302
1.84179
1.91091
2.20102
2.33861
2.49894
2.50601
2.45246
2.28766
2.09614
1.88664
2.19644
2.47326
2.56032
2.89005
3.02138
3.10812
3.0283
2.84557
2.56995
2.28207
2.00333
2.92693
3.18736
3.3269
3.6993
3.7619
3.70461
3.47478
3.13789
2.75322
2.39209
2.06962
3.3446
4.0531
4.33789
4.65541
4.51761
4.21328
3.77671
3.28718
2.82291
2.43425
2.1495
5.51647
5.71736
5.77696
5.59291
5.05129
4.39619
3.73286
3.13768
2.65868
2.29528
2.04295
18.0051
16.7914
14.6182
12.3987
10.2832
8.45961
6.96109
5.75432
4.78408
4.02869
3.50152
-0.107683
7.31178
9.1232
9.64355
8.87508
7.64171
6.36966
5.25511
4.33765
3.631
3.15265
-13.8755
-4.25694
-0.623719
3.10885
4.78353
5.2421
4.81595
4.21087
3.57077
3.03133
2.65852
-19.9283
-12.4045
-9.38643
-4.20229
-0.914625
1.24723
2.20324
2.42033
2.32036
2.11216
1.97198
-21.1574
-16.2086
-14.4818
-9.60087
-6.09564
-3.02057
-0.964134
0.117524
0.702192
0.9529
1.11012
-20.5537
-17.1786
-16.3851
-12.4813
-9.5884
-6.4226
-3.94393
-2.17317
-1.02886
-0.322886
0.160814
-19.4715
-16.9413
-16.5925
-13.5186
-11.4007
-8.5512
-6.14273
-4.10653
-2.61191
-1.5449
-0.796675
-18.1893
-16.2348
-16.1077
-13.5424
-12.0809
-9.59096
-7.49075
-5.4644
-3.84743
-2.55686
-1.60474
-17.0499
-15.3938
-15.4078
-13.0772
-12.1449
-9.8771
-8.16521
-6.23526
-4.66354
-3.27779
-2.21535
-16.1142
-14.5737
-14.6479
-12.4031
-11.8814
-9.69772
-8.36794
-6.5558
-5.07987
-3.69841
-2.65249
-15.2314
-13.9507
-13.713
-11.816
-11.2917
-9.2858
-8.21929
-6.52385
-5.1784
-3.85728
-2.81375
-14.1379
-13.1435
-12.6522
-11.2093
-10.4674
-8.77688
-7.78144
-6.22934
-5.0157
-3.77773
-2.78919
-13.1141
-12.1738
-11.6394
-10.3706
-9.58359
-8.11447
-7.1478
-5.74382
-4.64777
-3.51823
-2.6258
-12.1761
-11.1867
-10.6272
-9.42483
-8.64708
-7.3063
-6.37549
-5.10968
-4.12219
-3.12162
-2.30907
-11.0487
-10.0853
-9.54527
-8.40485
-7.62977
-6.40212
-5.48396
-4.35566
-3.47374
-2.61315
-1.89693
-9.89529
-8.93108
-8.39749
-7.30577
-6.52183
-5.38728
-4.49686
-3.50159
-2.72957
-2.02229
-1.44936
-8.75017
-7.74885
-7.19109
-6.12903
-5.32031
-4.26122
-3.4167
-2.55879
-1.91251
-1.37186
-0.960971
-7.51632
-6.48155
-5.89307
-4.8558
-4.01443
-3.02317
-2.24577
-1.54036
-1.04544
-0.682669
-0.428004
-6.17064
-5.1005
-4.47227
-3.4572
-2.58681
-1.66656
-0.993208
-0.470241
-0.160725
0.00891496
0.0920162
-4.69661
-3.57333
-2.88927
-1.89306
-1.00539
-0.212248
0.309934
0.60683
0.695636
0.666653
0.588896
-3.02868
-1.82232
-1.07619
-0.120524
0.714098
1.32204
1.60121
1.61859
1.46765
1.25199
1.03136
-1.13191
0.224473
1.02938
1.87671
2.5223
2.80321
2.732
2.44124
2.07338
1.71729
1.4106
1.11802
2.61341
3.45946
4.03203
4.26335
4.08628
3.6217
3.06835
2.54803
2.10473
1.74831
3.00739
4.99948
5.58612
5.45958
5.0478
4.43484
3.71289
3.0586
2.5296
2.13172
1.91538
-0.83137
1.87084
2.57844
2.57665
2.29129
1.93421
1.59015
1.27698
0.993907
0.751375
0.599612
-15.4568
-7.47062
-4.17782
-1.93819
-0.585685
0.0534307
0.299037
0.347715
0.302086
0.221887
0.168813
-17.3763
-12.3231
-9.81651
-6.76423
-4.22996
-2.51477
-1.46432
-0.873612
-0.563175
-0.402974
-0.294542
-14.4318
-12.7292
-11.6999
-9.33044
-6.93209
-4.88183
-3.30738
-2.23033
-1.54262
-1.11186
-0.824153
-11.2472
-10.9724
-10.7995
-9.52272
-7.93632
-6.23138
-4.65537
-3.38682
-2.45641
-1.80536
-1.33162
-8.99775
-9.05638
-9.1026
-8.51613
-7.65119
-6.50163
-5.25332
-4.09403
-3.12613
-2.37417
-1.78813
-7.30648
-7.46378
-7.51986
-7.25436
-6.8094
-6.10552
-5.23474
-4.32364
-3.47173
-2.74171
-2.12506
-6.0039
-6.13914
-6.17881
-6.07418
-5.8564
-5.4434
-4.87197
-4.20963
-3.5279
-2.89612
-2.31578
-5.10576
-5.11737
-5.12462
-5.088
-4.98448
-4.74571
-4.37972
-3.91538
-3.39469
-2.87648
-2.36819
-4.54277
-4.43419
-4.40398
-4.36526
-4.29104
-4.13522
-3.89035
-3.56208
-3.16929
-2.7544
-2.3191
-4.21584
-4.00304
-3.94996
-3.87127
-3.7819
-3.65207
-3.46618
-3.21922
-2.91605
-2.58505
-2.22707
-4.03009
-3.76056
-3.64714
-3.52522
-3.40928
-3.27904
-3.11674
-2.91355
-2.66717
-2.3949
-2.09619
-3.89604
-3.6012
-3.44967
-3.28714
-3.13954
-2.99577
-2.83755
-2.65354
-2.43793
-2.20055
-1.93912
-3.77187
-3.47285
-3.30249
-3.11914
-2.9485
-2.7895
-2.62541
-2.44362
-2.23789
-2.01547
-1.78036
-3.66871
-3.37385
-3.19461
-2.99982
-2.81381
-2.64246
-2.46929
-2.2799
-2.06856
-1.84363
-1.61608
-3.60301
-3.31779
-3.13834
-2.94116
-2.74505
-2.56069
-2.37138
-2.16247
-1.92928
-1.68409
-1.44556
-3.57426
-3.30276
-3.12906
-2.93806
-2.74016
-2.54223
-2.33079
-2.08904
-1.81705
-1.53414
-1.26243
-3.57284
-3.31862
-3.15447
-2.97312
-2.77757
-2.56821
-2.32798
-2.04251
-1.72087
-1.39399
-1.09543
-3.59013
-3.35724
-3.20638
-3.03736
-2.84404
-2.61801
-2.33915
-2.00081
-1.62616
-1.25916
-0.939125
-3.6162
-3.40764
-3.27506
-3.1186
-2.92176
-2.66808
-2.33777
-1.94072
-1.52137
-1.13183
-0.799422
-3.62439
-3.45276
-3.34647
-3.20312
-2.99434
-2.69813
-2.30846
-1.85612
-1.40933
-1.02556
-0.706692
-3.55656
-3.48509
-3.42415
-3.28101
-3.03938
-2.69796
-2.26152
-1.76684
-1.31255
-0.966276
-0.735387
-3.63563
-3.67933
-3.59478
-3.3989
-3.1251
-2.76804
-2.31927
-1.81421
-1.33842
-0.98952
-0.762725
-4.03374
-3.62119
-3.3411
-3.11078
-2.83655
-2.46154
-1.9704
-1.45116
-1.0721
-0.947964
-1.01861
15.0451
10.7123
7.65807
5.66126
4.29349
3.33451
2.62312
2.05974
1.59557
1.22121
0.965422
12.1021
11.8601
10.2093
8.23626
6.4123
4.931
3.78383
2.89345
2.19485
1.65439
1.30171
7.82331
9.08811
9.087
8.40927
7.18346
5.78802
4.51209
3.46614
2.63392
1.98476
1.54063
3.98203
5.97626
6.65377
6.9016
6.5193
5.70968
4.72822
3.75323
2.89183
2.19052
1.71306
1.24362
3.1603
3.9883
4.77367
5.09706
4.91865
4.37503
3.63529
2.89073
2.23938
1.79062
-0.576021
1.03265
1.73205
2.67046
3.29364
3.58297
3.5042
3.12128
2.61089
2.09406
1.71991
-1.77006
-0.445495
0.0666583
0.97848
1.67418
2.1679
2.39192
2.33044
2.07967
1.74374
1.48158
-2.5241
-1.44161
-1.11207
-0.27787
0.364406
0.922043
1.29347
1.45533
1.4212
1.26436
1.11093
-3.11017
-2.14828
-1.98587
-1.18724
-0.657563
-0.0951967
0.337177
0.621835
0.742962
0.741567
0.709943
-3.62417
-2.75664
-2.61784
-1.92211
-1.43594
-0.906487
-0.458228
-0.112396
0.109959
0.22262
0.286206
-4.01908
-3.37131
-3.08964
-2.51386
-2.05594
-1.55367
-1.1073
-0.729571
-0.445935
-0.257658
-0.120866
-4.2957
-3.75837
-3.48003
-2.9712
-2.54293
-2.0676
-1.63022
-1.23753
-0.914459
-0.670592
-0.482973
-4.5414
-4.04286
-3.78503
-3.32044
-2.91785
-2.46779
-2.04259
-1.64511
-1.29856
-1.01276
-0.766548
-4.7773
-4.27706
-4.02309
-3.58518
-3.20093
-2.77169
-2.35875
-1.96291
-1.60545
-1.29996
-1.02561
-4.87175
-4.41552
-4.18575
-3.77507
-3.4068
-2.99514
-2.59318
-2.20221
-1.84126
-1.52617
-1.24117
-4.9276
-4.50344
-4.2891
-3.90197
-3.54582
-3.14906
-2.75594
-2.37049
-2.01043
-1.69145
-1.40657
-4.97248
-4.56168
-4.34826
-3.97702
-3.62638
-3.23999
-2.85297
-2.47296
-2.11724
-1.80022
-1.52525
-4.96182
-4.56967
-4.35746
-4.00044
-3.65085
-3.27044
-2.88706
-2.5125
-2.16445
-1.85688
-1.59417
-4.9008
-4.52784
-4.31487
-3.96985
-3.61779
-3.23977
-2.85884
-2.49038
-2.15285
-1.8615
-1.62229
-4.80006
-4.44137
-4.22081
-3.88252
-3.52434
-3.14651
-2.76885
-2.40805
-2.08296
-1.81118
-1.5953
-4.65307
-4.30194
-4.06599
-3.72974
-3.3659
-2.99124
-2.62113
-2.26987
-1.9577
-1.70817
-1.52743
-4.43282
-4.08433
-3.82406
-3.49154
-3.13481
-2.77589
-2.42043
-2.07834
-1.77582
-1.54605
-1.40688
-4.1896
-3.79131
-3.50935
-3.21001
-2.89271
-2.56661
-2.22528
-1.88121
-1.57527
-1.34761
-1.22672
-3.44901
-3.12122
-2.89798
-2.69177
-2.46183
-2.18946
-1.86827
-1.53842
-1.25804
-1.03824
-0.955275
1.27793
1.07749
1.00284
0.979759
0.973435
0.974748
0.966931
0.942147
0.903838
0.864311
0.858716
2.33484
2.05735
1.77253
1.58111
1.4537
1.3607
1.28328
1.20919
1.13352
1.06487
1.03082
2.16729
2.16992
2.04847
1.90871
1.77703
1.65482
1.5405
1.42976
1.32247
1.23091
1.18513
1.82824
1.94473
1.96659
1.93406
1.86794
1.78183
1.6821
1.5776
1.47628
1.38618
1.32426
1.56641
1.72744
1.7943
1.83149
1.84095
1.82089
1.7714
1.6992
1.60899
1.51446
1.44427
1.3655
1.54513
1.62895
1.71155
1.77321
1.80228
1.79538
1.75311
1.68133
1.59365
1.52197
1.18528
1.38201
1.44749
1.55131
1.64364
1.71021
1.7419
1.73482
1.69112
1.62267
1.55996
1.06864
1.21342
1.2953
1.39959
1.50112
1.58739
1.64598
1.66877
1.65367
1.61042
1.57366
0.970298
1.09746
1.17611
1.27246
1.37227
1.46429
1.53665
1.57936
1.58688
1.56571
1.54788
0.88092
1.00428
1.07826
1.16781
1.26266
1.35355
1.43042
1.48373
1.50646
1.50196
1.49831
0.815245
0.931275
0.998585
1.08123
1.1697
1.25617
1.3323
1.38969
1.42118
1.42862
1.43994
0.780438
0.88187
0.93837
1.01167
1.09153
1.17093
1.24273
1.29969
1.33525
1.35068
1.36986
0.747804
0.839773
0.888283
0.952958
1.02359
1.09438
1.15943
1.21281
1.2488
1.26863
1.29976
0.708476
0.797192
0.840535
0.89781
0.95941
1.02091
1.07774
1.12543
1.15947
1.18062
1.21727
0.69116
0.765599
0.797614
0.844318
0.894979
0.945673
0.992745
1.03322
1.0643
1.08676
1.12643
0.667989
0.728974
0.750466
0.785891
0.824176
0.862449
0.898298
0.930536
0.958406
0.982585
1.02791
0.624009
0.676975
0.690336
0.714326
0.738934
0.763254
0.786829
0.810828
0.836958
0.86571
0.918219
0.581553
0.618324
0.617164
0.624756
0.631839
0.639683
0.650277
0.667623
0.696016
0.735559
0.802864
0.52492
0.540666
0.519759
0.505302
0.490186
0.47936
0.478491
0.494155
0.532057
0.590035
0.679472
0.436891
0.427153
0.381782
0.340186
0.299036
0.268668
0.260653
0.284409
0.343781
0.430347
0.543891
0.304757
0.258033
0.18096
0.108641
0.0403754
-0.00535561
-0.00949973
0.0383732
0.135491
0.264352
0.413468
0.116872
-0.0107758
-0.113624
-0.214742
-0.305875
-0.353453
-0.331947
-0.235624
-0.0808857
0.103643
0.29706
-0.418353
-0.425286
-0.542543
-0.661988
-0.758302
-0.777752
-0.693181
-0.518003
-0.287672
-0.0401853
0.196905
0.510354
-0.450693
-0.846206
-1.10236
-1.22091
-1.18701
-1.01574
-0.753577
-0.45058
-0.147029
0.127133
-1.98631
-0.492248
0.112139
0.310591
0.474485
0.601808
0.658263
0.671301
0.666295
0.646321
0.656287
-1.70915
-1.07036
-0.705694
-0.488679
-0.249964
-0.0145527
0.169296
0.296586
0.360411
0.37946
0.41829
-1.21813
-1.17984
-1.08303
-0.985737
-0.867742
-0.696548
-0.478418
-0.258036
-0.0785976
0.036296
0.132431
-1.71873
-1.56278
-1.44526
-1.39138
-1.38509
-1.35882
-1.20825
-0.971295
-0.700803
-0.463561
-0.253477
-2.33039
-2.20903
-2.04882
-1.94922
-1.96156
-2.00954
-2.00459
-1.83316
-1.52187
-1.16176
-0.805935
-3.01739
-2.97639
-2.86164
-2.77018
-2.7591
-2.86518
-2.95469
-2.87533
-2.56889
-2.09875
-1.54805
-3.70001
-3.77158
-3.74155
-3.75034
-3.80216
-3.93414
-4.11191
-4.1351
-3.86453
-3.31585
-2.59894
-4.35165
-4.54023
-4.60501
-4.75147
-4.95697
-5.20621
-5.49015
-5.61774
-5.39676
-4.77417
-3.84872
-4.93252
-5.23462
-5.39229
-5.68643
-6.06687
-6.52404
-6.96218
-7.24708
-7.10197
-6.4247
-5.29343
-5.37364
-5.80605
-6.04323
-6.4804
-7.02936
-7.6876
-8.37664
-8.88426
-8.84901
-8.13222
-6.79126
-5.6045
-6.20991
-6.49797
-7.06511
-7.76881
-8.61886
-9.558
-10.2774
-10.4242
-9.69128
-8.17065
-5.73147
-6.35606
-6.7347
-7.39656
-8.209
-9.19235
-10.2857
-11.2436
-11.6236
-10.8705
-9.25485
-5.66395
-6.26808
-6.74038
-7.43742
-8.31792
-9.37344
-10.5341
-11.6439
-12.1286
-11.3913
-9.58992
-5.33679
-5.91845
-6.44093
-7.15493
-8.05671
-9.12781
-10.292
-11.386
-11.8016
-11.172
-9.31589
-4.79607
-5.31007
-5.8295
-6.5222
-7.39956
-8.43482
-9.52713
-10.45
-10.7792
-10.1865
-8.50871
-4.0256
-4.45406
-4.94065
-5.59016
-6.41629
-7.37458
-8.33052
-9.0558
-9.25877
-8.59933
-7.11585
-3.03716
-3.39813
-3.85821
-4.47727
-5.25962
-6.13514
-6.93688
-7.43205
-7.3894
-6.6426
-5.33383
-1.93493
-2.28966
-2.77194
-3.4009
-4.16065
-4.95515
-5.59171
-5.83193
-5.49891
-4.61436
-3.45122
-0.985894
-1.43761
-2.00821
-2.66812
-3.39457
-4.08902
-4.54703
-4.52646
-3.91405
-2.87416
-1.7755
-0.601141
-1.1801
-1.83086
-2.49238
-3.16883
-3.76577
-4.0528
-3.77693
-2.91076
-1.75916
-0.574635
-0.83406
-1.45158
-2.10443
-2.76016
-3.41095
-3.91091
-3.97773
-3.40511
-2.31055
-1.0783
0.1285
-1.43239
-2.0796
-2.73928
-3.34041
-3.89315
-4.10748
-3.64053
-2.75131
-1.71629
-0.701493
0.160786
-2.16575
-3.24721
-3.68291
-3.79794
-3.65527
-3.24787
-2.60868
-1.85462
-1.1089
-0.439252
0.0832924
-4.91379
-3.74448
-3.02673
-2.63441
-2.33755
-1.97645
-1.54984
-1.09255
-0.64457
-0.238374
0.0898892
0.941072
1.07957
0.717099
-0.133639
-1.02358
-1.50475
-1.47248
-1.08462
-0.767093
0.816329
0.923734
0.622336
-0.0653976
-0.706918
-1.10542
-1.12197
-0.881754
-0.703623
0.697237
0.790742
0.536059
-0.0472401
-0.649414
-1.0012
-1.01696
-0.810643
-0.650738
0.591977
0.683696
0.460097
-0.0420132
-0.522178
-0.828414
-0.870946
-0.711829
-0.580324
0.458893
-0.450142
-1.42691
-1.80946
-1.47279
-0.839781
-0.537268
-0.568682
-0.627791
0.415451
-0.281645
-0.950013
-1.29564
-1.09176
-0.704555
-0.543336
-0.572282
-0.624622
0.353949
-0.230859
-0.912458
-1.15184
-0.984236
-0.649965
-0.529343
-0.552973
-0.587056
0.304051
-0.169946
-0.668845
-0.942124
-0.850273
-0.600145
-0.510156
-0.519401
-0.546849
1.37517
1.42804
1.4242
-0.261626
-0.231434
1.38351
-0.508684
1.30143
1.38026
1.62107
-0.249456
1.3031
-0.205194
-0.0235898
1.37224
1.08209
-0.112966
-0.2676
1.08163
1.40601
0.976103
-0.33759
1.18121
-0.177316
1.44391
-0.0271185
-0.193614
-0.493207
0.285868
-0.210158
-0.116974
0.894274
0.0383137
1.14771
0.914729
1.42743
-0.181062
1.44455
0.0454699
1.30541
0.019542
1.1517
0.0861301
1.18419
-0.373156
-0.272518
-0.198052
-0.702044
1.19777
1.30911
-0.211955
1.30753
-0.031662
0.0711368
1.30162
0.971756
-0.326481
1.29636
0.349685
-0.075143
0.384106
-0.0269086
-0.274893
-0.272192
-0.0563103
1.4026
-0.154781
1.33484
1.42565
1.60674
-0.123415
1.69784
-0.324754
1.73964
-0.205805
1.64565
-0.284546
1.16113
-0.365382
-0.494892
-0.367717
-0.275854
1.39484
1.39779
0.260351
-0.322459
-0.246327
-0.0123203
-0.334923
-0.233517
1.42648
1.29367
0.0136239
1.5627
-0.440231
-0.861646
-0.201165
-0.031539
-0.306128
1.71908
0.511303
-0.685826
1.44582
0.48526
-0.307638
1.40034
-0.0182671
1.39462
-0.086642
0.789556
1.19333
1.14944
1.57133
-0.275696
-0.245117
1.38985
1.29209
1.14205
1.32415
1.34667
-0.282934
1.766
0.508756
-0.114583
-0.241909
-0.087869
-0.109338
-0.0178369
-0.0115297
-0.0608305
1.2441
-0.0760786
-0.675835
1.66063
1.41148
0.199527
-0.274719
-0.278865
-0.171114
1.27671
0.116269
0.953837
-0.401499
1.12712
1.28495
-0.319284
-0.00382928
1.3327
1.71691
1.17626
1.22072
1.39507
-0.322994
1.73494
-0.267081
0.0650111
-0.32223
-0.318669
-0.0911831
1.43172
-0.0559151
-0.324772
1.67641
1.43032
-0.131531
-0.18458
-0.34444
1.20524
-0.0216255
-0.0634473
0.0161513
-0.0391861
0.011291
0.84934
0.918904
0.861761
0.000476613
-0.323599
-0.392534
0.892631
1.31973
-0.327712
1.41548
-0.233107
1.37651
-0.253331
1.22338
1.13026
1.42864
-0.364409
-0.0979171
-0.0918673
1.36433
0.0259451
1.42395
1.45381
1.40592
-0.317554
-0.0641858
1.39205
-0.248795
1.3395
-0.148734
-0.130402
1.41184
-0.00794278
1.54985
-0.0107637
1.33188
1.37342
-0.262629
1.1141
0.74731
0.98714
1.16684
-0.175574
1.43174
-0.232
1.24663
-0.221908
0.0337913
-0.284078
-0.199747
-0.256849
-0.0975348
1.27249
-0.198024
-0.1717
-0.0811734
-0.288445
-0.309279
1.35793
1.22388
1.79707
-0.313642
-0.703984
-0.242166
1.41778
1.24962
1.25127
-0.203833
-0.192287
0.444049
0.0125099
1.43795
-0.347829
1.1424
-0.14395
-0.705558
-0.352488
-0.141687
-0.268857
0.855151
1.45136
0.349575
1.40001
1.01812
1.44628
-0.286133
1.22137
-0.000232144
0.0261161
1.36312
1.17357
1.19168
-0.234617
0.936387
1.30188
0.0343576
0.112677
-0.277429
1.24079
1.35282
-0.196085
1.47508
1.13835
-0.127073
1.43482
1.2781
-0.317318
1.71825
1.33656
-0.364276
-0.245496
0.391066
1.46973
-0.260879
1.27037
1.20021
0.133864
1.23373
-0.48457
1.06066
0.0108812
1.4227
1.33003
-0.0309232
1.19215
0.965446
-0.135855
1.35509
-0.29979
1.12588
-0.204754
1.02995
0.754306
1.16983
-0.0411526
-0.313208
1.2193
-0.431968
1.39813
0.683617
0.0400946
-0.377744
1.25057
-0.19743
-0.31648
1.29165
1.61595
1.2128
-0.213724
1.12074
-0.124674
-0.303837
1.10504
1.14842
-0.166954
1.35227
-0.320398
1.26214
-0.271326
-0.24064
1.37717
-0.215279
-0.737156
-0.337781
1.17388
1.43025
-0.00936814
-0.0959076
-0.23732
1.34611
-0.165658
-0.281886
-0.0628227
-0.144113
1.14003
-0.173402
-0.172011
-0.451956
-0.0371324
0.145958
1.04238
-0.0626287
1.39218
0.0278348
1.06428
1.17685
-0.342354
0.119064
-0.0422929
1.43015
1.39244
1.53039
-0.337735
-0.0369296
0.0647833
-0.498235
0.633482
1.43926
-0.257676
-0.733928
-0.00108991
-0.0365712
1.23024
0.326536
0.888445
1.47808
1.17512
-0.288718
1.4644
-0.303785
1.2652
-0.0898727
-0.121466
-0.291733
-0.0971745
-0.191868
-0.344886
1.39548
-0.388505
-0.0387618
1.95865
-0.122952
-0.0554985
1.17039
1.18398
1.33361
-0.125231
-0.294571
1.38933
1.37551
0.157566
0.0133788
0.032751
-0.386367
-0.121378
1.3316
-0.197658
1.24137
1.07701
-0.142856
-0.136507
-0.337742
0.619284
-0.106402
1.76867
0.000645416
-0.38702
-0.2042
-0.00339289
-0.529335
-0.0363707
0.843506
0.820691
1.73016
-0.0208965
0.0752629
-0.111289
1.13581
-0.3416
-0.110842
1.26311
0.158972
0.0667513
-0.162425
-0.18958
-0.115841
1.13079
0.273937
-0.374866
-0.231027
-0.295321
1.18298
0.0953818
-0.0869344
-0.22223
1.45791
-0.343166
1.39026
1.39799
1.4307
-0.369688
-0.0162128
-0.495761
0.0199146
-0.300698
-0.000855265
1.42051
1.46546
-0.142804
-0.0104995
0.319532
1.22601
-0.0136986
0.0015755
1.38779
1.11802
1.27128
0.833478
-0.30829
1.15037
0.354241
1.2102
1.23401
1.23563
1.37173
-0.312147
1.22027
1.41333
0.997769
-0.26629
-0.316589
1.17521
-0.314848
-0.284116
1.15813
0.105013
1.4122
-0.186468
1.46051
1.20408
1.26916
-0.0109112
-0.0911428
1.37047
-0.107313
0.69206
1.30538
-0.137005
-0.167468
1.36785
1.40666
-0.667195
0.0863354
-0.304495
1.2443
-0.621983
1.12927
-0.150581
-0.0787496
-0.347158
-0.176025
0.521566
-0.172568
-0.0955317
-0.103182
1.1353
-0.0317235
1.2753
1.34057
1.45257
1.23173
1.12756
-0.307107
1.30389
1.41509
-0.160804
1.3567
-0.235201
0.327374
-0.0369429
-0.120727
-0.343209
1.42849
1.44248
1.33766
-0.00885699
-0.301062
1.14062
1.42845
-0.113205
1.37316
-0.238716
1.3738
-0.244265
1.26249
-0.343145
0.0568191
-0.00376716
-0.345509
-0.143385
1.03138
0.912104
1.68455
1.22003
0.0487115
-0.288706
1.33326
-0.133384
-0.240842
-0.884973
1.44392
1.42237
1.39828
-0.0896566
-0.228982
-0.0238762
1.38274
1.25335
-0.261126
1.54868
-0.0191594
-0.0327769
-0.110582
-0.311578
1.19323
-0.00391079
1.44545
-0.0887202
1.47751
-0.207637
0.000499277
0.970364
-0.368947
-0.211704
1.30259
1.15871
-0.410319
1.42945
-0.0689286
-0.242791
-0.117153
-0.102338
-0.0837191
-0.205093
1.58766
1.31599
1.3741
-0.825142
-0.219638
-0.0403977
1.39129
1.44056
-0.381679
1.21844
1.56956
1.18151
1.69604
-0.107034
-0.107822
-0.0951917
0.0569947
0.504904
0.885277
1.44494
-0.174248
1.64845
1.35437
-0.73037
-0.248951
1.10948
1.45158
-0.253379
1.43399
1.45617
0.316909
1.39883
1.03273
-0.220002
0.00618449
0.209819
0.00480571
-0.00230983
-0.38177
-0.1566
0.240338
-0.152935
-0.112208
-0.343285
-0.336982
-0.0982797
1.13095
1.11082
-0.307744
0.487974
1.14808
0.861346
-0.117799
0.103424
-0.683591
-0.0477983
0.355591
1.15434
0.788004
1.43468
1.18147
1.41345
-0.23058
1.62432
1.21837
1.16968
1.21698
-0.225938
-0.0351736
-0.293668
1.65699
1.22294
1.06767
0.118601
1.61301
-0.41492
1.60826
-0.189606
-0.0589501
1.17711
0.0238117
1.41979
0.0298063
-0.231524
-0.0986006
-0.737361
-0.041751
0.307667
1.39447
-0.0147043
-0.0112116
-0.368522
-0.17196
1.13238
0.654677
1.39691
0.104984
1.15107
-0.279284
1.38669
1.33103
1.468
-0.18451
-0.0295201
1.4339
-0.00128646
1.4548
-0.159161
-0.0943566
0.862933
-0.241659
-0.0117988
0.0420498
0.421708
-0.154747
-0.209983
-0.164051
0.0361192
-0.511368
1.13466
-0.121385
1.23203
1.24806
-0.424322
0.0844841
-0.193285
-0.0164559
1.54252
1.02535
1.33014
-0.233266
1.42161
-0.0316297
0.141006
-0.243584
0.888483
0.274787
0.0272181
-0.110441
1.82899
-0.215561
-0.262046
-0.312304
1.20184
-0.0497817
-0.276911
1.42831
-0.298153
-0.00549847
1.67259
-0.195199
1.25494
1.20057
1.38779
-0.00684849
1.74389
-0.00349633
1.40511
0.0256897
1.70544
-0.000402172
0.0918959
-0.240198
-0.0585321
1.12103
-0.163527
-0.415193
1.41197
0.00453948
0.358133
0.176189
0.812057
-0.307084
1.20089
-0.267989
0.0461827
0.810902
1.16674
0.22211
1.15305
-0.15507
-0.154134
1.42373
1.31922
0.540494
-0.289243
-0.254777
-0.204878
1.29681
-0.117486
0.917456
1.14343
1.42938
1.38763
1.23037
1.42117
-0.000678324
-0.385315
-0.245081
-0.0462974
0.118616
1.45912
1.26214
0.208952
-0.198612
1.42012
0.196402
-0.0846801
-0.593593
-0.255671
0.155947
0.71119
-0.276525
1.45784
1.24317
-0.259148
1.32994
1.30223
0.817996
-0.0304002
0.242864
0.268383
1.4287
-0.0947366
-0.0371934
-0.325585
1.29333
-0.0292901
0.110596
-0.0438264
-0.296009
1.40928
1.16247
-0.25946
-0.118979
0.148883
1.39754
1.17328
1.63526
1.47967
1.28396
-0.17341
-0.122723
-0.258408
-0.567287
0.152626
1.3627
-0.270336
1.41964
1.60897
0.482065
1.25924
1.43708
1.30694
-0.314782
-0.0907019
0.0464178
1.4392
-0.269585
1.46195
1.39977
1.43015
1.45468
0.88537
1.17843
1.41889
1.47907
-0.854264
1.15432
1.42718
0.110239
-0.421557
1.26955
1.42866
-0.272897
-0.875042
1.21758
0.196088
-0.0841337
-0.293244
1.21948
1.43823
1.09142
1.09423
0.0395
1.26677
-0.162383
-0.000865544
-0.16172
0.0559825
1.19119
-0.0363783
1.354
1.17969
1.80504
1.22399
1.1637
-0.0416073
-0.236693
0.418127
-0.163744
-0.157196
0.126925
0.469646
-0.387946
1.15915
1.19236
-0.000173457
0.0241982
-0.0520376
1.32742
-0.317582
1.56111
-0.226728
1.48389
0.00213763
-0.0524548
-0.322485
-0.138258
1.42072
1.43853
-0.272332
-0.264312
-0.0591671
0.16488
-0.109052
0.942935
1.01162
-0.20809
1.45881
1.41316
-0.0694247
-0.107489
-0.248447
-0.188663
-0.0345528
-0.0341443
-0.163341
-0.499227
1.40412
0.96044
-0.132889
1.42658
0.880517
1.41001
-0.25332
0.00817688
-0.123023
1.41594
-0.112583
1.36154
1.30164
-0.113504
-0.257581
1.21322
1.43057
1.48409
0.0670777
0.0863084
-0.380864
0.625719
1.4647
0.0368302
-0.233045
-0.353843
1.40146
-0.121647
0.0398397
1.35893
-0.025488
1.11665
-0.00248038
-0.11942
0.472012
-0.233669
1.21359
1.49559
-0.275937
-0.166591
1.22141
-0.13116
1.42608
-0.717395
-0.021018
-0.828543
1.43369
-0.00551613
-0.237867
-0.190688
-0.0048995
-0.0552702
1.39316
-0.0142151
-0.273936
1.16627
0.716304
-0.206064
-0.322551
-0.175734
-0.146698
1.32327
1.46891
-0.297041
1.19302
-0.0249094
0.0569947
-0.0222451
-0.218637
1.2857
-0.260085
-0.301647
-0.00906378
-0.242868
0.110554
1.47075
-0.107519
0.0061198
1.41919
1.37798
1.40803
-0.209091
0.898829
1.35641
-0.13209
0.136036
0.00285368
1.19571
-0.451736
-0.122787
0.890711
-0.157799
1.13925
1.64629
1.249
-0.553099
1.20609
-0.0766994
0.498455
-0.305794
1.17875
0.999923
1.39774
1.41027
-0.313965
-0.22441
0.135821
-0.375939
-0.115502
-0.448072
1.52578
0.79131
-0.298158
1.40971
-0.0142881
-0.0840674
1.0714
0.269613
-0.11473
-0.203062
1.16958
-0.0916528
1.4047
-0.276986
1.20624
-0.645456
-0.042145
1.78944
-0.382542
-0.201606
1.10785
-0.155385
0.118881
0.119257
-0.232213
0.729181
-0.407935
-0.0521201
-0.278161
-0.338907
-0.159609
1.39113
-0.153397
1.38742
-0.130609
-0.0557296
-0.258171
0.670322
-0.121286
-0.359812
1.42977
1.32815
1.16642
1.20384
0.0290834
-0.124017
1.6146
-0.051409
-0.156781
1.21134
-0.302586
-0.438093
0.15137
0.143352
-0.127262
-0.188751
-0.037846
-0.127555
1.42801
1.43136
-0.208999
1.45466
1.41817
-0.142127
1.3932
1.45911
-0.220482
1.83812
-0.774639
-0.0649541
-0.328966
1.45828
-0.0952297
0.0256123
-0.0395262
-0.430432
1.40714
0.0593018
-0.187363
0.0177452
0.0252464
1.07676
-0.0902295
1.3292
-0.224481
-0.145305
1.14811
1.46027
-0.332217
0.302284
-0.169798
-0.333025
-0.115594
1.52273
1.41004
1.43543
0.222232
0.031196
-9.94862e-06
-0.248543
-0.278739
1.92081
0.688885
1.34833
1.38882
-0.338026
1.42703
1.22407
0.13774
0.117076
-0.650511
-0.295645
1.20229
1.11884
-0.00825086
-0.252233
-0.268748
-0.543101
-0.130619
1.39248
1.24967
-0.0470173
-0.19807
-0.0377752
-0.0306954
1.4977
-0.0620455
-0.00538282
-0.327017
1.09522
-0.145105
-0.359906
1.08149
-0.0232114
1.18338
1.58846
-0.261539
0.00151767
-0.145968
0.941241
1.24477
0.289996
-0.191325
-0.244127
-0.0815878
-0.249025
0.068703
1.29798
-0.563277
-0.24598
1.4233
-0.0130564
0.0919445
1.30706
-0.341342
1.41971
1.45445
1.65398
-0.0232368
-0.00535519
1.12907
-0.104139
1.41701
1.16966
1.39481
-0.132024
1.13473
-0.197865
-0.0800878
1.42891
-0.294067
-0.373737
-0.134063
-0.336441
0.122946
-0.143738
-0.00172635
1.30685
1.17915
1.41262
0.035449
1.39179
1.20381
0.0584019
-0.272581
-0.0368096
0.0263064
0.0487153
1.14305
-0.24722
-0.0858685
1.12913
0.328601
1.1005
-0.000761672
1.29787
-0.0173008
0.979979
1.51533
1.34804
-0.299123
-0.0741419
1.19449
-0.186779
1.12523
0.0218361
-0.177785
-0.276524
-0.0601159
1.4343
1.36768
-0.120049
0.0852526
-0.0904469
-0.0361856
-0.318309
0.0305108
1.42596
-0.362443
-0.04571
1.39078
-0.330031
-0.307888
-0.063774
-0.310027
-0.243953
-0.010027
-0.362094
0.0609438
1.13405
1.31249
-0.0949162
-0.22965
0.320818
1.16321
0.0217407
1.42195
1.76711
-0.39555
1.40083
1.2929
-0.498768
-0.297618
1.35189
1.3857
1.37162
1.08074
1.20446
1.55767
-0.119261
0.349745
1.11272
1.39161
-0.34442
1.22456
-0.0502106
1.44349
1.06129
1.29843
-0.105231
-0.39686
-0.183081
1.43488
1.17817
0.00890625
-0.087951
1.41732
0.0730758
-0.138617
1.44156
0.0450979
-0.043735
-0.356903
-0.121499
-0.194304
1.28739
-0.240279
1.38336
0.983743
1.61296
0.85808
1.43333
-0.172074
1.58216
-0.282137
1.42887
1.43224
-0.258448
1.18449
1.42803
-0.208749
-0.322432
-0.31188
1.47016
0.956527
1.38833
-0.199516
-0.0832978
-0.215683
0.962092
-0.179424
-0.0531605
1.20803
1.11599
1.22049
0.873502
-0.260014
1.62243
0.382054
1.6914
-0.407487
0.116035
-0.059187
0.0446901
1.13079
0.399539
1.42021
0.108687
-0.395853
1.43338
1.43022
0.086973
1.07468
1.16694
1.5444
-0.160943
1.44636
-0.315484
-0.368079
-0.0352705
-0.0877728
1.12167
-0.0798706
1.22875
-0.537226
-0.10855
0.664178
-0.253851
1.38748
1.18217
1.40208
1.09621
0.302209
0.975388
1.5641
-0.0943489
-0.215994
1.23194
0.902652
-0.442798
0.315774
1.40099
0.298514
1.57447
1.92629
-0.164331
1.45183
0.123237
0.0154206
0.973024
1.42123
-0.0907143
-0.320563
1.44386
-0.0632349
1.46205
1.71087
-0.0689906
0.982692
-0.057455
1.42065
1.54915
-0.378975
0.897896
1.21574
-0.0823732
1.02672
1.26203
1.19433
1.22584
0.813581
0.427921
-0.177778
-0.133705
-0.31987
1.25934
1.36475
-0.271251
-0.010386
1.00929
0.840826
0.0220867
1.52749
-0.14337
1.2931
-0.163764
1.39875
1.46192
-0.00426467
-0.158186
-0.0980457
1.43987
1.44351
1.40935
1.37536
1.26938
-0.138868
-0.11523
-0.236018
-0.175334
0.0887002
1.00297
1.23299
1.24949
-0.354999
1.53408
0.0259248
-0.549134
1.15016
-0.352098
-0.185483
1.18939
1.3939
0.532311
-0.123036
-0.128486
1.17648
-0.11227
-0.0976754
-0.2723
-0.0349055
-0.0534633
1.19794
-0.197573
0.0739749
-0.366633
-0.157654
-0.236773
-0.0355237
1.42839
1.53507
-0.261016
1.44184
-0.043495
-0.12554
0.0402292
-0.118405
-0.194268
-0.153919
0.176112
-0.243642
1.38515
-0.154859
0.0422615
0.333588
0.11358
-0.294146
1.41954
-0.38669
1.38989
-0.0747573
-0.604965
-0.129147
-0.115688
-0.265296
-0.271712
1.44144
1.63269
1.2107
1.49358
1.4646
0.75153
1.23783
-0.18439
1.53835
-0.314046
-0.266732
1.10519
1.40039
0.0332142
0.0276743
1.41239
0.666031
1.18037
1.75666
0.501186
-0.104789
1.42721
1.0852
1.05433
1.13839
1.65177
1.42426
0.14488
-0.302015
1.37455
0.315046
1.41641
1.11499
1.17973
1.43407
-0.138854
1.38259
1.27037
1.14064
1.38317
-0.0376441
1.2729
-0.0349078
-0.310424
-0.481699
0.118769
-0.193465
0.0622557
-0.0673188
0.0647255
-0.217458
-0.0903606
1.15951
0.0270018
0.817883
1.34124
1.43981
0.445844
-0.133583
-0.0355566
1.40389
-0.303697
1.59516
0.125704
-0.123524
1.13697
0.497267
1.34466
0.641427
1.443
-0.523539
1.97677
1.39286
-0.142702
0.0886573
-0.0174273
-0.310043
-0.282367
-0.264497
0.0941643
-0.136639
1.41517
-0.334347
0.147142
-0.259788
-0.171462