/*--------------------------------*- C++ -*----------------------------------*\
| =========                 |                                                 |
| \\      /  F ield         | OpenFOAM: The Open Source CFD Toolbox           |
|  \\    /   O peration     | Version:  3.0.1                                 |
|   \\  /    A nd           | Web:      www.OpenFOAM.org                      |
|    \\/     M anipulation  |                                                 |
\*---------------------------------------------------------------------------*/
FoamFile
{
    version     2.0;
    format      ascii;
    class       volScalarField;
    location    "0.95477";
    object      k;
}
// * * * * * * * * * * * * * * * * * * * * * * * * * * * * * * * * * * * * * //

dimensions      [0 2 -2 0 0 0 0];

internalField   nonuniform List<scalar> 
21246
(
0.229639
0.226999
0.101423
0.0478884
0.0259707
0.0178543
0.0147108
0.0132627
0.012419
0.0117706
0.01113
0.274924
0.357978
0.0984739
0.0571595
0.0288264
0.0188655
0.014664
0.0127349
0.0116316
0.0108437
0.0101719
0.318358
0.397814
0.102916
0.0667721
0.0304484
0.0199538
0.0148045
0.0124581
0.0111109
0.0101697
0.00936933
0.354588
0.372596
0.108412
0.0705754
0.0307567
0.0207786
0.0148941
0.0122853
0.0107596
0.00971098
0.00885201
0.380158
0.345162
0.110889
0.0692424
0.0307924
0.0212094
0.0148656
0.0121486
0.0105056
0.00940307
0.00853605
0.395215
0.331548
0.11234
0.0666841
0.0309813
0.0213083
0.0147574
0.0120223
0.0103085
0.00918333
0.00833135
0.40044
0.327506
0.116139
0.0648592
0.0313981
0.021222
0.0146485
0.0119044
0.0101455
0.00901125
0.00816028
0.396682
0.329767
0.121002
0.0649101
0.0320191
0.0210756
0.0145882
0.0117926
0.0100074
0.00887291
0.00803915
0.385625
0.335954
0.127511
0.0664613
0.0332899
0.0211143
0.0146121
0.0116986
0.00989713
0.00875783
0.00792966
0.368824
0.344728
0.138508
0.0702196
0.0354147
0.0216015
0.0148668
0.0116876
0.00983491
0.00866463
0.00783276
0.346738
0.357092
0.153524
0.0763449
0.0385351
0.022651
0.0153466
0.0117827
0.00983632
0.00861208
0.00776199
0.320394
0.374128
0.171241
0.0844657
0.0426141
0.0243117
0.0160805
0.0120185
0.00990167
0.00859593
0.00771173
0.291918
0.39481
0.193257
0.0954878
0.0481838
0.0268262
0.0172002
0.0124631
0.0100618
0.0086303
0.00768942
0.262862
0.417712
0.221885
0.111184
0.0562243
0.0306593
0.0189541
0.0132349
0.010378
0.00874413
0.00770969
0.234659
0.446481
0.257116
0.132015
0.067218
0.0361577
0.0215951
0.0144755
0.0109331
0.00898186
0.00779687
0.210405
0.481665
0.301847
0.160406
0.0827361
0.0442092
0.0256366
0.0164694
0.0118856
0.00942874
0.00799716
0.193417
0.521727
0.359958
0.200748
0.105752
0.0565642
0.0320788
0.0197749
0.0135453
0.0102548
0.00840305
0.187355
0.570624
0.435191
0.257941
0.140214
0.0758416
0.0425611
0.0253894
0.0165022
0.0117967
0.00920335
0.193987
0.625265
0.530167
0.339995
0.193518
0.107234
0.0604352
0.0354082
0.0220368
0.0148177
0.0108417
0.208951
0.671824
0.63701
0.453994
0.277299
0.160563
0.0926534
0.0544473
0.0331148
0.021173
0.0144443
0.220519
0.687727
0.72797
0.59291
0.403509
0.252327
0.153371
0.0929685
0.0569669
0.035671
0.0231115
0.228977
0.669368
0.771138
0.721386
0.567235
0.400099
0.266566
0.172827
0.110791
0.070924
0.045654
0.207309
0.595323
0.690423
0.718902
0.665175
0.55315
0.424102
0.308045
0.216047
0.148607
0.100479
0.277853
0.616748
0.70109
0.714781
0.658709
0.574162
0.479921
0.387005
0.302622
0.231039
0.172048
0.187388
0.199362
0.0977394
0.0443103
0.0245746
0.0177397
0.0152373
0.0141752
0.0136474
0.013324
0.0130589
0.210013
0.203644
0.0779791
0.0446869
0.0271802
0.0196981
0.0165732
0.0152982
0.0147637
0.0145504
0.0144469
0.23645
0.216166
0.0695451
0.0472986
0.0292494
0.0219782
0.0188575
0.0176075
0.0171419
0.0170181
0.0170672
0.258958
0.196388
0.0658094
0.0488973
0.0297632
0.0227226
0.019646
0.0186483
0.0186267
0.019109
0.0198836
0.275572
0.167805
0.0633206
0.0479865
0.0294075
0.0229365
0.0198858
0.0189795
0.019114
0.019856
0.0210127
0.287859
0.144424
0.0608649
0.0457494
0.0286938
0.0228552
0.0198449
0.0189981
0.0192337
0.0202287
0.0219037
0.297639
0.127412
0.0583691
0.0432572
0.027907
0.0226255
0.0196452
0.01883
0.0190485
0.020054
0.0217664
0.304862
0.114808
0.0558493
0.0409437
0.0271573
0.0222839
0.0193697
0.0185504
0.0186648
0.0195018
0.0209184
0.31119
0.105325
0.0535452
0.0389905
0.0265655
0.0218871
0.0190742
0.0182139
0.018192
0.0188103
0.0198859
0.317833
0.0983385
0.0516086
0.0374416
0.0261615
0.0215207
0.0187931
0.0178688
0.0177117
0.0181286
0.0189184
0.325788
0.0935809
0.0501822
0.0363591
0.025932
0.0212491
0.0185598
0.0175553
0.0172792
0.0175462
0.0181674
0.334438
0.0902916
0.0491085
0.0356518
0.0258656
0.0210895
0.0183977
0.0173016
0.0169234
0.0170895
0.0176535
0.342903
0.0892285
0.0484751
0.0353228
0.0260202
0.0210684
0.0183389
0.0171266
0.0166568
0.0167461
0.0173118
0.350285
0.0912203
0.0487266
0.035364
0.0265129
0.0212761
0.0184656
0.0170845
0.0165205
0.0165378
0.0171212
0.356656
0.0948105
0.0496395
0.0357399
0.0272847
0.0217522
0.0188003
0.0172074
0.0165259
0.016458
0.0170216
0.362168
0.100312
0.0514382
0.0365449
0.0283421
0.02256
0.0193929
0.0175468
0.0166984
0.0165088
0.0169807
0.366927
0.108013
0.0544895
0.0379554
0.0297295
0.0237653
0.0203167
0.0181774
0.0170928
0.0167212
0.0170141
0.370963
0.117811
0.059112
0.0402121
0.0315374
0.0254236
0.0216584
0.0191973
0.0178041
0.0171701
0.0171758
0.374318
0.129733
0.0657979
0.0437297
0.0339947
0.0276267
0.0235217
0.0207274
0.018974
0.0179977
0.0176294
0.377046
0.143949
0.075249
0.0492153
0.0375918
0.0306065
0.0260666
0.0229184
0.020787
0.0194221
0.0186335
0.37917
0.160496
0.088316
0.0577726
0.0432695
0.0349424
0.0296433
0.0260084
0.0234664
0.0217063
0.02051
0.380777
0.179101
0.105858
0.070948
0.0526434
0.0419051
0.0350921
0.030503
0.0273081
0.0250544
0.0234537
0.381364
0.202527
0.130673
0.0917679
0.068856
0.0543885
0.0447917
0.0381941
0.0335524
0.0302396
0.0278242
0.351044
0.245775
0.192468
0.158042
0.135767
0.122647
0.11565
0.111718
0.108873
0.105851
0.101481
0.797986
1.25124
0.830753
0.575784
0.368339
0.229376
0.147116
0.100982
0.0753461
0.0601967
0.050265
0.748515
1.096
0.850496
0.633054
0.428842
0.269816
0.171123
0.113915
0.08223
0.0642191
0.0526158
0.645576
0.869104
0.804086
0.643199
0.468212
0.310313
0.194481
0.128405
0.0908448
0.0697612
0.0568369
0.515159
0.711646
0.735794
0.629335
0.485392
0.338869
0.220411
0.143322
0.10009
0.0762007
0.0620622
0.382531
0.609528
0.669725
0.608838
0.494293
0.361558
0.24406
0.161206
0.111242
0.083339
0.0681847
0.265503
0.53291
0.611968
0.587013
0.499914
0.382439
0.268329
0.180887
0.124736
0.0924767
0.0751422
0.173186
0.4714
0.565204
0.565181
0.502028
0.401154
0.293202
0.203107
0.140785
0.103354
0.0831004
0.126882
0.443255
0.5404
0.54869
0.501813
0.416568
0.317051
0.226965
0.159562
0.116465
0.0921909
0.128001
0.441089
0.542401
0.54617
0.504675
0.430124
0.339109
0.251262
0.180566
0.132021
0.102956
0.122013
0.415427
0.551944
0.561301
0.51762
0.445857
0.360322
0.275365
0.203073
0.149895
0.115721
0.101411
0.334279
0.52501
0.577916
0.540525
0.466697
0.382097
0.298955
0.226158
0.169549
0.130507
0.0821277
0.257075
0.455029
0.567089
0.560775
0.490335
0.404492
0.321627
0.248831
0.190116
0.147031
0.0671252
0.198898
0.363307
0.51206
0.558617
0.50794
0.424782
0.342356
0.270126
0.210623
0.16466
0.0565183
0.155767
0.273633
0.424458
0.521325
0.507545
0.436967
0.35848
0.288498
0.229814
0.182232
0.04986
0.128957
0.208618
0.331895
0.454247
0.482285
0.434419
0.365928
0.301446
0.245731
0.198203
0.0453238
0.112523
0.167416
0.253047
0.370369
0.433464
0.413486
0.361166
0.306363
0.256236
0.210099
0.0412333
0.0999084
0.138946
0.198739
0.285415
0.365923
0.37457
0.342238
0.300868
0.258839
0.215449
0.0373953
0.0894907
0.116966
0.160101
0.220012
0.288717
0.321997
0.309971
0.284138
0.252054
0.213308
0.0342286
0.0811705
0.100135
0.131805
0.172676
0.222098
0.261944
0.2692
0.258771
0.238532
0.206372
0.0325657
0.0758352
0.0887777
0.111901
0.139471
0.173109
0.206991
0.226804
0.229202
0.221659
0.199055
0.032138
0.0715849
0.0807932
0.0982192
0.117302
0.14001
0.1655
0.186303
0.19464
0.195383
0.182844
0.0311397
0.0679116
0.0735199
0.0884206
0.103211
0.119855
0.137077
0.151372
0.158621
0.161085
0.15592
0.031865
0.0625509
0.0702314
0.0862721
0.0988949
0.110739
0.121493
0.130262
0.136197
0.140857
0.142046
0.0588079
0.0621308
0.0575644
0.0690074
0.085123
0.101533
0.116971
0.130699
0.141693
0.149135
0.151676
0.767071
0.995228
0.765737
0.500934
0.314965
0.200592
0.133093
0.0942163
0.0717463
0.057786
0.0479986
0.533157
0.774609
0.648286
0.471447
0.314222
0.205774
0.137551
0.0970109
0.0734353
0.0589345
0.0488393
0.464311
0.67042
0.585855
0.470543
0.333715
0.222103
0.147502
0.102655
0.0768899
0.0615385
0.0512349
0.422379
0.591121
0.526553
0.450027
0.338713
0.2351
0.158803
0.109939
0.0811783
0.0643536
0.0534776
0.393051
0.522152
0.480412
0.420411
0.325573
0.234105
0.16311
0.115491
0.0861593
0.068409
0.0570845
0.370017
0.467513
0.445194
0.396824
0.314056
0.230781
0.163695
0.117513
0.0884392
0.070633
0.0596035
0.350642
0.425387
0.417928
0.378191
0.305643
0.23035
0.167244
0.121905
0.0920546
0.0730904
0.0613361
0.334075
0.392841
0.396942
0.364851
0.301468
0.233654
0.174425
0.129677
0.0983496
0.0772291
0.0636891
0.319396
0.367235
0.38092
0.356535
0.301887
0.241445
0.186158
0.14194
0.108519
0.0837997
0.0663
0.305661
0.346202
0.368549
0.351724
0.306413
0.253498
0.202636
0.159413
0.123868
0.0948117
0.0721336
0.292072
0.32755
0.357863
0.349012
0.31377
0.268765
0.223347
0.182197
0.145345
0.112153
0.0839318
0.277913
0.309467
0.346891
0.346491
0.321516
0.285302
0.246625
0.209216
0.172667
0.13632
0.102039
0.263024
0.290602
0.333646
0.341619
0.327024
0.300429
0.269884
0.238161
0.204142
0.16659
0.127755
0.246913
0.270456
0.316649
0.332109
0.327354
0.310586
0.288889
0.26441
0.235374
0.199858
0.15935
0.229039
0.24881
0.295805
0.317247
0.321134
0.31367
0.30078
0.284048
0.261285
0.230048
0.190681
0.209347
0.225637
0.271282
0.296945
0.307893
0.308644
0.303899
0.294783
0.278872
0.253309
0.21738
0.188145
0.20135
0.243935
0.272016
0.288295
0.295839
0.298143
0.295935
0.286756
0.267369
0.236752
0.166241
0.176943
0.215362
0.244256
0.264215
0.277029
0.285033
0.288584
0.28537
0.271995
0.247366
0.144995
0.15366
0.187496
0.216003
0.23825
0.254874
0.267128
0.275006
0.276512
0.268453
0.249566
0.125954
0.132589
0.161948
0.189337
0.212755
0.231822
0.246806
0.257384
0.262024
0.258294
0.244491
0.110335
0.114218
0.139479
0.165286
0.188888
0.209029
0.225165
0.236828
0.243091
0.242486
0.233715
0.0987777
0.0983234
0.119663
0.143394
0.166147
0.186021
0.20197
0.213558
0.220487
0.222162
0.217182
0.0913195
0.0833914
0.100298
0.121301
0.142549
0.161565
0.176845
0.187991
0.195054
0.197991
0.19565
0.0934498
0.0722837
0.087359
0.107555
0.127975
0.144991
0.157438
0.166037
0.171614
0.174386
0.173413
0.733748
1.05631
0.859824
0.625916
0.416315
0.258659
0.156466
0.0940672
0.0561042
0.0332499
0.0200481
0.555011
0.814579
0.751791
0.577953
0.395467
0.251602
0.153857
0.0922292
0.0546087
0.0321627
0.0193208
0.408639
0.688034
0.675662
0.55746
0.400754
0.262085
0.161751
0.0965284
0.0563683
0.0326599
0.0194289
0.33063
0.598113
0.617968
0.535498
0.402321
0.271576
0.170915
0.103259
0.060755
0.0352277
0.0207624
0.277974
0.490459
0.534239
0.497261
0.39749
0.280693
0.180986
0.110319
0.0648686
0.0371504
0.021287
0.250798
0.424441
0.46541
0.443256
0.368094
0.270238
0.179658
0.111705
0.0665441
0.0386772
0.0227622
0.234557
0.380794
0.418106
0.399453
0.33441
0.249585
0.169945
0.10853
0.0661949
0.0390809
0.0230462
0.223953
0.348741
0.381477
0.363884
0.306158
0.231001
0.15986
0.104088
0.0648028
0.0390854
0.0238911
0.21605
0.32343
0.351814
0.334492
0.281839
0.214097
0.149981
0.0993093
0.0630723
0.0388153
0.0240457
0.20921
0.302154
0.327312
0.310535
0.261905
0.199942
0.141394
0.0948885
0.0612217
0.038188
0.0236362
0.203219
0.283946
0.306873
0.290983
0.245803
0.188489
0.134325
0.0910925
0.0594599
0.03747
0.0235652
0.198621
0.268666
0.289833
0.274853
0.232666
0.17923
0.128626
0.087999
0.0579797
0.0368529
0.0233396
0.195022
0.255599
0.275581
0.261701
0.222247
0.172093
0.124354
0.0857593
0.0569851
0.036538
0.0234422
0.1918
0.244073
0.263594
0.25127
0.214487
0.167128
0.12162
0.0844929
0.0565655
0.0365559
0.0237966
0.189474
0.234154
0.253535
0.242989
0.208857
0.164011
0.120292
0.084185
0.0567351
0.0368677
0.0239509
0.187953
0.225397
0.245128
0.236708
0.205349
0.162836
0.120504
0.0849614
0.057585
0.0375277
0.024312
0.186975
0.21732
0.238067
0.232402
0.204166
0.163915
0.122567
0.0870601
0.0592706
0.03863
0.0249131
0.186884
0.209885
0.232075
0.229822
0.205223
0.16737
0.126713
0.0907245
0.0620058
0.0403463
0.0258051
0.187973
0.202974
0.226499
0.228055
0.20805
0.173324
0.133399
0.0964338
0.0661874
0.0429921
0.0273269
0.190463
0.19619
0.221105
0.226704
0.211839
0.180859
0.142016
0.104012
0.0719449
0.0469855
0.0297948
0.194767
0.189543
0.215479
0.225357
0.216052
0.189408
0.152277
0.11361
0.0797442
0.0528703
0.0338256
0.202645
0.181904
0.20968
0.223161
0.219361
0.197636
0.163366
0.125221
0.0902376
0.0615831
0.0404101
0.21296
0.174433
0.201204
0.219919
0.221281
0.204637
0.174504
0.138703
0.104041
0.0742372
0.0509295
0.235736
0.183341
0.209754
0.21332
0.214487
0.203512
0.180904
0.151361
0.120201
0.0912169
0.0667808
0.692079
0.98845
0.862631
0.692951
0.516144
0.329188
0.197941
0.117135
0.0678622
0.0390884
0.02305
0.561829
0.734763
0.770843
0.694294
0.568513
0.410131
0.265199
0.155001
0.0896632
0.0509155
0.0287724
0.310901
0.603678
0.678626
0.65759
0.57844
0.455392
0.319986
0.200374
0.117483
0.0679844
0.038469
0.286167
0.627115
0.675536
0.644222
0.579583
0.479969
0.359638
0.241232
0.148348
0.0890551
0.0528833
0.318957
0.694419
0.823678
0.730623
0.619587
0.508892
0.392374
0.276867
0.179033
0.111117
0.0699766
0.328821
0.670427
1.01263
0.987551
0.773579
0.585772
0.437397
0.312471
0.209257
0.133839
0.0872269
0.336593
0.644548
1.00554
1.25552
1.06458
0.758868
0.524382
0.360314
0.241637
0.157434
0.104377
0.343936
0.623166
0.971122
1.34031
1.39083
1.04693
0.685835
0.438956
0.2829
0.182971
0.121922
0.350781
0.601155
0.924839
1.30475
1.59956
1.3931
0.931937
0.564909
0.341806
0.213156
0.140244
0.357701
0.579332
0.87324
1.23168
1.59814
1.64826
1.21482
0.735262
0.42255
0.250463
0.159957
0.365164
0.561404
0.821469
1.13925
1.50461
1.746
1.45722
0.92018
0.517854
0.293959
0.181305
0.373786
0.548851
0.773861
1.03798
1.36613
1.68004
1.58904
1.07106
0.606707
0.336767
0.202462
0.384144
0.545435
0.734592
0.940389
1.21168
1.53034
1.59595
1.14819
0.663991
0.368514
0.22012
0.396291
0.548914
0.703443
0.854097
1.05691
1.33435
1.49503
1.13618
0.67317
0.380889
0.231899
0.411391
0.560649
0.681598
0.782352
0.915629
1.10642
1.29205
1.05098
0.63178
0.372014
0.237525
0.427375
0.578374
0.665018
0.717567
0.786977
0.889469
0.983419
0.924839
0.568708
0.34935
0.239603
0.445375
0.604519
0.656081
0.66018
0.671313
0.708007
0.746243
0.729758
0.524008
0.329975
0.242044
0.467438
0.644777
0.664351
0.624081
0.589917
0.587281
0.599381
0.590872
0.48968
0.34262
0.257227
0.497612
0.708976
0.706046
0.628271
0.561348
0.539144
0.544525
0.545243
0.501397
0.407136
0.297003
0.543471
0.817527
0.816209
0.709295
0.61217
0.576495
0.583625
0.594872
0.57627
0.508231
0.360692
0.616695
1.00417
1.04052
0.927617
0.798411
0.727927
0.670595
0.630806
0.584484
0.476904
0.34014
0.648786
1.12872
1.19229
1.10362
0.88416
0.603634
0.496918
0.406586
0.330943
0.260677
0.19856
0.454826
0.737809
0.726698
0.572572
0.432831
0.334841
0.27169
0.224912
0.186507
0.152454
0.120966
0.281634
0.224682
0.204773
0.196579
0.194283
0.191163
0.182305
0.165809
0.143079
0.117204
0.0915068
0.114588
0.114298
0.110981
0.103326
0.0919711
0.0729928
0.0421615
0.0169096
0.015375
0.180258
0.16875
0.154672
0.135977
0.113197
0.0882607
0.0619234
0.0369999
0.025476
0.180154
0.168989
0.154432
0.141523
0.12674
0.106382
0.0785479
0.0491759
0.0328156
0.153712
0.1476
0.138069
0.131716
0.122892
0.10958
0.0869517
0.0578031
0.0390178
0.115038
0.122155
0.117154
0.108066
0.0968873
0.0807845
0.0571075
0.024631
0.0168514
0.194147
0.194208
0.178829
0.16093
0.137965
0.111906
0.0847685
0.0564052
0.0280196
0.192258
0.192585
0.176054
0.162191
0.150486
0.134018
0.108843
0.0747807
0.0373089
0.164437
0.168282
0.156608
0.149112
0.142888
0.133422
0.116185
0.0866393
0.0458748
0.00442744
0.00460111
0.00461661
0.00211418
0.0470981
0.00438382
0.010954
0.00454839
0.0043765
0.00425362
0.0462473
0.00455878
0.00369839
0.00328878
0.00448395
0.00430364
0.00331058
0.00209677
0.00429316
0.0042488
0.00411293
0.00470329
0.00466591
0.0185156
0.00449251
0.0033013
0.00375281
0.0105684
0.0652025
0.0489755
0.00340446
0.00410754
0.00297113
0.00453619
0.00427761
0.00459191
0.0172162
0.00448764
0.00289305
0.0043901
0.0061966
0.00454547
0.00667186
0.00465903
0.0599752
0.012322
0.00331248
0.0192678
0.00429986
0.0043422
0.0491709
0.0043959
0.00831171
0.0067306
0.00433327
0.0041197
0.00459171
0.00440156
0.067428
0.00371381
0.00519939
0.0064542
0.0533437
0.00794282
0.00789787
0.0042608
0.0520616
0.00434756
0.00460145
0.00424572
0.00329672
0.00431881
0.00311248
0.00460036
0.00439281
0.00428089
0.00406037
0.00459829
0.00934764
0.0739167
0.0458454
0.00636214
0.0044954
0.00462626
0.00438577
0.00313029
0.0863844
0.00591908
0.00317182
0.0184104
0.00454301
0.00441219
0.00711167
0.00439996
0.0726625
0.0321636
0.00267238
0.00397964
0.00349147
0.00438652
0.00467763
0.0185266
0.00417255
0.00402498
0.00281113
0.00455346
0.00304851
0.00464667
0.00437741
0.00416638
0.0045087
0.00456056
0.00431129
0.00224903
0.00416282
0.00442347
0.00437796
0.0043175
0.00449972
0.00414175
0.00228232
0.00452846
0.00516184
0.00325605
0.0112505
0.00415394
0.0606625
0.00304583
0.00322434
0.00354978
0.00445178
0.00370644
0.0183715
0.00428753
0.00461394
0.00458474
0.00382832
0.00429671
0.0500244
0.00446947
0.00692039
0.00411407
0.0243648
0.00402551
0.00437072
0.00331256
0.00447371
0.0043333
0.00431846
0.0042485
0.00428608
0.00441837
0.00356145
0.00451166
0.00225304
0.00367317
0.00375974
0.00363926
0.00320762
0.00436148
0.00364254
0.00422779
0.00430916
0.0044312
0.0532811
0.00582929
0.00362893
0.00424282
0.00424678
0.00783344
0.00307231
0.00309739
0.00447858
0.00405784
0.00409693
0.00396388
0.00316517
0.0036022
0.0609063
0.00392982
0.00432599
0.00453718
0.00465988
0.0129802
0.00450401
0.00383304
0.00426485
0.00430329
0.00458892
0.0125711
0.0042117
0.00341956
0.00427388
0.00621163
0.0046096
0.00440007
0.00435592
0.0035454
0.0036388
0.00467917
0.00319545
0.00434171
0.00408006
0.00349806
0.00462741
0.0060317
0.00438723
0.00321693
0.00434949
0.00433936
0.0215376
0.00439452
0.00401434
0.00423306
0.00449107
0.00405021
0.00451068
0.00377236
0.00428843
0.00321061
0.00288014
0.00219084
0.00273166
0.00415819
0.00321553
0.00440645
0.0095296
0.00565576
0.00396778
0.0227824
0.00383588
0.00425779
0.00427978
0.00451837
0.00352229
0.0717456
0.0499261
0.00464639
0.00456298
0.00455075
0.00379504
0.00852855
0.00401593
0.00593381
0.00467104
0.00471889
0.004518
0.00360171
0.0290858
0.0587613
0.00358735
0.0217481
0.00520181
0.00430168
0.00395485
0.00436215
0.00413888
0.00447349
0.00310924
0.00425848
0.0033941
0.00455429
0.00432691
0.00457541
0.0045065
0.0031381
0.00411428
0.00487054
0.00559385
0.00372466
0.0213432
0.00432275
0.00433457
0.00320856
0.00439103
0.00432934
0.00331816
0.0044476
0.00427998
0.0031059
0.00435785
0.00460039
0.0460355
0.0468383
0.00395568
0.00439778
0.0853599
0.00459134
0.00425233
0.00670522
0.00461833
0.0111116
0.00427732
0.00292631
0.00467902
0.00435475
0.00422943
0.00456617
0.00427413
0.00334763
0.00444636
0.00244961
0.00438336
0.0493967
0.0041502
0.00416876
0.00459947
0.0160715
0.00451728
0.00435166
0.00712656
0.00456576
0.00409647
0.00296969
0.00449594
0.00410916
0.00368916
0.0031929
0.00413049
0.00450578
0.00425893
0.0363925
0.0043569
0.00339346
0.00550101
0.00418906
0.00445177
0.00371083
0.00424154
0.0284553
0.00444127
0.0539384
0.0038852
0.00464932
0.00352088
0.0416395
0.0033936
0.00458766
0.00447375
0.0039682
0.00406538
0.0207438
0.00433595
0.00568944
0.0195164
0.016205
0.00436502
0.00437801
0.0147474
0.0647824
0.00847156
0.00391377
0.00374193
0.00416786
0.00394472
0.00468916
0.00291399
0.00399932
0.00466019
0.0358538
0.00386285
0.00333077
0.00451827
0.00451181
0.00431263
0.00334347
0.00308694
0.00320197
0.0106216
0.00467956
0.00444094
0.0126675
0.0348495
0.00319708
0.00387899
0.00461025
0.00391813
0.00425973
0.00437955
0.00425589
0.0382728
0.0043871
0.00315997
0.00441325
0.00340647
0.0500383
0.00235686
0.00320117
0.00833342
0.00350772
0.00442855
0.00521051
0.00310424
0.0046166
0.051525
0.0078441
0.00447845
0.00429067
0.00462109
0.00571711
0.00308886
0.00441038
0.00466138
0.00683747
0.0028234
0.00670926
0.00795514
0.00727639
0.00433896
0.0363515
0.0042348
0.00427892
0.00378155
0.00371704
0.00407863
0.0040788
0.00424044
0.00474647
0.00314121
0.00474191
0.0323748
0.00321408
0.0123351
0.00415345
0.00398503
0.00415178
0.0045634
0.00481935
0.00451997
0.00907126
0.00448588
0.00316615
0.00343114
0.00410579
0.0042445
0.00310572
0.0253808
0.048714
0.00326708
0.00468842
0.00396042
0.0861428
0.00214412
0.00239532
0.00419939
0.00427268
0.00379362
0.00348613
0.00434681
0.00401119
0.00444069
0.00461339
0.00449941
0.00422217
0.00449105
0.0113499
0.00308456
0.00320683
0.00492091
0.00459084
0.00434267
0.0628932
0.00320175
0.00394663
0.00423909
0.00816904
0.00764342
0.00545505
0.00546768
0.00442256
0.00393518
0.00311828
0.00422248
0.00514466
0.00421638
0.00458806
0.00433002
0.00557886
0.00366169
0.00427056
0.00444995
0.00412778
0.0166502
0.00433684
0.00464737
0.00335798
0.0306693
0.00404806
0.00325865
0.00434181
0.00335382
0.00439834
0.00422274
0.00440181
0.00338793
0.00327043
0.00426434
0.00339781
0.00400207
0.00478271
0.00374925
0.00370066
0.0045411
0.00453435
0.0355931
0.00372007
0.00287456
0.00445037
0.0172095
0.00461934
0.0372871
0.00435294
0.00354989
0.00514541
0.0047157
0.0494641
0.00509244
0.00338643
0.00445237
0.00360746
0.00412067
0.0045986
0.00442723
0.00457418
0.00417242
0.0368647
0.00451889
0.00435508
0.0122264
0.00443794
0.00955391
0.00428676
0.0131321
0.00331577
0.00322457
0.00467887
0.00447614
0.0046345
0.00628911
0.00372425
0.00450199
0.00448814
0.00324782
0.00461576
0.00216317
0.00460602
0.0380787
0.00423666
0.00387709
0.00291999
0.00333844
0.0137589
0.0392123
0.0041597
0.00411031
0.00430768
0.00460788
0.00310043
0.00334624
0.00423641
0.00354503
0.0330293
0.035601
0.00449128
0.00434305
0.00459684
0.00379776
0.0523948
0.00422712
0.0045443
0.0043723
0.0470235
0.00432699
0.00305313
0.00328489
0.00882797
0.0330298
0.00443006
0.00451453
0.00446328
0.00519266
0.00434141
0.00424192
0.00318773
0.00409788
0.00471109
0.00743528
0.00463739
0.0046735
0.0713083
0.00440762
0.00354542
0.00322324
0.00539854
0.00340844
0.00402886
0.0036027
0.00421918
0.00443739
0.00449282
0.028065
0.00306032
0.00389863
0.00425139
0.00450047
0.00665834
0.0042497
0.00448322
0.0042073
0.00429681
0.00320788
0.00309181
0.00536467
0.00567669
0.00401634
0.00525536
0.00429435
0.010074
0.00427005
0.0044555
0.0291705
0.0288149
0.00438292
0.00439058
0.00383102
0.00416239
0.00433676
0.00565196
0.00460625
0.00416573
0.00329516
0.0029283
0.00382178
0.00312056
0.00318404
0.00552533
0.0255733
0.0050085
0.00621255
0.00354183
0.00354095
0.00460421
0.00349161
0.00462131
0.00416553
0.00557469
0.00393948
0.00421555
0.0043031
0.00343977
0.00679879
0.0287614
0.00361359
0.00544369
0.00442404
0.0052511
0.00454988
0.00429927
0.00427072
0.00335765
0.0042508
0.00450229
0.00419119
0.00459455
0.0039894
0.00621884
0.0219759
0.00427356
0.00424442
0.0039918
0.00753732
0.0044616
0.0156544
0.00429976
0.00562951
0.03424
0.00442898
0.00341244
0.00465993
0.00299201
0.00504744
0.00318175
0.025286
0.00365012
0.00427835
0.00463649
0.00372343
0.00321161
0.00413523
0.0601375
0.00436993
0.00408213
0.00463272
0.00374763
0.00420213
0.00322399
0.0045574
0.00440059
0.00440563
0.00377241
0.00454243
0.00456217
0.00332501
0.00437496
0.00547062
0.00321791
0.00407914
0.00372014
0.00569161
0.00288776
0.00408771
0.00373157
0.00359421
0.00739312
0.00300086
0.0114088
0.00446861
0.00337022
0.00449159
0.00441808
0.0066231
0.00436727
0.0033953
0.00328331
0.00432491
0.00416535
0.00413411
0.00415846
0.00458543
0.0580815
0.00627354
0.0368387
0.00413818
0.00397761
0.00562171
0.00336991
0.00449788
0.00347012
0.00377967
0.00286506
0.00452749
0.00333971
0.0323864
0.00454922
0.00963275
0.00350734
0.00468744
0.00542117
0.00437991
0.00423107
0.00422182
0.00336646
0.00437206
0.00319891
0.00457189
0.00300095
0.00430546
0.00293706
0.00369788
0.0248244
0.00428762
0.00429155
0.0223054
0.0127083
0.00446159
0.00319755
0.00385433
0.00475034
0.00519676
0.00368232
0.00424761
0.00414332
0.00292964
0.00500537
0.00429032
0.00437704
0.00441373
0.00321628
0.00377131
0.00469057
0.00448822
0.00454993
0.0315781
0.0352204
0.00359333
0.00457897
0.00337942
0.00435401
0.0045569
0.00457922
0.00462453
0.00448152
0.00463135
0.0031654
0.00501606
0.0108244
0.00308554
0.00423952
0.0044284
0.00449962
0.00376915
0.0330298
0.00459515
0.0040728
0.00352497
0.0168641
0.0207608
0.00479679
0.0039202
0.00356666
0.0044317
0.00446318
0.0108765
0.00421947
0.00456856
0.00432388
0.00928563
0.00399823
0.003903
0.00455597
0.00409649
0.00682794
0.00367729
0.00456709
0.00309669
0.00539767
0.00453274
0.00389894
0.0046406
0.00428401
0.00207015
0.00301252
0.00443525
0.0046011
0.00418898
0.00461852
0.00433794
0.00459294
0.00260403
0.00344542
0.00921809
0.0152506
0.00653
0.00455025
0.0514117
0.00466971
0.00429553
0.00521318
0.00448819
0.00441789
0.00441574
0.00298707
0.00535904
0.00368528
0.00441495
0.0028938
0.00442447
0.00468821
0.00434391
0.0043874
0.00430181
0.00449582
0.0045594
0.00435243
0.0651043
0.00438015
0.00425727
0.00434912
0.0179907
0.00429466
0.0045073
0.00488573
0.0620211
0.00425729
0.00451739
0.00297139
0.00314356
0.00465066
0.00454006
0.00418674
0.00400823
0.00843608
0.00459995
0.0120599
0.00294046
0.0257259
0.00297439
0.00458053
0.0032579
0.00564125
0.0044418
0.00450953
0.00447008
0.00460864
0.00396329
0.0100079
0.00425801
0.00574297
0.0481586
0.00480966
0.00393837
0.00570185
0.00466327
0.00456065
0.00314293
0.00280145
0.00329512
0.00439672
0.0272974
0.00431009
0.00332247
0.004316
0.00313726
0.00312936
0.0032212
0.00354659
0.00419859
0.00452755
0.0468546
0.0043832
0.0645638
0.00418461
0.00304581
0.00422607
0.0042108
0.0558402
0.00438264
0.00460338
0.00352595
0.00889533
0.00771963
0.00348807
0.00329466
0.00332117
0.00404575
0.0433677
0.00451985
0.00424432
0.0653606
0.00439826
0.00548987
0.00449598
0.0154563
0.00299087
0.00674485
0.0046049
0.00342666
0.00464519
0.00440547
0.00423329
0.00245924
0.00426787
0.00446063
0.00434492
0.00457516
0.00439692
0.00457055
0.00448278
0.00418357
0.00665312
0.00363033
0.00382416
0.00461047
0.00886189
0.00297767
0.00459989
0.0046772
0.00408834
0.00631567
0.0501738
0.00397076
0.00337006
0.0041033
0.00434853
0.00313338
0.0045199
0.00424897
0.0101728
0.00455446
0.0691171
0.00929738
0.0303996
0.00455278
0.00455235
0.00380079
0.0431643
0.00335653
0.00313653
0.00467579
0.00307156
0.0194309
0.00456318
0.00402831
0.00307156
0.00392541
0.0321494
0.00367921
0.00445369
0.00433094
0.00411193
0.00421796
0.00719535
0.00287889
0.013028
0.0520009
0.004602
0.00308026
0.00388802
0.00513631
0.0153114
0.00427959
0.00439347
0.00406574
0.00312751
0.00454469
0.00465819
0.00467889
0.00356361
0.0041244
0.0046097
0.0037168
0.00653951
0.00320632
0.00452505
0.00798635
0.00407295
0.00407653
0.00402081
0.00455642
0.00431296
0.00447823
0.0144444
0.00441443
0.00404776
0.00399865
0.00343334
0.00450674
0.00417819
0.00450347
0.00437756
0.00340378
0.0118795
0.00728572
0.0544241
0.00965422
0.0446648
0.0042062
0.0043529
0.00248892
0.00462891
0.00324951
0.00522973
0.00430581
0.00501953
0.00388282
0.0296227
0.00418858
0.00319878
0.00455037
0.0492301
0.00469525
0.0349274
0.0041586
0.00467273
0.00484281
0.0104428
0.0041727
0.00549924
0.00543655
0.00459099
0.0203342
0.00558645
0.0240919
0.0035338
0.00236011
0.0128679
0.00471929
0.00461069
0.00372135
0.00474895
0.0034454
0.00331581
0.0031854
0.00390617
0.003177
0.0531865
0.0043759
0.0043277
0.00421319
0.00457445
0.0028967
0.00340671
0.00424434
0.00332115
0.0433429
0.00452197
0.0562998
0.00731195
0.00450143
0.00515048
0.00392276
0.0032275
0.00317937
0.026011
0.0044221
0.00452615
0.0518093
0.00437547
0.00458644
0.00356016
0.00454393
0.00453071
0.031656
0.00455197
0.0325495
0.00397894
0.003777
0.00428975
0.00430421
0.00554498
0.00324726
0.0124817
0.00444502
0.00289122
0.0050899
0.00304913
0.00321263
0.00528017
0.00554115
0.00424146
0.00804807
0.0150834
0.00406673
0.00432229
0.00351394
0.00381142
0.0047216
0.00346282
0.0503767
0.00425606
0.00468964
0.00450539
0.00404525
0.00280929
0.00320569
0.00328179
0.0811975
0.00467062
0.00587837
0.00555674
0.00457646
0.0039842
0.0042461
0.00425048
0.0597555
0.00467801
0.0183136
0.0236294
0.00456591
0.00449518
0.00464859
0.0314243
0.032817
0.0213546
0.00335252
0.00456794
0.00429495
0.00326884
0.0414546
0.00657946
0.00306483
0.00434235
0.00616251
0.00487906
0.00539644
0.00416089
0.0134968
0.0278811
0.00405231
0.00382699
0.00430796
0.00436434
0.030408
0.00319122
0.00371626
0.00460026
0.00467979
0.00411305
0.0482522
0.00315574
0.00298082
0.00780601
0.00601863
0.00437197
0.014341
0.00532922
0.00462173
0.00304938
0.00354093
0.00412758
0.0559208
0.00453455
0.00442566
0.00425922
0.00582109
0.00310286
0.00435581
0.00512118
0.00461474
0.00456079
0.00468819
0.00329918
0.00442867
0.00738197
0.00420502
0.00455835
0.0497793
0.0042848
0.00353586
0.00360418
0.00426796
0.00352084
0.00535347
0.00452781
0.00456605
0.00448491
0.0030201
0.00449647
0.00428854
0.00441386
0.0035496
0.00620765
0.00312244
0.00672459
0.00430336
0.00543928
0.00417318
0.0046757
0.00433573
0.00458672
0.0031498
0.00414031
0.00325891
0.00412147
0.00421164
0.00450698
0.00449526
0.0319819
0.00546837
0.0160163
0.00468828
0.00297489
0.0635836
0.0031709
0.00296797
0.0043967
0.00548852
0.00407984
0.00520875
0.00319216
0.00526511
0.00380973
0.00301643
0.00450116
0.0680632
0.00309185
0.00415077
0.00408864
0.00401221
0.00361218
0.00277
0.0043024
0.00306614
0.0558049
0.0223539
0.00448649
0.00432543
0.00386257
0.0121861
0.00401684
0.00455102
0.00426786
0.00462937
0.00443151
0.00443626
0.0044016
0.00464821
0.0126355
0.00236467