/*--------------------------------*- C++ -*----------------------------------*\
| =========                 |                                                 |
| \\      /  F ield         | OpenFOAM: The Open Source CFD Toolbox           |
|  \\    /   O peration     | Version:  3.0.1                                 |
|   \\  /    A nd           | Web:      www.OpenFOAM.org                      |
|    \\/     M anipulation  |                                                 |
\*---------------------------------------------------------------------------*/
FoamFile
{
    version     2.0;
    format      ascii;
    class       volScalarField;
    location    "0.851646";
    object      k;
}
// * * * * * * * * * * * * * * * * * * * * * * * * * * * * * * * * * * * * * //

dimensions      [0 2 -2 0 0 0 0];

internalField   nonuniform List<scalar> 
21246
(
0.881505
1.0493
0.568803
0.284284
0.146994
0.0767499
0.0401949
0.021514
0.0124846
0.00845443
0.00671245
0.503778
0.617908
0.450487
0.289585
0.164698
0.089002
0.0467244
0.0244454
0.0135059
0.00862565
0.00663228
0.481357
0.572693
0.418825
0.298209
0.180745
0.10073
0.0534277
0.0277491
0.0148922
0.00909843
0.0067319
0.468095
0.515853
0.372838
0.281
0.176238
0.103135
0.0566764
0.0301048
0.0161953
0.00970408
0.00701762
0.45741
0.448228
0.330651
0.256268
0.163659
0.09981
0.0567488
0.0311999
0.0171908
0.0103156
0.00733782
0.448128
0.388413
0.294856
0.230535
0.148846
0.0933355
0.0547497
0.0311416
0.017655
0.0107316
0.00761254
0.439852
0.34248
0.265174
0.206281
0.134864
0.0860593
0.0516719
0.0302668
0.017683
0.0109629
0.0077988
0.4319
0.306435
0.239783
0.185158
0.122311
0.0789083
0.0482151
0.0289357
0.017378
0.0110198
0.0079738
0.425426
0.277882
0.218268
0.167519
0.111529
0.0724453
0.0448314
0.0274423
0.0169044
0.0109938
0.00811235
0.42182
0.255413
0.200613
0.15336
0.102702
0.0669993
0.0418313
0.0260084
0.0163801
0.0109155
0.00818491
0.420002
0.237584
0.185964
0.141892
0.0955095
0.0625094
0.0392846
0.0247284
0.0158687
0.010802
0.00823096
0.418007
0.223024
0.173354
0.132261
0.0895044
0.058783
0.0371491
0.0236279
0.0154073
0.0106847
0.00825492
0.417132
0.211263
0.162731
0.124402
0.0846705
0.0558288
0.0354505
0.022741
0.015029
0.0105869
0.00827271
0.417272
0.203358
0.154357
0.118369
0.0810826
0.0537057
0.0342358
0.0221084
0.0147624
0.0105265
0.00830359
0.416805
0.197316
0.147239
0.113524
0.0785369
0.0523755
0.0335487
0.0217771
0.0146355
0.010521
0.00836691
0.416051
0.193143
0.141366
0.109542
0.0768483
0.0517581
0.0334296
0.0218154
0.0147479
0.0106538
0.00849564
0.415152
0.191621
0.137134
0.106598
0.0761389
0.0519905
0.0339968
0.022318
0.0151412
0.0109534
0.0087024
0.41407
0.191836
0.134347
0.104569
0.0762651
0.0530534
0.0353084
0.023387
0.0159087
0.0114801
0.00903829
0.413017
0.193807
0.133214
0.103584
0.0772688
0.0550532
0.0375298
0.0252219
0.0172288
0.0123632
0.00958706
0.412367
0.197634
0.134051
0.103884
0.0792664
0.0581438
0.0408948
0.0281198
0.0193954
0.0138374
0.0105118
0.412649
0.203298
0.137154
0.10584
0.0824695
0.0625082
0.0456759
0.0324679
0.0228482
0.0163103
0.012138
0.414989
0.209924
0.14259
0.109942
0.0872631
0.0683925
0.0521499
0.0386836
0.0281497
0.020405
0.0150413
0.419282
0.215915
0.149908
0.116545
0.0941302
0.0761088
0.0605497
0.047098
0.0358475
0.0268695
0.0200662
0.445127
0.21829
0.165037
0.132742
0.108959
0.0897155
0.0733553
0.0591875
0.0469782
0.0366797
0.0282687
0.98996
1.46487
0.641
0.36967
0.185726
0.0914006
0.0448884
0.0228338
0.0129158
0.00873511
0.00697308
1.00349
1.66247
0.755511
0.442788
0.240306
0.122645
0.0592906
0.0287128
0.0151651
0.00966964
0.00747244
0.97622
1.46911
0.779288
0.476829
0.274547
0.152059
0.0757412
0.0362019
0.0181633
0.0109843
0.00831859
0.910721
1.25464
0.732476
0.468114
0.284834
0.171887
0.0896899
0.0433078
0.0211276
0.0123302
0.00924939
0.829349
1.10318
0.66713
0.43603
0.280906
0.18043
0.0986203
0.0487174
0.0235111
0.0134464
0.0100189
0.749099
1.00377
0.606694
0.399814
0.270175
0.180188
0.102447
0.0518942
0.025078
0.0143116
0.0108338
0.677641
0.936578
0.555918
0.367294
0.2568
0.174898
0.102546
0.0530461
0.0258176
0.0148401
0.0113989
0.616693
0.887192
0.512858
0.339106
0.242711
0.167296
0.100415
0.0527566
0.0259203
0.0151647
0.0119956
0.566572
0.847882
0.476894
0.315052
0.229184
0.159218
0.0973328
0.0516936
0.0256409
0.0153329
0.0125249
0.525743
0.814035
0.447259
0.294689
0.216937
0.151662
0.09418
0.050397
0.0252331
0.0154311
0.0130202
0.49142
0.782316
0.424815
0.278491
0.206371
0.145177
0.0915842
0.049422
0.0250318
0.0155833
0.013492
0.461619
0.751891
0.407214
0.265314
0.196998
0.139483
0.0894893
0.0490298
0.0253724
0.01601
0.0139923
0.435324
0.72162
0.393922
0.254755
0.188866
0.134747
0.0880554
0.0493747
0.0263121
0.0167551
0.0145807
0.411435
0.690082
0.385563
0.247459
0.182371
0.131184
0.0874488
0.0506088
0.0279365
0.0179004
0.0152831
0.388981
0.659312
0.379934
0.24273
0.177418
0.128708
0.0876487
0.0527232
0.0302992
0.0195362
0.0161974
0.367521
0.628237
0.376819
0.240832
0.174362
0.1275
0.0887949
0.0557901
0.0335233
0.0218293
0.0174563
0.346513
0.595795
0.375965
0.242206
0.173761
0.12786
0.0910847
0.0599127
0.037776
0.0250072
0.0193103
0.325317
0.561874
0.376527
0.247056
0.176262
0.130309
0.0948361
0.0652497
0.0432483
0.0293505
0.022067
0.303253
0.525774
0.377569
0.255593
0.182802
0.135775
0.100706
0.0721815
0.0502507
0.0352226
0.0261884
0.279394
0.486285
0.377633
0.267882
0.194717
0.145912
0.110058
0.0816378
0.0594102
0.0431749
0.0322862
0.252111
0.439479
0.373957
0.283436
0.213746
0.163492
0.125613
0.0957861
0.0722622
0.0543235
0.041255
0.219342
0.401102
0.368002
0.301286
0.240496
0.190613
0.150086
0.11725
0.0909429
0.0702818
0.0543693
0.175853
0.301215
0.285131
0.251326
0.213702
0.177417
0.144816
0.116526
0.0925722
0.0727346
0.0565483
0.398962
0.287
0.214808
0.168648
0.136224
0.111669
0.0918534
0.0752785
0.0611601
0.0490989
0.0388692
0.502527
0.688266
0.322812
0.172566
0.0857662
0.0443674
0.0268286
0.0200266
0.0172555
0.0159613
0.0152592
0.524709
0.766957
0.38809
0.208577
0.109065
0.0547085
0.0303
0.0209669
0.0174535
0.0159333
0.0151378
0.522094
0.675191
0.412226
0.237546
0.127766
0.0656385
0.0350098
0.0225328
0.0179586
0.0161119
0.0152556
0.492948
0.585699
0.408735
0.24689
0.139913
0.0745354
0.0399064
0.0244514
0.0186942
0.0164615
0.0155234
0.447794
0.529069
0.39595
0.247724
0.146709
0.0817606
0.04437
0.0264977
0.0195836
0.0169389
0.0158984
0.396305
0.492339
0.38326
0.24824
0.152183
0.0881299
0.0487628
0.0285637
0.0205465
0.0174858
0.0163163
0.343798
0.46785
0.373271
0.250171
0.157857
0.0939119
0.0533694
0.0310598
0.0215491
0.0180651
0.0167812
0.293562
0.452373
0.36661
0.25317
0.163737
0.0996623
0.0579293
0.0338642
0.0228604
0.0187048
0.0172594
0.248487
0.441135
0.364311
0.257796
0.170252
0.105863
0.0627825
0.0369947
0.0244462
0.019476
0.0177702
0.209262
0.431837
0.366719
0.265091
0.178253
0.113135
0.0683961
0.0406762
0.0264138
0.0204247
0.0183307
0.175589
0.425423
0.373802
0.275211
0.187833
0.121507
0.0749179
0.0450666
0.0288759
0.0216357
0.0189782
0.148551
0.42463
0.38629
0.288245
0.198777
0.130717
0.0822369
0.0502183
0.0319362
0.0232135
0.0197858
0.130711
0.429347
0.405181
0.305629
0.21205
0.141212
0.0905755
0.0563258
0.0357855
0.0253107
0.0208575
0.124113
0.438764
0.431585
0.329704
0.229434
0.153984
0.100426
0.063695
0.0406908
0.0281553
0.0223551
0.129912
0.458341
0.468491
0.363304
0.252779
0.169968
0.112191
0.0725439
0.046882
0.0320087
0.0245222
0.142341
0.478919
0.514167
0.410949
0.286654
0.192035
0.127395
0.083663
0.0548608
0.0372879
0.0277095
0.150792
0.483555
0.556183
0.473636
0.337416
0.225499
0.149324
0.0989049
0.0657141
0.0447447
0.0325085
0.152497
0.468553
0.57767
0.540761
0.407847
0.27691
0.183376
0.121828
0.0816663
0.0558535
0.0400061
0.149016
0.438653
0.5686
0.589397
0.489627
0.351055
0.237535
0.159246
0.10759
0.073958
0.0525499
0.141918
0.400334
0.531536
0.598819
0.559447
0.443307
0.319609
0.221984
0.153037
0.106402
0.0755659
0.133215
0.357333
0.476945
0.569141
0.594998
0.535947
0.429916
0.3219
0.233155
0.167262
0.120695
0.140421
0.326774
0.429017
0.524546
0.591463
0.594775
0.537374
0.44685
0.351953
0.269573
0.203449
0.141678
0.308667
0.377762
0.437004
0.482688
0.509312
0.509073
0.477655
0.422262
0.35853
0.292645
0.174511
0.338735
0.389848
0.447361
0.491814
0.518483
0.520897
0.491718
0.441367
0.383617
0.322489
0.430488
0.491153
0.27694
0.138066
0.07128
0.0398646
0.0258841
0.0200088
0.0174376
0.0161717
0.0154508
0.332198
0.389506
0.241014
0.143833
0.078593
0.0445278
0.0283082
0.0212461
0.0181793
0.0167181
0.0159328
0.330878
0.386999
0.236781
0.16499
0.098051
0.056202
0.0336965
0.0235431
0.0193272
0.0174665
0.0165727
0.330504
0.360999
0.222485
0.169765
0.108541
0.0658998
0.0402158
0.0269524
0.0210316
0.0184339
0.0172545
0.327971
0.319648
0.209281
0.165794
0.108201
0.0676416
0.0423591
0.0288908
0.0224876
0.0195393
0.0181637
0.323926
0.282114
0.196477
0.15726
0.104435
0.0675866
0.0434974
0.0301373
0.0236137
0.020558
0.0191728
0.319401
0.252297
0.184785
0.14795
0.0994893
0.0662508
0.0437011
0.0309501
0.0245652
0.0214905
0.0200655
0.314564
0.228967
0.174277
0.139359
0.0946772
0.0645126
0.0434156
0.0314299
0.0253155
0.0223131
0.0209015
0.310263
0.21065
0.165347
0.131966
0.0907769
0.0629379
0.0430916
0.0318049
0.0259953
0.0231601
0.0218945
0.306997
0.196436
0.157867
0.125997
0.0880801
0.0617705
0.042928
0.032173
0.0266069
0.0239264
0.022772
0.304872
0.18545
0.151958
0.121708
0.0864766
0.0612178
0.0430629
0.0326138
0.0271853
0.0246148
0.0235465
0.303735
0.176575
0.147064
0.11873
0.0857781
0.0612991
0.0435582
0.0331996
0.0277831
0.0252632
0.0242904
0.303825
0.169344
0.143146
0.116942
0.0860048
0.0621038
0.044521
0.0340303
0.0284777
0.025925
0.0250506
0.303915
0.164298
0.140075
0.116191
0.0872942
0.0638318
0.0461741
0.0352853
0.029395
0.0266803
0.0258312
0.303581
0.160511
0.137263
0.115714
0.0892348
0.0663673
0.0486965
0.0372666
0.0308386
0.0277777
0.0268134
0.302942
0.157882
0.134701
0.11545
0.091693
0.0697407
0.0521824
0.0401668
0.0330307
0.029424
0.0281706
0.302077
0.15646
0.13242
0.115322
0.0945288
0.0739482
0.0567293
0.0442016
0.0362547
0.0319116
0.0301501
0.301017
0.156053
0.130428
0.115198
0.0975019
0.0788488
0.0623623
0.049563
0.0408304
0.0356246
0.0331511
0.299829
0.156594
0.128791
0.114955
0.100326
0.0841669
0.0689797
0.056365
0.0470777
0.0410274
0.0377264
0.298648
0.158106
0.12767
0.114515
0.102664
0.0894288
0.076231
0.0644988
0.0551792
0.0485705
0.0445498
0.297703
0.160539
0.12722
0.113837
0.104108
0.0938847
0.0833088
0.0733242
0.0648246
0.0583355
0.0540755
0.297591
0.163535
0.127454
0.112853
0.104133
0.0963995
0.0886514
0.0811418
0.0744524
0.0691124
0.0655324
0.298854
0.167533
0.128454
0.111445
0.102153
0.0955535
0.0899042
0.0848477
0.0805609
0.0773764
0.075679
0.313493
0.174207
0.140557
0.126513
0.119857
0.116334
0.113803
0.114885
0.119313
0.125556
0.131224
0.0921517
0.213066
0.216119
0.20508
0.16987
0.128052
0.091376
0.0636251
0.0437936
0.0301154
0.0212786
0.0935591
0.182754
0.182189
0.172582
0.143187
0.107484
0.0761137
0.0525561
0.0358829
0.024431
0.0169645
0.0886631
0.150802
0.15619
0.148844
0.125637
0.0958124
0.0683937
0.0472273
0.0320499
0.0215216
0.0144898
0.0832198
0.130202
0.139443
0.133928
0.115128
0.0896452
0.0649328
0.0450689
0.0305
0.0202847
0.0134355
0.0789596
0.118218
0.129873
0.126051
0.110182
0.0874667
0.0642694
0.0448422
0.0302755
0.0199908
0.0131323
0.0753978
0.11118
0.124829
0.122695
0.108919
0.087899
0.0653626
0.0457778
0.030825
0.0202432
0.0132335
0.0721547
0.106676
0.122073
0.121582
0.109491
0.0896247
0.0673252
0.0473071
0.0317924
0.0208015
0.0135233
0.0701029
0.103982
0.120209
0.121222
0.110563
0.0916219
0.0694639
0.049001
0.0329269
0.021529
0.0140476
0.0684919
0.102023
0.118811
0.121007
0.111523
0.0933993
0.0714182
0.0506241
0.0340884
0.0223348
0.0146387
0.0669385
0.10046
0.11765
0.120745
0.112269
0.0948958
0.073139
0.0521276
0.0352308
0.0231679
0.0152296
0.0654791
0.0991125
0.116572
0.120369
0.112776
0.0961047
0.0746262
0.0535045
0.0363335
0.0240007
0.0158608
0.0643388
0.0981603
0.115559
0.119869
0.113019
0.0970117
0.075879
0.0547568
0.0373915
0.0248166
0.0164434
0.0634636
0.0972945
0.114573
0.119333
0.113162
0.0978065
0.077056
0.0559863
0.0384579
0.0256417
0.0170594
0.0626606
0.0962341
0.113527
0.118836
0.113416
0.0987432
0.0783865
0.0573546
0.0396275
0.0265266
0.0177539
0.0619654
0.0954166
0.112582
0.11839
0.113752
0.0998778
0.0799831
0.0589663
0.0409868
0.0275381
0.0184925
0.0614221
0.0946356
0.111633
0.117987
0.11424
0.101313
0.0820273
0.0610703
0.0427257
0.028783
0.0193736
0.0609224
0.0935267
0.110513
0.117571
0.114942
0.103222
0.0847413
0.0638738
0.0450605
0.0304464
0.0204959
0.0604111
0.0922466
0.109255
0.11713
0.115862
0.105676
0.0882869
0.0675995
0.0481812
0.0326489
0.021916
0.0598455
0.090619
0.107723
0.116571
0.116988
0.108771
0.0928744
0.0725368
0.0523836
0.0356511
0.0237466
0.0591401
0.088379
0.105718
0.11577
0.118291
0.112579
0.0986793
0.0789735
0.0580186
0.0397837
0.0263132
0.0580947
0.0851243
0.102991
0.114559
0.119652
0.116983
0.105638
0.0870212
0.0654227
0.0454969
0.0300923
0.0566826
0.0813137
0.0993956
0.112607
0.120512
0.121217
0.112991
0.0962514
0.0746989
0.0533281
0.0357705
0.0535304
0.071622
0.0899827
0.105353
0.116835
0.121952
0.118139
0.104928
0.0851317
0.0635152
0.0442162
0.112043
0.0938234
0.0876092
0.100207
0.11366
0.120347
0.119317
0.110238
0.0943513
0.0749298
0.0557609
0.0793717
0.162748
0.215039
0.224496
0.202896
0.164797
0.122641
0.0865242
0.0596211
0.0410912
0.0291714
0.0783285
0.101828
0.151962
0.183753
0.193281
0.188134
0.160985
0.122827
0.0877394
0.0602835
0.0421904
0.0984462
0.113721
0.157587
0.1941
0.197122
0.183331
0.171262
0.14928
0.117204
0.0868629
0.062951
0.116896
0.134116
0.180134
0.231621
0.257937
0.230603
0.193034
0.163655
0.136655
0.108865
0.0877768
0.133064
0.154785
0.200974
0.259818
0.313112
0.323143
0.266023
0.204054
0.15755
0.12486
0.104666
0.147
0.174347
0.218893
0.275952
0.338992
0.389815
0.367475
0.286368
0.205215
0.147751
0.116995
0.159098
0.192451
0.234834
0.284605
0.342551
0.409951
0.448393
0.388613
0.283469
0.191391
0.134267
0.169941
0.209676
0.250218
0.29022
0.335211
0.399112
0.469806
0.468881
0.373139
0.254577
0.166179
0.179977
0.226976
0.266281
0.29576
0.325284
0.375107
0.452502
0.508165
0.44956
0.32381
0.210019
0.189506
0.244902
0.28345
0.302312
0.317111
0.34997
0.418344
0.503695
0.498152
0.384261
0.255468
0.198965
0.263892
0.301679
0.310231
0.312498
0.330118
0.383623
0.477745
0.519437
0.427776
0.293996
0.20901
0.283941
0.320853
0.319922
0.311764
0.317691
0.356585
0.441309
0.521301
0.453684
0.321499
0.220508
0.30572
0.340402
0.331307
0.314194
0.311863
0.339138
0.403498
0.499002
0.471609
0.334041
0.232555
0.330085
0.362268
0.344541
0.317805
0.307164
0.324465
0.369858
0.435489
0.471037
0.333642
0.244999
0.357961
0.387896
0.360681
0.322356
0.300715
0.305464
0.332854
0.373203
0.401636
0.343328
0.258687
0.390927
0.419161
0.381555
0.329674
0.295035
0.286343
0.297533
0.319267
0.338299
0.328028
0.274123
0.430521
0.458618
0.410311
0.343296
0.294478
0.273243
0.272257
0.282252
0.294288
0.296128
0.291871
0.478799
0.51102
0.453959
0.371113
0.306423
0.272364
0.261077
0.262014
0.266267
0.265257
0.312583
0.542082
0.590094
0.532541
0.436333
0.352963
0.302131
0.278498
0.270363
0.267128
0.260234
0.303767
0.571851
0.648522
0.616433
0.527239
0.432728
0.365193
0.330846
0.320458
0.319442
0.326142
0.26904
0.5236
0.613702
0.611804
0.55217
0.468883
0.391803
0.335769
0.288279
0.236284
0.203499
0.234595
0.458253
0.550511
0.567953
0.535081
0.469888
0.393392
0.315578
0.230312
0.171601
0.128939
0.212773
0.392528
0.46521
0.476347
0.449555
0.393584
0.307159
0.218288
0.158609
0.120069
0.0925312
0.188438
0.309085
0.315634
0.292226
0.247143
0.191079
0.150482
0.125506
0.106999
0.0894417
0.0713561
0.083304
0.075663
0.0755385
0.0767687
0.0783889
0.0784812
0.0758808
0.067286
0.0500488
0.12235
0.120228
0.109266
0.100596
0.0945999
0.0877246
0.0782142
0.0671154
0.054381
0.109856
0.105787
0.0971419
0.090084
0.0839525
0.0808382
0.079184
0.0746952
0.0641097
0.0848932
0.07867
0.0721121
0.0692268
0.0661238
0.0667987
0.0686897
0.0692985
0.0652837
0.0850398
0.0821771
0.0761809
0.0632387
0.0352187
0.01847
0.0155434
0.0130416
0.0249477
0.120419
0.111995
0.0963344
0.0780336
0.0617749
0.0373742
0.0253139
0.0282641
0.0407681
0.10761
0.104901
0.101964
0.0929952
0.0772468
0.0482884
0.0329081
0.0366476
0.049642
0.0851917
0.0874515
0.0900944
0.0906651
0.083031
0.0579282
0.0415494
0.0448689
0.0553999
0.00442815
0.00460118
0.0046161
0.00210182
0.0456125
0.00438893
0.0116823
0.00454064
0.00437902
0.00422599
0.0452108
0.00455035
0.00372111
0.00329398
0.00448418
0.00430231
0.0033047
0.00208852
0.00429138
0.00425075
0.00411985
0.00437672
0.00466514
0.0188686
0.00449382
0.00330527
0.00377265
0.0111432
0.0804818
0.0488684
0.00339332
0.00409881
0.00300106
0.00453554
0.00425693
0.00459252
0.0175418
0.00448854
0.00293221
0.00439805
0.00599913
0.00454443
0.00707633
0.00465789
0.0619221
0.0147377
0.00328176
0.0236926
0.00428726
0.00431081
0.0490964
0.00440494
0.0228695
0.00710468
0.00430808
0.00412669
0.0043494
0.00441205
0.0788793
0.00451342
0.00556006
0.0190471
0.0528384
0.00788479
0.00776837
0.00426152
0.0526993
0.0042944
0.00460171
0.00421765
0.00329653
0.00425167
0.00317147
0.00437194
0.00433837
0.00424203
0.00479726
0.00459584
0.00935045
0.0735755
0.0441275
0.00632881
0.00449673
0.0046256
0.00437928
0.00319059
0.105991
0.0129599
0.00320219
0.0181226
0.00454302
0.00442437
0.0062246
0.00429268
0.0720256
0.0327758
0.00292106
0.00400727
0.00353232
0.00429339
0.00466237
0.0210421
0.00415362
0.00402527
0.0028243
0.00454922
0.00305064
0.00464629
0.00425298
0.00417245
0.00451016
0.00455892
0.00427399
0.00223722
0.00431316
0.00442387
0.00438063
0.00431145
0.00450002
0.00413471
0.00227595
0.00436074
0.00433503
0.00325766
0.0130215
0.0042475
0.0520063
0.00304813
0.00321015
0.00350549
0.00446126
0.00450347
0.0224521
0.0042415
0.00461358
0.00456757
0.00402422
0.00429887
0.0497096
0.00445466
0.0074856
0.00412901
0.0234133
0.00402376
0.00436988
0.0032522
0.0045309
0.00429151
0.00427277
0.00425283
0.00427398
0.00442521
0.00352474
0.0043351
0.00223538
0.00367394
0.00386255
0.00372268
0.0032089
0.004355
0.00364108
0.004265
0.00424793
0.00443058
0.0539492
0.0057698
0.0036429
0.00473611
0.00413032
0.00733003
0.00308557
0.00310058
0.00418817
0.0040607
0.00408986
0.00396183
0.00315983
0.00355922
0.0626529
0.003928
0.0042893
0.00421407
0.00465909
0.0141108
0.00450046
0.00379827
0.00426512
0.00429729
0.00458896
0.0125363
0.00411276
0.00341909
0.00427267
0.00549036
0.00460945
0.00439332
0.00434207
0.00359178
0.00358832
0.00467913
0.00315736
0.00430507
0.00402856
0.00350113
0.00462677
0.013358
0.00429031
0.00320232
0.00432911
0.00433759
0.0211338
0.00439557
0.00401521
0.0042154
0.00449368
0.00781046
0.00450889
0.00370667
0.00427376
0.00318983
0.00298803
0.00218836
0.00288111
0.00431155
0.00321631
0.00441721
0.0102234
0.00551592
0.00387836
0.0226111
0.00379098
0.00425741
0.00427058
0.00436362
0.00347542
0.0554162
0.0506015
0.00464558
0.00455658
0.00454549
0.00372928
0.00818899
0.0040162
0.00471014
0.00438373
0.00475606
0.00451805
0.00359975
0.0314421
0.0561479
0.00358728
0.0213834
0.0051913
0.00429878
0.00395671
0.00435398
0.0041496
0.00447345
0.00314541
0.00426322
0.00338513
0.00461379
0.00432516
0.00457236
0.0045083
0.00310412
0.00413167
0.00443011
0.0055944
0.00372475
0.0235448
0.00430371
0.00429937
0.00317979
0.00438496
0.00432392
0.00332118
0.00444628
0.00428019
0.00312858
0.00426974
0.00459463
0.0444755
0.0473504
0.00395735
0.00439049
0.0715673
0.00458379
0.00424487
0.00739791
0.00461334
0.0111361
0.00472608
0.00296768
0.00467828
0.00433801
0.00413936
0.00456271
0.00425402
0.00334944
0.00445595
0.00245587
0.00435863
0.0491926
0.00416069
0.00416425
0.0045962
0.0138985
0.00412847
0.00434413
0.00741731
0.00456221
0.00409315
0.00299614
0.00517076
0.00410757
0.00368124
0.00319399
0.00412773
0.00431572
0.00426058
0.0333737
0.00435561
0.00339292
0.005472
0.0043283
0.00445487
0.00370612
0.00424114
0.0316325
0.00434766
0.0530654
0.00448884
0.00464927
0.00353908
0.0455173
0.00348699
0.00458433
0.00447125
0.0039765
0.00411659
0.0204271
0.00429788
0.00572941
0.0217368
0.0140925
0.00476875
0.00437825
0.014787
0.0575718
0.00898898
0.00394555
0.003742
0.00417979
0.00394877
0.00468914
0.00304061
0.00399743
0.00465914
0.0383032
0.00386331
0.00333566
0.00451672
0.00451284
0.00430251
0.00335767
0.00308942
0.00324744
0.0108256
0.00438581
0.00443946
0.0126497
0.0398837
0.00319543
0.00387562
0.00460494
0.00391784
0.00424438
0.00437122
0.00425688
0.0379875
0.00437858
0.00315675
0.00442408
0.00340661
0.0504854
0.00236654
0.00320171
0.0079998
0.00347732
0.00443537
0.00519365
0.0031061
0.0045711
0.0522362
0.00804876
0.00448201
0.00428127
0.00461786
0.0056303
0.00311914
0.0044103
0.00466161
0.00765145
0.00286205
0.00945194
0.00786384
0.00690755
0.00430382
0.0331942
0.00451457
0.00427722
0.00375142
0.00368464
0.00405537
0.00407468
0.00414118
0.00444652
0.00313716
0.00477608
0.0303625
0.00320866
0.0128458
0.00400435
0.00398149
0.0041625
0.00434394
0.00482377
0.00490965
0.0100364
0.00448737
0.00314905
0.00343005
0.00410163
0.00473825
0.00326944
0.0256512
0.048609
0.00326909
0.00468836
0.00396047
0.095875
0.00216151
0.00240499
0.00427164
0.00460588
0.00549125
0.00348155
0.00433848
0.00401975
0.00444765
0.00461272
0.00449703
0.00413625
0.00452556
0.0111059
0.00309754
0.00315902
0.00491029
0.00459048
0.00433459
0.0544042
0.00319875
0.00394718
0.00446793
0.00816122
0.00763396
0.00545505
0.00546768
0.00434118
0.00393253
0.00311636
0.00423651
0.00541556
0.00435539
0.00458131
0.00431276
0.0055785
0.00366505
0.00426654
0.00445167
0.00413527
0.0164684
0.00424219
0.00464575
0.00330929
0.0308625
0.0040468
0.00340969
0.00433694
0.00341752
0.00439085
0.00433992
0.00441106
0.00334558
0.00327177
0.0042633
0.00339762
0.00400319
0.00441169
0.00374667
0.00369588
0.00453358
0.00453571
0.0343866
0.00411605
0.00290608
0.00435439
0.0174014
0.00461868
0.0377753
0.00435559
0.00350645
0.00511979
0.00470647
0.050114
0.00498965
0.00338628
0.00445463
0.00360718
0.00411706
0.00459294
0.00442356
0.0045683
0.00425948
0.0366374
0.00451587
0.00435007
0.0127709
0.00444836
0.00918685
0.00435407
0.0113144
0.00331544
0.00323836
0.00467785
0.00447453
0.0046329
0.00513206
0.00371961
0.00450285
0.00449157
0.00324902
0.00461395
0.00224369
0.00460341
0.0433945
0.00423864
0.00406917
0.00296014
0.00333072
0.0164611
0.039769
0.0041717
0.00412636
0.00426476
0.00460217
0.00327083
0.00339733
0.00423578
0.00352771
0.0210978
0.0278763
0.00449202
0.00430913
0.00459535
0.00540661
0.0531818
0.00423304
0.00453816
0.00437186
0.0474831
0.00428065
0.00308028
0.00326893
0.00822868
0.0358533
0.00443675
0.00450416
0.00446107
0.00508416
0.00432793
0.00439062
0.00318214
0.00409163
0.0054448
0.00728981
0.00463489
0.0046731
0.0714267
0.00440451
0.00354569
0.00316334
0.00530069
0.00485088
0.0040891
0.00358905
0.00418902
0.00444937
0.00449126
0.0320238
0.00303164
0.0038955
0.00425207
0.00450127
0.00656044
0.00425999
0.00432261
0.0043885
0.00424063
0.00320673
0.00309004
0.00527706
0.00567724
0.00401892
0.00522827
0.00429232
0.0100223
0.00422889
0.0044633
0.0336544
0.0285303
0.00438349
0.00438406
0.00388449
0.00414433
0.00432927
0.00565067
0.00460526
0.00424412
0.00327598
0.002971
0.00382221
0.00312064
0.00317908
0.00542108
0.0227996
0.00486536
0.00623944
0.00354161
0.00354044
0.00467804
0.00349224
0.00462055
0.00418907
0.00554652
0.00394154
0.00423176
0.0043713
0.00343859
0.00731865
0.0288686
0.00361234
0.00451853
0.0044277
0.00528677
0.00455244
0.00428919
0.00427098
0.00336675
0.004219
0.00438227
0.00423325
0.00458841
0.00386252
0.00621894
0.0218342
0.00423093
0.00426594
0.00399069
0.00944368
0.00430325
0.0153821
0.00426343
0.00533667
0.0292738
0.00443456
0.0037791
0.00465857
0.00301815
0.0049518
0.00318372
0.028645
0.00364871
0.00427425
0.00463602
0.00372975
0.00320884
0.00406595
0.0522995
0.00436943
0.00407886
0.00463216
0.00374779
0.00422627
0.00315604
0.00455184
0.00441203
0.00439872
0.00379092
0.00445851
0.00456431
0.0033164
0.00437192
0.0053234
0.00321915
0.00408491
0.00365314
0.00456989
0.00293105
0.00410093
0.0037334
0.00357965
0.00732192
0.00302155
0.0121655
0.00447007
0.00336604
0.00449593
0.00434321
0.00684882
0.00524934
0.00347197
0.00328854
0.00428263
0.00423928
0.00412666
0.00406709
0.00458537
0.0578897
0.00699064
0.0421017
0.00416169
0.00397801
0.00662657
0.00473018
0.00437671
0.00344911
0.00378438
0.00285649
0.00452695
0.00334413
0.0217415
0.00454958
0.00914448
0.00349861
0.0043747
0.00517923
0.00438214
0.0043207
0.00422173
0.00335934
0.00428192
0.0031969
0.0045696
0.00302766
0.00425094
0.00297894
0.0040609
0.0245431
0.00414574
0.00428652
0.022844
0.0145414
0.00446384
0.00319782
0.00385341
0.00498024
0.00520136
0.00383097
0.00477329
0.00429254
0.00297033
0.00500981
0.00428252
0.00437462
0.00441699
0.00362835
0.00399326
0.00468994
0.00449118
0.00453837
0.0318331
0.0332538
0.00357935
0.00457054
0.00337385
0.00465517
0.00455546
0.00457997
0.00462394
0.00448756
0.00437774
0.00316043
0.00504821
0.0110015
0.00308772
0.00452558
0.00442396
0.00450225
0.00376906
0.0331607
0.00459528
0.00409862
0.00352528
0.0160071
0.0206633
0.00461391
0.00391795
0.00377848
0.00442785
0.00447162
0.0118372
0.00421911
0.00455989
0.00435208
0.00821119
0.00400017
0.00390289
0.00455678
0.00409632
0.00549085
0.00373925
0.00455882
0.0030983
0.00609015
0.00443974
0.00404009
0.00463935
0.00427717
0.00206544
0.00300963
0.0046226
0.00460046
0.00423051
0.00434709
0.00432198
0.00458511
0.00352066
0.003445
0.0087815
0.0140322
0.0072767
0.00454241
0.0522173
0.00466864
0.00426181
0.00433404
0.00449298
0.004419
0.00442793
0.00299914
0.0152423
0.0036771
0.00441518
0.00307731
0.00442016
0.00468827
0.00431224
0.00437943
0.00442105
0.00449872
0.0045584
0.00428825
0.0467938
0.00438048
0.0042596
0.005277
0.0175365
0.00427668
0.00450505
0.00487734
0.0454508
0.00428127
0.00451492
0.00298784
0.00324638
0.00464851
0.00454237
0.00431096
0.00400655
0.0115566
0.00459324
0.0125652
0.00298066
0.0230487
0.00301368
0.00457638
0.00327089
0.00564134
0.00444765
0.00437646
0.00436714
0.0046059
0.00400017
0.0100041
0.00421721
0.0057032
0.0506898
0.00497117
0.00394025
0.00559883
0.00466261
0.00455701
0.00313836
0.00285289
0.00330374
0.00440686
0.0298258
0.00427992
0.00329228
0.00431155
0.00313396
0.00313157
0.00324157
0.00354924
0.00420005
0.00452982
0.0463091
0.00400829
0.0555494
0.00444165
0.00304753
0.00432408
0.00421144
0.0545974
0.00438027
0.00460305
0.00352617
0.0092527
0.00765196
0.00354357
0.00327865
0.00332659
0.00834807
0.040013
0.0045216
0.00439393
0.0583088
0.00439439
0.00549341
0.00449216
0.0151162
0.00302906
0.00644277
0.00460392
0.00342682
0.00464479
0.00441635
0.00413994
0.00242937
0.00426455
0.00445872
0.00428856
0.00462558
0.00452194
0.00457093
0.00427188
0.00417371
0.0089151
0.00357194
0.00396651
0.00460961
0.00827626
0.00301064
0.00459517
0.00468193
0.00408616
0.00665991
0.0507635
0.00397272
0.00338692
0.00410099
0.00434012
0.00310259
0.00444124
0.00426583
0.00949715
0.00455469
0.0558108
0.00818669
0.0269255
0.00455475
0.00454182
0.00373385
0.0432081
0.00334934
0.00313871
0.00467568
0.00307327
0.0192186
0.00456087
0.00402903
0.00455941
0.00387739
0.0323275
0.00368516
0.0044643
0.00432381
0.00405912
0.00430755
0.00605939
0.00292555
0.0111413
0.0527966
0.00459504
0.00304598
0.00391603
0.00512726
0.0149487
0.00458958
0.00438538
0.00406619
0.00312799
0.00454674
0.00465977
0.0046786
0.00359025
0.00414781
0.00460608
0.00371368
0.00770421
0.00320694
0.00452478
0.00854113
0.00410449
0.0040792
0.00400224
0.00455512
0.00429064
0.00445905
0.0137025
0.00437384
0.00621954
0.00400226
0.00347771
0.00450848
0.00418012
0.00450498
0.00437348
0.00342976
0.0106403
0.00820096
0.0546849
0.0105769
0.038193
0.00417801
0.00433486
0.00249365
0.00462771
0.00324607
0.0141803
0.00428172
0.00521814
0.00388744
0.0282154
0.00423246
0.00319783
0.00455118
0.0489964
0.0046954
0.0327843
0.00415172
0.00442673
0.00490061
0.0105642
0.00424652
0.00549478
0.00608943
0.00437254
0.0203
0.0055858
0.0233485
0.00348898
0.00235212
0.0154389
0.00471959
0.00460962
0.00371911
0.00440429
0.00344408
0.00331532
0.00316581
0.00390369
0.00316688
0.0536255
0.00437008
0.00428843
0.00446957
0.00456969
0.00294016
0.00340597
0.00420742
0.0033204
0.0441401
0.00439302
0.0567073
0.00721151
0.00451186
0.00536475
0.00398649
0.00319427
0.00318349
0.0229622
0.00442064
0.0045298
0.0525241
0.00436776
0.0045863
0.0035614
0.00454404
0.00434466
0.0304655
0.00442903
0.0386826
0.00398228
0.00388017
0.00428883
0.00430416
0.00653611
0.00326133
0.0136555
0.00444646
0.00293718
0.00535437
0.00307818
0.00347591
0.00527988
0.00531179
0.00424055
0.0079342
0.0137659
0.00406477
0.00431644
0.00346736
0.00381104
0.00466203
0.00350064
0.0509735
0.00426073
0.00468944
0.00450923
0.00406774
0.002856
0.00320476
0.00335466
0.0683802
0.00471026
0.00587727
0.0055567
0.00457273
0.00398859
0.00424965
0.00427238
0.0894915
0.00449186
0.0192507
0.0235578
0.0045616
0.00449523
0.00463863
0.0310731
0.0317589
0.0220625
0.00335273
0.00456415
0.00427712
0.0032803
0.0372057
0.00657883
0.00308856
0.00433423
0.00615925
0.00629396
0.00538722
0.00418419
0.0136141
0.0280331
0.00405072
0.00383485
0.00429706
0.00436466
0.0300641
0.00320052
0.00372552
0.00460092
0.00463676
0.00418976
0.0485062
0.00309421
0.00299281
0.0077398
0.00665378
0.00437113
0.0140165
0.00528396
0.00462017
0.00305143
0.00357264
0.00412232
0.0532705
0.00453711
0.00442211
0.00421727
0.00458376
0.00310682
0.00435432
0.00500777
0.00461338
0.00455832
0.0046882
0.00330213
0.00443114
0.0072193
0.00429071
0.00456035
0.0505088
0.00424331
0.00354092
0.00360938
0.00447234
0.00351979
0.00534353
0.00452304
0.00456292
0.00448218
0.00305145
0.00449743
0.00427723
0.00446145
0.0034359
0.00653301
0.00314086
0.00850366
0.00428669
0.0053977
0.00426141
0.00467559
0.00434766
0.00458658
0.00314588
0.0041387
0.00325561
0.00412847
0.00418581
0.00450366
0.0045352
0.0274424
0.00546844
0.0162719
0.00468828
0.00311458
0.0569503
0.00317527
0.00299218
0.00439228
0.0054881
0.00761035
0.00524179
0.00319262
0.00491333
0.00380341
0.00303782
0.00450486
0.0694121
0.00309397
0.00413601
0.00402789
0.00394259