/*--------------------------------*- C++ -*----------------------------------*\
| =========                 |                                                 |
| \\      /  F ield         | OpenFOAM: The Open Source CFD Toolbox           |
|  \\    /   O peration     | Version:  3.0.1                                 |
|   \\  /    A nd           | Web:      www.OpenFOAM.org                      |
|    \\/     M anipulation  |                                                 |
\*---------------------------------------------------------------------------*/
FoamFile
{
    version     2.0;
    format      ascii;
    class       volVectorField;
    location    "0.746549";
    object      U;
}
// * * * * * * * * * * * * * * * * * * * * * * * * * * * * * * * * * * * * * //

dimensions      [0 1 -1 0 0 0 0];

internalField   nonuniform List<vector> 
21246
(
(7.12 -5.79742 0)
(5.9355 -4.84225 7.02217e-19)
(5.6734 -3.78483 -3.61745e-19)
(5.42142 -2.98484 1.93475e-19)
(5.13473 -2.37403 -5.98332e-19)
(4.84297 -1.91737 1.07198e-19)
(4.56105 -1.56834 -2.47181e-19)
(4.30164 -1.29756 1.93333e-19)
(4.06689 -1.08219 1.03126e-19)
(3.85698 -0.910129 0)
(3.66837 -0.781464 -1.85349e-19)
(2.75194 -5.65774 0)
(3.23247 -5.20794 -2.64915e-19)
(3.77911 -4.5121 -2.80551e-18)
(4.11951 -3.78893 4.11241e-18)
(4.25482 -3.12487 -1.14141e-18)
(4.24511 -2.55139 1.57157e-19)
(4.14647 -2.07823 0)
(4.003 -1.6984 -2.82976e-19)
(3.84381 -1.39669 4.90882e-19)
(3.68486 -1.15929 -3.79024e-19)
(3.53143 -0.981071 -2.47496e-19)
(0.585163 -4.11046 7.49505e-19)
(1.61563 -4.47489 0)
(2.26893 -4.34069 4.5765e-18)
(2.84345 -3.95004 -3.14351e-18)
(3.24793 -3.45655 7.82248e-19)
(3.48541 -2.93814 8.33217e-19)
(3.58919 -2.45043 -1.81384e-18)
(3.59789 -2.02364 8.36739e-19)
(3.54944 -1.66672 9.09544e-19)
(3.47137 -1.37716 0)
(3.37455 -1.15391 0)
(0.0194406 -3.1297 -7.17577e-19)
(0.608875 -3.37465 0)
(1.17582 -3.64511 0)
(1.8023 -3.65364 -2.85724e-18)
(2.34431 -3.41908 -9.71132e-19)
(2.73392 -3.05064 1.14049e-18)
(2.98956 -2.64113 1.28545e-18)
(3.13006 -2.24138 0)
(3.18075 -1.87953 -9.05058e-19)
(3.17905 -1.56781 0)
(3.14702 -1.31256 0)
(-0.0351467 -2.58256 0)
(0.365339 -2.76523 -8.59978e-19)
(0.612913 -2.96322 -1.29277e-18)
(1.03144 -3.06237 -2.91789e-18)
(1.49663 -3.03674 1.47286e-18)
(1.94953 -2.87646 1.01003e-18)
(2.31142 -2.60484 1.28681e-18)
(2.57446 -2.27934 -1.91052e-18)
(2.75263 -1.94656 1.09462e-18)
(2.85632 -1.63693 -8.03022e-19)
(2.89592 -1.37351 0)
(0.0441111 -2.15845 9.5913e-19)
(0.34607 -2.27839 8.08678e-19)
(0.489268 -2.44696 -2.21633e-21)
(0.796632 -2.55599 1.82862e-18)
(1.13722 -2.58886 -1.33676e-18)
(1.50542 -2.52275 -9.75956e-19)
(1.85542 -2.36494 0)
(2.15282 -2.14113 1.78977e-18)
(2.38387 -1.88383 -5.57663e-20)
(2.54814 -1.62396 -3.21869e-18)
(2.64576 -1.39004 1.13379e-19)
(0.101398 -1.81808 -1.73968e-18)
(0.356698 -1.86978 0)
(0.453602 -2.00163 -1.09566e-18)
(0.67682 -2.09719 -7.93499e-19)
(0.937655 -2.149 1.2832e-18)
(1.23491 -2.13777 9.11794e-19)
(1.54053 -2.05802 0)
(1.82619 -1.91814 0)
(2.07249 -1.73612 -1.18153e-18)
(2.26817 -1.53441 2.53663e-18)
(2.40188 -1.33687 0)
(0.147769 -1.54725 7.90467e-19)
(0.3786 -1.54991 0)
(0.456008 -1.64347 0)
(0.63104 -1.7204 7.60094e-19)
(0.83733 -1.77094 0)
(1.07803 -1.78263 7.99671e-19)
(1.33701 -1.74812 -6.44202e-19)
(1.59491 -1.66705 -8.70398e-19)
(1.83468 -1.54655 -5.92233e-19)
(2.04078 -1.40109 0)
(2.19104 -1.25241 1.08515e-18)
(0.194044 -1.31624 -1.70768e-19)
(0.408131 -1.28786 0)
(0.474079 -1.35345 -4.07976e-19)
(0.621258 -1.41351 0)
(0.791587 -1.45648 0)
(0.991185 -1.47488 -8.22376e-19)
(1.21088 -1.46308 5.93399e-19)
(1.4384 -1.41799 0)
(1.66125 -1.34062 5.77826e-19)
(1.86502 -1.23795 -4.30937e-19)
(2.02517 -1.12538 -1.09529e-18)
(0.250418 -1.12333 3.11407e-19)
(0.45128 -1.06688 -3.84241e-21)
(0.503348 -1.11078 3.94977e-19)
(0.630042 -1.157 2.91692e-19)
(0.774785 -1.19147 4.54528e-19)
(0.94489 -1.20985 -1.44705e-18)
(1.13441 -1.2084 7.31546e-21)
(1.33537 -1.18384 5.87774e-19)
(1.5392 -1.13435 5.52875e-19)
(1.73423 -1.06157 -7.69454e-19)
(1.89608 -0.972583 8.31987e-19)
(0.306655 -0.977089 4.95849e-19)
(0.492963 -0.884115 -3.39677e-19)
(0.535308 -0.905986 0)
(0.647627 -0.938449 -4.22048e-19)
(0.774031 -0.96361 -3.3616e-19)
(0.923019 -0.978704 4.80758e-19)
(1.09008 -0.98117 1.5735e-20)
(1.26972 -0.968154 -3.78294e-19)
(1.4561 -0.937129 -4.14151e-19)
(1.63969 -0.887889 3.81137e-19)
(1.79156 -0.826509 0)
(0.346631 -0.851343 6.7326e-20)
(0.515605 -0.722909 1.06435e-19)
(0.559981 -0.726642 0)
(0.666026 -0.746872 0)
(0.781329 -0.762967 -9.61497e-20)
(0.9163 -0.773363 -1.57123e-19)
(1.06746 -0.776364 0)
(1.231 -0.76976 -8.37289e-20)
(1.403 -0.751059 -6.38173e-20)
(1.57631 -0.718857 0)
(1.72416 -0.675294 1.49962e-19)
(0.380897 -0.722014 0)
(0.534427 -0.568442 -1.89032e-19)
(0.58257 -0.560479 7.52102e-19)
(0.684644 -0.571799 -4.73804e-19)
(0.792968 -0.580506 -4.49322e-19)
(0.91905 -0.586355 5.56868e-19)
(1.05967 -0.588492 0)
(1.21198 -0.585465 -3.05741e-19)
(1.37334 -0.57496 0)
(1.53917 -0.554103 0)
(1.68555 -0.519282 -1.18891e-19)
(0.41687 -0.608713 9.29358e-19)
(0.560182 -0.426639 -1.68111e-19)
(0.6078 -0.405378 -1.46019e-19)
(0.705096 -0.40792 0)
(0.808225 -0.409927 5.08329e-19)
(0.928712 -0.411639 -2.70798e-19)
(1.06274 -0.412606 0)
(1.20766 -0.411983 8.67077e-19)
(1.36111 -0.407747 0)
(1.52001 -0.396484 8.85263e-19)
(1.65862 -0.373353 -1.23669e-20)
(0.442605 -0.507479 4.33907e-19)
(0.57412 -0.291802 1.87076e-20)
(0.628109 -0.256838 0)
(0.725551 -0.250954 0)
(0.827125 -0.246833 -3.3078e-19)
(0.945259 -0.244909 0)
(1.07591 -0.245022 0)
(1.21655 -0.246897 -1.09271e-18)
(1.36459 -0.248669 4.0172e-19)
(1.51847 -0.246512 -4.35922e-20)
(1.6549 -0.2324 0)
(0.469837 -0.396692 4.1187e-19)
(0.58708 -0.152674 -3.23925e-19)
(0.64955 -0.108317 1.0084e-18)
(0.74858 -0.09605 -7.88546e-19)
(0.850748 -0.0869459 -5.73313e-19)
(0.969222 -0.0823652 0)
(1.09931 -0.082692 0)
(1.23818 -0.088121 -9.47573e-19)
(1.3825 -0.0966189 6.88643e-19)
(1.53217 -0.103878 -3.20712e-20)
(1.66534 -0.0986568 -3.76873e-19)
(0.504611 -0.289518 5.32601e-21)
(0.609898 -0.0172488 2.8267e-20)
(0.67804 0.0386995 4.60078e-19)
(0.7772 0.0584791 7.26116e-19)
(0.881177 0.072505 3.70693e-20)
(1.00221 0.0787545 -1.21571e-18)
(1.13406 0.0765054 0)
(1.27294 0.065531 1.81132e-18)
(1.41412 0.048702 -6.91402e-19)
(1.55897 0.030875 0)
(1.68646 0.0262678 -6.40923e-19)
(0.535178 -0.188688 0)
(0.628003 0.115037 1.1909e-18)
(0.708612 0.185868 -4.71885e-19)
(0.81193 0.214682 1.3174e-18)
(0.921342 0.233203 1.78469e-20)
(1.0477 0.2394 8.03593e-19)
(1.18309 0.232534 0)
(1.32244 0.21312 -1.03207e-19)
(1.4598 0.185878 -5.56047e-19)
(1.59875 0.156084 -8.4082e-19)
(1.71956 0.141418 1.84421e-18)
(0.570235 -0.0813326 7.68816e-19)
(0.647253 0.25275 -6.13358e-20)
(0.74562 0.33877 -3.96043e-19)
(0.85745 0.376361 5.63989e-19)
(0.976907 0.397114 -5.23178e-19)
(1.11169 0.399315 0)
(1.25153 0.383094 0)
(1.3899 0.351272 -1.48334e-18)
(1.52095 0.311651 1.57826e-18)
(1.65043 0.270426 0)
(1.76562 0.245917 -5.78862e-19)
(0.617681 0.0367755 1.45532e-18)
(0.676181 0.399751 -2.49293e-18)
(0.798312 0.500721 1.22558e-18)
(0.923503 0.545189 5.05378e-19)
(1.05682 0.563329 -4.43462e-19)
(1.20099 0.554762 5.18521e-19)
(1.34287 0.522769 1.21917e-18)
(1.47535 0.474697 -1.04489e-20)
(1.59497 0.422023 -9.53931e-19)
(1.70947 0.371815 -1.29003e-18)
(1.81616 0.338865 9.71069e-19)
(0.682471 0.166368 -7.20001e-19)
(0.723661 0.558846 -1.22924e-18)
(0.87778 0.671806 7.2427e-19)
(1.02336 0.717418 -1.47201e-18)
(1.17267 0.723909 9.82778e-19)
(1.3226 0.694944 1.30862e-19)
(1.4586 0.64089 -4.66433e-20)
(1.57621 0.575395 -1.05418e-18)
(1.67737 0.512061 3.91538e-19)
(1.772 0.457167 6.36473e-19)
(1.86461 0.419249 4.07689e-19)
(0.81514 0.325792 -1.3377e-19)
(0.79932 0.733402 0)
(1.00944 0.845072 4.24873e-19)
(1.17832 0.878683 -1.09587e-18)
(1.33734 0.85855 2.16648e-19)
(1.47967 0.799199 -2.18756e-19)
(1.59475 0.721644 -1.19872e-19)
(1.68568 0.643876 4.56379e-19)
(1.76137 0.577237 -1.38974e-19)
(1.83341 0.524566 2.78089e-19)
(1.91114 0.485667 -5.90822e-19)
(0.777815 0.399318 1.53612e-19)
(0.961369 0.864969 -1.82603e-19)
(1.17128 0.983348 -2.61115e-19)
(1.3719 0.980609 0)
(1.52971 0.921038 0)
(1.64588 0.833545 0)
(1.7262 0.745161 1.31244e-19)
(1.78443 0.670406 8.94383e-20)
(1.83361 0.613565 1.70224e-19)
(1.88436 0.573746 1.15721e-19)
(1.94771 0.543449 1.92183e-19)
(2.53108 0.838473 9.31513e-19)
(1.50965 1.20354 -6.91456e-19)
(1.91978 1.01089 -1.01843e-20)
(1.92337 0.950092 0)
(1.91804 0.86223 -1.5329e-21)
(1.90229 0.774478 0)
(1.88973 0.704532 5.53323e-21)
(1.88752 0.654132 -9.95806e-20)
(1.89871 0.620797 0)
(1.92384 0.603481 -2.44676e-19)
(1.96925 0.592185 1.7173e-19)
(8.2781 -3.32561 9.15417e-18)
(6.46963 -1.38239 -2.21145e-20)
(6.73447 -1.82792 0)
(6.51221 -1.84874 0)
(5.91724 -1.57429 1.75679e-19)
(5.38297 -1.32067 0)
(4.93674 -1.09302 8.79836e-21)
(4.57417 -0.916171 -3.37154e-20)
(4.26659 -0.770645 6.35152e-21)
(4.00398 -0.652649 -3.31856e-21)
(3.77878 -0.568476 0)
(5.56208 -2.00901 0)
(4.53162 -0.0432657 0)
(5.77209 -0.228273 0)
(6.30532 -0.44398 0)
(6.21034 -0.486352 -9.53127e-19)
(5.83243 -0.51034 0)
(5.27442 -0.496669 0)
(4.83146 -0.458831 2.58211e-20)
(4.45145 -0.406122 -1.72831e-19)
(4.12722 -0.35069 3.31868e-21)
(3.85564 -0.308196 1.99696e-20)
(2.35518 -2.39527 1.30733e-17)
(2.9791 -0.455174 -1.7172e-17)
(4.4226 0.229993 5.8547e-18)
(5.33712 0.440615 0)
(5.7608 0.491789 3.98367e-18)
(5.79073 0.396915 -1.28396e-18)
(5.44513 0.245384 1.28942e-18)
(4.96716 0.106593 -8.65746e-19)
(4.56597 0.036596 7.99114e-19)
(4.21049 0.000906716 0)
(3.9168 -0.0254242 -3.11173e-19)
(0.517976 -4.09947 2.56101e-18)
(1.99334 -1.85332 -1.82058e-18)
(3.22698 -0.314439 0)
(4.24678 0.552486 -1.7776e-18)
(4.9799 0.995908 -2.32057e-18)
(5.35034 1.0915 2.91026e-19)
(5.2873 0.954854 -2.85472e-18)
(4.94572 0.717997 -9.04585e-19)
(4.55672 0.522048 0)
(4.21169 0.393116 7.02661e-19)
(3.91222 0.295957 -7.09402e-19)
(0.0984217 -6.30752 -2.31698e-18)
(1.32455 -3.45159 5.08449e-18)
(2.33246 -1.31949 -2.38047e-18)
(3.33734 0.140602 4.93262e-18)
(4.18304 1.05023 -2.03351e-19)
(4.74205 1.46879 -3.96226e-18)
(4.90473 1.49045 3.53511e-18)
(4.73765 1.26947 2.99575e-18)
(4.43135 1.00098 2.13645e-18)
(4.11477 0.787617 -1.98659e-18)
(3.83487 0.620877 4.92144e-19)
(0.0352569 -6.53053 0)
(0.877251 -4.37709 0)
(1.69356 -2.21494 2.17929e-18)
(2.61934 -0.424734 0)
(3.46976 0.854316 -2.21842e-18)
(4.10786 1.59404 0)
(4.41589 1.83212 0)
(4.3982 1.70282 -6.35116e-18)
(4.19644 1.42588 3.35875e-19)
(3.93608 1.15685 1.25998e-18)
(3.66766 0.942834 0)
(0.0270055 -6.80371 0)
(0.556132 -5.29137 -1.39653e-18)
(1.19692 -3.08804 -3.13174e-18)
(2.02781 -1.05129 1.5124e-18)
(2.84081 0.527938 4.19651e-18)
(3.49775 1.55393 1.20287e-18)
(3.88814 2.01549 -1.35878e-19)
(3.98206 2.01442 4.37845e-18)
(3.87588 1.77142 -1.60998e-18)
(3.68542 1.47919 -1.68409e-18)
(3.46731 1.21529 -7.82507e-19)
(0.058908 -6.96738 -1.53915e-18)
(0.416652 -5.78249 1.25141e-18)
(0.812126 -3.87353 -9.73601e-19)
(1.53199 -1.70909 1.41497e-18)
(2.28595 0.120271 -1.04992e-18)
(2.92593 1.40153 -1.36575e-18)
(3.35332 2.07662 9.30249e-19)
(3.52385 2.21654 -1.09678e-19)
(3.49816 2.03356 -1.52072e-18)
(3.37283 1.74545 1.76844e-18)
(3.22998 1.44324 1.57772e-18)
(0.0612358 -7.093 1.9543e-18)
(0.344258 -6.08818 0)
(0.544827 -4.52697 0)
(1.12728 -2.36061 0)
(1.79755 -0.34038 1.98131e-18)
(2.3947 1.16518 0)
(2.82594 2.03774 0)
(3.04403 2.31962 -1.21089e-18)
(3.08459 2.21067 2.17675e-18)
(3.02152 1.94419 -4.7294e-19)
(2.9344 1.63504 6.42895e-20)
(0.0537704 -7.20052 -8.13311e-19)
(0.301318 -6.31244 -2.61454e-19)
(0.370033 -5.02696 -1.16159e-18)
(0.798771 -2.96556 -3.25642e-19)
(1.36601 -0.824963 -5.06226e-19)
(1.90185 0.868104 -1.37174e-18)
(2.31285 1.91625 0)
(2.55501 2.33272 1.23386e-18)
(2.64733 2.30385 0)
(2.64091 2.06979 -9.08138e-19)
(2.61613 1.76583 -1.03737e-18)
(0.0342829 -7.29459 6.19609e-19)
(0.255558 -6.49675 -7.30098e-19)
(0.258073 -5.35512 6.14103e-19)
(0.536249 -3.49381 0)
(0.983314 -1.31879 -9.45698e-19)
(1.4417 0.52081 2.00463e-18)
(1.81488 1.72102 -5.23168e-20)
(2.0637 2.26117 -2.71581e-18)
(2.19629 2.31406 4.5765e-19)
(2.24269 2.12082 1.13292e-18)
(2.26592 1.83782 -3.09394e-19)
(-0.0154478 -7.3801 0)
(0.178482 -6.65704 4.98637e-19)
(0.161467 -5.60895 3.80701e-19)
(0.32445 -3.94006 -1.14065e-19)
(0.644912 -1.80183 1.13295e-19)
(1.01327 0.13872 7.88792e-20)
(1.33496 1.46302 4.71391e-20)
(1.57674 2.11049 5.19208e-19)
(1.74009 2.24204 -3.75959e-19)
(1.83787 2.09485 -4.52745e-19)
(1.90551 1.8409 1.29895e-19)
(-0.0594264 -7.45247 -1.09549e-18)
(0.101323 -6.78146 6.17045e-19)
(0.0679857 -5.81236 7.12143e-19)
(0.141578 -4.30991 -6.12684e-19)
(0.34412 -2.25943 0)
(0.612999 -0.268712 6.20853e-19)
(0.873432 1.14735 0)
(1.0989 1.88244 1.32426e-19)
(1.28591 2.08672 -1.8966e-20)
(1.43173 1.99048 3.50017e-19)
(1.56639 1.76933 -4.2971e-20)
(-0.0930145 -7.49873 1.03935e-18)
(0.0216832 -6.87811 -1.45567e-18)
(-0.03004 -5.9875 6.66671e-19)
(-0.0279101 -4.63217 -5.37108e-19)
(0.0713963 -2.69583 8.19136e-19)
(0.235804 -0.701607 5.63032e-19)
(0.429455 0.77316 0)
(0.633828 1.57447 0)
(0.841495 1.84448 0)
(1.03323 1.80445 -4.10628e-19)
(1.2297 1.62773 0)
(-0.124337 -7.51891 1.49123e-18)
(-0.0685794 -6.94779 -1.17765e-18)
(-0.138878 -6.13591 1.92353e-18)
(-0.195094 -4.90478 5.11009e-19)
(-0.180217 -3.10836 -2.38832e-18)
(-0.116407 -1.15448 -7.85775e-20)
(0.00384708 0.341079 0)
(0.185916 1.18543 -4.66626e-19)
(0.415289 1.51112 1.50861e-18)
(0.65342 1.53168 0)
(0.900281 1.41206 3.34155e-19)
(-0.148831 -7.51886 -1.45753e-18)
(-0.162001 -6.97801 -7.31941e-19)
(-0.25342 -6.23686 -5.07573e-20)
(-0.367696 -5.15903 -3.89947e-20)
(-0.430772 -3.49376 1.59312e-18)
(-0.448432 -1.62973 -1.1493e-18)
(-0.396021 -0.151876 0)
(-0.237 0.707809 1.74514e-18)
(0.0155305 1.07991 -6.87425e-19)
(0.303728 1.16634 -8.8458e-19)
(0.619602 1.11426 -1.48282e-19)
(-0.168087 -7.48992 8.93625e-19)
(-0.25973 -6.97587 -7.04444e-19)
(-0.377042 -6.28827 -1.1526e-18)
(-0.54277 -5.32561 -1.762e-18)
(-0.687107 -3.92323 0)
(-0.771019 -2.1293 0)
(-0.769928 -0.715033 -2.50884e-18)
(-0.624172 0.131436 -8.52804e-19)
(-0.345107 0.543577 -1.39802e-20)
(-0.0140714 0.699923 -5.95577e-19)
(0.377491 0.728899 8.94737e-19)
(-0.189917 -7.41698 -9.41644e-19)
(-0.371272 -6.93224 0)
(-0.520998 -6.299 2.17036e-18)
(-0.732146 -5.44772 1.81986e-18)
(-0.950097 -4.29456 1.23549e-18)
(-1.08721 -2.71959 -1.75165e-18)
(-1.11183 -1.3603 3.69694e-18)
(-0.96141 -0.556048 -8.0483e-19)
(-0.649214 -0.111715 2.22056e-19)
(-0.280464 0.122266 1.89823e-19)
(0.174579 0.26348 -3.91008e-19)
(-0.223072 -7.28305 -8.21055e-19)
(-0.507179 -6.83022 1.31974e-18)
(-0.700758 -6.26012 -8.07694e-20)
(-0.960988 -5.53452 -1.59706e-18)
(-1.2251 -4.60427 -1.28756e-18)
(-1.39428 -3.40414 -1.50903e-18)
(-1.41808 -2.12298 2.50325e-19)
(-1.23833 -1.36786 0)
(-0.886712 -0.89363 -3.76414e-19)
(-0.488506 -0.567889 5.4888e-19)
(0.0215955 -0.275068 -1.69311e-19)
(-0.277857 -7.0605 -7.7318e-19)
(-0.679528 -6.64513 1.16663e-18)
(-0.93732 -6.16465 3.69611e-18)
(-1.24355 -5.61147 -1.55424e-18)
(-1.51792 -4.95073 3.03768e-18)
(-1.66696 -4.10539 -1.42679e-18)
(-1.65486 -3.09393 -6.31271e-19)
(-1.40722 -2.33364 0)
(-1.01823 -1.82144 3.93673e-19)
(-0.608517 -1.38716 0)
(-0.140508 -0.958261 2.54445e-19)
(-0.432146 -6.66867 1.61658e-18)
(-0.953763 -6.31011 -2.48791e-18)
(-1.33098 -5.96348 -9.62951e-19)
(-1.6724 -5.64408 -1.41922e-18)
(-1.87848 -5.29016 7.76567e-19)
(-1.92798 -4.78427 -9.54683e-20)
(-1.82003 -4.1121 5.49578e-19)
(-1.46983 -3.38195 3.84299e-19)
(-1.06648 -2.79646 2.18124e-19)
(-0.679104 -2.24475 0)
(-0.201704 -1.67109 -9.8418e-20)
(-1.17844 -5.79772 0)
(-1.64 -5.47645 -6.16349e-19)
(-1.75794 -5.4301 0)
(-1.8406 -5.45307 -1.12514e-18)
(-1.70197 -5.36598 -1.40342e-18)
(-1.33899 -4.96027 1.21083e-18)
(-0.850016 -4.2182 0)
(-0.411579 -3.50347 -7.04018e-20)
(-0.0336829 -2.78739 1.50738e-19)
(0.327545 -2.10317 3.99808e-19)
(0.696609 -1.41099 -2.79655e-19)
(-2.19376 -4.35659 0)
(-0.437925 -3.85528 8.60604e-19)
(-0.653552 -3.63467 -2.21539e-18)
(-0.221265 -3.14711 1.56345e-18)
(0.303504 -2.60698 2.05015e-19)
(0.748286 -2.15661 3.5299e-19)
(1.09103 -1.69774 1.51141e-20)
(1.31967 -1.23056 7.92401e-20)
(1.47209 -0.78654 -1.85975e-19)
(1.58423 -0.405288 2.15651e-19)
(1.68779 -0.0384678 -3.11509e-19)
(0.839392 -0.162164 0)
(0.0327795 -0.155184 -2.55558e-20)
(0.678819 -0.0440604 -1.00117e-18)
(1.21444 0.0647442 7.00516e-19)
(1.54366 0.138641 -2.1459e-19)
(1.73373 0.207929 0)
(1.83333 0.284506 -2.17894e-20)
(1.87464 0.361762 -6.26897e-20)
(1.89556 0.432415 3.0145e-19)
(1.91565 0.498857 -4.39523e-19)
(1.94607 0.577806 3.26522e-19)
(1.39828 5.87276 0)
(1.49194 4.06834 -1.61686e-19)
(1.51153 3.46815 0)
(1.59019 2.73632 -1.27777e-18)
(1.69058 2.17822 7.84544e-19)
(1.80915 1.75891 0)
(1.92344 1.44865 4.56699e-19)
(2.03076 1.21488 -2.74529e-19)
(2.13505 1.03609 0)
(2.23975 0.899689 -3.77827e-19)
(2.33814 0.805217 2.06007e-19)
(2.86607 4.83211 4.33347e-19)
(3.25401 2.18616 -8.78406e-19)
(3.08432 3.14795 -1.42075e-18)
(2.81227 2.677 2.84111e-19)
(2.56976 2.29861 2.37023e-19)
(2.42059 1.90611 0)
(2.35694 1.57293 -1.20166e-19)
(2.35199 1.30722 2.48044e-19)
(2.38616 1.10233 -2.08388e-19)
(2.44956 0.9483 1.68063e-19)
(2.52942 0.843421 6.97829e-20)
(2.73833 2.99148 -6.98319e-18)
(3.59973 0.486403 1.13734e-18)
(3.86322 2.14118 2.09836e-18)
(3.66514 1.9049 -1.24551e-19)
(3.34825 1.91194 -2.84508e-19)
(3.04548 1.72566 -2.75296e-19)
(2.82723 1.50437 4.66185e-19)
(2.70004 1.28476 0)
(2.64847 1.09683 0)
(2.65733 0.947281 4.8177e-20)
(2.7125 0.846416 -3.11367e-20)
(1.90419 1.69367 -6.18021e-18)
(3.18961 -0.343899 0)
(3.89648 1.16628 -4.31682e-18)
(3.93072 0.939331 1.49512e-19)
(3.77483 1.27342 0)
(3.4825 1.28041 6.13305e-19)
(3.21446 1.23037 -5.5872e-19)
(3.01315 1.12064 4.32122e-19)
(2.89331 0.996951 0)
(2.84983 0.882475 0)
(2.87387 0.801905 0)
(1.00312 1.01893 0)
(2.51406 -0.605003 0)
(3.49505 0.480597 8.99365e-19)
(3.76281 0.189452 2.23282e-18)
(3.83115 0.646333 0)
(3.64371 0.748589 0)
(3.4256 0.843577 0)
(3.22107 0.849813 1.68456e-19)
(3.07453 0.81349 3.27039e-19)
(2.99937 0.758267 -1.35458e-19)
(2.99476 0.71756 2.51873e-19)
(0.211121 0.707034 0)
(1.82603 -0.618397 -4.44706e-18)
(2.9475 0.0631146 3.37764e-18)
(3.39196 -0.266796 -5.80509e-19)
(3.63858 0.160963 -3.49057e-19)
(3.57755 0.27788 0)
(3.45311 0.455346 0)
(3.2949 0.541866 -2.39494e-19)
(3.16298 0.583855 -2.39641e-19)
(3.08267 0.591076 -6.05225e-20)
(3.06385 0.595639 -1.27438e-19)
(-0.500026 0.612558 6.3064e-20)
(1.18644 -0.511837 4.43446e-19)
(2.3882 -0.165878 -2.76132e-18)
(2.96676 -0.507881 1.39624e-18)
(3.3323 -0.168203 3.35585e-19)
(3.37898 -0.073078 -1.61781e-18)
(3.34878 0.128586 1.23631e-18)
(3.25168 0.256127 -2.44676e-19)
(3.15783 0.349971 3.74537e-19)
(3.09359 0.405747 -2.15041e-19)
(3.07843 0.450016 1.62882e-19)
(-1.1289 0.689947 -6.08109e-20)
(0.609728 -0.323417 1.55607e-19)
(1.85716 -0.257284 4.02968e-18)
(2.54798 -0.609307 -6.07669e-18)
(2.99667 -0.37194 4.161e-18)
(3.12629 -0.307319 -1.64474e-18)
(3.16893 -0.116283 9.80047e-19)
(3.13043 0.0204358 -6.64848e-19)
(3.07943 0.141316 -2.1007e-19)
(3.04021 0.229745 -6.61264e-19)
(3.03827 0.300777 3.10965e-19)
(-1.65384 0.865897 2.92325e-18)
(0.084035 -0.0935587 4.28841e-18)
(1.36099 -0.247854 -3.39128e-18)
(2.15096 -0.616312 2.79291e-18)
(2.66526 -0.483042 -1.6768e-18)
(2.86275 -0.450688 0)
(2.95853 -0.286716 0)
(2.96623 -0.156888 1.40219e-19)
(2.9525 -0.028901 6.00125e-19)
(2.93856 0.0756081 1.27123e-19)
(2.95009 0.163377 5.92494e-19)
(-2.10889 1.08845 0)
(-0.420028 0.157733 0)
(0.88369 -0.164446 2.47511e-18)
(1.76578 -0.558591 -2.94549e-18)
(2.34263 -0.527786 0)
(2.60356 -0.528389 0)
(2.74135 -0.399083 0)
(2.78477 -0.283678 2.42157e-19)
(2.79946 -0.159914 3.14452e-19)
(2.80648 -0.0504794 -6.24505e-20)
(2.83066 0.0432117 -8.53553e-19)
(-2.52497 1.3684 -4.93913e-19)
(-0.903844 0.437703 0)
(0.419199 -0.0189463 -2.05339e-18)
(1.38465 -0.453588 3.68595e-18)
(2.02642 -0.52165 -1.38544e-18)
(2.35126 -0.559009 -4.69189e-19)
(2.52711 -0.467849 0)
(2.59979 -0.370534 -1.47909e-18)
(2.63545 -0.256849 8.62527e-20)
(2.65817 -0.147715 4.40138e-19)
(2.68963 -0.0550163 0)
(-2.88062 1.68222 2.30732e-18)
(-1.34897 0.730092 3.16863e-19)
(-0.0199484 0.171762 0)
(1.0137 -0.313579 7.80441e-19)
(1.71879 -0.47511 1.14755e-18)
(2.10608 -0.554971 -4.23987e-19)
(2.31899 -0.503885 0)
(2.41731 -0.427033 8.2534e-19)
(2.46857 -0.326709 5.64507e-19)
(2.50155 -0.222544 -8.39632e-19)
(2.53544 -0.131886 -4.78693e-19)
(-3.15559 1.97427 -1.58103e-18)
(-1.7527 1.01088 4.44079e-18)
(-0.434589 0.387361 -2.2187e-18)
(0.649427 -0.150706 -9.99694e-19)
(1.41402 -0.399375 -4.80193e-19)
(1.86278 -0.526321 1.46107e-18)
(2.11429 -0.516425 -5.86322e-19)
(2.2377 -0.46142 -9.00277e-19)
(2.30231 -0.375509 -4.95698e-19)
(2.343 -0.278595 -2.77444e-19)
(2.37866 -0.19171 4.82386e-19)
(-3.3722 2.24304 0)
(-2.12558 1.28569 -2.12442e-18)
(-0.839586 0.624326 1.65878e-18)
(0.276176 0.0333709 6.57256e-20)
(1.09728 -0.298657 9.05606e-19)
(1.60916 -0.477869 -1.28348e-18)
(1.90448 -0.511029 1.94162e-18)
(2.05648 -0.47932 -1.35127e-18)
(2.13588 -0.407739 4.83768e-19)
(2.18429 -0.317876 6.45901e-19)
(2.22131 -0.233067 -7.7927e-19)
(-3.55157 2.49136 2.37199e-18)
(-2.46008 1.5473 -2.03489e-18)
(-1.2283 0.874537 2.19534e-18)
(-0.102615 0.236244 5.44087e-19)
(0.766567 -0.173318 -2.04609e-18)
(1.33926 -0.409197 1.16201e-18)
(1.68231 -0.488067 -3.68605e-20)
(1.86763 -0.482232 -6.13137e-19)
(1.96569 -0.425653 0)
(2.02313 -0.343881 0)
(2.06136 -0.26181 -3.02855e-19)
(-3.67066 2.6899 6.61689e-19)
(-2.74475 1.78487 -1.83195e-18)
(-1.59869 1.12993 1.36474e-18)
(-0.488941 0.457704 0)
(0.415912 -0.0216467 -3.66037e-19)
(1.04473 -0.316844 1.00437e-18)
(1.43834 -0.44453 -7.26551e-19)
(1.66286 -0.468197 0)
(1.78624 -0.428431 -6.25213e-19)
(1.85825 -0.355854 8.0643e-20)
(1.90446 -0.276056 -2.43277e-19)
(-3.75203 2.87564 -3.27455e-19)
(-2.98903 2.01156 0)
(-1.95456 1.39503 -1.61335e-18)
(-0.889371 0.705702 4.77565e-20)
(0.0349487 0.164482 3.43319e-19)
(0.713458 -0.192742 -2.2408e-19)
(1.16016 -0.373167 9.63476e-19)
(1.43125 -0.431207 -2.69194e-19)
(1.58959 -0.411934 0)
(1.68477 -0.351623 5.42022e-19)
(1.74631 -0.276219 4.29399e-19)
(-3.78387 3.00262 -4.82607e-18)
(-3.18291 2.2157 1.7922e-18)
(-2.28429 1.66288 0)
(-1.29708 0.980608 0)
(-0.377175 0.391 0)
(0.339416 -0.0269726 -5.81106e-19)
(0.837768 -0.262691 8.70701e-19)
(1.16189 -0.360516 -3.56964e-19)
(1.36652 -0.367784 0)
(1.49653 -0.325596 -3.96029e-19)
(1.58145 -0.262581 1.37542e-19)
(-3.79288 3.11374 0)
(-3.33266 2.4077 0)
(-2.57941 1.92898 -1.16321e-18)
(-1.70433 1.28067 1.69541e-18)
(-0.821808 0.663407 -6.14184e-19)
(-0.0864742 0.19289 7.11163e-19)
(0.458612 -0.0967881 -7.99371e-19)
(0.841851 -0.239395 -9.05892e-20)
(1.10535 -0.282225 2.67906e-19)
(1.28487 -0.267594 -2.71889e-19)
(1.40863 -0.22429 1.21549e-19)
(-3.78445 3.2153 -2.41265e-18)
(-3.44603 2.58377 0)
(-2.8362 2.18244 0)
(-2.1042 1.59584 7.7029e-19)
(-1.30203 0.986227 -1.07635e-18)
(-0.575465 0.485438 3.72164e-19)
(0.00868827 0.149575 3.49821e-19)
(0.456696 -0.0426023 -2.26166e-19)
(0.791199 -0.1339 6.62233e-20)
(1.03401 -0.161848 -7.27717e-21)
(1.21035 -0.150092 -2.54666e-20)
(-3.75084 3.30641 4.82126e-18)
(-3.53373 2.73766 -1.74186e-18)
(-3.06521 2.41022 0)
(-2.4999 1.91458 0)
(-1.82029 1.36724 0)
(-1.13411 0.87973 0)
(-0.521232 0.513933 -9.54071e-21)
(-0.00680519 0.265379 -1.96579e-20)
(0.405723 0.10753 -7.43491e-22)
(0.720739 0.0161741 1.1464e-20)
(0.959948 -0.0238315 -2.87859e-21)
(-3.68483 3.19013 2.60802e-18)
(-3.58613 2.78157 -1.9296e-18)
(-3.30772 2.56536 0)
(-2.89757 2.2136 -5.67607e-19)
(-2.35797 1.81165 4.75725e-19)
(-1.7392 1.40322 -1.58777e-19)
(-1.11749 1.03498 8.28663e-20)
(-0.550178 0.72664 0)
(-0.0683767 0.486914 7.87059e-22)
(0.3175 0.314601 0)
(0.643485 0.214517 0)
(-3.88283 3.47946 2.72953e-18)
(-3.68567 3.03941 -1.94741e-18)
(-3.4708 2.89756 0)
(-3.15666 2.69576 -9.31999e-20)
(-2.74205 2.44423 0)
(-2.23596 2.12191 3.17778e-20)
(-1.67989 1.74948 -2.1227e-20)
(-1.13388 1.37363 6.71948e-20)
(-0.643077 1.03925 3.95518e-20)
(-0.238819 0.769636 0)
(0.168484 0.566279 0)
(-1.84325 1.79363 3.32544e-18)
(-2.23878 1.8613 -1.39165e-19)
(-2.07818 2.04955 1.881e-19)
(-2.01538 2.1898 -1.15097e-19)
(-1.93748 2.29474 -5.62151e-20)
(-1.81584 2.32413 4.28372e-20)
(-1.62007 2.24441 0)
(-1.32038 2.04055 -5.91196e-20)
(-0.982258 1.77903 7.40343e-20)
(-0.66088 1.50353 6.36618e-20)
(-0.273447 1.17698 -1.2206e-19)
(-2.10533 3.50459 1.90838e-18)
(-1.43295 2.66657 -6.47503e-19)
(-0.244566 2.25293 4.10588e-20)
(0.478034 1.94534 -4.76665e-19)
(0.952437 1.67382 -5.71823e-19)
(1.29307 1.4357 2.68537e-19)
(1.5397 1.23475 -2.90707e-19)
(1.72829 1.06807 2.85274e-19)
(1.88301 0.932166 0)
(2.01705 0.823859 0)
(2.13204 0.74361 2.56808e-19)
(-2.06896 -1.43622 8.38927e-18)
(-1.45961 0.0180624 5.10847e-18)
(-0.981322 0.697161 -3.72097e-18)
(-0.276754 1.06009 9.4864e-19)
(0.330804 1.14636 -6.47205e-19)
(0.800749 1.10972 0)
(1.15402 1.02246 3.63313e-19)
(1.41876 0.919343 -6.72553e-19)
(1.62374 0.821498 0)
(1.78783 0.736952 1.61436e-19)
(1.91455 0.669578 1.7063e-19)
(-1.34108 -2.32507 0)
(-0.623831 -1.137 -8.10523e-18)
(-0.769961 -0.791133 -8.70307e-20)
(-0.459099 -0.171969 4.42986e-18)
(-0.0675154 0.303378 -2.05776e-18)
(0.394616 0.581634 1.88758e-18)
(0.805476 0.692983 -1.23003e-19)
(1.13431 0.707394 8.9892e-19)
(1.38799 0.677355 -2.81972e-19)
(1.58004 0.631278 -1.6057e-19)
(1.71694 0.581411 -7.42177e-22)
(-0.495656 -2.51168 -4.20549e-18)
(0.335199 -1.43398 7.97056e-18)
(-0.158927 -1.41274 -3.46697e-18)
(-0.0830398 -0.865744 0)
(0.0296454 -0.4285 1.54814e-19)
(0.287622 -0.0514702 1.60317e-18)
(0.597199 0.208213 -9.37364e-19)
(0.89363 0.358773 -2.45185e-22)
(1.15549 0.432318 -7.86728e-20)
(1.36953 0.459403 9.3257e-20)
(1.52785 0.459343 5.53669e-20)
(0.202234 -2.37108 0)
(1.05021 -1.48646 -5.84537e-20)
(0.474635 -1.6636 2.00545e-18)
(0.459965 -1.19997 -1.57593e-18)
(0.39745 -0.856799 3.14667e-19)
(0.486262 -0.478812 -4.16189e-19)
(0.658942 -0.177531 -3.58115e-19)
(0.871395 0.0418542 -1.32045e-19)
(1.08517 0.182781 0)
(1.27444 0.264959 -9.02683e-20)
(1.41737 0.30465 1.48482e-19)
(0.701664 -2.11607 -1.15983e-19)
(1.51877 -1.41833 5.31916e-20)
(0.985511 -1.68735 8.44379e-19)
(0.955401 -1.29852 4.26685e-19)
(0.806453 -1.07901 -1.04264e-18)
(0.788526 -0.752991 1.498e-18)
(0.841351 -0.468285 -8.3714e-19)
(0.956141 -0.226429 -7.70066e-19)
(1.09745 -0.0453057 5.70515e-19)
(1.23756 0.0798538 0)
(1.34683 0.156386 0)
(1.04261 -1.83221 8.47348e-20)
(1.81331 -1.29797 6.12306e-19)
(1.35639 -1.59988 -1.07993e-19)
(1.3357 -1.25883 8.96436e-20)
(1.15855 -1.15039 3.53054e-19)
(1.09458 -0.878925 -9.38265e-19)
(1.06433 -0.642295 9.61173e-19)
(1.09832 -0.412897 -2.31543e-19)
(1.16829 -0.22355 4.13687e-20)
(1.2542 -0.0796032 2.13563e-19)
(1.32568 0.0153817 -3.46414e-19)
(1.28322 -1.56902 2.4259e-18)
(1.99285 -1.18452 5.02008e-19)
(1.61981 -1.47357 -5.22247e-19)
(1.61592 -1.16368 -6.39067e-19)
(1.42315 -1.13443 2.60435e-22)
(1.35677 -0.902359 0)
(1.27883 -0.719456 -2.69571e-19)
(1.25731 -0.518833 5.71292e-19)
(1.26911 -0.341192 6.70272e-20)
(1.30427 -0.195072 3.64671e-19)
(1.33842 -0.0906339 5.13964e-20)
(1.4702 -1.33671 0)
(2.12383 -1.08972 2.22645e-19)
(1.79392 -1.34251 -5.50519e-20)
(1.83412 -1.05406 1.71138e-19)
(1.62508 -1.06757 2.4256e-19)
(1.56186 -0.871958 -1.50972e-19)
(1.4621 -0.731568 -1.10745e-19)
(1.40757 -0.56164 2.60259e-19)
(1.37822 -0.404719 2.63176e-20)
(1.37259 -0.267812 -1.12879e-19)
(1.37209 -0.166497 7.40927e-20)
(1.60512 -1.1455 0)
(2.25367 -0.982859 -3.58099e-19)
(1.92565 -1.2057 2.79169e-19)
(1.98849 -0.957422 0)
(1.78732 -0.976214 0)
(1.72264 -0.81198 -5.23442e-20)
(1.61198 -0.703336 3.3559e-19)
(1.53831 -0.560328 -8.91126e-20)
(1.48189 -0.425999 1.50043e-20)
(1.44716 -0.303329 1.84627e-19)
(1.42024 -0.208306 4.80383e-20)
(1.68107 -0.993409 1.57783e-18)
(2.35538 -0.865022 -9.723e-19)
(2.04461 -1.06844 0)
(2.10336 -0.853421 4.21109e-19)
(1.91427 -0.876391 0)
(1.84907 -0.735049 -2.35063e-19)
(1.73246 -0.650686 6.80834e-20)
(1.64732 -0.52998 6.82207e-20)
(1.57313 -0.417207 -1.85097e-20)
(1.51919 -0.309927 -7.37873e-20)
(1.47547 -0.223936 3.56146e-20)
(1.72254 -0.859562 2.6109e-18)
(2.42077 -0.744735 -9.90749e-19)
(2.1369 -0.940283 -1.23844e-18)
(2.19194 -0.744324 5.61517e-19)
(2.01196 -0.773128 0)
(1.94744 -0.648044 0)
(1.82745 -0.583148 -1.75133e-19)
(1.73535 -0.480749 -6.65368e-20)
(1.64911 -0.387815 -1.32644e-19)
(1.58153 -0.296523 5.56822e-20)
(1.52526 -0.222464 2.20046e-20)
(1.75062 -0.732847 -2.5876e-19)
(2.47143 -0.621894 1.23818e-18)
(2.20461 -0.820489 -3.49494e-19)
(2.26023 -0.632607 0)
(2.08517 -0.669325 -2.52923e-19)
(2.02244 -0.55495 2.94628e-19)
(1.89984 -0.506845 2.39516e-20)
(1.80354 -0.419491 2.40331e-19)
(1.70884 -0.344857 0)
(1.63184 -0.269324 1.21661e-21)
(1.56373 -0.212992 -1.18041e-19)
(1.76368 -0.595091 -1.29513e-18)
(2.50068 -0.489505 1.01913e-19)
(2.25712 -0.69748 -2.38515e-19)
(2.30859 -0.521546 1.27355e-18)
(2.13973 -0.56303 8.55877e-21)
(2.07674 -0.459456 3.92084e-19)
(1.9527 -0.424817 1.56942e-19)
(1.85325 -0.351144 -4.71057e-19)
(1.75221 -0.293538 5.89035e-20)
(1.66849 -0.233375 1.09334e-19)
(1.59405 -0.191935 6.19799e-20)
(1.75199 -0.457247 -1.68316e-19)
(2.50304 -0.363864 -2.35737e-19)
(2.29297 -0.574409 1.3205e-18)
(2.33688 -0.413832 -1.27629e-18)
(2.17859 -0.453352 1.17886e-19)
(2.11139 -0.363837 -6.87325e-19)
(1.98792 -0.338091 2.24695e-20)
(1.88494 -0.278816 -1.30627e-19)
(1.7794 -0.2366 0)
(1.68968 -0.19283 8.19965e-20)
(1.6109 -0.166296 -1.38667e-19)
(1.73283 -0.322349 1.37647e-18)
(2.4863 -0.242263 -1.00245e-18)
(2.31471 -0.450423 -8.605e-20)
(2.34828 -0.308834 0)
(2.20275 -0.341868 8.5285e-20)
(2.12875 -0.268427 0)
(2.00678 -0.248841 2.43172e-19)
(1.89988 -0.204726 -6.39335e-20)
(1.79108 -0.176817 4.44033e-20)
(1.69617 -0.149845 0)
(1.61322 -0.137744 0)
(1.70502 -0.184668 8.6876e-20)
(2.45137 -0.116242 0)
(2.32275 -0.321177 8.83669e-20)
(2.34465 -0.203652 0)
(2.21248 -0.228748 6.7841e-19)
(2.13005 -0.17268 -4.60641e-19)
(2.00961 -0.158691 -7.74841e-21)
(1.89883 -0.130433 3.94319e-20)
(1.7879 -0.116622 -1.20153e-19)
(1.6893 -0.106328 5.65091e-20)
(1.60283 -0.109011 0)