/*--------------------------------*- C++ -*----------------------------------*\
| =========                 |                                                 |
| \\      /  F ield         | OpenFOAM: The Open Source CFD Toolbox           |
|  \\    /   O peration     | Version:  3.0.1                                 |
|   \\  /    A nd           | Web:      www.OpenFOAM.org                      |
|    \\/     M anipulation  |                                                 |
\*---------------------------------------------------------------------------*/
FoamFile
{
    version     2.0;
    format      ascii;
    class       surfaceScalarField;
    location    "0.949806";
    object      phi;
}
// * * * * * * * * * * * * * * * * * * * * * * * * * * * * * * * * * * * * * //

dimensions      [0 3 -1 0 0 0 0];

internalField   nonuniform List<scalar> 
32369
(
-7.67315e-06
1.95087e-05
-1.18355e-05
-1.39388e-05
1.77975e-05
-1.15319e-05
-2.21893e-05
2.06656e-05
-1.24152e-05
-3.03315e-05
2.18552e-05
-1.37129e-05
-3.8598e-05
2.39677e-05
-1.57012e-05
-4.72097e-05
2.69788e-05
-1.83672e-05
-5.66217e-05
3.12337e-05
-2.18217e-05
-6.72771e-05
3.69284e-05
-2.6273e-05
-7.96586e-05
4.44204e-05
-3.20389e-05
-9.4352e-05
5.42465e-05
-3.95531e-05
6.7195e-05
-4.93652e-05
-0.000112182
1.17684e-06
1.83319e-05
5.61105e-07
1.84133e-05
-4.43681e-06
2.56635e-05
-1.08854e-05
2.83038e-05
-1.8965e-05
3.20473e-05
-2.80351e-05
3.60489e-05
-3.81897e-05
4.13883e-05
-4.97352e-05
4.84739e-05
-6.31816e-05
5.78668e-05
-7.90749e-05
7.01397e-05
8.62225e-05
-9.81023e-05
1.84405e-06
1.64878e-05
1.69219e-06
1.85651e-05
-2.93347e-07
2.76491e-05
-3.71165e-06
3.17221e-05
-9.5369e-06
3.78726e-05
-1.69988e-05
4.35108e-05
-2.60369e-05
5.04265e-05
-3.6642e-05
5.9079e-05
-4.90859e-05
7.03107e-05
-6.38858e-05
8.49395e-05
0.000104012
-8.16756e-05
1.35233e-06
1.51355e-05
8.21308e-07
1.90961e-05
1.16422e-07
2.83539e-05
-1.73857e-06
3.35771e-05
-5.45299e-06
4.1587e-05
-1.06621e-05
4.87199e-05
-1.76437e-05
5.7408e-05
-2.63128e-05
6.77481e-05
-3.67766e-05
8.07746e-05
-4.93081e-05
9.7471e-05
0.000119017
-6.43125e-05
1.09435e-06
1.40411e-05
5.29859e-07
1.96606e-05
2.12883e-07
2.86709e-05
-1.0649e-06
3.48549e-05
-3.3367e-06
4.38588e-05
-6.73158e-06
5.21148e-05
-1.16731e-05
6.23495e-05
-1.81443e-05
7.42193e-05
-2.62891e-05
8.89193e-05
-3.62328e-05
0.000107415
0.000131082
-4.82977e-05
1.1071e-06
1.2934e-05
9.28049e-07
1.98397e-05
9.36511e-07
2.86625e-05
1.44556e-08
3.57769e-05
-1.36378e-06
4.5237e-05
-3.59855e-06
5.43496e-05
-6.94883e-06
6.56998e-05
-1.15049e-05
7.87754e-05
-1.74717e-05
9.48862e-05
-2.49691e-05
0.000114912
0.00014029
-3.41776e-05
1.13951e-06
1.17945e-05
1.39885e-06
1.95803e-05
1.76705e-06
2.82943e-05
1.2399e-06
3.63041e-05
4.95865e-07
4.59811e-05
-9.28066e-07
5.57735e-05
-3.07005e-06
6.78418e-05
-6.10841e-06
8.18137e-05
-1.02351e-05
9.90129e-05
-1.55762e-05
0.000120253
0.000147017
-2.23029e-05
1.09139e-06
1.07031e-05
1.65862e-06
1.90131e-05
2.28139e-06
2.76715e-05
2.18919e-06
3.63963e-05
1.9728e-06
4.61975e-05
1.2082e-06
5.65381e-05
2.88239e-08
6.90211e-05
-1.76955e-06
8.36121e-05
-4.3191e-06
0.000101562
-7.69506e-06
0.000123629
0.000151364
-1.20422e-05
1.0653e-06
9.63784e-06
1.93967e-06
1.81387e-05
2.82354e-06
2.67876e-05
3.14833e-06
3.60715e-05
3.38815e-06
4.59576e-05
3.19861e-06
5.67277e-05
2.79545e-06
6.94243e-05
1.9914e-06
8.44161e-05
7.78432e-07
0.000102775
-1.00954e-06
0.000125417
0.00015378
-3.4253e-06
1.23224e-06
8.40559e-06
2.47126e-06
1.68997e-05
3.67459e-06
2.55843e-05
4.44852e-06
3.52976e-05
5.0926e-06
4.53136e-05
5.41071e-06
5.64095e-05
5.62344e-06
6.92116e-05
5.62513e-06
8.44144e-05
5.43013e-06
0.00010297
4.97024e-06
0.000125877
0.00015459
4.1602e-06
1.333e-06
7.07259e-06
2.85171e-06
1.5381e-05
4.36337e-06
2.40726e-05
5.58906e-06
3.40719e-05
6.64371e-06
4.42589e-05
7.45734e-06
5.55959e-05
8.23847e-06
6.84305e-05
8.95597e-06
8.36969e-05
9.67587e-06
0.000102251
1.03742e-05
0.000125179
0.000153751
1.12135e-05
1.25052e-06
5.82207e-06
2.89306e-06
1.37385e-05
4.63476e-06
2.23309e-05
6.25247e-06
3.24542e-05
7.73101e-06
4.27804e-05
9.0655e-06
5.42614e-05
1.04204e-05
6.70756e-05
1.18554e-05
8.22619e-05
1.34647e-05
0.000100641
1.53074e-05
0.000123336
0.000151608
1.74497e-05
1.21113e-06
4.61093e-06
2.96243e-06
1.19872e-05
4.93509e-06
2.03583e-05
6.93829e-06
3.0451e-05
8.84623e-06
4.08724e-05
1.06952e-05
5.24125e-05
1.26047e-05
6.5166e-05
1.46937e-05
8.01729e-05
1.71375e-05
9.81975e-05
2.00513e-05
0.000120422
0.000148173
2.34863e-05
1.24583e-06
3.3651e-06
3.09994e-06
1.01331e-05
5.30628e-06
1.81519e-05
7.70731e-06
2.80499e-05
1.0077e-05
3.85028e-05
1.24578e-05
5.00317e-05
1.49487e-05
6.26751e-05
1.77132e-05
7.74084e-05
2.09311e-05
9.49796e-05
2.48078e-05
0.000116545
0.000143464
2.95172e-05
1.09879e-06
2.26632e-06
2.88169e-06
8.35017e-06
5.22205e-06
1.58116e-05
7.93831e-06
2.53337e-05
1.07776e-05
3.56635e-05
1.37486e-05
4.70606e-05
1.68979e-05
5.95259e-05
2.04281e-05
7.38782e-05
2.45408e-05
9.08669e-05
2.94319e-05
0.000111654
0.000137513
3.53826e-05
9.15272e-07
1.35105e-06
2.586e-06
6.67945e-06
5.01562e-06
1.33819e-05
8.0305e-06
2.23188e-05
1.13408e-05
3.23532e-05
1.49254e-05
4.34761e-05
1.881e-05
5.56412e-05
2.31736e-05
6.95146e-05
2.82216e-05
8.58189e-05
3.42833e-05
0.000105593
0.000130131
4.16657e-05
7.59795e-07
5.91252e-07
2.30461e-06
5.13464e-06
4.78016e-06
1.09064e-05
8.06256e-06
1.90364e-05
1.18602e-05
2.85556e-05
1.60966e-05
3.92396e-05
2.07771e-05
5.09607e-05
2.60693e-05
6.42224e-05
3.22013e-05
7.9687e-05
3.94452e-05
9.83487e-05
0.000121501
4.80753e-05
5.63679e-07
2.75727e-08
1.89247e-06
3.80585e-06
4.28354e-06
8.51529e-06
7.71777e-06
1.56022e-05
1.19404e-05
2.4333e-05
1.68456e-05
3.43344e-05
2.24215e-05
4.53849e-05
2.87948e-05
5.78491e-05
3.61586e-05
7.23231e-05
4.47718e-05
8.97355e-05
0.000111242
5.50309e-05
3.70781e-07
-3.43208e-07
1.48052e-06
2.69611e-06
3.68614e-06
6.30967e-06
7.13829e-06
1.215e-05
1.16822e-05
1.9789e-05
1.7242e-05
2.87745e-05
2.37772e-05
3.88497e-05
3.13725e-05
5.02537e-05
4.01801e-05
6.35156e-05
5.04708e-05
7.94448e-05
9.90723e-05
6.26402e-05
2.21622e-07
-5.6483e-07
1.11622e-06
1.80151e-06
3.01228e-06
4.41361e-06
6.27403e-06
8.88829e-06
1.09848e-05
1.50782e-05
1.7123e-05
2.26364e-05
2.46422e-05
3.13305e-05
3.35566e-05
4.13393e-05
4.39491e-05
5.31231e-05
5.60617e-05
6.73322e-05
8.48109e-05
7.0323e-05
1.50512e-07
-7.15342e-07
7.32224e-07
1.2198e-06
2.16824e-06
2.9776e-06
5.0171e-06
6.03943e-06
9.67631e-06
1.0419e-05
1.62482e-05
1.60645e-05
2.46491e-05
2.29296e-05
3.48053e-05
3.11831e-05
4.67775e-05
4.11509e-05
6.0792e-05
5.33178e-05
6.83e-05
7.73029e-05
-3.34901e-07
-3.8044e-07
-1.45584e-07
1.03048e-06
8.46137e-07
1.98588e-06
3.28013e-06
3.60544e-06
7.73126e-06
5.9679e-06
1.44163e-05
9.37946e-06
2.32675e-05
1.40785e-05
3.42435e-05
2.0207e-05
4.74956e-05
2.78989e-05
6.32803e-05
3.7533e-05
4.9125e-05
8.24553e-05
-5.74553e-07
1.94113e-07
-5.67719e-07
1.02365e-06
3.29432e-07
1.08873e-06
2.50046e-06
1.43441e-06
6.3288e-06
2.13956e-06
1.21762e-05
3.53203e-06
2.02803e-05
5.97442e-06
3.08514e-05
9.63585e-06
4.41761e-05
1.45742e-05
6.05166e-05
2.11926e-05
2.98858e-05
7.97558e-05
8.30023e-07
-6.3591e-07
2.9423e-06
-1.08864e-06
5.12382e-06
-1.09279e-06
7.39272e-06
-8.34485e-07
1.00811e-05
-5.48858e-07
1.37765e-05
-1.63349e-07
1.93012e-05
4.49794e-07
2.74141e-05
1.52287e-06
3.86047e-05
3.38363e-06
5.3338e-05
6.45929e-06
1.14936e-05
7.17302e-05
-1.46173e-05
2.78178e-06
-2.62477e-05
9.85076e-08
-3.57744e-05
-2.8885e-06
-4.38257e-05
-5.66157e-06
-5.14532e-05
-8.07372e-06
-5.9436e-05
-1.03844e-05
-6.82888e-05
-1.29688e-05
-7.84085e-05
-1.61533e-05
-9.02032e-05
-2.02442e-05
-0.000104114
-2.56422e-05
-3.28715e-05
-0.000120608
-6.58974e-06
9.37152e-06
-1.35397e-05
7.04852e-06
-2.23474e-05
5.91912e-06
-3.15745e-05
3.56559e-06
-4.09454e-05
1.29715e-06
-5.04763e-05
-8.53489e-07
-6.06927e-05
-2.75246e-06
-7.22224e-05
-4.62361e-06
-8.56007e-05
-6.86593e-06
-0.000101355
-9.88783e-06
-1.41035e-05
-0.000120123
-2.70217e-06
1.20737e-05
-6.38265e-06
1.0729e-05
-1.26849e-05
1.22214e-05
-2.05636e-05
1.14443e-05
-2.97635e-05
1.04971e-05
-4.00064e-05
9.38932e-06
-5.12105e-05
8.45168e-06
-6.36291e-05
7.79502e-06
-7.77251e-05
7.23001e-06
-9.40297e-05
6.41681e-06
4.89745e-06
-0.000113031
-1.69508e-06
1.37688e-05
-4.67372e-06
1.37076e-05
-9.21185e-06
1.67595e-05
-1.51308e-05
1.73632e-05
-2.28038e-05
1.81701e-05
-3.18384e-05
1.8424e-05
-4.22721e-05
1.88854e-05
-5.41218e-05
1.96447e-05
-6.76385e-05
2.07467e-05
-8.3251e-05
2.20293e-05
2.31757e-05
-0.000101529
-1.47327e-06
1.5242e-05
-4.18984e-06
1.64242e-05
-7.66e-06
2.02297e-05
-1.22621e-05
2.19653e-05
-1.84118e-05
2.43197e-05
-2.61201e-05
2.61323e-05
-3.53743e-05
2.81396e-05
-4.61652e-05
3.04356e-05
-5.86322e-05
3.32136e-05
-7.30229e-05
3.642e-05
3.98115e-05
-8.96587e-05
-1.28575e-06
1.65278e-05
-3.75308e-06
1.88915e-05
-6.61953e-06
2.30961e-05
-1.03504e-05
2.56962e-05
-1.53764e-05
2.93458e-05
-2.16811e-05
3.2437e-05
-2.95309e-05
3.59894e-05
-3.89216e-05
3.98263e-05
-4.99441e-05
4.42361e-05
-6.27389e-05
4.92148e-05
5.46248e-05
-7.75521e-05
-1.07199e-06
1.75998e-05
-3.22599e-06
2.10455e-05
-5.64464e-06
2.55148e-05
-8.72344e-06
2.8775e-05
-1.27929e-05
3.34152e-05
-1.79972e-05
3.76413e-05
-2.45075e-05
4.24998e-05
-3.24308e-05
4.77496e-05
-4.18593e-05
5.36646e-05
-5.29329e-05
6.02884e-05
6.75503e-05
-6.58585e-05
-9.90586e-07
1.85904e-05
-2.84577e-06
2.29007e-05
-4.85911e-06
2.75281e-05
-7.5591e-06
3.1475e-05
-1.07946e-05
3.66507e-05
-1.49665e-05
4.18132e-05
-2.02184e-05
4.77516e-05
-2.66809e-05
5.42121e-05
-3.4467e-05
6.14508e-05
-4.37031e-05
6.95245e-05
7.84078e-05
-5.45606e-05
-8.38437e-07
1.94288e-05
-2.44814e-06
2.45104e-05
-3.93306e-06
2.9013e-05
-6.17029e-06
3.37122e-05
-8.78638e-06
3.92668e-05
-1.213e-05
4.51567e-05
-1.62764e-05
5.18981e-05
-2.13857e-05
5.93214e-05
-2.75745e-05
6.76395e-05
-3.49482e-05
7.68983e-05
8.71225e-05
-4.36629e-05
-6.38154e-07
2.0067e-05
-1.88621e-06
2.57585e-05
-3.1405e-06
3.02673e-05
-4.82968e-06
3.54014e-05
-6.8009e-06
4.12381e-05
-9.35418e-06
4.771e-05
-1.24896e-05
5.50335e-05
-1.63547e-05
6.31865e-05
-2.10321e-05
7.2317e-05
-2.66219e-05
8.24881e-05
9.37238e-05
-3.32233e-05
-3.75604e-07
2.04426e-05
-1.17826e-06
2.65611e-05
-2.02209e-06
3.11111e-05
-3.2504e-06
3.66297e-05
-4.63597e-06
4.26236e-05
-6.44341e-06
4.95175e-05
-8.65525e-06
5.72454e-05
-1.13747e-05
6.59059e-05
-1.46592e-05
7.56015e-05
-1.85564e-05
8.63853e-05
9.82851e-05
-2.31178e-05
-1.61104e-07
2.06037e-05
-6.71444e-07
2.70715e-05
-1.12726e-06
3.15669e-05
-1.85532e-06
3.73578e-05
-2.64853e-06
4.34168e-05
-3.71238e-06
5.05813e-05
-4.99517e-06
5.85282e-05
-6.58783e-06
6.74986e-05
-8.49865e-06
7.75123e-05
-1.07405e-05
8.86271e-05
0.00010086
-1.33152e-05
7.81874e-08
2.05255e-05
-6.69162e-08
2.72166e-05
-1.50315e-07
3.16503e-05
-3.78692e-07
3.75861e-05
-5.75211e-07
4.36133e-05
-9.07834e-07
5.09139e-05
-1.29307e-06
5.89134e-05
-1.7849e-06
6.79904e-05
-2.3658e-06
7.80932e-05
-3.02055e-06
8.92819e-05
0.000101498
-3.65878e-06
4.42665e-07
2.00828e-05
7.09672e-07
2.69496e-05
1.03562e-06
3.13244e-05
1.31815e-06
3.73036e-05
1.7035e-06
4.3228e-05
2.09622e-06
5.05212e-05
2.59549e-06
5.84141e-05
3.16695e-06
6.7419e-05
3.88176e-06
7.73784e-05
4.77731e-06
8.83863e-05
0.000100346
5.92981e-06
6.5449e-07
1.94283e-05
1.29761e-06
2.63065e-05
2.04914e-06
3.05728e-05
2.87664e-06
3.64761e-05
3.87651e-06
4.22281e-05
5.04663e-06
4.93511e-05
6.46107e-06
5.69997e-05
8.14994e-06
6.57301e-05
1.01916e-05
7.53368e-05
1.26692e-05
8.59087e-05
9.73212e-05
1.56936e-05
9.16884e-07
1.85115e-05
1.96151e-06
2.52618e-05
3.15398e-06
2.93804e-05
4.54616e-06
3.50839e-05
6.18595e-06
4.05883e-05
8.15874e-06
4.73783e-05
1.05162e-05
5.46423e-05
1.33437e-05
6.29025e-05
1.67486e-05
7.19319e-05
2.08283e-05
8.1829e-05
9.23939e-05
2.57556e-05
1.22411e-06
1.72873e-05
2.71833e-06
2.37676e-05
4.38594e-06
2.77128e-05
6.37828e-06
3.30916e-05
8.69276e-06
3.82739e-05
1.15009e-05
4.45702e-05
1.48393e-05
5.13038e-05
1.88543e-05
5.88876e-05
2.36435e-05
6.71427e-05
2.93683e-05
7.61043e-05
8.55472e-05
3.6215e-05
1.52405e-06
1.57633e-05
3.46854e-06
2.18231e-05
5.65628e-06
2.5525e-05
8.28972e-06
3.04581e-05
1.13366e-05
3.5227e-05
1.50312e-05
4.08756e-05
1.94184e-05
4.69166e-05
2.46686e-05
5.36374e-05
3.09198e-05
6.08914e-05
3.8367e-05
6.86571e-05
7.66856e-05
4.72286e-05
1.82865e-06
1.39346e-05
4.23669e-06
1.94151e-05
6.9783e-06
2.27834e-05
1.02947e-05
2.71417e-05
1.41442e-05
3.13775e-05
1.87836e-05
3.62363e-05
2.42807e-05
4.14195e-05
3.08309e-05
4.70871e-05
3.85963e-05
5.31261e-05
4.78027e-05
5.94506e-05
6.57585e-05
5.87298e-05
2.1533e-06
1.17813e-05
5.03227e-06
1.65361e-05
8.36449e-06
1.94512e-05
1.24032e-05
2.3103e-05
1.71146e-05
2.66661e-05
2.27504e-05
3.06004e-05
2.94074e-05
3.47625e-05
3.72862e-05
3.92083e-05
4.65869e-05
4.38254e-05
5.75677e-05
4.84698e-05
5.27961e-05
7.05301e-05
2.4849e-06
9.29643e-06
5.81862e-06
1.32024e-05
9.75506e-06
1.55148e-05
1.45443e-05
1.83138e-05
2.01519e-05
2.10585e-05
2.68034e-05
2.39489e-05
3.46119e-05
2.6954e-05
4.37951e-05
3.00252e-05
5.45867e-05
3.30338e-05
6.72749e-05
3.57816e-05
3.78815e-05
8.21896e-05
2.74593e-06
6.5505e-06
6.50961e-06
9.43871e-06
1.10328e-05
1.09916e-05
1.65267e-05
1.28198e-05
2.29844e-05
1.46009e-05
3.05569e-05
1.63763e-05
3.94221e-05
1.80889e-05
4.97835e-05
1.96637e-05
6.19058e-05
2.09115e-05
7.61098e-05
2.15775e-05
2.12456e-05
9.27457e-05
3.31105e-06
3.23946e-06
7.42476e-06
5.32499e-06
1.23369e-05
6.07949e-06
1.82893e-05
6.86736e-06
2.5306e-05
7.58423e-06
3.35113e-05
8.17097e-06
4.30833e-05
8.51691e-06
5.42874e-05
8.4596e-06
6.73841e-05
7.81481e-06
8.2623e-05
6.33867e-06
3.79003e-06
0.000100078
2.60355e-06
6.83991e-06
1.18266e-05
1.78595e-05
2.48949e-05
3.29025e-05
4.18692e-05
5.18516e-05
6.30501e-05
7.5848e-05
9.11317e-05
-2.84562e-08
1.23985e-05
-1.23701e-05
-5.73074e-07
1.21708e-05
-1.16262e-05
-2.8724e-06
1.53672e-05
-1.30679e-05
-6.3364e-06
1.84519e-05
-1.49879e-05
-1.04788e-05
2.15152e-05
-1.73728e-05
-1.51088e-05
2.49244e-05
-2.02944e-05
-2.02281e-05
2.90311e-05
-2.39119e-05
-2.6044e-05
3.42763e-05
-2.84604e-05
-3.28135e-05
4.09926e-05
-3.42231e-05
-4.08614e-05
4.96362e-05
-4.15884e-05
6.08416e-05
-5.10101e-05
-5.06929e-05
4.04899e-06
8.34952e-06
5.81185e-06
1.0408e-05
5.9822e-06
1.51969e-05
4.83804e-06
1.95961e-05
2.27476e-06
2.40784e-05
-1.61549e-06
2.88147e-05
-6.57064e-06
3.39863e-05
-1.24425e-05
4.01482e-05
-1.93844e-05
4.79345e-05
-2.77443e-05
5.79961e-05
7.10642e-05
-3.79669e-05
3.11998e-06
5.22955e-06
4.75661e-06
8.77135e-06
6.35463e-06
1.35989e-05
7.11286e-06
1.88379e-05
6.59571e-06
2.45956e-05
4.64008e-06
3.07703e-05
1.29525e-06
3.73311e-05
-3.24348e-06
4.4687e-05
-8.89681e-06
5.35878e-05
-1.58197e-05
6.4919e-05
7.97696e-05
-2.4525e-05
2.20848e-06
3.02107e-06
4.02178e-06
6.95805e-06
5.75164e-06
1.1869e-05
7.20018e-06
1.73893e-05
7.96453e-06
2.38312e-05
7.69391e-06
3.10409e-05
6.19397e-06
3.8831e-05
3.48783e-06
4.73931e-05
-3.11989e-07
5.73876e-05
-5.17852e-06
6.97855e-05
8.58629e-05
-1.12719e-05
1.59042e-06
1.43064e-06
3.385e-06
5.16347e-06
5.35855e-06
9.89546e-06
7.14619e-06
1.56017e-05
8.56625e-06
2.24112e-05
9.40142e-06
3.02057e-05
9.37807e-06
3.88544e-05
8.37074e-06
4.84004e-05
6.446e-06
5.93124e-05
3.70688e-06
7.25246e-05
8.94034e-05
1.66395e-07
1.25562e-06
1.75024e-07
3.08569e-06
3.3334e-06
5.09361e-06
7.88754e-06
7.11168e-06
1.35836e-05
9.01452e-06
2.05083e-05
1.05592e-05
2.86611e-05
1.15908e-05
3.78228e-05
1.19336e-05
4.80576e-05
1.15952e-05
5.96508e-05
1.07109e-05
7.34089e-05
9.06856e-05
9.42877e-06
8.51216e-07
-6.76191e-07
2.51502e-06
1.6696e-06
4.55278e-06
5.84977e-06
6.76902e-06
1.13674e-05
8.99729e-06
1.82801e-05
1.11189e-05
2.65394e-05
1.29178e-05
3.60239e-05
1.4293e-05
4.66825e-05
1.52435e-05
5.87003e-05
1.5911e-05
7.27413e-05
9.00538e-05
1.65428e-05
4.00242e-07
-1.07643e-06
1.67659e-06
3.93259e-07
3.62513e-06
3.90123e-06
5.94542e-06
9.04709e-06
8.4142e-06
1.58113e-05
1.09032e-05
2.40504e-05
1.32914e-05
3.36357e-05
1.54874e-05
4.44865e-05
1.74836e-05
5.67041e-05
1.94408e-05
7.07842e-05
8.78222e-05
2.16723e-05
1.74255e-07
-1.25069e-06
9.73578e-07
-4.06064e-07
2.64583e-06
2.22898e-06
4.87288e-06
6.82004e-06
7.41051e-06
1.32736e-05
1.01255e-05
2.13354e-05
1.29171e-05
3.0844e-05
1.57169e-05
4.16867e-05
1.85358e-05
5.38852e-05
2.15139e-05
6.78061e-05
8.43599e-05
2.49762e-05
9.46606e-08
-1.34535e-06
5.52382e-07
-8.63786e-07
1.77972e-06
1.00164e-06
3.73428e-06
4.86548e-06
6.18715e-06
1.08208e-05
8.97457e-06
1.8548e-05
1.20023e-05
2.78163e-05
1.52158e-05
3.84732e-05
1.86338e-05
5.04672e-05
2.23923e-05
6.40475e-05
7.99663e-05
2.6786e-05
7.56946e-09
-1.35292e-06
1.9539e-07
-1.05161e-06
9.62645e-07
2.34386e-07
2.51418e-06
3.31395e-06
4.71802e-06
8.61693e-06
7.4166e-06
1.58494e-05
1.05188e-05
2.4714e-05
1.39933e-05
3.49988e-05
1.78586e-05
4.6602e-05
2.22364e-05
5.96697e-05
7.47732e-05
2.74295e-05
-6.93194e-08
-1.2836e-06
-9.78945e-08
-1.02303e-06
2.23455e-07
-8.69643e-08
1.29198e-06
2.24542e-06
3.10466e-06
6.80425e-06
5.55063e-06
1.34035e-05
8.57975e-06
2.16849e-05
1.21795e-05
3.1399e-05
1.63786e-05
4.2403e-05
2.12705e-05
5.47778e-05
6.90026e-05
2.7041e-05
-1.47197e-07
-1.1364e-06
-3.18203e-07
-8.52025e-07
-3.19322e-07
-8.58457e-08
2.3514e-07
1.69096e-06
1.63955e-06
5.39984e-06
3.74884e-06
1.12942e-05
6.58561e-06
1.88482e-05
1.01878e-05
2.77968e-05
1.45988e-05
3.7992e-05
1.99067e-05
4.94698e-05
6.26442e-05
2.62651e-05
-2.10538e-07
-9.25864e-07
-4.72064e-07
-5.90499e-07
-6.39817e-07
8.19064e-08
-4.94334e-07
1.54548e-06
4.46032e-07
4.45948e-06
2.21224e-06
9.52797e-06
4.80336e-06
1.6257e-05
8.31948e-06
2.42806e-05
1.28491e-05
3.34624e-05
1.84596e-05
4.38594e-05
5.58325e-05
2.52713e-05
-2.36707e-07
-6.89157e-07
-5.69188e-07
-2.58018e-07
-8.36079e-07
3.48798e-07
-9.16918e-07
1.62632e-06
-4.47319e-07
3.98988e-06
9.46714e-07
8.13394e-06
3.24672e-06
1.3957e-05
6.6529e-06
2.08745e-05
1.12682e-05
2.88471e-05
1.71657e-05
3.79618e-05
4.86425e-05
2.43557e-05
-2.41936e-07
-4.47221e-07
-5.95063e-07
9.51089e-08
-9.01154e-07
6.54889e-07
-1.09e-06
1.81516e-06
-8.96806e-07
3.79668e-06
1.28358e-07
7.10878e-06
2.17678e-06
1.19086e-05
5.45725e-06
1.7594e-05
1.01401e-05
2.41643e-05
1.63155e-05
3.17864e-05
4.08878e-05
2.40702e-05
-2.16006e-07
-2.31215e-07
-5.48521e-07
4.27624e-07
-8.39058e-07
9.45426e-07
-1.05237e-06
2.02847e-06
-9.70544e-07
3.71486e-06
-2.12154e-07
6.35039e-06
1.62987e-06
1.00666e-05
4.80526e-06
1.44186e-05
9.54016e-06
1.94294e-05
1.5947e-05
2.53796e-05
3.28653e-05
2.39694e-05
-1.78805e-07
-5.24103e-08
-4.71792e-07
7.20611e-07
-7.19648e-07
1.19328e-06
-9.15663e-07
2.22449e-06
-8.72006e-07
3.6712e-06
-2.53723e-07
5.7321e-06
1.43284e-06
8.38002e-06
4.52624e-06
1.13252e-05
9.32202e-06
1.46336e-05
1.59963e-05
1.87053e-05
2.42396e-05
2.46221e-05
-1.38596e-07
8.61855e-08
-3.81964e-07
9.6398e-07
-6.02852e-07
1.41417e-06
-7.87725e-07
2.40936e-06
-7.66294e-07
3.64977e-06
-2.163e-07
5.18211e-06
1.38089e-06
6.78283e-06
4.44233e-06
8.26376e-06
9.3339e-06
9.74206e-06
1.62932e-05
1.1746e-05
1.50925e-05
2.54402e-05
-1.2488e-07
2.11065e-07
-3.68025e-07
1.20712e-06
-6.21212e-07
1.66736e-06
-8.24448e-07
2.61259e-06
-8.23528e-07
3.64885e-06
-2.52062e-07
4.61064e-06
1.41029e-06
5.12048e-06
4.59347e-06
5.08058e-06
9.66712e-06
4.66841e-06
1.69259e-05
4.48727e-06
5.46791e-06
2.65505e-05
-2.48958e-07
4.60023e-07
-4.79616e-07
1.43778e-06
-7.15275e-07
1.90302e-06
-7.93932e-07
2.69125e-06
-4.42849e-07
3.29777e-06
8.28009e-07
3.33979e-06
3.49692e-06
2.45158e-06
7.76744e-06
8.10047e-07
1.35961e-05
-1.16021e-06
2.1085e-05
-3.00171e-06
-4.12011e-06
3.06731e-05
-3.47929e-07
8.07952e-07
-4.21068e-07
1.51092e-06
-2.86892e-07
1.76884e-06
4.14672e-07
1.98969e-06
2.10225e-06
1.61019e-06
5.03301e-06
4.09022e-07
8.90653e-06
-1.42194e-06
1.33272e-05
-3.61066e-06
1.84099e-05
-6.24289e-06
2.48336e-05
-9.42536e-06
-1.26653e-05
3.33788e-05
-1.35784e-07
9.43737e-07
5.44392e-07
8.30745e-07
1.84378e-06
4.69453e-07
3.96016e-06
-1.26691e-07
6.7463e-06
-1.17596e-06
9.76836e-06
-2.61303e-06
1.27644e-05
-4.41798e-06
1.59896e-05
-6.83587e-06
1.98328e-05
-1.00861e-05
2.47742e-05
-1.43667e-05
-1.95818e-05
3.16906e-05
2.0747e-06
-1.13096e-06
3.76767e-06
-8.62228e-07
5.59909e-06
-1.36196e-06
7.59938e-06
-2.12699e-06
9.6133e-06
-3.18987e-06
1.16481e-05
-4.6478e-06
1.38365e-05
-6.60645e-06
1.62636e-05
-9.26292e-06
1.90531e-05
-1.28756e-05
2.24253e-05
-1.77389e-05
-2.40425e-05
2.68859e-05
-8.78389e-06
-3.58617e-06
-1.44246e-05
-5.98547e-06
-1.91202e-05
-8.37233e-06
-2.32344e-05
-1.08737e-05
-2.71333e-05
-1.34739e-05
-3.11476e-05
-1.62801e-05
-3.55674e-05
-1.94921e-05
-4.06591e-05
-2.33687e-05
-4.66661e-05
-2.82161e-05
-5.38558e-05
-3.43987e-05
-4.24113e-05
-6.24545e-05
-4.98585e-06
1.39967e-06
-1.01805e-05
-7.90841e-07
-1.53418e-05
-3.21098e-06
-2.02942e-05
-5.9213e-06
-2.51323e-05
-8.63576e-06
-3.00412e-05
-1.13712e-05
-3.53273e-05
-1.42061e-05
-4.13161e-05
-1.73798e-05
-4.83211e-05
-2.12111e-05
-5.66503e-05
-2.60695e-05
-3.23322e-05
-6.67295e-05
-2.3871e-06
3.78678e-06
-5.58301e-06
2.40507e-06
-9.91937e-06
1.12538e-06
-1.49245e-05
-9.16198e-07
-2.0248e-05
-3.31227e-06
-2.58659e-05
-5.75331e-06
-3.19547e-05
-8.11719e-06
-3.87532e-05
-1.05814e-05
-4.65619e-05
-1.34024e-05
-5.57102e-05
-1.69212e-05
-2.15384e-05
-6.6504e-05
-1.14517e-06
4.93195e-06
-3.10826e-06
4.36815e-06
-6.21015e-06
4.22727e-06
-1.0412e-05
3.2856e-06
-1.5536e-05
1.81176e-06
-2.13537e-05
6.43979e-08
-2.77546e-05
-1.71628e-06
-3.4902e-05
-3.43401e-06
-4.30506e-05
-5.25384e-06
-5.24974e-05
-7.47436e-06
-1.04221e-05
-6.36137e-05
-7.1552e-07
5.64747e-06
-2.06512e-06
5.71775e-06
-4.1201e-06
6.28225e-06
-7.11792e-06
6.28343e-06
-1.1221e-05
5.91486e-06
-1.64373e-05
5.28069e-06
-2.26688e-05
4.51518e-06
-2.98655e-05
3.76274e-06
-3.80864e-05
2.96707e-06
-4.74946e-05
1.93387e-06
3.8292e-07
-5.82997e-05
-4.3201e-07
6.07948e-06
-1.39279e-06
6.67853e-06
-2.83773e-06
7.72719e-06
-4.98531e-06
8.43101e-06
-8.05066e-06
8.98021e-06
-1.21841e-05
9.41412e-06
-1.74919e-05
9.823e-06
-2.40131e-05
1.02839e-05
-3.18008e-05
1.07548e-05
-4.09429e-05
1.10759e-05
1.09492e-05
-5.15091e-05
-1.58696e-07
6.23817e-06
-7.77113e-07
7.29695e-06
-1.73894e-06
8.68902e-06
-3.24307e-06
9.93514e-06
-5.50004e-06
1.12372e-05
-8.71841e-06
1.26325e-05
-1.30842e-05
1.41888e-05
-1.87272e-05
1.59269e-05
-2.57336e-05
1.77612e-05
-3.41822e-05
1.95245e-05
2.09289e-05
-4.41619e-05
2.80202e-08
6.21015e-06
-2.8067e-07
7.60564e-06
-8.23768e-07
9.23212e-06
-1.77872e-06
1.08901e-05
-3.33051e-06
1.2789e-05
-5.69609e-06
1.49981e-05
-9.10479e-06
1.75975e-05
-1.37486e-05
2.05708e-05
-1.97638e-05
2.37764e-05
-2.72231e-05
2.69838e-05
2.98976e-05
-3.61918e-05
1.76884e-07
6.03327e-06
1.33364e-07
7.64916e-06
-4.60787e-08
9.41156e-06
-5.18531e-07
1.13625e-05
-1.43519e-06
1.37056e-05
-3.00215e-06
1.6565e-05
-5.46908e-06
2.00644e-05
-9.08768e-06
2.41894e-05
-1.40578e-05
2.87465e-05
-2.05256e-05
3.34517e-05
3.80683e-05
-2.86963e-05
2.75828e-07
5.75744e-06
4.43801e-07
7.48118e-06
5.65057e-07
9.2903e-06
5.0693e-07
1.14207e-05
1.51398e-07
1.40612e-05
-6.71337e-07
1.73878e-05
-2.20958e-06
2.16027e-05
-4.75828e-06
2.67381e-05
-8.61225e-06
3.26005e-05
-1.3933e-05
3.87724e-05
4.48775e-05
-2.07421e-05
3.4609e-07
5.41135e-06
7.006e-07
7.12667e-06
1.06422e-06
8.92668e-06
1.35012e-06
1.11348e-05
1.47256e-06
1.39387e-05
1.30005e-06
1.75603e-05
6.34674e-07
2.2268e-05
-8.4112e-07
2.82139e-05
-3.49102e-06
3.52504e-05
-7.55028e-06
4.28317e-05
5.03157e-05
-1.29885e-05
3.50409e-07
5.06094e-06
8.11764e-07
6.66532e-06
1.34256e-06
8.39589e-06
1.89772e-06
1.05796e-05
2.41584e-06
1.34206e-05
2.7962e-06
1.71799e-05
2.88671e-06
2.21775e-05
2.42541e-06
2.86752e-05
1.0322e-06
3.66436e-05
-1.69738e-06
4.55612e-05
5.43432e-05
-5.72489e-06
3.53736e-07
4.70721e-06
8.86018e-07
6.13304e-06
1.53016e-06
7.75175e-06
2.27486e-06
9.83491e-06
3.08637e-06
1.26091e-05
3.90799e-06
1.63583e-05
4.62845e-06
2.14571e-05
5.03611e-06
2.82675e-05
4.79197e-06
3.68877e-05
3.46657e-06
4.68866e-05
5.73647e-05
4.45036e-07
3.72659e-07
4.33455e-06
9.63101e-07
5.5426e-06
1.6777e-06
7.03715e-06
2.54358e-06
8.96904e-06
3.55786e-06
1.15948e-05
4.69316e-06
1.5223e-05
5.89147e-06
2.02588e-05
7.00689e-06
2.71521e-05
7.74586e-06
3.61488e-05
7.6972e-06
4.69353e-05
5.85934e-05
6.46847e-06
3.59824e-07
3.97472e-06
9.71057e-07
4.93136e-06
1.71603e-06
6.29218e-06
2.63761e-06
8.04745e-06
3.75536e-06
1.04771e-05
5.08034e-06
1.3898e-05
6.59771e-06
1.87414e-05
8.23765e-06
2.55121e-05
9.80009e-06
3.45863e-05
1.09582e-05
4.57771e-05
5.84117e-05
1.114e-05
3.57064e-07
3.61766e-06
9.73152e-07
4.31527e-06
1.71459e-06
5.55075e-06
2.63544e-06
7.1266e-06
3.77208e-06
9.34042e-06
5.16103e-06
1.25091e-05
6.83599e-06
1.70664e-05
8.79951e-06
2.35486e-05
1.09577e-05
3.24282e-05
1.3081e-05
4.36538e-05
5.68051e-05
1.46876e-05
3.64546e-07
3.25311e-06
9.65107e-07
3.71471e-06
1.67652e-06
4.83933e-06
2.55089e-06
6.25223e-06
3.63267e-06
8.25864e-06
4.97695e-06
1.11648e-05
6.65888e-06
1.53845e-05
8.75272e-06
2.14548e-05
1.12748e-05
2.99061e-05
1.41323e-05
4.07962e-05
5.38171e-05
1.71203e-05
3.62857e-07
2.89026e-06
9.23792e-07
3.15378e-06
1.57659e-06
4.18654e-06
2.36707e-06
5.46174e-06
3.33966e-06
7.28605e-06
4.56186e-06
9.94258e-06
6.12853e-06
1.38178e-05
8.17088e-06
1.94124e-05
1.07946e-05
2.72824e-05
1.39157e-05
3.76752e-05
5.0553e-05
1.71798e-05
3.50371e-07
2.53989e-06
8.48682e-07
2.65547e-06
1.42905e-06
3.60617e-06
2.12115e-06
4.76964e-06
2.9656e-06
6.4416e-06
4.02173e-06
8.88645e-06
5.39863e-06
1.24409e-05
7.26602e-06
1.7545e-05
9.82217e-06
2.47262e-05
1.31948e-05
3.43026e-05
4.62299e-05
1.75179e-05
3.3607e-07
2.20382e-06
7.73253e-07
2.21828e-06
1.28771e-06
3.09172e-06
1.89483e-06
4.16252e-06
2.61638e-06
5.72005e-06
3.50172e-06
8.0011e-06
4.66168e-06
1.1281e-05
6.27928e-06
1.59274e-05
8.56462e-06
2.24409e-05
1.15969e-05
3.12703e-05
4.28981e-05
1.49287e-05
3.4017e-07
1.86365e-06
7.29255e-07
1.8292e-06
1.2038e-06
2.61718e-06
1.75046e-06
3.61586e-06
2.37534e-06
5.09517e-06
3.12263e-06
7.25382e-06
4.1052e-06
1.02984e-05
5.50804e-06
1.45246e-05
7.57827e-06
2.03707e-05
1.05236e-05
2.8325e-05
3.89521e-05
1.44696e-05
3.20396e-07
1.54325e-06
7.03426e-07
1.44617e-06
1.16864e-06
2.15196e-06
1.67887e-06
3.10563e-06
2.26361e-06
4.51043e-06
2.95772e-06
6.55971e-06
3.90812e-06
9.34801e-06
5.29213e-06
1.31406e-05
7.34949e-06
1.83133e-05
1.0381e-05
2.52934e-05
3.44461e-05
1.4887e-05
4.4032e-07
1.10293e-06
8.20707e-07
1.06578e-06
1.22554e-06
1.74712e-06
1.68573e-06
2.64544e-06
2.24249e-06
3.95367e-06
3.03084e-06
5.77136e-06
4.16147e-06
8.21737e-06
5.79014e-06
1.15119e-05
8.1131e-06
1.59903e-05
1.13276e-05
2.20789e-05
3.0323e-05
1.54507e-05
-2.80287e-08
1.75527e-07
5.60685e-07
1.07914e-06
1.84293e-06
2.96649e-06
4.57741e-06
6.82642e-06
9.94118e-06
1.42812e-05
2.05618e-05
-8.83737e-06
-9.6316e-06
1.8469e-05
-1.41588e-05
-1.11704e-05
1.64918e-05
-1.86157e-05
-1.33476e-05
1.78045e-05
-2.30746e-05
-1.55665e-05
2.00254e-05
-2.73839e-05
-1.76487e-05
2.1958e-05
-3.17033e-05
-1.95169e-05
2.38363e-05
-3.6372e-05
-2.11954e-05
2.5864e-05
-4.16304e-05
-2.26288e-05
2.78872e-05
-4.77419e-05
-2.37134e-05
2.98249e-05
-5.4967e-05
-2.4251e-05
3.14761e-05
-2.38939e-05
3.25597e-05
-6.36328e-05
-7.13481e-06
-2.49679e-06
-1.30272e-05
-5.27796e-06
-1.83641e-05
-8.01073e-06
-2.32896e-05
-1.0641e-05
-2.7982e-05
-1.29563e-05
-3.26464e-05
-1.48525e-05
-3.75999e-05
-1.62418e-05
-4.31704e-05
-1.70583e-05
-4.96944e-05
-1.71894e-05
-5.75245e-05
-1.64209e-05
-1.43823e-05
-6.70361e-05
-3.6055e-06
1.10871e-06
-7.97177e-06
-9.11686e-07
-1.28441e-05
-3.13837e-06
-1.79934e-05
-5.49172e-06
-2.33145e-05
-7.63527e-06
-2.88084e-05
-9.35857e-06
-3.46258e-05
-1.04245e-05
-4.10262e-05
-1.06579e-05
-4.83362e-05
-9.87941e-06
-5.68959e-05
-7.86116e-06
-4.21323e-06
-6.7065e-05
-1.79451e-06
2.90322e-06
-4.6945e-06
1.9883e-06
-8.67169e-06
8.38824e-07
-1.34106e-05
-7.52792e-07
-1.86803e-05
-2.36561e-06
-2.44289e-05
-3.6099e-06
-3.07011e-05
-4.15233e-06
-3.76276e-05
-3.73135e-06
-4.54143e-05
-2.09273e-06
-5.43654e-05
1.08997e-06
6.33406e-06
-6.49127e-05
-1.05167e-06
3.95489e-06
-2.84261e-06
3.77925e-06
-5.66227e-06
3.65848e-06
-9.5199e-06
3.10484e-06
-1.42946e-05
2.40906e-06
-1.98645e-05
1.96e-06
-2.61548e-05
2.13803e-06
-3.3219e-05
3.33277e-06
-4.12493e-05
5.93757e-06
-5.05164e-05
1.03571e-05
1.71546e-05
-6.1337e-05
-1.00674e-06
4.96163e-06
-2.54021e-06
5.31272e-06
-4.6572e-06
5.77547e-06
-7.613e-06
6.06064e-06
-1.1565e-05
6.36103e-06
-1.65198e-05
6.91485e-06
-2.24419e-05
8.06006e-06
-2.93232e-05
1.02141e-05
-3.72223e-05
1.38366e-05
-4.63098e-05
1.94447e-05
2.77357e-05
-5.68909e-05
-9.2823e-07
5.88986e-06
-2.31132e-06
6.69581e-06
-4.17323e-06
7.63737e-06
-6.69738e-06
8.58479e-06
-1.00559e-05
9.71959e-06
-1.43574e-05
1.12164e-05
-1.96647e-05
1.33673e-05
-2.60117e-05
1.65612e-05
-3.34577e-05
2.12827e-05
-4.21183e-05
2.81053e-05
3.77453e-05
-5.2128e-05
-9.03196e-07
6.79305e-06
-2.17632e-06
7.96893e-06
-3.85808e-06
9.31914e-06
-6.09479e-06
1.08215e-05
-9.03036e-06
1.26552e-05
-1.28056e-05
1.49917e-05
-1.75296e-05
1.80912e-05
-2.32917e-05
2.23233e-05
-3.01807e-05
2.81716e-05
-3.83311e-05
3.62558e-05
4.73824e-05
-4.79682e-05
-8.5753e-07
7.65058e-06
-2.04638e-06
9.15779e-06
-3.58588e-06
1.08586e-05
-5.59923e-06
1.28348e-05
-8.21689e-06
1.52728e-05
-1.15719e-05
1.83467e-05
-1.57944e-05
2.23137e-05
-2.1002e-05
2.75309e-05
-2.73177e-05
3.44873e-05
-3.48981e-05
4.38362e-05
5.64406e-05
-4.39563e-05
-7.30875e-07
8.38146e-06
-1.7917e-06
1.02186e-05
-3.18344e-06
1.22504e-05
-5.00236e-06
1.46538e-05
-7.35493e-06
1.76254e-05
-1.03668e-05
2.13585e-05
-1.41679e-05
2.61148e-05
-1.88897e-05
3.22527e-05
-2.46788e-05
4.02764e-05
-3.16898e-05
5.08472e-05
6.48269e-05
-4.00762e-05
-6.14996e-07
8.99645e-06
-1.55795e-06
1.11616e-05
-2.80261e-06
1.3495e-05
-4.43115e-06
1.62823e-05
-6.5411e-06
1.97353e-05
-9.2467e-06
2.40641e-05
-1.2671e-05
2.95391e-05
-1.69469e-05
3.65286e-05
-2.22179e-05
4.55475e-05
-2.86466e-05
5.72759e-05
7.26234e-05
-3.64431e-05
-5.97114e-07
9.59357e-06
-1.46079e-06
1.20252e-05
-2.57851e-06
1.46128e-05
-4.03125e-06
1.77351e-05
-5.91145e-06
2.16155e-05
-8.32081e-06
2.64735e-05
-1.13745e-05
3.25928e-05
-1.52053e-05
4.03594e-05
-1.9953e-05
5.02952e-05
-2.57762e-05
6.30991e-05
7.96586e-05
-3.28114e-05
-5.33946e-07
1.01275e-05
-1.29179e-06
1.27831e-05