/*--------------------------------*- C++ -*----------------------------------*\
| =========                 |                                                 |
| \\      /  F ield         | OpenFOAM: The Open Source CFD Toolbox           |
|  \\    /   O peration     | Version:  3.0.1                                 |
|   \\  /    A nd           | Web:      www.OpenFOAM.org                      |
|    \\/     M anipulation  |                                                 |
\*---------------------------------------------------------------------------*/
FoamFile
{
    version     2.0;
    format      ascii;
    class       volVectorField;
    location    "0.795005";
    object      U;
}
// * * * * * * * * * * * * * * * * * * * * * * * * * * * * * * * * * * * * * //

dimensions      [0 1 -1 0 0 0 0];

internalField   nonuniform List<vector> 
21246
(
(5.51706 -0.160377 5.54884e-19)
(4.04221 -0.150079 1.13337e-18)
(3.89576 -0.0254085 -3.22221e-19)
(3.51395 -0.0242288 1.85713e-19)
(3.12635 -0.0445845 7.5756e-20)
(2.79388 -0.0796412 0)
(2.52112 -0.118142 0)
(2.29249 -0.155265 -3.88327e-20)
(2.09785 -0.190592 0)
(1.93041 -0.223721 0)
(1.79023 -0.246857 0)
(4.00654 -0.64062 0)
(2.5118 -0.870117 0)
(3.12934 -0.88599 0)
(3.20798 -0.809121 1.16689e-19)
(3.0477 -0.68206 -5.83991e-20)
(2.81711 -0.555022 -1.06868e-19)
(2.5826 -0.468881 2.38239e-19)
(2.36039 -0.41736 4.07351e-20)
(2.16109 -0.391259 0)
(1.98674 -0.382715 0)
(1.84252 -0.379022 -1.84194e-20)
(2.42946 0.225847 2.74152e-18)
(1.51678 -0.497742 1.45842e-18)
(2.233 -0.960966 -1.52084e-18)
(2.51699 -1.10188 4.51135e-19)
(2.62026 -1.08116 5.94957e-19)
(2.6078 -0.959031 1.19521e-19)
(2.49507 -0.803997 -1.36586e-19)
(2.33988 -0.683781 1.03074e-19)
(2.17442 -0.59977 -1.01678e-19)
(2.01531 -0.548361 1.24055e-19)
(1.88226 -0.518284 -7.15239e-20)
(1.71277 1.38453 -3.94568e-18)
(1.28291 0.306447 0)
(1.67516 -0.482287 0)
(1.91842 -0.903571 -6.12525e-19)
(2.12438 -1.10851 -6.65809e-19)
(2.2589 -1.12802 4.62881e-19)
(2.28637 -1.02825 0)
(2.22974 -0.896263 1.03426e-19)
(2.12757 -0.78248 0)
(2.00882 -0.701609 0)
(1.90344 -0.646104 -6.62265e-20)
(1.59058 2.35566 -3.23729e-19)
(1.35253 1.12716 -2.43063e-19)
(1.46182 0.195488 0)
(1.59187 -0.440041 5.93099e-19)
(1.76961 -0.860089 0)
(1.9382 -1.0607 -8.76277e-19)
(2.04249 -1.08369 3.25657e-19)
(2.07144 -1.01087 -2.77871e-19)
(2.0405 -0.910876 1.91184e-19)
(1.96944 -0.822113 3.64083e-21)
(1.90006 -0.756725 0)
(1.82221 3.10127 4.80844e-18)
(1.55702 1.85595 -1.52165e-18)
(1.47065 0.866239 -1.25742e-18)
(1.4881 0.094654 9.49137e-19)
(1.58845 -0.481259 0)
(1.72355 -0.840799 8.40609e-19)
(1.84249 -1.00009 -6.3745e-19)
(1.91607 -1.01931 -3.20229e-19)
(1.93884 -0.967595 2.51425e-19)
(1.91538 -0.898551 -5.64489e-21)
(1.88494 -0.84011 -3.12805e-20)
(2.23566 3.67757 -2.84986e-20)
(1.82259 2.5169 2.8315e-18)
(1.61234 1.48813 -2.04633e-18)
(1.52463 0.622712 0)
(1.5365 -0.0640017 -3.37982e-20)
(1.61246 -0.548044 0)
(1.71003 -0.829606 -5.44293e-19)
(1.79423 -0.946866 3.86296e-19)
(1.84723 -0.95934 -7.83431e-20)
(1.86045 -0.925261 5.85084e-20)
(1.86461 -0.886892 -8.98809e-20)
(2.6045 4.10563 -7.72647e-20)
(2.07921 3.09914 -2.53879e-18)
(1.80875 2.05101 1.68253e-18)
(1.63068 1.12862 1.62988e-19)
(1.56111 0.360439 1.00679e-18)
(1.57444 -0.222859 -1.25954e-18)
(1.63547 -0.60897 5.58301e-19)
(1.71013 -0.818794 0)
(1.77518 -0.899889 -2.70789e-20)
(1.81366 -0.908404 2.52673e-19)
(1.84215 -0.895518 -1.87075e-19)
(2.7648 4.21681 -9.53522e-20)
(2.27717 3.52681 1.45153e-19)
(2.00915 2.55207 1.07932e-19)
(1.76551 1.62084 1.41508e-19)
(1.62879 0.792683 0)
(1.58315 0.126143 7.81784e-19)
(1.60193 -0.351739 -4.80953e-19)
(1.65606 -0.647803 -2.89065e-19)
(1.7213 -0.798101 1.05067e-18)
(1.77686 -0.853531 -5.60921e-19)
(1.82529 -0.869222 1.67735e-19)
(2.90305 4.2325 3.0753e-18)
(2.48517 3.83733 -4.63305e-18)
(2.23109 3.0136 2.01197e-18)
(1.93547 2.11199 -1.15187e-18)
(1.73508 1.24196 -3.78288e-19)
(1.62821 0.504178 9.07885e-19)
(1.5986 -0.0568123 -1.28254e-18)
(1.62375 -0.434942 5.98707e-19)
(1.68045 -0.65482 -6.14839e-19)
(1.74658 -0.760694 4.74994e-20)
(1.81364 -0.8074 3.36613e-19)
(3.02344 4.20326 -2.48504e-18)
(2.68179 4.02779 5.2034e-19)
(2.45892 3.39875 -7.7224e-19)
(2.13883 2.57759 -2.83887e-19)
(1.87881 1.69969 1.20759e-18)
(1.70649 0.909732 -3.12764e-19)
(1.62134 0.276747 0)
(1.60883 -0.177567 2.90634e-19)
(1.64865 -0.465891 -3.88375e-19)
(1.71903 -0.624925 1.10083e-20)
(1.8052 -0.706232 -3.18922e-19)
(3.1152 4.16036 -3.45056e-19)
(2.81862 4.10443 -2.24014e-18)
(2.65474 3.65115 3.39628e-18)
(2.34537 2.9721 -1.40623e-18)
(2.04434 2.13905 1.1764e-18)
(1.81034 1.32883 -1.98849e-18)
(1.666 0.643336 8.40418e-19)
(1.609 0.124743 0)
(1.62457 -0.226638 3.59757e-19)
(1.69237 -0.438857 2.38915e-19)
(1.79508 -0.558371 -5.40234e-19)
(3.19518 4.1099 -2.6323e-18)
(2.92442 4.1301 2.06175e-18)
(2.81585 3.79648 0)
(2.5363 3.27691 2.74452e-19)
(2.21633 2.53659 -3.98084e-19)
(1.93094 1.74606 0)
(1.72841 1.0359 7.6226e-19)
(1.6234 0.471273 -1.11371e-18)
(1.60962 0.0668717 -6.84347e-19)
(1.66947 -0.195606 2.44045e-19)
(1.78419 -0.355766 5.10028e-19)
(3.26405 4.04753 -2.61304e-18)
(3.01022 4.12426 2.54271e-18)
(2.94422 3.87102 0)
(2.69919 3.49469 0)
(2.38226 2.87713 -3.99665e-19)
(2.06246 2.14649 -1.67483e-18)
(1.80813 1.44528 8.34795e-19)
(1.65539 0.858527 1.06938e-18)
(1.60963 0.416133 6.23948e-19)
(1.65723 0.109986 -4.66372e-19)
(1.78266 -0.0936319 -2.18557e-19)
(3.31104 3.97657 0)
(3.06981 4.08815 -4.95015e-19)
(3.02829 3.88989 -1.47014e-18)
(2.82432 3.63454 1.1425e-18)
(2.52924 3.15009 4.03432e-19)
(2.19664 2.50988 4.73834e-21)
(1.90456 1.85178 0)
(1.71017 1.27193 -4.37149e-20)
(1.63442 0.812317 -4.30549e-20)
(1.66718 0.474216 -3.71122e-19)
(1.79508 0.232476 4.09418e-19)
(3.34461 3.89621 0)
(3.10991 4.02912 -2.47111e-19)
(3.07824 3.86371 0)
(2.91074 3.69796 0)
(2.65517 3.35382 -7.88059e-19)
(2.32758 2.82047 6.92315e-20)
(2.01714 2.23376 8.35162e-19)
(1.79402 1.69141 0)
(1.69431 1.23794 -3.26518e-19)
(1.71498 0.882102 3.72859e-19)
(1.84708 0.602552 -4.21748e-20)
(3.36746 3.80255 -3.37868e-19)
(3.13633 3.95306 2.52374e-19)
(3.1092 3.81011 0)
(2.96215 3.69501 -2.77979e-19)
(2.7534 3.47273 0)
(2.45739 3.07303 0)
(2.14416 2.57153 0)
(1.9113 2.09153 -4.70402e-19)
(1.80017 1.667 6.5577e-19)
(1.81392 1.31269 1.66001e-19)
(1.94772 1.00561 0)
(3.37434 3.69801 3.06668e-18)
(3.14487 3.85988 -2.11612e-18)
(3.12013 3.73157 0)
(2.99058 3.65263 1.3863e-18)
(2.81532 3.50428 -8.44762e-19)
(2.57648 3.24478 2.85612e-19)
(2.28217 2.84698 9.36017e-19)
(2.05933 2.44428 -2.99204e-19)
(1.95611 2.06959 -4.62965e-19)
(1.97485 1.73128 -4.40807e-19)
(2.10709 1.41158 1.23937e-19)
(3.37126 3.58723 -2.90919e-18)
(3.1397 3.75083 4.27088e-18)
(3.11484 3.63388 -1.60813e-18)
(3.00012 3.58095 -1.42629e-19)
(2.85479 3.48232 -9.04746e-19)
(2.66332 3.31514 1.68433e-19)
(2.42729 3.04778 -8.51866e-19)
(2.23305 2.72465 2.97941e-19)
(2.15847 2.41295 3.52259e-19)
(2.19816 2.10184 -2.02802e-19)
(2.34519 1.7678 1.572e-19)
(3.35704 3.47351 -2.96402e-18)
(3.11971 3.63041 0)
(3.09335 3.52507 1.60753e-18)
(2.99303 3.48845 -1.07341e-18)
(2.87541 3.42246 1.07825e-19)
(2.72902 3.31541 1.5128e-19)
(2.55828 3.14968 -4.95397e-19)
(2.42039 2.9118 -2.12674e-19)
(2.39416 2.66465 4.52619e-19)
(2.47124 2.38845 1.65958e-19)
(2.64543 2.05034 -7.62303e-20)
(3.31031 3.35233 -3.31215e-21)
(3.08462 3.5016 2.21856e-18)
(3.05887 3.40635 -1.75124e-19)
(2.97695 3.37616 -2.7066e-18)
(2.88555 3.32501 9.35489e-19)
(2.77852 3.25014 0)
(2.66828 3.13997 0)
(2.60647 2.97169 2.81277e-19)
(2.64302 2.7714 -3.86217e-19)
(2.77506 2.52034 -2.43981e-21)
(2.98953 2.17078 -5.75249e-20)
(3.25832 3.20319 -3.76704e-18)
(3.03892 3.36717 3.11605e-18)
(3.03191 3.26431 -1.19216e-19)
(2.9667 3.22533 -1.72462e-19)
(2.89455 3.16141 0)
(2.81492 3.07915 0)
(2.75978 2.9733 -2.56721e-19)
(2.76858 2.82216 0)
(2.86846 2.61934 0)
(3.05913 2.35538 1.38236e-19)
(3.31716 1.9969 -4.2357e-20)
(3.07979 3.11024 0)
(3.02202 3.19308 -1.82417e-18)
(2.99913 3.07267 2.6241e-18)
(2.94124 2.98471 -1.49757e-20)
(2.88044 2.87286 0)
(2.82384 2.74722 0)
(2.80699 2.59471 4.27805e-19)
(2.86314 2.39699 -7.80546e-20)
(3.00494 2.14684 6.13466e-19)
(3.22462 1.84986 0)
(3.47838 1.47105 2.58359e-19)
(2.78421 2.25131 -3.76863e-19)
(2.77195 2.64966 5.04338e-19)
(2.91614 2.4885 0)
(2.92569 2.36693 -9.92437e-19)
(2.88645 2.23987 6.99854e-19)
(2.84094 2.08869 1.26085e-19)
(2.82628 1.90963 8.2015e-19)
(2.87251 1.7045 1.32825e-19)
(2.99157 1.48457 -1.13053e-19)
(3.18585 1.26157 -4.96373e-19)
(3.4231 0.987272 2.9261e-19)
(4.53494 2.39325 4.98471e-19)
(3.88128 2.16272 0)
(3.50886 1.43955 6.80998e-19)
(3.18044 0.921338 -1.03194e-19)
(2.88416 0.582499 -7.47921e-19)
(2.62263 0.35657 2.29437e-19)
(2.39411 0.199822 0)
(2.19391 0.0859413 0)
(2.01844 -0.00107276 1.83195e-19)
(1.86459 -0.0686361 -1.36818e-19)
(1.72981 -0.115554 1.83981e-19)
(1.227 3.24352 -6.63955e-18)
(2.1285 2.74618 0)
(2.43713 2.24326 -1.79452e-18)
(2.54803 1.67427 8.69688e-19)
(2.52193 1.19463 -3.30581e-19)
(2.41313 0.821231 1.15784e-20)
(2.26379 0.544367 0)
(2.10233 0.342604 0)
(1.94569 0.193765 1.38385e-19)
(1.80138 0.0828664 -1.01198e-19)
(1.67193 0.00676515 -3.00177e-19)
(0.0320233 2.72351 -3.14181e-18)
(0.748683 2.38712 5.9949e-18)
(1.29163 2.30127 -4.30106e-18)
(1.74476 1.98279 0)
(1.98707 1.57292 0)
(2.06104 1.17801 1.93331e-19)
(2.03283 0.847172 0)
(1.9463 0.586844 -1.53357e-19)
(1.83395 0.387406 5.27409e-20)
(1.71543 0.236735 -3.17135e-20)
(1.60048 0.131001 1.16396e-19)
(-0.304101 2.14258 2.16502e-18)
(0.28754 1.83486 0)
(0.55699 1.95847 -3.19964e-18)
(0.959134 1.86679 1.20497e-19)
(1.32894 1.6576 1.70091e-18)
(1.59343 1.36326 2.54829e-19)
(1.71717 1.05268 -9.83575e-21)
(1.73443 0.774533 -1.18589e-20)
(1.68626 0.548425 2.96605e-19)
(1.60698 0.372604 -1.41596e-19)
(1.51365 0.247727 0)
(-0.348916 1.63696 -1.71317e-18)
(0.126781 1.34547 5.05687e-18)
(0.253736 1.54078 -2.08552e-18)
(0.558457 1.56409 -1.93493e-18)
(0.866537 1.50117 1.19079e-18)
(1.13814 1.34473 0)
(1.33444 1.12775 -5.44788e-19)
(1.44474 0.892662 4.2402e-19)
(1.48219 0.671075 0)
(1.46536 0.481759 0)
(1.4114 0.339567 0)
(-0.284874 1.25122 5.87652e-20)
(0.0870515 0.974693 1.50697e-18)
(0.128382 1.17157 -1.25268e-18)
(0.357888 1.23216 1.76303e-19)
(0.602189 1.24607 1.37431e-19)
(0.846575 1.18566 -7.01092e-19)
(1.05338 1.05879 1.71705e-18)
(1.19922 0.890056 -1.02749e-19)
(1.28072 0.707644 -4.56668e-19)
(1.30912 0.535518 2.3183e-19)
(1.29155 0.397755 -1.39e-19)
(-0.168948 0.97102 -8.60631e-20)
(0.11294 0.708606 2.13214e-19)
(0.102066 0.884202 -1.40214e-19)
(0.275568 0.94802 0)
(0.456745 0.994579 -2.59663e-19)
(0.655552 0.988197 -1.24986e-18)
(0.843665 0.925466 1.31913e-18)
(0.99723 0.816138 -5.6744e-19)
(1.10605 0.677551 0)
(1.16965 0.532018 -2.26119e-19)
(1.18527 0.409199 6.189e-19)
(-0.0409008 0.77279 2.2201e-19)
(0.163349 0.526687 -2.14997e-19)
(0.124832 0.673676 1.81673e-19)
(0.262592 0.728563 0)
(0.392418 0.785049 2.47445e-19)
(0.546396 0.80397 8.96676e-19)
(0.702941 0.779391 -3.05193e-19)
(0.84441 0.711585 0)
(0.960402 0.609233 2.55937e-19)
(1.0429 0.48873 -1.68221e-19)
(1.08361 0.379864 -6.70087e-19)
(0.084897 0.625123 -1.75276e-19)
(0.226088 0.400123 3.22327e-20)
(0.168497 0.521516 -4.71972e-20)
(0.28747 0.566537 0)
(0.374837 0.624468 2.09902e-19)
(0.491519 0.653257 -5.62311e-19)
(0.614099 0.648738 9.28243e-20)
(0.733742 0.606642 0)
(0.842281 0.530018 0)
(0.931888 0.43032 5.373e-19)
(0.990744 0.336677 1.25206e-20)
(0.220699 0.512531 0)
(0.288653 0.302854 -3.09166e-20)
(0.229615 0.417156 0)
(0.33153 0.446403 4.86119e-20)
(0.383607 0.509142 -1.35188e-20)
(0.470138 0.538716 0)
(0.559569 0.543955 -4.11874e-20)
(0.652817 0.515364 -5.5618e-20)
(0.744837 0.453562 3.26457e-19)
(0.831769 0.365017 -1.62479e-19)
(0.897977 0.276651 0)
(0.338921 0.459249 1.15296e-19)
(0.368295 0.232306 -1.42711e-19)
(0.317102 0.341417 2.76906e-19)
(0.381404 0.368382 -2.36116e-19)
(0.413751 0.428818 -3.16318e-20)
(0.469087 0.459293 0)
(0.527596 0.467042 9.28711e-20)
(0.591499 0.443106 -1.49868e-19)
(0.660821 0.386823 3.22514e-20)
(0.736346 0.300923 6.29405e-20)
(0.801502 0.208194 -6.47448e-20)
(0.458079 0.443353 -1.12843e-19)
(0.465133 0.204179 5.75894e-19)
(0.406443 0.296697 -6.72081e-20)
(0.444488 0.326139 -2.08864e-19)
(0.456547 0.381325 -6.56604e-20)
(0.484145 0.410712 -1.82921e-19)
(0.512156 0.416562 1.14636e-19)
(0.545096 0.390236 1.00315e-19)
(0.587223 0.331458 2.35123e-20)
(0.645716 0.241283 -1.76525e-20)
(0.70688 0.139007 1.78303e-20)
(0.585651 0.447291 -5.29718e-19)
(0.572167 0.206762 5.89119e-19)
(0.50296 0.282561 3.72647e-19)
(0.518288 0.313673 -5.21947e-20)
(0.51142 0.363295 -1.33019e-19)
(0.513199 0.389204 -4.06614e-20)
(0.512375 0.389632 -3.28354e-19)
(0.514338 0.355625 5.78176e-20)
(0.526098 0.286863 2.02308e-19)
(0.5614 0.184969 9.4315e-20)
(0.606712 0.0685351 0)
(0.73077 0.47665 0)
(0.694745 0.236969 -8.52522e-19)
(0.6124 0.29597 8.16368e-19)
(0.604476 0.327233 -1.2227e-19)
(0.579395 0.370273 -1.44855e-19)
(0.557231 0.390281 1.97951e-19)
(0.530298 0.381403 0)
(0.503753 0.334196 2.06675e-19)
(0.486042 0.248673 -2.74631e-19)
(0.494872 0.128668 -3.43297e-19)
(0.527907 -0.011519 1.803e-19)
(0.887425 0.536612 0)
(0.825429 0.297818 -1.26276e-19)
(0.733063 0.337216 0)
(0.704523 0.364493 -1.56331e-20)
(0.662691 0.398901 0)
(0.619452 0.410274 -2.68908e-19)
(0.56993 0.38888 3.16537e-19)
(0.518764 0.324409 2.78208e-19)
(0.475294 0.215944 -4.07245e-19)
(0.457933 0.07044 1.13099e-20)
(0.479458 -0.103403 3.46981e-19)
(1.05241 0.614247 -1.1385e-19)
(0.966376 0.382424 1.01702e-19)
(0.867753 0.40217 -4.1038e-19)
(0.821999 0.422502 1.40998e-19)
(0.765862 0.446348 0)
(0.705438 0.446494 0)
(0.637889 0.409933 -1.10352e-19)
(0.567538 0.325171 3.48981e-19)
(0.504347 0.189855 -2.63466e-19)
(0.465431 0.0137197 0)
(0.479408 -0.194904 -2.25058e-19)
(1.22786 0.705114 -6.86429e-19)
(1.12213 0.486445 2.28228e-20)
(1.0209 0.487591 -4.2428e-19)
(0.96194 0.498991 6.79801e-19)
(0.895006 0.510965 0)
(0.822349 0.49804 0)
(0.742606 0.444578 0)
(0.660211 0.337609 -2.11072e-19)
(0.58591 0.172889 2.01645e-19)
(0.535705 -0.039652 0)
(0.53831 -0.286512 0)
(1.41145 0.807338 8.80923e-19)
(1.29125 0.608319 6.52122e-19)
(1.19305 0.592437 -5.03342e-19)
(1.12719 0.593565 4.8325e-20)
(1.0549 0.593129 0)
(0.976472 0.566445 5.60691e-20)
(0.891885 0.495714 4.30483e-20)
(0.806149 0.366396 0)
(0.730187 0.172643 -1.81245e-19)
(0.678725 -0.0761228 1.39683e-19)
(0.687108 -0.360702 0)
(1.59831 0.914062 0)
(1.47055 0.743152 0)
(1.38236 0.714322 0)
(1.31759 0.705947 5.76828e-20)
(1.24706 0.69435 -3.21624e-19)
(1.17073 0.655111 -3.07994e-19)
(1.09023 0.568651 1.31225e-19)
(1.01207 0.41901 1.52022e-19)
(0.948253 0.199115 -5.17021e-20)
(0.913561 -0.0822564 9.40912e-20)
(0.933347 -0.400923 3.14333e-19)
(1.78348 1.01974 -1.13374e-18)
(1.65684 0.88537 -8.52651e-19)
(1.58549 0.849886 6.46836e-19)
(1.5299 0.835447 3.67607e-19)
(1.46857 0.816326 -7.36701e-19)
(1.40244 0.767982 5.62015e-19)
(1.33552 0.669507 2.17579e-19)
(1.27668 0.50429 -2.4338e-19)
(1.23892 0.264837 4.62844e-20)
(1.23515 -0.0415004 -2.16503e-19)
(1.2818 -0.389361 -3.60782e-19)
(1.96252 1.12287 1.35489e-18)
(1.84625 1.03154 -1.01458e-18)
(1.79718 0.996888 3.85493e-19)
(1.75727 0.98194 0)
(1.71095 0.960749 -8.62388e-19)
(1.66145 0.908231 3.18805e-19)
(1.61642 0.803059 -2.70626e-19)
(1.58808 0.629829 -3.66697e-19)
(1.5901 0.382518 -5.97426e-19)
(1.63307 0.068028 4.47491e-19)
(1.70785 -0.288338 3.1351e-19)
(2.13497 1.22018 4.27055e-19)
(2.0363 1.17842 1.2573e-18)
(2.01179 1.15346 -4.5507e-19)
(1.99013 1.14488 0)
(1.96058 1.12706 2.38801e-19)
(1.93065 1.07475 1.84699e-19)
(1.91325 0.968217 1.4511e-19)
(1.9245 0.796246 3.16623e-19)
(1.97864 0.55618 1.29645e-18)
(2.08841 0.254618 2.205e-20)
(2.20258 -0.102679 1.0278e-18)
(2.29208 1.33128 -5.36115e-18)
(2.22716 1.33349 3.37075e-18)
(2.22074 1.32778 -5.96034e-19)
(2.21304 1.3308 -4.24104e-19)
(2.1966 1.31924 -3.0637e-19)
(2.185 1.26919 0)
(2.19718 1.16521 0)
(2.25126 1.00313 -4.86735e-19)
(2.35805 0.784597 -1.45321e-18)
(2.5252 0.512833 -1.14354e-20)
(2.68378 0.166179 0)
(2.51175 1.30469 5.16194e-19)
(2.42623 1.47787 -6.47311e-19)
(2.42394 1.51388 0)
(2.4206 1.54321 3.55803e-22)
(2.4175 1.5426 1.97675e-19)
(2.43079 1.49109 4.18914e-19)
(2.4781 1.38407 -1.9331e-18)
(2.57273 1.23165 1.66361e-18)
(2.71988 1.04352 -1.158e-18)
(2.92385 0.820726 -5.65485e-19)
(3.13666 0.528209 7.07976e-19)
(7.41733 -2.89472 -1.20286e-19)
(6.4643 -2.64849 1.07832e-19)
(6.04676 -2.15391 -2.41156e-20)
(5.72306 -1.74801 -4.88762e-20)
(5.39937 -1.41422 8.08995e-20)
(5.0919 -1.15168 6.9351e-20)
(4.81397 -0.952369 0)
(4.55858 -0.797075 9.34736e-20)
(4.32646 -0.673537 -2.00151e-19)
(4.11615 -0.574309 3.81967e-19)
(3.92854 -0.506988 3.03918e-20)
(4.75122 -4.16649 -5.11229e-20)
(4.90672 -3.76372 -1.26918e-19)
(5.05785 -3.18134 0)
(5.08229 -2.62236 -6.64623e-19)
(4.99359 -2.13865 1.76807e-19)
(4.83092 -1.74069 8.9498e-20)
(4.63483 -1.42424 -1.89746e-19)
(4.42923 -1.17657 1.43466e-19)
(4.22789 -0.982427 0)
(4.03752 -0.830723 -1.13245e-19)
(3.86255 -0.721716 -1.6459e-19)
(3.06944 -4.03723 -2.19076e-19)
(3.63378 -3.85833 4.52461e-18)
(4.00564 -3.5572 -3.28633e-18)
(4.26693 -3.12933 1.04475e-19)
(4.39549 -2.67099 1.6012e-19)
(4.4079 -2.2348 -9.18675e-19)
(4.33772 -1.8521 6.16928e-19)
(4.21734 -1.53398 1.39646e-20)
(4.07337 -1.27628 2.54852e-19)
(3.92322 -1.07025 -1.58948e-20)
(3.77666 -0.915102 -2.1659e-20)
(2.07731 -3.48162 6.44275e-18)
(2.67147 -3.53413 -1.84335e-20)
(3.12844 -3.48228 -3.21436e-18)
(3.48732 -3.25027 2.41328e-18)
(3.74222 -2.91819 1.30962e-18)
(3.88952 -2.5413 -1.18436e-18)
(3.94281 -2.1664 2.08174e-20)
(3.92449 -1.82591 9.19929e-19)
(3.86031 -1.53166 -7.59525e-20)
(3.76754 -1.2874 -6.8387e-19)
(3.65297 -1.09926 1.69471e-19)
(1.76297 -3.17278 0)
(2.11428 -3.18368 0)
(2.41442 -3.2132 2.73352e-18)
(2.79207 -3.14672 -5.22113e-18)
(3.12082 -2.96092 3.08184e-19)
(3.3639 -2.67977 1.24072e-18)
(3.50831 -2.35481 1.5681e-18)
(3.56783 -2.03154 -1.17206e-18)
(3.56852 -1.73152 -3.87706e-19)
(3.53329 -1.46475 -7.10728e-19)
(3.47554 -1.24151 1.1642e-18)
(1.62647 -2.90861 2.77326e-18)
(1.88462 -2.90828 0)
(2.06571 -2.95756 3.26431e-18)
(2.31871 -2.93057 -1.66611e-18)
(2.58404 -2.82421 0)
(2.83321 -2.63749 -2.34566e-18)
(3.03585 -2.39147 1.7728e-18)
(3.17762 -2.11514 1.13455e-18)
(3.25891 -1.83535 -4.61067e-19)
(3.29 -1.57356 0)
(3.28025 -1.35098 0)
(1.52466 -2.67639 -2.82943e-19)
(1.72445 -2.65028 -4.19822e-19)
(1.8567 -2.69425 0)
(2.05686 -2.68267 -5.00786e-19)
(2.27303 -2.6186 0)
(2.48932 -2.4916 0)
(2.68518 -2.30882 -1.65193e-18)
(2.84501 -2.08789 6.41346e-19)
(2.9616 -1.84942 1.62129e-18)
(3.03452 -1.61378 -2.10285e-20)
(3.06292 -1.40274 4.136e-20)
(1.42148 -2.48136 -2.07551e-20)
(1.58901 -2.42775 -1.18187e-18)
(1.69695 -2.45469 2.39063e-18)
(1.85702 -2.44423 9.36331e-19)
(2.03417 -2.39727 1.44071e-18)
(2.21963 -2.30508 -1.64633e-18)
(2.40025 -2.16872 0)
(2.56294 -1.99677 1.74032e-18)
(2.69843 -1.80187 -1.60086e-18)
(2.80053 -1.60077 7.05093e-20)
(2.85982 -1.41793 8.1637e-19)
(1.33144 -2.30523 0)
(1.4802 -2.23381 3.42691e-19)
(1.56987 -2.24629 5.33535e-19)
(1.70438 -2.23199 -4.39585e-19)
(1.85386 -2.19097 0)
(2.01387 -2.11701 5.21453e-19)
(2.1765 -2.00987 0)
(2.33239 -1.87357 -3.13505e-20)
(2.47331 -1.7148 0)
(2.59115 -1.54476 -1.07857e-18)
(2.67247 -1.38446 5.3747e-20)
(1.26281 -2.1466 0)
(1.39493 -2.05928 -3.30441e-19)
(1.46758 -2.06123 1.50291e-18)
(1.58315 -2.0428 -1.57223e-18)
(1.71222 -2.0036 -6.00453e-19)
(1.85245 -1.93917 0)
(1.9989 -1.84955 0)
(2.14506 -1.73705 -1.07198e-18)
(2.28442 -1.60489 0)
(2.40867 -1.45952 -1.07221e-18)
(2.50117 -1.31592 -1.47307e-18)
(1.2104 -2.01341 -1.50996e-18)
(1.32259 -1.9061 2.91584e-19)
(1.38125 -1.8962 2.32161e-18)
(1.48232 -1.87204 -1.81265e-18)
(1.59597 -1.83182 5.85505e-19)
(1.72118 -1.77192 0)
(1.85463 -1.69279 6.67826e-19)
(1.99166 -1.59621 4.48693e-19)
(2.12738 -1.4839 -3.35284e-20)
(2.25423 -1.36042 0)
(2.35167 -1.24203 3.02961e-20)
(1.15681 -1.89466 0)
(1.24829 -1.76884 8.27883e-19)
(1.30091 -1.74616 -1.30957e-18)
(1.39323 -1.71486 3.48243e-19)
(1.49648 -1.67151 1.05648e-18)
(1.61111 -1.61289 -1.21505e-18)
(1.73506 -1.53978 3.48349e-20)
(1.8649 -1.4539 -4.72172e-19)
(1.99706 -1.35633 -6.85599e-19)
(2.12514 -1.24982 -4.63846e-19)
(2.22895 -1.14664 0)
(1.10107 -1.77337 0)
(1.17572 -1.63476 -1.04207e-18)
(1.22541 -1.60234 6.14898e-19)
(1.31188 -1.56503 0)
(1.40822 -1.51815 9.83245e-19)
(1.516 -1.45907 -3.71423e-19)
(1.63386 -1.38915 2.37316e-20)
(1.7592 -1.3103 4.33215e-19)
(1.8893 -1.22318 3.01328e-19)
(2.01895 -1.12842 4.5815e-19)
(2.12793 -1.03255 0)
(1.05293 -1.65885 7.67437e-20)
(1.11198 -1.50421 9.80063e-19)
(1.15627 -1.46207 -5.68797e-19)
(1.23701 -1.4188 1.44181e-19)
(1.3283 -1.36797 0)
(1.432 -1.30735 0)
(1.5468 -1.23889 0)
(1.67027 -1.16492 3.89022e-19)
(1.79988 -1.08616 -3.15167e-19)
(1.93098 -1.00227 1.9857e-19)
(2.04101 -0.919768 -2.86907e-19)
(1.00362 -1.55142 1.12225e-18)
(1.04448 -1.37834 -9.32589e-19)
(1.08784 -1.32405 0)
(1.16625 -1.27341 -2.11026e-19)
(1.25539 -1.21762 0)
(1.35786 -1.15449 0)
(1.47252 -1.08653 0)
(1.59686 -1.01657 -3.57205e-19)
(1.72796 -0.94551 -3.27646e-19)
(1.86156 -0.87205 8.75034e-20)
(1.97589 -0.798883 6.47683e-20)
(0.954122 -1.4346 -1.11068e-18)
(0.976415 -1.2469 1.74336e-18)
(1.02154 -1.182 -6.85466e-19)
(1.09955 -1.12436 6.76524e-20)
(1.18888 -1.06328 0)
(1.29296 -0.997223 -2.97318e-19)
(1.41056 -0.929568 1.74841e-19)
(1.53862 -0.863864 -2.85588e-19)
(1.6732 -0.801173 3.0776e-19)
(1.81027 -0.738944 -2.59311e-19)
(1.92761 -0.67648 6.11286e-20)
(0.91133 -1.31462 -4.24055e-20)
(0.914891 -1.11002 -9.17946e-19)
(0.960546 -1.03384 6.31743e-19)
(1.03794 -0.968535 -4.91622e-19)
(1.12915 -0.901476 1.72647e-19)
(1.23778 -0.832209 -2.69447e-19)
(1.36173 -0.7655 7.1148e-20)
(1.49647 -0.705678 9.82411e-20)
(1.63615 -0.653566 0)
(1.77655 -0.605051 7.58111e-20)
(1.89497 -0.555643 -5.61539e-20)
(0.870132 -1.19537 5.262e-19)
(0.852026 -0.97033 1.03653e-19)
(0.901387 -0.878957 1.40057e-19)
(0.981082 -0.803161 0)
(1.0778 -0.728458 -1.76528e-19)
(1.19516 -0.65603 0)
(1.32943 -0.592164 1.91289e-19)
(1.47358 -0.541607 -7.56464e-20)
(1.61912 -0.503939 1.23154e-19)
(1.76207 -0.472546 0)
(1.88065 -0.437859 0)
(0.831479 -1.06485 0)
(0.78862 -0.820147 3.63856e-19)
(0.846343 -0.710628 -6.9211e-19)
(0.931866 -0.622626 2.05343e-19)
(1.03914 -0.539845 0)
(1.17053 -0.465828 0)
(1.31892 -0.409025 0)
(1.47407 -0.373344 0)
(1.6244 -0.355245 -1.73264e-19)
(1.76735 -0.344617 0)
(1.88427 -0.326639 -3.16672e-19)
(0.800551 -0.915335 9.43915e-19)
(0.729007 -0.652849 -5.05678e-19)
(0.801161 -0.521697 -2.09057e-19)
(0.898758 -0.41933 0)
(1.02381 -0.3297 -7.00728e-21)
(1.17565 -0.259811 5.32516e-21)
(1.34156 -0.218602 -1.84445e-19)
(1.50604 -0.206282 0)
(1.65611 -0.213378 0)
(1.79131 -0.225831 0)
(1.90224 -0.225635 1.69496e-19)
(0.777832 -0.753067 6.10547e-19)
(0.681787 -0.458281 -2.67071e-19)
(0.773966 -0.302027 2.26983e-19)
(0.894567 -0.185851 0)
(1.04832 -0.0962772 0)
(1.22633 -0.0429302 -1.28914e-19)
(1.40766 -0.0303691 9.45952e-20)
(1.5738 -0.0507536 5.07119e-20)
(1.71425 -0.0872752 2.84282e-19)
(1.83247 -0.123042 -1.43642e-19)
(1.9296 -0.140815 0)
(0.800162 -0.505064 -6.12324e-19)
(0.629967 -0.22082 1.3527e-19)
(0.789847 -0.0389207 0)
(0.950682 0.0798532 -2.14771e-21)
(1.14097 0.150132 2.16601e-20)
(1.34165 0.166625 1.07274e-19)
(1.526 0.136074 1.24118e-19)
(1.67834 0.0772804 -1.79065e-19)
(1.79588 0.0121307 9.7766e-20)
(1.88757 -0.0428899 0)
(1.96422 -0.0756878 0)
(0.697786 -0.431254 1.21952e-19)
(0.716965 0.0347813 0)
(0.881121 0.237872 0)
(1.10226 0.338333 -6.06713e-20)
(1.3258 0.362267 1.9456e-19)
(1.52898 0.323835 -2.03489e-19)
(1.69165 0.246323 1.63354e-19)
(1.8102 0.155592 0)
(1.89194 0.0719303 -1.03996e-19)
(1.94952 0.00769426 0)
(1.99782 -0.02961 0)
(1.92592 0.754594 5.64667e-19)
(1.02547 0.669665 6.09135e-22)
(1.49687 0.685056 1.45256e-19)
(1.63932 0.624909 -1.02842e-19)
(1.764 0.531813 -2.08853e-19)
(1.86576 0.414497 3.44125e-19)
(1.93496 0.291257 -9.72601e-20)
(1.97846 0.179512 -5.07029e-20)
(2.00292 0.0886393 0)
(2.01485 0.0245701 0)
(2.02794 -0.00889612 -1.88505e-19)
(6.93968 -1.25408 1.63127e-18)
(5.54496 -0.608446 -6.08165e-19)
(5.87968 -0.760439 1.27698e-18)
(5.98376 -0.819714 -1.30664e-18)
(5.75087 -0.742 -1.48008e-20)
(5.36082 -0.631867 -3.04394e-20)
(5.01116 -0.540515 -5.84489e-20)
(4.69626 -0.451361 -5.34515e-20)
(4.42544 -0.380934 -1.17748e-20)
(4.18274 -0.32819 3.14716e-19)
(3.97065 -0.300089 -1.43351e-19)
(4.50909 -1.7249 -2.8803e-19)
(3.94736 -0.787962 2.31061e-18)
(4.76513 -0.402493 -5.50692e-20)
(5.32876 -0.255699 4.06442e-19)
(5.51927 -0.157539 -7.74473e-19)
(5.44059 -0.0961711 0)
(5.19975 -0.0769498 0)
(4.83548 -0.0656281 0)
(4.51412 -0.0582085 -1.31555e-20)
(4.23799 -0.0514478 -3.92104e-20)
(4.00639 -0.0611074 -5.26865e-20)
(2.6917 -4.27635 -1.59427e-18)
(3.26933 -2.2722 9.04133e-19)
(3.93788 -1.06099 -3.00396e-18)
(4.53556 -0.378226 0)
(4.96906 0.0396114 7.63877e-19)
(5.17714 0.276702 0)
(5.15438 0.365753 0)
(4.91216 0.361419 0)
(4.57396 0.307764 3.86919e-19)
(4.25591 0.256083 3.79818e-19)
(4.007 0.198338 0)
(2.9433 -5.79232 -1.15542e-18)
(3.03167 -4.11008 1.69799e-18)
(3.42302 -2.33253 8.65518e-21)
(3.92537 -1.08309 8.39818e-19)
(4.41026 -0.216443 0)
(4.76278 0.34531 -7.51675e-19)
(4.91517 0.645571 0)
(4.83093 0.73991 0)
(4.57099 0.692596 -3.69967e-19)
(4.24203 0.591814 -3.68368e-19)
(3.95793 0.482204 -5.13874e-19)
(3.11754 -5.86851 5.15985e-18)
(3.02538 -5.2176 -3.10968e-18)
(3.14233 -3.60141 2.33749e-18)
(3.51607 -2.02911 -8.11654e-19)
(3.95616 -0.780068 -5.53767e-19)
(4.3419 0.133238 1.12711e-18)
(4.58667 0.717466 0)
(4.62644 1.00149 -6.72823e-19)
(4.46642 1.04136 -7.87127e-19)
(4.17754 0.937631 0)
(3.86818 0.785913 3.10803e-19)
(3.23918 -6.08461 0)
(3.18678 -5.59276 0)
(3.12323 -4.76459 0)
(3.28405 -3.10366 1.64826e-18)
(3.61916 -1.54299 -1.82564e-18)
(3.97048 -0.293293 8.8737e-19)
(4.23811 0.59824 0)
(4.34749 1.12503 6.45021e-19)
(4.27029 1.31755 7.56197e-19)
(4.03858 1.26631 1.08758e-19)
(3.7593 1.08413 -8.02119e-20)
(3.3552 -6.33913 0)
(3.36047 -5.87825 -3.62406e-19)
(3.25334 -5.23968 2.79738e-19)
(3.22403 -4.08408 -1.67962e-18)
(3.39671 -2.41242 1.52927e-18)
(3.66257 -0.879031 2.11365e-20)
(3.9003 0.317495 -5.26983e-20)
(4.02699 1.11233 -8.39383e-19)
(3.99943 1.50157 2.91485e-19)
(3.81798 1.55387 0)
(3.59809 1.38234 0)
(3.44877 -6.61042 3.58071e-18)
(3.50165 -6.17565 -2.41012e-18)
(3.39861 -5.61183 -2.59268e-19)
(3.30859 -4.74034 2.73638e-20)
(3.29923 -3.2525 3.58247e-19)
(3.43082 -1.56564 0)
(3.58888 -0.0946928 0)
(3.68397 0.973535 3.22766e-20)
(3.66804 1.58306 0)
(3.52325 1.77282 -1.66707e-19)
(3.34501 1.64839 1.53093e-19)
(3.5363 -6.87707 0)
(3.62384 -6.46701 0)
(3.51508 -5.94005 -2.15347e-18)
(3.40904 -5.16129 1.66757e-18)
(3.2969 -3.9756 -4.11412e-20)
(3.27032 -2.27793 0)
(3.30394 -0.60419 4.06834e-19)
(3.32394 0.720108 9.93142e-19)
(3.28111 1.55533 -7.6657e-19)
(3.14769 1.90114 0)
(3.03243 1.85529 4.28735e-19)
(3.62049 -7.12181 0)
(3.73011 -6.74162 3.1113e-18)
(3.60024 -6.25492 -2.14545e-18)
(3.48824 -5.52564 -4.47228e-19)
(3.31974 -4.48917 0)
(3.15619 -2.92839 1.0889e-18)
(3.04149 -1.16659 -2.08877e-18)
(2.94824 0.36682 -1.27203e-18)
(2.84487 1.41423 2.34284e-18)
(2.70304 1.92081 -1.11436e-18)
(2.63003 1.97757 8.84322e-20)
(3.68941 -7.31676 0)
(3.81315 -6.9868 3.61475e-19)
(3.64519 -6.54566 0)
(3.51705 -5.86114 4.33594e-19)
(3.30921 -4.90823 1.48055e-18)
(3.04681 -3.51313 -1.2024e-18)
(2.78961 -1.74411 0)
(2.5553 -0.0726733 3.80159e-18)
(2.36364 1.15307 -2.74e-18)
(2.19952 1.80858 1.15654e-18)
(2.14343 1.97076 -6.01342e-19)
(3.71098 -7.49045 3.40371e-18)
(3.83885 -7.21088 -6.81942e-19)
(3.65098 -6.7958 0)
(3.49668 -6.16551 4.6154e-18)
(3.2507 -5.29082 -1.46121e-18)
(2.90313 -4.0463 0)
(2.52364 -2.3236 2.00041e-18)
(2.14112 -0.585178 0)
(1.84528 0.76954 0)
(1.65272 1.54791 -1.15048e-18)
(1.62459 1.80309 -1.2012e-18)
(3.72017 -7.62896 -8.39267e-19)
(3.83547 -7.37289 -1.36332e-18)
(3.62574 -6.99028 0)
(3.42103 -6.42855 -9.06706e-19)
(3.13005 -5.63822 0)
(2.71277 -4.51559 0)
(2.22966 -2.89699 -6.08082e-18)
(1.7089 -1.16028 2.82503e-20)
(1.3081 0.263086 2.00793e-18)
(1.07898 1.1278 -2.44904e-18)
(1.11528 1.48493 1.22633e-18)
(3.71794 -7.70342 8.36524e-19)
(3.7844 -7.47641 1.36185e-18)
(3.55352 -7.13719 0)
(3.29462 -6.64208 0)
(2.94454 -5.95088 0)
(2.46314 -4.97498 0)
(1.8986 -3.48327 0)
(1.27709 -1.79986 5.91344e-18)
(0.786977 -0.362271 -4.27264e-18)
(0.53559 0.555206 -3.41366e-18)
(0.600454 1.00373 4.43773e-19)
(3.68806 -7.71754 -7.89979e-19)
(3.67429 -7.52552 1.27178e-18)
(3.42263 -7.22157 0)
(3.10898 -6.78941 0)
(2.69756 -6.19722 1.43332e-18)
(2.16907 -5.38564 -2.37753e-18)
(1.52848 -4.17419 -1.92443e-18)
(0.858598 -2.47347 -2.78202e-18)
(0.329474 -1.08443 1.98545e-18)
(0.0761504 -0.153545 6.49539e-18)
(0.159991 0.36534 -1.47337e-18)
(3.62653 -7.66715 -1.57977e-18)
(3.515 -7.51192 -1.29313e-18)
(3.2331 -7.24408 0)
(2.86543 -6.87495 3.42972e-18)
(2.3991 -6.37143 -4.15829e-18)
(1.8305 -5.68685 -2.24175e-18)
(1.17781 -4.74573 7.26987e-18)
(0.551269 -3.36116 5.34062e-18)
(-0.0181186 -1.88801 -2.85175e-19)
(-0.249813 -0.958408 1.36964e-18)
(-0.128994 -0.389962 -4.28708e-19)
(3.51878 -7.53359 -7.77437e-19)
(3.30228 -7.41825 -3.64893e-18)
(2.98128 -7.19679 4.56459e-18)
(2.56637 -6.90573 4.5746e-18)
(2.06741 -6.51281 -2.47652e-18)
(1.50085 -5.97555 4.12215e-18)
(0.89288 -5.22983 -8.07503e-18)
(0.312031 -4.16179 2.37884e-18)
(-0.190937 -2.86812 -1.60709e-18)
(-0.413284 -1.83482 -3.22469e-18)
(-0.227335 -1.22616 -6.24213e-19)
(3.34149 -7.3028 -4.86583e-18)
(3.02198 -7.22843 9.63405e-19)
(2.65442 -7.06981 -9.11241e-19)
(2.20254 -6.88045 -2.11796e-18)
(1.69672 -6.62745 2.27299e-18)
(1.17293 -6.26458 -5.32262e-18)
(0.663613 -5.72749 2.74682e-18)
(0.196393 -4.92451 -1.71536e-18)
(-0.207128 -3.85708 1.27729e-18)
(-0.412936 -2.81483 1.41932e-18)
(-0.166296 -2.08584 3.69623e-19)
(3.05279 -6.96207 -6.75037e-19)
(2.64325 -6.92771 0)
(2.22503 -6.86176 6.7354e-19)
(1.75647 -6.81348 -1.81181e-18)
(1.28621 -6.73928 -5.88949e-20)
(0.862243 -6.57897 1.53136e-18)
(0.512145 -6.25741 -2.08389e-18)
(0.22475 -5.6802 2.24615e-18)
(-0.0330025 -4.81945 -9.54283e-19)
(-0.204486 -3.84083 2.68766e-19)