/*--------------------------------*- C++ -*----------------------------------*\
| =========                 |                                                 |
| \\      /  F ield         | OpenFOAM: The Open Source CFD Toolbox           |
|  \\    /   O peration     | Version:  3.0.1                                 |
|   \\  /    A nd           | Web:      www.OpenFOAM.org                      |
|    \\/     M anipulation  |                                                 |
\*---------------------------------------------------------------------------*/
FoamFile
{
    version     2.0;
    format      ascii;
    class       surfaceScalarField;
    location    "0.255927";
    object      phi;
}
// * * * * * * * * * * * * * * * * * * * * * * * * * * * * * * * * * * * * * //

dimensions      [0 3 -1 0 0 0 0];

internalField   nonuniform List<scalar> 
32369
(
-1.62801e-05
-1.90093e-06
1.8181e-05
-2.65606e-05
-4.39244e-06
1.46729e-05
-3.4793e-05
-6.33648e-06
1.45689e-05
-4.17189e-05
-7.58513e-06
1.4511e-05
-4.82732e-05
-8.179e-06
1.47333e-05
-5.50718e-05
-8.27807e-06
1.50767e-05
-6.25769e-05
-7.92494e-06
1.543e-05
-7.11649e-05
-7.07135e-06
1.56594e-05
-8.11597e-05
-5.60822e-06
1.5603e-05
-9.29284e-05
-3.29706e-06
1.50658e-05
2.47361e-07
1.37254e-05
-0.000106901
-7.50815e-06
5.60722e-06
-1.55076e-05
3.60703e-06
-2.39699e-05
2.12576e-06
-3.21023e-05
5.47301e-07
-3.98053e-05
-4.75936e-07
-4.74913e-05
-5.92083e-07
-5.57231e-05
3.06822e-07
-6.50563e-05
2.26189e-06
-7.60315e-05
5.36698e-06
-8.91587e-05
9.83015e-06
1.60303e-05
-0.000104942
-3.0261e-06
8.63332e-06
-7.24794e-06
7.82887e-06
-1.33227e-05
8.2005e-06
-2.05942e-05
7.81881e-06
-2.87328e-05
7.66266e-06
-3.74675e-05
8.14261e-06
-4.68669e-05
9.70625e-06
-5.72341e-05
1.26291e-05
-6.90176e-05
1.71505e-05
-8.27356e-05
2.35481e-05
3.22865e-05
-9.89918e-05
-1.98301e-06
1.06163e-05
-5.07209e-06
1.0918e-05
-9.37745e-06
1.25059e-05
-1.50441e-05
1.34855e-05
-2.20599e-05
1.46784e-05
-3.02061e-05
1.62888e-05
-3.93728e-05
1.88729e-05
-4.9644e-05
2.29003e-05
-6.12853e-05
2.87918e-05
-7.47225e-05
3.69854e-05
4.80209e-05
-9.04568e-05
-1.52401e-06
1.21403e-05
-4.02015e-06
1.34141e-05
-7.51089e-06
1.59966e-05
-1.19654e-05
1.79399e-05
-1.76867e-05
2.03998e-05
-2.47185e-05
2.33206e-05
-3.3013e-05
2.71674e-05
-4.25814e-05
3.24686e-05
-5.35683e-05
3.97788e-05
-6.62532e-05
4.96702e-05
6.29027e-05
-8.1135e-05
-1.20689e-06
1.33472e-05
-3.43671e-06
1.56439e-05
-6.15345e-06
1.87133e-05
-9.80852e-06
2.1595e-05
-1.45461e-05
2.51374e-05
-2.04683e-05
2.92428e-05
-2.76593e-05
3.43584e-05
-3.62168e-05
4.1026e-05
-4.62331e-05
4.97951e-05
-5.79134e-05
6.13506e-05
7.66236e-05
-7.16343e-05
-1.08892e-06
1.44361e-05
-2.8676e-06
1.74226e-05
-5.1388e-06
2.09845e-05
-8.19124e-06
2.46474e-05
-1.21175e-05
2.90637e-05
-1.71025e-05
3.42278e-05
-2.3296e-05
4.0552e-05
-3.07779e-05
4.85079e-05
-3.96986e-05
5.87158e-05
-5.02296e-05
7.18816e-05
8.8977e-05
-6.2583e-05
-1.03621e-06
1.54723e-05
-2.61765e-06
1.9004e-05
-4.5531e-06
2.292e-05
-7.10541e-06
2.71997e-05
-1.03888e-05
3.23471e-05
-1.45746e-05
3.84136e-05
-1.98185e-05
4.57959e-05
-2.62575e-05
5.49469e-05
-3.40439e-05
6.65022e-05
-4.33175e-05
8.11552e-05
0.000100002
-5.43421e-05
-9.24531e-07
1.63969e-05
-2.31257e-06
2.03921e-05
-3.99513e-06
2.46025e-05
-6.16749e-06
2.93721e-05
-8.92632e-06
3.51059e-05
-1.24402e-05
4.19275e-05
-1.68615e-05
5.02172e-05
-2.23451e-05
6.04305e-05
-2.90276e-05
7.31846e-05
-3.71354e-05
8.9263e-05
0.000109747
-4.68807e-05
-6.46744e-07
1.70436e-05
-1.75418e-06
2.14995e-05
-3.15248e-06
2.60009e-05
-4.97693e-06
3.11965e-05
-7.29703e-06
3.7426e-05
-1.02518e-05
4.48823e-05
-1.39859e-05
5.39513e-05
-1.86383e-05
6.5083e-05
-2.43811e-05
7.89274e-05
-3.13994e-05
9.62813e-05
0.000118249
-3.99013e-05
-4.19014e-07
1.74626e-05
-1.2788e-06
2.23593e-05
-2.39246e-06
2.71145e-05
-3.86919e-06
3.26733e-05
-5.77035e-06
3.93271e-05
-8.20956e-06
4.73215e-05
-1.13014e-05
5.70432e-05
-1.51853e-05
6.89668e-05
-2.00182e-05
8.37604e-05
-2.59968e-05
0.00010226
0.000125479
-3.32273e-05
-3.77936e-07
1.78406e-05
-1.08845e-06
2.30698e-05
-1.96458e-06
2.79906e-05
-3.11996e-06
3.38287e-05
-4.59799e-06
4.08052e-05
-6.50808e-06
4.92316e-05
-8.95211e-06
5.94872e-05
-1.20486e-05
7.20633e-05
-1.59468e-05
8.76586e-05
-2.08069e-05
0.00010712
0.000131471
-2.67984e-05
-2.43748e-07
1.80843e-05
-7.43945e-07
2.357e-05
-1.36817e-06
2.86149e-05
-2.19924e-06
3.46597e-05
-3.27141e-06
4.18773e-05
-4.67247e-06
5.06326e-05
-6.49314e-06
6.13079e-05
-8.84329e-06
7.44135e-05
-1.18116e-05
9.06268e-05
-1.55509e-05
0.000110859
0.000136183
-2.02633e-05
6.885e-08
1.80155e-05
-1.21038e-07
2.37599e-05
-4.33206e-07
2.8927e-05
-9.1711e-07
3.51436e-05
-1.57601e-06
4.25362e-05
-2.47441e-06
5.1531e-05
-3.66821e-06
6.25017e-05
-5.251e-06
7.59963e-05
-7.31472e-06
9.26906e-05
-9.97169e-06
0.000113516
0.000139618
-1.34066e-05
1.54291e-07
1.78612e-05
1.86466e-07
2.37277e-05
1.78191e-07
2.89353e-05
7.13619e-08
3.52505e-05
-1.10605e-07
4.27182e-05
-4.24169e-07
5.18446e-05
-9.15943e-07
6.29935e-05
-1.6346e-06
7.67149e-05
-2.64783e-06
9.37038e-05
-4.08244e-06
0.000114951
0.000141502
-5.9663e-06
3.08067e-07
1.75531e-05
6.17086e-07
2.34187e-05
9.38239e-07
2.86142e-05
1.26016e-06
3.49285e-05
1.59028e-06
4.23881e-05
1.90527e-06
5.15296e-05
2.19348e-06
6.27052e-05
2.4156e-06
7.64928e-05
2.52443e-06
9.3595e-05
2.51811e-06
0.000114957
0.000141728
2.29243e-06
6.1988e-07
1.69332e-05
1.32005e-06
2.27185e-05
2.05436e-06
2.78798e-05
2.85161e-06
3.41313e-05
3.76051e-06
4.14792e-05
4.77023e-06
5.05199e-05
5.90301e-06
6.15725e-05
7.16243e-06
7.52334e-05
8.55975e-06
9.21976e-05
1.00773e-05
0.00011344
0.000140152
1.16528e-05
8.43299e-07
1.60899e-05
1.90478e-06
2.16571e-05
3.08924e-06
2.66954e-05
4.44464e-06
3.27759e-05
6.01787e-06
3.9906e-05
7.84725e-06
4.86905e-05
9.98362e-06
5.94361e-05
1.24662e-05
7.27508e-05
1.53379e-05
8.93259e-05
1.86358e-05
0.000110142
0.000136317
2.24706e-05
1.10504e-06
1.49849e-05
2.58332e-06
2.01788e-05
4.28157e-06
2.49971e-05
6.2685e-06
3.0789e-05
8.61008e-06
3.75644e-05
1.13953e-05
4.59053e-05
1.46995e-05
5.61319e-05
1.86095e-05
6.88408e-05
2.32274e-05
8.47081e-05
2.86868e-05
0.000104682
0.000129934
3.507e-05
1.41919e-06
1.35657e-05
3.3702e-06
1.82278e-05
5.64713e-06
2.27202e-05
8.36428e-06
2.80718e-05
1.1603e-05
3.43257e-05
1.54973e-05
4.2011e-05
2.01569e-05
5.14723e-05
2.57316e-05
6.32661e-05
3.23707e-05
7.8069e-05
4.02858e-05
9.67671e-05
0.000120496
4.97239e-05
1.77016e-06
1.17955e-05
4.20653e-06
1.57914e-05
7.13124e-06
1.97955e-05
1.06841e-05
2.4519e-05
1.49613e-05
3.00485e-05
2.01284e-05
3.68439e-05
2.63462e-05
4.52545e-05
3.38052e-05
5.58071e-05
4.27454e-05
6.91288e-05
5.34809e-05
8.60316e-05
0.000107558
6.64187e-05
2.04168e-06
9.75386e-06
4.96572e-06
1.28674e-05
8.60008e-06
1.61611e-05
1.30839e-05
2.00351e-05
1.85139e-05
2.46185e-05
2.50878e-05
3.02699e-05
3.30028e-05
3.73395e-05
4.25138e-05
4.6296e-05
5.39639e-05
5.76787e-05
6.77865e-05
7.22091e-05
9.08675e-05
8.44772e-05
2.20218e-06
7.55167e-06
5.75091e-06
9.31865e-06
1.00974e-05
1.18146e-05
1.54713e-05
1.46612e-05
2.20203e-05
1.80696e-05
2.99613e-05
2.23289e-05
3.95348e-05
2.7766e-05
5.10903e-05
3.47406e-05
6.50654e-05
4.37037e-05
8.20382e-05
5.52362e-05
7.02005e-05
0.000102705
-1.31262e-07
7.68294e-06
4.45141e-06
4.73597e-06
1.01934e-05
6.07265e-06
1.67939e-05
8.06071e-06
2.4622e-05
1.02415e-05
3.39164e-05
1.30344e-05
4.49882e-05
1.66942e-05
5.83139e-05
2.14148e-05
7.45013e-05
2.75163e-05
9.42735e-05
3.54639e-05
4.59047e-05
0.000118569
-3.0091e-06
2.11901e-05
-6.71769e-06
1.83815e-05
-1.42135e-05
2.20647e-05
-2.28359e-05
2.31335e-05
-3.16308e-05
2.35281e-05
-4.07376e-05
2.41835e-05
-5.04316e-05
2.51241e-05
-6.10503e-05
2.62781e-05
-7.29561e-05
2.75088e-05
-8.65122e-05
2.86218e-05
2.93221e-05
-0.000102109
4.22199e-06
1.69682e-05
5.09762e-06
1.75059e-05
1.39411e-06
2.57682e-05
-5.11196e-06
2.96395e-05
-1.36757e-05
3.20919e-05
-2.35714e-05
3.40792e-05
-3.44971e-05
3.60497e-05
-4.65503e-05
3.83313e-05
-6.00016e-05
4.09601e-05
-7.5169e-05
4.37893e-05
4.66511e-05
-9.2498e-05
3.00366e-06
1.39645e-05
3.51379e-06
1.69957e-05
2.37077e-06
2.69112e-05
-7.9909e-07
3.28094e-05
-6.70725e-06
3.8e-05
-1.48099e-05
4.21819e-05
-2.46618e-05
4.59016e-05
-3.60071e-05
4.96766e-05
-4.88884e-05
5.38414e-05
-6.3573e-05
5.84739e-05
6.34942e-05
-8.0416e-05
1.77986e-06
1.21846e-05
1.37091e-06
1.74047e-05
7.64106e-07
2.7518e-05
-9.56472e-07
3.453e-05
-4.69542e-06
4.1739e-05
-1.04415e-05
4.7928e-05
-1.81928e-05
5.36529e-05
-2.77427e-05
5.92264e-05
-3.89771e-05
6.50758e-05
-5.19666e-05
7.14634e-05
7.84788e-05
-6.69512e-05
1.06573e-06
1.11189e-05
3.08597e-07
1.81618e-05
-4.34354e-07
2.8261e-05
-1.83682e-06
3.59324e-05
-4.34135e-06
4.42435e-05
-8.2575e-06
5.18441e-05
-1.3909e-05
5.93044e-05
-2.13138e-05
6.66313e-05
-3.04253e-05
7.41873e-05
-4.12428e-05
8.22808e-05
9.10811e-05
-5.38451e-05
6.83181e-07
1.04357e-05
3.91478e-08
1.88058e-05
-6.73067e-07
2.89732e-05
-1.96835e-06
3.72277e-05
-3.82817e-06
4.61033e-05
-6.59572e-06
5.46117e-05
-1.06326e-05
6.33414e-05
-1.61187e-05
7.21173e-05
-2.31402e-05
8.12089e-05
-3.1692e-05
9.08325e-05
0.00010125
-4.18604e-05
4.80751e-07
9.95498e-06
7.38112e-08
1.92128e-05
-4.34019e-07
2.9481e-05
-1.51328e-06
3.8307e-05
-2.9124e-06
4.75024e-05
-4.89601e-06
5.65953e-05
-7.74425e-06
6.61896e-05
-1.16765e-05
7.60496e-05
-1.68322e-05
8.63645e-05
-2.32789e-05
9.72793e-05
0.000108937
-3.09669e-05
2.81831e-07
9.67315e-06
2.7775e-08
1.94668e-05
-2.79303e-07
2.97881e-05
-1.05254e-06
3.90802e-05
-1.9846e-06
4.84345e-05
-3.30033e-06
5.7911e-05
-5.16787e-06
6.80571e-05
-7.78074e-06
7.86624e-05
-1.13021e-05
8.98859e-05
-1.58471e-05
0.000101824
0.00011464
-2.15498e-05
1.87047e-07
9.48611e-06
1.00215e-07
1.95537e-05
1.44168e-08
2.98739e-05
-4.12039e-07
3.95067e-05
-8.8669e-07
4.89092e-05
-1.58313e-06
5.86075e-05
-2.59131e-06
6.90653e-05
-4.06487e-06
8.0136e-05
-6.13138e-06
9.19524e-05
-8.86226e-06
0.000104555
0.000118181
-1.24027e-05
1.41647e-07
9.34446e-06
2.58251e-07
1.94371e-05
4.31589e-07
2.97006e-05
3.90695e-07
3.95476e-05
3.78526e-07
4.89213e-05
2.74517e-07
5.87115e-05
6.83969e-08
6.92714e-05
-3.70957e-07
8.05754e-05
-1.11973e-06
9.27012e-05
-2.2455e-06
0.000105681
0.000119685
-3.75034e-06
2.8492e-07
9.05954e-06
6.6653e-07
1.90555e-05
1.13097e-06
2.92361e-05
1.51341e-06
3.91651e-05
1.97556e-06
4.84592e-05
2.45565e-06
5.82314e-05
2.98492e-06
6.87422e-05
3.49239e-06
8.00679e-05
3.93533e-06
9.22582e-05
4.27919e-06
0.000105337
0.000119529
4.43562e-06
3.07389e-07
8.75215e-06
8.54479e-07
1.85084e-05
1.63564e-06
2.8455e-05
2.4559e-06
3.83449e-05
3.42585e-06
4.74892e-05
4.53161e-06
5.71256e-05
5.84093e-06
6.74328e-05
7.31472e-06
7.85941e-05
8.96703e-06
9.06059e-05
1.07899e-05
0.000103514
0.000117552
1.27667e-05
3.46604e-07
8.40555e-06
1.10421e-06
1.77508e-05
2.20561e-06
2.73536e-05
3.49885e-06
3.70516e-05
5.00472e-06
4.59833e-05
6.75892e-06
5.53714e-05
8.84595e-06
6.53458e-05
1.12968e-05
7.61432e-05
1.41472e-05
8.77555e-05
1.74366e-05
0.000100225
0.0001137
2.12888e-05
4.99796e-07
7.90575e-06
1.5049e-06
1.67457e-05
2.96731e-06
2.58912e-05
4.74803e-06
3.52709e-05
6.80951e-06
4.39219e-05
9.22778e-06
5.29531e-05
1.2115e-05
6.24586e-05
1.55354e-05
7.27228e-05
1.95834e-05
8.37076e-05
2.4331e-05
9.54771e-05
0.000108074
2.99572e-05
5.67389e-07
7.33836e-06
1.76213e-06
1.55509e-05
3.5645e-06
2.40888e-05
5.83718e-06
3.29982e-05
8.48913e-06
4.12699e-05
1.16298e-05
4.98125e-05
1.53747e-05
5.87137e-05
1.9846e-05
6.82515e-05
2.51557e-05
7.83979e-05
3.14254e-05
8.92074e-05
0.000100715
3.87847e-05
6.64688e-07
6.67367e-06
2.05771e-06
1.41579e-05
4.2028e-06
2.19437e-05
6.97677e-06
3.02243e-05
1.02602e-05
3.79865e-05
1.41538e-05
4.59189e-05
1.88049e-05
5.40626e-05
2.43688e-05
6.26876e-05
3.10029e-05
7.17638e-05
3.8853e-05
8.13573e-05
9.13228e-05
4.82449e-05
7.96774e-07
5.8769e-06
2.39909e-06
1.25556e-05
4.88338e-06
1.94594e-05
8.16178e-06
2.69459e-05
1.20891e-05
3.40592e-05
1.67892e-05
4.12187e-05
2.24053e-05
4.84465e-05
2.91327e-05
5.59602e-05
3.71263e-05
6.37702e-05
4.6596e-05
7.18876e-05
8.00621e-05
5.78567e-05
9.22176e-07
4.95472e-06
2.70338e-06
1.07744e-05
5.4989e-06
1.66639e-05
9.25937e-06
2.31854e-05
1.38498e-05
2.94687e-05
1.93966e-05
3.56719e-05
2.60516e-05
4.17916e-05
3.40029e-05
4.80088e-05
4.34333e-05
5.43399e-05
5.45415e-05
6.07793e-05
6.69554e-05
6.76483e-05
1.04e-06
3.91472e-06
2.96085e-06
8.85353e-06
6.00242e-06
1.36223e-05
1.0186e-05
1.90018e-05
1.54295e-05
2.42253e-05
2.18559e-05
2.92454e-05
2.96049e-05
3.40426e-05
3.88473e-05
3.87665e-05
4.974e-05
4.34472e-05
6.25239e-05
4.79954e-05
5.19386e-05
7.75407e-05
1.12977e-06
2.78495e-06
3.11966e-06
6.86364e-06
6.30023e-06
1.04417e-05
1.08005e-05
1.45015e-05
1.66391e-05
1.83867e-05
2.39315e-05
2.1953e-05
3.27752e-05
2.51989e-05
4.32731e-05
2.82686e-05
5.55905e-05
3.11298e-05
6.99913e-05
3.35946e-05
3.50674e-05
8.68625e-05
1.20128e-06
1.58367e-06
3.06572e-06
4.9992e-06
6.20377e-06
7.30367e-06
1.08848e-05
9.82049e-06
1.72153e-05
1.20562e-05
2.52503e-05
1.3918e-05
3.50104e-05
1.54388e-05
4.65541e-05
1.67249e-05
6.00482e-05
1.76357e-05
7.57795e-05
1.78632e-05
1.66798e-05
9.41672e-05
4.9224e-07
1.09143e-06
2.31813e-06
3.17331e-06
5.30963e-06
4.31217e-06
1.00494e-05
5.08074e-06
1.65803e-05
5.5253e-06
2.48638e-05
5.6345e-06
3.49152e-05
5.38744e-06
4.68284e-05
4.81161e-06
6.08313e-05
3.63283e-06
7.73242e-05
1.37027e-06
-2.93036e-06
9.69344e-05
-4.10588e-07
1.50202e-06
1.54025e-06
1.22247e-06
5.27438e-06
5.7804e-07
1.07794e-05
-4.2424e-07
1.81642e-05
-1.8595e-06
2.73173e-05
-3.51861e-06
3.82937e-05
-5.58894e-06
5.14599e-05
-8.35462e-06
6.72042e-05
-1.21115e-05
8.58835e-05
-1.7309e-05
-2.43413e-05
0.000107294
9.18496e-06
1.51434e-05
2.17941e-05
2.94306e-05
3.78126e-05
4.73284e-05
5.84337e-05
7.14939e-05
8.68988e-05
0.000105054
0.000126617
-3.80668e-06
1.7378e-05
-1.35714e-05
-7.50084e-06
1.61574e-05
-1.24633e-05
-1.31737e-05
1.92263e-05
-1.35534e-05
-1.94296e-05
2.12791e-05
-1.50232e-05
-2.58171e-05
2.34623e-05
-1.70749e-05
-3.24254e-05
2.64519e-05
-1.98436e-05
-3.95211e-05
3.04612e-05
-2.33654e-05
-4.74006e-05
3.57702e-05
-2.78907e-05
-5.63777e-05
4.27112e-05
-3.37341e-05
-6.67902e-05
5.17507e-05
-4.13382e-05
6.35597e-05
-5.1279e-05
-7.9071e-05
2.89368e-06
1.44844e-05
3.505e-06
1.55461e-05
9.13716e-07
2.18176e-05
-3.47621e-06
2.56691e-05
-9.26081e-06
2.92469e-05
-1.59874e-05
3.31785e-05
-2.35183e-05
3.79921e-05
-3.19663e-05
4.42182e-05
-4.15969e-05
5.23418e-05
-5.27617e-05
6.29155e-05
7.6676e-05
-6.58779e-05
2.4527e-06
1.20317e-05
3.18722e-06
1.48116e-05
2.85105e-06
2.21537e-05
1.13498e-06
2.73851e-05
-2.45564e-06
3.28376e-05
-7.55313e-06
3.82759e-05
-1.38888e-05
4.43278e-05
-2.13425e-05
5.16718e-05
-2.99731e-05
6.09724e-05
-3.9998e-05
7.29405e-05
8.84266e-05
-5.17487e-05
1.72381e-06
1.03078e-05
2.00927e-06
1.45262e-05
2.31224e-06
2.18508e-05
1.79991e-06
2.78975e-05
-6.08719e-08
3.46983e-05
-3.26149e-06
4.14766e-05
-7.7938e-06
4.88601e-05
-1.35471e-05
5.74251e-05
-2.04725e-05
6.78979e-05
-2.86179e-05
8.10859e-05
9.7889e-05
-3.80803e-05
1.32056e-06
8.98728e-06
1.57445e-06
1.42723e-05
1.96703e-06
2.14582e-05
1.82534e-06
2.80392e-05
9.33872e-07
3.55898e-05
-8.84958e-07
4.32954e-05
-3.79035e-06
5.17655e-05
-7.81103e-06
6.14458e-05
-1.29141e-05
7.30009e-05
-1.90995e-05
8.72713e-05
0.000105208
-2.64184e-05
1.17387e-06
7.81341e-06
1.68121e-06
1.37649e-05
2.25819e-06
2.08812e-05
2.35398e-06
2.79434e-05
1.98936e-06
3.59544e-05
1.00472e-06
4.428e-05
-7.55192e-07
5.35254e-05
-3.37979e-06
6.40704e-05
-6.91132e-06
7.65324e-05
-1.13604e-05
9.17204e-05
0.00011057
-1.67229e-05
1.08401e-06
6.7294e-06
1.83938e-06
1.30096e-05
2.62999e-06
2.00906e-05
3.00784e-06
2.75655e-05
3.04695e-06
3.59153e-05
2.63249e-06
4.46945e-05
1.67146e-06
5.44864e-05
8.30085e-08
6.56589e-05
-2.18652e-06
7.8802e-05
-5.20056e-06
9.47344e-05
0.000114327
-8.95672e-06
9.21325e-07
5.80807e-06
1.85766e-06
1.20732e-05
2.80765e-06
1.91406e-05
3.44421e-06
2.6929e-05
3.83815e-06
3.55214e-05
3.88406e-06
4.46486e-05
3.55434e-06
5.48161e-05
2.78546e-06
6.64277e-05
1.52792e-06
8.00595e-05
-2.51292e-07
9.65136e-05
0.000116635
-2.55989e-06
8.96983e-07
4.91109e-06
1.9491e-06
1.10211e-05
3.03198e-06
1.80577e-05
3.91172e-06
2.60492e-05
4.60671e-06
3.48264e-05
5.04206e-06
4.42132e-05
5.2159e-06
5.46423e-05
5.09849e-06
6.65452e-05
4.65982e-06
8.04982e-05
3.86036e-06
9.73131e-05
0.000117793
2.70217e-06
9.63117e-07
3.94797e-06
2.17873e-06
9.80549e-06
3.45815e-06
1.67783e-05
4.60951e-06
2.48978e-05
5.60761e-06
3.38283e-05
6.3815e-06
4.34394e-05
6.96722e-06
5.40566e-05
7.36049e-06
6.61519e-05
7.55259e-06
8.03061e-05
7.51871e-06
9.7347e-05
0.000118135
7.17658e-06
9.64831e-07
2.98314e-06
2.28106e-06
8.48926e-06
3.73534e-06
1.5324e-05
5.15564e-06
2.34775e-05
6.45568e-06
3.25282e-05
7.58544e-06
4.23096e-05
8.56786e-06
5.30741e-05
9.43911e-06
6.52806e-05
1.02066e-05
7.95385e-05
1.08827e-05
9.66709e-05
0.000117541
1.14773e-05
8.69524e-07
2.11362e-06
2.15629e-06
7.2025e-06
3.69985e-06
1.37805e-05
5.32683e-06
2.18506e-05
6.92552e-06
3.09296e-05
8.42427e-06
4.08108e-05
9.84019e-06
5.16582e-05
1.12202e-05
6.39006e-05
1.2597e-05
7.81617e-05
1.39977e-05
9.52702e-05
0.000116101
1.54378e-05
7.79845e-07
1.33377e-06
2.01746e-06
5.96488e-06
3.64014e-06
1.21578e-05
5.47247e-06
2.00182e-05
7.37047e-06
2.90316e-05
9.2529e-06
3.89284e-05
1.11208e-05
4.97904e-05
1.30166e-05
6.20048e-05
1.49955e-05
7.61829e-05
1.71072e-05
9.31585e-05
0.000113889
1.93186e-05
7.1681e-07
6.16964e-07
1.90107e-06
4.78061e-06
3.60319e-06
1.04557e-05
5.64488e-06
1.79765e-05
7.86332e-06
2.68131e-05
1.01551e-05
3.66366e-05
1.25018e-05
4.74437e-05
1.49422e-05
5.95644e-05
1.75424e-05
7.35827e-05
2.03741e-05
9.03267e-05
0.000110754
2.35097e-05
5.35083e-07
8.18802e-08
1.56253e-06
3.75317e-06
3.24929e-06
8.76892e-06
5.43799e-06
1.57878e-05
7.95646e-06
2.42946e-05
1.06842e-05
3.39088e-05
1.35803e-05
4.45476e-05
1.66685e-05
5.64761e-05
2.00228e-05
7.02284e-05
2.37319e-05
8.66177e-05
0.000106637
2.78483e-05
3.3009e-07
-2.4821e-07
1.18761e-06
2.89565e-06
2.82617e-06
7.13036e-06
5.13867e-06
1.34753e-05
7.95036e-06
2.1483e-05
1.11308e-05
3.07284e-05
1.46207e-05
4.10577e-05
1.84341e-05
5.26627e-05
2.26442e-05
6.60184e-05
2.73493e-05
8.19125e-05
0.000101337
3.26496e-05
1.8396e-07
-4.3217e-07
9.02056e-07
2.17755e-06
2.45067e-06
5.58175e-06
4.83748e-06
1.10885e-05
7.92164e-06
1.83988e-05
1.15589e-05
2.70912e-05
1.56834e-05
3.69332e-05
2.03009e-05
4.80452e-05
2.54703e-05
6.08489e-05
3.12899e-05
7.60929e-05
9.4737e-05
3.789e-05
9.07309e-08
-5.22901e-07
6.57388e-07
1.6109e-06
2.01856e-06
4.22058e-06
4.34994e-06
8.75714e-06
7.60387e-06
1.51449e-05
1.166e-05
2.30351e-05
1.64494e-05
3.21437e-05
2.19715e-05
4.25231e-05
2.82717e-05
5.45487e-05
3.54547e-05
6.89099e-05
8.65431e-05
4.36486e-05
4.40659e-08
-5.66967e-07
4.88163e-07
1.1668e-06
1.61806e-06
3.09068e-06
3.75412e-06
6.62108e-06
7.02886e-06
1.18701e-05
1.1419e-05
1.8645e-05
1.68741e-05
2.66887e-05
2.33754e-05
3.60218e-05
3.09439e-05
4.69801e-05
3.96759e-05
6.01779e-05
7.64251e-05
4.97939e-05
1.46581e-08
-5.81625e-07
3.40925e-07
8.40533e-07
1.20083e-06
2.23078e-06
3.01472e-06
4.80719e-06
6.13092e-06
8.75394e-06
1.07075e-05
1.40684e-05
1.67438e-05
2.06524e-05
2.41985e-05
2.85671e-05
3.30782e-05
3.81004e-05
4.34817e-05
4.97744e-05
6.42041e-05
5.57028e-05
-2.75493e-08
-5.54076e-07
7.96399e-08
7.33344e-07
6.03998e-07
1.70642e-06
2.02399e-06
3.3872e-06
4.83877e-06
5.93915e-06
9.38849e-06
9.51864e-06
1.57635e-05
1.42774e-05
2.39389e-05
2.03917e-05
3.39156e-05
2.81237e-05
4.58638e-05
3.78262e-05
4.99858e-05
6.00821e-05
-5.04747e-07
-4.93293e-08
-6.4808e-07
8.76678e-07
-3.66084e-07
1.42442e-06
7.95565e-07
2.22555e-06
3.32691e-06
3.40781e-06
7.59275e-06
5.25279e-06
1.38057e-05
8.0645e-06
2.20629e-05
1.21345e-05
3.24929e-05
1.76936e-05
4.53601e-05
2.4959e-05
3.39367e-05
6.14092e-05
-6.85404e-07
6.36075e-07
-7.49648e-07
9.40921e-07
-2.15251e-07
8.90025e-07
1.0552e-06
9.55096e-07
3.27061e-06
1.1924e-06
6.74564e-06
1.77776e-06
1.18518e-05
2.95831e-06
1.89199e-05
5.06635e-06
2.82846e-05
8.32895e-06
4.02219e-05
1.30218e-05
1.95724e-05
5.45862e-05
1.59067e-06
-9.54594e-07
3.65845e-06
-1.12686e-06
5.71295e-06
-1.16447e-06
7.75118e-06
-1.08313e-06
9.8699e-06
-9.26317e-07
1.22713e-05
-6.23624e-07
1.54056e-05
-1.76011e-07
2.00099e-05
4.62088e-07
2.68111e-05
1.5277e-06
3.64609e-05
3.372e-06
6.49093e-06
4.95424e-05
-1.28071e-05
-7.64287e-07
-2.18024e-05
-3.46798e-06
-2.90007e-05
-6.35508e-06
-3.5149e-05
-8.8749e-06
-4.09359e-05
-1.1288e-05
-4.69254e-05
-1.38541e-05
-5.34466e-05
-1.68443e-05
-6.08294e-05
-2.05079e-05
-6.93515e-05
-2.5212e-05
-7.92869e-05
-3.14027e-05
-3.96796e-05
-9.08863e-05
-6.73146e-06
5.96717e-06
-1.30535e-05
2.85401e-06
-2.04878e-05
1.07931e-06
-2.77607e-05
-1.60202e-06
-3.4818e-05
-4.23067e-06
-4.20392e-05
-6.63287e-06
-4.98403e-05
-9.04323e-06
-5.86303e-05
-1.17178e-05
-6.87433e-05
-1.50991e-05
-8.05261e-05
-1.96199e-05
-2.58006e-05
-9.4405e-05
-2.52349e-06
8.49066e-06
-6.53943e-06
6.86995e-06
-1.23572e-05
6.89708e-06
-1.9349e-05
5.38979e-06
-2.72327e-05
3.65303e-06
-3.55355e-05
1.66991e-06
-4.43891e-05
-1.89669e-07
-5.40889e-05
-2.01799e-06
-6.51124e-05
-4.07565e-06
-7.78944e-05
-6.83791e-06
-1.08594e-05
-9.28356e-05
-1.61972e-06
1.01104e-05
-4.39063e-06
9.64086e-06
-8.51959e-06
1.1026e-05
-1.4006e-05
1.08762e-05
-2.08022e-05
1.04493e-05
-2.8834e-05
9.70169e-06
-3.79402e-05
8.91655e-06
-4.81028e-05
8.14455e-06
-5.95627e-05
7.38423e-06
-7.26796e-05
6.27903e-06
4.38674e-06
-8.79257e-05
-1.41651e-06
1.15269e-05
-3.84334e-06
1.20677e-05
-7.11722e-06
1.42999e-05
-1.14745e-05
1.52335e-05
-1.71463e-05
1.61211e-05
-2.41145e-05
1.66699e-05
-3.23611e-05
1.71632e-05
-4.19275e-05
1.77109e-05
-5.29085e-05
1.83653e-05
-6.55688e-05
1.89393e-05
1.91036e-05
-8.02857e-05
-1.25506e-06
1.27819e-05
-3.43939e-06
1.4252e-05
-6.16884e-06
1.70294e-05
-9.73423e-06
1.87989e-05
-1.44404e-05
2.08272e-05
-2.0395e-05
2.26245e-05
-2.75932e-05
2.43614e-05
-3.6201e-05
2.63187e-05
-4.6249e-05
2.84132e-05
-5.79376e-05
3.06279e-05
3.27045e-05
-7.15384e-05
-1.07296e-06
1.38549e-05
-3.01011e-06
1.61892e-05
-5.34953e-06
1.93688e-05
-8.33163e-06
2.1781e-05
-1.22689e-05
2.47644e-05
-1.72478e-05
2.76034e-05
-2.34739e-05
3.05875e-05
-3.0952e-05
3.37968e-05
-3.98385e-05
3.72998e-05
-5.0301e-05
4.10904e-05
4.49993e-05
-6.25958e-05
-1.00012e-06
1.4855e-05
-2.68268e-06
1.78717e-05
-4.70375e-06
2.13899e-05
-7.25507e-06
2.43323e-05
-1.05135e-05
2.80228e-05
-1.46512e-05
3.17411e-05
-1.98454e-05
3.57817e-05
-2.61997e-05
4.01511e-05
-3.38283e-05
4.49284e-05
-4.28476e-05
5.01098e-05
5.55862e-05
-5.34345e-05
-8.67469e-07
1.57225e-05
-2.38984e-06
1.93941e-05
-3.92252e-06
2.29225e-05
-6.13925e-06
2.6549e-05
-8.83492e-06
3.07185e-05
-1.22446e-05
3.51508e-05
-1.65117e-05
4.00488e-05
-2.17718e-05
4.54111e-05
-2.81501e-05
5.13067e-05
-3.5806e-05
5.77656e-05
6.47355e-05
-4.49553e-05
-6.94196e-07
1.64167e-05
-1.90878e-06
2.06087e-05
-3.26949e-06
2.42833e-05
-5.00976e-06
2.82893e-05
-7.15709e-06
3.28658e-05
-9.88123e-06
3.7875e-05
-1.32935e-05
4.34611e-05
-1.75088e-05
4.96264e-05
-2.26609e-05
5.64588e-05
-2.88869e-05
6.39916e-05
7.21336e-05
-3.6285e-05
-4.86326e-07
1.6903e-05
-1.32642e-06
2.14488e-05
-2.31924e-06
2.52761e-05
-3.66188e-06
2.96319e-05
-5.29967e-06
3.45036e-05
-7.38502e-06
3.99603e-05
-9.98907e-06
4.60651e-05
-1.3222e-05
5.28594e-05
-1.71787e-05
6.04155e-05
-2.19686e-05
6.87815e-05
7.78873e-05
-2.77223e-05
-2.95437e-07
1.71985e-05
-8.86771e-07
2.20401e-05
-1.54589e-06
2.59352e-05
-2.4535e-06
3.05396e-05
-3.56217e-06
3.56123e-05
-4.99016e-06
4.13883e-05
-6.78236e-06
4.78573e-05
-9.01176e-06
5.50888e-05
-1.17526e-05
6.31563e-05
-1.5081e-05
7.21099e-05
8.18607e-05
-1.90544e-05
-7.21512e-08
1.72706e-05
-3.68961e-07
2.23369e-05
-6.91365e-07
2.62576e-05
-1.15986e-06
3.10081e-05
-1.73944e-06
3.61919e-05
-2.5076e-06
4.21564e-05
-3.48372e-06
4.88335e-05
-4.7179e-06
5.6323e-05
-6.23265e-06
6.46711e-05
-8.07923e-06
7.39565e-05
8.40798e-05
-1.02983e-05
2.3837e-07
1.70322e-05
3.03184e-07
2.22721e-05
3.52016e-07
2.62088e-05
3.28775e-07
3.10313e-05
2.89909e-07
3.62308e-05
1.78999e-07
4.22674e-05
1.17912e-08
4.90007e-05
-2.26452e-07
5.65612e-05
-5.25929e-07
6.49705e-05
-8.62675e-07
7.42932e-05
8.44511e-05
-1.2339e-06
4.40772e-07
1.65915e-05
8.20781e-07
2.18921e-05
1.25895e-06
2.57706e-05
1.71681e-06
3.05734e-05
2.24455e-06
3.5703e-05
2.83919e-06
4.16727e-05
3.52446e-06
4.83154e-05
4.33076e-06
5.57549e-05
5.30268e-06
6.39986e-05
6.52054e-06
7.30754e-05
8.28798e-05
8.09183e-06
6.72624e-07
1.59188e-05
1.4081e-06
2.11566e-05
2.24589e-06
2.49328e-05
3.20274e-06
2.96166e-05
4.32527e-06
3.45805e-05
5.65107e-06
4.03469e-05
7.22348e-06
4.6743e-05
9.09975e-06
5.38786e-05
1.13661e-05
6.17323e-05
1.41445e-05
7.0297e-05
7.94411e-05
1.75831e-05
9.55848e-07
1.4963e-05
2.07442e-06
2.00381e-05
3.3488e-06
2.36584e-05
4.84108e-06
2.81243e-05
6.58962e-06
3.2832e-05
8.67536e-06
3.82612e-05
1.11666e-05
4.42518e-05
1.41499e-05
5.08953e-05
1.7732e-05
5.81502e-05
2.20645e-05
6.59645e-05
7.41678e-05
2.73378e-05
1.22998e-06
1.3733e-05
2.75047e-06
1.85176e-05
4.49181e-06
2.19171e-05
6.55582e-06
2.60603e-05
8.97369e-06
3.04141e-05
1.18771e-05
3.53577e-05
1.53358e-05
4.07931e-05
1.94695e-05
4.67616e-05
2.44099e-05
5.32098e-05
3.03248e-05
6.00497e-05
6.70536e-05
3.7439e-05
1.51004e-06
1.2223e-05
3.43896e-06
1.65886e-05
5.68337e-06
1.96727e-05
8.35473e-06
2.33889e-05
1.15042e-05
2.72646e-05
1.52694e-05
3.15925e-05
1.97527e-05
3.63098e-05
2.50888e-05
4.14255e-05
3.14186e-05
4.688e-05
3.8932e-05
5.25363e-05
5.81729e-05
4.78126e-05
1.81023e-06
1.04127e-05
4.16912e-06
1.42298e-05
6.93498e-06
1.69068e-05
1.02581e-05
2.00658e-05
1.41815e-05
2.33413e-05
1.88564e-05
2.69176e-05
2.44027e-05
3.07635e-05
3.09586e-05
3.48696e-05
3.86971e-05
3.91416e-05
4.78049e-05
4.34284e-05
4.74542e-05
5.85237e-05
2.1192e-06
8.29355e-06
4.88734e-06
1.14616e-05
8.19483e-06
1.35993e-05
1.2191e-05
1.60697e-05
1.69158e-05
1.86164e-05
2.25194e-05
2.1314e-05
2.91218e-05
2.41611e-05
3.68856e-05
2.71058e-05
4.59933e-05
3.00338e-05
5.66709e-05
3.27508e-05
3.49721e-05
6.9153e-05
2.36424e-06
5.92931e-06
5.52621e-06
8.29965e-06
9.35572e-06
9.7698e-06
1.3997e-05
1.14284e-05
1.94911e-05
1.31224e-05
2.59602e-05
1.48448e-05
3.35397e-05
1.65817e-05
4.23992e-05
1.82462e-05
5.2752e-05
1.9681e-05
6.48441e-05
2.06587e-05
2.08517e-05
7.89645e-05
2.82625e-06
3.10306e-06
6.3202e-06
4.8057e-06
1.05316e-05
5.5584e-06
1.56196e-05
6.34032e-06
2.16442e-05
7.09778e-06
2.87133e-05
7.77578e-06
3.69777e-05
8.31725e-06
4.66286e-05
8.59538e-06
5.78918e-05
8.41777e-06
7.0989e-05
7.5615e-06
5.90717e-06
8.59335e-05
2.14846e-06
5.8273e-06
1.02212e-05
1.54784e-05
2.16499e-05
2.8802e-05
3.69433e-05
4.60007e-05
5.59462e-05
6.68797e-05
7.92778e-05
9.37861e-07
4.19661e-06
-5.13447e-06
1.42109e-06
4.36027e-06
-4.84349e-06
9.91118e-07
5.55426e-06
-5.12429e-06
-1.0201e-07
6.42651e-06
-5.33339e-06
-1.66131e-06
7.05977e-06
-5.50047e-06
-3.54832e-06
7.69923e-06
-5.81222e-06
-5.73252e-06
8.6452e-06
-6.461e-06
-8.25134e-06
1.01659e-05
-7.64705e-06
-1.11776e-05
1.25615e-05
-9.6352e-06
-1.46408e-05
1.62298e-05
-1.27667e-05
2.17362e-05
-1.75521e-05
-1.8825e-05
1.06143e-06
3.13518e-06
1.60598e-06
3.81571e-06
1.66135e-06
5.49889e-06
1.32059e-06
6.76727e-06
4.05836e-07
7.97453e-06
-1.04912e-06
9.15419e-06
-2.95253e-06
1.05486e-05
-5.27164e-06
1.2485e-05
-8.04993e-06
1.53398e-05
-1.13978e-05
1.95777e-05
2.5814e-05
-1.54756e-05
3.33252e-07
2.80193e-06
5.61407e-07
3.58756e-06
8.29157e-07
5.23114e-06
8.909e-07
6.70552e-06
5.52532e-07
8.31289e-06
-2.80461e-07
9.98718e-06
-1.61139e-06
1.18795e-05
-3.41657e-06
1.42902e-05
-5.70134e-06
1.76246e-05
-8.52185e-06
2.23983e-05
2.93048e-05
-1.20127e-05
-1.94266e-08
2.82136e-06
-3.66534e-08
3.60479e-06
9.8983e-08
5.09551e-06
2.17658e-07
6.58685e-06
1.65526e-07
8.36503e-06
-2.09616e-07
1.03623e-05
-9.98841e-07
1.26688e-05
-2.23251e-06
1.55238e-05
-3.92534e-06
1.93174e-05
-6.09808e-06
2.4571e-05
3.19942e-05
-8.78748e-06
-1.39308e-07
2.96066e-06
-2.50248e-07
3.71573e-06
-2.4738e-07
5.09264e-06
-1.92087e-07
6.53156e-06
-1.70242e-07
8.34318e-06
-3.06115e-07
1.04982e-05
-7.16757e-07
1.30794e-05
-1.4806e-06
1.62877e-05
-2.63705e-06
2.04738e-05
-4.20693e-06
2.61409e-05
3.39865e-05
-6.19918e-06
-1.11623e-07
3.07229e-06
-2.20289e-07
3.82439e-06
-2.76569e-07
5.14892e-06
-2.69784e-07
6.52477e-06
-2.50248e-07
8.32364e-06
-2.93486e-07
1.05414e-05
-4.95807e-07
1.32817e-05
-9.49759e-07
1.67416e-05
-1.71554e-06
2.12396e-05
-2.82797e-06
2.72533e-05
3.54652e-05
-4.30673e-06
-2.97184e-08
3.102e-06
-1.4134e-07
3.93601e-06
-2.00945e-07
5.20852e-06
-2.0413e-07
6.52795e-06
-1.91922e-07
8.31144e-06
-1.99471e-07
1.0549e-05
-2.99833e-07
1.33821e-05
-5.70065e-07
1.70119e-05
-1.07917e-06
2.17487e-05
-1.87542e-06
2.80496e-05
3.65765e-05
-2.98668e-06
-5.59552e-08
3.15796e-06
-1.55755e-07
4.03581e-06
-1.47929e-07
5.2007e-06
-1.41971e-07
6.522e-06
-1.26175e-07
8.29564e-06
-1.15265e-07
1.05381e-05
-1.58228e-07
1.34251e-05
-3.19794e-07
1.71734e-05
-6.62905e-07
2.20918e-05
-1.23924e-06
2.86259e-05
3.74264e-05
-2.08915e-06
-2.82149e-08
3.18617e-06
-4.89968e-08
4.05659e-06
-3.81536e-08
5.18986e-06
-5.24849e-08
6.53633e-06
-3.16618e-08
8.27482e-06
-7.47468e-09
1.05139e-05
-2.02519e-08
1.34378e-05
-1.19741e-07
1.72729e-05
-3.60855e-07
2.2333e-05
-7.98693e-07
2.90637e-05
3.8113e-05
-1.48535e-06
2.7194e-08
3.15898e-06
3.79513e-08
4.04584e-06
5.88278e-08
5.16898e-06
8.97841e-08
6.50537e-06
1.33806e-07
8.2308e-06
1.70777e-07
1.04769e-05
1.75828e-07
1.34328e-05
1.09705e-07
1.7339e-05
-7.84827e-08
2.25211e-05
-4.40908e-07
2.94262e-05
3.87036e-05
-1.03144e-06
7.02549e-08
3.08873e-06
1.10385e-07
4.00571e-06
1.63832e-07
5.11553e-06
2.19381e-07
6.44982e-06
2.81599e-07
8.16858e-06
3.36374e-07
1.04221e-05
3.61312e-07
1.34078e-05
3.22745e-07
1.73776e-05
1.75902e-07
2.2668e-05
-1.37051e-07
2.97391e-05
3.92426e-05
-6.76113e-07
7.45623e-08
3.01416e-06
1.23498e-07
3.95677e-06
1.95007e-07
5.04402e-06
2.73227e-07
6.3716e-06
3.56565e-07
8.08524e-06
4.35294e-07
1.03434e-05
4.91086e-07
1.33521e-05
4.90492e-07
1.73782e-05
3.91397e-07
2.27671e-05
1.4362e-07
2.99869e-05
3.97179e-05
-3.31625e-07
9.09635e-08
2.9232e-06
1.56321e-07
3.89141e-06
2.49958e-07
4.95039e-06
3.51278e-07
6.27028e-06
4.61841e-07
7.97468e-06
5.72913e-07