/*--------------------------------*- C++ -*----------------------------------*\
| =========                 |                                                 |
| \\      /  F ield         | OpenFOAM: The Open Source CFD Toolbox           |
|  \\    /   O peration     | Version:  3.0.1                                 |
|   \\  /    A nd           | Web:      www.OpenFOAM.org                      |
|    \\/     M anipulation  |                                                 |
\*---------------------------------------------------------------------------*/
FoamFile
{
    version     2.0;
    format      ascii;
    class       surfaceVectorField;
    location    "0.891627";
    object      Uf;
}
// * * * * * * * * * * * * * * * * * * * * * * * * * * * * * * * * * * * * * //

dimensions      [0 1 -1 0 0 0 0];

internalField   nonuniform List<vector> 
32369
(
(3.89839 -1.32623 -8.31546e-20)
(3.88268 -1.44861 2.24606e-19)
(4.61689 -1.70309 2.36111e-20)
(4.0083 -1.19065 1.1856e-19)
(3.67458 -1.05966 -1.50469e-19)
(4.37017 -1.29184 1.97378e-19)
(4.04344 -1.02241 -8.92626e-20)
(3.78524 -1.04789 3.20862e-20)
(4.33836 -1.06754 -2.02247e-20)
(4.04605 -0.834841 -7.5888e-20)
(3.84842 -0.921261 -1.03139e-19)
(4.27235 -0.852183 -7.49814e-20)
(4.01324 -0.65664 1.49711e-20)
(3.88025 -0.770014 3.76052e-21)
(4.19503 -0.651558 1.11692e-20)
(3.95267 -0.503423 6.47623e-20)
(3.87531 -0.619892 -2.67648e-20)
(4.09925 -0.48194 2.99128e-20)
(3.87321 -0.381016 -7.32537e-20)
(3.83833 -0.48845 4.00466e-20)
(3.98931 -0.347727 1.16119e-19)
(3.78273 -0.289411 -1.1834e-19)
(3.77793 -0.382562 -1.39156e-19)
(3.87425 -0.24796 -1.42803e-19)
(3.68694 -0.226693 8.04586e-20)
(3.702 -0.303547 6.72736e-20)
(3.75737 -0.178871 6.81688e-21)
(3.59047 -0.19015 6.49638e-20)
(3.61858 -0.251472 -1.03634e-20)
(3.64328 -0.138381 3.06913e-20)
(3.53984 -0.227778 2.70434e-20)
(3.5433 -0.124826 2.94144e-22)
(3.49411 -0.180679 1.01101e-19)
(3.54239 -0.925983 -5.91824e-19)
(3.59724 -1.08727 3.42054e-19)
(3.58399 -0.969742 -3.01964e-19)
(3.43181 -0.781531 -2.15673e-19)
(3.65809 -0.939971 -8.443e-20)
(3.50492 -0.894994 -1.60217e-19)
(3.7317 -0.856208 -6.74829e-20)
(3.58077 -0.862304 1.24186e-21)
(3.7761 -0.739857 -3.83063e-20)
(3.64936 -0.786941 -3.35646e-20)
(3.78476 -0.613991 -6.78112e-20)
(3.69468 -0.685073 4.15893e-21)
(3.76079 -0.498104 -2.71679e-20)
(3.70826 -0.577119 -2.92236e-20)
(3.71222 -0.402984 3.12555e-20)
(3.69086 -0.478687 1.58883e-20)
(3.64769 -0.332486 -1.83486e-20)
(3.64885 -0.398406 2.26647e-20)
(3.57501 -0.286525 -5.06477e-20)
(3.59104 -0.340346 -1.61387e-20)
(3.52961 -0.308327 -7.57727e-21)
(3.49802 -0.266709 4.76746e-20)
(3.42672 -0.712719 1.17336e-19)
(3.48793 -0.858158 4.09881e-19)
(3.40689 -0.762484 -2.99988e-20)
(3.37132 -0.604072 0)
(3.45256 -0.787845 4.06533e-20)
(3.39546 -0.733622 1.55956e-19)
(3.52446 -0.77712 5.00532e-20)
(3.44465 -0.744711 8.52217e-20)
(3.59174 -0.728638 -4.07275e-20)
(3.5056 -0.727884 -1.05006e-19)
(3.63798 -0.651949 3.92316e-20)
(3.56251 -0.679763 5.73353e-20)
(3.65427 -0.564139 -3.72299e-20)
(3.60028 -0.610721 -5.27441e-21)
(3.64111 -0.480941 -2.44342e-20)
(3.61108 -0.535107 3.92023e-20)
(3.60476 -0.412392 4.20765e-21)
(3.59545 -0.465036 -1.15545e-20)
(3.55312 -0.363078 1.50631e-20)
(3.55943 -0.408698 1.92643e-20)
(3.51294 -0.374261 -3.64813e-20)
(3.4875 -0.338097 1.41492e-20)
(3.40428 -0.608563 2.77026e-19)
(3.4545 -0.73976 4.89169e-20)
(3.36709 -0.636166 1.66232e-19)
(3.37848 -0.524279 0)
(3.38313 -0.66584 2.05595e-19)
(3.37565 -0.632548 6.44517e-20)
(3.42931 -0.681965 -5.07573e-20)
(3.40117 -0.648833 0)
(3.48501 -0.674462 -2.38132e-20)
(3.4416 -0.657804 -1.48507e-19)
(3.53594 -0.640724 4.75531e-20)
(3.48781 -0.644888 3.04762e-20)
(3.56865 -0.587456 -2.82578e-21)
(3.52676 -0.610348 -8.04113e-20)
(3.5767 -0.526348 -3.54067e-21)
(3.54793 -0.561459 3.19751e-20)
(3.56099 -0.4685 0)
(3.5472 -0.508142 3.45094e-20)
(3.52673 -0.421582 -1.40303e-20)
(3.52656 -0.45961 -7.05774e-21)
(3.4933 -0.425714 -1.0594e-20)
(3.47761 -0.392296 -4.4516e-20)
(3.41612 -0.565069 -1.77291e-19)
(3.44895 -0.685143 -3.65917e-19)
(3.38076 -0.577876 -8.66112e-20)
(3.40442 -0.498884 7.70358e-20)
(3.38172 -0.597982 -1.06898e-19)
(3.38976 -0.589581 -8.35779e-20)
(3.40697 -0.616588 -8.1494e-20)
(3.40375 -0.596719 4.72454e-20)
(3.44294 -0.624551 -1.11678e-19)
(3.42764 -0.611239 1.72197e-20)
(3.48172 -0.615566 -8.34984e-20)
(3.45801 -0.613733 6.7877e-20)
(3.51234 -0.588916 -6.61498e-20)
(3.48678 -0.600351 -6.77914e-20)
(3.52663 -0.549779 6.90842e-20)
(3.5055 -0.572386 -3.41267e-20)
(3.52184 -0.506254 3.18706e-20)
(3.50897 -0.535339 2.13302e-20)
(3.50014 -0.466033 -7.96071e-21)
(3.49649 -0.496574 -6.94682e-21)
(3.47239 -0.466207 5.04416e-21)
(3.46362 -0.436114 1.48315e-21)
(3.43939 -0.551794 -1.2238e-19)
(3.46396 -0.656508 -1.0586e-19)
(3.40819 -0.559059 9.55104e-20)
(3.43649 -0.497722 7.62776e-20)
(3.40334 -0.571389 5.35736e-20)
(3.41247 -0.583231 1.23193e-20)
(3.41754 -0.586565 1.42623e-19)
(3.42294 -0.578865 6.99441e-21)
(3.43805 -0.597263 1.83423e-19)
(3.43643 -0.592934 7.38355e-20)
(3.46176 -0.598397 9.84848e-20)
(3.45353 -0.599681 8.78062e-20)
(3.48209 -0.586828 -4.69239e-20)
(3.46994 -0.595945 5.50797e-21)
(3.49279 -0.563364 -1.05581e-19)
(3.48049 -0.580438 -5.17771e-20)
(3.4904 -0.53232 -3.72851e-20)
(3.48127 -0.555204 -1.72271e-20)
(3.47503 -0.499446 0)
(3.47077 -0.524899 0)
(3.45058 -0.498686 -4.57521e-21)
(3.4468 -0.47039 8.03659e-21)
(3.46969 -0.56261 1.09754e-19)
(3.50299 -0.64772 3.30875e-19)
(3.4365 -0.562035 0)
(3.46292 -0.52144 -8.98419e-21)
(3.42926 -0.570591 -3.22429e-20)
(3.43592 -0.597864 -1.02844e-19)
(3.43799 -0.58308 -6.31209e-20)
(3.44658 -0.582637 -1.0419e-19)
(3.4483 -0.592508 -2.24175e-20)
(3.4525 -0.596562 2.6325e-20)
(3.45965 -0.596134 2.94252e-21)
(3.45964 -0.603139 -2.66246e-20)
(3.46862 -0.591056 1.33758e-20)
(3.46522 -0.60235 -5.63261e-21)
(3.47167 -0.576346 3.68493e-20)
(3.46656 -0.592667 2.19934e-20)
(3.46626 -0.553748 1.78311e-20)
(3.46163 -0.574352 1.5995e-20)
(3.4513 -0.526913 -4.03562e-21)
(3.44928 -0.549951 0)
(3.42999 -0.527436 7.12715e-21)
(3.42268 -0.50114 -1.93458e-20)
(3.49883 -0.580795 2.03263e-19)
(3.52202 -0.677254 5.35689e-19)
(3.46283 -0.575027 -9.49166e-20)
(3.48047 -0.56008 -2.58196e-20)
(3.45596 -0.588349 -1.74694e-19)
(3.46785 -0.618957 -3.14546e-19)
(3.45909 -0.59802 -3.25384e-20)
(3.46917 -0.603833 -6.83045e-20)
(3.46191 -0.604992 2.76904e-20)
(3.46823 -0.616426 5.26025e-20)
(3.46394 -0.607981 -3.76845e-20)
(3.46798 -0.620762 2.10462e-22)
(3.46317 -0.604603 0)
(3.46486 -0.619635 0)
(3.45815 -0.593658 0)
(3.45788 -0.611706 0)
(3.44783 -0.575698 0)
(3.44672 -0.596554 0)
(3.43173 -0.552845 1.41291e-20)
(3.43098 -0.575362 0)
(3.41094 -0.55494 2.82096e-21)
(3.40757 -0.528705 1.13845e-20)
(3.5193 -0.617665 2.21707e-19)
(3.53458 -0.723733 -3.19307e-20)
(3.48325 -0.615992 -1.60872e-19)
(3.50485 -0.596913 2.40092e-19)
(3.4777 -0.622236 -2.33576e-19)
(3.48483 -0.649139 -1.83354e-20)
(3.47549 -0.626341 0)
(3.48246 -0.639166 -1.50083e-19)
(3.47312 -0.630373 2.96018e-20)
(3.47914 -0.647335 9.20095e-20)
(3.46829 -0.631339 3.66109e-20)
(3.47375 -0.648893 -3.77668e-20)
(3.45979 -0.627172 0)
(3.46386 -0.646119 -4.15408e-20)
(3.44771 -0.616931 0)
(3.45006 -0.637699 3.86484e-20)
(3.43222 -0.600736 0)
(3.43321 -0.623217 -1.59279e-20)
(3.41335 -0.579667 -1.15738e-20)
(3.41359 -0.603019 2.61204e-20)
(3.39077 -0.583297 -1.57372e-20)
(3.38663 -0.555294 -5.22556e-21)
(3.5389 -0.657526 -2.63391e-20)
(3.55013 -0.774799 -6.79424e-19)
(3.50127 -0.653744 4.57844e-19)
(3.52399 -0.637758 5.04621e-19)
(3.4921 -0.658191 6.2756e-20)
(3.49698 -0.687676 3.0517e-20)
(3.48623 -0.662138 -8.32325e-20)
(3.49233 -0.680618 -1.09661e-19)
(3.47981 -0.664563 3.74198e-20)
(3.48528 -0.685006 1.58493e-19)
(3.46956 -0.663194 -1.15566e-19)
(3.47481 -0.684425 -1.40023e-19)
(3.45496 -0.657171 -1.11e-20)
(3.45952 -0.67957 -1.23321e-19)
(3.437 -0.645946 2.86619e-20)
(3.4402 -0.66953 9.34876e-20)
(3.41662 -0.629566 3.9767e-21)
(3.41847 -0.654221 1.58843e-20)
(3.39401 -0.608495 2.70199e-20)
(3.39503 -0.633358 -2.73854e-21)
(3.36988 -0.613154 2.64419e-20)
(3.36218 -0.584039 -1.32651e-21)
(3.5572 -0.704526 -1.50016e-19)
(3.56481 -0.831588 -2.74108e-20)
(3.5146 -0.698429 1.83256e-19)
(3.5388 -0.686197 3.59687e-21)
(3.50075 -0.701396 -1.44252e-19)
(3.50425 -0.733528 -2.30082e-19)
(3.49173 -0.703985 1.04672e-19)
(3.49611 -0.726455 8.77546e-21)
(3.4812 -0.704359 1.04746e-20)
(3.4853 -0.728055 -8.26863e-20)
(3.46614 -0.700893 -1.49595e-19)
(3.47057 -0.725372 2.08256e-21)
(3.44645 -0.69275 -4.10051e-20)
(3.45059 -0.718139 -4.05343e-20)
(3.42358 -0.679639 8.93535e-20)
(3.42652 -0.705866 5.51064e-20)
(3.39904 -0.661637 1.15733e-20)
(3.40041 -0.688687 -1.3928e-21)
(3.37358 -0.639674 -7.33151e-21)
(3.37403 -0.666048 -1.03207e-19)
(3.34591 -0.644384 5.04868e-20)
(3.34268 -0.613379 -1.66959e-19)
(3.56685 -0.760455 -3.70545e-21)
(3.56544 -0.890295 6.15708e-19)
(3.52026 -0.749759 -3.2852e-19)
(3.54263 -0.739069 -2.05945e-19)
(3.50253 -0.750022 -1.00521e-19)
(3.50321 -0.783923 -1.94294e-19)
(3.49028 -0.750642 -1.69684e-19)
(3.49253 -0.775692 -3.20659e-20)
(3.47597 -0.748864 -1.00114e-19)
(3.47846 -0.77492 -6.56358e-20)
(3.4568 -0.743038 1.16247e-19)
(3.45995 -0.770076 1.92021e-19)
(3.43282 -0.732442 4.59867e-20)
(3.43596 -0.76037 7.81551e-20)
(3.40576 -0.716972 -2.97312e-20)
(3.40787 -0.745489 2.60918e-21)
(3.3776 -0.69686 -1.03266e-19)
(3.37809 -0.725637 3.68418e-20)
(3.34934 -0.672182 -5.75288e-20)
(3.34856 -0.700183 1.73825e-21)
(3.31733 -0.676068 2.28109e-20)
(3.31499 -0.642054 6.01017e-20)
(3.56659 -0.816199 2.36498e-19)
(3.55855 -0.947815 2.28169e-19)
(3.51736 -0.802836 -9.95256e-21)
(3.53929 -0.791914 -1.28454e-20)
(3.49675 -0.801241 -1.42992e-19)
(3.49518 -0.835486 -1.30071e-19)
(3.48158 -0.800067 7.60262e-20)
(3.4818 -0.826528 0)
(3.46393 -0.796261 2.00693e-19)
(3.46468 -0.823957 -1.55275e-19)
(3.44115 -0.788127 1.65727e-19)
(3.44273 -0.817148 1.27299e-19)
(3.41341 -0.774917 4.38095e-20)
(3.4151 -0.804979 -4.13208e-20)
(3.3827 -0.75657 6.36607e-20)
(3.38339 -0.787205 4.01604e-20)
(3.35126 -0.733315 1.43326e-19)
(3.35028 -0.764034 2.35767e-21)
(3.31991 -0.705122 8.30933e-20)
(3.31804 -0.734747 3.69447e-20)
(3.28381 -0.707049 -3.26654e-20)
(3.27966 -0.669503 0)
(3.56328 -0.870472 -1.31254e-19)
(3.55449 -1.00958 -2.88246e-19)
(3.50952 -0.855863 -6.05298e-20)
(3.53311 -0.846795 -1.56555e-19)
(3.4852 -0.853211 0)
(3.48212 -0.888398 -2.12302e-19)
(3.46668 -0.850836 -2.15849e-19)
(3.46519 -0.878513 1.23967e-19)
(3.44565 -0.845411 -2.58122e-19)
(3.44465 -0.874351 -3.157e-19)
(3.41932 -0.835131 -6.09477e-20)
(3.41917 -0.865721 1.64584e-19)
(3.38796 -0.819195 -5.14062e-20)
(3.38792 -0.851082 -1.4478e-19)
(3.35379 -0.79752 -1.44348e-20)
(3.35263 -0.830088 1.22887e-19)
(3.31928 -0.770332 -1.06403e-19)
(3.3163 -0.802965 -6.73523e-20)
(3.28568 -0.737524 -6.89344e-20)
(3.28151 -0.768773 -3.59546e-20)
(3.24456 -0.736502 2.02505e-21)
(3.24606 -0.696866 -2.09307e-20)
(3.55369 -0.928954 -3.3105e-19)
(3.53899 -1.06954 6.55663e-20)
(3.49542 -0.910675 -3.70115e-19)
(3.5186 -0.901785 -1.13294e-20)
(3.4672 -0.906186 -9.25831e-20)
(3.46248 -0.941915 -2.88123e-19)
(3.44522 -0.902428 6.97394e-20)
(3.44227 -0.93107 -6.62238e-20)
(3.42073 -0.89547 5.76865e-20)
(3.41827 -0.925568 1.54616e-19)
(3.39081 -0.883134 1.13401e-19)
(3.38907 -0.915277 5.37754e-20)
(3.3558 -0.864328 1.05588e-21)
(3.35398 -0.898098 1.27219e-21)
(3.31818 -0.838841 9.31542e-20)
(3.31497 -0.873428 -3.11878e-21)
(3.28072 -0.806954 0)
(3.27543 -0.841609 0)
(3.24473 -0.768557 2.6955e-20)
(3.23852 -0.801502 4.18725e-20)
(3.19915 -0.763048 4.96244e-20)
(3.20216 -0.719924 -6.5637e-20)
(3.53673 -0.985755 3.93886e-19)
(3.51665 -1.12646 5.44693e-19)
(3.47484 -0.965058 1.018e-19)
(3.49883 -0.955304 7.40045e-20)
(3.44319 -0.959266 -2.55481e-19)
(3.43773 -0.994693 -2.19888e-19)
(3.41765 -0.954461 -4.46733e-21)
(3.41376 -0.983763 -9.02317e-20)
(3.38942 -0.946239 1.6178e-19)
(3.38586 -0.977481 3.54563e-19)
(3.35553 -0.931917 -5.31073e-20)
(3.35236 -0.965811 -1.98355e-19)
(3.31654 -0.909958 -8.81688e-22)
(3.31281 -0.945905 1.17608e-19)
(3.27535 -0.879967 -9.30696e-20)
(3.26968 -0.916785 -1.00949e-19)
(3.2352 -0.842403 3.742e-20)
(3.22697 -0.879119 -7.85843e-20)
(3.19755 -0.79769 4.64942e-20)
(3.18873 -0.832107 9.88344e-20)
(3.14828 -0.787068 -3.48328e-20)
(3.15469 -0.742493 1.10122e-20)
(3.51732 -1.04004 1.18386e-19)
(3.49515 -1.1869 2.60552e-19)
(3.45088 -1.01852 -7.71111e-20)
(3.47752 -1.01009 -1.76479e-20)
(3.41503 -1.01232 -6.7463e-20)
(3.40981 -1.04805 -3.92507e-19)
(3.38506 -1.00717 2.24218e-19)
(3.38084 -1.0376 5.47657e-19)
(3.3522 -0.998157 5.18744e-20)
(3.34792 -1.031 -5.49754e-21)
(3.31337 -0.981851 -6.1176e-20)
(3.30883 -1.01807 -2.38517e-19)
(3.26955 -0.956089 4.52008e-20)
(3.26359 -0.994778 2.99934e-19)
(3.22448 -0.920375 -8.38428e-20)
(3.21568 -0.959741 -1.305e-19)
(3.18214 -0.875774 -4.82706e-20)
(3.17006 -0.914443 -1.04659e-19)
(3.14428 -0.82362 1.36511e-21)
(3.13162 -0.859136 5.43022e-20)
(3.09143 -0.807494 -1.36488e-20)
(3.10401 -0.761914 -7.03465e-21)
(3.49496 -1.09623 0)
(3.46844 -1.2464 2.45295e-19)
(3.42375 -1.07305 -2.23126e-19)
(3.45288 -1.0654 -5.21286e-19)
(3.38297 -1.06648 1.55048e-19)
(3.37867 -1.10271 2.38981e-19)
(3.34753 -1.06146 3.72256e-19)
(3.34372 -1.0938 3.32715e-19)
(3.30857 -1.05201 -2.71671e-19)
(3.30409 -1.08761 -2.4673e-19)
(3.26315 -1.03334 6.00397e-20)
(3.25717 -1.07317 -1.42303e-19)
(3.21333 -1.0024 1.78608e-19)
(3.20438 -1.04481 3.152e-19)
(3.16425 -0.958982 -1.49255e-19)
(3.15115 -1.00123 -1.0466e-19)
(3.12073 -0.905573 -4.38554e-20)
(3.10369 -0.945809 -2.56491e-20)
(3.08418 -0.845013 4.33931e-20)
(3.06726 -0.880887 -2.86816e-21)
(3.03023 -0.820568 3.67207e-20)
(3.0471 -0.774168 2.46407e-20)
(3.46993 -1.15289 -3.67517e-19)
(3.43879 -1.30604 1.82031e-19)
(3.39417 -1.12902 -2.91387e-19)
(3.42712 -1.12188 -5.1383e-19)
(3.34787 -1.12314 4.04429e-19)
(3.34603 -1.16025 5.30343e-19)
(3.30519 -1.11935 -2.3235e-19)
(3.30288 -1.15522 -1.42075e-19)
(3.25738 -1.10971 -1.28545e-19)
(3.25301 -1.15034 -1.52344e-19)
(3.20268 -1.0873 6.08867e-20)
(3.19444 -1.1328 -8.99165e-20)
(3.14552 -1.04834 8.61065e-20)
(3.13181 -1.09554 1.84614e-19)
(3.09309 -0.994026 -1.39977e-21)
(3.07365 -1.03901 -1.29558e-20)
(3.05065 -0.92958 0)
(3.02694 -0.970369 -7.8826e-21)
(3.01823 -0.859897 5.3309e-21)
(2.99572 -0.895228 -7.59435e-21)
(2.96576 -0.825374 6.2076e-21)
(2.98944 -0.782479 2.54972e-20)
(3.44477 -1.2101 -6.44304e-20)
(3.40909 -1.36795 1.46187e-20)
(3.36488 -1.18798 4.41231e-20)
(3.40464 -1.18269 1.68958e-19)
(3.31131 -1.18543 2.68469e-20)
(3.31464 -1.22618 -4.32488e-22)
(3.25725 -1.18472 -6.66242e-20)
(3.25752 -1.22869 2.99308e-21)
(3.19542 -1.17416 -1.20468e-19)
(3.19032 -1.22426 1.05059e-20)
(3.12764 -1.14419 -1.20799e-20)
(3.11456 -1.19803 -7.76413e-20)
(3.06256 -1.09185 1.37226e-19)
(3.04078 -1.14416 1.16197e-19)
(3.00933 -1.02228 -8.20014e-21)
(2.98067 -1.06852 2.43825e-21)
(2.97198 -0.944893 -5.0336e-21)
(2.93994 -0.983978 -1.37547e-20)
(2.94733 -0.866651 -8.43755e-21)
(2.9185 -0.899649 -7.85527e-21)
(2.89982 -0.824106 -2.3667e-21)
(2.9283 -0.78794 2.68915e-20)
(3.42511 -1.27289 4.51319e-19)
(3.38521 -1.439 -1.51402e-19)
(3.34061 -1.25658 1.36268e-19)
(3.39209 -1.25581 1.57775e-19)
(3.27385 -1.26171 -2.98629e-20)
(3.28468 -1.31461 -5.30191e-20)
(3.19899 -1.26495 7.16726e-20)
(3.20056 -1.3266 -2.84444e-20)
(3.11482 -1.24833 5.3723e-20)
(3.10461 -1.31377 8.20338e-20)
(3.03085 -1.2018 1.30713e-20)
(3.00738 -1.26495 -2.20914e-20)
(2.96052 -1.1277 1.25795e-20)
(2.926 -1.18254 1.39778e-21)
(2.91251 -1.03834 2.17638e-20)
(2.87198 -1.08177 1.41293e-20)
(2.88642 -0.947971 -1.47825e-21)
(2.84553 -0.98134 -5.8378e-21)
(2.87404 -0.864269 9.08751e-21)
(2.83957 -0.891604 -1.60676e-21)
(2.83564 -0.816058 4.61052e-21)
(2.86498 -0.785131 6.32617e-20)
(3.4181 -1.34405 -2.60349e-19)
(3.3817 -1.52484 -5.95416e-19)
(3.3233 -1.34411 -6.47216e-21)
(3.3861 -1.37128 1.08084e-19)
(3.22683 -1.36469 -5.39458e-20)
(3.24437 -1.4592 0)
(3.11455 -1.36582 -4.05411e-20)
(3.1082 -1.46182 -5.12149e-20)
(3.00093 -1.32814 3.64978e-20)
(2.97496 -1.41177 4.40632e-20)
(2.90414 -1.25004 -1.29549e-20)
(2.86288 -1.31752 -1.46599e-20)
(2.83825 -1.14511 1.54957e-21)
(2.7878 -1.19491 -3.92927e-22)
(2.80598 -1.03433 0)
(2.75379 -1.06798 1.45771e-21)
(2.79878 -0.93446 2.56115e-22)
(2.75116 -0.957078 1.22796e-22)
(2.80315 -0.850417 6.58967e-21)
(2.7648 -0.868838 7.37931e-22)
(2.77775 -0.79781 1.139e-20)
(2.8106 -0.780048 -2.19889e-20)
(3.43264 -1.45109 2.9248e-20)
(3.23115 -1.67583 -4.99613e-19)
(3.30594 -1.51854 1.35299e-19)
(3.33008 -1.65169 7.23885e-20)
(3.14018 -1.53536 3.21941e-22)
(3.11563 -1.67825 0)
(2.97793 -1.498 -4.50584e-20)
(2.93425 -1.60063 3.5157e-22)
(2.84158 -1.40712 1.10949e-22)
(2.79077 -1.47542 1.6816e-21)
(2.74873 -1.27696 -3.03048e-20)
(2.69263 -1.32039 2.66857e-21)
(2.7049 -1.13455 5.31002e-22)
(2.64733 -1.15978 1.00639e-20)
(2.70078 -1.00572 1.72479e-21)
(2.64769 -1.01785 -5.86499e-21)
(2.71811 -0.903869 7.68589e-21)
(2.67381 -0.909447 6.53193e-21)
(2.73904 -0.82694 4.29274e-21)
(2.70538 -0.833678 4.44262e-22)
(2.73148 -0.777017 9.44031e-21)
(2.75362 -0.76024 1.60396e-21)
(3.26004 -1.74082 -8.18849e-19)
(2.75723 -2.53261 -1.14483e-19)
(3.09716 -1.76097 -4.68941e-20)
(2.97158 -1.85228 -1.57416e-19)
(2.93033 -1.68037 0)
(2.87743 -1.73672 -3.45741e-22)
(2.76225 -1.54498 0)
(2.76794 -1.633 1.68033e-20)
(2.64372 -1.37566 4.03062e-21)
(2.67736 -1.46259 2.29237e-20)
(2.59073 -1.20089 7.24049e-21)
(2.60856 -1.26765 9.62067e-20)
(2.5903 -1.04576 -4.62732e-21)
(2.58275 -1.08948 -2.20932e-20)
(2.62215 -0.92508 1.45074e-20)
(2.60205 -0.94774 -4.39014e-20)
(2.66219 -0.843456 1.12168e-20)
(2.64279 -0.85428 6.76315e-21)
(2.69409 -0.789014 4.51624e-21)
(2.67951 -0.797966 0)
(2.70232 -0.758568 -4.48064e-21)
(2.71295 -0.748037 4.10652e-20)
(4.91807 -1.47512 1.10679e-19)
(5.45279 -1.40754 -6.0963e-19)
(4.73841 -1.17226 -1.86149e-21)
(5.18525 -1.26949 5.62144e-19)
(4.58727 -0.90278 -1.22937e-19)
(4.9725 -1.03197 -4.68557e-19)
(4.44054 -0.678069 0)
(4.7633 -0.768671 2.83004e-19)
(4.29006 -0.499389 1.90005e-20)
(4.5726 -0.524043 2.1683e-19)
(4.14414 -0.353295 5.0726e-20)
(4.38905 -0.341529 -1.37366e-19)
(3.99983 -0.23743 3.3784e-20)
(4.19682 -0.197459 2.84342e-20)
(3.86149 -0.15219 -1.72638e-20)
(4.01018 -0.0984603 0)
(3.7283 -0.0975663 -2.57508e-20)
(3.83423 -0.0331483 -4.22456e-20)
(3.60147 -0.0730628 -3.05095e-20)
(3.67484 -0.000922401 7.21511e-21)
(3.54223 0.00109568 -3.52219e-20)
(3.48296 -0.0785858 -2.27257e-20)
(5.58589 -1.27935 -4.17093e-19)
(5.87697 -1.23261 -4.49106e-19)
(5.36166 -1.13134 1.50001e-19)
(5.67743 -1.17422 7.32242e-19)
(5.12278 -0.891978 -6.21816e-20)
(5.45343 -1.01482 -2.87542e-19)
(4.89107 -0.613926 4.54991e-19)
(5.20197 -0.762019 -2.43861e-19)
(4.67452 -0.365972 -1.18219e-20)
(4.94343 -0.468808 3.2713e-19)
(4.4506 -0.177329 -1.61172e-19)
(4.69831 -0.205478 -1.39547e-19)
(4.22389 -0.0494162 0)
(4.45457 -0.00920008 4.23765e-20)
(4.00298 0.020852 -2.4654e-20)
(4.19834 0.11274 0)
(3.7997 0.0578145 -2.09687e-20)
(3.93527 0.16782 -2.31108e-20)
(3.62206 0.0703666 5.6237e-21)
(3.71507 0.176486 1.13292e-20)
(3.53854 0.161319 -2.04466e-21)
(3.46392 0.0586814 2.91426e-19)
(5.93823 -1.17676 3.2486e-19)
(6.12075 -1.20135 -3.66391e-21)
(5.76657 -1.0789 4.31275e-19)
(6.00362 -1.10707 4.25387e-19)
(5.54621 -0.899561 -4.19196e-19)
(5.81231 -0.993167 -5.38378e-20)
(5.28264 -0.625567 -3.31015e-19)
(5.56991 -0.775514 -4.4294e-19)
(5.00697 -0.305952 1.48302e-19)
(5.28135 -0.471378 1.67999e-19)
(4.73678 -0.0326066 3.6506e-20)
(4.97339 -0.131967 0)
(4.46105 0.159145 4.5922e-20)
(4.68106 0.157626 1.44785e-19)
(4.16925 0.269075 8.72506e-21)
(4.37903 0.356589 -9.74753e-20)
(3.88901 0.295715 1.10138e-20)
(4.05809 0.438051 5.91632e-20)
(3.64495 0.269251 6.92577e-21)
(3.74931 0.41865 -5.22064e-20)
(3.51992 0.361352 8.54436e-20)
(3.44169 0.226074 5.11026e-20)
(6.19009 -1.1529 6.21091e-20)
(6.31044 -1.24011 -1.62727e-20)
(6.05563 -1.05635 8.77725e-20)
(6.25395 -1.08997 9.22641e-20)
(5.86205 -0.896309 -7.58202e-20)
(6.08911 -0.993073 -6.911e-20)
(5.60397 -0.651373 3.15249e-20)
(5.86376 -0.792685 3.3173e-20)
(5.29582 -0.315185 3.76583e-20)
(5.57397 -0.503638 -3.84546e-21)
(4.96677 0.0489794 8.30336e-20)
(5.22721 -0.129342 2.86839e-20)
(4.63924 0.342499 -4.65086e-20)
(4.86432 0.251143 1.06325e-19)
(4.30961 0.527851 -6.42306e-20)
(4.50981 0.550973 -9.60205e-20)
(3.97154 0.590032 8.78119e-21)
(4.15054 0.722895 1.72748e-20)
(3.65328 0.53657 9.56631e-20)
(3.77847 0.731573 -8.90196e-20)
(3.47315 0.628102 5.05033e-20)
(3.38839 0.429585 1.88583e-20)
(6.39771 -1.17229 2.53691e-21)
(6.47473 -1.30757 -3.81932e-20)
(6.29307 -1.07437 0)
(6.46492 -1.10619 4.13853e-20)
(6.12001 -0.916597 1.56735e-20)
(6.31758 -1.02509 8.09479e-20)
(5.8708 -0.683733 -1.38745e-20)
(6.10599 -0.831178 -1.75949e-20)
(5.55319 -0.359663 -3.50934e-21)
(5.81922 -0.556838 -1.09458e-19)
(5.18136 0.0459636 4.33902e-20)
(5.45659 -0.183109 5.15987e-20)
(4.7832 0.438897 1.45896e-20)
(5.02933 0.261562 3.41153e-20)
(4.38998 0.729524 -4.13958e-20)
(4.59917 0.661918 0)
(4.006 0.875237 -1.29067e-19)
(4.17493 0.938286 -1.26946e-19)
(3.64028 0.85354 -1.91402e-20)
(3.76364 1.03823 -8.66262e-20)
(3.39065 0.941596 -6.72718e-20)
(3.32475 0.698342 -8.746e-21)
(6.57187 -1.20614 -1.81279e-19)
(6.61452 -1.37621 -2.8336e-20)
(6.4918 -1.11371 1.18379e-19)
(6.64021 -1.13858 1.04972e-19)
(6.33343 -0.962848 7.09248e-20)
(6.50382 -1.08053 2.53802e-21)
(6.09198 -0.740915 -7.85547e-20)
(6.30401 -0.895599 1.39331e-19)
(5.77091 -0.430842 -5.66137e-20)
(6.02231 -0.638703 -1.48595e-19)
(5.36642 -0.0182595 -2.03038e-20)
(5.6504 -0.283263 -8.33181e-21)
(4.90587 0.444795 -1.38098e-20)
(5.18306 0.184113 -1.24218e-20)
(4.43272 0.837483 -7.11198e-20)
(4.66777 0.672921 2.35105e-19)
(3.97647 1.08642 -8.9223e-20)
(4.15598 1.05549 -4.69493e-20)
(3.55604 1.14593 1.64764e-20)
(3.67334 1.26077 -2.19216e-19)
(3.2466 1.25291 1.38811e-19)
(3.20931 0.970141 -1.57739e-20)
(6.7095 -1.24713 8.84768e-20)
(6.72166 -1.43376 -7.44742e-20)
(6.65024 -1.16572 -8.74907e-21)
(6.77463 -1.1814 4.36461e-20)
(6.50324 -1.02924 5.93881e-20)
(6.64659 -1.15229 2.72876e-20)
(6.27044 -0.82608 1.22673e-19)
(6.45871 -0.981476 4.29272e-19)
(5.95079 -0.536559 -9.17907e-20)
(6.18556 -0.750514 -2.79274e-19)
(5.53106 -0.140603 0)
(5.81254 -0.42361 0)
(5.01896 0.353689 2.08934e-19)
(5.32147 0.0265548 -3.6239e-19)
(4.4547 0.834638 3.2968e-19)
(4.72943 0.575495 3.87602e-19)
(3.9065 1.18994 -1.07966e-19)
(4.11705 1.05387 3.45729e-19)
(3.4118 1.35096 -1.37199e-19)
(3.54059 1.36584 1.41091e-19)
(3.05404 1.46208 2.2587e-19)
(3.01172 1.27727 8.32228e-20)
(6.81262 -1.3013 -3.31255e-19)
(6.80482 -1.48906 -1.90355e-19)
(6.76807 -1.23076 8.69513e-20)
(6.87196 -1.23532 9.50328e-21)
(6.63008 -1.11262 3.63845e-19)
(6.74723 -1.23711 -1.63638e-20)
(6.40729 -0.934937 1.02528e-19)
(6.57053 -1.083 4.13733e-19)
(6.09493 -0.676282 -2.17794e-19)
(6.30802 -0.886321 -2.33723e-20)
(5.66974 -0.310376 -3.23768e-19)
(5.94193 -0.599452 -2.30025e-19)
(5.11502 0.179859 -3.86705e-19)
(5.44138 -0.192422 1.38958e-19)
(4.46943 0.722272 2.92252e-19)
(4.79226 0.363206 -1.84403e-19)
(3.81727 1.16784 7.16045e-19)
(4.07524 0.926191 -1.94463e-19)
(3.22933 1.4323 3.10909e-19)
(3.39165 1.33381 9.88867e-19)
(2.812 1.53404 -1.99167e-19)
(2.72244 1.47685 -5.61268e-19)
(6.88634 -1.36018 -5.62061e-20)
(6.86556 -1.53952 -1.15469e-19)
(6.84859 -1.30364 -9.99394e-20)
(6.93397 -1.29395 7.10415e-20)
(6.71594 -1.20801 -2.0913e-20)
(6.80746 -1.33107 -8.16275e-20)
(6.5026 -1.06086 3.26898e-19)
(6.64116 -1.19596 1.59295e-19)
(6.2006 -0.842353 -5.27247e-21)
(6.38887 -1.04008 1.06125e-20)
(5.77943 -0.52304 1.94308e-19)
(6.03389 -0.803664 -7.32362e-20)
(5.20512 -0.0734566 3.73404e-19)
(5.53776 -0.454519 5.81869e-19)
(4.4927 0.486633 -7.69246e-19)
(4.85679 0.0487944 9.66592e-20)
(3.73151 1.00486 -1.70868e-19)
(4.04808 0.666359 -5.69204e-19)
(3.04589 1.36723 1.70101e-19)
(3.25557 1.14576 4.38418e-19)
(2.58657 1.41864 -3.19997e-19)
(2.5211 1.51311 6.51371e-19)
(6.92727 -1.42296 -5.18043e-21)
(6.8912 -1.58655 1.00417e-21)
(6.89316 -1.38318 1.16855e-19)
(6.95876 -1.35905 -5.78e-20)
(6.76179 -1.3107 8.54967e-20)
(6.83348 -1.43107 2.41378e-19)
(6.55636 -1.19846 -1.48354e-19)
(6.67071 -1.31724 -8.67837e-20)
(6.26536 -1.02757 -4.10154e-20)
(6.42638 -1.20702 -1.10515e-20)
(5.85598 -0.768477 2.16369e-19)
(6.08438 -1.02966 -1.56235e-19)
(5.28222 -0.382443 4.47567e-19)
(5.60461 -0.753765 1.16759e-19)
(4.52324 0.148953 4.93512e-19)
(4.92317 -0.338972 4.85353e-19)
(3.66435 0.70238 -2.06912e-19)
(4.04714 0.284979 -2.48905e-19)
(2.87245 1.12637 -2.80643e-19)
(3.14319 0.811556 -5.90065e-19)
(2.37844 1.14976 -3.75664e-19)
(2.28601 1.33541 -1.95115e-18)
(6.9353 -1.47451 -4.88233e-20)
(6.86992 -1.64213 1.27712e-19)
(6.90398 -1.44767 6.09583e-20)
(6.96002 -1.43799 -1.70896e-19)
(6.7632 -1.41586 1.02733e-19)
(6.80343 -1.51595 -9.01711e-20)
(6.5659 -1.34539 4.92316e-20)
(6.65383 -1.44855 1.44526e-19)
(6.28542 -1.22809 -1.11406e-19)
(6.41869 -1.38558 1.62482e-19)
(5.89242 -1.04019 -3.18304e-19)
(6.08951 -1.27225 6.55614e-21)
(5.33912 -0.740235 1.47096e-19)
(5.63383 -1.0828 4.02876e-19)
(4.56664 -0.274871 -1.58259e-19)
(4.98832 -0.782082 -2.34642e-19)
(3.63389 0.282897 -7.54751e-19)
(4.07689 -0.241872 1.88201e-19)
(2.73966 0.73751 -8.53832e-19)
(3.07379 0.342475 -7.50447e-19)
(2.23788 0.719976 8.47934e-20)
(2.08105 1.02881 -6.92482e-19)
(6.90405 -1.53214 1.36484e-19)
(6.82372 -1.70154 8.96465e-20)
(6.86558 -1.54289 -3.24027e-19)
(6.89188 -1.51342 -5.35812e-20)
(6.72338 -1.53055 -1.27846e-19)
(6.75063 -1.60571 -2.92962e-19)
(6.53213 -1.50179 2.60598e-19)
(6.59318 -1.59098 4.19915e-19)
(6.26001 -1.44132 3.02038e-19)
(6.36346 -1.5743 -3.31166e-19)
(5.88279 -1.33068 6.93219e-19)
(6.0448 -1.52503 5.88207e-19)
(5.35877 -1.13754 1.8993e-19)
(5.61064 -1.42289 5.70759e-19)
(4.60799 -0.797988 1.45189e-19)
(5.01459 -1.24029 -8.75493e-19)
(3.64391 -0.286394 2.10584e-19)
(4.14299 -0.879353 1.03165e-18)
(2.68129 0.204536 5.30118e-19)
(3.09555 -0.260221 -5.99652e-19)
(2.21714 0.143705 8.00617e-19)
(1.97556 0.581572 2.31067e-18)
(6.82901 -1.59021 1.4592e-20)
(6.74302 -1.74432 -2.678e-22)
(6.78188 -1.62684 2.23726e-21)
(6.78064 -1.59551 2.41561e-22)
(6.64154 -1.65071 1.45795e-19)
(6.64878 -1.70282 8.81149e-22)
(6.45054 -1.66597 -9.19804e-20)
(6.48844 -1.73974 1.03741e-19)
(6.1849 -1.66142 -1.52284e-19)
(6.26494 -1.77411 -2.73538e-19)
(5.82277 -1.62372 4.69642e-19)
(5.95831 -1.78803 1.72269e-19)
(5.3345 -1.53161 -2.70157e-19)
(5.54585 -1.76536 2.03801e-19)
(4.65199 -1.33971 -2.57365e-19)
(4.99465 -1.68456 -5.85123e-19)
(3.70837 -0.938549 3.77802e-19)
(4.2406 -1.49299 5.27766e-19)
(2.70182 -0.420295 -2.2931e-19)
(3.24209 -0.97904 -4.06353e-19)
(2.23721 -0.518227 1.46116e-19)
(1.87834 -0.0761077 -2.46662e-18)
(6.70578 -1.64374 -1.36539e-20)
(6.60275 -1.77664 -1.95377e-20)
(6.64932 -1.71304 -8.46421e-22)
(6.61658 -1.67977 -2.89252e-21)
(6.51118 -1.77832 -5.30225e-20)
(6.49249 -1.80785 2.41199e-20)
(6.32411 -1.84185 -3.79285e-20)
(6.33629 -1.8961 -8.01391e-20)
(6.06831 -1.8949 1.47686e-21)
(6.12452 -1.98595 -3.24158e-20)
(5.72319 -1.92511 -8.62718e-20)
(5.83849 -2.06385 -2.59008e-20)
(5.26503 -1.91399 5.28562e-21)
(5.45932 -2.11416 1.19437e-21)
(4.66083 -1.83049 1.87987e-20)
(4.96303 -2.11554 -2.84501e-21)
(3.85658 -1.60778 -1.77991e-19)
(4.31254 -2.0283 0)
(2.86561 -1.17885 1.43796e-20)
(3.44949 -1.71821 -2.00395e-19)
(2.44637 -1.26155 2.71146e-20)
(1.96128 -0.740978 8.53362e-20)
(6.52899 -1.70096 -1.21523e-19)
(6.41164 -1.80426 -8.08556e-20)
(6.46308 -1.80348 1.94726e-20)
(6.39798 -1.76427 3.65103e-20)
(6.32924 -1.9121 7.61673e-21)
(6.27891 -1.91847 2.23428e-20)
(6.15243 -2.02746 -8.22483e-20)
(6.13184 -2.0587 3.01678e-20)
(5.91643 -2.14081 -6.49961e-20)
(5.93982 -2.20676 -5.96793e-20)
(5.60382 -2.23906 5.89285e-20)
(5.68643 -2.34923 4.61022e-20)
(5.19538 -2.30279 -5.23662e-21)
(5.35665 -2.46894 -2.14054e-20)
(4.6627 -2.30272 -1.87207e-20)
(4.93235 -2.54079 -1.79104e-19)
(3.96446 -2.1967 0)
(4.38346 -2.526 0)
(3.10131 -1.91753 -1.06666e-19)
(3.67056 -2.36 0)
(2.79478 -2.00085 3.22686e-20)
(2.21889 -1.48089 -2.38667e-18)
(6.29252 -1.75547 6.16262e-20)
(6.15864 -1.82711 -2.22514e-19)
(6.21547 -1.89414 4.3452e-20)
(6.11553 -1.8453 9.86067e-20)
(6.08831 -2.04908 4.87889e-20)
(6.0014 -2.03195 3.75371e-20)
(5.92916 -2.21881 6.07371e-20)
(5.87015 -2.2254 2.23452e-20)
(5.7246 -2.39312 2.8731e-20)
(5.70884 -2.43201 -5.73723e-20)
(5.46024 -2.55711 -2.7091e-20)
(5.50267 -2.63598 -2.64625e-21)
(5.12137 -2.68994 -1.81558e-19)
(5.23924 -2.8179 -1.60643e-19)
(4.68697 -2.76233 -1.80113e-19)
(4.90451 -2.9502 7.85037e-20)
(4.12696 -2.73362 0)
(4.4753 -2.99638 2.46264e-19)
(3.4215 -2.55093 1.06509e-19)
(3.92221 -2.9179 0)
(3.23178 -2.68128 1.20301e-19)
(2.56952 -2.17473 -5.80321e-19)
(5.9826 -1.80634 -1.46813e-20)
(5.82612 -1.853 -9.54302e-20)
(5.89688 -1.98516 9.65151e-20)
(5.7565 -1.92584 1.75219e-20)
(5.78239 -2.18905 2.1888e-20)
(5.6514 -2.14911 7.19298e-20)
(5.65173 -2.41356 -5.44321e-20)
(5.54575 -2.39366 1.73694e-20)
(5.49288 -2.64584 -7.57931e-20)
(5.42861 -2.65322 -5.11847e-21)
(5.29252 -2.86829 -1.19884e-19)
(5.28541 -2.90831 -2.67105e-20)
(5.03832 -3.05883 2.27928e-20)
(5.10379 -3.13759 1.3167e-19)
(4.71445 -3.18919 4.27808e-19)
(4.87193 -3.31329 1.87663e-19)
(4.29752 -3.22266 2.74077e-19)
(4.57221 -3.40224 6.59945e-20)
(3.76408 -3.11721 0)
(4.18101 -3.37989 -1.8056e-19)
(3.66506 -3.25335 1.2566e-19)
(3.05856 -2.86713 -9.36615e-19)
(5.5897 -1.85912 -2.87842e-20)
(5.39472 -1.89892 3.64563e-19)
(5.5023 -2.08025 -3.2087e-20)
(5.30956 -2.01217 -4.82733e-20)
(5.41057 -2.33042 2.27426e-20)
(5.22257 -2.26439 -3.21208e-20)
(5.32213 -2.6023 2.4285e-20)
(5.15228 -2.54381 -1.07597e-20)
(5.22434 -2.88011 1.54624e-20)
(5.0892 -2.83317 4.43268e-20)
(5.10267 -3.14344 1.68304e-19)
(5.01927 -3.11225 1.78874e-20)
(4.94587 -3.37008 2.42262e-19)
(4.92743 -3.36025 1.36423e-19)
(4.74251 -3.53342 -7.25764e-20)
(4.80278 -3.55003 0)
(4.474 -3.60325 -2.51558e-19)
(4.6297 -3.65148 -3.23437e-19)
(4.11247 -3.55433 -1.25393e-19)
(4.3836 -3.6494 2.14078e-19)
(4.03917 -3.56993 -1.42077e-19)
(3.53634 -3.38574 5.75939e-19)