/*--------------------------------*- C++ -*----------------------------------*\
| =========                 |                                                 |
| \\      /  F ield         | OpenFOAM: The Open Source CFD Toolbox           |
|  \\    /   O peration     | Version:  3.0.1                                 |
|   \\  /    A nd           | Web:      www.OpenFOAM.org                      |
|    \\/     M anipulation  |                                                 |
\*---------------------------------------------------------------------------*/
FoamFile
{
    version     2.0;
    format      ascii;
    class       surfaceScalarField;
    location    "0.90749";
    object      phi;
}
// * * * * * * * * * * * * * * * * * * * * * * * * * * * * * * * * * * * * * //

dimensions      [0 3 -1 0 0 0 0];

internalField   nonuniform List<scalar> 
32369
(
7.30837e-07
1.09956e-05
-1.17264e-05
7.54365e-07
1.107e-05
-1.10935e-05
-9.14605e-07
1.41593e-05
-1.24903e-05
-3.7161e-06
1.72396e-05
-1.44381e-05
-7.24091e-06
2.03643e-05
-1.68395e-05
-1.13328e-05
2.3826e-05
-1.97341e-05
-1.59269e-05
2.79078e-05
-2.33137e-05
-2.11423e-05
3.30808e-05
-2.78653e-05
-2.72246e-05
3.9812e-05
-3.37296e-05
-3.45017e-05
4.85837e-05
-4.13067e-05
6.00237e-05
-5.10505e-05
-4.34749e-05
3.92026e-06
7.07532e-06
5.89181e-06
9.09844e-06
6.4916e-06
1.35595e-05
5.94019e-06
1.7791e-05
4.09827e-06
2.22062e-05
9.73772e-07
2.69505e-05
-3.22932e-06
3.21108e-05
-8.31507e-06
3.81665e-05
-1.43233e-05
4.58202e-05
-2.15701e-05
5.58305e-05
6.89457e-05
-3.04921e-05
3.06057e-06
4.01475e-06
4.84539e-06
7.31363e-06
6.53885e-06
1.1866e-05
7.58885e-06
1.67411e-05
7.56961e-06
2.22254e-05
6.28812e-06
2.8232e-05
3.73336e-06
3.46656e-05
6.834e-08
4.18315e-05
-4.54768e-06
5.04362e-05
-1.01975e-05
6.14804e-05
7.60368e-05
-1.72886e-05
2.06045e-06
1.9543e-06
3.88797e-06
5.48612e-06
5.81325e-06
9.94076e-06
7.35489e-06
1.51994e-05
8.42358e-06
2.11567e-05
8.63682e-06
2.80188e-05
7.78939e-06
3.5513e-05
5.88564e-06
4.37353e-05
3.09067e-06
5.32312e-05
-4.76371e-07
6.50474e-05
8.04612e-05
-4.90084e-06
1.40853e-06
5.4577e-07
3.17768e-06
3.71696e-06
5.10914e-06
8.00929e-06
7.03085e-06
1.32777e-05
8.61047e-06
1.95771e-05
9.72816e-06
2.69011e-05
1.01685e-05
3.50727e-05
9.80906e-06
4.40948e-05
8.73457e-06
5.43057e-05
7.16591e-06
6.66161e-05
8.24128e-05
5.2143e-06
1.0089e-06
-4.63127e-07
2.66951e-06
2.05635e-06
4.58173e-06
6.09707e-06
6.58337e-06
1.12761e-05
8.516e-06
1.76445e-05
1.02375e-05
2.51796e-05
1.15515e-05
3.37587e-05
1.23464e-05
4.32999e-05
1.26715e-05
5.39806e-05
1.27316e-05
6.6556e-05
8.23609e-05
1.27836e-05
5.02837e-07
-9.65964e-07
1.87017e-06
6.89016e-07
3.72082e-06
4.24642e-06
5.80972e-06
9.18716e-06
7.96595e-06
1.54883e-05
1.00712e-05
2.30743e-05
1.20017e-05
3.18283e-05
1.36662e-05
4.16353e-05
1.50653e-05
5.25815e-05
1.64077e-05
6.52135e-05
8.07689e-05
1.79997e-05
1.88434e-07
-1.1544e-06
1.05668e-06
-1.79232e-07
2.64097e-06
2.66213e-06
4.65438e-06
7.17375e-06
6.87813e-06
1.32645e-05
9.20777e-06
2.07446e-05
1.15563e-05
2.94797e-05
1.38521e-05
3.93396e-05
1.61002e-05
5.03334e-05
1.84924e-05
6.28213e-05
7.78954e-05
2.13658e-05
1.12054e-08
-1.1656e-06
4.15798e-07
-5.83825e-07
1.60172e-06
1.47621e-06
3.35917e-06
5.4163e-06
5.48851e-06
1.11352e-05
7.8852e-06
1.8348e-05
1.04767e-05
2.68882e-05
1.32116e-05
3.66047e-05
1.61103e-05
4.74347e-05
1.92765e-05
5.96551e-05
7.4169e-05
2.30029e-05
-7.75761e-08
-1.08803e-06
3.57599e-08
-6.97161e-07
7.38168e-07
7.73806e-07
2.13373e-06
4.02074e-06
4.04625e-06
9.22266e-06
6.37636e-06
1.60178e-05
9.06047e-06
2.42041e-05
1.20709e-05
3.35944e-05
1.5413e-05
4.40925e-05
1.91853e-05
5.58828e-05
6.97458e-05
2.36085e-05
-1.48736e-07
-9.39292e-07
-2.40315e-07
-6.05581e-07
1.33795e-08
5.20111e-07
9.96332e-07
3.03779e-06
2.60917e-06
7.60982e-06
4.75183e-06
1.38752e-05
7.41066e-06
2.15452e-05
1.05717e-05
3.04333e-05
1.42445e-05
4.04197e-05
1.84821e-05
5.16453e-05
6.47129e-05
2.3515e-05
-2.0796e-07
-7.31332e-07
-4.29963e-07
-3.83578e-07
-4.81178e-07
5.71326e-07
2.44616e-08
2.53214e-06
1.29092e-06
6.34336e-06
3.16338e-06
1.20027e-05
5.70231e-06
1.90063e-05
8.92913e-06
2.72064e-05
1.28528e-05
3.6496e-05
1.74958e-05
4.70023e-05
5.93062e-05
2.29025e-05
-2.47466e-07
-4.83866e-07
-5.40016e-07
-9.10281e-08
-7.23729e-07
7.5504e-07
-5.80342e-07
2.38876e-06
3.11088e-07
5.45193e-06
1.9108e-06
1.0403e-05
4.29272e-06
1.66244e-05
7.51473e-06
2.39844e-05
1.16162e-05
3.23945e-05
1.65973e-05
4.20212e-05
5.34397e-05
2.24638e-05
-2.41041e-07
-2.42825e-07
-5.47919e-07
2.1585e-07
-7.78737e-07
9.85858e-07
-7.88559e-07
2.39858e-06
-2.35151e-07
4.89853e-06
1.12198e-06
9.04587e-06
3.35351e-06
1.43929e-05
6.5594e-06
2.07785e-05
1.07781e-05
2.81758e-05
1.59927e-05
3.68066e-05
4.72742e-05
2.21582e-05
-2.05551e-07
-3.72738e-08
-5.02549e-07
5.12849e-07
-7.2541e-07
1.20872e-06
-7.92952e-07
2.46612e-06
-4.3691e-07
4.54248e-06
7.09838e-07
7.89912e-06
2.80968e-06
1.2293e-05
5.99131e-06
1.75969e-05
1.03176e-05
2.38496e-05
1.57537e-05
3.13704e-05
4.08007e-05
2.22273e-05
-1.55801e-07
1.18527e-07
-4.09218e-07
7.66266e-07
-5.77174e-07
1.37667e-06
-6.24185e-07
2.51313e-06
-3.21216e-07
4.23952e-06
7.06495e-07
6.87141e-06
2.71538e-06
1.02841e-05
5.88049e-06
1.44318e-05
1.03005e-05
1.94296e-05
1.5991e-05
2.56799e-05
3.38705e-05
2.29212e-05
-9.07597e-08
2.09287e-07
-2.77427e-07
9.52933e-07
-3.66092e-07
1.46534e-06
-3.4915e-07
2.49619e-06
-1.80788e-08
3.90844e-06
9.73108e-07
5.88023e-06
2.9294e-06
8.32785e-06
6.10533e-06
1.12559e-05
1.06553e-05
1.48796e-05
1.65786e-05
1.97567e-05
2.67436e-05
2.37055e-05
-3.995e-08
2.49237e-07
-1.65249e-07
1.07823e-06
-1.91491e-07
1.49158e-06
-1.24237e-07
2.42894e-06
2.30409e-07
3.5538e-06
1.1973e-06
4.91333e-06
3.13983e-06
6.38532e-06
6.38575e-06
8.00996e-06
1.11338e-05
1.01316e-05
1.73972e-05
1.34933e-05
1.90452e-05
2.50956e-05
-9.74675e-09
2.58983e-07
-9.1291e-08
1.15978e-06
-1.2725e-07
1.52754e-06
-9.35708e-08
2.39526e-06
1.93936e-07
3.26629e-06
1.1086e-06
3.99867e-06
3.09631e-06
4.39762e-06
6.53165e-06
4.57462e-06
1.1636e-05
5.02716e-06
1.8396e-05
6.73334e-06
1.07788e-05
2.66623e-05
-2.65669e-08
2.8555e-07
-1.82818e-07
1.31603e-06
-3.78492e-07
1.72321e-06
-4.91264e-07
2.50803e-06
-3.11894e-07
3.08692e-06
7.35998e-07
2.95077e-06
3.16447e-06
1.96914e-06
7.1794e-06
5.59685e-07
1.27235e-05
-5.16916e-07
1.98417e-05
-3.84843e-07
2.05589e-06
2.85646e-05
-2.76956e-07
5.62507e-07
-5.42471e-07
1.58154e-06
-8.13644e-07
1.99439e-06
-6.97664e-07
2.39205e-06
4.45987e-07
1.94327e-06
3.10849e-06
2.88275e-07
7.01801e-06
-1.94038e-06
1.17286e-05
-4.15088e-06
1.73337e-05
-6.12206e-06
2.42441e-05
-7.29522e-06
-6.42418e-06
3.27242e-05
-5.87724e-07
1.15023e-06
-6.08486e-07
1.6023e-06
-1.86281e-08
1.40453e-06
1.77711e-06
5.96316e-07
4.82399e-06
-1.10362e-06
8.31513e-06
-3.20286e-06
1.18479e-05
-5.47318e-06
1.57962e-05
-8.09915e-06
2.06521e-05
-1.09779e-05
2.70093e-05
-1.36525e-05
-1.4902e-05
3.54872e-05
1.20584e-07
1.02965e-06
1.53231e-06
1.90582e-07
3.75405e-06
-8.17214e-07
6.49465e-06
-2.14429e-06
9.14132e-06
-3.75028e-06
1.16295e-05
-5.69108e-06
1.42313e-05
-8.07491e-06
1.71675e-05
-1.10354e-05
2.08041e-05
-1.46145e-05
2.57689e-05
-1.86173e-05
-2.22101e-05
3.30769e-05
3.23718e-06
-2.20753e-06
5.45497e-06
-2.02722e-06
7.43265e-06
-2.79489e-06
9.23337e-06
-3.94501e-06
1.09103e-05
-5.42723e-06
1.25286e-05
-7.30931e-06
1.41826e-05
-9.72892e-06
1.6019e-05
-1.28718e-05
1.82428e-05
-1.68383e-05
2.13133e-05
-2.16878e-05
-2.71566e-05
2.62599e-05
-7.52737e-06
-4.19905e-06
-1.24085e-05
-6.21238e-06
-1.64477e-05
-8.45112e-06
-2.00315e-05
-1.08544e-05
-2.34856e-05
-1.33854e-05
-2.70872e-05
-1.61325e-05
-3.10886e-05
-1.93123e-05
-3.57249e-05
-2.32291e-05
-4.12176e-05
-2.82369e-05
-4.77933e-05
-3.4731e-05
-4.31723e-05
-5.56715e-05
-4.66666e-06
4.67619e-07
-9.16889e-06
-1.71016e-06
-1.36e-05
-4.01999e-06
-1.79109e-05
-6.54346e-06
-2.21657e-05
-9.13066e-06
-2.65559e-05
-1.17422e-05
-3.13664e-05
-1.45018e-05
-3.68962e-05
-1.76993e-05
-4.3431e-05
-2.1702e-05
-5.12601e-05
-2.6902e-05
-3.36967e-05
-6.07357e-05
-2.09694e-06
2.56456e-06
-4.9083e-06
1.10121e-06
-8.63863e-06
-2.89659e-07
-1.29075e-05
-2.27464e-06
-1.75468e-05
-4.49135e-06
-2.25866e-05
-6.70236e-06
-2.81662e-05
-8.92225e-06
-3.45258e-05
-1.13397e-05
-4.19476e-05
-1.42802e-05
-5.07128e-05
-1.81368e-05
-2.33132e-05
-6.10963e-05
-5.75133e-07
3.13969e-06
-2.13469e-06
2.66077e-06
-4.76596e-06
2.34161e-06
-8.38843e-06
1.34783e-06
-1.28331e-05
-4.67075e-08
-1.79547e-05
-1.58069e-06
-2.38077e-05
-3.0693e-06
-3.05472e-05
-4.60024e-06
-3.83918e-05
-6.43556e-06
-4.76058e-05
-8.92285e-06
-1.23611e-05
-5.85579e-05
-5.78736e-08
3.19756e-06
-7.48038e-07
3.35093e-06
-2.1714e-06
3.76498e-06
-4.5844e-06
3.76082e-06
-8.11373e-06
3.48262e-06
-1.27483e-05
3.05389e-06
-1.84545e-05
2.63693e-06
-2.52527e-05
2.19793e-06
-3.32394e-05
1.55115e-06
-4.25651e-05
4.02811e-07
-1.60119e-06
-5.3325e-05
1.29097e-07
3.06846e-06
-1.39291e-07
3.61932e-06
-8.2233e-07
4.44802e-06
-2.19567e-06
5.13416e-06
-4.49517e-06
5.78211e-06
-7.93516e-06
6.49389e-06
-1.2652e-05
7.35374e-06
-1.87471e-05
8.29301e-06
-2.63166e-05
9.12068e-06
-3.54949e-05
9.58109e-06
9.31035e-06
-4.64064e-05
2.02212e-07
2.86625e-06
1.62794e-07
3.65874e-06
-7.5996e-08
4.68681e-06
-7.66603e-07
5.82477e-06
-2.16327e-06
7.17877e-06
-4.54374e-06
8.87437e-06
-8.18236e-06
1.09923e-05
-1.33022e-05
1.34129e-05
-2.00101e-05
1.58286e-05
-2.8375e-05
1.7946e-05
1.94821e-05
-3.85468e-05
1.99612e-07
2.66664e-06
2.90663e-07
3.56769e-06
3.19421e-07
4.65805e-06
9.36176e-08
6.05057e-06
-5.92425e-07
7.86482e-06
-2.00488e-06
1.02868e-05
-4.50145e-06
1.34889e-05
-8.44935e-06
1.73608e-05
-1.40765e-05
2.14557e-05
-2.14248e-05
2.52943e-05
2.85728e-05
-3.05155e-05
2.05133e-07
2.46151e-06
3.78248e-07
3.39457e-06
5.7953e-07
4.45677e-06
6.62188e-07
5.96792e-06
4.88599e-07
8.03841e-06
-1.4072e-07
1.09161e-05
-1.55402e-06
1.49022e-05
-4.21879e-06
2.00256e-05
-8.58098e-06
2.58179e-05
-1.47086e-05
3.14219e-05
3.6356e-05
-2.24917e-05
2.03362e-07
2.25815e-06
4.51334e-07
3.1466e-06
7.74865e-07
4.13323e-06
1.06999e-06
5.67279e-06
1.26349e-06
7.84491e-06
1.21107e-06
1.09686e-05
6.88535e-07
1.54247e-05
-7.48987e-07
2.14631e-05
-3.70141e-06
2.87704e-05
-8.52399e-06
3.62444e-05
4.29757e-05
-1.51437e-05
2.22606e-07
2.03554e-06
5.66388e-07
2.80282e-06
9.33396e-07
3.76623e-06
1.37585e-06
5.23034e-06
1.83665e-06
7.38411e-06
2.21688e-06
1.05883e-05
2.35482e-06
1.52868e-05
1.92741e-06
2.18905e-05
3.55884e-07
3.03419e-05
-2.99058e-06
3.95909e-05
4.82017e-05
-8.21655e-06
2.14431e-07
1.82111e-06
5.68982e-07
2.44827e-06
9.84336e-07
3.35087e-06
1.52642e-06
4.68825e-06
2.15043e-06
6.76011e-06
2.82465e-06
9.91411e-06
3.44805e-06
1.46634e-05
3.79389e-06
2.15446e-05
3.39428e-06
3.07415e-05
1.57325e-06
4.14119e-05
5.18247e-05
-2.04978e-06
2.02361e-07
1.61875e-06
5.75259e-07
2.07537e-06
1.01751e-06
2.90863e-06
1.57356e-06
4.1322e-06
2.26737e-06
6.06629e-06
3.09413e-06
9.08734e-06
4.02944e-06
1.37281e-05
4.93541e-06
2.06387e-05
5.46641e-06
3.02105e-05
4.99899e-06
4.18793e-05
5.40748e-05
2.74889e-06
2.00349e-07
1.4184e-06
5.70641e-07
1.70508e-06
1.00216e-06
2.4771e-06
1.5444e-06
3.58996e-06
2.23215e-06
5.37855e-06
3.09677e-06
8.22272e-06
4.15467e-06
1.26702e-05
5.37909e-06
1.94142e-05
6.57713e-06
2.90125e-05
7.25723e-06
4.11992e-05
5.46693e-05
6.66275e-06
1.79467e-07
1.23893e-06
5.24844e-07
1.3597e-06
9.15009e-07
2.08694e-06
1.39319e-06
3.11178e-06
1.99295e-06
4.77878e-06
2.75946e-06
7.45621e-06
3.76405e-06
1.16656e-05
5.08699e-06
1.80913e-05
6.69722e-06
2.74023e-05
8.31477e-06
3.95817e-05
5.3849e-05
9.13506e-06
1.60218e-07
1.07871e-06
4.56323e-07
1.06359e-06
7.75154e-07
1.76811e-06
1.14097e-06
2.74597e-06
1.57916e-06
4.3406e-06
2.14429e-06
6.89108e-06
2.94978e-06
1.08601e-05
4.16819e-06
1.68729e-05
5.94201e-06
2.56284e-05
8.20064e-06
3.7323e-05
5.14973e-05
1.05523e-05
1.37727e-07
9.40988e-07
3.55461e-07
8.45861e-07
5.62633e-07
1.56094e-06
7.66445e-07
2.54215e-06
9.90156e-07
4.11689e-06
1.29711e-06
6.58413e-06
1.81629e-06
1.0341e-05
2.76675e-06
1.59224e-05
4.39834e-06
2.39968e-05
6.71822e-06
3.50032e-05
4.91199e-05
9.09559e-06
9.75279e-08
8.4346e-07
1.95189e-07
7.48199e-07
2.55145e-07
1.50098e-06
2.78507e-07
2.51879e-06
2.86185e-07
4.10921e-06
3.34445e-07
6.53587e-06
5.4045e-07
1.01349e-05
1.12075e-06
1.53421e-05
2.4154e-06
2.27022e-05
4.73971e-06
3.26789e-05
4.58466e-05
8.01298e-06
2.99455e-08
8.13514e-07
-5.92722e-09
7.84072e-07
-7.66906e-08
1.57174e-06
-2.00733e-07
2.64283e-06
-3.78197e-07
4.28667e-06
-5.70142e-07
6.72781e-06
-6.70597e-07
1.02354e-05
-4.82261e-07
1.51538e-05
2.89153e-07
2.19308e-05
1.92509e-06
3.10429e-05
4.31303e-05
4.64145e-06
-3.29537e-08
8.46468e-07
-1.48134e-07
8.99252e-07
-2.97437e-07
1.72105e-06
-5.32021e-07
2.87742e-06
-8.71506e-07
4.62616e-06
-1.2764e-06
7.13271e-06
-1.63421e-06
1.05932e-05
-1.76716e-06
1.52867e-05
-1.44967e-06
2.16133e-05
-3.49022e-07
2.99423e-05
4.08937e-05
1.88751e-06
-3.08316e-08
8.773e-07
-1.71924e-07
1.04034e-06
-3.74869e-07
1.92399e-06
-7.0182e-07
3.20437e-06
-1.16133e-06
5.08567e-06
-1.68515e-06
7.65653e-06
-2.14938e-06
1.10574e-05
-2.38948e-06
1.55268e-05
-2.19829e-06
2.14221e-05
-1.32878e-06
2.90728e-05
3.87133e-05
8.51664e-07
-1.60701e-08
8.9337e-07
-1.9254e-07
1.21681e-06
-4.47447e-07
2.1789e-06
-8.32527e-07
3.58945e-06
-1.29463e-06
5.54777e-06
-1.72759e-06
8.08948e-06
-1.99556e-06
1.13254e-05
-1.9758e-06
1.55071e-05
-1.52374e-06
2.097e-05
-5.47769e-07
2.80968e-05
3.72699e-05
8.9567e-07
-7.09975e-08
9.64367e-07
-3.09313e-07
1.45513e-06
-6.82499e-07
2.55209e-06
-1.06526e-06
3.97221e-06
-1.32439e-06
5.8069e-06
-1.34128e-06
8.10637e-06
-1.02168e-06
1.10058e-05
-2.89777e-07
1.47752e-05
1.02306e-06
1.96572e-05
3.20847e-06
2.59114e-05
3.37056e-05
6.77269e-06
-1.24316e-06
-1.81525e-06
-2.05805e-06
-2.03085e-06
-1.65118e-06
-8.54125e-07
4.22776e-07
2.32618e-06
5.14504e-06
9.36866e-06
1.59177e-05
-1.02974e-05
-9.98501e-06
2.02824e-05
-1.65199e-05
-1.16859e-05
1.79085e-05
-2.17498e-05
-1.39889e-05
1.92188e-05
-2.67914e-05
-1.62527e-05
2.12943e-05
-3.1479e-05
-1.8282e-05
2.29696e-05
-3.62193e-05
-2.00892e-05
2.48296e-05
-4.13003e-05
-2.16632e-05
2.67442e-05
-4.70372e-05
-2.29685e-05
2.87054e-05
-5.36997e-05
-2.39078e-05
3.05703e-05
-6.15653e-05
-2.42912e-05
3.21568e-05
-2.37643e-05
3.32212e-05
-7.10222e-05
-7.90876e-06
-2.07626e-06
-1.44548e-05
-5.13991e-06
-2.0437e-05
-8.00662e-06
-2.59704e-05
-1.07193e-05
-3.11763e-05
-1.30761e-05
-3.63434e-05
-1.49221e-05
-4.18129e-05
-1.61938e-05
-4.79516e-05
-1.68297e-05
-5.51259e-05
-1.67334e-05
-6.37166e-05
-1.57006e-05
-1.3385e-05
-7.40959e-05
-3.86838e-06
1.79213e-06
-8.7174e-06
-2.90894e-07
-1.4124e-05
-2.60007e-06
-1.97931e-05
-5.05022e-06
-2.56544e-05
-7.21482e-06
-3.17112e-05
-8.86523e-06
-3.81228e-05
-9.7822e-06
-4.51719e-05
-9.78072e-06
-5.32156e-05
-8.68968e-06
-6.26264e-05
-6.28984e-06
-2.25345e-06
-7.3758e-05
-1.79637e-06
3.5885e-06
-4.91081e-06
2.82354e-06
-9.27784e-06
1.76696e-06
-1.45324e-05
2.04332e-07
-2.03693e-05
-1.37793e-06
-2.66842e-05
-2.55035e-06
-3.35243e-05
-2.94201e-06
-4.10363e-05
-2.26878e-06
-4.94593e-05
-2.66653e-07
-5.91728e-05
3.42368e-06
9.28326e-06
-7.07095e-05
-1.15046e-06
4.73895e-06
-2.9966e-06
4.66969e-06
-5.94131e-06
4.71167e-06
-1.00545e-05
4.31755e-06
-1.52192e-05
3.78671e-06
-2.1287e-05
3.51747e-06
-2.81663e-05
3.93735e-06
-3.58997e-05
5.46457e-06
-4.46769e-05
8.51054e-06
-5.4733e-05
1.34798e-05
2.09672e-05
-6.64169e-05
-1.11168e-06
5.85064e-06
-2.80467e-06
6.36267e-06
-5.0975e-06
7.0045e-06
-8.27148e-06
7.49153e-06
-1.25148e-05
8.03007e-06
-1.7846e-05
8.84864e-06
-2.42267e-05
1.0318e-05
-3.16378e-05
1.28757e-05
-4.01373e-05
1.701e-05
-4.99126e-05
2.32551e-05
3.23361e-05
-6.12816e-05
-1.00828e-06
6.85892e-06
-2.49997e-06
7.85436e-06
-4.51358e-06
9.01811e-06
-7.23052e-06
1.02085e-05
-1.08312e-05
1.16308e-05
-1.54424e-05
1.34598e-05
-2.11252e-05
1.60009e-05
-2.79158e-05
1.96663e-05
-3.58775e-05
2.49717e-05
-4.51325e-05
3.25101e-05
4.30255e-05
-5.58219e-05
-9.70455e-07
7.82937e-06
-2.34137e-06
9.22528e-06
-4.14448e-06
1.08212e-05
-6.53935e-06
1.26033e-05
-9.67302e-06
1.47644e-05
-1.3695e-05
1.74818e-05
-1.87206e-05
2.10265e-05
-2.48429e-05
2.57886e-05
-3.21519e-05
3.22807e-05
-4.07882e-05
4.11464e-05
5.32161e-05
-5.09788e-05
-9.15832e-07
8.74521e-06
-2.1869e-06
1.04963e-05
-3.82695e-06
1.24613e-05
-5.96633e-06
1.47427e-05
-8.74052e-06
1.75386e-05
-1.22887e-05
2.103e-05
-1.67457e-05
2.54835e-05
-2.22379e-05
3.12807e-05
-2.88872e-05
3.893e-05
-3.68528e-05
4.91121e-05
6.2725e-05
-4.63618e-05
-7.69002e-07
9.51421e-06
-1.89183e-06
1.16192e-05
-3.36186e-06
1.39313e-05
-5.2774e-06
1.66583e-05
-7.7485e-06
2.00097e-05
-1.09094e-05
2.41909e-05
-1.48904e-05
2.94645e-05
-1.9832e-05
3.62224e-05
-2.58778e-05
4.49757e-05
-3.31899e-05
5.64242e-05
7.14614e-05
-4.19262e-05
-6.35934e-07
1.01501e-05
-1.62138e-06
1.26046e-05
-2.92148e-06
1.52314e-05
-4.61881e-06
1.83556e-05
-6.81719e-06
2.22081e-05
-9.62772e-06
2.70014e-05
-1.31818e-05
3.30185e-05
-1.76118e-05
4.06524e-05
-2.30703e-05
5.04342e-05
-2.97177e-05
6.30716e-05
7.94885e-05
-3.77448e-05
-6.16914e-07
1.07671e-05
-1.5109e-06
1.34986e-05
-2.6613e-06
1.63818e-05
-4.15812e-06
1.98524e-05
-6.08942e-06
2.41394e-05
-8.56106e-06
2.94731e-05
-1.16965e-05
3.6154e-05
-1.56223e-05
4.45782e-05
-2.04852e-05
5.52971e-05
-2.64509e-05
6.90373e-05
8.67535e-05
-3.37159e-05
-5.37579e-07
1.13046e-05
-1.31017e-06
1.42712e-05
-2.30765e-06
1.73793e-05
-3.60329e-06
2.1148e-05
-5.27665e-06
2.58128e-05
-7.42354e-06
3.16199e-05
-1.01549e-05
3.88853e-05
-1.35955e-05
4.80187e-05
-1.78838e-05
5.95855e-05
-2.31949e-05
7.43483e-05
9.33042e-05
-2.97455e-05
-3.47894e-07
1.16525e-05
-9.34653e-07
1.48579e-05
-1.73845e-06
1.81831e-05
-2.8138e-06
2.22234e-05
-4.22111e-06
2.72201e-05
-6.04502e-06
3.34439e-05
-8.38206e-06
4.12224e-05
-1.1342e-05
5.09787e-05
-1.50498e-05
6.32932e-05
-1.96476e-05
7.89461e-05
9.89538e-05
-2.52973e-05
-2.84746e-07
1.19373e-05
-7.32625e-07
1.53058e-05
-1.34977e-06
1.88002e-05
-2.18427e-06
2.30579e-05
-3.29184e-06
2.83277e-05
-4.75032e-06
3.49023e-05
-6.63888e-06
4.31109e-05
-9.05293e-06
5.33928e-05
-1.20907e-05
6.6331e-05
-1.58804e-05
8.27358e-05
0.000103657
-2.05831e-05
-1.78609e-07
1.21159e-05
-4.52799e-07
1.558e-05
-8.52713e-07
1.92002e-05
-1.41464e-06
2.36198e-05
-2.1941e-06
2.91071e-05
-3.24637e-06
3.59546e-05
-4.64248e-06
4.4507e-05
-6.45025e-06
5.52005e-05
-8.7327e-06
6.86134e-05
-1.15869e-05
8.559e-05
0.000107209
-1.51396e-05
4.32848e-08
1.20726e-05
2.33986e-08
1.55999e-05
-9.59652e-08
1.93195e-05
-3.44043e-07
2.38679e-05
-7.455e-07
2.95086e-05
-1.35206e-06
3.65612e-05
-2.19786e-06
4.53528e-05
-3.31876e-06
5.63214e-05
-4.74757e-06
7.00422e-05
-6.52509e-06
8.73675e-05
0.000109364
-8.67996e-06
2.10298e-07
1.18623e-05
4.49164e-07
1.5361e-05
6.35493e-07
1.91332e-05
7.63279e-07
2.37401e-05
8.04783e-07
2.94671e-05
7.36621e-07
3.66293e-05
5.54177e-07
4.55353e-05
2.68199e-07
5.66074e-05
-1.05115e-07
7.04155e-05
-5.56382e-07
8.78188e-05
0.000109927
-1.11957e-06
4.14543e-07
1.14478e-05
9.58872e-07
1.48167e-05
1.50044e-06
1.85916e-05
2.04713e-06
2.31934e-05
2.5937e-06
2.89205e-05
3.15569e-06
3.60673e-05
3.77499e-06
4.4916e-05
4.51468e-06
5.58677e-05
5.44798e-06
6.94822e-05
6.63133e-06
8.66354e-05
0.000108483
8.0759e-06
6.60661e-07
1.07871e-05
1.55609e-06
1.39213e-05
2.5048e-06
1.76429e-05
3.53496e-06
2.21633e-05
4.6713e-06
2.77842e-05
5.9866e-06
3.4752e-05
7.58244e-06
4.33202e-05
9.58786e-06
5.38623e-05
1.213e-05
6.69401e-05
1.53451e-05
8.34203e-05
0.000104452
1.9376e-05
9.33255e-07
9.85384e-06
2.20024e-06
1.26543e-05
3.58888e-06
1.62543e-05
5.15003e-06
2.06021e-05
6.97043e-06
2.59637e-05
9.1935e-06
3.2529e-05
1.19963e-05
4.05174e-05
1.55635e-05
5.0295e-05
2.00664e-05
6.24373e-05
2.57145e-05
7.77722e-05
9.74078e-05
3.27586e-05
1.09226e-06
8.76159e-06
2.71371e-06
1.10329e-05
4.54101e-06
1.4427e-05
6.67458e-06
1.84685e-05
9.3009e-06
2.33374e-05
1.26401e-05
2.91897e-05
1.69154e-05
3.62421e-05
2.23314e-05
4.4879e-05
2.91135e-05
5.56552e-05
3.7556e-05
6.93297e-05
8.69665e-05
4.79974e-05
1.09865e-06
7.66293e-06
3.10474e-06
9.02676e-06
5.13673e-06
1.2395e-05
7.85106e-06
1.57542e-05
1.14298e-05
1.97587e-05
1.60925e-05
2.4527e-05
2.20365e-05
3.02981e-05
2.94834e-05
3.74321e-05
3.87347e-05
4.64038e-05
5.02037e-05
5.78607e-05
7.27737e-05
6.43964e-05
-2.71028e-06
1.03732e-05
-7.84098e-07
7.10058e-06
2.69576e-06
8.91514e-06
6.98607e-06
1.14639e-05
1.22653e-05
1.44794e-05
1.8753e-05
1.80394e-05
2.66044e-05
2.24468e-05
3.61452e-05
2.78912e-05
4.78331e-05
3.47159e-05
6.22369e-05
4.34569e-05
5.49158e-05
8.00948e-05
4.97117e-06
1.53112e-05
7.11648e-06
1.57632e-05
4.92847e-06
2.14068e-05
-1.13129e-07
2.63359e-05
-6.7872e-06
2.96436e-05
-1.43107e-05
3.23531e-05
-2.21425e-05
3.4576e-05
-3.05314e-05
3.70943e-05
-3.97657e-05
3.98045e-05
-5.00458e-05
4.2437e-05
4.47872e-05
-6.16118e-05
7.96402e-06
7.34718e-06
1.20262e-05
1.1701e-05
1.36179e-05
1.98151e-05
1.276e-05
2.71937e-05
8.76766e-06
3.3636e-05
1.96811e-06
3.91526e-05
-6.60589e-06
4.315e-05
-1.60192e-05
4.65076e-05
-2.63509e-05
5.01362e-05
-3.78749e-05
5.3961e-05
5.77743e-05
-5.0862e-05
6.0804e-06
1.26678e-06
9.42721e-06
8.35422e-06
1.26014e-05
1.6641e-05
1.42414e-05
2.55536e-05
1.32179e-05
3.46595e-05
9.20693e-06
4.31636e-05
2.42178e-06
4.99352e-05
-6.09773e-06
5.50272e-05
-1.56654e-05
5.97039e-05
-2.64303e-05
6.47258e-05
6.97992e-05
-3.84552e-05
4.02519e-06
-2.75841e-06
7.81312e-06
4.56629e-06
1.12876e-05
1.31664e-05
1.37428e-05
2.30985e-05
1.44298e-05
3.39724e-05
1.2726e-05
4.48675e-05
8.30022e-06
5.43609e-05
1.56856e-06
6.17588e-05
-6.58627e-06
6.78588e-05
-1.5812e-05
7.39515e-05
8.02607e-05
-2.62735e-05
2.17391e-06
-4.93232e-06
6.09825e-06
6.41955e-07
9.96736e-06
9.29733e-06
1.3031e-05
2.00349e-05
1.4768e-05
3.22354e-05
1.46491e-05
4.49863e-05
1.21999e-05
5.68102e-05
7.45924e-06
6.64994e-05
1.00049e-06
7.43175e-05
-6.53699e-06
8.1489e-05
8.87106e-05
-1.49869e-05
9.72216e-07
-5.90454e-06
4.21979e-06
-2.60562e-06
8.39094e-06
5.12619e-06
1.21295e-05
1.62964e-05
1.47772e-05
2.95877e-05
1.58651e-05
4.38985e-05
1.49642e-05
5.7711e-05
1.19531e-05
6.95106e-05
7.21962e-06
7.9051e-05
1.29972e-06
8.74089e-05
9.52462e-05
-5.23587e-06
8.13951e-07
-6.71849e-06
2.88241e-06
-4.67408e-06
6.86937e-06
1.13923e-06
1.10067e-05
1.2159e-05
1.43834e-05
2.6211e-05
1.6463e-05
4.18189e-05
1.68322e-05
5.73418e-05
1.53056e-05
7.10372e-05
1.21357e-05
8.22209e-05
7.77654e-06
9.17681e-05
0.000100569
2.4534e-06
7.82071e-07
-7.50056e-06
2.20128e-06
-6.09329e-06
5.45415e-06
-2.11364e-06
9.6447e-06
7.96849e-06
1.35052e-05
2.23505e-05
1.6347e-05
3.89771e-05
1.77662e-05
5.59226e-05
1.75628e-05
7.12407e-05
1.58807e-05
8.39029e-05
1.31874e-05
9.44614e-05
0.000103715
1.00417e-05
7.91266e-07
-8.29183e-06
2.01784e-06
-7.31986e-06
4.36169e-06
-4.45749e-06
8.24299e-06
4.08718e-06
1.23467e-05
1.82468e-05
1.57512e-05
3.55726e-05
1.80256e-05
5.36482e-05
1.8968e-05
7.02983e-05
1.86668e-05
8.42041e-05
1.74339e-05
9.56943e-05
0.000105541
1.56076e-05
7.5104e-07
-9.04287e-06
1.85229e-06
-8.42111e-06
3.5889e-06
-6.1941e-06
6.92154e-06
7.54542e-07
1.09938e-05
1.41745e-05
1.4771e-05
3.17955e-05
1.77271e-05
5.06921e-05
1.96785e-05
6.83469e-05
2.06698e-05
8.32128e-05
2.09917e-05
9.53724e-05
0.000105614
2.09187e-05
5.5309e-07
-9.59596e-06
1.54188e-06
-9.40991e-06
2.97116e-06
-7.62338e-06
5.71399e-06
-1.98828e-06
9.57584e-06
1.03126e-05
1.35527e-05
2.78186e-05
1.70462e-05
4.71985e-05
1.9872e-05
6.55211e-05
2.20785e-05
8.10063e-05
2.39098e-05
9.35411e-05
0.000103808
2.57161e-05
4.70662e-07
-1.00666e-05
1.25777e-06
-1.0197e-05
2.38801e-06
-8.75361e-06
4.51601e-06
-4.11629e-06
7.95467e-06
6.87397e-06
1.19256e-05
2.38477e-05
1.57997e-05
4.33244e-05
1.94232e-05
6.18976e-05
2.28157e-05
7.76138e-05
2.61599e-05
9.01968e-05
0.000100107
2.98611e-05
3.05137e-07
-1.03718e-05
8.42769e-07
-1.07346e-05
1.73186e-06
-9.6427e-06
3.32191e-06
-5.70634e-06
6.25775e-06
3.93812e-06
1.0076e-05
2.00294e-05
1.42094e-05
3.9191e-05
1.8545e-05
5.75621e-05
2.30786e-05
7.30802e-05
2.78544e-05
8.5421e-05
9.49583e-05
3.30029e-05
7.35471e-08
-1.04453e-05
3.29041e-07
-1.09901e-05
8.97114e-07
-1.02108e-05
2.07741e-06
-6.88663e-06
4.51853e-06
1.497e-06
8.10776e-06
1.64402e-05
1.23771e-05
3.49217e-05
1.73897e-05
5.25495e-05
2.30343e-05
6.74357e-05
2.93573e-05
7.9098e-05
8.79329e-05
3.63827e-05
-1.2476e-07
-1.03205e-05
-1.94675e-07
-1.09202e-05
-6.68087e-08
-1.03386e-05
6.08322e-07
-7.56176e-06
2.60066e-06
-4.95332e-07
5.88212e-06
1.31587e-05
1.04092e-05
3.03946e-05
1.5878e-05
4.70806e-05
2.26457e-05
6.0668e-05
3.05519e-05
7.11917e-05
7.89983e-05
3.94866e-05
-3.43502e-07
-9.97704e-06
-7.68353e-07
-1.04954e-05
-1.10738e-06
-9.99962e-06
-1.04973e-06
-7.6194e-06
2.4437e-07
-1.78943e-06
3.35433e-06
1.00488e-05
7.82173e-06
2.59272e-05
1.41043e-05
4.07981e-05
2.20319e-05
5.27404e-05
3.15439e-05
6.16797e-05
6.77403e-05
4.2802e-05
-6.18643e-07
-9.3584e-06
-1.42157e-06
-9.69245e-06
-2.21015e-06
-9.21103e-06
-2.73948e-06
-7.09007e-06
-2.30755e-06
-2.22137e-06
5.30069e-07
7.21114e-06
5.29303e-06
2.11642e-05
1.2113e-05
3.39782e-05
2.1178e-05
4.36753e-05
3.21842e-05
5.06735e-05
5.45483e-05
4.53762e-05
-9.35169e-07
-8.42323e-06
-2.15607e-06
-8.47155e-06
-3.44102e-06
-7.92609e-06
-4.53658e-06
-5.99451e-06
-4.78323e-06
-1.97472e-06
-2.67893e-06
5.10684e-06
2.46604e-06
1.60193e-05
9.90103e-06
2.65432e-05
1.99318e-05
3.36445e-05
3.21046e-05
3.85007e-05
4.08762e-05
4.57767e-05
-1.29678e-06
-7.12644e-06
-2.99389e-06
-6.77444e-06
-4.87287e-06
-6.04711e-06
-6.60791e-06
-4.25947e-06
-7.45526e-06
-1.12737e-06
-6.08552e-06
3.7371e-06
-9.41894e-07
1.08756e-05
7.2239e-06
1.83774e-05
1.80926e-05
2.27758e-05
3.13655e-05
2.52278e-05
2.53142e-05
4.69275e-05
-1.74781e-06
-5.37863e-06
-4.02594e-06
-4.49631e-06
-6.6229e-06
-3.45015e-06
-9.08063e-06
-1.80174e-06
-1.04771e-05
2.69083e-07
-9.56477e-06
2.82479e-06
-4.8322e-06
6.14308e-06
3.80251e-06
9.74267e-06
1.5163e-05
1.14153e-05
2.86952e-05
1.16956e-05
9.72787e-06
4.42815e-05
-2.6414e-06
-2.73723e-06
-5.91595e-06
-1.22177e-06
-9.35672e-06
-9.37502e-09
-1.22255e-05
1.06703e-06
-1.37102e-05
1.7538e-06
-1.28643e-05
1.97886e-06
-8.5476e-06
1.82639e-06
5.73464e-08
1.13772e-06
1.18435e-05
-3.70815e-07
2.58897e-05
-2.35067e-06
-7.158e-06
4.27756e-05
-4.56622e-06
1.82899e-06
-7.07282e-06
1.28483e-06
-8.91565e-06
1.83346e-06
-9.1316e-06
1.28298e-06
-6.949e-06
-4.28796e-07
-1.57873e-06
-3.39141e-06
6.987e-06
-6.73935e-06
1.7888e-05
-9.7633e-06
3.0723e-05
-1.32058e-05
4.61164e-05
-1.77441e-05
-2.41105e-05
6.30689e-05
1.68305e-07
1.66068e-06
2.14686e-06
-6.93726e-07
6.26425e-06
-2.28392e-06
1.25288e-05
-4.98153e-06
2.02306e-05
-8.13062e-06
2.842e-05
-1.15808e-05
3.71408e-05
-1.54601e-05
4.72147e-05
-1.98372e-05
5.9205e-05
-2.51961e-05
7.35103e-05
-3.20494e-05
-4.11778e-05
9.05777e-05
1.20339e-05
1.84407e-05
2.5072e-05
3.15543e-05
3.79031e-05
4.43617e-05
5.13483e-05
5.94023e-05
6.89221e-05
8.03297e-05
9.40677e-05
-6.61691e-06
1.9591e-05
-1.29741e-05
-1.22984e-05
1.7926e-05
-1.22445e-05
-2.01154e-05
2.10584e-05
-1.32413e-05
-2.79602e-05
2.24852e-05
-1.46405e-05
-3.59392e-05
2.46805e-05
-1.67015e-05
-4.42673e-05
2.77922e-05
-1.94641e-05
-5.33519e-05
3.21366e-05
-2.3052e-05
-6.36304e-05
3.79633e-05
-2.76848e-05
-7.55732e-05
4.56391e-05
-3.36963e-05
-8.97537e-05
5.57243e-05
-4.15438e-05
6.90561e-05
-5.18256e-05
-0.000106984
1.8504e-06
1.77406e-05
1.62032e-06
1.81561e-05
-2.81866e-06
2.54974e-05
-8.87827e-06
2.85448e-05
-1.65371e-05
3.23394e-05
-2.52159e-05
3.6471e-05
-3.4956e-05
4.18767e-05
-4.60246e-05
4.90318e-05
-5.88955e-05
5.851e-05
-7.41356e-05
7.09644e-05
8.73445e-05
-9.2424e-05
2.15172e-06
1.55889e-05
2.28823e-06
1.80196e-05
8.03973e-07
2.69816e-05
-2.20793e-06
3.15567e-05
-7.53845e-06
3.76699e-05
-1.45259e-05
4.34584e-05
-2.30429e-05
5.03938e-05
-3.30702e-05
5.90591e-05
-4.48472e-05
7.0287e-05
-5.88449e-05
8.49622e-05
0.00010422
-7.57208e-05
1.56675e-06
1.40221e-05
1.29512e-06
1.82912e-05
9.46665e-07
2.73301e-05
-5.39616e-07
3.3043e-05
-3.7831e-06
4.09134e-05
-8.52968e-06
4.8205e-05
-1.49646e-05
5.68287e-05
-2.29985e-05
6.7093e-05
-3.27386e-05
8.00271e-05
-4.44209e-05
9.66444e-05
0.000118269
-5.84696e-05
1.26056e-06
1.27616e-05
9.74297e-07
1.85775e-05
9.18087e-07
2.73863e-05
-2.75678e-08
3.39886e-05
-1.90102e-06
4.27869e-05
-4.88899e-06
5.1193e-05
-9.30232e-06
6.1242e-05
-1.51619e-05
7.29526e-05
-2.25556e-05
8.74208e-05
-3.16338e-05
0.000105723
0.000129294
-4.26586e-05
1.224e-06
1.15376e-05
1.3153e-06
1.84862e-05
1.56344e-06
2.71382e-05
9.53335e-07
3.45987e-05
-1.2046e-07
4.38607e-05
-1.99332e-06
5.30658e-05
-4.86608e-06
6.41147e-05
-8.86569e-06
7.69522e-05
-1.41251e-05
9.26802e-05
-2.07418e-05
0.000112339
0.000137376
-2.88234e-05
1.23437e-06
1.03032e-05
1.73764e-06
1.79829e-05
2.29909e-06
2.65767e-05
2.0876e-06
3.48102e-05
1.59112e-06
4.43571e-05
4.87939e-07
5.4169e-05
-1.26449e-06
6.58672e-05
-3.80965e-06
7.94974e-05
-7.2848e-06
9.61554e-05
-1.17915e-05
0.000116846
0.000143064
-1.748e-05
1.14726e-06
9.15594e-06
1.92972e-06
1.72004e-05
2.74301e-06
2.57634e-05
2.93557e-06
3.46177e-05
2.93758e-06
4.43551e-05
2.45628e-06
5.46503e-05
1.58857e-06
6.67349e-05
2.00459e-07
8.08855e-05
-1.77965e-06
9.81355e-05
-4.41794e-06
0.000119484
0.000146391
-7.74486e-06
1.09405e-06
8.0619e-06
2.15039e-06
1.61441e-05
3.20242e-06
2.47114e-05
3.78901e-06
3.40311e-05
4.21304e-06
4.39311e-05
4.27043e-06
5.45929e-05
4.10906e-06
6.68963e-05
3.64192e-06
8.13526e-05
2.86029e-06
9.89171e-05
1.73263e-06
0.000120612
0.000147854
2.69929e-07
1.24257e-06
6.81932e-06
2.6045e-06
1.47822e-05
3.94749e-06
2.33684e-05
4.94292e-06
3.30356e-05
5.75618e-06
4.31178e-05
6.28193e-06
5.40672e-05
6.68237e-06
6.64958e-05
6.93855e-06
8.10964e-05
7.08265e-06
9.8773e-05
7.13712e-06
0.000120558
0.000147907
7.08409e-06
1.30691e-06
5.51241e-06
2.88738e-06
1.32017e-05
4.50537e-06
2.17504e-05
5.9106e-06
3.16304e-05
7.12336e-06
4.19051e-05
8.10596e-06
5.30846e-05
9.02082e-06
6.5581e-05
9.91573e-06
8.02015e-05
1.0878e-05
9.78107e-05
1.19806e-05
0.000119455
0.000146518
1.33697e-05
1.19616e-06
4.31624e-06
2.84408e-06
1.15538e-05
4.6535e-06
1.9941e-05
6.40355e-06
2.98804e-05
8.00692e-06
4.03017e-05
9.46638e-06
5.16251e-05
1.0919e-05
6.41283e-05
1.24554e-05
7.86651e-05
1.42045e-05
9.60616e-05
1.6286e-05
0.000117373
0.000144014
1.87902e-05