/*--------------------------------*- C++ -*----------------------------------*\
| =========                 |                                                 |
| \\      /  F ield         | OpenFOAM: The Open Source CFD Toolbox           |
|  \\    /   O peration     | Version:  3.0.1                                 |
|   \\  /    A nd           | Web:      www.OpenFOAM.org                      |
|    \\/     M anipulation  |                                                 |
\*---------------------------------------------------------------------------*/
FoamFile
{
    version     2.0;
    format      ascii;
    class       volScalarField;
    location    "0.319982";
    object      nut;
}
// * * * * * * * * * * * * * * * * * * * * * * * * * * * * * * * * * * * * * //

dimensions      [0 2 -1 0 0 0 0];

internalField   nonuniform List<scalar> 
21246
(
4.58337e-05
0.000258112
0.000355695
0.000446683
0.00050546
0.000528807
0.000500348
0.000428155
0.000353874
0.000294269
0.00024577
3.60828e-05
0.000157479
0.000227973
0.000323658
0.000452046
0.000528484
0.000530684
0.000458467
0.000370656
0.000298767
0.000240976
3.28999e-05
0.000112278
0.000180811
0.000253871
0.000343882
0.00045578
0.000536534
0.000494236
0.000398119
0.000312122
0.000242742
3.16371e-05
9.10356e-05
0.000155586
0.000217164
0.000286911
0.000373596
0.000485195
0.000518909
0.00043351
0.000336167
0.000256543
3.01702e-05
8.26938e-05
0.000139465
0.000193444
0.000250865
0.000316489
0.000405841
0.00049312
0.000468564
0.000370393
0.000282671
2.78892e-05
7.98572e-05
0.000129011
0.000176563
0.00022477
0.000274811
0.000337698
0.000419897
0.0004663
0.000409868
0.000317982
2.50158e-05
7.97983e-05
0.000122909
0.000164715
0.000205645
0.000244737
0.000287859
0.000346387
0.000413667
0.000427289
0.000361245
2.2011e-05
8.34289e-05
0.000121903
0.000157841
0.00019252
0.000223956
0.000254306
0.000292221
0.000347421
0.000401648
0.000392001
2.07789e-05
9.47504e-05
0.000128754
0.000157298
0.000185311
0.000210479
0.000232481
0.000256493
0.000293527
0.000349655
0.000389922
2.19887e-05
0.000117143
0.00014709
0.000166216
0.000185553
0.000203788
0.000219214
0.000234096
0.000256685
0.000298635
0.000355425
2.22313e-05
0.000141451
0.000175813
0.000187853
0.000196348
0.000205367
0.000213768
0.000221743
0.000234272
0.000261357
0.000310721
2.11585e-05
0.000157739
0.000206284
0.000220144
0.000219644
0.000217434
0.000216924
0.000218036
0.000223058
0.000238708
0.000274048
1.94401e-05
0.000162608
0.000229104
0.000253719
0.000252693
0.000240775
0.000229758
0.000222794
0.000221019
0.000228105
0.000250867
1.76241e-05
0.000158352
0.000239777
0.000277201
0.000286569
0.000272363
0.000252112
0.000236215
0.00022743
0.000227573
0.000240592
1.59797e-05
0.00014838
0.00023764
0.000285544
0.000310536
0.000304578
0.000280738
0.000257259
0.000241736
0.000236004
0.000241747
1.46751e-05
0.000136447
0.000225776
0.000280581
0.000318562
0.00032823
0.000309309
0.000282679
0.000262347
0.000252209
0.000252587
1.36374e-05
0.000125357
0.000209342
0.000265675
0.000310839
0.00033676
0.000330436
0.000307307
0.000286202
0.000274185
0.000271119
1.26701e-05
0.000115785
0.000193775
0.000245682
0.000291552
0.000328791
0.000338659
0.000325434
0.000308911
0.000298475
0.000294255
1.16628e-05
0.000106957
0.000180634
0.000228492
0.00026821
0.000307701
0.000332578
0.000333027
0.000325974
0.000321105
0.000317703
1.05793e-05
9.7815e-05
0.000168159
0.0002151
0.000249532
0.000283151
0.00031513
0.000329529
0.000334236
0.000338279
0.000339063
9.31417e-06
8.70741e-05
0.000153227
0.000201529
0.000235083
0.000264334
0.000293516
0.000316147
0.000329846
0.000342027
0.000347688
7.86787e-06
7.17474e-05
0.000126694
0.00017435
0.000213232
0.000245883
0.000271588
0.000291876
0.00030613
0.000317858
0.000322169
6.61474e-06
5.19863e-05
7.91607e-05
0.000117569
0.000157045
0.000197266
0.000231274
0.000253625
0.000266386
0.000276509
0.000285155
7.20692e-06
1.12349e-05
1.44055e-05
2.20199e-05
3.81575e-05
6.9142e-05
0.000115893
0.00016553
0.000206312
0.000242931
0.000285899
4.07989e-05
0.000263914
0.000376738
0.000439853
0.000487174
0.000508452
0.000480677
0.000416368
0.000351153
0.000298514
0.00025577
2.57742e-05
0.000194719
0.00033297
0.000427329
0.000486931
0.000516156
0.000495539
0.000433345
0.000366351
0.000311938
0.0002684
2.40752e-05
0.000154751
0.000291555
0.000421066
0.00050154
0.000538728
0.000524303
0.000462614
0.000390783
0.000331965
0.000285571
2.54521e-05
0.000139892
0.000268623
0.000408541
0.000505629
0.000556897
0.000554708
0.000498499
0.000422393
0.000357175
0.000305947
2.76858e-05
0.000132789
0.000258211
0.000396015
0.000498144
0.000560992
0.000573096
0.000530473
0.000460891
0.000394649
0.000338291
2.98674e-05
0.0001289
0.000253111
0.000386691
0.000489262
0.000555972
0.000574466
0.000541018
0.000479478
0.000418105
0.000364488
3.18389e-05
0.000126502
0.000250119
0.000379085
0.000480089
0.00054797
0.000569956
0.000543319
0.000489644
0.00043447
0.000386041
3.36685e-05
0.000125241
0.000248649
0.000373639
0.000472544
0.000539996
0.000562816
0.000540027
0.000492207
0.000441458
0.00039521
3.51588e-05
0.000124533
0.000248016
0.00037024
0.000467629
0.000534184
0.000556286
0.000535129
0.000491451
0.000444604
0.000400956
3.62814e-05
0.000123927
0.00024785
0.00036847
0.000465615
0.000531694
0.000552991
0.000532553
0.000491548
0.000446796
0.000402197
3.69975e-05
0.000122712
0.000247267
0.000367449
0.000465907
0.000532836
0.000554673
0.000535677
0.000497173
0.000453616
0.000405575
3.74095e-05
0.000121041
0.000246058
0.000366773
0.000467616
0.000537094
0.00056176
0.000546388
0.000512108
0.000471313
0.0004206
3.74371e-05
0.000118462
0.000243554
0.000365191
0.000469117
0.000542822
0.000573023
0.00056425
0.000537135
0.000503103
0.000456108
3.70775e-05
0.000112898
0.000236734
0.000358908
0.000465789
0.000544821
0.000583513
0.000585131
0.00056852
0.000545226
0.000508364
3.62706e-05
0.000105898
0.000225816
0.000346723
0.000454814
0.000538475
0.000587152
0.000602459
0.00059911
0.000587717
0.000563488
3.49876e-05
9.73931e-05
0.000210559
0.000328213
0.000435889
0.00052327
0.000582052
0.000612198
0.000623403
0.000624151
0.000612161
3.32197e-05
8.7529e-05
0.000190964
0.000303015
0.000408477
0.000498183
0.000565762
0.000609869
0.000635486
0.000648194
0.000648166
3.09036e-05
7.67354e-05
0.000167918
0.000271601
0.000372588
0.000462495
0.000536285
0.000591796
0.000630348
0.000654362
0.000664857
2.80043e-05
6.5356e-05
0.000142417
0.000234891
0.000328721
0.000416075
0.000492687
0.000556023
0.000605033
0.000639393
0.000659522
2.4535e-05
5.36142e-05
0.000115515
0.000194216
0.000278027
0.00035976
0.000435552
0.000502842
0.000559458
0.000603148
0.0006326
2.05305e-05
4.17527e-05
8.83563e-05
0.000151376
0.000222392
0.000295363
0.000366813
0.000434453
0.000495966
0.000548255
0.000587493
1.60779e-05
3.01226e-05
6.21434e-05
0.000108322
0.00016396
0.000224871
0.000288386
0.000352846
0.00041659
0.000476835
0.000527905
1.1327e-05
1.87783e-05
3.73874e-05
6.63272e-05
0.000104221
0.00014934
0.000200474
0.000257327
0.000319737
0.000386667
0.000452292
6.63673e-06
1.08198e-05
2.07115e-05
3.57684e-05
5.6827e-05
8.43579e-05
0.000118463
0.000159918
0.000211957
0.000278011
0.000355088
3.97607e-05
0.00025529
0.000380548
0.000444306
0.000469772
0.000482545
0.000497587
0.000512036
0.000515047
0.000497234
0.000456246
2.82546e-05
0.000220284
0.000373287
0.000452982
0.000482253
0.000490084
0.000494914
0.000500185
0.000498965
0.000481513
0.000442094
2.3623e-05
0.000194888
0.000351045
0.000447385
0.000487979
0.00049846
0.000500386
0.000501323
0.000497481
0.000480879
0.00044365
2.25051e-05
0.000182859
0.000335152
0.00043962
0.000490097
0.000505385
0.000508037
0.000508852
0.000505343
0.000489167
0.000451302
2.2313e-05
0.000168739
0.000320811
0.000433379
0.00049301
0.000512633
0.000513587
0.000509261
0.000499042
0.000477618
0.000440863
2.26715e-05
0.00016021
0.000304255
0.000417288
0.000484699
0.000512241
0.000516966
0.000514463
0.000507869
0.000491911
0.000459283
2.33322e-05
0.000156293
0.000294723
0.000402728
0.000469713
0.000501605
0.000512575
0.000515358
0.000512126
0.000497463
0.000463618
2.42079e-05
0.000153406
0.000287542
0.000390918
0.000456518
0.000490506
0.000505709
0.000513139
0.000514439
0.000504921
0.000477031
2.50193e-05
0.000150873
0.000281349
0.000380702
0.000444373
0.000479292
0.00049772
0.000509494
0.000515308
0.000509253
0.0004813
2.56211e-05
0.000147636
0.000275039
0.000371416
0.000433616
0.000469244
0.000490263
0.000505554
0.000514532
0.000509367
0.00047844
2.61157e-05
0.00014409
0.000268808
0.000363021
0.000424337
0.000460761
0.000483972
0.000502031
0.00051337
0.000510019
0.00048405
2.65526e-05
0.000141017
0.000263391
0.000355828
0.000416573
0.000453875
0.000479081
0.000499533
0.000512968
0.000511226
0.000485877
2.67976e-05
0.000137792
0.000258258
0.000349488
0.000410163
0.00044862
0.000475854
0.000498621
0.000514052
0.000513175
0.000485348
2.68295e-05
0.000133713
0.000252577
0.000343424
0.0004048
0.000444907
0.00047436
0.000499442
0.000516738
0.000516813
0.000490762
2.6657e-05
0.000129495
0.000246903
0.000337778
0.000400357
0.000442528
0.000474422
0.000501866
0.000520895
0.000521256
0.000492177
2.62387e-05
0.000124729
0.000240806
0.000332192
0.000396592
0.000441354
0.000475994
0.000505911
0.000526649
0.000527135
0.00049617
2.55851e-05
0.000118685
0.000233341
0.000325927
0.000393025
0.00044112
0.000478948
0.000511534
0.000534083
0.000534768
0.000502394
2.45878e-05
0.000111331
0.000224288
0.000318462
0.000389014
0.000441203
0.000482735
0.00051832
0.000543103
0.000544417
0.000508979
2.32488e-05
0.000101451
0.000210922
0.000306803
0.000381508
0.000438641
0.000484824
0.000524502
0.000552334
0.000555778
0.000520114
2.153e-05
8.88946e-05
0.000192597
0.000289558
0.00036821
0.000429267
0.000477291
0.000516757
0.000544712
0.000549707
0.000518515
1.93702e-05
7.37221e-05
0.000168401
0.000265251
0.000347503
0.000411756
0.000459522
0.000494231
0.000515747
0.000516992
0.000491025
1.67511e-05
5.68024e-05
0.000140322
0.000233849
0.00031823
0.0003848
0.000431425
0.000459765
0.000471442
0.000464423
0.000438277
1.34835e-05
4.38417e-05
0.000111754
0.000197691
0.000279834
0.000345705
0.000390455
0.00041403
0.000418339
0.000404592
0.000376007
9.89291e-06
4.35085e-05
9.83143e-05
0.00016191
0.000221562
0.000273746
0.000312256
0.000334066
0.00033893
0.000327982
0.000304887
3.53399e-05
0.000128757
0.000206168
0.000280305
0.000345911
0.000414769
0.000487492
0.000538398
0.000559407
0.000538271
0.000492584
2.35644e-05
6.75562e-05
0.000121423
0.000174618
0.000223725
0.000263092
0.000299628
0.000383233
0.000551666
0.000593861
0.000542694
1.72464e-05
5.55738e-05
9.04584e-05
0.000128217
0.00016587
0.000197172
0.000220083
0.000249929
0.000342141
0.000579728
0.000604645
1.87453e-05
7.56691e-05
9.69731e-05
0.000116269
0.000139821
0.000162775
0.000179988
0.00019365
0.000225487
0.000338734
0.000600354
2.20827e-05
0.000110805
0.000161023
0.000152365
0.000148713
0.000153523
0.000160668
0.000166113
0.000176068
0.000218135
0.000364118
2.51558e-05
0.000126938
0.000242372
0.000255018
0.000213494
0.000181459
0.000164711
0.000156515
0.000153946
0.000166745
0.000231301
2.81074e-05
0.00013315
0.000285205
0.000386
0.000348591
0.000270112
0.000207528
0.000169858
0.000149693
0.000144896
0.000170967
3.10709e-05
0.00013785
0.000305274
0.000451862
0.000506764
0.000420134
0.000303923
0.000216922
0.00016564
0.000141029
0.000143891
3.38148e-05
0.000143426
0.000318227
0.000487173
0.000599653
0.000578336
0.000446283
0.000304241
0.000206718
0.000153515
0.000135639
3.62434e-05
0.000150309
0.000327084
0.000500511
0.000637344
0.000700235
0.000600806
0.000423251
0.000273095
0.000182123
0.000140622
3.82847e-05
0.000159817
0.000334769
0.000500056
0.000637949
0.000735709
0.000711638
0.000543786
0.000353884
0.000222993
0.00015544
4.0043e-05
0.000168591
0.000340185
0.000489926
0.000614122
0.000720577
0.000761139
0.000634723
0.000429158
0.00026675
0.000175331
4.14295e-05
0.0001793
0.000345686
0.000475653
0.000577163
0.000674051
0.000745844
0.000676981
0.000479096
0.000301303
0.000194092
4.24582e-05
0.000189066
0.000348472
0.000458982
0.000534183
0.000609701
0.000687835
0.000673072
0.000494192
0.000317663
0.000206967
4.30682e-05
0.000196136
0.000347899
0.000440968
0.000491741
0.000539057
0.000597592
0.000626711
0.000473886
0.000312537
0.000211865
4.31629e-05
0.000202549
0.000345835
0.000422513
0.00045141
0.000472397
0.00050069
0.000512482
0.000442337
0.00029546
0.000211216
4.27451e-05
0.000208957
0.000344187
0.000406312
0.000416856
0.00041572
0.000419605
0.000416891
0.000384326
0.000288013
0.000213212
4.17213e-05
0.0002163
0.000345718
0.000396525
0.000394941
0.000381325
0.000373861
0.000366082
0.000345159
0.000290699
0.000230034
4.00611e-05
0.000226289
0.000354163
0.000397507
0.000390226
0.000374192
0.00036801
0.000366306
0.000357302
0.000328274
0.000284431
3.77047e-05
0.000243028
0.000375528
0.000411298
0.000394317
0.0003714
0.000360507
0.00035702
0.000356605
0.000347347
0.000307765
3.33272e-05
0.000234971
0.00035069
0.000373913
0.000346102
0.000305772
0.000260237
0.000238542
0.000226997
0.000214448
0.000182746
2.6515e-05
0.000201055
0.000295092
0.000315011
0.00026201
0.000173404
0.000139214
0.000121612
0.000111519
0.000104051
9.53559e-05
1.65982e-05
9.20424e-05
0.000115894
0.000103038
8.30846e-05
7.3211e-05
7.16335e-05
7.49083e-05
8.0278e-05
8.50808e-05
8.69988e-05
7.69677e-06
9.93403e-06
1.50317e-05
2.32784e-05
3.6357e-05
5.5105e-05
7.8216e-05
0.000102137
0.000122357
0.000135286
0.000139695
2.50724e-05
5.80282e-05
5.38703e-05
5.3284e-05
4.93548e-05
4.36614e-05
4.05604e-05
3.95708e-05
3.98553e-05
4.11309e-05
4.3592e-05
2.21782e-05
6.1659e-05
4.99767e-05
5.54987e-05
5.14044e-05
4.53461e-05
4.15533e-05
4.0285e-05
4.07111e-05
4.24811e-05
4.57602e-05
2.30856e-05
6.28667e-05
4.63731e-05
5.75898e-05
5.2374e-05
4.66573e-05
4.23525e-05
4.08823e-05
4.14327e-05
4.38269e-05
4.86312e-05
2.57716e-05
5.86818e-05
4.48715e-05
5.78705e-05
5.20239e-05
4.73841e-05
4.27172e-05
4.11645e-05
4.1822e-05
4.47951e-05
5.10665e-05
2.88595e-05
5.43649e-05
4.39027e-05
5.62513e-05
5.13213e-05
4.75937e-05
4.25939e-05
4.10714e-05
4.17959e-05
4.51448e-05
5.22793e-05
3.16476e-05
5.12463e-05
4.29617e-05
5.41214e-05
5.06699e-05
4.73042e-05
4.20956e-05
4.06733e-05
4.13468e-05
4.48401e-05
5.22664e-05
3.41321e-05
4.94281e-05
4.20789e-05
5.22161e-05
5.0126e-05
4.66861e-05
4.14236e-05
4.00412e-05
4.05559e-05
4.404e-05
5.16994e-05
3.63456e-05
4.90299e-05
4.13293e-05
5.06713e-05
4.96942e-05
4.59021e-05
4.07131e-05
3.92158e-05
3.95347e-05
4.28166e-05
5.00559e-05
3.80728e-05
4.95288e-05
4.03468e-05
4.94019e-05
4.9379e-05
4.51198e-05
4.00383e-05
3.82719e-05
3.83851e-05
4.1298e-05
4.80149e-05
3.91908e-05
5.01943e-05
3.85665e-05
4.65045e-05
4.84277e-05
4.44392e-05
3.94608e-05
3.73072e-05
3.71609e-05
3.95805e-05
4.55921e-05
3.9828e-05
5.13553e-05
3.72638e-05
4.23549e-05
4.5536e-05
4.33376e-05
3.89144e-05
3.63835e-05
3.59083e-05
3.77537e-05
4.28709e-05
3.99645e-05
5.33172e-05
3.70648e-05
3.85134e-05
4.13747e-05
4.13372e-05
3.81597e-05
3.54923e-05
3.47022e-05
3.59191e-05
4.00044e-05
3.95015e-05
5.58482e-05
3.78796e-05
3.54155e-05
3.6564e-05
3.79442e-05
3.67537e-05
3.45265e-05
3.35482e-05
3.41844e-05
3.72597e-05
3.85088e-05
5.87273e-05
3.98349e-05
3.34471e-05
3.19915e-05
3.31652e-05
3.39641e-05
3.30765e-05
3.23298e-05
3.25513e-05
3.47072e-05
3.69504e-05
6.23523e-05
4.30278e-05
3.31605e-05
2.89448e-05
2.8476e-05
2.97838e-05
3.05062e-05
3.06768e-05
3.08987e-05
3.2353e-05
3.48962e-05
6.66321e-05
4.75748e-05
3.45718e-05
2.76398e-05
2.49764e-05
2.52e-05
2.65294e-05
2.79223e-05
2.88114e-05
3.00279e-05
3.25008e-05
7.12558e-05
5.37491e-05
3.79569e-05
2.82502e-05
2.32285e-05
2.1547e-05
2.19783e-05
2.36994e-05
2.55377e-05
2.72019e-05
2.97521e-05
7.65228e-05
6.18365e-05
4.37497e-05
3.11433e-05
2.36333e-05
1.98155e-05
1.84982e-05
1.9103e-05
2.08856e-05
2.30908e-05
2.68686e-05
8.23505e-05
7.22611e-05
5.27061e-05
3.7003e-05
2.66594e-05
2.04888e-05
1.71571e-05
1.59394e-05
1.63353e-05
1.79153e-05
2.40606e-05
8.84158e-05
8.53852e-05
6.60167e-05
4.72305e-05
3.34739e-05
2.44019e-05
1.86982e-05
1.54093e-05
1.3898e-05
1.37842e-05
2.13088e-05
9.3506e-05
0.000100754
8.51012e-05
6.43213e-05
4.66709e-05
3.37466e-05
2.47871e-05
1.88142e-05
1.50205e-05
1.28482e-05
1.8345e-05
9.61841e-05
0.000116078
0.000109998
9.13759e-05
7.10126e-05
5.35505e-05
3.99409e-05
2.98392e-05
2.25717e-05
1.74894e-05
1.42283e-05
8.82855e-05
0.000121752
0.000131147
0.00012383
0.00010794
8.94793e-05
7.19112e-05
5.66979e-05
4.42493e-05
3.43687e-05
1.063e-05
8.05486e-05
0.000106025
0.000120162
0.000124794
0.000122435
0.000114898
0.000104054
9.15542e-05
7.87343e-05
6.63488e-05
2.15442e-05
5.8071e-05
5.35898e-05
5.28203e-05
4.86262e-05
4.28141e-05
3.98589e-05
3.88602e-05
3.88707e-05
3.95075e-05
4.07044e-05
1.7656e-05
5.00408e-05
4.90311e-05
5.49886e-05
5.02031e-05
4.4094e-05
4.04731e-05
3.89889e-05
3.86621e-05
3.89953e-05
3.97904e-05
1.86703e-05
4.79499e-05
4.37297e-05
5.65678e-05
5.17839e-05
4.56093e-05
4.175e-05
4.00866e-05
3.96098e-05
3.97083e-05
4.01439e-05
2.15252e-05
4.35875e-05
4.14508e-05
5.73004e-05
5.2628e-05
4.70081e-05
4.34608e-05
4.22702e-05
4.23408e-05
4.3023e-05
4.39781e-05
2.49134e-05
3.89411e-05
4.06986e-05
5.67772e-05
5.28557e-05
4.81408e-05
4.50635e-05
4.44258e-05
4.51684e-05
4.66887e-05
4.862e-05
2.81813e-05
3.54473e-05
4.03182e-05
5.56218e-05
5.28768e-05
4.90369e-05
4.6427e-05
4.63402e-05
4.77959e-05
5.03609e-05
5.38191e-05
3.12221e-05
3.30446e-05
3.99589e-05
5.44198e-05
5.28545e-05
4.9742e-05
4.75079e-05
4.78937e-05
4.98983e-05
5.3263e-05
5.78543e-05
3.40506e-05
3.13505e-05
3.95736e-05
5.33779e-05
5.27902e-05
5.02332e-05
4.83402e-05
4.90919e-05
5.15249e-05
5.56652e-05
6.18597e-05
3.65102e-05
3.01189e-05
3.91588e-05
5.25263e-05
5.27642e-05
5.05062e-05
4.89522e-05
4.99249e-05
5.26327e-05
5.73229e-05
6.47015e-05
3.86064e-05
2.92174e-05
3.87606e-05
5.18585e-05
5.28154e-05
5.06332e-05
4.93491e-05
5.03992e-05
5.32076e-05
5.81389e-05
6.60892e-05
4.03472e-05
2.86005e-05
3.83627e-05
5.13455e-05
5.29052e-05
5.06962e-05
4.95557e-05
5.05539e-05
5.33017e-05
5.81752e-05
6.59168e-05
4.17801e-05
2.81533e-05
3.79413e-05
5.0922e-05
5.30249e-05
5.07205e-05
4.96238e-05
5.04626e-05
5.3033e-05
5.76815e-05
6.50746e-05
4.2703e-05
2.74918e-05
3.68602e-05
5.0093e-05
5.30462e-05
5.07138e-05
4.96312e-05
5.02256e-05
5.25574e-05
5.69113e-05
6.39564e-05
4.31142e-05
2.6471e-05
3.39522e-05
4.77807e-05
5.24447e-05
5.06159e-05
4.96323e-05
4.99665e-05
5.20558e-05
5.61388e-05
6.29547e-05
4.29541e-05
2.55155e-05
3.03481e-05
4.39576e-05
5.08855e-05
5.0261e-05
4.95878e-05
4.97299e-05
5.15856e-05
5.54273e-05
6.20807e-05
4.21838e-05
2.46668e-05
2.66204e-05
3.85994e-05
4.77459e-05
4.92179e-05
4.9326e-05
4.94959e-05
5.11676e-05
5.47913e-05
6.12781e-05
4.07899e-05
2.39518e-05
2.32516e-05
3.22435e-05
4.23817e-05
4.66129e-05
4.83154e-05
4.90339e-05
5.07155e-05
5.41754e-05
6.04403e-05
3.86809e-05
2.33665e-05
2.06262e-05
2.61008e-05
3.50568e-05
4.14106e-05
4.53905e-05
4.75509e-05
4.97791e-05
5.33007e-05
5.92984e-05
3.58008e-05
2.27902e-05
1.87879e-05
2.11146e-05
2.72435e-05
3.35636e-05
3.91223e-05
4.32884e-05
4.69086e-05
5.10991e-05
5.70856e-05
3.2109e-05
2.20137e-05
1.75788e-05
1.75959e-05
2.06494e-05
2.49435e-05
2.98206e-05
3.46791e-05
3.95237e-05
4.47876e-05
5.12304e-05
2.75538e-05
2.07276e-05
1.67078e-05
1.53856e-05
1.61033e-05
1.79692e-05
2.06323e-05
2.38817e-05
2.77246e-05
3.23552e-05
3.81182e-05
2.21401e-05
1.851e-05
1.56683e-05
1.39852e-05
1.34063e-05
1.35718e-05
1.42832e-05
1.54455e-05
1.70709e-05
1.92662e-05
2.22058e-05
1.59366e-05
1.48184e-05
1.35882e-05
1.24288e-05
1.16002e-05
1.10845e-05
1.08309e-05
1.08051e-05
1.1002e-05
1.14475e-05
1.23837e-05
8.25041e-06
1.3285e-05
1.39372e-05
1.54115e-05
1.77823e-05
2.09994e-05
2.5012e-05
2.95388e-05
3.42264e-05
3.87462e-05
4.24907e-05
1.28084e-05
8.89283e-06
6.81901e-06
6.66867e-06
7.29315e-06
9.99479e-06
1.38255e-05
1.57534e-05
1.69387e-05
3.33709e-05
2.66776e-05
2.46438e-05
2.55858e-05
2.56624e-05
3.30511e-05
4.4251e-05
6.50578e-05
9.16687e-05
6.58304e-05
4.88489e-05
4.15001e-05
4.02245e-05
4.17754e-05
6.03721e-05
8.99912e-05
0.000132608
0.000180493
9.84475e-05
7.34556e-05
6.02666e-05
5.51373e-05
5.93819e-05
8.79801e-05
0.000133778
0.000194259
0.000255646
1.5008e-05
1.60926e-05
1.66804e-05
1.69988e-05
1.70506e-05
1.72158e-05
1.76393e-05
1.7812e-05
1.76849e-05
4.7875e-05
6.92093e-05
9.3429e-05
0.000109096
0.000121447
0.000135033
0.000142959
0.000131501
0.00011685
9.74902e-05
0.000139147
0.000178698
0.00020398
0.000219885
0.000235579
0.000249062
0.000235289
0.000215943
0.000143146
0.000199051
0.000244733
0.000271415
0.0002825
0.000293476
0.000311619
0.000303674
0.00029373
0.000195763
0.000229728
0.000229785
0.000282453
0.000384046
0.00022915
9.39893e-05
0.000229742
0.00022918
0.000233957
0.000370084
0.000229766
0.000161965
0.000213961
0.000123878
0.000228738
0.000215237
0.000281935
0.000228744
0.000228639
0.000229389
3.21243e-05
0.000229957
0.000121804
0.000229286
0.000214793
0.000166456
9.29978e-05
0.000328817
0.000473195
0.00021518
0.000235597
0.000165203
0.000229494
0.000241066
0.000229674
0.0001171
0.000229275
0.000142477
0.000229047
2.04978e-05
0.000229533
0.000123407
0.000229939
0.000477544
4.69008e-05
7.10871e-05
8.32787e-05
0.000239657
0.000229932
0.000449762
0.000229057
0.000203414
0.000124852
0.000229751
0.000229196
3.28459e-05
0.00022905
0.000350486
0.000189786
3.29591e-05
0.000181814
0.000487749
0.000360482
2.89786e-05
0.000228652
0.000352228
0.000232948
0.000229719
0.000233477
0.000183676
0.000233407
0.000111223
0.000241745
0.000378214
0.000231538
1.89507e-05
0.000229742
0.000145887
0.000384782
0.000134598
0.000309857
0.000229268
0.000229806
0.000247675
0.000115505
0.000439042
0.00014374
5.18515e-05
0.000108144
0.0002295
0.000229075
2.42597e-05
0.000234655
0.000392389
0.000132708
0.000339718
0.00023606
4.69025e-05
0.000235526
0.000251959
9.44375e-05
0.000230134
0.000235879
7.50484e-05
0.000229597
0.00019092
0.000229875
0.000194006
0.000234572
0.000229468
0.000229586
0.000231161
0.000168332
0.000135081
0.000228995
0.000229064
0.000228971
0.000229543
0.000229145
0.000134497
0.000240052
0.000246951
0.000212176
4.67962e-05
0.00020556
0.000187328
0.000182538
0.000218069
0.00021276
0.000229224
0.000194842
8.43865e-05
0.000231988
0.00022976
0.000233981
1.98106e-05
0.000209177
0.000470281
0.000244506
0.000119444
0.000230869
0.000285662
0.000167778
0.000229089
4.64681e-05
0.000123724
0.000232246
0.000235294
0.000229375
0.000229724
0.000229202
4.12375e-05
0.000239286
0.000232488
7.76431e-05
0.000125395
2.83906e-05
0.000165781
0.000228928
0.000214815
3.96806e-05
0.000232858
0.000229037
0.000384144
0.000154819
7.96767e-05
0.000236343
0.000233454
2.94847e-05
0.000196515
0.000160889
0.000227274
0.000229345
0.000234862
0.000219853
0.000161521
3.78293e-05
0.00047964
0.000199154
0.000231707
2.56497e-05
0.00022995
0.000119028
0.000229546
0.000312071
0.000230048
0.000228966
0.000229697
0.00018167
0.000198857
0.000216395
0.000228611
2.08058e-05
0.000229755
0.000229042
0.000229553
4.54274e-05
0.000210727
0.000230001
4.0301e-05
0.00023031
0.000197277
0.000208469
0.000229817
0.000139486
0.000234088
0.000217968
0.000229592
0.000228737
0.000109361
0.000228948
0.000174713
0.00023882
0.00022934
0.000260825
0.00022942
6.30192e-05
0.000230182
0.000136368
0.000113685
0.000144909
0.000347074
0.000134506
0.000209987
0.000229063
9.90145e-05
0.00016887
0.000203201
0.000399073
3.08591e-05
0.000228569
0.000229841
0.0002401
4.03852e-05
0.000327642
0.000197427
0.000229899
0.000229753
0.00022972
6.38562e-05
0.000535285
0.000235972
2.065e-05
0.000242533
3.73346e-05
0.00022942
0.000199842
0.000170277
0.000180783
0.000200826
0.000108934
0.000239803
0.000228859
0.000233275
0.000229408
0.000229141
0.00022923
6.53358e-05
0.000230144
0.000128854
0.000198364
0.000228219
0.000229687
0.000229448
7.77006e-05
0.00023119
0.000248325
0.00015927
0.000177656
0.000181634
0.000229497
0.000230335
7.23182e-05
0.000229204
0.000228955
0.000212064
0.000229267
0.000238121
6.15083e-05
0.00023483
0.000229778
0.000134721
0.000174858
0.000232924
0.00022916
0.000492042
0.000229813
0.00023782
0.000109959
0.000229844
0.000109646
0.000236568
0.000115521
0.000230018
0.000229488
0.000233327
0.000229684
0.000240545
0.00021084
0.000229271
9.60104e-05
0.000242754
0.000477736
0.000229107
0.000234896
0.000229757
0.000120945
2.67585e-05
0.000229098
5.6811e-05
0.000229616
0.000233602
0.000171186
2.19385e-05
0.000231512
0.000208151
0.000121942
0.000228711
0.000238152
0.000229743
0.000120217
0.000228899
0.00018698
0.000255274
0.000233473
0.000229167
0.000223086
0.000228267
0.000295461
0.000237938
0.000483326
1.78808e-05
0.000229886
0.000140603
0.000223067
0.000126057
0.000229729
0.000229337
0.000238522
5.59358e-05
0.000108451
0.000230497
0.00013655
0.000165721
0.000120935
0.000164812
0.00022895
0.000115005
0.000203817
6.167e-05
0.000236236
0.000177727
0.000229123
0.000109154
0.000230037
0.000109095
0.00020654
0.000229938
0.000278885
0.000134998
0.000213621
0.000229443
0.000229334
0.000229684
6.55982e-05
0.000169772
7.57547e-05
7.69096e-05
0.000247909
0.000229252
0.000120154
0.000195885
0.000211249
0.000115583
0.000229835
0.00015152
0.000240811
0.000229178
0.000229359
0.000125294
0.00022907
4.46018e-05
0.000229061
0.000216656
0.000292469
0.000102374
0.000208374
0.000530958
4.8785e-05
0.000229233
5.13503e-05
0.000197861
0.000244636
0.000282898
2.77047e-05
0.000229285
0.000229306
0.000229811
0.000117053
6.5748e-05
0.000228951
0.000229935
0.000108499
0.000157114
1.8898e-05
0.000105089
0.00015626
0.000230273
0.000120854
0.000236101
0.000228725
0.000204147
0.000207382
4.22527e-05
0.00023356
0.000198968
0.000246031
0.000193948
5.43342e-05
0.000270206
0.000156488
9.81768e-05
0.000192183
0.000226831
0.000233938
0.000240524
7.59832e-05
0.000230686
3.47864e-05
0.000229285
4.52167e-05
0.000208638
0.000228607
0.000243803
8.45329e-05
0.000198324
0.000430708
0.000212352
0.000230034
0.000235678
0.00041242
0.000347082
9.90606e-05
0.000232609
7.68983e-05
0.000186752
2.73198e-05
0.00022899
3.0622e-05
0.000229269
0.000229757
0.000229399
5.23376e-05
0.000104366
7.9542e-05
0.000197271
3.63636e-05
8.36912e-05
0.000229692
0.000229002
0.000190484
0.000190972
0.00023332
0.000236125
4.10754e-05
4.52738e-05
2.96836e-05
2.93526e-05
0.000237122
0.000211244
6.24853e-05
0.000229412
3.21696e-05
0.000234213
0.000229795
0.000229392
8.05679e-05
2.98683e-05
0.000229898
0.000229086
0.000229403
0.000449785
2.25015e-05
0.000229897
5.31716e-05
0.000356702
0.000156466
7.76801e-05
0.000228844
3.93442e-05
0.000229069
0.000234298
0.000229047
0.000213591
0.000147517
0.000228646
0.000187617
0.00016824
0.000245608
0.000227839
0.000223133
0.000229667
0.000229443
0.0002385
7.63571e-05
8.66395e-05
0.000238506
9.72002e-05
0.000229771
0.000220949
0.000107114
4.54763e-05
0.000162091
0.000251545
0.000238518
0.000101762
0.000187863
0.000229152
0.000181469
0.000228813
0.000229771
0.000229219
0.000229762
0.000232427
0.000123273
0.000229631
0.000228875
0.000125268
0.000229238
4.80057e-05
0.000244793
0.000125266
0.000170992
5.44111e-05
0.000230018
0.000229287
0.000229834
2.12959e-05
3.01266e-05
0.000229357
0.000229234
0.000212728
0.000229765
0.000301925
0.000229736
0.000290342
0.000236752
3.16208e-05
0.000130422
0.000136796
5.05622e-05
0.00023135
0.000229143
0.000231278
0.000235077
0.000229837
8.51214e-05
2.56204e-05
0.000223894
0.000211378
0.000196796
0.000126086
0.000229303
0.000230308
0.000229689
0.000192349
0.000212985
8.6608e-05
0.000229631
0.000229058
0.000171243
0.000231638
0.000137222
0.000218276
0.000144611
0.000263267
0.000229119
9.1481e-05
0.000229256
0.000100142
0.00022963
0.000372117
0.000156615
0.00023454
2.33057e-05
0.000141467
0.00022986
0.000229984
0.000414888
0.000228985
0.000180083
0.000369234
0.000109563
0.00021499
5.61727e-05
0.000199427
0.000231333
0.000229201
0.000229493
0.000121843
8.19912e-05
0.000115413
0.000228634
0.000229338
9.14222e-05
0.000230149
0.000237519
0.000234249
0.000233469
0.000155865
7.72275e-05
0.00010926
0.000159666
0.000233151
0.00023028
0.000228829
0.00010399
0.000231469
0.000229325
0.000160733
0.00011153
0.000228918
0.000229008
2.02933e-05
0.000230258
0.000228965
0.000147514
0.000229721
0.000232834
0.000152585
0.000120574
0.000157271
0.000218017
0.000166556
7.03531e-05
0.000115378
6.65993e-05
0.000103449
0.000172294
6.37631e-05
0.000118789
0.000128317
0.000229777
0.000229908
0.000247409
0.000229616
0.00022944
0.000237798
0.000208464
0.000118674
0.000178669
0.000187049
0.00022293
0.000229074
0.000199133
0.000229499
0.000229245
0.000236448
0.000118019
0.000231595
0.000241115
0.000230693
0.000229812
0.000460791
6.30341e-05
0.000377434
0.000231804
0.000230721
0.000189683
9.82659e-05
0.000236778
0.000194021
0.000231408
0.000417375
0.000128621
0.000229101
8.27791e-05
0.000229947
0.000168476
0.000421276
0.000152084
0.000135533
0.000213027
0.000246219
0.000229833
0.00010352
0.000190764
4.94159e-05
0.000176008
0.000228932
0.000233362
0.000229823
0.00015922
0.000229694
6.36663e-05
0.000229637
0.000229074
0.000229134
0.000165655
8.77598e-05
0.000229548
0.000135167
0.000229277
0.000174066
0.000165439
0.000230851
0.000385659
2.06745e-05
0.000114459
0.000236511
0.00021602
0.000187884
0.00010747
0.000180636
9.39578e-05
0.000229223
0.000192397
0.000229425
0.000237019
5.16945e-05
0.000241991
3.81425e-05
0.000214244
0.000231304
0.00023301
0.000229176
7.12018e-05
0.000229673
0.000252699
9.65142e-05
0.00028938
0.00023298
0.00013789
0.000144311
0.000222904
0.000239899
0.000178039
2.94958e-05
0.000102507
0.00022956
0.000213298
0.000195763
0.000229514
5.18605e-05
0.000124675
0.000243591
0.000409997
0.000229042
0.000233941
0.000234996
0.000136421
0.000235509
0.000207908
0.000229629
0.00016753
0.000233986
0.000120267
7.61227e-05
0.000109114
0.000192257
0.000228959
0.000185422
5.81598e-05
0.000229132
0.000217186
0.000186835
8.37492e-05
0.000239416
2.87275e-05
0.000236379
0.000135302
0.000129948
0.000251706
0.000229205
0.000247674
0.000229037
0.000205726
2.0381e-05
0.000230056
0.000229485
0.000251629
0.000357732
0.000116629
0.000199505
0.000229795
0.000190625
0.000238562
0.000229572
0.000229654
0.000229789
0.000229371
0.000241855
0.000166741