/*--------------------------------*- C++ -*----------------------------------*\
| =========                 |                                                 |
| \\      /  F ield         | OpenFOAM: The Open Source CFD Toolbox           |
|  \\    /   O peration     | Version:  3.0.1                                 |
|   \\  /    A nd           | Web:      www.OpenFOAM.org                      |
|    \\/     M anipulation  |                                                 |
\*---------------------------------------------------------------------------*/
FoamFile
{
    version     2.0;
    format      ascii;
    class       volScalarField;
    location    "0.856142";
    object      k;
}
// * * * * * * * * * * * * * * * * * * * * * * * * * * * * * * * * * * * * * //

dimensions      [0 2 -2 0 0 0 0];

internalField   nonuniform List<scalar> 
21246
(
1.14126
1.45186
0.890742
0.473477
0.250183
0.133758
0.0713919
0.0380086
0.0206583
0.0121923
0.00834131
0.686631
0.972588
0.737728
0.451041
0.256576
0.143938
0.0784797
0.0415872
0.0219749
0.0123872
0.00817451
0.560315
0.75642
0.622241
0.453987
0.288851
0.168549
0.0926382
0.0487716
0.0252163
0.0135457
0.00851376
0.50964
0.650036
0.544745
0.425938
0.284392
0.17192
0.096655
0.0516967
0.0269524
0.0144992
0.00899497
0.478394
0.561897
0.478408
0.383135
0.260238
0.16267
0.094913
0.0525776
0.0281338
0.0152802
0.00938183
0.455714
0.48953
0.423015
0.341358
0.233967
0.149601
0.0898964
0.0514624
0.0283849
0.0157377
0.00975229
0.43828
0.433961
0.377909
0.303633
0.209572
0.135881
0.0834502
0.0491433
0.0279415
0.0158897
0.00995271
0.424207
0.39024
0.340616
0.271922
0.188395
0.123135
0.0767809
0.0462318
0.0269859
0.0157368
0.0101542
0.413056
0.355368
0.309977
0.246074
0.170805
0.112136
0.0706448
0.0432801
0.0258664
0.0154996
0.010267
0.404851
0.327276
0.285199
0.225631
0.156788
0.10319
0.0654608
0.0406458
0.0247881
0.0152284
0.0102709
0.398599
0.30423
0.264852
0.209316
0.145659
0.096031
0.0612213
0.0384141
0.0238216
0.0149308
0.0102796
0.393122
0.284886
0.247602
0.195851
0.136625
0.0902667
0.0577875
0.0365802
0.0230107
0.0146795
0.0102891
0.389176
0.268586
0.233181
0.185027
0.129558
0.0858353
0.0551553
0.0351752
0.0224016
0.0145062
0.010307
0.387709
0.255192
0.221494
0.176832
0.124493
0.0827735
0.053365
0.0342451
0.0220313
0.0144249
0.0103536
0.386769
0.244087
0.21163
0.170462
0.120963
0.0808634
0.0523304
0.0337707
0.0219147
0.0144619
0.0104553
0.38624
0.234873
0.20309
0.165533
0.118991
0.0802736
0.052233
0.0338825
0.0221407
0.0146668
0.0106487
0.386253
0.227761
0.195634
0.161594
0.118394
0.0810426
0.0532261
0.0347204
0.0228232
0.0151982
0.0110039
0.386801
0.222121
0.189026
0.158328
0.11886
0.083074
0.0553784
0.0364091
0.0240552
0.0160981
0.011589
0.388126
0.217943
0.183253
0.155625
0.120247
0.0864067
0.0589024
0.0392317
0.0260828
0.017532
0.0125045
0.390663
0.215367
0.178349
0.153345
0.122342
0.0910274
0.0640476
0.0436109
0.0293404
0.0198253
0.0139737
0.395097
0.214578
0.17437
0.151315
0.1248
0.096753
0.070982
0.0500497
0.0344806
0.0235806
0.0164759
0.402916
0.215107
0.171316
0.149356
0.127128
0.103093
0.0795683
0.0589024
0.042251
0.0297084
0.020866
0.414389
0.215862
0.168778
0.147174
0.128719
0.109168
0.0890521
0.0699176
0.053049
0.0391315
0.028348
0.439425
0.212782
0.171545
0.150873
0.13402
0.117146
0.0998277
0.0826818
0.0665317
0.0520638
0.0397567
1.23791
2.2376
1.03338
0.656258
0.354493
0.17929
0.090361
0.0456899
0.0236548
0.0133212
0.0088373
1.23039
2.10576
1.23211
0.790957
0.468858
0.248925
0.126887
0.0625017
0.0307934
0.0162192
0.0100522
1.13311
1.71601
1.22337
0.830659
0.536581
0.310278
0.168215
0.0845337
0.0409826
0.0206104
0.0121241
0.981845
1.44332
1.14442
0.806354
0.553162
0.351501
0.205229
0.108003
0.0530875
0.0262779
0.0151602
0.825317
1.30129
1.06237
0.759387
0.542018
0.372947
0.232719
0.12936
0.0655166
0.0323966
0.0182524
0.691703
1.23573
0.996478
0.713419
0.522852
0.380127
0.250384
0.146521
0.0769046
0.0384352
0.0216808
0.589581
1.20314
0.947475
0.675052
0.503745
0.379168
0.26057
0.159188
0.0863996
0.0435255
0.0239362
0.515585
1.18735
0.910996
0.643076
0.485708
0.374334
0.265838
0.168098
0.0938206
0.0475657
0.0257136
0.46367
1.17766
0.884427
0.617022
0.468788
0.367938
0.268889
0.174652
0.09961
0.0505119
0.0270821
0.42743
1.16786
0.865285
0.596315
0.453534
0.360492
0.269545
0.1798
0.10492
0.0531683
0.0278835
0.40072
1.14947
0.853641
0.581598
0.440649
0.353079
0.269028
0.183759
0.109635
0.0559095
0.0287029
0.379791
1.13051
0.846479
0.570831
0.429619
0.345862
0.26776
0.186965
0.114099
0.0590335
0.0298319
0.362996
1.11165
0.841948
0.563949
0.420788
0.339286
0.266265
0.189941
0.1188
0.0630158
0.0317968
0.347973
1.08385
0.839298
0.561981
0.414934
0.333881
0.265006
0.193154
0.124204
0.0682703
0.0349258
0.333719
1.051
0.836549
0.563694
0.411851
0.329755
0.264133
0.196735
0.130532
0.0750125
0.0396347
0.319558
1.01037
0.832838
0.5692
0.412249
0.327536
0.264067
0.20095
0.138034
0.0835436
0.0462473
0.304451
0.959956
0.826538
0.578518
0.417035
0.32812
0.265426
0.206123
0.146894
0.0940632
0.0552348
0.287697
0.901138
0.815474
0.59074
0.426957
0.332765
0.269205
0.212757
0.157248
0.106649
0.0668917
0.268548
0.833798
0.796259
0.603673
0.44261
0.343342
0.27721
0.221969
0.169523
0.12138
0.0814275
0.248294
0.764965
0.766797
0.614869
0.464995
0.363207
0.29319
0.236621
0.185316
0.138872
0.099125
0.216891
0.665486
0.715521
0.615475
0.491838
0.395499
0.322229
0.2615
0.207951
0.160878
0.12029
0.266881
0.680846
0.677286
0.593813
0.496869
0.411687
0.339438
0.277254
0.223292
0.176215
0.134643
0.255089
0.523752
0.556589
0.459935
0.378348
0.309547
0.250592
0.199352
0.155137
0.1186
0.0894189
0.41245
0.317238
0.239728
0.193059
0.161464
0.137085
0.116465
0.0980575
0.0812778
0.0660443
0.0524385
0.483299
0.65649
0.286721
0.148897
0.0715822
0.0365737
0.0225052
0.0171719
0.0149429
0.0138346
0.0131639
0.512218
0.746228
0.355749
0.18357
0.0917332
0.0446931
0.0249129
0.017654
0.0148677
0.013576
0.0128106
0.517674
0.663417
0.3853
0.21304
0.108608
0.0537509
0.0283921
0.0186536
0.0150646
0.0135161
0.0126903
0.496186
0.582352
0.386756
0.223886
0.120323
0.0616245
0.032225
0.0199963
0.0154857
0.0136312
0.0127346
0.456865
0.533297
0.378496
0.22643
0.127538
0.0683827
0.0359499
0.0215418
0.0160853
0.0138911
0.0129049
0.409186
0.503283
0.370271
0.228746
0.133634
0.0746304
0.0398103
0.0232162
0.0168125
0.0142589
0.0131552
0.358855
0.48502
0.364703
0.232535
0.139919
0.0803799
0.044106
0.0253185
0.0176371
0.014704
0.01348
0.309753
0.475553
0.362308
0.23736
0.146336
0.0860562
0.0484489
0.0278035
0.0187543
0.0152389
0.0138566
0.265355
0.470038
0.364254
0.243801
0.153303
0.0920766
0.0530423
0.0306323
0.0201381
0.0159137
0.0142957
0.226746
0.466047
0.371147
0.253069
0.161729
0.0990395
0.0582565
0.0339514
0.0218652
0.0167533
0.0148028
0.19374
0.464912
0.382842
0.265275
0.171717
0.10699
0.0642079
0.0378544
0.0240086
0.0178145
0.0153933
0.167285
0.469283
0.399686
0.280257
0.182959
0.115664
0.0707878
0.0423538
0.0266251
0.019165
0.0161096
0.148879
0.476848
0.422193
0.299263
0.196312
0.125453
0.0781895
0.0475984
0.0298436
0.0209025
0.017015
0.138257
0.483968
0.450073
0.323999
0.213217
0.137155
0.0868061
0.0538244
0.0338563
0.0231788
0.0182062
0.136226
0.497009
0.484276
0.355206
0.234267
0.151082
0.0967598
0.061114
0.0387955
0.0261547
0.0198333
0.143069
0.513743
0.524262
0.395132
0.261734
0.168667
0.108807
0.069861
0.0449352
0.0300759
0.0220943
0.153836
0.52434
0.565339
0.445843
0.29935
0.192657
0.124549
0.0809363
0.0527975
0.0353333
0.0253085
0.161384
0.523461
0.598893
0.505632
0.350498
0.226617
0.146453
0.0958345
0.0632874
0.0425564
0.0299795
0.164151
0.507287
0.612659
0.565074
0.416683
0.275842
0.179215
0.117803
0.0784759
0.0530989
0.0370614
0.162068
0.476693
0.597872
0.605377
0.49148
0.345453
0.230735
0.153538
0.103134
0.0701914
0.0487825
0.156414
0.432062
0.554387
0.610036
0.558705
0.43631
0.312148
0.215822
0.148012
0.1019
0.0709728
0.164483
0.390732
0.502851
0.589104
0.599627
0.531632
0.42453
0.317935
0.230259
0.164708
0.117465
0.154541
0.340468
0.411507
0.474157
0.506922
0.506695
0.469034
0.402657
0.32646
0.25624
0.195952
0.207112
0.422332
0.448679
0.495124
0.522466
0.525711
0.50208
0.449837
0.386539
0.324006
0.264614
0.406806
0.455349
0.245507
0.118083
0.0597093
0.0333181
0.0220755
0.0174281
0.0153434
0.0142603
0.0135811
0.317504
0.363643
0.213978
0.12372
0.0662643
0.0374657
0.0242765
0.018688
0.0162244
0.0150027
0.0142935
0.320166
0.36447
0.21031
0.143327
0.083245
0.0474297
0.028876
0.0208001
0.01744
0.0159211
0.0151566
0.322775
0.340188
0.198195
0.149166
0.093263
0.0562728
0.0346839
0.0239186
0.0191635
0.0170434
0.0160532
0.322678
0.300736
0.18736
0.146512
0.0930898
0.0576727
0.0363461
0.0255053
0.0204578
0.0181643
0.017106
0.320734
0.265221
0.17676
0.139348
0.0898524
0.057556
0.0371298
0.0263937
0.0213477
0.0190881
0.0181718
0.318099
0.237325
0.166984
0.131379
0.0857042
0.0564405
0.0371932
0.0269337
0.0220129
0.0198097
0.0189849
0.314899
0.215705
0.158119
0.123985
0.0818022
0.0551231
0.0369573
0.027218
0.0224562
0.0203159
0.0195527
0.312092
0.198865
0.150633
0.117774
0.0787945
0.0539857
0.0367614
0.0274675
0.0228513
0.0207908
0.0201493
0.310214
0.186003
0.144435
0.112846
0.0768559
0.0532312
0.0367435
0.027753
0.0232244
0.0212096
0.0206247
0.309498
0.176239
0.139673
0.109485
0.0758771
0.0530198
0.0369964
0.0281278
0.0235991
0.0215713
0.0209532
0.309761
0.168499
0.135828
0.107329
0.0756886
0.0533537
0.0375525
0.0286344
0.0240111
0.0219257
0.0213014
0.311305
0.162354
0.132885
0.106273
0.0763125
0.0543039
0.0384854
0.0293323
0.0244998
0.0222957
0.0216588
0.312877
0.158465
0.130784
0.106226
0.0779174
0.0560638
0.0399797
0.0303406
0.0251263
0.0227108
0.0219931
0.313973
0.155856
0.128952
0.106456
0.0801682
0.0585559
0.0422224
0.0319258
0.0261431
0.0233483
0.022432
0.314723
0.154453
0.127397
0.106912
0.0829538
0.0618372
0.0453219
0.0342669
0.0277234
0.0243594
0.0230946
0.315218
0.154345
0.126172
0.107542
0.0861645
0.06595
0.049413
0.0375972
0.0301308
0.0259817
0.0241667
0.315491
0.155345
0.125304
0.108238
0.0895974
0.0708191
0.0545883
0.0421641
0.0337049
0.0285736
0.0259697
0.315613
0.157402
0.124894
0.108918
0.0930127
0.0762514
0.0608469
0.0481831
0.0388399
0.0326219
0.0290048
0.31572
0.160575
0.125159
0.109562
0.0961384
0.0818718
0.0679744
0.0557027
0.0458699
0.038687
0.033975
0.316041
0.164841
0.126326
0.110213
0.0986532
0.087046
0.0753308
0.0643018
0.0547418
0.0471079
0.0415612
0.317193
0.169794
0.128477
0.110932
0.100171
0.0907907
0.0815554
0.0725584
0.0642623
0.0571197
0.0514828
0.319641
0.17613
0.131968
0.111889
0.100387
0.091943
0.0845615
0.0777148
0.0714136
0.0658517
0.0612764
0.335904
0.185781
0.148711
0.132189
0.123256
0.11709
0.111699
0.110451
0.112073
0.115848
0.120418
0.193408
0.386681
0.383321
0.383325
0.336767
0.241923
0.161585
0.107671
0.0729777
0.0510408
0.0374803
0.1625
0.285508
0.312902
0.327523
0.304676
0.235304
0.155348
0.095462
0.0607089
0.0402258
0.0280975
0.122292
0.216306
0.253982
0.273407
0.26346
0.214093
0.14555
0.0873416
0.0521781
0.0328634
0.0216072
0.0932136
0.175729
0.208955
0.226878
0.222245
0.185724
0.129753
0.0788522
0.0460096
0.0278851
0.017692
0.0793665
0.144171
0.173651
0.188548
0.185299
0.156771
0.111937
0.0697477
0.0411815
0.0247008
0.0153576
0.070788
0.119325
0.145598
0.15729
0.154371
0.131329
0.09572
0.0615974
0.0374063
0.0227159
0.0141149
0.0638715
0.10102
0.12415
0.132994
0.130308
0.111457
0.0830918
0.0554241
0.0348406
0.0216268
0.0135337
0.0589287
0.0885095
0.108547
0.115642
0.113255
0.0976285
0.0745738
0.0515227
0.0334842
0.0212496
0.0134094
0.0550638
0.0799523
0.0981934
0.10457
0.102417
0.08924
0.0698194
0.0497316
0.0332086
0.0214478
0.0136471
0.0519742
0.0745328
0.0920848
0.0981663
0.0963569
0.085101
0.068034
0.0496439
0.0338121
0.0221051
0.0141636
0.0496524
0.0712602
0.0886431
0.0948254
0.0935644
0.0837863
0.0682085
0.0506989
0.0350215
0.0230871
0.0148565
0.0478096
0.0694953
0.0869024
0.0933508
0.0926957
0.0840393
0.0694437
0.0523743
0.0365791
0.0242819
0.0157175
0.0463248
0.0685236
0.0860333
0.0928344
0.092797
0.0850609
0.0712043
0.0543836
0.0383609
0.0256366
0.0166845
0.0450265
0.0677967
0.0854777
0.0926997
0.0933058
0.0864255
0.073243
0.0566348
0.0403575
0.0271621
0.0177636
0.0438464
0.067365
0.0851375
0.0927182
0.0939514
0.0879085
0.0754308
0.0590937
0.0425937
0.0288998
0.0190205
0.0427656
0.0669919
0.0848107
0.0927451
0.0946484
0.0895216
0.0778739
0.0619227
0.0452294
0.0309664
0.020492
0.0416721
0.0663661
0.084302
0.0926821
0.0954068
0.0914082
0.0808305
0.0654338
0.04855
0.0335757
0.0223248
0.0404788
0.0655512
0.0836367
0.0925463
0.0963255
0.0937913
0.0846362
0.0700146
0.0529173
0.037005
0.0247028
0.0390956
0.0643868
0.0827381
0.0923914
0.0976625
0.0971286
0.0898693
0.0762588
0.0588488
0.0416367
0.0277944
0.0373917
0.0627139
0.0816438
0.0925515
0.10009
0.1023
0.0974247
0.0849543
0.0670002
0.0479957
0.0320232
0.0349268
0.0595507
0.0807573
0.0940173
0.104831
0.11044
0.108182
0.0967481
0.0779249
0.0566224
0.0379054
0.0329821
0.0642881
0.0841577
0.0985896
0.113614
0.122187
0.12159
0.110873
0.091261
0.0677267
0.0459669
0.0314967
0.0725982
0.105782
0.135389
0.152697
0.152721
0.138818
0.122258
0.103158
0.0797191
0.0563756
0.168159
0.209215
0.249117
0.279685
0.289162
0.273226
0.230186
0.168353
0.121196
0.0913784
0.0678778
0.202161
0.381911
0.415374
0.406487
0.346126
0.259321
0.183379
0.129919
0.0927215
0.0674832
0.0509224
0.132904
0.221496
0.311071
0.371561
0.37168
0.310266
0.229808
0.168985
0.124725
0.092834
0.0713866
0.109196
0.143964
0.223275
0.311547
0.368838
0.355352
0.278302
0.211603
0.165654
0.128302
0.102343
0.113616
0.135525
0.190225
0.264193
0.338758
0.375045
0.327824
0.237421
0.196182
0.166942
0.140116
0.120827
0.145248
0.190382
0.249155
0.318066
0.378295
0.37963
0.296649
0.212815
0.177655
0.168367
0.128409
0.158281
0.199398
0.247662
0.306107
0.37274
0.412906
0.366164
0.262306
0.186913
0.172353
0.135885
0.172029
0.211139
0.250713
0.297012
0.358927
0.420717
0.419613
0.326609
0.221139
0.171012
0.143238
0.185949
0.224077
0.255672
0.289223
0.339635
0.407491
0.446824
0.385216
0.268937
0.184706
0.150525
0.200338
0.238119
0.262097
0.283435
0.319312
0.381166
0.444476
0.424648
0.316558
0.211899
0.157791
0.215362
0.253064
0.269488
0.279974
0.301497
0.35077
0.423561
0.443014
0.354506
0.240693
0.165283
0.23107
0.268519
0.277539
0.278878
0.288365
0.32376
0.394149
0.442356
0.378806
0.264184
0.173488
0.247433
0.284526
0.286551
0.279852
0.280297
0.304232
0.363454
0.43361
0.393017
0.281062
0.182645
0.26487
0.300479
0.296446
0.282247
0.27611
0.291702
0.334647
0.402201
0.405345
0.290637
0.192134
0.283944
0.318097
0.307519
0.285068
0.271554
0.27931
0.309549
0.355512
0.384166
0.29885
0.201763
0.305348
0.338447
0.320925
0.289039
0.266505
0.264969
0.282954
0.312263
0.335056
0.30617
0.212245
0.330413
0.363154
0.338353
0.295664
0.262515
0.250991
0.258196
0.276047
0.293863
0.290884
0.223946
0.360539
0.394566
0.36277
0.307945
0.262325
0.24004
0.237502
0.245698
0.257169
0.26107
0.237121
0.397662
0.437021
0.400703
0.33323
0.271957
0.235495
0.221406
0.220627
0.225794
0.228025
0.251891
0.445538
0.49967
0.466584
0.390222
0.311947
0.256938
0.227511
0.215155
0.209926
0.204183
0.255542
0.483237
0.558351
0.541187
0.465182
0.375451
0.307456
0.270368
0.256475
0.255243
0.25619
0.237089
0.473765
0.561177
0.563806
0.504205
0.416915
0.339498
0.289861
0.265618
0.257207
0.257919
0.221847
0.442879
0.534399
0.550456
0.507459
0.431681
0.355224
0.297141
0.257899
0.218256
0.166271
0.211451
0.401998
0.483756
0.501511
0.471944
0.413555
0.346679
0.290464
0.237413
0.172951
0.116769
0.252444
0.385392
0.421416
0.423786
0.400233
0.358769
0.308947
0.252375
0.182822
0.124766
0.087759
0.0844451
0.0872221
0.0840689
0.083697
0.0840897
0.0829138
0.0801049
0.0737988
0.0605543
0.123217
0.133873
0.136122
0.124797
0.115184
0.103184
0.0890635
0.0745959
0.0606101
0.111842
0.122822
0.128965
0.122387
0.110963
0.096847
0.0870569
0.0792716
0.0685488
0.0926061
0.0988779
0.10569
0.104655
0.0950962
0.0840435
0.0762471
0.07053
0.065179
0.0800164
0.0743115
0.0646408
0.047463
0.0209453
0.016353
0.0145991
0.013802
0.0376121
0.112268
0.0961273
0.0783805
0.0612228
0.0474066
0.0259374
0.0254912
0.0344484
0.0456663
0.10333
0.0968214
0.0887039
0.0747188
0.0571578
0.0337241
0.0319925
0.0393911
0.0534874
0.088539
0.0839608
0.0811734
0.075631
0.063249
0.0425003
0.0390661
0.0448217
0.0556161
0.00442789
0.00460055
0.0046158
0.00210118
0.0459288
0.00439112
0.0117107
0.00453901
0.00438207
0.00423157
0.0457491
0.00454927
0.00372184
0.00329493
0.00448401
0.00430199
0.00330629
0.00208721
0.00429096
0.00424925
0.00412016
0.00437012
0.00466558
0.0188408
0.00449471
0.00330599
0.00377213
0.0112462
0.0822387
0.048777
0.00339597
0.00410149
0.00300441
0.00453456
0.00425793
0.00459169
0.0175267
0.00448968
0.00293551
0.00440126
0.00679017
0.00454357
0.00702058
0.00465832
0.0620973
0.0142635
0.0032769
0.0227396
0.00429373
0.00430993
0.0490302
0.00440736
0.0222598
0.00705041
0.00430739
0.00412682
0.00429178
0.0044142
0.0809233
0.00447963
0.0057413
0.0185398
0.0524469
0.00788233
0.00831607
0.00425983
0.0527288
0.00426889
0.00460114
0.00422174
0.00329666
0.00426948
0.00317087
0.00446009
0.0042594
0.00425589
0.00481979
0.00459572
0.00933991
0.0737484
0.0444624
0.00632797
0.00449643
0.00462552
0.00437529
0.00319088
0.114495
0.0126569
0.00320297
0.0182035
0.00454257
0.00442523
0.0069042
0.00428446
0.0723681
0.0299373
0.00286708
0.00399101
0.00353375
0.00433594
0.00467848
0.0214203
0.00415641
0.00402628
0.00282925
0.00454882
0.00305076
0.00464627
0.00426096
0.0041892
0.00450767
0.00455828
0.00427476
0.00223548
0.00430744
0.00442428
0.00438515
0.00431119
0.00449578
0.00413636
0.00227494
0.00443851
0.00447476
0.00325834
0.0128756
0.00420979
0.052518
0.00304822
0.00321177
0.00350762
0.00445932
0.00447251
0.0220243
0.00425732
0.00461354
0.00455405
0.00418962
0.00429878
0.0497273
0.00446448
0.00741319
0.00412861
0.0235522
0.00402384
0.00437463
0.00325173
0.00450819
0.00426918
0.00429241
0.00424498
0.00426594
0.00442339
0.00352107
0.00438014
0.00223459
0.0036669
0.00386262
0.00377587
0.00320888
0.00435495
0.00364091
0.00427875
0.00426351
0.00443237
0.0539363
0.00580192
0.00364092
0.00463965
0.00409604
0.00787247
0.00308852
0.0031005
0.00422624
0.00406103
0.00409232
0.00396306
0.00315978
0.00356203
0.062717
0.00392906
0.00426977
0.0043516
0.00465964
0.01424
0.00449786
0.00379977
0.0042519
0.00429623
0.00458798
0.012523
0.00411692
0.00341854
0.00427166
0.006211
0.00460915
0.00439442
0.00434419
0.00359732
0.0035904
0.00467913
0.0031528
0.00430137
0.00403935
0.00350351
0.00462703
0.0130943
0.00427881
0.00320409
0.00433136
0.00433754
0.0212163
0.00439587
0.00401518
0.00421834
0.00449198
0.00735514
0.0045092
0.00370363
0.0042621
0.00317812
0.00298433
0.00218661
0.00283506
0.00430592
0.00321682
0.00441919
0.0101263
0.00553621
0.0038835
0.0226457
0.00383917
0.00425633
0.00426081
0.00445959
0.00347684
0.0556228
0.0506578
0.00464599
0.0045553
0.00454361
0.00372574
0.00819075
0.00401733
0.00499353
0.00432738
0.00476727
0.004517
0.00359835
0.0327596
0.0563914
0.00358569
0.021467
0.00515744
0.00429612
0.00395959
0.00435688
0.00414931
0.00447482
0.0031517
0.00424917
0.00338519
0.00460094
0.00432507
0.00457171
0.004506
0.00310034
0.00413229
0.00435747
0.00559437
0.00372482
0.0230961
0.00430236
0.00429479
0.00317493
0.00438432
0.00432427
0.00332135
0.00444472
0.00428485
0.00313605
0.00429444
0.004595
0.0448072
0.0474149
0.00395985
0.00439036
0.0726601
0.00458373
0.00425154
0.00731926
0.00461375
0.0112931
0.00472273
0.0029716
0.00467845
0.00434127
0.00409737
0.00456168
0.0042562
0.00334904
0.00445187
0.0024553
0.00436513
0.049135
0.00416002
0.00418205
0.00459606
0.0140636
0.00420442
0.00434677
0.00750343
0.00456182
0.00409746
0.00299913
0.00530559
0.00410701
0.00368205
0.00319775
0.00412838
0.00432161
0.00424975
0.0337061
0.00435626
0.00339276
0.00546843
0.00431238
0.00445429
0.00370597
0.00424024
0.0309453
0.00430685
0.0527733
0.00438077
0.00465033
0.0035459
0.0443294
0.00348818
0.00458395
0.00447055
0.0039623
0.00409057
0.0205063
0.0042918
0.00572388
0.0216449
0.01426
0.00475728
0.00437925
0.0147231
0.0579984
0.00890408
0.00394341
0.00374208
0.00417836
0.0039486
0.00468914
0.00303523
0.00399739
0.00465954
0.0378584
0.00386347
0.00333578
0.00451687
0.00451241
0.00430184
0.00335525
0.00308934
0.00324501
0.0105853
0.00456947
0.00443817
0.0122406
0.0402075
0.00319618
0.00387605
0.0046052
0.00391791
0.00424527
0.00437059
0.00424942
0.038139
0.00437895
0.00316834
0.00442543
0.00340615
0.0504755
0.00236629
0.00320211
0.00799769
0.00346221
0.00443287
0.00517317
0.0031059
0.00469061
0.052227
0.00862083
0.00448055
0.00427713
0.00461872
0.00562117
0.00312787
0.00441076
0.00466272
0.00756711
0.00286365
0.00958875
0.0078475
0.00694346
0.00430042
0.0335247
0.00444603
0.00427652
0.00375933
0.00369102
0.00406094
0.00407786
0.00414506
0.00462049
0.00313725
0.0047784
0.0305953
0.00320869
0.0125936
0.0040172
0.00398289
0.00417529
0.00441104
0.00482395
0.00512821
0.0102345
0.00448635
0.00316156
0.00342993
0.00410212
0.00472531
0.0032563
0.0259206
0.0487837
0.00326973
0.00468842
0.00396191
0.109964
0.00214985
0.00240457
0.00425398
0.00455882
0.00535717
0.00350951
0.00433737
0.00402174
0.00444448
0.00461258
0.00449738
0.00412499
0.0044924
0.0108726
0.0031006
0.00315939
0.0049102
0.00458973
0.00433307
0.0549079
0.003199
0.00395006
0.00440181
0.00816258
0.00763342
0.00545505
0.00546768
0.00430239
0.00393362
0.0031106
0.0042289
0.0056046
0.00431801
0.00458097
0.00431275
0.00557832
0.00364695
0.00425516
0.00445264
0.00413646
0.0164592
0.00444768
0.00464608
0.0032978
0.0309075
0.00404646
0.00339311
0.00433646
0.00344555
0.00439176
0.00430647
0.0044136
0.00334944
0.00327169
0.004262
0.0033977
0.00400307
0.00434556
0.00374727
0.00369545
0.00453279
0.00453503
0.035426
0.00407638
0.00290186
0.00431349
0.0180835
0.00461871
0.0377198
0.00435543
0.00348918
0.00514334
0.00472323
0.0501287
0.00498263
0.00338636
0.00445412
0.0036071
0.00411787
0.00459328
0.00442272
0.0045675
0.00424725
0.0367614
0.00451251
0.00434998
0.0127535
0.00444484
0.00935127
0.00429989
0.0114414
0.00331553
0.00323507
0.00467788
0.00447538
0.00463412
0.00565909
0.00369694
0.00450174
0.00449194
0.00324974
0.00461443
0.0022319
0.00460366
0.0428561
0.00424258
0.00409322
0.00296581
0.00333085
0.0156713
0.0397628
0.00417079
0.00412795
0.00428078
0.0046023
0.00325757
0.00338303
0.00423496
0.00353241
0.0215642
0.0251123
0.00449298
0.00430687
0.00459518
0.0052814
0.0532415
0.00423303
0.00453773
0.00437613
0.047564
0.00427694
0.00307909
0.00326998
0.00829313
0.0358328
0.00443709
0.00450424
0.00446179
0.00507484
0.00432797
0.00429482
0.0031821
0.00409413
0.00555652
0.00733199
0.00463598
0.00467334
0.0713648
0.004406
0.00354563
0.00316181
0.00529169
0.00473492
0.00406533
0.00358783
0.00419658
0.00444678
0.00448808
0.0299431
0.00302743
0.00389595
0.00425058
0.00450188
0.00653816
0.00424572
0.00431014
0.0043484
0.00426169
0.00320327
0.00308605
0.00526702
0.00567733
0.00402081
0.00519037
0.00428971
0.00998873
0.00424095
0.00445881
0.0343108
0.0286263
0.00438383
0.00438495
0.00405159
0.00414534
0.00432765
0.00565043
0.00460528
0.00423801
0.0032659
0.00297641
0.00382219
0.00312185
0.00317912
0.00540287
0.023065
0.00490464
0.00629102
0.00354151
0.0035333
0.00467623
0.00349216
0.00462057
0.00418696
0.00554448
0.00394378
0.00422463
0.00444113
0.00343847
0.00725138
0.0303256
0.00361231
0.00436506
0.00442808
0.00526886
0.0045513
0.00428628
0.00427496
0.00337718
0.00423377
0.00433399
0.00422519
0.0045882
0.00386185
0.00621937
0.0218797
0.00424355
0.00424855
0.00399048
0.00934199
0.00430414
0.0153325
0.00427305
0.00528159
0.0296093
0.00443493
0.00374961
0.00465854
0.00302203
0.00495489
0.0031801
0.029371
0.00364874
0.00427346
0.00463599
0.00372968
0.00320913
0.00406462
0.0528568
0.00437039
0.00408251
0.00463211
0.00374788
0.00421949
0.00314585
0.00455156
0.00441382
0.00439894
0.00378937
0.00445224
0.0045631
0.00331648
0.0043723
0.00533809
0.00321911
0.00408527
0.00365141
0.0045275
0.00293723
0.00409682
0.00373692
0.00358112
0.00730529
0.0030246
0.0120606
0.00446933
0.00336403
0.0044924
0.00430565
0.00695915
0.00526456
0.00349484
0.0032896
0.00427953
0.00423596
0.00412825
0.00406266
0.0045845
0.0575317
0.00690575
0.0415346
0.00417038
0.00397792
0.00660644
0.00462618
0.0044569
0.0034434
0.00377994
0.00285627
0.00452455
0.00334406
0.0209506
0.00454881
0.00922326
0.00349879
0.00442689
0.00512184
0.00438615
0.00429242
0.00422377
0.00335951
0.0043114
0.00319753
0.00456909
0.00303179
0.00427494
0.0029837
0.00402234
0.0246307
0.00415748
0.00428509
0.0230556
0.0144971
0.00446451
0.0031991
0.00385403
0.00493365
0.00517272
0.00386767
0.00468384
0.00428691
0.0029761
0.00499473
0.0042791
0.00436984
0.00441779
0.00360988
0.00390448
0.00469001
0.00448648
0.00454907
0.0318304
0.033543
0.00357744
0.0045702
0.00337173
0.00474155
0.0045549
0.0045788
0.00462455
0.00448414
0.00432602
0.0031604
0.00502312
0.0106936
0.00308761
0.00460097
0.00442521
0.00449819
0.00376918
0.0332982
0.00459478
0.00412194
0.0035255
0.0165954
0.0207853
0.00462885
0.00391869
0.00376837
0.00442925
0.00446892
0.0119236
0.00421845
0.00455922
0.00443101
0.00829166
0.00400175
0.00390393
0.00455591
0.00409626
0.00551093
0.00373732
0.00455798
0.00309836
0.00600774
0.00443445
0.004036
0.00463927
0.00427321
0.00206333
0.00300459
0.0045835
0.00460025
0.00422266
0.00435705
0.00432165
0.00458512
0.00343252
0.00344493
0.00888013
0.0139645
0.00719203
0.00454183
0.0522572
0.00466863
0.00426958
0.00443751
0.00448885
0.00441749
0.00442809
0.00300516
0.0145874
0.00367123
0.00441383
0.00306816
0.00442039
0.00468873
0.00431061
0.00437999
0.00449161
0.00449659
0.00455773
0.00427723
0.0506268
0.00438208
0.00425755
0.00521342
0.0175353
0.00426055
0.00450535
0.00487911
0.0454566
0.00426075
0.0045023
0.00298405
0.00324464
0.00464919
0.00454146
0.00430013
0.00400648
0.0114874
0.00459351
0.0125952
0.00298366
0.0233193
0.0030193
0.00457577
0.0032707
0.00564101
0.00444735
0.00445004
0.00432337
0.00460588
0.00398815
0.0101999
0.00419276
0.00569346
0.0502813
0.0049304
0.00394261
0.00558794
0.00466289
0.0045558
0.00313837
0.00285377
0.00330297
0.00440904
0.0299976
0.00428065
0.00328385
0.00430857
0.00313439
0.00313147
0.00324724
0.00354799
0.0042021
0.00452935
0.046266
0.00403637
0.0559662
0.00444475
0.00304297
0.00435428
0.00421056
0.0543815
0.00438024
0.00460272
0.00352619
0.00956901
0.00765461
0.00356475
0.00327944
0.00332694
0.00786113
0.0353585
0.00452101
0.00442718
0.0586145
0.00439557
0.00546686
0.00449101
0.0151815
0.00303397
0.00646923
0.00460341
0.00342676
0.00464589
0.00441774
0.00414337
0.00242824
0.00425464
0.00445755
0.00427936
0.0046086
0.00468579
0.0045782
0.00435079
0.00417812
0.00920869
0.00356942
0.00401269
0.00460937
0.00833949
0.00301495
0.00459542
0.00468203
0.00408724
0.00662715
0.0508027
0.00397515
0.00339647
0.00410138
0.00433961
0.00308768
0.00445592
0.00424853
0.0095733
0.00455397
0.0537413
0.00826538
0.024243
0.00455364
0.00454196
0.00373303
0.0431793
0.00334949
0.00313861
0.00467569
0.00307356
0.0192094
0.00456006
0.00402895
0.0043851
0.00387925
0.032471
0.00368887
0.00446016
0.00432165
0.00411078
0.00428272
0.00661325
0.00293077
0.011266
0.0528221
0.00459529
0.00302998
0.00391085
0.00512733
0.0150099
0.0045434
0.00438554
0.00406619
0.00312929
0.00454575
0.00468507
0.00467904
0.00353384
0.00415271
0.0046066
0.00371387
0.0076135
0.00320826
0.00452241
0.00853586
0.00412503
0.00407922
0.00399579
0.00455465
0.00430325
0.0044686
0.0134601
0.00432935
0.00606153
0.00400436
0.0034828
0.00450634
0.00417895
0.0045046
0.00437408
0.00342297
0.0104775
0.00811209
0.0554262
0.0106691
0.0339966
0.00418375
0.00442157
0.00249269
0.00462755
0.00324628
0.0134928
0.00428699
0.00549525
0.00388746
0.0281122
0.0042248
0.00319812
0.00455044
0.0490168
0.0046959
0.0334669
0.00410487
0.00457224
0.00489265
0.0105943
0.00423761
0.00553191
0.00600765
0.00439029
0.0204243
0.0055858
0.0236576
0.00349165
0.00235149
0.0150055
0.00471105
0.00460988
0.00372256
0.00433918
0.00344364
0.00331563
0.00316541
0.00390418
0.00316269
0.0544382
0.00437065
0.00427058
0.00443004
0.00456895
0.00294616
0.0034058
0.00422053
0.00332072
0.0442103
0.0043416
0.0572732
0.00721216
0.00449935
0.00598067
0.00391751
0.00318962
0.00318337
0.0232296
0.0044223
0.00452897
0.0525349
0.00436789
0.00458564
0.00355944
0.00454366
0.00430167
0.0303196
0.00453978
0.0378349
0.00398215
0.00388044
0.00428611
0.00430413
0.00651462
0.00326156
0.0137992
0.00444719
0.00294261
0.00533859
0.00308314
0.00345563
0.00527969
0.00533109
0.00423985
0.00793148
0.0139161
0.00406426
0.00431429
0.00346607
0.00381139
0.00467627
0.0035098
0.0510059
0.00426032
0.00468969
0.0045092
0.0040826
0.00285727
0.0032057
0.00334923
0.0664978
0.00480168
0.00587728
0.00555639
0.00457242
0.00399359
0.0042479
0.00425345
0.0941847
0.00449897
0.0199337
0.0236183
0.00456053
0.00449465
0.00463878
0.0310699
0.0319838
0.0216219
0.0033532
0.00456383
0.00426712
0.00327973
0.0375938
0.00657937
0.00308664
0.00433396
0.00615955
0.0062355
0.00538278
0.00418255
0.0137758
0.0280111
0.00405193
0.00383485
0.00429515
0.00438105
0.0300791
0.00320316
0.00372878
0.00460073
0.00464248
0.00418684
0.0484193
0.003093
0.00298846
0.00774368
0.00577612
0.00437558
0.013682
0.00528767
0.0046198
0.00305162
0.00356333
0.00412024
0.0536644
0.00453618
0.00442156
0.00422946
0.00471021
0.00310683
0.00435505
0.00500144
0.004613
0.00455736
0.00468819
0.00330268
0.00443123
0.00725758
0.00428915
0.00455916
0.0502163
0.00425046
0.00354257
0.00361209
0.00457256
0.00351958
0.00534337
0.00452018
0.00456199
0.00448064
0.00305666
0.00449709
0.00427092
0.00446392
0.00351912
0.00650353
0.00314473
0.00842955
0.00429199
0.00540262
0.00426415
0.00467564
0.00428696
0.00458647
0.003146
0.00413911
0.00325585
0.00412946
0.00418849
0.00450061
0.00454203
0.0277594
0.00546819
0.0163309
0.00468828
0.0031067
0.057357
0.00318827
0.00299076
0.00439347
0.00548784
0.00722146
0.00588169
0.00319292
0.00494328
0.0038118
0.00304132
0.00450474
0.0687898
0.00309386
0.00413735
0.00402973
0.00394315
0.00361081
0.00276287
0.00425517
0.00306805
0.054797
0.0474081
0.00448641
0.00426919
0.00563677
0.0111057
0.00401669