/*--------------------------------*- C++ -*----------------------------------*\
| =========                 |                                                 |
| \\      /  F ield         | OpenFOAM: The Open Source CFD Toolbox           |
|  \\    /   O peration     | Version:  3.0.1                                 |
|   \\  /    A nd           | Web:      www.OpenFOAM.org                      |
|    \\/     M anipulation  |                                                 |
\*---------------------------------------------------------------------------*/
FoamFile
{
    version     2.0;
    format      ascii;
    class       volVectorField;
    location    "0.856142";
    object      U;
}
// * * * * * * * * * * * * * * * * * * * * * * * * * * * * * * * * * * * * * //

dimensions      [0 1 -1 0 0 0 0];

internalField   nonuniform List<vector> 
21246
(
(3.06356 -6.8732 0)
(2.49699 -5.36172 -5.42825e-18)
(2.96353 -4.11181 4.06629e-18)
(3.19198 -3.209 0)
(3.25999 -2.54871 3.33327e-19)
(3.24981 -2.04118 -1.06107e-18)
(3.1968 -1.6418 0)
(3.1255 -1.32306 -8.92588e-19)
(3.05056 -1.06693 6.85681e-19)
(2.97744 -0.862181 -5.27226e-19)
(2.9031 -0.703754 9.46548e-20)
(-0.990051 -3.45166 1.23242e-18)
(0.0915303 -3.90144 -1.32502e-18)
(0.99478 -3.6729 2.0615e-18)
(1.73467 -3.19979 0)
(2.21607 -2.71386 2.77093e-18)
(2.50919 -2.25245 1.67039e-18)
(2.67084 -1.8403 -1.28403e-18)
(2.74674 -1.48994 2.24669e-18)
(2.76987 -1.20097 -1.42028e-19)
(2.75913 -0.967941 -1.33982e-19)
(2.73213 -0.785889 -7.92365e-19)
(-1.49006 -1.48169 2.34524e-18)
(-0.788595 -1.96607 -4.79329e-18)
(-0.261308 -2.35391 0)
(0.46267 -2.53686 -1.48932e-18)
(1.12539 -2.44214 -1.7488e-18)
(1.63976 -2.18493 0)
(2.00393 -1.86461 3.15662e-18)
(2.24536 -1.54447 -2.88027e-18)
(2.39984 -1.25603 -6.77862e-19)
(2.49786 -1.01107 0)
(2.54735 -0.816901 0)
(-1.1439 -0.624299 -1.61564e-18)
(-0.562029 -1.03029 2.57237e-18)
(-0.421595 -1.31934 1.96345e-18)
(0.0185333 -1.59098 -3.09645e-20)
(0.520736 -1.7225 0)
(1.02751 -1.71373 -3.25014e-19)
(1.46734 -1.58846 -1.42929e-18)
(1.81167 -1.39456 0)
(2.06232 -1.17882 1.32664e-18)
(2.23605 -0.973853 9.57532e-19)
(2.34587 -0.799366 0)
(-0.706513 -0.0757364 -5.33572e-18)
(-0.205637 -0.376512 4.03938e-18)
(-0.234844 -0.576927 3.29612e-18)
(0.0536434 -0.857078 -2.52781e-18)
(0.377374 -1.05979 -8.99716e-19)
(0.76477 -1.17336 0)
(1.15301 -1.18686 0)
(1.50128 -1.11777 1.21177e-18)
(1.78804 -0.996863 0)
(2.00956 -0.855178 -1.95256e-18)
(2.16416 -0.716895 0)
(-0.267811 0.231006 3.95865e-18)
(0.15727 0.0557432 3.92935e-19)
(0.0384495 -0.0722336 0)
(0.244512 -0.313163 4.95333e-19)
(0.441696 -0.513517 4.7623e-19)
(0.713599 -0.674407 -5.80124e-19)
(1.01742 -0.769078 4.18596e-19)
(1.32122 -0.793321 -1.75964e-18)
(1.5983 -0.759049 1.86003e-19)
(1.83256 -0.687159 1.37344e-18)
(2.0088 -0.599799 -6.72758e-19)
(0.0598373 0.389635 -3.37747e-18)
(0.459282 0.322562 2.22021e-18)
(0.336173 0.240417 -2.28626e-18)
(0.473591 0.0557112 1.24627e-18)
(0.595577 -0.114104 3.15344e-18)
(0.782425 -0.276078 -1.57719e-18)
(1.00736 -0.401972 -4.05729e-19)
(1.25203 -0.478851 -6.38069e-19)
(1.4947 -0.50533 8.01958e-19)
(1.71652 -0.490068 -2.05771e-20)
(1.89611 -0.445954 2.21027e-19)
(0.296768 0.485099 0)
(0.684159 0.485181 0)
(0.588421 0.441934 -4.77969e-20)
(0.691353 0.300729 0)
(0.771781 0.164776 -1.41004e-19)
(0.903595 0.0205618 -2.05991e-18)
(1.06866 -0.107376 1.40728e-18)
(1.25921 -0.205484 1.31251e-19)
(1.46059 -0.266711 -3.41624e-19)
(1.65595 -0.292867 2.74813e-19)
(1.81717 -0.289569 4.10109e-19)
(0.490631 0.561902 -2.12764e-18)
(0.867535 0.598775 0)
(0.794356 0.58158 1.04597e-19)
(0.881694 0.468921 2.61329e-18)
(0.94002 0.360519 -1.89707e-18)
(1.03767 0.237455 2.13669e-19)
(1.16099 0.119824 0)
(1.30877 0.0182688 -1.80104e-18)
(1.47322 -0.0591792 3.78776e-19)
(1.64143 -0.10999 6.87484e-19)
(1.78666 -0.13342 -9.47743e-19)
(0.660612 0.602424 -4.92168e-18)
(1.03673 0.670614 3.41114e-18)
(0.971386 0.679035 0)
(1.04756 0.587785 -1.76404e-18)
(1.09183 0.501936 3.64912e-18)
(1.16807 0.398123 -1.42916e-18)
(1.26366 0.294046 2.20687e-18)
(1.38059 0.197057 -1.68406e-18)
(1.5149 0.114824 6.29774e-19)
(1.65883 0.0524981 -4.44335e-19)
(1.79046 0.0161688 1.78487e-18)
(0.788625 0.595475 -2.30676e-19)
(1.17271 0.709267 -3.92305e-19)
(1.11736 0.744569 1.96882e-18)
(1.18881 0.672239 -2.56747e-18)
(1.22487 0.606323 0)
(1.28805 0.519696 -1.92962e-18)
(1.36546 0.429596 1.00313e-18)
(1.46086 0.340948 1.50055e-18)
(1.57217 0.260419 -1.13794e-18)
(1.69492 0.193028 -1.57219e-18)
(1.80606 0.147569 6.39757e-20)
(0.875559 0.584836 -1.38841e-18)
(1.26344 0.747081 -2.62189e-18)
(1.22907 0.797014 2.38934e-18)
(1.30382 0.73747 1.91492e-18)
(1.338 0.687148 -3.01607e-18)
(1.39493 0.614604 1.79618e-18)
(1.4613 0.537168 -8.87968e-19)
(1.54234 0.457598 0)
(1.63707 0.381473 0)
(1.74353 0.312948 1.45033e-18)
(1.84111 0.263088 5.82648e-20)
(0.952995 0.592072 4.01765e-18)
(1.34094 0.788839 -2.80146e-18)
(1.32336 0.845069 2.81717e-18)
(1.40072 0.793592 -1.76547e-18)
(1.43486 0.754671 1.40992e-18)
(1.48935 0.692682 -2.22755e-18)
(1.54948 0.625699 2.57602e-18)
(1.62147 0.554392 -1.2742e-18)
(1.70477 0.483514 9.68152e-19)
(1.79982 0.416336 -6.85204e-20)
(1.88859 0.366767 6.69327e-21)
(1.01636 0.585355 -4.30097e-19)
(1.41683 0.816275 2.02888e-18)
(1.409 0.885543 -4.25173e-18)
(1.48693 0.842951 8.50839e-19)
(1.5206 0.81418 -1.97009e-18)
(1.57422 0.760382 -3.26747e-20)
(1.63074 0.70186 7.68379e-19)
(1.69712 0.637488 2.56387e-20)
(1.77251 0.571736 -1.7645e-18)
(1.85942 0.506646 0)
(1.9392 0.458275 -9.12206e-19)
(1.05528 0.575938 2.89843e-18)
(1.4698 0.846342 6.63253e-19)
(1.4794 0.926151 -2.54484e-18)
(1.5625 0.889511 2.43235e-18)
(1.59773 0.868817 6.45576e-19)
(1.65219 0.821156 -9.46804e-19)
(1.70687 0.769437 -7.68011e-19)
(1.76986 0.710619 2.27082e-18)
(1.83959 0.649441 1.75393e-20)
(1.92065 0.586244 0)
(1.99518 0.539059 0)
(1.09867 0.580078 4.12126e-19)
(1.51718 0.881527 -2.52302e-18)
(1.54487 0.966922 2.97012e-18)
(1.63166 0.935141 0)
(1.66937 0.920265 -1.77728e-18)
(1.72536 0.877269 2.77552e-18)
(1.77923 0.830895 6.80783e-19)
(1.84016 0.776431 2.06643e-18)
(1.90566 0.719348 -3.60308e-20)
(1.98267 0.657432 -1.12151e-18)
(2.0539 0.611195 1.63862e-18)
(1.145 0.580433 -3.15756e-18)
(1.56518 0.905031 2.44131e-18)
(1.61119 1.00035 -2.4019e-18)
(1.69824 0.977861 0)
(1.73913 0.967779 -5.47416e-19)
(1.79626 0.929102 -2.13451e-20)
(1.84998 0.886624 -6.81503e-19)
(1.90942 0.835534 -1.99518e-18)
(1.97181 0.782035 7.01332e-19)
(2.04463 0.722482 -1.04868e-18)
(2.1138 0.676799 -7.33281e-19)
(1.17741 0.576667 0)
(1.5999 0.924545 2.10853e-18)
(1.67085 1.03069 -3.72591e-18)
(1.76127 1.01851 3.20762e-18)
(1.80776 1.0116 -2.18627e-18)
(1.86618 0.976547 2.47765e-18)
(1.91996 0.936708 -2.48866e-18)
(1.9777 0.888416 9.35522e-19)
(2.03747 0.838087 0)
(2.10625 0.781536 5.09507e-19)
(2.17395 0.736097 7.29845e-19)
(1.2091 0.575448 6.19011e-18)
(1.62807 0.943276 -2.13326e-18)
(1.72713 1.05915 0)
(1.82325 1.05687 -3.59546e-19)
(1.8768 1.0511 0)
(1.93607 1.01858 1.89726e-19)
(1.98926 0.980495 0)
(2.04453 0.935115 8.59378e-19)
(2.10171 0.888187 -1.57635e-18)
(2.16689 0.835509 2.45874e-19)
(2.23454 0.789666 3.12594e-19)
(1.24729 0.575425 3.44485e-18)
(1.65586 0.957104 -2.46431e-18)
(1.78483 1.0809 -1.79122e-18)
(1.88784 1.0881 1.29244e-18)
(1.94781 1.08229 -1.0036e-18)
(2.00592 1.05198 5.6739e-19)
(2.05666 1.01625 -6.74097e-20)
(2.10843 0.97534 9.1316e-19)
(2.16304 0.93331 -2.95939e-19)
(2.22512 0.886367 2.22426e-19)
(2.29282 0.841221 -3.1422e-19)
(1.29143 0.572807 3.38744e-18)
(1.68374 0.959693 0)
(1.84324 1.08764 -1.77595e-18)
(1.95387 1.103 1.43369e-18)
(2.01786 1.0977 0)
(2.07187 1.07163 -7.27544e-19)
(2.11827 1.04173 6.81067e-19)
(2.16627 1.00893 -1.02704e-19)
(2.2192 0.974392 -5.58625e-19)
(2.27956 0.934767 4.10432e-19)
(2.34646 0.892539 0)
(1.36612 0.557829 9.14475e-20)
(1.71339 0.942957 2.58761e-18)
(1.90183 1.06427 0)
(2.01684 1.08672 1.32356e-18)
(2.07936 1.0868 -9.87192e-19)
(2.12636 1.07205 1.77211e-19)
(2.16805 1.05534 -6.95656e-20)
(2.21422 1.03598 0)
(2.26769 1.01219 2.63943e-19)
(2.32867 0.981171 2.76572e-19)
(2.3966 0.941555 -6.66342e-20)
(1.2843 0.552346 -7.15663e-18)
(1.71947 0.865928 2.66988e-18)
(1.8994 1.00308 -2.11921e-18)
(2.01823 1.03381 1.37261e-18)
(2.08808 1.04683 7.8333e-19)
(2.13776 1.05403 -9.62213e-19)
(2.18654 1.05839 0)
(2.24169 1.05681 0)
(2.30268 1.04622 -2.07543e-20)
(2.36852 1.02628 1.60459e-19)
(2.43958 0.991001 -4.79278e-19)
(2.54335 0.0260204 6.01892e-18)
(2.01453 0.770402 -1.82348e-19)
(2.19083 0.727021 1.8062e-18)
(2.183 0.829505 -8.91696e-19)
(2.16047 0.924139 -9.54315e-19)
(2.16282 0.99264 9.00362e-19)
(2.19519 1.0423 0)
(2.25033 1.06799 4.00943e-19)
(2.31609 1.07358 -8.16028e-19)
(2.38672 1.06735 -3.80552e-19)
(2.46221 1.04928 7.11155e-19)
(6.65439 -6.07192 0)
(5.62299 -3.22988 -9.03694e-19)
(5.37261 -3.48654 5.15147e-19)
(4.83456 -2.88826 0)
(4.34574 -2.31788 4.28657e-21)
(3.9836 -1.8443 -1.28586e-19)
(3.71324 -1.46517 3.93197e-20)
(3.50163 -1.1667 0)
(3.3291 -0.930256 -1.04026e-19)
(3.18591 -0.743343 9.68185e-20)
(3.06324 -0.602241 4.45403e-19)
(6.1951 -3.63177 2.22701e-18)
(5.41362 -0.479069 2.44936e-18)
(6.15394 -1.53726 2.60213e-18)
(5.9438 -1.68463 -3.27272e-18)
(5.30989 -1.55061 -4.22094e-19)
(4.74071 -1.37746 7.57292e-19)
(4.26482 -1.14951 -2.99991e-19)
(3.89525 -0.927301 -1.0375e-19)
(3.60864 -0.734756 1.0605e-19)
(3.38204 -0.577308 1.72499e-19)
(3.19898 -0.456308 -1.18266e-19)
(4.21168 -1.7856 -3.01764e-18)
(4.34 0.981054 -1.23135e-18)
(5.83193 0.143706 4.68699e-19)
(6.07571 -0.134066 -5.80481e-18)
(5.7668 -0.364973 5.00906e-18)
(5.24233 -0.550046 9.4023e-21)
(4.709 -0.582693 2.52845e-19)
(4.24252 -0.529383 -3.52294e-19)
(3.86439 -0.440172 2.28146e-19)
(3.56591 -0.348526 0)
(3.3326 -0.27418 3.26192e-20)
(2.30176 -1.07826 -1.70168e-17)
(3.24753 1.27646 0)
(4.9714 1.1446 -4.5451e-19)
(5.5396 1.11137 0)
(5.62679 0.787097 0)
(5.32783 0.399317 -2.92396e-19)
(4.89435 0.145563 1.04756e-18)
(4.44144 0.00713927 -8.07289e-19)
(4.03452 -0.0447048 6.1926e-19)
(3.6971 -0.0478944 -4.5538e-19)
(3.42992 -0.0355349 -1.05668e-19)
(0.928338 -1.04025 4.70254e-19)
(2.33166 1.04272 1.18345e-18)
(4.01187 1.54521 0)
(4.7583 1.84333 0)
(5.12392 1.61787 0)
(5.05493 1.21955 0)
(4.79604 0.860035 2.09897e-19)
(4.4421 0.585166 -1.8009e-18)
(4.07476 0.404062 1.34417e-18)
(3.74261 0.297413 0)
(3.46556 0.235292 5.43013e-20)
(0.0528497 -1.25612 -1.28545e-17)
(1.6628 0.703854 -1.10786e-18)
(3.18412 1.62282 0)
(3.99766 2.17852 2.08028e-18)
(4.50098 2.11 0)
(4.58923 1.80016 0)
(4.49415 1.43699 0)
(4.26668 1.10527 -1.28844e-18)
(3.9807 0.841155 0)
(3.69041 0.651559 1.25811e-18)
(3.42396 0.532946 -9.28297e-19)
(-0.500484 -1.5222 1.098e-17)
(1.15483 0.390104 0)
(2.51647 1.56659 0)
(3.34943 2.29371 -1.97415e-18)
(3.89773 2.36536 0)
(4.07382 2.16099 0)
(4.09444 1.84509 0)
(3.97759 1.51536 3.58704e-18)
(3.78168 1.21742 -4.33327e-19)
(3.55331 0.97382 -9.9788e-19)
(3.32374 0.800572 -9.53167e-19)
(-0.870946 -1.77392 -8.30523e-18)
(0.749424 0.125264 1.46437e-18)
(1.97908 1.46151 0)
(2.81657 2.30237 0)
(3.36368 2.48026 2.25814e-18)
(3.58152 2.36666 -5.97812e-18)
(3.67232 2.10942 7.37477e-19)
(3.63585 1.80996 5.653e-19)
(3.5181 1.51262 3.35396e-18)
(3.35383 1.24632 0)
(3.17403 1.02675 5.99686e-20)
(-1.12479 -1.98279 7.29643e-18)
(0.409792 -0.0958997 -9.2499e-18)
(1.53366 1.33595 -1.88979e-18)
(2.36914 2.25461 0)
(2.89793 2.51233 -1.77436e-19)
(3.13264 2.47029 0)
(3.26364 2.26869 0)
(3.28188 2.00629 -2.28522e-18)
(3.22528 1.72584 2.04076e-19)
(3.11825 1.45852 0)
(2.97981 1.23025 0)
(-1.30508 -2.14384 6.38216e-18)
(0.114151 -0.280279 2.4758e-18)
(1.15157 1.20096 1.83131e-18)
(1.98007 2.1723 5.00468e-18)
(2.48649 2.49199 -4.01296e-18)
(2.72829 2.50493 -2.7506e-18)
(2.88084 2.34969 0)
(2.93517 2.12521 2.13551e-18)
(2.92482 1.86912 -1.63214e-18)
(2.86596 1.61087 1.58427e-18)
(2.77185 1.37916 -2.09278e-18)
(-1.4584 -2.27119 -7.10733e-18)
(-0.167832 -0.456423 4.20037e-18)
(0.807012 1.04642 1.48922e-18)
(1.62444 2.05858 0)
(2.11221 2.43226 1.74129e-18)
(2.35997 2.49024 -4.4477e-18)
(2.52535 2.3743 2.40609e-19)
(2.60481 2.18355 4.32659e-18)
(2.62887 1.95246 6.09167e-20)
(2.60843 1.70893 -5.51041e-19)
(2.55401 1.48036 2.59612e-19)
(-1.61409 -2.38417 -3.80788e-18)
(-0.432016 -0.624716 3.78401e-18)
(0.498402 0.878709 -1.46804e-18)
(1.29391 1.92067 -1.96162e-18)
(1.76699 2.34091 4.2673e-18)
(2.02133 2.43724 -6.33323e-21)
(2.1956 2.35535 -1.5069e-18)
(2.294 2.19405 -1.90044e-19)
(2.34504 1.98664 -2.43316e-18)
(2.35689 1.75997 0)
(2.33757 1.5416 0)
(-1.74935 -2.48549 0)
(-0.668015 -0.781626 0)
(0.215265 0.698459 0)
(0.97888 1.75927 1.07149e-18)
(1.44265 2.22023 -1.11065e-19)
(1.70548 2.35132 -1.97132e-18)
(1.88758 2.30001 -2.39898e-18)
(2.00206 2.1645 5.18586e-20)
(2.07589 1.97884 1.14836e-18)
(2.11604 1.76946 6.25711e-19)
(2.13414 1.55971 7.36517e-19)
(-1.85969 -2.58575 4.22294e-18)
(-0.891797 -0.944564 -3.11712e-18)
(-0.0597269 0.494331 0)
(0.670358 1.56625 -2.34038e-18)
(1.1305 2.06853 4.85918e-18)
(1.40494 2.23404 0)
(1.59618 2.21182 -2.11074e-18)
(1.72638 2.09949 9.32264e-19)
(1.82145 1.93366 0)
(1.88733 1.74167 -6.13629e-19)
(1.93999 1.54209 -1.5704e-18)
(-1.9531 -2.68927 -3.85035e-18)
(-1.10449 -1.11113 3.91661e-19)
(-0.326713 0.273149 2.10472e-18)
(0.370402 1.34398 0)
(0.828759 1.88527 -1.12918e-18)
(1.11436 2.08566 0)
(1.31712 2.09189 0)
(1.46432 2.00113 6.9101e-19)
(1.581 1.85388 3.61501e-19)
(1.67194 1.67964 -5.31233e-19)
(1.7541 1.49643 1.20193e-19)
(-2.03588 -2.7853 0)
(-1.31088 -1.28147 -4.92962e-19)
(-0.58799 0.0338676 0)
(0.0740793 1.09134 0)
(0.529277 1.66639 0)
(0.827059 1.90299 -1.19281e-18)
(1.04489 1.93796 3.29709e-19)
(1.21203 1.86844 1.07753e-18)
(1.35301 1.73984 -8.75489e-19)
(1.47197 1.58395 -5.06022e-19)
(1.58966 1.41777 2.55159e-19)
(-2.1139 -2.87918 0)
(-1.51546 -1.46079 1.22582e-19)
(-0.849175 -0.228591 0)
(-0.226692 0.803053 1.14384e-18)
(0.223549 1.4061 -2.37319e-18)
(0.534953 1.67936 1.18293e-18)
(0.771583 1.74394 -1.93815e-19)
(0.964105 1.69687 3.58408e-19)
(1.13439 1.5892 -1.4413e-19)
(1.28394 1.45485 1.66386e-19)
(1.4378 1.30759 0)
(-2.19071 -2.97918 -2.81484e-18)
(-1.72025 -1.65314 2.23355e-18)
(-1.11381 -0.517074 0)
(-0.537849 0.473863 0)
(-0.0978159 1.09609 1.10567e-19)
(0.226702 1.40265 0)
(0.487696 1.49798 3.71946e-19)
(0.71403 1.47694 -7.29924e-20)
(0.921185 1.39609 -1.42496e-19)
(1.10581 1.2903 5.76953e-20)
(1.30121 1.17105 0)
(-2.26728 -3.09246 -1.92274e-19)
(-1.92819 -1.86204 1.90768e-18)
(-1.38791 -0.834385 -1.11643e-18)
(-0.868536 0.0965436 4.16405e-19)
(-0.447925 0.722058 -1.68963e-19)
(-0.111003 1.05295 -3.1329e-19)
(0.182495 1.17875 3.56209e-19)
(0.453366 1.19124 0)
(0.707097 1.14861 -4.79019e-20)
(0.93308 1.08298 -7.09579e-20)
(1.17321 1.00521 -2.4954e-20)
(-2.35103 -3.19424 2.08013e-18)
(-2.14688 -2.07332 1.3281e-18)
(-1.68579 -1.17382 -3.33671e-18)
(-1.23646 -0.329328 -3.1666e-19)
(-0.844109 0.264493 5.44947e-19)
(-0.495197 0.6007 -1.0096e-19)
(-0.15863 0.755856 7.53479e-20)
(0.169444 0.814924 5.00986e-22)
(0.47763 0.830122 -3.70818e-22)
(0.749558 0.822084 -3.194e-20)
(1.02605 0.799371 -1.29411e-19)
(-2.43173 -3.40952 7.16711e-19)
(-2.38466 -2.37259 4.64638e-19)
(-2.01569 -1.5846 2.07993e-18)
(-1.65193 -0.866008 -4.90804e-19)
(-1.29863 -0.345398 0)
(-0.92661 -0.0313008 0)
(-0.533229 0.151781 -5.06453e-21)
(-0.139693 0.27315 5.18e-20)
(0.225109 0.365831 -3.51614e-20)
(0.535042 0.439518 0)
(0.849136 0.498491 4.82225e-19)
(-2.5943 -3.51042 2.28442e-18)
(-2.82997 -2.42021 5.47321e-20)
(-2.46574 -1.88766 -1.90358e-18)
(-2.18549 -1.39888 -2.73663e-20)
(-1.83839 -1.05014 -1.57206e-21)
(-1.43355 -0.799628 2.63382e-19)
(-0.995006 -0.586629 1.72578e-19)
(-0.561611 -0.3822 4.47426e-19)
(-0.158439 -0.193428 2.89317e-20)
(0.201072 -0.0369053 5.30077e-19)
(0.603973 0.111428 2.04279e-19)
(-3.47428 -2.66006 0)
(-2.60994 -2.82699 -1.77691e-18)
(-2.53696 -2.47181 1.08391e-18)
(-2.02835 -2.04201 -2.87257e-19)
(-1.48496 -1.69415 -3.58763e-19)
(-0.902205 -1.35268 -3.30517e-19)
(-0.329472 -0.989197 -4.53847e-19)
(0.194162 -0.62674 -2.79084e-19)
(0.656381 -0.299055 1.51145e-20)
(1.05439 -0.0271446 3.08176e-19)
(1.42997 0.241294 -4.61759e-19)
(0.474705 -0.160524 0)
(-0.27943 0.156286 2.10077e-19)
(0.388012 0.110967 -1.04992e-19)
(0.883566 0.127454 1.49943e-19)
(1.24905 0.208941 3.59737e-19)
(1.54509 0.342005 0)
(1.78155 0.499568 -5.95892e-19)
(1.96838 0.646948 7.89535e-19)
(2.11851 0.766282 -5.21373e-19)
(2.24577 0.858227 3.62303e-19)
(2.36818 0.949879 -6.59426e-20)
(3.62582 4.66343 0)
(2.85041 3.1091 0)
(2.59408 2.76455 0)
(2.31919 2.20417 3.53315e-20)
(2.11948 1.74049 -2.72511e-19)
(1.99106 1.37351 4.92483e-19)
(1.90734 1.09099 5.4775e-20)
(1.85228 0.874698 7.43632e-20)
(1.81758 0.708473 2.04847e-19)
(1.79855 0.581617 -1.12484e-19)
(1.78977 0.492857 0)
(4.01902 3.02566 -5.93358e-18)
(3.21365 0.875796 4.68663e-18)
(3.51594 1.62862 0)
(3.19814 1.53923 -4.11465e-20)
(2.82561 1.36929 0)
(2.51333 1.17172 -1.11599e-19)
(2.2778 0.968491 -5.8974e-20)
(2.11375 0.790174 -4.42358e-20)
(2.00346 0.644673 8.91925e-20)
(1.93203 0.531053 1.16897e-21)
(1.89018 0.450602 -3.0847e-22)
(2.85145 1.6168 -1.85604e-17)
(2.58882 -0.473716 0)
(3.50338 0.457876 -2.14854e-19)
(3.43329 0.536427 0)
(3.19878 0.660472 0)
(2.8836 0.706465 1.12543e-19)
(2.58645 0.670509 0)
(2.34723 0.595626 4.41772e-20)
(2.17157 0.511319 -4.47542e-20)
(2.04985 0.436165 0)
(1.97258 0.384026 2.27299e-20)
(1.50554 1.0361 0)
(1.82295 -0.809414 9.85589e-18)
(2.97774 -0.269673 -7.42243e-18)
(3.12872 -0.295188 -4.23671e-18)
(3.16462 -0.0591378 3.03946e-18)
(2.97781 0.139362 0)
(2.7299 0.253333 -1.08956e-19)
(2.48787 0.303485 -6.63744e-19)
(2.28595 0.308329 8.46713e-19)
(2.13272 0.294155 -3.30519e-19)
(2.0249 0.284846 -6.06314e-20)
(0.485351 0.977707 1.24518e-17)
(1.14836 -0.642235 -8.64716e-18)
(2.3021 -0.554316 7.52194e-18)
(2.60866 -0.754594 2.72429e-19)
(2.85681 -0.567211 7.12102e-19)
(2.82454 -0.351186 1.53032e-18)
(2.68392 -0.161252 -1.05242e-18)
(2.49921 -0.0208335 0)
(2.31668 0.0663163 -5.29493e-19)
(2.16143 0.116954 5.63786e-19)
(2.0418 0.156068 -7.20378e-19)
(-0.241331 1.13817 4.41871e-18)
(0.601881 -0.324595 -7.40747e-18)
(1.67589 -0.572902 4.85314e-18)
(2.08081 -0.912822 9.33093e-19)
(2.44663 -0.838033 -6.84338e-19)
(2.53204 -0.681826 8.65201e-19)
(2.50176 -0.486808 0)
(2.39525 -0.308152 0)
(2.26067 -0.169707 -6.58419e-19)
(2.1287 -0.0684736 6.7283e-19)
(2.01629 0.0132231 2.07331e-19)
(-0.780188 1.42385 4.66267e-18)
(0.162501 0.0424669 -6.06168e-18)
(1.14602 -0.452566 0)
(1.6181 -0.895287 2.37266e-18)
(2.03974 -0.937517 -2.51636e-18)
(2.20049 -0.858878 -1.62201e-18)
(2.25346 -0.699844 0)
(2.21975 -0.524955 -6.63965e-19)
(2.13855 -0.365426 7.28605e-19)
(2.04203 -0.236374 3.09134e-19)
(1.94942 -0.123616 -1.11905e-18)
(-1.15926 1.78809 3.31436e-18)
(-0.186086 0.431212 0)
(0.70962 -0.249674 0)
(1.23044 -0.778948 0)
(1.67767 -0.928435 -2.97269e-18)
(1.88537 -0.925388 2.29952e-18)
(1.9924 -0.81425 -9.45628e-19)
(2.01257 -0.66441 2.24868e-20)
(1.97978 -0.509378 0)
(1.91981 -0.370394 9.80156e-19)
(1.85033 -0.243633 -5.27159e-19)
(-1.42369 2.1523 6.45441e-19)
(-0.48307 0.816798 0)
(0.352572 0.0050832 0)
(0.908881 -0.602521 2.34462e-18)
(1.36698 -0.850184 -1.68813e-18)
(1.60594 -0.917812 -1.19555e-18)
(1.74688 -0.856896 2.58986e-18)
(1.80348 -0.739603 1.57427e-18)
(1.80689 -0.600941 -8.37546e-19)
(1.77821 -0.46592 -9.62732e-19)
(1.73307 -0.334718 5.35458e-19)
(-1.61471 2.51055 -6.29903e-19)
(-0.743289 1.19726 0)
(0.0485486 0.294729 -3.27199e-18)
(0.630774 -0.385968 4.48516e-20)
(1.09673 -0.725516 1.5814e-18)
(1.36143 -0.860623 1.27259e-18)
(1.52578 -0.849859 -1.48021e-18)
(1.60739 -0.767239 1.02265e-18)
(1.63673 -0.650293 -1.0335e-19)
(1.63204 -0.526925 -4.9417e-19)
(1.60812 -0.400307 0)
(-1.74705 2.88362 2.50634e-18)
(-0.968522 1.58492 0)
(-0.215808 0.614617 6.12727e-19)
(0.382801 -0.137896 0)
(0.857063 -0.565914 -1.95834e-18)
(1.14573 -0.76828 2.43271e-18)
(1.32899 -0.807899 0)
(1.42936 -0.760408 8.93638e-19)
(1.47777 -0.667073 -7.67655e-20)
(1.492 -0.558191 7.70693e-19)
(1.4855 -0.44098 -5.7553e-19)
(-1.82757 3.24271 -4.97496e-20)
(-1.15787 1.96223 0)
(-0.439057 0.948457 -1.48892e-18)
(0.164515 0.130116 1.8455e-18)
(0.645011 -0.380944 0)
(0.954339 -0.650093 -8.24422e-19)
(1.15391 -0.740414 5.56352e-19)
(1.26943 -0.72821 0)
(1.33236 -0.659144 -6.23497e-20)
(1.36071 -0.566203 -4.89822e-20)
(1.36859 -0.458737 4.51008e-19)
(-1.86663 3.54736 -4.18955e-19)
(-1.31594 2.31014 0)
(-0.629737 1.28246 -2.17447e-18)
(-0.0323409 0.410175 9.65766e-19)
(0.451708 -0.176563 9.53336e-19)
(0.779351 -0.511448 -6.88956e-19)
(0.99456 -0.653025 4.43965e-19)
(1.1242 -0.676594 -1.45386e-18)
(1.19974 -0.632188 9.9208e-19)
(1.23965 -0.556281 -3.48228e-19)
(1.2586 -0.462133 -4.76285e-20)
(-1.8785 3.81199 -1.76204e-19)
(-1.44841 2.63984 1.15885e-18)
(-0.80136 1.62201 -6.00861e-19)
(-0.220416 0.707774 1.14549e-18)
(0.264878 0.0506368 -3.5144e-20)
(0.609901 -0.350846 2.99745e-19)
(0.842378 -0.546155 -4.69925e-19)
(0.987924 -0.607579 0)
(1.07718 -0.589012 -2.60259e-19)
(1.12963 -0.530647 -2.70375e-19)
(1.16149 -0.450236 -1.93594e-19)
(-1.87823 4.0483 1.77733e-19)
(-1.5569 2.94382 -1.25974e-19)
(-0.954529 1.95881 -8.92094e-19)
(-0.399418 1.01871 6.63881e-19)
(0.0826044 0.300287 -7.56303e-19)
(0.441995 -0.166355 1.25486e-18)
(0.692234 -0.417445 -3.2217e-19)
(0.855767 -0.519712 -1.34488e-19)
(0.961074 -0.52941 -1.87586e-21)
(1.02758 -0.490289 0)
(1.07207 -0.42461 1.49551e-19)
(-1.86084 4.22408 1.32051e-18)
(-1.64025 3.20917 9.0533e-19)
(-1.09285 2.28686 -6.78823e-19)
(-0.572767 1.34342 -6.03294e-19)
(-0.0996693 0.576214 3.62783e-19)
(0.270382 0.0476713 -1.33656e-19)
(0.538374 -0.260946 -4.08349e-19)
(0.722306 -0.408014 1.25246e-19)
(0.847205 -0.450078 0)
(0.931283 -0.433695 0)
(0.991506 -0.385704 0)
(-1.82113 4.3585 1.1795e-18)
(-1.69918 3.44827 -9.18113e-19)
(-1.21745 2.61316 0)
(-0.743095 1.69142 0)
(-0.286815 0.88912 -7.63172e-20)
(0.0891258 0.302351 -5.28574e-20)
(0.37437 -0.0659923 -2.07177e-20)
(0.581485 -0.263234 0)
(0.730719 -0.3441 0)
(0.837305 -0.356669 7.92693e-20)
(0.918347 -0.331232 -7.92431e-21)
(-1.7731 4.43978 -1.20508e-18)
(-1.73116 3.6551 0)
(-1.32212 2.93023 0)
(-0.905009 2.06069 0)
(-0.477036 1.24388 7.8784e-20)
(-0.103093 0.607317 -4.25976e-20)
(0.196697 0.179887 1.44221e-19)
(0.42884 -0.0725863 -7.54968e-20)
(0.60722 -0.200582 0)
(0.741834 -0.251277 -3.04516e-20)
(0.847015 -0.257044 3.25926e-21)
(-1.71473 4.49675 0)
(-1.73447 3.83438 0)
(-1.40097 3.22847 6.93683e-19)
(-1.05379 2.44403 -8.07613e-19)
(-0.670026 1.64409 1.62235e-19)
(-0.309071 0.975361 -9.78075e-20)
(0.00136397 0.494324 0)
(0.259848 0.182547 7.73406e-20)
(0.471591 -0.00293892 0)
(0.639784 -0.104252 0)
(0.775867 -0.152582 0)
(-1.64963 4.54303 2.30681e-18)
(-1.71656 3.98703 -1.03782e-18)
(-1.45631 3.49614 -1.47355e-19)
(-1.18871 2.82736 0)
(-0.866293 2.09029 -9.98712e-20)
(-0.530692 1.42297 -1.78488e-20)
(-0.213865 0.902007 1.32712e-20)
(0.0712645 0.52844 7.72657e-20)
(0.318271 0.273388 7.42242e-20)
(0.522356 0.106139 0)
(0.694579 0.00133464 -6.69822e-20)
(-1.57283 4.5824 2.07757e-18)
(-1.69383 4.10881 -4.12853e-19)
(-1.50315 3.72567 0)
(-1.31765 3.19966 0)
(-1.0631 2.58248 2.56376e-19)
(-0.760042 1.96885 0)
(-0.44159 1.43329 1.0213e-19)
(-0.134713 0.999327 -8.12465e-20)
(0.142162 0.663674 -7.72346e-20)
(0.37745 0.415188 0)
(0.581616 0.238154 3.65739e-20)
(-1.55924 4.43958 2.76125e-19)
(-1.6899 4.1449 -2.22973e-19)
(-1.58416 3.90667 1.359e-19)
(-1.44901 3.5504 1.00259e-19)
(-1.23741 3.10908 -4.39229e-20)
(-0.960163 2.60903 1.11225e-19)
(-0.649259 2.09927 -1.68525e-19)
(-0.33936 1.62278 0)
(-0.0527793 1.21069 -8.28552e-21)
(0.198882 0.878134 1.11526e-20)
(0.443411 0.616311 -6.84381e-20)
(-1.56859 4.71974 0)
(-1.62918 4.33168 0)
(-1.52428 4.16036 -3.24917e-19)
(-1.38266 3.93298 -7.25333e-20)
(-1.19291 3.65225 1.45119e-19)
(-0.963164 3.28115 3.97158e-20)
(-0.715206 2.83749 -3.10619e-20)
(-0.46861 2.36646 0)
(-0.235991 1.91927 1.69072e-20)
(-0.0291422 1.53237 0)
(0.215686 1.17349 5.99429e-20)
(-0.798716 2.69981 1.06283e-18)
(-1.01768 2.87225 -1.69994e-19)
(-0.811586 2.92599 8.01266e-20)
(-0.682533 2.98802 0)
(-0.568286 3.02918 -1.27245e-19)
(-0.46588 3.02668 3.06787e-21)
(-0.364983 2.95503 -2.75927e-20)
(-0.234821 2.75987 2.14871e-20)
(-0.096458 2.49591 0)
(0.0339036 2.20436 0)
(0.198293 1.8247 0)
(0.0362779 4.58125 5.23704e-18)
(0.0140931 3.61676 0)
(0.69067 2.77675 -2.10103e-18)
(1.10301 2.17751 3.67766e-18)
(1.33466 1.72645 -1.75328e-18)
(1.46608 1.37868 5.74863e-19)
(1.54153 1.10685 0)
(1.5888 0.893462 -5.35774e-19)
(1.6241 0.726317 6.54862e-19)
(1.6545 0.597169 8.33245e-21)
(1.68062 0.503882 1.88625e-19)
(-2.44774 0.715894 2.02834e-18)
(-1.28868 1.74323 5.95543e-19)
(-0.596281 1.95916 -3.90016e-19)
(0.0942744 1.83918 -2.66297e-19)
(0.584564 1.60133 -1.91972e-18)
(0.929126 1.34352 7.42686e-19)
(1.15837 1.10367 -8.07842e-19)
(1.31101 0.897321 -1.09348e-19)
(1.41859 0.728524 -8.0159e-19)
(1.49878 0.595201 8.20123e-20)
(1.55756 0.497956 0)
(-2.36521 -0.368066 0)
(-1.37547 0.237889 8.68057e-19)
(-1.17482 0.62905 0)
(-0.626526 1.0018 0)
(-0.0711361 1.16607 0)
(0.417431 1.12798 -7.89397e-20)
(0.785023 0.993466 -1.44481e-18)
(1.03299 0.834181 1.05931e-18)
(1.20654 0.687467 0)
(1.33222 0.565209 0)
(1.42089 0.471824 3.80221e-19)
(-1.83158 -0.954989 -1.88631e-18)
(-0.843643 -0.476932 1.89228e-18)
(-1.05058 -0.200124 -1.14931e-18)
(-0.745868 0.180227 0)
(-0.402058 0.464652 0)
(0.00147501 0.632602 6.76637e-19)
(0.391709 0.678091 2.77277e-19)
(0.721583 0.647615 -1.57609e-19)
(0.972598 0.573631 6.33636e-19)
(1.15889 0.490512 0)
(1.28662 0.417413 -3.75226e-19)
(-1.23656 -1.22504 -1.11626e-18)
(-0.316461 -0.892934 1.43405e-18)
(-0.684182 -0.73061 -3.38174e-19)
(-0.508535 -0.375186 -9.88584e-19)
(-0.329721 -0.0750219 4.27937e-19)
(-0.0632924 0.169092 -3.23425e-19)
(0.237102 0.317921 8.17758e-19)
(0.534342 0.380871 5.30776e-19)
(0.787997 0.383676 -4.52635e-19)
(0.992845 0.35606 4.52716e-19)
(1.14026 0.320257 0)
(-0.729044 -1.31354 0)
(0.101065 -1.108 5.56796e-19)
(-0.297857 -1.03994 -6.53248e-19)
(-0.182931 -0.737286 1.12316e-19)
(-0.125515 -0.479366 0)
(0.0341549 -0.227525 0)
(0.243872 -0.0264447 0)
(0.474076 0.105302 -5.77165e-19)
(0.695547 0.177405 1.2124e-20)
(0.889011 0.206364 -1.20958e-19)
(1.03214 0.212196 -2.82755e-20)
(-0.324602 -1.29837 -5.20089e-19)
(0.415889 -1.1972 2.96356e-20)
(0.0402835 -1.19578 -1.50183e-21)
(0.137501 -0.937532 -1.05434e-19)
(0.120898 -0.740682 -3.06026e-19)
(0.208994 -0.508075 2.54854e-19)
(0.338326 -0.303581 0)
(0.502773 -0.141802 0)
(0.677722 -0.0281326 -1.42181e-19)
(0.842504 0.0415211 -2.31005e-19)
(0.970653 0.0799744 4.11223e-20)
(-0.00589243 -1.24396 7.43975e-19)
(0.640166 -1.22842 2.29214e-19)
(0.315697 -1.26642 -5.21682e-20)
(0.415482 -1.0371 1.06805e-19)
(0.352944 -0.894955 -1.71014e-19)
(0.406471 -0.690018 0)
(0.476 -0.501173 0)
(0.583342 -0.333887 2.25139e-19)
(0.709979 -0.200957 -2.03656e-19)
(0.839548 -0.104722 -1.05372e-19)
(0.94591 -0.0410633 6.97412e-20)
(0.2609 -1.18048 1.20962e-19)
(0.812913 -1.24533 4.14345e-19)
(0.529771 -1.28371 1.27961e-19)
(0.653989 -1.08586 -4.06265e-19)
(0.558093 -0.978784 0)
(0.594105 -0.800566 4.05926e-21)
(0.625437 -0.633099 -1.90656e-19)
(0.690907 -0.472656 1.62345e-19)
(0.77716 -0.334525 -1.79971e-19)
(0.873714 -0.2256 1.59835e-19)
(0.956872 -0.150073 -1.35348e-19)
(0.470415 -1.11998 -2.47597e-19)
(0.987014 -1.24779 -1.57359e-19)
(0.715632 -1.26992 0)
(0.837584 -1.11262 3.76626e-20)
(0.743168 -1.01747 -7.01531e-20)
(0.763902 -0.862602 -6.16804e-20)
(0.77039 -0.715408 3.76739e-20)
(0.806347 -0.566967 -6.61746e-20)
(0.860685 -0.432979 -1.1998e-19)
(0.92818 -0.321675 9.00195e-20)
(0.988435 -0.239724 0)
(0.617485 -1.06019 1.27818e-19)
(1.13962 -1.22615 1.44944e-18)
(0.891263 -1.24488 -4.21925e-19)
(0.994707 -1.11162 -6.73665e-19)
(0.904954 -1.02775 2.65614e-19)
(0.914688 -0.891424 -4.94824e-20)
(0.904187 -0.761516 0)
(0.918793 -0.626007 -1.59019e-20)
(0.947989 -0.500369 0)
(0.991386 -0.391864 1.87773e-20)
(1.03039 -0.308078 0)
(0.731066 -0.995923 0)
(1.26399 -1.18335 1.43148e-18)
(1.04075 -1.21036 -8.79324e-19)
(1.1327 -1.09132 -6.28287e-19)
(1.04582 -1.01788 2.98588e-19)
(1.04763 -0.896071 1.04618e-19)
(1.0247 -0.780735 -2.18526e-19)
(1.02317 -0.657483 2.03357e-19)
(1.0321 -0.541668 2.52348e-20)
(1.05485 -0.438929 -3.76288e-20)
(1.07565 -0.357764 0)
(0.830371 -0.928246 1.46267e-18)
(1.37705 -1.12977 1.93032e-18)
(1.1672 -1.16759 -1.20882e-18)
(1.25401 -1.05688 0)
(1.16777 -0.992805 -4.59036e-19)
(1.16394 -0.882207 6.89557e-19)
(1.13105 -0.779415 0)
(1.11676 -0.66742 0)
(1.10887 -0.562037 0)
(1.11433 -0.467147 1.04628e-19)
(1.11586 -0.394051 0)
(0.919842 -0.842569 -2.96937e-19)
(1.47977 -1.0574 -4.02913e-19)
(1.27943 -1.11351 -1.13659e-18)
(1.36064 -1.0107 1.27293e-19)
(1.27384 -0.955309 8.88492e-19)
(1.26502 -0.854152 -3.31521e-19)
(1.22337 -0.762521 0)
(1.19825 -0.660885 0)
(1.17532 -0.565999 -1.12148e-19)
(1.1658 -0.480075 2.34248e-19)
(1.15281 -0.415813 -1.08533e-20)
(0.989491 -0.74393 -2.32481e-18)
(1.55806 -0.976105 1.81582e-18)
(1.37669 -1.0492 0)
(1.45008 -0.955164 0)
(1.36685 -0.9055 -5.77716e-19)
(1.35077 -0.813664 0)
(1.30242 -0.73127 -1.82592e-19)
(1.26693 -0.640077 3.23131e-19)
(1.23077 -0.556089 0)
(1.20603 -0.480349 -1.4762e-19)
(1.17931 -0.42572 -2.21281e-19)
(1.05102 -0.642628 0)
(1.61943 -0.887832 4.26252e-19)
(1.4616 -0.975677 0)
(1.52474 -0.891666 0)
(1.44731 -0.845384 1.14418e-18)
(1.42238 -0.762682 -4.28909e-19)
(1.36832 -0.688174 -4.81727e-19)
(1.32246 -0.607507 -2.90209e-19)
(1.27435 -0.534355 -1.26011e-19)
(1.23471 -0.469452 5.574e-19)
(1.19474 -0.423619 1.43224e-19)
(1.10588 -0.533972 1.27929e-18)
(1.66825 -0.786754 1.6915e-18)
(1.53665 -0.890153 -1.33593e-18)
(1.58698 -0.819105 4.31927e-19)
(1.51571 -0.775355 -3.95444e-20)
(1.48058 -0.701794 -4.29829e-19)
(1.42081 -0.634759 2.44854e-19)
(1.36454 -0.564999 2.70109e-19)
(1.30558 -0.503021 -2.30672e-19)
(1.25234 -0.449609 -5.77417e-19)
(1.20029 -0.412625 -1.87875e-21)
(1.14781 -0.415271 0)
(1.70085 -0.671086 -4.51274e-19)
(1.5988 -0.790572 0)
(1.63647 -0.735449 -4.47646e-19)
(1.57102 -0.694788 1.72551e-20)
(1.52506 -0.630842 1.81359e-19)
(1.45901 -0.572075 0)
(1.39271 -0.514212 2.86247e-19)