# Force coefficients
# liftDir    : (0.000000e+00 1.000000e+00 0.000000e+00)
# dragDir    : (1.000000e+00 0.000000e+00 0.000000e+00)
# pitchAxis  : (0.000000e+00 0.000000e+00 1.000000e+00)
# magUInf    : 2.800000e+00
# lRef       : 3.200000e-02
# Aref       : 3.200000e-02
# CofR       : (0.000000e+00 0.000000e+00 0.000000e+00)
# Time       	Cm           	Cd           	Cl           	Cl(f)        	Cl(r)        	Cm	Cd	Cl	Cl(f)	Cl(r)
1.418253e-07	-1.726083e-04	2.555346e-04	4.582914e-03	2.118849e-03	2.464065e-03
7.542174e-06	-2.592545e-03	9.929067e-04	-4.433024e-04	-2.814196e-03	2.370894e-03
1.079125e-04	-1.451142e-03	5.920976e-04	-3.449413e-04	-1.623612e-03	1.278671e-03
1.087004e-03	-7.570854e-04	4.101820e-04	-5.850186e-04	-1.049595e-03	4.645760e-04
