/*--------------------------------*- C++ -*----------------------------------*\
| =========                 |                                                 |
| \\      /  F ield         | OpenFOAM: The Open Source CFD Toolbox           |
|  \\    /   O peration     | Version:  3.0.1                                 |
|   \\  /    A nd           | Web:      www.OpenFOAM.org                      |
|    \\/     M anipulation  |                                                 |
\*---------------------------------------------------------------------------*/
FoamFile
{
    version     2.0;
    format      ascii;
    class       surfaceVectorField;
    location    "0.748934";
    object      Uf;
}
// * * * * * * * * * * * * * * * * * * * * * * * * * * * * * * * * * * * * * //

dimensions      [0 1 -1 0 0 0 0];

internalField   nonuniform List<vector> 
32369
(
(6.87403 -4.9306 -7.36642e-19)
(5.18359 -5.24043 -4.66333e-19)
(9.19418 -3.59916 -6.96337e-19)
(6.17408 -3.79763 -2.70767e-19)
(5.12637 -4.67115 -2.705e-18)
(7.03063 -2.52067 -1.53583e-19)
(5.82672 -3.03623 2.40133e-19)
(5.17972 -3.87395 2.31657e-18)
(6.43679 -2.3516 1.76929e-19)
(5.51168 -2.4161 -5.31023e-20)
(5.13451 -3.16428 -8.22175e-19)
(6.07247 -2.08137 1.18706e-19)
(5.19032 -1.9459 0)
(4.9875 -2.56431 7.42283e-19)
(5.61334 -1.72216 4.40203e-20)
(4.88336 -1.58755 4.15971e-20)
(4.78295 -2.07955 0)
(5.21058 -1.42306 -1.53999e-19)
(4.59771 -1.31095 2.55905e-20)
(4.55657 -1.69554 4.81325e-20)
(4.85739 -1.17571 4.51298e-20)
(4.33768 -1.09396 -1.90618e-20)
(4.32957 -1.3939 -4.21648e-19)
(4.54941 -0.98048 -2.67147e-20)
(4.10399 -0.921451 1.42862e-20)
(4.11363 -1.15576 2.61178e-20)
(4.27961 -0.82565 1.2723e-20)
(3.89502 -0.784002 -1.93316e-21)
(3.91423 -0.967714 1.94271e-19)
(4.04147 -0.700841 7.03061e-21)
(3.73056 -0.828657 7.61803e-21)
(3.83289 -0.612109 -2.17549e-21)
(3.6706 -0.671379 -5.85556e-19)
(3.45853 -5.39245 -2.03186e-18)
(2.07585 -4.80769 6.25966e-20)
(4.0408 -4.66551 -6.62211e-19)
(2.94711 -4.71344 3.42399e-18)
(4.39746 -3.94661 1.51736e-18)
(3.55078 -4.29007 -9.83014e-19)
(4.55501 -3.26848 -2.94274e-19)
(3.94338 -3.73129 7.30539e-19)
(4.55548 -2.67442 7.62759e-19)
(4.14793 -3.15704 1.93613e-19)
(4.45315 -2.18036 1.12623e-20)
(4.19755 -2.62504 -7.56883e-19)
(4.29547 -1.78243 -3.31572e-19)
(4.1444 -2.16251 -8.30122e-19)
(4.11566 -1.46696 -4.50229e-19)
(4.03231 -1.77827 -7.82041e-20)
(3.93388 -1.21811 1.7695e-19)
(3.89284 -1.46689 7.7042e-21)
(3.76163 -1.02122 2.24485e-19)
(3.74479 -1.21816 1.8812e-19)
(3.59761 -1.02953 3.40646e-19)
(3.57896 -0.860012 -4.79585e-19)
(1.72397 -4.45457 4.94376e-18)
(0.841758 -3.83618 -5.47596e-19)
(2.47588 -4.44641 2.98844e-18)
(1.59946 -4.01361 5.12411e-18)
(3.05535 -4.10887 -1.83875e-18)
(2.23696 -4.02236 -2.64517e-18)
(3.47394 -3.64039 1.01267e-18)
(2.80415 -3.77908 -4.77673e-19)
(3.73579 -3.12158 -1.15054e-18)
(3.2146 -3.37878 8.09786e-21)
(3.85489 -2.61862 -1.53802e-18)
(3.4739 -2.92844 1.79195e-19)
(3.86428 -2.17086 -7.1181e-19)
(3.60129 -2.48326 -1.39196e-18)
(3.80307 -1.79336 3.27747e-19)
(3.62874 -2.07784 2.87507e-19)
(3.70463 -1.48554 0)
(3.59141 -1.7286 6.18792e-20)
(3.59121 -1.2407 2.87031e-19)
(3.51828 -1.44008 6.50477e-19)
(3.42857 -1.21285 3.21564e-19)
(3.44704 -1.03776 -2.00106e-20)
(0.906005 -3.48236 -6.48251e-19)
(0.498212 -3.16036 -5.19922e-20)
(1.42295 -3.71428 0)
(0.967913 -3.31996 1.2063e-18)
(2.01374 -3.77062 -1.53136e-18)
(1.3898 -3.47987 0)
(2.53827 -3.58522 -1.44066e-18)
(1.89926 -3.46752 -2.1395e-18)
(2.93474 -3.24067 1.30316e-18)
(2.37163 -3.29009 -8.31554e-19)
(3.20561 -2.83348 4.63995e-19)
(2.74411 -2.99135 9.53917e-19)
(3.36136 -2.4208 -6.14253e-19)
(3.00172 -2.63092 6.43196e-19)
(3.42294 -2.03946 5.53202e-20)
(3.15547 -2.26023 -1.08304e-18)
(3.41547 -1.70795 6.10155e-19)
(3.22879 -1.91269 1.13977e-18)
(3.36636 -1.43039 7.17798e-19)
(3.24362 -1.60522 3.32232e-20)
(3.21443 -1.35064 0)
(3.286 -1.18962 -1.21096e-18)
(0.645914 -2.95784 1.43989e-18)
(0.432482 -2.72765 9.66139e-19)
(0.908647 -3.13213 1.31756e-18)
(0.768341 -2.83672 3.3179e-18)
(1.27781 -3.23192 -3.92323e-19)
(0.991149 -2.97794 -1.09264e-18)
(1.718 -3.23128 -1.58645e-18)
(1.34804 -3.03505 4.02418e-19)
(2.15165 -3.09854 -1.2187e-18)
(1.74628 -2.99254 -2.44073e-18)
(2.51173 -2.83881 1.22691e-18)
(2.12402 -2.8298 1.00911e-18)
(2.7746 -2.50845 3.34681e-19)
(2.43992 -2.5786 1.84396e-18)
(2.94484 -2.16061 -3.21038e-19)
(2.67548 -2.28009 -3.1019e-19)
(3.04171 -1.8303 5.85947e-19)
(2.83354 -1.96954 4.08385e-19)
(3.08417 -1.5362 -7.65934e-19)
(2.9288 -1.67389 -1.08572e-18)
(2.96512 -1.41982 5.13399e-19)
(3.07129 -1.26686 0)
(0.582985 -2.55345 2.40896e-18)
(0.412262 -2.35592 -8.06291e-19)
(0.776361 -2.67754 1.334e-18)
(0.676225 -2.41139 2.40201e-18)
(1.02424 -2.77892 -4.62305e-19)
(0.82541 -2.53733 -1.03411e-19)
(1.32838 -2.81698 -1.7009e-19)
(1.0861 -2.6033 -3.56454e-19)
(1.66936 -2.76148 -4.51699e-19)
(1.38705 -2.60669 -6.40626e-19)
(2.00588 -2.61087 1.58617e-18)
(1.7077 -2.52609 4.97175e-19)
(2.30142 -2.38598 1.4303e-18)
(2.01248 -2.36787 5.76578e-19)
(2.53388 -2.11828 2.91361e-19)
(2.27412 -2.15316 -4.99117e-19)
(2.69842 -1.83976 -1.10441e-18)
(2.47978 -1.90831 -6.49725e-19)
(2.80462 -1.57512 5.94558e-21)
(2.62763 -1.65927 -3.98237e-19)
(2.71302 -1.43051 -1.39767e-20)
(2.85585 -1.32234 4.07202e-19)
(0.551637 -2.20684 -1.14303e-18)
(0.414586 -2.06778 -1.2345e-18)
(0.694284 -2.28352 1.20016e-18)
(0.638263 -2.07289 2.95446e-19)
(0.884192 -2.3677 7.17797e-20)
(0.746445 -2.16534 1.01953e-19)
(1.11847 -2.41395 -7.57202e-19)
(0.94784 -2.22323 -4.61413e-19)
(1.38908 -2.4012 2.45658e-19)
(1.18274 -2.24014 4.88909e-19)
(1.67536 -2.31927 -4.78419e-19)
(1.44527 -2.20186 4.11878e-19)
(1.95104 -2.17328 -1.21973e-18)
(1.71397 -2.10615 -1.54944e-20)
(2.1931 -1.97996 -1.46698e-18)
(1.96618 -1.96061 -1.61785e-18)
(2.38812 -1.76137 -1.9061e-20)
(2.18548 -1.77965 1.75635e-18)
(2.53281 -1.53859 -4.45298e-19)
(2.36167 -1.5831 -2.09256e-20)
(2.48212 -1.39596 -5.00105e-19)
(2.61983 -1.31492 -4.4305e-19)
(0.536542 -1.92245 0)
(0.41319 -1.821 -9.57488e-19)
(0.652492 -1.95884 -7.84899e-19)
(0.61648 -1.79437 2.53572e-19)
(0.805542 -2.0214 -3.7092e-19)
(0.704933 -1.85785 -8.75653e-19)
(0.993931 -2.06115 7.22665e-19)
(0.869347 -1.90238 6.78384e-19)
(1.21341 -2.06335 6.75902e-19)
(1.06075 -1.92026 -5.35895e-19)
(1.45378 -2.01918 8.7609e-19)
(1.27838 -1.9014 3.98053e-19)
(1.69883 -1.92722 -3.40309e-19)
(1.50992 -1.84221 5.30984e-19)
(1.93041 -1.7939 1.17288e-18)
(1.73999 -1.74423 -3.40214e-19)
(2.13398 -1.63191 1.86542e-18)
(1.95464 -1.61364 6.43321e-19)
(2.30268 -1.45665 -2.31988e-20)
(2.14047 -1.46234 -2.72808e-20)
(2.27661 -1.31041 0)
(2.42836 -1.26389 0)
(0.528088 -1.68078 -8.79837e-19)
(0.418405 -1.59929 -3.58921e-19)
(0.629706 -1.6887 2.79968e-19)
(0.606907 -1.55048 2.66781e-19)
(0.760319 -1.73285 0)
(0.681479 -1.59522 0)
(0.91845 -1.76314 -4.414e-19)
(0.822161 -1.62877 2.73819e-19)
(1.10245 -1.7682 -8.79593e-19)
(0.984 -1.64346 -4.92974e-19)
(1.30698 -1.74214 5.97315e-20)
(1.16913 -1.6328 2.85409e-19)
(1.52222 -1.68237 6.00385e-19)
(1.37013 -1.59399 -7.56398e-19)
(1.73545 -1.59016 -9.53483e-19)
(1.57687 -1.52642 1.5093e-18)
(1.9344 -1.47122 -1.1516e-18)
(1.77919 -1.43179 -7.97122e-19)
(2.11075 -1.33533 1.82438e-20)
(1.96475 -1.31588 1.63968e-20)
(2.11051 -1.19143 -2.46937e-19)
(2.25743 -1.18115 0)
(0.538632 -1.47335 6.87586e-19)
(0.440086 -1.42502 5.95319e-19)
(0.624265 -1.45719 1.00864e-20)
(0.611057 -1.34551 9.18259e-21)
(0.73608 -1.48676 2.46119e-19)
(0.671518 -1.3707 0)
(0.871826 -1.50816 3.02475e-19)
(0.794213 -1.39294 -2.51585e-19)
(1.03014 -1.51172 5.91262e-19)
(0.934444 -1.40211 2.01779e-19)
(1.20774 -1.49373 -4.10287e-19)
(1.09579 -1.39365 3.39877e-19)
(1.39827 -1.45205 -7.44299e-20)
(1.2732 -1.36565 -1.27238e-18)
(1.5928 -1.38598 1.86178e-18)
(1.45968 -1.3169 9.50724e-19)
(1.78165 -1.29693 2.947e-19)
(1.64801 -1.24694 5.08377e-19)
(1.95603 -1.18911 -2.19193e-19)
(1.82789 -1.15838 0)
(1.97432 -1.06206 -2.46755e-19)
(2.10328 -1.05531 -6.81537e-19)
(0.551474 -1.30427 0)
(0.460635 -1.28935 6.32975e-20)
(0.62616 -1.25996 0)
(0.611897 -1.17309 -4.87603e-20)
(0.723668 -1.27431 -4.72841e-19)
(0.665434 -1.17746 0)
(0.842734 -1.28607 -3.99605e-19)
(0.776525 -1.18718 -3.50022e-19)
(0.982192 -1.28562 -6.29811e-20)
(0.901702 -1.18889 1.09307e-19)
(1.13975 -1.27038 -3.5341e-19)
(1.04606 -1.17889 -1.08725e-19)
(1.31093 -1.2388 -4.66573e-19)
(1.20591 -1.15591 -1.09248e-19)
(1.48914 -1.18969 -3.62741e-19)
(1.37621 -1.11875 -2.78973e-19)
(1.66656 -1.12303 2.69567e-19)
(1.55189 -1.06618 6.06223e-22)
(1.83581 -1.04185 0)
(1.72445 -0.998724 8.07455e-20)
(1.86698 -0.923237 -1.19839e-19)
(1.98891 -0.940983 8.28012e-19)
(0.546413 -1.15534 2.95424e-20)
(0.469957 -1.14566 9.67678e-20)
(0.621389 -1.08528 -5.3825e-20)
(0.603876 -1.00748 -7.48151e-20)
(0.713036 -1.08572 1.60277e-19)
(0.658075 -0.999187 1.79176e-20)
(0.822533 -1.08799 1.12929e-19)
(0.763119 -0.999823 9.42143e-20)
(0.949655 -1.08233 8.67024e-20)
(0.878893 -0.994963 -2.89221e-20)
(1.09319 -1.06691 1.35497e-19)
(1.01201 -0.982238 4.51289e-20)
(1.25009 -1.04079 9.60666e-20)
(1.15966 -0.961246 -3.47475e-20)
(1.41546 -1.00283 5.64111e-20)
(1.3181 -0.931257 2.75953e-19)
(1.58322 -0.952191 -1.93281e-19)
(1.48375 -0.890875 -3.47847e-19)
(1.74727 -0.890033 -5.377e-21)
(1.65031 -0.839174 1.25158e-19)
(1.79294 -0.778561 -1.1704e-19)
(1.9015 -0.810982 -6.91358e-19)
(0.541322 -1.00747 1.39429e-20)
(0.480939 -1.00442 3.37859e-20)
(0.615788 -0.919688 -1.13524e-20)
(0.599784 -0.848244 -1.10144e-19)
(0.703773 -0.910404 -5.70077e-20)
(0.653586 -0.830163 1.50373e-19)
(0.807471 -0.905169 -3.58855e-20)
(0.753564 -0.823703 -1.90196e-19)
(0.92689 -0.89465 -7.90077e-20)
(0.862961 -0.813366 6.56151e-20)
(1.06134 -0.877894 -1.18356e-19)
(0.988952 -0.797839 -2.56959e-19)
(1.20864 -0.854669 1.12187e-19)
(1.12879 -0.777508 -3.84317e-20)
(1.36505 -0.824067 -6.22501e-20)
(1.27934 -0.752225 -1.19072e-19)
(1.52585 -0.7844 -7.85635e-20)
(1.43775 -0.720576 -1.21607e-19)
(1.68674 -0.733735 4.58571e-20)
(1.59945 -0.6801 4.38159e-20)
(1.73957 -0.629887 2.41617e-19)
(1.84282 -0.657264 2.55875e-21)
(0.547381 -0.871552 -7.60381e-20)
(0.489298 -0.899182 -2.0862e-19)
(0.615837 -0.763933 2.64568e-20)
(0.594779 -0.707915 1.60597e-19)
(0.698464 -0.744496 5.28353e-20)
(0.649891 -0.672861 4.74279e-21)
(0.797247 -0.732094 -1.14944e-19)
(0.747026 -0.656772 -1.97376e-19)
(0.911554 -0.716944 -7.8726e-20)
(0.852852 -0.640161 -7.56944e-20)
(1.04047 -0.698472 -1.99979e-19)
(0.975028 -0.621419 -8.4301e-20)
(1.18192 -0.677023 -2.62153e-19)
(1.11064 -0.60117 1.46756e-19)
(1.33252 -0.65202 -1.80173e-19)
(1.25663 -0.579704 -3.29525e-19)
(1.48782 -0.621473 -1.42554e-20)
(1.41019 -0.555802 -1.28888e-20)
(1.64314 -0.583276 2.10955e-19)
(1.56797 -0.526489 -2.54113e-19)
(1.70508 -0.488316 1.30858e-19)
(1.79339 -0.529538 2.89426e-18)
(0.53713 -0.744337 -5.58454e-21)
(0.496428 -0.776983 8.90003e-20)
(0.610554 -0.614782 1.54434e-19)
(0.585796 -0.561005 2.48263e-19)
(0.693617 -0.584382 -2.25637e-19)
(0.646147 -0.515491 -1.29327e-19)
(0.791114 -0.564772 -1.70841e-19)
(0.743406 -0.492384 2.80079e-19)
(0.903418 -0.545088 -7.94196e-20)
(0.8486 -0.470483 -3.58871e-19)
(1.02998 -0.524915 2.41252e-19)
(0.970068 -0.448943 1.13416e-19)
(1.16874 -0.505111 1.31676e-19)
(1.10462 -0.429071 2.62988e-19)
(1.31627 -0.485423 -1.96331e-19)
(1.24898 -0.411687 6.57647e-20)
(1.46827 -0.463527 -2.27035e-19)
(1.39978 -0.395561 1.66267e-19)
(1.62094 -0.435942 -3.77519e-19)
(1.55488 -0.376845 -3.56448e-19)
(1.6909 -0.349117 -2.87916e-19)
(1.77154 -0.391429 9.5747e-19)
(0.528623 -0.61008 3.30466e-19)
(0.510526 -0.646909 8.63584e-20)
(0.606381 -0.463099 0)
(0.582211 -0.410231 1.43093e-19)
(0.691122 -0.424192 3.36991e-19)
(0.64753 -0.356146 0)
(0.789561 -0.398559 1.59449e-19)
(0.745089 -0.326872 5.40895e-19)
(0.902627 -0.375013 -2.15224e-19)
(0.851378 -0.300401 2.25227e-19)
(1.02983 -0.353807 1.19674e-19)
(0.974845 -0.276915 -9.12975e-20)
(1.16879 -0.336456 2.18638e-19)
(1.11124 -0.2586 -2.74206e-19)
(1.31557 -0.322938 4.20194e-19)
(1.25639 -0.246708 8.55578e-19)
(1.46558 -0.310354 8.72703e-20)
(1.40574 -0.239675 1.02904e-20)
(1.6152 -0.293729 -2.75386e-19)
(1.55826 -0.232676 -8.46807e-20)
(1.69154 -0.215364 -2.10817e-20)
(1.76377 -0.259402 -1.30491e-19)
(0.533672 -0.477285 -9.172e-20)
(0.520965 -0.537034 -3.85442e-19)
(0.610209 -0.311287 1.57397e-19)
(0.578947 -0.26797 1.42298e-19)
(0.694741 -0.262536 1.4869e-19)
(0.652582 -0.198332 0)
(0.79464 -0.230448 6.38954e-19)
(0.75256 -0.159617 -1.75904e-21)
(0.910627 -0.203379 3.82285e-19)
(0.862928 -0.127522 -2.0578e-19)
(1.04133 -0.182267 -4.67019e-19)
(0.991529 -0.102775 -1.78283e-20)
(1.18303 -0.16921 2.41551e-19)
(1.13246 -0.0880436 2.46075e-19)
(1.3306 -0.163956 5.39709e-19)
(1.28011 -0.0844057 -3.38447e-19)
(1.47884 -0.162505 -1.62074e-19)
(1.42829 -0.0889896 2.4082e-19)
(1.62425 -0.158259 1.42505e-19)
(1.57726 -0.0959054 2.11235e-19)
(1.70505 -0.0917712 -2.63188e-19)
(1.76595 -0.136748 1.52862e-18)
(0.532606 -0.347151 -1.89793e-19)
(0.537074 -0.415461 -1.83809e-19)
(0.614262 -0.159487 -4.08672e-21)
(0.576217 -0.119233 2.50469e-19)
(0.703007 -0.0978698 -1.52012e-19)
(0.662678 -0.0340576 -1.86789e-19)
(0.807977 -0.0582245 -8.2997e-19)
(0.768874 0.0142897 -1.68929e-19)
(0.930286 -0.0281816 -6.29217e-19)
(0.887877 0.0510299 -4.88439e-19)
(1.06747 -0.0091735 6.694e-19)
(1.0255 0.07457 1.82509e-19)
(1.21388 -0.00338659 -2.69263e-19)
(1.17331 0.0819851 2.73249e-19)
(1.36274 -0.00948769 -7.04117e-19)
(1.3236 0.0734098 -8.89376e-19)
(1.50846 -0.0216658 6.20752e-19)
(1.46893 0.0543077 1.31797e-19)
(1.64909 -0.0313745 -1.39763e-19)
(1.61187 0.0322819 7.0083e-19)
(1.73401 0.0242239 -6.69672e-20)
(1.78848 -0.023021 1.31111e-18)
(0.532444 -0.208942 2.27107e-19)
(0.560451 -0.284421 0)
(0.622284 -0.000113194 1.11673e-19)
(0.57947 0.0408766 -1.61337e-20)
(0.719765 0.0754752 -2.05269e-19)
(0.684409 0.141962 -1.57631e-19)
(0.835039 0.122083 2.07713e-19)
(0.802021 0.199426 0)
(0.968716 0.152429 2.56834e-19)
(0.935007 0.23767 -1.33922e-19)
(1.11575 0.164853 -2.21459e-19)
(1.08512 0.254393 2.77087e-19)
(1.26738 0.158345 -2.2607e-19)
(1.24001 0.247815 -5.69096e-20)
(1.4153 0.13699 -1.71324e-19)
(1.3899 0.221551 2.43057e-19)
(1.55494 0.109392 1.57876e-19)
(1.52784 0.185377 -2.62536e-19)
(1.68686 0.0861308 8.99757e-19)
(1.65927 0.148676 -1.53497e-19)
(1.77495 0.129802 3.26169e-19)
(1.81966 0.079952 -3.81279e-19)
(0.542522 -0.0568771 -2.42722e-19)
(0.596848 -0.139986 4.79609e-19)
(0.642976 0.172089 -2.69012e-19)
(0.594612 0.214625 -1.06206e-18)
(0.754222 0.261933 3.62579e-20)
(0.727469 0.332838 5.43653e-19)
(0.885592 0.312716 -3.25353e-19)
(0.864582 0.396918 0)
(1.03515 0.337458 -1.5747e-19)
(1.01697 0.429961 -3.6195e-19)
(1.19309 0.335693 4.77387e-19)
(1.18013 0.430373 6.61723e-20)
(1.34703 0.310159 3.73807e-19)
(1.3375 0.401085 6.58293e-19)
(1.48859 0.269729 1.87738e-19)
(1.47937 0.35216 -2.97443e-19)
(1.61621 0.226157 -5.69492e-19)
(1.6025 0.298076 1.73707e-19)
(1.73371 0.191276 -7.3057e-19)
(1.71529 0.249005 -1.16388e-18)
(1.81778 0.219259 1.80712e-19)
(1.84841 0.173777 -5.61358e-19)
(0.566351 0.11249 -2.76197e-19)
(0.658461 0.0236297 9.57761e-19)
(0.685891 0.361415 -4.44602e-19)
(0.635618 0.413662 -4.35909e-19)
(0.819838 0.462789 5.67933e-19)
(0.812351 0.539549 1.48303e-19)
(0.974706 0.510463 0)
(0.97786 0.601183 0)
(1.14257 0.51879 -1.85877e-19)
(1.15109 0.615321 0)
(1.30708 0.492383 1.6367e-19)
(1.3198 0.585912 -1.54278e-19)
(1.45442 0.441475 1.39616e-19)
(1.46698 0.526111 2.24588e-19)
(1.57998 0.380659 -3.88348e-19)
(1.58821 0.453793 -4.84986e-19)
(1.68774 0.323296 -2.68184e-19)
(1.68732 0.385469 3.16192e-19)
(1.78572 0.279604 -3.97465e-19)
(1.77574 0.32969 -2.52328e-19)
(1.86078 0.293425 2.87506e-20)
(1.8852 0.257521 -2.07663e-19)
(0.626629 0.321072 6.17869e-19)
(0.80529 0.225109 4.0874e-19)
(0.775242 0.568943 1.2831e-19)
(0.751982 0.614763 1.94671e-19)
(0.942386 0.672563 -3.89615e-19)
(0.970807 0.752222 -1.73131e-19)
(1.12569 0.700338 0)
(1.1711 0.788431 0)
(1.30522 0.675433 4.66775e-20)
(1.35151 0.761454 -6.17871e-21)
(1.46134 0.614467 -1.53107e-19)
(1.5032 0.690759 -6.3339e-20)
(1.58598 0.536968 -3.27084e-19)
(1.61932 0.601293 -5.82833e-20)
(1.68335 0.46032 8.4755e-20)
(1.70587 0.513884 -1.47695e-19)
(1.76376 0.395822 3.86472e-19)
(1.77329 0.44142 1.41432e-19)
(1.8385 0.349461 1.3728e-19)
(1.8343 0.388454 -6.96906e-20)
(1.90115 0.354398 1.01032e-19)
(1.91338 0.317559 -3.60273e-19)
(0.699254 0.442129 -8.89818e-20)
(1.1365 0.460581 0)
(0.894735 0.764345 -2.20456e-20)
(0.927711 0.883513 -3.08149e-19)
(1.13077 0.842925 1.11713e-19)
(1.31854 0.884799 1.34593e-19)
(1.34041 0.828444 -5.38555e-21)
(1.48451 0.862645 -7.7703e-20)
(1.51125 0.759887 -5.8553e-20)
(1.61716 0.79105 -3.5774e-20)
(1.63568 0.668181 9.04357e-20)
(1.71072 0.695038 -4.14624e-21)
(1.72175 0.576403 1.2675e-19)
(1.77355 0.60018 1.35669e-19)
(1.78321 0.497776 -1.42364e-19)
(1.81645 0.519884 3.0184e-20)
(1.83336 0.43848 -2.87523e-19)
(1.84908 0.459915 2.72175e-20)
(1.88423 0.400287 -9.94907e-20)
(1.88218 0.422216 -3.13669e-19)
(1.92835 0.401 3.45144e-19)
(1.94896 0.382509 2.08585e-19)
(1.47438 1.13062 -2.99387e-20)
(3.26906 0.40647 -4.94319e-18)
(1.68679 1.02888 5.61443e-19)
(1.46726 0.385129 2.74159e-18)
(1.78068 0.970984 -2.54353e-20)
(1.54838 0.397801 8.24353e-19)
(1.84457 0.866349 -7.80259e-20)
(1.68551 0.443273 -1.18348e-18)
(1.87656 0.749391 1.24805e-19)
(1.78032 0.438954 7.363e-19)
(1.88338 0.644611 3.1089e-20)
(1.83347 0.4151 -7.69663e-20)
(1.88497 0.55769 9.41031e-20)
(1.87265 0.393545 -5.87525e-20)
(1.88762 0.492082 1.87657e-19)
(1.89199 0.379047 1.49821e-19)
(1.89662 0.449973 3.67843e-20)
(1.89992 0.374888 9.20332e-20)
(1.91843 0.430268 9.0324e-20)
(1.90966 0.38457 -5.5826e-20)
(1.93411 0.411794 7.48191e-20)
(1.95416 0.427768 5.49594e-20)
(6.51805 -1.06997 -6.91806e-19)
(6.54255 -2.12244 -6.5681e-18)
(6.6982 -1.62795 0)
(5.39722 -0.523084 -9.11398e-19)
(6.65026 -1.6329 1.41951e-19)
(6.17467 -0.68691 -5.5865e-19)
(6.29708 -1.47817 2.13472e-19)
(6.43189 -0.812001 2.32808e-19)
(5.78438 -1.28081 2.16045e-19)
(6.13947 -0.758043 -5.10317e-20)
(5.29426 -1.0636 -1.66571e-19)
(5.70049 -0.699777 -5.10816e-19)
(4.8858 -0.883345 6.46338e-20)
(5.21258 -0.624903 3.71746e-19)
(4.54678 -0.742796 3.69569e-22)
(4.79518 -0.547586 -4.21763e-19)
(4.25703 -0.631008 6.20548e-21)
(4.45379 -0.476859 2.59928e-19)
(4.0068 -0.545964 7.786e-21)
(4.1597 -0.413307 -7.75288e-21)
(3.90849 -0.369811 -4.02057e-20)
(3.76508 -0.490623 -2.75617e-19)
(3.90035 -0.811819 -6.09596e-18)
(3.16572 -2.569 -5.93415e-18)
(5.0341 -0.37177 -1.30427e-18)
(3.41401 -0.76366 4.98742e-19)
(5.72582 -0.288691 -6.93344e-19)
(4.81869 -0.179018 -2.13589e-20)
(6.0524 -0.33478 -4.26961e-20)
(5.62097 -0.00720991 -1.47062e-18)
(5.99236 -0.378996 -1.24051e-19)
(5.88341 0.0823383 2.03995e-19)
(5.63736 -0.389915 -7.40082e-20)
(5.80533 0.0712124 -2.92685e-19)
(5.16592 -0.3703 3.81406e-19)
(5.43838 0.0175215 9.15094e-19)
(4.74345 -0.333739 -4.07433e-19)
(4.98167 -0.041754 2.86881e-19)
(4.39304 -0.295983 2.74398e-19)
(4.58137 -0.0741741 4.26062e-19)
(4.09371 -0.265636 -4.30587e-20)
(4.24302 -0.0848909 -1.18383e-19)
(3.95863 -0.0949145 -1.4181e-19)
(3.80401 -0.259247 6.98836e-20)
(2.54026 -2.01249 -1.01545e-19)
(1.42796 -4.52494 -7.48977e-19)
(3.52716 -0.68734 1.38471e-18)
(2.45234 -2.09856 3.55556e-20)
(4.48866 0.021643 -5.42513e-19)
(3.56004 -0.69867 1.58226e-18)
(5.21556 0.319339 -1.13854e-18)
(4.51119 0.0874184 1.60287e-19)
(5.58825 0.408133 3.44394e-19)
(5.15488 0.531565 -1.71382e-19)
(5.58408 0.364472 8.64766e-19)
(5.4522 0.690874 3.26408e-19)
(5.27673 0.260277 1.21342e-18)
(5.36506 0.654939 2.3788e-19)
(4.85555 0.161964 1.02218e-18)
(5.01883 0.517844 -2.77829e-19)
(4.47211 0.0991866 1.15581e-19)
(4.61854 0.380464 -6.38583e-20)
(4.14323 0.0648077 -1.19879e-19)
(4.26804 0.285748 -1.93378e-19)
(3.97331 0.210579 -1.58144e-19)
(3.84148 0.0297389 -1.88698e-19)
(1.63676 -4.67931 -6.86157e-19)
(0.994278 -6.17795 1.16437e-18)
(2.55937 -2.10108 9.75141e-20)
(1.8423 -3.63375 -7.18575e-19)
(3.50106 -0.581529 2.2999e-18)
(2.71359 -1.66781 1.57119e-18)
(4.32788 0.31298 1.18443e-18)
(3.61041 -0.319529 -8.93008e-19)
(4.92432 0.787034 -1.99573e-19)
(4.37365 0.558519 1.84699e-18)
(5.19941 0.936803 -4.68074e-19)
(4.88501 1.02565 1.6793e-19)
(5.13172 0.863801 -1.53946e-18)
(5.04188 1.15204 -4.7394e-19)
(4.82557 0.693679 -1.44555e-18)
(4.87552 1.04274 -4.44251e-19)
(4.45944 0.532057 -3.11297e-19)
(4.54619 0.844503 -2.78912e-19)
(4.13202 0.414452 1.39696e-19)
(4.20743 0.670792 2.82824e-19)
(3.91828 0.531751 1.45904e-19)
(3.81515 0.293941 -5.78268e-19)
(1.25951 -5.58208 1.29989e-18)
(0.893343 -6.73678 1.12537e-18)
(1.92811 -3.36145 4.62192e-19)
(1.40367 -4.92229 1.93937e-20)
(2.75763 -1.4712 -1.30811e-18)
(2.09743 -2.75223 3.33619e-20)
(3.56943 -0.0966337 -4.62076e-19)
(2.91172 -0.989134 -1.75277e-18)
(4.24366 0.792433 2.38819e-18)
(3.67995 0.292813 1.0225e-18)
(4.67533 1.24011 3.81531e-19)
(4.27843 1.10027 -5.05532e-19)
(4.79732 1.32407 7.28265e-19)
(4.59129 1.4641 1.6143e-18)
(4.64326 1.18018 8.42708e-19)
(4.58685 1.4684 -1.33141e-18)
(4.34675 0.964978 3.80758e-19)
(4.36435 1.27366 3.37036e-19)
(4.03756 0.773539 6.78456e-19)
(4.06949 1.04586 1.41549e-18)
(3.78826 0.853085 3.99113e-19)
(3.73358 0.576164 -3.17126e-19)
(1.12458 -6.27597 -1.89538e-20)
(0.965858 -6.92861 -8.86438e-21)
(1.49508 -4.56894 -4.28194e-19)
(1.22179 -5.80022 0)
(2.17975 -2.45581 -2.27573e-19)
(1.64315 -3.82016 -4.79874e-19)
(2.93515 -0.708632 -4.20675e-19)
(2.34819 -1.79582 3.48027e-19)
(3.61787 0.551804 -1.4335e-18)
(3.07733 -0.163422 -1.88789e-18)
(4.12137 1.3142 7.38193e-19)
(3.69534 0.976274 -1.86178e-18)
(4.36603 1.6158 -2.19953e-19)
(4.09156 1.60522 2.90274e-18)
(4.34221 1.57139 -2.02677e-18)
(4.20637 1.77523 -1.11697e-18)
(4.13795 1.3574 1.24561e-18)
(4.08726 1.63785 -7.26822e-19)
(3.87494 1.11739 1.4038e-18)
(3.85606 1.38755 6.56362e-19)
(3.60052 1.14706 -3.90985e-19)
(3.59114 0.839482 4.95699e-19)
(1.14925 -6.58405 -6.92402e-21)
(1.01427 -7.09775 -3.40646e-19)
(1.27637 -5.27922 0)
(1.19353 -6.23794 -5.28802e-19)
(1.7695 -3.37458 0)
(1.36812 -4.74963 4.23924e-19)
(2.41833 -1.41514 -8.46024e-19)
(1.91229 -2.65014 6.43952e-19)
(3.05979 0.157517 -2.20949e-18)
(2.56106 -0.739434 -9.50121e-19)
(3.57895 1.22018 -1.53475e-19)
(3.15298 0.70671 -1.30733e-18)
(3.89125 1.75893 2.36854e-18)
(3.57894 1.60395 1.40473e-18)
(3.9638 1.85652 9.53782e-20)
(3.76976 1.9659 1.24219e-18)
(3.84579 1.68681 -1.49173e-18)
(3.73724 1.92415 -2.00487e-19)
(3.63688 1.42625 -8.77743e-19)
(3.57299 1.68606 -3.51799e-19)
(3.3766 1.39567 -3.38505e-19)
(3.40764 1.12675 -4.28384e-19)
(1.1569 -6.82798 -8.49762e-19)
(1.0373 -7.25703 5.92844e-19)
(1.20633 -5.86172 -2.04371e-19)
(1.21088 -6.52322 -2.90368e-19)
(1.48964 -4.24828 1.05062e-18)
(1.24156 -5.40689 -1.13654e-18)
(2.00154 -2.1754 7.1517e-19)
(1.58781 -3.46039 6.57466e-19)
(2.56954 -0.336489 -1.88543e-20)
(2.12253 -1.37694 -4.66432e-19)
(3.06346 1.00578 2.11036e-20)
(2.65536 0.337525 6.47384e-19)
(3.3994 1.78137 3.12756e-19)
(3.0701 1.49005 -1.07896e-18)
(3.53477 2.04043 1.11081e-18)
(3.29838 2.0502 1.75695e-19)
(3.49083 1.94527 9.64608e-19)
(3.33196 2.12541 1.24784e-18)
(3.33874 1.68961 2.45252e-19)
(3.2319 1.92821 -1.27851e-19)
(3.10724 1.63271 -9.20087e-20)
(3.13433 1.37928 -4.87679e-19)
(1.16157 -7.03467 1.31981e-18)
(1.04403 -7.43043 2.13756e-18)
(1.19263 -6.20464 -1.16082e-18)
(1.21151 -6.76755 -4.47264e-19)
(1.31559 -4.83786 -1.75926e-18)
(1.17863 -5.81828 -1.23041e-18)
(1.67549 -2.8845 -4.19284e-19)
(1.35632 -4.1583 3.00769e-19)
(2.1393 -0.88274 7.41288e-20)
(1.754 -2.02641 -8.66542e-21)
(2.57613 0.703305 -2.68086e-19)
(2.19868 -0.0986116 5.82342e-19)
(2.9014 1.70345 -1.31767e-18)
(2.57048 1.28609 -8.22526e-19)
(3.0705 2.12828 2.38606e-19)
(2.80422 2.03755 -1.15286e-19)
(3.08742 2.12436 3.11501e-19)
(2.88353 2.23683 3.80315e-19)
(3.00354 1.89366 -5.65141e-19)
(2.84182 2.09152 1.10366e-19)
(2.77689 1.79746 -5.96001e-19)
(2.87585 1.56246 -6.86281e-19)
(1.15129 -7.22771 6.65022e-19)
(1.04422 -7.59651 2.31609e-18)
(1.16311 -6.48095 -4.15415e-19)
(1.20155 -6.97565 -7.14951e-19)
(1.21178 -5.30755 6.66078e-19)
(1.13549 -6.12236 3.71041e-19)
(1.42392 -3.521 7.47873e-19)
(1.20001 -4.71578 3.22751e-19)
(1.76194 -1.44529 4.36122e-19)
(1.44676 -2.64656 4.6209e-19)
(2.11486 0.337534 1.84958e-19)
(1.77738 -0.575303 -8.19814e-20)
(2.40134 1.54053 3.32879e-19)
(2.08037 1.00902 8.32329e-20)
(2.57968 2.12433 -1.45663e-21)
(2.29378 1.93509 1.87195e-20)
(2.64256 2.21755 2.11918e-19)
(2.40084 2.25653 0)
(2.61749 2.02645 1.58545e-19)
(2.41334 2.17462 1.6386e-20)
(2.40835 1.90298 -1.39827e-19)
(2.54682 1.73546 1.75265e-18)
(1.13427 -7.39612 1.24109e-18)
(1.02867 -7.71809 -1.04056e-18)
(1.13471 -6.71657 0)
(1.17269 -7.17207 8.51371e-19)
(1.14214 -5.68001 1.65929e-20)
(1.08978 -6.38053 0)
(1.22395 -4.06374 2.03919e-20)
(1.08383 -5.14141 9.46102e-22)
(1.4269 -2.00081 0)
(1.18493 -3.21579 4.54615e-19)
(1.67471 -0.0777559 -1.97812e-19)
(1.38534 -1.07661 -3.39957e-19)
(1.89955 1.29933 -2.27181e-19)
(1.5992 0.667719 -2.36559e-19)
(2.06795 2.02856 2.22478e-20)
(1.77249 1.74491 4.818e-22)
(2.16582 2.21896 -2.03457e-19)
(1.89321 2.17937 -2.00281e-19)
(2.20135 2.07836 -2.71806e-19)
(1.95713 2.16485 -4.66178e-19)
(2.00479 1.93159 5.39782e-20)
(2.19197 1.81272 4.49697e-20)
(1.11533 -7.5486 -1.70494e-18)
(0.996288 -7.84537 -3.49889e-18)
(1.09836 -6.92362 9.40229e-19)
(1.12574 -7.34303 1.67862e-18)
(1.06597 -5.9682 -1.61323e-20)
(1.02994 -6.59217 0)
(1.05393 -4.49786 3.88963e-19)
(0.971785 -5.46867 5.26971e-19)
(1.12566 -2.51993 2.02282e-19)
(0.954145 -3.70845 1.35706e-18)
(1.25444 -0.522539 -3.90209e-19)
(1.0188 -1.57695 -3.57442e-19)
(1.39987 0.989462 -3.43724e-20)
(1.12825 0.275227 -5.24819e-20)
(1.54374 1.84154 -2.0092e-19)
(1.24761 1.46937 -6.55547e-19)
(1.66814 2.12231 -4.34082e-19)
(1.3723 2.00022 -1.72016e-19)
(1.76279 2.03828 -1.97989e-19)
(1.48519 2.05348 4.51208e-19)
(1.60077 1.85875 1.85497e-19)
(1.83264 1.81446 1.84998e-18)
(1.07931 -7.6775 -7.87611e-19)
(0.969544 -7.94654 -5.31441e-19)
(1.03381 -7.09535 9.07145e-19)
(1.06811 -7.47057 8.44295e-19)
(0.969367 -6.20691 4.90466e-19)
(0.951947 -6.77378 1.31296e-18)
(0.887906 -4.86133 1.41147e-18)
(0.841139 -5.73519 3.32363e-20)
(0.847004 -2.99199 9.92611e-19)
(0.732849 -4.1394 -8.4662e-19)
(0.851502 -0.982772 -8.8097e-20)
(0.672618 -2.06464 -1.04767e-21)
(0.906842 0.6159 -6.78359e-19)
(0.668761 -0.162875 4.46115e-19)
(1.01774 1.56103 -6.27502e-19)
(0.728035 1.10722 -6.37769e-19)
(1.16341 1.92157 6.51358e-19)
(0.853445 1.71407 4.18006e-19)
(1.31229 1.89701 8.73443e-19)
(1.01207 1.83685 2.43911e-19)
(1.20651 1.69924 3.13069e-19)
(1.44406 1.71407 3.39135e-19)
(1.03856 -7.76768 9.65051e-19)
(0.943157 -7.99887 1.75585e-18)
(0.962602 -7.22803 1.17529e-18)
(0.990698 -7.55817 -1.5608e-18)
(0.856056 -6.40742 1.01285e-18)
(0.852606 -6.91332 1.92241e-18)
(0.717446 -5.17927 -2.10383e-18)
(0.690792 -5.96423 -5.1943e-19)
(0.57747 -3.43435 -1.94361e-18)
(0.499779 -4.52798 -1.72778e-18)
(0.466124 -1.4585 4.79783e-19)
(0.342701 -2.54783 -2.50221e-18)
(0.428134 0.17755 5.36398e-19)
(0.226699 -0.646141 1.4198e-18)
(0.503906 1.18271 3.48417e-19)
(0.226048 0.654788 0)
(0.669939 1.6109 2.86614e-20)
(0.355434 1.31589 3.91563e-19)
(0.876414 1.65261 -3.26936e-19)
(0.559619 1.50582 -4.56049e-19)
(0.819631 1.4394 -2.61938e-19)
(1.07299 1.53543 1.1708e-19)
(0.978737 -7.82048 -3.45692e-19)
(0.917699 -8.01779 9.86423e-19)
(0.871846 -7.31733 -1.16561e-18)
(0.893356 -7.60212 -1.57516e-18)
(0.721125 -6.56653 6.64767e-19)
(0.733148 -6.99754 6.02157e-19)
(0.522319 -5.45769 2.23847e-20)
(0.520662 -6.13657 0)
(0.30086 -3.84913 -2.19804e-18)
(0.252069 -4.8834 8.33269e-19)
(0.0940886 -1.95097 -1.8817e-18)
(0.0194465 -3.03699 -6.90003e-19)
(-0.0178654 -0.323709 1.03627e-18)
(-0.182093 -1.18383 8.52414e-19)
(0.0214018 0.706521 0)
(-0.239439 0.11906 -5.9368e-19)
(0.207794 1.18737 0)
(-0.101369 0.805987 5.84197e-19)
(0.470373 1.30083 -4.02271e-19)
(0.150415 1.05922 0)
(0.475796 1.0796 -4.5398e-19)
(0.733382 1.25198 -1.19685e-18)
(0.906496 -7.83109 3.94768e-21)
(0.89274 -7.99282 9.24484e-19)
(0.764509 -7.34935 0)
(0.781053 -7.5983 0)
(0.568721 -6.65664 0)
(0.594118 -7.02751 5.44974e-19)
(0.315383 -5.68966 7.41726e-19)
(0.331961 -6.24488 8.74765e-19)
(0.00683064 -4.26423 2.54202e-18)
(0.00217091 -5.16487 1.52343e-18)
(-0.266718 -2.46962 1.84936e-18)
(-0.303108 -3.56807 1.81722e-18)
(-0.446322 -0.895001 -7.79287e-19)
(-0.555431 -1.7719 -8.41024e-20)
(-0.41753 0.130249 -1.37745e-19)
(-0.640826 -0.51198 2.64537e-19)
(-0.199847 0.650207 6.49875e-19)
(-0.490813 0.180729 -1.1525e-18)
(0.117493 0.835402 0)
(-0.19922 0.49599 1.18033e-19)
(0.213472 0.600051 3.60142e-19)
(0.456357 0.922222 0)
(0.819122 -7.79194 1.01011e-18)
(0.857788 -7.90363 2.06161e-20)
(0.637712 -7.33341 4.87962e-19)
(0.648467 -7.53698 0)
(0.396529 -6.69368 1.38181e-18)
(0.42779 -7.00798 -3.58327e-20)
(0.0890098 -5.82358 1.58708e-18)
(0.11947 -6.3076 -6.28984e-20)
(-0.278298 -4.63749 7.69606e-19)
(-0.249675 -5.37145 -5.70663e-20)
(-0.609517 -3.07037 0)
(-0.609777 -4.09313 9.53012e-19)
(-0.811357 -1.54132 7.67405e-19)
(-0.879874 -2.47244 -1.3311e-18)
(-0.784465 -0.550027 -8.14352e-19)
(-0.966426 -1.23449 1.31883e-18)
(-0.532744 -0.00225615 -1.78402e-18)
(-0.793177 -0.554086 -1.1852e-18)
(-0.16663 0.260282 4.8318e-19)
(-0.468363 -0.179269 4.21727e-19)
(0.00334541 0.0588614 -1.78969e-19)
(0.207804 0.374255 8.38899e-19)
(0.705234 -7.68705 -9.72783e-19)
(0.799296 -7.73187 8.37457e-19)
(0.481046 -7.25808 -5.08071e-19)
(0.487636 -7.40307 0)
(0.192549 -6.68489 -1.43502e-18)
(0.222489 -6.92993 -1.55804e-18)
(-0.159484 -5.93398 -1.63987e-18)
(-0.13142 -6.33335 5.97474e-19)
(-0.551209 -4.95254 5.78406e-20)
(-0.522498 -5.56727 -7.1247e-19)
(-0.918735 -3.68337 -3.35827e-19)
(-0.887352 -4.57078 9.47997e-19)
(-1.10492 -2.31748 -8.81509e-19)
(-1.14196 -3.27711 -3.37529e-19)
(-1.06015 -1.32966 1.25655e-18)
(-1.19822 -2.08136 -1.14095e-18)
(-0.770199 -0.759904 8.47716e-19)
(-0.990304 -1.39456 5.20453e-19)
(-0.377377 -0.410582 -3.37035e-19)
(-0.641177 -0.951461 3.04735e-19)
(-0.127649 -0.574431 -2.78388e-19)
(0.0137016 -0.158188 -2.99694e-19)
(0.559337 -7.49521 1.86729e-18)