/*--------------------------------*- C++ -*----------------------------------*\
| =========                 |                                                 |
| \\      /  F ield         | OpenFOAM: The Open Source CFD Toolbox           |
|  \\    /   O peration     | Version:  3.0.1                                 |
|   \\  /    A nd           | Web:      www.OpenFOAM.org                      |
|    \\/     M anipulation  |                                                 |
\*---------------------------------------------------------------------------*/
FoamFile
{
    version     2.0;
    format      ascii;
    class       volScalarField;
    location    "0.419586";
    object      p;
}
// * * * * * * * * * * * * * * * * * * * * * * * * * * * * * * * * * * * * * //

dimensions      [0 2 -2 0 0 0 0];

internalField   nonuniform List<scalar> 
21246
(
-7.77026
-4.16076
-2.62426
-1.78111
-1.14758
-0.737696
-0.521211
-0.406178
-0.354018
-0.332194
-0.300827
-7.91466
-5.79817
-4.59985
-3.46357
-2.42396
-1.68652
-1.22808
-0.942396
-0.778122
-0.679176
-0.604168
-6.4059
-6.03166
-5.51406
-4.63548
-3.62309
-2.72575
-2.04201
-1.57059
-1.25314
-1.04456
-0.897834
-5.56777
-5.56079
-5.37601
-4.88742
-4.17696
-3.38867
-2.6698
-2.10587
-1.69407
-1.39703
-1.17745
-5.01181
-5.02763
-4.94711
-4.68983
-4.24734
-3.66233
-3.0423
-2.48899
-2.04122
-1.6935
-1.42235
-4.58834
-4.57409
-4.51787
-4.35945
-4.07649
-3.66429
-3.17986
-2.69806
-2.26847
-1.90873
-1.61116
-4.26872
-4.21121
-4.16045
-4.0326
-3.82909
-3.52901
-3.15886
-2.76299
-2.38123
-2.0377
-1.7364
-4.02643
-3.93691
-3.88022
-3.75436
-3.5853
-3.34893
-3.05742
-2.73406
-2.40496
-2.09169
-1.80462
-3.84498
-3.73063
-3.65917
-3.53042
-3.37509
-3.17087
-2.92696
-2.65472
-2.36944
-2.08658
-1.81678
-3.70697
-3.57062
-3.4884
-3.35542
-3.20146
-3.01168
-2.79392
-2.55356
-2.29955
-2.04237
-1.79154
-3.59089
-3.4376
-3.3502
-3.21097
-3.05453
-2.87118
-2.66675
-2.44442
-2.21026
-1.97169
-1.73765
-3.48502
-3.31868
-3.22855
-3.084
-2.92461
-2.74368
-2.54466
-2.33115
-2.10817
-1.88111
-1.65699
-3.39243
-3.21307
-3.11889
-2.96928
-2.80572
-2.62332
-2.42462
-2.21384
-1.99597
-1.77639
-1.56151
-3.30989
-3.11775
-3.01787
-2.86291
-2.69335
-2.50635
-2.30405
-2.09126
-1.87394
-1.65815
-1.44888
-3.22609
-3.02377
-2.91986
-2.75912
-2.58224
-2.38813
-2.1789
-1.96053
-1.7406
-1.52664
-1.32243
-3.14237
-2.93014
-2.82133
-2.65407
-2.4683
-2.26442
-2.04501
-1.81797
-1.59363
-1.3817
-1.18462
-3.05784
-2.83592
-2.72073
-2.54622
-2.34935
-2.13214
-1.8986
-1.66008
-1.43095
-1.22288
-1.03497
-2.96769
-2.73774
-2.61695
-2.43429
-2.22322
-1.98752
-1.73476
-1.48258
-1.2511
-1.05327
-0.884302
-2.8718
-2.63629
-2.51046
-2.31791
-2.08702
-1.82458
-1.54646
-1.28066
-1.05381
-0.876356
-0.732917
-2.77167
-2.53627
-2.40616
-2.19854
-1.93541
-1.63253
-1.32428
-1.05125
-0.843479
-0.700587
-0.59315
-2.67522
-2.44182
-2.30718
-2.06499
-1.74655
-1.39
-1.05245
-0.79535
-0.633519
-0.543663
-0.480453
-2.54904
-2.39473
-2.25963
-1.96406
-1.56377
-1.13572
-0.769302
-0.536889
-0.446693
-0.427569
-0.40674
-2.60498
-2.66167
-2.15115
-1.69392
-1.25222
-0.85894
-0.567949
-0.399576
-0.356868
-0.386269
-0.398393
-3.64056
-1.59131
-1.41935
-1.08556
-0.791874
-0.601332
-0.494775
-0.450515
-0.447346
-0.45664
-0.450211
-1.59523
-1.5295
-1.16034
-0.747703
-0.389674
-0.130225
0.000672932
0.0341307
0.0144816
-0.0188351
-0.0215158
0.69242
0.358881
0.213959
0.250658
0.39013
0.519199
0.5567
0.497698
0.386699
0.27432
0.223397
1.14825
0.987232
0.889623
0.844333
0.883556
0.95804
0.977368
0.884411
0.709382
0.516235
0.400624
1.12987
1.01203
0.970377
0.938685
0.953166
1.0113
1.06908
1.0395
0.870154
0.640987
0.503947
0.974794
0.837791
0.793371
0.741772
0.719501
0.735038
0.781319
0.825909
0.797193
0.65045
0.492956
0.774751
0.593194
0.522572
0.4235
0.339506
0.283337
0.269685
0.320594
0.412492
0.417079
0.342382
0.566764
0.327669
0.217882
0.0557105
-0.103954
-0.251088
-0.361398
-0.386538
-0.292545
-0.140034
-0.0540442
0.351451
0.06042
-0.0903559
-0.323154
-0.566258
-0.817858
-1.05057
-1.19928
-1.19272
-1.00083
-0.730249
0.151579
-0.193858
-0.380531
-0.685663
-1.01229
-1.37289
-1.74105
-2.04502
-2.17686
-2.03898
-1.67528
0.000633557
-0.431055
-0.625833
-1.00387
-1.40928
-1.87449
-2.37785
-2.85078
-3.14665
-3.10642
-2.73063
-0.109375
-0.623939
-0.78742
-1.25378
-1.73009
-2.28637
-2.90824
-3.53924
-4.00164
-4.09377
-3.75679
-0.183806
-0.68456
-0.94711
-1.41348
-1.95023
-2.57875
-3.28842
-4.0354
-4.63532
-4.88343
-4.61102
-0.193761
-0.677705
-0.999138
-1.47334
-2.04735
-2.72525
-3.49226
-4.29767
-5.01322
-5.37375
-5.12632
-0.118693
-0.582957
-0.935011
-1.41247
-1.99906
-2.69731
-3.49128
-4.32897
-5.09415
-5.51439
-5.39582
0.024634
-0.403683
-0.761514
-1.22732
-1.80436
-2.49623
-3.28407
-4.1095
-4.85894
-5.33054
-5.32165
0.241265
-0.139768
-0.486758
-0.928255
-1.47986
-2.14652
-2.90419
-3.68565
-4.39039
-4.86668
-4.95928
0.531006
0.200727
-0.126203
-0.536852
-1.05337
-1.67964
-2.38739
-3.10833
-3.75154
-4.1913
-4.29528
0.871066
0.585981
0.279686
-0.0998105
-0.573462
-1.13999
-1.77671
-2.43275
-3.00299
-3.3781
-3.50134
1.21236
0.958945
0.671321
0.331569
-0.0810111
-0.581532
-1.14654
-1.72057
-2.20849
-2.50675
-2.56482
1.49206
1.27077
1.01071
0.713217
0.352973
-0.0911901
-0.599665
-1.10431
-1.50382
-1.68831
-1.62329
1.7193
1.52395
1.27123
0.964598
0.586216
0.149261
-0.306771
-0.728726
-1.03314
-1.12685
-0.983976
1.84248
1.61118
1.29162
0.90298
0.482933
0.0699373
-0.307999
-0.623039
-0.833539
-0.907249
-0.861648
1.70118
1.37241
0.904803
0.450125
0.0660545
-0.229224
-0.457985
-0.644174
-0.773332
-0.794991
-0.698424
1.37753
0.544464
0.0532005
-0.26656
-0.433684
-0.525044
-0.597016
-0.661903
-0.7031
-0.683679
-0.595868
18.653
11.6895
8.01345
6.29863
5.21831
4.56354
4.08021
3.66733
3.2976
2.98031
2.78591
24.4647
21.1624
16.9615
13.6036
10.9294
8.87025
7.30999
6.11901
5.19732
4.50031
4.03407
20.5604
20.5777
19.2689
17.0018
14.4661
12.0424
9.96903
8.30067
6.98493
5.96606
5.261
17.533
18.4633
18.1895
17.2808
15.7788
13.9296
11.9939
10.1821
8.60411
7.30273
6.33206
14.9436
16.1797
16.3437
16.3168
15.6672
14.4884
12.965
11.3235
9.73962
8.33355
7.23478
12.6937
13.9852
14.1989
14.5612
14.4695
13.9087
12.9259
11.6663
10.2949
8.96535
7.84968
11.1265
12.0429
12.3982
12.8355
12.991
12.8166
12.2721
11.4109
10.3411
9.20073
8.16166
10.1374
10.7592
11.031
11.4172
11.6369
11.6451
11.3734
10.8195
10.033
9.1204
8.25468
9.30507
9.79146
9.99073
10.3042
10.5091
10.5809
10.4527
10.1007
9.53174
8.81576
8.1039
8.52279
8.97558
9.14265
9.40732
9.58316
9.6677
9.60549
9.36861
8.95445
8.39358
7.80671
7.98772
8.35881
8.47335
8.6866
8.8235
8.89634
8.85959
8.69035
8.37465
7.92763
7.45499
7.74664
7.96067
7.98589
8.12506
8.20543
8.24698
8.20804
8.06979
7.81603
7.45149
7.06412
7.45439
7.59024
7.57417
7.658
7.68608
7.69067
7.63494
7.50545
7.28747
6.97968
6.6578
7.059
7.19228
7.1751
7.2287
7.21967
7.19283
7.11687
6.98528
6.78646
6.51346
6.23508
6.85935
6.89837
6.82735
6.83351
6.78527
6.7284
6.63175
6.49384
6.30679
6.05989
5.81234
6.60329
6.58009
6.47779
6.44561
6.36233
6.27788
6.16194
6.01722
5.8392
5.61383
5.39114
6.21507
6.1887
6.09108
6.03833
5.93008
5.8233
5.69284
5.54475
5.37642
5.17121
4.96528
5.91103
5.83368
5.7051
5.61627
5.48135
5.35531
5.21718
5.07272
4.91797
4.73578
4.55348
5.59242
5.45382
5.28866
5.16138
5.0032
4.86606
4.73246
4.60289
4.46823
4.31125
4.15015
5.18609
4.9882
4.79633
4.64377
4.4801
4.353
4.24459
4.14391
4.03444
3.90007
3.7437
4.68509
4.422
4.21056
4.05481
3.91778
3.835
3.77639
3.71421
3.62863
3.51228
3.36568
4.08698
3.73666
3.53778
3.42458
3.36563
3.36752
3.37134
3.33971
3.2646
3.15557
3.02034
3.11258
2.95098
2.79201
2.80676
2.90297
3.01223
3.05994
3.02887
2.94233
2.82526
2.66779
3.96726
2.47393
2.65411
2.81866
2.9375
2.99977
2.94214
2.81151
2.6714
2.53629
2.3605
-26.4852
-9.7812
-4.1739
-1.27996
0.153971
0.866222
1.19753
1.35947
1.42837
1.43658
1.49272
-52.0413
-30.9256
-21.4893
-13.7227
-7.95797
-4.51454
-2.58653
-1.44782
-0.737555
-0.260381
0.129038
-50.875
-41.436
-34.972
-26.0289
-17.7168
-11.6077
-7.53781
-4.94798
-3.28874
-2.17368
-1.35124
-43.5322
-41.7489
-39.1141
-32.6132
-25.0397
-18.1591
-12.6809
-8.76112
-6.0781
-4.24508
-2.90467
-37.2877
-37.8735
-37.2152
-33.6189
-28.2846
-22.2825
-16.6908
-12.1438
-8.72529
-6.2629
-4.47707
-32.882
-33.9443
-33.7477
-31.8114
-28.3743
-23.7922
-18.9409
-14.5077
-10.8311
-7.97175
-5.85154
-29.7388
-30.7019
-30.5029
-29.3146
-26.9787
-23.5636
-19.6464
-15.7252
-12.1844
-9.20308
-6.81677
-27.2307
-28.0195
-27.7621
-26.9135
-25.1502
-22.4972
-19.3462
-16.0101
-12.8067
-9.94228
-7.49074
-25.0995
-25.7296
-25.4275
-24.7447
-23.2855
-21.1087
-18.4996
-15.658
-12.8291
-10.1916
-7.79797
-23.1991
-23.6975
-23.3574
-22.7614
-21.4766
-19.6116
-17.3818
-14.9217
-12.4241
-10.0529
-7.80363
-21.4611
-21.8309
-21.4791
-20.9313
-19.7478
-18.0903
-16.129
-13.9606
-11.7379
-9.61145
-7.57786
-19.8192
-20.0453
-19.7158
-19.1884
-18.0715
-16.5648
-14.8005
-12.8578
-10.861
-8.93907
-7.10585
-18.2427
-18.3489
-18.0633
-17.5121
-16.4378
-15.044
-13.4251
-11.6571
-9.84754
-8.1041
-6.42996
-16.7344
-16.7484
-16.4606
-15.893
-14.8509
-13.5413
-12.0253
-10.3894
-8.73488
-7.15981
-5.65557
-15.2751
-15.2004
-14.8861
-14.2997
-13.3175
-12.0549
-10.6081
-9.07132
-7.54434
-6.12099
-4.80255
-13.8608
-13.7101
-13.3651
-12.7643
-11.8105
-10.5761
-9.1724
-7.70672
-6.28683
-5.00544
-3.8859
-12.498
-12.2698
-11.8972
-11.2846
-10.3359
-9.10924
-7.71304
-6.29245
-4.96616
-3.82262
-2.85834
-11.1846
-10.8796
-10.4799
-9.85148
-8.88782
-7.63211
-6.21676
-4.81949
-3.58705
-2.59247
-1.76708
-9.91803
-9.54394
-9.11393
-8.45404
-7.44054
-6.11536
-4.65148
-3.27815
-2.17153
-1.36648
-0.739695
-8.69702
-8.25768
-7.77923
-7.04873
-5.92367
-4.49764
-2.97959
-1.66556
-0.754317
-0.177739
0.265087
-7.56101
-7.01684
-6.45717
-5.6237
-4.36758
-2.79581
-1.27323
-0.122468
0.535188
0.832237
1.14634
-6.03902
-5.4823
-4.88003
-3.77071
-2.20783
-0.511216
0.815409
1.50745
1.70833
1.62405
1.88607
-4.52868
-4.76961
-3.69001
-2.17912
-0.459278
0.942647
1.74292
2.02097
2.07624
2.07785
2.19748
-8.09313
-1.74113
0.00240658
1.23721
2.21636
2.68128
2.72814
2.59268
2.44608
2.32722
2.1726
-2.84907
1.47982
2.49565
2.57477
2.2379
1.79532
1.36387
0.971155
0.62263
0.334248
0.1816
-23.866
-11.7996
-7.4052
-4.00192
-1.98056
-0.998832
-0.582587
-0.45052
-0.453039
-0.510507
-0.538947
-26.9415
-19.2797
-15.8416
-11.0594
-7.3226
-4.77907
-3.20198
-2.2878
-1.77368
-1.47644
-1.26872
-23.1589
-20.4544
-18.9544
-15.025
-11.4494
-8.34021
-5.96393
-4.32763
-3.25762
-2.56107
-2.07677
-18.9884
-18.3842
-18.0362
-15.7039
-13.2346
-10.5137
-8.0628
-6.1033
-4.65484
-3.62621
-2.87973
-15.8917
-15.852
-15.8275
-14.5925
-13.1302
-11.1459
-9.11026
-7.25069
-5.70525
-4.50635
-3.58557
-13.4942
-13.6514
-13.6623
-12.9793
-12.1202
-10.764
-9.24477
-7.70352
-6.28653
-5.08483
-4.0951
-11.5014
-11.7458
-11.756
-11.37
-10.8464
-9.92079
-8.82175
-7.61737
-6.42673
-5.34215
-4.40032
-9.96102
-10.1139
-10.1166
-9.90477
-9.5752
-8.93501
-8.13907
-7.21282
-6.24537
-5.31226
-4.45958
-8.78093
-8.82283
-8.79929
-8.66145
-8.42842
-7.96719
-7.37729
-6.66054
-5.88041
-5.09381
-4.33609
-7.79599
-7.76536
-7.72539
-7.61983
-7.43544
-7.08407
-6.629
-6.06275
-5.42967
-4.77402
-4.13604
-6.98212
-6.86873
-6.81668
-6.72853
-6.57536
-6.29604
-5.93013
-5.46967
-4.94654
-4.39242
-3.84096
-6.36415
-6.16461
-6.09499
-5.99976
-5.85306
-5.6116
-5.29783
-4.90621
-4.461
-3.98577
-3.5082
-5.8943
-5.63255
-5.54474
-5.42762
-5.26762
-5.03411
-4.73998
-4.38503
-3.99016
-3.5749
-3.16161
-5.50363
-5.19481
-5.08664
-4.94411
-4.76781
-4.53086
-4.24003
-3.90136
-3.53662
-3.16527
-2.79968
-5.16777
-4.83088
-4.69865
-4.52712
-4.329
-4.07969
-3.78041
-3.44328
-3.09432
-2.75637
-2.44089
-4.87109
-4.51501
-4.36125
-4.16348
-3.93929
-3.66884
-3.34878
-2.99974
-2.65581
-2.34438
-2.07159
-4.5808
-4.21842
-4.04278
-3.82125
-3.57132
-3.27443
-2.92508
-2.55554
-2.21209
-1.92667
-1.69767
-4.28755
-3.9274
-3.73628
-3.49727
-3.21891
-2.88387
-2.49272
-2.09792
-1.75831
-1.50533
-1.33104
-4.00017
-3.64898
-3.44901
-3.19353
-2.87458
-2.47998
-2.03642
-1.62059
-1.29908
-1.08826
-0.961245
-3.71188
-3.38446
-3.17864
-2.8931
-2.50744
-2.03329
-1.5433
-1.13383
-0.857956
-0.69846
-0.602234
-3.36553
-3.1294
-2.89508
-2.53828
-2.05478
-1.5128
-1.02661
-0.684327
-0.485772
-0.383123
-0.302141
-3.24968
-2.96943
-2.5964
-2.08718
-1.5125
-0.97982
-0.585602
-0.362788
-0.23772
-0.135534
0.0820531
-2.71857
-1.97601
-1.46152
-0.985736
-0.599221
-0.34768
-0.253461
-0.256446
-0.275214
-0.277809
-0.191416
20.0685
13.9284
9.80024
7.00723
5.23003
3.89937
2.92427
2.16285
1.54879
1.07124
0.760355
16.0479
15.7865
13.5042
10.7782
8.24644
6.21208
4.63165
3.40691
2.46213
1.76184
1.31504
10.3008
12.1179
12.0402
11.1939
9.47288
7.50006
5.7317
4.27689
3.13364
2.2762
1.72107
5.18486
8.00513
8.80756
9.14823
8.65828
7.5026
6.12465
4.78181
3.59055
2.64274
2.03188
1.58579
4.26815
5.29051
6.42175
6.81123
6.56269
5.76101
4.74685
3.70626
2.8067
2.18896
-0.791771
1.44079
2.2792
3.66173
4.47581
4.82518
4.65747
4.1398
3.41468
2.68636
2.13332
-2.32519
-0.489263
0.0698053
1.44835
2.33011
3.00316
3.25146
3.13516
2.76432
2.28184
1.88424
-3.25989
-1.74309
-1.47816
-0.132429
0.594166
1.39213
1.86958
2.05087
1.96479
1.71819
1.48209
-3.97444
-2.59566
-2.59084
-1.3159
-0.688028
0.090833
0.652932
1.00917
1.13671
1.09283
0.991448
-4.57065
-3.41822
-3.20878
-2.28399
-1.66704
-0.929618
-0.348605
0.0977567
0.366336
0.481257
0.519148
-5.01954
-4.14697
-3.77531
-2.98925
-2.41006
-1.71891
-1.14253
-0.652723
-0.29957
-0.0797141
0.0670368
-5.303
-4.57192
-4.21937
-3.5093
-2.9657
-2.3166
-1.75391
-1.24527
-0.841994
-0.552533
-0.340219
-5.53803
-4.85294
-4.52915
-3.87542
-3.36403
-2.74992
-2.20402
-1.69058
-1.25965
-0.923002
-0.666805
-5.75553
-5.0575
-4.73809
-4.11641
-3.62761
-3.04039
-2.51055
-2.00017
-1.55771
-1.19542
-0.905451
-5.77017
-5.12519
-4.83737
-4.24612
-3.77496
-3.20896
-2.692
-2.18851
-1.7449
-1.37296
-1.07392
-5.72648
-5.11542
-4.84629
-4.28071
-3.81957
-3.27115
-2.76288
-2.26815
-1.82997
-1.45975
-1.16195
-5.66231
-5.05645
-4.78409
-4.23422
-3.77156
-3.23516
-2.7316
-2.24725
-1.82049
-1.46247
-1.18116
-5.51412
-4.91958
-4.64151
-4.10509
-3.63231
-3.10261
-2.60203
-2.13154
-1.72399
-1.38878
-1.12517
-5.28462
-4.70213
-4.41255
-3.88638
-3.3969
-2.87036
-2.37569
-1.92692
-1.5499
-1.25059
-1.02309
-4.99013
-4.4094
-4.09343
-3.56909
-3.05735
-2.53434
-2.056
-1.6432
-1.31154
-1.06072
-0.878005
-4.61572
-4.02381
-3.66441
-3.1342
-2.60334
-2.09532
-1.65499
-1.29847
-1.02732
-0.834582
-0.704433
-4.11905
-3.50308
-3.08116
-2.54915
-2.02536
-1.56403
-1.19504
-0.916061
-0.715325
-0.580555
-0.507379
-3.56333
-2.82497
-2.34715
-1.86345
-1.40493
-1.03341
-0.761344
-0.562645
-0.422164
-0.344418
-0.34639
-2.20183
-1.58734
-1.22318
-0.915481
-0.645238
-0.452392
-0.31138
-0.176359
-0.0436411
0.0524657
-0.0456991
-1.01991
-1.04945
-1.4465
-2.09342
-2.31712
-1.85494
-0.854494
0.0633023
0.572486
-1.02925
-1.06785
-1.25559
-1.65978
-1.7824
-1.39015
-0.707915
-0.0110421
0.416136
-1.01281
-1.02863
-1.20309
-1.56355
-1.67615
-1.35954
-0.680822
-0.099881
0.265244
-0.980113
-0.972797
-1.1289
-1.39601
-1.44797
-1.16183
-0.657186
-0.173712
0.129664
-1.07907
-1.19181
-1.47934
-2.05853
-2.30165
-1.8869
-0.872903
0.174198
0.721227
-1.07201
-1.15431
-1.31039
-1.66731
-1.80615
-1.42392
-0.729506
0.0907373
0.526546
-1.05859
-1.11297
-1.26591
-1.57631
-1.69808
-1.43468
-0.698391
-0.0120443
0.354902
-1.00143
-1.05567
-1.19243
-1.42601
-1.48657
-1.15099
-0.671674
-0.129482
0.199883
2.03943
2.31864
2.31795
-0.773399
-0.814768
2.20216
-0.948664
1.80759
2.18882
2.38466
-0.835861
1.81528
-0.662974
-0.237319
2.03163
0.92802
-0.157685
-0.794513
0.92829
2.10638
0.528893
-1.0379
1.30014
-0.228465
2.38128
-0.238987
-0.655168
-0.951181
-1.55005
-0.583441
-0.158673
0.669596
-0.0734091
1.17107
0.61811
2.32463
-0.231244
2.38705
-0.0706495
1.80538
-1.60217
1.18186
-0.124266
1.3119
-0.84898
-1.31944
-0.671833
-0.935695
1.17281
1.81292
-0.57341
1.81619
-0.00109223
-0.146239
1.77687
0.540842
-1.03138
1.76414
-1.49155
-0.17064
-0.488471
0.00189985
-0.848396
-0.793237
-1.78296
2.09932
-0.265813
2.00092
2.31912
2.3807
-0.292012
3.31886
-0.87253
4.41414
-0.389692
3.19716
-1.05668
1.22042
-0.867789
-0.97494
-0.324065
-0.790531
2.12176
2.13627
-0.409246
-0.882468
-1.25837
0.0146678
-0.817244
-0.218548
2.33268
1.74777
-1.62486
3.47517
-1.04005
-0.879779
-0.405803
-0.59285
-0.781565
3.54373
-0.136661
-0.936187
2.08184
0.017048
-0.734126
2.24278
-0.0247792
2.11963
-0.0907174
-0.0575756
1.3447
1.17398
3.18478
-0.74522
-0.760114
2.10318
1.74097
1.08938
1.89755
1.83678
-0.737192
4.11638
-0.774192
-0.182375
-1.36786
-0.632053
-0.100059
-0.0251821
-0.0140921
-0.0685958
1.52412
-0.185761
-0.942815
3.20579
2.27707
-0.539758
-1.01289
-0.774785
-0.595387
1.30352
-0.0665745
0.356943
-0.882195
1.32593
1.70501
-0.757045
-0.723835
1.96263
2.72978
1.11714
1.32703
2.25375
-0.753539
4.13314
-0.757588
-0.210479
-0.938375
-0.861682
-0.177754
2.25381
-0.537918
-0.731043
3.30077
2.26703
-0.248691
-0.211404
-0.840873
0.30802
-0.621729
-1.71666
-0.076404
-0.0599918
-0.624094
0.329741
0.731272
0.709164
-0.0093084
-0.729357
-0.889991
0.795481
1.88693
-1.05408
2.28332
-0.721685
2.13941
-0.70897
1.32464
1.05068
2.29148
-0.866592
-0.105601
-0.403437
1.99302
-1.54208
2.313
2.37976
2.33814
-0.775453
-0.0713206
2.10148
-0.724886
1.98969
-0.179162
-0.204694
2.28089
0.0206888
3.39077
-0.0119911
1.94488
2.0307
-0.241114
1.04538
0.20917
0.783146
1.22894
-0.104039
2.35942
-0.789385
1.45764
-0.686577
-0.0121407
-0.759864
-0.416738
-0.797894
-0.154323
1.65925
-0.689561
-0.187697
-0.0869919
-0.849664
-0.843327
1.96614
1.34383
3.93003
-0.731648
-0.762393
-0.193035
2.28779
1.56879
1.58111
-0.757208
-0.524476
-0.0436292
-1.45565
2.7185
-0.759229
1.15176
-0.263391
-0.850211
-0.285167
-0.253641
-0.24313
0.344036
2.30424
-0.345263
2.30214
0.635208
2.39886
-0.723196
1.29607
-0.00856763
-0.669754
2.00471
1.26875
1.32623
-0.74766
0.30616
1.92445
-0.467532
-0.449853
-0.763294
1.45897
2.06185
-0.666391
2.56012
1.08875
-0.218692
2.40335
1.38254
-0.735711
3.43426
1.95996
-0.318006
-0.198271
-0.299137
2.50312
-0.698242
1.66459
1.20795
-0.0370208
1.51038
-0.928861
0.0630445
-0.248533
2.30078
1.92596
-0.617536
1.33008
0.715814
-0.247421
2.0411
-0.721695
1.00437
-0.599355
0.675955
-0.105923
1.2563
-0.0450638
-1.03714
1.38139
-1.02379
2.22858
-0.121251
-0.0528365
-1.13272
1.46897
-0.6392
-0.787806
1.72627
4.02181
1.24492
-0.201314
1.05442
-0.400179
-0.826291
0.372905
1.16135
-0.601748
1.94305
-0.227463
1.64322
-0.849452
-1.00429
2.13275
-0.659743
-0.833213
-0.946868
1.26917
2.37207
-0.581568
-0.817961
-0.217596
2.01641
-0.234541
-0.753601
-0.062261
-0.461141
1.11539
-0.270748
-0.143635
-1.03067
-0.581797
-0.427218
0.72191
-0.118261
2.1002
-0.0121724
1.15648
1.28273
-0.247814
-0.430514
-0.290505
2.35117
2.11686
2.86312
-0.83071
-0.058249
-0.164494
-1.00419
-0.568153
2.41902
-0.73441
-0.852326
-0.105533
-0.199963
1.4919
-0.282806
0.584778
2.53999
1.12721
-0.23815
2.41891
-0.725256
1.61524
-0.3981
-0.142397
-0.721755
-0.152538
-0.526695
-0.857124
2.24094
-0.989773
-0.0590747
3.12852
-0.131409
-1.76467
1.23486
1.20017
1.94231
-0.525489
-0.731475
2.09936
2.12594
-0.00644855
-0.00436835
-1.74244
-0.88075
-0.123633
1.94774
-0.185698
0.516237
0.905794
-0.177691
-0.17011
-0.834612
-0.179135
-0.113567
4.52898
-0.0361674
-0.943118
-0.732636
-0.0435776
-0.957183
-0.0398802
0.656957
0.0157848
4.25512
-0.0358195
-0.68042
-1.75318
1.13224
-0.763944
-0.44629
1.63089
-0.62774
-0.0147472
-0.455052
-0.601022
-0.187719
1.1102
-0.260876
-1.06771
-0.626641
-0.720391
0.748269
-0.0253418
-0.0777267
-0.904182
2.3614
-0.755368
2.21681
2.13701
2.36302
-0.903678
-0.757161
-1.01344
-0.0819548
-0.782157
-0.0110785
2.24042
2.38824
-0.120962
-0.121641
-0.366658
0.641328
-0.0191382
-0.0164745
2.09033
1.06563
1.68333
0.663743
-0.701894
1.02013
-0.558356
0.664674
1.51804
1.43884
2.02946
-0.7483
1.31136
2.19542
0.566318
-0.813593
-1.04149
1.27543
-0.784985
-0.84915
1.38935
-0.0267975
2.16451
-0.740771
2.40329
0.720102
1.6376
-0.011613
-0.179673
2.01591
-0.436157
0.126205
1.92689
-0.582729
-0.598828
2.0999
2.16849
-0.861493
0.0167367
-0.750172
1.56744
-0.959047
1.10508
-0.249052
-0.170079
-0.864382
-0.209871
-0.134534
-0.159478
-0.508425
-0.426764
1.12069
-0.508376
1.67495
1.97594
2.46835
1.49923
0.501997
-0.261479
1.80561
2.18111
-0.458704
2.06158
-1.36487
-0.552737
-0.0325012
-0.292956
-0.836922
2.30535
2.40596
1.95752
-1.55839
-0.745958
1.14799
2.26988
-0.175094
2.11677
-0.651435
2.11973
-0.177356
1.36494
-0.925209
-0.11697
-0.0430719
-1.18627
-0.23597
0.687325
0.263092
2.63372
1.45529
-0.0149032
-0.870656
1.89551
-0.171016
-0.631889
-0.870999
2.38869
2.46884
2.21957
-0.0961048
-0.175669
-0.0405351
2.16495
1.5481
-0.203409
3.20364
-0.323675
-0.0382215
-0.105909
-0.804638
1.3191
-0.0314878
2.42113
-0.495536
2.67603
-0.394594
-0.0126058
0.824953
-1.15095
-0.22036
1.80635
1.2135
-1.03201
2.25508
-0.502209
-0.678576
-0.51069
-0.122277
-0.793928
-0.642231
2.48735
1.86049
2.13218
-0.889729
-0.733269
-0.212475
2.06537
2.37998
-0.879493
1.25768
3.71672
0.526455
3.01942
-0.471517
-0.526025
-0.46933
-0.452597
-0.243508
0.364494
2.27334
-0.269995
3.10294
2.03487
-0.862334
-0.216199
1.02842
2.34896
-0.989142
2.02514
2.34525
-0.123795
2.22049
0.305485
-0.675126
-0.226631
-0.380548
-0.0385302
-0.0461075
-0.889207
-0.147855
-0.735012
-0.362002
-0.52424
-0.841329
-0.947709
-0.221374
1.1118
0.748083
-0.82454
-0.186168
0.990835
-0.121526
-0.463657
-0.0957078
-0.86008
-0.509729
-0.76551
1.18254
0.221766
2.34085
1.19186
1.74611
-0.675023
2.76508
1.46508
0.902935
1.44053
-0.634168
-0.0702676
-0.856866
3.08108
1.28047
1.17223
0.0421777
3.89168
-0.89361
3.25799
-0.429892
-0.0591324
1.26352
-0.0017311
2.24041
-0.0842353
-0.669183
-0.459848
-0.887629
-0.531767
-0.328661
2.11822
-0.0253454
-0.12861
-0.912571
-0.147608
1.0931
-0.131575
2.131
-0.44491
0.955551
-0.741088
2.17845
1.93082
2.48918
-0.651193
-0.391458
2.33889
-0.0134451
2.53092
-0.173507
-0.185586
0.242217
-0.676541
-1.37849
-0.176641
-0.395415
-0.544416
-0.651724
-0.282676
-0.0572533
-0.95856
1.11851
-0.489774
1.49736
1.55683
-1.03688
-0.699447
-0.753574
-0.216184
3.12811
0.295484
1.79367
-0.778277
2.2492
0.00186516
-0.0177756
-0.167476
0.123092
-0.321974
-0.083335
-0.125495
3.5859
-0.664951
-0.676185
-0.764497
1.37421
-0.308439
-0.624363
2.33661
-1.27087
-0.0463674
4.64767
-0.450751
1.55529
0.848453
1.70114
-0.062066
3.43156
-0.117134
2.25018
-0.0961371
2.98643
-0.254368
0.011981
-0.214539
-0.0610706
1.02563
-0.4664
-1.13547
2.19371
-0.110219
-0.264649
-0.0457255
0.280783
-0.864179
0.263408
-0.775262
-0.13531
0.298305
1.14875
-0.451331
1.17413
-0.449554
-0.964354
2.30315
1.88458
-0.0676562
-0.854742
-0.22709
-0.641275
1.7796
-0.502355
-0.134734
1.15297
2.29666
2.18327
1.4878
2.59892
-0.0239417
-0.97804
-0.724668
-0.0693259
-0.642078
2.43779
1.62124
-0.384603
-0.188021
2.29709
-0.529289
-0.374767
-0.967559
-0.236756
-0.853082
0.469846
-0.770423
2.42858
1.52269
-1.3422
1.87805
1.80556
-0.189778
-0.0342399
-0.314446
-0.249533
2.33554
-0.511819
-1.45312
-0.893073
1.75869
-0.0385778
-0.013702
-0.424599
-0.853128
2.18347
1.12622
-0.761551
-0.527945
-0.0595031
2.13301
0.922086
4.34764
2.70055
1.72275
-0.226069
-0.388516
-1.31164
-0.964585
-0.0108247
2.07735
-0.760735
2.24111
3.2187
-0.770792
1.60716
2.42847
1.81762
-0.780096
-0.0481943
-0.236803
2.43878
-0.743647
2.47913
2.22305
2.50537
2.37807
-0.119419
1.28201
2.30325
2.86992
-0.935427
1.17016
2.19466
-0.690387
-0.899695
1.59443
2.35207
-0.77381
-0.868307
1.27401
-0.514056
-0.445412
-0.838635
1.45039
2.35222
0.359305
1.25161
-0.00122512
1.64652
-0.448243
-0.271188
-0.152648
-0.155969
1.32447
-0.298631
1.96388
1.27838
3.79143
1.52344
1.23318
-0.594211
-1.38406
-0.496984
-0.283172
-0.11655
-0.0870823
-0.213464
-0.896378
1.21513
1.34559
-0.0259823
-0.0162937
-0.336186
1.90908
-0.798734
3.13557
-0.67996
2.46779
-0.0294536
-0.0888378
-0.726752
-0.247477
2.12235
2.3577
-0.21674
-0.98128
-0.0356746
-0.62162
-0.48914
0.0368852
0.750334
-0.175505
2.53323
2.283
-0.495626
-1.68498
-0.724796
-0.883281
-0.0409801
-0.281017
-0.112239
-0.594847
2.16152
0.0295889
-0.113875
2.24055
0.330277
2.28469
-0.238298
-0.202247
-0.127404
2.22264
-0.265095
2.06851
1.79483
-0.123418
-0.730328
1.25842
2.37907
2.87365
-0.63561
-0.642944
-0.932406
-0.489916
2.18748
-1.76891
-0.774494
-0.919447
2.15572
-0.11684
-0.0944428
2.05562
-0.043559
1.15985
-0.260825
-0.191359
-0.226991
-0.678327
1.40519
2.68967
-0.788382
-0.188818
1.27864
-0.12599
2.32711
-0.768941
-0.0254967
-0.88329
2.34246
-0.0426062
-0.670392
-0.582433
-0.049453
-0.095187
2.11064
-0.0169976
-0.831474
1.23809
0.168574
-0.257428
-0.883774
-0.169672
-0.355016
1.8836
2.4051
-0.83601
0.762118
-1.64241
-0.167573
-0.0199512
-0.187388
1.73256
-0.760114
-0.761106
-0.0587564
-0.230499
-0.0257226
2.47723
-0.490288
-0.0400561
2.23319
1.5198
2.25489
-0.433808
0.166024
2.04326
-0.575197
0.0274413
-0.119408
1.35678
-1.0191
-0.692558
0.45056
-0.484559
1.14029
2.35657
1.24259
-0.962746
1.31738
-0.0502123
-0.231871
-0.771085
1.27973
0.702581
2.13287
2.1739
-0.76192
-0.327261
-0.0109358
-0.839984
-1.66948
-0.63265
2.26106
-0.249205
-0.721771
2.18886
-0.121428
-0.0415455
0.916642
-0.77489
-0.593082
-0.268341
0.858706
-0.136395
2.16408
-0.214039
1.39673
-0.868078
-0.611968
4.37843
-0.953181
-0.2346
0.484518
-0.361156
-0.0153954
-0.975317
-0.221683
0.509064
-0.892783
-0.0583143
-0.733947
-1.20794
-0.253284
2.19482
-0.528835
2.39227
-0.430438
-0.291762
-0.714763
0.396225
-0.555297
-0.839731
2.2418
1.94049
0.374266
1.38846
-0.211815
-0.411302
2.70616
-0.270135
-0.578127
1.45298
-0.796581
-0.949681
-0.558994
-1.13371
-0.950013
-0.677168
-0.0613888
-0.126315
2.25381
2.28979
-0.195861
2.36594
2.29285
-0.40955
2.11356
2.79944
-0.254554
3.76921
-0.861679
-0.125065
-0.940847
2.32176
-0.506665
-0.0997782
-0.295154
-1.11922
2.16445
-0.183837
-0.595664
-0.170443
0.0036715
0.943652
-0.0941485
1.8888
-0.654916
-0.1354
1.29705
2.34711
-0.760825
-0.313794
-0.554799
-0.750843
-0.172221
2.57704
2.26194
2.31445
-0.503511
-0.0184675
-0.121342
-0.797642
-0.651235
2.50898
0.432
1.94576
2.18812
-0.739733
2.18153
1.27624
-1.62706
-0.916713
-0.944557
-0.87145
1.3746
1.07136
-0.0552618
-0.790092
-0.23952
-0.909337
-0.304643
2.20223
1.47703
-0.319879
-0.184098
-0.0709928
-0.344936
2.71316
-0.296813
-0.0785989
-0.93636
0.708518
-0.373684
-0.916883
1.12426
-0.569689
1.21507
2.0526
-0.818829
-0.15446
-0.367351
0.590298
1.17014
-0.507404
-0.576879
-0.683009
-0.443429
-0.733899
-0.737589
1.76362
-0.950788
-0.70726
2.2687
-0.0174964
-0.155577
1.61816
-0.272668
2.23463
2.47428
2.83418
-1.4199
-0.00880357
1.07314
-0.531888
2.22851
1.25495
2.09843
-0.207019
1.1168
-0.207896
-0.743223
2.27729
-0.7944
-0.92892
-0.210179
-0.743941
-0.619675
-0.531406
-0.0134533
1.82739
1.28679
2.30139
-0.16213
2.10803
1.27434
-0.596311
-0.971844
-0.310615
-0.132912
0.00560186
1.05165
-0.717181
-0.738686
1.1037
-0.57847
1.01421
-0.0424399
1.74774
-0.137259
0.534316
2.14877
2.02324
-0.719288
-0.0703901
1.49188
-0.215037
1.07426
-0.0252284
-0.153342
-0.71152
-0.412873
2.27445
2.01641
-0.0832001
-1.2651
-0.139433
-0.0366827
-0.712064
-0.0824991
2.26224
-1.00629
-0.0710408
1.92883
-0.896965
-0.892538
-0.523572
-0.750431
-0.694882
-0.0115824
-0.883822
-1.0678
1.11107
1.86261
-0.0651263
-0.309318
-0.282518
1.22519
-0.610666
2.30184
3.7411
-1.12658
2.13902
1.76385
-0.926677
-0.727499
2.05501
2.08062
2.1348
0.535178
1.39025
3.26667
-0.655108
-0.0984144
1.04943
2.20777
-0.826805
1.46432
-0.0996089
2.44259
0.889189
1.78874
-0.51236
-0.886424
-0.213296
2.19739
1.26899
-0.243346
-0.0896701
2.22271
-0.643407
-0.288076
2.50689
-0.527971
-0.234588
-0.760486
-0.474424
-0.560085
1.74062
-0.676798
2.17607
0.582693
4.47173
0.390683
2.30541
-0.235203
3.71034
-0.78134
2.36029
2.29669
-0.842267
1.31394
2.30696
-0.720054
-0.239639
-0.797025
2.46811
0.630762
2.19445
-0.154372
-0.0917221
-0.599272
0.633436
-0.618641
-0.771623
1.37112
1.05414
1.31039
0.452072
-0.808915
4.31321
-0.877001
4.02387
-1.10948
-0.0497797
-0.320029
-0.23544
1.26042
-0.27638
2.29822
-0.368307
-0.802812
2.26791
2.28135
-0.161882
0.297645
0.81357
2.30165
-0.568677
2.39941
-0.737815
-0.778896
-0.202908
-0.186065
1.08189
-0.628411
1.24167
-0.874502
-0.48989
-0.430894
-0.229301
2.08239
1.30155
2.08926
0.993074
-0.148979
0.399785
3.23031
-0.0989111
-0.680515
1.45461
0.480978
-0.940573
-0.137887
2.14814
-0.39146
2.4763
2.62562
-0.249239
2.37131
-0.134696
-0.16943
0.656834
2.3138
-0.39415
-0.720281
2.16095
-0.0645889
2.48882
3.56963
-0.309624
0.68357
-0.335964
2.24501
3.40526
-1.17511
-0.167573
1.29528
-0.89238
0.634794
1.55087
1.17007
1.33942
0.516551
-0.373325
-0.658049
-0.469634
-0.799975
1.51423
2.10272
-0.713083
-0.013324
0.738723
0.185965
-0.482437
2.83055
-0.113025
1.76394
-0.271323
2.28932
2.19801
-0.0529851
-0.559616
-0.218203
2.38103
2.26014
1.92462
2.05071
1.66085
-0.555695
-0.423419
-0.665717
-0.659228
-0.177744
0.232165
1.46291
1.52641
-0.900113
1.90392
-0.133208
-0.911389
0.388201
-0.267243
-0.547154
0.816657
2.12076
-0.49576
-0.57491
-0.2976
0.697988
-0.271258
-0.101042
-0.695081
-0.0461048
-0.250498
1.35054
-0.229577
-0.781619
-1.0338
-0.471649
-0.687258
-0.0458628
2.29184
2.20084
-0.68594
2.39154
-0.22622
-0.195577
-0.0237785
-0.473854
-0.234128
-0.678244
-0.774327
-0.211177
2.19731
-0.149385
-0.176001
-0.527047
-0.533407
-0.723833
2.24332
-0.827973
2.21405
-0.0668118
-0.889384
-0.460968
-0.89525
-0.769249
-0.239979
2.52544
4.18796
1.35402
2.50349
2.4469
0.476749
1.41636
-0.770324
3.44655
-0.243832
-0.760092
1.02833
2.1507
-0.640155
-0.783296
2.28344
0.0928038
1.28604
4.55361
-0.537928
-0.783412
2.29353
0.959256
0.875994
1.13899
4.57769
2.32664
-0.33011
-0.72264
2.1264
-0.296036
2.28599
1.05721
1.08254
2.38418
-0.520263
2.04666
1.66586
0.706156
2.07591
-0.0625904
1.60888
-0.037231
-0.70026
-1.03222
-0.139355
-0.171187
-0.0166464
-0.0859022
-0.163882
-0.201609
-0.0822659
1.1637
-0.266087
0.348785
1.9782
2.40208
-0.362298
-0.128244
-0.0517945
2.15149
-0.77912
3.72488
-0.105964
-0.166288
1.12564
-0.352774
1.98353
0.252485
2.32977
-0.935869
3.27014
2.11383
-0.298157
-0.0142897
-0.357636
-0.803384
-0.257339