/*--------------------------------*- C++ -*----------------------------------*\
| =========                 |                                                 |
| \\      /  F ield         | OpenFOAM: The Open Source CFD Toolbox           |
|  \\    /   O peration     | Version:  3.0.1                                 |
|   \\  /    A nd           | Web:      www.OpenFOAM.org                      |
|    \\/     M anipulation  |                                                 |
\*---------------------------------------------------------------------------*/
FoamFile
{
    version     2.0;
    format      ascii;
    class       surfaceScalarField;
    location    "0.419586";
    object      phi;
}
// * * * * * * * * * * * * * * * * * * * * * * * * * * * * * * * * * * * * * //

dimensions      [0 3 -1 0 0 0 0];

internalField   nonuniform List<scalar> 
32369
(
2.68253e-06
5.81967e-06
-8.5022e-06
4.02682e-06
6.72071e-06
-8.065e-06
3.75487e-06
9.15853e-06
-8.88657e-06
2.50656e-06
1.1249e-05
-1.00007e-05
5.20271e-07
1.30387e-05
-1.10524e-05
-2.04235e-06
1.46188e-05
-1.20562e-05
-4.95616e-06
1.6419e-05
-1.35052e-05
-8.10673e-06
1.88785e-05
-1.57279e-05
-1.16513e-05
2.25722e-05
-1.90277e-05
-1.57595e-05
2.79181e-05
-2.381e-05
3.55652e-05
-3.07029e-05
-2.06218e-05
2.68815e-06
3.13152e-06
4.30804e-06
5.10082e-06
5.31298e-06
8.15358e-06
5.58624e-06
1.09758e-05
4.89687e-06
1.37281e-05
3.18967e-06
1.6326e-05
7.77315e-07
1.88314e-05
-2.16274e-06
2.18186e-05
-5.50147e-06
2.5911e-05
-9.35767e-06
3.17743e-05
4.0158e-05
-1.39505e-05
1.35767e-06
1.77386e-06
2.42415e-06
4.03434e-06
3.60286e-06
6.97487e-06
4.53311e-06
1.00455e-05
4.8537e-06
1.34075e-05
4.35723e-06
1.68225e-05
3.0238e-06
2.01648e-05
1.08042e-06
2.37619e-05
-1.3468e-06
2.83382e-05
-4.23291e-06
3.46604e-05
4.35864e-05
-7.6613e-06
4.22994e-07
1.35086e-06
1.01238e-06
3.44495e-06
1.88879e-06
6.09846e-06
2.81505e-06
9.11928e-06
3.56062e-06
1.26619e-05
3.89223e-06
1.64909e-05
3.63729e-06
2.04198e-05
2.7788e-06
2.46204e-05
1.42688e-06
2.96901e-05
-3.27999e-07
3.64153e-05
4.57029e-05
-2.4445e-06
-1.60312e-07
1.51117e-06
7.72162e-08
3.20742e-06
6.46093e-07
5.52958e-06
1.40304e-06
8.36233e-06
2.23556e-06
1.18294e-05
2.98027e-06
1.57462e-05
3.43511e-06
1.99649e-05
3.46851e-06
2.4587e-05
3.08172e-06
3.00769e-05
2.36084e-06
3.71362e-05
4.66753e-05
1.38841e-06
-3.31448e-07
1.84262e-06
-3.24784e-07
3.20076e-06
-2.09262e-08
5.22572e-06
5.55336e-07
7.78607e-06
1.32978e-06
1.10549e-05
2.21307e-06
1.48629e-05
3.03614e-06
1.91419e-05
3.6466e-06
2.39766e-05
3.9762e-06
2.97473e-05
4.05191e-06
3.70605e-05
4.67797e-05
3.94749e-06
-2.73005e-07
2.11563e-06
-4.00743e-07
3.3285e-06
-2.9018e-07
5.11516e-06
1.26259e-07
7.36963e-06
8.01099e-07
1.03801e-05
1.68807e-06
1.39759e-05
2.66614e-06
1.81638e-05
3.59618e-06
2.30465e-05
4.38633e-06
2.89572e-05
5.02092e-06
3.64259e-05
4.62577e-05
5.54295e-06
-2.52669e-07
2.36829e-06
-3.97895e-07
3.47372e-06
-3.49403e-07
5.06667e-06
-4.95067e-08
7.06973e-06
5.27497e-07
9.8031e-06
1.3662e-06
1.31372e-05
2.38382e-06
1.71462e-05
3.4696e-06
2.19607e-05
4.53425e-06
2.78925e-05
5.55179e-06
3.54084e-05
4.52769e-05
6.53261e-06
-1.75765e-07
2.54406e-06
-2.71389e-07
3.56935e-06
-2.32582e-07
5.02786e-06
-5.91154e-09
6.84306e-06
5.04582e-07
9.29261e-06
1.2846e-06
1.23572e-05
2.2826e-06
1.61482e-05
3.41908e-06
2.08243e-05
4.62661e-06
2.6685e-05
5.83809e-06
3.41969e-05
4.4077e-05
7.03794e-06
-7.06556e-08
2.61472e-06
-9.48915e-08
3.59358e-06
-1.4484e-08
4.94746e-06
2.24654e-07
6.60393e-06
7.10297e-07
8.80697e-06
1.44224e-06
1.16252e-05
2.39772e-06
1.51927e-05
3.52881e-06
1.96932e-05
4.77412e-06
2.54397e-05
6.08287e-06
3.28881e-05
4.27375e-05
7.42238e-06
2.02652e-08
2.59445e-06
6.95067e-08
3.54434e-06
2.17673e-07
4.79929e-06
4.98156e-07
6.32344e-06
9.7966e-07
8.32546e-06
1.68193e-06
1.0923e-05
2.60537e-06
1.42692e-05
3.71775e-06
1.85808e-05
4.97244e-06
2.4185e-05
6.3157e-06
3.15449e-05
4.13093e-05
7.74392e-06
7.21777e-08
2.52227e-06
1.72843e-07
3.44368e-06
3.79332e-07
4.5928e-06
7.03216e-07
5.99956e-06
1.20185e-06
7.82683e-06
1.90314e-06
1.02217e-05
2.81547e-06
1.33569e-05
3.92313e-06
1.74731e-05
5.18958e-06
2.29185e-05
6.56777e-06
3.01667e-05
3.98697e-05
8.00738e-06
1.29845e-07
2.39243e-06
2.85087e-07
3.28843e-06
5.49169e-07
4.32872e-06
9.23296e-07
5.62543e-06
1.45312e-06
7.29701e-06
2.17012e-06
9.50468e-06
3.0883e-06
1.24387e-05
4.20115e-06
1.63603e-05
5.49161e-06
2.16281e-05
6.91871e-06
2.87396e-05
3.83505e-05
8.43788e-06
2.03195e-07
2.18923e-06
4.18381e-07
3.07325e-06
7.39111e-07
4.00799e-06
1.16605e-06
5.19849e-06
1.73777e-06
6.72529e-06
2.48806e-06
8.75439e-06
3.438e-06
1.14888e-05
4.58642e-06
1.52119e-05
5.91239e-06
2.03021e-05
7.38516e-06
2.72668e-05
3.68048e-05
8.93084e-06
2.33413e-07
1.95582e-06
4.81176e-07
2.82548e-06
8.46879e-07
3.64229e-06
1.32076e-06
4.72461e-06
1.942e-06
6.10405e-06
2.74622e-06
7.95016e-06
3.7565e-06
1.04785e-05
4.98132e-06
1.3987e-05
6.40188e-06
1.88816e-05
7.96242e-06
2.57063e-05
3.51415e-05
9.62574e-06
2.62909e-07
1.69291e-06
5.4043e-07
2.54796e-06
9.45093e-07
3.23762e-06
1.46775e-06
4.20196e-06
2.14594e-06
5.42587e-06
3.02278e-06
7.07331e-06
4.1296e-06
9.37169e-06
5.47251e-06
1.26441e-05
7.02304e-06
1.7331e-05
8.74192e-06
2.39874e-05
3.33108e-05
1.05726e-05
3.02383e-07
1.39053e-06
6.14096e-07
2.23625e-06
1.05647e-06
2.79525e-06
1.62831e-06
3.63011e-06
2.3775e-06
4.67668e-06
3.3561e-06
6.09472e-06
4.60311e-06
8.12467e-06
6.11997e-06
1.11273e-05
7.86464e-06
1.55864e-05
9.76222e-06
2.20898e-05
3.13409e-05
1.17321e-05
3.20771e-07
1.06976e-06
6.49144e-07
1.90788e-06
1.12012e-06
2.32428e-06
1.74095e-06
3.00928e-06
2.57666e-06
3.84097e-06
3.70074e-06
4.97063e-06
5.15573e-06
6.66968e-06
6.9209e-06
9.3621e-06
8.92155e-06
1.35857e-05
1.10704e-05
1.9941e-05
2.90525e-05
1.33587e-05
3.30669e-07
7.39088e-07
6.62096e-07
1.57645e-06
1.14606e-06
1.84031e-06
1.81425e-06
2.3411e-06
2.77057e-06
2.88465e-06
4.11423e-06
3.62697e-06
5.87012e-06
4.9138e-06
7.96977e-06
7.26244e-06
1.02957e-05
1.12598e-05
1.27706e-05
1.74661e-05
2.64323e-05
1.53909e-05
3.2178e-07
4.17308e-07
6.29381e-07
1.26885e-06
1.0883e-06
1.38139e-06
1.8104e-06
1.619e-06
2.96668e-06
1.72836e-06
4.65556e-06
1.9381e-06
6.83158e-06
2.73778e-06
9.34471e-06
4.74931e-06
1.20335e-05
8.57103e-06
1.48496e-05
1.465e-05
2.33916e-05
1.78903e-05
2.69849e-07
1.47459e-07
3.85234e-07
1.15346e-06
7.17446e-07
1.04918e-06
1.59952e-06
7.36928e-07
3.18529e-06
1.42592e-07
5.43608e-06
-3.12699e-07
8.16007e-06
1.37871e-08
1.11115e-05
1.79788e-06
1.41517e-05
5.53079e-06
1.73294e-05
1.14723e-05
1.98184e-05
2.09026e-05
-7.03502e-07
8.50961e-07
-4.54539e-07
9.04501e-07
5.3378e-07
6.08603e-08
2.35434e-06
-1.08363e-06
4.75758e-06
-2.26064e-06
7.46665e-06
-3.02177e-06
1.03485e-05
-2.86805e-06
1.33861e-05
-1.23976e-06
1.6592e-05
2.32489e-06
2.00509e-05
8.01341e-06
1.57951e-05
2.40742e-05
5.03151e-08
8.00646e-07
2.15084e-06
-1.19602e-06
4.39165e-06
-2.17995e-06
6.68823e-06
-3.38021e-06
8.95743e-06
-4.52984e-06
1.12548e-05
-5.31917e-06
1.37203e-05
-5.33348e-06
1.64274e-05
-3.94689e-06
1.93666e-05
-6.1432e-07
2.28557e-05
4.52427e-06
1.12824e-05
2.73684e-05
5.37425e-06
-4.5736e-06
7.45178e-06
-3.27355e-06
9.337e-06
-4.06517e-06
1.09602e-05
-5.0034e-06
1.23377e-05
-5.90741e-06
1.37006e-05
-6.68206e-06
1.54113e-05
-7.04412e-06
1.78419e-05
-6.37746e-06
2.10532e-05
-3.82563e-06
2.48689e-05
7.08571e-07
6.36398e-06
2.97873e-05
-2.70455e-06
-5.79765e-06
-4.19298e-06
-6.57657e-06
-5.41767e-06
-7.66188e-06
-6.76709e-06
-8.65131e-06
-8.33705e-06
-9.48245e-06
-1.01884e-05
-1.02048e-05
-1.25101e-05
-1.11836e-05
-1.53572e-05
-1.28808e-05
-1.87808e-05
-1.5604e-05
-2.28756e-05
-1.97152e-05
-2.58395e-05
-2.7739e-05
-1.85489e-06
-3.94276e-06
-3.4491e-06
-4.98236e-06
-4.76777e-06
-6.34322e-06
-5.98573e-06
-7.43335e-06
-7.30428e-06
-8.1639e-06
-9.0385e-06
-8.47059e-06
-1.15341e-05
-8.68796e-06
-1.48823e-05
-9.53267e-06
-1.90519e-05
-1.14344e-05
-2.41541e-05
-1.46129e-05
-1.95542e-05
-3.04395e-05
-3.47535e-07
-3.59523e-06
-1.01422e-06
-4.31567e-06
-1.82888e-06
-5.52855e-06
-2.7529e-06
-6.50933e-06
-3.83384e-06
-7.08297e-06
-5.35618e-06
-6.94825e-06
-7.86206e-06
-6.18208e-06
-1.17006e-05
-5.69409e-06
-1.66678e-05
-6.46724e-06
-2.26889e-05
-8.59184e-06
-1.22777e-05
-2.99654e-05
2.20704e-07
-3.81593e-06
2.66282e-07
-4.36125e-06
1.42901e-07
-5.40517e-06
-1.79674e-07
-6.18676e-06
-6.8877e-07
-6.57387e-06
-1.51198e-06
-6.12505e-06
-3.21047e-06
-4.48359e-06
-6.72282e-06
-2.18174e-06
-1.22955e-05
-8.94529e-07
-1.92053e-05
-1.68202e-06
-3.98665e-06
-2.74964e-05
3.82007e-07
-4.19794e-06
7.49415e-07
-4.72866e-06
1.06596e-06
-5.72172e-06
1.26777e-06
-6.38857e-06
1.34398e-06
-6.65008e-06
1.24204e-06
-6.0231e-06
7.2399e-07
-3.96554e-06
-1.12408e-06
-3.33667e-07
-5.69711e-06
3.6785e-06
-1.30558e-05
5.67665e-06
4.79734e-06
-2.18398e-05
4.14651e-07
-4.61259e-06
8.94517e-07
-5.20853e-06
1.41301e-06
-6.24021e-06
1.92187e-06
-6.89742e-06
2.41064e-06
-7.13885e-06
2.82347e-06
-6.43593e-06
2.9569e-06
-4.09898e-06
2.18385e-06
4.39379e-07
-5.75684e-07
6.43804e-06
-6.69443e-06
1.17954e-05
1.38028e-05
-1.56999e-05
3.79291e-07
-4.99188e-06
8.85201e-07
-5.71444e-06
1.46842e-06
-6.82343e-06
2.11596e-06
-7.54496e-06
2.84623e-06
-7.86913e-06
3.63907e-06
-7.22876e-06
4.35813e-06
-4.81804e-06
4.52203e-06
2.75483e-07
3.17377e-06
7.7863e-06
-1.05488e-06
1.6024e-05
2.19246e-05
-9.17669e-06
3.43356e-07
-5.33524e-06
8.31918e-07
-6.203e-06
1.39921e-06
-7.39073e-06
2.06195e-06
-8.20769e-06
2.8697e-06
-8.67688e-06
3.857e-06
-8.21607e-06
4.98615e-06
-5.94719e-06
5.93053e-06
-6.68903e-07
5.7826e-06
7.93423e-06
3.37905e-06
1.84276e-05
2.81442e-05
-2.84056e-06
2.91404e-07
-5.62664e-06
7.07656e-07
-6.61925e-06
1.19141e-06
-7.87449e-06
1.78204e-06
-8.79831e-06
2.53579e-06
-9.43063e-06
3.53146e-06
-9.21173e-06
4.84144e-06
-7.25717e-06
6.33473e-06
-2.16219e-06
7.20997e-06
7.05898e-06
6.50532e-06
1.91323e-05
3.16342e-05
3.01533e-06
1.83633e-07
-5.81027e-06
5.10039e-07
-6.94566e-06
8.78861e-07
-8.24331e-06
1.31827e-06
-9.23772e-06
1.9006e-06
-1.0013e-05
2.72705e-06
-1.00382e-05
3.96037e-06
-8.49049e-06
5.70346e-06
-3.90529e-06
7.34649e-06
5.41595e-06
7.91564e-06
1.85631e-05
3.30981e-05
6.45175e-06
7.54513e-08
-5.88573e-06
3.33938e-07
-7.20414e-06
4.08806e-07
-8.31818e-06
6.46982e-07
-9.4759e-06
9.72295e-07
-1.03383e-05
1.47918e-06
-1.05451e-05
2.37397e-06
-9.38529e-06
4.0061e-06
-5.53742e-06
6.16058e-06
3.26148e-06
7.65534e-06
1.70683e-05
3.27525e-05
8.00092e-06
-3.1703e-08
-5.85402e-06
-4.73955e-08
-7.18845e-06
-6.00191e-08
-8.30556e-06
-9.47159e-08
-9.4412e-06
-1.0994e-07
-1.0323e-05
-5.79061e-08
-1.05971e-05
2.18349e-07
-9.66154e-06
1.18656e-06
-6.50563e-06
3.43549e-06
1.01255e-06
5.81587e-06
1.4688e-05
3.05872e-05
7.98118e-06
-1.68433e-07
-5.68559e-06
-3.66887e-07
-6.99e-06
-6.24763e-07
-8.04768e-06
-9.57432e-07
-9.10853e-06
-1.34627e-06
-9.93421e-06
-1.76025e-06
-1.01831e-05
-2.10161e-06
-9.32018e-06
-2.10933e-06
-6.49791e-06
-6.69905e-07
-4.2687e-07
2.41152e-06
1.16065e-05
2.83044e-05
4.69436e-06
-3.50659e-07
-5.33493e-06
-7.69697e-07
-6.57096e-06
-1.30071e-06
-7.51666e-06
-1.96263e-06
-8.44661e-06
-2.75533e-06
-9.14151e-06
-3.65264e-06
-9.28581e-06
-4.55784e-06
-8.41498e-06
-5.2025e-06
-5.85326e-06
-5.07365e-06
-5.55718e-07
-2.82478e-06
9.35766e-06
2.43769e-05
1.10275e-06
-4.99019e-07
-4.83591e-06
-1.14168e-06
-5.92829e-06
-1.95932e-06
-6.69903e-06
-2.97982e-06
-7.42611e-06
-4.21489e-06
-7.90644e-06
-5.64334e-06
-7.85736e-06
-7.16834e-06
-6.88998e-06
-8.54475e-06
-4.47685e-06
-9.29597e-06
1.95503e-07
-8.19666e-06
8.25835e-06
2.06857e-05
-4.50544e-06
-6.52321e-07
-4.18359e-06
-1.5248e-06
-5.05582e-06
-2.63523e-06
-5.5886e-06
-4.02443e-06
-6.03691e-06
-5.71178e-06
-6.21909e-06
-7.67346e-06
-5.89568e-06
-9.81213e-06
-4.75131e-06
-1.18803e-05
-2.40869e-06
-1.33598e-05
1.67505e-06
-1.324e-05
8.13853e-06
1.74797e-05
-1.00341e-05
-8.12671e-07
-3.37092e-06
-1.91608e-06
-3.95241e-06
-3.3193e-06
-4.18537e-06
-5.0835e-06
-4.27271e-06
-7.23654e-06
-4.06605e-06
-9.75102e-06
-3.3812e-06
-1.25495e-05
-1.95284e-06
-1.54088e-05
4.50634e-07
-1.77402e-05
4.00641e-06
-1.86592e-05
9.05754e-06
1.633e-05
-1.75095e-05
-9.66776e-07
-2.40414e-06
-2.28245e-06
-2.63674e-06
-3.96455e-06
-2.50327e-06
-6.09559e-06
-2.14168e-06
-8.72928e-06
-1.43236e-06
-1.18313e-05
-2.79194e-07
-1.52296e-05
1.44552e-06
-1.85985e-05
3.8195e-06
-2.15307e-05
6.93856e-06
-2.35549e-05
1.10818e-05
1.64749e-05
-2.36997e-05
-1.11224e-06
-1.2919e-06
-2.59555e-06
-1.15343e-06
-4.48797e-06
-6.10845e-07
-6.84988e-06
2.2023e-07
-9.67255e-06
1.39031e-06
-1.29035e-05
2.95179e-06
-1.64104e-05
4.95237e-06
-2.00592e-05
7.46834e-06
-2.3629e-05
1.05083e-05
-2.65781e-05
1.40309e-05
1.82434e-05
-2.83466e-05
-1.10833e-06
-1.83574e-07
-2.49791e-06
2.36146e-07
-4.19056e-06
1.08181e-06
-6.27529e-06
2.30496e-06
-8.7968e-06
3.91183e-06
-1.17505e-05
5.9055e-06
-1.50587e-05
8.26052e-06
-1.85344e-05
1.09441e-05
-2.1913e-05
1.38869e-05
-2.4742e-05
1.68599e-05
1.97815e-05
-2.62802e-05
-8.98725e-07
7.15151e-07
-1.96505e-06
1.30247e-06
-3.28535e-06
2.40211e-06
-4.94563e-06
3.96524e-06
-6.97243e-06
5.93863e-06
-9.2745e-06
8.20758e-06
-1.16865e-05
1.06725e-05
-1.39363e-05
1.31938e-05
-1.56548e-05
1.56054e-05
-1.60686e-05
1.72737e-05
1.73552e-05
-1.36423e-05
-6.50804e-07
1.36596e-06
-1.41064e-06
2.0623e-06
-2.39199e-06
3.38346e-06
-3.55759e-06
5.13084e-06
-4.78243e-06
7.16347e-06
-5.91153e-06
9.33667e-06
-6.75614e-06
1.15172e-05
-7.03531e-06
1.3473e-05
-5.9639e-06
1.4534e-05
-2.04316e-06
1.3353e-05
8.82307e-06
6.48897e-06
-7.3765e-07
2.1036e-06
-1.39683e-06
2.72148e-06
-2.112e-06
4.09863e-06
-2.62054e-06
5.63938e-06
-2.74068e-06
7.28362e-06
-2.31971e-06
8.9157e-06
-1.14603e-06
1.03435e-05
1.2302e-06
1.10968e-05
5.63852e-06
1.01257e-05
1.26597e-05
6.33182e-06
2.34483e-07
2.12483e-05
-2.47e-06
-3.02207e-06
-2.98862e-06
-2.35263e-06
-9.76422e-07
1.25722e-06
4.55657e-06
9.27588e-06
1.55759e-05
2.26163e-05
2.92148e-05
-1.51708e-05
-6.20687e-06
2.13777e-05
-2.43224e-05
-8.71179e-06
1.78634e-05
-3.21205e-05
-1.07389e-05
1.85371e-05
-3.88001e-05
-1.23639e-05
1.90434e-05
-4.49432e-05
-1.36004e-05
1.97435e-05
-5.11387e-05
-1.44372e-05
2.06327e-05
-5.78891e-05
-1.48656e-05
2.1616e-05
-6.55803e-05
-1.48643e-05
2.25556e-05
-7.45427e-05
-1.43418e-05
2.33042e-05
-8.5148e-05
-1.30932e-05
2.36985e-05
-1.07563e-05
2.34293e-05
-9.7821e-05
-8.49148e-06
2.28461e-06
-1.7124e-05
-7.93158e-08
-2.5086e-05
-2.7769e-06
-3.23447e-05
-5.10512e-06
-3.92392e-05
-6.70599e-06
-4.62184e-05
-7.45797e-06
-5.37354e-05
-7.34858e-06
-6.22298e-05
-6.36994e-06
-7.21274e-05
-4.44423e-06
-8.38736e-05
-1.34702e-06
3.3068e-06
-9.79366e-05
-3.47752e-06
5.76213e-06
-8.36873e-06
4.8119e-06
-1.49535e-05
3.80785e-06
-2.2399e-05
2.34038e-06
-3.02116e-05
1.10659e-06
-3.82109e-05
5.41338e-07
-4.66175e-05
1.05803e-06
-5.58739e-05
2.88648e-06
-6.65016e-05
6.18345e-06
-7.90145e-05
1.11658e-05
1.82383e-05
-9.3946e-05
-2.00091e-06
7.76304e-06
-4.90193e-06
7.71292e-06
-9.34334e-06
8.24925e-06
-1.51598e-05
8.15683e-06
-2.22044e-05
8.15115e-06
-3.02344e-05
8.57143e-06
-3.9109e-05
9.93262e-06
-4.89011e-05
1.26786e-05
-5.98954e-05
1.71777e-05
-7.25248e-05
2.37953e-05
3.29994e-05
-8.72859e-05
-1.62664e-06
9.38969e-06
-4.05746e-06
1.01437e-05
-7.47957e-06
1.16714e-05
-1.20228e-05
1.27e-05
-1.7842e-05
1.39704e-05
-2.49046e-05
1.5634e-05
-3.31248e-05
1.81528e-05
-4.24857e-05
2.20395e-05
-5.31219e-05
2.7814e-05
-6.53237e-05
3.5997e-05
4.72349e-05
-7.95592e-05
-1.30351e-06
1.06932e-05
-3.46823e-06
1.23085e-05
-6.22059e-06
1.44237e-05
-9.92557e-06
1.6405e-05
-1.47438e-05
1.87887e-05
-2.07746e-05
2.16647e-05
-2.80561e-05
2.54344e-05
-3.6609e-05
3.05923e-05
-4.65176e-05
3.77225e-05
-5.79856e-05
4.74651e-05
6.06326e-05
-7.13833e-05
-1.16712e-06
1.18603e-05
-2.9656e-06
1.41069e-05
-5.29543e-06
1.67536e-05
-8.41178e-06
1.95213e-05
-1.24575e-05
2.28345e-05
-1.75875e-05
2.67947e-05
-2.39155e-05
3.17624e-05
-3.15257e-05
3.82025e-05
-4.0521e-05
4.67178e-05
-5.10597e-05
5.80038e-05
7.29192e-05
-6.33463e-05
-1.09015e-06
1.29505e-05
-2.68735e-06
1.57041e-05
-4.71731e-06
1.87835e-05
-7.38322e-06
2.21872e-05
-1.08179e-05
2.62692e-05
-1.51911e-05
3.11679e-05
-2.06443e-05
3.72156e-05
-2.73066e-05
4.48648e-05
-3.53006e-05
5.47118e-05
-4.47901e-05
6.74933e-05
8.41409e-05
-5.60119e-05
-9.92013e-07
1.39425e-05
-2.41823e-06
1.71304e-05
-4.20253e-06
2.05678e-05
-6.50405e-06
2.44888e-05
-9.44971e-06
2.92148e-05
-1.31915e-05
3.49097e-05
-1.78829e-05
4.1907e-05
-2.36707e-05
5.06526e-05
-3.06933e-05
6.17345e-05
-3.91364e-05
7.59365e-05
9.42335e-05
-4.9229e-05
-7.55494e-07
1.4698e-05
-1.93762e-06
1.83125e-05
-3.46203e-06
2.20922e-05
-5.43892e-06
2.64656e-05
-7.9634e-06
3.17393e-05
-1.11791e-05
3.81254e-05
-1.52217e-05
4.59496e-05
-2.02472e-05
5.5678e-05
-2.64124e-05
6.78997e-05
-3.3894e-05
8.34181e-05
0.000103254
-4.29142e-05
-5.52224e-07
1.52502e-05
-1.52113e-06
1.92814e-05
-2.78822e-06
2.33593e-05
-4.44527e-06
2.81227e-05
-6.5834e-06
3.38774e-05
-9.3109e-06
4.08529e-05
-1.27628e-05
4.94014e-05
-1.7074e-05
5.99892e-05
-2.24068e-05
7.32325e-05
-2.89265e-05
8.99378e-05
0.000111155
-3.6828e-05
-5.19367e-07
1.57696e-05
-1.35095e-06
2.0113e-05
-2.39565e-06
2.4404e-05
-3.75946e-06
2.94865e-05
-5.51156e-06
3.56295e-05
-7.75657e-06
4.30979e-05
-1.06145e-05
5.22594e-05
-1.42082e-05
6.35829e-05
-1.86853e-05
7.77097e-05
-2.42141e-05
9.54665e-05
0.000117932
-3.09906e-05
-3.94161e-07
1.61637e-05
-1.0413e-06
2.07601e-05
-1.86051e-06
2.52232e-05
-2.93198e-06
3.0558e-05
-4.31279e-06
3.70103e-05
-6.09251e-06
4.48777e-05
-8.37211e-06
5.4539e-05
-1.12683e-05
6.64791e-05
-1.49096e-05
8.13509e-05
-1.94574e-05
0.000100014
0.000123585
-2.51111e-05
-1.16243e-07
1.628e-05
-4.91232e-07
2.11351e-05
-1.02874e-06
2.57607e-05
-1.78336e-06
3.13126e-05
-2.7824e-06
3.80094e-05
-4.1e-06
4.61953e-05
-5.81424e-06
5.62533e-05
-8.02151e-06
6.86864e-05
-1.08333e-05
8.41627e-05
-1.43848e-05
0.000103566
0.000128027
-1.88265e-05
-3.19909e-08
1.6312e-05
-2.05861e-07
2.1309e-05
-4.74003e-07
2.60289e-05
-8.82086e-07
3.17207e-05
-1.44977e-06
3.85771e-05
-2.24105e-06
4.69866e-05
-3.31057e-06
5.73228e-05
-4.7365e-06
7.01123e-05
-6.59742e-06
8.60236e-05
-9.00388e-06
0.000105972
0.000131101
-1.20784e-05
1.11594e-07
1.62004e-05
1.8599e-07
2.12346e-05
2.24783e-07
2.59901e-05
2.0215e-07
3.17433e-05
1.01399e-07
3.86778e-05
-1.11732e-07
4.71997e-05
-4.78137e-07
5.76892e-05
-1.04511e-06
7.06793e-05
-1.85543e-06
8.6834e-05
-2.98917e-06
0.000107106
0.000132649
-4.53653e-06
4.01729e-07
1.57986e-05
8.31277e-07
2.0805e-05
1.25048e-06
2.55709e-05
1.66175e-06
3.1332e-05
2.08834e-06
3.82512e-05
2.50574e-06
4.67823e-05
2.9167e-06
5.72782e-05
3.30633e-06
7.02896e-05
3.65545e-06
8.64849e-05
3.93929e-06
0.000106822
0.000132438
4.15022e-06
6.14281e-07
1.51844e-05
1.38012e-06
2.00392e-05
2.21011e-06
2.47409e-05
3.1346e-06
3.04075e-05
4.17198e-06
3.72138e-05
5.33988e-06
4.56144e-05
6.66846e-06
5.59496e-05
8.18927e-06
6.87688e-05
9.93121e-06
8.47429e-05
1.19325e-05
0.000104821
0.00013017
1.42002e-05
8.70272e-07
1.43141e-05
2.02709e-06
1.88824e-05
3.32767e-06
2.34403e-05
4.82365e-06
2.89116e-05
6.56016e-06
3.54773e-05
8.60166e-06
4.35729e-05
1.10165e-05
5.35348e-05
1.38809e-05
6.59045e-05
1.72764e-05
8.13474e-05
2.12916e-05
0.000100806
0.000125452
2.60094e-05
1.17599e-06
1.31381e-05
2.77388e-06
1.72845e-05
4.61393e-06
2.16003e-05
6.77344e-06
2.67521e-05
9.32731e-06
3.29235e-05
1.23967e-05
4.05035e-05
1.609e-05
4.98415e-05
2.05376e-05
6.14568e-05
2.58801e-05
7.60049e-05
3.22964e-05
9.43896e-05
0.000117742
4.00072e-05
1.5145e-06
1.16236e-05
3.57827e-06
1.52207e-05
6.01457e-06
1.9164e-05
8.9214e-06
2.38452e-05
1.24242e-05
2.94207e-05
1.66907e-05
3.6237e-05
2.18803e-05
4.46519e-05
2.81772e-05
5.51599e-05
3.57831e-05
6.8399e-05
4.49768e-05
8.51958e-05
0.000106613
5.61049e-05
1.76157e-06
9.86202e-06
4.28795e-06
1.26943e-05
7.34971e-06
1.61022e-05
1.10919e-05
2.0103e-05
1.56859e-05
2.48267e-05
2.13216e-05
3.06012e-05
2.82036e-05
3.77699e-05
3.65568e-05
4.68067e-05
4.66727e-05
5.82831e-05
5.8945e-05
7.29235e-05
9.17426e-05
7.38158e-05
1.87454e-06
7.98748e-06
4.96558e-06
9.6033e-06
8.59175e-06
1.2476e-05
1.31933e-05
1.55015e-05
1.89167e-05
1.91033e-05
2.59754e-05
2.35426e-05
3.45863e-05
2.91589e-05
4.50403e-05
3.63527e-05
5.77426e-05
4.55808e-05
7.32323e-05
5.74338e-05
7.28112e-05
9.21638e-05
-1.18844e-06
9.17592e-06
2.55483e-06
5.86003e-06
7.73795e-06
7.2929e-06
1.38335e-05
9.40593e-06
2.11412e-05
1.17956e-05
2.98317e-05
1.48521e-05
4.01506e-05
1.88401e-05
5.25484e-05
2.39548e-05
6.7609e-05
3.05202e-05
8.60407e-05
3.90021e-05
5.01295e-05
0.000108722
-2.59041e-09
2.13802e-05
-1.25829e-06
1.91191e-05
-7.06259e-06
2.43414e-05
-1.51933e-05
2.71741e-05
-2.3817e-05
2.83673e-05
-3.26802e-05
2.94958e-05
-4.20518e-05
3.09876e-05
-5.22263e-05
3.27302e-05
-6.35517e-05
3.46295e-05
-7.63112e-05
3.64579e-05
3.80308e-05
-9.09127e-05
6.42803e-06
1.49522e-05
8.45247e-06
1.70946e-05
6.71149e-06
2.60824e-05
1.76207e-06
3.21235e-05
-5.91969e-06
3.6049e-05
-1.52231e-05
3.87992e-05
-2.56376e-05
4.14021e-05
-3.71052e-05
4.41977e-05
-4.98184e-05
4.73428e-05
-6.41175e-05
5.0757e-05
5.43022e-05
-8.03889e-05
4.16308e-06
1.07891e-05
5.72863e-06
1.55291e-05
6.24604e-06
2.5565e-05
4.62261e-06
3.3747e-05
-3.69038e-08
4.07086e-05
-7.15857e-06
4.59209e-05
-1.61478e-05
5.03913e-05
-2.66688e-05
5.47187e-05
-3.86162e-05
5.92902e-05
-5.21518e-05
6.42927e-05
6.9628e-05
-6.74776e-05
2.71433e-06
8.07481e-06
3.35438e-06
1.4889e-05
4.04068e-06
2.48787e-05
3.57628e-06
3.42114e-05
1.05691e-06
4.32279e-05
-3.61074e-06
5.05886e-05
-1.0312e-05
5.70925e-05
-1.88416e-05
6.32484e-05
-2.89961e-05
6.94447e-05
-4.07403e-05
7.60368e-05
8.31323e-05
-5.42446e-05
1.89434e-06
6.18047e-06
2.25987e-06
1.45235e-05
2.66079e-06
2.44778e-05
2.32639e-06
3.45458e-05
8.33662e-07
4.47206e-05
-2.09203e-06
5.35143e-05
-6.69549e-06
6.1696e-05
-1.30246e-05
6.95774e-05
-2.10009e-05
7.74209e-05
-3.05212e-05
8.55572e-05
9.42437e-05
-4.16326e-05
1.20703e-06
4.97343e-06
1.74976e-06
1.39808e-05
2.19578e-06
2.40317e-05
1.94048e-06
3.48011e-05
9.5859e-07
4.57025e-05
-9.33026e-07
5.54059e-05
-4.02008e-06
6.4783e-05
-8.47505e-06
7.40324e-05
-1.43625e-05
8.33084e-05
-2.16547e-05
9.28493e-05
0.000102818
-3.02286e-05
9.02445e-07
4.07099e-06
1.59193e-06
1.32913e-05
2.14337e-06
2.34803e-05
2.07959e-06
3.48649e-05
1.49824e-06
4.62839e-05
3.15587e-07
5.65885e-05
-1.67567e-06
6.67743e-05
-4.6603e-06
7.7017e-05
-8.77163e-06
8.74197e-05
-1.4085e-05
9.81627e-05
0.000109374
-2.06416e-05
6.52821e-07
3.41817e-06
1.39577e-06
1.25483e-05
2.02119e-06
2.28549e-05
2.19204e-06
3.4694e-05
2.02374e-06
4.64522e-05
1.45326e-06
5.7159e-05
3.68452e-07
6.78591e-05
-1.3716e-06
7.87571e-05
-3.93409e-06
8.99822e-05
-7.35885e-06
0.000101587
0.000113614
-1.15987e-05
4.96119e-07
2.92205e-06
1.2574e-06
1.17871e-05
1.99217e-06
2.21201e-05
2.43714e-06
3.4249e-05
2.68712e-06
4.62022e-05
2.68457e-06
5.71616e-05
2.40029e-06
6.81434e-05
1.71776e-06
7.94396e-05
5.22881e-07
9.11771e-05
-1.29784e-06
0.000103408
0.00011604
-3.72372e-06
3.72677e-07
2.54937e-06
1.17283e-06
1.09869e-05
2.04691e-06
2.1246e-05
2.80121e-06
3.34947e-05
3.47848e-06
4.55249e-05
4.03977e-06
5.66003e-05
4.49267e-06
6.76905e-05
4.78113e-06
7.91512e-05
4.82157e-06
9.11367e-05
4.54022e-06
0.00010369
0.000116718
3.86229e-06
3.88968e-07
2.1604e-06
1.27631e-06
1.00996e-05
2.32434e-06
2.0198e-05
3.42697e-06
3.23921e-05
4.55822e-06
4.43937e-05
5.66422e-06
5.54943e-05
6.8125e-06
6.65422e-05
7.98093e-06
7.79827e-05
9.15394e-06
8.99637e-05
1.02995e-05
0.000102544
0.000115545
1.14723e-05
3.80544e-07
1.77986e-06
1.25569e-06
9.22442e-06
2.43972e-06
1.9014e-05
3.87378e-06
3.09581e-05
5.47563e-06
4.27918e-05
7.1686e-06
5.38013e-05
9.03271e-06
6.46781e-05
1.11071e-05
7.59084e-05
1.34065e-05
8.76642e-05
1.59475e-05
0.000100003
0.000112639
1.88531e-05
3.2627e-07
1.45359e-06
1.19962e-06
8.35107e-06
2.58256e-06
1.7631e-05
4.38384e-06
2.91568e-05
6.47117e-06
4.07045e-05
8.77047e-06
5.1502e-05
1.13681e-05
6.20804e-05
1.43363e-05
7.29402e-05
1.77494e-05
8.42512e-05
2.16424e-05
9.611e-05
0.000108182
2.60994e-05
3.71314e-07
1.08227e-06
1.30934e-06
7.41305e-06
2.89025e-06
1.60501e-05
5.06168e-06
2.69853e-05
7.63246e-06
3.81337e-05
1.05456e-05
4.85889e-05
1.38826e-05
5.87434e-05
1.77568e-05
6.9066e-05
2.22724e-05
7.97355e-05
2.75425e-05
9.084e-05
0.000102091
3.36335e-05
3.6738e-07
7.14894e-07
1.31147e-06
6.46896e-06
3.03219e-06
1.43294e-05
5.51451e-06
2.4503e-05
8.59476e-06
3.50535e-05
1.2169e-05
4.50147e-05
1.63028e-05
5.46095e-05
2.11532e-05
6.42156e-05
2.68614e-05
7.40273e-05
3.35751e-05
8.41263e-05
9.4303e-05
4.13634e-05
3.55216e-07
3.59678e-07
1.32785e-06
5.49632e-06
3.18203e-06
1.24752e-05
5.97618e-06
2.17089e-05
9.55043e-06
3.14792e-05
1.37852e-05
4.07799e-05
1.87594e-05
4.96353e-05
2.46357e-05
5.83394e-05
3.15967e-05
6.70663e-05
3.9833e-05
7.589e-05
8.45226e-05
4.96134e-05
3.78605e-07
-1.89272e-08
1.37157e-06
4.50336e-06
3.3326e-06
1.05142e-05
6.40041e-06
1.86411e-05
1.04384e-05
2.74412e-05
1.5345e-05
3.58734e-05
2.11925e-05
4.37878e-05
2.81614e-05
5.13705e-05
3.64397e-05
5.87881e-05
4.62289e-05
6.61008e-05
7.28875e-05
5.78639e-05
3.86675e-07
-4.05603e-07
1.37409e-06
3.51595e-06
3.38158e-06
8.50669e-06
6.63461e-06
1.5388e-05
1.10724e-05
2.30035e-05
1.66378e-05
3.03079e-05
2.34014e-05
3.70242e-05
3.15298e-05
4.32421e-05
4.11869e-05
4.9131e-05
5.25375e-05
5.47502e-05
5.96338e-05
6.57912e-05
3.82615e-07
-7.88218e-07
1.28819e-06
2.61037e-06
3.24656e-06
6.54833e-06
6.5566e-06
1.2078e-05
1.12996e-05
1.82605e-05
1.74744e-05
2.41331e-05
2.51712e-05
2.93273e-05
3.45079e-05
3.39054e-05
4.55667e-05
3.80722e-05
5.85211e-05
4.17958e-05
4.44624e-05
7.36924e-05
2.07284e-07
-9.95502e-07
9.75407e-07
1.84225e-06
2.74781e-06
4.77592e-06
5.94083e-06
8.88497e-06
1.08672e-05
1.33341e-05
1.75567e-05
1.74437e-05
2.61205e-05
2.07635e-05
3.65573e-05
2.34687e-05
4.89287e-05
2.57008e-05
6.32903e-05
2.74342e-05
2.77085e-05
8.00441e-05
9.50047e-08
-1.09051e-06
4.60211e-07
1.47704e-06
1.87163e-06
3.3645e-06
4.7867e-06
5.96989e-06
9.67102e-06
8.44978e-06
1.67301e-05
1.03846e-05
2.58712e-05
1.16223e-05
3.70244e-05
1.23155e-05
5.01509e-05
1.25743e-05
6.54569e-05
1.21282e-05
9.67222e-06
8.34932e-05
-1.63736e-06
5.46856e-07
-1.56613e-06
1.40581e-06
-6.00593e-07
2.39896e-06
2.17137e-06
3.19793e-06
7.16446e-06
3.45669e-06
1.43912e-05
3.15793e-06
2.35879e-05
2.42552e-06
3.46876e-05
1.21585e-06
4.80864e-05
-8.24528e-07
6.44461e-05
-4.23152e-06
-9.50067e-06
8.3619e-05
-9.31972e-07
1.47883e-06
1.05629e-07
3.68208e-07
3.08633e-06
-5.81739e-07
8.38692e-06
-2.10265e-06
1.57232e-05
-3.87958e-06
2.49055e-05
-6.02439e-06
3.59778e-05
-8.64682e-06
4.92219e-05
-1.20282e-05
6.49186e-05
-1.65212e-05
8.3181e-05
-2.2494e-05
-3.04131e-05
0.000104094
1.06547e-05
1.6883e-05
2.35941e-05
3.08974e-05
3.88135e-05
4.76412e-05
5.78344e-05
6.97611e-05
8.37601e-05
0.000100268
0.000119985
-4.18848e-06
1.81917e-05
-1.40033e-05
-8.20844e-06
1.68452e-05
-1.28253e-05
-1.43448e-05
2.00888e-05
-1.39524e-05
-2.10009e-05
2.20858e-05
-1.54298e-05
-2.77542e-05
2.43064e-05
-1.7553e-05
-3.47712e-05
2.73555e-05
-2.03385e-05
-4.2322e-05
3.14853e-05
-2.39345e-05
-5.07324e-05
3.69691e-05
-2.85587e-05
-6.03546e-05
4.41574e-05
-3.45352e-05
-7.1589e-05
5.35416e-05
-4.23073e-05
6.58531e-05
-5.24616e-05
-8.49805e-05
2.90895e-06
1.52828e-05
3.43472e-06
1.63195e-05
5.38791e-07
2.29847e-05
-4.18462e-06
2.68092e-05
-1.03706e-05
3.04924e-05
-1.75329e-05
3.45177e-05
-2.55446e-05
3.9497e-05
-3.45496e-05
4.5974e-05
-4.48456e-05
5.44535e-05
-5.68305e-05
6.55265e-05
8.00135e-05
-7.09909e-05
2.50283e-06
1.278e-05
3.17876e-06
1.56435e-05
2.7134e-06
2.34501e-05
7.97955e-07
2.87247e-05
-3.10732e-06
3.43976e-05
-8.58045e-06
3.99909e-05
-1.53493e-05
4.62659e-05
-2.32957e-05
5.39204e-05
-3.25144e-05
6.36722e-05
-4.32686e-05
7.62808e-05
9.27078e-05
-5.59629e-05
1.75735e-06
1.10226e-05
1.9723e-06
1.54286e-05
2.22257e-06
2.31998e-05
1.57615e-06
2.93711e-05
-5.02071e-07
3.64759e-05
-3.97358e-06
4.34624e-05
-8.84106e-06
5.11334e-05
-1.49907e-05
6.00701e-05
-2.2386e-05
7.10675e-05
-3.10981e-05
8.49929e-05
0.000102902
-4.12924e-05
1.34224e-06
9.68036e-06
1.53132e-06
1.52395e-05
1.88516e-06
2.2846e-05
1.62875e-06
2.96275e-05
5.87946e-07
3.75167e-05
-1.4133e-06
4.54636e-05
-4.55331e-06
5.42734e-05
-8.85282e-06
6.43696e-05
-1.42819e-05
7.64965e-05
-2.08488e-05
9.15598e-05
0.000110663
-2.86092e-05
1.19785e-06
8.48251e-06
1.65574e-06
1.47816e-05
2.19787e-06
2.23038e-05
2.196e-06
2.96294e-05
1.72243e-06
3.79902e-05
6.01203e-07
4.65848e-05
-1.31294e-06
5.61876e-05
-4.1242e-06
6.71808e-05
-7.85726e-06
8.02296e-05
-1.25186e-05
9.62212e-05
0.000116216
-1.80725e-05
1.12013e-06
7.36237e-06
1.8438e-06
1.40579e-05
2.59926e-06
2.15484e-05
2.88943e-06
2.93392e-05
2.84023e-06
3.80394e-05
2.32333e-06
4.71017e-05
1.24879e-06
5.72621e-05
-4.50984e-07
6.88806e-05
-2.8306e-06
8.26092e-05
-5.93124e-06
9.93218e-05
0.000120028
-9.74311e-06
9.43858e-07
6.41852e-06
1.85658e-06
1.31452e-05
2.77914e-06
2.06258e-05
3.34278e-06
2.87756e-05
3.66211e-06
3.77201e-05
3.6237e-06
4.71401e-05
3.21617e-06
5.76696e-05
2.38269e-06
6.97141e-05
1.08453e-06
8.39074e-05
-6.80967e-07
0.000101087
0.000122219
-2.87123e-06
9.08192e-07
5.51033e-06
1.94634e-06
1.21071e-05
3.00407e-06
1.95681e-05
3.81944e-06
2.79602e-05
4.45035e-06
3.70892e-05
4.81171e-06
4.67788e-05
4.9273e-06
5.7554e-05
4.77512e-06
6.98663e-05
4.33523e-06
8.43473e-05
3.60082e-06
0.000101822
0.000123199
2.6204e-06
9.81243e-07
4.52908e-06
2.19475e-06
1.08936e-05
3.4537e-06
1.83091e-05
4.54676e-06
2.68671e-05
5.47728e-06
3.61587e-05
6.18608e-06
4.607e-05
6.71893e-06
5.70212e-05
7.09025e-06
6.9495e-05
7.29721e-06
8.41403e-05
7.34922e-06
0.00010177
0.000123338
7.21037e-06
9.87406e-07
3.54168e-06
2.30736e-06
9.57362e-06
3.74547e-06
1.6871e-05
5.11602e-06
2.54966e-05
6.35611e-06
3.49186e-05
7.41242e-06
4.50137e-05
8.34322e-06
5.60904e-05
9.18875e-06
6.86494e-05
9.98148e-06
8.33476e-05
1.07474e-05
0.000101004
0.000122541
1.15445e-05
8.81721e-07
2.65996e-06
2.18336e-06
8.27198e-06
3.71605e-06
1.53383e-05
5.3042e-06
2.39084e-05
6.83638e-06
3.33864e-05
8.26134e-06
4.35887e-05
9.62517e-06
5.47265e-05
1.09735e-05
6.73011e-05
1.23637e-05
8.19574e-05
1.38436e-05
9.95239e-05
0.000120952
1.54323e-05
7.96939e-07
1.86302e-06
2.0633e-06