/*--------------------------------*- C++ -*----------------------------------*\
| =========                 |                                                 |
| \\      /  F ield         | OpenFOAM: The Open Source CFD Toolbox           |
|  \\    /   O peration     | Version:  3.0.1                                 |
|   \\  /    A nd           | Web:      www.OpenFOAM.org                      |
|    \\/     M anipulation  |                                                 |
\*---------------------------------------------------------------------------*/
FoamFile
{
    version     2.0;
    format      ascii;
    class       volScalarField;
    location    "0.274932";
    object      p;
}
// * * * * * * * * * * * * * * * * * * * * * * * * * * * * * * * * * * * * * //

dimensions      [0 2 -2 0 0 0 0];

internalField   nonuniform List<scalar> 
21246
(
1.67548
0.245874
0.00139399
0.105073
0.381112
0.724342
0.976444
1.13885
1.21537
1.24359
1.31499
10.1316
7.78024
5.85641
4.54969
3.71158
3.19965
2.87228
2.63199
2.4232
2.23814
2.12089
10.5698
9.95558
8.7733
7.53479
6.38942
5.43402
4.67394
4.07525
3.58829
3.18727
2.85599
9.68083
9.68272
9.27662
8.61016
7.76783
6.88771
6.02926
5.24871
4.56722
3.99492
3.57843
8.98379
9.14478
9.03248
8.75541
8.257
7.59851
6.84973
6.08917
5.3722
4.74353
4.2696
8.46872
8.70477
8.69254
8.58835
8.32338
7.90026
7.34131
6.693
6.00901
5.351
4.80931
7.98999
8.22261
8.26412
8.276
8.17849
7.93109
7.52775
6.99453
6.37717
5.74058
5.17834
7.55874
7.73441
7.79579
7.84306
7.82219
7.68951
7.41886
7.01135
6.49361
5.92787
5.42335
7.1581
7.3035
7.3556
7.40445
7.4094
7.33421
7.14928
6.84174
6.41961
5.9286
5.47245
6.765
6.90144
6.94626
6.98986
7.00014
6.94931
6.81174
6.57111
6.22485
5.80259
5.39382
6.42583
6.53961
6.56902
6.60065
6.60523
6.56094
6.4467
6.24708
5.95492
5.59165
5.24839
6.16295
6.22913
6.22885
6.23765
6.2259
6.17542
6.06852
5.89174
5.63672
5.31773
5.01447
5.88418
5.91949
5.89851
5.88546
5.85366
5.78975
5.67981
5.51345
5.28349
5.00025
4.73623
5.56633
5.59042
5.55835
5.52712
5.47528
5.3947
5.2756
5.11142
4.89719
4.63925
4.40612
5.30152
5.28188
5.21862
5.15931
5.08202
4.98048
4.84781
4.68137
4.47988
4.24765
4.04305
5.00296
4.94326
4.8529
4.76493
4.65935
4.53368
4.38503
4.21542
4.02778
3.82438
3.65645
4.63
4.54687
4.43922
4.32431
4.18885
4.03757
3.87344
3.70419
3.53706
3.3706
3.24304
4.25821
4.12482
3.98088
3.82615
3.65254
3.47439
3.29851
3.13946
3.00652
2.89352
2.82402
3.83964
3.64166
3.45136
3.24617
3.02966
2.82016
2.6433
2.51521
2.43948
2.39749
2.39797
3.32737
3.05041
2.80529
2.53774
2.27037
2.04591
1.89707
1.83523
1.84746
1.89591
1.96288
2.68391
2.30341
1.98233
1.64506
1.34071
1.13757
1.06947
1.12509
1.2613
1.42136
1.56977
1.89511
1.29362
0.89584
0.50206
0.211995
0.111901
0.207467
0.439167
0.728168
1.00766
1.24051
0.325289
-0.0792883
-0.570565
-0.93895
-1.07507
-0.934137
-0.585889
-0.143089
0.299405
0.682155
0.974416
1.12793
-1.58793
-2.11477
-2.28193
-2.10643
-1.65797
-1.08085
-0.488976
0.0459014
0.482433
0.79739
-21.8606
-10.4115
-5.97437
-3.94867
-2.36266
-1.29918
-0.673528
-0.209197
0.0795802
0.266239
0.458988
-23.016
-16.3592
-12.7559
-9.67572
-6.67446
-4.42612
-2.9078
-1.89534
-1.25195
-0.811286
-0.440197
-16.4671
-16.3982
-15.465
-13.352
-10.5995
-7.91977
-5.67685
-4.01124
-2.85147
-2.0421
-1.42474
-14.8363
-15.1245
-15.0571
-14.3236
-12.7835
-10.6436
-8.31873
-6.24456
-4.63179
-3.43435
-2.50557
-14.9613
-14.9352
-14.8586
-14.593
-13.8512
-12.4416
-10.4724
-8.33596
-6.42723
-4.89356
-3.66497
-15.2273
-15.2575
-15.1353
-15.0087
-14.6445
-13.7624
-12.2291
-10.2314
-8.1726
-6.36064
-4.8665
-15.5701
-15.6712
-15.6391
-15.5264
-15.3931
-14.9106
-13.7792
-11.9931
-9.87326
-7.81213
-6.03653
-16.0007
-16.1693
-16.2086
-16.2298
-16.25
-16.0366
-15.2415
-13.6794
-11.5479
-9.27317
-7.13517
-16.4824
-16.7287
-16.8528
-17.0509
-17.1734
-17.1758
-16.6653
-15.3099
-13.1801
-10.7301
-8.33955
-16.9144
-17.2577
-17.4493
-17.7819
-18.1246
-18.3416
-18.0479
-16.8569
-14.7067
-12.0453
-9.36161
-17.1577
-17.729
-17.9784
-18.4581
-19.0251
-19.4175
-19.3086
-18.2441
-16.0407
-13.1461
-10.1783
-17.3844
-18.0152
-18.3078
-18.9265
-19.6547
-20.2295
-20.3071
-19.3292
-17.0355
-13.8987
-10.699
-17.4174
-18.0216
-18.457
-19.1176
-19.9385
-20.6833
-20.9153
-19.9341
-17.5151
-14.1445
-10.6619
-17.1885
-17.7783
-18.295
-18.9872
-19.8157
-20.6184
-20.8918
-19.8513
-17.32
-13.7874
-10.1492
-16.7318
-17.2398
-17.7664
-18.4337
-19.2101
-19.93
-20.0113
-18.9245
-16.3676
-12.7351
-9.15247
-15.9588
-16.3303
-16.8016
-17.387
-18.0431
-18.5578
-18.411
-17.1516
-14.5736
-11.1202
-7.68609
-14.7992
-15.0067
-15.3738
-15.8342
-16.3141
-16.5781
-16.2205
-14.7682
-12.1792
-8.95995
-5.67045
-13.2428
-13.2883
-13.5446
-13.897
-14.2189
-14.2363
-13.6036
-12.0127
-9.48354
-6.6113
-3.7166
-11.3014
-11.2611
-11.4902
-11.8235
-12.0521
-11.8561
-10.9394
-9.1758
-6.77626
-4.26733
-1.84611
-9.11423
-9.20213
-9.5739
-9.96577
-10.1048
-9.6742
-8.43828
-6.44451
-4.1605
-2.05567
-0.228055
-7.23649
-7.66637
-8.32692
-8.8335
-8.91651
-8.26852
-6.71515
-4.52345
-2.38886
-0.575805
0.890942
-6.47781
-7.57309
-8.59187
-9.09176
-9.05966
-7.96059
-5.67324
-3.28514
-1.34552
0.0887835
1.0057
-8.18577
-10.6729
-10.39
-9.44181
-7.81356
-5.86182
-3.79224
-2.00685
-0.686927
0.229215
0.825859
-14.3867
-8.70349
-6.64649
-5.34265
-4.01929
-2.78066
-1.69515
-0.799191
-0.103604
0.409596
0.739466
10.6229
11.4826
10.4882
8.97629
7.3089
5.87504
4.66475
3.66779
2.83787
2.18119
1.82241
-16.7372
-4.42594
-0.750365
2.26673
3.19272
3.28747
2.86757
2.36896
1.85945
1.40627
1.128
-27.5676
-16.667
-12.8175
-6.67323
-3.26141
-1.00897
0.0411822
0.415833
0.487154
0.429027
0.406833
-27.5926
-21.7918
-19.7376
-13.3661
-9.48692
-5.86037
-3.52262
-2.06345
-1.2783
-0.826425
-0.523101
-24.2741
-21.712
-21.1218
-16.3436
-13.4319
-9.5735
-6.77326
-4.59521
-3.16578
-2.21883
-1.53352
-20.9318
-19.6556
-19.6014
-16.5008
-14.7902
-11.464
-8.9376
-6.58965
-4.81631
-3.52368
-2.54563
-17.9335
-17.2632
-17.3099
-15.3069
-14.3825
-11.8228
-9.88686
-7.73221
-5.96658
-4.52588
-3.36698
-15.1444
-14.8854
-14.9685
-13.6321
-13.1194
-11.2539
-9.88434
-8.07694
-6.52753
-5.1406
-3.96551
-12.749
-12.699
-12.7642
-11.8704
-11.5699
-10.2284
-9.27871
-7.84705
-6.58174
-5.34791
-4.25156
-10.8484
-10.7912
-10.8157
-10.2046
-10.0048
-9.04141
-8.37334
-7.27165
-6.27727
-5.236
-4.26175
-9.11081
-9.05208
-9.0812
-8.66067
-8.52728
-7.83956
-7.36424
-6.52898
-5.76031
-4.91395
-4.11222
-7.52233
-7.46949
-7.48621
-7.2328
-7.16611
-6.68793
-6.354
-5.72878
-5.13764
-4.45526
-3.79589
-6.30052
-6.1907
-6.1855
-6.02009
-5.98199
-5.64794
-5.4088
-4.94058
-4.48301
-3.93517
-3.39633
-5.41955
-5.23754
-5.20583
-5.07318
-5.02329
-4.76866
-4.57536
-4.21101
-3.84547
-3.4048
-2.98121
-4.70727
-4.47365
-4.43256
-4.31981
-4.25299
-4.04066
-3.8605
-3.55581
-3.24559
-2.87826
-2.52284
-4.19595
-3.92082
-3.85987
-3.74355
-3.64814
-3.44606
-3.25245
-2.9708
-2.6866
-2.3705
-2.07886
-3.85519
-3.55422
-3.46438
-3.32501
-3.1874
-2.96478
-2.73199
-2.44189
-2.16157
-1.88057
-1.63089
-3.5915
-3.27314
-3.15183
-2.99106
-2.80783
-2.54848
-2.26176
-1.94302
-1.65537
-1.40437
-1.20462
-3.36009
-3.03265
-2.88332
-2.69404
-2.46563
-2.15498
-1.80371
-1.44753
-1.15476
-0.939484
-0.80548
-3.12966
-2.80249
-2.63377
-2.41701
-2.12954
-1.74459
-1.3224
-0.936129
-0.65482
-0.483934
-0.40063
-2.89646
-2.57456
-2.39184
-2.12846
-1.75013
-1.27059
-0.788898
-0.408109
-0.169052
-0.0513629
-0.00054464
-2.60604
-2.34682
-2.10835
-1.74176
-1.23121
-0.670642
-0.201371
0.0966023
0.250552
0.299408
0.296908
-2.46731
-2.10174
-1.72604
-1.16428
-0.534089
0.00414482
0.346622
0.516985
0.601842
0.659007
0.939968
-1.55569
-1.16235
-0.501348
0.0914007
0.455923
0.622224
0.640685
0.59679
0.52925
0.462102
0.665036
27.6317
21.6392
16.4522
12.5108
9.68279
7.59468
5.95863
4.64207
3.58217
2.75996
2.23747
16.9819
18.2733
17.2026
14.8656
11.902
9.23412
7.08244
5.43294
4.16139
3.18894
2.56878
6.3129
11.0939
12.2573
12.4942
11.3017
9.51009
7.66198
5.99272
4.59853
3.52236
2.81201
-1.22941
3.96349
5.93616
8.05645
8.67464
8.1618
7.07568
5.7917
4.5683
3.57
2.90032
-5.48712
-1.28118
0.388676
3.2107
4.78857
5.55219
5.42217
4.82288
4.01333
3.24091
2.68303
-7.65507
-4.4394
-3.36237
-0.602876
1.13501
2.59222
3.22368
3.31203
3.01563
2.57898
2.20927
-8.70735
-6.14911
-5.57599
-3.08729
-1.6925
0.0453188
1.05015
1.63165
1.79069
1.70826
1.57756
-9.10259
-7.00838
-6.8564
-4.51523
-3.60161
-1.90008
-0.779419
0.0761562
0.558881
0.777099
0.870396
-9.35562
-7.48163
-7.59693
-5.51455
-4.72994
-3.24763
-2.16442
-1.20343
-0.534031
-0.0945074
0.204248
-9.56066
-7.98379
-7.80518
-6.27941
-5.46785
-4.15734
-3.15094
-2.17411
-1.41954
-0.848895
-0.409239
-9.6451
-8.43466
-7.97271
-6.72456
-5.9506
-4.76078
-3.82449
-2.86582
-2.08298
-1.44711
-0.921369
-9.5241
-8.52058
-8.0495
-6.94118
-6.21711
-5.12368
-4.24995
-3.32147
-2.53942
-1.87481
-1.32885
-9.38897
-8.44205
-7.99913
-6.97875
-6.303
-5.2824
-4.46594
-3.57257
-2.80949
-2.13874
-1.5907
-9.27768
-8.29111
-7.85754
-6.8838
-6.2404
-5.27558
-4.50473
-3.64865
-2.91395
-2.25445
-1.70238
-8.92257
-7.99423
-7.60541
-6.67622
-6.05366
-5.13678
-4.39669
-3.57868
-2.87533
-2.24123
-1.71247
-8.5201
-7.62342
-7.26211
-6.36994
-5.75572
-4.88172
-4.16076
-3.38248
-2.71411
-2.11839
-1.62597
-8.11708
-7.21243
-6.84651
-5.97897
-5.35467
-4.51693
-3.80761
-3.07207
-2.44603
-1.90299
-1.46137
-7.6202
-6.71837
-6.34113
-5.49756
-4.8493
-4.04262
-3.34384
-2.65666
-2.08674
-1.60633
-1.22658
-7.03209
-6.13387
-5.73293
-4.91157
-4.23108
-3.45388
-2.77556
-2.15166
-1.64575
-1.24518
-0.935867
-6.36508
-5.45818
-5.01051
-4.20384
-3.48902
-2.74627
-2.11058
-1.56767
-1.14883
-0.842737
-0.63113
-5.59596
-4.66116
-4.14229
-3.34753
-2.61515
-1.92831
-1.3732
-0.934885
-0.622261
-0.417425
-0.292932
-4.65923
-3.67568
-3.07043
-2.31165
-1.61638
-1.03359
-0.598649
-0.287747
-0.0871765
0.0214544
0.06391
-3.61266
-2.47044
-1.82811
-1.19818
-0.632608
-0.20322
0.087305
0.277806
0.377151
0.396238
0.374514
-1.58696
-0.679393
-0.252967
0.101944
0.408833
0.627376
0.758012
0.899598
0.975647
0.941073
0.757444
-7.5149
-2.93455
-1.16109
-0.350143
0.00500234
0.150385
0.172992
0.132601
0.0534755
-0.0341993
-0.0477485
-16.4939
-9.48281
-6.61801
-4.43786
-2.74794
-1.69304
-1.11587
-0.799091
-0.643702
-0.57558
-0.505003
-14.1068
-11.4475
-9.83485
-7.68502
-5.53726
-3.87104
-2.70959
-1.94741
-1.47835
-1.18943
-0.963054
-10.0761
-9.89749
-9.60615
-8.48111
-6.94252
-5.40684
-4.08436
-3.06375
-2.33959
-1.85058
-1.48745
-7.79163
-8.02624
-8.05943
-7.6956
-6.94492
-5.93357
-4.84426
-3.85353
-3.05235
-2.44977
-1.97632
-6.66382
-6.75291
-6.77998
-6.66178
-6.34294
-5.77721
-5.0296
-4.23366
-3.50021
-2.89134
-2.38443
-6.20253
-6.06994
-6.03385
-5.9526
-5.76222
-5.41682
-4.91398
-4.31515
-3.70113
-3.14555
-2.66123
-6.03799
-5.75351
-5.68285
-5.54843
-5.36559
-5.10091
-4.72406
-4.25547
-3.73828
-3.24073
-2.79073
-5.93538
-5.61166
-5.50549
-5.31925
-5.12195
-4.88206
-4.5574
-4.14661
-3.69012
-3.22925
-2.80398
-5.87445
-5.54741
-5.40658
-5.19987
-4.99452
-4.75725
-4.44762
-4.05828
-3.61482
-3.15939
-2.73581
-5.85192
-5.53333
-5.37246
-5.15416
-4.94189
-4.69718
-4.38307
-3.98727
-3.53042
-3.05533
-2.61101
-5.83289
-5.51796
-5.35731
-5.13644
-4.91572
-4.66081
-4.33528
-3.92108
-3.43586
-2.925
-2.43527
-5.79961
-5.49084
-5.33147
-5.11028
-4.88043
-4.61897
-4.28001
-3.84323
-3.3246
-2.77415
-2.24576
-5.74369
-5.44377
-5.28225
-5.06128
-4.82049
-4.54938
-4.1988
-3.74186
-3.19234
-2.6045
-2.02291
-5.66487
-5.36988
-5.20739
-4.9843
-4.73117
-4.44336
-4.08348
-3.61323
-3.0419
-2.42952
-1.81887
-5.56568
-5.27648
-5.11314
-4.88792
-4.62718
-4.32251
-3.95389
-3.4761
-2.8953
-2.2705
-1.65554
-5.45713
-5.17787
-5.01427
-4.78844
-4.52674
-4.21911
-3.843
-3.36636
-2.78477
-2.15653
-1.5256
-5.34951
-5.08217
-4.92357
-4.70538
-4.4517
-4.15401
-3.78581
-3.32354
-2.75237
-2.13113
-1.50641
-5.2476
-4.99775
-4.85261
-4.65277
-4.42072
-4.14815
-3.81235
-3.38048
-2.83861
-2.23727
-1.61738
-5.15656
-4.93434
-4.81092
-4.64062
-4.44559
-4.21793
-3.93513
-3.55704
-3.06808
-2.49924
-1.87298
-5.07832
-4.90036
-4.80433
-4.67458
-4.53139
-4.36786
-4.15768
-3.8607
-3.45077
-2.93254
-2.30959
-5.02582
-4.89787
-4.83847
-4.75671
-4.6782
-4.59653
-4.47926
-4.28276
-3.97362
-3.53059
-2.90885
-4.98245
-4.93569
-4.90425
-4.87572
-4.87323
-4.88348
-4.86288
-4.74688
-4.49974
-4.1302
-3.61291
-5.13526
-4.99199
-5.02517
-5.0813
-5.1404
-5.18269
-5.18051
-5.11599
-4.9653
-4.69075
-4.23788
10.6752
6.65036
4.13433
2.76104
1.98468
1.50828
1.16966
0.891935
0.644585
0.437115
0.308485
11.2364
10.1355
8.05458
6.09353
4.48743
3.28928
2.42628
1.79061
1.29987
0.927117
0.701066
8.0735
8.57674
8.14789
7.07739
5.7694
4.5186
3.44542
2.57305
1.88148
1.35042
1.0116
5.42249
6.42978
6.6208
6.38743
5.754
4.85553
3.89656
3.01778
2.2626
1.64843
1.23829
3.41754
4.47228
4.89474
5.09889
4.95135
4.49601
3.85317
3.13785
2.43053
1.80662
1.35423
1.92696
2.84975
3.27699
3.67404
3.8556
3.76543
3.43247
2.93468
2.36226
1.79944
1.36882
0.840639
1.60105
1.94932
2.37245
2.68234
2.81231
2.73679
2.47661
2.08296
1.62241
1.25704
0.0797806
0.675727
0.931032
1.31028
1.63148
1.85045
1.92835
1.85087
1.63059
1.29267
1.01315
-0.513131
-0.0331124
0.144272
0.467286
0.752453
0.9844
1.13032
1.165
1.07924
0.856414
0.664682
-1.02142
-0.612533
-0.501353
-0.221717
0.0156683
0.226582
0.389681
0.482514
0.489819
0.357867
0.270869
-1.4561
-1.13336
-1.06392
-0.810588
-0.624418
-0.448527
-0.296156
-0.181683
-0.114665
-0.190346
-0.192437
-1.81267
-1.61296
-1.50859
-1.33149
-1.20022
-1.06837
-0.947054
-0.840567
-0.759156
-0.738903
-0.705724
-2.14915
-2.01727
-1.93089
-1.81733
-1.72945
-1.64673
-1.56979
-1.49147
-1.40601
-1.33008
-1.24138
-2.48228
-2.39806
-2.34004
-2.27411
-2.23046
-2.1977
-2.16959
-2.13128
-2.06434
-1.96545
-1.82811
-2.77862
-2.75114
-2.72875
-2.70798
-2.71065
-2.72864
-2.75205
-2.76073
-2.72637
-2.62558
-2.46977
-3.06743
-3.09357
-3.10292
-3.12444
-3.17318
-3.24146
-3.31759
-3.37753
-3.38413
-3.2945
-3.13475
-3.35584
-3.42807
-3.46456
-3.52412
-3.61571
-3.73114
-3.85803
-3.96938
-4.01974
-3.94448
-3.7322
-3.63354
-3.74599
-3.80787
-3.90059
-4.02931
-4.1855
-4.35699
-4.51516
-4.60976
-4.57152
-4.37925
-3.89967
-4.04396
-4.12747
-4.24549
-4.40182
-4.58799
-4.79238
-4.98566
-5.11305
-5.09228
-4.84914
-4.15407
-4.31847
-4.41667
-4.5484
-4.7185
-4.91919
-5.13926
-5.3489
-5.49111
-5.47761
-5.15459
-4.39143
-4.56145
-4.66456
-4.79544
-4.9626
-5.1601
-5.37611
-5.58023
-5.71889
-5.71894
-5.44577
-4.59997
-4.75945
-4.85429
-4.96941
-5.1185
-5.29744
-5.48972
-5.66314
-5.77015
-5.75066
-5.4927
-4.78859
-4.91243
-4.98507
-5.07285
-5.19432
-5.33993
-5.48571
-5.59798
-5.63881
-5.56178
-5.29253
-4.87986
-4.96084
-4.99985
-5.06128
-5.15346
-5.25489
-5.33128
-5.35403
-5.29951
-5.12658
-4.73984
-2.31353
-2.18243
-1.42767
-0.397529
0.278947
0.640847
0.630704
-0.017514
-0.954938
-1.8343
-1.69322
-1.15022
-0.379055
0.164213
0.477799
0.473582
-0.0392327
-0.750982
-1.7122
-1.62234
-1.08994
-0.406514
0.0509756
0.329014
0.333082
-0.0858319
-0.703008
-1.51307
-1.39655
-1.01217
-0.437854
-0.0470757
0.200571
0.197446
-0.129079
-0.646401
-1.86553
-1.24048
-1.00409
-0.943139
-0.939808
-1.06054
-1.3614
-1.76681
-1.70902
-1.53461
-1.15576
-1.00779
-0.956691
-0.941801
-0.995858
-1.1404
-1.37149
-1.25929
-1.45725
-1.11363
-0.996308
-0.94526
-0.91865
-0.941105
-1.08149
-1.27655
-1.18192
-1.34411
-1.06417
-0.977101
-0.917579
-0.87098
-0.862781
-0.99278
-1.12443
-1.00794
0.916945
1.40055
1.41121
-0.1802
-0.796787
1.82309
-0.847502
1.69393
1.83843
0.891495
-0.809121
1.69029
-0.486289
-0.104141
0.910063
1.31025
-0.0841647
-0.161573
1.31372
0.902919
1.02249
-0.911347
1.52194
-0.188057
1.35972
-0.103908
-0.490032
-0.848727
-1.26198
-0.694963
-0.0830466
-0.18621
-0.0559372
1.45819
-0.339099
1.42881
-0.175271
1.37374
-0.0592629
1.82671
-0.644912
1.46443
-0.140736
1.52758
-0.834126
-0.622366
-0.145586
-0.760218
0.065885
2.00072
-0.667514
1.81613
0.0250088
-0.13519
1.98908
1.02551
-0.923404
1.79865
-1.31045
-0.083221
-1.01264
0.0191058
-0.868447
-0.911706
-0.615292
0.904789
-0.237391
2.36263
1.42916
0.893486
-0.218856
1.29092
-0.183415
1.48392
-0.0220243
1.32949
-0.877276
1.48348
-0.784978
-0.740498
-0.0299376
-0.879641
0.995767
1.01805
-0.595422
-0.168313
-1.70383
0.0163308
-0.949923
-0.0724813
1.49085
1.78653
-0.621728
1.78981
-0.740913
-0.838848
-0.0421111
-0.515336
-0.893673
1.33458
-0.652957
-0.797206
0.774653
-0.417974
-0.703418
1.58686
-0.013215
1.00004
-0.030457
0.498851
1.5632
1.45861
1.55724
-0.377607
-0.0718236
0.967426
1.83487
1.4753
1.72642
0.662263
-0.427082
1.4168
-0.0454619
-0.105839
-0.626564
-0.57375
0.00486208
-0.0122679
-0.0048073
-0.0278764
1.67643
-0.0777315
-0.772936
1.30735
1.51264
-0.631709
-0.862393
-0.811086
-0.745584
0.179403
-0.0949907
0.901468
-0.801143
0.349975
1.83144
-0.280621
-0.708113
2.33201
1.02949
1.63815
1.81619
1.73665
-0.257605
1.43708
-0.292423
-0.132192
-0.123726
-1.00041
-0.116037
1.07173
-0.442978
-0.692962
1.31035
1.11919
-0.234909
-0.0984086
-0.897553
0.966993
-0.570746
-0.634344
-0.0447276
-0.0344527
-0.567603
0.776558
-0.138471
-0.0628323
-0.00866157
-0.333973
-0.87271
0.00585359
2.24694
-0.902848
1.47875
-0.684589
1.692
-0.610245
1.89048
1.45135
1.23536
-0.767729
-0.038479
-0.155325
0.845845
-0.665968
1.44209
1.21014
1.86774
-0.857177
-0.0284677
0.980714
-0.645467
2.05527
-0.0807899
-0.127729
1.49873
0.0245535
1.81641
-0.006199
1.96006
0.893615
-0.05803
1.38881
0.609664
-0.215093
1.50169
-0.0193801
1.50801
-0.100597
1.96978
-0.202333
-0.0259681
-0.341705
-0.0488554
-0.0790379
-0.0886607
1.76437
-0.645594
-0.0737714
-0.0304089
-0.956426
-0.97557
0.821923
1.84949
1.34629
-0.306674
-1.31464
-0.0727849
1.47349
1.64502
1.65008
-0.0754245
-0.342393
-0.435049
-0.712621
2.38099
-0.708989
1.44715
-0.178995
-0.948856
-0.00468787
-0.167957
-0.0629823
-1.01055
1.06023
-0.05683
1.85899
1.1314
1.37655
-0.440302
1.90272
-0.00798725
-0.688974
0.871046
1.51183
1.55505
-0.142486
0.859557
3.03041
-0.338521
-0.290539
-0.712096
1.82247
2.0681
-0.15575
1.49657
1.4655
-0.141312
1.57296
0.247418
-0.703542
1.299
1.67422
-0.0283599
-0.06525
0.00445139
1.38912
-1.61816
1.66024
0.102919
-0.100977
1.61195
-0.848046
0.667507
-0.113324
1.42852
1.941
-0.562747
1.54743
-0.280052
-0.175127
1.76299
-0.523245
-0.109994
-0.72366
1.17016
0.446553
1.50228
-0.0041457
-0.905364
1.69917
-0.847025
1.59372
0.374545
-0.0417824
-0.938094
0.364078
-0.32322
-0.799964
0.609758
1.6901
1.80148
-0.0061751
1.41011
-0.32146
-0.848047
1.0417
1.46376
-0.342281
0.806387
0.0215724
2.82538
-0.830844
-0.857782
1.61225
-0.402117
-1.04165
-0.130132
1.51096
1.55984
-0.494133
-0.76112
-0.0659753
2.08272
-0.153931
-0.718046
-0.00702298
-0.0656232
1.45503
-0.23536
0.00828512
-0.826433
-0.497303
-0.255694
1.22629
-0.0763883
0.97932
-0.0199799
0.224635
1.51275
0.0132443
-0.269841
-0.12284
1.50311
0.992271
1.52517
-0.917694
-0.0338962
-0.121348
-0.815157
0.129439
1.55578
-0.689935
-0.99944
-0.0528753
-0.0926478
1.60772
-0.0340001
-0.33455
1.38419
1.62781
-0.0438302
1.24
-0.399339
1.74545
-0.154648
-0.0747981
-0.442868
-0.0921307
-0.291868
-0.944486
1.72426
-0.888691
-0.0335553
1.11833
-0.0867062
-0.624357
1.50915
1.63536
1.66688
-0.116822
-0.421405
0.960789
1.61363
-0.0778537
-0.0137646
-0.632564
-0.825521
-0.0267392
2.05125
-0.00336327
1.28053
1.3004
-0.0836412
-0.0803677
-0.168432
0.292218
-0.0414483
1.42178
-0.023324
-0.911857
-0.760602
-0.0259465
-0.836493
-0.0111707
-0.100407
0.565166
1.47467
-0.0227558
-0.555389
-0.579215
1.43786
-0.42373
-0.190417
0.545442
-0.398214
-0.0411931
-0.511975
-0.739783
-0.112327
1.41521
-0.490999
-1.64723
-0.0817676
-0.46319
1.56052
-0.0739653
-0.0402249
-0.870364
1.14335
-0.650677
1.72348
1.01876
1.52602
-0.93155
-0.717874
-0.808555
-0.04953
-0.72262
-0.0100569
1.14825
1.16229
0.00545225
-0.0613593
-0.09649
1.51457
-0.0125721
-0.0133968
0.969089
1.38643
2.74942
-0.0754759
-0.441815
1.57556
-0.942649
1.48287
1.61784
1.79601
0.909024
-0.710902
1.85816
1.05588
1.07538
-0.946389
-0.893184
1.51021
-0.217188
-0.824666
0.398796
-0.062996
0.989604
-0.793745
1.23628
1.58545
1.76064
-0.00588289
-0.118602
0.852178
-0.194358
0.513164
2.97913
-0.398939
-0.327994
1.67384
1.04874
-0.951391
-0.0277741
-0.274682
2.78485
-0.791166
1.41246
-0.267886
-0.11216
-0.963446
-0.102697
-0.69053
-0.0973974
-0.125202
-0.191721
1.43577
-0.402345
0.570712
1.66976
1.51383
1.61535
1.18698
-0.0492227
1.70962
1.00707
-0.474918
1.76175
-0.68162
-0.163483
-0.00776493
-0.218707
-0.943244
1.32598
1.47329
1.66279
-0.689571
-0.725599
1.44646
1.15371
-0.0980408
1.62859
-0.0775854
1.63177
0.0227599
0.237008
-1.03669
-0.0724805
-0.0260829
-0.648764
-0.253306
1.19347
0.809531
0.994754
1.59338
-0.0387168
-0.938322
0.771505
-0.0840875
-1.04784
-0.748162
1.40598
1.92441
1.57928
-0.0390065
-0.0586637
-0.0257249
1.63863
1.77053
-0.0568462
1.70948
-0.126692
-0.0192982
-0.0215678
-0.754108
1.57995
-0.0186949
1.46449
-0.116511
1.70489
-0.00884728
-0.0103584
-0.0863399
-0.923578
-0.0811458
1.66709
1.47708
-0.750905
1.09572
-0.408938
-0.407453
-0.141933
-0.0729634
-0.747047
-0.291782
0.972698
1.77302
1.70158
-0.856959
-0.139067
-0.0978975
0.879672
1.41448
-0.838333
1.88089
1.83162
1.28521
1.16079
-0.152277
-0.140652
-0.16093
-0.317713
0.145586
-1.11944
1.03757
-0.231669
1.27243
1.75332
-0.943104
-0.0554778
1.37692
1.17373
-0.84526
0.74608
1.1224
-0.392598
1.57298
0.931744
-0.211375
-0.114667
-0.180062
-0.0237107
-0.0258449
-0.874752
-0.013277
-0.73355
-0.333674
-0.327909
-0.919745
-0.117083
-0.154191
1.41656
1.36249
-0.834042
0.159657
1.55896
0.486492
-0.19985
-0.128906
-0.934555
-0.435811
-0.191135
1.48741
-1.07862
1.34844
1.61788
0.523963
-0.356896
1.10405
2.86603
1.64915
1.58951
-0.34092
-0.0430529
-0.934357
1.25012
2.01023
0.242338
-0.0274704
1.69264
-0.808936
1.46651
-0.058234
-0.000405263
1.54426
-0.0130134
1.15732
-0.0518565
-0.567331
-0.14638
-0.902994
-0.432119
-0.56209
0.998615
-0.0157185
-0.0632349
-0.949567
0.0107669
1.43815
0.348153
1.01266
-0.291056
1.57164
-0.21066
1.62862
1.82148
1.37397
-0.514773
-0.1458
1.35741
-0.0103639
1.6374
-0.0631633
-0.122224
0.740475
-0.432757
-0.710573
-0.101855
-0.00849573
-0.4962
-0.320888
-0.229324
-0.0445785
-0.842226
1.42988
-0.162452
1.64171
2.70932
-0.854824
-0.512386
-0.809096
-0.0979303
1.70078
0.907963
0.635583
-0.107643
1.16058
0.0182657
-0.0885089
0.0330344
0.683945
-0.0997776
-0.0864207
-0.0621992
1.25568
-0.244454
-0.623306
-0.743821
1.57503
-0.126606
-1.06234
1.46363
-0.715922
-0.0255311
1.61066
-0.0455319
1.76182
1.78034
0.492421
-0.032502
1.27664
-0.0603247
1.56753
-0.0560349
1.13895
-0.117841
-0.0350156
-0.0594506
-0.0185888
1.42792
-0.526514
-0.684694
1.05861
-0.0579217
0.00390736
-0.0890545
-0.999219
-0.991759
0.889028
-0.0717398
-0.0790361
-0.864595
1.58109
-0.605727
1.48641
-0.0568469
-0.806933
1.4151
1.73216
-0.614502
-0.799259
-0.018137
-0.278198
1.68188
-0.161398
0.477234
1.44561
1.24283
1.59329
1.64313
2.45533
-0.0171529
-0.899352
-0.671182
-0.0369795
-0.467093
1.34258
1.68216
-0.190163
-0.110179
1.48803
-0.313571
-0.173806
-0.796852
-0.0851842
-0.71893
-0.164819
-0.0820685
1.32669
1.66805
-0.652959
0.755518
1.68689
0.425095
-0.00707612
-0.518116
-0.478193
1.45113
-0.345182
-0.714805
-0.153812
1.68373
-0.0194609
-0.0705804
-0.134104
-0.0852733
1.07649
1.57226
-0.172129
-0.146446
-0.0930693
1.01427
1.64014
1.66611
1.71824
1.66937
-0.0454471
-0.310597
-0.699223
-0.820768
-0.0784573
1.67384
-0.913836
1.1589
1.4441
-0.0703202
1.68328
1.61952
1.79248
-0.810838
0.0241082
-0.138369
1.6079
-0.0900204
1.43186
1.54883
1.90375
1.19574
0.493681
1.5336
1.51706
1.93226
-1.06329
1.49787
0.959727
-0.46712
-0.811667
2.13263
1.52219
-0.83613
-1.03953
2.14619
-0.619636
-0.144308
-0.0955571
1.588
1.36564
1.01057
0.298013
0.00341322
1.65572
-0.460145
-0.119405
-0.0113784
-0.0897572
1.54327
-0.120508
0.847318
1.54662
1.30928
2.84015
1.48882
-0.514261
-0.658713
-0.0451451
-0.227497
0.0246319
-0.11001
0.122423
-0.873955
1.47827
1.55079
-0.0172532
-0.023069
-0.132286
1.82716
-0.752204
1.57781
-0.242448
1.18481
-0.0177176
-0.0511346
-0.666142
-0.175867
0.868979
1.37348
-0.0219133
-0.877324
0.0111347
-0.372684
-0.150575
0.63658
1.14938
0.0158522
1.62425
1.5129
-0.405017
-0.593327
-0.765524
-0.842566
-0.0185287
-0.122587
-0.00729194
-1.10629
1.03859
0.63538
0.00894383
1.07983
-1.22486
1.62213
-0.0649807
-0.101443
-0.0298621
1.12287
-0.19207
1.63817
1.80071
-0.0454092
-0.317163
1.7867
1.57265
1.90965
-0.667348
-0.521965
-0.923334
0.15639
0.864935
-0.58913
-0.108603
-1.05418
1.03954
-0.0242853
-0.0624397
1.65412
-0.0277524
0.154836
-0.121635
-0.194122
0.11786
-0.382467
0.320243
1.54822
-0.173926
-0.0736059
1.96911
-0.0229698
1.48487
-1.26621
-0.00513801
-0.739944
1.38907
-0.0238118
-0.471874
-0.669802
-0.0244371
-0.0553662
0.990577
-0.00891732
-0.988031
1.49614
0.560197
-0.031156
-0.124197
-0.115775
-0.287993
1.76584
1.16228
-0.936896
1.61303
-0.659711
-0.107362
-0.00591659
-0.0748838
1.66741
-0.179786
-0.844182
-0.0291377
-0.0647323
-0.0742321
1.31786
-0.282992
-0.0217597
1.12497
0.448528
1.5165
-0.0610635
0.722263
1.65582
-0.394007
-0.0514677
-0.0629519
1.56545
-0.837421
-0.706095
0.877618
-0.430777
1.43706
0.874468
0.114795
-0.8285
2.67725
-0.0278493
0.140151
-0.858125
1.52969
1.11592
1.00701
1.01168
-0.26288
-0.0601122
-0.0622746
-0.812625
-0.613933
-1.08116
0.863064
0.375943
-0.550411
1.0824
-0.0540456
0.0177942
-0.146684
-0.829032
-0.497548
-0.0288414
1.61589
-0.0761908
1.04458
-0.0252984
1.56452
-0.926255
-0.554407
1.407
-0.910682
-0.122267
1.15346
-0.327376
-0.0735884
-0.7102
-0.0941275
-0.124646
-0.8092
-0.023569
-0.468791
-0.656449
-0.183359
1.58657
-0.478935
2.61468
-0.357423
-0.127004
-0.558904
-0.205183
-0.141838
-0.786245
1.06683
2.23992
1.05548
1.57023
-0.110439
-0.330601
1.08418
-0.118595
-0.726145
2.97959
-0.713726
-0.86943
-0.635991
-0.697513
-0.805094
-0.138587
-0.0369413
-0.00662851
1.10343
1.20015
-0.0967934
1.18225
1.50007
-0.348467
0.991473
2.29462
-0.0424514
1.28675
-0.969064
-0.0813885
-0.123617
1.06334
-0.335584
-0.0843003
-0.118
-0.703272
1.02804
-0.110614
-0.0797697
-0.0913182
-0.013715
1.29889
-0.0237335
0.76986
-0.579132
-0.0212326
0.281671
1.10975
-0.281999
-0.0781509
-0.519353
-0.718586
-0.17138
1.16985
1.50634
1.22822
-0.270226
-0.0282584
-0.0623904
-0.869154
-1.47841
0.970191
-0.1546
0.831178
1.61276
-0.616161
0.942805
2.10121
-1.14921
-0.723392
-0.802011
-0.903815
1.56689
1.39343
-0.0287097
-0.95687
-0.0241254
-0.854728
-0.222726
1.60471
1.94933
-0.126089
-0.00173746
-0.0450315
-0.131382
1.56131
-0.1392
-0.0375185
-0.100952
1.31519
-0.376942
-0.820815
0.166585
-0.475636
1.61791
0.735797
-0.975346
-0.0749935
-0.312969
0.997548
0.0498821
-0.196351
-0.677102
-0.370986
-0.145282
-0.796918
-0.459471
1.85011
-0.836292
-0.66162
1.19882
-0.00805109
-0.111926
0.465661
-0.00961427
1.12391
1.49693
1.11569
-0.761955
-0.00476606
1.42898
-0.119731
1.13306
1.50525
0.977246
-0.124448
1.43819
-0.0778688
-0.733459
1.19338
-0.935929
-0.944965
-0.123943
-0.579461
-0.464149
-0.244672
-0.0105154
1.70797
1.52224
1.61489
-0.0892845
0.983417
1.74062
-0.645171
-0.913162
-0.112783
-0.0731297
-0.00494279
-0.0431824
-0.71096
-0.734932
1.41127
-0.166814
1.35084
-0.0241132
0.632993
-0.0610444
1.03887
0.784989
1.70745
-0.725779
-0.00460311
0.476604
-0.149833
1.39441
-0.0329568
0.013698
-0.393447
-0.139338
1.10772
0.89596
0.0167618
-0.719498
-0.0802568
-0.0114844
-0.517137
-0.0555321
1.15026
-0.788298
-0.0394876
0.693756
-0.129117
-0.108467
-0.43438
-0.724748
-0.633125
-0.00667752
-0.756897
-0.907752
1.42305
2.28721
0.00078456
-0.0716477
-0.0399431
1.48987
-0.533938
1.44787
1.34622
-0.951374
0.994218
1.66335
-0.850016
-0.40525
2.03463
0.950312
1.82473
1.17294
1.56222
1.68655
-0.604401
-0.39741
1.37544
1.63124
-0.194706
1.60576
-0.0538396
1.55422
1.25911
1.66743
-0.323295
-0.822521
-0.0357423
0.944372
1.53652
-0.117523
-0.026046
1.12136
-0.535665
-0.216207
1.8054
-0.592381
-0.106059
-0.563944
-0.402926
-0.585907
1.65995
-0.346654
1.68604
1.06307
1.74581
-0.772577
1.22172
-0.0400882
1.75485
-0.830209
1.53627
1.20626
-0.788061
1.52745
1.33503
-0.704734
0.0146563
-0.242461
1.29751
1.03282
1.67606
-0.00891735
-0.0340739
-0.192029
-0.470541
-0.354141
-0.733644
1.629
1.37968
2.58567
0.86189
-0.125208
1.70553
-0.20658
1.50541
-0.783331
-0.0726754
-0.130295
-0.140194
0.267029
0.0237376
1.45782
-0.454828
-0.537788
1.08562
1.19493
-0.110241
0.934575
1.55397
0.877187
-0.263896
1.40841
-0.257701
-0.554315
-0.0900951
-0.127556
1.39947
-0.578573
0.116684
-0.765267
-0.151108
0.20708
-0.0244119
0.961189
1.52841
0.881735
1.33648
-0.403473
0.954198
1.64335
-0.0335189
-0.644937
1.70744
0.90566
-0.863668
-0.411856
1.03166
-0.599354
0.97573
0.995574
-0.177118
1.21515
-0.114261
-0.0925897
1.06344
1.50942
-0.163841
-0.303775
0.867621
-0.0183491
1.44381
1.37312
-0.148721
1.08635
-0.131919
1.16452
1.84744
-0.679299
0.443806
2.31308
-1.77915
1.15779
2.14071
2.49692
2.31846
-0.277969
0.0141626
-0.131543
-0.407192
-0.811065
2.11069
1.82254
-0.367799
-0.00589879
1.14293
0.684601
-0.514831
1.50552
0.0193946
1.6604
-0.214253
1.83673
0.880686
-0.0282184
-0.183624
-0.152541
1.42921
1.0184
0.674333
0.917744
1.65045
-0.120965
-0.0803155
-0.418678
-0.565821
-0.0975161
0.835579
1.70157
1.78594
-0.802558
0.656739
-0.0740852
-0.85357
1.06733
0.00278717
-0.623879
1.69692
0.998483
0.0719516
-0.505443
-0.217568
1.48487
-0.19782
-0.0272452
-0.685829
-0.0223824
-0.116632
1.58545
-0.156022
-0.4308
-0.778561
-0.419789
-0.283929
-0.0221642
1.24233
0.809534
-0.271517
1.43996
-0.102503
-0.115067
-0.0354166
-0.22016
-0.132286
-0.631108
-0.707034
-0.0797423
1.70218
-0.0999067
-0.097371
-0.14741
-0.38899
-0.54057
1.15802
-0.793056
1.69168
0.0109765
-0.902182
-0.396576
-0.631792
-0.0652192
0.00772759
1.82563
1.65785
1.68822
1.19897
1.31423
-0.213587
2.30504
-0.77551
1.98194
0.0122346
-0.193912
1.36919
1.03124
-0.668542
-0.735372
1.54581
0.468945
1.52553
1.46182
0.0276955
-0.756991
1.2636
1.31228
1.24691
1.43285
1.64185
1.50625
-0.449385
-0.361044
1.68852
-0.539918
1.4887
1.38057
-0.0517408
1.54592
-0.24235
0.876634
1.65033
1.40804
0.934993
-0.037048
2.0963
-0.0115788
-0.360312
-0.803661
-0.114724
-0.0129942
-0.0429664
-0.0381359
-0.112486
-0.0127807
0.00733349
1.51965
-0.140016
0.747051
1.71116
1.49054
-1.0453