/*--------------------------------*- C++ -*----------------------------------*\
| =========                 |                                                 |
| \\      /  F ield         | OpenFOAM: The Open Source CFD Toolbox           |
|  \\    /   O peration     | Version:  3.0.1                                 |
|   \\  /    A nd           | Web:      www.OpenFOAM.org                      |
|    \\/     M anipulation  |                                                 |
\*---------------------------------------------------------------------------*/
FoamFile
{
    version     2.0;
    format      ascii;
    class       volVectorField;
    location    "0.661768";
    object      U;
}
// * * * * * * * * * * * * * * * * * * * * * * * * * * * * * * * * * * * * * //

dimensions      [0 1 -1 0 0 0 0];

internalField   nonuniform List<vector> 
21246
(
(5.05509 -1.80624 -8.62877e-20)
(4.0345 -1.278 9.07425e-20)
(4.25298 -1.23678 4.18597e-20)
(4.27318 -1.14409 0)
(4.12236 -0.972615 0)
(3.90146 -0.744832 0)
(3.6925 -0.551845 -1.38592e-20)
(3.50336 -0.416713 1.37351e-21)
(3.343 -0.342357 2.50443e-21)
(3.20672 -0.317615 5.6713e-21)
(3.10268 -0.333032 8.8488e-22)
(3.95211 -0.475532 0)
(3.08751 -0.454119 -1.06079e-19)
(3.33906 -0.924143 7.85168e-20)
(3.51305 -1.12173 0)
(3.56954 -1.13719 0)
(3.55431 -1.02216 -3.03097e-19)
(3.49317 -0.833227 8.87527e-20)
(3.39455 -0.634985 3.44228e-20)
(3.29062 -0.503795 3.40651e-20)
(3.19521 -0.441757 2.30548e-20)
(3.11723 -0.433191 0)
(3.82977 0.931772 0)
(3.12877 0.286639 0)
(3.00087 -0.343621 -4.31101e-19)
(3.01353 -0.729577 1.39337e-18)
(3.06709 -0.953479 -1.22732e-18)
(3.13166 -1.01901 0)
(3.18242 -0.940619 0)
(3.19781 -0.77685 -3.09988e-19)
(3.18212 -0.623349 2.10488e-19)
(3.14402 -0.525608 7.72991e-20)
(3.10781 -0.495466 0)
(4.16107 1.59409 0)
(3.43448 0.830546 0)
(3.02281 0.239733 2.18492e-20)
(2.83011 -0.227318 2.2778e-19)
(2.76951 -0.583254 1.09542e-18)
(2.79805 -0.797094 -8.25155e-19)
(2.8777 -0.851942 0)
(2.96535 -0.777514 -4.30359e-19)
(3.03071 -0.656789 4.69701e-19)
(3.05946 -0.558574 -6.55432e-20)
(3.07046 -0.514899 0)
(4.4028 1.6989 2.2004e-18)
(3.68123 1.16034 -2.01853e-18)
(3.1673 0.675666 3.15648e-19)
(2.83554 0.220994 -1.65885e-18)
(2.65569 -0.17446 2.3535e-18)
(2.60495 -0.469158 -4.52554e-19)
(2.65653 -0.627374 0)
(2.76551 -0.650372 -7.90327e-19)
(2.88152 -0.595672 8.60528e-19)
(2.96586 -0.529537 -1.5363e-20)
(3.02137 -0.49402 -2.02499e-19)
(4.37468 1.59083 0)
(3.84732 1.34214 3.7371e-19)
(3.32492 0.964046 5.07341e-19)
(2.92812 0.572374 3.72359e-19)
(2.66615 0.19633 -5.29802e-19)
(2.54078 -0.122396 3.20351e-19)
(2.54348 -0.341923 -1.3949e-18)
(2.63902 -0.444667 9.36796e-19)
(2.77156 -0.462098 -6.93264e-19)
(2.88843 -0.444203 -6.28575e-19)
(2.97612 -0.432865 2.55798e-19)
(4.33348 1.47436 -1.6164e-18)
(3.92823 1.38648 2.46039e-18)
(3.4813 1.13953 -1.4252e-18)
(3.06041 0.825977 -3.62119e-19)
(2.75576 0.497443 5.17305e-19)
(2.5781 0.19196 0)
(2.53391 -0.0519718 0)
(2.59967 -0.207716 5.69507e-19)
(2.72316 -0.286471 3.5229e-19)
(2.84815 -0.319809 4.24745e-19)
(2.9509 -0.342605 -2.52962e-19)
(4.26834 1.35545 0)
(3.94375 1.35759 8.05065e-19)
(3.59286 1.20531 -1.61953e-18)
(3.211 0.992061 1.80648e-18)
(2.89172 0.716728 -9.06281e-19)
(2.68826 0.445427 2.97831e-19)
(2.61007 0.203718 0)
(2.64283 0.0203595 -5.59401e-19)
(2.7422 -0.102528 3.40956e-19)
(2.85642 -0.180709 4.00235e-19)
(2.95713 -0.237494 -2.94366e-19)
(4.19635 1.24254 1.54789e-18)
(3.93091 1.30551 -9.33512e-19)
(3.66104 1.20054 7.04628e-19)
(3.34885 1.07045 -2.87564e-19)
(3.04975 0.85583 3.75152e-19)
(2.84419 0.626272 -5.58079e-19)
(2.74781 0.402571 0)
(2.75149 0.211182 -4.77692e-19)
(2.82037 0.062054 3.28396e-20)
(2.91152 -0.0486218 -1.5731e-19)
(2.99795 -0.134192 7.71443e-19)
(4.1368 1.13955 8.51074e-19)
(3.91573 1.24696 1.25932e-18)
(3.70889 1.15783 -6.49382e-19)
(3.46418 1.08194 -7.18502e-19)
(3.21112 0.923933 3.3036e-19)
(3.02303 0.736012 2.61586e-19)
(2.92203 0.536907 -6.60525e-19)
(2.90327 0.350204 2.47975e-19)
(2.9415 0.189579 -3.14465e-19)
(3.00407 0.0587204 -1.88233e-19)
(3.06754 -0.0471934 -2.48422e-19)
(4.09882 1.04542 0)
(3.91191 1.18667 -1.99098e-19)
(3.75159 1.09512 0)
(3.56467 1.05173 4.24648e-19)
(3.36455 0.933939 -9.65388e-19)
(3.20667 0.782319 1.90127e-20)
(3.11059 0.608638 6.56492e-19)
(3.07644 0.433865 2.03641e-19)
(3.08765 0.272395 0)
(3.12146 0.131833 1.86217e-19)
(3.15936 0.0142093 0)
(4.07954 0.95722 0)
(3.92052 1.12298 -2.65413e-19)
(3.79523 1.02053 2.75803e-19)
(3.65405 0.993915 0)
(3.50656 0.90136 4.22459e-19)
(3.38161 0.776529 -4.29916e-19)
(3.29632 0.62604 0)
(3.25332 0.466258 -2.01252e-19)
(3.24292 0.31068 -1.19978e-19)
(3.25048 0.168698 1.68404e-19)
(3.26307 0.045693 -3.18944e-21)
(4.07562 0.874797 4.44092e-19)
(3.94205 1.05668 -7.67146e-19)
(3.84397 0.941118 2.59785e-19)
(3.74032 0.920021 -4.58241e-20)
(3.63561 0.840652 1.87522e-19)
(3.54121 0.733725 -2.00453e-19)
(3.46919 0.601859 0)
(3.42253 0.456503 -4.28513e-20)
(3.39608 0.309312 1.65646e-19)
(3.38114 0.170056 -9.02041e-20)
(3.36956 0.0465581 9.12906e-20)
(4.09056 0.798708 -2.32631e-19)
(3.98057 0.987805 -3.07002e-19)
(3.90324 0.862128 2.47807e-19)
(3.82744 0.838076 4.54478e-20)
(3.75425 0.764565 -8.11458e-20)
(3.68508 0.66791 1.09365e-20)
(3.62613 0.548884 1.16416e-19)
(3.57913 0.41481 -3.56812e-20)
(3.54116 0.275369 -9.28551e-20)
(3.50711 0.140608 3.72244e-20)
(3.4737 0.019048 -4.43717e-20)
(4.12353 0.72416 1.35376e-20)
(4.03211 0.917455 -9.91262e-21)
(3.9702 0.782234 0)
(3.91463 0.753288 0)
(3.86404 0.681159 1.32672e-19)
(3.81464 0.588866 -1.00864e-19)
(3.76758 0.476745 0)
(3.72206 0.349362 -9.87761e-21)
(3.67533 0.214818 -1.27584e-20)
(3.62445 0.0841132 0)
(3.56974 -0.0356957 1.70528e-20)
(4.16943 0.650454 -2.11302e-19)
(4.09311 0.847483 0)
(4.04345 0.703735 1.11433e-19)
(4.00263 0.66947 -8.65724e-20)
(3.96842 0.596337 2.82254e-20)
(3.93455 0.503994 -1.81331e-19)
(3.89797 0.392811 1.59762e-21)
(3.85433 0.26607 -1.32682e-19)
(3.79925 0.132097 -1.32295e-20)
(3.73151 0.00359284 -4.71639e-21)
(3.65486 -0.112103 9.06085e-21)
(4.22821 0.576591 0)
(4.16384 0.779041 0)
(4.12275 0.628814 -2.53379e-19)
(4.09303 0.589353 -1.41049e-19)
(4.07176 0.514387 2.55425e-19)
(4.05149 0.418321 -5.10645e-20)
(4.02461 0.301421 -1.98778e-20)
(3.98168 0.167628 1.72724e-19)
(3.91573 0.0282904 1.8362e-19)
(3.82741 -0.0998937 1.51601e-20)
(3.72536 -0.209089 -6.84945e-21)
(4.29674 0.50177 5.22986e-20)
(4.23981 0.712352 -4.29783e-20)
(4.20444 0.558036 2.35122e-19)
(4.18484 0.516453 2.51989e-19)
(4.17755 0.439717 -5.09247e-19)
(4.17306 0.335165 1.69065e-19)
(4.15643 0.202952 -3.58693e-20)
(4.11066 0.0515392 1.21626e-19)
(4.02671 -0.10031 -1.89277e-19)
(3.9099 -0.229809 0)
(3.77572 -0.331549 0)
(4.37001 0.426189 -1.13322e-19)
(4.31571 0.649001 0)
(4.28552 0.495442 -2.38188e-19)
(4.28075 0.457774 -5.09791e-19)
(4.29654 0.378339 2.36243e-19)
(4.31512 0.254856 1.40113e-19)
(4.30793 0.09079 -1.05438e-19)
(4.24973 -0.0927499 0)
(4.13312 -0.262901 1.03874e-19)
(3.97535 -0.390606 5.37903e-20)
(3.80468 -0.472123 -3.92532e-20)
(4.44056 0.351237 0)
(4.38906 0.589692 0)
(4.36329 0.458428 2.54906e-19)
(4.38574 0.43851 3.60071e-19)
(4.43571 0.35069 0)
(4.48082 0.181329 -1.37023e-19)
(4.47764 -0.0482445 2.71263e-19)
(4.39097 -0.282195 0)
(4.22531 -0.473711 -1.06449e-19)
(4.01369 -0.588692 0)
(3.80074 -0.635448 0)
(4.54179 0.267619 -1.31957e-19)
(4.41138 0.608674 9.93189e-20)
(4.3994 0.509678 0)
(4.49081 0.483779 -3.76231e-19)
(4.63708 0.259 2.83021e-19)
(4.70964 -0.0687643 0)
(4.65839 -0.376864 -1.97522e-19)
(4.49861 -0.618966 4.7356e-20)
(4.2649 -0.765807 -5.70319e-20)
(3.99989 -0.829031 -1.08079e-20)
(3.7531 -0.816598 6.37262e-20)
(4.34044 0.483158 -1.46895e-20)
(4.29938 0.678743 -2.30585e-19)
(4.48594 0.457024 0)
(4.69801 0.067956 -4.3691e-19)
(4.75734 -0.312175 -4.71007e-19)
(4.72146 -0.648184 3.76466e-19)
(4.60099 -0.916004 3.28565e-19)
(4.39964 -1.09168 -1.59592e-19)
(4.13768 -1.16023 0)
(3.873 -1.1138 3.8067e-20)
(3.63299 -1.00942 -5.92123e-21)
(3.87477 0.881053 3.01689e-19)
(4.36897 -0.113084 -2.79907e-19)
(4.51587 -0.293725 0)
(4.54453 -0.676039 0)
(4.52198 -0.995823 2.97546e-19)
(4.45768 -1.24156 -1.36301e-19)
(4.34349 -1.41476 -1.68293e-19)
(4.1661 -1.50442 0)
(3.91606 -1.49103 0)
(3.63435 -1.36841 0)
(3.43906 -1.16767 6.7572e-20)
(4.18066 -0.794008 0)
(4.27782 -0.597211 3.26905e-19)
(4.23956 -1.06799 4.60395e-20)
(4.22427 -1.30545 0)
(4.21454 -1.47649 -3.81154e-19)
(4.19489 -1.60237 4.61286e-19)
(4.1493 -1.68348 -7.47849e-20)
(4.05369 -1.71182 -4.61994e-20)
(3.87875 -1.66052 0)
(3.60623 -1.49371 0)
(3.32891 -1.24418 -4.54147e-20)
(6.37159 -0.926942 9.31228e-20)
(5.78458 -0.601265 0)
(5.29369 -0.602916 -4.29817e-20)
(4.86677 -0.566752 -9.54059e-20)
(4.46971 -0.47408 7.46913e-20)
(4.11265 -0.354163 0)
(3.81121 -0.247524 -4.63906e-20)
(3.5639 -0.177818 -4.34686e-21)
(3.35984 -0.150254 0)
(3.18935 -0.161335 -7.9671e-21)
(3.05729 -0.206448 -4.37503e-20)
(6.10773 0.907533 3.1765e-19)
(5.92731 0.682497 1.90979e-19)
(5.64271 0.39839 -3.06525e-19)
(5.25985 0.1992 2.31871e-19)
(4.82183 0.101363 0)
(4.37969 0.084459 0)
(3.98131 0.0987208 5.17651e-20)
(3.65281 0.103436 0)
(3.38863 0.0834774 2.92081e-19)
(3.17261 0.0381335 -8.95257e-20)
(3.00629 -0.0278777 4.2967e-20)
(5.75596 1.57749 -3.38787e-19)
(5.77182 1.40008 -6.58399e-19)
(5.65967 1.1355 3.2464e-19)
(5.40539 0.89855 -5.94906e-19)
(5.02678 0.71417 -2.37622e-19)
(4.57328 0.599669 3.93206e-19)
(4.1151 0.525506 -2.86576e-19)
(3.71667 0.451598 0)
(3.39691 0.366048 -1.66172e-19)
(3.13788 0.271191 2.233e-19)
(2.936 0.173973 -1.59977e-19)
(5.57637 1.7041 0)
(5.59026 1.718 2.05713e-19)
(5.53819 1.55325 1.53317e-19)
(5.37404 1.38955 9.60286e-20)
(5.07777 1.22654 0)
(4.6617 1.09969 -8.63434e-19)
(4.18197 0.99519 1.20097e-18)
(3.72832 0.860994 -2.15788e-19)
(3.36163 0.696051 0)
(3.06754 0.534229 2.6857e-19)
(2.83543 0.396649 -1.923e-19)
(5.52483 1.68893 0)
(5.50048 1.79264 -1.88584e-19)
(5.43826 1.70681 0)
(5.29697 1.63474 -9.46645e-20)
(5.04797 1.53958 7.10785e-20)
(4.67855 1.45963 4.18086e-19)
(4.20736 1.40589 -5.66416e-19)
(3.70531 1.30946 3.78197e-19)
(3.27865 1.10534 -2.46054e-19)
(2.96086 0.856615 1.39636e-19)
(2.71667 0.658833 -2.76149e-19)
(5.51907 1.65527 -3.62972e-19)
(5.47501 1.80274 3.98245e-19)
(5.39773 1.73613 2.77342e-19)
(5.24087 1.71362 5.3989e-20)
(5.00161 1.67145 0)
(4.65472 1.63062 5.51778e-20)
(4.18816 1.61215 2.40221e-19)
(3.63664 1.61205 -5.95792e-19)
(3.12111 1.47526 5.45389e-19)
(2.75777 1.1873 -2.02354e-19)
(2.52023 0.924738 -1.54236e-19)
(5.53465 1.61575 -2.72124e-19)
(5.47892 1.79187 2.05417e-19)
(5.39903 1.72451 -5.20098e-19)
(5.23076 1.72315 7.3187e-20)
(4.98247 1.70403 5.83217e-20)
(4.62687 1.68451 -1.27423e-19)
(4.14848 1.67517 1.34655e-19)
(3.57186 1.68814 6.33489e-20)
(2.97048 1.65431 -1.15031e-19)
(2.51865 1.4242 -1.05416e-20)
(2.27251 1.1303 1.51539e-19)
(5.56394 1.57249 4.61238e-20)
(5.49904 1.76399 8.12223e-20)
(5.42102 1.68961 -3.28684e-20)
(5.24685 1.69891 1.30729e-20)
(4.99596 1.68568 -5.55264e-20)
(4.63538 1.6747 -2.25171e-20)
(4.13896 1.67214 5.65945e-20)
(3.5175 1.68248 7.21979e-20)
(2.85932 1.68533 0)
(2.29446 1.55862 7.47867e-20)
(1.9771 1.28116 0)
(5.59981 1.53165 -4.33984e-20)
(5.52691 1.72618 0)
(5.45369 1.63747 0)
(5.27554 1.65338 8.4154e-23)
(5.02722 1.63489 -1.12967e-20)
(4.66989 1.61978 1.24274e-20)
(4.16906 1.61168 -1.25267e-20)
(3.51623 1.61803 -7.9862e-21)
(2.7879 1.61764 -3.22908e-20)
(2.13314 1.55558 -1.979e-21)
(1.70612 1.34004 2.20434e-20)
(5.63063 1.49251 2.04248e-19)
(5.56002 1.68017 -7.5151e-20)
(5.48918 1.57062 5.84023e-20)
(5.30847 1.59197 8.13403e-22)
(5.06677 1.55954 -9.74478e-22)
(4.71984 1.53027 0)
(4.2291 1.50336 1.84702e-20)
(3.56359 1.49347 0)
(2.7835 1.4821 1.61133e-20)
(2.03453 1.43106 3.00587e-20)
(1.49515 1.28742 -3.1932e-20)
(5.65636 1.43398 0)
(5.59968 1.62043 3.61149e-21)
(5.51238 1.49662 -3.58156e-20)
(5.33836 1.51575 2.49595e-20)
(5.10651 1.46296 2.34625e-20)
(4.77484 1.41147 0)
(4.30768 1.35516 0)
(3.65583 1.3106 1.90898e-19)
(2.84478 1.28314 -2.7832e-19)
(2.02309 1.22493 1.12276e-19)
(1.37547 1.09536 -1.91407e-19)
(5.68452 1.34813 0)
(5.62499 1.55992 0)
(5.52605 1.42612 8.42962e-20)
(5.36618 1.41271 -1.20656e-20)
(5.14224 1.3463 -2.30791e-20)
(4.82732 1.26717 0)
(4.39114 1.17397 -4.137e-19)
(3.78206 1.07594 2.17349e-19)
(2.96923 1.01663 4.07938e-19)
(2.10013 0.948113 0)
(1.38402 0.80958 1.75786e-19)
(5.70133 1.27224 3.58227e-20)
(5.62961 1.4808 -1.23656e-19)
(5.53788 1.34371 -4.85093e-20)
(5.38211 1.2973 1.10079e-19)
(5.16627 1.21094 4.73946e-19)
(4.86786 1.1009 -7.36121e-20)
(4.46511 0.968606 -4.49583e-19)
(3.9303 0.816682 2.91263e-19)
(3.18558 0.683535 -9.32947e-19)
(2.26723 0.596433 -3.16792e-20)
(1.49781 0.46341 0)
(5.69881 1.19993 2.18268e-20)
(5.61945 1.38569 1.4986e-19)
(5.53356 1.24636 -3.09067e-19)
(5.3849 1.16826 -4.55043e-20)
(5.18058 1.05575 -1.57802e-20)
(4.90059 0.912865 1.55703e-19)
(4.52648 0.740657 -3.58435e-19)
(4.03858 0.540343 2.73828e-19)
(3.40122 0.333902 0)
(2.56923 0.199282 3.9355e-19)
(1.72382 0.0327226 0)
(5.6765 1.12323 0)
(5.59334 1.2762 -2.61516e-20)
(5.51165 1.13218 6.36088e-20)
(5.37343 1.02398 -7.40856e-20)
(5.18479 0.881198 -3.79933e-19)
(4.92919 0.702753 6.32195e-19)
(4.59156 0.490349 0)
(4.15766 0.244585 0)
(3.60507 -0.0123222 0)
(2.89654 -0.217916 -1.28307e-18)
(2.11847 -0.435468 3.14576e-19)
(5.63085 1.04235 -4.3919e-20)
(5.54419 1.15353 -4.83916e-20)
(5.46588 1.00126 -1.58731e-19)
(5.34065 0.862311 1.23938e-19)
(5.1726 0.686283 -1.54698e-19)
(4.94846 0.470763 -6.61867e-19)
(4.65667 0.21828 7.26982e-19)
(4.29112 -0.0706933 -4.82482e-19)
(3.83054 -0.351773 2.01383e-20)
(3.24983 -0.601364 8.55963e-19)
(2.59568 -0.850768 0)
(5.55502 0.95384 -6.75303e-20)
(5.46534 1.01593 1.01871e-19)
(5.39088 0.850819 0)
(5.28194 0.678628 -1.21041e-19)
(5.14098 0.465278 6.40389e-19)
(4.95656 0.208537 5.98293e-20)
(4.72109 -0.0914658 2.85679e-19)
(4.4335 -0.410031 5.92145e-19)
(4.07364 -0.702521 -1.47932e-18)
(3.62462 -0.98065 3.75995e-19)
(3.11184 -1.25425 0)
(5.44205 0.851425 -4.84125e-22)
(5.34968 0.858977 -7.96473e-20)
(5.27978 0.675078 6.13401e-20)
(5.19064 0.465287 3.54189e-20)
(5.08389 0.208106 -1.40691e-19)
(4.94911 -0.09781 -2.37649e-19)
(4.78489 -0.421962 -2.90362e-19)
(4.582 -0.730129 -5.35396e-19)
(4.32495 -1.03176 1.25272e-18)
(4.0021 -1.32161 0)
(3.6358 -1.60092 0)
(5.28582 0.728913 -2.67043e-20)
(5.18822 0.679013 4.20703e-20)
(5.11921 0.469974 0)
(5.04276 0.218504 9.50295e-20)
(4.96337 -0.0787479 0)
(4.89081 -0.388448 6.68706e-20)
(4.80797 -0.702293 4.88499e-19)
(4.69764 -1.01987 -3.63982e-19)
(4.5479 -1.33244 -3.98015e-19)
(4.35163 -1.63066 4.99766e-19)
(4.11955 -1.9141 -3.77905e-19)
(5.07944 0.587189 7.545e-20)
(4.96008 0.481454 4.95596e-20)
(4.86525 0.244989 1.82722e-20)
(4.79599 -0.0251711 0)
(4.76475 -0.319465 0)
(4.75409 -0.63202 2.49354e-19)
(4.74788 -0.951859 0)
(4.72756 -1.26947 0)
(4.67731 -1.57459 0)
(4.58736 -1.85907 -6.96385e-19)
(4.4551 -2.12147 0)
(4.76376 0.410855 -2.93921e-19)
(4.62503 0.257992 2.01859e-19)
(4.54679 0.0248137 -4.22746e-20)
(4.50142 -0.258047 0)
(4.50298 -0.570366 -9.48736e-20)
(4.5457 -0.886588 3.7428e-21)
(4.60484 -1.19019 0)
(4.6523 -1.47616 1.11613e-19)
(4.66666 -1.74201 0)
(4.63211 -1.98111 1.92773e-19)
(4.54406 -2.19091 0)
(4.41262 0.194093 4.24516e-19)
(4.28835 0.0361517 2.12087e-19)
(4.21079 -0.242703 -1.26965e-19)
(4.18856 -0.556132 0)
(4.23326 -0.872509 0)
(4.32308 -1.15976 0)
(4.42243 -1.41113 -2.86785e-19)
(4.49886 -1.63043 6.7462e-20)
(4.52772 -1.8181 3.79054e-20)
(4.49037 -1.95952 0)
(4.41412 -2.04665 0)
(4.08779 0.0353579 5.82612e-19)
(3.96272 -0.325525 0)
(3.91512 -0.621654 0)
(3.95744 -0.939141 -1.07617e-19)
(4.05068 -1.21148 2.47341e-19)
(4.16213 -1.42854 -1.33766e-19)
(4.25912 -1.59854 3.26779e-20)
(4.3185 -1.73415 1.21547e-20)
(4.32336 -1.83114 3.00962e-20)
(4.232 -1.83998 -6.13992e-20)
(4.05017 -1.69449 0)
(3.83524 -1.04878 0)
(3.77634 -0.886574 3.01871e-20)
(3.8584 -1.18626 -7.32947e-20)
(3.94963 -1.39235 0)
(4.03914 -1.54712 -5.23659e-20)
(4.11062 -1.65559 1.31182e-20)
(4.15022 -1.73151 2.39064e-19)
(4.14055 -1.77829 -7.35735e-20)
(4.06462 -1.76673 0)
(3.88388 -1.64243 9.31789e-21)
(3.59923 -1.38147 2.26324e-20)
(5.42339 -6.97874 -3.02387e-18)
(4.45475 -5.6094 -8.51005e-20)
(4.52475 -4.3265 0)
(4.48659 -3.38248 5.03555e-19)
(4.3498 -2.68935 -1.0037e-18)
(4.16971 -2.16372 2.28365e-20)
(3.97852 -1.75809 1.07073e-18)
(3.7916 -1.43813 -6.02981e-19)
(3.61794 -1.18238 -5.67823e-19)
(3.46152 -0.977203 4.30643e-19)
(3.31885 -0.818877 2.77065e-19)
(0.879806 -5.37873 7.29389e-18)
(1.62986 -5.04502 4.18585e-18)
(2.39378 -4.47785 -3.09001e-18)
(2.9515 -3.82408 -5.77987e-19)
(3.27339 -3.19355 3.66592e-19)
(3.42219 -2.6272 0)
(3.45241 -2.14398 0)
(3.41208 -1.74594 6.71175e-19)
(3.33728 -1.4245 0)
(3.24917 -1.16859 -5.67357e-19)
(3.15363 -0.971754 -1.03378e-18)
(-0.793839 -2.87336 1.97496e-18)
(0.172346 -3.60266 2.63003e-18)
(0.928989 -3.81518 -5.35617e-18)
(1.6665 -3.63284 2.58344e-18)
(2.22298 -3.25482 0)
(2.60879 -2.81222 -7.46965e-19)
(2.84442 -2.3689 1.38331e-18)
(2.96443 -1.96347 8.0004e-19)
(3.00472 -1.61417 -1.10637e-18)
(2.99302 -1.32517 5.6614e-19)
(2.95881 -1.09455 -1.88979e-19)
(-0.906687 -2.02885 4.03951e-19)
(-0.339528 -2.4248 1.22715e-18)
(0.0145039 -2.72063 -9.18275e-19)
(0.594035 -2.90739 1.2396e-18)
(1.2022 -2.89821 -9.3758e-19)
(1.72182 -2.69461 -1.08917e-18)
(2.11498 -2.38239 1.43392e-18)
(2.38623 -2.03715 -2.38811e-20)
(2.56171 -1.70538 -1.71705e-19)
(2.6711 -1.41012 -2.34452e-18)
(2.71979 -1.16738 2.00215e-18)
(-0.686101 -1.45882 -1.25678e-18)
(-0.234357 -1.74091 -1.0042e-18)
(-0.0995155 -1.9829 0)
(0.272989 -2.18561 0)
(0.704433 -2.27872 -1.71611e-18)
(1.16332 -2.24501 0)
(1.58403 -2.09963 0)
(1.92866 -1.8794 -3.1587e-18)
(2.1873 -1.62645 6.10058e-19)
(2.36857 -1.37581 8.41897e-19)
(2.47864 -1.1532 -1.8131e-18)
(-0.425868 -1.03054 -1.62616e-18)
(-0.073997 -1.20165 2.6722e-18)
(-0.0456576 -1.39066 -1.34031e-18)
(0.22721 -1.57895 5.29978e-19)
(0.531646 -1.71039 1.64286e-18)
(0.889275 -1.76203 0)
(1.2553 -1.7261 7.86273e-19)
(1.59204 -1.61494 -1.14872e-18)
(1.87647 -1.45365 3.29691e-18)
(2.09992 -1.27086 0)
(2.2549 -1.09366 1.17929e-18)
(-0.214692 -0.731848 4.92601e-19)
(0.0954193 -0.807868 -7.20348e-19)
(0.0943575 -0.950927 1.18378e-18)
(0.285057 -1.10455 9.27456e-19)
(0.503694 -1.2321 -7.16028e-19)
(0.775712 -1.31698 9.69781e-19)
(1.07445 -1.34407 2.37531e-19)
(1.37281 -1.31065 2.00913e-18)
(1.64762 -1.22597 -7.2231e-19)
(1.88232 -1.10732 0)
(2.0596 -0.974303 6.10253e-19)
(-0.051165 -0.516073 -3.50196e-18)
(0.238642 -0.529005 3.22759e-18)
(0.238537 -0.627109 -5.36733e-19)
(0.384065 -0.747977 0)
(0.54831 -0.857505 0)
(0.757873 -0.946805 -9.99424e-19)
(0.997295 -1.00176 -3.45025e-19)
(1.24995 -1.01426 -1.53599e-18)
(1.4982 -0.984341 -7.13708e-19)
(1.72389 -0.920586 0)
(1.89994 -0.837889 -6.42474e-19)
(0.0889013 -0.336597 -2.68275e-18)
(0.364491 -0.312413 2.24088e-18)
(0.367957 -0.378552 -3.61469e-18)
(0.489948 -0.474841 1.41873e-18)
(0.621212 -0.56558 1.12197e-18)
(0.788526 -0.647991 -9.70589e-19)
(0.982618 -0.711133 4.13902e-19)
(1.1943 -0.746668 4.85728e-19)
(1.41197 -0.750624 8.18015e-20)
(1.62063 -0.725078 0)
(1.79287 -0.677947 7.88948e-19)
(0.222889 -0.197951 -2.55998e-18)
(0.490723 -0.141538 -2.00218e-18)
(0.489129 -0.181242 3.24695e-18)
(0.593994 -0.258544 -1.43199e-18)
(0.702559 -0.33276 0)
(0.841003 -0.405181 -6.75395e-19)
(1.0023 -0.467432 -6.35782e-20)
(1.18149 -0.512517 1.29776e-18)
(1.37139 -0.535266 -7.24926e-19)
(1.56119 -0.53362 0)
(1.7262 -0.507643 -1.53595e-19)
(0.336808 -0.115004 -2.36413e-18)
(0.600165 -0.0131735 -3.82592e-20)
(0.596807 -0.0252029 -3.7515e-19)
(0.690791 -0.0842564 1.59775e-18)
(0.78378 -0.142741 1.83843e-18)
(0.902452 -0.20431 -8.37953e-21)
(1.04044 -0.261728 -5.65884e-19)
(1.19502 -0.309343 3.8896e-19)
(1.3618 -0.342161 5.65346e-19)
(1.53277 -0.357 -4.01545e-19)
(1.67979 -0.351686 0)
(0.417847 -0.0449138 -4.14131e-18)
(0.671561 0.102335 1.7265e-18)
(0.680826 0.108385 1.86759e-20)
(0.773751 0.0629837 -1.91129e-18)
(0.859209 0.0175526 1.68466e-18)
(0.965978 -0.0340401 1.29802e-18)
(1.08828 -0.0854089 -1.99343e-18)
(1.22505 -0.132197 -3.8274e-19)
(1.37377 -0.170091 -1.61305e-18)
(1.52917 -0.19558 1.18992e-18)
(1.66576 -0.203398 -1.05516e-18)
(0.493695 0.0370078 -2.33516e-18)
(0.73773 0.214785 1.61842e-18)
(0.756621 0.230681 3.27047e-19)
(0.848208 0.194474 1.48599e-18)
(0.929055 0.158789 -1.56477e-18)
(1.02871 0.115193 1.19876e-18)
(1.14085 0.0694831 -4.49238e-19)
(1.2654 0.0247388 0)
(1.4009 -0.0154161 9.81209e-19)
(1.54483 -0.047172 -7.37992e-19)
(1.67511 -0.0609766 5.24103e-19)
(0.562954 0.0991213 2.41731e-18)
(0.806533 0.310827 -1.14599e-18)
(0.829565 0.340881 -2.97367e-18)
(0.918276 0.314392 3.74804e-18)
(0.995377 0.28733 -1.46299e-18)
(1.09057 0.250293 1.65571e-18)
(1.19619 0.209349 -8.5747e-19)
(1.3125 0.166654 1.2233e-18)
(1.43823 0.125391 0)
(1.57283 0.0891717 6.3607e-19)
(1.69312 0.0694866 -4.35709e-19)
(0.612941 0.151203 -9.30683e-19)
(0.856236 0.40305 1.08468e-18)
(0.891411 0.445703 5.82149e-19)
(0.982504 0.427218 1.76015e-18)
(1.05917 0.407298 -2.03621e-18)
(1.15268 0.375465 -5.41492e-19)
(1.25454 0.338196 0)
(1.36548 0.296856 -2.35041e-18)
(1.48392 0.254456 8.28238e-19)
(1.61129 0.214169 -2.49945e-18)
(1.72659 0.189725 9.05701e-19)
(0.664587 0.212812 1.82578e-18)
(0.90372 0.499077 0)
(0.950795 0.549706 0)
(1.04491 0.536766 -2.47286e-18)
(1.12256 0.522302 6.87706e-19)
(1.21638 0.494088 9.88733e-19)
(1.31654 0.459066 0)
(1.42413 0.417871 6.05489e-20)
(1.53683 0.373783 7.46222e-19)
(1.65807 0.329296 -2.226e-18)
(1.76847 0.300626 1.63631e-18)
(0.72204 0.271035 8.71714e-19)
(0.956925 0.585788 3.97878e-18)
(1.01496 0.648208 -3.25296e-20)
(1.10951 0.643135 -1.43456e-20)
(1.18879 0.633611 0)
(1.28377 0.607941 0)
(1.38337 0.573578 0)
(1.48853 0.531032 0)
(1.59597 0.484501 -1.46786e-18)
(1.71103 0.435442 1.10389e-18)
(1.81554 0.402331 1.38815e-20)
(0.770991 0.322738 1.23833e-18)
(1.00225 0.667941 -1.29704e-18)
(1.07784 0.743944 0)
(1.17634 0.747599 -6.54252e-20)
(1.26052 0.741628 0)
(1.35818 0.716708 0)
(1.45805 0.680727 1.81961e-18)
(1.56069 0.635013 -1.83595e-18)
(1.66275 0.585154 8.96535e-20)
(1.77071 0.531947 4.90839e-19)
(1.86962 0.494374 6.27947e-20)
(0.822085 0.377976 0)
(1.04573 0.751606 0)
(1.1436 0.840341 0)
(1.2494 0.851776 6.41642e-19)
(1.34128 0.846627 -1.06062e-18)
(1.44233 0.819406 3.60644e-19)
(1.54188 0.778881 -6.00787e-19)
(1.64028 0.728327 -8.2125e-19)
(1.73553 0.674775 1.82697e-18)
(1.83485 0.618807 -4.14218e-19)
(1.9298 0.576761 6.56358e-19)
(0.884292 0.438301 -1.65114e-18)
(1.09624 0.836462 2.64419e-18)
(1.2205 0.936263 -3.75524e-18)
(1.33632 0.953365 1.03124e-18)
(1.43667 0.945156 9.3579e-19)
(1.53936 0.911676 -2.14046e-18)
(1.63531 0.864001 1.04035e-18)
(1.7258 0.808292 0)
(1.81161 0.752303 -5.81918e-19)
(1.90009 0.696588 4.37397e-20)
(1.98976 0.651682 0)
(0.960808 0.501466 1.63697e-18)
(1.16015 0.919565 1.93812e-18)
(1.31527 1.02606 1.3052e-19)
(1.44389 1.04405 -8.97886e-19)
(1.55073 1.02756 0)
(1.6496 0.984269 -3.39436e-19)
(1.73559 0.929269 0)
(1.81322 0.871217 0)
(1.88689 0.816499 0)
(1.96348 0.76473 3.82224e-19)
(2.04495 0.720341 5.07866e-19)
(1.09175 0.567514 1.49893e-18)
(1.24532 0.9969 -1.1188e-18)
(1.44195 1.09518 3.94503e-20)
(1.58065 1.10578 0)
(1.68428 1.07606 -4.14611e-20)
(1.76821 1.02353 0)
(1.83563 0.966832 0)
(1.8961 0.913843 0)
(1.95641 0.866718 0)
(2.02209 0.823283 2.91064e-19)
(2.09683 0.780953 -2.3882e-19)
(1.05824 0.599042 5.37226e-20)
(1.36706 1.00863 -1.85111e-18)
(1.55321 1.11589 1.33796e-18)
(1.69938 1.10722 5.07382e-20)
(1.79449 1.06569 4.70615e-20)
(1.85933 1.01547 5.24678e-19)
(1.90979 0.971167 -4.77004e-19)
(1.95797 0.934657 7.15393e-20)
(2.00984 0.903027 0)
(2.06872 0.87419 4.14996e-20)
(2.139 0.839076 0)
(2.70206 0.474664 0)
(1.86104 1.08564 0)
(2.12344 0.924505 1.21978e-18)
(2.08651 0.93718 1.46333e-20)
(2.03535 0.93985 -6.89306e-19)
(2.00217 0.937328 1.25915e-19)
(1.99669 0.935389 -8.96236e-20)
(2.01574 0.93091 -7.9614e-20)
(2.05259 0.922913 0)
(2.1023 0.914309 -7.56908e-20)
(2.16514 0.89782 5.34466e-20)
(8.02552 -4.9864 6.91427e-18)
(6.44476 -2.2554 -5.46116e-18)
(6.50422 -2.80205 -3.70412e-19)
(5.98468 -2.5171 -1.81588e-19)
(5.37085 -2.08696 1.39408e-19)
(4.85921 -1.69763 -6.66105e-20)
(4.46201 -1.3872 1.20622e-19)
(4.14117 -1.13441 1.4406e-20)
(3.8754 -0.930831 1.5891e-19)
(3.65173 -0.766401 -1.12767e-19)
(3.46209 -0.639973 0)
(6.22438 -2.71199 -1.83562e-17)
(5.14488 0.0533991 1.48539e-17)
(6.31037 -0.684427 -1.08614e-17)
(6.49174 -0.978844 5.20508e-20)
(6.11247 -1.00001 0)
(5.47423 -0.958049 9.37794e-19)
(4.94046 -0.8706 -2.62489e-19)
(4.49201 -0.74767 -1.40793e-19)
(4.12681 -0.624789 -1.71599e-19)
(3.8312 -0.518934 3.61193e-20)
(3.59431 -0.442272 7.00072e-21)
(3.29152 -1.71951 -1.85917e-17)
(3.57817 0.652841 2.2511e-17)
(5.2667 0.605917 -1.51576e-17)
(5.96993 0.464487 7.05167e-18)
(6.09032 0.289283 -5.47172e-18)
(5.75445 0.0495556 -1.92536e-18)
(5.22483 -0.138113 1.80037e-18)
(4.74265 -0.211245 -1.15555e-20)
(4.3188 -0.221812 0)
(3.96746 -0.205987 -4.51045e-21)
(3.68404 -0.192264 0)
(0.987488 -1.98092 3.06365e-17)
(2.32749 0.118617 -1.19647e-17)
(3.99614 0.964094 -1.7611e-18)
(4.97877 1.3038 2.34981e-18)
(5.51882 1.29504 1.47014e-18)
(5.55 1.02269 1.73358e-18)
(5.20919 0.667549 6.17075e-19)
(4.79697 0.416824 0)
(4.39078 0.258957 0)
(4.02757 0.166799 0)
(3.72421 0.107609 0)
(-0.327072 -2.84553 -1.24839e-17)
(1.46779 -0.726922 8.97005e-18)
(2.87858 0.738596 -1.73718e-17)
(3.96271 1.55795 4.93118e-18)
(4.73643 1.86154 3.92137e-18)
(5.0347 1.73317 -5.68027e-18)
(4.92021 1.37122 1.2539e-18)
(4.64212 1.02151 0)
(4.31434 0.754893 1.3341e-18)
(3.98496 0.562164 0)
(3.68463 0.43339 0)
(-0.896004 -3.68951 8.21015e-18)
(0.85072 -1.49493 -1.50749e-17)
(2.02477 0.296302 8.22731e-18)
(3.11357 1.47088 2.06524e-18)
(3.96798 2.07831 0)
(4.41203 2.15414 0)
(4.47 1.87993 -5.99212e-18)
(4.33503 1.52132 7.00936e-19)
(4.10609 1.20094 -2.36708e-18)
(3.84243 0.936297 2.5982e-18)
(3.58182 0.735072 0)
(-1.16504 -4.31991 1.14389e-17)
(0.376801 -2.11463 -6.64214e-18)
(1.38244 -0.171687 -2.57692e-20)
(2.43643 1.24736 3.43209e-18)
(3.2932 2.09623 -2.44101e-18)
(3.79997 2.36225 -3.31875e-18)
(3.96606 2.2024 0)
(3.94438 1.88999 2.38354e-18)
(3.80929 1.56153 -3.29062e-19)
(3.61712 1.26375 -3.44506e-18)
(3.41579 1.00288 0)
(-1.33643 -4.74213 -2.00779e-18)
(-0.000262497 -2.59852 5.81315e-18)
(0.874816 -0.601368 2.25141e-18)
(1.88293 0.985591 2.92321e-18)
(2.71292 2.01795 -2.3551e-18)
(3.23893 2.43918 6.14361e-18)
(3.46705 2.38742 -4.28724e-18)
(3.52223 2.1347 2.59498e-18)
(3.46625 1.83022 0)
(3.34176 1.52803 1.77803e-18)
(3.1947 1.23625 -1.04962e-18)
(-1.4289 -4.97826 5.2305e-18)
(-0.308202 -2.98286 -5.3056e-18)
(0.45347 -0.995606 7.82027e-18)
(1.40955 0.708937 -2.91526e-18)
(2.20309 1.88392 0)
(2.7289 2.43094 2.82585e-18)
(2.99273 2.47441 1.97847e-18)
(3.09922 2.28223 -2.52611e-18)
(3.10306 2.01053 -1.28453e-19)
(3.03578 1.72304 -1.06555e-18)
(2.95854 1.41509 1.03252e-18)
(-1.48003 -5.13529 0)
(-0.559929 -3.29474 4.80649e-18)
(0.0958143 -1.36037 -7.12191e-18)
(0.994388 0.420559 3.93812e-18)
(1.74642 1.70838 -3.6868e-18)
(2.26242 2.35957 -1.24709e-18)
(2.54715 2.48704 0)
(2.68896 2.35277 2.31729e-18)
(2.73892 2.11652 4.33881e-18)
(2.71899 1.85112 -2.81684e-18)
(2.69691 1.55109 1.03473e-18)
(-1.53256 -5.24076 -1.33603e-18)
(-0.773696 -3.56422 0)
(-0.209947 -1.70944 1.67283e-18)
(0.621944 0.114291 -3.69866e-18)
(1.32792 1.49238 -3.39791e-18)
(1.82952 2.23363 3.87372e-18)
(2.12767 2.43813 0)
(2.29563 2.35933 -2.28159e-18)
(2.38235 2.15917 -2.73461e-18)
(2.40357 1.91712 2.73837e-18)
(2.42039 1.63896 -2.00436e-18)
(-1.61224 -5.31532 3.83546e-18)
(-0.968254 -3.79568 -1.98962e-18)
(-0.469571 -2.03125 1.55874e-18)
(0.285031 -0.198234 0)
(0.942212 1.24582 -7.80884e-19)
(1.42647 2.06262 3.27446e-18)
(1.73255 2.33708 -3.12991e-18)
(1.92071 2.31093 2.10892e-18)
(2.03716 2.1468 -1.20162e-18)
(2.09461 1.92835 1.36381e-19)
(2.14579 1.6714 9.73897e-19)
(-1.67824 -5.37401 5.55419e-19)
(-1.12716 -3.97479 0)
(-0.688772 -2.3201 6.68671e-19)
(-0.0251512 -0.513829 -4.96482e-19)
(0.582878 0.971549 -6.66205e-19)
(1.04783 1.85059 5.76975e-21)
(1.35802 2.18898 -6.85785e-19)
(1.56296 2.21313 -5.33853e-19)
(1.70496 2.08502 -5.48622e-19)
(1.79431 1.89241 8.68525e-19)
(1.88797 1.65601 -2.97282e-19)
(-1.72426 -5.43377 -5.52623e-19)
(-1.26887 -4.13282 2.05759e-19)
(-0.886907 -2.601 -6.70835e-19)
(-0.313317 -0.844826 4.98741e-19)
(0.24329 0.664608 0)
(0.68614 1.59559 2.30968e-19)
(0.998417 1.99426 6.8642e-19)
(1.21923 2.06779 -4.49874e-19)
(1.38617 1.97609 0)
(1.50733 1.81142 -3.46504e-19)
(1.6322 1.60374 4.01945e-19)
(-1.76128 -5.48823 1.1907e-19)
(-1.40788 -4.27565 1.38017e-18)
(-1.07175 -2.86481 -1.2018e-18)
(-0.577725 -1.18298 -1.08152e-18)
(-0.0783486 0.32735 5.04952e-19)
(0.335829 1.3004 -2.33311e-19)
(0.649692 1.75247 -6.94065e-19)
(0.886303 1.87371 4.21463e-19)
(1.07941 1.81912 0)
(1.23495 1.68423 2.52073e-19)
(1.38625 1.51077 -4.71027e-20)
(-1.78683 -5.53506 -2.43035e-18)
(-1.53622 -4.40255 0)
(-1.24676 -3.11062 5.74435e-19)
(-0.829024 -1.52556 1.86579e-19)
(-0.386072 -0.0425717 -4.53989e-19)
(-0.00482282 0.959964 8.85091e-22)
(0.303682 1.45864 9.30637e-19)
(0.559002 1.62464 0)
(0.782138 1.6088 9.06655e-20)
(0.977338 1.50747 -1.64644e-20)
(1.16896 1.36858 1.54538e-19)
(-1.80863 -5.5719 3.991e-20)
(-1.65397 -4.52228 0)
(-1.41387 -3.34654 5.34659e-20)
(-1.07194 -1.87615 -7.50712e-19)
(-0.691967 -0.446235 5.6571e-19)
(-0.346359 0.562423 -3.93971e-19)
(-0.0441167 1.09922 -9.42998e-19)
(0.231447 1.30806 0)
(0.490972 1.3348 3.2127e-19)
(0.729087 1.27452 -1.04964e-19)
(0.972761 1.17207 -1.65329e-19)
(-1.83658 -5.5889 4.42653e-19)
(-1.77704 -4.64311 0)
(-1.58125 -3.57797 5.23307e-19)
(-1.31476 -2.23717 0)
(-1.00533 -0.889753 -8.18236e-19)
(-0.700017 0.0984645 -8.93809e-20)
(-0.401611 0.654893 5.38654e-19)
(-0.0995173 0.904329 -4.64306e-19)
(0.203614 0.981642 -1.86288e-19)
(0.485843 0.976267 -7.81727e-20)
(0.789955 0.929055 0)
(-1.86832 -5.58257 1.63749e-18)
(-1.90426 -4.74559 0)
(-1.7631 -3.81108 -4.59875e-19)
(-1.57321 -2.6108 1.59634e-18)
(-1.33924 -1.38283 1.83333e-18)
(-1.07493 -0.454098 -1.02891e-18)
(-0.772677 0.0981488 0)