/*--------------------------------*- C++ -*----------------------------------*\
| =========                 |                                                 |
| \\      /  F ield         | OpenFOAM: The Open Source CFD Toolbox           |
|  \\    /   O peration     | Version:  3.0.1                                 |
|   \\  /    A nd           | Web:      www.OpenFOAM.org                      |
|    \\/     M anipulation  |                                                 |
\*---------------------------------------------------------------------------*/
FoamFile
{
    version     2.0;
    format      ascii;
    class       surfaceScalarField;
    location    "0.857524";
    object      phi;
}
// * * * * * * * * * * * * * * * * * * * * * * * * * * * * * * * * * * * * * //

dimensions      [0 3 -1 0 0 0 0];

internalField   nonuniform List<scalar> 
32369
(
-1.52776e-05
-5.91048e-06
2.1188e-05
-2.45125e-05
-8.44611e-06
1.76811e-05
-3.23465e-05
-1.04653e-05
1.82993e-05
-3.90449e-05
-1.20549e-05
1.87533e-05
-4.52142e-05
-1.32472e-05
1.94165e-05
-5.14447e-05
-1.40359e-05
2.02664e-05
-5.82351e-05
-1.44151e-05
2.12054e-05
-6.59743e-05
-1.43541e-05
2.20933e-05
-7.5001e-05
-1.37609e-05
2.27876e-05
-8.56785e-05
-1.24358e-05
2.31133e-05
-1.00235e-05
2.27604e-05
-9.84154e-05
-8.4062e-06
2.49572e-06
-1.70364e-05
1.84124e-07
-2.50646e-05
-2.43717e-06
-3.23874e-05
-4.73212e-06
-3.9337e-05
-6.29763e-06
-4.63683e-05
-7.00466e-06
-5.39428e-05
-6.84048e-06
-6.24986e-05
-5.79835e-06
-7.24666e-05
-3.79286e-06
-8.43041e-05
-5.98268e-07
4.18017e-06
-9.85078e-05
-3.41297e-06
5.90868e-06
-8.23446e-06
5.00562e-06
-1.47829e-05
4.11129e-06
-2.22236e-05
2.70854e-06
-3.00696e-05
1.5484e-06
-3.81341e-05
1.05988e-06
-4.66248e-05
1.65018e-06
-5.59786e-05
3.5555e-06
-6.67107e-05
6.93915e-06
-7.93303e-05
1.20214e-05
1.92113e-05
-9.43615e-05
-2.02703e-06
7.93572e-06
-4.95016e-06
7.92874e-06
-9.38133e-06
8.54246e-06
-1.51902e-05
8.51736e-06
-2.22347e-05
8.59297e-06
-3.02724e-05
9.0976e-06
-3.91681e-05
1.05459e-05
-4.89983e-05
1.33856e-05
-6.00427e-05
1.79836e-05
-7.27346e-05
2.47132e-05
3.40526e-05
-8.75758e-05
-1.62809e-06
9.56381e-06
-4.06899e-06
1.03696e-05
-7.49249e-06
1.1966e-05
-1.20375e-05
1.30624e-05
-1.78601e-05
1.44156e-05
-2.49246e-05
1.61621e-05
-3.31553e-05
1.87766e-05
-4.25359e-05
2.27662e-05
-5.32025e-05
2.86502e-05
-6.54356e-05
3.69463e-05
4.83463e-05
-7.97293e-05
-1.30618e-06
1.087e-05
-3.47129e-06
1.25347e-05
-6.22784e-06
1.47225e-05
-9.93062e-06
1.67652e-05
-1.47462e-05
1.92312e-05
-2.07783e-05
2.21942e-05
-2.80612e-05
2.60595e-05
-3.66186e-05
3.13237e-05
-4.65393e-05
3.85708e-05
-5.80258e-05
4.84328e-05
6.17802e-05
-7.14596e-05
-1.16532e-06
1.20353e-05
-2.95922e-06
1.43286e-05
-5.28999e-06
1.70533e-05
-8.41023e-06
1.98854e-05
-1.24506e-05
2.32715e-05
-1.75742e-05
2.73178e-05
-2.38968e-05
3.23821e-05
-3.15052e-05
3.8932e-05
-4.05045e-05
4.75701e-05
-5.10464e-05
5.89747e-05
7.40588e-05
-6.3325e-05
-1.09039e-06
1.31257e-05
-2.69561e-06
1.59338e-05
-4.71968e-06
1.90774e-05
-7.3746e-06
2.25403e-05
-1.08047e-05
2.67016e-05
-1.51674e-05
3.16805e-05
-2.06096e-05
3.78243e-05
-2.72583e-05
4.55808e-05
-3.52489e-05
5.55607e-05
-4.47147e-05
6.84405e-05
8.52566e-05
-5.59125e-05
-9.89974e-07
1.41157e-05
-2.41646e-06
1.73603e-05
-4.19677e-06
2.08577e-05
-6.49257e-06
2.48361e-05
-9.42468e-06
2.96337e-05
-1.31543e-05
3.54101e-05
-1.78298e-05
4.24998e-05
-2.35988e-05
5.13497e-05
-3.05929e-05
6.25549e-05
-3.90299e-05
7.68775e-05
9.53583e-05
-4.91316e-05
-7.4908e-07
1.48648e-05
-1.93019e-06
1.85414e-05
-3.44576e-06
2.23732e-05
-5.41471e-06
2.68051e-05
-7.93026e-06
3.21492e-05
-1.11287e-05
3.86085e-05
-1.51569e-05
4.6528e-05
-2.01549e-05
5.63476e-05
-2.62917e-05
6.86917e-05
-3.37494e-05
8.43352e-05
0.000104339
-4.27303e-05
-5.47547e-07
1.54123e-05
-1.50819e-06
1.95021e-05
-2.7636e-06
2.36287e-05
-4.4113e-06
2.84528e-05
-6.53478e-06
3.42727e-05
-9.24854e-06
4.13223e-05
-1.26759e-05
4.99554e-05
-1.69599e-05
6.06316e-05
-2.22592e-05
7.3991e-05
-2.87677e-05
9.08437e-05
0.000112167
-3.65958e-05
-5.07375e-07
1.59197e-05
-1.33259e-06
2.03273e-05
-2.3706e-06
2.46667e-05
-3.72298e-06
2.98051e-05
-5.45613e-06
3.60059e-05
-7.68021e-06
4.35464e-05
-1.05084e-05
5.27836e-05
-1.40667e-05
6.41899e-05
-1.85101e-05
7.84344e-05
-2.40058e-05
9.63394e-05
0.000118906
-3.07449e-05
-3.87718e-07
1.63074e-05
-1.02517e-06
2.09648e-05
-1.83293e-06
2.54744e-05
-2.88697e-06
3.08592e-05
-4.24607e-06
3.7365e-05
-6.00037e-06
4.53007e-05
-8.25395e-06
5.50372e-05
-1.11259e-05
6.70618e-05
-1.47192e-05
8.20277e-05
-1.91991e-05
0.000100819
0.000124493
-2.47861e-05
-1.04666e-07
1.64121e-05
-4.66287e-07
2.13264e-05
-9.90438e-07
2.59986e-05
-1.7249e-06
3.15936e-05
-2.70368e-06
3.83438e-05
-3.99442e-06
4.65914e-05
-5.67116e-06
5.67139e-05
-7.83787e-06
6.92285e-05
-1.06e-05
8.47898e-05
-1.40821e-05
0.000104301
0.000128889
-1.84774e-05
-2.02479e-08
1.64323e-05
-1.82816e-07
2.14889e-05
-4.29679e-07
2.62454e-05
-8.19957e-07
3.19839e-05
-1.36244e-06
3.88862e-05
-2.11675e-06
4.73457e-05
-3.14998e-06
5.77472e-05
-4.52399e-06
7.06026e-05
-6.32138e-06
8.65872e-05
-8.68044e-06
0.00010666
0.000131871
-1.16623e-05
1.24665e-07
1.63077e-05
2.14279e-07
2.13993e-05
2.71472e-07
2.61882e-05
2.74762e-07
3.19806e-05
2.03927e-07
3.89571e-05
2.65675e-08
4.75231e-05
-2.9143e-07
5.80652e-05
-8.01456e-07
7.11126e-05
-1.56448e-06
8.73502e-05
-2.6028e-06
0.000107699
0.000133295
-4.02759e-06
4.14096e-07
1.58936e-05
8.637e-07
2.09497e-05
1.30338e-06
2.57486e-05
1.74344e-06
3.15406e-05
2.20673e-06
3.84938e-05
2.66816e-06
4.70617e-05
3.12953e-06
5.76038e-05
3.58042e-06
7.06617e-05
4.0165e-06
8.69142e-05
4.40258e-06
0.000107313
0.000133032
4.66619e-06
6.30643e-07
1.52629e-05
1.41561e-06
2.01648e-05
2.27155e-06
2.48926e-05
3.22411e-06
3.0588e-05
4.29959e-06
3.74183e-05
5.51484e-06
4.58464e-05
6.90494e-06
5.62137e-05
8.4967e-06
6.90699e-05
1.03183e-05
8.50925e-05
1.23865e-05
0.000105244
0.000130642
1.47759e-05
8.85256e-07
1.43777e-05
2.06232e-06
1.89877e-05
3.39494e-06
2.356e-05
4.92693e-06
2.9056e-05
6.70934e-06
3.56359e-05
8.80629e-06
4.37495e-05
1.12866e-05
5.37333e-05
1.42259e-05
6.61307e-05
1.77112e-05
8.16072e-05
2.18475e-05
0.000101108
0.000125811
2.66791e-05
1.19247e-06
1.31852e-05
2.81927e-06
1.73609e-05
4.68878e-06
2.16905e-05
6.88786e-06
2.68569e-05
9.49337e-06
3.30304e-05
1.26225e-05
4.06204e-05
1.63858e-05
4.99699e-05
2.09228e-05
6.15937e-05
2.63642e-05
7.61659e-05
3.28918e-05
9.45805e-05
0.000117988
4.07149e-05
1.53655e-06
1.16486e-05
3.62689e-06
1.52706e-05
6.09416e-06
1.92232e-05
9.0507e-06
2.39004e-05
1.26114e-05
2.94697e-05
1.69454e-05
3.62863e-05
2.22171e-05
4.46982e-05
2.86008e-05
5.521e-05
3.63092e-05
6.84575e-05
4.56195e-05
8.52702e-05
0.000106711
5.68962e-05
1.78339e-06
9.86525e-06
4.3385e-06
1.27154e-05
7.44659e-06
1.61151e-05
1.12445e-05
2.01025e-05
1.58977e-05
2.48165e-05
2.1606e-05
3.0578e-05
2.85691e-05
3.77352e-05
3.70121e-05
4.67671e-05
4.7238e-05
5.82315e-05
5.96383e-05
7.28699e-05
9.16957e-05
7.46536e-05
1.902e-06
7.96325e-06
5.02955e-06
9.58789e-06
8.71233e-06
1.24324e-05
1.33707e-05
1.54441e-05
1.91535e-05
1.90338e-05
2.62827e-05
2.34487e-05
3.4969e-05
2.90488e-05
4.55166e-05
3.62195e-05
5.83242e-05
4.54239e-05
7.39373e-05
5.72567e-05
7.26197e-05
9.30134e-05
-1.09536e-06
9.05861e-06
2.71048e-06
5.78205e-06
7.92486e-06
7.21798e-06
1.4054e-05
9.315e-06
2.14108e-05
1.1677e-05
3.01561e-05
1.47033e-05
4.05408e-05
1.86642e-05
5.30182e-05
2.37421e-05
6.81809e-05
3.02612e-05
8.67467e-05
3.86909e-05
4.97742e-05
0.000109592
-2.21407e-07
2.14094e-05
-1.64309e-06
1.91028e-05
-7.56563e-06
2.42218e-05
-1.57606e-05
2.69483e-05
-2.43785e-05
2.80345e-05
-3.326e-05
2.91479e-05
-4.26449e-05
3.05903e-05
-5.28385e-05
3.22869e-05
-6.41783e-05
3.41275e-05
-7.69789e-05
3.59139e-05
3.74219e-05
-9.16404e-05
6.27338e-06
1.51361e-05
8.22062e-06
1.71555e-05
6.33398e-06
2.61085e-05
1.26205e-06
3.20202e-05
-6.48779e-06
3.57843e-05
-1.58344e-05
3.84945e-05
-2.62868e-05
4.10427e-05
-3.78031e-05
4.38032e-05
-5.05744e-05
4.68988e-05
-6.48985e-05
5.0238e-05
5.36395e-05
-8.1116e-05
4.08107e-06
1.1055e-05
5.56189e-06
1.56747e-05
5.95936e-06
2.5711e-05
4.21332e-06
3.37663e-05
-5.51373e-07
4.0549e-05
-7.73303e-06
4.56762e-05
-1.67909e-05
5.01005e-05
-2.73755e-05
5.43878e-05
-3.94149e-05
5.89382e-05
-5.30903e-05
6.39134e-05
6.92753e-05
-6.87261e-05
2.6374e-06
8.41759e-06
3.19954e-06
1.51126e-05
3.78743e-06
2.51231e-05
3.22135e-06
3.43323e-05
5.95986e-07
4.31743e-05
-4.13829e-06
5.04105e-05
-1.09129e-05
5.68751e-05
-1.95238e-05
6.29988e-05
-2.97731e-05
6.91874e-05
-4.16453e-05
7.57856e-05
8.29403e-05
-5.53103e-05
1.83897e-06
6.57862e-06
2.10682e-06
1.48447e-05
2.40938e-06
2.48206e-05
1.98419e-06
3.47575e-05
4.07231e-07
4.47513e-05
-2.58266e-06
5.34004e-05
-7.25688e-06
6.15493e-05
-1.3663e-05
6.94049e-05
-2.17211e-05
7.72455e-05
-3.13754e-05
8.54399e-05
9.41863e-05
-4.26215e-05
1.1646e-06
5.41403e-06
1.60718e-06
1.44021e-05
1.95417e-06
2.44736e-05
1.61096e-06
3.51007e-05
5.56351e-07
4.58059e-05
-1.39566e-06
5.53524e-05
-4.54501e-06
6.46987e-05
-9.06773e-06
7.39277e-05
-1.50425e-05
8.32203e-05
-2.24286e-05
9.2826e-05
0.000103001
-3.12428e-05
8.62438e-07
4.55159e-06
1.46255e-06
1.3802e-05
1.9245e-06
2.40116e-05
1.77064e-06
3.52546e-05
1.1227e-06
4.64539e-05
-1.18354e-07
5.65934e-05
-2.16354e-06
6.67439e-05
-5.2072e-06
7.69713e-05
-9.37969e-06
8.73928e-05
-1.47291e-05
9.81754e-05
0.000109399
-2.1128e-05
6.20143e-07
3.93144e-06
1.28119e-06
1.3141e-05
1.82432e-06
2.34685e-05
1.91091e-06
3.5168e-05
1.68299e-06
4.66818e-05
1.05523e-06
5.72212e-05
-7.67244e-08
6.78758e-05
-1.87147e-06
7.87661e-05
-4.49369e-06
9.0015e-05
-8.03137e-06
0.000101713
0.000113947
-1.25789e-05
4.71326e-07
3.46012e-06
1.1711e-06
1.24412e-05
1.82883e-06
2.28108e-05
2.19355e-06
3.48033e-05
2.38332e-06
4.6492e-05
2.33026e-06
5.72742e-05
2.00071e-06
6.82054e-05
1.27323e-06
7.94935e-05
3.59168e-08
9.12523e-05
-1.76863e-06
0.000103518
0.00011638
-4.20185e-06
3.56763e-07
3.10335e-06
1.1103e-06
1.16877e-05
1.92149e-06
2.19996e-05
2.60475e-06
3.412e-05
3.22634e-06
4.58704e-05
3.72883e-06
5.67718e-05
4.14381e-06
6.77904e-05
4.38611e-06
7.92512e-05
4.38826e-06
9.12501e-05
4.07969e-06
0.000103826
0.000116938
3.52237e-06
3.85972e-07
2.71738e-06
1.24166e-06
1.0832e-05
2.23839e-06
2.10028e-05
3.27888e-06
3.30795e-05
4.35352e-06
4.47958e-05
5.41092e-06
5.57144e-05
6.50986e-06
6.66914e-05
7.64004e-06
7.81211e-05
8.75946e-06
9.01307e-05
9.8381e-06
0.000102748
0.000115945
1.08308e-05
3.83771e-07
2.33361e-06
1.24161e-06
9.97413e-06
2.38984e-06
1.98546e-05
3.77625e-06
3.16931e-05
5.32133e-06
4.32507e-05
6.96663e-06
5.40691e-05
8.79265e-06
6.48654e-05
1.0823e-05
7.60907e-05
1.30736e-05
8.78801e-05
1.55559e-05
0.000100265
0.000113196
1.83052e-05
3.34989e-07
1.99862e-06
1.21032e-06
9.0988e-06
2.57471e-06
1.84902e-05
4.33876e-06
2.99291e-05
6.37906e-06
4.12104e-05
8.63224e-06
5.18159e-05
1.11849e-05
6.23127e-05
1.41233e-05
7.31523e-05
1.74928e-05
8.45106e-05
2.13539e-05
9.64042e-05
0.000108716
2.58336e-05
3.9038e-07
1.60824e-06
1.34136e-06
8.14782e-06
2.91975e-06
1.69118e-05
5.07094e-06
2.77779e-05
7.59824e-06
3.86831e-05
1.04704e-05
4.89437e-05
1.37749e-05
5.90083e-05
1.76157e-05
6.93114e-05
2.21077e-05
8.00187e-05
2.73484e-05
9.11635e-05
0.000102577
3.34869e-05
3.87687e-07
1.22055e-06
1.36212e-06
7.17339e-06
3.10011e-06
1.51738e-05
5.57838e-06
2.52996e-05
8.6288e-06
3.56327e-05
1.21671e-05
4.54054e-05
1.62741e-05
5.49013e-05
2.10979e-05
6.44875e-05
2.67824e-05
7.43342e-05
3.34755e-05
8.44704e-05
9.4778e-05
4.12748e-05
3.85375e-07
8.35179e-07
1.39745e-06
6.16131e-06
3.29087e-06
1.32804e-05
6.10119e-06
2.24893e-05
9.66235e-06
3.20715e-05
1.38705e-05
4.11972e-05
1.88184e-05
4.99535e-05
2.46696e-05
5.86363e-05
3.16168e-05
6.7387e-05
3.98262e-05
7.6261e-05
8.49776e-05
4.96266e-05
4.14466e-07
4.20713e-07
1.46271e-06
5.11306e-06
3.48308e-06
1.126e-05
6.5879e-06
1.93845e-05
1.06311e-05
2.80283e-05
1.55258e-05
3.63025e-05
2.13537e-05
4.41255e-05
2.83041e-05
5.16859e-05
3.65569e-05
5.91342e-05
4.63143e-05
6.65037e-05
7.34443e-05
5.78476e-05
4.30254e-07
-9.54067e-09
1.48412e-06
4.05919e-06
3.57386e-06
9.17031e-06
6.89533e-06
1.6063e-05
1.13654e-05
2.35582e-05
1.69332e-05
3.07347e-05
2.36894e-05
3.73694e-05
3.17997e-05
4.35756e-05
4.14407e-05
4.94932e-05
5.27812e-05
5.51633e-05
6.0098e-05
6.61275e-05
4.35754e-07
-4.45294e-07
1.42681e-06
3.06814e-06
3.49071e-06
7.10642e-06
6.90244e-06
1.26513e-05
1.17042e-05
1.87565e-05
1.79084e-05
2.45305e-05
2.56113e-05
2.96665e-05
3.49351e-05
3.42518e-05
4.59779e-05
3.84504e-05
5.89111e-05
4.223e-05
4.50042e-05
7.40049e-05
2.82545e-07
-7.27839e-07
1.15544e-06
2.19524e-06
3.06168e-06
5.20018e-06
6.39281e-06
9.32014e-06
1.13945e-05
1.37547e-05
1.81512e-05
1.77738e-05
2.67411e-05
2.10766e-05
3.71785e-05
2.38145e-05
4.95367e-05
2.60922e-05
6.39458e-05
2.78209e-05
2.82083e-05
8.07416e-05
1.96909e-07
-9.24748e-07
6.88716e-07
1.70343e-06
2.25502e-06
3.63389e-06
5.31356e-06
6.2616e-06
1.0315e-05
8.75332e-06
1.74911e-05
1.05977e-05
2.66999e-05
1.18678e-05
3.78463e-05
1.26681e-05
5.10097e-05
1.29288e-05
6.63504e-05
1.24801e-05
1.02055e-05
8.43533e-05
-1.47043e-06
5.45682e-07
-1.27421e-06
1.50721e-06
-1.39627e-07
2.4993e-06
2.80215e-06
3.31982e-06
7.95469e-06
3.60078e-06
1.52198e-05
3.33259e-06
2.44425e-05
2.64502e-06
3.56047e-05
1.50592e-06
4.89824e-05
-4.48829e-07
6.5214e-05
-3.75148e-06
-9.08607e-06
8.45055e-05
-9.48102e-07
1.49378e-06
1.34162e-07
4.24943e-07
3.12807e-06
-4.94608e-07
8.43758e-06
-1.98969e-06
1.57687e-05
-3.73035e-06
2.49322e-05
-5.83088e-06
3.59746e-05
-8.39737e-06
4.92018e-05
-1.17213e-05
6.48917e-05
-1.61387e-05
8.31376e-05
-2.19974e-05
-2.97e-05
0.000103751
1.05524e-05
1.67594e-05
2.34828e-05
3.08081e-05
3.87547e-05
4.76272e-05
5.7894e-05
6.99148e-05
8.40373e-05
0.000100731
0.000120805
-4.16955e-06
1.81089e-05
-1.39393e-05
-8.17143e-06
1.67662e-05
-1.27643e-05
-1.42774e-05
1.99964e-05
-1.38904e-05
-2.08968e-05
2.19826e-05
-1.53632e-05
-2.76175e-05
2.41943e-05
-1.74736e-05
-3.45966e-05
2.72363e-05
-2.02572e-05
-4.2101e-05
3.13568e-05
-2.38525e-05
-5.0451e-05
3.68256e-05
-2.84756e-05
-5.99925e-05
4.39904e-05
-3.44488e-05
-7.1107e-05
5.33446e-05
-4.22301e-05
6.56105e-05
-5.24048e-05
-8.43127e-05
2.89295e-06
1.52159e-05
3.4177e-06
1.62414e-05
5.35469e-07
2.28786e-05
-4.16311e-06
2.66812e-05
-1.03145e-05
3.03457e-05
-1.74354e-05
3.43572e-05
-2.53949e-05
3.93164e-05
-3.43336e-05
4.57642e-05
-4.45496e-05
5.42064e-05
-5.64373e-05
6.52323e-05
7.96517e-05
-7.04785e-05
2.4849e-06
1.2731e-05
3.15901e-06
1.55673e-05
2.6982e-06
2.33394e-05
7.89941e-07
2.85895e-05
-3.0923e-06
3.42279e-05
-8.53298e-06
3.97979e-05
-1.52551e-05
4.60385e-05
-2.31493e-05
5.36584e-05
-3.22994e-05
6.33565e-05
-4.29603e-05
7.58933e-05
9.22169e-05
-5.55256e-05
1.7476e-06
1.09834e-05
1.96079e-06
1.53541e-05
2.20389e-06
2.30963e-05
1.56123e-06
2.92321e-05
-5.11975e-07
3.63011e-05
-3.96314e-06
4.3249e-05
-8.79832e-06
5.08737e-05
-1.49036e-05
5.97637e-05
-2.22427e-05
7.06955e-05
-3.08868e-05
8.45373e-05
0.000102325
-4.09948e-05
1.33383e-06
9.64959e-06
1.51358e-06
1.51744e-05
1.85706e-06
2.27528e-05
1.6033e-06
2.94859e-05
5.66861e-07
3.73376e-05
-1.42484e-06
4.52407e-05
-4.54743e-06
5.39963e-05
-8.8208e-06
6.40371e-05
-1.42171e-05
7.60918e-05
-2.07391e-05
9.10594e-05
0.000110021
-2.84357e-05
1.18794e-06
8.46165e-06
1.6382e-06
1.47241e-05
2.17094e-06
2.22201e-05
2.16117e-06
2.94957e-05
1.68487e-06
3.78139e-05
5.69329e-07
4.63563e-05
-1.34059e-06
5.59062e-05
-4.13404e-06
6.68305e-05
-7.8513e-06
7.98091e-05
-1.24927e-05
9.57008e-05
0.000115559
-1.80306e-05
1.10927e-06
7.35238e-06
1.81781e-06
1.40156e-05
2.56682e-06
2.14711e-05
2.84682e-06
2.92157e-05
2.79197e-06
3.78687e-05
2.27012e-06
4.68781e-05
1.19808e-06
5.69782e-05
-4.97714e-07
6.85263e-05
-2.87312e-06
8.21845e-05
-5.97036e-06
9.8798e-05
0.000119363
-9.77432e-06
9.33378e-07
6.419e-06
1.83489e-06
1.31141e-05
2.7459e-06
2.05601e-05
3.29498e-06
2.86666e-05
3.60617e-06
3.75575e-05
3.56049e-06
4.69238e-05
3.14683e-06
5.73919e-05
2.30628e-06
6.93669e-05
1.00108e-06
8.34897e-05
-7.7874e-07
0.000100578
0.000121587
-3.00272e-06
8.99203e-07
5.5198e-06
1.92337e-06
1.20899e-05
2.9672e-06
1.95162e-05
3.7684e-06
2.78654e-05
4.38571e-06
3.69402e-05
4.7384e-06
4.65711e-05
4.84504e-06
5.72852e-05
4.67933e-06
6.95326e-05
4.22689e-06
8.39421e-05
3.46977e-06
0.000101335
0.000122607
2.45017e-06
9.70784e-07
4.54902e-06
2.16985e-06
1.08908e-05
3.41255e-06
1.82735e-05
4.4909e-06
2.6787e-05
5.41025e-06
3.60209e-05
6.10152e-06
4.58799e-05
6.62413e-06
5.67626e-05
6.97824e-06
6.91785e-05
7.17047e-06
8.37499e-05
7.19606e-06
0.000101309
0.000122795
7.0079e-06
9.78954e-07
3.57006e-06
2.286e-06
9.58379e-06
3.70795e-06
1.68516e-05
5.06273e-06
2.54322e-05
6.282e-06
3.48016e-05
7.3261e-06
4.48358e-05
8.24133e-06
5.58474e-05
9.07229e-06
6.83475e-05
9.8407e-06
8.29815e-05
1.0579e-05
0.000100571
0.00012203
1.13439e-05
8.72629e-07
2.69743e-06
2.16184e-06
8.29458e-06
3.68113e-06
1.53323e-05
5.25055e-06
2.38628e-05
6.76935e-06
3.32828e-05
8.17908e-06
4.3426e-05
9.52019e-06
5.45063e-05
1.08519e-05
6.70158e-05
1.22206e-05
8.16128e-05
1.36665e-05
9.91252e-05
0.000120463
1.52333e-05
7.91749e-07
1.90568e-06
2.04865e-06
7.03768e-06
3.65831e-06
1.37226e-05
5.44371e-06
2.20774e-05
7.26218e-06
3.14643e-05
9.04841e-06
4.16398e-05
1.08269e-05
5.27279e-05
1.26566e-05
6.51861e-05
1.46069e-05
7.96625e-05
1.67373e-05
9.69948e-05
0.000118168
1.9033e-05
7.60456e-07
1.14523e-06
1.99593e-06
5.80221e-06
3.70616e-06
1.20124e-05
5.71275e-06
2.00708e-05
7.85286e-06
2.93242e-05
1.00369e-05
3.94558e-05
1.22724e-05
5.04923e-05
1.46193e-05
6.28392e-05
1.71599e-05
7.7122e-05
1.99759e-05
9.41788e-05
0.00011498
2.31631e-05
6.28349e-07
5.16879e-07
1.73686e-06
4.69369e-06
3.45234e-06
1.02969e-05
5.61788e-06
1.79053e-05
8.0594e-06
2.68827e-05
1.06732e-05
3.6842e-05
1.34401e-05
4.77254e-05
1.6408e-05
5.98713e-05
1.96689e-05
7.38612e-05
2.33193e-05
9.05284e-05
0.000110881
2.74185e-05
4.71582e-07
4.52963e-08
1.45029e-06
3.71499e-06
3.14896e-06
8.59825e-06
5.45709e-06
1.55972e-05
8.20187e-06
2.41379e-05
1.127e-05
3.37739e-05
1.46198e-05
4.43756e-05
1.82889e-05
5.62021e-05
2.23698e-05
6.97803e-05
2.69691e-05
8.59291e-05
0.000105653
3.21973e-05
3.61998e-07
-3.16702e-07
1.2185e-06
2.85848e-06
2.88143e-06
6.93533e-06
5.31341e-06
1.31652e-05
8.3659e-06
2.10854e-05
1.19079e-05
3.02319e-05
1.5897e-05
4.03865e-05
2.03568e-05
5.17422e-05
2.53643e-05
6.47728e-05
3.10284e-05
8.02651e-05
9.9194e-05
3.74873e-05
2.13908e-07
-5.30609e-07
9.34174e-07
2.13822e-06
2.48564e-06
5.38386e-06
4.95628e-06
1.06945e-05
8.25633e-06
1.77854e-05
1.2277e-05
2.62112e-05
1.69673e-05
3.56962e-05
2.23445e-05
4.63651e-05
2.84668e-05
5.86505e-05
3.54481e-05
7.32838e-05
9.12305e-05
4.34115e-05
1.10757e-07
-6.41366e-07
6.98763e-07
1.55021e-06
2.07568e-06
4.00694e-06
4.47123e-06
8.29898e-06
7.92814e-06
1.43285e-05
1.23986e-05
2.17407e-05
1.78399e-05
3.02549e-05
2.42487e-05
3.99563e-05
3.16547e-05
5.12446e-05
4.01602e-05
6.47783e-05
8.14046e-05
4.99861e-05
4.09926e-08
-6.82358e-07
4.95834e-07
1.09537e-06
1.62984e-06
2.87294e-06
3.81393e-06
6.11489e-06
7.29483e-06
1.08476e-05
1.21482e-05
1.68873e-05
1.83414e-05
2.40617e-05
2.58316e-05
3.24661e-05
3.46268e-05
4.24494e-05
4.48402e-05
5.45649e-05
6.94867e-05
5.67581e-05
-7.16242e-09
-6.75196e-07
2.23075e-07
8.65132e-07
1.02632e-06
2.0697e-06
2.87119e-06
4.27001e-06
6.23493e-06
7.48383e-06
1.13311e-05
1.17912e-05
1.81461e-05
1.72467e-05
2.66081e-05
2.4004e-05
3.67313e-05
3.23262e-05
4.86638e-05
4.26324e-05
5.53606e-05
6.27899e-05
-4.61096e-07
-2.141e-07
-4.96525e-07
9.00562e-07
1.91873e-08
1.55399e-06
1.61649e-06
2.67271e-06
4.81281e-06
4.2875e-06
9.8887e-06
6.7153e-06
1.69159e-05
1.02195e-05
2.58857e-05
1.50342e-05
3.69148e-05
2.12971e-05
5.02912e-05
2.92559e-05
3.90583e-05
6.65935e-05
-6.33281e-07
4.19181e-07
-6.75667e-07
9.42948e-07
-1.47411e-08
8.9306e-07
1.59078e-06
1.06718e-06
4.39683e-06
1.48145e-06
8.74177e-06
2.37036e-06
1.49275e-05
4.03386e-06
2.31872e-05
6.77448e-06
3.38515e-05
1.06327e-05
4.71527e-05
1.59548e-05
2.31688e-05
6.30422e-05
1.36717e-06
-9.47992e-07
3.39766e-06
-1.08754e-06
5.4124e-06
-1.12167e-06
7.45682e-06
-9.77238e-07
9.69596e-06
-7.57692e-07
1.24859e-05
-4.1957e-07
1.64527e-05
6.70963e-08
2.24085e-05
8.18601e-07
3.08815e-05
2.15973e-06
4.24009e-05
4.43552e-06
8.29432e-06
5.72753e-05
-1.3348e-05
-5.91325e-07
-2.28104e-05
-3.30191e-06
-3.04057e-05
-6.29506e-06
-3.68644e-05
-8.90457e-06
-4.30283e-05
-1.13097e-05
-4.93564e-05
-1.3929e-05
-5.62677e-05
-1.69412e-05
-6.41164e-05
-2.06269e-05
-7.32078e-05
-2.53575e-05
-8.385e-05
-3.15879e-05
-3.99294e-05
-9.63254e-05
-7.0478e-06
6.45648e-06
-1.3571e-05
3.22131e-06
-2.13084e-05
1.4423e-06
-2.89631e-05
-1.24986e-06
-3.63647e-05
-3.9081e-06
-4.39591e-05
-6.33461e-06
-5.21856e-05
-8.71464e-06
-6.14808e-05
-1.13317e-05
-7.22131e-05
-1.46252e-05
-8.47552e-05
-1.90458e-05
-2.5099e-05
-9.95855e-05
-2.58258e-06
9.03905e-06
-6.68783e-06
7.32656e-06
-1.27658e-05
7.52023e-06
-1.99723e-05
5.9567e-06
-2.81918e-05
4.31139e-06
-3.69413e-05
2.41484e-06
-4.62706e-05
6.14684e-07
-5.6502e-05
-1.10035e-06
-6.81272e-05
-2.99997e-06
-8.16301e-05
-5.54292e-06
-9.28317e-06
-9.74459e-05
-1.63257e-06
1.06716e-05
-4.49331e-06
1.01873e-05
-8.74969e-06
1.17766e-05
-1.44741e-05
1.16811e-05
-2.14988e-05
1.1336e-05
-2.98177e-05
1.07338e-05
-3.92918e-05
1.00888e-05
-4.99256e-05
9.53347e-06
-6.19582e-05
9.03263e-06
-7.57612e-05
8.2601e-06
6.78585e-06
-9.18302e-05
-1.4328e-06
1.21044e-05
-3.93574e-06
1.26902e-05
-7.29348e-06
1.51343e-05
-1.17687e-05
1.61564e-05
-1.76565e-05
1.72238e-05
-2.48511e-05
1.79283e-05
-3.34098e-05
1.86475e-05
-4.3349e-05
1.94727e-05
-5.47965e-05
2.04801e-05
-6.80238e-05
2.14874e-05
2.21898e-05
-8.34277e-05
-1.26757e-06
1.3372e-05
-3.51593e-06
1.49386e-05
-6.30015e-06
1.79186e-05
-9.94511e-06
1.98014e-05
-1.47767e-05
2.20554e-05
-2.0903e-05
2.40546e-05
-2.83668e-05
2.61112e-05
-3.71978e-05
2.83037e-05
-4.75952e-05
3.08775e-05
-5.97171e-05
3.36093e-05
3.63076e-05
-7.38349e-05
-1.07767e-06
1.44497e-05
-3.06296e-06
1.69239e-05
-5.43886e-06
2.02945e-05
-8.46943e-06
2.2832e-05
-1.24933e-05
2.60792e-05
-1.75798e-05
2.91411e-05
-2.39122e-05
3.24437e-05
-3.16256e-05
3.60171e-05
-4.07359e-05
3.99878e-05
-5.1483e-05
4.43563e-05
4.89439e-05
-6.41193e-05
-1.003e-06
1.54527e-05
-2.72011e-06
1.8641e-05
-4.75729e-06
2.23316e-05
-7.3611e-06
2.54358e-05
-1.06492e-05
2.93673e-05
-1.48418e-05
3.33337e-05
-2.01043e-05
3.77062e-05
-2.65562e-05
4.24689e-05
-3.43072e-05
4.77389e-05
-4.34873e-05
5.35364e-05
5.97658e-05
-5.43092e-05
-8.65895e-07
1.63186e-05
-2.40951e-06
2.01846e-05
-3.94182e-06
2.38639e-05
-6.17969e-06
2.76736e-05
-8.88966e-06
3.20773e-05
-1.23229e-05
3.6767e-05
-1.66127e-05
4.1996e-05
-2.18972e-05
4.77534e-05
-2.83032e-05
5.41449e-05
-3.59862e-05
6.12194e-05
6.89528e-05
-4.51732e-05
-6.88454e-07
1.7007e-05
-1.91088e-06
2.1407e-05
-3.267e-06
2.52201e-05
-5.01089e-06
2.94175e-05
-7.14984e-06
3.42163e-05
-9.86989e-06
3.9487e-05
-1.32695e-05
4.53956e-05
-1.74639e-05
5.19478e-05
-2.25796e-05
5.92606e-05
-2.87466e-05
6.73864e-05
7.62775e-05
-3.60713e-05
-4.73963e-07
1.7481e-05
-1.30981e-06
2.22429e-05
-2.28845e-06
2.61987e-05
-3.62307e-06
3.07521e-05
-5.23849e-06
3.58317e-05
-7.3006e-06
4.15491e-05
-9.86899e-06
4.7964e-05
-1.30537e-05
5.51325e-05
-1.69396e-05
6.31465e-05
-2.16237e-05
7.20705e-05
8.18711e-05
-2.72173e-05
-2.79913e-07
1.77609e-05
-8.60745e-07
2.28237e-05
-1.49792e-06
2.68359e-05
-2.38664e-06
3.16409e-05
-3.46286e-06
3.69079e-05
-4.85473e-06
4.2941e-05
-6.59753e-06
4.97068e-05
-8.7648e-06
5.72997e-05
-1.14229e-05
6.58046e-05
-1.4634e-05
7.52816e-05
8.5661e-05
-1.84239e-05
-5.29266e-08
1.78138e-05
-3.32103e-07
2.31029e-05
-6.26912e-07
2.71307e-05
-1.06771e-06
3.20817e-05
-1.60671e-06
3.74469e-05
-2.32995e-06
4.36643e-05
-3.24888e-06
5.06257e-05
-4.41814e-06
5.8469e-05
-5.85597e-06
6.72424e-05
-7.61623e-06
7.70419e-05
8.77745e-05
-9.72969e-06
2.63944e-07
1.75499e-05
3.54951e-07
2.30119e-05
4.36853e-07
2.70488e-05
4.49439e-07
3.20691e-05
4.57905e-07
3.74384e-05
3.99347e-07
4.37228e-05
2.94797e-07
5.07303e-05
1.23131e-07
5.86407e-05
-1.08793e-07
6.74743e-05
-3.90392e-07
7.73235e-05
8.81004e-05
-7.16266e-07
4.68789e-07
1.70811e-05
8.81712e-07
2.2599e-05
1.35897e-06
2.65715e-05
1.86191e-06
3.15661e-05
2.44424e-06
3.68561e-05
3.10122e-06
4.30658e-05
3.8572e-06
4.99743e-05
4.73796e-06
5.77599e-05
5.78007e-06
6.64322e-05
7.04428e-06
7.60593e-05
8.65234e-05
8.62122e-06
7.04575e-07
1.63765e-05
1.48064e-06
2.18229e-05
2.36405e-06
2.56881e-05
3.37625e-06
3.05539e-05
4.56298e-06
3.56694e-05
5.96482e-06
4.1664e-05
7.62281e-06
4.83163e-05
9.59201e-06
5.57907e-05
1.19513e-05
6.40729e-05
1.48089e-05
7.32017e-05
8.30313e-05
1.8301e-05
9.93596e-07
1.53829e-05
2.16143e-06
2.06551e-05
3.48993e-06
2.43596e-05
5.05e-06
2.89939e-05
6.87592e-06
3.38435e-05
9.05647e-06
3.94834e-05
1.16571e-05
4.57157e-05
1.47666e-05
5.26812e-05
1.84894e-05
6.03501e-05
2.29791e-05
6.8712e-05
7.7584e-05
2.84264e-05
1.27344e-06
1.41095e-05
2.8528e-06
1.90757e-05
4.65891e-06
2.25535e-05
6.8057e-06
2.68471e-05
9.31876e-06
3.13304e-05
1.23424e-05
3.64598e-05
1.59446e-05
4.21135e-05
2.02533e-05
4.83725e-05
2.54072e-05
5.51962e-05
3.15976e-05
6.25216e-05
7.00785e-05
3.91031e-05
1.55988e-06
1.25496e-05
3.55786e-06
1.70777e-05
5.88011e-06
2.02313e-05
8.65203e-06
2.40751e-05
1.19201e-05
2.80624e-05
1.58369e-05
3.25429e-05
2.05076e-05
3.74428e-05
2.60806e-05
4.27994e-05
3.27134e-05
4.85635e-05
4.06314e-05
5.46035e-05
6.06286e-05
5.00814e-05
1.8676e-06
1.0682e-05
4.30668e-06
1.46386e-05
7.1654e-06
1.73725e-05
1.06101e-05
2.06304e-05
1.46801e-05
2.39924e-05
1.95434e-05
2.76796e-05
2.53274e-05
3.16589e-05
3.21887e-05
3.59381e-05
4.03267e-05
4.04254e-05
4.99738e-05
4.49564e-05
4.91441e-05
6.14583e-05
2.18494e-06
8.49706e-06
5.04376e-06
1.17798e-05
8.46133e-06
1.3955e-05
1.26024e-05
1.64893e-05
1.75053e-05
1.90895e-05
2.33362e-05
2.18488e-05
3.02263e-05
2.47687e-05
3.8362e-05
2.78025e-05
4.7957e-05
3.08304e-05
5.92873e-05
3.36262e-05
3.58001e-05
7.26313e-05
2.43431e-06
6.06274e-06
5.69944e-06
8.51469e-06
9.65784e-06
9.99659e-06
1.44669e-05
1.16802e-05
2.01687e-05
1.33877e-05
2.68985e-05
1.51191e-05
3.48055e-05
1.68617e-05
4.40867e-05
1.85212e-05
5.4992e-05
1.99252e-05
6.78003e-05
2.08178e-05
2.07976e-05
8.28029e-05
2.91882e-06
3.14392e-06
6.52784e-06
4.90567e-06
1.08774e-05
5.64702e-06
1.61448e-05
6.41287e-06
2.23944e-05
7.13806e-06
2.97391e-05
7.77432e-06
3.83503e-05
8.2505e-06
4.84571e-05
8.41437e-06
6.03137e-05
8.06861e-06
7.41653e-05
6.96615e-06
5.01033e-06
8.99526e-05
2.19593e-06
6.01406e-06
1.05394e-05
1.5975e-05
2.23554e-05
2.97102e-05
3.80278e-05
4.72607e-05
5.74891e-05
6.88907e-05
8.21954e-05
2.58287e-06
5.75798e-06
-8.34085e-06
3.87705e-06
6.61197e-06
-7.90615e-06
3.58287e-06
8.99489e-06
-8.70071e-06
2.33044e-06
1.10153e-05
-9.76287e-06
3.6081e-07
1.27264e-05
-1.07568e-05
-2.15816e-06
1.42331e-05
-1.17141e-05
-5.01301e-06
1.59887e-05
-1.31338e-05
-8.10014e-06
1.83945e-05
-1.53074e-05
-1.15852e-05
2.20204e-05
-1.85354e-05
-1.56258e-05
2.72599e-05
-2.32193e-05
3.4783e-05
-2.99768e-05
-2.04319e-05
2.5848e-06
3.17318e-06
4.13767e-06
5.05909e-06
5.08882e-06
8.04374e-06
5.32256e-06
1.07816e-05
4.61524e-06
1.34338e-05
2.92775e-06
1.59206e-05
5.43403e-07
1.8373e-05
-2.34742e-06
2.12853e-05
-5.62873e-06
2.53017e-05
-9.43951e-06
3.10707e-05
3.93228e-05
-1.39793e-05
1.29232e-06
1.88087e-06
2.29486e-06
4.05655e-06
3.40747e-06
6.93113e-06
4.28392e-06
9.90512e-06
4.56012e-06
1.31576e-05
4.03447e-06
1.64462e-05
2.72552e-06
1.9682e-05
8.05444e-07
2.32054e-05
-1.59809e-06
2.77052e-05
-4.46652e-06
3.39391e-05
4.275e-05
-7.89373e-06
3.80619e-07
1.50025e-06
9.14522e-07
3.52265e-06
1.73672e-06
6.10893e-06
2.60936e-06
9.03248e-06
3.30743e-06
1.24595e-05
3.59976e-06
1.61539e-05
3.32289e-06
1.99589e-05
2.46174e-06
2.40665e-05
1.10188e-06
2.90651e-05
-6.64312e-07
3.57053e-05
4.48881e-05
-2.80247e-06
-1.67508e-07
1.66775e-06
3.1407e-08
3.32373e-06
5.51745e-07
5.58859e-06
1.26018e-06
8.32405e-06
2.04578e-06
1.16739e-05
2.7432e-06
1.54565e-05
3.15426e-06
1.95478e-05
3.15104e-06
2.40698e-05
2.73395e-06
2.94822e-05
1.97037e-06
3.64689e-05
4.59092e-05
9.49333e-07
-3.19475e-07
1.98723e-06
-3.26741e-07
3.331e-06
-5.49351e-08
5.31679e-06
4.80291e-07
7.78882e-06
1.2096e-06
1.09446e-05
2.04052e-06
1.46256e-05
2.80816e-06
1.87802e-05
3.36004e-06
2.35179e-05
3.63366e-06
2.92085e-05
3.64876e-06
3.64538e-05
4.60776e-05
3.48036e-06
-2.5495e-07
2.24218e-06
-3.783e-07
3.45435e-06
-2.80453e-07
5.21894e-06
1.09263e-07
7.39911e-06
7.43475e-07
1.03104e-05
1.57892e-06
1.37901e-05
2.49187e-06
1.78672e-05
3.35217e-06
2.26576e-05
4.07181e-06
2.84889e-05
4.63032e-06
3.58953e-05
4.56473e-05
5.06062e-06
-2.36071e-07
2.47825e-06
-3.71226e-07
3.5895e-06
-3.16205e-07
5.16392e-06
-3.07283e-08
7.11363e-06
5.16123e-07
9.76352e-06
1.30515e-06
1.30011e-05
2.25758e-06
1.69148e-05
3.26785e-06
2.16473e-05
4.25294e-06
2.75038e-05
5.17679e-06
3.49714e-05
4.47702e-05
6.0539e-06
-1.60186e-07
2.63844e-06
-2.40131e-07
3.66945e-06
-1.89247e-07
5.11304e-06
3.17695e-08
6.89262e-06
5.17373e-07
9.27791e-06
1.25262e-06
1.22659e-05
2.18742e-06
1.598e-05
3.24778e-06
2.05869e-05
4.36345e-06
2.63881e-05
5.48373e-06
3.38512e-05
4.36687e-05
6.58523e-06
-5.66376e-08
2.69507e-06
-6.59244e-08
3.67873e-06
2.4975e-08
5.02214e-06
2.63648e-07
6.65394e-06
7.30342e-07
8.81122e-06
1.42287e-06
1.15733e-05
2.32035e-06
1.50825e-05
3.37601e-06
1.95313e-05
4.53133e-06
2.52328e-05
5.73844e-06
3.26441e-05
4.24494e-05
6.95773e-06
3.26332e-08
2.66244e-06
9.32362e-08
3.61813e-06
2.49977e-07
4.8654e-06
5.30168e-07
6.37375e-06
9.95504e-07
8.34589e-06
1.66258e-06
1.09063e-05
2.53109e-06
1.4214e-05
3.57109e-06
1.84913e-05
4.73872e-06
2.40652e-05
5.98612e-06
3.13967e-05
4.11564e-05
7.27908e-06
8.12701e-08
2.58117e-06
1.9072e-07
3.50868e-06
4.02143e-07
4.65397e-06
7.24044e-07
6.05185e-06
1.20532e-06
7.86461e-06
1.87325e-06
1.02383e-05
2.73513e-06
1.33521e-05
3.77283e-06
1.74536e-05
4.95436e-06
2.28836e-05
6.23606e-06
3.0115e-05
3.98271e-05
7.56535e-06
1.3579e-07
2.44538e-06
2.96012e-07
3.34846e-06
5.6143e-07
4.38855e-06
9.289e-07
5.68438e-06
1.44145e-06
7.35206e-06
2.12728e-06
9.5525e-06
2.99739e-06
1.2482e-05