/*--------------------------------*- C++ -*----------------------------------*\
| =========                 |                                                 |
| \\      /  F ield         | OpenFOAM: The Open Source CFD Toolbox           |
|  \\    /   O peration     | Version:  3.0.1                                 |
|   \\  /    A nd           | Web:      www.OpenFOAM.org                      |
|    \\/     M anipulation  |                                                 |
\*---------------------------------------------------------------------------*/
FoamFile
{
    version     2.0;
    format      ascii;
    class       volScalarField;
    location    "0.928207";
    object      epsilon;
}
// * * * * * * * * * * * * * * * * * * * * * * * * * * * * * * * * * * * * * //

dimensions      [0 2 -3 0 0 0 0];

internalField   nonuniform List<scalar> 
21246
(
619.332
266.114
56.7259
14.4156
3.56664
1.04658
0.458038
0.302885
0.255804
0.244327
0.250424
809.569
433.64
114.294
23.9077
5.61592
1.51393
0.570713
0.341266
0.280982
0.271586
0.285882
820.148
429.457
147.54
39.1793
8.51643
2.09072
0.722648
0.390771
0.309131
0.300066
0.325083
704.055
379.142
155.14
47.6082
11.6448
2.65345
0.88335
0.444663
0.337221
0.325304
0.355893
558.918
334.468
152.728
52.0647
14.2227
3.35318
1.03707
0.497427
0.363511
0.346215
0.377423
429.246
298.089
148.586
56.0762
17.0274
4.32185
1.24674
0.547918
0.386645
0.362777
0.392876
320.968
268.101
144.509
60.2904
20.3441
5.64318
1.59205
0.62573
0.407447
0.37539
0.405444
234.159
242.789
140.575
64.2918
24.0027
7.35142
2.11784
0.75332
0.437939
0.385375
0.413713
169.234
220.706
137.702
68.4034
28.0606
9.5333
2.90845
0.972076
0.489989
0.398045
0.418569
122.125
201.035
136.334
73.161
32.795
12.3669
4.10012
1.35514
0.59082
0.420979
0.423214
88.1406
184.009
136.165
78.3922
38.0732
15.8455
5.78523
1.99034
0.785507
0.470577
0.43241
66.3755
171.238
137.377
83.9049
43.5956
19.7981
7.96975
2.95387
1.1349
0.576637
0.457356
58.3381
163.161
140.616
90.3376
49.6318
24.2824
10.7086
4.3386
1.72253
0.789324
0.521106
62.3192
156.737
145.782
98.7107
56.8702
29.5853
14.134
6.26367
2.66013
1.18753
0.667258
72.0031
148.195
151.17
109.576
65.9991
36.0323
18.3778
8.83148
4.06158
1.87389
0.967278
78.8351
132.211
151.069
121.976
78.0748
44.5281
23.9152
12.296
6.10479
2.99212
1.53134
79.1502
110.378
139.714
130.852
92.6154
56.0263
31.571
17.1622
9.10527
4.76825
2.529
75.6962
88.4657
118.643
129.391
105.477
70.0144
41.9836
24.1054
13.5618
7.55616
4.22098
70.6701
69.5776
93.843
115.084
109.957
83.2856
54.8489
33.7841
20.2091
11.9452
7.04666
65.2562
54.1191
70.1188
92.1036
102.113
90.6826
68.0468
46.2506
29.8572
18.8066
11.7201
61.6163
42.8229
51.3651
69.1146
86.0631
89.5123
78.1435
60.1324
42.721
28.9721
19.1285
79.5914
44.0114
45.4738
56.2202
71.3398
81.3274
80.1639
69.8117
55.2978
41.0162
28.8599
144.658
69.1919
66.0162
66.2974
67.5143
67.5815
64.7857
59.0175
50.8243
41.6473
31.6018
259.211
230.52
203.614
190.564
176.199
156.66
131.471
103.226
75.7787
53.8488
37.3367
544.045
148.865
42.055
9.93025
2.56507
0.851206
0.412574
0.282257
0.236793
0.220294
0.216515
486.787
120.161
32.9909
10.2675
2.96289
0.989562
0.450976
0.289503
0.232889
0.210784
0.202863
483.462
138.104
33.9159
12.2698
4.08863
1.40193
0.571595
0.322426
0.239511
0.207303
0.193849
434.957
131.715
31.6876
12.4306
4.57996
1.72666
0.724063
0.382135
0.262347
0.215429
0.195381
380.199
111.259
28.7718
11.8639
4.50962
1.77015
0.770046
0.418093
0.287064
0.232366
0.207155
334.366
91.7985
25.7861
10.8746
4.22399
1.73296
0.78596
0.439275
0.306026
0.249218
0.222869
297.814
76.7111
23.1522
9.86439
3.88515
1.65232
0.778994
0.451577
0.323078
0.268094
0.243148
267.803
65.2983
20.8952
8.97673
3.5765
1.5686
0.762611
0.45776
0.337779
0.287602
0.266888
245.094
56.7762
19.0938
8.25117
3.34035
1.50102
0.747537
0.46156
0.349336
0.303864
0.286919
228.64
50.5367
17.6882
7.71062
3.19128
1.45741
0.740342
0.466628
0.359419
0.317738
0.305133
217.4
46.1791
16.7009
7.3628
3.12314
1.44543
0.745377
0.475599
0.369838
0.330261
0.321267
209.723
42.9793
15.9863
7.1688
3.12374
1.46581
0.76497
0.490649
0.382407
0.342727
0.335498
205.735
40.7516
15.5386
7.12359
3.19812
1.52415
0.803119
0.514594
0.399203
0.35675
0.349899
203.893
40.6548
15.5852
7.29843
3.38982
1.64416
0.872483
0.553763
0.423681
0.374674
0.36617
204.107
41.5825
16.047
7.68089
3.72291
1.85535
0.996623
0.623081
0.464675
0.402039
0.387684
206.77
43.6855
17.011
8.3148
4.22193
2.1843
1.19738
0.738825
0.532608
0.445137
0.417931
212.336
47.1721
18.6393
9.28978
4.93876
2.67447
1.51117
0.929324
0.647363
0.516838
0.465516
221.932
52.1652
21.0834
10.7263
5.95266
3.38983
1.99414
1.24174
0.845537
0.643952
0.550467
237.411
59.1202
24.6406
12.836
7.40775
4.43873
2.73849
1.75583
1.19418
0.880532
0.715999
261.953
69.0847
29.8774
16.0059
9.5756
6.02022
3.90602
2.61144
1.81549
1.33223
1.05299
302.086
84.1305
37.8731
20.9577
12.9804
8.52606
5.80761
4.07042
2.9393
2.20442
1.74746
373.254
108.687
50.895
29.1758
18.7035
12.7816
9.09688
6.67187
5.02865
3.9081
3.16906
517.353
159.731
77.1861
45.4358
29.9231
21.0953
15.5515
11.8441
9.27882
7.48549
6.2786
949.605
274.198
142.515
91.446
65.6306
50.3291
40.1382
32.7709
27.5291
23.4717
20.1386
80.3067
27.7327
16.4864
10.3567
6.00855
3.15021
1.52183
0.700604
0.316018
0.142414
0.0685226
89.4304
30.455
16.0024
9.24255
5.08852
2.58217
1.22247
0.555551
0.248988
0.112788
0.0546119
80.516
30.4085
16.3147
9.57204
5.33336
2.71596
1.27462
0.567775
0.246565
0.106862
0.0483475
69.0166
28.0986
15.9578
9.8101
5.69728
2.99581
1.42484
0.629237
0.266391
0.111512
0.0486945
59.5975
25.1055
15.1362
9.76358
5.91953
3.23004
1.57188
0.696106
0.290332
0.118463
0.0503248
52.411
22.3751
14.1691
9.52025
5.98563
3.37542
1.6826
0.752805
0.313032
0.126305
0.0530544
46.4027
19.9925
13.1885
9.16104
5.92982
3.4362
1.75101
0.794229
0.33217
0.134111
0.0560116
42.3699
18.1683
12.2792
8.73054
5.78324
3.42636
1.77978
0.819028
0.345969
0.140712
0.0598567
39.2814
16.8029
11.4801
8.29345
5.59386
3.37237
1.78033
0.830895
0.355426
0.146465
0.0633096
36.7843
15.758
10.8259
7.907
5.40707
3.30522
1.76871
0.836248
0.362427
0.15151
0.0661529
34.6563
14.9269
10.289
7.57657
5.23757
3.23852
1.7533
0.838761
0.367936
0.155764
0.0692748
33.1017
14.247
9.8313
7.28608
5.08183
3.17382
1.73662
0.840051
0.372763
0.159645
0.071856
32.0587
13.7153
9.45558
7.04526
4.95287
3.12217
1.72573
0.843667
0.378506
0.163875
0.0743335
31.2262
13.3369
9.17606
6.87043
4.86794
3.09749
1.72926
0.853924
0.386885
0.168968
0.0775349
30.8899
13.0842
8.96869
6.74739
4.82102
3.09961
1.74948
0.872912
0.399142
0.175504
0.0807996
31.0127
12.9559
8.83836
6.68441
4.82289
3.13926
1.79442
0.905318
0.417492
0.18436
0.0849378
31.4863
13.0433
8.81881
6.70297
4.89448
3.23518
1.87765
0.958801
0.445381
0.196738
0.0903604
32.6126
13.3155
8.91427
6.81077
5.05037
3.40903
2.01886
1.04429
0.487972
0.214763
0.0974801
34.5614
13.8481
9.16011
7.01929
5.29271
3.66774
2.23895
1.18931
0.562625
0.246156
0.109145
37.6457
14.7543
9.61869
7.37074
5.65639
4.04393
2.56752
1.41639
0.687126
0.302755
0.131294
42.4842
16.2698
10.4103
7.94879
6.20077
4.58123
3.04209
1.76341
0.894243
0.406495
0.175998
50.7912
18.6381
11.8303
8.95753
7.04553
5.34689
3.71081
2.28007
1.23434
0.598179
0.269695
63.9849
24.9624
15.0947
10.9365
8.45818
6.48026
4.6591
3.04193
1.78615
0.950964
0.468774
104.755
35.6445
21.0169
14.7124
11.0363
8.37821
6.15844
4.2567
2.73118
1.62652
0.908541
51.2192
31.6406
23.449
16.8231
10.4225
5.61781
2.74574
1.23228
0.535284
0.233509
0.10673
42.644
33.9994
30.6985
24.7508
18.1491
11.8947
6.745
2.81958
1.11856
0.441024
0.195646
70.2455
40.7632
40.7087
35.0276
27.1068
19.4135
12.5751
6.88188
2.94143
0.965562
0.368701
90.8304
47.3002
44.6517
46.7989
39.4686
29.2706
19.9936
12.309
6.50507
2.68776
0.812906
105.422
52.4663
45.3264
50.0557
53.0389
43.8745
31.0937
19.913
11.4873
5.70736
2.21642
115.237
54.6822
43.9192
46.6411
54.7393
57.115
45.9441
31.1038
18.6989
10.0378
4.64325
121.974
54.878
41.5968
41.6974
48.2122
58.1981
58.0407
44.5044
28.5457
16.0872
8.0816
126.618
54.3591
39.528
37.2572
40.8049
50.3946
60.3706
55.2595
39.377
23.6452
12.5318
130.852
53.7715
38.1624
33.9414
34.6727
41.5009
53.904
59.4689
48.2224
31.4097
17.7198
135.373
53.5229
37.6505
31.7925
30.3187
34.3774
45.4424
57.2893
53.2408
37.7394
22.6448
140.872
54.0651
38.0426
30.6792
27.6102
29.5307
38.1664
52.1617
54.9232
41.8053
26.4158
147.756
56.0644
39.2798
30.5257
26.2863
26.7487
33.0775
46.8058
54.6688
43.6802
28.7343
157.348
59.4085
41.381
31.2479
26.0242
25.5415
29.9461
40.789
53.0237
44.0167
29.0735
169.689
64.2544
44.3953
32.6715
26.3704
25.1209
28.224
35.2544
45.256
44.4647
27.9747
184.896
70.8918
48.6336
34.8293
26.9546
24.4723
26.0188
30.3877
36.4545
40.2733
27.6528
204.821
79.8777
54.5415
38.0103
27.9752
23.8639
23.7629
26.0218
29.463
31.9026
27.4092
231.504
92.0653
62.9016
42.8426
29.9467
23.8491
22.1217
22.6603
24.25
25.7455
25.1762
268.575
108.738
75.257
50.7914
34.0836
25.4659
22.1227
21.4018
21.8358
22.442
22.3142
321.289
132.515
96.1144
66.7557
44.7162
32.2896
26.9266
25.3004
25.239
25.0308
23.7127
357.473
155.052
123.239
95.6991
70.133
52.6337
44.0112
41.2636
40.0282
37.5794
36.1508
340.752
151.424
125.457
103.207
81.5193
64.4127
54.291
47.1058
36.4418
28.7312
21.1838
336.693
146.963
122.823
104.799
85.6455
68.8081
53.7118
38.9571
27.2727
18.7986
12.2878
378.791
146.256
117.265
95.074
73.1854
53.0851
36.5275
24.5652
16.2582
10.5322
6.58749
348.485
143.273
85.7961
55.1485
36.9965
25.0164
16.908
11.2977
7.35758
4.60163
2.73539
742.328
263.105
75.2241
14.3833
2.82037
0.627701
0.167234
0.0592812
0.029654
0.0195707
0.0153679
643.178
165.159
42.6641
11.3691
2.98998
0.779238
0.212989
0.0693694
0.0310674
0.019031
0.0143867
641.784
165.131
37.6924
11.6786
3.41399
0.978659
0.275507
0.086836
0.0355155
0.0198292
0.0140859
609.278
153.1
33.5847
11.3685
3.44604
1.06963
0.316338
0.101496
0.0402237
0.0212426
0.0144699
568.777
132.994
30.0045
10.539
3.20524
1.06803
0.332652
0.111601
0.0447123
0.0230849
0.0152301
534.836
114.312
26.9046
9.49849
2.90484
1.01152
0.329422
0.116033
0.047823
0.0246427
0.0159965
504.283
100.475
24.3782
8.46616
2.62105
0.93337
0.314577
0.115883
0.0494434
0.0257861
0.0166082
473.123
89.6956
22.174
7.55401
2.36823
0.851645
0.294653
0.112819
0.0498483
0.0265267
0.0172695
447.626
81.3828
20.2978
6.80723
2.15615
0.777936
0.274564
0.108585
0.0495753
0.0270274
0.0178359
431.269
75.6428
18.8925
6.25152
1.99427
0.719111
0.257507
0.104524
0.049093
0.0273864
0.0182468
419.365
71.8557
17.8556
5.84403
1.87487
0.674704
0.244282
0.101273
0.0487071
0.0277145
0.0186416
408.027
69.123
17.0105
5.52743
1.78448
0.641637
0.234648
0.0990851
0.0486251
0.0281217
0.0189954
400.469
67.6904
16.4156
5.31014
1.72641
0.621078
0.229173
0.0983367
0.0490743
0.0287559
0.019481
394.726
70.0579
16.737
5.32864
1.7355
0.621529
0.229495
0.0995544
0.0503223
0.0297723
0.0201732
391.379
72.8419
17.552
5.54518
1.82601
0.653636
0.243376
0.105573
0.0534714
0.0316526
0.0213342
391.439
76.6729
19.087
6.04633
2.0296
0.730402
0.275116
0.118594
0.0595746
0.0349308
0.0232419
394.972
83.2467
21.9459
7.06429
2.4346
0.886837
0.338429
0.144196
0.0709123
0.0406228
0.0264266
404.295
91.4477
26.0041
8.72434
3.13644
1.17631
0.459027
0.194216
0.0927295
0.0510888
0.0320581
421.232
102.276
31.6942
11.3428
4.34079
1.71669
0.6988
0.299084
0.139343
0.072948
0.0432673
449.325
117.114
39.7774
15.4545
6.42483
2.74951
1.20046
0.537719
0.252071
0.127016
0.0703887
495.383
138.357
51.6299
22.0322
10.0953
4.76994
2.29153
1.11445
0.55204
0.282077
0.151289
574.46
168.964
69.3787
32.7923
16.6733
8.77325
4.69631
2.53532
1.37813
0.756484
0.422145
716.111
215.53
96.7387
50.6451
28.5537
16.6678
9.90618
5.93806
3.57456
2.15874
1.30963
1081.71
239.549
135.285
83.6316
53.1978
34.2094
22.19
14.4685
9.46244
6.20071
4.07021
1050.57
420.727
81.6467
18.4341
3.66519
0.781365
0.195267
0.0685653
0.0356543
0.0243879
0.0193527
1535.02
914.241
109.019
27.1723
5.62894
1.26391
0.29572
0.0938917
0.0460123
0.0310737
0.0247561
1639.43
999.756
138.564
33.9141
7.22082
1.80998
0.435914
0.134075
0.0636429
0.0431916
0.0352928
1473.82
841.577
141.553
35.0889
7.8779
2.2181
0.571383
0.180352
0.0866902
0.0608045
0.052087
1241.49
672.054
130.797
32.3024
7.83921
2.4093
0.669789
0.225032
0.113528
0.083622
0.075636
1036.92
546.601
115.878
28.4542
7.43978
2.4189
0.723333
0.26318
0.143323
0.113992
0.113123
871.596
457.307
101.589
24.9022
6.91025
2.32628
0.743547
0.293872
0.173771
0.147725
0.153093
739.019
389.098
88.7656
21.8663
6.35942
2.19325
0.744868
0.318881
0.204258
0.185195
0.204418
637.694
336.278
77.9206
19.3906
5.85763
2.06075
0.739597
0.340766
0.234403
0.225379
0.265767
560.824
295.12
69.0738
17.4243
5.44071
1.94947
0.735857
0.36177
0.263835
0.265791
0.33369
502.411
265.165
62.3682
15.9536
5.13811
1.87058
0.739782
0.38347
0.292151
0.302534
0.391291
455.717
240.68
57.9289
15.2268
5.00852
1.85337
0.767486
0.412406
0.322118
0.336686
0.439846
419.236
220.6
55.709
15.2497
5.12913
1.92329
0.828717
0.453487
0.35599
0.370232
0.481533
390.357
205.022
55.8904
16.1694
5.56186
2.11489
0.935889
0.512894
0.395956
0.403664
0.51362
367.605
192.885
57.2941
17.787
6.34116
2.4649
1.1089
0.601375
0.446878
0.438499
0.536994
350.302
183.956
59.961
20.2292
7.59645
3.05701
1.39406
0.742817
0.520348
0.479909
0.553914
337.71
178.342
64.179
23.7511
9.55027
4.04929
1.88596
0.989046
0.643724
0.541771
0.573828
329.743
176.319
70.1816
28.6298
12.494
5.68776
2.76054
1.45033
0.882065
0.660787
0.617846
326.315
178.406
78.6118
35.4073
16.9013
8.38403
4.3438
2.35979
1.39097
0.935741
0.749149
327.332
184.898
90.3899
45.0307
23.6148
12.8662
7.24437
4.19633
2.52871
1.62363
1.14673
332.601
195.521
106.567
58.992
34.1689
20.5188
12.6461
7.93736
5.07946
3.33988
2.28448
338.735
213.374
130.117
80.5724
51.8597
34.271
23.0046
15.5917
10.6649
7.38346
5.19702
330.614
196.212
129.229
90.0708
64.7925
48.2693
36.3093
27.2928
20.4252
15.2233
11.3189
1348.48
601.819
325.601
197.433
128.368
85.5678
57.5308
38.7558
26.076
17.5021
11.7141
37.6058
28.2277
14.2643
4.1207
3.26423
3.74173
5.77828
20.8603
35.5143
14.8352
14.1132
10.3466
5.70155
2.70177
2.4099
9.11631
15.9677
17.8914
8.78691
10.0012
8.60018
5.29163
2.84168
2.80535
9.15829
13.7346
12.2899
5.18249
6.73999
6.71159
4.79591
2.89648
3.25856
8.65118
10.6395
7.96562
42.0219
43.5291
43.2297
41.8418
40.7552
46.8473
47.9557
47.0613
43.2381
13.5511
13.0279
12.9698
13.0699
13.8115
15.7914
16.3386
16.5742
17.1325
6.87844
6.28781
6.51389
6.85294
7.13293
7.96965
8.20507
8.27846
9.49235
3.73363
3.19031
3.21326
3.47668
3.49072
3.82773
4.1671
4.48066
5.50427
0.00900699
0.00829653
0.00834872
0.00544305
0.460526
0.00755439
0.133638
0.00809093
0.007521
0.00689673
0.45866
0.00812366
0.0103043
0.00518042
0.0145986
0.00728451
0.00619606
0.0053508
0.00724805
0.0071131
0.00664657
0.0604541
0.00851777
0.121965
0.00792297
0.00512047
0.00994314
0.124739
2.08447
0.385118
0.00739162
0.00641375
0.0069518
0.00807029
0.00677591
0.00826654
0.11139
0.00790511
0.00781709
0.0075837
0.155591
0.00810086
0.0377711
0.00849233
0.737415
0.39918
0.0186103
0.527241
0.00689626
0.00730728
0.389442
0.00760703
0.0307943
0.0384609
0.00729911
0.0066751
0.0588432
0.00763039
1.95352
0.0145452
0.0820838
0.0225116
0.520044
0.0349063
0.200208
0.00715063
0.370926
0.00721976
0.00829842
0.00688396
0.00515041
0.0070217
0.0142746
0.00730819
0.0119814
0.00702022
0.0842373
0.00827752
0.0559527
1.11915
0.280899
0.0262508
0.00793649
0.00838047
0.00697436
0.0143028
2.76521
0.0226616
0.0194082
0.109954
0.0080927
0.00767224
0.158951
0.00718964
1.09822
0.733251
0.00636865
0.00617325
0.0245549
0.00711162
0.0077503
0.395672
0.00676382
0.00616388
0.0148496
0.00811612
0.00460914
0.00845251
0.0157823
0.00661562
0.00798117
0.00815102
0.00715115
0.00651046
0.0208362
0.00769043
0.00752723
0.00731345
0.00795004
0.00671931
0.00696688
0.00724887
0.00706224
0.00507497
0.325638
0.00853822
0.356925
0.00472461
0.0066404
0.00966697
0.00780489
0.0146056
0.470976
0.00701092
0.00833952
0.00818202
0.0650636
0.0157503
0.405426
0.00730029
0.0393262
0.0066214
0.211452
0.00868335
0.00749308
0.0253168
0.0167422
0.00721804
0.00701171
0.00710587
0.00718629
0.00768286
0.0279463
0.00721477
0.00609507
0.0199753
0.0187516
0.0420655
0.00543701
0.00746398
0.00549252
0.0332744
0.00702123
0.00771125
0.378946
0.0264124
0.0201987
0.00805298
0.00668014
0.180742
0.00581403
0.00540848
0.00679344
0.00646073
0.00640515
0.00641334
0.00582392
0.0292176
0.763115
0.00695434
0.00722173
0.0647736
0.00849669
0.115353
0.00795348
0.0125168
0.007143
0.0072672
0.00825414
0.0801833
0.014721
0.0053077
0.00719026
0.136817
0.00832536
0.00759001
0.00740205
0.0254324
0.0104264
0.00856733
0.0270159
0.00728757
0.0136783
0.0079523
0.00838523
0.0227273
0.00719073
0.00660418
0.00736355
0.00740511
0.130191
0.00759298
0.00827338
0.00669954
0.00792386
0.011218
0.00797636
0.0248495
0.00718095
0.0112704
0.0102067
0.00654441
0.0065802
0.0209603
0.00486066
0.00764775
0.0776078
0.0246952
0.0129049
0.151386
0.0413229
0.00713939
0.00717178
0.00724477
0.0280698
1.0228
0.334296
0.00845007
0.00814459
0.00810643
0.0249274
0.0335331
0.00613303
0.106863
0.0074343
0.0397728
0.00800976
0.00830515
0.499423
0.361642
0.00824274
0.132251
0.0100279
0.00727624
0.00601901
0.0074401
0.00674825
0.00785482
0.0196902
0.00712895
0.00840327
0.010021
0.00737952
0.00819745
0.0079745
0.0167567
0.0066142
0.00755896
0.0176537
0.00694609
0.219936
0.00728775
0.00726796
0.0175348
0.00755783
0.00735443
0.00539566
0.00776566
0.00691269
0.0183829
0.00705774
0.00827329
0.283353
0.311266
0.00603118
0.00757894
1.22768
0.00823688
0.00681194
0.0382568
0.00833809
0.11595
0.00779762
0.00943551
0.00856385
0.00739083
0.00673599
0.00816443
0.00677701
0.0053927
0.00778926
0.00904721
0.0070485
0.39259
0.00678705
0.00659188
0.00827924
0.0820039
0.0624734
0.00741679
0.0875389
0.00816078
0.00643474
0.00673443
0.0856396
0.00655926
0.00713204
0.014542
0.00670587
0.00722908
0.00713014
0.213141
0.00745909
0.00538205
0.0239851
0.00707547
0.00779065
0.00596742
0.007094
0.13042
0.0073145
0.530506
0.0813655
0.00846202
0.0114932
0.791706
0.0156557
0.00823842
0.00785168
0.00597777
0.0307259
0.125859
0.00726416
0.0268559
0.195747
0.0831325
0.0208395
0.00753281
0.0943238
0.389792
0.113766
0.00595442
0.00700882
0.00684913
0.0131959
0.00860266
0.0107858
0.00695808
0.00849688
0.180128
0.00986553
0.00536535
0.00800279
0.00799181
0.00726643
0.0190622
0.00509631
0.0156988
0.140045
0.00689364
0.0077419
0.11218
0.661379
0.00477717
0.0119973
0.00830906
0.00905528
0.00673716
0.00751452
0.00712355
0.241896
0.00754161
0.0248293
0.00767267
0.00527011
0.329233
0.00842387
0.00482289
0.0320656
0.022954
0.0077189
0.0535964
0.00467609
0.00756798
0.346296
0.217953
0.00788285
0.00721291
0.00835297
0.0348811
0.0193944
0.00764525
0.00850462
0.0391073
0.00751084
0.354018
0.0541794
0.0336677
0.00728409
0.211696
0.00761414
0.00720126
0.0111989
0.0106662
0.0305875
0.00638243
0.0149116
0.00745633
0.00486842
0.0429768
0.283327
0.00619194
0.156772
0.0140503
0.006279
0.00660696
0.00725821
0.0281389
0.00883764
0.269815
0.00790377
0.0246067
0.00508902
0.00662614
0.00858564
0.0136659
0.192466
0.408548
0.00512625
0.00859983
0.00596532
2.09703
0.00511081
0.00870047
0.00703386
0.0231168
0.0139082
0.0403912
0.00740991
0.0351744
0.00776253
0.00833585
0.00793702
0.0321936
0.0201833
0.148549
0.0057811
0.0287803
0.0266497
0.0082595
0.00739684
0.374429
0.00507042
0.00598984
0.00755084
0.145048
0.115945
0.0902244
0.0916647
0.00729958
0.00657226
0.0169524
0.00703796
0.0770167
0.00723197
0.00822892
0.0073169
0.0347657
0.0336529
0.0071537
0.00778168
0.00669467
0.095488
0.0678689
0.00845031
0.0245125
0.238595
0.00941928
0.0154093
0.00740401
0.0274648
0.00758176
0.00720571
0.00762803
0.00836503
0.00640923
0.00715805
0.00535804
0.00853406
0.00750546
0.00565902
0.0059355
0.00806534
0.00806944
0.500903
0.0186433
0.0129902
0.00732672
0.297
0.00835639
0.276752
0.0162575
0.0247376
0.0219044
0.00790587
0.334066
0.031688
0.0053292
0.00779141
0.00634842
0.00666889
0.00826721
0.00768861
0.00818404
0.00694469
0.23495
0.00800547
0.00744719
0.086436
0.00776129
0.171487
0.00699907
0.0642726
0.00559892
0.0192251
0.00856274
0.00786031
0.008405
0.123292
0.0347945
0.00795703
0.00791519
0.00505456
0.00834009
0.00561293
0.0083038
0.184995
0.00681392
0.0463529
0.00835777
0.00764032
0.450891
0.28816
0.00682087
0.00659336
0.00699279
0.00829984
0.0136061
0.0396992
0.007215
0.00896056
0.266599
0.712072
0.0079169
0.00729363
0.00827601
0.0140328
0.347032
0.0191207
0.00807922
0.0075017
0.311161
0.0071733
0.0085905
0.00719817
0.0422915
0.352841
0.00772236
0.0206735
0.00781524
0.0328075
0.00735618
0.0113145
0.00608304
0.00641908
0.0893427
0.0366442
0.00841196
0.00854581
1.09503
0.00762586
0.00615914
0.00938338
0.0330363
0.0116592
0.029981
0.00761259
0.00684953
0.0077618
0.00792137
0.682803
0.0157246
0.0121144
0.00711915
0.00794849
0.0437973
0.00711223
0.00725959
0.00727947
0.00697022
0.0083248
0.015337
0.0325595
0.018131
0.00621685
0.0105472
0.00725418
0.059624
0.00698272
0.00781688
0.56269
0.18279
0.00755276
0.00755944
0.0618356
0.00673178
0.00737944
0.0194624
0.00831047
0.00686542
0.0101882
0.0090367
0.00828699
0.00489016
0.0057208
0.0395141
0.14301
0.0286205
0.0321793
0.00626181
0.0206424
0.0266491
0.00849215
0.00836305
0.0068468
0.0248492
0.00606928
0.0070176
0.00694253
0.00511233
0.0390542
0.439817
0.00608581
0.00848733
0.00769654
0.012381
0.00812549
0.00723972
0.00693833
0.0132527
0.00693201
0.00740415
0.00696384
0.00825271
0.0120844
0.0558852
0.146939
0.00697802
0.00710868
0.00755034
0.0428298
0.00719976
0.129175
0.00709787
0.0173724
0.190239
0.00771686
0.0160287
0.00849559
0.00678009
0.0177667
0.00842961
0.49074
0.00556164
0.00666692
0.0084169
0.0124681
0.00509669
0.0333189
0.361089
0.00750398
0.00639895
0.00840346
0.00784586
0.00698351
0.0216128
0.00812566
0.00762917
0.00760712
0.010062
0.0279287
0.00816752
0.00766954
0.00750563
0.0233943
0.00546751
0.00648912
0.011453
0.0987345
0.00926769
0.00638241
0.00638543
0.00845961
0.0400247
0.00636699
0.143448
0.00784457
0.0068132
0.00793061
0.00729683
0.0815631
0.011819
0.0283977
0.00516524
0.00718491
0.00684063
0.00669281
0.0274025
0.00824162
0.307239
0.0365227
0.178112
0.00662727
0.0102609
0.0277411
0.0115441
0.00724802
0.00885047
0.0339182
0.0123354
0.00804059
0.0053922
0.277304
0.00811584
0.155193
0.00927658
0.00736963
0.0163118
0.00753472
0.00717558
0.00682382
0.00779292
0.00707406
0.00479936
0.00818604
0.00681682
0.00698349
0.0090973
0.0185359
0.155358
0.0150533
0.0072305
0.16872
0.322007
0.00782248
0.00483558
0.00710849
0.0269843
0.0100765
0.0440779
0.00809644
0.0205481
0.00840779
0.00895858
0.00721672
0.00695635
0.00766035
0.0122941
0.0643944
0.00860494
0.0079177
0.00734767
0.252277
0.210951
0.0075722
0.00819185
0.00698147
0.00746857
0.00813862
0.0082227
0.00837485
0.00790006
0.00741599
0.00565429
0.0506394
0.0909599
0.00480132
0.00737221
0.00769094
0.00795435
0.00671788
0.222005
0.0082759
0.00626261
0.00756711
0.254517
0.129048
0.0361748
0.00779043
0.0158193
0.00770377
0.0078421
0.26289
0.00715234
0.00815573
0.00689149
0.0427278
0.00602456
0.00593446
0.00814101
0.0105948
0.124636
0.0191078
0.00815219
0.00474954
0.030794
0.0280071
0.0189509
0.00842869
0.00719794
0.00520975
0.0138285
0.0247432
0.00829345
0.00696436
0.00731445
0.00733588
0.00824141
0.00678846
0.00625061
0.154922
0.194184
0.0379724
0.00809535
0.466898
0.00853065
0.00709643
0.00713365
0.00792032
0.00766725
0.00768518
0.0140371
0.0170884
0.0201456
0.00765497
0.0107651
0.007678
0.00859809
0.00730269
0.00754472
0.00703649
0.00794082
0.00814706
0.00720896
0.86529
0.00753843
0.00714134
0.0126532
0.155527
0.00718405
0.00796377
0.0184798
0.898502
0.00712952
0.00784404
0.0109394
0.0127875
0.00845937
0.0080904
0.00701679
0.00860569
0.0479584
0.008269
0.0839936
0.0095174
0.144852
0.00794392
0.00821142
0.00622242
0.0288583
0.00776144
0.00726061
0.00736
0.00831265
0.00614538
0.201818
0.00670101
0.0274439
0.244877
0.0276322
0.00604396
0.0423998
0.00850914
0.00814486
0.00514426
0.00813963
0.00610748
0.00761221
0.282076
0.00717524
0.0107338
0.00731716
0.00464442
0.00533397
0.019482
0.00794049
0.00693535
0.00804624
0.276967
0.0598936
0.377679
0.00704802
0.00993821
0.00691659
0.00776785
0.300859
0.00753512
0.00830319
0.00609875
0.227779
0.0324038
0.0382746
0.00724788
0.00533926
0.0112758
0.529879
0.00802082
0.00705046
0.3849
0.00759276
0.0172745
0.00792387
0.0888877
0.00814391
0.03063
0.0083059
0.00729095
0.00844653
0.00764546
0.0148606
0.00663201
0.00714915
0.00780859
0.00721317
0.0100977
0.00728832
0.0399123
0.00676743
0.00683924
0.302326
0.0234958
0.0443579
0.00832548
0.0426434
0.00722242
0.008275
0.0265651
0.00646219
0.0352172
0.353393
0.00609681
0.0133759
0.00653579
0.00740312
0.0180597
0.0170282
0.00711919
0.0505502
0.00813342
1.04172
0.0425265
0.687444
0.00813369
0.021002
0.0118963
0.312342
0.00775104
0.00535839
0.00855524
0.00466247
0.117555
0.0081578
0.00890644
0.00739342
0.0285137
0.217252
0.00819617
0.00781675
0.00736061
0.0434118
0.00712782
0.150171
0.0108592
0.0633645
0.345508
0.00827519
0.0163076
0.0316032
0.0296293
0.0875453
0.0232212
0.00756359
0.011422
0.00491284
0.00810707
0.00778241
0.00856452
0.00910376
0.00661069
0.00831271
0.00556926
0.0382807
0.00485831
0.00803276
0.105221
0.0140822
0.00689511
0.0107184
0.00813743
0.0070229
0.00730918
0.182322
0.00737213
0.0152526
0.00616754
0.023649
0.00797543
0.00695498
0.00796447
0.00752381
0.0179474
0.0457613
0.040603
0.617204
0.269048
0.51531
0.00681242
0.00685515
0.00933969
0.0083881
0.00588277
0.0164076
0.00686203
0.0827423
0.00614517
0.157838
0.00695303
0.00497881
0.00812309
0.298698
0.0086236
0.460951
0.0070366
0.00738286
0.045738
0.0597129
0.00690993
0.0258378
0.0311935
0.05049
0.126918
0.0199426
0.21709
0.00957408
0.00719267
0.388342
0.0192904
0.00832517
0.00632318
0.00749101
0.00503497
0.00529063
0.00984958
0.00773337
0.0167379
0.611172
0.00751334
0.00722123
0.00740831
0.00818862
0.00960542
0.00542103
0.00690773
0.00558565
0.378578
0.0074345
0.60885
0.0706496
0.00782274
0.123035
0.0580277
0.0177568
0.00663081
0.144611
0.00767856
0.00804672
0.345554
0.00750608
0.00824441
0.00575952
0.00809913
0.00733127
0.169331
0.00734136
0.685418
0.0134255
0.0187632
0.00724154
0.012396
0.0274323
0.00618146
0.280725
0.00776478
0.0109529
0.0271929
0.00700075
0.0144894
0.0304074
0.0231288
0.00747425
0.0329491
0.0796988
0.00645046
0.00733611
0.0277645
0.0069494
0.0193926
0.0238271
0.352518
0.00712947
0.00860273
0.00797501
0.00621534
0.00798362
0.00478432
0.0374983
1.08859
0.0078732
0.0240168
0.0280492
0.0081976
0.0344281
0.00710689
0.0071127
2.57775
0.0404247
0.336216
0.163723
0.00816099
0.00793216
0.0221013
0.222834
0.200923
0.24982
0.00494815
0.00816738
0.00719615
0.00625653
0.240655
0.0478006
0.00864643
0.00738144
0.0279981
0.021954
0.0353793
0.00682483
0.090147
0.216988
0.00638352
0.005605
0.00726583
0.00715286
0.215956
0.00539581
0.00851903
0.0151219
0.00772448
0.0065296
0.366196
0.00906601
0.0105286
0.0332583
0.0510277
0.00749694
0.178783
0.0194589
0.00836249
0.00455851
0.0185868
0.00661796
0.349336
0.00807347
0.00768368
0.0069253
0.101294
0.00609735
0.00745465
0.0321826
0.00833866
0.00814901
0.00859552
0.00534939
0.00771073
0.0361488
0.0182234
0.00815407
0.470121
0.0361643
0.00828618
0.0315874
0.00713449
0.00517932
0.0325247
0.00803074
0.00816492
0.00788967
0.00726505
0.0079392
0.00719883
0.00808356
0.0489355
0.0346659
0.00605148
0.0398271
0.00688928
0.020142
0.0178456
0.00855482
0.00701807
0.0158886
0.00489594
0.00674467
0.00591431
0.00667156
0.00680599
0.00796398
0.0376239
0.178406
0.0240749
0.0996895
0.00859361
0.0119026
0.380045
0.0166145
0.0126566
0.00758598
0.0336981
0.0127184
0.12008
0.00479806
0.0207301
0.0323379
0.00642733
0.00796077
1.02123
0.00482116
0.00671235
0.0295221
0.0283352
0.00584457
0.0120905
0.0144435
0.00464595
0.572692
1.09762
0.00790395
0.00722087
0.013933
0.0462678
0.0104565
0.00811775
0.00644831
0.00839148
0.00716221
0.0818012
0.00761286
0.00845207
0.137166
0.00839234
0.00728702
0.00770465
0.00757747
0.00680122
0.00857697
0.00716554
0.0130962
0.00704074
0.00879502
0.00803423
0.0312124
0.00818527
0.0166538
0.00770416
0.0209397
0.00837311
0.00767723
0.0595188
0.242225
0.00706495
0.00782011
0.00759538
0.0223234
0.00826851
0.0069823
0.00837698
0.00738854
0.00621238
0.00730089
0.0310571
0.00512343
0.0631683
0.00847475
0.00875748
0.00790266
0.00670546
0.00746968
0.00845962
0.00802764
0.162921
0.00722162
0.0163638
0.00789904
0.00800531
0.468996
0.00844564
0.00855166
0.136319
0.203906
0.0139451
0.00754419
0.0199082
0.00790117
0.00933774
0.0119618
0.0109542
0.00738136
0.00628876
0.0268498
0.00763717
0.0321269
0.00730137
0.0153463
0.0271412
0.00734984
0.00856903
0.00719007
0.128695
0.0145225
0.00498559
0.0306074
0.00642796
0.00596752
0.00840139
0.0104294
0.0302359
0.00751166
0.00812275
0.0385441
0.00701529
0.00694789
0.00683694
0.00546647
0.00789277
0.0283209
0.0304133
0.00688111
0.0177676
0.00798294
0.00851972
0.00700867
1.04115
0.00980058
0.00677709
0.170284
0.032151
0.00820566
0.00707034
0.0289639
0.0105804
0.00663332
0.00716569
0.0159776
0.0367725
0.00753482
0.00693884
0.0742396
0.0071477
0.00830223
0.00731688
0.00685782
0.00772844
0.0251166
0.00762651
0.0318578
0.00631209
0.0134012
0.00812958
0.00502675
0.0282948
0.00688985
0.021651
0.00764583
0.0070895
0.0394891
0.0136487
0.00560546
0.00845563
0.00720718
0.326556
0.00736992
0.00718986
1.81418
0.00675501
0.00717489
0.00734696
0.00718275
0.00644713
0.00634708
0.0157071
0.00513362
0.016048
0.00717196
0.00760123
0.0156184
0.00454417
0.0074841
0.0064681
0.00564283
0.00729031
0.269584
0.00855278
0.0269304
0.00746653
0.00686358
0.00588567
0.00726865
0.0124225
0.00795417
0.00722547
0.00670898
0.00756535
0.00836216
0.0343649
0.0213132
0.0111531
0.0109826
0.0378578
0.00682586
0.00756168
0.0074381
0.212328
0.0072492
0.00655213
0.337306
0.0072648
0.214929
0.160221
0.00710298
0.00810298
0.00674829
0.00537133
0.0049386
0.00704753
0.00794565
0.023386
0.0375633
0.00477955
0.0349802
0.00782651
0.0719566
0.110509
1.06509
0.0106097
0.0118256
0.00501234
0.00829024
0.00685233
0.0249663
0.00790018
0.011048
0.00532541
0.0119589
0.00522655
0.0608344
0.0243321
0.0245151
0.260134
0.00782501
0.34522