/*--------------------------------*- C++ -*----------------------------------*\
| =========                 |                                                 |
| \\      /  F ield         | OpenFOAM: The Open Source CFD Toolbox           |
|  \\    /   O peration     | Version:  3.0.1                                 |
|   \\  /    A nd           | Web:      www.OpenFOAM.org                      |
|    \\/     M anipulation  |                                                 |
\*---------------------------------------------------------------------------*/
FoamFile
{
    version     2.0;
    format      ascii;
    class       volScalarField;
    location    "0.656398";
    object      p;
}
// * * * * * * * * * * * * * * * * * * * * * * * * * * * * * * * * * * * * * //

dimensions      [0 2 -2 0 0 0 0];

internalField   nonuniform List<scalar> 
21246
(
-4.76337
-2.20932
-1.13052
-0.530835
-0.115647
0.123624
0.239779
0.290721
0.303847
0.300324
0.308049
-5.16949
-3.56057
-2.67928
-1.83007
-1.10187
-0.613057
-0.312737
-0.131989
-0.0305014
0.027183
0.0698335
-4.3881
-3.94436
-3.49463
-2.79117
-2.04283
-1.40812
-0.939102
-0.617569
-0.40399
-0.264216
-0.164682
-3.86064
-3.74384
-3.54385
-3.10793
-2.54931
-1.97249
-1.46499
-1.06551
-0.768519
-0.553949
-0.395309
-3.50115
-3.43158
-3.32652
-3.07248
-2.70543
-2.26109
-1.80956
-1.40644
-1.0743
-0.812584
-0.606879
-3.26028
-3.17236
-3.09728
-2.92332
-2.67394
-2.34749
-1.98252
-1.62163
-1.29475
-1.01621
-0.78247
-3.10054
-2.9788
-2.91966
-2.77072
-2.57954
-2.32968
-2.0383
-1.73037
-1.43027
-1.1562
-0.912551
-2.96896
-2.8389
-2.78723
-2.63875
-2.47639
-2.27009
-2.02853
-1.76506
-1.49593
-1.23717
-0.996301
-2.86975
-2.73754
-2.66697
-2.52372
-2.37871
-2.19596
-1.98498
-1.75306
-1.51015
-1.26826
-1.03539
-2.79197
-2.64788
-2.566
-2.43247
-2.29015
-2.11783
-1.92421
-1.71246
-1.48865
-1.26159
-1.03877
-2.71906
-2.56525
-2.48039
-2.34815
-2.20347
-2.03712
-1.85291
-1.65286
-1.44149
-1.22558
-1.01175
-2.64331
-2.48278
-2.397
-2.26312
-2.1168
-1.95251
-1.77212
-1.57795
-1.3739
-1.16545
-0.95799
-2.57268
-2.40292
-2.31366
-2.17669
-2.02725
-1.86169
-1.68136
-1.48905
-1.28878
-1.0859
-0.884888
-2.50417
-2.32376
-2.2289
-2.08749
-1.93285
-1.76326
-1.58001
-1.38657
-1.18751
-0.988336
-0.791472
-2.42497
-2.23654
-2.13769
-1.99113
-1.83004
-1.65442
-1.46601
-1.26937
-1.07022
-0.874708
-0.683584
-2.33862
-2.14129
-2.03727
-1.88442
-1.71546
-1.53197
-1.33663
-1.13569
-0.936527
-0.746215
-0.563223
-2.24471
-2.03718
-1.92605
-1.76569
-1.58695
-1.39337
-1.18939
-0.983911
-0.786508
-0.604337
-0.432926
-2.13665
-1.91957
-1.80146
-1.63235
-1.44141
-1.23493
-1.02081
-0.812193
-0.621094
-0.453443
-0.300391
-2.01407
-1.78759
-1.66162
-1.48144
-1.27429
-1.05108
-0.826375
-0.619332
-0.443106
-0.298683
-0.168989
-1.87612
-1.64138
-1.50552
-1.30937
-1.07855
-0.833889
-0.60163
-0.407289
-0.25998
-0.149383
-0.0505243
-1.72565
-1.48317
-1.33074
-1.10678
-0.839019
-0.571978
-0.345473
-0.185799
-0.0870175
-0.0207997
0.0449591
-1.54582
-1.29524
-1.12529
-0.840218
-0.528491
-0.251677
-0.0670206
0.022097
0.0515951
0.0699086
0.110719
-1.3848
-1.26715
-0.892302
-0.517008
-0.179488
0.0671461
0.179056
0.167904
0.118992
0.0991299
0.124955
-2.04038
-0.344279
-0.234806
-0.0401217
0.141268
0.224742
0.229419
0.176714
0.100925
0.0710674
0.105133
-0.643998
-0.455108
-0.111171
0.21521
0.461597
0.600898
0.640674
0.626169
0.586436
0.541425
0.52156
0.780019
0.657232
0.681172
0.807702
0.964341
1.06193
1.05434
0.972277
0.861475
0.756241
0.701711
1.05349
0.971142
0.975747
1.03313
1.14479
1.25819
1.29927
1.22286
1.06615
0.908782
0.815147
1.01183
0.917629
0.915739
0.938794
1.00695
1.10472
1.19192
1.21889
1.14471
0.980458
0.861834
0.858687
0.726724
0.700243
0.673913
0.678749
0.719387
0.787949
0.874315
0.934591
0.895863
0.795331
0.673348
0.483895
0.418828
0.327816
0.253404
0.207797
0.205352
0.265719
0.390915
0.516788
0.567319
0.492928
0.234606
0.119555
-0.0505017
-0.218828
-0.375166
-0.494232
-0.525134
-0.42785
-0.206316
0.0381075
0.313319
-0.00415799
-0.168775
-0.423076
-0.691458
-0.972587
-1.23795
-1.4152
-1.42294
-1.20229
-0.803251
0.158511
-0.217849
-0.425095
-0.762383
-1.12793
-1.53597
-1.95985
-2.3217
-2.49099
-2.3405
-1.90498
0.0663169
-0.40171
-0.621462
-1.03794
-1.49249
-2.01909
-2.59723
-3.1551
-3.51274
-3.47658
-3.03711
0.0297168
-0.527864
-0.71484
-1.22318
-1.75626
-2.38226
-3.09035
-3.82152
-4.366
-4.49724
-4.08799
0.0371253
-0.498551
-0.79335
-1.30115
-1.89562
-2.59666
-3.39422
-4.2326
-4.94601
-5.27191
-4.91216
0.123216
-0.388106
-0.743272
-1.25883
-1.88932
-2.63938
-3.49165
-4.39018
-5.22268
-5.6403
-5.32048
0.310855
-0.174741
-0.558892
-1.07534
-1.71475
-2.48112
-3.35646
-4.28509
-5.14265
-5.59704
-5.44017
0.575028
0.132909
-0.253001
-0.753593
-1.37805
-2.13127
-2.99153
-3.89371
-4.70479
-5.19999
-5.16944
0.919183
0.52954
0.157981
-0.314739
-0.908567
-1.62897
-2.44843
-3.29121
-4.02879
-4.50848
-4.59527
1.3352
0.994899
0.642775
0.20123
-0.354406
-1.02776
-1.78483
-2.54583
-3.19827
-3.63399
-3.74376
1.77802
1.47245
1.13386
0.719257
0.205876
-0.405137
-1.07806
-1.74435
-2.30884
-2.66626
-2.78108
2.16579
1.87541
1.54636
1.16965
0.722532
0.190168
-0.402471
-0.981435
-1.44494
-1.69704
-1.72324
2.41907
2.15201
1.84673
1.51423
1.12525
0.658108
0.135394
-0.371184
-0.742219
-0.857548
-0.733773
2.56777
2.31781
2.01968
1.68041
1.28028
0.826424
0.354257
-0.0729415
-0.358033
-0.383362
-0.186068
2.5595
2.26704
1.91441
1.51929
1.09911
0.676525
0.276663
-0.0651648
-0.301064
-0.359457
-0.201081
2.27874
1.89061
1.45205
1.04346
0.681234
0.369478
0.0949604
-0.1351
-0.273275
-0.262355
-0.0721792
1.69149
1.04535
0.685283
0.41952
0.240557
0.102733
-0.0199029
-0.114458
-0.144205
-0.0866401
0.0247081
22.5425
14.9573
10.9974
8.7255
7.22961
6.20491
5.42786
4.78791
4.24397
3.8015
3.51915
25.2917
22.8002
18.6711
15.1621
12.295
10.0581
8.34349
7.02211
5.99638
5.22669
4.70727
20.6457
20.9738
19.967
17.964
15.5535
13.1109
10.9432
9.16029
7.73984
6.63013
5.84664
17.0788
18.4563
18.466
17.825
16.4424
14.6252
12.6678
10.8107
9.17995
7.82468
6.80348
13.9465
15.5653
15.8611
16.1295
15.6918
14.6708
13.244
11.6532
10.0907
8.68869
7.58106
11.4431
13.0299
13.3309
13.9462
14.0594
13.6905
12.8611
11.716
10.4251
9.14934
8.06535
9.86939
10.9885
11.4127
12.0269
12.3418
12.3463
11.9595
11.2378
10.2829
9.23164
8.25662
8.92948
9.66438
10.0061
10.5338
10.8756
11.0206
10.9001
10.4898
9.83234
9.02656
8.24103
8.19225
8.75892
8.99806
9.41812
9.72113
9.91207
9.90922
9.68368
9.23987
8.63555
8.01351
7.48281
8.01195
8.21102
8.5618
8.81536
8.99985
9.04552
8.92435
8.62354
8.17045
7.67698
7.04264
7.48007
7.62015
7.90654
8.10607
8.2621
8.31636
8.24646
8.03325
7.68574
7.29939
6.93136
7.19109
7.23097
7.4305
7.56088
7.67229
7.71018
7.65767
7.49472
7.22074
6.91397
6.75472
6.92834
6.92394
7.05993
7.12893
7.19354
7.20348
7.14844
7.01023
6.78297
6.53399
6.45367
6.62938
6.62733
6.73042
6.75749
6.7844
6.76576
6.69923
6.56996
6.36722
6.15314
6.36806
6.44358
6.38612
6.43902
6.42366
6.41654
6.3709
6.29011
6.16277
5.97486
5.78036
6.22091
6.23319
6.14552
6.15925
6.10764
6.07011
6.00014
5.90527
5.77696
5.59898
5.41868
5.92888
5.94561
5.86901
5.86428
5.79
5.72936
5.64091
5.53488
5.40438
5.23222
5.05306
5.73436
5.70396
5.60115
5.56307
5.46606
5.38608
5.2859
5.17407
5.04315
4.87787
4.70377
5.5309
5.44802
5.31474
5.24257
5.1275
5.03548
4.93309
4.82265
4.69423
4.53595
4.3672
5.24818
5.1191
4.96924
4.87935
4.76472
4.67837
4.58782
4.48579
4.36008
4.20347
4.02398
4.89038
4.71556
4.56026
4.47623
4.39007
4.33352
4.26727
4.17429
4.04546
3.88433
3.69817
4.47258
4.24228
4.11367
4.07671
4.054
4.04429
4.00005
3.90185
3.75557
3.58117
3.39168
3.77154
3.73451
3.6671
3.73272
3.80655
3.8408
3.7936
3.66271
3.48356
3.28696
3.06737
4.76889
3.65235
3.85364
3.95682
3.95262
3.88585
3.70255
3.45988
3.22262
3.00468
2.76596
-18.7148
-4.77699
-0.342447
1.69305
2.50751
2.72528
2.71624
2.62321
2.49135
2.35843
2.30932
-46.9504
-26.2735
-17.2384
-10.0461
-5.0588
-2.30516
-0.827002
-0.0153731
0.45493
0.755882
1.01757
-49.0554
-38.2605
-31.4798
-22.4696
-14.6388
-9.11235
-5.54857
-3.3491
-1.97644
-1.0718
-0.402441
-43.2463
-40.1647
-36.9923
-29.8538
-22.3205
-15.7038
-10.6196
-7.07007
-4.68426
-3.07711
-1.90482
-37.3345
-37.0898
-36.0522
-31.7155
-26.1499
-20.1307
-14.7498
-10.474
-7.31271
-5.0652
-3.4468
-32.8287
-33.3231
-32.9208
-30.404
-26.7078
-21.9856
-17.2109
-12.9413
-9.45782
-6.78246
-4.81852
-29.4607
-30.0655
-29.7338
-28.0905
-25.5574
-22.0056
-18.1084
-14.28
-10.8773
-8.04256
-5.80261
-26.7305
-27.2866
-26.9172
-25.7036
-23.8065
-21.0681
-17.9392
-14.6635
-11.5634
-8.81489
-6.49096
-24.4358
-24.8861
-24.4618
-23.4786
-21.9308
-19.7144
-17.1555
-14.3774
-11.6398
-9.09942
-6.82375
-22.433
-22.7666
-22.288
-21.4309
-20.0837
-18.2047
-16.0444
-13.6641
-11.2676
-8.99046
-6.84977
-20.6458
-20.8435
-20.3388
-19.5482
-18.3133
-16.6562
-14.775
-12.6984
-10.5877
-8.56475
-6.64428
-18.9333
-18.9896
-18.5166
-17.763
-16.6018
-15.1037
-13.4256
-11.584
-9.70815
-7.90097
-6.18845
-17.2833
-17.2388
-16.7926
-16.042
-14.9334
-13.5546
-12.0286
-10.3724
-8.694
-7.07758
-5.53381
-15.7121
-15.5876
-15.1312
-14.3834
-13.3079
-12.0171
-10.6041
-9.09514
-7.58525
-6.14993
-4.77877
-14.1705
-13.9703
-13.4951
-12.7476
-11.7197
-10.4893
-9.16096
-7.77069
-6.40613
-5.13829
-3.95774
-12.6788
-12.3947
-11.9007
-11.1545
-10.1556
-8.96401
-7.70082
-6.40692
-5.17196
-4.0638
-3.08779
-11.2373
-10.8689
-10.3554
-9.60548
-8.61285
-7.45052
-6.22387
-5.00596
-3.89208
-2.93988
-2.13033
-9.83045
-9.38106
-8.84974
-8.0942
-7.096
-5.93135
-4.71777
-3.56669
-2.57702
-1.78688
-1.12871
-8.45705
-7.93249
-7.38239
-6.6124
-5.58559
-4.38571
-3.16982
-2.09318
-1.25135
-0.650368
-0.185719
-7.11426
-6.52779
-5.9505
-5.14041
-4.04546
-2.77849
-1.56352
-0.602158
0.0494539
0.439613
0.718419
-5.86463
-5.20466
-4.56025
-3.66336
-2.43028
-1.09549
0.0493925
0.814592
1.20625
1.36511
1.48566
-4.48351
-3.68719
-2.95137
-1.82048
-0.458695
0.848886
1.8083
2.28714
2.39736
2.2925
2.18398
-2.78959
-2.63183
-1.59036
-0.291088
1.10664
2.19029
2.71599
2.78026
2.6662
2.53634
2.51727
-5.32618
0.363559
1.65287
2.65524
3.40557
3.66427
3.54744
3.28368
3.02714
2.81069
2.59528
-2.38127
1.70447
2.71594
2.81585
2.508
2.09693
1.69575
1.33155
1.00758
0.737817
0.584493
-22.1849
-10.8451
-6.61877
-3.40766
-1.48045
-0.542044
-0.139749
-0.00720553
-0.00311826
-0.0503192
-0.0692259
-24.9966
-17.8168
-14.5328
-10.0596
-6.51862
-4.10658
-2.60659
-1.73453
-1.24245
-0.956871
-0.759589
-21.3762
-18.8502
-17.4229
-13.769
-10.3857
-7.45022
-5.20015
-3.64827
-2.63216
-1.97044
-1.51524
-17.4264
-16.8662
-16.5335
-14.3724
-12.0367
-9.47808
-7.16241
-5.30886
-3.93703
-2.96122
-2.25321
-14.506
-14.4712
-14.445
-13.3015
-11.9167
-10.0557
-8.13367
-6.37737
-4.91585
-3.77983
-2.90469
-12.2435
-12.3912
-12.4005
-11.7684
-10.9538
-9.68414
-8.2493
-6.79485
-5.45622
-4.31907
-3.37924
-10.3604
-10.5889
-10.5976
-10.241
-9.7455
-8.88118
-7.84372
-6.70823
-5.58454
-4.55965
-3.66397
-8.90419
-9.04087
-9.04319
-8.84905
-8.53908
-7.944
-7.19476
-6.32355
-5.41197
-4.53244
-3.72325
-7.78442
-7.81737
-7.79469
-7.66726
-7.44949
-7.02344
-6.47128
-5.80025
-5.06762
-4.32898
-3.6118
-6.85059
-6.81431
-6.77396
-6.67581
-6.50524
-6.18317
-5.76066
-5.23422
-4.64298
-4.03086
-3.42892
-6.08109
-5.96402
-5.91192
-5.82907
-5.68804
-5.43384
-5.09727
-4.67285
-4.18798
-3.67489
-3.16002
-5.49998
-5.30035
-5.231
-5.14012
-5.00414
-4.78475
-4.49815
-4.14003
-3.73064
-3.29399
-2.85064
-5.06345
-4.80445
-4.71692
-4.60335
-4.45338
-4.23957
-3.97119
-3.64806
-3.28722
-2.90805
-2.52717
-4.70576
-4.40276
-4.29429
-4.15422
-3.9857
-3.76657
-3.50047
-3.19251
-2.86064
-2.52344
-2.18974
-4.4009
-4.07283
-3.93944
-3.76951
-3.5776
-3.34451
-3.06934
-2.7624
-2.44548
-2.13965
-1.85287
-4.12809
-3.7847
-3.62934
-3.43333
-3.21572
-2.9614
-2.66642
-2.34791
-2.03527
-1.75347
-1.50682
-3.85826
-3.51061
-3.33544
-3.11788
-2.87627
-2.59688
-2.27434
-1.93601
-1.62261
-1.36384
-1.15703
-3.5868
-3.24415
-3.05634
-2.82432
-2.5572
-2.24219
-1.88049
-1.51652
-1.20336
-0.969948
-0.81068
-3.32468
-2.99426
-2.80056
-2.55629
-2.25388
-1.88442
-1.47247
-1.08582
-0.784829
-0.586281
-0.465686
-3.06826
-2.76194
-2.56655
-2.29848
-1.9382
-1.49728
-1.04094
-0.655935
-0.390043
-0.233224
-0.133462
-2.76416
-2.54342
-2.32664
-1.99796
-1.55255
-1.05194
-0.597559
-0.269538
-0.0707361
0.0428312
0.133364
-2.65985
-2.40778
-2.0733
-1.6109
-1.08661
-0.596671
-0.226372
-0.00722876
0.12364
0.237701
0.470894
-2.19069
-1.54234
-1.05797
-0.620663
-0.266924
-0.0311132
0.0642623
0.0695796
0.0595547
0.0628925
0.147493
19.4385
13.6083
9.68489
7.07346
5.30879
4.08565
3.17426
2.46005
1.88328
1.43306
1.13388
15.7538
15.4499
13.2538
10.6625
8.24641
6.30546
4.80602
3.64484
2.75119
2.08789
1.66032
10.3385
12.0098
11.9285
11.0778
9.45021
7.54204
5.8604
4.48237
3.3978
2.58095
2.04891
5.49044
8.12616
8.89038
9.19002
8.69872
7.59149
6.25622
4.97242
3.83301
2.92641
2.34053
2.04913
4.57465
5.55319
6.59301
6.94807
6.72516
5.92507
4.9482
3.94843
3.08539
2.49199
-0.238382
1.8762
2.68908
3.97228
4.73644
5.05019
4.89763
4.38558
3.68277
2.98038
2.44554
-1.7242
0.021434
0.575083
1.86031
2.7078
3.33042
3.55465
3.44019
3.07716
2.60494
2.21532
-2.6405
-1.1955
-0.919149
0.331302
1.05087
1.79374
2.23769
2.39919
2.30805
2.067
1.83794
-3.34575
-2.02702
-2.00826
-0.805059
-0.194887
0.539946
1.07292
1.40443
1.519
1.47014
1.36767
-3.93716
-2.83093
-2.62253
-1.74425
-1.1479
-0.448025
0.107623
0.529674
0.781235
0.885716
0.919496
-4.38466
-3.54629
-3.18496
-2.43504
-1.87441
-1.21625
-0.663183
-0.197
0.137764
0.344564
0.485217
-4.67281
-3.96902
-3.62702
-2.94842
-2.42169
-1.80206
-1.26098
-0.775163
-0.390477
-0.115295
0.0906877
-4.91291
-4.25305
-3.93865
-3.31332
-2.81746
-2.23027
-1.70443
-1.21283
-0.800201
-0.478724
-0.229419
-5.13453
-4.46261
-4.15209
-3.55687
-3.08262
-2.52042
-2.0094
-1.52006
-1.09556
-0.748917
-0.467249
-5.15972
-4.53852
-4.25839
-3.69196
-3.23469
-2.69218
-2.19328
-1.71025
-1.28421
-0.927934
-0.639534
-5.12707
-4.53848
-4.27629
-3.73416
-3.28666
-2.76046
-2.26988
-1.79488
-1.37379
-1.01874
-0.731901
-5.07317
-4.48981
-4.2244
-3.697
-3.24832
-2.73315
-2.2473
-1.78196
-1.37177
-1.02819
-0.759477
-4.937
-4.36471
-4.09375
-3.57895
-3.12103
-2.61196
-2.12946
-1.67741
-1.28577
-0.963639
-0.7107
-4.72117
-4.16059
-3.87858
-3.37336
-2.90012
-2.39417
-1.91829
-1.48758
-1.12563
-0.838009
-0.619806
-4.44133
-3.88249
-3.5752
-3.07165
-2.57822
-2.07646
-1.61782
-1.22275
-0.905137
-0.664585
-0.491175
-4.08287
-3.51317
-3.16447
-2.65574
-2.14598
-1.66047
-1.24061
-0.901114
-0.642282
-0.457225
-0.333203
-3.60474
-3.01161
-2.60412
-2.09536
-1.59579
-1.15824
-0.809526
-0.54598
-0.354291
-0.225966
-0.154353
-3.06364
-2.35726
-1.89828
-1.43905
-1.0069
-0.658953
-0.404952
-0.218275
-0.0848223
-0.00744119
-0.000991158
-1.76804
-1.17642
-0.829573
-0.544954
-0.298052
-0.122535
0.00439923
0.126374
0.249224
0.341948
0.290508
-0.552422
-0.631451
-1.12713
-1.74487
-1.74824
-1.09124
-0.0515081
0.687415
1.0634
-0.558314
-0.626509
-0.860229
-1.26177
-1.22351
-0.722423
0.0187644
0.588657
0.901994
-0.539615
-0.579478
-0.808769
-1.1538
-1.13649
-0.663891
0.0173988
0.490457
0.75482
-0.513236
-0.511024
-0.72348
-0.962207
-0.900177
-0.543054
0.00499959
0.412511
0.621142
-0.605934
-0.705719
-0.938504
-1.45728
-1.84527
-1.65071
-0.81879
0.271338
1.03937
-0.60234
-0.684566
-0.820617
-1.13326
-1.37188
-1.16269
-0.567018
0.260322
0.879783
-0.58552
-0.649814
-0.777237
-1.05824
-1.26788
-1.12011
-0.507032
0.212602
0.736342
-0.541069
-0.595905
-0.711509
-0.930509
-1.06112
-0.857597
-0.430027
0.139467
0.598248
2.47164
2.63721
2.63301
-0.24814
-0.292819
2.42317
-0.510124
2.07671
2.40788
2.97197
-0.316843
2.08465
-0.240467
-0.135828
2.46486
1.27056
-0.0380026
-0.251042
1.27032
2.55565
0.908442
-0.591101
1.60821
-0.0671908
2.70894
-0.133464
-0.231671
-0.511585
-0.809922
-0.257435
-0.0382199
1.2231
-0.0597853
1.49038
1.18331
2.63578
-0.0607358
2.7109
-0.0597328
2.05749
-0.840123
1.50035
-0.192862
1.61897
-0.319
-1.06636
-0.325868
-0.543807
1.74263
2.04721
-0.2596
2.06886
-0.0172275
-0.207681
2.01515
0.9195
-0.581234
2.0223
-0.694189
-0.18113
0.170492
-0.0082521
-0.323551
-0.299351
-1.15005
2.54643
-0.150309
2.17734
2.63026
2.95638
-0.0833674
3.76049
-0.278543
4.66846
-0.144924
3.57834
-0.574259
1.53546
-0.373618
-0.50601
-0.0876388
-0.299892
2.53813
2.54721
0.143739
-0.277225
-0.351705
0.00424897
-0.395919
-0.00491284
2.62763
2.00859
-0.936715
3.48337
-0.549687
-0.433384
-0.195999
-0.104888
-0.367945
3.97115
0.45688
-0.524505
2.59799
0.558232
-0.324107
2.51691
-0.00768485
2.53463
-0.0242989
0.366744
1.64701
1.49332
3.39849
-0.261116
-0.283672
2.52611
1.99676
1.41285
2.15817
2.33663
-0.266835
4.50719
-0.219425
-0.0461859
-1.09433
-0.143303
-0.0608415
-0.00881612
-0.00574173
-0.0171789
1.80889
-0.189615
-0.54747
3.61059
2.56875
0.0183528
-0.549546
-0.296043
-0.21784
1.88933
-0.132974
0.745979
-0.378489
1.83449
1.96378
-0.289243
-0.209873
2.14931
3.33048
1.43162
1.61769
2.48908
-0.283582
4.45622
-0.254498
-0.207186
-0.305719
-0.428781
-0.0459504
2.65995
-0.105232
-0.337696
3.71329
2.65877
-0.127922
-0.0399613
-0.396989
0.655818
-0.11043
-1.11163
-0.0567711
-0.0179619
-0.10305
0.735664
1.28233
1.24413
-0.00503433
-0.290967
-0.356144
1.32439
2.09198
-0.602079
2.58346
-0.258445
2.3945
-0.267203
1.61267
1.37755
2.6515
-0.36663
-0.0249345
-0.189562
2.44291
-0.81135
2.62114
2.7501
2.53418
-0.369746
-0.0178417
2.52101
-0.308717
2.19745
-0.0389456
-0.0499414
2.57554
0.00884479
3.40171
-0.0024045
2.16882
2.46939
-0.0342986
1.3761
0.631528
1.3453
1.54261
-0.0827327
2.64865
-0.295278
1.72992
-0.256128
-0.0161296
-0.262476
-0.186297
-0.295792
-0.0394216
1.92726
-0.229203
-0.0382937
-0.0227808
-0.321573
-0.412974
2.42078
1.63152
4.4351
-0.279805
-0.210167
-0.0241037
2.58935
1.85387
1.8649
-0.270207
-0.221719
0.4945
-0.777417
2.68198
-0.365395
1.47282
-0.0740147
-0.379332
-0.0438343
-0.0694515
-0.0359718
0.914483
2.72106
0.149148
2.50454
1.00303
2.72142
-0.29274
1.58675
-0.00449314
-0.154204
2.44651
1.57911
1.63068
-0.302284
0.69686
2.08109
-0.0355134
0.0119243
-0.279074
1.73789
2.25861
-0.324513
2.8427
1.41258
-0.0564252
2.6712
1.95775
-0.332621
3.88842
2.22702
-0.0756639
0.00487653
0.189878
2.82058
-0.0233631
1.94397
1.7756
-0.109488
1.80115
-0.475292
0.40429
-0.171707
2.61308
2.15458
-0.112327
1.63491
1.28001
-0.0665119
2.28758
-0.286394
1.57347
-0.250798
1.03931
0.3279
1.56804
0.000854888
-0.583894
1.67335
-0.60344
2.50218
0.336146
-0.0398726
-0.671499
2.01038
-0.222733
-0.342865
2.21906
3.9633
1.54406
-0.0439137
1.38339
-0.115329
-0.327681
0.733473
1.48111
-0.203302
2.39994
-0.0484906
1.87136
-0.324001
-0.511368
2.40678
-0.23615
-0.34463
-0.305188
1.57963
2.64604
-0.091517
-0.322597
0.00507503
2.21821
-0.0509038
-0.277378
-0.0100535
-0.285133
1.43832
-0.095233
-0.0738393
-0.6227
-0.103578
0.0371188
1.07802
-0.0326345
2.52015
-0.0147613
1.67723
1.59244
-0.046913
0.0235533
-0.157325
2.64212
2.5335
3.11908
-0.397067
-0.0158229
-0.173806
-0.595267
-0.134334
2.69068
-0.256227
-0.370013
-0.0638425
-0.0984168
1.78392
0.184439
1.149
2.85828
1.44121
0.010277
2.7827
-0.291117
1.88836
-0.185749
-0.0192708
-0.272211
-0.0383699
-0.217176
-0.4205
2.48122
-0.553457
-0.0137748
3.89703
-0.0167155
-1.10292
1.54795
1.50828
2.21154
-0.334601
-0.297691
2.52403
2.39993
-0.0784522
-0.0049325
-0.846828
-0.405916
-0.0305943
2.16107
-0.041998
0.872182
1.25008
-0.0392598
-0.038125
-0.287078
0.290667
-0.0265399
4.93638
-0.0217118
-0.500116
-0.24774
-0.0238803
-0.527869
-0.0130453
1.19507
0.435083
4.52282
-0.0113389
-0.132456
-1.26738
1.45459
-0.329847
-0.185755
2.13059
-0.0676779
-0.0298439
-0.182696
-0.23246
-0.0477686
1.43594
0.25494
-0.265684
-0.237436
-0.276704
1.09118
-0.0692833
-0.0926632
-0.43848
2.75356
-0.356526
2.45897
2.54785
2.64711
-0.458765
-0.241131
-0.610476
-0.0587981
-0.368208
-0.0054192
2.62205
2.77662
-0.0722954
-0.0676396
0.128319
0.99234
-0.00886659
-0.00614168
2.51186
1.39574
1.90449
1.1966
-0.284687
1.34282
0.116312
1.01374
1.80772
1.7208
2.46282
-0.34916
1.60177
2.60042
0.939839
-0.29888
-0.586514
1.58567
-0.288034
-0.314811
1.89423
-0.04866
2.58882
-0.295718
2.76757
1.0655
1.90762
-0.00154674
-0.0471651
2.46676
-0.179722
0.558202
2.0859
-0.177094
-0.204255
2.36107
2.57356
-0.390109
0.00455197
-0.263781
1.80881
-0.557711
1.43124
-0.105698
-0.0457976
-0.429779
-0.0394356
0.463504
-0.0332805
-0.318093
-0.17483
1.4442
-0.0849859
2.17277
2.24333
2.74943
1.79014
0.860835
-0.0131387
2.07302
2.60118
-0.167459
2.30613
-1.0023
0.0150712
-0.00888983
-0.0829134
-0.407782
2.64281
2.70187
2.22713
-0.864128
-0.345585
1.46906
2.65152
-0.0437682
2.38766
-0.251121
2.38974
-0.0951226
1.93512
-0.482421
-0.0893874
-0.0233536
-0.933316
-0.0962027
1.04703
0.658935
3.22528
1.75013
-0.0331847
-0.421934
2.35576
-0.0389588
-0.0821398
-0.441832
2.70404
2.63141
2.49771
-0.10319
-0.00398045
-0.0127697
2.4308
1.82353
0.00929486
3.32606
-0.18841
-0.00764428
-0.040824
-0.30778
1.62218
-0.0160171
2.71865
-0.313163
2.87848
-0.152413
-0.00638218
1.3759
-0.691045
-0.0514362
2.07991
1.52929
-0.526847
2.65341
-0.105062
-0.249323
-0.344878
-0.131984
-0.302683
-0.233429
3.01423
2.11591
2.38534
-0.438725
-0.284103
-0.10278
2.51582
2.69295
-0.4099
1.55322
3.60404
0.880079
3.54027
-0.231983
-0.278243
-0.3479
-0.0171219
0.243348
0.930979
2.69509
-0.0929368
3.52261
2.28371
-0.392672
0.022468
1.36093
2.7302
-0.529388
2.54235
2.74352
0.372203
2.5002
0.676054
-0.257276
-0.170802
0.0872305
-0.0260691
-0.0256892
-0.432742
-0.0756313
-0.0854672
-0.123182
-0.158051
-0.401918
-0.303525
-0.0596366
1.4373
1.09664
-0.331286
0.286007
1.3166
0.262958
-0.18894
-0.171337
-0.392385
-0.0884964
-0.120221
1.49924
0.797908
2.67191
1.50151
2.33085
-0.239342
3.25948
1.72497
1.23357
1.73642
-0.238064
-0.0183847
-0.325482
3.52008
1.57062
1.69017
0.0193158
3.87519
-0.404536
3.53176
-0.150422
-0.0245397
1.57188
-0.00679768
2.61947
-0.0647236
-0.256465
-0.229436
-0.426662
-0.0960072
0.222929
2.53359
-0.00791275
-0.0726848
-0.469594
-0.0550743
1.41816
0.3285
2.54318
0.010964
1.28358
-0.256703
2.44626
2.17479
2.81163
-0.227403
-0.291046
2.66773
-0.00763426
2.76948
-0.0362706
-0.0483986
0.651689
-0.252813
-0.756044
-0.136142
0.126733
-0.170964
-0.232431
-0.089614
-0.042767
-0.526506
1.44268
-0.22422
1.78569
1.80116
-0.616049
-0.14195
-0.30724
-0.126031
3.26906
0.67038
2.29442
-0.322468
2.62766
0.00459561
-0.0796933
-0.0844637
0.526371
0.144467
-0.140262
-0.129485
4.18732
-0.242108
-0.281755
-0.328833
1.67436
-0.163497
-0.0778767
2.63832
-0.914065
-0.0248406
4.53914
-0.158631
1.83105
1.18476
2.27723
-0.0336187
3.92472
-0.0694338
2.52971
-0.0742022
3.52705
-0.176389
-0.0030989
0.0214058
-0.0180955
1.35514
-0.182462
-0.831922
2.59757
-0.0689178
0.204802
-0.0899832
0.854929
-0.426437
0.600421
-0.297589
-0.105048
0.875166
1.46268
0.0955947
1.49144
-0.267203
-0.452477
2.61865
2.1444
0.519333
-0.317517
-0.0325899
-0.23384
2.05188
-0.221977
0.22262
1.47427
2.65481
2.45933
1.77653
2.59278
-0.0137869
-0.539488
-0.256215
-0.0194556
-0.0937629
2.77006
1.89995
0.0858791
-0.0117587
2.5947
-0.00279909
-0.156842
-0.564125
-0.0375689
-0.222785
0.998277
-0.309098
2.7655
1.80826
-1.03476
2.34176
2.07604
0.20518
-0.011865
0.202159
0.260643
2.6405
-0.139727
-0.839491
-0.280264
2.03168
-0.0111054
-0.0591684
-0.292781
-0.300804
2.58173
1.44214
-0.244283
-0.27906
-0.101407
2.54498
1.25196
4.21129
2.89493
1.9989
-0.162544
-0.110897
-0.943211
-0.54884
-0.0721992
2.33951
-0.29546
2.61968
3.50991
-0.192339
1.88646
2.68115
2.07294
-0.344004
-0.0461621
-0.225514
2.69386
-0.298364
2.78449
2.50861
2.66775
2.75289
0.252118
1.58992
2.59274
2.9513
-0.349627
1.48699
2.63494
-0.127274
-0.406746
1.84484
2.63772
-0.293158
-0.34717
1.56291
0.0354127
-0.252114
-0.293161
1.746
2.67914
0.722925
1.76393
-0.00841477
1.92719
-0.164882
-0.183619
-0.0635997
-0.10631
1.63001
-0.168864
2.4088
1.58562
4.33437
1.77088
1.54714
-0.111424
-1.05184
0.0531067
-0.0890465
-0.0769902
-0.138101
0.264579
-0.440648
1.53074
1.64903
-0.0148698
-0.0178041
-0.179932
2.15407
-0.312444
3.34228
-0.249003
2.85389
-0.0181892
-0.0241664
-0.32976
-0.0662287
2.59058
2.68231
0.00285026
-0.526379
-0.0129673
-0.0674819
-0.250746
0.41711
1.11216
-0.0878038
2.77684
2.57441
-0.103325
-1.23659
-0.278047
-0.413142
-0.0100281
-0.156682
-0.0865656
-0.0960402
2.56871
0.401536
-0.0675187
2.6427
0.89481
2.54799
-0.0412905
-0.150887
-0.0296315
2.60979
-0.0740341
2.33904
2.0504
-0.0281718
-0.251835
1.55688
2.64891
2.96509
-0.112045
-0.101804
-0.488554
-0.0169691
2.67953
-0.875075
-0.296162
-0.479722
2.56179
-0.0382808
-0.0734337
2.32324
-0.0137688
1.70314
-0.268195
-0.082957
0.254555
-0.246383
1.94474
2.94713
-0.28102
-0.0377915
1.56964
-0.0400111
2.62403
-0.234416
-0.00634413
-0.487345
2.66323
-0.0218647
-0.253326
-0.246001
-0.0260662
-0.0257013
2.52781
-0.0051426
-0.308428
1.55127
0.595293
-0.145697
-0.294412
-0.00201799
-0.112821
2.13938
2.79437
-0.404267
1.10421
-0.983641
-0.146604
-0.00383252
-0.0249113
2.00856
-0.268262
-0.358864
-0.0302729
-0.0424974
-0.0673191
2.81732
-0.160407
-0.0271271
2.62055
2.14232
2.54702
-0.167743
0.567828
2.31115
-0.172059
-0.00532342
-0.0741459
1.65823
-0.604666
-0.233446
0.844956
-0.160274
1.46275
2.97089
1.82418
-0.539595
1.60247
-0.0615388
0.253809
-0.359656
1.58836
1.06946
2.54696
2.59092
-0.268493
-0.102398
-0.0759839
-0.31662
-1.27028
-0.129144
2.79094
0.143432
-0.288379
2.58556
-0.0645966
-0.0438409
1.48165
-0.0725909
-0.164795
-0.0591353
1.19351
-0.0335026
2.56971
0.0138754
1.6969
-0.400453
-0.114589
4.81956
-0.511136
-0.0476608
0.845444
-0.123802
-0.0621847
-0.337412
-0.0248473
1.03321
-0.391058
-0.0147815
-0.267882
-0.937392
-0.065906
2.47202
-0.166488
2.43001
-0.126779
-0.140916
-0.266716
0.924936
-0.290756
-0.320049
2.64882
2.13734
0.729743
1.68836
-0.159042
-0.117984
3.20225
-0.130949
-0.188236
1.71612
-0.279063
-0.505839
-0.0173139
-0.370846
-0.42578
-0.30181
-0.0177869
-0.0276419
2.64948
2.65948
-0.0514127
2.74521
2.58748
-0.1284
2.53056
2.77097
-0.0463113
4.36943
-0.384015
-0.0345259
-0.315953
2.74015
-0.141404
-0.153344
-0.165677
-0.79829
2.57551
-0.154168
-0.316664
-0.119785
-0.00407913
1.28553
-0.0283155
2.34807
-0.254991
-0.0517191
1.82579
2.75081
-0.295858
0.158867
-0.184695
-0.35099
-0.0716269
2.98261
2.5563
2.67708
0.0189491
-0.0182571
-0.0734208
-0.357533
-0.021503
3.29536
0.954416
2.39342
2.45926
-0.34285
2.62717
1.56582
-1.11846
-0.290613
-0.532915
-0.327469
1.67566
1.40037
-0.0286284
-0.28969
-0.00281455
-0.436869
-0.0894081
2.47459
1.74828
-0.177751
-0.0623797
-0.0187194
-0.195294
2.96394
-0.128836
-0.125032
-0.298156
1.06051
-0.13424
-0.378846
1.65874
-0.0941412
1.52291
2.68643
-0.297718
-0.0977634
-0.117323
0.969837
1.75233
0.0340191
-0.246257
-0.247241
-0.243864
-0.278531
-0.12118
2.01646
-0.52265
-0.267651
2.63721
-0.00638993
-0.164569
2.15786
-0.0206857
2.62242
2.75992
3.34385
-0.770873
-0.00267985
1.40013
-0.31233
2.61323
1.56644
2.51965
-0.0522153
1.4403
-0.043067
-0.258274
2.64844
-0.321284
-0.485712
-0.0515143
-0.339304
-0.0760696
-0.19854
-0.00682604
2.09373
1.59562
2.56505
-0.114226
2.52689
1.57198
-0.08844
-0.507359
-0.285154
-0.0891277
0.00234366
1.61911
-0.271046
-0.258226
1.43008
-0.00174208
1.34909
-0.0248164
2.23573
-0.0724587
0.911334
2.70265
2.28037
-0.327596
-0.0372514
1.98749
-0.0416969
1.40417
-0.038823
-0.0812698
-0.280191
-0.252081
2.67063
2.45215
-0.0858178
-0.49709
-0.0346246
-0.0106313
-0.309047
-0.0618941
2.64427
-0.477998
-0.0189338
2.4413
-0.303145
-0.297193
-0.105437
-0.324022
-0.26329
-0.00320968
-0.354654
-0.50997
1.43663
2.06807
-0.0871754
-0.0960342
0.183498
1.53958
-0.0945607
2.60921
4.20405
-0.669945
2.55787
2.03938
-0.47025
-0.273364
2.25699
2.50697
2.36209
0.897228
1.69085
3.39039
-0.165874
0.407696
1.38108
2.47287
-0.297127
1.75776
-0.124795
2.71288
1.23697
2.0628
-0.152454
-0.411147
-0.0418064
2.64594
1.57785
-0.162785
-0.0251106
2.61064
-0.104244
-0.0829582
2.69894
-0.0444932
-0.114071
-0.353623
-0.131397
-0.204392
2.01736
-0.244387
2.42988
0.956993
4.11126
0.964728
2.66953
-0.0558362
3.67461
-0.300303
2.64135
2.66482
-0.318804
1.621
2.64203
-0.257978
-0.0105307
-0.266879
2.81447
1.0059
2.44965
-0.107472
-0.0230969
-0.215164
1.203
-0.21086
-0.271223
1.66772
1.38552
1.59748
0.846447
-0.340851
4.11744
-0.203129
4.23752
-0.724838
-0.066629
-0.159411
-0.246764
1.78763
0.207452
2.60312
0.0941973
-0.386532
2.67032
2.65231
-0.199601
0.662596
1.15294
2.83861
-0.206387
2.71388
-0.27393
-0.36558
-0.100902
-0.0517195
1.40992
-0.135332
1.8179
-0.422331
-0.243893
0.018584
-0.0378699
2.50599
1.60903
2.54396
1.33047
0.346792
0.78304
3.38853
-0.0245174
-0.219732
1.74097
0.87196
-0.49349
0.363577
2.55632
0.175058
2.99324
3.40256
-0.0618811
2.73997
-0.175944
-0.118147
1.02894
2.60479
-0.176558
-0.275447
2.64126
-0.0214126
2.78983
3.95773
-0.137085
1.05275
-0.175825
2.62236
3.39202
-0.878418
0.184768
1.58093
-0.08385
0.999253
1.80621
1.47762
1.61972
1.07284
0.139028
-0.282544
-0.138452
-0.346916
1.77543
2.33304
-0.274948
-0.00513738
1.1016
0.601706
-0.0251669
3.09672
-0.0766853
2.03998
-0.0807602
2.49825
2.68282
-0.0294804
-0.239089
-0.0601348
2.69004
2.68763
2.45292
2.48313
1.94165
-0.335829
-0.281104
-0.249386
-0.231561
-0.200632
0.610406
1.74913
1.8021
-0.369566
2.53609
-0.0934455
-0.437181
0.745289
-0.0538532
-0.205152
1.15441
2.53605
0.0239332
-0.153477
-0.0861351
1.04418
-0.0755042
-0.0307237
-0.302672
-0.0133901
-0.116331
1.65104
-0.0632688
-0.111246
-0.508551
-0.156919
-0.246564
-0.0129356
2.65007
2.75944
-0.229654
2.69729
-0.107902
-0.0501278
-0.0362097
-0.183969
-0.0482728
-0.189829
-0.155729
-0.0039967
2.44541
-0.0284953
-0.138393
0.0277049
-0.0269127
-0.283678
2.62198
-0.323047
2.46367
-0.0166306
-0.420601
-0.133216
-0.384874
-0.308802
-0.0287646
2.70843
4.12269
1.64812
2.88762
2.78809
1.0192
1.68581
-0.314887
3.31611
-0.00688399
-0.269538
1.36092
2.55876
-0.13175
-0.219985
2.56619
0.529031
1.59477
4.85325
-0.00121522
-0.298784
2.64615
1.29995
1.22493
1.46191
4.40052
2.61789
0.13985
-0.270986
2.38321
0.249108
2.58372
1.3881
1.65674
2.6614
-0.194758
2.49453
1.94646
1.05379
2.50607
-0.0186064
1.85934
-0.0123136
-0.273362
-0.635036
-0.173207
-0.115785
-0.0773529
-0.0236802
-0.159795
-0.0439113
-0.0300915
1.47995
-0.262147
0.756347
2.2376
2.69332