/*--------------------------------*- C++ -*----------------------------------*\
| =========                 |                                                 |
| \\      /  F ield         | OpenFOAM: The Open Source CFD Toolbox           |
|  \\    /   O peration     | Version:  3.0.1                                 |
|   \\  /    A nd           | Web:      www.OpenFOAM.org                      |
|    \\/     M anipulation  |                                                 |
\*---------------------------------------------------------------------------*/
FoamFile
{
    version     2.0;
    format      ascii;
    class       volScalarField;
    location    "0.934625";
    object      epsilon;
}
// * * * * * * * * * * * * * * * * * * * * * * * * * * * * * * * * * * * * * //

dimensions      [0 2 -3 0 0 0 0];

internalField   nonuniform List<scalar> 
21246
(
599.444
285.707
54.8278
13.5006
3.20294
0.934809
0.42584
0.294511
0.256437
0.249857
0.259001
806.223
464.24
117.58
23.5351
5.12334
1.33945
0.515928
0.321374
0.271715
0.265935
0.280454
840.26
458.203
153.561
39.493
7.96724
1.86019
0.643329
0.358156
0.289177
0.281922
0.302586
741.493
409.5
162.388
48.1694
11.0017
2.38588
0.786399
0.401199
0.307762
0.295845
0.318382
604.227
368.153
160.617
52.4814
13.4243
3.00257
0.928989
0.446955
0.326964
0.307847
0.328328
476.127
335.171
157.283
56.2626
15.9621
3.83539
1.10227
0.493449
0.345927
0.318416
0.335626
365.877
308.207
154.215
60.2454
18.872
4.91763
1.37513
0.556428
0.364258
0.327703
0.342429
275.56
285.431
151.237
63.9422
21.9601
6.24585
1.75883
0.650186
0.388832
0.336083
0.347722
207.129
265.168
149.383
67.7174
25.2886
7.87349
2.2976
0.79271
0.424472
0.346166
0.351666
156.819
246.813
149.278
72.2507
29.1887
9.95784
3.07791
1.02091
0.482511
0.360469
0.355528
119.351
230.826
150.425
77.3429
33.5612
12.5011
4.15632
1.37788
0.581056
0.384376
0.360327
92.7263
217.982
152.5
82.5587
38.0688
15.3536
5.52938
1.89913
0.743859
0.427392
0.36892
76.0759
207.027
155.707
88.3227
42.8961
18.5588
7.24054
2.63764
1.00689
0.506042
0.387071
67.339
196.209
159.844
95.1869
48.4178
22.2677
9.37155
3.6664
1.42428
0.649166
0.426465
66.4996
188.269
164.843
103.008
54.5454
26.411
11.9039
5.02151
2.04928
0.896893
0.508608
73.4876
181.295
170.045
112.297
61.8093
31.2518
14.9488
6.78267
2.95728
1.30857
0.670245
84.0039
170.934
173.124
123.326
71.0915
37.3786
18.8042
9.11256
4.26526
1.97576
0.974152
93.122
155.953
170.595
134.682
82.8635
45.4546
23.9056
12.2719
6.15058
3.03291
1.52094
100.153
137.841
159.483
142.457
96.6353
56.3496
31.1018
16.8323
8.97966
4.7302
2.49082
105.603
119.436
140.271
141.117
109.38
70.3978
41.6768
23.9295
13.5518
7.60586
4.25149
111.797
102.716
116.737
128.534
116.306
86.4725
57.1097
35.5855
21.566
12.897
7.66661
142.617
92.9085
98.2627
113.264
115.97
100.656
76.4817
53.2988
35.3273
22.8455
14.5466
167.538
92.4535
91.3767
94.7058
96.2483
92.0499
81.0165
65.3457
49.204
35.5887
24.7709
369.107
376.478
299.308
262.231
225.106
184.693
143.569
105.191
74.9797
53.0422
36.9909
507.003
148.53
40.3428
9.02103
2.28467
0.77079
0.39136
0.281056
0.244537
0.234287
0.23636
459.789
117.147
30.9894
9.24631
2.61275
0.889941
0.424482
0.287613
0.241628
0.226612
0.225285
466.953
135.482
31.2553
11.0286
3.59863
1.2485
0.527348
0.313946
0.245445
0.221665
0.21558
427.433
128.771
29.1153
11.3674
4.09027
1.53663
0.653039
0.357939
0.259027
0.223649
0.212508
379.117
108.587
26.562
10.9449
4.01548
1.55811
0.677983
0.375646
0.268067
0.228316
0.215055
337.778
89.6729
23.9401
10.0598
3.75714
1.52187
0.680593
0.380674
0.272201
0.231323
0.218332
304.492
75.1392
21.6019
9.14088
3.45476
1.44789
0.66484
0.380172
0.274154
0.233307
0.220545
276.808
64.1977
19.5668
8.31383
3.17864
1.37165
0.64411
0.377284
0.275724
0.235941
0.223728
255.941
55.9924
17.9379
7.63557
2.96623
1.3075
0.626577
0.374706
0.276923
0.238018
0.22582
241.095
50.0887
16.6459
7.11033
2.8257
1.26177
0.615407
0.37401
0.278966
0.240781
0.228777
231.516
45.9756
15.7329
6.76422
2.74993
1.23974
0.612755
0.376223
0.28233
0.244698
0.233373
225.586
42.9963
15.0627
6.55534
2.72759
1.24083
0.619208
0.381884
0.287188
0.249575
0.238752
223.605
40.9782
14.6371
6.47743
2.76199
1.2683
0.636608
0.391946
0.293826
0.25517
0.244909
224.13
41.1695
14.6811
6.59323
2.8873
1.33747
0.671712
0.408805
0.303121
0.261738
0.251479
226.814
42.574
15.1827
6.91062
3.13974
1.47831
0.74561
0.444293
0.321039
0.272251
0.259665
232.174
45.3924
16.2621
7.48678
3.54674
1.71574
0.87542
0.509385
0.353812
0.290144
0.271244
240.805
49.8936
18.1326
8.43708
4.16884
2.09425
1.09292
0.625817
0.414858
0.32314
0.290456
254.076
56.2391
21.0038
9.92476
5.10643
2.68627
1.45298
0.833869
0.531637
0.388885
0.328216
274.214
64.9804
25.2537
12.2282
6.5462
3.62409
2.0563
1.21045
0.761081
0.527658
0.412588
305.022
77.3734
31.5732
15.8383
8.83889
5.16187
3.09766
1.90882
1.22336
0.831997
0.61401
354.261
95.8973
41.257
21.6408
12.6464
7.80313
4.97289
3.24839
2.17992
1.51614
1.10812
440.203
125.768
56.9973
31.4119
19.2862
12.5777
8.51265
5.91613
4.21038
3.07528
2.31944
611.863
187.594
88.893
50.9706
32.5935
22.2528
15.8452
11.6387
8.78029
6.79867
5.41299
1118.07
322.809
168.718
107.988
76.818
57.8947
44.8811
36.1775
30.042
25.5404
21.9021
104.173
92.2638
58.0117
42.1757
25.195
11.676
4.75416
1.84186
0.723682
0.307029
0.150538
104.246
74.6877
49.7121
36.1391
22.6095
10.7613
3.89384
1.38395
0.512024
0.208019
0.0976374
77.742
52.5852
37.8574
28.0099
18.0688
8.97805
3.33715
1.09993
0.389902
0.152761
0.0682425
54.6478
35.6491
27.0175
20.1922
13.2648
6.81965
2.66939
0.896832
0.313142
0.121257
0.0528384
41.8797
24.3183
18.9632
14.1462
9.36721
4.95642
2.0615
0.742323
0.266441
0.104124
0.0450153
33.7965
17.4284
13.5912
10.0743
6.71236
3.66475
1.63439
0.640445
0.24382
0.0968108
0.0416949
27.9969
13.3985
10.3043
7.56283
5.10322
2.89889
1.39115
0.591383
0.238369
0.0967103
0.0413334
24.0135
11.0103
8.34847
6.13447
4.21952
2.50634
1.2859
0.58407
0.245863
0.101179
0.0429151
21.1575
9.57256
7.22808
5.37785
3.78823
2.34738
1.27105
0.605695
0.262392
0.108789
0.045913
19.1019
8.70821
6.60539
5.00344
3.60843
2.32145
1.30971
0.645564
0.284956
0.118588
0.049928
17.5417
8.18945
6.2517
4.81477
3.54941
2.35526
1.37142
0.693373
0.310488
0.129672
0.0544958
16.333
7.81526
6.012
4.69733
3.53015
2.40217
1.43481
0.741072
0.336457
0.141401
0.0596961
15.4667
7.55156
5.83609
4.61236
3.52314
2.44846
1.49522
0.787884
0.363066
0.153978
0.0655589
14.8231
7.39688
5.71827
4.55476
3.52639
2.49693
1.55709
0.837399
0.392367
0.168215
0.0720887
14.3818
7.29245
5.63293
4.51253
3.53487
2.54688
1.622
0.891768
0.426074
0.185113
0.0799926
14.1464
7.24954
5.58552
4.49354
3.5587
2.60978
1.7006
0.959032
0.469014
0.206971
0.0899358
14.0483
7.29169
5.59739
4.51544
3.6155
2.70405
1.81003
1.05257
0.529521
0.237847
0.103594
14.1306
7.40931
5.67292
4.58871
3.72077
2.84849
1.96993
1.18933
0.619239
0.284038
0.123797
14.395
7.62049
5.83666
4.74259
3.90945
3.08119
2.21661
1.39925
0.75885
0.357221
0.15525
14.8461
7.94941
6.14139
5.04609
4.26233
3.48292
2.61976
1.73562
0.984721
0.478914
0.208863
15.4238
8.38778
6.72191
5.69183
4.99332
4.24653
3.32542
2.2975
1.36096
0.688322
0.3062
16.4134
9.56254
8.26053
7.54045
6.95423
6.00921
4.72788
3.30403
2.00906
1.05803
0.48989
17.1306
20.0527
24.531
23.1065
18.7472
12.9806
8.4393
5.41786
3.2174
1.73341
0.848127
261.496
155.692
103.24
73.4726
54.2127
38.5876
23.6507
12.5076
6.3395
3.20189
1.60546
120.347
71.5153
56.3068
43.9815
28.7787
15.2031
6.8359
2.8446
1.16236
0.50172
0.24629
95.2076
40.9251
40.802
42.524
36.6811
23.9111
12.0183
5.28219
2.17695
0.919673
0.458755
87.5124
33.2745
30.4274
35.864
39.2644
33.5208
20.202
9.83755
4.24674
1.76069
0.848593
89.4701
35.1157
27.7938
30.262
35.324
36.9317
29.0623
17.7385
8.62455
3.66132
1.60728
89.7122
36.1528
27.01
27.2739
31.366
36.2057
35.0776
25.0257
14.3799
6.68356
2.89757
90.0555
36.4879
26.4826
25.2461
27.7735
33.0514
36.8807
31.5785
20.4285
11.0466
4.9704
90.6448
36.4473
26.0695
23.699
24.6213
28.8731
34.8048
35.2069
26.2901
15.6084
8.04607
91.3495
36.5006
25.9391
22.6138
22.0978
24.8095
30.7884
35.343
30.424
20.009
11.0942
92.8305
36.739
26.1374
21.9601
20.2617
21.4746
26.3761
32.8023
32.2638
23.4238
14.0738
95.2172
37.285
26.7097
21.6831
19.0495
19.0556
22.5996
29.4764
32.4197
25.6052
16.4099
98.8111
38.4824
27.694
21.7423
18.3763
17.5266
19.8621
26.1467
31.2873
26.5749
17.8071
103.799
40.4829
29.0053
22.2023
18.1817
16.7593
18.2466
23.2571
29.918
26.9315
18.5721
110.895
43.2742
30.7532
23.0493
18.3595
16.5379
17.4773
21.0271
27.1906
27.8381
18.6523
119.624
46.815
33.0514
24.2529
18.718
16.3586
16.759
19.2698
23.3238
26.5213
18.7895
130.313
51.4908
36.1534
25.9724
19.3037
16.1501
15.8263
17.3348
19.8649
22.0509
19.5276
144.289
57.6919
40.379
28.4554
20.2829
16.0645
14.9259
15.6069
17.2239
18.9425
18.971
162.948
66.022
46.2996
32.2208
22.0541
16.39
14.2983
14.2679
15.2582
16.5293
17.1854
188.698
77.4115
55.0515
38.5234
25.7228
17.8597
14.2298
13.1307
13.238
13.9244
14.4656
224.849
93.2905
69.1781
50.5592
34.7438
23.7994
17.7501
14.9228
13.914
13.7496
13.8271
251.485
108.945
86.1068
67.309
48.7015
34.3027
25.7558
21.7736
20.5225
20.6716
21.1475
254.821
112.066
90.6019
73.8539
56.484
41.38
31.1014
25.4913
23.0041
21.5032
18.4768
276.272
115.591
92.5018
75.6418
59.3769
44.9486
34.2915
27.4314
22.9161
17.5032
10.9336
342.211
134.129
94.1392
73.2412
56.9901
44.0333
34.5956
27.5617
20.2349
12.6152
7.39762
698.119
151.34
95.772
65.7306
50.9814
40.5134
31.6208
22.0523
13.2119
7.42028
3.97603
1926.78
612.968
185.26
45.6224
11.0882
2.81253
0.744861
0.21003
0.0682706
0.0289048
0.0168299
1097.09
317.138
128.973
42.8949
12.1778
3.39628
0.936158
0.258413
0.0781246
0.0301052
0.016487
902.069
267.854
101.759
41.1712
14.5155
4.57589
1.32687
0.362137
0.100435
0.0343248
0.0172793
762.892
231.242
86.6932
37.7476
14.1871
4.73863
1.42249
0.399731
0.113459
0.038315
0.0186896
654.739
193.064
73.2393
32.8381
12.5399
4.36848
1.38048
0.410178
0.122019
0.041877
0.0200052
575.874
160.849
62.1799
28.1036
10.7803
3.85011
1.26553
0.395822
0.124066
0.0439882
0.0211599
514.882
136.953
53.5565
24.0009
9.23998
3.34179
1.1274
0.367533
0.121072
0.0447463
0.0218394
465.174
118.408
46.5741
20.6607
7.9671
2.89529
0.993187
0.334077
0.114791
0.0441591
0.0224562
427.085
104.127
40.9833
18.0307
6.95538
2.53051
0.876676
0.30177
0.107555
0.0432006
0.0228696
400.126
93.5352
36.7135
16.0521
6.18945
2.24905
0.78302
0.274047
0.100712
0.042106
0.0229458
379.494
85.4702
33.3898
14.5488
5.61151
2.03528
0.709926
0.251376
0.0946987
0.0409284
0.0229642
362.588
78.8914
30.6384
13.3463
5.15995
1.87068
0.653304
0.233382
0.0897417
0.0399033
0.0229214
351.439
73.7408
28.4482
12.423
4.82517
1.75162
0.612297
0.220176
0.0860754
0.0391693
0.022946
346.651
70.3317
26.8755
11.7936
4.61218
1.67912
0.587301
0.212043
0.0838949
0.0388156
0.0230774
345.289
68.6517
25.781
11.3713
4.49312
1.64626
0.576988
0.208926
0.0833464
0.0389739
0.0234337
348.169
68.6371
25.371
11.2737
4.54597
1.69295
0.597929
0.21649
0.086247
0.0402371
0.0242092
355.436
71.726
26.05
11.6125
4.8334
1.85859
0.672101
0.244684
0.0964978
0.0441295
0.0258078
369.477
76.8387
27.7638
12.4258
5.38132
2.17165
0.820692
0.305322
0.119406
0.0527372
0.029117
392.578
84.8787
30.9185
13.9419
6.31071
2.70816
1.09245
0.426118
0.168501
0.0719056
0.0364557
429.234
97.2209
36.223
16.5845
7.86927
3.62367
1.58858
0.669014
0.277561
0.118055
0.0551619
488.501
116.266
44.8385
21.0916
10.533
5.23537
2.52462
1.17603
0.533323
0.239442
0.109951
590.266
145.559
58.5691
28.7123
15.2051
8.19624
4.37358
2.28374
1.16393
0.580816
0.28633
778.723
193.846
81.6061
42.1065
23.8032
13.9405
8.22328
4.8134
2.77502
1.57146
0.874352
1244.22
199.964
103.718
62.3547
39.6222
25.7231
16.7857
10.909
7.02549
4.46935
2.80456
2424.35
1434.48
269.626
79.9494
20.0747
4.70197
1.1148
0.283103
0.0837112
0.0329884
0.0184898
3216.54
2070.78
624.858
166.837
37.5681
8.97389
2.11004
0.495679
0.129703
0.0445236
0.022356
2943.34
1882.8
727.015
230.301
54.9141
13.9848
3.55138
0.849357
0.209834
0.0642762
0.0294844
2233.28
1561.05
689.37
238.169
62.1052
17.9693
5.06403
1.2986
0.323136
0.093887
0.0413693
1593.22
1321.8
616.274
217.692
62.567
20.285
6.3022
1.75958
0.457764
0.131485
0.0555851
1143.26
1156.42
547.729
193.667
60.5034
21.2231
7.14397
2.15872
0.594027
0.173139
0.073097
845.397
1036.65
491.119
174.423
57.6215
21.3367
7.64712
2.46699
0.716247
0.214647
0.0930658
648.421
944.514
443.396
158.707
54.5676
21.0181
7.91592
2.69023
0.817826
0.252365
0.111486
520.293
868.259
404.229
146.411
52.1438
20.5725
8.06209
2.85539
0.899696
0.285052
0.130783
435.403
801.111
372.319
137.055
50.4054
20.4021
8.27214
3.03716
0.983756
0.314045
0.150352
377.03
737.964
348.669
131.322
49.7897
20.6097
8.61882
3.2887
1.10718
0.360597
0.174876
334.306
682.758
329.265
127.447
49.9269
21.1622
9.11984
3.62734
1.2822
0.431852
0.204476
303.204
633.81
313.484
125.487
50.9394
22.163
9.84502
4.09259
1.53059
0.540196
0.246487
279.567
586.518
301.641
125.964
53.1479
23.8052
10.9088
4.74971
1.88909
0.706463
0.312268
261.411
542.173
291.963
127.969
56.3685
26.1338
12.4004
5.6708
2.4087
0.963082
0.421587
247.612
499.655
284.232
131.648
60.824
29.37
14.504
6.98961
3.18107
1.37093
0.610041
236.841
457.996
278.143
137.235
66.8536
33.818
17.4937
8.92284
4.36377
2.03881
0.949336
228.562
417.874
272.965
144.606
74.7255
39.8612
21.7518
11.803
6.22147
3.16503
1.57758
222.248
379.342
267.733
153.532
84.803
48.0523
27.8578
16.164
9.20744
5.11344
2.77332
218.291
344.47
261.502
163.649
97.6949
59.3705
36.8198
22.9219
14.1157
8.55
5.07778
210.088
300.045
250.485
173.418
113.998
75.4311
50.4181
33.6807
22.3166
14.6358
9.46071
245.037
326.995
246.916
181.025
129.709
92.7221
66.1509
46.9478
33.105
23.2501
16.3101
333.426
238.083
204.327
161.59
127.214
98.6861
75.0118
55.6917
40.3652
28.584
19.641
1534.02
779.178
432.537
261.482
165.622
107.092
69.6971
45.3143
29.29
18.7556
11.8542
37.5118
32.8059
22.8777
9.06448
2.35303
3.02591
3.8586
6.2546
20.4783
12.4526
13.2921
12.2568
8.48138
4.33563
2.11717
2.58814
9.39991
13.1589
6.16575
8.00568
8.82453
7.12724
4.09973
2.26719
2.97572
8.90105
10.4212
3.2337
4.63867
5.9516
5.66102
3.82442
2.41618
3.44732
7.84193
7.48653
38.7781
38.5954
37.5528
36.6287
37.6829
37.6545
36.7674
34.2094
29.3564
11.0927
11.1176
11.2714
11.9952
12.5779
12.4691
12.5608
12.8927
13.5006
5.05497
5.29073
5.73024
6.15029
6.30812
6.13325
6.03542
6.66786
8.58061
2.53111
2.55822
2.80327
3.05822
3.12015
3.02397
3.06562
3.61953
5.09178
0.0090103
0.0082931
0.00834616
0.0054446
0.457299
0.00756441
0.13093
0.00808191
0.00753246
0.00689782
0.45795
0.00811693
0.0103798
0.00518159
0.0146022
0.00728282
0.00618779
0.00535128
0.00724583
0.00710861
0.00664992
0.0591739
0.0085189
0.121724
0.00792722
0.00512112
0.0100241
0.12336
1.81759
0.383321
0.00737749
0.00641983
0.00694383
0.00806639
0.00677417
0.00826279
0.11131
0.0079098
0.00780574
0.00759809
0.216938
0.00809724
0.0377808
0.00849337
0.765859
0.365401
0.018657
0.477323
0.00691585
0.00729605
0.387875
0.00761957
0.0284149
0.0384777
0.00728857
0.00667779
0.057236
0.00764276
1.8301
0.0142814
0.106784
0.0208173
0.513223
0.0349241
0.249048
0.00714507
0.370813
0.00713016
0.00829525
0.00688316
0.00515153
0.00704151
0.014284
0.00739172
0.0121972
0.00704054
0.082025
0.00827624
0.0560807
1.05292
0.280186
0.0262633
0.00793596
0.00837995
0.00696233
0.0143002
3.57438
0.0218618
0.0194788
0.109275
0.00809277
0.00768133
0.206182
0.0071266
1.02918
0.594925
0.00641221
0.00609147
0.0246099
0.00716979
0.00780513
0.40804
0.00676403
0.00616713
0.0147721
0.00811513
0.00460827
0.00845238
0.015803
0.00668373
0.0079729
0.00814793
0.00713781
0.00651204
0.0207322
0.00769178
0.00754345
0.00731011
0.00793384
0.00672131
0.00696303
0.00736143
0.00718632
0.0050712
0.325854
0.00804715
0.359195
0.00472318
0.00665487
0.00968822
0.00780308
0.0143339
0.450509
0.00703298
0.00833783
0.00812267
0.0667747
0.0157638
0.404422
0.00732724
0.0393559
0.00662624
0.213977
0.00868291
0.00750848
0.0253136
0.0170058
0.00713816
0.00704303
0.00708078
0.00715465
0.00768104
0.0278985
0.00724893
0.00610264
0.0200653
0.0187018
0.0427015
0.0054367
0.00746143
0.00549151
0.0332392
0.00703764
0.00771662
0.378481
0.0264619
0.0203081
0.00787255
0.00637978
0.225049
0.00581001
0.00540662
0.00671426
0.00646311
0.00641106
0.00641595
0.00582572
0.0292375
0.790667
0.00695631
0.00714904
0.06525
0.00849795
0.118462
0.00794152
0.0124914
0.00709825
0.00726117
0.00824984
0.0803305
0.0147073
0.00530362
0.00718634
0.184292
0.00832286
0.00759119
0.00740469
0.0254435
0.0104441
0.00856733
0.0267755
0.00726534
0.0136383
0.00795665
0.00838449
0.0219219
0.00712533
0.00661847
0.00736478
0.00740423
0.129345
0.0075942
0.00827122
0.00670619
0.00791924
0.0110269
0.00797792
0.0249161
0.00713695
0.0113002
0.0101728
0.00654666
0.00663614
0.0208626
0.00485816
0.00765974
0.0781018
0.0245676
0.0129271
0.151297
0.0416576
0.00713558
0.00713518
0.00738501
0.0280717
1.02071
0.333058
0.00845036
0.00813735
0.00809712
0.0249906
0.0336116
0.00613653
0.125133
0.00722806
0.0398767
0.00800602
0.00831696
0.51961
0.361693
0.00825803
0.131355
0.00982258
0.00726592
0.00602677
0.00744703
0.00675085
0.00785947
0.0197377
0.00708384
0.00840616
0.0101135
0.00737842
0.00819377
0.00796715
0.0168404
0.00662427
0.00730125
0.0176534
0.00694603
0.223671
0.00727631
0.00724311
0.01758
0.00755443
0.00735329
0.00539601
0.00775943
0.00692746
0.0182774
0.00708177
0.00827323
0.282638
0.310068
0.00603807
0.00757637
1.62985
0.00823482
0.00683002
0.0382564
0.00833825
0.11639
0.00798862
0.00945905
0.00856457
0.00739661
0.00640901
0.00815918
0.00678024
0.00539815
0.00777991
0.00905254
0.00706606
0.390982
0.00678809
0.00665865
0.00827765
0.0822526
0.0622581
0.00742235
0.086749
0.00815991
0.00645193
0.00672537
0.0853687
0.00655662
0.00712323
0.0144957
0.00670662
0.00716407
0.00709405
0.213026
0.00746052
0.00538158
0.0239592
0.00706297
0.00779015
0.00596343
0.00709077
0.132105
0.00717852
0.523032
0.0760604
0.0084644
0.011526
0.730376
0.0156074
0.00823581
0.00784732
0.00592896
0.0312333
0.125008
0.00723374
0.0268911
0.201248
0.0833735
0.0206441
0.00753594
0.0934413
0.391994
0.110537
0.00595244
0.00700795
0.00684832
0.0131946
0.00860266
0.0107487
0.00695737
0.00849785
0.181117
0.00986702
0.00536528
0.00800417
0.00799068
0.00725906
0.0191719
0.00509497
0.0157338
0.1365
0.00745533
0.0077367
0.112258
0.64916
0.00477636
0.0119958
0.0083085
0.00905317
0.00673626
0.00750987
0.00709831
0.241211
0.00754001
0.0249499
0.00768247
0.0052663
0.328653
0.00842732
0.00482116
0.0321756
0.0231176
0.00771426
0.0531828
0.00467646
0.00790377
0.34542
0.271866
0.0078796
0.00719502
0.00835455
0.0349838
0.0194473
0.00764661
0.00850759
0.0390785
0.00748941
0.400359
0.0543183
0.033697
0.00726229
0.21161
0.00741537
0.00719817
0.0111729
0.0106357
0.0305732
0.00639426
0.0148815
0.00769399
0.00486917
0.0426431
0.279147
0.00619287
0.151038
0.0141136
0.00628168
0.00666159
0.00729073
0.028134
0.012379
0.299948
0.00790097
0.0247212
0.00508794
0.00662569
0.00910076
0.013638
0.195051
0.409952
0.00512264
0.0086
0.00596891
3.30971
0.00511714
0.00870579
0.00697745
0.0231548
0.0136123
0.0417339
0.00740319
0.0354523
0.00775493
0.00833506
0.00793758
0.0321494
0.020236
0.146922
0.00577787
0.0285085
0.0266568
0.00825627
0.0073888
0.376792
0.00506969
0.00599713
0.00732467
0.145039
0.11597
0.0902243
0.0916646
0.00717202
0.0065737
0.0169468
0.00701754
0.0990401
0.00711767
0.00822562
0.0073105
0.0347628
0.033755
0.00711356
0.00778545
0.0067007
0.0954393
0.0693714
0.00845097
0.024473
0.23906
0.00941603
0.0154014
0.00740058
0.0272922
0.00758213
0.00709632
0.00764093
0.00839162
0.00640906
0.00715315
0.00535743
0.00853082
0.00727478
0.00566442
0.00593132
0.00806052
0.00806753
0.512761
0.0186154
0.0130298
0.00719084
0.324384
0.00835628
0.276196
0.016257
0.0248772
0.0219782
0.00796545
0.332931
0.0318249
0.0053284
0.00779067
0.00634821
0.00666982
0.00826739
0.00768466
0.00817891
0.00692449
0.234116
0.00799106
0.00744504
0.0875549
0.00775465
0.194554
0.00684615
0.0645149
0.00559953
0.0193452
0.00856293
0.00786207
0.00840762
0.155615
0.0348269
0.00795357
0.00791813
0.00505077
0.00834038
0.00560083
0.00830354
0.185608
0.00682925
0.0470064
0.0083644
0.00764169
0.393247
0.288202
0.00682166
0.00660696
0.00701648
0.00829868
0.0135754
0.0394797
0.00721263
0.00894074
0.302116
0.533253
0.00792109
0.00727758
0.00827458
0.0137292
0.346003
0.0191162
0.00807693
0.00751542
0.310014
0.00714628
0.00860146
0.00721425
0.0424142
0.361384
0.0077267
0.0206781
0.00781597
0.03297
0.00735078
0.0115099
0.00608471
0.00642529
0.0888191
0.0365656
0.00841433
0.00854645
1.02644
0.00762936
0.00615895
0.00939524
0.0331589
0.0114008
0.0307568
0.00760952
0.00685887
0.00775925
0.0079081
0.583496
0.0158156
0.0121127
0.00711422
0.00795183
0.0439601
0.00706832
0.00716377
0.00717542
0.00700258
0.00832955
0.0153713
0.0326757
0.0181316
0.00622313
0.0102651
0.00724434
0.0589434
0.00699778
0.00780478
0.565208
0.18172
0.00755394
0.00755996
0.0638008
0.00672703
0.00737125
0.0194601
0.00830925
0.00687341
0.010215
0.00905826
0.00828693
0.0048888
0.00572158
0.0395472
0.143169
0.0279766
0.0322872
0.00626196
0.0207906
0.0266539
0.00849226
0.00836291
0.00684449
0.0248086
0.00607607
0.00699974
0.00724321
0.00511179
0.0390667
0.465724
0.00608561
0.00717471
0.00769937
0.0121304
0.00812284
0.00722575
0.00694636
0.0132702
0.006961
0.00723175
0.00694527
0.00825006
0.0121189
0.0558813
0.146899
0.00699706
0.0070587
0.00755041
0.0424468
0.00713783
0.129121
0.00710745
0.0176053
0.190883
0.00772068
0.0159739
0.0084953
0.00677519
0.0177344
0.0084343
0.500325
0.00556124
0.00666439
0.00841667
0.0124643
0.00509582
0.03323
0.362509
0.00750671
0.00641274
0.0084031
0.00784586
0.00696843
0.021569
0.00812459
0.00764082
0.00760573
0.0101405
0.0280934
0.00816395
0.00767198
0.00750616
0.0232524
0.00546722
0.0064937
0.0114611
0.101895
0.00928316
0.00637239
0.0064171
0.00844799
0.039573
0.00635964
0.139031
0.0078427
0.00681215
0.00792
0.0071774
0.0812161
0.0143844
0.0284404
0.00516642
0.00716086
0.00686035
0.00669444
0.0274787
0.00823799
0.309769
0.0365396
0.178953
0.00667158
0.0102599
0.0273034
0.0112807
0.00739028
0.00886055
0.0342027
0.0123024
0.00803142
0.0053916
0.276701
0.00811456
0.171397
0.00927826
0.00732961
0.016545
0.00754885
0.00707999
0.00682646
0.0077936
0.0071115
0.00479855
0.00818447
0.00681347
0.00702516
0.00912001
0.018518
0.154396
0.0151094
0.00722362
0.171532
0.32953
0.00782561
0.00483466
0.00710851
0.0270742
0.00989394
0.044706
0.00797282
0.0204438
0.0084169
0.00888676
0.00720192
0.00694323
0.0076643
0.0121539
0.0594045
0.00860553
0.00790142
0.0073818
0.252278
0.210828
0.00757231
0.00818848
0.00698309
0.007942
0.00813591
0.00821805
0.0083754
0.00789092
0.00722591
0.00565558
0.050219
0.091531
0.00480052
0.00820696
0.00769304
0.00794054
0.00671653
0.22183
0.00827324
0.00633776
0.00756601
0.279341
0.128787
0.0338107
0.00778882
0.01572
0.00770665
0.00783704
0.282902
0.00715064
0.0081509
0.00720719
0.0429143
0.00602897
0.00593676
0.00813905
0.0105945
0.133964
0.0191347
0.00814655
0.00475143
0.030811
0.0281729
0.0188629
0.00842809
0.00718181
0.00520963
0.0138538
0.0248226
0.00829237
0.00694665
0.00721871
0.00732882
0.0082396
0.006667
0.0062505
0.173638
0.1992
0.0379751
0.00809156
0.470239
0.00853051
0.00710312
0.00711231
0.00790769
0.00766388
0.00769203
0.0139937
0.0162572
0.0202433
0.00765154
0.010684
0.00767712
0.00860014
0.00728945
0.00754381
0.00737033
0.00793471
0.00814552
0.00715848
1.30569
0.00754355
0.00713502
0.0141649
0.15606
0.0071255
0.00796469
0.0184848
0.987881
0.00707006
0.00780371
0.0109541
0.0127151
0.00846094
0.00808896
0.0070242
0.00860609
0.0470401
0.00826827
0.085267
0.00954078
0.144994
0.00795407
0.00820763
0.00622561
0.028855
0.00776328
0.0073849
0.00721067
0.00831176
0.00609106
0.228409
0.00661142
0.0271839
0.246
0.0277362
0.006051
0.0423557
0.00850983
0.00813879
0.00514541
0.00811591
0.0061082
0.00762459
0.290592
0.00716424
0.01074
0.00730482
0.00464479
0.00533315
0.0193808
0.00795662
0.00694163
0.00804678
0.27724
0.0593077
0.380967
0.00715953
0.00994788
0.00708299
0.00776837
0.303197
0.00753497
0.00830074
0.00609887
0.264253
0.032387
0.0398467
0.00726328
0.00533968
0.0110424
0.474906
0.00801949
0.00725738
0.38787
0.00759504
0.0163549
0.00791746
0.088268
0.00816021
0.0306241
0.00830341
0.00729148
0.00844889
0.00765564
0.0148194
0.00664319
0.0071141
0.00780296
0.00717011
0.0101496
0.00885611
0.0396591
0.00697237
0.00684825
0.369099
0.0235765
0.0451243
0.00832426
0.0427515
0.00721899
0.00827496
0.0265603
0.00646485
0.0351287
0.35331
0.00610425
0.0134032
0.00653571
0.00739668
0.0180995
0.0169685
0.00706732
0.0506582
0.00813224
0.928914
0.0427116
0.526715
0.00813103
0.0210062
0.0118957
0.312516
0.00775199
0.00535765
0.00855524
0.00466374
0.117466
0.00815381
0.00890357
0.00733698
0.0285596
0.217341
0.00814637
0.00780766
0.0073506
0.0438941
0.00704584
0.187303
0.010879
0.0636165
0.34452
0.00827444
0.01633
0.0316868
0.0296341
0.0869325
0.0232664
0.00756161
0.011422
0.00491135
0.00810424
0.00785458
0.0085661
0.00922648
0.0066419
0.00831327
0.00557161
0.0381342
0.00485751
0.00802391
0.102735
0.0140721
0.0068956
0.0108404
0.0081352
0.00704328
0.00733213
0.182122
0.00721107
0.0148697
0.00617448
0.0236738
0.00796857
0.00695251
0.00796371
0.00752423
0.0180248
0.0467199
0.0405747
0.641223
0.289901
0.484139
0.0068176
0.00716944
0.00934577
0.00838716
0.00588179
0.0157534
0.00687576
0.109759
0.00615755
0.158777
0.00693596
0.00497748
0.00812063
0.298584
0.0086252
0.470108
0.0066358
0.00761135
0.0453508
0.05998
0.00689631
0.0258032
0.0312263
0.0474414
0.126905
0.019942
0.222405
0.00959911
0.00718663
0.365348
0.0192513
0.00832471
0.00637476
0.00726138
0.00503491
0.00528948
0.00983745
0.00773098
0.0167764
0.638114
0.00751306
0.00715352
0.00734817
0.00818397
0.00962919
0.00542076
0.0069271
0.00558438
0.381614
0.0072468
0.614251
0.070338
0.00779609
0.175678
0.0532254
0.0178087
0.00662843
0.144824
0.00768319
0.00804558
0.344599
0.00750383
0.00824162
0.0057446
0.00809776
0.00717385
0.170342
0.00757504
0.644445
0.0134244
0.0187011
0.00723167
0.0123959
0.0269953
0.00618538
0.300577
0.00776766
0.0109774
0.027076
0.0070082
0.0144438
0.0304067
0.0231652
0.00747298
0.0329598
0.0798821
0.00644786
0.00732649
0.0277436
0.00695102
0.0194929
0.0237319
0.352185
0.00712886
0.008604
0.00797701
0.00626348
0.0079616
0.00478348
0.0371964
1.37888
0.00814694
0.0240159
0.0280458
0.00819635
0.034703
0.00710213
0.00705798
1.98957
0.0371646
0.362268
0.163852
0.0081551
0.00793021
0.0221051
0.222325
0.200633
0.240731
0.00494942
0.00816643
0.00715605
0.0062589
0.240643
0.0477975
0.00865603
0.00737547
0.0279985
0.0214425
0.0354292
0.00682451
0.0912148
0.21687
0.00638656
0.00560822
0.00725497
0.00719051
0.215571
0.00539668
0.00846472
0.0151203
0.00772979
0.00653994
0.365706
0.00907886
0.0105394
0.0332269
0.0256684
0.00751161
0.174288
0.0194299
0.00836029
0.00455808
0.0186529
0.00660821
0.348555
0.00807124
0.00768079
0.0069412
0.111892
0.00609424
0.00745624
0.0323234
0.0083366
0.00814437
0.00859552
0.00534694
0.00771207
0.0360262
0.0190091
0.00815031
0.469851
0.0360147
0.00829663
0.0318327
0.00801245
0.00518309
0.0325325
0.00801751
0.00816013
0.00788198
0.00727307
0.00793836
0.00717287
0.00815008
0.0505189
0.0345686
0.00605372
0.0393931
0.00690093
0.0201055
0.0186236
0.00855496
0.0068267
0.0159013
0.00489644
0.00674506
0.00591319
0.00667653
0.00680082
0.00795062
0.0377111
0.17893
0.0240724
0.100103
0.00859361
0.0118681
0.381998
0.0166483
0.0126872
0.00758812
0.0336939
0.0124356
0.169906
0.0047969
0.020843
0.0325558
0.00642205
0.00796216
0.987304
0.00482046
0.00670998
0.0295651
0.0283835
0.00584481
0.0120573
0.0144218
0.00464719
0.568031
0.997363
0.00790141
0.00714208
0.0136621
0.0472869
0.0104536
0.00811309
0.00631163
0.00839078
0.00724145
0.0821873
0.0076148
0.0084546
0.136981
0.00839465
0.00726848
0.00770541
0.00758838
0.00679553
0.00857882
0.00714014
0.0120684
0.0070415
0.00879631
0.00803128
0.0311845
0.0081797
0.0163018
0.00769913
0.0209377
0.00837465
0.00767739
0.0596113
0.242733
0.00706332
0.00781912
0.00760871
0.0223863
0.0082654
0.00822003
0.00837005
0.00738715
0.00622067
0.00729912
0.0313088
0.00512807
0.0623964
0.00847751
0.00877706
0.00788942
0.00670818
0.00730048
0.00840726
0.00802739
0.163833
0.00714903
0.0163795
0.00789808
0.00800581
0.470368
0.0084465
0.00855183
0.138735
0.204908
0.0139948
0.00754179
0.0199055
0.00789009
0.00919062
0.0119688
0.0110079
0.00736962
0.00628495
0.0271768
0.00764667
0.032127
0.00717862
0.0153441
0.0272136
0.00725239
0.00717925
0.00719361
0.129143
0.0145167
0.00498457
0.0307545
0.00642684
0.00597305
0.00840069
0.0104291
0.0304538
0.00751098
0.00811942
0.0386346
0.00704176
0.00692775
0.00683917
0.00547237
0.00789732
0.028256
0.0306206
0.00687947
0.0177672
0.00798095
0.00783701
0.00702719
0.996891
0.009811
0.00702408
0.170229
0.0321511
0.00820196
0.00706837
0.0289664
0.0105783
0.00663889
0.00714199
0.0159834
0.0367634
0.00754713
0.00693961
0.0738826
0.00714842
0.00830106
0.00730525
0.0068694
0.00801113
0.0250518
0.00762927
0.0319847
0.00631715
0.0134023
0.00812831
0.00502448
0.0282785
0.00690112
0.021748
0.00764411
0.00713256
0.0394897
0.0136522
0.00560461
0.00845505
0.00713399
0.331034
0.00791977
0.00710743
2.41461
0.00676012
0.00711069
0.00720062
0.00710245
0.00645067
0.00634263
0.0157632
0.00514819
0.0160021
0.00711074
0.00761143
0.0156385
0.00454375
0.00748374
0.00647418
0.00564232
0.00728152
0.271355
0.00855599
0.0267242
0.00747475
0.00687329
0.00588613
0.00728051
0.0124226
0.00795699
0.00721588
0.00670095
0.00756584
0.00836336
0.0344613
0.0211165
0.0111707
0.0109943
0.0379804
0.00686029
0.00757377
0.00744811
0.212103
0.00729213
0.00655445
0.327205
0.00721255
0.215785
0.160924
0.00703197
0.00810133
0.00673197
0.00534896
0.00494099
0.00698634
0.00794623
0.0234016
0.0378169
0.00478161
0.0349808
0.00782484
0.0721929
0.0398781
1.00494
0.0107205
0.0118087
0.00501593
0.00828649
0.00684604
0.0249974
0.00790305
0.0110463
0.00532192
0.0119266
0.00522705
0.0610441
0.0232808
0.022959
0.259012
0.0078125
0.344181
0.00964244
0.00661473
0.00596842
0.00870574
0.00840222
0.603152
0.00782161
0.300745
0.284559
0.0050646
0.401106
0.0241124
0.30213