/*--------------------------------*- C++ -*----------------------------------*\
| =========                 |                                                 |
| \\      /  F ield         | OpenFOAM: The Open Source CFD Toolbox           |
|  \\    /   O peration     | Version:  3.0.1                                 |
|   \\  /    A nd           | Web:      www.OpenFOAM.org                      |
|    \\/     M anipulation  |                                                 |
\*---------------------------------------------------------------------------*/
FoamFile
{
    version     2.0;
    format      ascii;
    class       volScalarField;
    location    "0.673922";
    object      epsilon;
}
// * * * * * * * * * * * * * * * * * * * * * * * * * * * * * * * * * * * * * //

dimensions      [0 2 -3 0 0 0 0];

internalField   nonuniform List<scalar> 
21246
(
1214.43
522.201
165.274
63.951
23.9184
8.96249
3.88478
2.07779
1.35377
1.0115
0.821525
1346.14
663.875
276.248
112.481
42.1896
13.1413
5.01713
2.44425
1.51257
1.10821
0.899489
1076.11
584.548
313.297
149.288
64.119
22.9069
7.48128
2.97698
1.70224
1.22161
1.00362
688.968
480.601
308.556
169.316
82.4641
34.0276
12.0813
4.24305
1.9574
1.33646
1.102
376.807
379.013
284.049
178.438
97.6668
45.7279
18.3244
6.64083
2.64681
1.51243
1.19137
182.576
290.191
252.475
179.657
109.892
57.7403
26.1377
10.4215
4.04732
1.93245
1.32404
87.4256
220.354
220.884
174.578
117.917
68.8294
34.9068
15.5715
6.41153
2.80272
1.60004
69.3968
169.514
193.128
165.26
121.269
77.5315
43.4957
21.6144
9.75777
4.30533
2.161
64.5121
122.944
165.458
153.81
121.002
83.3509
50.9137
27.8365
13.8323
6.4898
3.13714
48.2556
72.6911
129.522
138.822
117.732
86.3209
56.5379
33.5134
18.1805
9.21473
4.57151
33.5612
40.7806
88.204
116.565
110.051
85.9588
59.7373
37.8883
22.186
12.1426
6.35938
24.09
24.6318
53.6264
88.2825
96.7003
81.5654
59.9551
40.3136
25.2229
14.8153
8.26043
18.4153
16.1129
30.8408
60.27
78.8229
73.1806
57.0743
40.5047
26.878
16.8211
9.96554
15.1931
11.9121
19.177
38.1595
59.5407
61.7943
51.4544
38.5246
26.9994
17.8904
11.1723
12.7643
9.40595
13.3033
23.771
41.3429
49.1722
43.893
34.7149
25.6438
17.89
11.6914
10.8529
7.64551
9.68594
15.9053
26.7934
36.4902
35.4242
29.6663
23.0931
16.89
11.4413
9.19258
6.31811
7.16381
10.9925
17.3998
24.9006
26.9588
24.0139
19.7242
15.08
10.5031
7.8962
5.33448
5.44692
7.75268
11.4432
16.1963
19.1472
18.4065
16.0121
12.8153
9.19777
7.12047
4.72705
4.31328
5.62105
7.66114
10.4322
12.9079
13.5331
12.6018
10.7273
8.03189
7.29006
4.6511
3.68607
4.3468
5.43923
7.03766
8.84886
10.0624
10.148
9.43248
7.65876
9.00748
4.9409
3.50853
3.78752
4.43333
5.52112
7.06861
8.40619
9.09148
9.25349
8.51253
11.1785
5.61942
3.67178
3.85393
4.47593
5.60704
7.05606
8.22798
8.74713
8.69723
8.07695
14.1093
6.19965
4.81589
5.23755
5.9631
7.07687
8.15243
8.5754
8.15971
7.37671
6.57991
36.7056
18.7052
12.4836
10.7949
10.3882
10.2061
9.65618
8.61826
7.44845
6.48425
5.76408
1284.1
316.115
129.807
48.8661
18.1471
7.24475
3.36804
1.8935
1.26189
0.945699
0.757224
1005.03
265.549
109.578
45.9769
18.5671
7.72579
3.59775
1.97944
1.28566
0.945688
0.749566
818.266
250.389
103.938
48.0323
20.9317
8.89945
4.06596
2.15827
1.35333
0.972238
0.762728
638.014
214.472
92.9452
47.2776
22.7235
10.3014
4.73378
2.42431
1.45358
1.01045
0.781746
505.264
176.166
81.5258
43.8238
22.8923
11.5189
5.70984
2.92696
1.66979
1.09924
0.825291
411.138
144.825
71.81
40.6892
22.616
12.2556
6.56749
3.56618
2.02637
1.25646
0.8833
340.372
120.861
63.8811
37.9562
22.3913
13.0822
7.58236
4.35001
2.4872
1.47031
0.959967
283.971
102.183
57.321
35.6643
22.2893
13.9963
8.76565
5.35929
3.15232
1.81859
1.0994
238.015
87.2851
51.7821
33.74
22.3155
15.0084
10.1246
6.61807
4.07164
2.37166
1.3884
198.48
74.754
46.8605
31.9653
22.3486
16.0432
11.6168
8.1204
5.26957
3.15968
1.82905
163.796
64.1854
42.2377
30.1021
22.2072
16.9458
13.1235
9.80251
6.73433
4.20063
2.45215
132.849
54.5185
37.4941
27.9215
21.6868
17.5149
14.4483
11.5184
8.39891
5.48529
3.26662
105.431
45.3556
32.452
25.244
20.5848
17.5026
15.2633
12.9592
10.1107
7.03023
4.32072
81.6718
36.8586
27.3144
22.1841
18.9528
16.8948
15.4545
13.8371
11.4721
8.51166
5.57127
62.3107
29.2452
22.3922
19.0028
16.998
15.8306
15.0897
14.1193
12.3274
9.70016
6.75224
48.0052
23.0965
18.1556
16.0851
15.0325
14.5511
14.341
13.8932
12.6516
10.463
7.70725
38.6105
18.7256
14.9495
13.7453
13.3247
13.2791
13.3903
13.2909
12.5045
10.7772
8.35187
33.417
16.0966
12.8681
12.1123
12.0053
12.1405
12.3598
12.4276
11.9739
10.6825
8.66364
31.5179
14.9431
11.7888
11.1358
11.0692
11.1628
11.3038
11.3772
11.1333
10.2366
8.64321
32.2505
14.966
11.5112
10.696
10.4646
10.3488
10.2671
10.2128
10.0633
9.49912
8.33345
35.5235
16.0253
11.912
10.7288
10.1912
9.75511
9.35091
9.06038
8.88334
8.56344
7.76848
42.4571
18.3291
13.1103
11.3561
10.3863
9.53931
8.73804
8.11756
7.769
7.53512
7.03343
55.7188
23.2127
15.8046
13.014
11.3213
9.88654
8.60322
7.5896
6.95669
6.62581
6.26947
107.773
35.1805
22.395
16.825
13.3927
10.9045
9.02991
7.63411
6.67939
6.11513
5.70036
1359.68
447.352
199.268
88.6585
35.8932
13.0002
4.49691
1.5443
0.534529
0.191518
0.0759222
1074.46
299.643
151.516
72.9657
31.4514
12.2392
4.43413
1.54102
0.528169
0.185252
0.0712714
684.977
238.441
128.143
68.1014
31.8289
13.0867
4.88489
1.70865
0.576605
0.19702
0.0750624
471.581
190.067
111.023
63.5733
31.9128
13.8883
5.39299
1.9404
0.66654
0.228163
0.0853484
337.787
139.991
86.1821
54.8835
30.5954
14.5043
5.94171
2.19713
0.76137
0.255497
0.0896336
271.373
110.62
69.182
45.1964
26.4273
13.2522
5.70541
2.183
0.77358
0.265932
0.0979232
230.381
91.5916
57.7254
38.0138
22.462
11.4943
5.11627
2.04097
0.753708
0.267462
0.0994188
202.033
78.3405
49.285
32.4721
19.3167
10.0195
4.55619
1.86963
0.713002
0.261677
0.103377
181.597
68.5649
42.8618
28.1623
16.7829
8.7728
4.05021
1.70107
0.66909
0.254556
0.103886
166.065
61.2067
37.9693
24.875
14.8307
7.78988
3.63587
1.55522
0.62769
0.24587
0.101675
153.576
55.4447
34.1677
22.3465
13.3346
7.03249
3.31029
1.43602
0.590858
0.236243
0.100882
144.166
50.7808
31.1235
20.3433
12.162
6.44311
3.05667
1.34193
0.561113
0.228634
0.0997155
137.583
47.0945
28.7162
18.7843
11.2679
6.0026
2.87042
1.27393
0.540412
0.224025
0.0990038
132.866
44.3219
26.8858
17.6332
10.6358
5.70581
2.75102
1.23287
0.529101
0.221959
0.0996613
130.446
42.1924
25.4669
16.7783
10.2026
5.52531
2.68989
1.21708
0.527379
0.223052
0.100457
130.369
40.6674
24.4337
16.2062
9.96619
5.46529
2.6916
1.22964
0.536963
0.228016
0.10266
132.358
39.8311
23.8171
15.9444
9.95699
5.54962
2.77091
1.27795
0.56098
0.237932
0.106522
137.646
39.9432
23.6781
16.0247
10.1928
5.80086
2.94603
1.3726
0.604689
0.255142
0.113
147.288
41.3997
24.1249
16.4459
10.7409
6.30606
3.2872
1.55361
0.686723
0.287826
0.125449
163.268
44.661
25.3881
17.327
11.6247
7.09079
3.84182
1.8714
0.843185
0.357411
0.153513
189.802
50.6704
27.8709
18.8646
12.9362
8.21484
4.67357
2.39139
1.12598
0.496797
0.21577
237.651
60.6437
32.1398
21.273
14.7583
9.72821
5.85526
3.20973
1.62774
0.775867
0.357261
326.158
76.2784
38.4942
24.9824
17.404
11.853
7.57217
4.50655
2.5199
1.33836
0.684738
536.539
82.1269
46.0879
28.6637
20.9098
15.1315
10.474
6.8773
4.30129
2.5815
1.50199
1369.72
757.995
363.221
170.16
72.6845
22.4296
7.07168
2.19516
0.720039
0.247585
0.094331
1378.23
807.053
493.32
275.361
140.357
59.7065
20.3881
4.33963
1.16378
0.375185
0.135459
592.565
671.351
506.516
330.234
193.45
98.2232
41.1813
12.3021
2.45413
0.618418
0.213839
434.82
653.637
521.541
366.427
233.63
132.12
63.8996
24.2105
6.44035
1.2644
0.357946
469.18
484.076
544.459
408.15
271.353
163.192
86.5719
38.2843
12.9492
3.16255
0.698663
439.851
366.19
503.186
464.925
320.27
197.187
109.927
53.5518
21.3871
6.53168
1.58366
412.511
298.55
412.761
506.57
389.227
242.991
137.213
70.1971
31.1493
11.2487
3.25148
387.942
259.453
333.834
478.928
465.882
307.424
173.126
89.4635
41.9555
16.9718
5.70434
369.35
232.165
284.989
415.795
502.956
380.053
219.271
112.732
53.8954
23.3533
8.81343
354.962
208.652
247.338
355.9
484.834
442.188
271.976
139.946
66.9041
30.0679
12.3242
345.369
187.861
216.482
306.266
433.724
468.877
319.379
167.859
80.0687
36.6802
15.9529
340.382
172.584
190.879
262.049
376.22
457.655
349.014
190.15
91.0625
42.3687
19.3013
342.078
161.469
169.962
223.53
318.202
413.516
353.311
200.287
97.0947
46.1731
22.0027
350.32
154.879
153.787
191.192
263.643
355.067
332.508
195.19
96.4714
47.4492
23.9197
367.525
154.669
142.64
165.007
213.499
285.485
296.952
175.76
89.2744
46.3297
25.0412
392.128
158.569
134.248
142.825
170.777
210.076
235.577
152.51
77.9379
43.5564
25.6318
426.102
166.992
127.988
122.44
133.131
151.186
161.589
128.777
68.5771
40.9963
26.2992
476.479
182.819
126.342
106.802
104.249
110.081
114.647
104.684
65.6835
40.6368
27.4502
557.571
211.241
133.948
100.323
88.0722
88.2025
91.9653
90.5881
69.868
46.3132
31.6555
701.908
263.706
162.182
112.375
90.2246
86.494
90.2717
91.8913
82.2219
59.142
37.2108
998.076
379.093
254.657
186.164
149.114
137.614
135.682
128.44
113.859
78.5091
50.067
1468.04
606.078
461.146
369.039
286.802
224.536
175.422
133.106
96.5339
65.6639
42.2056
1110.51
546.384
456.411
326.954
232.983
162.648
111.678
75.2707
49.6296
31.9806
20.0225
960.041
495.707
286.798
177.448
114.084
74.4351
48.411
30.9854
19.3669
11.7787
6.96465
171.128
86.6802
17.1094
3.96431
1.34882
0.751799
0.566956
0.491041
0.449831
0.419272
0.3884
275.928
196.283
17.8069
5.606
1.60767
0.821618
0.56784
0.466135
0.411782
0.373451
0.339114
357.451
229.288
25.8527
7.37398
1.76014
0.896739
0.576029
0.451713
0.385447
0.339016
0.296483
399.089
216.912
28.9832
8.20485
1.80794
0.955102
0.580892
0.441901
0.366517
0.31365
0.264348
410.889
203.035
30.4585
8.14842
1.84299
0.987827
0.579128
0.434067
0.352861
0.296575
0.245612
405.307
197.343
33.1622
7.92047
1.89909
0.998602
0.574416
0.427435
0.342834
0.285295
0.234962
385.259
196.997
37.8411
8.52243
1.987
0.998077
0.571215
0.421865
0.335361
0.277582
0.227025
353.79
199.92
43.2709
9.80156
2.24616
1.0058
0.571859
0.417438
0.329941
0.272572
0.223479
317.359
204.718
49.844
11.8835
2.73869
1.06431
0.585624
0.415804
0.326538
0.269569
0.221735
279.753
211.177
59.0941
15.3373
3.68601
1.23388
0.62279
0.421363
0.326783
0.268877
0.222061
240.863
219.412
70.5493
20.275
5.27501
1.60592
0.706787
0.4388
0.330875
0.269867
0.223764
202.709
229.848
83.3585
26.4219
7.5605
2.26731
0.876362
0.479555
0.341472
0.273198
0.2265
168.721
241.893
98.4365
34.2196
10.789
3.37073
1.20575
0.569882
0.366315
0.281012
0.230826
140.167
254.114
117.148
44.5842
15.4241
5.16408
1.82222
0.763296
0.424297
0.299233
0.238545
118.635
269.342
139.322
57.585
21.6185
7.81724
2.86072
1.13759
0.550945
0.341483
0.254419
107.077
287.786
166.548
74.4532
30.0326
11.6814
4.53149
1.81706
0.811613
0.437607
0.290512
107.54
306.548
200.247
97.4161
42.0342
17.4636
7.21004
3.01255
1.32338
0.648128
0.375231
121.714
324.824
240.12
128.351
59.2661
26.1726
11.4751
5.05983
2.28316
1.08555
0.569065
147.471
334.986
281.33
169.036
84.5276
39.7418
18.4741
8.61986
4.07248
1.97093
0.99841
179.264
329.343
311.304
216.593
120.707
61.3636
30.4418
15.0791
7.51515
3.7859
1.9434
206.913
303.425
313.172
257.289
166.759
94.9536
51.3765
27.3407
14.4905
7.68534
4.09315
248.513
270.804
288.594
274.612
213.379
142.273
86.9703
50.878
29.1259
16.4949
9.26362
279.538
226.594
222.15
228.649
211.886
172.629
125.566
84.4766
54.0867
33.6832
20.4409
522.057
456.868
451.592
381.093
293.809
216.372
154.358
107.784
73.9066
49.9649
33.0051
131.77
63.4915
15.6866
3.2068
1.18069
0.727538
0.586582
0.531369
0.505763
0.491362
0.480022
193.886
63.775
9.38098
3.1333
1.35048
0.823447
0.645996
0.581793
0.558659
0.552382
0.55312
234.707
76.1192
8.18474
3.29051
1.43007
0.914417
0.726727
0.656448
0.634625
0.636068
0.650134
247.589
70.2278
7.64618
3.39969
1.4012
0.901378
0.716534
0.658855
0.655945
0.681656
0.726975
245.541
57.7232
7.21896
3.29159
1.34921
0.884769
0.694737
0.633066
0.626212
0.650477
0.698366
239.942
47.1426
6.78778
3.06688
1.28444
0.862003
0.66832
0.601582
0.587169
0.604556
0.647227
234.375
39.5533
6.37204
2.82486
1.22017
0.835597
0.639861
0.56942
0.546179
0.552363
0.579863
227.984
34.0813
5.97258
2.60446
1.1637
0.806429
0.61233
0.538992
0.507192
0.500495
0.507201
223.942
30.1328
5.6345
2.42852
1.12301
0.777587
0.587919
0.51186
0.473215
0.456482
0.448426
223.077
27.41
5.37607
2.29622
1.0978
0.753658
0.567898
0.489072
0.445587
0.422978
0.408482
226.232
25.7343
5.22573
2.21506
1.08694
0.737694
0.553212
0.471227
0.424287
0.398882
0.384015
232.065
24.7418
5.14838
2.17532
1.08953
0.730059
0.544121
0.458344
0.408523
0.381611
0.368287
240.478
25.1227
5.17192
2.17725
1.10922
0.73164
0.541422
0.450396
0.39753
0.369012
0.357118
250.119
27.9694
5.701
2.28542
1.17153
0.751377
0.549855
0.449153
0.391913
0.360629
0.348552
261.604
32.1294
6.71027
2.52422
1.28442
0.795624
0.572112
0.456419
0.392206
0.356325
0.341447
275.765
37.9244
8.39979
2.9865
1.47841
0.879674
0.615062
0.476241
0.400249
0.356864
0.336069
293.554
45.9073
11.0989
3.84622
1.82554
1.03649
0.694786
0.517475
0.42095
0.36511
0.334637
316.955
56.3168
15.1374
5.35728
2.46398
1.33621
0.848351
0.600756
0.466517
0.388569
0.342292
348.93
69.9918
21.0456
7.92165
3.6544
1.9319
1.16498
0.778781
0.569498
0.448052
0.37361
394.696
88.8768
29.8326
12.2253
5.88091
3.14839
1.85784
1.19009
0.821401
0.60556
0.471984
464.844
116.555
43.4739
19.5371
10.0546
5.6536
3.41425
2.18801
1.4788
1.04939
0.778431
583.037
160.553
66.1665
32.585
18.0756
10.849
6.90616
4.6062
3.19728
2.30097
1.71359
811.702
252.103
114.277
60.9047
36.007
22.8439
15.2794
10.6625
7.71749
5.7727
4.44888
1437.82
478.102
251.581
155.995
104.759
74.1044
55.079
42.5831
33.889
27.4834
22.3366
9.02382
3.43076
3.36236
4.39118
11.1444
31.268
46.58
58.0451
66.9913
9.50853
3.71376
2.1266
4.48929
13.558
19.4872
22.1009
22.8501
23.3038
8.59599
3.93323
2.29811
5.09706
12.963
15.0975
14.4008
12.8424
12.2244
7.35336
3.86871
2.50222
5.50418
11.0128
10.8484
9.21557
7.81427
7.25903
28.5791
46.1579
58.2324
66.4512
71.3185
72.9146
72.2742
75.9365
73.8159
16.7149
20.3397
20.9599
21.0644
21.6886
22.2985
23.6199
24.7391
23.9803
12.8334
13.1571
11.7102
11.1162
11.3937
11.9384
12.8648
13.4125
12.6295
9.42889
8.50614
7.23173
6.75113
6.61184
6.71845
7.19857
7.69898
7.35477
0.00901614
0.0082937
0.00834739
0.00648752
0.46408
0.00754868
0.130066
0.00810147
0.00752291
0.00695424
0.46463
0.00813796
0.0102743
0.00510833
0.0146124
0.00728617
0.00610159
0.00645208
0.00725036
0.007105
0.00663327
0.0624912
0.00852092
0.114131
0.0079222
0.00506624
0.00987938
0.121097
1.01352
0.382642
0.0072561
0.00643686
0.00646898
0.00806888
0.00681818
0.00826287
0.104552
0.00790548
0.00720396
0.0075743
0.165894
0.00810056
0.0321255
0.00849648
0.722927
0.243962
0.0173148
0.357865
0.00693205
0.00737508
0.384148
0.00759365
0.109176
0.0324685
0.00735211
0.00666102
0.0597022
0.00761349
1.0551
0.0447464
0.0832749
0.101186
0.510116
0.0388805
0.185605
0.00714462
0.37045
0.00727527
0.00829543
0.00694259
0.00514581
0.00719764
0.0149627
0.00791754
0.0185292
0.00712798
0.0765733
0.00828264
0.0566724
1.17429
0.320534
0.0288935
0.00793282
0.0083817
0.00698533
0.0151976
1.86247
0.106818
0.0196296
0.112695
0.00809375
0.00764908
0.181169
0.00742701
1.09824
0.691361
0.0171171
0.00600228
0.0248321
0.00736173
0.00781327
0.301339
0.00680723
0.00616413
0.0152309
0.00812675
0.00462646
0.00845343
0.0152706
0.00665573
0.00797166
0.00815259
0.00723804
0.00713578
0.0232983
0.00769045
0.00753237
0.00732525
0.00793598
0.00673661
0.00745914
0.00771546
0.00968932
0.00503178
0.21322
0.00739043
0.327202
0.0047569
0.00639969
0.00931526
0.00778075
0.0436808
0.321572
0.00713673
0.00833938
0.00813402
0.061751
0.0165706
0.404573
0.0073368
0.0330307
0.00659329
0.223149
0.00867961
0.00750659
0.0253689
0.0154191
0.007257
0.00713329
0.00707608
0.00718849
0.00766512
0.028044
0.00768616
0.00699303
0.0156573
0.0197882
0.0429858
0.00543979
0.007478
0.00549393
0.0339266
0.00718302
0.0077167
0.384966
0.0261605
0.0203504
0.00689874
0.00701425
0.181632
0.00555025
0.00545206
0.00833833
0.00645559
0.00642435
0.00641821
0.00589137
0.0294466
0.739571
0.00696012
0.00724776
0.0678233
0.00849825
0.112235
0.007951
0.0144468
0.0071049
0.0072766
0.00825043
0.0819221
0.014289
0.00526647
0.00719019
0.163484
0.00832341
0.00760811
0.0074394
0.025836
0.0100601
0.00856744
0.0270997
0.00735997
0.0134916
0.007816
0.00838562
0.104963
0.00740013
0.00635834
0.00741438
0.00740872
0.135798
0.00759118
0.0082745
0.00674225
0.00791435
0.0567227
0.00798099
0.0238109
0.00717915
0.0110072
0.00908157
0.00712547
0.0160812
0.0229379
0.00482443
0.00762988
0.0754321
0.0245734
0.0124538
0.163066
0.042868
0.00713746
0.0071628
0.0076735
0.0282394
1.56745
0.356292
0.00845106
0.00815386
0.00811117
0.0237613
0.0451822
0.00613342
0.149043
0.00813231
0.0403841
0.00800693
0.00807048
0.443117
0.368627
0.00802354
0.137869
0.010175
0.00727501
0.00601996
0.00746601
0.00672544
0.00785744
0.0196107
0.00708037
0.00849703
0.00978185
0.00738288
0.00820186
0.00796473
0.0161284
0.00658491
0.00844407
0.0176466
0.006943
0.205236
0.00732371
0.00733507
0.0165159
0.00757009
0.00736655
0.00534714
0.00776457
0.00691505
0.0188149
0.00728618
0.0082898
0.324066
0.330064
0.00603151
0.00759543
1.3687
0.00825443
0.00683458
0.0317499
0.00835172
0.115783
0.00700904
0.00866955
0.00856596
0.00743713
0.00693111
0.00816856
0.00682307
0.00534092
0.00775963
0.00931197
0.00710729
0.391502
0.00676318
0.00665296
0.00828623
0.0807481
0.0656202
0.00743925
0.0862203
0.0081708
0.00645482
0.00629596
0.0817707
0.00655952
0.00707683
0.0149744
0.00671271
0.00769854
0.00709672
0.230707
0.0074632
0.00538224
0.0249237
0.00677311
0.0077827
0.0059442
0.00709248
0.123174
0.00738127
0.524402
0.0747948
0.00846312
0.0115034
0.758575
0.0170719
0.00824448
0.00785342
0.00591272
0.027517
0.130029
0.00733167
0.0255622
0.184773
0.0825268
0.0304382
0.00753435
0.0885359
0.357466
0.115075
0.00581249
0.00700586
0.0068202
0.013198
0.00860273
0.00955634
0.00696039
0.00850072
0.177441
0.00986353
0.00528408
0.00800717
0.00798849
0.00728804
0.0191835
0.00512727
0.0129443
0.147927
0.00800608
0.00774201
0.108121
0.58128
0.00477117
0.0121208
0.00832251
0.00905059
0.00676959
0.00753118
0.00710105
0.261251
0.00756173
0.0247934
0.00765332
0.0052279
0.350515
0.00874444
0.00478858
0.04205
0.0227935
0.00769935
0.0546083
0.00466749
0.00785713
0.363926
0.189747
0.00787196
0.00722056
0.0083643
0.030394
0.0193335
0.00764649
0.00850499
0.0333274
0.00700205
0.188717
0.054175
0.0334302
0.00735109
0.227701
0.00685583
0.00720269
0.0110165
0.010478
0.0309405
0.00639921
0.0145102
0.00828871
0.00490321
0.0436641
0.289158
0.00627865
0.16064
0.0133978
0.00628778
0.00662681
0.00782678
0.0281356
0.00901929
0.195162
0.00789818
0.024619
0.00508956
0.00663486
0.00673678
0.011441
0.184971
0.404265
0.0050827
0.00860014
0.00596646
1.90436
0.0088773
0.00899578
0.00681869
0.0166447
0.0628387
0.0410924
0.0074249
0.035178
0.00773995
0.00833688
0.00794163
0.032159
0.0180924
0.162302
0.0055285
0.0289802
0.0265374
0.00825745
0.00741005
0.342554
0.00511822
0.00599339
0.00685894
0.144385
0.114883
0.0902244
0.0916648
0.00736126
0.00657841
0.016975
0.0069889
0.0837513
0.0068321
0.00824307
0.00735297
0.0347667
0.0331265
0.00712942
0.00778002
0.00668141
0.105824
0.0691752
0.00845538
0.0243015
0.246667
0.00941143
0.0123918
0.0074132
0.0286023
0.00760107
0.00684551
0.00761452
0.00798211
0.00641519
0.00715685
0.00537699
0.00853555
0.00831021
0.00565728
0.0059069
0.00807861
0.00806466
0.49499
0.0146274
0.0132265
0.00738527
0.266449
0.00835801
0.264016
0.0162362
0.0245303
0.0215504
0.0079548
0.346015
0.0269127
0.00534899
0.00778526
0.00634938
0.00667765
0.00828374
0.00769568
0.00819417
0.00674383
0.250693
0.0080006
0.00745782
0.0814054
0.00773164
0.17041
0.0067138
0.0617176
0.0055979
0.0193129
0.00856556
0.00786431
0.00841224
0.162517
0.0342355
0.00795249
0.00790885
0.00501003
0.0083466
0.0100811
0.00831231
0.199892
0.00681634
0.046107
0.00765412
0.00775876
0.278596
0.277033
0.00679307
0.00656955
0.00710273
0.00831358
0.0114606
0.0406276
0.00721355
0.00879165
0.475378
0.97695
0.00791718
0.00736866
0.00828098
0.0610995
0.376626
0.0191627
0.00809206
0.00751273
0.332807
0.00727292
0.00805344
0.00695057
0.0423381
0.341617
0.00770908
0.0206654
0.00782046
0.0268184
0.00738742
0.0187536
0.00615784
0.00643667
0.0862319
0.0366904
0.0084216
0.0085475
1.02101
0.00763641
0.00615932
0.0111903
0.0280776
0.0524666
0.0272525
0.00751074
0.00692479
0.00773135
0.00791367
0.562848
0.0152228
0.012242
0.00711377
0.00794832
0.0437405
0.0070511
0.00762998
0.00681077
0.00711872
0.0079724
0.014097
0.0275046
0.0181239
0.00621391
0.0109102
0.00725129
0.0563126
0.0070941
0.00778936
0.472595
0.191668
0.00755214
0.00757624
0.0602462
0.00676951
0.00739107
0.0194638
0.00831369
0.00670991
0.00996689
0.00827306
0.008283
0.00479534
0.00580021
0.0393899
0.1492
0.0350242
0.0314487
0.00626748
0.0206623
0.0267682
0.00849286
0.00836492
0.00678948
0.0258263
0.00606869
0.00696512
0.00702696
0.00511285
0.03211
0.417964
0.00608538
0.010945
0.00768947
0.0128361
0.00811842
0.00725236
0.00693515
0.0132464
0.00702362
0.00745447
0.00684728
0.00826604
0.0156296
0.0557069
0.158054
0.0070947
0.00701306
0.00754993
0.0561353
0.00758761
0.13148
0.00719432
0.0217918
0.185846
0.0077058
0.0134822
0.00849898
0.00635445
0.0220484
0.00803774
0.407059
0.00556326
0.00667746
0.00841794
0.0125331
0.00514667
0.0334745
0.348594
0.00750715
0.00641572
0.00840457
0.0078437
0.00691295
0.021401
0.00813935
0.00760941
0.00762385
0.00996042
0.0222728
0.00816065
0.00777904
0.00751264
0.0232014
0.00546942
0.00647974
0.0136508
0.137211
0.00837126
0.00634269
0.00617145
0.00836711
0.0380158
0.00601328
0.141899
0.00783965
0.00665827
0.00791262
0.00733896
0.0802477
0.00760313
0.0297998
0.00509405
0.00727754
0.00670301
0.00671067
0.0256684
0.00823875
0.269952
0.0278545
0.189019
0.00661157
0.0102554
0.051501
0.0502629
0.00760503
0.00868996
0.0336329
0.0126697
0.00803479
0.00530991
0.465285
0.00811548
0.164067
0.00938704
0.00817481
0.0201917
0.00753932
0.0068752
0.00681959
0.0079155
0.00731205
0.00480753
0.00819273
0.0063826
0.0071309
0.00833188
0.0143852
0.160438
0.0144547
0.00723698
0.160894
0.223948
0.00781902
0.00478882
0.00710731
0.0189372
0.0101556
0.0443895
0.00691895
0.0232942
0.00769146
0.00893766
0.00722341
0.00695943
0.00765501
0.0256367
0.0591105
0.00860708
0.00789784
0.0073941
0.259181
0.230661
0.00746545
0.00821021
0.00683005
0.00719937
0.00814013
0.00821728
0.00837715
0.00787926
0.00795053
0.00572306
0.0515015
0.0885942
0.00481916
0.00686835
0.00770393
0.0079375
0.00671593
0.222491
0.00827439
0.00626812
0.00763543
0.25392
0.130189
0.043612
0.00779546
0.0196778
0.00771579
0.00781823
0.197776
0.00715109
0.00817281
0.00707099
0.0409657
0.00602288
0.0059349
0.00813901
0.0106032
0.161848
0.0195745
0.00816752
0.0047049
0.0222648
0.0225652
0.0211597
0.00843135
0.00720142
0.00636648
0.0129085
0.0175913
0.00829416
0.00685093
0.00799796
0.00737245
0.00826006
0.0329748
0.00625342
0.162003
0.217466
0.0300053
0.00811099
0.457277
0.00853353
0.00718535
0.00978276
0.00789962
0.0076627
0.00766034
0.0144526
0.0835865
0.0158441
0.00765248
0.014949
0.00768867
0.00859877
0.00737453
0.00756411
0.00703594
0.00792945
0.00815003
0.00734062
1.63578
0.0075413
0.00713094
0.00724999
0.159237
0.00717547
0.00796863
0.0200598
1.50021
0.0070122
0.00778763
0.0102053
0.0156559
0.00846688
0.00808494
0.0067635
0.00860318
0.115398
0.00828608
0.0797962
0.00874379
0.152402
0.00734681
0.00821852
0.00600134
0.0288552
0.00774844
0.00764534
0.00742489
0.00831897
0.00594981
0.181403
0.00671579
0.0260354
0.246359
0.0195247
0.00604397
0.042402
0.00851163
0.00814892
0.00519793
0.00749296
0.00592084
0.00759601
0.273094
0.00724518
0.0105256
0.00731788
0.00462626
0.00535488
0.0198907
0.00775503
0.0069363
0.00804186
0.280873
0.0625497
0.327234
0.00652198
0.00944387
0.006839
0.00776783
0.27775
0.00754031
0.0083031
0.00609885
0.186846
0.0378104
0.037454
0.0070047
0.00525942
0.0585155
0.644248
0.0080156
0.00689425
0.339282
0.00760435
0.0196568
0.00792624
0.0916391
0.00753482
0.0302823
0.00830601
0.00729341
0.00844939
0.00762604
0.0144802
0.00773545
0.0071282
0.00780872
0.00732799
0.00980047
0.00793228
0.0404302
0.00740012
0.00686879
0.182746
0.0225274
0.044775
0.00832661
0.0427676
0.00671953
0.00828939
0.0265679
0.0064677
0.0348829
0.353651
0.00609681
0.0133756
0.00653922
0.0074191
0.0176327
0.0168498
0.00703396
0.0510968
0.00813349
1.49956
0.0404381
0.732687
0.00812816
0.0210131
0.0142604
0.327001
0.00786699
0.00537748
0.00855554
0.00462862
0.128823
0.00816029
0.00890869
0.0306607
0.0284929
0.216156
0.00798637
0.00778476
0.00736983
0.0450263
0.00684769
0.178612
0.00959799
0.0601585
0.369797
0.00829305
0.0159233
0.0317155
0.0295498
0.0902344
0.0166194
0.00758247
0.011447
0.00481679
0.00810009
0.00780589
0.00856562
0.0156016
0.00658557
0.00832478
0.00556597
0.0329868
0.00481143
0.00802668
0.103933
0.0148439
0.006892
0.010494
0.00813895
0.00708013
0.00735087
0.202075
0.00723411
0.0761664
0.00616311
0.0240318
0.00796621
0.00694891
0.00796022
0.00753435
0.0179414
0.0452459
0.0396291
0.639148
0.195512
0.658463
0.00687951
0.00713481
0.00958936
0.00839021
0.00597105
0.0815366
0.00692165
0.0917017
0.00610651
0.150382
0.00683302
0.00493334
0.00811926
0.314984
0.00862438
0.469949
0.00688511
0.00808382
0.0465541
0.0572748
0.00674118
0.0251956
0.0222301
0.0652303
0.126785
0.0199445
0.227709
0.00921219
0.00769109
0.24245
0.0183667
0.00832883
0.00615165
0.00828747
0.00503685
0.00533274
0.0108585
0.00773612
0.0154053
0.628449
0.00752765
0.00725971
0.00682467
0.00819641
0.00871788
0.00542215
0.00700675
0.00564438
0.365555
0.00748388
0.630863
0.0724182
0.00775336
0.12844
0.0541944
0.0167889
0.00668587
0.148635
0.0076857
0.00803734
0.367188
0.00752349
0.00824421
0.00576114
0.00809783
0.00773504
0.158038
0.00774355
0.582139
0.013422
0.0199865
0.00723583
0.0124077
0.04894
0.00596129
0.21338
0.00776322
0.00967447
0.0306774
0.00655074
0.0123429
0.0304132
0.0225701
0.00747298
0.0389954
0.0825924
0.00645205
0.00734245
0.0278886
0.00694752
0.0183035
0.0243503
0.354618
0.007118
0.00860384
0.00796714
0.00620556
0.00736845
0.00476455
0.0381811
1.2864
0.00795826
0.0240202
0.0280474
0.008208
0.0345613
0.00709489
0.00700555
0.85802
0.0480243
0.285276
0.174428
0.00816656
0.00793068
0.0221057
0.239773
0.219336
0.250003
0.00492061
0.00817782
0.0072045
0.00603535
0.2558
0.047651
0.00811522
0.0073973
0.0279953
0.0673949
0.0348173
0.00677071
0.0879655
0.223494
0.00638836
0.0055876
0.00728301
0.00716935
0.23282
0.00524313
0.00832385
0.0151239
0.00780012
0.00636708
0.368846
0.0108024
0.00991241
0.0389084
0.0103566
0.00750957
0.194547
0.0225456
0.00836406
0.00456479
0.0145064
0.00662112
0.38407
0.00806578
0.00769096
0.00703353
0.143313
0.00617775
0.00745939
0.0275501
0.00834006
0.00815136
0.00859551
0.00529982
0.00770552
0.0361922
0.0180897
0.00814651
0.451689
0.0365237
0.00813192
0.031497
0.00700611
0.00517282
0.0323367
0.00803078
0.0081687
0.00788873
0.0067946
0.00793625
0.00720468
0.00804339
0.0496661
0.0346347
0.00578288
0.0441177
0.00692668
0.0234065
0.0180633
0.00855526
0.00682514
0.0158853
0.00493419
0.00674866
0.00600542
0.00665886
0.00685759
0.00796008
0.0380756
0.175645
0.0240735
0.0954787
0.00859361
0.0103102
0.351313
0.0165994
0.0115356
0.00759878
0.0336994
0.0653369
0.132028
0.00476412
0.0197262
0.0326092
0.00605631
0.00795278
0.907441
0.00483734
0.00674419
0.0295825
0.0282105
0.00584395
0.0124127
0.0168477
0.00461218
0.595278
0.312145
0.00790028
0.00723636
0.0652628
0.0446501
0.0104526
0.00811838
0.00703368
0.00839136
0.00746032
0.0785676
0.00761677
0.00845936
0.135007
0.00874884
0.00735582
0.0077033
0.00756804
0.00671239
0.00857922
0.00727352
0.0100816
0.00704295
0.00879201
0.00804496
0.03159
0.00819489
0.0601423
0.00770526
0.0209461
0.00838556
0.00768979
0.059561
0.251257
0.00705277
0.00780649
0.00711589
0.0216991
0.00826705
0.00818783
0.00810969
0.00741905
0.00622063
0.00741034
0.0310733
0.00511965
0.0590026
0.0084811
0.0103111
0.00789382
0.00669107
0.0085357
0.00846455
0.00801851
0.16415
0.00755283
0.0172078
0.00790307
0.00799629
0.47691
0.00845157
0.00855463
0.139689
0.187882
0.0141496
0.00756367
0.0199054
0.00789569
0.0481795
0.011566
0.0138974
0.0074471
0.00626852
0.0239056
0.0076296
0.0321274
0.00719053
0.0153494
0.0256258
0.00799851
0.0179226
0.0075868
0.141899
0.0119354
0.00496941
0.0226469
0.00643016
0.00596879
0.0084021
0.0104309
0.0301895
0.00752716
0.00811404
0.0297762
0.00676767
0.00681287
0.00690977
0.00544091
0.00789432
0.0285734
0.0302748
0.00698514
0.01774
0.00798209
0.00770266
0.00702608
1.19594
0.00936062
0.00735368
0.185303
0.0321516
0.00821173
0.00706269
0.0289699
0.0105786
0.00660799
0.00727027
0.01549
0.0393712
0.00753898
0.0069358
0.0764445
0.00715301
0.00830293
0.00736825
0.00693106
0.00785422
0.0238102
0.00764193
0.0228422
0.00600796
0.0134087
0.00813188
0.00502671
0.0284501
0.00690314
0.0208901
0.00765754
0.00730868
0.0394705
0.0136536
0.00549861
0.00845912
0.00742933
0.2214
0.00726321
0.00705054
1.5983
0.00673156
0.00714699
0.00712878
0.00705843
0.00647439
0.00632748
0.0149573
0.00513096
0.0165192
0.00713265
0.00758609
0.0155974
0.00455116
0.00748406
0.00645747
0.00564039
0.00730703
0.257316
0.0085545
0.0254967
0.00748469
0.00688694
0.00596993
0.00713624
0.0124148
0.00795552
0.0072197
0.00673963
0.0075666
0.00837615
0.0304151
0.0307904
0.0132281
0.0106998
0.028623
0.00669996
0.00756147
0.00746232
0.218149
0.00724843
0.00617584
0.347139
0.00680137
0.214956
0.147632
0.00685855
0.00810105
0.00718994
0.00537828
0.00491603
0.0068078
0.00794809
0.0228646
0.0370278
0.00473248
0.0349714
0.00780876
0.0685306
0.042099
0.964544
0.010449
0.0116824
0.00493621
0.00828815
0.00690974
0.0250291
0.00790248
0.0111666
0.00527446
0.0103035
0.00523569
0.0580462
0.0164758
0.0271804
0.269152
0.00780863
0.363039
0.00870336
0.00654427
0.00603281
0.00898943
0.00840662
0.5811
0.00781847
0.284538
0.319642
0.0050615
0.048033
0.0264824
0.339649
0.00739849
0.00781116
0.00741621
0.00727229
0.00765866
0.00621679
0.00707559
0.0223715
0.00775676
0.189723
0.0161726
0.00764125
0.00818196
0.00974561
0.052812
0.00813392
0.00846272
0.0081238