/*--------------------------------*- C++ -*----------------------------------*\
| =========                 |                                                 |
| \\      /  F ield         | OpenFOAM: The Open Source CFD Toolbox           |
|  \\    /   O peration     | Version:  3.0.1                                 |
|   \\  /    A nd           | Web:      www.OpenFOAM.org                      |
|    \\/     M anipulation  |                                                 |
\*---------------------------------------------------------------------------*/
FoamFile
{
    version     2.0;
    format      ascii;
    class       volVectorField;
    location    "0.673922";
    object      U;
}
// * * * * * * * * * * * * * * * * * * * * * * * * * * * * * * * * * * * * * //

dimensions      [0 1 -1 0 0 0 0];

internalField   nonuniform List<vector> 
21246
(
(5.53637 -0.493341 1.78079e-18)
(4.05892 -0.378522 1.83479e-19)
(3.98282 -0.235721 0)
(3.64029 -0.205729 1.0618e-19)
(3.27065 -0.195982 0)
(2.94374 -0.204617 0)
(2.67319 -0.222706 0)
(2.44434 -0.244189 2.31871e-19)
(2.24774 -0.268075 -9.34151e-20)
(2.07621 -0.293046 -9.27508e-20)
(1.93087 -0.310642 0)
(3.93371 -0.741019 1.23335e-18)
(2.48979 -0.877941 -6.2083e-19)
(3.11664 -0.960792 0)
(3.24013 -0.914565 -3.23977e-19)
(3.1273 -0.802517 1.58982e-19)
(2.92264 -0.667616 1.70698e-19)
(2.70658 -0.569653 1.1462e-20)
(2.49436 -0.506539 -6.05318e-20)
(2.30154 -0.471108 5.05705e-20)
(2.12906 -0.455972 4.54079e-21)
(1.98403 -0.449078 0)
(2.45287 0.344907 -1.8645e-18)
(1.59026 -0.345756 -1.37608e-18)
(2.23494 -0.887733 2.46674e-18)
(2.52838 -1.08844 -1.00587e-18)
(2.66061 -1.11757 3.42894e-19)
(2.67789 -1.02598 -5.08705e-19)
(2.59708 -0.886327 0)
(2.4569 -0.760943 0)
(2.30516 -0.674061 3.06359e-20)
(2.1541 -0.620839 -7.72119e-20)
(2.02546 -0.592911 0)
(1.89391 1.59172 3.98583e-18)
(1.48295 0.521461 1.49185e-18)
(1.76978 -0.310218 -2.66088e-18)
(1.9809 -0.789882 5.46683e-19)
(2.17908 -1.05708 3.50501e-19)
(2.32302 -1.131 4.98156e-19)
(2.3739 -1.06953 -1.29725e-19)
(2.33876 -0.953901 -2.58509e-19)
(2.25255 -0.842956 1.35865e-19)
(2.14573 -0.766884 2.67853e-20)
(2.04956 -0.720779 3.26337e-20)
(1.92473 2.56146 3.5449e-20)
(1.64306 1.34829 -1.60332e-18)
(1.64771 0.406776 5.54495e-19)
(1.7253 -0.268527 -2.34033e-19)
(1.86807 -0.744285 -1.12984e-18)
(2.02272 -1.00502 -1.20824e-19)
(2.13399 -1.07962 2.92845e-19)
(2.17846 -1.03785 3.99771e-19)
(2.16429 -0.952528 -1.306e-19)
(2.10882 -0.87508 0)
(2.05153 -0.822724 0)
(2.27862 3.26403 -2.04047e-18)
(1.91214 2.06973 1.48687e-18)
(1.73321 1.08621 -1.56942e-19)
(1.68511 0.290491 1.86526e-18)
(1.7348 -0.326808 -1.07405e-18)
(1.83859 -0.741016 9.56635e-19)
(1.94869 -0.955225 -5.69256e-19)
(2.02849 -1.01481 -1.58083e-19)
(2.06465 -0.986614 1.65032e-19)
(2.05711 -0.933007 -2.23046e-19)
(2.04003 -0.890631 7.67716e-20)
(2.76037 3.76839 -9.21731e-20)
(2.2215 2.7074 2.53275e-18)
(1.93126 1.69825 -1.43171e-20)
(1.76994 0.827216 -2.81336e-18)
(1.72232 0.114036 1.17118e-18)
(1.75641 -0.414797 0)
(1.83275 -0.748961 0)
(1.91402 -0.911021 5.88133e-19)
(1.97589 -0.95373 -3.36361e-19)
(2.00478 -0.938841 6.61455e-20)
(2.02221 -0.917094 -1.31181e-19)
(3.02901 4.03339 3.21246e-18)
(2.48013 3.22592 -2.34364e-18)
(2.16139 2.23469 1.46602e-18)
(1.91109 1.33516 -1.26382e-18)
(1.77831 0.556329 -1.1976e-19)
(1.74278 -0.0614557 4.69052e-19)
(1.77314 -0.494967 -4.75484e-19)
(1.83611 -0.750404 -5.60737e-19)
(1.90493 -0.866235 6.80874e-19)
(1.95839 -0.897616 -8.5913e-20)
(2.00218 -0.901117 0)
(3.16465 4.05782 2.87581e-18)
(2.69909 3.57871 -2.21397e-18)
(2.39747 2.70666 1.75699e-18)
(2.08436 1.82439 -1.17829e-18)
(1.87923 1.00081 -2.05484e-19)
(1.7756 0.311627 7.36131e-19)
(1.75331 -0.205294 -4.40315e-19)
(1.78664 -0.544465 8.1333e-19)
(1.8497 -0.731478 -5.77215e-20)
(1.91826 -0.812806 -4.91405e-19)
(1.98479 -0.845175 -2.81377e-19)
(3.30393 4.03751 0)
(2.92892 3.81128 0)
(2.64943 3.11631 0)
(2.29325 2.29186 1.07564e-18)
(2.01959 1.44903 -6.1343e-19)
(1.84528 0.706384 0)
(1.76412 0.119365 0)
(1.75876 -0.294717 -5.41966e-19)
(1.80616 -0.549714 -3.47134e-19)
(1.8817 -0.683275 0)
(1.9688 -0.748131 2.78544e-19)
(3.41105 3.98701 0)
(3.09555 3.9132 -2.45463e-19)
(2.87454 3.41218 -3.66132e-19)
(2.51548 2.70436 1.04411e-18)
(2.1881 1.88557 -1.93055e-18)
(1.94434 1.1162 -4.94583e-19)
(1.80025 0.4766 1.92254e-18)
(1.74927 -0.000713647 -2.90598e-19)
(1.7731 -0.318155 3.13344e-20)
(1.84824 -0.504273 -1.51835e-19)
(1.95524 -0.606288 5.27926e-19)
(3.48873 3.93015 2.20796e-18)
(3.20827 3.94729 -1.98344e-18)
(3.05465 3.58677 7.21259e-19)
(2.72201 3.03062 -1.02834e-18)
(2.36475 2.28497 1.16582e-18)
(2.06219 1.52467 0)
(1.857 0.85747 3.35113e-19)
(1.75746 0.334318 -5.39906e-19)
(1.75244 -0.0353904 0)
(1.82041 -0.270696 0)
(1.9419 -0.412467 -2.60589e-20)
(3.54846 3.85998 2.48393e-18)
(3.28876 3.93881 -1.71175e-18)
(3.18776 3.67122 -3.56682e-19)
(2.89302 3.26603 0)
(2.53316 2.62944 -7.34021e-19)
(2.19008 1.91532 -4.75032e-19)
(1.93179 1.25116 1.48213e-18)
(1.78563 0.704487 -9.83303e-19)
(1.75012 0.296518 3.41454e-19)
(1.8069 0.0179687 3.46886e-19)
(1.93631 -0.164565 -2.127e-19)
(3.59042 3.77779 3.28197e-21)
(3.3456 3.89679 -2.29983e-19)
(3.2741 3.69232 0)
(3.02697 3.42005 5.15623e-19)
(2.68517 2.91022 3.71966e-19)
(2.32437 2.27425 5.26265e-19)
(2.02647 1.64424 -6.87262e-19)
(1.84033 1.09916 5.17695e-19)
(1.77619 0.670283 0)
(1.81993 0.357379 -3.46385e-19)
(1.95583 0.132264 0)
(3.60981 3.68581 3.12958e-19)
(3.37528 3.83164 4.57144e-19)
(3.31766 3.66298 3.43876e-19)
(3.11824 3.49254 -5.17941e-19)
(2.81911 3.12508 -7.27512e-19)
(2.45925 2.58281 1.60031e-20)
(2.14095 2.01389 -3.5124e-19)
(1.92743 1.49694 4.20067e-19)
(1.84161 1.06748 -2.89846e-19)
(1.8734 0.732802 1.80722e-19)
(2.00848 0.471812 1.08573e-19)
(3.61445 3.58338 3.06033e-19)
(3.3854 3.74877 -2.29564e-19)
(3.3376 3.60358 -1.69053e-18)
(3.16532 3.48958 7.95195e-19)
(2.92445 3.25386 -9.17993e-21)
(2.59392 2.83343 0)
(2.27333 2.33887 6.63705e-19)
(2.05058 1.87368 -4.88442e-19)
(1.95538 1.46358 -2.69161e-19)
(1.98138 1.1197 0)
(2.1188 0.82173 -8.71554e-20)
(3.60923 3.46949 2.16614e-18)
(3.3833 3.65123 -1.56519e-18)
(3.34208 3.52067 1.39906e-18)
(3.19267 3.44633 6.01771e-21)
(2.9927 3.29036 -1.06351e-18)
(2.72551 3.01214 5.31896e-19)
(2.41934 2.60379 9.82932e-19)
(2.20934 2.20655 -4.75486e-19)
(2.12202 1.83227 1.224e-19)
(2.1516 1.49283 1.96138e-19)
(2.29088 1.16582 -1.44509e-19)
(3.58985 3.35021 -2.37344e-18)
(3.36566 3.53839 1.67807e-18)
(3.33052 3.41856 0)
(3.20076 3.37219 2.54804e-19)
(3.03724 3.27005 0)
(2.82513 3.09063 1.25503e-19)
(2.57596 2.80202 0)
(2.39751 2.47459 3.84323e-19)
(2.3382 2.14804 -7.57319e-20)
(2.38534 1.8214 -9.17675e-20)
(2.52571 1.47539 5.73398e-20)
(3.56402 3.23066 -8.24984e-20)
(3.33959 3.41691 0)
(3.30715 3.30447 0)
(3.19234 3.27736 3.19058e-20)
(3.06006 3.21323 4.5878e-20)
(2.90028 3.10169 -1.61597e-19)
(2.72354 2.91766 4.39678e-20)
(2.60408 2.66574 -3.71722e-19)
(2.59347 2.39047 1.68901e-19)
(2.67366 2.08145 -6.38299e-20)
(2.82946 1.7124 0)
(3.534 3.11495 -1.31393e-18)
(3.30254 3.29247 2.11959e-18)
(3.26827 3.18689 0)
(3.16719 3.17354 1.01259e-18)
(3.06347 3.13553 -8.42598e-19)
(2.95285 3.07006 3.36897e-20)
(2.8516 2.95769 -3.9548e-19)
(2.81422 2.77265 2.93024e-19)
(2.86891 2.54059 -7.83607e-20)
(2.99675 2.24892 1.31714e-19)
(3.17825 1.86097 3.54849e-21)
(3.46383 2.99752 0)
(3.24956 3.16015 -6.82107e-20)
(3.21338 3.06683 1.99172e-19)
(3.12991 3.05895 0)
(3.05429 3.03289 6.05151e-19)
(2.9905 2.98929 -6.10814e-19)
(2.96726 2.90085 -2.15212e-19)
(3.02107 2.74503 -6.59624e-20)
(3.15176 2.52082 8.13454e-20)
(3.34002 2.22139 0)
(3.55393 1.80547 -3.35985e-20)
(3.3887 2.85915 -1.73895e-18)
(3.18081 3.01723 1.53341e-18)
(3.15566 2.9194 -1.80927e-18)
(3.09096 2.90252 6.67789e-19)
(3.04192 2.85608 2.34593e-19)
(3.02565 2.78217 3.35594e-19)
(3.07366 2.65254 2.39018e-19)
(3.19917 2.44981 0)
(3.38988 2.17296 0)
(3.6245 1.84 0)
(3.86401 1.43208 0)
(3.16113 2.7568 -1.58343e-18)
(3.10785 2.82446 1.15878e-18)
(3.08331 2.71827 -8.24508e-19)
(3.0424 2.64831 0)
(3.02748 2.53209 -1.14548e-18)
(3.05558 2.3714 4.05855e-19)
(3.14769 2.15056 3.32894e-19)
(3.3009 1.87942 4.3271e-19)
(3.49832 1.59991 -2.6928e-19)
(3.73143 1.32936 1.91066e-19)
(3.96191 0.995516 4.94726e-19)
(3.06792 2.22355 2.22605e-18)
(3.04083 2.42136 -2.06085e-18)
(3.09137 2.2318 -7.15071e-19)
(3.08193 2.07393 -1.38884e-20)
(3.07348 1.90791 1.38671e-18)
(3.09747 1.72039 0)
(3.16937 1.52303 -6.85085e-19)
(3.28961 1.33984 3.84793e-20)
(3.45588 1.15438 -7.14002e-19)
(3.67425 0.9399 4.37853e-19)
(3.9064 0.638495 -2.7466e-19)
(4.86213 2.05249 0)
(4.20286 1.89796 -7.27244e-19)
(3.77831 1.22881 0)
(3.41358 0.750662 0)
(3.09225 0.442006 -2.82574e-19)
(2.81319 0.240228 8.61612e-19)
(2.57211 0.102741 5.73898e-20)
(2.3622 0.00382143 0)
(2.17819 -0.0719676 2.64548e-19)
(2.0159 -0.131074 0)
(1.87278 -0.171242 1.66199e-19)
(1.76525 3.21716 -5.57124e-18)
(2.55593 2.65869 4.13688e-18)
(2.79307 2.12911 1.70565e-18)
(2.85297 1.55943 -1.85814e-18)
(2.78541 1.08604 -3.58594e-19)
(2.6445 0.723686 -3.24175e-19)
(2.47014 0.460046 -4.52352e-19)
(2.2896 0.270822 3.8139e-19)
(2.11792 0.132303 -2.7178e-19)
(1.96067 0.0296321 -2.13749e-19)
(1.81995 -0.0396813 0)
(0.44323 2.7915 5.68426e-19)
(1.13807 2.43802 0)
(1.69608 2.29715 0)
(2.10255 1.93858 1.85339e-18)
(2.28829 1.51086 2.14019e-19)
(2.32398 1.11364 -5.58884e-19)
(2.26449 0.786549 -3.07644e-19)
(2.15271 0.532483 -3.05711e-19)
(2.02017 0.339622 0)
(1.88424 0.195488 2.10838e-19)
(1.75421 0.0961707 -1.49318e-19)
(0.0625104 2.27288 7.78967e-18)
(0.613537 1.96873 2.91681e-19)
(0.905594 2.04863 -6.2525e-18)
(1.30221 1.91758 2.3785e-18)
(1.66236 1.66875 1.31434e-18)
(1.88994 1.3456 -1.12135e-18)
(1.97521 1.0206 3.03605e-19)
(1.956 0.741288 0)
(1.88204 0.517533 0)
(1.78271 0.344706 5.99277e-20)
(1.67316 0.223807 1.03898e-19)
(-0.0243813 1.80676 -9.41985e-20)
(0.410687 1.52914 1.03559e-19)
(0.564285 1.69436 -8.14051e-20)
(0.862671 1.68986 0)
(1.16227 1.59172 2.51012e-19)
(1.41782 1.40089 0)
(1.59388 1.15489 0)
(1.68302 0.8975 0)
(1.6935 0.663646 5.65464e-20)
(1.65165 0.468573 0)
(1.57877 0.323827 0)
(0.0117204 1.44882 -1.08103e-18)
(0.34385 1.1928 -3.60057e-19)
(0.410255 1.36972 -1.61528e-19)
(0.63218 1.41226 1.04535e-18)
(0.870749 1.39856 7.01748e-19)
(1.10207 1.3077 -3.14996e-20)
(1.29072 1.15038 -5.46111e-19)
(1.41642 0.953623 0)
(1.4778 0.748013 1.51501e-19)
(1.48609 0.556268 1.26175e-19)
(1.45517 0.404958 0)
(0.113464 1.19469 1.51635e-18)
(0.354656 0.957426 -2.03288e-18)
(0.363675 1.12029 1.81956e-18)
(0.523834 1.17306 -6.26984e-19)
(0.697734 1.19811 3.51969e-19)
(0.883113 1.16549 2.39941e-19)
(1.0543 1.07208 -8.03126e-19)
(1.19009 0.929682 1.15372e-18)
(1.28014 0.760743 -9.63395e-19)
(1.32715 0.58576 1.3857e-19)
(1.33296 0.43838 2.76495e-19)
(0.240133 1.02747 0)
(0.401746 0.807934 9.55646e-20)
(0.376174 0.947987 0)
(0.491477 0.995904 0)
(0.609979 1.03447 -6.15588e-19)
(0.745508 1.02998 1.36302e-19)
(0.881693 0.974715 2.58863e-19)
(1.00272 0.871341 0)
(1.09824 0.732874 5.63016e-19)
(1.16767 0.575752 -5.93095e-19)
(1.20166 0.434726 2.70599e-19)
(0.37374 0.919892 -1.43113e-20)
(0.470385 0.717031 -1.5106e-20)
(0.419047 0.837473 -2.5655e-19)
(0.502629 0.876868 2.25284e-19)
(0.575369 0.918116 0)
(0.664908 0.924414 5.11841e-19)
(0.760605 0.888073 -1.06001e-18)
(0.853717 0.807632 6.30547e-19)
(0.938496 0.690515 -5.02087e-19)
(1.0148 0.548524 0)
(1.06829 0.417909 -2.46053e-19)
(0.521473 0.856089 1.37059e-20)
(0.552906 0.663023 1.45295e-20)
(0.481507 0.773029 -2.02119e-20)
(0.541286 0.803706 1.31406e-19)
(0.573518 0.844231 -1.02084e-19)
(0.622008 0.852175 8.72959e-20)
(0.676761 0.822265 0)
(0.735501 0.751408 0)
(0.798786 0.644682 -3.11444e-20)
(0.869567 0.509317 1.11289e-19)
(0.928509 0.380304 -3.2002e-19)
(0.67618 0.84507 6.5647e-20)
(0.650739 0.64668 -1.90944e-19)
(0.573394 0.742149 1.84157e-19)
(0.600575 0.766049 0)
(0.595583 0.805156 -1.68218e-20)
(0.607408 0.809135 -8.705e-20)
(0.621841 0.777427 0)
(0.642823 0.705765 -4.9039e-20)
(0.677062 0.599364 -6.95245e-20)
(0.732363 0.462994 7.2885e-20)
(0.78701 0.325694 5.59888e-20)
(0.836985 0.873109 -3.60575e-19)
(0.77072 0.669629 0)
(0.684663 0.744245 -3.41308e-19)
(0.673727 0.762705 1.70832e-19)
(0.642012 0.792557 1.65885e-20)
(0.619435 0.789138 7.44233e-20)
(0.595317 0.750047 2.8009e-20)
(0.576869 0.669229 5.92175e-20)
(0.575958 0.55341 -8.25886e-20)
(0.609204 0.408814 -6.16119e-20)
(0.659487 0.258825 -5.55204e-20)
(1.00761 0.921345 3.63823e-19)
(0.908795 0.721061 0)
(0.810095 0.770688 -2.57845e-20)
(0.768085 0.784053 2.24571e-19)
(0.711952 0.800942 -1.74844e-19)
(0.657805 0.785772 -7.22878e-20)
(0.599486 0.73326 -1.38594e-19)
(0.544303 0.637858 0)
(0.506111 0.505976 7.38926e-20)
(0.508178 0.346839 -3.88498e-20)
(0.54053 0.178325 -7.50214e-20)
(1.19549 0.986472 0)
(1.06723 0.793929 -8.32536e-20)
(0.955531 0.818106 1.00447e-19)
(0.886896 0.823052 0)
(0.808137 0.824761 0)
(0.726618 0.794826 3.32078e-19)
(0.638795 0.724718 2.29985e-19)
(0.551328 0.608656 -1.83057e-19)
(0.478803 0.452529 0)
(0.447472 0.268894 1.58193e-19)
(0.463586 0.0737671 -4.3374e-20)
(1.39363 1.06585 1.45366e-18)
(1.23724 0.88652 -7.61803e-19)
(1.11896 0.884658 1.48065e-19)
(1.03073 0.876783 1.11868e-19)
(0.933554 0.861238 0)
(0.830303 0.813724 0)
(0.718967 0.723094 -1.49227e-19)
(0.605461 0.582528 0)
(0.504249 0.396747 0)
(0.440816 0.181878 -2.59915e-19)
(0.441274 -0.0516638 2.57877e-20)
(1.59359 1.14456 -7.33727e-20)
(1.41569 0.988649 9.96994e-20)
(1.2987 0.964444 -1.51282e-19)
(1.19911 0.942243 -4.74591e-19)
(1.08992 0.90879 -1.02973e-19)
(0.972305 0.842078 -1.635e-19)
(0.84529 0.7291 6.822e-19)
(0.71428 0.561732 -4.98476e-19)
(0.593228 0.343184 2.61268e-19)
(0.504417 0.0931692 0)
(0.49149 -0.176756 3.90065e-19)
(1.79036 1.21916 3.4612e-20)
(1.59989 1.09412 -6.5039e-20)
(1.49214 1.05272 0)
(1.38958 1.01716 5.33293e-19)
(1.27631 0.966831 -4.11579e-19)
(1.15346 0.880982 1.65064e-19)
(1.02083 0.745372 -7.63769e-20)
(0.883652 0.55052 -1.97306e-19)
(0.75548 0.297749 3.28703e-19)
(0.65617 0.00693127 -1.10397e-19)
(0.623286 -0.301213 -1.49463e-19)
(1.97833 1.29036 3.21847e-20)
(1.78425 1.20095 6.85593e-20)
(1.69315 1.14692 0)
(1.59628 1.10006 -8.18521e-20)
(1.48808 1.03509 6.38661e-20)
(1.37052 0.931853 -4.51565e-19)
(1.24427 0.775322 4.09634e-19)
(1.11452 0.55496 -2.49783e-19)
(0.99326 0.270705 1.99567e-19)
(0.896397 -0.0581033 -1.35856e-19)
(0.867491 -0.405281 -1.98274e-19)
(2.15474 1.35622 -8.53164e-19)
(1.96495 1.30543 6.2132e-19)
(1.89567 1.24363 6.81167e-20)
(1.81238 1.18846 0)
(1.71824 1.11227 -6.52504e-19)
(1.61667 0.995162 -7.1436e-21)
(1.50963 0.821789 -1.85912e-20)
(1.4028 0.581045 2.85445e-19)
(1.30718 0.271724 0)
(1.23666 -0.088668 0)
(1.21976 -0.4676 1.18196e-19)
(2.32017 1.41625 -1.03459e-18)
(2.14094 1.40403 8.36183e-19)
(2.09574 1.33929 7.11197e-19)
(2.03193 1.27941 -4.7333e-19)
(1.9588 1.19635 7.65054e-19)
(1.88197 1.07032 2.77072e-20)
(1.80554 0.886266 -4.48495e-19)
(1.73623 0.633555 3.71098e-19)
(1.68319 0.310111 0)
(1.65618 -0.0702853 3.68712e-19)
(1.67365 -0.476748 -2.5768e-19)
(2.47546 1.47332 1.61056e-19)
(2.31178 1.49597 0)
(2.29014 1.43269 1.05184e-20)
(2.24863 1.37176 5.78911e-19)
(2.19973 1.28618 1.81626e-20)
(2.15251 1.15619 0)
(2.11458 0.9684 -2.69685e-19)
(2.09391 0.714668 -1.95646e-19)
(2.09726 0.393016 0)
(2.12946 0.0135994 -4.34473e-19)
(2.18073 -0.394622 -3.22596e-19)
(2.6224 1.52218 -1.98161e-19)
(2.47724 1.57665 3.15242e-19)
(2.47621 1.52014 2.43219e-19)
(2.455 1.46281 0)
(2.42862 1.37825 -5.08956e-19)
(2.41173 1.24805 -2.01346e-19)
(2.41648 1.06317 1.45937e-19)
(2.45121 0.820536 4.52227e-19)
(2.52046 0.51856 0)
(2.6325 0.162425 0)
(2.72217 -0.241868 6.50839e-19)
(2.75319 1.58328 2.31159e-18)
(2.63282 1.66393 -4.12393e-19)
(2.63986 1.62253 -5.90023e-19)
(2.63196 1.56957 0)
(2.62495 1.48329 -9.48901e-19)
(2.63933 1.35096 2.27033e-19)
(2.68869 1.17243 -6.75519e-19)
(2.77752 0.950842 -5.00367e-19)
(2.90566 0.682662 -7.00931e-19)
(3.07996 0.364886 0)
(3.22102 -0.0259562 0)
(2.88589 1.55483 3.95276e-18)
(2.78096 1.73676 3.33744e-20)
(2.79526 1.7081 -1.69093e-18)
(2.80147 1.65501 5.79331e-19)
(2.8195 1.56128 4.09187e-19)
(2.86956 1.42579 -4.28336e-21)
(2.9601 1.2596 7.93378e-19)
(3.08974 1.06936 1.4528e-20)
(3.25541 0.848036 3.81443e-19)
(3.46357 0.589262 5.19224e-19)
(3.65807 0.257784 -6.4085e-19)
(7.55593 -3.39518 0)
(6.52525 -3.04581 0)
(6.10326 -2.45633 0)
(5.77072 -1.98241 2.04361e-21)
(5.43594 -1.59656 3.70204e-20)
(5.11813 -1.29687 1.34553e-19)
(4.82943 -1.07065 0)
(4.56404 -0.894402 -1.24376e-19)
(4.32444 -0.754159 -1.43034e-19)
(4.10793 -0.641076 -5.93385e-20)
(3.91482 -0.562047 -1.73539e-19)
(4.52506 -4.54212 0)
(4.73027 -4.1186 0)
(4.94255 -3.4935 0)
(5.01115 -2.88719 0)
(4.94927 -2.35714 -7.84512e-20)
(4.80111 -1.91809 5.10829e-19)
(4.6109 -1.56741 -1.05751e-19)
(4.40641 -1.29187 -5.74087e-19)
(4.20415 -1.07555 2.37258e-19)
(4.01202 -0.906061 0)
(3.83467 -0.782307 0)
(2.70072 -4.23116 8.33108e-18)
(3.34671 -4.10166 0)
(3.77444 -3.80896 0)
(4.09116 -3.36806 1.56755e-19)
(4.26507 -2.88404 1.06772e-19)
(4.31207 -2.41739 0)
(4.2644 -2.0044 -5.84212e-19)
(4.15826 -1.65795 5.42348e-19)
(4.02276 -1.37624 0)
(3.8779 -1.15066 0)
(3.73431 -0.979183 0)
(1.71878 -3.55513 -7.01105e-18)
(2.33297 -3.65718 5.08401e-18)
(2.83229 -3.64772 -3.25393e-18)
(3.24277 -3.43359 2.64093e-18)
(3.54595 -3.09696 1.67498e-18)
(3.73599 -2.7046 -1.35222e-18)
(3.82146 -2.31074 4.53009e-19)
(3.82772 -1.94791 3.0366e-19)
(3.7808 -1.63238 -3.12232e-19)
(3.69989 -1.36948 7.92875e-19)
(3.59228 -1.16568 0)
(1.42316 -3.19198 -4.18389e-19)
(1.79076 -3.23561 -4.57787e-18)
(2.09976 -3.29426 3.67205e-18)
(2.50156 -3.25687 -6.6935e-19)
(2.87103 -3.08882 2.37943e-18)
(3.1554 -2.81053 -1.43521e-18)
(3.33693 -2.47871 -9.37372e-19)
(3.4282 -2.14056 -3.00346e-19)
(3.45431 -1.82296 -3.98029e-19)
(3.43898 -1.53919 -1.34712e-18)
(3.39597 -1.30127 7.88488e-19)
(1.30898 -2.89051 0)
(1.58026 -2.9129 4.43412e-18)
(1.76684 -2.98293 -3.7957e-18)
(2.03693 -2.97718 6.44671e-19)
(2.3271 -2.88845 -2.34788e-18)
(2.60569 -2.7124 7.31007e-19)
(2.84044 -2.47029 -5.19693e-19)
(3.01314 -2.19135 0)
(3.12193 -1.90417 0)
(3.17592 -1.63258 0)
(3.18362 -1.39981 0)
(1.22408 -2.63023 0)
(1.43699 -2.61929 4.85709e-19)
(1.5726 -2.67872 -7.47112e-19)
(1.78432 -2.68491 2.35764e-18)
(2.01803 -2.63706 -1.81829e-18)
(2.2571 -2.52296 6.72398e-19)
(2.47948 -2.34868 9.65599e-19)
(2.66686 -2.13142 -1.32885e-18)
(2.80978 -1.89224 9.89537e-19)
(2.90611 -1.65268 0)
(2.95345 -1.4356 0)
(1.13903 -2.41092 -5.5981e-19)
(1.31947 -2.36867 -4.6057e-19)
(1.42994 -2.4079 7.1279e-19)
(1.59933 -2.41194 0)
(1.78972 -2.37919 -1.65986e-18)
(1.99289 -2.2999 1.27621e-18)
(2.1948 -2.17412 0)
(2.38072 -2.0096 1.32827e-18)
(2.53971 -1.81875 -1.84103e-18)
(2.66382 -1.61866 -6.14242e-19)
(2.74126 -1.43415 0)
(1.06677 -2.21456 -1.03742e-18)
(1.22769 -2.15202 1.63164e-18)
(1.31997 -2.17455 -1.26117e-18)
(1.4625 -2.17252 0)
(1.62277 -2.14403 1.53194e-18)
(1.79709 -2.08226 -1.18122e-18)
(1.97707 -1.98624 -1.72827e-18)
(2.15238 -1.85924 1.27319e-18)
(2.3137 -1.70738 1.62146e-20)
(2.4515 -1.54171 3.68586e-20)
(2.55007 -1.38305 6.3791e-20)
(1.01559 -2.03994 -4.86196e-19)
(1.15948 -1.95913 0)
(1.23453 -1.96922 0)
(1.35715 -1.96142 0)
(1.49537 -1.93338 -1.4178e-18)
(1.6476 -1.88029 1.09534e-18)
(1.80859 -1.80173 -8.18742e-19)
(1.97118 -1.69932 -1.18517e-18)
(2.12816 -1.57569 9.26106e-19)
(2.27026 -1.43682 1.81823e-18)
(2.37898 -1.29695 -8.78702e-19)
(0.97938 -1.89505 4.17943e-19)
(1.10321 -1.79126 1.70721e-18)
(1.16435 -1.78767 1.0806e-18)
(1.27193 -1.77272 -8.43183e-19)
(1.39364 -1.74248 0)
(1.52927 -1.69313 0)
(1.67523 -1.62475 -1.54269e-18)
(1.82636 -1.53856 5.75969e-19)
(1.97733 -1.43572 -8.01639e-19)
(2.11984 -1.32021 5.99536e-19)
(2.23115 -1.20722 0)
(0.940359 -1.76643 1.02331e-18)
(1.04309 -1.64123 -1.61838e-18)
(1.09908 -1.62361 7.5921e-19)
(1.19789 -1.60051 7.86063e-19)
(1.30864 -1.56624 -9.11036e-19)
(1.43268 -1.5175 -9.3622e-19)
(1.56768 -1.45481 1.42483e-18)
(1.70983 -1.37941 -5.37361e-19)
(1.85525 -1.29187 0)
(1.99705 -1.19438 -5.37351e-19)
(2.11322 -1.09796 1.15749e-18)
(0.898931 -1.63557 1.56041e-18)
(0.984334 -1.49546 -1.05972e-18)
(1.03825 -1.46744 1.18325e-18)
(1.13127 -1.43767 -7.36588e-19)
(1.2348 -1.39928 1.14067e-18)
(1.35135 -1.34964 -4.41196e-19)
(1.47922 -1.28992 0)
(1.61551 -1.22163 7.24904e-19)
(1.75728 -1.14498 -3.67178e-19)
(1.89909 -1.06003 2.49679e-19)
(2.01943 -0.971874 -7.49879e-19)
(0.864866 -1.51327 1.00796e-18)
(0.934699 -1.35491 4.23573e-19)
(0.983817 -1.31634 -7.81753e-19)
(1.07109 -1.28006 6.88464e-19)
(1.16938 -1.2373 -8.12046e-19)
(1.2814 -1.18587 -4.05758e-19)
(1.40546 -1.12756 1.62878e-19)
(1.53881 -1.06431 -1.26269e-19)
(1.67871 -0.9964 -1.61045e-19)
(1.8205 -0.922921 -1.31725e-19)
(1.94036 -0.848651 3.33038e-19)
(0.828762 -1.39931 -7.77091e-19)
(0.880454 -1.21984 5.43816e-19)
(0.929723 -1.16857 -9.50795e-20)
(1.015 -1.12459 6.46037e-19)
(1.11119 -1.07668 -1.01472e-18)
(1.22173 -1.02272 3.84193e-19)
(1.34506 -0.965057 1.13945e-19)
(1.47835 -0.906109 -1.09811e-19)
(1.61849 -0.846328 4.62156e-19)
(1.76139 -0.783818 -3.14658e-19)
(1.8844 -0.719458 0)
(0.792887 -1.27618 -6.82608e-19)
(0.82579 -1.07962 0)
(0.878085 -1.01758 -1.28122e-20)
(0.963335 -0.966565 0)
(1.05985 -0.913416 1.51341e-20)
(1.17185 -0.85675 -1.80065e-19)
(1.29761 -0.799764 1.76282e-19)
(1.43372 -0.745545 1.90474e-19)
(1.57605 -0.694622 -2.81847e-19)
(1.72094 -0.643829 -2.24413e-20)
(1.84567 -0.590508 1.4483e-19)
(0.764217 -1.15114 0)
(0.778519 -0.935062 0)
(0.832555 -0.861494 0)
(0.917486 -0.80281 0)
(1.01602 -0.743961 0)
(1.13246 -0.684576 2.94156e-19)
(1.26402 -0.629186 4.18323e-21)
(1.40577 -0.581493 0)
(1.55172 -0.541634 -2.38548e-19)
(1.69826 -0.504915 0)
(1.8226 -0.464905 0)
(0.736774 -1.02768 0)
(0.729934 -0.788624 4.62041e-19)
(0.789434 -0.699642 -2.5152e-20)
(0.876908 -0.630917 -2.48685e-19)
(0.98154 -0.564844 0)
(1.10663 -0.503075 -3.10535e-19)
(1.24773 -0.451513 0)
(1.39748 -0.413955 0)
(1.54746 -0.388947 2.4056e-19)
(1.6948 -0.369506 0)
(1.81775 -0.344205 0)
(0.712479 -0.893837 5.88783e-19)
(0.681412 -0.63245 -6.70632e-19)
(0.751496 -0.525455 -4.81445e-19)
(0.84617 -0.444614 1.98488e-19)
(0.961741 -0.371492 4.51043e-20)
(1.10045 -0.309798 0)
(1.25452 -0.266814 0)
(1.41316 -0.245087 0)
(1.56544 -0.239748 0)
(1.71039 -0.240607 0)
(1.83025 -0.231417 0)
(0.697077 -0.742302 0)
(0.638536 -0.45935 0)
(0.725333 -0.331297 3.20049e-19)
(0.833019 -0.237309 0)
(0.967155 -0.159545 0)
(1.12568 -0.104414 0)
(1.29475 -0.0787545 0)
(1.45962 -0.0808696 3.7496e-19)
(1.60864 -0.100037 -3.26471e-19)
(1.74332 -0.122482 -2.03914e-19)
(1.85575 -0.129929 0)
(0.692617 -0.573657 0)
(0.609074 -0.259328 0)
(0.720724 -0.108406 1.98751e-19)
(0.853103 -0.00362607 -2.51451e-19)
(1.01493 0.0704372 0)
(1.19673 0.10629 2.17662e-19)
(1.37725 0.102122 1.64607e-19)
(1.53974 0.0679559 -3.87937e-19)
(1.67587 0.0213345 0)
(1.79123 -0.021756 4.5324e-19)
(1.88845 -0.0450611 -2.9709e-19)
(0.743975 -0.329283 0)
(0.588099 -0.0189452 -9.43348e-20)
(0.766489 0.151378 -2.23507e-19)
(0.93691 0.254599 1.90518e-19)
(1.13151 0.305454 1.05267e-19)
(1.33053 0.302325 -2.343e-19)
(1.50848 0.255638 -1.75134e-19)
(1.65264 0.185712 0)
(1.76287 0.114022 2.17467e-19)
(1.85009 0.0555085 2.08143e-19)
(1.92616 0.0201219 -2.23751e-19)
(0.649983 -0.249332 0)
(0.695598 0.226636 1.31963e-19)
(0.881637 0.415583 -2.39745e-20)
(1.11126 0.493711 7.8014e-20)
(1.33344 0.494997 -4.52569e-20)
(1.52798 0.437822 -4.69736e-20)
(1.67897 0.348201 0)
(1.78618 0.251371 4.66749e-20)
(1.85894 0.166148 -1.36699e-19)
(1.91181 0.103323 0)
(1.96035 0.0670995 2.75114e-19)
(2.03371 0.856461 -3.48412e-21)
(1.07963 0.835463 -9.92741e-20)
(1.56114 0.803438 7.64844e-20)
(1.68324 0.727737 -8.98902e-20)
(1.78723 0.621185 8.45669e-21)
(1.86828 0.495841 4.32576e-20)
(1.92082 0.370993 4.70203e-20)
(1.95016 0.26077 6.67125e-20)
(1.96413 0.174687 1.25063e-19)
(1.97248 0.118237 0)
(1.98723 0.0904407 0)
(7.24626 -1.52852 1.44928e-18)
(5.73125 -0.692286 3.4245e-18)
(6.07675 -0.895809 -3.76314e-19)
(6.15206 -0.971196 0)
(5.86433 -0.875181 4.18983e-19)
(5.42936 -0.744256 -3.59675e-19)
(5.0544 -0.634336 1.68462e-20)
(4.72247 -0.5293 -1.96921e-20)
(4.44033 -0.448901 0)
(4.18738 -0.385362 1.68434e-19)
(3.96739 -0.347662 0)
(4.62741 -1.74719 2.04448e-18)
(3.98728 -0.673949 0)
(4.90475 -0.345846 2.43415e-18)
(5.50418 -0.253088 -2.2959e-18)
(5.67836 -0.183452 -2.16006e-19)
(5.56266 -0.141345 1.82095e-19)
(5.27805 -0.131357 3.85675e-20)
(4.87072 -0.120113 3.29035e-19)
(4.54403 -0.109669 -2.40796e-20)
(4.25469 -0.0977501 6.9507e-20)
(4.01351 -0.102154 -1.23367e-19)
(2.42995 -4.10612 3.0824e-18)
(3.11645 -2.09724 0)
(3.93148 -0.890216 1.42956e-18)
(4.61921 -0.243168 7.84833e-19)
(5.09312 0.134813 -1.18739e-18)
(5.30364 0.328704 0)
(5.25407 0.378045 -4.35621e-19)
(4.96681 0.344668 8.07832e-19)
(4.60017 0.276078 0)
(4.28033 0.224439 0)
(4.02005 0.166448 0)
(2.39713 -6.12748 1.26326e-18)
(2.73729 -3.88623 9.90717e-19)
(3.2764 -2.10343 -1.41218e-18)
(3.89699 -0.863694 -9.66928e-19)
(4.46113 -0.0245531 1.14117e-18)
(4.85266 0.492448 0)
(5.0065 0.737069 0)
(4.89164 0.776707 -1.18213e-18)
(4.5987 0.688865 -3.12885e-19)
(4.25587 0.572063 -8.54887e-19)
(3.97424 0.461915 -1.61585e-19)
(2.60957 -6.163 0)
(2.58356 -5.34216 -1.80264e-18)
(2.88054 -3.43297 -1.06284e-20)
(3.38385 -1.78559 9.33252e-19)
(3.92202 -0.524356 0)
(4.3723 0.360282 1.32594e-18)
(4.64527 0.887064 8.872e-19)
(4.6761 1.09923 7.19677e-19)
(4.48937 1.07336 9.06955e-19)
(4.18458 0.931759 3.92358e-19)
(3.87365 0.769411 3.0577e-19)
(2.71405 -6.37573 -5.55915e-19)
(2.69468 -5.77459 -4.15443e-18)
(2.70549 -4.66367 3.85014e-18)
(3.03256 -2.83482 -9.32317e-19)
(3.48844 -1.231 1.33712e-18)
(3.92652 0.0055169 -1.37143e-18)
(4.24633 0.84272 -1.14015e-18)
(4.37054 1.28686 -1.53206e-18)
(4.28096 1.39124 -1.00887e-18)
(4.036 1.27651 5.7301e-19)
(3.75535 1.06739 6.14905e-19)
(2.8059 -6.61054 -3.62143e-18)
(2.83085 -6.09185 3.15282e-18)
(2.7521 -5.32633 0)
(2.84076 -3.8267 -4.86344e-19)
(3.16488 -2.05289 0)
(3.53974 -0.511521 4.79064e-19)
(3.84881 0.635741 -3.56716e-19)
(4.0122 1.34063 8.13866e-19)
(3.99097 1.62228 1.56759e-18)
(3.8047 1.58513 -6.93287e-19)
(3.58776 1.36197 -4.98467e-19)
(2.87874 -6.85946 0)
(2.94184 -6.37565 0)
(2.85379 -5.73439 0)
(2.8209 -4.69358 2.34085e-18)
(2.95597 -2.93072 -2.85418e-18)
(3.21575 -1.14916 1.0549e-18)
(3.46772 0.295444 0)
(3.62249 1.27098 0)
(3.63499 1.75604 -5.75779e-19)
(3.49902 1.83135 -2.43118e-19)
(3.3301 1.63142 3.06459e-20)
(2.94568 -7.11606 -3.80575e-18)
(3.03863 -6.65828 0)
(2.94706 -6.06442 0)
(2.86662 -5.16556 0)
(2.84246 -3.67655 0)
(2.95558 -1.83034 -7.20981e-20)
(3.10779 -0.145914 -8.80971e-19)
(3.21098 1.08926 5.79714e-19)
(3.2207 1.78613 0)
(3.11515 1.99465 1.97825e-19)
(3.02083 1.84774 0)
(3.01035 -7.35889 0)
(3.1187 -6.93087 0)
(3.00564 -6.37761 2.95058e-19)
(2.91336 -5.55301 1.88988e-18)
(2.79585 -4.3264 -1.50885e-18)
(2.75182 -2.50862 7.10527e-20)
(2.76612 -0.659108 1.03839e-19)
(2.78045 0.806929 0)
(2.75619 1.70816 -4.1573e-19)
(2.66521 2.05751 0)
(2.62676 1.98994 -4.90496e-19)
(3.06588 -7.55787 -4.11073e-18)
(3.1848 -7.17975 -2.95372e-18)
(3.03668 -6.66705 4.95999e-18)
(2.93165 -5.88988 -9.01455e-19)
(2.7547 -4.77857 -3.14777e-18)
(2.57622 -3.1136 -3.17499e-20)
(2.4373 -1.20929 1.8588e-18)
(2.33216 0.433693 0)
(2.2472 1.51485 4.11733e-19)
(2.1594 1.99827 9.38449e-19)
(2.1552 2.01832 -7.01213e-19)
(3.07617 -7.73759 3.82563e-19)
(3.19753 -7.41209 2.85268e-18)
(3.03113 -6.92455 -5.73913e-19)
(2.90033 -6.20118 -9.38173e-19)
(2.67705 -5.17752 -1.59195e-18)
(2.39739 -3.6618 0)
(2.11231 -1.76783 0)
(1.86707 -0.0173564 -1.42244e-18)
(1.70235 1.20217 0)
(1.6118 1.80084 0)
(1.65018 1.90193 0)
(3.07776 -7.88393 -4.51083e-18)
(3.18753 -7.58459 5.73768e-18)
(2.99783 -7.12855 -1.13207e-18)
(2.81447 -6.47029 0)
(2.5445 -5.53434 1.57605e-18)
(2.17109 -4.17651 -2.31979e-20)
(1.76879 -2.32743 2.01977e-18)
(1.38499 -0.539397 1.42705e-18)
(1.13737 0.766993 1.73483e-18)
(1.0382 1.45395 -1.2942e-18)
(1.155 1.64879 1.11191e-18)
(3.07482 -7.96916 1.81586e-20)
(3.13893 -7.69884 -2.87857e-18)
(2.92574 -7.28456 -4.71839e-18)
(2.68483 -6.69072 7.60813e-18)
(2.35525 -5.85328 -6.32307e-18)
(1.90484 -4.6438 -6.75867e-20)
(1.40967 -2.89902 -2.01483e-18)
(0.904605 -1.13511 2.84658e-18)
(0.584207 0.210269 -1.71866e-18)
(0.488083 0.957351 1.27846e-18)
(0.64842 1.24544 -1.02922e-18)
(3.0526 -7.99727 3.37984e-20)
(3.04054 -7.75945 0)
(2.80543 -7.37923 2.22873e-18)
(2.50909 -6.8475 -3.78619e-18)
(2.11735 -6.11708 6.1575e-18)
(1.60306 -5.11331 -2.49994e-18)
(1.02448 -3.48317 2.05255e-18)
(0.461078 -1.78142 -2.89007e-18)
(0.0905111 -0.462117 0)
(0.005212 0.321217 -1.79714e-18)
(0.200939 0.693206 1.33103e-18)
(3.00922 -7.96408 4.18101e-18)
(2.90042 -7.75797 0)
(2.63486 -7.40973 3.25436e-18)
(2.28184 -6.93606 -3.44953e-18)
(1.82835 -6.29511 2.95388e-18)
(1.27061 -5.43129 -2.33461e-18)
(0.678566 -4.20628 0)
(0.0879737 -2.53796 0)
(-0.296413 -1.22278 1.447e-18)
(-0.355099 -0.424984 -2.68925e-18)
(-0.114609 0.0120593 0)
(2.93173 -7.85056 3.19902e-18)
(2.7163 -7.67986 -1.30259e-18)
(2.41078 -7.37332 0)
(2.00578 -6.97304 -3.30861e-18)
(1.51239 -6.4409 2.61282e-18)
(0.947994 -5.72765 0)
(0.351786 -4.75101 3.15536e-18)
(-0.171907 -3.42092 -2.35937e-18)
(-0.545742 -2.08516 -2.40027e-18)
(-0.570728 -1.27268 2.53177e-18)
(-0.257444 -0.765659 0)
(2.79995 -7.64079 2.97006e-18)
(2.47664 -7.50763 -1.22532e-18)
(2.12228 -7.25736 0)
(1.67318 -6.95309 0)
(1.16336 -6.55923 0)
(0.631098 -6.02791 0)
(0.11632 -5.29432 0)
(-0.31956 -4.26839 0)
(-0.630985 -3.0799 1.22973e-18)
(-0.640533 -2.18506 0)
(-0.267862 -1.57925 0)
(2.57918 -7.31865 -2.09525e-18)
(2.15661 -7.22336 4.12975e-18)
(1.7451 -7.05654 -3.90486e-18)
(1.26723 -6.88767 -5.93114e-19)
(0.77926 -6.67473 0)
(0.334257 -6.3601 -2.34611e-18)
(-0.0333381 -5.87264 2.3483e-18)
(-0.316682 -5.10959 1.22275e-18)
(-0.522615 -4.11964 -9.10204e-19)
(-0.511147 -3.15409 0)
(-0.161989 -2.40732 0)
(2.20128 -6.87465 -6.71429e-19)
(1.70021 -6.81932 0)
(1.2271 -6.77756 7.92739e-19)
(0.742687 -6.7915 6.36844e-19)
(0.31774 -6.79003 -2.21573e-18)
(0.00964994 -6.69062 6.16787e-19)
(-0.160656 -6.41045 -1.55086e-18)
(-0.238837 -5.86164 1.16179e-18)