/*--------------------------------*- C++ -*----------------------------------*\
| =========                 |                                                 |
| \\      /  F ield         | OpenFOAM: The Open Source CFD Toolbox           |
|  \\    /   O peration     | Version:  3.0.1                                 |
|   \\  /    A nd           | Web:      www.OpenFOAM.org                      |
|    \\/     M anipulation  |                                                 |
\*---------------------------------------------------------------------------*/
FoamFile
{
    version     2.0;
    format      ascii;
    class       volScalarField;
    location    "0.14413";
    object      p;
}
// * * * * * * * * * * * * * * * * * * * * * * * * * * * * * * * * * * * * * //

dimensions      [0 2 -2 0 0 0 0];

internalField   nonuniform List<scalar> 
21246
(
12.2884
6.58683
3.96802
2.93435
2.60395
2.51455
2.47463
2.40315
2.29024
2.16817
2.12464
22.2212
18.1282
14.1754
11.0555
8.70393
7.03528
5.86115
4.99605
4.31825
3.7922
3.44825
19.8202
19.4453
17.4895
15.1431
12.7624
10.609
8.79939
7.33964
6.17999
5.28484
4.68609
17.3148
17.7704
17.3038
16.2414
14.6564
12.796
10.9415
9.27331
7.85872
6.70741
5.85891
15.4565
16.2569
16.2296
15.8802
15.0191
13.7556
12.253
10.6924
9.21023
7.9017
6.88722
13.7633
14.6557
14.7254
14.8153
14.5048
13.7748
12.6927
11.3956
10.0281
8.72422
7.64397
12.388
13.0674
13.2852
13.5004
13.4654
13.1126
12.4231
11.4579
10.3225
9.147
8.0953
11.3888
11.8584
12.0556
12.2801
12.3499
12.2015
11.7846
11.1053
10.2187
9.23373
8.32428
10.561
10.9256
11.0658
11.2522
11.3398
11.2804
11.0206
10.5418
9.8618
9.05367
8.27427
9.77168
10.1091
10.2243
10.3804
10.459
10.4316
10.2539
9.902
9.37389
8.71178
8.0443
9.16426
9.43833
9.51428
9.63521
9.69181
9.66822
9.52927
9.25289
8.82893
8.28201
7.73013
8.7967
8.94587
8.94837
9.01176
9.02624
8.98494
8.8566
8.62184
8.26782
7.80714
7.3389
8.37898
8.46417
8.43253
8.45293
8.42842
8.36245
8.22944
8.01467
7.70659
7.3106
6.91279
7.88442
7.96328
7.92676
7.92101
7.86608
7.77621
7.632
7.42482
7.14593
6.79415
6.44578
7.55873
7.55182
7.46354
7.41362
7.32288
7.20677
7.04793
6.84246
6.58557
6.2723
5.96813
7.17862
7.112
6.99058
6.903
6.77774
6.63526
6.46145
6.25679
6.02012
5.74219
5.47632
6.68055
6.59977
6.47322
6.36054
6.20694
6.04165
5.85669
5.65715
5.44438
5.20394
4.97128
6.24484
6.1042
5.94028
5.78674
5.60001
5.41333
5.22384
5.03828
4.85704
4.66216
4.4809
5.77911
5.56627
5.35766
5.15758
4.93762
4.73678
4.55748
4.40324
4.26684
4.12435
3.98996
5.21414
4.92349
4.67318
4.43287
4.19336
4.00139
3.86122
3.76432
3.68866
3.60275
3.49875
4.52672
4.14061
3.84845
3.58353
3.35676
3.21865
3.16099
3.15011
3.14668
3.11894
3.05157
3.68508
3.16235
2.85539
2.60956
2.46188
2.44705
2.51739
2.6075
2.67209
2.69148
2.65546
2.32245
1.98309
1.66091
1.54423
1.60239
1.78863
2.00404
2.17736
2.28346
2.32042
2.27768
3.00898
0.879234
0.920987
1.05717
1.29381
1.58174
1.80339
1.94893
2.02763
2.04209
1.96226
-35.5151
-15.637
-8.42874
-4.73563
-2.58411
-1.25579
-0.453856
0.0440748
0.363984
0.56878
0.779967
-53.813
-34.3378
-25.0629
-17.2647
-10.9329
-6.82325
-4.35537
-2.84311
-1.85635
-1.19298
-0.659304
-47.5504
-41.3892
-36.1602
-28.3418
-20.2141
-13.8425
-9.37836
-6.41515
-4.47165
-3.15211
-2.18619
-38.9485
-39.2135
-37.8348
-33.0678
-26.4548
-19.8497
-14.3444
-10.1963
-7.28071
-5.25374
-3.76343
-33.4302
-35.1005
-35.0331
-32.862
-28.7022
-23.3249
-17.9847
-13.4385
-9.88782
-7.26615
-5.32165
-30.4639
-31.7366
-31.8383
-30.8943
-28.4319
-24.4867
-19.9466
-15.6411
-11.936
-8.97454
-6.71418
-28.6895
-29.557
-29.5539
-28.9908
-27.3268
-24.3611
-20.6321
-16.8023
-13.2632
-10.2186
-7.79141
-27.1179
-27.8381
-27.8093
-27.3932
-26.0983
-23.7085
-20.5787
-17.2067
-13.9333
-10.9743
-8.43074
-25.5599
-26.2086
-26.204
-25.9052
-24.8421
-22.8214
-20.1131
-17.1139
-14.1125
-11.322
-8.83087
-24.0439
-24.6493
-24.6486
-24.4334
-23.5361
-21.7797
-19.3827
-16.6802
-13.9221
-11.3025
-8.91263
-22.6079
-23.1613
-23.1639
-23.0043
-22.2157
-20.6436
-18.4728
-15.9999
-13.4495
-10.9985
-8.71841
-21.2632
-21.7213
-21.7511
-21.5998
-20.8723
-19.4324
-17.4294
-15.1327
-12.7537
-10.46
-8.33905
-19.9769
-20.327
-20.3801
-20.2026
-19.5115
-18.1651
-16.282
-14.1155
-11.8731
-9.71457
-7.7281
-18.7151
-18.9675
-19.011
-18.8104
-18.1481
-16.8593
-15.0536
-12.9746
-10.8356
-8.79876
-6.93189
-17.4802
-17.6314
-17.6383
-17.4121
-16.7649
-15.5073
-13.7446
-11.7189
-9.6551
-7.7282
-5.99636
-16.2598
-16.3127
-16.2711
-16.0112
-15.3494
-14.1185
-12.3519
-10.345
-8.33606
-6.51643
-4.95552
-15.0374
-15.0076
-14.905
-14.606
-13.9135
-12.6538
-10.8715
-8.84175
-6.87688
-5.17096
-3.72793
-13.8112
-13.6999
-13.539
-13.1836
-12.4356
-11.1047
-9.24921
-7.19445
-5.28305
-3.73596
-2.45267
-12.5774
-12.3763
-12.1572
-11.7187
-10.8648
-9.41655
-7.45728
-5.39024
-3.57781
-2.27183
-1.16786
-11.3268
-11.0105
-10.7065
-10.1562
-9.12928
-7.52067
-5.47554
-3.47544
-1.88153
-0.828177
0.0253165
-9.91945
-9.53239
-9.1333
-8.42659
-7.17331
-5.38882
-3.33829
-1.51137
-0.226236
0.523749
1.0514
-7.6771
-7.54002
-7.32972
-6.41846
-4.90082
-3.06566
-1.29574
0.105521
0.931618
1.33599
1.66533
-6.94971
-7.93273
-6.81741
-5.22109
-3.20647
-1.25995
0.229509
1.12289
1.54768
1.75645
1.94775
-11.9796
-4.88557
-2.5389
-1.14306
0.129263
1.00636
1.48252
1.71612
1.81759
1.84148
1.73648
-0.224937
3.59783
4.12574
3.8707
3.24648
2.57992
1.96738
1.43324
0.968284
0.575324
0.376203
-23.4091
-10.7148
-6.40651
-2.95243
-1.09705
-0.275929
-0.0122173
-0.0042562
-0.0965539
-0.296851
-0.358623
-28.0635
-19.4399
-15.8496
-10.6158
-6.8192
-4.27446
-2.76545
-1.93164
-1.49236
-1.27288
-1.10925
-24.748
-21.4043
-19.7553
-15.2283
-11.4742
-8.19005
-5.76529
-4.12913
-3.0854
-2.42443
-1.95859
-20.4831
-19.5662
-19.1568
-16.3377
-13.6972
-10.7139
-8.13558
-6.10155
-4.62518
-3.59467
-2.85233
-17.1513
-16.9607
-16.9223
-15.3724
-13.8093
-11.5788
-9.40384
-7.42746
-5.81629
-4.58342
-3.6494
-14.5327
-14.5912
-14.6074
-13.7282
-12.8226
-11.2831
-9.65997
-8.00163
-6.50307
-5.24676
-4.22468
-12.3087
-12.518
-12.5343
-12.022
-11.4774
-10.4247
-9.26067
-7.9662
-6.70321
-5.55972
-4.58341
-10.5547
-10.7186
-10.7301
-10.4395
-10.1017
-9.37597
-8.54286
-7.55426
-6.53432
-5.55103
-4.66402
-9.21365
-9.27139
-9.25703
-9.07409
-8.84194
-8.3276
-7.71973
-6.96268
-6.14766
-5.32216
-4.53849
-8.08886
-8.07481
-8.04878
-7.91946
-7.74214
-7.36211
-6.90272
-6.31314
-5.65827
-4.97255
-4.31627
-7.15614
-7.06478
-7.02405
-6.92996
-6.7906
-6.50039
-6.13939
-5.66783
-5.13187
-4.55245
-3.97607
-6.46696
-6.28379
-6.22429
-6.13108
-6.00119
-5.75904
-5.45461
-5.05948
-4.60711
-4.11176
-3.60629
-5.96783
-5.7153
-5.63678
-5.52696
-5.37852
-5.14601
-4.86047
-4.50502
-4.10573
-3.67631
-3.25119
-5.56915
-5.26532
-5.1647
-5.02851
-4.86033
-4.62476
-4.33939
-3.99962
-3.62992
-3.24407
-2.86191
-5.24127
-4.90717
-4.77928
-4.61172
-4.41822
-4.16833
-3.87002
-3.52888
-3.17208
-2.81771
-2.48236
-4.95511
-4.60351
-4.45065
-4.25446
-4.03251
-3.75948
-3.43629
-3.07931
-2.72381
-2.39471
-2.10261
-4.67393
-4.31367
-4.13841
-3.91854
-3.67037
-3.37083
-3.01487
-2.63318
-2.27414
-1.9696
-1.72061
-4.38756
-4.02908
-3.83885
-3.60239
-3.32604
-2.98792
-2.58631
-2.17477
-1.81559
-1.54227
-1.35041
-4.10663
-3.75789
-3.55993
-3.30846
-2.99109
-2.59046
-2.131
-1.69369
-1.35024
-1.11927
-0.977219
-3.82814
-3.50194
-3.29918
-3.01694
-2.62865
-2.14162
-1.6303
-1.19658
-0.899501
-0.719385
-0.607925
-3.48764
-3.25323
-3.01984
-2.66052
-2.16434
-1.60107
-1.09161
-0.728669
-0.513179
-0.398378
-0.312068
-3.37901
-3.09095
-2.7162
-2.18905
-1.5869
-1.02834
-0.615608
-0.381038
-0.248301
-0.144186
0.108384
-2.77464
-2.0916
-1.53032
-1.01797
-0.616189
-0.360262
-0.264576
-0.264818
-0.289419
-0.310672
-0.232605
22.0841
15.7633
11.3736
8.35762
6.21427
4.67069
3.51705
2.61517
1.88581
1.31297
0.949378
16.5529
16.6411
14.559
11.7613
9.07354
6.86864
5.15013
3.81294
2.7611
1.9522
1.45132
9.87502
12.291
12.3329
11.6518
10.0314
8.03975
6.18561
4.62034
3.37085
2.42059
1.79827
4.10629
7.5394
8.55533
9.24734
8.88395
7.77538
6.38504
4.99477
3.75651
2.762
2.09446
0.136117
3.29291
4.44438
5.96227
6.58822
6.47317
5.77529
4.80135
3.75945
2.84111
2.20562
-2.36563
0.216309
1.1014
2.84655
3.87267
4.44662
4.40683
3.96085
3.29098
2.59374
2.06933
-3.89714
-1.79116
-1.24776
0.460166
1.46035
2.3785
2.78477
2.79556
2.50023
2.07066
1.71415
-4.77701
-3.03913
-2.8391
-1.16888
-0.414925
0.603425
1.22995
1.55018
1.57058
1.40239
1.21018
-5.43791
-3.87082
-3.92437
-2.4089
-1.72529
-0.77403
-0.0866368
0.402782
0.644493
0.699103
0.688595
-5.98451
-4.67989
-4.47957
-3.39185
-2.70901
-1.8246
-1.13472
-0.565533
-0.188128
0.0252409
0.157536
-6.37423
-5.3911
-4.99337
-4.0769
-3.43738
-2.61677
-1.94303
-1.34004
-0.885082
-0.570557
-0.329624
-6.58781
-5.76699
-5.38416
-4.55938
-3.96068
-3.19594
-2.54592
-1.93292
-1.43504
-1.05498
-0.752108
-6.7593
-5.98701
-5.63457
-4.87559
-4.31321
-3.59337
-2.96889
-2.35938
-1.84188
-1.42282
-1.07638
-6.91812
-6.12721
-5.77979
-5.05823
-4.52096
-3.83528
-3.23373
-2.63496
-2.11377
-1.67929
-1.31488
-6.85549
-6.12267
-5.80963
-5.12313
-4.60471
-3.94641
-3.36234
-2.77723
-2.2616
-1.82505
-1.46533
-6.73409
-6.03718
-5.74438
-5.08753
-4.57873
-3.94368
-3.37082
-2.80063
-2.29633
-1.86695
-1.51782
-6.5955
-5.90176
-5.60441
-4.96641
-4.45369
-3.8357
-3.26884
-2.71488
-2.22775
-1.81608
-1.48597
-6.36681
-5.68409
-5.37894
-4.75762
-4.23098
-3.62431
-3.06152
-2.52757
-2.06616
-1.68558
-1.38635
-6.0534
-5.38143
-5.0608
-4.45284
-3.90512
-3.3063
-2.75167
-2.2465
-1.8229
-1.48759
-1.22507
-5.66865
-4.99709
-4.64451
-4.04138
-3.4676
-2.87783
-2.34422
-1.88349
-1.51224
-1.23882
-1.02705
-5.19757
-4.51148
-4.1078
-3.5023
-2.9086
-2.34189
-1.8548
-1.4621
-1.1635
-0.945811
-0.790942
-4.59155
-3.87607
-3.40221
-2.80261
-2.22189
-1.71402
-1.30985
-1.00984
-0.783481
-0.627912
-0.530277
-3.91593
-3.06497
-2.53688
-2.00412
-1.5042
-1.10216
-0.808083
-0.590792
-0.431506
-0.332478
-0.280553
-2.36605
-1.66764
-1.28126
-0.952886
-0.663741
-0.454682
-0.295407
-0.143161
0.000438202
0.0911329
0.0090311
-11.7335
-6.5795
-4.41151
-3.26937
-2.33328
-1.63387
-1.19774
-0.965645
-0.845527
-0.790825
-0.733693
-10.6493
-8.25872
-6.76725
-5.36938
-3.99388
-2.88953
-2.14151
-1.67466
-1.39305
-1.23322
-1.11509
-8.33657
-8.20545
-7.67349
-6.6844
-5.45769
-4.24493
-3.23052
-2.49728
-2.01787
-1.7096
-1.48933
-7.45856
-7.55832
-7.4017
-6.9155
-6.11791
-5.11919
-4.10183
-3.23956
-2.60833
-2.17151
-1.85238
-6.87764
-6.9178
-6.87674
-6.65215
-6.17418
-5.44925
-4.58255
-3.74152
-3.05585
-2.54833
-2.15919
-6.3202
-6.33699
-6.31777
-6.20042
-5.91129
-5.4078
-4.72971
-3.99589
-3.33593
-2.80781
-2.38427
-5.84843
-5.81813
-5.79382
-5.70206
-5.50649
-5.15202
-4.63716
-4.03456
-3.44703
-2.9409
-2.51284
-5.45345
-5.37808
-5.33565
-5.2335
-5.06778
-4.79894
-4.40118
-3.9174
-3.41875
-2.9625
-2.55994
-5.13612
-5.02217
-4.95216
-4.83209
-4.66769
-4.4348
-4.10893
-3.7155
-3.29833
-2.89795
-2.52736
-4.88734
-4.74231
-4.65078
-4.51015
-4.33653
-4.11093
-3.82355
-3.48907
-3.13358
-2.78293
-2.44813
-4.69292
-4.5222
-4.41787
-4.25885
-4.07274
-3.8441
-3.574
-3.27333
-2.95777
-2.64348
-2.34069
-4.53681
-4.34488
-4.23469
-4.06142
-3.86333
-3.629
-3.36541
-3.08093
-2.78695
-2.49413
-2.21032
-4.40882
-4.20068
-4.08693
-3.90272
-3.69517
-3.45624
-3.19234
-2.91203
-2.62587
-2.34342
-2.07379
-4.30364
-4.08268
-3.96442
-3.77309
-3.55849
-3.31439
-3.04548
-2.76083
-2.47233
-2.19046
-1.92211
-4.21359
-3.98216
-3.86153
-3.66483
-3.44364
-3.19258
-2.91457
-2.61926
-2.32053
-2.03469
-1.76815
-4.13598
-3.897
-3.7744
-3.57354
-3.34522
-3.08433
-2.79206
-2.47946
-2.16513
-1.87004
-1.60512
-4.07052
-3.82737
-3.70272
-3.49915
-3.26247
-2.9872
-2.67308
-2.33461
-1.9982
-1.69201
-1.4273
-4.01585
-3.77284
-3.64852
-3.44375
-3.19696
-2.90025
-2.55282
-2.17763
-1.81406
-1.49997
-1.2477
-3.97257
-3.73657
-3.61648
-3.41325
-3.15281
-2.82172
-2.42229
-1.99807
-1.60699
-1.29372
-1.06506
-3.9447
-3.72527
-3.61622
-3.41527
-3.13069
-2.74447
-2.27946
-1.79051
-1.36861
-1.07648
-0.88892
-3.93111
-3.74865
-3.68043
-3.48643
-3.1869
-2.73684
-2.16445
-1.60081
-1.14231
-0.864729
-0.740908
-3.92764
-3.93324
-3.9293
-3.70455
-3.22568
-2.62935
-2.00733
-1.44615
-1.01286
-0.746132
-0.645935
-4.22471
-4.64028
-3.9868
-3.46006
-2.88564
-2.28615
-1.74977
-1.31462
-0.991158
-0.78296
-0.69149
-5.99862
-3.34915
-2.93802
-2.55617
-2.12133
-1.75018
-1.46249
-1.24044
-1.07229
-0.95731
-0.885822
-3.15908
-3.09521
-2.54879
-1.93199
-1.36954
-0.910462
-0.587988
-0.423934
-0.383467
-0.397666
-0.388207
0.544721
-0.107858
-0.475521
-0.521053
-0.350304
-0.111331
0.0742126
0.134821
0.0782424
-0.0269436
-0.0764773
1.38568
1.07671
0.790769
0.567988
0.494859
0.542192
0.614051
0.604085
0.475429
0.282466
0.159142
1.44013
1.27321
1.14688
0.99285
0.883755
0.846642
0.856669
0.831641
0.690151
0.463601
0.321522
1.29559
1.1418
1.06086
0.949906
0.849871
0.777991
0.739229
0.714342
0.627334
0.452783
0.299728
1.08593
0.903515
0.813948
0.686134
0.562588
0.451716
0.364282
0.316979
0.293241
0.229567
0.149242
0.855963
0.628705
0.511868
0.339334
0.162209
-0.0140696
-0.170385
-0.271461
-0.27193
-0.24036
-0.204103
0.611549
0.341454
0.194235
-0.0323972
-0.273314
-0.530806
-0.785262
-0.986571
-1.04774
-0.959178
-0.801024
0.375756
0.0560406
-0.11581
-0.399738
-0.70644
-1.04896
-1.4088
-1.73376
-1.92135
-1.86637
-1.58051
0.180289
-0.221451
-0.393779
-0.739068
-1.10899
-1.53345
-1.99548
-2.44635
-2.77352
-2.8324
-2.49111
0.0122031
-0.447019
-0.612785
-1.03322
-1.45718
-1.9542
-2.50653
-3.06905
-3.52223
-3.70734
-3.4492
-0.126966
-0.582589
-0.825334
-1.24355
-1.7224
-2.27912
-2.90345
-3.55253
-4.12264
-4.41654
-4.28256
-0.216399
-0.662305
-0.953009
-1.37781
-1.88769
-2.48536
-3.15964
-3.86845
-4.52226
-4.9134
-4.84144
-0.242893
-0.67495
-0.992609
-1.42163
-1.9442
-2.56167
-3.26104
-3.99861
-4.69048
-5.16104
-5.20304
-0.215746
-0.620927
-0.946717
-1.36929
-1.88879
-2.50736
-3.20897
-3.94722
-4.63859
-5.14492
-5.28387
-0.128683
-0.496267
-0.81688
-1.22303
-1.72667
-2.32961
-3.01135
-3.73044
-4.40373
-4.90205
-5.11543
0.0228412
-0.300261
-0.605943
-0.987416
-1.46218
-2.03067
-2.67682
-3.35945
-3.98785
-4.45206
-4.63894
0.229046
-0.0486247
-0.333644
-0.682766
-1.11193
-1.63282
-2.23093
-2.85715
-3.42689
-3.84673
-4.0385
0.463294
0.225098
-0.0339071
-0.339764
-0.717047
-1.18049
-1.72265
-2.28817
-2.78854
-3.13593
-3.24946
0.694768
0.501017
0.273013
0.00231487
-0.343141
-0.778667
-1.27343
-1.76365
-2.16872
-2.40521
-2.38072
0.919818
0.754755
0.52634
0.228354
-0.14804
-0.578122
-1.01689
-1.40946
-1.70144
-1.82825
-1.74073
1.07837
0.871509
0.566446
0.166844
-0.26815
-0.677327
-1.0163
-1.27746
-1.45153
-1.50571
-1.42438
0.970609
0.696083
0.188717
-0.325671
-0.743378
-1.02026
-1.18609
-1.286
-1.34128
-1.33643
-1.23733
0.980018
-0.127814
-0.769788
-1.17509
-1.35252
-1.37877
-1.34599
-1.3021
-1.2564
-1.19887
-1.1222
-1.93695
-0.740907
0.091931
0.526372
0.562307
-0.20562
-1.37675
-2.29167
-2.51702
-1.58371
-0.705106
-0.0477949
0.327992
0.359918
-0.249949
-1.14557
-1.78098
-2.00709
-1.50863
-0.730769
-0.190745
0.137603
0.175305
-0.32853
-1.09548
-1.72556
-1.88624
-1.40297
-0.754321
-0.304865
-0.0269432
-0.00581928
-0.416534
-1.04557
-1.48437
-1.68184
-2.80584
-2.8401
-2.1965
-1.58824
-1.37036
-1.32583
-1.39444
-1.60899
-2.11123
-2.18992
-2.2822
-1.86809
-1.5245
-1.38352
-1.33914
-1.39175
-1.49338
-1.74917
-2.08287
-2.14832
-1.79312
-1.46641
-1.36077
-1.3223
-1.36073
-1.44042
-1.66743
-1.83249
-1.92033
-1.66892
-1.39123
-1.3274
-1.28417
-1.29818
-1.37312
-1.54542
1.78294
2.21079
2.21657
0.0724796
-0.299034
2.30998
-0.851638
1.8781
2.30423
1.87133
-0.319553
1.88389
-0.300617
-0.0118347
1.77467
0.974994
-0.0113736
0.0720517
0.97564
1.81185
0.548371
-0.726335
1.36533
0.0103327
2.24419
-0.0130126
-0.302699
-0.827974
-1.66615
-0.00265035
-0.0106003
0.412704
-0.00197867
1.23145
0.336305
2.22903
0.00902129
2.25564
-0.00140844
1.91839
-1.63255
1.24256
0.0128563
1.37744
-0.358786
-0.951359
0.00134034
-0.992326
0.82967
1.97475
0.00105813
1.92573
0.00239697
0.0138604
1.93571
0.561799
-0.718897
1.86994
-1.73375
0.0164495
-0.92167
0.00213843
-0.281406
-0.0744928
-1.47669
1.80926
0.0555685
2.3014
2.22466
1.88064
-0.0574637
2.78539
0.026325
3.75317
0.0370004
2.78018
-0.852845
1.28293
-0.376599
-0.713083
0.0104083
-0.0700407
1.87821
1.89963
-0.456742
0.0306322
-2.49219
0.00235451
-0.44156
0.00959463
2.26475
1.85001
-1.49065
3.63096
-0.682976
-1.11174
0.0362978
-0.482346
-0.396903
2.96603
-0.361641
-1.03117
1.69635
-0.0910099
-0.3746
2.23043
-0.00214412
1.87907
-0.00114682
-0.0573734
1.41521
1.23399
3.04102
0.0683238
0.0512168
1.85154
1.85746
1.15114
1.97274
1.50677
0.0148571
3.40494
-0.736379
-0.0170936
-0.984708
-0.489212
0.00256663
-0.00182382
-0.000280945
-0.00236707
1.60713
0.0182143
-0.994293
2.75312
2.22597
-0.567439
-0.736771
-0.106431
-0.00787983
0.933026
0.0114898
0.365951
-0.435485
1.05456
1.82055
-0.206303
-0.625074
2.24082
2.14034
1.1912
1.42891
2.3176
-0.201823
3.49344
0.0796986
0.00732075
0.0440691
-0.686096
-0.0264376
2.00442
-0.3121
-0.391088
2.81132
2.03978
0.0607416
-0.00186728
-0.434304
0.27999
-0.605746
-1.42499
-0.0034705
-0.00660619
-0.635198
0.336966
0.47096
0.488145
-0.00160787
-0.264343
-0.415913
0.573584
2.12432
-0.742117
2.21558
-0.283749
2.18395
0.0618668
1.43428
1.11034
2.1151
-0.347434
-0.00231047
-0.0318728
1.71473
-1.54121
2.22509
2.16769
2.47371
-0.394709
-0.00232029
1.85669
-0.405397
2.18482
-0.00557401
-0.0196267
2.22358
0.00179611
3.58084
-0.000648096
2.10399
1.76466
0.00824706
1.09992
0.213562
0.489876
1.29291
0.0128326
2.29673
0.0092216
1.58755
-0.0772004
0.00014896
0.0552578
0.0396691
0.0503737
-0.0153841
1.75909
-0.283099
-0.00187116
-0.00135401
-0.163925
-0.622825
1.68449
1.45075
3.14026
-0.242839
-1.43802
0.032108
2.21665
1.64281
1.6559
0.0128102
0.0900382
-0.131577
-1.4038
3.46044
-0.418876
1.21128
-0.0269859
-1.06697
0.0152369
-0.0256883
0.00900097
0.0497487
2.02834
-0.371746
2.43154
0.662405
2.26711
-0.28286
1.40355
-0.00150476
-0.586607
1.73758
1.33366
1.39542
-0.0159996
0.315713
2.40566
-0.293698
-0.342528
-0.334764
1.56875
2.26956
4.86695e-05
2.46572
1.14982
-0.0246155
2.37119
1.01327
-0.395145
2.85199
2.00989
0.0114904
0.0260486
-0.329188
2.35789
-1.46537
1.73567
0.863314
0.00859465
1.5807
-0.773214
0.055951
-0.00272838
2.20785
2.07676
-0.564944
1.39796
0.425155
-0.030783
2.12281
-0.203328
0.676315
-0.000652576
0.706839
-0.108675
1.32022
0.0014207
-0.717719
1.47096
-0.805553
2.22
-0.142583
-0.000695325
-0.873574
1.13008
-0.170579
-0.35615
1.42123
4.02683
1.33821
0.00642483
1.11083
-0.10967
-0.245963
0.37234
1.22223
-0.165301
1.66126
0.0167812
1.91008
-0.295168
-0.824593
2.14003
-0.240511
-1.04514
0.0524304
1.3339
2.33499
-0.490498
-0.66774
0.0105927
2.2225
-0.00783924
-0.317973
0.00173543
0.0360827
1.17586
-0.00358072
0.00519787
-0.913089
-0.447324
-0.335028
0.758919
-0.0184313
1.85503
-0.000162039
0.890623
1.34705
0.0177153
-0.313032
-0.0162446
2.28689
1.87367
2.74043
-0.439828
-0.0065653
0.00490279
-0.906956
-0.479717
2.37643
-0.348861
-1.02567
-0.00590515
-0.0192085
1.56246
-0.250207
0.31105
2.3851
1.20135
0.0163508
2.21035
-0.287511
1.71063
-0.0382686
0.0515405
-0.094504
-0.0169642
0.0942801
-0.526773
2.29772
-0.732309
-0.00600905
2.28292
0.048087
-1.51155
1.29941
1.27886
1.99045
0.023026
-0.269751
1.84542
2.13442
0.0102873
-0.000308933
-2.08019
-0.464697
0.00151021
2.13741
0.00567753
0.495962
0.951606
-0.00682692
-0.00700663
-0.0926534
-0.21273
-0.0023709
3.65998
-0.00293574
-0.671866
-0.224827
-0.00484215
-0.909742
0.000502111
0.438006
0.0144772
3.64042
-0.00555766
-0.808586
-1.28603
1.1916
-0.294774
-0.0536665
1.32869
-0.810991
0.00155557
-0.0234678
-0.0192193
-0.0186906
1.16655
-0.254958
-2.35822
0.0503213
-0.134892
0.771433
0.00322074
0.0105229
-0.682293
2.11577
-0.425541
2.27441
1.90043
2.30889
-0.617625
-0.657
-0.926051
-0.00318805
-0.440911
-0.00218682
2.03576
2.14399
0.00362061
-0.0107492
-0.388564
0.631324
-0.00414883
-0.000907716
1.84369
1.11953
1.95725
0.455546
-0.29772
1.08578
-0.988889
0.668019
1.58939
1.54409
1.7725
-0.445275
1.41652
1.95838
0.589612
-0.0842162
-0.738106
1.33973
-0.147117
-0.282458
1.11368
0.00297979
1.90057
-0.545221
2.19707
0.730457
1.73673
-0.00063835
-0.0276575
1.73262
-0.0582485
0.127085
2.3846
-0.206218
-0.154967
2.13859
1.9362
-1.03394
0.00250382
-0.0578987
1.80516
-0.98209
1.16127
0.0233647
-0.0286432
-0.561709
-0.00340113
-0.376927
0.0415074
0.017521
-0.0633653
1.17949
-0.288516
1.36961
2.02256
2.39722
1.57109
0.508434
0.0153984
1.88089
1.92119
-0.0517095
2.14323
-1.03048
-0.712875
0.000818767
-0.0589719
-0.45228
2.16645
2.32107
2.00239
-1.47494
-0.436326
1.20788
2.05956
-0.0148572
2.13293
0.0557401
2.13712
0.00913654
1.00276
-0.760941
-0.000778884
-0.00483904
-0.926016
0.0270854
0.721592
0.270848
2.07205
1.52522
0.00122103
-0.667248
1.61537
-0.0082359
-0.894038
-1.05691
2.27249
2.65067
2.20397
0.0114254
0.0355631
-0.00613492
2.18277
1.65015
0.0255985
3.22938
-0.00337272
-0.00243929
0.00103852
-0.330695
1.39227
-0.00406288
2.32989
0.0205403
2.70868
0.0364692
-0.00187998
0.551959
-0.912617
0.00124167
1.86723
1.27526
-0.686545
2.01871
-0.248223
0.0863979
0.0197375
0.0138881
-0.638657
-0.143939
2.02583
1.95471
2.18207
-1.11158
-0.0179551
-0.0218763
1.77532
2.26968
-0.47846
1.35827
4.02312
0.523071
2.45886
-0.0203791
0.00140877
0.0181164
-0.288497
-0.286174
0.0704954
1.9949
-0.00222434
2.65537
2.11245
-1.09773
0.0157708
1.08181
2.12425
-0.698522
1.64635
2.09252
-0.0995723
2.20178
0.310265
-0.0823352
-0.0027198
-0.318522
-0.00321653
-0.00466611
-0.56048
0.00308225
-0.929344
-0.041844
-0.150915
-0.46463
0.0331785
-0.04097
1.16834
0.784618
-0.268921
-0.205532
1.05278
-0.102384
-0.0607397
0.0113105
-1.08153
-0.225931
-0.942462
1.24616
-0.0841415
2.20617
1.26838
1.3272
-0.217427
2.29224
1.66976
0.952757
1.51053
0.0924965
-0.00931192
-0.19538
2.61269
1.39298
0.908877
0.00434617
3.88732
-0.507707
2.98884
0.0554447
0.00197424
1.33322
0.000432644
2.04032
-0.00275861
0.10491
-0.0170924
-1.08895
-0.316523
-0.390835
1.87729
-0.00363782
-0.00998265
-0.636392
0.00529764
1.15201
-0.156319
1.89319
-0.325894
1.01419
-0.150061
2.18998
2.03985
2.33803
-0.315089
0.0126585
2.20862
-0.00184059
2.52681
-0.00157463
-0.0280275
0.243368
0.0861158
-1.26437
-0.00106574
-0.48494
-0.185791
-0.173883
-0.018922
-0.00103976
-0.865994
1.17651
-0.0320192
1.57527
1.78283
-0.801478
-0.887223
-0.562549
-0.00941516
3.14414
0.299942
1.46809
0.015779
2.04837
0.00187112
0.0063665
0.0101
0.125397
-0.27534
0.012733
0.0152538
2.7876
-0.113632
-0.376862
-0.364178
1.44516
-0.0177263
-0.907936
2.25564
-0.983069
-0.00527431
4.39104
0.0528982
1.65524
0.877169
1.29507
-0.00629585
2.80192
-0.00799273
2.22656
-0.00327779
2.40933
-0.00478537
0.00262884
0.0143531
-0.00016595
1.08317
-0.0333627
-0.923587
1.95892
-0.00685786
-0.246658
0.00780808
-0.0171189
-0.689538
0.228776
0.0416388
-0.0012845
0.00312124
1.22095
-0.475522
1.23765
0.0358111
-0.822321
2.204
1.96342
-0.287913
-0.317927
0.00830887
-0.133541
1.84786
-0.0227584
-0.110529
1.21205
2.12257
2.17804
1.56642
3.30744
-0.00262884
-0.711506
-0.341474
-0.00626064
-0.780067
2.28055
1.70143
-0.327172
0.0212338
2.23119
-0.607575
-0.0516092
-0.965501
0.0157737
-0.949394
0.307159
0.0465605
2.26501
1.60395
-0.987826
1.59516
1.87351
-0.164002
0.00103139
-0.299214
-0.23194
2.24881
-0.159858
-1.30623
0.022645
1.82902
-0.00277367
0.00301409
0.0131047
0.0491334
1.96039
1.19678
0.0761232
-0.00265219
0.00671519
1.89521
0.974962
4.30427
2.74292
1.7917
0.0250141
-0.108914
-1.00133
-0.955095
0.00753506
2.11789
-0.149575
2.04172
2.93326
-0.772297
1.68845
2.4206
1.92003
-0.35118
0.0056305
0.00798381
2.4235
0.0470945
2.36137
2.19293
2.67669
2.15855
-0.0979003
1.34996
2.25094
3.11829
-1.36986
1.23485
1.90012
-0.877446
-0.518836
1.76296
2.2973
-0.0630274
-1.28392
1.39267
-0.528475
-0.00556019
0.0522033
1.51944
2.2227
0.359356
0.985524
0.0013604
1.71774
-0.0546552
-0.00259166
0.00351778
-0.00154526
1.39176
-0.0127404
1.69817
1.34826
3.00027
1.7535
1.29594
-0.454996
-1.02212
-0.612637
-0.0185713
0.00504099
0.00717285
-0.239016
-0.5801
1.27703
1.41363
-0.00306881
-0.000305567
-0.0162826
2.02007
-0.328323
3.02018
-0.11603
2.21153
-0.00248351
-0.0101743
-0.424323
-0.030575
1.79685
2.23116
0.0311853
-0.687234
0.00257233
-0.783832
-0.0109118
0.0453675
0.784928
0.00616895
2.51897
2.23126
-0.244024
-1.22959
0.038327
-0.671216
-0.00216313
-0.0129166
0.0118053
-0.881703
1.92677
0.038068
0.00370887
2.00028
0.0372953
2.28572
0.00674023
-0.00311274
0.00135316
2.01154
-0.0525231
2.09336
1.90087
-0.00236294
0.0842843
1.35142
2.34832
3.09587
-0.573643
-0.755793
-0.659508
-0.465771
1.81878
-1.94426
0.00105827
-0.759159
1.92393
0.00137727
-0.00229423
2.08854
-0.00680015
0.856524
0.0200648
0.0532889
-0.259343
-0.232548
1.07691
2.61034
-0.0690032
-0.00175987
1.38846
0.00186888
2.25672
-1.32301
0.000993886
-1.01172
2.22591
-0.00531525
0.0804167
0.0501944
-0.00505794
-0.0111177
1.86808
-0.0012878
-0.0991328
1.30171
0.171982
0.0247143
-0.0303686
0.023629
-0.0582693
1.97314
2.15593
-0.594265
0.782657
-1.46312
0.00149392
0.000502379
0.037421
1.80011
-0.0757748
-0.394925
-0.00647072
0.00530918
0.00362242
2.29773
-0.11731
-0.00244164
2.01979
1.10175
2.20698
0.0436854
0.168252
2.07772
-0.20638
0.00470797
-0.00697204
1.42724
-0.883296
-0.493072
0.464314
-0.116749
1.19872
1.82041
0.881595
-0.940517
1.46222
0.00780392
-0.275179
-0.383992
1.34672
0.733316
1.89131
1.92033
-0.0696642
0.0396013
0.0104775
-0.380961
-1.20713
-0.847189
1.83256
-0.213165
-0.22563
1.96743
-0.00959539
0.00653361
0.603429
-1.18356
-0.288549
0.0487372
0.901515
-0.0123801
1.93158
0.0285979
1.46415
-1.04923
-0.520597
3.51778
-0.6801
0.00309952
0.492211
-0.0447177
0.00348114
-1.04302
0.0150003
0.348431
-0.485419
-0.00192479
0.0190109
-0.939028
-0.015478
2.18533
-0.171777
3.07368
-0.1228
-0.0279829
0.0638532
0.245997
0.00380728
-0.36654
1.9931
2.18788
0.360872
1.45767
-0.000527454
-0.115972
2.24281
-0.0253484
-0.0453461
1.65717
-0.315846
-0.702333
-0.547573
-1.48145
-0.831539
-0.00027431
-0.00762123
0.00439557
2.02222
2.09664
0.039774
2.14119
2.23319
-0.092814
1.87047
3.44548
0.045244
2.92001
-1.07425
-0.0200236
0.0443347
2.04024
-0.152555
0.0142474
-0.0171599
-0.929693
1.92256
0.00241023
0.034583
-0.00497882
0.000949593
0.990612
0.000593736
1.61121
0.109107
0.00240426
0.998223
2.08504
-0.222032
-0.288308
-0.163313
-0.404605
0.0536461
2.26782
2.20867
2.12888
-0.574208
-0.00030675
-0.00787101
-0.601968
-1.28371
1.80919
0.28878
1.67828
2.19154
-0.428365
1.88075
1.39266
-1.4791
-0.981757
-1.00708
-0.244889
1.44366
1.12619
-0.00649953
-0.0632278
0.0106335
-0.920259
-0.0513373
2.20071
1.60567
-0.0139413
0.00532107
-0.00919595
-0.00433266
2.6403
-0.0355106
0.0150664
0.0299274
0.742267
-0.0208692
-0.373059
0.839451
-0.43683
1.29245
1.5473
-0.0936522
-0.00905498
-0.0660395
0.614492
0.81436
-0.628214
0.0462004
0.0837551
-0.00623826
0.0343698
-1.07649
1.8836
-0.946486
0.0644266
2.08164
-0.000973222
0.00607331
1.26349
0.0146391
2.0202
2.39323
2.32814
-1.34866
-0.000885688
1.13086
0.0199433
2.02059
1.31944
1.85208
-0.0178478
1.17595
4.04647e-05
-0.585106
2.08406
-0.162326
-0.658648
-0.0170277
-0.412562
-0.742999
-0.0930801
-0.0021068
1.9011
1.3524
2.2983
-0.00303965
1.86265
1.36634
-0.508767
-0.727324
0.0217816
-0.00368583
0.00114085
0.722294
0.0492103
-0.57604
1.1597
-0.744704
1.0654
-0.00329493
1.44673
-0.0113889
0.55632
1.70851
2.08349
-0.377254
0.00203763
1.21531
0.00769892
1.12828
-0.00022865
0.00540758
-0.255601
-0.000836154
2.03827
1.75749
0.0140049
-1.54816
-0.0139315
9.43694e-05
-0.38513
-0.00228417
2.05268
-0.628267
-0.00714052
1.56937
-0.0260536
-0.00816907
-0.228116
-0.377819
0.0435374
-0.00101452
-0.3645
-1.17308
1.16759
2.10708
0.0136931
0.0367057
-0.24743
1.28824
-0.614718
2.21751
3.06277
-0.843232
1.88826
1.82727
-0.780855
-0.0809323
2.24897
1.82712
2.24257
0.550825
1.45773
3.26473
-0.481307
-0.100903
1.10242
2.21935
-0.110717
1.53625
0.0118956
2.39731
0.932528
1.85139
-0.144976
-0.483418
0.0467233
1.88957
1.33704
-0.00220086
0.000129949
2.01028
-0.740405
-0.0406831
2.6083
-0.396484
-0.0231761
-0.419423
-0.168155
-0.118556
1.8051
0.0910559
2.21651
0.607746
4.81075
0.0959767
2.11903
0.0476501
3.83938
-0.13131
2.31225
2.10495
-0.330144
1.3792
2.17207
-0.251917
0.021548
-0.0288422
2.27959
0.657612
2.22878
0.0165834
-0.00207625
0.0802564
0.334905
-0.186241
-0.646263
1.4509
1.10737
1.44688
0.46915
0.0121072
4.41144
-0.989032
3.57386
-0.923332
0.00326924
-0.0252729
0.0113347
0.968545
-0.300333
2.21902
-0.214298
-0.395325
2.02226
2.08766
0.0148277
0.296558
0.851884
1.85828
-0.117087
2.28258
-0.209925
-0.397086
-0.0187315
-0.0342231
1.13723
-0.509341
0.884478
-0.714809
-0.0132984
-0.400699
0.00834462
1.83386
1.36772
1.789
1.04274
-0.117467
0.412027
3.17413
-0.00140708
-0.307997
1.54533
0.496876
-0.695251
-0.122489
1.91418
-0.473001
2.02959
1.90424
-0.0103299
2.16388
0.0110538
-0.00449534
0.685021
2.25686
-0.0381655
-0.231186
1.8123
0.000144393
2.37651
3.03924
-0.0474553
0.713624
-0.0206893
2.04704
3.64672
-0.932844
-0.136904
1.42514
-1.99863
0.664221
1.71469
1.2624
1.47784
0.276501
-0.448641
-0.00792527
-0.150869
-0.353208
1.66833
2.20999
-0.228651
-0.000582948
0.772786
0.184685
-0.293187
2.69781
0.00452606
1.82623
-0.017374
2.40595
1.83755
-0.00476147
-0.0416055
-0.0414898
2.27762
1.97483
1.54567
1.79177
1.72934
0.0235655
0.0311953
0.100391
-0.350679
0.0161791
0.23569
1.55255
1.6319
-0.347481
1.42304
-0.00406103
-0.954613
0.378787
0.0150417
-0.0623959
0.84546
1.8793
-0.541548
-0.278245
-0.051968
0.716123
-0.0557177
0.000108819
-0.353427
-0.00301483
-0.0296093
1.42432
0.00393878
-1.23687
-0.641686
-0.105702
-0.161303
-0.00290987
2.11857
1.74772
-0.217239
2.29197
-0.0231233
-0.0173024
0.000364297
-0.062954
0.00332736
-0.462179
-0.87002
0.0209136
2.24512
0.0435016
-0.00150851
-0.672556
-0.537578
-0.156373
2.04326
-0.355584
2.25578
0.00321157
-1.05567
-0.151513
-1.08341
0.0425633
0.0099402
2.6423
4.11194
1.4425
2.24328
2.27218
0.278939
1.57177
-0.552802
3.98426
0.0230068
-0.0895146
1.08142
1.91635
-0.547528
-0.927761
2.24718
0.0930933
1.35214
3.78055
-0.600208
-0.615058
2.12988
1.00683
0.918731
1.19685
4.4607
2.2667
-0.201158
-0.0922418
2.16977
-0.350322
2.22212
1.11065
0.742587
2.33859