/*--------------------------------*- C++ -*----------------------------------*\
| =========                 |                                                 |
| \\      /  F ield         | OpenFOAM: The Open Source CFD Toolbox           |
|  \\    /   O peration     | Version:  3.0.1                                 |
|   \\  /    A nd           | Web:      www.OpenFOAM.org                      |
|    \\/     M anipulation  |                                                 |
\*---------------------------------------------------------------------------*/
FoamFile
{
    version     2.0;
    format      ascii;
    class       surfaceVectorField;
    location    "0.346193";
    object      Uf;
}
// * * * * * * * * * * * * * * * * * * * * * * * * * * * * * * * * * * * * * //

dimensions      [0 1 -1 0 0 0 0];

internalField   nonuniform List<vector> 
32369
(
(2.05503 4.63968 1.75444e-19)
(3.13422 5.61949 1.63131e-19)
(0.554342 5.59184 -1.49765e-18)
(1.68923 3.90471 -1.76966e-19)
(2.99224 3.14871 1.54543e-18)
(0.550323 3.86833 -6.71839e-19)
(1.72655 3.14832 -1.0144e-18)
(2.73093 3.28117 -4.4163e-19)
(0.885006 3.05837 -5.84978e-19)
(1.7453 2.48367 -5.58832e-19)
(2.46643 2.66648 -5.39518e-19)
(1.1598 2.41488 -9.52223e-19)
(1.79795 1.97052 3.3739e-19)
(2.26182 2.1711 1.00991e-19)
(1.37719 1.94597 6.35649e-20)
(1.86451 1.58911 5.40136e-19)
(2.15903 1.76268 2.0134e-19)
(1.55787 1.59341 2.40965e-19)
(1.93362 1.30399 1.80423e-19)
(2.12608 1.44253 2.60358e-19)
(1.70102 1.32393 2.91231e-19)
(2.00324 1.08759 -9.55011e-20)
(2.13432 1.19371 -2.2305e-19)
(1.81716 1.11355 -3.39527e-19)
(2.07619 0.921341 2.43128e-19)
(2.16972 1.00018 6.2664e-20)
(1.91809 0.947329 -1.50906e-19)
(2.15789 0.79167 6.4183e-20)
(2.22759 0.850428 1.29138e-19)
(2.01167 0.816138 1.62037e-19)
(2.30275 0.746938 -1.2991e-19)
(2.09469 0.716068 4.64749e-21)
(2.26442 0.687228 -1.00976e-19)
(3.21477 2.47095 -1.43829e-18)
(2.85199 3.49274 1.73986e-20)
(3.2576 2.83486 2.8602e-19)
(3.50367 1.12207 1.43589e-18)
(3.1036 2.71905 -5.4475e-20)
(3.74056 2.43003 -1.06391e-18)
(2.7931 2.42888 1.3756e-19)
(3.47307 2.15876 -2.62936e-19)
(2.54835 2.04712 1.67345e-19)
(3.11302 1.97346 -9.20575e-20)
(2.39145 1.68206 -9.37989e-20)
(2.80242 1.69932 -3.25803e-19)
(2.31276 1.37664 -1.23473e-19)
(2.59193 1.4307 -3.60486e-19)
(2.28983 1.13629 -4.92531e-20)
(2.47385 1.19545 6.57638e-21)
(2.30721 0.952247 -5.13713e-20)
(2.42659 1.00213 -1.08962e-19)
(2.35809 0.813575 -8.73633e-21)
(2.4339 0.849306 0)
(2.48435 0.743574 -8.66759e-20)
(2.44667 0.713365 7.0016e-20)
(2.91725 1.00524 1.83397e-18)
(2.0469 1.99289 -3.48721e-18)
(3.66649 1.27435 5.67438e-19)
(3.08423 -0.165184 3.76324e-18)
(3.75307 1.55077 -1.29304e-18)
(3.8099 1.29772 -3.13878e-18)
(3.53511 1.70866 -4.38603e-19)
(3.795 1.17408 1.35982e-18)
(3.21637 1.65824 -3.88411e-19)
(3.59946 1.35949 -1.20095e-19)
(2.92428 1.49437 -5.72327e-19)
(3.28522 1.32015 -2.63732e-19)
(2.71368 1.28849 -2.04696e-19)
(3.00049 1.20964 -2.54546e-19)
(2.58903 1.09094 1.89586e-19)
(2.79348 1.065 6.34524e-20)
(2.53807 0.923547 -9.62122e-21)
(2.67168 0.920929 2.42042e-20)
(2.55079 0.791161 -6.74409e-20)
(2.62679 0.795641 -5.67083e-20)
(2.64932 0.708229 -3.43375e-20)
(2.63689 0.695424 1.01076e-19)
(2.16477 0.352412 -1.1599e-18)
(1.17485 1.21103 -3.79597e-18)
(3.32092 0.29311 1.36503e-18)
(2.41756 -0.607351 2.99015e-18)
(3.72263 0.566312 -1.64195e-19)
(3.41048 0.480294 -3.27309e-18)
(3.76023 0.844348 2.03036e-18)
(3.63814 0.303476 2.3045e-18)
(3.56751 1.00837 2.42148e-19)
(3.6844 0.670943 1.54309e-18)
(3.28913 1.06342 5.66318e-19)
(3.48052 0.783684 -6.66812e-19)
(3.03575 1.01963 2.8458e-19)
(3.23867 0.835345 6.01775e-19)
(2.84927 0.925014 -5.48313e-20)
(3.0187 0.813233 -5.85027e-20)
(2.74195 0.817504 -1.3701e-20)
(2.86157 0.75324 6.8828e-20)
(2.71183 0.719751 -3.36044e-20)
(2.77963 0.682199 -8.79619e-20)
(2.77223 0.629622 1.67439e-19)
(2.76074 0.645368 3.65076e-20)
(1.35848 0.150087 5.11119e-19)
(0.368401 0.867784 4.60274e-19)
(2.69037 -0.151946 -1.09405e-18)
(1.76641 -0.62529 0)
(3.33015 -0.0363527 -4.51849e-19)
(2.88891 0.0221715 -1.21295e-18)
(3.6015 0.166745 1.81739e-18)
(3.27855 -0.245331 1.4454e-19)
(3.58413 0.38918 7.6004e-19)
(3.50713 0.124136 2.29016e-19)
(3.41004 0.563421 -7.67974e-19)
(3.43174 0.276845 -7.38569e-19)
(3.20042 0.650297 3.38228e-19)
(3.28498 0.429323 9.66851e-19)
(3.01313 0.667496 3.2359e-20)
(3.10907 0.504178 0)
(2.88375 0.641638 2.28898e-20)
(2.96113 0.528725 3.61817e-20)
(2.82483 0.599554 7.50467e-20)
(2.86844 0.52179 -3.18098e-20)
(2.84228 0.514717 4.18897e-20)
(2.84053 0.562196 -6.43539e-19)
(0.630616 0.138913 0)
(-0.370145 0.770421 0)
(2.02901 -0.312656 0)
(1.14654 -0.491903 0)
(2.82095 -0.347266 -2.45859e-19)
(2.33981 -0.209115 0)
(3.25468 -0.257027 -1.44714e-18)
(2.86042 -0.530954 -2.16498e-18)
(3.38504 -0.0659876 -1.03136e-18)
(3.21274 -0.240664 -7.35758e-22)
(3.33166 0.131402 8.06357e-19)
(3.24432 -0.109614 1.0198e-18)
(3.20245 0.283742 7.32495e-19)
(3.19032 0.0783742 1.41684e-20)
(3.05764 0.379969 0)
(3.07731 0.206029 -9.21759e-20)
(2.9409 0.427105 0)
(2.965 0.291206 -5.70793e-20)
(2.8754 0.444198 -1.07196e-19)
(2.88395 0.338691 0)
(2.85274 0.374105 -1.20263e-19)
(2.87223 0.452714 -9.66108e-20)
(-0.014352 0.255676 0)
(-1.03466 0.853081 -1.83162e-18)
(1.41272 -0.31461 0)
(0.56891 -0.278638 2.70985e-18)
(2.30805 -0.481459 -1.68862e-18)
(1.79568 -0.291743 -2.05229e-18)
(2.852 -0.49221 -1.0905e-18)
(2.4345 -0.649668 -1.92666e-19)
(3.0901 -0.359113 2.16704e-18)
(2.87672 -0.461105 1.01394e-18)
(3.13772 -0.184942 3.45e-19)
(2.99463 -0.369779 7.47696e-20)
(3.08868 -0.0186171 -7.91367e-19)
(3.01665 -0.187686 -5.53391e-20)
(2.99942 0.116105 -1.52387e-19)
(2.96194 -0.0431019 7.74058e-21)
(2.91479 0.210881 -6.31324e-20)
(2.89226 0.0747079 2.63963e-21)
(2.86148 0.27298 0)
(2.83555 0.159604 -1.40976e-19)
(2.81612 0.226331 1.73379e-19)
(2.85666 0.313218 -2.24001e-19)
(-0.582833 0.459944 2.84719e-19)
(-1.55927 1.05248 -3.51282e-18)
(0.859589 -0.210471 1.14505e-18)
(0.0499062 -0.0161399 2.98476e-18)
(1.8287 -0.497591 -5.46228e-19)
(1.28536 -0.263775 -3.77297e-18)
(2.45447 -0.599612 1.62204e-18)
(2.02538 -0.65888 1.72621e-18)
(2.77256 -0.530717 -9.7593e-19)
(2.53571 -0.575737 9.99015e-19)
(2.89514 -0.395198 -3.22451e-19)
(2.72526 -0.528542 -7.59951e-19)
(2.91049 -0.240673 7.25205e-19)
(2.80648 -0.372134 3.48638e-19)
(2.87327 -0.0980053 1.48856e-19)
(2.80069 -0.232781 8.93105e-20)
(2.82445 0.0200372 -6.29545e-20)
(2.76865 -0.103596 5.57012e-20)
(2.79176 0.113436 -2.97727e-21)
(2.73593 0.00226816 2.80594e-19)
(2.72594 0.0885843 -1.58834e-19)
(2.80003 0.188686 -6.46496e-19)
(-1.06753 0.712412 -1.60633e-18)
(-1.98511 1.30185 -1.52816e-18)
(0.36569 -0.032115 -1.25188e-18)
(-0.421077 0.266293 1.375e-20)
(1.38861 -0.428293 -1.746e-18)
(0.818359 -0.156861 -1.72115e-18)
(2.08091 -0.616826 1.08034e-18)
(1.64179 -0.593883 3.78804e-20)
(2.46337 -0.614817 1.38534e-18)
(2.20731 -0.614088 8.62306e-19)
(2.64307 -0.523713 -2.08562e-19)
(2.45881 -0.612268 8.74876e-19)
(2.70654 -0.392526 -2.58651e-19)
(2.58584 -0.49102 3.86096e-19)
(2.71022 -0.25707 0)
(2.61878 -0.367498 -9.19752e-19)
(2.69237 -0.133357 3.63637e-19)
(2.61735 -0.240579 3.77118e-19)
(2.6789 -0.0265406 1.71886e-19)
(2.6061 -0.127234 -6.53006e-19)
(2.60593 -0.0307196 -1.43698e-19)
(2.70316 0.0606944 5.16771e-19)
(-1.49726 0.989862 -4.47246e-20)
(-2.37647 1.60029 -2.04146e-18)
(-0.0945394 0.191904 -2.85764e-19)
(-0.871187 0.568874 1.39426e-18)
(0.971552 -0.299598 0)
(0.373117 0.0118506 -1.54318e-18)
(1.72533 -0.570607 -3.51812e-19)
(1.27119 -0.476141 7.35804e-19)
(2.16774 -0.636747 3.50016e-19)
(1.89107 -0.596552 -6.96772e-21)
(2.39683 -0.592461 1.51811e-18)
(2.20192 -0.642079 5.90815e-19)
(2.49825 -0.490111 -1.87542e-19)
(2.36787 -0.560497 6.06779e-19)
(2.53289 -0.36965 -6.83816e-19)
(2.43182 -0.457819 -1.13648e-18)
(2.53894 -0.249888 -5.09111e-19)
(2.45393 -0.340726 7.36513e-20)
(2.54159 -0.139964 -1.00685e-18)
(2.46037 -0.227756 -7.79074e-19)
(2.47129 -0.130135 4.93704e-19)
(2.56171 -0.0456913 1.59904e-19)
(-1.89569 1.29554 -9.49992e-19)
(-2.70472 1.9319 -2.22661e-18)
(-0.530402 0.452847 4.34192e-19)
(-1.29128 0.888304 3.09666e-18)
(0.56895 -0.124062 -1.01127e-18)
(-0.0509843 0.229917 -3.68542e-18)
(1.38077 -0.476716 1.15828e-18)
(0.909593 -0.317846 1.40405e-18)
(1.88301 -0.613135 1.73127e-19)
(1.58424 -0.534928 3.85772e-19)
(2.15971 -0.617723 -3.10997e-19)
(1.95378 -0.632036 -7.17052e-19)
(2.29463 -0.547117 -2.04403e-19)
(2.15665 -0.592956 -3.16464e-19)
(2.35369 -0.445421 -5.17299e-19)
(2.24732 -0.513877 -2.29362e-19)
(2.37753 -0.334443 -9.80611e-20)
(2.28742 -0.410463 5.01325e-20)
(2.39267 -0.22506 5.52667e-19)
(2.30594 -0.301816 2.58925e-19)
(2.31842 -0.203348 4.97923e-19)
(2.4267 -0.123564 1.88063e-19)
(-2.2453 1.61158 1.29512e-18)
(-2.94581 2.2439 -2.11042e-19)
(-0.927372 0.737597 -3.00784e-19)
(-1.66235 1.19732 4.7255e-19)
(0.189909 0.0863061 -1.76245e-18)
(-0.43953 0.472886 -9.26938e-19)
(1.05086 -0.346472 7.31675e-19)
(0.563673 -0.134117 3.30728e-19)
(1.60932 -0.554703 -3.90723e-19)
(1.28743 -0.441002 2.95186e-19)
(1.9319 -0.610508 -7.65885e-19)
(1.71251 -0.592939 -7.95172e-19)
(2.09828 -0.573801 -3.51021e-19)
(1.95181 -0.598021 6.08031e-19)
(2.17803 -0.492866 3.04825e-19)
(2.06743 -0.544246 4.01128e-19)
(2.21512 -0.393446 3.79351e-19)
(2.12257 -0.456434 -2.34863e-19)
(2.23685 -0.289725 2.11412e-19)
(2.15073 -0.355787 7.31617e-19)
(2.1672 -0.2605 -7.83936e-20)
(2.26975 -0.195015 -5.43958e-19)
(-2.53325 1.90397 -1.10737e-18)
(-3.13025 2.52574 1.58667e-18)
(-1.28618 1.02226 -5.15808e-20)
(-1.9946 1.49091 -3.69393e-19)
(-0.16926 0.314452 1.05303e-18)
(-0.805082 0.732133 1.42944e-18)
(0.730172 -0.19146 -1.23622e-19)
(0.222306 0.0695647 -6.88223e-19)
(1.34051 -0.470436 2.51206e-21)
(0.990717 -0.32176 5.47577e-19)
(1.70848 -0.57918 4.20348e-19)
(1.46991 -0.531489 -3.62674e-19)
(1.90675 -0.578067 1.38222e-18)
(1.74778 -0.582343 4.20108e-19)
(2.0064 -0.519041 -7.30762e-20)
(1.88975 -0.555291 1.14512e-18)
(2.05512 -0.432522 1.07467e-20)
(1.96012 -0.483726 -9.14178e-20)
(2.08276 -0.336209 5.67041e-19)
(1.99745 -0.392152 6.51464e-19)
(2.0193 -0.3018 -7.64923e-19)
(2.1062 -0.240409 -2.38087e-19)
(-2.77499 2.17807 2.54136e-18)
(-3.28298 2.79066 1.83981e-18)
(-1.61992 1.30921 9.42139e-19)
(-2.29839 1.7785 8.54187e-19)
(-0.523509 0.5609 -9.80798e-20)
(-1.15902 1.00986 7.96493e-19)
(0.403089 -0.0129845 -1.54437e-19)
(-0.12493 0.296807 -5.38311e-19)
(1.06303 -0.36285 2.88231e-19)
(0.682477 -0.17445 -1.97071e-19)
(1.47876 -0.527308 -4.54312e-19)
(1.21533 -0.446555 6.36424e-19)
(1.71283 -0.564175 1.14037e-19)
(1.53585 -0.54664 -3.22206e-19)
(1.83524 -0.528211 1.25853e-18)
(1.70838 -0.549072 7.10362e-19)
(1.89716 -0.454817 4.57024e-19)
(1.79707 -0.494691 6.99832e-19)
(1.93211 -0.365015 -5.03943e-19)
(1.84456 -0.412115 -4.07588e-19)
(1.86938 -0.322986 -4.83894e-19)
(1.96713 -0.273326 -3.07966e-19)
(-2.97865 2.43171 2.56611e-19)
(-3.38847 3.01053 -1.46898e-18)
(-1.92399 1.58954 8.48545e-19)
(-2.5561 2.03949 4.10256e-19)
(-0.867646 0.820149 4.7992e-19)
(-1.49032 1.28987 4.08978e-19)
(0.0721588 0.188082 -6.12992e-19)
(-0.472351 0.541308 -3.3731e-19)
(0.774474 -0.231209 6.40701e-20)
(0.362952 -0.00113787 -4.59873e-19)
(1.2371 -0.453983 8.69801e-19)
(0.944226 -0.336782 -8.08279e-20)
(1.51016 -0.531984 1.65349e-19)
(1.3091 -0.488894 4.07733e-19)
(1.65965 -0.521169 1.48249e-19)
(1.51669 -0.524252 -2.06188e-19)
(1.73823 -0.461847 -5.22182e-20)
(1.62888 -0.489163 2.42357e-21)
(1.78153 -0.379877 -3.568e-19)
(1.69088 -0.417629 -3.22496e-19)
(1.72543 -0.334502 1.541e-19)
(1.81154 -0.292622 -3.74246e-19)
(-3.13465 2.64841 -1.50074e-18)
(-3.44826 3.18763 -1.46534e-18)
(-2.19395 1.85401 -2.90744e-20)
(-2.77038 2.2777 1.98244e-21)
(-1.2014 1.08777 -3.38051e-19)
(-1.80145 1.57159 -9.187e-20)
(-0.266268 0.411582 -1.63701e-19)
(-0.823769 0.806314 -1.97816e-20)
(0.468756 -0.0724891 -6.45585e-19)
(0.0252585 0.202802 0)
(0.975832 -0.35515 -5.95364e-19)
(0.648307 -0.196637 -4.5207e-19)
(1.29076 -0.477889 8.49286e-20)
(1.05845 -0.403716 4.06789e-20)
(1.47286 -0.495561 -3.81379e-19)
(1.30634 -0.476259 -3.09075e-19)
(1.57408 -0.452752 -2.33966e-19)
(1.44945 -0.464022 -5.8433e-20)
(1.63159 -0.380212 1.37621e-19)
(1.53286 -0.406269 -9.8598e-20)
(1.5828 -0.328857 -2.96201e-21)
(1.67114 -0.297771 5.87699e-20)
(-3.25024 2.84293 -1.15842e-19)
(-3.47718 3.33873 -8.38172e-20)
(-2.43352 2.11119 -4.99153e-20)
(-2.9436 2.49955 -1.28251e-19)
(-1.52852 1.36996 2.2808e-19)
(-2.09137 1.85863 1.93204e-19)
(-0.619312 0.665345 1.4204e-19)
(-1.1805 1.09974 -4.2866e-21)
(0.136373 0.121778 2.45855e-19)
(-0.336252 0.447093 -8.64562e-20)
(0.684318 -0.222362 1.45e-19)
(0.319098 -0.0152762 8.48459e-20)
(1.04421 -0.394154 -3.19327e-19)
(0.773819 -0.280352 3.93794e-19)
(1.26628 -0.445134 -1.50994e-20)
(1.06756 -0.395418 -4.76108e-19)
(1.39893 -0.423114 8.26396e-20)
(1.25088 -0.41182 -1.9352e-19)
(1.47847 -0.363446 -2.47485e-19)
(1.36515 -0.373341 2.65598e-19)
(1.43799 -0.307967 -2.28792e-19)
(1.53344 -0.294874 -1.05197e-19)
(-3.325 3.00028 -9.1833e-20)
(-3.477 3.45266 1.52818e-21)
(-2.63735 2.35418 8.26337e-20)
(-3.0741 2.70296 -2.88383e-20)
(-1.84013 1.66349 -1.82305e-20)
(-2.34958 2.1407 7.66172e-19)
(-0.982357 0.951897 -2.2472e-19)
(-1.53336 1.41517 -6.43468e-19)
(-0.224107 0.359027 -2.67968e-19)
(-0.720375 0.733845 3.29843e-19)
(0.356382 -0.0453004 3.02653e-19)
(-0.0484864 0.216445 -3.52239e-19)
(0.761945 -0.269253 3.22169e-19)
(0.446307 -0.105083 5.00245e-19)
(1.03134 -0.359385 -6.879e-19)
(0.790597 -0.267306 -2.3903e-19)
(1.20565 -0.365174 -7.5658e-20)
(1.02435 -0.320593 -2.85384e-19)
(1.31729 -0.325385 3.5768e-19)
(1.18126 -0.310596 3.66496e-19)
(1.28767 -0.267556 -3.96367e-20)
(1.38955 -0.268744 3.0665e-19)
(-3.37109 3.14285 7.11705e-20)
(-3.45819 3.5429 9.75676e-20)
(-2.80406 2.58515 5.71202e-19)
(-3.16811 2.88656 -9.33052e-19)
(-2.12901 1.96321 2.75655e-19)
(-2.57269 2.40841 1.38457e-18)
(-1.35284 1.27045 -1.89123e-19)
(-1.87741 1.74446 -5.06346e-19)
(-0.617448 0.64688 3.14653e-19)
(-1.12953 1.06665 4.15761e-19)
(-0.0165849 0.190694 -2.46337e-19)
(-0.463067 0.514452 -1.71825e-19)
(0.433752 -0.0858496 1.64744e-21)
(0.0653494 0.143298 -8.75488e-20)
(0.757955 -0.222013 1.70492e-19)
(0.464577 -0.0701064 -2.69747e-20)
(0.985187 -0.266142 7.09582e-20)
(0.759003 -0.171963 2.34698e-19)
(1.14082 -0.256872 3.00027e-20)
(0.970481 -0.204087 -5.51424e-20)
(1.12259 -0.192295 3.40268e-20)
(1.25009 -0.226068 -2.44515e-19)
(-3.39552 3.27092 -7.9544e-19)
(-3.42257 3.61499 1.388e-18)
(-2.93745 2.79774 -6.19797e-19)
(-3.2365 3.04882 -1.98519e-18)
(-2.39348 2.2581 7.87556e-19)
(-2.76792 2.6507 6.94559e-19)
(-1.73057 1.61594 0)
(-2.21463 2.07663 -5.50001e-20)
(-1.05011 0.994771 -1.47064e-20)
(-1.56671 1.45146 0)
(-0.444959 0.506442 -2.43155e-20)
(-0.930785 0.902925 1.3072e-19)
(0.0492564 0.181493 -1.23017e-19)
(-0.376789 0.497447 -7.68403e-20)
(0.435109 -0.00890677 -1.17811e-20)
(0.0796115 0.22768 -8.61335e-20)
(0.725262 -0.105719 1.69366e-19)
(0.441366 0.0611219 1.16356e-19)
(0.935309 -0.141458 -6.17183e-20)
(0.715611 -0.0321272 -3.86475e-20)
(0.923 -0.0685762 1.15898e-20)
(1.08781 -0.148816 0)
(-3.39731 3.38321 -1.37765e-20)
(-3.35801 3.67344 1.2312e-18)
(-3.05051 2.98438 -1.2084e-18)
(-3.27931 3.15717 -9.74488e-19)
(-2.64562 2.53558 -6.1149e-20)
(-2.96218 2.8508 6.60589e-19)
(-2.12174 1.98493 -6.04545e-20)
(-2.55363 2.40707 -4.94764e-19)
(-1.52492 1.41932 1.29794e-19)
(-2.02252 1.90416 -5.66228e-20)
(-0.931172 0.934491 7.05847e-20)
(-1.43835 1.41543 3.27225e-20)
(-0.397071 0.569132 -3.9469e-20)
(-0.872026 0.996519 -9.57907e-20)
(0.0506788 0.313035 1.7336e-20)
(-0.366432 0.663495 2.67821e-20)
(0.407484 0.144227 -6.42677e-20)
(0.0584823 0.415309 -4.89824e-20)
(0.679173 0.0432428 2.93262e-20)
(0.395605 0.240686 1.70781e-20)
(0.671581 0.13412 3.22525e-20)
(0.881965 -0.00506704 1.16931e-19)
(-3.36471 3.33874 -4.20469e-20)
(-3.45791 3.58751 -1.00246e-18)
(-3.17136 3.06433 6.63501e-19)
(-3.35709 3.19557 7.00053e-19)
(-2.91673 2.76241 3.0566e-19)
(-3.14157 3.02414 6.45128e-19)
(-2.52481 2.37024 -5.29685e-19)
(-2.82806 2.76552 -4.23311e-19)
(-2.01626 1.93475 -1.61069e-19)
(-2.39955 2.44316 -3.9415e-20)
(-1.44788 1.50373 -1.20546e-19)
(-1.89194 2.06395 5.32123e-21)
(-0.890721 1.11335 -1.52316e-20)
(-1.35648 1.65833 -2.40346e-20)
(-0.397289 0.784952 -1.31051e-20)
(-0.846573 1.26788 4.80581e-20)
(0.014243 0.529884 7.12795e-21)
(-0.395477 0.934765 -4.19661e-20)
(0.349612 0.350787 -1.0658e-20)
(-0.0234225 0.676531 4.12911e-22)
(0.330565 0.496025 8.19639e-22)
(0.631811 0.205405 -1.56233e-19)
(-3.49825 3.60315 -1.99058e-20)
(-2.49786 2.89002 -7.15884e-19)
(-3.29798 3.32861 6.86768e-19)
(-2.60059 2.83142 1.53678e-19)
(-3.08388 3.15062 0)
(-2.42267 2.85686 6.13216e-19)
(-2.76159 2.92183 5.77612e-20)
(-2.25904 2.82134 -1.90072e-19)
(-2.34051 2.62312 1.7605e-19)
(-2.05235 2.72116 6.35187e-20)
(-1.85182 2.25083 1.33857e-19)
(-1.79321 2.53549 -1.80063e-19)
(-1.3489 1.83709 -9.86231e-21)
(-1.48544 2.26014 -2.31183e-20)
(-0.882478 1.43533 1.40973e-20)
(-1.12932 1.91191 1.33253e-20)
(-0.468597 1.08778 3.27747e-20)
(-0.766513 1.56973 4.49255e-21)
(-0.118905 0.813198 1.18023e-20)
(-0.441167 1.26317 4.0848e-22)
(-0.079311 0.96428 -4.37799e-19)
(0.16035 0.67626 1.04192e-20)
(-1.92416 1.94632 -3.68396e-19)
(0.189331 1.49043 -4.28479e-19)
(-1.87556 2.19489 -2.27192e-19)
(0.0144861 1.60465 -3.44527e-19)
(-1.7813 2.32705 6.0609e-19)
(0.0137167 1.57194 1.68775e-20)
(-1.70099 2.44246 -2.06317e-19)
(-0.0353672 1.54337 3.39413e-20)
(-1.60908 2.5072 -2.35063e-20)
(-0.0721835 1.52101 -3.85671e-21)
(-1.47765 2.48678 -2.99027e-20)
(-0.0729404 1.48979 -4.88848e-20)
(-1.28492 2.3503 -4.32406e-21)
(-0.0273444 1.43885 -9.93782e-21)
(-1.02572 2.11236 -1.92911e-21)
(0.0650939 1.35893 -1.07688e-19)
(-0.738411 1.82805 1.32232e-20)
(0.162912 1.25333 3.61944e-19)
(-0.460279 1.52284 -1.84509e-20)
(0.245447 1.13372 2.94319e-20)
(0.343804 0.966345 4.10373e-19)
(-0.184989 1.31089 -4.10421e-19)
(-1.97445 3.57043 3.10592e-20)
(-2.1217 0.827317 1.10928e-18)
(-0.653643 2.7503 -5.11481e-19)
(-1.42628 1.47254 2.5049e-19)
(0.224571 2.28608 2.63043e-19)
(-0.545717 1.77069 -1.32164e-19)
(0.784713 1.92668 -1.51143e-19)
(0.167371 1.74776 5.31063e-21)
(1.15683 1.62382 0)
(0.680732 1.57011 0)
(1.4107 1.37177 0)
(1.05575 1.37274 3.8109e-19)
(1.59281 1.1642 -1.44734e-19)
(1.32765 1.18399 0)
(1.73224 0.9954 -3.97717e-19)
(1.52897 1.01742 -9.0228e-20)
(1.847 0.859884 -2.54139e-19)
(1.68522 0.877709 -2.35896e-19)
(1.94889 0.751592 1.00662e-19)
(1.81138 0.764885 -7.3098e-20)
(1.9121 0.679931 8.44777e-20)
(2.04348 0.665952 5.64341e-20)
(-1.78973 -0.306663 9.48241e-19)
(-1.98528 -1.71147 -2.42769e-19)
(-1.43872 0.675287 3.60409e-19)
(-1.23889 -0.381779 3.70967e-19)
(-0.713464 1.14457 -3.26094e-20)
(-0.988804 0.186822 1.58279e-19)
(-0.00112323 1.2941 4.81866e-19)
(-0.423113 0.666275 -1.63376e-18)
(0.554718 1.25385 3.12267e-19)
(0.114329 0.934442 1.49147e-18)
(0.959568 1.1461 3.91527e-19)
(0.586874 0.998514 4.72006e-19)
(1.25226 1.0152 1.53345e-19)
(0.960595 0.952387 -4.6832e-19)
(1.46887 0.888049 1.93055e-19)
(1.24299 0.861719 3.17188e-19)
(1.63545 0.777083 -9.43722e-20)
(1.45715 0.764976 1.4912e-20)
(1.77074 0.684535 -1.62538e-19)
(1.6198 0.678068 -1.92818e-19)
(1.73882 0.605638 -1.05322e-19)
(1.88821 0.601017 3.66978e-19)
(-1.04793 -1.28886 -5.5098e-19)
(-1.27491 -2.21253 1.88781e-18)
(-1.07633 -0.793185 1.34166e-19)
(-0.455695 -1.1657 -4.02923e-18)
(-0.812595 -0.23464 -1.28594e-18)
(-0.712791 -0.897581 4.16384e-18)
(-0.415213 0.278737 -5.92314e-19)
(-0.456636 -0.324578 -1.86737e-18)
(0.0686536 0.619728 1.57854e-18)
(-0.140828 0.131491 -7.73906e-19)
(0.543179 0.764262 -4.3626e-19)
(0.2539 0.414341 8.2033e-19)
(0.929148 0.783092 -3.90751e-19)
(0.634282 0.566206 -8.5654e-19)
(1.21939 0.73924 1.74399e-19)
(0.954821 0.612763 4.73454e-19)
(1.43381 0.673916 -5.67215e-20)
(1.21263 0.600727 1.07357e-19)
(1.59549 0.608762 -2.03812e-19)
(1.41197 0.564092 -1.33856e-19)
(1.55466 0.523612 -1.05874e-19)
(1.71974 0.545464 -6.03611e-19)
(-0.233474 -1.59635 1.50607e-18)
(-0.52431 -2.22501 2.74525e-18)
(-0.344417 -1.33985 3.15648e-19)
(0.33911 -1.40725 -4.30205e-18)
(-0.377371 -0.924789 4.30526e-18)
(-0.163318 -1.39196 2.6076e-18)
(-0.285061 -0.480984 -2.1487e-18)
(-0.0831512 -0.893818 8.33591e-19)
(-0.0350278 -0.0817009 -1.5393e-18)
(0.000160722 -0.48668 -2.86063e-18)
(0.284536 0.205516 5.56951e-19)
(0.220295 -0.117485 1.35062e-18)
(0.621023 0.378885 -1.19861e-19)
(0.49609 0.137014 -4.00032e-19)
(0.923646 0.458844 4.45899e-19)
(0.774877 0.291669 2.98818e-19)
(1.17478 0.479503 9.48989e-20)
(1.02735 0.366721 1.18756e-19)
(1.37562 0.470496 3.32317e-20)
(1.23803 0.392526 -1.85473e-20)
(1.39232 0.388859 3.58917e-20)
(1.54021 0.439856 3.60161e-20)
(0.39413 -1.66725 2.20421e-18)
(0.077072 -2.09137 2.54952e-19)
(0.33206 -1.5527 -1.48238e-18)
(0.925598 -1.43055 -2.93883e-20)
(0.191946 -1.25724 -9.01821e-19)
(0.383109 -1.56204 -1.18433e-18)
(0.132096 -0.904782 2.43075e-19)
(0.400531 -1.15864 7.59617e-19)
(0.199798 -0.539947 -2.12227e-19)
(0.34426 -0.859886 -8.19571e-19)
(0.368556 -0.218684 5.9466e-19)
(0.426344 -0.515532 5.34354e-19)
(0.598184 0.0204369 -2.67678e-20)
(0.579731 -0.231765 0)
(0.840822 0.176323 -2.90683e-21)
(0.775154 -0.0187197 1.33782e-19)
(1.06528 0.264599 3.85747e-20)
(0.976143 0.120023 3.44896e-20)
(1.25763 0.308201 -1.93311e-20)
(1.15802 0.200911 1.29553e-19)
(1.29708 0.240814 7.91184e-20)
(1.41412 0.322492 -4.24015e-19)
(0.837177 -1.60603 1.46878e-18)
(0.518483 -1.89166 -7.58442e-19)
(0.841418 -1.57988 -4.77923e-19)
(1.31616 -1.37314 4.38683e-19)
(0.683444 -1.37593 -1.63601e-19)
(0.819612 -1.56965 -1.21549e-19)
(0.567682 -1.11956 -1.00839e-19)
(0.827829 -1.22849 8.73036e-21)
(0.53816 -0.826825 -7.96913e-20)
(0.703503 -1.04081 -7.19777e-20)
(0.585878 -0.534098 0)
(0.704705 -0.747927 0)
(0.707756 -0.281589 1.45215e-19)
(0.757536 -0.489562 -1.30913e-19)
(0.868899 -0.086129 1.81766e-19)
(0.867677 -0.264519 2.07927e-19)
(1.03854 0.0494645 1.14383e-19)
(1.00253 -0.0934672 -1.71482e-19)
(1.19584 0.135706 2.74934e-19)
(1.13802 0.0249738 -3.01903e-19)
(1.24514 0.0960661 2.56077e-19)
(1.33223 0.186419 5.74973e-19)
(1.14127 -1.47827 -4.92562e-19)
(0.832564 -1.66062 -1.38266e-18)
(1.20158 -1.51068 0)
(1.56821 -1.28787 1.25224e-18)
(1.05813 -1.36715 2.78198e-20)
(1.1471 -1.5091 -2.49954e-19)
(0.933239 -1.18513 3.43803e-20)
(1.1606 -1.19489 -1.84058e-19)
(0.864306 -0.964155 0)
(1.00774 -1.10345 -3.62368e-20)
(0.840697 -0.71874 -1.166e-19)
(0.978711 -0.855915 -1.68107e-19)
(0.880088 -0.485922 -5.97163e-20)
(0.963919 -0.641302 2.22434e-19)
(0.96396 -0.284844 -1.35842e-19)
(1.00613 -0.430962 9.62024e-20)
(1.07153 -0.127231 -6.32139e-19)
(1.07887 -0.254418 1.1666e-19)
(1.18242 -0.0118839 -3.92283e-19)
(1.16525 -0.11812 -3.01441e-19)
(1.23688 -0.0265644 6.83633e-20)
(1.28027 0.0743188 -5.96033e-20)
(1.34913 -1.3465 8.45505e-19)
(1.0769 -1.4607 -1.55648e-18)
(1.45289 -1.41075 1.68956e-18)
(1.73806 -1.20691 1.45327e-18)
(1.33272 -1.30659 -7.95177e-19)
(1.38694 -1.42576 -7.05655e-19)
(1.22699 -1.15835 -2.71642e-19)
(1.42679 -1.13893 -2.87287e-20)
(1.13945 -0.997222 -1.90836e-19)
(1.24569 -1.09 3.25243e-20)
(1.08086 -0.802235 1.92727e-19)
(1.21265 -0.882412 -2.37333e-19)
(1.06715 -0.603038 3.34692e-19)
(1.16006 -0.711735 2.40557e-19)
(1.0923 -0.416748 2.06238e-19)
(1.15632 -0.526877 0)
(1.14588 -0.25806 3.41457e-19)
(1.18023 -0.361129 1.66514e-19)
(1.2134 -0.132011 2.93886e-20)
(1.22406 -0.222855 1.09722e-19)
(1.26341 -0.122247 -2.51325e-20)
(1.27759 -0.0307857 -5.94801e-20)
(1.50883 -1.23001 -5.09613e-19)
(1.26487 -1.28035 -6.18108e-19)
(1.64341 -1.29935 -2.10008e-19)
(1.8923 -1.14163 -7.31859e-19)
(1.52885 -1.23368 -1.63346e-19)
(1.55033 -1.30574 8.45488e-19)
(1.44205 -1.11507 2.40659e-19)
(1.6316 -1.07088 -2.05199e-19)
(1.3528 -0.979843 -2.26297e-20)
(1.44448 -1.04721 1.00806e-19)
(1.28395 -0.821884 -1.16741e-19)
(1.40481 -0.867893 1.77916e-19)
(1.24066 -0.654791 -5.08022e-20)
(1.33131 -0.729561 -4.73844e-20)
(1.2264 -0.490581 -2.38884e-20)
(1.29849 -0.569793 -5.31973e-20)
(1.2382 -0.342244 -6.72667e-20)
(1.28715 -0.421376 -3.4906e-20)
(1.26699 -0.217098 3.54266e-20)
(1.29694 -0.289809 -7.84728e-20)
(1.30825 -0.188911 5.07855e-20)
(1.29441 -0.105768 2.27961e-19)
(1.64247 -1.12257 -8.4863e-19)
(1.39184 -1.1272 0)
(1.79034 -1.2057 -2.1221e-19)
(2.02812 -1.05215 -7.19685e-19)
(1.69444 -1.1317 8.04632e-19)
(1.70777 -1.20786 1.2638e-18)
(1.6195 -1.04493 -5.09945e-19)
(1.77893 -0.990217 -5.80928e-19)
(1.52567 -0.932798 3.68831e-19)
(1.60563 -0.978432 6.61815e-20)
(1.45103 -0.803179 3.355e-19)
(1.56142 -0.825933 1.06563e-19)
(1.39057 -0.662609 -4.68669e-20)
(1.47593 -0.713377 -4.13161e-21)
(1.35102 -0.52065 -1.02383e-19)
(1.42444 -0.575679 1.54634e-19)
(1.33306 -0.387585 -6.26505e-20)
(1.38825 -0.446034 -2.10673e-21)
(1.33326 -0.270385 -4.01625e-20)
(1.37266 -0.326435 3.97632e-21)
(1.36353 -0.232516 3.03541e-20)
(1.33562 -0.159063 -1.07381e-19)
(1.75828 -0.986328 2.05085e-19)
(1.46578 -0.992663 -6.73729e-19)
(1.9213 -1.09638 2.50774e-19)
(2.11782 -0.937836 -1.14034e-18)
(1.82568 -1.03528 -1.65272e-19)
(1.83258 -1.09345 -9.61957e-20)
(1.75901 -0.96293 -2.03113e-19)
(1.89846 -0.904677 5.42614e-19)
(1.66599 -0.867723 -1.23383e-19)
(1.73478 -0.89858 1.15385e-19)
(1.58796 -0.760094 -2.19823e-19)
(1.68798 -0.766036 -3.51103e-19)
(1.51635 -0.64144 1.94851e-19)
(1.59538 -0.674509 -1.93496e-19)
(1.4601 -0.519825 2.43152e-19)
(1.53167 -0.555976 3.94556e-19)
(1.42143 -0.403407 5.66678e-20)
(1.47779 -0.444876 -4.16026e-20)
(1.40057 -0.298499 5.18144e-20)
(1.44337 -0.33949 1.34635e-19)
(1.41983 -0.253851 2.15342e-20)
(1.38354 -0.197537 -1.15231e-20)
(1.82877 -0.868792 -1.96158e-18)
(1.52266 -0.874677 -1.66321e-19)
(2.0186 -0.986919 -1.83924e-18)
(2.19538 -0.831686 4.65741e-20)
(1.93325 -0.934079 7.36811e-19)
(1.93038 -0.983961 -6.51721e-19)
(1.87001 -0.873923 9.08331e-19)
(1.99371 -0.810834 4.95315e-19)
(1.77855 -0.791942 -1.3067e-19)
(1.83715 -0.812523 2.77184e-19)
(1.6988 -0.70125 -4.11189e-19)
(1.78915 -0.694322 -4.31367e-19)
(1.6197 -0.60079 -3.64557e-20)
(1.6916 -0.620364 -5.8205e-20)
(1.55182 -0.497422 1.59582e-19)
(1.61966 -0.5183 1.8321e-19)
(1.49807 -0.397629 -1.65625e-20)
(1.5528 -0.425017 -1.6004e-19)
(1.4605 -0.307201 1.06077e-19)
(1.50341 -0.334834 -8.43535e-20)
(1.4666 -0.262007 3.89887e-20)
(1.4227 -0.215399 -5.75696e-20)
(1.88615 -0.750594 1.8207e-18)
(1.57021 -0.754528 8.43007e-19)
(2.09506 -0.879538 1.30292e-18)
(2.25773 -0.717373 1.16664e-18)
(2.0181 -0.832459 -8.24509e-19)
(2.01019 -0.876472 -7.42091e-19)
(1.95822 -0.780574 -1.13143e-19)
(2.06936 -0.713183 2.38569e-19)
(1.8676 -0.709215 -2.12227e-20)
(1.9176 -0.721902 -2.10853e-19)
(1.78674 -0.632109 -1.17318e-19)
(1.86843 -0.61507 -2.02079e-19)
(1.7021 -0.547029 1.51807e-19)
(1.76696 -0.555962 1.56106e-19)
(1.62569 -0.46007 -7.61068e-20)
(1.68888 -0.468282 1.56628e-19)
(1.56037 -0.376523 -2.62131e-19)
(1.61203 -0.391759 -2.24902e-19)
(1.5102 -0.301034 -1.78865e-19)
(1.55112 -0.317331 -2.87982e-19)
(1.50059 -0.259206 1.74625e-20)
(1.46671 -0.232618 -2.64677e-20)
(1.92792 -0.617893 1.66572e-19)
(1.57816 -0.615517 -5.43362e-19)
(2.15321 -0.76387 -4.26259e-19)
(2.28847 -0.59373 -1.18914e-18)
(2.08512 -0.727333 2.22309e-19)
(2.07114 -0.764061 8.46799e-19)
(2.02695 -0.683797 2.92406e-19)
(2.12465 -0.61391 4.69989e-19)
(1.93687 -0.62142 -3.99201e-19)
(1.98046 -0.626182 -1.9376e-19)
(1.85472 -0.556056 2.37091e-22)
(1.92789 -0.531359 9.34305e-21)
(1.76552 -0.484373 1.66615e-19)
(1.82403 -0.483852 -2.51642e-19)
(1.68233 -0.412384 8.61817e-20)
(1.74035 -0.409912 2.75263e-19)
(1.60761 -0.344488 -2.43791e-19)
(1.65543 -0.348805 -1.32702e-19)
(1.54624 -0.284783 -1.37792e-19)
(1.58483 -0.289737 -1.8618e-19)
(1.52605 -0.246666 8.59864e-20)
(1.48779 -0.226907 0)
(1.94153 -0.489912 -1.81889e-18)
(1.58672 -0.484673 -1.68773e-19)
(2.18945 -0.64765 -4.06707e-19)
(2.30109 -0.475123 9.08551e-21)
(2.13416 -0.620304 1.13019e-18)
(2.11707 -0.649648 8.43819e-20)
(2.07747 -0.584149 1.57337e-19)
(2.16136 -0.514836 -4.19205e-19)
(1.98836 -0.529328 1.93821e-19)
(2.02763 -0.525732 6.15051e-19)
(1.90413 -0.474405 -2.45664e-19)
(1.96889 -0.444573 -2.55625e-19)
(1.81106 -0.414792 -1.84011e-19)
(1.86414 -0.405567 -7.20221e-20)
(1.72208 -0.356905 1.18597e-19)
(1.77478 -0.345718 -2.61514e-19)
(1.63974 -0.303965 -6.23962e-20)
(1.6835 -0.298945 3.36436e-19)
(1.56957 -0.259692 -2.15559e-20)
(1.60467 -0.255452 -2.69488e-19)
(1.53738 -0.22588 6.28543e-20)
(1.50577 -0.223235 6.44803e-20)
(1.94237 -0.363145 1.6321e-18)
(1.58777 -0.352212 6.17472e-20)
(2.20853 -0.531058 4.94132e-19)
(2.2967 -0.354142 1.47757e-18)
(2.1672 -0.512312 -1.40836e-18)
(2.15003 -0.530686 -9.93795e-20)
(2.11191 -0.482534 -1.55356e-19)
(2.18256 -0.414724 -1.02521e-18)
(2.02368 -0.434193 2.12142e-19)
(2.06012 -0.421569 5.29899e-19)
(1.93668 -0.388746 -1.01331e-19)
(1.99308 -0.354975 -2.55445e-19)
(1.84001 -0.340524 -1.28546e-19)
(1.88789 -0.322991 2.79798e-19)
(1.74582 -0.296368 -1.31452e-19)
(1.79284 -0.277655 -2.8636e-19)
(1.65715 -0.258118 2.12956e-19)
(1.69657 -0.244794 3.45004e-19)
(1.57979 -0.228797 -2.60338e-19)
(1.61129 -0.21695 -1.16846e-19)
(1.53789 -0.202047 -2.37783e-20)
(1.51091 -0.207528 1.68218e-19)
(1.93198 -0.229466 2.14687e-20)
(1.56882 -0.214347 -6.27608e-19)
(2.21219 -0.407923 1.32632e-18)
(2.26954 -0.225775 1.0412e-18)
(2.18566 -0.400179 2.10797e-19)
(2.16607 -0.404107 7.69569e-19)
(2.13165 -0.377594 -5.8931e-19)
(2.18791 -0.310923 -1.11601e-19)
(2.04365 -0.336082 9.80287e-20)
(2.07713 -0.313611 -2.6953e-19)
(1.95311 -0.299831 6.73211e-20)
(2.00104 -0.262272 0)
(1.8529 -0.263201 1.66723e-19)
(1.89516 -0.237661 7.53327e-20)
(1.75415 -0.232885 1.03499e-19)
(1.79493 -0.20746 1.03457e-19)
(1.66059 -0.209413 7.21483e-20)
(1.69511 -0.188843 -4.62017e-20)
(1.57759 -0.19474 9.02242e-20)
(1.60548 -0.176363 1.05566e-19)
(1.52556 -0.176694 0)
(1.50521 -0.19142 -1.83635e-19)
(1.90283 -0.0909989 7.24227e-19)
(1.53652 -0.0739149 7.50494e-19)
(2.19617 -0.277364 5.16724e-19)
(2.22046 -0.0903182 -1.69525e-20)
(2.18713 -0.282081 3.74593e-19)
(2.16221 -0.268995 -8.98677e-20)
(2.13558 -0.267825 2.84445e-19)
(2.17577 -0.201132 4.69798e-19)
(2.04757 -0.234559 -3.94745e-19)