/*--------------------------------*- C++ -*----------------------------------*\
| =========                 |                                                 |
| \\      /  F ield         | OpenFOAM: The Open Source CFD Toolbox           |
|  \\    /   O peration     | Version:  3.0.1                                 |
|   \\  /    A nd           | Web:      www.OpenFOAM.org                      |
|    \\/     M anipulation  |                                                 |
\*---------------------------------------------------------------------------*/
FoamFile
{
    version     2.0;
    format      ascii;
    class       volScalarField;
    location    "0.821517";
    object      k;
}
// * * * * * * * * * * * * * * * * * * * * * * * * * * * * * * * * * * * * * //

dimensions      [0 2 -2 0 0 0 0];

internalField   nonuniform List<scalar> 
21246
(
0.412764
0.533122
0.208482
0.103424
0.0482779
0.0255648
0.0171214
0.0138964
0.0124438
0.0116425
0.0110896
0.451988
0.647493
0.272397
0.131819
0.0617837
0.030289
0.0183149
0.0139849
0.012171
0.0112191
0.0105834
0.473672
0.594264
0.307814
0.158954
0.0732811
0.0357762
0.0200798
0.014363
0.0120835
0.0109555
0.0102396
0.470764
0.534333
0.318097
0.171025
0.082452
0.0408786
0.0220783
0.0149372
0.0121492
0.0108425
0.010083
0.44796
0.501296
0.319149
0.176299
0.0896134
0.0454604
0.0241386
0.0156649
0.0123499
0.0108554
0.010063
0.412666
0.484709
0.320279
0.181964
0.096485
0.0505465
0.0264085
0.0165441
0.012677
0.010976
0.0101306
0.370344
0.478256
0.323984
0.189606
0.104
0.055761
0.0294904
0.0177587
0.0131263
0.0111895
0.0102701
0.325352
0.479871
0.330529
0.198584
0.11201
0.0613377
0.0329985
0.0194305
0.0138241
0.0115079
0.010474
0.282199
0.485056
0.341278
0.209488
0.120838
0.0675631
0.0370228
0.0215427
0.0147834
0.011971
0.0107575
0.243214
0.490792
0.357448
0.223731
0.131415
0.0749336
0.0418223
0.0242122
0.0160782
0.0125997
0.0111312
0.209114
0.499126
0.378878
0.241436
0.143876
0.0835079
0.0474829
0.0275188
0.0177791
0.013442
0.0116069
0.181762
0.513315
0.405837
0.262352
0.157878
0.0930202
0.0539078
0.0314744
0.0199402
0.0145539
0.0122176
0.163455
0.530754
0.439265
0.287919
0.174322
0.103849
0.0612634
0.0361989
0.0226637
0.0160125
0.013012
0.153873
0.546461
0.479061
0.320251
0.19482
0.116816
0.0699255
0.0419085
0.0261208
0.0179429
0.0140615
0.152952
0.566429
0.525535
0.359957
0.219916
0.132214
0.0800242
0.0486918
0.0304339
0.0204794
0.0154805
0.160254
0.587177
0.57721
0.409155
0.251879
0.151432
0.0922622
0.056915
0.035853
0.0238272
0.0174242
0.172402
0.600439
0.628655
0.469544
0.294287
0.17705
0.108109
0.0673593
0.0428419
0.02833
0.0201541
0.181818
0.601575
0.670949
0.538794
0.34985
0.21202
0.129593
0.0812554
0.0521547
0.0345044
0.0240692
0.187398
0.589074
0.693897
0.608993
0.420273
0.260853
0.160526
0.101145
0.0653808
0.043383
0.0298959
0.188144
0.561699
0.687425
0.663012
0.501417
0.328505
0.207198
0.13202
0.0859254
0.0571984
0.0391313
0.183564
0.509742
0.644405
0.68069
0.580283
0.418388
0.279785
0.183754
0.12129
0.0811813
0.0553266
0.194894
0.461915
0.586504
0.669117
0.640472
0.524108
0.387105
0.271221
0.186026
0.127197
0.0873269
0.181954
0.387022
0.461842
0.526038
0.547783
0.521685
0.452765
0.362301
0.274377
0.201978
0.145631
0.236348
0.475937
0.48039
0.513201
0.523025
0.506
0.463811
0.399011
0.328673
0.263467
0.205443
0.336443
0.360291
0.177118
0.0808951
0.04062
0.0237482
0.0170322
0.01425
0.0129498
0.0122521
0.0118178
0.274513
0.291735
0.154057
0.0859668
0.0453092
0.0265026
0.0185418
0.0152156
0.0137165
0.0129639
0.0125458
0.288237
0.306106
0.15469
0.102305
0.0571036
0.0331775
0.0217418
0.0169144
0.0148688
0.0139481
0.0135388
0.299577
0.291691
0.14873
0.109287
0.0656248
0.040348
0.0264488
0.0197378
0.0166622
0.0153111
0.0147853
0.306487
0.259792
0.14426
0.110957
0.0678686
0.0425873
0.0279519
0.0207803
0.0174726
0.0159983
0.0154399
0.310269
0.230313
0.139229
0.107855
0.0669393
0.0432236
0.0287578
0.0215152
0.0181051
0.0165904
0.0160565
0.312387
0.207267
0.134053
0.103284
0.0649065
0.0430386
0.029029
0.0220034
0.0186372
0.0171276
0.0166045
0.313071
0.189541
0.128918
0.0986255
0.062858
0.0425897
0.0291288
0.0224123
0.0191575
0.0177137
0.0172477
0.313512
0.175898
0.124455
0.0947829
0.0614138
0.0421645
0.029248
0.0227932
0.0196394
0.0182506
0.0177955
0.314455
0.165672
0.120795
0.0918035
0.0606841
0.0419934
0.0294904
0.0231912
0.0200986
0.0187623
0.0183696
0.316299
0.158155
0.118166
0.0900164
0.0606346
0.042224
0.0299274
0.0236472
0.0205509
0.0192491
0.0189484
0.318919
0.152378
0.11617
0.0891694
0.0611786
0.0428717
0.0305882
0.0241896
0.0210081
0.0196947
0.0194594
0.32261
0.148004
0.114853
0.0892105
0.0623786
0.0440107
0.0315353
0.0248632
0.0214914
0.0200902
0.0198792
0.32577
0.146095
0.114225
0.0900639
0.0644169
0.0458264
0.0329497
0.0257842
0.0220688
0.0204674
0.0201912
0.328185
0.145362
0.113823
0.0911844
0.0670661
0.0483212
0.0350124
0.0271559
0.0229155
0.0209622
0.0204868
0.330025
0.145874
0.113689
0.0925489
0.0702447
0.051575
0.0378417
0.0291512
0.0241866
0.0216971
0.0208608
0.331419
0.147706
0.113936
0.0941389
0.0738732
0.0556538
0.0415869
0.0320007
0.0261216
0.0228825
0.0214819
0.332433
0.150717
0.114628
0.0958891
0.0777969
0.0605284
0.0463769
0.0359706
0.0290517
0.0248517
0.0226532
0.333181
0.154866
0.115934
0.0977775
0.0818425
0.066069
0.052281
0.041331
0.0334007
0.028095
0.024877
0.333842
0.160228
0.118134
0.0998673
0.0858286
0.0719988
0.0591957
0.0482431
0.0395987
0.0332389
0.0288907
0.334685
0.166774
0.12154
0.102322
0.0895762
0.0778398
0.0666608
0.0564857
0.0477941
0.0408065
0.0355226
0.336419
0.174058
0.126265
0.10534
0.0928996
0.0828465
0.0735898
0.0649461
0.0571355
0.0503927
0.0448598
0.339528
0.18297
0.132896
0.109367
0.0958214
0.0862185
0.0782904
0.0712974
0.0650618
0.059579
0.0548815
0.357229
0.194593
0.153116
0.133352
0.121781
0.113218
0.105928
0.102808
0.102367
0.103396
0.104207
0.436898
0.789441
0.76848
0.727023
0.625081
0.449816
0.297372
0.200016
0.140899
0.100214
0.0702042
0.35742
0.571561
0.638969
0.645277
0.594406
0.469251
0.320313
0.199623
0.128984
0.0872138
0.0593354
0.239668
0.423719
0.51746
0.551539
0.535603
0.45498
0.331275
0.209807
0.12743
0.078451
0.0506542
0.137085
0.346472
0.425105
0.466245
0.469523
0.420278
0.324555
0.214437
0.128392
0.0748825
0.0451316
0.087016
0.301095
0.359602
0.395942
0.406638
0.376989
0.304864
0.210688
0.127889
0.0726418
0.0413479
0.0780166
0.245556
0.307393
0.337992
0.350082
0.331887
0.277668
0.199491
0.124106
0.0702082
0.0385672
0.0705424
0.193867
0.256907
0.288152
0.299916
0.288218
0.246939
0.182875
0.116718
0.0666333
0.0361061
0.0621814
0.154708
0.208893
0.241954
0.255341
0.247384
0.215302
0.162976
0.106419
0.0617615
0.0335583
0.0544885
0.124442
0.168729
0.199487
0.215391
0.210105
0.184705
0.142005
0.0946391
0.0561279
0.0309898
0.0477221
0.101242
0.137094
0.163511
0.179938
0.177014
0.156771
0.122075
0.0830697
0.0505986
0.0287041
0.0421803
0.0839737
0.113368
0.135012
0.150162
0.14888
0.132833
0.104863
0.073093
0.0459518
0.0269169
0.0380417
0.0716919
0.0965246
0.113973
0.126717
0.126482
0.113892
0.0914703
0.0655645
0.0426696
0.0258714
0.0349693
0.063007
0.0850483
0.0991232
0.109554
0.110056
0.100331
0.0823175
0.0608232
0.0409669
0.0256774
0.0328103
0.0568182
0.0771324
0.0890261
0.0978905
0.0990422
0.0916918
0.0770636
0.0586991
0.0408104
0.0262942
0.0310397
0.0526328
0.0719823
0.0826041
0.0906036
0.092411
0.0870202
0.0749801
0.058792
0.0420658
0.0277742
0.0294489
0.0498287
0.0687473
0.0787574
0.0864881
0.0891037
0.0854775
0.0755361
0.0608879
0.0446975
0.0300959
0.0278919
0.0478144
0.0666293
0.0765088
0.0845184
0.0883345
0.0866274
0.0786375
0.0651295
0.0489284
0.0334316
0.0262888
0.0463628
0.0651464
0.0752098
0.0842115
0.0900812
0.0909274
0.0850381
0.0723174
0.0554599
0.0383602
0.0246132
0.0452848
0.0638758
0.0746844
0.0861515
0.0957574
0.100351
0.0968462
0.0843143
0.0655707
0.0455005
0.0227858
0.0440358
0.0628516
0.0764966
0.0936904
0.110068
0.119814
0.117903
0.10375
0.081225
0.056245
0.0217687
0.0498391
0.067379
0.0840957
0.111066
0.135907
0.150055
0.149465
0.132165
0.103242
0.0716936
0.0367414
0.0586955
0.0733337
0.115663
0.155007
0.182905
0.197007
0.193746
0.170983
0.132329
0.0913048
0.0386809
0.106797
0.15122
0.196058
0.2315
0.251773
0.255749
0.245508
0.220644
0.175951
0.119632
0.180989
0.229025
0.276556
0.307072
0.317818
0.309449
0.28777
0.261072
0.235864
0.203487
0.152962
0.463095
0.804014
0.81234
0.741389
0.608295
0.449199
0.31404
0.223041
0.16384
0.11978
0.0838637
0.271483
0.502652
0.639586
0.685276
0.635597
0.514314
0.377439
0.27264
0.203195
0.151575
0.108898
0.12481
0.271447
0.435283
0.56655
0.620038
0.570333
0.450029
0.332303
0.250863
0.190815
0.141142
0.0834082
0.149179
0.265388
0.405491
0.528162
0.570341
0.504874
0.391204
0.302753
0.235771
0.178014
0.0841898
0.128713
0.192878
0.287171
0.408855
0.507087
0.515138
0.427331
0.343732
0.282562
0.222854
0.0883826
0.133475
0.182874
0.245396
0.331327
0.431378
0.493851
0.447183
0.350193
0.300381
0.257257
0.0932389
0.141318
0.185466
0.234538
0.298744
0.382792
0.459985
0.460185
0.360736
0.292829
0.268341
0.0984464
0.15026
0.191823
0.232533
0.281749
0.35059
0.429273
0.461155
0.387725
0.287798
0.262579
0.103835
0.160012
0.200269
0.234367
0.271316
0.324996
0.397175
0.44931
0.407449
0.299455
0.248713
0.109272
0.170445
0.210029
0.237987
0.264417
0.303404
0.364139
0.425979
0.414951
0.316081
0.240082
0.114815
0.181378
0.220471
0.242342
0.260034
0.28572
0.332325
0.394708
0.409437
0.32923
0.237805
0.120718
0.192737
0.2317
0.247601
0.257742
0.272378
0.304961
0.361157
0.394557
0.334836
0.240021
0.127294
0.204234
0.242585
0.253832
0.256905
0.262839
0.28306
0.324487
0.370359
0.336075
0.242426
0.134298
0.216493
0.25397
0.260419
0.256489
0.255043
0.266925
0.295504
0.332426
0.329078
0.243567
0.141254
0.229752
0.26665
0.268079
0.256591
0.24719
0.250743
0.268452
0.294788
0.303099
0.250616
0.148696
0.245102
0.28192
0.278152
0.258279
0.240069
0.235255
0.24429
0.262949
0.274171
0.253508
0.156985
0.26374
0.301589
0.292904
0.263785
0.23555
0.221921
0.22458
0.237311
0.247965
0.242777
0.166427
0.287371
0.328888
0.317089
0.278596
0.238465
0.213939
0.208988
0.21515
0.222221
0.221308
0.177199
0.317947
0.36823
0.357747
0.310516
0.254273
0.216117
0.200363
0.197979
0.199423
0.197624
0.187096
0.353431
0.415702
0.408079
0.353409
0.285029
0.232563
0.204477
0.193156
0.188925
0.184886
0.187078
0.377325
0.447545
0.447907
0.394959
0.319268
0.255139
0.2169
0.19925
0.192851
0.191362
0.188401
0.384053
0.460133
0.465605
0.416651
0.341284
0.273025
0.228876
0.206303
0.196815
0.193715
0.195553
0.38154
0.444191
0.448323
0.406721
0.342703
0.281305
0.237616
0.212099
0.19782
0.181631
0.263621
0.379134
0.405802
0.396585
0.366302
0.323364
0.278831
0.240566
0.216649
0.197144
0.16509
1.28863
1.75061
1.17014
0.682695
0.379458
0.208326
0.113893
0.0620352
0.0338262
0.0189826
0.0116589
0.84597
1.1763
0.917506
0.599208
0.360366
0.208444
0.11701
0.0639801
0.0345496
0.0190683
0.0114695
0.613447
0.94898
0.835885
0.618456
0.396462
0.237171
0.135775
0.0747625
0.0399959
0.0214559
0.012464
0.510947
0.755348
0.705305
0.578765
0.406704
0.257429
0.151168
0.0839447
0.0448186
0.0236387
0.0134173
0.460144
0.643092
0.608928
0.517328
0.377827
0.247635
0.149068
0.0844025
0.0457674
0.024419
0.0137361
0.42612
0.556223
0.533883
0.458501
0.338034
0.226054
0.140031
0.0818281
0.0456425
0.0248904
0.0142854
0.401628
0.490782
0.472795
0.405363
0.30092
0.203904
0.129013
0.0774686
0.0444858
0.0248926
0.0144878
0.383041
0.439671
0.422884
0.36069
0.268415
0.183324
0.117814
0.0723508
0.0426565
0.0245373
0.0148878
0.368576
0.399017
0.382291
0.324344
0.241412
0.165681
0.107715
0.0673983
0.0407334
0.0241128
0.0150373
0.357057
0.365865
0.349382
0.29541
0.219862
0.151387
0.0992795
0.0630649
0.038929
0.0236005
0.0149095
0.347634
0.338248
0.322279
0.27216
0.202708
0.139984
0.0924402
0.0594391
0.0373187
0.0230369
0.014843
0.339864
0.315061
0.299571
0.25304
0.188797
0.130817
0.0869366
0.0564905
0.0359779
0.0225485
0.0146987
0.333893
0.295396
0.28063
0.237538
0.177798
0.123705
0.0827106
0.0542499
0.0349836
0.0222065
0.0146508
0.329864
0.278743
0.264999
0.225415
0.169598
0.118594
0.0797644
0.0527532
0.0343804
0.0220399
0.0147155
0.327084
0.264548
0.251787
0.215746
0.16354
0.115125
0.0779385
0.0519632
0.0341951
0.0221025
0.0148581
0.32591
0.252282
0.240679
0.208337
0.159555
0.113312
0.0772826
0.0519416
0.0344965
0.0224409
0.0151516
0.325838
0.241936
0.23087
0.202579
0.157656
0.11347
0.078133
0.052932
0.0354554
0.0231529
0.0156308
0.326774
0.233034
0.221882
0.197578
0.157008
0.115156
0.080382
0.0549558
0.0371182
0.0244255
0.0165154
0.328956
0.225433
0.213575
0.193147
0.157416
0.118333
0.0841732
0.0582281
0.0396718
0.0263798
0.0178479
0.332846
0.219047
0.205744
0.188977
0.158533
0.122868
0.0896803
0.0631295
0.0435162
0.0293181
0.0198737
0.339219
0.213901
0.198126
0.184587
0.159739
0.128352
0.0969579
0.0701448
0.0493298
0.0338543
0.0231186
0.349844
0.209466
0.190453
0.179326
0.160076
0.133945
0.105687
0.0796248
0.0579515
0.0409913
0.0285164
0.364738
0.205023
0.181837
0.172653
0.158803
0.138687
0.115104
0.0914119
0.069964
0.051861
0.0374834
0.378395
0.200295
0.179641
0.169942
0.158863
0.143486
0.124771
0.104665
0.0849538
0.0668643
0.0512047
1.31202
2.3647
1.36507
0.898434
0.539725
0.286211
0.146921
0.0763274
0.0400642
0.0217117
0.0129263
1.24487
1.98112
1.4615
1.03923
0.701517
0.390935
0.20571
0.105594
0.0535081
0.0275376
0.0153692
1.05133
1.55197
1.37903
1.05761
0.765556
0.478766
0.268023
0.142824
0.0724657
0.0361787
0.01936
0.796716
1.32792
1.27108
1.02123
0.771021
0.522443
0.321361
0.181593
0.0951909
0.0478244
0.0256838
0.560378
1.28138
1.20005
0.979406
0.753877
0.536794
0.359447
0.216853
0.119571
0.0617668
0.0330426
0.409311
1.30366
1.17601
0.953001
0.733983
0.537448
0.381709
0.24791
0.143639
0.0770805
0.0417356
0.35806
1.35951
1.19011
0.944364
0.718129
0.532844
0.393961
0.272364
0.167191
0.0931953
0.0517692
0.378491
1.43331
1.23157
0.950336
0.706836
0.526186
0.400145
0.290012
0.188533
0.110473
0.0616176
0.404553
1.49335
1.29163
0.969919
0.700885
0.519499
0.402867
0.302931
0.206439
0.12686
0.073029
0.423306
1.52345
1.36037
1.0023
0.70112
0.514203
0.403827
0.312689
0.221657
0.141867
0.0843635
0.432415
1.50977
1.42661
1.04658
0.709217
0.511848
0.404407
0.320508
0.235083
0.155948
0.0954729
0.43623
1.47455
1.48327
1.09724
0.724054
0.512608
0.405184
0.327015
0.247195
0.169539
0.106057
0.436592
1.43687
1.52103
1.14975
0.745839
0.517357
0.406998
0.33289
0.258447
0.183052
0.116963
0.430751
1.37683
1.53104
1.20154
0.775665
0.527402
0.410849
0.338845
0.269303
0.196792
0.129238
0.422207
1.3097
1.51713
1.24676
0.811413
0.542995
0.417411
0.34548
0.280152
0.210993
0.143368
0.413083
1.24231
1.48214
1.27996
0.851257
0.564548
0.427856
0.353847
0.291683
0.226258
0.159526
0.406442
1.16695
1.42754
1.29553
0.891731
0.592438
0.443564
0.365418
0.304888
0.24309
0.178291
0.399884
1.0771
1.35369
1.28632
0.926345
0.625464
0.466539
0.382598
0.321493
0.262332
0.199941
0.392196
0.980261
1.24569
1.24353
0.945195
0.661753
0.499819
0.409753
0.345
0.285972
0.225077
0.383393
0.878635
1.09129
1.15168
0.943386
0.70326
0.551168
0.455599
0.38257
0.318533
0.255768
0.365214
0.733611
0.883735
0.965927
0.907432
0.743492
0.617519
0.517729
0.431561
0.35694
0.287282
0.412682
0.697712
0.734438
0.763861
0.741119
0.654241
0.567321
0.478949
0.392677
0.314321
0.24091
0.343431
0.715572
0.765668
0.620276
0.512813
0.411571
0.324504
0.254982
0.198332
0.152779
0.115973
0.38508
0.30139
0.239929
0.202791
0.178159
0.158085
0.139243
0.12059
0.102128
0.0843523
0.0677923
0.105377
0.0955201
0.0808942
0.0580532
0.0251127
0.011887
0.0148964
0.0166391
0.026124
0.140614
0.115231
0.0897874
0.0657585
0.04562
0.0272358
0.02396
0.0288105
0.0519118
0.137642
0.119051
0.100163
0.076684
0.0528833
0.0342706
0.0294503
0.0352777
0.063132
0.124035
0.107922
0.0931107
0.0760403
0.0556436
0.0395577
0.0354446
0.0412445
0.066454
0.113083
0.115339
0.11499
0.114241
0.107643
0.100194
0.0896574
0.0764262
0.0575147
0.161668
0.17799
0.190539
0.187641
0.167619
0.149245
0.125849
0.0991548
0.0729411
0.159556
0.179455
0.191713
0.185293
0.164495
0.144958
0.127006
0.109287
0.0872671
0.141119
0.157471
0.167387
0.161402
0.145203
0.129308
0.113479
0.0993394
0.0849558
0.00442751
0.00460079
0.00461621
0.00212255
0.046763
0.0043908
0.0112627
0.00453905
0.00438346
0.00424127
0.0466266
0.00454968
0.0037154
0.00328458
0.00448382
0.00430216
0.00330327
0.00211658
0.00429117
0.00424757
0.00411916
0.00438525
0.00466631
0.0183564
0.00449438
0.0032969
0.00376317
0.010948
0.0901225
0.0487987
0.00339051
0.00410489
0.00298737
0.00453411
0.00426126
0.00459188
0.017077
0.00448972
0.00291973
0.00440079
0.00744457
0.00454328
0.00743169
0.00465914
0.0615326
0.0140087
0.00326352
0.0220863
0.0042968
0.00431551
0.0490205
0.00440586
0.0240219
0.00746825
0.00431309
0.00412562
0.00426141
0.00441204
0.0884671
0.00483332
0.00579171
0.019578
0.0523963
0.00790291
0.00888306
0.00425835
0.0526815
0.00425177
0.0046015
0.00423003
0.00329627
0.00431035
0.00315204
0.00465322
0.00523372
0.00428418
0.0044634
0.00459613
0.00927139
0.0728996
0.0418139
0.0063284
0.00449582
0.00462555
0.0043726
0.00316817
0.106243
0.0131711
0.00314161
0.0174642
0.00454196
0.00442162
0.00760881
0.00432689
0.0719456
0.0279272
0.00348401
0.00397149
0.00347692
0.00441145
0.00470171
0.0216066
0.00416421
0.00402622
0.00283713
0.00454884
0.00304832
0.00464633
0.00417554
0.00419801
0.00450571
0.00455824
0.00429324
0.00225106
0.00435549
0.00442453
0.00438751
0.00431271
0.00449324
0.00413952
0.0022905
0.00454987
0.00481854
0.00325753
0.0129258
0.00415462
0.0502295
0.00304605
0.00320374
0.00348076
0.00445503
0.00477648
0.0217144
0.00429007
0.00461459
0.00454586
0.00410822
0.00429046
0.0498819
0.00446989
0.00791022
0.00412616
0.024222
0.00402413
0.00437834
0.00329947
0.00443334
0.00425579
0.00432192
0.0042382
0.00426243
0.00441974
0.00352475
0.00452522
0.00224165
0.00378544
0.00386552
0.0038145
0.00320915
0.0043567
0.00364075
0.00422869
0.00430415
0.00443411
0.0540349
0.00569244
0.0035824
0.00451327
0.00410668
0.00845545
0.00307356
0.0030995
0.00434096
0.00406065
0.00409513
0.0039639
0.00316191
0.00357161
0.0620349
0.0039298
0.00425876
0.00442805
0.00465977
0.0140649
0.00449679
0.00381607
0.00424136
0.00429705
0.00458759
0.0124149
0.00404429
0.00341497
0.00427121
0.00688335
0.00460971
0.00439748
0.00435003
0.00353902
0.0035584
0.00467915
0.00314643
0.00430624
0.00400182
0.00349286
0.00462797
0.0132456
0.00430809
0.00319643
0.00433799
0.00433799
0.0201532
0.00439579
0.00401501
0.00422204
0.00449009
0.0114207
0.00450889
0.00371266
0.00425586
0.00322591
0.00300743
0.00219915
0.00337761
0.00436057
0.00321674
0.00441679
0.00986376
0.00541115
0.00382654
0.0227441
0.0039422
0.00425559
0.00425532
0.00459759
0.00349536
0.063568
0.0495257
0.00464642
0.00455553
0.00454333
0.00373329
0.00826721
0.00401725
0.00544395
0.00433808
0.0046843
0.0045163
0.00358627
0.0329854
0.0545294
0.00357321
0.0204229
0.0051245
0.00429486
0.00396135
0.00436179
0.00414677
0.00447553
0.0031667
0.00423654
0.00338739
0.0045514
0.00432549
0.00457188
0.00450407
0.00311497
0.00412973
0.00429729
0.00559396
0.00372478
0.0220906
0.00430592
0.00429908
0.00316311
0.00438505
0.00432612
0.00331842
0.00444449
0.00428435
0.00314235
0.0043557
0.00459707
0.0421651
0.0462587
0.0039611
0.0043923
0.0776652
0.00458508
0.00425419
0.00781005
0.00461537
0.0113504
0.0046289
0.00293457
0.00467826
0.00434797
0.0040941
0.00456171
0.00426009
0.00334619
0.00444669
0.00245628
0.00436928
0.0492153
0.00415714
0.00419324
0.00459664
0.0130704
0.00427382
0.00435104
0.00726623
0.00456222
0.0040995
0.00298297
0.00502103
0.00410614
0.00369712
0.00319979
0.00412954
0.00443698
0.00424096
0.0313768
0.00435719
0.00339214
0.00551096
0.00428142
0.00445282
0.00371271
0.00423963
0.0363688
0.00426171
0.0529078
0.00400596
0.00465166
0.00355715
0.0420646
0.00348175
0.00458435
0.00447081
0.00394997
0.00398257
0.0196045
0.00429447
0.0056131
0.0209539
0.0132506
0.00481011
0.00437998
0.014434
0.0560382
0.00837256
0.00393351
0.00374209
0.00417433
0.00394893
0.00468916
0.00306843
0.00399742
0.00466029
0.0414169
0.00386335
0.00332494
0.00451644
0.00451182
0.00430731
0.00330165
0.00308833
0.00330652
0.0099495
0.00479897
0.00443813
0.0118814
0.0390942
0.00319365
0.00387423
0.00460661
0.00391816
0.00424848
0.00437204
0.00424374
0.0365109
0.00438164
0.00321479
0.00442265
0.00340146
0.050347
0.00236824
0.00320204
0.00811742
0.00349735
0.00442931
0.00511413
0.00310435
0.00477613
0.051935
0.00919371
0.00447845
0.00427644
0.00462115
0.00575992
0.00315002
0.0044112
0.00466365
0.00806084
0.0028567
0.0093495
0.0079572
0.00663795
0.00430552
0.0312141
0.00436876
0.00427649
0.00373815
0.00367162
0.0040561
0.00407872
0.00407115
0.00490116
0.00313855
0.00482343
0.0315726
0.00321012
0.0118613
0.00395624
0.00398422
0.00418093
0.00462145
0.00482039
0.005151
0.0105167
0.00448518
0.00321564
0.00342895
0.00410347
0.00460461
0.00335452
0.0258743
0.0489388
0.00326864
0.00468851
0.00396194
0.10543
0.00228309
0.00240662
0.00423242
0.00491945
0.00655195
0.00343319
0.00433869
0.00399945
0.00444072
0.00461257
0.0044974
0.00427151
0.00441465
0.0103459
0.00308555
0.00316043
0.00491398
0.00458934
0.00433388
0.0526462
0.00319888
0.00395232
0.00433332
0.00814995
0.00764029
0.00545505
0.00546768
0.00426145
0.0039346
0.00316931
0.00421955
0.00568913
0.00427776
0.00458199
0.00431705
0.00557828
0.00367103
0.00424712
0.00445287
0.00413576
0.016587
0.0044845
0.00464686
0.00333611
0.0306664
0.00404635
0.00353347
0.00433736
0.00337953
0.00439479
0.00426978
0.00441217
0.00333342
0.00327219
0.00426132
0.00339638
0.00400276
0.00428727
0.00375088
0.00370231
0.00453285
0.00453425
0.0364543
0.00432944
0.0029065
0.0042663
0.0186413
0.0046189
0.0371504
0.00435606
0.00355558
0.00506399
0.00474452
0.0495386
0.00509524
0.00338493
0.00445296
0.00360663
0.00411929
0.00459528
0.00442358
0.00456807
0.00422777
0.0352574
0.00451105
0.00435127
0.0124914
0.00443954
0.00947623
0.00423377
0.0107069
0.0033153
0.00319079
0.00467781
0.00447625
0.0046366
0.006288
0.0037259
0.00450076
0.0044911
0.0032492
0.0046164
0.00234902
0.00460547
0.047029
0.00424145
0.00405984
0.00294355
0.00333205
0.0152516
0.0392224
0.00416723
0.00412584
0.00430459
0.00460359
0.00335394
0.00329534
0.00423446
0.00352259
0.0265586
0.0240683
0.00449282
0.00431455
0.0045966
0.00643666
0.052207
0.00423106
0.00453786
0.00437949
0.04628
0.0042916
0.00304538
0.00325918
0.0078682
0.0350425
0.00443502
0.00450668
0.0044632
0.00521572
0.00433399
0.00540098
0.00318409
0.00409672
0.00521706
0.0071401
0.00463834
0.00467373
0.0708161
0.00440834
0.00354491
0.00318517
0.00543015
0.0058821
0.00395256
0.00361043
0.00421093
0.00444138
0.00448653
0.0281663
0.00305086
0.00389394
0.00424926
0.00450142
0.00663565
0.00423146
0.00438304
0.00430028
0.00429503
0.00319508
0.00305984
0.00541521
0.00567707
0.00402009
0.00515961
0.00428828
0.00981729
0.00426975
0.00445407
0.0337482
0.0273554
0.00438396
0.00438765
0.00401912
0.00415142
0.00432828
0.00565044
0.00460681
0.00422305
0.00330875
0.00294356
0.00382209
0.00311677
0.00318049
0.0055615
0.0213296
0.00501276
0.00625462
0.0035416
0.00350131
0.00467919
0.00349259
0.00462077
0.00418104
0.0055809
0.00394468
0.00421483
0.00447486
0.0034378
0.00771534
0.0310388
0.00361329
0.00439737
0.00442708
0.00524951
0.00455022
0.00428674
0.00427421
0.00340417
0.00425378
0.00427833
0.00421008
0.00458925
0.00390086
0.0062144
0.0219153
0.00426896
0.00422764
0.00399027
0.00958559
0.00439872
0.0155708
0.00429876
0.00602006
0.0275129
0.00443324
0.00390482
0.00465866
0.00300366
0.00496574
0.00316741
0.0292009
0.00364875
0.00427319
0.00463605
0.00372822
0.00320875
0.00420138
0.0497992
0.00437134
0.00408395
0.00463214
0.00374775
0.00420784
0.00321627
0.00455196
0.00441128
0.00440123
0.00377786
0.00457088
0.00456233
0.00331837
0.00437305
0.0052123
0.0032194
0.00408429
0.00368727
0.00468309
0.00291435
0.0040871
0.00374088
0.00360737
0.00720623
0.00300835
0.0114442
0.0044683
0.00336553
0.00448913
0.00426037
0.00677492
0.00507072
0.00341551
0.00327924
0.00429467
0.00422252
0.00413141
0.00408028
0.00458404
0.0619312
0.00744926
0.0457952
0.00417092
0.00397779
0.00667918
0.00570431
0.00456022
0.00347852
0.00378427
0.00288125
0.00452323
0.00333372
0.0251482
0.00454818
0.00923901
0.00349994
0.00466737
0.00588285
0.00438829
0.00425841
0.0042232
0.00336025
0.00436974
0.00319563
0.00456962
0.00301268
0.00430716
0.0029488
0.00428253
0.0236296
0.00408279
0.0042854
0.0229088
0.0146301
0.00446428
0.00319378
0.00385492
0.00533494
0.00513992
0.00386114
0.0045517
0.00433177
0.00295291
0.00497031
0.00427866
0.00436455
0.00441728
0.00370633
0.00370755
0.0046898
0.00448313
0.00456336
0.0314774
0.0314727
0.00360042
0.00457139
0.00337705
0.00472421
0.00455485
0.00457822
0.00462625
0.00448035
0.00432732
0.00316221
0.00496638
0.0103685
0.00308643
0.00458104
0.00442799
0.00449518
0.00376937
0.0325774
0.00459542
0.00413357
0.00352384
0.0171234
0.0201141
0.00471305
0.00391936
0.00384087
0.00443188
0.00446462
0.0121088
0.00421801
0.00456
0.00447828
0.00786554
0.00400095
0.00390387
0.00455537
0.00409666
0.0057429
0.00372668
0.00455867
0.0030954
0.00653661
0.00453921
0.00407809
0.00463936
0.0042721
0.00210194
0.00297947
0.00493059
0.00460021
0.00420785
0.00456993
0.00432808
0.00458661
0.00433808
0.00344449
0.00888125
0.0138003
0.0077224
0.00454226
0.0521017
0.00466876
0.00429211
0.00475435
0.00448519
0.00441596
0.00442403
0.00299064
0.0177648
0.00378163
0.0044128
0.00313231
0.00442233
0.00468838
0.00431856
0.00438279
0.00451072
0.00449443
0.00455756
0.00428799
0.0606497
0.00438323
0.00425548
0.00496771
0.0179033
0.00424995
0.00450517
0.00486225
0.0507726
0.00423337
0.00448888
0.00295082
0.00326843
0.0046506
0.00454034
0.00427456
0.00400665
0.0111829
0.00459525
0.0123717
0.00294595
0.0215464
0.00299306
0.00457617
0.00325149
0.00564074
0.00444513
0.00456215
0.00427338
0.00460647
0.00396928
0.0104412
0.0041735
0.00562207
0.0544063
0.00530201
0.0039436
0.0057618
0.00466339
0.00455579
0.00314013
0.0028498
0.00328731
0.004407
0.0294703
0.00429649
0.0033325
0.00430762
0.0031341
0.00313123
0.00325731
0.00353562
0.00420345
0.00452818
0.0468675
0.00408092
0.0548558
0.00438508
0.00302491
0.00435414
0.0042098
0.0571384
0.00438041
0.00460365
0.00352553
0.00992543
0.00767493
0.00346384
0.00326817
0.00331562
0.0118635
0.0340898
0.00452015
0.0044171
0.057898
0.00439781
0.0054595
0.00449072
0.0144743
0.00300319
0.00620895
0.00460322
0.00342722
0.00464774
0.00441491
0.00407362
0.00244095
0.00424788
0.00445767
0.00428874
0.00456069
0.00475472
0.00466534
0.00446505
0.00418482
0.00925993
0.00357684
0.00402259
0.00460934
0.00790718
0.00299553
0.00459733
0.00467917
0.00408757
0.00687496
0.0506763
0.00397594
0.00341703
0.00410128
0.00434328
0.00313863
0.00439394
0.00422953
0.00904348
0.0045535
0.0584863
0.00784769
0.0228967
0.00455274
0.00454393
0.00376268
0.0433028
0.00335046
0.00313849
0.00467573
0.00307045
0.0193932
0.00456004
0.00402877
0.00608035
0.00389622
0.0317939
0.00368127
0.00445458
0.00432176
0.00422457
0.0042537
0.00726662
0.00292227
0.0105447
0.0521084
0.00459702
0.00308772
0.00388308
0.00512949
0.0142923
0.00490664
0.00438791
0.00406594
0.00312366
0.0045447
0.00469702
0.0046789
0.00421466
0.0041509
0.0046089
0.00371721
0.00800096
0.0032026
0.00452102
0.00809426
0.00408985
0.00407866
0.00399741
0.00455464
0.00431636
0.00447511
0.0130237
0.00427631
0.00737045
0.00400397
0.00342124
0.00450452
0.00417761
0.00450388
0.00437581
0.00344535
0.0125848
0.00863025
0.0560297
0.010869
0.0346423
0.00419544
0.00448939
0.00249534
0.00462757
0.0032462
0.0173354
0.00429195
0.0056406
0.00388673
0.0299982
0.00421008
0.00319742
0.00454978
0.0489226
0.00469639
0.0344166
0.00407241
0.00480223
0.00489022
0.0103285
0.00422229
0.0055055
0.00655366
0.00446482
0.0198374
0.00558571
0.0244242
0.00346607
0.00236767
0.0148669
0.00465211
0.00461149
0.00372782
0.00431336
0.00344341
0.00331367
0.00319073
0.00390474
0.00313969
0.0550173
0.00437282
0.00426172
0.00436648
0.0045694
0.00291664
0.00340528
0.00424442
0.00331905
0.044007
0.00428267
0.0576846
0.00720317
0.00448033
0.0063239
0.00380214
0.00318243
0.00318282
0.0214898
0.00442423
0.00452747
0.05199
0.00437014
0.00458612
0.00355712
0.00454336
0.00430306
0.0324817
0.0046423
0.035864
0.00398232
0.00388377
0.00428433
0.00430449
0.0065735
0.00324167
0.0140377
0.00444732
0.00293173
0.0054452
0.00305826
0.00357489
0.00527963
0.0051619
0.00423953
0.00802764
0.0129625
0.0040638
0.00431411
0.0034826
0.00381189
0.00471396
0.00347065
0.050831
0.00425943
0.00468938
0.00450794
0.00408871
0.00285057
0.0032021
0.00326682
0.0704767
0.00484358
0.00587729
0.00555618
0.00457329
0.00396606
0.00424569
0.00422872
0.0973735
0.00457023
0.0203955
0.0236037
0.00456071
0.0044942
0.0046405
0.0312764
0.030124
0.0208742
0.00335237
0.00456442
0.0042631
0.00326151
0.0349215
0.00657348
0.00305444
0.0043382
0.00615826
0.00683372
0.00541182
0.00417736
0.0137243
0.0276328
0.00405249
0.0038329
0.00429659
0.00439174
0.030261
0.00318961
0.00371981
0.00460042
0.00465022
0.00416406
0.0484926
0.00311234
0.00295862
0.00774083
0.00500304
0.00437883
0.0130331
0.00530042
0.00461973
0.00304895
0.00369198
0.00411973
0.0504917
0.00453498
0.00442252
0.00425371
0.00503543
0.00310512
0.00435613
0.00510375
0.00461291
0.00455727
0.00468819
0.00330062
0.00443045
0.00706517
0.00420416
0.00455812
0.0498468
0.00436993
0.00353011
0.0036154
0.0045861
0.00352063
0.00534743
0.00451926
0.00456203
0.00448021
0.0030311
0.00449657
0.00426906
0.00443653
0.00350667
0.00673287
0.0031253
0.00838976
0.00429618
0.00539976
0.00418093
0.00467573
0.00422666
0.0045864
0.00314703
0.00413982
0.00325559
0.00412903
0.00419662
0.00449922
0.00446974
0.0257364
0.00546791
0.0158972
0.00468828
0.00316072
0.0553548
0.00322768
0.00295565
0.00439587
0.00548777
0.0106063
0.0062927
0.00319287
0.00480256
0.0037919
0.00302399
0.00450351
0.0676742
0.00309282
0.00414266
0.00405186
0.00396683
0.00361195
0.00278657
0.00428009
0.00306487
0.0554401
0.0456738
0.00448554
0.00425523
0.00713105
0.0135632
0.00401669
0.00454796
0.0041506
0.00462934
0.00444788
0.00495838
0.00440232
0.00464955
0.0130787
0.00238093
0.00430766
0.00442816
0.00439723