/*--------------------------------*- C++ -*----------------------------------*\
| =========                 |                                                 |
| \\      /  F ield         | OpenFOAM: The Open Source CFD Toolbox           |
|  \\    /   O peration     | Version:  3.0.1                                 |
|   \\  /    A nd           | Web:      www.OpenFOAM.org                      |
|    \\/     M anipulation  |                                                 |
\*---------------------------------------------------------------------------*/
FoamFile
{
    version     2.0;
    format      ascii;
    class       volScalarField;
    location    "0.821517";
    object      p;
}
// * * * * * * * * * * * * * * * * * * * * * * * * * * * * * * * * * * * * * //

dimensions      [0 2 -2 0 0 0 0];

internalField   nonuniform List<scalar> 
21246
(
-1.33431
3.10004
3.93734
3.89263
3.4218
2.86897
2.34496
1.87859
1.46879
1.13084
0.968823
-24.4141
-11.32
-6.7785
-3.14692
-1.08015
-0.106557
0.272868
0.363527
0.320673
0.22494
0.195543
-28.3277
-19.7876
-16.1366
-10.8559
-6.88694
-4.19907
-2.56054
-1.6264
-1.11331
-0.826477
-0.613538
-24.5331
-21.3999
-19.778
-15.3334
-11.4884
-8.12858
-5.59643
-3.86658
-2.74541
-2.02244
-1.50985
-20.0832
-19.3194
-18.9411
-16.2495
-13.5791
-10.5924
-7.94836
-5.84681
-4.30387
-3.21599
-2.42716
-16.7046
-16.6107
-16.5889
-15.1457
-13.5699
-11.371
-9.16433
-7.15194
-5.49202
-4.21217
-3.23558
-14.0832
-14.216
-14.2365
-13.4338
-12.5162
-11.0092
-9.36605
-7.69236
-6.16287
-4.87216
-3.81563
-11.892
-12.1439
-12.1602
-11.7021
-11.1457
-10.1166
-8.93341
-7.62759
-6.34153
-5.17303
-4.16888
-10.1887
-10.365
-10.3726
-10.1184
-9.76898
-9.05645
-8.20205
-7.1996
-6.15642
-5.14973
-4.23851
-8.89499
-8.95068
-8.9268
-8.76891
-8.52373
-8.01105
-7.37799
-6.60206
-5.76107
-4.91066
-4.10133
-7.82225
-7.80252
-7.77265
-7.64759
-7.44916
-7.0574
-6.56688
-5.95171
-5.26718
-4.55461
-3.87228
-6.93127
-6.82603
-6.77744
-6.68089
-6.51794
-6.20678
-5.80959
-5.30603
-4.73647
-4.12793
-3.52496
-6.259
-6.06134
-5.99377
-5.89339
-5.73779
-5.46906
-5.12547
-4.69352
-4.20435
-3.6774
-3.14356
-5.75023
-5.48536
-5.39898
-5.2783
-5.10785
-4.84805
-4.52319
-4.12851
-3.69077
-3.22882
-2.77754
-5.32471
-5.00861
-4.90128
-4.75517
-4.56825
-4.30686
-3.98423
-3.6052
-3.19724
-2.77928
-2.37286
-4.95665
-4.60836
-4.47682
-4.30197
-4.09464
-3.82145
-3.48859
-3.10941
-2.71593
-2.33119
-1.97443
-4.63193
-4.2606
-4.10776
-3.90667
-3.67269
-3.37822
-3.02175
-2.62811
-2.23863
-1.8821
-1.57046
-4.31691
-3.93673
-3.76027
-3.53381
-3.27279
-2.95111
-2.55929
-2.14324
-1.75485
-1.42762
-1.16197
-3.99944
-3.61854
-3.42391
-3.17738
-2.88576
-2.52633
-2.07607
-1.63906
-1.25825
-0.969232
-0.766599
-3.68522
-3.30953
-3.10245
-2.83416
-2.4937
-2.06239
-1.56905
-1.10805
-0.751677
-0.514386
-0.368903
-3.36225
-3.00956
-2.79115
-2.48433
-2.06492
-1.54303
-1.0023
-0.553181
-0.258792
-0.0836243
0.0181834
-2.96531
-2.71142
-2.45524
-2.06187
-1.52654
-0.925837
-0.392975
-0.0279909
0.174219
0.27145
0.333439
-2.83754
-2.52359
-2.09923
-1.5257
-0.880465
-0.286718
0.141926
0.368656
0.481608
0.559462
0.756085
-2.22469
-1.35918
-0.801762
-0.269246
0.164012
0.437573
0.528455
0.509269
0.46931
0.44375
0.517009
22.4822
15.9728
11.5775
8.60079
6.53154
5.06483
3.97781
3.12858
2.44284
1.9083
1.56304
17.5675
17.5051
15.2185
12.3389
9.63882
7.44679
5.74382
4.42362
3.39832
2.63872
2.16071
11.2466
13.3971
13.3409
12.5433
10.7883
8.7387
6.86096
5.29664
4.06642
3.15161
2.56331
5.6754
8.88129
9.7826
10.2878
9.81384
8.6198
7.19034
5.77889
4.52865
3.53193
2.88598
1.7985
4.79254
5.88555
7.2308
7.72967
7.51023
6.73322
5.69496
4.61276
3.67108
3.01712
-0.699606
1.76459
2.63146
4.227
5.15024
5.60435
5.46809
4.96128
4.23609
3.49545
2.94039
-2.2675
-0.25432
0.296768
1.87478
2.81426
3.62389
3.93846
3.86952
3.51179
3.03579
2.641
-3.19423
-1.53567
-1.31039
0.239067
0.96613
1.88826
2.43755
2.67978
2.63392
2.41392
2.19397
-3.89896
-2.40022
-2.43451
-1.01009
-0.35417
0.518678
1.14229
1.5614
1.73737
1.72801
1.67495
-4.4828
-3.23455
-3.03409
-2.01091
-1.35739
-0.539655
0.0958596
0.602475
0.919681
1.06956
1.15864
-4.9111
-3.97102
-3.58424
-2.72218
-2.10995
-1.34787
-0.721668
-0.174666
0.227633
0.487372
0.673478
-5.16397
-4.38034
-4.01044
-3.23478
-2.66139
-1.94916
-1.34113
-0.778758
-0.327609
0.00390285
0.252665
-5.37348
-4.63775
-4.29781
-3.58465
-3.04573
-2.37407
-1.78696
-1.22357
-0.748076
-0.370611
-0.0840889
-5.56657
-4.81587
-4.48092
-3.80356
-3.28861
-2.64789
-2.07995
-1.52303
-1.03967
-0.639046
-0.319827
-5.54712
-4.85268
-4.55091
-3.90714
-3.41047
-2.79435
-2.24117
-1.69376
-1.21181
-0.803656
-0.476598
-5.46774
-4.80967
-4.52782
-3.9125
-3.42571
-2.83025
-2.28652
-1.75008
-1.27538
-0.870875
-0.545913
-5.37065
-4.7176
-4.43221
-3.83493
-3.3454
-2.76456
-2.22556
-1.70153
-1.2399
-0.849797
-0.540616
-5.1871
-4.54616
-4.25449
-3.67304
-3.17146
-2.59943
-2.06305
-1.55485
-1.11435
-0.750177
-0.460932
-4.92046
-4.29312
-3.98885
-3.41994
-2.89913
-2.33183
-1.80097
-1.31658
-0.909014
-0.584039
-0.3334
-4.59004
-3.96495
-3.63177
-3.06631
-2.52023
-1.95732
-1.44277
-0.996802
-0.637697
-0.364671
-0.162496
-4.17855
-3.54228
-3.16231
-2.59192
-2.02366
-1.47623
-1.00055
-0.614331
-0.319782
-0.106841
0.0418453
-3.64018
-2.98076
-2.53372
-1.96194
-1.3983
-0.898303
-0.496519
-0.193738
0.0274486
0.179521
0.272489
-3.0506
-2.25828
-1.7509
-1.22903
-0.729932
-0.322261
-0.0217822
0.191956
0.348316
0.442352
0.484336
-1.58563
-0.935228
-0.546021
-0.204467
0.0999328
0.317677
0.478333
0.629768
0.765634
0.847785
0.751824
-9.4021
-4.8815
-2.91449
-1.84025
-1.03733
-0.50621
-0.207117
-0.0299194
0.0657053
0.116747
0.17546
-10.267
-7.21366
-5.56958
-4.11524
-2.76949
-1.78349
-1.1466
-0.742888
-0.49591
-0.337263
-0.221466
-7.64183
-7.20358
-6.60085
-5.55061
-4.27725
-3.10835
-2.1909
-1.5432
-1.10567
-0.804838
-0.598719
-6.40484
-6.48593
-6.3052
-5.76795
-4.9364
-3.95279
-3.00773
-2.23754
-1.66904
-1.26538
-0.959461
-5.76715
-5.8198
-5.75292
-5.49083
-4.98562
-4.26563
-3.45134
-2.6935
-2.0766
-1.60685
-1.24645
-5.27227
-5.2698
-5.22978
-5.07711
-4.75202
-4.23545
-3.58453
-2.91381
-2.31885
-1.83361
-1.44314
-4.81349
-4.77879
-4.74
-4.62734
-4.39772
-4.01704
-3.50689
-2.94342
-2.40839
-1.94372
-1.54935
-4.41131
-4.34104
-4.29328
-4.18259
-3.9999
-3.70416
-3.30078
-2.83726
-2.37516
-1.95397
-1.58483
-4.07929
-3.97312
-3.90544
-3.78319
-3.61486
-3.36528
-3.03474
-2.65191
-2.25911
-1.88667
-1.54562
-3.81371
-3.67655
-3.59014
-3.45395
-3.28044
-3.05053
-2.76351
-2.43781
-2.101
-1.77423
-1.46667
-3.60341
-3.44026
-3.34093
-3.18886
-3.00618
-2.78145
-2.51793
-2.22843
-1.93102
-1.63999
-1.3639
-3.43417
-3.24971
-3.14393
-2.97762
-2.78541
-2.56048
-2.3082
-2.03894
-1.76566
-1.49788
-1.24028
-3.29772
-3.09693
-2.9878
-2.81
-2.61034
-2.38313
-2.13421
-1.8733
-1.61172
-1.35803
-1.11787
-3.18841
-2.97507
-2.86213
-2.67705
-2.47189
-2.24093
-1.98978
-1.72844
-1.46872
-1.22005
-0.988099
-3.09682
-2.87366
-2.75897
-2.56936
-2.35908
-2.1229
-1.86535
-1.59704
-1.33164
-1.08191
-0.853331
-3.02008
-2.78988
-2.67383
-2.48108
-2.26513
-2.02129
-1.75265
-1.47128
-1.19457
-0.940183
-0.715742
-2.95743
-2.72311
-2.60538
-2.41081
-2.18787
-1.93221
-1.64594
-1.3444
-1.05152
-0.790623
-0.567268
-2.90622
-2.67177
-2.55443
-2.35921
-2.12732
-1.8534
-1.54
-1.20999
-0.897605
-0.633377
-0.422514
-2.86671
-2.63825
-2.5245
-2.33063
-2.08575
-1.78211
-1.42718
-1.06038
-0.729363
-0.469333
-0.279442
-2.84181
-2.62865
-2.52326
-2.3301
-2.05954
-1.70697
-1.29792
-0.88581
-0.54093
-0.302714
-0.146381
-2.83482
-2.64652
-2.57409
-2.38356
-2.10145
-1.69846
-1.21261
-0.741571
-0.368477
-0.14778
-0.0428917
-2.8204
-2.79976
-2.77487
-2.56188
-2.14712
-1.64599
-1.13364
-0.669633
-0.305179
-0.0798226
0.0113163
-3.06777
-3.36525
-2.84212
-2.40211
-1.93246
-1.44785
-1.00879
-0.640303
-0.353846
-0.158309
-0.0548654
-4.49215
-2.35028
-2.13872
-1.7595
-1.40238
-1.10312
-0.856384
-0.649048
-0.477095
-0.340535
-0.232846
0.27045
-0.417457
-0.482012
-0.245824
0.0649179
0.337153
0.499521
0.561968
0.55857
0.533223
0.552049
3.31242
2.57799
1.92556
1.5487
1.40178
1.35794
1.30713
1.20552
1.064
0.924841
0.891444
3.52731
3.3475
3.03832
2.69726
2.42994
2.23459
2.04534
1.81269
1.54178
1.28416
1.14061
3.2256
3.18178
3.11393
2.97582
2.81727
2.66477
2.48553
2.22724
1.89206
1.55494
1.36067
2.85419
2.80339
2.78406
2.73222
2.66262
2.58685
2.48978
2.31016
2.01624
1.66371
1.43139
2.46699
2.37843
2.34755
2.2906
2.22812
2.16912
2.12008
2.05497
1.89796
1.62402
1.40966
2.084
1.94483
1.88536
1.78962
1.68908
1.59625
1.53627
1.52395
1.49282
1.34934
1.19288
1.70723
1.51609
1.42285
1.27412
1.116
0.956695
0.825702
0.768107
0.793116
0.790867
0.7375
1.34761
1.10054
0.975575
0.76608
0.54214
0.302823
0.0766217
-0.0823049
-0.105082
-0.00798574
0.113292
1.02405
0.698632
0.562657
0.285824
-0.0056819
-0.329943
-0.661656
-0.937809
-1.06349
-0.977885
-0.699246
0.730785
0.325657
0.209875
-0.148369
-0.503539
-0.908921
-1.34424
-1.74068
-1.98647
-1.97448
-1.63574
0.466746
0.0502168
-0.142159
-0.516701
-0.930108
-1.40559
-1.92816
-2.43192
-2.80187
-2.88509
-2.55927
0.247149
-0.173297
-0.423216
-0.812258
-1.27103
-1.80097
-2.38662
-2.97534
-3.44123
-3.62518
-3.26577
0.0889175
-0.329481
-0.616725
-1.01868
-1.50336
-2.06726
-2.69277
-3.33143
-3.85775
-4.09809
-3.85979
-0.00995303
-0.41226
-0.716963
-1.12051
-1.61146
-2.18548
-2.82233
-3.47678
-4.03856
-4.32365
-4.17984
-0.043454
-0.41599
-0.722699
-1.11515
-1.59526
-2.15888
-2.78391
-3.42183
-3.97456
-4.28741
-4.24355
-0.00454908
-0.336001
-0.631992
-1.00233
-1.45642
-1.99048
-2.58641
-3.19334
-3.70565
-4.01072
-4.04105
0.107438
-0.175509
-0.450387
-0.788896
-1.20254
-1.69356
-2.24508
-2.79896
-3.25946
-3.52987
-3.54504
0.279939
0.0459365
-0.201341
-0.498667
-0.863682
-1.30069
-1.79278
-2.28376
-2.68342
-2.90433
-2.88233
0.483727
0.296674
0.0840179
-0.171787
-0.489905
-0.88188
-1.31708
-1.73331
-2.04891
-2.18139
-2.04842
0.707441
0.563819
0.370373
0.119089
-0.20223
-0.573055
-0.945322
-1.26808
-1.48074
-1.51364
-1.333
0.922225
0.772749
0.537512
0.213624
-0.148468
-0.490499
-0.773019
-0.976907
-1.0856
-1.0569
-0.845189
0.956841
0.774917
0.372549
-0.055606
-0.408203
-0.640765
-0.773283
-0.840307
-0.852533
-0.802478
-0.686807
1.15554
0.252344
-0.310236
-0.662682
-0.813782
-0.837531
-0.803415
-0.74939
-0.683017
-0.587507
-0.447811
13.5198
7.76751
5.08078
4.00089
3.61446
3.48366
3.4078
3.31017
3.17921
3.04431
2.98875
22.9467
18.9814
15.0677
11.9658
9.61087
7.92669
6.73487
5.85474
5.16587
4.63267
4.28335
20.4461
20.1017
18.2397
15.9162
13.5458
11.3997
9.59572
8.14013
6.98457
6.09627
5.50161
17.9197
18.3999
17.9515
16.9295
15.3823
13.5485
11.7106
10.0532
8.64715
7.50024
6.64988
16.0548
16.8721
16.8623
16.5498
15.7157
14.4723
12.9848
11.4372
9.96638
8.66573
7.65519
14.3494
15.2561
15.3316
15.4409
15.1509
14.4428
13.3815
12.104
10.7543
9.46504
8.39418
12.9789
13.6673
13.89
14.1169
14.0956
13.7598
13.0895
12.1446
11.0294
9.8721
8.83433
11.9962
12.4704
12.6711
12.904
12.9831
12.8472
12.4458
11.7844
10.9172
9.95108
9.05673
11.1873
11.5548
11.6971
11.8897
11.9841
11.9343
11.6869
11.2234
10.5607
9.77058
9.00724
10.416
10.7566
10.8736
11.0347
11.1186
11.0989
10.9316
10.5925
10.0795
9.43344
8.7816
9.8296
10.1063
10.1835
10.3088
10.3693
10.3523
10.2222
9.95685
9.54621
9.01389
8.47595
9.48226
9.63289
9.63652
9.70395
9.72321
9.68814
9.56743
9.34208
8.9995
8.55121
8.08415
9.08412
9.17236
9.14257
9.16718
9.14677
9.08629
8.96001
8.75342
8.45455
8.06758
7.67749
8.61097
8.69301
8.6586
8.65728
8.6065
8.52205
8.38419
8.18441
7.91381
7.57004
7.22789
8.30569
8.30282
8.21735
8.17235
8.08617
7.97584
7.82339
7.62499
7.37595
7.07111
6.7738
7.94719
7.88547
7.76746
7.68543
7.56532
7.42913
7.26182
7.06387
6.83422
6.56366
6.3037
7.47172
7.39657
7.27433
7.16821
7.02069
6.86232
6.68386
6.49006
6.28246
6.04682
5.81732
7.05637
6.9247
6.76704
6.62165
6.44244
6.26347
6.08035
5.8993
5.72039
5.5262
5.34514
6.61695
6.4146
6.21346
6.02323
5.81254
5.62016
5.44653
5.29447
5.15675
5.01025
4.87105
6.07839
5.80241
5.56226
5.33449
5.10634
4.92312
4.78646
4.68739
4.60509
4.50988
4.39615
5.42379
5.05744
4.77859
4.52943
4.3159
4.18494
4.12562
4.10523
4.08794
4.04519
3.96437
4.62418
4.12868
3.83874
3.61222
3.47747
3.46353
3.52198
3.59172
3.63416
3.63338
3.58424
3.32555
3.013
2.71685
2.61978
2.68283
2.85526
3.04277
3.18253
3.26002
3.27636
3.22134
4.02057
2.00589
2.06757
2.21056
2.43017
2.68009
2.85579
2.95842
3.00721
3.00619
2.92641
-33.4474
-14.1401
-7.14703
-3.555
-1.49512
-0.221824
0.524729
0.990922
1.28831
1.47606
1.67201
-52.3824
-32.9011
-23.679
-15.9401
-9.70962
-5.69424
-3.31152
-1.84447
-0.890267
-0.250968
0.257596
-46.7969
-40.2913
-34.9503
-27.0528
-18.9404
-12.6459
-8.25703
-5.35662
-3.45612
-2.16815
-1.22893
-38.4465
-38.4478
-36.9138
-31.9644
-25.2495
-18.6463
-13.18
-9.0846
-6.21665
-4.22535
-2.77068
-32.8123
-34.3813
-34.2351
-31.8976
-27.587
-22.1477
-16.8139
-12.2946
-8.78424
-6.19746
-4.29495
-29.5536
-30.8807
-30.9507
-29.9061
-27.3241
-23.3087
-18.7646
-14.481
-10.8029
-7.86044
-5.58357
-27.5182
-28.458
-28.4553
-27.8555
-26.1277
-23.1222
-19.4067
-15.6131
-12.108
-9.10613
-6.63567
-25.8789
-26.6167
-26.5599
-26.1173
-24.7807
-22.3749
-19.2808
-15.9641
-12.7435
-9.84127
-7.32097
-24.2909
-24.9386
-24.8876
-24.5468
-23.433
-21.3993
-18.7382
-15.8096
-12.8762
-10.1483
-7.64536
-22.7449
-23.3374
-23.2863
-23.0207
-22.0618
-20.2877
-17.9417
-15.3207
-12.6465
-10.1218
-7.75008
-21.272
-21.8059
-21.7546
-21.5414
-20.685
-19.0929
-16.9759
-14.5941
-12.1397
-9.80217
-7.61203
-19.8826
-20.312
-20.2837
-20.0834
-19.289
-17.8311
-15.8857
-13.688
-11.4136
-9.23099
-7.20223
-18.5464
-18.8606
-18.8674
-18.6405
-17.8835
-16.5227
-14.7016
-12.6416
-10.5124
-8.46385
-6.56236
-17.2486
-17.4661
-17.4687
-17.2158
-16.4892
-15.1895
-13.4505
-11.4855
-9.46993
-7.54976
-5.77819
-15.9906
-16.1115
-16.0772
-15.7981
-15.095
-13.8257
-12.1365
-10.2323
-8.30196
-6.49922
-4.87514
-14.7585
-14.7841
-14.7031
-14.393
-13.68
-12.4458
-10.7582
-8.8791
-7.01231
-5.32218
-3.87575
-13.5357
-13.4819
-13.3488
-13.0023
-12.2647
-11.0091
-9.31662
-7.40774
-5.59771
-4.02266
-2.69582
-12.3233
-12.1931
-11.9999
-11.6083
-10.8244
-9.50394
-7.73875
-5.8246
-4.06862
-2.64248
-1.48018
-11.1153
-10.9033
-10.6514
-10.184
-9.31774
-7.88505
-6.0187
-4.09813
-2.44369
-1.22756
-0.235152
-9.90787
-9.59031
-9.26679
-8.69407
-7.6637
-6.07228
-4.12122
-2.26339
-0.808264
0.149594
0.921187
-8.60024
-8.19881
-7.77664
-7.05093
-5.78786
-4.03473
-2.08141
-0.395386
0.765991
1.44136
1.97902
-6.50203
-6.3039
-6.02445
-5.07553
-3.55379
-1.73361
-0.0320973
1.19626
1.89974
2.22987
2.52114
-5.61995
-6.47148
-5.37149
-3.78782
-1.83469
-0.00792068
1.35996
2.1516
2.50588
2.68152
2.86579
-10.4078
-3.475
-1.23108
0.134141
1.34741
2.14539
2.54318
2.72134
2.78897
2.80373
2.72484
-0.748301
-1.42985
-1.45728
-0.964345
-0.584071
-0.437882
-0.370322
-0.365901
-0.550485
-0.42037
-0.939862
-1.01123
-0.707916
-0.506823
-0.429079
-0.377929
-0.379721
-0.497342
-0.369436
-0.863153
-0.911329
-0.650076
-0.46135
-0.403139
-0.363808
-0.359458
-0.440309
-0.27148
-0.649613
-0.72365
-0.545935
-0.39846
-0.355309
-0.333134
-0.334875
-0.368482
0.4499
1.26917
1.31804
0.977386
0.26769
-0.774587
-1.53913
-1.64896
-1.09909
0.432074
1.08701
1.13437
0.847218
0.285672
-0.479827
-1.02643
-1.15024
-0.785286
0.378391
0.922165
0.962579
0.722417
0.248852
-0.425181
-0.96192
-1.03795
-0.724334
0.324562
0.800464
0.821215
0.629699
0.205963
-0.350318
-0.737286
-0.831842
-0.612517
2.52538
2.98811
2.99411
-0.16852
-0.227305
3.10564
-0.314252
2.66597
3.10034
2.64378
-0.247431
2.67164
-0.190776
-0.044723
2.51635
1.73806
-0.0701542
-0.167294
1.7393
2.55883
1.30019
-0.430161
2.14148
-0.136121
3.02073
-0.0456304
-0.183833
-0.319014
-1.11042
-0.204313
-0.0721744
1.02867
-0.00740039
2.0036
0.964195
3.00784
-0.132819
3.03298
-0.00526855
2.71199
-1.20555
2.01507
-0.0163902
2.15398
-0.283692
-0.395708
-0.132672
-0.255271
1.52606
2.77454
-0.211707
2.71886
-0.00971262
-0.018939
2.7347
1.31239
-0.435838
2.6617
-1.11387
-0.0457523
-0.421305
-0.00590055
-0.248894
-0.221638
-1.04255
2.55575
-0.171776
3.11342
3.00332
2.6516
-0.0972065
3.58509
-0.193683
4.56342
-0.117192
3.57596
-0.458924
2.05658
-0.27291
-0.328334
-0.179829
-0.223109
2.6278
2.65066
-0.013383
-0.188457
-1.02979
0.00384903
-0.299698
-0.112885
3.04705
2.64131
-1.06837
4.43795
-0.405543
-0.250103
-0.109391
-0.0833965
-0.275807
3.77034
0.16579
-0.273125
2.44426
0.400196
-0.260149
3.01633
-0.0103108
2.62851
-0.0461793
0.688299
2.19399
2.00616
3.83894
-0.191657
-0.124361
2.59918
2.65079
1.92591
2.7623
2.2345
-0.200063
4.21623
0.0229553
-0.0757641
-0.441047
-0.120847
-0.0487813
-0.0101726
-0.00659971
-0.0336816
2.39251
-0.0475972
-0.263996
3.54935
3.00834
-0.133499
-0.429903
-0.222144
-0.153694
1.65342
0.0177623
1.12263
-0.301289
1.72758
2.61384
-0.226292
-0.247298
3.05207
2.92598
1.97757
2.22229
3.11038
-0.223027
4.30323
-0.182218
-0.0307032
-0.174977
-0.31961
-0.065419
2.7634
-0.0659645
-0.283512
3.60946
2.80098
-0.143177
-0.107443
-0.292006
1.08637
-0.11607
-0.989745
-0.0149323
-0.0245656
-0.124536
1.06239
1.09311
1.08905
-0.000978399
-0.239739
-0.327737
1.18088
2.93305
-0.450793
2.99643
-0.196973
2.97385
-0.197688
2.23087
1.88371
2.88267
-0.266685
-0.0524946
-0.0809542
2.45274
-1.12831
3.00442
2.93663
3.27171
-0.289486
-0.0356709
2.60424
-0.248167
2.98708
-0.0862025
-0.0870827
3.00522
0.0024405
4.38726
-0.00447743
2.90286
2.50613
-0.132571
1.86782
0.908951
1.13575
2.06803
-0.0550595
3.08026
-0.117692
2.38665
-0.145599
0.00258565
-0.192875
-0.112024
-0.13227
-0.0655018
2.54913
-0.170616
-0.0952076
-0.0433287
-0.238976
-0.298326
2.4203
2.24546
3.95525
-0.225061
-0.275086
-0.160476
2.99739
2.42673
2.44012
-0.0900668
-0.169006
0.344807
-0.984451
4.28128
-0.312753
1.98271
-0.106205
-0.252021
-0.142765
-0.102877
-0.140679
0.677015
2.7893
0.231919
3.22871
1.4213
3.04484
-0.240052
2.20116
-0.00127702
-0.203583
2.47657
2.10923
2.17371
-0.139066
1.07061
3.23638
0.014042
0.0705062
-0.196916
2.36134
3.0728
-0.134196
3.25197
1.92396
-0.0882579
3.15837
1.72815
-0.272227
3.65478
2.7974
-0.175338
-0.137394
0.290963
3.13839
-0.442567
2.5209
1.56099
0.00880712
2.36275
-0.311605
0.852274
-0.0366544
2.98629
2.87493
-0.110438
2.17568
1.06571
-0.0982498
2.91493
-0.226498
1.36052
-0.193798
1.46752
0.633015
2.09517
-0.00385817
-0.444787
2.25766
-0.365017
3.00601
0.579426
0.00106409
-0.505717
1.83394
-0.154126
-0.262418
2.13727
4.8363
2.1321
-0.0753168
1.88045
-0.107577
-0.244818
1.16193
1.99492
-0.140747
2.39536
-0.111635
2.7347
-0.246072
-0.422841
2.92622
-0.179286
-0.256951
-0.191853
2.1094
3.1212
-0.0690678
-0.303643
-0.107378
3.02641
-0.110657
-0.206223
-0.0178877
-0.0875086
1.94831
-0.144353
-0.0739672
-0.351948
-0.072813
0.100548
1.52323
-0.0443959
2.60241
0.00214995
1.54685
2.1227
-0.128165
0.0861252
-0.0560377
3.07014
2.62276
3.5331
-0.293787
-0.0241137
-0.035254
-0.329825
0.276136
3.16291
-0.200955
-0.265902
-0.0198399
-0.0420465
2.34416
0.292706
0.931022
3.16597
1.98682
-0.128226
2.9822
-0.239268
2.49986
-0.0786314
-0.0970138
-0.210467
-0.0638158
-0.165209
-0.304228
3.0896
-0.368498
-0.0260007
3.08441
-0.100311
-1.08198
2.07497
2.06325
2.7778
-0.0959573
-0.243466
2.59267
2.92059
0.0379011
0.00363934
-1.53336
-0.294652
-0.0552537
2.9394
-0.0682712
1.30784
1.71462
-0.0841941
-0.0801825
-0.206712
0.501387
-0.0577482
4.46144
-0.00671885
-0.343466
-0.1876
-0.00787786
-0.310732
-0.0174354
1.03387
0.761827
4.45049
-0.0141532
-0.196877
-0.833087
1.96242
-0.277587
-0.0919737
2.03675
-0.138786
0.000763767
-0.159807
-0.173633
-0.0781314
1.93562
0.157063
-0.793519
-0.139539
-0.21619
1.57288
-0.0164141
-0.0229107
-0.368255
2.8817
-0.30589
3.06595
2.65154
3.09355
-0.324779
-0.274315
-0.330756
-0.0128933
-0.301273
-0.00142007
2.79728
2.91166
-0.067444
-0.0226412
0.202485
1.44592
-0.0086008
0.000671996
2.59041
1.88663
2.78027
1.04644
-0.234692
1.87047
-0.489413
1.47513
2.3719
2.33545
2.51421
-0.288092
2.21195
2.71397
1.34608
-0.217828
-0.441609
2.11517
-0.210086
-0.224163
1.79468
0.00900777
2.65246
-0.23644
2.9683
1.53848
2.52645
-0.00548232
-0.0655572
2.47215
-0.0904684
0.809607
3.21285
-0.128864
-0.138722
2.92742
2.69026
-0.256115
0.0245975
-0.199966
2.62767
-0.283057
1.93016
-0.144312
-0.059241
-0.311191
-0.103543
0.154094
-0.134715
-0.0787201
-0.0865327
1.9503
-0.044434
2.08136
2.81017
3.18268
2.35324
1.29839
-0.148801
2.66934
2.67456
-0.149168
2.93539
-0.524122
-0.00597522
-0.0174327
-0.0952158
-0.303797
2.93933
3.10356
2.78979
-1.06285
-0.280349
1.97923
2.82244
-0.0736121
2.91971
-0.139374
2.92412
-0.095173
1.71289
-0.370317
-0.00486387
-0.00783323
-0.321245
-0.13777
1.48409
1.02228
2.85387
2.30608
-0.0103463
-0.353923
2.34499
-0.079386
-0.171974
-0.218073
3.0512
3.45176
2.98941
-0.0274116
-0.143945
-0.016023
2.97046
2.44033
-0.14185
4.03221
-0.0413065
-0.0177595
-0.0590205
-0.221599
2.17222
-0.00568665
3.11236
-0.0762865
3.50505
-0.113645
-0.00117659
1.18712
-0.511968
-0.123873
2.65375
2.04847
-0.408745
2.77859
-0.070222
-0.182981
-0.104916
-0.0469423
-0.281551
-0.156203
2.79839
2.74601
2.97229
-0.26518
-0.12462
-0.0447476
2.51902
3.04873
-0.296492
2.15587
4.8329
1.32515
3.25093
-0.0879873
-0.082504
-0.10529
0.0349805
0.385398
0.709852
2.75389
-0.14268
3.44884
2.90413
-0.262228
-0.107089
1.8489
2.89105
-0.409379
2.39119
2.85707
0.295198
2.98694
1.08892
-0.150141
-0.0490266
0.166494
-0.00661192
-0.00793821
-0.307779
-0.0823271
-0.466743
-0.133562
-0.100852
-0.294939
-0.185976
-0.0743204
1.93752
1.56417
-0.247613
0.43725
1.83751
0.668732
-0.0961379
-0.00951358
-0.257276
-0.0667041
-0.179271
2.02067
0.526865
2.98094
2.05187
2.06636
-0.178435
3.07444
2.49522
1.74945
2.2911
-0.176078
-0.0255743
-0.241243
3.4057
2.19576
1.56555
0.0354247
4.69653
-0.304519
3.78703
-0.130504
-0.0221393
2.11106
0.00614508
2.80224
-0.0126998
-0.186984
-0.0827621
-0.275753
-0.0557094
0.0623907
2.62662
-0.0104144
-0.0249912
-0.332813
-0.0604174
1.92356
0.559917
2.64374
0.0694492
1.80132
-0.178808
2.97758
2.83359
3.1177
-0.18003
-0.0675211
2.98381
-0.00277373
3.31856
-0.0857157
-0.0683046
0.981492
-0.185165
-0.833604
-0.0209623
0.199855
-0.138768
-0.162548
-0.130373
-0.0012858
-0.31612
1.94681
-0.0937654
2.35893
2.60362
-0.377589
-0.220454
-0.244535
-0.0403655
3.94584
1.07576
2.19217
-0.124466
2.81077
-0.00943877
0.011884
-0.0907884
0.88114
0.238554
-0.0123479
-0.0468897
3.59906
-0.151029
-0.22791
-0.257542
2.22466
-0.0595263
-0.158032
3.03645
-0.459604
-0.00903602
5.19921
-0.128301
2.44502
1.68716
2.02969
-0.0120099
3.60576
-0.0214397
3.01156
-0.0182527
3.20095
-0.0458443
0.0212365
-0.102893
-0.0304285
1.85511
-0.157045
-0.328547
2.71445
-0.0184456
0.321734
0.0457481
0.5981
-0.320733
1.03442
-0.133912
-0.015325
0.614035
2.00291
-0.0443025
2.01216
-0.0905418
-0.418469
2.98174
2.75323
0.244897
-0.223198
-0.099923
-0.153217
2.63483
-0.0854182
0.670452
1.98327
2.89067
2.96352
2.35013
4.12791
-0.00436021
-0.364179
-0.195423
-0.0285383
-0.152006
3.05739
2.48745
0.159304
-0.123019
3.01304
-0.00432842
-0.0753305
-0.292361
-0.153367
-0.504691
0.858546
-0.145039
3.04097
2.3889
-0.456365
2.32338
2.66087
0.602523
-0.0126792
0.106523
0.170621
3.02906
-0.0901336
-0.867868
-0.187186
2.61586
-0.0164989
-0.00505451
-0.0649332
-0.155544
2.71622
1.97866
-0.164951
-0.093774
0.0214243
2.64597
1.76904
5.11697
3.54017
2.57779
-0.0825181
-0.105002
-0.495849
-0.302225
0.0266809
2.9065
-0.229782
2.80374
3.73066
-0.0100061
2.47443
3.2099
2.71201
-0.264
-0.0266136
-0.0416084
3.21271
-0.146883
3.14321
2.97682
3.47769
2.92689
0.675894
2.12695
3.03437
3.92353
-0.337254
2.01048
2.65285
-0.211839
-0.31209
2.56742
3.08151
-0.218225
-0.299487
2.20146
-0.101231
-0.0824299
-0.158818
2.29993
2.99888
1.14663
1.64988
0.0144113
2.50258
-0.150463
-0.0442013
-0.0758363
0.000565345
2.16924
-0.0536224
2.43405
2.12617
3.81389
2.5777
2.07001
-0.0864863
-0.505841
0.102572
-0.129537
-0.0632127
-0.00418332
0.400932
-0.311152
2.05031
2.19172
-0.0040352
-0.000285749
-0.0602332
2.81394
-0.227429
3.81854
-0.157088
2.9827
-0.00480129
-0.0370994
-0.274636
-0.0999161
2.54461
3.00773
-0.129457
-0.399638
-0.0225619
-0.116898
-0.0906038
0.817456
1.53557
-0.0834084
3.31031
3.01378
-0.0693227
-0.766991
-0.204898
-0.352062
-0.0201587
-0.0518604
-0.0529184
-0.0751708
2.67999
0.815293
-0.0583202
2.75898
0.674233
3.07373
-0.134047
-0.0444011
-0.0562139
2.77111
-0.0875852
2.88017
2.69303
-0.0612806
-0.181734
2.14442
3.1352
3.90072
-0.180901
-0.151897
-0.340233
0.290819
2.57212
-1.46984
-0.124764
-0.366166
2.67679
-0.0615438
-0.0104438
2.8762
-0.0173003
1.52793
-0.0539978
-0.122896
0.388406
-0.188267
1.77282
3.40088
-0.167583
-0.0921389
2.18949
-0.0630084
3.03872
-0.262788
-0.00773804
-0.217018
3.00297
-0.00785241
-0.185538
-0.184234
-0.00872949
-0.0393557
2.61661
-0.00737365
-0.226469
2.07626
0.859975
-0.0942904
-0.180817
-0.109054
-0.122523
2.7644
2.92416
-0.284922
1.5881
-1.04177
-0.0225935
-0.0110022
-0.149178
2.58621
-0.158365
-0.278104
-0.0120164
-0.128188
-0.00526404
3.07438
-0.0952236
-0.00694387
2.77986
1.8515
2.98951
-0.122035
0.923674
2.86524
-0.123197
0.0317762
-0.0207684
2.20618
-0.351101
-0.206861
1.19492
-0.139343
1.96937
2.59477
1.59542
-0.307919
2.28497
-0.0159537
0.391833
-0.274369
2.12352
1.48253
2.64192
2.6732
-0.205584
-0.134891
0.0448647
-0.267005
-0.725083
-0.118846
2.59371
0.553508
-0.228155
2.72374
-0.0236124
-0.0205368
1.27109
-0.713588
-0.13155
-0.118798
1.69859
-0.0580369
2.68518
-0.133518
2.24325
-0.257015
-0.104468
4.32683
-0.350033
-0.128088
1.27928
-0.134855
-0.00105927
-0.601887
-0.137002
0.902103
-0.309065
-0.0283217
-0.200702
-0.348514
-0.114445
2.97075
-0.137122
3.89432
-0.114091
-0.057665
-0.197594
0.785262
-0.0886908
-0.268216
2.75153
2.9961
1.1605
2.23705
-0.0310596
-0.107934
3.02335
-0.0549062
-0.134021
2.48486
-0.180439
-0.331921
-0.132477
-1.02742
-0.425906
-0.115859
-0.0244818
-0.0390337
2.78234
2.86251
-0.160308
2.90893
3.01557
-0.122594
2.61942
4.2628
-0.127126
3.7361
-0.271485
-0.0465987
-0.181267
2.80221
-0.0897476
-0.0109869
-0.0553288
-0.331466
2.67571
-0.0185597
-0.106795
-0.0283315
0.00349469
1.75194
-0.0450267
2.34009
-0.185894
-0.0748232
1.67702
2.84944
-0.237123
0.253857
-0.150974
-0.293328
-0.118517
3.04258
2.99076
2.89681
0.0302022
0.00321391
-0.0211035
-0.28311
-0.327988
2.60721
0.827942
2.41262
2.97812
-0.295249
2.63265
2.19916
-1.04777
-0.543266
-0.280077
-0.238911
2.2228
1.894
-0.0111047
-0.210626
-0.0988755
-0.298273
-0.103969
2.98725
2.40393
-0.0603216
-0.0771061
-0.025093
-0.047285
3.43158
-0.0595283
-0.00549267
-0.17403
1.51963
-0.137052
-0.279688
1.50108
-0.0604228
2.07567
2.31315
-0.217291
-0.0281156
-0.123293
1.35174
1.53316
0.0339757
-0.185633
-0.181347
-0.0779498
-0.204353
-0.318928
2.67773
-0.302938
-0.196677
2.84653
-0.0063503
-0.0128181
1.98021
-0.132182
2.78029
3.1781
3.11376
-0.928872
-0.00309226
1.902
-0.0774037
2.78086
2.09461
2.59892
-0.0878532
1.94707
-0.111299
-0.249226
2.84919
-0.257065
-0.342195
-0.0896707
-0.292965
-0.127616
-0.113536
-0.00238128
2.68961
2.12866
3.08615
-0.0164722
2.61106
2.15625
-0.137136
-0.426682
-0.0610522
-0.0147138
0.0207364
1.40685
-0.198598
-0.243301
1.92849
-0.0311663
1.83024
-0.0079715
2.16446
-0.0266849
1.30927
2.46552
2.87323
-0.268963
-0.0377666
1.90652
-0.124983
1.89547
-0.0209158
-0.074239
-0.223496
-0.0727276
2.79936
2.49804
-0.0349325
-1.11439
-0.058362
-0.0181086
-0.264841
-0.0101203
2.81503
-0.416694
-0.0291032
2.306
-0.187265
-0.165089
-0.0786656
-0.256147
-0.193294
-0.00449539
-0.241448
-0.613341
1.93754
2.91669
-0.023422
-0.138688
0.290801
2.06242
-0.105313
2.99704
3.87201
-0.50431
2.63884
2.61328
-0.309764
-0.2116
3.05104
2.57304
3.03782
1.33198
2.23662
4.06798
-0.143135
0.316281
1.86883
3.0071
-0.220979
2.31763
-0.0181098
3.18407
1.69087
2.63776
-0.0960912
-0.297694
-0.121664
2.64262
2.11441
-0.0347493
-0.0444769
2.76986
-0.151975
-0.107128
3.40607
-0.0711484
-0.0481796
-0.308972
-0.108569
-0.172329
2.59081
-0.179489
3.00631
1.35908
5.62298
0.718062
2.88635
-0.115508
4.64757
-0.225683
3.09727
2.87124
-0.233357
2.15586
2.94545
-0.2011
-0.123523
-0.196134
3.05507
1.39775
3.01824
-0.0712781
-0.0450576
-0.160599
0.979948
-0.149544
-0.266734
2.23366
1.8739
2.26805
1.19256
-0.148544
5.22527
-0.216856
4.38387
-0.3847
0.0150285
-0.0618001
-0.049065
1.64267
0.317495
2.99901
0.067266
-0.341691
2.78212
2.85305
-0.00178609
1.08233
1.64576
2.62212
-0.124363
3.06162
-0.216465
-0.3204
-0.0417034
-0.0653391
1.90542
-0.118628
1.5928
-0.232932
-0.0875673
0.357051
-0.103979
2.57976
2.14434
2.53448
1.80633
0.270725
1.17175
3.97674
-0.0498484
-0.166638
2.33258
1.22946
-0.325701
0.280201
2.66642
-0.0144447
2.80037
2.70517
-0.115601
2.93288
0.00909902
-0.0287365
1.42872
3.03976
-0.0804404
-0.224213
2.56311
-0.0332524
3.15914
3.84308
-0.0643079
1.45908
-0.0626955
2.80949
4.45378
-0.348164
0.637619
2.23893
-0.776851
1.42661
2.51945
2.0857
2.29176
0.871973
0.232175
-0.10579
-0.118232
-0.263425
2.47221
3.00482
-0.214373
-0.00436689
1.52304
0.919451
-0.0330549
3.48958
-0.0606934
2.61219
-0.125454
3.20251
2.59135
-0.010185
-0.116173
-0.0745847
3.05754
2.73266
2.28442
2.53482
2.51421
-0.100362
-0.0747157
-0.183561
-0.186347
0.00262354
1.01
2.33944
2.42255
-0.26992
2.18308
-0.0183295
-0.298103
1.1762
-0.137183
-0.163544
1.65181
2.62882
0.202354
-0.114913
-0.101201
1.51598
-0.0876328
-0.0508713
-0.243841
-0.0200934
-0.054962
2.20453
-0.139957
-0.447765
-0.436292
-0.138752
-0.169794
-0.0202843
2.88652
2.50782
-0.170811
3.07242
-0.0468688
-0.0837476
-0.0111179
-0.0993001
-0.125582
-0.163617
-0.425336
-0.135698
3.03605
-0.124698
-0.0234786
0.0335379
-0.0125566
-0.221949
2.80529
-0.235811
3.04625
-0.0172564
-0.279483
-0.114143
-0.409168
-0.134647
-0.0909532
3.44075
4.9231
2.22873
3.01635
3.04789
0.850157
2.38395
-0.270201
4.7935
-0.120993
-0.167115
1.84788
2.66865
-0.173067
-0.319844
3.0319
0.767209
2.12853
4.58893
0.144451
-0.278616
2.899
1.76903
1.67611
1.96717
5.27483
3.0497
0.102921
-0.211712
2.95941
0.0998768
3.00364
1.87738
1.44011
3.12428
-0.109421
2.50576
2.51876
1.52368
2.56178
-0.0249463
2.57625
-0.0186622
-0.223748
-0.340639
0.00338789
-0.070492
0.0230681
-0.0397215
-0.0273462
-0.0826206
-0.0297802
2.00761
-0.0541393
1.0686
2.83144
3.10989
-0.246488
-0.061223
-0.0219306
2.65966
-0.187499