/*--------------------------------*- C++ -*----------------------------------*\
| =========                 |                                                 |
| \\      /  F ield         | OpenFOAM: The Open Source CFD Toolbox           |
|  \\    /   O peration     | Version:  3.0.1                                 |
|   \\  /    A nd           | Web:      www.OpenFOAM.org                      |
|    \\/     M anipulation  |                                                 |
\*---------------------------------------------------------------------------*/
FoamFile
{
    version     2.0;
    format      ascii;
    class       surfaceVectorField;
    location    "0.821517";
    object      Uf;
}
// * * * * * * * * * * * * * * * * * * * * * * * * * * * * * * * * * * * * * //

dimensions      [0 1 -1 0 0 0 0];

internalField   nonuniform List<vector> 
32369
(
(2.5796 4.34994 -8.3801e-19)
(3.68012 5.13518 9.35848e-19)
(1.32074 5.62444 3.8529e-18)
(2.10132 3.73367 7.44917e-19)
(3.21457 2.7784 2.98986e-19)
(1.02152 3.9105 6.79994e-20)
(2.02102 3.03233 2.39486e-19)
(2.99353 2.96173 8.90028e-19)
(1.20222 3.09463 3.94173e-19)
(1.9366 2.39542 -9.76268e-20)
(2.66293 2.45247 -2.46935e-19)
(1.36371 2.42623 2.27056e-19)
(1.90177 1.89412 -1.06238e-20)
(2.38604 2.00747 1.30198e-19)
(1.49727 1.93758 -4.88583e-20)
(1.89832 1.51596 5.60621e-20)
(2.21393 1.63344 3.63577e-21)
(1.61018 1.56863 4.25459e-19)
(1.91049 1.23075 1.48735e-19)
(2.12028 1.33157 -9.24168e-20)
(1.69898 1.28536 -3.70728e-19)
(1.93192 1.01289 2.3982e-19)
(2.07564 1.09294 1.20416e-19)
(1.76969 1.06426 -6.09823e-20)
(1.96172 0.844696 1.66919e-19)
(2.06292 0.905071 5.66618e-20)
(1.83083 0.889643 -1.40584e-19)
(2.00197 0.712977 -5.23636e-20)
(2.07488 0.758229 9.74864e-20)
(1.888 0.752029 -1.02928e-20)
(2.10669 0.653358 -1.50546e-19)
(1.93834 0.647521 -2.01454e-19)
(2.06094 0.603602 -1.56005e-19)
(3.29681 2.05785 -1.20339e-18)
(3.01012 3.05886 -2.3337e-19)
(3.41092 2.42425 -2.00508e-19)
(3.35179 0.764989 -2.49647e-18)
(3.26441 2.37153 -1.72031e-19)
(3.78887 1.93944 1.66356e-18)
(2.93219 2.15685 1.59821e-19)
(3.53466 1.79359 -4.3058e-19)
(2.63344 1.83904 -3.33412e-20)
(3.16688 1.66663 4.20898e-20)
(2.41585 1.51754 -1.32312e-19)
(2.81999 1.46286 -4.70692e-20)
(2.27852 1.23955 -1.19891e-19)
(2.56207 1.24209 -1.99001e-19)
(2.20187 1.0159 -6.03344e-20)
(2.39387 1.03932 7.67034e-20)
(2.169 0.841407 -3.3647e-20)
(2.29652 0.867286 9.26304e-21)
(2.17088 0.708003 1.17525e-20)
(2.25249 0.728 -1.10559e-20)
(2.25253 0.628199 2.46566e-22)
(2.20749 0.607402 1.26734e-20)
(2.73021 0.701998 -1.48524e-18)
(1.97984 1.726 -3.41362e-18)
(3.51921 0.859995 -2.16577e-18)
(2.72062 -0.37363 3.97551e-19)
(3.68251 1.12816 1.51341e-18)
(3.64216 0.826381 -2.7924e-19)
(3.52039 1.32683 -5.56444e-19)
(3.67094 0.793753 8.6298e-19)
(3.21074 1.34408 0)
(3.5236 0.9802 -1.53378e-18)
(2.89577 1.2427 6.91535e-20)
(3.21795 1.01152 6.37088e-19)
(2.64517 1.08588 2.05607e-19)
(2.91522 0.956616 7.65837e-20)
(2.47321 0.922821 1.23397e-19)
(2.67414 0.858459 1.3036e-19)
(2.37139 0.778367 -3.26144e-20)
(2.5088 0.748144 -2.89179e-20)
(2.33015 0.65954 -2.15222e-20)
(2.41379 0.646488 6.5279e-20)
(2.38224 0.571939 -2.02801e-20)
(2.35319 0.567185 1.34054e-21)
(1.87228 0.211016 -1.90305e-18)
(1.00756 1.11294 -4.07828e-18)
(3.00124 -0.0110004 1.7915e-18)
(1.99476 -0.670519 7.31348e-18)
(3.47322 0.18739 -8.46176e-19)
(3.10928 0.109098 -5.56137e-18)
(3.58227 0.453917 3.4479e-19)
(3.37021 -0.0123767 3.66854e-18)
(3.43744 0.652683 -1.10385e-18)
(3.48133 0.291773 -1.62505e-18)
(3.17359 0.759562 6.95213e-19)
(3.31443 0.456987 -6.06948e-19)
(2.90805 0.768034 -1.1665e-19)
(3.07971 0.549708 0)
(2.69066 0.716778 -1.46162e-19)
(2.84567 0.573775 -1.68207e-19)
(2.54007 0.641715 5.72515e-20)
(2.65739 0.552024 0)
(2.4576 0.566364 9.70561e-20)
(2.53128 0.510548 -4.29451e-20)
(2.47125 0.476461 4.05597e-20)
(2.44374 0.504193 -2.74162e-19)
(1.05223 0.152358 3.95404e-18)
(0.17739 0.916232 -1.46886e-19)
(2.30704 -0.326056 2.75183e-18)
(1.35479 -0.581003 8.4262e-18)
(2.98239 -0.323227 -2.012e-18)
(2.52423 -0.238393 -9.15797e-18)
(3.30678 -0.169651 2.36426e-18)
(2.92888 -0.480027 4.24381e-18)
(3.34564 0.0491132 -1.44636e-18)
(3.2136 -0.211269 -4.80023e-20)
(3.2053 0.251042 -1.39367e-18)
(3.18314 -0.0280875 -1.1863e-18)
(3.00375 0.378306 -3.35444e-20)
(3.05559 0.142994 0)
(2.80281 0.435976 -4.19569e-20)
(2.88025 0.254716 -5.71678e-21)
(2.64164 0.444902 -1.23449e-19)
(2.7131 0.313688 0)
(2.53694 0.429368 -1.57946e-19)
(2.5847 0.336832 5.23639e-20)
(2.51072 0.35067 -9.54582e-20)
(2.4924 0.409777 2.41644e-19)
(0.351151 0.25824 3.45719e-18)
(-0.53989 0.947172 4.83874e-21)
(1.63935 -0.371863 -4.03796e-19)
(0.775253 -0.362121 3.56476e-18)
(2.43281 -0.538051 -3.81371e-18)
(1.95384 -0.3646 -3.50259e-18)
(2.89562 -0.519798 2.37432e-18)
(2.47238 -0.691868 -1.21822e-18)
(3.0743 -0.360426 1.41937e-19)
(2.8654 -0.518087 1.29042e-18)
(3.05714 -0.158114 6.04371e-20)
(2.93902 -0.375202 -7.36111e-19)
(2.94497 0.0177425 3.28599e-20)
(2.90655 -0.187856 3.35682e-19)
(2.79746 0.144567 4.10329e-20)
(2.80157 -0.0352858 2.07794e-19)
(2.65919 0.222451 1.67934e-19)
(2.67783 0.076989 0)
(2.55578 0.265699 1.49948e-19)
(2.56854 0.151185 -1.55551e-19)
(2.49481 0.207723 -2.27787e-19)
(2.49722 0.294513 3.10957e-19)
(-0.245394 0.467752 -2.42519e-19)
(-1.1468 1.13837 1.25906e-19)
(1.04588 -0.278472 1.64267e-18)
(0.253028 -0.0785059 -4.54802e-21)
(1.91198 -0.586037 -9.55886e-19)
(1.41607 -0.351301 2.10261e-18)
(2.46404 -0.683773 -2.63623e-18)
(2.03481 -0.745537 -2.39429e-18)
(2.73844 -0.600341 6.42001e-19)
(2.50129 -0.679355 3.63559e-19)
(2.81695 -0.437491 -5.46162e-19)
(2.65433 -0.592235 -4.30318e-19)
(2.78665 -0.262852 5.22289e-19)
(2.69622 -0.424397 6.2785e-19)
(2.69976 -0.108508 1.89053e-19)
(2.65215 -0.265368 -1.54788e-20)
(2.59956 0.0107344 -3.03735e-19)
(2.5746 -0.128108 -3.81309e-19)
(2.51411 0.0960306 -5.13502e-19)
(2.49505 -0.0217683 6.77051e-20)
(2.4361 0.0644032 -2.75652e-19)
(2.45317 0.159711 2.63616e-19)
(-0.751151 0.743693 3.75822e-19)
(-1.59508 1.412 2.50105e-18)
(0.533072 -0.0964684 2.28788e-19)
(-0.204428 0.238918 -1.71403e-18)
(1.44475 -0.527739 8.44545e-19)
(0.932264 -0.240309 1.8986e-18)
(2.05927 -0.727725 3.06098e-19)
(1.63233 -0.697909 1.23741e-18)
(2.401 -0.720926 -6.23043e-19)
(2.15031 -0.738066 -2.26664e-19)
(2.54759 -0.608545 6.25628e-19)
(2.36585 -0.709801 -6.96665e-19)
(2.57963 -0.456545 1.4049e-19)
(2.46351 -0.576761 1.11902e-18)
(2.54598 -0.302843 -5.22395e-19)
(2.46822 -0.431045 -1.11306e-18)
(2.48526 -0.167399 -7.1086e-20)
(2.43053 -0.289229 -3.79719e-19)
(2.42476 -0.0550957 3.17783e-19)
(2.37871 -0.166683 6.47632e-19)
(2.3327 -0.0621397 3.09117e-19)
(2.37711 0.0426537 -7.69728e-19)
(-1.16386 1.05168 8.30457e-19)
(-1.94656 1.71271 5.00079e-18)
(0.0910103 0.145053 -4.18755e-19)
(-0.606466 0.561845 -4.14915e-18)
(1.03113 -0.395493 2.34245e-18)
(0.505746 -0.0646728 2.91143e-18)
(1.69292 -0.68976 9.37802e-19)
(1.26833 -0.584198 1.11203e-18)
(2.08567 -0.758677 -2.84868e-19)
(1.82451 -0.725634 6.06418e-19)
(2.28199 -0.699795 -3.69419e-19)
(2.09146 -0.755868 -1.61206e-18)
(2.35907 -0.579151 6.71807e-20)
(2.23079 -0.664097 9.70741e-20)
(2.36595 -0.439186 -1.05018e-18)
(2.2728 -0.540826 -5.74018e-20)
(2.33821 -0.303371 2.14547e-19)
(2.26702 -0.406584 3.46224e-19)
(2.30013 -0.181282 6.65021e-19)
(2.23962 -0.2806 -1.91124e-20)
(2.20717 -0.166934 -1.70003e-19)
(2.2693 -0.0721819 9.5512e-19)
(-1.51967 1.36891 9.68062e-19)
(-2.25331 2.04898 6.67218e-19)
(-0.308171 0.419275 -1.55416e-18)
(-0.982802 0.89847 -5.17818e-19)
(0.651792 -0.213152 1.86462e-18)
(0.110599 0.162917 2.53508e-18)
(1.35498 -0.595019 8.7037e-19)
(0.92718 -0.42347 -3.38019e-19)
(1.79315 -0.738691 -6.09755e-19)
(1.51972 -0.662045 3.3041e-19)
(2.03093 -0.73413 -1.32786e-18)
(1.83433 -0.751218 -5.85455e-19)
(2.14255 -0.648539 -3.864e-20)
(2.00795 -0.70358 -1.76057e-18)
(2.17971 -0.528678 1.27078e-18)
(2.07915 -0.606723 1.38027e-18)
(2.17742 -0.400985 1.73043e-19)
(2.09793 -0.486405 -1.31727e-20)
(2.15827 -0.278728 -7.72838e-19)
(2.09084 -0.36446 1.57598e-19)
(2.07378 -0.251094 -8.56e-19)
(2.1279 -0.162108 -4.6955e-19)
(-1.83888 1.70487 -6.8711e-19)
(-2.49498 2.40271 -2.08391e-18)
(-0.675195 0.722418 3.27123e-18)
(-1.32628 1.24581 3.09785e-18)
(0.294932 0.00845202 6.12661e-19)
(-0.252325 0.428462 -5.30759e-19)
(1.03608 -0.457682 -9.31859e-19)
(0.602785 -0.225839 -7.68567e-19)
(1.51831 -0.67659 4.02432e-19)
(1.23139 -0.558171 9.46647e-19)
(1.79497 -0.727366 -8.93098e-19)
(1.59183 -0.708688 0)
(1.93632 -0.678712 -6.25658e-19)
(1.79692 -0.707352 -6.70777e-19)
(1.99732 -0.581846 2.64045e-19)
(1.89281 -0.63902 1.08412e-19)
(2.01454 -0.466367 -2.61927e-20)
(1.93072 -0.53568 2.38129e-19)
(2.01133 -0.347434 2.21735e-19)
(1.93857 -0.421088 3.95778e-19)
(1.92908 -0.307673 9.88608e-21)
(1.99875 -0.224927 -5.83206e-19)
(-2.10927 2.04063 1.2037e-18)
(-2.65943 2.72198 -8.1259e-19)
(-1.00069 1.03918 -2.9598e-19)
(-1.62181 1.57457 1.33956e-18)
(-0.0312333 0.25815 -1.90973e-18)
(-0.576244 0.709619 -2.24069e-18)
(0.738783 -0.288431 9.18558e-19)
(0.300744 -0.00697355 6.80006e-19)
(1.2604 -0.582421 6.39935e-19)
(0.959265 -0.425457 3.11641e-19)
(1.57306 -0.68972 2.90297e-19)
(1.36132 -0.638121 0)
(1.74146 -0.679468 -2.86696e-21)
(1.59627 -0.684295 7.53062e-20)
(1.82251 -0.607081 7.42676e-20)
(1.71467 -0.645783 -7.61e-19)
(1.85489 -0.506036 6.439e-19)
(1.76875 -0.561032 1.05233e-18)
(1.86211 -0.394585 2.25635e-19)
(1.78885 -0.457084 -4.80429e-20)
(1.78813 -0.348393 2.10259e-20)
(1.85607 -0.279222 6.09076e-19)
(-2.32411 2.34368 -8.95369e-19)
(-2.77632 3.00288 -8.15968e-19)
(-1.28737 1.34818 -1.90671e-19)
(-1.88017 1.88324 -1.06386e-18)
(-0.332981 0.519628 5.27201e-20)
(-0.873576 1.00053 7.95143e-19)
(0.456569 -0.0976583 1.09959e-19)
(0.00952443 0.229511 1.6503e-20)
(1.01288 -0.463848 -2.96785e-19)
(0.693444 -0.268964 -5.81093e-20)
(1.35993 -0.628289 -2.24143e-19)
(1.13479 -0.544769 -4.77688e-19)
(1.55489 -0.65774 -5.94854e-19)
(1.40038 -0.639893 4.79264e-19)
(1.65486 -0.610865 3.73683e-20)
(1.54197 -0.632539 -6.60785e-19)
(1.7007 -0.525582 4.8332e-19)
(1.61216 -0.56727 4.80514e-19)
(1.71751 -0.423875 -2.51168e-19)
(1.64417 -0.475302 -4.82853e-20)
(1.65402 -0.374923 -2.34433e-19)
(1.71177 -0.311696 -7.78559e-19)
(-2.49789 2.62302 -9.60114e-19)
(-2.86759 3.26326 -1.5281e-18)
(-1.54772 1.65472 -3.88021e-19)
(-2.11091 2.18278 -1.62013e-19)
(-0.624262 0.796288 8.41099e-19)
(-1.15482 1.30487 1.02446e-18)
(0.175168 0.115854 -1.61125e-19)
(-0.280334 0.488641 -3.1883e-19)
(0.763245 -0.321407 -1.95179e-19)
(0.424069 -0.0848687 -3.87997e-19)
(1.14565 -0.545022 1.30287e-19)
(0.90309 -0.426444 -3.31478e-19)
(1.36976 -0.616535 5.40696e-19)
(1.20164 -0.573808 5.44035e-19)
(1.49079 -0.596656 -3.38142e-19)
(1.36941 -0.600447 -1.37292e-19)
(1.55141 -0.527874 0)
(1.45816 -0.55615 -1.7914e-19)
(1.57953 -0.435869 0)
(1.50321 -0.476455 1.34687e-19)
(1.52195 -0.38095 1.46792e-19)
(1.59224 -0.332785 2.77288e-19)
(-2.64 2.87958 -4.79242e-19)
(-2.92398 3.47685 -2.73397e-18)
(-1.77984 1.95058 9.95987e-19)
(-2.30158 2.45191 1.98762e-18)
(-0.901089 1.08236 0)
(-1.41259 1.6066 6.7365e-19)
(-0.103134 0.350244 -5.42567e-19)
(-0.564123 0.762881 9.77214e-20)
(0.509986 -0.154696 -5.29177e-19)
(0.151379 0.124347 -9.80503e-19)
(0.925839 -0.438737 -1.13526e-20)
(0.662621 -0.281926 2.73493e-19)
(1.18086 -0.555096 -5.97045e-20)
(0.994485 -0.483658 -1.92618e-19)
(1.32612 -0.564557 3.07604e-20)
(1.19154 -0.547546 7.24836e-20)
(1.40441 -0.513719 -7.97367e-20)
(1.30285 -0.526831 -1.57147e-19)
(1.44482 -0.432856 2.8115e-19)
(1.36451 -0.46188 2.49257e-19)
(1.39701 -0.376649 1.48012e-19)
(1.46151 -0.337644 -3.97027e-19)
(-2.74291 3.09397 9.83532e-20)
(-2.94556 3.64535 -1.1242e-18)
(-1.98129 2.22644 1.80129e-18)
(-2.45603 2.69638 2.19793e-19)
(-1.16444 1.37341 8.19584e-19)
(-1.65014 1.90596 1.33208e-18)
(-0.382064 0.605312 -2.22397e-19)
(-0.845633 1.05513 3.56173e-20)
(0.247881 0.0393484 -3.00426e-19)
(-0.130827 0.363698 2.51099e-20)
(0.694259 -0.305178 1.39926e-19)
(0.406457 -0.105458 -2.18452e-19)
(0.981722 -0.469379 -8.48189e-20)
(0.771527 -0.36366 9.90069e-20)
(1.15531 -0.511652 -8.85157e-20)
(1.00161 -0.468786 -9.94705e-20)
(1.25603 -0.481804 1.24543e-19)
(1.1413 -0.475786 2.33394e-20)
(1.31341 -0.414619 1.26673e-19)
(1.22529 -0.429177 1.14553e-19)
(1.27659 -0.355424 -4.53422e-20)
(1.34582 -0.330677 0)
(-2.81595 3.29098 -6.88183e-19)
(-2.94579 3.79 1.25681e-18)
(-2.1567 2.49362 -5.81571e-19)
(-2.57668 2.92053 -1.72748e-18)
(-1.41811 1.67649 6.65424e-19)
(-1.86778 2.20658 5.87455e-20)
(-0.667316 0.88962 2.85732e-19)
(-1.1266 1.37337 7.53943e-19)
(-0.0309349 0.269656 1.327e-19)
(-0.427042 0.642295 -3.95623e-22)
(0.44212 -0.135535 -2.87512e-19)
(0.127932 0.113497 -3.43681e-19)
(0.763935 -0.351192 1.06217e-19)
(0.52488 -0.202826 1.68654e-19)
(0.971518 -0.431282 0)
(0.792125 -0.354231 0)
(1.10172 -0.427464 0)
(0.967463 -0.395322 0)
(1.18245 -0.378313 -4.05036e-20)
(1.08136 -0.373402 5.88159e-20)
(1.15721 -0.317482 -2.31762e-20)
(1.2347 -0.314007 -1.06024e-19)
(-2.85684 3.44406 1.87216e-20)
(-2.92448 3.89531 1.16207e-18)
(-2.30285 2.74182 -1.48678e-18)
(-2.66252 3.12391 -8.86431e-19)
(-1.65636 1.98685 9.42351e-20)
(-2.05883 2.49928 -2.26779e-20)
(-0.956259 1.20401 5.53861e-19)
(-1.40067 1.71098 7.82162e-19)
(-0.327663 0.542498 -4.45134e-19)
(-0.73662 0.962457 -7.18108e-19)
(0.164742 0.0800242 6.6907e-20)
(-0.177085 0.383926 1.82264e-19)
(0.52126 -0.189051 8.30296e-20)
(0.247799 0.0127884 -5.35647e-20)
(0.768437 -0.312914 0)
(0.556112 -0.189604 6.77611e-20)
(0.936082 -0.342782 5.25532e-20)
(0.774891 -0.273489 -4.51052e-20)
(1.048 -0.319339 8.85723e-20)
(0.927667 -0.286151 1.9506e-20)
(1.0358 -0.258803 3.13521e-20)
(1.12086 -0.272883 6.08828e-21)
(-2.8741 3.58043 -2.39804e-20)
(-2.88893 3.97493 0)
(-2.41843 2.97551 4.81072e-19)
(-2.71844 3.30533 -2.64528e-20)
(-1.87423 2.30086 5.84461e-19)
(-2.22171 2.77577 5.64851e-19)
(-1.24727 1.54901 -3.12645e-19)
(-1.66578 2.06126 -4.08732e-19)
(-0.64597 0.866723 -1.86442e-19)
(-1.06266 1.32883 -1.77942e-20)
(-0.142541 0.357189 8.29144e-20)
(-0.514835 0.723572 3.49945e-19)
(0.24651 0.0340194 -8.22698e-20)
(-0.0665325 0.302243 -2.35284e-19)
(0.538894 -0.14044 3.89654e-20)
(0.285972 0.0463504 3.74178e-20)
(0.75231 -0.214891 -8.59804e-20)
(0.555601 -0.0922241 -3.58809e-20)
(0.904318 -0.228399 -3.86265e-20)
(0.75584 -0.153231 -2.5366e-20)
(0.905805 -0.164574 1.93579e-20)
(1.01231 -0.214509 1.36462e-19)
(-2.87361 3.70134 0)
(-2.84009 4.03493 -6.55964e-19)
(-2.50718 3.18968 0)
(-2.7537 3.46408 3.98492e-20)
(-2.07217 2.60901 -3.33211e-19)
(-2.36381 3.02651 2.97041e-19)
(-1.54252 1.92076 -1.45242e-19)
(-1.9259 2.41474 -3.69322e-19)
(-0.992906 1.25163 4.78079e-19)
(-1.40808 1.74709 1.91178e-19)
(-0.491813 0.714624 6.83559e-20)
(-0.88852 1.15284 2.60322e-19)
(-0.0676639 0.342645 -1.45217e-19)
(-0.42168 0.69973 -1.06376e-19)
(0.275263 0.109444 -3.59584e-20)
(-0.023711 0.384217 -4.39805e-20)
(0.541042 -0.0242241 1.13607e-20)
(0.300462 0.174843 1.10012e-20)
(0.740538 -0.0891979 2.20476e-20)
(0.552377 0.0481609 1.51988e-20)
(0.749891 -0.0182864 -1.24067e-20)
(0.887973 -0.119529 4.60917e-21)
(-2.85403 3.80351 -4.06444e-19)
(-2.76601 4.0772 -3.25189e-19)
(-2.58086 3.37677 1.65493e-19)
(-2.77379 3.57025 3.86152e-20)
(-2.2622 2.90107 3.25384e-19)
(-2.51235 3.2403 1.57144e-19)
(-1.84832 2.31768 -9.22437e-20)
(-2.18828 2.76798 -7.74088e-20)
(-1.36805 1.71389 -1.10271e-20)
(-1.7616 2.23208 -1.02392e-19)
(-0.877035 1.18468 1.00323e-19)
(-1.28166 1.70291 5.36586e-20)
(-0.422409 0.771343 -5.0149e-21)
(-0.805881 1.23774 -1.9808e-20)
(-0.031967 0.468775 -5.05316e-21)
(-0.3715 0.857265 -4.79831e-20)
(0.288601 0.25888 1.64877e-21)
(0.000479469 0.565917 -1.58587e-20)
(0.53833 0.123561 -5.22193e-21)
(0.300289 0.353899 -7.35368e-21)
(0.553824 0.211231 -9.49558e-22)
(0.730155 0.046763 4.3768e-22)
(-2.82451 3.75809 2.59911e-19)
(-2.86898 4.01066 -3.14119e-19)
(-2.67796 3.47383 -1.16134e-19)
(-2.83574 3.61996 -3.56859e-19)
(-2.477 3.15318 -2.12494e-19)
(-2.64957 3.42864 2.86485e-19)
(-2.16203 2.73336 -8.48799e-20)
(-2.38407 3.13868 -3.03619e-19)
(-1.74506 2.26425 -1.16593e-20)
(-2.02743 2.78614 -2.67438e-21)
(-1.2705 1.79006 -3.29569e-20)
(-1.60318 2.36956 -5.31899e-20)
(-0.798578 1.35194 -3.43614e-20)
(-1.15562 1.92311 4.26101e-20)
(-0.374868 0.977597 -1.69039e-20)
(-0.727523 1.4921 -4.07169e-20)
(-0.0162295 0.680975 -8.25476e-21)
(-0.345321 1.12028 -1.46229e-21)
(0.281687 0.46338 -2.40164e-20)
(-0.0247489 0.825749 -7.46111e-21)
(0.290313 0.603747 9.34543e-20)
(0.534553 0.283777 1.82013e-20)
(-2.91038 4.02864 -1.16867e-18)
(-2.05226 3.22353 -1.60761e-18)
(-2.75351 3.73664 2.63568e-19)
(-2.16784 3.17794 -3.0768e-19)
(-2.57077 3.53551 4.96604e-19)
(-1.98835 3.17738 1.1781e-18)
(-2.29436 3.27644 -1.09495e-19)
(-1.83216 3.1167 -9.81629e-20)
(-1.93878 2.94703 -5.40327e-20)
(-1.64893 2.99578 4.76909e-19)
(-1.53109 2.53972 -3.55128e-20)
(-1.42807 2.78883 2.03498e-19)
(-1.11556 2.09097 -2.83028e-20)
(-1.17514 2.49357 1.33846e-20)
(-0.730793 1.65612 -2.975e-20)
(-0.887123 2.12558 4.56952e-21)
(-0.386063 1.27572 0)
(-0.591905 1.76149 -3.18046e-20)
(-0.0896765 0.968821 7.76185e-20)
(-0.324007 1.43222 0)
(-0.0207565 1.10467 -3.17466e-19)
(0.164118 0.800705 -1.75794e-19)
(-1.65027 2.24749 -3.99066e-20)
(0.327659 1.50306 -1.75996e-18)
(-1.56691 2.48207 4.11022e-19)
(0.168121 1.641 5.4195e-19)
(-1.45332 2.59258 1.34355e-19)
(0.166372 1.6115 1.0781e-19)
(-1.35441 2.68784 -3.81337e-20)
(0.118833 1.58967 -5.45786e-20)
(-1.25269 2.73342 2.02684e-20)
(0.0851162 1.57172 6.945e-20)
(-1.1277 2.69606 -5.70475e-21)
(0.0838443 1.54095 -4.38919e-21)
(-0.962667 2.54611 -3.30381e-20)
(0.122433 1.48723 0)
(-0.750187 2.2956 -6.40002e-20)
(0.200084 1.40245 -1.40697e-19)
(-0.517867 1.9981 -3.52599e-20)
(0.278913 1.29438 -3.50038e-19)
(-0.29498 1.68058 1.65357e-20)
(0.343656 1.17595 -1.32879e-19)
(0.414586 1.01273 4.71338e-19)
(-0.0618482 1.44714 -5.61188e-19)
(-1.45536 4.03497 1.43836e-18)
(-1.98162 1.44377 2.68169e-18)
(-0.319321 3.03982 -1.50766e-18)
(-1.26389 1.9694 -4.78134e-19)
(0.448475 2.45879 1.28501e-19)
(-0.379074 2.10007 0)
(0.928488 2.02097 1.58785e-19)
(0.301525 1.94587 -2.49315e-19)
(1.23566 1.66679 3.26767e-19)
(0.766138 1.69026 1.85455e-19)
(1.43513 1.38038 1.47965e-19)
(1.09474 1.43856 4.99209e-19)
(1.57165 1.14876 -5.45043e-19)
(1.32398 1.21015 -3.3663e-19)
(1.67276 0.962532 -3.64644e-19)
(1.48762 1.01473 -1.11187e-19)
(1.75469 0.813913 -3.28184e-19)
(1.61097 0.853713 -1.92518e-19)
(1.82692 0.695561 -1.45516e-19)
(1.70845 0.725539 -5.66972e-20)
(1.78441 0.629457 -1.32859e-20)
(1.893 0.600816 1.83729e-19)
(-1.916 0.27818 5.10656e-19)
(-2.29789 -1.07463 2.12941e-19)
(-1.41802 1.19641 6.33723e-19)
(-1.40568 0.125127 -2.42727e-18)
(-0.63995 1.50784 -5.87854e-19)
(-1.04961 0.638245 3.53942e-19)
(0.0649356 1.52511 -5.73104e-19)
(-0.435302 1.00805 -6.25291e-19)
(0.590613 1.39822 3.21189e-19)
(0.123816 1.17008 1.6076e-19)
(0.962887 1.22912 3.77439e-19)
(0.590364 1.14817 1.45593e-19)
(1.22385 1.05469 4.11167e-19)
(0.942869 1.03869 -3.62338e-20)
(1.41129 0.896364 2.11354e-19)
(1.19887 0.903102 1.24242e-19)
(1.55199 0.762418 1.07434e-19)
(1.38674 0.774273 4.41873e-20)
(1.66321 0.652592 1.35701e-19)
(1.52757 0.665362 1.97597e-19)
(1.62785 0.577785 -5.53923e-20)
(1.75661 0.555171 0)
(-1.38298 -0.833179 -8.51007e-19)
(-1.7064 -1.68632 1.54411e-18)
(-1.30855 -0.333754 -2.48248e-18)
(-0.811281 -0.809245 -3.61162e-18)
(-0.957784 0.189717 3.69946e-19)
(-0.964968 -0.484555 -8.74148e-20)
(-0.489352 0.630905 0)
(-0.629339 0.0438624 1.65205e-18)
(0.0432338 0.874816 0)
(-0.245 0.415195 -1.23818e-18)
(0.524917 0.929558 -2.13909e-19)
(0.189722 0.62936 5.49956e-19)
(0.896821 0.879174 -3.22028e-19)
(0.585312 0.712636 -2.95305e-19)
(1.16449 0.784926 -3.70051e-20)
(0.904027 0.703437 -5.92037e-20)
(1.35596 0.684736 1.16197e-19)
(1.15032 0.647484 6.16578e-21)
(1.49967 0.596463 7.08721e-20)
(1.33482 0.57794 1.97076e-19)
(1.46399 0.515192 -5.47397e-20)
(1.60929 0.516683 -4.30426e-20)
(-0.651549 -1.26626 1.65409e-18)
(-0.990039 -1.83144 2.06114e-18)
(-0.710744 -0.995389 -1.53398e-18)
(-0.0952635 -1.18352 -1.77575e-18)
(-0.668171 -0.586545 1.10448e-18)
(-0.515763 -1.06415 -1.59391e-18)
(-0.48808 -0.167278 4.62196e-19)
(-0.36825 -0.600189 2.57929e-18)
(-0.17647 0.178979 -8.73014e-19)
(-0.203911 -0.216527 -1.21366e-18)
(0.191142 0.407922 5.32999e-19)
(0.0738866 0.100022 3.54902e-19)
(0.552565 0.522565 -3.56832e-20)
(0.389466 0.304534 -3.18855e-20)
(0.864183 0.552139 -3.24366e-20)
(0.69075 0.408055 0)
(1.11182 0.532063 6.33842e-20)
(0.952843 0.440943 -3.64539e-20)
(1.30195 0.490339 1.34203e-19)
(1.16203 0.433466 2.45956e-20)
(1.31055 0.406402 -2.5785e-20)
(1.45132 0.433362 0)
(-0.0520692 -1.44527 2.098e-18)
(-0.387369 -1.81296 7.46271e-19)
(-0.0894514 -1.31748 -1.91714e-18)
(0.472646 -1.31425 -6.9785e-19)
(-0.165607 -1.00827 -9.0488e-19)
(-0.011236 -1.33472 -1.25394e-18)
(-0.152868 -0.65593 1.0637e-18)
(0.0548639 -0.956432 9.5964e-19)
(-0.0173765 -0.312879 -1.51793e-19)
(0.070825 -0.64914 5.6203e-19)
(0.20617 -0.028939 -1.89576e-19)
(0.211542 -0.330094 -1.08723e-18)
(0.472496 0.166618 0)
(0.414541 -0.0740327 3.34221e-19)
(0.740065 0.281183 0)
(0.645312 0.0971982 -2.0916e-19)
(0.977301 0.332978 -1.00498e-19)
(0.868788 0.202317 -1.06194e-19)
(1.17256 0.346385 -1.49279e-19)
(1.06314 0.256121 2.60792e-19)
(1.20815 0.273974 -1.42484e-19)
(1.32771 0.336535 2.93031e-19)
(0.394013 -1.47093 0)
(0.0738962 -1.70418 0)
(0.405148 -1.43873 2.12512e-20)
(0.870969 -1.33247 0)
(0.296492 -1.21674 2.62532e-20)
(0.415428 -1.42656 2.38161e-20)
(0.236352 -0.948063 5.0139e-19)
(0.459396 -1.11023 2.94684e-19)
(0.264543 -0.658443 -2.29189e-19)
(0.39269 -0.895152 3.35563e-19)
(0.368573 -0.38133 -6.39803e-19)
(0.444765 -0.613836 -9.11021e-19)
(0.537742 -0.15219 1.85262e-19)
(0.549068 -0.3666 2.41557e-19)
(0.731456 0.0141063 -2.78571e-19)
(0.700532 -0.164154 -1.37316e-19)
(0.924277 0.121059 2.62746e-19)
(0.866387 -0.0171015 -1.05606e-19)
(1.09661 0.182739 3.51985e-19)
(1.02477 0.0813058 4.37117e-19)
(1.14766 0.134612 -1.16014e-19)
(1.24312 0.213406 -2.26357e-19)
(0.71694 -1.40935 0)
(0.417326 -1.54366 -6.83544e-19)
(0.772685 -1.4425 0)
(1.14094 -1.29911 8.24697e-19)
(0.668131 -1.28216 2.64416e-19)
(0.748089 -1.4323 -2.22627e-19)
(0.584576 -1.08345 -1.92944e-20)
(0.792345 -1.14497 3.08389e-19)
(0.56179 -0.855072 -2.59389e-19)
(0.683428 -1.01651 -9.16904e-20)
(0.58825 -0.611435 -9.12637e-20)
(0.695059 -0.775516 -1.31674e-21)
(0.673353 -0.388713 -3.8806e-20)
(0.727731 -0.558945 2.21293e-20)
(0.796239 -0.204406 7.87991e-20)
(0.810883 -0.358752 -1.65899e-20)
(0.93488 -0.0653818 5.77791e-20)
(0.919517 -0.195663 -2.96752e-19)
(1.07142 0.0336054 7.25041e-20)
(1.03616 -0.0730657 1.07967e-19)
(1.13116 0.00751177 0)
(1.18965 0.105866 0)
(0.947223 -1.32594 7.08487e-19)
(0.688897 -1.39968 1.46743e-19)
(1.03977 -1.39704 1.21176e-18)
(1.32939 -1.25429 1.61746e-19)
(0.951946 -1.27854 -2.36796e-19)
(0.999982 -1.40162 -4.90476e-19)
(0.878375 -1.11676 1.35411e-19)
(1.06474 -1.14155 2.41215e-19)
(0.827896 -0.942795 2.30524e-19)
(0.922906 -1.0529 1.18504e-19)
(0.810912 -0.741891 7.18251e-20)
(0.920899 -0.850183 -4.7277e-20)
(0.838597 -0.543162 3.67984e-20)
(0.910002 -0.669913 2.30531e-19)
(0.903043 -0.363345 -3.3997e-19)
(0.944085 -0.487642 -1.76779e-19)
(0.991567 -0.2145 -2.21677e-19)
(1.00456 -0.327385 -1.23997e-19)
(1.09023 -0.09907 6.10441e-20)
(1.08133 -0.197087 5.48295e-20)
(1.14759 -0.103613 -1.41482e-20)
(1.18365 -0.0077219 0)
(1.12777 -1.24706 -1.3113e-19)
(0.903376 -1.26398 1.74926e-18)
(1.24954 -1.32783 -9.66132e-19)
(1.49847 -1.22142 -1.37226e-18)
(1.16028 -1.24866 7.64397e-20)
(1.18279 -1.32025 -2.68103e-19)
(1.09994 -1.11848 3.9407e-19)
(1.27957 -1.11583 4.65461e-19)
(1.04288 -0.970871 -7.42739e-20)
(1.12768 -1.05218 -1.53129e-19)
(1.00844 -0.804088 8.05305e-20)
(1.11352 -0.876415 -1.40688e-19)
(1.00167 -0.632164 3.32729e-20)
(1.07664 -0.72474 2.02947e-19)
(1.02387 -0.467933 -7.25842e-22)
(1.07762 -0.563092 -1.93237e-19)
(1.07022 -0.323351 1.4904e-19)
(1.10078 -0.414737 8.50943e-20)
(1.13102 -0.203851 -1.25456e-20)
(1.14288 -0.286727 2.15023e-19)
(1.18087 -0.189992 -1.41232e-19)
(1.18995 -0.0983086 6.00723e-19)
(1.2807 -1.17104 1.17535e-19)
(1.05507 -1.1435 1.46529e-18)
(1.41297 -1.26767 -7.85393e-19)
(1.65078 -1.16103 -7.1594e-19)
(1.34256 -1.18366 2.10863e-19)
(1.35638 -1.25749 0)
(1.28823 -1.08624 2.86554e-19)
(1.44048 -1.0678 3.98116e-19)
(1.22276 -0.961696 -2.12045e-19)
(1.2988 -1.01887 -4.17896e-20)
(1.17712 -0.821935 -1.15039e-19)
(1.27585 -0.868717 -1.467e-19)
(1.14873 -0.673833 -1.8489e-20)
(1.22263 -0.740941 6.04685e-20)
(1.14193 -0.527963 -1.02563e-19)
(1.20096 -0.598726 -1.22017e-19)
(1.15607 -0.394553 1.80356e-19)
(1.19617 -0.46548 -9.22531e-21)
(1.18688 -0.279586 1.47662e-19)
(1.21069 -0.346366 9.68527e-20)
(1.22695 -0.255263 -1.52547e-19)
(1.22139 -0.171752 -5.31495e-20)
(1.41974 -1.06317 6.07532e-19)
(1.15355 -1.03207 5.54462e-19)
(1.56241 -1.18785 0)
(1.76095 -1.06969 0)
(1.48999 -1.1174 1.46302e-19)
(1.49956 -1.17195 0)
(1.44068 -1.03542 2.49077e-19)
(1.57474 -1.00922 1.81847e-19)
(1.3731 -0.928236 -2.49773e-20)
(1.44032 -0.96857 -4.24935e-20)
(1.32003 -0.809827 -6.0807e-20)
(1.41151 -0.837674 1.64585e-19)
(1.27675 -0.682085 -3.30299e-20)
(1.34757 -0.729774 -9.06264e-20)
(1.24955 -0.554077 -3.89317e-20)
(1.3101 -0.605087 1.23367e-19)
(1.23981 -0.434534 -5.33351e-20)
(1.28429 -0.48768 4.97033e-20)
(1.24681 -0.329766 -1.18525e-19)
(1.27708 -0.380276 -1.63752e-19)
(1.27704 -0.295925 -2.3041e-20)
(1.25921 -0.231979 -1.36802e-20)
(1.5119 -0.965933 0)
(1.23282 -0.932115 1.48286e-19)
(1.6784 -1.10202 0)
(1.85753 -0.983433 -7.6425e-19)
(1.61454 -1.04145 2.08484e-20)
(1.61559 -1.086 7.54605e-19)
(1.56629 -0.972158 -8.22625e-20)
(1.686 -0.938053 -5.19265e-19)
(1.4978 -0.878729 6.43355e-20)
(1.55667 -0.906699 5.24712e-20)
(1.43988 -0.776992 2.11734e-19)
(1.52412 -0.79014 5.62835e-19)
(1.386 -0.666394 4.18748e-20)
(1.45241 -0.698851 -3.28057e-19)
(1.34382 -0.554802 2.15326e-19)
(1.40361 -0.589549 2.75781e-19)
(1.31579 -0.449589 2.84554e-20)
(1.3617 -0.487662 -6.88122e-20)
(1.30287 -0.357127 -5.99776e-20)
(1.33647 -0.392968 -6.10712e-20)
(1.32106 -0.31897 1.59959e-20)
(1.29198 -0.266184 -4.75714e-20)
(1.59089 -0.865182 -5.26376e-19)
(1.30236 -0.827788 -7.36469e-19)
(1.77353 -1.01403 -4.198e-19)
(1.94045 -0.886295 -7.66505e-19)
(1.71659 -0.960669 3.49338e-19)
(1.71313 -0.99834 1.17292e-18)
(1.67006 -0.900177 -5.3533e-19)
(1.77857 -0.859291 -1.36264e-18)
(1.60057 -0.817726 5.45384e-19)
(1.65214 -0.836141 4.67766e-19)
(1.53905 -0.729422 1.70129e-19)
(1.61661 -0.730865 1.73852e-19)
(1.47712 -0.633366 -1.43711e-19)
(1.53868 -0.653682 -3.09589e-19)
(1.42354 -0.536642 6.75746e-20)
(1.48122 -0.557852 2.60806e-19)
(1.38104 -0.44546 -1.05598e-19)
(1.42665 -0.470639 -1.41456e-19)
(1.35263 -0.36549 -4.5398e-21)
(1.3871 -0.38921 1.39856e-19)
(1.3558 -0.326095 -2.89056e-20)
(1.33093 -0.296043 2.03715e-20)
(1.65627 -0.747508 -9.91596e-19)
(1.33572 -0.699207 -1.883e-18)
(1.85195 -0.9148 3.73798e-19)
(1.99444 -0.774989 8.85616e-20)
(1.80138 -0.873031 -4.43674e-19)
(1.79205 -0.902574 1.20843e-18)
(1.75528 -0.82114 -7.31793e-19)
(1.85183 -0.774865 -9.28429e-19)
(1.68475 -0.747983 1.83179e-19)
(1.73069 -0.757424 2.98512e-19)
(1.62 -0.671189 -2.48373e-19)
(1.69077 -0.663156 -3.11638e-19)
(1.55149 -0.587805 5.25148e-20)
(1.60836 -0.597437 2.67017e-19)
(1.48874 -0.504627 1.11674e-19)
(1.54339 -0.514224 -1.15453e-20)
(1.43444 -0.426888 5.73984e-20)
(1.47856 -0.440637 9.32585e-21)
(1.39243 -0.359589 1.50068e-19)
(1.4272 -0.372116 1.06123e-19)
(1.38577 -0.320894 -2.30524e-20)
(1.35431 -0.296317 -3.82801e-20)
(1.69356 -0.629768 -5.63175e-19)
(1.36789 -0.577785 -8.38407e-19)
(1.90887 -0.81119 5.41502e-19)
(2.03019 -0.665445 8.82838e-20)
(1.86864 -0.780126 7.79952e-19)
(1.85612 -0.802106 6.33008e-19)
(1.82308 -0.735815 -1.14856e-19)
(1.90716 -0.687082 3.37587e-21)
(1.75212 -0.670561 -1.32676e-19)
(1.79423 -0.67128 1.42582e-19)
(1.68391 -0.603828 1.04803e-19)
(1.74774 -0.588768 -5.82229e-19)
(1.60984 -0.531866 2.38384e-19)
(1.66254 -0.532017 4.94436e-19)
(1.53941 -0.461491 -1.1651e-19)
(1.59042 -0.461495 -1.53547e-19)
(1.47561 -0.396781 4.77513e-20)
(1.51736 -0.400872 -1.29606e-20)
(1.42297 -0.34217 -1.57556e-20)
(1.45604 -0.345694 -1.15592e-19)
(1.40477 -0.3052 2.60743e-20)
(1.37647 -0.296569 1.94421e-20)
(1.7181 -0.510876 1.66626e-19)
(1.39263 -0.453322 -1.8079e-18)
(1.94901 -0.704269 -1.40223e-19)
(2.04979 -0.550826 -1.64803e-20)
(1.92025 -0.683347 -7.74294e-20)
(1.90781 -0.694947 5.71401e-19)
(1.87539 -0.645622 2.4393e-19)
(1.94752 -0.595385 1.05027e-19)
(1.80412 -0.587123 -2.27732e-19)
(1.84373 -0.578916 2.61117e-19)
(1.73211 -0.529412 -3.79459e-19)
(1.78889 -0.508504 -6.50309e-19)
(1.65297 -0.468218 1.62701e-19)
(1.70145 -0.4595 3.93058e-19)
(1.57575 -0.410419 -6.52593e-20)
(1.62239 -0.401997 -2.70086e-19)
(1.50399 -0.358809 -1.46451e-19)
(1.54265 -0.3543 1.27119e-19)
(1.44259 -0.317025 -8.13648e-20)
(1.4732 -0.313 -7.34037e-20)
(1.41419 -0.285162 -1.62392e-20)
(1.38887 -0.284009 -3.22098e-20)
(1.73254 -0.383418 -1.69079e-18)
(1.39857 -0.320551 -1.26275e-18)
(1.97497 -0.588554 3.61438e-19)
(2.04843 -0.42567 9.5085e-20)
(1.95808 -0.580011 7.98917e-19)
(1.94393 -0.577759 6.40686e-19)
(1.91369 -0.54962 1.06995e-19)
(1.97285 -0.497403 5.08314e-20)
(1.84151 -0.498026 -9.45409e-20)
(1.87855 -0.480204 1.19063e-19)
(1.76511 -0.449014 -1.14203e-20)
(1.81459 -0.422438 -1.26187e-19)
(1.681 -0.398772 2.49729e-20)
(1.72471 -0.3815 1.8659e-19)
(1.59775 -0.353867 -1.37686e-19)
(1.63917 -0.337762 -2.98794e-19)
(1.51948 -0.315845 2.17321e-19)
(1.55415 -0.303676 2.14299e-19)
(1.45094 -0.287237 -1.44718e-20)
(1.47859 -0.276697 -4.19541e-20)
(1.41163 -0.262643 -1.03995e-20)
(1.39241 -0.270514 5.83432e-20)
(1.72939 -0.248468 8.39378e-19)
(1.3917 -0.18314 4.14084e-20)
(1.98283 -0.462749 4.84254e-20)
(2.02688 -0.290485 1.89735e-18)
(1.98013 -0.468186 -4.2776e-20)
(1.96195 -0.449379 -1.4457e-19)
(1.93712 -0.446358 5.59216e-20)
(1.98177 -0.39091 -4.56163e-19)
(1.86362 -0.402898 8.14931e-20)
(1.8965 -0.37462 0)
(1.78233 -0.363283 5.13056e-20)
(1.82366 -0.330486 2.39427e-19)