/*--------------------------------*- C++ -*----------------------------------*\
| =========                 |                                                 |
| \\      /  F ield         | OpenFOAM: The Open Source CFD Toolbox           |
|  \\    /   O peration     | Version:  3.0.1                                 |
|   \\  /    A nd           | Web:      www.OpenFOAM.org                      |
|    \\/     M anipulation  |                                                 |
\*---------------------------------------------------------------------------*/
FoamFile
{
    version     2.0;
    format      ascii;
    class       surfaceVectorField;
    location    "0.20227";
    object      Uf;
}
// * * * * * * * * * * * * * * * * * * * * * * * * * * * * * * * * * * * * * //

dimensions      [0 1 -1 0 0 0 0];

internalField   nonuniform List<vector> 
32369
(
(4.35759 0.577532 -2.78207e-18)
(5.07853 0.189699 6.42396e-19)
(5.03687 1.90595 -6.40396e-19)
(3.83738 0.785481 -8.17729e-19)
(3.44604 -0.189163 -6.39289e-19)
(3.7354 1.63679 4.90352e-21)
(3.40533 0.666109 1.47928e-19)
(3.48734 -0.0126394 -1.12457e-18)
(3.22719 1.30682 -1.27924e-19)
(2.96297 0.515779 -7.21563e-20)
(3.20319 0.0319606 -2.09589e-19)
(2.81446 0.968754 2.1412e-19)
(2.59332 0.375212 -1.4235e-19)
(2.82657 0.0586301 2.9001e-19)
(2.49603 0.700124 -2.41502e-19)
(2.30267 0.248999 0)
(2.50656 0.0508633 0)
(2.24848 0.488406 0)
(2.07526 0.141137 -3.90677e-20)
(2.24178 0.0153249 0)
(2.04822 0.322158 -8.66935e-20)
(1.89593 0.0495522 -6.61026e-20)
(2.02775 -0.0333785 1.00408e-19)
(1.88341 0.190153 -1.89663e-20)
(1.7539 -0.0294606 -1.00135e-20)
(1.85628 -0.0871511 -1.21502e-19)
(1.74807 0.0824305 -3.65166e-20)
(1.64106 -0.0993875 -1.65812e-20)
(1.72085 -0.141403 5.07448e-20)
(1.63845 -0.00729448 2.36517e-20)
(1.62041 -0.187422 -1.04637e-20)
(1.55132 -0.07584 1.80131e-20)
(1.54275 -0.162139 -3.15933e-20)
(2.81608 -0.476792 5.40963e-19)
(3.16261 0.193018 -2.09205e-21)
(3.16967 -0.438203 -2.43219e-19)
(2.0961 -0.706015 -1.36962e-18)
(3.20807 -0.379976 -1.57404e-18)
(2.85453 -0.767569 -1.38978e-19)
(3.04576 -0.272243 -2.42288e-19)
(2.94451 -0.707778 4.26912e-20)
(2.77083 -0.179602 4.19809e-19)
(2.79362 -0.576696 6.93392e-19)
(2.48205 -0.1388 0)
(2.5773 -0.434493 8.7833e-20)
(2.22446 -0.134586 1.21547e-19)
(2.3382 -0.338926 -3.47865e-19)
(2.01127 -0.153588 1.17857e-19)
(2.11933 -0.290307 -3.06105e-21)
(1.84146 -0.185001 -1.13053e-19)
(1.93233 -0.276682 -2.16379e-19)
(1.70842 -0.221747 4.12781e-20)
(1.78028 -0.285223 -2.80624e-20)
(1.66625 -0.299842 7.44717e-21)
(1.59949 -0.254458 0)
(1.65343 -0.244108 -2.13765e-18)
(1.86009 0.702554 1.12177e-18)
(2.07717 -0.781255 -1.42206e-18)
(1.19204 -0.37909 -1.44895e-18)
(2.41177 -0.923514 1.89115e-18)
(1.99497 -0.815632 1.15116e-18)
(2.58994 -0.866099 1.00903e-18)
(2.27926 -0.976019 7.26029e-19)
(2.58084 -0.719511 4.96274e-19)
(2.39366 -0.958686 3.11216e-19)
(2.44221 -0.566042 -8.30167e-20)
(2.38322 -0.824813 -1.79479e-19)
(2.25258 -0.454752 -4.66393e-19)
(2.26654 -0.67278 2.42497e-20)
(2.06087 -0.389523 -3.23798e-19)
(2.10969 -0.553689 2.18024e-20)
(1.89076 -0.360954 -2.45063e-19)
(1.94948 -0.477365 1.28916e-19)
(1.7496 -0.358288 -5.89086e-20)
(1.80649 -0.437803 8.1156e-20)
(1.69715 -0.417655 1.54943e-19)
(1.63059 -0.366296 2.98968e-19)
(1.11129 0.467832 1.19024e-18)
(1.15653 1.43967 -1.09957e-18)
(1.36987 -0.433774 4.88518e-19)
(0.864545 0.237642 -1.05529e-19)
(1.71218 -0.875191 3.19167e-20)
(1.40402 -0.46068 -8.14803e-19)
(2.00361 -1.03604 3.95832e-20)
(1.68312 -0.852621 -2.76681e-19)
(2.17186 -1.01397 -2.29899e-19)
(1.91463 -1.02326 5.19496e-19)
(2.2049 -0.885561 1.74202e-19)
(2.04996 -1.00666 8.1376e-20)
(2.13722 -0.736649 7.2924e-19)
(2.06477 -0.893229 2.46787e-19)
(2.01804 -0.617545 4.52294e-19)
(2.00253 -0.763411 4.65005e-19)
(1.88493 -0.537672 3.95181e-19)
(1.90082 -0.655101 8.49075e-20)
(1.7592 -0.49103 2.88697e-19)
(1.78981 -0.580372 4.56021e-20)
(1.69592 -0.525996 -6.99057e-20)
(1.6466 -0.45268 -2.72477e-20)
(0.895662 1.24515 -2.22625e-18)
(0.876708 2.19053 -2.49912e-18)
(1.03488 0.176358 -1.19365e-18)
(0.790917 0.915172 -9.61573e-20)
(1.2864 -0.489428 -1.03043e-18)
(1.09843 0.0404102 -4.05747e-19)
(1.55109 -0.871756 2.40303e-19)
(1.31015 -0.526223 -1.96588e-19)
(1.76939 -1.02849 8.6765e-19)
(1.54359 -0.866691 -3.32302e-19)
(1.90138 -1.01337 5.23289e-20)
(1.72987 -0.992976 -3.63227e-19)
(1.93814 -0.91011 -1.74049e-19)
(1.82603 -0.971912 -1.47015e-19)
(1.90255 -0.78877 6.84029e-20)
(1.84468 -0.882817 1.12529e-20)
(1.82565 -0.686801 -3.88312e-19)
(1.80693 -0.781117 -4.00403e-19)
(1.73365 -0.61252 -3.45654e-19)
(1.73805 -0.695005 -5.07415e-20)
(1.67274 -0.625835 -3.46584e-19)
(1.63485 -0.54746 -5.39042e-19)
(0.851932 1.96432 -7.12078e-19)
(0.875478 2.89215 -6.74354e-19)
(0.897346 0.820129 6.27186e-19)
(0.830575 1.58291 6.12035e-19)
(1.06675 0.0117489 3.29934e-19)
(0.965487 0.603343 -2.29859e-19)
(1.27346 -0.536856 -6.45338e-19)
(1.1145 -0.107273 2.91142e-19)
(1.4772 -0.854763 -1.36574e-18)
(1.30927 -0.591219 -2.52291e-19)
(1.63847 -0.972842 -5.19656e-19)
(1.49177 -0.851886 -2.76027e-19)
(1.73222 -0.957777 1.23244e-20)
(1.61977 -0.936544 -2.18215e-19)
(1.75954 -0.879894 -4.16325e-19)
(1.6869 -0.9145 -2.4214e-19)
(1.7366 -0.788516 -1.04241e-19)
(1.69914 -0.846132 3.52018e-21)
(1.68356 -0.707795 2.64969e-20)
(1.66976 -0.770894 8.78655e-20)
(1.63621 -0.701171 -1.04271e-19)
(1.61355 -0.631313 1.34483e-19)
(0.933199 2.62905 4.1891e-19)
(1.05633 3.51459 1.73764e-20)
(0.900153 1.44954 -1.82358e-19)
(0.934362 2.22377 1.15492e-18)
(0.986795 0.539153 -3.29969e-19)
(0.953553 1.17492 1.55413e-19)
(1.12983 -0.137216 7.06902e-19)
(1.0396 0.348188 -1.81636e-19)
(1.29648 -0.587312 7.46009e-19)
(1.18254 -0.257148 7.74286e-19)
(1.45116 -0.828146 -1.44336e-20)
(1.3379 -0.637717 2.86433e-19)
(1.56485 -0.90949 -4.34893e-19)
(1.46827 -0.825956 -4.58293e-19)
(1.62733 -0.894309 1.422e-19)
(1.55716 -0.879575 0)
(1.64355 -0.836818 1.77738e-19)
(1.60084 -0.858075 2.78727e-19)
(1.62501 -0.769846 -9.84686e-21)
(1.60205 -0.808018 -2.88819e-20)
(1.59642 -0.750741 1.91555e-19)
(1.58337 -0.696694 -7.64378e-19)
(1.0983 3.2406 6.26744e-19)
(1.31375 4.01576 -1.52141e-19)
(0.995697 2.04731 1.59653e-18)
(1.06897 2.81236 9.80664e-20)
(1.00231 1.05992 3.61478e-19)
(1.01806 1.71836 6.49713e-19)
(1.08052 0.280275 -2.12536e-19)
(1.04026 0.807019 -7.32187e-20)
(1.20148 -0.279997 3.58813e-19)
(1.12881 0.101602 3.26403e-19)
(1.33338 -0.628707 -1.07455e-19)
(1.24908 -0.382909 1.91255e-19)
(1.44618 -0.801921 -9.87756e-20)
(1.36717 -0.668102 1.07314e-20)
(1.52387 -0.854012 1.05878e-19)
(1.46142 -0.798451 -1.20001e-19)
(1.5638 -0.839618 1.07489e-19)
(1.52241 -0.82977 3.3401e-20)
(1.57135 -0.797555 1.4379e-19)
(1.54533 -0.812044 -2.87321e-20)
(1.55988 -0.776479 1.12624e-19)
(1.55397 -0.737082 1.41659e-19)
(1.29032 3.76422 -7.12005e-19)
(1.53493 4.39022 -9.43059e-19)
(1.1227 2.59926 -9.86069e-19)
(1.19876 3.32054 -7.95802e-20)
(1.06166 1.56256 2.90342e-19)
(1.11191 2.2312 4.36233e-19)
(1.08311 0.701608 4.24786e-19)
(1.07629 1.26823 3.13544e-20)
(1.16136 0.0468975 1.6498e-19)
(1.11607 0.481426 6.64259e-20)
(1.26533 -0.397938 3.08495e-19)
(1.20205 -0.0986249 3.19895e-19)
(1.36781 -0.65735 -7.74609e-21)
(1.30241 -0.475474 1.46184e-19)
(1.44968 -0.776874 -2.03394e-19)
(1.39392 -0.682703 -1.66651e-20)
(1.50317 -0.809094 -8.7744e-20)
(1.46378 -0.770459 -2.19964e-19)
(1.52949 -0.797184 -7.42337e-20)
(1.50267 -0.789173 2.0436e-19)
(1.53217 -0.777722 -6.60947e-20)
(1.53441 -0.763192 1.11524e-18)
(1.42644 4.12472 -2.45753e-19)
(1.69386 4.59366 -8.34448e-19)
(1.23003 3.08398 1.22566e-18)
(1.3174 3.75775 7.18112e-19)
(1.13114 2.05469 1.94128e-19)
(1.21755 2.74329 4.86902e-19)
(1.10977 1.13779 -3.29464e-19)
(1.13405 1.75389 -1.0641e-18)
(1.14941 0.399853 1.95644e-19)
(1.13015 0.893913 6.76528e-19)
(1.22655 -0.13608 1.72134e-19)
(1.18216 0.222895 1.70714e-20)
(1.31591 -0.480614 1.50774e-19)
(1.26192 -0.245654 2.51181e-19)
(1.39716 -0.669623 -1.11335e-20)
(1.3462 -0.533039 -2.04474e-19)
(1.45919 -0.751832 2.52304e-20)
(1.42005 -0.682197 -4.07473e-19)
(1.4999 -0.773281 2.41738e-19)
(1.47166 -0.742151 4.91172e-19)
(1.51376 -0.757993 -1.05067e-19)
(1.5213 -0.769259 -7.0559e-19)
(1.53554 4.35162 1.24286e-19)
(1.80922 4.64701 -6.86953e-21)
(1.34844 3.51831 0)
(1.44251 4.10137 0)
(1.22273 2.55269 -6.25577e-19)
(1.34007 3.22552 -9.07788e-19)
(1.16065 1.60298 -2.57025e-19)
(1.21922 2.25474 8.20754e-19)
(1.16141 0.790086 5.62665e-19)
(1.1725 1.34069 -3.96391e-20)
(1.20936 0.164861 6.83363e-20)
(1.18714 0.586144 -9.85651e-20)
(1.28208 -0.266933 -5.57751e-20)
(1.24122 0.0264064 1.98453e-19)
(1.35894 -0.530077 -5.77748e-19)
(1.313 -0.344965 5.37689e-20)
(1.42646 -0.667545 -3.66175e-20)
(1.38623 -0.561486 -7.92516e-19)
(1.4798 -0.726337 2.14216e-19)
(1.44787 -0.668551 2.91552e-19)
(1.5025 -0.71422 -1.21864e-19)
(1.51874 -0.749724 7.44435e-19)
(1.64865 4.48639 -1.20826e-19)
(1.90167 4.62678 -1.10191e-19)
(1.48487 3.87674 -8.19117e-19)
(1.5723 4.31599 7.55048e-19)
(1.34353 3.02753 3.72217e-19)
(1.4787 3.62906 -4.88232e-19)
(1.24184 2.08373 1.13725e-18)
(1.3314 2.73507 5.23695e-19)
(1.20084 1.21428 -6.96833e-19)
(1.24305 1.80633 -6.32546e-19)
(1.21429 0.506735 0)
(1.21645 0.986484 0)
(1.26413 -0.0119868 3.2315e-19)
(1.23861 0.341983 -4.88067e-19)
(1.33099 -0.353112 -7.17574e-20)
(1.29124 -0.113859 7.32496e-19)
(1.40015 -0.551528 -5.77253e-19)
(1.35823 -0.402267 -5.27486e-19)
(1.46417 -0.652522 5.97308e-21)
(1.42636 -0.562613 -3.26875e-19)
(1.49369 -0.642934 -3.21998e-19)
(1.5193 -0.705557 0)
(1.75575 4.53997 6.81851e-19)
(1.98858 4.59235 8.03832e-19)
(1.62261 4.11766 1.30544e-18)
(1.69672 4.42909 -1.19927e-20)
(1.47768 3.43176 -4.64314e-19)
(1.62267 3.9223 1.30596e-18)
(1.34805 2.55302 -1.1122e-18)
(1.46641 3.16756 -1.8541e-18)
(1.26647 1.66295 0)
(1.34093 2.27589 0)
(1.24049 0.889225 -4.37619e-19)
(1.27003 1.41957 6.78953e-19)
(1.26034 0.288658 -2.14105e-19)
(1.25331 0.703328 -1.93808e-20)
(1.31026 -0.131735 4.10813e-19)
(1.27884 0.166589 9.66541e-21)
(1.37598 -0.395878 -2.96517e-19)
(1.33272 -0.195748 0)
(1.44854 -0.544559 -6.58906e-19)
(1.40271 -0.414364 -1.65748e-19)
(1.483 -0.534128 3.21196e-19)
(1.52274 -0.627549 2.55462e-19)
(1.85829 4.56041 -3.51724e-20)
(2.07278 4.56107 1.84006e-18)
(1.75663 4.2668 -6.53843e-20)
(1.80976 4.49038 -2.28222e-18)
(1.62234 3.74422 1.86254e-19)
(1.76239 4.11841 9.19943e-19)
(1.47766 2.98501 -9.25198e-19)
(1.61412 3.52685 -4.83274e-19)
(1.35867 2.12283 6.09695e-19)
(1.46403 2.72572 7.24198e-19)
(1.28863 1.31051 1.18375e-18)
(1.3497 1.87411 3.34855e-19)
(1.2705 0.640126 2.02876e-19)
(1.28741 1.10962 2.2987e-19)
(1.2951 0.143292 -4.02211e-19)
(1.27671 0.502312 -3.50249e-19)
(1.35073 -0.189191 1.49522e-19)
(1.30897 0.0683556 2.44402e-20)
(1.42798 -0.390536 7.58431e-19)
(1.37425 -0.21125 3.95278e-20)
(1.46542 -0.375596 4.5955e-19)
(1.51773 -0.512884 -9.7462e-20)
(1.94896 4.56195 -2.1589e-19)
(2.15255 4.5293 8.33249e-19)
(1.87397 4.35533 -1.82365e-18)
(1.90703 4.51947 -8.86712e-19)
(1.76246 3.96937 4.0574e-19)
(1.88961 4.23996 2.71247e-19)
(1.61893 3.35167 1.05147e-18)
(1.76 3.79797 3.65077e-19)
(1.47247 2.56592 4.91931e-19)
(1.59988 3.12321 7.15684e-19)
(1.35946 1.75472 -6.16223e-19)
(1.45126 2.32564 -1.39812e-18)
(1.29647 1.03838 -2.62903e-19)
(1.34103 1.54817 7.61346e-19)
(1.28671 0.476675 4.31605e-20)
(1.28662 0.892295 -5.28424e-21)
(1.32409 0.0790775 -8.03116e-20)
(1.28873 0.397356 -2.26714e-19)
(1.40056 -0.177139 -2.98171e-19)
(1.34176 0.0594591 -1.29912e-19)
(1.43978 -0.153537 -1.82222e-19)
(1.50345 -0.340517 3.02592e-19)
(2.03366 4.55176 3.2698e-19)
(2.23012 4.49381 -2.09447e-19)
(1.97932 4.40364 8.9155e-19)
(1.99492 4.52718 1.56404e-18)
(1.89224 4.12234 2.57244e-19)
(2.00308 4.31127 -1.91862e-18)
(1.76032 3.64159 -2.73315e-21)
(1.89451 3.99066 7.25854e-19)
(1.60028 2.96626 -9.43391e-19)
(1.73819 3.45487 -2.5985e-19)
(1.44847 2.2025 -2.64076e-19)
(1.56561 2.75042 -6.71608e-19)
(1.33913 1.47509 1.09434e-18)
(1.41395 2.00464 1.01542e-18)
(1.288 0.870173 -2.67504e-19)
(1.31232 1.33142 -3.06663e-20)
(1.29898 0.418238 -2.79888e-19)
(1.27722 0.795043 -7.46692e-19)
(1.36818 0.109967 0)
(1.31022 0.408926 -2.99022e-19)
(1.41063 0.15122 0)
(1.48663 -0.0940131 0)
(2.11482 4.53334 8.44978e-19)
(2.302 4.45437 0)
(2.07554 4.42529 -6.7992e-19)
(2.07598 4.51884 9.35495e-19)
(2.00791 4.22265 -1.67927e-18)
(2.09951 4.34727 -3.14099e-18)
(1.89188 3.86217 5.79064e-19)
(2.01017 4.12135 2.02888e-18)
(1.73061 3.3127 4.70648e-20)
(1.86883 3.71906 -2.74678e-19)
(1.55342 2.63347 4.21091e-19)
(1.68839 3.13472 -1.71524e-20)
(1.40067 1.93673 -1.43247e-20)
(1.50477 2.45905 5.22065e-19)
(1.30511 1.31944 -4.71853e-19)
(1.36007 1.80618 -7.55685e-19)
(1.28279 0.832798 -8.17411e-19)
(1.28418 1.256 -4.50451e-19)
(1.33648 0.482499 -3.33893e-19)
(1.2903 0.839012 6.83668e-20)
(1.37608 0.545956 3.75918e-19)
(1.45189 0.24199 2.4033e-19)
(2.1867 4.50401 0)
(2.36514 4.41082 9.25962e-19)
(2.15533 4.42263 -8.85334e-19)
(2.14695 4.49252 -1.46026e-18)
(2.10096 4.27951 1.31633e-19)
(2.17416 4.35292 -7.14173e-19)
(2.00322 4.02187 1.40929e-18)
(2.10089 4.19973 1.29549e-18)
(1.85292 3.60006 -3.68246e-19)
(1.98133 3.91793 -5.85372e-19)
(1.66571 3.0311 2.61174e-20)
(1.81044 3.46412 2.10472e-20)
(1.48204 2.40153 -8.27452e-20)
(1.61298 2.88789 2.62857e-19)
(1.34659 1.8078 -7.5968e-19)
(1.43649 2.29145 -3.43008e-19)
(1.28922 1.31239 3.96673e-19)
(1.32402 1.75988 5.35304e-20)
(1.31912 0.936987 7.09696e-19)
(1.29837 1.33404 3.66089e-19)
(1.36375 1.02162 4.02039e-20)
(1.42997 0.667066 3.17246e-19)
(2.2487 4.46331 -7.47336e-19)
(2.41708 4.35771 4.01834e-18)
(2.21822 4.39745 -1.36207e-18)
(2.2046 4.44725 -2.82331e-18)
(2.17041 4.29785 2.91682e-19)
(2.2246 4.333 -2.48848e-20)
(2.08999 4.12679 -5.01169e-19)
(2.16266 4.23312 2.10418e-19)
(1.9607 3.82745 -2.49241e-19)
(2.07093 4.05324 -5.55872e-19)
(1.78323 3.37977 2.31522e-19)
(1.93046 3.73141 4.18663e-19)
(1.58692 2.84383 6.97188e-20)
(1.74041 3.26687 -1.12213e-18)
(1.42308 2.30618 4.46111e-19)
(1.54944 2.75189 8.15858e-19)
(1.33229 1.83312 0)
(1.40892 2.26743 0)
(1.33592 1.45441 -2.98057e-19)
(1.3536 1.86071 1.58022e-19)
(1.40011 1.54953 -1.75476e-19)
(1.42961 1.15864 4.75458e-19)
(2.2957 4.40655 1.69887e-18)
(2.45054 4.28642 3.03118e-18)
(2.25945 4.3518 -1.76816e-18)
(2.24008 4.3786 2.14727e-19)
(2.21178 4.28516 -1.26321e-19)
(2.24509 4.29376 -1.55279e-18)
(2.14809 4.18079 2.30643e-19)
(2.19627 4.23754 -6.87087e-19)
(2.05433 3.99159 0)
(2.14086 4.13127 1.30768e-18)
(1.90972 3.66625 -7.64631e-19)
(2.05225 3.9225 -3.54717e-20)
(1.72236 3.23158 -5.82229e-19)
(1.89444 3.565 -1.17997e-18)
(1.54666 2.76949 4.60339e-19)
(1.70733 3.13845 6.98769e-19)
(1.43123 2.34395 1.40908e-19)
(1.54966 2.72018 -5.24569e-19)
(1.40909 1.99003 3.21838e-19)
(1.46722 2.3573 3.95104e-19)
(1.49198 2.06952 5.27956e-20)
(1.47299 1.69803 -3.72627e-19)
(2.31645 4.32296 1.40191e-18)
(2.44782 4.19707 2.7116e-18)
(2.26711 4.2855 8.33531e-19)
(2.22763 4.28914 -5.82943e-19)
(2.22427 4.25738 -2.18604e-18)
(2.22748 4.25058 -1.23976e-18)
(2.18913 4.20552 2.13081e-19)
(2.21538 4.23253 -8.75384e-19)
(2.14545 4.09077 1.37749e-18)
(2.21481 4.16199 6.01162e-19)
(2.05388 3.86256 -3.43812e-19)
(2.19095 4.01043 4.80788e-19)
(1.89793 3.51884 -1.0589e-19)
(2.08401 3.72918 -3.11148e-19)
(1.72441 3.13348 -1.23598e-19)
(1.91219 3.38025 4.12276e-19)
(1.59121 2.77182 -3.86911e-19)
(1.74189 3.03153 -7.92662e-19)
(1.54467 2.46578 2.05513e-19)
(1.63562 2.72585 3.58227e-19)
(1.6412 2.47795 -1.0434e-19)
(1.6012 2.21194 -9.47933e-20)
(2.23852 4.20723 8.11912e-19)
(2.25646 4.17268 7.9145e-19)
(2.20662 4.22089 -2.28036e-18)
(2.16537 4.20791 -2.00577e-18)
(2.21566 4.23844 0)
(2.22001 4.20381 -1.74918e-18)
(2.24289 4.21081 -6.04217e-19)
(2.27865 4.1712 8.25047e-20)
(2.26493 4.11357 -2.30922e-19)
(2.34271 4.06458 2.02871e-19)
(2.23227 3.91825 5.78654e-19)
(2.37511 3.90779 5.05485e-19)
(2.11445 3.62749 1.16193e-19)
(2.3084 3.66613 3.28091e-19)
(1.9471 3.30584 -1.03932e-19)
(2.14233 3.3762 -1.31604e-19)
(1.79964 3.00942 -2.72992e-19)
(1.95641 3.08959 -3.39295e-19)
(1.73889 2.75532 1.20867e-19)
(1.83472 2.8354 3.19067e-19)
(1.83445 2.60199 1.58088e-19)
(1.76651 2.52535 6.14736e-21)
(2.28951 4.19106 -1.92249e-18)
(1.79868 3.17178 -6.48705e-18)
(2.33512 4.21206 -1.53761e-18)
(2.0285 3.24313 1.7337e-19)
(2.40127 4.1724 -1.58016e-18)
(2.17344 3.18684 6.42699e-19)
(2.46889 4.07188 1.0605e-18)
(2.29204 3.12967 -2.31329e-19)
(2.50789 3.91237 9.46823e-19)
(2.39763 3.08408 1.62068e-18)
(2.47782 3.70153 2.78538e-19)
(2.46033 3.05856 -8.16853e-19)
(2.35132 3.44043 1.78086e-19)
(2.43539 3.00765 6.63923e-19)
(2.16436 3.1704 -3.38541e-19)
(2.29461 2.89649 -2.41867e-19)
(2.00032 2.92757 6.71223e-20)
(2.11122 2.71862 -1.58657e-19)
(1.93639 2.70292 3.72574e-19)
(1.99653 2.52082 9.8047e-20)
(2.01239 2.27846 4.46094e-19)
(2.01655 2.4628 1.34796e-19)
(1.56938 2.38052 -3.89682e-18)
(2.034 0.85477 -2.50545e-19)
(1.76335 2.31005 1.62312e-18)
(1.88492 1.06108 -1.39585e-19)
(1.9001 2.26045 2.20037e-18)
(1.85348 1.08869 1.02801e-18)
(2.03403 2.25787 3.44954e-19)
(1.87684 1.13435 4.58573e-19)
(2.17365 2.32049 1.92636e-19)
(1.89678 1.24258 2.57399e-19)
(2.2917 2.41637 -6.28393e-19)
(1.91289 1.39003 -7.57696e-19)
(2.33444 2.47875 3.9019e-19)
(1.92565 1.53465 -1.6229e-19)
(2.2704 2.44559 -1.11282e-19)
(1.91755 1.62216 0)
(2.16451 2.32009 -3.39088e-19)
(1.88889 1.62584 2.35056e-19)
(2.12602 2.13121 -1.1939e-19)
(1.88189 1.55399 -4.66987e-19)
(1.95938 1.38147 -1.97534e-19)
(2.15672 1.89343 7.22374e-20)
(3.03651 3.47811 -7.89312e-19)
(1.05341 3.13682 -1.03289e-18)
(2.75463 2.38888 7.17741e-19)
(1.73034 2.78535 2.72636e-19)
(2.58104 1.6614 -1.78339e-20)
(2.05278 2.2028 -1.04866e-19)
(2.39745 1.15769 -4.66876e-21)
(2.11741 1.63815 -1.29267e-18)
(2.21437 0.807886 -1.25461e-19)
(2.07463 1.19463 1.50029e-19)
(2.04327 0.558228 -7.56181e-20)
(1.97836 0.853622 9.15076e-19)
(1.89033 0.372256 -9.58644e-20)
(1.86051 0.593767 -5.79256e-19)
(1.75888 0.228376 -2.60172e-20)
(1.74391 0.394602 1.63352e-19)
(1.6491 0.112986 -2.07355e-20)
(1.63918 0.239892 -1.84823e-20)
(1.55928 0.0171325 4.07409e-20)
(1.55023 0.117718 1.01951e-20)
(1.48013 0.0256834 3.20065e-20)
(1.48194 -0.0606519 8.88394e-21)
(0.250618 2.89237 -2.46926e-19)
(-0.851328 2.61354 -2.09832e-18)
(1.04467 2.71989 -3.06435e-19)
(0.22013 2.38227 -1.79544e-19)
(1.50566 2.20603 -1.17584e-18)
(0.719824 2.24699 0)
(1.71648 1.68149 -1.24231e-18)
(1.20298 1.9127 -1.25072e-18)
(1.78512 1.24079 9.6389e-19)
(1.47542 1.52684 2.18183e-19)
(1.76497 0.891741 6.38741e-19)
(1.58726 1.15556 2.62021e-19)
(1.69954 0.621374 -2.87667e-19)
(1.59588 0.841042 1.86223e-19)
(1.61875 0.414401 2.64059e-19)
(1.55677 0.588757 -5.12446e-20)
(1.53931 0.255144 5.37765e-20)
(1.50031 0.391142 4.74207e-20)
(1.46951 0.12862 -1.60776e-20)
(1.44049 0.237024 9.24223e-20)
(1.38574 0.122644 -6.83965e-20)
(1.40229 0.0226561 -1.37724e-20)
(-0.545269 2.04174 -2.09682e-18)
(-1.19075 1.92902 -1.71691e-18)
(-0.112935 2.11548 6.29663e-20)
(-0.397987 1.67622 -8.12033e-19)
(0.418428 2.05681 0)
(-0.0862305 1.81952 1.64879e-18)
(0.90756 1.82868 0)
(0.38115 1.75803 -1.23507e-18)
(1.23103 1.48296 -4.62793e-19)
(0.786708 1.56322 -8.02285e-19)
(1.39236 1.12823 -9.6404e-20)
(1.07968 1.29066 1.55675e-19)
(1.44087 0.824 4.16608e-19)
(1.2445 1.00458 6.04457e-19)
(1.43149 0.580687 -2.67925e-19)
(1.31069 0.742863 -3.87295e-19)
(1.39815 0.387173 8.08089e-20)
(1.31875 0.522066 0)
(1.3592 0.234746 9.02538e-20)
(1.30231 0.344943 -8.57716e-21)
(1.27471 0.213078 9.20832e-20)
(1.31583 0.11118 -3.90887e-20)
(-0.665499 1.3652 3.12812e-19)
(-1.12202 1.34242 1.00291e-18)
(-0.468818 1.49563 5.01927e-19)
(-0.484963 1.06337 -1.13399e-18)
(-0.142304 1.589 5.86761e-19)
(-0.391286 1.30175 1.60982e-18)
(0.242104 1.57308 -2.04951e-18)
(-0.0555411 1.36739 -1.04784e-18)
(0.610371 1.43197 -1.61488e-19)
(0.293226 1.34146 -1.72129e-19)
(0.904407 1.20662 8.04456e-19)
(0.613223 1.21705 4.16288e-19)
(1.09317 0.94994 -3.49554e-20)
(0.858212 1.02622 2.27752e-20)
(1.18684 0.705214 -1.52629e-19)
(1.01396 0.812097 3.33835e-20)
(1.21964 0.496819 -9.14151e-20)
(1.09761 0.605989 0)
(1.22121 0.327287 -3.46292e-20)
(1.13549 0.426878 6.79336e-20)
(1.13953 0.287648 1.59992e-20)
(1.19562 0.181297 -1.18335e-19)
(-0.623136 0.863227 1.37494e-18)
(-0.949373 0.894659 8.37384e-19)
(-0.521477 0.950255 -3.18383e-19)
(-0.422748 0.60187 -3.88755e-19)
(-0.309174 1.0884 1.42623e-19)
(-0.453373 0.838462 -4.87555e-19)
(-0.0372988 1.17921 7.22315e-19)
(-0.209936 0.946558 3.4128e-19)
(0.259833 1.17618 3.5207e-19)
(0.0469446 1.00757 4.61093e-19)
(0.537847 1.08162 -3.97408e-19)
(0.319892 0.991217 1.74015e-21)
(0.759896 0.922344 9.32068e-20)
(0.564845 0.903528 -7.72477e-19)
(0.911996 0.736464 1.9254e-19)
(0.753984 0.767145 6.20088e-19)
(1.00279 0.55454 1.50392e-19)
(0.883197 0.60911 -1.92361e-19)
(1.05211 0.390236 1.61531e-19)
(0.960969 0.454262 1.69151e-19)
(0.99459 0.325611 -2.03057e-19)
(1.06916 0.243524 -1.86123e-19)
(-0.511958 0.50986 -5.21955e-20)
(-0.747311 0.574104 1.98751e-20)
(-0.46334 0.543863 -5.28245e-19)
(-0.314934 0.279773 -8.29104e-20)
(-0.32765 0.676106 -4.91168e-19)
(-0.402425 0.483863 -4.77764e-19)
(-0.138013 0.793999 1.14428e-19)
(-0.220097 0.589363 1.89658e-19)
(0.0877118 0.856332 -2.80568e-21)
(-0.0390121 0.681838 3.3874e-20)
(0.323982 0.850373 -3.86427e-19)
(0.174062 0.721855 3.1072e-19)
(0.538791 0.77921 -2.63977e-19)
(0.386043 0.7049 -3.84903e-19)
(0.709441 0.663268 2.91648e-19)
(0.57112 0.63696 4.00602e-19)
(0.827874 0.529235 -2.13446e-19)
(0.717982 0.535599 -9.09357e-20)
(0.902208 0.394262 -7.06187e-20)
(0.817544 0.421184 0)
(0.868972 0.319547 -1.40675e-19)
(0.938194 0.263263 1.09991e-19)
(-0.373279 0.266583 0)
(-0.541362 0.352997 -9.60306e-20)
(-0.356893 0.254692 1.08265e-20)
(-0.198894 0.0591409 0)
(-0.267509 0.364843 -1.82981e-20)
(-0.309936 0.223122 4.82596e-20)
(-0.135244 0.478609 8.80313e-20)
(-0.160825 0.311464 -2.8206e-21)
(0.0316316 0.561149 2.70873e-19)
(-0.0356742 0.407989 1.42777e-19)
(0.219292 0.60034 3.88582e-19)
(0.127726 0.471041 4.83782e-20)
(0.406155 0.58869 1.80669e-19)
(0.300576 0.494195 2.1791e-19)
(0.56945 0.534508 -1.27098e-20)
(0.467162 0.475882 -9.15531e-20)
(0.697782 0.45105 1.11427e-19)
(0.610376 0.421886 -4.3191e-20)
(0.787824 0.354996 -5.40644e-20)
(0.71806 0.347378 5.42732e-20)
(0.781446 0.274347 -9.56254e-22)
(0.841356 0.256168 -3.82735e-20)
(-0.244692 0.0958268 -1.06616e-19)
(-0.363981 0.181171 4.18218e-19)
(-0.242825 0.0484785 4.47884e-20)
(-0.0941696 -0.100485 -3.45489e-19)
(-0.177499 0.134488 8.51058e-20)
(-0.210733 0.0267416 1.52168e-19)
(-0.0803383 0.234631 3.70233e-20)
(-0.0726217 0.0981425 1.38741e-19)
(0.0453668 0.316432 -3.79261e-20)
(0.0113913 0.188654 0)
(0.192552 0.373894 -1.14773e-19)
(0.140654 0.256982 -3.64697e-20)
(0.347033 0.396571 -6.72955e-20)
(0.280993 0.300409 -6.55031e-20)
(0.493525 0.383087 -8.66225e-20)
(0.423631 0.311893 0)
(0.617916 0.339215 -6.01196e-20)
(0.554531 0.292427 -7.74301e-20)
(0.71291 0.275657 1.13339e-19)
(0.661077 0.249689 -6.49442e-20)
(0.730146 0.201205 -8.4691e-21)
(0.774926 0.200418 1.5163e-20)
(-0.129196 -0.0390347 2.4541e-19)
(-0.204197 0.0422568 3.81847e-19)
(-0.130237 -0.109683 -4.05301e-19)
(0.00110706 -0.234728 6.61583e-20)
(-0.0825932 -0.0394533 2.14718e-19)
(-0.10618 -0.121605 8.03393e-20)
(-0.00216563 0.0439402 1.1662e-19)
(0.0192412 -0.0730087 -1.45306e-19)
(0.0956521 0.120403 5.47883e-21)
(0.0806599 0.0142704 -1.35778e-19)
(0.212748 0.183048 1.25327e-20)
(0.186401 0.0805083 3.82016e-20)
(0.340606 0.222121 -5.22891e-21)
(0.300933 0.132118 5.21014e-20)
(0.467861 0.23377 1.77992e-20)
(0.42194 0.160761 -3.70729e-20)
(0.582629 0.219211 -7.81312e-20)
(0.538761 0.164434 -9.31168e-21)
(0.676132 0.185566 -9.83815e-20)
(0.641471 0.145905 -6.9806e-21)
(0.715493 0.118541 -2.54518e-20)
(0.743967 0.142774 -1.49928e-20)
(-0.0242718 -0.152748 2.26688e-19)
(-0.0647167 -0.0565605 -2.27755e-21)
(-0.0245051 -0.241272 5.21322e-19)
(0.0919387 -0.357337 3.16922e-19)
(0.0166705 -0.178375 -3.20514e-19)
(0.00321112 -0.244797 -2.92456e-20)
(0.0820212 -0.108006 -4.00163e-19)
(0.112842 -0.207173 -2.52675e-19)
(0.163414 -0.0370119 -1.08375e-19)
(0.160395 -0.128049 -2.6238e-19)
(0.259727 0.0250178 8.04234e-20)
(0.248561 -0.0641328 3.22245e-20)
(0.366457 0.0713888 2.99768e-20)
(0.343476 -0.00950622 1.35734e-19)
(0.476371 0.0974209 -4.20575e-20)
(0.446262 0.0282806 -1.92021e-19)
(0.580709 0.101607 2.18327e-20)
(0.549524 0.0459344 4.44406e-20)
(0.672137 0.0865192 6.80145e-20)
(0.646716 0.0425293 1.60933e-20)
(0.723596 0.0258327 0)
(0.747137 0.056722 0)
(0.102999 -0.247044 5.20444e-20)
(0.0509914 -0.123208 1.25611e-19)
(0.082531 -0.348421 -1.04657e-19)
(0.19676 -0.431786 -3.77911e-19)
(0.119264 -0.291624 0)
(0.114593 -0.347097 3.0092e-19)
(0.17294 -0.230931 -1.13039e-19)
(0.206145 -0.312684 1.89387e-19)
(0.240077 -0.164533 -1.39294e-19)
(0.245618 -0.241219 -2.98571e-19)
(0.320119 -0.104372 7.04563e-20)
(0.319101 -0.180996 0)
(0.40981 -0.0552039 -4.03771e-20)
(0.397785 -0.126036 7.89844e-20)
(0.504592 -0.0217417 -1.17064e-19)
(0.484554 -0.0839497 6.1998e-20)
(0.598616 -0.00721109 2.82561e-20)
(0.574345 -0.0587895 -3.79501e-20)
(0.686732 -0.012245 -6.71657e-20)
(0.664083 -0.0540894 -1.25196e-19)
(0.742995 -0.0660085 6.92502e-20)
(0.765987 -0.0329444 -1.22894e-19)
(0.207418 -0.309621 -2.62699e-19)
(0.156226 -0.17757 7.86396e-20)
(0.187409 -0.42857 -1.32953e-19)
(0.29431 -0.497525 -1.80689e-19)
(0.218742 -0.381919 5.03211e-19)
(0.219783 -0.426754 3.02485e-19)
(0.264022 -0.327906 6.80986e-20)
(0.298617 -0.395441 1.90314e-19)
(0.320389 -0.26624 -1.9282e-19)
(0.33163 -0.330031 -1.0855e-19)
(0.386757 -0.208465 0)
(0.392955 -0.272814 -2.08829e-19)
(0.461459 -0.158759 1.9001e-19)
(0.457204 -0.218785 1.61884e-19)
(0.541758 -0.122022 1.47655e-19)
(0.528703 -0.175206 3.2329e-19)
(0.624351 -0.102537 -1.82103e-19)
(0.604003 -0.146878 -1.65423e-19)
(0.706184 -0.102344 -3.73688e-20)
(0.683129 -0.138465 1.30006e-19)
(0.756126 -0.148709 -3.4066e-20)
(0.788031 -0.116191 6.5737e-19)
(0.311223 -0.360471 1.87401e-19)
(0.262771 -0.22087 -6.18023e-19)
(0.287782 -0.49135 1.23126e-19)
(0.396332 -0.548506 4.31981e-19)
(0.31525 -0.452439 0)
(0.321259 -0.489231 3.77142e-19)
(0.35377 -0.402862 5.7438e-20)
(0.390235 -0.458952 -2.61439e-19)
(0.400818 -0.344759 -1.16656e-19)
(0.416726 -0.397517 -2.11015e-20)
(0.455072 -0.289184 -8.98894e-20)
(0.466881 -0.342181 -7.61307e-20)
(0.51542 -0.23994 2.78012e-19)
(0.51751 -0.288949 1.62431e-19)
(0.58058 -0.202453 7.48153e-20)
(0.573498 -0.245253 6.2961e-20)
(0.649307 -0.181972 9.78606e-20)
(0.632488 -0.216599 -1.27258e-19)
(0.721959 -0.182486 1.23874e-19)
(0.697323 -0.209503 9.78757e-20)
(0.757995 -0.221596 -6.56529e-20)
(0.795794 -0.209594 -7.99265e-20)
(0.4238 -0.393734 -3.14129e-19)
(0.375202 -0.229111 -5.03102e-20)
(0.391401 -0.536844 6.88217e-19)
(0.500303 -0.572828 -6.06045e-19)
(0.411487 -0.504946 1.44838e-19)
(0.422 -0.531051 7.08943e-19)
(0.442415 -0.458444 -3.66125e-19)
(0.480869 -0.503073 -2.61728e-19)
(0.480164 -0.402514 2.79061e-20)
(0.50098 -0.445024 -2.59892e-19)
(0.522549 -0.348155 1.47705e-19)
(0.539955 -0.390557 2.6964e-19)
(0.568438 -0.29933 -4.1546e-20)
(0.577126 -0.337599 1.25939e-20)
(0.617231 -0.262344 -1.17574e-19)
(0.616931 -0.294233 -1.10596e-19)
(0.669285 -0.243662 -1.70418e-19)
(0.657726 -0.267155 1.40436e-20)
(0.72739 -0.247802 -7.52645e-20)
(0.705276 -0.264571 -1.14228e-19)
(0.752213 -0.286885 -5.27609e-20)
(0.797465 -0.2729 2.28748e-20)
(0.527563 -0.404094 -2.82614e-19)
(0.48375 -0.234339 6.09411e-19)
(0.491759 -0.561943 -8.00866e-19)
(0.598225 -0.583008 -9.2959e-19)
(0.506182 -0.538611 3.65776e-19)
(0.520783 -0.556031 3.31326e-19)
(0.530089 -0.494838 -1.55684e-19)
(0.569768 -0.529177 0)
(0.558849 -0.440231 -6.70621e-20)
(0.584557 -0.473485 -1.86184e-19)
(0.589355 -0.386202 1.6176e-19)
(0.612329 -0.418651 1.07189e-19)
(0.62036 -0.337646 -4.26761e-20)
(0.636086 -0.365218 -1.46894e-22)
(0.651603 -0.302134 8.43133e-21)
(0.65904 -0.32222 -2.5619e-20)
(0.684887 -0.287634 9.09159e-20)
(0.68048 -0.298283 8.85492e-20)
(0.724702 -0.300258 -9.95109e-20)
(0.708 -0.302783 -6.53897e-21)
(0.741763 -0.338941 -8.88953e-20)
(0.77968 -0.33558 -7.10892e-20)
(0.629175 -0.402342 -5.07226e-20)
(0.593024 -0.229536 -8.39428e-19)
(0.589866 -0.57066 -8.72167e-21)
(0.695924 -0.577553 3.4669e-19)
(0.599224 -0.55511 0)
(0.620245 -0.564992 0)
(0.616664 -0.513282 -1.12492e-20)
(0.658501 -0.53843 0)
(0.636857 -0.458843 -3.9793e-20)
(0.668126 -0.483694 -1.25295e-20)
(0.655612 -0.403924 -4.33439e-20)
(0.684747 -0.426988 9.81079e-21)
(0.671455 -0.35498 1.98687e-20)
(0.695062 -0.371939 -1.26444e-20)
(0.684415 -0.321436 4.20991e-20)
(0.700804 -0.32899 -1.61593e-19)
(0.697827 -0.313141 7.37133e-21)
(0.702661 -0.309381 -1.12913e-19)
(0.718623 -0.3378 1.47894e-20)
(0.70935 -0.324018 1.6604e-19)
(0.729856 -0.37923 5.80167e-20)
(0.760344 -0.382891 -1.20781e-18)
(0.734521 -0.387389 -4.7498e-19)
(0.703086 -0.205105 -7.89755e-19)
(0.690468 -0.562884 3.88955e-19)
(0.795617 -0.551271 4.2495e-19)
(0.693635 -0.554719 0)
(0.722113 -0.554927 0)
(0.704105 -0.514106 0)
(0.749112 -0.529507 1.55919e-19)
(0.715548 -0.458574 3.44174e-20)
(0.753353 -0.474963 -1.20385e-19)
(0.722517 -0.401389 4.25913e-20)
(0.758939 -0.41514 3.84056e-20)
(0.723072 -0.351152 -1.77805e-19)
(0.75576 -0.357217 0)
(0.717661 -0.319711 -3.21969e-19)
(0.744376 -0.313777 1.34977e-19)
(0.71143 -0.319458 1.49784e-20)
(0.727336 -0.299311 -2.0784e-19)
(0.714658 -0.360396 2.20179e-19)
(0.714743 -0.327246 -2.35264e-20)
(0.723944 -0.405468 2.33231e-19)
(0.742996 -0.438887 3.51864e-20)
(0.840318 -0.354071 6.59206e-20)
(0.813597 -0.165996 1.09506e-19)
(0.793318 -0.535478 8.19254e-20)
(0.897375 -0.50512 -8.70605e-20)
(0.790693 -0.53547 1.39151e-19)
(0.827132 -0.524601 -5.75018e-21)
(0.794339 -0.496008 6.6087e-20)
(0.843557 -0.500816 -2.26756e-20)
(0.797029 -0.438432 -1.3277e-19)
(0.84246 -0.445643 -5.94021e-20)
(0.792261 -0.377679 0)
(0.837434 -0.381528 -4.58034e-20)
(0.777676 -0.325147 2.96648e-19)
(0.820936 -0.319431 0)
(0.754564 -0.295672 2.83948e-19)
(0.793166 -0.274777 -1.95905e-20)
(0.730296 -0.304705 -2.66562e-19)
(0.759181 -0.265599 4.02572e-19)
(0.71827 -0.363724 -3.77496e-20)
(0.731651 -0.307902 -1.8106e-19)