/*--------------------------------*- C++ -*----------------------------------*\
| =========                 |                                                 |
| \\      /  F ield         | OpenFOAM: The Open Source CFD Toolbox           |
|  \\    /   O peration     | Version:  3.0.1                                 |
|   \\  /    A nd           | Web:      www.OpenFOAM.org                      |
|    \\/     M anipulation  |                                                 |
\*---------------------------------------------------------------------------*/
FoamFile
{
    version     2.0;
    format      ascii;
    class       volVectorField;
    location    "0.450325";
    object      U;
}
// * * * * * * * * * * * * * * * * * * * * * * * * * * * * * * * * * * * * * //

dimensions      [0 1 -1 0 0 0 0];

internalField   nonuniform List<vector> 
21246
(
(4.52077 3.02392 -4.444e-19)
(3.35935 2.03259 -5.83405e-19)
(3.00166 1.80531 -1.7484e-20)
(2.59282 1.43103 4.77164e-19)
(2.27528 1.10698 0)
(2.0488 0.840656 0)
(1.88607 0.630881 -8.32867e-20)
(1.76737 0.468618 6.29914e-20)
(1.68016 0.343348 1.80118e-20)
(1.61665 0.247492 -1.3545e-20)
(1.57077 0.18145 1.81037e-20)
(4.32716 1.53025 -7.25714e-20)
(2.9343 0.0751937 -4.95975e-18)
(3.37316 0.535142 3.89058e-18)
(3.10835 0.589046 0)
(2.74415 0.565606 -4.63724e-19)
(2.42048 0.500257 4.97182e-19)
(2.15675 0.406232 -8.8828e-20)
(1.95801 0.31044 -1.8684e-21)
(1.81258 0.226112 0)
(1.70672 0.158051 0)
(1.63069 0.112143 -2.31224e-21)
(2.87389 0.751708 -8.16748e-18)
(1.94602 -0.829954 -3.11205e-18)
(2.95671 -0.432676 7.06031e-18)
(2.97378 -0.314473 1.01816e-18)
(2.81616 -0.145157 -1.32484e-18)
(2.57516 -0.00863655 3.87839e-19)
(2.31813 0.0557907 -3.07948e-19)
(2.0912 0.0699838 0)
(1.91042 0.0572045 0)
(1.77316 0.0371015 0)
(1.67334 0.0264497 0)
(1.52831 0.7324 1.81109e-18)
(1.17574 -0.842125 0)
(2.27188 -0.842242 0)
(2.44508 -0.887332 1.89722e-18)
(2.54138 -0.723627 -4.00675e-18)
(2.4657 -0.505581 4.88774e-18)
(2.30254 -0.33632 -2.54225e-18)
(2.11661 -0.219536 1.26437e-18)
(1.94371 -0.15094 -1.31687e-19)
(1.79944 -0.11049 1.60614e-20)
(1.68573 -0.0738407 3.85992e-19)
(0.639187 1.0514 -1.7606e-18)
(0.664416 -0.456307 0)
(1.61724 -0.822827 -7.89262e-18)
(1.85945 -1.0721 1.01679e-17)
(2.11288 -1.02615 -4.58549e-18)
(2.17912 -0.85113 -1.58952e-18)
(2.13214 -0.659032 2.10424e-18)
(2.02625 -0.490369 -1.14027e-18)
(1.89784 -0.362594 0)
(1.77328 -0.270135 -3.25073e-19)
(1.66522 -0.191667 1.13547e-19)
(0.0805573 1.46203 -2.52648e-18)
(0.316158 0.0178455 0)
(1.09624 -0.592601 1.50785e-18)
(1.36974 -0.99969 3.81727e-18)
(1.68598 -1.09131 -2.93376e-18)
(1.83448 -1.01108 0)
(1.88184 -0.859524 0)
(1.85617 -0.689202 -7.7393e-19)
(1.78606 -0.538786 0)
(1.69844 -0.415852 1.47741e-19)
(1.61236 -0.30792 7.17181e-19)
(-0.270375 1.92152 0)
(0.0766857 0.504899 0)
(0.706057 -0.273344 -2.26649e-18)
(0.996744 -0.798302 3.38533e-18)
(1.32566 -1.01078 -4.73621e-18)
(1.51327 -1.02754 9.85295e-19)
(1.61861 -0.940063 -5.2337e-20)
(1.65436 -0.803973 -2.10224e-18)
(1.63754 -0.658389 1.76807e-18)
(1.58966 -0.528163 -6.22791e-19)
(1.53304 -0.404348 -6.40401e-19)
(-0.455336 2.39912 -3.35106e-18)
(-0.078528 0.987065 3.07496e-18)
(0.424888 0.0886861 -9.48847e-19)
(0.723785 -0.534782 0)
(1.04427 -0.851107 1.11315e-18)
(1.24714 -0.955319 7.77204e-19)
(1.38261 -0.933045 1.04506e-18)
(1.45643 -0.841669 1.35778e-18)
(1.47993 -0.721585 0)
(1.46698 -0.601276 4.97858e-19)
(1.43655 -0.476766 -1.67009e-18)
(-0.536926 2.84357 6.5042e-19)
(-0.189839 1.45516 -5.64272e-19)
(0.229502 0.471253 0)
(0.52932 -0.23887 0)
(0.832881 -0.647984 8.28959e-19)
(1.03927 -0.831578 1.23997e-18)
(1.18797 -0.870843 -9.5316e-19)
(1.28257 -0.825311 0)
(1.33198 -0.736689 1.56073e-18)
(1.34491 -0.635131 -6.01896e-20)
(1.339 -0.520395 1.30897e-18)
(-0.549091 3.25899 -4.22499e-20)
(-0.268996 1.91056 -8.77007e-19)
(0.0914993 0.868247 6.62633e-19)
(0.386006 0.0797012 4.9615e-19)
(0.672419 -0.416771 -9.90193e-20)
(0.879045 -0.676451 -1.09449e-18)
(1.03322 -0.774935 7.68246e-19)
(1.13863 -0.774181 -5.57619e-20)
(1.20365 -0.718385 -7.79695e-19)
(1.23386 -0.639426 -4.23499e-20)
(1.24652 -0.540578 -6.94561e-19)
(-0.507965 3.66252 0)
(-0.317178 2.36255 0)
(-0.00265355 1.27982 0)
(0.277967 0.41852 0)
(0.548102 -0.163071 -3.48203e-19)
(0.754088 -0.499018 2.86953e-19)
(0.911124 -0.656988 0)
(1.02274 -0.700635 -5.23483e-19)
(1.09757 -0.677644 -3.28211e-19)
(1.13993 -0.622189 0)
(1.16617 -0.54215 2.91647e-19)
(-0.435433 4.03449 -2.87698e-19)
(-0.34395 2.79264 1.71459e-19)
(-0.0630687 1.69082 -3.09608e-19)
(0.197396 0.768176 1.90397e-19)
(0.450949 0.107148 0)
(0.654838 -0.30404 5.32384e-19)
(0.813778 -0.522459 -1.59193e-19)
(0.929923 -0.611231 -2.13437e-19)
(1.01162 -0.621276 4.86219e-19)
(1.06263 -0.589421 1.99503e-19)
(1.0993 -0.527911 -4.37624e-19)
(-0.354269 4.33217 5.64871e-20)
(-0.359893 3.17737 0)
(-0.106677 2.08997 5.99381e-20)
(0.130414 1.12573 0)
(0.368215 0.394647 3.04229e-20)
(0.570026 -0.0900129 -1.46902e-19)
(0.731774 -0.370919 7.07638e-20)
(0.853203 -0.507414 -9.54916e-20)
(0.94146 -0.552296 7.26128e-20)
(0.999725 -0.545225 9.0547e-20)
(1.04307 -0.503944 -6.7846e-20)
(-0.273409 4.54182 -2.88453e-21)
(-0.365384 3.519 -7.55164e-20)
(-0.14338 2.48728 -5.28241e-20)
(0.0680864 1.50419 -1.51093e-19)
(0.290507 0.711731 2.7762e-20)
(0.490358 0.153378 -8.75502e-20)
(0.65643 -0.194947 1.59629e-20)
(0.785305 -0.384962 0)
(0.881955 -0.469318 3.73753e-21)
(0.949189 -0.490283 -2.81902e-21)
(1.0013 -0.471568 -4.30844e-22)
(-0.201983 4.66902 2.00764e-19)
(-0.358359 3.80878 1.37551e-19)
(-0.169022 2.87639 -4.10509e-21)
(0.0143299 1.90364 7.8086e-20)
(0.219784 1.06271 1.05803e-19)
(0.415372 0.433053 -8.0734e-20)
(0.584871 0.013338 0)
(0.721913 -0.236951 7.71869e-20)
(0.828736 -0.367403 -5.84933e-20)
(0.906981 -0.421675 -2.89805e-19)
(0.969492 -0.428684 -9.62312e-20)
(-0.130953 4.72271 -1.88008e-19)
(-0.327841 4.03835 1.41107e-19)
(-0.174626 3.24341 0)
(-0.0246471 2.32024 0)
(0.158477 1.45215 0)
(0.344825 0.757423 0)
(0.514605 0.26415 0)
(0.658951 -0.05291 0)
(0.777205 -0.23747 0)
(0.869099 -0.332674 2.89465e-19)
(0.944517 -0.371242 1.84796e-20)
(-0.0539294 4.74619 -7.45731e-19)
(-0.267145 4.21689 2.75371e-19)
(-0.151898 3.57152 -1.96731e-19)
(-0.0411829 2.74253 1.59562e-21)
(0.110108 1.88171 2.02891e-19)
(0.278443 1.13696 0)
(0.442732 0.57196 0)
(0.592027 0.182758 0)
(0.7223 -0.0649342 0)
(0.830257 -0.211235 2.2867e-19)
(0.922574 -0.290841 -2.81114e-20)
(0.0208504 4.75694 -7.36014e-19)
(-0.19001 4.34924 1.05668e-18)
(-0.104274 3.84175 -3.91103e-19)
(-0.0318146 3.14112 2.49506e-19)
(0.0791501 2.336 -7.71581e-19)
(0.218497 1.57348 1.41223e-20)
(0.369176 0.949913 1.54408e-19)
(0.519097 0.488932 -2.60855e-19)
(0.66057 0.170433 0)
(0.786324 -0.0389077 0)
(0.89874 -0.17233 -2.96954e-19)
(0.0944755 4.76694 3.91816e-19)
(-0.107238 4.44916 -5.23975e-19)
(-0.0425959 4.05558 7.73621e-19)
(-0.00231479 3.49421 -2.86177e-19)
(0.0656653 2.79257 3.83239e-19)
(0.167668 2.06238 1.06468e-18)
(0.296586 1.41128 3.30587e-19)
(0.441619 0.889147 1.82642e-19)
(0.591368 0.496344 -2.65858e-19)
(0.73397 0.212512 3.72682e-20)
(0.869392 0.0106189 -3.47991e-19)
(0.170881 4.78459 7.84966e-19)
(-0.0260876 4.53104 -1.13625e-18)
(0.0184913 4.22691 4.15464e-19)
(0.0312242 3.79843 5.57506e-19)
(0.0617714 3.23393 -8.26952e-19)
(0.128471 2.59329 -5.49129e-19)
(0.233624 1.96347 -3.29992e-19)
(0.368811 1.40625 -8.33379e-19)
(0.520333 0.94541 -1.83512e-19)
(0.673334 0.581121 5.0602e-19)
(0.828704 0.298169 -1.82532e-19)
(0.253506 4.80221 0)
(0.0363335 4.59419 5.99932e-19)
(0.0534572 4.36328 -8.83512e-19)
(0.0430745 4.06451 0)
(0.056323 3.65928 0)
(0.108228 3.15569 0)
(0.199863 2.60158 -2.63803e-19)
(0.323198 2.05138 7.55096e-20)
(0.465656 1.546 2.46508e-19)
(0.614189 1.1099 -2.48339e-19)
(0.768478 0.747068 1.34317e-19)
(0.21993 4.70459 0)
(0.0240232 4.58171 9.98978e-19)
(0.0251906 4.45526 4.33545e-19)
(0.0268147 4.30389 -1.03942e-18)
(0.0647325 4.05961 4.35194e-19)
(0.135529 3.70936 -5.16373e-19)
(0.229347 3.27261 3.76194e-19)
(0.339032 2.78294 2.18837e-19)
(0.458577 2.28332 0)
(0.585627 1.81225 3.87831e-19)
(0.736006 1.3793 0)
(0.19502 4.78651 0)
(0.114213 4.61688 4.14666e-19)
(0.144375 4.52491 0)
(0.198534 4.4366 5.61279e-19)
(0.288378 4.2905 -5.05049e-19)
(0.380393 4.07497 -7.98248e-19)
(0.464941 3.78248 1.01676e-18)
(0.53875 3.42288 -2.44047e-19)
(0.604871 3.02134 1.24764e-19)
(0.664246 2.61257 -1.35985e-19)
(0.762816 2.15291 -2.51872e-19)
(0.289744 3.05261 1.56093e-18)
(0.262458 3.05622 -2.83665e-18)
(0.420374 3.00617 2.26554e-18)
(0.559957 2.97944 -9.68426e-19)
(0.673735 2.96005 8.07803e-19)
(0.757787 2.95471 -2.76305e-19)
(0.82325 2.95467 0)
(0.882498 2.93751 4.73936e-19)
(0.946054 2.84923 -4.31791e-19)
(1.00782 2.70515 -4.83394e-20)
(1.06986 2.42159 3.93918e-20)
(1.46616 4.15372 -7.49907e-19)
(1.13232 3.3619 4.43383e-19)
(1.40932 2.4521 -7.23014e-20)
(1.56136 1.80939 -2.1476e-18)
(1.6115 1.35276 2.75223e-18)
(1.61174 1.01641 -5.70769e-19)
(1.58677 0.764067 0)
(1.55601 0.572428 0)
(1.52887 0.425484 0)
(1.50796 0.313484 -9.56639e-20)
(1.49191 0.233947 9.80197e-20)
(-1.97495 1.71208 1.02418e-18)
(-0.628277 2.19948 5.17561e-18)
(0.0418437 2.1707 -3.39095e-18)
(0.59489 1.84993 3.67328e-18)
(0.940291 1.48655 -2.8992e-18)
(1.15071 1.15844 -9.02641e-19)
(1.26639 0.883852 0)
(1.32937 0.662965 0)
(1.36498 0.491251 -1.02785e-19)
(1.38623 0.361522 -1.86273e-20)
(1.39785 0.270655 -1.64669e-19)
(-2.26598 0.77007 1.14291e-18)
(-1.20435 0.964878 -1.15465e-18)
(-0.887566 1.23153 -1.26934e-18)
(-0.300664 1.36139 -2.79646e-18)
(0.237446 1.31918 3.68451e-18)
(0.645234 1.13414 -4.3766e-19)
(0.916259 0.90569 -1.85022e-18)
(1.08001 0.693145 -3.18264e-19)
(1.18345 0.518388 1.52618e-18)
(1.2527 0.383334 -4.83216e-19)
(1.29887 0.28839 0)
(-2.01274 0.0787304 5.00507e-19)
(-0.991309 0.159061 1.22776e-18)
(-1.04834 0.468642 1.25202e-18)
(-0.671301 0.698993 1.02998e-19)
(-0.272516 0.829677 0)
(0.131046 0.841173 -6.18137e-19)
(0.482071 0.75879 8.45553e-19)
(0.758759 0.630658 -4.71892e-19)
(0.952511 0.493228 -1.04511e-18)
(1.08655 0.371479 2.61249e-19)
(1.17286 0.281421 2.64233e-19)
(-1.59243 -0.363893 -5.0343e-20)
(-0.674789 -0.388342 -4.02831e-19)
(-0.910361 -0.122231 0)
(-0.653574 0.129419 0)
(-0.39109 0.334642 1.42601e-18)
(-0.0776594 0.459916 6.63227e-19)
(0.236537 0.493678 7.00968e-19)
(0.517783 0.456254 -1.38379e-18)
(0.744271 0.38302 4.85943e-19)
(0.91845 0.302133 1.62443e-19)
(1.0416 0.236275 -3.67026e-19)
(-1.17938 -0.61857 -1.16294e-19)
(-0.380496 -0.72308 0)
(-0.682067 -0.526354 0)
(-0.496112 -0.301773 0)
(-0.346674 -0.092473 -9.41154e-19)
(-0.124076 0.0779172 0)
(0.126967 0.186585 4.74091e-19)
(0.378218 0.23013 8.23681e-19)
(0.602258 0.224512 1.29791e-18)
(0.788226 0.192881 -3.02413e-19)
(0.924767 0.159821 0)
(-0.817685 -0.745931 0)
(-0.130398 -0.912048 2.48321e-20)
(-0.442729 -0.779308 -1.35273e-19)
(-0.287795 -0.589968 1.56064e-21)
(-0.218815 -0.40693 4.34928e-19)
(-0.067555 -0.231489 -8.9376e-20)
(0.117852 -0.0923116 -2.7626e-19)
(0.321743 -0.000294405 -9.31339e-20)
(0.519544 0.0472304 -8.94187e-19)
(0.697437 0.0619369 2.33266e-19)
(0.834929 0.0648582 0)
(-0.518269 -0.807495 1.56977e-19)
(0.0618884 -1.01759 -1.27081e-19)
(-0.229192 -0.935814 2.07639e-19)
(-0.0807118 -0.771967 -5.48663e-22)
(-0.0660869 -0.622795 -7.20539e-22)
(0.0408479 -0.460551 -4.28397e-20)
(0.16956 -0.315457 2.09408e-19)
(0.325439 -0.201775 1.33404e-19)
(0.488407 -0.123062 9.96399e-20)
(0.64464 -0.0764684 1.51882e-19)
(0.77171 -0.0489816 1.10895e-19)
(-0.262476 -0.842266 -3.19955e-19)
(0.213863 -1.08814 1.74522e-19)
(-0.0451601 -1.02725 -2.46752e-19)
(0.110131 -0.893288 6.08672e-21)
(0.0814387 -0.766232 6.09229e-21)
(0.165163 -0.621962 -7.28817e-21)
(0.252532 -0.483091 -7.92634e-20)
(0.366472 -0.362296 1.02683e-20)
(0.493177 -0.267637 -2.3302e-20)
(0.62213 -0.20068 -6.74211e-20)
(0.729031 -0.153546 -1.5014e-19)
(-0.0505866 -0.857415 8.63671e-19)
(0.364337 -1.14665 -3.55468e-19)
(0.120026 -1.0799 3.23894e-19)
(0.266856 -0.977535 7.78524e-20)
(0.227501 -0.861612 -6.68166e-20)
(0.290179 -0.732397 0)
(0.34755 -0.603489 -2.80636e-21)
(0.428551 -0.4835 -1.6954e-20)
(0.522357 -0.381846 9.94392e-21)
(0.622721 -0.304047 1.81192e-21)
(0.705931 -0.247352 -1.50288e-21)
(0.104723 -0.849964 -7.49986e-19)
(0.505771 -1.17822 -5.5992e-20)
(0.283191 -1.11341 0)
(0.407666 -1.02769 0)
(0.364578 -0.923153 6.54389e-20)
(0.410822 -0.805947 0)
(0.445732 -0.686509 -7.72917e-21)
(0.501023 -0.570609 4.48043e-20)
(0.566457 -0.467715 -2.57003e-20)
(0.63984 -0.385428 1.42847e-21)
(0.701948 -0.325883 -3.85809e-21)
(0.230859 -0.825931 -7.06386e-19)
(0.63085 -1.17929 4.27357e-19)
(0.427867 -1.12914 0)
(0.537476 -1.05293 0)
(0.491476 -0.958312 0)
(0.52543 -0.850861 -1.21411e-19)
(0.543119 -0.739805 -6.9807e-20)
(0.578185 -0.628991 9.54718e-20)
(0.61982 -0.527671 0)
(0.66937 -0.44379 0)
(0.714719 -0.381931 -3.53839e-20)
(0.345675 -0.793886 0)
(0.750089 -1.16581 -3.98449e-19)
(0.556086 -1.12935 4.20745e-19)
(0.657806 -1.05915 -5.31995e-19)
(0.608495 -0.972453 6.20487e-19)
(0.63341 -0.872693 -1.1909e-19)
(0.637519 -0.768891 2.63403e-19)
(0.656654 -0.663235 -9.5091e-20)
(0.678889 -0.564741 -1.19324e-19)
(0.707221 -0.480913 -8.51046e-20)
(0.732043 -0.41892 4.18351e-20)
(0.458751 -0.743333 8.11413e-19)
(0.866242 -1.13131 0)
(0.677176 -1.11412 0)
(0.76971 -1.04942 0)
(0.717822 -0.969432 -2.01857e-19)
(0.734843 -0.876004 0)
(0.728092 -0.77848 -7.35504e-19)
(0.73444 -0.677809 2.68053e-19)
(0.741233 -0.582637 0)
(0.753057 -0.499623 1.75358e-19)
(0.766733 -0.436115 0)
(0.559482 -0.674694 3.76226e-19)
(0.965185 -1.08042 -3.23601e-19)
(0.788995 -1.08441 -4.36137e-19)
(0.87121 -1.0254 0)
(0.821162 -0.950997 0)
(0.829628 -0.862965 -1.15766e-18)
(0.81505 -0.770734 7.84796e-19)
(0.810568 -0.675119 -5.27484e-19)
(0.805462 -0.584006 1.84331e-19)
(0.804467 -0.503444 -4.34825e-19)
(0.810511 -0.440199 0)
(0.654052 -0.601335 1.22641e-18)
(1.05244 -1.01764 -9.19328e-19)
(0.893526 -1.04237 8.85426e-19)
(0.964041 -0.98935 -6.27041e-19)
(0.918437 -0.919497 -4.45123e-19)
(0.918247 -0.83613 5.67716e-19)
(0.897842 -0.748504 3.72741e-19)
(0.884035 -0.658133 0)
(0.869698 -0.571898 0)
(0.859379 -0.495454 8.84357e-19)
(0.860656 -0.433594 0)
(0.745512 -0.520271 -1.66239e-18)
(1.13406 -0.940153 -5.08371e-19)
(0.994053 -0.986808 4.77718e-19)
(1.05071 -0.941423 6.40944e-19)
(1.0101 -0.875828 -8.54072e-19)
(1.00113 -0.796736 1.87229e-18)
(0.975729 -0.71354 -4.76665e-19)
(0.953724 -0.628925 -8.14574e-19)
(0.932095 -0.548766 3.90418e-19)
(0.915825 -0.47827 -4.51612e-19)
(0.909641 -0.422957 0)
(0.829525 -0.427155 0)
(1.20759 -0.845352 6.30981e-19)
(1.08874 -0.915379 -8.89001e-19)
(1.13161 -0.880128 6.90298e-19)
(1.09566 -0.819474 -8.54414e-19)
(1.07797 -0.744975 6.69693e-19)
(1.04748 -0.666828 0)
(1.01807 -0.589051 0)
(0.990268 -0.516623 0)
(0.969612 -0.453997 8.79419e-19)
(0.961212 -0.40576 -3.1898e-19)
(0.905942 -0.323282 1.40269e-18)
(1.27265 -0.732025 6.33293e-19)
(1.1764 -0.825227 -9.82068e-19)
(1.20628 -0.802742 -6.47021e-19)
(1.1737 -0.748702 4.69268e-19)
(1.14736 -0.680252 -5.9978e-19)
(1.11118 -0.608921 0)
(1.07512 -0.539817 -5.1818e-19)
(1.04232 -0.476898 0)
(1.01837 -0.42331 -3.26578e-20)
(1.00682 -0.383958 -3.12534e-19)
(0.975616 -0.207599 2.41831e-18)
(1.33062 -0.59594 -2.40518e-18)
(1.25664 -0.710654 1.01801e-18)
(1.27357 -0.704059 -5.92259e-19)
(1.24187 -0.660065 9.81731e-19)
(1.20679 -0.601169 6.32663e-19)
(1.16445 -0.540143 0)
(1.12289 -0.482506 4.44903e-20)
(1.08652 -0.43099 3.9873e-21)
(1.05998 -0.387386 2.39282e-19)
(1.04485 -0.356366 3.01825e-19)
(1.03389 -0.0743765 0)
(1.37898 -0.428863 3.76373e-19)
(1.32505 -0.561809 0)
(1.32837 -0.575245 -1.30376e-18)
(1.29471 -0.547613 1.8383e-18)
(1.25162 -0.504902 -6.43295e-19)
(1.20408 -0.459887 0)
(1.1594 -0.417488 2.87354e-19)
(1.12178 -0.379112 -6.36119e-19)
(1.09389 -0.345384 -4.05977e-19)
(1.07364 -0.321555 -2.58592e-19)
(1.08445 0.0804806 -1.54668e-18)
(1.4159 -0.221667 1.85739e-19)
(1.37673 -0.367105 -1.01552e-18)
(1.3655 -0.406162 5.88345e-19)
(1.32839 -0.404445 -8.39517e-19)
(1.28051 -0.387347 1.02352e-18)
(1.23133 -0.365647 -3.9383e-19)
(1.18747 -0.342735 2.48968e-19)
(1.15167 -0.319026 -1.42425e-19)
(1.12443 -0.294482 2.06717e-19)
(1.1015 -0.273515 3.90362e-19)
(1.02683 0.290689 4.04836e-19)
(1.37787 0.0604169 -1.44249e-19)
(1.35209 -0.0989216 1.07331e-18)
(1.33183 -0.173213 -5.73528e-19)
(1.30102 -0.2081 0)
(1.2628 -0.225931 1.50741e-19)
(1.22524 -0.234572 -4.00372e-20)
(1.19332 -0.235649 0)
(1.16809 -0.229062 -1.5863e-19)
(1.14827 -0.214449 2.43937e-19)
(1.13036 -0.189563 -1.28724e-19)
(1.2322 0.415298 -3.62653e-18)
(1.5321 0.400588 2.06554e-18)
(1.46908 0.272804 7.58163e-20)
(1.40628 0.190985 0)
(1.35192 0.137116 0)
(1.30071 0.0977365 -5.14946e-19)
(1.25718 0.0690783 7.51649e-20)
(1.22741 0.0556279 1.77812e-19)
(1.21156 0.085108 3.82321e-20)
(1.21014 0.150906 4.24795e-20)
(1.22304 0.281867 1.90579e-20)
(4.43487 -1.09048 3.29994e-19)
(4.36294 -0.944323 5.16548e-20)
(4.33753 -0.829581 -1.98242e-19)
(4.29583 -0.698024 -4.47328e-20)
(4.23509 -0.57131 -1.0238e-19)
(4.15607 -0.457711 7.86631e-20)
(4.06405 -0.361528 -1.19087e-19)
(3.9627 -0.283631 6.87232e-20)
(3.85469 -0.225383 0)
(3.74541 -0.188269 2.07365e-20)
(3.64723 -0.173427 -5.47709e-20)
(3.96747 -1.33765 0)
(4.02737 -1.08498 0)
(4.07794 -0.982721 2.93957e-20)
(4.09675 -0.856558 -8.59231e-20)
(4.08496 -0.730145 5.01065e-20)
(4.04607 -0.612709 4.65679e-20)
(3.98608 -0.510284 -3.48691e-20)
(3.91099 -0.42441 4.40708e-20)
(3.82528 -0.355638 -3.23938e-20)
(3.73392 -0.305945 5.05724e-21)
(3.64609 -0.278468 4.41291e-20)
(3.72542 -1.36239 1.8413e-20)
(3.80681 -1.11508 4.67481e-20)
(3.87365 -1.06913 0)
(3.92624 -0.973403 -3.7939e-20)
(3.95178 -0.863081 0)
(3.94767 -0.74986 -2.03966e-20)
(3.91656 -0.643805 5.74538e-21)
(3.86382 -0.550428 0)
(3.79503 -0.472416 6.17617e-21)
(3.71636 -0.411987 -1.20643e-20)
(3.63707 -0.373623 -3.60922e-21)
(3.5806 -1.32331 -1.16719e-19)
(3.66153 -1.09977 -3.79896e-20)
(3.71953 -1.09821 5.10277e-20)
(3.78163 -1.03421 3.43973e-20)
(3.82632 -0.950218 0)
(3.84567 -0.85411 -6.87635e-21)
(3.83749 -0.755527 2.35522e-20)
(3.80469 -0.662129 0)
(3.75266 -0.579068 -6.03504e-21)
(3.68779 -0.510365 1.14756e-20)
(3.6182 -0.461702 -7.45851e-21)
(3.49819 -1.27779 -3.62271e-19)
(3.57025 -1.08363 2.8713e-19)
(3.61059 -1.10531 -1.34654e-19)
(3.66816 -1.06158 0)
(3.71598 -1.00094 1.09389e-19)
(3.74529 -0.924833 3.80768e-20)
(3.75119 -0.839534 3.34556e-20)
(3.73387 -0.752263 1.14995e-20)
(3.69694 -0.669329 2.59787e-21)
(3.64581 -0.59621 -2.43002e-20)
(3.58773 -0.540692 2.49173e-20)
(3.45212 -1.24046 7.68214e-20)
(3.51314 -1.07515 5.0431e-19)
(3.53391 -1.10991 -3.09379e-19)
(3.58272 -1.07512 -1.0458e-19)
(3.62502 -1.03085 -1.72544e-19)
(3.65447 -0.971443 6.71172e-20)
(3.66596 -0.899914 -1.05934e-19)
(3.65827 -0.821725 1.02636e-20)
(3.63331 -0.742778 3.34432e-21)
(3.59488 -0.668863 -4.15141e-20)
(3.54871 -0.608646 -1.78414e-20)
(3.43402 -1.21086 4.30002e-20)
(3.47033 -1.07622 0)
(3.47652 -1.11884 0)
(3.51731 -1.08523 -1.02361e-19)
(3.55085 -1.05163 8.9024e-20)
(3.5754 -1.00399 -6.25428e-20)
(3.58669 -0.943677 1.10557e-19)
(3.58326 -0.874559 3.6045e-20)
(3.56588 -0.801369 3.74624e-20)
(3.53649 -0.729406 5.90297e-20)
(3.49741 -0.667748 0)
(3.4141 -1.22069 -6.62574e-19)
(3.42874 -1.09874 9.31946e-19)
(3.43333 -1.12881 -3.53505e-19)
(3.46422 -1.09724 0)
(3.48827 -1.07027 0)
(3.50632 -1.02975 -9.41593e-20)
(3.51453 -0.977277 1.30315e-19)
(3.51187 -0.915665 -1.14624e-19)
(3.49889 -0.848425 -1.428e-20)
(3.47677 -0.780164 -2.2769e-20)
(3.44781 -0.72123 0)
(3.38163 -1.24891 6.15315e-19)
(3.39348 -1.12177 -4.83271e-19)
(3.39447 -1.14324 1.01998e-20)
(3.41529 -1.11651 2.99891e-20)
(3.4322 -1.09028 0)
(3.44407 -1.05308 2.31393e-19)
(3.44821 -1.00544 -1.7348e-19)
(3.44442 -0.949104 -8.02067e-20)
(3.43348 -0.886669 9.39844e-20)
(3.41597 -0.821322 -8.28649e-21)
(3.3929 -0.762835 -2.00829e-20)
(3.34866 -1.27791 0)
(3.36131 -1.14399 -3.85755e-19)
(3.3537 -1.16227 3.43496e-19)
(3.36796 -1.13816 -2.91321e-20)
(3.37911 -1.11193 0)
(3.38548 -1.07621 -2.96729e-19)
(3.38554 -1.031 3.17884e-19)
(3.37974 -0.977682 -1.04528e-19)
(3.36904 -0.918407 5.92404e-20)
(3.35394 -0.854907 -5.29314e-20)
(3.33228 -0.7962 -4.53032e-20)
(3.31999 -1.31042 6.03792e-19)
(3.32883 -1.17002 -5.24522e-19)
(3.31206 -1.18539 -6.33611e-19)
(3.32052 -1.16155 4.93588e-19)
(3.32637 -1.13482 -8.35162e-20)
(3.3279 -1.09939 1.56398e-19)
(3.32422 -1.05506 -2.3036e-20)
(3.31622 -1.00311 -1.0773e-19)
(3.30519 -0.945223 2.3194e-19)
(3.29197 -0.88323 -4.76642e-20)
(3.27412 -0.826908 4.19032e-20)
(3.28691 -1.34694 -5.84793e-19)
(3.29012 -1.20165 3.46904e-19)
(3.26664 -1.21242 0)
(3.27039 -1.18669 -1.15269e-19)
(3.2717 -1.15843 8.18235e-20)
(3.26914 -1.12213 -1.01569e-19)
(3.2623 -1.07742 2.2013e-20)
(3.25241 -1.02552 9.20203e-21)
(3.24107 -0.967852 -1.74572e-19)
(3.22907 -0.906033 9.46851e-21)
(3.21329 -0.849436 -4.14056e-20)
(3.24487 -1.38128 -5.88614e-19)
(3.24485 -1.23224 1.06063e-19)
(3.2163 -1.23954 1.54453e-19)
(3.21626 -1.21177 1.64366e-21)
(3.21382 -1.18165 -3.06477e-19)
(3.20789 -1.14378 2.37162e-19)
(3.19848 -1.09773 0)
(3.18709 -1.04473 1.10834e-19)
(3.17552 -0.986028 2.38885e-20)
(3.16442 -0.922655 1.59156e-19)
(3.14861 -0.863051 -7.474e-20)
(3.20162 -1.41482 0)
(3.19773 -1.26 0)
(3.16257 -1.2652 -1.53154e-19)
(3.15846 -1.23563 -3.11458e-19)
(3.1524 -1.20363 1.7482e-19)
(3.14347 -1.16373 0)
(3.13188 -1.11558 2.74492e-19)
(3.11935 -1.0605 -4.01725e-19)
(3.1078 -0.999811 0)
(3.09789 -0.934368 -1.31116e-19)
(3.08399 -0.873808 1.58779e-20)
(3.15459 -1.44988 0)
(3.14488 -1.28901 -9.72883e-19)
(3.10377 -1.29027 3.62978e-20)
(3.09595 -1.2578 2.35174e-19)
(3.08656 -1.22328 5.3174e-21)
(3.07497 -1.18078 0)
(3.06164 -1.12985 -1.38517e-19)
(3.04849 -1.07188 -1.71459e-19)
(3.03754 -1.00841 1.292e-19)
(3.02947 -0.940094 -1.26261e-19)
(3.01695 -0.876223 1.03693e-19)
(3.09966 -1.4805 0)
(3.08585 -1.31487 9.52818e-19)
(3.0397 -1.31252 -5.8769e-19)
(3.02848 -1.27708 2.10024e-19)
(3.01595 -1.23977 1.48848e-19)
(3.00194 -1.19416 0)
(2.98727 -1.13972 1.38685e-19)
(2.97413 -1.07802 0)
(2.96462 -1.01107 0)
(2.95945 -0.93945 1.31995e-19)
(2.9498 -0.872244 0)
(3.04185 -1.50692 0)
(3.02464 -1.33688 7.3639e-19)
(2.97206 -1.33121 -5.7156e-19)
(2.95658 -1.29305 -3.82204e-19)
(2.94051 -1.25268 2.96061e-19)
(2.92402 -1.2033 -3.65896e-19)
(2.9083 -1.14441 2.79422e-19)
(2.89596 -1.07799 1.56819e-19)
(2.8891 -1.00692 -2.21431e-19)
(2.88824 -0.932074 -2.46434e-19)
(2.8822 -0.863297 1.4813e-19)
(2.98124 -1.53252 5.27328e-19)
(2.95921 -1.35786 0)
(2.90007 -1.34715 0)
(2.87967 -1.30566 -3.68886e-19)
(2.85972 -1.26146 5.41808e-19)
(2.84062 -1.20733 -1.97267e-19)
(2.82429 -1.1427 -2.32975e-19)
(2.81394 -1.07028 1.7591e-19)
(2.81142 -0.994499 4.71575e-21)
(2.81701 -0.91667 1.09127e-19)
(2.81557 -0.846403 4.5764e-20)
(2.91586 -1.55423 -1.00348e-18)
(2.88889 -1.3763 7.6693e-19)
(2.82336 -1.3596 -6.3164e-20)
(2.79726 -1.31424 0)
(2.77279 -1.26495 0)
(2.75097 -1.20426 -2.51095e-19)
(2.73495 -1.13206 4.79632e-19)
(2.72857 -1.05265 -2.45247e-19)
(2.73277 -0.972361 1.00816e-19)
(2.74699 -0.89277 0)
(2.75367 -0.820999 -6.6349e-20)
(2.84606 -1.56995 9.45596e-19)
(2.81471 -1.39085 -1.46527e-18)
(2.74246 -1.3677 6.00936e-19)
(2.70908 -1.31812 -3.46988e-19)
(2.67884 -1.26198 3.24148e-19)
(2.65427 -1.19208 2.80776e-19)
(2.6404 -1.10985 -2.58966e-20)
(2.64116 -1.02242 1.98273e-20)
(2.65537 -0.938384 -5.75297e-20)
(2.67983 -0.859916 1.0645e-19)
(2.69611 -0.789617 -7.76529e-20)
(2.7736 -1.58267 7.07216e-20)
(2.7386 -1.4023 7.0427e-19)
(2.65757 -1.3727 -5.29889e-19)
(2.61377 -1.31722 0)
(2.57598 -1.25035 -6.3989e-20)
(2.5498 -1.1668 -4.39454e-20)
(2.54195 -1.07171 -2.26803e-19)
(2.55473 -0.976434 2.0774e-19)
(2.58284 -0.891489 -5.10692e-20)
(2.61899 -0.818554 0)
(2.64586 -0.754796 1.71932e-20)
(2.69877 -1.56767 1.0804e-18)
(2.65853 -1.40962 -7.93384e-19)
(2.56601 -1.37292 4.93696e-19)
(2.50681 -1.3074 -3.65739e-19)
(2.46169 -1.22329 2.62299e-19)
(2.43912 -1.12078 -3.59963e-19)
(2.44467 -1.01154 1.30681e-19)
(2.47571 -0.911583 8.39452e-20)
(2.521 -0.831317 -6.10743e-20)
(2.56907 -0.769527 1.76222e-20)
(2.60543 -0.717713 -1.76338e-20)
(2.61937 -1.69264 -7.11329e-19)
(2.58279 -1.48096 -3.95928e-20)
(2.45567 -1.40839 5.96814e-20)
(2.37957 -1.30439 0)
(2.33753 -1.18331 -1.77306e-20)
(2.33128 -1.05257 -5.67008e-20)
(2.36067 -0.929577 0)
(2.41536 -0.831116 1.0743e-19)
(2.47796 -0.762659 3.46733e-20)
(2.53466 -0.717169 -1.85548e-20)
(2.57782 -0.681051 0)
(2.49726 -1.45855 4.52228e-21)
(2.44503 -1.31744 5.35859e-20)
(2.32366 -1.237 2.6554e-20)
(2.27124 -1.12941 4.7934e-19)
(2.25345 -1.01164 -3.36298e-19)
(2.27343 -0.891681 -7.57526e-20)
(2.3298 -0.787116 1.00175e-19)
(2.40256 -0.715816 9.23324e-20)
(2.47152 -0.677424 4.98116e-20)
(2.5257 -0.659405 -2.59486e-20)
(2.56523 -0.646699 8.11315e-20)
(4.63942 -0.889421 1.56493e-19)
(4.56702 -0.822466 3.53404e-20)
(4.57233 -0.720857 -1.27485e-19)
(4.54012 -0.5801 7.99687e-20)
(4.45009 -0.422712 0)
(4.33039 -0.297165 0)
(4.19559 -0.205028 1.44159e-20)
(4.05314 -0.133742 3.10958e-20)
(3.91132 -0.080797 -1.82019e-20)
(3.77242 -0.0522395 3.06135e-21)
(3.64938 -0.054086 0)
(5.05628 -1.50985 3.7819e-19)
(4.84995 -1.22176 6.37305e-19)
(4.75534 -0.841911 -4.55933e-19)
(4.72889 -0.58304 -1.59427e-20)
(4.66265 -0.375454 1.68241e-19)
(4.54461 -0.196504 -1.24646e-19)
(4.38774 -0.0528211 0)
(4.17869 0.0473912 -2.9725e-20)
(3.98554 0.0901292 -4.60797e-21)
(3.80488 0.108897 1.7352e-20)
(3.65152 0.101057 -2.45038e-23)
(5.52497 -1.83478 3.58622e-19)
(5.33591 -1.71657 1.06128e-19)
(5.15284 -1.33876 3.11005e-20)
(4.96771 -0.837454 -2.04447e-19)
(4.85943 -0.453262 -4.28398e-21)
(4.73463 -0.154385 1.65311e-21)
(4.56544 0.0763554 -7.17081e-22)
(4.34877 0.236762 8.43418e-21)
(4.09511 0.310351 -2.21713e-22)
(3.83904 0.308416 -2.98807e-21)
(3.64915 0.277034 0)
(5.79623 -1.97384 -1.2137e-19)
(5.66853 -1.85158 1.14811e-19)
(5.50778 -1.61977 -1.31905e-20)
(5.30621 -1.21664 9.97578e-21)
(5.07977 -0.678636 -2.14174e-20)
(4.90354 -0.21877 -1.5618e-21)
(4.70978 0.14455 6.77562e-22)
(4.47473 0.407681 3.17896e-20)
(4.20261 0.552972 -2.71487e-20)
(3.89842 0.570341 2.68062e-20)
(3.61798 0.493472 -1.6046e-20)
(6.04254 -2.15612 -3.25659e-19)
(5.98132 -1.97282 -2.16032e-20)
(5.82808 -1.77804 0)
(5.63098 -1.45524 -1.05164e-19)
(5.37725 -0.982519 -9.487e-20)
(5.09715 -0.400142 1.48325e-19)
(4.83859 0.115158 -1.02117e-19)
(4.5591 0.513109 1.59913e-19)
(4.25023 0.767317 -1.39643e-19)
(3.91715 0.857271 1.17922e-19)
(3.58634 0.785031 1.55814e-21)
(6.25268 -2.31489 -8.22018e-19)
(6.25417 -2.08757 -4.66685e-19)
(6.11136 -1.92202 2.21825e-19)
(5.91664 -1.62596 8.97193e-20)
(5.65977 -1.21691 7.61701e-19)
(5.32808 -0.647153 -1.01253e-18)
(4.97552 -0.0183901 6.08789e-19)
(4.61939 0.522927 1.22814e-19)
(4.24908 0.911029 -2.91446e-19)
(3.86866 1.10753 2.50661e-19)
(3.50706 1.10167 0)
(6.4268 -2.44472 8.71439e-19)
(6.4777 -2.19087 -1.70419e-19)
(6.34222 -2.06358 -1.97999e-19)
(6.15401 -1.7907 7.91519e-19)
(5.89253 -1.41773 -9.85992e-19)
(5.55227 -0.911674 -6.34213e-19)
(5.12096 -0.23493 0)
(4.66905 0.424604 2.62856e-19)
(4.21111 0.950331 5.99474e-19)
(3.76199 1.27241 -2.42735e-19)
(3.35543 1.37066 4.89426e-19)
(6.56644 -2.55488 0)
(6.64906 -2.29122 8.80942e-19)
(6.51653 -2.20381 -1.74763e-18)
(6.33734 -1.95779 9.21275e-19)
(6.07752 -1.62408 1.6763e-18)
(5.72434 -1.16454 -8.00078e-19)
(5.26227 -0.535597 5.66929e-19)
(4.71384 0.213965 -1.1105e-18)
(4.14921 0.863231 -5.83003e-19)
(3.61442 1.31521 0)
(3.14891 1.52025 -1.01222e-18)
(6.6763 -2.64639 -9.33366e-19)
(6.77376 -2.385 -8.09287e-20)
(6.63765 -2.33992 6.20918e-19)
(6.46659 -2.12333 0)
(6.21144 -1.83785 -4.40726e-19)
(5.85728 -1.43375 0)
(5.37207 -0.871359 8.22117e-19)
(4.75048 -0.0958313 1.08943e-18)
(4.07396 0.643132 0)
(3.43103 1.20376 1.23085e-18)
(2.91013 1.53197 -9.07911e-19)
(6.75044 -2.71574 1.19888e-18)
(6.85471 -2.47092 -1.60704e-18)
(6.7079 -2.46974 -8.0439e-19)
(6.54283 -2.28452 1.14649e-18)
(6.29152 -2.05415 -5.73435e-19)
(5.94023 -1.71836 1.04435e-18)
(5.44885 -1.23375 -1.60761e-18)
(4.77846 -0.539341 1.61542e-18)
(3.99821 0.284164 1.28524e-18)
(3.23587 0.930659 1.84649e-18)
(2.63848 1.37326 -1.19464e-18)
(6.77616 -2.77402 6.66328e-19)
(6.8896 -2.55646 0)
(6.72633 -2.58569 -7.58978e-19)
(6.56479 -2.43907 5.95619e-19)
(6.31578 -2.26881 5.61248e-19)
(5.96915 -2.01024 5.09277e-20)
(5.48487 -1.61919 -8.87314e-19)
(4.79284 -1.0374 -1.5845e-18)
(3.93435 -0.199218 9.22702e-20)
(3.05606 0.497683 -9.46911e-19)
(2.36283 1.00993 -2.14524e-20)
(6.75606 -2.84132 -8.5427e-19)
(6.86772 -2.63981 1.05103e-18)
(6.69994 -2.68274 -6.68663e-19)
(6.53217 -2.59483 3.20807e-19)
(6.28385 -2.48359 -1.89529e-18)
(5.9412 -2.30596 2.09828e-18)
(5.47096 -2.02425 0)
(4.7957 -1.58459 0)
(3.89436 -0.80406 0)
(2.92349 -0.0764544 -1.06662e-18)
(2.16861 0.48635 -6.00421e-19)
(6.70303 -2.88369 9.12988e-20)
(6.78358 -2.714 -1.94121e-19)
(6.62233 -2.77619 -1.59495e-19)
(6.44383 -2.74561 -1.74402e-20)
(6.19273 -2.69403 3.073e-19)
(5.85216 -2.59647 -1.18931e-18)
(5.39752 -2.4282 4.30785e-19)
(4.7686 -2.14696 0)
(3.85747 -1.582 -1.56606e-18)
(2.83396 -0.792693 7.6006e-21)
(2.05499 -0.183732 -1.4321e-18)
(6.59796 -2.90037 6.58427e-19)
(6.64103 -2.78056 1.24342e-19)
(6.48415 -2.86706 -5.27772e-19)
(6.29722 -2.89408 -2.96447e-19)
(6.04348 -2.90546 2.80376e-19)
(5.70429 -2.88314 0)
(5.25848 -2.80675 4.88998e-19)
(4.676 -2.64652 0)
(3.9123 -2.34007 -7.88107e-19)
(2.88684 -1.6096 2.27672e-18)
(2.00546 -0.940558 6.94732e-19)
(6.43131 -2.90207 0)
(6.43702 -2.84037 5.71695e-19)
(6.28199 -2.95639 -3.0837e-19)
(6.09313 -3.04264 0)
(5.8457 -3.12202 0)
(5.5236 -3.17738 9.94668e-19)
(5.11059 -3.1868 -1.88949e-18)
(4.58378 -3.11943 7.09079e-19)
(3.90853 -2.92206 -6.93319e-19)
(3.06298 -2.45038 0)
(2.15544 -1.78153 -3.16711e-19)
(6.19755 -2.88645 -3.21105e-19)
(6.16331 -2.88539 0)
(6.00802 -3.03807 -4.13508e-19)
(5.82391 -3.18678 3.24312e-19)
(5.59458 -3.33802 0)
(5.30765 -3.47284 0)
(4.95216 -3.56706 -5.04308e-19)
(4.51229 -3.5862 5.27793e-19)
(3.95986 -3.4793 0)
(3.2641 -3.17359 -4.10083e-19)
(2.46887 -2.62439 -1.39545e-19)
(5.87604 -2.85601 -6.65095e-21)
(5.80577 -2.91397 2.21763e-19)
(5.65293 -3.11156 -1.64759e-19)