/*--------------------------------*- C++ -*----------------------------------*\
| =========                 |                                                 |
| \\      /  F ield         | OpenFOAM: The Open Source CFD Toolbox           |
|  \\    /   O peration     | Version:  3.0.1                                 |
|   \\  /    A nd           | Web:      www.OpenFOAM.org                      |
|    \\/     M anipulation  |                                                 |
\*---------------------------------------------------------------------------*/
FoamFile
{
    version     2.0;
    format      ascii;
    class       volVectorField;
    location    "0.240401";
    object      U;
}
// * * * * * * * * * * * * * * * * * * * * * * * * * * * * * * * * * * * * * //

dimensions      [0 1 -1 0 0 0 0];

internalField   nonuniform List<vector> 
21246
(
(-1.0729 3.86871 -5.60783e-20)
(-0.647634 2.65597 -3.608e-18)
(0.0517458 2.00033 2.72459e-18)
(0.642445 1.54722 1.91652e-19)
(1.11334 1.27111 1.07842e-18)
(1.49256 1.0979 -7.34475e-19)
(1.78769 0.989867 -1.0096e-19)
(2.01449 0.917235 -5.50284e-20)
(2.18996 0.864008 -1.26431e-19)
(2.3256 0.821902 1.7528e-19)
(2.42201 0.786851 -5.65457e-20)
(0.505524 4.93757 6.29139e-20)
(1.42452 3.12198 -2.86094e-18)
(1.15126 3.1373 2.23184e-18)
(1.3178 2.49311 -9.52409e-20)
(1.48089 2.02833 -2.75185e-19)
(1.70761 1.64269 2.11973e-19)
(1.92707 1.37425 1.30386e-18)
(2.11748 1.18522 -7.39406e-19)
(2.27445 1.05266 6.66261e-19)
(2.39806 0.955796 -2.94581e-19)
(2.48397 0.884078 0)
(1.70596 4.40478 -6.2379e-18)
(3.14675 2.39357 0)
(2.36753 3.37941 4.56152e-19)
(2.34424 2.74603 2.87636e-19)
(2.17933 2.438 2.78975e-19)
(2.16877 2.02234 -3.01365e-19)
(2.2284 1.69263 -1.11449e-19)
(2.32326 1.42244 -1.78964e-19)
(2.42245 1.22561 -3.40405e-19)
(2.51277 1.07977 3.94009e-19)
(2.58036 0.975245 -2.87826e-19)
(2.27478 3.34821 1.80957e-18)
(3.98668 1.62787 3.69475e-18)
(3.25229 3.03991 -5.81158e-18)
(3.25679 2.4436 1.1438e-18)
(2.91893 2.45567 6.96392e-19)
(2.74134 2.12499 5.5106e-19)
(2.64059 1.84835 1.88359e-19)
(2.61867 1.5664 1.22849e-19)
(2.63178 1.34858 2.71172e-19)
(2.66554 1.17496 -1.07922e-19)
(2.69634 1.04538 -1.23603e-19)
(2.39741 2.39331 -1.72087e-18)
(4.20481 1.06936 0)
(3.7116 2.47688 -5.58922e-18)
(3.82462 1.91962 2.95324e-18)
(3.48159 2.20866 0)
(3.25421 1.96801 -7.13515e-19)
(3.05735 1.81855 3.48612e-19)
(2.94268 1.58426 -3.4203e-20)
(2.87529 1.39188 0)
(2.84979 1.21949 1.77431e-19)
(2.84052 1.08483 1.24514e-20)
(2.30931 1.62463 -2.77757e-18)
(4.13105 0.638351 2.14501e-18)
(3.86551 1.92392 2.72818e-18)
(4.07268 1.39609 -2.06503e-18)
(3.81001 1.85259 2.06543e-18)
(3.608 1.65669 -1.5874e-18)
(3.39081 1.66006 0)
(3.22945 1.48499 0)
(3.10951 1.35228 0)
(3.0362 1.20668 -5.93079e-19)
(2.98825 1.08855 0)
(2.09055 0.997108 0)
(3.93279 0.306841 8.27946e-19)
(3.84732 1.4466 -1.08799e-18)
(4.12035 0.952023 1.09406e-18)
(3.94778 1.49333 0)
(3.79798 1.30311 1.30069e-18)
(3.6076 1.44106 -1.15644e-18)
(3.44008 1.30434 -5.85864e-19)
(3.30014 1.24968 5.72913e-19)
(3.20009 1.14012 -3.32721e-20)
(3.12508 1.05018 2.01281e-20)
(1.7844 0.549652 -2.05244e-18)
(3.68353 0.0774901 -7.91495e-19)
(3.72994 1.03434 -1.1206e-18)
(4.06657 0.613814 7.35525e-19)
(3.95299 1.17329 0)
(3.86748 0.974626 0)
(3.71428 1.20723 7.51214e-20)
(3.56718 1.08988 6.39205e-19)
(3.43149 1.11415 -1.76249e-18)
(3.32461 1.03628 4.09492e-19)
(3.23964 0.979397 3.06345e-19)
(1.46486 0.265313 1.82272e-18)
(3.40115 -0.0983629 -6.59756e-19)
(3.5558 0.700097 1.08588e-18)
(3.96443 0.361504 -7.13139e-19)
(3.8751 0.897928 -1.00351e-18)
(3.85979 0.702571 0)
(3.73065 0.982947 8.29386e-19)
(3.62633 0.881914 -1.12615e-18)
(3.50375 0.967904 1.01549e-18)
(3.40401 0.913034 0)
(3.3201 0.892144 0)
(1.13593 0.0470139 0)
(3.07364 -0.254214 5.41568e-19)
(3.3517 0.432939 -8.16309e-19)
(3.81728 0.164091 3.74275e-20)
(3.75118 0.672117 9.3974e-20)
(3.80298 0.477316 -1.12616e-18)
(3.68651 0.786768 4.4006e-19)
(3.63124 0.704164 0)
(3.52421 0.821144 3.22603e-19)
(3.44444 0.788144 7.1374e-19)
(3.36955 0.79953 -5.85094e-20)
(0.755999 -0.118687 1.40664e-19)
(2.70235 -0.370177 2.24676e-19)
(3.11546 0.225009 5.41278e-19)
(3.62892 0.0141457 2.74722e-19)
(3.60373 0.484494 5.7667e-20)
(3.70279 0.306297 1.07018e-18)
(3.61202 0.620761 -5.33037e-19)
(3.59234 0.55309 4.2418e-20)
(3.50652 0.689249 -1.52748e-19)
(3.45128 0.676875 -5.44089e-19)
(3.39232 0.708208 1.92652e-19)
(0.359978 -0.212583 -1.47512e-20)
(2.31655 -0.426296 0)
(2.85642 0.0819591 6.40288e-20)
(3.41435 -0.0888038 -4.64987e-20)
(3.44322 0.336068 7.72701e-20)
(3.57273 0.186791 -6.68008e-20)
(3.5174 0.483875 7.16616e-20)
(3.52163 0.435087 4.63019e-20)
(3.46446 0.57694 0)
(3.43033 0.581827 1.72055e-19)
(3.39013 0.627422 -4.73713e-20)
(-0.00222656 -0.260001 0)
(1.93388 -0.450087 0)
(2.58583 -0.0203566 -6.73914e-20)
(3.18304 -0.153318 1.21743e-19)
(3.27639 0.221314 1.02321e-19)
(3.42808 0.10999 2.48189e-20)
(3.40938 0.375148 -6.6513e-20)
(3.43323 0.348537 2.99875e-20)
(3.40411 0.485312 0)
(3.38972 0.504562 3.26068e-20)
(3.36969 0.557395 -1.82379e-20)
(-0.364128 -0.282995 1.63231e-19)
(1.52856 -0.461168 -1.02837e-19)
(2.29043 -0.102973 -6.56591e-20)
(2.93216 -0.191667 6.17662e-20)
(3.10175 0.13232 -1.74877e-19)
(3.27516 0.0636868 -1.01528e-20)
(3.29354 0.29094 4.30342e-20)
(3.33496 0.288193 -1.47887e-19)
(3.33151 0.413441 0)
(3.33603 0.445219 0)
(3.33591 0.501058 4.00918e-20)
(-0.740757 -0.268204 1.11975e-19)
(1.10919 -0.443153 1.03914e-19)
(1.96999 -0.152863 -2.59033e-20)
(2.66584 -0.206133 -1.03566e-19)
(2.91543 0.0680261 1.74834e-19)
(3.11603 0.0384325 -7.81255e-20)
(3.17217 0.229141 -7.96825e-20)
(3.23107 0.248121 -9.87214e-20)
(3.25098 0.359672 7.5129e-20)
(3.2733 0.401062 0)
(3.29145 0.456979 0)
(-1.09783 -0.23372 -1.14508e-19)
(0.685841 -0.411369 0)
(1.62677 -0.177542 0)
(2.3787 -0.201806 2.68396e-19)
(2.7107 0.0220317 7.3817e-20)
(2.94746 0.0266934 1.82041e-19)
(3.04392 0.185392 0)
(3.12227 0.222668 0)
(3.16425 0.321107 9.64509e-20)
(3.20359 0.369416 -7.26394e-20)
(3.23877 0.423923 -8.11387e-20)
(-1.44887 -0.187266 0)
(0.241686 -0.372661 -8.32232e-20)
(1.24606 -0.189663 -1.42049e-19)
(2.05313 -0.19043 1.02059e-19)
(2.47418 -0.0117285 -8.02542e-20)
(2.75962 0.02106 -2.10203e-19)
(2.90228 0.153996 1.89703e-19)
(3.00509 0.206201 0)
(3.07001 0.294087 -1.00349e-19)
(3.12661 0.346957 1.3173e-19)
(3.17811 0.399364 0)
(-1.81033 -0.119914 0)
(-0.224021 -0.318449 8.70536e-20)
(0.821213 -0.184434 -9.35686e-20)
(1.67984 -0.173755 2.83641e-19)
(2.19215 -0.0350311 -2.21489e-19)
(2.53855 0.0163521 7.50816e-20)
(2.73572 0.130138 -1.15009e-19)
(2.87139 0.19392 -5.35556e-20)
(2.96329 0.274932 1.0106e-19)
(3.03953 0.330878 -8.79715e-20)
(3.10825 0.381225 -3.28424e-20)
(-2.17139 -0.0389334 0)
(-0.70796 -0.252205 0)
(0.345433 -0.16386 1.03039e-19)
(1.2443 -0.15387 -1.82375e-20)
(1.84407 -0.0506891 -2.94766e-20)
(2.26135 0.00926121 -7.75675e-20)
(2.52371 0.109325 0)
(2.70493 0.181841 4.60318e-20)
(2.83264 0.259654 6.429e-21)
(2.93448 0.318168 0)
(3.02322 0.36778 -2.56759e-20)
(-2.52516 0.0484549 8.31918e-20)
(-1.20851 -0.18006 -3.93167e-20)
(-0.188249 -0.130157 0)
(0.727168 -0.129054 0)
(1.40021 -0.0602539 -1.71742e-20)
(1.89378 -0.00021315 0)
(2.23345 0.0897095 0)
(2.47728 0.167698 -1.12496e-19)
(2.65543 0.244264 7.58947e-20)
(2.79379 0.304533 4.77481e-20)
(2.90922 0.354989 -3.51038e-20)
(-2.86906 0.146064 0)
(-1.7258 -0.100429 -2.40679e-20)
(-0.788093 -0.0835702 0)
(0.100902 -0.0946732 -3.77375e-20)
(0.821367 -0.0559892 0)
(1.38882 -0.00319353 7.76744e-20)
(1.81619 0.0760917 0)
(2.14186 0.153178 3.0675e-19)
(2.39015 0.226042 -7.86365e-20)
(2.58222 0.285022 -1.47761e-19)
(2.73665 0.333473 2.83134e-20)
(-3.15421 0.212552 -9.60868e-22)
(-2.24038 -0.0112179 1.11866e-19)
(-1.45266 -0.0196592 -5.9828e-21)
(-0.652232 -0.0361297 4.27486e-20)
(0.0674435 -0.0168211 0)
(0.68842 0.0252679 -3.03816e-19)
(1.20376 0.0875308 1.59791e-19)
(1.62494 0.152155 -2.02071e-19)
(1.96217 0.213021 0)
(2.22884 0.266078 1.54223e-19)
(2.45084 0.324713 -8.18652e-20)
(-3.59108 0.474559 2.5658e-19)
(-2.8379 0.101618 -9.69016e-20)
(-2.18511 0.108748 -9.18279e-20)
(-1.52387 0.0984347 5.04816e-19)
(-0.873603 0.104683 -4.85507e-19)
(-0.247609 0.126435 0)
(0.3267 0.154812 0)
(0.83084 0.180138 -3.71923e-19)
(1.25794 0.203292 3.01679e-19)
(1.60606 0.223383 1.16605e-19)
(1.93352 0.281529 -8.3212e-20)
(-3.574 -0.0398003 -1.50012e-18)
(-3.04105 0.0711511 5.57127e-19)
(-2.59762 0.184208 -6.11412e-19)
(-2.16704 0.273624 1.40468e-18)
(-1.7025 0.355879 -4.70148e-19)
(-1.20533 0.408422 -4.42773e-19)
(-0.701253 0.427321 2.71347e-19)
(-0.217062 0.418877 8.66594e-20)
(0.229109 0.39409 6.18683e-20)
(0.61361 0.354648 -1.00461e-19)
(1.03576 0.332905 -2.37979e-20)
(-1.45774 -2.22406 -8.85158e-18)
(-1.03403 -0.958967 -9.892e-18)
(-0.208449 -0.178825 7.86499e-18)
(0.504341 0.262859 -1.16504e-19)
(1.04874 0.476299 -7.68748e-19)
(1.45005 0.581172 -3.82463e-19)
(1.74252 0.632828 1.04728e-19)
(1.95932 0.658599 -4.68137e-19)
(2.12619 0.673027 9.07202e-19)
(2.25575 0.679694 -6.01775e-19)
(2.35025 0.677432 2.34258e-20)
(0.432813 -3.80549 -6.45452e-19)
(0.934857 -2.30423 3.48421e-18)
(0.863907 -1.86053 -4.82725e-19)
(0.929618 -1.07624 -1.03609e-18)
(1.12059 -0.46167 3.55409e-18)
(1.40133 -0.0311435 -2.5223e-18)
(1.66962 0.231303 -5.17721e-19)
(1.90094 0.391181 5.95954e-19)
(2.08432 0.488526 0)
(2.22186 0.545992 -1.8734e-19)
(2.31795 0.574193 4.39925e-19)
(1.7427 -3.65987 0)
(2.43667 -1.83889 7.99522e-19)
(2.01201 -2.20132 0)
(1.77839 -1.59546 4.43693e-18)
(1.63605 -1.10305 -4.92281e-18)
(1.66043 -0.614523 2.63433e-18)
(1.77611 -0.222574 2.32366e-18)
(1.91522 0.0524884 -1.92013e-18)
(2.05366 0.242104 0)
(2.17123 0.369191 -6.69693e-19)
(2.25915 0.450511 2.68843e-19)
(2.49309 -2.92503 -6.29247e-19)
(3.3716 -1.15988 4.89585e-19)
(2.93029 -1.99072 0)
(2.61347 -1.54236 0)
(2.29017 -1.2767 -1.33788e-18)
(2.09912 -0.877659 2.03081e-18)
(2.03423 -0.512765 6.0387e-19)
(2.0467 -0.207597 -9.21858e-19)
(2.09999 0.0198036 -1.07656e-18)
(2.16375 0.179789 -5.67907e-19)
(2.21633 0.281681 7.36327e-19)
(2.82743 -2.1396 1.09743e-18)
(3.81147 -0.613671 4.91526e-19)
(3.48798 -1.54156 -3.6953e-19)
(3.20878 -1.1934 0)
(2.85071 -1.14922 0)
(2.55793 -0.893564 -4.13017e-19)
(2.36164 -0.623309 1.31659e-19)
(2.25493 -0.353237 7.17391e-19)
(2.21212 -0.132052 7.80695e-19)
(2.20627 0.0355373 -2.4835e-19)
(2.21128 0.146969 -6.81437e-20)
(2.92706 -1.48758 -5.09936e-19)
(3.95119 -0.203267 0)
(3.74576 -1.07171 3.7338e-19)
(3.5348 -0.772449 -2.89434e-19)
(3.2221 -0.87917 0)
(2.91281 -0.736923 -6.83987e-20)
(2.65619 -0.579676 3.76719e-19)
(2.46842 -0.383258 -3.77795e-20)
(2.34179 -0.206398 -4.38405e-20)
(2.25998 -0.0619141 -1.07254e-19)
(2.19768 0.0366843 -9.02497e-20)
(2.9044 -0.970722 -1.04635e-18)
(3.94677 0.109935 -6.67783e-19)
(3.82621 -0.668613 0)
(3.66358 -0.388581 0)
(3.42035 -0.580546 2.78758e-19)
(3.13069 -0.497933 -2.14502e-19)
(2.8661 -0.443069 -5.48306e-19)
(2.63951 -0.321771 -4.12953e-20)
(2.4567 -0.203548 1.37225e-19)
(2.3132 -0.0978207 7.79498e-20)
(2.19204 -0.0231561 8.87394e-20)
(2.83908 -0.568928 0)
(3.88463 0.331677 6.2405e-19)
(3.82276 -0.342681 0)
(3.67995 -0.0715647 0)
(3.49546 -0.310325 3.46194e-19)
(3.2385 -0.242556 -2.67927e-19)
(2.98779 -0.26908 3.85981e-19)
(2.75109 -0.204534 2.98047e-19)
(2.53954 -0.141853 2.0872e-19)
(2.35628 -0.0780053 2.26281e-19)
(2.19354 -0.0311684 0)
(2.76967 -0.24585 8.80259e-19)
(3.81503 0.495601 0)
(3.7728 -0.0789314 2.11021e-19)
(3.65658 0.191206 -1.48423e-19)
(3.49052 -0.0843755 -1.36953e-20)
(3.272 -0.00900187 5.21286e-19)
(3.0396 -0.0872258 -1.34034e-19)
(2.80724 -0.0615748 -1.88517e-19)
(2.5871 -0.0440486 -9.24453e-20)
(2.38632 -0.0142931 -1.50277e-19)
(2.2084 0.0161324 -1.19807e-19)
(2.69448 0.0101885 8.25319e-19)
(3.75727 0.654135 8.39988e-19)
(3.69478 0.138894 -4.41623e-19)
(3.62034 0.404561 2.78922e-19)
(3.44733 0.121415 -2.18609e-19)
(3.25773 0.190675 -5.08527e-19)
(3.04231 0.0861298 0)
(2.8202 0.0866263 8.8761e-20)
(2.60318 0.0698058 -1.51129e-19)
(2.39864 0.0712532 -1.37335e-19)
(2.21657 0.0818579 4.23325e-20)
(2.59238 0.191752 -3.0553e-18)
(3.68499 0.818271 1.99005e-18)
(3.60904 0.337138 -8.51257e-19)
(3.56092 0.584001 0)
(3.38797 0.306449 0)
(3.21461 0.367328 -1.24123e-19)
(3.01279 0.244808 9.61384e-20)
(2.80212 0.229419 1.20838e-20)
(2.59409 0.187057 -1.29765e-19)
(2.39425 0.167617 1.36169e-19)
(2.21477 0.16205 9.74279e-20)
(2.47275 0.326235 -1.58862e-18)
(3.58753 0.961929 1.06026e-18)
(3.51936 0.504773 0)
(3.48178 0.743397 0)
(3.31368 0.467741 -3.69302e-19)
(3.15194 0.52566 4.26249e-20)
(2.96147 0.38743 1.90972e-19)
(2.76177 0.362076 -2.08233e-19)
(2.56561 0.299364 1.57461e-20)
(2.37578 0.263812 4.54674e-20)
(2.2057 0.246525 -1.32925e-19)
(2.35944 0.445942 2.55642e-18)
(3.474 1.09097 -1.03377e-18)
(3.42258 0.650472 3.64025e-19)
(3.38984 0.884027 0)
(3.22635 0.609308 -3.53884e-19)
(3.07387 0.665311 3.04056e-20)
(2.89335 0.514583 0)
(2.70446 0.481472 1.07906e-19)
(2.52159 0.401851 1.20791e-19)
(2.34494 0.353117 -2.34595e-19)
(2.18862 0.313222 1.98598e-19)
(2.23239 0.562835 -9.33606e-19)
(3.33563 1.21065 9.82985e-19)
(3.31576 0.79097 -3.61795e-19)
(3.28535 1.00219 -4.71226e-19)
(3.12851 0.741062 8.3254e-20)
(2.9828 0.782673 7.52606e-19)
(2.81128 0.629248 -6.41862e-19)
(2.63341 0.584157 6.00188e-19)
(2.46409 0.49214 -2.84702e-19)
(2.30219 0.431427 0)
(2.16092 0.373827 0)
(2.08694 0.661768 0)
(3.17984 1.30717 0)
(3.19772 0.917346 -1.89159e-18)
(3.17001 1.10101 9.52448e-19)
(3.02149 0.861537 6.29958e-19)
(2.88136 0.88071 8.75977e-19)
(2.71833 0.730617 0)
(2.55217 0.670001 0)
(2.39565 0.568234 -2.13924e-19)
(2.24897 0.495888 -3.7475e-19)
(2.12328 0.424089 0)
(1.93952 0.751157 1.19581e-18)
(3.00924 1.3865 0)
(3.06788 1.03214 1.2372e-18)
(3.04382 1.18311 -4.47409e-19)
(2.90525 0.969656 -6.36118e-19)
(2.77019 0.961308 -1.17174e-18)
(2.61601 0.816741 5.74409e-19)
(2.46233 0.739244 -6.75616e-20)
(2.3188 0.629331 1.46481e-19)
(2.18791 0.544533 2.49349e-19)
(2.07789 0.460987 2.77946e-19)
(1.7842 0.835435 -6.00658e-19)
(2.81752 1.45617 0)
(2.92108 1.13957 4.80692e-19)
(2.90432 1.25213 -8.50115e-19)
(2.77818 1.06466 0)
(2.649 1.02594 6.61121e-19)
(2.50514 0.885605 -8.51301e-19)
(2.36521 0.790618 3.23615e-19)
(2.23668 0.673638 -3.14511e-19)
(2.12233 0.576696 -3.79344e-19)
(2.02782 0.480864 -2.78161e-19)
(1.61232 0.908288 -1.09619e-18)
(2.59859 1.51303 0)
(2.74998 1.23618 -9.96911e-19)
(2.74646 1.30864 7.74464e-19)
(2.63697 1.14376 1.31122e-18)
(2.51707 1.07432 -6.7965e-19)
(2.38676 0.934485 9.54164e-20)
(2.26325 0.822574 -3.96604e-19)
(2.15248 0.699355 3.18517e-19)
(2.05573 0.592966 7.53892e-20)
(1.97708 0.487851 2.2812e-19)
(1.42269 0.967926 4.93277e-19)
(2.34719 1.55569 -7.39206e-19)
(2.54559 1.31814 4.32132e-19)
(2.56259 1.35034 -1.11962e-18)
(2.47662 1.20179 -7.29558e-21)
(2.37293 1.1035 4.39054e-19)
(2.2622 0.960242 5.31094e-19)
(2.15999 0.833379 2.77825e-19)
(2.0707 0.705229 -1.81901e-19)
(1.99341 0.592754 1.35429e-19)
(1.93133 0.483927 0)
(1.21007 1.01273 -1.00465e-18)
(2.05247 1.58362 5.37249e-19)
(2.29397 1.38077 -1.15269e-19)
(2.34095 1.37192 1.7172e-19)
(2.28962 1.23164 -5.35281e-19)
(2.21429 1.10801 4.0643e-19)
(2.13324 0.959328 0)
(2.05973 0.821953 -4.54795e-19)
(1.99642 0.691808 3.06257e-19)
(1.94057 0.577731 5.33909e-20)
(1.89447 0.470862 -6.61252e-20)
(0.960861 1.0319 7.49835e-19)
(1.69645 1.58791 -1.07841e-18)
(1.97539 1.41079 -1.13399e-18)
(2.06554 1.36067 4.59237e-19)
(2.06535 1.2225 2.98558e-19)
(2.03622 1.08055 -2.23917e-19)
(1.99893 0.928885 0)
(1.96395 0.78858 -4.38684e-20)
(1.9322 0.661557 -8.18541e-20)
(1.90055 0.55091 1.84249e-20)
(1.8716 0.449289 6.27158e-20)
(0.655739 1.00551 0)
(1.25871 1.55012 2.52738e-19)
(1.56991 1.38681 0)
(1.71871 1.29989 0)
(1.78763 1.1655 0)
(1.82412 1.01935 -7.23921e-20)
(1.84674 0.873236 -6.12534e-20)
(1.86203 0.740577 0)
(1.86964 0.62407 -3.58305e-20)
(1.86739 0.522804 3.94169e-20)
(1.85718 0.428912 9.57864e-21)
(0.286141 0.84927 0)
(0.70125 1.39195 1.11842e-20)
(1.03741 1.25358 0)
(1.25325 1.15037 3.40445e-19)
(1.39934 1.03585 -1.85576e-19)
(1.51313 0.910557 8.33921e-20)
(1.60803 0.788124 1.30806e-19)
(1.68533 0.676414 -2.34193e-19)
(1.74325 0.577925 1.67775e-19)
(1.77924 0.493859 0)
(1.7819 0.424687 0)
(-1.3124 0.597136 7.25689e-19)
(-0.559924 1.28337 -4.18176e-19)
(-0.0588462 1.19256 0)
(0.202542 1.07495 1.06338e-18)
(0.362859 0.969585 -8.71527e-19)
(0.484554 0.868431 0)
(0.582797 0.780505 -3.26338e-20)
(0.661517 0.710022 0)
(0.728827 0.651968 0)
(0.788192 0.601221 -1.38082e-20)
(0.888658 0.542032 0)
(5.35295 0.613048 1.80865e-19)
(3.93243 0.408614 -3.10257e-20)
(3.67789 0.468477 -6.30806e-19)
(3.2514 0.392636 1.29616e-19)
(2.85305 0.301191 -9.89061e-20)
(2.52685 0.207997 0)
(2.26392 0.122849 0)
(2.04985 0.0485305 0)
(1.87354 -0.0167042 -2.66688e-20)
(1.72824 -0.0741628 0)
(1.61309 -0.116919 5.66876e-21)
(4.11257 -0.243559 -1.55645e-18)
(2.58427 -0.685664 0)
(3.15397 -0.583657 -5.58929e-19)
(3.14958 -0.476395 1.00761e-18)
(2.90908 -0.352323 -3.91338e-19)
(2.64626 -0.261539 0)
(2.38668 -0.212995 2.30205e-20)
(2.15566 -0.196205 1.76995e-19)
(1.9587 -0.200326 0)
(1.79574 -0.216272 0)
(1.66738 -0.232541 1.19833e-19)
(2.45854 0.186925 -1.65166e-18)
(1.49255 -0.628364 -9.04356e-19)
(2.30032 -0.919358 2.12008e-18)
(2.54937 -0.962926 2.38713e-19)
(2.58974 -0.873355 1.45458e-18)
(2.51811 -0.716247 -1.09897e-18)
(2.35886 -0.570057 7.22491e-19)
(2.17645 -0.467664 0)
(1.99625 -0.404287 0)
(1.8354 -0.372208 -2.9351e-19)
(1.70795 -0.355989 -2.28208e-19)
(1.49455 1.11318 0)
(1.05968 0.0107826 8.93912e-19)
(1.63039 -0.652197 -1.18112e-18)
(1.90811 -0.959549 -7.16521e-19)
(2.1079 -1.05564 -1.02802e-18)
(2.20892 -0.990294 1.60974e-19)
(2.18906 -0.848198 -4.94359e-19)
(2.09522 -0.70732 3.0593e-19)
(1.9697 -0.599307 -2.26734e-19)
(1.8382 -0.525458 0)
(1.72717 -0.472855 -4.04046e-20)
(1.11076 2.02048 3.3346e-18)
(0.957149 0.767889 6.3101e-19)
(1.26271 -0.0958926 0)
(1.47419 -0.632671 6.83397e-19)
(1.69767 -0.93787 -7.62563e-19)
(1.87253 -1.03042 4.38562e-19)
(1.95244 -0.978422 0)
(1.95025 -0.866674 -6.6054e-19)
(1.89035 -0.749957 1.47025e-19)
(1.80193 -0.657678 -2.79808e-19)
(1.71819 -0.583384 2.04768e-19)
(1.11283 2.78289 3.37638e-18)
(1.01953 1.47609 -2.78007e-18)
(1.11952 0.51568 -3.8147e-19)
(1.25086 -0.176389 0)
(1.43368 -0.648886 4.49383e-19)
(1.6103 -0.897616 -5.97135e-19)
(1.73241 -0.965134 -2.08669e-19)
(1.78997 -0.924798 4.49697e-19)
(1.78882 -0.840193 0)
(1.74435 -0.753595 -8.249e-20)
(1.69405 -0.675192 -4.123e-20)
(1.33015 3.42544 1.42818e-19)
(1.16 2.14184 0)
(1.12633 1.1178 1.71625e-18)
(1.17896 0.309415 -2.01611e-18)
(1.29976 -0.290398 1.48135e-18)
(1.44378 -0.670683 -2.75858e-19)
(1.5687 -0.854907 3.40424e-19)
(1.65301 -0.899698 -2.28943e-20)
(1.68991 -0.866853 0)
(1.68205 -0.806753 0)
(1.66644 -0.740898 0)
(1.65856 3.97664 -2.21951e-18)
(1.34272 2.76337 1.53649e-18)
(1.22509 1.68909 0)
(1.20137 0.791087 8.53187e-19)
(1.25603 0.0898235 -1.27411e-18)
(1.35572 -0.399929 4.80181e-19)
(1.46337 -0.688833 -6.38147e-19)
(1.55255 -0.818439 6.80195e-19)
(1.60949 -0.844643 -3.23602e-19)
(1.62717 -0.82005 0)
(1.63572 -0.777126 -1.1729e-19)
(1.92181 4.35774 0)
(1.51405 3.30431 -8.46445e-20)
(1.35837 2.21761 -1.25408e-19)
(1.26647 1.26448 1.42359e-18)
(1.26265 0.481664 -1.02065e-18)
(1.31881 -0.103104 1.01312e-19)
(1.40185 -0.487035 -1.41504e-19)
(1.48465 -0.698548 2.06558e-19)
(1.55019 -0.786209 1.41952e-19)
(1.58594 -0.801651 -1.90928e-19)
(1.612 -0.786363 2.37447e-19)
(2.07248 4.48867 -2.00675e-18)
(1.66133 3.71611 1.26737e-18)
(1.50019 2.71182 3.61399e-19)
(1.35191 1.74755 9.16906e-20)
(1.29889 0.897677 8.967e-19)
(1.31397 0.225187 -8.8598e-19)
(1.36923 -0.250175 6.85943e-19)
(1.43975 -0.543858 -6.14845e-19)
(1.50716 -0.696006 -9.34902e-19)
(1.55632 -0.755423 2.15985e-19)
(1.59697 -0.769665 -2.44429e-19)
(2.19959 4.5188 1.74499e-19)
(1.81253 4.04804 1.3386e-18)
(1.659 3.198 -2.94337e-19)
(1.47218 2.24798 -1.37997e-18)
(1.36843 1.34566 -7.30263e-19)
(1.33771 0.592299 7.40564e-19)
(1.35937 0.0273763 0)
(1.41132 -0.350527 0)
(1.47481 -0.571425 -2.34927e-19)
(1.53368 -0.67974 7.38604e-19)
(1.58836 -0.72563 -2.12605e-19)
(2.30054 4.50149 3.25993e-18)
(1.96741 4.25527 -1.25051e-18)
(1.83128 3.59816 0)
(1.62186 2.72861 0)
(1.47026 1.81118 2.30866e-19)
(1.38956 0.994094 3.44296e-19)
(1.37064 0.346517 -4.96954e-19)
(1.39629 -0.114492 0)
(1.44906 -0.40681 0)
(1.51303 -0.568707 0)
(1.58221 -0.649861 4.33886e-19)
(2.39062 4.46774 -1.61198e-18)
(2.10111 4.35161 0)
(1.99631 3.87267 0)
(1.78673 3.14822 0)
(1.5978 2.2719 -3.74415e-21)
(1.46648 1.42217 -1.02501e-18)
(1.40074 0.707059 1.4489e-18)
(1.39208 0.169121 -2.99924e-20)
(1.42685 -0.194212 0)
(1.49073 -0.412992 0)
(1.57332 -0.53326 -4.20804e-19)
(2.48009 4.43409 0)
(2.21601 4.39889 -5.91308e-19)
(2.14887 4.04636 -1.28846e-18)
(1.95687 3.4867 2.60192e-18)
(1.74581 2.70522 -1.4411e-18)
(1.56731 1.86527 -6.49249e-19)
(1.44947 1.10771 1.49843e-18)
(1.39828 0.505615 -6.91262e-19)
(1.40711 0.0761158 -4.47572e-19)
(1.46468 -0.200055 3.35288e-19)
(1.56029 -0.363834 4.18846e-19)
(2.55889 4.39621 0)
(2.31174 4.41895 1.18705e-18)
(2.28205 4.15116 -4.46182e-19)
(2.11609 3.7369 -6.63659e-19)
(1.90053 3.08279 9.41166e-19)
(1.68595 2.299 -2.06741e-18)
(1.51634 1.53519 5.28378e-19)
(1.41687 0.892124 -6.90756e-19)
(1.39255 0.409362 0)
(1.43685 0.0808457 0)
(1.53895 -0.126378 1.75312e-20)
(2.63222 4.35266 3.19233e-18)
(2.39398 4.41547 -4.87265e-18)
(2.39236 4.20534 1.40499e-18)
(2.25135 3.90769 6.74532e-19)
(2.04684 3.39046 0)
(1.81216 2.70117 0)
(1.59896 1.97247 9.76062e-19)
(1.45099 1.32064 6.65544e-19)
(1.38947 0.805829 -8.68229e-19)
(1.41522 0.436001 6.46677e-19)
(1.52279 0.184813 -3.70051e-19)
(2.69956 4.30194 -4.96023e-18)
(2.46724 4.39175 2.25247e-18)
(2.47898 4.22204 -1.37931e-18)
(2.36187 4.01548 1.78365e-18)
(2.17802 3.6291 0)
(1.93952 3.05723 -1.4308e-18)
(1.69656 2.40064 2.07457e-18)
(1.50657 1.77639 -1.45838e-18)
(1.40795 1.25722 4.00066e-19)
(1.41127 0.864401 -6.40187e-19)
(1.51578 0.579752 3.29277e-19)
(2.7543 4.24331 -3.41456e-18)
(2.5266 4.34804 -2.14697e-19)
(2.54118 4.20528 1.98224e-18)
(2.44425 4.06579 -3.62331e-19)
(2.28832 3.79913 0)
(2.06272 3.35471 0)
(1.80772 2.7957 0)
(1.58952 2.23254 0)
(1.46066 1.73973 4.70871e-19)
(1.44233 1.34656 -5.13889e-19)
(1.53108 1.04994 9.49449e-20)
(2.79937 4.175 -1.84164e-18)
(2.57185 4.28778 2.68226e-18)
(2.58304 4.16417 -4.07627e-18)
(2.49712 4.06517 3.02827e-18)
(2.37217 3.89378 -1.13208e-18)
(2.18126 3.58408 3.9099e-19)
(1.93239 3.13385 2.71389e-19)
(1.70385 2.65529 0)
(1.55848 2.21699 0)
(1.52536 1.847 0)
(1.60912 1.54452 -6.65478e-19)
(2.82887 4.09244 0)
(2.59898 4.20899 0)
(2.60274 4.1031 0)
(2.52908 4.03542 -1.98188e-19)
(2.43271 3.92184 0)
(2.29021 3.72362 -2.0754e-19)
(2.07286 3.39168 -2.83607e-19)
(1.85138 3.00442 5.27345e-19)
(1.70564 2.64012 -1.22385e-18)
(1.66795 2.31657 3.31625e-19)
(1.75333 2.03209 3.42731e-19)
(2.8299 3.9919 -4.29897e-18)
(2.5996 4.10737 6.4088e-18)
(2.59991 4.02802 -7.57362e-20)
(2.55074 3.98621 1.37073e-19)
(2.49111 3.90506 -1.25625e-18)
(2.39336 3.76252 -1.04157e-18)
(2.22471 3.52976 5.74173e-19)
(2.02629 3.22997 -5.53204e-19)
(1.89421 2.94492 8.00458e-19)
(1.86451 2.68057 0)
(1.96209 2.42166 0)
(2.76153 3.88113 1.58836e-19)
(2.56329 4.00483 0)
(2.59928 3.95373 0)
(2.59197 3.91843 0)
(2.57482 3.83019 0)
(2.51068 3.68561 -9.94399e-19)
(2.37509 3.49121 5.29794e-19)
(2.20945 3.26346 5.10098e-19)
(2.09799 3.04149 -2.91665e-19)
(2.08918 2.82693 0)
(2.20964 2.59941 0)
(2.66871 3.89217 -1.99096e-19)
(2.70166 3.90169 4.69195e-18)
(2.71262 3.84626 -6.36518e-18)
(2.7185 3.73738 2.27643e-18)
(2.7041 3.58378 -3.52728e-19)
(2.63024 3.40828 -1.1249e-19)
(2.4963 3.21978 1.67667e-19)
(2.34543 3.02519 1.20056e-19)
(2.2549 2.82874 0)
(2.27831 2.61379 0)
(2.42938 2.32391 -3.62086e-19)
(2.08297 2.20703 -1.76455e-17)
(1.99778 2.60232 6.00955e-18)
(2.23379 2.50659 0)
(2.38958 2.47967 -1.14616e-18)
(2.49977 2.50384 1.22306e-18)
(2.54996 2.51449 2.73366e-19)
(2.51775 2.46979 0)
(2.42449 2.34467 2.75891e-19)
(2.36254 2.174 3.94895e-19)
(2.39898 1.95301 0)
(2.54744 1.64413 -4.39238e-20)
(3.79374 3.00724 -5.45203e-19)
(3.1902 2.63351 -1.52977e-18)
(2.94833 1.8369 3.32098e-19)
(2.71463 1.25891 0)
(2.48569 0.870659 1.6666e-19)
(2.27368 0.602158 2.39126e-20)
(2.08297 0.409163 -5.95594e-20)
(1.91487 0.26441 0)
(1.7693 0.150837 2.68224e-20)
(1.64512 0.059206 -3.87784e-20)
(1.54199 -0.0101518 -2.62746e-20)
(0.234328 3.14933 0)
(1.31771 2.82694 6.26755e-18)
(1.75475 2.41124 -4.64669e-18)
(1.9653 1.86699 3.09557e-19)
(2.02516 1.39217 -3.99459e-19)
(1.98747 1.00964 4.41838e-19)
(1.89591 0.715649 0)
(1.78267 0.4937 0)
(1.66786 0.325132 1.0826e-20)
(1.56194 0.19412 1.08435e-19)
(1.47022 0.0969399 -1.15197e-20)
(-0.696534 2.48928 7.74855e-18)
(0.0807195 2.21457 -5.4405e-18)
(0.570232 2.22797 -4.01842e-18)
(1.0922 2.01115 2.60397e-18)
(1.42874 1.66319 -1.92574e-19)
(1.58571 1.28869 1.53668e-20)
(1.62255 0.960612 0)
(1.5917 0.694605 -2.48782e-19)
(1.52757 0.486106 1.87335e-19)
(1.45241 0.323964 -5.82102e-20)
(1.37661 0.202861 4.4881e-21)
(-0.894835 1.83684 -2.59893e-18)
(-0.22396 1.55739 3.50139e-18)
(-0.0204061 1.74862 1.36159e-20)
(0.376516 1.73431 -1.91867e-18)
(0.75528 1.601 1.62971e-18)
(1.06758 1.37145 -1.136e-18)
(1.25938 1.09857 6.62517e-19)
(1.34314 0.83445 -7.24047e-19)
(1.35608 0.606734 1.19354e-19)
(1.32938 0.423313 2.96518e-19)
(1.27942 0.287201 -7.25578e-20)
(-0.830291 1.30662 7.89499e-20)
(-0.278632 1.02119 -1.72596e-19)
(-0.222005 1.25586 0)
(0.0722649 1.3331 -2.26157e-19)
(0.376872 1.33498 -1.38331e-18)
(0.66503 1.24275 1.0782e-18)
(0.892903 1.07894 -2.39225e-19)
(1.04395 0.881471 7.04093e-19)
(1.1251 0.682905 -7.00253e-19)
(1.15446 0.505067 -1.88081e-19)
(1.14392 0.364472 2.32448e-20)
(-0.682087 0.917928 -3.06956e-19)
(-0.238744 0.63268 2.489e-19)
(-0.262973 0.849169 -1.44016e-19)
(-0.04524 0.946017 0)
(0.183996 1.00972 -5.35179e-19)
(0.429279 1.00467 3.44714e-19)
(0.651972 0.931937 -5.41428e-19)
(0.825996 0.809853 3.48625e-19)
(0.944285 0.663265 0)
(1.01008 0.517411 1.99855e-20)
(1.0271 0.397635 -6.43656e-20)
(-0.504071 0.641034 2.52987e-19)
(-0.155457 0.359431 0)
(-0.223764 0.542049 1.34715e-19)
(-0.054905 0.629452 -5.11305e-20)
(0.109765 0.712189 0)
(0.303823 0.749863 -2.29009e-19)
(0.497098 0.736363 5.48201e-19)
(0.666953 0.675472 2.20988e-19)
(0.800301 0.581074 0)
(0.888415 0.472988 5.64972e-19)
(0.928021 0.376967 -1.48566e-20)
(-0.338454 0.441155 5.04047e-19)
(-0.0706493 0.167955 -1.38706e-19)
(-0.154596 0.313816 -7.61571e-22)
(-0.0105612 0.384628 -1.72259e-20)
(0.106388 0.467696 -1.58118e-19)
(0.25826 0.521517 1.37138e-19)
(0.418402 0.540496 -5.47667e-19)
(0.57172 0.521267 2.18399e-19)
(0.703732 0.469299 0)
(0.802396 0.397635 -2.01148e-19)
(0.85875 0.326679 0)
(-0.188645 0.280922 4.80332e-19)
(0.0111122 0.022113 -7.91998e-20)
(-0.0761975 0.141274 2.32053e-19)
(0.0567741 0.194105 3.34617e-19)
(0.138965 0.274055 -1.85195e-19)
(0.261157 0.33064 4.14874e-20)
(0.392505 0.365106 0)
(0.52575 0.370105 -6.84331e-20)
(0.648883 0.345479 5.93689e-20)
(0.750813 0.298104 0)
(0.81744 0.243211 1.01648e-20)
(-0.0455687 0.151707 7.65551e-19)
(0.0911121 -0.107598 2.01607e-19)
(0.00859705 0.00706239 -1.44958e-19)
(0.129956 0.0434012 -4.03516e-19)
(0.190345 0.119919 2.11741e-19)
(0.290084 0.175595 -9.58015e-20)
(0.397644 0.216562 0)
(0.510632 0.234375 0)
(0.620887 0.225874 -8.22069e-20)
(0.719521 0.194037 0)
(0.792112 0.153191 1.1672e-19)
(0.0662333 0.0699341 -6.92288e-19)
(0.177089 -0.210175 1.61033e-19)
(0.11115 -0.10621 0)
(0.204559 -0.0733506 -7.33461e-20)
(0.252431 -0.00237152 3.39459e-19)
(0.333064 0.052013 -5.41479e-19)
(0.419617 0.0955342 8.48344e-20)
(0.512852 0.119773 -3.65888e-19)
(0.607766 0.120306 1.98399e-19)
(0.69924 0.0976653 -2.00288e-19)
(0.773749 0.0672579 -4.50024e-20)
(0.170399 0.0148649 -9.26577e-19)
(0.2687 -0.277104 -2.68677e-19)
(0.206967 -0.192622 7.19713e-19)
(0.282258 -0.161135 -5.77041e-20)
(0.319748 -0.095569 -4.42546e-19)
(0.383325 -0.0428958 6.18282e-19)
(0.450455 0.00114585 -6.1727e-20)
(0.523925 0.027994 -1.5871e-19)
(0.60127 0.0325439 -1.73203e-19)
(0.681655 0.0133527 3.28854e-19)
(0.752688 -0.0156859 -1.35097e-19)
(0.273448 -0.0266081 1.04844e-18)
(0.362995 -0.327014 -5.47453e-19)
(0.299539 -0.255579 3.01126e-19)
(0.361908 -0.224363 4.13707e-19)
(0.389348 -0.16236 0)
(0.437149 -0.111002 2.07145e-19)
(0.485661 -0.0673797 2.36109e-19)
(0.538845 -0.0405718 3.55191e-19)
(0.596188 -0.0363467 2.69259e-19)
(0.661706 -0.0585311 0)
(0.718686 -0.0928251 0)
(0.386729 -0.0480076 -1.08136e-18)
(0.466439 -0.356208 8.44692e-19)
(0.395771 -0.297207 0)
(0.444132 -0.265221 -8.34233e-19)
(0.461174 -0.205315 1.41471e-18)
(0.493333 -0.154238 -6.7315e-19)
(0.523579 -0.111209 0)
(0.55585 -0.0861434 -4.27638e-19)
(0.590607 -0.0855474 -5.53136e-19)
(0.636859 -0.115474 4.08196e-19)
(0.680484 -0.164805 5.02113e-21)
(0.501549 -0.0437614 1.18136e-18)
(0.56657 -0.359069 0)
(0.492491 -0.315291 7.02671e-19)
(0.527578 -0.283243 -1.05849e-18)
(0.535296 -0.225253 2.78479e-19)
(0.552195 -0.173864 4.70976e-19)
(0.564798 -0.13175 -3.63951e-19)
(0.576347 -0.110066 2.29347e-19)
(0.588401 -0.116862 9.05188e-20)
(0.612381 -0.158359 0)
(0.642893 -0.228526 -1.48561e-19)
(0.616756 -0.0264449 0)
(0.666602 -0.341811 0)
(0.591144 -0.312221 -8.32238e-20)
(0.613253 -0.279908 1.21498e-19)
(0.612265 -0.223174 -8.85641e-20)
(0.614715 -0.171029 1.06213e-21)
(0.610639 -0.129965 3.68381e-19)
(0.602534 -0.112853 -2.81588e-19)
(0.593547 -0.130041 -9.04026e-20)
(0.596103 -0.187611 0)
(0.620395 -0.284068 -1.76675e-19)
(0.736636 0.00680023 0)
(0.773148 -0.303999 0)
(0.695716 -0.288092 0)
(0.704281 -0.255618 6.5376e-19)
(0.694591 -0.19952 -1.21904e-19)
(0.683599 -0.146262 -2.94542e-19)
(0.664177 -0.106306 0)
(0.638444 -0.094751 -1.51454e-19)
(0.61164 -0.124752 0)
(0.596309 -0.202951 -1.56313e-19)
(0.612949 -0.328268 -7.71946e-22)
(0.859879 0.0616339 1.38461e-18)
(0.885143 -0.241809 -2.34102e-18)
(0.807037 -0.240237 1.54311e-18)
(0.803324 -0.208853 -1.69342e-19)
(0.785721 -0.153332 -5.36128e-19)
(0.762967 -0.0988637 -6.02499e-19)
(0.730298 -0.0600498 4.40735e-19)
(0.69019 -0.0547384 1.47027e-19)
(0.650484 -0.0991438 6.27021e-20)
(0.625168 -0.201456 1.9953e-19)