/*--------------------------------*- C++ -*----------------------------------*\
| =========                 |                                                 |
| \\      /  F ield         | OpenFOAM: The Open Source CFD Toolbox           |
|  \\    /   O peration     | Version:  3.0.1                                 |
|   \\  /    A nd           | Web:      www.OpenFOAM.org                      |
|    \\/     M anipulation  |                                                 |
\*---------------------------------------------------------------------------*/
FoamFile
{
    version     2.0;
    format      ascii;
    class       volScalarField;
    location    "0.335534";
    object      epsilon;
}
// * * * * * * * * * * * * * * * * * * * * * * * * * * * * * * * * * * * * * //

dimensions      [0 2 -3 0 0 0 0];

internalField   nonuniform List<scalar> 
21246
(
618.168
288.443
57.0523
14.216
3.38753
0.974347
0.431157
0.291149
0.250567
0.243005
0.251682
824.435
466.887
120.636
24.8402
5.44928
1.41573
0.531013
0.321634
0.268434
0.261775
0.276429
851.226
460.162
156.665
41.1681
8.54541
1.98329
0.671924
0.363309
0.289153
0.281207
0.303179
744.03
409.743
165.176
50.0046
11.7937
2.55383
0.828949
0.411702
0.311123
0.298605
0.323368
600.774
366.454
162.977
54.4039
14.3542
3.24503
0.98453
0.462402
0.333402
0.31368
0.336989
469.296
331.669
159.112
58.2283
17.0219
4.15874
1.18094
0.513232
0.354797
0.326639
0.347093
357.538
303.108
155.432
62.2114
20.0683
5.33975
1.48586
0.584346
0.374917
0.337575
0.356054
266.899
278.926
151.858
65.8885
23.3009
6.78728
1.91581
0.690171
0.402212
0.347053
0.362669
198.7
257.463
149.411
69.6301
26.7853
8.55969
2.5212
0.852858
0.44244
0.358172
0.36722
148.813
238.092
148.652
74.0884
30.8476
10.8196
3.39726
1.11535
0.509437
0.374221
0.371326
111.873
221.187
149.109
79.063
35.378
13.5638
4.60473
1.52743
0.625207
0.402068
0.376514
85.8712
207.507
150.542
84.1545
40.0358
16.6309
6.1375
2.12964
0.818504
0.453769
0.38661
70.1343
196.166
153.146
89.7753
44.9998
20.0571
8.03633
2.97982
1.13178
0.550071
0.40928
63.2124
185.743
156.777
96.4774
50.6439
23.991
10.3804
4.15474
1.62693
0.726292
0.459859
65.4375
178.369
161.453
104.279
56.961
28.3866
13.1518
5.69081
2.36331
1.03062
0.565902
75.179
170.793
166.122
113.822
64.6433
33.5931
16.4941
7.67931
3.42554
1.53298
0.773741
85.0414
157.887
167.3
125.082
74.7251
40.3577
20.7936
10.3234
4.95178
2.3416
1.161
91.9097
140.114
160.908
135.518
87.4837
49.4988
26.6387
13.9767
7.17078
3.62296
1.8528
96.1378
120.635
145.294
139.744
101.311
61.7153
35.0289
19.3786
10.5673
5.70339
3.08099
99.0783
102.678
123.438
132.831
111.541
76.4087
47.1385
27.8495
16.1526
9.28766
5.33123
103.451
87.6934
100.186
115.836
113.341
90.8885
63.5761
41.2762
25.8095
15.8637
9.69123
132.995
81.0567
84.3471
99.048
107.844
100.257
81.0903
59.4392
41.0035
27.4203
17.9879
165.22
85.8896
83.7731
86.1334
88.5966
86.9077
79.384
66.8108
52.3444
39.2201
28.1116
339.609
334.983
274.972
246.458
217.45
183.806
146.834
110.022
79.3784
56.5222
39.5731
527.76
151.468
41.9046
9.5359
2.41022
0.7958
0.392243
0.275739
0.237062
0.225709
0.226887
474.732
120.16
32.4329
9.75206
2.74946
0.919789
0.426566
0.282209
0.233887
0.217793
0.215644
478.294
138.489
32.8874
11.6702
3.80908
1.29758
0.533444
0.3093
0.23794
0.213186
0.206538
435.303
131.582
30.6288
11.9936
4.3241
1.60568
0.667453
0.355541
0.252457
0.215953
0.204477
384.426
111.031
27.8792
11.5143
4.24746
1.63458
0.700075
0.377956
0.263922
0.221814
0.207588
341.297
91.7151
25.0585
10.5673
3.97774
1.60236
0.708405
0.387364
0.27088
0.226556
0.211793
306.711
76.8284
22.5562
9.5904
3.65815
1.52967
0.697621
0.391421
0.27659
0.231508
0.21604
278.081
65.5957
20.3898
8.71867
3.36682
1.45253
0.679605
0.392441
0.282278
0.237891
0.222418
256.489
57.1562
18.6583
8.00154
3.14024
1.38614
0.663621
0.393171
0.287536
0.244265
0.228692
241.059
51.0681
17.2849
7.4447
2.98863
1.33815
0.653599
0.39543
0.293455
0.251567
0.236661
230.939
46.809
16.3089
7.07439
2.90508
1.31467
0.652114
0.400284
0.300349
0.259869
0.246504
224.505
43.7065
15.5875
6.84697
2.87776
1.31536
0.659987
0.408365
0.308333
0.268722
0.256999
222.011
41.5803
15.1202
6.75572
2.91017
1.34392
0.679385
0.420854
0.31778
0.27775
0.267725
222.027
41.645
15.1285
6.8636
3.0373
1.41651
0.717666
0.440594
0.329826
0.287314
0.27794
224.19
42.9089
15.5929
7.17609
3.29528
1.56432
0.797142
0.480335
0.351151
0.300929
0.289363
228.991
45.5583
16.6272
7.74793
3.71065
1.8124
0.935592
0.551806
0.388679
0.322649
0.304336
236.994
49.8466
18.4349
8.6901
4.34232
2.20498
1.16549
0.677791
0.456865
0.361126
0.327927
249.523
55.9227
21.2138
10.158
5.28681
2.81298
1.54185
0.899644
0.584598
0.435495
0.372561
268.734
64.3153
25.3249
12.4174
6.72294
3.76437
2.16374
1.29453
0.83026
0.588107
0.468664
298.315
76.2374
31.4328
15.9381
8.98598
5.30266
3.21949
2.0127
1.31364
0.913061
0.689611
345.8
94.0871
40.7862
21.5706
12.7087
7.90803
5.08719
3.36107
2.28848
1.62102
1.21099
428.955
122.929
55.9861
31.0245
19.1537
12.563
8.55702
5.99298
4.30743
3.18682
2.44272
595.569
182.661
86.7421
49.8849
31.9985
21.9183
15.6655
11.558
8.77044
6.84527
5.5086
1088.67
313.298
163.134
104.19
74.0903
56.0022
43.7195
35.4767
29.7386
25.5306
22.0417
67.1204
62.413
39.5116
27.3064
15.3045
7.2438
3.0781
1.24853
0.511871
0.222274
0.108674
72.9316
50.0238
31.4996
21.4323
12.2703
5.54971
2.26418
0.888979
0.357278
0.153096
0.0728732
61.9241
35.1638
23.1991
15.7611
9.23354
4.32267
1.76715
0.692527
0.27694
0.11739
0.0541372
49.146
24.6094
16.7581
11.3315
6.77613
3.34122
1.43456
0.57949
0.235374
0.0997599
0.0452052
40.3493
18.3457
12.5776
8.48261
5.19199
2.71329
1.23905
0.524354
0.218295
0.0928067
0.0415927
34.1484
14.7708
10.1575
6.88549
4.33583
2.39037
1.15802
0.512673
0.217964
0.0926365
0.0410739
29.4006
12.6401
8.80703
6.06951
3.94422
2.27642
1.15795
0.530916
0.228692
0.096742
0.0423097
26.0344
11.2572
7.98196
5.65467
3.79672
2.27681
1.20308
0.565989
0.245743
0.103387
0.0447793
23.5523
10.3321
7.45331
5.43427
3.75616
2.3258
1.26637
0.607727
0.265569
0.111376
0.0480738
21.6727
9.69674
7.0994
5.30218
3.75603
2.39063
1.3341
0.650895
0.286161
0.119988
0.0518163
20.1778
9.25648
6.84388
5.20376
3.76404
2.4518
1.39713
0.692012
0.306605
0.128812
0.055769
19.0007
8.89291
6.62282
5.10599
3.75803
2.49621
1.44901
0.728505
0.325984
0.137767
0.0600129
18.1739
8.6203
6.43725
5.0149
3.74461
2.53014
1.49434
0.762876
0.345339
0.147126
0.0646334
17.5765
8.46278
6.30626
4.94671
3.73897
2.56674
1.54227
0.800169
0.36692
0.157615
0.0696644
17.204
8.35741
6.20813
4.89525
3.74085
2.60814
1.59572
0.842991
0.392441
0.170163
0.075677
17.076
8.32213
6.15179
4.87051
3.76197
2.6666
1.66545
0.898948
0.426118
0.186636
0.0831688
17.1242
8.39282
6.16314
4.89125
3.82012
2.76005
1.76757
0.979982
0.474891
0.210131
0.0934148
17.4197
8.55901
6.24572
4.96656
3.92802
2.90376
1.91828
1.10005
0.548053
0.245471
0.108427
17.9916
8.84983
6.42683
5.12357
4.11445
3.1277
2.14615
1.28298
0.661991
0.301787
0.131678
18.8879
9.30928
6.76373
5.42313
4.44154
3.4897
2.50052
1.56788
0.844417
0.39563
0.171514
20.1532
10.0126
7.39547
6.01948
5.05592
4.11001
3.06971
2.01804
1.14085
0.556917
0.244857
22.0589
11.4437
8.81342
7.41466
6.38752
5.29109
4.0374
2.74311
1.62516
0.838635
0.385741
23.6431
14.1175
13.9962
12.2507
10.0894
7.96013
5.86994
3.97229
2.42771
1.33273
0.662265
219.986
124.991
79.5757
53.5126
34.3
20.0161
11.566
6.78254
3.98191
2.26578
1.22723
76.1513
50.677
42.9693
32.9603
20.6886
10.7846
4.94679
2.08585
0.856122
0.368039
0.176403
74.1741
33.736
34.3909
35.6983
29.6191
18.6136
9.57873
4.27959
1.74228
0.713511
0.33703
85.7649
34.749
30.4407
33.7283
34.4459
27.5239
17.5771
9.2224
3.95958
1.51823
0.656189
92.9424
38.3434
30.2448
31.9569
35.5376
34.5143
25.5669
15.8441
8.36057
3.35281
1.36566
96.1275
40.1056
30.0308
30.1034
33.923
37.6171
33.9368
23.4032
13.6763
6.84681
2.65152
98.135
40.6228
29.4438
28.0589
30.7053
35.9356
38.5571
31.3844
20.2244
11.1514
5.23646
99.6899
40.5032
28.7987
26.1759
27.1916
31.7326
37.6297
36.6952
27.0242
16.2083
8.47195
100.967
40.4027
28.4548
24.7599
24.1991
27.169
33.5855
37.9113
32.152
21.2802
11.9104
102.87
40.4981
28.5128
23.8677
21.9939
23.3459
28.734
35.6403
34.7307
25.3344
15.3603
105.651
40.9614
29.0355
23.4566
20.5509
20.5984
24.5589
32.1996
35.2745
27.9902
18.1054
109.704
42.1679
30.0671
23.478
19.7695
18.9031
21.5769
28.6642
34.4072
29.307
19.8046
115.27
44.339
31.5157
23.9848
19.5676
18.097
19.8565
25.5597
33.164
29.8886
20.749
123.214
47.4679
33.4917
24.9545
19.8233
17.9259
19.0804
23.1624
30.3097
31.0137
20.7971
133.004
51.4794
36.1115
26.3445
20.2911
17.811
18.361
21.2414
25.911
29.8612
20.7815
145.038
56.8039
39.6537
28.3171
21.0014
17.6355
17.3519
19.0591
21.9128
24.4165
21.5967
160.796
63.8688
44.4667
31.1351
22.1336
17.5779
16.3519
17.0708
18.8185
20.7176
20.861
181.875
73.3302
51.1704
35.3572
24.1246
17.9809
15.6846
15.5724
16.5907
17.9864
18.7832
211.153
86.2109
61.0242
42.3768
28.2034
19.6938
15.7403
14.416
14.4053
14.9658
15.5606
252.958
104.305
77.1307
56.012
38.436
26.6565
20.2905
17.3195
16.1634
15.8943
15.9127
273.767
119.992
95.4037
74.5997
54.518
39.2777
30.3085
26.2542
25.1999
25.5754
26.0337
271.058
118.842
96.8984
79.6121
61.9562
46.6717
35.9916
29.9715
26.9333
23.4642
17.3785
283.955
118.796
95.9464
79.541
64.0292
50.1661
39.0871
31.492
24.7909
16.9131
10.6938
340.295
131.751
95.0728
75.0088
60.2972
48.3347
38.335
28.6347
18.5492
11.3773
6.74034
610.14
147.147
93.6314
67.5533
52.6063
39.978
27.2724
16.7326
9.94842
5.74978
3.21658
1723.94
547.321
153.637
35.5081
8.35305
2.06964
0.541154
0.153999
0.0523171
0.0240322
0.0151114
944.635
257.471
100.218
34.0564
9.64155
2.60194
0.695392
0.19127
0.0598027
0.0248865
0.014788
850.914
241.911
87.0091
34.0401
11.4619
3.44145
0.955487
0.25551
0.0734804
0.0275491
0.0152613
747.301
218.086
75.1924
31.2493
11.0777
3.55229
1.0372
0.288852
0.0840914
0.0306669
0.0163702
655.344
184.844
64.2374
27.502
9.896
3.32254
1.02311
0.301504
0.0916722
0.0336628
0.0175187
584.225
154.725
55.0721
23.7658
8.59917
2.96761
0.949894
0.294646
0.094266
0.0355571
0.0185085
526.664
132.046
47.7678
20.437
7.44352
2.60526
0.856758
0.277041
0.0929955
0.0364087
0.0191341
477.944
114.2
41.6896
17.6604
6.47001
2.28075
0.763316
0.254739
0.0892163
0.0362742
0.0197059
439.841
100.335
36.7162
15.4316
5.67766
2.00834
0.679955
0.232489
0.084508
0.0358006
0.0201407
412.868
90.0213
32.8678
13.7313
5.0667
1.79379
0.611331
0.212807
0.0798316
0.0351593
0.0203113
392.263
82.1793
29.8404
12.4225
4.59783
1.62814
0.556906
0.196412
0.075615
0.0344186
0.0204161
375.182
75.8018
27.3106
11.3628
4.22513
1.49859
0.514208
0.183259
0.0721002
0.0337595
0.0204544
364.044
70.8594
25.2893
10.5414
3.94441
1.40358
0.483017
0.173575
0.069508
0.0333044
0.0205377
358.985
68.4015
23.8596
9.97719
3.76258
1.34496
0.46399
0.167693
0.0680293
0.0331436
0.0207021
357.432
67.345
23.0128
9.65143
3.67728
1.32001
0.456585
0.165711
0.0678222
0.0333934
0.0210597
360.216
67.9599
22.8635
9.60989
3.74474
1.3716
0.479714
0.174262
0.071072
0.0347997
0.0218412
367.437
71.7625
23.8768
10.0103
4.02367
1.52389
0.547504
0.200142
0.0805402
0.0384437
0.0233664
381.477
77.6061
25.996
10.9164
4.5549
1.80833
0.680224
0.254329
0.10118
0.0463092
0.0264767
404.563
86.4024
29.6384
12.5826
5.47806
2.3068
0.925927
0.363006
0.145661
0.0639166
0.0334171
441.113
99.5417
35.5251
15.4655
7.0725
3.19118
1.39008
0.587773
0.246883
0.10725
0.0514028
500.025
119.436
44.8308
20.3435
9.86475
4.8152
2.30705
1.07786
0.493867
0.225429
0.105662
600.762
149.711
59.4224
28.5336
14.839
7.90576
4.20135
2.20017
1.13122
0.572247
0.287041
786.562
199.431
83.7766
42.9078
24.0706
14.0265
8.26503
4.85278
2.81749
1.61236
0.909203
1264.55
206.418
109.309
65.6884
41.5502
26.8645
17.4975
11.3806
7.35349
4.70352
2.97226
2212.07
1213.45
218.42
60.6574
14.645
3.33002
0.77235
0.196524
0.06124
0.0267956
0.0165296
2960.87
1878.41
509.926
112.381
26.5707
6.29128
1.4304
0.33283
0.090906
0.0348416
0.019635
2780.34
1754.04
602.644
159.659
36.9445
9.72386
2.38373
0.55827
0.141744
0.0485611
0.0255534
2185.52
1459.88
569.967
163.309
41.9674
12.4473
3.37759
0.839965
0.211522
0.0684428
0.0349675
1620.85
1230.72
497.146
148.81
42.7865
13.9924
4.17367
1.12201
0.291696
0.092811
0.046315
1205.8
1067.28
429.347
132.667
41.4938
14.5314
4.68642
1.35641
0.369633
0.119319
0.0611009
917.216
947.603
376.043
118.585
39.4249
14.4596
4.95813
1.52562
0.436101
0.14546
0.0780907
715.966
853.859
332.764
106.678
37.1201
14.0757
5.06538
1.63577
0.487977
0.169391
0.0958134
578.849
777.321
298.225
96.9025
34.9147
13.5917
5.08678
1.70563
0.526566
0.190736
0.116095
484.507
710.472
270.761
89.9008
33.1496
13.1758
5.09025
1.7574
0.557159
0.209103
0.137966
418.029
649.768
251.276
85.7654
32.2886
13.0707
5.21467
1.8652
0.610684
0.233776
0.160927
368.548
597.267
235.71
83.1763
32.0776
13.2478
5.45564
2.03343
0.695628
0.271208
0.185341
331.918
550.489
223.887
82.1615
32.5977
13.7732
5.85505
2.2855
0.824245
0.327861
0.214561
303.889
506.54
216.242
83.1925
34.0978
14.7868
6.49066
2.66304
1.01869
0.415233
0.253875
282.161
466.588
210.85
85.5825
36.505
16.3507
7.43498
3.21683
1.31194
0.552443
0.313712
265.466
429.697
207.519
89.4774
40.0094
18.6575
8.83758
4.0458
1.76644
0.777433
0.414147
252.527
394.96
206.098
95.133
44.9244
21.9901
10.9336
5.3205
2.4968
1.1632
0.599339
242.797
362.679
206.041
102.559
51.5305
26.7077
14.0646
7.31858
3.7092
1.85329
0.961725
235.795
332.812
206.836
111.836
60.2462
33.334
18.7521
10.5011
5.77695
3.13127
1.70561
231.216
305.839
207.953
123.113
71.7891
42.7538
25.866
15.6501
9.36912
5.5448
3.26089
226.79
275.925
207.679
136.346
87.3536
56.5989
37.0018
24.1732
15.6865
10.1056
6.46506
232.463
278.883
212.465
152.459
107.26
75.3213
52.7619
36.7903
25.5378
17.677
12.2684
257.957
200.502
166.903
130.859
104.089
81.331
62.193
46.518
34.052
24.4348
17.0929
1517.04
747.245
409.998
247.092
156.414
101.221
66.0389
43.1182
28.0391
18.0936
11.5411
37.2885
31.8451
20.8787
7.14734
2.4936
3.22044
4.13001
8.20985
23.6888
12.7867
13.5257
11.9766
7.94807
3.72594
2.09872
3.48194
10.9874
14.1153
6.59222
8.49128
8.92454
6.80732
3.73369
2.26469
3.9544
10.2952
10.7431
3.49645
5.08118
6.23329
5.56709
3.5916
2.46135
4.44767
8.72908
7.45942
38.6415
38.2302
36.8421
35.3281
34.8964
37.288
37.7692
35.9031
31.8919
11.1491
11.0413
11.0573
11.4998
12.0698
12.3505
12.8195
13.1727
14.0138
5.14143
5.17316
5.55592
5.92762
6.11479
6.12587
6.13672
6.62205
8.53955
2.55894
2.44781
2.63967
2.89548
2.98008
2.93722
3.03466
3.53212
4.93798
0.00900937
0.00829361
0.00834637
0.0552443
0.409758
0.00756163
0.151157
0.00808297
0.00752883
0.00688524
0.409054
0.00811761
0.00874003
0.00483703
0.0146012
0.00728162
0.00531914
0.0565774
0.0072446
0.00710917
0.00664116
0.0638925
0.00851845
0.050327
0.00792652
0.00480139
0.00863988
0.142817
1.89297
0.36576
0.00555848
0.0064021
0.00623442
0.00806701
0.0067556
0.00826349
0.0457012
0.00790887
0.00695075
0.00759439
0.207151
0.00809778
0.0352655
0.00849292
0.802499
0.40089
0.0144376
0.525506
0.00689532
0.00729428
0.352083
0.00761661
0.057338
0.0360415
0.00728683
0.0066699
0.0616809
0.00764005
1.90862
0.0501473
0.0982221
0.0499026
0.515158
0.101068
0.25124
0.00714584
0.226725
0.00714436
0.0082957
0.00687258
0.00544705
0.00702037
0.0463133
0.00730031
0.153633
0.00702482
0.0849429
0.00827624
0.06553
1.05192
0.0344764
0.0792249
0.00793619
0.00838001
0.00692645
0.0497268
3.65955
0.0361119
0.0255964
0.0238421
0.00809323
0.00767978
0.199767
0.00712607
1.02539
0.656737
0.124003
0.00600306
0.0308978
0.00712446
0.00774831
0.443025
0.00675853
0.00613989
0.0326371
0.00811554
0.00536909
0.00845238
0.00647199
0.00665382
0.00797456
0.00814831
0.00713367
0.0388296
0.0498199
0.00769138
0.00753848
0.00730873
0.00793696
0.00671766
0.0390401
0.00728099
0.00706029
0.00512114
0.353446
0.0076594
0.0304875
0.00558425
0.00509056
0.00561962
0.00780408
0.052204
0.493372
0.00701503
0.00833782
0.00802083
0.0681684
0.0430206
0.386737
0.00729985
0.0344541
0.00661461
0.293505
0.00868455
0.00750321
0.0173966
0.0162053
0.00715044
0.00701774
0.00708347
0.00715797
0.00768205
0.0185372
0.00719954
0.0445845
0.0219602
0.0576605
0.0458402
0.00623736
0.00746123
0.00545762
0.033953
0.00701909
0.00771506
0.251641
0.0100064
0.0250674
0.00792991
0.00630305
0.225474
0.00543303
0.00644709
0.00654522
0.00645061
0.00639464
0.00640275
0.00649317
0.020083
0.824373
0.00694827
0.00715968
0.0690455
0.00849743
0.0918076
0.00794336
0.0567022
0.00710457
0.00726023
0.00825063
0.108954
0.00645039
0.00479809
0.00718666
0.174712
0.00832305
0.00759009
0.00740135
0.0324278
0.00577059
0.00856732
0.0234024
0.00726552
0.00679266
0.00573113
0.00838421
0.0342216
0.00712813
0.00506479
0.00736103
0.00740402
0.0226793
0.00759329
0.00827177
0.00668843
0.00792027
0.0808358
0.00797765
0.0181175
0.00714252
0.00823256
0.00843183
0.0426097
0.128465
0.0529969
0.00515023
0.00765714
0.0592359
0.00869097
0.00607559
0.184924
0.0453096
0.00713587
0.00713956
0.00728731
0.0190979
1.01595
0.0978256
0.00844995
0.00813816
0.00809838
0.018507
0.206228
0.00610836
0.119603
0.00726007
0.0357299
0.00800666
0.00604657
0.564275
0.0492543
0.00600714
0.0237179
0.00979541
0.00726758
0.00599043
0.0074432
0.00674433
0.00785828
0.0154543
0.0070904
0.00910892
0.00979723
0.00737825
0.00819414
0.00796867
0.0118392
0.00661111
0.00734188
0.0175669
0.00693824
0.18032
0.00727521
0.00724398
0.0133019
0.00755453
0.00735157
0.00511204
0.00776043
0.00691023
0.035018
0.00705319
0.00827288
0.0353079
0.0831144
0.00600276
0.00757617
1.46131
0.00823472
0.00681133
0.0333654
0.00833776
0.135429
0.00798086
0.0080972
0.00856442
0.00739212
0.00633094
0.00815981
0.00676107
0.00511218
0.00778282
0.0346037
0.0070426
0.376476
0.00678232
0.00662748
0.00827763
0.0107744
0.0656968
0.00741875
0.0995122
0.00816031
0.00642807
0.00607242
0.0907213
0.00655014
0.0062137
0.0308873
0.00670393
0.00714832
0.00709884
0.02085
0.00745892
0.00545478
0.0633978
0.00706089
0.00779017
0.00556006
0.00709082
0.0842302
0.00719937
0.52174
0.0779398
0.00846339
0.00935757
0.795644
0.0558415
0.00823598
0.00784767
0.00587297
0.0301566
0.0246403
0.00723562
0.0121164
0.159777
0.0109096
0.0386354
0.00753419
0.0459605
0.0366729
0.124315
0.00584976
0.00700214
0.00684366
0.014135
0.00860266
0.00876672
0.00695316
0.00849744
0.0801256
0.00985212
0.00484387
0.00800408
0.00799103
0.00725797
0.0239206
0.00607482
0.0160016
0.152134
0.00730474
0.00773749
0.0866064
0.70792
0.00496476
0.012315
0.00830814
0.0090517
0.00671726
0.00750997
0.00710095
0.0393679
0.00753945
0.0187902
0.00768048
0.00477617
0.161429
0.0378599
0.0051884
0.211859
0.0269876
0.00771587
0.061496
0.00534205
0.00778612
0.15908
0.274787
0.00788039
0.00719592
0.00835371
0.046616
0.0151888
0.00764615
0.00850654
0.0329461
0.00646182
0.409789
0.060692
0.0085407
0.00726226
0.0205912
0.00744865
0.00719695
0.00637645
0.0062149
0.0188523
0.0063696
0.00651523
0.00750613
0.00536953
0.0508242
0.232032
0.00681494
0.171475
0.00603728
0.00626526
0.00663462
0.00722003
0.0288525
0.0111288
0.31563
0.00790149
0.018425
0.0048834
0.00662244
0.00882411
0.0119462
0.140513
0.377502
0.00511369
0.00859994
0.00593599
3.34198
0.107592
0.0379235
0.00697814
0.0215047
0.0504437
0.0407092
0.00740372
0.0295953
0.00775712
0.00833517
0.00793722
0.0379327
0.0193644
0.162668
0.00540522
0.0251742
0.0269405
0.00825685
0.00738964
0.0316593
0.0054305
0.00596012
0.00735576
0.142268
0.115432
0.0902244
0.0916647
0.00719195
0.0065612
0.0337102
0.00701912
0.0920477
0.00713079
0.00822569
0.00730849
0.0347633
0.031011
0.00711886
0.00778462
0.00669181
0.167277
0.0729595
0.00845061
0.0160936
0.292568
0.00941974
0.0145723
0.00740069
0.025427
0.00758116
0.00710608
0.00763784
0.00526825
0.00725982
0.00715361
0.00536845
0.00853163
0.00731143
0.00546878
0.00552362
0.00806104
0.00806808
0.573743
0.0152126
0.0358085
0.00721102
0.350771
0.00835623
0.13921
0.0170705
0.0290124
0.00922503
0.00790605
0.13277
0.0395858
0.0053395
0.00779064
0.00633867
0.00666667
0.00826703
0.00768507
0.00817934
0.00692079
0.0397281
0.00799345
0.00744487
0.0656472
0.00775708
0.204149
0.0068394
0.00970819
0.005892
0.024379
0.00856291
0.00786124
0.00840644
0.147829
0.0320331
0.00795421
0.00791785
0.00512843
0.00833992
0.0833857
0.0083033
0.0697403
0.006814
0.0516994
0.00743698
0.00829853
0.43455
0.145991
0.00681628
0.00659285
0.00699426
0.00829842
0.0117064
0.0378053
0.00721273
0.00592808
0.235948
0.589825
0.0079203
0.00727695
0.00827472
0.0527586
0.103619
0.020087
0.00807725
0.00751056
0.0785966
0.00714521
0.00703968
0.00523138
0.00907516
0.305294
0.00772566
0.0210971
0.0078152
0.0391623
0.00734923
0.147555
0.00675413
0.00640963
0.0948213
0.0116753
0.00841326
0.0085462
1.03874
0.00762799
0.00615989
0.0737327
0.0427307
0.0615635
0.0296269
0.00631722
0.00684825
0.00776078
0.00791037
0.64109
0.01112
0.0124189
0.0071148
0.00795135
0.0492971
0.00707478
0.007164
0.00719031
0.00697847
0.00651245
0.0125192
0.042137
0.0180362
0.00619381
0.0102402
0.00724594
0.0300425
0.00698371
0.00780806
0.612217
0.0311759
0.0075529
0.00755904
0.064932
0.00672259
0.00737218
0.0194186
0.0083092
0.00686508
0.00758544
0.00784916
0.0082818
0.00497179
0.00631214
0.0452263
0.0146287
0.0271209
0.0204898
0.00635517
0.0243873
0.0553717
0.0091281
0.00836285
0.00683831
0.0617962
0.00604687
0.00700064
0.0071825
0.00490784
0.0353892
0.506982
0.00608866
0.00725767
0.00769837
0.0120226
0.00812387
0.00722589
0.00693136
0.0104315
0.00694432
0.00725542
0.00694314
0.00825002
0.126633
0.0564948
0.179329
0.00698217
0.00706636
0.00754821
0.0277546
0.00712779
0.164085
0.00709539
0.18444
0.0168613
0.00771963
0.0119975
0.00849531
0.00611291
0.0993959
0.00660788
0.539082
0.0055283
0.00663943
0.00841669
0.0134452
0.00542955
0.0392737
0.0299914
0.00750495
0.00638844
0.00840314
0.00784187
0.00696794
0.0146582
0.00812485
0.00763844
0.00760531
0.00876099
0.0310399
0.00816501
0.00838134
0.00750504
0.00824062
0.00624688
0.00647855
0.080773
0.0995231
0.00830428
0.00634473
0.00583702
0.00685125
0.0206165
0.00581306
0.159245
0.00784297
0.0055444
0.00792246
0.00719594
0.0923992
0.0134312
0.0267161
0.0048376
0.00715973
0.00684971
0.00669063
0.0226717
0.00823868
0.0502884
0.0313611
0.0698537
0.00664915
0.0102559
0.0330335
0.064839
0.00730771
0.0069049
0.0289909
0.0294749
0.00803306
0.00484877
0.21896
0.00811532
0.181006
0.00991085
0.00726805
0.177881
0.00754429
0.00708715
0.00681465
0.00840825
0.00707804
0.0050234
0.00818498
0.00613609
0.00699789
0.00785986
0.015658
0.0302778
0.00625455
0.00722279
0.126755
0.358487
0.00782504
0.00488198
0.00709554
0.0274111
0.00985856
0.0479314
0.00802935
0.0469291
0.0074661
0.00885075
0.00720232
0.00690838
0.00766288
0.0523532
0.0600123
0.00860549
0.00790487
0.00734548
0.318631
0.0230614
0.0062859
0.0081886
0.00564526
0.00789331
0.00813623
0.008219
0.00837479
0.00789325
0.00725463
0.00627855
0.0582598
0.0697923
0.00568882
0.0079047
0.00769182
0.00794346
0.00670506
0.0628099
0.00827364
0.00629474
0.00778466
0.301798
0.0325661
0.0331057
0.00778306
0.0429081
0.00770534
0.00783872
0.303494
0.00715047
0.00815128
0.00714025
0.00844513
0.00599597
0.00590302
0.00813987
0.010725
0.131977
0.0449005
0.00814705
0.00508701
0.0257778
0.0308111
0.0527652
0.00842814
0.00718248
0.0638378
0.0109305
0.0254484
0.00829253
0.00694489
0.00719669
0.00732745
0.00823945
0.0926538
0.00639462
0.182013
0.218221
0.0324779
0.00809194
0.472449
0.00853052
0.00709286
0.00700876
0.00791063
0.00766473
0.00769115
0.0290001
0.059238
0.0221298
0.00765221
0.0407725
0.0076767
0.00859973
0.00728841
0.0075431
0.00731114
0.00793608
0.00814619
0.00716289
1.2491
0.00754125
0.00713604
0.0134548
0.19833
0.00713398
0.00796442
0.0498209
0.960172
0.00707832
0.00771348
0.00877309
0.044979
0.00846023
0.00808984
0.00701846
0.00860703
0.0244385
0.0082679
0.0631473
0.00810855
0.0148163
0.00696082
0.00820794
0.00533654
0.0288557
0.00776287
0.00730882
0.00723215
0.00831166
0.0059947
0.241232
0.00659752
0.014042
0.0589609
0.0290385
0.00601951
0.0493327
0.00850954
0.00813952
0.00572314
0.00702714
0.00522547
0.00762185
0.23933
0.00716053
0.00798566
0.00730662
0.00498881
0.00632954
0.0343213
0.00583007
0.00693885
0.00804728
0.0998581
0.0620022
0.0328255
0.00710834
0.00770074
0.00704767
0.00776901
0.05164
0.00753431
0.00830102
0.00609963
0.274515
0.110057
0.0388775
0.00525994
0.00484154
0.0778211
0.410703
0.00801996
0.00722256
0.0385454
0.00759393
0.016199
0.00791821
0.0184991
0.00706297
0.00834256
0.0083038
0.00784865
0.00844783
0.00765362
0.00655363
0.0558591
0.00711849
0.00780365
0.00717358
0.0098415
0.00825519
0.0472452
0.00689912
0.00684268
0.374825
0.0166158
0.0498672
0.00832443
0.00913937
0.00644459
0.00827473
0.0274125
0.00645464
0.0361271
0.206401
0.00607274
0.0105551
0.00652824
0.00739605
0.0122439
0.00739472
0.00707537
0.00994715
0.00813293
0.954785
0.00840805
0.585799
0.00813204
0.0214243
0.0819832
0.352178
0.00838084
0.00635293
0.00855523
0.00506133
0.184265
0.00815429
0.00890495
0.10858
0.0180277
0.0649831
0.00641465
0.00781059
0.0073519
0.0486031
0.00705051
0.182047
0.0100139
0.00957503
0.118844
0.00827412
0.0114421
0.0353493
0.0298728
0.0177187
0.0220112
0.00756121
0.0116297
0.00497514
0.00810507
0.00780958
0.0085657
0.153918
0.00662366
0.00831277
0.00538863
0.0279315
0.0048782
0.00802551
0.116214
0.0130733
0.00689056
0.00869187
0.00813546
0.0070218
0.00730468
0.200962
0.00723114
0.0430097
0.00614324
0.0309982
0.00796999
0.00695016
0.00796402
0.00752355
0.0334806
0.164296
0.0318677
0.729923
0.307899
0.410738
0.00680816
0.00709618
0.0341828
0.00838727
0.00630617
0.0624858
0.00685512
0.100815
0.00592793
0.166138
0.00693299
0.00519635
0.00812123
0.0995899
0.00862471
0.529995
0.00651379
0.00746142
0.0536215
0.0236098
0.00688981
0.0161029
0.0265994
0.0465179
0.0339596
0.0199186
0.301534
0.00557706
0.0352936
0.401299
0.0102501
0.00832444
0.00579456
0.0072992
0.00504503
0.00537152
0.0439582
0.00772443
0.013596
0.738412
0.00751238
0.0071631
0.00736323
0.00818435
0.00849119
0.00548583
0.00691187
0.00573487
0.342126
0.00727204
0.606247
0.0836361
0.00770517
0.161535
0.0533744
0.0132183
0.00773717
0.0144637
0.00768172
0.00804633
0.131272
0.00750348
0.00824221
0.00533802
0.00809806
0.00719779
0.154227
0.00746341
0.701971
0.0143366
0.0573318
0.00723333
0.0125405
0.034424
0.0053305
0.324721
0.00776702
0.0100794
0.0423331
0.0061958
0.0113497
0.0304071
0.00735485
0.00747309
0.149297
0.011606
0.00644135
0.00732779
0.0187475
0.00693352
0.0151764
0.0317473
0.195963
0.00712815
0.00860378
0.0079771
0.00622361
0.00694981
0.00490238
0.0353061
1.21787
0.00805094
0.023984
0.0280463
0.00819667
0.0286446
0.00710288
0.0070658
2.01489
0.0365602
0.391429
0.197123
0.00815573
0.00793046
0.0224912
0.258774
0.0248473
0.281761
0.00501977
0.00816677
0.00716062
0.00533812
0.0220768
0.0484185
0.00703585
0.00737453
0.0276882
0.0422199
0.0444458
0.00681754
0.0635439
0.293504
0.00637614
0.00555568
0.00725445
0.00716268
0.248241
0.00507026
0.00663735
0.0151212
0.00769923
0.00650924
0.380379
0.0740979
0.00834286
0.104422
0.0286977
0.00750662
0.194988
0.0826403
0.00836056
0.00523243
0.0201282
0.00660366
0.0390581
0.00807203
0.00768097
0.00692599
0.107949
0.00714021
0.00745458
0.0396144
0.00833688
0.00814495
0.00859552
0.00512339
0.00771141
0.0114052
0.0179498
0.00815131
0.443143
0.0428132
0.00585937
0.0261752
0.00770184
0.00498026
0.0326832
0.00801951
0.00816069
0.00788302
0.00640983
0.00793863
0.00717514
0.00797461
0.0504397
0.0365104
0.00549357
0.0221134
0.00688079
0.079593
0.0175474
0.0085549
0.00682546
0.0159002
0.00537777
0.00674281
0.00631829
0.00666735
0.00679192
0.00795282
0.0358444
0.0159504
0.02407
0.0360753
0.00859361
0.00999239
0.0365934
0.0127095
0.0105962
0.007587
0.0336946
0.0711761
0.156617
0.00518793
0.00662332
0.0256436
0.00585534
0.00796231
1.03081
0.0057119
0.00670566
0.0187129
0.0187186
0.0058412
0.0301652
0.0695608
0.00504424
0.606012
1.03085
0.00790182
0.00715417
0.0487377
0.158224
0.0104536
0.00811375
0.0062412
0.00839057
0.00718759
0.0874742
0.00761408
0.00845356
0.157282
0.0407458
0.00726816
0.0077052
0.00758569
0.00678829
0.00857819
0.00713701
0.0109976
0.00702732
0.00879635
0.00803163
0.0190038
0.00818022
0.0460548
0.0077
0.0209399
0.00837383
0.0078646
0.0677518
0.162566
0.00706329
0.00781947
0.00648167
0.00712786
0.00826595
0.00770488
0.00622778
0.00738486
0.00617606
0.00761379
0.0254861
0.00510233
0.0471094
0.00847641
0.0913128
0.0078918
0.00670071
0.00728704
0.00838128
0.00802799
0.174907
0.00714257
0.0427006
0.00789784
0.00800625
0.419502
0.00844605
0.00855179
0.110907
0.0890129
0.0377368
0.00754145
0.0199022
0.00789195
0.0859398
0.00602943
0.161712
0.00734628
0.0057853
0.0261161
0.00764402
0.032127
0.00719471
0.0153447
0.0218666
0.00722962
0.00722425
0.00715288
0.140183
0.0139628
0.00476606
0.0349124
0.00641981
0.00593913
0.00840049
0.010424
0.0237433
0.00751035
0.00812044
0.0390659
0.00703367
0.00692472
0.00682909
0.00511892
0.00789626
0.0191402
0.0242806
0.00720866
0.0185182
0.00798122
0.00751024
0.00700619
0.964
0.00754751
0.00694805
0.0185376
0.032151
0.00820228
0.00706823
0.028966
0.0105637
0.00662762
0.00713995
0.00653277
0.0284184
0.00754306
0.00693527
0.0880376
0.0071403
0.00830124
0.00725773
0.00685879
0.00790849
0.0121343
0.00762789
0.03468
0.00563481
0.0134049
0.00812898
0.00484054
0.0274715
0.00689622
0.00689638
0.00764391
0.00709686
0.039133
0.0136554
0.00494648
0.00845509
0.00713667
0.360402
0.0078514
0.00711902
2.293
0.00675267
0.00712055
0.00721763
0.00711424
0.00643139
0.00631446
0.0115229
0.00503864
0.0325754
0.00712025
0.00760925
0.0118666
0.00520916
0.00748346
0.00645774
0.00559706
0.00728103
0.0554611
0.00855494
0.0135556
0.00747106
0.00686803
0.00646053
0.00580564
0.0132253
0.00795656
0.00721748
0.0066968
0.00756554
0.00836263
0.0464335
0.0376781
0.0973536
0.00981009
0.0403588
0.00684792
0.00757003
0.00744339
0.300627
0.00726555
0.00589968
0.383669
0.00722163
0.0728273
0.127027
0.00703464
0.0081017
0.00669572
0.00525671
0.00506146
0.00698846
0.00847692
0.00742082
0.0318982
0.00509188
0.0347787
0.00782552
0.0283326
0.0454469
1.01533
0.00857716
0.00890649
0.00505573
0.0082871
0.0068367
0.0174649
0.00790231
0.0113432
0.0051294
0.0101839
0.00521078
0.0244001
0.0204239
0.0224244
0.0650709
0.00781531
0.138193
0.00863672
0.00659885
0.00592802