/*--------------------------------*- C++ -*----------------------------------*\
| =========                 |                                                 |
| \\      /  F ield         | OpenFOAM: The Open Source CFD Toolbox           |
|  \\    /   O peration     | Version:  3.0.1                                 |
|   \\  /    A nd           | Web:      www.OpenFOAM.org                      |
|    \\/     M anipulation  |                                                 |
\*---------------------------------------------------------------------------*/
FoamFile
{
    version     2.0;
    format      ascii;
    class       volScalarField;
    location    "0.189577";
    object      nut;
}
// * * * * * * * * * * * * * * * * * * * * * * * * * * * * * * * * * * * * * //

dimensions      [0 2 -1 0 0 0 0];

internalField   nonuniform List<scalar> 
21246
(
4.53548e-05
0.000263053
0.000451999
0.000631787
0.000716212
0.000713362
0.000688747
0.000679324
0.000666759
0.000621068
0.000559001
3.33572e-05
0.000146031
0.000282917
0.000432929
0.000553475
0.000611168
0.000623977
0.000646824
0.000654957
0.000616464
0.000547252
2.7314e-05
9.78493e-05
0.000203748
0.000323639
0.000436641
0.000512932
0.00054227
0.000555134
0.00059759
0.00061095
0.000535058
2.2158e-05
8.24545e-05
0.000163913
0.000259526
0.000358837
0.000438152
0.000477976
0.000484169
0.000501332
0.000546718
0.000526527
1.7389e-05
8.25586e-05
0.000145282
0.000221548
0.000306298
0.000381716
0.000427555
0.000436209
0.000432721
0.000451968
0.000475299
1.66743e-05
9.52814e-05
0.000145227
0.000203287
0.00027231
0.000339963
0.000387531
0.000401255
0.000390602
0.000383322
0.000396544
1.67499e-05
0.000116143
0.00015881
0.000201042
0.000254008
0.000311124
0.000356467
0.000374044
0.000363255
0.000342228
0.000333172
1.60302e-05
0.000122584
0.000171507
0.000207107
0.000247316
0.00029315
0.000333318
0.000352077
0.000343068
0.000316709
0.000292241
1.54201e-05
0.000117259
0.000175557
0.000212748
0.000246517
0.000282574
0.000316165
0.000333583
0.000325835
0.000298052
0.000265513
1.47101e-05
0.000111899
0.000170044
0.000210424
0.00024537
0.000275168
0.00030234
0.000316806
0.000309176
0.000281479
0.000245622
1.38995e-05
0.000105483
0.000160303
0.000199936
0.000238416
0.000267069
0.000289124
0.000300101
0.000291778
0.000264829
0.000228474
1.30639e-05
9.86533e-05
0.000149647
0.000187556
0.000223997
0.000255717
0.000274508
0.000282405
0.000273342
0.00024782
0.000213169
1.22097e-05
9.13268e-05
0.000139699
0.000175414
0.000208561
0.000240124
0.000258238
0.000264206
0.000255267
0.000232244
0.00020115
1.13519e-05
8.36687e-05
0.000130886
0.000165536
0.000195726
0.00022456
0.00024273
0.000248546
0.000241368
0.000222351
0.000196041
1.05639e-05
7.61273e-05
0.000123102
0.000158824
0.000188025
0.00021447
0.000233098
0.000241244
0.000238262
0.000224979
0.000204241
9.84591e-06
6.85956e-05
0.000115493
0.000153916
0.000185485
0.000212812
0.000234756
0.000249377
0.000254296
0.000248508
0.000232282
9.16352e-06
6.11067e-05
0.000107393
0.000148465
0.000185232
0.000218448
0.000249931
0.000277308
0.000294547
0.000296636
0.000280095
8.49522e-06
5.48772e-05
9.96464e-05
0.000142211
0.000184905
0.000229
0.000275434
0.000318748
0.000348286
0.000355147
0.000333141
7.7859e-06
5.07818e-05
9.42338e-05
0.00013956
0.000189289
0.00024283
0.000293844
0.000337668
0.00036803
0.000377455
0.00035566
7.16829e-06
5.31589e-05
0.000100487
0.000147911
0.000189084
0.000215926
0.000225556
0.000230025
0.000247529
0.000271989
0.000286416
7.79954e-06
5.77675e-05
9.8803e-05
0.00011889
0.000125889
0.000120039
0.000133552
0.000156986
0.000181729
0.000200258
0.000204118
7.52344e-06
4.75368e-05
6.10038e-05
5.98179e-05
7.38898e-05
9.8494e-05
0.000129382
0.000163174
0.000195964
0.000222145
0.000228784
6.03528e-06
1.78811e-05
2.97164e-05
5.27972e-05
8.37779e-05
0.000121297
0.000162012
0.000202082
0.00023895
0.000269332
0.000283019
7.2547e-06
2.12727e-05
4.79822e-05
8.74663e-05
0.000136405
0.000188442
0.000236609
0.000276367
0.000306014
0.000324498
0.000330173
4.3492e-05
0.000362073
0.000608226
0.000737979
0.00076898
0.000744793
0.000714587
0.000700544
0.000683202
0.000634229
0.000569534
2.75123e-05
0.000277204
0.000564141
0.000750166
0.000814022
0.000799999
0.000765856
0.000744988
0.00072281
0.000664598
0.000578067
2.1359e-05
0.000229537
0.000510362
0.000734365
0.00084289
0.000855509
0.000826913
0.000803599
0.000781469
0.000718046
0.000607224
1.72606e-05
0.000190279
0.000451641
0.000686021
0.000833435
0.000886578
0.000880133
0.000865033
0.000852476
0.000794701
0.000661723
1.34381e-05
0.000136172
0.000360214
0.00058263
0.000759416
0.000863546
0.000900249
0.000911781
0.000927716
0.000905349
0.000780674
1.17476e-05
0.000109039
0.000275606
0.000466008
0.000640056
0.000771292
0.000843465
0.000878604
0.000922485
0.00096156
0.000903436
1.21287e-05
9.86066e-05
0.000230346
0.000390151
0.000551921
0.00068797
0.000777184
0.000824486
0.000879486
0.00096304
0.000988078
1.3207e-05
9.73336e-05
0.000211508
0.000348689
0.000495715
0.000629879
0.000724297
0.000772214
0.000817545
0.000917478
0.00101618
1.43646e-05
0.000100206
0.000207102
0.000330526
0.000464658
0.000591539
0.000687213
0.000733561
0.000756299
0.000840083
0.00098482
1.54656e-05
0.000105206
0.000209141
0.000324209
0.000447754
0.000567888
0.000661835
0.000708492
0.000711721
0.000752918
0.000903521
1.64459e-05
0.0001099
0.000212334
0.000322954
0.000437558
0.000550179
0.000641585
0.000690167
0.000685914
0.000679135
0.000791909
1.73846e-05
0.000116028
0.000219752
0.00032518
0.000431356
0.000534517
0.000620778
0.000671291
0.00066886
0.000633178
0.000675639
1.81382e-05
0.000121522
0.000226547
0.000328836
0.000427374
0.000519103
0.000596405
0.000646723
0.000651197
0.000606338
0.000590113
1.86982e-05
0.0001262
0.00023306
0.00033308
0.000424368
0.000503656
0.000568232
0.000614635
0.000627198
0.000586997
0.000535158
1.9032e-05
0.000129844
0.000238921
0.000337134
0.000421812
0.0004887
0.000538372
0.000576698
0.000594909
0.000566676
0.000501688
1.9134e-05
0.000132821
0.000244696
0.000341345
0.0004196
0.000474308
0.000509024
0.000536544
0.000555524
0.000540695
0.000481798
1.90204e-05
0.000135804
0.000251042
0.000345868
0.000416818
0.000460166
0.000481968
0.000498686
0.000513635
0.000508241
0.000464949
1.86343e-05
0.00013889
0.000257295
0.00034889
0.000412736
0.000447221
0.000458761
0.00046561
0.000474606
0.000473013
0.000447603
1.79079e-05
0.000140644
0.000259016
0.000347504
0.000407351
0.000436841
0.000440972
0.000438689
0.000440638
0.000438718
0.000422382
1.66286e-05
0.000137018
0.000253491
0.000342138
0.000402062
0.000430102
0.000429523
0.000419022
0.000413269
0.000408157
0.000395394
1.45144e-05
0.000127359
0.000240938
0.000332168
0.000395975
0.000425842
0.000423433
0.000406603
0.000393604
0.000384255
0.000371978
1.19873e-05
0.000111148
0.00021727
0.000314162
0.000384826
0.00041965
0.000419192
0.000399639
0.000381404
0.000368557
0.000356593
8.90301e-06
7.87568e-05
0.000184586
0.00028552
0.000362161
0.000403344
0.000410081
0.000394272
0.000374931
0.000360533
0.000348785
6.37791e-06
7.6123e-05
0.000158885
0.000249348
0.000314346
0.00035709
0.000376872
0.000376574
0.000365863
0.000355094
0.000345938
5.77779e-05
0.000342631
0.000455656
0.000498144
0.000512528
0.000520077
0.000526488
0.000527634
0.000516914
0.000484319
0.000426718
3.86867e-05
0.000279856
0.000435041
0.000499358
0.000518686
0.000523328
0.000523464
0.000519061
0.000505351
0.000474022
0.000420252
3.13352e-05
0.000247351
0.000415274
0.000503413
0.000532951
0.000539116
0.000538222
0.000531998
0.000516506
0.00048455
0.000429775
2.96599e-05
0.000218885
0.000396807
0.000506279
0.000548491
0.000557849
0.000558115
0.000552675
0.000536826
0.000503311
0.000447793
2.95546e-05
0.000192492
0.000358952
0.000481714
0.000542212
0.000560232
0.000559165
0.000548597
0.000528814
0.000495144
0.000439645
3.01099e-05
0.000181126
0.000335952
0.000452417
0.000517032
0.000544571
0.000551665
0.000548118
0.000534557
0.000506626
0.000456823
3.08946e-05
0.000171837
0.000317586
0.00042699
0.000491053
0.000523179
0.000538181
0.000543162
0.000536055
0.00051113
0.000461126
3.18679e-05
0.000164441
0.000302234
0.000404614
0.000466372
0.000500801
0.000521582
0.000533974
0.000534286
0.000516634
0.000474379
3.27623e-05
0.000158027
0.00028909
0.000385357
0.000444452
0.000480044
0.000505252
0.000524204
0.000531752
0.000519769
0.000478068
3.34176e-05
0.000151457
0.000276951
0.000368573
0.000425619
0.000462104
0.00049085
0.000515187
0.000528338
0.000519024
0.000474261
3.39603e-05
0.000144959
0.000265712
0.00035384
0.000409522
0.000446927
0.000478627
0.000507285
0.000524653
0.000517989
0.000477981
3.44105e-05
0.000139198
0.000255798
0.000341047
0.000395776
0.000434152
0.000468477
0.000500859
0.00052193
0.000517898
0.000479226
3.46219e-05
0.000133562
0.00024666
0.000329763
0.000384063
0.000423602
0.000460444
0.000496333
0.000521003
0.000519308
0.000479705
3.46101e-05
0.00012739
0.000237501
0.000319396
0.000373987
0.000415019
0.000454411
0.000493738
0.000521887
0.000522412
0.000485053
3.43323e-05
0.000121276
0.000228645
0.000309821
0.000365166
0.000407972
0.000450008
0.000492831
0.000524561
0.000527161
0.000488603
3.37562e-05
0.000114832
0.000219636
0.000300609
0.00035724
0.000402162
0.000446985
0.000493465
0.00052911
0.000534017
0.000494949
3.29324e-05
0.000106786
0.000208941
0.000290833
0.000349507
0.000396974
0.000444721
0.000495052
0.000535228
0.000543103
0.000504204
3.16772e-05
9.68734e-05
0.000194849
0.000277199
0.000338053
0.000387737
0.000437621
0.000491533
0.000537762
0.000551631
0.000516238
2.99606e-05
8.52652e-05
0.000176805
0.000258842
0.000321249
0.000371358
0.000419342
0.000470747
0.000517677
0.000537327
0.00051352
2.77451e-05
7.209e-05
0.000154255
0.000234528
0.000297976
0.000347432
0.000390492
0.000433417
0.00047336
0.000494087
0.000484502
2.49639e-05
5.79676e-05
0.000127523
0.000203355
0.000266975
0.000315551
0.000352923
0.000384502
0.00041133
0.000425452
0.000422811
2.15569e-05
4.43538e-05
9.91808e-05
0.000166377
0.000227827
0.000275284
0.000308307
0.000330286
0.000343878
0.000347281
0.000340825
1.7358e-05
3.16714e-05
7.1122e-05
0.000126694
0.00018188
0.000226153
0.000256107
0.000272899
0.000278872
0.000274981
0.000263148
1.22599e-05
3.00706e-05
6.44625e-05
0.000100365
0.000136391
0.000167221
0.000189587
0.000202685
0.000207018
0.000203265
0.000192881
5.26345e-05
0.000222558
0.00029275
0.000377732
0.000495272
0.000539908
0.000576818
0.000575361
0.000557463
0.000517149
0.000452572
3.72646e-05
0.000122223
0.00018665
0.000244827
0.000303052
0.00035227
0.000500011
0.000618927
0.000610011
0.000562127
0.000488266
3.14153e-05
8.61659e-05
0.000143272
0.000191605
0.000235934
0.00027257
0.000336988
0.000546051
0.000660201
0.00061821
0.000536418
2.54933e-05
8.42141e-05
0.000123814
0.000162516
0.000199479
0.000230618
0.000269408
0.000388459
0.000653552
0.000682781
0.000600174
2.95085e-05
0.000100221
0.000123724
0.000149311
0.000177454
0.000203364
0.000231503
0.000303617
0.000500794
0.000721876
0.000671678
3.5393e-05
0.000153035
0.000150855
0.000153997
0.000167747
0.000185586
0.000206421
0.000254206
0.000387452
0.000621792
0.00073087
4.00719e-05
0.000213273
0.000209576
0.000181956
0.000172025
0.000176581
0.000189474
0.000222871
0.00031647
0.000508002
0.000700387
4.30027e-05
0.00024251
0.000284721
0.000234356
0.000192552
0.00017706
0.000179356
0.000202415
0.000272191
0.00042281
0.000622355
4.54969e-05
0.000268357
0.0003655
0.000310929
0.000232037
0.000188131
0.000175621
0.000189167
0.000243523
0.00036428
0.000542916
4.74733e-05
0.000287485
0.000415419
0.000391483
0.00028804
0.000210201
0.000178173
0.000181377
0.000224474
0.000324109
0.000476828
4.88223e-05
0.000303761
0.000453252
0.000465582
0.000355411
0.00024277
0.000186868
0.000178109
0.000211786
0.00029588
0.000425277
4.96343e-05
0.000313901
0.000481613
0.000528414
0.000426698
0.000283548
0.000201019
0.000178882
0.000204036
0.000276212
0.000385624
4.98568e-05
0.000319954
0.000499894
0.000568278
0.000491172
0.000328602
0.000219394
0.000183148
0.000200246
0.000262661
0.000355291
4.95564e-05
0.000319412
0.000506079
0.000589398
0.000541756
0.000373399
0.000240471
0.000190407
0.000199853
0.000253585
0.000332438
4.88632e-05
0.000311079
0.000499563
0.000593018
0.00057402
0.000412455
0.00026198
0.000200164
0.000202777
0.000248365
0.000315033
4.76681e-05
0.0003001
0.000483633
0.000576754
0.000583733
0.000441359
0.000281644
0.000211981
0.00020919
0.000247005
0.000301654
4.58442e-05
0.000285296
0.000460492
0.000545336
0.000560593
0.000460476
0.000298675
0.000226275
0.000219894
0.000250295
0.000292495
4.32992e-05
0.000266236
0.000430992
0.000505
0.000516949
0.000459722
0.000317421
0.000245161
0.000236805
0.000259508
0.000287924
4.01161e-05
0.000243556
0.0003974
0.000461672
0.000470497
0.000437148
0.000346536
0.000275504
0.000265042
0.000278137
0.000292177
3.64837e-05
0.00021897
0.000362597
0.000421744
0.000431434
0.00041966
0.000380753
0.000328337
0.000310396
0.00030968
0.000304655
3.27625e-05
0.000200154
0.000337512
0.000392358
0.000405815
0.000406046
0.000393534
0.000368562
0.000342939
0.000324325
0.00028778
2.99544e-05
0.000214172
0.000314584
0.000343094
0.000330591
0.000286759
0.000244193
0.000208788
0.000178221
0.000151626
0.000126306
1.76727e-05
0.000123419
0.000141393
0.000119686
9.54874e-05
8.10447e-05
7.11728e-05
6.42511e-05
5.90504e-05
5.47964e-05
5.08494e-05
9.10493e-06
1.08993e-05
1.36305e-05
1.75645e-05
2.32965e-05
3.07814e-05
3.94217e-05
4.81865e-05
5.59121e-05
6.16317e-05
6.47681e-05
2.79584e-05
6.47429e-05
5.77268e-05
5.56156e-05
4.61437e-05
3.6389e-05
3.0303e-05
2.66885e-05
2.4166e-05
2.21276e-05
2.0361e-05
2.41754e-05
6.62198e-05
4.53912e-05
5.9572e-05
4.96218e-05
3.79712e-05
3.02392e-05
2.58172e-05
2.29167e-05
2.07344e-05
1.90136e-05
2.46605e-05
6.01242e-05
4.25996e-05
5.54677e-05
5.21412e-05
4.0168e-05
3.0828e-05
2.55532e-05
2.22346e-05
1.98576e-05
1.80584e-05
2.67915e-05
5.50972e-05
4.29267e-05
5.19989e-05
5.34094e-05
4.24139e-05
3.17071e-05
2.56668e-05
2.19457e-05
1.93833e-05
1.75579e-05
2.90556e-05
5.30404e-05
4.34657e-05
4.9189e-05
5.4025e-05
4.45379e-05
3.27616e-05
2.60547e-05
2.19465e-05
1.91887e-05
1.72943e-05
3.07349e-05
5.29142e-05
4.40413e-05
4.6079e-05
5.14996e-05
4.65645e-05
3.40628e-05
2.66978e-05
2.21953e-05
1.92197e-05
1.72087e-05
3.18504e-05
5.42439e-05
4.49775e-05
4.35034e-05
4.67961e-05
4.69035e-05
3.57545e-05
2.76076e-05
2.26782e-05
1.94519e-05
1.72724e-05
3.24627e-05
5.70386e-05
4.66307e-05
4.21113e-05
4.25054e-05
4.47427e-05
3.73151e-05
2.89492e-05
2.34247e-05
1.98823e-05
1.74983e-05
3.24473e-05
6.09886e-05
4.92061e-05
4.18377e-05
3.92849e-05
4.09792e-05
3.77004e-05
3.04536e-05
2.45225e-05
2.05796e-05
1.79269e-05
3.18063e-05
6.55509e-05
5.29448e-05
4.26623e-05
3.7158e-05
3.67653e-05
3.61269e-05
3.15914e-05
2.58792e-05
2.15348e-05
1.85689e-05
3.07458e-05
7.10267e-05
5.81423e-05
4.48585e-05
3.64739e-05
3.35234e-05
3.31552e-05
3.15253e-05
2.72324e-05
2.27503e-05
1.94479e-05
2.94343e-05
7.80857e-05
6.51264e-05
4.86206e-05
3.73249e-05
3.18881e-05
3.03089e-05
3.00644e-05
2.80314e-05
2.41175e-05
2.05826e-05
2.81201e-05
8.65923e-05
7.43308e-05
5.42525e-05
3.96843e-05
3.17218e-05
2.83647e-05
2.78708e-05
2.77156e-05
2.53156e-05
2.194e-05
2.71455e-05
9.6207e-05
8.626e-05
6.2362e-05
4.38448e-05
3.30194e-05
2.76101e-05
2.5871e-05
2.62578e-05
2.57764e-05
2.33377e-05
2.67567e-05
0.000108317
0.000101721
7.36228e-05
5.02216e-05
3.59701e-05
2.8259e-05
2.48414e-05
2.44851e-05
2.51307e-05
2.43251e-05
2.70207e-05
0.000122852
0.000121421
8.91913e-05
5.9638e-05
4.09654e-05
3.04507e-05
2.50713e-05
2.32727e-05
2.37307e-05
2.43463e-05
2.75363e-05
0.000137927
0.000145132
0.000110571
7.35895e-05
4.89312e-05
3.46487e-05
2.68289e-05
2.31902e-05
2.24622e-05
2.33418e-05
2.76086e-05
0.000152128
0.000171281
0.000138666
9.39193e-05
6.13362e-05
4.17889e-05
3.06746e-05
2.47361e-05
2.22348e-05
2.21389e-05
2.67177e-05
0.00016308
0.000196344
0.000172626
0.000122701
8.05598e-05
5.36584e-05
3.77851e-05
2.86855e-05
2.38455e-05
2.19406e-05
2.48279e-05
0.000168007
0.000215537
0.000207827
0.000160499
0.000109749
7.34466e-05
5.06195e-05
3.67542e-05
2.85392e-05
2.40444e-05
2.1879e-05
0.000162059
0.000223935
0.000236419
0.000203837
0.000151689
0.000106231
7.40432e-05
5.28076e-05
3.91656e-05
3.06314e-05
1.90651e-05
0.000149685
0.000221301
0.000252112
0.000242307
0.000203182
0.000156258
0.000115397
8.43237e-05
6.21844e-05
4.68536e-05
1.43699e-05
0.000115257
0.000164471
0.000204191
0.000221023
0.000217484
0.000195883
0.000164379
0.000131798
0.000103398
8.03797e-05
1.11347e-05
4.8944e-05
6.67201e-05
8.96112e-05
0.000111754
0.000131388
0.000144218
0.000145945
0.000138224
0.000124901
0.000108671
2.27829e-05
5.82667e-05
5.46662e-05
5.24686e-05
4.48928e-05
3.68801e-05
3.17805e-05
2.86208e-05
2.63509e-05
2.44736e-05
2.27916e-05
1.65761e-05
5.19998e-05
5.85888e-05
5.76177e-05
4.98218e-05
4.12475e-05
3.55135e-05
3.20364e-05
2.96697e-05
2.77975e-05
2.61448e-05
1.72265e-05
4.97838e-05
5.83681e-05
6.7937e-05
5.98944e-05
4.93818e-05
4.18037e-05
3.72615e-05
3.44014e-05
3.23591e-05
3.0707e-05
1.9727e-05
4.7167e-05
5.7583e-05
7.46488e-05
7.07818e-05
6.32638e-05
5.60979e-05
5.11454e-05
4.7753e-05
4.50681e-05
4.25969e-05
2.27862e-05
4.39405e-05
5.84424e-05
7.93085e-05
7.7923e-05
7.16069e-05
6.41494e-05
5.90852e-05
5.59706e-05
5.39764e-05
5.24572e-05
2.57895e-05
4.13868e-05
5.96176e-05
8.16725e-05
8.22151e-05
7.72627e-05
7.00513e-05
6.53935e-05
6.28768e-05
6.17518e-05
6.1304e-05
2.86247e-05
3.96099e-05
6.05868e-05
8.27982e-05
8.49977e-05
8.13752e-05
7.45855e-05
7.05926e-05
6.88956e-05
6.89583e-05
7.01621e-05
3.13007e-05
3.84037e-05
6.12938e-05
8.34517e-05
8.71937e-05
8.46259e-05
7.83667e-05
7.51204e-05
7.43941e-05
7.60245e-05
7.982e-05
3.36625e-05
3.75788e-05
6.1815e-05
8.40772e-05
8.9354e-05
8.7427e-05
8.17683e-05
7.91466e-05
7.92211e-05
8.20302e-05
8.7366e-05
3.56922e-05
3.6996e-05
6.22974e-05
8.47656e-05
9.16008e-05
9.01284e-05
8.50096e-05
8.28187e-05
8.34626e-05
8.71357e-05
9.37873e-05
3.73751e-05
3.65395e-05
6.26679e-05
8.56512e-05
9.39468e-05
9.29508e-05
8.82381e-05
8.62594e-05
8.71931e-05
9.12359e-05
9.78926e-05
3.87903e-05
3.61338e-05
6.29137e-05
8.66633e-05
9.64128e-05
9.5986e-05
9.15665e-05
8.96013e-05
9.05788e-05
9.46936e-05
0.000101265
3.98349e-05
3.55679e-05
6.29748e-05
8.77192e-05
9.90525e-05
9.93308e-05
9.51345e-05
9.29927e-05
9.38008e-05
9.77956e-05
0.000104345
4.03962e-05
3.39357e-05
6.05791e-05
8.68645e-05
0.000100492
0.000102386
9.89059e-05
9.66035e-05
9.71111e-05
0.000100836
0.000107229
4.04165e-05
3.21252e-05
5.614e-05
8.34352e-05
9.96275e-05
0.00010415
0.000102411
0.000100433
0.000100749
0.000104147
0.00011033
3.98554e-05
3.02615e-05
5.01382e-05
7.70286e-05
9.57556e-05
0.000103622
0.000104789
0.000104082
0.000104654
0.000107835
0.00011381
3.86974e-05
2.84404e-05
4.33224e-05
6.76712e-05
8.80783e-05
9.94754e-05
0.000104474
0.000106343
0.000108178
0.000111693
0.000117667
3.68532e-05
2.67619e-05
3.67641e-05
5.65948e-05
7.66204e-05
9.06461e-05
9.94735e-05
0.000104889
0.000109331
0.000114393
0.000121125
3.42665e-05
2.51375e-05
3.10441e-05
4.54557e-05
6.26191e-05
7.71554e-05
8.83896e-05
9.69492e-05
0.000104488
0.00011225
0.000121081
3.08964e-05
2.33712e-05
2.62622e-05
3.55478e-05
4.82154e-05
6.07502e-05
7.19121e-05
8.15875e-05
9.06893e-05
0.00010024
0.00011101
2.66917e-05
2.1197e-05
2.22253e-05
2.74593e-05
3.54505e-05
4.43723e-05
5.32144e-05
6.15832e-05
6.97409e-05
7.82916e-05
8.7874e-05
2.16609e-05
1.82879e-05
1.8515e-05
2.10429e-05
2.52828e-05
3.04699e-05
3.60661e-05
4.17602e-05
4.75017e-05
5.34383e-05
5.97985e-05
1.58371e-05
1.40686e-05
1.41958e-05
1.52538e-05
1.70776e-05
1.94426e-05
2.21717e-05
2.51473e-05
2.83123e-05
3.16564e-05
3.51707e-05
9.56728e-06
9.75633e-06
1.10053e-05
1.24492e-05
1.40438e-05
1.56878e-05
1.78629e-05
2.15489e-05
2.68494e-05
3.36973e-05
4.15343e-05
6.58991e-06
6.70014e-06
7.21671e-06
1.00745e-05
1.41943e-05
1.62089e-05
1.74768e-05
1.84194e-05
1.90594e-05
2.42953e-05
2.70515e-05
2.43934e-05
3.26532e-05
4.5561e-05
6.92072e-05
9.82582e-05
0.000123877
0.000143912
3.78947e-05
3.88588e-05
3.75048e-05
5.83696e-05
9.24538e-05
0.000142023
0.000197351
0.00023897
0.000272743
5.37829e-05
5.08922e-05
5.12639e-05
8.38479e-05
0.000137927
0.000211096
0.000287191
0.000340816
0.000376461
8.84053e-06
1.37285e-05
1.61865e-05
1.75214e-05
1.83529e-05
1.88995e-05
1.9104e-05
1.91448e-05
1.94471e-05
2.74451e-05
3.50177e-05
5.27865e-05
7.995e-05
0.000110797
0.000132766
0.000151048
0.000165274
0.000162529
4.67437e-05
6.80163e-05
0.000108744
0.000165505
0.000220419
0.000259078
0.000287695
0.000308974
0.000302163
6.70741e-05
0.000100362
0.000162443
0.000246858
0.000318832
0.00036416
0.000388988
0.000410534
0.0004041
0.000195519
0.000229712
0.000229759
8.1243e-05
0.000118703
0.000229269
0.000223244
0.000229517
0.000229351
0.000233108
0.000115219
0.000229576
0.000182942
0.000239933
0.000123755
0.000228698
0.000237687
8.08351e-05
0.000228693
0.000228465
0.000229391
5.19663e-05
0.00022999
0.000165619
0.000229314
0.000239191
0.000188554
0.000247065
0.000434381
0.000264541
0.00023989
0.000233542
0.000242523
0.000229431
0.000238042
0.000229679
0.00017131
0.00022931
0.000243973
0.000229239
1.85758e-05
0.000229472
0.000240433
0.000229971
0.000419562
5.90974e-05
0.000165806
0.000103041
0.000237518
0.000229611
0.000251659
0.000229207
0.000242672
0.000237937
0.000229538
0.000229193
5.09169e-05
0.000229198
0.000441354
0.000229243
2.79321e-05
0.000243105
0.000164192
0.000230292
2.60699e-05
0.00022847
0.000169696
0.000230429
0.000229716
0.000232645
0.000212589
0.000233949
7.8004e-05
0.000246155
0.000158833
0.000232021
2.14797e-05
0.000229711
0.000482412
0.00035254
0.000188195
0.000213896
0.000229257
0.000229792
0.000244025
7.56887e-05
0.000414276
0.000244013
8.441e-05
0.000221378
0.000229502
0.000229167
2.06861e-05
0.000234677
0.000370635
0.000103624
0.000167729
0.000225997
8.42172e-05
0.000236785
0.000248652
0.000124232
0.000229774
0.000233465
8.38511e-05
0.000229561
0.000221732
0.000229871
0.000242743
0.000235728
0.000229339
0.00022953
0.000231257
9.11744e-05
7.53412e-05
0.000229014
0.000229323
0.000228907
0.000229281
0.000228869
9.41983e-05
0.000242867
0.000268627
0.000235537
5.47752e-05
0.000223842
0.000237905
0.000216109
0.000237157
0.000240127
0.000229173
0.000226402
0.000111312
0.000232527
0.000229792
0.000237724
2.49563e-05
0.000166331
0.00026955
0.000242013
0.000247372
0.000230962
0.000399566
0.000166381
0.000229354
5.42507e-05
0.000151828
0.000230243
0.000235232
0.00022888
0.000229023
0.000229127
5.40552e-05
0.0002426
8.88133e-05
0.000244817
6.19102e-05
4.58751e-05
0.000199956
0.000228858
0.000222362
7.78748e-05
0.000233471
0.000229127
0.000172817
0.000244972
9.65873e-05
0.0002392
0.000231576
2.58031e-05
0.000240129
0.000196317
0.000231636
0.000229203
0.000232996
0.000217746
0.000189949
5.16865e-05
0.000428422
0.000196756
0.000229809
3.65116e-05
0.000229925
0.00010283
0.000229303
0.000166296
0.000229062
0.000228841
0.000229639
0.000474676
0.000242767
0.000242243
0.000228476
1.82328e-05
0.000229746
0.00022907
0.000229659
8.12903e-05
0.000240716
0.000230001
5.1043e-05
0.000229794
0.000244311
0.000242016
0.000229827
0.000243653
0.000233819
0.000237089
0.000229604
0.000228693
0.000218819
0.000228966
0.000173977
0.000236418
0.000229267
0.000236881
0.000229378
9.56466e-05
0.000229177
0.000182838
0.000243326
8.53735e-05
0.000162186
7.16791e-05
0.000233541
0.000229199
0.000112262
0.000245685
0.000241788
0.000356566
5.78225e-05
0.000228424
0.000229034
0.000242871
5.21487e-05
0.00032025
0.000139521
0.00022988
0.000229586
0.00022953
9.88766e-05
0.000175727
0.000233805
1.7062e-05
0.000242504
7.66849e-05
0.00022936
0.00024169
0.00020156
0.000184133
0.000242155
0.000216831
0.000244496
0.000228604
0.000232402
0.000229565
0.000229154
0.000229272
7.16228e-05
0.000229127
0.000149819
0.000216085
0.000228164
0.000229611
0.000229334
0.000145396
0.000231367
0.000236847
0.000164881
0.000179951
0.000100406
0.000229236
0.000229806
0.000163363
0.000229092
0.000228938
0.000237132
0.000229176
0.000236384
8.40816e-05
0.000235705
0.000229831
0.000184967
0.000144153
0.00023218
0.000229102
0.000421695
0.000229747
0.000236035
0.000250789
0.000229857
0.000319473
0.000243161
0.000249038
0.000230001
0.000229609
0.000230954
0.00022958
0.000237745
0.000236994
0.000229124
0.000101981
0.000239998
0.000268834
0.000229084
0.000235988
0.000229718
0.000244283
3.74607e-05
0.000229215
0.000138109
0.000229623
0.000233674
0.000241662
2.57174e-05
0.000230541
0.000231443
9.45906e-05
0.000228437
0.000240417
0.000228976
0.000226406
0.000228925
0.000207632
0.000221135
0.000234526
0.000229145
0.000241707
0.000228109
0.000203437
0.000231848
0.000157284
1.98152e-05
0.000229939
0.0001612
0.000214172
6.28335e-05
0.000229669
0.000229243
0.000226228
7.34567e-05
0.000216916
0.000229743
0.000233727
9.61527e-05
0.000244197
0.000160617
0.000229003
0.000158874
0.000231908
0.000105766
0.000227483
0.000179239
0.000229057
0.000116892
0.000230037
0.000243337
0.000204954
0.000229968
0.000195372
0.000138529
0.000243283
0.00022941
0.000229316
0.000229696
8.74615e-05
0.000205053
0.000250442
0.000107997
0.000259781
0.000229176
0.000100095
0.000205229
0.000228556
0.000127091
0.000229821
0.000150499
0.000237809
0.000229047
0.000228853
0.00017371
0.000229025
5.20388e-05
0.000229176
0.000242302
0.00014013
9.80154e-05
0.000232478
0.000171031
8.90447e-05
0.000229144
0.000127726
0.000225545
0.000247444
0.00014241
2.55958e-05
0.000229226
0.00022894
0.000229917
0.00015906
7.2413e-05
0.000228969
0.000229971
0.000251234
0.000240277
2.00767e-05
0.000371604
0.000244789
0.000229757
0.000228234
0.000235701
0.000228652
0.000243598
0.000242976
6.4508e-05
0.000233436
0.000242985
0.000252699
0.000216436
0.000117552
0.000103169
0.000182317
0.000167355
0.000241902
0.000224726
0.000234862
0.000244768
7.66916e-05
0.000206211
3.50622e-05
0.000229237
5.25081e-05
0.000230952
0.000228197
0.000240063
0.000247028
0.000152219
0.000249568
0.000235918
0.000230038
0.00023669
0.000408487
0.000113153
9.96756e-05
0.000231871
0.000250936
0.000243221
3.4109e-05
0.000228822
6.26162e-05
0.000229137
0.000229738
0.000229338
9.50124e-05
0.000132664
0.00010028
0.000240256
4.83451e-05
8.37061e-05
0.000229633
0.0002288
0.000236711
0.000212542
0.0002323
0.000234406
4.00601e-05
4.33647e-05
2.96836e-05
2.93526e-05
0.000231964
0.000208762
0.000100566
0.000228981
2.75122e-05
0.000233373
0.000229706
0.000229246
8.05645e-05
6.57863e-05
0.000229008
0.000229138
0.000229448
0.000282449
3.05567e-05
0.000229918
6.1241e-05
0.000356498
0.000155238
0.000249596
0.000228744
5.67331e-05
0.000229076
0.000232946
0.000229211
0.0002389
0.000178263
0.000228483
0.000211889
0.000167365
0.000235968
0.000244674
0.00024185
0.000229491
0.000229413
0.000281902
0.00024719
9.58344e-05
0.000231983
0.000122269
0.00022977
0.000155334
0.000111807
8.90588e-05
0.000245398
0.000248939
0.000143413
0.00016713
0.000212332
0.000229127
0.000190693
0.000228499
0.000229819
0.000229172
0.000229643
0.000232857
0.000175194
0.000229371
0.000228807
0.000119033
0.000229119
4.40192e-05
0.00024039
0.000244464
0.000199641
8.59313e-05
0.000230006
0.000229283
0.000229956
1.79228e-05
6.73843e-05
0.000229302
0.00022927
0.000235511
0.000229861
0.000108908
0.000229821
0.000228781
0.000235217
4.59248e-05
0.000247301
0.000158913
6.42229e-05
0.000156311
0.000229111
0.000231486
0.000234774
0.000229803
0.000246545
3.2628e-05
0.000223645
0.000242058
0.000151694
8.65691e-05
0.000229321
0.000230124
0.000229768
0.000242272
0.000134225
9.03802e-05
0.000229524
0.000229298
0.000144188
0.000231408
0.000247109
0.000237949
0.000244643
0.000118067
0.000229158
9.39035e-05
0.000229264
0.000183135
0.00022968
0.00016276
0.000184298
0.000232792
2.62661e-05
0.000244042
0.000229968
0.000230002
0.000407705
0.000229051
0.000191406
0.000133145
0.000171714
0.000236412
7.30157e-05
0.00022631
0.0002311
0.000229135
0.000229254
0.000111116
0.000144769
0.000126849
0.000228459
0.000229346
0.000272044
0.000229141
0.000238375
0.0002343
0.000233657
0.000240889
0.000206504
0.000178263
0.000164919
0.000232698
0.000236562
0.000228582
0.00017292
0.000231919
0.000229144
0.000183234
0.000196833
0.000228936
0.000229014
2.53515e-05
0.00022976
0.000228761
0.00015064
0.000229799
0.000233685
0.000197891
0.000249104
0.000157542
0.000235371
0.000192657
0.000147896
0.000239795
8.48072e-05
0.000166609
0.000194744
9.02994e-05
6.44187e-05
0.00014958
0.000229772
0.000229869
0.000232286
0.000229045
0.000229035
0.000243117
0.000230696
0.000245829
0.000216753
0.000206666
0.000258384
0.0002291
0.000207389
0.000229504
0.000228964
0.000235079
0.000135589
0.000231756
0.000232519
0.000230274
0.000229739
0.000143437
6.20085e-05
0.000365756
0.000232143
0.000229418
0.000188032
0.00024894
0.000238576
0.000428243
0.000231835
0.000145599
0.000241632
0.000229134
0.000244456
0.000229932
0.000242785
0.00018115
0.000241947
0.000164564
0.000220179
0.000242253
0.000229826
0.000113746
0.000212237
9.22051e-05
0.000233346
0.000228982
0.000233312
0.000229812
0.000162769
0.000229293
7.22854e-05
0.000229587
0.000229208
0.000229113
0.000187762
0.000208562
0.000229548
0.000158254
0.000229228
0.00024548
0.000199443
0.000230769
0.000151777
1.63302e-05
0.00024894
0.000235622
0.000241604
0.000214496
0.000191891
0.000241101
0.000194109
0.000229186
0.000243987
0.000229272
0.000231456
0.000125208
0.000220299
5.39211e-05
0.00023985
0.000231199
0.000233932
0.000228873
0.000102685
0.000229616
0.000239942
0.000251923
0.000226571
0.000233746
0.00013806
0.000244865
0.000234385
0.000241913
0.000212538
6.05533e-05
9.06248e-05
0.000229414
0.000243422
0.00014763
0.000229525
4.89836e-05
0.000142023
0.000248838
0.000148047
0.000229267
0.000232128
0.000233698
0.000157352
0.000236318
0.000225838
0.000229662
0.000243165
0.000234136
0.000249025
0.000247767
0.000204938
0.000242318
0.000228819
0.000144695
7.17197e-05
0.000229171
0.000234505
0.000185184
0.000251948
0.000245193
4.26285e-05
0.000240182
7.9347e-05
0.000247581
0.000251359
0.000228912
0.000244263
0.000229085
0.000163114
2.72194e-05
0.000230047
0.000229237
0.000247159
0.000345759
0.000214886
0.000227037
0.000229693
0.000242563
0.000247542
0.000229523
0.000229603
0.000229862
0.000229239