/*--------------------------------*- C++ -*----------------------------------*\
| =========                 |                                                 |
| \\      /  F ield         | OpenFOAM: The Open Source CFD Toolbox           |
|  \\    /   O peration     | Version:  3.0.1                                 |
|   \\  /    A nd           | Web:      www.OpenFOAM.org                      |
|    \\/     M anipulation  |                                                 |
\*---------------------------------------------------------------------------*/
FoamFile
{
    version     2.0;
    format      ascii;
    class       surfaceScalarField;
    location    "0.0353663";
    object      phi;
}
// * * * * * * * * * * * * * * * * * * * * * * * * * * * * * * * * * * * * * //

dimensions      [0 3 -1 0 0 0 0];

internalField   nonuniform List<scalar> 
32369
(
-7.52329e-06
-9.00551e-06
1.65288e-05
-1.20904e-05
-1.04235e-05
1.49906e-05
-1.59634e-05
-1.2524e-05
1.6397e-05
-1.99909e-05
-1.4777e-05
1.88045e-05
-2.41244e-05
-1.70036e-05
2.11371e-05
-2.83298e-05
-1.91285e-05
2.3334e-05
-3.29788e-05
-2.11573e-05
2.58063e-05
-3.82806e-05
-2.30227e-05
2.83246e-05
-4.4492e-05
-2.46092e-05
3.08206e-05
-5.1877e-05
-2.57015e-05
3.30865e-05
-2.59035e-05
3.48326e-05
-6.08061e-05
-6.54714e-06
-2.45837e-06
-1.19269e-05
-5.04375e-06
-1.68132e-05
-7.63769e-06
-2.13866e-05
-1.02036e-05
-2.58164e-05
-1.25738e-05
-3.03155e-05
-1.46294e-05
-3.51787e-05
-1.6294e-05
-4.07117e-05
-1.74898e-05
-4.72371e-05
-1.80838e-05
-5.51158e-05
-1.78228e-05
-1.62929e-05
-6.47264e-05
-3.4275e-06
9.69129e-07
-7.50126e-06
-9.6999e-07
-1.2047e-05
-3.092e-06
-1.68816e-05
-5.36891e-06
-2.1934e-05
-7.52137e-06
-2.7209e-05
-9.35448e-06
-3.28658e-05
-1.06372e-05
-3.91599e-05
-1.11956e-05
-4.64006e-05
-1.08431e-05
-5.49223e-05
-9.30114e-06
-6.09985e-06
-6.51154e-05
-1.7848e-06
2.75393e-06
-4.57241e-06
1.81762e-06
-8.34541e-06
6.80998e-07
-1.28311e-05
-8.83229e-07
-1.78501e-05
-2.5024e-06
-2.33783e-05
-3.82619e-06
-2.9479e-05
-4.53656e-06
-3.6293e-05
-4.38165e-06
-4.40268e-05
-3.10931e-06
-5.29436e-05
-3.84397e-07
4.36203e-06
-6.34054e-05
-1.06415e-06
3.81808e-06
-2.86013e-06
3.6136e-06
-5.63564e-06
3.45651e-06
-9.37707e-06
2.8582e-06
-1.39928e-05
2.11337e-06
-1.93852e-05
1.56614e-06
-2.54977e-05
1.57593e-06
-3.23949e-05
2.51555e-06
-4.02788e-05
4.77459e-06
-4.94484e-05
8.78521e-06
1.51315e-05
-6.02178e-05
-9.86547e-07
4.80462e-06
-2.49012e-06
5.11718e-06
-4.56506e-06
5.53144e-06
-7.45918e-06
5.75233e-06
-1.13138e-05
5.96801e-06
-1.61457e-05
6.39799e-06
-2.19372e-05
7.36745e-06
-2.86953e-05
9.27363e-06
-3.64933e-05
1.25726e-05
-4.54924e-05
1.77844e-05
2.56445e-05
-5.60054e-05
-9.2235e-07
5.72697e-06
-2.29006e-06
6.48489e-06
-4.12197e-06
7.36336e-06
-6.60542e-06
8.23578e-06
-9.9019e-06
9.26448e-06
-1.41271e-05
1.06232e-05
-1.9348e-05
1.25884e-05
-2.56121e-05
1.55377e-05
-3.2988e-05
1.99486e-05
-4.15826e-05
2.63789e-05
3.55736e-05
-5.15117e-05
-9.05243e-07
6.63221e-06
-2.16819e-06
7.74784e-06
-3.83704e-06
9.03221e-06
-6.04945e-06
1.04482e-05
-8.95405e-06
1.21691e-05
-1.26886e-05
1.43578e-05
-1.73676e-05
1.72674e-05
-2.3083e-05
2.1253e-05
-2.99306e-05
2.67961e-05
-3.80232e-05
3.44716e-05
4.51334e-05
-4.7583e-05
-8.62447e-07
7.49466e-06
-2.05208e-06
8.93748e-06
-3.59053e-06
1.05707e-05
-5.6004e-06
1.24581e-05
-8.20907e-06
1.47778e-05
-1.15541e-05
1.77028e-05
-1.5765e-05
2.14783e-05
-2.09634e-05
2.64514e-05
-2.72615e-05
3.30942e-05
-3.48251e-05
4.20352e-05
5.41548e-05
-4.38466e-05
-7.42926e-07
8.23759e-06
-1.81695e-06
1.00115e-05
-3.21967e-06
1.19734e-05
-5.05086e-06
1.42892e-05
-7.41853e-06
1.71454e-05
-1.04482e-05
2.07324e-05
-1.42728e-05
2.5303e-05
-1.90206e-05
3.11992e-05
-2.4838e-05
3.89117e-05
-3.18773e-05
4.90745e-05
6.25428e-05
-4.02653e-05
-6.35729e-07
8.87332e-06
-1.59731e-06
1.09731e-05
-2.86513e-06
1.32412e-05
-4.52337e-06
1.59475e-05
-6.67194e-06
1.9294e-05
-9.42446e-06
2.34849e-05
-1.29036e-05
2.87821e-05
-1.72438e-05
3.55395e-05
-2.25909e-05
4.42587e-05
-2.91173e-05
5.56009e-05
7.03931e-05
-3.69676e-05
-6.22353e-07
9.49567e-06
-1.51452e-06
1.18652e-05
-2.66814e-06
1.43948e-05
-4.16832e-06
1.74477e-05
-6.10417e-06
2.12298e-05
-8.58577e-06
2.59665e-05
-1.17315e-05
3.19278e-05
-1.5669e-05
3.94771e-05
-2.05472e-05
4.91369e-05
-2.6527e-05
6.15807e-05
7.76593e-05
-3.37933e-05
-5.65232e-07
1.00609e-05
-1.35975e-06
1.26598e-05
-2.39027e-06
1.54253e-05
-3.72862e-06
1.8786e-05
-5.46082e-06
2.2962e-05
-7.68569e-06
2.81914e-05
-1.05185e-05
3.47606e-05
-1.4086e-05
4.30445e-05
-1.85109e-05
5.35618e-05
-2.39672e-05
6.70371e-05
8.43679e-05
-3.06759e-05
-4.02346e-07
1.04632e-05
-1.04156e-06
1.3299e-05
-1.91468e-06
1.62984e-05
-3.07632e-06
1.99477e-05
-4.60041e-06
2.44861e-05
-6.57365e-06
3.01646e-05
-9.09542e-06
3.72824e-05
-1.22832e-05
4.62324e-05
-1.62567e-05
5.75352e-05
-2.11461e-05
7.19265e-05
9.03605e-05
-2.71386e-05
-3.53436e-07
1.08167e-05
-8.81254e-07
1.38268e-05
-1.59826e-06
1.70154e-05
-2.56808e-06
2.09175e-05
-3.85196e-06
2.577e-05
-5.53293e-06
3.18456e-05
-7.70846e-06
3.94579e-05
-1.04669e-05
4.89908e-05
-1.39083e-05
6.09766e-05
-1.81684e-05
7.61866e-05
9.55284e-05
-2.33363e-05
-2.65565e-07
1.10822e-05
-6.47925e-07
1.42092e-05
-1.18624e-06
1.75538e-05
-1.9283e-06
2.16595e-05
-2.94693e-06
2.67886e-05
-4.31087e-06
3.32095e-05
-6.09769e-06
4.12447e-05
-8.38334e-06
5.12765e-05
-1.12425e-05
6.38357e-05
-1.47187e-05
7.96628e-05
9.97504e-05
-1.89407e-05
-7.04815e-08
1.11527e-05
-2.27742e-07
1.43664e-05
-5.29467e-07
1.78555e-05
-1.01065e-06
2.21407e-05
-1.71884e-06
2.74968e-05
-2.7271e-06
3.42178e-05
-4.08714e-06
4.26048e-05
-5.83843e-06
5.30278e-05
-7.99618e-06
6.59935e-05
-1.05891e-05
8.22557e-05
0.000102861
-1.37001e-05
7.9498e-08
1.10732e-05
1.49204e-07
1.42967e-05
1.18109e-07
1.78866e-05
-4.47094e-08
2.23035e-05
-3.93349e-07
2.78455e-05
-9.75524e-07
3.48e-05
-1.81314e-06
4.34424e-05
-2.90192e-06
5.41165e-05
-4.21332e-06
6.73049e-05
-5.72624e-06
8.37687e-05
0.000104536
-7.40102e-06
2.61095e-07
1.08121e-05
6.10155e-07
1.39477e-05
8.96614e-07
1.76001e-05
1.0977e-06
2.21025e-05
1.17524e-06
2.77679e-05
1.10589e-06
3.48693e-05
9.09786e-07
4.36385e-05
6.49906e-07
5.43764e-05
4.22741e-07
6.7532e-05
3.23262e-07
8.38681e-05
0.000104506
3.53034e-07
4.92307e-07
1.03198e-05
1.1708e-06
1.32692e-05
1.81804e-06
1.69529e-05
2.43562e-06
2.14849e-05
3.00204e-06
2.72015e-05
3.54249e-06
3.43289e-05
4.14281e-06
4.30382e-05
4.94711e-06
5.35721e-05
6.10288e-06
6.63762e-05
7.76927e-06
8.22018e-05
0.000102183
1.00922e-05
7.51535e-07
9.5683e-06
1.77998e-06
1.22407e-05
2.81934e-06
1.59135e-05
3.89097e-06
2.04132e-05
5.01848e-06
2.6074e-05
6.30816e-06
3.30392e-05
7.93522e-06
4.14111e-05
1.00968e-05
5.14105e-05
1.29915e-05
6.34816e-05
1.68346e-05
7.83587e-05
9.71528e-05
2.18652e-05
9.04004e-07
8.66429e-06
2.26464e-06
1.08801e-05
3.68942e-06
1.44888e-05
5.22194e-06
1.88807e-05
7.00674e-06
2.42892e-05
9.25614e-06
3.07898e-05
1.22002e-05
3.8467e-05
1.60536e-05
4.75572e-05
2.10514e-05
5.84838e-05
2.74708e-05
7.19392e-05
8.89488e-05
3.56748e-05
9.45263e-07
7.71903e-06
2.6152e-06
9.21014e-06
4.09237e-06
1.30116e-05
6.0428e-06
1.69303e-05
8.65069e-06
2.16813e-05
1.21335e-05
2.73069e-05
1.66859e-05
3.39147e-05
2.25197e-05
4.17233e-05
2.98772e-05
5.11263e-05
3.91182e-05
6.26982e-05
7.73471e-05
5.072e-05
-3.03485e-06
1.07539e-05
-1.79553e-06
7.97081e-06
9.51883e-07
1.02642e-05
4.4069e-06
1.34753e-05
8.71339e-06
1.73749e-05
1.4091e-05
2.19293e-05
2.06999e-05
2.73058e-05
2.87405e-05
3.36826e-05
3.85631e-05
4.13038e-05
5.06849e-05
5.05764e-05
6.22763e-05
6.57557e-05
5.93713e-06
1.05917e-05
8.6417e-06
1.2286e-05
7.84288e-06
1.71958e-05
4.74218e-06
2.19051e-05
-1.04073e-07
2.59834e-05
-6.28432e-06
2.95142e-05
-1.33293e-05
3.28512e-05
-2.09965e-05
3.59918e-05
-2.95662e-05
3.93903e-05
-3.92402e-05
4.27605e-05
4.57528e-05
-5.01605e-05
7.45686e-06
3.13482e-06
1.19955e-05
7.74735e-06
1.4602e-05
1.45893e-05
1.53113e-05
2.11959e-05
1.3546e-05
2.77486e-05
9.07331e-06
3.39869e-05
2.29708e-06
3.96274e-05
-6.13145e-06
4.44204e-05
-1.56611e-05
4.892e-05
-2.63853e-05
5.34846e-05
5.81116e-05
-3.8744e-05
4.9163e-06
-1.78148e-06
9.37883e-06
3.28481e-06
1.36788e-05
1.02893e-05
1.67323e-05
1.81423e-05
1.77591e-05
2.67219e-05
1.62128e-05
3.55332e-05
1.19062e-05
4.3934e-05
5.0008e-06
5.13258e-05
-3.81046e-06
5.77312e-05
-1.40328e-05
6.3707e-05
6.97771e-05
-2.56983e-05
2.27769e-06
-4.05917e-06
6.89277e-06
-1.33026e-06
1.19083e-05
5.27377e-06
1.62393e-05
1.38114e-05
1.92402e-05
2.3721e-05
2.02212e-05
3.45522e-05
1.86157e-05
4.55396e-05
1.41468e-05
5.57947e-05
7.12441e-06
6.47536e-05
-1.78707e-06
7.26185e-05
8.00619e-05
-1.20719e-05
8.98167e-07
-4.95734e-06
3.9046e-06
-4.33669e-06
9.31646e-06
-1.38099e-07
1.48383e-05
8.28952e-06
1.94755e-05
1.90838e-05
2.25522e-05
3.14754e-05
2.33997e-05
4.46922e-05
2.1492e-05
5.77024e-05
1.6744e-05
6.95016e-05
9.62576e-06
7.97367e-05
8.8881e-05
8.06667e-07
1.08754e-06
-6.04488e-06
2.64548e-06
-5.89464e-06
6.69343e-06
-4.18605e-06
1.27602e-05
2.22273e-06
1.877e-05
1.3074e-05
2.36812e-05
2.65643e-05
2.67185e-05
4.16548e-05
2.72318e-05
5.71891e-05
2.48726e-05
7.18608e-05
1.98666e-05
8.47427e-05
9.58378e-05
1.29097e-05
1.31308e-06
-7.35796e-06
2.92453e-06
-7.50608e-06
5.41925e-06
-6.68077e-06
1.05787e-05
-2.93668e-06
1.72402e-05
6.41242e-06
2.36496e-05
2.01549e-05
2.86333e-05
3.66711e-05
3.13751e-05
5.44473e-05
3.13514e-05
7.18845e-05
2.85101e-05
8.75841e-05
0.000100767
2.35808e-05
1.36783e-06
-8.72579e-06
3.11373e-06
-9.25199e-06
5.38593e-06
-8.95297e-06
9.15855e-06
-6.70929e-06
1.5487e-05
8.39981e-08
2.26626e-05
1.29793e-05
2.91629e-05
3.01708e-05
3.38567e-05
4.97535e-05
3.60274e-05
6.97137e-05
3.54135e-05
8.81981e-05
0.000104035
3.21457e-05
1.33866e-06
-1.00645e-05
3.13002e-06
-1.10433e-05
5.41949e-06
-1.12424e-05
8.52527e-06
-9.81508e-06
1.38159e-05
-5.20659e-06
2.09981e-05
5.79704e-06
2.84594e-05
2.27095e-05
3.4725e-05
4.34879e-05
3.88796e-05
6.55591e-05
4.0601e-05
8.64767e-05
0.000104371
4.02651e-05
1.26583e-06
-1.13303e-05
2.9446e-06
-1.27221e-05
5.13627e-06
-1.34341e-05
8.06445e-06
-1.27433e-05
1.23471e-05
-9.48924e-06
1.89961e-05
-8.51988e-07
2.66565e-05
1.50492e-05
3.39441e-05
3.62003e-05
3.97049e-05
5.97983e-05
4.34358e-05
8.27459e-05
0.000102596
4.52104e-05
9.26249e-07
-1.22565e-05
2.40369e-06
-1.41996e-05
4.32421e-06
-1.53546e-05
6.92305e-06
-1.53421e-05
1.05786e-05
-1.31448e-05
1.63149e-05
-6.58829e-06
2.37201e-05
7.64396e-06
3.14717e-05
2.84487e-05
3.83949e-05
5.28751e-05
4.39351e-05
7.72056e-05
9.84278e-05
4.81034e-05
7.55318e-07
-1.30118e-05
1.87256e-06
-1.53168e-05
3.28354e-06
-1.67656e-05
5.33419e-06
-1.73928e-05
8.35922e-06
-1.61699e-05
1.30007e-05
-1.12297e-05
1.97166e-05
9.27992e-07
2.72256e-05
2.09397e-05
3.47777e-05
4.5323e-05
4.1872e-05
7.01114e-05
9.13382e-05
4.89616e-05
4.43182e-07
-1.3455e-05
1.04339e-06
-1.5917e-05
1.89547e-06
-1.76177e-05
3.16303e-06
-1.86603e-05
5.18724e-06
-1.81941e-05
8.59558e-06
-1.46381e-05
1.42845e-05
-4.76089e-06
2.11828e-05
1.40414e-05
2.89247e-05
3.75811e-05
3.70472e-05
6.19888e-05
8.27796e-05
4.56058e-05
1.52143e-08
-1.34702e-05
5.61459e-08
-1.59579e-05
2.02055e-07
-1.77636e-05
5.40497e-07
-1.89988e-05
1.32159e-06
-1.89752e-05
3.13074e-06
-1.64472e-05
7.38105e-06
-9.0112e-06
1.36904e-05
7.732e-06
2.12716e-05
2.99999e-05
3.02047e-05
5.30558e-05
7.25863e-05
4.0398e-05
-3.75271e-07
-1.3095e-05
-9.39244e-07
-1.5394e-05
-1.57847e-06
-1.71244e-05
-2.25716e-06
-1.83201e-05
-2.80683e-06
-1.84255e-05
-2.7431e-06
-1.65109e-05
-6.76629e-07
-1.10777e-05
5.01877e-06
2.03661e-06
1.26347e-05
2.2384e-05
2.19996e-05
4.36909e-05
6.06326e-05
3.39533e-05
-8.41391e-07
-1.22536e-05
-2.07215e-06
-1.41632e-05
-3.57297e-06
-1.56236e-05
-5.32225e-06
-1.65708e-05
-7.16437e-06
-1.65834e-05
-8.66431e-06
-1.5011e-05
-8.99569e-06
-1.07463e-05
-5.276e-06
-1.68308e-06
2.6373e-06
1.44707e-05
1.31098e-05
3.32184e-05
4.64663e-05
2.72761e-05
-1.38824e-06
-1.08653e-05
-3.35299e-06
-1.21984e-05
-5.78942e-06
-1.31871e-05
-8.68252e-06
-1.36777e-05
-1.18409e-05
-1.3425e-05
-1.47758e-05
-1.20761e-05
-1.64985e-05
-9.02359e-06
-1.50128e-05
-3.16878e-06
-7.98972e-06
7.4476e-06
3.26924e-06
2.19594e-05
3.2276e-05
1.74595e-05
-1.98997e-06
-8.87537e-06
-4.72573e-06
-9.46268e-06
-8.16206e-06
-9.75079e-06
-1.22432e-05
-9.59654e-06
-1.66828e-05
-8.98536e-06
-2.08609e-05
-7.89806e-06
-2.36716e-05
-6.2129e-06
-2.34373e-05
-3.40308e-06
-1.79674e-05
1.97772e-06
-6.50452e-06
1.04965e-05
1.66496e-05
9.12186e-06
-2.70981e-06
-6.16557e-06
-6.30327e-06
-5.86922e-06
-1.07734e-05
-5.2807e-06
-1.59868e-05
-4.38307e-06
-2.14983e-05
-3.47392e-06
-2.65872e-05
-2.80918e-06
-3.01361e-05
-2.66399e-06
-3.06314e-05
-2.90774e-06
-2.61405e-05
-2.51319e-06
-1.53584e-05
-2.85525e-07
5.38447e-07
7.52736e-07
-3.68751e-06
-2.47806e-06
-8.22048e-06
-1.33625e-06
-1.34615e-05
-3.96492e-08
-1.89845e-05
1.13986e-06
-2.42708e-05
1.81242e-06
-2.85564e-05
1.47643e-06
-3.05164e-05
-7.04024e-07
-2.92051e-05
-4.21901e-06
-2.39648e-05
-7.75344e-06
-1.3964e-05
-1.02863e-05
-1.38264e-05
4.00798e-07
-3.49577e-06
1.01771e-06
-7.07866e-06
2.24664e-06
-1.05622e-05
3.44388e-06
-1.36846e-05
4.26227e-06
-1.56154e-05
3.74318e-06
-1.48115e-05
6.72555e-07
-1.04942e-05
-5.02135e-06
-3.38843e-06
-1.13247e-05
6.04466e-06
-1.71865e-05
1.75611e-05
-2.18028e-05
-2.60581e-05
2.97928e-05
-3.20691e-06
4.22462e-06
-3.98099e-06
3.02072e-06
-3.67755e-06
3.14044e-06
-1.3854e-06
1.97011e-06
4.16666e-06
-1.80887e-06
1.29522e-05
-8.11299e-06
2.18449e-05
-1.39141e-05
3.08008e-05
-2.02806e-05
4.04447e-05
-2.68304e-05
5.21818e-05
-3.354e-05
-4.12367e-05
6.73604e-05
1.7235e-06
2.50113e-06
5.20201e-06
-4.57794e-07
1.11806e-05
-2.83816e-06
1.95642e-05
-6.41344e-06
2.87159e-05
-1.09606e-05
3.6749e-05
-1.61461e-05
4.46272e-05
-2.17922e-05
5.24297e-05
-2.80832e-05
6.07627e-05
-3.51634e-05
7.0532e-05
-4.33093e-05
-5.32164e-05
8.25117e-05
1.3255e-05
2.0768e-05
2.8194e-05
3.52559e-05
4.16701e-05
4.74533e-05
5.29669e-05
5.85664e-05
6.47069e-05
7.19739e-05
8.10338e-05
-1.05965e-05
1.76247e-05
-7.02813e-06
-1.85656e-05
1.58346e-05
-7.86554e-06
-2.71463e-05
1.76148e-05
-9.03412e-06
-3.55433e-05
1.85109e-05
-1.01139e-05
-4.41352e-05
2.03001e-05
-1.17082e-05
-5.31023e-05
2.29841e-05
-1.4017e-05
-6.28669e-05
2.6818e-05
-1.70534e-05
-7.38736e-05
3.19843e-05
-2.09776e-05
-8.65975e-05
3.87907e-05
-2.60668e-05
-0.000101554
4.76847e-05
-3.27282e-05
5.93139e-05
-4.14732e-05
-0.000119395
-7.93306e-07
1.8418e-05
-2.90947e-06
1.79508e-05
-8.97358e-06
2.36789e-05
-1.61661e-05
2.57034e-05
-2.47575e-05
2.88915e-05
-3.42177e-05
3.24444e-05
-4.47822e-05
3.73824e-05
-5.67346e-05
4.39367e-05
-7.05275e-05
5.25835e-05
-8.66916e-05
6.38488e-05
7.84321e-05
-0.00010581
8.5748e-07
1.75605e-05
-1.80218e-07
1.89885e-05
-3.30436e-06
2.6803e-05
-7.7997e-06
3.01987e-05
-1.44821e-05
3.55739e-05
-2.26948e-05
4.06571e-05
-3.23217e-05
4.70094e-05
-4.35296e-05
5.51446e-05
-5.65581e-05
6.5612e-05
-7.18808e-05
7.91716e-05
9.67057e-05
-9.01545e-05
6.41352e-07
1.69192e-05
-5.1199e-07
2.01418e-05
-2.08205e-06
2.83731e-05
-4.86651e-06
3.29832e-05
-9.49698e-06
4.02044e-05
-1.56208e-05
4.67809e-05
-2.35074e-05
5.4896e-05
-3.29165e-05
6.45536e-05
-4.41566e-05
7.68522e-05
-5.7472e-05
9.2487e-05
0.000112469
-7.32357e-05
4.9316e-07
1.6426e-05
-6.7421e-07
2.13092e-05
-1.71262e-06
2.94115e-05
-3.66959e-06
3.49402e-05
-6.75762e-06
4.32924e-05
-1.10392e-05
5.10625e-05
-1.68864e-05
6.07431e-05
-2.43378e-05
7.2005e-05
-3.34391e-05
8.59535e-05
-4.44062e-05
0.000103454
0.000125616
-5.75524e-05
5.90198e-07
1.58358e-05
-1.80448e-07
2.20799e-05
-8.27424e-07
3.00585e-05
-2.33601e-06
3.64488e-05
-4.44357e-06
4.53999e-05
-7.43832e-06
5.40573e-05
-1.16797e-05
6.49845e-05
-1.72257e-05
7.7551e-05
-2.4279e-05
9.30067e-05
-3.29503e-05
0.000112125
0.000136124
-4.34587e-05
7.07083e-07
1.51287e-05
3.74014e-07
2.24129e-05
1.14345e-07
3.03181e-05
-9.5845e-07
3.75216e-05
-2.34368e-06
4.67852e-05
-4.42839e-06
5.6142e-05
-7.39954e-06
6.79557e-05
-1.13785e-05
8.153e-05
-1.66013e-05
9.82296e-05
-2.32119e-05
0.000118736
0.00014431
-3.13977e-05
6.95997e-07
1.44327e-05
6.6627e-07
2.24426e-05
7.29491e-07
3.02549e-05
8.71078e-08
3.81639e-05
-6.66581e-07
4.75389e-05
-2.0248e-06
5.75002e-05
-3.93878e-06
6.98696e-05
-6.61414e-06
8.42053e-05
-1.02269e-05
0.000101842
-1.49238e-05
0.000123433
0.000150271
-2.08853e-05
6.6759e-07
1.37651e-05
9.91326e-07
2.21189e-05
1.36219e-06
2.9884e-05
1.15253e-06
3.83736e-05
9.21754e-07
4.77696e-05
2.00814e-07
5.82211e-05
-8.22355e-07
7.08928e-05
-2.41082e-06
8.57938e-05
-4.64734e-06
0.000104079
-7.69062e-06
0.000126476
0.000154258
-1.1677e-05
9.32028e-07
1.28331e-05
1.68623e-06
2.13647e-05
2.38247e-06
2.91878e-05
2.63135e-06
3.81247e-05
2.85864e-06
4.75423e-05
2.69642e-06
5.83834e-05
2.39511e-06
7.11941e-05
1.69914e-06
8.64898e-05
5.95467e-07
0.000105183
-1.06822e-06
0.00012814
0.000156659
-3.46993e-06
1.13312e-06
1.17e-05
2.25684e-06
2.0241e-05
3.29049e-06
2.81541e-05
4.02736e-06
3.73879e-05
4.69204e-06
4.68777e-05
5.10085e-06
5.79746e-05
5.45223e-06
7.08427e-05
5.58389e-06
8.63581e-05
5.51023e-06
0.000105256
5.12491e-06
0.000128525
0.000157426
4.35782e-06
1.13449e-06
1.05655e-05
2.47857e-06
1.88969e-05
3.81719e-06
2.68155e-05
5.01051e-06
3.61945e-05
6.13948e-06
4.57487e-05
7.13519e-06
5.69788e-05
8.14839e-06
6.98295e-05
9.11425e-06
8.53922e-05
1.00733e-05
0.000104297
1.09595e-05
0.000127639
0.00015665
1.17355e-05
1.20857e-06
9.35693e-06
2.8085e-06
1.7297e-05
4.46981e-06
2.51542e-05
6.13092e-06
3.45334e-05
7.73276e-06
4.41468e-05
9.31348e-06
5.53981e-05
1.09726e-05
6.81705e-05
1.27345e-05
8.36303e-05
1.46652e-05
0.000102366
1.67671e-05
0.000125537
0.000154419
1.89983e-05
1.40568e-06
7.95124e-06
3.28123e-06
1.54214e-05
5.31838e-06
2.31171e-05
7.4692e-06
3.23826e-05
9.59082e-06
4.20252e-05
1.17704e-05
5.32185e-05
1.40766e-05
6.58643e-05
1.66174e-05
8.10894e-05
1.94821e-05
9.95018e-05
2.27412e-05
0.000122278
0.00015069
2.64703e-05
1.39149e-06
6.55976e-06
3.39061e-06
1.34223e-05
5.71232e-06
2.07953e-05
8.31263e-06
2.97823e-05
1.09901e-05
3.93478e-05
1.38365e-05
5.03721e-05
1.6893e-05
6.28078e-05
2.0316e-05
7.76664e-05
2.42337e-05
9.55841e-05
2.87828e-05
0.000117729
0.000145416
3.40572e-05
1.36178e-06
5.19797e-06
3.42558e-06
1.13585e-05
5.99962e-06
1.82213e-05
9.03228e-06
2.67496e-05
1.2292e-05
3.6088e-05
1.58567e-05
4.68074e-05
1.97451e-05
5.89195e-05
2.41382e-05
7.32733e-05
2.92017e-05
9.05206e-05
3.51349e-05
0.000111796
0.000138409
4.2142e-05
1.31572e-06
3.88226e-06
3.40415e-06
9.27008e-06
6.19759e-06
1.54279e-05
9.64613e-06
2.33011e-05
1.35277e-05
3.22065e-05
1.78675e-05
4.24676e-05
2.26854e-05
5.41016e-05
2.81613e-05
6.77974e-05
3.44795e-05
8.42024e-05
4.1887e-05
0.000104388
0.000129646
5.06491e-05
1.08404e-06
2.79822e-06
3.03791e-06
7.31622e-06
5.91603e-06
1.25497e-05
9.70294e-06
1.95142e-05
1.41872e-05
2.77222e-05
1.93626e-05
3.72922e-05
2.52327e-05
4.82315e-05
3.19657e-05
6.10644e-05
3.97668e-05
7.64013e-05
4.89366e-05
9.52185e-05
0.00011878
5.98031e-05
7.99334e-07
1.99888e-06
2.52801e-06
5.58754e-06
5.34497e-06
9.73277e-06
9.3224e-06
1.55368e-05
1.43165e-05
2.27281e-05
2.03082e-05
3.13004e-05
2.73021e-05
4.12376e-05
3.54425e-05
5.2924e-05
4.4936e-05
6.69077e-05
5.61093e-05
8.40452e-05
0.000105445
6.9444e-05
5.68852e-07
1.43003e-06
2.03156e-06
4.12483e-06
4.60701e-06
7.15733e-06
8.5284e-06
1.16154e-05
1.38064e-05
1.74501e-05
2.04723e-05
2.46345e-05
2.85374e-05
3.31725e-05
3.81155e-05
4.3346e-05
4.94167e-05
5.56065e-05
6.27951e-05
7.06668e-05
8.94029e-05
7.88375e-05
4.54427e-07
9.75603e-07
1.62094e-06
2.95831e-06
3.78439e-06
4.99388e-06
7.32513e-06
8.07462e-06
1.2506e-05
1.22693e-05
1.94854e-05
1.76551e-05
2.83209e-05
2.4337e-05
3.91164e-05
3.25505e-05
5.20783e-05
4.26446e-05
6.75645e-05
5.51805e-05
7.07537e-05
8.62138e-05
2.7492e-07
7.00682e-07
1.18251e-06
2.05072e-06
2.85972e-06
3.31667e-06
5.80111e-06
5.13323e-06
1.04739e-05
7.59651e-06
1.71731e-05
1.09559e-05
2.60645e-05
1.54456e-05
3.73337e-05
2.12813e-05
5.12569e-05
2.87214e-05
6.82276e-05
3.82098e-05
4.95324e-05
8.94489e-05
3.31424e-07
3.69258e-07
9.1788e-07
1.46427e-06
2.23163e-06
2.00292e-06
4.67868e-06
2.68618e-06
8.57918e-06
3.69601e-06
1.42524e-05
5.28273e-06
2.20289e-05
7.66901e-06
3.22714e-05
1.10388e-05
4.53463e-05
1.56465e-05
6.1648e-05
2.19082e-05
3.02568e-05
8.09236e-05
-4.67536e-07
8.36794e-07
1.25645e-06
-2.59713e-07
3.70962e-06
-4.50251e-07
6.48833e-06
-9.2528e-08
9.92207e-06
2.62263e-07
1.44156e-05
7.89254e-07
2.04097e-05
1.67486e-06
2.84228e-05
3.02569e-06
3.90066e-05
5.06271e-06
5.27816e-05
8.1332e-06
1.28902e-05
7.01482e-05
-1.35309e-05
6.50281e-06
-2.51763e-05
3.77984e-06
-3.56587e-05
1.44825e-06
-4.49107e-05
-8.61931e-07
-5.3378e-05
-3.24078e-06
-6.2016e-05
-5.37905e-06
-7.15459e-05
-7.52355e-06
-8.24648e-05
-1.00587e-05
-9.51713e-05
-1.33602e-05
-0.000110075
-1.78243e-05
-2.39493e-05
-0.000127599
-5.03884e-06
1.15416e-05
-1.10296e-05
9.77064e-06
-1.98184e-05
1.0237e-05
-2.93035e-05
8.62316e-06
-3.94145e-05
6.87024e-06
-5.0064e-05
5.27041e-06
-6.14908e-05
3.90333e-06
-7.42189e-05
2.66941e-06
-8.87352e-05
1.15604e-06
-0.000105636
-9.23658e-07
-3.99756e-06
-0.000125588
-2.10113e-06
1.36428e-05
-5.51536e-06
1.31849e-05
-1.14042e-05
1.61258e-05
-1.89438e-05
1.61628e-05
-2.8235e-05
1.61614e-05
-3.87523e-05
1.57878e-05
-5.05099e-05
1.56609e-05
-6.36996e-05
1.58591e-05
-7.88084e-05
1.62649e-05
-9.6345e-05
1.6613e-05
1.65199e-05
-0.000116863
-1.40806e-06
1.50508e-05
-4.2773e-06
1.60541e-05
-8.47124e-06
2.03198e-05
-1.41373e-05
2.18288e-05
-2.16788e-05
2.37029e-05
-3.08835e-05
2.49924e-05
-4.1666e-05
2.64434e-05
-5.40191e-05
2.82122e-05
-6.82027e-05
3.04485e-05
-8.46318e-05
3.3042e-05
3.57521e-05
-0.000103864
-1.3311e-06
1.63819e-05
-4.02961e-06
1.87526e-05
-7.27003e-06
2.35602e-05
-1.16521e-05
2.62109e-05
-1.75828e-05
2.96336e-05
-2.51362e-05
3.25458e-05
-3.43266e-05
3.56338e-05
-4.51548e-05
3.90405e-05
-5.77346e-05
4.30284e-05
-7.22946e-05
4.76019e-05
5.26432e-05
-8.91857e-05
-1.19292e-06
1.75749e-05
-3.63867e-06
2.11984e-05
-6.34988e-06
2.62714e-05
-9.9068e-06
2.97679e-05
-1.46503e-05
3.43771e-05
-2.06586e-05
3.85541e-05
-2.81995e-05
4.31747e-05
-3.72885e-05
4.81294e-05
-4.79804e-05
5.37203e-05
-6.04036e-05
6.00252e-05
6.69483e-05
-7.47087e-05
-9.94486e-07
1.85694e-05
-3.09395e-06
2.32978e-05
-5.37766e-06
2.85551e-05
-8.30387e-06
3.26941e-05
-1.21458e-05
3.8219e-05
-1.69489e-05
4.33572e-05
-2.30311e-05
4.92569e-05
-3.04643e-05
5.55626e-05
-3.93244e-05
6.25804e-05
-4.96931e-05
7.03939e-05
7.89636e-05
-6.17084e-05
-9.34841e-07
1.95042e-05
-2.68921e-06
2.50522e-05
-4.59582e-06
3.04617e-05
-7.03345e-06
3.51317e-05
-1.0015e-05
4.12005e-05
-1.38816e-05
4.72238e-05
-1.87041e-05
5.40795e-05
-2.46324e-05
6.14908e-05
-3.1797e-05
6.9745e-05
-4.02612e-05
7.88581e-05
8.88357e-05
-5.01333e-05
-7.89439e-07
2.02936e-05
-2.29853e-06
2.65613e-05
-3.6642e-06
3.18274e-05
-5.7594e-06
3.72269e-05
-8.08519e-06
4.35263e-05
-1.10731e-05
5.02118e-05
-1.47918e-05
5.77982e-05
-1.94096e-05
6.61086e-05
-2.50572e-05
7.53926e-05
-3.18997e-05
8.57005e-05
9.70678e-05
-4.01318e-05
-5.77183e-07
2.08708e-05
-1.73162e-06
2.77157e-05
-2.84066e-06
3.29364e-05
-4.34969e-06
3.87359e-05
-6.08535e-06
4.52619e-05
-8.3165e-06
5.24429e-05
-1.10692e-05
6.05509e-05
-1.45124e-05
6.95518e-05
-1.87926e-05
7.96729e-05
-2.40985e-05
9.10064e-05
0.000103672
-3.07031e-05
-3.01396e-07
2.11722e-05
-9.80624e-07
2.83949e-05
-1.69662e-06
3.36524e-05
-2.73687e-06
3.97762e-05
-3.88136e-06
4.64064e-05
-5.40435e-06
5.39659e-05
-7.27257e-06
6.24191e-05
-9.65442e-06
7.19336e-05
-1.26558e-05
8.26743e-05
-1.64444e-05
9.47949e-05
0.00010845
-2.12223e-05
-9.99536e-08
2.12722e-05
-4.70791e-07
2.87658e-05
-7.82846e-07
3.39645e-05
-1.32433e-06
4.03177e-05
-1.87657e-06
4.69586e-05
-2.66772e-06
5.4757e-05
-3.6488e-06
6.34002e-05
-4.95008e-06
7.32349e-05
-6.65651e-06
8.43807e-05
-8.91141e-06
9.70498e-05
0.000111358
-1.1819e-05
1.45202e-07
2.1127e-05
1.3946e-07
2.87715e-05
2.12126e-07
3.38918e-05
1.85508e-07
4.03443e-05
2.20871e-07
4.69233e-05
1.59537e-07
5.48184e-05
7.06694e-08
6.34891e-05
-1.62928e-07
7.34685e-05
-5.63909e-07
8.47817e-05
-1.26937e-06
9.77553e-05
0.000112521
-2.43218e-06
5.04704e-07
2.06223e-05
9.38002e-07
2.83382e-05
1.43407e-06
3.33957e-05
1.93156e-06
3.98468e-05
2.56229e-06
4.62926e-05
3.23423e-06
5.41464e-05
4.02312e-06
6.27002e-05
4.86895e-06
7.26227e-05
5.77552e-06
8.38752e-05
6.70925e-06
9.68215e-05
0.000111605
7.62468e-06
7.23452e-07
1.98988e-05
1.53004e-06
2.75316e-05
2.47342e-06
3.24524e-05
3.53705e-06
3.87832e-05
4.79741e-06
4.50322e-05
6.27128e-06
5.26726e-05
7.99894e-06
6.09725e-05
1.00046e-05
7.0617e-05
1.23178e-05
8.1562e-05
1.49799e-05
9.41594e-05
0.000108555
1.80302e-05
9.81059e-07
1.89178e-05
2.2052e-06
2.63075e-05
3.60986e-06
3.10477e-05
5.25969e-06
3.71334e-05
7.19178e-06
4.31001e-05
9.50413e-06
5.03602e-05
1.22271e-05
5.82496e-05
1.54444e-05
6.73996e-05
1.92212e-05
7.77852e-05
2.36659e-05
8.97147e-05
0.000103276
2.89452e-05
1.30194e-06
1.76158e-05
2.9731e-06
2.46363e-05
4.88627e-06
2.91345e-05
7.16845e-06
3.48512e-05
9.82024e-06
4.04483e-05
1.30137e-05
4.71667e-05
1.67867e-05
5.44765e-05
2.12715e-05
6.29148e-05
2.65962e-05
7.24604e-05
3.29142e-05
8.33968e-05
9.57422e-05
4.04478e-05
1.60979e-06
1.6006e-05
3.74575e-06
2.25004e-05
6.20709e-06
2.66732e-05
9.16977e-06
3.18885e-05
1.26079e-05
3.70102e-05
1.67632e-05
4.30114e-05
2.16695e-05
4.95703e-05
2.75173e-05
5.7067e-05
3.44525e-05
6.55252e-05
4.27073e-05
7.5142e-05
8.58847e-05
5.25649e-05
1.92512e-06
1.40809e-05
4.52924e-06
1.98963e-05
7.58689e-06
2.36155e-05
1.12799e-05
2.81955e-05
1.55954e-05
3.26947e-05
2.0773e-05
3.78338e-05
2.68928e-05
4.34504e-05
3.41699e-05
4.979e-05
4.27924e-05
5.69027e-05
5.30595e-05
6.48749e-05
7.36147e-05
6.53294e-05
2.26743e-06
1.18135e-05
5.3661e-06
1.67976e-05
9.05094e-06
1.99307e-05
1.3536e-05
2.37104e-05
1.87898e-05
2.7441e-05
2.5045e-05
3.15786e-05
3.24293e-05
3.60661e-05
4.11621e-05
4.10572e-05
5.15059e-05
4.65588e-05
6.37881e-05
5.25927e-05
5.89589e-05
7.8444e-05
2.63042e-06
9.18305e-06
6.21631e-06
1.32117e-05
1.05646e-05
1.55824e-05
1.58628e-05
1.84122e-05
2.20798e-05
2.1224e-05
2.94187e-05
2.42397e-05
3.80394e-05
2.74455e-05
4.82045e-05
3.08921e-05
6.02115e-05
3.45519e-05
7.44586e-05
3.83456e-05
4.20044e-05
9.14131e-05
2.99718e-06
6.18587e-06
7.0948e-06
9.11408e-06
1.20593e-05
1.06179e-05
1.80773e-05
1.23942e-05
2.51399e-05
1.41614e-05
3.34527e-05
1.59269e-05
4.3188e-05
1.77102e-05
5.46248e-05
1.94553e-05
6.81154e-05
2.10612e-05
8.40941e-05
2.2367e-05
2.29672e-05
0.000103131
3.77295e-06
2.41292e-06
8.22753e-06
4.6595e-06
1.35168e-05
5.32858e-06
1.98965e-05
6.01451e-06
2.74453e-05
6.61264e-06
3.63257e-05
7.04643e-06
4.67672e-05
7.26872e-06
5.90666e-05
7.15595e-06
7.35681e-05
6.55962e-06
9.06057e-05
5.3294e-06
3.36002e-06
0.000110213
3.24971e-06
7.6495e-06
1.25278e-05
1.84498e-05
2.53247e-05
3.31604e-05
4.2104e-05
5.22856e-05
6.3908e-05
7.73706e-05
9.36208e-05
1.55187e-06
1.34138e-05
-1.49657e-05
2.14123e-06
1.33635e-05
-1.39528e-05
3.19924e-07
1.7487e-05
-1.56657e-05
-2.99518e-06
2.1064e-05
-1.77488e-05
-7.02774e-06
2.43306e-05
-2.02981e-05
-1.14282e-05
2.78881e-05
-2.34877e-05
-1.60722e-05
3.21017e-05
-2.74576e-05
-2.11134e-05
3.74914e-05
-3.24503e-05
-2.67829e-05
4.44424e-05
-3.87728e-05
-3.33218e-05
5.33844e-05
-4.68456e-05
6.4976e-05
-5.72122e-05
-4.10855e-05
4.91474e-06
8.4991e-06
7.35744e-06
1.09208e-05
8.19036e-06
1.6654e-05
7.61154e-06
2.16428e-05
5.42553e-06
2.65166e-05
1.8321e-06
3.14816e-05
-2.71432e-06
3.66481e-05
-7.92842e-06
4.27055e-05
-1.38063e-05
5.03202e-05
-2.06199e-05
6.0198e-05
7.30065e-05
-2.86505e-05
3.49694e-06
5.00216e-06
5.38197e-06
9.03573e-06
7.42127e-06
1.46147e-05
8.65809e-06
2.0406e-05
8.52899e-06
2.66457e-05
6.92473e-06
3.30858e-05
4.00201e-06
3.95708e-05
9.18056e-08
4.66157e-05
-4.58453e-06
5.49966e-05
-1.00949e-05
6.57084e-05
7.95904e-05
-1.66788e-05
2.30477e-06
2.69739e-06
4.10357e-06
7.23693e-06
5.93375e-06
1.27846e-05
7.60395e-06
1.87358e-05
8.6052e-06
2.56445e-05
8.59782e-06
3.30932e-05
7.43517e-06
4.07335e-05
5.25441e-06
4.87965e-05
2.25663e-06
5.79943e-05
-1.41361e-06
6.93787e-05
8.39671e-05
-5.79032e-06
1.41371e-06
1.28368e-06
2.97265e-06
5.67799e-06
4.87499e-06
1.08822e-05
6.56415e-06
1.70466e-05
7.99431e-06
2.42143e-05
8.90659e-06
3.21809e-05
9.06054e-06
4.05795e-05
8.4076e-06
4.94494e-05
7.06532e-06
5.93366e-05
5.19858e-06
7.12454e-05
8.62994e-05
2.86637e-06
9.60296e-07
3.23381e-07
2.37112e-06
4.26717e-06
4.04297e-06
9.21037e-06
5.76995e-06
1.53196e-05
7.40367e-06
2.25806e-05
8.80655e-06
3.0778e-05
9.79352e-06
3.95925e-05
1.02636e-05
4.89793e-05
1.02607e-05
5.93395e-05
9.92289e-06
7.15832e-05
8.6827e-05
9.39526e-06
6.24535e-07
-3.01154e-07
1.80806e-06
3.08365e-06
3.27962e-06
7.73881e-06
4.9184e-06
1.36808e-05
6.64109e-06
2.08579e-05
8.33788e-06
2.90812e-05
9.85346e-06
3.8077e-05
1.11258e-05
4.7707e-05
1.21503e-05
5.83151e-05
1.30285e-05
7.0705e-05
8.5994e-05
1.38615e-05
2.98645e-07
-5.99799e-07
1.17159e-06
2.2107e-06
2.39013e-06
6.52026e-06
3.89142e-06
1.21796e-05
5.59632e-06
1.9153e-05
7.4339e-06
2.72437e-05
9.32544e-06
3.61854e-05
1.11856e-05
4.58468e-05
1.30152e-05
5.64854e-05
1.49022e-05
6.8818e-05
8.38919e-05
1.70043e-05
-2.47631e-09
-5.97323e-07
5.48008e-07
1.66022e-06
1.53926e-06
5.52901e-06
2.87114e-06
1.08477e-05
4.49585e-06
1.75283e-05
6.38815e-06
2.53514e-05
8.50003e-06
3.40735e-05
1.07801e-05
4.35668e-05
1.32165e-05
5.4049e-05
1.58635e-05
6.61711e-05
8.09229e-05
1.88325e-05
-1.32009e-07
-4.65314e-07
1.91015e-07
1.3372e-06
9.34147e-07
4.78588e-06
2.05704e-06
9.72478e-06
3.56308e-06
1.60223e-05
5.44723e-06
2.34672e-05
7.68195e-06
3.18388e-05
1.02381e-05
4.10106e-05
1.30985e-05
5.11886e-05
1.63057e-05
6.29638e-05
7.73003e-05
1.99282e-05
-1.83944e-07
-2.8137e-07
-1.23523e-07
1.27678e-06
3.96056e-07
4.2663e-06
1.32474e-06
8.79609e-06
2.69144e-06
1.46556e-05
4.52509e-06
2.16336e-05
6.82748e-06
2.95364e-05
9.58166e-06
3.82565e-05
1.27754e-05
4.79949e-05
1.64354e-05
5.93038e-05
7.30503e-05
2.06854e-05
-2.44239e-07
-3.7131e-08
-3.75381e-07
1.40792e-06
-1.01457e-07
3.99237e-06
6.40407e-07
8.05423e-06
1.84919e-06
1.34468e-05
3.60995e-06
1.98728e-05
5.9541e-06
2.71923e-05
8.86664e-06
3.53439e-05
1.23348e-05
4.45268e-05
1.63703e-05
5.52683e-05
6.84268e-05
2.09938e-05