/*--------------------------------*- C++ -*----------------------------------*\
| =========                 |                                                 |
| \\      /  F ield         | OpenFOAM: The Open Source CFD Toolbox           |
|  \\    /   O peration     | Version:  3.0.1                                 |
|   \\  /    A nd           | Web:      www.OpenFOAM.org                      |
|    \\/     M anipulation  |                                                 |
\*---------------------------------------------------------------------------*/
FoamFile
{
    version     2.0;
    format      ascii;
    class       volScalarField;
    location    "0.677842";
    object      k;
}
// * * * * * * * * * * * * * * * * * * * * * * * * * * * * * * * * * * * * * //

dimensions      [0 2 -2 0 0 0 0];

internalField   nonuniform List<scalar> 
21246
(
0.767788
1.16539
0.745343
0.492966
0.298675
0.176771
0.108269
0.072042
0.0532582
0.0428404
0.0363927
0.732364
1.06315
0.783328
0.559737
0.354762
0.213815
0.128711
0.0818709
0.0579201
0.0453785
0.0380661
0.648665
0.858546
0.755326
0.580541
0.400509
0.249494
0.150216
0.0940454
0.0643647
0.0491363
0.0408713
0.535931
0.710635
0.702755
0.576389
0.423607
0.279853
0.172653
0.106784
0.0718949
0.0538791
0.0445131
0.416888
0.617583
0.649662
0.565179
0.438104
0.304438
0.195325
0.122442
0.080405
0.0595047
0.0489006
0.308043
0.550039
0.60255
0.552985
0.450156
0.32787
0.218765
0.140082
0.092076
0.0666209
0.0539113
0.215919
0.494142
0.56337
0.540518
0.459864
0.350491
0.243726
0.160374
0.106148
0.0758222
0.0602739
0.148015
0.456343
0.537141
0.529684
0.466737
0.370852
0.268996
0.183045
0.122966
0.0871591
0.0680302
0.126483
0.448476
0.532394
0.526153
0.473164
0.388789
0.293398
0.20718
0.142407
0.100976
0.0775515
0.131307
0.45226
0.548142
0.53777
0.485322
0.406781
0.316952
0.231978
0.164009
0.117354
0.0892005
0.121835
0.414379
0.560067
0.566301
0.509749
0.429062
0.340865
0.256943
0.187004
0.136001
0.103121
0.102181
0.337941
0.532953
0.591548
0.544722
0.458674
0.367094
0.282235
0.210731
0.156367
0.11925
0.0830525
0.26249
0.4615
0.582656
0.575426
0.493395
0.396784
0.308587
0.235029
0.178009
0.137333
0.0674193
0.202463
0.368566
0.52432
0.578509
0.52231
0.427017
0.335536
0.259644
0.200521
0.156981
0.0563758
0.157623
0.279315
0.433193
0.54085
0.530123
0.449658
0.359623
0.282985
0.222921
0.177604
0.0495844
0.129359
0.212498
0.338259
0.468862
0.507125
0.455318
0.375447
0.302305
0.243676
0.197965
0.0453366
0.111842
0.167715
0.256757
0.37944
0.454082
0.437659
0.377168
0.313741
0.260222
0.216047
0.0421119
0.0999781
0.138947
0.198487
0.290437
0.380393
0.396879
0.361088
0.313336
0.268895
0.228858
0.0396957
0.0915485
0.118818
0.160344
0.221708
0.298152
0.339421
0.327828
0.298927
0.267038
0.232994
0.0381836
0.0857375
0.104272
0.134007
0.174954
0.227907
0.27445
0.282588
0.271186
0.253348
0.22788
0.0371193
0.0804791
0.0935543
0.115532
0.14363
0.178846
0.215489
0.232419
0.232414
0.226177
0.210326
0.0361842
0.0756636
0.0852803
0.103444
0.125005
0.149782
0.172679
0.185745
0.188588
0.186864
0.17757
0.038666
0.0832365
0.091865
0.109567
0.12648
0.142687
0.153643
0.157673
0.1567
0.154731
0.14999
0.0948614
0.100031
0.0881925
0.0944851
0.111014
0.12913
0.141483
0.146305
0.146674
0.147116
0.149144
0.721142
0.913651
0.672127
0.41865
0.251128
0.153147
0.0978214
0.0676157
0.0512175
0.0416351
0.0353096
0.50633
0.710535
0.572715
0.401551
0.256083
0.160724
0.103273
0.0708095
0.0530227
0.0427212
0.036006
0.449931
0.627036
0.524116
0.410564
0.282192
0.180712
0.114906
0.0771209
0.0566017
0.0450185
0.0376269
0.415094
0.558756
0.476331
0.39782
0.291582
0.196059
0.127652
0.0854543
0.0617127
0.0484313
0.0402289
0.389574
0.49429
0.43707
0.374426
0.28217
0.197316
0.133669
0.0923357
0.0679062
0.0536286
0.0445297
0.36888
0.441423
0.404608
0.35257
0.271493
0.194585
0.134803
0.0949855
0.070996
0.0568843
0.0480473
0.35129
0.399982
0.378061
0.333338
0.261046
0.191265
0.135515
0.0973632
0.0737318
0.0596103
0.0510171
0.336251
0.367764
0.356598
0.31783
0.252747
0.189073
0.136933
0.100251
0.0766888
0.0620602
0.0530487
0.323445
0.342613
0.339708
0.306439
0.247786
0.189404
0.1403
0.104684
0.0808311
0.0652673
0.0553714
0.312356
0.3226
0.326866
0.298867
0.246615
0.192996
0.146566
0.111743
0.0872578
0.070123
0.0582464
0.302483
0.306403
0.317079
0.294655
0.24921
0.200232
0.156462
0.122441
0.0972009
0.0779843
0.0629862
0.293409
0.292598
0.309177
0.293091
0.254797
0.210875
0.170228
0.137469
0.111834
0.0905284
0.0716288
0.284829
0.280087
0.302479
0.293317
0.262632
0.224438
0.187679
0.157025
0.131869
0.109184
0.0868002
0.276297
0.26811
0.295445
0.29358
0.271174
0.239678
0.207874
0.180437
0.157004
0.134401
0.109599
0.267361
0.256333
0.287206
0.292294
0.278385
0.254435
0.228626
0.205437
0.184749
0.163481
0.138057
0.257778
0.244165
0.277139
0.28852
0.282862
0.266842
0.24765
0.229418
0.212249
0.193335
0.168796
0.247252
0.231076
0.264614
0.281261
0.283131
0.274866
0.262394
0.249389
0.236165
0.220279
0.198207
0.235472
0.216677
0.249182
0.269664
0.277847
0.276588
0.270422
0.262469
0.253231
0.240678
0.221888
0.222263
0.200695
0.23058
0.253178
0.266092
0.270635
0.269949
0.266524
0.261007
0.251864
0.236891
0.207665
0.183008
0.208832
0.231719
0.247606
0.256515
0.260283
0.260714
0.258531
0.252763
0.241788
0.192059
0.163692
0.184283
0.205742
0.22287
0.234691
0.241882
0.245525
0.246311
0.243932
0.237011
0.176489
0.143085
0.157527
0.176021
0.192772
0.206116
0.215755
0.221998
0.225335
0.226142
0.223691
0.162595
0.121252
0.128633
0.142802
0.15782
0.17178
0.183511
0.192224
0.19776
0.201134
0.203036
0.159118
0.10168
0.107405
0.120698
0.137593
0.154435
0.167027
0.173545
0.176117
0.177324
0.178816
0.616259
0.886453
0.737537
0.550401
0.376007
0.239625
0.147784
0.0903494
0.0547894
0.0329507
0.0201368
0.476223
0.702828
0.656744
0.514592
0.359301
0.232907
0.144813
0.0881091
0.0528757
0.0314838
0.0190114
0.355345
0.60007
0.594795
0.497801
0.364025
0.242158
0.151892
0.0920503
0.0545789
0.0320742
0.019316
0.289318
0.52591
0.546561
0.479193
0.365248
0.250243
0.159755
0.0978913
0.0584699
0.0344084
0.0205339
0.245239
0.437384
0.479056
0.448955
0.362496
0.258857
0.168902
0.104261
0.0620936
0.0360022
0.0208041
0.221825
0.380908
0.420788
0.403972
0.338825
0.251716
0.169262
0.106324
0.0639969
0.037582
0.0222915
0.208057
0.343589
0.380419
0.366724
0.310374
0.234407
0.161343
0.103972
0.0639855
0.0381322
0.0226695
0.199371
0.316485
0.349222
0.336312
0.286201
0.218465
0.152664
0.100176
0.0628359
0.0382069
0.0235158
0.192907
0.295124
0.323908
0.311045
0.265147
0.203699
0.143967
0.0959445
0.0613054
0.038003
0.0237274
0.187249
0.277091
0.302916
0.290348
0.247767
0.191233
0.136342
0.0920028
0.0596664
0.0374899
0.0234475
0.182245
0.261595
0.285355
0.273405
0.233677
0.181119
0.130062
0.088631
0.0581237
0.0369143
0.0235472
0.178488
0.248613
0.270713
0.259411
0.222174
0.172953
0.125027
0.085926
0.0568907
0.0364916
0.0234976
0.175555
0.237495
0.25846
0.248012
0.213078
0.166705
0.121321
0.0840442
0.0561355
0.0363169
0.0234426
0.172862
0.22764
0.248143
0.239002
0.206372
0.16246
0.119062
0.0830906
0.0559091
0.0364023
0.0237203
0.170963
0.219171
0.239512
0.231902
0.201604
0.159933
0.118132
0.0830444
0.056228
0.0367562
0.0238988
0.169746
0.211683
0.232326
0.226605
0.198792
0.159237
0.118674
0.0840354
0.057194
0.0374558
0.0243033
0.168915
0.204723
0.226311
0.223103
0.198159
0.160693
0.121003
0.0863063
0.0589662
0.0385912
0.0249405
0.168772
0.198272
0.221317
0.221223
0.199668
0.164462
0.125381
0.0901117
0.0617567
0.0403204
0.0258183
0.169716
0.19224
0.216697
0.220271
0.203056
0.170821
0.132371
0.0958571
0.0658935
0.0429238
0.0272805
0.171911
0.186254
0.212242
0.219741
0.207413
0.178741
0.14128
0.103691
0.0717264
0.0468441
0.029641
0.175717
0.18025
0.207553
0.219254
0.212206
0.187683
0.151826
0.11351
0.0795948
0.0526431
0.033523
0.182893
0.17296
0.202698
0.217957
0.216165
0.19634
0.163201
0.125308
0.0901285
0.0612394
0.0399092
0.192026
0.166483
0.195449
0.21564
0.218708
0.20372
0.174557
0.138905
0.103921
0.0737415
0.0501855
0.215695
0.176261
0.205202
0.209964
0.212317
0.202549
0.180723
0.151344
0.119897
0.0904961
0.0657301
0.576358
0.809648
0.727546
0.5985
0.455571
0.302499
0.185896
0.112775
0.0671333
0.0395236
0.0237069
0.457839
0.599506
0.644045
0.593323
0.495957
0.369167
0.246243
0.149493
0.088634
0.0517397
0.030318
0.252882
0.502543
0.568449
0.56023
0.502445
0.406315
0.294553
0.191469
0.1164
0.0691423
0.0408158
0.241569
0.505209
0.577731
0.556614
0.506588
0.428269
0.330062
0.229339
0.146112
0.0903212
0.0557639
0.267468
0.538001
0.717679
0.661061
0.560675
0.462606
0.362836
0.263399
0.176002
0.11213
0.0726159
0.280362
0.529669
0.824743
0.897439
0.734267
0.558096
0.416967
0.301694
0.206745
0.135212
0.0891559
0.29094
0.511031
0.80649
1.09411
1.03695
0.770921
0.532217
0.362934
0.244066
0.160467
0.106774
0.301904
0.49481
0.76823
1.09123
1.28732
1.07861
0.736887
0.470671
0.298924
0.191148
0.125629
0.313044
0.480856
0.725975
1.03629
1.3492
1.36357
1.01443
0.638844
0.383098
0.232388
0.147732
0.324341
0.470623
0.684404
0.960231
1.28201
1.50247
1.28341
0.847533
0.497246
0.28709
0.174191
0.335799
0.46633
0.64888
0.877845
1.16735
1.46571
1.45192
1.04515
0.623761
0.351014
0.204585
0.347831
0.467989
0.621573
0.798304
1.03718
1.34034
1.48731
1.1771
0.730215
0.410924
0.23465
0.360889
0.477287
0.603959
0.731002
0.91163
1.17601
1.39952
1.21627
0.786676
0.450473
0.257662
0.375332
0.492629
0.594391
0.678643
0.801325
1.00381
1.24038
1.17094
0.781428
0.459127
0.269374
0.391756
0.514239
0.591804
0.63937
0.71157
0.839441
1.01387
1.06921
0.719934
0.436139
0.26905
0.4095
0.542229
0.5944
0.604701
0.629967
0.696351
0.790617
0.848376
0.656252
0.395004
0.260789
0.429872
0.580239
0.607206
0.579851
0.561088
0.577169
0.614713
0.6343
0.563062
0.374227
0.254848
0.454762
0.634002
0.639207
0.576217
0.52058
0.503164
0.511217
0.517303
0.488585
0.376944
0.259482
0.487702
0.713171
0.706064
0.611397
0.525887
0.48943
0.488528
0.495489
0.481989
0.420622
0.307578
0.534436
0.8405
0.846479
0.724591
0.606377
0.55287
0.550782
0.559436
0.549599
0.497407
0.366978
0.582403
0.989708
1.04542
0.928869
0.782085
0.694653
0.620893
0.574069
0.522653
0.438179
0.318454
0.57795
1.01696
1.09619
1.01736
0.796956
0.552909
0.441805
0.358999
0.292625
0.234231
0.180148
0.421486
0.680131
0.6622
0.525644
0.396897
0.309623
0.253835
0.213028
0.178946
0.147704
0.117872
0.260267
0.20828
0.193266
0.188561
0.188748
0.187675
0.180417
0.164941
0.142583
0.11655
0.0905103
0.225967
0.215374
0.0999158
0.0467201
0.0250302
0.0167993
0.0136139
0.0121666
0.0113523
0.0107645
0.0102323
0.273189
0.329621
0.0959865
0.0545093
0.0279863
0.018047
0.0137942
0.0118627
0.0108206
0.0101227
0.00956518
0.317699
0.376142
0.0979907
0.0633298
0.0299289
0.0193648
0.0141679
0.0118079
0.010518
0.00967756
0.00900532
0.356434
0.353421
0.102003
0.0672387
0.0303676
0.0203839
0.0144795
0.0118325
0.0103432
0.00938023
0.0086172
0.385761
0.323368
0.10357
0.0661479
0.0303471
0.0209952
0.0146162
0.0118589
0.0102356
0.00919421
0.00838991
0.405537
0.305199
0.103837
0.0635191
0.0303651
0.0212258
0.0146161
0.0118645
0.0101507
0.00907135
0.00825818
0.416267
0.298617
0.104101
0.0611668
0.030529
0.0212119
0.0145659
0.0118429
0.0100715
0.00897715
0.00814693
0.418602
0.298789
0.104828
0.0594656
0.030836
0.0210642
0.0145252
0.0117988
0.00999957
0.00890089
0.00808216
0.413899
0.3019
0.107886
0.0592611
0.0313304
0.0209028
0.0145422
0.0117511
0.00993996
0.00883434
0.00801856
0.403372
0.308011
0.115014
0.0610403
0.0325253
0.0210352
0.0146772
0.011719
0.00989893
0.00877849
0.00796005
0.387265
0.317753
0.125609
0.0646383
0.0344441
0.0215503
0.0150167
0.0117728
0.00990654
0.00874572
0.00791549
0.366341
0.331132
0.13826
0.0697237
0.0370105
0.0224947
0.0155218
0.0119228
0.00996163
0.00873956
0.0078916
0.342234
0.347193
0.154127
0.0768986
0.0405951
0.0240503
0.0162793
0.0122217
0.0100841
0.00876866
0.00788465
0.315944
0.365536
0.175127
0.0873935
0.0458925
0.0265446
0.0174623
0.0127543
0.0103146
0.00885421
0.00790463
0.288136
0.388068
0.200483
0.101379
0.0531935
0.0301928
0.0192422
0.013614
0.0107097
0.00902624
0.00796862
0.260619
0.414627
0.232102
0.120413
0.0635278
0.0355831
0.0219767
0.0149939
0.0113794
0.00934389
0.00810826
0.235185
0.443723
0.272746
0.147409
0.0788925
0.0438983
0.0263555
0.0172787
0.0125391
0.00992406
0.00838761
0.21414
0.478435
0.324556
0.185238
0.101725
0.056854
0.0334932
0.0211532
0.0145968
0.0110009
0.00893918
0.201158
0.519557
0.391316
0.23931
0.136725
0.0778265
0.0456457
0.0280628
0.0184473
0.0131096
0.0100738
0.199192
0.564589
0.475448
0.317617
0.192353
0.113511
0.0675776
0.0412341
0.0261978
0.0175823
0.0126058
0.20601
0.602545
0.570634
0.427267
0.282048
0.17701
0.109735
0.0683049
0.0431779
0.0280134
0.0188827
0.216784
0.619513
0.654954
0.561686
0.418898
0.289984
0.193701
0.127322
0.0832657
0.0545859
0.0360962
0.206528
0.587723
0.664966
0.646861
0.559932
0.445848
0.335198
0.242869
0.171774
0.119765
0.0825442
0.262303
0.546391
0.585172
0.585055
0.540265
0.476339
0.403424
0.330066
0.262167
0.203308
0.15393
0.191565
0.19969
0.0991979
0.0455276
0.0242884
0.0167432
0.0140284
0.0128887
0.0123063
0.0119348
0.0116297
0.22446
0.229254
0.0818817
0.0462799
0.0269645
0.0188163
0.0153986
0.013972
0.0133277
0.0130048
0.0128093
0.256051
0.248696
0.0737397
0.049594
0.0292218
0.0211026
0.0175912
0.0161616
0.0155719
0.0153017
0.0151343
0.281782
0.224707
0.0699851
0.0511612
0.0300018
0.0223098
0.0189773
0.0179074
0.0178157
0.018169
0.0187217
0.300218
0.190915
0.0673515
0.0501471
0.0299369
0.023014
0.019864
0.0190343
0.0192691
0.0200775
0.0212219
0.313328
0.163727
0.0647
0.0478325
0.0295708
0.0234095
0.0204066
0.0197411
0.0202017
0.0214061
0.023212
0.323293
0.144188
0.0620391
0.0453447
0.0291416
0.0236116
0.0206892
0.0201195
0.0206489
0.0219944
0.0240365
0.330195
0.12981
0.0594017
0.0430991
0.0286942
0.0236288
0.0207933
0.0202502
0.0207379
0.0220763
0.0242443
0.335955
0.118995
0.0569921
0.0412051
0.0283287
0.0234923
0.0207749
0.0201818
0.0205443
0.021722
0.0236834
0.341913
0.110979
0.0549448
0.0397149
0.0280995
0.0232887
0.0206615
0.0199601
0.020141
0.0210555
0.0225914
0.349172
0.105516
0.0534034
0.0386491
0.0279844
0.0230976
0.0204914
0.0196389
0.0196099
0.0202322
0.0213487
0.356884
0.101702
0.0521986
0.037908
0.0279708
0.0229408
0.0203037
0.0192717
0.0190281
0.0193744
0.0201439
0.363736
0.100459
0.0514877
0.0374868
0.0281246
0.0228627
0.020156
0.0189119
0.0184628
0.0185665
0.0190761
0.369369
0.1022
0.0517485
0.0374068
0.0285331
0.0229628
0.0201257
0.0186295
0.0179823
0.0178784
0.0182134
0.373859
0.105533
0.0527132
0.0376318
0.0291394
0.0232794
0.020244
0.0184728
0.0176221
0.0173372
0.0175456
0.377382
0.110688
0.0545983
0.0382718
0.0299553
0.0238714
0.0205668
0.0185036
0.0174265
0.0169666
0.0170596
0.38006
0.118052
0.0577923
0.039536
0.0310459
0.0248015
0.0211718
0.0187981
0.0174573
0.0168031
0.0167595
0.381918
0.127442
0.062618
0.0416978
0.032536
0.0261277
0.0221474
0.0194486
0.0178012
0.0169103
0.0166664
0.382972
0.138871
0.0695674
0.0452239
0.034713
0.0279671
0.0236022
0.0205685
0.0185826
0.0173998
0.016886
0.383214
0.152583
0.0793876
0.0509089
0.0381737
0.030625
0.025732
0.0223141
0.0199652
0.0184458
0.0176008
0.382526
0.16856
0.0930197
0.0599912
0.0440356
0.0348496
0.0289976
0.024983
0.0221796
0.0202718
0.019064
0.38055
0.186644
0.111501
0.0742797
0.0542314
0.0422557
0.0345563
0.0293276
0.0256839
0.0231563
0.0214625
0.376211
0.210161
0.138389
0.0975585
0.0727348
0.0566646
0.0457418
0.038052
0.0325329
0.0285588
0.0258796
0.307676
0.262585
0.20545
0.17034
0.150646
0.139148
0.132261
0.127208
0.12229
0.116642
0.109433
0.0553002
0.0246938
0.0164935
0.0164865
0.0208628
0.0430587
0.0739575
0.093256
0.105981
0.0708384
0.0462257
0.0292383
0.0257227
0.0435391
0.0765234
0.102861
0.130645
0.155253
0.0889028
0.0600671
0.0384163
0.0340945
0.059474
0.0994792
0.127275
0.147439
0.160205
0.0957873
0.0695032
0.0457263
0.0422356
0.0717425
0.108813
0.129593
0.141538
0.148955
0.0801753
0.0949891
0.103807
0.109339
0.110714
0.112089
0.114321
0.117886
0.115555
0.0964018
0.11951
0.139754
0.154065
0.163776
0.177765
0.191085
0.183884
0.173539
0.113561
0.129901
0.142507
0.154156
0.162018
0.173802
0.187855
0.180065
0.170682
0.113122
0.122465
0.130549
0.137438
0.138627
0.144104
0.15897
0.154388
0.153375
0.00442758
0.00460153
0.00461707
0.00248865
0.0463114
0.00438334
0.0110956
0.00454925
0.00437552
0.00425261
0.0454524
0.00455923
0.00373976
0.0033003
0.00448403
0.0043036
0.00330379
0.00247995
0.00429314
0.0042496
0.0041124
0.00471779
0.00466561
0.017718
0.00449231
0.00331086
0.00378845
0.0106751
0.0606357
0.0485228
0.00339428
0.00410545
0.00303802
0.00453656
0.00427566
0.00459218
0.0165109
0.0044874
0.00295393
0.00438945
0.00576797
0.0045458
0.00564915
0.00465866
0.0602588
0.0118701
0.00313002
0.0189006
0.00429871
0.00433984
0.0483721
0.00439556
0.0284158
0.00568247
0.0043317
0.00411936
0.00464857
0.00440132
0.0620638
0.00941821
0.00513085
0.0267697
0.0532352
0.00858361
0.00740123
0.0042616
0.0517009
0.00435238
0.00460181
0.00424456
0.00329169
0.00430813
0.00324157
0.00456347
0.00666332
0.00427356
0.00407783
0.00459822
0.00934583
0.0735677
0.051384
0.00680538
0.00449558
0.00462627
0.00438293
0.00328999
0.0825325
0.0265323
0.00312689
0.0187758
0.00454264
0.0044124
0.00658295
0.00438788
0.0724595
0.0324629
0.00585282
0.00398587
0.00345889
0.00437181
0.00466416
0.0176244
0.00417067
0.00402385
0.00290246
0.00455287
0.00305339
0.00464664
0.00434687
0.00415587
0.00450969
0.0045608
0.00430642
0.00245341
0.00456735
0.00442333
0.00437642
0.00431718
0.00450178
0.00414088
0.00244373
0.00449977
0.00503957
0.00325057
0.0107527
0.00416932
0.0584865
0.00305001
0.00321827
0.00352849
0.00445274
0.00918302
0.0177647
0.00427924
0.00461404
0.00457691
0.00374907
0.00445814
0.0493452
0.00447181
0.00572092
0.00411291
0.0245005
0.00402549
0.00436884
0.00332133
0.00444078
0.00433817
0.00431209
0.00425198
0.00428942
0.00441904
0.0035636
0.00448272
0.00255697
0.0031014
0.00395198
0.00374782
0.00320339
0.00436106
0.00364084
0.00426835
0.00429903
0.00443051
0.053723
0.00576255
0.00357869
0.00425057
0.00425294
0.00733334
0.00313246
0.00309907
0.00445245
0.0040571
0.00409518
0.00396321
0.00316374
0.00359555
0.0612316
0.0039293
0.00433224
0.00446386
0.00466005
0.0128392
0.00450558
0.00430733
0.00427132
0.00430336
0.00458952
0.0126202
0.00419325
0.00341786
0.00427427
0.00575209
0.00461
0.00439901
0.00435348
0.00353642
0.00361646
0.00467916
0.00325925
0.00434012
0.00405535
0.00348348
0.00462766
0.0266868
0.0043769
0.00321082
0.00434686
0.00433929
0.022491
0.00439446
0.00401383
0.00423042
0.00449172
0.0146547
0.00451059
0.00362636
0.00429315
0.00320788
0.00292043
0.00237475
0.00560579
0.00450431
0.00321114
0.00440629
0.00952961
0.00564414
0.00393871
0.0241438
0.00394193
0.00425826
0.00428418
0.00449273
0.00352208
0.0706534
0.0523536
0.00464666
0.00456354
0.00455165
0.00363455
0.0107641
0.00401482
0.00551822
0.00462683
0.00470269
0.0045184
0.00358337
0.028214
0.0608462
0.00356989
0.0226536
0.00520851
0.00430278
0.00395335
0.00436011
0.00413901
0.00447318
0.00319052
0.00426526
0.00339586
0.00454233
0.00432686
0.00457565
0.0045074
0.00302503
0.00411251
0.00482736
0.00559284
0.00372305
0.0215312
0.00432241
0.00433339
0.00305322
0.00439075
0.00432881
0.00331123
0.00444797
0.00428135
0.00320171
0.00434447
0.00459919
0.0516542
0.0489524
0.00395432
0.0043971
0.0831815
0.0045908
0.00425192
0.0054365
0.00461756
0.0112409
0.00424754
0.0028867
0.00467895
0.00435177
0.00423965
0.00456657
0.00427135
0.00334026
0.00444799
0.00251166
0.00438236
0.0489389
0.00415067
0.00415805
0.00459936
0.0161875
0.00447637
0.00435012
0.00712933
0.00456493
0.00409271
0.00304419
0.00448576
0.00410978
0.00370772
0.003292
0.00413018
0.00447643
0.00426406
0.0396292
0.00435651
0.00338965
0.00570212
0.00419001
0.00445211
0.00371741
0.00424194
0.0292036
0.00446042
0.0537609
0.0039234
0.0046493
0.00357671
0.0426435
0.00365532
0.00458772
0.00447425
0.00397309
0.00400434
0.0213705
0.00433566
0.00556854
0.0195158
0.0164289
0.00593392
0.00437764
0.0141219
0.0626625
0.00848461
0.00391448
0.00374036
0.00416884
0.00394182
0.00468916
0.00293944
0.00399935
0.00465986
0.0372061
0.00386156
0.00333652
0.00451807
0.00451202
0.0043114
0.00328696
0.00308769
0.00288596
0.0106107
0.0045907
0.00444115
0.0127588
0.0348982
0.00321035
0.00389026
0.00460967
0.00391712
0.00425762
0.00437925
0.00425925
0.0409845
0.00438624
0.00320654
0.00441325
0.00340613
0.0523687
0.00243802
0.00319734
0.0103148
0.00344465
0.00442945
0.00535443
0.00310555
0.00459093
0.0533368
0.00735713
0.00447906
0.0042921
0.00462
0.00505244
0.00316884
0.00441018
0.00466144
0.00563835
0.00294242
0.0063178
0.00795085
0.00736446
0.00433809
0.0394005
0.00426501
0.00427901
0.0037597
0.00369827
0.00414578
0.00407612
0.00422689
0.00469376
0.00314505
0.00496587
0.0314223
0.00321588
0.0125035
0.00407271
0.00398409
0.00414333
0.0045291
0.00481698
0.00443668
0.00861984
0.00448628
0.00320879
0.00342899
0.00410552
0.00426507
0.00294187
0.0239814
0.0475651
0.00326133
0.00468839
0.00395945
0.0822905
0.00334142
0.00247017
0.00421457
0.00336262
0.013746
0.00343671
0.00434681
0.00395106
0.00444203
0.00461345
0.00449955
0.00430858
0.0044478
0.011232
0.00314051
0.00326779
0.00490687
0.00459131
0.00434291
0.060572
0.00320699
0.00394498
0.00428088
0.00814593
0.00759615
0.00545505
0.00546768
0.00443862
0.00393452
0.00317061
0.00422633
0.00506344
0.00423845
0.0045879
0.0043291
0.00557891
0.00363013
0.00427602
0.00444973
0.00412727
0.0180158
0.00423983
0.00464701
0.00335326
0.0315277
0.0040482
0.0029412
0.00434175
0.00333152
0.00439729
0.00424913
0.00440139
0.00336077
0.00326651
0.00426488
0.0033967
0.00400156
0.00473488
0.00375171
0.0037068
0.00454144
0.00453467
0.034944
0.00322085
0.00292595
0.00447475
0.0162801
0.00461927
0.0359717
0.00434771
0.00350719
0.00507719
0.00470184
0.0506031
0.00442107
0.00338569
0.00445269
0.00360558
0.00412029
0.00459738
0.00442691
0.00457442
0.00417544
0.0390849
0.00452062
0.0043548
0.011834
0.00443937
0.00905898
0.00432069
0.0129198
0.00331128
0.00316011
0.00467874
0.00447607
0.00463372
0.0058179
0.00370062
0.0045024
0.00448813
0.00324263
0.00461503
0.00343448
0.00460514
0.0429032
0.00423663
0.00400999
0.00293276
0.00334362
0.0132891
0.0379909
0.00416045
0.0041081
0.00430235
0.0046074
0.00295044
0.00335804
0.00423676
0.00352936
0.0327611
0.0358632
0.00449113
0.00433967
0.00459615
0.013178
0.0556292
0.00422793
0.00454414
0.00437069
0.0495204
0.00432225
0.00301793
0.00327675
0.00897655
0.0329969
0.00443024
0.00450998
0.00446309
0.00438919
0.00433971
0.00673562
0.00318707
0.00409627
0.0047125
0.0074081
0.00463644
0.00467333
0.071422
0.00440677
0.00354338
0.00373782
0.00467705
0.0117028
0.00396969
0.00362156
0.00421528
0.00443859
0.00449453
0.0282491
0.00296716
0.00391047
0.0042521
0.00450032
0.00662594
0.00425714
0.00446185
0.00422291
0.00428851
0.00316481
0.00292769
0.0046204
0.00567537
0.00401554
0.0052662
0.00429545
0.00967755
0.00426256
0.00445729
0.0286595
0.0301137
0.0043828
0.00438968
0.00374499
0.0041612
0.00433708
0.00565164
0.0046058
0.00416323
0.00329751
0.00290425
0.00382061
0.00315899
0.00318596
0.0055762
0.0270907
0.00489161
0.00601223
0.00353925
0.00346997
0.00462087
0.00348772
0.00462124
0.00416784
0.00578217
0.00393799
0.0042194
0.00426671
0.00343736
0.00554544
0.027799
0.0036115
0.00542384
0.00442413
0.00525331
0.00454999
0.00430005
0.00427256
0.00342309
0.00424494
0.00454467
0.00419869
0.00459433
0.00489109
0.00620668
0.0232415
0.00426589
0.0042549
0.00399191
0.00869661
0.00443737
0.0158522
0.00429347
0.0071534
0.0345629
0.00442914
0.00316861
0.00465981
0.00305048
0.00598575
0.00313864
0.0244409
0.00364831
0.004276
0.00463648
0.00372717
0.0032172
0.00425724
0.0605032
0.0043695
0.00407907
0.00463272
0.0037461
0.00420703
0.0032408
0.00455676
0.00440056
0.00440476
0.00380586
0.00380322
0.00456238
0.00332823
0.00437475
0.00546771
0.00321355
0.00407789
0.00429326
0.00538623
0.00287119
0.00409142
0.00372471
0.00362273
0.00715005
0.00307239
0.0115759
0.00446893
0.00334943
0.00449299
0.00443373
0.00660917
0.00436159
0.00336916
0.00329578
0.0043203
0.00416166
0.00413329
0.00393704
0.00458593
0.0542055
0.00480972
0.0409537
0.00413194
0.00397673
0.00929247
0.0111754
0.00447642
0.00348716
0.00371733
0.00295055
0.00452848
0.003344
0.0324335
0.00454889
0.00918607
0.00351304
0.00463534
0.00683675
0.0043786
0.00425879
0.00422363
0.00337298
0.00435831
0.00320993
0.00457115
0.0030551
0.00429744
0.00290977
0.00317962
0.0255261
0.00422788
0.00429179
0.0211657
0.0120794
0.0044615
0.00321889
0.00385299
0.00359918
0.00520243
0.00379604
0.00424795
0.00458384
0.00293724
0.00500388
0.00429137
0.00437498
0.00441365
0.00579161
0.00373923
0.00469043
0.00449034
0.00454101
0.0323796
0.0384577
0.00361063
0.00457862
0.0033558
0.00430041
0.00455711
0.00457984
0.0046243
0.00448286
0.00460384
0.00316534
0.00518674
0.0108965
0.00308636
0.00421399
0.00442749
0.00450134
0.00376765
0.0327583
0.00459518
0.00406461
0.00352881
0.0160448
0.0207294
0.00466313
0.00391967
0.00426393
0.00443078
0.00446434
0.0103239
0.00421979
0.00456856
0.00428503
0.00907375
0.00399739
0.00390219
0.00455575
0.00409555
0.006433
0.00375345
0.00456726
0.00310139
0.00408467
0.00382607
0.00429704
0.00464056
0.00428527
0.0024651
0.00288146
0.00342907
0.0046012
0.00419589
0.00457569
0.00433594
0.0045923
0.00875097
0.00344216
0.0087832
0.014929
0.00511053
0.00455024
0.0509299
0.00466956
0.00428964
0.00510352
0.00448986
0.00441807
0.00441617
0.00307211
0.0222894
0.00311721
0.00441509
0.00372328
0.00442381
0.00468817
0.00434039
0.0043865
0.00426365
0.00449665
0.00455892
0.00434707
0.0645881
0.00437957
0.00425832
0.00438096
0.0181965
0.00430193
0.00450734
0.00517556
0.0617222
0.00427226
0.00451263
0.0028887
0.00368807
0.00465003
0.00453998
0.0041848
0.00400827
0.0177381
0.00459917
0.011658
0.00289647
0.0274465
0.00298582
0.00458069
0.0032584
0.00564139
0.00444215
0.00448611
0.00450016
0.00460847
0.00396833
0.00946116
0.00426802
0.0055928
0.050774
0.0036535
0.00393682
0.00580496
0.00466305
0.00456114
0.00314403
0.00290124
0.00329322
0.00439651
0.0271487
0.00430613
0.00334399
0.00431723
0.00315201
0.00312801
0.00331795
0.00353084
0.00419801
0.00452738
0.0474691
0.00436983
0.0593275
0.0041988
0.00298342
0.00420548
0.00421102
0.0544027
0.00438251
0.00460334
0.00352375
0.0084281
0.00867551
0.00343114
0.00328667
0.00332871
0.0153929
0.0445852
0.00452013
0.00421996
0.0611166
0.00439746
0.00549913
0.0044969
0.0159322
0.00298488
0.00680463
0.00460523
0.00342272
0.00464489
0.0044055
0.00422005
0.0028166
0.00427243
0.00446109
0.00434047
0.00456364
0.00433464
0.00477441
0.00443545
0.00418139
0.00628948
0.00348443
0.00395287
0.00461059
0.00903125
0.00302667
0.00459866
0.00467502
0.00408806
0.0061804
0.0498544
0.00396936
0.0034362
0.00410362
0.00434826
0.0031071
0.00449436
0.00425896
0.0104389
0.00455407
0.068245
0.00902005
0.0307834
0.0045528
0.0045501
0.00440608
0.0448385
0.00336201
0.0031349
0.00467577
0.00307834
0.0208661
0.00456348
0.00402782
0.00935184
0.00393584
0.0317001
0.0036578
0.0044554
0.00433156
0.00421536
0.00424018
0.00667448
0.00279782
0.0127029
0.0545934
0.00460114
0.00306849
0.00384441
0.00512747
0.0158145
0.00335294
0.00439267
0.00406602
0.00316556
0.00454511
0.00466267
0.00467891
0.00577918
0.00411987
0.00460853
0.00371829
0.00545911
0.00322642
0.00452601
0.00800615
0.00405082
0.00407617
0.00399015
0.00455656
0.00431071
0.00448153
0.0143133
0.00447041
0.0164224
0.00399775
0.00341708
0.00450759
0.00417852
0.00450368
0.00437699
0.00341949
0.0127814
0.00672713
0.054497
0.00917593
0.0458065
0.00420326
0.00431047
0.00254702
0.00462896
0.00325501
0.0214171
0.00430294
0.00489053
0.00388761
0.0290373
0.00419638
0.00319563
0.00455072
0.0512514
0.00469512
0.0344026
0.00417371
0.00462907
0.00506135
0.0101486
0.00417524
0.00534431
0.00407283
0.00443056
0.0201246
0.00558643
0.0242377
0.00351012
0.00252324
0.0123507
0.00463988
0.00461025
0.00371376
0.0046983
0.00344097
0.00331943
0.0034743
0.00390571
0.00299709
0.0533037
0.00437523
0.00433247
0.00421774
0.0045747
0.00285916
0.00340299
0.00423826
0.00332559
0.0422427
0.00456754
0.0559954
0.00750199
0.00449779
0.00490449
0.00385308
0.00307651
0.00318107
0.0272437
0.00442136
0.00452642
0.0541085
0.00437484
0.00458624
0.00355233
0.0045441
0.00450934
0.030606
0.0045268
0.0328178
0.00397547
0.00399385
0.00429098
0.00430372
0.00888389
0.00324995
0.0118151
0.00444486
0.00280407
0.00558321
0.00307685
0.0030542
0.00528021
0.00552837
0.00424173
0.0092024
0.0158165
0.00406709
0.00432301
0.00351292
0.00381011
0.00464786
0.00351528
0.0502638
0.00425644
0.00468958
0.00450544
0.00404067
0.00290708
0.00322098
0.00329505
0.0802756
0.00464714
0.00587829
0.00555686
0.00457559
0.00392395
0.00424705
0.00426422
0.060076
0.00454016
0.0173538
0.0248064
0.00456637
0.00449538
0.00464629
0.0331965
0.0357183
0.0222134
0.00334659
0.00456713
0.00429904
0.00326718
0.0446746
0.00656623
0.00302747
0.00434193
0.00616225
0.0126208
0.00532913
0.00416248
0.0128972
0.0284755
0.00405189
0.00382614
0.00430824
0.00436263
0.0321441
0.00322101
0.00369343
0.00460023
0.0046867
0.00412154
0.0487265
0.00366343
0.00290767
0.00877615
0.00680424
0.0043702
0.0144012
0.00597848
0.00462204
0.00305518
0.0030111
0.00412876
0.0613487
0.00453493
0.0044253
0.00425308
0.00544598
0.00310768
0.00435538
0.00448008
0.00461499
0.00456117
0.00468819
0.00329256
0.00442877
0.00736433
0.0041682
0.00455887
0.0491468
0.0044511
0.00351982
0.00356744
0.00423069
0.0035181
0.00533399
0.00452934
0.00456641
0.00448592
0.00304213
0.00449665
0.00429089
0.00440684
0.00348844
0.00613338
0.00315901
0.00682205
0.00430333
0.00610791
0.00413696
0.00467566
0.00436905
0.00458676
0.00315423
0.00414014
0.0032649
0.0041209
0.00421082
0.00450868
0.00447306
0.032477
0.00546852
0.0154929
0.00468828
0.00292975
0.0618788
0.00324472
0.00284027
0.00439586
0.00548859
0.0157423
0.00493245
0.00318881
0.00512931
0.00376989
0.00308
0.00450128
0.0685139
0.00309225
0.00414966
0.00410999
0.00400241
0.00361004
0.00285207
0.00487412
0.00307343
0.0557105
0.0208614
0.00448682
0.00433287
0.0146672
0.0128288
0.004016
0.00455142
0.00426047
0.00462975
0.00441399
0.00440102
0.00440123
0.00464747