/*--------------------------------*- C++ -*----------------------------------*\
| =========                 |                                                 |
| \\      /  F ield         | OpenFOAM: The Open Source CFD Toolbox           |
|  \\    /   O peration     | Version:  3.0.1                                 |
|   \\  /    A nd           | Web:      www.OpenFOAM.org                      |
|    \\/     M anipulation  |                                                 |
\*---------------------------------------------------------------------------*/
FoamFile
{
    version     2.0;
    format      ascii;
    class       surfaceScalarField;
    location    "0.543239";
    object      phi;
}
// * * * * * * * * * * * * * * * * * * * * * * * * * * * * * * * * * * * * * //

dimensions      [0 3 -1 0 0 0 0];

internalField   nonuniform List<scalar> 
32369
(
2.67055e-06
7.63834e-06
-1.03089e-05
3.90701e-06
8.58361e-06
-9.82007e-06
3.39807e-06
1.14673e-05
-1.09583e-05
1.75767e-06
1.42467e-05
-1.26063e-05
-7.37084e-07
1.68827e-05
-1.43879e-05
-3.91571e-06
1.94744e-05
-1.62958e-05
-7.55242e-06
2.23635e-05
-1.87268e-05
-1.15022e-05
2.59859e-05
-2.20361e-05
-1.5928e-05
3.11042e-05
-2.66785e-05
-2.10753e-05
3.83217e-05
-3.31744e-05
4.83742e-05
-4.22328e-05
-2.72167e-05
3.60647e-06
4.03186e-06
5.69992e-06
6.49017e-06
6.99028e-06
1.01769e-05
7.33628e-06
1.39007e-05
6.51316e-06
1.77058e-05
4.43004e-06
2.15575e-05
1.33291e-06
2.54606e-05
-2.41733e-06
2.97362e-05
-6.6479e-06
3.53348e-05
-1.14698e-05
4.31436e-05
5.41108e-05
-1.72064e-05
2.34206e-06
1.6898e-06
4.14723e-06
4.68501e-06
5.87321e-06
8.45091e-06
7.15272e-06
1.26211e-05
7.68254e-06
1.7176e-05
7.14192e-06
2.20982e-05
5.5111e-06
2.70914e-05
2.98106e-06
3.22662e-05
-1.12196e-07
3.84281e-05
-3.62958e-06
4.6661e-05
5.81463e-05
-7.66506e-06
1.30833e-06
3.81472e-07
2.72385e-06
3.26948e-06
4.3361e-06
6.83866e-06
5.87218e-06
1.10851e-05
7.00792e-06
1.60402e-05
7.54302e-06
2.15631e-05
7.2623e-06
2.73721e-05
6.15356e-06
3.33749e-05
4.46774e-06
4.01139e-05
2.44435e-06
4.86844e-05
6.03738e-05
2.16896e-07
5.01594e-07
-1.20122e-07
1.56467e-06
2.20641e-06
2.91689e-06
5.48644e-06
4.37308e-06
9.62888e-06
5.76935e-06
1.46439e-05
6.91185e-06
2.04206e-05
7.58863e-06
2.66954e-05
7.6912e-06
3.32724e-05
7.31898e-06
4.04861e-05
6.70554e-06
4.92978e-05
6.10106e-05
6.0687e-06
-5.26398e-08
-6.74821e-08
6.16545e-07
1.53722e-06
1.69289e-06
4.41009e-06
3.00305e-06
8.31872e-06
4.44282e-06
1.32042e-05
5.88373e-06
1.89796e-05
7.16076e-06
2.54183e-05
8.14313e-06
3.229e-05
8.82992e-06
3.97993e-05
9.36771e-06
4.876e-05
6.04032e-05
9.97515e-06
-2.5692e-07
1.89438e-07
-4.19407e-08
1.32224e-06
6.93253e-07
3.6749e-06
1.78595e-06
7.22602e-06
3.13444e-06
1.18557e-05
4.67424e-06
1.74398e-05
6.29422e-06
2.37984e-05
7.86946e-06
3.07147e-05
9.338e-06
3.83308e-05
1.07627e-05
4.73353e-05
5.88717e-05
1.22942e-05
-3.16194e-07
5.05631e-07
-4.24718e-07
1.43077e-06
-6.75881e-08
3.31777e-06
7.70671e-07
6.38776e-06
1.93945e-06
1.06869e-05
3.44763e-06
1.59317e-05
5.23109e-06
2.20149e-05
7.18248e-06
2.87633e-05
9.20724e-06
3.6306e-05
1.13208e-05
4.52217e-05
5.65498e-05
1.36427e-05
-3.11394e-07
8.17025e-07
-5.2169e-07
1.64106e-06
-4.62964e-07
3.25905e-06
8.44225e-08
5.84038e-06
1.06643e-06
9.7049e-06
2.47926e-06
1.45188e-05
4.30675e-06
2.01874e-05
6.46058e-06
2.66095e-05
8.84337e-06
3.39232e-05
1.13873e-05
4.26778e-05
5.37937e-05
1.41435e-05
-2.61726e-07
1.07875e-06
-4.7894e-07
1.85828e-06
-5.28226e-07
3.30833e-06
-1.95638e-07
5.50779e-06
6.25649e-07
8.88361e-06
1.93701e-06
1.32075e-05
3.74151e-06
1.83829e-05
5.97355e-06
2.43775e-05
8.52701e-06
3.13698e-05
1.13369e-05
3.98678e-05
5.07211e-05
1.44095e-05
-1.91053e-07
1.2698e-06
-3.71887e-07
2.03911e-06
-4.30858e-07
3.3673e-06
-1.99381e-07
5.27631e-06
4.97676e-07
8.18656e-06
1.72125e-06
1.19839e-05
3.48094e-06
1.66232e-05
5.72271e-06
2.21357e-05
8.35508e-06
2.87374e-05
1.13033e-05
3.69196e-05
4.74174e-05
1.4607e-05
-1.2759e-07
1.39739e-06
-2.59894e-07
2.17141e-06
-2.7732e-07
3.38473e-06
-6.63586e-08
5.06535e-06
5.74925e-07
7.54527e-06
1.73959e-06
1.08192e-05
3.44885e-06
1.4914e-05
5.67358e-06
1.9911e-05
8.33817e-06
2.60728e-05
1.13734e-05
3.38844e-05
4.4063e-05
1.47278e-05
-5.2092e-08
1.44949e-06
-1.09693e-07
2.22902e-06
-3.99608e-08
3.315e-06
2.25172e-07
4.80022e-06
8.75869e-07
6.89458e-06
2.01237e-06
9.68274e-06
3.68219e-06
1.32441e-05
5.87399e-06
1.77192e-05
8.5492e-06
2.33976e-05
1.16546e-05
3.0779e-05
4.05677e-05
1.51499e-05
4.40187e-08
1.40547e-06
8.42461e-08
2.18879e-06
2.61629e-07
3.13761e-06
6.24705e-07
4.43714e-06
1.32409e-06
6.19519e-06
2.46669e-06
8.54014e-06
4.12039e-06
1.15904e-05
6.30168e-06
1.55379e-05
8.99026e-06
2.0709e-05
1.21391e-05
2.76301e-05
3.70207e-05
1.56861e-05
1.14243e-07
1.29122e-06
2.32269e-07
2.07076e-06
5.09032e-07
2.86085e-06
9.6615e-07
3.98003e-06
1.72705e-06
5.43429e-06
2.90068e-06
7.3665e-06
4.57027e-06
9.92084e-06
6.78347e-06
1.33247e-05
9.53813e-06
1.79544e-05
1.2785e-05
2.43833e-05
3.3342e-05
1.64637e-05
1.7879e-07
1.11243e-06
3.67372e-07
1.88218e-06
7.26416e-07
2.5018e-06
1.26639e-06
3.44006e-06
2.08989e-06
4.61078e-06
3.31283e-06
6.14357e-06
5.04161e-06
8.19206e-06
7.3451e-06
1.10212e-05
1.02284e-05
1.5071e-05
1.36499e-05
2.09619e-05
2.94328e-05
1.7559e-05
2.41316e-07
8.71118e-07
4.89173e-07
1.63432e-06
9.03217e-07
2.08776e-06
1.49675e-06
2.84653e-06
2.37057e-06
3.73696e-06
3.65819e-06
4.85595e-06
5.49684e-06
6.35341e-06
7.97318e-06
8.54488e-06
1.10845e-05
1.19596e-05
1.47358e-05
1.73106e-05
2.53978e-05
1.87707e-05
2.70539e-07
6.00579e-07
5.36426e-07
1.36844e-06
9.59367e-07
1.66482e-06
1.55394e-06
2.25195e-06
2.44473e-06
2.84617e-06
3.81461e-06
3.48607e-06
5.84385e-06
4.32417e-06
8.61151e-06
5.77721e-06
1.20653e-05
8.50585e-06
1.60519e-05
1.3324e-05
2.10042e-05
2.04456e-05
2.66598e-07
3.33981e-07
5.07021e-07
1.12801e-06
8.64648e-07
1.30719e-06
1.36975e-06
1.74685e-06
2.23843e-06
1.9775e-06
3.7405e-06
1.984e-06
6.10093e-06
1.96374e-06
9.327e-06
2.55114e-06
1.32604e-05
4.57241e-06
1.76954e-05
8.88902e-06
1.6231e-05
2.24687e-05
2.20751e-07
1.1323e-07
3.26216e-07
1.02255e-06
4.07085e-07
1.22632e-06
6.5971e-07
1.49422e-06
1.55324e-06
1.08397e-06
3.46476e-06
7.24863e-08
6.42431e-06
-9.95819e-07
1.02636e-05
-1.28819e-06
1.47565e-05
7.95074e-08
1.96465e-05
3.99903e-06
1.11039e-05
2.47736e-05
-1.30258e-07
2.43489e-07
-4.62345e-07
1.35464e-06
-7.30212e-07
1.49419e-06
5.16825e-09
7.58842e-07
2.00898e-06
-9.19847e-07
5.04272e-06
-2.96126e-06
8.65162e-06
-4.60471e-06
1.27152e-05
-5.35173e-06
1.71992e-05
-4.40457e-06
2.21193e-05
-9.2106e-07
5.70335e-06
2.75198e-05
-1.18639e-06
1.42988e-06
-9.72118e-07
1.14037e-06
4.31954e-07
9.01169e-08
3.14583e-06
-1.95504e-06
6.23769e-06
-4.0117e-06
9.36649e-06
-6.09006e-06
1.27137e-05
-7.95187e-06
1.64559e-05
-9.09397e-06
2.07208e-05
-8.66952e-06
2.54353e-05
-5.63555e-06
5.36791e-07
3.06019e-05
4.94864e-07
9.35012e-07
3.00423e-06
-1.369e-06
5.80918e-06
-2.71483e-06
8.35872e-06
-4.50458e-06
1.0818e-05
-6.47095e-06
1.3224e-05
-8.49611e-06
1.57425e-05
-1.04704e-05
1.87283e-05
-1.20798e-05
2.26383e-05
-1.25795e-05
2.76172e-05
-1.06144e-05
-5.12863e-06
3.32826e-05
5.63881e-06
-4.7038e-06
8.04694e-06
-3.77713e-06
1.01803e-05
-4.84818e-06
1.18935e-05
-6.21784e-06
1.32257e-05
-7.80306e-06
1.43685e-05
-9.63899e-06
1.55718e-05
-1.16736e-05
1.72304e-05
-1.37383e-05
1.99799e-05
-1.53291e-05
2.46648e-05
-1.52993e-05
-1.19994e-05
3.15356e-05
-4.42173e-06
-5.88715e-06
-7.15394e-06
-7.08787e-06
-9.3813e-06
-8.73095e-06
-1.15494e-05
-1.04381e-05
-1.38282e-05
-1.21091e-05
-1.63231e-05
-1.38009e-05
-1.9236e-05
-1.58139e-05
-2.27023e-05
-1.85698e-05
-2.68628e-05
-2.25181e-05
-3.18639e-05
-2.81733e-05
-3.62477e-05
-3.7849e-05
-3.03857e-06
-2.84858e-06
-5.75135e-06
-4.37509e-06
-8.28226e-06
-6.20003e-06
-1.07317e-05
-7.98873e-06
-1.32381e-05
-9.60269e-06
-1.60296e-05
-1.10094e-05
-1.93795e-05
-1.24639e-05
-2.35016e-05
-1.44477e-05
-2.85773e-05
-1.74423e-05
-3.48248e-05
-2.19258e-05
-2.85282e-05
-4.25443e-05
-8.49667e-07
-1.99892e-06
-2.31082e-06
-2.91394e-06
-4.24609e-06
-4.26476e-06
-6.54159e-06
-5.69323e-06
-9.17676e-06
-6.96752e-06
-1.22997e-05
-7.88645e-06
-1.61713e-05
-8.59236e-06
-2.10036e-05
-9.61539e-06
-2.69542e-05
-1.14916e-05
-3.42404e-05
-1.46396e-05
-1.96221e-05
-4.31466e-05
4.83011e-08
-2.04722e-06
-3.78392e-07
-2.48725e-06
-1.32313e-06
-3.32002e-06
-2.83798e-06
-4.17838e-06
-4.9238e-06
-4.8817e-06
-7.72059e-06
-5.08966e-06
-1.15674e-05
-4.74554e-06
-1.67348e-05
-4.44795e-06
-2.3237e-05
-4.98949e-06
-3.11669e-05
-6.70967e-06
-9.72966e-06
-4.10593e-05
2.23905e-07
-2.27112e-06
2.84397e-07
-2.54774e-06
9.43794e-08
-3.13e-06
-5.2542e-07
-3.55858e-06
-1.65355e-06
-3.75357e-06
-3.43667e-06
-3.30654e-06
-6.32965e-06
-1.85257e-06
-1.10182e-05
2.4059e-07
-1.76026e-05
1.59493e-06
-2.57905e-05
1.47819e-06
8.52668e-09
-3.55286e-05
2.44279e-07
-2.5154e-06
4.49985e-07
-2.75345e-06
5.90207e-07
-3.27023e-06
5.21009e-07
-3.48938e-06
1.39651e-07
-3.37221e-06
-6.65756e-07
-2.50113e-06
-2.17998e-06
-3.38346e-07
-5.30728e-06
3.3679e-06
-1.10316e-05
7.3192e-06
-1.90708e-05
9.51744e-06
9.90099e-06
-2.89633e-05
2.34786e-07
-2.75019e-06
5.01391e-07
-3.02005e-06
7.76453e-07
-3.54529e-06
9.72341e-07
-3.68527e-06
1.00625e-06
-3.40612e-06
7.59281e-07
-2.25416e-06
2.62592e-08
3.94675e-07
-1.70415e-06
5.0983e-06
-5.67012e-06
1.12852e-05
-1.26459e-05
1.64932e-05
1.90807e-05
-2.18257e-05
2.27675e-07
-2.97786e-06
5.26202e-07
-3.31858e-06
8.57765e-07
-3.87685e-06
1.18183e-06
-4.00934e-06
1.47216e-06
-3.69645e-06
1.64531e-06
-2.42732e-06
1.5209e-06
5.1909e-07
7.81839e-07
5.83736e-06
-1.48956e-06
1.35566e-05
-6.73966e-06
2.17433e-05
2.73134e-05
-1.49723e-05
2.14873e-07
-3.19274e-06
5.05983e-07
-3.60969e-06
8.41158e-07
-4.21202e-06
1.20728e-06
-4.37546e-06
1.61692e-06
-4.10609e-06
2.05304e-06
-2.86343e-06
2.42419e-06
1.47932e-07
2.42602e-06
5.83554e-06
1.45957e-06
1.4523e-05
-1.76116e-06
2.49641e-05
3.37853e-05
-8.23302e-06
1.59565e-07
-3.3523e-06
4.31751e-07
-3.88188e-06
7.43275e-07
-4.52355e-06
1.08139e-06
-4.71358e-06
1.49842e-06
-4.52312e-06
2.02573e-06
-3.39074e-06
2.68248e-06
-5.08815e-07
3.26897e-06
5.24904e-06
3.28464e-06
1.45074e-05
1.74909e-06
2.64996e-05
3.83602e-05
-2.8258e-06
1.11e-07
-3.4633e-06
4.0427e-07
-4.17515e-06
5.25757e-07
-4.64504e-06
7.97019e-07
-4.98484e-06
1.13596e-06
-4.86206e-06
1.60277e-06
-3.85755e-06
2.31632e-06
-1.22237e-06
3.27122e-06
4.29415e-06
4.05423e-06
1.37243e-05
3.9048e-06
2.6649e-05
4.06016e-05
1.66334e-06
5.51018e-08
-3.5184e-06
1.6846e-07
-4.2885e-06
2.85495e-07
-4.76207e-06
4.19319e-07
-5.11867e-06
5.85251e-07
-5.02799e-06
8.45498e-07
-4.11779e-06
1.35347e-06
-1.73034e-06
2.3695e-06
3.27811e-06
3.67871e-06
1.24151e-05
4.58733e-06
2.57404e-05
4.05908e-05
4.59816e-06
-1.95961e-08
-3.49881e-06
-5.19328e-09
-4.30291e-06
-1.47195e-08
-4.75254e-06
-5.38886e-08
-5.0795e-06
-9.74657e-08
-4.98442e-06
-1.16492e-07
-4.09877e-06
3.98863e-09
-1.85082e-06
6.00253e-07
2.68185e-06
2.05116e-06
1.09642e-05
3.89472e-06
2.38969e-05
3.99511e-05
4.5344e-06
-1.26413e-07
-3.37239e-06
-2.4498e-07
-4.18434e-06
-4.16678e-07
-4.58085e-06
-6.51224e-07
-4.84495e-06
-9.43936e-07
-4.69171e-06
-1.2737e-06
-3.769e-06
-1.56177e-06
-1.56274e-06
-1.56774e-06
2.68781e-06
-6.66982e-07
1.00635e-05
1.40389e-06
2.1826e-05
3.76728e-05
3.68225e-06
-2.20471e-07
-3.15192e-06
-4.8521e-07
-3.9196e-06
-8.44442e-07
-4.22161e-06
-1.31642e-06
-4.37297e-06
-1.91097e-06
-4.09715e-06
-2.61793e-06
-3.06205e-06
-3.373e-06
-8.0767e-07
-3.95678e-06
3.27159e-06
-3.79858e-06
9.90527e-06
-2.13362e-06
2.0161e-05
3.47893e-05
7.4984e-07
-3.20483e-07
-2.83144e-06
-7.48612e-07
-3.49147e-06
-1.31487e-06
-3.65536e-06
-2.05538e-06
-3.63246e-06
-2.99319e-06
-3.15934e-06
-4.12888e-06
-1.92635e-06
-5.41807e-06
4.8152e-07
-6.56755e-06
4.42106e-06
-7.03547e-06
1.03732e-05
-6.06779e-06
1.91934e-05
3.14176e-05
-2.69609e-06
-4.2958e-07
-2.40186e-06
-1.03612e-06
-2.88493e-06
-1.83171e-06
-2.85976e-06
-2.88047e-06
-2.58371e-06
-4.22518e-06
-1.81463e-06
-5.89928e-06
-2.52258e-07
-7.73105e-06
2.3133e-06
-9.37701e-06
6.06701e-06
-1.04863e-05
1.14825e-05
-1.04715e-05
1.91785e-05
2.96814e-05
-8.7353e-06
-5.41685e-07
-1.86017e-06
-1.33168e-06
-2.09494e-06
-2.37946e-06
-1.81199e-06
-3.78124e-06
-1.18192e-06
-5.59227e-06
-3.59746e-09
-7.68869e-06
1.84416e-06
-9.85413e-06
4.47874e-06
-1.1953e-05
8.16588e-06
-1.37132e-05
1.32427e-05
-1.45542e-05
2.00195e-05
2.85701e-05
-1.34429e-05
-6.56702e-07
-1.20347e-06
-1.61645e-06
-1.13519e-06
-2.90331e-06
-5.25124e-07
-4.57216e-06
4.86924e-07
-6.58486e-06
2.0091e-06
-8.84687e-06
4.10617e-06
-1.13276e-05
6.95947e-06
-1.39126e-05
1.07509e-05
-1.63389e-05
1.56689e-05
-1.81906e-05
2.18713e-05
2.9316e-05
-1.89365e-05
-7.17451e-07
-4.86022e-07
-1.75868e-06
-9.39554e-08
-3.07146e-06
7.87647e-07
-4.71308e-06
2.12855e-06
-6.71452e-06
4.01054e-06
-9.09611e-06
6.48776e-06
-1.17657e-05
9.62908e-06
-1.45718e-05
1.35569e-05
-1.72932e-05
1.83904e-05
-1.97186e-05
2.42967e-05
3.09417e-05
-2.13444e-05
-6.85247e-07
1.99225e-07
-1.6203e-06
8.41094e-07
-2.80786e-06
1.97521e-06
-4.34936e-06
3.67005e-06
-6.27608e-06
5.93726e-06
-8.51061e-06
8.72229e-06
-1.09048e-05
1.20232e-05
-1.33176e-05
1.59698e-05
-1.55679e-05
2.06407e-05
-1.73345e-05
2.60632e-05
3.20112e-05
-1.84039e-05
-6.20651e-07
8.19876e-07
-1.44187e-06
1.66231e-06
-2.55877e-06
3.09211e-06
-3.97259e-06
5.08387e-06
-5.56058e-06
7.52525e-06
-7.1668e-06
1.03285e-05
-8.648e-06
1.35044e-05
-9.83087e-06
1.71527e-05
-1.04645e-05
2.12743e-05
-9.87919e-06
2.54779e-05
2.85278e-05
-6.39572e-06
-8.42101e-07
1.66198e-06
-1.76774e-06
2.58795e-06
-2.92402e-06
4.24838e-06
-4.01325e-06
6.1731e-06
-4.84187e-06
8.35388e-06
-5.29267e-06
1.07793e-05
-5.28022e-06
1.3492e-05
-4.64682e-06
1.65193e-05
-2.99219e-06
1.96197e-05
5.85471e-07
2.19003e-05
2.15594e-05
7.55382e-06
-3.04182e-06
-4.231e-06
-4.83079e-06
-4.87553e-06
-4.32472e-06
-3.1844e-06
-1.36608e-06
1.41485e-06
5.7054e-06
1.23063e-05
2.18664e-05
-1.33032e-05
-9.09714e-06
2.24004e-05
-2.15351e-05
-1.09815e-05
1.92133e-05
-2.85021e-05
-1.33166e-05
2.02835e-05
-3.45352e-05
-1.53741e-05
2.14072e-05
-4.01517e-05
-1.70418e-05
2.26584e-05
-4.57485e-05
-1.84058e-05
2.40026e-05
-5.17858e-05
-1.94448e-05
2.54822e-05
-5.86343e-05
-2.01261e-05
2.69747e-05
-6.66074e-05
-2.03638e-05
2.83369e-05
-7.60358e-05
-1.99712e-05
2.93996e-05
-1.86021e-05
2.991e-05
-8.73436e-05
-9.10876e-06
1.1618e-08
-1.69235e-05
-3.16671e-06
-2.40943e-05
-6.1458e-06
-3.07372e-05
-8.7311e-06
-3.7017e-05
-1.0762e-05
-4.32748e-05
-1.21481e-05
-4.99176e-05
-1.2802e-05
-5.73839e-05
-1.26598e-05
-6.61107e-05
-1.1637e-05
-7.65405e-05
-9.54149e-06
-6.07396e-06
-8.90686e-05
-4.18907e-06
4.20069e-06
-9.50456e-06
2.14878e-06
-1.5947e-05
2.96654e-07
-2.27611e-05
-1.91698e-06
-2.97145e-05
-3.80873e-06
-3.68798e-05
-4.98269e-06
-4.45013e-05
-5.18052e-06
-5.28991e-05
-4.26194e-06
-6.24464e-05
-2.08975e-06
-7.35742e-05
1.58625e-06
7.21147e-06
-8.68596e-05
-1.58893e-06
5.78962e-06
-4.64322e-06
5.20307e-06
-9.30574e-06
4.95918e-06
-1.52047e-05
3.98199e-06
-2.20378e-05
3.02435e-06
-2.95392e-05
2.5187e-06
-3.76438e-05
2.92409e-06
-4.65368e-05
4.63102e-06
-5.65801e-05
7.95362e-06
-6.81966e-05
1.32027e-05
2.08204e-05
-8.18055e-05
-1.44433e-06
7.23395e-06
-3.69543e-06
7.45417e-06
-6.93514e-06
8.19888e-06
-1.13793e-05
8.42619e-06
-1.70891e-05
8.73415e-06
-2.39518e-05
9.38135e-06
-3.18444e-05
1.08167e-05
-4.07406e-05
1.35272e-05
-5.07742e-05
1.79872e-05
-6.22341e-05
2.46626e-05
3.41554e-05
-7.5569e-05
-1.2359e-06
8.46985e-06
-3.26791e-06
9.48618e-06
-5.88521e-06
1.08162e-05
-9.47825e-06
1.20192e-05
-1.41997e-05
1.34556e-05
-2.01084e-05
1.529e-05
-2.72026e-05
1.79109e-05
-3.54748e-05
2.17994e-05
-4.49917e-05
2.75041e-05
-5.59493e-05
3.56202e-05
4.69154e-05
-6.87094e-05
-1.11881e-06
9.58866e-06
-2.81462e-06
1.1182e-05
-5.08857e-06
1.30901e-05
-8.13736e-06
1.5068e-05
-1.21213e-05
1.74395e-05
-1.71858e-05
2.03545e-05
-2.34205e-05
2.41456e-05
-3.08835e-05
2.92624e-05
-3.9655e-05
3.62757e-05
-4.98735e-05
4.58387e-05
5.87579e-05
-6.1716e-05
-1.06956e-06
1.06582e-05
-2.61286e-06
1.27253e-05
-4.60245e-06
1.50797e-05
-7.23504e-06
1.77006e-05
-1.06528e-05
2.08573e-05
-1.50154e-05
2.47171e-05
-2.0452e-05
2.95822e-05
-2.70743e-05
3.58847e-05
-3.49885e-05
4.41899e-05
-4.43471e-05
5.51973e-05
6.97974e-05
-5.53865e-05
-9.90877e-07
1.16491e-05
-2.39104e-06
1.41255e-05
-4.17066e-06
1.68593e-05
-6.4776e-06
2.00075e-05
-9.44881e-06
2.38286e-05
-1.32321e-05
2.85003e-05
-1.79735e-05
3.43237e-05
-2.38121e-05
4.17232e-05
-3.08806e-05
5.12584e-05
-3.93526e-05
6.36693e-05
7.99135e-05
-4.94687e-05
-7.92761e-07
1.24419e-05
-1.98867e-06
1.53214e-05
-3.54455e-06
1.84152e-05
-5.56515e-06
2.20281e-05
-8.15738e-06
2.64208e-05
-1.1463e-05
3.1806e-05
-1.56182e-05
3.84789e-05
-2.0773e-05
4.68781e-05
-2.7079e-05
5.75644e-05
-3.47117e-05
7.1302e-05
8.90651e-05
-4.38633e-05
-6.19082e-07
1.30609e-05
-1.63608e-06
1.63384e-05
-2.96893e-06
1.97481e-05
-4.70684e-06
2.37661e-05
-6.95331e-06
2.86673e-05
-9.82021e-06
3.46729e-05
-1.34436e-05
4.21022e-05
-1.79594e-05
5.13939e-05
-2.35281e-05
6.31331e-05
-3.0317e-05
7.80909e-05
9.72698e-05
-3.85216e-05
-5.91374e-07
1.36523e-05
-1.48076e-06
1.72277e-05
-2.61859e-06
2.08859e-05
-4.10182e-06
2.52493e-05
-6.00992e-06
3.05754e-05
-8.44933e-06
3.71123e-05
-1.1545e-05
4.51979e-05
-1.54245e-05
5.52734e-05
-2.02381e-05
6.79467e-05
-2.61562e-05
8.40089e-05
0.000104493
-3.33796e-05
-4.80307e-07
1.41326e-05
-1.21545e-06
1.79629e-05
-2.15684e-06
2.18273e-05
-3.38166e-06
2.64741e-05
-4.96107e-06
3.21548e-05
-6.98854e-06
3.91397e-05
-9.57244e-06
4.77818e-05
-1.28358e-05
5.85368e-05
-1.69149e-05
7.20257e-05
-2.19814e-05
8.90754e-05
0.000110762
-2.82498e-05
-2.47912e-07
1.43805e-05
-7.42753e-07
1.84577e-05
-1.43583e-06
2.25204e-05
-2.37996e-06
2.74182e-05
-3.62111e-06
3.33959e-05
-5.23886e-06
4.07575e-05
-7.32254e-06
4.98655e-05
-9.97688e-06
6.11911e-05
-1.33222e-05
7.53711e-05
-1.75e-05
9.32532e-05
0.000115929
-2.26669e-05
-1.64629e-07
1.45452e-05
-4.87791e-07
1.87809e-05
-9.45976e-07
2.29786e-05
-1.58542e-06
2.80577e-05
-2.44679e-06
3.42573e-05
-3.60074e-06
4.19114e-05
-5.11614e-06
5.13809e-05
-7.08064e-06
6.31556e-05
-9.58408e-06
7.78745e-05
-1.27482e-05
9.64173e-05
0.000119901
-1.67211e-05
-3.19354e-08
1.45771e-05
-1.38182e-07
1.88871e-05
-3.24879e-07
2.31653e-05
-6.24249e-07
2.83571e-05
-1.0739e-06
3.47069e-05
-1.71747e-06
4.2555e-05
-2.61192e-06
5.22753e-05
-3.81547e-06
6.43592e-05
-5.38163e-06
7.94407e-05
-7.39987e-06
9.84355e-05
0.000122482
-9.9801e-06
2.30329e-07
1.43468e-05
4.42286e-07
1.86752e-05
5.97218e-07
2.30103e-05
6.85358e-07
2.82689e-05
7.06325e-07
3.4686e-05
6.22776e-07
4.26386e-05
4.18786e-07
5.24793e-05
6.77798e-08
6.47102e-05
-4.58257e-07
7.99667e-05
-1.19255e-06
9.91698e-05
0.00012343
-2.1414e-06
4.26654e-07
1.39201e-05
9.43981e-07
1.81578e-05
1.46869e-06
2.24856e-05
2.01482e-06
2.77228e-05
2.57995e-06
3.41208e-05
3.16287e-06
4.20556e-05
3.77775e-06
5.18644e-05
4.44566e-06
6.40422e-05
5.18772e-06
7.92246e-05
6.02669e-06
9.83308e-05
0.000122514
6.94277e-06
6.64022e-07
1.32561e-05
1.53951e-06
1.72824e-05
2.48916e-06
2.1536e-05
3.54553e-06
2.66664e-05
4.73316e-06
3.29332e-05
6.09463e-06
4.06942e-05
7.68733e-06
5.02717e-05
9.58038e-06
6.21492e-05
1.18492e-05
7.69558e-05
1.45647e-05
9.56153e-05
0.000119303
1.77757e-05
9.49073e-07
1.2307e-05
2.23113e-06
1.60003e-05
3.66736e-06
2.00997e-05
5.31448e-06
2.50193e-05
7.22992e-06
3.10178e-05
9.51413e-06
3.841e-05
1.22741e-05
4.75118e-05
1.56377e-05
5.87856e-05
1.97365e-05
7.28571e-05
2.4728e-05
9.06237e-05
0.000113237
3.07948e-05
1.26327e-06
1.10437e-05
2.97473e-06
1.42888e-05
4.9444e-06
1.81301e-05
7.25144e-06
2.27123e-05
1.00131e-05
2.82561e-05
1.33883e-05
3.50348e-05
1.75453e-05
4.33548e-05
2.26654e-05
5.36655e-05
2.89328e-05
6.65896e-05
3.6596e-05
8.29606e-05
0.000103884
4.59482e-05
1.4644e-06
9.57934e-06
3.60107e-06
1.21522e-05
6.12023e-06
1.56109e-05
9.15888e-06
1.96736e-05
1.29069e-05
2.4508e-05
1.75711e-05
3.03707e-05
2.3358e-05
3.75679e-05
3.04817e-05
4.65418e-05
3.92003e-05
5.7871e-05
4.98555e-05
7.23054e-05
9.08771e-05
6.28628e-05
1.53272e-06
8.04662e-06
4.15633e-06
9.52854e-06
7.08458e-06
1.26827e-05
1.08883e-05
1.587e-05
1.57262e-05
1.967e-05
2.18055e-05
2.42914e-05
2.93268e-05
3.00466e-05
3.85593e-05
3.73092e-05
4.98657e-05
4.65646e-05
6.37269e-05
5.84442e-05
7.38734e-05
8.07305e-05
-2.03882e-06
1.00854e-05
8.99809e-07
6.58992e-06
5.44641e-06
8.13606e-06
1.08671e-05
1.04493e-05
1.73898e-05
1.31473e-05
2.52167e-05
1.64646e-05
3.4582e-05
2.06812e-05
4.5882e-05
2.60092e-05
5.96448e-05
3.28018e-05
7.65207e-05
4.15684e-05
5.30749e-05
9.73192e-05
2.68886e-06
1.97115e-05
3.28301e-06
1.86192e-05
-9.61232e-07
2.45277e-05
-8.08159e-06
2.85276e-05
-1.63126e-05
3.08893e-05
-2.47438e-05
3.24338e-05
-3.35849e-05
3.43232e-05
-4.31356e-05
3.65254e-05
-5.36837e-05
3.8885e-05
-6.55104e-05
4.12262e-05
4.33386e-05
-7.8939e-05
7.74164e-06
1.19699e-05
1.08175e-05
1.55433e-05
1.07211e-05
2.46242e-05
7.53221e-06
3.17165e-05
1.15492e-06
3.72666e-05
-7.49891e-06
4.10877e-05
-1.72166e-05
4.40409e-05
-2.79302e-05
4.7239e-05
-3.97704e-05
5.07251e-05
-5.2999e-05
5.44548e-05
5.83156e-05
-6.79759e-05
4.96154e-06
7.00834e-06
7.55517e-06
1.29497e-05
9.50437e-06
2.2675e-05
9.41652e-06
3.18043e-05
6.30603e-06
4.03771e-05
1.2692e-07
4.72668e-05
-8.05281e-06
5.22207e-05
-1.76852e-05
5.68714e-05
-2.86714e-05
6.17114e-05
-4.10761e-05
6.68594e-05
7.22688e-05
-5.50293e-05
3.79299e-06
3.21535e-06
5.47635e-06
1.12663e-05
7.36589e-06
2.07854e-05
8.21626e-06
3.09539e-05
7.0601e-06
4.15333e-05
3.4252e-06
5.09017e-05
-2.50759e-06
5.81535e-05
-1.01428e-05
6.45066e-05
-1.932e-05
7.08885e-05
-2.99349e-05
7.74743e-05
8.44098e-05
-4.20758e-05
2.49035e-06
7.24998e-07
4.322e-06
9.43464e-06
6.14074e-06
1.89667e-05
7.13124e-06
2.99634e-05
6.84138e-06
4.18231e-05
4.8423e-06
5.29008e-05
9.42963e-07
6.20528e-05
-4.62678e-06
7.00764e-05
-1.16998e-05
7.79616e-05
-2.0162e-05
8.59365e-05
9.42286e-05
-2.99808e-05
1.87772e-06
-1.15272e-06
3.83812e-06
7.47424e-06
5.65445e-06
1.71503e-05
6.76652e-06
2.88514e-05
6.94795e-06
4.16417e-05
5.91577e-06
5.39329e-05
3.47101e-06
6.44976e-05
-3.71702e-07
7.39191e-05
-5.50826e-06
8.30982e-05
-1.18815e-05
9.23098e-05
0.000101642
-1.9295e-05
1.36206e-06
-2.51478e-06
3.28649e-06
5.54981e-06
5.23506e-06
1.52018e-05
6.61014e-06
2.74763e-05
7.22674e-06
4.10251e-05
6.91448e-06
5.42452e-05
5.5424e-06
6.58696e-05
3.09687e-06
7.63646e-05
-4.01586e-07
8.65966e-05
-4.96266e-06
9.68708e-05
0.000107277
-1.05978e-05
8.4418e-07
-3.35896e-06
2.59426e-06
3.79973e-06
4.56144e-06
1.32346e-05
6.18973e-06
2.5848e-05
7.24011e-06
3.99747e-05
7.57856e-06
5.39068e-05
7.12666e-06
6.63215e-05
5.89439e-06
7.75969e-05
3.88162e-06
8.86094e-05
1.09171e-06
9.96608e-05
0.000110659
-2.29015e-06
5.4331e-07
-3.90227e-06
2.01395e-06
2.32909e-06
3.93581e-06
1.13127e-05
5.75363e-06
2.40302e-05
7.1916e-06
3.85367e-05
8.12365e-06
5.29747e-05
8.49706e-06
6.59481e-05
8.3272e-06
7.77668e-05
7.6441e-06
8.92925e-05
6.39135e-06
0.000100914
0.00011245
4.6005e-06
3.66e-07
-4.26827e-06
1.58978e-06
1.10531e-06
3.41408e-06
9.48845e-06
5.37334e-06
2.20709e-05
7.15341e-06
3.67567e-05
8.63998e-06
5.14881e-05
9.76763e-06
6.48205e-05
1.05725e-05
7.69619e-05
1.11014e-05
8.87636e-05
1.13683e-05
0.000100647
0.000112496
1.13219e-05
2.8642e-07
-4.55469e-06
1.37239e-06
1.93318e-08
3.07698e-06
7.78386e-06
5.16885e-06
1.9979e-05
7.28957e-06
3.4636e-05
9.29286e-06
4.94849e-05
1.11271e-05
6.29862e-05
1.28182e-05
7.52708e-05
1.44644e-05
8.71175e-05
1.61268e-05
9.89841e-05
0.000110761
1.78617e-05
2.43186e-07
-4.79788e-06
1.11497e-06
-8.52452e-07
2.65217e-06
6.24665e-06
4.8139e-06
1.78173e-05
7.23373e-06
3.22161e-05
9.74525e-06
4.69733e-05
1.22818e-05
6.04496e-05
1.48771e-05
7.26755e-05
1.76357e-05
8.43589e-05
2.06633e-05
9.59565e-05
0.000107312
2.41125e-05
1.81491e-07
-4.97937e-06
8.48178e-07
-1.51914e-06
2.27655e-06
4.81829e-06
4.49349e-06
1.56004e-05
7.19007e-06
2.95196e-05
1.02015e-05
4.39619e-05
1.34388e-05
5.72123e-05
1.69197e-05
6.91946e-05
2.07761e-05
8.05025e-05
2.51073e-05
9.16254e-05
0.000102435
2.99845e-05
1.18011e-07
-5.09738e-06
6.85434e-07
-2.08656e-06
2.00855e-06
3.49517e-06
4.25887e-06
1.33501e-05
7.22525e-06
2.65532e-05
1.07212e-05
4.04659e-05
1.4646e-05
5.32875e-05
1.90186e-05
6.4822e-05
2.39689e-05
7.55521e-05
2.96622e-05
8.59321e-05
9.59148e-05
3.61824e-05
4.05925e-08
-5.13797e-06
4.86298e-07
-2.53227e-06
1.66456e-06
2.31691e-06
3.88321e-06
1.11314e-05
7.07148e-06
2.33649e-05
1.10113e-05
3.65261e-05
1.5634e-05
4.86648e-05
2.09498e-05
5.95062e-05
2.70846e-05
6.94174e-05
3.42125e-05
7.88042e-05
8.7707e-05
4.24203e-05
-4.82327e-08
-5.08974e-06
2.78016e-07
-2.85852e-06
1.30982e-06
1.28511e-06
3.45709e-06
8.98414e-06
6.78957e-06
2.00324e-05
1.11875e-05
3.21281e-05
1.64929e-05
4.33595e-05
2.27817e-05
5.32173e-05
3.01619e-05
6.20372e-05
3.8811e-05
7.0155e-05
7.74638e-05
4.90543e-05
-1.66052e-07
-4.92369e-06
1.66277e-08
-3.0412e-06
9.20504e-07
3.81229e-07
2.95372e-06
6.95093e-06
6.36323e-06
1.66229e-05
1.1104e-05
2.73873e-05
1.71346e-05
3.7329e-05
2.44255e-05
4.59264e-05
3.31028e-05
5.33599e-05
4.32814e-05
5.99764e-05
6.53637e-05
5.53815e-05
-2.87666e-07
-4.63602e-06
-3.14034e-07
-3.01483e-06
3.86818e-07
-3.19623e-07
2.22826e-06
5.10949e-06
5.58844e-06
1.32627e-05
1.06173e-05
2.23584e-05
1.7295e-05
3.06513e-05
2.56266e-05
3.75948e-05
3.56362e-05
4.33503e-05
4.72865e-05
4.83261e-05
5.19058e-05
6.07443e-05
-4.50547e-07
-4.18547e-06
-7.36444e-07
-2.72893e-06
-4.38705e-07
-6.17362e-07
1.10149e-06
3.5693e-06
4.30748e-06
1.00567e-05
9.51e-06
1.71559e-05
1.68204e-05
2.33409e-05
2.61398e-05
2.82754e-05
3.73429e-05
3.21471e-05
5.05397e-05
3.51293e-05
3.65246e-05
6.5921e-05
-7.12252e-07
-3.47322e-06
-1.36289e-06
-2.0783e-06
-1.64286e-06
-3.37386e-07
-7.22443e-07
2.64888e-06
2.29293e-06
7.04136e-06
7.61284e-06
1.1836e-05
1.54456e-05
1.55082e-05
2.55677e-05
1.81533e-05
3.77969e-05
1.9918e-05
5.20719e-05
2.08543e-05
2.01327e-05
6.84638e-05
-9.42102e-07
-2.53112e-06
-2.2953e-06
-7.25101e-07
-3.33344e-06
7.00757e-07
-3.15205e-06
2.46748e-06
-5.28403e-07
4.41772e-06
4.85109e-06
6.45649e-06
1.28168e-05
7.54245e-06
2.3164e-05
7.8061e-06
3.56433e-05
7.43866e-06
5.03037e-05
6.19387e-06
2.8293e-06
6.76071e-05
-3.41179e-06
8.80673e-07
-5.0324e-06
8.9551e-07
-6.13016e-06
1.79852e-06
-5.6568e-06
1.99412e-06
-2.86864e-06
1.62955e-06
2.94987e-06
6.37982e-07
1.15664e-05
-1.07412e-06
2.2584e-05
-3.21147e-06
3.60109e-05
-5.98827e-06
5.22359e-05
-1.00311e-05
-1.60235e-05
7.10887e-05
-6.26146e-07
1.50682e-06
5.12957e-07
-2.43593e-07
3.73836e-06
-1.42689e-06
9.20807e-06
-3.47558e-06
1.66529e-05
-5.81529e-06
2.58677e-05
-8.57681e-06
3.65465e-05
-1.1753e-05
4.89028e-05
-1.55677e-05
6.34294e-05
-2.05149e-05
8.0436e-05
-2.70376e-05
-3.57215e-05
0.000100134
1.15923e-05
1.79386e-05
2.46478e-05
3.16215e-05
3.89534e-05
4.68412e-05
5.57695e-05
6.6211e-05
7.84979e-05
9.30287e-05
0.000110382
-4.76995e-06
1.90556e-05
-1.42857e-05
-9.30065e-06
1.75187e-05
-1.2988e-05
-1.60669e-05
2.08875e-05
-1.41213e-05
-2.31779e-05
2.27173e-05
-1.56063e-05
-3.04232e-05
2.49572e-05
-1.77119e-05
-3.7954e-05
2.80606e-05
-2.05299e-05
-4.60924e-05
3.23077e-05
-2.41692e-05
-5.5213e-05
3.79708e-05
-2.88502e-05
-6.57247e-05
4.54175e-05
-3.49059e-05
-7.81198e-05
5.51926e-05
-4.27975e-05
6.81137e-05
-5.31346e-05
-9.30988e-05
2.80072e-06
1.62549e-05
3.16877e-06
1.71506e-05
-1.96211e-07
2.42525e-05
-5.3906e-06
2.79117e-05
-1.21107e-05
3.16773e-05
-1.98466e-05
3.57966e-05
-2.85069e-05
4.0968e-05
-3.82915e-05
4.77554e-05
-4.95683e-05
5.66943e-05
-6.28204e-05
6.84447e-05
8.39828e-05
-7.86895e-05
2.51857e-06
1.37363e-05
3.08804e-06
1.65812e-05
2.39226e-06
2.49482e-05
1.55258e-07
3.01487e-05
-4.20635e-06
3.60389e-05
-1.02097e-05
4.17999e-05
-1.75951e-05
4.83535e-05
-2.62804e-05
5.64406e-05
-3.64226e-05
6.68366e-05
-4.83824e-05
8.04045e-05
9.8308e-05
-6.27076e-05
1.79528e-06
1.19411e-05
1.90935e-06
1.64671e-05
2.05596e-06
2.48016e-05
1.19248e-06
3.10122e-05
-1.22916e-06
3.84605e-05
-5.1082e-06
4.56789e-05
-1.04848e-05
5.37301e-05
-1.72592e-05
6.32151e-05
-2.54408e-05
7.50182e-05
-3.51744e-05
9.0138e-05
0.000109885
-4.67513e-05
1.39711e-06
1.05439e-05
1.49985e-06
1.63643e-05
1.79816e-06
2.45033e-05
1.37507e-06
3.14353e-05
1.06116e-07
3.97295e-05
-2.18104e-06
4.79661e-05
-5.69953e-06
5.72486e-05
-1.04713e-05
6.79868e-05
-1.64979e-05
8.10448e-05
-2.38263e-05
9.74664e-05
0.000118616
-3.25579e-05
1.27094e-06
9.27301e-06
1.69178e-06
1.59435e-05
2.21416e-06
2.39809e-05
2.08161e-06
3.15678e-05
1.45668e-06
4.03544e-05
1.31798e-07
4.9291e-05
-2.0385e-06
5.94189e-05
-5.17179e-06
7.11201e-05
-9.30977e-06
8.51828e-05
-1.44684e-05
0.000102625
0.000124767
-2.06189e-05
1.22074e-06
8.05228e-06
1.95101e-06
1.52132e-05
2.71841e-06
2.32135e-05
2.92174e-06
3.13645e-05
2.77638e-06
4.04998e-05
2.11756e-06
4.99498e-05
8.74725e-07
6.06617e-05
-1.01989e-06
7.30147e-05
-3.63567e-06
8.77986e-05
-7.00447e-06
0.000105994
0.000128888
-1.1126e-05
1.04881e-06
7.00347e-06
2.0007e-06
1.42613e-05
2.96673e-06
2.22475e-05
3.49279e-06
3.08385e-05
3.76405e-06
4.02285e-05
3.63815e-06
5.00757e-05
3.13448e-06
6.11654e-05
2.20028e-06
7.39489e-05
8.0723e-07
8.91916e-05
-1.02789e-06
0.000107829
0.000131078
-3.21722e-06
9.97595e-07
6.00587e-06
2.1144e-06
1.31445e-05
3.24526e-06
2.11167e-05
4.07019e-06
3.00135e-05
4.69427e-06
3.96044e-05
5.0164e-06
4.97536e-05
5.09492e-06
6.10869e-05
4.91823e-06
7.41256e-05
4.49033e-06
8.96195e-05
3.83441e-06
0.000108485
0.00013186
3.05214e-06
1.08625e-06
4.91962e-06
2.40606e-06
1.18247e-05
3.76155e-06
1.97612e-05
4.90293e-06
2.88721e-05
5.8601e-06
3.86473e-05
6.56935e-06
4.90443e-05
7.1099e-06
6.05463e-05
7.51418e-06
7.37213e-05
7.81071e-06
8.9323e-05
8.04932e-06
0.000108246
0.000131649
8.26061e-06
1.09418e-06
3.82545e-06
2.53632e-06
1.03826e-05
4.09343e-06
1.82041e-05
5.55116e-06
2.74144e-05
6.84989e-06
3.73485e-05
7.94168e-06
4.79525e-05
8.916e-06
5.9572e-05
9.83796e-06
7.27994e-05
1.07774e-05
8.83835e-05
1.18084e-05
0.000107215
0.000130379
1.30784e-05
9.73452e-07
2.85199e-06
2.40675e-06
8.94926e-06
4.07267e-06
1.65382e-05
5.77526e-06
2.57118e-05
7.39499e-06
3.57288e-05
8.8885e-06
4.6459e-05
1.03279e-05
5.81326e-05
1.17874e-05
7.13398e-05
1.33647e-05
8.68063e-05