/*--------------------------------*- C++ -*----------------------------------*\
| =========                 |                                                 |
| \\      /  F ield         | OpenFOAM: The Open Source CFD Toolbox           |
|  \\    /   O peration     | Version:  3.0.1                                 |
|   \\  /    A nd           | Web:      www.OpenFOAM.org                      |
|    \\/     M anipulation  |                                                 |
\*---------------------------------------------------------------------------*/
FoamFile
{
    version     2.0;
    format      ascii;
    class       volScalarField;
    location    "0.97155";
    object      nut;
}
// * * * * * * * * * * * * * * * * * * * * * * * * * * * * * * * * * * * * * //

dimensions      [0 2 -1 0 0 0 0];

internalField   nonuniform List<scalar> 
21246
(
5.09147e-05
0.000221851
0.000257442
0.000302203
0.000353719
0.000397069
0.000422037
0.000415663
0.000374855
0.000326318
0.000293938
3.08037e-05
0.000188383
0.00028247
0.000337335
0.000374061
0.000405173
0.000423977
0.000419855
0.000384162
0.000332761
0.000295594
2.8918e-05
0.000157551
0.000260707
0.000339504
0.000379723
0.000407425
0.000426201
0.000426114
0.000394646
0.000341465
0.00029944
2.99241e-05
0.0001367
0.000233759
0.000323113
0.000372315
0.000408737
0.000432008
0.000434941
0.000405956
0.000352363
0.000307053
3.16949e-05
0.000120484
0.000212485
0.000303091
0.000356618
0.000401382
0.000431554
0.000440619
0.000415421
0.000362384
0.000314106
3.33972e-05
0.000107839
0.000195697
0.000282544
0.000337546
0.000387836
0.000424384
0.000439956
0.000419595
0.000368962
0.000320291
3.50503e-05
9.80277e-05
0.000181585
0.000262996
0.000318775
0.000371611
0.000412602
0.000434049
0.000419116
0.000372154
0.000324093
3.6708e-05
9.04036e-05
0.000169526
0.000245682
0.000301321
0.00035487
0.00039858
0.000424538
0.000414804
0.000372536
0.00032805
3.81855e-05
8.41391e-05
0.000158991
0.000230684
0.000285594
0.000338853
0.000384004
0.00041328
0.000408401
0.000371479
0.000330807
3.94255e-05
7.8548e-05
0.000149408
0.000217593
0.000271602
0.000324201
0.000369991
0.000401643
0.000400989
0.000369209
0.000331802
4.05632e-05
7.35419e-05
0.00014056
0.000205911
0.00025903
0.000310898
0.000356878
0.000390209
0.000393072
0.0003659
0.000332243
4.14939e-05
6.92159e-05
0.000132465
0.000195338
0.000247581
0.000298732
0.000344644
0.00037917
0.000384962
0.000361962
0.000331779
4.21129e-05
6.52879e-05
0.000124879
0.000185668
0.000237123
0.000287674
0.000333351
0.000368694
0.000376899
0.000357627
0.000330693
4.24649e-05
6.06396e-05
0.000116893
0.000176523
0.000227426
0.00027759
0.000322941
0.000358823
0.000368963
0.00035296
0.000329305
4.23775e-05
5.63134e-05
0.000107608
0.000165522
0.00021584
0.000265737
0.00031111
0.000348247
0.000360682
0.000347777
0.000327563
4.18113e-05
5.19725e-05
9.68008e-05
0.000151525
0.000199576
0.000246941
0.000289932
0.00032725
0.00034453
0.000338605
0.00032405
4.08321e-05
4.72311e-05
8.38882e-05
0.000133392
0.000177756
0.000220522
0.000258869
0.00029438
0.00031725
0.000321828
0.000316123
3.92238e-05
4.27869e-05
7.09367e-05
0.000112926
0.000151998
0.000188533
0.000220336
0.000250855
0.000276637
0.000292696
0.000299632
3.69633e-05
3.85593e-05
5.87323e-05
9.15818e-05
0.000123808
0.000153087
0.000177351
0.00020008
0.000222999
0.000245756
0.00026631
3.40178e-05
3.44046e-05
4.78227e-05
7.12306e-05
9.55468e-05
0.000117213
0.000134079
0.000148264
0.000163104
0.000182261
0.000207732
3.03098e-05
3.01505e-05
3.84838e-05
5.35972e-05
7.00672e-05
8.46203e-05
9.5234e-05
0.000102545
0.000108889
0.000117827
0.000133533
2.57985e-05
2.5646e-05
3.06567e-05
3.95405e-05
4.94588e-05
5.82111e-05
6.42866e-05
6.75132e-05
6.88663e-05
7.01935e-05
7.39488e-05
2.04052e-05
2.04183e-05
2.35809e-05
2.84413e-05
3.38085e-05
3.85589e-05
4.18221e-05
4.32452e-05
4.30355e-05
4.1881e-05
4.07876e-05
1.45418e-05
1.9174e-05
2.0775e-05
2.26751e-05
2.46001e-05
2.62576e-05
2.73536e-05
2.76788e-05
2.71748e-05
2.597e-05
2.43665e-05
4.9671e-05
0.000220082
0.000245312
0.000322737
0.00035924
0.000396466
0.000418846
0.000408564
0.000365006
0.000317821
0.000288622
3.75318e-05
0.000163845
0.00015512
0.000275239
0.000345016
0.000388938
0.000413424
0.000408303
0.000366804
0.000316259
0.000284484
3.63965e-05
0.000130657
0.000135085
0.000231561
0.000329646
0.000392091
0.000417211
0.000408327
0.00036229
0.000304526
0.000268295
3.8391e-05
0.000113219
0.000127895
0.000215349
0.000315985
0.000395641
0.000423572
0.000408263
0.000351672
0.000284077
0.000243487
4.08489e-05
0.000105929
0.000123219
0.000201375
0.000303525
0.000393065
0.000424797
0.000404506
0.000335969
0.000257991
0.000212201
4.27888e-05
0.000103904
0.000119293
0.000189896
0.000291732
0.000384198
0.000418858
0.000395042
0.000316099
0.000229855
0.000180896
4.42388e-05
0.000104385
0.00011614
0.000180522
0.000280214
0.000371377
0.000407375
0.00038042
0.000293303
0.000202066
0.000151782
4.54296e-05
0.000106333
0.000113611
0.000172677
0.000268975
0.000356784
0.000392714
0.000362525
0.000269321
0.000176461
0.000126568
4.61977e-05
0.000108904
0.000111562
0.00016579
0.000258061
0.000341903
0.000377044
0.000343589
0.000246073
0.000155039
0.000110177
4.65843e-05
0.000111559
0.000109889
0.000159456
0.000247488
0.000327487
0.000361867
0.000325396
0.00022504
0.000137742
9.75044e-05
4.65595e-05
0.000113565
0.000108053
0.000151249
0.000233696
0.00030951
0.000343314
0.000305426
0.000206564
0.000124844
8.86911e-05
4.62327e-05
0.000115188
0.000106273
0.000141995
0.000216445
0.000286531
0.000318747
0.000281209
0.000190054
0.000116081
8.27356e-05
4.55055e-05
0.000116194
0.000104568
0.00013225
0.000196482
0.000259345
0.000289497
0.000255052
0.000175893
0.000110585
7.91355e-05
4.43798e-05
0.000116096
0.000102883
0.000121985
0.000174196
0.000228513
0.000256422
0.000228062
0.000163338
0.000107408
7.74956e-05
4.27903e-05
0.000115241
0.000101409
0.000112419
0.000152005
0.000196433
0.000221335
0.000200768
0.000151065
0.000105252
7.74897e-05
4.0714e-05
0.000113317
0.000100081
0.000103938
0.000131248
0.000164934
0.000185749
0.000173004
0.000137592
0.000102472
7.83974e-05
3.81465e-05
0.00010996
9.87536e-05
9.68195e-05
0.000113048
0.000136021
0.000151617
0.000144957
0.000121759
9.70257e-05
7.85988e-05
3.5017e-05
0.000104978
9.71945e-05
9.12521e-05
9.83052e-05
0.000111521
0.000121256
0.000117874
0.000103588
8.74104e-05
7.52145e-05
3.12834e-05
9.80625e-05
9.49654e-05
8.7118e-05
8.73297e-05
9.2506e-05
9.65468e-05
9.38018e-05
8.4743e-05
7.41778e-05
6.63264e-05
2.69468e-05
8.88276e-05
9.13671e-05
8.39647e-05
7.99269e-05
7.91933e-05
7.84356e-05
7.46956e-05
6.78748e-05
6.01615e-05
5.40154e-05
2.20032e-05
7.67342e-05
8.54908e-05
8.09627e-05
7.54702e-05
7.11622e-05
6.69505e-05
6.16884e-05
5.5306e-05
4.866e-05
4.28137e-05
1.65733e-05
6.49468e-05
7.73585e-05
7.68001e-05
7.22888e-05
6.67438e-05
6.07239e-05
5.43374e-05
4.77877e-05
4.1437e-05
3.55891e-05
1.0789e-05
4.79098e-05
5.69773e-05
5.90037e-05
5.46408e-05
4.84367e-05
4.21257e-05
3.61548e-05
3.06922e-05
2.58284e-05
2.15906e-05
9.73698e-06
1.06879e-05
1.10322e-05
1.12802e-05
1.16366e-05
1.20809e-05
1.25185e-05
1.28598e-05
1.30246e-05
1.29612e-05
1.26581e-05
3.73206e-05
0.000153682
0.000166207
0.000189921
0.000193823
0.000177974
0.000145939
0.00011987
0.000103353
9.14437e-05
8.1218e-05
3.0688e-05
0.000117432
0.000115698
0.00016311
0.000196879
0.000186964
0.000150724
0.000118023
9.78958e-05
8.39902e-05
7.22736e-05
2.95679e-05
9.21862e-05
0.000100862
0.000127915
0.000176385
0.000193704
0.000159331
0.000120198
9.57816e-05
7.9881e-05
6.74142e-05
3.02789e-05
7.82151e-05
9.42642e-05
0.000113868
0.000154757
0.000195841
0.000168826
0.000124946
9.62476e-05
7.842e-05
6.53743e-05
3.10342e-05
7.17874e-05
8.98949e-05
0.000105512
0.000140285
0.000188796
0.000177269
0.000131181
9.85815e-05
7.89533e-05
6.5621e-05
3.11843e-05
6.91312e-05
8.65563e-05
9.90697e-05
0.000127445
0.000172958
0.000181245
0.000138272
0.000102209
8.07966e-05
6.699e-05
3.08701e-05
6.875e-05
8.43368e-05
9.42319e-05
0.00011619
0.000153675
0.000174706
0.000145289
0.000106811
8.35404e-05
6.90445e-05
3.02384e-05
7.02976e-05
8.35616e-05
9.11164e-05
0.000107416
0.000136115
0.000160789
0.000147939
0.000112756
8.7279e-05
7.17401e-05
2.92452e-05
7.28525e-05
8.41713e-05
8.93993e-05
0.000100682
0.000121334
0.000143678
0.000144131
0.000118077
9.1944e-05
7.51845e-05
2.79199e-05
7.59174e-05
8.60333e-05
8.88503e-05
9.54821e-05
0.000108982
0.000126023
0.000133623
0.000120473
9.70599e-05
7.92077e-05
2.64554e-05
7.97634e-05
8.9413e-05
8.97505e-05
9.21094e-05
9.96075e-05
0.000110684
0.000119323
0.000117543
0.000101516
8.37721e-05
2.50241e-05
8.50914e-05
9.48066e-05
9.24691e-05
9.08196e-05
9.33636e-05
9.91238e-05
0.000105316
0.000109287
0.00010328
8.85252e-05
2.38667e-05
9.2072e-05
0.000102569
9.73336e-05
9.16008e-05
8.9726e-05
9.09364e-05
9.35659e-05
9.80566e-05
0.000100273
9.22965e-05
2.33479e-05
0.000100917
0.000113291
0.000105048
9.4825e-05
8.85503e-05
8.56838e-05
8.47195e-05
8.68376e-05
9.2299e-05
9.28479e-05
2.37026e-05
0.000113716
0.00012863
0.000117015
0.000101423
9.02766e-05
8.34379e-05
7.91316e-05
7.79975e-05
8.21442e-05
8.82774e-05
2.44636e-05
0.000129916
0.000149606
0.000135289
0.000113103
9.58286e-05
8.44279e-05
7.67223e-05
7.23163e-05
7.30688e-05
7.94916e-05
2.46908e-05
0.000145568
0.00017471
0.000161669
0.000132699
0.000107369
8.9868e-05
7.79947e-05
7.01834e-05
6.71084e-05
7.02069e-05
2.39652e-05
0.000157627
0.000200101
0.000195275
0.000162985
0.000128395
0.000102506
8.47425e-05
7.2689e-05
6.56046e-05
6.41909e-05
2.24178e-05
0.000163805
0.000221062
0.000230787
0.000203884
0.000162855
0.000127005
0.000100851
8.2629e-05
7.05804e-05
6.422e-05
2.01969e-05
0.000163163
0.000234164
0.000260906
0.000249796
0.000212264
0.00016938
0.000133281
0.000106147
8.68707e-05
7.42615e-05
1.74676e-05
0.00015433
0.000237882
0.000281466
0.000292332
0.000272374
0.000233562
0.000191233
0.000154031
0.000124644
0.00010303
1.52081e-05
0.000138841
0.000229901
0.000287416
0.00031874
0.000324116
0.000305657
0.000271708
0.000232512
0.000195618
0.000164055
1.18926e-05
0.000111089
0.000170315
0.000220477
0.000257784
0.000285977
0.000302688
0.000304318
0.000291412
0.000269669
0.000242878
9.16895e-06
3.5911e-05
5.55088e-05
7.96247e-05
0.000106693
0.000137117
0.000169576
0.000197995
0.000218659
0.000230367
0.000231447
3.17843e-05
0.000145385
0.00016611
0.000179503
0.000187496
0.000176064
0.000150031
0.000127579
0.000112622
0.000101603
9.18889e-05
2.10094e-05
0.000114866
0.000162106
0.000189214
0.000198526
0.000190097
0.000165998
0.000142499
0.000126843
0.000116126
0.000107363
2.07302e-05
9.80741e-05
0.000152589
0.000206611
0.000222331
0.000214458
0.00018849
0.000160387
0.00014191
0.000130592
0.000122546
2.2765e-05
8.94514e-05
0.000144168
0.00021356
0.000241024
0.00023899
0.000214069
0.000182105
0.0001584
0.000144089
0.000135001
2.54322e-05
8.29822e-05
0.00014029
0.000212989
0.000244155
0.000247347
0.000226194
0.000195837
0.000171791
0.000156862
0.000147403
2.80099e-05
7.82316e-05
0.000137758
0.000209079
0.000243079
0.000251826
0.000234089
0.0002051
0.000181544
0.000167038
0.000158616
3.03694e-05
7.47457e-05
0.000135592
0.000204171
0.000239913
0.000253012
0.000238589
0.00021171
0.000189059
0.000174987
0.000167038
3.25683e-05
7.21852e-05
0.000133628
0.000199441
0.000236321
0.000252743
0.000241045
0.000216305
0.000194704
0.000181124
0.000173528
3.44362e-05
7.02197e-05
0.000131666
0.000195142
0.000233259
0.000252142
0.000242828
0.00021994
0.000199314
0.00018637
0.000179528
3.59575e-05
6.84791e-05
0.00012979
0.000191407
0.000231059
0.000251691
0.000244548
0.000223093
0.000203102
0.000190496
0.000183832
3.71122e-05
6.67187e-05
0.000127671
0.000188194
0.000229388
0.000251742
0.000246636
0.000226206
0.000206475
0.000193947
0.000187232
3.79998e-05
6.49199e-05
0.000125322
0.000185287
0.000228023
0.000252312
0.000249307
0.00022968
0.000209879
0.000197175
0.000190162
3.85493e-05
6.29118e-05
0.000122601
0.000182394
0.000226778
0.000253384
0.000252804
0.000233974
0.000213831
0.000200743
0.000193414
3.86962e-05
5.92585e-05
0.000117458
0.000177353
0.000223734
0.000253488
0.00025668
0.000239482
0.000218955
0.000205302
0.000197894
3.83638e-05
5.49966e-05
0.00010958
0.000168335
0.000215418
0.000247664
0.000256297
0.00024415
0.000225437
0.000211698
0.000204225
3.75221e-05
5.0301e-05
9.91504e-05
0.000155307
0.000202025
0.000235727
0.000250197
0.000245912
0.000232293
0.000220107
0.000213047
3.61669e-05
4.53125e-05
8.66732e-05
0.000138325
0.000183626
0.00021776
0.000237161
0.00024172
0.000236581
0.000229237
0.000224357
3.42128e-05
4.03543e-05
7.33261e-05
0.000118314
0.000160742
0.000194314
0.000216905
0.000228923
0.000233532
0.000234758
0.000235813
3.16181e-05
3.55033e-05
6.01779e-05
9.67046e-05
0.000134279
0.000166019
0.000189904
0.000206606
0.000218894
0.000229527
0.000240067
2.8349e-05
3.06859e-05
4.78944e-05
7.513e-05
0.000105737
0.000133841
0.000157052
0.000175596
0.000191753
0.000208266
0.000226981
2.43705e-05
2.57563e-05
3.68724e-05
5.51971e-05
7.74197e-05
9.97558e-05
0.000120004
0.000137791
0.0001544
0.000172052
0.000192976
1.96896e-05
2.05587e-05
2.71307e-05
3.79875e-05
5.18256e-05
6.68911e-05
8.18591e-05
9.62296e-05
0.000110458
0.000125807
0.000144017
1.43405e-05
1.45938e-05
1.79157e-05
2.32367e-05
3.01488e-05
3.81051e-05
4.66208e-05
5.54739e-05
6.48166e-05
7.52264e-05
8.77623e-05
8.64598e-06
9.19586e-06
1.14698e-05
1.44942e-05
1.81875e-05
2.24678e-05
2.71922e-05
3.37757e-05
4.30516e-05
5.54752e-05
7.07302e-05
1.62958e-05
0.000114107
0.000182846
0.000253277
0.000310754
0.000357143
0.00039979
0.000441579
0.000475883
0.000493538
0.000488249
1.30382e-05
9.42286e-05
0.000165302
0.000240764
0.000299546
0.000343336
0.000380879
0.000415111
0.00044019
0.000448675
0.000436515
1.2164e-05
7.80147e-05
0.000149616
0.000223066
0.000281929
0.000326246
0.000362218
0.000392787
0.000413278
0.000416663
0.000398178
1.23374e-05
7.09964e-05
0.000140157
0.000209484
0.000267289
0.000311484
0.000345997
0.000374055
0.000392668
0.000395401
0.000377429
1.28709e-05
6.85082e-05
0.000135977
0.000202108
0.000258201
0.000301168
0.000333631
0.00035934
0.000377153
0.000381339
0.000366522
1.33906e-05
6.84579e-05
0.00013563
0.000199802
0.000254231
0.000295592
0.000325861
0.00034931
0.00036653
0.000372671
0.000361336
1.38854e-05
6.9839e-05
0.000137654
0.000200856
0.000254077
0.000294054
0.00032244
0.000343888
0.000360463
0.000368195
0.000359187
1.44677e-05
7.25728e-05
0.00014121
0.000204118
0.000256526
0.000295455
0.000322415
0.000342292
0.000358333
0.000367645
0.000362208
1.49966e-05
7.50983e-05
0.000145327
0.000208489
0.000260422
0.00029867
0.000324692
0.00034353
0.000359324
0.000370067
0.000366989
1.5387e-05
7.73185e-05
0.000149205
0.000212894
0.000264777
0.000302797
0.000328395
0.000346752
0.000362633
0.000374511
0.000372475
1.57128e-05
7.8853e-05
0.000152473
0.000216953
0.000269142
0.000307301
0.000332922
0.000351286
0.000367538
0.000380364
0.000379407
1.59808e-05
8.06892e-05
0.000155535
0.00022079
0.000273413
0.00031192
0.000337891
0.000356643
0.000373462
0.000386983
0.000385919
1.61347e-05
8.19934e-05
0.000157899
0.000224019
0.000277317
0.000316467
0.000343123
0.000362581
0.000380105
0.000394196
0.000393545
1.61665e-05
8.18611e-05
0.000158697
0.000225962
0.000280306
0.0003206
0.000348471
0.000369018
0.000387384
0.00040206
0.000402391
1.60495e-05
8.16107e-05
0.000158928
0.000227157
0.000282609
0.00032424
0.000353611
0.000375618
0.000395205
0.000410636
0.000411125
1.57728e-05
8.07101e-05
0.000157994
0.000227057
0.000283738
0.000326984
0.000358157
0.000381813
0.000402825
0.000419588
0.000420886
1.53401e-05
7.81377e-05
0.000154728
0.000224612
0.000282802
0.00032805
0.000361347
0.000386713
0.000409001
0.000427105
0.000430299
1.46728e-05
7.44338e-05
0.000149319
0.000219606
0.000279362
0.000326875
0.000362502
0.0003894
0.000412314
0.000431153
0.000436077
1.37562e-05
6.92317e-05
0.000141114
0.00021108
0.000272278
0.000322257
0.000360358
0.000388408
0.000410723
0.000428793
0.000434837
1.2565e-05
6.21845e-05
0.000129224
0.000197547
0.000259685
0.000312209
0.000353002
0.000381949
0.00040226
0.00041703
0.000422618
1.10563e-05
5.28941e-05
0.000112553
0.000176734
0.000238396
0.000293233
0.00033726
0.000367739
0.000385731
0.000394916
0.000396527
9.22431e-06
4.20068e-05
8.98532e-05
0.000144627
0.000202378
0.000258655
0.000307208
0.000341802
0.000360129
0.000364677
0.000359462
6.98914e-06
2.53753e-05
5.28051e-05
9.04587e-05
0.000139375
0.000196136
0.000251803
0.000295637
0.000320919
0.000327322
0.000318951
7.57221e-06
1.27138e-05
1.92897e-05
3.46734e-05
6.68705e-05
0.000113984
0.000168439
0.000218532
0.000254057
0.000270666
0.000269981
1.47098e-05
7.84531e-05
0.00014414
0.000209748
0.000277903
0.000343923
0.000406099
0.000465629
0.000519923
0.000557893
0.000566194
1.05474e-05
3.58976e-05
7.63983e-05
0.000115413
0.000161415
0.000233023
0.000316374
0.000407997
0.000517447
0.000611559
0.00065539
1.14408e-05
3.4299e-05
7.49754e-05
0.000111106
0.000128347
0.000145246
0.000189496
0.000261151
0.000391235
0.000559892
0.000714642
1.3567e-05
4.02138e-05
8.89772e-05
0.000141413
0.000171207
0.000165138
0.000161183
0.000182788
0.000236474
0.000385225
0.000652686
1.61506e-05
4.95664e-05
0.000107827
0.000176404
0.000231009
0.000244647
0.000210924
0.000185004
0.000186281
0.000231476
0.000426438
1.87537e-05
6.12985e-05
0.000130082
0.000210696
0.000285249
0.000330446
0.000309479
0.000251149
0.000204307
0.000192067
0.000253068
2.12638e-05
7.47025e-05
0.000154421
0.000242604
0.000327676
0.000397087
0.000419469
0.000358425
0.000274023
0.000211944
0.000202366
2.37171e-05
8.91123e-05
0.000179535
0.000271374
0.000358138
0.000438082
0.000492039
0.00046585
0.000372459
0.000270975
0.00020957
2.59596e-05
0.000104638
0.00020517
0.000297557
0.000379438
0.000457227
0.00052678
0.000551484
0.000473764
0.000350434
0.000248714
2.79446e-05
0.000121039
0.000230331
0.000320962
0.000394299
0.000461227
0.000530965
0.000586593
0.000551969
0.000430289
0.000301615
2.9642e-05
0.000137251
0.000253512
0.000341221
0.000404709
0.000456811
0.000516587
0.000585876
0.00059808
0.000495429
0.000354268
3.11573e-05
0.000151652
0.000274471
0.000357671
0.000411306
0.00044901
0.000495185
0.00056401
0.000615195
0.000539306
0.000397137
3.24482e-05
0.000164297
0.000290821
0.000369747
0.000414205
0.000440404
0.00047364
0.000529986
0.000596671
0.000565205
0.000423092
3.34304e-05
0.000176522
0.00030547
0.000379218
0.000414349
0.000430133
0.000451808
0.000492124
0.000543752
0.00056235
0.000432278
3.40227e-05
0.000187907
0.000318627
0.000386813
0.000412334
0.000417248
0.000426308
0.000450014
0.000481876
0.000498575
0.000440501
3.42144e-05
0.000198968
0.000331331
0.000393894
0.000409905
0.000404134
0.000400797
0.000409295
0.000424997
0.000436039
0.000420964
3.39774e-05
0.000209853
0.000344392
0.000401981
0.000409391
0.000394425
0.000381076
0.000378463
0.00038324
0.000388044
0.000382952
3.32062e-05
0.000220651
0.000358914
0.000413462
0.000414256
0.000392335
0.000372033
0.000362645
0.000361308
0.000361336
0.000355399
3.18e-05
0.00023337
0.000377851
0.000432953
0.000429928
0.000401962
0.000374924
0.000360042
0.000355913
0.000356575
0.000355704
2.81789e-05
0.000227212
0.000366984
0.000425824
0.000426951
0.000395713
0.000358713
0.000333342
0.00032248
0.000321739
0.000330452
2.2872e-05
0.000197871
0.000331255
0.000399616
0.000413771
0.000388394
0.000343278
0.000297461
0.000255126
0.000214855
0.00019484
1.73192e-05
0.000155996
0.000275973
0.000349955
0.000377447
0.000365926
0.000322733
0.000264974
0.000200226
0.000159523
0.000135617
1.1983e-05
0.000107413
0.00020794
0.000270425
0.000294174
0.000283069
0.000237651
0.000179135
0.000143334
0.000127716
0.000122652
6.86304e-06
7.1999e-05
0.000113728
0.000140573
0.000141549
0.000126154
0.000113812
0.000117487
0.000131816
0.000149209
0.00016216
1.49235e-05
1.42944e-05
1.41929e-05
1.42639e-05
1.44078e-05
1.44376e-05
1.42521e-05
1.35172e-05
1.18022e-05
9.59489e-05
0.000101746
9.46293e-05
8.4317e-05
7.36477e-05
6.20079e-05
4.41879e-05
3.13026e-05
2.38383e-05
0.000152813
0.000157256
0.000151672
0.000140443
0.000125364
0.000109629
8.35143e-05
5.98528e-05
4.35819e-05
0.000183506
0.000188398
0.000189282
0.000179494
0.000160988
0.000143177
0.000112305
8.26182e-05
6.21154e-05
1.50645e-05
1.47445e-05
1.41298e-05
1.27944e-05
9.33408e-06
6.92241e-06
6.42426e-06
5.85405e-06
8.44385e-06
8.64459e-05
7.36377e-05
5.12788e-05
3.40806e-05
2.69499e-05
2.4937e-05
2.78079e-05
2.16009e-05
2.07184e-05
0.000140431
0.000126093
9.49255e-05
6.47257e-05
4.57507e-05
3.74111e-05
4.27229e-05
3.53946e-05
3.5011e-05
0.00017193
0.000159588
0.000126095
9.00627e-05
6.35348e-05
5.12506e-05
5.96283e-05
5.27753e-05
5.12921e-05
0.000195904
0.000229712
0.000229753
7.38101e-05
0.000408424
0.000229329
9.13585e-05
0.000229492
0.000229307
0.000233289
0.000402332
0.000229513
0.000120831
0.00018833
0.000123954
0.000228718
0.000159414
7.39339e-05
0.000228712
0.000228677
0.000229729
2.86959e-05
0.000229948
0.000259799
0.000229329
0.000191984
0.000128702
8.91472e-05
0.000293527
0.000556974
0.000141305
0.000235738
0.000113987
0.000229463
0.000240862
0.000229678
0.000246231
0.000229308
9.61344e-05
0.000229326
1.5846e-05
0.000229492
0.000106289
0.000229922
0.000457797
5.23243e-05
5.22486e-05
0.000102871
0.000239646
0.00022914
0.000554775
0.000229355
0.000246051
0.00010618
0.000229093
0.00022952
2.91762e-05
0.000229385
0.000285858
9.11495e-05
2.56305e-05
0.00020077
0.000484754
0.000162306
2.24792e-05
0.000228651
0.00065789
0.000231226
0.000229709
0.000232788
0.000189857
0.000231894
6.048e-05
0.000236587
0.000136994
0.000230711
2.39183e-05
0.000229679
0.000138957
0.000449369
0.000677323
0.00013849
0.000229302
0.000229788
0.000247775
6.12426e-05
0.000306012
0.000150378
4.59464e-05
0.000277124
0.000229509
0.000229439
1.76829e-05
0.00023194
0.000439725
0.000150972
9.85295e-05
0.000235122
4.43945e-05
0.000233446
0.000251185
9.74339e-05
0.000229686
0.000236578
4.88847e-05
0.000229499
0.000181614
0.000229865
0.000110176
0.000235521
0.00022948
0.000229533
0.000230259
6.98012e-05
7.60456e-05
0.000229014
0.000229225
0.000228828
0.000229465
0.000229007
6.73229e-05
0.000236382
0.000242824
0.000188414
4.63755e-05
0.000193676
0.000912714
0.000176901
0.000140835
0.00011781
0.00022947
9.05801e-05
9.90456e-05
0.000230992
0.000229744
0.000231062
2.16167e-05
0.000105302
0.000547706
0.000244361
0.000109734
0.000231537
0.000236839
0.00016782
0.000229168
3.81088e-05
0.00011038
0.000230839
0.000234322
0.000229413
0.000229274
0.000229368
4.03978e-05
0.000235281
7.46291e-05
6.00269e-05
6.81001e-05
2.99937e-05
0.000170265
0.000228753
0.000217235
4.90908e-05
0.000231488
0.000229046
0.000675006
0.000116218
5.75989e-05
0.000250825
0.000235883
2.21369e-05
0.000145947
0.000159779
0.000237505
0.000229621
0.000235016
0.000220292
0.000154881
3.93002e-05
0.000452534
0.000199709
0.000230406
2.44421e-05
0.000229924
0.000153823
0.000229378
0.000106233
0.000229845
0.000228811
0.000229675
0.000174546
0.000109179
0.000197799
0.000228566
1.56288e-05
0.000229733
0.000228882
0.000229257
4.46073e-05
0.000114847
0.00023
3.37452e-05
0.00022932
0.000109503
0.000139668
0.000229791
0.000154158
0.0002316
0.00014087
0.000229126
0.000228689
0.000323383
0.000228994
0.000175395
0.000238703
0.000229398
0.000137027
0.00022937
5.0766e-05
0.000229601
8.08311e-05
7.32845e-05
6.58209e-05
9.91758e-05
7.5264e-05
0.000191567
0.000229404
0.000121008
0.000116013
0.000110516
0.00030928
3.19008e-05
0.000228548
0.000229434
0.000236731
3.90824e-05
0.000293131
0.000677216
0.00022987
0.000229553
0.000229537
5.12362e-05
0.0001941
0.000236692
1.65795e-05
0.000235768
5.06445e-05
0.000229411
0.000141107
0.000171094
0.000859458
0.000141187
0.000323941
0.000240588
0.000228733
0.000233905
0.000229261
0.000229546
0.000229236
4.57848e-05
0.000230068
0.000123389
0.000192723
0.000228172
0.000229594
0.000229468
5.16638e-05
0.000231978
0.000237552
0.000159546
0.000179713
0.000223375
0.000228981
0.000229364
5.18521e-05
0.000229029
0.000228839
0.000184379
0.000229206
0.000238346
4.84774e-05
0.000232818
0.000229663
0.000677465
0.000639593
0.000233521
0.000228966
0.000318066
0.000229625
0.00023789
0.000106077
0.000229736
9.68836e-05
0.000251867
8.17856e-05
0.000230002
0.000229144
0.000235015
0.000229573
0.000240394
0.000187476
0.000229479
5.97981e-05
0.000242422
0.000554009
0.000229486
0.000235528
0.000229674
0.000279036
2.44894e-05
0.000228964
5.55769e-05
0.000229545
0.000233951
0.000117612
2.73141e-05
0.000231577
0.000170436
6.35919e-05
0.000228682
0.00023367
0.000229637
0.000557601
0.000228893
0.000192557
0.00011382
0.000237861
0.000229255
0.000206796
0.000228249
0.000541383
0.000234581
0.000479888
2.20071e-05
0.000229886
9.83195e-05
0.00024476
6.65707e-05
0.000229636
0.000229239
0.000238843
4.87836e-05
0.0003085
0.000229411
0.000110911
0.000213685
0.000280178
8.49897e-05
0.000228988
0.000208033
0.000954716
6.24612e-05
0.000234769
0.00017977
0.00022952
0.000106148
0.000230036
7.10346e-05
0.000206728
0.000229923
0.000634508
0.000136119
0.000186294
0.000229403
0.000229358
0.000229434
5.17037e-05
0.000168386
5.83124e-05
7.3116e-05
0.000244219
0.00022919
0.000126658
0.000216261
0.000192908
0.000112965
0.000229712
0.000152542
0.00024079
0.000228941
0.0002293
0.000551343
0.000228848
3.66611e-05
0.000229398
0.000197846
0.000687561
5.93659e-05
0.000191261
0.00019326
4.71005e-05
0.000229388
4.56541e-05
0.000185519
0.000244825
0.000693422
2.21588e-05
0.000229373
0.000229003
0.00022976
8.38132e-05
4.57216e-05
0.000228958
0.000229941
0.000108071
9.57254e-05
2.0442e-05
0.000103887
0.000143195
0.000229298
0.00055972
0.000243279
0.000228692
0.000115116
0.000116646
4.94222e-05
0.00023385
0.000109149
0.000239551
0.00018258
4.93961e-05
0.000295876
0.000150292
9.35924e-05
0.000110519
0.000227254
0.000234924
0.000235494
7.43283e-05
0.000206951
3.04485e-05
0.00022932
3.68263e-05
0.000207814
0.000228546
0.000225779
6.34996e-05
0.000301918
0.000518063
0.000187875
0.000230034
0.000236651
0.000294337
8.0877e-05
5.93915e-05
0.000234281
7.06623e-05
0.000100054
2.6419e-05
0.000228742
4.10461e-05
0.000229408
0.000229737
0.000229321
4.97876e-05
9.1495e-05
7.1649e-05
0.000147984
3.17459e-05
8.17218e-05
0.000229663
0.000228753
0.000935198
0.000182264
0.00023393
0.000241246
4.14169e-05
4.53176e-05
2.96836e-05
2.93526e-05
0.00023421
0.000211827
5.21705e-05
0.000229738
2.67588e-05
0.000237575
0.000229616
0.000228952
8.05647e-05
3.61627e-05
0.000229607
0.000229145
0.000229754
0.000260915
2.33379e-05
0.000229867
4.0761e-05
0.00035872
0.000156502
6.17785e-05
0.000228703
3.86451e-05
0.000228886
0.000236829
0.000229355
0.000123351
0.000150148
0.000228603
0.000193889
0.00016903
0.000236825
0.000223233
0.000206672
0.00022944
0.000229468
0.00020945
6.67972e-05
5.6606e-05
0.000234914
8.44587e-05
0.000229756
0.000458408
0.000104893
4.48906e-05
0.000109788
0.000250471
0.000661885
7.29309e-05
0.000193662
0.000229216
0.000184445
0.000228767
0.000229657
0.000229115
0.000229591
0.000235106
0.000526509
0.000229477
0.000228738
0.000166736
0.00022948
3.85578e-05
0.000245592
0.000237125
0.00017668
4.75902e-05
0.000229995
0.000229237
0.000229818
1.60274e-05
3.61266e-05
0.000229371
0.000229334
0.000188139
0.000229738
7.57912e-05
0.000229693
0.000698497
0.000237069
3.22546e-05
9.15782e-05
0.000131395
6.00718e-05
0.000487349
0.000229556
0.000232051
0.00023414
0.000229699
6.36165e-05
2.63166e-05
0.000223838
0.000126421
0.000152429
0.000120664
0.000229327
0.000229452
0.000229668
9.9665e-05
0.000718799
8.41647e-05
0.000229461
0.000229135
0.000645592
0.000230447
9.73442e-05
0.00013514
0.000166866
0.000323264
0.000229322
8.8689e-05
0.000229192
7.31509e-05
0.000229302
0.000135388
0.000150419
0.000234698
2.90317e-05
0.000135218
0.000229826
0.00022998
0.000432121
0.000228926
0.000183706
9.93097e-05
7.87439e-05
9.72668e-05
4.92345e-05
0.000151474
0.000230646
0.000229507
0.000229375
0.000149117
5.2411e-05
0.000113012
0.000228636
0.000229363
8.94625e-05
0.000230219
0.00023354
0.000239173
0.000232213
0.000109579
5.55444e-05
7.89375e-05
0.000159973
0.000233645
0.000232384
0.000228729
0.000151833
0.000230576
0.000229473
0.000177508
0.000412112
0.000228952
0.000228848
2.12402e-05
0.000229813
0.00022873
0.000147687
0.000229706
0.000235545
9.41663e-05
8.54327e-05
0.000158622
0.000179289
0.000159669
6.90374e-05
0.000408183
7.35257e-05
0.000108257
0.000180341
5.34308e-05
7.11585e-05
0.000129175
0.000229759
0.000230628
0.000112884
0.000230208
0.00022984
0.000241967
0.000207858
0.000106724
0.000162269
0.000193129
0.000240636
0.000229192
0.000200194
0.000229566
0.000228947
0.000236601
7.7424e-05
0.000230947
0.000236143
0.000231764
0.000229654
0.000117689
6.22967e-05
0.000296454
0.000230889
0.000231018
0.000189848
0.000122695
0.000233023
0.00016806
0.000230602
0.000158131
0.000547881
0.000229273
6.55924e-05
0.000229914
0.000118594
0.000129766
0.000106544
0.000145722
0.00021542
0.000246648
0.000229821
0.000100169
0.000182464
4.65586e-05
0.000893282
0.000228951
0.00023369
0.000229807
0.000161082
0.000230305
4.21649e-05
0.000229502
0.000229424
0.000228957
0.000128462
6.56463e-05
0.000229596
0.000129789
0.000229197
0.000114756
0.000170402
0.000231277
0.000108675
1.83973e-05
8.07443e-05
0.000237153
0.000195718
0.000135966
0.000121325
0.000127121
9.20718e-05
0.000229262
0.000148446
0.000229503
0.000234352
5.08337e-05
0.000185524
3.84216e-05
0.000188285
0.000230232
0.000235642
0.000229028
5.61091e-05
0.000229653
0.000960254
9.7097e-05
0.00067638
0.000234235
0.000138776
0.000107964
9.63815e-05
0.000237413
0.000120217
3.7897e-05
6.03829e-05
0.000229507
0.000186261
0.000163236
0.000229533
4.29981e-05
0.000119406
0.000236431
0.000155629
0.000229186
0.000235599
0.000235114
0.000131021
0.00023348
0.000192245
0.000229589
0.000118644
0.000232786
8.53743e-05
6.62949e-05
0.000358
0.000110459
0.000228829
0.000272652
5.75929e-05
0.000229203
0.000190632
0.000187961
7.45418e-05
0.000239663
3.01925e-05
0.000252255
7.65005e-05
9.16461e-05
0.000250684
0.000228964
0.000247895
0.000229151
7.90982e-05
2.2285e-05
0.000230045
0.000229482
0.00025182
0.000360418
0.000530056
0.000151364
0.000229574
0.000145486
0.000250694
0.000229528
0.000229651
0.000229778
0.000229502
0.000235476
0.000159602