/*--------------------------------*- C++ -*----------------------------------*\
| =========                 |                                                 |
| \\      /  F ield         | OpenFOAM: The Open Source CFD Toolbox           |
|  \\    /   O peration     | Version:  3.0.1                                 |
|   \\  /    A nd           | Web:      www.OpenFOAM.org                      |
|    \\/     M anipulation  |                                                 |
\*---------------------------------------------------------------------------*/
FoamFile
{
    version     2.0;
    format      ascii;
    class       surfaceVectorField;
    location    "0.470646";
    object      Uf;
}
// * * * * * * * * * * * * * * * * * * * * * * * * * * * * * * * * * * * * * //

dimensions      [0 1 -1 0 0 0 0];

internalField   nonuniform List<vector> 
32369
(
(0.954274 4.79739 3.44707e-18)
(1.99926 6.09253 3.86538e-20)
(-0.743682 4.76626 -1.56878e-18)
(0.889541 3.907 -2.2029e-18)
(2.38328 3.68752 1.52471e-18)
(-0.265229 3.45975 -7.38038e-19)
(1.17121 3.10859 -8.61265e-19)
(2.114 3.62163 -7.78212e-19)
(0.369482 2.72986 -7.18329e-19)
(1.40075 2.45013 1.27668e-19)
(2.03512 2.85456 4.17191e-19)
(0.838476 2.18341 1.20959e-18)
(1.62362 1.96713 -3.97988e-19)
(1.99713 2.31299 -1.07754e-18)
(1.20802 1.80606 -1.0102e-18)
(1.818 1.62034 5.54058e-19)
(2.04237 1.88154 3.83872e-19)
(1.50231 1.52707 4.48719e-19)
(1.98752 1.36857 0)
(2.12852 1.5638 0)
(1.73531 1.31516 0)
(2.13847 1.1813 9.77174e-20)
(2.23484 1.3273 0)
(1.92511 1.1503 2.21507e-20)
(2.2772 1.04077 2.6218e-19)
(2.34985 1.14774 2.06098e-20)
(2.08708 1.02082 1.70209e-19)
(2.41237 0.934879 5.29106e-20)
(2.46991 1.0148 1.54757e-19)
(2.23083 0.919757 2.25417e-19)
(2.58618 0.930015 -1.25569e-19)
(2.35208 0.842919 -1.4173e-19)
(2.56176 0.856638 -4.02598e-20)
(2.88818 3.16585 3.42644e-18)
(2.48859 4.22799 -1.36463e-18)
(2.7784 3.45003 -3.35281e-19)
(3.6179 1.8745 2.76081e-18)
(2.65816 3.18864 7.97375e-20)
(3.42494 3.23867 3.7329e-21)
(2.43815 2.76806 -3.8136e-19)
(3.2002 2.70412 -5.84162e-19)
(2.33592 2.29535 -4.43803e-19)
(2.89897 2.42431 -6.90513e-19)
(2.31376 1.88354 -1.3827e-19)
(2.69718 2.0338 -1.19951e-19)
(2.35333 1.55928 0)
(2.59797 1.70595 1.34823e-19)
(2.4254 1.31975 -9.9917e-20)
(2.57875 1.4358 8.40866e-21)
(2.52013 1.14135 -1.25416e-19)
(2.62151 1.23167 -1.47029e-19)
(2.62606 1.0127 4.62285e-20)
(2.69625 1.07419 0)
(2.78613 0.972846 5.17608e-20)
(2.74247 0.924822 1.76529e-19)
(3.19928 1.68109 1.01162e-18)
(2.21888 2.58588 4.83499e-19)
(3.76117 2.09799 2.68646e-18)
(3.73437 0.419045 1.61258e-19)
(3.69276 2.30583 -1.60481e-20)
(3.92657 2.23515 1.51287e-18)
(3.39525 2.34198 -4.00395e-19)
(3.86153 1.85955 -9.55658e-19)
(3.11383 2.15361 1.40991e-19)
(3.58794 2.02722 3.83558e-19)
(2.89687 1.88454 1.1632e-19)
(3.29903 1.83433 1.79254e-19)
(2.78196 1.60768 6.5119e-20)
(3.07728 1.63342 2.10502e-19)
(2.74983 1.36634 9.00376e-21)
(2.94825 1.42042 -3.97025e-20)
(2.7745 1.18446 -3.99374e-20)
(2.89823 1.23088 -3.54109e-20)
(2.84418 1.04523 0)
(2.92138 1.0838 -7.01299e-20)
(2.97934 0.984672 -2.82398e-20)
(2.95277 0.951265 -7.26671e-20)
(2.79695 0.789329 1.29805e-20)
(1.66854 1.56005 1.0616e-18)
(3.84486 1.0158 -6.831e-19)
(3.32226 -0.294711 -4.62809e-19)
(4.03769 1.35335 5.51049e-19)
(3.8587 1.3282 -1.66316e-18)
(3.92417 1.59215 -3.18263e-19)
(4.02545 0.948518 2.10573e-21)
(3.67329 1.65178 4.1281e-19)
(3.91491 1.42045 1.48188e-19)
(3.39543 1.59908 2.51348e-20)
(3.67169 1.38391 -3.28325e-19)
(3.18994 1.46168 -1.35625e-19)
(3.43888 1.36098 -3.29966e-19)
(3.06636 1.29981 9.70679e-20)
(3.25995 1.25576 8.64241e-20)
(3.02397 1.14428 -6.15059e-20)
(3.15619 1.13871 0)
(3.04154 1.02476 -9.20867e-20)
(3.12157 1.02478 -2.42603e-19)
(3.14247 0.946098 -2.17257e-19)
(3.10445 0.938122 3.85724e-20)
(2.15543 0.319852 5.71726e-19)
(1.03368 0.956422 1.40776e-18)
(3.45693 0.358313 -1.27211e-18)
(2.76525 -0.549572 -4.33033e-19)
(3.90853 0.6361 -1.90803e-18)
(3.54718 0.70612 -1.88431e-18)
(4.02775 0.881584 4.16516e-19)
(3.88334 0.280306 2.19998e-18)
(3.90358 1.06544 -6.62753e-19)
(3.93738 0.850329 2.61716e-19)
(3.68179 1.16482 -7.83945e-19)
(3.79374 0.876378 -2.09088e-19)
(3.47658 1.16761 -1.5419e-19)
(3.62251 0.995324 -9.80879e-20)
(3.31972 1.11262 0)
(3.45592 0.993762 0)
(3.23161 1.03214 -1.52808e-19)
(3.33765 0.960383 1.15394e-19)
(3.20855 0.949216 -3.5843e-19)
(3.27908 0.90542 -4.44229e-21)
(3.27291 0.864997 -1.08696e-19)
(3.23677 0.881385 1.34731e-19)
(1.49004 0.0626782 4.69222e-19)
(0.364479 0.598859 1.39442e-18)
(2.91531 -0.0249604 -1.09114e-18)
(2.16842 -0.618675 -8.55823e-19)
(3.55645 0.163274 1.75079e-18)
(3.12933 0.288557 8.58881e-20)
(3.85976 0.351798 2.13702e-18)
(3.59522 -0.135684 1.07194e-18)
(3.87027 0.563985 7.38729e-19)
(3.78152 0.40867 -5.54179e-20)
(3.7515 0.72717 4.5239e-19)
(3.73735 0.438761 3.78451e-19)
(3.60267 0.821213 4.37896e-20)
(3.64724 0.637805 3.23534e-19)
(3.46382 0.85795 1.0182e-19)
(3.52502 0.702355 0)
(3.37023 0.851564 3.14442e-19)
(3.42746 0.741275 -6.39253e-20)
(3.32835 0.824656 3.99126e-19)
(3.36945 0.743253 2.00679e-19)
(3.35289 0.744622 2.90685e-19)
(3.33143 0.796239 -4.51776e-19)
(0.845673 -0.0439204 1.79e-19)
(-0.29896 0.43041 1.87624e-18)
(2.34894 -0.233151 2.19617e-19)
(1.56341 -0.585798 -2.81616e-18)
(3.13239 -0.135011 -4.40418e-19)
(2.65905 0.0151281 1.08147e-18)
(3.56537 -0.00741767 -8.53883e-19)
(3.24441 -0.377007 -4.91509e-19)
(3.68664 0.189183 -3.84213e-19)
(3.53704 0.0907035 -9.71188e-19)
(3.66883 0.362486 2.5241e-19)
(3.57693 0.108906 3.3394e-19)
(3.59044 0.500553 3.13894e-19)
(3.56131 0.336392 2.23364e-19)
(3.49676 0.593623 -1.69854e-19)
(3.49244 0.432346 -1.92227e-19)
(3.42537 0.644851 -2.36121e-19)
(3.4314 0.520523 -1.90441e-19)
(3.38896 0.666791 9.46713e-20)
(3.39279 0.566521 -2.67223e-20)
(3.38752 0.604812 1.4151e-19)
(3.39125 0.670694 5.00802e-19)
(0.240103 -0.0229935 -6.1811e-19)
(-0.892956 0.414467 3.52906e-19)
(1.80043 -0.308356 -2.46013e-18)
(0.996584 -0.475612 -3.05377e-18)
(2.6981 -0.304316 1.19378e-18)
(2.18206 -0.138998 1.08425e-18)
(3.2299 -0.23497 -5.58641e-19)
(2.87435 -0.499473 6.51245e-19)
(3.43776 -0.070374 -2.85834e-19)
(3.25245 -0.127223 -1.59261e-18)
(3.50029 0.0884439 3.49052e-19)
(3.36515 -0.119456 7.61544e-19)
(3.48598 0.237716 -2.26143e-19)
(3.41093 0.102074 -4.83575e-19)
(3.44267 0.356994 -2.12875e-19)
(3.39078 0.207545 1.59946e-19)
(3.40499 0.444418 0)
(3.36825 0.322181 -1.93505e-19)
(3.38863 0.504797 0)
(3.35506 0.396333 1.45104e-19)
(3.36518 0.460883 -7.19244e-20)
(3.40444 0.547455 0)
(-0.313908 0.0682863 -1.72072e-18)
(-1.41215 0.494053 -1.61413e-18)
(1.28094 -0.29274 -3.70446e-20)
(0.457822 -0.319899 -1.57916e-21)
(2.27208 -0.376708 5.85302e-19)
(1.71226 -0.20136 7.29473e-19)
(2.88811 -0.363908 -6.4082e-20)
(2.50329 -0.537347 -1.1348e-18)
(3.16854 -0.239793 -6.2102e-19)
(2.95535 -0.2673 7.4532e-19)
(3.2932 -0.104602 5.32226e-20)
(3.13333 -0.267253 -3.07038e-19)
(3.32985 0.0385358 -1.45823e-19)
(3.2277 -0.0700951 -4.60825e-19)
(3.33111 0.163481 2.17586e-19)
(3.24914 0.0333717 2.12323e-19)
(3.32718 0.267635 -8.38333e-20)
(3.26047 0.15641 -1.23577e-20)
(3.33475 0.350258 9.73045e-20)
(3.27245 0.245325 2.381e-19)
(3.30091 0.326128 -2.32727e-19)
(3.37818 0.413967 7.5465e-19)
(-0.837683 0.208162 -5.25409e-20)
(-1.92776 0.646373 1.0785e-18)
(0.768561 -0.214383 6.92878e-19)
(-0.0816867 -0.128411 -5.87603e-19)
(1.84471 -0.379328 -8.71518e-19)
(1.23597 -0.189095 1.95467e-18)
(2.54381 -0.421488 -5.60727e-19)
(2.12636 -0.514583 -2.82596e-18)
(2.89474 -0.34182 1.1308e-18)
(2.65386 -0.346668 1.72187e-18)
(3.07281 -0.233818 -8.07094e-19)
(2.89603 -0.354746 -1.33068e-18)
(3.15027 -0.10585 -1.23972e-19)
(3.03121 -0.191117 3.85973e-19)
(3.18708 0.0141102 7.02197e-21)
(3.08701 -0.0952263 2.50444e-19)
(3.21174 0.122399 2.79533e-19)
(3.1256 0.0248068 -5.36151e-21)
(3.24234 0.21468 -3.12366e-20)
(3.15978 0.119595 9.33474e-20)
(3.20841 0.205256 -3.12342e-19)
(3.3014 0.286582 -1.05499e-19)
(-1.35242 0.399916 7.23188e-19)
(-2.40942 0.865351 2.07044e-18)
(0.256648 -0.0805902 4.17496e-19)
(-0.608969 0.0970527 -9.78674e-19)
(1.41126 -0.323877 3.29065e-19)
(0.758555 -0.110503 9.51493e-19)
(2.19532 -0.423963 -1.14146e-18)
(1.74404 -0.445414 -8.19682e-19)
(2.62036 -0.392415 -5.41258e-19)
(2.35048 -0.375431 2.78441e-19)
(2.84991 -0.314127 -3.61382e-19)
(2.65863 -0.39758 -7.92976e-19)
(2.96285 -0.20629 7.68903e-19)
(2.83187 -0.271341 7.26576e-19)
(3.02748 -0.0971767 2.605e-19)
(2.91657 -0.186667 -2.84115e-19)
(3.07407 0.00795856 -2.06802e-19)
(2.97572 -0.0763246 1.40123e-19)
(3.12348 0.104296 -1.36928e-19)
(3.02571 0.0188669 -1.92208e-19)
(3.08307 0.103992 -2.46433e-19)
(3.20934 0.186914 -9.60119e-19)
(-1.83289 0.628564 6.55847e-19)
(-2.80201 1.10641 1.89574e-18)
(-0.233177 0.0968093 -6.13449e-19)
(-1.09373 0.332234 5.22435e-19)
(0.985202 -0.220025 -1.15043e-19)
(0.299464 0.0141471 -1.41274e-18)
(1.84963 -0.38182 4.8544e-19)
(1.36592 -0.344215 2.13585e-19)
(2.34921 -0.402334 1.35242e-19)
(2.04923 -0.365157 -4.69782e-22)
(2.62973 -0.357108 6.21524e-20)
(2.42347 -0.408889 -1.93589e-19)
(2.77548 -0.272581 -2.43178e-19)
(2.63435 -0.320963 6.44188e-19)
(2.86221 -0.177703 -4.5452e-19)
(2.7445 -0.249954 -6.6965e-19)
(2.92443 -0.080374 1.9185e-19)
(2.81902 -0.152684 3.25146e-19)
(2.98556 0.0126947 -3.13022e-19)
(2.88073 -0.0614999 1.98517e-19)
(2.9462 0.0195895 1.52105e-19)
(3.08133 0.0893151 2.12589e-19)
(-2.25607 0.860599 1.78049e-18)
(-3.13709 1.34971 1.54137e-18)
(-0.695064 0.2953 8.00427e-21)
(-1.55138 0.566549 2.17703e-19)
(0.566976 -0.085793 -1.24857e-18)
(-0.150522 0.168513 -1.72876e-18)
(1.50437 -0.309499 -2.48217e-19)
(0.982771 -0.222426 5.97357e-19)
(2.07811 -0.383785 -3.05423e-19)
(1.74189 -0.327877 -7.14603e-19)
(2.41114 -0.374176 2.66293e-19)
(2.18452 -0.399947 6.58141e-19)
(2.5897 -0.314527 3.2944e-19)
(2.43625 -0.349821 -4.11452e-19)
(2.69552 -0.23534 -2.60969e-21)
(2.57169 -0.293683 6.78553e-19)
(2.76922 -0.147944 3.49823e-19)
(2.65907 -0.210026 -5.02945e-19)
(2.83815 -0.0606015 6.44411e-19)
(2.72915 -0.124442 3.84239e-19)
(2.7999 -0.0483968 2.46857e-19)
(2.92845 0.0153982 1.95425e-19)
(-2.64031 1.094 -1.61894e-19)
(-3.44515 1.60053 1.19079e-18)
(-1.14652 0.507448 -1.2735e-18)
(-1.99421 0.805506 -6.72047e-19)
(0.139595 0.0698682 -1.00549e-19)
(-0.605555 0.351336 -9.48968e-19)
(1.1432 -0.215813 2.66767e-19)
(0.578942 -0.0801081 7.31908e-20)
(1.79349 -0.345773 1.34818e-19)
(1.41376 -0.266383 3.5378e-19)
(2.18468 -0.374313 1.06633e-19)
(1.92929 -0.374954 9.2765e-19)
(2.40048 -0.340323 -1.56721e-19)
(2.22881 -0.363193 -9.39572e-19)
(2.52633 -0.276819 3.1402e-19)
(2.39346 -0.323456 3.74336e-19)
(2.61007 -0.199085 -5.52482e-19)
(2.4945 -0.25274 -6.89449e-19)
(2.68411 -0.116503 0)
(2.57069 -0.172696 -1.01579e-19)
(2.6398 -0.0988015 -1.57675e-19)
(2.78425 -0.041787 0)
(-2.98972 1.32604 7.36672e-19)
(-3.69067 1.82448 6.93865e-20)
(-1.57822 0.726563 -3.23493e-19)
(-2.39402 1.03048 9.26965e-19)
(-0.291342 0.243572 -8.69495e-19)
(-1.05123 0.548718 -1.91751e-19)
(0.765432 -0.102329 1.10071e-19)
(0.159485 0.0776103 -7.61964e-19)
(1.48924 -0.290118 1.09674e-18)
(1.06118 -0.183283 4.4374e-19)
(1.94216 -0.360319 1.08872e-19)
(1.64922 -0.334826 5.36453e-19)
(2.2007 -0.353676 -5.43664e-19)
(2.00255 -0.362611 -3.4084e-20)
(2.35039 -0.30605 -5.12038e-19)
(2.20237 -0.341512 -3.0961e-19)
(2.44538 -0.237516 -2.95566e-19)
(2.32145 -0.283302 -1.91176e-19)
(2.52237 -0.16091 -2.53962e-19)
(2.40593 -0.209588 -5.92718e-20)
(2.47821 -0.13929 -2.69244e-19)
(2.61113 -0.0914081 -1.24634e-19)
(-3.28385 1.53476 5.49256e-19)
(-3.87305 2.01741 -5.98682e-19)
(-1.98305 0.941435 1.17642e-18)
(-2.75208 1.24391 8.11916e-20)
(-0.727493 0.430269 -1.91056e-20)
(-1.49246 0.75863 1.28257e-18)
(0.36392 0.0301891 -5.74618e-19)
(-0.283568 0.253483 -4.77479e-19)
(1.15479 -0.215775 -1.33841e-19)
(0.672511 -0.0760141 -5.10093e-19)
(1.67182 -0.331208 4.74699e-19)
(1.33112 -0.27626 2.69759e-19)
(1.9796 -0.35459 2.19076e-19)
(1.74422 -0.345968 1.98367e-19)
(2.15992 -0.323967 0)
(1.9875 -0.346642 -1.97599e-19)
(2.27122 -0.26458 3.77471e-20)
(2.13276 -0.301346 2.64629e-19)
(2.35452 -0.193068 -4.60468e-20)
(2.23088 -0.234323 4.6682e-20)
(2.3082 -0.164146 3.14433e-20)
(2.44213 -0.122842 2.70036e-19)
(-3.52604 1.72746 -7.59411e-19)
(-4.00718 2.1919 0)
(-2.36569 1.15869 -1.18891e-19)
(-3.06941 1.4526 -7.40227e-19)
(-1.17747 0.635461 1.0041e-18)
(-1.92917 0.985467 1.25994e-18)
(-0.074396 0.188557 -3.95577e-19)
(-0.756989 0.457926 -2.29698e-19)
(0.774678 -0.116263 -1.74701e-19)
(0.235918 0.0651514 1.48151e-19)
(1.35747 -0.281313 0)
(0.960107 -0.189505 9.93044e-20)
(1.72235 -0.338712 -1.76909e-19)
(1.43779 -0.305153 -1.29191e-19)
(1.94353 -0.327579 1.68906e-20)
(1.73449 -0.332322 7.62426e-20)
(2.08052 -0.278409 3.03294e-19)
(1.91783 -0.302449 3.6505e-19)
(2.17653 -0.212637 1.1864e-19)
(2.03951 -0.244476 3.85379e-21)
(2.12967 -0.178765 2.01553e-19)
(2.26585 -0.149571 8.75774e-20)
(-3.71964 1.90199 9.01337e-20)
(-4.09204 2.33761 -5.28687e-19)
(-2.71565 1.37486 2.52116e-19)
(-3.33274 1.64742 -9.68443e-21)
(-1.6311 0.860612 1.74006e-19)
(-2.34311 1.22103 2.98857e-19)
(-0.548184 0.379372 2.77465e-19)
(-1.25099 0.690581 0)
(0.341836 0.0176337 4.31332e-19)
(-0.251108 0.245658 -1.14282e-19)
(0.986619 -0.200536 -5.58332e-21)
(0.525033 -0.0639308 2.0615e-19)
(1.41431 -0.296504 1.08111e-19)
(1.06747 -0.22777 1.04223e-19)
(1.68798 -0.309134 4.00897e-19)
(1.42714 -0.286612 2.01812e-19)
(1.86353 -0.273918 1.0964e-19)
(1.6632 -0.277595 -7.23773e-20)
(1.98352 -0.217233 6.43847e-20)
(1.82309 -0.233892 -3.90077e-20)
(1.93866 -0.178132 5.51474e-21)
(2.0778 -0.158069 -7.0718e-20)
(-3.85798 2.05016 -6.73361e-19)
(-4.13387 2.45292 -5.88654e-19)
(-3.02142 1.58558 9.90456e-21)
(-3.54388 1.83245 6.95615e-19)
(-2.07598 1.10348 1.55808e-19)
(-2.72173 1.45937 -6.8603e-19)
(-1.05577 0.606695 -3.82056e-19)
(-1.75639 0.949291 -4.77824e-20)
(-0.152746 0.196342 -3.72353e-19)
(-0.793512 0.472852 -4.25519e-19)
(0.543467 -0.0745816 3.28137e-19)
(0.0108894 0.116201 -1.26812e-19)
(1.0375 -0.212341 1.92829e-19)
(0.613398 -0.0935669 1.87679e-19)
(1.37639 -0.254892 -2.42836e-19)
(1.04538 -0.189801 4.34011e-20)
(1.60654 -0.240943 -2.23405e-19)
(1.35048 -0.211253 -7.06447e-20)
(1.76593 -0.199494 -1.0836e-19)
(1.56585 -0.191493 7.18794e-21)
(1.72208 -0.15012 -7.3406e-20)
(1.88799 -0.151598 -5.49049e-20)
(-3.96126 2.19117 6.26915e-19)
(-4.14684 2.55072 5.49092e-19)
(-3.28241 1.79187 3.92028e-19)
(-3.71183 2.00292 7.83818e-19)
(-2.50066 1.35757 -9.47872e-19)
(-3.05963 1.68486 -1.44134e-19)
(-1.5937 0.869584 -5.25964e-20)
(-2.26398 1.22266 -5.40041e-20)
(-0.719915 0.431183 -2.04274e-19)
(-1.39464 0.754781 -2.45355e-19)
(0.0101075 0.118366 -2.66314e-19)
(-0.597856 0.377937 -3.14793e-19)
(0.571304 -0.0617808 5.84233e-20)
(0.0555718 0.129505 5.54543e-20)
(0.987736 -0.143069 2.21179e-19)
(0.566824 -0.0115766 9.66255e-20)
(1.28929 -0.162811 1.36224e-19)
(0.955423 -0.0789782 4.35509e-20)
(1.50469 -0.147526 4.4514e-20)
(1.24249 -0.0994265 2.64963e-20)
(1.45554 -0.0868027 6.81844e-21)
(1.6659 -0.121743 8.80393e-20)
(-4.0319 2.32495 6.80636e-19)
(-4.1245 2.64714 -5.3843e-20)
(-3.50574 1.98142 5.94376e-19)
(-3.8364 2.12912 8.32088e-19)
(-2.90455 1.60584 7.39184e-19)
(-3.37334 1.87165 -3.06632e-20)
(-2.16029 1.16349 -2.4849e-19)
(-2.77027 1.50009 5.50643e-22)
(-1.36672 0.740876 -3.5396e-19)
(-2.04596 1.10956 -2.62374e-19)
(-0.629345 0.412016 -4.34332e-21)
(-1.29927 0.760356 -6.8086e-20)
(-0.00441084 0.192479 1.09093e-19)
(-0.614101 0.487359 1.11445e-19)
(0.49744 0.0592177 -2.38989e-20)
(-0.0267641 0.290368 -4.12557e-20)
(0.882679 -0.0142344 -1.85292e-20)
(0.450577 0.155044 -4.47651e-20)
(1.16917 -0.0448295 -9.18675e-21)
(0.819595 0.0727236 -7.67224e-21)
(1.11314 0.038164 -9.72751e-21)
(1.37919 -0.0406327 4.45213e-20)
(-4.02883 2.32594 1.83451e-20)
(-4.22338 2.58206 -6.21445e-19)
(-3.70351 2.07357 5.03179e-19)
(-3.97282 2.18065 7.89155e-19)
(-3.30166 1.80228 -7.46522e-19)
(-3.65841 2.03449 -6.64237e-19)
(-2.74334 1.47656 -1.77338e-20)
(-3.21628 1.81891 0)
(-2.06966 1.1466 -5.25113e-21)
(-2.65778 1.57762 -2.31909e-20)
(-1.35874 0.847375 2.11891e-20)
(-2.01161 1.30429 1.33109e-20)
(-0.692441 0.595904 -3.59876e-21)
(-1.34802 1.02041 0)
(-0.119265 0.396735 -1.19551e-20)
(-0.728608 0.758408 1.19026e-20)
(0.352229 0.252924 2.30924e-20)
(-0.192641 0.546835 -8.35101e-21)
(0.721265 0.163606 5.55301e-21)
(0.23756 0.38444 1.01544e-20)
(0.63002 0.300779 -2.43096e-20)
(1.0327 0.0934075 -1.17851e-20)
(-4.26356 2.57785 1.40544e-20)
(-3.22431 2.2286 -1.36166e-18)
(-3.94039 2.3149 3.56288e-20)
(-3.24351 2.04837 1.05497e-18)
(-3.63974 2.15712 2.26314e-20)
(-3.04814 2.09433 -1.8651e-19)
(-3.2141 1.97569 -1.02012e-20)
(-2.84412 2.07475 1.44788e-19)
(-2.67737 1.75888 -1.51943e-20)
(-2.57636 2.00276 -1.1218e-20)
(-2.05955 1.49 -2.97149e-21)
(-2.2241 1.85352 1.40539e-19)
(-1.43007 1.19421 8.56867e-21)
(-1.79061 1.62499 -1.96621e-20)
(-0.849318 0.912546 1.08352e-20)
(-1.30893 1.35468 -5.03819e-20)
(-0.342668 0.675533 3.63438e-21)
(-0.836099 1.10051 -2.60602e-20)
(0.0795952 0.495865 -3.92054e-21)
(-0.424114 0.874596 4.08592e-21)
(0.0219428 0.665381 2.25482e-19)
(0.387719 0.4298 -5.66817e-20)
(-2.47746 1.40352 4.13328e-19)
(-0.227429 1.36369 -1.87931e-18)
(-2.45609 1.62863 9.37458e-19)
(-0.351366 1.51091 5.97129e-19)
(-2.37339 1.77207 -3.31383e-19)
(-0.332091 1.47414 -2.18215e-19)
(-2.29918 1.89731 1.57162e-19)
(-0.36849 1.41851 1.82842e-19)
(-2.18368 1.96457 2.25883e-20)
(-0.378852 1.3805 1.89225e-20)
(-1.98828 1.93978 -7.09622e-20)
(-0.342289 1.34135 -4.1117e-20)
(-1.69602 1.81076 -3.20506e-20)
(-0.250686 1.28735 -1.35542e-21)
(-1.32826 1.61087 -3.59186e-20)
(-0.118751 1.21137 -1.15063e-20)
(-0.937565 1.38132 -2.88914e-20)
(0.0197338 1.11291 -2.22002e-19)
(-0.564589 1.13239 4.02749e-20)
(0.140445 0.998365 -9.32868e-20)
(0.294844 0.835443 3.02378e-19)
(-0.230933 0.984844 2.75534e-19)
(-2.63352 2.18739 -3.47393e-18)
(-2.10065 -0.537952 -9.32161e-18)
(-1.09185 1.94202 -2.54004e-19)
(-1.3521 0.34703 5.55091e-18)
(-0.0424476 1.75525 1.3781e-18)
(-0.606118 0.916076 8.17579e-19)
(0.633288 1.58647 1.98012e-19)
(0.0796307 1.18815 -2.19573e-18)
(1.08999 1.4166 -3.05829e-19)
(0.641371 1.22449 1.4303e-18)
(1.42093 1.25941 -4.09084e-20)
(1.07259 1.15284 7.33568e-20)
(1.67074 1.12337 1.94016e-20)
(1.39897 1.06014 4.11343e-19)
(1.86706 1.00931 6.76743e-20)
(1.6498 0.96855 -3.4736e-19)
(2.02851 0.91598 1.2832e-19)
(1.84859 0.886649 5.88983e-20)
(2.16857 0.840866 7.16243e-20)
(2.01022 0.817489 3.75801e-20)
(2.13809 0.763461 -3.55901e-20)
(2.29442 0.782395 9.45875e-20)
(-1.25845 -1.37022 -3.84472e-18)
(-1.14685 -2.65239 -6.22015e-18)
(-1.07149 -0.492311 6.05099e-18)
(-0.536532 -1.36836 8.95361e-18)
(-0.578927 0.274523 -2.13515e-18)
(-0.541582 -0.74757 -3.11898e-18)
(0.0375772 0.706935 -1.11148e-18)
(-0.156082 -0.0597931 -2.1122e-18)
(0.6096 0.888873 1.75942e-18)
(0.275433 0.377143 1.43648e-18)
(1.04959 0.920546 4.524e-19)
(0.710474 0.628539 2.61398e-20)
(1.37623 0.889762 1.37631e-19)
(1.08276 0.724421 3.74914e-19)
(1.6243 0.836718 -4.40002e-19)
(1.38357 0.73763 -5.64666e-20)
(1.81874 0.781267 -5.34111e-20)
(1.62107 0.717118 -1.85899e-19)
(1.97733 0.730593 -9.10806e-20)
(1.8058 0.685808 -1.45656e-20)
(1.9423 0.649307 -2.37956e-21)
(2.11712 0.679746 -2.31211e-20)
(-0.145967 -1.94102 3.2216e-18)
(-0.223342 -2.89802 -7.73683e-20)
(-0.299857 -1.58974 -5.49901e-20)
(0.504799 -1.71209 3.6239e-18)
(-0.246613 -1.01407 -3.1369e-18)
(0.0763949 -1.60311 -2.77291e-18)
(-0.0310864 -0.426385 1.53843e-19)
(0.15412 -0.967723 1.63028e-18)
(0.31432 0.0544884 -9.00651e-20)
(0.288123 -0.447082 -2.19131e-18)
(0.706785 0.371344 -1.13068e-19)
(0.559956 -0.0266496 6.97905e-19)
(1.07072 0.536054 2.8535e-19)
(0.865589 0.247848 0)
(1.36763 0.602281 2.22607e-19)
(1.14806 0.40474 1.24301e-19)
(1.59793 0.618096 -1.64746e-19)
(1.39081 0.482396 -1.81416e-19)
(1.77555 0.611461 7.10361e-20)
(1.58542 0.514472 8.11536e-21)
(1.72672 0.523663 2.37188e-20)
(1.9101 0.587183 -7.30611e-19)
(0.767031 -1.97823 0)
(0.541934 -2.65412 6.34543e-20)
(0.632822 -1.83792 6.02052e-20)
(1.36992 -1.6339 0)
(0.452903 -1.46327 1.3823e-18)
(0.788068 -1.86199 6.72408e-20)
(0.376024 -1.01722 -5.79271e-19)
(0.727334 -1.34703 2.29125e-18)
(0.464498 -0.560485 -1.60116e-18)
(0.640896 -0.954715 -2.77661e-18)
(0.658227 -0.182245 8.75916e-19)
(0.711172 -0.517432 1.30982e-18)
(0.903855 0.0924108 -1.77849e-19)
(0.872478 -0.178549 -1.1016e-18)
(1.14867 0.26784 -2.23731e-19)
(1.06763 0.0641726 4.50069e-19)
(1.36495 0.369072 -3.86506e-20)
(1.26566 0.220547 5.33138e-19)
(1.54584 0.42389 -4.8789e-20)
(1.44065 0.312062 -2.3789e-19)
(1.572 0.359945 -1.88613e-19)
(1.69755 0.445035 -3.44582e-19)
(1.39286 -1.83565 6.98956e-20)
(1.09139 -2.31884 -3.83379e-20)
(1.35829 -1.80464 0)
(1.92986 -1.44104 0)
(1.11533 -1.58143 7.37209e-19)
(1.36425 -1.8135 0)
(0.921763 -1.275 1.34731e-19)
(1.27773 -1.40163 4.91443e-19)
(0.840287 -0.910754 -2.28836e-19)
(1.08694 -1.16409 -3.83485e-19)
(0.870613 -0.547568 -5.11942e-19)
(1.03324 -0.804691 4.09123e-19)
(0.990721 -0.241715 -4.87994e-19)
(1.06324 -0.484833 -1.39338e-18)
(1.15229 -0.0105925 1.19273e-18)
(1.15994 -0.215453 6.77723e-19)
(1.32027 0.148012 3.89411e-19)
(1.28756 -0.0150822 4.60973e-19)
(1.47114 0.24986 -3.81642e-19)
(1.41627 0.122748 -1.92599e-19)
(1.51757 0.208213 -1.86717e-19)
(1.59576 0.312962 2.82871e-19)
(1.78489 -1.61757 -6.3425e-20)
(1.45507 -1.97054 -5.7782e-20)
(1.84157 -1.64385 0)
(2.26391 -1.24506 4.23903e-19)
(1.61363 -1.51122 -2.99481e-19)
(1.7725 -1.65563 -2.49548e-19)
(1.40222 -1.31352 4.72147e-20)
(1.69864 -1.29908 -2.85313e-19)
(1.25542 -1.04754 1.66954e-19)
(1.47991 -1.19637 2.25173e-19)
(1.17634 -0.755578 -3.92165e-19)
(1.36747 -0.906878 -1.63377e-19)
(1.18739 -0.475824 -1.69891e-19)
(1.30855 -0.652863 -1.80636e-19)
(1.25651 -0.236445 1.34594e-19)
(1.32037 -0.402208 -4.09682e-19)
(1.35571 -0.0509062 -4.95751e-21)
(1.37391 -0.194859 1.63171e-19)
(1.45867 0.0840654 0)
(1.44633 -0.0355377 2.07402e-19)
(1.50766 0.0726588 -1.40527e-19)
(1.5474 0.18336 0)
(2.02036 -1.37909 3.8222e-19)
(1.68275 -1.63167 1.46363e-18)
(2.14518 -1.44006 6.21209e-19)
(2.45441 -1.06933 -2.11229e-19)
(1.95015 -1.3588 -2.41262e-19)
(2.05085 -1.47285 -4.30442e-19)
(1.75737 -1.23427 2.39119e-19)
(1.98939 -1.13656 -1.83436e-19)
(1.59789 -1.05421 -1.13804e-19)
(1.77292 -1.13546 2.33478e-19)
(1.47107 -0.830091 1.54061e-19)
(1.65459 -0.899065 -6.28147e-20)
(1.41161 -0.598683 -2.40142e-19)
(1.54361 -0.712908 2.12702e-19)
(1.4056 -0.38115 -2.45623e-19)
(1.49686 -0.499985 -4.39914e-19)
(1.43829 -0.195805 3.69636e-19)
(1.48934 -0.310531 1.67187e-19)
(1.48928 -0.0478982 1.35364e-19)
(1.50897 -0.152432 2.06533e-19)
(1.53016 -0.0386582 1.2351e-19)
(1.53695 0.07354 -2.0209e-19)
(2.16265 -1.17132 6.66617e-19)
(1.85114 -1.34949 6.90005e-19)
(2.33472 -1.24544 -8.53924e-19)
(2.5693 -0.926903 -8.54638e-19)
(2.17244 -1.1939 -3.99236e-19)
(2.2357 -1.29784 5.62755e-19)
(2.01184 -1.09283 -1.26694e-19)
(2.20906 -0.982723 -2.25332e-19)
(1.85613 -0.975944 1.47043e-19)
(1.97609 -1.029 2.01018e-19)
(1.71511 -0.814181 -1.65636e-21)
(1.87215 -0.829522 1.44503e-19)
(1.61687 -0.634294 0)
(1.73945 -0.700715 0)
(1.5599 -0.452444 0)
(1.65819 -0.52834 0)
(1.53969 -0.28642 0)
(1.60683 -0.367983 4.57994e-21)
(1.5444 -0.145355 1.89283e-19)
(1.58394 -0.2254 3.30407e-20)
(1.56993 -0.117515 2.71171e-19)
(1.55329 -0.0242771 -7.3884e-20)
(2.26453 -0.997744 -1.08454e-18)
(1.96939 -1.10621 -1.54065e-18)
(2.46388 -1.06466 2.60041e-19)
(2.67548 -0.806692 1.32173e-19)
(2.31731 -1.0452 8.12898e-19)
(2.33804 -1.11562 4.98235e-19)
(2.18391 -0.966053 -4.6555e-20)
(2.36623 -0.838435 0)
(2.03526 -0.873628 2.04963e-19)
(2.13284 -0.910392 6.17399e-20)
(1.89944 -0.751514 1.62139e-19)
(2.03444 -0.738432 -1.95393e-19)
(1.78417 -0.613154 0)
(1.89246 -0.648562 2.10052e-19)
(1.69687 -0.467402 4.07859e-21)
(1.79204 -0.510055 -9.8407e-20)
(1.63927 -0.327785 3.44493e-20)
(1.71164 -0.380224 -5.68937e-20)
(1.60596 -0.204218 8.82323e-20)
(1.65696 -0.258425 -3.05445e-20)
(1.61534 -0.163779 5.79894e-20)
(1.57563 -0.0897857 -2.47079e-19)
(2.34553 -0.843333 -3.69414e-19)
(2.0353 -0.909434 -7.40669e-19)
(2.55786 -0.915833 2.04402e-19)
(2.76185 -0.669864 8.65606e-19)
(2.42597 -0.882571 -2.06838e-19)
(2.43906 -0.960035 -8.09265e-19)
(2.31333 -0.829807 1.1585e-19)
(2.46489 -0.700849 3.50336e-19)
(2.16664 -0.759055 -2.75125e-19)
(2.24758 -0.780533 -2.49633e-19)
(2.03575 -0.666088 -2.45204e-19)
(2.15385 -0.634701 -3.44058e-19)
(1.91271 -0.559137 1.45308e-19)
(2.00839 -0.573973 -1.03837e-19)
(1.80823 -0.444235 -1.49609e-19)
(1.89724 -0.462335 1.59413e-19)
(1.72596 -0.331191 -7.91873e-20)
(1.79793 -0.360251 -9.18751e-21)
(1.66564 -0.228454 -3.61952e-20)
(1.72077 -0.260432 -6.53575e-20)
(1.65853 -0.181506 -4.82356e-20)
(1.60543 -0.128978 0)
(2.40212 -0.667425 4.75039e-19)
(2.05015 -0.746085 -4.33968e-20)
(2.6336 -0.759788 1.69526e-19)
(2.79817 -0.52057 -6.26127e-20)
(2.50406 -0.736457 -3.71293e-19)
(2.50658 -0.800891 -4.25774e-19)
(2.4044 -0.694661 1.99817e-19)
(2.53591 -0.569208 4.87152e-19)
(2.26264 -0.639249 -4.20139e-19)
(2.32871 -0.651184 -3.81286e-19)
(2.13584 -0.568348 -2.7496e-19)
(2.2394 -0.524126 0)
(2.0086 -0.485931 -8.72241e-20)
(2.09317 -0.486498 -3.08241e-19)
(1.89413 -0.396416 3.18269e-19)
(1.97636 -0.39618 3.97743e-19)
(1.79588 -0.307132 1.5463e-20)
(1.86489 -0.318363 -6.79222e-20)
(1.7163 -0.225112 -3.77184e-20)
(1.7721 -0.238944 3.17843e-20)
(1.69601 -0.172648 1.8825e-20)
(1.63387 -0.144089 -4.3529e-20)
(2.41921 -0.522541 -7.89893e-19)
(2.05481 -0.607104 -4.36482e-20)
(2.678 -0.614001 -4.72503e-19)
(2.8255 -0.384252 -1.13292e-18)
(2.55907 -0.594927 3.40874e-19)
(2.54968 -0.655979 6.30258e-19)
(2.46658 -0.563037 1.4582e-19)
(2.58256 -0.437686 -1.34484e-19)
(2.32967 -0.518962 0)
(2.38301 -0.525867 4.71769e-19)
(2.20677 -0.464438 0)
(2.2978 -0.41051 -4.08834e-19)
(2.07746 -0.401436 1.27516e-19)
(2.15152 -0.392251 8.16963e-20)
(1.95719 -0.332903 8.86645e-20)
(2.03213 -0.318625 1.43084e-19)
(1.84861 -0.264193 -5.85482e-20)
(1.91319 -0.262089 -1.08554e-19)
(1.75553 -0.200922 1.46884e-19)
(1.8097 -0.20137 7.65968e-21)
(1.72224 -0.149433 2.94274e-20)
(1.65034 -0.134593 9.55009e-20)
(2.42442 -0.382038 -4.85204e-19)
(2.05159 -0.469435 9.80302e-20)
(2.70289 -0.477844 -3.51463e-19)
(2.83519 -0.245627 -6.07256e-19)
(2.59328 -0.46082 2.32558e-19)
(2.57818 -0.518563 4.10523e-20)
(2.50671 -0.435275 6.00934e-20)
(2.60978 -0.310226 3.8454e-20)
(2.37301 -0.400211 6.71314e-20)
(2.41638 -0.403026 1.07245e-19)
(2.25368 -0.358315 -3.7973e-19)
(2.33374 -0.297561 2.46e-19)
(2.12327 -0.311094 9.06115e-20)
(2.18781 -0.29467 -1.19742e-19)
(1.99994 -0.260168 0)
(2.06724 -0.235166 -1.55216e-19)
(1.88488 -0.20967 -5.51071e-20)
(1.94392 -0.19713 -3.5512e-20)
(1.78337 -0.16276 -1.13454e-19)
(1.83435 -0.153703 7.97449e-20)
(1.73743 -0.118162 -1.42688e-20)
(1.67638 -0.117095 7.46028e-20)
(2.41066 -0.231994 4.64997e-20)
(2.00377 -0.323768 -7.51964e-19)
(2.70829 -0.339201 -4.24712e-19)
(2.81078 -0.107758 5.28326e-20)
(2.61061 -0.329067 -5.16215e-20)
(2.58931 -0.381083 7.37478e-21)
(2.5277 -0.310872 7.70402e-21)
(2.61671 -0.189568 3.92362e-20)
(2.39695 -0.283048 2.60232e-19)
(2.43352 -0.279914 -5.88515e-20)
(2.28001 -0.252141 5.91007e-19)
(2.34989 -0.188174 6.37608e-19)
(2.14917 -0.218105 -3.77547e-19)
(2.20574 -0.195085 -1.13377e-19)
(2.02438 -0.182577 -2.1741e-19)
(2.08406 -0.149861 -2.2103e-19)
(1.90561 -0.148626 7.59412e-20)
(1.95836 -0.127654 -5.05739e-20)
(1.79878 -0.117965 1.87856e-19)
(1.84534 -0.100153 6.35714e-20)
(1.74506 -0.0801792 4.34735e-20)
(1.68453 -0.0854599 -8.6452e-20)
(2.37063 -0.095047 -5.73027e-19)
(1.96034 -0.186861 -8.39753e-19)
(2.6929 -0.207124 3.31964e-19)
(2.76992 0.0191452 1.18303e-19)
(2.61112 -0.201618 1.96247e-19)
(2.58683 -0.246483 4.21033e-19)
(2.53141 -0.190013 -8.05759e-20)
(2.606 -0.0758677 -2.6698e-19)
(2.40402 -0.167905 3.26684e-19)
(2.43591 -0.157026 4.8803e-19)
(2.28806 -0.147103 5.69707e-20)
(2.34801 -0.0828293 -2.17072e-20)
(2.15732 -0.124598 3.58179e-20)
(2.20699 -0.0949625 -6.73511e-21)
(2.03188 -0.103297 -8.3521e-20)
(2.08403 -0.0651681 -7.44276e-20)
(1.91148 -0.0845355 -8.51889e-20)
(1.95776 -0.0569239 7.00309e-22)
(1.80269 -0.0689989 -8.99162e-20)
(1.84362 -0.0450862 -5.91302e-20)
(1.74178 -0.040403 1.45281e-22)
(1.69528 -0.0552548 -3.01427e-19)
(2.31884 0.0365744 0)
(1.90993 -0.0506126 7.77743e-19)
(2.66119 -0.0801343 2.29689e-20)
(2.71154 0.143041 -5.1947e-19)
(2.59677 -0.0786065 2.81659e-20)
(2.57173 -0.111322 6.04339e-20)
(2.52002 -0.0726725 1.60876e-19)
(2.58052 0.0333019 5.48613e-19)
(2.39589 -0.0554589 1.59687e-19)
(2.42448 -0.0352379 -2.05856e-20)
(2.27983 -0.0440736 -6.94825e-20)
(2.32997 0.0190779 -6.41504e-20)
(2.14954 -0.0324541 -1.10183e-19)
(2.19253 0.0037103 -9.02493e-20)
(2.02404 -0.0249455 6.12896e-22)
(2.06834 0.0171534 1.3628e-20)
(1.90358 -0.0209265 3.16565e-20)
(1.94301 0.0121391 -9.47906e-21)
(1.79491 -0.0205167 1.09876e-20)
(1.8296 0.00834706 6.41099e-20)
(1.72873 -0.00377479 -3.41105e-20)
(1.69419 -0.0229244 -3.51413e-19)
(2.25444 0.171764 3.86135e-19)
(1.83846 0.0855453 7.67776e-19)
(2.61296 0.0488143 -6.99045e-19)
(2.6282 0.267702 -1.02929e-18)
(2.56789 0.0438201 6.26069e-19)
(2.53868 0.0265938 4.38152e-19)
(2.49436 0.0430876 4.76567e-19)
(2.53914 0.140896 4.19252e-19)
(2.37317 0.05451 -2.72411e-19)
(2.39801 0.0850968 -2.83364e-19)
(2.25618 0.0564512 -6.42502e-20)
(2.29635 0.11829 1.09447e-19)
(2.12665 0.0567038 2.16852e-20)
(2.16252 0.0990181 0)
(2.00184 0.0502906 5.15129e-21)
(2.03787 0.0954303 2.43321e-20)
(1.8829 0.0395017 1.21121e-20)
(1.91505 0.0768694 -2.45587e-20)
(1.77589 0.0248738 2.92803e-20)
(1.80423 0.0577083 1.51544e-20)
(1.70508 0.0283596 1.31294e-20)
(1.68118 0.00537786 -1.04071e-20)
(2.1701 0.306451 -4.60326e-19)
(1.75337 0.220493 0)
(2.54326 0.179628 -3.6663e-19)
(2.52061 0.393242 -1.25117e-19)
(2.52116 0.166953 3.3075e-19)
(2.48374 0.167375 1.99186e-19)
(2.45267 0.158568 -2.1359e-19)
(2.47939 0.249058 9.42979e-21)
(2.33486 0.162181 5.55227e-20)
(2.35357 0.203301 2.36399e-19)
(2.21683 0.153732 1.84393e-19)
(2.24608 0.214793 -5.81954e-21)
(2.08885 0.14116 0)
(2.1163 0.188777 1.05525e-19)
(1.96605 0.120249 0)
(1.9932 0.167632 5.29545e-21)