/*--------------------------------*- C++ -*----------------------------------*\
| =========                 |                                                 |
| \\      /  F ield         | OpenFOAM: The Open Source CFD Toolbox           |
|  \\    /   O peration     | Version:  3.0.1                                 |
|   \\  /    A nd           | Web:      www.OpenFOAM.org                      |
|    \\/     M anipulation  |                                                 |
\*---------------------------------------------------------------------------*/
FoamFile
{
    version     2.0;
    format      ascii;
    class       surfaceScalarField;
    location    "0.292519";
    object      phi;
}
// * * * * * * * * * * * * * * * * * * * * * * * * * * * * * * * * * * * * * //

dimensions      [0 3 -1 0 0 0 0];

internalField   nonuniform List<scalar> 
32369
(
-6.0506e-07
2.20994e-06
-1.60488e-06
-1.12005e-06
1.99913e-06
-1.48415e-06
-1.93421e-06
2.11379e-06
-1.29963e-06
-3.02659e-06
2.13718e-06
-1.04479e-06
-4.40458e-06
2.1748e-06
-7.96809e-07
-6.06535e-06
2.33703e-06
-6.7626e-07
-8.04479e-06
2.77466e-06
-7.95218e-07
-1.04124e-05
3.6678e-06
-1.30024e-06
-1.32471e-05
5.26766e-06
-2.43288e-06
-1.66512e-05
7.93546e-06
-4.53139e-06
1.21713e-05
-8.03682e-06
-2.07857e-05
-2.3429e-07
2.44423e-06
-5.49264e-07
2.3141e-06
-1.18658e-06
2.7511e-06
-2.11876e-06
3.06936e-06
-3.35383e-06
3.40988e-06
-4.8951e-06
3.87829e-06
-6.76537e-06
4.64493e-06
-9.02747e-06
5.9299e-06
-1.17836e-05
8.02378e-06
-1.51627e-05
1.13146e-05
1.63321e-05
-1.93235e-05
-1.13611e-07
2.55784e-06
-3.86929e-07
2.58742e-06
-8.69557e-07
3.23373e-06
-1.58482e-06
3.78462e-06
-2.58766e-06
4.41272e-06
-3.91446e-06
5.20508e-06
-5.59549e-06
6.32597e-06
-7.67845e-06
8.01286e-06
-1.02375e-05
1.05828e-05
-1.33773e-05
1.44544e-05
2.02166e-05
-1.72618e-05
-1.20722e-07
2.67856e-06
-3.99996e-07
2.8667e-06
-7.99501e-07
3.63323e-06
-1.36247e-06
4.34759e-06
-2.15939e-06
5.20964e-06
-3.25108e-06
6.29678e-06
-4.68686e-06
7.76175e-06
-6.51494e-06
9.84094e-06
-8.79109e-06
1.2859e-05
-1.15945e-05
1.72578e-05
2.36345e-05
-1.50124e-05
-1.38765e-07
2.81733e-06
-4.09805e-07
3.13774e-06
-7.65225e-07
3.98865e-06
-1.23603e-06
4.81839e-06
-1.8887e-06
5.86232e-06
-2.78712e-06
7.1952e-06
-3.9941e-06
8.96873e-06
-5.56319e-06
1.141e-05
-7.54766e-06
1.48435e-05
-1.00001e-05
1.97103e-05
2.66386e-05
-1.30042e-05
-1.13881e-07
2.93121e-06
-3.50975e-07
3.37483e-06
-6.71617e-07
4.30929e-06
-1.07975e-06
5.22652e-06
-1.63617e-06
6.41873e-06
-2.39776e-06
7.95679e-06
-3.42616e-06
9.99714e-06
-4.7806e-06
1.27645e-05
-6.5164e-06
1.65793e-05
-8.6866e-06
2.18805e-05
2.93189e-05
-1.1367e-05
-5.89355e-08
2.99014e-06
-3.05236e-07
3.62113e-06
-5.80482e-07
4.58454e-06
-9.36063e-07
5.5821e-06
-1.42205e-06
6.90471e-06
-2.08508e-06
8.61982e-06
-2.98097e-06
1.0893e-05
-4.16976e-06
1.39532e-05
-5.7108e-06
1.81203e-05
-7.65929e-06
2.3829e-05
3.17302e-05
-1.00706e-05
-1.22191e-07
3.11233e-06
-3.35665e-07
3.83461e-06
-5.43009e-07
4.79188e-06
-8.59224e-07
5.89832e-06
-1.29286e-06
7.33835e-06
-1.88072e-06
9.20768e-06
-2.67454e-06
1.16868e-05
-3.73092e-06
1.50096e-05
-5.10959e-06
1.9499e-05
-6.85887e-06
2.55783e-05
3.39047e-05
-9.0333e-06
-1.13921e-07
3.22626e-06
-2.81286e-07
4.00197e-06
-4.97234e-07
5.00783e-06
-7.93699e-07
6.19479e-06
-1.18553e-06
7.73018e-06
-1.71652e-06
9.73867e-06
-2.43352e-06
1.24038e-05
-3.38947e-06
1.59656e-05
-4.63588e-06
2.07454e-05
-6.25097e-06
2.71934e-05
3.59666e-05
-8.31287e-06
-7.03452e-08
3.2966e-06
-2.13355e-07
4.14498e-06
-4.02582e-07
5.19706e-06
-6.66809e-07
6.45901e-06
-1.02455e-06
8.08792e-06
-1.5117e-06
1.02258e-05
-2.1727e-06
1.30648e-05
-3.05559e-06
1.68485e-05
-4.22167e-06
2.19115e-05
-5.73432e-06
2.8706e-05
3.79039e-05
-7.67165e-06
-3.60118e-08
3.33261e-06
-1.54117e-07
4.26309e-06
-3.18115e-07
5.36105e-06
-5.52059e-07
6.69296e-06
-8.76867e-07
8.41272e-06
-1.32447e-06
1.06734e-05
-1.93359e-06
1.3674e-05
-2.75379e-06
1.76687e-05
-3.84517e-06
2.30028e-05
-5.28539e-06
3.01462e-05
3.97392e-05
-7.12071e-06
-3.97541e-08
3.37237e-06
-1.52441e-07
4.37577e-06
-2.99423e-07
5.50804e-06
-5.08655e-07
6.90219e-06
-7.99632e-07
8.7037e-06
-1.20377e-06
1.10776e-05
-1.75898e-06
1.42292e-05
-2.51193e-06
1.84216e-05
-3.52441e-06
2.40153e-05
-4.87056e-06
3.14924e-05
4.15121e-05
-6.64344e-06
-2.79961e-08
3.40036e-06
-1.23676e-07
4.47145e-06
-2.48541e-07
5.6329e-06
-4.2879e-07
7.08244e-06
-6.84396e-07
8.95931e-06
-1.04343e-06
1.14366e-05
-1.54411e-06
1.47298e-05
-2.23485e-06
1.91124e-05
-3.16696e-06
2.49474e-05
-4.41887e-06
3.27443e-05
4.31956e-05
-6.10237e-06
2.18523e-08
3.37851e-06
-3.77316e-08
4.53104e-06
-1.26926e-07
5.7221e-06
-2.68996e-07
7.22451e-06
-4.80947e-07
9.17126e-06
-7.87761e-07
1.17434e-05
-1.22357e-06
1.51656e-05
-1.83686e-06
1.97257e-05
-2.6863e-06
2.57969e-05
-3.84695e-06
3.39049e-05
4.47711e-05
-5.42246e-06
2.64728e-08
3.35204e-06
-1.17465e-08
4.56926e-06
-6.49221e-08
5.77527e-06
-1.62579e-07
7.32216e-06
-3.16553e-07
9.32523e-06
-5.50782e-07
1.19777e-05
-9.01301e-07
1.55162e-05
-1.40952e-06
2.02339e-05
-2.13161e-06
2.6519e-05
-3.15236e-06
3.49257e-05
4.61689e-05
-4.5502e-06
4.45837e-08
3.30745e-06
4.07007e-08
4.57314e-06
3.33676e-08
5.7826e-06
-2.3934e-09
7.35793e-06
-8.15763e-08
9.40441e-06
-2.23487e-07
1.21196e-05
-4.59513e-07
1.57522e-05
-8.32815e-07
2.06072e-05
-1.39657e-06
2.70827e-05
-2.19518e-06
3.57243e-05
4.72759e-05
-3.30215e-06
1.01035e-07
3.20642e-06
1.58271e-07
4.5159e-06
2.19888e-07
5.72099e-06
2.66167e-07
7.31165e-06
2.90743e-07
9.37984e-06
2.71945e-07
1.21384e-05
1.81752e-07
1.58424e-05
-1.69032e-08
2.08058e-05
-3.59923e-07
2.74257e-05
-8.92351e-07
3.62567e-05
4.80446e-05
-1.6611e-06
1.42521e-07
3.0639e-06
2.63777e-07
4.39465e-06
4.11096e-07
5.57367e-06
5.68241e-07
7.1545e-06
7.29129e-07
9.21895e-06
8.75992e-07
1.19915e-05
9.83016e-07
1.57354e-05
1.0197e-06
2.07691e-05
9.63891e-07
2.74816e-05
7.97507e-07
3.64231e-05
4.83169e-05
5.25266e-07
1.97856e-07
2.86604e-06
4.05018e-07
4.18748e-06
6.66132e-07
5.31255e-06
9.70692e-07
6.84994e-06
1.31373e-06
8.87591e-06
1.67763e-06
1.16276e-05
2.03741e-06
1.53756e-05
2.37658e-06
2.043e-05
2.70581e-06
2.71523e-05
3.0613e-06
3.60676e-05
4.79232e-05
3.45503e-06
2.74539e-07
2.5915e-06
5.98884e-07
3.86314e-06
1.013e-06
4.89844e-06
1.51673e-06
6.34621e-06
2.09741e-06
8.29523e-06
2.73292e-06
1.09921e-05
3.40424e-06
1.47043e-05
4.12605e-06
1.97081e-05
4.95124e-06
2.63271e-05
5.97555e-06
3.50433e-05
4.65908e-05
7.30794e-06
3.85898e-07
2.2056e-06
8.64357e-07
3.38468e-06
1.48963e-06
4.27317e-06
2.25241e-06
5.58343e-06
3.1208e-06
7.42684e-06
4.07138e-06
1.00415e-05
5.11172e-06
1.36639e-05
6.2996e-06
1.85203e-05
7.75192e-06
2.48748e-05
9.63541e-06
3.31598e-05
4.40728e-05
1.21534e-05
5.00192e-07
1.70541e-06
1.2307e-06
2.65417e-06
2.14911e-06
3.35476e-06
3.20977e-06
4.52277e-06
4.37549e-06
6.26111e-06
5.65434e-06
8.76266e-06
7.10351e-06
1.22148e-05
8.84182e-06
1.6782e-05
1.10543e-05
2.26623e-05
1.39687e-05
3.02455e-05
4.02121e-05
1.78293e-05
1.02677e-06
6.7864e-07
2.05518e-06
1.62576e-06
3.18709e-06
2.22286e-06
4.42333e-06
3.28654e-06
5.78659e-06
4.89785e-06
7.34291e-06
7.20634e-06
9.21021e-06
1.03474e-05
1.15656e-05
1.44266e-05
1.46415e-05
1.95864e-05
1.87211e-05
2.61658e-05
3.47954e-05
2.41378e-05
1.75869e-06
-1.08005e-06
2.80796e-06
5.76499e-07
3.86702e-06
1.16379e-06
5.16756e-06
1.986e-06
6.69163e-06
3.37378e-06
8.56195e-06
5.33603e-06
1.09415e-05
7.96792e-06
1.40028e-05
1.13652e-05
1.80181e-05
1.55712e-05
2.32906e-05
2.08934e-05
2.78774e-05
3.02086e-05
-1.99279e-07
-1.4056e-06
-2.42993e-07
-1.44043e-06
-5.98581e-07
-9.44039e-07
-1.33384e-06
-3.09529e-07
-2.48475e-06
3.54098e-07
-4.13067e-06
9.69665e-07
-6.3481e-06
1.42221e-06
-9.13929e-06
1.49095e-06
-1.25073e-05
9.35171e-07
-1.64899e-05
-5.4879e-07
-3.45846e-06
-2.10683e-05
4.19483e-07
-1.82508e-06
9.95517e-07
-2.01646e-06
1.66365e-06
-1.61217e-06
1.984e-06
-6.29883e-07
1.62138e-06
7.16721e-07
4.38578e-07
2.15247e-06
-1.6696e-06
3.53039e-06
-4.75039e-06
4.57174e-06
-8.69036e-06
4.87515e-06
-1.3406e-05
4.16681e-06
2.11055e-06
-1.8975e-05
7.06024e-07
-2.53111e-06
1.44951e-06
-2.75995e-06
2.47871e-06
-2.64137e-06
3.64626e-06
-1.79743e-06
4.43027e-06
-6.72849e-08
4.35504e-06
2.22769e-06
3.13969e-06
4.74575e-06
5.04904e-07
7.20652e-06
-3.67733e-06
9.05738e-06
-9.06028e-06
9.54975e-06
8.32027e-06
-1.527e-05
9.29899e-07
-3.461e-06
1.87302e-06
-3.70308e-06
3.06038e-06
-3.82874e-06
4.55632e-06
-3.29337e-06
6.21609e-06
-1.72705e-06
7.33895e-06
1.10483e-06
7.35618e-06
4.72852e-06
5.8426e-06
8.7201e-06
2.41298e-06
1.2487e-05
-3.0652e-06
1.50279e-05
1.52838e-05
-1.00288e-05
1.01124e-06
-4.47225e-06
2.13228e-06
-4.82412e-06
3.52353e-06
-5.21998e-06
5.20132e-06
-4.97117e-06
7.25225e-06
-3.77798e-06
9.37406e-06
-1.01698e-06
1.07034e-05
3.39923e-06
1.05954e-05
8.82808e-06
8.48132e-06
1.4601e-05
3.85996e-06
1.96493e-05
2.23978e-05
-3.25406e-06
9.78149e-07
-5.4504e-06
2.15594e-06
-6.00191e-06
3.65276e-06
-6.71681e-06
5.48331e-06
-6.80171e-06
7.73057e-06
-6.02524e-06
1.04366e-05
-3.723e-06
1.29288e-05
9.06989e-07
1.4256e-05
7.50087e-06
1.36702e-05
1.51869e-05
1.04851e-05
2.28344e-05
2.87969e-05
4.08598e-06
8.599e-07
-6.3103e-06
1.99351e-06
-7.13552e-06
3.4541e-06
-8.1774e-06
5.29663e-06
-8.64424e-06
7.63259e-06
-8.36121e-06
1.0555e-05
-6.64545e-06
1.38912e-05
-2.42915e-06
1.65193e-05
4.87281e-06
1.75022e-05
1.4204e-05
1.59927e-05
2.43438e-05
3.3422e-05
1.13677e-05
7.42283e-07
-7.05258e-06
1.77161e-06
-8.16484e-06
3.08908e-06
-9.49487e-06
4.78531e-06
-1.03405e-05
7.00963e-06
-1.05855e-05
9.90316e-06
-9.53898e-06
1.35672e-05
-6.09318e-06
1.72414e-05
1.19856e-06
1.96312e-05
1.18142e-05
1.98291e-05
2.41459e-05
3.63441e-05
1.6907e-05
6.06053e-07
-7.65863e-06
1.4645e-06
-9.02329e-06
2.55261e-06
-1.0583e-05
3.98738e-06
-1.17752e-05
5.92687e-06
-1.2525e-05
8.5671e-06
-1.21792e-05
1.21143e-05
-9.64037e-06
1.63714e-05
-3.05857e-06
1.98842e-05
8.30149e-06
2.17637e-05
2.22664e-05
3.66804e-05
2.14274e-05
4.2459e-07
-8.08322e-06
1.07048e-06
-9.66918e-06
1.87854e-06
-1.1391e-05
2.95622e-06
-1.28529e-05
4.45327e-06
-1.40221e-05
6.58722e-06
-1.43132e-05
9.64819e-06
-1.27013e-05
1.38657e-05
-7.27611e-06
1.81013e-05
4.06596e-06
2.11465e-05
1.92212e-05
3.55596e-05
2.22673e-05
1.96313e-07
-8.27953e-06
6.42491e-07
-1.01154e-05
1.03001e-06
-1.17786e-05
1.66399e-06
-1.34869e-05
2.60748e-06
-1.49656e-05
4.0487e-06
-1.57544e-05
6.35957e-06
-1.50122e-05
1.00864e-05
-1.10029e-05
1.4659e-05
-5.06675e-07
1.8421e-05
1.54593e-05
3.2692e-05
2.12886e-05
1.24098e-08
-8.29194e-06
6.31237e-08
-1.01661e-05
1.40682e-07
-1.18561e-05
2.89086e-07
-1.36353e-05
5.76573e-07
-1.5253e-05
1.15386e-06
-1.63317e-05
2.3214e-06
-1.61798e-05
4.77604e-06
-1.34576e-05
9.02159e-06
-4.75222e-06
1.35712e-05
1.09096e-05
2.79551e-05
1.83082e-05
-2.17868e-07
-8.07408e-06
-4.96378e-07
-9.88756e-06
-8.32466e-07
-1.152e-05
-1.2204e-06
-1.32474e-05
-1.61261e-06
-1.48608e-05
-1.92662e-06
-1.60177e-05
-1.96039e-06
-1.6146e-05
-1.2021e-06
-1.42159e-05
1.94641e-06
-7.90073e-06
7.20304e-06
5.65296e-06
2.37583e-05
1.13999e-05
-5.17758e-07
-7.55632e-06
-1.16512e-06
-9.2402e-06
-1.96086e-06
-1.07243e-05
-2.91563e-06
-1.22926e-05
-4.00819e-06
-1.37683e-05
-5.17045e-06
-1.48554e-05
-6.23345e-06
-1.5083e-05
-6.80479e-06
-1.36445e-05
-5.60415e-06
-9.10136e-06
-1.10365e-06
1.15246e-06
1.79527e-05
4.70196e-06
-7.73917e-07
-6.7824e-06
-1.79261e-06
-8.22151e-06
-3.06657e-06
-9.45032e-06
-4.61852e-06
-1.07407e-05
-6.4392e-06
-1.19476e-05
-8.45836e-06
-1.28362e-05
-1.0485e-05
-1.30564e-05
-1.21009e-05
-1.20286e-05
-1.2479e-05
-8.7233e-06
-9.86957e-06
-1.45695e-06
1.14612e-05
-3.37802e-06
-1.04287e-06
-5.73953e-06
-2.43777e-06
-6.82661e-06
-4.19294e-06
-7.69516e-06
-6.33971e-06
-8.59389e-06
-8.87186e-06
-9.41543e-06
-1.17087e-05
-9.99937e-06
-1.46433e-05
-1.01219e-05
-1.72343e-05
-9.43753e-06
-1.86278e-05
-7.32975e-06
-1.73028e-05
-2.782e-06
5.57624e-06
-1.14179e-05
-1.33131e-06
-4.40822e-06
-3.10061e-06
-5.05731e-06
-5.31508e-06
-5.48068e-06
-8.01353e-06
-5.89545e-06
-1.11804e-05
-6.24855e-06
-1.47246e-05
-6.45514e-06
-1.8435e-05
-6.4115e-06
-2.18863e-05
-5.98625e-06
-2.42718e-05
-4.9442e-06
-2.42654e-05
-2.78846e-06
1.70221e-06
-2.03913e-05
-1.6441e-06
-2.76412e-06
-3.74884e-06
-2.95257e-06
-6.33481e-06
-2.89471e-06
-9.44005e-06
-2.79021e-06
-1.30351e-05
-2.65355e-06
-1.70172e-05
-2.47297e-06
-2.11877e-05
-2.24099e-06
-2.5157e-05
-2.01694e-06
-2.82629e-05
-1.83838e-06
-2.95171e-05
-1.53425e-06
-5.4909e-07
-2.72658e-05
-1.9755e-06
-7.88618e-07
-4.25645e-06
-6.71623e-07
-6.93583e-06
-2.15326e-07
-1.00363e-05
3.10267e-07
-1.35292e-05
8.39349e-07
-1.73378e-05
1.33559e-06
-2.12835e-05
1.70477e-06
-2.49916e-05
1.69116e-06
-2.78063e-05
9.76257e-07
-2.8972e-05
-3.6855e-07
-1.80762e-06
-2.77134e-05
-1.55285e-06
7.64237e-07
-3.23176e-06
1.00728e-06
-5.13861e-06
1.69152e-06
-7.32395e-06
2.4956e-06
-9.81136e-06
3.32676e-06
-1.25293e-05
4.05358e-06
-1.52288e-05
4.40427e-06
-1.7409e-05
3.87129e-06
-1.79612e-05
1.52848e-06
-1.68072e-05
-1.52259e-06
-4.16406e-06
-1.44507e-05
-9.4318e-07
1.70742e-06
-1.84143e-06
1.90553e-06
-2.82995e-06
2.68005e-06
-3.88123e-06
3.54688e-06
-4.92702e-06
4.37255e-06
-5.77302e-06
4.89958e-06
-5.95002e-06
4.58126e-06
-4.37767e-06
2.29894e-06
-5.97098e-07
-2.2521e-06
4.27362e-06
-6.39331e-06
-1.00708e-05
1.01804e-05
-3.50371e-07
2.05779e-06
-5.41764e-07
2.09693e-06
-6.04895e-07
2.74318e-06
-3.36184e-07
3.27817e-06
4.99577e-07
3.53679e-06
2.34958e-06
3.04958e-06
5.96954e-06
9.61296e-07
1.12413e-05
-2.97278e-06
1.6434e-05
-7.44486e-06
2.21293e-05
-1.20886e-05
-1.76467e-05
2.97052e-05
-1.11851e-07
2.16964e-06
5.26253e-07
1.45882e-06
1.76038e-06
1.50905e-06
3.81503e-06
1.22352e-06
6.99961e-06
3.52208e-07
1.14605e-05
-1.41131e-06
1.66201e-05
-4.19828e-06
2.13603e-05
-7.71299e-06
2.58148e-05
-1.18993e-05
3.06725e-05
-1.69464e-05
-2.34009e-05
3.64268e-05
1.08959e-06
3.12491e-06
5.79775e-06
9.00726e-06
1.27332e-05
1.6658e-05
2.04276e-05
2.40798e-05
2.77516e-05
3.16987e-05
3.61752e-05
-1.512e-05
1.30673e-06
1.38132e-05
-2.65265e-05
2.0288e-07
1.12037e-05
-3.55023e-05
-1.4642e-06
1.044e-05
-4.29458e-05
-2.42295e-06
9.86641e-06
-4.99024e-05
-2.71121e-06
9.66784e-06
-5.70904e-05
-2.3736e-06
9.56161e-06
-6.50301e-05
-1.43677e-06
9.37649e-06
-7.41215e-05
1.30243e-07
8.96114e-06
-8.4744e-05
2.4645e-06
8.15803e-06
-9.73232e-05
5.81535e-06
6.7638e-06
1.05698e-05
4.45363e-06
-0.000112347
-6.87089e-06
8.17762e-06
-1.34425e-05
6.77452e-06
-2.1292e-05
6.38531e-06
-2.93821e-05
5.66711e-06
-3.76089e-05
5.51557e-06
-4.61133e-05
6.13082e-06
-5.52895e-05
7.73944e-06
-6.56219e-05
1.04627e-05
-7.75982e-05
1.44408e-05
-9.17242e-05
1.99413e-05
2.73718e-05
-0.000108526
-3.01186e-06
1.11895e-05
-7.04043e-06
1.08031e-05
-1.27928e-05
1.21377e-05
-1.968e-05
1.25543e-05
-2.76948e-05
1.35304e-05
-3.65113e-05
1.49472e-05
-4.6196e-05
1.74242e-05
-5.70177e-05
2.12844e-05
-6.93963e-05
2.68195e-05
-8.38364e-05
3.43814e-05
4.4495e-05
-0.00010096
-1.68473e-06
1.28742e-05
-4.57364e-06
1.3692e-05
-8.88635e-06
1.64504e-05
-1.44022e-05
1.80702e-05
-2.11914e-05
2.03196e-05
-2.91717e-05
2.29275e-05
-3.83672e-05
2.66197e-05
-4.88161e-05
3.17333e-05
-6.07698e-05
3.87732e-05
-7.46302e-05
4.82418e-05
6.07449e-05
-9.08801e-05
-1.35485e-06
1.42291e-05
-3.74054e-06
1.60777e-05
-6.96301e-06
1.96729e-05
-1.12894e-05
2.23966e-05
-1.68568e-05
2.58869e-05
-2.37337e-05
2.98045e-05
-3.18811e-05
3.4767e-05
-4.13908e-05
4.1243e-05
-5.2428e-05
4.98104e-05
-6.52796e-05
6.10934e-05
7.587e-05
-8.04047e-05
-1.05832e-06
1.52874e-05
-3.2369e-06
1.82562e-05
-5.78728e-06
2.22232e-05
-9.23076e-06
2.58401e-05
-1.37258e-05
3.0382e-05
-1.94222e-05
3.55009e-05
-2.64141e-05
4.17589e-05
-3.47834e-05
4.96123e-05
-4.46627e-05
5.96897e-05
-5.62693e-05
7.27e-05
8.95576e-05
-6.99569e-05
-9.031e-07
1.61905e-05
-2.63708e-06
1.99902e-05
-4.77205e-06
2.43582e-05
-7.64801e-06
2.8716e-05
-1.13383e-05
3.40723e-05
-1.60525e-05
4.02151e-05
-2.19478e-05
4.76543e-05
-2.91498e-05
5.68142e-05
-3.7802e-05
6.83419e-05
-4.80973e-05
8.29953e-05
0.00010173
-6.02696e-05
-8.95935e-07
1.70864e-05
-2.39629e-06
2.14906e-05
-4.17276e-06
2.61347e-05
-6.56724e-06
3.11105e-05
-9.61314e-06
3.71182e-05
-1.35151e-05
4.41171e-05
-1.84295e-05
5.25686e-05
-2.45145e-05
6.28992e-05
-3.1922e-05
7.57494e-05
-4.08298e-05
9.1903e-05
0.000112384
-5.14834e-05
-7.82786e-07
1.78692e-05
-2.08371e-06
2.27915e-05
-3.60935e-06
2.76603e-05
-5.60529e-06
3.31065e-05
-8.12708e-06
3.964e-05
-1.13462e-05
4.73362e-05
-1.54164e-05
5.66387e-05
-2.04975e-05
6.79804e-05
-2.67441e-05
8.1996e-05
-3.43453e-05
9.95043e-05
0.000121561
-4.35229e-05
-4.82087e-07
1.83513e-05
-1.4729e-06
2.37823e-05
-2.71107e-06
2.88985e-05
-4.35101e-06
3.47464e-05
-6.4188e-06
4.17078e-05
-9.07273e-06
4.99902e-05
-1.24336e-05
5.99996e-05
-1.66572e-05
7.2204e-05
-2.18991e-05
8.72379e-05
-2.83466e-05
0.000105952
0.000129445
-3.62301e-05
-2.33104e-07
1.85844e-05
-9.62277e-07
2.45115e-05
-1.90333e-06
2.98395e-05
-3.18132e-06
3.60244e-05
-4.82234e-06
4.33488e-05
-6.9375e-06
5.21053e-05
-9.64182e-06
6.27039e-05
-1.30592e-05
7.56213e-05
-1.73464e-05
9.15251e-05
-2.26666e-05
0.000111272
0.000136003
-2.92247e-05
-2.04516e-07
1.87889e-05
-7.70412e-07
2.50774e-05
-1.45441e-06
3.05235e-05
-2.3972e-06
3.69672e-05
-3.59826e-06
4.45498e-05
-5.1679e-06
5.3675e-05
-7.19682e-06
6.47329e-05
-9.79149e-06
7.8216e-05
-1.3085e-05
9.48187e-05
-1.72306e-05
0.000115417
0.000141155
-2.23832e-05
-6.40068e-08
1.88529e-05
-3.98211e-07
2.54116e-05
-8.18342e-07
3.09437e-05
-1.4269e-06
3.75757e-05
-2.2036e-06
4.53265e-05
-3.24332e-06
5.47147e-05
-4.6102e-06
6.60998e-05
-6.40233e-06
8.00081e-05
-8.72284e-06
9.71392e-05
-1.17049e-05
0.0001184
0.000144961
-1.55102e-05
2.52738e-07
1.86002e-05
2.58137e-07
2.54062e-05
1.69529e-07
3.10323e-05
-7.24563e-08
3.78177e-05
-4.09683e-07
4.56638e-05
-9.22698e-07
5.52277e-05
-1.64079e-06
6.68178e-05
-2.64086e-06
8.10082e-05
-4.00329e-06
9.85016e-05
-5.83737e-06
0.000120234
0.000147383
-8.25986e-06
3.27919e-07
1.82723e-05
5.74217e-07
2.51599e-05
7.99615e-07
3.08069e-05
9.64885e-07
3.76524e-05
1.12679e-06
4.55019e-05
1.22241e-06
5.51321e-05
1.25084e-06
6.67894e-05
1.15444e-06
8.11046e-05
8.91327e-07
9.87648e-05
3.84626e-07
0.00012074
0.000148207
-4.39491e-07
4.72857e-07
1.77994e-05
1.01115e-06
2.46216e-05
1.58965e-06
3.02284e-05
2.2051e-06
3.7037e-05
2.90191e-06
4.48051e-05
3.66489e-06
5.43691e-05
4.5039e-06
6.59504e-05
5.39509e-06
8.02134e-05
6.33375e-06
9.78261e-05
7.27889e-06
0.000119795
0.000147309
8.17699e-06
7.86146e-07
1.70133e-05
1.73142e-06
2.36763e-05
2.74571e-06
2.92141e-05
3.86727e-06
3.59154e-05
5.16629e-06
4.3506e-05
6.65568e-06
5.28797e-05
8.38197e-06
6.42241e-05
1.03588e-05
7.82366e-05
1.26008e-05
9.55841e-05
1.51267e-05
0.000117269
0.000144462
1.79742e-05
9.9493e-07
1.60183e-05
2.31437e-06
2.23569e-05
3.79694e-06
2.77315e-05
5.51627e-06
3.41961e-05
7.51553e-06
4.15068e-05
9.86943e-06
5.05258e-05
1.26364e-05
6.14572e-05
1.5877e-05
7.49959e-05
1.96581e-05
9.18031e-05
2.40648e-05
0.000112863
0.000139353
2.91731e-05
1.24643e-06
1.47719e-05
2.98779e-06
2.06155e-05
5.00098e-06
2.57184e-05
7.38545e-06
3.18116e-05
1.01925e-05
3.86998e-05
1.35436e-05
4.71746e-05
1.75248e-05
5.7476e-05
2.22391e-05
7.02816e-05
2.77974e-05
8.62447e-05
3.4348e-05
0.000106312
0.000131631
4.20699e-05
1.54609e-06
1.32258e-05
3.74991e-06
1.84117e-05
6.36539e-06
2.31029e-05
9.52129e-06
2.86557e-05
1.32746e-05
3.49464e-05
1.7789e-05
4.26603e-05
2.31625e-05
5.21025e-05
2.95536e-05
6.38905e-05
3.71423e-05
7.8656e-05
4.61738e-05
9.72805e-05
0.000120847
5.69578e-05
1.87755e-06
1.13483e-05
4.5607e-06
1.57286e-05
7.84328e-06
1.98203e-05
1.18792e-05
2.46198e-05
1.67218e-05
3.01039e-05
2.25436e-05
3.68385e-05
2.94826e-05
4.51634e-05
3.77595e-05
5.56136e-05
4.76285e-05
6.8787e-05
5.94485e-05
8.54606e-05
0.000106635
7.36613e-05
2.13783e-06
9.21042e-06
5.30257e-06
1.25638e-05
9.32131e-06
1.58015e-05
1.43198e-05
1.96213e-05
2.03494e-05
2.40743e-05
2.75742e-05
2.96137e-05
3.61882e-05
3.65494e-05
4.64686e-05
4.53332e-05
5.87776e-05
5.6478e-05
7.35939e-05
7.06443e-05
8.8734e-05
9.14945e-05
2.35451e-06
6.85591e-06
6.0871e-06
8.83123e-06
1.08468e-05
1.10418e-05
1.67428e-05
1.37254e-05
2.38447e-05
1.69724e-05
3.23635e-05
2.10949e-05
4.25546e-05
2.63584e-05
5.47799e-05
3.31079e-05
6.95039e-05
4.1754e-05
8.73193e-05
5.28289e-05
6.71046e-05
0.000108949
3.90779e-07
6.46513e-06
5.34278e-06
3.87923e-06
1.14534e-05
4.93123e-06
1.8395e-05
6.78375e-06
2.64693e-05
8.89798e-06
3.60674e-05
1.14969e-05
4.75259e-05
1.48999e-05
6.1322e-05
1.93117e-05
7.80454e-05
2.50307e-05
9.84073e-05
3.2467e-05
4.21189e-05
0.000123393
-5.61555e-06
1.94288e-05
-1.10758e-05
1.6664e-05
-1.95627e-05
1.89268e-05
-2.8407e-05
1.87107e-05
-3.73562e-05
1.86171e-05
-4.65517e-05
1.8757e-05
-5.63814e-05
1.92062e-05
-6.72385e-05
1.98182e-05
-7.95024e-05
2.0422e-05
-9.35194e-05
2.07807e-05
2.06085e-05
-0.000109674
2.01417e-06
1.74146e-05
1.8225e-06
1.68557e-05
-3.25472e-06
2.40041e-05
-1.06232e-05
2.60791e-05
-1.97586e-05
2.77526e-05
-2.99766e-05
2.8975e-05
-4.11697e-05
3.03992e-05
-5.35159e-05
3.21645e-05
-6.73759e-05
3.4282e-05
-8.31729e-05
3.65777e-05
3.88171e-05
-0.000101381
1.87421e-06
1.55404e-05
1.54572e-06
1.71842e-05
-8.48679e-07
2.63985e-05
-5.08514e-06
3.03156e-05
-1.19202e-05
3.45876e-05
-2.0729e-05
3.77839e-05
-3.11445e-05
4.08146e-05
-4.30263e-05
4.40463e-05
-5.64708e-05
4.77264e-05
-7.18104e-05
5.19174e-05
5.63857e-05
-8.9379e-05
1.01601e-06
1.45244e-05
-1.72286e-07
1.83725e-05
-1.59027e-06
2.78164e-05
-4.29141e-06
3.30167e-05
-8.98203e-06
3.92782e-05
-1.56174e-05
4.44192e-05
-2.41757e-05
4.93729e-05
-3.44779e-05
5.43486e-05
-4.64987e-05
5.97472e-05
-6.03452e-05
6.57639e-05
7.24548e-05
-7.64143e-05
4.93157e-07
1.40312e-05
-1.16091e-06
2.00265e-05
-2.46403e-06
2.91196e-05
-4.63485e-06
3.51876e-05
-7.94993e-06
4.25933e-05
-1.27414e-05
4.92107e-05
-1.92807e-05
5.59122e-05
-2.75734e-05
6.26413e-05
-3.7614e-05
6.97879e-05
-4.94512e-05
7.76011e-05
8.62054e-05
-6.32019e-05
1.99554e-07
1.38317e-05
-1.31146e-06
2.15375e-05
-2.53962e-06
3.03477e-05
-4.46454e-06
3.71125e-05
-6.99395e-06
4.51227e-05
-1.05419e-05
5.27586e-05
-1.5433e-05
6.08033e-05
-2.18282e-05
6.90366e-05
-2.98088e-05
7.77684e-05
-3.94283e-05
8.72206e-05
9.75325e-05
-5.07554e-05
7.87487e-08
1.37529e-05
-1.10506e-06
2.27213e-05
-2.1341e-06
3.13768e-05
-3.76472e-06
3.87431e-05
-5.74949e-06
4.71075e-05
-8.42507e-06
5.54342e-05
-1.20559e-05
6.44341e-05
-1.68513e-05
7.3832e-05
-2.2964e-05
8.38811e-05
-3.05094e-05
9.4766e-05
0.000106627
-3.96041e-05
-9.22255e-08
1.38451e-05
-9.88044e-07
2.36172e-05
-1.79984e-06
3.21886e-05
-3.07082e-06
4.00141e-05
-4.53552e-06
4.85722e-05
-6.46861e-06
5.73673e-05
-9.04867e-06
6.70142e-05
-1.24588e-05
7.72421e-05
-1.68781e-05
8.83005e-05
-2.23949e-05
0.000100283
0.000113289
-2.90566e-05
-1.38363e-07
1.39835e-05
-7.50414e-07
2.42292e-05
-1.31289e-06
3.2751e-05
-2.19766e-06
4.08989e-05
-3.15802e-06
4.95326e-05
-4.41598e-06
5.86252e-05
-6.07139e-06
6.86696e-05
-8.27683e-06
7.94475e-05
-1.11717e-05
9.11953e-05
-1.48859e-05
0.000103997
0.000117796
-1.93925e-05
-8.38438e-08
1.40674e-05
-4.1124e-07
2.45566e-05
-6.88043e-07
3.30278e-05
-1.16489e-06
4.13757e-05
-1.628e-06
4.99957e-05
-2.22779e-06
5.9225e-05
-3.02789e-06
6.94697e-05
-4.12514e-06
8.05448e-05
-5.62934e-06
9.26995e-05
-7.61865e-06
0.000105986
0.000120335
-1.01582e-05
1.116e-07
1.39558e-05
1.33573e-07
2.45346e-05
2.38706e-07
3.29227e-05
1.93136e-07
4.14213e-05
2.405e-07
4.99483e-05
2.56589e-07
5.92089e-05
2.67526e-07
6.94588e-05
1.82095e-07
8.06302e-05
-3.29257e-08
9.29145e-05
-4.15638e-07
0.000106369
0.000120876
-9.56236e-07
1.95356e-07
1.37604e-05
5.2077e-07
2.42092e-05
9.73699e-07
3.24698e-05
1.3573e-06
4.10377e-05
1.96559e-06
4.934e-05
2.64491e-06
5.85296e-05
3.48922e-06
6.86144e-05
4.44211e-06
7.96774e-05
5.50927e-06
9.18474e-05
6.68991e-06
0.000105188
0.000119472
8.0938e-06
3.28563e-07
1.34318e-05
9.2566e-07
2.36121e-05
1.72723e-06
3.16682e-05
2.63148e-06
4.01334e-05
3.81851e-06
4.8153e-05
5.18445e-06
5.71637e-05
6.87628e-06
6.69226e-05
8.85693e-06
7.76967e-05
1.11973e-05
8.9507e-05
1.39191e-05
0.000102466
0.000116174
1.72172e-05
5.62816e-07
1.2869e-05
1.53111e-06
2.26438e-05
2.7576e-06
3.04417e-05
4.19573e-06
3.86953e-05
5.9381e-06
4.64106e-05
8.0011e-06
5.51007e-05
1.05346e-05
6.43891e-05
1.35518e-05
7.46795e-05
1.71429e-05
8.5916e-05
2.13899e-05
9.82194e-05
0.000111153
2.64104e-05
7.09847e-07
1.21592e-05
1.95954e-06
2.13941e-05
3.59759e-06
2.88037e-05
5.58284e-06
3.671e-05
7.94161e-06
4.40518e-05
1.07766e-05
5.22657e-05
1.42149e-05
6.09508e-05
1.83411e-05
7.05533e-05
2.32641e-05
8.0993e-05
2.91007e-05
9.23828e-05
0.000104296
3.59579e-05
8.80433e-07
1.12787e-05
2.44315e-06
1.98314e-05
4.50501e-06
2.67418e-05
7.06018e-06
3.41549e-05
1.00912e-05
4.10208e-05
1.37256e-05
4.86313e-05
1.81231e-05
5.65532e-05
2.34069e-05
6.52695e-05
2.97132e-05
7.46867e-05
3.72089e-05
8.48871e-05
9.53744e-05
4.61307e-05
1.09705e-06
1.01817e-05
2.98323e-06
1.79453e-05
5.49477e-06
2.42303e-05
8.64313e-06
3.10065e-05
1.23626e-05
3.73013e-05
1.68742e-05
4.41197e-05
2.22954e-05
5.11321e-05
2.88034e-05
5.87616e-05
3.65501e-05
6.69399e-05
4.57483e-05
7.56889e-05
8.44804e-05
5.66423e-05
1.30233e-06
8.87935e-06
3.49975e-06
1.57478e-05
6.4595e-06
2.12705e-05
1.02193e-05
2.72467e-05
1.46958e-05
3.28248e-05
2.01399e-05
3.86756e-05
2.6656e-05
4.46159e-05
3.44511e-05
5.09665e-05
4.36968e-05
5.76942e-05
5.46231e-05
6.47626e-05
7.16247e-05
6.74787e-05
1.50446e-06
7.3749e-06
3.98e-06
1.32723e-05
7.37128e-06
1.78792e-05
1.17335e-05
2.28845e-05
1.70177e-05
2.75406e-05
2.34479e-05
3.22454e-05
3.1134e-05
3.69299e-05
4.02755e-05
4.1825e-05
5.10486e-05
4.69211e-05
6.372e-05
5.20912e-05
5.68347e-05
7.851e-05
1.70847e-06
5.66642e-06
4.41583e-06
1.05649e-05
8.16968e-06
1.41254e-05
1.31067e-05
1.79475e-05
1.92079e-05
2.14394e-05
2.66578e-05
2.47955e-05
3.55339e-05
2.80538e-05
4.60002e-05
3.13586e-05
5.82806e-05
3.46407e-05
7.26623e-05
3.77096e-05
3.99571e-05
8.95398e-05
1.87366e-06
3.79276e-06
4.67591e-06
7.7627e-06
8.68286e-06
1.01184e-05
1.41207e-05
1.25096e-05
2.09923e-05
1.45679e-05
2.93911e-05
1.63966e-05
3.93224e-05
1.81226e-05
5.09746e-05
1.97064e-05
6.45933e-05
2.1022e-05
8.05311e-05
2.17717e-05
2.13303e-05
9.9158e-05
1.7935e-06
1.99927e-06
4.53451e-06
5.02168e-06
8.68903e-06
5.96389e-06
1.45423e-05
6.65629e-06
2.19154e-05
7.19487e-06
3.07957e-05
7.51625e-06
4.13185e-05
7.59978e-06
5.36325e-05
7.39242e-06
6.80551e-05
6.59939e-06
8.49933e-05
4.83355e-06
1.4013e-06
0.000104922
7.58595e-07
1.24067e-06
3.80476e-06
1.97552e-06
8.4073e-06
1.36134e-06
1.43441e-05
7.19539e-07
2.17951e-05
-2.56146e-07
3.09104e-05
-1.59904e-06
4.18672e-05
-3.35711e-06
5.49669e-05
-5.70725e-06
7.0596e-05
-9.02967e-06
8.9175e-05
-1.37454e-05
-2.03975e-05
0.000110974
7.7058e-06
1.35606e-05
1.98531e-05
2.73564e-05
3.59983e-05
4.58961e-05
5.74389e-05
7.10433e-05
8.70443e-05
0.000105766
0.000127487
-3.77314e-06
1.65929e-05
-1.28198e-05
-7.43604e-06
1.546e-05
-1.17971e-05
-1.28931e-05
1.82641e-05
-1.28071e-05
-1.88764e-05
2.02274e-05
-1.4244e-05
-2.49806e-05
2.2352e-05
-1.62478e-05
-3.13276e-05
2.52567e-05
-1.89097e-05
-3.81214e-05
2.91543e-05
-2.23606e-05
-4.56676e-05
3.4301e-05
-2.67548e-05
-5.42635e-05
4.10321e-05
-3.24362e-05
-6.42332e-05
4.97869e-05
-3.98171e-05
6.11963e-05
-4.94532e-05
-7.59763e-05
2.66921e-06
1.39237e-05
3.22444e-06
1.49048e-05
7.10352e-07
2.07782e-05
-3.54061e-06
2.44784e-05
-9.09349e-06
2.79048e-05
-1.55383e-05
3.17015e-05
-2.27594e-05
3.63754e-05
-3.08658e-05
4.24074e-05
-4.01027e-05
5.02691e-05
-5.07961e-05
6.04803e-05
7.37292e-05
-6.33291e-05
2.32289e-06
1.16008e-05
3.01297e-06
1.42147e-05
2.63686e-06
2.11543e-05
9.46758e-07
2.61685e-05
-2.5096e-06
3.13612e-05
-7.40933e-06
3.66013e-05
-1.34997e-05
4.24657e-05
-2.06633e-05
4.9571e-05
-2.89624e-05
5.85682e-05
-3.86014e-05
7.01194e-05
8.50018e-05
-4.98741e-05
1.63218e-06
9.96866e-06
1.90072e-06
1.39462e-05
2.15987e-06
2.08952e-05
1.64475e-06
2.66836e-05
-1.45763e-07
3.31517e-05
-3.23526e-06
3.96908e-05
-7.60509e-06
4.68356e-05
-1.31576e-05
5.51236e-05
-1.98472e-05
6.52577e-05
-2.77182e-05
7.79904e-05
9.41499e-05
-3.68663e-05
1.26088e-06
8.70778e-06
1.50455e-06
1.37025e-05
1.86951e-06
2.05302e-05
1.72709e-06
2.6826e-05
8.65084e-07
3.40137e-05
-8.93799e-07
4.14496e-05
-3.70336e-06
4.96451e-05
-7.59913e-06
5.90193e-05
-1.2553e-05
7.02116e-05
-1.85774e-05
8.40148e-05
0.000101321
-2.57483e-05
1.12519e-06
7.58259e-06
1.61867e-06
1.3209e-05
2.17482e-06
1.99741e-05
2.28172e-06
2.67191e-05
1.93712e-06
3.43583e-05
9.87125e-07
4.23996e-05
-7.12903e-07
5.13451e-05
-3.27192e-06
6.15783e-05
-6.72501e-06
7.36647e-05
-1.10984e-05
8.83882e-05
0.000106629
-1.64063e-05
1.05432e-06
6.52827e-06
1.80023e-06
1.24631e-05
2.56921e-06
1.92051e-05
2.95902e-06
2.63293e-05
3.0137e-06
3.43036e-05
2.62917e-06
4.27842e-05
1.70199e-06
5.22723e-05
1.50506e-07
6.31298e-05
-2.08955e-06
7.59047e-05
-5.08897e-06
9.13876e-05
0.00011041
-8.86974e-06
9.11369e-07
5.61691e-06
1.83995e-06
1.15345e-05
2.77861e-06
1.82664e-05
3.43415e-06
2.56738e-05
3.84401e-06
3.38938e-05
3.91483e-06
4.27134e-05
3.60961e-06
5.25775e-05
2.86138e-06
6.38781e-05
1.60732e-06
7.71588e-05
-1.96371e-07
9.31913e-05
0.000112791
-2.57783e-06
8.9617e-07
4.72074e-06
1.94804e-06
1.04827e-05
3.04184e-06
1.71726e-05
3.94378e-06
2.47718e-05
4.66319e-06
3.31744e-05
5.1239e-06
4.22526e-05
5.31736e-06
5.23841e-05
5.21197e-06
6.39834e-05
4.76093e-06
7.76098e-05
3.91805e-06
9.40342e-05
0.000114046
2.66324e-06
9.6516e-07
3.75558e-06
2.19172e-06
9.25609e-06
3.48988e-06
1.58744e-05
4.67173e-06
2.359e-05
5.70007e-06
3.2146e-05
6.51405e-06
4.14387e-05
7.12324e-06
5.17749e-05
7.52978e-06
6.35769e-05
7.70566e-06
7.7434e-05
7.62388e-06
9.4116e-05
0.000114473
7.19621e-06
9.74035e-07
2.78154e-06
2.30241e-06
7.92772e-06
3.78144e-06
1.43954e-05
5.23906e-06
2.21323e-05
6.58878e-06
3.07963e-05
7.76466e-06
4.02628e-05
8.7856e-06
5.0754e-05
9.67404e-06
6.26885e-05
1.04373e-05
7.66707e-05
1.10657e-05
9.34876e-05
0.000113993
1.1546e-05
8.84901e-07
1.89664e-06
2.18444e-06
6.62818e-06
3.75641e-06
1.28234e-05
5.4321e-06
2.04566e-05
7.0869e-06
2.91415e-05
8.65009e-06
3.86996e-05
1.01268e-05
4.92773e-05
1.15387e-05
6.12765e-05
1.29187e-05
7.52907e-05
1.4288e-05
9.21183e-05