/*--------------------------------*- C++ -*----------------------------------*\
| =========                 |                                                 |
| \\      /  F ield         | OpenFOAM: The Open Source CFD Toolbox           |
|  \\    /   O peration     | Version:  3.0.1                                 |
|   \\  /    A nd           | Web:      www.OpenFOAM.org                      |
|    \\/     M anipulation  |                                                 |
\*---------------------------------------------------------------------------*/
FoamFile
{
    version     2.0;
    format      ascii;
    class       volScalarField;
    location    "0.408575";
    object      p;
}
// * * * * * * * * * * * * * * * * * * * * * * * * * * * * * * * * * * * * * //

dimensions      [0 2 -2 0 0 0 0];

internalField   nonuniform List<scalar> 
21246
(
0.580795
0.527465
0.473952
0.433292
0.395542
0.355691
0.311248
0.261149
0.205889
0.15805
0.145806
0.434345
0.45969
0.431608
0.409551
0.389992
0.363988
0.32876
0.285121
0.238878
0.203005
0.19323
0.0629862
0.192268
0.254391
0.291022
0.31095
0.316332
0.307917
0.289189
0.263594
0.23604
0.222783
-0.274833
-0.0859981
0.0201679
0.107218
0.178029
0.22975
0.26002
0.269732
0.261716
0.243864
0.231183
-0.533678
-0.331801
-0.212876
-0.0935857
0.0159512
0.106396
0.172042
0.211591
0.227069
0.226306
0.227604
-0.731132
-0.529905
-0.421574
-0.290877
-0.160367
-0.0426482
0.0532767
0.122502
0.164284
0.184714
0.201994
-0.880851
-0.676376
-0.592955
-0.459675
-0.322672
-0.191504
-0.0755071
0.0176191
0.0840094
0.127043
0.162642
-0.963616
-0.802258
-0.719433
-0.588449
-0.455554
-0.321731
-0.195896
-0.0873149
-0.00172093
0.0613907
0.118276
-1.02546
-0.884367
-0.797611
-0.682069
-0.556099
-0.42478
-0.29635
-0.180965
-0.082476
-0.00504597
0.0684304
-1.07625
-0.939533
-0.854841
-0.746838
-0.627407
-0.501322
-0.375226
-0.25667
-0.152017
-0.0644447
0.0194845
-1.10377
-0.972165
-0.891969
-0.789516
-0.675795
-0.555084
-0.432622
-0.314722
-0.207803
-0.114704
-0.0228878
-1.10284
-0.980665
-0.907564
-0.811608
-0.704139
-0.589236
-0.471403
-0.356136
-0.249414
-0.153677
-0.0554161
-1.09457
-0.977256
-0.908642
-0.817896
-0.716291
-0.607326
-0.494846
-0.383567
-0.278782
-0.182585
-0.0802433
-1.08474
-0.967428
-0.900984
-0.81397
-0.717384
-0.614081
-0.507302
-0.401009
-0.299775
-0.20575
-0.10453
-1.05313
-0.942975
-0.882462
-0.800749
-0.709908
-0.61278
-0.512363
-0.412011
-0.315373
-0.224121
-0.123008
-1.01783
-0.913722
-0.85812
-0.781699
-0.697125
-0.606967
-0.513904
-0.420565
-0.329403
-0.241781
-0.141688
-0.987798
-0.885431
-0.832767
-0.761274
-0.683457
-0.601296
-0.516823
-0.431625
-0.346492
-0.262229
-0.163905
-0.946645
-0.851265
-0.805064
-0.741232
-0.672392
-0.60029
-0.526322
-0.450447
-0.371271
-0.288714
-0.188099
-0.902952
-0.816922
-0.778849
-0.72531
-0.668767
-0.610313
-0.549571
-0.48391
-0.409391
-0.325839
-0.219582
-0.864183
-0.789143
-0.759781
-0.71893
-0.678683
-0.638637
-0.594343
-0.53877
-0.465686
-0.376634
-0.265546
-0.834294
-0.771631
-0.752669
-0.72892
-0.712198
-0.696964
-0.671112
-0.621797
-0.542511
-0.438888
-0.313753
-0.808581
-0.7683
-0.762258
-0.768166
-0.788375
-0.804089
-0.793177
-0.73868
-0.639331
-0.508904
-0.359366
-0.902124
-0.795375
-0.826722
-0.885323
-0.949377
-0.987692
-0.974466
-0.890082
-0.751732
-0.583343
-0.406968
-0.203061
-0.614586
-0.833137
-1.01336
-1.14168
-1.19665
-1.16099
-1.0391
-0.853818
-0.645191
-0.442737
0.0651101
0.294882
0.352648
0.334078
0.321133
0.302222
0.262519
0.21204
0.156039
0.103516
0.0817633
0.0833355
0.223085
0.244356
0.18353
0.137514
0.122013
0.119094
0.105311
0.0628894
0.01307
-0.00431281
-0.110543
-0.00607488
0.0451183
0.0124684
-0.0774086
-0.149948
-0.1668
-0.148465
-0.128775
-0.137034
-0.137731
-0.678149
-0.541866
-0.414231
-0.370142
-0.427654
-0.529639
-0.597243
-0.590573
-0.5121
-0.432174
-0.359535
-1.28335
-1.2078
-1.08759
-1.00105
-1.00243
-1.10518
-1.20997
-1.21692
-1.12347
-0.952935
-0.758581
-1.89524
-1.91082
-1.84862
-1.81671
-1.82724
-1.91793
-2.06142
-2.11986
-2.01147
-1.74909
-1.40476
-2.45504
-2.58657
-2.60773
-2.68264
-2.79984
-2.95563
-3.15385
-3.27488
-3.18325
-2.84524
-2.34674
-2.95562
-3.19773
-3.30694
-3.51008
-3.77128
-4.08573
-4.40181
-4.63781
-4.60166
-4.21492
-3.53389
-3.37061
-3.71592
-3.90668
-4.24295
-4.65594
-5.14843
-5.67479
-6.09256
-6.17265
-5.78097
-4.98761
-3.64783
-4.1154
-4.36597
-4.82562
-5.38509
-6.05837
-6.81179
-7.45654
-7.73382
-7.359
-6.4123
-3.75459
-4.36425
-4.63876
-5.20864
-5.89455
-6.72099
-7.6608
-8.56821
-9.07921
-8.77555
-7.74322
-3.76543
-4.37502
-4.74999
-5.37742
-6.14751
-7.08434
-8.1574
-9.268
-9.94965
-9.79166
-8.71616
-3.60975
-4.1942
-4.64569
-5.30017
-6.12496
-7.12303
-8.25697
-9.41444
-10.2058
-10.2326
-9.01654
-3.24424
-3.80073
-4.29042
-4.95381
-5.7932
-6.80549
-7.93762
-9.04563
-9.87649
-9.90924
-8.76521
-2.71699
-3.21332
-3.69942
-4.3416
-5.15695
-6.13544
-7.20942
-8.2363
-8.96643
-8.91811
-7.97912
-2.02627
-2.45408
-2.91786
-3.52616
-4.30056
-5.2207
-6.19878
-7.07177
-7.60234
-7.52168
-6.7563
-1.19896
-1.58057
-2.03172
-2.61668
-3.35335
-4.20671
-5.0662
-5.75054
-6.05332
-5.85975
-5.20102
-0.358928
-0.742908
-1.21412
-1.79796
-2.50346
-3.2816
-4.00762
-4.49601
-4.56581
-4.18697
-3.60484
0.239194
-0.205087
-0.728158
-1.31279
-1.96652
-2.64841
-3.23671
-3.53988
-3.39467
-2.84186
-2.15934
0.379994
-0.12238
-0.666121
-1.21538
-1.79616
-2.38791
-2.86721
-3.0102
-2.66017
-1.92643
-1.0293
0.156962
-0.344372
-0.858151
-1.38268
-1.93834
-2.4885
-2.89061
-2.84548
-2.23778
-1.39062
-0.487873
-0.336614
-0.817877
-1.30979
-1.7908
-2.2877
-2.72946
-2.85579
-2.48248
-1.82055
-1.10591
-0.51114
-0.797447
-1.4782
-1.8872
-2.21249
-2.4358
-2.46652
-2.26072
-1.85649
-1.36295
-0.887142
-0.501408
-2.45198
-2.33248
-2.13876
-1.96167
-1.86115
-1.77497
-1.59261
-1.32426
-1.0196
-0.724667
-0.472602
25.767
20.8471
16.5613
13.1749
10.5609
8.57114
7.02443
5.79183
4.79714
4.01699
3.47847
17.8206
18.1949
17.0459
14.9784
12.6245
10.3946
8.47294
6.9015
5.64058
4.65884
3.96627
8.4164
12.0339
12.9941
13.137
12.113
10.6515
9.02511
7.49438
6.16881
5.09372
4.32453
1.85349
5.9096
7.37347
9.0906
9.50809
9.24236
8.40801
7.32956
6.22244
5.2279
4.44569
-1.61693
1.715
2.66703
5.08483
6.24107
6.90371
6.90778
6.46752
5.77978
5.03224
4.39475
-3.34036
-0.627532
-0.204257
2.04435
3.3622
4.48832
5.07011
5.19338
4.96251
4.5379
4.10312
-3.92433
-2.02603
-1.52688
0.13572
1.31373
2.53212
3.37126
3.85408
3.98898
3.87551
3.66261
-3.69216
-2.60145
-2.11265
-0.856826
0.0861751
1.18932
2.05614
2.69713
3.05569
3.17219
3.1638
-3.39931
-2.61526
-2.2576
-1.28381
-0.549689
0.383899
1.16843
1.83244
2.29107
2.54995
2.68376
-3.24174
-2.51155
-2.20205
-1.39576
-0.813946
-0.0321307
0.640537
1.26059
1.73635
2.06159
2.2829
-2.81148
-2.20301
-1.9677
-1.29358
-0.835404
-0.181387
0.379671
0.930237
1.37708
1.71114
1.96509
-2.02416
-1.63923
-1.5348
-1.00908
-0.675761
-0.13977
0.313413
0.786221
1.1824
1.49729
1.74535
-1.42359
-1.12733
-1.06727
-0.641978
-0.407984
0.0294812
0.384939
0.781118
1.11679
1.39627
1.6265
-1.06231
-0.738719
-0.656142
-0.278995
-0.10122
0.266479
0.543904
0.872196
1.14549
1.37751
1.56866
-0.470838
-0.248796
-0.223069
0.0895215
0.221571
0.536244
0.754023
1.02566
1.23936
1.41882
1.55889
0.0137223
0.181002
0.179975
0.448109
0.549424
0.823513
0.995674
1.2215
1.37829
1.5031
1.59061
0.310478
0.49862
0.518935
0.776561
0.874148
1.12399
1.25635
1.45562
1.54742
1.61225
1.6378
0.757615
0.889844
0.874989
1.11585
1.22056
1.45515
1.56831
1.69208
1.73019
1.73169
1.69552
1.32142
1.3681
1.27465
1.52023
1.62976
1.82087
1.89963
1.95129
1.91844
1.84784
1.74926
2.07695
2.0365
1.84453
2.10881
2.14519
2.24092
2.24608
2.20482
2.0889
1.94348
1.7807
3.26293
3.24331
2.91527
3.10711
2.83932
2.72693
2.58103
2.41645
2.21597
2.00503
1.7879
5.53276
5.49196
4.96514
4.64323
3.93155
3.38288
2.91505
2.57063
2.29084
2.0326
1.77579
7.75905
8.36271
7.61127
6.95959
5.76948
4.45035
3.40841
2.75474
2.35415
2.04347
1.75954
12.7372
12.4561
11.9249
10.7964
8.63021
6.36119
4.52937
3.30666
2.57413
2.08626
1.71255
11.196
12.3495
11.5986
10.2624
8.62658
7.12512
5.85367
4.81662
3.97977
3.3305
2.89239
-13.0313
-2.14021
2.01414
4.60875
5.27053
5.03155
4.39292
3.70019
3.0725
2.57303
2.24573
-25.5426
-14.9033
-9.88927
-4.19507
-0.763996
1.09157
1.80779
1.89907
1.75016
1.54982
1.41015
-28.8291
-21.9225
-18.4355
-12.1216
-7.46269
-3.93058
-1.74171
-0.539638
0.00613078
0.274155
0.46855
-27.8456
-23.9194
-22.1118
-16.9047
-12.6036
-8.51524
-5.42687
-3.29131
-1.9703
-1.18552
-0.630981
-25.816
-23.371
-22.5124
-18.7116
-15.4241
-11.6387
-8.39806
-5.79517
-3.89148
-2.65576
-1.74572
-23.8338
-22.0729
-21.5738
-18.7467
-16.3944
-13.2237
-10.2937
-7.66034
-5.52265
-3.90664
-2.69828
-21.9276
-20.5992
-20.2496
-17.9893
-16.2984
-13.6881
-11.2078
-8.77506
-6.6476
-4.88653
-3.48632
-20.2653
-19.1467
-18.8862
-16.9272
-15.6867
-13.4694
-11.4112
-9.24259
-7.25885
-5.51277
-4.05697
-18.8741
-17.7661
-17.6018
-15.7525
-14.8447
-12.8576
-11.1537
-9.22524
-7.43009
-5.78219
-4.34701
-17.604
-16.6597
-16.2855
-14.5764
-13.8727
-12.0152
-10.5992
-8.86132
-7.25627
-5.73758
-4.3985
-16.2182
-15.4283
-14.8698
-13.5034
-12.75
-11.0354
-9.83682
-8.25159
-6.82567
-5.44066
-4.23307
-14.8966
-14.1093
-13.527
-12.3402
-11.5167
-9.97553
-8.9147
-7.46818
-6.20686
-4.96256
-3.88121
-13.6577
-12.804
-12.2037
-11.0728
-10.2388
-8.86112
-7.87085
-6.56081
-5.44765
-4.35431
-3.37674
-12.26
-11.4042
-10.8251
-9.74353
-8.90739
-7.68215
-6.73033
-5.55678
-4.58181
-3.6523
-2.82506
-10.8294
-9.95736
-9.39731
-8.36507
-7.5377
-6.40536
-5.49928
-4.46928
-3.63654
-2.88651
-2.25598
-9.36504
-8.46227
-7.91596
-6.92848
-6.10386
-5.03739
-4.18782
-3.31089
-2.63619
-2.07902
-1.63666
-7.71331
-6.80932
-6.32662
-5.40011
-4.58366
-3.57234
-2.80279
-2.10007
-1.60958
-1.25536
-1.00074
-5.75427
-4.87102
-4.5648
-3.71348
-2.93461
-2.00621
-1.35522
-0.871402
-0.600829
-0.456599
-0.373396
-3.43149
-2.56886
-2.49377
-1.76034
-1.09468
-0.287437
0.119543
0.306323
0.326778
0.263838
0.163343
-0.789653
0.218204
0.139118
0.702508
1.11886
1.67003
1.54942
1.3417
1.11925
0.888974
0.669261
2.28194
3.65401
3.43203
3.82635
3.79387
3.77211
2.76866
2.09071
1.67787
1.36502
1.09787
6.0051
7.41449
7.67178
8.07244
7.30382
6.29299
4.22829
2.88364
2.15029
1.71265
1.38769
7.63107
11.1387
11.0475
10.4946
8.80522
6.56372
4.47258
3.16974
2.45575
1.9718
1.6645
-1.23183
1.60216
2.28109
2.23451
1.89696
1.49727
1.12062
0.783233
0.484476
0.233809
0.0754746
-17.2575
-8.56947
-5.06283
-2.64636
-1.21305
-0.54123
-0.283388
-0.230105
-0.272589
-0.349224
-0.395951
-19.6901
-14.0416
-11.3159
-7.93656
-5.18572
-3.33209
-2.19959
-1.55871
-1.21494
-1.02977
-0.905917
-16.7641
-14.7386
-13.5765
-10.8602
-8.21069
-5.94912
-4.22291
-3.04335
-2.28467
-1.80188
-1.47665
-13.4787
-13.0447
-12.8047
-11.247
-9.43917
-7.50589
-5.74001
-4.32853
-3.29246
-2.56235
-2.03068
-11.0606
-11.0507
-11.0682
-10.2874
-9.25326
-7.89704
-6.45927
-5.14087
-4.04443
-3.19374
-2.53223
-9.19654
-9.32705
-9.37389
-8.97952
-8.41113
-7.5366
-6.49795
-5.43467
-4.44945
-3.60956
-2.90466
-7.68806
-7.85408
-7.89333
-7.70271
-7.395
-6.84659
-6.13424
-5.33632
-4.53162
-3.79142
-3.12446
-6.56884
-6.64131
-6.6596
-6.57639
-6.41343
-6.07411
-5.59623
-5.01698
-4.38798
-3.77095
-3.18231
-5.77137
-5.74116
-5.72562
-5.67309
-5.57143
-5.35145
-5.02629
-4.60776
-4.12445
-3.62383
-3.11526
-5.1959
-5.06943
-5.03627
-4.9796
-4.89415
-4.73373
-4.4982
-4.18733
-3.81411
-3.41344
-2.99539
-4.80798
-4.5968
-4.529
-4.45181
-4.36103
-4.22477
-4.03673
-3.79244
-3.49602
-3.17078
-2.8245
-4.57045
-4.30424
-4.19584
-4.07918
-3.96063
-3.82044
-3.64861
-3.43884
-3.19028
-2.91745
-2.62306
-4.4004
-4.11077
-3.96835
-3.81408
-3.66302
-3.50537
-3.33047
-3.13188
-2.90752
-2.66724
-2.41388
-4.23759
-3.93674
-3.77162
-3.59046
-3.41639
-3.24462
-3.06311
-2.86472
-2.64884
-2.42561
-2.19875
-4.08188
-3.78374
-3.60745
-3.4122
-3.22089
-3.03638
-2.84364
-2.63487
-2.41286
-2.19189
-1.98077
-3.95424
-3.6673
-3.48952
-3.29257
-3.09177
-2.89173
-2.67801
-2.44406
-2.19899
-1.96432
-1.7531
-3.85978
-3.58831
-3.41457
-3.22317
-3.01914
-2.80171
-2.55763
-2.28448
-2.00238
-1.74412
-1.53126
-3.79364
-3.54218
-3.37792
-3.19717
-2.99223
-2.75322
-2.46768
-2.14358
-1.81669
-1.53066
-1.30952
-3.75041
-3.52297
-3.37422
-3.20516
-2.99329
-2.72184
-2.38475
-2.00725
-1.63947
-1.33132
-1.09188
-3.71405
-3.52082
-3.39354
-3.22733
-2.99215
-2.67626
-2.28808
-1.87258
-1.48673
-1.16816
-0.906463
-3.63595
-3.51939
-3.41303
-3.22553
-2.94753
-2.5864
-2.16773
-1.74981
-1.38106
-1.08387
-0.846951
-3.64606
-3.5925
-3.43886
-3.17461
-2.84739
-2.47936
-2.09935
-1.74484
-1.43618
-1.16511
-0.843016
-3.66856
-3.29004
-2.95412
-2.66722
-2.40082
-2.13302
-1.87246
-1.64486
-1.47559
-1.36573
-1.30504
15.6481
11.0009
7.72809
5.56531
4.07243
3.0251
2.2499
1.6389
1.14346
0.747998
0.476545
12.4072
12.1856
10.4406
8.32142
6.34962
4.75138
3.51211
2.54775
1.80007
1.23648
0.861896
7.80308
9.22354
9.21562
8.51049
7.19686
5.68693
4.30487
3.1714
2.27533
1.59343
1.1387
3.62029
5.85193
6.58768
6.87644
6.48422
5.61287
4.53919
3.49172
2.56133
1.8152
1.32508
0.645841
2.79329
3.69081
4.5841
4.94253
4.77265
4.17837
3.38742
2.5825
1.88251
1.40009
-1.32026
0.484621
1.23204
2.30372
3.00215
3.32978
3.24462
2.84757
2.29704
1.73915
1.31777
-2.59267
-1.10395
-0.573292
0.473798
1.2452
1.80304
2.04578
2.00274
1.73533
1.37286
1.08463
-3.37682
-2.15492
-1.83872
-0.862808
-0.169713
0.465687
0.88021
1.06647
1.03951
0.877456
0.726178
-3.9778
-2.88174
-2.77057
-1.80582
-1.26323
-0.620415
-0.135133
0.18226
0.321111
0.325921
0.288604
-4.49485
-3.52531
-3.38674
-2.59999
-2.07279
-1.47288
-0.975238
-0.587724
-0.338782
-0.210285
-0.137454
-4.88397
-4.15509
-3.85841
-3.20551
-2.70748
-2.1418
-1.64935
-1.22861
-0.912583
-0.701415
-0.545085
-5.13591
-4.53208
-4.23649
-3.65632
-3.19218
-2.65879
-2.17822
-1.74397
-1.38822
-1.12168
-0.919693
-5.35092
-4.78985
-4.51573
-3.9843
-3.54871
-3.04425
-2.57876
-2.14244
-1.7655
-1.46057
-1.22836
-5.55541
-4.98924
-4.71812
-4.21574
-3.79955
-3.31829
-2.8672
-2.43477
-2.04934
-1.72181
-1.4615
-5.60132
-5.08188
-4.83601
-4.36271
-3.96223
-3.50019
-3.06102
-2.63485
-2.24839
-1.91028
-1.63755
-5.60334
-5.11693
-4.8864
-4.43835
-4.04874
-3.60328
-3.17364
-2.75505
-2.37259
-2.03406
-1.76002
-5.59212
-5.11749
-4.88561
-4.4547
-4.06833
-3.63526
-3.21307
-2.80357
-2.42971
-2.09828
-1.82109
-5.5186
-5.06083
-4.82699
-4.41155
-4.02343
-3.59891
-3.18347
-2.78582
-2.42652
-2.11379
-1.85368
-5.38562
-4.94569
-4.70711
-4.30486
-3.91156
-3.49325
-3.08662
-2.70592
-2.36784
-2.07865
-1.83786
-5.20658
-4.77722
-4.52447
-4.12937
-3.72808
-3.31647
-2.92512
-2.56958
-2.26042
-2.00011
-1.78183
-4.9703
-4.54237
-4.26519
-3.87239
-3.46649
-3.06996
-2.70715
-2.38818
-2.11522
-1.88739
-1.69834
-4.64463
-4.20943
-3.89735
-3.51107
-3.12021
-2.76077
-2.44635
-2.17534
-1.94167
-1.74292
-1.57782
-4.27006
-3.77031
-3.42852
-3.0853
-2.7517
-2.45768
-2.20492
-1.98202
-1.77922
-1.59672
-1.45018
-3.35981
-2.93486
-2.67104
-2.45716
-2.25709
-2.07597
-1.90857
-1.74732
-1.58267
-1.41016
-1.25566
-1.14721
-1.69439
-2.28573
-2.15495
-1.36384
-0.373612
0.217404
0.516362
0.397217
-1.1162
-1.39294
-1.79166
-1.64836
-1.0826
-0.34701
0.122031
0.3683
0.259129
-1.06722
-1.32068
-1.65636
-1.55824
-1.00523
-0.36449
0.0314919
0.241798
0.140097
-1.00779
-1.23152
-1.47943
-1.33672
-0.920642
-0.38916
-0.0454232
0.14359
0.0207452
-1.079
-1.12383
-1.23748
-1.47501
-1.87252
-2.20633
-2.08241
-1.40761
-0.425237
-1.08235
-1.1247
-1.21719
-1.3636
-1.59758
-1.79956
-1.65389
-1.14537
-0.398042
-1.06035
-1.10507
-1.1809
-1.31066
-1.51505
-1.68896
-1.57676
-1.07955
-0.407268
-1.03853
-1.05951
-1.13041
-1.24011
-1.38668
-1.50023
-1.38046
-1.00301
-0.433754
1.16617
1.14067
1.13381
-0.763714
-0.751223
0.970471
-1.07575
0.826581
0.962262
1.60873
-0.774448
0.830598
-0.616919
-0.191114
1.16331
0.464068
-0.168127
-0.778089
0.462711
1.22462
0.306299
-0.878209
0.615187
-0.259646
1.18028
-0.194235
-0.605142
-1.05829
-0.406435
-0.509906
-0.169856
0.603659
-0.0446549
0.561973
0.617735
1.13328
-0.26625
1.17793
-0.040269
0.81113
-0.555223
0.567363
-0.0444325
0.620014
-0.879699
-1.09697
-0.579787
-1.40936
1.02788
0.799494
-0.498988
0.816927
-0.00114273
-0.0617923
0.785134
0.307086
-0.861897
0.796479
-0.270677
-0.117651
-0.101116
-0.000815363
-0.802022
-0.752596
-0.66984
1.21793
-0.254415
0.845454
1.13041
1.58218
-0.287681
1.65116
-0.92217
1.66644
-0.363454
1.54567
-0.786313
0.582709
-0.891398
-1.07492
-0.365403
-0.755329
1.18223
1.18172
-0.166469
-0.924729
-0.531678
0.0131327
-0.782776
-0.277253
1.11621
0.791606
-0.58177
1.2893
-1.0355
-1.39304
-0.350361
-0.530026
-0.744035
1.68152
0.100964
-1.32987
1.331
0.111816
-0.71932
1.04627
-0.0259783
1.18006
-0.0987188
0.101568
0.630619
0.564321
1.36002
-0.770141
-0.666049
1.18169
0.782937
0.529012
0.864101
1.1799
-0.763313
1.74205
-0.0809371
-0.190198
-1.03337
-0.582315
-0.0950565
-0.0257878
-0.0142056
-0.0741278
0.705661
-0.12858
-1.36404
1.57774
1.08466
-0.244477
-0.795996
-0.749562
-0.524965
1.19041
0.000868413
0.248956
-0.918832
0.897331
0.768198
-0.782784
-0.465314
0.836623
1.74159
0.535123
0.613648
1.00756
-0.790821
1.6804
-0.775822
-0.123723
-0.907503
-0.790058
-0.17922
1.22889
-0.497446
-0.715799
1.60859
1.2148
-0.232902
-0.242427
-0.82296
0.203023
-0.534945
-0.684927
-0.0537166
-0.0616767
-0.513419
0.204301
0.637538
0.571286
-0.00711082
-0.75607
-0.900578
0.611085
0.812477
-0.863663
1.09929
-0.699209
0.975964
-0.686366
0.607232
0.511688
1.18325
-0.895696
-0.115262
-0.349292
1.16771
-0.549058
1.12379
1.23482
1.0089
-0.738972
-0.0770047
1.17908
-0.668306
0.860531
-0.197628
-0.215662
1.08964
0.017331
1.26421
-0.0136693
0.852365
1.17036
-0.291406
0.510229
0.125502
0.723536
0.586819
-0.108106
1.12163
-0.718744
0.658721
-0.654961
0.000339069
-0.795034
-0.362427
-0.703826
-0.15985
0.75354
-0.663167
-0.212147
-0.0944774
-0.815727
-0.78156
1.16213
0.617659
1.8274
-0.760907
-0.958066
-0.278722
1.10389
0.726404
0.730286
-0.683171
-0.488366
0.0639459
-0.544897
1.02359
-0.739862
0.554002
-0.270177
-1.15869
-0.329723
-0.261326
-0.297095
0.475219
1.26652
-0.219853
0.998517
0.349376
1.18091
-0.708725
0.595463
-0.0066533
-0.427138
1.16004
0.60171
0.62572
-0.687514
0.224955
0.827442
-0.42004
-0.387592
-0.775396
0.667438
0.885689
-0.574898
1.20259
0.527687
-0.226447
1.11425
1.15859
-0.720679
1.68947
0.89996
-0.363975
-0.291241
-0.184115
1.21956
-0.583708
0.767292
1.03245
0.01729
0.702361
-1.02816
0.158132
-0.182357
1.12414
0.848384
-0.539975
0.628383
0.687138
-0.254409
0.920305
-0.735675
0.923217
-0.52669
0.363849
0.0771036
0.596804
-0.048512
-0.847745
0.642727
-1.02649
1.03942
0.0398905
-0.0301769
-0.896526
1.08004
-0.607305
-0.772807
1.10189
1.39113
0.583254
-0.213854
0.51396
-0.382571
-0.80935
0.246459
0.558737
-0.557249
1.15499
-0.269799
0.719816
-0.806658
-0.730157
0.993643
-0.629581
-1.13414
-0.929062
0.602256
1.10788
-0.513317
-0.573452
-0.279025
0.869872
-0.259363
-0.760499
-0.0661259
-0.355432
0.539659
-0.282638
-0.144289
-1.07189
-0.528092
-0.362334
0.374579
-0.118925
1.17936
-0.00172665
0.82284
0.60833
-0.290948
-0.374192
-0.238838
1.11994
1.17962
1.29364
-0.804305
-0.0597684
-0.0926091
-1.12601
0.00863902
1.12609
-0.731493
-1.15455
-0.0826976
-0.169968
0.694977
-0.222871
0.585483
1.23579
0.539433
-0.316779
1.2447
-0.730434
0.738444
-0.346311
-0.186682
-0.747479
-0.159015
-0.493657
-0.826373
1.00841
-0.941842
-0.0610294
2.15212
-0.179628
-0.660132
0.590263
0.569287
0.894371
-0.402294
-0.7208
1.18244
0.990177
0.0434499
0.000662859
-0.642182
-0.903135
-0.13213
0.845128
-0.195352
0.253745
0.454669
-0.194754
-0.1858
-0.887205
-0.0116197
-0.1247
1.75769
-0.0279178
-0.91796
-0.686206
-0.0355125
-1.11527
-0.0417477
0.546703
0.129064
1.65514
-0.0360975
-0.490687
-0.760682
0.544338
-0.767584
-0.396396
1.06558
-0.414195
0.0074879
-0.405882
-0.533483
-0.195143
0.538584
-0.127114
-0.589949
-0.564059
-0.74366
0.365151
0.0113428
-0.0676972
-0.712532
1.25736
-0.738141
0.998744
1.18193
1.11636
-0.878064
-0.482981
-1.13656
-0.057211
-0.722501
-0.00895149
1.18988
1.26491
-0.117969
-0.0991002
-0.24441
0.276842
-0.0195629
-0.0128739
1.17551
0.520539
0.73337
0.536397
-0.721776
0.490466
-0.123916
0.326591
0.703872
0.660455
1.16256
-0.716085
0.603868
1.20053
0.320862
-0.768875
-0.846165
0.605293
-0.808587
-0.836737
0.931571
0.00968859
1.21417
-0.634056
1.23868
0.337759
0.74565
-0.0133211
-0.180935
1.17892
-0.387369
0.0772134
0.825713
-0.527634
-0.555311
0.962857
1.18914
-1.1313
0.0332559
-0.804372
0.68432
-1.28318
0.536323
-0.248801
-0.168633
-0.828144
-0.23882
0.108894
-0.219563
-0.386472
-0.379568
0.541077
-0.466185
1.08357
0.908636
1.15959
0.697103
0.297603
-0.339183
0.82572
1.21531
-0.421469
0.926469
-0.945219
-0.250474
-0.035613
-0.287987
-0.805988
1.15995
1.15033
0.90277
-0.575977
-0.70925
0.55141
1.20275
-0.183449
0.982147
-0.582886
0.982658
-0.182805
1.12704
-0.831837
-0.0735166
-0.0350369
-1.22368
-0.237837
0.361233
0.206828
1.69431
0.678777
0.00346451
-0.748952
1.13333
-0.186031
-0.672406
-1.58493
1.16819
1.03551
1.04156
-0.0797842
-0.265155
-0.0409674
0.999651
0.707847
-0.30148
1.28643
-0.252087
-0.04208
-0.111033
-0.822047
0.621022
-0.0261895
1.15859
-0.374213
1.16362
-0.362501
-0.00993312
0.704085
-0.895845
-0.253022
0.831591
0.579854
-0.995602
1.21872
-0.467555
-0.671046
-0.387902
-0.0955057
-0.560605
-0.610496
1.52684
0.84072
0.970037
-1.34454
-0.676594
-0.18147
1.20557
1.16062
-0.894902
0.582791
1.28502
0.271869
1.6806
-0.403548
-0.431166
-0.346619
-0.403936
-0.0957909
0.496401
1.26034
-0.283722
1.56532
0.919931
-1.18632
-0.291373
0.503746
1.23796
-0.778423
1.31209
1.25905
-0.060752
1.04399
0.234019
-0.641633
-0.163959
-0.316002
-0.0285593
-0.0371971
-0.892981
-0.146851
-0.240989
-0.347876
-0.470147
-0.818942
-0.942951
-0.219328
0.538877
0.393954
-0.810305
-0.103238
0.480814
0.129685
-0.414386
-0.0238448
-1.15295
-0.436251
-0.20836
0.565247
0.382884
1.16652
0.567485
1.3522
-0.658265
1.5639
0.641352
0.43497
0.6728
-0.616167
-0.0698137
-0.827139
1.58559
0.582386
0.825628
0.0554807
1.38793
-0.935748
1.4447
-0.409542
-0.0581005
0.597575
0.00384516
1.18628
-0.0559332
-0.631764
-0.390445
-1.22753
-0.488755
-0.110153
1.18002
-0.0254507
-0.104519
-0.877668
-0.150879
0.529789
0.0163181
1.18124
-0.387137
0.465465
-0.759701
1.00901
0.864224
1.21997
-0.596593
-0.278646
1.1628
-0.0106577
1.13761
-0.19329
-0.18694
0.191201
-0.661842
-0.569509
-0.119054
-0.168224
-0.515603
-0.62301
-0.291403
-0.0342546
-1.09093
0.541184
-0.429243
0.692856
0.681011
-1.01636
-0.49711
-0.644821
-0.172103
1.27742
0.24231
1.15838
-0.685506
1.18919
-0.00488152
0.0279118
-0.17708
0.174739
-0.261442
-0.035076
-0.100042
1.90868
-0.638169
-0.653661
-0.751492
0.644128
-0.255891
-0.69455
1.12642
-1.00843
-0.038337
1.48908
-0.424131
0.712076
0.385272
1.30582
-0.0512261
1.74071
-0.0926539
1.05777
-0.0656107
1.70251
-0.189555
0.0319365
-0.286747
-0.0651974
0.500873
-0.418917
-1.23518
1.19771
-0.0847614
-0.201603
0.0146991
0.423756
-0.782433
0.216395
-0.688216
-0.0889075
0.435415
0.547921
-0.208105
0.561911
-0.352435
-0.643094
1.12944
0.855505
0.140713
-0.848766
-0.257305
-0.610173
0.817096
-0.439016
0.147587
0.555621
1.18289
1.01989
0.688694
0.997817
-0.0189295
-0.931372
-0.717584
-0.0714614
-0.449861
1.21108
0.745647
-0.316153
-0.254727
1.1038
-0.363065
-0.32944
-1.24589
-0.304155
-0.332552
0.392705
-0.682645
1.21295
0.705618
-1.02037
1.1308
0.827752
0.108944
-0.0352874
-0.164648
-0.129375
1.13015
-0.453792
-0.607982
-0.932593
0.808232
-0.0405784
0.0190723
-0.310581
-0.783813
1.18683
0.538753
-0.73906
-0.437928
0.000830812
1.1819
0.450071
1.41865
1.16538
0.793099
-0.190372
-0.372144
-0.958646
-1.18458
0.0367463
0.952781
-0.714284
1.18579
1.45149
-0.0991218
0.739326
1.10833
0.819619
-0.762582
-0.0549811
-0.146509
1.11521
-0.660326
1.19491
1.05204
1.05156
1.23997
0.134733
0.605627
1.09566
1.13377
-1.1017
0.559632
1.2501
-0.471065
-0.941467
0.705407
1.11327
-0.743165
-1.14462
0.56836
-0.243601
-0.362789
-0.774301
0.677734
1.16739
0.253447
0.85863
0.00909338
0.76005
-0.41365
-0.202174
-0.154757
-0.104395
0.626763
-0.241509
1.14714
0.603509
1.85444
0.661154
0.587579
-0.535405
-0.974587
-0.171742
-0.291906
-0.117216
-0.0202125
-0.117429
-0.903106
0.580463
0.632292
-0.0205749
-0.00529598
-0.277374
0.855224
-0.816454
1.33721
-0.656353
1.29375
-0.0224027
-0.0899768
-0.716126
-0.255103
1.26128
1.16639
-0.300919
-0.791604
-0.0394032
-0.408419
-0.412131
0.176746
0.3862
-0.175746
1.14577
1.0874
-0.461934
-0.773301
-0.675733
-0.678744
-0.0436514
-0.227816
-0.111569
-0.872625
1.18804
0.177241
-0.111014
1.21755
0.472102
1.05505
-0.284883
-0.147129
-0.137117
1.18845
-0.26135
0.957554
0.808326
-0.135331
-0.738317
0.589795
1.10595
1.14405
-0.383394
-0.472139
-0.903871
-0.00828228
1.33719
-0.58599
-0.708372
-0.838242
1.18349
-0.124548
-0.060579
0.948482
-0.0439686
0.898403
-0.158781
-0.198247
-0.117551
-0.656751
1.03245
1.22746
-0.777451
-0.212366
0.583774
-0.133041
1.11651
-1.00396
-0.0263255
-1.56532
1.15416
-0.0355796
-0.649084
-0.500881
-0.0408939
-0.096285
1.17933
-0.0184197
-0.785172
0.589757
0.0988466
-0.23118
-0.900676
-0.233117
-0.34584
0.853988
1.27214
-0.77596
0.361748
-0.617331
-0.104586
-0.0228801
-0.270199
0.797498
-0.747585
-0.719968
-0.0494986
-0.272388
0.014916
1.23783
-0.437791
-0.0296087
1.19372
1.42669
1.07565
-0.398149
0.187072
0.942731
-0.520402
0.0539749
-0.0921183
0.635557
-1.05775
-0.562418
0.25407
-0.459678
0.550035
1.6583
1.13936
-1.15613
0.576087
-0.0566131
-0.0984625
-0.736508
0.606101
0.368752
1.18442
1.20666
-0.820304
-0.340574
0.0374398
-0.884891
-0.800499
-0.845298
1.4444
0.0952808
-0.730653
1.18667
-0.100626
-0.0464166
0.838421
-0.234847
-0.520683
-0.307221
0.41834
-0.143025
1.18732
-0.309703
0.655862
-1.12345
-0.544258
1.79643
-0.917445
-0.275324
0.292942
-0.348285
0.0209645
-0.384946
-0.286858
0.413515
-0.926414
-0.0631209
-0.750674
-1.18478
-0.269872
1.02743
-0.500962
0.947772
-0.410136
-0.249318
-0.701582
0.343999
-0.456122
-0.870544
1.22564
0.83086
0.237915
0.650611
-0.147743
-0.39241
1.54962
-0.230532
-0.517798
0.639565
-0.844032
-0.987728
-0.291575
-0.397617
-0.610291
-0.592347
-0.0626987
-0.13059
1.21445
1.19605
-0.265637
1.24205
1.09767
-0.391788
1.17979
1.05644
-0.303395
1.92331
-1.1969
-0.125494
-0.901334
1.27726
-0.449362
-0.0401482
-0.24129
-1.22299
1.19539
-0.115942
-0.480611
-0.123723
0.00896398
0.467387
-0.0984047
1.12749
-0.608447
-0.143619
0.935235
1.26838
-0.794403
-0.244048
-0.524868
-0.732743
-0.184783
1.36565
1.08191
1.19697
-0.338939
-0.00532726
-0.0948012
-0.701944
-0.613626
2.05864
0.363043
1.14178
1.017
-0.729016
1.25322
0.575731
-0.840771
-0.376976
-1.28946
-0.847992
0.646085
0.521258
-0.0464578
-0.735084
-0.287921
-1.05925
-0.300363
1.02563
0.668129
-0.261422
-0.188441
-0.0714601
-0.272679
1.22893
-0.257986
-0.0393218
-0.926218
0.377222
-0.346022
-0.921632
0.84705
-0.514385
0.576245
1.61109
-0.769255
-0.119069
-0.355211
0.312995
1.14707
-0.284561
-0.49425
-0.679964
-0.362627
-0.684894
-0.495126
0.791927
-1.15173
-0.670606
1.1837
-0.0181061
-0.0799658
1.15743
-0.323944
1.19491
1.16738
1.61253
-0.573866
-0.00883748
0.52276
-0.409663
1.1879
0.595666
1.18242
-0.21836
0.538926
-0.237753
-0.541112
1.19287
-0.746228
-0.89081
-0.221312
-0.735021
-0.439219
-0.484888
-0.011086
0.834094
0.609747
1.06265
-0.112981
1.17956
0.593156
-0.384515
-0.772065
-0.206866
-0.0950667
0.0116564
0.942522
-0.677104
-0.546399
0.536078
-0.24815
0.49766
-0.0334893
1.1055
-0.114138
0.305226
1.44798
0.919583
-0.691727
-0.0693267
0.972586
-0.257889
0.527978
-0.00985827
-0.15199
-0.699038
-0.324606
1.22447
1.1592
-0.073474
-0.457136
-0.145321
-0.0399833
-0.713433
-0.0542886
1.19951
-0.918796
-0.073019
1.2518
-0.911712
-0.884507
-0.452701
-0.738015
-0.664351
-0.0128586
-0.929309
-0.628878
0.540138
0.800203
-0.0531284
-0.324869
-0.225603
0.584722
-0.503053
1.11812
1.76461
-0.916338
1.19361
0.812498
-1.03944
-0.760375
0.886303
1.1771
0.945619
0.312809
0.6529
1.30695
-0.611195
-0.0288615
0.51351
1.0192
-0.877312
0.682996
-0.0702757
1.13464
0.446659
0.823228
-0.457207
-0.91623
-0.26757
1.26578
0.601472
-0.179489
-0.0967931
1.19022
-0.478766
-0.288853
1.0817
-0.380135
-0.200082
-0.756572
-0.449102
-0.523444
0.802159
-0.670388
0.991634
0.322421
1.35762
0.502773
1.19493
-0.269811
1.32566
-0.756236
1.11093
1.19655
-0.803511
0.621003
1.15714
-0.67387
-0.304128
-0.859585
1.24189
0.330281
1.00256
-0.152054
-0.099233
-0.579704
0.667535
-0.578247
-0.52561
0.640339
0.516928
0.580007
0.245184
-0.720828
1.38626
-0.181403
1.57724
-1.07764
-0.0050719
-0.271443
-0.138988
0.909782
-0.17557
1.11271
-0.282875
-0.804235
1.22916
1.19461
-0.0688788
0.238998
0.407684
1.47472
-0.526521
1.1719
-0.777499
-0.773692
-0.172019
-0.18504
0.525545
-0.575609
1.09487
-1.08952
-0.415418
0.0177469
-0.258285
1.17578
0.61526
1.22397
0.490981
-0.0782659
0.264028
1.32638
-0.107969
-0.672239
0.672563
0.266953
-0.988385
-0.0653305
1.18371
-0.129209
1.50388
2.07611
-0.270066
1.22955
-0.0512098
-0.123436
0.344715
1.10218
-0.343784
-0.767675
1.30148
-0.0683216
1.19293
1.65099
-0.270954
0.355845
-0.280549
1.18605
1.25507
-1.19392
0.153267
0.569908
-0.378378
0.34553
0.687428
0.506511
0.592503
0.500974
-0.165166
-0.580883
-0.445555
-0.786562
0.676289
0.932939
-0.70148
-0.0139093
0.38195
0.170926
-0.383122
1.29273
-0.110269
0.81328
-0.283751
0.998838
1.32863
-0.0431109
-0.503916
-0.216133
1.15595
1.26267
1.28745
1.16934
0.767114
-0.431589
-0.314718
-0.647151
-0.591552
-0.0811814
0.226306
0.676436
0.697012
-0.91185
1.55664
-0.0944161
-1.06538
0.248632
-0.308926
-0.502638
0.378298
1.18011
-0.0803981
-0.54381
-0.293992
0.348261
-0.266793
-0.106447
-0.665335
-0.048352
-0.216318
0.632667
-0.267236
-0.452145
-0.936667
-0.447613
-0.672437
-0.0483607
1.18105
1.47817
-0.711811
1.15666
-0.193771
-0.205367
-0.00540569
-0.42315
-0.272781
-0.642806
-0.303167
-0.294454
0.994217
-0.205296
-0.118642
-0.247114
-0.420189
-0.734866
1.18641
-0.896434
1.00453
-0.0688396
-1.10004
-0.437307
-0.791135
-0.676777
-0.268792
1.08004
1.42387
0.629515
1.30664
1.22711
0.432899
0.626006
-0.635728
1.20563
-0.308899
-0.75279
0.501646
1.1838
-0.416437
-0.546899
1.07737
0.0561804
0.609992
1.70669
-0.104331
-0.574034
1.17401
0.476589
0.439339
0.549855
1.44297
1.10861