/*--------------------------------*- C++ -*----------------------------------*\
| =========                 |                                                 |
| \\      /  F ield         | OpenFOAM: The Open Source CFD Toolbox           |
|  \\    /   O peration     | Version:  3.0.1                                 |
|   \\  /    A nd           | Web:      www.OpenFOAM.org                      |
|    \\/     M anipulation  |                                                 |
\*---------------------------------------------------------------------------*/
FoamFile
{
    version     2.0;
    format      ascii;
    class       volScalarField;
    location    "0.951014";
    object      p;
}
// * * * * * * * * * * * * * * * * * * * * * * * * * * * * * * * * * * * * * //

dimensions      [0 2 -2 0 0 0 0];

internalField   nonuniform List<scalar> 
21246
(
9.21466
10.8226
10.1487
8.89123
7.44147
6.15857
5.05995
4.14456
3.37442
2.76144
2.46101
-18.2089
-5.35203
-1.38772
1.91342
3.09746
3.38416
3.13653
2.75118
2.32146
1.9246
1.71377
-27.9801
-17.21
-13.2901
-7.06846
-3.44448
-1.01848
0.193381
0.712607
0.872553
0.881828
0.912528
-27.1774
-21.769
-19.7334
-13.533
-9.55503
-5.84909
-3.39455
-1.80714
-0.94205
-0.416944
-0.0490953
-23.4575
-21.2418
-20.6585
-16.1845
-13.2503
-9.43405
-6.58159
-4.34288
-2.80955
-1.8327
-1.08031
-19.9457
-18.9347
-18.8663
-16.0743
-14.3428
-11.1541
-8.62331
-6.27292
-4.45502
-3.11064
-2.09051
-16.8919
-16.427
-16.4528
-14.6989
-13.7398
-11.3669
-9.43986
-7.3258
-5.55072
-4.08599
-2.89962
-14.1162
-14.0036
-14.0634
-12.9271
-12.3819
-10.6923
-9.32789
-7.58979
-6.04796
-4.65965
-3.47397
-11.7937
-11.8077
-11.8636
-11.1265
-10.8032
-9.60494
-8.65524
-7.30042
-6.04849
-4.82727
-3.7283
-9.94226
-9.93933
-9.95604
-9.46206
-9.24889
-8.39583
-7.72573
-6.69191
-5.7075
-4.68369
-3.71222
-8.28881
-8.27153
-8.28653
-7.95482
-7.80952
-7.20243
-6.7216
-5.93861
-5.17256
-4.33963
-3.54069
-6.81929
-6.77674
-6.79231
-6.59068
-6.50593
-6.0814
-5.73484
-5.14351
-4.54592
-3.86712
-3.20131
-5.71462
-5.6002
-5.58563
-5.45036
-5.39021
-5.08541
-4.82433
-4.3703
-3.89621
-3.34067
-2.78758
-4.92844
-4.73623
-4.69463
-4.57727
-4.50146
-4.25423
-4.02921
-3.65978
-3.26749
-2.80801
-2.36312
-4.30577
-4.05471
-3.99974
-3.88797
-3.79067
-3.56795
-3.34767
-3.02118
-2.67483
-2.27804
-1.8914
-3.85391
-3.55896
-3.48122
-3.35463
-3.22626
-3.00103
-2.76146
-2.44514
-2.11755
-1.7642
-1.43625
-3.53266
-3.21128
-3.10397
-2.95266
-2.78151
-2.52895
-2.24807
-1.91495
-1.58672
-1.26367
-0.973622
-3.26217
-2.92243
-2.78544
-2.60586
-2.39394
-2.10372
-1.76982
-1.40386
-1.06664
-0.771806
-0.529727
-3.00616
-2.65782
-2.4948
-2.28697
-2.0308
-1.68848
-1.29096
-0.886281
-0.545263
-0.287625
-0.113209
-2.74924
-2.39705
-2.21584
-1.97926
-1.66494
-1.24582
-0.777066
-0.344154
-0.0197043
0.18794
0.308793
-2.4785
-2.13614
-1.94019
-1.65349
-1.24466
-0.727397
-0.199859
0.220946
0.49371
0.637461
0.719731
-2.14043
-1.87367
-1.61702
-1.22116
-0.676157
-0.0744617
0.436648
0.767594
0.942842
0.998642
1.02131
-1.99508
-1.61921
-1.20014
-0.604469
0.0628929
0.643348
1.02292
1.21479
1.32232
1.32115
1.60906
-1.08364
-0.522845
0.134195
0.724172
1.1216
1.31809
1.35105
1.31587
1.25511
1.1934
1.35738
28.0419
21.7564
16.6539
12.8226
10.08
8.04426
6.45128
5.18858
4.17542
3.3896
2.89826
18.3515
19.3108
18.0012
15.4383
12.4383
9.79749
7.70929
6.11063
4.87469
3.94808
3.36343
8.42649
12.7343
13.5989
13.5627
12.2091
10.3433
8.44919
6.74312
5.34896
4.30208
3.61293
1.07227
5.97901
7.75381
9.56598
9.94412
9.23149
8.02893
6.67423
5.40665
4.38725
3.72615
-3.26549
0.811227
2.38371
4.9604
6.3319
6.88745
6.60399
5.89045
5.00024
4.17208
3.57849
-5.5851
-2.4249
-1.38649
1.20922
2.8019
4.08055
4.55609
4.51154
4.11219
3.59516
3.17252
-6.77871
-4.25263
-3.69779
-1.3157
-0.0166375
1.5856
2.45554
2.90844
2.95943
2.78842
2.59622
-7.29309
-5.22259
-5.08444
-2.82529
-1.95477
-0.381954
0.63943
1.38259
1.76218
1.89291
1.93087
-7.64743
-5.79366
-5.91699
-3.91273
-3.15117
-1.76843
-0.76409
0.100669
0.678404
1.0241
1.25225
-7.93305
-6.38037
-6.20881
-4.74839
-3.96428
-2.7303
-1.78669
-0.891526
-0.213641
0.272652
0.632417
-8.09168
-6.90321
-6.45778
-5.2593
-4.51398
-3.38991
-2.5048
-1.616
-0.89631
-0.327985
0.112438
-8.04156
-7.05882
-6.6077
-5.54195
-4.84427
-3.80949
-2.97835
-2.11071
-1.3816
-0.770816
-0.293601
-7.97296
-7.04769
-6.62526
-5.64488
-4.99265
-4.02571
-3.24474
-2.40518
-1.6872
-1.06026
-0.570909
-7.92112
-6.96117
-6.54689
-5.613
-4.99124
-4.07631
-3.3358
-2.52744
-1.83174
-1.20974
-0.708906
-7.62864
-6.72825
-6.35657
-5.4666
-4.86476
-3.99412
-3.28129
-2.50529
-1.83533
-1.23252
-0.738473
-7.28519
-6.41945
-6.07395
-5.22085
-4.62716
-3.79593
-3.10023
-2.35834
-1.71739
-1.14742
-0.677583
-6.9394
-6.06917
-5.71907
-4.89085
-4.28785
-3.48939
-2.80361
-2.09874
-1.49336
-0.970418
-0.541501
-6.50154
-5.63688
-5.27626
-4.47201
-3.84669
-3.07542
-2.39807
-1.73558
-1.17644
-0.711271
-0.333692
-5.97243
-5.11625
-4.73444
-3.95208
-3.29619
-2.54942
-1.88812
-1.27938
-0.78167
-0.386237
-0.0808484
-5.37224
-4.51081
-4.08491
-3.31582
-2.62589
-1.90684
-1.28117
-0.745526
-0.325873
-0.0146098
0.20943
-4.67511
-3.79086
-3.29779
-2.53724
-1.82645
-1.15367
-0.598945
-0.15795
0.164721
0.382343
0.519286
-3.81884
-2.89418
-2.31652
-1.58234
-0.898495
-0.315493
0.126319
0.451749
0.669703
0.795047
0.850248
-2.87202
-1.79193
-1.16642
-0.541186
0.0283629
0.468867
0.777897
0.98933
1.11064
1.14897
1.1406
-0.942593
-0.0723488
0.359992
0.728748
1.04753
1.27638
1.44436
1.59808
1.69655
1.68275
1.5047
-7.13559
-2.47433
-0.645142
0.22723
0.642223
0.834935
0.89885
0.887343
0.828452
0.752107
0.743665
-15.4429
-8.67117
-5.88928
-3.75384
-2.06821
-0.989892
-0.382852
-0.0439469
0.130133
0.213744
0.285609
-12.7846
-10.3738
-8.85731
-6.81712
-4.74364
-3.10496
-1.9472
-1.17882
-0.701649
-0.401659
-0.171231
-8.92119
-8.79298
-8.54068
-7.50011
-6.04494
-4.56443
-3.2719
-2.26834
-1.54875
-1.05732
-0.695592
-6.77918
-7.00774
-7.02956
-6.70103
-6.00841
-5.04612
-3.99184
-3.02571
-2.23774
-1.64397
-1.17801
-5.78936
-5.83694
-5.85188
-5.7405
-5.4348
-4.89056
-4.1642
-3.38555
-2.66449
-2.06619
-1.57067
-5.41511
-5.24415
-5.19802
-5.10604
-4.91061
-4.56366
-4.06215
-3.46413
-2.85261
-2.30024
-1.8249
-5.2761
-4.97443
-4.89943
-4.75468
-4.56201
-4.28638
-3.89506
-3.40965
-2.88549
-2.37791
-1.93008
-5.16625
-4.84366
-4.73817
-4.55074
-4.34796
-4.09423
-3.74821
-3.31291
-2.82535
-2.34764
-1.91313
-5.09233
-4.77357
-4.63655
-4.43465
-4.22729
-3.97533
-3.63957
-3.21768
-2.74118
-2.26029
-1.81857
-5.03574
-4.72761
-4.57518
-4.36604
-4.1535
-3.89489
-3.55383
-3.12395
-2.63392
-2.13309
-1.66909
-4.96976
-4.66575
-4.51167
-4.29855
-4.0792
-3.81179
-3.46105
-3.01573
-2.50266
-1.97355
-1.46964
-4.88439
-4.58506
-4.42867
-4.21044
-3.97808
-3.70372
-3.34249
-2.88094
-2.3449
-1.79056
-1.26464
-4.77683
-4.48331
-4.32289
-4.10032
-3.85018
-3.56473
-3.19402
-2.71928
-2.1648
-1.58988
-1.04363
-4.65444
-4.36366
-4.20006
-3.97272
-3.70775
-3.40211
-3.02343
-2.54217
-1.97626
-1.38957
-0.823787
-4.52408
-4.23816
-4.07232
-3.83997
-3.5697
-3.24817
-2.8633
-2.37697
-1.80936
-1.21896
-0.65348
-4.39787
-4.12003
-3.95575
-3.72462
-3.45505
-3.13661
-2.74785
-2.26394
-1.69823
-1.10821
-0.533432
-4.285
-4.01926
-3.86424
-3.64429
-3.38731
-3.08339
-2.70633
-2.23615
-1.67957
-1.09372
-0.523072
-4.18944
-3.94348
-3.80663
-3.60883
-3.37874
-3.1044
-2.75876
-2.31685
-1.78152
-1.20308
-0.623488
-4.11552
-3.89972
-3.78799
-3.62389
-3.43513
-3.20785
-2.91107
-2.5158
-2.01603
-1.44855
-0.843019
-4.06103
-3.89485
-3.81198
-3.69241
-3.55788
-3.39338
-3.16474
-2.83551
-2.39021
-1.84701
-1.22288
-4.03568
-3.92612
-3.8818
-3.8147
-3.74737
-3.65835
-3.51443
-3.27403
-2.90263
-2.38937
-1.73416
-4.02188
-4.0021
-3.99276
-3.98054
-3.98748
-3.97706
-3.88478
-3.68328
-3.38039
-2.96658
-2.38768
-4.2611
-4.14018
-4.16756
-4.20976
-4.23291
-4.22605
-4.17641
-4.05496
-3.83731
-3.49948
-2.97649
10.8319
6.94709
4.54851
3.27872
2.58884
2.17966
1.89101
1.6488
1.4256
1.23297
1.12148
11.7485
10.5963
8.52578
6.60816
5.06816
3.93992
3.13452
2.54184
2.07774
1.70983
1.5008
8.71316
9.16218
8.7071
7.64724
6.38134
5.1834
4.15892
3.32917
2.66771
2.14729
1.8034
6.23328
7.13665
7.29364
7.04248
6.41639
5.54797
4.63364
3.79399
3.06708
2.46991
2.05814
4.34904
5.30185
5.68023
5.83996
5.67785
5.23801
4.62252
3.9295
3.2409
2.63171
2.19289
2.95167
3.78224
4.17302
4.51919
4.66818
4.56736
4.23939
3.75548
3.19674
2.64616
2.22049
1.93783
2.61152
2.93118
3.30305
3.57449
3.68107
3.59663
3.33712
2.94715
2.49683
2.1314
1.22739
1.74235
1.97593
2.30402
2.58418
2.7715
2.82903
2.73967
2.51102
2.18062
1.88717
0.672587
1.07084
1.23361
1.50309
1.74554
1.94008
2.05715
2.07102
1.96843
1.75874
1.569
0.189325
0.506897
0.616312
0.833055
1.0266
1.196
1.32347
1.38813
1.37
1.25923
1.15442
-0.246176
-0.00994969
0.0646541
0.238505
0.380984
0.510509
0.622988
0.705269
0.738742
0.700983
0.672341
-0.620314
-0.494926
-0.423432
-0.30163
-0.21661
-0.136827
-0.0596804
0.0136614
0.0767867
0.101301
0.132388
-0.988131
-0.927642
-0.880109
-0.822363
-0.785049
-0.755913
-0.72647
-0.684856
-0.619771
-0.546595
-0.432377
-1.35794
-1.3444
-1.32865
-1.31922
-1.33085
-1.35389
-1.37669
-1.37924
-1.33631
-1.24421
-1.0975
-1.69515
-1.74001
-1.75843
-1.7946
-1.85559
-1.93156
-2.00865
-2.06135
-2.05345
-1.95779
-1.78324
-2.0239
-2.12103
-2.17033
-2.24896
-2.3572
-2.48438
-2.61537
-2.72014
-2.75206
-2.66045
-2.46655
-2.34888
-2.48791
-2.5643
-2.67957
-2.82944
-3.00224
-3.18205
-3.33555
-3.40791
-3.3287
-3.12096
-2.66015
-2.83339
-2.93391
-3.07826
-3.26079
-3.46901
-3.68671
-3.87868
-3.98421
-3.91385
-3.63013
-2.95577
-3.15294
-3.27197
-3.4349
-3.63706
-3.86569
-4.10475
-4.31908
-4.44795
-4.40756
-4.144
-3.23304
-3.44077
-3.56957
-3.73749
-3.94267
-4.17284
-4.41203
-4.62581
-4.75362
-4.70319
-4.34842
-3.48589
-3.68787
-3.81494
-3.97241
-4.16273
-4.37473
-4.59127
-4.77895
-4.88326
-4.82799
-4.50472
-3.70042
-3.88168
-3.99338
-4.12661
-4.28748
-4.46497
-4.63769
-4.77394
-4.82936
-4.7451
-4.44293
-3.89912
-4.02989
-4.11245
-4.20999
-4.33084
-4.45642
-4.56182
-4.6192
-4.59319
-4.42795
-4.0036
-3.95863
-4.04968
-4.09851
-4.16489
-4.24467
-4.30803
-4.33225
-4.29789
-4.18205
-3.95137
-3.52601
3.03966
1.2892
0.919797
0.984997
1.27457
1.63621
1.90856
2.08758
2.17475
2.20953
2.28994
12.2597
9.62659
7.4582
5.96069
4.98557
4.3903
4.00943
3.73154
3.49478
3.29001
3.17064
12.6022
11.9438
10.6309
9.24085
7.94497
6.86008
5.99693
5.3184
4.76646
4.30663
3.98734
11.5746
11.5882
11.1512
10.3967
9.44331
8.44924
7.48246
6.6069
5.84571
5.21049
4.76226
10.7857
10.973
10.8512
10.5484
9.97088
9.23773
8.39729
7.54376
6.74141
6.03977
5.51237
10.201
10.4664
10.4538
10.3448
10.0468
9.56682
8.9346
8.20472
7.43867
6.70444
6.09992
9.65451
9.90776
9.95493
9.96703
9.85538
9.57479
9.12026
8.52269
7.83429
7.12657
6.50128
9.16783
9.35849
9.42434
9.47382
9.44599
9.29317
8.98733
8.53116
7.95538
7.3283
6.76757
8.72075
8.87735
8.93198
8.98264
8.98302
8.89395
8.68367
8.33916
7.87022
7.32708
6.82161
8.28412
8.43054
8.47697
8.52171
8.52809
8.46637
8.30912
8.03934
7.65492
7.18782
6.73402
7.91025
8.03103
8.06031
8.09185
8.09222
8.0383
7.90758
7.68393
7.36028
6.95878
6.57282
7.62228
7.69032
7.68703
7.69365
7.67649
7.6165
7.49476
7.29721
7.01572
6.66538
6.31993
7.31774
7.3521
7.32668
7.30983
7.27135
7.19754
7.07357
6.88851
6.63502
6.32447
6.03411
6.97171
6.99436
6.95769
6.92176
6.86236
6.77158
6.63902
6.45788
6.22314
5.94186
5.68907
6.68577
6.66134
6.59156
6.52602
6.44021
6.32818
6.18254
6.0007
5.78143
5.52906
5.30566
6.36504
6.2977
6.19976
6.10447
5.98971
5.85337
5.69226
5.50855
5.30525
5.08382
4.89673
5.96519
5.87378
5.75896
5.63643
5.49188
5.32999
5.15413
4.97222
4.79124
4.60846
4.46134
5.56865
5.42553
5.27383
5.11069
4.92913
4.74013
4.5536
4.38394
4.23964
4.11247
4.02695
5.12736
4.91661
4.71756
4.50201
4.27386
4.05803
3.87427
3.73861
3.65371
3.59884
3.58334
4.5874
4.29582
4.04109
3.76478
3.49008
3.26129
3.10874
3.04221
3.04683
3.08242
3.13104
3.91586
3.51565
3.18689
2.8443
2.53784
2.33586
2.269
2.32269
2.45154
2.59722
2.72427
3.08193
2.47015
2.07064
1.67846
1.39519
1.30458
1.4064
1.63694
1.9163
2.17768
2.38539
1.49771
1.07367
0.581635
0.227935
0.112648
0.271579
0.627012
1.06497
1.49243
1.85065
2.11059
2.25172
-0.473751
-0.944298
-1.07402
-0.87014
-0.407585
0.164776
0.741332
1.25224
1.65534
1.932
-23.6268
-10.7949
-5.84816
-3.53424
-1.76787
-0.613401
0.0898831
0.609902
0.934635
1.14679
1.36401
-25.7555
-17.8872
-13.6931
-10.0806
-6.62116
-4.07212
-2.36847
-1.24313
-0.515727
-0.027149
0.383285
-18.4233
-18.0906
-16.9264
-14.3967
-11.1206
-7.98806
-5.42638
-3.55086
-2.25099
-1.35313
-0.672186
-16.182
-16.6373
-16.5584
-15.5866
-13.6543
-11.0633
-8.33812
-5.9714
-4.16516
-2.83477
-1.81472
-16.2534
-16.282
-16.2321
-15.8763
-14.8736
-13.0743
-10.6854
-8.20389
-6.05652
-4.36005
-3.01981
-16.3189
-16.4156
-16.3126
-16.1557
-15.647
-14.463
-12.5331
-10.1668
-7.84015
-5.84027
-4.15788
-16.474
-16.6329
-16.6243
-16.5467
-16.3286
-15.5931
-14.0864
-11.9198
-9.51736
-7.29196
-5.33498
-16.7366
-16.9608
-17.0431
-17.0561
-17.0245
-16.6149
-15.4726
-13.5226
-11.0922
-8.66219
-6.41374
-17.0419
-17.3265
-17.4739
-17.6584
-17.7629
-17.5949
-16.7542
-15.0026
-12.5591
-9.95212
-7.43188
-17.3127
-17.6821
-17.8936
-18.228
-18.4804
-18.5258
-17.9334
-16.3455
-13.877
-11.0954
-8.35218
-17.4158
-17.9838
-18.2343
-18.6849
-19.1451
-19.3936
-18.9816
-17.5024
-14.9737
-11.9923
-9.04922
-17.5196
-18.138
-18.4203
-19.002
-19.6501
-20.0436
-19.7692
-18.3552
-15.7352
-12.5372
-9.41985
-17.4557
-18.041
-18.4572
-19.0736
-19.832
-20.3394
-20.1685
-18.771
-16.0242
-12.6179
-9.27362
-17.1563
-17.7237
-18.2122
-18.8547
-19.605
-20.166
-20.0507
-18.5957
-15.7133
-12.182
-8.72613
-16.6593
-17.1451
-17.6392
-18.2521
-18.9327
-19.4259
-19.196
-17.702
-14.7262
-11.16
-7.75456
-15.8774
-16.2309
-16.6703
-17.1985
-17.7516
-18.0721
-17.6313
-15.9792
-13.0708
-9.59363
-6.37051
-14.7392
-14.9317
-15.2681
-15.6682
-16.0459
-16.1384
-15.4841
-13.6443
-10.8171
-7.50878
-4.41967
-13.2326
-13.2561
-13.4735
-13.7492
-13.949
-13.7868
-12.8945
-10.969
-8.23096
-5.26233
-2.56713
-11.3622
-11.2652
-11.4227
-11.643
-11.7127
-11.3184
-10.1701
-8.15645
-5.5841
-3.03598
-0.744638
-9.18901
-9.16315
-9.42251
-9.67499
-9.62977
-8.99146
-7.55491
-5.40405
-3.05253
-0.939446
0.85739
-7.05167
-7.32235
-7.82416
-8.15825
-8.02525
-7.17409
-5.49298
-3.27755
-1.15447
0.566456
1.92815
-5.84893
-6.83603
-7.73995
-8.03973
-7.77409
-6.60266
-4.36471
-1.88668
0.0194536
1.3352
2.26995
-7.36168
-9.79267
-9.37656
-8.32695
-6.58128
-4.5353
-2.49999
-0.687717
0.589626
1.42095
2.03737
-13.6261
-7.61616
-5.44942
-4.09833
-2.72999
-1.47589
-0.414138
0.466603
1.12674
1.59319
1.89102
1.32007
0.595716
-0.286346
-0.814471
-0.788761
-0.393572
-0.153342
-0.0536539
-0.0525595
1.19678
0.629352
-0.00394364
-0.416258
-0.438456
-0.21298
-0.110848
-0.0570851
-0.0647743
1.07817
0.616018
0.0380341
-0.333352
-0.349266
-0.1594
-0.0651009
-0.0383587
-0.0502377
0.959163
0.597222
0.153538
-0.163223
-0.210598
-0.0799085
-0.00745548
0.0102516
-0.0189302
1.51253
1.22632
0.628009
-0.303797
-1.14823
-1.41857
-1.09131
-0.430327
-0.111058
1.3374
1.09841
0.606793
-0.105889
-0.675975
-0.940281
-0.732624
-0.285058
-0.111788
1.18459
0.97531
0.553913
-0.0568157
-0.673505
-0.822083
-0.641647
-0.242569
-0.0978779
1.06068
0.902405
0.511724
0.0211027
-0.392274
-0.630016
-0.508943
-0.181554
-0.0701674
1.86036
2.39262
2.40463
-0.061745
-0.0541878
2.85025
-0.0419087
2.67073
2.86644
1.82989
-0.0639331
2.66744
-0.0344312
-0.0279364
1.85277
2.19125
-0.000986284
-0.0605797
2.19487
1.8471
1.86235
-0.0233638
2.44413
-0.0296914
2.35182
-0.0262277
-0.0275349
-0.0430832
-0.571227
-0.0839544
-0.00201152
0.6403
-0.0240246
2.3662
0.491272
2.42357
-0.0242296
2.36726
-0.0249646
2.81422
0.106315
2.37351
-0.0669294
2.45106
-0.184588
0.188956
-0.0639308
0.0659265
0.958828
3.00395
-0.0907062
2.80383
-0.00219586
-0.0614233
2.98706
1.8669
-0.035929
2.77943
-0.623876
-0.0384356
-0.409418
-0.0031671
-0.0847091
-0.0817513
0.168395
1.84894
-0.0836153
3.4484
2.4237
1.83318
0.0102976
2.28632
-0.0699389
2.51158
-0.037677
2.33262
-0.0125727
2.39688
-0.0946121
-0.023027
-0.0481168
-0.0813208
1.94841
1.97297
0.154611
-0.0659065
-0.996851
-0.00277702
-0.0900891
0.00250296
2.49119
2.76451
0.142575
2.89678
-0.0553076
-0.0104903
-0.0394603
0.164525
-0.0669173
2.33721
0.0936458
0.0225242
1.70761
0.34141
-0.0830981
2.58981
-0.000819205
1.95283
-0.00291856
1.3096
2.49085
2.3668
2.6011
-0.0686362
-0.030632
1.9174
2.81609
2.3729
2.71363
1.58103
-0.0716192
2.42965
0.767708
0.00123077
0.188477
0.101399
0.000143106
-0.000855119
-0.000957591
-0.00106121
2.62513
-0.0362304
0.052153
2.30623
2.51137
0.120307
0.00331068
-0.0785474
-0.0280915
1.0941
-0.0419287
1.72814
-0.136154
1.22697
2.80837
-0.0869233
0.0656212
3.40283
1.98079
2.5341
2.7416
2.75732
-0.0827205
2.45759
-0.0672751
-0.0624516
-0.0635776
-0.077238
0.0069968
2.03461
0.156019
-0.104458
2.31016
2.08668
-0.0499503
-0.00838552
-0.0816007
1.77014
0.135512
0.147018
-0.0218576
-0.000733715
0.149214
1.59966
0.693632
0.759989
-0.00180622
-0.0928474
-0.217127
0.834463
3.29035
-0.0222116
2.47498
-0.0287538
2.69686
-0.0725885
2.81477
2.34461
2.21341
-0.094222
-0.000668398
-0.0297794
1.78266
0.0796819
2.43726
2.18915
2.91482
-0.0881972
-0.000899683
1.93106
-0.0515042
3.08996
-0.00393385
-0.000290243
2.49681
0.00108478
2.9278
-8.69085e-06
2.97715
1.83514
-0.0177851
2.28288
1.41729
0.634749
2.41592
-0.0193606
2.5115
-0.0240823
2.9175
-0.0425009
-0.013648
-0.0689324
-0.0387422
-0.0366648
0.000909514
2.73212
0.00535493
-0.00710496
-0.00210242
-0.0885968
-0.0575234
1.75592
2.77756
2.34771
-0.0804364
-0.445257
-0.05619
2.46941
2.59685
2.60349
0.00225195
-0.0672536
0.317766
0.0344325
3.66024
-0.133031
2.35302
-0.00299088
-0.136624
-0.00629305
-0.00197138
-0.0255876
-0.189088
2.02309
0.693549
2.90112
1.98029
2.37098
-0.086175
2.82128
-0.0017988
0.0802947
1.81038
2.43067
2.4803
-0.0502104
1.68294
4.3051
0.27464
0.381082
-0.0329832
2.76784
3.11458
-0.0658907
2.5098
2.36343
0.0010332
2.58604
1.15098
-0.0942439
2.29535
2.66188
-0.0433872
-0.0239624
0.761136
2.38904
-0.882612
2.62168
0.995413
-0.0674932
2.55706
-0.0655305
1.47961
-0.0369936
2.4217
2.95316
0.136872
2.47288
0.563866
-0.000360633
2.76696
-0.0803685
0.779203
-0.0708793
2.02286
1.25524
2.41972
0.0248685
-0.0299538
2.63222
-0.00671778
2.59594
1.17662
-0.0132054
-0.0539442
1.25803
-0.0301503
-0.0829126
1.52109
2.78318
2.71268
0.0267324
2.30485
0.031654
-0.0833872
1.85479
2.37048
-0.0190159
1.73824
0.0010943
3.87284
-0.075605
0.0107908
2.60844
-0.0361807
-0.21519
-0.0762832
2.42979
2.56929
0.192377
0.0494218
0.0107175
3.12452
-0.00529287
-0.0547857
0.0182832
-0.0335652
2.35639
-0.0367785
0.00242842
0.0111155
0.170646
0.425447
2.08338
0.00299847
1.92944
-0.0116105
1.08738
2.43301
-0.00871993
0.392532
-0.0296421
2.50566
1.9446
2.55393
-0.0812121
0.000635175
-0.0707315
0.00723071
0.941226
2.56809
-0.0477737
-0.182348
-0.0161701
-0.0165697
2.55081
0.693946
0.489725
2.38513
2.52588
-0.00254114
2.2225
-0.0880053
2.70707
-0.0297193
-0.007492
-0.0719495
0.000929782
-0.065019
-0.0745595
2.74191
-0.0300522
0.00194928
2.06737
-0.00948993
0.152901
2.4239
2.54445
2.65238
-0.0540921
-0.093075
1.9101
2.60939
-0.040951
-0.00264635
0.185164
-0.0918775
0.00679309
3.07963
0.0285018
2.07463
2.17893
-0.0033049
-0.00273565
-0.0762425
1.08927
-0.00171864
2.42323
-0.00674291
-0.0534913
-0.028746
-0.00644404
-0.0249867
-0.000369168
0.717583
1.37804
2.50228
-0.000325308
0.184691
0.225036
2.34176
-0.129375
-0.0236936
1.44844
0.358424
-0.0326444
-0.0362767
-0.0473918
0.000924308
2.31631
0.23523
-0.856219
-0.0522076
-0.0751687
2.38076
-0.075674
-0.0237162
-0.0303505
2.11536
-0.127786
2.73904
1.97375
2.53152
-0.0683623
0.0636401
0.015539
-0.0202591
-0.0988113
-0.00212642
2.1172
2.13649
-0.00579123
-0.0153782
0.648608
2.3017
-0.00335442
0.000129323
1.91836
2.28262
3.80365
0.741274
-0.0821609
2.45921
-0.311887
2.28767
2.56418
2.73814
1.85157
-0.0955384
2.78049
2.01591
1.91789
-0.0791451
-0.0104292
2.42967
-0.0788225
-0.059221
1.28097
-0.0390441
1.94285
-0.00932098
2.21799
2.38931
2.72565
0.000195067
0.00672236
1.79059
-0.0230028
1.31192
4.21907
0.00096749
-0.0202159
2.67348
2.00707
-0.158882
-0.0114799
-0.0660666
3.7957
0.030537
2.31301
-0.0442192
0.00854319
-0.0771554
-0.0055531
0.0501901
-0.0372474
-0.0414131
-0.0212554
2.33816
0.185952
1.47781
2.65844
2.52459
2.55953
2.00522
-0.0225648
2.68709
1.96235
-0.0218523
2.76798
0.128836
0.61346
-0.00121729
0.0127887
-0.0886187
2.31154
2.47655
2.64915
0.0576678
-0.083501
2.35204
2.1242
0.00104854
2.625
-0.051024
2.62874
0.00106844
1.13659
-0.0987766
-0.0230582
-0.00631301
0.166809
-0.0379561
2.04729
1.63096
1.94329
2.53267
-0.0401707
-0.10788
1.69962
-0.00259411
-0.297294
0.0500269
2.40215
2.99531
2.57923
-0.0248391
-0.0396911
-0.000617601
2.64021
2.72585
-0.0267603
2.7843
-0.0233708
0.000313333
-0.00887417
-0.0652009
2.50477
-0.00386244
2.46791
-0.0419224
2.75219
-0.0361269
-0.00167828
0.755286
-0.0532816
-0.0235704
2.64117
2.38969
-0.073535
2.06075
0.132561
-0.068918
-0.0715351
-0.041794
0.0581985
-0.039693
1.92401
2.76123
2.70702
-0.0331339
-0.0349037
-0.016575
1.82112
2.41109
-0.0882013
2.79218
2.96508
2.08888
2.1349
-0.0381444
-0.0367893
-0.0826366
0.303757
0.92434
-0.276594
1.99758
-0.0358481
2.26592
2.75554
-0.126484
0.0152798
2.26908
2.14811
0.0162202
1.67531
2.092
0.304396
2.57243
1.75003
-0.0480528
-0.0547225
0.522088
-0.00901984
-0.00623496
-0.0771374
-0.0195973
-0.00589933
-0.0147976
0.00514193
-0.0801697
-0.0683593
0.0114507
2.31788
2.21182
-0.0831105
0.929911
2.43821
1.30395
-0.0241277
-0.0725137
-0.127427
0.0554957
0.612769
2.39671
-0.31771
2.33768
2.52605
1.43821
-0.0391649
2.07255
3.8357
2.50121
2.5272
-0.0683172
0.00432245
-0.0870169
2.2395
2.92235
1.10589
-0.025361
2.78274
-0.111062
2.49423
-0.0474386
0.00797681
2.46278
-0.00515407
2.12707
-0.024881
-0.0686515
-0.0358132
-0.0898142
0.174287
0.187664
1.95121
-0.000321391
-0.016681
-0.0681758
0.0239499
2.33718
1.14777
1.9669
0.370584
2.44317
-0.0482448
2.63024
2.82135
2.37183
-0.0195683
-0.0583786
2.34725
-0.00311609
2.66636
-0.00312188
0.00684268
1.55994
-0.0686527
0.048852
-0.0371648
0.768048
0.0207156
-0.0376557
-0.0200529
-0.0144339
-0.0301572
2.33197
-0.0343781
2.58695
3.70914
-0.00830107
0.241815
-0.0124665
-0.0261236
2.77032
1.72723
1.55129
-0.0377959
2.13097
0.0148739
-0.0659438
0.00673209
1.50075
0.614205
-0.0543557
-0.0341393
2.23836
-0.0399043
-0.0446558
-0.0863718
2.50579
-0.0294891
-0.3045
2.46195
0.104356
-0.00622457
2.68853
-0.045828
2.71745
2.5932
1.40462
-0.00793996
2.26753
-0.0174015
2.56876
-0.0291597
2.10895
-0.0457734
-0.0189986
0.0187801
-0.00166511
2.31861
-0.031483
0.137022
2.01887
-0.0179906
0.742998
-0.0239786
-0.210559
-0.0710186
1.69396
-0.0391713
-0.0314748
-0.0736916
2.48442
0.14391
2.3947
-0.0337895
0.0238208
2.40741
2.7191
0.139171
-0.0554082
0.0147924
-0.0388874
2.65489
-0.0231533
1.29248
2.35148
2.22169
2.59196
2.58743
3.73707
-0.00473646
-0.0371209
-0.0265901
0.000517159
0.278337
2.33538
2.64102
0.512156
-0.0118769
2.48561
0.429227
-0.0182738
0.023864
-0.0372928
0.0252008
0.629571
-0.0539598
2.31775
2.61625
0.163639
1.68166
2.66263
1.24137
-0.00205544
0.209123
0.239813
2.44836
0.016505
0.0492233
-0.0646729
2.65485
-0.000478392
-0.073797
-0.0476958
-0.05295
2.03754
2.47261
-0.0610215
-0.0457909
-0.0428244
1.96869
2.49694
2.75803
2.76939
2.63654
-0.0342593
0.0313526
0.114688
-0.00302325
-0.0503749
2.67164
-0.103915
2.12885
2.4673
0.740519
2.64087
2.63954
2.7783
-0.0808512
-0.00771006
-0.0673611
2.6273
-0.0570797
2.43482
2.54641
2.9742
2.1734
1.31128
2.45414
2.51779
3.04279
-0.206336
2.40566
1.91131
0.286384
-0.121189
3.11069
2.52661
-0.0769918
-0.197091
3.05217
0.13113
-0.0477665
-0.056204
2.5265
2.35662
1.82625
1.1686
-0.00799746
2.61519
-0.0244976
-0.0405258
-0.00535177
-0.0143967
2.46802
-0.0310859
1.78285
2.46689
2.30434
3.84078
2.40368
0.157208
0.155369
0.740777
-0.0197713
0.00755919
-0.0671379
0.890051
-0.0744493
2.39106
2.47827
-0.00449041
-0.0122229
-0.0304793
2.82521
-0.0721838
2.62383
-0.044605
2.16331
-0.00521634
0.00126663
-0.100223
-0.00153009
1.81086
2.36541
-0.0221671
0.000206252
0.0120889
0.38589
-0.0430378
1.45273
2.01232
0.00810213
2.65113
2.51199
0.130207
0.21234
-0.0779531
-0.00975643
-9.85525e-05
-0.0299669
-0.0215108
-0.305644
1.99603
1.45201
0.00153407
2.04306
-0.395125
2.63139
-0.0233279
-0.0486685
0.00668497
2.08939
0.0119157
2.63161
2.78508
-0.000784263
-0.0679867
2.7006
2.58395
3.0137
0.0953663
0.218357
-0.0598798
0.964938
1.80662
0.202923
-0.0320598
-0.107074
1.99698
-0.00500427
-0.0258655
2.64801
-0.000675485
1.02441
-0.0619557
-0.0287475
0.887821
-0.0464442
1.20982
2.57355
-0.0541664
-0.00470393
2.8822
-0.000612139
2.48429
-0.403207
0.000868829
0.0923493
2.38156
-0.00500731
-0.0685889
-0.0698037
-0.0050178
0.00162009
1.94219
-0.00100205
-0.0868329
2.41152
1.3633
-0.0337462
-0.0610334
0.000780017
-0.00154118
2.75517
2.1371
-0.0378459
2.42758
0.104857
-0.0481649
-0.00177087
-0.0465588
2.63534
-0.0453646
-0.0736306
-0.0062353
-0.0206643
-0.0664061
2.30979
-0.0015221
-0.00880035
2.09194
1.36229
2.51373
-0.0418118
1.54044
2.64867
0.00374361
-0.0368657
-0.0193143
2.49444
0.000229468
0.00996284
1.71106
0.00471596
2.34158
1.80808
1.02775
-0.0150745
3.57372
-0.0223916
0.916819
-0.0713833
2.44981
1.97365
1.9609
1.9674
-0.0711665
-0.0471967
-0.0242574
-0.160909
0.200932
-0.302577
1.80326
1.19324
-0.0794317
2.04424
-0.0115604
-0.0101968
0.723084
-0.157966
0.018607
-0.0285379
2.4605
0.00130364
2.00258
-0.0240848
2.49717
-0.140373
0.13422
2.41145
-0.0475192
-0.0177219
1.97382
-0.0155534
-0.071278
0.0378833
-0.0215037
0.671102
-0.12998
-0.000928096
-0.072165
0.158433
-0.00871219
2.58549
0.0189477
3.92367
0.0302994
-0.0223906
-0.071679
0.58217
-0.0390009
-0.140669
2.02876
3.29287
1.86246
2.50238
-0.0416653
0.0353872
2.04997
-0.0207294
-0.00766661
3.94771
-0.03561
-0.0511047
0.117399
0.0320646
0.0117763
-0.0418429
0.000167048
0.0290608
2.06915
2.17514
-0.0637064
2.15804
2.49846
0.0103065
1.94339
3.53137
-0.0373617
2.27597
-0.146337
0.00344597
-0.0711457
2.02666
0.0146425
-0.0438398
-0.0334119
0.120328
1.98458
-0.0424132
-0.0407791
-0.0343904
-0.00919988
2.18239
0.00201245
1.69771
-0.0685218
-0.0131827
1.15909
2.07793
-0.0954089
0.647894
0.000738409
-0.113584
-0.0261007
2.14809
2.50323
2.20652
0.473951
-0.0107103
-0.0183241
-0.0550592
-0.738162
1.891
0.631565
1.76491
2.61355
-0.120952
1.89241
3.00852
-0.456315
0.0263629
0.0165328
-0.0812816
2.49739
2.29047
-0.00641657
-0.0745541
0.0263331
-0.10495
0.00752733
2.60593
2.89984
-0.0337216
0.0133748
0.00378276
-0.0249371
2.58951
-0.0144485
-0.0333389
-0.0571294
2.16206
-0.0179861
-0.111858
1.02931
0.191175
2.52949
1.65479
-0.0792432
-0.0258128
-0.000796455
1.84425
0.9771
0.566019
-0.0704222
-0.0682459
-0.0413997
-0.075085
0.320016
2.83479
-0.0249273
-0.0703315
2.17328
-0.000494852
-0.0525147
1.36957
0.00489755
2.09085
2.50636
2.08448
-0.0145655
0.000477991
2.32556
-0.0342794
2.10059
2.4226
1.92668
-0.00121281
2.34017
-0.013857
0.0342287
2.1673
-0.132673
-0.0642597
-0.000112805
-0.121619
0.277568
-0.022667
-0.00250368
2.68754
2.44301
2.62492
-0.0270604
1.93454
2.65914
0.101917
-0.0692868
-0.0563137
-0.0208347
-0.000613665
0.8417
-0.0710408
0.034147
2.31162
0.612801
2.24174
-0.00671428
1.5462
-0.0128765
1.87893
1.71682
2.70452
-0.0827928
-0.00654176
1.36785
-0.0168256
2.29082
-0.0399438
0.00589835
-0.0807687
-0.0482801
2.07435
1.83714
-0.0197663
0.0168069
0.00171424
-0.00136864
-0.0986064
-0.0220917
2.12027
-0.130112
0.0014131
1.61796
-0.0679911
-0.0504577
0.0460015
-0.085194
-0.0705251
-0.000521449
-0.0795063
-0.191501
2.32409
3.33202
-0.0186658
-0.0535781
0.685341
2.4038
0.180368
2.44264
2.348
-0.0600067
1.94733
2.63348
-0.0722292
-0.0742316
3.07522
1.89787
2.84528
2.00247
2.4942
2.759
0.0666311
0.318488
2.26993
2.63571
-0.0891222
2.54611
-0.0301467
2.56794
2.13647
2.64006
0.00803027
-0.0931715
-0.0327644
1.8942
2.45547
-0.0343194
-0.00161583
2.08759
0.198341
0.000888937
2.85672
0.107798
-0.0184464
-0.141304
0.0518297
-0.0412364
2.62791
-0.0688179
2.69364
1.90809
2.86309
0.0394549
2.19917
-0.029708
2.86071
-0.0798507
2.54271
2.18206
-0.0426062
2.45119
2.32146
-0.0272114
-0.00763363
-0.0659053
2.28722
1.88375
2.68401
-0.0211552
-0.00105746
-0.0632211
0.380126
-0.0237605
0.076538
2.56034
2.27443
3.47901
1.6945
-0.0593853
2.80991
0.607971
2.54358
0.0472018
-0.0339275
-0.0266168
-0.0781226
1.14056
0.78066
2.45325
0.157326
-0.180887
2.05028
2.16908
-0.0377131
1.75005
2.39477
1.8184
-0.0242727
2.4053
-0.0748436
-0.155324
-0.0163246
0.00650032
2.29768
0.102429
1.02084
-0.0175252
-0.0379782
1.01822
0.00859982
1.90931
2.45087
1.82387
2.22472
0.290198
1.78284
2.70458
-0.00128422
-0.00965391
2.64975
1.74195
-0.0563347
0.295337
1.98799
0.150142
1.92814
1.92376
-0.0087781
2.19424
-0.0408123
-0.0334694
1.91692
2.51013
-0.0254101
-0.079477
1.80965
-0.00305194
2.44857
2.38207
-0.0214104
1.94263
-0.0307189
2.13501
2.9684
0.140441
1.26314
3.21813
-1.05871
2.00561
3.11056
3.33647
3.23651
0.533387
0.791143
-0.0308878
0.0330397
-0.0836884
3.07161
2.83979
-0.0744179
-0.000527812
2.00454
1.50061
0.100205
2.5304
0.00398352
2.63031
-0.0173016
2.87427
1.82413
-0.00723619
-0.040089
0.00941946
2.42716
1.97637
1.59679
1.86218
2.611
-0.0532279
-0.03089
-0.0699265
-0.0140423
-0.0285787
1.65411
2.64468
2.73934
-0.101961
1.57171
-0.0266325
-0.10818
1.87697
-0.0113204
-0.033682
2.51535
1.95136
0.873755
0.0742754
0.00838493
2.30338
0.0137669
-0.000674342
-0.0560692
-0.000752395
-0.017999
2.51403
-0.0333478
0.351984
-0.121555
0.00218879
-0.0447844
-0.000747313
2.22093
1.74329
-0.0284593
2.43935
-0.0162408
-0.00181468
-0.0355923
-0.019814
-0.0154428
0.0319657
0.0362611
-0.0189983
2.71372
-0.0319483
-0.039925
0.630248
0.328697
-0.0777098
2.12811
-0.125868
2.70335
0.0282156
-0.123288
0.0370379
0.128965
-0.0424093
0.0358263
2.88235
2.74426
2.6182
2.17943
2.30463
0.588676
3.24599
-0.0286526
3.15947
-0.00662113
-0.0503569
2.26173
1.98787
0.091831
-0.000800955
2.54787
1.26288
2.44615
2.48112
0.828375
0.0301241
2.24405
2.19709
2.12309
2.33719
2.72971
2.50755
0.18174
-0.0736728
2.69175
0.207759
2.48577
2.27589
0.852942
2.55472
-0.021322
1.81741
2.61126