/*--------------------------------*- C++ -*----------------------------------*\
| =========                 |                                                 |
| \\      /  F ield         | OpenFOAM: The Open Source CFD Toolbox           |
|  \\    /   O peration     | Version:  3.0.1                                 |
|   \\  /    A nd           | Web:      www.OpenFOAM.org                      |
|    \\/     M anipulation  |                                                 |
\*---------------------------------------------------------------------------*/
FoamFile
{
    version     2.0;
    format      ascii;
    class       volScalarField;
    location    "0.958991";
    object      k;
}
// * * * * * * * * * * * * * * * * * * * * * * * * * * * * * * * * * * * * * //

dimensions      [0 2 -2 0 0 0 0];

internalField   nonuniform List<scalar> 
21246
(
0.22264
0.205713
0.0982341
0.0456019
0.0242089
0.0158709
0.0125834
0.0110775
0.0102247
0.00961067
0.00906466
0.269869
0.303796
0.0937915
0.0524295
0.0273721
0.0172412
0.0128662
0.0108604
0.00976471
0.0090349
0.00846145
0.314993
0.359067
0.0941835
0.0608721
0.0296622
0.0187616
0.0134128
0.0109237
0.00956666
0.00869333
0.00802853
0.355572
0.340227
0.0972323
0.0651038
0.0302874
0.0199388
0.0138727
0.0110883
0.00951097
0.00852151
0.00779574
0.388109
0.307454
0.0983761
0.0643882
0.030205
0.0206933
0.0141124
0.0112547
0.00951985
0.0084567
0.0076968
0.412368
0.284264
0.0981179
0.0617256
0.0300457
0.0210492
0.0141764
0.0113825
0.0095353
0.00843691
0.0076638
0.42847
0.271728
0.0974847
0.0589263
0.0300042
0.021054
0.014188
0.0114615
0.00953578
0.00843045
0.00763863
0.436891
0.265255
0.0966471
0.0566509
0.0300746
0.0208448
0.0142057
0.0114943
0.0095235
0.00843157
0.00764575
0.438814
0.263925
0.0962319
0.0551991
0.0302465
0.0206424
0.0142442
0.0115043
0.00951192
0.00843482
0.00763976
0.435248
0.267368
0.0988429
0.0552235
0.0306643
0.0205904
0.0143409
0.0115158
0.00951894
0.00844061
0.00762853
0.426351
0.274008
0.104429
0.0567033
0.0316872
0.020865
0.0145633
0.0115435
0.00956362
0.00844735
0.00762942
0.412649
0.282988
0.111389
0.0591232
0.0331294
0.0214125
0.0149565
0.0116591
0.00966672
0.00847619
0.00764833
0.395468
0.293843
0.120664
0.062887
0.0352241
0.0223512
0.0155431
0.0118966
0.00982622
0.00854125
0.00768802
0.375471
0.306835
0.133851
0.0688749
0.0384416
0.0239214
0.0164304
0.0123235
0.0100718
0.00866341
0.00775532
0.352918
0.322261
0.149701
0.0769832
0.0428772
0.0262388
0.0177151
0.013002
0.0104437
0.00886552
0.00786625
0.328818
0.339768
0.16927
0.0881021
0.0491262
0.0296554
0.0196198
0.0140595
0.0110229
0.00919017
0.00804684
0.303905
0.358734
0.1945
0.104023
0.0583549
0.034871
0.022572
0.0157397
0.0119596
0.009722
0.00834631
0.278785
0.380136
0.225877
0.126012
0.0718544
0.0428441
0.0272277
0.0184579
0.0135182
0.0106187
0.00885826
0.25485
0.403792
0.265274
0.156872
0.0921345
0.0554551
0.0348959
0.0230766
0.0162522
0.0122235
0.00979137
0.234022
0.428853
0.314797
0.200758
0.123537
0.0762854
0.0482389
0.0314608
0.0214172
0.0153515
0.0116547
0.218371
0.453284
0.375695
0.2637
0.173725
0.112417
0.0729783
0.0479197
0.0321054
0.0221403
0.0158719
0.210297
0.476281
0.446761
0.35268
0.255523
0.177987
0.121939
0.0830005
0.0565122
0.0387114
0.0268528
0.201666
0.471764
0.502069
0.452028
0.370756
0.287591
0.21545
0.157823
0.113889
0.081391
0.057714
0.20571
0.42191
0.434739
0.420144
0.385464
0.338951
0.287741
0.2374
0.191163
0.150894
0.116728
0.204327
0.204198
0.0999799
0.0467428
0.0244422
0.0160845
0.0130772
0.0118284
0.0111909
0.0107782
0.0104375
0.246896
0.270209
0.0880132
0.0499696
0.0275228
0.0183283
0.014534
0.0129373
0.0121815
0.0117585
0.0114587
0.28502
0.305639
0.0819235
0.0547931
0.0300942
0.0206505
0.0165921
0.0149509
0.0142799
0.0139668
0.0137631
0.31518
0.27713
0.0792792
0.0567392
0.0313348
0.0222951
0.0182432
0.0168067
0.016462
0.0165909
0.0169008
0.336148
0.235087
0.0767899
0.055507
0.0316088
0.0234184
0.0195177
0.0182545
0.0181347
0.0185599
0.0191902
0.350134
0.201478
0.0738132
0.0528172
0.0315446
0.0242145
0.0205201
0.0194948
0.0197384
0.0208053
0.0225307
0.35981
0.177487
0.0707375
0.050056
0.0314036
0.0248037
0.0213118
0.0205393
0.021113
0.0227383
0.0253521
0.365697
0.159894
0.0676997
0.0476563
0.0312478
0.0252408
0.0219379
0.0213681
0.0221441
0.024075
0.0271341
0.369955
0.146799
0.0649755
0.0457388
0.0311798
0.0255153
0.0224311
0.0219604
0.0227783
0.024713
0.027638
0.374275
0.136996
0.0627081
0.0443207
0.0312587
0.0256813
0.0228019
0.0223138
0.0230393
0.0247862
0.0274604
0.379868
0.130418
0.0610108
0.0433719
0.0314757
0.0258315
0.0230577
0.0224508
0.0229811
0.0244079
0.0266628
0.385521
0.125968
0.0597326
0.0427767
0.0317952
0.0259796
0.0232263
0.0224127
0.0226763
0.0236988
0.0254131
0.389724
0.124306
0.0591772
0.042531
0.0322805
0.0261864
0.0233771
0.0222723
0.0222241
0.0228086
0.0239321
0.392668
0.125617
0.0598511
0.0426749
0.0329878
0.0265548
0.0235753
0.0221115
0.0217122
0.0218576
0.0224479
0.394403
0.128448
0.0613461
0.043166
0.0338497
0.0271176
0.0238532
0.0219911
0.0212064
0.0209302
0.0210523
0.395102
0.133049
0.0638823
0.0441327
0.0348869
0.0279321
0.0242785
0.0219861
0.0207826
0.0201067
0.0198313
0.394859
0.13966
0.0678225
0.0458091
0.0361852
0.0290581
0.0249431
0.022192
0.0205355
0.0194715
0.0188548
0.393639
0.148152
0.0734267
0.0484957
0.03791
0.0305611
0.0259526
0.0227251
0.0205854
0.0191254
0.0181835
0.391376
0.158491
0.0811543
0.0526919
0.0404175
0.0325929
0.0274457
0.0237285
0.0210885
0.0192076
0.0179275
0.387914
0.17074
0.0916988
0.0592323
0.0444043
0.0355472
0.0296745
0.0254045
0.0222449
0.0199109
0.0182549
0.382844
0.184757
0.105927
0.069412
0.0511351
0.0403437
0.0332468
0.0281576
0.0243563
0.0214916
0.0193912
0.375135
0.200252
0.124904
0.085166
0.062798
0.0489273
0.0396375
0.03301
0.0280861
0.0243652
0.0215891
0.362571
0.219928
0.152514
0.111088
0.0843905
0.0662091
0.0532226
0.0435923
0.0362629
0.0306058
0.0274186
0.258247
0.26525
0.221736
0.191772
0.171467
0.156756
0.145178
0.135226
0.126006
0.116963
0.106206
0.688882
1.003
0.601792
0.372979
0.212293
0.119873
0.0717506
0.0482984
0.0370554
0.0312004
0.0278309
0.673848
0.967648
0.657612
0.436489
0.260514
0.148385
0.085743
0.054182
0.0395834
0.0325147
0.0286553
0.617716
0.802079
0.653171
0.469479
0.304747
0.17524
0.101868
0.0622024
0.043337
0.0345951
0.0302907
0.53205
0.674641
0.622616
0.477925
0.330534
0.203075
0.117605
0.0712649
0.0480655
0.0373466
0.032417
0.435877
0.594008
0.58796
0.478742
0.349174
0.226589
0.136462
0.0814515
0.053696
0.0407589
0.0350021
0.34261
0.538654
0.556682
0.479008
0.366919
0.250104
0.156522
0.0950736
0.0612313
0.0449023
0.0379856
0.258579
0.496037
0.53131
0.479586
0.384404
0.27472
0.179116
0.111376
0.0713365
0.050811
0.0417227
0.187847
0.463562
0.51404
0.480884
0.400706
0.299434
0.203865
0.130738
0.0841267
0.0586721
0.0467231
0.139873
0.447337
0.509148
0.485061
0.416046
0.323412
0.229896
0.152949
0.0999782
0.0689317
0.0532497
0.129392
0.454377
0.521574
0.497181
0.4331
0.347072
0.256582
0.177488
0.118955
0.0819916
0.0617794
0.135183
0.461981
0.550693
0.524856
0.457502
0.372522
0.283763
0.203507
0.140574
0.0979337
0.0727126
0.12862
0.434113
0.575417
0.568558
0.495228
0.403812
0.31262
0.230569
0.164115
0.116477
0.086266
0.111209
0.36795
0.557948
0.607458
0.544814
0.444822
0.345978
0.259543
0.189374
0.137308
0.102421
0.0910104
0.291404
0.490935
0.608455
0.590239
0.493731
0.385818
0.291864
0.216677
0.160268
0.121062
0.0737849
0.225968
0.400984
0.558006
0.606732
0.538558
0.429195
0.327371
0.246033
0.18514
0.142051
0.0610503
0.176504
0.311921
0.469812
0.576972
0.560809
0.46722
0.363103
0.27662
0.211631
0.165165
0.0524167
0.140815
0.236366
0.370221
0.50458
0.545529
0.486759
0.392202
0.305496
0.238507
0.189863
0.0472281
0.118061
0.182513
0.281055
0.410031
0.492241
0.47742
0.405621
0.327169
0.262658
0.214572
0.0446936
0.10478
0.147792
0.212346
0.315087
0.413864
0.438032
0.39672
0.335292
0.279448
0.23533
0.0435167
0.096775
0.126025
0.169028
0.237125
0.327207
0.377128
0.364383
0.324471
0.282578
0.246598
0.0431308
0.0910089
0.111141
0.141808
0.187425
0.250908
0.30822
0.313497
0.292458
0.265909
0.240473
0.0448287
0.0875947
0.106368
0.131089
0.162849
0.204711
0.247561
0.255896
0.244887
0.229028
0.212185
0.0667523
0.145263
0.167936
0.176256
0.185258
0.203584
0.219259
0.22051
0.208242
0.193277
0.178403
0.140974
0.142059
0.135553
0.140795
0.154561
0.176023
0.201109
0.214466
0.206235
0.187389
0.17122
0.628702
0.770186
0.52884
0.308499
0.175811
0.103655
0.0654657
0.0459914
0.0360709
0.0305515
0.0271082
0.454061
0.604255
0.45615
0.30352
0.183561
0.110846
0.0700473
0.048491
0.0374306
0.0313233
0.0275059
0.416387
0.551677
0.425718
0.31942
0.210635
0.129944
0.080249
0.0535173
0.040077
0.0329707
0.0287109
0.393113
0.500803
0.396969
0.32058
0.226498
0.147388
0.0925434
0.0607336
0.0440168
0.0352107
0.0301212
0.37496
0.447172
0.372092
0.309774
0.224805
0.15138
0.0991008
0.0670224
0.04915
0.0392157
0.0331702
0.359312
0.401739
0.349691
0.29625
0.220026
0.152461
0.102379
0.0706024
0.0525443
0.0425119
0.0365072
0.345379
0.365716
0.330235
0.283009
0.213998
0.151965
0.104663
0.0737732
0.0557375
0.045601
0.0395657
0.333033
0.337282
0.313494
0.27137
0.20837
0.151218
0.106599
0.0767249
0.0588154
0.0485876
0.0425274
0.322263
0.314718
0.299481
0.261883
0.204186
0.151166
0.108847
0.0798866
0.0620564
0.0516072
0.0454152
0.312942
0.296487
0.288039
0.254598
0.201882
0.15225
0.111821
0.0835337
0.0655971
0.0546472
0.0478727
0.304793
0.28162
0.278757
0.249471
0.201618
0.154887
0.115977
0.0881073
0.0698781
0.0582012
0.0505736
0.297612
0.268975
0.270878
0.246167
0.20313
0.159227
0.121718
0.0941743
0.0755883
0.0629865
0.0538524
0.291341
0.257852
0.264221
0.244529
0.206463
0.165573
0.129566
0.102448
0.083658
0.0701848
0.059243
0.2856
0.247771
0.258242
0.244158
0.211631
0.174244
0.14004
0.113666
0.0951045
0.0812793
0.0688148
0.279959
0.238572
0.252082
0.24364
0.217353
0.184502
0.153184
0.128333
0.11063
0.097199
0.0841462
0.274395
0.22992
0.245533
0.242676
0.223181
0.195907
0.168594
0.146264
0.130189
0.117932
0.105198
0.268841
0.221517
0.238297
0.240807
0.22846
0.207716
0.185526
0.166759
0.153104
0.142688
0.131256
0.263177
0.213061
0.230035
0.237422
0.232245
0.218711
0.202605
0.188334
0.17777
0.169612
0.160313
0.257319
0.204261
0.220354
0.231777
0.233355
0.227253
0.217806
0.208654
0.201563
0.195717
0.188503
0.251236
0.194813
0.208756
0.222977
0.230369
0.231292
0.228489
0.22455
0.220844
0.216974
0.211321
0.244994
0.18435
0.1947
0.210012
0.221641
0.228408
0.231461
0.232176
0.231325
0.228887
0.224401
0.239097
0.172465
0.177566
0.191696
0.205209
0.21576
0.223094
0.227383
0.228762
0.227559
0.224505
0.234217
0.158367
0.156174
0.166569
0.17916
0.190819
0.200495
0.207677
0.211864
0.212534
0.211501
0.240764
0.142439
0.139092
0.147203
0.160145
0.176024
0.192682
0.205143
0.208284
0.202814
0.196375
0.487351
0.698565
0.597731
0.459807
0.324618
0.213724
0.135447
0.0848152
0.0526217
0.0322883
0.0200347
0.387016
0.575695
0.545106
0.436836
0.312645
0.207503
0.13187
0.081977
0.0502758
0.0305869
0.0188709
0.292328
0.499676
0.500004
0.425418
0.317511
0.215515
0.137737
0.0850079
0.0513597
0.030787
0.0188615
0.242988
0.442501
0.463916
0.412666
0.320306
0.223581
0.145297
0.0905116
0.054898
0.0327767
0.0198172
0.208738
0.374572
0.411708
0.389252
0.318835
0.231603
0.153857
0.0965892
0.0584086
0.0342758
0.0200595
0.190333
0.330209
0.366928
0.355291
0.3015
0.22704
0.154867
0.0986498
0.0601822
0.0358043
0.0214338
0.179137
0.300069
0.33503
0.326135
0.27948
0.2142
0.149372
0.097325
0.0605103
0.0364569
0.0219129
0.172432
0.278421
0.310005
0.301775
0.260301
0.201604
0.142682
0.0945738
0.0598599
0.0367524
0.0228257
0.167415
0.261405
0.289664
0.281399
0.24331
0.189682
0.135724
0.0912933
0.0587996
0.036751
0.0230971
0.162961
0.246972
0.272713
0.264601
0.229128
0.179468
0.129496
0.0881271
0.05754
0.036386
0.0228412
0.158988
0.234527
0.258484
0.25078
0.217551
0.171106
0.124301
0.0853543
0.0562805
0.0359004
0.0228642
0.156074
0.224125
0.246613
0.239335
0.208051
0.16431
0.120097
0.083085
0.0552049
0.0354561
0.0226994
0.153858
0.215217
0.236669
0.230004
0.200541
0.159123
0.117009
0.0814985
0.0545242
0.0352622
0.02282
0.151733
0.20727
0.228283
0.222655
0.195067
0.155678
0.115204
0.0807493
0.0543545
0.0353799
0.0231899
0.150293
0.20047
0.221296
0.216923
0.191271
0.153762
0.114612
0.0808525
0.0547214
0.0357645
0.0233449
0.149414
0.194452
0.215508
0.21273
0.189202
0.15351
0.115393
0.0819468
0.055718
0.0364742
0.0237006
0.148743
0.188787
0.210675
0.210098
0.189091
0.155254
0.117872
0.0842755
0.0574962
0.0376002
0.0242892
0.148579
0.183542
0.206701
0.208899
0.190939
0.159172
0.122313
0.0880925
0.0602631
0.0392952
0.0251064
0.149366
0.17851
0.203063
0.20863
0.194639
0.165644
0.129157
0.0937769
0.0643493
0.0418415
0.0264999
0.151216
0.173412
0.199518
0.20872
0.199225
0.173588
0.138155
0.101618
0.0701491
0.0456654
0.0287542
0.15442
0.168084
0.195655
0.208785
0.20418
0.18248
0.148726
0.111468
0.0779947
0.0513464
0.0324812
0.160465
0.161503
0.191465
0.207993
0.208298
0.19109
0.160075
0.123279
0.0884931
0.059792
0.038644
0.167823
0.156036
0.185211
0.20608
0.210856
0.1983
0.171276
0.136778
0.102171
0.0720752
0.0485872
0.19107
0.165135
0.194564
0.201449
0.20497
0.19701
0.176997
0.148778
0.117798
0.0884829
0.0637235
0.449846
0.61895
0.57693
0.489716
0.383865
0.266846
0.169209
0.105779
0.0646778
0.0388077
0.0236329
0.348316
0.452537
0.50039
0.477243
0.411671
0.318747
0.221195
0.140668
0.0853982
0.0511683
0.0301224
0.189268
0.412921
0.450109
0.450084
0.414565
0.347157
0.2618
0.178276
0.113126
0.0684992
0.0410447
0.19886
0.395926
0.47846
0.460538
0.423283
0.366502
0.292247
0.212005
0.141324
0.0894688
0.0565544
0.218904
0.400023
0.592571
0.580342
0.493873
0.408361
0.325679
0.244033
0.169767
0.111334
0.0730802
0.23485
0.394502
0.624349
0.779014
0.684011
0.525944
0.392305
0.286516
0.201152
0.134821
0.0902639
0.250131
0.38715
0.604612
0.856038
0.932982
0.753919
0.533922
0.364202
0.245421
0.162713
0.108562
0.265397
0.382506
0.574158
0.825714
1.06684
1.03115
0.767008
0.503479
0.318524
0.201326
0.130417
0.280368
0.382268
0.546492
0.769975
1.03313
1.20112
1.02671
0.700916
0.430544
0.25785
0.158867
0.294736
0.386424
0.524615
0.708509
0.945883
1.2008
1.2142
0.912968
0.572592
0.333464
0.19567
0.308525
0.395615
0.51132
0.651568
0.843927
1.10184
1.26969
1.07518
0.712745
0.417496
0.238485
0.322366
0.409206
0.505976
0.604239
0.746422
0.96909
1.20209
1.14938
0.81371
0.489554
0.279495
0.33688
0.428125
0.507975
0.570281
0.665497
0.838565
1.07961
1.13962
0.854073
0.530604
0.307784
0.352753
0.451898
0.515605
0.548483
0.603633
0.722237
0.928378
1.07109
0.833575
0.531612
0.317417
0.3701
0.480698
0.527916
0.53464
0.557576
0.630012
0.756041
0.89055
0.775563
0.49429
0.30849
0.38914
0.516561
0.546502
0.525287
0.514274
0.543004
0.60631
0.67266
0.667214
0.455842
0.289405
0.411018
0.562948
0.576159
0.525855
0.481369
0.473555
0.495611
0.525375
0.528163
0.41906
0.273453
0.437397
0.624895
0.624896
0.546207
0.471729
0.438022
0.436672
0.446018
0.442305
0.389932
0.28266
0.471633
0.711186
0.707166
0.602704
0.500422
0.448144
0.436758
0.440935
0.437969
0.40503
0.329444
0.519115
0.847906
0.862148
0.735761
0.601658
0.529637
0.513072
0.511057
0.495894
0.451526
0.376828
0.520324
0.940114
1.01091
0.898878
0.746961
0.645321
0.561032
0.500933
0.439452
0.372586
0.289828
0.49265
0.886452
0.979304
0.917195
0.714615
0.516335
0.401549
0.321452
0.259811
0.210085
0.164801
0.373317
0.613626
0.59559
0.482031
0.364373
0.286794
0.236887
0.200943
0.17073
0.142194
0.113899
0.231367
0.187734
0.177784
0.176526
0.179095
0.180115
0.174824
0.161014
0.139748
0.114207
0.0882343
0.105494
0.104536
0.103771
0.10051
0.0941265
0.0831425
0.0640175
0.0346667
0.0172826
0.171414
0.1572
0.145687
0.133743
0.117724
0.0982757
0.0767104
0.0537121
0.0333506
0.166295
0.153723
0.141332
0.131504
0.123033
0.111684
0.0936687
0.0688562
0.0445797
0.137024
0.127977
0.119392
0.11628
0.113991
0.10856
0.0977045
0.0768641
0.0530487
0.115058
0.114415
0.10907
0.0995594
0.0856321
0.0642173
0.0295508
0.0180194
0.0159599
0.183804
0.176627
0.162448
0.141717
0.116574
0.0897219
0.0635796
0.0319606
0.0255809
0.177658
0.17302
0.160241
0.149352
0.135779
0.113504
0.0842848
0.0430506
0.0333553
0.14803
0.151252
0.144244
0.138577
0.132236
0.118946
0.0954401
0.0535443
0.0403264
0.00442776
0.00460206
0.00461754
0.00211496
0.0465533
0.00438324
0.0111115
0.00454945
0.00437486
0.00425031
0.0456114
0.00455892
0.0037028
0.00329015
0.00448412
0.0043037
0.0033091
0.00209754
0.00429323
0.00425041
0.00411336
0.00467517
0.00466533
0.0185962
0.00449209
0.00330254
0.00375789
0.0106281
0.0598434
0.0489983
0.00340212
0.00410329
0.00297203
0.00453693
0.00427222
0.00459269
0.0172852
0.00448714
0.00289435
0.0043894
0.00567013
0.00454609
0.00668237
0.0046583
0.0602706
0.0131298
0.00331989
0.0210157
0.00429516
0.00433532
0.0491747
0.00439581
0.00811732
0.00674144
0.00432873
0.00412042
0.00461741
0.00440177
0.0604773
0.00368731
0.00517052
0.0062888
0.0535409
0.00794496
0.00741425
0.00426234
0.0520171
0.00435125
0.00460234
0.00424189
0.00329671
0.00429567
0.00311497
0.0045228
0.00441967
0.00426546
0.00420015
0.00459799
0.00936448
0.0738325
0.0457151
0.0063652
0.00449583
0.00462623
0.00438742
0.00313269
0.0787207
0.00576834
0.00318106
0.0183647
0.00454223
0.00441337
0.00653877
0.00437214
0.0728035
0.0353577
0.00268306
0.00399649
0.0035011
0.00435487
0.0046607
0.0183027
0.00416782
0.00402425
0.00280942
0.00455188
0.00304838
0.00464658
0.00437905
0.00414859
0.00451084
0.00456094
0.00430054
0.00224713
0.00416097
0.00442323
0.0043753
0.00431672
0.00450393
0.00413959
0.00228025
0.00446809
0.00487617
0.00325572
0.0113841
0.0041994
0.0606332
0.00304573
0.00322371
0.00355076
0.00445431
0.00368077
0.01921
0.00426996
0.00461431
0.00459143
0.00374685
0.00430022
0.049928
0.00447106
0.00693438
0.00411443
0.0240561
0.00402525
0.00436721
0.00330043
0.00450338
0.00433919
0.00430447
0.00425603
0.00429184
0.00442008
0.00356158
0.00445088
0.00225287
0.0036853
0.00376304
0.00361473
0.00320764
0.00436017
0.00364237
0.00423141
0.00428745
0.00442985
0.0532583
0.0058109
0.00363831
0.00430694
0.00425162
0.00736664
0.00307277
0.00309736
0.0044046
0.0040577
0.00409332
0.00396264
0.00316513
0.00359574
0.0612525
0.00392878
0.00433436
0.00439338
0.00466002
0.013081
0.00450689
0.00383018
0.00427768
0.00430328
0.00459015
0.0125925
0.0042142
0.00341992
0.00427449
0.00566657
0.00461049
0.00439758
0.00435058
0.00355377
0.00364019
0.00467915
0.00319648
0.0043361
0.00407227
0.00349819
0.00462793
0.00587415
0.00436316
0.0032161
0.00434313
0.00433906
0.0215157
0.00439457
0.00401444
0.00422626
0.00449259
0.00405266
0.0045102
0.00377365
0.00429657
0.00320796
0.00288031
0.00218931
0.00274256
0.00415732
0.00321506
0.00440683
0.00972805
0.0056426
0.00396913
0.0227615
0.00378792
0.0042586
0.00428786
0.00446459
0.00351507
0.0691649
0.0498976
0.00464678
0.00456361
0.00455217
0.00379757
0.00852156
0.0040152
0.00551801
0.00457777
0.00472782
0.00451883
0.00360388
0.028388
0.0587038
0.00358998
0.0217199
0.00520169
0.00430352
0.00395344
0.0043579
0.00414067
0.00447284
0.00311037
0.00427215
0.00339403
0.0045761
0.00432666
0.00457568
0.00450848
0.00313475
0.00411364
0.00473897
0.00559396
0.00372451
0.02208
0.00432092
0.00432998
0.00321358
0.00438996
0.00432819
0.00331871
0.00444838
0.00428225
0.00310375
0.0043289
0.00459776
0.0459034
0.0468086
0.0039546
0.00439594
0.0819686
0.00458969
0.00425028
0.00672174
0.00461651
0.0110135
0.00424592
0.00293399
0.00467875
0.00434808
0.00424424
0.00456674
0.00426699
0.00334848
0.00445029
0.00244979
0.00437731
0.0493773
0.00415258
0.00414998
0.00459902
0.0160269
0.00441557
0.00434843
0.00714427
0.00456387
0.00409093
0.00297037
0.0045512
0.00411013
0.00368562
0.00319295
0.00412961
0.00444376
0.00426933
0.0362871
0.00435624
0.0033936
0.00549713
0.00420574
0.00445266
0.0037095
0.00424222
0.0286557
0.0044583
0.0539893
0.00409948
0.00464936
0.00351846
0.0437679
0.00339555
0.00458755
0.00447464
0.00398017
0.00409946
0.020708
0.00433248
0.0057082
0.019982
0.0161569
0.00435513
0.00437746
0.0148097
0.0647748
0.00868223
0.00392076
0.00374177
0.00417125
0.00394474
0.00468915
0.00291373
0.00399916
0.00465952
0.0360006
0.00386275
0.00333244
0.00451761
0.00451228
0.00431012
0.00335191
0.00308692
0.00320988
0.0108942
0.00449402
0.00444138
0.012968
0.0356667
0.00319722
0.00387883
0.00460874
0.00391797
0.00425494
0.00437828
0.00426291
0.0382263
0.00438482
0.00314784
0.00441397
0.00340705
0.0500227
0.00235672
0.0032007
0.00833029
0.00350459
0.0044308
0.00523609
0.00310428
0.00456611
0.0515059
0.00734236
0.00447993
0.0042931
0.00461901
0.00572802
0.00308653
0.00440999
0.0046615
0.00685415
0.00282209
0.00632906
0.00793707
0.00727241
0.00433472
0.0362514
0.00433526
0.00427924
0.00377587
0.00371209
0.00407908
0.00407514
0.00424263
0.00463859
0.00314118
0.00474381
0.0317978
0.003214
0.0126996
0.00414944
0.0039833
0.00413819
0.00449139
0.00481923
0.00437384
0.00878917
0.00448681
0.00315041
0.00343116
0.00410491
0.00432534
0.00310923
0.0252049
0.0485357
0.00326688
0.00468836
0.00395964
0.0773045
0.0021452
0.00239522
0.00423956
0.0042877
0.0037545
0.00348069
0.00434614
0.0040124
0.00444382
0.00461345
0.0044994
0.00419891
0.00452354
0.0115352
0.00308507
0.00320224
0.00492101
0.00459173
0.00434246
0.0628727
0.00320173
0.00394484
0.00436161
0.0081688
0.00764385
0.00545505
0.00546768
0.00443806
0.00393396
0.00311012
0.00423145
0.00509866
0.00427895
0.00458722
0.00432725
0.00557893
0.00366935
0.00428106
0.00444964
0.00412819
0.0166413
0.00417497
0.00464659
0.00335629
0.0307332
0.00404816
0.0032657
0.00434128
0.00335584
0.00439582
0.00429177
0.00440161
0.00338644
0.00327047
0.00426525
0.00339796
0.00400228
0.00466401
0.00374819
0.00369947
0.00454104
0.00453508
0.0345722
0.00372696
0.00287405
0.00447396
0.0165077
0.00461916
0.0373971
0.00435299
0.00354281
0.00513452
0.00469826
0.049438
0.00510441
0.00338661
0.00445316
0.00360745
0.0041196
0.00459593
0.00442647
0.00457422
0.00418878
0.0368326
0.00452218
0.00435414
0.0123293
0.00444147
0.00933573
0.00435482
0.0131001
0.00331576
0.00323146
0.00467849
0.0044759
0.00463315
0.00577011
0.00373343
0.0045029
0.0044883
0.00324736
0.00461452
0.00216279
0.00460438
0.0382645
0.00423615
0.00389338
0.00292274
0.00333831
0.0151465
0.0392904
0.0041627
0.00410864
0.00429566
0.00460652
0.00310327
0.00337857
0.00423697
0.00354135
0.0321784
0.0353822
0.00449091
0.00433463
0.00459569
0.00375998
0.0523526
0.00422703
0.00454336
0.00436934
0.0469905
0.00431577
0.00306082
0.00328512
0.00880981
0.0335508
0.00443088
0.00451452
0.00446286
0.00520694
0.00433772
0.00427045
0.00318768
0.00409449
0.00480385
0.00740786
0.00463562
0.00467318
0.071934
0.00440582
0.00354553
0.00322088
0.00541067
0.0033783
0.00406438
0.00359855
0.00421008
0.00444055
0.00449618
0.0312705
0.00305547
0.00389847
0.00425275
0.0045001
0.00664369
0.00426501
0.0044371
0.00426188
0.00427814
0.00320903
0.00310228
0.00537708
0.00567667
0.0040164
0.00525474
0.00429627
0.0100976
0.00425421
0.00445968
0.0294498
0.0287853
0.00438284
0.0043884
0.00372478
0.00415901
0.00433675
0.00565202
0.00460562
0.00416937
0.00329244
0.00293424
0.00382179
0.0031206
0.00318398
0.00550128
0.0254902
0.00494494
0.00618114
0.00354191
0.00354679
0.00460986
0.00349167
0.00462112
0.004173
0.00557083
0.00393839
0.00422459
0.00423706
0.00343973
0.00681304
0.0276315
0.0036135
0.00533054
0.00442449
0.00525283
0.00455036
0.00430039
0.0042747
0.00334968
0.00423799
0.00455381
0.00421011
0.00459366
0.00398804
0.00621876
0.0219584
0.00425707
0.00426608
0.00399184
0.00754349
0.00441053
0.0156194
0.0042865
0.00564666
0.0341937
0.00442969
0.0034133
0.00465957
0.00299302
0.00504165
0.00318403
0.0251542
0.0036498
0.00427803
0.00463642
0.00372334
0.0032116
0.00411035
0.060059
0.00436921
0.00407786
0.00463266
0.00374751
0.00421389
0.00321369
0.00455562
0.00440128
0.00440351
0.00377833
0.00455674
0.00456288
0.00332491
0.00437428
0.00546265
0.00321795
0.00407859
0.0037164
0.00549691
0.00289166
0.00409643
0.00372887
0.00358791
0.00740144
0.00300145
0.011688
0.00446937
0.00336926
0.00449478
0.00443126
0.00660443
0.0044259
0.00340405
0.00328464
0.00431427
0.0041658
0.00413199
0.00416357
0.00458642
0.0583139
0.00629429
0.0370388
0.0041295
0.00397768
0.00558592
0.00334166
0.0044523
0.00346599
0.00378065
0.00286205
0.00452951
0.00334132
0.0322431
0.00454861
0.00948343
0.00350721
0.00458113
0.00544226
0.00437765
0.00429794
0.00422551
0.00336631
0.0043421
0.00319901
0.0045704
0.00300207
0.00428728
0.00294369
0.00370582
0.0247838
0.00428589
0.00429196
0.0222229
0.0127143
0.00446154
0.00319783
0.00385367
0.00477037
0.00519915
0.0036828
0.00429632
0.00414067
0.00293268
0.00500103
0.00429216
0.00438009
0.00441386
0.00320682
0.00388682
0.00469021
0.00449275
0.00453722
0.0316937
0.0351101
0.00358949
0.00457759
0.00337784
0.00426046
0.00455723
0.00458056
0.00462429
0.00448469
0.0045612
0.00316535
0.00505
0.0110868
0.00308553
0.00420902
0.00442645
0.00450336
0.00376894
0.0329402
0.00459546
0.00405842
0.00352504
0.0161854
0.0206799
0.00474638
0.00391935
0.00356325
0.00442977
0.00446608
0.0106841
0.00421998
0.00456781
0.00425136
0.00925985
0.0039978
0.00390249
0.00455568
0.00409644
0.00658976
0.00368093
0.00456673
0.00309666
0.00541818
0.00454691
0.00389816
0.00464041
0.00428632
0.00207095
0.0030206
0.00445342
0.00460124
0.00420702
0.00452974
0.00433354
0.00459105
0.00259797
0.00344552
0.00908435
0.0151369
0.00654949
0.00454948
0.051498
0.00466934
0.00428316
0.00494315
0.00449196
0.00441829
0.00441735
0.00298931
0.0052918
0.00369749
0.00441524
0.00289018
0.00442301
0.00468802
0.0043354
0.00438511
0.00423398
0.00449774
0.00455843
0.00433907
0.0603407
0.00437921
0.00425941
0.00449329
0.017887
0.00430685
0.00450705
0.00488942
0.0594162
0.00428679
0.00452629
0.00298024
0.00314102
0.00464938
0.0045401
0.00419536
0.0040081
0.00840536
0.00459794
0.0121217
0.0029487
0.025637
0.00297766
0.00458056
0.00326138
0.00564151
0.0044429
0.00446003
0.00450542
0.00460811
0.00397867
0.00972177
0.00427563
0.00574966
0.0483243
0.00482957
0.00393717
0.0056728
0.00466283
0.00456141
0.00314289
0.00280129
0.0032979
0.00439695
0.0276139
0.00430146
0.00331703
0.00431802
0.00313727
0.00312933
0.00321857
0.00354932
0.00419759
0.00452733
0.0468549
0.00432349
0.0646184
0.00423012
0.00304941
0.00419298
0.0042116
0.0560159
0.00438212
0.00460353
0.003526
0.00856955
0.00772212
0.00349746
0.00329513
0.00332288
0.00404062
0.0462851
0.00452052
0.00420631
0.0654251
0.00439648
0.00548604
0.00449748
0.0154289
0.00299585
0.0067447
0.00460545
0.00342671
0.00464478
0.00440622
0.00423499
0.00245885
0.0042768
0.00446154
0.00433352
0.00459798
0.00427792
0.00455839
0.00438565
0.00417885
0.00624039
0.00363035
0.00381503
0.00461061
0.00884511
0.00297904
0.00459733
0.0046771
0.00408755
0.00631578
0.0501279
0.0039697
0.00336465
0.00410363
0.0043477
0.00313252
0.00450967
0.00426952
0.0101517
0.00455377
0.067226
0.00927363
0.0319426
0.00455304
0.00455229
0.00379656
0.04319
0.0033564
0.00313649
0.00467574
0.00307131
0.0194166
0.00456364
0.00402844
0.00308061
0.00392239
0.0320643
0.00367802
0.00445783
0.00433154
0.00405928
0.00427431
0.00667079
0.00288374
0.0129999
0.0519706
0.00459981
0.00307831
0.00389535
0.00513633
0.0152904
0.00429541
0.00439133
0.00406571
0.0031276
0.0045457
0.00467138
0.0046788
0.00358111
0.00411885
0.00460744
0.00371597
0.00655442
0.00320664
0.00452702
0.00812947
0.00406941
0.00407684
0.00402144
0.00455662
0.00430816
0.00448148
0.0145607
0.0045026
0.00399454
0.00399859
0.00344219
0.00450861
0.00417943
0.00450398
0.00437618
0.0034016
0.0119435
0.00729431
0.0539417
0.00946535
0.0471652
0.00419893
0.00427177
0.00248891
0.00462889
0.00324942
0.00518475
0.00429701
0.00491921
0.00388379
0.0296825
0.00420831
0.00319828
0.00455112
0.0492007
0.00469503
0.0339584
0.00419106
0.00458179
0.0048612
0.0104546
0.00418723
0.00547336
0.00545825
0.00453079
0.0202565
0.00558641
0.0236957
0.00353434
0.00235796
0.0134921
0.00473114
0.00461004
0.00371798
0.00463406
0.00344553
0.00331598
0.00318291
0.00390549
0.00318732
0.0526704
0.00437418
0.0043334
0.004249
0.00457463
0.00290244
0.00340681
0.00423108
0.00332124
0.0433983
0.00457876
0.0559459
0.00730596
0.00451295
0.00488405
0.00399281
0.00323086
0.00317934
0.0259347
0.00442061
0.00452694
0.0517859
0.00437367
0.00458628
0.00356174
0.00454428
0.0044813
0.0317221
0.00449904
0.0345978
0.00397897
0.00377976
0.00429201
0.00430413
0.00551119
0.00325079
0.0122203
0.0044448
0.00289654
0.00508624
0.00305163
0.00321295
0.00528026
0.00554092
0.00424186
0.00804549
0.0150302
0.0040672
0.00432318
0.00350897
0.00381103
0.00469721
0.00346651
0.05033
0.00425724
0.00468942
0.0045057
0.00403795
0.00280942
0.0032059
0.00330999
0.0799491
0.00462972
0.00587825
0.00555696
0.00457456
0.0039838
0.00424814
0.0042775
0.0634916
0.00463624
0.0176505
0.0236207
0.00456655
0.00449561
0.00464853
0.0313897
0.0327377
0.0219078
0.00335236
0.00456608
0.00430168
0.00327217
0.0413614
0.00657936
0.00307224
0.00434135
0.00616253
0.00482829
0.00539942
0.00416698
0.0133953
0.0279956
0.00405135
0.00382812
0.00430803
0.00436291
0.0303644
0.00319223
0.00371588
0.00460051
0.00468733
0.00413411
0.0483282
0.00315379
0.00298818
0.00780903
0.007513
0.00436862
0.0146173
0.00532854
0.00462216
0.0030492
0.00355249
0.00412952
0.0557924
0.00453549
0.00442481
0.00424546
0.00549053
0.00310276
0.00435507
0.00513288
0.00461509
0.00456141
0.00468819
0.00329929
0.00442908
0.00735675
0.00422873
0.00455957
0.0500911
0.00426173
0.00353698
0.00360213
0.00420707
0.00352068
0.00535362
0.00453055
0.00456657
0.00448676
0.00302289
0.00449688
0.00429262
0.00442227
0.00348682
0.00620727
0.00312391
0.00672672
0.00430092
0.00543951
0.00419463
0.00467562
0.0043989
0.0045868
0.00314978
0.00413979
0.00325882
0.00412185
0.00420865
0.00451014
0.00450456
0.0319311
0.00546859
0.0160232
0.00468828
0.00297646
0.0635716
0.00315943
0.00297948
0.00439479
0.00548864
0.00405829
0.00489567
0.00319171
0.00525458
0.00380602
0.00301718
0.00450161
0.0688124
0.00309184
0.00414771
0.00408416
0.00400778
0.00361203
0.00276697
0.00429897
0.00306583
0.0554148
0.0212407
0.00448721
0.00433613
0.00382311
0.012264
0.00401686
0.00455175
0.00424114