/*--------------------------------*- C++ -*----------------------------------*\
| =========                 |                                                 |
| \\      /  F ield         | OpenFOAM: The Open Source CFD Toolbox           |
|  \\    /   O peration     | Version:  3.0.1                                 |
|   \\  /    A nd           | Web:      www.OpenFOAM.org                      |
|    \\/     M anipulation  |                                                 |
\*---------------------------------------------------------------------------*/
FoamFile
{
    version     2.0;
    format      ascii;
    class       volScalarField;
    location    "0.592816";
    object      epsilon;
}
// * * * * * * * * * * * * * * * * * * * * * * * * * * * * * * * * * * * * * //

dimensions      [0 2 -3 0 0 0 0];

internalField   nonuniform List<scalar> 
21246
(
178.201
95.5831
17.4747
4.09856
1.38644
0.772465
0.587506
0.515951
0.481292
0.458567
0.436224
286.445
213.948
18.9212
5.96247
1.67795
0.851767
0.592675
0.493628
0.443785
0.40981
0.378646
368.404
240.399
31.2397
7.87476
1.85815
0.931874
0.601185
0.477874
0.414586
0.370364
0.328146
407.233
226.457
36.6673
8.78782
1.92896
0.991433
0.604223
0.465187
0.392236
0.341207
0.292869
414.28
214.604
39.0573
8.8268
1.98713
1.02416
0.600458
0.454281
0.375266
0.321002
0.271872
402.771
210.208
43.0396
9.17641
2.07292
1.0367
0.594888
0.444804
0.362357
0.307044
0.259059
376.473
211.129
48.7441
10.5848
2.31061
1.04181
0.592214
0.437193
0.35252
0.297084
0.249551
339.123
215.118
55.2216
12.7813
2.79444
1.08811
0.597001
0.431679
0.345346
0.290164
0.244193
297.88
220.941
62.9178
15.9132
3.62251
1.21529
0.622983
0.432153
0.341438
0.285622
0.240893
256.755
228.079
73.3619
20.5891
5.07573
1.52088
0.686983
0.442351
0.341819
0.283855
0.239899
215.866
236.735
86.175
26.8845
7.34777
2.12492
0.828085
0.47205
0.347794
0.284484
0.240263
177.51
247.737
100.604
34.4694
10.4408
3.1205
1.10109
0.539602
0.364135
0.28861
0.242248
145.261
260.041
117.642
43.8742
14.6113
4.66968
1.59768
0.682091
0.402776
0.299551
0.246693
120.309
271.769
138.512
56.1203
20.3579
7.03231
2.46207
0.967384
0.490114
0.326034
0.25625
104.375
286.47
163.166
71.2776
27.8046
10.3534
3.82583
1.48192
0.669984
0.386227
0.277427
100.389
303.944
193
90.6925
37.6904
15.0006
5.89981
2.35616
1.01615
0.516065
0.325501
108.91
319.219
228.296
116.56
51.485
21.7335
9.07585
3.80759
1.65307
0.783391
0.433735
128.827
328.934
266.435
150.248
70.8713
31.6034
13.9477
6.17758
2.78241
1.30608
0.667543
155.83
326.229
299.135
191.6
98.2723
46.5299
21.6824
10.1373
4.79082
2.30974
1.1584
184.432
308.736
313.227
234.133
135.054
69.3234
34.4309
17.0537
8.49701
4.27539
2.18748
207.594
274.728
296.973
261.792
177.455
102.77
55.8205
29.6995
15.7213
8.32682
4.42778
255.085
240.336
264.159
265.079
215.597
147.101
90.662
53.1034
30.345
17.1407
9.60205
285.978
199.023
200.517
210.598
200.011
167.193
123.723
83.9507
53.8961
33.5458
20.3042
559.581
580.497
482.911
398.154
306.146
224.985
158.512
109.259
74.1148
49.724
32.6138
134.629
64.9325
15.1619
3.12476
1.17826
0.733071
0.596345
0.545989
0.527387
0.522437
0.523339
186.591
57.9776
9.17113
3.10547
1.32575
0.806088
0.636788
0.578305
0.561148
0.562863
0.574506
225.254
70.3578
8.07297
3.28327
1.41231
0.88168
0.687379
0.618641
0.601191
0.609495
0.633923
238.119
66.4407
7.60251
3.41526
1.38661
0.861431
0.661399
0.592729
0.580408
0.597616
0.636008
237.151
55.4006
7.23074
3.33594
1.34396
0.847156
0.638156
0.56286
0.543804
0.555763
0.590495
232.85
45.7192
6.85536
3.13084
1.28184
0.825938
0.613037
0.533221
0.506615
0.510311
0.535821
228.477
38.6885
6.49408
2.90212
1.21772
0.80063
0.587496
0.505874
0.472052
0.465383
0.474927
223.244
33.605
6.14273
2.69076
1.16206
0.77368
0.564386
0.482189
0.443101
0.42833
0.425141
220.105
29.9568
5.85052
2.5254
1.12511
0.74876
0.545298
0.462845
0.420665
0.401943
0.395004
219.908
27.4757
5.63702
2.40396
1.10535
0.729963
0.531086
0.447894
0.403803
0.383343
0.375565
223.455
25.9937
5.53166
2.33627
1.10151
0.719724
0.522207
0.437178
0.391397
0.370207
0.363963
229.506
25.1612
5.49919
2.31228
1.11241
0.718101
0.518589
0.430355
0.38241
0.360246
0.355624
238.075
25.5455
5.55884
2.3317
1.14173
0.726049
0.52085
0.427343
0.376221
0.35187
0.346829
247.718
28.4198
6.11711
2.46204
1.2166
0.752985
0.533999
0.430059
0.373768
0.345459
0.33782
259.08
32.5411
7.14433
2.72725
1.3469
0.806429
0.561586
0.440742
0.376097
0.341646
0.328702
272.996
38.2844
8.8442
3.21925
1.56407
0.902975
0.61127
0.463969
0.385507
0.341799
0.320784
290.428
46.0955
11.5328
4.10699
1.93967
1.0771
0.700468
0.509581
0.407639
0.349452
0.317065
313.318
56.2736
15.527
5.63876
2.60975
1.39995
0.868029
0.599855
0.455918
0.373047
0.323509
344.743
69.6506
21.3495
8.2069
3.82949
2.02344
1.20452
0.789551
0.564805
0.434933
0.355557
389.872
88.0331
29.9619
12.4739
6.0699
3.26586
1.92122
1.2183
0.827988
0.599276
0.458457
459.075
114.93
43.2281
19.6505
10.2099
5.77629
3.49552
2.23504
1.50124
1.05555
0.774887
576.426
157.633
65.1236
32.288
18.0412
10.8942
6.96232
4.65172
3.22843
2.32012
1.7247
805.331
246.125
111.02
59.2622
35.1952
22.4413
15.0806
10.568
7.67756
5.76297
4.45885
1464.07
457.115
237.459
146.736
98.8885
69.4787
51.4143
39.7315
31.7184
25.8537
21.1096
1217.47
535.257
176.051
71.2936
28.1583
11.039
4.86899
2.6256
1.72362
1.30558
1.08086
1325.33
659.591
287.602
123.183
49.6771
16.9143
6.30108
3.03368
1.89058
1.41145
1.17302
1025.57
575.363
321.818
161.232
73.7322
28.8074
10.0819
3.73192
2.091
1.51739
1.27517
620.511
463.698
311.864
180.304
93.2361
41.7168
16.1073
5.71608
2.49732
1.62032
1.3572
313.951
357.57
281.613
186.631
108.33
54.6089
23.7831
9.10942
3.57318
1.87156
1.42885
139.963
264.755
244.739
183.586
118.833
66.818
32.6778
13.9878
5.59278
2.50196
1.5842
75.5663
196.703
209.561
173.793
123.771
76.8181
41.7693
20.0016
8.67326
3.73465
1.96164
67.1256
143.479
178.033
160.064
123.395
83.3263
49.6903
26.3397
12.5821
5.65642
2.70449
56.4182
94.0082
144.382
143.903
119.044
86.1081
55.4609
32.0811
16.8057
8.1393
3.87755
39.4082
51.6116
103.941
123.12
110.922
85.2715
58.551
36.4543
20.722
10.8611
5.40452
27.841
30.6354
66.0605
96.8505
98.2491
80.6328
58.5897
38.8373
23.6979
13.3749
7.05807
20.6643
19.3983
38.6674
69.1439
81.6267
72.3975
55.5672
38.9357
25.2762
15.2436
8.54241
16.614
13.8849
23.2521
45.3839
63.4976
61.6346
50.0489
36.9357
25.3435
16.2002
9.58752
13.5816
10.6423
15.7523
28.3534
45.9327
49.7597
42.8887
33.3073
24.0475
16.1717
10.0002
11.0472
8.35638
11.1736
18.6013
30.5793
38.0184
34.9754
28.6022
21.6646
15.2165
9.74788
9.04798
6.68619
8.09343
12.6718
19.9693
26.9665
27.1197
23.3906
18.5617
13.5463
8.9098
7.39454
5.43594
6.00516
8.77669
13.0758
17.9991
19.8295
18.1787
15.1354
11.4619
7.70097
6.25527
4.57616
4.58459
6.18655
8.60478
11.6365
13.6828
13.4877
11.8834
9.41995
6.53488
5.59032
4.05948
3.6408
4.50665
5.79568
7.56353
9.27843
9.9566
9.4801
8.08658
5.92031
5.79551
4.02286
3.14714
3.57454
4.28878
5.44707
6.97532
8.18669
8.55898
8.09478
6.52953
7.95343
4.44099
3.12166
3.33239
3.91728
5.10936
6.96135
8.55225
9.47207
9.68474
8.85971
11.0523
5.24877
3.47233
3.76842
4.76735
6.50847
8.43437
9.6396
9.7831
9.33061
8.56752
13.6212
5.73766
5.02415
5.94266
7.60163
9.51786
10.4393
10.0522
8.96376
7.84985
6.94417
36.8269
20.1193
15.9163
14.6149
13.9298
12.7134
10.9979
9.19725
7.66261
6.5746
5.8498
1325.13
328.428
139.601
55.6432
21.8547
9.09051
4.31271
2.43412
1.62267
1.22289
0.990915
1045.04
278.433
120.012
53.2404
22.7831
9.89996
4.69894
2.57491
1.65467
1.2119
0.963119
851.814
263.368
115.327
56.0787
25.919
11.6201
5.44955
2.86392
1.74982
1.23497
0.965689
647.448
221.789
102.901
55.6788
28.7392
13.8716
6.59061
3.34013
1.91858
1.28053
0.969662
496.771
179.329
89.2746
51.5655
29.6399
16.352
8.51165
4.31245
2.30954
1.41006
1.00429
387.678
144.059
77.3013
47.3894
29.3095
17.7825
10.3549
5.73241
3.08671
1.7268
1.09396
302.904
116.032
66.9158
43.3654
28.7347
19.0001
12.1212
7.21582
4.00035
2.16692
1.2607
233.296
93.0968
57.605
39.4346
27.9143
19.9816
13.8716
8.90266
5.19164
2.84102
1.5828
175.621
73.8263
48.9716
35.4369
26.7701
20.6566
15.5286
10.7378
6.64393
3.74342
2.02869
128.858
57.7233
40.7959
31.2037
25.1433
20.8596
16.9298
12.6008
8.29891
4.87162
2.66131
91.9843
44.0486
33.0575
26.7865
23.0017
20.4483
17.8708
14.3145
10.0548
6.18896
3.50677
63.9925
32.6407
25.9432
22.3537
20.4246
19.3292
18.0837
15.6272
11.8133
7.63328
4.47367
44.8084
23.9544
20.0389
18.381
17.805
17.784
17.5804
16.1805
13.1507
9.1604
5.64287
33.0264
18.1228
15.7336
15.2573
15.5183
16.1555
16.6398
16.0896
13.8768
10.3534
6.78783
26.6817
14.7397
13.0107
13.1155
13.765
14.6827
15.5086
15.5318
14.0409
11.0966
7.70376
23.8789
13.1676
11.563
11.8234
12.523
13.4282
14.315
14.6528
13.7401
11.3854
8.31836
23.1762
12.746
10.9701
11.1121
11.6355
12.3291
13.0794
13.5329
13.0641
11.2704
8.63794
23.7947
12.9889
10.8844
10.7459
10.9583
11.3173
11.801
12.2255
12.0837
10.8258
8.6662
25.472
13.6671
11.1285
10.6189
10.4505
10.4054
10.5359
10.8171
10.8875
10.1237
8.47825
28.3654
14.7789
11.6925
10.7552
10.1755
9.69154
9.40787
9.4385
9.57316
9.20825
8.02684
32.9237
16.493
12.6818
11.2637
10.2537
9.31463
8.5794
8.26841
8.30751
8.16846
7.42472
40.8151
19.2175
14.4239
12.3752
10.8411
9.40183
8.19036
7.4739
7.27262
7.17123
6.71953
52.544
24.8746
17.6664
14.3486
11.9605
9.92644
8.25651
7.13354
6.6006
6.36361
6.03238
108.114
35.0982
22.8435
16.777
13.2084
10.6896
8.74255
7.31887
6.44278
5.96329
5.60422
1573.2
520.347
227.387
98.1067
38.3024
13.493
4.5719
1.53987
0.522875
0.184721
0.0728057
1213.03
338.14
168.976
79.5843
33.4913
12.7589
4.53961
1.55073
0.522592
0.18101
0.0698789
759.409
266.476
141.843
74.1088
33.9402
13.6834
5.0228
1.72813
0.573346
0.192969
0.0728387
524.406
209.745
121.871
69.2431
34.2477
14.6493
5.60821
1.98943
0.671961
0.225963
0.0834942
376.674
154.665
93.7881
58.9158
32.4631
15.2112
6.16856
2.25706
0.770487
0.253949
0.0882767
303.072
122.03
75.2136
48.3914
27.8015
13.7246
5.83357
2.20732
0.773312
0.262613
0.0958747
256.861
100.834
62.5836
40.565
23.5506
11.8515
5.20036
2.04958
0.748538
0.262979
0.0972842
224.727
85.9605
53.2524
34.5163
20.1574
10.2727
4.6025
1.86666
0.705177
0.257005
0.101464
201.563
74.9857
46.1608
29.829
17.442
8.95185
4.07036
1.69044
0.659674
0.249796
0.102023
184.038
66.7459
40.773
26.2653
15.3586
7.91654
3.63789
1.53906
0.616836
0.240682
0.0994203
170.005
60.3075
36.5923
23.529
13.7665
7.12138
3.29928
1.41566
0.578709
0.230473
0.0977007
159.409
55.1043
33.2464
21.3636
12.52
6.50344
3.03588
1.31815
0.547374
0.221685
0.0953593
151.976
50.9868
30.601
19.6778
11.5695
6.04164
2.84179
1.24695
0.524831
0.215735
0.0947594
146.675
47.8934
28.5881
18.4323
10.8963
5.72875
2.71594
1.20287
0.51189
0.212879
0.0955356
143.927
45.5086
27.0238
17.5045
10.4324
5.53594
2.64925
1.1843
0.508797
0.213502
0.0962104
143.78
43.7929
25.8776
16.8774
10.1742
5.46647
2.64583
1.1941
0.517096
0.218067
0.098278
146.037
42.8408
25.1829
16.581
10.1528
5.5445
2.72021
1.23927
0.539703
0.227561
0.102041
151.958
43.0173
25.0175
16.6456
10.4108
5.79487
2.89051
1.3303
0.581845
0.244309
0.108594
162.613
44.6712
25.4854
17.068
10.9592
6.30937
3.23511
1.5129
0.665426
0.278381
0.121855
180.228
48.3338
26.8538
17.982
11.8582
7.11052
3.79852
1.83499
0.824635
0.349947
0.151055
209.54
55.0869
29.5548
19.5981
13.2075
8.2622
4.64892
2.36601
1.11404
0.493483
0.215709
262.196
65.9083
34.1496
22.1506
15.1057
9.8283
5.86853
3.20965
1.63219
0.783075
0.363629
359.913
83.491
41.1821
26.1405
17.9092
12.0604
7.66387
4.56218
2.56329
1.37253
0.709066
582.124
88.9866
48.493
30.0868
21.6895
15.5745
10.7503
7.0691
4.44454
2.68929
1.58035
1599.19
896.031
417.243
189.915
76.2359
23.2977
7.14588
2.1647
0.692605
0.232696
0.0878671
1647.68
960.728
572.838
311.221
153.03
62.7655
19.8681
4.03482
1.10582
0.354155
0.124259
781.168
791.722
587.772
374.201
212.71
104.234
41.1819
11.343
2.06446
0.570487
0.194317
496.311
820.56
616.318
418.494
258.269
140.851
64.7207
22.7364
5.45319
1.02592
0.319446
540.154
640.364
644.829
461.923
297.806
173.219
87.868
36.3885
11.1971
2.49988
0.554524
521.289
491.332
636.133
521.236
344.066
205.709
110.572
51.024
18.8005
5.20966
1.22163
478.825
376.265
539.27
587.989
412.511
246.969
135.147
66.2945
27.5763
9.13058
2.47614
446.044
320.301
437.597
595.713
494.413
302.462
164.589
82.5506
36.9607
13.9409
4.37373
422.107
283.648
367.723
537.646
562.001
372.161
201.815
100.77
46.7367
19.2623
6.83529
402.407
254.788
320.172
470.308
583.127
441.916
245.526
121.204
56.7546
24.7478
9.68502
387.125
228.84
281.63
408.497
552.559
493.818
289.85
142.511
66.5835
30.0625
12.7139
375.934
208.458
249.106
354.302
495.871
510.915
323.912
160.683
74.9233
34.7083
15.6265
371.785
192.273
220.708
304.997
432.738
494.746
338.962
171.001
80.1166
38.1491
18.1761
374.676
180.679
196.863
260.721
366.47
448.112
330.805
170.127
80.9582
40.0196
20.2834
387.26
175.953
178.752
222.285
298.792
382.28
302.452
157.237
77.2914
40.3311
21.9643
407.706
175.778
164.233
189.256
235.102
285.17
263.9
136.257
70.233
39.6467
23.4013
436.326
179.423
151.025
157.722
179.631
202.677
201.092
121.062
62.8124
38.9912
24.8843
479.569
189.667
141.698
131.153
135.802
145.043
145.898
108.008
60.0994
40.0078
27.3374
551.257
211.737
141.034
114.602
107.786
110.831
113.77
100.239
66.3925
45.4041
31.8492
682.565
256.517
159.09
116.177
99.696
99.4982
104.543
102.199
82.9133
56.7309
38.6015
960.493
360.008
234.549
172.21
141.068
132.112
131.989
125.243
106.734
73.8763
48.8795
1523.57
616.709
465.04
373.379
297.575
243.434
187.715
144.409
104.156
70.8286
45.8245
1114.07
558.806
496.567
358.184
257.228
181.465
124.287
83.6757
55.0333
35.3911
22.1554
1016.25
530.681
307.473
190.358
122.385
79.8345
51.9208
33.2689
20.8484
12.7426
7.58504
74.3495
72.1023
65.4616
56.1769
42.443
22.9191
5.29801
3.075
3.34437
22.7913
22.2071
21.1814
21.2209
20.0693
15.1676
7.68251
2.76438
2.05531
12.2321
11.6331
11.1977
12.2079
13.5474
12.1749
7.18394
3.00795
2.24637
6.98797
6.8095
6.65303
7.50418
9.09648
9.36315
6.41553
3.04843
2.516
75.7896
75.7582
73.6717
69.0794
60.3787
50.0024
35.584
15.8085
4.88621
23.8601
24.8452
23.8506
23.2093
22.4943
22.2279
20.3291
15.3855
6.30254
12.9339
13.4567
12.6098
11.9402
12.1695
13.7288
15.0275
13.776
6.93979
7.36289
7.803
7.25844
6.90584
7.36899
8.5887
10.3669
11.0791
6.92675
0.00901709
0.00829352
0.00834697
0.011058
0.464656
0.00755041
0.128291
0.00809832
0.00752538
0.00695115
0.465419
0.00813521
0.0101182
0.00510081
0.0146135
0.00728597
0.00562493
0.0119474
0.00725006
0.00710364
0.00663523
0.0620621
0.00852145
0.114025
0.0079225
0.0050408
0.00975196
0.119643
1.13085
0.394013
0.00653821
0.00643462
0.00726039
0.00806809
0.00681179
0.00826307
0.103627
0.00790589
0.00825291
0.00757685
0.182821
0.00809978
0.10283
0.00849702
0.730237
0.246747
0.016697
0.360458
0.0069265
0.0073715
0.398533
0.00759563
0.246672
0.10376
0.00735028
0.00666272
0.0590524
0.00761543
1.17113
0.0823733
0.0916383
0.217454
0.510118
0.0355234
0.201339
0.00714305
0.400189
0.00724388
0.00829546
0.00693906
0.00518419
0.00721011
0.0189961
0.00798036
0.0689056
0.0071378
0.0750853
0.00828223
0.0576996
1.14823
0.177047
0.0269732
0.00793265
0.00838151
0.00696798
0.019136
1.9597
0.147155
0.0202633
0.0849754
0.00809386
0.00765032
0.19824
0.00743466
1.07424
0.697757
0.0606126
0.00598458
0.0253948
0.00738216
0.00781141
0.314746
0.00680707
0.00616041
0.0152385
0.00812611
0.00469856
0.00845338
0.0109464
0.00667255
0.00797005
0.00815186
0.00724256
0.00764113
0.0393353
0.00769077
0.00753587
0.0073248
0.00793263
0.00673639
0.00794644
0.00776053
0.00968481
0.00491926
0.22356
0.00727413
0.144777
0.00487424
0.00547462
0.00735258
0.00778022
0.0811145
0.32889
0.00714758
0.0083399
0.00803547
0.061677
0.0164603
0.4162
0.00732802
0.111121
0.00659739
0.226334
0.0086798
0.00751017
0.0242854
0.0149827
0.00723435
0.00713988
0.00707066
0.0071802
0.00766448
0.0266726
0.00773529
0.00826874
0.0231693
0.0276274
0.0419764
0.00557652
0.00747747
0.00549129
0.0335746
0.0071959
0.00771806
0.406318
0.0221551
0.0209363
0.00695148
0.0069868
0.196959
0.00590022
0.00565802
0.00845618
0.00645695
0.00642208
0.00641571
0.00578281
0.028344
0.746453
0.00695861
0.00722435
0.0678661
0.00849766
0.113158
0.00794776
0.0129936
0.00709348
0.00727542
0.00824961
0.0838209
0.0106082
0.00521581
0.00718907
0.179997
0.00832331
0.0076089
0.00744151
0.0262166
0.00790283
0.00856745
0.0261243
0.00735455
0.0112581
0.00723225
0.00838567
0.147893
0.00740438
0.00544267
0.00741492
0.00740844
0.0923953
0.00759145
0.00827412
0.00673767
0.00791343
0.193959
0.00798034
0.0217511
0.00716722
0.0106622
0.0123224
0.00807245
0.054232
0.0386558
0.00476373
0.00763168
0.0755623
0.0191558
0.00922859
0.156965
0.042108
0.00713631
0.00715335
0.00771417
0.0270746
1.63183
0.311467
0.00845057
0.00815154
0.00810857
0.0218084
0.0309827
0.00612955
0.161363
0.00818355
0.0400217
0.00800617
0.00776921
0.452589
0.239831
0.00770696
0.0957982
0.0101243
0.00727233
0.00602157
0.00746864
0.00672697
0.00785805
0.0189661
0.00706858
0.00832857
0.00957229
0.00738256
0.00820083
0.00796333
0.0152767
0.00659015
0.00823508
0.0176441
0.00694225
0.205187
0.0073208
0.00732976
0.0158842
0.00756905
0.00736665
0.00520089
0.00776379
0.00691066
0.0188867
0.00730321
0.00829065
0.18115
0.284666
0.00603281
0.00759512
1.40434
0.00825351
0.00683072
0.103785
0.008352
0.11442
0.00709534
0.00937149
0.00856566
0.00743923
0.00689001
0.00816718
0.00681778
0.0052699
0.00775806
0.00982604
0.00709779
0.402297
0.00676414
0.00666869
0.00828572
0.0339349
0.0654495
0.00744102
0.0857115
0.00817094
0.00645915
0.00701089
0.0813056
0.00655621
0.00701636
0.0145628
0.0067121
0.00774019
0.00708791
0.107044
0.00746372
0.00538932
0.0243702
0.00679295
0.00778241
0.0059241
0.00709145
0.241041
0.00729191
0.524193
0.0724568
0.0084638
0.0112793
0.735916
0.0236381
0.00824367
0.00785236
0.00590223
0.027039
0.0949093
0.00732294
0.0239025
0.185601
0.0349459
0.0669972
0.00753514
0.0894537
0.181336
0.114744
0.0058106
0.00700495
0.00682046
0.0133818
0.00860274
0.013406
0.00695885
0.00850121
0.247291
0.00986361
0.00525944
0.00800665
0.00798823
0.00728951
0.0198371
0.00529656
0.0179005
0.148659
0.00810788
0.00774143
0.107559
0.57681
0.00472844
0.0119321
0.00832236
0.00905003
0.00676518
0.00752986
0.00709541
0.184007
0.00756161
0.0240168
0.0076548
0.00517749
0.328001
0.00954927
0.00474096
0.0317131
0.0237072
0.00769858
0.0533247
0.0046909
0.00790764
0.352497
0.205982
0.00787123
0.00721642
0.00836609
0.042079
0.0187124
0.00764683
0.00850534
0.107717
0.00805937
0.19555
0.0550407
0.0206005
0.00734527
0.105065
0.00687124
0.00720219
0.00950938
0.00897646
0.0282377
0.00640151
0.0108041
0.00838125
0.00482426
0.0421112
0.290558
0.00613751
0.158986
0.00953376
0.0062848
0.0066411
0.00788509
0.0281995
0.00966046
0.207872
0.00789757
0.0238416
0.00506027
0.00663373
0.00682223
0.0191053
0.194592
0.417162
0.0049649
0.00860021
0.00596182
1.99388
0.0256832
0.00979307
0.00681627
0.0457261
0.124448
0.0410699
0.0074232
0.0351827
0.00773856
0.00833661
0.00794074
0.0320754
0.0174842
0.164919
0.00584964
0.0279376
0.0263559
0.00825661
0.0074079
0.154526
0.00502551
0.00599503
0.00685895
0.142399
0.114717
0.0902244
0.0916648
0.00729082
0.00657591
0.0184993
0.00698436
0.091873
0.00683291
0.00824184
0.00735151
0.0347661
0.0333011
0.00711903
0.00778074
0.00668362
0.0970979
0.0693862
0.00845574
0.0229315
0.246785
0.00941141
0.0224534
0.00741229
0.028073
0.00760162
0.00684024
0.00761666
0.00636933
0.00656795
0.00715549
0.00536361
0.00853496
0.00817145
0.00564837
0.00588751
0.00807602
0.0080643
0.502283
0.0351278
0.0161316
0.0072899
0.28207
0.008358
0.273441
0.0163847
0.0253908
0.0187797
0.00794611
0.335856
0.0328862
0.00533231
0.00778493
0.00634747
0.00667691
0.00828464
0.00769554
0.00819254
0.00675477
0.181826
0.00799718
0.0074573
0.0826409
0.00773042
0.182401
0.00666246
0.0273532
0.00563537
0.0200817
0.00856539
0.00786435
0.00841423
0.17793
0.0343561
0.0079518
0.0079093
0.00489558
0.00834822
0.0283922
0.00831375
0.253876
0.00681318
0.0452223
0.00867977
0.00755884
0.276065
0.286766
0.00679381
0.00657508
0.00710678
0.00831313
0.0190193
0.0399461
0.00721278
0.00781666
0.479141
1.00352
0.00791735
0.00736808
0.00828239
0.122658
0.32511
0.0193686
0.00809045
0.00751597
0.27806
0.00727391
0.00834228
0.00585576
0.0237758
0.342712
0.0077096
0.0204411
0.00782077
0.0343324
0.00738911
0.0767799
0.00603812
0.00643445
0.0858423
0.0294522
0.00842337
0.00854779
1.00547
0.00763755
0.00615737
0.0103462
0.0379714
0.116799
0.0268715
0.00739231
0.00692676
0.00773074
0.00791064
0.560849
0.0144916
0.0120532
0.00711235
0.00794835
0.0447212
0.00703946
0.00765592
0.00682355
0.00712639
0.00795465
0.0141847
0.0387026
0.0181223
0.00621436
0.0109823
0.00724875
0.0560105
0.00710376
0.00778734
0.477114
0.138121
0.00755246
0.00757672
0.060312
0.00676803
0.00738892
0.0194576
0.00831503
0.00672499
0.00968151
0.00911218
0.00828273
0.00487504
0.00566711
0.0396823
0.0624733
0.0336783
0.0315514
0.00627893
0.0214392
0.0327754
0.00859306
0.00836488
0.00679089
0.025272
0.00607039
0.00696084
0.00709329
0.00508509
0.106773
0.428935
0.006086
0.0100809
0.0076898
0.0130457
0.00811856
0.00724926
0.00693103
0.0129135
0.00702981
0.00733283
0.00684407
0.00826507
0.0138107
0.0554681
0.153187
0.00710346
0.00699786
0.00754916
0.100365
0.00762194
0.132028
0.00720301
0.0523416
0.0733094
0.00770622
0.0269745
0.00849879
0.00698489
0.0171047
0.0080513
0.41633
0.00556097
0.00667237
0.00841786
0.0127424
0.00505184
0.0330337
0.150644
0.00750794
0.0064189
0.00840443
0.00784287
0.00690895
0.0203618
0.00813861
0.0076113
0.00762407
0.00982272
0.0284925
0.00816079
0.00759444
0.00751232
0.0176865
0.0056038
0.00648218
0.0119892
0.144778
0.00962926
0.0063366
0.00618593
0.00821086
0.0374409
0.00653448
0.139967
0.00783917
0.00657934
0.00791075
0.00725564
0.079835
0.00796794
0.0293646
0.00508781
0.00727978
0.00671867
0.00671023
0.0235582
0.00823794
0.240186
0.0934704
0.249087
0.00662415
0.010255
0.088306
0.114901
0.00763662
0.00848618
0.0337696
0.0124054
0.00803296
0.00528298
0.469166
0.00811566
0.174464
0.00917713
0.00827225
0.0536562
0.00754228
0.00686149
0.00681537
0.00770916
0.0073288
0.00475024
0.0081933
0.00701844
0.00713819
0.00911009
0.0349717
0.120983
0.0102594
0.00723563
0.168111
0.235889
0.00781952
0.00478897
0.00710742
0.0516373
0.0100428
0.0433842
0.0069814
0.0398801
0.00871175
0.00885846
0.00722021
0.00694071
0.00765565
0.060139
0.0568016
0.00860696
0.0078948
0.00740199
0.260478
0.120789
0.00734979
0.00820875
0.00674032
0.00731092
0.00813948
0.00821658
0.00837834
0.00787767
0.00791853
0.00560854
0.0500612
0.0882852
0.00494388
0.00701633
0.00770511
0.00793496
0.00671519
0.204949
0.00827496
0.00628539
0.00760349
0.268302
0.108671
0.0416406
0.00779363
0.0407294
0.00771705
0.00781722
0.21066
0.00715043
0.00817067
0.00713841
0.0206375
0.00601808
0.00592997
0.00813928
0.0106199
0.172039
0.0241546
0.00816528
0.0045805
0.0750533
0.0277113
0.0352375
0.00843106
0.00719793
0.0125783
0.0129057
0.044225
0.00829383
0.00684859
0.00807466
0.00737409
0.00825926
0.0983249
0.00626693
0.172467
0.223605
0.0996428
0.0081089
0.463855
0.00853349
0.00719321
0.00976151
0.00789743
0.00766205
0.00766112
0.014118
0.214955
0.0228195
0.0076519
0.0344216
0.00768923
0.0085985
0.00737477
0.00756423
0.00710872
0.00792832
0.00815025
0.00733881
1.67439
0.00754254
0.00712925
0.00748908
0.159806
0.00715744
0.00796776
0.0192504
1.5567
0.00698921
0.00770823
0.0104316
0.0276585
0.00846778
0.00808515
0.00678427
0.00860341
0.0662814
0.00828593
0.0809649
0.00940341
0.06406
0.00812244
0.00821737
0.00606712
0.0288544
0.0077485
0.0076807
0.00733176
0.00831868
0.00593714
0.194649
0.00668565
0.0253348
0.247344
0.0494577
0.00604562
0.0423178
0.00851197
0.00814737
0.00509876
0.00891194
0.00594123
0.0075979
0.274552
0.00724925
0.0102077
0.00731479
0.00460626
0.00553646
0.0201003
0.00738941
0.00693739
0.00804206
0.277725
0.0622106
0.154436
0.00654545
0.00946455
0.00688137
0.00776789
0.233245
0.00753982
0.0083038
0.00609736
0.200708
0.0321413
0.037531
0.00589881
0.00523742
0.194211
0.647432
0.00801534
0.0069476
0.187018
0.0076052
0.0213275
0.00792401
0.0644432
0.00819474
0.0194472
0.00830522
0.00738266
0.00845073
0.00762747
0.0109321
0.00838314
0.00711963
0.00780785
0.00732578
0.00957929
0.00828479
0.0391422
0.00745732
0.00687096
0.194859
0.0207167
0.0438775
0.00832619
0.0240701
0.00748667
0.00829057
0.0266951
0.00646501
0.0971381
0.377798
0.00609832
0.0130344
0.00653628
0.00741914
0.0166765
0.0136933
0.00701917
0.0283018
0.00813382
1.54982
0.0203944
0.760855
0.00812836
0.0207568
0.0122154
0.316895
0.00767094
0.00556055
0.00855556
0.00453926
0.119894
0.00815931
0.00890814
0.129481
0.0254953
0.202047
0.00787115
0.00778318
0.00736719
0.044634
0.00684109
0.194281
0.0115006
0.0263846
0.336435
0.00829289
0.0152388
0.0323147
0.0292967
0.062424
0.0456589
0.00758227
0.0114727
0.00489794
0.00809971
0.00780982
0.00856527
0.0564352
0.00659538
0.00832652
0.00555748
0.091991
0.0048105
0.0080249
0.103272
0.0145628
0.00689249
0.0105473
0.00813843
0.00708095
0.00734126
0.205256
0.00713664
0.128209
0.00616393
0.0244922
0.00796491
0.0069486
0.00796001
0.00753463
0.0213961
0.114523
0.118308
0.647265
0.207576
0.660856
0.00687976
0.00720434
0.0100615
0.00838978
0.00583549
0.212618
0.00691486
0.0998598
0.00608762
0.186454
0.00683045
0.00480159
0.00811879
0.284794
0.00862486
0.476047
0.00681598
0.00816096
0.0448996
0.0533309
0.00675154
0.0251431
0.076339
0.0639261
0.109912
0.019939
0.230583
0.0072705
0.00801991
0.24864
0.017521
0.00833013
0.00616718
0.00827365
0.00503977
0.00527118
0.0105656
0.00773395
0.0153291
0.636736
0.00752778
0.00723904
0.00685496
0.00819503
0.00976471
0.005428
0.00701338
0.00557075
0.374701
0.00735232
0.633343
0.0708879
0.00767465
0.141497
0.0518226
0.0160324
0.00693045
0.0613965
0.00768698
0.0080373
0.341206
0.00752311
0.00824489
0.00573919
0.00809752
0.00773682
0.209628
0.00778244
0.575449
0.013581
0.0280861
0.00723328
0.0124284
0.0898837
0.00603799
0.227227
0.00776377
0.0115204
0.0608212
0.00708821
0.022113
0.030413
0.0149874
0.00747256
0.0324928
0.039184
0.00644905
0.0073399
0.0266695
0.00694794
0.0184895
0.0245274
0.375309
0.00711812
0.00860362
0.00796744
0.00621626
0.00864104
0.00473542
0.0374107
1.3052
0.00800276
0.024013
0.0280465
0.00820842
0.0345169
0.00709352
0.00698493
0.947765
0.0457351
0.300688
0.170686
0.00816495
0.00793024
0.0218461
0.229287
0.126474
0.242471
0.00493061
0.00817798
0.00719363
0.0060887
0.112647
0.0474045
0.00836266
0.00739781
0.0278447
0.0981003
0.0367194
0.00677306
0.0899769
0.225884
0.00638605
0.00558721
0.00728067
0.00717406
0.223166
0.00536642
0.00821655
0.0151236
0.00778082
0.00636512
0.377773
0.0101798
0.010055
0.0331257
0.00907346
0.00751273
0.194678
0.0196657
0.00836314
0.00459746
0.0230072
0.00661679
0.206547
0.00806551
0.00769092
0.007039
0.153584
0.0063962
0.00745999
0.0323096
0.00833928
0.00815021
0.00859551
0.00514583
0.00770565
0.0287904
0.0178338
0.00814604
0.456657
0.0356489
0.00758445
0.0313288
0.00717754
0.00515652
0.0321658
0.00802734
0.00816746
0.00788667
0.0073547
0.00793603
0.00719858
0.00795142
0.0497672
0.0919262
0.00606506
0.0761438
0.00691995
0.0204145
0.0178205
0.00855533
0.00676214
0.015888
0.00484904
0.00674806
0.00586768
0.00666118
0.00685426
0.0079566
0.0379603
0.0689151
0.0240717
0.0903293
0.00859361
0.0153586
0.181016
0.0160766
0.0120913
0.0075996
0.0336985
0.18476
0.145475
0.00471729
0.0121984
0.0322901
0.0065984
0.00795298
0.904946
0.00496441
0.00674312
0.0262582
0.0249472
0.00584442
0.0122502
0.0147976
0.00452437
0.596783
0.36871
0.0078997
0.00721119
0.137525
0.127161
0.0104519
0.00811732
0.00704779
0.00839088
0.00748389
0.0783383
0.0076173
0.00846091
0.133188
0.0097308
0.00735173
0.00770344
0.00756979
0.00671833
0.00857993
0.00727608
0.00980309
0.0070408
0.00879223
0.00804297
0.0289196
0.00819313
0.0993806
0.00770477
0.0209454
0.00838698
0.00771363
0.0601109
0.251143
0.00705204
0.00780608
0.00753603
0.0141102
0.00826624
0.0085362
0.00789534
0.00742128
0.00621069
0.00728349
0.0308818
0.00512087
0.0596257
0.00848267
0.0104682
0.00789092
0.00669262
0.0086949
0.00841774
0.00801857
0.181445
0.00757693
0.0170606
0.00790215
0.00799641
0.478098
0.00845205
0.00855439
0.141012
0.254964
0.017688
0.00756331
0.019905
0.00789309
0.176789
0.00888958
0.0186376
0.0074315
0.00624387
0.0233349
0.00763121
0.0321275
0.00710713
0.015349
0.0233353
0.00808047
0.0152279
0.00762104
0.145528
0.0188126
0.00492437
0.0420651
0.00642744
0.00597012
0.00840172
0.0104301
0.029703
0.00752721
0.0081137
0.090035
0.00679187
0.00681202
0.00690962
0.00541636
0.00789469
0.0272482
0.029824
0.00685579
0.0178721
0.00798165
0.00755699
0.00702075
1.19899
0.00933935
0.00741797
0.090314
0.0321516
0.00821068
0.00706187
0.0289705
0.0105753
0.00661198
0.00727556
0.0111266
0.0393105
0.00754165
0.00693631
0.0747221
0.00715199
0.00830254
0.00734723
0.00693394
0.00789764
0.0226309
0.0076431
0.0555052
0.00631418
0.0134087
0.00813205
0.00498896
0.0290304
0.00690521
0.0132454
0.00765778
0.00732522
0.0392546
0.0136541
0.00547711
0.00845872
0.00743642
0.232835
0.00737975
0.00701251
1.65733
0.00673365
0.00712621
0.0070521
0.00702303
0.00647176
0.00632362
0.0143952
0.00513234
0.016065
0.0071155
0.00758753
0.0151118
0.00458106
0.00748401
0.00646019
0.00563439
0.00730815
0.243783
0.00855549
0.0246678
0.00748723
0.00688926
0.0058312
0.00699797
0.0125794
0.00795541
0.00721726
0.00673657
0.00756671
0.00837717
0.0394112
0.0702945
0.012035
0.0105335
0.0793746
0.00671735
0.00756389
0.00746516
0.221623
0.00725175
0.00664736
0.340482
0.0068252
0.246125
0.151297
0.00684895
0.00810069
0.0071924
0.0053692
0.00493158
0.00680837
0.0080321
0.0152234
0.0371661
0.00459684
0.0347463
0.00780826
0.0647709
0.0233728
0.955936
0.0104843
0.0113489
0.00468605
0.00828722
0.00690663
0.0240384
0.00790242
0.0110079
0.00511571
0.015454
0.00523032
0.0544888
0.0160864
0.0255538
0.233962
0.00780632
0.346938
0.00991403
0.00651872
0.00603352
0.00945021
0.00840599
0.582136
0.00781642
0.120885
0.314143
0.00506318
0.0551057
0.0460525
0.166326
0.00740022
0.00785922
0.00741749
0.00726946
0.00765962
0.00621337
0.00704461
0.0220124
0.00778868
0.259184
0.0154503
0.00764124
0.00818147
0.00955318
0.060707