/*--------------------------------*- C++ -*----------------------------------*\
| =========                 |                                                 |
| \\      /  F ield         | OpenFOAM: The Open Source CFD Toolbox           |
|  \\    /   O peration     | Version:  3.0.1                                 |
|   \\  /    A nd           | Web:      www.OpenFOAM.org                      |
|    \\/     M anipulation  |                                                 |
\*---------------------------------------------------------------------------*/
FoamFile
{
    version     2.0;
    format      ascii;
    class       surfaceVectorField;
    location    "0.0227998";
    object      Uf;
}
// * * * * * * * * * * * * * * * * * * * * * * * * * * * * * * * * * * * * * //

dimensions      [0 1 -1 0 0 0 0];

internalField   nonuniform List<vector> 
32369
(
(4.6416 -7.36481 -4.39013e-19)
(2.42413 -6.46911 4.7933e-18)
(8.47535 -7.36295 3.88408e-19)
(4.58312 -5.54653 -1.56595e-19)
(2.90306 -5.82583 -2.29165e-18)
(6.55592 -4.76252 -5.35818e-19)
(4.67865 -4.38537 -4.30566e-20)
(3.51881 -4.93302 -1.3493e-18)
(5.96216 -4.15892 -3.43272e-19)
(4.66525 -3.49759 -2.49312e-19)
(3.87647 -4.0964 1.51479e-18)
(5.53134 -3.43951 1.25371e-19)
(4.5615 -2.81245 1.40613e-20)
(4.03539 -3.37137 3.9293e-19)
(5.16152 -2.79388 -3.64496e-19)
(4.4098 -2.27809 2.60022e-19)
(4.0666 -2.7503 4.33221e-19)
(4.84984 -2.26069 6.02676e-19)
(4.24229 -1.85096 -5.0853e-19)
(4.01845 -2.23378 -7.10181e-19)
(4.58455 -1.83563 -2.65728e-19)
(4.07506 -1.50277 -9.88134e-20)
(3.92777 -1.80904 2.72831e-19)
(4.3511 -1.48986 -2.30654e-19)
(3.91569 -1.21615 1.99311e-19)
(3.81826 -1.46039 -1.9597e-19)
(4.14275 -1.2035 1.97954e-19)
(3.76752 -0.978398 0)
(3.70261 -1.1751 2.60751e-19)
(3.95699 -0.966071 -1.51959e-20)
(3.58071 -0.948161 -6.19835e-20)
(3.78864 -0.777289 4.0384e-20)
(3.59252 -0.754849 -1.59767e-19)
(0.727867 -5.62615 1.83961e-18)
(-0.515522 -3.92161 4.82786e-18)
(1.8058 -5.13313 -3.23087e-18)
(0.554264 -4.40511 -2.84243e-18)
(2.62345 -4.53019 -1.11719e-19)
(1.49776 -4.38045 -1.11938e-18)
(3.175 -3.8798 2.07248e-18)
(2.2802 -4.02278 8.7363e-19)
(3.50402 -3.24903 4.72775e-19)
(2.81941 -3.53435 -6.06625e-19)
(3.66 -2.67859 -4.20857e-19)
(3.16355 -3.01042 8.78917e-19)
(3.69948 -2.18661 2.01483e-19)
(3.35249 -2.50665 1.3198e-19)
(3.67026 -1.77435 2.59249e-19)
(3.43218 -2.0556 -2.48278e-19)
(3.60553 -1.43373 -1.73495e-19)
(3.44222 -1.66942 7.19075e-19)
(3.52581 -1.15264 2.30885e-19)
(3.409 -1.34812 9.30443e-19)
(3.34893 -1.09148 -1.70059e-19)
(3.4151 -0.901911 -5.00496e-19)
(-0.482294 -3.18718 4.20512e-19)
(-1.08456 -2.23417 -1.62517e-19)
(0.288327 -3.8564 -7.32796e-19)
(-0.347936 -2.92306 -1.09117e-18)
(1.12511 -3.93764 -4.57096e-19)
(0.268207 -3.29393 -1.16506e-19)
(1.86275 -3.693 -1.75589e-18)
(1.02159 -3.39609 -4.82664e-19)
(2.43164 -3.29444 -5.36681e-19)
(1.6917 -3.26452 -2.29371e-21)
(2.82725 -2.83759 1.61557e-18)
(2.22167 -2.9621 -8.84629e-20)
(3.07272 -2.38244 -5.85031e-20)
(2.59942 -2.57591 4.96477e-19)
(3.20295 -1.96603 8.34133e-20)
(2.84524 -2.17601 -7.5497e-19)
(3.25166 -1.60472 1.74008e-18)
(2.99194 -1.80343 -3.39086e-19)
(3.24733 -1.30215 7.19075e-19)
(3.06782 -1.47538 4.50968e-19)
(3.08718 -1.19902 6.28895e-19)
(3.19731 -1.02698 -5.9933e-20)
(-0.699658 -2.07158 -1.34155e-18)
(-0.906776 -1.55989 -1.44361e-18)
(-0.379911 -2.52016 -5.93599e-19)
(-0.418037 -1.98109 1.26695e-19)
(0.151467 -2.86003 -1.10107e-19)
(-0.183585 -2.30182 -5.11053e-19)
(0.783901 -3.03223 1.20268e-18)
(0.325572 -2.57033 -5.97848e-19)
(1.41171 -2.96946 3.30127e-19)
(0.891061 -2.66565 1.85017e-18)
(1.94476 -2.72568 -1.27526e-18)
(1.44109 -2.58937 -9.78544e-19)
(2.3449 -2.38896 -5.8404e-20)
(1.90964 -2.38285 0)
(2.61937 -2.02875 -1.36435e-18)
(2.26968 -2.09973 3.52037e-19)
(2.79663 -1.68633 -1.90247e-18)
(2.52694 -1.78956 -9.71368e-19)
(2.90466 -1.38187 2.61448e-19)
(2.70112 -1.48902 -1.92675e-19)
(2.80217 -1.22497 -6.80147e-19)
(2.95265 -1.10441 3.88347e-20)
(-0.494822 -1.43021 1.33239e-20)
(-0.626479 -1.02743 -1.06368e-18)
(-0.326755 -1.75004 2.20087e-19)
(-0.237348 -1.32852 5.06126e-20)
(-0.0442967 -2.03574 -9.08479e-19)
(-0.172565 -1.58225 -7.12959e-19)
(0.358147 -2.24596 -7.24208e-20)
(0.159043 -1.8341 -5.24632e-19)
(0.84053 -2.32871 7.95829e-19)
(0.554169 -1.99837 -3.12108e-19)
(1.33502 -2.27645 1.74285e-19)
(1.00125 -2.04945 7.16662e-19)
(1.78045 -2.11062 4.36524e-19)
(1.44111 -1.98653 -3.00771e-19)
(2.14017 -1.87228 1.09768e-18)
(1.82889 -1.83259 7.00636e-19)
(2.40597 -1.60528 6.96988e-19)
(2.14277 -1.62301 8.07791e-19)
(2.58983 -1.34312 -1.16593e-18)
(2.37924 -1.39317 6.03274e-21)
(2.53491 -1.1723 -8.42071e-19)
(2.70378 -1.07812 -2.40542e-19)
(-0.266407 -0.94209 -9.74512e-19)
(-0.341052 -0.67582 -2.37381e-18)
(-0.143993 -1.16041 -7.993e-19)
(-0.0218244 -0.841996 9.67424e-19)
(0.0322499 -1.39976 -3.52553e-19)
(-0.0171938 -1.04949 -1.15857e-18)
(0.298127 -1.60637 -7.19461e-19)
(0.21099 -1.25943 1.80682e-18)
(0.644347 -1.74224 -3.94367e-19)
(0.483876 -1.42499 -1.15631e-18)
(1.03726 -1.78586 3.51193e-19)
(0.821034 -1.52749 -3.25113e-19)
(1.43224 -1.73537 -1.50135e-19)
(1.18515 -1.55125 6.92761e-19)
(1.78931 -1.6083 4.18317e-19)
(1.53866 -1.49765 -3.93428e-19)
(2.08472 -1.43319 2.10881e-19)
(1.85356 -1.3826 5.62769e-19)
(2.31333 -1.23949 4.90025e-19)
(2.11314 -1.22949 1.10128e-19)
(2.30105 -1.06143 7.73718e-19)
(2.47988 -1.02861 -7.16496e-19)
(-0.0323309 -0.599629 -9.48211e-19)
(-0.119446 -0.429342 -1.86778e-18)
(0.0542469 -0.728253 8.05943e-19)
(0.179392 -0.520025 1.42824e-18)
(0.175683 -0.918414 6.27126e-19)
(0.168923 -0.659636 -9.14135e-19)
(0.362928 -1.09392 1.65952e-18)
(0.332508 -0.828218 1.80025e-18)
(0.613386 -1.235 -1.12228e-18)
(0.529219 -0.974752 -9.61633e-19)
(0.914213 -1.32193 -3.91766e-20)
(0.782609 -1.08813 -4.87368e-19)
(1.23963 -1.34297 5.49549e-19)
(1.07182 -1.1525 5.51246e-19)
(1.55893 -1.29917 -2.8303e-19)
(1.37216 -1.16053 -7.90414e-19)
(1.84655 -1.20313 5.11143e-19)
(1.65998 -1.11521 1.81695e-19)
(2.08697 -1.07342 3.22215e-19)
(1.91456 -1.02921 1.63644e-19)
(2.11047 -0.920538 -1.03984e-19)
(2.2714 -0.911409 1.96547e-19)
(0.151822 -0.353847 0)
(0.0580983 -0.227307 -1.38475e-18)
(0.239009 -0.420479 -5.30105e-20)
(0.344378 -0.269311 -1.10252e-18)
(0.334029 -0.564399 -6.51138e-20)
(0.339436 -0.368824 8.5223e-19)
(0.475227 -0.706283 -5.4469e-19)
(0.469331 -0.502992 0)
(0.664226 -0.833173 -3.61565e-19)
(0.620146 -0.625854 -6.08781e-19)
(0.896473 -0.930886 5.75313e-20)
(0.816408 -0.733075 1.75931e-19)
(1.15838 -0.987007 -6.03239e-19)
(1.0463 -0.811691 2.16993e-19)
(1.42983 -0.995579 -3.92817e-19)
(1.29534 -0.85268 -6.98157e-19)
(1.68997 -0.959532 -1.33785e-19)
(1.54701 -0.852872 -1.63646e-19)
(1.92302 -0.889923 -2.36387e-19)
(1.78222 -0.816132 1.07357e-19)
(1.97067 -0.752076 -2.33876e-19)
(2.12096 -0.782968 -3.24006e-18)
(0.307941 -0.154628 -2.52248e-18)
(0.219753 -0.0568473 -1.37123e-18)
(0.39745 -0.182431 -3.12969e-19)
(0.497166 -0.0644687 -1.224e-18)
(0.481392 -0.294545 1.00836e-18)
(0.493095 -0.135985 1.68819e-18)
(0.597059 -0.409862 0)
(0.60307 -0.247321 -1.21488e-18)
(0.74784 -0.51905 -1.41172e-19)
(0.725006 -0.350541 4.7644e-19)
(0.932927 -0.61315 3.35441e-19)
(0.883135 -0.446984 -1.08936e-19)
(1.14551 -0.682374 1.98826e-19)
(1.06982 -0.527281 6.08323e-19)
(1.37341 -0.71925 -5.12168e-19)
(1.27686 -0.583572 -6.59602e-19)
(1.60189 -0.721473 4.72155e-20)
(1.49379 -0.610632 0)
(1.81747 -0.693655 1.5135e-19)
(1.70617 -0.607118 3.92404e-19)
(1.88596 -0.574251 1.22291e-19)
(2.0132 -0.633155 1.07245e-18)
(0.463134 -0.0040818 -8.37619e-20)
(0.364548 0.0487716 1.23617e-18)
(0.548981 0.00361365 5.66419e-19)
(0.638078 0.0856947 -2.80948e-21)
(0.620324 -0.0825419 -2.1394e-19)
(0.632438 0.0445888 2.16015e-18)
(0.717212 -0.176275 -9.1171e-19)
(0.728857 -0.0448028 -2.5657e-18)
(0.842148 -0.268899 5.70098e-19)
(0.831127 -0.129587 4.77586e-19)
(0.994788 -0.354533 8.60561e-20)
(0.963365 -0.213869 3.67653e-19)
(1.17131 -0.425979 -1.36345e-19)
(1.11935 -0.290127 3.64516e-20)
(1.36425 -0.476271 -2.19494e-19)
(1.29432 -0.351914 3.65311e-19)
(1.56372 -0.5007 3.04073e-19)
(1.48181 -0.3937 -1.24891e-20)
(1.75903 -0.49842 4.03746e-19)
(1.6714 -0.412114 3.16341e-19)
(1.83529 -0.404654 -5.29396e-19)
(1.94196 -0.458892 -2.61924e-18)
(0.588597 0.0996614 1.44304e-18)
(0.476373 0.111665 1.22995e-18)
(0.680844 0.146594 1.37351e-18)
(0.746905 0.202132 3.07517e-19)
(0.745861 0.0855596 3.67143e-19)
(0.749434 0.188389 2.64914e-18)
(0.830525 0.0116611 -1.4889e-18)
(0.840968 0.11877 -1.84744e-18)
(0.937971 -0.065375 2.86258e-19)
(0.931912 0.0511602 0)
(1.06817 -0.141073 3.53479e-19)
(1.0476 -0.0208169 6.05469e-19)
(1.21874 -0.209887 5.00422e-19)
(1.18249 -0.0905241 -9.09491e-19)
(1.38474 -0.265807 5.98635e-19)
(1.33392 -0.152791 1.24539e-18)
(1.55911 -0.303811 -6.96783e-20)
(1.49794 -0.202551 -2.57347e-19)
(1.73334 -0.32234 -4.90544e-19)
(1.6673 -0.235607 3.13626e-19)
(1.81465 -0.245402 -1.26612e-18)
(1.90081 -0.315606 -3.41574e-19)
(0.671691 0.195054 1.67587e-19)
(0.573905 0.19487 -1.24578e-19)
(0.782863 0.270707 1.34777e-18)
(0.835522 0.32163 1.47916e-18)
(0.851272 0.227713 9.99108e-19)
(0.849951 0.31943 -1.69197e-19)
(0.932163 0.16912 -5.41129e-19)
(0.940537 0.261556 -1.62933e-18)
(1.03013 0.105066 2.54432e-19)
(1.02562 0.206218 1.04894e-18)
(1.14602 0.0387219 -5.05312e-19)
(1.1315 0.144096 2.84692e-19)
(1.27862 -0.0257541 -3.91299e-19)
(1.25258 0.0807907 -9.13526e-19)
(1.42476 -0.083439 5.21991e-19)
(1.38748 0.0200361 1.30309e-18)
(1.57962 -0.129514 2.66639e-20)
(1.5338 -0.033842 -6.87308e-19)
(1.73726 -0.161245 -2.46878e-19)
(1.6872 -0.0764602 9.81426e-19)
(1.82409 -0.0978624 -9.57974e-19)
(1.89441 -0.171601 7.63589e-19)
(0.752101 0.292988 1.02513e-18)
(0.6677 0.276243 1.60843e-18)
(0.874287 0.387858 2.36628e-20)
(0.922376 0.432383 6.08965e-19)
(0.944953 0.356352 -2.61061e-18)
(0.944328 0.439853 1.63903e-19)
(1.0245 0.308316 -3.10446e-19)
(1.033 0.391147 -2.81647e-18)
(1.11747 0.253811 1.16086e-18)
(1.11419 0.344968 1.3699e-18)
(1.22476 0.194943 0)
(1.2142 0.290125 4.77058e-19)
(1.3456 0.13462 5.51844e-19)
(1.32649 0.231868 0)
(1.47784 0.0767313 2.92908e-19)
(1.45018 0.17271 3.27739e-19)
(1.61834 0.0259665 1.06925e-19)
(1.5835 0.116424 -8.39145e-19)
(1.76401 -0.013346 5.25859e-19)
(1.72464 0.0675729 3.87099e-19)
(1.85182 0.0389053 -2.33566e-19)
(1.91624 -0.0269443 -1.84903e-19)
(0.836206 0.370406 1.35403e-18)
(0.73136 0.316574 2.55209e-18)
(0.963738 0.491155 6.94409e-19)
(0.99297 0.520952 -1.3207e-18)
(1.03396 0.473112 2.97007e-19)
(1.02827 0.546473 1.35275e-18)
(1.11199 0.434926 -1.55167e-18)
(1.11884 0.509153 -1.67529e-18)
(1.20185 0.388182 7.752e-19)
(1.1992 0.471713 3.14636e-19)
(1.30396 0.335051 5.28569e-19)
(1.29661 0.422779 7.56716e-21)
(1.41729 0.277821 -2.62054e-19)
(1.40374 0.368206 0)
(1.5399 0.21971 -6.81716e-19)
(1.52001 0.309772 -2.94183e-19)
(1.66924 0.165344 -6.54768e-19)
(1.64353 0.250987 -4.01092e-19)
(1.80264 0.119388 -2.86356e-19)
(1.77433 0.195971 8.1345e-19)
(1.89218 0.159647 -7.47927e-19)
(1.9387 0.0896865 0)
(0.890791 0.448074 3.42749e-19)
(0.801055 0.380225 6.32241e-19)
(1.03846 0.59042 -9.37733e-19)
(1.05955 0.62071 -1.83717e-18)
(1.11558 0.583485 -2.83952e-19)
(1.10771 0.653728 6.80436e-19)
(1.19584 0.553206 0)
(1.20155 0.622768 0)
(1.28539 0.512468 -4.27572e-19)
(1.28322 0.591296 -2.60548e-19)
(1.38516 0.463379 -5.27691e-19)
(1.38061 0.546183 -4.78127e-19)
(1.49398 0.407777 0)
(1.48531 0.493498 0)
(1.60986 0.348462 0)
(1.59687 0.434276 -8.81725e-19)
(1.73067 0.290077 9.56122e-19)
(1.71283 0.372235 2.57244e-20)
(1.85511 0.237881 5.56357e-19)
(1.83503 0.311154 6.1199e-19)
(1.94614 0.26778 -7.84298e-20)
(1.98492 0.201191 2.54147e-19)
(0.948224 0.53249 -1.28187e-18)
(0.880238 0.449094 1.29934e-18)
(1.11149 0.691797 -4.22904e-19)
(1.13116 0.719574 -2.32543e-18)
(1.19504 0.692451 1.03383e-18)
(1.19039 0.759179 9.37976e-19)
(1.2789 0.667492 -2.33944e-19)
(1.28612 0.733963 -3.11303e-19)
(1.37024 0.630553 -2.88098e-19)
(1.3699 0.706699 2.35582e-19)
(1.47002 0.583397 0)
(1.46879 0.663389 3.87648e-19)
(1.57655 0.527435 -7.8949e-19)
(1.57282 0.610386 -8.26969e-19)
(1.6876 0.465318 -9.58808e-19)
(1.68121 0.54831 -4.52088e-19)
(1.80117 0.402004 -3.87915e-19)
(1.79055 0.481677 3.43582e-19)
(1.91697 0.343654 6.02962e-20)
(1.90444 0.413781 3.4671e-19)
(2.00861 0.363642 3.72936e-19)
(2.03909 0.300188 -4.03467e-19)
(1.01892 0.606491 5.46728e-19)
(0.939237 0.496937 1.6298e-18)
(1.18995 0.785669 -1.24418e-18)
(1.19283 0.804449 -2.16664e-18)
(1.27808 0.79755 -2.7958e-19)
(1.27181 0.857699 8.09881e-19)
(1.36536 0.778502 1.03406e-19)
(1.37285 0.841541 2.97409e-21)
(1.45954 0.744205 8.98669e-19)
(1.46199 0.817938 4.69804e-19)
(1.56076 0.697001 -3.13775e-19)
(1.56436 0.774677 7.42463e-19)
(1.66622 0.638406 -5.29115e-19)
(1.66901 0.71876 -1.0489e-18)
(1.77303 0.571595 7.65921e-19)
(1.77454 0.651419 8.0192e-19)
(1.87951 0.502094 1.082e-18)
(1.87706 0.578789 3.18065e-19)
(1.98618 0.436893 6.54637e-19)
(1.98145 0.503766 7.84126e-19)
(2.0762 0.445498 -3.34665e-19)
(2.09658 0.386291 -2.11622e-19)
(1.07564 0.679983 -7.33222e-19)
(1.00676 0.553748 3.3775e-19)
(1.26403 0.876885 -4.01767e-19)
(1.25543 0.893925 -1.03096e-18)
(1.36334 0.900612 1.17639e-18)
(1.35715 0.957667 1.52048e-18)
(1.45791 0.886765 3.23097e-19)
(1.46652 0.948856 -2.35722e-19)
(1.55756 0.853022 2.84149e-19)
(1.56442 0.925821 -2.42453e-19)
(1.66173 0.80281 1.99077e-19)
(1.67182 0.87913 4.8598e-19)
(1.76633 0.738603 7.81301e-20)
(1.77709 0.816547 -2.19237e-19)
(1.86811 0.665127 4.05673e-19)
(1.87814 0.74122 5.05851e-19)
(1.96615 0.588892 -2.81164e-20)
(1.97196 0.661376 0)
(2.06261 0.517014 -3.70686e-20)
(2.06483 0.580277 1.1809e-19)
(2.15101 0.51537 -2.76831e-19)
(2.16547 0.458397 4.92928e-19)
(1.1339 0.758186 1.72368e-19)
(1.08431 0.616118 -1.17666e-18)
(1.3407 0.9704 6.39942e-19)
(1.32447 0.987438 9.46175e-19)
(1.45548 1.00497 3.06182e-19)
(1.45394 1.05966 7.08091e-19)
(1.56116 0.993644 -8.00307e-19)
(1.57527 1.05566 -5.48368e-19)
(1.6687 0.95643 -1.20719e-19)
(1.68412 1.02855 -1.41124e-19)
(1.77607 0.898822 1.43482e-19)
(1.79597 0.973267 9.44719e-20)
(1.87808 0.825538 1.24405e-19)
(1.89896 0.899684 3.45705e-19)
(1.97207 0.743772 1.55074e-19)
(1.9913 0.814411 -1.35564e-20)
(2.05921 0.661108 1.33843e-19)
(2.07285 0.727688 -1.9015e-19)
(2.14399 0.584439 -5.54377e-20)
(2.15161 0.643162 -7.46415e-21)
(2.22911 0.573521 -2.53019e-19)
(2.23518 0.5183 -1.89249e-19)
(1.204 0.841727 -3.64755e-19)
(1.17522 0.68242 -1.91627e-18)
(1.43004 1.06542 1.03536e-18)
(1.4061 1.08239 1.78017e-18)
(1.56414 1.10889 0)
(1.5706 1.15956 -4.96455e-19)
(1.68368 1.09577 6.39942e-20)
(1.70848 1.15557 7.56962e-19)
(1.79924 1.04932 5.17713e-20)
(1.82837 1.11785 -2.82827e-19)
(1.90684 0.979155 2.73812e-19)
(1.94015 1.04796 -1.51662e-19)
(2.00128 0.894192 2.75128e-19)
(2.03374 0.960349 3.45245e-19)
(2.08251 0.804446 -3.1584e-19)
(2.11054 0.865983 -1.45645e-19)
(2.1551 0.717742 -3.47466e-19)
(2.1753 0.775579 -1.91242e-19)
(2.22576 0.639912 -1.69636e-19)
(2.23726 0.691995 -9.80568e-20)
(2.30197 0.620654 -1.34435e-19)
(2.29973 0.573033 0)
(1.29055 0.929995 4.28207e-19)
(1.29191 0.749952 -6.0088e-19)
(1.54052 1.15816 4.92621e-19)
(1.51599 1.17728 2.49933e-19)
(1.69895 1.20483 1.25791e-19)
(1.72102 1.2461 2.79688e-19)
(1.83391 1.18235 5.15774e-19)
(1.87709 1.23275 7.07813e-19)
(1.95366 1.11935 -4.81771e-19)
(2.00162 1.17598 -6.92067e-19)
(2.05352 1.03282 -1.20969e-19)
(2.10168 1.08734 1.79438e-20)
(2.13188 0.93709 0)
(2.17433 0.987685 -5.33524e-21)
(2.1942 0.843451 0)
(2.22809 0.89046 0)
(2.24896 0.757774 4.87896e-20)
(2.27277 0.803434 0)
(2.30437 0.682659 -5.82402e-20)
(2.3179 0.7269 1.07962e-19)
(2.37024 0.658426 -2.60348e-19)
(2.36739 0.618187 8.61338e-19)
(1.41973 1.02399 -5.12946e-19)
(1.4997 0.808911 3.55399e-19)
(1.68972 1.236 -1.01497e-19)
(1.67533 1.23285 -5.56837e-19)
(1.87538 1.27451 7.98914e-19)
(1.92062 1.29696 7.45976e-19)
(2.02052 1.23061 -3.33886e-19)
(2.08599 1.25718 4.72936e-20)
(2.13118 1.14547 -3.07075e-19)
(2.19406 1.1751 -3.18906e-19)
(2.20879 1.04493 1.34567e-19)
(2.26357 1.07249 6.63753e-20)
(2.26067 0.94638 -5.91462e-21)
(2.30368 0.972333 -1.35854e-20)
(2.29935 0.857834 0)
(2.33129 0.884883 3.2509e-20)
(2.33545 0.780902 4.76507e-20)
(2.35692 0.811512 -2.44816e-20)
(2.37685 0.714197 -6.87204e-20)
(2.38851 0.749577 2.52003e-20)
(2.43264 0.690036 -1.16318e-19)
(2.41992 0.651885 -9.30178e-20)
(1.51033 1.03992 3.66178e-19)
(1.85697 0.796078 1.1894e-18)
(1.83549 1.28069 4.00262e-22)
(1.89 1.31296 -6.92987e-19)
(2.05641 1.27533 7.54547e-20)
(2.20738 1.18641 1.14195e-19)
(2.19976 1.20223 1.8247e-19)
(2.31255 1.13863 7.5672e-20)
(2.28755 1.10222 3.49872e-20)
(2.36976 1.06163 1.98137e-20)
(2.33482 1.00351 -7.27563e-20)
(2.39209 0.978178 -4.7189e-20)
(2.36081 0.917332 1.613e-20)
(2.39961 0.905594 -1.77145e-20)
(2.3804 0.846534 1.45481e-20)
(2.40549 0.847174 3.52695e-20)
(2.40347 0.788134 -5.31059e-20)
(2.41769 0.799917 7.96099e-21)
(2.43671 0.737895 -2.33192e-20)
(2.44128 0.761301 -2.7891e-20)
(2.48097 0.719729 9.15831e-21)
(2.48496 0.690271 7.46381e-21)
(2.51915 1.19926 -3.43377e-18)
(3.75076 -0.431189 3.99614e-19)
(2.61726 1.06364 -7.38442e-19)
(1.92118 0.473011 -1.64965e-18)
(2.62875 1.04528 -1.44617e-21)
(1.96019 0.516771 5.89379e-19)
(2.60231 0.988797 0)
(2.12241 0.553364 0)
(2.55249 0.927179 6.9349e-21)
(2.21725 0.568655 0)
(2.50092 0.879193 2.57521e-20)
(2.27228 0.586538 4.03109e-20)
(2.46633 0.839557 5.80082e-21)
(2.32116 0.610197 -3.30421e-20)
(2.45189 0.805854 1.96793e-20)
(2.36048 0.63859 -1.18545e-20)
(2.45671 0.77803 5.28112e-20)
(2.39457 0.665652 1.55834e-19)
(2.48133 0.754283 0)
(2.43266 0.689311 -7.63997e-20)
(2.48688 0.711891 0)
(2.52021 0.732261 1.86902e-19)
(7.24186 -3.17228 4.632e-18)
(7.59681 -4.38808 5.24629e-19)
(6.90639 -3.66148 1.82613e-18)
(6.5497 -1.47696 1.35325e-18)
(6.64916 -3.43593 1.59181e-19)
(7.09712 -2.19728 3.97621e-20)
(6.11316 -2.93198 1.86742e-19)
(6.93037 -2.25503 1.05834e-19)
(5.56129 -2.38298 -1.32104e-19)
(6.37255 -2.00035 -1.38651e-18)
(5.11078 -1.92113 -3.40877e-20)
(5.72845 -1.69727 3.00384e-19)
(4.75315 -1.54754 -1.45295e-21)
(5.21274 -1.41649 4.01021e-19)
(4.4596 -1.2428 1.79852e-20)
(4.81077 -1.16045 0)
(4.21216 -0.993951 -1.41971e-20)
(4.48373 -0.932197 1.9555e-20)
(3.99934 -0.789691 1.89378e-20)
(4.21345 -0.735187 -1.48105e-20)
(3.98351 -0.575275 4.00424e-20)
(3.78646 -0.616158 9.94072e-21)
(5.04854 -0.953661 0)
(3.91357 -2.5454 -9.91986e-18)
(6.32361 -1.09314 0)
(4.62088 -0.0358863 3.63542e-19)
(6.84147 -1.35817 0)
(6.32405 -0.48245 -2.3914e-19)
(6.83679 -1.52882 -1.05126e-18)
(6.8995 -0.746846 3.85981e-18)
(6.41474 -1.51363 -1.53586e-18)
(6.84082 -0.828122 -1.80088e-18)
(5.8144 -1.34662 3.06954e-19)
(6.36181 -0.849603 -1.28843e-18)
(5.28459 -1.1308 4.2058e-19)
(5.74974 -0.814502 1.63483e-19)
(4.85434 -0.915538 0)
(5.22642 -0.713213 0)
(4.50395 -0.721625 0)
(4.79758 -0.58426 0)
(4.21521 -0.55743 0)
(4.44575 -0.450518 0)
(4.16087 -0.335528 -5.90765e-20)
(3.93287 -0.415637 0)
(2.94966 -0.736129 -9.84974e-18)
(1.36239 -2.26288 -1.56089e-17)
(4.69711 0.105724 1.75502e-19)
(2.82067 -0.169562 -9.88349e-18)
(5.88415 0.172113 3.01044e-18)
(4.78668 0.273084 1.44071e-17)
(6.51808 -0.0456731 3.09983e-18)
(5.93003 0.382594 -1.52434e-18)
(6.60008 -0.285513 -1.8103e-18)
(6.47756 0.325365 1.91826e-18)
(6.22093 -0.444069 -1.87646e-18)
(6.44547 0.150063 -2.00651e-18)
(5.67522 -0.492802 -2.20134e-19)
(6.00022 -0.0324148 -2.82069e-18)
(5.18082 -0.450065 0)
(5.48409 -0.124311 1.19297e-18)
(4.75982 -0.363373 0)
(5.02356 -0.13659 0)
(4.41367 -0.26134 -5.18538e-20)
(4.63063 -0.101338 -2.43297e-19)
(4.31226 -0.0562778 1.5045e-19)
(4.10511 -0.161758 -4.59054e-20)
(1.42407 -1.67569 -1.60285e-17)
(-0.417618 -3.07028 4.81711e-18)
(3.16734 -0.0963458 1.80411e-18)
(1.67766 -1.06942 -1.47676e-17)
(4.6428 0.66179 1.04311e-17)
(3.44457 0.183417 1.42387e-17)
(5.67534 0.862205 -3.46436e-18)
(4.79081 0.841056 -5.01197e-18)
(6.19338 0.760835 1.98824e-18)
(5.71644 1.07658 -3.2151e-19)
(6.17349 0.508656 -2.71963e-18)
(6.07635 0.991936 2.26835e-18)
(5.79904 0.268388 -2.00547e-18)
(5.91336 0.745892 -3.7399e-18)
(5.34142 0.125791 1.31656e-18)
(5.52116 0.514323 1.17517e-18)
(4.91764 0.0746236 -2.13641e-19)
(5.10533 0.368436 0)
(4.54979 0.0749559 -1.72413e-19)
(4.71825 0.294862 4.22331e-19)
(4.39283 0.258925 -2.52744e-19)
(4.19493 0.0861402 -2.68903e-19)
(0.219807 -2.87665 9.29955e-18)
(-1.29273 -4.37543 5.07158e-18)
(1.97749 -0.834508 -5.29958e-18)
(0.828784 -2.08742 -4.80116e-18)
(3.5317 0.461821 0)
(2.41484 -0.310357 -5.3855e-18)
(4.74603 1.16201 -2.39412e-18)
(3.82244 0.822384 3.03118e-18)
(5.52827 1.38726 -2.0402e-19)
(4.91318 1.41764 -2.68512e-18)
(5.80011 1.25749 1.81756e-18)
(5.51157 1.55332 -5.35064e-19)
(5.65269 0.975711 -1.38824e-18)
(5.58917 1.37635 1.31081e-18)
(5.31192 0.719994 0)
(5.36293 1.10016 0)
(4.93945 0.547517 5.83616e-19)
(5.03608 0.865011 8.42858e-19)
(4.59045 0.447249 5.31168e-19)
(4.69653 0.700217 1.4639e-18)
(4.38567 0.593564 -1.07242e-18)
(4.23977 0.366004 -3.45977e-19)
(-0.649481 -4.09662 -6.98549e-18)
(-1.79452 -5.32436 -5.5398e-18)
(1.07301 -1.68739 -4.82763e-18)
(0.13263 -2.92371 -1.65133e-18)
(2.6196 -0.000632147 -3.25712e-18)
(1.60497 -0.887925 -5.31107e-19)
(3.90756 1.10548 3.35801e-18)
(3.02223 0.584374 3.62228e-19)
(4.82695 1.66153 -3.00684e-18)
(4.18075 1.49775 -2.43934e-18)
(5.28698 1.74015 -1.14948e-18)
(4.91016 1.87548 -5.77594e-19)
(5.32867 1.53021 2.83444e-18)
(5.15583 1.82884 4.52168e-19)
(5.12514 1.2454 7.45483e-19)
(5.07513 1.57844 1.59478e-18)
(4.83283 0.998825 1.64818e-18)
(4.84815 1.30539 1.69279e-18)
(4.53274 0.816254 7.16205e-19)
(4.57286 1.07724 2.20495e-19)
(4.2979 0.912371 -1.19219e-18)
(4.20151 0.648793 2.12125e-19)
(-1.11399 -4.61525 -2.46326e-19)
(-2.09518 -5.7393 1.13644e-18)
(0.36381 -2.33614 2.55864e-18)
(-0.468107 -3.58612 -1.34009e-19)
(1.85168 -0.473014 3.06449e-18)
(0.879768 -1.47436 -6.49791e-19)
(3.16391 0.909765 -5.17153e-18)
(2.30346 0.246524 6.04939e-19)
(4.15857 1.73429 -9.59546e-20)
(3.50218 1.42669 -2.45193e-18)
(4.73787 2.02043 1.15333e-18)
(4.31496 2.03054 2.73171e-18)
(4.91685 1.92409 -8.16563e-19)
(4.67961 2.13167 -2.09971e-18)
(4.83409 1.6655 2.52043e-18)
(4.71416 1.94268 1.59356e-18)
(4.62921 1.39159 4.73818e-19)
(4.57921 1.6698 -3.92866e-20)
(4.38557 1.15622 -1.17898e-18)
(4.37246 1.4071 -5.79009e-19)
(4.14702 1.17847 5.20305e-20)
(4.12147 0.936156 -5.92912e-19)
(-1.44688 -5.02241 1.42842e-18)
(-2.2117 -5.98387 3.25419e-20)
(-0.200269 -2.91544 -3.2806e-18)
(-0.927561 -4.13936 -3.96793e-18)
(1.18853 -0.953223 -3.26552e-18)
(0.272908 -2.04505 -1.43488e-18)
(2.49614 0.644645 3.68634e-18)
(1.65815 -0.149168 1.81279e-18)
(3.53191 1.69325 0)
(2.87009 1.25679 0)
(4.18957 2.16678 0)
(3.73506 2.06597 1.54079e-18)
(4.46825 2.19112 0)
(4.18583 2.31595 9.39809e-19)
(4.48151 1.98284 -7.62164e-19)
(4.31167 2.20534 -1.3686e-19)
(4.3571 1.70999 -9.5257e-19)
(4.25656 1.95444 -8.57143e-19)
(4.17246 1.44921 5.24467e-19)
(4.11679 1.6821 0)
(3.95789 1.42025 1.16564e-18)
(3.94248 1.2001 4.13386e-19)
(-1.67468 -5.3349 -4.77496e-18)
(-2.2498 -6.13814 6.34934e-20)
(-0.652047 -3.44032 -2.2398e-18)
(-1.25753 -4.57905 -9.45597e-18)
(0.618821 -1.44558 3.30722e-18)
(-0.229299 -2.58003 1.00437e-17)
(1.89314 0.322106 -1.70799e-18)
(1.08623 -0.574587 -2.99145e-18)
(2.94364 1.56772 1.38201e-18)
(2.28499 1.01777 3.05858e-18)
(3.6514 2.21349 2.55195e-18)
(3.17608 2.01043 -2.97808e-18)
(4.00369 2.35791 8.30072e-19)
(3.68704 2.40376 1.98815e-18)
(4.09407 2.21092 -1.52066e-19)
(3.88503 2.37918 -1.51433e-18)
(4.03993 1.95426 0)
(3.89792 2.16262 -7.90764e-19)
(3.91854 1.67955 5.10052e-19)
(3.81683 1.89154 1.65144e-18)
(3.71154 1.6097 5.74294e-19)
(3.74936 1.38871 -1.2413e-18)
(-1.83473 -5.57209 -3.2773e-18)
(-2.27702 -6.24691 7.28599e-19)
(-1.00923 -3.88993 1.13313e-18)
(-1.49105 -4.90695 -5.02961e-18)
(0.127762 -1.92311 5.17031e-18)
(-0.644601 -3.06079 5.84637e-18)
(1.34627 -0.0373565 1.15652e-18)
(0.576187 -1.01152 -2.80471e-18)
(2.39034 1.37673 -7.56994e-19)
(1.74084 0.729709 3.99374e-18)
(3.12645 2.17971 -4.0813e-18)
(2.63788 1.88396 -4.54696e-18)
(3.53246 2.44087 -6.74265e-20)
(3.18867 2.41159 1.03319e-18)
(3.68529 2.36067 -2.20941e-18)
(3.44349 2.47516 -1.3583e-18)
(3.69112 2.12966 5.70144e-19)
(3.51483 2.30073 2.10845e-20)
(3.62345 1.85462 1.83628e-18)
(3.4879 2.04087 -4.14358e-19)
(3.43351 1.74967 5.59708e-19)
(3.52099 1.57103 0)
(-1.9491 -5.74358 -3.08942e-19)
(-2.32607 -6.32494 2.71789e-18)
(-1.27865 -4.25003 -1.32301e-18)
(-1.68175 -5.15843 -2.80749e-18)
(-0.29539 -2.37334 -1.17056e-18)
(-0.988606 -3.48423 2.58072e-18)
(0.84187 -0.42367 -6.76285e-19)
(0.114493 -1.45229 -3.91534e-18)
(1.86131 1.12996 9.0083e-19)
(1.22579 0.39975 1.87495e-18)
(2.60988 2.07581 -2.45773e-20)
(2.11413 1.69573 1.26338e-18)
(3.05567 2.44961 0)
(2.69016 2.34865 -1.85011e-18)
(3.26089 2.43941 7.25658e-19)
(2.99066 2.50032 -4.79553e-19)
(3.32029 2.24044 -9.22496e-19)
(3.11361 2.37288 8.32087e-19)
(3.30426 1.97236 -1.78335e-18)
(3.13757 2.13008 -1.59328e-18)
(3.12929 1.84708 1.09058e-18)
(3.24911 1.69393 -2.90554e-18)
(-2.05445 -5.88629 9.24602e-19)
(-2.39732 -6.39894 2.01191e-18)
(-1.50053 -4.55025 5.61372e-19)
(-1.84475 -5.34971 -1.18702e-19)
(-0.664153 -2.78266 6.05982e-19)
(-1.26345 -3.83476 -6.36921e-19)
(0.376306 -0.818972 -1.95588e-18)
(-0.300653 -1.87672 -1.34374e-18)
(1.35508 0.84171 2.20944e-18)
(0.737844 0.0423814 2.70571e-18)
(2.10143 1.91292 -3.19788e-19)
(1.60288 1.45614 -2.8907e-20)
(2.57452 2.39191 -2.43427e-18)
(2.1906 2.22168 -1.85731e-18)
(2.82391 2.45184 -4.81192e-19)
(2.52722 2.4582 -1.58512e-18)
(2.93249 2.28896 4.42869e-19)
(2.69697 2.38056 8.45474e-19)
(2.96698 2.03399 9.7393e-19)
(2.77073 2.15882 8.91438e-19)
(2.81077 1.88046 2.72191e-19)
(2.97329 1.76499 -1.51627e-18)
(-2.1557 -5.99531 1.35241e-18)
(-2.45943 -6.46408 -2.37717e-18)
(-1.69412 -4.77843 -1.3252e-18)
(-1.98259 -5.49386 1.48284e-18)
(-0.982504 -3.13767 -2.48901e-18)
(-1.49618 -4.13628 -1.72006e-18)
(-0.0524845 -1.21187 2.91977e-18)
(-0.6762 -2.28201 7.2341e-20)
(0.867694 0.519015 6.74037e-19)
(0.272798 -0.337226 1.78577e-18)
(1.59762 1.69561 -1.46233e-18)
(1.09932 1.16836 -6.95392e-19)
(2.08719 2.27041 -9.87343e-19)
(1.6866 2.03233 0)
(2.37457 2.39893 -4.80374e-19)
(2.05161 2.34863 -5.43371e-19)
(2.53026 2.27517 1.29852e-18)
(2.26552 2.3224 1.80715e-18)
(2.61311 2.03758 2.57296e-19)
(2.38956 2.12765 -4.7608e-19)
(2.48702 1.85748 1.11149e-20)
(2.66494 1.76708 -1.98447e-19)
(-2.24788 -6.08473 -2.79266e-18)
(-2.50751 -6.50786 -4.64623e-18)
(-1.86064 -4.98336 1.38649e-18)
(-2.11785 -5.6187 1.95182e-20)
(-1.263 -3.47432 6.47617e-19)
(-1.71002 -4.40153 1.52476e-18)
(-0.451784 -1.60834 -1.24353e-18)
(-1.01856 -2.66562 -1.20683e-18)
(0.392612 0.160454 6.33675e-19)
(-0.173897 -0.737214 6.38159e-20)
(1.09294 1.42176 6.96464e-19)
(0.59759 0.830194 1.22975e-18)
(1.5895 2.08241 5.0465e-19)
(1.17423 1.77754 -7.3388e-19)
(1.91075 2.2774 1.50775e-18)
(1.56142 2.16691 1.12142e-18)
(2.11429 2.19598 3.00464e-19)
(1.81889 2.19285 9.53517e-19)
(2.24933 1.98114 -7.85009e-19)
(1.99562 2.03073 -7.48787e-19)
(2.14873 1.78218 3.2505e-19)
(2.35341 1.74033 -7.21925e-19)
(-2.3417 -6.15415 -2.58416e-18)
(-2.54411 -6.53459 -7.63382e-20)
(-2.0172 -5.15917 3.81563e-20)
(-2.25056 -5.72313 -1.72707e-18)
(-1.52219 -3.7757 -7.53998e-20)
(-1.90821 -4.62365 1.63256e-19)
(-0.826038 -1.99812 -3.82116e-20)
(-1.33484 -3.02337 1.45761e-20)
(-0.0646722 -0.229132 5.80879e-19)
(-0.603067 -1.155 3.18834e-20)
(0.58631 1.09376 6.61109e-21)
(0.0976476 0.452928 5.99907e-19)
(1.08 1.82506 -2.565e-19)
(0.649029 1.45442 -9.01483e-19)
(1.43155 2.08136 5.83752e-19)
(1.05444 1.9054 1.13335e-18)
(1.68498 2.04498 1.08024e-19)
(1.35689 1.98267 -4.08216e-19)
(1.87728 1.86166 2.51531e-19)
(1.59224 1.8598 2.82616e-19)
(1.80858 1.64702 6.58555e-20)
(2.03186 1.64311 1.01401e-18)
(-2.42833 -6.20265 8.86999e-19)
(-2.56719 -6.54393 3.22576e-18)
(-2.16697 -5.30355 -1.79216e-18)
(-2.37112 -5.79652 -1.75523e-18)
(-1.76245 -4.04122 2.44154e-19)
(-2.09861 -4.81411 -3.17395e-19)
(-1.18533 -2.37613 7.60209e-20)
(-1.63603 -3.35148 3.13662e-19)
(-0.526044 -0.643201 0)
(-1.02159 -1.57822 1.07655e-18)
(0.077581 0.707466 -1.48692e-19)
(-0.404735 0.014076 -1.02937e-18)
(0.554872 1.49051 3.59399e-19)
(0.108272 1.05885 3.43634e-19)
(0.935362 1.7997 2.96233e-19)
(0.527288 1.55027 4.66313e-19)
(1.24326 1.81094 -3.22929e-19)
(0.879076 1.67719 -3.20322e-19)
(1.5002 1.66693 1.2793e-19)
(1.17836 1.60189 1.54687e-19)
(1.47652 1.42047 -1.1234e-19)
(1.74116 1.51179 0)
(-2.50562 -6.22223 1.15924e-18)
(-2.58112 -6.52968 7.88679e-21)
(-2.30824 -5.41664 -4.33773e-19)
(-2.48089 -5.83097 3.85495e-19)
(-2.00048 -4.28296 -3.13273e-19)
(-2.28092 -4.95994 4.67136e-19)
(-1.53292 -2.74289 1.23262e-18)
(-1.94248 -3.66794 -6.53367e-21)
(-0.98644 -1.08801 2.30374e-19)
(-1.44454 -2.01057 1.37428e-18)
(-0.457266 0.254512 -6.35678e-19)
(-0.918857 -0.474802 -1.02669e-18)
(0.0129856 1.06416 4.59876e-19)
(-0.44799 0.5591 1.05054e-19)
(0.421706 1.41622 -7.64009e-20)
(-0.0186555 1.08348 -5.97588e-20)
(0.789144 1.47938 9.48713e-20)
(0.387865 1.2576 -2.9669e-19)
(1.11116 1.38606 -6.21777e-20)
(0.754173 1.24631 2.09216e-19)
(1.1411 1.13088 -1.14027e-19)
(1.39571 1.2393 3.17301e-19)
(-2.58043 -6.21092 -7.54252e-19)
(-2.58968 -6.48288 -1.01724e-18)
(-2.4405 -5.47716 1.24176e-18)
(-2.59084 -5.82246 -3.9271e-19)
(-2.23757 -4.49033 8.18683e-19)
(-2.45957 -5.04203 9.40976e-19)
(-1.89988 -3.11746 -1.93701e-20)
(-2.26032 -3.94881 -2.53363e-19)
(-1.45808 -1.56297 3.24464e-19)
(-1.89637 -2.47789 -8.46095e-19)
(-1.00631 -0.279431 -3.54724e-19)
(-1.45377 -1.03403 2.56765e-19)
(-0.555791 0.524002 -3.83732e-19)
(-1.02212 -0.0536407 -3.19608e-19)
(-0.106665 0.908714 -2.54318e-19)
(-0.575003 0.472435 1.30694e-19)
(0.326619 1.03209 -2.38246e-19)
(-0.108799 0.699681 1.87652e-19)
(0.718258 1.01041 1.76202e-19)
(0.324906 0.772426 1.06302e-19)
(0.801365 0.746364 2.47684e-19)
(1.0673 0.95836 -1.25902e-20)
(-2.65619 -6.15616 -6.9077e-19)
(-2.59579 -6.37624 0)
(-2.57866 -5.48242 -8.4883e-19)
(-2.71065 -5.75124 -3.58912e-19)
(-2.47642 -4.62846 0)
(-2.65849 -5.05735 5.6607e-19)
(-2.29454 -3.47534 -1.03201e-18)
(-2.59196 -4.15364 -1.23419e-18)
(-1.97121 -2.10653 -1.06585e-18)