/*--------------------------------*- C++ -*----------------------------------*\
| =========                 |                                                 |
| \\      /  F ield         | OpenFOAM: The Open Source CFD Toolbox           |
|  \\    /   O peration     | Version:  3.0.1                                 |
|   \\  /    A nd           | Web:      www.OpenFOAM.org                      |
|    \\/     M anipulation  |                                                 |
\*---------------------------------------------------------------------------*/
FoamFile
{
    version     2.0;
    format      ascii;
    class       volVectorField;
    location    "0.423495";
    object      U;
}
// * * * * * * * * * * * * * * * * * * * * * * * * * * * * * * * * * * * * * //

dimensions      [0 1 -1 0 0 0 0];

internalField   nonuniform List<vector> 
21246
(
(5.09774 -1.7288 0)
(4.05565 -1.21858 0)
(4.27002 -1.16493 0)
(4.28019 -1.0751 1.2862e-19)
(4.11746 -0.915665 3.8913e-20)
(3.88589 -0.707161 -2.98274e-20)
(3.66627 -0.529135 0)
(3.46894 -0.405273 -2.42708e-20)
(3.30374 -0.340614 1.84955e-20)
(3.16522 -0.324894 0)
(3.06079 -0.348098 0)
(3.92812 -0.423568 0)
(3.05774 -0.417096 0)
(3.33725 -0.883302 2.11466e-20)
(3.52254 -1.08306 0)
(3.57859 -1.10444 0)
(3.55599 -0.999153 1.75095e-20)
(3.48312 -0.820378 0)
(3.37155 -0.630257 2.54402e-20)
(3.25871 -0.505668 6.64607e-21)
(3.15889 -0.450594 -8.04587e-21)
(3.0796 -0.449552 0)
(3.76441 1.0401 -3.26876e-18)
(3.09214 0.354512 0)
(2.99113 -0.298615 1.64139e-19)
(3.01803 -0.700363 0)
(3.07705 -0.935821 0)
(3.13982 -1.01179 5.83032e-19)
(3.18167 -0.942091 -5.64327e-19)
(3.18373 -0.783255 -3.98591e-19)
(3.1559 -0.631962 2.88009e-19)
(3.11093 -0.538506 7.96842e-21)
(3.07328 -0.514357 -1.43739e-19)
(4.13332 1.77516 7.92198e-18)
(3.42149 0.945416 -4.00664e-18)
(3.01858 0.30916 -1.85352e-19)
(2.8336 -0.191381 0)
(2.77731 -0.570427 0)
(2.80431 -0.800704 1.47101e-18)
(2.87616 -0.866856 -1.61726e-18)
(2.95195 -0.797352 1.17008e-18)
(3.007 -0.676344 -7.38682e-20)
(3.02893 -0.577141 -5.67676e-21)
(3.03612 -0.5347 5.39221e-20)
(4.44985 1.91928 -2.35637e-18)
(3.70588 1.31876 1.76018e-18)
(3.17982 0.773946 0)
(2.84163 0.272077 0)
(2.65853 -0.157217 1.21485e-18)
(2.60272 -0.476327 -9.13748e-19)
(2.64528 -0.650956 7.19269e-19)
(2.74342 -0.680909 -7.25497e-19)
(2.85151 -0.623624 -3.56592e-19)
(2.93202 -0.551233 4.62432e-20)
(2.9859 -0.513239 0)
(4.44411 1.81327 2.3411e-18)
(3.89216 1.52634 -3.73197e-19)
(3.35262 1.09003 2.2974e-18)
(2.93646 0.645319 -3.38927e-18)
(2.66115 0.227292 1.82195e-18)
(2.52437 -0.123107 -8.71121e-19)
(2.51508 -0.364338 9.93047e-19)
(2.60037 -0.476985 -1.36468e-18)
(2.72853 -0.492285 4.61995e-19)
(2.8462 -0.467261 0)
(2.9363 -0.450977 6.10634e-19)
(4.41379 1.69562 1.80233e-18)
(4.00025 1.5914 2.89286e-20)
(3.51902 1.29058 0)
(3.0705 0.924921 -1.13443e-18)
(2.74181 0.550745 1.70574e-18)
(2.54473 0.208461 0)
(2.48439 -0.0617924 0)
(2.54025 -0.231158 6.20116e-19)
(2.6632 -0.310755 -4.62304e-19)
(2.79418 -0.338519 5.24732e-19)
(2.90422 -0.356033 -3.40646e-19)
(4.35374 1.57018 -3.80281e-19)
(4.02166 1.56328 1.49952e-18)
(3.64672 1.38089 -1.81408e-18)
(3.22124 1.11724 3.32963e-19)
(2.8702 0.797729 0)
(2.63913 0.487776 0)
(2.54048 0.21689 0)
(2.56363 0.0163522 0)
(2.66594 -0.111605 0)
(2.7907 -0.187852 -3.31513e-20)
(2.90326 -0.241695 -3.36026e-20)
(4.28032 1.44887 1.74326e-18)
(4.00682 1.50736 -1.0702e-18)
(3.71728 1.38621 -7.95339e-19)
(3.36544 1.22217 -5.74492e-19)
(3.023 0.965036 1.77369e-18)
(2.78404 0.698958 -1.26786e-18)
(2.66415 0.445644 3.94624e-20)
(2.65872 0.234415 0)
(2.73292 0.0756292 -7.38896e-19)
(2.83747 -0.0379919 2.70293e-19)
(2.93884 -0.124579 -2.9579e-19)
(4.21406 1.33684 -1.24622e-18)
(3.98448 1.44304 7.38569e-19)
(3.76127 1.3462 0)
(3.48171 1.24944 5.33031e-19)
(3.18499 1.06009 -1.57245e-18)
(2.95878 0.838945 3.17542e-19)
(2.83331 0.611966 4.16113e-19)
(2.80617 0.403878 -2.61218e-19)
(2.85073 0.229449 7.10626e-19)
(2.92755 0.0906131 -2.52883e-19)
(3.00699 -0.0208251 0)
(4.16535 1.23446 5.81585e-19)
(3.96976 1.377 2.2494e-19)
(3.79652 1.28288 -1.61575e-19)
(3.58073 1.22801 0)
(3.34038 1.08982 2.01818e-19)
(3.14517 0.911561 5.22433e-19)
(3.02609 0.712991 0)
(2.9845 0.51643 -2.1443e-19)
(3.00181 0.338122 3.39445e-20)
(3.04902 0.185332 -4.92177e-21)
(3.10229 0.057737 -1.5206e-19)
(4.13364 1.13967 5.31479e-19)
(3.96555 1.30875 -4.16408e-19)
(3.83064 1.20568 3.08818e-19)
(3.6668 1.17472 -1.11737e-19)
(3.48406 1.06921 1.02078e-20)
(3.32821 0.925391 -2.47711e-19)
(3.2232 0.753527 3.19198e-19)
(3.17396 0.572714 -4.5851e-19)
(3.16872 0.398765 7.70014e-19)
(3.18775 0.241643 -1.17573e-20)
(3.21385 0.105388 -1.40593e-19)
(4.11831 1.05114 6.34606e-20)
(3.9747 1.24001 0)
(3.86969 1.12257 -2.19986e-19)
(3.74683 1.10177 1.10252e-19)
(3.61662 1.01501 4.63094e-19)
(3.49885 0.894629 -4.45834e-19)
(3.41151 0.745174 1.62926e-19)
(3.36008 0.580678 -2.00847e-19)
(3.33782 0.41491 1.50898e-19)
(3.33226 0.258799 1.75709e-20)
(3.33183 0.11981 7.45187e-20)
(4.12235 0.970701 -5.5282e-20)
(4.00208 1.16924 -3.61899e-19)
(3.91978 1.0403 3.4524e-19)
(3.82989 1.01895 0)
(3.73956 0.940978 0)
(3.65439 0.834933 1.28488e-20)
(3.58505 0.701944 1.47532e-19)
(3.53521 0.551055 -1.16931e-19)
(3.50099 0.393711 1.23691e-19)
(3.47469 0.241201 -1.82951e-19)
(3.45028 0.102305 -1.00956e-19)
(4.14527 0.894675 5.37106e-19)
(4.04431 1.09712 0)
(3.98002 0.958256 8.55658e-21)
(3.91472 0.932374 0)
(3.85369 0.85738 0)
(3.79488 0.758482 -1.08899e-19)
(3.74235 0.635395 6.43706e-20)
(3.69661 0.493387 9.94656e-20)
(3.65418 0.341812 -1.22928e-19)
(3.61001 0.19275 1.60911e-20)
(3.56238 0.0542602 2.71867e-20)
(4.18342 0.821023 -6.077e-20)
(4.09828 1.02609 8.72178e-20)
(4.0487 0.878512 -1.31393e-19)
(4.00178 0.847173 0)
(3.96228 0.772184 -1.37231e-19)
(3.92458 0.675145 9.57341e-20)
(3.88736 0.555224 0)
(3.84683 0.415445 0)
(3.7976 0.264644 0)
(3.7362 0.116686 1.36209e-19)
(3.66505 -0.0191821 -8.44572e-20)
(4.23673 0.748321 7.21742e-21)
(4.16399 0.957473 -2.54496e-19)
(4.12511 0.803577 1.37538e-19)
(4.0922 0.767105 0)
(4.0696 0.691383 1.55648e-19)
(4.05038 0.592231 -1.12295e-19)
(4.02791 0.468078 2.14377e-21)
(3.99226 0.321684 0)
(3.93447 0.16452 0)
(3.85257 0.0149993 -1.06542e-19)
(3.75405 -0.116907 6.23648e-20)
(4.30142 0.675885 2.41264e-19)
(4.236 0.891754 -5.81138e-21)
(4.20444 0.734403 1.03139e-19)
(4.18386 0.696726 2.53236e-20)
(4.17872 0.621158 2.08834e-19)
(4.18049 0.515426 2.37136e-19)
(4.1745 0.376572 -3.00522e-19)
(4.1413 0.211112 4.33576e-20)
(4.06821 0.0382707 1.80916e-19)
(3.95739 -0.116323 0)
(3.82356 -0.243667 0)
(4.37163 0.603817 -2.61414e-19)
(4.30809 0.830265 -4.63864e-20)
(4.28257 0.675203 -2.45728e-19)
(4.27851 0.64452 4.06097e-19)
(4.30061 0.570219 1.32336e-19)
(4.33218 0.448321 -6.71987e-19)
(4.34329 0.276665 4.86249e-19)
(4.30463 0.0738777 1.46937e-19)
(4.20219 -0.124239 -8.472e-20)
(4.04822 -0.28291 0)
(3.87255 -0.393411 0)
(4.43981 0.533026 -1.41278e-19)
(4.376 0.774344 -4.07695e-19)
(4.3522 0.647007 3.01268e-19)
(4.37506 0.64252 6.23905e-21)
(4.43581 0.565445 -5.80487e-19)
(4.50455 0.396519 6.07623e-19)
(4.5352 0.147596 -4.61753e-19)
(4.47438 -0.113397 -1.3037e-19)
(4.32407 -0.338273 4.77655e-21)
(4.1141 -0.493792 1.00184e-19)
(3.88868 -0.572712 -9.68173e-20)
(4.53249 0.466193 6.32906e-19)
(4.37655 0.797271 4.49195e-19)
(4.36664 0.713255 0)
(4.46174 0.702903 2.17985e-20)
(4.64593 0.466485 -2.54993e-20)
(4.75547 0.112403 -2.29114e-19)
(4.73523 -0.217962 2.39209e-19)
(4.60354 -0.491219 0)
(4.3853 -0.674294 -2.67198e-19)
(4.12204 -0.760841 -5.42548e-20)
(3.85662 -0.778791 -8.49741e-20)
(4.28084 0.670802 -3.63969e-19)
(4.23335 0.852321 2.70332e-19)
(4.42616 0.648115 -6.22109e-19)
(4.66715 0.245092 -5.56317e-19)
(4.75998 -0.149153 2.46599e-20)
(4.75809 -0.500164 4.55214e-19)
(4.67239 -0.789912 -2.51583e-19)
(4.50352 -0.997437 2.30743e-19)
(4.25922 -1.10461 -3.08037e-19)
(3.98661 -1.09889 2.77302e-19)
(3.73446 -1.00841 -9.35217e-20)
(3.78726 1.02855 0)
(4.32328 0.0657635 0)
(4.49325 -0.122972 2.08046e-20)
(4.55477 -0.514148 3.25805e-19)
(4.56283 -0.843974 -3.47141e-19)
(4.52834 -1.10466 4.65764e-19)
(4.44516 -1.29973 0)
(4.30021 -1.42214 -1.40211e-19)
(4.07549 -1.45404 2.85815e-19)
(3.78173 -1.37625 5.70711e-20)
(3.53329 -1.19938 -2.2441e-19)
(4.21598 -0.604224 5.58221e-19)
(4.30931 -0.427123 -4.72207e-19)
(4.29439 -0.904826 0)
(4.29445 -1.15054 5.17372e-19)
(4.30001 -1.33216 -6.06432e-19)
(4.2982 -1.47197 -6.1797e-19)
(4.27409 -1.5731 2.79746e-19)
(4.20543 -1.63294 7.44025e-20)
(4.06125 -1.62976 0)
(3.80798 -1.52187 0)
(3.48622 -1.30403 1.97156e-19)
(6.3628 -0.721453 0)
(5.77032 -0.419686 0)
(5.27136 -0.461225 0)
(4.83854 -0.460632 -7.24699e-20)
(4.43678 -0.398595 -7.2147e-20)
(4.07525 -0.304294 0)
(3.7694 -0.217201 0)
(3.5186 -0.161786 0)
(3.31267 -0.145714 -1.85472e-20)
(3.14197 -0.166971 -4.81706e-22)
(3.01089 -0.220367 -1.63102e-21)
(5.95025 1.15471 -6.15843e-19)
(5.7992 0.894861 0)
(5.54171 0.580229 2.19408e-19)
(5.17751 0.342296 1.82697e-20)
(4.75112 0.205644 1.54948e-20)
(4.31616 0.153594 0)
(3.92217 0.140295 0)
(3.59576 0.12595 1.00332e-19)
(3.33276 0.0920608 0)
(3.11856 0.034957 -8.06997e-20)
(2.95486 -0.0405732 8.41388e-21)
(5.52489 1.82301 3.28636e-19)
(5.56934 1.61074 0)
(5.48975 1.3323 6.42111e-20)
(5.26385 1.06453 0)
(4.90807 0.841816 -2.31442e-19)
(4.47357 0.68623 1.7354e-19)
(4.03141 0.576169 0)
(3.64422 0.478204 -9.96718e-20)
(3.33067 0.377263 0)
(3.07648 0.270048 1.88149e-19)
(2.8796 0.162771 0)
(5.32891 1.93312 -1.91038e-20)
(5.35235 1.9202 -4.07742e-19)
(5.32298 1.75279 -1.65974e-20)
(5.18348 1.56808 0)
(4.91107 1.37318 -2.79773e-19)
(4.51884 1.20413 0)
(4.06423 1.05328 0)
(3.63421 0.886755 3.11557e-19)
(3.28195 0.706886 -1.94401e-19)
(2.99739 0.534103 1.66143e-19)
(2.77336 0.386383 0)
(5.28054 1.8961 -4.46048e-19)
(5.25454 1.98254 1.49217e-20)
(5.20284 1.90055 -1.41175e-19)
(5.07601 1.81612 2.21563e-20)
(4.84681 1.70001 1.95101e-20)
(4.49817 1.58753 0)
(4.04874 1.48426 1.26882e-19)
(3.57885 1.33007 -2.57694e-19)
(3.18452 1.09726 -2.03317e-19)
(2.88453 0.844545 -5.53337e-19)
(2.64987 0.642722 2.04799e-19)
(5.27809 1.84938 1.49699e-19)
(5.22754 1.98101 -1.07435e-19)
(5.15468 1.91845 -1.58828e-19)
(5.00794 1.88896 -1.1518e-19)
(4.78452 1.83325 2.19767e-19)
(4.45367 1.7699 -1.16661e-19)
(4.00106 1.72 -1.02444e-19)
(3.47805 1.66898 2.35681e-19)
(3.0046 1.47522 -1.63179e-19)
(2.67353 1.17053 2.23613e-19)
(2.44967 0.90637 -1.27387e-19)
(5.2979 1.80189 -1.37484e-19)
(5.23262 1.96375 2.67889e-19)
(5.15472 1.89935 1.96188e-20)
(4.99098 1.89112 3.72034e-20)
(4.75202 1.86048 0)
(4.41154 1.82103 1.02708e-19)
(3.95406 1.78438 8.29258e-21)
(3.39421 1.76111 0)
(2.82641 1.6698 1.89183e-19)
(2.42747 1.39974 -2.21691e-20)
(2.20589 1.10425 2.96825e-20)
(5.33203 1.75426 -1.75584e-20)
(5.25553 1.93321 2.12697e-20)
(5.17883 1.86105 1.42175e-19)
(5.00631 1.86325 -5.81038e-20)
(4.76014 1.83999 -2.67822e-20)
(4.40845 1.81142 2.45477e-20)
(3.92752 1.78229 -4.26834e-21)
(3.33218 1.75725 0)
(2.70149 1.72018 -2.15621e-21)
(2.18058 1.53647 -3.8685e-21)
(1.91227 1.24352 -2.11711e-20)
(5.37304 1.71136 1.99338e-19)
(5.28742 1.89485 -1.64315e-19)
(5.21571 1.80836 0)
(5.03734 1.81709 3.06762e-20)
(4.79131 1.78963 -4.82538e-21)
(4.43906 1.75901 -3.69671e-20)
(3.94857 1.72746 1.13216e-20)
(3.31815 1.6975 -3.82399e-20)
(2.62138 1.65989 1.99976e-20)
(2.00654 1.55194 6.10696e-21)
(1.6354 1.29874 1.11086e-21)
(5.40975 1.67146 -2.24366e-21)
(5.32585 1.84972 2.08177e-21)
(5.25738 1.7427 0)
(5.07492 1.75733 -2.58443e-22)
(4.83426 1.71707 3.38249e-21)
(4.48995 1.67429 7.57474e-20)
(4.00529 1.62709 -4.64046e-20)
(3.35773 1.58428 7.6283e-20)
(2.60772 1.53195 -1.57089e-20)
(1.89949 1.44205 4.73151e-20)
(1.41238 1.25664 -1.51091e-20)
(5.44324 1.61314 -4.35156e-20)
(5.37285 1.79249 1.19201e-20)
(5.28849 1.67035 0)
(5.11153 1.68431 -1.07337e-19)
(4.88033 1.62493 1.44648e-19)
(4.55002 1.56221 2.41599e-19)
(4.08592 1.48849 -6.28679e-20)
(3.44523 1.41767 -1.11351e-19)
(2.663 1.34656 -3.23115e-20)
(1.87949 1.24906 -4.66187e-20)
(1.28143 1.08449 -4.55728e-20)
(5.4814 1.52806 7.62549e-22)
(5.40718 1.73577 -1.27137e-19)
(5.31102 1.60196 -4.03422e-20)
(5.14861 1.58588 -4.52802e-20)
(4.9248 1.51385 6.03484e-20)
(4.61092 1.42575 3.18006e-19)
(4.17688 1.31768 -3.66104e-19)
(3.57125 1.20122 1.10295e-19)
(2.78408 1.10058 0)
(1.9515 0.989762 -3.05099e-19)
(1.27909 0.817224 2.12485e-19)
(5.50953 1.45257 0)
(5.42324 1.66164 0)
(5.33384 1.52304 8.77187e-20)
(5.1762 1.47582 0)
(4.9603 1.38522 0)
(4.66345 1.26778 -1.97416e-19)
(4.26404 1.12337 2.92515e-19)
(3.72967 0.95534 8.20236e-22)
(2.98843 0.794279 2.74948e-19)
(2.11734 0.661629 3.22894e-20)
(1.3847 0.49428 8.16127e-19)
(5.52028 1.38144 -1.04219e-19)
(5.42657 1.57103 0)
(5.34244 1.43039 -1.87423e-19)
(5.19191 1.35247 -4.41053e-19)
(4.98715 1.23718 3.44346e-19)
(4.70834 1.08824 -1.52813e-19)
(4.33723 0.905719 -3.25565e-19)
(3.8541 0.688332 -3.83337e-19)
(3.22151 0.463667 1.08597e-18)
(2.40857 0.292469 -8.2816e-19)
(1.604 0.0879309 -5.66349e-19)
(5.5135 1.30664 1.34164e-19)
(5.41653 1.46632 -4.09766e-19)
(5.33602 1.32147 4.92317e-20)
(5.1958 1.21432 6.60336e-19)
(5.00621 1.07004 -5.80311e-19)
(4.75101 0.886866 3.94843e-19)
(4.41524 0.665228 -3.81303e-19)
(3.98683 0.402539 6.84433e-19)
(3.44038 0.130655 0)
(2.74455 -0.100957 -9.11127e-19)
(1.99199 -0.356818 0)
(5.48543 1.22798 9.49462e-20)
(5.38594 1.34821 0)
(5.30829 1.19583 1.07308e-19)
(5.18087 1.05867 -6.97958e-19)
(5.01124 0.882233 1.17692e-19)
(4.78648 0.663025 3.66378e-19)
(4.49554 0.401385 3.84073e-19)
(4.13454 0.098095 -1.41053e-18)
(3.67961 -0.196425 5.40499e-19)
(3.1075 -0.469821 1.79793e-18)
(2.47112 -0.755363 -6.1163e-19)
(5.42965 1.14201 1.01449e-19)
(5.32844 1.21457 0)
(5.25408 1.0501 3.72186e-19)
(5.14257 0.88001 -8.32333e-19)
(4.99899 0.666485 5.64337e-19)
(4.81262 0.40536 0)
(4.57923 0.0926806 0)
(4.29341 -0.225642 -6.22077e-19)
(3.93771 -0.53345 5.65108e-19)
(3.4938 -0.834115 -1.3072e-18)
(2.99195 -1.13818 0)
(5.33937 1.04269 4.92773e-20)
(5.23696 1.06088 0)
(5.16644 0.878304 0)
(5.07393 0.670591 2.08369e-19)
(4.96313 0.413138 -3.79379e-19)
(4.82541 0.102602 -3.38011e-19)
(4.66138 -0.217872 4.17334e-19)
(4.45928 -0.534771 7.14727e-19)
(4.20385 -0.85206 -1.44727e-18)
(3.88421 -1.16267 3.79171e-19)
(3.52617 -1.4679 5.29294e-19)
(5.20792 0.923697 -1.55005e-19)
(5.10214 0.882944 1.05482e-19)
(5.03178 0.675335 -7.41626e-20)
(4.95113 0.425104 0)
(4.86941 0.129204 1.83635e-19)
(4.79491 -0.177717 3.48557e-19)
(4.70927 -0.496173 3.21172e-19)
(4.59794 -0.822777 -5.52576e-19)
(4.44845 -1.1489 8.80547e-19)
(4.25435 -1.46537 0)
(4.02958 -1.76942 -5.33687e-19)
(5.02808 0.784582 1.02968e-19)
(4.90466 0.68459 -6.38756e-20)
(4.81157 0.447774 8.01899e-20)
(4.74199 0.17889 0)
(4.70723 -0.115968 -1.2238e-19)
(4.6936 -0.431053 -2.99479e-19)
(4.68582 -0.756166 2.23461e-19)
(4.66518 -1.08184 0)
(4.61586 -1.39925 0)
(4.5302 -1.70154 0)
(4.40715 -1.98466 0)
(4.74891 0.610504 0)
(4.60543 0.455166 0)
(4.5274 0.219446 0)
(4.48244 -0.0657748 0)
(4.48461 -0.381227 1.87373e-19)
(4.52857 -0.701661 0)
(4.58985 -1.01199 1.02915e-19)
(4.64043 -1.3086 0)
(4.66018 -1.59038 0)
(4.63619 -1.85261 0)
(4.56617 -2.09211 0)
(4.41705 0.385307 0)
(4.29428 0.224014 0)
(4.22221 -0.0603172 0)
(4.20497 -0.378604 2.54463e-19)
(4.25528 -0.700267 -2.15898e-19)
(4.35101 -0.993981 0)
(4.45634 -1.25445 -1.11598e-19)
(4.53931 -1.4886 -4.04676e-20)
(4.57798 -1.69941 0)
(4.55891 -1.87726 1.74339e-19)
(4.50372 -2.01093 -1.24696e-19)
(4.11071 0.242803 9.01275e-20)
(3.99802 -0.147 0)
(3.95643 -0.451497 0)
(4.00715 -0.775148 -2.82617e-20)
(4.10946 -1.05433 -3.85583e-20)
(4.23022 -1.2802 3.05288e-19)
(4.33666 -1.46263 -2.48909e-19)
(4.40676 -1.61743 -1.23728e-19)
(4.42509 -1.74472 1.19965e-19)
(4.3609 -1.8105 0)
(4.21748 -1.74676 0)
(3.90228 -0.871188 1.86975e-19)
(3.83677 -0.729881 0)
(3.92985 -1.03273 0)
(4.03049 -1.24512 3.53231e-20)
(4.13 -1.4084 -1.63026e-19)
(4.21263 -1.52846 0)
(4.26509 -1.62046 2.97296e-19)
(4.27378 -1.69372 -9.75351e-20)
(4.21916 -1.72537 -2.7427e-20)
(4.06478 -1.66484 1.89627e-20)
(3.79465 -1.46164 -7.72283e-20)
(5.75404 -6.88479 -3.18574e-18)
(4.72918 -5.55299 6.21233e-19)
(4.73955 -4.28954 -1.09156e-18)
(4.66446 -3.35481 8.7072e-19)
(4.50131 -2.66695 2.84945e-19)
(4.29879 -2.14863 -3.49735e-19)
(4.08979 -1.74779 0)
(3.88798 -1.43238 -4.6715e-19)
(3.70156 -1.18052 1.11939e-19)
(3.53417 -0.978423 0)
(3.38229 -0.822925 3.76159e-19)
(1.21366 -5.54522 0)
(1.88741 -5.13354 3.08801e-18)
(2.62252 -4.53634 -2.85521e-18)
(3.14836 -3.86363 0)
(3.44295 -3.22062 -3.17924e-19)
(3.56759 -2.64703 -3.17426e-19)
(3.5763 -2.15988 0)
(3.51741 -1.76006 -9.30532e-19)
(3.4266 -1.4381 3.40747e-19)
(3.32478 -1.18216 7.69099e-19)
(3.2185 -0.98567 -1.27127e-18)
(-0.645434 -3.04688 0)
(0.387938 -3.81009 0)
(1.14278 -3.96634 0)
(1.85205 -3.72841 0)
(2.38572 -3.32658 1.53662e-18)
(2.75026 -2.86689 7.65508e-19)
(2.96721 -2.4108 0)
(3.07175 -1.99673 1.3535e-18)
(3.09924 -1.64214 -1.4845e-19)
(3.07695 -1.35009 3.20409e-19)
(3.02932 -1.11857 -1.46367e-19)
(-0.811631 -2.221 3.87449e-19)
(-0.234483 -2.61074 0)
(0.155469 -2.90817 0)
(0.764072 -3.08664 1.20701e-18)
(1.36969 -3.03814 1.14522e-20)
(1.87664 -2.80037 -4.41345e-18)
(2.25032 -2.46377 1.55961e-18)
(2.50042 -2.10214 0)
(2.65647 -1.75925 1.07391e-18)
(2.74915 -1.45612 -1.39548e-19)
(2.78768 -1.20681 1.13157e-19)
(-0.62772 -1.65292 -9.68615e-19)
(-0.178634 -1.9292 -9.71906e-19)
(-0.0248283 -2.17177 1.91476e-19)
(0.359868 -2.36173 -1.15931e-18)
(0.802758 -2.43455 0)
(1.26543 -2.37785 1.58247e-20)
(1.68364 -2.21016 8.31963e-19)
(2.02098 -1.97006 0)
(2.26984 -1.70062 1.22508e-18)
(2.44075 -1.43688 -1.68158e-18)
(2.541 -1.20435 -1.52386e-18)
(-0.395185 -1.2183 0)
(-0.0504573 -1.38748 1.72385e-18)
(-0.00293783 -1.58058 -1.25558e-18)
(0.280165 -1.76057 0)
(0.596097 -1.87817 1.4845e-18)
(0.960936 -1.91085 -1.09106e-18)
(1.32977 -1.85398 0)
(1.66509 -1.72244 9.99006e-19)
(1.94493 -1.54297 -7.43166e-19)
(2.16198 -1.34497 0)
(2.31006 -1.15601 1.64362e-18)
(-0.20558 -0.907729 4.34562e-19)
(0.0951165 -0.984101 -7.71919e-19)
(0.110499 -1.1318 1.73925e-18)
(0.308975 -1.27966 -8.53156e-19)
(0.538459 -1.39755 -1.42578e-18)
(0.819051 -1.468 1.17744e-18)
(1.12379 -1.47792 -9.53499e-20)
(1.4249 -1.42651 0)
(1.69936 -1.32464 0)
(1.93128 -1.19074 9.21653e-19)
(2.1042 -1.04533 5.71001e-19)
(-0.0578264 -0.679549 -4.09528e-19)
(0.221251 -0.6938 -3.02388e-19)
(0.234148 -0.796223 -5.17846e-19)
(0.38588 -0.912886 4.43398e-19)
(0.559905 -1.0154 -5.83397e-19)
(0.778089 -1.09368 0)
(1.0248 -1.13501 0)
(1.28255 -1.13253 -5.92453e-19)
(1.53344 -1.08751 -5.74227e-19)
(1.75951 -1.00967 -9.0428e-19)
(1.93421 -0.915194 0)
(0.0697386 -0.489025 0)
(0.333929 -0.466273 2.88784e-19)
(0.347955 -0.536311 1.04957e-19)
(0.474999 -0.629049 3.60323e-19)
(0.614929 -0.714328 5.63685e-19)
(0.790349 -0.78799 0)
(0.992002 -0.840176 0)
(1.20987 -0.863364 9.02205e-19)
(1.43196 -0.854391 4.83195e-19)
(1.64315 -0.816189 0)
(1.81628 -0.75793 0)
(0.193512 -0.339587 -2.43764e-18)
(0.448886 -0.284332 1.99624e-18)
(0.456555 -0.327952 -8.17966e-20)
(0.565757 -0.402064 -6.07187e-20)
(0.682143 -0.471879 -9.68521e-19)
(0.82809 -0.537113 -9.04906e-20)
(0.996808 -0.590371 6.83781e-20)
(1.18258 -0.625194 -2.14704e-19)
(1.37786 -0.636926 -2.88931e-19)
(1.57154 -0.624081 4.17331e-19)
(1.73872 -0.587795 -2.89499e-19)
(0.300281 -0.243061 -4.5705e-18)
(0.548972 -0.144051 -3.40859e-20)
(0.554037 -0.160929 1.41456e-18)
(0.6519 -0.21732 7.29433e-20)
(0.752082 -0.272218 2.134e-19)
(0.87767 -0.327693 -5.89351e-19)
(1.02277 -0.377557 4.54076e-19)
(1.184 -0.41653 0)
(1.35666 -0.439952 0)
(1.53232 -0.445022 0)
(1.68221 -0.430716 1.38374e-19)
(0.379078 -0.162776 0)
(0.6169 -0.0197735 0)
(0.631431 -0.0176191 -1.31351e-18)
(0.726724 -0.060122 1.02926e-18)
(0.818452 -0.102404 -6.00215e-19)
(0.931551 -0.14868 -6.03248e-19)
(1.06063 -0.193589 -9.36103e-19)
(1.20397 -0.233008 7.14663e-19)
(1.35874 -0.262861 0)
(1.51927 -0.279873 0)
(1.65962 -0.279913 0)
(0.449625 -0.0722842 1.50536e-18)
(0.676761 0.101551 -1.5511e-18)
(0.700767 0.114105 -5.91788e-19)
(0.794511 0.0809085 -1.91272e-18)
(0.88111 0.048041 3.93229e-19)
(0.986545 0.00922114 2.33586e-18)
(1.10511 -0.0308478 -8.79283e-19)
(1.23605 -0.0692303 -6.3829e-19)
(1.3777 -0.102486 4.8372e-19)
(1.52712 -0.1269 -1.31505e-18)
(1.66186 -0.133849 1.88151e-18)
(0.516104 -0.000222374 2.33183e-18)
(0.740925 0.206703 -1.45133e-18)
(0.768315 0.233373 5.87505e-19)
(0.858825 0.20992 1.78209e-18)
(0.941378 0.185446 -2.10199e-18)
(1.04201 0.152839 3.19326e-18)
(1.15382 0.116924 -8.33105e-19)
(1.27642 0.07979 3.11553e-20)
(1.40833 0.0444626 0)
(1.54857 0.0146044 1.85646e-18)
(1.67339 0.000734251 -5.72635e-20)
(0.564485 0.0609198 0)
(0.786869 0.307265 -1.38003e-18)
(0.825639 0.346831 -1.06382e-18)
(0.918183 0.331568 3.35224e-18)
(1.0001 0.314106 -3.25937e-18)
(1.09883 0.286474 4.84416e-19)
(1.20679 0.253736 -2.96034e-18)
(1.32398 0.217275 2.75755e-18)
(1.44868 0.179936 7.73749e-19)
(1.58178 0.145118 -1.20157e-18)
(1.70172 0.125698 7.98138e-19)
(0.614596 0.131405 4.13175e-19)
(0.831003 0.411656 -6.39315e-19)
(0.881133 0.459421 2.03245e-18)
(0.97645 0.449926 7.38499e-19)
(1.05929 0.437828 -1.2238e-18)
(1.15825 0.413653 0)
(1.26456 0.3827 1.78937e-20)
(1.37846 0.34572 -1.02853e-18)
(1.49747 0.305796 -7.25527e-19)
(1.62457 0.265878 -1.04203e-18)
(1.73987 0.241463 5.19836e-20)
(0.670636 0.198342 -1.64651e-18)
(0.881649 0.507556 3.15615e-18)
(0.941788 0.567137 -3.35098e-18)
(1.03754 0.565394 -7.41842e-19)
(1.12191 0.558217 1.68067e-18)
(1.22215 0.536385 -8.0894e-19)
(1.3281 0.505607 -6.6419e-19)
(1.43975 0.466534 1.80272e-18)
(1.55363 0.423145 1.32965e-18)
(1.67481 0.377522 -4.98181e-19)
(1.78393 0.347918 -6.09133e-19)
(0.719054 0.258723 -8.0558e-19)
(0.925137 0.599017 -1.21633e-18)
(1.0019 0.672387 1.84555e-18)
(1.10167 0.679297 -1.40437e-18)
(1.191 0.675756 9.71576e-19)
(1.29428 0.654395 7.59692e-19)
(1.40087 0.621392 0)
(1.51026 0.578227 -8.53061e-19)
(1.61869 0.530411 -2.4457e-18)
(1.73245 0.47944 -4.14355e-19)
(1.8356 0.444396 1.29618e-18)
(0.77003 0.322953 4.02863e-19)
(0.967343 0.692473 2.00295e-18)
(1.06565 0.778936 -1.30819e-18)
(1.17298 0.793589 1.2649e-18)
(1.27031 0.790956 -1.48088e-18)
(1.37767 0.766798 -7.48502e-19)
(1.48444 0.728325 -1.49416e-18)
(1.5898 0.679038 8.25952e-19)
(1.69118 0.626184 1.1369e-18)
(1.79576 0.571181 0)
(1.89447 0.530845 -2.27711e-20)
(0.83254 0.39306 1.16637e-18)
(1.01733 0.78829 5.48364e-19)
(1.14163 0.886324 1.58019e-18)
(1.25953 0.906538 -1.21081e-18)
(1.36606 0.900666 -8.39609e-19)
(1.47603 0.869227 3.5477e-19)
(1.5797 0.822074 -4.08376e-19)
(1.67703 0.765852 6.75493e-19)
(1.76827 0.708992 4.53638e-19)
(1.86103 0.652986 6.92934e-19)
(1.95378 0.609038 -1.51148e-18)
(0.910202 0.467191 3.97745e-19)
(1.08205 0.884312 -2.81474e-19)
(1.23743 0.989656 -1.62033e-19)
(1.36927 1.01034 1.01771e-18)
(1.48347 0.995255 -9.33547e-19)
(1.59064 0.951993 1.37052e-18)
(1.68442 0.895116 -8.02067e-19)
(1.76802 0.834296 -5.86971e-19)
(1.84572 0.777077 -2.34407e-19)
(1.92502 0.723993 2.94765e-19)
(2.00858 0.679926 4.7729e-19)
(1.04509 0.547643 1.40078e-18)
(1.16995 0.977525 0)
(1.36914 1.07522 1.82607e-19)
(1.51284 1.08716 0)
(1.62513 1.05623 -4.39538e-19)
(1.71762 1.00018 4.59604e-19)
(1.79175 0.938356 0)
(1.85611 0.880212 0)
(1.91823 0.829285 2.10264e-19)
(1.98464 0.784097 -3.04565e-19)
(2.06005 0.741841 1.0772e-19)
(1.01456 0.586293 4.62471e-20)
(1.30306 1.00718 -1.4288e-18)
(1.49271 1.1132 1.03541e-18)
(1.64691 1.10223 -6.83142e-19)
(1.75068 1.05485 4.5704e-19)
(1.82178 0.996751 0)
(1.87545 0.944306 -3.73322e-20)
(1.92395 0.901068 0)
(1.97466 0.865372 4.29275e-20)
(2.03215 0.834938 0)
(2.10157 0.800257 9.88765e-20)
(2.69328 0.542137 0)
(1.81373 1.12294 1.14633e-19)
(2.09892 0.948838 0)
(2.06506 0.948499 2.25142e-20)
(2.0176 0.935072 3.43351e-20)
(1.98422 0.918479 -4.34513e-19)
(1.97514 0.905859 3.50192e-19)
(1.98939 0.894315 0)
(2.02145 0.883032 1.67145e-19)
(2.06728 0.873694 -3.15564e-20)
(2.12768 0.857768 0)
(8.14515 -4.75167 1.00275e-17)
(6.5034 -2.11099 2.3019e-18)
(6.60613 -2.65562 -2.29476e-18)
(6.11172 -2.42628 0)
(5.49591 -2.02136 0)
(4.97134 -1.6508 -3.32438e-20)
(4.56089 -1.3529 6.84679e-20)
(4.22824 -1.11074 2.86617e-20)
(3.95198 -0.914843 0)
(3.71896 -0.756365 0)
(3.52112 -0.635457 0)
(6.15688 -2.57954 -1.87042e-17)
(5.06305 0.0786588 4.10114e-19)
(6.26807 -0.578097 -1.53173e-19)
(6.50844 -0.875978 -4.16847e-18)
(6.17859 -0.91022 5.35366e-18)
(5.56023 -0.884835 -1.45522e-18)
(5.0206 -0.813599 -7.46221e-20)
(4.56738 -0.70668 -2.93647e-20)
(4.19517 -0.595255 5.20686e-20)
(3.89251 -0.497812 -3.51545e-20)
(3.64971 -0.428122 3.37456e-20)
(3.12351 -1.77918 2.06121e-18)
(3.46182 0.520248 0)
(5.14183 0.602836 3.71369e-19)
(5.89656 0.506926 0)
(6.07899 0.35634 -1.29662e-18)
(5.79913 0.130941 -1.10024e-19)
(5.27859 -0.0707982 0)
(4.79994 -0.157191 0)
(4.37557 -0.181114 -5.53713e-19)
(4.02038 -0.175562 3.66659e-19)
(3.73297 -0.17059 0)
(0.819675 -2.22999 -3.78847e-18)
(2.2221 -0.158504 1.01494e-17)
(3.84597 0.82566 -1.90588e-17)
(4.8601 1.24763 1.5918e-18)
(5.45392 1.30358 7.61296e-18)
(5.5478 1.07796 0)
(5.24226 0.736193 0)
(4.83263 0.474461 0)
(4.43285 0.306039 -8.19497e-19)
(4.06972 0.203738 6.00264e-19)
(3.76457 0.135253 6.08418e-19)
(-0.425123 -3.27866 1.65271e-18)
(1.39501 -1.09955 1.08579e-17)
(2.73876 0.485735 -7.98474e-18)
(3.83539 1.40503 6.15778e-18)
(4.64811 1.80206 -9.11228e-18)
(5.00512 1.75012 0)
(4.93351 1.4285 0)
(4.66125 1.074 -1.24893e-18)
(4.34172 0.802652 0)
(4.01561 0.602027 -7.48195e-19)
(3.71508 0.464402 -8.4293e-21)
(-0.912159 -4.27199 0)
(0.790537 -1.94387 -9.48536e-18)
(1.90884 -0.0472111 5.45773e-18)
(2.9957 1.24017 2.03121e-18)
(3.87567 1.95975 -2.36517e-18)
(4.37085 2.13455 3.87306e-18)
(4.46969 1.91779 3.95452e-18)
(4.34537 1.56932 5.16892e-19)
(4.1215 1.24486 -3.02641e-18)
(3.86229 0.976451 3.42613e-18)
(3.60346 0.766938 0)
(-1.13272 -4.93719 -2.15932e-18)
(0.323952 -2.60925 6.62461e-18)
(1.28383 -0.576451 -4.83783e-18)
(2.32582 0.959365 0)
(3.20068 1.93198 2.44246e-18)
(3.75314 2.31374 0)
(3.95743 2.22494 2.17187e-18)
(3.94618 1.92927 -2.71108e-18)
(3.81797 1.60473 0)
(3.62761 1.30224 -3.29963e-18)
(3.42976 1.03418 2.85146e-19)
(-1.25854 -5.25229 9.79789e-18)
(-0.0421258 -3.1113 -5.86431e-18)
(0.783274 -1.05471 4.33377e-18)
(1.77164 0.649398 -3.22843e-18)
(2.61649 1.81537 -2.35212e-18)
(3.18537 2.3671 0)
(3.45016 2.39843 -2.09693e-18)
(3.51662 2.16898 2.62366e-18)
(3.4664 1.86899 1.62933e-18)
(3.34533 1.56731 -1.93858e-18)
(3.20162 1.2665 2.06419e-18)
(-1.32336 -5.4586 3.40264e-18)
(-0.334634 -3.52085 6.68491e-18)
(0.368711 -1.49832 -3.97422e-18)
(1.29652 0.323209 2.874e-18)
(2.10102 1.64337 -2.16797e-18)
(2.66649 2.33598 0)
(2.96556 2.4744 0)
(3.08491 2.31258 0)
(3.09449 2.04688 -1.58976e-18)
(3.03053 1.75983 3.81905e-18)
(2.95827 1.44445 -1.08099e-18)
(-1.35289 -5.59075 -3.07622e-18)
(-0.562249 -3.84736 -3.58598e-20)
(0.0224031 -1.90621 3.62088e-18)
(0.882374 -0.0128394 -1.40231e-18)
(1.63962 1.43006 -3.77817e-18)
(2.19035 2.24084 4.21498e-18)
(2.50792 2.47448 0)
(2.66406 2.37803 0)
(2.72044 2.15038 0)
(2.70431 1.88534 -1.88971e-18)
(2.68815 1.57958 9.99394e-19)
(-1.39352 -5.67593 5.53968e-18)
(-0.749649 -4.11815 -1.0549e-18)
(-0.266988 -2.28561 1.62177e-18)
(0.514734 -0.361197 -1.28642e-18)
(1.21816 1.178 -1.75709e-18)
(1.74764 2.09011 -1.31722e-18)
(2.07502 2.41066 0)
(2.25826 2.37721 1.12131e-18)
(2.35249 2.18898 -1.34942e-18)
(2.37844 1.94774 1.01972e-18)
(2.40176 1.66512 0)
(-1.4603 -5.73809 2.45834e-20)
(-0.921711 -4.34431 -2.03737e-18)
(-0.507464 -2.62385 -1.60286e-18)
(0.184714 -0.708083 -1.118e-18)
(0.830662 0.898634 9.24176e-19)
(1.33471 1.89417 9.06524e-20)
(1.66546 2.29239 7.45022e-19)
(1.86913 2.31867 -3.31876e-18)
(1.99443 2.17017 0)
(2.05799 1.95351 0)
(2.11648 1.69331 4.83567e-19)
(-1.51668 -5.79093 0)
(-1.06265 -4.51399 0)
(-0.708278 -2.91744 0)
(-0.116583 -1.05011 1.11566e-18)
(0.470668 0.595035 7.05258e-19)
(0.946146 1.65697 -5.28064e-19)
(1.27569 2.12437 1.22486e-18)
(1.49567 2.20732 1.03423e-18)
(1.64793 2.09888 3.02996e-19)
(1.74505 1.90972 0)
(1.84804 1.6718 -1.11968e-18)
(-1.55795 -5.84293 2.17622e-18)
(-1.18934 -4.65859 -1.73627e-18)
(-0.888814 -3.19317 0)
(-0.39285 -1.39841 9.88065e-19)
(0.13227 0.26152 -7.45996e-19)
(0.574978 1.37594 3.80987e-19)
(0.900397 1.90619 -3.8092e-19)
(1.13514 2.04408 5.41818e-20)
(1.31377 1.9765 -7.61793e-19)
(1.44483 1.81781 3.97876e-19)
(1.58058 1.61064 2.64967e-19)
(-1.59352 -5.88787 -4.06685e-18)
(-1.3156 -4.78609 1.61857e-18)
(-1.05768 -3.44511 9.51001e-19)
(-0.645235 -1.74488 -1.87079e-18)
(-0.186387 -0.0982365 3.71013e-19)
(0.217456 1.05327 2.89035e-19)
(0.536022 1.63719 -2.98195e-19)
(0.784984 1.827 -2.07742e-19)
(0.991093 1.80118 4.57781e-19)
(1.15903 1.67571 -2.82741e-19)
(1.32281 1.50517 -4.77757e-20)
(-1.62032 -5.92177 4.61299e-19)
(-1.43433 -4.89808 -3.64883e-19)
(-1.21722 -3.67447 -8.67721e-19)
(-0.882052 -2.08772 4.69355e-19)
(-0.489941 -0.48508 9.37351e-19)
(-0.129946 0.684344 -2.38572e-20)
(0.175844 1.31194 3.87724e-19)
(0.440958 1.54894 -6.78771e-19)
(0.678174 1.56652 -6.44454e-19)
(0.888298 1.47912 2.84377e-19)
(1.09489 1.34672 -2.86759e-19)
(-1.63975 -5.93578 -3.69674e-18)
(-1.5454 -5.00605 1.12762e-18)
(-1.37025 -3.88975 -5.547e-19)
(-1.10967 -2.43043 8.53699e-19)
(-0.789231 -0.901276 -1.60057e-18)
(-0.475155 0.258994 -1.30334e-19)
(-0.18369 0.917181 -5.40019e-19)
(0.0979191 1.19717 6.91911e-19)
(0.372682 1.26136 4.09967e-19)
(0.627768 1.22032 -3.50183e-19)
(0.89017 1.12908 2.55881e-19)
(-1.66296 -5.93123 3.79661e-19)
(-1.65648 -5.09599 1.36353e-18)
(-1.52748 -4.10173 0)
(-1.3376 -2.77601 9.48374e-20)
(-1.09413 -1.35075 1.09697e-18)
(-0.829453 -0.231178 8.44693e-19)
(-0.548282 0.433214 -7.40999e-19)
(-0.244004 0.751639 -1.53214e-19)
(0.0740047 0.869155 -4.73608e-19)
(0.373741 0.889225 2.33084e-19)
(0.699805 0.860191 9.08567e-20)
(-1.68899 -5.90206 -1.72085e-18)
(-1.77021 -5.15487 1.19147e-18)
(-1.70186 -4.31576 -6.33933e-19)
(-1.58597 -3.12835 -1.09584e-18)
(-1.41659 -1.84327 -1.3273e-19)
(-1.19991 -0.808488 -7.12569e-19)
(-0.920595 -0.166073 2.02961e-19)
(-0.583183 0.183963 -9.93293e-19)
(-0.214689 0.368234 1.0276e-18)
(0.133468 0.468309 -3.53781e-19)