/*--------------------------------*- C++ -*----------------------------------*\
| =========                 |                                                 |
| \\      /  F ield         | OpenFOAM: The Open Source CFD Toolbox           |
|  \\    /   O peration     | Version:  3.0.1                                 |
|   \\  /    A nd           | Web:      www.OpenFOAM.org                      |
|    \\/     M anipulation  |                                                 |
\*---------------------------------------------------------------------------*/
FoamFile
{
    version     2.0;
    format      ascii;
    class       volScalarField;
    location    "0.308758";
    object      epsilon;
}
// * * * * * * * * * * * * * * * * * * * * * * * * * * * * * * * * * * * * * //

dimensions      [0 2 -3 0 0 0 0];

internalField   nonuniform List<scalar> 
21246
(
1056.88
506.734
226.043
114.584
59.786
29.1279
13.2111
6.01712
3.07204
1.8982
1.48765
1021.37
529.67
288.932
157.853
85.4019
42.7942
18.3712
6.93616
3.12438
1.80692
1.40661
661.859
424.414
285.642
177.55
104.882
57.0871
26.9539
10.4467
3.76512
1.77299
1.28689
302.718
305.58
248.111
175.889
114.293
67.7792
35.4393
15.3814
5.59799
2.09775
1.19187
108.348
213.426
203.518
161.756
114.967
73.8928
42.2837
20.5836
8.28709
2.95683
1.27436
63.8797
148.062
163.217
142.001
108.935
75.256
46.5961
25.0574
11.2951
4.2914
1.60596
52.9602
97.4603
127.528
120.147
98.2456
72.2277
47.8674
27.983
13.9491
5.81719
2.15592
39.0697
56.2999
93.3132
97.6425
84.8188
65.7451
46.1689
28.9349
15.687
7.15301
2.78195
28.5556
33.3806
61.4962
75.5389
70.3299
57.1516
42.1784
28.0148
16.2644
7.9987
3.30485
21.0877
22.1827
37.8695
54.9198
56.0146
47.7148
36.8088
25.6714
15.744
8.21885
3.58883
15.5406
15.4215
24.2013
36.9494
42.7618
38.3714
30.8404
22.4154
14.3481
7.83462
3.56969
11.6857
11.0772
16.1831
24.2616
30.8776
29.7591
24.868
18.7178
12.3728
6.97753
3.28416
9.0261
8.21628
11.167
16.0845
21.3206
22.2051
19.312
14.9813
10.1452
5.85585
2.82957
7.07746
6.28714
7.93841
10.8409
14.4077
15.8968
14.4276
11.5104
7.95728
4.68733
2.31737
5.80364
4.99696
5.88322
7.50548
9.71784
11.0061
10.391
8.53482
6.04086
3.64957
1.85994
4.9649
4.14996
4.60898
5.43082
6.68334
7.52353
7.33725
6.24103
4.57756
2.87882
1.53431
4.41092
3.60901
3.83746
4.1753
4.80415
5.29297
5.31502
4.74918
3.68788
2.46603
1.39025
4.10797
3.28618
3.36349
3.42481
3.73634
4.09735
4.31803
4.15476
3.49239
2.5172
1.51008
3.94137
3.1082
3.03169
2.98325
3.28194
3.85975
4.54458
4.85219
4.39683
3.33404
2.06908
3.9749
3.20471
2.84871
2.94309
3.64721
5.27874
7.35162
8.78711
8.35115
6.32759
3.82761
7.41792
4.24424
3.36179
4.12425
6.64788
12.1707
15.1127
15.5676
14.6365
12.536
8.74458
13.9108
5.9013
5.56423
11.045
17.9036
20.3027
19.797
18.0203
15.9762
14.1392
11.8351
18.9253
21.3729
27.6179
31.5547
30.0084
26.0181
21.3024
16.9921
13.7771
11.9181
10.8179
149.652
92.7357
65.8701
47.1001
33.8714
24.2915
17.4409
12.8682
10.188
9.01458
8.83398
1280.62
340.51
174.253
95.3584
51.3078
26.213
12.7818
6.25053
3.30582
2.03807
1.54161
1014.75
267.223
146.849
92.0975
56.2443
31.5266
16.1368
7.90553
4.01879
2.30664
1.60032
512.055
196.175
121.018
87.9567
62.1638
39.1082
21.4128
10.6294
5.20843
2.76654
1.73629
188.857
92.7761
78.5359
73.171
62.7335
46.0172
28.0022
14.5856
7.07632
3.53011
1.99064
56.3382
36.3546
38.2469
46.7201
52.7461
48.4893
35.0602
20.3302
10.2068
4.9326
2.57061
23.8618
16.5519
19.329
26.8909
36.2881
41.4281
37.216
25.8544
14.5883
7.35494
3.66242
18.1593
12.2157
13.1646
17.4345
25.0314
32.6168
34.1387
27.1643
16.8789
9.02181
4.67957
17.331
11.8118
11.7209
14.0078
18.88
25.839
30.4081
27.3214
18.6109
10.5319
5.62535
17.5383
12.1159
11.5059
12.8745
15.9879
21.2487
26.6026
26.7175
19.833
11.8282
6.62044
18.1946
12.5297
11.6091
12.441
14.4427
18.311
23.2224
25.2792
20.7155
12.9254
7.45756
19.205
13.1616
11.9228
12.1931
13.3692
16.1591
20.3309
23.254
20.7993
14.034
8.14832
20.6552
14.0443
12.3212
12.0119
12.5398
14.4094
17.7523
20.9506
20.114
14.6235
8.83279
22.3291
14.928
12.77
11.9768
11.91
12.9329
15.4011
18.4825
18.8816
14.6847
9.3057
24.2458
15.8685
13.3051
12.0547
11.4315
11.7115
13.3075
15.9727
17.2506
14.337
9.47202
26.5161
16.9109
13.9507
12.2313
11.0871
10.7339
11.5551
13.61
15.3481
13.6498
9.46978
29.3988
18.1313
14.7473
12.5194
10.8618
9.96942
10.1749
11.5663
13.2869
12.6488
9.43083
33.2867
19.636
15.7842
13.0259
10.8461
9.45234
9.16868
9.97307
11.2886
11.3669
9.26286
38.7512
21.6461
17.3496
14.0456
11.2091
9.22311
8.4716
8.80305
9.65836
9.99071
9.04154
46.5585
24.6503
19.9089
15.8329
12.129
9.39943
8.09662
7.98177
8.44594
8.77862
8.47232
57.486
29.3022
23.5079
18.484
13.7688
10.1028
8.09959
7.49426
7.59658
7.80368
7.76543
69.6802
35.1361
28.0436
21.9466
16.0188
11.2787
8.48426
7.35107
7.09892
7.1134
7.0633
91.7556
43.4687
34.1413
25.5181
18.1813
12.547
9.10468
7.51402
6.97267
6.85279
6.85772
134.535
66.0377
40.0972
27.7437
19.3636
13.4778
9.77038
7.88193
7.13472
6.95907
7.15468
406.798
76.1062
43.6453
27.5335
19.5238
14.1533
10.5808
8.50576
7.5583
7.35627
7.7204
2299.27
773.887
310.047
116.307
39.2756
12.5451
3.93505
1.2324
0.393639
0.134276
0.0538106
1630.23
454.741
212.096
90.032
34.3143
12.089
4.01913
1.28479
0.405126
0.1332
0.0509911
997.469
356.715
177.864
85.1486
35.5825
13.3136
4.59132
1.49601
0.473208
0.15316
0.0570774
688.373
262.805
146.54
80.8431
38.0467
15.2046
5.45242
1.82476
0.584571
0.188415
0.0684942
515.013
200.862
113.503
66.8903
34.4987
15.1898
5.83414
2.01957
0.645235
0.201065
0.0695044
420.883
159.4
91.753
54.9692
28.8959
13.2016
5.27259
1.89539
0.632843
0.205693
0.0739143
357.948
131.768
76.0485
45.7625
24.3495
11.3082
4.63817
1.72905
0.601778
0.203595
0.0749355
312.442
111.647
64.1978
38.5308
20.5834
9.64524
4.0269
1.54351
0.556581
0.195922
0.077227
279.309
96.6277
55.159
32.9564
17.604
8.28692
3.50338
1.37391
0.512362
0.188089
0.0772985
254.54
85.3747
48.3214
28.7558
15.347
7.24259
3.08898
1.23337
0.473194
0.179929
0.075455
234.922
76.6277
43.0363
25.5521
13.6365
6.45029
2.76973
1.12139
0.439669
0.171375
0.074315
219.789
69.5393
38.8015
23.022
12.3051
5.8401
2.5241
1.03417
0.412957
0.164634
0.0732322
209.132
63.933
35.4552
21.0584
11.2939
5.38579
2.34374
0.970718
0.394018
0.160395
0.0727058
201.925
59.7411
32.9155
19.6118
10.579
5.07715
2.22528
0.930542
0.382823
0.158203
0.0730454
198.141
56.5074
30.9293
18.5296
10.0839
4.88396
2.15937
0.911577
0.379363
0.15856
0.0738947
198.084
54.1737
29.4621
17.7932
9.80346
4.80773
2.14852
0.915675
0.384775
0.161943
0.0757716
201.682
53.2555
28.652
17.4527
9.76958
4.87055
2.20516
0.948691
0.40155
0.1692
0.0789371
210.115
54.0013
28.4986
17.5088
10.0436
5.14576
2.3794
1.03495
0.439737
0.184317
0.0852766
224.9
56.752
29.1991
18.0031
10.6334
5.66465
2.717
1.21152
0.521086
0.219072
0.0991193
249.089
62.2905
31.1111
19.1099
11.6265
6.49368
3.27964
1.52747
0.676636
0.290023
0.128632
289.08
72.0583
34.8388
21.1285
13.169
7.73138
4.16115
2.06864
0.970349
0.436491
0.195698
360.13
87.3795
41.1541
24.4633
15.476
9.52341
5.50328
2.97839
1.5259
0.748184
0.357196
492.717
112.87
51.4369
29.9539
19.1323
12.2827
7.63024
4.54021
2.59164
1.42548
0.760147
762.389
118.211
57.0007
35.6138
24.497
16.9976
11.5477
7.61108
4.86523
3.02226
1.83159
2431.2
1461.31
584.655
225.621
72.4825
21.7567
5.98728
1.72176
0.518711
0.167851
0.0636576
2734.78
1626.67
858.231
408.363
172.576
59.4038
11.9124
2.9288
0.831297
0.246704
0.0865187
1775.22
1361.84
894.523
499.828
247.367
102.112
29.0823
5.34863
1.37398
0.394011
0.130333
672.379
1171.69
864.397
536.518
293.076
136.25
48.0655
11.3522
2.26075
0.629795
0.209207
551.216
1194.9
883.11
567.811
326.165
162.983
65.7368
19.2452
4.2363
0.99423
0.329418
637.804
1133.19
902.74
597.443
353.375
184.981
81.601
27.9499
7.28938
1.71725
0.492732
702.118
1034.22
968.336
647.36
382.078
204.19
95.5347
36.7013
11.141
2.90176
0.817938
649.983
822.096
969.06
707.644
415.561
221.851
107.318
44.7774
15.4064
4.52425
1.32289
595.221
656.796
896.398
769.822
456.61
239.884
117.382
51.8667
19.7437
6.50999
2.04383
554.179
552.459
792.128
811.109
503.197
259.457
126.306
57.9237
23.9117
8.75293
2.9959
522.552
482.131
698.064
816.169
548.523
280.667
134.697
63.1421
27.8186
11.178
4.1826
495.599
429.671
620.502
787.46
584.371
301.214
142.2
67.4707
31.3587
13.7064
5.58465
474.297
387.106
552.309
732.117
604.891
318.731
148.52
71.0197
34.5503
16.3042
7.21309
457.876
349.238
489.503
665.585
606.276
331.165
153.389
73.9516
37.5087
18.9854
9.14793
451.182
318.552
430.323
592.842
587.479
335.127
155.777
76.226
40.3325
21.811
11.4168
451.797
295.254
375.815
507.213
550.588
328.275
154.741
77.8267
43.2529
24.9794
14.1207
458.862
275.29
325.63
416
480.216
312.32
150.221
79.0419
46.5622
28.8114
17.5149
475.274
258.219
276.723
330.505
371.748
290.155
143.769
80.7385
50.9866
33.8051
21.8973
508.625
246.941
231.562
252.623
271.537
248.753
144.229
85.6586
58.2842
41.1299
28.2969
578.314
248.463
196.197
191.038
198.914
200.814
153.614
98.5524
71.0284
52.4329
37.2428
746.314
285.923
193.836
169.719
168.068
170.666
153.217
111.999
80.6796
61.312
44.5085
1324.66
470.667
344.307
288.109
245.345
222.736
183.199
134.562
97.9639
69.6099
46.8876
986.675
569.193
605.567
427.86
315.075
228.466
159.003
107.235
70.364
45.1605
28.3026
1219.82
657.958
381.156
235.658
151.129
98.3526
63.8708
40.9905
25.8735
16.0325
9.73515
287.639
159.821
24.8321
5.73866
1.61046
0.733898
0.50208
0.424086
0.393609
0.381318
0.376879
437.319
302.508
49.2927
9.03894
2.17248
0.864811
0.529944
0.42387
0.382774
0.364419
0.3548
524.991
317.515
74.1337
14.5456
2.66568
1.00475
0.561143
0.425105
0.372828
0.34847
0.333239
536.265
297.664
84.4618
18.6385
3.02954
1.12673
0.588301
0.426388
0.364208
0.334722
0.3148
501.855
284.805
89.0023
21.2109
3.55053
1.22441
0.61068
0.427943
0.357258
0.323992
0.302095
448.065
279.23
94.0155
24.4652
4.56279
1.33992
0.632967
0.430798
0.352389
0.316152
0.293458
383.927
277.731
100.655
28.9346
6.1678
1.6106
0.677294
0.435996
0.349788
0.310756
0.287146
316.634
278.591
108.035
34.1516
8.31775
2.09164
0.76912
0.452406
0.350616
0.307476
0.283362
254.97
280.25
116.83
40.2765
11.1083
2.88101
0.94401
0.487247
0.357015
0.306986
0.281487
202.538
281.289
128.479
48.1218
14.889
4.15826
1.27697
0.561744
0.372922
0.30953
0.281155
158.568
282.95
142.382
57.5943
19.7126
6.03961
1.85543
0.71106
0.408063
0.317197
0.282599
124.536
287.196
157.881
68.1959
25.3454
8.50539
2.74082
0.978555
0.479438
0.334842
0.286926
102.494
291.909
175.781
80.5639
32.0201
11.6577
4.02391
1.42675
0.616686
0.373031
0.297022
91.5667
294.03
196.381
95.6962
40.2928
15.7312
5.83748
2.14355
0.867641
0.452214
0.320078
91.6754
297.021
219.269
113.548
50.1904
20.7529
8.23983
3.20182
1.28958
0.604403
0.370266
102.918
298.116
243.568
135.112
62.5047
27.0917
11.4069
4.71474
1.96327
0.880235
0.473623
122.212
291.409
265.379
161.149
78.6108
35.5447
15.7264
6.88843
3.01557
1.36032
0.676873
141.161
274.791
278.203
189.951
99.3934
47.0072
21.7368
10.0313
4.6374
2.16908
1.05928
158.65
251.5
276.216
216.706
125.092
62.7727
30.4233
14.748
7.19055
3.53035
1.76214
174.459
225.035
256.867
232.107
153.077
83.9866
43.3678
22.1966
11.4085
5.89511
3.0658
188.076
192.56
221.161
226.956
176.839
110.888
62.9775
34.5989
18.8489
10.2633
5.5929
245.363
173.2
187.254
211.231
192.81
142.471
92.2207
55.77
32.6714
18.9046
10.8506
281.653
153.602
153.282
159.751
158.366
140.158
110.104
78.0691
51.7
33.0345
20.5051
547.197
591.673
445.034
369.725
294.626
221.688
158.585
108.642
72.9797
48.6432
31.8297
218.46
88.4314
19.5148
3.93349
1.26448
0.665427
0.489712
0.427024
0.403522
0.397215
0.400285
250.674
68.7966
13.3957
4.14201
1.42403
0.720867
0.510347
0.436049
0.409231
0.403249
0.408792
290.883
86.8679
12.8682
4.81858
1.7474
0.865009
0.567245
0.459628
0.419363
0.408179
0.412541
296.308
85.0038
12.1696
4.94903
1.79642
0.917046
0.591895
0.466282
0.416089
0.398845
0.399736
285.683
72.2353
11.5755
4.93069
1.81033
0.942645
0.596482
0.460816
0.405021
0.384775
0.382944
272.455
60.138
10.9424
4.67575
1.74075
0.931422
0.585956
0.450585
0.393826
0.373157
0.371035
260.293
51.0069
10.3205
4.35057
1.64383
0.901689
0.565481
0.435724
0.380494
0.361119
0.360798
248.313
44.2322
9.71852
4.03442
1.5545
0.866592
0.542994
0.419752
0.366306
0.347896
0.34883
239.476
39.2501
9.21861
3.78331
1.49227
0.83349
0.523109
0.404657
0.352105
0.333546
0.334334
234.259
35.78
8.83724
3.59589
1.45719
0.808602
0.50779
0.391551
0.338747
0.319098
0.318873
233.025
33.5459
8.62356
3.49267
1.44778
0.7956
0.49806
0.381138
0.326771
0.305042
0.302076
234.58
32.098
8.51659
3.45804
1.46219
0.794819
0.494196
0.373836
0.316643
0.292096
0.285963
239.628
31.5485
8.54093
3.49325
1.50534
0.808368
0.497328
0.370331
0.308921
0.280872
0.270941
245.94
33.584
9.03622
3.67361
1.61242
0.849542
0.513992
0.373327
0.305125
0.272511
0.259112
254.079
36.8828
10.0018
4.01891
1.80449
0.932739
0.552841
0.387434
0.307823
0.26858
0.250927
264.828
41.7043
11.6057
4.61188
2.11522
1.08058
0.626117
0.419949
0.320803
0.271113
0.247439
279.062
48.5171
14.1376
5.608
2.61766
1.33565
0.758741
0.485963
0.352641
0.284912
0.251158
298.617
57.4885
17.8818
7.22714
3.43966
1.77544
0.999595
0.616616
0.422757
0.321738
0.268976
326.245
69.3284
23.2996
9.82459
4.81693
2.55203
1.44965
0.879836
0.57682
0.411832
0.32084
366.826
85.7336
31.2521
14.0056
7.18421
3.96951
2.32427
1.42934
0.92562
0.635041
0.464338
430.367
109.833
43.3749
20.8455
11.343
6.63382
4.08473
2.61855
1.74198
1.2035
0.866037
539.621
147.959
62.9632
32.4927
18.8583
11.758
7.7013
5.23572
3.67415
2.65628
1.97936
755.716
226.687
103.059
56.3043
34.4203
22.6184
15.6283
11.2293
8.34492
6.39491
5.0412
1387.89
392.432
201.067
125.198
86.3408
62.828
47.1604
36.9204
29.8612
24.7095
20.5207
2.97325
3.37263
4.39892
13.5198
35.0425
51.26
63.5561
73.9179
80.1606
2.95435
1.90926
5.25994
14.4169
20.1324
22.8386
23.7104
24.6977
25.4345
3.25193
2.02192
5.66818
12.799
14.6743
13.8771
12.5629
12.5477
13.1288
3.22958
2.2402
5.5646
10.1745
9.9153
8.33127
7.28781
7.14566
7.35164
5.9729
26.5235
47.1053
61.7852
72.0269
79.6463
82.608
82.4601
83.468
9.16893
16.8577
21.448
22.4674
22.4886
23.6816
24.6659
25.8037
26.5046
8.12846
13.0782
13.8695
12.3161
11.3915
11.9392
13.0078
14.0311
14.0665
6.71521
9.45476
8.81981
7.28238
6.63227
6.70472
7.22521
8.10252
7.94476
0.00901855
0.00829398
0.00834724
0.106308
0.423016
0.00755668
0.147512
0.00808693
0.00753229
0.00693228
0.429018
0.00812395
0.00815382
0.00525109
0.0146145
0.00728258
0.00543037
0.105191
0.00724598
0.00710104
0.00663115
0.0680972
0.0085222
0.0328517
0.00792402
0.00521616
0.00804486
0.138695
1.41562
0.302553
0.00559282
0.00641116
0.00611235
0.00806546
0.0067693
0.00826399
0.0297612
0.00790786
0.0066415
0.00758685
0.214602
0.00809707
0.0311327
0.00849741
0.789264
0.264743
0.018144
0.368337
0.00690216
0.00733759
0.278252
0.00760446
0.0291643
0.0318186
0.00732654
0.00665923
0.0648995
0.00762458
1.43127
0.0315208
0.104165
0.0256948
0.508913
0.154774
0.233412
0.00713931
0.140721
0.00711128
0.00829656
0.00691659
0.00578372
0.00721509
0.0479899
0.00812512
0.126067
0.00714998
0.0743508
0.0082796
0.0698555
1.05507
0.0313861
0.126463
0.00793278
0.00838059
0.00692113
0.0465055
2.37127
0.0210764
0.0327256
0.0171264
0.00809204
0.00765796
0.223903
0.00737556
1.00377
0.584312
0.0966856
0.00586264
0.0367261
0.00742596
0.00781943
0.358496
0.00679777
0.00612457
0.0411134
0.00811978
0.00528576
0.00845296
0.00626989
0.00668247
0.0079658
0.00814902
0.00723083
0.0574226
0.0349073
0.00769192
0.00754541
0.00731792
0.00792491
0.00673247
0.0442622
0.00783387
0.00938761
0.00540781
0.250796
0.0066903
0.0399346
0.00550278
0.00499155
0.00544391
0.00778166
0.0328069
0.357739
0.00716028
0.00834203
0.00795813
0.062183
0.0720101
0.32719
0.00730785
0.0295442
0.00659403
0.291174
0.00868179
0.0075179
0.0176326
0.0146416
0.00713068
0.00714537
0.00705387
0.00714982
0.007664
0.0194914
0.00784265
0.0916308
0.0187498
0.0426037
0.0440446
0.00652544
0.00747265
0.00546579
0.0338223
0.00720694
0.00772199
0.157095
0.00864488
0.03286
0.00716451
0.00650045
0.225604
0.00555681
0.00638637
0.00773809
0.00644542
0.00640103
0.00639957
0.00676654
0.0202408
0.803101
0.00694888
0.0071365
0.071959
0.00849706
0.0927793
0.00793921
0.14059
0.00706089
0.00726652
0.0082483
0.0957045
0.00617969
0.0050685
0.00718553
0.204583
0.00832449
0.00760726
0.00743526
0.0367883
0.00557333
0.00856744
0.0213291
0.00731152
0.00650428
0.00587288
0.00838733
0.0204533
0.00733263
0.00497793
0.00740108
0.00740683
0.0172029
0.00759189
0.00827241
0.00670393
0.00791132
0.0476247
0.00797747
0.0253276
0.00712501
0.00827229
0.00719183
0.0453252
0.102137
0.0362796
0.00536801
0.00764058
0.0603577
0.00788321
0.00588169
0.214704
0.0447948
0.00713305
0.00712163
0.00782426
0.0193748
1.90502
0.0611648
0.00845071
0.00814249
0.00809961
0.0258213
0.253028
0.00609213
0.169739
0.00784842
0.0328133
0.00800383
0.00608737
0.511655
0.0505847
0.00607602
0.0176064
0.00967882
0.00726406
0.0059887
0.00746865
0.00672641
0.00786045
0.0145211
0.00703612
0.00937906
0.00942168
0.00738086
0.00819653
0.00795975
0.014126
0.00658874
0.0073297
0.0175531
0.00693504
0.177018
0.00730039
0.00728778
0.0164186
0.00756209
0.00736179
0.00546344
0.00776054
0.00689887
0.0404336
0.0073232
0.00828712
0.0314419
0.0518081
0.00599981
0.00758953
1.45349
0.00824583
0.00681515
0.0265691
0.00834865
0.134311
0.00737429
0.00845459
0.00856414
0.0074308
0.00641676
0.00816174
0.00677784
0.00546505
0.00775679
0.0404799
0.0070579
0.31637
0.00676309
0.00667227
0.00828227
0.012893
0.0694389
0.00743984
0.0989415
0.00816637
0.00643834
0.00597054
0.0843636
0.0065443
0.00595323
0.0337983
0.00670893
0.00773949
0.00706208
0.0233025
0.00746288
0.00558014
0.0778582
0.0068582
0.00778234
0.00538989
0.00708852
0.0859499
0.00703677
0.524372
0.0692416
0.00846765
0.00882919
0.729545
0.0397544
0.00823963
0.00784929
0.00581752
0.0265244
0.0178427
0.00727189
0.00986795
0.158439
0.0129089
0.0329775
0.00753628
0.0312077
0.0477259
0.12831
0.00574606
0.00699846
0.0068192
0.0142428
0.00860274
0.00733172
0.00695219
0.00850156
0.0845768
0.00984997
0.00525354
0.00800366
0.00798792
0.00728617
0.0309609
0.00603745
0.0138612
0.16472
0.00837429
0.00773854
0.0894872
0.616288
0.00529972
0.0127737
0.0083181
0.00904582
0.00672797
0.00752148
0.00707725
0.0287203
0.00755641
0.017936
0.00766261
0.00507766
0.104235
0.042677
0.00536496
0.245391
0.0282623
0.00769815
0.0633167
0.00529726
0.00806674
0.100231
0.242029
0.00786999
0.00719789
0.00836742
0.0399219
0.0143239
0.00764779
0.00850861
0.0258282
0.00607785
0.242645
0.0584808
0.00830634
0.0073059
0.0234952
0.00697879
0.00719735
0.00621609
0.00607137
0.025219
0.00637562
0.0062283
0.0086344
0.00564387
0.0492728
0.243462
0.0071182
0.177829
0.00605858
0.00626341
0.00664832
0.00804212
0.0285185
0.0109666
0.241277
0.00789598
0.0177286
0.0050152
0.00662838
0.00723385
0.00917809
0.101367
0.310232
0.00541957
0.00860034
0.00591429
2.33018
0.111657
0.0446565
0.00683866
0.0144588
0.0291753
0.0401923
0.00741446
0.0257107
0.00773758
0.00833556
0.00793796
0.03475
0.0170937
0.183343
0.00555361
0.023035
0.0271275
0.00825483
0.00739812
0.0415811
0.00576398
0.00596077
0.00693851
0.140628
0.115561
0.0902243
0.0916647
0.00706313
0.00655953
0.042235
0.00697358
0.103638
0.00687986
0.00823445
0.00733575
0.0347637
0.0271462
0.00708752
0.00778396
0.00668201
0.222665
0.072552
0.00845528
0.0170578
0.25416
0.00941371
0.0108992
0.00740743
0.0254594
0.00759879
0.00687666
0.00762586
0.00519927
0.00754885
0.00715141
0.00550862
0.00853263
0.00728448
0.00534516
0.00535206
0.0080655
0.00806395
0.574461
0.0104885
0.0517064
0.00703375
0.326112
0.00835748
0.0830366
0.0174607
0.0293265
0.00813728
0.00795644
0.0798131
0.0372954
0.00550632
0.00778451
0.00634686
0.00667297
0.00828111
0.00769196
0.00818516
0.00679106
0.0282301
0.00798787
0.00745334
0.0533375
0.00773024
0.204263
0.00655354
0.0115207
0.00621143
0.0304155
0.00856374
0.00786475
0.00841843
0.194542
0.0281039
0.00794982
0.00791209
0.00539069
0.00835045
0.0903434
0.00831418
0.0683209
0.00680168
0.0497212
0.00730448
0.00860996
0.281915
0.0854078
0.0067934
0.00657336
0.00710275
0.00830798
0.00900617
0.0376971
0.00721065
0.00587492
0.459149
0.766484
0.0079186
0.0073369
0.00828334
0.0303116
0.0672123
0.0198483
0.00808204
0.00752323
0.049952
0.00723902
0.00757043
0.00509141
0.00913685
0.308775
0.00771311
0.0213605
0.00782145
0.0365426
0.00738347
0.121343
0.0070436
0.0064151
0.0896241
0.0097799
0.00842573
0.00854822
0.990543
0.00763931
0.0061766
0.166601
0.0379012
0.0353859
0.0264292
0.00606362
0.0069183
0.00773274
0.00790333
0.507844
0.0128065
0.0128857
0.00710896
0.00794877
0.0471057
0.00701065
0.00759434
0.00689361
0.00712802
0.00703476
0.0147085
0.0370425
0.0180215
0.00618552
0.0102833
0.00724125
0.02213
0.00711331
0.0077845
0.521678
0.0220554
0.0075526
0.00757447
0.0608714
0.00675506
0.00737948
0.0193985
0.00831722
0.00675931
0.00754457
0.0080351
0.00827734
0.00519307
0.00660702
0.0408578
0.0170008
0.0332205
0.0161081
0.00632517
0.0293902
0.0568477
0.00952303
0.00836423
0.00679715
0.0736861
0.00604405
0.00695174
0.00723986
0.0050177
0.0299644
0.490486
0.00606438
0.00789917
0.00769171
0.0125693
0.00811869
0.00723304
0.00692062
0.0098777
0.00703471
0.00703385
0.00685205
0.00825863
0.216051
0.0563788
0.200536
0.00710591
0.0069672
0.00754632
0.0200775
0.00761948
0.155448
0.00721172
0.153097
0.022767
0.00770913
0.00878774
0.00849708
0.00608906
0.202172
0.00716045
0.460664
0.00553501
0.00663751
0.00841729
0.0132665
0.00577474
0.0369112
0.0401004
0.00750849
0.00639572
0.00840369
0.00783983
0.00690524
0.0149218
0.00813146
0.00762108
0.00762004
0.00812249
0.0296236
0.00816118
0.00866831
0.00750942
0.00758661
0.00655449
0.00646932
0.179674
0.144402
0.0081245
0.0062992
0.00571109
0.00654825
0.0153514
0.00581148
0.158502
0.00783796
0.00584746
0.00790686
0.00701843
0.0917401
0.00932591
0.0271349
0.00525077
0.00725301
0.00675208
0.00670555
0.0322238
0.00823633
0.0481739
0.0222431
0.0700073
0.00663502
0.0102495
0.0265277
0.0375709
0.00771844
0.00668693
0.0251475
0.0330282
0.00802766
0.00525025
0.443241
0.00811397
0.194317
0.0102163
0.00834218
0.147994
0.00755036
0.00687929
0.00680497
0.00873052
0.00734452
0.00536299
0.00819068
0.00612749
0.00714138
0.00811796
0.0107685
0.0208877
0.00617721
0.00722649
0.0945162
0.267612
0.00782227
0.0052099
0.00709286
0.0191041
0.00967881
0.0457679
0.0072214
0.0338846
0.00736425
0.00868904
0.0072046
0.00689287
0.00765823
0.0411834
0.0530381
0.00860553
0.00788853
0.00739053
0.262323
0.0220815
0.00603782
0.00819945
0.00591692
0.00761828
0.00813692
0.00821567
0.00838203
0.00787488
0.00754846
0.00655226
0.0594401
0.0729562
0.00565488
0.00741363
0.00770606
0.00792925
0.00670158
0.0361117
0.00827646
0.00630475
0.00803003
0.308309
0.0212109
0.0393434
0.00778326
0.0359462
0.00771857
0.0078169
0.240022
0.0071487
0.00816002
0.00727669
0.00954902
0.00596978
0.00588045
0.0081384
0.0107084
0.176863
0.0542125
0.00815492
0.00499027
0.0167051
0.0302785
0.036404
0.00842944
0.00718166
0.106841
0.0126211
0.0179176
0.00829271
0.00685689
0.00821471
0.00736563
0.00825152
0.0613078
0.0065703
0.191379
0.25038
0.0239295
0.00809878
0.421491
0.00853228
0.00719818
0.00919083
0.00789304
0.00765892
0.00766758
0.0344563
0.0303078
0.0192609
0.00764887
0.0393013
0.00768789
0.00859782
0.00734765
0.00756008
0.00728372
0.0079258
0.00814775
0.00727049
1.92617
0.00754496
0.00712602
0.00859816
0.192366
0.00709947
0.0079646
0.0888108
1.69661
0.00694595
0.0076338
0.00969342
0.0349157
0.00846816
0.00808495
0.00684474
0.00860524
0.0176268
0.00828043
0.050589
0.00852548
0.0168431
0.00702301
0.00821205
0.00576671
0.0288521
0.00775035
0.00776577
0.00705514
0.00831606
0.00584119
0.220588
0.00656394
0.0110532
0.0581134
0.0209406
0.00601671
0.0440297
0.00851227
0.00814146
0.00599861
0.00646857
0.00564835
0.00760702
0.243412
0.00724176
0.00778998
0.00730495
0.00524835
0.0063692
0.0386123
0.00596729
0.00694159
0.00804201
0.0755632
0.0655042
0.0406449
0.00668552
0.00845344
0.00697713
0.00776941
0.058597
0.00753648
0.00830542
0.00611933
0.231617
0.208592
0.037023
0.00511222
0.00525748
0.0448442
0.585207
0.00801535
0.00708245
0.048159
0.00760557
0.0188418
0.00791774
0.0143299
0.007271
0.00803514
0.00830314
0.00824617
0.00845531
0.0076354
0.00626009
0.12618
0.00709256
0.00780495
0.00726626
0.0094311
0.00879775
0.0451019
0.00747682
0.00687248
0.242549
0.0222932
0.0482029
0.00832473
0.0091316
0.0063706
0.00828807
0.0271212
0.00645187
0.0327719
0.126005
0.0060693
0.00997414
0.00652516
0.00741544
0.0130846
0.00694724
0.00698716
0.00986734
0.00813244
1.73529
0.00959492
0.565731
0.00812818
0.0217275
0.176945
0.324016
0.00869112
0.00640803
0.00855551
0.00497278
0.237003
0.00815545
0.00890668
0.0788981
0.0250433
0.0372092
0.00615499
0.00778229
0.00735676
0.0491575
0.00686674
0.215885
0.00951161
0.0114719
0.0754451
0.00828695
0.0118097
0.0348382
0.0302171
0.014015
0.0148613
0.00757678
0.0116507
0.00520382
0.00809951
0.00783511
0.00856461
0.127144
0.00660177
0.00832675
0.00527353
0.0187782
0.00521859
0.00801974
0.11634
0.0131817
0.00688778
0.00830249
0.0081362
0.00707624
0.00731907
0.227543
0.00697241
0.0256629
0.00613474
0.0373029
0.00796164
0.00694429
0.00796009
0.00753323
0.0524834
0.129483
0.0273503
0.746
0.236306
0.616224
0.00686736
0.00733288
0.0413658
0.00838803
0.00665697
0.0322346
0.00687625
0.114291
0.00575831
0.121211
0.00684142
0.00529987
0.00811795
0.0729456
0.00862653
0.544375
0.0063125
0.00835004
0.0531381
0.0165808
0.00678238
0.0128172
0.0172974
0.0602287
0.0218812
0.019907
0.303609
0.00541727
0.0491908
0.271954
0.00877022
0.00833255
0.00570252
0.0076529
0.00515032
0.00572645
0.111377
0.00772213
0.0163249
0.748533
0.00752507
0.00715311
0.00696954
0.00818894
0.00856735
0.00559916
0.00701815
0.0060965
0.281174
0.00703194
0.641257
0.0841108
0.00760513
0.16743
0.047905
0.0164033
0.00766662
0.0172531
0.00769013
0.00803822
0.082426
0.00751789
0.00824535
0.00538467
0.00809673
0.0074742
0.114195
0.00788798
0.587383
0.0144819
0.0410812
0.00722637
0.0125275
0.0270421
0.00575733
0.260447
0.00776625
0.00966603
0.0336586
0.00635282
0.00857186
0.0304122
0.00718121
0.00747151
0.253954
0.0120547
0.00643733
0.00733049
0.0192787
0.00693064
0.0137567
0.0351731
0.119598
0.00712052
0.00860261
0.00796964
0.00621859
0.00645175
0.00524496
0.0347848
1.3201
0.00815565
0.0239687
0.0280439
0.00820462
0.0250844
0.00709161
0.00694672
1.30271
0.0424064
0.34656
0.205011
0.00815871
0.00792867
0.0228116
0.300129
0.0210456
0.282887
0.00530521
0.00817355
0.00715359
0.00576971
0.0275066
0.0482658
0.00759576
0.00739553
0.0285498
0.0273684
0.060963
0.00677965
0.0494952
0.228789
0.00637386
0.00554029
0.00726608
0.00719141
0.286942
0.00539285
0.00631928
0.0151229
0.00772923
0.00637164
0.314342
0.16636
0.00918764
0.19302
0.00825491
0.00751923
0.216109
0.172747
0.00836057
0.00514986
0.0164465
0.00660163
0.0393451
0.00806564
0.00768793
0.00703726
0.157489
0.00702956
0.00745928
0.0383582
0.00833694
0.00814589
0.00859551
0.00545062
0.00770647
0.00964399
0.017209
0.0081457
0.393172
0.0406063
0.00597766
0.0234629
0.00755036
0.00494511
0.0328524
0.0080172
0.00816256
0.00788129
0.00655564
0.00793584
0.00717374
0.00781735
0.0497219
0.0328173
0.00573823
0.0139149
0.00689239
0.165346
0.0171156
0.00855539
0.00659804
0.0159005
0.00566256
0.00674554
0.00667821
0.00665878
0.006834
0.00794733
0.0328386
0.0211566
0.0240665
0.0234267
0.00859361
0.00807725
0.0479698
0.0120759
0.0117133
0.00759962
0.033695
0.0385868
0.170642
0.00533364
0.00687608
0.0232603
0.00587304
0.00795497
0.961701
0.00568855
0.00673311
0.0276408
0.028096
0.00580819
0.0354722
0.163968
0.00495934
0.63849
0.538289
0.00789793
0.00711898
0.027769
0.126182
0.0104482
0.00811355
0.006672
0.00839125
0.00752078
0.0817785
0.00761837
0.00846362
0.154508
0.0470702
0.00731449
0.00770428
0.00757681
0.00673069
0.00858177
0.00725349
0.00843285
0.00702077
0.00879383
0.00803461
0.0246126
0.00818548
0.0288117
0.00770131
0.0209452
0.008387
0.00783838
0.0632609
0.112707
0.00705235
0.0078063
0.00681731
0.00704296
0.00826439
0.00879459
0.00613797
0.00741726
0.00614036
0.00799963
0.0230212
0.00515869
0.0405516
0.00848588
0.180362
0.00788387
0.00668974
0.00894075
0.00826461
0.0080198
0.125302
0.0075827
0.0648852
0.00789956
0.00799797
0.444642
0.00845171
0.00855259
0.114608
0.0842352
0.052442
0.00755727
0.0198987
0.00788649
0.0524136
0.00580291
0.1975
0.00734714
0.005589
0.0229885
0.00763762
0.0321274
0.00696048
0.0153468
0.0316097
0.00821559
0.00988137
0.00767238
0.159743
0.0110111
0.00513677
0.0280477
0.00641603
0.00593737
0.00840191
0.0104185
0.0220192
0.00752393
0.00811374
0.0327092
0.0068595
0.00682769
0.00689384
0.00501726
0.00789665
0.0203843
0.0223314
0.00759344
0.0189717
0.00798004
0.00671769
0.00700287
1.06532
0.00825259
0.00747494
0.0177883
0.0321515
0.00820587
0.00706112
0.0289722
0.0105538
0.00660959
0.00725741
0.0063009
0.0318399
0.0075489
0.00693265
0.0881135
0.00713909
0.00830127
0.00730056
0.00692887
0.00802952
0.00989177
0.00764361
0.0261254
0.0059021
0.0134121
0.00812969
0.00508779
0.0370985
0.00691018
0.0069635
0.00765487
0.00734958
0.040383
0.0136607
0.00534866
0.00845649
0.00738593
0.263496
0.00769321
0.00694366
1.80399
0.00673482
0.00706587
0.00694648
0.00695271
0.00644333
0.00628817
0.0136998
0.0050999
0.0361516
0.00706487
0.00759481
0.0112917
0.00512851
0.00748349
0.00644688
0.00555854
0.00730584
0.055978
0.00855926
0.0107546
0.0074892
0.00689276
0.00676175
0.00598052
0.0136725
0.00795498
0.00721065
0.00671981
0.00756685
0.00837559
0.04026
0.0320911
0.192141
0.00896933
0.0329955
0.00675333
0.0075714
0.00746692
0.225128
0.00726694
0.00603534
0.394913
0.00691416
0.078891
0.101382
0.00686661
0.00809989
0.00705252
0.00527708
0.00537335
0.00683691
0.00888109
0.00719679
0.027223
0.00499571
0.0358435
0.00780861
0.0193415
0.00977092
0.95802
0.00822136
0.00852816
0.00494961
0.00828558
0.00688462
0.0174439
0.00790268
0.0117843
0.00543766
0.00822077
0.00525674
0.0170985
0.0140554
0.0242535
0.039365
0.00780121
0.085662
0.00853237
0.00645292
0.00598149
0.0389873
0.0084034
0.541727
0.00781214
0.0345273
0.357131
0.00510598
0.101563
0.0350971
0.0344222
0.00739342
0.00787823
0.00741345
0.00726155
0.00765883
0.00618634
0.00697352
0.0201196
0.00768784