/*--------------------------------*- C++ -*----------------------------------*\
| =========                 |                                                 |
| \\      /  F ield         | OpenFOAM: The Open Source CFD Toolbox           |
|  \\    /   O peration     | Version:  3.0.1                                 |
|   \\  /    A nd           | Web:      www.OpenFOAM.org                      |
|    \\/     M anipulation  |                                                 |
\*---------------------------------------------------------------------------*/
FoamFile
{
    version     2.0;
    format      ascii;
    class       volVectorField;
    location    "0.768284";
    object      U;
}
// * * * * * * * * * * * * * * * * * * * * * * * * * * * * * * * * * * * * * //

dimensions      [0 1 -1 0 0 0 0];

internalField   nonuniform List<vector> 
21246
(
(4.61835 -1.0031 -8.44687e-19)
(4.49362 -0.914498 7.32373e-20)
(4.43459 -0.81074 1.24906e-20)
(4.37249 -0.686586 4.4356e-19)
(4.29708 -0.567144 2.61986e-19)
(4.20678 -0.459381 8.02797e-20)
(4.10623 -0.367899 -5.66529e-19)
(3.99875 -0.293117 1.1037e-19)
(3.88627 -0.235496 0)
(3.7728 -0.199617 1.89877e-19)
(3.67021 -0.188238 -6.90194e-22)
(4.07564 -1.41263 -1.16491e-19)
(4.15726 -1.14733 2.56734e-19)
(4.19815 -1.01972 -1.96099e-19)
(4.19799 -0.878651 -8.93889e-20)
(4.16614 -0.74557 -3.59781e-19)
(4.11063 -0.626086 1.89569e-19)
(4.03777 -0.523241 1.30236e-19)
(3.95222 -0.438343 6.10896e-21)
(3.85796 -0.371643 0)
(3.76033 -0.322798 -9.57723e-20)
(3.6685 -0.296177 -7.53873e-22)
(3.78514 -1.48413 -5.46228e-20)
(3.88857 -1.24345 3.43615e-20)
(3.96332 -1.16623 0)
(4.0153 -1.04744 4.04655e-20)
(4.0326 -0.918516 1.10906e-19)
(4.016 -0.792903 1.60179e-19)
(3.97196 -0.679385 -2.49557e-19)
(3.90797 -0.58117 1.00807e-20)
(3.82993 -0.499632 1.24817e-19)
(3.74368 -0.436659 4.4828e-21)
(3.65859 -0.396569 -2.66574e-19)
(3.60364 -1.46361 3.93811e-20)
(3.70873 -1.24656 2.72117e-20)
(3.7788 -1.22335 0)
(3.84755 -1.1416 -4.93319e-20)
(3.89257 -1.03859 0)
(3.90662 -0.925283 -5.89727e-20)
(3.8898 -0.813015 4.40959e-20)
(3.84742 -0.709418 8.24022e-20)
(3.78638 -0.618784 -1.21914e-19)
(3.71386 -0.54445 1.72696e-19)
(3.63837 -0.491598 -1.84194e-19)
(3.49683 -1.42188 -4.1565e-19)
(3.58945 -1.23325 9.95681e-20)
(3.64108 -1.2403 -3.7152e-20)
(3.70739 -1.18462 3.60023e-21)
(3.76006 -1.10827 2.41226e-21)
(3.78946 -1.01536 0)
(3.7915 -0.914338 -2.41884e-20)
(3.76804 -0.813659 0)
(3.72427 -0.719852 -4.88477e-20)
(3.66666 -0.63813 1.11096e-19)
(3.60295 -0.575968 -5.47201e-20)
(3.43237 -1.38223 4.24078e-19)
(3.50955 -1.22158 1.64905e-19)
(3.53947 -1.24551 -1.55479e-20)
(3.59662 -1.20286 -7.17076e-20)
(3.64536 -1.14639 -1.4613e-20)
(3.6781 -1.07258 6.38528e-21)
(3.68966 -0.986053 1.35271e-20)
(3.67959 -0.893731 -2.55402e-20)
(3.65086 -0.802367 0)
(3.60822 -0.718055 1.59623e-20)
(3.5579 -0.649659 -1.1636e-20)
(3.39957 -1.34785 6.80354e-19)
(3.44767 -1.21663 -2.76059e-19)
(3.46146 -1.25064 1.29764e-19)
(3.50953 -1.21169 -8.31797e-20)
(3.54953 -1.16841 1.40661e-20)
(3.57878 -1.10892 -1.0756e-20)
(3.59267 -1.03547 0)
(3.58987 -0.953085 2.17309e-20)
(3.57162 -0.86746 1.66232e-20)
(3.54039 -0.78452 -5.17707e-21)
(3.49887 -0.713843 1.92315e-20)
(3.36517 -1.35379 -7.5472e-19)
(3.3903 -1.23214 2.92896e-19)
(3.40146 -1.25436 -1.5477e-19)
(3.43829 -1.21946 1.20043e-19)
(3.46834 -1.18443 0)
(3.49157 -1.13404 1.04005e-20)
(3.50376 -1.07034 0)
(3.50379 -0.996938 -5.89101e-21)
(3.49227 -0.918122 -1.58868e-22)
(3.47063 -0.839183 0)
(3.44124 -0.771476 -3.01355e-22)
(3.32022 -1.37555 3.6966e-19)
(3.34184 -1.24863 -2.86231e-19)
(3.34788 -1.26312 -2.24825e-20)
(3.37404 -1.2329 -1.6029e-20)
(3.39656 -1.19965 0)
(3.4136 -1.15406 -7.30775e-20)
(3.42238 -1.0968 4.77369e-20)
(3.42255 -1.03013 -3.17089e-21)
(3.41472 -0.957251 1.19032e-20)
(3.39962 -0.881867 -7.74985e-21)
(3.37767 -0.814744 -1.28086e-20)
(3.27653 -1.39728 3.22935e-19)
(3.2976 -1.26416 -2.55255e-19)
(3.29454 -1.27577 2.24371e-20)
(3.31365 -1.24801 1.47454e-20)
(3.32994 -1.21558 1.77812e-19)
(3.34136 -1.17243 -9.59654e-20)
(3.34642 -1.11872 -2.46168e-20)
(3.34535 -1.05626 -6.90728e-21)
(3.33896 -0.987375 -1.29972e-21)
(3.32745 -0.914581 0)
(3.30812 -0.847444 -8.19405e-21)
(3.23843 -1.42259 9.76126e-20)
(3.25427 -1.2833 3.34577e-20)
(3.24182 -1.29198 0)
(3.25466 -1.26443 1.68647e-19)
(3.2653 -1.23197 -2.60501e-19)
(3.27183 -1.18973 -4.96818e-20)
(3.27338 -1.13769 6.63031e-20)
(3.27065 -1.07745 8.91171e-21)
(3.26474 -1.01091 -2.34349e-20)
(3.25599 -0.94038 0)
(3.24185 -0.876495 5.55514e-20)
(3.19672 -1.45195 -4.27462e-19)
(3.20564 -1.30782 -4.98067e-22)
(3.18636 -1.31172 2.54596e-19)
(3.19419 -1.28218 -2.07627e-19)
(3.20008 -1.2484 -4.12207e-20)
(3.20249 -1.20567 4.87218e-20)
(3.20106 -1.15379 0)
(3.19686 -1.09423 0)
(3.19124 -1.02859 5.55971e-21)
(3.18463 -0.958823 -1.66114e-20)
(3.17343 -0.894929 1.54128e-20)
(3.14675 -1.47867 -7.83974e-19)
(3.1513 -1.33097 4.75627e-19)
(3.12685 -1.33114 8.95932e-20)
(3.13069 -1.29944 0)
(3.13271 -1.26388 1.01336e-21)
(3.13178 -1.21975 -8.73438e-20)
(3.12797 -1.16683 1.60656e-19)
(3.12264 -1.10658 -7.12381e-20)
(3.11735 -1.04038 0)
(3.11235 -0.969459 0)
(3.10181 -0.902602 0)
(3.09624 -1.50454 9.00862e-20)
(3.09581 -1.35117 0)
(3.06466 -1.3488 3.25363e-19)
(3.06425 -1.31509 -2.53915e-19)
(3.06259 -1.27754 1.30875e-20)
(3.05876 -1.2314 1.09328e-19)
(3.05305 -1.17651 0)
(3.04702 -1.11445 0)
(3.04231 -1.04666 0)
(3.03918 -0.974166 0)
(3.0312 -0.907035 0)
(3.04223 -1.53181 8.32761e-20)
(3.03488 -1.37239 0)
(2.99785 -1.3655 0)
(2.99367 -1.32854 -3.19138e-19)
(2.98874 -1.28824 -4.7307e-20)
(2.98245 -1.23935 2.65827e-19)
(2.97539 -1.18167 -1.24008e-19)
(2.9693 -1.1169 0)
(2.96588 -1.04671 0)
(2.96531 -0.971882 0)
(2.95942 -0.901899 0)
(2.98056 -1.55403 2.84719e-19)
(2.96798 -1.39001 5.34486e-20)
(2.92609 -1.3788 -3.29867e-19)
(2.91857 -1.33845 2.05527e-19)
(2.91065 -1.295 -9.4543e-20)
(2.90231 -1.24272 -1.5518e-20)
(2.89448 -1.18142 8.04614e-20)
(2.88917 -1.11306 -1.38867e-19)
(2.88803 -1.03985 2.56421e-20)
(2.89118 -0.962489 8.94983e-21)
(2.889 -0.890063 3.79199e-20)
(2.91639 -1.57185 1.96045e-19)
(2.89925 -1.40292 -5.17992e-19)
(2.8509 -1.38782 0)
(2.83928 -1.34417 2.91946e-19)
(2.82812 -1.29717 -1.39597e-19)
(2.81787 -1.24072 5.68596e-20)
(2.80988 -1.17481 -1.07046e-19)
(2.80645 -1.10197 8.3319e-20)
(2.80898 -1.02536 -1.1075e-20)
(2.81733 -0.945882 1.97264e-21)
(2.81963 -0.872907 -6.86644e-20)
(2.84956 -1.58806 5.71587e-19)
(2.82626 -1.41434 -4.91832e-19)
(2.77149 -1.39342 -1.98603e-19)
(2.75519 -1.34558 4.26622e-19)
(2.74063 -1.29398 -1.35255e-20)
(2.72867 -1.23211 -1.2969e-19)
(2.72133 -1.16015 9.87889e-20)
(2.72134 -1.0819 -3.11633e-20)
(2.7295 -1.00184 -1.121e-20)
(2.74509 -0.920969 -9.3692e-21)
(2.75279 -0.848111 2.33207e-20)
(2.77804 -1.59918 0)
(2.74813 -1.42227 0)
(2.68723 -1.39417 -7.02648e-20)
(2.6657 -1.34124 -4.68096e-20)
(2.64754 -1.2835 1.63082e-20)
(2.63434 -1.21445 -7.88489e-20)
(2.62914 -1.13524 0)
(2.63485 -1.05109 1.09257e-20)
(2.65104 -0.968146 1.93813e-20)
(2.67604 -0.887532 -2.51414e-20)
(2.69203 -0.815427 -4.26362e-20)
(2.70217 -1.60251 0)
(2.66574 -1.42474 -3.31095e-19)
(2.5986 -1.38851 2.68388e-19)
(2.57072 -1.3297 1.75434e-19)
(2.54845 -1.26387 -1.15986e-19)
(2.53487 -1.18518 -1.18175e-19)
(2.53438 -1.09676 8.89518e-20)
(2.54932 -1.00649 -4.74598e-20)
(2.57662 -0.922401 2.58902e-20)
(2.61201 -0.845508 -2.49887e-20)
(2.6372 -0.777221 7.33217e-21)
(2.62369 -1.59997 4.63589e-20)
(2.5809 -1.4212 3.02856e-20)
(2.5059 -1.37635 2.80941e-20)
(2.46956 -1.30948 1.1267e-21)
(2.44268 -1.23178 1.41013e-19)
(2.43107 -1.1398 0)
(2.43985 -1.04064 7.49431e-20)
(2.46871 -0.945886 -5.21132e-20)
(2.51022 -0.864475 -1.01776e-20)
(2.55649 -0.796115 7.16967e-21)
(2.59102 -0.736577 -1.9593e-20)
(2.54482 -1.55803 -6.02998e-19)
(2.49129 -1.40921 3.41102e-19)
(2.40789 -1.35365 -2.65973e-19)
(2.35975 -1.27488 0)
(2.33033 -1.17972 0)
(2.32706 -1.07096 1.14789e-20)
(2.35239 -0.962025 -1.61391e-20)
(2.40032 -0.867649 -3.58267e-21)
(2.45782 -0.795264 0)
(2.51382 -0.741102 2.24863e-21)
(2.55567 -0.69517 5.27088e-23)
(2.45147 -1.7027 4.375e-20)
(2.41194 -1.45976 0)
(2.29247 -1.36393 4.43247e-20)
(2.23566 -1.24243 2.42357e-20)
(2.21656 -1.11095 -1.53327e-19)
(2.23453 -0.979896 9.8557e-20)
(2.28525 -0.864957 -2.99959e-20)
(2.35514 -0.778539 -2.11748e-20)
(2.4268 -0.721911 1.94816e-20)
(2.48794 -0.685564 -3.0489e-21)
(2.53288 -0.655989 0)
(2.38502 -1.25979 -3.04242e-20)
(2.25811 -1.20861 0)
(2.18625 -1.10909 2.56746e-19)
(2.15731 -1.0131 -9.71526e-20)
(2.16184 -0.909623 -9.58456e-20)
(2.20826 -0.801778 8.79694e-20)
(2.28173 -0.714752 -7.83106e-21)
(2.362 -0.661433 9.50437e-20)
(2.43278 -0.637108 0)
(2.48666 -0.628528 -2.57542e-20)
(2.52503 -0.621617 0)
(4.6728 -0.813952 3.18247e-19)
(4.5664 -0.771642 -1.94573e-19)
(4.59045 -0.679034 7.42741e-20)
(4.57603 -0.550467 6.52234e-21)
(4.4945 -0.40692 -4.96365e-21)
(4.37106 -0.286412 1.06771e-19)
(4.23257 -0.201894 4.05765e-20)
(4.0859 -0.137479 1.55728e-19)
(3.94137 -0.0890447 -7.11032e-21)
(3.80178 -0.0618875 -4.97272e-20)
(3.67746 -0.0611202 0)
(4.89451 -1.51945 -7.77909e-20)
(4.70367 -1.15927 2.57057e-20)
(4.68658 -0.808189 -8.75888e-20)
(4.70089 -0.563867 5.47214e-20)
(4.65937 -0.361107 0)
(4.55722 -0.184219 -2.15335e-19)
(4.41169 -0.0473143 2.70444e-23)
(4.2083 0.0463421 5.09582e-20)
(4.01169 0.083975 -6.77806e-20)
(3.83189 0.0967507 -1.07034e-20)
(3.67957 0.0849257 -2.232e-20)
(5.42646 -2.04072 3.96462e-19)
(5.22808 -1.87091 -7.49616e-19)
(5.02176 -1.36275 1.09505e-18)
(4.89157 -0.841199 -4.63654e-19)
(4.82022 -0.453912 -2.44706e-19)
(4.71814 -0.153474 6.85863e-20)
(4.56711 0.0776323 8.47558e-21)
(4.36355 0.235728 2.79616e-21)
(4.11773 0.305674 8.54418e-20)
(3.85609 0.301204 3.47454e-20)
(3.66699 0.270989 -2.23721e-20)
(5.69117 -2.16854 -7.67947e-22)
(5.55392 -2.04933 2.13818e-19)
(5.39611 -1.77917 5.99631e-20)
(5.18783 -1.28207 -1.63542e-19)
(5.00566 -0.709183 -1.96081e-21)
(4.86275 -0.236546 0)
(4.69384 0.133438 -7.44398e-21)
(4.47702 0.39957 -3.71761e-20)
(4.21572 0.545637 3.63081e-20)
(3.91535 0.56615 0)
(3.63851 0.493305 2.6781e-20)
(5.94284 -2.3719 1.98344e-19)
(5.87406 -2.18923 -3.00184e-19)
(5.7212 -1.97206 2.26961e-19)
(5.52917 -1.61341 -7.51376e-20)
(5.27573 -1.06469 1.82863e-21)
(5.03307 -0.445072 9.17849e-20)
(4.80627 0.0874303 6.03721e-21)
(4.55105 0.495022 1.03729e-19)
(4.26006 0.755244 -1.64535e-19)
(3.93477 0.850324 2.50454e-20)
(3.61703 0.791017 2.33452e-20)
(6.16005 -2.55076 -4.43598e-19)
(6.15891 -2.32385 3.70866e-19)
(6.01561 -2.1363 0)
(5.82339 -1.81413 6.57255e-20)
(5.57383 -1.36579 0)
(5.24932 -0.728819 -8.70229e-20)
(4.92934 -0.0662394 -3.15986e-19)
(4.6021 0.494631 2.45144e-19)
(4.2551 0.893996 7.73613e-20)
(3.88981 1.09628 2.44167e-19)
(3.52367 1.09253 -2.19406e-19)
(6.34182 -2.69827 0)
(6.39463 -2.4446 0)
(6.25872 -2.29633 -1.12692e-18)
(6.07193 -1.99913 6.72618e-19)
(5.8142 -1.59269 -5.94382e-19)
(5.48254 -1.03956 -5.378e-19)
(5.06876 -0.310289 1.05899e-18)
(4.64277 0.382907 -2.36457e-19)
(4.21102 0.928126 0)
(3.78484 1.2605 0)
(3.38284 1.35352 -1.61595e-19)
(6.48911 -2.82295 0)
(6.57707 -2.55911 0)
(6.44343 -2.45255 1.36665e-18)
(6.26535 -2.18418 -1.83694e-18)
(6.00795 -1.81885 7.45142e-19)
(5.65906 -1.31772 0)
(5.20358 -0.626233 0)
(4.67849 0.162325 1.09168e-18)
(4.14023 0.83887 0)
(3.62664 1.30569 0)
(3.17443 1.52228 9.24142e-19)
(6.60626 -2.92607 8.48763e-19)
(6.71134 -2.66396 -4.0302e-19)
(6.5728 -2.60146 0)
(6.40222 -2.36509 0)
(6.14801 -2.05029 0)
(5.79568 -1.60756 0)
(5.31551 -0.992696 -1.5496e-18)
(4.70913 -0.16123 -1.28342e-18)
(4.05678 0.617483 9.09906e-19)
(3.44057 1.20733 -3.84851e-19)
(2.90755 1.53001 1.71902e-19)
(6.68724 -3.00406 0)
(6.79995 -2.75788 3.84324e-19)
(6.64919 -2.74084 -1.45892e-18)
(6.48393 -2.53855 1.14017e-18)
(6.23248 -2.28135 1.75134e-18)
(5.88135 -1.90888 -9.14487e-19)
(5.39024 -1.37483 9.40892e-19)
(4.72793 -0.605772 1.36945e-18)
(3.96838 0.256964 1.16735e-18)
(3.23617 0.940489 -4.84291e-19)
(2.62285 1.3672 0)
(6.71848 -3.06645 9.72833e-19)
(6.84002 -2.84792 -9.64663e-19)
(6.6719 -2.86369 0)
(6.50894 -2.70248 1.39378e-18)
(6.25837 -2.50869 -1.65839e-18)
(5.91008 -2.2177 1.16518e-18)
(5.42315 -1.78124 -3.91742e-18)
(4.7298 -1.1343 1.61614e-18)
(3.88654 -0.236746 -1.47959e-18)
(3.03997 0.511081 -1.84537e-18)
(2.34361 1.02681 0)
(6.70151 -3.13489 -9.43728e-19)
(6.82054 -2.93425 1.13645e-18)
(6.64758 -2.9653 0)
(6.47694 -2.86379 -3.25496e-19)
(6.22538 -2.73276 -7.1604e-19)
(5.8796 -2.52726 1.03681e-18)
(5.40497 -2.20436 0)
(4.72008 -1.70381 0)
(3.82859 -0.843154 -6.94636e-20)
(2.88463 -0.0657476 -1.02726e-18)
(2.12786 0.502873 2.95416e-18)
(6.65093 -3.17653 -8.72573e-19)
(6.73749 -3.00748 4.81543e-19)
(6.56965 -3.05977 0)
(6.38682 -3.01724 3.2164e-19)
(6.13089 -2.94905 7.03041e-19)
(5.78588 -2.8287 -2.24854e-18)
(5.32672 -2.6282 3.097e-18)
(4.67994 -2.29177 -1.78861e-18)
(3.77208 -1.63765 -4.13667e-20)
(2.77526 -0.785019 1.13403e-20)
(1.98253 -0.180033 1.43224e-18)
(6.54724 -3.18906 -6.69519e-19)
(6.59337 -3.07008 7.07503e-19)
(6.42893 -3.14823 -1.35081e-18)
(6.23543 -3.16497 2.0491e-18)
(5.97456 -3.16223 2.15784e-19)
(5.62848 -3.12063 -9.49881e-19)
(5.17641 -3.01794 -1.00753e-18)
(4.58853 -2.81863 9.08001e-19)
(3.81865 -2.45607 -1.55274e-18)
(2.77761 -1.59933 8.2962e-20)
(1.90963 -0.955909 1.39164e-18)
(6.38008 -3.18344 0)
(6.38575 -3.12281 0)
(6.22204 -3.2321 1.37579e-19)
(6.02457 -3.31007 -2.65372e-19)
(5.76796 -3.37801 1.07126e-19)
(5.43716 -3.41743 0)
(5.01666 -3.40441 7.4323e-19)
(4.48323 -3.30494 -3.62828e-19)
(3.80156 -3.06169 -3.10361e-19)
(2.94793 -2.50265 2.0953e-18)
(2.018 -1.8049 -1.04956e-18)
(6.14401 -3.1571 -3.69319e-19)
(6.10661 -3.15703 6.75528e-19)
(5.94138 -3.30455 -3.05224e-19)
(5.74674 -3.4471 -5.94205e-22)
(5.5066 -3.58981 -5.41578e-19)
(5.21016 -3.7125 3.38895e-19)
(4.84797 -3.78919 -5.95911e-19)
(4.40467 -3.78239 9.47047e-19)
(3.85009 -3.63548 -2.2489e-19)
(3.14538 -3.26727 -2.96594e-21)
(2.33093 -2.65983 3.1794e-19)
(5.81828 -3.11169 0)
(5.74204 -3.17023 -4.10349e-21)
(5.57763 -3.36426 2.47552e-19)
(5.39689 -3.57517 -4.88383e-19)
(5.18989 -3.79428 -9.54533e-20)
(4.94823 -3.99759 2.5277e-19)
(4.66542 -4.15683 0)
(4.33042 -4.2334 5.09069e-19)
(3.9194 -4.17847 -2.09741e-19)
(3.39635 -3.94603 3.15757e-19)
(2.73683 -3.50247 -2.18095e-19)
(5.38233 -3.05916 -2.41017e-19)
(5.27903 -3.16806 -3.12013e-20)
(5.12456 -3.41314 0)
(4.97491 -3.6903 0)
(4.82238 -3.97676 0)
(4.65728 -4.2428 0)
(4.47343 -4.45769 0)
(4.26326 -4.58347 -7.96098e-19)
(4.00807 -4.57776 1.5606e-19)
(3.67593 -4.41179 0)
(3.237 -4.10645 4.08142e-19)
(4.83912 -3.01115 -4.05829e-19)
(4.72737 -3.14754 1.77104e-19)
(4.60006 -3.43033 8.68477e-20)
(4.50103 -3.75052 -1.01926e-19)
(4.41839 -4.06769 7.88889e-20)
(4.34519 -4.34857 -1.51151e-19)
(4.27407 -4.56241 3.19259e-19)
(4.1962 -4.67092 3.64005e-19)
(4.08816 -4.63651 3.96746e-19)
(3.91291 -4.47077 0)
(3.63713 -4.22365 -2.27259e-19)
(4.13932 -2.89094 -6.04456e-19)
(4.01769 -2.95267 -6.21544e-20)
(3.90753 -3.1751 3.65459e-20)
(3.85451 -3.43497 0)
(3.8586 -3.69914 -7.21008e-20)
(3.89328 -3.93359 1.95553e-19)
(3.94216 -4.09549 -3.23804e-19)
(3.99038 -4.11896 5.0591e-19)
(3.99006 -3.95002 -4.16909e-19)
(3.88429 -3.70503 0)
(3.63465 -3.40231 0)
(3.42629 -2.72116 4.86338e-19)
(3.40705 -2.70142 -2.75227e-19)
(3.34837 -2.86775 0)
(3.32456 -3.04754 7.134e-20)
(3.34326 -3.20906 2.66965e-20)
(3.40484 -3.31985 -4.09034e-21)
(3.50743 -3.30519 0)
(3.60474 -2.97999 -5.51889e-19)
(3.66324 -2.6111 -3.93656e-19)
(3.56467 -2.40189 -1.07457e-19)
(3.2557 -2.06716 2.43831e-20)
(2.98872 -2.62444 0)
(2.92784 -2.51963 0)
(2.85883 -2.60349 0)
(2.83716 -2.67397 -3.09347e-19)
(2.8689 -2.66914 -9.9144e-21)
(2.95768 -2.53595 -1.91156e-19)
(3.01873 -2.08893 -1.7265e-19)
(3.09386 -1.686 2.10772e-19)
(3.13321 -1.45408 1.27161e-19)
(3.06944 -1.29358 1.08724e-19)
(2.88663 -1.13172 6.32676e-20)
(2.44883 -2.68488 1.3215e-21)
(2.47581 -2.29773 9.93622e-20)
(2.44577 -2.26701 -9.17754e-20)
(2.45502 -2.11423 2.91922e-19)
(2.4736 -1.81933 3.05188e-20)
(2.50081 -1.4183 6.93054e-19)
(2.57721 -1.10165 -1.58399e-19)
(2.65894 -0.903539 -1.4172e-19)
(2.70337 -0.795555 -1.23215e-19)
(2.69567 -0.742682 4.6828e-20)
(2.64162 -0.706327 0)
(2.23544 -2.02245 0)
(2.24865 -1.69895 -1.39763e-19)
(2.22628 -1.50419 2.62625e-19)
(2.22143 -1.26579 -2.06321e-19)
(2.2395 -1.03998 -2.50835e-19)
(2.28103 -0.850044 1.73416e-19)
(2.34393 -0.718753 0)
(2.41412 -0.644759 2.5719e-19)
(2.47444 -0.614169 -1.39418e-19)
(2.51401 -0.609075 6.92928e-20)
(2.53174 -0.608708 0)
(-1.36634 -3.13162 0)
(-0.727314 -2.4851 0)
(0.345374 -1.94468 -7.27362e-19)
(1.04977 -1.48849 0)
(1.49141 -1.13375 -5.07596e-19)
(1.77646 -0.847614 -6.75211e-19)
(1.9685 -0.615859 2.42895e-18)
(2.10526 -0.429733 -1.46292e-18)
(2.20695 -0.281729 2.07542e-18)
(2.28243 -0.166334 -7.2302e-19)
(2.33231 -0.0809014 -9.03059e-19)
(-1.64313 0.686319 -9.18542e-19)
(-0.906361 0.0867117 7.32707e-19)
(-0.367272 -0.220551 -5.51123e-18)
(0.254507 -0.461171 1.92342e-18)
(0.814062 -0.5417 1.90509e-19)
(1.26231 -0.505834 1.02349e-18)
(1.60144 -0.40892 2.22471e-19)
(1.84903 -0.295085 -8.21991e-19)
(2.02777 -0.188109 4.04801e-19)
(2.15559 -0.0980322 -8.81878e-19)
(2.24119 -0.0289082 1.18165e-18)
(-0.908046 1.76109 8.99023e-19)
(-0.076067 1.08026 -6.01022e-18)
(-0.0623536 0.872808 5.05245e-18)
(0.272592 0.479685 5.7502e-18)
(0.639339 0.200817 -3.87829e-18)
(1.02994 0.0239127 -6.68195e-19)
(1.37729 -0.0480922 -8.11346e-19)
(1.66452 -0.0521147 1.0965e-18)
(1.88895 -0.0211772 1.58253e-19)
(2.05784 0.021176 2.40391e-19)
(2.17603 0.0608882 -5.00562e-19)
(-0.075892 2.1122 0)
(0.826334 1.51793 6.4382e-18)
(0.538286 1.54039 -4.86873e-18)
(0.68669 1.13693 4.44325e-18)
(0.831306 0.826982 -7.15558e-18)
(1.07542 0.547991 1.87943e-18)
(1.3368 0.357669 0)
(1.58988 0.24508 5.05456e-19)
(1.81038 0.190934 0)
(1.98898 0.171769 -1.13256e-20)
(2.12075 0.169273 3.94872e-20)
(0.62211 2.07176 -1.40041e-18)
(1.50317 1.65046 -3.29021e-18)
(1.14289 1.83119 2.3881e-18)
(1.23029 1.47109 -2.98387e-18)
(1.19809 1.23556 -1.72413e-19)
(1.30773 0.946684 2.08722e-18)
(1.45656 0.711311 0)
(1.63531 0.533925 3.17414e-20)
(1.81552 0.414551 0)
(1.97877 0.340478 2.65197e-20)
(2.10953 0.298646 5.21183e-19)
(1.13851 1.8446 -3.58564e-20)
(1.97892 1.61764 5.48026e-20)
(1.61666 1.87762 -1.63114e-18)
(1.71197 1.58046 1.10871e-18)
(1.59497 1.434 -3.22926e-19)
(1.61472 1.18608 -1.31942e-18)
(1.66876 0.96176 5.89438e-19)
(1.76825 0.766109 1.60166e-18)
(1.89111 0.613228 -1.20325e-18)
(2.01841 0.502118 7.51073e-19)
(2.12797 0.428325 -5.55169e-19)
(1.45503 1.5741 3.39801e-20)
(2.30399 1.50704 -5.1916e-20)
(1.97924 1.78596 -7.00386e-19)
(2.07292 1.56442 9.61393e-19)
(1.93812 1.48497 3.11127e-19)
(1.91403 1.2905 -2.86403e-19)
(1.90684 1.10437 2.16626e-18)
(1.94421 0.921929 -1.28598e-18)
(2.01266 0.763896 0)
(2.09892 0.636706 2.01102e-18)
(2.18211 0.543989 -1.93101e-18)
(1.62551 1.35748 -4.00177e-19)
(2.48903 1.3888 -6.15322e-20)
(2.24324 1.65087 -3.03863e-19)
(2.33282 1.48602 1.21568e-19)
(2.20555 1.45248 -2.54925e-19)
(2.16682 1.3049 0)
(2.12785 1.16171 0)
(2.12537 1.00641 4.66068e-19)
(2.15191 0.86122 -8.09501e-19)
(2.20109 0.734402 -3.76679e-20)
(2.25309 0.635584 8.46279e-19)
(1.74013 1.19144 0)
(2.60623 1.26946 -1.98286e-20)
(2.42736 1.51779 1.63541e-19)
(2.51731 1.38612 -1.45687e-19)
(2.40474 1.38148 -4.18774e-19)
(2.36536 1.26864 5.88311e-19)
(2.31329 1.16266 9.79549e-19)
(2.28919 1.03643 -1.20654e-18)
(2.2881 0.911752 0)
(2.30929 0.7952 -1.03734e-18)
(2.33714 0.699558 1.45083e-20)
(1.80969 1.0257 1.29999e-19)
(2.69547 1.13431 -3.4255e-19)
(2.55981 1.38712 0)
(2.65073 1.27804 0)
(2.55104 1.29548 1.72559e-19)
(2.51619 1.20743 -2.03805e-19)
(2.46062 1.13131 0)
(2.42674 1.03079 0)
(2.40973 0.92793 6.26146e-19)
(2.413 0.826233 -1.7223e-18)
(2.42528 0.740417 -6.59068e-19)
(1.80791 0.847071 -1.20732e-19)
(2.73923 0.996094 1.55417e-19)
(2.64447 1.26183 -4.52519e-20)
(2.74273 1.16922 0)
(2.65538 1.20604 0)
(2.62791 1.13594 -6.92083e-19)
(2.57382 1.08373 5.35818e-19)
(2.53719 1.00436 -6.00681e-19)
(2.51208 0.921895 9.80254e-19)
(2.50497 0.835874 8.41169e-19)
(2.50659 0.76195 6.52398e-19)
(1.76333 0.698865 -3.36996e-20)
(2.73825 0.892744 1.41578e-19)
(2.68738 1.15785 1.19258e-19)
(2.79882 1.07175 -1.68644e-19)
(2.72504 1.12237 1.4175e-19)
(2.70746 1.06358 -1.48357e-19)
(2.65789 1.03017 -2.78953e-19)
(2.62287 0.967318 0)
(2.59479 0.902666 0)
(2.58232 0.831327 -7.02671e-19)
(2.57756 0.769807 1.67336e-20)
(1.7225 0.586842 3.82195e-20)
(2.72755 0.809617 0)
(2.71049 1.07239 0)
(2.83328 0.987574 8.92826e-20)
(2.76975 1.04904 1.97244e-19)
(2.76236 0.995758 2.08522e-19)
(2.71826 0.977286 3.05461e-19)
(2.68729 0.926626 -2.46695e-19)
(2.65955 0.877145 0)
(2.64574 0.818436 1.39379e-18)
(2.6385 0.768834 -5.07572e-19)
(1.67291 0.478078 1.95769e-19)
(2.70052 0.718905 -7.01176e-19)
(2.72257 0.988505 -6.96834e-20)
(2.85316 0.912623 6.65082e-19)
(2.79847 0.983824 -2.32804e-19)
(2.79971 0.934119 -3.44084e-19)
(2.7606 0.928478 -1.29361e-20)
(2.73451 0.886656 2.46366e-19)
(2.7088 0.850407 0)
(2.69633 0.802279 3.27106e-19)
(2.68966 0.763389 0)
(1.59793 0.386428 -4.23511e-19)
(2.65075 0.648172 3.97586e-19)
(2.71902 0.916891 7.01974e-20)
(2.85851 0.849607 4.8859e-19)
(2.81531 0.924725 -9.00762e-19)
(2.82273 0.879614 3.31015e-19)
(2.789 0.883434 0)
(2.76774 0.849686 0)
(2.74533 0.824848 -4.17335e-19)
(2.73556 0.786357 -3.36328e-19)
(2.73148 0.757063 -5.00843e-19)
(1.53482 0.314488 1.97818e-20)
(2.59532 0.590322 3.26476e-19)
(2.70777 0.852573 -4.27132e-19)
(2.85344 0.796013 0)
(2.82293 0.870534 -6.05821e-20)
(2.83406 0.831868 0)
(2.80609 0.842441 -2.47122e-19)
(2.78913 0.816949 2.53914e-19)
(2.77114 0.801928 0)
(2.76513 0.772514 3.23807e-19)
(2.76572 0.750516 3.08569e-21)
(1.47238 0.244479 3.24375e-20)
(2.52764 0.523825 2.82194e-20)
(2.68793 0.782474 4.29528e-20)
(2.83844 0.745217 -6.51146e-19)
(2.82223 0.817608 3.38195e-20)
(2.83457 0.789363 8.57737e-19)
(2.81325 0.805399 -4.2714e-19)
(2.80033 0.789319 -2.22872e-21)
(2.78767 0.783146 0)
(2.78651 0.762765 3.28739e-19)
(2.79304 0.747112 -2.41806e-19)
(1.38713 0.184808 -4.66586e-20)
(2.43534 0.463449 -1.01484e-21)
(2.6503 0.713649 4.53533e-19)
(2.80961 0.696056 -3.53029e-19)
(2.81039 0.764912 7.79111e-20)
(2.82437 0.751204 -4.88369e-19)
(2.80907 0.773333 7.60357e-19)
(2.80176 0.767415 -2.89265e-19)
(2.79601 0.769671 0)
(2.80119 0.75817 1.61503e-19)
(2.81442 0.747637 1.17513e-19)
(1.28843 0.140349 1.03637e-18)
(2.31763 0.413712 -1.32612e-18)
(2.59031 0.646736 3.82093e-19)
(2.76055 0.64626 4.32514e-19)
(2.78101 0.713687 -4.14764e-19)
(2.80024 0.716355 0)
(2.79309 0.745849 2.18232e-19)
(2.79362 0.75331 -3.27577e-19)
(2.79734 0.763252 -2.38395e-19)
(2.81069 0.759553 -1.67365e-19)
(2.83178 0.752362 0)
(1.17497 0.111365 -1.20605e-18)
(2.16632 0.373907 1.02808e-18)
(2.49579 0.577988 -4.90851e-19)
(2.67677 0.592598 4.88334e-19)
(2.72363 0.665409 -4.00713e-19)
(2.75529 0.688302 3.05596e-19)
(2.76395 0.726665 -2.24858e-19)
(2.77674 0.747753 -1.7661e-20)
(2.79284 0.764735 2.4247e-19)
(2.81619 0.767525 0)
(2.846 0.762841 0)
(1.02599 0.0997264 -1.40419e-18)
(1.96225 0.338431 7.88825e-19)
(2.33724 0.505134 -7.99315e-19)
(2.5355 0.538252 9.56521e-19)
(2.62114 0.632282 0)
(2.68053 0.674944 -3.76676e-19)
(2.71675 0.720449 0)
(2.74988 0.751655 3.65654e-19)
(2.78229 0.773753 2.7099e-19)
(2.8175 0.781206 3.66898e-19)
(2.85636 0.778498 5.92767e-19)
(0.881405 0.0784488 -1.99508e-18)
(1.70501 0.289398 0)
(2.10264 0.419783 0)
(2.32646 0.494513 -3.88999e-19)
(2.46073 0.627435 3.66898e-20)
(2.56548 0.686235 3.79118e-19)
(2.64393 0.732248 -6.0518e-19)
(2.70794 0.764768 0)
(2.76193 0.787309 -1.08835e-18)
(2.81147 0.797151 -1.08028e-18)
(2.86058 0.797272 -3.02211e-20)
(0.573409 0.0835891 0)
(1.35098 0.146853 0)
(1.73382 0.343395 9.75075e-19)
(2.0077 0.476367 -1.44783e-19)
(2.21358 0.652856 -7.6437e-19)
(2.38474 0.725074 5.41211e-20)
(2.52048 0.763813 3.30173e-19)
(2.62735 0.785957 0)
(2.71171 0.800769 1.14904e-18)
(2.78218 0.808537 7.55305e-19)
(2.84698 0.810339 0)
(1.07617 -0.747918 0)
(1.30553 -0.111443 2.23002e-18)
(1.53824 0.118281 -2.76602e-18)
(1.78165 0.380339 -2.243e-19)
(1.99793 0.627793 1.20247e-18)
(2.19385 0.72272 2.0716e-20)
(2.35978 0.761205 7.9086e-19)
(2.49428 0.777665 -4.82121e-19)
(2.60262 0.787636 -6.24877e-19)
(2.69426 0.79508 1.10747e-18)
(2.78659 0.810497 -9.32323e-20)
(2.77802 -5.42853 0)
(2.5759 -3.80017 1.33928e-19)
(2.40003 -3.05544 7.87615e-19)
(2.28675 -2.2268 -3.35963e-18)
(2.2609 -1.61038 2.62117e-18)
(2.29205 -1.14685 1.45285e-18)
(2.33897 -0.807286 -2.25185e-18)
(2.38092 -0.554315 5.65488e-19)
(2.41235 -0.36279 7.37517e-19)
(2.43277 -0.217863 0)
(2.44052 -0.112845 8.03143e-19)
(4.2659 -4.60449 0)
(4.18033 -1.89596 -1.68972e-19)
(4.04531 -2.62347 -9.69576e-19)
(3.58101 -2.14038 1.96676e-20)
(3.18306 -1.73203 7.33784e-19)
(2.91077 -1.29057 -5.52039e-19)
(2.75168 -0.918142 0)
(2.66261 -0.622823 -5.8944e-19)
(2.60989 -0.39864 3.53338e-19)
(2.57344 -0.232543 -4.4838e-19)
(2.54134 -0.11595 -7.7927e-20)
(4.402 -3.00682 0)
(4.62962 -0.0518267 0)
(4.9591 -1.57018 -2.74965e-18)
(4.50444 -1.34337 5.63254e-19)
(4.02404 -1.32337 3.58612e-19)
(3.5724 -1.10072 -8.1e-21)
(3.23221 -0.840826 -1.11802e-19)
(2.99788 -0.587986 2.25192e-19)
(2.84218 -0.375217 -7.97289e-19)
(2.73469 -0.209664 -2.34706e-19)
(2.65261 -0.0910413 -2.63191e-19)
(3.87819 -1.67698 -1.69915e-18)
(4.49937 1.05937 2.19875e-18)
(5.18052 -0.466972 2.15166e-18)
(4.8845 -0.313692 -1.62092e-18)
(4.53329 -0.608347 -5.46125e-19)
(4.07209 -0.616311 1.9065e-19)
(3.65711 -0.539324 -1.01625e-19)
(3.32456 -0.40093 0)
(3.08033 -0.251116 1.47486e-19)
(2.90955 -0.115027 4.4398e-20)
(2.78205 -0.00951773 1.68252e-20)
(3.20853 -0.826476 1.12229e-19)
(4.1541 1.59151 -9.97704e-18)
(4.96191 0.389563 4.48633e-18)
(4.83321 0.570129 3.65968e-18)
(4.67207 0.135858 -2.94509e-18)
(4.30605 -0.0117904 6.99983e-19)
(3.92284 -0.0970792 -6.52697e-20)
(3.56824 -0.0894565 3.19062e-19)
(3.27787 -0.0361393 2.96966e-19)
(3.05692 0.0413482 -1.05124e-19)
(2.89042 0.117232 1.61922e-20)
(2.62843 -0.28992 -8.12011e-18)
(3.77063 1.83963 1.42591e-17)
(4.58023 0.961771 -4.04263e-18)
(4.56049 1.19017 7.18924e-18)
(4.55017 0.746125 -5.89627e-18)
(4.30026 0.5549 5.68373e-19)
(4.004 0.369355 -8.44603e-19)
(3.68645 0.274833 4.03597e-19)
(3.39848 0.238007 -2.71251e-19)
(3.15604 0.243871 7.67273e-20)
(2.9686 0.267907 -1.65748e-19)
(2.15548 0.0589029 -9.56287e-18)
(3.41751 1.9739 -1.18608e-17)
(4.18902 1.33525 9.49923e-18)
(4.22322 1.5958 6.06982e-18)
(4.30408 1.1899 -4.68652e-18)
(4.14427 1.0107 1.72594e-19)
(3.93991 0.782174 -3.78238e-19)
(3.68331 0.62911 2.08178e-19)
(3.42845 0.526028 2.87943e-19)
(3.19652 0.469097 -2.23929e-19)
(3.00405 0.437629 2.73513e-19)
(1.78276 0.294044 7.72857e-18)
(3.11491 2.04372 -1.16936e-17)
(3.83778 1.5849 1.62696e-17)
(3.89498 1.8603 -6.04536e-19)
(4.02437 1.49804 -3.82458e-18)
(3.91906 1.35147 4.96301e-19)
(3.78873 1.11303 0)
(3.59146 0.935749 3.8947e-19)
(3.38163 0.791778 2.6934e-19)
(3.17613 0.689023 -4.35738e-19)
(2.99047 0.61396 -7.6129e-20)
(1.49231 0.455066 0)
(2.852 2.08255 6.2774e-19)
(3.53192 1.75582 0)
(3.59386 2.03826 6.30973e-18)
(3.75068 1.71045 -4.42381e-18)
(3.67121 1.60031 5.92814e-19)
(3.59562 1.36454 -7.06693e-19)
(3.44508 1.18323 1.68608e-18)
(3.27933 1.01694 0)
(3.10521 0.882748 -3.33479e-19)
(2.93534 0.764841 -3.72161e-20)
(1.24446 0.574432 0)
(2.62106 2.11384 9.54653e-18)
(3.26101 1.87493 -8.24463e-18)
(3.31776 2.16476 -5.79941e-18)
(3.49477 1.85667 3.58202e-18)
(3.42081 1.78247 -3.42822e-18)
(3.3873 1.54988 9.166e-19)
(3.26922 1.37481 0)
(3.14173 1.19655 0)
(2.99731 1.04314 0)
(2.84401 0.895504 3.87887e-19)
(1.01355 0.640417 1.3054e-18)
(2.39397 2.1384 6.68437e-18)
(2.99514 1.96307 -4.50376e-18)
(3.06336 2.26003 -1.02125e-18)
(3.25467 1.95554 -2.97796e-18)
(3.17366 1.91771 2.3354e-18)
(3.17687 1.68212 4.16001e-18)
(3.07885 1.51892 -3.65051e-19)
(2.9842 1.33295 -2.41744e-18)
(2.86592 1.16766 -5.56319e-19)
(2.72978 1.00977 0)
(0.804304 0.666986 8.34843e-18)
(2.16291 2.14515 -7.20503e-18)
(2.73721 2.02393 6.40527e-18)
(2.83536 2.31634 -6.77885e-18)
(3.01603 2.02309 4.27746e-18)
(2.93476 2.01247 -2.10509e-18)
(2.96743 1.77159 -1.40036e-18)
(2.88286 1.62166 1.6051e-18)
(2.81636 1.43065 -1.86474e-19)
(2.72142 1.25703 1.35836e-18)
(2.60402 1.08733 1.37877e-18)
(0.615593 0.681647 -8.71903e-18)
(1.93059 2.1335 8.02591e-18)
(2.49556 2.05902 -1.23002e-19)
(2.614 2.34115 -3.34141e-18)
(2.774 2.07202 7.53619e-18)
(2.71014 2.06629 1.40901e-18)
(2.75838 1.82723 -3.67004e-18)
(2.68769 1.68649 -1.42432e-18)
(2.64426 1.49321 9.73902e-19)
(2.57107 1.31463 0)
(2.47677 1.12283 -6.92364e-19)
(0.424891 0.682327 4.07278e-18)
(1.68407 2.10133 -1.50929e-18)
(2.25061 2.07443 -1.13339e-18)
(2.38929 2.3366 4.40063e-18)
(2.53653 2.10105 -5.60604e-18)
(2.49618 2.0867 2.33108e-19)
(2.55011 1.85549 1.11011e-18)
(2.49704 1.71733 0)
(2.47286 1.5242 -9.04389e-19)
(2.42015 1.3445 0)
(2.34818 1.13874 -6.20937e-19)
(0.230243 0.655923 7.18625e-18)
(1.43235 2.04261 -5.3458e-18)
(2.00296 2.06427 0)
(2.16385 2.30562 -5.30193e-18)
(2.30331 2.10585 2.04084e-18)
(2.289 2.07754 1.4063e-18)
(2.34402 1.85817 0)
(2.31247 1.71692 0)
(2.30602 1.52584 0)
(2.27486 1.34684 7.33496e-19)
(2.22622 1.14111 -1.41485e-19)
(0.0388115 0.614194 -6.48026e-18)
(1.1738 1.96051 4.80606e-18)
(1.74916 2.02876 -3.21355e-18)
(1.93464 2.24985 4.9492e-18)
(2.07239 2.0851 -1.7542e-18)
(2.08478 2.03877 0)
(2.1405 1.83444 0)
(2.13439 1.68647 -4.11285e-20)
(2.14713 1.49926 1.57248e-19)
(2.14043 1.32172 5.63545e-19)
(2.12273 1.11782 -5.06303e-19)
(-0.1573 0.552517 0)
(0.898388 1.85079 3.93376e-18)
(1.48145 1.96477 -2.39615e-18)
(1.69577 2.16689 1.1015e-18)
(1.83827 2.03794 6.57898e-19)
(1.87772 1.97117 -9.6962e-19)
(1.94046 1.78106 0)
(1.96369 1.62597 -7.80444e-19)
(1.99908 1.44485 4.66814e-19)
(2.01887 1.27168 0)
(2.02878 1.07697 -2.18953e-19)
(-0.363859 0.452408 0)
(0.602129 1.69881 -3.3732e-18)
(1.1944 1.86092 1.91039e-18)
(1.43974 2.04954 -1.84832e-18)
(1.59367 1.95698 1.77887e-18)
(1.66342 1.87228 0)
(1.74385 1.69388 -2.71034e-19)
(1.80156 1.53472 0)
(1.86478 1.36336 0)
(1.91294 1.1996 6.51545e-20)
(1.95184 1.01921 -5.60328e-20)
(-0.580985 0.302288 4.38021e-18)