/*--------------------------------*- C++ -*----------------------------------*\
| =========                 |                                                 |
| \\      /  F ield         | OpenFOAM: The Open Source CFD Toolbox           |
|  \\    /   O peration     | Version:  3.0.1                                 |
|   \\  /    A nd           | Web:      www.OpenFOAM.org                      |
|    \\/     M anipulation  |                                                 |
\*---------------------------------------------------------------------------*/
FoamFile
{
    version     2.0;
    format      ascii;
    class       surfaceScalarField;
    location    "0.633984";
    object      phi;
}
// * * * * * * * * * * * * * * * * * * * * * * * * * * * * * * * * * * * * * //

dimensions      [0 3 -1 0 0 0 0];

internalField   nonuniform List<scalar> 
32369
(
-7.22112e-06
-8.80456e-06
1.60257e-05
-1.15612e-05
-1.014e-05
1.44801e-05
-1.51861e-05
-1.20999e-05
1.57249e-05
-1.89402e-05
-1.41721e-05
1.79261e-05
-2.27501e-05
-1.61709e-05
1.99808e-05
-2.65643e-05
-1.80075e-05
2.18218e-05
-3.07282e-05
-1.96829e-05
2.38468e-05
-3.54229e-05
-2.11326e-05
2.58273e-05
-4.08865e-05
-2.22424e-05
2.7706e-05
-4.73399e-05
-2.28005e-05
2.92539e-05
-2.24399e-05
3.01853e-05
-5.50854e-05
-6.16076e-06
-2.64381e-06
-1.12428e-05
-5.05796e-06
-1.58166e-05
-7.52622e-06
-2.0056e-05
-9.93269e-06
-2.41138e-05
-1.2113e-05
-2.81825e-05
-1.39388e-05
-3.25327e-05
-1.53328e-05
-3.74475e-05
-1.62177e-05
-4.32218e-05
-1.64681e-05
-5.01791e-05
-1.58432e-05
-1.39517e-05
-5.86673e-05
-3.23595e-06
5.92143e-07
-7.00717e-06
-1.28674e-06
-1.12195e-05
-3.31388e-06
-1.57019e-05
-5.45025e-06
-2.03532e-05
-7.46177e-06
-2.51634e-05
-9.12851e-06
-3.02788e-05
-1.02174e-05
-3.59344e-05
-1.05621e-05
-4.24137e-05
-9.9889e-06
-5.00171e-05
-8.23972e-06
-4.89273e-06
-5.90761e-05
-1.69878e-06
2.29092e-06
-4.2978e-06
1.31228e-06
-7.77916e-06
1.67472e-07
-1.18851e-05
-1.3443e-06
-1.64747e-05
-2.87217e-06
-2.15225e-05
-4.08066e-06
-2.70704e-05
-4.66959e-06
-3.32363e-05
-4.39617e-06
-4.0202e-05
-3.02322e-06
-4.82039e-05
-2.37859e-07
4.50095e-06
-5.75975e-05
-9.38902e-07
3.22982e-06
-2.617e-06
2.99038e-06
-5.21455e-06
2.76502e-06
-8.68355e-06
2.12471e-06
-1.29442e-05
1.38847e-06
-1.78846e-05
8.59745e-07
-2.34473e-05
8.93089e-07
-2.96922e-05
1.84878e-06
-3.68123e-05
4.0968e-06
-4.50919e-05
8.0418e-06
1.42337e-05
-5.48247e-05
-8.70504e-07
4.10033e-06
-2.20816e-06
4.32804e-06
-4.10001e-06
4.65686e-06
-6.76877e-06
4.79347e-06
-1.03168e-05
4.93646e-06
-1.47619e-05
5.30485e-06
-2.00777e-05
6.20892e-06
-2.62601e-05
8.03123e-06
-3.33713e-05
1.12079e-05
-4.1562e-05
1.62325e-05
2.38017e-05
-5.11299e-05
-8.23381e-07
4.92371e-06
-2.06435e-06
5.56901e-06
-3.7237e-06
6.31621e-06
-5.99314e-06
7.06292e-06
-9.01786e-06
7.96117e-06
-1.28974e-05
9.18438e-06
-1.76886e-05
1.10002e-05
-2.34293e-05
1.37719e-05
-3.01782e-05
1.79569e-05
-3.80343e-05
2.40886e-05
3.28803e-05
-4.71129e-05
-8.15434e-07
5.73914e-06
-1.95519e-06
6.70876e-06
-3.47193e-06
7.83294e-06
-5.49095e-06
9.08194e-06
-8.15014e-06
1.06204e-05
-1.15755e-05
1.26097e-05
-1.58699e-05
1.52946e-05
-2.11152e-05
1.90171e-05
-2.73983e-05
2.424e-05
-3.48269e-05
3.15172e-05
4.1668e-05
-4.36146e-05
-7.766e-07
6.51574e-06
-1.85287e-06
7.78503e-06
-3.25138e-06
9.23146e-06
-5.08524e-06
1.09158e-05
-7.47218e-06
1.30073e-05
-1.05386e-05
1.56761e-05
-1.44035e-05
1.91595e-05
-1.91788e-05
2.37924e-05
-2.49694e-05
3.00306e-05
-3.19342e-05
3.84821e-05
4.99977e-05
-4.02639e-05
-6.71196e-07
7.18694e-06
-1.64434e-06
8.75817e-06
-2.92022e-06
1.05073e-05
-4.5905e-06
1.25861e-05
-6.75545e-06
1.51723e-05
-9.53102e-06
1.84517e-05
-1.30405e-05
2.2669e-05
-1.74039e-05
2.81557e-05
-2.27597e-05
3.53864e-05
-2.92551e-05
4.49775e-05
5.77654e-05
-3.70229e-05
-5.75041e-07
7.76198e-06
-1.44732e-06
9.63045e-06
-2.60103e-06
1.16611e-05
-4.11317e-06
1.40982e-05
-6.07636e-06
1.71354e-05
-8.59599e-06
2.09713e-05
-1.17866e-05
2.58596e-05
-1.57749e-05
3.21441e-05
-2.07006e-05
4.03121e-05
-2.67317e-05
5.10086e-05
6.50441e-05
-3.40103e-05
-5.61562e-07
8.32354e-06
-1.37072e-06
1.04396e-05
-2.42026e-06
1.27106e-05
-3.7876e-06
1.54656e-05
-5.55512e-06
1.8903e-05
-7.82458e-06
2.32408e-05
-1.07066e-05
2.87416e-05
-1.43223e-05
3.57598e-05
-1.8815e-05
4.48047e-05
-2.43438e-05
5.65375e-05
7.1798e-05
-3.10977e-05
-5.0976e-07
8.8333e-06
-1.23063e-06
1.11605e-05
-2.16752e-06
1.36475e-05
-3.38588e-06
1.66839e-05
-4.96462e-06
2.04817e-05
-6.99493e-06
2.52711e-05
-9.58444e-06
3.13311e-05
-1.28536e-05
3.90289e-05
-1.6923e-05
4.88742e-05
-2.19648e-05
6.15793e-05
7.80349e-05
-2.82017e-05
-3.63096e-07
9.1964e-06
-9.44497e-07
1.17419e-05
-1.73774e-06
1.44407e-05
-2.79272e-06
1.77389e-05
-4.1769e-06
2.18659e-05
-5.96997e-06
2.70642e-05
-8.26472e-06
3.36259e-05
-1.11732e-05
4.19374e-05
-1.48143e-05
5.25152e-05
-1.93236e-05
6.60885e-05
8.36027e-05
-2.48914e-05
-3.19045e-07
9.51545e-06
-7.98347e-07
1.22212e-05
-1.44808e-06
1.50905e-05
-2.32555e-06
1.86164e-05
-3.48549e-06
2.30258e-05
-5.0029e-06
2.85816e-05
-6.96777e-06
3.55907e-05
-9.46543e-06
4.44351e-05
-1.25969e-05
5.56467e-05
-1.65041e-05
6.99958e-05
8.8396e-05
-2.12974e-05
-2.3813e-07
9.75357e-06
-5.86175e-07
1.25692e-05
-1.07209e-06
1.55764e-05
-1.7387e-06
1.9283e-05
-2.64964e-06
2.39368e-05
-3.86532e-06
2.97973e-05
-5.45598e-06
3.71814e-05
-7.49516e-06
4.64743e-05
-1.00606e-05
5.82121e-05
-1.32093e-05
7.31445e-05
9.22624e-05
-1.70758e-05
-6.32327e-08
9.81681e-06
-2.08163e-07
1.27142e-05
-4.77459e-07
1.58457e-05
-9.01005e-07
1.97065e-05
-1.51959e-06
2.45554e-05
-2.39356e-06
3.06712e-05
-3.56829e-06
3.83561e-05
-5.08242e-06
4.79884e-05
-6.95996e-06
6.00896e-05
-9.24803e-06
7.54326e-05
9.50548e-05
-1.20404e-05
7.22081e-08
9.7446e-06
1.3291e-07
1.26535e-05
1.10551e-07
1.5868e-05
-2.00698e-08
1.98371e-05
-2.98648e-07
2.48339e-05
-7.6163e-07
3.11342e-05
-1.42474e-06
3.90192e-05
-2.28603e-06
4.88497e-05
-3.33097e-06
6.11346e-05
-4.56317e-06
7.66648e-05
9.6464e-05
-5.97241e-06
2.35386e-07
9.50921e-06
5.46218e-07
1.23426e-05
8.11238e-07
1.5603e-05
1.01901e-06
1.96294e-05
1.14317e-06
2.47098e-05
1.17369e-06
3.11037e-05
1.13845e-06
3.90545e-05
1.09337e-06
4.88948e-05
1.1142e-06
6.11138e-05
1.26645e-06
7.65126e-05
9.6201e-05
1.52945e-06
4.36035e-07
9.07318e-06
1.0415e-06
1.17372e-05
1.64268e-06
1.50018e-05
2.2349e-06
1.90371e-05
2.82074e-06
2.41239e-05
3.44136e-06
3.04831e-05
4.18515e-06
3.83107e-05
5.18114e-06
4.78988e-05
6.55147e-06
5.97434e-05
8.4238e-06
7.46402e-05
9.37134e-05
1.09114e-05
6.5959e-07
8.41359e-06
1.58887e-06
1.08079e-05
2.53939e-06
1.40513e-05
3.55233e-06
1.80242e-05
4.6731e-06
2.30032e-05
6.01907e-06
2.91371e-05
7.75875e-06
3.6571e-05
1.00687e-05
4.55888e-05
1.31214e-05
5.66907e-05
1.71067e-05
7.06549e-05
8.85686e-05
2.22516e-05
8.36731e-07
7.57686e-06
2.01215e-06
9.63245e-06
3.30789e-06
1.27556e-05
4.75711e-06
1.6575e-05
6.51011e-06
2.12502e-05
8.77799e-06
2.68692e-05
1.17746e-05
3.35744e-05
1.56958e-05
4.16677e-05
2.07595e-05
5.1627e-05
2.72227e-05
6.41917e-05
8.03939e-05
3.53975e-05
7.36156e-07
6.8407e-06
2.2569e-06
8.11171e-06
3.65415e-06
1.13583e-05
5.52379e-06
1.47053e-05
8.0689e-06
1.87051e-05
1.14999e-05
2.34382e-05
1.59931e-05
2.90812e-05
2.17584e-05
3.59024e-05
2.90481e-05
4.43373e-05
3.82212e-05
5.50186e-05
6.88674e-05
4.97477e-05
-2.73557e-06
9.57627e-06
-1.52636e-06
6.9025e-06
9.92201e-07
8.83976e-06
4.22641e-06
1.14711e-05
8.33186e-06
1.45996e-05
1.34697e-05
1.83004e-05
1.97836e-05
2.27673e-05
2.75287e-05
2.81572e-05
3.70872e-05
3.47788e-05
4.89619e-05
4.31438e-05
5.40345e-05
6.37949e-05
5.54002e-06
1.04857e-05
8.1137e-06
1.19064e-05
7.25354e-06
1.6585e-05
4.15027e-06
2.10294e-05
-5.87474e-07
2.47185e-05
-6.50488e-06
2.77392e-05
-1.31085e-05
3.04505e-05
-2.00985e-05
3.28172e-05
-2.78152e-05
3.54228e-05
-3.63944e-05
3.78331e-05
3.97482e-05
-4.59573e-05
7.08349e-06
3.40217e-06
1.12848e-05
7.70514e-06
1.35665e-05
1.43034e-05
1.40073e-05
2.05885e-05
1.20412e-05
2.66846e-05
7.49085e-06
3.22895e-05
8.49626e-07
3.70917e-05
-7.09206e-06
4.07589e-05
-1.57564e-05
4.40871e-05
-2.53516e-05
4.74282e-05
5.0532e-05
-3.61353e-05
4.91292e-06
-1.51074e-06
8.77586e-06
3.8422e-06
1.25968e-05
1.04824e-05
1.51871e-05
1.79982e-05
1.57626e-05
2.61091e-05
1.38236e-05
3.42285e-05
9.28101e-06
4.16343e-05
2.42476e-06
4.76151e-05
-5.81411e-06
5.2326e-05
-1.50026e-05
5.66167e-05
6.08712e-05
-2.53418e-05
2.42506e-06
-3.9358e-06
6.80732e-06
-5.40057e-07
1.11752e-05
6.11455e-06
1.47793e-05
1.43941e-05
1.70226e-05
2.38659e-05
1.72616e-05
3.39895e-05
1.50137e-05
4.38822e-05
1.01356e-05
5.24932e-05
3.16593e-06
5.92957e-05
-5.03349e-06
6.48161e-05
6.99717e-05
-1.4134e-05
9.46606e-07
-4.88241e-06
4.1314e-06
-3.72485e-06
9.05287e-06
1.19308e-06
1.36866e-05
9.76032e-06
1.72802e-05
2.02723e-05
1.92434e-05
3.20262e-05
1.901e-05
4.41156e-05
1.61971e-05
5.53061e-05
1.09623e-05
6.45305e-05
4.02186e-06
7.17565e-05
7.78708e-05
-3.87725e-06
1.04396e-06
-5.92636e-06
2.69069e-06
-5.37159e-06
6.7521e-06
-2.86832e-06
1.19844e-05
4.52807e-06
1.67647e-05
1.5492e-05
2.02279e-05
2.85631e-05
2.17444e-05
4.25991e-05
2.08364e-05
5.6214e-05
1.74087e-05
6.79582e-05
1.2004e-05
7.71613e-05
8.43978e-05
5.47709e-06
1.13231e-06
-7.05868e-06
2.58871e-06
-6.82798e-06
5.23168e-06
-5.51129e-06
1.0183e-05
-4.2323e-07
1.56568e-05
1.00182e-05
2.0319e-05
2.39009e-05
2.33365e-05
3.95816e-05
2.4123e-05
5.54276e-05
2.24301e-05
6.96511e-05
1.85442e-05
8.10472e-05
8.95141e-05
1.34278e-05
1.18666e-06
-8.24534e-06
2.68102e-06
-8.32234e-06
4.71252e-06
-7.5428e-06
8.58688e-06
-4.29759e-06
1.4078e-05
4.527e-06
1.95556e-05
1.84234e-05
2.37765e-05
3.53606e-05
2.60305e-05
5.31736e-05
2.59598e-05
6.97218e-05
2.36569e-05
8.335e-05
9.36063e-05
1.95647e-05
1.17439e-06
-9.41973e-06
2.71529e-06
-9.86323e-06
4.68603e-06
-9.51354e-06
7.56648e-06
-7.17804e-06
1.24996e-05
-4.06129e-07
1.81985e-05
1.27245e-05
2.32492e-05
3.031e-05
2.66958e-05
4.9727e-05
2.81071e-05
6.83105e-05
2.75523e-05
8.39049e-05
9.55046e-05
2.5654e-05
1.10907e-06
-1.05288e-05
2.55256e-06
-1.13067e-05
4.39421e-06
-1.13552e-05
6.8556e-06
-9.63942e-06
1.09074e-05
-4.45797e-06
1.63521e-05
7.27985e-06
2.18235e-05
2.48385e-05
2.61481e-05
4.54024e-05
2.88193e-05
6.56393e-05
2.98217e-05
8.29025e-05
9.57907e-05
2.95356e-05
8.16146e-07
-1.13449e-05
2.12774e-06
-1.26183e-05
3.80874e-06
-1.30362e-05
6.04902e-06
-1.18797e-05
9.31882e-06
-7.72778e-06
1.41787e-05
2.41998e-06
1.96118e-05
1.94053e-05
2.44629e-05
4.05514e-05
2.8155e-05
6.19471e-05
3.06858e-05
8.03717e-05
9.42009e-05
3.22757e-05
6.87743e-07
-1.20327e-05
1.72734e-06
-1.36579e-05
2.98816e-06
-1.4297e-05
4.80659e-06
-1.36981e-05
7.45158e-06
-1.03728e-05
1.15665e-05
-1.69498e-06
1.6546e-05
1.44259e-05
2.1547e-05
3.55503e-05
2.60615e-05
5.74326e-05
3.00812e-05
7.6352e-05
9.02396e-05
3.40425e-05
4.14775e-07
-1.24475e-05
1.00566e-06
-1.42488e-05
1.85022e-06
-1.51416e-05
3.06255e-06
-1.49105e-05
4.99724e-06
-1.23075e-05
8.27084e-06
-4.96859e-06
1.26392e-05
1.00575e-05
1.75934e-05
3.05962e-05
2.27309e-05
5.22951e-05
2.8068e-05
7.10148e-05
8.45688e-05
3.37388e-05
5.84049e-08
-1.25059e-05
2.04569e-07
-1.4395e-05
4.82495e-07
-1.54195e-05
1.00171e-06
-1.54297e-05
2.05104e-06
-1.33568e-05
4.38033e-06
-7.29787e-06
8.19089e-06
6.24697e-06
1.29232e-05
2.58639e-05
1.85142e-05
4.6704e-05
2.5234e-05
6.42951e-05
7.6982e-05
3.28208e-05
-2.48631e-07
-1.22572e-05
-5.90983e-07
-1.40526e-05
-9.41447e-07
-1.5069e-05
-1.2414e-06
-1.51297e-05
-1.24816e-06
-1.335e-05
-2.32598e-07
-8.31344e-06
3.01188e-06
3.00249e-06
7.78138e-06
2.10944e-05
1.40823e-05
4.0403e-05
2.18141e-05
5.65633e-05
6.73945e-05
3.14017e-05
-6.07107e-07
-1.16501e-05
-1.47779e-06
-1.31819e-05
-2.49228e-06
-1.40546e-05
-3.60236e-06
-1.40196e-05
-4.5947e-06
-1.23577e-05
-4.93274e-06
-7.9754e-06
-2.78765e-06
8.57407e-07
2.19824e-06
1.61085e-05
8.98008e-06
3.36212e-05
1.82164e-05
4.73269e-05
5.53231e-05
3.02878e-05
-1.02339e-06
-1.06267e-05
-2.46426e-06
-1.17411e-05
-4.17431e-06
-1.23445e-05
-6.09592e-06
-1.2098e-05
-7.95979e-06
-1.04938e-05
-9.11947e-06
-6.81572e-06
-8.23427e-06
-2.77917e-08
-3.43949e-06
1.13137e-05
4.28894e-06
2.58928e-05
1.43639e-05
3.7252e-05
4.24703e-05
2.72167e-05
-1.46304e-06
-9.1637e-06
-3.47578e-06
-9.72832e-06
-5.90898e-06
-9.91131e-06
-8.65141e-06
-9.35559e-06
-1.13348e-05
-7.81043e-06
-1.31964e-05
-4.9541e-06
-1.29475e-05
-2.76741e-07
-8.79568e-06
7.16195e-06
-3.70941e-07
1.7468e-05
1.07378e-05
2.61433e-05
2.84494e-05
2.47587e-05
-1.93018e-06
-7.23352e-06
-4.5582e-06
-7.10029e-06
-7.77347e-06
-6.69604e-06
-1.13519e-05
-5.77716e-06
-1.47883e-05
-4.37399e-06
-1.72193e-05
-2.52312e-06
-1.73561e-05
-1.39923e-07
-1.36386e-05
3.44442e-06
-5.06074e-06
8.89017e-06
6.83465e-06
1.42479e-05
1.44445e-05
2.08396e-05
-2.57789e-06
-4.65564e-06
-5.96687e-06
-3.71131e-06
-1.00648e-05
-2.59808e-06
-1.44359e-05
-1.40605e-06
-1.84345e-05
-3.75423e-07
-2.11492e-05
1.91591e-07
-2.14273e-05
1.38203e-07
-1.78955e-05
-8.73824e-08
-9.54062e-06
5.35257e-07
2.72373e-06
1.98351e-06
-4.78494e-07
1.76467e-05
-3.79288e-06
-8.62756e-07
-7.78806e-06
2.83866e-07
-1.17142e-05
1.32808e-06
-1.5215e-05
2.09472e-06
-1.77112e-05
2.12082e-06
-1.8064e-05
5.44344e-07
-1.5433e-05
-2.49279e-06
-9.62057e-06
-5.8998e-06
-7.27056e-08
-9.0126e-06
1.32842e-05
-1.13734e-05
-1.51084e-05
2.79142e-05
-3.76568e-06
2.90292e-06
-5.40111e-06
1.9193e-06
-6.15883e-06
2.0858e-06
-5.16451e-06
1.10039e-06
-1.50583e-06
-1.53786e-06
5.11651e-06
-6.078e-06
1.29387e-05
-1.0315e-05
2.15632e-05
-1.45243e-05
3.15164e-05
-1.89658e-05
4.41435e-05
-2.40005e-05
-3.0596e-05
5.96311e-05
1.07229e-06
1.83063e-06
3.66765e-06
-6.7605e-07
8.3425e-06
-2.58906e-06
1.49217e-05
-5.47875e-06
2.24112e-05
-9.0274e-06
2.93867e-05
-1.30535e-05
3.65058e-05
-1.74341e-05
4.42681e-05
-2.22866e-05
5.32251e-05
-2.79228e-05
6.40467e-05
-3.4822e-05
-4.37413e-05
7.71919e-05
1.14069e-05
1.76334e-05
2.38841e-05
2.98764e-05
3.54486e-05
4.06955e-05
4.60288e-05
5.18994e-05
5.87554e-05
6.70771e-05
7.73704e-05
-9.30259e-06
1.90029e-05
-9.70032e-06
-1.64923e-05
1.71724e-05
-9.98268e-06
-2.50847e-05
1.95796e-05
-1.09872e-05
-3.35467e-05
2.05492e-05
-1.20873e-05
-4.21143e-05
2.24883e-05
-1.39207e-05
-5.10211e-05
2.53306e-05
-1.64239e-05
-6.07521e-05
2.93872e-05
-1.96561e-05
-7.17325e-05
3.47777e-05
-2.37973e-05
-8.44316e-05
4.18527e-05
-2.91537e-05
-9.93678e-05
5.1073e-05
-3.61368e-05
6.31113e-05
-4.52503e-05
-0.000117229
1.25369e-07
1.88775e-05
-1.19776e-06
1.84955e-05
-6.89799e-06
2.52798e-05
-1.38399e-05
2.74911e-05
-2.23716e-05
3.102e-05
-3.18409e-05
3.47999e-05
-4.23598e-05
3.99061e-05
-5.4304e-05
4.67219e-05
-6.80975e-05
5.56462e-05
-8.4267e-05
6.72425e-05
8.22418e-05
-0.000103397
1.35051e-06
1.7527e-05
7.40544e-07
1.91055e-05
-1.9548e-06
2.79752e-05
-5.97122e-06
3.15075e-05
-1.24078e-05
3.74566e-05
-2.04124e-05
4.28045e-05
-2.99913e-05
4.94851e-05
-4.10905e-05
5.78211e-05
-5.40679e-05
6.86236e-05
-6.93678e-05
8.25424e-05
0.000100542
-8.7668e-05
9.94974e-07
1.65321e-05
1.00403e-07
2e-05
-1.13304e-06
2.92086e-05
-3.51135e-06
3.38858e-05
-7.85258e-06
4.17978e-05
-1.36625e-05
4.86144e-05
-2.12795e-05
5.7102e-05
-3.05793e-05
6.7121e-05
-4.16962e-05
7.97405e-05
-5.49248e-05
9.57709e-05
0.000116256
-7.06384e-05
8.07767e-07
1.57243e-05
-1.5792e-07
2.09657e-05
-8.99996e-07
2.99507e-05
-2.60638e-06
3.55922e-05
-5.42278e-06
4.46142e-05
-9.38782e-06
5.25795e-05
-1.49905e-05
6.27047e-05
-2.21865e-05
7.4317e-05
-3.10851e-05
8.86391e-05
-4.18874e-05
0.000106573
0.00012928
-5.49117e-05
8.80004e-07
1.48443e-05
3.02477e-07
2.15433e-05
-6.24676e-08
3.03156e-05
-1.41397e-06
3.69437e-05
-3.27773e-06
4.6478e-05
-6.00206e-06
5.53038e-05
-9.98779e-06
6.66904e-05
-1.52524e-05
7.95816e-05
-2.20643e-05
9.54509e-05
-3.05042e-05
0.000115013
0.000139571
-4.07955e-05
9.63735e-07
1.38805e-05
8.27045e-07
2.16799e-05
8.3635e-07
3.03063e-05
-9.70059e-08
3.78771e-05
-1.25355e-06
4.76345e-05
-3.13698e-06
5.71872e-05
-5.87243e-06
6.94259e-05
-9.58473e-06
8.32939e-05
-1.45321e-05
0.000100398
-2.0877e-05
0.000121358
0.000147523
-2.88283e-05
9.24617e-07
1.29559e-05
1.11445e-06
2.14901e-05
1.42507e-06
2.99957e-05
9.08691e-07
3.83935e-05
3.47863e-07
4.81954e-05
-8.50881e-07
5.8386e-05
-2.54343e-06
7.11184e-05
-4.97812e-06
8.57286e-05
-8.32368e-06
0.000103744
-1.27169e-05
0.000125751
0.000153147
-1.83414e-05
9.05668e-07
1.20503e-05
1.44121e-06
2.09546e-05
2.02355e-06
2.94134e-05
1.94192e-06
3.84751e-05
1.87446e-06
4.82628e-05
1.27828e-06
5.89821e-05
4.40781e-07
7.19559e-05
-9.3731e-07
8.71067e-05
-2.90971e-06
0.000105716
-5.64373e-06
0.000128485
0.000156775
-9.27145e-06
1.11852e-06
1.09317e-05
2.07353e-06
1.99996e-05
2.98217e-06
2.85047e-05
3.3689e-06
3.80884e-05
3.73235e-06
4.78994e-05
3.67273e-06
5.90418e-05
3.52492e-06
7.21037e-05
3.00477e-06
8.76269e-05
2.14291e-06
0.000106578
7.84875e-07
0.000129843
0.000158803
-1.24349e-06
1.27122e-06
9.66052e-06
2.5643e-06
1.87065e-05
3.80983e-06
2.72592e-05
4.6818e-06
3.72164e-05
5.4577e-06
4.71235e-05
5.94756e-06
5.85519e-05
6.4162e-06
7.16351e-05
6.69295e-06
8.73501e-05
6.83542e-06
0.000106436
6.75022e-06
0.000129928
0.000159153
6.40027e-06
1.23308e-06
8.42744e-06
2.72977e-06
1.72098e-05
4.23405e-06
2.57549e-05
5.5433e-06
3.59071e-05
6.75688e-06
4.59099e-05
7.80937e-06
5.74994e-05
8.90346e-06
7.0541e-05
9.98229e-06
8.62713e-05
1.11265e-05
0.000105292
1.22932e-05
0.000128762
0.000157968
1.34781e-05
1.2445e-06
7.18294e-06
2.94047e-06
1.55138e-05
4.73245e-06
2.39629e-05
6.49179e-06
3.41478e-05
8.15376e-06
4.42479e-05
9.76709e-06
5.58861e-05
1.14714e-05
6.88367e-05
1.33117e-05
8.4431e-05
1.53905e-05
0.000103213
1.77424e-05
0.00012641
0.00015535
2.0361e-05
1.35928e-06
5.82366e-06
3.26685e-06
1.36062e-05
5.38411e-06
2.18457e-05
7.60922e-06
3.19227e-05
9.76695e-06
4.20902e-05
1.19552e-05
5.36978e-05
1.4271e-05
6.65209e-05
1.6852e-05
8.185e-05
1.98215e-05
0.000100243
2.3293e-05
0.000122938
0.000151238
2.74042e-05
1.2738e-06
4.54986e-06
3.22692e-06
1.16531e-05
5.56874e-06
1.95039e-05
8.20664e-06
2.92848e-05
1.08889e-05
3.9408e-05
1.37143e-05
5.08724e-05
1.67409e-05
6.34943e-05
2.01592e-05
7.84316e-05
2.41281e-05
9.62743e-05
2.88272e-05
0.000118239
0.000145667
3.43987e-05
1.16957e-06
3.38029e-06
3.11759e-06
9.70511e-06
5.65533e-06
1.69661e-05
8.69109e-06
2.6249e-05
1.19208e-05
3.61783e-05
1.54268e-05
4.73664e-05
1.92361e-05
5.96851e-05
2.3566e-05
7.41017e-05
2.86086e-05
9.12316e-05
3.46032e-05
0.000112245
0.000138456
4.18144e-05
1.08828e-06
2.29201e-06
3.01385e-06
7.77954e-06
5.73221e-06
1.42478e-05
9.13905e-06
2.28422e-05
1.29471e-05
3.23702e-05
1.71791e-05
4.31344e-05
2.18559e-05
5.50083e-05
2.71923e-05
6.87653e-05
3.3393e-05
8.50309e-05
4.07363e-05
0.000104902
0.000129657
4.95348e-05
8.95552e-07
1.39646e-06
2.66942e-06
6.00567e-06
5.42737e-06
1.14898e-05
9.13902e-06
1.91305e-05
1.35038e-05
2.80055e-05
1.8517e-05
3.81211e-05
2.418e-05
4.93453e-05
3.06863e-05
6.22589e-05
3.82483e-05
7.7469e-05
4.71784e-05
9.59714e-05
0.000119025
5.781e-05
6.80703e-07
7.15756e-07
2.25157e-06
4.4348e-06
4.93887e-06
8.80252e-06
8.81558e-06
1.52538e-05
1.36685e-05
2.31526e-05
1.94705e-05
3.23191e-05
2.62164e-05
4.25994e-05
3.40555e-05
5.44199e-05
4.31791e-05
6.83455e-05
5.39013e-05
8.52492e-05
0.000106232
6.66947e-05
4.91743e-07
2.24012e-07
1.82945e-06
3.09709e-06
4.28924e-06
6.34274e-06
8.14046e-06
1.14026e-05
1.33323e-05
1.79608e-05
1.98768e-05
2.57745e-05
2.77405e-05
3.47357e-05
3.70104e-05
4.51499e-05
4.78512e-05
5.75047e-05
6.05756e-05
7.25249e-05
9.11151e-05
7.56924e-05
4.07276e-07
-1.83264e-07
1.40046e-06
2.1039e-06
3.43131e-06
4.31189e-06
6.9783e-06
7.85561e-06
1.22814e-05
1.26577e-05
1.93998e-05
1.86561e-05
2.82778e-05
2.58576e-05
3.89291e-05
3.44986e-05
5.15002e-05
4.49335e-05
6.62924e-05
5.77327e-05
7.35962e-05
8.38114e-05
2.01579e-08
-2.03422e-07
6.38546e-07
1.48551e-06
2.16516e-06
2.78528e-06
5.2624e-06
4.75837e-06
1.04042e-05
7.51592e-06
1.77236e-05
1.13367e-05
2.71738e-05
1.64075e-05
3.88087e-05
2.28637e-05
5.28034e-05
3.09389e-05
6.95145e-05
4.10215e-05
5.33314e-05
8.97793e-05
-1.26467e-07
-7.69552e-08
1.43346e-07
1.2157e-06
1.37224e-06
1.55638e-06
4.03985e-06
2.09076e-06
8.5081e-06
3.04768e-06
1.50607e-05
4.78407e-06
2.38927e-05
7.57544e-06
3.52699e-05
1.14865e-05
4.94854e-05
1.67234e-05
6.67801e-05
2.37269e-05
3.26582e-05
8.74532e-05
-1.85144e-07
1.08189e-07
1.95321e-06
-9.22654e-07
4.40033e-06
-8.90742e-07
7.01153e-06
-5.20445e-07
1.02502e-05
-1.9094e-07
1.47985e-05
2.35709e-07
2.13568e-05
1.01718e-06
3.05274e-05
2.31586e-06
4.28088e-05
4.44197e-06
5.87266e-05
7.80913e-06
1.32569e-05
7.81279e-05
-1.42434e-05
4.54313e-06
-2.61873e-05
1.96116e-06
-3.65333e-05
-6.41145e-07
-4.50936e-05
-3.52695e-06
-5.31414e-05
-5.87293e-06
-6.15118e-05
-8.05347e-06
-7.0809e-05
-1.03588e-05
-8.14692e-05
-1.31372e-05
-9.38755e-05
-1.67474e-05
-0.000108461
-2.15514e-05
-2.80468e-05
-0.000125664
-5.89429e-06
1.04374e-05
-1.24169e-05
8.48376e-06
-2.12101e-05
8.15209e-06
-3.0782e-05
6.04489e-06
-4.06831e-05
4.02824e-06
-5.09054e-05
2.16883e-06
-6.17728e-05
5.08517e-07
-7.38737e-05
-1.03628e-06
-8.78285e-05
-2.79261e-06
-0.000104202
-5.17757e-06
-8.61665e-06
-0.000123632
-2.49412e-06
1.29315e-05
-6.01628e-06
1.20059e-05
-1.20627e-05
1.41985e-05
-1.98025e-05
1.37847e-05
-2.90545e-05
1.32802e-05
-3.94422e-05
1.25566e-05
-5.09786e-05
1.20449e-05
-6.38686e-05
1.18537e-05
-7.85162e-05
1.1855e-05
-9.54533e-05
1.17595e-05
1.1182e-05
-0.000115252
-1.60524e-06
1.45368e-05
-4.52569e-06
1.49264e-05
-8.91968e-06
1.85925e-05
-1.47312e-05
1.95962e-05
-2.23829e-05
2.09319e-05
-3.15264e-05
2.17001e-05
-4.21548e-05
2.26734e-05
-5.42659e-05
2.39648e-05
-6.80954e-05
2.56845e-05
-8.4049e-05
2.77131e-05
2.9788e-05
-0.000102655
-1.43375e-06
1.59705e-05
-4.15279e-06
1.76454e-05
-7.52925e-06
2.1969e-05
-1.20275e-05
2.40945e-05
-1.80875e-05
2.69918e-05
-2.57237e-05
2.93363e-05
-3.49355e-05
3.18852e-05
-4.57051e-05
3.47344e-05
-5.81459e-05
3.81253e-05
-7.24676e-05
4.20348e-05
4.63053e-05
-8.89849e-05
-1.25616e-06
1.72267e-05
-3.73509e-06
2.01244e-05
-6.53973e-06
2.47736e-05
-1.01868e-05
2.77415e-05
-1.50924e-05
3.18975e-05
-2.12421e-05
3.54859e-05
-2.89222e-05
3.95653e-05
-3.81208e-05
4.3933e-05
-4.88949e-05
4.88994e-05
-6.1371e-05
5.45109e-05
6.06395e-05
-7.57052e-05
-1.04357e-06
1.82702e-05
-3.20195e-06
2.22827e-05
-5.56746e-06
2.71391e-05
-8.56968e-06
3.07438e-05
-1.25361e-05
3.58639e-05
-1.75489e-05
4.04987e-05
-2.38383e-05
4.58548e-05
-3.14921e-05
5.15867e-05
-4.05925e-05
5.79998e-05
-5.1238e-05
6.51564e-05
7.30075e-05
-6.3606e-05
-9.76275e-07
1.92465e-05
-2.81552e-06
2.4122e-05
-4.78032e-06
2.91039e-05
-7.39582e-06
3.33593e-05
-1.05033e-05
3.89714e-05
-1.45169e-05
4.45123e-05
-1.95549e-05
5.08928e-05
-2.57473e-05
5.77791e-05
-3.32143e-05
6.54668e-05
-4.20305e-05
7.39726e-05
8.32962e-05
-5.23191e-05
-8.21281e-07
2.00678e-05
-2.41854e-06
2.57192e-05
-3.84936e-06
3.05347e-05
-6.0243e-06
3.55342e-05
-8.512e-06
4.14591e-05
-1.16987e-05
4.7699e-05
-1.56427e-05
5.48368e-05
-2.05147e-05
6.26511e-05
-2.64328e-05
7.13849e-05
-3.35273e-05
8.10671e-05
9.17215e-05
-4.19527e-05
-6.1761e-07
2.06854e-05
-1.84991e-06
2.69515e-05
-3.03822e-06
3.1723e-05
-4.66014e-06
3.71561e-05
-6.51968e-06
4.33187e-05
-8.92557e-06
5.01049e-05
-1.18825e-05
5.77937e-05
-1.55376e-05
6.63062e-05
-1.99984e-05
7.58457e-05
-2.53718e-05
8.64405e-05
9.81022e-05
-3.17525e-05
-3.42622e-07
2.1028e-05
-1.11593e-06
2.77248e-05
-1.89759e-06
3.25047e-05
-3.05723e-06
3.83158e-05
-4.32662e-06
4.45881e-05
-6.0053e-06
5.17836e-05
-8.04322e-06
5.98316e-05
-1.05808e-05
6.88437e-05
-1.36685e-05
7.89335e-05
-1.73837e-05
9.01557e-05
0.000102562
-2.1844e-05
-1.33312e-07
2.11613e-05
-6.02975e-07
2.81945e-05
-9.85852e-07
3.28876e-05
-1.64488e-06
3.89748e-05
-2.31589e-06
4.52591e-05
-3.25165e-06
5.27193e-05
-4.37296e-06
6.0953e-05
-5.78062e-06
7.02514e-05
-7.49297e-06
8.06458e-05
-9.53272e-06
9.21954e-05
0.00010491
-1.18799e-05
1.18963e-07
2.10424e-05
1.31022e-08
2.83004e-05
1.11214e-08
3.28895e-05
-1.40272e-07
3.91262e-05
-2.16033e-07
4.53348e-05
-4.16651e-07
5.29199e-05
-6.24854e-07
6.11612e-05
-9.31309e-07
7.05579e-05
-1.28198e-06
8.09965e-05
-1.66996e-06
9.25834e-05
0.000105204
-1.96391e-06
4.82142e-07
2.05602e-05
8.16476e-07
2.7966e-05
1.22649e-06
3.24795e-05
1.59649e-06
3.87562e-05
2.11314e-06
4.48182e-05
2.6467e-06
5.23864e-05
3.32518e-06
6.04827e-05
4.10898e-06
6.97741e-05
5.07834e-06
8.00271e-05
6.29667e-06
9.13651e-05
0.000103641
7.85895e-06
7.05431e-07
1.98548e-05
1.4193e-06
2.72522e-05
2.26323e-06
3.16356e-05
3.19721e-06
3.78222e-05
4.33088e-06
4.36845e-05
5.66064e-06
5.10566e-05
7.26806e-06
5.88753e-05
9.19492e-06
6.78472e-05
1.15339e-05
7.76882e-05
1.43859e-05
8.85131e-05
0.000100111
1.79157e-05
9.64841e-07
1.889e-05
2.10327e-06
2.61137e-05
3.39304e-06
3.03458e-05
4.90875e-06
3.63065e-05
6.69284e-06
4.19004e-05
8.84663e-06
4.89028e-05
1.14207e-05
5.63012e-05
1.45171e-05
6.47508e-05
1.82466e-05
7.39587e-05
2.27489e-05
8.40107e-05
9.46434e-05
2.82171e-05
1.28435e-06
1.76056e-05
2.87663e-06
2.45215e-05
4.6581e-06
2.85644e-05
6.79617e-06
3.41684e-05
9.27103e-06
3.94256e-05
1.22794e-05
4.58945e-05
1.58587e-05
5.27219e-05
2.0169e-05
6.04405e-05
2.53133e-05
6.88145e-05
3.14898e-05
7.78342e-05
8.72283e-05
3.89048e-05
1.5884e-06
1.60172e-05
3.65144e-06
2.24584e-05
5.96428e-06
2.62515e-05
8.76511e-06
3.13676e-05
1.19899e-05
3.62008e-05
1.59172e-05
4.19672e-05
2.05625e-05
4.80766e-05
2.61201e-05
5.48828e-05
3.27624e-05
6.21722e-05
4.06582e-05
6.99384e-05
7.78238e-05
5.00627e-05
1.89695e-06
1.41203e-05
4.43143e-06
1.99239e-05
7.32258e-06
2.33604e-05
1.08265e-05
2.78637e-05
1.48858e-05
3.21415e-05
1.97828e-05
3.70701e-05
2.5572e-05
4.22875e-05
3.24688e-05
4.7986e-05
4.06157e-05
5.40252e-05
5.02588e-05
6.02953e-05
6.64888e-05
6.15938e-05
2.22803e-06
1.18922e-05
5.25275e-06
1.68992e-05
8.74853e-06
1.98646e-05
1.30075e-05
2.36047e-05
1.79601e-05
2.7189e-05
2.38802e-05
3.11499e-05
3.08544e-05
3.53133e-05
3.90897e-05
3.97507e-05
4.87864e-05
4.43285e-05
6.01905e-05
4.88912e-05
5.30414e-05
7.36379e-05
2.57155e-06
9.32068e-06
6.05788e-06
1.34129e-05
1.01876e-05
1.57349e-05
1.52227e-05
1.85696e-05
2.11007e-05
2.1311e-05
2.80542e-05
2.41964e-05
3.62048e-05
2.71627e-05
4.57652e-05
3.01903e-05
5.69595e-05
3.31341e-05
7.00762e-05
3.57746e-05
3.77047e-05
8.54129e-05
2.85207e-06
6.46861e-06
6.79724e-06
9.46772e-06
1.15313e-05
1.10009e-05
1.72861e-05
1.28147e-05
2.40288e-05
1.45683e-05
3.19306e-05
1.62946e-05
4.11414e-05
1.79519e-05
5.18845e-05
1.94472e-05
6.44211e-05
2.05975e-05
7.90456e-05
2.115e-05
2.065e-05
9.61003e-05
3.48677e-06
2.98183e-06
7.78732e-06
5.16717e-06
1.28985e-05
5.88972e-06
1.90831e-05
6.63008e-06
2.6362e-05
7.28944e-06
3.48747e-05
7.78193e-06
4.48017e-05
8.02492e-06
5.63991e-05
7.84979e-06
6.99203e-05
7.07634e-06
8.55878e-05
5.48257e-06
2.75457e-06
0.000103483
3.09002e-06
7.33454e-06
1.23335e-05
1.84432e-05
2.55417e-05
3.35593e-05
4.26014e-05
5.2767e-05
6.42854e-05
7.75771e-05
9.35886e-05
-9.17092e-07
1.35648e-05
-1.26477e-05
-2.19576e-06
1.31319e-05
-1.18533e-05
-5.25941e-06
1.62644e-05
-1.32008e-05
-9.42689e-06
1.91515e-05
-1.4984e-05
-1.41513e-05
2.19599e-05
-1.72355e-05
-1.9236e-05
2.5134e-05
-2.00493e-05
-2.48436e-05
2.91644e-05
-2.35567e-05
-3.11804e-05
3.42716e-05
-2.79349e-05
-3.85192e-05
4.07918e-05
-3.34531e-05
-4.71903e-05
4.91464e-05
-4.04752e-05
5.9946e-05
-4.94433e-05
-5.76931e-05
3.88583e-06
9.67899e-06
5.35191e-06
1.16658e-05
4.90914e-06
1.67072e-05
2.97249e-06
2.10881e-05
-4.51583e-07
2.5384e-05
-5.1263e-06
2.98087e-05
-1.07648e-05
3.48029e-05
-1.73445e-05
4.08513e-05
-2.50805e-05
4.85278e-05
-3.42931e-05
5.8359e-05
7.10603e-05
-4.54073e-05
2.7876e-06
6.89139e-06
4.41073e-06
1.00427e-05
5.67123e-06
1.54467e-05
5.89209e-06
2.08672e-05
4.63064e-06
2.66455e-05
1.79476e-06
3.26446e-05
-2.41754e-06
3.90152e-05
-7.82387e-06
4.62577e-05
-1.44166e-05
5.51206e-05
-2.24501e-05
6.63924e-05
8.09939e-05
-3.23837e-05
2.37261e-06
4.51878e-06
3.77906e-06
8.63626e-06
5.23844e-06
1.39873e-05
6.30022e-06
1.98055e-05
6.47815e-06
2.64675e-05
5.42404e-06
3.36987e-05
3.03212e-06
4.14071e-05
-6.35951e-07
4.99257e-05
-5.49702e-06
5.99817e-05
-1.16195e-05
7.25149e-05
8.85895e-05
-1.92151e-05
1.76144e-06
2.75734e-06
3.37291e-06
7.02479e-06
5.1066e-06
1.22536e-05
6.53082e-06
1.83812e-05
7.4916e-06
2.55068e-05
7.67189e-06
3.35184e-05
6.82752e-06
4.22515e-05
4.87543e-06
5.18778e-05
1.8548e-06
6.30023e-05
-2.22107e-06
7.65907e-05
9.38498e-05
-7.48138e-06
1.44835e-06
1.30899e-06
3.23266e-06
5.24049e-06
5.14313e-06
1.03431e-05
6.94818e-06
1.65762e-05
8.45077e-06
2.40042e-05
9.47475e-06
3.24944e-05
9.78357e-06
4.19427e-05
9.2352e-06
5.24262e-05
7.83218e-06
6.44053e-05
5.62386e-06
7.87991e-05
9.68879e-05
2.5858e-06
1.19123e-06
1.17762e-07
3.01681e-06
3.4149e-06
5.03652e-06
8.32342e-06
7.11086e-06
1.45019e-05
9.09631e-06
2.20187e-05
1.07786e-05
3.08121e-05
1.1987e-05
4.07342e-05
1.25839e-05
5.18293e-05
1.25513e-05
6.44379e-05
1.19744e-05
7.9376e-05
9.7919e-05
1.09433e-05
7.66466e-07
-6.48704e-07
2.34706e-06
1.8343e-06
4.43343e-06
6.23706e-06
6.76246e-06
1.21728e-05
9.13251e-06
1.96487e-05
1.13874e-05
2.85572e-05
1.33518e-05
3.87698e-05
1.4919e-05
5.02622e-05
1.60758e-05
6.32811e-05
1.69329e-05
7.85188e-05
9.71936e-05
1.76584e-05
2.89531e-07
-9.38235e-07
1.52862e-06
5.95209e-07
3.57171e-06
4.19397e-06
6.05167e-06
9.69285e-06
8.72243e-06
1.69779e-05
1.14222e-05
2.58574e-05
1.40121e-05
3.618e-05
1.63957e-05
4.78785e-05
1.85691e-05
6.11077e-05
2.06617e-05
7.64262e-05
9.49393e-05
2.29159e-05
1.80199e-07
-1.11843e-06
1.0141e-06
-2.38697e-07
2.76499e-06
2.44309e-06
5.20464e-06
7.25321e-06
8.03424e-06
1.41483e-05
1.10554e-05
2.28362e-05
1.41255e-05
3.311e-05
1.71623e-05
4.48417e-05
2.01674e-05
5.81026e-05
2.32905e-05
7.33031e-05
9.1404e-05
2.68258e-05
1.48458e-07
-1.26689e-06
6.64948e-07
-7.55187e-07
1.98905e-06
1.11898e-06
4.16936e-06
5.0729e-06
6.96227e-06
1.13554e-05
1.01334e-05
1.96651e-05
1.35285e-05
2.97148e-05
1.7072e-05
4.12982e-05
2.0779e-05
5.43956e-05
2.47927e-05
6.92893e-05
8.67343e-05
2.94624e-05
8.90635e-08
-1.35596e-06
3.54119e-07
-1.02024e-06
1.23009e-06
2.43015e-07
2.98018e-06
3.32281e-06
5.52238e-06
8.81321e-06
8.63715e-06
1.65504e-05
1.218e-05
2.6172e-05
1.60778e-05
3.74004e-05
2.03536e-05
5.01198e-05
2.51494e-05
6.44935e-05
8.11299e-05
3.07538e-05
2.34587e-08