/*--------------------------------*- C++ -*----------------------------------*\
| =========                 |                                                 |
| \\      /  F ield         | OpenFOAM: The Open Source CFD Toolbox           |
|  \\    /   O peration     | Version:  3.0.1                                 |
|   \\  /    A nd           | Web:      www.OpenFOAM.org                      |
|    \\/     M anipulation  |                                                 |
\*---------------------------------------------------------------------------*/
FoamFile
{
    version     2.0;
    format      ascii;
    class       surfaceVectorField;
    location    "0.633984";
    object      Uf;
}
// * * * * * * * * * * * * * * * * * * * * * * * * * * * * * * * * * * * * * //

dimensions      [0 1 -1 0 0 0 0];

internalField   nonuniform List<vector> 
32369
(
(7.07912 -3.45648 6.27626e-20)
(5.87692 -4.06228 0)
(8.4728 -2.05432 2.04546e-18)
(6.33991 -2.7483 8.90269e-20)
(5.67691 -3.6367 2.04189e-18)
(6.66424 -1.63017 -1.80628e-18)
(5.95568 -2.24824 -4.7184e-20)
(5.56987 -3.02675 -1.48323e-18)
(6.20734 -1.61703 7.94798e-19)
(5.6219 -1.81651 -4.81982e-21)
(5.42041 -2.47962 6.8828e-19)
(5.9676 -1.47407 -2.5532e-19)
(5.29449 -1.46696 3.52647e-20)
(5.21476 -2.01191 -5.11591e-19)
(5.62503 -1.24921 -4.43333e-19)
(4.98988 -1.20667 3.71415e-20)
(4.97345 -1.63407 4.94835e-20)
(5.24367 -1.03679 -7.05481e-21)
(4.71142 -1.00177 1.13907e-20)
(4.72755 -1.33863 -6.10778e-21)
(4.92418 -0.864713 8.83603e-20)
(4.45747 -0.841628 -4.10687e-20)
(4.49013 -1.10696 3.53945e-20)
(4.63251 -0.721696 1.12899e-19)
(4.22816 -0.714172 -5.21231e-20)
(4.26788 -0.924326 -1.73925e-20)
(4.37614 -0.610135 -1.29065e-19)
(4.02109 -0.613496 4.56612e-20)
(4.06312 -0.780389 -2.93127e-20)
(4.14582 -0.521279 6.88124e-20)
(3.87635 -0.678823 2.45841e-20)
(3.94409 -0.463925 2.95232e-20)
(3.80015 -0.539881 0)
(4.47963 -4.55685 1.44105e-18)
(3.32265 -4.40106 -6.44658e-20)
(4.81057 -3.86417 6.53068e-19)
(3.94222 -4.12848 1.41564e-18)
(4.97184 -3.22754 -7.77632e-19)
(4.3443 -3.67531 5.53198e-19)
(4.98283 -2.65526 3.5505e-19)
(4.56226 -3.15279 -1.86055e-18)
(4.88277 -2.16533 -5.63771e-19)
(4.62488 -2.6433 -3.30365e-19)
(4.7155 -1.76629 -2.16301e-20)
(4.573 -2.18655 5.63973e-19)
(4.51854 -1.4496 4.00791e-20)
(4.4497 -1.80076 3.49682e-20)
(4.31476 -1.20095 7.62477e-20)
(4.2907 -1.48616 0)
(4.11698 -1.00602 3.37229e-20)
(4.11919 -1.23413 2.73494e-19)
(3.93212 -0.85211 -6.04898e-20)
(3.9475 -1.0346 -2.63941e-19)
(3.78242 -0.886725 -9.89622e-20)
(3.74143 -0.73028 1.96942e-20)
(2.92544 -4.22529 -1.39374e-19)
(2.05447 -3.87743 -3.64433e-18)
(3.48482 -4.0219 1.34158e-18)
(2.71251 -3.87312 2.55615e-18)
(3.89161 -3.63736 -4.27756e-19)
(3.22656 -3.73241 1.56221e-18)
(4.15403 -3.16968 -2.47668e-18)
(3.62426 -3.41101 -2.21239e-18)
(4.27774 -2.6872 6.44038e-19)
(3.88618 -3.00321 -7.47581e-19)
(4.28595 -2.24073 6.54404e-19)
(4.01964 -2.57394 1.32981e-18)
(4.21364 -1.85556 0)
(4.04445 -2.16928 0)
(4.09461 -1.5377 1.64652e-19)
(3.99433 -1.81257 1.42872e-19)
(3.95434 -1.28236 3.65372e-20)
(3.90032 -1.51171 5.78757e-19)
(3.80972 -1.08184 -3.24296e-19)
(3.78497 -1.26578 -4.33336e-19)
(3.66017 -1.07751 -2.82443e-19)
(3.64511 -0.92166 1.23873e-18)
(2.00403 -3.57874 -1.93276e-18)
(1.53591 -3.36894 -3.48034e-18)
(2.51177 -3.67832 2.78536e-18)
(2.00609 -3.43872 3.13687e-19)
(2.98574 -3.57082 6.75089e-20)
(2.40938 -3.46573 3.48902e-20)
(3.35729 -3.29802 -6.67547e-19)
(2.82583 -3.34455 1.39781e-18)
(3.61463 -2.93504 -2.52447e-19)
(3.17413 -3.0959 -8.33788e-19)
(3.76244 -2.53957 8.09151e-19)
(3.4206 -2.76235 1.8054e-18)
(3.81697 -2.15559 1.25182e-19)
(3.56198 -2.40034 -9.50239e-19)
(3.80204 -1.81108 5.13127e-19)
(3.61741 -2.04993 -2.91312e-21)
(3.74039 -1.51864 2.44848e-19)
(3.61265 -1.73306 8.16818e-19)
(3.64869 -1.27942 -4.08031e-19)
(3.56983 -1.45958 2.6185e-19)
(3.49793 -1.23842 -6.15488e-20)
(3.52689 -1.08054 -1.73843e-19)
(1.60281 -3.18707 -1.96172e-18)
(1.357 -3.04225 -3.17562e-19)
(1.89059 -3.275 -2.23492e-18)
(1.66919 -3.07359 -2.96233e-18)
(2.25541 -3.28297 1.24006e-18)
(1.90968 -3.13668 3.42843e-20)
(2.64265 -3.19052 1.44958e-18)
(2.23946 -3.11412 2.51124e-18)
(2.97625 -2.97519 9.74542e-19)
(2.56988 -2.98692 -3.50108e-20)
(3.21854 -2.67269 3.06652e-19)
(2.85792 -2.76253 2.02516e-18)
(3.36492 -2.33522 -1.16971e-18)
(3.075 -2.47863 -1.90976e-18)
(3.43103 -2.0035 2.13548e-19)
(3.21447 -2.17201 -1.38394e-19)
(3.44056 -1.69983 9.00521e-19)
(3.28596 -1.86989 5.19618e-19)
(3.4162 -1.43249 7.46462e-19)
(3.30565 -1.59113 4.90858e-19)
(3.28612 -1.35418 -5.4487e-19)
(3.35117 -1.19306 -4.26068e-20)
(1.43671 -2.88236 -9.43407e-19)
(1.24547 -2.75422 -9.34942e-19)
(1.63026 -2.95018 -8.65864e-19)
(1.48497 -2.75908 -9.96217e-20)
(1.86849 -2.97949 1.07665e-18)
(1.64693 -2.82552 0)
(2.14522 -2.94052 1.2721e-18)
(1.88983 -2.82784 9.22576e-19)
(2.4303 -2.81541 7.58562e-19)
(2.15456 -2.76188 -3.46301e-20)
(2.69078 -2.61147 9.92749e-20)
(2.41544 -2.61832 -9.63424e-19)
(2.90091 -2.35287 -1.07474e-18)
(2.64577 -2.41103 -9.91766e-21)
(3.04828 -2.06944 3.00914e-20)
(2.8277 -2.16348 0)
(3.13498 -1.78854 3.76647e-20)
(2.95557 -1.90064 -3.9429e-19)
(3.17333 -1.5298 -6.57435e-19)
(3.03238 -1.6452 0)
(3.05951 -1.41952 -3.41697e-19)
(3.16535 -1.28994 -9.84318e-19)
(1.3198 -2.61052 -1.40157e-19)
(1.16479 -2.51534 -2.25083e-18)
(1.467 -2.64756 7.61109e-19)
(1.35589 -2.4847 2.58512e-18)
(1.65212 -2.67643 -2.45981e-19)
(1.47998 -2.53584 -6.54576e-19)
(1.86911 -2.66282 -3.03407e-19)
(1.66935 -2.54083 6.50438e-21)
(2.10393 -2.58835 -1.68398e-18)
(1.88069 -2.50058 7.8643e-19)
(2.33601 -2.4495 -1.16927e-18)
(2.10282 -2.40497 -2.15044e-18)
(2.54487 -2.25694 1.05324e-18)
(2.31746 -2.25682 8.41205e-20)
(2.71505 -2.03006 -3.82473e-19)
(2.50734 -2.06807 2.6266e-20)
(2.83968 -1.79052 -4.78058e-19)
(2.66155 -1.85499 -8.53466e-19)
(2.91977 -1.5573 3.38254e-19)
(2.77513 -1.63713 -2.85663e-19)
(2.842 -1.43933 7.88691e-19)
(2.94869 -1.33426 3.36546e-19)
(1.22593 -2.37493 -1.88522e-19)
(1.08757 -2.30685 -1.3981e-18)
(1.34071 -2.38506 1.45868e-18)
(1.25795 -2.25405 9.38151e-19)
(1.49152 -2.40323 -4.86756e-19)
(1.35821 -2.28471 2.27897e-19)
(1.66801 -2.39339 9.94238e-19)
(1.51359 -2.28578 -4.43315e-19)
(1.86276 -2.34231 5.85173e-19)
(1.68844 -2.25521 4.35927e-19)
(2.06486 -2.24455 -1.10244e-18)
(1.8772 -2.18498 5.2735e-19)
(2.26039 -2.10311 -8.83528e-19)
(2.06896 -2.07495 -8.62008e-19)
(2.43552 -1.92808 -3.47801e-19)
(2.25118 -1.93057 9.66629e-20)
(2.58051 -1.73386 -6.84309e-19)
(2.41331 -1.76078 8.50247e-19)
(2.69253 -1.53539 4.47974e-20)
(2.54601 -1.5791 6.06765e-19)
(2.63478 -1.40786 -8.41382e-19)
(2.76263 -1.3297 2.91273e-19)
(1.14575 -2.16959 -5.94404e-19)
(1.02307 -2.11583 1.35705e-18)
(1.24271 -2.15894 -2.29845e-19)
(1.17767 -2.04648 -9.68832e-19)
(1.3706 -2.16611 3.41669e-19)
(1.26194 -2.0643 5.65768e-20)
(1.51958 -2.15414 -1.0985e-18)
(1.39487 -2.06032 -5.02413e-19)
(1.68531 -2.11264 3.59137e-19)
(1.5443 -2.03273 -3.91106e-21)
(1.86163 -2.03754 9.16399e-19)
(1.70782 -1.97584 5.58904e-19)
(2.03971 -1.92944 2.0032e-20)
(1.87878 -1.88916 0)
(2.20913 -1.793 1.19442e-18)
(2.04859 -1.77532 2.99952e-19)
(2.36063 -1.63633 2.13066e-18)
(2.20901 -1.6387 4.21296e-19)
(2.48895 -1.47007 -8.33341e-20)
(2.35039 -1.4874 1.40061e-18)
(2.45469 -1.33789 -2.00314e-18)
(2.58692 -1.29413 3.216e-20)
(1.08908 -1.98672 1.21825e-18)
(0.981969 -1.95684 8.97001e-19)
(1.1679 -1.95911 -7.46871e-19)
(1.11692 -1.86547 0)
(1.27713 -1.95746 -7.36148e-19)
(1.18537 -1.86994 -8.32421e-19)
(1.40552 -1.94217 5.36705e-19)
(1.30091 -1.85959 4.58346e-21)
(1.54959 -1.90442 1.43857e-19)
(1.4313 -1.83142 6.52324e-19)
(1.70547 -1.84157 -2.91335e-19)
(1.57572 -1.78104 -2.63738e-19)
(1.86732 -1.7539 2.47635e-19)
(1.72977 -1.70833 3.48426e-19)
(2.02749 -1.6436 -4.58453e-19)
(1.88736 -1.61475 5.55768e-19)
(2.178 -1.51458 -4.30059e-19)
(2.04229 -1.50219 -4.56785e-19)
(2.31197 -1.37273 -6.69514e-20)
(2.18598 -1.37574 5.50485e-19)
(2.2983 -1.25081 -4.22492e-19)
(2.41598 -1.21396 -6.50771e-19)
(1.04322 -1.83239 -2.30995e-19)
(0.949191 -1.82725 -2.10811e-19)
(1.10716 -1.78376 0)
(1.06154 -1.70934 5.99978e-19)
(1.20145 -1.77198 -1.82668e-19)
(1.11959 -1.69802 -4.67679e-19)
(1.31402 -1.75164 5.15218e-20)
(1.22285 -1.6792 -2.12094e-19)
(1.44174 -1.71412 3.40908e-19)
(1.33935 -1.64756 3.09456e-19)
(1.5819 -1.65762 3.11915e-19)
(1.46964 -1.59925 0)
(1.73041 -1.58257 6.28492e-19)
(1.6107 -1.53444 6.11275e-21)
(1.88142 -1.49029 6.32914e-19)
(1.75804 -1.45426 2.71887e-19)
(2.02823 -1.38312 4.13448e-19)
(1.90711 -1.35949 3.92833e-22)
(2.16503 -1.26564 3.39151e-19)
(2.05034 -1.25299 -2.46973e-19)
(2.16487 -1.14683 3.92092e-19)
(2.28321 -1.13368 2.40287e-19)
(0.988996 -1.69602 5.42171e-19)
(0.907699 -1.6926 -1.07907e-18)
(1.04735 -1.62608 2.09513e-19)
(1.00231 -1.5594 6.70708e-19)
(1.13364 -1.60358 -5.25579e-19)
(1.05737 -1.53697 4.04749e-19)
(1.23623 -1.57687 -1.08487e-20)
(1.15357 -1.51112 -6.08006e-19)
(1.35281 -1.53725 0)
(1.26106 -1.47547 1.35347e-19)
(1.48174 -1.48344 -3.06045e-19)
(1.38182 -1.42699 -2.04522e-19)
(1.62023 -1.41614 -3.78703e-19)
(1.51382 -1.36647 -4.91495e-19)
(1.76384 -1.33633 -3.26801e-19)
(1.65372 -1.29513 1.1009e-19)
(1.9071 -1.24529 -6.26926e-19)
(1.79814 -1.21329 -3.67316e-19)
(2.04486 -1.1456 -2.88362e-19)
(1.941 -1.12201 -2.47894e-19)
(2.06029 -1.02895 3.42422e-19)
(2.17011 -1.03301 -1.09018e-19)
(0.936053 -1.55954 -1.16655e-18)
(0.86919 -1.55801 -1.12482e-18)
(0.990032 -1.47452 8.89389e-19)
(0.948314 -1.41256 -3.44403e-20)
(1.07107 -1.44397 4.32186e-19)
(1.00038 -1.38139 4.69563e-19)
(1.16728 -1.41162 -5.41593e-19)
(1.09101 -1.34972 -2.39402e-19)
(1.2767 -1.36915 -3.43263e-20)
(1.19237 -1.31018 2.62527e-19)
(1.39839 -1.316 -3.59811e-19)
(1.30716 -1.26051 -3.46877e-19)
(1.53038 -1.2533 -6.62268e-20)
(1.4337 -1.20218 7.2334e-20)
(1.66919 -1.182 1.22274e-19)
(1.56914 -1.1368 5.22859e-20)
(1.81027 -1.1022 0)
(1.71067 -1.06445 0)
(1.94925 -1.01332 2.96739e-19)
(1.85323 -0.984398 0)
(1.97389 -0.9016 1.69316e-19)
(2.07797 -0.902689 2.64903e-19)
(0.894768 -1.42929 -1.35661e-19)
(0.836739 -1.45131 3.0942e-19)
(0.939889 -1.32842 -4.79089e-19)
(0.897954 -1.27918 -6.17907e-20)
(1.01458 -1.28964 -1.29139e-19)
(0.947297 -1.23319 -2.58705e-20)
(1.10548 -1.25156 5.162e-19)
(1.03392 -1.19325 1.0241e-19)
(1.2102 -1.20574 1.39111e-20)
(1.13155 -1.14854 1.27823e-19)
(1.32776 -1.15211 4.40943e-20)
(1.24331 -1.09658 -1.7638e-19)
(1.45639 -1.0923 1.94358e-19)
(1.36754 -1.0392 4.19579e-19)
(1.59287 -1.02745 -6.49258e-20)
(1.50141 -0.978416 -2.0675e-19)
(1.73264 -0.957331 0)
(1.64203 -0.914471 1.36709e-19)
(1.87083 -0.881356 -1.42527e-19)
(1.78504 -0.845834 -1.14293e-19)
(1.90679 -0.774846 -1.60862e-19)
(2.00101 -0.792785 -1.02378e-19)
(0.843374 -1.30729 4.2506e-19)
(0.801056 -1.3294 9.32388e-20)
(0.887874 -1.18682 3.90022e-19)
(0.844089 -1.13981 3.54493e-20)
(0.960728 -1.13797 1.93831e-19)
(0.895257 -1.08307 5.68731e-19)
(1.04947 -1.09327 -2.89178e-19)
(0.980946 -1.03608 -5.71493e-20)
(1.15236 -1.04344 -3.12656e-20)
(1.07772 -0.986212 -2.67289e-19)
(1.26876 -0.988635 1.37809e-19)
(1.18946 -0.931591 4.1155e-20)
(1.39697 -0.931012 8.43863e-20)
(1.3145 -0.874807 2.58559e-19)
(1.53365 -0.872029 -4.24383e-20)
(1.44969 -0.818464 -2.4148e-19)
(1.67406 -0.811093 4.23053e-20)
(1.59143 -0.762914 1.40386e-19)
(1.81348 -0.746167 -1.27392e-19)
(1.73585 -0.70556 2.83997e-20)
(1.86004 -0.645935 -6.0968e-20)
(1.9462 -0.668245 -3.12698e-19)
(0.792443 -1.17753 -2.78199e-19)
(0.770424 -1.19773 -5.91502e-19)
(0.837108 -1.04095 1.67079e-19)
(0.79432 -0.993828 -2.24187e-22)
(0.909898 -0.983492 3.86934e-19)
(0.847741 -0.927899 3.56424e-19)
(0.998784 -0.932489 -1.3937e-20)
(0.933177 -0.874384 1.54416e-20)
(1.1026 -0.878518 -2.26563e-19)
(1.03109 -0.819368 -3.18502e-19)
(1.22093 -0.822478 1.38735e-19)
(1.14576 -0.762133 1.51927e-19)
(1.35179 -0.767306 -1.60584e-20)
(1.27488 -0.706455 2.17092e-19)
(1.49118 -0.714831 -9.98088e-20)
(1.41426 -0.655658 -3.20614e-19)
(1.63361 -0.663961 1.34273e-19)
(1.55881 -0.610045 2.80235e-21)
(1.77398 -0.61117 1.0551e-19)
(1.70496 -0.565633 5.98798e-20)
(1.82997 -0.51798 1.08658e-19)
(1.90816 -0.544551 -4.41861e-20)
(0.752941 -1.04387 -3.40004e-19)
(0.741746 -1.08121 -3.30995e-19)
(0.793145 -0.890559 1.63858e-19)
(0.746551 -0.851519 -4.20378e-19)
(0.864552 -0.823756 1.91514e-20)
(0.804065 -0.769938 4.12597e-19)
(0.954431 -0.76587 -2.56422e-19)
(0.890772 -0.706777 -1.2792e-19)
(1.06158 -0.707513 1.21212e-20)
(0.992796 -0.645059 -5.13659e-20)
(1.18508 -0.650662 2.25401e-19)
(1.11405 -0.585122 7.70267e-20)
(1.32178 -0.599292 -3.01717e-20)
(1.25086 -0.531999 5.70368e-20)
(1.46614 -0.5554 -2.53507e-19)
(1.39706 -0.48941 -1.72082e-19)
(1.61135 -0.516918 -7.40011e-20)
(1.54535 -0.456855 -7.32282e-20)
(1.75173 -0.47843 5.72942e-20)
(1.69255 -0.428501 -4.77073e-20)
(1.81654 -0.395916 5.927e-20)
(1.88363 -0.427101 1.14445e-19)
(0.709436 -0.910764 -4.16041e-19)
(0.716369 -0.952266 -1.30703e-19)
(0.749892 -0.736677 -2.50018e-19)
(0.698561 -0.700093 -4.207e-19)
(0.823093 -0.657217 3.23243e-19)
(0.764268 -0.601966 3.09782e-19)
(0.917314 -0.590487 7.21053e-20)
(0.855944 -0.527658 1.03622e-20)
(1.03184 -0.527098 0)
(0.966657 -0.458452 -1.86302e-20)
(1.16462 -0.470662 -9.07105e-20)
(1.09914 -0.397219 -8.21444e-20)
(1.31035 -0.425999 -6.19944e-20)
(1.24726 -0.350143 -1.01698e-19)
(1.46109 -0.394431 -1.57734e-21)
(1.40188 -0.320555 1.86451e-19)
(1.60887 -0.371852 -4.91871e-20)
(1.55324 -0.305359 -1.55721e-19)
(1.74874 -0.350002 -5.6867e-20)
(1.6995 -0.295893 -1.2189e-19)
(1.82091 -0.279313 -1.84561e-19)
(1.87979 -0.315293 -9.15968e-20)
(0.666641 -0.767542 -1.39032e-19)
(0.697082 -0.809255 -2.52674e-19)
(0.709501 -0.572086 6.3489e-20)
(0.653684 -0.534812 0)
(0.788583 -0.477534 2.86175e-20)
(0.733328 -0.416963 -4.88708e-20)
(0.892036 -0.40087 -7.69573e-20)
(0.834789 -0.330848 -6.98869e-20)
(1.01908 -0.333671 -9.36838e-20)
(0.960525 -0.255585 9.94975e-20)
(1.16573 -0.281203 -9.09876e-20)
(1.11008 -0.197126 2.40666e-19)
(1.32281 -0.248484 1.12379e-19)
(1.27231 -0.162798 -6.29047e-20)
(1.47944 -0.234576 6.69292e-20)
(1.43438 -0.153158 1.26394e-19)
(1.62712 -0.231836 -2.34259e-19)
(1.58506 -0.160267 -8.25254e-20)
(1.76274 -0.22853 -2.43572e-19)
(1.72485 -0.171859 1.86975e-19)
(1.84138 -0.170549 1.94223e-19)
(1.89072 -0.210853 -2.74908e-19)
(0.629683 -0.606929 -1.30652e-19)
(0.688261 -0.647813 -4.92833e-21)
(0.678343 -0.389397 -1.06043e-19)
(0.617031 -0.349308 -8.43417e-20)
(0.767256 -0.277461 -1.44337e-19)
(0.717819 -0.209631 4.74079e-20)
(0.887405 -0.191424 8.89531e-20)
(0.839427 -0.109914 -5.90955e-20)
(1.0347 -0.124776 4.17319e-19)
(0.989053 -0.0334889 1.91099e-19)
(1.1997 -0.0839161 3.03853e-19)
(1.16052 0.012363 2.73708e-20)
(1.36786 -0.0716041 -6.98626e-20)
(1.33583 0.0228887 -6.2821e-20)
(1.52595 -0.0818744 0)
(1.49931 0.00404754 -9.34528e-20)
(1.66709 -0.1022 2.86939e-19)
(1.64141 -0.0295564 -2.11846e-20)
(1.79128 -0.117731 5.80783e-19)
(1.76596 -0.062784 4.58262e-19)
(1.87046 -0.0786371 3.05759e-19)
(1.90386 -0.116949 -1.84567e-19)
(0.602176 -0.424355 2.10429e-21)
(0.698973 -0.455734 1.53056e-19)
(0.662213 -0.179342 6.36866e-20)
(0.592275 -0.128403 -1.15307e-19)
(0.772792 -0.0497237 1.56036e-19)
(0.73895 0.0315184 9.88264e-20)
(0.920331 0.0404734 2.29817e-20)
(0.893997 0.137441 -1.66708e-20)
(1.09502 0.0960187 -1.63375e-19)
(1.07529 0.201495 -2.66067e-21)
(1.2786 0.112483 -3.08225e-19)
(1.2669 0.217882 -1.76479e-19)
(1.4514 0.0939035 -8.30319e-20)
(1.44551 0.191146 0)
(1.60125 0.0538932 -1.22886e-19)
(1.59737 0.137417 4.63793e-20)
(1.72632 0.00945007 8.38328e-20)
(1.71923 0.0770109 -1.28694e-19)
(1.83199 -0.0239393 2.05194e-19)
(1.81967 0.0255728 -1.41672e-19)
(1.90567 -0.00435535 6.07163e-20)
(1.92885 -0.0334666 5.1089e-20)
(0.590662 -0.18287 -1.81193e-20)
(0.767658 -0.216087 1.0582e-19)
(0.685917 0.0687379 -1.14616e-19)
(0.652105 0.12724 -8.90644e-21)
(0.832817 0.209189 -7.41184e-20)
(0.835998 0.306371 -8.58148e-20)
(1.02003 0.287689 -2.94189e-20)
(1.03941 0.397322 2.52848e-20)
(1.22295 0.312075 -4.47917e-21)
(1.24772 0.421567 -1.30694e-19)
(1.41441 0.287646 6.3717e-20)
(1.44114 0.38771 9.99055e-20)
(1.57583 0.230017 8.72024e-20)
(1.60089 0.315535 -3.14619e-20)
(1.70251 0.159786 3.35797e-20)
(1.72256 0.229154 6.1583e-20)
(1.80047 0.0950684 -3.23568e-19)
(1.81154 0.149075 -5.96323e-20)
(1.88057 0.0486503 -2.87348e-19)
(1.8804 0.0878437 -1.18967e-19)
(1.94237 0.0521731 -8.74436e-20)
(1.95256 0.0232418 7.53903e-20)
(0.63073 -0.0272227 8.7693e-20)
(1.02023 0.131402 8.1225e-19)
(0.752065 0.322834 1.28085e-20)
(0.75234 0.470639 -2.72276e-19)
(0.978502 0.460801 -4.30922e-22)
(1.14114 0.57001 -5.95134e-20)
(1.21383 0.50199 6.93561e-21)
(1.34855 0.587668 0)
(1.42886 0.474046 4.66418e-20)
(1.53159 0.546139 1.32627e-19)
(1.60225 0.401295 -3.24419e-20)
(1.6797 0.461243 -4.59578e-20)
(1.72968 0.309298 -6.64655e-20)
(1.78838 0.358857 -3.06244e-20)
(1.81833 0.219215 -3.74189e-20)
(1.8615 0.25906 -4.23715e-20)
(1.88056 0.145467 1.32122e-19)
(1.90789 0.175965 -1.29348e-20)
(1.93028 0.096349 5.38071e-20)
(1.94029 0.118024 1.46656e-19)
(1.97299 0.0872998 1.63121e-20)
(1.98576 0.0791133 -7.07791e-20)
(1.15932 0.854076 -2.52123e-19)
(2.9478 0.646613 -8.30048e-18)
(1.42451 0.817842 -1.14397e-19)
(1.41835 0.275491 2.07355e-18)
(1.58407 0.782479 -6.37706e-20)
(1.53479 0.309148 -1.71917e-19)
(1.72185 0.689037 1.07323e-19)
(1.68644 0.358535 -8.87589e-19)
(1.8258 0.570075 4.96793e-20)
(1.8088 0.347668 2.2594e-19)
(1.89261 0.444996 -9.64141e-20)
(1.89752 0.297218 -1.95535e-19)
(1.93269 0.327768 -6.07252e-21)
(1.95928 0.233733 4.02537e-20)
(1.95403 0.229432 -3.89349e-20)
(1.99013 0.170514 2.11428e-20)
(1.96514 0.157555 -8.03268e-21)
(1.99718 0.118859 -3.59917e-20)
(1.9759 0.115717 1.15607e-19)
(1.9933 0.0883829 5.62352e-21)
(1.99178 0.0875317 8.80345e-20)
(1.99663 0.103368 6.05778e-20)
(5.82661 -0.615728 -3.04531e-18)
(5.68164 -1.68275 3.27995e-18)
(6.18235 -1.02319 -1.24823e-18)
(4.88678 -0.59677 -1.48979e-18)
(6.23678 -1.04446 1.72636e-18)
(5.58074 -0.50026 -7.28286e-20)
(6.05021 -0.959226 -4.82281e-19)
(5.92228 -0.51095 -1.32957e-18)
(5.69744 -0.851411 -5.17186e-19)
(5.84522 -0.462756 -4.8035e-19)
(5.28579 -0.728768 -2.05258e-19)
(5.54387 -0.407195 2.26802e-19)
(4.91413 -0.603231 2.32604e-20)
(5.18752 -0.369443 2.30824e-20)
(4.60415 -0.50972 -3.8522e-20)
(4.80366 -0.322196 -3.30077e-20)
(4.33412 -0.435638 4.23e-20)
(4.49599 -0.282003 1.39231e-19)
(4.09564 -0.383584 5.71375e-20)
(4.22189 -0.247282 -8.78034e-21)
(3.98418 -0.232598 -6.20743e-20)
(3.86552 -0.363314 2.45923e-20)
(3.68811 -1.17533 1.55652e-18)
(3.2067 -3.19323 -4.75532e-19)
(4.58942 -0.565819 -5.91336e-19)
(3.39829 -1.52245 -7.40944e-20)
(5.20902 -0.315417 -1.61968e-18)
(4.41135 -0.618153 -7.09007e-19)
(5.57753 -0.222534 -9.61498e-19)
(5.09278 -0.213787 -2.13023e-19)
(5.65834 -0.182037 3.39114e-19)
(5.43281 0.0181468 -6.31606e-20)
(5.47194 -0.160724 2.83317e-19)
(5.47908 0.129367 5.89004e-19)
(5.12251 -0.148373 -3.14627e-20)
(5.30151 0.147125 -4.34174e-19)
(4.74358 -0.136316 1.10573e-19)
(4.94127 0.124337 1.25561e-19)
(4.4245 -0.121712 2.55151e-19)
(4.58248 0.0843265 3.66442e-19)
(4.14746 -0.116389 -1.14953e-19)
(4.26836 0.0592886 6.52192e-20)
(4.00555 0.0295583 5.05633e-20)
(3.87779 -0.137803 -1.49617e-19)
(2.8494 -3.19569 -1.1476e-18)
(2.46191 -5.07241 -9.55341e-19)
(3.44973 -1.55301 -7.73657e-20)
(2.87092 -3.04512 -5.97145e-19)
(4.17867 -0.593014 7.4979e-19)
(3.5296 -1.56939 8.76783e-19)
(4.79695 -0.0672429 9.9815e-19)
(4.22072 -0.589709 4.48682e-19)
(5.18627 0.222153 2.67273e-19)
(4.7743 0.0514511 1.35752e-19)
(5.29672 0.345207 -2.31203e-19)
(5.09381 0.422622 -1.77375e-19)
(5.14956 0.351328 -3.31651e-19)
(5.15068 0.572341 2.8274e-19)
(4.82598 0.298339 7.75642e-20)
(4.94594 0.571326 -1.04583e-18)
(4.47301 0.237101 1.99773e-19)
(4.61106 0.487496 -1.53608e-19)
(4.165 0.191585 1.75413e-19)
(4.27299 0.399498 1.78698e-19)
(3.99624 0.318043 1.41326e-19)
(3.88457 0.139926 9.85519e-20)
(2.6376 -5.11544 -4.62656e-19)
(2.54079 -6.06654 0)
(2.98422 -3.08095 -7.44511e-20)
(2.65713 -4.59075 -9.99869e-20)
(3.53658 -1.54426 2.90065e-19)
(3.05566 -2.78033 5.57436e-19)
(4.12414 -0.483285 -4.18675e-19)
(3.61852 -1.34463 -3.02138e-19)
(4.61737 0.211902 -3.15948e-19)
(4.17885 -0.289393 0)
(4.9145 0.605233 3.32994e-19)
(4.61168 0.422004 -3.54076e-19)
(4.96338 0.753413 -2.99145e-19)
(4.83326 0.815333 1.44813e-18)
(4.77917 0.730022 -1.75395e-18)
(4.79325 0.943192 -8.3538e-19)
(4.46387 0.625859 -4.53247e-19)
(4.55177 0.884318 -2.49788e-19)
(4.14146 0.515125 -5.54584e-20)
(4.22434 0.754697 -4.93323e-19)
(3.9329 0.61979 -6.24029e-20)
(3.84513 0.391051 0)
(2.57989 -5.80697 4.27002e-19)
(2.63229 -6.28277 0)
(2.71465 -4.48841 5.27612e-19)
(2.62476 -5.5422 -1.25678e-18)
(3.11095 -2.68974 -1.13354e-20)
(2.77998 -4.03295 1.34579e-18)
(3.61887 -1.21522 -1.40834e-20)
(3.19829 -2.30291 4.77543e-19)
(4.10942 -0.12254 0)
(3.6987 -0.877048 0)
(4.48058 0.6017 5.57722e-19)
(4.14789 0.182308 0)
(4.65486 0.985651 1.22613e-18)
(4.4494 0.86651 -7.04964e-19)
(4.60164 1.08689 6.62377e-19)
(4.52956 1.19611 7.78629e-19)
(4.36893 1.0056 -3.90986e-19)
(4.39151 1.2343 -1.3915e-19)
(4.06307 0.855536 -6.10938e-19)
(4.11457 1.10694 -2.24778e-19)
(3.81684 0.93257 -2.79853e-19)
(3.75794 0.663151 3.82494e-19)
(2.69796 -6.11599 -1.55863e-18)
(2.72698 -6.51096 0)
(2.65152 -5.28802 -6.36839e-19)
(2.73198 -5.94652 -1.74603e-18)
(2.85352 -3.83654 1.9234e-18)
(2.70659 -4.98624 8.1652e-20)
(3.23589 -2.10722 5.36463e-19)
(2.91896 -3.32602 1.47505e-18)
(3.67664 -0.668916 0)
(3.31746 -1.63573 -3.55327e-19)
(4.05686 0.387643 -1.15293e-18)
(3.73075 -0.246683 2.62768e-19)
(4.29189 1.04729 -1.27526e-18)
(4.05016 0.745186 -5.96272e-19)
(4.33121 1.33626 6.93674e-20)
(4.19681 1.31882 1.84736e-19)
(4.18301 1.33925 6.11443e-20)
(4.14237 1.50942 -7.34694e-20)
(3.92386 1.18727 7.8741e-20)
(3.92768 1.43059 6.40511e-19)
(3.65095 1.2318 3.08083e-20)
(3.63214 0.924828 -5.70828e-19)
(2.81091 -6.38648 0)
(2.8089 -6.74828 0)
(2.754 -5.7642 -1.14268e-18)
(2.85389 -6.24732 -1.00204e-19)
(2.76019 -4.65761 -4.95806e-19)
(2.77267 -5.53907 -1.28217e-18)
(2.99074 -3.01947 7.79186e-19)
(2.80879 -4.25011 8.71489e-19)
(3.33035 -1.35067 -1.66185e-19)
(3.04791 -2.47693 5.71462e-19)
(3.66658 0.01181 8.89527e-19)
(3.373 -0.816029 2.48933e-19)
(3.90876 0.958665 7.4506e-19)
(3.65907 0.476822 4.78379e-19)
(3.99667 1.47108 5.75587e-20)
(3.82178 1.31466 0)
(3.91469 1.60576 4.22856e-19)
(3.81854 1.69469 6.47444e-20)
(3.70528 1.48913 6.99144e-19)
(3.66074 1.70902 -6.61446e-20)
(3.44242 1.50327 4.13635e-19)
(3.45338 1.23201 1.97178e-19)
(2.90158 -6.64897 -9.06907e-20)
(2.87756 -6.99672 1.55551e-20)
(2.85594 -6.10568 -1.11254e-19)
(2.95661 -6.52724 -9.41467e-21)
(2.8083 -5.27434 -1.12693e-19)
(2.86877 -5.90402 0)
(2.87382 -3.8955 6.95032e-19)
(2.81671 -4.91984 1.48656e-20)
(3.06952 -2.11807 1.04651e-18)
(2.88056 -3.28894 1.51982e-18)
(3.31897 -0.489291 -2.02593e-19)
(3.07608 -1.47316 -1.15475e-18)
(3.52167 0.741607 -2.15259e-19)
(3.28559 0.0911444 4.29082e-19)
(3.61577 1.49402 0)
(3.41959 1.19364 -3.00341e-19)
(3.57463 1.7921 -4.25195e-19)
(3.43268 1.78074 0)
(3.41358 1.74701 -4.14568e-19)
(3.31774 1.9202 -2.82477e-19)
(3.16202 1.76418 4.39337e-21)
(3.17889 1.51567 9.09169e-20)
(2.9811 -6.91619 1.02552e-19)
(2.94123 -7.24455 -3.8559e-18)
(2.94624 -6.4116 1.04493e-19)
(3.04323 -6.80843 1.59514e-18)
(2.88962 -5.66694 1.3366e-19)
(2.94273 -6.23106 -1.20681e-18)
(2.82907 -4.49689 6.88411e-19)
(2.85916 -5.36568 1.00108e-19)
(2.8906 -2.83343 -3.30853e-19)
(2.79469 -3.98831 1.16336e-18)
(3.01516 -1.06003 -7.07688e-19)
(2.83885 -2.14651 -2.35489e-18)
(3.13673 0.418662 3.89205e-19)
(2.93085 -0.38021 4.27322e-19)
(3.19817 1.40826 -3.33712e-19)
(2.99629 0.966526 3.4849e-19)
(3.17187 1.88361 1.83108e-19)
(2.99251 1.76014 -1.61774e-19)
(3.06303 1.93666 7.57844e-20)
(2.90433 2.03262 2.24861e-19)
(2.79811 1.93085 -6.29468e-20)
(2.90968 1.72624 -9.45804e-20)
(3.05038 -7.17218 -3.03916e-18)
(3.00181 -7.48476 -6.03438e-18)
(3.01189 -6.70418 5.70985e-19)
(3.11439 -7.0654 3.03681e-18)
(2.94068 -6.01393 -1.41533e-18)
(2.98547 -6.52831 -1.19221e-18)
(2.83731 -5.00245 4.43256e-19)
(2.88903 -5.72135 -1.00891e-18)
(2.76722 -3.49794 -4.44887e-19)
(2.74549 -4.53694 1.17148e-18)
(2.74601 -1.66272 -1.52812e-18)
(2.64307 -2.78577 -5.58455e-19)
(2.75303 0.0108644 4.27455e-19)
(2.59049 -0.907275 -9.11494e-19)
(2.74714 1.21773 5.77458e-19)
(2.55336 0.643912 1.34819e-18)
(2.70888 1.86774 -1.0313e-19)
(2.50307 1.6287 -3.64519e-19)
(2.63376 2.0295 1.0615e-19)
(2.42621 2.0372 7.52032e-19)
(2.36521 2.01252 -5.94141e-19)
(2.52315 1.91117 -1.93598e-18)
(3.0945 -7.39934 -9.6628e-19)
(3.03011 -7.65485 -1.91855e-18)
(3.0549 -6.97441 1.60386e-18)
(3.15252 -7.30754 2.67143e-18)
(2.96597 -6.32416 -7.98235e-19)
(2.99823 -6.80866 -1.76053e-18)
(2.83267 -5.39078 -5.19191e-19)
(2.88167 -6.04988 1.03095e-18)
(2.65667 -4.02286 1.25716e-18)
(2.68457 -4.97299 -1.37321e-18)
(2.49912 -2.24311 9.76397e-20)
(2.46168 -3.36596 2.83294e-20)
(2.36724 -0.45891 -8.87845e-20)
(2.25828 -1.45947 -7.41849e-19)
(2.26507 0.924896 5.83434e-19)
(2.09267 0.235475 -3.7097e-20)
(2.19372 1.73381 4.32691e-19)
(1.97278 1.37967 -2.13652e-19)
(2.14725 2.00872 1.73963e-19)
(1.89763 1.91251 2.36301e-19)
(1.8746 1.97214 -4.08865e-19)
(2.09812 1.95308 -4.10291e-19)
(3.13035 -7.59166 1.28279e-18)
(3.03657 -7.82472 4.4028e-18)
(3.07777 -7.2106 -3.83438e-19)
(3.15466 -7.51612 6.09401e-20)
(2.95004 -6.60478 -1.76004e-19)
(2.97577 -7.03381 -3.64983e-18)
(2.77726 -5.74228 4.8674e-19)
(2.82211 -6.34153 1.92583e-18)
(2.53225 -4.48829 -2.78619e-18)
(2.57752 -5.35228 -2.06665e-18)
(2.25492 -2.7937 -7.54766e-19)
(2.25401 -3.89477 -6.82594e-19)
(1.97411 -0.968879 -7.76237e-19)
(1.91741 -2.01277 9.25643e-19)
(1.75723 0.535411 -8.17345e-19)
(1.61429 -0.24604 -2.22453e-18)
(1.64014 1.47267 -4.60798e-19)
(1.41512 1.00818 9.7302e-19)
(1.61883 1.85091 -2.41799e-19)
(1.33749 1.64259 6.4418e-19)
(1.37814 1.77615 1.0237e-18)
(1.6549 1.87918 1.96475e-19)
(3.1311 -7.74719 3.7879e-18)
(3.03778 -7.9463 4.16973e-18)
(3.04344 -7.40358 -2.85446e-18)
(3.1233 -7.65646 -1.0893e-18)
(2.88449 -6.84134 -2.13922e-18)
(2.92334 -7.21748 -9.21963e-21)
(2.66254 -6.05373 -1.73209e-19)
(2.712 -6.58443 -4.00138e-18)
(2.35752 -4.91599 -1.70363e-19)
(2.41489 -5.69102 -1.42498e-19)
(1.97701 -3.32736 8.90362e-19)
(2.00523 -4.39048 2.55936e-18)
(1.56057 -1.51295 -1.88264e-19)
(1.55995 -2.57539 3.11426e-18)
(1.23389 0.0522173 -7.81026e-19)
(1.12907 -0.803194 -3.0138e-18)
(1.06849 1.07755 2.11842e-18)
(0.854389 0.512131 1.07268e-18)
(1.06782 1.54107 1.8786e-18)
(0.774848 1.22364 5.03627e-20)
(0.888106 1.45025 6.59133e-19)
(1.15494 1.6452 5.02597e-19)
(3.10968 -7.84366 -1.00816e-20)
(3.02191 -7.99791 -2.23102e-18)
(2.9873 -7.53569 1.65152e-18)
(3.04865 -7.74296 6.95637e-19)
(2.78394 -7.02709 -1.47817e-18)
(2.82621 -7.34254 5.34345e-18)
(2.50843 -6.31681 -4.44044e-18)
(2.55892 -6.77454 -5.80026e-18)
(2.13575 -5.29958 2.19536e-18)
(2.19925 -5.982 -7.24813e-20)
(1.6656 -3.84139 4.7311e-18)
(1.71933 -4.86266 1.34269e-18)
(1.15016 -2.09248 8.64681e-19)
(1.1965 -3.17314 1.89616e-19)
(0.723837 -0.523492 -1.29234e-18)
(0.66643 -1.42826 1.41081e-18)
(0.514642 0.547741 -9.60475e-19)
(0.327493 -0.100452 7.17481e-20)
(0.545973 1.08599 -1.29788e-18)
(0.258246 0.651167 -2.37859e-19)
(0.426368 0.971976 -6.90802e-19)
(0.69774 1.27155 0)
(3.04792 -7.88847 -1.82479e-18)
(2.98982 -7.99677 -6.12309e-18)
(2.88654 -7.6082 3.92557e-18)
(2.93027 -7.77391 6.90357e-19)
(2.6368 -7.1502 2.20222e-18)
(2.68179 -7.40661 5.19822e-18)
(2.30397 -6.52138 -2.06836e-18)
(2.35871 -6.89921 -4.53014e-18)
(1.87357 -5.65255 -1.20036e-18)
(1.93779 -6.20666 0)
(1.31485 -4.36686 -3.22683e-18)
(1.40715 -5.26667 -1.16204e-19)
(0.729778 -2.70764 6.23058e-19)
(0.831251 -3.82899 9.11187e-19)
(0.259042 -1.18035 3.18214e-18)
(0.264435 -2.13998 1.18445e-18)
(0.0450073 -0.0959855 8.32297e-19)
(-0.105652 -0.828101 -7.67424e-19)
(0.0899525 0.49375 3.19616e-19)
(-0.171931 -0.0352112 9.37464e-19)
(0.0561168 0.36056 -2.91927e-19)
(0.311556 0.760139 -1.32729e-20)
(2.94971 -7.87486 -4.40201e-18)
(2.9323 -7.92604 -3.8286e-18)
(2.74162 -7.61669 1.50466e-18)
(2.77077 -7.73611 6.57199e-20)
(2.4409 -7.20631 -5.13948e-19)
(2.48767 -7.40594 2.16733e-18)
(2.05014 -6.64853 -2.92966e-18)
(2.11173 -6.96555 -1.72719e-18)
(1.56069 -5.89475 1.09592e-18)
(1.64264 -6.37496 0)
(0.971641 -4.87 3.8378e-18)
(1.0873 -5.58133 1.25151e-19)
(0.361348 -3.45169 1.40668e-18)
(0.496229 -4.46709 4.29382e-18)
(-0.136523 -1.94666 -2.40426e-18)
(-0.0534465 -2.95942 -5.24486e-18)
(-0.357125 -0.866089 -8.53702e-19)
(-0.423503 -1.63971 1.34625e-19)
(-0.251432 -0.226835 3.5899e-19)
(-0.463296 -0.842322 -4.60236e-19)
(-0.159011 -0.372577 6.98399e-19)
(0.0233999 0.196767 -2.91277e-19)
(2.80799 -7.78587 1.06463e-19)
(2.82991 -7.7649 4.59414e-19)
(2.54784 -7.55328 5.13414e-19)
(2.56291 -7.61258 1.76755e-19)
(2.19601 -7.20145 1.33385e-18)
(2.23671 -7.33198 1.88023e-18)
(1.75759 -6.73281 9.81255e-19)
(1.81319 -6.97616 -6.28885e-19)
(1.23628 -6.10997 -9.8177e-19)
(1.31514 -6.50806 1.81067e-18)
(0.651047 -5.27498 1.85733e-19)
(0.771966 -5.88023 -2.94962e-18)
(0.0545502 -4.15618 -1.79127e-18)
(0.226256 -5.0203 1.58145e-18)
(-0.401156 -2.82678 -3.21863e-18)
(-0.257248 -3.82624 -1.42394e-18)
(-0.59773 -1.72292 2.27652e-19)
(-0.592359 -2.56387 2.06031e-18)
(-0.462625 -1.0562 -2.52151e-19)
(-0.613102 -1.71853 -1.27051e-18)
(-0.260184 -1.15086 6.2496e-19)
(-0.131893 -0.633022 -2.08969e-19)
(2.60748 -7.60467 5.34574e-19)
(2.66274 -7.50247 8.55111e-20)
(2.29383 -7.40288 1.36706e-18)
(2.29394 -7.38857 9.84708e-19)
(1.8935 -7.12552 2.6283e-19)
(1.91339 -7.17633 1.40131e-18)
(1.42119 -6.77216 -4.96916e-20)
(1.44983 -6.9335 2.06233e-19)
(0.899145 -6.31051 3.93742e-19)
(0.949322 -6.62166 6.14269e-20)
(0.364129 -5.68817 -2.04993e-18)
(0.459826 -6.18952 7.75444e-19)
(-0.139032 -4.83583 1.69879e-18)
(0.0213059 -5.57055 -1.23474e-18)
(-0.524798 -3.74272 3.1206e-18)
(-0.336051 -4.6668 5.84798e-19)
(-0.668955 -2.66681 3.86596e-19)
(-0.59119 -3.57206 7.95288e-19)
(-0.520777 -1.92028 -3.78453e-20)
(-0.586569 -2.65296 -5.66552e-19)
(-0.207876 -1.96831 4.0441e-19)
(-0.196978 -1.37999 -1.75649e-19)