/*--------------------------------*- C++ -*----------------------------------*\
| =========                 |                                                 |
| \\      /  F ield         | OpenFOAM: The Open Source CFD Toolbox           |
|  \\    /   O peration     | Version:  3.0.1                                 |
|   \\  /    A nd           | Web:      www.OpenFOAM.org                      |
|    \\/     M anipulation  |                                                 |
\*---------------------------------------------------------------------------*/
FoamFile
{
    version     2.0;
    format      ascii;
    class       volScalarField;
    location    "0";
    object      yPlus;
}
// * * * * * * * * * * * * * * * * * * * * * * * * * * * * * * * * * * * * * //

dimensions      [0 0 0 0 0 0 0];

internalField   uniform 0;

boundaryField
{
    FrontAndBack
    {
        type            empty;
    }
    patch1
    {
        type            calculated;
        value           nonuniform List<scalar> 
48
(
31.4976
25.3237
24.442
25.7352
27.654
29.5187
31.3471
33.2001
34.8642
36.2164
37.4058
38.4089
39.0672
39.4089
39.3604
38.8698
37.9917
36.5268
34.444
31.6992
28.2075
23.914
18.7909
12.9705
29.0208
21.8299
21.5629
23.6788
26.5458
29.4026
32.0975
34.6743
36.9021
38.727
40.0964
41.1156
41.69
41.8288
41.4779
40.5973
39.1707
37.1131
34.3526
30.85
26.56
21.4571
15.5928
9.18195
)
;
    }
    patch2
    {
        type            calculated;
        value           nonuniform List<scalar> 
48
(
31.5003
25.3267
24.4422
25.7377
27.6562
29.5177
31.3473
33.1989
34.8602
36.2157
37.4021
38.4089
39.07
39.4088
39.3614
38.8733
37.9947
36.5311
34.4471
31.6983
28.2122
23.9164
18.7934
12.97
29.018
21.8257
21.5643
23.6821
26.5469
29.4076
32.0977
34.6729
36.9022
38.7239
40.0931
41.1151
41.6896
41.8271
41.4762
40.5955
39.1728
37.1102
34.3537
30.8543
26.5598
21.458
15.5935
9.17995
)
;
    }
    patch3
    {
        type            calculated;
        value           nonuniform List<scalar> 
48
(
31.499
25.3287
24.4422
25.7362
27.6598
29.5231
31.352
33.1986
34.8606
36.2178
37.4068
38.4069
39.0671
39.4103
39.3623
38.8767
37.9916
36.524
34.4435
31.6984
28.2096
23.9168
18.7918
12.9705
29.0195
21.8252
21.5577
23.6733
26.5444
29.4063
32.1007
34.6758
36.9014
38.7227
40.0913
41.114
41.6856
41.8232
41.4736
40.5946
39.1691
37.1074
34.3508
30.8526
26.554
21.4502
15.5902
9.18101
)
;
    }
    Shaft
    {
        type            calculated;
        value           nonuniform List<scalar> 
18
(
31.1456
31.0135
30.9189
30.8621
30.843
30.8621
30.9189
31.0135
31.1456
31.1456
31.0135
30.9189
30.8621
30.843
30.8621
30.9189
31.0135
31.1456
)
;
    }
    Inlet
    {
        type            calculated;
        value           uniform 0;
    }
    Lat-Wall
    {
        type            calculated;
        value           nonuniform List<scalar> 
98
(
273.784
309.651
240.109
237.157
644.435
1268.48
789.511
1008.87
600.474
1064.99
638.532
637.592
719.79
622.477
989.818
914.284
1216.15
1198.35
768.492
719.79
622.477
1032.53
925.106
1059.58
1112.53
802.614
896.619
592.647
1164.68
828.687
910.169
752.661
1084.36
1167.99
825.601
1012.18
1119.11
673.638
1051
965.445
718.941
732.67
753.063
446.319
1033.96
731.06
769.297
436.302
1064.32
528.025
438.493
518.097
517.381
935.079
895.948
615.858
440.729
562.952
761.292
911.153
689.872
843.713
371.769
615.142
711.114
813.213
814.287
733.073
603.962
807.086
853.641
704.988
921.573
664.604
795.369
744.566
738.707
768.671
921.841
720.953
830.565
548.686
418.145
339.525
566.843
637.19
722.652
407.188
451.999
426.508
546.808
599.758
571.852
657.404
590.59
742.151
615.411
687.01
)
;
    }
    Outlet
    {
        type            calculated;
        value           uniform 0;
    }
    AMI-St
    {
        type            cyclicAMI;
        value           uniform 0;
    }
    AMI-Rt
    {
        type            cyclicAMI;
        value           uniform 0;
    }
}


// ************************************************************************* //
