/*--------------------------------*- C++ -*----------------------------------*\
| =========                 |                                                 |
| \\      /  F ield         | OpenFOAM: The Open Source CFD Toolbox           |
|  \\    /   O peration     | Version:  3.0.1                                 |
|   \\  /    A nd           | Web:      www.OpenFOAM.org                      |
|    \\/     M anipulation  |                                                 |
\*---------------------------------------------------------------------------*/
FoamFile
{
    version     2.0;
    format      ascii;
    class       volVectorField;
    location    "0.777638";
    object      U;
}
// * * * * * * * * * * * * * * * * * * * * * * * * * * * * * * * * * * * * * //

dimensions      [0 1 -1 0 0 0 0];

internalField   nonuniform List<vector> 
21246
(
(4.7812 -2.00754 0)
(3.90302 -1.4124 7.65251e-21)
(4.11378 -1.41478 6.53812e-21)
(4.16323 -1.29685 0)
(4.07431 -1.0665 -2.78272e-20)
(3.93669 -0.785636 2.14531e-20)
(3.79948 -0.567835 -2.87132e-20)
(3.66277 -0.41341 -8.22291e-21)
(3.53507 -0.313343 3.35735e-20)
(3.41726 -0.256631 1.37011e-20)
(3.32058 -0.239056 -1.5474e-20)
(4.0036 -0.776938 -4.75717e-18)
(3.18705 -0.608979 3.351e-18)
(3.33081 -1.03555 -1.42901e-18)
(3.4547 -1.17405 2.18229e-19)
(3.51949 -1.13346 4.21161e-19)
(3.554 -0.977601 -2.20902e-19)
(3.55936 -0.775484 1.08784e-19)
(3.52008 -0.578945 0)
(3.45749 -0.448857 3.61933e-21)
(3.38466 -0.367808 -5.96904e-21)
(3.3166 -0.333021 0)
(3.92055 0.202621 0)
(3.16815 -0.0677015 1.96399e-19)
(3.02302 -0.536106 2.2437e-18)
(3.0163 -0.787508 -1.77622e-19)
(3.07177 -0.913551 -9.38107e-19)
(3.16533 -0.911449 7.28609e-20)
(3.26306 -0.805406 1.21038e-19)
(3.32445 -0.655204 0)
(3.34178 -0.524182 -6.30588e-20)
(3.32447 -0.436144 0)
(3.29573 -0.393459 -3.23131e-20)
(3.98498 0.564601 0)
(3.30032 0.275821 -3.43565e-19)
(2.99929 -0.0912677 -7.59414e-19)
(2.86154 -0.355837 -1.28558e-18)
(2.83887 -0.564525 7.27085e-19)
(2.90779 -0.674781 4.46314e-19)
(3.02643 -0.67959 -1.24799e-18)
(3.14049 -0.613953 1.93534e-19)
(3.21693 -0.528147 6.16301e-20)
(3.2507 -0.455449 0)
(3.2589 -0.416463 7.3277e-20)
(3.95841 0.600788 3.90533e-19)
(3.42179 0.458336 -1.19082e-18)
(3.08846 0.203749 1.40339e-18)
(2.88258 -0.0176999 3.10392e-19)
(2.79026 -0.235215 8.49546e-19)
(2.80585 -0.396856 -7.66553e-19)
(2.89911 -0.47962 6.68211e-19)
(3.01825 -0.492574 -3.11378e-20)
(3.11982 -0.466186 -4.10115e-19)
(3.18522 -0.429169 3.36895e-19)
(3.22243 -0.407309 -1.46765e-19)
(3.89393 0.549244 -1.396e-18)
(3.49841 0.523492 2.60679e-20)
(3.20911 0.362736 0)
(2.98968 0.203635 -2.99831e-19)
(2.8602 0.0149092 -7.98902e-19)
(2.82951 -0.152058 2.65421e-19)
(2.8814 -0.273475 0)
(2.97606 -0.341463 1.9258e-19)
(3.0728 -0.367972 2.21199e-19)
(3.14733 -0.370791 -2.44332e-19)
(3.19786 -0.372648 1.57349e-20)
(3.84412 0.498749 9.1224e-19)
(3.54567 0.533473 6.01699e-21)
(3.31503 0.419555 3.48238e-19)
(3.12461 0.325178 0)
(2.9882 0.174783 3.76653e-19)
(2.93043 0.0259612 2.27737e-19)
(2.94448 -0.104762 -6.58838e-19)
(3.00441 -0.201737 6.08702e-19)
(3.07883 -0.264612 -5.13041e-19)
(3.14468 -0.300708 4.75495e-19)
(3.19452 -0.327112 1.60792e-19)
(3.80876 0.43996 -8.91421e-21)
(3.57704 0.50622 -4.05382e-19)
(3.40363 0.420807 0)
(3.25443 0.372061 -4.41733e-19)
(3.13251 0.255508 -2.94335e-19)
(3.0655 0.132055 9.11915e-19)
(3.05302 0.00903256 -3.2963e-19)
(3.08055 -0.0967441 0)
(3.12713 -0.178813 -2.32777e-19)
(3.17454 -0.237142 -1.2866e-19)
(3.21291 -0.280688 1.62375e-19)
(3.79088 0.374139 -3.60996e-19)
(3.60896 0.468219 5.54479e-19)
(3.48189 0.394398 -5.45377e-19)
(3.36884 0.36682 4.08715e-19)
(3.27067 0.27623 3.0774e-19)
(3.20628 0.177387 -2.00885e-19)
(3.17858 0.0689741 2.84803e-19)
(3.18109 -0.0335655 -2.05343e-19)
(3.20154 -0.121702 0)
(3.22738 -0.191305 0)
(3.24942 -0.245569 -1.80649e-19)
(3.79394 0.309347 0)
(3.64984 0.428729 0)
(3.55343 0.349893 1.30639e-19)
(3.46896 0.329682 -2.84933e-19)
(3.39504 0.258838 -9.2818e-22)
(3.33843 0.178462 1.78637e-19)
(3.30348 0.0848706 -3.80279e-21)
(3.28854 -0.0092092 0)
(3.28742 -0.095586 0)
(3.29253 -0.168597 0)
(3.29665 -0.227752 1.78744e-19)
(3.81758 0.244851 -5.14559e-20)
(3.70143 0.380926 4.03027e-20)
(3.62318 0.294447 5.7796e-20)
(3.56057 0.276029 1.74362e-19)
(3.50489 0.217197 1.91571e-19)
(3.45631 0.148544 -9.23038e-20)
(3.4186 0.0674556 0)
(3.39202 -0.0168999 -7.88745e-20)
(3.37412 -0.0976792 5.92467e-20)
(3.36124 -0.169058 0)
(3.34864 -0.22712 7.83419e-20)
(3.85296 0.176086 -1.96027e-19)
(3.75822 0.322451 7.13305e-20)
(3.69131 0.229994 -8.35057e-20)
(3.64362 0.211541 -7.2192e-20)
(3.60018 0.158982 -5.28245e-20)
(3.55836 0.0976122 0)
(3.52002 0.0261614 0)
(3.48564 -0.0493133 -9.391e-21)
(3.4549 -0.123185 -6.10647e-21)
(3.42689 -0.189987 -2.93627e-20)
(3.39954 -0.245737 -1.84027e-20)
(3.89199 0.105233 0)
(3.81555 0.259148 1.06912e-19)
(3.75644 0.16085 -2.08523e-19)
(3.71847 0.140606 7.93028e-20)
(3.68301 0.0909357 0)
(3.64613 0.0336148 -3.78351e-20)
(3.60754 -0.031374 0)
(3.56741 -0.0999023 9.29735e-21)
(3.52644 -0.167375 6.04951e-21)
(3.48559 -0.228716 -2.92715e-20)
(3.44491 -0.280847 2.5486e-22)
(3.938 0.0331972 1.82694e-19)
(3.87579 0.193965 -9.65807e-20)
(3.82012 0.090108 4.38232e-21)
(3.7877 0.06633 0)
(3.75679 0.017342 0)
(3.72259 -0.0385349 3.75696e-20)
(3.68312 -0.10003 0)
(3.63784 -0.163938 0)
(3.58788 -0.22627 3.88318e-20)
(3.53556 -0.281823 -1.5718e-21)
(3.48255 -0.329227 -6.97212e-20)
(3.98867 -0.0432435 1.71219e-19)
(3.93599 0.12476 -1.34055e-19)
(3.88116 0.0159245 2.82936e-19)
(3.85172 -0.0107521 -2.77524e-19)
(3.82306 -0.0604082 1.98672e-19)
(3.78974 -0.116796 0)
(3.74845 -0.177399 1.75377e-19)
(3.69775 -0.239062 0)
(3.63882 -0.29766 0)
(3.5752 -0.347486 8.27033e-20)
(3.50939 -0.389739 -1.37232e-20)
(4.03831 -0.121792 -1.63765e-19)
(3.99429 0.0536353 5.048e-19)
(3.93979 -0.0602916 -1.89845e-19)
(3.91196 -0.0901349 2.55866e-19)
(3.88421 -0.141739 -1.94316e-19)
(3.85045 -0.20058 1.1945e-19)
(3.80608 -0.262886 -2.67046e-19)
(3.74866 -0.324672 9.93075e-20)
(3.67937 -0.380807 0)
(3.60335 -0.424589 -8.25088e-20)
(3.52475 -0.45788 -1.35203e-20)
(4.08932 -0.202493 -3.43866e-19)
(4.05362 -0.0186292 0)
(3.99826 -0.137564 0)
(3.97098 -0.17186 1.11526e-19)
(3.94335 -0.226961 -1.8707e-19)
(3.90807 -0.290761 0)
(3.85878 -0.357876 0)
(3.79185 -0.42219 -9.9862e-20)
(3.70908 -0.476346 0)
(3.61833 -0.512458 0)
(3.52569 -0.534485 7.03107e-20)
(4.14223 -0.28702 1.75658e-19)
(4.11358 -0.0928676 0)
(4.05672 -0.216928 0)
(4.03022 -0.25612 0)
(4.00307 -0.317002 0)
(3.96546 -0.389665 2.0145e-19)
(3.90827 -0.465857 1.19195e-19)
(3.82691 -0.535064 4.58315e-20)
(3.72553 -0.586406 -2.9064e-20)
(3.61672 -0.611667 -5.31425e-20)
(3.50839 -0.62017 0)
(4.19615 -0.375217 -3.32015e-19)
(4.17429 -0.168133 2.55563e-19)
(4.11716 -0.297268 0)
(4.09385 -0.3427 2.22437e-19)
(4.06905 -0.414155 2.63095e-19)
(4.02752 -0.502767 -2.51994e-19)
(3.95611 -0.593889 -2.27413e-19)
(3.85148 -0.669148 0)
(3.72421 -0.713598 0)
(3.59461 -0.721223 4.80055e-21)
(3.47405 -0.706236 -2.63899e-20)
(4.24979 -0.46541 1.75399e-19)
(4.23763 -0.242335 0)
(4.18559 -0.375797 0)
(4.17244 -0.431928 -2.1339e-19)
(4.15268 -0.525316 7.19044e-21)
(4.10073 -0.642238 0)
(4.00118 -0.754444 1.00672e-19)
(3.85856 -0.832317 0)
(3.69668 -0.859682 -1.40676e-20)
(3.54535 -0.838881 2.8009e-20)
(3.41621 -0.793413 2.76308e-21)
(4.32127 -0.572864 -1.9715e-19)
(4.31445 -0.30633 0)
(4.27434 -0.434434 3.29454e-19)
(4.28126 -0.517889 4.94296e-20)
(4.26164 -0.659483 -6.42116e-19)
(4.18083 -0.826584 1.65145e-19)
(4.0305 -0.96465 0)
(3.83243 -1.03269 0)
(3.62982 -1.02346 1.45395e-20)
(3.46138 -0.959 3.09325e-20)
(3.33462 -0.874945 -5.67448e-20)
(4.36883 -0.563326 -5.20042e-19)
(4.35887 -0.223222 5.34866e-19)
(4.40169 -0.499422 -4.95554e-19)
(4.44329 -0.699376 1.20435e-19)
(4.3751 -0.94946 3.04061e-19)
(4.21482 -1.14876 -1.02406e-19)
(3.98931 -1.25627 -3.86765e-20)
(3.73802 -1.26643 -3.1391e-20)
(3.50471 -1.1943 -1.34606e-20)
(3.33619 -1.06922 -7.4893e-21)
(3.22828 -0.941858 6.68923e-20)
(4.19109 -0.0215119 1.0206e-18)
(4.43147 -0.84943 -6.95928e-19)
(4.42473 -1.00465 4.53504e-19)
(4.3065 -1.27798 -2.49007e-19)
(4.15154 -1.49033 0)
(3.95772 -1.61124 2.90502e-20)
(3.72439 -1.62532 6.39651e-20)
(3.48642 -1.52754 -6.05731e-20)
(3.29205 -1.3516 8.2626e-20)
(3.16412 -1.15616 -4.45298e-20)
(3.10854 -0.984435 -1.03964e-19)
(3.83761 -1.50429 1.57232e-18)
(3.9637 -1.216 -1.00201e-18)
(3.81528 -1.62322 0)
(3.72625 -1.78799 6.32669e-22)
(3.64108 -1.8731 -6.36569e-21)
(3.53289 -1.89238 4.58638e-21)
(3.38846 -1.82336 -3.73735e-20)
(3.20441 -1.64536 4.2489e-20)
(3.03977 -1.38622 3.73104e-20)
(2.97118 -1.14983 -3.79971e-20)
(2.9767 -0.978396 -2.46553e-21)
(6.14164 -1.6829 2.91078e-19)
(5.61255 -1.28039 9.65279e-20)
(5.20151 -1.11201 -2.57708e-19)
(4.84478 -0.921301 -4.67192e-20)
(4.5156 -0.701457 3.64859e-20)
(4.22312 -0.48697 1.19315e-19)
(3.97588 -0.319382 -9.05987e-20)
(3.76693 -0.207781 0)
(3.58536 -0.141485 -5.10276e-21)
(3.427 -0.112153 -3.9602e-20)
(3.29796 -0.117363 0)
(6.46399 -0.253994 5.76387e-19)
(6.19992 -0.312813 0)
(5.84212 -0.419235 0)
(5.43204 -0.414657 0)
(4.99993 -0.318954 9.09349e-20)
(4.57989 -0.169667 -2.54585e-19)
(4.20807 -0.0383428 -1.84323e-19)
(3.90406 0.0359198 1.19307e-19)
(3.65254 0.0668112 9.90876e-20)
(3.44065 0.0695947 -1.852e-19)
(3.27234 0.0489363 7.72085e-20)
(6.43457 0.31708 -4.02708e-19)
(6.36658 0.2922 -5.27907e-19)
(6.14668 0.138073 3.86339e-19)
(5.81829 0.0787373 -5.60023e-19)
(5.39976 0.0991728 3.26746e-19)
(4.92499 0.201141 0)
(4.44809 0.317603 -2.57369e-19)
(4.0391 0.357397 1.53004e-19)
(3.71065 0.334178 -9.79891e-20)
(3.44151 0.29022 -1.36891e-19)
(3.22961 0.23959 1.84445e-19)
(6.38089 0.49052 -1.74452e-19)
(6.3652 0.585177 -2.52902e-19)
(6.23077 0.477098 3.83259e-19)
(5.9922 0.439315 -4.25801e-19)
(5.64349 0.446532 2.07587e-19)
(5.19536 0.529546 4.83473e-19)
(4.68209 0.675061 2.31972e-19)
(4.16837 0.764382 3.53752e-19)
(3.74421 0.68997 -2.54803e-19)
(3.41582 0.55651 0)
(3.16041 0.454369 -1.85668e-19)
(6.37631 0.536374 1.37876e-20)
(6.36476 0.694998 1.08017e-19)
(6.25122 0.627286 3.06475e-19)
(6.04711 0.633337 -2.55073e-19)
(5.74095 0.664602 3.00119e-19)
(5.32708 0.75082 3.18732e-19)
(4.82543 0.904412 -4.10919e-19)
(4.29887 1.08051 5.77121e-20)
(3.76749 1.13612 -4.31612e-19)
(3.33558 0.955398 1.51178e-19)
(3.05596 0.756101 0)
(6.39445 0.540757 7.29907e-21)
(6.38533 0.739909 -6.75272e-20)
(6.2805 0.682633 -1.04389e-19)
(6.08926 0.714992 4.78476e-20)
(5.80187 0.764846 -2.38312e-19)
(5.40055 0.860331 -1.92247e-19)
(4.88344 1.01661 0)
(4.29171 1.21564 4.25294e-19)
(3.72208 1.35701 -8.02161e-20)
(3.20999 1.28813 -1.09465e-19)
(2.87284 1.03833 1.48674e-19)
(6.41832 0.527033 -4.01217e-20)
(6.41169 0.750434 5.85054e-20)
(6.31352 0.690001 0)
(6.12961 0.735219 0)
(5.85444 0.790252 0)
(5.46273 0.88742 0)
(4.93583 1.04295 -4.5513e-20)
(4.29113 1.25791 -4.38562e-20)
(3.62592 1.44485 1.23379e-19)
(3.05289 1.49513 -3.90555e-20)
(2.62315 1.2998 3.58092e-20)
(6.44457 0.49932 -5.14637e-21)
(6.43761 0.731974 -2.12779e-20)
(6.34528 0.66257 6.66334e-21)
(6.16716 0.713896 -5.71633e-21)
(5.90316 0.763476 0)
(5.52292 0.852424 0)
(4.99469 0.9969 1.41164e-19)
(4.31302 1.21224 1.24348e-19)
(3.56208 1.42996 -4.069e-20)
(2.87691 1.54524 -4.22509e-20)
(2.3716 1.49052 0)
(6.46969 0.467278 0)
(6.45885 0.696812 -1.24889e-20)
(6.37115 0.609932 0)
(6.19755 0.663221 -2.18746e-20)
(5.94462 0.698263 0)
(5.57938 0.768896 0)
(5.06149 0.889682 -2.09265e-19)
(4.36086 1.08186 0)
(3.53859 1.31959 0)
(2.74926 1.47335 -2.17945e-19)
(2.13273 1.48989 0)
(6.48186 0.43407 -2.41804e-20)
(6.47417 0.648755 2.98365e-20)
(6.38598 0.538247 7.23002e-22)
(6.21653 0.590851 2.11019e-20)
(5.97443 0.603449 0)
(5.62679 0.646478 3.04133e-20)
(5.13094 0.731081 3.13528e-19)
(4.4368 0.878329 -1.65155e-19)
(3.5624 1.11609 8.70788e-20)
(2.68228 1.28565 8.82416e-20)
(1.96071 1.34128 9.26052e-20)
(6.47646 0.380072 -3.5262e-21)
(6.48239 0.581491 -7.81261e-21)
(6.37754 0.4595 6.09582e-21)
(6.21859 0.500071 0)
(5.98771 0.484072 0)
(5.65843 0.491545 -9.77832e-20)
(5.19236 0.528564 -1.66809e-19)
(4.53371 0.610539 0)
(3.63845 0.822159 0)
(2.68116 0.993615 8.78856e-20)
(1.8711 1.05601 -1.19138e-19)
(6.45981 0.298094 1.40377e-20)
(6.46513 0.509617 -9.59719e-21)
(6.3517 0.383081 2.39963e-20)
(6.20306 0.379322 -1.88129e-20)
(5.98241 0.342065 0)
(5.67065 0.309822 7.69481e-20)
(5.23513 0.291629 -4.06614e-21)
(4.63082 0.296821 -8.27166e-20)
(3.76019 0.407119 0)
(2.74908 0.606184 0)
(1.89113 0.670221 0)
(6.42414 0.227208 2.78404e-21)
(6.41371 0.418664 4.33413e-20)
(6.31104 0.289633 -1.88599e-20)
(6.16334 0.245533 0)
(5.95121 0.179151 0)
(5.65318 0.106178 5.54902e-20)
(5.2464 0.033999 -3.18818e-20)
(4.70463 -0.0268201 -1.01899e-19)
(3.98429 -0.0622 -1.95705e-20)
(2.91835 0.12363 3.66095e-19)
(2.00301 0.195777 -1.58776e-19)
(6.35779 0.159458 1.86792e-20)
(6.33539 0.314607 1.36108e-20)
(6.24121 0.17891 -1.06302e-20)
(6.10032 0.0970871 0)
(5.90125 -0.00453707 0)
(5.62313 -0.119155 0)
(5.2457 -0.24018 0)
(4.74757 -0.358402 -5.08819e-19)
(4.09657 -0.460557 1.39592e-19)
(3.2256 -0.425515 -3.23188e-22)
(2.24374 -0.35658 -3.47201e-19)
(6.2587 0.0862381 -1.0526e-19)
(6.2271 0.197076 0)
(6.13969 0.0513214 1.3683e-21)
(6.00989 -0.0665732 0)
(5.82884 -0.206402 2.43768e-19)
(5.57817 -0.364622 -1.13224e-19)
(5.24137 -0.534854 -2.8875e-19)
(4.80147 -0.705832 -1.89166e-20)
(4.23176 -0.85814 2.6053e-19)
(3.49436 -0.936066 0)
(2.63103 -0.937235 0)
(6.1238 0.00859709 0)
(6.08175 0.0691115 3.62757e-20)
(6.00035 -0.0910922 -1.39059e-21)
(5.88513 -0.24522 -6.64512e-20)
(5.72847 -0.424694 -4.7463e-20)
(5.5147 -0.625888 0)
(5.23052 -0.840641 5.99153e-19)
(4.86278 -1.05316 -2.35013e-19)
(4.3913 -1.24316 0)
(3.79194 -1.37557 0)
(3.08354 -1.43572 -3.0003e-19)
(5.94345 -0.0774874 -7.20427e-20)
(5.89118 -0.0700438 -1.16011e-19)
(5.81688 -0.249476 6.07289e-20)
(5.72108 -0.440951 -1.24136e-20)
(5.59737 -0.661673 9.66186e-21)
(5.43152 -0.905708 1.14631e-19)
(5.21027 -1.16294 1.68596e-19)
(4.92271 -1.41769 0)
(4.56268 -1.6556 3.67416e-19)
(4.10589 -1.81924 0)
(3.56225 -1.93664 -4.99688e-19)
(5.70979 -0.179721 -1.03283e-19)
(5.64871 -0.223594 0)
(5.58396 -0.425817 0)
(5.51375 -0.654595 0)
(5.43293 -0.916699 3.77781e-20)
(5.32666 -1.20364 2.93381e-20)
(5.17852 -1.50374 -1.88599e-19)
(4.98591 -1.78936 -1.2772e-19)
(4.73812 -2.01947 -3.70041e-19)
(4.41665 -2.19881 5.53989e-19)
(4.02472 -2.34546 -7.52289e-19)
(5.42066 -0.304461 1.43541e-19)
(5.34934 -0.392728 5.90052e-19)
(5.29126 -0.618783 -4.23703e-19)
(5.23792 -0.882122 0)
(5.18252 -1.17775 -3.95025e-20)
(5.12944 -1.48432 5.2253e-21)
(5.06801 -1.77972 1.15875e-19)
(4.97849 -2.0508 0)
(4.84358 -2.28938 0)
(4.65017 -2.48588 -2.85513e-19)
(4.39069 -2.65292 5.55763e-19)
(5.06827 -0.437154 5.83132e-19)
(4.94495 -0.552668 2.50303e-19)
(4.85812 -0.778815 -2.15605e-19)
(4.80855 -1.03908 -1.88392e-19)
(4.80161 -1.32021 3.37279e-19)
(4.81147 -1.61072 -1.43714e-19)
(4.82014 -1.89689 -4.80918e-20)
(4.81038 -2.1622 -1.14794e-19)
(4.76429 -2.38876 8.45654e-20)
(4.65997 -2.55959 2.91927e-19)
(4.47734 -2.68395 -8.342e-20)
(4.55802 -0.588748 -2.57425e-19)
(4.47202 -0.691593 0)
(4.40573 -0.899986 0)
(4.3655 -1.15413 -1.32641e-19)
(4.3659 -1.43125 0)
(4.40176 -1.70669 0)
(4.4522 -1.95981 0)
(4.48955 -2.17324 -1.22547e-21)
(4.4864 -2.32745 4.03327e-20)
(4.40524 -2.39872 -4.43143e-20)
(4.20786 -2.37448 9.72862e-20)
(4.1648 -0.736555 -2.96517e-19)
(4.04469 -0.828273 4.25328e-19)
(3.95673 -1.05645 0)
(3.91593 -1.31602 1.50212e-19)
(3.92871 -1.57589 -2.68462e-19)
(3.98035 -1.80483 1.98744e-19)
(4.04308 -1.98689 4.19834e-20)
(4.087 -2.10806 -5.89859e-20)
(4.07995 -2.13738 -3.26342e-20)
(3.97521 -2.02411 -4.02707e-20)
(3.71891 -1.73969 0)
(3.77276 -0.926894 0)
(3.62671 -1.07755 -8.92647e-19)
(3.55955 -1.3058 5.16601e-19)
(3.55519 -1.55489 -4.16815e-20)
(3.59073 -1.76169 0)
(3.64176 -1.91057 -1.69487e-20)
(3.6814 -1.99387 2.33864e-20)
(3.68271 -1.98711 1.43679e-20)
(3.61285 -1.83803 -1.4236e-20)
(3.44593 -1.51583 0)
(3.22302 -1.14995 0)
(3.36712 -1.71653 0)
(3.35828 -1.44193 -4.72129e-19)
(3.37461 -1.68987 6.89476e-19)
(3.40766 -1.83536 -2.12921e-19)
(3.4363 -1.92516 -1.2711e-20)
(3.44127 -1.95192 7.86887e-20)
(3.40722 -1.905 0)
(3.32488 -1.76199 -4.64111e-21)
(3.1846 -1.49512 6.83318e-21)
(3.02956 -1.17806 -1.26242e-21)
(2.96299 -0.971147 0)
(3.65802 -7.01179 -1.19183e-19)
(2.99019 -5.5311 -9.16278e-20)
(3.36308 -4.24778 0)
(3.52882 -3.31565 -9.22166e-19)
(3.54347 -2.63723 2.48859e-19)
(3.48968 -2.11491 -9.29717e-19)
(3.40008 -1.70563 8.20746e-19)
(3.29777 -1.3801 0)
(3.19623 -1.11901 -1.6734e-19)
(3.10109 -0.909813 -2.62393e-19)
(3.00925 -0.747387 4.7567e-19)
(-0.595578 -4.09223 4.55526e-18)
(0.450142 -4.31382 -1.41305e-18)
(1.31752 -3.94347 1.82062e-18)
(2.01691 -3.41509 -3.65106e-19)
(2.46233 -2.88632 -1.41753e-18)
(2.72234 -2.38999 1.90722e-18)
(2.85514 -1.95182 1.14738e-18)
(2.90673 -1.583 -1.54938e-18)
(2.90968 -1.28108 -1.1462e-18)
(2.88346 -1.0384 1.3167e-19)
(2.83656 -0.849555 0)
(-1.36764 -1.89239 -1.25631e-18)
(-0.645494 -2.3799 8.11662e-19)
(-0.0175544 -2.80208 -3.05869e-18)
(0.725854 -2.89663 2.07076e-18)
(1.38484 -2.72076 0)
(1.87597 -2.40223 0)
(2.20654 -2.03847 0)
(2.41292 -1.68786 0)
(2.53588 -1.37726 2.18135e-18)
(2.60696 -1.11539 6.19729e-19)
(2.64125 -0.905938 -2.0117e-18)
(-1.13391 -1.01655 1.56373e-18)
(-0.577642 -1.40579 3.90543e-18)
(-0.379464 -1.70456 8.5026e-19)
(0.0940717 -1.94543 -2.48006e-18)
(0.626224 -2.04023 5.0317e-19)
(1.14909 -1.98823 5.56222e-19)
(1.59245 -1.81875 4.77414e-19)
(1.93042 -1.58484 1.0474e-18)
(2.16944 -1.33591 -7.74189e-19)
(2.32983 -1.10453 0)
(2.42699 -0.909461 1.19157e-19)
(-0.760109 -0.436757 -1.44384e-18)
(-0.283835 -0.729098 -1.16807e-18)
(-0.263519 -0.950343 -2.65711e-18)
(0.0504727 -1.21204 2.60217e-18)
(0.40828 -1.38964 0)
(0.819875 -1.46706 -1.31782e-18)
(1.22335 -1.44027 -2.14799e-19)
(1.57765 -1.33177 7.22719e-19)
(1.86344 -1.17555 3.05054e-19)
(2.07962 -1.00393 -5.3254e-19)
(2.22661 -0.841835 -2.48766e-18)
(-0.358653 -0.0837845 0)
(0.0380161 -0.255316 3.15174e-18)
(-0.0421762 -0.40716 -5.58986e-18)
(0.181799 -0.636659 2.14017e-18)
(0.411479 -0.823425 -1.64091e-18)
(0.710252 -0.959668 6.12242e-20)
(1.036 -1.02371 9.05087e-19)
(1.3545 -1.01495 -1.41189e-19)
(1.63944 -0.948634 8.46539e-19)
(1.87616 -0.847868 -2.082e-19)
(2.05128 -0.736418 1.46024e-18)
(-0.0582718 0.117998 -2.07459e-19)
(0.311436 0.0523954 3.89398e-19)
(0.222584 -0.0527885 -3.42176e-19)
(0.372235 -0.231209 0)
(0.522192 -0.394558 1.43044e-18)
(0.734439 -0.540644 -1.09825e-18)
(0.982936 -0.644807 -3.84807e-19)
(1.24646 -0.696051 0)
(1.50266 -0.695589 -3.90975e-19)
(1.73281 -0.654536 0)
(1.91631 -0.587395 0)
(0.163803 0.249688 1.95706e-19)
(0.520614 0.248863 0)
(0.451754 0.186143 -2.57722e-19)
(0.564889 0.0486018 -1.62694e-18)
(0.669351 -0.0846924 1.22558e-18)
(0.823384 -0.218394 0)
(1.01079 -0.331317 2.87043e-19)
(1.22112 -0.410763 -1.07155e-18)
(1.43904 -0.451234 3.88175e-19)
(1.64677 -0.455783 0)
(1.81588 -0.432621 8.31384e-20)
(0.348986 0.356903 0)
(0.695197 0.392639 0)
(0.642802 0.358475 0)
(0.738328 0.248459 4.49163e-20)
(0.817489 0.140861 2.17811e-18)
(0.93493 0.0248971 -1.68373e-18)
(1.07923 -0.0824759 8.38359e-20)
(1.24662 -0.17061 6.13733e-20)
(1.42801 -0.232117 -3.2944e-19)
(1.61 -0.265218 4.61856e-19)
(1.76548 -0.271634 -3.86082e-19)
(0.51467 0.42474 3.36803e-19)
(0.858953 0.492542 -1.84555e-18)
(0.810463 0.484949 2.69599e-18)
(0.893224 0.395798 6.46125e-19)
(0.955594 0.309405 -1.91228e-18)
(1.04924 0.21056 0)
(1.1639 0.113776 0)
(1.29936 0.0269276 -2.53194e-18)
(1.45066 -0.0427953 1.60809e-18)
(1.60917 -0.0910466 -4.5478e-19)
(1.75215 -0.112967 2.89772e-19)
(0.643591 0.442534 -2.7249e-19)
(0.992952 0.556292 0)
(0.951217 0.576164 6.88153e-19)
(1.02779 0.505863 -1.10529e-18)
(1.07971 0.438511 8.44542e-19)
(1.15815 0.355452 0)
(1.25277 0.270458 0)
(1.36527 0.189234 2.3763e-18)
(1.49298 0.118091 1.07472e-18)
(1.63036 0.0616846 -8.55278e-19)
(1.75283 0.0274988 5.42678e-21)
(0.733913 0.452969 0)
(1.08387 0.614841 -3.22165e-18)
(1.06053 0.650804 2.8216e-18)
(1.13918 0.593813 -1.5117e-18)
(1.18745 0.54166 1.53866e-18)
(1.25786 0.471883 0)
(1.33983 0.398004 9.80866e-19)
(1.43658 0.32382 -2.89411e-18)
(1.54678 0.254603 -3.27897e-20)
(1.66756 0.194536 -4.43103e-21)
(1.77692 0.15354 -1.0681e-18)
(0.814436 0.479018 1.90408e-18)
(1.16207 0.675234 2.65931e-18)
(1.15395 0.718767 -2.99173e-18)
(1.23443 0.670376 1.89534e-18)
(1.28137 0.629393 -1.52695e-18)
(1.34795 0.569736 3.1635e-20)
(1.42237 0.50523 -1.73747e-18)
(1.50885 0.437832 2.67706e-18)
(1.60673 0.371963 -9.60827e-20)
(1.71568 0.311227 -2.14627e-18)
(1.81665 0.268754 2.11294e-18)
(0.883018 0.489965 1.79796e-18)
(1.23978 0.720786 3.67417e-19)
(1.2401 0.777735 0)
(1.32033 0.738623 0)
(1.36587 0.707465 -3.95288e-20)
(1.43051 0.655735 2.22352e-18)
(1.50035 0.598834 -1.66387e-18)
(1.58023 0.537226 -1.23317e-18)
(1.66939 0.474949 -1.81768e-20)
(1.76959 0.414654 1.29834e-18)
(1.86109 0.371625 9.37545e-19)
(0.927805 0.495688 0)
(1.2959 0.767397 -6.7747e-19)
(1.31199 0.835179 0)
(1.39669 0.802679 0)
(1.44319 0.779341 6.37497e-19)
(1.50789 0.733609 2.80741e-20)
(1.57516 0.682749 -2.29079e-18)
(1.65085 0.625726 1.202e-18)
(1.73363 0.566648 -4.0974e-20)
(1.82732 0.506813 1.14739e-18)
(1.91336 0.463514 -9.18615e-19)
(0.976563 0.514193 -3.85034e-18)
(1.34698 0.818145 3.3634e-18)
(1.37932 0.892456 -2.07338e-18)
(1.46772 0.864856 8.378e-19)
(1.51607 0.847384 1.24958e-18)
(1.58187 0.806049 -2.88518e-18)
(1.64788 0.759777 7.56747e-20)
(1.72106 0.705971 2.23703e-18)
(1.79893 0.649555 -2.42207e-18)
(1.88771 0.589788 -1.83941e-20)
(1.96975 0.546273 0)
(1.02908 0.528954 4.26665e-19)
(1.40001 0.857568 0)
(1.44866 0.942499 0)
(1.53743 0.923673 7.96792e-19)
(1.58842 0.911088 0)
(1.65527 0.873528 -1.79568e-18)
(1.72078 0.830388 3.43796e-18)
(1.79184 0.778902 -2.00877e-18)
(1.86564 0.724705 7.53262e-19)
(1.94943 0.665593 -3.84853e-20)
(2.02811 0.621561 -3.25949e-20)
(1.06916 0.538677 -3.28311e-18)
(1.44132 0.892565 2.23446e-18)
(1.51276 0.989293 0)
(1.60505 0.980159 -1.47134e-18)
(1.66128 0.970838 1.14176e-18)
(1.72958 0.936015 -1.68944e-18)
(1.79486 0.894446 2.98477e-20)
(1.86363 0.844369 1.00877e-18)
(1.93372 0.791933 2.77634e-18)
(2.01233 0.734188 -1.49848e-18)
(2.0883 0.689311 7.32462e-19)
(1.10929 0.551196 0)
(1.47735 0.927313 3.2207e-19)
(1.57524 1.03463 0)
(1.67359 1.03451 3.42411e-19)
(1.73677 1.02613 -8.06794e-19)
(1.80621 0.992385 1.20025e-18)
(1.87047 0.951004 0)
(1.93585 0.902062 0)
(2.00195 0.851572 -3.67032e-20)
(2.07536 0.79634 -9.42052e-19)
(2.15008 0.75013 3.58048e-19)
(1.15758 0.565772 -3.4669e-18)
(1.51534 0.958433 2.4482e-18)
(1.64202 1.07442 -5.64754e-20)
(1.74783 1.08231 -3.11912e-18)
(1.81749 1.07288 1.90629e-18)
(1.88582 1.03898 -1.16966e-18)
(1.94668 0.997713 1.34423e-19)
(2.00688 0.951194 0)
(2.06841 0.904228 0)
(2.13661 0.853775 -4.50445e-19)
(2.20984 0.807569 4.65143e-19)
(1.21423 0.578646 3.48386e-18)
(1.55743 0.980127 -2.54167e-18)
(1.7144 1.10072 0)
(1.82869 1.11427 0)
(1.9022 1.10272 -1.29127e-19)
(1.96522 1.06949 -5.38501e-21)
(2.01946 1.03125 -1.40405e-19)
(2.07325 0.990883 0)
(2.13034 0.950519 -5.58822e-19)
(2.19429 0.907014 4.16402e-19)
(2.26476 0.863309 -1.52243e-19)
(1.30792 0.581997 0)
(1.60699 0.98518 2.28748e-18)
(1.79554 1.09803 -3.56211e-18)
(1.91477 1.11422 1.30605e-18)
(1.98468 1.10293 -8.37357e-19)
(2.03724 1.07629 8.81628e-19)
(2.08236 1.0489 0)
(2.13039 1.02093 0)
(2.18474 0.991124 0)
(2.24663 0.956491 -3.76151e-19)
(2.31622 0.915118 1.39927e-19)
(1.24294 0.584727 3.29014e-18)
(1.648 0.926209 -2.24553e-18)
(1.82661 1.0528 1.9781e-18)
(1.94864 1.0695 -2.5903e-18)
(2.01878 1.06587 8.26047e-19)
(2.06789 1.05808 1.73938e-19)
(2.11421 1.0514 0)
(2.16646 1.04188 0)
(2.22499 1.02617 0)
(2.28916 1.00359 5.43259e-19)
(2.3599 0.966694 -1.13637e-19)
(2.61964 0.137514 3.42485e-19)
(2.00302 0.861397 -2.05667e-19)
(2.19476 0.78368 -1.4474e-18)
(2.17306 0.860976 1.11893e-18)
(2.13468 0.934407 -2.67717e-19)
(2.12176 0.990996 -4.22781e-19)
(2.14197 1.03122 -2.13132e-19)
(2.18797 1.05089 4.31763e-19)
(2.24722 1.05298 -3.28251e-19)
(2.31289 1.04526 -2.85943e-20)
(2.38476 1.02561 2.50232e-19)
(7.08011 -5.90574 1.40654e-18)
(5.88796 -2.97797 -9.24677e-19)
(5.71662 -3.37832 -5.91817e-19)
(5.16662 -2.84013 2.46351e-19)
(4.63358 -2.3004 -1.80518e-19)
(4.2262 -1.84268 -8.0115e-20)
(3.91734 -1.47455 6.15885e-20)
(3.6736 -1.18232 0)
(3.47377 -0.949691 0)
(3.30693 -0.763497 3.28045e-19)
(3.16518 -0.621142 -3.47717e-19)
(6.27662 -3.41551 0)
(5.39614 -0.297119 6.85639e-18)
(6.26275 -1.31738 -1.82937e-18)
(6.15767 -1.51751 -2.75422e-18)
(5.5533 -1.42947 -8.58186e-19)
(4.96154 -1.29446 1.69626e-19)
(4.46067 -1.10252 8.84855e-20)
(4.06351 -0.90317 -7.52164e-20)
(3.7529 -0.726264 6.80448e-21)
(3.50681 -0.581142 2.95454e-20)
(3.31105 -0.475129 -1.21751e-19)
(4.01329 -1.70864 -3.61556e-17)
(4.16274 0.97489 4.78244e-18)
(5.73964 0.322264 1.63977e-17)
(6.1227 0.0497917 1.41858e-19)
(5.91162 -0.17826 2.91479e-19)
(5.40454 -0.405586 4.18896e-19)
(4.87127 -0.481458 0)
(4.39079 -0.463348 3.51123e-19)
(3.99448 -0.400487 -2.58427e-19)
(3.6783 -0.329106 3.25656e-20)
(3.42825 -0.272382 -4.43952e-20)
(1.96836 -1.20091 -3.30622e-17)
(3.00256 1.07749 4.59785e-17)
(4.74438 1.20349 -1.62182e-17)
(5.4557 1.23103 4.83204e-19)
(5.66087 0.977419 -4.85047e-18)
(5.4154 0.567974 2.78751e-18)
(5.00309 0.28146 1.33327e-18)
(4.55445 0.106505 -9.92769e-19)
(4.14034 0.023026 0)
(3.79113 -0.00568087 0)
(3.50914 -0.0135553 1.17054e-19)
(0.558574 -1.34383 0)
(2.06776 0.695895 -2.33228e-18)
(3.7156 1.46937 0)
(4.5964 1.86907 -5.87115e-19)
(5.07515 1.77275 0)
(5.07462 1.37722 3.97457e-18)
(4.84777 1.00523 3.06727e-20)
(4.51256 0.702038 -7.55153e-19)
(4.14952 0.491153 -7.49613e-19)
(3.81244 0.358743 0)
(3.52141 0.283396 3.42661e-19)
(-0.288781 -1.70685 1.40344e-17)
(1.40783 0.256775 1.67151e-17)
(2.85937 1.43382 -2.39631e-17)
(3.79521 2.11822 6.84303e-18)
(4.40045 2.21515 -8.18533e-18)
(4.55979 1.93035 8.88234e-18)
(4.49815 1.57268 -7.89524e-18)
(4.29654 1.22415 5.14299e-18)
(4.02292 0.936716 -2.26719e-18)
(3.73597 0.720074 0)
(3.47059 0.571301 0)
(-0.792021 -2.07142 -2.53349e-18)
(0.903028 -0.129443 1.58954e-17)
(2.17976 1.28469 -1.04208e-17)
(3.12582 2.1631 -3.4734e-18)
(3.76775 2.42126 8.20661e-18)
(4.01017 2.26195 3.45014e-18)
(4.06328 1.96238 0)
(3.97358 1.62622 2.66391e-18)
(3.79343 1.31334 1.5628e-18)
(3.573 1.04903 1.47941e-18)
(3.35299 0.836982 -1.09679e-18)
(-1.11893 -2.38513 -8.25415e-18)
(0.497199 -0.447261 -1.50207e-17)
(1.6381 1.10404 1.78703e-17)
(2.57923 2.1158 -1.47935e-17)
(3.216 2.4944 7.11871e-18)
(3.49373 2.43951 -4.72886e-18)
(3.61542 2.20795 0)
(3.60559 1.90778 -2.59267e-18)
(3.50467 1.60195 -1.52736e-18)
(3.35074 1.32208 -1.59167e-18)
(3.17849 1.07578 1.32912e-18)
(-1.33774 -2.63187 0)
(0.156938 -0.709431 8.09256e-18)
(1.19231 0.91621 -3.9673e-18)
(2.12053 2.02196 -5.63888e-18)
(2.7364 2.49094 6.13531e-18)
(3.02775 2.51732 -7.19167e-20)
(3.18663 2.3465 0)
(3.23042 2.09155 0)
(3.19129 1.80727 1.51652e-18)
(3.09415 1.53156 -1.62205e-18)
(2.9806 1.26088 -7.08473e-19)
(-1.48827 -2.81603 0)
(-0.137645 -0.92718 6.97058e-18)
(0.811702 0.727777 -1.85295e-18)
(1.7216 1.89921 2.47214e-18)
(2.31223 2.43785 1.7904e-18)
(2.60919 2.52867 -2.75172e-18)
(2.78806 2.40898 1.70262e-18)
(2.86657 2.19551 -4.37313e-18)
(2.87381 1.9384 1.45976e-19)
(2.82395 1.68075 1.58013e-18)
(2.76185 1.40887 -2.8181e-19)
(-1.61469 -2.95579 -5.71611e-18)
(-0.413392 -1.13121 -2.21783e-18)
(0.472096 0.525296 -1.39416e-19)
(1.35784 1.74675 -4.63352e-18)
(1.92537 2.34481 4.95832e-18)
(2.22768 2.49084 -4.71988e-18)
(2.41904 2.41547 -6.21862e-18)
(2.52162 2.23884 4.50982e-18)
(2.56404 2.00903 0)
(2.55308 1.77011 -1.59463e-18)
(2.52917 1.5131 0)
(-1.75151 -3.07321 5.15546e-18)
(-0.671032 -1.3227 3.79057e-18)
(0.170344 0.316459 2.58654e-18)
(1.02135 1.57202 -2.05579e-18)
(1.5682 2.21962 0)
(1.87648 2.41404 4.2259e-18)
(2.0769 2.37794 -2.74766e-18)
(2.19743 2.23397 3.90857e-18)
(2.26704 2.03045 0)
(2.28859 1.80944 2.94237e-18)
(2.29837 1.56631 -2.32118e-19)
(-1.87249 -3.17482 0)
(-0.896705 -1.49588 8.26081e-19)
(-0.101853 0.102711 -1.3426e-18)
(0.701864 1.37622 0)
(1.23245 2.06446 0)
(1.54832 2.30323 0)
(1.75697 2.30328 1.22321e-18)
(1.89263 2.18864 -1.80969e-18)
(1.98474 2.00997 1.00367e-18)
(2.0341 1.80771 -1.53569e-19)
(2.08178 1.576 -4.57418e-19)
(-1.96594 -3.27392 -4.27324e-18)
(-1.10647 -1.66972 2.29491e-18)
(-0.363241 -0.131555 -4.64091e-18)
(0.390981 1.14873 -1.55664e-18)
(0.90967 1.87666 2.52858e-18)
(1.23522 2.15908 7.97028e-19)
(1.45337 2.19451 -1.22235e-18)
(1.60425 2.10717 0)
(1.71751 1.9518 8.76004e-19)
(1.79327 1.76863 -6.63927e-19)
(1.86975 1.55669 -9.21445e-19)
(-2.04179 -3.37534 -1.24583e-20)
(-1.30435 -1.84178 2.98094e-19)
(-0.615508 -0.37661 -2.14776e-18)
(0.0916707 0.893497 0)
(0.599016 1.65634 -1.8264e-18)
(0.931504 1.9817 -2.73612e-19)
(1.16121 2.05212 1.55788e-18)
(1.3291 1.99099 0)
(1.4643 1.85784 -7.42846e-19)
(1.56761 1.69358 5.61856e-19)
(1.66769 1.50738 5.59106e-19)
(-2.10385 -3.46838 0)
(-1.49181 -2.01251 -3.49351e-19)
(-0.860281 -0.632692 -1.94439e-18)
(-0.201585 0.610681 1.51444e-18)
(0.291763 1.3992 -2.60891e-19)
(0.630379 1.76681 -4.3375e-19)
(0.874356 1.87262 -1.27925e-18)
(1.06254 1.83777 5.5251e-19)
(1.22281 1.72707 -3.69843e-20)
(1.35747 1.58261 3.06435e-19)
(1.4908 1.41968 -2.84156e-19)
(-2.16286 -3.55568 -3.16831e-18)
(-1.67549 -2.18882 2.38977e-18)
(-1.10178 -0.905598 -1.74042e-18)
(-0.496259 0.294599 -8.42275e-20)
(-0.0209173 1.09943 1.01786e-18)
(0.323059 1.50671 -1.08091e-20)
(0.584218 1.64821 -5.70597e-19)
(0.79834 1.64098 6.29829e-20)
(0.989272 1.55519 -7.13653e-20)
(1.15818 1.43441 1.01061e-19)
(1.32989 1.29368 8.07895e-20)
(-2.22255 -3.64606 2.89902e-18)
(-1.85763 -2.37255 -2.02315e-18)
(-1.34398 -1.19715 -1.18877e-18)
(-0.798442 -0.0585027 1.17992e-18)
(-0.348485 0.749126 5.03118e-19)
(-0.00148652 1.18865 -5.39786e-19)
(0.280981 1.36464 -8.44329e-20)
(0.529131 1.38835 0)
(0.758887 1.33404 1.1101e-19)
(0.965414 1.24574 2.73417e-20)
(1.18381 1.13751 -3.07791e-20)
(-2.28301 -3.74928 0)
(-2.0417 -2.56716 -2.80738e-19)
(-1.59327 -1.50892 -1.82204e-18)