/*--------------------------------*- C++ -*----------------------------------*\
| =========                 |                                                 |
| \\      /  F ield         | OpenFOAM: The Open Source CFD Toolbox           |
|  \\    /   O peration     | Version:  3.0.1                                 |
|   \\  /    A nd           | Web:      www.OpenFOAM.org                      |
|    \\/     M anipulation  |                                                 |
\*---------------------------------------------------------------------------*/
FoamFile
{
    version     2.0;
    format      ascii;
    class       volScalarField;
    location    "0.484533";
    object      k;
}
// * * * * * * * * * * * * * * * * * * * * * * * * * * * * * * * * * * * * * //

dimensions      [0 2 -2 0 0 0 0];

internalField   nonuniform List<scalar> 
21246
(
0.230319
0.229272
0.118166
0.054578
0.0275119
0.0160187
0.0113762
0.00939108
0.0084145
0.00784303
0.00744024
0.270407
0.294384
0.110101
0.0612203
0.0321146
0.0184301
0.0123278
0.00966139
0.00836179
0.00763538
0.007167
0.310291
0.338705
0.104818
0.0690913
0.0360035
0.0211044
0.0136146
0.0102251
0.00854479
0.00761437
0.0070284
0.345834
0.319634
0.102695
0.0726683
0.0367971
0.0229121
0.0146149
0.0107981
0.00881902
0.00771521
0.0070338
0.374434
0.28352
0.100324
0.0711414
0.0358725
0.0238501
0.0151542
0.0112528
0.00910336
0.00788398
0.00712738
0.397748
0.253837
0.0973468
0.0671912
0.0347504
0.0239835
0.0152968
0.0115293
0.00931137
0.00803278
0.00723263
0.416226
0.233052
0.0942315
0.062857
0.0338266
0.02354
0.01522
0.0116452
0.00942669
0.00813753
0.00731197
0.428333
0.218489
0.090932
0.0588974
0.0329623
0.0228411
0.015042
0.0116437
0.00946505
0.00820254
0.00739862
0.436392
0.208432
0.0878975
0.0557163
0.0321719
0.0221343
0.0148407
0.0115787
0.00945557
0.00823172
0.00744411
0.442805
0.204117
0.085802
0.0534876
0.0316161
0.021574
0.014675
0.0114992
0.00942394
0.00823578
0.00745708
0.4448
0.205302
0.085032
0.0520596
0.0313328
0.0211895
0.0145731
0.0114355
0.00939067
0.00822909
0.00746356
0.442696
0.208026
0.0852859
0.0514163
0.0312852
0.0209621
0.0145479
0.0114047
0.00937212
0.00822556
0.00745994
0.437424
0.212412
0.0870357
0.0515277
0.0316757
0.0210268
0.0146827
0.0114493
0.00939854
0.00824256
0.0074653
0.429414
0.219453
0.0914197
0.0528027
0.0326301
0.0214758
0.0150351
0.0116096
0.00950033
0.00829717
0.0074965
0.418748
0.227594
0.0971593
0.0550229
0.034075
0.0223158
0.0156184
0.0119161
0.00969669
0.00840385
0.00756115
0.406081
0.236885
0.104841
0.058532
0.0362381
0.0236838
0.0165324
0.0124404
0.0100258
0.00859242
0.00767688
0.391768
0.247703
0.115637
0.0641132
0.0395662
0.0258181
0.0179378
0.0133022
0.0105626
0.00891341
0.00787451
0.37584
0.259546
0.129203
0.0721684
0.0445146
0.0290383
0.0200658
0.0146699
0.0114297
0.00945011
0.0082079
0.358613
0.272002
0.146082
0.0836394
0.0519128
0.0339534
0.0233669
0.0168643
0.0128604
0.0103647
0.00878704
0.340434
0.284106
0.166784
0.09985
0.0631739
0.0417125
0.0287106
0.0205219
0.0153222
0.011991
0.00984348
0.321469
0.29423
0.191355
0.122463
0.0805395
0.0544308
0.0378436
0.0270018
0.0198447
0.01509
0.0119264
0.302226
0.299658
0.218998
0.153392
0.107475
0.0759416
0.0543268
0.0393351
0.0288915
0.0216012
0.0165184
0.280203
0.29438
0.245569
0.192801
0.147956
0.112348
0.08497
0.0641726
0.0485065
0.0367729
0.0280149
0.26826
0.291566
0.267879
0.234084
0.198281
0.164449
0.134519
0.109018
0.087764
0.0703108
0.0560474
0.258903
0.24805
0.114834
0.0538687
0.0270294
0.0159066
0.011555
0.00977611
0.0089512
0.00850133
0.00820594
0.314441
0.384757
0.101812
0.0602467
0.03051
0.0180065
0.0127608
0.010637
0.00969933
0.00920991
0.0088897
0.361296
0.451504
0.10135
0.0689348
0.0337546
0.0202314
0.0141852
0.0118475
0.010928
0.0105664
0.0104017
0.397099
0.410001
0.103214
0.0719984
0.0348515
0.0219209
0.0154913
0.0130846
0.0122536
0.0120656
0.0121201
0.42031
0.345876
0.101814
0.0694332
0.0347345
0.0229738
0.01655
0.0141992
0.01346
0.0134028
0.0136064
0.433361
0.294858
0.0978529
0.0646519
0.0342156
0.0235409
0.0174302
0.0152962
0.0147993
0.0151667
0.0160791
0.439629
0.258542
0.093012
0.0599459
0.0336433
0.0238519
0.0182058
0.0163915
0.0162355
0.0171808
0.0190187
0.440372
0.231808
0.0879375
0.0559299
0.0331328
0.0240771
0.0189171
0.0174731
0.0176812
0.0192231
0.0219937
0.438375
0.21205
0.0832445
0.0527495
0.0327935
0.024315
0.0195937
0.0185032
0.0190096
0.0209713
0.0241355
0.435978
0.197267
0.0792852
0.0503281
0.0327189
0.0245807
0.0202691
0.0194336
0.0201589
0.0224013
0.0260361
0.43413
0.187796
0.0762632
0.048684
0.0329434
0.0249056
0.0209653
0.0202297
0.0210878
0.0234415
0.0273914
0.430837
0.181943
0.0739724
0.0476239
0.0333996
0.0253088
0.0216729
0.0208862
0.0217819
0.0240423
0.0279732
0.426633
0.178315
0.0732328
0.0471918
0.0341347
0.025932
0.0224633
0.0215007
0.0223333
0.0243583
0.0279606
0.42169
0.177576
0.0744013
0.047471
0.0351659
0.026835
0.0233526
0.022116
0.0227468
0.0244176
0.027433
0.415954
0.178432
0.0767889
0.0483927
0.0364219
0.0280235
0.0243656
0.0227722
0.0230526
0.0242626
0.0265154
0.40955
0.180989
0.0806113
0.0501372
0.0379655
0.0295369
0.02556
0.0235339
0.023317
0.0239686
0.0253774
0.402472
0.185327
0.086205
0.0530151
0.039972
0.0314368
0.0270141
0.0244906
0.0236499
0.0236571
0.0242192
0.39453
0.191235
0.0936961
0.0573833
0.0427292
0.0338351
0.0288432
0.0257587
0.024205
0.0234961
0.023234
0.385446
0.198514
0.103403
0.0637977
0.046754
0.0370091
0.0312509
0.0275091
0.0251879
0.0237125
0.0226668
0.374743
0.206889
0.115808
0.0731292
0.0529581
0.041591
0.0346711
0.0300574
0.0268901
0.0246074
0.0228048
0.361497
0.21562
0.131372
0.0866187
0.0628732
0.0489237
0.0401091
0.0341189
0.0298357
0.0266049
0.0239922
0.343639
0.222923
0.150197
0.105886
0.0789556
0.0615958
0.0498158
0.0414489
0.0352787
0.0305454
0.0267355
0.316574
0.223634
0.169571
0.131159
0.103667
0.0833875
0.0680054
0.0560864
0.0472194
0.0410063
0.0367976
0.262131
0.218229
0.189776
0.169807
0.15305
0.138119
0.12451
0.112048
0.100127
0.088502
0.0773278
0.547849
0.756526
0.405408
0.230712
0.12326
0.0675905
0.0414805
0.0301648
0.0251902
0.0227602
0.0214623
0.556402
0.79726
0.466047
0.273163
0.153302
0.0829448
0.0477518
0.0323582
0.0260126
0.0231649
0.0217387
0.535812
0.686659
0.481699
0.305488
0.179378
0.0982488
0.0556273
0.0355794
0.0273591
0.0239204
0.0224298
0.487631
0.588182
0.472608
0.318285
0.198045
0.111878
0.0635786
0.0393875
0.0291068
0.0249583
0.0233678
0.425307
0.524697
0.456639
0.324413
0.211746
0.125496
0.0716368
0.0435901
0.0311995
0.0262361
0.0244628
0.35889
0.482544
0.441676
0.331234
0.225974
0.139441
0.0816328
0.0488967
0.0336784
0.0277261
0.025654
0.293849
0.453244
0.430227
0.339733
0.24198
0.155418
0.0934126
0.056045
0.0373256
0.0295511
0.0270237
0.233677
0.433511
0.424332
0.349985
0.259416
0.173562
0.107646
0.0651969
0.0423654
0.0322293
0.0287041
0.182208
0.420514
0.425642
0.362923
0.278455
0.193882
0.124697
0.0769712
0.0493155
0.0360487
0.0309418
0.143834
0.415106
0.435743
0.380123
0.299847
0.216599
0.14481
0.0919205
0.058826
0.041526
0.034087
0.127105
0.426941
0.459324
0.404744
0.324907
0.241748
0.167722
0.110119
0.0713632
0.0492355
0.0386111
0.134204
0.455546
0.501746
0.443289
0.357204
0.270436
0.193327
0.131352
0.0870959
0.0596723
0.0450744
0.141978
0.471019
0.554615
0.500907
0.403246
0.306532
0.223158
0.156031
0.106263
0.0732802
0.0540584
0.135518
0.443579
0.584582
0.568554
0.467196
0.355507
0.260513
0.185563
0.129428
0.090519
0.0661346
0.120082
0.385736
0.565835
0.618295
0.541503
0.419671
0.308773
0.221965
0.157474
0.111872
0.0818468
0.102059
0.32061
0.504379
0.621465
0.603732
0.493398
0.369652
0.267844
0.192102
0.138277
0.101847
0.0842615
0.257444
0.420969
0.570575
0.624863
0.558273
0.438049
0.323802
0.23497
0.17102
0.127039
0.0693333
0.202355
0.334504
0.481931
0.590001
0.588689
0.49858
0.384483
0.285349
0.21069
0.158276
0.058825
0.160632
0.257199
0.379981
0.508782
0.569697
0.532201
0.438394
0.338383
0.255817
0.195287
0.0536653
0.132905
0.19656
0.287916
0.410504
0.511104
0.529861
0.472732
0.384539
0.300444
0.23486
0.0532771
0.120747
0.166812
0.231389
0.323478
0.435206
0.496594
0.477532
0.409631
0.331474
0.266292
0.061945
0.130971
0.176018
0.226201
0.287685
0.365244
0.439908
0.445027
0.397296
0.331001
0.272635
0.125741
0.257064
0.319437
0.349133
0.357299
0.35576
0.351434
0.343244
0.324722
0.289228
0.244741
0.161029
0.187076
0.202155
0.216036
0.22486
0.227987
0.230508
0.239227
0.255798
0.259418
0.236495
0.48317
0.566945
0.35001
0.188193
0.102722
0.0598497
0.0391047
0.0295424
0.0250273
0.0226701
0.0213001
0.363438
0.44505
0.301568
0.190872
0.110539
0.065376
0.0421686
0.0311313
0.0259066
0.0232229
0.0216785
0.351697
0.430581
0.291967
0.210422
0.132499
0.079545
0.0491668
0.0343231
0.0275113
0.024224
0.0224647
0.344097
0.400615
0.275659
0.214072
0.144642
0.0917107
0.0576453
0.0390227
0.0300079
0.0256468
0.0234144
0.336328
0.358728
0.261832
0.210441
0.1456
0.0946923
0.0611523
0.0423026
0.0326397
0.0277091
0.0250594
0.328257
0.321701
0.249258
0.203321
0.14354
0.0961189
0.0636016
0.0446629
0.0347285
0.0296434
0.0269848
0.320368
0.292726
0.238488
0.196198
0.140863
0.096727
0.0655674
0.0468565
0.0367774
0.0315472
0.0287944
0.312842
0.270466
0.229406
0.190278
0.138804
0.0975385
0.0676132
0.0490978
0.038858
0.0334847
0.0306141
0.306158
0.253442
0.222141
0.186011
0.138065
0.0991136
0.0700976
0.0516907
0.0412642
0.0357559
0.0328937
0.300538
0.240288
0.216642
0.183408
0.138816
0.101599
0.0732338
0.0547662
0.0440341
0.0382657
0.0352037
0.295844
0.23019
0.212655
0.182372
0.141016
0.105118
0.0771274
0.0583935
0.0471986
0.0410424
0.0376962
0.291905
0.221987
0.209503
0.182537
0.144285
0.109558
0.0817665
0.0626
0.0507935
0.0441099
0.0403303
0.288797
0.215069
0.207036
0.183725
0.148541
0.114946
0.0872224
0.0674636
0.0548948
0.0475342
0.0431943
0.285981
0.209299
0.204889
0.185661
0.153831
0.121493
0.0936958
0.0731734
0.0596964
0.0515558
0.0464716
0.283052
0.204227
0.20237
0.187272
0.159302
0.128747
0.101313
0.0801624
0.06574
0.0567777
0.0509745
0.280106
0.199618
0.199368
0.188375
0.16472
0.13663
0.110099
0.088661
0.0734854
0.0638701
0.0575874
0.277205
0.195329
0.195758
0.188738
0.169815
0.144999
0.120123
0.0990044
0.0835172
0.0736397
0.0674356
0.274372
0.191149
0.191398
0.188049
0.174157
0.153492
0.131266
0.111399
0.0963631
0.0868792
0.0816248
0.271681
0.186935
0.18614
0.185942
0.177178
0.161491
0.143078
0.125709
0.112242
0.10408
0.100651
0.269284
0.182599
0.179793
0.181946
0.178099
0.167987
0.154552
0.14111
0.1306
0.124893
0.124122
0.267458
0.178012
0.172098
0.175429
0.175814
0.171401
0.163799
0.155591
0.149435
0.147275
0.149394
0.26695
0.17296
0.162652
0.165469
0.168643
0.169194
0.167499
0.165212
0.164348
0.16643
0.171407
0.26881
0.167258
0.150477
0.150494
0.154332
0.158179
0.161305
0.16439
0.168773
0.175637
0.184372
0.285472
0.161875
0.143029
0.14093
0.144155
0.149852
0.158182
0.170104
0.185354
0.200532
0.209313
0.308318
0.439498
0.395749
0.321095
0.239995
0.167498
0.111862
0.0732571
0.0473156
0.0301069
0.0193104
0.257689
0.390254
0.375323
0.311691
0.232906
0.161561
0.107117
0.0693246
0.0441294
0.0277458
0.0176408
0.198526
0.351952
0.354797
0.308731
0.238167
0.167642
0.111124
0.0712345
0.0448304
0.0279088
0.0175449
0.173586
0.313589
0.333714
0.305114
0.244615
0.176515
0.118495
0.0762345
0.0477704
0.0293762
0.0181053
0.155663
0.277334
0.30436
0.291109
0.24435
0.182985
0.12551
0.0810459
0.0500849
0.0301045
0.0181648
0.145545
0.252059
0.280166
0.273199
0.235245
0.180908
0.126393
0.0825036
0.0515584
0.0313245
0.0190932
0.137821
0.232388
0.260921
0.256956
0.223917
0.175001
0.124431
0.082522
0.052262
0.0321257
0.0196835
0.133801
0.21846
0.245464
0.242181
0.212604
0.167933
0.121
0.0814059
0.0523043
0.0326666
0.0205966
0.130609
0.207612
0.232638
0.229461
0.202204
0.160841
0.117079
0.079783
0.0520209
0.0329956
0.0210366
0.127677
0.198328
0.221781
0.218778
0.193309
0.154564
0.113409
0.0780967
0.0515371
0.0330357
0.0210567
0.125009
0.190254
0.212551
0.209856
0.185905
0.149303
0.110261
0.0765563
0.0509728
0.0329339
0.0212592
0.123141
0.183542
0.204799
0.202381
0.179725
0.144939
0.107659
0.0752642
0.0504613
0.0327979
0.0212496
0.12177
0.177786
0.198265
0.196247
0.174813
0.14161
0.105775
0.0744019
0.0501853
0.0328087
0.0214537
0.12035
0.172581
0.192719
0.191434
0.171307
0.139523
0.104824
0.0741487
0.0502775
0.0330506
0.0218787
0.119453
0.16817
0.188114
0.187732
0.168996
0.138568
0.104798
0.0745575
0.0507904
0.033502
0.0221045
0.118949
0.164261
0.184309
0.185115
0.167967
0.13891
0.105882
0.0757844
0.0518297
0.0342261
0.022489
0.118466
0.160488
0.181117
0.183623
0.168445
0.14087
0.108398
0.0780778
0.0535522
0.0353128
0.0230628
0.118316
0.156921
0.178481
0.183169
0.170443
0.144618
0.112601
0.0816904
0.0561626
0.0369069
0.02381
0.118858
0.153347
0.175976
0.183335
0.173849
0.150465
0.118873
0.086991
0.0599896
0.039285
0.0250785
0.120131
0.149495
0.173343
0.183597
0.177808
0.157446
0.127038
0.094318
0.065474
0.0428763
0.0271513
0.122318
0.145155
0.170161
0.183522
0.181831
0.165128
0.13663
0.103565
0.0729397
0.0482345
0.0305942
0.126464
0.139917
0.166437
0.182424
0.184928
0.172479
0.146939
0.114662
0.0829234
0.0561997
0.0363019
0.130779
0.135437
0.160843
0.17989
0.186256
0.178311
0.156916
0.127178
0.0957965
0.0677361
0.0455248
0.149746
0.140079
0.167255
0.176535
0.181383
0.176906
0.161619
0.137808
0.110093
0.0829374
0.0595523
0.274919
0.368271
0.368041
0.332313
0.276216
0.205839
0.139688
0.0924499
0.0594905
0.0372971
0.0235669
0.192581
0.265232
0.310784
0.314984
0.288701
0.239483
0.179181
0.123307
0.0794093
0.0501301
0.0309332
0.137369
0.268657
0.296303
0.301251
0.288912
0.256771
0.208163
0.153955
0.105397
0.0678901
0.0431551
0.152003
0.256307
0.347587
0.338263
0.309539
0.274833
0.231116
0.180422
0.130353
0.0884996
0.0590732
0.171263
0.259058
0.403719
0.464758
0.40582
0.332487
0.267938
0.209412
0.155505
0.109254
0.0756313
0.191237
0.263952
0.401351
0.560876
0.583257
0.475743
0.356337
0.26122
0.188604
0.132544
0.0928324
0.210572
0.27465
0.393257
0.556896
0.712052
0.682382
0.523775
0.364301
0.246072
0.165212
0.112378
0.228225
0.287528
0.388119
0.531106
0.704383
0.826874
0.730264
0.526463
0.343681
0.217421
0.139669
0.244237
0.30226
0.387321
0.501887
0.653232
0.831826
0.88178
0.710537
0.478377
0.294934
0.179405
0.258794
0.318734
0.391421
0.476263
0.592007
0.761494
0.920278
0.855733
0.620531
0.389487
0.230983
0.272297
0.337424
0.4004
0.457124
0.536032
0.67399
0.862052
0.921187
0.732432
0.480615
0.286694
0.285591
0.358222
0.41327
0.445472
0.49247
0.593799
0.770306
0.91172
0.793706
0.546696
0.33455
0.299484
0.382152
0.429571
0.441573
0.463269
0.531655
0.67426
0.849704
0.804202
0.57529
0.361817
0.314967
0.409654
0.448483
0.443666
0.445823
0.487944
0.586811
0.74279
0.788229
0.567151
0.364878
0.331001
0.441449
0.471245
0.449028
0.431539
0.450295
0.512376
0.607802
0.688752
0.540986
0.345868
0.348503
0.479948
0.500623
0.459085
0.418996
0.412236
0.439934
0.487481
0.526851
0.492662
0.3309
0.36824
0.52758
0.540327
0.477955
0.413621
0.382762
0.38394
0.40232
0.420793
0.411406
0.31769
0.391216
0.587264
0.5963
0.513092
0.424275
0.372988
0.356828
0.358905
0.363897
0.355804
0.315713
0.419944
0.664096
0.680879
0.580797
0.466844
0.396998
0.371691
0.370067
0.37356
0.371073
0.361136
0.459461
0.766553
0.808891
0.711715
0.581078
0.491254
0.453257
0.437918
0.418842
0.389295
0.368002
0.416393
0.78572
0.866277
0.797867
0.673587
0.571631
0.489044
0.411956
0.341504
0.292894
0.243059
0.377862
0.704834
0.802747
0.773962
0.643825
0.483344
0.366054
0.286359
0.227648
0.184295
0.146011
0.301641
0.509595
0.514238
0.43577
0.331345
0.260907
0.21426
0.181868
0.155644
0.130838
0.10552
0.18609
0.157349
0.151703
0.153005
0.156793
0.15953
0.157009
0.146746
0.128976
0.106246
0.0822444
0.097414
0.0954566
0.0950915
0.0943107
0.0909677
0.0849019
0.0728268
0.0514684
0.0249936
0.161125
0.145598
0.133114
0.123817
0.113571
0.0990981
0.0821283
0.0630286
0.0439231
0.153038
0.138177
0.125413
0.117071
0.111863
0.105963
0.0957599
0.0783948
0.056524
0.123141
0.109245
0.100116
0.0974284
0.0984276
0.0979981
0.0945353
0.0835022
0.0652525
0.107434
0.107935
0.101352
0.0915407
0.0745681
0.043518
0.0205044
0.0165124
0.0162041
0.165528
0.160629
0.147094
0.124717
0.0988394
0.0751019
0.0420289
0.0258875
0.0291283
0.157216
0.153465
0.145929
0.136833
0.120529
0.0970877
0.0569608
0.0343796
0.0387112
0.128103
0.131466
0.131482
0.127785
0.120984
0.105507
0.0684704
0.0429438
0.0469502
0.004428
0.00460256
0.00461773
0.012246
0.0432467
0.00438378
0.0114414
0.00454767
0.00437458
0.0042415
0.0427027
0.00455662
0.00371869
0.00336949
0.00448422
0.00430333
0.0032173
0.0116707
0.00429276
0.00425123
0.00411455
0.00458677
0.00466506
0.0115408
0.00449194
0.00337383
0.00377081
0.010881
0.0601811
0.0450982
0.00326814
0.00409696
0.0032165
0.00453708
0.00426193
0.00459345
0.0108698
0.00448687
0.00309583
0.00439046
0.00532486
0.00454609
0.00342699
0.00465792
0.0614238
0.0142376
0.0033007
0.0230189
0.00428428
0.00432577
0.0434709
0.0043973
0.00829617
0.0035399
0.0043215
0.00412177
0.00456886
0.00440371
0.0592232
0.00444483
0.0052171
0.00766419
0.0520815
0.0127222
0.00710775
0.00426288
0.0414082
0.00433915
0.00460292
0.00423277
0.00327977
0.00427509
0.00693516
0.00446055
0.0210905
0.00425298
0.0043893
0.00459728
0.00983397
0.0731158
0.0486905
0.00990813
0.00449625
0.00462604
0.00438116
0.00720903
0.078485
0.00624597
0.00335942
0.01101
0.004542
0.00441606
0.00607418
0.00434534
0.0721198
0.0364881
0.00864483
0.00400455
0.00371469
0.00432617
0.00464744
0.0191272
0.00416165
0.00401941
0.00318479
0.00455026
0.00300465
0.00464646
0.00372066
0.00413989
0.004512
0.0045607
0.00429063
0.00725748
0.00781794
0.00442323
0.00437469
0.00431503
0.00450564
0.00413681
0.0061292
0.00441855
0.00461974
0.00321122
0.0120599
0.00422473
0.0666663
0.00300429
0.00310756
0.00328185
0.00445721
0.00453814
0.0209016
0.00425537
0.00461461
0.00458526
0.00373412
0.00621339
0.0456193
0.00445698
0.00312785
0.00411765
0.0244589
0.00402393
0.00436562
0.00335002
0.00452767
0.0043311
0.0042888
0.00425942
0.00429035
0.00442209
0.00368301
0.00440188
0.010322
0.00270468
0.00837773
0.00361254
0.00318236
0.00435831
0.0036335
0.00454034
0.00426882
0.00442927
0.0458892
0.00442397
0.0037994
0.00450386
0.00422354
0.00700655
0.00331888
0.00306086
0.00430881
0.00405715
0.0040877
0.00395905
0.00324471
0.00366406
0.0623189
0.00392565
0.00432709
0.00423866
0.00465959
0.0124652
0.00450698
0.0103048
0.00428124
0.0043018
0.00459061
0.0131836
0.00362743
0.00343927
0.0042743
0.00527341
0.00461086
0.00439542
0.00434605
0.00378894
0.00332947
0.00467914
0.00318029
0.00432585
0.00357839
0.00336368
0.00462795
0.00650662
0.00433937
0.00310221
0.00433634
0.00433851
0.0135461
0.00439474
0.0040133
0.00421622
0.00449373
0.00573686
0.00450923
0.00412984
0.0042952
0.00321917
0.00300074
0.00693356
0.0104492
0.00813412
0.00317094
0.00440887
0.00932353
0.00433392
0.00349998
0.026669
0.00375692
0.00425864
0.00428772
0.00441774
0.00358282
0.0662316
0.0396263
0.0046465
0.00456214
0.00455131
0.00413065
0.0341088
0.00401021
0.00512515
0.00450742
0.00490225
0.00451916
0.0034795
0.0290407
0.0760967
0.0034675
0.0134251
0.00519497
0.00430339
0.00394994
0.0043548
0.0041433
0.0044724
0.00313027
0.004277
0.00347492
0.00459241
0.00432613
0.00457502
0.00450966
0.00317276
0.00411683
0.00460614
0.00558874
0.00371718
0.0216653
0.00431564
0.00432051
0.00320612
0.00438816
0.00432653
0.0032727
0.00444866
0.00427754
0.00350642
0.00430265
0.00459595
0.0482991
0.0355387
0.00395114
0.00439381
0.0773673
0.00458726
0.00424286
0.00289056
0.00461486
0.0110824
0.00434597
0.00290596
0.00467838
0.00434222
0.00422544
0.00456609
0.00425631
0.00331113
0.00445397
0.00342889
0.00436139
0.0456611
0.00415535
0.00413832
0.00459807
0.0135308
0.00425938
0.0043456
0.0072607
0.00456261
0.00408555
0.00324259
0.0047116
0.00410834
0.00368329
0.00366299
0.00412819
0.00439603
0.00427264
0.0369381
0.00435567
0.00338133
0.00669557
0.00425505
0.00445356
0.00370109
0.00424218
0.0227079
0.00442628
0.0524075
0.00428342
0.00464931
0.00353701
0.0457441
0.00837269
0.00458667
0.0044744
0.00398317
0.00412789
0.0125594
0.00432222
0.00447913
0.0194326
0.0136215
0.00563284
0.00437723
0.0100623
0.0711388
0.00894285
0.00392629
0.00373477
0.00417463
0.00391235
0.00468914
0.00298252
0.00399722
0.00465917
0.0357992
0.00385679
0.0033891
0.00451669
0.00451267
0.00430791
0.003495
0.00304815
0.00259653
0.0111401
0.00434794
0.00444148
0.0122725
0.0375808
0.0033094
0.00392417
0.00460701
0.00391392
0.00424648
0.00437592
0.00426526
0.0293918
0.00438225
0.00315606
0.00441623
0.0034323
0.0490377
0.0039564
0.00315506
0.034421
0.00358579
0.00443316
0.00527498
0.00305549
0.00452689
0.0453524
0.00708733
0.00448121
0.00429153
0.00461813
0.00551723
0.00310512
0.00440983
0.00466139
0.00286518
0.00321386
0.00710495
0.00812027
0.00549462
0.0043248
0.0371446
0.00447437
0.00427884
0.00345221
0.00341437
0.00458895
0.00407013
0.00364216
0.00455402
0.00323787
0.0047817
0.0282341
0.00329441
0.0130757
0.00359021
0.00397888
0.0041328
0.00443326
0.00474212
0.00439068
0.0089364
0.00448745
0.00315862
0.00343312
0.004103
0.00447343
0.00273362
0.0188508
0.0428185
0.00322269
0.00468833
0.00395369
0.0745875
0.0118421
0.00378496
0.00427379
0.0025031
0.00439549
0.00346277
0.00434401
0.00402229
0.00444656
0.00461328
0.00449846
0.0042155
0.00454635
0.0116506
0.00331857
0.00317696
0.00493907
0.0045919
0.0043405
0.068702
0.00327445
0.00394088
0.00449285
0.00795599
0.00755161
0.00545505
0.00546768
0.0044118
0.00393009
0.0036492
0.00423736
0.00513368
0.00434634
0.00458522
0.00432217
0.00557888
0.0036614
0.00428283
0.00444983
0.0041294
0.0232417
0.00406819
0.00464604
0.00346041
0.0330828
0.00404726
0.00260031
0.00433996
0.00337008
0.00439347
0.00435023
0.00440317
0.00318442
0.0032494
0.00426519
0.00339771
0.00400098
0.00456102
0.00373716
0.00369128
0.00453878
0.00453566
0.0345547
0.00264126
0.00459218
0.00443641
0.0164656
0.00461896
0.0251369
0.00432468
0.00361762
0.00411406
0.00468609
0.038314
0.00478415
0.00338786
0.00445383
0.00359733
0.00411784
0.00459412
0.00442572
0.00457273
0.004222
0.0269115
0.00452263
0.00435268
0.0104007
0.00444509
0.00918186
0.00438664
0.0107193
0.00330127
0.00337324
0.00467809
0.00447532
0.00463279
0.00534009
0.00371881
0.00450344
0.00448901
0.00320157
0.00461426
0.0102825
0.00460383
0.0229494
0.00423204
0.00394987
0.00300537
0.00341999
0.0164454
0.0268418
0.00416596
0.00411079
0.00428115
0.00460469
0.00274644
0.0033734
0.00423684
0.00334413
0.0282864
0.0342634
0.00449061
0.00432513
0.00459564
0.0044238
0.0458226
0.00417419
0.00454126
0.00436804
0.0365251
0.00430386
0.0030498
0.00314513
0.00667441
0.0329233
0.0044324
0.00455979
0.00446227
0.00449002
0.00433426
0.016633
0.00326973
0.0040892
0.00499406
0.00521299
0.0046349
0.00467304
0.0720714
0.00440462
0.00353451
0.01481
0.00494509
0.00471053
0.00409484
0.003599
0.00419992
0.00444423
0.00449707
0.0333879
0.0030875
0.00394347
0.00425322
0.00449984
0.0067199
0.00427138
0.00439882
0.00434423
0.00425934
0.00318898
0.0029794
0.00476765
0.00567045
0.00401391
0.00524502
0.00429636
0.00704717
0.00424133
0.00446315
0.0309757
0.0183362
0.00438287
0.00438633
0.00366779
0.00415339
0.00433499
0.00564955
0.00460577
0.00419327
0.00330136
0.00293584
0.0038166
0.00333529
0.00326272
0.00554761
0.0231588
0.0048933
0.00512729
0.00353419
0.0036672
0.0082988
0.00347746
0.00462088
0.00418095
0.00661994
0.00393527
0.00423082
0.0042149
0.00344034
0.00320546
0.0275477
0.00360466
0.0050872
0.00442527
0.005258
0.0045514
0.0042983
0.00427271
0.003369
0.00422615
0.00450439
0.00422587
0.00459182
0.0227236
0.00610502
0.0252308
0.00424312
0.00427604
0.00399034
0.00286364
0.00437107
0.0159157
0.00427558
0.0386202
0.0350645
0.00443093
0.00279612
0.00465911
0.00321438
0.0168252
0.00316434
0.0261998
0.00364086
0.00427213
0.00463627
0.00368564
0.00328073
0.00412909
0.0700867
0.00436879
0.00407296
0.0046325
0.00374032
0.00422242
0.00326193
0.0045536
0.00440357
0.00440146
0.00379103
0.00361944
0.00456398
0.00340809
0.00437312
0.00424934
0.00319414
0.00407837
0.0147391
0.00518214
0.00290528
0.00409904
0.00371506
0.00359093
0.00556001
0.00326963
0.0120781
0.00446992
0.00337027
0.00449706
0.00440576
0.00668596
0.00466084
0.00342002
0.00336808
0.00430345
0.00418561
0.00412907
0.00471072
0.00458674
0.0456597
0.00271082
0.0220929
0.00412957
0.00397375
0.00358306
0.00476458
0.00441137
0.00347107
0.00376205
0.00338387
0.0045302
0.00339187
0.0290986
0.00454869
0.009363
0.00358984
0.0045033
0.0343628
0.00437707
0.00434293
0.00422375
0.00344587
0.00431432
0.00329996
0.00456978
0.00320997
0.00426819
0.00294115
0.00261948
0.0150518
0.00366941
0.00429084
0.0172348
0.0133649
0.00446192
0.00333888
0.00384907
0.00258889
0.00519536
0.0037058
0.00449346
0.00758332
0.00300415
0.00499479
0.00429087
0.00437511
0.00441444
0.00567401
0.00396864
0.00468989
0.00449526
0.00452659
0.0337073
0.032133
0.00359007
0.00457495
0.00337333
0.00426862
0.004557
0.0045813
0.00462439
0.0044873
0.00449356
0.00324316
0.00510422
0.0105397
0.00304319
0.00426234
0.00442505
0.00450549
0.00376252
0.0195906
0.00459601
0.00405767
0.00353495
0.0158763
0.0118345
0.0046917
0.00391562
0.00734606
0.00442848
0.00446899
0.0109249
0.00421986
0.00456521
0.00421722
0.00730627
0.00399205
0.0038963
0.00455607
0.00409174
0.0062176
0.00714572
0.00456438
0.00304211
0.00255185
0.00372757
0.00830174
0.00464002
0.00428543
0.0118213
0.00292917
0.00256002
0.00460111
0.0042229
0.00446274
0.00432942
0.0045885
0.00556242
0.00343664
0.00896063
0.0149606
0.00278966
0.00454699
0.0490989
0.00466897
0.00427305
0.00467857
0.0044946
0.00441875
0.00442022
0.00339425
0.00634217
0.00274613
0.00441548
0.00740088
0.00442186
0.00468777
0.0043264
0.00438268
0.00422084
0.00449913
0.00455813
0.00432334
0.0543328
0.00437884
0.00426053
0.00478108
0.0181785
0.00430482
0.00450603
0.00750358
0.0558446
0.00429711
0.00452345
0.00290833
0.00820863
0.00464867
0.00454085
0.0042345
0.00400676
0.00323154
0.00459575
0.0101125
0.00291495
0.0231854
0.00306025
0.00457953
0.00331378
0.00564161
0.00444438
0.00441678
0.0044644
0.00460727
0.00398845
0.00962032
0.00426848
0.00458803
0.0356083
0.0026699
0.00393375
0.00570245
0.0046626
0.0045608
0.00322952
0.00311611
0.00334108
0.00439877
0.0268521
0.00429355
0.00332749
0.00431762
0.00328059
0.00309368
0.00360836
0.00343108
0.00419731
0.00452779
0.068178
0.00418303
0.0650055
0.00430451
0.00301284
0.00419711
0.00421182
0.0496318
0.00438118
0.00460393
0.00351455
0.00848767
0.0169964
0.00350738
0.00315242
0.00338631
0.00579132
0.0460418
0.00452115
0.00421975
0.0668964
0.00439511
0.0054832
0.0044969
0.00960463
0.00303987
0.00512317
0.00460533
0.0034176
0.00464474
0.00440843
0.00363857
0.0119347
0.00427849
0.00446163
0.0043194
0.0046126
0.00425292
0.00458685
0.00429749
0.00417487
0.00657424
0.00387082
0.00384868
0.00461041
0.00667603
0.00316276
0.00459591
0.00460728
0.00408459
0.0044389
0.0391021
0.00396657
0.00338565
0.00410135
0.00434589
0.00320154
0.00377762
0.00427838
0.00756655
0.00455384
0.0655902
0.00730445
0.0318406
0.00455391
0.00460234
0.0143689
0.0491267
0.00343522
0.00310144
0.00467571
0.00302167
0.0257575
0.00456326
0.00402723
0.00654544
0.0044759
0.0190787
0.0035974
0.00446178
0.00433005
0.00405255
0.00431802
0.00620878
0.0027468
0.010628
0.0446846
0.00459751
0.00311982
0.00404424
0.00515482
0.00964945
0.0025052
0.00438892
0.00406288
0.003337
0.0045466
0.00466479
0.00467849
0.0185393
0.00412044
0.00460649
0.00370453
0.00268611
0.00334002
0.00452775
0.00837067
0.0040789
0.00407677
0.00391421
0.0045564
0.00429989
0.00446651
0.0145811
0.00448133
0.00435534
0.00399618
0.00367268
0.00450974
0.00417997
0.00450447
0.00437485
0.0048115
0.0475144
0.00296554
0.0548861
0.00967403
0.0459567
0.00418942
0.00422524
0.00334995
0.00462854
0.0033106
0.00608615
0.004283
0.0049205
0.00387615
0.0618674
0.00422437
0.00314326
0.00455159
0.0654489
0.004695
0.0337193
0.00419518
0.00450991
0.0049123
0.00701024
0.00421546
0.00463922
0.00256158
0.00446
0.0116736
0.00558472
0.0240083
0.00327046
0.00607143
0.0146271
0.00404777
0.00461007
0.00370434
0.00454289
0.00343538
0.00334257
0.00846733
0.00390165
0.00308208
0.0537183
0.00437237
0.00432521
0.00434655
0.0045735
0.00287235
0.00339463
0.00421883
0.00334965
0.0382999
0.00452838
0.0553316
0.00733727
0.00451394
0.00478223
0.0040295
0.00324302
0.00314818
0.0237287
0.00441983
0.00452812
0.0448372
0.0043714
0.0045867
0.00355187
0.00454442
0.00443558
0.0638664
0.00445287
0.0370546
0.00394608
0.0083439
0.00429246
0.00429998
0.00365469
0.00330998
0.0125362
0.00444497
0.00275256
0.00648855
0.00318335
0.00280042
0.00528022
0.00440236
0.00424164
0.0226718
0.0117778
0.00406537
0.00432207
0.00359146
0.00380596
0.00444734
0.00374935
0.0392088
0.00425868
0.00468917
0.00450659
0.00403846
0.00311758
0.00332396
0.00331163
0.0760934
0.00462227
0.00587622
0.00555701
0.0045734
0.00400187
0.00424947
0.00428671
0.0724777
0.00458317
0.0178325
0.0266245
0.0045657
0.00449576
0.00469383
0.0372044
0.0263303
0.0226381
0.00333703
0.00456479
0.004299
0.00331861
0.0464787
0.00645331
0.00305905
0.00433968
0.00616103
0.00397518
0.00830323
0.00417455
0.0104298
0.0297106
0.00404861
0.00382667
0.00430542
0.00436087
0.035691
0.00334454
0.00363167
0.00460054
0.00466186
0.0041559
0.0488319
0.0150304
0.0029327
0.0160004
0.00799019
0.00436702
0.0147915
0.0128407
0.0046218
0.00300451
0.00259707
0.00412763
0.069336
0.00453647
0.00442401
0.0042317
0.00511919
0.00307084
0.00435443
0.00498635
0.00461479
0.00456103
0.00468819
0.00325134
0.00442965
0.00520014
0.00425793
0.00456058
0.0465139
0.00427993
0.00339573
0.00360323
0.00422814
0.00351459
0.0053491
0.00453031
0.00456599
0.00448673
0.00313793
0.00449721
0.00429116
0.00442981
0.00341079
0.00460408
0.0032886
0.00281888
0.00428995
0.0123532
0.00422369
0.00467558
0.00441609
0.00458679
0.00324478
0.00413882
0.0033186
0.00412306
0.00420061
0.00451038
0.00466733
0.03181
0.00546841
0.00986576
0.00468828
0.00286122
0.0703814
0.00317716
0.0028321
0.00439327
0.00548859
0.00518926
0.00475625
0.00314493
0.00426422
0.00383804
0.00326092
0.00450254
0.069932
0.0030497
0.00414291
0.00478505
0.00471871
0.00360255
0.00326212
0.012318
0.00301718
0.055224
0.0272408
0.00448761
0.00432974