/*--------------------------------*- C++ -*----------------------------------*\
| =========                 |                                                 |
| \\      /  F ield         | OpenFOAM: The Open Source CFD Toolbox           |
|  \\    /   O peration     | Version:  3.0.1                                 |
|   \\  /    A nd           | Web:      www.OpenFOAM.org                      |
|    \\/     M anipulation  |                                                 |
\*---------------------------------------------------------------------------*/
FoamFile
{
    version     2.0;
    format      ascii;
    class       volScalarField;
    location    "0.0675548";
    object      k;
}
// * * * * * * * * * * * * * * * * * * * * * * * * * * * * * * * * * * * * * //

dimensions      [0 2 -2 0 0 0 0];

internalField   nonuniform List<scalar> 
21246
(
0.481549
0.906862
0.988165
1.04981
1.04205
0.909802
0.670632
0.437315
0.28215
0.195294
0.147967
0.37894
0.643821
0.796648
0.895858
0.93718
0.877506
0.699048
0.453517
0.272047
0.178477
0.131801
0.236767
0.493592
0.642233
0.748925
0.813331
0.802105
0.684518
0.477015
0.277813
0.166569
0.115601
0.138109
0.437979
0.544637
0.634962
0.701479
0.714757
0.641395
0.477016
0.288892
0.162442
0.101916
0.115705
0.395056
0.485562
0.553862
0.60995
0.631102
0.585464
0.458173
0.291371
0.162412
0.0934133
0.10833
0.333642
0.437698
0.493306
0.536151
0.556067
0.525988
0.427123
0.284203
0.161025
0.0879024
0.0931043
0.270809
0.380859
0.440131
0.474038
0.489355
0.467132
0.388846
0.268398
0.156041
0.0834478
0.0800741
0.221369
0.316367
0.383809
0.417704
0.428856
0.410311
0.346664
0.245852
0.146759
0.0784706
0.0687837
0.181568
0.25949
0.323287
0.362438
0.372485
0.355994
0.303091
0.219016
0.133858
0.0724258
0.0591874
0.149078
0.211663
0.266588
0.306533
0.319087
0.304555
0.260162
0.190411
0.118793
0.0655535
0.0508831
0.122733
0.172379
0.217109
0.253754
0.268695
0.256588
0.219473
0.162204
0.103218
0.0583913
0.0443447
0.102186
0.141412
0.176598
0.207632
0.222657
0.213172
0.182596
0.136321
0.0887012
0.05179
0.0390697
0.0862111
0.117671
0.144956
0.170009
0.182904
0.175818
0.151243
0.114542
0.0766286
0.046496
0.0346874
0.0737556
0.0999548
0.121189
0.140796
0.15083
0.145814
0.126685
0.0980214
0.0678628
0.0428927
0.0316417
0.0644195
0.0872312
0.103915
0.118995
0.126847
0.123615
0.109257
0.087018
0.0626429
0.0412565
0.0294652
0.057535
0.0779542
0.091491
0.103554
0.110179
0.108735
0.0985165
0.0812469
0.0608758
0.0415724
0.0275893
0.0522768
0.0710865
0.0826586
0.0930484
0.0995055
0.100183
0.093746
0.080351
0.0625396
0.0439038
0.0258388
0.0483789
0.0659795
0.0764196
0.0863564
0.0939517
0.0976273
0.0951047
0.0848811
0.068418
0.0491438
0.0241542
0.0456258
0.0620167
0.0721363
0.0832982
0.0941466
0.102475
0.104533
0.0970329
0.0804751
0.0585627
0.0224663
0.0433264
0.0589894
0.0706326
0.0857645
0.102861
0.1183
0.125983
0.120695
0.102206
0.0749896
0.0217853
0.0479263
0.0608688
0.0733994
0.0923106
0.121158
0.153535
0.170228
0.165567
0.13963
0.102438
0.0371617
0.0575932
0.0639141
0.0881997
0.158067
0.216383
0.252412
0.266944
0.258093
0.222648
0.158733
0.0413136
0.0940653
0.156786
0.237092
0.299909
0.3411
0.357663
0.35339
0.335951
0.306995
0.253109
0.242084
0.309556
0.377566
0.429807
0.456597
0.453291
0.423566
0.381427
0.341912
0.311414
0.28235
0.512174
0.963705
1.06402
1.09544
1.04417
0.896934
0.680334
0.465758
0.31215
0.219868
0.165124
0.285697
0.548557
0.752746
0.898908
0.962912
0.918455
0.76409
0.554021
0.37467
0.260392
0.190105
0.144605
0.278782
0.45379
0.632064
0.781108
0.855616
0.811569
0.649626
0.454519
0.314026
0.226384
0.117999
0.182319
0.284402
0.41259
0.558827
0.691967
0.757046
0.697599
0.531891
0.376514
0.272513
0.120164
0.176391
0.237874
0.308759
0.401941
0.516356
0.621126
0.656871
0.567784
0.417037
0.313038
0.124865
0.185369
0.237287
0.283311
0.336318
0.405818
0.490675
0.560809
0.550007
0.427131
0.318214
0.130612
0.19744
0.246681
0.282097
0.314014
0.352303
0.406705
0.472879
0.503897
0.433688
0.320947
0.137137
0.211024
0.259868
0.289264
0.308906
0.327152
0.355649
0.403668
0.450177
0.42271
0.326046
0.144411
0.226163
0.275565
0.300235
0.311132
0.315799
0.325351
0.35325
0.397414
0.400942
0.322642
0.152394
0.242938
0.293164
0.313129
0.316658
0.311232
0.307901
0.319884
0.354905
0.376007
0.31728
0.1613
0.261074
0.312186
0.32713
0.323688
0.31004
0.2983
0.300098
0.325252
0.358699
0.316055
0.171797
0.280872
0.332876
0.34236
0.331338
0.310526
0.293392
0.290027
0.304813
0.332465
0.321892
0.183757
0.302883
0.355214
0.359664
0.340502
0.312449
0.290474
0.28323
0.291295
0.308181
0.313612
0.19695
0.327891
0.380928
0.379974
0.352103
0.316263
0.289298
0.278241
0.280297
0.289605
0.29689
0.211147
0.356887
0.411632
0.405218
0.367738
0.322973
0.290228
0.274854
0.270456
0.273263
0.276998
0.227199
0.391743
0.449855
0.438361
0.389893
0.333335
0.290217
0.26487
0.255196
0.254465
0.254891
0.244886
0.433436
0.498023
0.483144
0.421542
0.346557
0.286431
0.253626
0.240581
0.236675
0.235666
0.262007
0.479928
0.55493
0.539817
0.465759
0.371404
0.296705
0.252706
0.23074
0.219941
0.213908
0.27396
0.5214
0.606597
0.595318
0.518434
0.414308
0.323178
0.26371
0.230375
0.2113
0.198622
0.269801
0.539348
0.638858
0.645095
0.575955
0.464332
0.356857
0.282097
0.238648
0.213608
0.197754
0.267476
0.543947
0.658984
0.681928
0.621584
0.50768
0.389327
0.302467
0.251172
0.222405
0.204522
0.268035
0.537536
0.659412
0.689717
0.638753
0.532165
0.414173
0.321632
0.265066
0.234261
0.217647
0.268749
0.520324
0.629835
0.657922
0.617295
0.530077
0.426999
0.336036
0.279488
0.248616
0.236944
0.362179
0.532164
0.587339
0.588503
0.55642
0.495021
0.417233
0.347848
0.300117
0.271728
0.257412
1.36898
1.91991
1.38476
0.877784
0.515242
0.293014
0.165028
0.0925038
0.0519022
0.0295776
0.0178734
0.938021
1.32471
1.11419
0.773288
0.486039
0.290295
0.167689
0.0945807
0.0526257
0.0295165
0.0175336
0.660517
1.0951
0.99864
0.75937
0.50391
0.310475
0.182608
0.103981
0.0579434
0.032191
0.018818
0.533184
0.874344
0.875401
0.739069
0.5307
0.339093
0.202977
0.1168
0.0652728
0.0361388
0.0208621
0.46397
0.721821
0.733409
0.650147
0.494444
0.333613
0.206575
0.120602
0.0671984
0.0366427
0.0206349
0.423783
0.622842
0.637926
0.570125
0.438731
0.303346
0.19313
0.115798
0.0663624
0.0370533
0.0213663
0.395725
0.55006
0.563238
0.503542
0.391135
0.274058
0.177915
0.109281
0.0642145
0.0366634
0.0213804
0.374946
0.493657
0.503342
0.448335
0.349309
0.246642
0.162338
0.10168
0.0611364
0.0357804
0.0217127
0.358824
0.448725
0.455017
0.403511
0.314459
0.223057
0.148338
0.0944695
0.058076
0.0348614
0.0216201
0.345427
0.411671
0.415752
0.367675
0.286566
0.203944
0.136701
0.0882312
0.0552493
0.033821
0.0211361
0.334075
0.380449
0.383327
0.338748
0.264287
0.188693
0.127298
0.0830408
0.0527377
0.0327521
0.0208964
0.324771
0.354132
0.356186
0.314879
0.246163
0.176416
0.119748
0.0788406
0.0506756
0.0318876
0.0206215
0.317315
0.331687
0.333471
0.29539
0.231718
0.166837
0.113955
0.0756682
0.0491664
0.0313014
0.020398
0.311407
0.312331
0.314486
0.279871
0.220753
0.159871
0.109904
0.0735516
0.048233
0.0309698
0.0203765
0.306898
0.295662
0.298363
0.267306
0.212463
0.155038
0.10737
0.0724223
0.04789
0.0309506
0.0204157
0.303968
0.281047
0.2847
0.257436
0.206743
0.152342
0.106411
0.0723571
0.0482195
0.0313077
0.020663
0.302635
0.268028
0.27289
0.25014
0.203794
0.152014
0.107244
0.0735301
0.0493547
0.0321266
0.0211556
0.302589
0.256527
0.261925
0.243665
0.202516
0.153931
0.110143
0.0762436
0.0515495
0.0336515
0.0221322
0.304039
0.246232
0.251614
0.237825
0.202383
0.157565
0.114894
0.0805114
0.0548994
0.0361036
0.0237191
0.307444
0.236888
0.24164
0.232249
0.203009
0.162674
0.121558
0.0866327
0.0597681
0.0397957
0.0262209
0.313619
0.228394
0.231565
0.226322
0.203626
0.168638
0.129987
0.0949821
0.0668117
0.0453692
0.0302476
0.324547
0.220171
0.22106
0.2191
0.202916
0.174225
0.139556
0.105758
0.0768465
0.0538673
0.0368139
0.339934
0.211848
0.208591
0.210212
0.200353
0.178554
0.149484
0.118785
0.0904862
0.0664781
0.0474201
0.353707
0.208914
0.208416
0.203768
0.196042
0.180369
0.158118
0.132646
0.107104
0.0835859
0.0633469
1.34613
2.19228
1.54335
1.07757
0.691987
0.391767
0.210685
0.112265
0.0606154
0.0333164
0.0194424
1.21093
1.72998
1.50942
1.17345
0.8425
0.524551
0.282886
0.150264
0.0782906
0.0407549
0.0225817
0.915679
1.35029
1.37142
1.15915
0.894407
0.608735
0.359422
0.195683
0.10286
0.0523571
0.0278461
0.554839
1.16372
1.24376
1.10984
0.897789
0.649087
0.413657
0.241636
0.131712
0.0679174
0.035987
0.434897
1.26199
1.22892
1.08515
0.891022
0.666946
0.448849
0.279671
0.163218
0.0870201
0.0465083
0.513136
1.4013
1.29371
1.09821
0.890845
0.676098
0.472039
0.309206
0.192622
0.109732
0.0584639
0.586623
1.67339
1.50214
1.17841
0.911035
0.684763
0.487894
0.332203
0.217756
0.132808
0.0751148
0.60339
1.67196
1.7435
1.33283
0.963261
0.699137
0.499464
0.349687
0.23905
0.154245
0.0924404
0.591367
1.56759
1.91189
1.53862
1.05286
0.724667
0.509946
0.362996
0.256934
0.173961
0.109755
0.578908
1.47646
1.99024
1.76578
1.17896
0.764802
0.522047
0.373563
0.271911
0.191938
0.126824
0.567366
1.40638
1.97992
1.95769
1.33113
0.821155
0.538158
0.382975
0.284721
0.208461
0.143589
0.555405
1.34456
1.93351
2.08435
1.48967
0.88981
0.558418
0.392057
0.295916
0.2238
0.159789
0.543103
1.28726
1.86832
2.14023
1.63531
0.965628
0.582691
0.401797
0.306255
0.238292
0.175776
0.530259
1.22125
1.7814
2.1301
1.7513
1.04246
0.610409
0.413171
0.316708
0.252333
0.192599
0.520595
1.14819
1.67115
2.06011
1.82029
1.10985
0.639212
0.426565
0.328283
0.266657
0.210115
0.511939
1.08181
1.53968
1.92309
1.83103
1.15655
0.664924
0.442382
0.342496
0.282792
0.228727
0.503229
1.01459
1.39973
1.71914
1.76672
1.17432
0.685447
0.461649
0.361459
0.302976
0.250181
0.49509
0.945817
1.25049
1.48634
1.57418
1.17223
0.701488
0.487598
0.388878
0.330218
0.276006
0.490101
0.879455
1.09732
1.24863
1.30575
1.13374
0.730414
0.530917
0.434083
0.371299
0.312821
0.494289
0.825442
0.955521
1.03135
1.07222
1.03586
0.806863
0.612212
0.509855
0.435224
0.362645
0.525641
0.819664
0.888206
0.91246
0.939518
0.945168
0.855022
0.688373
0.568594
0.482562
0.391972
0.665292
1.06349
1.10653
1.07378
0.997079
0.907033
0.758501
0.599192
0.476464
0.371516
0.278329
0.449635
0.921885
1.0156
0.788141
0.611196
0.482366
0.376969
0.293293
0.226877
0.174278
0.132313
0.380232
0.303729
0.254878
0.224737
0.205015
0.188261
0.170362
0.150095
0.128053
0.105675
0.08439
0.425749
0.502099
0.209042
0.100031
0.0484676
0.0279531
0.0200889
0.0166074
0.0146113
0.0131609
0.0119331
0.46868
0.637998
0.24923
0.125631
0.0587984
0.0314808
0.0208773
0.0164542
0.014067
0.0124105
0.0110745
0.495873
0.597216
0.287655
0.148713
0.0676399
0.0355072
0.0221152
0.0166499
0.0138287
0.0119398
0.0104328
0.499007
0.539512
0.304109
0.16257
0.074645
0.0392631
0.0235151
0.0170676
0.0138352
0.0117345
0.0100943
0.480532
0.505364
0.312106
0.171195
0.0825795
0.0427422
0.0250211
0.0176683
0.0140509
0.0117662
0.0100442
0.446276
0.487346
0.320392
0.182062
0.0924586
0.0477538
0.026839
0.0184758
0.0144646
0.0120017
0.0101941
0.400747
0.479621
0.331473
0.196755
0.104809
0.054421
0.0300172
0.0197567
0.0150782
0.0124198
0.0105023
0.347735
0.480248
0.346007
0.214669
0.119612
0.0632207
0.0344738
0.0217497
0.016074
0.0130655
0.0109841
0.292008
0.48545
0.365995
0.236615
0.137459
0.0746985
0.040672
0.024674
0.0175099
0.0139495
0.0116697
0.237567
0.491208
0.39367
0.264589
0.1597
0.0897166
0.0493219
0.0289987
0.0196224
0.0151466
0.0125458
0.1898
0.505992
0.431819
0.300036
0.187089
0.108711
0.0609443
0.0352279
0.0227406
0.0168163
0.0136617
0.169276
0.554133
0.491151
0.34724
0.22107
0.132078
0.075867
0.0438049
0.0272609
0.0192006
0.015122
0.190217
0.639856
0.587206
0.418581
0.267996
0.16257
0.0953378
0.0555018
0.0337651
0.0226844
0.0171228
0.220398
0.718732
0.721762
0.532649
0.341769
0.207441
0.122728
0.0719953
0.0432474
0.0278963
0.0200233
0.23259
0.737914
0.853053
0.695137
0.459963
0.279113
0.164689
0.0966191
0.0575058
0.0359055
0.0244581
0.22999
0.698842
0.91686
0.872097
0.633371
0.396462
0.234556
0.136982
0.0806694
0.0490099
0.0317354
0.221208
0.639989
0.902765
0.997108
0.839715
0.574022
0.352107
0.207467
0.12153
0.0723064
0.04478
0.211834
0.585358
0.84733
1.03243
1.01455
0.795574
0.532163
0.327809
0.195443
0.115959
0.0699
0.20336
0.537623
0.777189
0.990305
1.0962
1.00279
0.765747
0.51633
0.325028
0.198207
0.119763
0.198242
0.497404
0.708062
0.913186
1.08826
1.1404
1.01428
0.777352
0.536169
0.347177
0.217243
0.209138
0.487203
0.672134
0.853985
1.04882
1.2035
1.22038
1.07236
0.829697
0.585593
0.389923
0.244159
0.531877
0.707458
0.860923
1.01143
1.16163
1.26701
1.24159
1.08166
0.849817
0.614586
0.355683
0.723456
0.909632
1.03781
1.12324
1.16922
1.15994
1.09499
0.98465
0.840495
0.659172
0.304896
0.604583
0.789739
0.929498
1.02862
1.08828
1.10181
1.06465
0.982973
0.861533
0.705404
0.348458
0.378915
0.184238
0.0826629
0.0427294
0.0268058
0.0203506
0.0173374
0.0155817
0.0143195
0.0132638
0.309239
0.31152
0.160216
0.0908739
0.049323
0.0304163
0.0224923
0.0189317
0.0170147
0.0157563
0.0147765
0.326823
0.331367
0.161461
0.109366
0.0626182
0.0380991
0.0266859
0.0215473
0.0189789
0.0174867
0.0164753
0.341908
0.315116
0.157928
0.116718
0.070511
0.0460069
0.0330558
0.0266737
0.0233184
0.0212805
0.0198363
0.351593
0.281693
0.155199
0.119715
0.0749221
0.050463
0.036396
0.0293526
0.0257275
0.0236893
0.0223706
0.357344
0.251805
0.15209
0.118561
0.0761634
0.0528576
0.0385395
0.0313291
0.0276644
0.0257239
0.0245771
0.360871
0.228946
0.148685
0.115801
0.0759907
0.0541291
0.0399059
0.0328003
0.0292604
0.0275691
0.0268051
0.362373
0.211582
0.145084
0.11275
0.0755589
0.0548956
0.0409287
0.0340337
0.0306937
0.0293527
0.0291834
0.363369
0.198329
0.141906
0.110302
0.0755484
0.0555151
0.0418759
0.03515
0.0319676
0.0308898
0.0311171
0.364639
0.188476
0.139371
0.108537
0.0760583
0.0562737
0.0428744
0.0362066
0.0330974
0.0321908
0.0327387
0.366799
0.181334
0.137742
0.10784
0.0770861
0.0573435
0.0439949
0.0372309
0.0340672
0.0331719
0.033717
0.369623
0.175909
0.136603
0.107962
0.0785747
0.0587471
0.0452617
0.0382432
0.034889
0.0338698
0.0343335
0.373546
0.171874
0.136031
0.108866
0.0806091
0.0605685
0.046739
0.0392875
0.03559
0.0343034
0.0345796
0.376764
0.170442
0.13605
0.110492
0.0833969
0.0630239
0.0486335
0.0404977
0.0362524
0.0345308
0.0344768
0.379179
0.170217
0.136209
0.112311
0.0867057
0.0661036
0.0511244
0.0420905
0.0370885
0.0347415
0.034164
0.381031
0.171233
0.136554
0.114301
0.0904764
0.0699014
0.0543498
0.0442641
0.0382859
0.0351025
0.0337985
0.382525
0.173658
0.137212
0.116448
0.0946657
0.0745097
0.0584908
0.0472867
0.0401249
0.035869
0.033617
0.383806
0.17728
0.138256
0.118675
0.0991362
0.0799306
0.0637182
0.0514733
0.0429912
0.0374356
0.034002
0.385077
0.182077
0.139853
0.120949
0.10372
0.0860739
0.070163
0.0571748
0.0473926
0.0403756
0.0355119
0.386653
0.18825
0.142311
0.123312
0.108213
0.0926892
0.0778003
0.064669
0.0538982
0.0454511
0.0390133
0.38902
0.195845
0.145997
0.125893
0.112358
0.0992627
0.0862175
0.0738809
0.0628767
0.0534469
0.0455869
0.393228
0.204621
0.151135
0.128879
0.115817
0.10486
0.0942157
0.0837421
0.0737241
0.0644035
0.0559176
0.400613
0.216054
0.158668
0.132871
0.118565
0.10848
0.0998698
0.0917511
0.0838416
0.0761115
0.0685928
0.428615
0.237016
0.190199
0.171535
0.162481
0.156561
0.15092
0.144365
0.136604
0.13266
0.131243
0.0285249
0.0300715
0.0369405
0.0760515
0.101726
0.11823
0.128299
0.135865
0.138974
0.0492655
0.0509424
0.0812441
0.105803
0.134219
0.161164
0.183167
0.198087
0.210027
0.0622949
0.0663997
0.104279
0.133084
0.157453
0.171074
0.178386
0.186681
0.19789
0.0744907
0.0819585
0.118303
0.140028
0.152526
0.156042
0.15599
0.156814
0.161158
0.02665
0.0656966
0.106366
0.128141
0.139583
0.146429
0.1466
0.142106
0.137893
0.0632104
0.0916296
0.123418
0.153649
0.181064
0.20137
0.215227
0.223817
0.224369
0.0798845
0.114111
0.145059
0.166101
0.180732
0.194089
0.208436
0.218244
0.212562
0.0916088
0.121404
0.144581
0.156334
0.16396
0.167654
0.171843
0.180925
0.172392
0.00442917
0.00460175
0.00461703
0.00447274
0.00536247
0.00439604
0.0245356
0.00454047
0.00439537
0.00496362
0.0054465
0.0045514
0.00478849
0.00451258
0.00448776
0.00445182
0.00453615
0.00447095
0.00447948
0.00481268
0.00495624
0.0111803
0.00466654
0.0047753
0.00449248
0.00450198
0.00479207
0.0233452
0.0747754
0.00482624
0.00455388
0.0048846
0.00470686
0.00453397
0.00495351
0.00459317
0.00476751
0.00448767
0.00472324
0.0044042
0.0128266
0.00454325
0.00466233
0.00465947
0.0107421
0.0204164
0.00485137
0.0223689
0.00497296
0.00454665
0.00480408
0.00440686
0.00478784
0.00467126
0.004573
0.00498334
0.00876416
0.00441163
0.0731285
0.00477439
0.00579346
0.00475232
0.00555248
0.00485072
0.0286349
0.00472729
0.00468411
0.00537915
0.00460267
0.00498033
0.00445648
0.0055125
0.00464198
0.00579907
0.00482439
0.00550204
0.00664993
0.00459647
0.0121856
0.0153181
0.00469377
0.00486057
0.00449475
0.00462557
0.00489268
0.00464467
0.0593403
0.00466682
0.00610597
0.00478464
0.00454272
0.00441873
0.0193173
0.0054574
0.0142291
0.0271356
0.00484166
0.00491082
0.00582246
0.00560327
0.00512832
0.0199108
0.00510516
0.00466667
0.00524808
0.00455072
0.00452245
0.00464636
0.00488391
0.00489113
0.00450485
0.00455833
0.00526153
0.00456124
0.00455694
0.00442472
0.00440472
0.00453661
0.00449294
0.00530552
0.004633
0.00569297
0.00551192
0.00453495
0.0211871
0.00502163
0.00465627
0.00450375
0.00463865
0.00468678
0.0044515
0.00478033
0.0209306
0.00551527
0.00461627
0.00507292
0.00473368
0.0048744
0.00485696
0.00501249
0.00463696
0.00495402
0.0205305
0.00460804
0.00440714
0.00491748
0.00536406
0.00528229
0.00521382
0.00559534
0.00476394
0.00441746
0.00490086
0.00573331
0.00448715
0.00487836
0.00468568
0.00505256
0.00451274
0.00438857
0.0045863
0.00512858
0.00552326
0.00443256
0.00464004
0.00491115
0.00704189
0.00500951
0.00520468
0.0300245
0.00466455
0.0045487
0.00553353
0.00474266
0.00487689
0.00468579
0.0046478
0.00498641
0.0110225
0.00463866
0.00512865
0.0073092
0.0046598
0.00524981
0.00449686
0.00461983
0.00499725
0.00462559
0.00458773
0.012147
0.00487545
0.00455179
0.00464413
0.0128438
0.00461081
0.00440271
0.00441505
0.00557472
0.00471422
0.00467915
0.00518164
0.00461866
0.00472816
0.00453771
0.00462911
0.00466531
0.0053653
0.00464612
0.00445077
0.00441337
0.00482191
0.0043993
0.00466681
0.00492451
0.00448881
0.00479635
0.00450843
0.00481655
0.00496507
0.00459562
0.00468518
0.00456471
0.00479587
0.00457373
0.00452451
0.00441454
0.00526898
0.00494207
0.00479288
0.00544217
0.00518486
0.0047344
0.00483697
0.0056743
0.00496288
0.0457336
0.00469013
0.00464677
0.00455659
0.00454411
0.00481967
0.0045049
0.00464378
0.0112958
0.00550918
0.00517936
0.00451592
0.0045988
0.0193544
0.00456078
0.00459274
0.00479445
0.00526202
0.00451296
0.00479327
0.00440096
0.00515807
0.00447352
0.00501051
0.0050603
0.00461949
0.0052084
0.00443375
0.00457221
0.00450314
0.00470298
0.00493228
0.00554853
0.00551871
0.00448596
0.00541487
0.0045114
0.00467879
0.00483401
0.00439318
0.00447838
0.00455271
0.00444369
0.00498447
0.0052029
0.00553188
0.00460014
0.00468581
0.00468761
0.00476674
0.00439999
0.0480199
0.00458699
0.00496003
0.0046282
0.00461678
0.0201983
0.00506413
0.00470094
0.00467821
0.00442973
0.00517971
0.00456209
0.00494608
0.00454976
0.00444387
0.00484092
0.00499479
0.00484089
0.00521956
0.00489062
0.0045971
0.00500979
0.00645623
0.00442125
0.0269498
0.00456469
0.00480051
0.0047046
0.013889
0.00505929
0.00455097
0.00575866
0.00506643
0.00566327
0.00500754
0.0048446
0.00439247
0.0044177
0.00556963
0.00486503
0.00445118
0.00452259
0.00481157
0.00483324
0.00549496
0.00565003
0.00556477
0.00465251
0.00475943
0.0263974
0.00466219
0.00458477
0.00446992
0.00490766
0.00543802
0.00477772
0.00470414
0.00497242
0.00536062
0.00501396
0.00461107
0.00439378
0.00476794
0.00462717
0.0254238
0.00484167
0.0044939
0.00541026
0.00454584
0.00468916
0.00467125
0.00468375
0.00466059
0.00476606
0.00446655
0.00451581
0.00451625
0.00451102
0.00465408
0.00662928
0.00457045
0.00479326
0.0243465
0.00530881
0.00443749
0.00537898
0.0228863
0.00458878
0.00456395
0.00460794
0.00458178
0.00495428
0.00439181
0.00550525
0.00466544
0.00439673
0.00505397
0.00441913
0.00453327
0.00468766
0.00476562
0.00452468
0.0045069
0.00637051
0.00442694
0.0268284
0.00456606
0.005603
0.00469185
0.0266147
0.00447672
0.00507824
0.00462375
0.00467721
0.00499081
0.00441333
0.004664
0.00462634
0.00468195
0.0134929
0.0127006
0.0051602
0.00461483
0.00484282
0.00495355
0.00452767
0.00464485
0.0046461
0.004796
0.00478023
0.00488432
0.0059248
0.00460451
0.015751
0.00508893
0.00461171
0.0258636
0.00474917
0.00470454
0.00488323
0.005816
0.00478806
0.00613872
0.0298623
0.00448418
0.00503506
0.00461212
0.00493877
0.00538
0.0046644
0.00480655
0.004857
0.00453961
0.00468851
0.00457544
0.0591471
0.00449859
0.00478431
0.00492973
0.00469364
0.00473374
0.00524901
0.00439842
0.0051038
0.00443839
0.00461258
0.00449665
0.00801049
0.00543857
0.0230424
0.00465723
0.00519464
0.00470991
0.00458924
0.00440627
0.00465125
0.00457771
0.00480174
0.00497823
0.00717214
0.00657956
0.00545505
0.00546768
0.00551728
0.00462454
0.00485553
0.00589677
0.00576164
0.00492566
0.00458335
0.00446308
0.0055847
0.0051822
0.00491309
0.00445058
0.00507543
0.00493815
0.00669346
0.00464724
0.0047832
0.00654062
0.00461578
0.00468962
0.00439657
0.00539165
0.00440267
0.00493811
0.00441089
0.00465267
0.00450627
0.00472315
0.00451287
0.00466991
0.00555143
0.00452355
0.00452304
0.00453437
0.00453356
0.019124
0.00465958
0.00469317
0.00544925
0.0193418
0.00461898
0.00482522
0.00459344
0.00616163
0.00488059
0.00515334
0.00472375
0.00474847
0.00450216
0.00445157
0.0045493
0.00501861
0.00459834
0.00442379
0.00456912
0.00486004
0.00466497
0.00451147
0.00438702
0.00494148
0.00443637
0.0308359
0.00503358
0.00499338
0.00443098
0.00638196
0.00467787
0.00447472
0.0046387
0.0132402
0.00520649
0.00450008
0.00448874
0.00452979
0.00461893
0.00449152
0.00460828
0.00470895
0.00496433
0.00477874
0.00468382
0.00459256
0.0225837
0.00482838
0.00536515
0.00491552
0.00512275
0.00460483
0.00465761
0.00535156
0.00478203
0.00457836
0.0151921
0.0381612
0.00449112
0.00453348
0.00459947
0.00474284
0.00468795
0.00459994
0.00453952
0.00439424
0.00467282
0.0052347
0.00466915
0.00462711
0.00513861
0.0055342
0.00443414
0.00458893
0.0044618
0.00479581
0.00447829
0.00487351
0.00464481
0.00487651
0.0194094
0.00495997
0.00464024
0.00467383
0.0140225
0.00441056
0.00451317
0.00449744
0.00472759
0.00480153
0.00545296
0.00456641
0.00513429
0.00443765
0.00448628
0.0242431
0.00465187
0.00456756
0.0048081
0.00450003
0.0102535
0.00510669
0.00551543
0.00489472
0.00542688
0.00460806
0.00488138
0.00473971
0.00562626
0.00474776
0.00526355
0.00454356
0.00481722
0.00552633
0.0044518
0.0202069
0.00471128
0.00439112
0.00439598
0.0046205
0.00510193
0.00440959
0.00575738
0.00460936
0.00486492
0.00460658
0.00468512
0.00452771
0.00464623
0.00460739
0.00919361
0.00496054
0.00559454
0.00489574
0.00443343
0.00690743
0.00476301
0.00439385
0.00462086
0.00556347
0.00573986
0.00468218
0.00591838
0.0050272
0.00461907
0.00464697
0.0186404
0.00458679
0.00528219
0.0044257
0.00538012
0.00455031
0.00499799
0.00497099
0.0047701
0.00545325
0.0053941
0.00512375
0.0045904
0.00448591
0.00575748
0.00560143
0.0055171
0.00526732
0.00463081
0.00467031
0.00564349
0.0228133
0.00542265
0.00466287
0.00486106
0.00443286
0.00462509
0.00465876
0.00469512
0.00455917
0.0046182
0.0198071
0.0046034
0.00482825
0.00463607
0.00451251
0.004581
0.00871904
0.00464386
0.00439225
0.0047815
0.00463217
0.00446867
0.00567964
0.00475145
0.00455421
0.004409
0.004407
0.00480709
0.00490587
0.00456283
0.00462477
0.00439434
0.00496595
0.00449944
0.00479004
0.00451553
0.0107888
0.0046851
0.00486297
0.00467699
0.00456826
0.00488273
0.00469272
0.0256186
0.00446722
0.00455992
0.00448775
0.00545073
0.0285355
0.00583027
0.00542399
0.00451433
0.00514434
0.00487506
0.00526164
0.00481533
0.00458395
0.00474932
0.00464407
0.00470251
0.00489022
0.00459398
0.00468575
0.00481807
0.0055915
0.00459855
0.00511197
0.00532692
0.00452299
0.00451656
0.014009
0.00454906
0.0280588
0.00456684
0.00577638
0.00469475
0.00439599
0.00501901
0.00496896
0.00456768
0.00551629
0.00458597
0.00457209
0.00468852
0.00539481
0.00468947
0.00466532
0.00471782
0.00481161
0.00466935
0.0048331
0.018073
0.00446195
0.00459196
0.00458154
0.00471565
0.00528886
0.00494705
0.00502852
0.00454461
0.00467988
0.00520581
0.00521242
0.00488864
0.00441691
0.00463843
0.00491292
0.0046898
0.00448231
0.0050728
0.00685821
0.00485107
0.00457257
0.00457361
0.00456853
0.00513552
0.0045549
0.00457831
0.00462812
0.00447838
0.00550233
0.00462942
0.0249629
0.00535501
0.004576
0.00549432
0.00442889
0.00449439
0.00452667
0.00477826
0.00459715
0.00507125
0.00440644
0.0198874
0.00471208
0.00549442
0.004519
0.00450734
0.00443212
0.00446164
0.0224922
0.00485921
0.00456202
0.00504383
0.00494984
0.00461422
0.00453129
0.00455635
0.00450324
0.0191441
0.00469041
0.0045605
0.00456437
0.00467792
0.00489345
0.00457978
0.00463942
0.00533311
0.00446837
0.00484215
0.00472537
0.0046002
0.00518419
0.00576929
0.00450817
0.0045888
0.00498686
0.00441961
0.0317539
0.0226947
0.00463578
0.00454431
0.00502947
0.00466887
0.00538748
0.00550444
0.00448383
0.00441583
0.00442075
0.00577246
0.00472299
0.00489601
0.00441359
0.0044844
0.00442272
0.00468812
0.00450575
0.00439427
0.0050381
0.00449317
0.0045592
0.00492953
0.0500316
0.00440145
0.00475852
0.00566826
0.0243326
0.00517746
0.00450464
0.00483303
0.0453459
0.0053627
0.00501521
0.00474758
0.00454097
0.00465138
0.00454023
0.00486888
0.00459556
0.00462151
0.00459725
0.00494028
0.00470544
0.00496432
0.00467132
0.00457672
0.0045954
0.00574929
0.00444333
0.00564108
0.0054363
0.00460689
0.00489893
0.0284795
0.00496996
0.00489466
0.00472543
0.00473848
0.00469596
0.00953944
0.00466355
0.00455619
0.00461665
0.00470828
0.00457346
0.00440575
0.0054248
0.00512953
0.00459867
0.00451734
0.00462101
0.0046246
0.00511909
0.00457751
0.0051749
0.00452766
0.00471995
0.00542845
0.00467922
0.00522805
0.0046791
0.00494644
0.00473755
0.00467175
0.00439404
0.0046056
0.00450624
0.0320587
0.00467314
0.00526252
0.00462612
0.00451587
0.00477545
0.0142163
0.00451918
0.00497245
0.00465178
0.00440261
0.00548641
0.0044904
0.00488982
0.00466804
0.00515586
0.0046032
0.00439716
0.00464918
0.0044133
0.0048795
0.00448488
0.00493244
0.00445684
0.00486863
0.00519908
0.00576665
0.0131644
0.00513106
0.0052051
0.0142074
0.00478814
0.00478865
0.00460933
0.00514882
0.00469688
0.00460052
0.00474482
0.00492102
0.00468503
0.00470415
0.00472693
0.00479659
0.00503344
0.00442002
0.00460958
0.00482097
0.00522189
0.0051646
0.0045547
0.0431457
0.00493823
0.0334538
0.00455323
0.00461374
0.00452948
0.00476588
0.00457717
0.00462562
0.00467574
0.00457986
0.00502352
0.00456022
0.00466727
0.00510699
0.0048235
0.00479736
0.00462589
0.00445147
0.00443022
0.00506341
0.00495378
0.0207735
0.00470312
0.00499053
0.00469968
0.00459929
0.00459761
0.00549204
0.00481239
0.00491611
0.00469679
0.00440175
0.00449734
0.00464478
0.00454402
0.00507207
0.00467875
0.00476231
0.00489492
0.00461203
0.00450982
0.00467177
0.00458162
0.00452065
0.026234
0.00521173
0.00474071
0.00469509
0.00455468
0.00497668
0.00501275
0.0238317
0.00529427
0.00470318
0.00474666
0.00573544
0.00450362
0.00488811
0.00450279
0.0043888
0.00469778
0.00489106
0.00463744
0.0120663
0.0296131
0.0156264
0.00503208
0.00506358
0.00486184
0.00462761
0.0045759
0.00471793
0.00496008
0.00578594
0.00458647
0.00480057
0.00507654
0.00453093
0.00454936
0.00470146
0.00469637
0.0185525
0.00506216
0.00582851
0.0186411
0.00487282
0.00486564
0.00485996
0.00467508
0.0053247
0.00471684
0.00558299
0.0215423
0.00467857
0.00465227
0.0195089
0.00488082
0.00461379
0.00467386
0.00554305
0.00444042
0.00448898
0.00462757
0.00450253
0.0048875
0.0132737
0.00438968
0.00509874
0.00492015
0.00457011
0.0046961
0.00442211
0.00538553
0.0045126
0.00486638
0.00536949
0.00654333
0.0176414
0.00502402
0.00683658
0.00501337
0.00481445
0.00454894
0.00495468
0.00442372
0.00452623
0.00470227
0.00438958
0.00458802
0.00453697
0.00454309
0.00537842
0.00482248
0.00566954
0.0230638
0.00454805
0.00467856
0.00457068
0.00456289
0.00468771
0.00459949
0.0176071
0.00444566
0.00471034
0.00455369
0.00464709
0.00462464
0.00531855
0.00504482
0.00471645
0.00457136
0.00509721
0.00487247
0.00444324
0.00493693
0.004562
0.00477042
0.0052017
0.00470768
0.0051051
0.00468924
0.00450596
0.00500262
0.00471453
0.00458482
0.00538136
0.0397784
0.00549195
0.00585926
0.00571869
0.00457601
0.00508221
0.00483769
0.00534589
0.0800482
0.00543524
0.0195725
0.0058294
0.00456129
0.00449373
0.00464932
0.00500215
0.00482014
0.0251275
0.00446729
0.00456688
0.00488421
0.00458894
0.00477558
0.00604755
0.00466615
0.00443932
0.00549462
0.00471621
0.00484121
0.00544974
0.00486586
0.00784234
0.00485971
0.0047561
0.00487404
0.00496369
0.005046
0.00457403
0.00464402
0.0051767
0.00503086
0.00499166
0.00480212
0.00449052
0.00472436
0.00469657
0.00560195
0.00440369
0.024844
0.00464596
0.00461979
0.00453889
0.00481608
0.00507792
0.00461543
0.00453404
0.00442275
0.00540916
0.0110986
0.00445829
0.00439463
0.00473407
0.00461292
0.00455745
0.00468819
0.00454564
0.00442965
0.00497076
0.00538745
0.00455772
0.00501732
0.0102646
0.00454824
0.00508042
0.0055596
0.00461307
0.00488262
0.00452002
0.00456235
0.00447958
0.00465687
0.00449572
0.00475634
0.00506042
0.00474837
0.00468369
0.00461834
0.00470255
0.00496664
0.00466567
0.00538966
0.00467575
0.00502944
0.00458665
0.00459947
0.00507778
0.00458109
0.00503261
0.00496954
0.00449945
0.00522594
0.00488886
0.00581144
0.00474785
0.00468828
0.00466872
0.00461987
0.00485624
0.00483345
0.0044008
0.0055002
0.00473728
0.00711993
0.00452565
0.00483987
0.00504771
0.00468696
0.00450146
0.0136252
0.00458505
0.00519312
0.00484791
0.00486724
0.00455892
0.00522736
0.0045978
0.00458941
0.00695916
0.0506184
0.00448474
0.00520845
0.00472151
0.00493157
0.00462251
0.00454801
0.00527359
0.00462988
0.00560213
0.0127113
0.00440704
0.00465094
0.0230751
0.00474194
0.0046077
0.00442845
0.00439988
0.00496545
0.00468374
0.00532134
0.00505797
0.00453431
0.00454524
0.00452533
0.004796
0.00456907