/*--------------------------------*- C++ -*----------------------------------*\
| =========                 |                                                 |
| \\      /  F ield         | OpenFOAM: The Open Source CFD Toolbox           |
|  \\    /   O peration     | Version:  3.0.1                                 |
|   \\  /    A nd           | Web:      www.OpenFOAM.org                      |
|    \\/     M anipulation  |                                                 |
\*---------------------------------------------------------------------------*/
FoamFile
{
    version     2.0;
    format      ascii;
    class       volScalarField;
    location    "0.226815";
    object      nut;
}
// * * * * * * * * * * * * * * * * * * * * * * * * * * * * * * * * * * * * * //

dimensions      [0 2 -1 0 0 0 0];

internalField   nonuniform List<scalar> 
21246
(
3.08894e-05
8.27142e-05
7.56456e-05
7.61815e-05
6.50314e-05
5.10733e-05
4.1348e-05
3.55863e-05
3.16013e-05
2.8276e-05
2.51407e-05
2.63271e-05
7.74193e-05
5.63893e-05
7.88445e-05
7.03845e-05
5.39306e-05
4.1543e-05
3.43922e-05
2.97307e-05
2.60546e-05
2.28003e-05
2.64215e-05
6.7302e-05
5.32685e-05
6.50625e-05
7.3296e-05
5.77826e-05
4.28605e-05
3.41755e-05
2.87767e-05
2.4739e-05
2.13107e-05
2.81958e-05
6.04871e-05
5.30412e-05
5.93072e-05
6.96783e-05
6.15113e-05
4.47292e-05
3.45953e-05
2.8485e-05
2.41406e-05
2.0665e-05
3.0028e-05
5.7836e-05
5.31581e-05
5.57977e-05
6.54559e-05
6.48153e-05
4.69387e-05
3.54919e-05
2.86914e-05
2.40638e-05
2.05825e-05
3.12101e-05
5.76346e-05
5.35066e-05
5.29791e-05
5.99038e-05
6.53674e-05
4.95516e-05
3.68331e-05
2.93176e-05
2.43779e-05
2.08279e-05
3.17926e-05
5.91453e-05
5.44359e-05
5.11448e-05
5.44018e-05
6.1426e-05
5.20309e-05
3.87207e-05
3.0331e-05
2.50151e-05
2.13097e-05
3.188e-05
6.23871e-05
5.63324e-05
5.05996e-05
5.04059e-05
5.56501e-05
5.24196e-05
4.11042e-05
3.19111e-05
2.59777e-05
2.20364e-05
3.13989e-05
6.68304e-05
5.94144e-05
5.12383e-05
4.78883e-05
5.01126e-05
5.02336e-05
4.30341e-05
3.39227e-05
2.73662e-05
2.30566e-05
3.04011e-05
7.18846e-05
6.3883e-05
5.30951e-05
4.66418e-05
4.5594e-05
4.61293e-05
4.33451e-05
3.60952e-05
2.91553e-05
2.43789e-05
2.91418e-05
7.79692e-05
7.00575e-05
5.64611e-05
4.68968e-05
4.2783e-05
4.19186e-05
4.15442e-05
3.76736e-05
3.1275e-05
2.60495e-05
2.78598e-05
8.5873e-05
7.83881e-05
6.16095e-05
4.87689e-05
4.18334e-05
3.89778e-05
3.86942e-05
3.78377e-05
3.33749e-05
2.80871e-05
2.68609e-05
9.5521e-05
8.93541e-05
6.89585e-05
5.23403e-05
4.24951e-05
3.74995e-05
3.60244e-05
3.64619e-05
3.47741e-05
3.03676e-05
2.64235e-05
0.000106475
0.000103406
7.92308e-05
5.80218e-05
4.47915e-05
3.74579e-05
3.42552e-05
3.4282e-05
3.47742e-05
3.24429e-05
2.66581e-05
0.000120079
0.000121348
9.3222e-05
6.63473e-05
4.89749e-05
3.89711e-05
3.38193e-05
3.2457e-05
3.34733e-05
3.3565e-05
2.75717e-05
0.000135983
0.000143554
0.000112128
7.8312e-05
5.55666e-05
4.22135e-05
3.48245e-05
3.16541e-05
3.17661e-05
3.32017e-05
2.81774e-05
0.000151192
0.000168702
0.000137111
9.55487e-05
6.56767e-05
4.77652e-05
3.75302e-05
3.22307e-05
3.06373e-05
3.17418e-05
2.78791e-05
0.000164115
0.000194405
0.000168178
0.000119817
8.09405e-05
5.67238e-05
4.25896e-05
3.4634e-05
3.08746e-05
3.0393e-05
2.66378e-05
0.000172378
0.000216786
0.000202743
0.00015237
0.00010373
7.10791e-05
5.13647e-05
3.97322e-05
3.32201e-05
3.04055e-05
2.45129e-05
0.000174429
0.00023175
0.000234835
0.00019194
0.000136634
9.41173e-05
6.65777e-05
4.94768e-05
3.90456e-05
3.31113e-05
2.14981e-05
0.000163516
0.000235298
0.000257666
0.000233427
0.000181168
0.00013075
9.3419e-05
6.81357e-05
5.15373e-05
4.09126e-05
1.88892e-05
0.000149642
0.000228001
0.000266749
0.000266344
0.000231565
0.000183411
0.000138659
0.000103352
7.75741e-05
5.93971e-05
1.45204e-05
0.000117013
0.000168053
0.000207506
0.000229086
0.000230767
0.000214056
0.000184577
0.000151311
0.000120939
9.54105e-05
1.09039e-05
3.92519e-05
5.47145e-05
7.49732e-05
9.6708e-05
0.000118388
0.000137131
0.000145665
0.000143532
0.000133819
0.000119245
2.5431e-05
7.47013e-05
7.28215e-05
7.13456e-05
6.31111e-05
5.15987e-05
4.34473e-05
3.83933e-05
3.48291e-05
3.1854e-05
2.90463e-05
1.77701e-05
6.55904e-05
7.67353e-05
7.79749e-05
6.99172e-05
5.79568e-05
4.89335e-05
4.33304e-05
3.95605e-05
3.65433e-05
3.37126e-05
1.82265e-05
6.06426e-05
7.62431e-05
9.13389e-05
8.31827e-05
6.95581e-05
5.81113e-05
5.1041e-05
4.67739e-05
4.38534e-05
4.13246e-05
2.0642e-05
5.69343e-05
7.43278e-05
9.99977e-05
9.89771e-05
8.90264e-05
7.71463e-05
6.83533e-05
6.26021e-05
5.85685e-05
5.54689e-05
2.363e-05
5.30339e-05
7.493e-05
0.000105165
0.000106559
9.76173e-05
8.49458e-05
7.56257e-05
7.00368e-05
6.68306e-05
6.48527e-05
2.65469e-05
5.00363e-05
7.59218e-05
0.000106952
0.000110143
0.000102952
9.0679e-05
8.17632e-05
7.68285e-05
7.47413e-05
7.44154e-05
2.92846e-05
4.79582e-05
7.66978e-05
0.000107218
0.000112049
0.000106799
9.52731e-05
8.70788e-05
8.28897e-05
8.18757e-05
8.3114e-05
3.18604e-05
4.65621e-05
7.72256e-05
0.000107067
0.000113575
0.00011003
9.94084e-05
9.20334e-05
8.85803e-05
8.85449e-05
9.11859e-05
3.4111e-05
4.56197e-05
7.76019e-05
0.000107081
0.000115379
0.0001131
0.000103512
9.6832e-05
9.3889e-05
9.42802e-05
9.69479e-05
3.60236e-05
4.49431e-05
7.79852e-05
0.00010735
0.000117581
0.000116388
0.000107813
0.000101652
9.90484e-05
9.97003e-05
0.00010251
3.75761e-05
4.43774e-05
7.82647e-05
0.000108006
0.000120125
0.00012011
0.000112452
0.000106626
0.000104228
0.000105124
0.000108321
3.88552e-05
4.38445e-05
7.84139e-05
0.000108914
0.00012295
0.000124292
0.000117494
0.000111841
0.000109509
0.000110601
0.000114147
3.97871e-05
4.32322e-05
7.83604e-05
0.000109938
0.000126036
0.000128977
0.000123041
0.000117393
0.000114941
0.000116127
0.000120158
4.02464e-05
4.1219e-05
7.59239e-05
0.000109088
0.000127826
0.000133271
0.000128881
0.000123369
0.000120632
0.000121715
0.000126103
4.01757e-05
3.88718e-05
7.11609e-05
0.000105243
0.00012651
0.000135181
0.000133741
0.000129404
0.000126712
0.000127593
0.000132131
3.95394e-05
3.62941e-05
6.43542e-05
9.80358e-05
0.000121536
0.000133609
0.000136242
0.000134556
0.000132835
0.000133726
0.000138213
3.83241e-05
3.36363e-05
5.61605e-05
8.74096e-05
0.000112332
0.000127478
0.000134536
0.000136843
0.000137678
0.000139546
0.000144164
3.64477e-05
3.10535e-05
4.77422e-05
7.43774e-05
9.89737e-05
0.000116222
0.000126996
0.000133531
0.00013826
0.000142836
0.000148718
3.38431e-05
2.85086e-05
3.98809e-05
6.05035e-05
8.24303e-05
0.000100063
0.000112975
0.000122501
0.000130681
0.000138818
0.00014765
3.04789e-05
2.58464e-05
3.29151e-05
4.73048e-05
6.45697e-05
8.03808e-05
9.33649e-05
0.00010385
0.000113265
0.000122987
0.000133869
2.63189e-05
2.28387e-05
2.68332e-05
3.58071e-05
4.76156e-05
5.97199e-05
7.07097e-05
8.02119e-05
8.87419e-05
9.71794e-05
0.00010638
2.13529e-05
1.92096e-05
2.13368e-05
2.62834e-05
3.31709e-05
4.08591e-05
4.84874e-05
5.55866e-05
6.20881e-05
6.82155e-05
7.43402e-05
1.56152e-05
1.44028e-05
1.55168e-05
1.78609e-05
2.11457e-05
2.50041e-05
2.91018e-05
3.32051e-05
3.71829e-05
4.09871e-05
4.46279e-05
9.44979e-06
9.71628e-06
1.1261e-05
1.31051e-05
1.52206e-05
1.74915e-05
1.97342e-05
2.34036e-05
2.86704e-05
3.55678e-05
4.35987e-05
4.10579e-05
0.000226041
0.000394112
0.000550909
0.000633549
0.000634873
0.000619189
0.00064035
0.000672726
0.000642218
0.000526747
2.98675e-05
0.00012774
0.000252018
0.000387867
0.000496374
0.000542296
0.000545675
0.000575728
0.000635208
0.000623563
0.000510146
2.37936e-05
8.90717e-05
0.000183065
0.000292131
0.000395552
0.000460241
0.000477418
0.000483613
0.000541732
0.000601895
0.000505325
1.85389e-05
7.91802e-05
0.000149344
0.00023578
0.000326698
0.000395991
0.000424213
0.000422532
0.000441602
0.000506742
0.000499071
1.535e-05
8.34633e-05
0.000136632
0.000204078
0.000280811
0.000347074
0.000381482
0.000381274
0.000377125
0.000405157
0.000438097
1.5285e-05
9.45226e-05
0.000137557
0.000189184
0.000251578
0.000310725
0.000346681
0.000349971
0.000336953
0.000337043
0.000358014
1.52204e-05
0.000100768
0.000143229
0.000184354
0.000234101
0.000284397
0.000318341
0.000324079
0.000309075
0.000294875
0.000296099
1.49079e-05
0.00010025
0.000144059
0.000183145
0.000223792
0.000265235
0.000294996
0.000301425
0.000287001
0.000266913
0.000254985
1.4288e-05
9.62567e-05
0.000140518
0.000178841
0.000216109
0.000250069
0.000274917
0.0002808
0.000267732
0.000246219
0.000227818
1.35592e-05
9.05655e-05
0.000134826
0.000170431
0.000206961
0.000236283
0.000256733
0.000261739
0.000250363
0.000229848
0.000209675
1.28921e-05
8.41553e-05
0.000127581
0.00016134
0.000195196
0.000222897
0.000240193
0.000244739
0.000235504
0.000217597
0.000198633
1.23531e-05
7.81834e-05
0.000120868
0.00015323
0.000184155
0.000210839
0.000226531
0.000231538
0.000225195
0.000211202
0.000195602
1.17991e-05
7.25257e-05
0.000115504
0.000147801
0.000177164
0.000202566
0.000218367
0.000225247
0.000222913
0.00021387
0.000202673
1.12173e-05
6.66697e-05
0.00011114
0.000145417
0.000175614
0.000200816
0.000218843
0.000229571
0.000232546
0.000228835
0.00022107
1.06956e-05
6.091e-05
0.000107359
0.000144987
0.000178118
0.000206405
0.000229354
0.000246214
0.000255384
0.000255989
0.000248883
1.02103e-05
5.55774e-05
0.000103001
0.000143514
0.000181559
0.000215941
0.00024641
0.000271095
0.000286155
0.000288581
0.000278321
9.66697e-06
5.08475e-05
9.76129e-05
0.00013979
0.000182457
0.000223873
0.000262941
0.000295627
0.000315277
0.000317413
0.000301886
8.99803e-06
4.71929e-05
9.23743e-05
0.000134995
0.000181311
0.000229515
0.000276618
0.000315974
0.000338969
0.000340307
0.00031974
8.21181e-06
4.47268e-05
8.82005e-05
0.000132281
0.000183498
0.000237543
0.00028657
0.00032602
0.000350326
0.000352821
0.000329383
7.30562e-06
4.39727e-05
9.00728e-05
0.000140002
0.000188224
0.000222683
0.000229742
0.000248092
0.000279648
0.000311059
0.000305591
7.39609e-06
5.52918e-05
9.70436e-05
0.000112816
0.000113401
0.000115844
0.000137046
0.000161613
0.000183118
0.000199506
0.00021214
7.62876e-06
4.47155e-05
5.3814e-05
5.25393e-05
7.49888e-05
0.000104345
0.000137384
0.000168727
0.000191661
0.000197438
0.000182297
6.22791e-06
1.67236e-05
3.15129e-05
5.69637e-05
9.10496e-05
0.000130925
0.000171569
0.000207759
0.000234835
0.000244846
0.000225305
8.496e-06
2.36842e-05
5.28681e-05
9.53777e-05
0.000146637
0.000198557
0.000243083
0.00027558
0.000294533
0.000298405
0.000280371
3.93113e-05
0.000336693
0.000560002
0.000673648
0.000696656
0.000672852
0.000656654
0.000679868
0.000712206
0.000679709
0.000555949
2.36862e-05
0.000250713
0.000513822
0.000675587
0.000731159
0.000721121
0.000704288
0.000727428
0.000772549
0.00075663
0.000632216
1.63505e-05
0.000186025
0.000435109
0.000628023
0.00073054
0.000753675
0.00074519
0.00076848
0.000830697
0.000845402
0.000734768
1.1412e-05
0.000130623
0.000336825
0.000534208
0.000677842
0.000747775
0.000763315
0.000790858
0.000870263
0.000925776
0.000843496
1.12606e-05
8.67555e-05
0.00024167
0.000424306
0.000586172
0.000695734
0.000743109
0.000779389
0.000875056
0.00098988
0.00097698
1.26356e-05
8.25849e-05
0.00019766
0.000346596
0.000504338
0.000628012
0.000689967
0.000709062
0.000781036
0.000940363
0.00104054
1.41552e-05
8.75992e-05
0.000192649
0.000318416
0.000457851
0.00058569
0.000662116
0.000673501
0.000700277
0.000852856
0.00104215
1.57354e-05
9.42478e-05
0.000197537
0.000313394
0.000439697
0.000562424
0.000649118
0.000666149
0.000647362
0.000741241
0.000966809
1.72408e-05
0.000101928
0.000206289
0.000316884
0.00043332
0.000549457
0.000639981
0.000669139
0.000631117
0.000642338
0.000841651
1.86066e-05
0.000110526
0.000216816
0.000323993
0.00043165
0.000538796
0.000628815
0.000669235
0.000635641
0.000583401
0.000701281
1.97882e-05
0.00011844
0.00022692
0.000332302
0.000432035
0.000527714
0.000612152
0.000660741
0.000641164
0.000564566
0.000582602
2.08396e-05
0.000126279
0.000239028
0.000340947
0.000433284
0.000515946
0.000589524
0.000641602
0.000638463
0.000562775
0.000512581
2.16931e-05
0.000133155
0.000248938
0.000349082
0.000434514
0.000503787
0.000561801
0.000611114
0.000623783
0.000563572
0.000478549
2.23817e-05
0.000138794
0.000257642
0.000355848
0.000434429
0.000491544
0.000533427
0.000572301
0.000594915
0.000558386
0.000463255
2.27976e-05
0.000143758
0.000264709
0.000360452
0.000432084
0.000477876
0.000505684
0.000532549
0.000554904
0.00054003
0.000460089
2.29188e-05
0.000148134
0.000270998
0.000364026
0.00042843
0.000462922
0.000478442
0.000494899
0.000512959
0.000509526
0.000461101
2.27428e-05
0.000152141
0.000277274
0.00036788
0.000425041
0.000448491
0.00045323
0.000460851
0.000473606
0.000475522
0.000450511
2.22033e-05
0.00015609
0.000284572
0.000373679
0.000422929
0.000437008
0.000432846
0.000431587
0.000437436
0.000439078
0.000424204
2.12236e-05
0.000159693
0.000291498
0.000377052
0.000420741
0.000430429
0.000419615
0.000408924
0.000406254
0.00040394
0.000392621
1.96327e-05
0.000159798
0.000289355
0.000375973
0.00042145
0.000430139
0.000414192
0.000394518
0.000382929
0.000374939
0.000362953
1.70133e-05
0.000150332
0.00027756
0.000369954
0.000421728
0.000432504
0.0004136
0.00038682
0.000367778
0.000355521
0.000344922
1.39902e-05
0.000131292
0.000251992
0.000352827
0.00041364
0.00043034
0.000412905
0.000382793
0.000358374
0.000342115
0.000330336
1.04898e-05
9.42463e-05
0.00021492
0.000320709
0.000389276
0.000414719
0.00040572
0.000379339
0.000353474
0.000334151
0.000316889
7.32563e-06
8.80112e-05
0.000179349
0.000274119
0.000334145
0.00036673
0.000374728
0.000364503
0.000345545
0.000327145
0.000306334
5.98618e-05
0.000342618
0.000443181
0.000482649
0.000498726
0.000507986
0.000514883
0.000516149
0.000504284
0.000467384
0.000405722
3.95987e-05
0.000276865
0.000421516
0.000482909
0.000504627
0.000511869
0.000512586
0.000507876
0.000493684
0.000460011
0.000402629
3.20943e-05
0.000242976
0.00040635
0.000492833
0.000523146
0.000530937
0.000530806
0.000524785
0.000508779
0.000474204
0.000415175
3.04118e-05
0.000208043
0.000381603
0.000495669
0.000541571
0.000550567
0.000547543
0.000539176
0.000521629
0.000487723
0.000430831
3.06578e-05
0.000186734
0.000346406
0.000467049
0.000527722
0.000547186
0.000547422
0.000539205
0.000520836
0.000485217
0.000425453
3.13443e-05
0.000174922
0.000323871
0.000437138
0.000498713
0.000526802
0.000537551
0.000537837
0.000525253
0.000494093
0.000438774
3.2212e-05
0.000164821
0.000304515
0.000410218
0.000471603
0.000504674
0.000523208
0.000531598
0.000525388
0.000497657
0.00044265
3.3238e-05
0.000156747
0.00028819
0.000386674
0.000446103
0.000481681
0.000505982
0.000521714
0.000522834
0.000502135
0.000454935
3.41749e-05
0.000149792
0.000274254
0.000366559
0.000423638
0.000460557
0.00048926
0.000511509
0.000519985
0.000505378
0.000459448
3.48713e-05
0.000142857
0.00026153
0.000349131
0.000404363
0.000442281
0.000474491
0.000502146
0.000516535
0.00050524
0.000456792
3.54577e-05
0.000136115
0.000249836
0.000333858
0.00038782
0.000426697
0.000461846
0.000493919
0.000512826
0.000504177
0.000458942
3.59298e-05
0.000130115
0.000239481
0.000320528
0.000373562
0.000413405
0.000451159
0.000487032
0.000509677
0.000503073
0.00045785
3.61609e-05
0.000124318
0.000229951
0.000308728
0.000361284
0.000402221
0.000442427
0.000481793
0.000507889
0.000503347
0.000459716
3.61792e-05
0.000118122
0.00022053
0.000297912
0.000350607
0.000392887
0.000435535
0.000478299
0.000507787
0.000505432
0.000464554
3.5913e-05
0.000112041
0.000211456
0.000287914
0.000341143
0.000384971
0.000430112
0.000476369
0.000509527
0.000509509
0.0004683
3.53411e-05
0.000105711
0.000202286
0.000278298
0.000332502
0.000378132
0.000425865
0.000475834
0.00051322
0.000515969
0.000474909
3.44987e-05
9.73064e-05
0.000190634
0.000267028
0.000323054
0.000371236
0.000421856
0.000475765
0.000518222
0.00052462
0.000484213
3.31956e-05
8.75849e-05
0.000175836
0.000252001
0.000308952
0.000357377
0.000407927
0.000463442
0.000511175
0.000524834
0.000491758
3.14057e-05
7.65243e-05
0.000157394
0.000232347
0.000289594
0.000336475
0.000382617
0.000433188
0.000480347
0.000501079
0.000483242
2.90841e-05
6.43664e-05
0.000135034
0.000206969
0.000263987
0.000308563
0.000347744
0.000387632
0.000426085
0.000448137
0.000446213
2.61551e-05
5.16947e-05
0.000109485
0.000175388
0.000231153
0.000273581
0.000305966
0.000333471
0.000357668
0.000372251
0.00037568
2.25629e-05
3.96726e-05
8.33895e-05
0.000139259
0.000191197
0.000231413
0.000259147
0.000277329
0.000288581
0.000292037
0.000289157
1.81446e-05
2.84827e-05
5.84586e-05
0.000101856
0.000146085
0.000182261
0.000206988
0.000220819
0.000225606
0.00022242
0.000213295
1.27693e-05
2.62686e-05
5.297e-05
7.92873e-05
0.000106693
0.000130583
0.000148193
0.000158645
0.000162132
0.00015916
0.00015091
5.49763e-05
0.000246365
0.000304242
0.00041328
0.000505962
0.000541355
0.000564541
0.000560769
0.000543019
0.000497717
0.000429091
3.9529e-05
0.000139759
0.000197966
0.000256947
0.000320788
0.000392559
0.000552335
0.00060795
0.00059174
0.000540654
0.000459273
3.45432e-05
0.000101249
0.000158477
0.000205533
0.000254195
0.000303158
0.000422243
0.000620648
0.000641422
0.000592576
0.000505546
3.07782e-05
8.97099e-05
0.000137592
0.000177928
0.000218848
0.000259761
0.000341783
0.000563297
0.000687506
0.000655211
0.000571791
2.74069e-05
9.95346e-05
0.000131209
0.000162348
0.000196083
0.000231611
0.000296025
0.000474136
0.000708964
0.000721404
0.000637478
3.27062e-05
0.000122043
0.00013914
0.000157525
0.000181937
0.00021132
0.0002645
0.000406193
0.000642547
0.00077605
0.000708177
3.82086e-05
0.000159009
0.000161663
0.000163428
0.000175507
0.000197103
0.000241286
0.000356274
0.000564677
0.000756929
0.000779067
4.30293e-05
0.000209801
0.000201243
0.000181167
0.000176698
0.000188411
0.000224401
0.00032022
0.00049945
0.000702012
0.000793626
4.61925e-05
0.000245943
0.000251072
0.000210909
0.000185522
0.000184671
0.000212271
0.000293494
0.000447822
0.00063901
0.000765974
4.81076e-05
0.000267437
0.000300938
0.000250631
0.000201928
0.000185597
0.000203967
0.000273149
0.000406813
0.000579015
0.000714672
4.93122e-05
0.000284055
0.000345677
0.000296887
0.000225691
0.000191109
0.000198882
0.000257125
0.000373162
0.000524944
0.000654352
5.00758e-05
0.00029702
0.000384473
0.000345181
0.000255734
0.000201122
0.00019701
0.00024488
0.000345653
0.000478038
0.000592843
5.02521e-05
0.000307105
0.000413027
0.000390651
0.000290524
0.000215454
0.000198266
0.000235814
0.000322781
0.000437431
0.000534745
4.9805e-05
0.000311368
0.000431741
0.000429586
0.000328023
0.000233946
0.000202701
0.000229618
0.00030351
0.000401738
0.000482925
4.8848e-05
0.000307437
0.000441176
0.000459569
0.000365286
0.000255841
0.000210475
0.000226588
0.000287811
0.000370489
0.000437453
4.72779e-05
0.000299326
0.000439848
0.000478685
0.000398871
0.000279995
0.000221664
0.000227059
0.000275812
0.000343515
0.000397067
4.5072e-05
0.000287312
0.00042905
0.000482848
0.000425145
0.000304654
0.000236371
0.000231833
0.000268143
0.00032108
0.000361699
4.21612e-05
0.000270633
0.000409464
0.000468075
0.000440097
0.000327804
0.000254766
0.000242198
0.000266212
0.000304227
0.00033171
3.8581e-05
0.00024956
0.000382702
0.000439365
0.000434493
0.000350178
0.00027865
0.000260927
0.000272699
0.000294924
0.000307996
3.44369e-05
0.000224113
0.000350356
0.000403125
0.000409459
0.000372933
0.000312848
0.000292305
0.000291122
0.00029568
0.000292924
2.997e-05
0.000193776
0.000316214
0.00036653
0.000384812
0.000381809
0.000348687
0.000323573
0.000307948
0.000294979
0.000275107
2.66955e-05
0.000193287
0.000284408
0.00032192
0.000333174
0.000320844
0.000270432
0.000234459
0.00020382
0.000173299
0.000140343
1.62986e-05
0.000110256
0.000125722
0.000110008
9.36788e-05
7.98753e-05
6.92291e-05
6.15444e-05
5.54896e-05
5.04466e-05
4.58325e-05
9.27841e-06
1.06866e-05
1.26022e-05
1.55102e-05
1.97347e-05
2.50836e-05
3.11508e-05
3.72621e-05
4.26626e-05
4.67034e-05
4.89331e-05
1.86951e-05
1.78136e-05
1.66446e-05
1.47417e-05
1.11386e-05
6.18098e-06
6.34877e-06
6.62724e-06
7.55562e-06
0.000123488
9.37802e-05
6.24124e-05
4.02292e-05
2.81061e-05
2.24246e-05
2.64086e-05
2.47623e-05
2.53071e-05
0.000247352
0.000194847
0.000130444
8.06934e-05
5.09053e-05
3.6017e-05
3.77794e-05
3.49931e-05
4.03389e-05
0.000356925
0.00029067
0.000196477
0.000119674
7.38749e-05
5.11618e-05
5.04881e-05
4.47579e-05
5.52553e-05
1.91588e-05
1.90585e-05
1.87377e-05
1.88502e-05
1.83169e-05
1.74852e-05
1.643e-05
1.48158e-05
1.20251e-05
0.000147596
0.000163297
0.000169096
0.000153783
0.000133074
0.000112164
8.02108e-05
5.2787e-05
3.37438e-05
0.000291796
0.000317686
0.000318779
0.00029547
0.000260312
0.000221662
0.000164139
0.000108026
6.39469e-05
0.000409719
0.000437518
0.000431723
0.000410635
0.000375556
0.000326098
0.000242683
0.000158307
9.19754e-05
0.000195585
0.000229711
0.000229762
0.000125408
0.000204588
0.000229312
9.23119e-05
0.000229471
0.000229383
0.000233357
0.000201642
0.000229525
0.000171641
0.000237672
0.000123795
0.000228695
0.000234987
0.000120578
0.000228686
0.000228514
0.000229481
2.73225e-05
0.000229987
0.000125682
0.00022933
0.000236507
0.000177826
9.78462e-05
0.000458039
0.000174647
0.000236485
0.000234393
0.000245661
0.000229423
0.000239231
0.000229674
0.000125177
0.000229328
0.000244414
0.000229307
2.02205e-05
0.000229463
0.000108706
0.000229966
0.000414991
5.93682e-05
8.77562e-05
0.000105612
0.00023848
0.000229402
0.000166119
0.000229276
0.00020779
0.000104595
0.000229362
0.000229279
2.67729e-05
0.000229272
0.000452799
0.000106155
2.63384e-05
0.00020967
0.000290033
0.000399267
2.84161e-05
0.000228505
0.000259283
0.000229955
0.000229714
0.000232834
0.000201292
0.000233927
0.000106071
0.000246251
0.000133094
0.000232089
1.93779e-05
0.000229698
0.00043651
0.000452087
0.000150173
0.000401075
0.000229266
0.000229789
0.000245107
0.000105937
0.000409372
0.000214793
8.8051e-05
0.000148385
0.000229485
0.00022924
2.24179e-05
0.000233942
0.000462658
0.000115391
0.000104743
0.000237701
8.25082e-05
0.000237079
0.000251743
0.00011364
0.000229877
0.000233593
9.04323e-05
0.000229519
0.000215714
0.000229869
0.000242039
0.000235916
0.000229335
0.000229519
0.000231098
0.000133971
8.25563e-05
0.000229028
0.000229366
0.000228874
0.000229266
0.000228991
0.0001276
0.000242812
0.000264933
0.000231089
5.45329e-05
0.000228184
0.00016043
0.000208514
0.000238393
0.000242056
0.000229211
0.000102655
0.000107981
0.00023259
0.000229789
0.000239174
2.12567e-05
0.00034894
0.000166373
0.000243173
0.000127857
0.000231111
0.000317905
0.000166892
0.000229378
5.69815e-05
0.000147883
0.00022981
0.000235523
0.000228869
0.000228921
0.000229149
6.14821e-05
0.000242521
0.000143124
0.000143728
9.8412e-05
3.42225e-05
0.00018746
0.000228837
0.000213009
9.5102e-05
0.000233467
0.000229149
0.00027724
0.000187535
0.000102227
0.000241428
0.000239505
2.77856e-05
0.000244427
0.000186002
0.000231682
0.000229316
0.00023377
0.00021844
0.000176962
6.29959e-05
0.000422301
0.000197565
0.000229503
2.34927e-05
0.000229933
9.25992e-05
0.00022928
0.000251978
0.000229012
0.000228805
0.000229639
0.000430194
0.000240923
0.000238047
0.000228496
1.95307e-05
0.000229748
0.00022905
0.000229567
8.55133e-05
0.000242434
0.000230001
4.85272e-05
0.000229519
0.0002275
0.000229753
0.000229831
0.000217286
0.000233033
0.000238268
0.000229479
0.0002287
0.00015545
0.000228978
0.000174413
0.000237394
0.000229271
0.000156643
0.000229368
6.21688e-05
0.000229042
0.000136751
0.00024745
0.000122695
0.000104698
8.47461e-05
0.000229541
0.000229274
9.08749e-05
0.000210431
0.000242624
0.000372859
4.06995e-05
0.000228454
0.000228942
0.000243605
6.10127e-05
0.000285233
0.000191205
0.000229888
0.000229547
0.000229495
6.26075e-05
0.000268877
0.000233581
1.73722e-05
0.00023777
9.42703e-05
0.000229356
0.000221094
0.000198504
0.000142305
0.000221911
0.000152593
0.000249888
0.000228602
0.000233221
0.000229521
0.00022925
0.000229289
6.94272e-05
0.0002291
0.000139984
0.000213751
0.000228176
0.000229592
0.000229331
8.70302e-05
0.000231541
0.000233968
0.000160996
0.000175414
0.000112872
0.000229116
0.000229524
8.91799e-05
0.000229059
0.000228912
0.00023033
0.000229164
0.000237205
9.16787e-05
0.00023576
0.000229782
0.000150422
0.000181233
0.000232814
0.000229067
0.0003724
0.000229699
0.00023688
0.000150584
0.000229824
0.000127455
0.000245744
0.000208473
0.000229998
0.000229509
0.000239861
0.000229558
0.000238878
0.000228401
0.000229148
0.000106201
0.000241108
0.000171656
0.000229175
0.000236101
0.000229699
0.000226083
2.33847e-05
0.000229188
5.89341e-05
0.000229579
0.00023375
0.00024602
2.12386e-05
0.000230899
0.000219567
0.000141561
0.000228561
0.000239381
0.00022894
0.000169857
0.000228927
0.000198987
0.000451157
0.000235338
0.000229161
0.000237254
0.000228149
0.0001535
0.000231447
0.000289561
1.85603e-05
0.000229952
0.000148041
0.000223
9.99324e-05
0.00022965
0.000229234
0.000238028
6.95701e-05
0.000149927
0.000229458
0.000159516
0.000103683
0.000224839
6.89466e-05
0.000229016
0.000115824
0.000150034
5.62755e-05
0.000236142
0.000175518
0.000229149
0.000113804
0.000230037
0.00024754
0.00020551
0.000229963
0.000150836
0.000134085
0.000239934
0.000229397
0.000229322
0.000229646
9.28805e-05
0.000195323
0.000179798
6.18374e-05
0.000259066
0.000229164
9.07054e-05
0.000219149
0.000224524
0.000121861
0.000229788
0.000150474
0.000239056
0.000229007
0.000228827
0.000153964
0.000228991
5.4138e-05
0.000229246
0.000238348
0.000231316
0.000105369
0.000228474
0.000261762
9.03842e-05
0.000229162
6.10062e-05
0.000220704
0.000249166
0.000233132
2.82226e-05
0.000229238
0.000228868
0.00022989
6.65953e-05
6.95529e-05
0.000228982
0.000229988
0.000156953
0.000247292
2.27201e-05
0.000346678
0.000232343
0.000229507
0.000170812
0.000237084
0.000228646
0.000231275
0.000234047
6.73136e-05
0.000233525
0.000239877
0.000253612
0.000207659
0.00010486
0.000138957
0.000169907
8.21661e-05
0.000243549
0.00022541
0.000235066
0.00024507
7.63127e-05
0.000188422
3.70932e-05
0.00022924
5.46274e-05
0.000227913
0.000228358
0.000236072
0.000238278
0.000101045
0.000148963
0.000231128
0.000230038
0.000232668
0.000398869
0.000101445
0.000105802
0.000232362
0.000209222
0.000146272
3.11781e-05
0.000228787
6.96986e-05
0.000229158
0.000229735
0.000229332
0.000128183
0.000129221
6.12159e-05
0.000244217
4.47386e-05
8.40435e-05
0.000229631
0.000228766
0.000157841
0.00020329
0.000233266
0.000235601
4.03449e-05
4.43189e-05
2.96836e-05
2.93526e-05
0.000231426
0.000209522
8.80079e-05
0.000229034
2.62569e-05
0.000234154
0.000229665
0.000229143
8.05638e-05
5.24393e-05
0.000228943
0.000229164
0.000229546
0.000364649
2.22079e-05
0.000229909
5.73627e-05
0.000423286
0.000155702
0.000224201
0.000228732
5.42412e-05
0.000229051
0.000233673
0.000229282
0.000240631
0.000166195
0.000228508
0.000206814
0.000167898
0.000233272
0.000240196
0.000237597
0.000229444
0.000229418
0.000254667
0.000236305
0.00010139
0.000231639
0.000101632
0.000229766
0.000167088
0.000110136
9.02535e-05
0.00019283
0.000251916
0.000217788
6.96723e-05
0.000206776
0.000229139
0.000181174
0.000228635
0.000229769
0.000229148
0.000229608
0.000233385
0.000153685
0.000229345
0.000228795
0.000108957
0.00022915
4.16189e-05
0.000240414
0.000233286
0.000188001
8.77065e-05
0.000229998
0.000229289
0.000229947
1.87797e-05
5.0905e-05
0.000229301
0.000229296
0.000231585
0.000229841
8.93938e-05
0.000229791
0.000160458
0.000235968
3.40756e-05
0.000234795
0.00014814
6.58711e-05
0.000180575
0.000229209
0.000231658
0.000235039
0.000229768
0.00024002
2.96651e-05
0.000223707
0.000235452
0.000145336
8.51276e-05
0.000229335
0.000229841
0.000229741
0.000142455
0.000194315
8.8869e-05
0.000229479
0.000229323
0.000177291
0.000231098
0.000210314
0.00023963
0.000231839
0.000158261
0.0002292
9.3232e-05
0.000229267
7.59166e-05
0.000229586
0.000131534
0.000171279
0.000233528
2.17875e-05
0.000180085
0.000229952
0.00023
0.000469079
0.000229057
0.000182446
0.000203359
6.95083e-05
0.000131325
6.89302e-05
0.000207827
0.000231204
0.00022918
0.000229238
0.000126565
8.94616e-05
0.000121701
0.000228498
0.000229356
0.000279407
0.000229151
0.000237091
0.000235242
0.000233808
0.000205389
0.000115087
7.06486e-05
0.000160957
0.000232997
0.000243309
0.000228588
0.000115575
0.000231958
0.000229158
0.000190594
0.00015013
0.000228947
0.000228996
2.12216e-05
0.000229865
0.00022873
0.000147588
0.000229781
0.000234184
0.000155726
0.000218766
0.000155763
0.000237291
0.000180457
0.000204014
0.000198917
8.70081e-05
0.000150245
0.000190271
9.78854e-05
0.00010111
0.000140814
0.000229768
0.000230054
0.000454131
0.000229443
0.000229108
0.000244182
0.000227853
0.000123136
0.000197387
0.000196113
0.000250745
0.000229128
0.000214097
0.000229503
0.000228893
0.000235698
0.000120936
0.000231903
0.000232214
0.000230566
0.000229703
0.0002221
6.23184e-05
0.000381345
0.000232155
0.000229504
0.000188594
0.00020645
0.00023768
0.000269325
0.000231826
0.000163939
0.000191462
0.000229172
0.000245705
0.000229923
0.000245036
0.000273454
0.000205688
0.000163791
0.0002112
0.000243073
0.000229824
0.000109849
0.000202877
0.000116996
0.00015413
0.000228989
0.00023341
0.000229809
0.00015742
0.000229436
6.07009e-05
0.000229538
0.000229284
0.000229081
0.000177099
9.2e-05
0.000229544
0.000147252
0.00022922
0.000218162
0.000186851
0.000230897
0.000225439
1.60798e-05
0.000225394
0.000235923
0.000233877
0.000193362
0.000127531
0.000245777
8.60224e-05
0.000229192
0.000225656
0.000229276
0.000231207
5.41433e-05
0.000201806
5.1242e-05
0.000237879
0.000230916
0.00023442
0.000228998
6.33736e-05
0.000229616
0.000170412
0.000178
0.000159018
0.000234019
0.000136935
0.000127089
0.000127022
0.000242575
0.000181744
6.04437e-05
0.000117171
0.0002294
0.0002396
0.000140087
0.000229507
4.30794e-05
0.000133826
0.000247765
0.000158871
0.000229309
0.000232758
0.000234259
0.000147098
0.000236383
0.000220459
0.000229625
0.000244544
0.000234341
0.0002159
0.000233676
0.000147331
0.000243366
0.000228788
9.99337e-05
6.75355e-05
0.000229196
0.000233972
0.000185755
0.000176116
0.000250173
3.22862e-05
0.000242608
8.05535e-05
0.00023336
0.000254319
0.000228852
0.000244997
0.000229115
7.28992e-05
2.56975e-05
0.000230041
0.000229231
0.000249972
0.000433957
0.000165209
0.000208127
0.000229638
0.000222177
0.000250199
0.000229514
0.000229603
0.00022986
0.000229251
0.000235894
0.000181682
6.68867e-05