/*--------------------------------*- C++ -*----------------------------------*\
| =========                 |                                                 |
| \\      /  F ield         | OpenFOAM: The Open Source CFD Toolbox           |
|  \\    /   O peration     | Version:  3.0.1                                 |
|   \\  /    A nd           | Web:      www.OpenFOAM.org                      |
|    \\/     M anipulation  |                                                 |
\*---------------------------------------------------------------------------*/
FoamFile
{
    version     2.0;
    format      ascii;
    class       volScalarField;
    location    "0.195529";
    object      k;
}
// * * * * * * * * * * * * * * * * * * * * * * * * * * * * * * * * * * * * * //

dimensions      [0 2 -2 0 0 0 0];

internalField   nonuniform List<scalar> 
21246
(
0.790055
1.28202
0.878804
0.62805
0.4161
0.26943
0.182943
0.135234
0.108931
0.0936568
0.0835644
0.72664
1.06809
0.884126
0.681379
0.484787
0.311709
0.204828
0.146277
0.115201
0.0982267
0.0876402
0.602087
0.828802
0.82099
0.687912
0.524225
0.359105
0.235223
0.158613
0.121464
0.102477
0.0918803
0.449396
0.673168
0.739283
0.669636
0.543673
0.396023
0.267606
0.178118
0.129196
0.105975
0.0954803
0.301797
0.570523
0.66406
0.642985
0.553417
0.426673
0.300941
0.202496
0.141932
0.111021
0.098198
0.184944
0.489125
0.599832
0.613191
0.55623
0.452479
0.334888
0.231971
0.160358
0.11949
0.101309
0.125617
0.437282
0.555805
0.58563
0.553209
0.472165
0.36698
0.264534
0.184518
0.132944
0.106518
0.119294
0.410286
0.538891
0.569934
0.549852
0.486305
0.394741
0.297019
0.212554
0.151537
0.115361
0.109032
0.365798
0.524903
0.567192
0.552092
0.497971
0.417587
0.326765
0.24177
0.174064
0.128395
0.0875914
0.277607
0.471786
0.55751
0.556933
0.508564
0.435717
0.351946
0.269402
0.198299
0.144899
0.0701327
0.208738
0.383857
0.515432
0.550174
0.51382
0.447683
0.370655
0.292621
0.221404
0.162931
0.0579669
0.159817
0.287675
0.437113
0.517756
0.505844
0.450117
0.380731
0.308897
0.240426
0.179951
0.0505934
0.130718
0.216401
0.34579
0.45862
0.47927
0.439776
0.380448
0.316529
0.25303
0.193216
0.0454243
0.112741
0.170941
0.262297
0.380594
0.43382
0.415031
0.368707
0.314498
0.257602
0.200125
0.0405267
0.0991918
0.141072
0.204612
0.296096
0.372788
0.376586
0.345258
0.302228
0.252953
0.199228
0.036074
0.0879534
0.118284
0.164571
0.228946
0.299481
0.32726
0.311314
0.28025
0.23932
0.190214
0.0318715
0.0781258
0.0996596
0.134215
0.178929
0.231914
0.269646
0.270195
0.251174
0.219304
0.175808
0.0283844
0.0697423
0.0855217
0.111361
0.14191
0.179021
0.213849
0.228716
0.222022
0.20065
0.164628
0.0261432
0.0642348
0.0757185
0.0953945
0.11644
0.142464
0.171689
0.196042
0.202701
0.194178
0.166545
0.0265854
0.0629752
0.0709303
0.0863781
0.101544
0.120905
0.145888
0.173622
0.188083
0.189976
0.172419
0.0296622
0.0626824
0.0690563
0.0816274
0.0932732
0.108662
0.131051
0.153528
0.165601
0.17022
0.164052
0.0314402
0.0618553
0.0660077
0.0771993
0.0879797
0.102724
0.120868
0.13548
0.143776
0.149146
0.15101
0.0309253
0.0526641
0.060548
0.0727113
0.0856305
0.102919
0.121831
0.136263
0.14462
0.14879
0.149156
0.0443479
0.0488207
0.0632912
0.0852051
0.109632
0.132659
0.148827
0.157028
0.158595
0.156292
0.151237
0.786941
1.04015
0.831128
0.565602
0.367896
0.243269
0.170193
0.128351
0.104258
0.0897227
0.0797266
0.561354
0.844669
0.730937
0.546734
0.375131
0.252607
0.175665
0.130151
0.103797
0.0882799
0.0782512
0.490647
0.747214
0.686157
0.560968
0.404918
0.274977
0.187834
0.135246
0.104865
0.0875686
0.0773543
0.440194
0.663449
0.638095
0.565811
0.436727
0.306303
0.207409
0.144359
0.107366
0.0866898
0.0753904
0.402655
0.591751
0.594439
0.551459
0.456863
0.344822
0.242263
0.165408
0.116591
0.0886125
0.0739886
0.369878
0.530722
0.557039
0.534736
0.463953
0.370718
0.276583
0.196529
0.136851
0.0973002
0.0745609
0.337656
0.476813
0.521392
0.5156
0.466313
0.39264
0.309382
0.229132
0.161403
0.111024
0.0785618
0.304632
0.426898
0.484984
0.493373
0.463617
0.409487
0.340064
0.264222
0.19219
0.13234
0.0889815
0.269689
0.377921
0.445503
0.466482
0.45482
0.420026
0.366569
0.299145
0.227112
0.161302
0.109508
0.233259
0.327785
0.401357
0.433057
0.437975
0.422103
0.386265
0.330783
0.262837
0.194525
0.136155
0.197261
0.278179
0.352406
0.392175
0.41156
0.413585
0.396329
0.355765
0.295665
0.228341
0.165972
0.162811
0.232261
0.302289
0.347075
0.376995
0.393666
0.3941
0.371051
0.322227
0.259015
0.195468
0.132193
0.192198
0.255665
0.302375
0.338832
0.365917
0.380159
0.372888
0.338583
0.284117
0.223066
0.107462
0.160073
0.216033
0.26217
0.301719
0.335073
0.358783
0.363995
0.342846
0.29839
0.243502
0.0895865
0.13714
0.185735
0.229613
0.269462
0.305338
0.334211
0.347962
0.337509
0.302573
0.254087
0.0781752
0.122479
0.164663
0.205474
0.243645
0.279056
0.309362
0.32781
0.325266
0.298523
0.256172
0.0716818
0.114038
0.15119
0.188669
0.223889
0.256689
0.285527
0.305413
0.308201
0.28844
0.251872
0.0683455
0.109655
0.143187
0.177352
0.208909
0.237694
0.262987
0.281767
0.287707
0.274012
0.243367
0.0668129
0.107503
0.138654
0.169734
0.197391
0.221409
0.241787
0.2575
0.264603
0.256166
0.231358
0.0662318
0.106214
0.135974
0.164389
0.188371
0.20753
0.222363
0.233639
0.240044
0.235658
0.217042
0.0659632
0.104489
0.133622
0.16001
0.181047
0.196065
0.205682
0.211931
0.215948
0.213952
0.200722
0.0658799
0.101818
0.1304
0.155399
0.174637
0.187001
0.192798
0.194464
0.194841
0.192892
0.183593
0.0640293
0.0933164
0.122137
0.147566
0.166852
0.178718
0.183103
0.182076
0.179101
0.175436
0.168228
0.0710598
0.093849
0.123287
0.145539
0.161449
0.171323
0.175158
0.173615
0.169125
0.163903
0.156976
0.874122
1.25682
0.999625
0.708343
0.45788
0.27731
0.164399
0.0969563
0.0567724
0.0331541
0.0198049
0.647676
0.945205
0.859836
0.647425
0.433746
0.270775
0.162831
0.0959221
0.0557833
0.0322862
0.0190546
0.469223
0.791245
0.768311
0.624148
0.440768
0.283394
0.172447
0.101468
0.0583814
0.0333724
0.0196539
0.37868
0.678608
0.697555
0.598726
0.443679
0.294982
0.183222
0.10935
0.063487
0.0363409
0.021217
0.317929
0.551405
0.595081
0.550018
0.435357
0.303705
0.1934
0.11643
0.0674906
0.0380904
0.0215614
0.286794
0.475532
0.515994
0.486283
0.398653
0.288894
0.189801
0.116737
0.0687747
0.03953
0.0230603
0.267589
0.424411
0.460824
0.43525
0.359532
0.264749
0.178225
0.11271
0.0680942
0.0398138
0.0232813
0.25465
0.386436
0.417869
0.393795
0.326697
0.243163
0.166396
0.107365
0.0662772
0.0396274
0.0240506
0.244962
0.356418
0.383177
0.359748
0.298745
0.223814
0.155042
0.101778
0.0641579
0.0392084
0.0241822
0.23668
0.331325
0.354656
0.332149
0.275993
0.207739
0.145262
0.0966869
0.0619881
0.0384818
0.0238004
0.229494
0.309939
0.330943
0.309702
0.257675
0.194773
0.137239
0.0923424
0.0599585
0.0376811
0.0238125
0.223911
0.29199
0.311187
0.291206
0.242763
0.184312
0.130777
0.0888131
0.0582906
0.0370533
0.0236888
0.219488
0.276659
0.294683
0.276137
0.230929
0.176221
0.125907
0.0862361
0.057152
0.0366911
0.023562
0.215652
0.263216
0.280833
0.264173
0.222062
0.170514
0.122701
0.0846973
0.0565869
0.0365888
0.023734
0.212829
0.251635
0.269181
0.254622
0.215546
0.16681
0.120995
0.084162
0.05662
0.0367848
0.0238339
0.210964
0.241429
0.259418
0.247304
0.211341
0.165178
0.120908
0.0847537
0.0573596
0.0373621
0.0241691
0.209869
0.232094
0.251207
0.242165
0.209639
0.165919
0.122735
0.0867082
0.0589696
0.0384201
0.0247656
0.209849
0.223568
0.244097
0.238885
0.210324
0.169133
0.126693
0.0902532
0.0616629
0.0401379
0.0257075
0.211109
0.215689
0.237459
0.236256
0.212637
0.174761
0.13314
0.0958139
0.0658075
0.0428493
0.0273144
0.213931
0.20809
0.23102
0.234039
0.215921
0.18201
0.141562
0.103265
0.0715327
0.0469119
0.029896
0.218878
0.200625
0.224337
0.231765
0.219537
0.190263
0.151673
0.112785
0.0793261
0.0528863
0.0340698
0.227803
0.192512
0.217377
0.228482
0.222115
0.198147
0.162665
0.124401
0.0898716
0.0617195
0.0408287
0.239641
0.184321
0.207654
0.224092
0.223282
0.204836
0.173817
0.138012
0.10382
0.0745565
0.0515956
0.260821
0.19166
0.214826
0.216728
0.216301
0.203966
0.180684
0.151108
0.120307
0.0918111
0.0677274
0.830902
1.20875
1.02127
0.799435
0.578672
0.355667
0.209171
0.120694
0.0684978
0.0389812
0.0227835
0.688644
0.903549
0.923702
0.811439
0.647494
0.452216
0.283302
0.160232
0.0906027
0.0502428
0.0283927
0.386668
0.720436
0.809928
0.771623
0.663255
0.50705
0.344704
0.208459
0.119002
0.0669971
0.0374471
0.335856
0.763376
0.78671
0.746404
0.662351
0.535552
0.389041
0.251767
0.150674
0.0881697
0.0508386
0.37932
0.881001
0.950904
0.82167
0.693107
0.562121
0.423238
0.2891
0.181556
0.110576
0.0677119
0.387655
0.84169
1.18089
1.05342
0.813299
0.6199
0.461226
0.323249
0.211235
0.132866
0.0845549
0.393452
0.807318
1.23939
1.36317
1.06369
0.749918
0.52459
0.361781
0.240463
0.155127
0.101744
0.397481
0.777143
1.20359
1.59186
1.43636
0.993416
0.641873
0.41719
0.272495
0.177502
0.118505
0.401021
0.751311
1.15795
1.59885
1.7418
1.31975
0.827828
0.502013
0.312492
0.200899
0.135231
0.403623
0.722733
1.10418
1.54198
1.89495
1.65945
1.07419
0.621757
0.36453
0.22665
0.151789
0.406207
0.693978
1.04439
1.45429
1.86262
1.88341
1.32702
0.764087
0.427193
0.25508
0.168364
0.409893
0.666952
0.980502
1.34288
1.74841
1.95617
1.52287
0.898299
0.489975
0.283529
0.184301
0.415939
0.648951
0.920511
1.22292
1.58648
1.87689
1.61317
0.987358
0.536747
0.306939
0.198568
0.42439
0.637755
0.865695
1.10389
1.39956
1.70021
1.5853
1.00695
0.55409
0.320386
0.210662
0.436525
0.635573
0.819561
0.992778
1.202
1.45109
1.47165
0.952578
0.53696
0.322539
0.220364
0.450128
0.640229
0.779263
0.89053
1.01703
1.15884
1.22776
0.868916
0.493954
0.315997
0.229101
0.465491
0.651959
0.74399
0.793427
0.845203
0.904588
0.919142
0.763395
0.459301
0.31154
0.241002
0.484729
0.676421
0.723346
0.715891
0.708803
0.718083
0.716375
0.653998
0.457343
0.323932
0.260002
0.512356
0.723877
0.733919
0.678982
0.632444
0.62123
0.624439
0.604149
0.499272
0.381548
0.305773
0.557199
0.815194
0.809478
0.719124
0.643566
0.623777
0.636273
0.63961
0.593923
0.488515
0.364318
0.638567
1.0141
1.0314
0.9213
0.810676
0.756361
0.720351
0.680499
0.631046
0.500534
0.359899
0.711828
1.22485
1.27308
1.16796
0.956171
0.705868
0.564485
0.461125
0.373005
0.290383
0.217445
0.481625
0.795941
0.80218
0.628893
0.476059
0.368839
0.295153
0.240533
0.196338
0.158363
0.124633
0.306294
0.243896
0.218416
0.206051
0.200597
0.194888
0.184105
0.166509
0.143386
0.11762
0.0922889
0.213899
0.217013
0.0917784
0.0434323
0.0235776
0.016333
0.013575
0.0123677
0.0117294
0.011299
0.0109093
0.254511
0.350624
0.0899544
0.0532122
0.0261698
0.0172137
0.0135236
0.0119061
0.0110529
0.0105058
0.0100809
0.29563
0.374294
0.100854
0.0624881
0.027545
0.0181506
0.0135922
0.0116197
0.0105695
0.00989967
0.00936743
0.329691
0.35183
0.105975
0.0661412
0.0278362
0.0188541
0.0136068
0.0114035
0.0101996
0.00943175
0.0088133
0.353179
0.331246
0.108323
0.065
0.028033
0.0192167
0.0135167
0.0112121
0.00990165
0.00907302
0.00842339
0.36608
0.32235
0.111782
0.062961
0.0284659
0.019297
0.0133822
0.0110347
0.00965062
0.00878829
0.0081374
0.369021
0.321541
0.117814
0.0629553
0.0291582
0.0192413
0.0132767
0.0108719
0.00943382
0.00854973
0.00788716
0.362927
0.327505
0.125182
0.0644553
0.0305374
0.0192372
0.0132395
0.0107291
0.00924815
0.00834692
0.00768826
0.349543
0.338229
0.134811
0.0675693
0.0324896
0.0195998
0.0133829
0.0106319
0.00909863
0.00817418
0.00751036
0.330519
0.352196
0.149194
0.0732496
0.0354699
0.0205003
0.0137522
0.0106534
0.00901847
0.00804297
0.00735766
0.306586
0.370168
0.168347
0.0818138
0.0397386
0.0221174
0.0144092
0.0108172
0.00901059
0.00795263
0.00723677
0.2791
0.393727
0.191538
0.093098
0.0453498
0.0245262
0.0154225
0.0111702
0.00909587
0.00791517
0.00714826
0.25066
0.421911
0.220595
0.108321
0.0529857
0.0280491
0.0169772
0.0118041
0.00932
0.00795402
0.00710416
0.223444
0.452472
0.258135
0.129708
0.0639219
0.0333064
0.0194006
0.0128798
0.00976492
0.00811094
0.00712746
0.199855
0.490191
0.304854
0.158176
0.0789159
0.0408061
0.0230333
0.0145978
0.0105468
0.00845007
0.00725548
0.184172
0.535915
0.364329
0.196964
0.100049
0.0517225
0.0285435
0.017336
0.0118785
0.00908935
0.00755377
0.179805
0.586354
0.44051
0.25173
0.131264
0.0683464
0.0372164
0.0218168
0.0141654
0.0102533
0.00814738
0.187942
0.642565
0.535775
0.328402
0.17769
0.0940812
0.051142
0.0292967
0.0181548
0.0123768
0.0092854
0.204454
0.693516
0.645055
0.434142
0.248169
0.135383
0.0744721
0.0423489
0.0254158
0.0164008
0.0115194
0.220895
0.721341
0.746577
0.567719
0.353568
0.203324
0.115385
0.06644
0.0394513
0.0245152
0.016188
0.226101
0.705113
0.802889
0.70352
0.497159
0.313096
0.189005
0.113204
0.0683855
0.0421297
0.0267798
0.229686
0.670696
0.802433
0.797306
0.657041
0.47377
0.317052
0.204659
0.130176
0.0826158
0.0526839
0.210257
0.560687
0.660038
0.715779
0.692996
0.597495
0.467312
0.341936
0.239952
0.16464
0.110946
0.25349
0.625695
0.737271
0.748634
0.694253
0.608296
0.508159
0.408379
0.31796
0.241788
0.179263
0.170333
0.181285
0.0861209
0.0385909
0.0218624
0.0160929
0.0139637
0.0130903
0.0127028
0.0125206
0.0124177
0.182949
0.168271
0.06775
0.0392472
0.0241059
0.0176302
0.0150223
0.0140214
0.0136774
0.0136235
0.0137046
0.206237
0.179343
0.0601946
0.0412485
0.0256838
0.0193765
0.0166485
0.0155552
0.0152243
0.0152867
0.0155724
0.22757
0.16552
0.0568899
0.0425083
0.0258583
0.0197759
0.0171351
0.0163154
0.0163837
0.0169365
0.0178181
0.244325
0.142975
0.0549427
0.0419343
0.0256656
0.0200211
0.0173065
0.0164633
0.0165404
0.0171823
0.0182673
0.257641
0.124044
0.0532071
0.0403377
0.0252528
0.0201171
0.0173314
0.0164326
0.0164394
0.0170621
0.0182077
0.268949
0.110215
0.0515077
0.0385335
0.0247956
0.0201201
0.0172779
0.0163394
0.0162388
0.0167449
0.0177452
0.278008
0.100037
0.0498064
0.0368717
0.0244102
0.0200525
0.0172163
0.0162544
0.0160608
0.0164509
0.0172878
0.286386
0.0925275
0.0483216
0.0355804
0.0242251
0.0199698
0.0171926
0.0162103
0.0159526
0.01626
0.0169538
0.295025
0.0872169
0.0472021
0.0346588
0.0242426
0.0199561
0.0172331
0.0162258
0.0159339
0.0162248
0.0169235
0.304854
0.0838356
0.0465756
0.0341936
0.0244522
0.0200663
0.0173566
0.0163092
0.0159944
0.0162976
0.017025
0.315433
0.0817386
0.046282
0.0341055
0.0248504
0.0203129
0.0175718
0.0164611
0.0161154
0.0164329
0.0172386
0.326152
0.0816322
0.0463879
0.0343787
0.0254919
0.0207142
0.0178982
0.0166818
0.0162804
0.0165833
0.0174759
0.335726
0.084474
0.0472904
0.0350381
0.0264965
0.0213615
0.0184192
0.0170181
0.0165239
0.0167626
0.0176706
0.344197
0.088917
0.0488021
0.036018
0.0278104
0.0222957
0.0191668
0.0175097
0.0168668
0.0169792
0.0177999
0.351676
0.0951834
0.0511154
0.0373979
0.0294284
0.0235866
0.0201968
0.0182187
0.0173452
0.0172536
0.0178719
0.358248
0.103633
0.0545783
0.0393328
0.0313796
0.0253054
0.021592
0.0192375
0.0180356
0.0176481
0.0179522
0.363942
0.114053
0.0594931
0.042026
0.0337247
0.0275019
0.0234457
0.020687
0.0190664
0.0182819
0.0181566
0.368815
0.126428
0.0663018
0.045838
0.036642
0.0302423
0.0258595
0.0227104
0.0206228
0.019356
0.0187165
0.372973
0.140974
0.0756504
0.0513911
0.0405355
0.0336914
0.0289631
0.0254631
0.0229281
0.0211569
0.0199692
0.376574
0.157633
0.0882908
0.059639
0.0461851
0.0382801
0.0329964
0.0291255
0.0262055
0.0239973
0.0223314
0.380033
0.175835
0.104768
0.0718467
0.0549112
0.0449734
0.0385235
0.033976
0.0305942
0.0280029
0.0259881
0.383085
0.197605
0.127119
0.0903443
0.0691821
0.0559704
0.047212
0.0411175
0.0367165
0.0334481
0.0309523
0.389574
0.232619
0.178933
0.14784
0.125383
0.111002
0.104153
0.1013
0.10028
0.0995884
0.0976668
0.0336774
0.0179654
0.017074
0.0199556
0.0356129
0.0712738
0.093327
0.10834
0.119377
0.0573509
0.034283
0.0267618
0.0374693
0.0732176
0.100701
0.129859
0.156563
0.178996
0.0735875
0.045687
0.0344889
0.0504415
0.0963003
0.126594
0.150782
0.165971
0.17775
0.0831711
0.0547973
0.0419648
0.0621116
0.107419
0.131741
0.146521
0.155347
0.16118
0.0688381
0.0931267
0.107681
0.116797
0.121793
0.123447
0.123302
0.129619
0.127505
0.0857018
0.113437
0.139101
0.16067
0.175236
0.188503
0.203652
0.209437
0.196485
0.105746
0.130806
0.148259
0.162598
0.174273
0.186519
0.200439
0.206094
0.193333
0.110727
0.12796
0.140056
0.149644
0.153059
0.158606
0.16864
0.175904
0.170428
0.00442707
0.00460083
0.00461619
0.00549102
0.0117354
0.00438378
0.0237722
0.00454668
0.00437689
0.00422563
0.0124961
0.00455745
0.00427676
0.00397793
0.0044837
0.00430217
0.0038803
0.00536724
0.00429154
0.00424478
0.00410608
0.00736949
0.00466618
0.00572743
0.0044926
0.00397414
0.00430956
0.0255085
0.0544497
0.0210853
0.0039222
0.00403559
0.00398078
0.00453553
0.00418546
0.00459191
0.00554184
0.00448774
0.00403334
0.00439071
0.00542034
0.00454485
0.0047472
0.00465932
0.057162
0.0121613
0.0041884
0.0196767
0.00422878
0.00434044
0.0196619
0.00439621
0.00415614
0.00476258
0.00433212
0.00411338
0.00737806
0.00440186
0.0574491
0.00508771
0.00501647
0.00415832
0.0157025
0.0208408
0.00710077
0.00425702
0.010612
0.00432926
0.00460129
0.00421988
0.00385078
0.0043094
0.0063475
0.00460706
0.00651032
0.00427479
0.00376654
0.00459803
0.0541467
0.06268
0.00450908
0.018887
0.00449509
0.00462613
0.00421555
0.00616463
0.0956759
0.00414633
0.00790349
0.00457059
0.0045434
0.0044121
0.00604684
0.00439565
0.0613135
0.0334929
0.00585275
0.00422587
0.00831809
0.00437653
0.00447969
0.0200641
0.00415868
0.00392956
0.00675922
0.00455372
0.00368939
0.00464665
0.00397362
0.00415838
0.00450735
0.00456001
0.00430764
0.00653173
0.00390073
0.00442315
0.00437922
0.00431602
0.00449735
0.00413072
0.00669462
0.00452492
0.00522589
0.00387402
0.011305
0.0044384
0.00421366
0.00367717
0.00380356
0.00388662
0.00445083
0.00511215
0.019378
0.00428075
0.00461411
0.0043865
0.00372438
0.0125645
0.0216154
0.0043861
0.00466642
0.00410491
0.0526234
0.00400983
0.00437214
0.00379948
0.00448463
0.0043192
0.00429541
0.00424263
0.00427945
0.00441723
0.0041925
0.00451168
0.00631106
0.00459827
0.00464761
0.00537534
0.00378191
0.00436008
0.00405934
0.00756673
0.00430127
0.00443136
0.0110231
0.0042693
0.00882127
0.00423863
0.00435864
0.00704072
0.00390985
0.00367496
0.00452499
0.00404659
0.00403137
0.00391147
0.00367919
0.00438184
0.057945
0.00388642
0.00431079
0.00530546
0.00465954
0.00643114
0.004502
0.0117042
0.00425508
0.00430117
0.00458823
0.0540092
0.00397922
0.00404605
0.00427095
0.00534068
0.00460935
0.00439971
0.00435637
0.00798675
0.00390512
0.00467918
0.00401119
0.00433863
0.00405885
0.00401347
0.00462728
0.00412181
0.00438254
0.00380068
0.00434966
0.00433805
0.00449906
0.00439404
0.00400059
0.00415582
0.00449015
0.00490178
0.00451054
0.00371929
0.00427958
0.00408303
0.00400989
0.00625878
0.00584287
0.00392158
0.00383593
0.00440667
0.00591922
0.00416904
0.00393904
0.0373371
0.00626767
0.00425447
0.00427206
0.00450897
0.00417574
0.0821845
0.00586301
0.00464603
0.00456163
0.00454912
0.00373905
0.0124166
0.00392457
0.00498332
0.00469578
0.008065
0.00451734
0.00411371
0.032288
0.00477368
0.00410671
0.00453423
0.00501219
0.00429793
0.00392741
0.00436274
0.00413368
0.00447359
0.00380064
0.00424822
0.00373692
0.00447273
0.00432548
0.00457471
0.00450528
0.00397035
0.00410489
0.00481562
0.00593628
0.00384346
0.00997458
0.00432038
0.00433142
0.00414984
0.00438948
0.00432832
0.00392784
0.00444664
0.00422127
0.00697239
0.00434719
0.00460133
0.00452685
0.00559896
0.0039271
0.00439677
0.0841098
0.00459111
0.00419152
0.00455568
0.00461864
0.0319411
0.00429054
0.00434833
0.00467892
0.00435572
0.00436372
0.00456523
0.00418593
0.00395467
0.00444472
0.00724401
0.0042973
0.0215775
0.0041451
0.00416078
0.00459915
0.00408187
0.00550805
0.00435198
0.015148
0.00456645
0.00408203
0.00395147
0.00434146
0.00407828
0.00424522
0.00781656
0.00412019
0.00451296
0.00425101
0.00430134
0.00435626
0.00385781
0.0258922
0.00418134
0.00445118
0.004201
0.00423784
0.00525447
0.00438971
0.016203
0.00360248
0.00464953
0.00415427
0.0542383
0.00481244
0.00458714
0.00447288
0.00417511
0.00423633
0.00456708
0.00433087
0.00445187
0.0086683
0.00409115
0.004673
0.00437765
0.00577271
0.00433056
0.013328
0.00424191
0.00383828
0.0041629
0.00412311
0.00468916
0.00401077
0.00397178
0.00466046
0.00525887
0.00400949
0.00403862
0.00451826
0.00451149
0.00431063
0.00806305
0.00368649
0.00448674
0.0154006
0.00471727
0.00444007
0.00696288
0.0419428
0.00381918
0.00421075
0.00461031
0.00391154
0.00416458
0.0043777
0.00425007
0.00467329
0.0043861
0.00395316
0.00441334
0.00404121
0.0076892
0.00710217
0.0038209
0.0119413
0.00868759
0.00442731
0.0150602
0.00373323
0.00458687
0.00766034
0.00703922
0.00447761
0.00428666
0.00462228
0.00434293
0.00377416
0.00441
0.00466143
0.00452285
0.00390102
0.00602838
0.0386385
0.00409309
0.00433542
0.0042887
0.00421344
0.004277
0.00402832
0.00400348
0.00518549
0.00406235
0.00398965
0.00475841
0.00373017
0.0143267
0.00773719
0.00371064
0.0210234
0.00392841
0.0039236
0.00414282
0.00456813
0.0047302
0.0045161
0.00864965
0.00448521
0.00389046
0.0039544
0.0040922
0.00422614
0.00414379
0.00980217
0.0191993
0.00388461
0.00468845
0.00394546
0.0953217
0.00526788
0.00718991
0.00418292
0.00431791
0.00480297
0.00369999
0.00434444
0.00692351
0.00443911
0.00461321
0.00449898
0.0104848
0.00449482
0.0152815
0.00391591
0.00406395
0.0047057
0.00459019
0.00433992
0.00423847
0.0037899
0.00392029
0.0042097
0.00766066
0.00704482
0.00545505
0.00546768
0.0043807
0.00388125
0.00785534
0.0042163
0.00495974
0.00419641
0.00458746
0.00432853
0.00557874
0.00743832
0.00426182
0.0044499
0.00412176
0.0282386
0.00454656
0.00464759
0.00373057
0.0351069
0.00403535
0.00424954
0.00433998
0.00390597
0.0043978
0.00419877
0.00440225
0.00384297
0.00378758
0.00426087
0.00390727
0.00398577
0.00476477
0.00421546
0.00419289
0.00454005
0.00453396
0.0440987
0.00414994
0.00752067
0.00439231
0.0197132
0.00461932
0.00887701
0.004506
0.0088466
0.00424643
0.00452216
0.00697733
0.00436808
0.003905
0.00445176
0.00397216
0.00410901
0.00459958
0.00442652
0.00457323
0.0041637
0.00470615
0.00451665
0.00435362
0.00634318
0.00443648
0.00956506
0.00426554
0.00404905
0.00384403
0.00803999
0.00467885
0.00447593
0.00463559
0.00531454
0.00763804
0.00450132
0.00448811
0.00386616
0.00461677
0.00484381
0.00460708
0.00459671
0.00418327
0.0061357
0.00416226
0.0037452
0.0133551
0.00888259
0.00415469
0.00410094
0.00428278
0.00460774
0.00412617
0.0036963
0.00423286
0.00397649
0.0278379
0.039031
0.00449132
0.00434228
0.00459785
0.00484242
0.00601096
0.004263
0.00454391
0.00437341
0.00544543
0.00432254
0.00432126
0.00382687
0.00409605
0.0143738
0.00442969
0.00443896
0.00446307
0.00448296
0.00434074
0.00647212
0.00368416
0.00403624
0.00457664
0.00431323
0.00463845
0.00467364
0.0636292
0.00440754
0.00394584
0.00925141
0.00442038
0.00501056
0.00422421
0.0042104
0.00420445
0.00443627
0.00449078
0.0296221
0.0039432
0.00423667
0.00424753
0.00450052
0.0275548
0.00423907
0.00448451
0.00419236
0.00428193
0.00427951
0.00442808
0.0044665
0.00599363
0.00399247
0.00506792
0.00429052
0.00518931
0.00426368
0.00445364
0.0326373
0.00465364
0.0043824
0.00439
0.00375249
0.00414648
0.00433398
0.00582113
0.00460706
0.00415818
0.00413316
0.0042881
0.00386113
0.00380514
0.00371312
0.0155928
0.00419127
0.0048141
0.00470126
0.00396822
0.00847
0.00514337
0.00390594
0.00462127
0.00415909
0.0279503
0.00391022
0.00420929
0.00431179
0.00395687
0.00468552
0.0323891
0.00403988
0.00545895
0.00442363
0.00505979
0.00454996
0.00429605
0.0042247
0.00402755
0.00423976
0.0044244
0.00418136
0.00459405
0.00990068
0.00602736
0.0378276
0.0042658
0.00423039
0.0039681
0.00425708
0.00446651
0.0472492
0.00429588
0.00726667
0.00413267
0.00442857
0.0040511
0.00465987
0.00399095
0.0130279
0.00429032
0.0272153
0.00404417
0.00412946
0.00463644
0.00389867
0.003801
0.0104554
0.0042824
0.00436955
0.00406618
0.00463263
0.00390522
0.00419471
0.00362439
0.00455762
0.00440072
0.00440499
0.00432201
0.00459868
0.00456218
0.003717
0.00437352
0.00413565
0.0037896
0.00406668
0.0106412
0.00473329
0.00424574
0.00406862
0.00412175
0.00421768
0.00481876
0.00393423
0.021976
0.004468
0.00420168
0.00448998
0.00437143
0.0138069
0.00433655
0.00389711
0.00397264
0.00432171
0.00415791
0.00412237
0.0037865
0.00458478
0.00416075
0.00444226
0.00464962
0.00412919
0.00400544
0.00477332
0.00505868
0.00448188
0.00417772
0.00684604
0.0068646
0.00452606
0.0040459
0.0276263
0.00454962
0.0100729
0.00382491
0.00471082
0.00715952
0.00438083
0.00420454
0.00417972
0.00377611
0.00435956
0.00381378
0.00457268
0.00400425
0.0042886
0.00430454
0.00417192
0.00466952
0.00394879
0.00428917
0.00913454
0.0134463
0.00446147
0.00384813
0.00382722
0.00447755
0.00500485
0.0053297
0.00424827
0.00389483
0.00417579
0.00482449
0.00428686
0.00421504
0.00441343
0.00491156
0.00371358
0.00469059
0.00448592
0.00437978
0.0347387
0.00436789
0.00420754
0.00457849
0.00420711
0.00437647
0.00455641
0.0045786
0.00462509
0.00448004
0.00461969
0.00369463
0.0148888
0.00644377
0.00370489
0.00424097
0.00442848
0.00449764
0.00380882
0.00558009
0.00459541
0.00407122
0.00401261
0.020263
0.00482598
0.00464039
0.00387074
0.00402617
0.00443186
0.00446198
0.0112303
0.00421545
0.00456768
0.00433396
0.00402669
0.00398402
0.00392419
0.00455633
0.00444781
0.00559979
0.00612698
0.00456605
0.00373596
0.004314
0.00456388
0.00399268
0.00464044
0.00428024
0.00528129
0.0044117
0.00446358
0.00460087
0.00418011
0.00463723
0.00433731
0.00459284
0.00546195
0.00390742
0.00935021
0.0204593
0.00447917
0.00454957
0.0181339
0.00466972
0.00429144
0.00529084
0.00448636
0.00441677
0.0044154
0.00695755
0.00432614
0.00460871
0.00441381
0.00413364
0.00442418
0.00468813
0.00434342
0.00438653
0.00431258
0.00449473
0.00455993
0.00434891
0.0753445
0.00438008
0.00425311
0.00430623
0.0462417
0.00428186
0.00450698
0.014894
0.0715404
0.00423702
0.00433647
0.00444189
0.00411555
0.00465119
0.00454026
0.00417966
0.00399091
0.00411918
0.00460013
0.00635021
0.00435961
0.00420629
0.00416252
0.00457979
0.00412496
0.00564088
0.00444123
0.00449766
0.00441168
0.00460847
0.00424526
0.00996455
0.00424515
0.00455913
0.00435447
0.00453878
0.00390782
0.0166158
0.00466345
0.00455958
0.00370864
0.00395441
0.00412546
0.0043969
0.0110357
0.00430722
0.00410429
0.00431195
0.00376138
0.00371183
0.00711192
0.00407559
0.00419322
0.00452778
0.00588218
0.00532837
0.00416488
0.00417921
0.00437082
0.00422598
0.00420808
0.0044022
0.00438121
0.00460373
0.00393022
0.00853852
0.0162665
0.00373346
0.00383098
0.00403125
0.00484231
0.0389005
0.00451949
0.00424819
0.00427474
0.00439799
0.00529753
0.00449465
0.00444607
0.00421897
0.00408986
0.00460434
0.00390143
0.0046458
0.00440546
0.00399577
0.00705831
0.00426044
0.00445973
0.00434148
0.00446844
0.00440086
0.0132079
0.00449642
0.00417528
0.00596436
0.00373636
0.00603916
0.00461019
0.00410289
0.00403664
0.00460104
0.00462513
0.00404705
0.00481028
0.00992805
0.00394304
0.00403437
0.00407144
0.00434663
0.00370609
0.00410669
0.00423552
0.00413256
0.00455494
0.0802615
0.00402062
0.0303732
0.00455296
0.00449077
0.0110335
0.020526
0.00376279
0.00371725
0.0046758
0.00371941
0.0311852
0.00456247
0.004014
0.00571208
0.00414082
0.00568312
0.00411909
0.00445204
0.00432766
0.00712748
0.00419611
0.00610194
0.0043339
0.00404044
0.00648419
0.00460227
0.00375155
0.00887127
0.00496257
0.00442004
0.00433909
0.00439253
0.00443103
0.00381266
0.00454425
0.0045692
0.00467874
0.00638895
0.00411542
0.00461099
0.00417711
0.00429815
0.00385741
0.00452365
0.0141113
0.00448806
0.00406851
0.00410199
0.00455601
0.00427788
0.00439262
0.0205897
0.00433773
0.00464123
0.00397242
0.00800379
0.00450559
0.00417413
0.00450315
0.00437677
0.00777587
0.00704746
0.00457416
0.0584029
0.00923921
0.0400764
0.00418815
0.00436417
0.00725823
0.00462865
0.0037947
0.00437261
0.00422459
0.0048098
0.00434413
0.00730938
0.00417826
0.00381254
0.00454994
0.00584777
0.00469544
0.0439725
0.00435621
0.00467463
0.0149358
0.00476569
0.00416329
0.00454958
0.00433907
0.00441095
0.00489333
0.00557169
0.0512031
0.00388086
0.00695742
0.0130322
0.00438113
0.00461145
0.00410163
0.00475731
0.00389867
0.00389482
0.0101282
0.00385633
0.00436555
0.0608497
0.004375
0.00431463
0.00420534
0.00457357
0.00431513
0.0038629
0.00423349
0.00389203
0.0152769
0.00443864
0.0317623
0.0256809
0.00433828
0.00476027
0.00389548
0.00410332
0.00367068
0.00417345
0.00442218
0.00452595
0.00682725
0.00437427
0.00458691
0.00400696
0.00454365
0.0045291
0.00710356
0.00453833
0.0375661
0.00415855
0.00450263
0.00428584
0.00463909
0.00481451
0.00411513
0.0135504
0.00444488
0.00435318
0.0042709
0.00408739
0.00405732
0.00527993
0.00402996
0.00423832
0.0149662
0.00416569
0.00403691
0.00431899
0.00412497
0.00379646
0.00425143
0.00719236
0.00942661
0.00425187
0.00468959
0.00450537
0.00403696
0.00395902
0.00383688
0.00368708
0.0794447
0.00462958
0.00586941
0.0055562
0.00457723
0.00670188
0.00424183
0.00423202
0.0456049
0.00454362
0.0207546
0.0379556
0.00456484
0.00449472
0.0045811
0.0312161
0.00443943
0.0387329
0.00391804
0.00456859
0.00428691
0.00413249
0.00427244
0.00635128
0.0043241
0.00434061
0.00624623
0.00476819
0.00483675
0.00415457
0.00674141
0.0370108
0.00401235
0.00411181
0.00430534
0.0043193
0.0320971
0.00394483
0.00412415
0.00459803
0.00456728
0.00410051
0.0213621
0.00897618
0.00442363
0.0167688
0.00535264
0.00437311
0.0215483
0.0139643
0.00462114
0.00369629
0.00453494
0.0040995
0.00460861
0.00453418
0.00442503
0.00424624
0.00486478
0.00362891
0.00435526
0.00430356
0.00461422
0.00455996
0.00468819
0.00391247
0.0044282
0.00429391
0.00441671
0.00455786
0.0136098
0.0112602
0.00404273
0.00593501
0.0042751
0.00399805
0.00504967
0.00452565
0.00456519
0.00448352
0.00411354
0.00449616
0.0042834
0.00438418
0.00361732
0.00478788
0.00399904
0.00411685
0.00422807
0.0143364
0.004422
0.00467573
0.00431417
0.00458659
0.00373764
0.00413112
0.00380572
0.00411501
0.00418525
0.0045048
0.00815697
0.00413727
0.00546362
0.00511326
0.00468828
0.00407635
0.00436198
0.00383669
0.00450446
0.0043964
0.00548831
0.00473528
0.00476423
0.00381247
0.0039705
0.00589407
0.003957
0.00450102
0.0659317
0.00370903
0.00413605
0.0042289
0.00394031
0.00404896
0.00678239
0.0122779
0.00371625
0.0325566
0.0167379
0.00448587
0.00430869
0.00474543
0.00694359
0.00402929
0.00455021
0.00433802
0.00462895
0.00441995
0.00436512
0.00440124