/*--------------------------------*- C++ -*----------------------------------*\
| =========                 |                                                 |
| \\      /  F ield         | OpenFOAM: The Open Source CFD Toolbox           |
|  \\    /   O peration     | Version:  3.0.1                                 |
|   \\  /    A nd           | Web:      www.OpenFOAM.org                      |
|    \\/     M anipulation  |                                                 |
\*---------------------------------------------------------------------------*/
FoamFile
{
    version     2.0;
    format      ascii;
    class       volScalarField;
    location    "0";
    object      yPlus;
}
// * * * * * * * * * * * * * * * * * * * * * * * * * * * * * * * * * * * * * //

dimensions      [0 0 0 0 0 0 0];

internalField   uniform 0;

boundaryField
{
    FrontAndBack
    {
        type            empty;
    }
    patch1
    {
        type            calculated;
        value           nonuniform List<scalar> 
200
(
0.27242
0.269637
0.265065
0.258813
0.256364
0.25205
0.245771
0.244759
0.245105
0.24399
0.244584
0.247183
0.251938
0.255821
0.257135
0.263382
0.272893
0.277388
0.279494
0.283376
0.284979
0.288873
0.291938
0.292962
0.293957
0.296647
0.299296
0.298815
0.3014
0.305993
0.308775
0.312693
0.315586
0.312091
0.311887
0.318314
0.318665
0.319248
0.322916
0.323336
0.323757
0.327593
0.331414
0.331991
0.32927
0.329924
0.333935
0.334613
0.331968
0.329329
0.333442
0.337529
0.3383
0.335761
0.336598
0.340776
0.341637
0.339201
0.336771
0.337735
0.338728
0.339747
0.340805
0.338579
0.33645
0.340968
0.342201
0.340199
0.338237
0.336393
0.334691
0.333025
0.334682
0.333138
0.328482
0.327045
0.324904
0.324158
0.323423
0.318588
0.31482
0.311114
0.304322
0.297582
0.293008
0.289596
0.286219
0.281731
0.272196
0.262618
0.256255
0.246818
0.2373
0.227914
0.222415
0.266111
0.286932
0.291121
0.287656
0.28082
0.274145
0.277458
0.277701
0.273866
0.271249
0.268904
0.26649
0.266026
0.263407
0.263688
0.265087
0.259902
0.258576
0.260615
0.258457
0.256848
0.25832
0.25778
0.260587
0.265603
0.263563
0.26194
0.265069
0.26764
0.268266
0.269239
0.273163
0.278067
0.283243
0.28531
0.287621
0.290108
0.292931
0.29582
0.29537
0.298485
0.305056
0.308357
0.308393
0.311858
0.318724
0.322283
0.322558
0.326212
0.329853
0.330188
0.330549
0.33096
0.331386
0.335111
0.338849
0.339257
0.336272
0.336649
0.337029
0.337392
0.341041
0.338037
0.335002
0.335261
0.33546
0.335712
0.335921
0.332763
0.326269
0.323042
0.323162
0.323232
0.319934
0.316647
0.31334
0.306665
0.299955
0.293264
0.286513
0.279813
0.276475
0.272956
0.266061
0.259322
0.249282
0.23915
0.232326
0.225628
0.215485
0.202016
0.191743
0.181607
0.168116
0.154681
0.141109
0.127747
0.114336
0.107117
0.165608
0.23561
0.265432
0.276448
0.279429
0.266402
)
;
    }
    patch2
    {
        type            calculated;
        value           nonuniform List<scalar> 
200
(
0.271553
0.267662
0.264901
0.259969
0.25325
0.248704
0.246403
0.242204
0.241092
0.244442
0.242073
0.241605
0.247685
0.254886
0.260684
0.264215
0.270755
0.274215
0.274334
0.281656
0.285332
0.285362
0.288871
0.29188
0.294894
0.298099
0.301209
0.304202
0.307654
0.307928
0.307819
0.310308
0.309465
0.309396
0.312665
0.31601
0.315171
0.314335
0.317833
0.321402
0.325051
0.327437
0.325356
0.32466
0.328486
0.330846
0.333219
0.332644
0.332101
0.334488
0.3369
0.33823
0.337851
0.338486
0.338169
0.337877
0.337668
0.338185
0.343429
0.345267
0.343098
0.340943
0.338766
0.338759
0.340942
0.341051
0.341198
0.339157
0.33692
0.339453
0.337527
0.335487
0.333525
0.331664
0.329841
0.32565
0.321603
0.319932
0.320689
0.316899
0.313198
0.309347
0.303331
0.299852
0.296119
0.290288
0.284418
0.27653
0.269038
0.263315
0.255053
0.247341
0.234823
0.224422
0.216855
0.256479
0.285794
0.295461
0.291062
0.275992
0.272596
0.276526
0.272841
0.270057
0.271679
0.270344
0.266749
0.266579
0.264676
0.260856
0.26123
0.262464
0.261363
0.261419
0.261907
0.259837
0.261658
0.2611
0.257962
0.257923
0.25916
0.261766
0.26487
0.268358
0.269864
0.271633
0.276244
0.279104
0.277085
0.280025
0.287774
0.288255
0.291714
0.299886
0.300726
0.299997
0.303991
0.309703
0.313894
0.316639
0.318033
0.321012
0.322504
0.322587
0.328651
0.331697
0.32887
0.330532
0.333596
0.332238
0.333924
0.338668
0.340333
0.338967
0.34064
0.342285
0.337798
0.337771
0.337976
0.338136
0.338017
0.336495
0.334935
0.328912
0.325859
0.324222
0.322561
0.323924
0.320747
0.313068
0.309808
0.305018
0.29873
0.295399
0.290557
0.287188
0.28232
0.27145
0.26353
0.260039
0.250717
0.239755
0.231767
0.223783
0.215827
0.204823
0.193954
0.180114
0.16458
0.155034
0.144131
0.127489
0.112028
0.103857
0.137698
0.223517
0.262719
0.276596
0.281337
0.258776
)
;
    }
    patch3
    {
        type            calculated;
        value           nonuniform List<scalar> 
200
(
0.273042
0.27055
0.266423
0.259929
0.252958
0.248545
0.245891
0.244371
0.241689
0.239322
0.240067
0.244753
0.248758
0.254706
0.260533
0.26358
0.267262
0.273962
0.276888
0.278667
0.284196
0.286336
0.291633
0.296888
0.2959
0.296512
0.299953
0.300678
0.301478
0.302983
0.304018
0.30772
0.313956
0.315389
0.314528
0.316211
0.317787
0.321595
0.32317
0.322123
0.323738
0.326104
0.327827
0.326851
0.328654
0.330474
0.332358
0.331396
0.330418
0.332374
0.331412
0.33345
0.335497
0.339121
0.341231
0.340349
0.339493
0.337292
0.336477
0.338812
0.338036
0.337312
0.339717
0.339034
0.338352
0.337711
0.340259
0.338644
0.333838
0.336547
0.336055
0.33561
0.336577
0.331209
0.327649
0.326532
0.322223
0.322031
0.324324
0.320167
0.312784
0.307995
0.302673
0.298689
0.294845
0.290333
0.285934
0.278241
0.270636
0.263038
0.254937
0.246862
0.239412
0.228546
0.213781
0.246646
0.278827
0.288406
0.290945
0.279883
0.271712
0.27467
0.277562
0.276228
0.273106
0.270819
0.26906
0.266196
0.264307
0.26018
0.259917
0.260423
0.259052
0.258361
0.258423
0.259131
0.257149
0.259111
0.26171
0.261292
0.261168
0.262058
0.266226
0.266782
0.269404
0.270542
0.268785
0.274772
0.279726
0.283185
0.28693
0.289467
0.292168
0.295012
0.300926
0.304008
0.30433
0.307664
0.311095
0.314615
0.318215
0.320022
0.321879
0.325631
0.324772
0.323941
0.32863
0.330595
0.331752
0.333714
0.335702
0.337658
0.339642
0.338871
0.338094
0.339253
0.336471
0.336443
0.337541
0.339382
0.339293
0.333695
0.32999
0.328994
0.327983
0.326917
0.323951
0.320075
0.316146
0.3131
0.311912
0.307892
0.303867
0.299774
0.293849
0.287887
0.27916
0.270317
0.263365
0.254506
0.248545
0.241518
0.232681
0.223838
0.213951
0.204056
0.190613
0.18175
0.170223
0.156694
0.145137
0.128824
0.112779
0.101886
0.127527
0.221296
0.257577
0.273457
0.281442
0.259986
)
;
    }
    Shaft
    {
        type            calculated;
        value           nonuniform List<scalar> 
18
(
12.2052
12.1534
12.1161
12.0936
12.0861
12.0936
12.1161
12.1534
12.2052
12.2052
12.1534
12.1161
12.0936
12.0861
12.0936
12.1161
12.1534
12.2052
)
;
    }
    Inlet
    {
        type            calculated;
        value           uniform 0;
    }
    Lat-Wall
    {
        type            calculated;
        value           nonuniform List<scalar> 
138
(
889.061
748.009
723.994
605.438
541.397
539.653
634.954
634.954
654.9
622.164
813.571
791.926
684.282
599.669
788.259
751.498
520.825
515.682
705.435
681.956
622.164
607.495
662.234
633.523
686.383
631.913
754.628
681.911
563.489
649.444
649.399
758.251
580.93
607.048
617.334
779.806
719.835
565.323
537.193
539.653
541.397
714.424
754.494
570.287
773.322
661.295
456.337
782.49
437.554
540.413
589.651
653.2
638.666
594.705
498.33
488.223
604.454
516.979
570.332
671.67
497.793
637.011
618.72
383.843
538.624
577.263
539.966
607.674
542.381
606.511
570.018
588.578
618.809
542.56
622.074
513.893
512.552
544.125
660.713
415.685
610.625
610.447
599.892
600.25
346.725
538.266
550.028
646.268
405.891
405.041
333.621
333.621
436.033
436.346
662.1
635.714
526.997
615.098
570.466
531.603
529.411
553.65
455.04
412.778
497.928
512.775
444.262
385.632
437.822
421.096
421.141
481.425
613.309
458.349
375.123
371.456
363.451
452.312
452.267
453.072
482.096
455.04
484.467
358.755
477.758
450.702
463.269
459.87
382.994
368.236
509.108
462.911
426.016
371.053
413.851
403.297
402.537
370.114
)
;
    }
    Outlet
    {
        type            calculated;
        value           uniform 0;
    }
    AMI-St
    {
        type            cyclicAMI;
        value           uniform 0;
    }
    AMI-Rt
    {
        type            cyclicAMI;
        value           uniform 0;
    }
}


// ************************************************************************* //
