/*--------------------------------*- C++ -*----------------------------------*\
| =========                 |                                                 |
| \\      /  F ield         | OpenFOAM: The Open Source CFD Toolbox           |
|  \\    /   O peration     | Version:  3.0.1                                 |
|   \\  /    A nd           | Web:      www.OpenFOAM.org                      |
|    \\/     M anipulation  |                                                 |
\*---------------------------------------------------------------------------*/
FoamFile
{
    version     2.0;
    format      ascii;
    class       volScalarField;
    location    "0.200771";
    object      k;
}
// * * * * * * * * * * * * * * * * * * * * * * * * * * * * * * * * * * * * * //

dimensions      [0 2 -2 0 0 0 0];

internalField   nonuniform List<scalar> 
21246
(
0.772143
1.16842
0.745236
0.491932
0.297977
0.176704
0.1087
0.0728059
0.0540271
0.0432275
0.0360995
0.737438
1.07054
0.7838
0.558147
0.35304
0.213376
0.128907
0.0824188
0.0584541
0.0454049
0.03719
0.654571
0.865149
0.756231
0.57859
0.398009
0.247944
0.149999
0.0943369
0.0646995
0.048876
0.0394215
0.542025
0.715691
0.703715
0.574014
0.420217
0.277253
0.17155
0.106749
0.0720757
0.0534886
0.0427458
0.422479
0.62128
0.650306
0.56227
0.43377
0.300646
0.193197
0.121778
0.080412
0.0591341
0.0471359
0.312314
0.553039
0.602674
0.549505
0.444865
0.322802
0.215364
0.138559
0.0917087
0.0663216
0.0523986
0.218455
0.496583
0.562746
0.536336
0.453572
0.344085
0.238869
0.157666
0.105114
0.0754271
0.0591248
0.148773
0.458184
0.535447
0.524558
0.459353
0.363069
0.26258
0.178897
0.120934
0.0863663
0.0670893
0.125481
0.448984
0.529217
0.519824
0.464618
0.379678
0.285445
0.201475
0.13911
0.099449
0.0765467
0.129764
0.451088
0.543577
0.530256
0.47574
0.396594
0.307711
0.224822
0.159349
0.114828
0.0878017
0.120446
0.412354
0.555179
0.558436
0.499876
0.418546
0.331009
0.248818
0.18119
0.132421
0.101071
0.100802
0.336205
0.528231
0.585036
0.536513
0.449605
0.358088
0.274231
0.204449
0.152038
0.116521
0.0812012
0.259195
0.455787
0.577851
0.571153
0.488625
0.391155
0.302621
0.229587
0.173711
0.134268
0.0652965
0.198018
0.362494
0.519804
0.578237
0.524202
0.427794
0.334204
0.256938
0.197525
0.154374
0.0540776
0.152762
0.27413
0.427263
0.541278
0.537967
0.458525
0.365205
0.284991
0.222733
0.17658
0.0472669
0.123854
0.206385
0.330585
0.466202
0.516669
0.470824
0.388402
0.310119
0.247489
0.199707
0.0432638
0.10662
0.161615
0.24932
0.373417
0.460552
0.45563
0.395419
0.326782
0.268339
0.221441
0.040973
0.0963689
0.134196
0.191508
0.284377
0.382162
0.412967
0.380928
0.329409
0.280467
0.238056
0.0397266
0.09018
0.117021
0.156422
0.216708
0.297553
0.351053
0.345799
0.315211
0.280299
0.244979
0.0392843
0.0865418
0.10544
0.133704
0.173406
0.227493
0.281641
0.296813
0.285394
0.266022
0.240294
0.0389149
0.0830622
0.0969723
0.118309
0.145793
0.181152
0.22092
0.243594
0.244119
0.23705
0.221015
0.0386053
0.079556
0.091055
0.109544
0.131463
0.156749
0.181492
0.197201
0.199986
0.197276
0.187072
0.0442548
0.096184
0.10772
0.124723
0.142221
0.159461
0.171186
0.174826
0.1715
0.166538
0.158766
0.106877
0.111979
0.101619
0.108653
0.126904
0.148437
0.163405
0.167229
0.163199
0.157915
0.155138
0.724438
0.916142
0.671455
0.417319
0.250332
0.153043
0.0983088
0.0685338
0.0522609
0.0424612
0.0356589
0.50786
0.709855
0.569802
0.39873
0.254159
0.15992
0.103462
0.071752
0.054354
0.0440357
0.0369967
0.450942
0.624543
0.517362
0.404526
0.278076
0.178504
0.114269
0.0777452
0.0580459
0.0467763
0.0393044
0.415937
0.55486
0.467216
0.388245
0.28334
0.190581
0.124897
0.0849303
0.0627224
0.0502549
0.0423355
0.390305
0.489052
0.426835
0.363241
0.271347
0.188468
0.12755
0.089034
0.0669752
0.0543779
0.0463025
0.369499
0.435295
0.393604
0.340119
0.258976
0.183769
0.126614
0.0896867
0.0682923
0.0561976
0.0488088
0.351958
0.393373
0.366618
0.320145
0.247493
0.179161
0.125863
0.0904777
0.0693527
0.057285
0.0502976
0.337151
0.360967
0.345064
0.304341
0.238657
0.176205
0.126259
0.0920589
0.0707788
0.0580798
0.050637
0.324718
0.335985
0.328441
0.293016
0.23358
0.17613
0.128875
0.0954225
0.0735837
0.0597541
0.0513166
0.314216
0.316461
0.31618
0.28591
0.232639
0.179569
0.134616
0.101612
0.0788573
0.0632375
0.0526399
0.305121
0.301049
0.30732
0.282511
0.235738
0.186901
0.144182
0.111593
0.0877961
0.0699135
0.0560764
0.296986
0.288288
0.300618
0.282049
0.242133
0.197917
0.157824
0.126041
0.101526
0.0814142
0.0636918
0.289499
0.277071
0.295403
0.283719
0.251158
0.212221
0.175455
0.145223
0.120766
0.0991066
0.0780562
0.282152
0.266587
0.290265
0.285956
0.261498
0.228812
0.196389
0.168737
0.145469
0.123531
0.0999728
0.274488
0.256492
0.284198
0.287034
0.271058
0.245589
0.218647
0.19464
0.173542
0.152505
0.128209
0.266293
0.246176
0.276572
0.286025
0.27846
0.260785
0.240124
0.220607
0.202502
0.183303
0.15955
0.257299
0.235095
0.266721
0.281908
0.28221
0.272383
0.258344
0.24379
0.229229
0.212552
0.190708
0.247214
0.222809
0.254105
0.273718
0.280836
0.27832
0.270712
0.261157
0.250337
0.236562
0.217334
0.235857
0.208954
0.238303
0.260682
0.273116
0.276833
0.274964
0.270013
0.262787
0.25206
0.236002
0.223207
0.193273
0.219084
0.242339
0.258282
0.266764
0.269575
0.268538
0.264533
0.256873
0.244258
0.209505
0.175647
0.196461
0.218644
0.236139
0.247714
0.25398
0.256072
0.254872
0.250348
0.241469
0.195614
0.15619
0.170682
0.189859
0.206909
0.219862
0.228381
0.23289
0.234116
0.232713
0.228262
0.182961
0.13471
0.14151
0.155896
0.170738
0.183854
0.194186
0.201246
0.204908
0.206286
0.206455
0.180895
0.11459
0.119485
0.132424
0.148994
0.166056
0.179298
0.185429
0.185926
0.184164
0.183143
0.554798
0.797125
0.673629
0.511614
0.356252
0.231271
0.144674
0.0895142
0.0549014
0.033328
0.0205029
0.436668
0.647147
0.609544
0.483659
0.342371
0.224824
0.141444
0.087031
0.0527943
0.031746
0.0193155
0.329235
0.557793
0.556036
0.469605
0.347254
0.233591
0.148084
0.0907005
0.0543587
0.0322856
0.019609
0.270034
0.49198
0.513393
0.453463
0.348902
0.241357
0.155559
0.0962244
0.0580312
0.0344794
0.0207282
0.230361
0.41307
0.453762
0.427222
0.34739
0.25009
0.164592
0.102488
0.0615901
0.0360142
0.0209512
0.20884
0.36138
0.400888
0.386905
0.32671
0.244549
0.165764
0.104933
0.0636232
0.0376349
0.0224605
0.196223
0.327089
0.363925
0.352829
0.300726
0.228951
0.158775
0.102999
0.0637755
0.0382411
0.0228603
0.18843
0.30232
0.335307
0.324854
0.278507
0.214286
0.150819
0.0995451
0.0627686
0.0383651
0.0237116
0.182628
0.28282
0.312051
0.301537
0.259003
0.200543
0.142687
0.0955787
0.061339
0.038189
0.0239248
0.177515
0.266315
0.292719
0.282377
0.242818
0.188853
0.135487
0.0918315
0.0597671
0.0376874
0.0236426
0.172972
0.252105
0.276523
0.26666
0.229656
0.17933
0.129526
0.0886013
0.0582676
0.0371129
0.0237299
0.16961
0.240217
0.263022
0.253672
0.218896
0.171628
0.124736
0.0860004
0.0570586
0.0366774
0.0236539
0.167007
0.230038
0.251727
0.2431
0.210399
0.165748
0.121223
0.0841965
0.0563129
0.036477
0.0235571
0.164574
0.220991
0.242216
0.234764
0.204173
0.161799
0.119121
0.083306
0.0560902
0.0365355
0.0237956
0.162894
0.213233
0.234284
0.228237
0.199806
0.159522
0.118328
0.0833164
0.0564112
0.0368609
0.0239278
0.161842
0.206374
0.227707
0.223428
0.197334
0.159044
0.118999
0.0843649
0.0573819
0.0375353
0.0242923
0.161095
0.199969
0.222223
0.220343
0.196991
0.160701
0.121461
0.086703
0.0591654
0.0386513
0.0248951
0.16094
0.194053
0.217723
0.218843
0.198772
0.164681
0.125995
0.090596
0.0619796
0.0403654
0.025726
0.16183
0.188455
0.213616
0.218352
0.202537
0.171368
0.133112
0.0964417
0.0661618
0.0429588
0.0271344
0.163908
0.182865
0.209672
0.218306
0.207312
0.179672
0.142443
0.104528
0.0721103
0.0468756
0.029432
0.167494
0.177179
0.205486
0.218353
0.212583
0.18907
0.15347
0.114719
0.0801781
0.0527128
0.0332583
0.174296
0.170077
0.201117
0.21761
0.217087
0.198258
0.165384
0.126986
0.091005
0.0614093
0.0396096
0.182869
0.1642
0.194486
0.215834
0.220114
0.206124
0.177256
0.141092
0.105173
0.0740934
0.0498944
0.207233
0.174336
0.205081
0.210745
0.213951
0.204972
0.183474
0.153744
0.12145
0.0910894
0.0655374
0.514939
0.713202
0.655446
0.548929
0.424566
0.290416
0.181002
0.111563
0.0674215
0.0401007
0.0242394
0.40197
0.524294
0.573502
0.53892
0.458234
0.349146
0.237838
0.148469
0.088843
0.0525554
0.0310839
0.217205
0.459654
0.511027
0.508351
0.462701
0.381721
0.282795
0.188729
0.117436
0.0701466
0.041954
0.216928
0.441316
0.529778
0.51251
0.469589
0.402601
0.316299
0.225169
0.146929
0.0913015
0.0572775
0.238205
0.449984
0.652418
0.629177
0.535783
0.442809
0.350654
0.259146
0.176888
0.113746
0.0735515
0.252942
0.441496
0.700893
0.84566
0.725859
0.555946
0.41479
0.301562
0.209197
0.137959
0.0904191
0.266842
0.428644
0.676942
0.953731
0.998078
0.786598
0.552219
0.376167
0.252636
0.165974
0.10912
0.28121
0.419116
0.63972
0.922569
1.17424
1.08698
0.785461
0.509871
0.322064
0.203289
0.130667
0.295647
0.414451
0.60505
0.861
1.15352
1.29541
1.06131
0.705533
0.428957
0.256777
0.158117
0.309754
0.414664
0.575773
0.790456
1.06212
1.33032
1.28441
0.927229
0.568215
0.32853
0.193
0.323472
0.420634
0.555481
0.722907
0.949364
1.2358
1.37311
1.10807
0.710763
0.409753
0.233632
0.337366
0.431719
0.544021
0.664467
0.837047
1.0933
1.32537
1.20285
0.81852
0.481508
0.27284
0.352015
0.448955
0.541084
0.620581
0.740581
0.945715
1.20013
1.20463
0.865298
0.524078
0.30062
0.368045
0.471504
0.544672
0.590396
0.663767
0.808269
1.03997
1.14483
0.847968
0.527589
0.311558
0.385773
0.499521
0.553588
0.569898
0.606113
0.696183
0.842707
0.984708
0.783708
0.492904
0.304957
0.405224
0.534761
0.56875
0.553974
0.552213
0.592672
0.667299
0.734449
0.691959
0.449886
0.287589
0.427663
0.58091
0.595178
0.548095
0.509086
0.50794
0.535483
0.565907
0.558526
0.421271
0.275018
0.454904
0.643497
0.641455
0.562875
0.491113
0.461458
0.463634
0.474427
0.467572
0.39835
0.278489
0.490511
0.732232
0.723169
0.615845
0.514651
0.465766
0.457682
0.463687
0.45947
0.419088
0.326791
0.54015
0.87484
0.882836
0.749745
0.614137
0.545312
0.533272
0.535007
0.521724
0.475028
0.38121
0.555078
0.988343
1.05528
0.931804
0.773166
0.671621
0.587321
0.529268
0.46805
0.396653
0.299481
0.53355
0.95031
1.04134
0.970418
0.750869
0.537412
0.419661
0.336665
0.272214
0.219379
0.170402
0.401353
0.650881
0.632676
0.507229
0.382631
0.300413
0.247558
0.20931
0.177111
0.146914
0.11738
0.250534
0.201373
0.189114
0.186373
0.188026
0.188199
0.181871
0.166855
0.14436
0.117694
0.0908171
0.224091
0.209247
0.0988499
0.0459511
0.0244301
0.0161025
0.0128467
0.0113816
0.0105707
0.00999738
0.00949106
0.271582
0.313832
0.0945288
0.0532339
0.0275555
0.0174544
0.0131284
0.0111713
0.0101243
0.00943578
0.00889288
0.316481
0.364828
0.0954791
0.0618855
0.0296708
0.0188842
0.0136248
0.01121
0.00990261
0.00906479
0.0084093
0.356448
0.343621
0.0987943
0.0659755
0.0301918
0.0199706
0.0140375
0.0113362
0.00980302
0.00883851
0.00809513
0.387863
0.311615
0.0999232
0.0650181
0.0301462
0.0206671
0.0142508
0.011457
0.00976411
0.00871835
0.00793002
0.410469
0.290322
0.0996422
0.0622648
0.0300777
0.0210116
0.0142969
0.0115435
0.00973772
0.00865317
0.00784969
0.424594
0.279862
0.0990674
0.0595466
0.0301092
0.0210578
0.0142782
0.0115953
0.00970338
0.00861066
0.00778522
0.430787
0.275951
0.0984946
0.0573578
0.0302293
0.0209069
0.014269
0.0116051
0.00966504
0.00858318
0.00776271
0.430283
0.277078
0.0987253
0.0560526
0.0304703
0.0207285
0.014304
0.0115776
0.00964078
0.00856134
0.00773419
0.424132
0.281356
0.102866
0.0565964
0.031086
0.0206803
0.0144115
0.0115452
0.00964465
0.00853946
0.00770686
0.412565
0.28902
0.110075
0.0585916
0.0323064
0.0210009
0.0146728
0.0115767
0.00967607
0.00852364
0.00769246
0.396185
0.299547
0.118828
0.0617005
0.0340047
0.0216198
0.0150784
0.0116946
0.00975683
0.00853895
0.00769681
0.376408
0.312311
0.130211
0.0664059
0.0364781
0.0226893
0.0156872
0.011937
0.00989027
0.00858972
0.00771757
0.353946
0.327267
0.145883
0.0736893
0.0402383
0.0244655
0.0166207
0.0123734
0.0101097
0.00869244
0.0077641
0.32915
0.34527
0.164745
0.0835188
0.0454284
0.0270881
0.0179908
0.0130711
0.0104593
0.00886925
0.0078507
0.303283
0.365937
0.188147
0.096963
0.0527585
0.0309707
0.020054
0.0141702
0.011025
0.00916535
0.00800187
0.277393
0.388417
0.218279
0.116102
0.0636415
0.0369497
0.0233064
0.0159467
0.0119687
0.00966978
0.00826709
0.252519
0.414432
0.256143
0.142766
0.0797269
0.0462081
0.0285323
0.0188838
0.0135852
0.0105553
0.00874588
0.230719
0.443964
0.304239
0.180517
0.104157
0.0610502
0.0373024
0.0239971
0.0165102
0.0122063
0.0096644
0.214722
0.476301
0.365262
0.234737
0.142461
0.0859346
0.0528639
0.0335224
0.0222194
0.015563
0.0116007
0.206665
0.508212
0.439841
0.312869
0.204389
0.129785
0.0823058
0.0527021
0.0344174
0.0231501
0.0162152
0.207516
0.535663
0.522521
0.42076
0.304795
0.209932
0.141434
0.0944454
0.0630177
0.0422879
0.0287268
0.202452
0.526559
0.573929
0.527136
0.4362
0.33826
0.251731
0.182477
0.130041
0.0917275
0.0641974
0.223426
0.461103
0.486234
0.472906
0.434587
0.38215
0.323795
0.265978
0.212888
0.166809
0.127933
0.1976
0.201323
0.0995332
0.046058
0.024194
0.0161526
0.0132566
0.0120537
0.0114463
0.0110626
0.0107512
0.236437
0.250779
0.0854085
0.0482938
0.0271492
0.0182941
0.0146505
0.0131338
0.0124307
0.0120607
0.0118199
0.271906
0.278093
0.077952
0.0520921
0.029343
0.020528
0.0166671
0.0150826
0.0144287
0.0141151
0.013907
0.30024
0.251334
0.0744819
0.0536954
0.0303549
0.0219533
0.0182003
0.0169348
0.0167066
0.016927
0.017327
0.320176
0.213178
0.0717732
0.0525099
0.0304568
0.0229017
0.0193822
0.018393
0.0185171
0.0192042
0.0201697
0.333883
0.182666
0.0688824
0.0499826
0.0302568
0.0235582
0.020275
0.0195333
0.0199852
0.0211979
0.0229875
0.343835
0.160858
0.0659775
0.0473634
0.0300117
0.0240301
0.0209219
0.0203719
0.0210161
0.0225302
0.0247541
0.350311
0.144853
0.0631295
0.0450645
0.02976
0.0243301
0.0213809
0.0209487
0.0216714
0.0233636
0.0260431
0.355414
0.132853
0.0605602
0.043181
0.0295964
0.0244648
0.0216948
0.0212821
0.0219715
0.0236519
0.0264013
0.360639
0.123918
0.0583958
0.0417511
0.0295708
0.0244999
0.0218779
0.0213917
0.0219443
0.023426
0.0258581
0.367171
0.11787
0.0567735
0.0407628
0.0296562
0.0245158
0.021952
0.0213136
0.0216485
0.022805
0.0247317
0.374019
0.11368
0.0555202
0.0401025
0.0298297
0.0245291
0.0219507
0.0210974
0.0211652
0.0219396
0.0233261
0.379604
0.112275
0.0548697
0.039761
0.0301542
0.0245917
0.0219388
0.02081
0.0205897
0.0209759
0.0218443
0.383941
0.113845
0.0553251
0.0397728
0.0306966
0.0248054
0.0219878
0.0205309
0.020008
0.0200291
0.0204695
0.387085
0.117002
0.056557
0.0400985
0.0313947
0.0252044
0.0221297
0.0203195
0.0194789
0.0191659
0.0192639
0.389202
0.121957
0.0587774
0.0408597
0.0322637
0.0258463
0.0224272
0.0202464
0.0190684
0.0184472
0.0182712
0.390395
0.129078
0.0623733
0.0422856
0.033382
0.0267919
0.022968
0.0203976
0.0188551
0.0179367
0.0175271
0.390654
0.138166
0.0676458
0.0446705
0.0348997
0.0281035
0.0238483
0.0208761
0.0189419
0.0177138
0.0170644
0.389946
0.149209
0.0750734
0.0485118
0.0371514
0.0299201
0.0251916
0.0218085
0.0194642
0.0178953
0.0169736
0.388183
0.162399
0.0853964
0.0546477
0.0408069
0.032607
0.0272284
0.0233737
0.0205973
0.0186519
0.0174074
0.38509
0.177638
0.0995537
0.0643816
0.0470968
0.0370347
0.0305193
0.0259358
0.0226075
0.0202113
0.0185831
0.379916
0.194726
0.118643
0.0796589
0.0581597
0.0450612
0.0364506
0.030439
0.026095
0.0229401
0.0207204
0.370934
0.216985
0.146642
0.104841
0.0786245
0.0611994
0.0490348
0.0402136
0.0336627
0.0287578
0.0261145
0.277867
0.270874
0.217297
0.183012
0.161873
0.148221
0.138686
0.130962
0.123704
0.116238
0.106907
0.0639498
0.0334043
0.0188426
0.0175995
0.0202124
0.0356239
0.0721945
0.0942748
0.10826
0.0775491
0.0539348
0.0346194
0.0278216
0.0377828
0.0728382
0.0990677
0.127473
0.153498
0.0957133
0.0694216
0.0460678
0.0366537
0.0513982
0.0954631
0.124097
0.146259
0.158836
0.10073
0.0788684
0.0548112
0.0449895
0.0638996
0.105729
0.127873
0.140459
0.146874
0.0850657
0.0972246
0.104105
0.107683
0.108166
0.11065
0.118314
0.119971
0.117642
0.100773
0.121139
0.138117
0.14965
0.158086
0.174149
0.192846
0.184123
0.173624
0.115964
0.128122
0.137308
0.146651
0.152732
0.165374
0.185412
0.177128
0.168517
0.112514
0.117738
0.122137
0.126686
0.126256
0.132021
0.15276
0.148924
0.149921
0.00442742
0.00460172
0.00461725
0.00568372
0.0135918
0.00438235
0.0204968
0.00454938
0.00437414
0.00422475
0.014651
0.00455912
0.00426476
0.00397514
0.00448391
0.00430242
0.00387515
0.00554165
0.00429187
0.00424681
0.00410601
0.00646746
0.00466541
0.00601308
0.00449216
0.00396947
0.00430042
0.0217641
0.0452635
0.0211843
0.00391955
0.00403619
0.00399578
0.00453657
0.0041902
0.00459235
0.00579422
0.00448723
0.00405383
0.00438883
0.00497412
0.00454579
0.00474149
0.00465842
0.0569111
0.0121112
0.00400211
0.0215142
0.00423229
0.00433615
0.0198748
0.00439514
0.00426527
0.00474223
0.00432904
0.00411363
0.00664073
0.00440105
0.0458245
0.00511798
0.00502327
0.00426604
0.0175428
0.0241443
0.00655252
0.0042591
0.0119039
0.00434791
0.00460201
0.00421873
0.00382826
0.00428399
0.00663889
0.00450958
0.00652545
0.00425747
0.00374483
0.004598
0.0523675
0.0655803
0.00453856
0.0218726
0.00449553
0.00462621
0.00420268
0.00648583
0.0834646
0.00424479
0.00802405
0.00465245
0.00454249
0.00441244
0.00554436
0.00436727
0.0633963
0.0394277
0.00575687
0.0041633
0.00852789
0.00434057
0.00447712
0.0186785
0.00415531
0.00392306
0.00656861
0.00455253
0.00367277
0.00464659
0.00396772
0.00413522
0.00450996
0.00456073
0.00429628
0.00675913
0.00395972
0.00442284
0.00437515
0.00431574
0.00450282
0.00412943
0.0068554
0.0044512
0.00487518
0.00386603
0.0107001
0.00440184
0.00426513
0.00366076
0.00378639
0.00387478
0.00445317
0.00512499
0.0196775
0.00426106
0.00461414
0.00437509
0.00354041
0.0140181
0.020774
0.00439691
0.00470571
0.00410398
0.0501018
0.00401051
0.00436731
0.00385991
0.00444997
0.00433539
0.00428068
0.00425205
0.00428919
0.00441901
0.00423193
0.0044362
0.00659136
0.00458481
0.00503523
0.00521656
0.00376626
0.00435929
0.00401833
0.00770077
0.00427703
0.00442967
0.0122787
0.00429082
0.00893539
0.00426267
0.00430786
0.00650654
0.00391741
0.0036605
0.0044015
0.00404656
0.0040322
0.00391209
0.00367107
0.00451541
0.0574007
0.00388685
0.00433056
0.00463267
0.00466005
0.00674447
0.0045064
0.0121287
0.00427261
0.00430195
0.0045897
0.05202
0.00397464
0.00402846
0.00427205
0.00490054
0.00461019
0.0043973
0.00435028
0.00821223
0.00389482
0.00467916
0.00394198
0.00433624
0.00406341
0.00401263
0.00462778
0.00421526
0.00435889
0.00378306
0.0043437
0.00433799
0.00456179
0.004394
0.00400135
0.00415714
0.00449186
0.00508212
0.00451054
0.00361884
0.00429327
0.0040256
0.00403341
0.00644399
0.00573031
0.00403054
0.00382745
0.00440608
0.00601692
0.00417929
0.00393068
0.037105
0.00578339
0.00425576
0.00428446
0.00444437
0.00427645
0.0778647
0.00634222
0.00464672
0.00456347
0.00455178
0.0036257
0.0131667
0.00391471
0.00467013
0.00458081
0.00842575
0.00451841
0.00409561
0.0318965
0.00484114
0.00409195
0.00460748
0.00505536
0.00430078
0.00392521
0.00435746
0.00413485
0.00447291
0.00381369
0.0042666
0.00373782
0.00443367
0.00432547
0.00457551
0.00450763
0.00382504
0.0041026
0.00476775
0.00589954
0.00379983
0.010367
0.00432055
0.00432985
0.00397008
0.00438913
0.00432742
0.00391696
0.00444789
0.00422783
0.00678932
0.00431477
0.00459845
0.00456185
0.00601072
0.00392584
0.00439543
0.0764031
0.00459018
0.00419512
0.00461755
0.00461691
0.0276951
0.0042246
0.00434868
0.00467884
0.00434864
0.00431888
0.00456648
0.00418834
0.0039384
0.00444887
0.00709775
0.00430312
0.0213257
0.00414707
0.00413685
0.00459906
0.0040899
0.00485136
0.00434843
0.0128872
0.00456449
0.0040753
0.0039641
0.00419501
0.00408141
0.0042284
0.00832149
0.00412006
0.00443776
0.00426493
0.00431669
0.00435554
0.00383866
0.0313089
0.0041865
0.00445206
0.00419175
0.00423899
0.00545832
0.00445347
0.0185662
0.00364403
0.00464934
0.00412881
0.0557275
0.00520583
0.00458749
0.00447445
0.00411435
0.00420467
0.00464988
0.00433219
0.00446856
0.00915679
0.00410015
0.00441618
0.00437688
0.00599528
0.00439897
0.0119712
0.00416275
0.00379835
0.00416606
0.00412421
0.00468915
0.00403497
0.0039731
0.00465963
0.00544615
0.00396805
0.00403207
0.00451797
0.004512
0.00430729
0.00815685
0.00367174
0.00450712
0.0142307
0.0044857
0.00444091
0.0067153
0.0436947
0.00381507
0.00421598
0.00460908
0.00390165
0.00416897
0.00437733
0.00425926
0.00479626
0.00438429
0.00406557
0.00441317
0.00402504
0.00842768
0.00707161
0.003812
0.0126699
0.00857315
0.00442966
0.0139657
0.00371908
0.00452486
0.00844089
0.00648609
0.00447917
0.00429116
0.00461945
0.00410092
0.00378509
0.00440955
0.00466149
0.00459116
0.00390969
0.00564377
0.0376984
0.00409709
0.00433477
0.00430478
0.004289
0.00427765
0.00403181
0.00400521
0.00519393
0.00405833
0.00398614
0.00462397
0.00372168
0.0145839
0.0082964
0.00370676
0.0189561
0.00391471
0.00392402
0.00412473
0.00447861
0.00473793
0.00432618
0.00811117
0.00448629
0.00399737
0.00393722
0.00409234
0.00430831
0.00418064
0.00934899
0.0176247
0.00387637
0.00468837
0.00390325
0.0825593
0.00516352
0.00712627
0.00422087
0.00436986
0.00494236
0.00362645
0.00434475
0.007337
0.0044426
0.0046134
0.00449963
0.0107353
0.00447391
0.0141791
0.00392376
0.00396522
0.00473192
0.00459139
0.00434084
0.00429359
0.0037837
0.00391673
0.00431193
0.00767682
0.00708787
0.00545505
0.00546768
0.00443216
0.00388145
0.00749038
0.0042265
0.00495407
0.00425191
0.00458744
0.0043271
0.00557889
0.00759269
0.00427687
0.00444934
0.00412162
0.0315865
0.00406067
0.00464672
0.0037256
0.0338917
0.00403628
0.00429257
0.00434002
0.00382841
0.00439549
0.00426415
0.00440101
0.00382536
0.00377372
0.00426234
0.00388807
0.0039868
0.00468415
0.00420811
0.00418374
0.00454146
0.00453472
0.0428337
0.00419066
0.00754407
0.00446906
0.0174305
0.00461918
0.00976609
0.00451177
0.00863382
0.00426483
0.00452072
0.00768978
0.00414073
0.00388511
0.0044526
0.00393654
0.00410881
0.00459664
0.00442606
0.00457419
0.00417312
0.0048436
0.00452137
0.00435313
0.00594038
0.00444009
0.00904085
0.00435199
0.00405114
0.0038234
0.00809475
0.00467859
0.00447596
0.00463337
0.00490382
0.00771692
0.00450242
0.00448801
0.00385862
0.00461474
0.00470723
0.00460473
0.00475587
0.00418673
0.00624727
0.00418455
0.00374632
0.0140543
0.00983941
0.0041573
0.0040976
0.00427091
0.00460683
0.00416199
0.00362972
0.00423388
0.00397727
0.0249804
0.0416988
0.00449104
0.00433457
0.00459589
0.00497757
0.00648949
0.00426715
0.00454394
0.0043693
0.00581795
0.0043122
0.00430108
0.00381168
0.0041014
0.0156437
0.00443012
0.0044625
0.00446282
0.00428053
0.00433623
0.00649591
0.00367782
0.00403708
0.00447487
0.00433953
0.00463595
0.00467322
0.0647623
0.00440555
0.00392942
0.00974806
0.00419361
0.00513266
0.00418939
0.00419032
0.00419634
0.00443921
0.00449546
0.0347368
0.003811
0.00424123
0.00424939
0.00450025
0.0271116
0.0042589
0.00443063
0.00423263
0.00426309
0.00423225
0.00427981
0.004247
0.0059515
0.00399374
0.00511001
0.00429337
0.00525699
0.00424598
0.00445828
0.033637
0.00476836
0.00438224
0.004388
0.00354405
0.00414481
0.00433506
0.00577669
0.00460567
0.00415478
0.00408497
0.00429923
0.00383604
0.00380073
0.0037077
0.0159313
0.00420762
0.00477107
0.00460543
0.00396122
0.00853827
0.00558187
0.00389701
0.00462114
0.00416563
0.0333197
0.00391016
0.00421951
0.00422622
0.00394028
0.00471115
0.0306177
0.00402306
0.00534581
0.00442388
0.0050988
0.00455006
0.00429884
0.00423088
0.00399627
0.00422655
0.00454478
0.0042004
0.00459384
0.0105028
0.00603894
0.0368038
0.0042479
0.00425797
0.00396938
0.00433195
0.00440466
0.0432176
0.00428074
0.00740709
0.00415394
0.00442898
0.00408165
0.00465964
0.0040061
0.0136047
0.00424496
0.0271535
0.00399639
0.00411745
0.00463642
0.00389759
0.00379445
0.0107365
0.00433095
0.00436864
0.00406132
0.00463266
0.00385939
0.00420748
0.00361417
0.00455634
0.00440034
0.00440317
0.00431477
0.00444909
0.00456251
0.00371649
0.00437305
0.00414257
0.00377366
0.00406588
0.0111529
0.00456757
0.00426739
0.00407999
0.00415122
0.00419304
0.00482578
0.00394512
0.0192933
0.00446888
0.00416968
0.0044936
0.00442705
0.0116837
0.00437716
0.0038183
0.0039706
0.00431121
0.00415173
0.00412121
0.00365588
0.00458604
0.00424208
0.00450837
0.00481293
0.00411649
0.00398605
0.00485028
0.00517013
0.00442836
0.00414751
0.00722742
0.00688179
0.00452873
0.00403763
0.0255578
0.00454875
0.00957237
0.00383088
0.0045747
0.00727957
0.00437747
0.00427279
0.00418569
0.00377839
0.0043263
0.00380894
0.00457081
0.00401989
0.0042704
0.00431116
0.00421413
0.00478559
0.00393891
0.00429037
0.00856006
0.0124935
0.00446123
0.00384699
0.00382285
0.00452442
0.00505062
0.00530197
0.00425447
0.00390699
0.00419722
0.00484983
0.00429028
0.00419886
0.00441328
0.00466648
0.00369648
0.00469031
0.00449145
0.0043796
0.034253
0.00438398
0.0041873
0.00457809
0.0041718
0.00425043
0.00455703
0.00458005
0.00462427
0.00448345
0.00456463
0.00368743
0.01414
0.00628103
0.00369015
0.00419818
0.0044264
0.00450213
0.00378014
0.00594457
0.00459527
0.00405028
0.00399598
0.0178542
0.00497414
0.00459483
0.00386915
0.00395848
0.00442975
0.00446488
0.010406
0.0042164
0.00456822
0.00424135
0.00402341
0.00393717
0.00387595
0.00455569
0.00444726
0.00537423
0.00649041
0.00456699
0.00372007
0.00437316
0.00439836
0.00415636
0.00464043
0.00428422
0.00542252
0.00427273
0.0045091
0.00460116
0.00419737
0.00452323
0.00433211
0.00459163
0.00549776
0.00388986
0.00891159
0.0184826
0.004546
0.00455004
0.0155555
0.00466941
0.00427743
0.00494457
0.00449065
0.00441748
0.00441634
0.00711732
0.00446409
0.00458414
0.00441441
0.00406454
0.0044228
0.00468811
0.00433523
0.00438461
0.00422307
0.00449688
0.00455871
0.00433734
0.0670017
0.00437874
0.00425572
0.00444171
0.042639
0.0043027
0.00450735
0.0167408
0.0672087
0.00427645
0.00432072
0.00437298
0.00429293
0.00464961
0.00453995
0.00417797
0.00399176
0.00418074
0.00459846
0.00599626
0.00435435
0.00422233
0.00418125
0.00458047
0.00411994
0.00564126
0.00444212
0.00443889
0.00449739
0.00460819
0.00417684
0.00932014
0.00426891
0.00453953
0.00447244
0.00457483
0.0039074
0.0169526
0.0046629
0.00456108
0.00369997
0.00397049
0.0041158
0.00439614
0.0120247
0.00429777
0.00406172
0.00431515
0.00375294
0.00369804
0.00688777
0.00406476
0.00419212
0.00452731
0.00616122
0.00478033
0.00421941
0.00423282
0.004299
0.00417968
0.0042091
0.00450958
0.00438099
0.00460338
0.00391735
0.00797752
0.0174825
0.00368351
0.00381642
0.00402651
0.00502337
0.0408077
0.00452015
0.00419293
0.0043465
0.00439614
0.00534259
0.00449736
0.00449496
0.00423126
0.00409334
0.00460524
0.0038881
0.00464482
0.00440537
0.00399298
0.00741257
0.00427298
0.00446119
0.00433199
0.00443634
0.00425128
0.0136228
0.00437671
0.00417074
0.00557588
0.00362021
0.00607418
0.00461053
0.00410861
0.00405498
0.00459798
0.004632
0.00404905
0.00467475
0.0111384
0.00394282
0.00400669
0.00407397
0.00434571
0.0036489
0.00411354
0.00426181
0.00414088
0.00455393
0.0765224
0.00401599
0.0363846
0.00455284
0.00451534
0.0115482
0.0222909
0.00376467
0.00370356
0.00467575
0.00370259
0.0341116
0.00456339
0.00401486
0.0058052
0.00420928
0.0060676
0.00406604
0.00445633
0.00432948
0.00666639
0.00425132
0.00562516
0.00435827
0.00404093
0.00705797
0.00460041
0.00369258
0.00913313
0.00499387
0.0044625
0.00439098
0.00439089
0.00442375
0.00380945
0.00454523
0.00458034
0.00467887
0.00636244
0.00410667
0.00460794
0.00417099
0.00436447
0.00385632
0.00452624
0.0123599
0.00439525
0.0040689
0.00409313
0.00455646
0.00427367
0.00440573
0.0187504
0.00448389
0.00478709
0.00397351
0.00820754
0.00450781
0.00417563
0.00450365
0.00437554
0.00780825
0.00724541
0.00464923
0.0593602
0.00870853
0.0411626
0.00418259
0.00426212
0.00709106
0.00462886
0.00378951
0.00451742
0.0042262
0.00475159
0.00432407
0.00772483
0.00419811
0.00380364
0.00455078
0.00615459
0.00469505
0.0420231
0.00431763
0.00456199
0.014869
0.00485725
0.00417175
0.00446764
0.00439885
0.00435657
0.00505547
0.00556722
0.0483631
0.00386795
0.00711875
0.0127073
0.00437463
0.00461012
0.0041263
0.00464576
0.00388012
0.00387886
0.0104898
0.00385406
0.00419427
0.061282
0.00437356
0.00433033
0.00422051
0.0045745
0.00432872
0.00384518
0.00421963
0.0038771
0.0132024
0.00456882
0.0355335
0.0238456
0.00431795
0.00455282
0.00386258
0.0039288
0.00365854
0.00419023
0.0044204
0.00452652
0.00746792
0.00437299
0.00458622
0.00397385
0.0045441
0.00447923
0.00748663
0.00447499
0.0407612
0.0041598
0.00487005
0.00428896
0.00463914
0.00487813
0.00411269
0.0123487
0.00444447
0.0043742
0.00403125
0.00410224
0.00408832
0.00528011
0.0040285
0.00423914
0.015718
0.0041778
0.00403932
0.00432102
0.0041988
0.00378602
0.00430206
0.00721162
0.0105686
0.00425275
0.0046895
0.00450542
0.00402574
0.00397535
0.00383362
0.00362221
0.0751349
0.00457189
0.00586151
0.00555656
0.00457512
0.00711807
0.00424421
0.00426819
0.0495307
0.00449701
0.0184956
0.0362945
0.00456628
0.0044953
0.00460704
0.031664
0.00447463
0.0355193
0.00388982
0.00456668
0.00429888
0.00412479
0.00429421
0.00636361
0.00429852
0.00433924
0.0062658
0.00488552
0.00524147
0.00415947
0.0065914
0.0375702
0.00401365
0.00403237
0.00430683
0.00431548
0.0322814
0.00395067
0.00406852
0.00459835
0.0045916
0.00412594
0.0226896
0.00944459
0.00435271
0.0182087
0.00737456
0.00436862
0.0196683
0.014645
0.00462201
0.0036795
0.00455024
0.00410373
0.00464801
0.00453503
0.00442445
0.00423255
0.0046126
0.00361458
0.00435442
0.0040728
0.00461495
0.00456111
0.00468819
0.00390392
0.00442852
0.00431727
0.00434617
0.00455905
0.0119893
0.011634
0.00404204
0.00627522
0.0041957
0.00398848
0.00508041
0.00452995
0.00456631
0.00448644
0.00413
0.0044966
0.00429036
0.00432217
0.00347551
0.00462938
0.00401039
0.00416163
0.00423463
0.0151288
0.00434457
0.00467563
0.00439664
0.00458672
0.00373008
0.00413125
0.0038001
0.00411479
0.00418493
0.00450952
0.00852975
0.0041569
0.00546423
0.00529737
0.00468828
0.00410706
0.00443035
0.00381794
0.00443073
0.00439446
0.00548854
0.00490336
0.00452418
0.00380342
0.00395966
0.00623948
0.0039693
0.00450125
0.0660369
0.00369454
0.00413448
0.00433849
0.00403004
0.00403531
0.00668502
0.0127454
0.00369918
0.0373938
0.0153487
0.00448677
0.00433152
0.00489063
0.00713958
0.00401474
0.0045514