/*--------------------------------*- C++ -*----------------------------------*\
| =========                 |                                                 |
| \\      /  F ield         | OpenFOAM: The Open Source CFD Toolbox           |
|  \\    /   O peration     | Version:  3.0.1                                 |
|   \\  /    A nd           | Web:      www.OpenFOAM.org                      |
|    \\/     M anipulation  |                                                 |
\*---------------------------------------------------------------------------*/
FoamFile
{
    version     2.0;
    format      ascii;
    class       volScalarField;
    location    "0.814755";
    object      epsilon;
}
// * * * * * * * * * * * * * * * * * * * * * * * * * * * * * * * * * * * * * //

dimensions      [0 2 -3 0 0 0 0];

internalField   nonuniform List<scalar> 
21246
(
602.203
285.557
55.1532
13.6058
3.22945
0.939055
0.425056
0.292581
0.254213
0.247522
0.256594
808.506
463.833
117.873
23.699
5.17054
1.34969
0.516858
0.320141
0.270039
0.26418
0.278731
841.061
457.728
153.755
39.6703
8.04181
1.87807
0.64668
0.357877
0.2882
0.280904
0.3018
740.869
408.72
162.463
48.3339
11.0933
2.41074
0.792274
0.401982
0.30753
0.295591
0.3185
602.778
366.995
160.568
52.6244
13.5225
3.03458
0.93705
0.448722
0.327423
0.308295
0.32925
474.368
333.665
157.097
56.3744
16.0624
3.87388
1.11272
0.496015
0.346941
0.319437
0.337197
364.128
306.406
153.882
60.3178
18.9723
4.9626
1.38848
0.559888
0.365664
0.329143
0.344525
273.971
283.381
150.762
63.9729
22.0598
6.29801
1.77587
0.654786
0.390591
0.337788
0.350175
205.721
262.917
148.765
67.7035
25.3881
7.93451
2.31982
0.79904
0.426666
0.348043
0.354311
155.557
244.409
148.501
72.1825
29.2866
10.0302
3.1078
1.03018
0.485477
0.362516
0.358251
118.195
228.279
149.478
77.2109
33.6553
12.5872
4.19718
1.39209
0.585547
0.386749
0.36308
91.6329
215.286
151.384
82.3578
38.1587
15.4556
5.58484
1.92107
0.751235
0.430533
0.371766
75.025
204.241
154.423
88.0463
42.9774
18.6779
7.31431
2.67097
1.01937
0.510903
0.390293
66.4094
193.463
158.402
94.8217
48.4841
22.4028
9.46687
3.71547
1.44516
0.657525
0.430789
65.8699
185.648
163.279
102.559
54.5966
26.5634
12.024
5.09097
2.08288
0.911637
0.515541
73.1916
178.713
168.375
111.794
61.8632
31.4306
15.0997
6.87845
3.00923
1.33409
0.68259
83.6985
168.155
171.248
122.79
71.192
37.6126
19.0022
9.24515
4.3439
2.01879
0.996786
92.5114
152.867
168.288
134.02
83.0525
45.8001
24.1878
12.4641
6.27101
3.10457
1.56223
99.1184
134.575
156.605
141.359
96.8348
56.8601
31.5343
17.1321
9.17401
4.8525
2.56662
104.155
116.26
137.044
139.274
109.277
71.0239
42.3309
24.4223
13.8876
7.8272
4.39598
110.003
99.9166
113.635
126.061
115.493
86.9254
57.9543
36.3622
22.1559
13.3137
7.95402
140.47
90.613
95.607
110.537
114.306
100.379
77.0979
54.2068
36.1873
23.5462
15.0771
165.852
90.8631
89.6754
92.932
94.7056
91.037
80.6877
65.5904
49.7523
36.2247
25.3571
362.28
368.086
294.522
259.164
223.535
184.333
143.959
105.868
75.6502
53.6147
37.4468
510.342
148.835
40.5611
9.098
2.30208
0.772762
0.389783
0.278715
0.241963
0.231578
0.233501
462.076
117.516
31.201
9.32379
2.63294
0.892721
0.422982
0.285161
0.238948
0.223831
0.222388
468.579
135.861
31.5299
11.1343
3.63062
1.25445
0.526488
0.311522
0.24275
0.218931
0.21282
428.448
129.148
29.3759
11.4734
4.12835
1.54575
0.653249
0.355743
0.256407
0.22103
0.209973
379.702
108.933
26.7905
11.0433
4.05491
1.56943
0.679849
0.374252
0.265787
0.225826
0.21257
338.072
89.9689
24.1334
10.1484
3.79538
1.5344
0.683778
0.380192
0.270427
0.229077
0.215924
304.579
75.3869
21.7657
9.21916
3.49018
1.46112
0.669292
0.38066
0.273099
0.23157
0.218408
276.75
64.4036
19.7072
8.38433
3.21154
1.38506
0.649319
0.37864
0.275489
0.234891
0.222095
255.77
56.1632
18.0601
7.69917
2.99678
1.32085
0.632272
0.376815
0.277542
0.23781
0.224941
240.832
50.2309
16.7537
7.16835
2.85442
1.27494
0.621448
0.376782
0.280421
0.241506
0.228873
231.159
46.0947
15.8295
6.81787
2.77731
1.25278
0.619106
0.379594
0.28456
0.24636
0.234553
225.139
43.0951
15.15
6.60553
2.75403
1.25381
0.625864
0.385782
0.2901
0.252105
0.241043
223.061
41.0584
14.7167
6.52493
2.7879
1.28139
0.64361
0.396326
0.297324
0.258445
0.248228
223.486
41.2253
14.7537
6.63881
2.91322
1.35099
0.679209
0.413696
0.30714
0.265623
0.255595
226.064
42.6016
15.2476
6.95463
3.16615
1.49278
0.753955
0.44988
0.325637
0.276696
0.264413
231.306
45.3845
16.3173
7.52907
3.57395
1.73167
0.885051
0.51596
0.359156
0.295198
0.27655
239.8
49.8397
18.1741
8.47664
4.19682
2.11206
1.10435
0.633814
0.421266
0.328999
0.29639
252.904
56.1258
21.0249
9.95893
5.13436
2.70602
1.46666
0.843836
0.539613
0.395962
0.335088
272.826
64.7886
25.2439
12.2517
6.57167
3.64493
2.07226
1.22285
0.771267
0.53663
0.421066
303.338
77.0737
31.5159
15.8412
8.85629
5.18081
3.11459
1.9234
1.23611
0.843613
0.625105
352.141
95.4404
41.1249
21.6054
12.644
7.81242
4.98587
3.26225
2.19386
1.53012
1.12244
437.363
125.068
56.7432
31.3064
19.2407
12.5598
8.50848
5.91947
4.21842
3.08684
2.3341
607.651
186.397
88.3855
50.7144
32.4492
22.1661
15.7914
11.6055
8.7614
6.79121
5.41604
1110.03
320.782
167.619
107.27
76.3123
57.5417
44.6447
36.0338
29.9723
25.5292
21.9289
94.848
85.2462
53.5155
38.6194
22.4713
10.4262
4.27609
1.67009
0.661626
0.282474
0.138778
96.3326
68.8951
45.3133
32.5173
19.8169
9.21866
3.39054
1.23507
0.465115
0.191544
0.090429
73.7992
48.2788
34.198
24.839
15.5911
7.55021
2.81053
0.969804
0.353812
0.141538
0.0638912
53.274
32.6612
24.2904
17.74
11.3401
5.69876
2.23658
0.783101
0.286195
0.113744
0.0502302
41.4081
22.524
17.1203
12.4595
8.03847
4.18436
1.75633
0.656853
0.247228
0.0993662
0.0435366
33.7344
16.4955
12.4876
9.02385
5.89493
3.191
1.44354
0.584552
0.230377
0.0939213
0.0409728
28.189
13.0029
9.73352
6.99469
4.65434
2.63922
1.28413
0.558551
0.230224
0.094898
0.0409679
24.3567
10.9243
8.11829
5.88228
4.00968
2.38275
1.23316
0.566861
0.241262
0.100109
0.0427746
21.5986
9.65512
7.19198
5.30792
3.71511
2.30106
1.24929
0.597318
0.259588
0.108
0.0458598
19.6009
8.87685
6.66681
5.02483
3.60525
2.3137
1.3027
0.640717
0.282438
0.117664
0.0498305
18.0655
8.39325
6.35514
4.87613
3.57713
2.36344
1.36927
0.688564
0.307179
0.128301
0.0542567
16.8691
8.03014
6.12941
4.77265
3.56866
2.41466
1.4323
0.734425
0.331757
0.139385
0.059239
16.0139
7.76874
5.95568
4.69048
3.56367
2.46033
1.49026
0.778649
0.356692
0.151182
0.0648094
15.382
7.61549
5.83667
4.63211
3.56626
2.50694
1.54932
0.825418
0.384156
0.164502
0.0709708
14.9564
7.51212
5.7492
4.58835
3.57365
2.55518
1.61169
0.877089
0.415874
0.180316
0.0784046
14.7442
7.47177
5.70012
4.56818
3.59684
2.61699
1.68818
0.941636
0.45653
0.200818
0.0877297
14.6766
7.52068
5.712
4.5897
3.65367
2.71077
1.7957
1.03209
0.51411
0.229817
0.100513
14.8025
7.64917
5.78914
4.66323
3.75907
2.85449
1.95302
1.16461
0.59962
0.273203
0.119358
15.1287
7.87767
5.95687
4.81762
3.9465
3.08412
2.19432
1.3674
0.732526
0.341936
0.148633
15.6672
8.23465
6.26926
5.12007
4.29192
3.47415
2.58351
1.68958
0.946643
0.456099
0.198518
16.3804
8.7318
6.86249
5.75329
4.99061
4.19644
3.24951
2.21932
1.30032
0.652073
0.289215
17.5087
9.95325
8.3567
7.47491
6.76139
5.77669
4.51775
3.13992
1.89921
0.996006
0.460682
17.9848
17.0687
21.4253
19.8976
15.7865
10.941
7.53347
4.95363
2.97456
1.61405
0.794273
252.579
149.784
98.8967
70.0743
51.0183
34.8991
20.1822
10.6568
5.55133
2.89613
1.48784
109.288
66.5308
53.0372
41.238
26.655
13.9688
6.29908
2.62789
1.07485
0.463844
0.22701
89.7062
39.1442
39.2017
40.8154
34.8655
22.4425
11.3053
4.99247
2.05389
0.860804
0.425673
86.9202
33.5192
30.2649
35.2263
38.0611
32.0388
19.3477
9.52427
4.10922
1.67613
0.796621
90.0093
35.7457
28.2624
30.56
35.2702
36.2609
28.0415
17.265
8.48504
3.57126
1.54264
90.8889
36.9362
27.6144
27.8529
31.8867
36.4601
34.7336
24.4987
14.1043
6.66804
2.81144
91.6013
37.3178
27.0848
25.8396
28.4117
33.6845
37.2258
31.4197
20.2631
10.9976
4.98822
92.4116
37.2683
26.6285
24.2273
25.1948
29.5316
35.4452
35.4779
26.3489
15.6589
8.10827
93.2527
37.295
26.4553
23.0724
22.5714
25.3695
31.4608
35.9191
30.7385
20.2131
11.2213
94.8359
37.5069
26.6241
22.3658
20.6513
21.9247
26.9644
33.4816
32.783
23.7855
14.3037
97.3161
38.0374
27.1845
22.0567
19.3824
19.4236
23.0944
30.1526
33.0643
26.0936
16.7374
101.014
39.2355
28.1767
22.1038
18.6788
17.8463
20.2861
26.7812
32.0169
27.1587
18.2127
106.125
41.2685
29.5145
22.5695
18.4766
17.0608
18.6312
23.8283
30.6769
27.5677
19.0252
113.41
44.1303
31.3084
23.4392
18.6678
16.8444
17.8494
21.544
27.9563
28.5181
19.1071
122.374
47.769
33.6713
24.6789
19.0467
16.676
17.1264
19.7395
23.9483
27.2888
19.1995
133.359
52.5801
36.8627
26.4481
19.6554
16.4705
16.171
17.7414
20.3613
22.6167
19.9585
147.724
58.9621
41.2087
28.9979
20.6633
16.3861
15.241
15.943
17.6019
19.3656
19.3854
166.904
67.5304
47.2908
32.8547
22.4764
16.7231
14.5971
14.5575
15.5624
16.8675
17.5514
193.393
79.2333
56.2698
39.2972
26.2199
18.2347
14.5455
13.4122
13.5064
14.1798
14.7445
230.646
95.5612
70.8022
51.6473
35.465
24.3564
18.2508
15.3898
14.3464
14.1599
14.2341
256.49
111.291
88.0669
68.8737
49.9491
35.3622
26.7201
22.7164
21.5001
21.6989
22.2025
258.364
113.544
91.9688
75.1059
57.673
42.5287
32.166
26.4733
23.8995
22.1139
18.3069
277.866
116.246
93.2264
76.4919
60.3858
46.0952
35.3888
28.3517
23.4571
17.3895
10.8009
341.348
133.485
94.3415
73.7245
57.5861
45.0131
35.5291
28.0965
19.9402
12.2916
7.21354
678.471
150.327
95.6271
65.8896
51.4424
40.8521
31.2864
20.9108
12.3562
6.94656
3.75328
1884.16
597.817
177.69
43.1149
10.3904
2.61456
0.689515
0.194968
0.0640217
0.0276177
0.0163794
1064.54
304.134
122.791
41.1003
11.6137
3.19931
0.873067
0.240367
0.0732461
0.0287192
0.0160403
893.865
262.972
98.7104
39.5213
13.7686
4.29831
1.23656
0.334883
0.0932342
0.032493
0.0167339
761.762
228.697
84.1557
36.182
13.4149
4.44101
1.32504
0.371187
0.105721
0.0362751
0.0180687
656.607
191.51
71.2164
31.528
11.8764
4.10368
1.28905
0.382001
0.114021
0.0396974
0.0193492
579.236
159.774
60.5955
27.0456
10.2308
3.62336
1.18384
0.369505
0.116236
0.0417608
0.0204623
518.941
136.19
52.3067
23.1497
8.79002
3.15227
1.05738
0.343931
0.113694
0.0425389
0.0211269
469.464
117.834
45.5624
19.9645
7.59774
2.73836
0.933773
0.313356
0.108066
0.0420713
0.0217286
431.385
103.663
40.1343
17.4455
6.64632
2.39894
0.826153
0.283752
0.101495
0.0412403
0.0221485
404.412
93.1377
35.9737
15.544
5.92337
2.13592
0.739241
0.258194
0.0952405
0.040269
0.0222508
383.731
85.1131
32.7229
14.0938
5.37568
1.93542
0.671196
0.23719
0.0897034
0.0392077
0.022293
366.686
78.5553
30.0196
12.9281
4.9456
1.78044
0.618343
0.220481
0.0851252
0.0382793
0.0222733
355.411
73.4166
27.8595
12.0288
4.62513
1.66794
0.579987
0.208209
0.0817399
0.0376182
0.0223141
350.438
70.1745
26.3075
11.4126
4.42003
1.59922
0.556603
0.200668
0.0797398
0.0373132
0.0224537
348.897
68.5883
25.2603
11.008
4.30488
1.56799
0.547035
0.197839
0.0792725
0.037491
0.0228086
351.623
68.669
24.8842
10.9216
4.36173
1.61588
0.568616
0.205687
0.0822654
0.0387895
0.0235835
358.763
71.8771
25.6162
11.2683
4.64758
1.77853
0.641323
0.233331
0.0923137
0.04261
0.0251566
372.712
77.1169
27.4003
12.0936
5.1906
2.08482
0.786119
0.292388
0.114638
0.0510117
0.028401
395.749
85.2952
30.6457
13.6334
6.11536
2.61152
1.05138
0.410142
0.162538
0.0697503
0.0356123
432.358
97.7953
36.0659
16.3197
7.67668
3.51726
1.53883
0.648201
0.269471
0.115092
0.0540772
491.565
117.022
44.8273
20.9018
10.3628
5.12709
2.46761
1.1497
0.522361
0.235315
0.108541
593.177
146.558
58.7541
28.6487
15.0987
8.1121
4.32239
2.25754
1.15251
0.576805
0.285476
781.23
195.229
82.1105
42.2722
23.8403
13.9382
8.21576
4.81052
2.7772
1.57642
0.879947
1251
201.561
105.075
63.126
40.0428
25.9559
16.922
10.9958
7.08578
4.51367
2.83774
2383.63
1383.23
257.552
75.2567
18.7238
4.35402
1.02682
0.260523
0.0777116
0.0313111
0.0179499
3168.04
2029.57
598.784
153.491
34.7857
8.30326
1.93704
0.453239
0.119339
0.0419029
0.0216058
2915.73
1856.34
699.074
213.973
49.5338
12.895
3.25405
0.773583
0.191729
0.060017
0.0283787
2230.47
1539.98
662.422
221.005
55.9472
16.5437
4.63414
1.1792
0.29342
0.0869331
0.0395308
1605.93
1301.92
590.136
200.035
57.0375
18.6698
5.75881
1.59316
0.413256
0.120767
0.0528506
1162.59
1136.93
521.157
177.283
55.4304
19.5161
6.5144
1.94824
0.533328
0.157944
0.0693802
865.726
1017.35
465.075
158.856
52.8707
19.5848
6.95454
2.21832
0.639652
0.194714
0.0882072
666.818
925.42
417.865
143.97
50.042
19.2445
7.1768
2.4094
0.726579
0.227929
0.105981
535.789
849.522
379.162
132.719
47.4921
18.765
7.28474
2.5463
0.795068
0.256613
0.124978
447.98
782.647
347.767
124.134
45.7548
18.5127
7.43179
2.68798
0.860042
0.280613
0.144528
387.113
719.962
324.722
118.92
45.0807
18.6184
7.70983
2.89539
0.961633
0.320126
0.167815
342.328
665.118
305.91
115.443
45.1235
19.0537
8.13275
3.18361
1.10996
0.380644
0.195119
309.567
616.334
290.833
113.777
45.9988
19.9132
8.76326
3.58783
1.32369
0.473105
0.232575
284.655
569.5
279.833
114.427
48.0103
21.3759
9.7062
4.16677
1.63548
0.615835
0.289798
265.506
525.907
271.123
116.55
51.0082
23.4926
11.0469
4.98678
2.0916
0.837677
0.383927
250.938
484.507
264.469
120.298
55.2077
26.4773
12.9612
6.17281
2.77623
1.19342
0.546303
239.618
444.315
259.609
125.926
60.9459
30.632
15.7149
7.93063
3.8363
1.78267
0.841244
230.987
405.88
255.845
133.364
68.5012
36.3361
19.6823
10.5805
5.52258
2.79013
1.39506
224.513
369.193
252.307
142.486
78.2647
44.1412
25.4316
14.6404
8.26993
4.56045
2.46779
220.308
335.902
248.115
153.071
90.8867
55.0084
33.9375
20.9942
12.8424
7.73134
4.57365
213.239
294.893
240.128
164.026
107.172
70.5892
46.9497
31.1996
20.5719
13.4304
8.65286
235.338
314.606
238.888
174.382
124.435
88.5799
62.9181
44.4654
31.2261
21.8415
15.2792
308.634
225.992
193.672
153.481
121.331
94.361
71.853
53.4366
38.8177
27.5718
19.014
1527.83
770.832
426.764
257.811
163.272
105.588
68.7524
44.7396
28.9561
18.5736
11.7642
37.3544
32.5238
22.4056
8.61975
2.35464
3.05232
3.90514
6.62603
21.1674
12.4933
13.318
12.1789
8.34369
4.18469
2.10477
2.72603
9.73343
13.3832
6.2427
8.10007
8.83876
7.04891
4.00953
2.25746
3.13972
9.22201
10.513
3.27997
4.72839
6.01027
5.63832
3.76905
2.41454
3.61902
8.07299
7.50195
38.5936
38.3196
37.1849
36.1679
36.9668
37.4141
36.9032
34.548
29.9068
11.0627
11.0509
11.1727
11.8417
12.4511
12.3996
12.592
12.9431
13.6254
5.05036
5.23732
5.66226
6.07361
6.25155
6.11913
6.0529
6.65108
8.5833
2.52083
2.51399
2.74628
3.00441
3.08164
2.99924
3.05766
3.60492
5.06807
0.00901005
0.0082932
0.00834618
0.00555669
0.457588
0.00756414
0.130981
0.00808216
0.00753199
0.00689567
0.458209
0.00811708
0.0103364
0.00519931
0.0146019
0.00728294
0.00600942
0.00551773
0.00724598
0.00710872
0.00665045
0.0592245
0.0085188
0.119336
0.00792707
0.00513274
0.00998647
0.12336
1.84001
0.385083
0.00711937
0.00641743
0.00721761
0.00806657
0.00677192
0.00826293
0.108972
0.00790959
0.00815343
0.00759767
0.213446
0.00809739
0.0427228
0.00849327
0.764941
0.368335
0.0185905
0.481109
0.00691284
0.00729612
0.389492
0.00761931
0.0861851
0.0434561
0.00728862
0.0066783
0.0573102
0.00764256
1.85526
0.0156926
0.104551
0.0640761
0.514222
0.0348521
0.24702
0.00714523
0.375924
0.00713498
0.00829533
0.00688142
0.00515888
0.00703689
0.0146927
0.00736942
0.0167819
0.00703701
0.0820494
0.00827624
0.0561297
1.05639
0.244124
0.0261862
0.00793603
0.00837996
0.00695995
0.0146708
3.58194
0.0387959
0.0195499
0.100967
0.00809289
0.0076814
0.203172
0.00712704
1.03266
0.602163
0.00955938
0.00609833
0.0247696
0.00715928
0.00779881
0.408518
0.00676278
0.00616475
0.0148769
0.00811522
0.00460439
0.00845238
0.0142915
0.00668209
0.00797341
0.00814803
0.00713705
0.00652984
0.0220193
0.00769169
0.00754271
0.0073102
0.00793464
0.00672045
0.00699495
0.00734302
0.00715554
0.00501681
0.327256
0.00808994
0.28749
0.0047364
0.00629743
0.00897989
0.00780361
0.0157244
0.452951
0.00702895
0.0083378
0.00811827
0.0665793
0.0158116
0.405732
0.00732346
0.0458475
0.00662715
0.21323
0.00868316
0.00750767
0.0251693
0.0169511
0.00714234
0.00703794
0.00708251
0.00715623
0.00768154
0.027726
0.00723747
0.00611556
0.0215974
0.0196294
0.0426538
0.00546649
0.00746133
0.00549084
0.0333567
0.00703353
0.00771624
0.386035
0.0250751
0.0202838
0.00789292
0.0063908
0.222846
0.00594407
0.00545023
0.00669852
0.00646374
0.00640878
0.00641427
0.00579192
0.0290755
0.789927
0.00695518
0.00715266
0.0651493
0.00849783
0.118435
0.00794196
0.0123687
0.00710096
0.00726143
0.00825001
0.0801259
0.0134312
0.00530647
0.0071864
0.181036
0.00832288
0.00759088
0.00740422
0.0256203
0.00967626
0.00856733
0.0266936
0.00726588
0.0128943
0.00772913
0.0083844
0.0384003
0.00712663
0.00626423
0.0073643
0.00740417
0.117071
0.00759419
0.00827133
0.00670376
0.00791961
0.0404187
0.00797786
0.0246564
0.00713921
0.011253
0.0112095
0.00659702
0.00923259
0.0223358
0.00481989
0.00765957
0.0781152
0.0228139
0.0117781
0.150943
0.0416536
0.00713563
0.00713712
0.00736143
0.0279072
1.00149
0.325482
0.00845025
0.00813754
0.00809743
0.0247461
0.0324024
0.00613414
0.123285
0.00723825
0.0397863
0.00800622
0.00816333
0.519018
0.324343
0.00810011
0.119489
0.00983014
0.00726627
0.00602725
0.00744646
0.00675144
0.00785919
0.0196508
0.00708678
0.00834847
0.0100911
0.00737838
0.00819387
0.00796762
0.0167196
0.00662509
0.007315
0.0176528
0.00694593
0.22392
0.00727653
0.00724381
0.0175122
0.00755452
0.00735326
0.00532919
0.00775971
0.00692502
0.0184868
0.00707531
0.00827313
0.247315
0.301281
0.00603864
0.00757633
1.6138
0.00823479
0.00682711
0.0456284
0.00833813
0.116275
0.00799336
0.00966169
0.00856455
0.00739596
0.00642317
0.00815935
0.00677779
0.00535485
0.00778084
0.00910962
0.00706285
0.392602
0.00678871
0.00665674
0.00827765
0.0637257
0.0621882
0.00742187
0.0867403
0.00815999
0.00645225
0.00697899
0.0853388
0.00655563
0.00710781
0.014507
0.006706
0.00716034
0.00709632
0.175325
0.00746044
0.00538325
0.0239721
0.00706747
0.00779033
0.00595729
0.00709077
0.185015
0.00718664
0.524007
0.0762219
0.00846415
0.0114795
0.734342
0.0163139
0.00823586
0.0078474
0.00593243
0.0311497
0.114871
0.00723472
0.0260798
0.201354
0.0648958
0.0222774
0.0075358
0.0920555
0.32932
0.110608
0.00595509
0.00700789
0.00684908
0.0132375
0.00860266
0.0119563
0.00695668
0.00849776
0.219009
0.00986715
0.00537985
0.00800416
0.00799077
0.00725891
0.0191647
0.00512736
0.0169029
0.136501
0.00742065
0.00773693
0.112477
0.65056
0.00477766
0.0119496
0.00830841
0.00905345
0.00673402
0.00750991
0.00709991
0.223005
0.00753984
0.0248438
0.00768243
0.00526974
0.330426
0.00849547
0.00478549
0.031369
0.023128
0.00771487
0.0531678
0.00465713
0.00787835
0.347572
0.269891
0.00787995
0.00719586
0.00835433
0.0360374
0.019363
0.0076465
0.00850734
0.047111
0.00789406
0.401048
0.0543008
0.029318
0.00726278
0.173629
0.00742942
0.00719838
0.0106574
0.0101247
0.030263
0.00639475
0.0136056
0.00764728
0.00485136
0.0426188
0.279544
0.00615299
0.151166
0.012686
0.00627971
0.00666061
0.00727263
0.028145
0.0122396
0.299907
0.0079012
0.0246157
0.00508609
0.00662498
0.00912288
0.0156078
0.194699
0.410484
0.00506675
0.00859998
0.0059667
3.28685
0.00560647
0.00877982
0.00698142
0.0285459
0.019694
0.041554
0.00740327
0.0352755
0.00775565
0.00833508
0.00793749
0.0321199
0.0201886
0.146738
0.00590158
0.028426
0.0266061
0.0082564
0.00738895
0.305193
0.00505208
0.00599758
0.00733748
0.144425
0.116001
0.0902243
0.0916646
0.00717976
0.00657217
0.0172367
0.00701939
0.0972795
0.00712541
0.00822563
0.00731049
0.0347629
0.0336922
0.00711586
0.00778526
0.00670106
0.0953215
0.0692156
0.00845089
0.0243025
0.2388
0.00941668
0.0177282
0.00740057
0.0271994
0.00758186
0.00710321
0.00764064
0.00778071
0.00644462
0.00715324
0.00535496
0.00853099
0.0072874
0.00566039
0.00592567
0.00806063
0.00806767
0.511685
0.0231617
0.0133084
0.00719905
0.323358
0.00835627
0.274165
0.0162909
0.0249096
0.0209757
0.00795901
0.331592
0.0326412
0.00532546
0.00779082
0.00634769
0.00666911
0.00826728
0.00768479
0.00817901
0.00692785
0.217442
0.00799165
0.00744497
0.0871528
0.0077555
0.19346
0.00685742
0.0502059
0.00560827
0.0193686
0.00856292
0.00786186
0.00840732
0.152953
0.0347635
0.0079538
0.00791808
0.00499528
0.00834024
0.00625826
0.00830345
0.244123
0.00682708
0.0470176
0.00867491
0.0075811
0.397138
0.286326
0.00682234
0.00660763
0.00701213
0.00829862
0.0155421
0.0393639
0.00721265
0.00859689
0.295376
0.540442
0.00792091
0.00727779
0.00827458
0.0195303
0.339666
0.0191688
0.008077
0.0075147
0.299438
0.00714643
0.00870605
0.00680498
0.0359387
0.361562
0.00772677
0.0206136
0.00781577
0.0341361
0.00735059
0.0173768
0.00604804
0.00642306
0.0888012
0.034187
0.00841406
0.00854639
1.03003
0.007629
0.0061585
0.00928286
0.0342124
0.0174329
0.0306578
0.0075878
0.00685661
0.00775995
0.00790866
0.589398
0.0157084
0.0120665
0.00711434
0.00795173
0.0438649
0.00707137
0.00716442
0.0071841
0.00699736
0.00836147
0.0154312
0.0338532
0.0181312
0.00622389
0.010275
0.00724468
0.0579424
0.00699459
0.00780576
0.565971
0.167432
0.00755391
0.0075597
0.0635852
0.00672607
0.00737142
0.0194581
0.00830921
0.00687591
0.0101766
0.00930215
0.00828706
0.00493172
0.00568503
0.0394913
0.113491
0.0278803
0.0319493
0.00626365
0.0207679
0.0275782
0.00851657
0.0083629
0.00684551
0.0247956
0.00607671
0.00700155
0.00723313
0.00510988
0.0453527
0.464376
0.00608614
0.00721224
0.00769938
0.0121301
0.00812309
0.00722635
0.00694425
0.0132132
0.00695741
0.00724128
0.00694752
0.00825005
0.0118366
0.0557908
0.146329
0.00699385
0.00706251
0.00755003
0.0523782
0.00713568
0.12893
0.00710482
0.0203179
0.147563
0.00772072
0.0193941
0.0084953
0.00699258
0.0172435
0.00847386
0.500781
0.0055606
0.0066623
0.00841667
0.0125177
0.00507805
0.0332158
0.285808
0.00750658
0.00641315
0.00840311
0.00784571
0.0069703
0.0214368
0.00812464
0.00764069
0.00760562
0.0101018
0.0292002
0.0081642
0.00761081
0.00750609
0.0214671
0.00549676
0.00649451
0.0113304
0.101015
0.0096418
0.00637426
0.00640822
0.00841852
0.0388714
0.00655013
0.139138
0.00784288
0.00682206
0.00792074
0.00718507
0.0812065
0.0144007
0.0283357
0.00518451
0.00716093
0.00686243
0.00669356
0.0271789
0.00823815
0.358233
0.0452182
0.237179
0.00667133
0.0102602
0.0277616
0.017029
0.00737156
0.00883013
0.0340457
0.012336
0.00803187
0.00540554
0.272236
0.00811474
0.170429
0.00921397
0.00731166
0.0196469
0.00754821
0.00708591
0.00682474
0.00773434
0.00710414
0.00479486
0.00818457
0.00703073
0.00701938
0.0093456
0.0229814
0.143144
0.0135948
0.00722396
0.171171
0.33043
0.00782549
0.00485177
0.00710889
0.0325048
0.00990009
0.0446648
0.00799339
0.0215956
0.00872411
0.00888813
0.00720263
0.00694103
0.00766423
0.0134372
0.0595708
0.00860553
0.00790233
0.0073776
0.251745
0.180176
0.00755177
0.0081885
0.00699005
0.00793288
0.00813601
0.00821826
0.00837523
0.00789167
0.00723529
0.00562254
0.0502117
0.091652
0.00481797
0.00818555
0.00769272
0.00794134
0.00671664
0.215054
0.0082733
0.00633491
0.00755595
0.278016
0.121733
0.0337812
0.00778808
0.0172606
0.00770631
0.0078377
0.283006
0.0071506
0.00815098
0.00719536
0.0346816
0.00602671
0.00593477
0.00813924
0.0105972
0.132709
0.0197187
0.00814666
0.00467543
0.0396551
0.0290735
0.0201386
0.0084281
0.00718265
0.00540397
0.0138943
0.0294876
0.00829241
0.00694884
0.00721284
0.00732868
0.00823956
0.0119738
0.00625458
0.172595
0.198571
0.0464776
0.00809164
0.470816
0.00853051
0.00710092
0.00708786
0.00790855
0.00766424
0.00769224
0.0140139
0.06088
0.0216579
0.00765184
0.0118168
0.00767702
0.00860006
0.00728955
0.00754359
0.00736078
0.00793517
0.00814567
0.00716015
1.27473
0.00754331
0.00713523
0.0142467
0.155791
0.00712862
0.00796463
0.0184441
0.966217
0.00707458
0.0077994
0.0110411
0.0134195
0.00846077
0.00808918
0.00702786
0.00860621
0.0548194
0.00826817
0.0848143
0.00973244
0.115247
0.00819773
0.00820771
0.00627144
0.0288552
0.00776345
0.00736781
0.0072194
0.00831174
0.00609695
0.227501
0.00661633
0.0266423
0.295475
0.0325423
0.00605164
0.0422917
0.00850977
0.00813899
0.0051184
0.00861675
0.00614147
0.00762438
0.290683
0.00716356
0.0106942
0.00730521
0.0046491
0.00537055
0.0195734
0.00778788
0.00694094
0.00804691
0.27769
0.059247
0.320568
0.00716258
0.00998979
0.00707995
0.00776831
0.324712
0.00753499
0.00830078
0.0060985
0.263338
0.0322169
0.0396846
0.00685074
0.00535505
0.0413665
0.475326
0.00801961
0.0072544
0.34123
0.00759475
0.0163758
0.00791763
0.0801823
0.00836231
0.0269525
0.00830349
0.00731378
0.00844862
0.00765559
0.0136187
0.00662138
0.00711612
0.00780314
0.00717149
0.0101296
0.00877957
0.0396347
0.00695811
0.00684691
0.368028
0.023344
0.0451208
0.0083243
0.0362604
0.00747628
0.00827488
0.0265888
0.00646326
0.03825
0.356934
0.0061049
0.0133431
0.0065345
0.00739661
0.0179656
0.0159317
0.00707103
0.042856
0.0081324
0.921563
0.0344608
0.534434
0.00813127
0.0209338
0.0117185
0.314597
0.00769477
0.00539562
0.00855523
0.00460019
0.117509
0.00815394
0.00890368
0.0186413
0.0282103
0.211132
0.00807057
0.00780862
0.00735086
0.0439498
0.00705113
0.184649
0.0113883
0.0491819
0.34196
0.00827435
0.0162344
0.0318176
0.0295757
0.0786496
0.0285942
0.0075615
0.0114244
0.00495513
0.00810445
0.0078476
0.00856602
0.0124338
0.00664223
0.00831312
0.00556817
0.0475251
0.0048745
0.00802436
0.102817
0.0140192
0.00689592
0.0107893
0.00813528
0.00703949
0.00732835
0.181807
0.00721992
0.0218813
0.00617522
0.0238319
0.00796901
0.00695288
0.0079638
0.00752404
0.0184389
0.0539176
0.0479569
0.639483
0.290121
0.482427
0.00681562
0.0071556
0.0094051
0.00838718
0.00585034
0.0607905
0.00687283
0.107532
0.00615108
0.166998
0.00693815
0.00491115
0.00812078
0.29471
0.00862509
0.469094
0.00665878
0.00757554
0.0453334
0.0580016
0.006899
0.0255033
0.0401089
0.0473537
0.120879
0.0199395
0.221487
0.00889589
0.00720853
0.367837
0.0187854
0.00832461
0.00636338
0.00727349
0.00503428
0.00527931
0.00984035
0.00773023
0.0168086
0.636159
0.00751285
0.00715679
0.00735769
0.00818407
0.00992146
0.00542215
0.00692365
0.00557018
0.38156
0.00725687
0.614137
0.0702519
0.00779136
0.172032
0.0533803
0.0177168
0.00668647
0.113926
0.00768282
0.00804578
0.343503
0.0075037
0.00824174
0.00572771
0.00809784
0.00718157
0.182027
0.00755082
0.647772
0.0134603
0.0195873
0.00723203
0.012399
0.027657
0.00623384
0.30067
0.00776752
0.0114678
0.0292456
0.00718606
0.0170171
0.0304066
0.020543
0.007473
0.0330027
0.0650323
0.00644681
0.00732675
0.0275807
0.00695134
0.0194373
0.0238942
0.355401
0.00712872
0.00860396
0.00797706
0.00626205
0.00840977
0.00478982
0.0370861
1.36454
0.00812698
0.0240127
0.0280459
0.0081964
0.0345241
0.00710229
0.00706216
1.99802
0.0371732
0.361633
0.163382
0.00815526
0.00793033
0.0220354
0.222077
0.176281
0.24093
0.00494541
0.0081665
0.00715795
0.00630146
0.19341
0.0477073
0.00875037
0.00737533
0.0279706
0.0239015
0.0359402
0.00682548
0.0906038
0.216063
0.00638495
0.00560828
0.00725536
0.0071858
0.215086
0.0054552
0.00838982
0.0151203
0.00772627
0.00654213
0.369624
0.00895732
0.0106087
0.0329349
0.0268418
0.00751086
0.174207
0.0192654
0.00836034
0.00454033
0.0204247
0.00660755
0.299047
0.00807144
0.00768086
0.00693792
0.110528
0.00614537
0.00745614
0.0329829
0.00833666
0.00814453
0.00859552
0.0052777
0.00771211
0.0336069
0.0189093
0.00815055
0.470226
0.0359974
0.00807444
0.0317068
0.00798055
0.00518082
0.0324936
0.008018
0.00816028
0.00788222
0.00745505
0.00793844
0.00717411
0.00813631
0.0503239
0.0375757
0.00616144
0.0479278
0.00689803
0.0198945
0.0185224
0.00855495
0.00683858
0.0159007
0.00487773
0.00674453
0.00588147
0.00667692
0.00679921
0.00795116
0.037691
0.138076
0.0240719
0.0970249
0.00859361
0.0133247
0.322542
0.0165696
0.0128453
0.00758782
0.0336941
0.0360187
0.16637
0.0047608
0.0179271
0.0323961
0.00661496
0.00796222
0.99002
0.00483869
0.006709
0.0291695
0.0279829
0.00584527
0.0121012
0.0142809
0.00458375
0.568341
1.01123
0.00790159
0.00714621
0.0214112
0.0587359
0.0104539
0.00811328
0.00631109
0.00839072
0.00722951
0.0821301
0.00761462
0.00845435
0.136958
0.00847421
0.00726885
0.00770536
0.00758815
0.00679723
0.00857867
0.00713978
0.0121696
0.00704054
0.0087963
0.00803136
0.0308721
0.00817983
0.0192841
0.00769939
0.0209376
0.00837444
0.0076809
0.0595793
0.246653
0.0070633
0.00781943
0.00774933
0.0196988
0.00826552
0.00814568
0.0082466
0.00738686
0.00621774
0.00726866
0.0311814
0.00512701
0.0622602
0.00847725
0.00872873
0.00789001
0.00670866
0.00729714
0.00840834
0.00802755
0.168007
0.00714779
0.0164079
0.00789802
0.00800594
0.470653
0.00844639
0.00855182
0.138583
0.227618
0.01437
0.00754168
0.0199058
0.00789055
0.0299404
0.0110287
0.0110204
0.00736774
0.00627679
0.0271078
0.00764641
0.032127
0.00718626
0.0153441
0.0268891
0.00724631
0.00719877
0.00718353
0.128882
0.0161976
0.00498577
0.0338375
0.00642573
0.00597366
0.00840063
0.0104289
0.0303325
0.00751079
0.00811967
0.0438407
0.00704497
0.00693012
0.00683717
0.00546828
0.00789708
0.0280801
0.0305053
0.00684908
0.0177965
0.00798105
0.00788546
0.00702424
0.999956
0.00984347
0.00700922
0.142715
0.0321511
0.00820205
0.00706832
0.0289662
0.0105773
0.00663966
0.00714182
0.014467
0.036716
0.00754656
0.00693987
0.0737807
0.00714779
0.0083011
0.00730187
0.00686709
0.00798942
0.0244013
0.0076289
0.0367202
0.00643099
0.013402
0.00812846
0.00502265
0.0284192
0.00689996
0.0189383
0.00764408
0.00712437
0.039451
0.0136518
0.00562226
0.00845505
0.00713526
0.332188
0.0079076
0.00711323
2.41
0.00676061
0.00711434
0.00720889
0.00710812
0.00644822
0.00634401
0.0156952
0.00514434
0.0160105
0.00711433
0.00761132
0.0155633
0.00452504
0.00748378
0.00647501
0.00564134
0.00728148
0.315968
0.00855575
0.026151
0.00747421
0.00687202
0.00584908
0.00727285
0.0124633
0.0079569
0.00721622
0.00670018
0.00756577
0.00836318
0.0352985
0.0228341
0.0110934
0.0109636
0.0428769
0.00686201
0.00757328
0.00744742
0.210959
0.00728821
0.0067167
0.327291
0.00722005
0.243238
0.160795
0.00703662
0.00810142
0.0067289
0.00534862
0.00493853
0.00699078
0.00796757
0.0207741
0.0376222
0.00470282
0.0349388
0.00782527
0.0700073
0.0420556
1.00858
0.0106652
0.0117581
0.00489748
0.00828662
0.00684443
0.0248624
0.00790288
0.0110076
0.0052512
0.0133915
0.00522589
0.0591346
0.0234591
0.0229531
0.249963
0.00781326
0.344326
0.00997813
0.00662024
0.00596788
0.00875499
0.00840225
0.603476
0.00782226
0.234181
0.284394