/*--------------------------------*- C++ -*----------------------------------*\
| =========                 |                                                 |
| \\      /  F ield         | OpenFOAM: The Open Source CFD Toolbox           |
|  \\    /   O peration     | Version:  3.0.1                                 |
|   \\  /    A nd           | Web:      www.OpenFOAM.org                      |
|    \\/     M anipulation  |                                                 |
\*---------------------------------------------------------------------------*/
FoamFile
{
    version     2.0;
    format      ascii;
    class       volVectorField;
    location    "0.207696";
    object      U;
}
// * * * * * * * * * * * * * * * * * * * * * * * * * * * * * * * * * * * * * //

dimensions      [0 1 -1 0 0 0 0];

internalField   nonuniform List<vector> 
21246
(
(4.85472 2.22436 0)
(3.58762 1.49733 0)
(3.21732 1.35035 -8.90542e-19)
(2.77501 1.07038 4.25784e-21)
(2.41771 0.815549 9.37641e-20)
(2.155 0.598565 5.39344e-19)
(1.96192 0.422274 -2.07336e-19)
(1.81859 0.281853 0)
(1.71185 0.169899 3.58058e-20)
(1.63249 0.0810262 -1.47346e-20)
(1.57528 0.0180681 0)
(4.36 0.862591 0)
(2.82242 -0.241272 -5.19337e-18)
(3.30029 0.0864414 4.0708e-18)
(3.1087 0.185548 -5.77295e-19)
(2.76446 0.219426 -2.85845e-21)
(2.45196 0.208599 1.02743e-20)
(2.18713 0.159268 1.55426e-20)
(1.98106 0.0951479 1.57258e-19)
(1.8267 0.0309112 9.90158e-20)
(1.71213 -0.0258907 -3.07228e-19)
(1.62965 -0.0664519 9.42703e-20)
(2.80139 0.431308 -2.1657e-18)
(1.71905 -0.861897 -4.74108e-18)
(2.70523 -0.720291 3.57252e-18)
(2.80867 -0.620573 -2.38065e-18)
(2.70492 -0.45665 2.32251e-18)
(2.51087 -0.294688 6.16058e-19)
(2.28499 -0.199364 6.51274e-19)
(2.07456 -0.156773 -1.57259e-19)
(1.90044 -0.149186 3.0849e-19)
(1.76496 -0.157548 -2.20701e-19)
(1.66633 -0.163337 1.66249e-19)
(1.49266 0.720437 4.16584e-18)
(0.988034 -0.665854 -2.28393e-18)
(1.97399 -0.928773 7.15592e-18)
(2.20565 -1.02653 -5.49546e-18)
(2.33816 -0.929443 3.14807e-18)
(2.32552 -0.733392 -1.44277e-18)
(2.20899 -0.559612 -6.36518e-19)
(2.05826 -0.432323 2.66655e-19)
(1.90748 -0.352498 -9.96736e-19)
(1.77668 -0.305274 -5.5763e-19)
(1.67342 -0.266197 -2.09388e-20)
(0.702337 1.25359 -1.7445e-18)
(0.582985 -0.136382 0)
(1.36547 -0.725767 -3.1199e-18)
(1.62834 -1.04485 3.36705e-18)
(1.88432 -1.103 -1.60159e-18)
(2.00349 -0.989388 -1.0345e-19)
(2.00411 -0.821873 0)
(1.93885 -0.665641 -5.69151e-19)
(1.84155 -0.542499 1.45142e-18)
(1.73868 -0.453239 4.42193e-19)
(1.64805 -0.3784 8.81202e-19)
(0.259376 1.81372 0)
(0.350123 0.439685 -9.77796e-19)
(0.931761 -0.346374 1.35387e-18)
(1.19318 -0.834242 -9.09742e-19)
(1.48364 -1.04782 -1.29017e-18)
(1.66675 -1.05221 8.82614e-19)
(1.74977 -0.951756 1.13912e-18)
(1.76174 -0.815839 0)
(1.72324 -0.685283 1.11565e-19)
(1.65996 -0.57795 -3.36575e-19)
(1.59509 -0.482286 0)
(0.0443468 2.38394 0)
(0.226323 1.0081 -6.75878e-20)
(0.642949 0.0949167 -5.51582e-19)
(0.893585 -0.520622 1.22503e-19)
(1.17758 -0.864317 1.24761e-18)
(1.38229 -0.98263 7.76413e-19)
(1.50941 -0.964187 -6.30061e-19)
(1.57313 -0.878189 7.02911e-19)
(1.58401 -0.77008 -7.79582e-19)
(1.55845 -0.664872 -4.50567e-19)
(1.52368 -0.562819 9.88887e-19)
(-0.00317322 2.93751 0)
(0.17586 1.56163 -4.79667e-19)
(0.468829 0.559958 -5.63161e-20)
(0.702214 -0.162785 4.01752e-19)
(0.96325 -0.61746 7.25849e-19)
(1.16773 -0.837879 -6.92849e-19)
(1.31302 -0.899872 -5.05708e-19)
(1.40488 -0.870711 -6.83572e-19)
(1.44858 -0.798042 -8.07116e-21)
(1.45309 -0.712865 5.50502e-19)
(1.44372 -0.619744 -3.24533e-19)
(0.0485306 3.43442 0)
(0.16358 2.09246 3.08135e-19)
(0.379351 1.02891 0)
(0.589806 0.213907 7.01518e-20)
(0.822113 -0.339248 -3.20978e-19)
(1.01635 -0.652699 7.51556e-19)
(1.16541 -0.790725 4.26171e-19)
(1.26972 -0.818315 0)
(1.33229 -0.784949 -8.4842e-19)
(1.35687 -0.72574 2.56266e-19)
(1.36854 -0.648962 -1.91497e-19)
(0.165862 3.87806 0)
(0.181207 2.60063 6.61115e-19)
(0.344407 1.49838 -3.22421e-19)
(0.525446 0.604962 -2.30188e-19)
(0.728872 -0.0392127 -3.91931e-19)
(0.910421 -0.441726 -8.37503e-19)
(1.05762 -0.654131 -4.177e-19)
(1.1667 -0.738126 1.34837e-19)
(1.23957 -0.745192 1.02341e-19)
(1.27662 -0.714169 -2.53058e-19)
(1.30232 -0.658432 0)
(0.308146 4.28446 -1.11079e-18)
(0.221534 3.08602 7.71944e-19)
(0.345746 1.96786 -5.78102e-19)
(0.488473 1.01208 2.14615e-19)
(0.664267 0.283002 3.18577e-19)
(0.833213 -0.20741 -1.89226e-20)
(0.97731 -0.495653 0)
(1.08879 -0.637952 -2.34461e-19)
(1.1683 -0.68712 -1.79463e-20)
(1.21457 -0.685411 2.44607e-19)
(1.24981 -0.652864 -4.12654e-20)
(0.4372 4.58552 1.6528e-20)
(0.256245 3.51218 -8.85206e-20)
(0.35474 2.4276 -5.25232e-19)
(0.466864 1.43112 3.15715e-19)
(0.617766 0.627029 -2.87933e-19)
(0.774055 0.0517396 3.63552e-20)
(0.914592 -0.31425 1.62933e-19)
(1.02816 -0.518624 0)
(1.11326 -0.613251 0)
(1.1676 -0.64274 -1.86851e-19)
(1.21054 -0.633664 2.75743e-20)
(0.532508 4.72749 7.19557e-19)
(0.287662 3.85902 -1.15845e-19)
(0.368345 2.86685 -5.13633e-19)
(0.453721 1.86406 8.21707e-19)
(0.581899 0.999714 -1.96089e-20)
(0.725393 0.343401 -1.62851e-20)
(0.861838 -0.103046 -5.82853e-19)
(0.977526 -0.375238 -1.89889e-19)
(1.06843 -0.521112 1.55045e-19)
(1.13111 -0.586003 -9.24989e-20)
(1.18057 -0.602593 1.34465e-19)
(0.624021 4.78695 2.41499e-19)
(0.346794 4.14311 4.99392e-19)
(0.403904 3.29058 -1.19317e-18)
(0.458557 2.32018 3.77947e-19)
(0.559505 1.41342 0)
(0.685918 0.680187 -3.6589e-19)
(0.815138 0.149679 2.78836e-19)
(0.931479 -0.197795 2.02104e-19)
(1.0282 -0.403183 -2.65615e-19)
(1.10068 -0.51069 3.98964e-19)
(1.15939 -0.557729 5.02342e-19)
(0.706512 4.80248 9.20386e-19)
(0.43105 4.34883 -6.5357e-19)
(0.466461 3.66212 -6.86854e-19)
(0.488881 2.77529 4.63218e-20)
(0.557147 1.85961 5.09748e-19)
(0.659388 1.06348 0)
(0.775126 0.451068 0)
(0.887948 0.0235604 0)
(0.988805 -0.249286 0)
(1.07159 -0.407958 0)
(1.14253 -0.492024 -4.99732e-19)
(0.786244 4.79594 -1.31112e-18)
(0.524907 4.47945 1.66767e-18)
(0.548112 3.95172 9.19788e-19)
(0.543153 3.19505 -1.03184e-18)
(0.576171 2.32089 9.53778e-19)
(0.647195 1.49156 -1.41397e-18)
(0.741747 0.80861 -4.89451e-19)
(0.845187 0.301339 0)
(0.947063 -0.045059 4.61385e-19)
(1.03968 -0.264028 -3.29914e-20)
(1.12524 -0.3936 1.89113e-19)
(0.868882 4.7886 -4.59155e-19)
(0.622249 4.56801 -6.48764e-19)
(0.642152 4.16799 -9.28888e-19)
(0.619325 3.55923 2.09141e-18)
(0.618066 2.77695 4.92917e-19)
(0.652025 1.95923 7.08265e-19)
(0.717082 1.23014 9.71905e-19)
(0.803721 0.651142 -3.55494e-19)
(0.901734 0.228684 4.34631e-19)
(1.00134 -0.059099 -6.1997e-19)
(1.10095 -0.245174 -5.94056e-19)
(0.947967 4.78169 0)
(0.715008 4.63051 2.28281e-21)
(0.738386 4.32736 -9.59117e-19)
(0.708268 3.8582 1.89875e-20)
(0.679946 3.20212 -5.10865e-19)
(0.676513 2.44718 -7.19763e-19)
(0.706448 1.71316 -4.55389e-19)
(0.769152 1.0845 7.09556e-19)
(0.85711 0.591678 0)
(0.959041 0.22944 5.7937e-20)
(1.06778 -0.0240559 3.94079e-19)
(1.02497 4.77489 1.91871e-18)
(0.802215 4.67493 -2.14457e-18)
(0.829255 4.44486 1.05739e-18)
(0.795811 4.09691 -1.46992e-18)
(0.74974 3.58159 1.65412e-18)
(0.716871 2.93542 1.47499e-18)
(0.714841 2.24866 -1.51298e-18)
(0.75171 1.60752 1.37865e-18)
(0.824126 1.06173 3.95889e-19)
(0.920878 0.626819 -2.91715e-19)
(1.03424 0.29717 -6.6e-19)
(1.10259 4.76632 2.07996e-18)
(0.882701 4.70335 -1.57751e-18)
(0.902944 4.52859 0)
(0.86025 4.28678 0)
(0.806715 3.91768 -1.16191e-18)
(0.763581 3.41412 0)
(0.746717 2.82468 -1.53631e-18)
(0.766873 2.21683 1.11013e-20)
(0.822678 1.64717 -8.44409e-19)
(0.904268 1.15248 -1.8145e-19)
(1.00695 0.74991 5.1972e-20)
(1.17677 4.73729 -2.95804e-18)
(0.94062 4.69309 0)
(0.926062 4.57069 -2.42078e-18)
(0.876471 4.44024 5.35741e-19)
(0.83842 4.23264 1.95114e-18)
(0.8163 3.88603 -8.22298e-19)
(0.816172 3.42645 1.65122e-18)
(0.840668 2.89281 -6.96316e-19)
(0.885127 2.33423 4.63697e-19)
(0.940623 1.80357 -2.0638e-19)
(1.00495 1.34619 6.05248e-19)
(1.09273 4.61672 -2.00862e-18)
(0.869638 4.6126 3.8475e-18)
(0.851415 4.584 -1.40171e-18)
(0.835312 4.56031 1.44432e-18)
(0.851107 4.48406 -1.11795e-19)
(0.890158 4.3113 -1.00327e-18)
(0.94517 3.98192 -3.04556e-19)
(0.997107 3.55555 3.69236e-19)
(1.04353 3.04698 -3.89807e-19)
(1.07385 2.51217 4.87676e-19)
(1.09414 2.01365 -9.16709e-19)
(0.902717 4.59305 3.35585e-18)
(0.917902 4.53413 0)
(0.942623 4.52366 0)
(1.00321 4.51819 2.31119e-18)
(1.106 4.48502 -1.71615e-18)
(1.24394 4.39847 -1.30844e-19)
(1.37237 4.23324 3.4136e-19)
(1.45991 3.96921 -1.07576e-18)
(1.47748 3.58419 5.4264e-19)
(1.41364 3.11767 -2.5844e-19)
(1.32204 2.6073 2.71492e-19)
(0.862813 2.79453 -4.6684e-18)
(0.895322 2.73537 3.1013e-18)
(1.05485 2.5962 0)
(1.19837 2.45946 -7.50194e-20)
(1.31049 2.33565 0)
(1.3933 2.24514 2.08453e-19)
(1.45754 2.22294 6.34354e-19)
(1.53042 2.29728 -5.58515e-19)
(1.63313 2.45136 -6.21414e-20)
(1.70525 2.55154 0)
(1.65566 2.42628 -4.44805e-20)
(2.18259 3.84286 -1.89331e-19)
(1.73819 3.17157 -2.72351e-18)
(1.83455 2.26714 2.14039e-18)
(1.86233 1.62275 7.81383e-20)
(1.8263 1.17404 -9.15448e-20)
(1.76362 0.848656 2.88881e-20)
(1.69329 0.606879 0)
(1.62812 0.423156 6.52883e-20)
(1.57448 0.28075 -1.62981e-20)
(1.53285 0.170309 3.16434e-20)
(1.50109 0.0910018 0)
(-1.51044 2.21793 -4.15634e-19)
(-0.16058 2.41749 4.39526e-18)
(0.473868 2.25747 0)
(0.935722 1.84439 3.59971e-18)
(1.19971 1.43275 -2.32571e-18)
(1.34151 1.07654 1.02011e-18)
(1.40242 0.78613 -7.70247e-19)
(1.42159 0.557538 -6.93987e-20)
(1.42348 0.380181 0)
(1.41923 0.245342 -3.20672e-20)
(1.4123 0.150183 0)
(-1.98824 1.36199 7.34267e-19)
(-0.964073 1.34701 -4.28883e-18)
(-0.591494 1.54125 -2.74201e-18)
(-0.00435058 1.55915 7.45857e-18)
(0.498705 1.41048 -5.63128e-18)
(0.851656 1.15321 2.42266e-18)
(1.06435 0.87975 0)
(1.17921 0.640197 1.22829e-18)
(1.24544 0.447614 -7.54153e-20)
(1.28658 0.298712 0)
(1.31301 0.19295 1.87903e-19)
(-1.88107 0.661388 -2.19554e-18)
(-0.92049 0.555386 2.65149e-18)
(-0.895303 0.851019 0)
(-0.501765 1.00556 0)
(-0.0950829 1.05404 5.76603e-19)
(0.294381 0.985058 -7.14836e-19)
(0.616619 0.836547 0)
(0.854615 0.654171 -1.30113e-18)
(1.01327 0.477481 6.52514e-19)
(1.11794 0.32767 4.41994e-19)
(1.1831 0.218128 -2.78724e-19)
(-1.56492 0.171641 1.37478e-19)
(-0.723342 -0.00980686 -3.0971e-19)
(-0.874665 0.274264 0)
(-0.597265 0.468621 0)
(-0.310711 0.614492 -1.53347e-18)
(0.00975275 0.673381 3.20519e-18)
(0.313976 0.642195 -8.10252e-19)
(0.572139 0.546782 7.96206e-19)
(0.775749 0.424411 -1.08551e-18)
(0.927027 0.304628 0)
(1.03345 0.208877 -2.61906e-19)
(-1.21948 -0.136855 0)
(-0.505528 -0.369811 0)
(-0.734597 -0.139101 -4.40099e-19)
(-0.535553 0.0417992 3.38257e-19)
(-0.351086 0.209136 0)
(-0.109114 0.327566 -9.10749e-19)
(0.143045 0.380821 0)
(0.386027 0.368791 -6.09975e-19)
(0.597288 0.310588 0)
(0.76639 0.234372 4.09073e-19)
(0.889674 0.165888 -3.00256e-19)
(-0.898859 -0.315735 -2.49553e-19)
(-0.300786 -0.584995 1.25118e-19)
(-0.552864 -0.411569 -9.57509e-20)
(-0.393607 -0.259319 0)
(-0.288366 -0.100651 0)
(-0.118076 0.0323413 -2.35341e-19)
(0.0765436 0.125421 0)
(0.28116 0.169398 9.50543e-19)
(0.473683 0.166848 -2.75483e-19)
(0.640272 0.136052 -3.88419e-19)
(0.767502 0.100904 2.43037e-19)
(-0.625967 -0.422041 -2.58567e-19)
(-0.134173 -0.712754 1.96139e-20)
(-0.377593 -0.589146 0)
(-0.232385 -0.462092 1.16904e-19)
(-0.183229 -0.326176 0)
(-0.0610991 -0.196026 2.25149e-19)
(0.0824856 -0.0890366 1.4028e-19)
(0.244078 -0.0159219 -4.69933e-19)
(0.40584 0.0188225 -8.73421e-20)
(0.554726 0.0219238 5.4669e-20)
(0.672484 0.0109911 1.50763e-19)
(-0.391335 -0.496684 0)
(0.0033553 -0.79984 1.70657e-19)
(-0.217956 -0.705687 0)
(-0.0765093 -0.603795 -1.11883e-19)
(-0.0667013 -0.483533 0)
(0.0295792 -0.365636 0)
(0.132357 -0.257266 8.68052e-20)
(0.255454 -0.171325 9.66366e-20)
(0.384496 -0.114487 -3.35828e-20)
(0.509217 -0.0863049 1.49174e-19)
(0.609827 -0.0750779 5.5688e-20)
(-0.189454 -0.546782 0)
(0.134159 -0.87514 0)
(-0.070183 -0.783067 -1.86484e-19)
(0.0648058 -0.706923 2.3754e-19)
(0.0590774 -0.595488 0)
(0.132008 -0.489251 -1.86079e-19)
(0.206445 -0.38518 9.43687e-21)
(0.299125 -0.294692 3.73071e-20)
(0.399507 -0.225631 -3.01837e-20)
(0.500198 -0.181475 -7.60413e-20)
(0.580353 -0.156463 1.04303e-19)
(-0.0366856 -0.567021 0)
(0.263038 -0.926009 -2.68564e-19)
(0.0831621 -0.838971 2.83228e-19)
(0.195449 -0.777162 -2.32119e-19)
(0.184288 -0.676787 -1.56505e-19)
(0.240427 -0.579418 3.0481e-19)
(0.294718 -0.480819 -1.06246e-19)
(0.364882 -0.390119 -7.10781e-20)
(0.441963 -0.314523 1.2249e-19)
(0.521648 -0.26093 7.26565e-20)
(0.588424 -0.229245 -1.44955e-19)
(0.091902 -0.568743 -2.25351e-21)
(0.383149 -0.946568 9.84768e-20)
(0.222878 -0.877486 0)
(0.319744 -0.823494 0)
(0.306252 -0.73319 0)
(0.350986 -0.643656 -5.13539e-20)
(0.391011 -0.550908 -3.0513e-20)
(0.444802 -0.462336 6.08662e-20)
(0.504229 -0.384348 -3.84341e-20)
(0.56775 -0.324342 8.90858e-21)
(0.627297 -0.286115 3.15499e-20)
(0.211467 -0.563824 1.60603e-19)
(0.500256 -0.954356 3.9752e-20)
(0.350675 -0.901002 -9.07249e-22)
(0.43879 -0.852234 0)
(0.423999 -0.769998 5.78802e-20)
(0.461045 -0.687221 -7.07896e-20)
(0.491055 -0.600274 -6.9954e-21)
(0.533206 -0.515128 0)
(0.580103 -0.437508 3.82758e-20)
(0.631567 -0.374472 8.54618e-20)
(0.680769 -0.332109 -5.80428e-20)
(0.331986 -0.543217 -5.46087e-20)
(0.618999 -0.945145 1.98101e-19)
(0.474267 -0.910706 -1.73787e-19)
(0.553579 -0.866703 -1.63308e-19)
(0.538005 -0.791515 -2.40821e-19)
(0.569096 -0.714592 0)
(0.591804 -0.633144 2.35888e-19)
(0.625459 -0.551918 7.6523e-20)
(0.663234 -0.47634 -2.70792e-20)
(0.706582 -0.41335 -2.93471e-20)
(0.753135 -0.369219 1.59801e-20)
(0.444094 -0.505922 4.49892e-19)
(0.725295 -0.920406 -3.31583e-19)
(0.591114 -0.90707 -2.35108e-19)
(0.662157 -0.868137 5.25633e-19)
(0.648876 -0.799626 4.89834e-19)
(0.674514 -0.72771 -4.53888e-19)
(0.692247 -0.651283 -2.34135e-19)
(0.718958 -0.574601 4.91604e-19)
(0.749385 -0.502615 -1.55092e-20)
(0.785949 -0.442146 -7.75555e-20)
(0.829982 -0.400163 0)
(0.551116 -0.465419 -2.34882e-19)
(0.823461 -0.88563 3.29748e-19)
(0.702758 -0.89272 -7.68047e-19)
(0.765419 -0.858912 -3.66968e-19)
(0.756025 -0.796407 -2.58238e-19)
(0.776703 -0.728736 7.128e-19)
(0.790696 -0.656717 3.14534e-21)
(0.81117 -0.584539 1.26864e-20)
(0.834703 -0.516885 -5.97183e-19)
(0.863938 -0.460638 0)
(0.903111 -0.422743 -4.11547e-19)
(0.656387 -0.419454 0)
(0.919483 -0.839481 -3.43117e-19)
(0.812455 -0.867445 2.84326e-19)
(0.865354 -0.839609 1.13427e-18)
(0.859731 -0.782669 -2.84158e-19)
(0.875415 -0.71858 -7.65905e-19)
(0.885767 -0.650347 8.6864e-21)
(0.899875 -0.582395 0)
(0.915945 -0.5194 -1.26033e-20)
(0.936723 -0.468365 -3.03021e-19)
(0.962271 -0.438179 6.36816e-19)
(0.756799 -0.363268 1.01311e-18)
(1.01137 -0.779303 -3.82031e-19)
(0.918998 -0.82922 5.42697e-19)
(0.962274 -0.80908 0)
(0.95975 -0.757817 0)
(0.970186 -0.697059 2.44252e-21)
(0.976129 -0.632218 5.15621e-19)
(0.983074 -0.568175 -3.94186e-19)
(0.990093 -0.509745 4.91303e-19)
(0.999426 -0.464092 -3.13106e-19)
(1.01154 -0.441008 2.32705e-19)
(0.852186 -0.298079 -1.08658e-18)
(1.09891 -0.704242 1.92978e-18)
(1.02195 -0.775895 -1.16193e-18)
(1.0561 -0.765171 -1.93675e-20)
(1.05541 -0.720155 -6.06709e-19)
(1.06009 -0.663118 1.60732e-18)
(1.0604 -0.601781 -5.56873e-19)
(1.05917 -0.541423 -7.38785e-19)
(1.05557 -0.486892 -4.95069e-19)
(1.05068 -0.445361 -2.36011e-20)
(1.04313 -0.428616 -4.7097e-19)
(0.943782 -0.223173 9.24539e-21)
(1.18406 -0.611092 -1.22668e-18)
(1.12226 -0.703128 -8.36001e-21)
(1.1469 -0.703761 4.19995e-19)
(1.1458 -0.666584 0)
(1.14387 -0.61492 -3.10294e-20)
(1.13743 -0.558143 0)
(1.12736 -0.501517 7.65754e-19)
(1.112 -0.449777 -4.62064e-19)
(1.09071 -0.410302 1.6839e-18)
(1.05949 -0.397607 -4.33403e-19)
(1.02869 -0.132738 -6.81574e-19)
(1.26593 -0.492437 2.27243e-18)
(1.21801 -0.602398 -6.74348e-21)
(1.23205 -0.61725 0)
(1.228 -0.591703 1.8003e-18)
(1.21923 -0.54928 -2.58833e-18)
(1.20612 -0.499478 0)
(1.18772 -0.446931 1.23004e-20)
(1.16053 -0.396435 5.68538e-19)
(1.12219 -0.35591 -9.64074e-19)
(1.06495 -0.344956 8.60445e-19)
(1.11223 -0.0245707 -7.63339e-19)
(1.34551 -0.340881 -3.32054e-20)
(1.30856 -0.464324 0)
(1.31073 -0.49797 4.68409e-19)
(1.30248 -0.49091 5.79389e-19)
(1.2891 -0.463854 -2.13191e-20)
(1.27194 -0.424321 0)
(1.24748 -0.376137 -6.18308e-20)
(1.20976 -0.32499 -5.12458e-20)
(1.15473 -0.279818 9.83776e-19)
(1.07328 -0.267545 -8.73199e-19)
(1.11262 0.147387 3.4837e-18)
(1.37192 -0.115876 -1.96052e-18)
(1.34328 -0.25525 0)
(1.3358 -0.317391 7.31791e-19)
(1.33022 -0.338659 -7.52347e-19)
(1.32266 -0.33402 0)
(1.31064 -0.307858 0)
(1.28774 -0.264225 7.51573e-19)
(1.2469 -0.210649 -1.2993e-18)
(1.18205 -0.156009 -2.60412e-20)
(1.09309 -0.120211 -4.37195e-19)
(1.35567 0.178209 -2.72795e-18)
(1.59537 0.113901 3.21283e-18)
(1.54352 0.000477744 -1.00846e-18)
(1.51011 -0.0672689 -1.45154e-18)
(1.49638 -0.102601 8.22565e-19)
(1.48903 -0.109412 -6.63319e-20)
(1.47411 -0.0876957 0)
(1.43922 -0.0405248 3.8182e-19)
(1.38445 0.0294923 5.73218e-20)
(1.32961 0.147785 0)
(1.30464 0.367264 -4.46529e-19)
(5.29398 -0.980429 1.09629e-19)
(5.02392 -0.982016 0)
(4.86799 -0.865124 1.90781e-19)
(4.74183 -0.728671 -1.48656e-19)
(4.61081 -0.603608 -9.26534e-20)
(4.47212 -0.494085 0)
(4.33267 -0.400699 5.61078e-20)
(4.19443 -0.32415 -6.40827e-20)
(4.05688 -0.263362 -2.61045e-20)
(3.9223 -0.218715 1.67319e-20)
(3.79926 -0.198051 3.15537e-20)
(4.62224 -1.73377 -3.94874e-20)
(4.62494 -1.4958 -4.50678e-20)
(4.61352 -1.2916 -2.01937e-19)
(4.56531 -1.08523 -5.43972e-20)
(4.48673 -0.903476 1.73001e-19)
(4.38561 -0.749722 1.17232e-19)
(4.27128 -0.622236 -1.65316e-19)
(4.1507 -0.517887 -3.73989e-20)
(4.02761 -0.433532 7.04588e-20)
(3.90528 -0.368717 6.61493e-20)
(3.7903 -0.331484 -3.56835e-20)
(3.91559 -2.00609 -2.0522e-19)
(4.17738 -1.74132 1.47406e-19)
(4.29582 -1.57399 1.20475e-20)
(4.33886 -1.37603 7.38234e-20)
(4.32712 -1.17969 -1.0885e-19)
(4.27464 -0.999965 3.69009e-20)
(4.19458 -0.843047 3.17192e-20)
(4.09802 -0.709382 -2.61707e-20)
(3.99127 -0.59995 -4.73562e-20)
(3.87898 -0.516762 4.98903e-20)
(3.77032 -0.457964 4.2114e-20)
(3.59425 -2.01268 1.84534e-19)
(3.78383 -1.81959 0)
(3.92532 -1.72881 -7.69261e-20)
(4.04886 -1.57765 -7.4092e-22)
(4.11404 -1.3999 5.53546e-20)
(4.12081 -1.21828 2.98741e-20)
(4.08212 -1.05033 -8.62616e-20)
(4.01323 -0.903236 -8.8752e-20)
(3.92689 -0.775549 9.17765e-20)
(3.8319 -0.666372 -6.97644e-20)
(3.73507 -0.584775 -1.18431e-19)
(3.4074 -1.95915 -8.17241e-20)
(3.56555 -1.80081 1.83891e-19)
(3.66661 -1.76934 -2.21579e-19)
(3.77748 -1.67477 4.04096e-20)
(3.86409 -1.54257 7.96629e-20)
(3.91194 -1.38539 0)
(3.91745 -1.22005 -7.85759e-20)
(3.88646 -1.0608 8.69604e-20)
(3.82865 -0.916468 -4.7667e-20)
(3.75427 -0.791855 6.82937e-20)
(3.67298 -0.695009 0)
(3.28296 -1.89303 2.70875e-20)
(3.41349 -1.75828 -2.59463e-20)
(3.48215 -1.75302 1.55121e-20)
(3.5777 -1.68653 -7.27548e-20)
(3.66101 -1.59023 1.19205e-19)
(3.71914 -1.46536 -5.12732e-20)
(3.74513 -1.32213 1.62535e-21)
(3.73981 -1.17326 5.35901e-20)
(3.70874 -1.02941 7.95315e-20)
(3.65922 -0.898771 -1.91737e-20)
(3.59919 -0.792322 -6.29608e-21)
(3.19909 -1.82878 1.00311e-19)
(3.28704 -1.71697 -5.27527e-20)
(3.33223 -1.7279 -1.55607e-20)
(3.41252 -1.67249 4.74909e-21)
(3.48453 -1.59882 -8.46987e-20)
(3.54147 -1.49926 1.52615e-19)
(3.57661 -1.37862 -6.66128e-20)
(3.58798 -1.24624 -8.07221e-20)
(3.57737 -1.11153 -4.30433e-22)
(3.54831 -0.983006 7.88043e-22)
(3.50474 -0.873256 2.54012e-20)
(3.11296 -1.80963 1.9211e-19)
(3.17534 -1.69536 1.26849e-20)
(3.21401 -1.69664 0)
(3.27724 -1.6511 1.1181e-21)
(3.33625 -1.59026 3.00592e-21)
(3.38663 -1.50731 5.57919e-20)
(3.42305 -1.40456 -5.31874e-20)
(3.44305 -1.28833 -2.13696e-20)
(3.44669 -1.16593 1.84498e-20)
(3.43563 -1.04455 -6.33484e-20)
(3.41107 -0.939949 4.65732e-20)
(3.02599 -1.79832 -5.74425e-19)
(3.08216 -1.67741 6.117e-20)
(3.11046 -1.67221 1.54939e-19)
(3.16065 -1.63092 5.41469e-20)
(3.20902 -1.57593 -3.09414e-20)
(3.2519 -1.50275 0)
(3.2858 -1.41232 1.03477e-20)
(3.30901 -1.30879 1.2809e-19)
(3.32119 -1.19729 -1.72136e-19)
(3.32253 -1.08366 2.15574e-21)
(3.31058 -0.982064 -8.42574e-20)
(2.94816 -1.78552 0)
(2.99858 -1.65889 -2.4102e-19)
(3.01556 -1.65094 4.36137e-20)
(3.05603 -1.61152 1.89281e-19)
(3.09577 -1.55966 -5.55156e-20)
(3.13178 -1.49213 1.28556e-20)
(3.16201 -1.40952 3.30075e-21)
(3.18557 -1.31485 -1.07625e-20)
(3.20206 -1.21165 2.78909e-20)
(3.21048 -1.10441 9.25092e-20)
(3.20541 -1.00529 4.00352e-20)
(2.8807 -1.77762 0)
(2.92063 -1.64431 -2.66896e-19)
(2.92684 -1.63279 3.73816e-19)
(2.95896 -1.59307 -1.54998e-19)
(2.9913 -1.54234 -4.33162e-20)
(3.02137 -1.47773 2.74191e-20)
(3.04797 -1.39978 8.67328e-21)
(3.07083 -1.31103 -3.9283e-20)
(3.08983 -1.21418 0)
(3.10385 -1.11323 0)
(3.10738 -1.02231 0)
(2.81219 -1.77415 0)
(2.84051 -1.63515 0)
(2.83929 -1.61779 -5.12493e-20)
(2.86516 -1.57547 -1.09244e-19)
(2.89166 -1.52387 2.72076e-20)
(2.91697 -1.46001 5.3949e-20)
(2.94059 -1.38432 -2.26292e-20)
(2.96278 -1.29914 -8.33705e-21)
(2.98375 -1.20671 -2.15887e-21)
(3.00247 -1.11023 3.89827e-20)
(3.01245 -1.0222 0)
(2.73766 -1.76706 -4.33561e-19)
(2.75754 -1.62416 3.35376e-19)
(2.75095 -1.60187 5.03962e-20)
(2.77209 -1.55671 -6.89629e-20)
(2.79411 -1.50338 0)
(2.81588 -1.4388 3.74547e-20)
(2.83748 -1.36352 -1.33831e-20)
(2.85952 -1.27983 2.02484e-21)
(2.88248 -1.18965 1.31177e-20)
(2.90516 -1.09498 -3.84985e-20)
(2.91879 -1.00566 -9.98302e-21)
(2.66522 -1.75901 -5.88719e-20)
(2.67619 -1.61001 7.68511e-20)
(2.66266 -1.58358 5.39248e-20)
(2.679 -1.53555 6.82986e-20)
(2.69713 -1.47991 7.76144e-20)
(2.71625 -1.41353 -6.01547e-20)
(2.73676 -1.3372 3.91406e-20)
(2.75946 -1.25342 -2.98343e-20)
(2.78484 -1.16419 6.99138e-21)
(2.81163 -1.07118 0)
(2.83011 -0.985402 -3.06493e-20)
(2.59054 -1.75235 -4.34836e-19)
(2.59057 -1.59655 2.98531e-19)
(2.57162 -1.56352 -5.37899e-20)
(2.5842 -1.51104 2.10755e-19)
(2.59935 -1.45189 -1.05671e-19)
(2.61683 -1.38255 -3.97926e-20)
(2.63737 -1.30398 7.81037e-20)
(2.66193 -1.21897 -3.90112e-20)
(2.69086 -1.12981 2.63888e-20)
(2.7227 -1.03777 -5.38983e-21)
(2.74617 -0.952137 -4.46776e-21)
(2.50955 -1.73847 5.85265e-20)
(2.5001 -1.57798 4.21706e-22)
(2.47723 -1.53836 -5.66979e-20)
(2.48684 -1.48109 -7.54146e-20)
(2.49983 -1.41767 0)
(2.51674 -1.34437 -9.74373e-20)
(2.53869 -1.26252 7.15967e-20)
(2.56668 -1.17544 3.88076e-20)
(2.60068 -1.086 -8.73067e-20)
(2.63888 -0.995052 2.89272e-20)
(2.6683 -0.910708 0)
(2.428 -1.7188 -4.7816e-19)
(2.40909 -1.55258 -3.9904e-20)
(2.38078 -1.50668 2.81826e-19)
(2.38693 -1.4443 -2.16753e-19)
(2.39808 -1.37574 0)
(2.41546 -1.29734 1.78859e-19)
(2.44049 -1.21121 -2.01871e-19)
(2.47396 -1.12159 -2.10546e-20)
(2.51499 -1.03219 -4.7788e-20)
(2.56098 -0.943643 2.45533e-20)
(2.59677 -0.862877 0)
(2.34506 -1.69607 2.3552e-20)
(2.31468 -1.52372 3.60863e-19)
(2.28072 -1.46891 0)
(2.28359 -1.39934 4.37514e-20)
(2.29366 -1.32381 0)
(2.31307 -1.23879 0)
(2.34344 -1.14754 -3.57326e-20)
(2.38509 -1.05555 3.70261e-20)
(2.43552 -0.967461 9.50622e-20)
(2.49102 -0.883338 5.63675e-20)
(2.534 -0.807359 -5.94447e-20)
(2.25884 -1.66375 0)
(2.21518 -1.4877 2.37917e-20)
(2.17643 -1.42172 -2.73507e-19)
(2.17641 -1.34332 6.90588e-21)
(2.18682 -1.25895 1.5656e-19)
(2.21056 -1.16591 0)
(2.24934 -1.0691 2.17801e-19)
(2.30257 -0.975502 -1.18969e-19)
(2.3648 -0.891296 0)
(2.43119 -0.814786 9.66435e-22)
(2.48265 -0.746179 -4.97161e-20)
(2.17058 -1.61701 5.85843e-19)
(2.11155 -1.44017 -2.89131e-20)
(2.06855 -1.36062 -2.72341e-21)
(2.06662 -1.27118 2.44773e-19)
(2.07993 -1.17565 -1.83361e-19)
(2.11193 -1.07335 5.17087e-21)
(2.16354 -0.971783 8.12802e-20)
(2.23147 -0.880168 -7.8828e-20)
(2.30704 -0.804112 9.46733e-20)
(2.38344 -0.739875 -6.9799e-20)
(2.4426 -0.682242 0)
(2.08177 -1.55616 -1.37677e-18)
(2.00528 -1.37539 5.2442e-19)
(1.95853 -1.28035 3.09165e-20)
(1.95744 -1.17682 3.28665e-19)
(1.97792 -1.06823 -2.51783e-19)
(2.02366 -0.957108 -5.43349e-21)
(2.09309 -0.854261 0)
(2.17848 -0.770179 0)
(2.26742 -0.708108 6.26364e-20)
(2.35123 -0.661467 1.22141e-22)
(2.41597 -0.619559 -1.92767e-20)
(1.99863 -1.42989 -9.53271e-19)
(1.89213 -1.28552 -8.96949e-20)
(1.85293 -1.16895 4.98389e-19)
(1.85687 -1.05019 5.18098e-19)
(1.89164 -0.929935 -3.37451e-19)
(1.95805 -0.81421 4.28437e-19)
(2.04937 -0.717198 -8.64979e-20)
(2.15214 -0.648768 0)
(2.25116 -0.60803 0)
(2.33758 -0.583737 -4.45541e-20)
(2.40374 -0.561508 -2.09925e-21)
(1.86024 -1.54268 -5.79528e-20)
(1.80356 -1.23638 6.008e-20)
(1.74383 -1.07498 -3.29078e-19)
(1.77301 -0.914942 2.46543e-19)
(1.83915 -0.772045 2.66086e-19)
(1.93267 -0.655112 -1.46696e-19)
(2.04576 -0.572963 -1.24689e-19)
(2.16151 -0.528518 -1.34976e-21)
(2.26354 -0.513751 -2.4337e-19)
(2.34462 -0.513364 -1.38283e-19)
(2.40417 -0.511174 0)
(2.03723 -0.668912 3.11629e-19)
(1.67722 -0.82178 -3.99988e-19)
(1.768 -0.67837 5.23001e-19)
(1.8184 -0.597797 -4.6636e-19)
(1.89944 -0.510046 0)
(2.00754 -0.440547 -2.58517e-19)
(2.12364 -0.405786 -4.97962e-19)
(2.22998 -0.404794 3.25395e-20)
(2.31564 -0.425366 3.95664e-19)
(2.37766 -0.452752 -1.09542e-19)
(2.42114 -0.472869 0)
(5.00259 -0.662051 1.53072e-20)
(4.65814 -0.642486 0)
(4.76391 -0.575101 5.48706e-21)
(4.82023 -0.480144 -4.25289e-21)
(4.75987 -0.373198 2.70335e-20)
(4.6226 -0.270026 0)
(4.45235 -0.191618 2.96065e-20)
(4.28045 -0.135349 0)
(4.11226 -0.0894578 6.68284e-21)
(3.95317 -0.0607468 -2.70728e-20)
(3.80925 -0.0567001 0)
(4.59083 -1.65585 4.72213e-19)
(4.43096 -1.15536 -3.49579e-19)
(4.57757 -0.779662 -5.49755e-20)
(4.71978 -0.515508 1.14985e-19)
(4.76581 -0.308002 -1.46203e-19)
(4.7168 -0.136052 8.35842e-20)
(4.59211 -0.00878797 0)
(4.40761 0.0701089 8.80149e-21)
(4.17975 0.109283 -5.15461e-20)
(3.98719 0.121958 5.12461e-21)
(3.81927 0.114839 -2.82169e-20)
(5.06581 -2.96268 5.95067e-19)
(4.80177 -2.32647 -9.14035e-19)
(4.67496 -1.46743 5.73177e-20)
(4.71148 -0.886055 0)
(4.76033 -0.460758 3.64804e-19)
(4.75324 -0.132489 -9.03031e-20)
(4.67069 0.111403 -1.61213e-19)
(4.51277 0.268075 4.64773e-20)
(4.28506 0.338644 -3.67655e-20)
(4.02176 0.339874 0)
(3.81702 0.306987 4.13409e-20)
(5.32671 -2.98592 1.79677e-18)
(5.14962 -2.83793 -1.30319e-18)
(4.98407 -2.34018 -4.16364e-21)
(4.83627 -1.50549 0)
(4.80825 -0.824454 -4.54315e-19)
(4.78763 -0.286716 6.771e-19)
(4.71363 0.124764 -5.17876e-21)
(4.56899 0.412132 -3.58212e-19)
(4.35127 0.569518 6.0391e-20)
(4.0742 0.601552 8.67618e-20)
(3.80019 0.540641 0)
(5.5672 -3.21163 8.53308e-20)
(5.47478 -3.0253 -1.62005e-18)
(5.32286 -2.72284 2.3758e-18)
(5.1441 -2.18312 -8.75508e-19)
(4.95992 -1.35104 0)
(4.85695 -0.599537 6.47033e-21)
(4.74817 0.0124682 0)
(4.58881 0.469033 0)
(4.36546 0.757116 0)
(4.08114 0.869781 -1.61954e-19)
(3.76966 0.825925 9.42027e-20)
(5.78814 -3.44068 -2.64876e-18)
(5.77853 -3.21319 2.09824e-18)
(5.6371 -2.95297 1.52392e-18)
(5.45813 -2.53051 -3.5658e-19)
(5.23316 -1.89235 -8.90658e-19)
(4.9983 -1.02957 -7.11491e-19)
(4.80151 -0.229083 8.48389e-19)
(4.58752 0.416825 -4.90273e-19)
(4.33078 0.867574 -3.48195e-19)
(4.02678 1.101 1.50206e-19)
(3.70261 1.12354 -9.12649e-20)
(5.97836 -3.6426 2.42895e-19)
(6.03756 -3.39187 2.09801e-18)
(5.90458 -3.17192 -1.85902e-18)
(5.73025 -2.78927 1.78374e-18)
(5.49684 -2.25636 -1.13939e-18)
(5.19884 -1.48355 0)
(4.88957 -0.572923 5.38278e-19)
(4.58223 0.246867 4.74371e-19)
(4.25762 0.874322 1.10021e-18)
(3.90869 1.25617 -5.65309e-19)
(3.56372 1.38971 -1.97466e-19)
(6.13762 -3.81587 5.49521e-20)
(6.24304 -3.55685 -2.04867e-18)
(6.11092 -3.38186 -6.59314e-20)
(5.94342 -3.03378 1.66753e-18)
(5.70509 -2.5561 1.43937e-18)
(5.39077 -1.89903 -3.12813e-20)
(4.99425 -0.972738 3.38401e-19)
(4.57772 -0.0309063 -1.42779e-18)
(4.15512 0.759749 2.26112e-18)
(3.74039 1.29963 -1.09e-18)
(3.3555 1.55116 6.122e-19)
(6.26895 -3.9607 -2.20658e-18)
(6.39916 -3.70339 2.93523e-19)
(6.25812 -3.57569 0)
(6.09557 -3.26623 0)
(5.85441 -2.84414 0)
(5.52281 -2.25791 -1.59766e-18)
(5.08509 -1.44224 -8.95417e-20)
(4.56496 -0.413617 -2.033e-18)
(4.0224 0.509224 -1.40791e-18)
(3.5109 1.19325 6.76615e-19)
(3.0921 1.58276 0)
(6.36619 -4.07127 -1.77441e-18)
(6.50683 -3.82848 7.18988e-19)
(6.34799 -3.74952 -2.54004e-18)
(6.18673 -3.48235 9.10083e-19)
(5.9422 -3.12507 0)
(5.60287 -2.61662 -1.61731e-18)
(5.132 -1.90089 3.97113e-18)
(4.53367 -0.877924 2.26126e-18)
(3.87059 0.130973 3.31518e-18)
(3.24392 0.931388 2.18847e-18)
(2.76721 1.45845 -1.61811e-18)
(6.41304 -4.15133 -1.76335e-18)
(6.56101 -3.93734 0)
(6.38035 -3.89722 0)
(6.21538 -3.67821 3.33097e-18)
(5.96366 -3.39338 -8.24201e-19)
(5.61584 -2.97728 -1.92297e-18)
(5.13128 -2.37153 5.77617e-18)
(4.46838 -1.48214 -7.29844e-18)
(3.70725 -0.386774 -3.83603e-18)
(2.9615 0.4976 -2.57856e-18)
(2.39882 1.12636 1.90127e-18)
(6.40649 -4.22616 -1.82964e-18)
(6.54869 -4.0349 4.53716e-18)
(6.36061 -4.01484 -5.09611e-18)
(6.18136 -3.85801 2.09353e-18)
(5.91943 -3.64676 -1.93579e-18)
(5.56278 -3.32926 0)
(5.07369 -2.84724 -1.68393e-18)
(4.37905 -2.1193 7.7544e-18)
(3.55096 -1.02671 4.15598e-18)
(2.69835 -0.0985917 -1.54601e-18)
(2.08338 0.608814 -1.70748e-19)
(6.36622 -4.2675 2.05821e-18)
(6.47131 -4.10542 -3.47765e-19)
(6.28196 -4.11231 0)
(6.08311 -4.0188 -2.30257e-18)
(5.80812 -3.88019 4.86487e-18)
(5.44244 -3.66405 -3.48808e-18)
(4.95251 -3.31921 -1.62425e-18)
(4.27087 -2.78713 2.76064e-18)
(3.39578 -1.77813 -2.13726e-18)
(2.46671 -0.849661 -2.99885e-18)
(1.82509 -0.0806781 6.1824e-18)
(6.27244 -4.26704 -1.65197e-18)
(6.3259 -4.15324 -1.18446e-18)
(6.13448 -4.19083 2.16961e-18)
(5.91474 -4.16075 -2.16112e-18)
(5.6234 -4.0948 8.35835e-19)
(5.24493 -3.96959 -1.76403e-18)
(4.76088 -3.75576 6.0074e-18)
(4.13915 -3.40323 -6.28822e-18)
(3.3188 -2.74878 -2.05131e-18)
(2.29827 -1.67798 0)
(1.62051 -0.888385 1.71216e-18)
(6.11089 -4.23573 -4.39369e-19)
(6.11106 -4.17963 1.0912e-18)
(5.9142 -4.25362 0)
(5.6801 -4.29071 -1.94181e-18)
(5.38137 -4.30422 1.0149e-18)
(5.00537 -4.27169 -2.14302e-19)
(4.53823 -4.16328 1.25063e-18)
(3.95727 -3.93298 2.31209e-18)
(3.23286 -3.50501 3.0297e-18)
(2.38358 -2.67832 -1.44016e-18)
(1.55936 -1.74671 -1.90823e-18)
(5.87558 -4.16943 1.01711e-20)
(5.81921 -4.17291 -8.9795e-19)
(5.6132 -4.29111 0)
(5.37164 -4.40076 1.7226e-19)
(5.07907 -4.50057 -3.87047e-19)
(4.72869 -4.56588 1.7022e-18)
(4.31482 -4.56395 -1.08883e-18)