/*--------------------------------*- C++ -*----------------------------------*\
| =========                 |                                                 |
| \\      /  F ield         | OpenFOAM: The Open Source CFD Toolbox           |
|  \\    /   O peration     | Version:  3.0.1                                 |
|   \\  /    A nd           | Web:      www.OpenFOAM.org                      |
|    \\/     M anipulation  |                                                 |
\*---------------------------------------------------------------------------*/
FoamFile
{
    version     2.0;
    format      ascii;
    class       volVectorField;
    location    "0.249205";
    object      U;
}
// * * * * * * * * * * * * * * * * * * * * * * * * * * * * * * * * * * * * * //

dimensions      [0 1 -1 0 0 0 0];

internalField   nonuniform List<vector> 
21246
(
(-1.71035 -2.12892 -1.68551e-18)
(-0.981539 -1.83218 -2.6678e-18)
(0.102947 -1.4918 2.20137e-18)
(0.845494 -1.15473 2.01712e-18)
(1.3286 -0.870279 -1.59466e-18)
(1.65111 -0.631921 1.62941e-18)
(1.87454 -0.435995 -2.36118e-19)
(2.03665 -0.278196 -1.45669e-18)
(2.1582 -0.153282 0)
(2.24869 -0.0565921 -5.25776e-19)
(2.30823 0.0149679 -6.72681e-19)
(-1.63936 1.11396 -8.51754e-18)
(-0.842615 0.554676 -6.55722e-19)
(-0.335259 0.217935 -1.2275e-19)
(0.247371 -0.0741281 0)
(0.781098 -0.213047 1.75833e-18)
(1.22433 -0.235219 -1.94689e-18)
(1.56607 -0.186865 0)
(1.82063 -0.112096 4.68772e-19)
(2.00739 -0.0358045 0)
(2.14246 0.0303051 3.05869e-19)
(2.23319 0.0809791 -2.25675e-19)
(-0.749322 2.14124 0)
(0.18818 1.42918 -8.48552e-18)
(0.121082 1.28092 5.73423e-18)
(0.401464 0.85912 2.82764e-19)
(0.717696 0.54146 0)
(1.07686 0.313454 6.10203e-19)
(1.40286 0.194208 1.63707e-18)
(1.67928 0.148142 -1.54855e-18)
(1.89901 0.143949 0)
(2.06626 0.158032 0)
(2.18377 0.175665 2.46953e-19)
(0.157322 2.36126 -1.6565e-18)
(1.17264 1.73666 4.62495e-18)
(0.817105 1.85805 -3.45448e-18)
(0.91923 1.4459 -3.90322e-18)
(1.00407 1.12857 2.62201e-18)
(1.20386 0.818553 0)
(1.4267 0.594605 -1.84269e-19)
(1.65394 0.446486 0)
(1.85782 0.359664 -1.39681e-19)
(2.02604 0.312861 0)
(2.15163 0.288423 -3.26234e-19)
(0.860826 2.21279 6.5951e-20)
(1.854 1.77137 1.88038e-20)
(1.45803 2.05206 -1.71218e-18)
(1.51714 1.68798 3.44721e-18)
(1.43168 1.4721 -3.29028e-18)
(1.49711 1.17205 1.41148e-18)
(1.6014 0.920133 -4.86115e-19)
(1.74555 0.718902 -3.55167e-19)
(1.89994 0.574398 1.12188e-18)
(2.04493 0.476854 -1.0508e-18)
(2.16345 0.415091 -6.95849e-19)
(1.35408 1.9119 -2.66693e-19)
(2.30405 1.66996 1.34705e-18)
(1.932 2.01616 -3.26346e-19)
(2.01755 1.71303 2.5346e-19)
(1.85454 1.60384 -1.52033e-19)
(1.83934 1.3558 0)
(1.8513 1.12938 4.71242e-19)
(1.91451 0.922104 3.45951e-19)
(2.00719 0.75373 0)
(2.1112 0.625875 -2.33784e-19)
(2.20384 0.53674 3.69807e-19)
(1.64336 1.59055 -1.73006e-19)
(2.60096 1.5091 1.74635e-19)
(2.27408 1.86261 4.00393e-19)
(2.37239 1.63536 -3.11953e-19)
(2.20263 1.595 1.46509e-19)
(2.15303 1.40582 0)
(2.10957 1.2275 -1.47038e-18)
(2.11362 1.04293 8.15595e-19)
(2.15175 0.878291 -6.72121e-19)
(2.21277 0.741422 1.4861e-18)
(2.27615 0.638285 -3.64976e-19)
(1.78951 1.33973 0)
(2.76175 1.3563 -1.65937e-19)
(2.51503 1.68188 -2.47794e-19)
(2.61533 1.51074 -1.02276e-19)
(2.46204 1.51388 1.05478e-19)
(2.40578 1.37327 -8.17566e-20)
(2.33702 1.24332 1.7075e-19)
(2.3061 1.09188 0)
(2.30479 0.946962 -4.34253e-19)
(2.32945 0.816734 -7.8745e-19)
(2.36187 0.71269 5.63918e-19)
(1.88081 1.14951 -2.16623e-18)
(2.8554 1.21204 3.06225e-19)
(2.67751 1.5144 1.3082e-18)
(2.78044 1.37547 9.88955e-20)
(2.64731 1.40488 0)
(2.59606 1.29862 0)
(2.51973 1.20842 3.15895e-19)
(2.47218 1.08919 4.16513e-19)
(2.44671 0.969502 -2.00068e-19)
(2.44547 0.854286 3.44316e-19)
(2.45463 0.757849 -3.48376e-20)
(1.92492 0.965816 0)
(2.92079 1.05614 0)
(2.78834 1.35667 -8.0829e-19)
(2.89406 1.23931 6.35074e-19)
(2.77731 1.28909 0)
(2.73455 1.20632 -6.18591e-20)
(2.6589 1.14718 -1.4401e-19)
(2.60588 1.05501 -1.94662e-19)
(2.56796 0.960122 5.87622e-19)
(2.55139 0.862986 -2.12566e-19)
(2.54622 0.779548 -3.8624e-20)
(1.89511 0.775471 -9.62645e-19)
(2.9409 0.901735 1.31782e-19)
(2.85111 1.21051 0)
(2.96623 1.10803 0)
(2.86424 1.17624 0)
(2.83192 1.10953 1.34612e-19)
(2.76087 1.0751 5.70992e-20)
(2.70857 1.00431 5.54217e-20)
(2.66568 0.931756 -3.90959e-19)
(2.64137 0.852351 1.63553e-19)
(2.62792 0.782889 -3.37518e-19)
(1.82405 0.619823 -7.03273e-19)
(2.9188 0.786342 -3.13364e-20)
(2.87312 1.09099 -5.84176e-19)
(3.00317 0.992871 1.31313e-19)
(2.91621 1.07433 4.17659e-19)
(2.89618 1.0166 -2.30218e-19)
(2.83192 1.00168 -6.92387e-20)
(2.78409 0.946924 3.52662e-19)
(2.74083 0.893519 5.3559e-20)
(2.7136 0.83009 -4.90673e-19)
(2.69573 0.774711 2.55648e-19)
(1.76255 0.502069 -4.73777e-19)
(2.8867 0.69236 2.69207e-19)
(2.8763 0.993311 0)
(3.01971 0.894154 -1.81001e-19)
(2.94346 0.986833 1.84397e-19)
(2.93565 0.931775 1.02829e-20)
(2.87835 0.932855 5.74359e-20)
(2.83681 0.889218 -6.63902e-20)
(2.79605 0.852098 -1.62464e-19)
(2.76963 0.80199 2.71988e-19)
(2.75114 0.759737 -2.4961e-19)
(1.69236 0.389461 -3.66062e-19)
(2.83658 0.594072 0)
(2.86926 0.897544 2.47007e-19)
(3.02123 0.808117 -1.3767e-19)
(2.95556 0.909057 -1.66262e-19)
(2.95728 0.856218 2.63147e-20)
(2.90637 0.870653 2.86475e-20)
(2.87145 0.835033 2.30425e-19)
(2.83454 0.812287 -1.20102e-19)
(2.81125 0.773145 0)
(2.79525 0.74257 1.28418e-19)
(1.59739 0.296547 -4.67421e-19)
(2.76463 0.518188 3.15063e-20)
(2.8473 0.816286 1.28448e-19)
(3.00867 0.736352 0)
(2.95637 0.838965 5.80447e-21)
(2.96444 0.790428 0)
(2.92019 0.814215 -4.16709e-20)
(2.8911 0.78633 1.08246e-19)
(2.8592 0.775703 3.20495e-20)
(2.8404 0.746851 -2.77257e-19)
(2.82881 0.726567 -1.3131e-19)
(1.51459 0.223718 1.44017e-19)
(2.68685 0.456737 -4.59751e-20)
(2.8178 0.743551 -7.58579e-22)
(2.98572 0.675491 6.56505e-20)
(2.94816 0.774574 -4.90694e-20)
(2.95949 0.733327 -1.55214e-20)
(2.92231 0.763356 5.62805e-20)
(2.8982 0.744254 -2.78141e-20)
(2.87234 0.743983 -2.37535e-20)
(2.85909 0.724853 3.88159e-20)
(2.8538 0.712486 2.39826e-19)
(1.42945 0.154468 2.41757e-21)
(2.5937 0.389296 0)
(2.77835 0.665829 7.70088e-22)
(2.95152 0.618023 -3.06095e-21)
(2.93075 0.711451 6.24177e-21)
(2.94276 0.682841 1.78384e-19)
(2.9129 0.717751 -1.60055e-19)
(2.89445 0.709487 1.55204e-19)
(2.87566 0.718628 -7.31659e-20)
(2.86925 0.70908 -8.05388e-20)
(2.8716 0.703471 1.53152e-19)
(1.31425 0.101539 -1.254e-19)
(2.47032 0.334271 -1.48331e-19)
(2.71775 0.59149 1.54231e-19)
(2.89957 0.562321 0)
(2.89843 0.649141 0)
(2.91278 0.637258 -1.10819e-19)
(2.89117 0.678642 1.12625e-19)
(2.88019 0.683669 1.52335e-19)
(2.87056 0.700891 1.23364e-19)
(2.87267 0.700557 8.50682e-20)
(2.8836 0.700135 -6.33253e-20)
(1.17212 0.0744215 3.24185e-19)
(2.31016 0.301737 1.79361e-19)
(2.62409 0.524069 -2.50623e-19)
(2.81742 0.506802 -8.1572e-20)
(2.84176 0.590746 1.55456e-19)
(2.86473 0.599279 -1.61362e-19)
(2.85623 0.647789 -2.28892e-19)
(2.85587 0.667957 -8.24363e-20)
(2.8585 0.69249 1.42572e-20)
(2.87111 0.699984 -5.74154e-21)
(2.89175 0.70261 3.01505e-19)
(0.995768 0.0799256 0)
(2.09338 0.295554 -6.4331e-20)
(2.47063 0.466092 3.59066e-19)
(2.68189 0.458713 -4.01342e-19)
(2.74661 0.547308 -1.19429e-19)
(2.79093 0.575817 4.876e-20)
(2.80571 0.6299 1.30064e-19)
(2.82257 0.663675 2.55843e-20)
(2.84101 0.694045 -8.89065e-20)
(2.86594 0.707438 -5.31024e-20)
(2.89709 0.711978 1.30883e-19)
(0.74555 0.123226 1.22744e-18)
(1.78782 0.301363 -7.18276e-19)
(2.21882 0.428852 -4.19924e-19)
(2.47303 0.43907 -2.36184e-19)
(2.5922 0.545498 1.79349e-19)
(2.6785 0.582891 1.91613e-19)
(2.73366 0.633485 -6.16686e-20)
(2.77858 0.672147 -5.53108e-19)
(2.81734 0.704428 2.63469e-19)
(2.85648 0.721277 -8.78744e-20)
(2.89859 0.726892 -1.25604e-19)
(0.508144 0.156828 0)
(1.43439 0.292582 -8.62171e-19)
(1.90005 0.417624 1.30437e-18)
(2.19863 0.468496 4.36035e-19)
(2.36983 0.595118 1.227e-19)
(2.5159 0.639435 -9.1453e-20)
(2.62917 0.672323 0)
(2.71474 0.696904 2.68915e-19)
(2.78013 0.721239 -1.56954e-19)
(2.83689 0.737677 -2.1106e-19)
(2.89217 0.745818 1.77559e-19)
(0.111686 0.220369 -2.36972e-18)
(1.023 0.167502 1.62783e-18)
(1.47459 0.413126 -3.8387e-19)
(1.80919 0.513781 -1.35801e-18)
(2.05765 0.674055 1.53739e-18)
(2.28445 0.745436 -2.92021e-19)
(2.46677 0.754627 0)
(2.60238 0.745045 9.45605e-19)
(2.7034 0.744448 3.46475e-19)
(2.7861 0.750011 -2.63742e-19)
(2.86207 0.756718 2.50388e-19)
(0.565588 -0.661054 1.01204e-18)
(0.98258 -0.126433 -1.82181e-18)
(1.28838 0.117606 8.84032e-20)
(1.57543 0.391758 1.20958e-18)
(1.85104 0.658612 8.06234e-20)
(2.10415 0.769927 -2.51131e-18)
(2.30815 0.769332 1.05474e-18)
(2.45618 0.742429 -3.96221e-19)
(2.56859 0.729509 -4.52897e-19)
(2.6666 0.729943 4.85112e-19)
(2.77193 0.748923 -6.48668e-19)
(2.41521 -5.16832 -9.05811e-19)
(2.17481 -3.66815 3.56968e-18)
(2.05738 -2.83934 -1.93672e-18)
(2.02275 -2.0252 -3.39275e-18)
(2.05995 -1.43145 1.72575e-18)
(2.13665 -0.993165 0)
(2.2168 -0.675133 0)
(2.28419 -0.438849 6.6815e-19)
(2.33581 -0.26109 0)
(2.37323 -0.127844 0)
(2.39677 -0.0328444 0)
(4.00672 -4.59417 -5.26511e-19)
(3.90202 -2.07841 1.35485e-18)
(3.68111 -2.62576 -1.96498e-19)
(3.25254 -2.1017 9.61996e-20)
(2.90853 -1.65485 1.06021e-18)
(2.69529 -1.20213 0)
(2.58652 -0.82971 -5.06894e-19)
(2.53827 -0.539788 0)
(2.51593 -0.32213 0)
(2.50344 -0.161865 -3.76719e-19)
(2.4902 -0.0494958 5.30247e-20)
(4.34921 -3.17214 0)
(4.55354 -0.286204 -2.06614e-19)
(4.68759 -1.74151 -3.98414e-18)
(4.21663 -1.45873 9.95937e-19)
(3.74854 -1.37151 0)
(3.33907 -1.10364 -2.27322e-19)
(3.0463 -0.815841 4.32156e-19)
(2.85732 -0.547079 2.48329e-19)
(2.73916 -0.324975 2.27109e-19)
(2.65946 -0.155586 -4.55526e-19)
(2.59957 -0.0355852 1.35212e-19)
(4.0052 -1.87401 -3.30079e-18)
(4.5793 0.867594 1.70632e-18)
(5.04137 -0.723893 -2.29322e-18)
(4.6932 -0.521628 2.37602e-18)
(4.31363 -0.756571 0)
(3.86577 -0.707103 1.90894e-19)
(3.48024 -0.584781 8.10552e-20)
(3.18398 -0.413907 5.97839e-22)
(2.97568 -0.24245 -1.56448e-19)
(2.82974 -0.0942608 1.97016e-20)
(2.72173 0.0145378 -2.19935e-19)
(3.45534 -0.972848 -6.7839e-18)
(4.32502 1.45049 8.64217e-18)
(4.9391 0.11671 0)
(4.74278 0.332569 2.88486e-18)
(4.53185 -0.0687827 -2.20349e-18)
(4.15465 -0.163946 -1.14574e-18)
(3.779 -0.201166 0)
(3.44473 -0.15458 0)
(3.17963 -0.0688444 -2.59828e-19)
(2.98389 0.0273553 -3.41583e-20)
(2.83518 0.107356 8.35328e-20)
(2.94158 -0.375082 -1.3464e-18)
(3.99197 1.74449 -8.63581e-19)
(4.63959 0.705925 5.41183e-18)
(4.54952 0.959758 -7.64649e-18)
(4.48588 0.522181 4.72983e-19)
(4.21072 0.372292 4.31805e-18)
(3.90561 0.227999 -1.44525e-18)
(3.59326 0.172683 8.85814e-19)
(3.31771 0.167894 8.36701e-19)
(3.09443 0.20006 -5.67309e-20)
(2.91954 0.245333 -4.06355e-21)
(2.50078 0.0259004 -8.6699e-18)
(3.66936 1.91621 1.13075e-18)
(4.30302 1.10448 8.52665e-18)
(4.26769 1.386 -8.63973e-18)
(4.30079 0.967514 6.97059e-19)
(4.10991 0.819823 2.41601e-18)
(3.88815 0.621371 0)
(3.62645 0.502075 -4.13478e-19)
(3.37434 0.428106 -5.15499e-19)
(3.1485 0.395896 0)
(2.96278 0.388364 0)
(2.14148 0.301998 1.5319e-17)
(3.38753 2.01317 -5.32962e-18)
(3.9894 1.37882 0)
(3.97723 1.67325 -5.92007e-18)
(4.0674 1.28566 4.32776e-18)
(3.9285 1.1649 0)
(3.77796 0.945508 0)
(3.56864 0.795656 0)
(3.35358 0.675954 -4.64902e-19)
(3.14615 0.593065 4.0204e-19)
(2.96243 0.53011 0)
(1.85566 0.497765 -7.49006e-18)
(3.14026 2.0732 5.26431e-18)
(3.71169 1.5727 -7.11321e-18)
(3.70266 1.87332 1.10273e-17)
(3.82971 1.51053 -8.48806e-18)
(3.7139 1.42457 2.79784e-18)
(3.61894 1.19782 7.17767e-19)
(3.4515 1.03888 -1.19739e-18)
(3.2752 0.891042 0)
(3.09408 0.774131 7.62388e-19)
(2.92445 0.687327 4.35239e-19)
(1.60583 0.649239 1.53423e-18)
(2.9267 2.12248 -1.61288e-18)
(3.4603 1.71166 6.43212e-18)
(3.44747 2.02169 -5.07031e-18)
(3.60253 1.66927 9.07017e-19)
(3.48858 1.62132 -3.42741e-18)
(3.43907 1.38784 4.08952e-18)
(3.29982 1.23238 -2.18527e-18)
(3.1587 1.06682 0)
(3.00366 0.924947 -1.52234e-18)
(2.8504 0.815339 -4.32097e-19)
(1.37124 0.736611 4.7184e-18)
(2.71553 2.16949 -2.10652e-18)
(3.20554 1.8232 0)
(3.21696 2.13571 0)
(3.38256 1.78045 3.06392e-18)
(3.26139 1.77324 -1.25633e-18)
(3.25249 1.52653 2.84481e-18)
(3.12907 1.38263 -3.01783e-18)
(3.0193 1.20424 1.40419e-18)
(2.8868 1.0455 1.55882e-18)
(2.74652 0.915208 1.39201e-18)
(1.15658 0.777831 0)
(2.49338 2.19596 4.43655e-18)
(2.96109 1.90275 -9.61244e-18)
(3.00801 2.21156 8.04804e-18)
(3.15698 1.86579 -5.8349e-18)
(3.04104 1.88441 4.10974e-18)
(3.06309 1.62368 -2.61802e-18)
(2.9491 1.49462 2.0253e-18)
(2.8672 1.30577 0)
(2.75502 1.13633 -2.7695e-18)
(2.62866 0.994577 -7.13727e-19)
(0.961564 0.80517 -1.10241e-18)
(2.267 2.2012 3.27151e-18)
(2.73122 1.95821 -2.48753e-18)
(2.79966 2.252 3.47613e-18)
(2.92768 1.93358 -3.99111e-18)
(2.8333 1.95421 -1.8965e-18)
(2.86892 1.68998 0)
(2.76759 1.56949 -1.54805e-18)
(2.70798 1.37373 0)
(2.61608 1.19675 -1.1826e-18)
(2.5098 1.03276 9.65988e-19)
(0.761963 0.818561 1.10445e-18)
(2.02351 2.18505 -7.37342e-18)
(2.49714 1.99688 5.77756e-18)
(2.58679 2.26331 3.09791e-18)
(2.70111 1.98034 -1.20079e-18)
(2.63466 1.98928 0)
(2.67139 1.73205 0)
(2.58868 1.61051 2.01594e-19)
(2.54663 1.41159 -8.55437e-19)
(2.47425 1.23051 0)
(2.38848 1.04327 7.29554e-19)
(0.555372 0.803408 9.09111e-19)
(1.77314 2.14106 6.49696e-18)
(2.25942 2.01112 -4.1309e-18)
(2.37181 2.25001 0)
(2.47894 2.00383 -9.795e-19)
(2.4399 1.99201 5.40918e-18)
(2.47265 1.75068 -3.80685e-18)
(2.41376 1.62036 3.7997e-18)
(2.38723 1.42157 -5.70306e-19)
(2.33458 1.23955 -3.24805e-19)
(2.27076 1.04099 -1.04927e-18)
(0.350027 0.769281 -9.34078e-19)
(1.51399 2.07039 -1.28606e-18)
(2.01516 1.9999 -3.39293e-18)
(2.15305 2.21141 -8.68903e-19)
(2.25776 2.00468 9.06789e-19)
(2.24351 1.9659 -1.28776e-18)
(2.27519 1.74306 6.99359e-19)
(2.24354 1.6003 6.85528e-19)
(2.23415 1.40458 3.12684e-21)
(2.20401 1.22306 8.68525e-19)
(2.16724 1.02263 1.1057e-19)
(0.137151 0.706988 0)
(1.23633 1.96626 4.12914e-18)
(1.75628 1.9586 -3.22253e-18)
(1.92369 2.14511 2.20788e-19)
(2.03119 1.97939 0)
(2.04237 1.91256 -1.76628e-18)
(2.08061 1.70612 2.30752e-18)
(2.0794 1.55094 -1.75356e-18)
(2.09137 1.36101 0)
(2.08656 1.18253 0)
(2.0759 0.9877 1.15811e-19)
(-0.0897072 0.58767 6.12839e-19)
(0.936903 1.80421 0)
(1.47877 1.8702 -5.66637e-19)
(1.67617 2.04187 9.87154e-19)
(1.79275 1.9188 1.04903e-18)
(1.83323 1.82914 -5.28232e-19)
(1.88948 1.63527 -2.00688e-19)
(1.92349 1.47192 0)
(1.96276 1.2918 0)
(1.98523 1.12194 0)
(2.00129 0.939678 2.94979e-19)
(-0.325897 0.390944 1.32629e-18)
(0.621279 1.55812 -3.53613e-19)
(1.18171 1.70692 -1.31578e-18)
(1.40177 1.88438 1.17812e-18)
(1.53598 1.80568 -9.0737e-19)
(1.61196 1.70266 4.72506e-19)
(1.70141 1.52337 -9.31362e-19)
(1.7789 1.36217 0)
(1.85202 1.19868 0)
(1.9043 1.04457 0)
(1.94525 0.883798 0)
(-0.565112 0.117876 -6.70469e-20)
(0.284745 1.22372 0)
(0.853426 1.44181 -2.19841e-19)
(1.08971 1.64066 0)
(1.24927 1.60947 0)
(1.3728 1.50573 -2.02776e-20)
(1.51747 1.35572 0)
(1.6473 1.21818 0)
(1.75858 1.08315 -1.85037e-20)
(1.84186 0.953676 0)
(1.9067 0.820003 0)
(-0.840588 -0.213948 -5.53502e-19)
(-0.108944 0.845349 -8.46272e-21)
(0.464433 1.08484 -2.59566e-20)
(0.720411 1.29153 -2.02756e-19)
(0.916901 1.3027 1.47471e-19)
(1.11384 1.21594 2.19712e-20)
(1.33917 1.12108 1.88684e-20)
(1.52224 1.04011 1.15466e-19)
(1.67003 0.951614 -6.60375e-20)
(1.78488 0.855605 0)
(1.8803 0.75047 0)
(-1.20137 -0.674152 0)
(-0.626675 0.437483 2.62801e-18)
(-0.0256561 0.590129 -1.90695e-18)
(0.26019 0.761729 3.11595e-19)
(0.517897 0.802602 -1.10734e-18)
(0.819699 0.765042 1.0432e-19)
(1.14212 0.748397 9.00715e-19)
(1.36605 0.762373 -2.82464e-19)
(1.53779 0.755898 0)
(1.67972 0.720166 -3.3944e-20)
(1.80833 0.661552 2.45708e-20)
(-1.79805 -0.989229 0)
(-1.29904 0.00849815 9.08422e-18)
(-0.748572 0.0390418 -4.66136e-18)
(-0.390419 0.168372 2.45342e-18)
(-0.0205427 0.259904 -3.65312e-18)
(0.374406 0.381854 0)
(0.790446 0.450605 -3.35148e-19)
(1.06639 0.512256 6.34078e-19)
(1.27307 0.539573 0)
(1.45675 0.538232 4.82722e-20)
(1.66269 0.521354 -2.54628e-19)
(-0.374152 -0.539523 6.73233e-18)
(-0.921981 0.121664 -9.0278e-18)
(-0.268008 -0.203748 5.19217e-18)
(0.283021 -0.252843 -1.57121e-18)
(0.795062 -0.154866 2.9536e-18)
(1.19473 0.0668138 -8.32287e-19)
(1.48638 0.244629 4.84959e-19)
(1.69408 0.36261 -4.55078e-19)
(1.87823 0.434496 2.87925e-19)
(2.05399 0.482532 -1.53124e-19)
(2.23908 0.530528 -1.06578e-19)
(4.68224 2.60815 -1.08275e-20)
(3.46468 1.76387 -8.74426e-20)
(3.09844 1.57898 -6.63865e-20)
(2.67164 1.25699 -2.01452e-20)
(2.33364 0.971281 1.97402e-19)
(2.08884 0.732483 -1.48673e-19)
(1.91126 0.541611 -3.65768e-21)
(1.78106 0.391862 4.21289e-20)
(1.68557 0.274765 -3.04469e-20)
(1.61546 0.184171 -2.68617e-21)
(1.56558 0.121757 -2.43845e-20)
(4.33122 1.18713 7.86892e-18)
(2.85516 -0.0740906 -4.18303e-19)
(3.3145 0.311928 -2.35417e-18)
(3.08818 0.39356 1.93229e-18)
(2.73503 0.401883 -7.79817e-21)
(2.41851 0.367016 -1.46956e-19)
(2.15563 0.298056 2.3062e-19)
(1.95478 0.220305 -4.26841e-19)
(1.80673 0.147926 2.36673e-19)
(1.69838 0.0872402 1.4883e-20)
(1.62115 0.0445971 -1.09944e-19)
(2.82596 0.594032 9.48973e-18)
(1.80162 -0.82807 5.38604e-19)
(2.80205 -0.570158 4.69751e-18)
(2.86422 -0.457154 -4.36132e-18)
(2.73472 -0.289072 -2.15672e-18)
(2.51981 -0.137475 1.51025e-18)
(2.2809 -0.0551154 -6.02469e-19)
(2.0647 -0.0245454 4.61133e-19)
(1.88991 -0.0254524 -1.12907e-19)
(1.75641 -0.0386998 2.66407e-19)
(1.66063 -0.0474778 -2.28709e-19)
(1.50173 0.736255 -9.90744e-18)
(1.04957 -0.731768 -1.26316e-18)
(2.09165 -0.873747 8.57152e-19)
(2.29458 -0.940984 0)
(2.4092 -0.811338 -1.8442e-18)
(2.36777 -0.601342 2.45286e-18)
(2.23089 -0.428682 0)
(2.06578 -0.304764 -3.65491e-19)
(1.90737 -0.229318 4.90442e-19)
(1.77371 -0.185165 -6.23542e-19)
(1.67003 -0.14865 -5.34423e-20)
(0.664232 1.16555 1.77568e-18)
(0.593088 -0.272713 -3.31981e-18)
(1.46009 -0.758838 3.40088e-18)
(1.71161 -1.03826 0)
(1.96544 -1.0452 2.71449e-18)
(2.06071 -0.898628 -2.79866e-18)
(2.03976 -0.717128 1.116e-19)
(1.95775 -0.553721 0)
(1.8488 -0.42741 1.46028e-18)
(1.73956 -0.33671 2.97164e-19)
(1.64569 -0.261684 -6.57779e-19)
(0.163568 1.65201 2.53583e-18)
(0.305017 0.25279 0)
(0.983585 -0.451778 0)
(1.24889 -0.89413 0)
(1.55065 -1.04699 0)
(1.71849 -1.00631 -9.05295e-19)
(1.78523 -0.879304 2.28831e-18)
(1.78172 -0.723879 1.47203e-18)
(1.73131 -0.583581 -1.68556e-18)
(1.66056 -0.468887 -2.02852e-18)
(1.59077 -0.368826 2.85793e-20)
(-0.120069 2.16755 0)
(0.126364 0.779569 0)
(0.644756 -0.070533 1.06841e-18)
(0.912988 -0.635578 0)
(1.2174 -0.912841 -1.17654e-18)
(1.41519 -0.976909 1.72066e-18)
(1.5323 -0.921894 -1.13657e-18)
(1.5848 -0.808819 -7.61414e-20)
(1.58557 -0.682378 -1.42911e-19)
(1.55329 -0.56488 1.59565e-18)
(1.51301 -0.453905 2.62796e-19)
(-0.236895 2.68283 -1.20255e-18)
(0.0265876 1.29548 -5.82581e-19)
(0.417691 0.343132 -1.03755e-18)
(0.681172 -0.324616 0)
(0.969979 -0.708391 9.86305e-19)
(1.17507 -0.866498 -7.91414e-19)
(1.31596 -0.883134 0)
(1.40097 -0.82055 6.56251e-19)
(1.43769 -0.724414 3.52559e-19)
(1.4375 -0.621702 -1.17932e-18)
(1.42247 -0.514768 -3.28473e-19)
(-0.252825 3.15294 7.61468e-19)
(-0.0325499 1.7927 1.09164e-18)
(0.275904 0.768753 -3.94172e-19)
(0.528454 0.0113711 -5.57681e-19)
(0.79464 -0.467182 -9.61085e-19)
(0.996355 -0.710988 -6.18853e-19)
(1.14559 -0.795327 0)
(1.24668 -0.783438 -6.11011e-19)
(1.30505 -0.722213 8.71358e-19)
(1.32715 -0.641543 -3.06803e-19)
(1.3341 -0.547362 1.05715e-18)
(-0.199415 3.5808 0)
(-0.0607768 2.27204 1.5618e-19)
(0.190705 1.20191 2.09683e-19)
(0.426148 0.365629 4.18978e-19)
(0.669593 -0.201693 3.77805e-19)
(0.865015 -0.527811 3.1514e-19)
(1.01606 -0.678104 0)
(1.12441 -0.716032 0)
(1.19499 -0.690693 -3.80103e-19)
(1.23102 -0.635075 5.39252e-19)
(1.25304 -0.558991 1.39504e-19)
(-0.103433 3.98451 4.04718e-19)
(-0.0613322 2.74093 -4.10253e-19)
(0.147942 1.64253 7.34766e-20)
(0.356787 0.737432 -5.59366e-20)
(0.578 0.0851564 1.59269e-19)
(0.766557 -0.323075 0)
(0.917504 -0.540372 0)
(1.02972 -0.628815 0)
(1.10778 -0.639978 0)
(1.15346 -0.610307 1.20669e-19)
(1.186 -0.554652 -1.57101e-19)
(0.00930829 4.34012 8.58876e-19)
(-0.0502936 3.17472 -3.6865e-19)
(0.128315 2.07716 0)
(0.309489 1.11938 -9.87632e-20)
(0.509289 0.389753 -6.43155e-20)
(0.690214 -0.0986176 -1.33002e-20)
(0.840614 -0.384594 0)
(0.955998 -0.525831 0)
(1.03971 -0.575166 0)
(1.09266 -0.572295 -1.19129e-19)
(1.13307 -0.537116 0)
(0.106947 4.57352 -3.48728e-19)
(-0.0381509 3.5434 3.35176e-19)
(0.115873 2.49486 -2.52632e-19)
(0.271077 1.51123 0)
(0.45173 0.716228 -1.49688e-19)
(0.625525 0.150431 -1.84787e-19)
(0.7761 -0.20704 -1.35031e-19)
(0.895645 -0.405402 -9.50986e-20)
(0.985372 -0.496748 0)
(1.04537 -0.523285 2.02927e-19)
(1.09148 -0.510586 -1.38204e-19)
(0.195962 4.70244 -5.83499e-19)
(-0.0135399 3.85729 6.41629e-19)
(0.113236 2.90723 -4.85007e-19)
(0.241051 1.9277 0)
(0.401671 1.0789 1.32271e-19)
(0.567083 0.436819 1.78145e-19)
(0.717351 0.00289235 5.44084e-19)
(0.841775 -0.26002 5.81262e-19)
(0.939077 -0.400332 -1.33997e-19)
(1.00816 -0.461576 2.70426e-19)
(1.06251 -0.47492 2.64022e-19)
(0.274566 4.76217 -2.66456e-20)
(0.0328501 4.11017 -9.64667e-19)
(0.131436 3.29817 0)
(0.228699 2.36124 0)
(0.365072 1.47869 0)
(0.516826 0.766227 -3.6395e-19)
(0.663339 0.253502 -2.63394e-19)
(0.791219 -0.0807922 -3.76942e-19)
(0.896411 -0.278133 0)
(0.976335 -0.381358 -3.69212e-19)
(1.04134 -0.425686 2.32883e-19)
(0.350972 4.77709 8.49283e-19)
(0.104241 4.29271 -3.27123e-19)
(0.17579 3.63749 -4.42517e-19)
(0.238987 2.79134 3.19855e-19)
(0.344604 1.9109 4.59476e-19)
(0.475893 1.14326 3.28824e-19)
(0.612618 0.554351 0)
(0.740464 0.144355 3.26132e-19)
(0.852875 -0.11798 -2.46008e-19)
(0.945255 -0.27218 -3.10032e-19)
(1.02382 -0.35511 1.94942e-20)
(0.432092 4.78115 0)
(0.192737 4.42271 0)
(0.243598 3.91195 4.52908e-19)
(0.275199 3.19416 -3.27856e-19)
(0.343859 2.36346 -4.7066e-19)
(0.445282 1.57149 -9.73076e-19)
(0.564111 0.918266 4.80987e-19)
(0.68675 0.432506 0)
(0.804465 0.0982119 -4.1724e-19)
(0.90981 -0.117472 5.92975e-19)
(1.00457 -0.250168 -5.88954e-19)
(0.509531 4.78376 4.36195e-19)
(0.283602 4.51676 1.21987e-18)
(0.324067 4.12373 -2.26481e-18)
(0.332908 3.54594 -6.16778e-19)
(0.364447 2.81171 1.78235e-20)
(0.428658 2.04188 0)
(0.520829 1.35251 -4.48759e-19)
(0.631568 0.801241 -5.85119e-19)
(0.750965 0.392674 4.36746e-19)
(0.868334 0.105371 0)
(0.980006 -0.0904617 -3.30244e-19)
(0.585781 4.78878 -4.35706e-19)
(0.372251 4.58872 2.4865e-20)
(0.407003 4.28724 4.73302e-19)
(0.400326 3.84055 6.85411e-19)
(0.40006 3.23372 4.88325e-19)
(0.426871 2.53887 0)
(0.488164 1.8589 4.65467e-19)
(0.581557 1.2675 5.84231e-19)
(0.697586 0.791344 0)
(0.822802 0.426437 0)
(0.951151 0.154144 3.33367e-19)
(0.665399 4.79785 0)
(0.455471 4.64643 6.9527e-19)
(0.479923 4.41482 -9.8574e-19)
(0.457566 4.08601 7.48911e-19)
(0.435016 3.6227 0)
(0.435896 3.04914 0)
(0.473506 2.43298 0)
(0.550206 1.84181 -6.09101e-19)
(0.657989 1.31786 -6.8773e-19)
(0.782527 0.878977 2.37936e-19)
(0.918857 0.523857 -3.01779e-19)
(0.747319 4.79288 3.2009e-18)
(0.518714 4.67571 -1.57296e-18)
(0.515414 4.50679 -5.5491e-19)
(0.478231 4.29836 1.55245e-18)
(0.453459 3.98902 -2.23862e-18)
(0.456131 3.56852 1.50619e-18)
(0.492333 3.06309 -5.0642e-20)
(0.56227 2.51944 -5.43729e-19)
(0.659241 1.98237 7.62966e-19)
(0.770403 1.48854 6.18869e-19)
(0.890592 1.06033 -2.75963e-19)
(0.699297 4.69245 0)
(0.482053 4.63146 4.36661e-19)
(0.468748 4.55426 6.1819e-19)
(0.454604 4.47006 1.70797e-18)
(0.468497 4.32304 -1.28497e-18)
(0.509454 4.0566 0)
(0.56875 3.68592 -5.15575e-19)
(0.643896 3.23695 5.55528e-19)
(0.731476 2.7378 -3.99612e-19)
(0.823226 2.22872 -1.69081e-19)
(0.923444 1.74101 5.2015e-19)
(0.583211 4.70073 3.04295e-18)
(0.543752 4.59886 -2.63992e-18)
(0.566492 4.54704 0)
(0.61509 4.50231 0)
(0.697987 4.42157 -1.61059e-19)
(0.797428 4.27643 8.37536e-19)
(0.8921 4.06601 -6.01674e-19)
(0.977631 3.77875 -1.63511e-19)
(1.04042 3.40815 0)
(1.06515 2.97618 2.1701e-19)
(1.08504 2.46818 -4.15881e-19)
(0.607199 2.97521 0)
(0.615506 2.93563 0)
(0.769982 2.84037 0)
(0.910973 2.75816 -1.57421e-20)
(1.02514 2.68404 1.94094e-19)
(1.11137 2.62951 8.3584e-19)
(1.17919 2.60369 -6.57199e-20)
(1.24543 2.61173 1.39379e-19)
(1.32635 2.6501 1.95596e-19)
(1.40757 2.63898 -1.43759e-20)
(1.43699 2.45247 -2.01339e-19)
(1.83736 3.99976 1.23415e-20)
(1.44145 3.27519 -3.00195e-18)
(1.62019 2.36932 -8.30124e-19)
(1.70572 1.72732 2.2984e-18)
(1.7101 1.27633 0)
(1.67713 0.946733 0)
(1.62925 0.700686 3.67502e-21)
(1.58173 0.513299 1.1996e-19)
(1.54217 0.36894 5.78636e-20)
(1.51205 0.258188 -5.19127e-20)
(1.49018 0.179087 -3.37794e-21)
(-1.74323 2.00003 -1.39109e-17)
(-0.392931 2.33164 5.27111e-18)
(0.258315 2.23323 -7.10271e-19)
(0.762396 1.86377 9.02254e-19)
(1.06328 1.47605 -1.23228e-18)
(1.23735 1.13397 1.96145e-18)
(1.32521 0.851534 0)
(1.36606 0.627389 2.36783e-19)
(1.38538 0.453052 -2.44827e-19)
(1.39618 0.319907 3.39795e-19)
(1.40281 0.225689 1.90884e-20)
(-2.13256 1.10617 -7.10365e-19)
(-1.08815 1.18599 0)
(-0.742888 1.41412 7.65123e-19)
(-0.157015 1.48357 -3.72538e-18)
(0.362424 1.38484 4.32947e-18)
(0.741374 1.16204 -2.9979e-18)
(0.981527 0.910248 -1.37651e-18)
(1.11834 0.68398 6.43078e-19)
(1.20214 0.500771 5.39581e-19)
(1.25717 0.358411 -4.28774e-19)
(1.29376 0.255857 0)
(-1.95931 0.409075 4.65235e-19)
(-0.965555 0.384713 0)
(-0.978984 0.687193 0)
(-0.592965 0.874686 -8.37881e-19)
(-0.189554 0.959519 9.35858e-19)
(0.207811 0.926957 7.35219e-20)
(0.544497 0.80957 1.61358e-18)
(0.802948 0.654163 -1.08165e-18)
(0.979674 0.497524 8.87963e-19)
(1.10036 0.362123 -2.97193e-19)
(1.17794 0.260815 1.92957e-19)
(-1.59633 -0.0604832 4.77712e-20)
(-0.713398 -0.174897 0)
(-0.905636 0.101732 0)
(-0.637187 0.320837 0)
(-0.360524 0.493341 -8.70117e-19)
(-0.0421207 0.582135 4.34044e-19)
(0.266787 0.58115 -3.14012e-20)
(0.535997 0.513679 -7.81603e-19)
(0.751045 0.415733 -9.04902e-19)
(0.914045 0.315889 4.1377e-19)
(1.02869 0.235567 1.44412e-19)
(-1.22006 -0.34508 -4.33788e-20)
(-0.460099 -0.525051 0)
(-0.725455 -0.309351 0)
(-0.530795 -0.11026 0)
(-0.362213 0.0767247 0)
(-0.129646 0.21953 -1.24544e-18)
(0.122805 0.299736 1.12312e-19)
(0.370893 0.314914 1.32248e-18)
(0.590008 0.283524 7.74618e-19)
(0.769247 0.231081 -2.6107e-19)
(0.90081 0.18311 -5.07242e-19)
(-0.88076 -0.500396 -1.6777e-20)
(-0.234701 -0.728937 3.84962e-20)
(-0.518539 -0.573697 1.79131e-19)
(-0.359807 -0.406496 -1.99933e-20)
(-0.271546 -0.236231 0)
(-0.109326 -0.0836202 9.11754e-19)
(0.0818066 0.0325474 4.72309e-19)
(0.286433 0.100602 -5.52634e-19)
(0.483201 0.122097 -2.19789e-19)
(0.656625 0.112368 3.67429e-19)
(0.789666 0.0941649 0)
(-0.595054 -0.585647 0)
(-0.0561152 -0.846253 0)
(-0.326286 -0.741305 -2.28069e-19)
(-0.177788 -0.599305 6.52353e-20)
(-0.145602 -0.456536 0)
(-0.0303134 -0.310864 -2.00091e-19)
(0.107679 -0.1853 -2.03181e-19)
(0.266784 -0.0914096 0)
(0.429473 -0.0345547 3.00054e-19)
(0.582611 -0.0092583 5.29122e-20)
(0.70638 -0.000108971 8.09108e-20)
(-0.350448 -0.641124 0)
(0.0880378 -0.924653 0)
(-0.155541 -0.845942 0)
(-0.00667428 -0.730627 0)
(-0.0155038 -0.60629 0)
(0.0753251 -0.474752 0)
(0.171128 -0.35109 0)
(0.290168 -0.247724 4.04922e-20)
(0.418898 -0.172055 -8.01028e-20)
(0.545606 -0.125433 -3.78333e-20)
(0.650197 -0.0999949 -3.86703e-20)
(-0.142946 -0.673674 0)
(0.227078 -0.991267 5.7988e-20)
(-3.09604e-05 -0.911113 1.39456e-19)
(0.141958 -0.823575 3.92926e-21)
(0.118972 -0.70887 0)
(0.18725 -0.59083 0)
(0.253225 -0.473744 0)
(0.340492 -0.368476 -4.51742e-20)
(0.437962 -0.283931 -4.35143e-20)
(0.537955 -0.225318 3.27713e-20)
(0.621384 -0.188841 2.65362e-20)
(0.0115415 -0.679268 0)
(0.361216 -1.03212 -7.02853e-20)
(0.157706 -0.95479 -1.85184e-19)
(0.277021 -0.882998 0)
(0.249212 -0.779187 6.21857e-22)
(0.300399 -0.671594 -4.85676e-22)
(0.344694 -0.561669 4.69104e-20)
(0.407479 -0.458188 -2.43006e-20)
(0.478868 -0.370006 0)
(0.554585 -0.303879 9.07967e-21)
(0.616736 -0.259019 2.07639e-20)
(0.139602 -0.667099 0)
(0.48343 -1.04201 6.88297e-20)
(0.299805 -0.980814 0)
(0.403511 -0.917657 0)
(0.373147 -0.823636 2.65437e-20)
(0.412151 -0.724722 3.0772e-20)
(0.440591 -0.621692 -1.00268e-19)
(0.484779 -0.521631 4.40313e-20)
(0.535252 -0.432708 2.39326e-21)
(0.590468 -0.362153 -3.65931e-20)
(0.636146 -0.311665 0)
(0.257486 -0.647225 0)
(0.601383 -1.03793 0)
(0.428039 -0.991449 9.8582e-20)
(0.522968 -0.933832 -1.68356e-19)
(0.490517 -0.847585 -2.63853e-20)
(0.520948 -0.755767 0)
(0.537718 -0.659082 0)
(0.568118 -0.563113 -2.00458e-19)
(0.602826 -0.475253 4.65692e-20)
(0.64272 -0.402664 0)
(0.672448 -0.348497 0)
(0.375514 -0.610636 4.23564e-19)
(0.718813 -1.01468 -1.5388e-20)
(0.55107 -0.987355 3.52136e-19)
(0.636395 -0.934763 -3.18577e-19)
(0.602719 -0.855258 2.50757e-19)
(0.62611 -0.769413 -3.36381e-19)
(0.634179 -0.678512 -2.11112e-20)
(0.65421 -0.586986 -2.15401e-20)
(0.677022 -0.501398 0)
(0.706785 -0.42881 -2.64809e-19)
(0.730253 -0.373405 -7.67211e-20)
(0.483349 -0.556779 0)
(0.821643 -0.975272 -3.17104e-19)
(0.666325 -0.96932 -2.38242e-19)
(0.741956 -0.921972 0)
(0.710795 -0.848639 0)
(0.72731 -0.767884 3.35116e-19)
(0.7295 -0.682166 2.28578e-19)
(0.741322 -0.595423 0)
(0.755264 -0.513532 0)
(0.77708 -0.443205 -2.0888e-20)
(0.799285 -0.389809 0)
(0.585781 -0.499195 4.63006e-19)
(0.915078 -0.92505 0)
(0.775599 -0.939785 0)
(0.840991 -0.897849 6.83735e-19)
(0.814383 -0.829981 -2.34813e-20)
(0.824462 -0.75364 0)
(0.822473 -0.672591 0)
(0.827468 -0.590836 0)
(0.834535 -0.513748 2.08077e-19)
(0.849574 -0.447486 1.2537e-19)
(0.87417 -0.397577 -3.88928e-19)
(0.685867 -0.435214 0)
(1.00498 -0.861804 -6.76925e-19)
(0.882102 -0.898126 0)
(0.93573 -0.862823 0)
(0.913825 -0.800181 -5.20966e-19)
(0.91758 -0.727833 0)
(0.911937 -0.651186 0)
(0.910746 -0.574675 6.79597e-19)
(0.911875 -0.503338 0)
(0.920373 -0.442902 0)
(0.940222 -0.399126 3.88276e-19)
(0.779992 -0.360506 0)
(1.08921 -0.783184 7.09504e-19)
(0.98438 -0.842207 5.20938e-19)
(1.02651 -0.81564 0)
(1.00872 -0.758707 0)
(1.00616 -0.690521 -7.09239e-19)
(0.996478 -0.618515 5.44416e-19)
(0.989155 -0.547769 -8.55286e-21)
(0.984373 -0.483018 4.35579e-19)
(0.986545 -0.429477 -3.26639e-19)
(0.997158 -0.393987 0)
(0.868073 -0.276108 0)
(1.1677 -0.688102 -7.3029e-19)