/*--------------------------------*- C++ -*----------------------------------*\
| =========                 |                                                 |
| \\      /  F ield         | OpenFOAM: The Open Source CFD Toolbox           |
|  \\    /   O peration     | Version:  3.0.1                                 |
|   \\  /    A nd           | Web:      www.OpenFOAM.org                      |
|    \\/     M anipulation  |                                                 |
\*---------------------------------------------------------------------------*/
FoamFile
{
    version     2.0;
    format      ascii;
    class       surfaceVectorField;
    location    "0.0588998";
    object      Uf;
}
// * * * * * * * * * * * * * * * * * * * * * * * * * * * * * * * * * * * * * //

dimensions      [0 1 -1 0 0 0 0];

internalField   nonuniform List<vector> 
32369
(
(4.01226 -1.26098 1.4372e-18)
(4.37301 -1.09088 1.49625e-18)
(5.44094 -1.95589 -5.32517e-19)
(4.20138 -1.25083 6.63264e-19)
(3.60804 -0.840782 -1.9565e-18)
(4.77631 -1.36664 6.6472e-19)
(4.23108 -1.14674 1.58752e-19)
(3.75606 -1.05566 9.99417e-19)
(4.71136 -1.1294 -5.34294e-20)
(4.21035 -0.945568 -2.37334e-19)
(3.84383 -1.01224 -1.4815e-19)
(4.59943 -0.914 -1.25767e-19)
(4.15372 -0.684494 6.9095e-20)
(3.87328 -0.835849 5.75333e-20)
(4.44647 -0.653714 5.98744e-20)
(4.05664 -0.418492 9.34397e-21)
(3.86963 -0.608088 -6.10961e-20)
(4.28264 -0.381368 0)
(3.93475 -0.199062 -3.39201e-20)
(3.83232 -0.377738 -1.94562e-20)
(4.1174 -0.155447 2.12136e-20)
(3.80012 -0.0282104 -1.42007e-20)
(3.75736 -0.182827 -3.55964e-20)
(3.9495 0.0227151 -7.75167e-21)
(3.65974 0.0980012 1.42009e-20)
(3.65548 -0.0311781 -1.62568e-20)
(3.77916 0.155334 -1.05676e-20)
(3.51743 0.184099 6.29057e-21)
(3.53904 0.0779735 3.71029e-20)
(3.61257 0.247146 1.42492e-20)
(3.42596 0.142964 -4.08362e-21)
(3.46393 0.305124 0)
(3.37042 0.236866 0)
(3.59876 -0.428481 -1.87792e-18)
(3.96685 -0.32486 1.42554e-18)
(3.44556 -0.752974 -2.29507e-18)
(3.27987 -0.305915 -2.24525e-18)
(3.48946 -0.878713 9.07029e-19)
(3.28383 -0.665908 6.96201e-19)
(3.58295 -0.877379 0)
(3.33907 -0.768771 0)
(3.66042 -0.764804 -5.10573e-20)
(3.41321 -0.756189 1.67868e-19)
(3.70167 -0.575546 -8.84329e-20)
(3.49513 -0.64944 1.50847e-20)
(3.6948 -0.371268 -5.49181e-20)
(3.55255 -0.481264 -5.41659e-20)
(3.64201 -0.195514 -3.88536e-20)
(3.56165 -0.310061 -5.92094e-20)
(3.5599 -0.0585689 -3.21082e-20)
(3.52638 -0.162201 2.78325e-20)
(3.4607 0.037953 2.13287e-20)
(3.45991 -0.0482478 3.70592e-20)
(3.38196 0.023109 -2.61182e-20)
(3.35179 0.0948504 -2.66708e-21)
(3.51879 -0.0439068 -2.68512e-19)
(3.78318 0.0101465 -7.2919e-19)
(3.18716 -0.305232 -2.48527e-19)
(3.23803 0.00367466 4.39079e-19)
(3.13376 -0.493685 -1.03392e-19)
(3.12201 -0.283506 -5.29174e-19)
(3.18544 -0.606023 1.43374e-19)
(3.09329 -0.431804 1.41636e-19)
(3.27862 -0.626401 3.10761e-19)
(3.13329 -0.522558 2.16021e-20)
(3.37953 -0.555015 1.89744e-19)
(3.22131 -0.527959 -1.46888e-20)
(3.45013 -0.425331 5.46078e-20)
(3.31691 -0.454272 2.7314e-20)
(3.47139 -0.284576 6.25615e-20)
(3.37944 -0.34286 2.63795e-20)
(3.44831 -0.160601 8.09482e-20)
(3.39757 -0.227656 1.01005e-19)
(3.39251 -0.0666357 -3.01338e-20)
(3.3765 -0.128814 -5.65241e-20)
(3.33175 -0.065823 -7.59607e-20)
(3.30668 -0.0150532 7.45267e-20)
(3.48945 0.114503 -1.45155e-19)
(3.67544 0.117984 -3.7905e-19)
(3.16784 -0.0370956 2.91993e-19)
(3.27013 0.143572 3.00829e-19)
(3.04449 -0.188774 -3.49424e-19)
(3.11574 -0.0431753 -7.91076e-19)
(3.02362 -0.32106 1.35224e-20)
(3.03577 -0.165117 4.93677e-19)
(3.0734 -0.406899 -3.51839e-19)
(3.02816 -0.280745 -5.30069e-19)
(3.16649 -0.42408 -2.21589e-19)
(3.08241 -0.347137 1.2711e-19)
(3.26028 -0.377141 0)
(3.16802 -0.349746 -1.58943e-19)
(3.32211 -0.294737 5.6517e-20)
(3.24513 -0.304573 -1.79762e-19)
(3.34273 -0.205382 4.59989e-20)
(3.29185 -0.236201 6.31466e-20)
(3.32592 -0.12911 -1.33893e-19)
(3.30289 -0.166044 4.74616e-20)
(3.28711 -0.116592 -1.03679e-19)
(3.27865 -0.0818273 7.74055e-20)
(3.46693 0.172095 -7.95274e-20)
(3.59577 0.131173 -1.30019e-19)
(3.21636 0.0953578 -6.12362e-19)
(3.30856 0.194921 -2.51167e-19)
(3.08068 -0.00307095 -6.15551e-21)
(3.16534 0.0751861 1.45965e-19)
(3.01727 -0.11144 7.98813e-20)
(3.07344 -0.00399529 1.38532e-19)
(3.01885 -0.208281 -1.28235e-19)
(3.03569 -0.10421 -1.5435e-19)
(3.07459 -0.268421 1.89582e-19)
(3.05285 -0.186027 5.34383e-19)
(3.15278 -0.280473 -3.33306e-19)
(3.10846 -0.229804 -4.61219e-19)
(3.22127 -0.2534 -1.981e-19)
(3.17329 -0.233992 9.21811e-20)
(3.26242 -0.205681 1.09209e-19)
(3.22455 -0.209342 1.03978e-19)
(3.27168 -0.155691 1.21346e-19)
(3.25031 -0.17124 -1.84909e-19)
(3.25265 -0.140538 9.88413e-20)
(3.25288 -0.118721 -1.33185e-19)
(3.45568 0.18564 -2.89949e-19)
(3.55048 0.124909 -2.67049e-19)
(3.26869 0.147238 4.30772e-19)
(3.34423 0.211044 1.07863e-19)
(3.15013 0.089276 3.02576e-19)
(3.22478 0.118371 6.55154e-19)
(3.07923 0.0122308 -1.26547e-19)
(3.14348 0.0760491 -2.58272e-19)
(3.05302 -0.0710227 3.85712e-19)
(3.09594 -0.000816587 3.33784e-19)
(3.07242 -0.141206 -4.9972e-20)
(3.08783 -0.0757384 1.08816e-19)
(3.12091 -0.183141 -8.13021e-20)
(3.11378 -0.133314 -2.19677e-19)
(3.17511 -0.194211 4.00294e-19)
(3.15624 -0.164761 3.68014e-19)
(3.21647 -0.181907 -1.677e-19)
(3.19684 -0.171174 -2.06867e-19)
(3.23579 -0.158493 -2.53752e-19)
(3.22267 -0.160166 -1.27456e-19)
(3.23117 -0.148328 1.41054e-19)
(3.23195 -0.136457 -1.34004e-20)
(3.46042 0.174925 1.29483e-19)
(3.5476 0.116151 3.49291e-20)
(3.31442 0.159004 2.48367e-19)
(3.37517 0.198817 -3.83203e-20)
(3.22026 0.123713 1.48644e-19)
(3.28215 0.121569 1.88599e-19)
(3.15846 0.0700142 1.38406e-19)
(3.21852 0.105135 -1.14488e-19)
(3.12265 0.00497801 8.21356e-20)
(3.1725 0.0458145 1.48899e-19)
(3.11867 -0.0596881 -3.92532e-20)
(3.15154 -0.0160592 -1.10877e-19)
(3.14012 -0.111102 1.71472e-19)
(3.15569 -0.0729011 7.28813e-20)
(3.17299 -0.142247 -1.73917e-19)
(3.17601 -0.115141 -6.1346e-20)
(3.2028 -0.153607 -1.52457e-19)
(3.20009 -0.139104 -1.77467e-19)
(3.21958 -0.151267 2.50822e-19)
(3.2172 -0.146649 2.24602e-19)
(3.22317 -0.14931 0)
(3.21686 -0.145305 0)
(3.47487 0.157819 -1.29e-19)
(3.54844 0.0780977 -5.80976e-20)
(3.35661 0.150037 -1.27842e-19)
(3.40786 0.169532 -1.38358e-19)
(3.28613 0.122194 -5.65355e-20)
(3.3412 0.106868 4.84485e-20)
(3.23578 0.0835488 -1.22975e-19)
(3.28919 0.10031 -1.20489e-19)
(3.19956 0.0338013 -8.03474e-21)
(3.24821 0.0525577 -1.54541e-19)
(3.18341 -0.0208952 -1.57459e-20)
(3.22252 0.00345767 1.05204e-19)
(3.18541 -0.071163 -1.48008e-19)
(3.21279 -0.0469912 -8.25421e-21)
(3.19832 -0.109653 -5.83344e-20)
(3.21523 -0.0904863 4.81409e-20)
(3.21273 -0.133579 1.37854e-19)
(3.22269 -0.121878 1.20066e-19)
(3.22078 -0.144812 0)
(3.22774 -0.139672 -1.20753e-19)
(3.22607 -0.151004 9.18098e-21)
(3.21654 -0.148893 0)
(3.49613 0.122651 -5.92016e-20)
(3.5596 0.0296613 -4.41987e-21)
(3.39974 0.115205 1.75218e-20)
(3.44591 0.137309 8.70235e-20)
(3.34614 0.0957994 1.29034e-21)
(3.39073 0.0762467 -1.96828e-20)
(3.30469 0.0683559 -1.45373e-19)
(3.34901 0.0712916 -5.27991e-20)
(3.27191 0.0296399 -6.86669e-20)
(3.31592 0.0333165 -1.51134e-19)
(3.25032 -0.0154318 1.15504e-19)
(3.28984 -0.00583954 1.28051e-19)
(3.23957 -0.0603752 1.72542e-19)
(3.27185 -0.0489565 -5.09334e-20)
(3.23659 -0.0990116 2.11143e-19)
(3.26111 -0.0892545 1.19275e-19)
(3.23618 -0.12759 -1.09986e-19)
(3.25429 -0.121861 6.19609e-20)
(3.23307 -0.145607 -1.28485e-19)
(3.24713 -0.143892 -1.22822e-19)
(3.2361 -0.159916 -1.88878e-20)
(3.22009 -0.156023 1.18368e-19)
(3.5258 0.0856074 1.3538e-19)
(3.58623 -0.0211503 5.63543e-20)
(3.44262 0.0782178 6.7536e-20)
(3.48708 0.100135 4.32894e-20)
(3.39879 0.0610279 -7.1162e-20)
(3.43661 0.0352601 2.60048e-20)
(3.36477 0.0364711 -4.81319e-20)
(3.40384 0.0299134 -4.11133e-20)
(3.33605 0.00398296 1.62991e-20)
(3.37534 -0.0016711 -4.40462e-21)
(3.312 -0.0335983 -1.97056e-20)
(3.34926 -0.0346893 1.0569e-21)
(3.29291 -0.0725148 -1.18118e-19)
(3.32613 -0.0714983 -4.24347e-20)
(3.27796 -0.108082 -2.15238e-20)
(3.30587 -0.107192 -7.52421e-20)
(3.26497 -0.136736 6.75143e-20)
(3.28762 -0.137811 6.67961e-20)
(3.25089 -0.157007 -2.73177e-20)
(3.26957 -0.160106 3.89594e-20)
(3.24968 -0.177022 -2.72675e-20)
(3.22836 -0.17066 1.61963e-19)
(3.56365 0.0410777 -3.57384e-20)
(3.62131 -0.078179 0)
(3.48604 0.0330572 8.52603e-21)
(3.53088 0.0533883 1.23964e-19)
(3.44687 0.0155269 5.90712e-20)
(3.48062 -0.0143204 -1.6518e-19)
(3.41777 -0.00728568 -5.06799e-22)
(3.45208 -0.0201742 8.49824e-20)
(3.39137 -0.0357445 -2.02768e-20)
(3.42605 -0.0479205 0)
(3.36556 -0.0681485 -1.73213e-20)
(3.39988 -0.0770527 -5.38974e-20)
(3.34056 -0.101739 4.7033e-21)
(3.37282 -0.108898 2.58929e-20)
(3.31659 -0.13318 -2.29534e-21)
(3.34537 -0.139954 -2.62994e-20)
(3.29336 -0.159498 3.98823e-20)
(3.31801 -0.167217 4.04122e-21)
(3.26978 -0.178904 4.48573e-20)
(3.29062 -0.187369 4.42634e-20)
(3.26241 -0.202884 -1.54491e-20)
(3.23981 -0.191754 4.03237e-20)
(3.60096 -0.015061 1.47993e-19)
(3.64812 -0.140851 1.90323e-19)
(3.52643 -0.0213355 9.45009e-21)
(3.5684 -0.0013965 1.46899e-19)
(3.48953 -0.0381957 -1.603e-19)
(3.51855 -0.0708129 -1.20327e-19)
(3.46295 -0.0598256 9.44935e-20)
(3.49282 -0.0768832 1.20329e-19)
(3.43739 -0.0856722 -2.80434e-20)
(3.46804 -0.102356 -1.15971e-19)
(3.40991 -0.114241 -1.88973e-20)
(3.4412 -0.129002 1.19304e-20)
(3.38027 -0.143528 4.6378e-22)
(3.41094 -0.157119 8.86962e-20)
(3.3492 -0.170827 -2.32337e-20)
(3.37764 -0.18407 -1.20514e-19)
(3.31755 -0.1936 3.94852e-21)
(3.34258 -0.20757 2.89745e-20)
(3.28556 -0.210184 -8.87243e-21)
(3.3071 -0.224277 4.44461e-21)
(3.27071 -0.237525 -5.96038e-20)
(3.24663 -0.219597 -2.42604e-19)
(3.63254 -0.0741247 1.93553e-19)
(3.67191 -0.204533 5.7503e-20)
(3.56111 -0.080186 7.43141e-20)
(3.60184 -0.0588206 1.88896e-19)
(3.52577 -0.0971668 1.36464e-19)
(3.55122 -0.130488 6.31218e-22)
(3.5003 -0.118339 -6.52499e-20)
(3.5267 -0.137818 2.1701e-19)
(3.47468 -0.142693 -8.92974e-20)
(3.50209 -0.162309 -7.0389e-20)
(3.44533 -0.168769 1.11839e-19)
(3.474 -0.187669 -3.85679e-20)
(3.4116 -0.194718 -1.04095e-20)
(3.44054 -0.213303 7.08427e-20)
(3.3744 -0.21828 -8.49885e-20)
(3.40196 -0.236983 -1.74262e-19)
(3.33544 -0.237305 3.22196e-20)
(3.36008 -0.256729 2.91185e-20)
(3.29586 -0.250098 -3.92648e-20)
(3.31731 -0.269085 3.10595e-20)
(3.27387 -0.278629 -1.99545e-20)
(3.24826 -0.255704 1.46195e-19)
(3.66399 -0.133247 1.07376e-19)
(3.70284 -0.27265 -2.48222e-21)
(3.59299 -0.140771 1.6852e-19)
(3.63552 -0.119931 8.24629e-20)
(3.55738 -0.158866 4.89635e-20)
(3.58077 -0.193294 -4.19843e-21)
(3.53147 -0.180641 2.43998e-19)
(3.55552 -0.202161 -3.05976e-20)
(3.50475 -0.2047 -2.27828e-20)
(3.52975 -0.226532 1.01658e-19)
(3.47296 -0.229504 -9.15774e-20)
(3.49953 -0.251636 -8.24357e-20)
(3.435 -0.253189 -6.71855e-20)
(3.46239 -0.275943 5.24371e-20)
(3.39187 -0.273558 -8.24996e-20)
(3.41833 -0.29717 -1.50221e-21)
(3.34592 -0.288475 2.77385e-20)
(3.36954 -0.313228 -8.91049e-20)
(3.29924 -0.296096 5.19742e-20)
(3.31941 -0.320281 3.12556e-20)
(3.26826 -0.324626 2.07644e-20)
(3.24576 -0.294527 2.74369e-19)
(3.69301 -0.198858 3.31607e-20)
(3.72484 -0.342471 1.33045e-19)
(3.62104 -0.205394 -8.39778e-20)
(3.66325 -0.183963 1.87679e-19)
(3.58402 -0.223975 -8.17296e-20)
(3.6056 -0.259187 -1.85388e-19)
(3.55672 -0.246497 -1.87369e-19)
(3.57922 -0.269617 -4.14494e-19)
(3.52807 -0.271001 6.07812e-20)
(3.55167 -0.294673 1.58423e-19)
(3.49316 -0.295571 4.7814e-20)
(3.51857 -0.320545 1.33852e-19)
(3.45044 -0.317958 1.24362e-19)
(3.47693 -0.344647 5.40294e-20)
(3.40095 -0.335596 1.18514e-21)
(3.42654 -0.364124 1.99341e-20)
(3.34762 -0.346061 -9.91821e-20)
(3.37002 -0.376373 8.15821e-20)
(3.29349 -0.347366 0)
(3.31203 -0.376993 -1.62103e-19)
(3.25316 -0.373739 -3.20266e-20)
(3.23277 -0.337177 -1.52218e-19)
(3.71694 -0.265608 2.81616e-19)
(3.74231 -0.412265 -3.3088e-19)
(3.64458 -0.272134 1.62559e-19)
(3.68773 -0.248799 5.6976e-19)
(3.60628 -0.291704 -4.94923e-19)
(3.62718 -0.326665 -1.04835e-19)
(3.57709 -0.31563 -1.28599e-19)
(3.59904 -0.339803 -1.43465e-19)
(3.54583 -0.341552 2.34314e-19)
(3.56909 -0.366779 5.55125e-21)
(3.5069 -0.367045 1.4868e-19)
(3.53218 -0.394832 3.13298e-22)
(3.45827 -0.389093 -4.7892e-20)
(3.48469 -0.420044 -8.68319e-21)
(3.40115 -0.404251 9.15616e-20)
(3.42625 -0.438322 8.63415e-21)
(3.33942 -0.409482 5.31934e-20)
(3.36032 -0.446072 9.9889e-20)
(3.27747 -0.402908 -2.0941e-19)
(3.2936 -0.438523 -6.59539e-21)
(3.22734 -0.424829 7.57436e-22)
(3.21156 -0.382586 2.36944e-19)
(3.74031 -0.331777 2.49721e-20)
(3.76338 -0.486652 -3.28926e-19)
(3.66676 -0.339954 4.46838e-19)
(3.71328 -0.316223 1.37302e-19)
(3.62654 -0.361627 2.32445e-19)
(3.64802 -0.396623 4.54045e-19)
(3.59463 -0.388248 -2.49166e-20)
(3.61717 -0.41362 1.78258e-19)
(3.55975 -0.41713 -2.29567e-19)
(3.58391 -0.444097 -9.80653e-20)
(3.51529 -0.445109 -1.58063e-19)
(3.54165 -0.476286 -1.35487e-19)
(3.45867 -0.46782 4.46866e-20)
(3.48587 -0.504159 6.46495e-20)
(3.39162 -0.480272 4.33251e-21)
(3.4164 -0.521353 -1.83961e-19)
(3.31972 -0.47855 5.35886e-20)
(3.3384 -0.522807 1.80037e-20)
(3.24954 -0.461171 1.9581e-19)
(3.26154 -0.503994 -3.06646e-20)
(3.1879 -0.477172 9.03512e-20)
(3.18128 -0.428465 -5.94206e-20)
(3.7637 -0.401664 -1.06597e-19)
(3.7818 -0.562765 -8.2353e-20)
(3.68851 -0.410697 2.98908e-20)
(3.73838 -0.385807 -1.19288e-20)
(3.64591 -0.434935 4.08901e-19)
(3.66902 -0.46978 9.39008e-20)
(3.61073 -0.465615 1.32886e-19)
(3.63543 -0.492346 -3.23229e-21)
(3.57096 -0.499559 0)
(3.59798 -0.529031 -7.6047e-20)
(3.51854 -0.532134 6.61611e-20)
(3.54784 -0.568341 0)
(3.45048 -0.55643 -1.34411e-19)
(3.47955 -0.600564 7.41753e-20)
(3.36997 -0.565004 -2.08374e-19)
(3.39427 -0.615657 -6.47171e-20)
(3.28563 -0.553282 -5.76996e-20)
(3.30075 -0.607095 1.53543e-19)
(3.20684 -0.521524 -1.28768e-19)
(3.213 -0.572194 -2.31584e-19)
(3.13433 -0.526912 9.96266e-20)
(3.13537 -0.47258 -1.43408e-19)
(3.78751 -0.473993 6.46692e-21)
(3.80032 -0.641328 7.99408e-20)
(3.71128 -0.484553 4.9931e-20)
(3.7658 -0.457171 3.90528e-19)
(3.66692 -0.512727 -3.07696e-19)
(3.69359 -0.546486 -1.90674e-19)
(3.62814 -0.550126 -2.06495e-19)
(3.65765 -0.578435 -3.24528e-20)
(3.58129 -0.592707 -8.40128e-20)
(3.61423 -0.626528 -9.39262e-20)
(3.51643 -0.632741 0)
(3.55107 -0.677453 0)
(3.4311 -0.658788 1.53639e-19)
(3.46275 -0.714999 1.53428e-19)
(3.33219 -0.660211 2.45216e-19)
(3.35461 -0.724254 -1.79214e-21)
(3.23324 -0.632963 1.1079e-20)
(3.24184 -0.698686 6.0579e-20)
(3.14704 -0.581238 -3.26452e-20)
(3.14363 -0.64067 -3.14098e-20)
(3.0639 -0.569957 8.36228e-20)
(3.0786 -0.512399 -6.89242e-20)
(3.81454 -0.548038 4.41313e-19)
(3.82236 -0.722475 4.57982e-19)
(3.73923 -0.561519 3.9425e-19)
(3.80133 -0.52993 2.22246e-19)
(3.69482 -0.596872 4.03281e-20)
(3.72952 -0.628419 -1.46667e-20)
(3.65155 -0.64656 6.90092e-20)
(3.69096 -0.678507 9.10739e-20)
(3.59261 -0.703944 -1.58158e-20)
(3.63631 -0.747363 3.71926e-20)
(3.50659 -0.754571 1.36723e-19)
(3.54918 -0.814869 -8.71244e-20)
(3.39477 -0.780011 5.04942e-20)
(3.42826 -0.855125 1.64902e-19)
(3.2714 -0.767113 -1.74437e-19)
(3.28827 -0.849376 -2.14301e-19)
(3.15688 -0.715524 7.82472e-21)
(3.15385 -0.79528 3.27455e-20)
(3.0665 -0.636693 3.54511e-20)
(3.04851 -0.704951 1.03963e-20)
(2.97533 -0.604267 5.53307e-20)
(3.00637 -0.547684 -8.48758e-20)
(3.85338 -0.627236 2.33527e-19)
(3.8582 -0.806582 -1.26703e-19)
(3.78318 -0.645095 -6.80121e-20)
(3.86259 -0.598351 -2.88105e-19)
(3.74042 -0.693768 0)
(3.78855 -0.723054 1.3459e-19)
(3.68835 -0.767078 3.96291e-20)
(3.74605 -0.810845 3.87109e-20)
(3.60475 -0.847728 -4.09513e-20)
(3.66386 -0.91358 1.31278e-19)
(3.48175 -0.909051 -7.26416e-20)
(3.53185 -0.99725 -1.67093e-19)
(3.3307 -0.925189 1.82332e-20)
(3.36124 -1.02804 7.49682e-20)
(3.17759 -0.884673 -3.46978e-20)
(3.18164 -0.989557 -9.21877e-20)
(3.04973 -0.796483 6.72362e-20)
(3.02779 -0.890675 4.82868e-20)
(2.96219 -0.683101 1.9865e-20)
(2.92373 -0.757639 -2.32194e-20)
(2.86876 -0.623246 3.42635e-20)
(2.9152 -0.569062 2.01261e-21)
(3.91676 -0.689446 -6.13924e-19)
(3.93345 -0.827092 -3.61807e-19)
(3.84891 -0.718722 -2.56721e-19)
(3.93554 -0.69251 -2.17112e-19)
(3.81624 -0.81162 1.81025e-19)
(3.8858 -0.879194 1.11864e-19)
(3.73727 -0.93149 1.19326e-19)
(3.78767 -1.04014 1.29721e-19)
(3.60371 -1.04242 2.01068e-20)
(3.64234 -1.17353 -4.51568e-20)
(3.42202 -1.10575 -4.66975e-20)
(3.45264 -1.24752 1.45059e-20)
(3.22046 -1.09376 9.31143e-20)
(3.2288 -1.23617 2.69295e-20)
(3.03801 -1.00573 -2.5223e-20)
(3.01434 -1.13657 -4.40683e-20)
(2.90538 -0.866407 1.03424e-20)
(2.85402 -0.973341 5.36863e-20)
(2.83255 -0.711008 -3.5878e-20)
(2.76617 -0.787693 -1.52593e-20)
(2.74555 -0.614487 2.54403e-20)
(2.81745 -0.577339 2.35583e-20)
(3.97392 -0.711865 0)
(3.44271 -0.790219 0)
(4.03158 -0.936302 3.67931e-20)
(3.65063 -1.13504 0)
(3.89539 -1.10012 1.0876e-19)
(3.50093 -1.32138 1.3041e-19)
(3.71986 -1.24965 -9.48316e-20)
(3.36545 -1.46496 3.84182e-21)
(3.50867 -1.35081 -1.08503e-19)
(3.22274 -1.54643 -1.16289e-19)
(3.27067 -1.36755 3.90174e-20)
(3.06016 -1.54695 3.58077e-20)
(3.03214 -1.28701 -1.3656e-19)
(2.88721 -1.454 3.52554e-20)
(2.83789 -1.12334 -4.70691e-20)
(2.72556 -1.26617 -9.21349e-21)
(2.71964 -0.916417 5.50489e-20)
(2.61235 -1.02309 2.86455e-20)
(2.67687 -0.713106 5.10647e-20)
(2.57321 -0.781537 2.02307e-20)
(2.60949 -0.574499 -1.89885e-20)
(2.6908 -0.543465 7.30471e-20)
(3.24205 -1.22803 0)
(2.65659 -2.50182 -1.39065e-19)
(3.14271 -1.42007 7.69546e-20)
(2.80183 -1.68311 0)
(3.03133 -1.5803 -1.47058e-19)
(2.72074 -1.74306 1.71637e-19)
(2.90801 -1.67681 -6.28322e-20)
(2.67564 -1.75782 -1.67699e-19)
(2.79207 -1.68129 -7.79475e-20)
(2.62926 -1.7062 2.64887e-20)
(2.68209 -1.5936 7.04037e-20)
(2.56454 -1.6193 -1.33073e-20)
(2.57892 -1.41534 7.20462e-21)
(2.48976 -1.47265 6.18832e-21)
(2.49712 -1.16937 0)
(2.41411 -1.25219 0)
(2.46628 -0.903403 -4.6028e-21)
(2.36321 -0.976334 1.05053e-19)
(2.49175 -0.665463 -1.68169e-20)
(2.37835 -0.709412 -1.94498e-20)
(2.47103 -0.494475 -6.21563e-20)
(2.55587 -0.49462 -8.13066e-21)
(5.75693 -1.60274 1.23747e-19)
(6.44964 -1.18583 1.22205e-20)
(5.38082 -1.23563 -1.737e-20)
(6.03333 -1.03187 1.05841e-19)
(5.11082 -0.961844 -1.61301e-19)
(5.69189 -0.87983 -8.2741e-20)
(4.85217 -0.686704 -2.60396e-20)
(5.36272 -0.677078 -5.64058e-22)
(4.60707 -0.409005 -5.47031e-22)
(5.0365 -0.435444 -4.47718e-21)
(4.37889 -0.161226 9.57286e-21)
(4.72107 -0.170034 0)
(4.15921 0.0320651 1.19252e-20)
(4.43038 0.065713 1.55507e-21)
(3.95231 0.178962 -3.95781e-21)
(4.17048 0.238636 0)
(3.75583 0.288173 1.14434e-20)
(3.92444 0.361475 3.71041e-20)
(3.57039 0.360386 9.57858e-21)
(3.69661 0.440322 -2.20867e-20)
(3.5005 0.489013 0)
(3.39255 0.40047 8.1975e-20)
(6.57238 -0.721013 4.15256e-21)
(6.78451 -0.518987 1.04821e-20)
(6.22185 -0.730002 2.38965e-20)
(6.58504 -0.493121 6.29631e-20)
(5.87472 -0.642578 -5.2562e-20)
(6.29093 -0.509816 1.64013e-21)
(5.51154 -0.461112 -2.88266e-20)
(5.95144 -0.404842 -2.10575e-20)
(5.14534 -0.208894 2.70245e-21)
(5.5778 -0.216079 2.32232e-21)
(4.79306 0.0632861 -3.35645e-20)
(5.18899 0.0414605 0)
(4.4699 0.280901 -4.21735e-20)
(4.8082 0.306709 1.56844e-21)
(4.17438 0.4208 2.82271e-20)
(4.45581 0.505472 7.58709e-20)
(3.89529 0.508938 -4.80075e-20)
(4.10953 0.628468 -6.17007e-20)
(3.64004 0.565492 -3.34092e-20)
(3.80386 0.686587 -7.41915e-20)
(3.54612 0.720092 3.14715e-20)
(3.40053 0.601473 1.14723e-19)
(6.82331 -0.260327 3.8669e-20)
(6.88448 -0.238464 -2.57054e-21)
(6.63052 -0.311544 -5.25401e-20)
(6.81342 -0.143088 4.9151e-20)
(6.36426 -0.300263 -3.44354e-20)
(6.6112 -0.198246 -6.02952e-20)
(6.02765 -0.199646 4.45951e-23)
(6.3364 -0.14299 2.23695e-20)
(5.64865 -0.00362093 0)
(5.99355 -0.00507483 5.3824e-21)
(5.24882 0.268544 5.11559e-20)
(5.59987 0.225194 -4.02941e-21)
(4.84671 0.544035 1.30069e-19)
(5.17561 0.521041 -7.04145e-20)
(4.4446 0.7407 -1.74191e-19)
(4.7453 0.798302 1.33755e-19)
(4.06813 0.832288 -1.4128e-19)
(4.32561 0.971483 -1.24672e-19)
(3.73695 0.843578 4.12399e-20)
(3.93256 1.01746 -3.39217e-20)
(3.58906 1.0001 9.73405e-21)
(3.4358 0.850612 2.44549e-20)
(6.90824 -0.0499427 -4.97387e-21)
(6.92856 -0.125289 1.59684e-20)
(6.79586 -0.071625 -2.61304e-20)
(6.91136 0.033991 -2.45373e-21)
(6.60696 -0.0587678 -9.70525e-21)
(6.76834 -0.0166666 -4.88841e-20)
(6.3326 0.0162587 2.90666e-20)
(6.55331 0.0318021 -6.45158e-20)
(5.98697 0.176903 -2.13652e-20)
(6.25881 0.144827 9.35647e-20)
(5.58431 0.432237 -6.22493e-20)
(5.88868 0.347707 -2.13856e-20)
(5.14503 0.749129 8.2131e-20)
(5.45333 0.646083 -3.19619e-20)
(4.69424 1.03016 -1.15181e-20)
(4.97307 0.991456 -6.54381e-20)
(4.25072 1.19205 -6.15885e-20)
(4.4906 1.26782 5.87535e-20)
(3.8222 1.21131 -1.38808e-19)
(4.01963 1.39215 -6.21266e-21)
(3.59654 1.36778 8.54245e-20)
(3.43835 1.14047 -1.25075e-20)
(6.95996 0.0414015 1.27714e-19)
(6.96225 -0.0849891 1.73703e-20)
(6.88598 0.0419115 -7.05218e-20)
(6.96847 0.1178 1.29115e-20)
(6.73898 0.0676578 -9.85134e-20)
(6.85433 0.0692929 -1.31391e-19)
(6.51051 0.138177 -1.00715e-20)
(6.67658 0.121111 -1.23989e-19)
(6.20214 0.27963 6.55617e-20)
(6.42194 0.220083 2.39894e-19)
(5.81313 0.515034 1.54384e-20)
(6.0821 0.398084 -3.90905e-20)
(5.35102 0.84393 -5.49258e-20)
(5.65192 0.678658 -1.31127e-19)
(4.84258 1.19991 -1.1887e-19)
(5.13802 1.05814 -1.61506e-19)
(4.32903 1.46204 5.12784e-20)
(4.5786 1.43253 2.184e-20)
(3.84655 1.56396 -1.61036e-20)
(4.03969 1.66954 -1.34085e-19)
(3.54623 1.71936 -3.69852e-20)
(3.41447 1.49382 1.31635e-21)
(6.99103 0.0826297 1.01566e-20)
(6.98153 -0.0742628 6.88469e-21)
(6.93879 0.0914678 -1.38156e-19)
(6.99897 0.151368 5.43339e-20)
(6.81468 0.121229 -1.64922e-19)
(6.90054 0.0954865 -5.82197e-20)
(6.61704 0.186131 1.06823e-19)
(6.74577 0.146978 2.63421e-20)
(6.34152 0.309971 1.11318e-19)
(6.52123 0.230727 9.56416e-20)
(5.97502 0.520552 -1.65346e-19)
(6.21232 0.381796 -5.31357e-20)
(5.5088 0.837705 -5.99098e-20)
(5.80116 0.630425 -5.80236e-20)
(4.95577 1.23799 8.74392e-20)
(5.27406 1.0008 2.8848e-19)
(4.36563 1.60031 -1.04412e-19)
(4.65179 1.45179 -3.61824e-19)
(3.80788 1.81363 -2.27836e-19)
(4.02613 1.80278 -1.17447e-19)
(3.44936 1.95803 -6.01971e-20)
(3.3599 1.79959 -4.16604e-20)
(6.99862 0.0922139 9.6066e-20)
(6.97547 -0.0750917 1.9921e-20)
(6.96106 0.100275 8.4819e-20)
(7.00139 0.150796 1.69173e-20)
(6.85128 0.125129 1.17766e-19)
(6.91409 0.0807072 -4.68051e-21)
(6.67562 0.178425 1.40593e-20)
(6.77537 0.126546 1.15465e-19)
(6.42831 0.280355 -6.26878e-20)
(6.57413 0.190153 -5.68098e-20)
(6.08967 0.458308 8.32578e-20)
(6.2944 0.309577 0)
(5.63717 0.743133 2.90337e-19)
(5.91205 0.514776 2.55727e-19)
(5.0577 1.14885 -9.62951e-20)
(5.3967 0.840712 2.39147e-19)
(4.39766 1.59219 -4.01721e-19)
(4.73407 1.31038 -2.70181e-19)
(3.7497 1.91147 1.07315e-19)
(4.01248 1.77343 0)
(3.35332 2.03934 1.208e-19)
(3.21944 2.03232 1.33682e-19)
(6.98678 0.0715257 -1.46169e-20)
(6.95609 -0.0907525 1.47412e-20)
(6.95639 0.0759502 -7.0603e-20)
(6.98134 0.123283 -1.95801e-20)
(6.85583 0.0908485 -3.34069e-20)
(6.89909 0.0346394 -8.88869e-20)
(6.69628 0.127721 6.35134e-20)
(6.77134 0.0710946 4.71111e-20)
(6.47241 0.202995 0)
(6.58779 0.109828 3.30961e-20)
(6.16294 0.340866 1.44865e-19)
(6.33345 0.192885 0)
(5.73803 0.575004 2.20102e-19)
(5.98349 0.346011 -2.08263e-19)
(5.16257 0.94003 2.08548e-19)
(5.49948 0.606876 -3.00348e-19)
(4.44961 1.41696 2.19919e-19)
(4.83224 1.02311 6.43553e-19)
(3.69904 1.83073 0)
(4.02754 1.57181 -2.32285e-19)
(3.25861 1.94386 0)
(3.07675 2.05003 -1.51463e-18)
(6.95815 0.0352448 -4.10532e-21)
(6.92496 -0.116196 2.34823e-21)
(6.92803 0.0290826 -3.0535e-20)
(6.93617 0.0806651 -9.07166e-21)
(6.83159 0.0287466 -3.44049e-20)
(6.85737 -0.0335554 -7.22305e-21)
(6.68321 0.0445956 2.34061e-20)
(6.73698 -0.0112741 -2.89907e-20)
(6.47764 0.0885605 3.67424e-20)
(6.5661 -0.00191763 9.71979e-20)
(6.19503 0.180355 -3.31946e-19)
(6.33228 0.0406695 -3.70992e-20)
(5.80542 0.350988 -7.41558e-19)
(6.01364 0.13537 -2.02037e-19)
(5.26158 0.645093 -3.37432e-20)
(5.57348 0.31588 -3.8048e-19)
(4.52637 1.09883 2.77608e-19)
(4.9472 0.630534 6.2227e-19)
(3.69077 1.58566 -2.5822e-19)
(4.09385 1.16914 -5.313e-19)
(3.22496 1.64892 2.18857e-19)
(3.02598 1.90038 -1.15182e-18)
(6.90641 -0.0209765 9.59521e-21)
(6.85441 -0.154959 -6.61845e-21)
(6.87723 -0.0332508 2.96749e-20)
(6.87789 0.0133354 7.84065e-21)
(6.77912 -0.0529366 7.32531e-21)
(6.79002 -0.114342 2.35307e-20)
(6.63853 -0.0639115 3.64039e-20)
(6.67063 -0.115525 -2.07073e-20)
(6.4469 -0.0557934 3.74226e-20)
(6.51012 -0.140031 8.13791e-20)
(6.18678 -0.0144784 1.16521e-19)
(6.29247 -0.140823 1.39099e-20)
(5.83255 0.0840515 1.8136e-19)
(6.0003 -0.106903 2.37012e-19)
(5.33762 0.281626 1.39349e-19)
(5.60479 -0.0132252 2.2638e-19)
(4.62508 0.639283 -7.04023e-20)
(5.04592 0.18454 -1.8339e-19)
(3.73668 1.13066 -3.76387e-21)
(4.20847 0.586843 1.53966e-20)
(3.24172 1.19537 3.50508e-19)
(3.04639 1.47315 1.27672e-18)
(6.82308 -0.0693993 -6.90868e-21)
(6.75456 -0.217472 -2.47271e-21)
(6.7944 -0.105612 0)
(6.77936 -0.0704878 -4.11324e-21)
(6.69336 -0.156454 0)
(6.68049 -0.202425 3.58008e-22)
(6.56121 -0.195609 1.53939e-20)
(6.57551 -0.244625 -2.80533e-22)
(6.38096 -0.225832 6.49126e-20)
(6.42263 -0.303369 1.3463e-20)
(6.13985 -0.23635 1.12024e-19)
(6.21819 -0.34992 2.0017e-20)
(5.81846 -0.21094 2.92116e-19)
(5.94746 -0.375743 3.41073e-20)
(5.37756 -0.11828 -3.32354e-20)
(5.59082 -0.36329 2.27471e-19)
(4.73066 0.105276 -1.72575e-19)
(5.10779 -0.275356 -4.57762e-19)
(3.84111 0.541099 4.11765e-19)
(4.38474 -0.0703188 3.15375e-19)
(3.38717 0.566505 1.31835e-19)
(3.03383 0.976458 -9.81988e-19)
(6.70767 -0.13864 -1.37703e-20)
(6.63102 -0.286388 -1.6605e-20)
(6.6752 -0.203155 -4.21954e-21)
(6.63615 -0.166273 -4.13591e-21)
(6.57635 -0.273626 4.8421e-22)
(6.54934 -0.309116 3.59869e-22)
(6.45108 -0.349702 -3.55103e-21)
(6.44263 -0.394985 -4.20047e-21)
(6.28106 -0.422403 -3.20697e-20)
(6.30143 -0.491905 -4.08764e-21)
(6.055 -0.484634 -5.99083e-20)
(6.11276 -0.58743 -3.15575e-20)
(5.75834 -0.525406 -4.98313e-20)
(5.86445 -0.672149 -2.69797e-20)
(5.36984 -0.526553 -1.04702e-19)
(5.54145 -0.731587 4.32197e-21)
(4.85063 -0.449261 -9.9418e-20)
(5.11841 -0.739644 -1.05795e-20)
(4.04409 -0.145171 0)
(4.57457 -0.685242 -5.54895e-21)
(3.68324 -0.286251 3.94745e-21)
(3.1343 0.347128 0)
(6.55675 -0.217428 -2.05116e-20)
(6.47159 -0.352518 -1.86715e-20)
(6.51851 -0.308075 0)
(6.45576 -0.274019 -2.68223e-20)
(6.42436 -0.412739 -3.52666e-21)
(6.374 -0.433199 2.08171e-20)
(6.30576 -0.526923 -4.70699e-21)
(6.27335 -0.562605 -1.27647e-20)
(6.14967 -0.645948 -1.7781e-22)
(6.14513 -0.704796 -1.61207e-22)
(5.94401 -0.762852 0)
(5.97663 -0.852621 3.1015e-20)
(5.67682 -0.867455 2.24803e-20)
(5.75708 -0.997505 -2.39286e-20)
(5.33247 -0.942907 9.87881e-20)
(5.47627 -1.12607 2.52202e-20)
(4.88445 -0.958875 8.31192e-20)
(5.11933 -1.21784 -1.76342e-20)
(4.27403 -0.894172 -1.42457e-21)
(4.65266 -1.24794 -5.56909e-21)
(3.99163 -1.15343 2.41075e-19)
(3.36981 -0.561036 2.82324e-18)
(6.36089 -0.302351 -2.41783e-20)
(6.25849 -0.423411 -6.81379e-20)
(6.31683 -0.425207 -2.68908e-20)
(6.22761 -0.393466 2.53096e-20)
(6.22878 -0.567457 1.50146e-20)
(6.15109 -0.574853 -1.84899e-21)
(6.12117 -0.725173 -9.75594e-21)
(6.06098 -0.748915 1.261e-20)
(5.98357 -0.894238 2.78157e-20)
(5.95111 -0.940436 -3.77782e-21)
(5.80503 -1.06824 1.65268e-20)
(5.80933 -1.14326 4.48445e-20)
(5.57659 -1.23747 -2.65338e-20)
(5.62639 -1.3495 -8.40095e-20)
(5.28803 -1.38682 -7.18171e-20)
(5.39557 -1.54657 -5.68219e-20)
(4.92126 -1.4949 -8.94008e-20)
(5.10603 -1.71569 4.4058e-21)
(4.4432 -1.52533 2.11237e-19)
(4.73685 -1.83425 -1.1682e-19)
(4.26788 -1.88311 -2.60419e-19)
(3.6828 -1.38252 2.4198e-18)
(6.1151 -0.401358 2.60519e-20)
(5.99808 -0.503028 -1.1534e-19)
(6.06488 -0.557676 3.69657e-20)
(5.94778 -0.525311 1.08805e-19)
(5.98476 -0.740148 -1.46327e-21)
(5.87517 -0.734978 -6.64454e-20)
(5.89328 -0.944611 2.5996e-20)
(5.79965 -0.955978 7.94647e-20)
(5.78111 -1.16626 4.62266e-21)
(5.71515 -1.1998 -3.77685e-21)
(5.63777 -1.39847 -3.84849e-20)
(5.60863 -1.45894 -3.59919e-21)
(5.45586 -1.63234 -1.28252e-19)
(5.47048 -1.72519 -6.01247e-20)
(5.22812 -1.85463 1.29176e-20)
(5.29616 -1.98588 -4.90701e-20)
(4.94198 -2.04801 -5.86474e-21)
(5.07717 -2.22365 -2.03236e-19)
(4.57675 -2.18817 -4.41064e-19)
(4.79868 -2.41957 2.25214e-19)
(4.44007 -2.56067 -3.5093e-19)
(4.01429 -2.26535 2.1788e-20)
(5.81149 -0.511897 -1.02744e-21)
(5.67774 -0.597332 6.91133e-20)
(5.7544 -0.706161 2.99332e-20)
(5.60459 -0.671663 2.18889e-19)
(5.68542 -0.933027 -8.1159e-22)
(5.53635 -0.915256 -4.35866e-20)
(5.6177 -1.18751 5.82722e-20)
(5.48106 -1.18512 5.3924e-20)
(5.54171 -1.46299 1.18267e-21)
(5.43214 -1.48326 -9.27959e-20)
(5.44566 -1.75136 1.46187e-21)
(5.37399 -1.79992 -4.21284e-20)
(5.32156 -2.04353 -4.76828e-21)
(5.29351 -2.12484 -3.56153e-20)
(5.16259 -2.32522 -2.56696e-19)
(5.1883 -2.44288 2.41682e-20)
(4.95805 -2.57888 -1.29183e-20)
(5.05124 -2.73699 -9.51848e-20)
(4.69099 -2.78501 3.489e-19)
(4.86827 -2.98855 1.86811e-19)
(4.62195 -3.17712 -1.37233e-19)
(4.24983 -2.93823 0)
(5.44861 -0.634512 2.72758e-19)
(5.28766 -0.726231 -1.4579e-20)
(5.38739 -0.869706 1.78181e-19)
(5.18794 -0.839544 7.38722e-20)
(5.33546 -1.14273 -6.89919e-22)
(5.11687 -1.10346 1.23308e-19)
(5.29995 -1.44853 -8.40575e-20)
(5.07446 -1.40007 -7.65647e-22)
(5.26799 -1.78129 -1.39149e-19)
(5.0523 -1.72549 -7.012e-20)
(5.22245 -2.13198 -7.52654e-20)
(5.03597 -2.06886 1.40878e-19)
(5.15647 -2.48514 -4.03639e-20)
(5.01271 -2.41713 -7.87685e-20)
(5.07128 -2.82409 1.8631e-19)
(4.97485 -2.7554 5.64224e-20)
(4.95969 -3.12851 9.32819e-20)
(4.91764 -3.06578 1.72713e-19)
(4.80291 -3.37106 -2.64971e-19)
(4.83234 -3.32472 -1.28672e-19)
(4.69212 -3.51366 -3.05029e-19)
(4.51878 -3.55379 3.46238e-19)
(5.02862 -0.780507 -1.40591e-19)
(4.75476 -0.852578 -2.80892e-19)
(4.93288 -1.04633 2.77852e-20)
(4.67453 -0.967956 1.30398e-19)
(4.86551 -1.33378 1.35327e-19)
(4.62021 -1.21845 -1.25433e-19)
(4.82845 -1.6444 1.98381e-20)
(4.58827 -1.50228 1.63051e-19)
(4.81441 -1.97474 2.39225e-19)
(4.57769 -1.80993 -5.21402e-20)
(4.81495 -2.3139 2.58327e-19)
(4.58338 -2.13075 2.0204e-19)
(4.81586 -2.64733 2.80584e-20)
(4.59633 -2.45272 3.70582e-21)