/*--------------------------------*- C++ -*----------------------------------*\
| =========                 |                                                 |
| \\      /  F ield         | OpenFOAM: The Open Source CFD Toolbox           |
|  \\    /   O peration     | Version:  3.0.1                                 |
|   \\  /    A nd           | Web:      www.OpenFOAM.org                      |
|    \\/     M anipulation  |                                                 |
\*---------------------------------------------------------------------------*/
FoamFile
{
    version     2.0;
    format      ascii;
    class       volScalarField;
    location    "0.5529";
    object      epsilon;
}
// * * * * * * * * * * * * * * * * * * * * * * * * * * * * * * * * * * * * * //

dimensions      [0 2 -3 0 0 0 0];

internalField   nonuniform List<scalar> 
21246
(
1221.88
535.954
176.816
71.7437
28.3868
11.1335
4.8958
2.6241
1.70989
1.28578
1.05562
1328.34
660.11
288.411
123.787
50.0311
17.0927
6.34023
3.03229
1.87392
1.38712
1.14447
1025.96
575.642
322.492
161.9
74.203
29.0849
10.1917
3.74483
2.07736
1.49306
1.2477
619.349
463.381
312.175
180.874
93.7518
42.0745
16.2891
5.77507
2.50077
1.59986
1.33092
312.575
356.72
281.508
187.009
108.821
55.0114
24.0304
9.22236
3.60573
1.86388
1.40565
139.013
263.492
244.205
183.658
119.187
67.2043
32.9627
14.1492
5.66113
2.51529
1.56983
74.9488
195.08
208.595
173.498
123.9
77.1106
42.0434
20.1897
8.77408
3.77314
1.96198
66.2722
141.639
176.675
159.391
123.245
83.4527
49.8951
26.5168
12.6978
5.71601
2.72254
55.3311
92.1509
142.669
142.83
118.568
86.0118
55.5395
32.203
16.9085
8.20784
3.90997
38.497
50.3718
102.183
121.714
110.105
84.9103
58.4548
36.4762
20.7789
10.9163
5.44045
27.1739
29.8362
64.6021
95.331
97.1621
80.0123
58.2957
38.7291
23.6788
13.3927
7.0808
20.2104
18.9058
37.6427
67.7678
80.4307
71.5869
55.0961
38.6924
25.165
15.2043
8.53627
16.2736
13.5779
22.641
44.2768
62.3628
60.7442
49.4567
36.5779
25.1399
16.0941
9.53917
13.3035
10.4184
15.3649
27.6093
44.9192
48.8998
42.2489
32.8773
23.7724
16.0046
9.90601
10.8199
8.18766
10.9027
18.1255
29.804
37.2389
34.3565
28.1495
21.3492
15.0064
9.61532
8.86357
6.5581
7.9052
12.3513
19.442
26.3198
26.5698
22.9598
18.2405
13.3183
8.75884
7.24943
5.33851
5.87791
8.56076
12.7248
17.5252
19.3744
17.8051
14.8425
11.2465
7.55465
6.14672
4.50836
4.49915
6.04466
8.37795
11.3205
13.3467
13.2
11.6523
9.24837
6.41679
5.51074
4.01338
3.58622
4.41969
5.66137
7.37918
9.07709
9.78603
9.34786
7.99375
5.8557
5.78417
4.00395
3.12194
3.53535
4.23223
5.37839
6.91593
8.15658
8.55374
8.11173
6.55306
8.01532
4.43938
3.12313
3.33362
3.92178
5.13455
7.00941
8.60221
9.50849
9.72002
8.91313
11.1064
5.25231
3.4864
3.78967
4.80459
6.56636
8.47602
9.6267
9.72246
9.27309
8.56375
13.7004
5.74049
5.04029
5.97513
7.67103
9.58305
10.44
9.99473
8.89554
7.81786
6.98808
36.3079
19.8901
15.8947
14.6615
13.9628
12.6802
10.9137
9.09527
7.58265
6.55314
5.89762
1331.9
329.835
140.41
56.1237
22.0955
9.19486
4.34996
2.44024
1.61506
1.21016
0.975642
1053.21
280.498
121.109
53.8905
23.1364
10.0721
4.77354
2.60102
1.65785
1.20614
0.956101
857.891
265.287
116.464
56.8146
26.3793
11.8746
5.5746
2.91785
1.7675
1.23536
0.95915
650.774
223.074
103.812
56.3785
29.272
14.2134
6.77525
3.42605
1.9517
1.28844
0.967226
497.8
180.008
89.9382
52.1733
30.2114
16.8267
8.83225
4.4873
2.38952
1.44236
1.01685
386.949
144.202
77.6932
47.8496
29.8302
18.3009
10.7918
6.0405
3.26994
1.82036
1.13551
300.63
115.687
67.0244
43.6502
29.1618
19.5053
12.611
7.60354
4.25
2.29742
1.3144
229.815
92.3014
57.4172
39.5121
28.2027
20.4216
14.3695
9.3436
5.49367
2.98908
1.61537
171.433
72.6704
48.4944
35.2851
26.8799
20.9794
15.9806
11.1913
6.98469
3.94112
2.14936
124.517
56.3214
40.0735
30.8277
25.0535
21.0234
17.2864
13.0264
8.65959
5.11876
2.85529
87.8955
42.5167
32.1469
26.2227
22.7187
20.4299
18.091
14.6741
10.4104
6.47038
3.70926
60.5223
31.1582
24.9671
21.6831
20.0014
19.1452
18.1397
15.8722
12.136
7.93658
4.67197
42.1066
22.6615
19.1181
17.6958
17.313
17.4864
17.4958
16.2988
13.3899
9.44656
5.85005
31.0279
17.0837
14.9434
14.6266
15.0186
15.7962
16.4522
16.0922
14.0253
10.5901
6.96569
25.1937
13.9397
12.3721
12.5708
13.2938
14.299
15.2512
15.4388
14.103
11.2685
7.8457
22.7023
12.5553
11.0583
11.3647
12.0917
13.0389
14.0092
14.4813
13.7212
11.4841
8.42415
22.1714
12.2664
10.5702
10.7271
11.2446
11.9438
12.74
13.2969
12.9694
11.3036
8.6911
22.8717
12.6048
10.5668
10.4253
10.6101
10.9483
11.448
11.9489
11.9356
10.8043
8.70182
24.5944
13.3568
10.881
10.3602
10.1526
10.0701
10.1945
10.5262
10.7013
10.0492
8.44786
27.5214
14.5307
11.5091
10.56
9.93685
9.40714
9.1044
9.16665
9.38464
9.10186
7.99668
32.0994
16.293
12.5584
11.1321
10.0778
9.089
8.32831
8.03667
8.1396
8.07307
7.3716
40.0027
19.0558
14.3565
12.3014
10.7194
9.22677
7.98706
7.28276
7.12543
7.08116
6.65732
51.5132
24.7283
17.6358
14.3045
11.8638
9.77913
8.08587
6.97756
6.48722
6.30496
6.01956
106.693
34.905
22.7472
16.677
13.0918
10.5513
8.59519
7.19148
6.36105
5.94166
5.62997
1583.7
523.945
228.667
98.4481
38.3347
13.4754
4.55731
1.53177
0.518988
0.183
0.0722163
1219.46
339.877
169.707
79.8068
33.531
12.7546
4.53057
1.54399
0.51849
0.178635
0.0681802
762.51
267.72
142.408
74.322
33.9974
13.6951
5.02393
1.72757
0.572794
0.192667
0.0726436
526.458
210.508
122.274
69.435
34.3056
14.6579
5.60721
1.98843
0.671787
0.226152
0.0836051
378.429
155.297
94.094
59.0532
32.502
15.2094
6.15899
2.2497
0.766323
0.251989
0.0874019
304.588
122.543
75.4631
48.5021
27.8295
13.7198
5.82255
2.19961
0.769319
0.260816
0.0950867
258.179
101.247
62.783
40.6524
23.572
11.8455
5.19026
2.04262
0.744936
0.261316
0.0964771
225.844
86.3061
53.4141
34.584
20.1702
10.2637
4.59092
1.85864
0.700736
0.254748
0.100268
202.556
75.2784
46.2938
29.8815
17.4479
8.94015
4.05736
1.68119
0.65428
0.247016
0.100717
184.945
66.9972
40.883
26.306
15.3599
7.90302
3.62394
1.52915
0.611022
0.237831
0.0984244
170.844
60.5289
36.6854
23.561
13.7637
7.10655
3.28477
1.40551
0.572765
0.227699
0.0973251
160.169
55.2951
33.3251
21.388
12.5146
6.48805
3.0212
1.3081
0.541861
0.219604
0.0959245
152.679
51.1579
30.6685
19.6972
11.5623
6.02576
2.82739
1.23744
0.520147
0.214549
0.095024
147.366
48.0469
28.6473
18.4477
10.8878
5.71275
2.70192
1.19402
0.507889
0.212073
0.0954388
144.597
45.6504
27.0753
17.5161
10.4226
5.51983
2.63559
1.17596
0.505252
0.21283
0.0961652
144.454
43.9247
25.9232
16.8868
10.1635
5.4503
2.63241
1.18609
0.513853
0.217485
0.0983285
146.703
42.9652
25.2244
16.5879
10.1416
5.52808
2.70674
1.23144
0.536666
0.227068
0.1022
152.634
43.1526
25.057
16.651
10.4011
5.77898
2.87695
1.32245
0.578895
0.243903
0.108856
163.349
44.8198
25.5281
17.0741
10.949
6.29381
3.22172
1.50518
0.662582
0.27809
0.122197
181.064
48.5037
26.901
17.9893
11.848
7.09526
3.78544
1.82731
0.821727
0.349664
0.151453
210.492
55.2799
29.6093
19.6083
13.1984
8.24803
4.63628
2.35837
1.11103
0.493138
0.216146
263.409
66.1608
34.2266
22.1684
15.1001
9.81573
5.85701
3.2025
1.62918
0.78262
0.364062
361.54
83.8248
41.2854
26.1715
17.9103
12.0517
7.65494
4.5564
2.56082
1.37232
0.709912
584.284
89.2895
48.5686
30.1293
21.7035
15.5756
10.7473
7.06682
4.4439
2.69023
1.58168
1611.02
903.48
419.837
190.715
76.2246
23.2789
7.1308
2.16201
0.694054
0.234266
0.0886918
1662.14
968.944
576.828
312.849
153.445
62.7788
19.7612
4.02803
1.10638
0.35245
0.125756
793.519
798.431
592.02
376.292
213.457
104.348
41.0547
11.2642
2.04661
0.567846
0.196546
499.321
829.986
621.512
421.041
259.276
141.06
64.5963
22.5873
5.38734
1.01415
0.322183
543.826
650.788
650.066
464.451
298.844
173.434
87.718
36.175
11.0656
2.46387
0.559643
526.366
500.245
643.868
523.758
344.86
205.786
110.342
50.7404
18.5984
5.1367
1.19524
482.922
381.586
547.483
591.917
413.039
246.668
134.713
65.904
27.2991
8.99887
2.42435
449.743
324.466
444.691
601.879
494.73
301.438
163.721
81.9658
36.5862
13.7477
4.28757
425.533
287.188
373.354
545.239
563.9
370.559
200.297
99.8639
46.2285
19.0044
6.71929
405.616
258.028
325.187
477.707
587.289
440.214
243.264
119.857
56.0676
24.4133
9.53347
390.051
231.808
286.247
415.473
559.206
493.099
287.028
140.683
65.6831
29.6474
12.5178
378.516
211.16
253.372
360.774
503.285
511.947
321.036
158.492
73.8343
34.2243
15.3888
373.975
194.665
224.567
310.963
440.238
497.578
336.539
168.714
78.9327
37.6308
17.9209
376.498
182.751
200.228
266.002
373.788
453.118
329.303
168.098
79.8406
39.5159
20.0624
388.787
177.699
181.62
226.74
305.272
388.416
301.77
155.745
76.4021
39.9062
21.7816
408.95
177.233
166.67
192.96
240.196
291.102
264.343
135.332
69.6534
39.3082
23.2547
437.183
180.535
152.972
160.639
183.447
206.786
203.558
120.35
62.6118
38.8401
24.9254
479.945
190.366
143.087
133.249
138.463
147.925
148.316
108.061
59.8245
39.9772
27.1664
550.915
211.948
141.811
115.937
109.542
112.803
115.624
100.881
66.0923
45.2157
32.1284
681.117
256.108
159.115
116.707
100.639
100.707
105.839
103.063
82.802
56.5199
38.6145
957.227
358.734
233.288
171.424
140.697
131.944
131.926
125.218
106.259
73.9009
48.8379
1524.52
616.099
464.477
373.04
297.716
244.184
188.371
145.132
104.715
71.3291
45.8916
1113.37
559.298
498.791
359.836
258.512
182.484
124.97
84.1414
55.3385
35.5798
22.2731
1018.88
532.321
308.45
190.951
122.761
80.072
52.071
33.3618
20.9047
12.7739
7.60369
171.85
92.8248
16.8969
3.94349
1.32639
0.734268
0.555496
0.485894
0.452037
0.430249
0.409936
277.855
208.903
18.2711
5.7402
1.60318
0.808467
0.55985
0.465287
0.418675
0.388489
0.362715
359.366
235.388
30.3861
7.59749
1.776
0.885157
0.56849
0.451741
0.393696
0.355566
0.321452
399.271
222.258
35.8365
8.49976
1.84698
0.943944
0.57274
0.441281
0.374502
0.330153
0.289221
407.949
211.236
38.3576
8.55897
1.90808
0.978011
0.570862
0.432367
0.359741
0.311963
0.269202
398.165
207.56
42.4119
8.95398
1.99748
0.992949
0.567309
0.424626
0.348357
0.29908
0.256649
373.352
209.119
48.2494
10.3985
2.24429
1.00091
0.566459
0.418456
0.339576
0.289658
0.246953
337.243
213.686
54.8535
12.6461
2.73753
1.05099
0.573155
0.414126
0.333143
0.282978
0.241331
296.805
220.014
62.7031
15.8349
3.58145
1.18329
0.600728
0.415592
0.329771
0.278511
0.237751
256.113
227.6
73.3377
20.5866
5.05979
1.49722
0.667013
0.42683
0.330542
0.276689
0.236404
215.478
236.623
86.3526
26.9721
7.36839
2.11533
0.812378
0.457972
0.336974
0.277274
0.236425
177.241
247.922
101.009
34.6806
10.5182
3.13319
1.093
0.528042
0.354082
0.281451
0.23811
145.018
260.413
118.296
44.2486
14.7638
4.71567
1.60294
0.675318
0.394347
0.292754
0.242363
120.09
272.231
139.426
56.6853
20.612
7.12768
2.4891
0.969325
0.484853
0.320207
0.251943
104.246
286.965
164.354
72.0812
28.1981
10.5189
3.88546
1.49843
0.670723
0.382572
0.273679
100.471
304.476
194.469
91.7906
38.2607
15.2597
6.00664
2.39515
1.02723
0.516896
0.323353
109.308
319.639
230.007
118.007
52.2987
22.1233
9.25053
3.8812
1.68123
0.792205
0.435001
129.514
329.07
268.198
152.078
71.9934
32.1768
14.2218
6.30341
2.83775
1.32888
0.675819
156.655
325.891
300.531
193.686
99.7541
47.3501
22.0989
10.3419
4.88961
2.35629
1.1792
185.12
307.871
313.795
236.066
136.839
70.442
35.0474
17.3797
8.66638
4.36242
2.23135
208.034
273.438
296.524
262.931
179.203
104.132
56.6807
30.1975
16.0024
8.48378
4.51463
255.668
239.087
263.149
265.209
216.78
148.449
91.7053
53.7998
30.7847
17.4166
9.77398
286.291
197.772
199.558
210.109
200.101
167.747
124.415
84.5609
54.3666
33.8975
20.5917
559.989
582.401
485.213
400.267
307.93
226.21
159.227
109.625
74.2855
49.7882
32.658
129.26
63.0423
14.6625
3.0106
1.12989
0.699174
0.565976
0.51578
0.495898
0.488827
0.486981
181.305
56.737
8.87645
2.99814
1.27465
0.771971
0.608068
0.550814
0.533145
0.533425
0.543064
220.333
69.1434
7.84141
3.19295
1.36771
0.851671
0.662823
0.595345
0.57705
0.583259
0.604628
234.112
65.3907
7.40097
3.3185
1.33872
0.832157
0.642321
0.578769
0.568991
0.587465
0.626424
234.029
54.6158
7.0706
3.25627
1.3049
0.823774
0.622884
0.550753
0.532372
0.54356
0.576572
230.485
45.1503
6.7364
3.07319
1.25395
0.809556
0.602132
0.523914
0.497166
0.499796
0.523666
226.769
38.2845
6.40981
2.86333
1.19947
0.79028
0.580159
0.499234
0.465412
0.459004
0.470052
222.035
33.3244
6.08791
2.66704
1.15143
0.76789
0.559653
0.477626
0.438538
0.424208
0.42202
219.328
29.7663
5.81936
2.51342
1.12014
0.746115
0.542442
0.459704
0.417316
0.398501
0.390441
219.441
27.3568
5.62482
2.40089
1.10483
0.729558
0.529575
0.445743
0.401402
0.381117
0.373617
223.185
25.9295
5.53599
2.3403
1.10454
0.721039
0.521707
0.435756
0.389748
0.368973
0.363163
229.347
25.1378
5.51674
2.32227
1.11845
0.720817
0.51887
0.429462
0.38128
0.359592
0.355126
238.012
25.5921
5.58834
2.34684
1.15043
0.729953
0.521759
0.426807
0.375387
0.351514
0.346657
247.707
28.4737
6.15699
2.48296
1.22799
0.758118
0.535518
0.429799
0.373078
0.345168
0.337611
259.071
32.6204
7.19789
2.75388
1.36135
0.812985
0.56378
0.440749
0.37546
0.34125
0.328341
272.959
38.3431
8.90518
3.25132
1.58179
0.911299
0.614342
0.464328
0.384915
0.341232
0.320257
290.337
46.179
11.5998
4.1459
1.9616
1.08787
0.704856
0.510556
0.407197
0.348754
0.316408
313.192
56.352
15.6009
5.68449
2.63679
1.41413
0.874492
0.601932
0.455932
0.372398
0.322822
344.48
69.6734
21.419
8.25789
3.86219
2.04223
1.21418
0.793668
0.565917
0.434767
0.355085
389.4
88.0329
30.0204
12.529
6.10898
3.29082
1.93585
1.22596
0.831493
0.600595
0.458748
458.525
114.905
43.2817
19.7062
10.255
5.80904
3.51737
2.2488
1.50952
1.06045
0.777891
575.617
157.468
65.1181
32.3282
18.0876
10.9338
6.99313
4.67497
3.24549
2.3327
1.73488
803.777
245.646
110.882
59.2399
35.2142
22.4766
15.1202
10.6069
7.71544
5.80108
4.49883
1460.42
455.82
236.92
146.53
98.8648
69.5456
51.5363
39.8837
31.8939
26.0595
21.3602
5.44648
3.24592
3.44292
5.05862
16.5154
36.3131
50.9467
61.6522
70.6599
7.67562
2.87965
2.14031
6.61715
15.7788
20.6081
22.7173
23.1534
23.9844
7.20965
3.10478
2.34839
7.2472
14.0571
15.1465
14.0687
12.5954
12.4379
6.39268
3.14441
2.63018
7.1686
11.2873
10.4305
8.76457
7.57556
7.25231
23.047
42.8915
56.8138
66.2442
72.9152
75.5376
75.1829
75.437
76.3998
15.2412
20.2655
21.3756
21.3309
22.2205
22.8542
23.939
24.9229
24.5062
12.2874
13.7026
12.2964
11.3182
11.5677
12.1506
13.0219
13.6855
13.0019
9.34764
9.07425
7.60561
6.89435
6.76363
6.8854
7.29156
7.95271
7.50815
0.00901726
0.00829351
0.00834695
0.0191902
0.464951
0.00755047
0.130201
0.00809821
0.00752548
0.00695028
0.465784
0.00813512
0.0100337
0.00514167
0.0146138
0.00728595
0.00534703
0.020805
0.00725003
0.0071034
0.0066351
0.0625891
0.00852148
0.0924961
0.0079225
0.00507788
0.00968061
0.121511
1.11467
0.391345
0.00608252
0.00643295
0.00685895
0.00806805
0.0068097
0.00826309
0.0842892
0.0079059
0.00779607
0.00757699
0.175396
0.00809974
0.06845
0.00849704
0.731329
0.238823
0.019168
0.347777
0.0069252
0.00737122
0.392253
0.00759574
0.0656437
0.0719018
0.00735015
0.00666262
0.0597279
0.00761554
1.15396
0.0775023
0.0875552
0.0445904
0.513392
0.0360422
0.193453
0.00714281
0.355678
0.00724222
0.00829548
0.00693823
0.0052165
0.0072103
0.0208068
0.00798488
0.167037
0.00713793
0.0756255
0.00828221
0.0568057
1.14344
0.138197
0.0274412
0.00793262
0.00838149
0.00697569
0.0210154
2.00765
0.0293113
0.0200215
0.0614795
0.00809389
0.00765041
0.189427
0.00743448
1.0699
0.652481
0.137765
0.00597624
0.0255386
0.00738288
0.00782162
0.305412
0.00680656
0.00615864
0.0161254
0.00812612
0.00460111
0.00845337
0.00979865
0.00667104
0.00796999
0.00815183
0.00724252
0.00971813
0.0501554
0.00769073
0.00753605
0.00732476
0.00793251
0.00673593
0.00916439
0.00776364
0.00985479
0.00482053
0.215408
0.0072281
0.225526
0.00478316
0.00525645
0.00683865
0.00778023
0.0825878
0.318862
0.00714773
0.00833994
0.00810278
0.06168
0.0172622
0.413518
0.00732696
0.0653315
0.00659687
0.226255
0.00867993
0.00751035
0.0239534
0.0153113
0.00723317
0.00713945
0.00707037
0.00717975
0.00766442
0.0262584
0.00773907
0.0127594
0.0296234
0.0338462
0.0432061
0.00562013
0.00747734
0.0054918
0.0343885
0.00719616
0.00771807
0.377844
0.0182551
0.0201804
0.00695084
0.00694734
0.189117
0.00572574
0.00559178
0.00836036
0.00645673
0.00642056
0.00641468
0.0060101
0.0277786
0.747303
0.00695789
0.00722308
0.0679936
0.00849762
0.11193
0.00794765
0.0143748
0.00709288
0.00727535
0.00824956
0.0819964
0.00943475
0.00524594
0.00718885
0.171905
0.00832331
0.00760886
0.00744153
0.0266801
0.00728326
0.00856745
0.0264552
0.00735418
0.00979912
0.00667683
0.00838569
0.0264623
0.00740402
0.00523209
0.00741488
0.00740831
0.0653594
0.00759147
0.00827407
0.00673593
0.0079134
0.187788
0.00798033
0.0247198
0.00716658
0.0107162
0.00960368
0.0100534
0.135534
0.0495241
0.00469736
0.00763179
0.0746863
0.0158119
0.00839855
0.153593
0.0431514
0.00713607
0.00715285
0.00771632
0.0265778
1.63017
0.237896
0.00845054
0.00815145
0.00810848
0.0250584
0.05434
0.00612791
0.153878
0.0081853
0.0395565
0.00800614
0.00725728
0.447252
0.22352
0.00719614
0.0674307
0.0100804
0.00727208
0.00602109
0.00746872
0.0067269
0.00785806
0.0189764
0.00706796
0.00865771
0.0097414
0.00738244
0.00820078
0.00796328
0.0162411
0.00658954
0.0082253
0.0176396
0.00694197
0.204292
0.00732062
0.00732941
0.0177013
0.00756893
0.00736664
0.00505339
0.00776372
0.00690975
0.0203828
0.00730373
0.00829071
0.139791
0.215119
0.00603225
0.00759502
1.40535
0.00825348
0.00682968
0.0568329
0.00835201
0.11668
0.00709413
0.00983481
0.00856563
0.00743928
0.00685296
0.00816712
0.00681579
0.00515372
0.007758
0.0103753
0.00709623
0.400002
0.00676407
0.0066672
0.00828569
0.0317403
0.0656668
0.0074411
0.086556
0.00817099
0.00645832
0.00659729
0.0816544
0.00655529
0.00694627
0.0148947
0.00671164
0.00774149
0.00708745
0.0891987
0.00746374
0.00540476
0.0248018
0.00679208
0.0077824
0.00588256
0.0070912
0.313245
0.00728769
0.527462
0.0731731
0.00846386
0.0111957
0.736028
0.0284046
0.00824363
0.0078523
0.00589791
0.0273498
0.0675451
0.00732239
0.0204271
0.184456
0.0321561
0.0647427
0.00753518
0.0778446
0.269851
0.115026
0.00580625
0.00700463
0.00682037
0.01333
0.00860274
0.0100521
0.0069583
0.00850124
0.307768
0.00986323
0.00531029
0.00800664
0.00798819
0.00728948
0.0191663
0.00524521
0.0201381
0.148123
0.00813045
0.00774136
0.107306
0.573509
0.00477259
0.0119746
0.00832236
0.00904983
0.00676295
0.0075297
0.0070951
0.133431
0.00756151
0.0238611
0.0076549
0.00520863
0.3015
0.0101751
0.00467935
0.0595025
0.0229036
0.00769854
0.0549921
0.00462018
0.00790599
0.30321
0.19815
0.00787121
0.00721619
0.0083662
0.066518
0.0187122
0.00764679
0.00850537
0.0551705
0.00694288
0.191527
0.0542622
0.0174102
0.00734491
0.0889269
0.00687047
0.00720215
0.00846101
0.00803171
0.0286346
0.00640086
0.00955896
0.00838703
0.00495031
0.0439218
0.289412
0.00633449
0.160336
0.0088632
0.00628357
0.00663978
0.00789005
0.0278268
0.00957809
0.200552
0.00789755
0.0236669
0.00505523
0.00663318
0.00682328
0.0145272
0.184542
0.412399
0.00485847
0.00860021
0.00596097
2.01459
0.0516566
0.0104399
0.00681567
0.0309228
0.086783
0.0410558
0.00742301
0.0339459
0.00773849
0.00833659
0.00794071
0.0322304
0.0179071
0.163121
0.00570763
0.0283315
0.0267452
0.00825656
0.00740768
0.239468
0.00509067
0.00599448
0.00685811
0.140612
0.115289
0.0902244
0.0916648
0.00728772
0.00657495
0.0199799
0.0069841
0.0880267
0.00683215
0.00824178
0.00735141
0.0347661
0.0325301
0.00711849
0.00778074
0.00668352
0.0954054
0.0694232
0.00845575
0.0227725
0.244958
0.00941176
0.0185344
0.00741213
0.0282479
0.00760155
0.0068394
0.00761679
0.00608155
0.00661651
0.00715524
0.00534482
0.00853489
0.00816683
0.00562471
0.00584636
0.00807595
0.00806427
0.501068
0.0197704
0.0169763
0.00728527
0.273409
0.008358
0.238253
0.0163738
0.0247235
0.0158141
0.00796227
0.270647
0.0504472
0.00531477
0.00778492
0.00634898
0.00667641
0.0082847
0.00769547
0.00819247
0.00675411
0.131204
0.00799707
0.00745717
0.0797438
0.00773038
0.174883
0.00666215
0.026161
0.00566989
0.0194881
0.00856536
0.00786434
0.00841435
0.169383
0.0336097
0.00795178
0.0079093
0.00479745
0.00834832
0.0461947
0.00831384
0.395262
0.00681224
0.0465253
0.00864315
0.00782694
0.267833
0.249232
0.00679373
0.00657446
0.00710616
0.00831311
0.0141727
0.0402539
0.0072126
0.00713015
0.479061
0.909435
0.00791736
0.00736793
0.00828249
0.0974684
0.252987
0.0191125
0.00809041
0.00751614
0.209672
0.00727367
0.00869842
0.00557071
0.0201615
0.342059
0.00770964
0.0207917
0.00782075
0.0532171
0.00738912
0.171472
0.00626826
0.00643302
0.0861647
0.023547
0.00842348
0.00854781
1.00213
0.00763753
0.00616107
0.0155052
0.0593617
0.103264
0.0271562
0.00733434
0.00692631
0.00773073
0.00791054
0.536178
0.0151131
0.0120874
0.0071121
0.00794836
0.0435686
0.00703886
0.00765614
0.00682281
0.00712619
0.00826092
0.0160914
0.0593313
0.0181171
0.00621403
0.0107896
0.00724849
0.0486671
0.00710387
0.00778727
0.471039
0.0963662
0.00755247
0.00757665
0.0602651
0.00676744
0.0073887
0.0194563
0.00831512
0.006724
0.00971826
0.00943086
0.0082825
0.00484765
0.005845
0.0393489
0.0532961
0.03494
0.0293898
0.0062682
0.0205645
0.0392807
0.00864268
0.00836488
0.00679072
0.0255538
0.0060698
0.00696059
0.00708981
0.00507892
0.0656694
0.424765
0.006084
0.0101765
0.00768983
0.0128219
0.00811857
0.00724908
0.00693005
0.0128397
0.00702958
0.00732659
0.00684375
0.00826502
0.0252885
0.0549475
0.149269
0.00710348
0.0069971
0.00754882
0.0373857
0.007623
0.132455
0.00720319
0.132105
0.0786566
0.00770626
0.0146392
0.00849876
0.00673789
0.0200631
0.00838828
0.408504
0.00556118
0.00667218
0.00841784
0.0125655
0.00511021
0.0336219
0.195797
0.00750798
0.0064182
0.00840441
0.00784285
0.00690869
0.0202248
0.00813861
0.00761141
0.00762399
0.00975653
0.042384
0.00816081
0.00791632
0.00751224
0.0147131
0.00565222
0.00648166
0.016693
0.139117
0.00982653
0.00633674
0.00612534
0.00813264
0.0331565
0.00624599
0.141712
0.00783915
0.0067082
0.0079107
0.00725112
0.0806324
0.00796035
0.0295222
0.0051272
0.00727964
0.00671759
0.00670974
0.0291522
0.00823789
0.474524
0.050255
0.382063
0.00662306
0.0102548
0.0526494
0.116202
0.00763807
0.00845945
0.0325347
0.0128846
0.00803289
0.00533534
0.467636
0.00811569
0.167829
0.00945751
0.00826857
0.136698
0.00754243
0.00686049
0.00681442
0.00793814
0.00732923
0.00479931
0.00819336
0.00679781
0.00713792
0.00949393
0.0204998
0.0858846
0.0093712
0.00723555
0.16049
0.227181
0.00781951
0.00481428
0.00710692
0.0423733
0.0100653
0.0446178
0.00698089
0.0508939
0.00871847
0.00889287
0.00722003
0.00694934
0.00765569
0.0671981
0.0574818
0.00860693
0.0078947
0.00739914
0.257716
0.0926513
0.00729683
0.0082087
0.00686838
0.0073089
0.00813945
0.00821654
0.00837842
0.00787763
0.00791723
0.00580251
0.0518586
0.0879349
0.00489187
0.00700978
0.0077051
0.00793488
0.00671452
0.154502
0.00827501
0.00628749
0.00756304
0.26069
0.0791875
0.0430265
0.00779318
0.0503548
0.00771705
0.0078172
0.202519
0.00715023
0.0081706
0.0071345
0.0193444
0.00601736
0.00592913
0.00813932
0.0106101
0.164713
0.0272878
0.0081652
0.00446758
0.0388097
0.0418189
0.0449632
0.00843103
0.00719773
0.0226417
0.0141442
0.0382734
0.0082938
0.00684833
0.00807812
0.00737408
0.00825923
0.163065
0.00629524
0.16577
0.220404
0.0530796
0.00810885
0.464302
0.00853347
0.00719334
0.00995528
0.00789737
0.00766197
0.00766118
0.0144301
0.0808247
0.0298832
0.00765183
0.043414
0.00768919
0.00859847
0.00737466
0.00756414
0.0071055
0.00792828
0.00815029
0.00733841
1.68011
0.00754261
0.007129
0.00749003
0.160689
0.00715649
0.00796774
0.0197694
1.54147
0.00698804
0.00776145
0.0111645
0.0371557
0.00846782
0.00808516
0.00678325
0.00860346
0.028155
0.00828593
0.0779859
0.00991151
0.0535953
0.00812535
0.00821731
0.00618991
0.0288542
0.00774852
0.00768282
0.00732764
0.00831866
0.00593016
0.186506
0.00668493
0.0223344
0.433027
0.0453924
0.00604498
0.0424068
0.00851198
0.00814731
0.00526866
0.00770878
0.00605647
0.007598
0.273711
0.00724924
0.0101861
0.00731453
0.00467636
0.00551905
0.0215022
0.00688312
0.00693717
0.00804208
0.257863
0.0624817
0.292901
0.00654806
0.00992415
0.00687931
0.0077679
0.396873
0.00753973
0.00830385
0.00610136
0.193048
0.0349775
0.0375079
0.0056037
0.00528596
0.169255
0.642002
0.00801531
0.00694551
0.321742
0.00760517
0.0195637
0.00792393
0.0470862
0.00838417
0.0164536
0.00830516
0.00745033
0.00845082
0.00762756
0.00963718
0.0135759
0.00711918
0.00780779
0.00732541
0.00975159
0.00822842
0.040644
0.00745251
0.00687068
0.190273
0.0230952
0.0452075
0.00832615
0.0203027
0.00723072
0.00829065
0.0263579
0.00646397
0.0763814
0.331699
0.00609779
0.0129623
0.00653534
0.00741907
0.01678
0.0116692
0.00701842
0.0234338
0.00813386
1.55026
0.0193156
0.67806
0.00812838
0.0211046
0.0161766
0.318335
0.00790804
0.00554835
0.00855556
0.00442277
0.118368
0.00815927
0.0089081
0.213937
0.0265486
0.154115
0.00754538
0.00778313
0.00736695
0.045562
0.0068403
0.185762
0.0119817
0.0257602
0.269737
0.00829289
0.0152657
0.0321859
0.0295829
0.0457325
0.0318873
0.00758217
0.0114418
0.00486936
0.00809968
0.0078085
0.00856524
0.142634
0.00659448
0.00832663
0.0055344
0.0408192
0.00483594
0.00802484
0.103972
0.0146603
0.00689243
0.0102681
0.0081384
0.00708007
0.00734033
0.203649
0.00713127
0.0640301
0.00616358
0.0248197
0.00796486
0.00694856
0.00795998
0.00753454
0.0228997
0.230232
0.0575664
0.649268
0.199872
0.656905
0.00687908
0.00719972
0.0106323
0.00838974
0.0059141
0.0918934
0.00691315
0.0964504
0.00606934
0.275698
0.00683011
0.00470825
0.00811876
0.254738
0.00862489
0.476383
0.00677686
0.00816551
0.0468598
0.043692
0.00675083
0.0232719
0.0406993
0.0648504
0.0806485
0.0199373
0.23138
0.00678431
0.00907111
0.240211
0.0155604
0.00833022
0.0061066
0.00827395
0.00504763
0.00526963
0.0119656
0.00773343
0.0175699
0.639125
0.00752769
0.00723791
0.00685403
0.00819497
0.0101862
0.00544291
0.00701316
0.00556881
0.369963
0.00734552
0.634512
0.0729561
0.00772968
0.136269
0.0525795
0.017783
0.00685825
0.0538532
0.00768698
0.00803729
0.281958
0.007523
0.00824494
0.00568522
0.00809749
0.0077363
0.283468
0.0077841
0.568587
0.0135372
0.0346109
0.00723303
0.012414
0.0569696
0.00615232
0.21857
0.00776375
0.0121224
0.0713954
0.00709034
0.0136518
0.030413
0.01308
0.00747247
0.0404739
0.032154
0.00644815
0.00733966
0.0262179
0.00694729
0.0179156
0.0254569
0.324409
0.00711797
0.00860359
0.00796744
0.00621764
0.00762652
0.00477087
0.0377585
1.30605
0.00800282
0.0240109
0.0280463
0.00820846
0.0333049
0.00709328
0.00698389
0.946952
0.0471401
0.291929
0.167576
0.00816488
0.00793022
0.022162
0.224346
0.0908166
0.249182
0.00493111
0.00817802
0.00719304
0.00622082
0.104597
0.0469549
0.00874068
0.00739777
0.0278458
0.0617623
0.0436839
0.00677287
0.0851759
0.222586
0.00638502
0.00558527
0.00728053
0.00717344
0.217149
0.00536676
0.00788474
0.0151236
0.00777923
0.00636653
0.380783
0.0157519
0.0106316
0.0345097
0.00893232
0.00751287
0.195023
0.0215582
0.00836307
0.00449549
0.0271278
0.00661594
0.17151
0.00806548
0.00769086
0.00703876
0.146803
0.00627955
0.00746001
0.0500344
0.00833922
0.00815016
0.00859551
0.00499993
0.00770566
0.023082
0.0180635
0.00814601
0.455995
0.0367128
0.00699403
0.0304746
0.00716344
0.00514094
0.0325177
0.00802723
0.0081674
0.00788658
0.00737466
0.007936
0.00719826
0.00802147
0.0496956
0.0762491
0.00603533
0.0287793
0.00691864
0.02152
0.0180388
0.00855533
0.00676129
0.0158881
0.00496815
0.00674765
0.00593952
0.00666104
0.00685333
0.00795649
0.0376478
0.0705917
0.024071
0.071121
0.00859361
0.0117452
0.253793
0.0160162
0.0133906
0.00759957
0.0336984
0.139607
0.13993
0.00465384
0.0113909
0.0313365
0.00635225
0.00795297
0.904867
0.00491712
0.00674255
0.0276249
0.0267746
0.0058415
0.0127784
0.0169034
0.00440616
0.599046
0.368237
0.00789967
0.00720985
0.0910063
0.238607
0.0104516
0.00811728
0.00701184
0.00839085
0.00748489
0.078618
0.00761726
0.00846101
0.135808
0.0105136
0.00735143
0.0077034
0.00756987
0.00671786
0.00857997
0.00727595
0.00970608
0.00704041
0.00879225
0.00804292
0.0291591
0.00819306
0.0695347
0.00770469
0.0209454
0.00838706
0.00769898
0.0597002
0.292548
0.00705182
0.00780608
0.00770646
0.0124881
0.00826618
0.00845809
0.007443
0.00742132
0.00621296
0.00729434
0.0300252
0.00512537
0.0577866
0.00848276
0.0177662
0.00789081
0.00669254
0.00869442
0.00843003
0.00801857
0.274072
0.0075777
0.0176836
0.00790212
0.00799641
0.478687
0.00845207
0.00855435
0.139168
0.271117
0.0188961
0.0075632
0.019905
0.007893
0.199257
0.0080742
0.044066
0.00742879
0.00619313
0.0237458
0.0076313
0.0321275
0.00710247
0.015349
0.0283716
0.00808444
0.0166165
0.00762276
0.142927
0.0174268
0.00494413
0.0534573
0.00642653
0.0059693
0.0084017
0.01043
0.0290811
0.00752711
0.00811368
0.0749814
0.00679074
0.00681168
0.00690894
0.00539526
0.0078947
0.0267884
0.0292327
0.00687959
0.0178564
0.00798164
0.00749454
0.00701975
1.19007
0.00974419
0.00741315
0.0670114
0.0321516
0.00821063
0.00706163
0.0289706
0.0105745
0.00661154
0.00727554
0.00990695
0.0389683
0.00754179
0.00693627
0.0770024
0.00715197
0.00830251
0.00735929
0.00693356
0.00789503
0.019691
0.00764308
0.0567819
0.0063204
0.0134088
0.00813208
0.0049902
0.0301978
0.00690497
0.0119834
0.00765772
0.00732572
0.0392713
0.0136541
0.00554386
0.00845867
0.00743623
0.224311
0.00737742
0.00701054
1.66118
0.00673357
0.00712513
0.00704798
0.00702121
0.00646976
0.00632361
0.0155461
0.00512783
0.0163559
0.00711463
0.00758759
0.0150331
0.0044762
0.007484
0.00645963
0.00563345
0.00730811
0.440744
0.00855556
0.021684
0.00748731
0.00688902
0.00599452
0.00710617
0.0126352
0.0079554
0.007217
0.00673585
0.00756665
0.00837722
0.0632547
0.0650149
0.0182511
0.0105102
0.0753839
0.00671616
0.00756402
0.0074653
0.21723
0.00725112
0.00657608
0.347329
0.00682428
0.317549
0.147277
0.00684811
0.00810066
0.0071905
0.00536824
0.00493701
0.00680779
0.00809944
0.0132116
0.0357202
0.00448423
0.0347805
0.00780826
0.052844
0.022091
0.952862
0.0102067
0.0112675
0.00455534
0.00828716
0.00690575
0.0237349
0.00790241
0.0110245
0.00497037
0.0120157
0.00521357
0.0447155
0.0159568
0.0266369
0.174971
0.00780621
0.284974
0.0102612
0.00651889
0.00603305
0.010005
0.00840593
0.581437
0.00781633
0.163105
0.320517
0.00506629
0.0561987
0.0595467
0.142663
0.00740023
0.007861
0.00741754
0.00726922
0.00765959
0.00621183
0.00704303
0.0221475
0.00778917
0.271291
0.015448
0.00764124
0.00818143
0.00971418
0.0615592
0.00813406
0.00846201