/*--------------------------------*- C++ -*----------------------------------*\
| =========                 |                                                 |
| \\      /  F ield         | OpenFOAM: The Open Source CFD Toolbox           |
|  \\    /   O peration     | Version:  3.0.1                                 |
|   \\  /    A nd           | Web:      www.OpenFOAM.org                      |
|    \\/     M anipulation  |                                                 |
\*---------------------------------------------------------------------------*/
FoamFile
{
    version     2.0;
    format      ascii;
    class       surfaceVectorField;
    location    "0.654944";
    object      Uf;
}
// * * * * * * * * * * * * * * * * * * * * * * * * * * * * * * * * * * * * * //

dimensions      [0 1 -1 0 0 0 0];

internalField   nonuniform List<vector> 
32369
(
(3.82936 -1.4755 -9.3462e-19)
(4.09396 -1.46648 2.65324e-19)
(4.9945 -2.10284 2.981e-19)
(4.0025 -1.4058 7.91235e-19)
(3.48836 -1.03678 -1.75434e-19)
(4.49698 -1.50773 -4.85366e-20)
(4.03637 -1.2672 -2.30537e-19)
(3.63805 -1.19539 3.08615e-19)
(4.43717 -1.27086 -2.76901e-19)
(4.03064 -1.04739 1.93306e-19)
(3.72468 -1.10743 -2.36659e-19)
(4.33042 -1.02372 2.37411e-20)
(3.98406 -0.806232 -2.88822e-20)
(3.76349 -0.934604 6.49397e-21)
(4.20354 -0.771752 8.16125e-20)
(3.90517 -0.600635 -6.45362e-20)
(3.77179 -0.745393 6.76072e-20)
(4.07232 -0.564561 -2.73713e-20)
(3.80996 -0.441493 -3.55916e-20)
(3.7441 -0.56959 -7.23162e-21)
(3.93923 -0.3985 -3.14137e-20)
(3.70895 -0.326398 0)
(3.68725 -0.432366 -5.8011e-21)
(3.80693 -0.280018 -1.93616e-20)
(3.60766 -0.249967 2.7997e-20)
(3.61348 -0.33325 8.99453e-21)
(3.67977 -0.200203 1.22559e-20)
(3.50892 -0.207063 1.99758e-20)
(3.53235 -0.270018 1.5662e-20)
(3.56056 -0.15403 3.13191e-20)
(3.45636 -0.24195 -2.35176e-20)
(3.45808 -0.138633 -3.46593e-20)
(3.41299 -0.195548 7.27105e-20)
(3.44799 -0.739555 -2.07507e-19)
(3.77036 -0.755497 7.54646e-19)
(3.36432 -0.963635 2.75374e-19)
(3.20686 -0.54461 5.25961e-20)
(3.42844 -1.03273 2.76166e-19)
(3.24943 -0.857931 3.70624e-19)
(3.52844 -0.99438 -3.09277e-19)
(3.3231 -0.912541 -2.23273e-19)
(3.61059 -0.875709 -1.22515e-19)
(3.41071 -0.873791 1.06344e-19)
(3.65248 -0.719305 6.1912e-20)
(3.49459 -0.774958 -8.54358e-20)
(3.64883 -0.568097 -8.88226e-20)
(3.54681 -0.645546 -8.26788e-20)
(3.61132 -0.445655 4.528e-20)
(3.5577 -0.522836 -1.52637e-20)
(3.55433 -0.357201 1.76248e-21)
(3.53561 -0.423085 6.91051e-20)
(3.48777 -0.30235 -1.14924e-21)
(3.49204 -0.352806 -1.59523e-20)
(3.44157 -0.315929 2.30481e-20)
(3.41681 -0.281132 -4.70961e-20)
(3.39488 -0.363836 8.76023e-19)
(3.63548 -0.404134 1.28485e-18)
(3.16042 -0.549837 6.64302e-20)
(3.193 -0.253708 -1.46447e-19)
(3.15041 -0.686839 -1.46837e-19)
(3.13704 -0.522336 -6.86962e-20)
(3.22469 -0.762196 7.18042e-20)
(3.14557 -0.624142 1.31846e-19)
(3.32439 -0.763371 9.50704e-20)
(3.20687 -0.68187 1.6297e-19)
(3.41846 -0.700377 -2.20483e-19)
(3.29747 -0.676818 -1.30698e-19)
(3.47979 -0.603719 -1.74148e-19)
(3.3823 -0.620279 -8.04409e-20)
(3.50026 -0.505559 -2.92792e-20)
(3.43585 -0.542061 -1.92527e-20)
(3.48803 -0.423952 5.44399e-20)
(3.45462 -0.464829 7.7467e-20)
(3.45358 -0.367329 -2.25133e-20)
(3.44443 -0.402806 3.79718e-20)
(3.41775 -0.367587 -1.04716e-20)
(3.40076 -0.342738 4.546e-21)
(3.40288 -0.199201 2.40011e-19)
(3.57222 -0.263257 3.59931e-19)
(3.16808 -0.305426 -2.80232e-19)
(3.25369 -0.123524 -4.6853e-19)
(3.10121 -0.420519 1.81177e-19)
(3.16118 -0.311077 1.65367e-19)
(3.11683 -0.520765 1.79468e-19)
(3.12663 -0.396694 2.00694e-19)
(3.1814 -0.583198 -1.09001e-20)
(3.14656 -0.484156 -1.73716e-19)
(3.27018 -0.594617 0)
(3.20811 -0.532914 0)
(3.35083 -0.562192 2.9566e-20)
(3.28489 -0.537271 1.17233e-19)
(3.40308 -0.507367 7.17897e-20)
(3.34962 -0.509238 6.02951e-21)
(3.42306 -0.44994 1.52991e-19)
(3.38892 -0.466213 -6.03902e-20)
(3.41578 -0.403646 9.77312e-20)
(3.40091 -0.423492 4.82853e-20)
(3.39318 -0.396053 -1.8444e-20)
(3.3871 -0.378418 9.96052e-22)
(3.42161 -0.133966 -3.56992e-19)
(3.53549 -0.217585 -4.21981e-23)
(3.24075 -0.187164 -1.32328e-19)
(3.32157 -0.0783763 -2.13947e-19)
(3.15919 -0.263458 1.80896e-19)
(3.2306 -0.210208 1.88353e-20)
(3.13669 -0.348116 -1.23287e-19)
(3.18384 -0.264032 1.10071e-19)
(3.15978 -0.42379 -1.53017e-19)
(3.176 -0.34389 -1.37095e-19)
(3.21731 -0.472163 1.03406e-19)
(3.20493 -0.408336 -1.86561e-19)
(3.28504 -0.486293 1.05273e-19)
(3.25644 -0.445819 6.51996e-20)
(3.34128 -0.47309 -9.23785e-20)
(3.31011 -0.455209 9.16592e-20)
(3.37485 -0.445715 -1.54984e-19)
(3.35061 -0.444152 -4.17189e-20)
(3.38442 -0.417049 -1.3561e-19)
(3.37111 -0.423653 -1.33013e-19)
(3.37432 -0.408131 4.14047e-20)
(3.37383 -0.397569 -9.28751e-20)
(3.44696 -0.114216 1.5379e-19)
(3.52878 -0.201967 1.39142e-19)
(3.31593 -0.142394 -1.27928e-19)
(3.38513 -0.0677517 9.0653e-20)
(3.24338 -0.189582 -4.07062e-20)
(3.30511 -0.177676 -1.42195e-19)
(3.21033 -0.252112 1.20912e-19)
(3.26386 -0.203163 1.08911e-19)
(3.20725 -0.319169 -1.65354e-19)
(3.2443 -0.267421 0)
(3.23355 -0.376659 -2.39246e-19)
(3.25028 -0.328213 -7.83352e-20)
(3.27636 -0.413962 6.73812e-20)
(3.27646 -0.376511 8.08286e-20)
(3.31942 -0.428963 2.15911e-19)
(3.31053 -0.405931 1.32759e-19)
(3.35065 -0.426843 9.67061e-21)
(3.34033 -0.41695 7.57452e-20)
(3.36505 -0.416171 -1.25598e-20)
(3.35819 -0.414869 -3.3241e-20)
(3.36336 -0.411581 5.43101e-20)
(3.36256 -0.40557 -8.80138e-20)
(3.48307 -0.12322 8.12125e-20)
(3.5585 -0.200355 1.16023e-19)
(3.38206 -0.135947 9.96405e-20)
(3.44027 -0.0868114 5.52228e-21)
(3.32421 -0.167249 0)
(3.37406 -0.182703 1.56028e-20)
(3.29427 -0.213592 0)
(3.34442 -0.186685 -9.27803e-20)
(3.27979 -0.267542 8.37962e-20)
(3.32181 -0.239866 -8.67542e-21)
(3.28497 -0.321052 2.16578e-19)
(3.31469 -0.291174 4.97166e-20)
(3.30446 -0.364943 1.40091e-19)
(3.32163 -0.338472 -3.54467e-20)
(3.32872 -0.393861 0)
(3.33631 -0.374847 0)
(3.34866 -0.407815 4.49067e-20)
(3.35111 -0.397398 0)
(3.35857 -0.410902 2.60912e-20)
(3.35997 -0.407201 -1.24521e-20)
(3.36092 -0.412807 -3.68401e-20)
(3.3541 -0.410071 -3.26372e-20)
(3.5234 -0.142244 5.05461e-20)
(3.58423 -0.234487 1.16567e-19)
(3.44077 -0.147734 -8.07733e-20)
(3.48701 -0.125567 -7.51114e-21)
(3.39835 -0.177141 -6.835e-20)
(3.4446 -0.202326 -1.04949e-19)
(3.37298 -0.21306 -1.09483e-19)
(3.41859 -0.200202 -4.30864e-20)
(3.35439 -0.25571 -4.88614e-20)
(3.39504 -0.246365 -1.05456e-21)
(3.34726 -0.30145 -1.82449e-19)
(3.3812 -0.287618 -9.39289e-20)
(3.34934 -0.343478 -1.68413e-19)
(3.37498 -0.329268 -4.1715e-20)
(3.35605 -0.376332 0)
(3.37377 -0.365196 1.08552e-20)
(3.36212 -0.39781 -5.56779e-20)
(3.37391 -0.391522 0)
(3.36333 -0.409043 -6.96603e-20)
(3.37177 -0.406992 -8.60894e-23)
(3.36511 -0.417131 -3.77882e-20)
(3.35539 -0.413818 0)
(3.56319 -0.180925 7.10283e-20)
(3.61343 -0.284881 0)
(3.4953 -0.190156 -1.00285e-20)
(3.53976 -0.164509 6.03424e-20)
(3.46387 -0.212441 -9.24323e-20)
(3.50194 -0.235641 -6.22034e-20)
(3.4407 -0.237585 5.70054e-20)
(3.47722 -0.236968 4.85371e-21)
(3.42161 -0.271468 -3.65949e-20)
(3.45787 -0.274516 9.94942e-20)
(3.4076 -0.309341 4.01525e-20)
(3.44128 -0.307553 -2.84732e-20)
(3.39762 -0.346167 1.28461e-19)
(3.4264 -0.342788 7.48852e-20)
(3.39027 -0.377497 1.20322e-20)
(3.41323 -0.374937 1.08449e-20)
(3.38342 -0.400598 5.48706e-20)
(3.40096 -0.400475 0)
(3.3746 -0.414972 3.50949e-20)
(3.38815 -0.417257 6.16376e-20)
(3.37296 -0.429233 -8.65879e-22)
(3.35815 -0.422429 -2.83655e-20)
(3.60651 -0.223309 -1.6878e-20)
(3.6512 -0.340466 0)
(3.54684 -0.232249 3.12586e-20)
(3.58989 -0.208677 1.40469e-19)
(3.51909 -0.251191 2.8683e-20)
(3.55046 -0.280105 -5.92172e-20)
(3.49764 -0.275256 3.72553e-20)
(3.53042 -0.284602 -2.91974e-20)
(3.47909 -0.304639 1.19444e-19)
(3.51166 -0.315035 3.66286e-20)
(3.46068 -0.336222 -4.0107e-21)
(3.4922 -0.343105 1.44617e-20)
(3.44225 -0.367385 -3.33826e-20)
(3.47118 -0.372776 -6.28405e-20)
(3.4242 -0.394941 0)
(3.44914 -0.400204 4.72942e-20)
(3.40647 -0.416439 0)
(3.42695 -0.422756 -1.87111e-20)
(3.38807 -0.430775 3.3104e-20)
(3.40481 -0.438067 8.49287e-21)
(3.3818 -0.449168 3.93245e-20)
(3.36234 -0.438904 3.05296e-20)
(3.65235 -0.274088 1.4412e-19)
(3.69166 -0.403125 2.04363e-19)
(3.59439 -0.282804 1.01329e-19)
(3.63771 -0.261986 5.22609e-20)
(3.56675 -0.301448 -1.20443e-19)
(3.59454 -0.333334 -3.11459e-19)
(3.54635 -0.323704 -3.8998e-20)
(3.57503 -0.339171 1.56478e-19)
(3.52686 -0.349251 -6.63923e-20)
(3.55554 -0.364888 -2.88608e-20)
(3.50473 -0.376088 -3.57184e-20)
(3.53356 -0.389543 7.75871e-20)
(3.47996 -0.402228 6.64263e-21)
(3.50766 -0.414561 -5.61146e-20)
(3.45368 -0.425403 3.57002e-20)
(3.47872 -0.437344 3.81492e-20)
(3.42711 -0.443676 -1.3652e-20)
(3.44854 -0.456068 -2.48468e-20)
(3.40053 -0.455791 1.12704e-20)
(3.41842 -0.468264 8.51033e-21)
(3.38811 -0.477023 -3.03573e-20)
(3.36831 -0.461572 -5.5353e-21)
(3.69264 -0.33578 6.25746e-20)
(3.72077 -0.470493 8.50033e-21)
(3.6351 -0.341853 -2.94418e-19)
(3.67584 -0.32191 2.5183e-19)
(3.60668 -0.358797 -6.21784e-20)
(3.63007 -0.392977 -3.96079e-19)
(3.58595 -0.379395 1.86352e-19)
(3.61069 -0.398894 -6.26276e-20)
(3.56465 -0.402121 1.05012e-19)
(3.58994 -0.421597 1.5959e-19)
(3.53917 -0.425212 7.13494e-20)
(3.56536 -0.443662 8.42757e-20)
(3.50927 -0.447081 -3.45161e-20)
(3.53531 -0.464936 -8.57098e-22)
(3.4764 -0.465946 -1.54512e-20)
(3.50064 -0.483539 -9.17799e-21)
(3.44254 -0.480226 -6.59826e-21)
(3.46366 -0.498197 -4.62889e-20)
(3.40876 -0.488845 -2.88697e-20)
(3.4267 -0.506399 3.01193e-20)
(3.38911 -0.512332 1.47879e-20)
(3.36861 -0.490263 3.29915e-19)
(3.7242 -0.39949 1.76812e-19)
(3.74405 -0.538521 -1.12067e-19)
(3.66747 -0.404437 2.85217e-19)
(3.70715 -0.383706 6.09254e-19)
(3.63836 -0.420539 -4.11364e-19)
(3.65842 -0.455347 -3.95262e-19)
(3.61656 -0.439959 -1.14266e-19)
(3.63821 -0.461916 -1.41649e-19)
(3.59319 -0.460705 1.46842e-19)
(3.61571 -0.482873 8.32392e-20)
(3.56452 -0.481039 2.08268e-20)
(3.58835 -0.503186 0)
(3.53007 -0.499409 2.57655e-20)
(3.55434 -0.521661 -2.53985e-20)
(3.49146 -0.51433 -3.60473e-20)
(3.51449 -0.536708 0)
(3.45123 -0.524534 -2.0401e-20)
(3.47147 -0.547269 -7.73843e-20)
(3.41091 -0.528886 7.54961e-20)
(3.42836 -0.550746 1.13664e-20)
(3.38453 -0.552694 -6.49165e-20)
(3.36231 -0.525619 -1.98428e-19)
(3.75314 -0.463089 3.17369e-19)
(3.77068 -0.61083 3.22976e-19)
(3.69492 -0.468414 1.71682e-19)
(3.73601 -0.448611 -6.87045e-21)
(3.6639 -0.484557 -1.50056e-19)
(3.68172 -0.520426 -4.57269e-19)
(3.64 -0.503653 3.21336e-20)
(3.65934 -0.527703 2.06905e-19)
(3.61401 -0.523389 -5.5787e-20)
(3.63429 -0.547715 1.27617e-19)
(3.58187 -0.541905 -4.36324e-20)
(3.60365 -0.567039 -1.37393e-19)
(3.54287 -0.557552 -5.3981e-20)
(3.5654 -0.583557 3.31598e-20)
(3.49873 -0.56885 -3.29609e-20)
(3.52025 -0.595561 -6.34039e-20)
(3.45242 -0.574555 -6.11934e-20)
(3.47117 -0.601917 -9.41126e-21)
(3.40609 -0.573399 -1.18047e-19)
(3.42194 -0.599762 1.10082e-19)
(3.37132 -0.596441 -7.321e-20)
(3.35257 -0.562734 6.34935e-21)
(3.77699 -0.532117 -1.17064e-19)
(3.78717 -0.683755 8.87336e-19)
(3.71655 -0.535607 -5.17754e-19)
(3.75729 -0.5154 -6.1719e-19)
(3.68294 -0.55131 -1.47915e-19)
(3.69886 -0.588004 4.07862e-21)
(3.65646 -0.57024 3.10971e-19)
(3.6742 -0.595995 1.63621e-20)
(3.6274 -0.589576 7.3783e-20)
(3.64626 -0.615838 2.62909e-19)
(3.59137 -0.607056 -7.86393e-20)
(3.61183 -0.634973 -1.37909e-19)
(3.54745 -0.62062 3.49219e-20)
(3.56869 -0.650286 8.24365e-20)
(3.49749 -0.628469 -4.44027e-20)
(3.51759 -0.659541 -8.43902e-21)
(3.44493 -0.629226 1.43912e-19)
(3.46193 -0.661322 -4.28486e-20)
(3.39242 -0.621629 1.69087e-19)
(3.40648 -0.652494 6.46756e-21)
(3.34942 -0.641842 -2.81487e-20)
(3.33236 -0.602322 2.72802e-20)
(3.79428 -0.601444 2.27091e-19)
(3.79775 -0.75609 6.4578e-19)
(3.7322 -0.604199 -2.37743e-19)
(3.77392 -0.582505 -4.77337e-19)
(3.69634 -0.620096 1.87149e-19)
(3.71148 -0.65678 4.28014e-19)
(3.66698 -0.639538 -5.7388e-20)
(3.68401 -0.66659 -1.23381e-19)
(3.63435 -0.659316 9.30725e-20)
(3.65266 -0.687413 -1.98854e-22)
(3.59368 -0.676602 0)
(3.61357 -0.707456 0)
(3.5439 -0.688597 4.84814e-20)
(3.56433 -0.722332 0)
(3.48722 -0.692838 -7.5913e-23)
(3.50593 -0.728783 1.35391e-19)
(3.42788 -0.687735 -1.77421e-19)
(3.44269 -0.724973 -1.15232e-19)
(3.36933 -0.672421 -1.83756e-19)
(3.38092 -0.707972 -3.47894e-21)
(3.31831 -0.687952 -6.84831e-20)
(3.30514 -0.643784 -4.3291e-20)
(3.80972 -0.670069 -1.05001e-19)
(3.80964 -0.832563 7.69687e-20)
(3.74516 -0.673683 1.5354e-20)
(3.78998 -0.651908 -8.06548e-21)
(3.70651 -0.690863 1.54711e-19)
(3.72196 -0.72779 -5.93662e-21)
(3.67345 -0.712018 -7.83842e-20)
(3.69074 -0.740608 -2.11941e-19)
(3.63623 -0.73352 -9.42581e-20)
(3.65493 -0.763843 6.11438e-21)
(3.58944 -0.75165 0)
(3.6095 -0.78619 -9.01032e-20)
(3.53199 -0.762355 7.24401e-20)
(3.55189 -0.801235 -5.5365e-20)
(3.46698 -0.762166 4.7661e-20)
(3.48396 -0.80405 5.85044e-20)
(3.40009 -0.749418 2.5666e-20)
(3.41175 -0.792513 -4.69816e-20)
(3.336 -0.724098 9.92406e-20)
(3.34352 -0.764824 3.75885e-20)
(3.27608 -0.734118 1.51435e-21)
(3.27098 -0.685229 -3.42751e-20)
(3.82357 -0.7418 1.81321e-19)
(3.81792 -0.910292 1.21234e-21)
(3.75631 -0.745725 6.00974e-20)
(3.80451 -0.723203 3.2273e-19)
(3.71436 -0.764823 -3.70407e-19)
(3.73129 -0.80205 -1.64363e-19)
(3.67685 -0.789048 -1.4436e-19)
(3.69585 -0.81975 -2.09287e-19)
(3.63345 -0.813965 2.03655e-20)
(3.65409 -0.847769 1.62527e-19)
(3.57801 -0.834109 -1.49353e-19)
(3.59933 -0.874258 3.13306e-21)
(3.51002 -0.843239 -7.64596e-20)
(3.52948 -0.889414 5.1416e-21)
(3.43451 -0.83664 -1.79775e-20)
(3.4488 -0.886145 -9.45688e-20)
(3.35946 -0.813422 -4.18691e-20)
(3.36644 -0.863056 4.83552e-20)
(3.29064 -0.775806 -6.48417e-20)
(3.29295 -0.821295 -1.26787e-20)
(3.22384 -0.776644 2.99468e-20)
(3.22397 -0.723854 6.81839e-20)
(3.83678 -0.815695 1.00874e-19)
(3.82534 -0.990402 -3.77078e-19)
(3.76728 -0.820963 2.33526e-19)
(3.82052 -0.796806 3.24732e-19)
(3.72221 -0.843685 0)
(3.74273 -0.880986 6.62417e-20)
(3.6791 -0.873561 6.49898e-20)
(3.70217 -0.907596 1.72923e-19)
(3.62645 -0.90451 1.63288e-19)
(3.65112 -0.944551 -8.14214e-21)
(3.55775 -0.927633 1.53473e-19)
(3.58116 -0.977094 3.26617e-20)
(3.4747 -0.93328 3.83842e-21)
(3.49274 -0.990142 1.01617e-19)
(3.38635 -0.916054 -4.08415e-20)
(3.39548 -0.97516 -4.77668e-20)
(3.30369 -0.877786 7.52684e-20)
(3.3031 -0.934258 1.25075e-20)
(3.2329 -0.824656 5.06096e-20)
(3.22736 -0.874357 2.77961e-20)
(3.16113 -0.8124 2.45119e-20)
(3.17106 -0.759104 -1.11197e-20)
(3.85263 -0.891964 -1.01599e-20)
(3.83571 -1.0744 -2.89283e-19)
(3.78224 -0.900735 1.85762e-19)
(3.84397 -0.874325 1.13437e-19)
(3.73438 -0.930856 2.26673e-19)
(3.76287 -0.968912 3.82613e-21)
(3.68271 -0.97139 9.98673e-20)
(3.71384 -1.01286 3.16121e-19)
(3.61414 -1.01207 -1.42378e-19)
(3.64532 -1.06486 -3.20922e-19)
(3.52388 -1.03748 -3.20319e-20)
(3.54891 -1.10284 -8.63413e-22)
(3.41976 -1.03404 6.64945e-20)
(3.43296 -1.10597 9.55315e-20)
(3.31727 -0.998487 2.21849e-20)
(3.3165 -1.06851 2.24051e-20)
(3.22998 -0.938944 -3.71412e-20)
(3.21763 -1.00119 -2.47049e-20)
(3.16197 -0.867277 -4.10012e-21)
(3.14569 -0.919455 1.41604e-20)
(3.08895 -0.841088 1.05881e-20)
(3.10894 -0.791027 6.33981e-21)
(3.87905 -0.975492 0)
(3.85858 -1.16727 2.97731e-19)
(3.81058 -0.991006 -6.4556e-20)
(3.89048 -0.956351 -4.19301e-20)
(3.75845 -1.0356 4.90223e-20)
(3.80097 -1.07828 -1.78851e-19)
(3.68947 -1.09552 -8.78466e-20)
(3.73388 -1.15606 3.96722e-20)
(3.59058 -1.14844 -2.13079e-19)
(3.62863 -1.22703 -1.62807e-19)
(3.46581 -1.16928 1.10184e-19)
(3.48777 -1.25957 7.26296e-20)
(3.33504 -1.14413 8.92186e-20)
(3.3359 -1.23425 -1.3742e-20)
(3.22111 -1.07845 -1.33117e-20)
(3.2033 -1.15771 -1.1931e-20)
(3.13641 -0.991188 8.4856e-21)
(3.10779 -1.05515 0)
(3.07868 -0.900445 2.19438e-20)
(3.04992 -0.950607 1.03382e-20)
(3.01079 -0.859938 -2.50783e-23)
(3.03707 -0.814103 -1.14688e-20)
(3.93137 -1.06238 2.20734e-21)
(3.92945 -1.24697 5.87378e-19)
(3.86144 -1.08766 -2.12215e-20)
(3.95128 -1.06125 -2.59799e-19)
(3.79972 -1.17148 -2.08151e-19)
(3.85843 -1.25982 3.84884e-20)
(3.68967 -1.26525 -6.70253e-21)
(3.73607 -1.38808 -1.97612e-19)
(3.53618 -1.32471 9.60189e-20)
(3.5654 -1.45475 7.24074e-20)
(3.36377 -1.32142 3.28032e-20)
(3.3674 -1.4458 2.69719e-20)
(3.20778 -1.25325 -2.80068e-20)
(3.18332 -1.35994 -4.04e-20)
(3.09354 -1.14389 0)
(3.05086 -1.2255 6.19396e-21)
(3.02441 -1.02521 -5.49412e-21)
(2.97666 -1.08334 0)
(2.98714 -0.917818 -2.94902e-20)
(2.94528 -0.96017 -1.06218e-20)
(2.93207 -0.861617 -7.93874e-21)
(2.96878 -0.829958 3.66345e-20)
(3.99598 -1.1013 -9.91133e-20)
(3.65102 -1.22746 -5.2211e-20)
(3.9849 -1.30177 -1.46543e-19)
(3.82044 -1.46806 2.32634e-20)
(3.82948 -1.44485 -8.09435e-20)
(3.65426 -1.65251 1.55908e-19)
(3.63018 -1.5371 -1.08318e-19)
(3.49504 -1.72426 -1.15824e-19)
(3.40551 -1.55638 9.80651e-21)
(3.31985 -1.71958 3.97188e-20)
(3.19209 -1.48752 -6.72476e-20)
(3.12994 -1.61983 -2.40081e-20)
(3.03116 -1.34786 2.32717e-20)
(2.96632 -1.44288 -1.36088e-20)
(2.93954 -1.1827 6.87035e-21)
(2.87097 -1.24314 2.11603e-20)
(2.90253 -1.03408 -3.8942e-21)
(2.84159 -1.07085 3.18962e-21)
(2.89309 -0.91784 -2.93951e-21)
(2.84653 -0.943503 -3.85217e-21)
(2.86169 -0.852413 -3.37618e-21)
(2.89001 -0.827562 -9.15675e-21)
(3.59464 -1.57797 4.6187e-19)
(3.06377 -2.60613 -2.39927e-19)
(3.48033 -1.7395 2.78275e-19)
(3.23887 -1.89998 1.79534e-19)
(3.3626 -1.82913 6.20514e-20)
(3.16667 -1.90671 -8.72136e-20)
(3.21384 -1.8449 2.50259e-20)
(3.10369 -1.89266 2.26711e-20)
(3.05241 -1.75154 -6.863e-20)
(3.03084 -1.79663 2.71222e-20)
(2.90214 -1.56216 -5.3552e-20)
(2.93491 -1.64003 -4.04045e-20)
(2.80356 -1.33721 4.88216e-20)
(2.83737 -1.42658 8.6439e-20)
(2.77606 -1.1365 1.11023e-20)
(2.7721 -1.19548 -7.18454e-20)
(2.78979 -0.987773 1.44313e-20)
(2.76836 -1.01964 4.17053e-20)
(2.81293 -0.887176 -2.40101e-21)
(2.7921 -0.906285 -7.73118e-22)
(2.81355 -0.834682 -1.52764e-21)
(2.82807 -0.822305 -4.17984e-21)
(5.35686 -1.67626 -5.25797e-20)
(5.91302 -1.34683 4.4052e-20)
(5.0145 -1.34099 -9.02273e-21)
(5.57935 -1.20682 2.94088e-20)
(4.75425 -1.07094 -3.47649e-20)
(5.26462 -1.04529 -5.2508e-20)
(4.52358 -0.808261 7.12773e-20)
(4.95291 -0.82817 2.81651e-20)
(4.3178 -0.576822 -1.63001e-20)
(4.65523 -0.587542 -1.70569e-19)
(4.12555 -0.397941 -4.02042e-20)
(4.38781 -0.371697 1.0114e-19)
(3.95132 -0.265434 -1.69587e-20)
(4.15424 -0.214259 2.54977e-20)
(3.79335 -0.171091 -8.35797e-21)
(3.94257 -0.109518 6.46795e-20)
(3.64916 -0.112025 1.34921e-20)
(3.75291 -0.0440128 -9.07782e-20)
(3.51569 -0.0864479 -6.64308e-22)
(3.58678 -0.0107213 -2.53669e-20)
(3.45031 -0.00761886 1.94739e-21)
(3.39228 -0.0942826 -1.90056e-19)
(6.04861 -0.946487 2.8495e-20)
(6.25448 -0.792523 -8.17359e-21)
(5.73506 -0.927118 1.78645e-20)
(6.0704 -0.770783 4.3499e-21)
(5.40495 -0.811085 0)
(5.79527 -0.744139 0)
(5.06077 -0.607734 -1.66524e-19)
(5.46841 -0.606719 -1.74571e-19)
(4.73145 -0.371008 -3.49744e-20)
(5.1105 -0.394896 -5.67591e-22)
(4.4343 -0.176156 1.59266e-19)
(4.75421 -0.160476 1.19526e-19)
(4.16566 -0.0553585 9.65743e-20)
(4.4227 0.0239141 -2.23131e-19)
(3.92183 0.0146463 -2.94593e-20)
(4.11758 0.126503 2.07599e-19)
(3.71047 0.0553021 -1.31472e-19)
(3.84847 0.163702 -9.691e-20)
(3.52837 0.0678125 -2.5412e-20)
(3.6186 0.169179 -9.21877e-21)
(3.43705 0.157609 -3.78595e-20)
(3.364 0.050558 3.94263e-20)
(6.30289 -0.604439 -2.95253e-20)
(6.39443 -0.592304 -1.20181e-20)
(6.12007 -0.612761 -1.97194e-20)
(6.31336 -0.511236 -4.02733e-20)
(5.86087 -0.55765 -1.47461e-19)
(6.11005 -0.50886 -3.4786e-20)
(5.53182 -0.414828 -3.53514e-20)
(5.83164 -0.407046 -2.14908e-19)
(5.16489 -0.190361 1.97663e-19)
(5.48556 -0.225898 1.74802e-19)
(4.78602 0.0589593 -2.3977e-19)
(5.09458 0.0252791 0)
(4.41709 0.238393 1.80233e-20)
(4.6917 0.279803 -2.20719e-19)
(4.08392 0.30436 2.14028e-19)
(4.32134 0.437893 1.74222e-19)
(3.78993 0.291387 4.39465e-20)
(3.96124 0.468532 1.98131e-20)
(3.5403 0.257232 -6.24797e-22)
(3.64056 0.416996 7.78574e-20)
(3.40862 0.354944 -9.93883e-20)
(3.33172 0.222056 -2.47676e-20)
(6.43399 -0.46406 -2.00061e-20)
(6.49199 -0.537005 -3.18243e-20)
(6.31081 -0.443537 -5.52118e-20)
(6.46029 -0.392768 1.10788e-21)
(6.10887 -0.380112 -7.38221e-20)
(6.30033 -0.385064 -3.91055e-20)
(5.82043 -0.251865 -4.48918e-20)
(6.06203 -0.281511 -7.54072e-20)
(5.46264 -0.044447 0)
(5.74076 -0.110577 5.23536e-20)
(5.0603 0.227747 3.96745e-20)
(5.34544 0.139995 0)
(4.65209 0.485028 4.98089e-20)
(4.90162 0.440578 4.45079e-20)
(4.24903 0.637768 0)
(4.46805 0.696822 -7.32241e-20)
(3.86099 0.647669 4.70191e-20)
(4.04257 0.81619 5.3445e-20)
(3.5323 0.547361 -1.27231e-19)
(3.64457 0.757713 1.35688e-19)
(3.34384 0.625908 -2.64832e-19)
(3.26039 0.431306 -1.34778e-19)
(6.54689 -0.417527 -1.69996e-20)
(6.58531 -0.540645 -5.64821e-20)
(6.45506 -0.377668 1.00884e-20)
(6.58289 -0.345574 2.02111e-20)
(6.28251 -0.299009 -3.60672e-20)
(6.44418 -0.338391 -6.43225e-21)
(6.0191 -0.166131 7.55349e-21)
(6.22915 -0.2268 -3.50125e-20)
(5.67121 0.0380784 5.78756e-20)
(5.92534 -0.0581372 3.58669e-20)
(5.24709 0.319539 0)
(5.52931 0.18904 1.2385e-20)
(4.77948 0.630842 -6.46658e-20)
(5.05038 0.51573 4.04372e-20)
(4.31541 0.870067 -2.30529e-20)
(4.53642 0.842494 -7.26569e-20)
(3.88264 0.96479 2.21494e-19)
(4.05056 1.06604 5.29855e-20)
(3.49562 0.883701 -3.24704e-20)
(3.60242 1.09759 1.42749e-19)
(3.23185 0.933329 -2.23978e-19)
(3.18828 0.701179 4.69469e-20)
(6.64703 -0.40692 -1.1004e-20)
(6.66983 -0.56516 -2.16915e-20)
(6.57615 -0.359723 6.50555e-21)
(6.68739 -0.334998 -2.95802e-21)
(6.42001 -0.275664 8.03677e-21)
(6.56073 -0.338504 3.07959e-20)
(6.17232 -0.142336 -1.44878e-20)
(6.36069 -0.224247 0)
(5.83241 0.0586859 -1.09066e-20)
(6.07044 -0.0627142 -1.62548e-20)
(5.3949 0.341301 4.96409e-20)
(5.6768 0.175113 -6.75807e-20)
(4.87819 0.686866 4.48418e-20)
(5.17325 0.506064 1.15249e-19)
(4.33405 1.00263 0)
(4.58916 0.887725 0)
(3.82668 1.19096 -4.66218e-20)
(4.01087 1.19435 0)
(3.3852 1.18513 -4.96143e-20)
(3.48962 1.33553 -5.24419e-20)
(3.05669 1.24878 2.92027e-20)
(3.04329 0.961567 9.90716e-21)
(6.728 -0.41773 8.64706e-20)
(6.73392 -0.59327 -2.29106e-20)
(6.67384 -0.371359 1.1733e-20)
(6.76767 -0.348787 -2.99174e-21)
(6.52904 -0.291201 1.85004e-20)
(6.65055 -0.370313 5.41117e-22)
(6.29413 -0.166123 0)
(6.46304 -0.259419 -7.45839e-20)
(5.96379 0.0233459 -7.13879e-20)
(6.1862 -0.113771 1.32016e-19)
(5.52045 0.29656 -7.95208e-20)
(5.80037 0.105081 -1.37491e-19)
(4.96331 0.655074 2.52248e-20)
(5.28332 0.419647 2.2756e-20)
(4.34076 1.02768 0)
(4.64221 0.830015 0)
(3.73736 1.30093 0)
(3.96619 1.20731 -1.95029e-19)
(3.21526 1.39147 1.68538e-20)
(3.3426 1.43909 -1.7176e-19)
(2.84393 1.46967 1.45083e-19)
(2.81462 1.24877 -1.41994e-19)
(6.78991 -0.450902 -4.23572e-21)
(6.78517 -0.628553 -3.87515e-21)
(6.74693 -0.407597 -1.97538e-20)
(6.82587 -0.383044 0)
(6.61088 -0.336796 -9.14579e-20)
(6.71366 -0.426418 -1.13957e-19)
(6.38796 -0.226754 3.88753e-20)
(6.53686 -0.322249 1.1035e-19)
(6.07005 -0.0580883 9.82038e-20)
(6.27352 -0.200584 5.5304e-20)
(5.62979 0.192517 -6.36392e-20)
(5.90077 -0.0112661 -5.76129e-20)
(5.04659 0.541415 0)
(5.38476 0.269961 0)
(4.35477 0.948403 -1.73393e-19)
(4.70414 0.668761 -3.20973e-19)
(3.64798 1.289 -3.69071e-19)
(3.93418 1.10318 1.70237e-21)
(3.02452 1.47125 2.34237e-19)
(3.20145 1.40881 -1.71442e-19)
(2.5994 1.53653 5.05582e-20)
(2.51735 1.43925 -2.80009e-20)
(6.83426 -0.495211 0)
(6.82307 -0.665833 -6.32116e-21)
(6.79612 -0.460226 -8.29545e-20)
(6.86057 -0.428821 0)
(6.66581 -0.404361 4.56079e-20)
(6.74946 -0.500515 -5.19497e-21)
(6.45352 -0.314885 1.29221e-19)
(6.58269 -0.405952 1.01631e-19)
(6.14955 -0.175318 -8.62934e-20)
(6.33169 -0.31508 -7.8321e-20)
(5.72058 0.0386145 0)
(5.97477 -0.164518 -1.18339e-19)
(5.13057 0.352244 -2.86503e-19)
(5.47172 0.0698269 9.12566e-20)
(4.38573 0.759548 -8.35638e-20)
(4.77691 0.418545 -4.5462e-21)
(3.58031 1.14728 3.37484e-19)
(3.93106 0.881401 3.04023e-19)
(2.85496 1.40956 -6.66102e-20)
(3.09436 1.23702 0)
(2.39568 1.42085 -5.86488e-20)
(2.31429 1.48159 -7.07197e-19)
(6.85604 -0.550059 -6.99706e-21)
(6.83172 -0.706938 2.72807e-20)
(6.82121 -0.526565 8.88527e-20)
(6.86943 -0.487677 -1.68738e-20)
(6.69274 -0.486981 5.3651e-20)
(6.76316 -0.587218 1.24099e-19)
(6.48967 -0.423541 -1.00351e-19)
(6.59874 -0.50573 -1.1972e-19)
(6.19968 -0.320488 -1.062e-19)
(6.35815 -0.451363 6.05017e-20)
(5.78864 -0.154753 -5.92346e-20)
(6.01825 -0.347795 -2.5251e-19)
(5.21047 0.105348 4.3134e-19)
(5.53897 -0.174504 6.69948e-20)
(4.43653 0.480549 4.10328e-19)
(4.8601 0.0979738 7.66204e-19)
(3.5479 0.884905 0)
(3.96448 0.546021 -1.74967e-19)
(2.71944 1.1867 1.01071e-19)
(3.02448 0.934326 2.71528e-19)
(2.23212 1.16025 -8.56035e-20)
(2.10206 1.3208 8.51249e-19)
(6.85307 -0.597653 5.92231e-20)
(6.8058 -0.766245 3.882e-20)
(6.82028 -0.581874 3.80574e-21)
(6.86723 -0.56264 -6.45021e-21)
(6.68485 -0.58057 1.83357e-21)
(6.72447 -0.665217 -5.65976e-21)
(6.49285 -0.549657 2.28174e-20)
(6.58004 -0.624335 2.1379e-20)
(6.21623 -0.489234 -5.28092e-20)
(6.35073 -0.606813 4.08749e-21)
(5.82614 -0.381567 -1.78325e-19)
(6.02697 -0.55511 -2.04876e-19)
(5.27669 -0.195852 2.63837e-19)
(5.57585 -0.452998 -1.0705e-19)
(4.50684 0.113335 2.54995e-19)
(4.94333 -0.2758 2.30773e-19)
(3.56111 0.509717 4.73544e-20)
(4.04158 0.0762385 -1.75426e-19)
(2.63852 0.826619 -6.54951e-20)
(3.00969 0.509819 1.15167e-19)
(2.14959 0.758238 -8.46828e-20)
(1.94623 1.02549 -1.18567e-19)
(6.81941 -0.658124 9.10464e-21)
(6.7608 -0.832826 2.53034e-21)
(6.7825 -0.677423 -2.66741e-20)
(6.80191 -0.640866 1.2979e-20)
(6.64639 -0.68732 -1.01363e-20)
(6.67722 -0.75286 -6.31952e-20)
(6.46325 -0.691265 3.42172e-21)
(6.52666 -0.760475 5.17541e-20)
(6.1982 -0.677726 -1.29554e-19)
(6.30609 -0.779435 -2.59421e-20)
(5.82772 -0.634334 -1.53516e-19)
(5.99571 -0.780412 -1.67647e-19)
(5.31347 -0.536997 -2.10516e-19)
(5.5712 -0.749639 -2.88256e-20)
(4.58101 -0.341064 -1.32847e-19)
(4.99084 -0.665742 -1.20046e-19)
(3.62186 0.00628654 -1.39841e-19)
(4.16614 -0.477114 0)
(2.63988 0.345531 3.94532e-20)
(3.09343 -0.0300463 -1.57356e-19)
(2.19414 0.233529 2.24801e-19)
(1.89785 0.614258 -1.04643e-19)
(6.74934 -0.72409 4.27535e-21)
(6.6862 -0.887597 8.23065e-21)
(6.70726 -0.765538 -3.01962e-20)
(6.70327 -0.731728 -8.77098e-21)
(6.57559 -0.806803 -2.30499e-20)
(6.58863 -0.853843 -1.46071e-20)
(6.39482 -0.847568 3.04598e-20)
(6.43919 -0.907648 1.36331e-20)
(6.13957 -0.880466 -4.79335e-20)
(6.2284 -0.969007 -4.37968e-23)
(5.78809 -0.895672 -6.29334e-20)
(5.93497 -1.02299 -9.69643e-20)
(5.31322 -0.879063 5.96828e-20)
(5.53636 -1.05732 -4.41209e-22)
(4.67411 -0.801753 0)
(5.00279 -1.05496 0)
(3.76134 -0.569482 0)
(4.3009 -0.996581 -1.2399e-19)
(2.72663 -0.210354 9.74863e-20)
(3.30618 -0.670815 -1.18804e-19)
(2.28247 -0.374843 -1.88328e-20)
(1.86776 0.00836034 -2.03845e-19)
(6.63883 -0.791449 2.50448e-20)
(6.56013 -0.939029 3.28056e-21)
(6.59166 -0.862002 5.53459e-21)
(6.56073 -0.831076 -7.27178e-21)
(6.46583 -0.938844 1.92424e-20)
(6.45499 -0.968409 1.03941e-20)
(6.29282 -1.02077 -1.50242e-20)
(6.31348 -1.06698 1.3741e-20)
(6.05212 -1.10237 -3.77806e-20)
(6.11795 -1.17524 -1.23171e-21)
(5.72307 -1.17502 -4.87623e-20)
(5.8488 -1.28317 -1.90761e-20)
(5.28318 -1.22483 -6.03739e-20)
(5.48715 -1.37888 1.9564e-20)
(4.70286 -1.22711 -1.10743e-19)
(5.01194 -1.44629 0)
(3.9322 -1.15149 -2.3733e-19)
(4.391 -1.46086 6.28845e-21)
(2.96383 -0.902409 -2.57788e-19)
(3.55229 -1.3174 8.1873e-20)
(2.56889 -1.04387 -1.78133e-19)
(2.01697 -0.594803 3.44963e-18)
(6.48407 -0.868064 4.96983e-23)
(6.39146 -0.991186 -3.04791e-20)
(6.43155 -0.968176 6.66283e-21)
(6.37269 -0.936977 1.91407e-20)
(6.31338 -1.08199 4.55384e-21)
(6.27363 -1.09433 9.163e-21)
(6.15375 -1.20789 2.68292e-20)
(6.14439 -1.23751 5.16057e-21)
(5.93566 -1.34043 1.64927e-20)
(5.97097 -1.39485 2.99022e-20)
(5.64123 -1.47066 3.63655e-20)
(5.73586 -1.55701 -1.90909e-20)
(5.2519 -1.58422 7.29279e-20)
(5.42354 -1.71116 6.59029e-20)
(4.74201 -1.65975 8.65535e-20)
(5.01703 -1.83809 0)
(4.07324 -1.66783 2.49076e-19)
(4.4881 -1.90856 -1.78334e-19)
(3.23983 -1.54019 9.46784e-20)
(3.8001 -1.86844 1.59145e-19)
(2.95595 -1.6917 1.70852e-19)
(2.33385 -1.2676 -2.03877e-18)
(6.27923 -0.948724 -2.47323e-20)
(6.17059 -1.04465 -6.95353e-21)
(6.21983 -1.08116 2.45539e-20)
(6.13061 -1.04674 4.94045e-21)
(6.11135 -1.23435 1.52933e-20)
(6.03834 -1.2296 1.3471e-20)
(5.97138 -1.40598 5.68841e-21)
(5.92688 -1.41795 -1.82588e-20)
(5.78564 -1.58945 0)
(5.78474 -1.62463 1.42087e-20)
(5.53896 -1.77414 0)
(5.59593 -1.83851 4.6292e-20)
(5.21682 -1.94411 0)
(5.34711 -2.04458 -4.75493e-20)
(4.79972 -2.07654 -2.46053e-19)
(5.0246 -2.22088 1.44074e-19)
(4.25937 -2.13893 -3.06616e-19)
(4.60693 -2.33869 -4.07212e-21)
(3.58136 -2.0881 1.82453e-19)
(4.06757 -2.36819 -5.52711e-19)
(3.40655 -2.28448 3.56514e-19)
(2.73617 -1.88408 -2.0134e-18)
(6.01261 -1.03386 2.62428e-20)
(5.88301 -1.10706 1.20874e-19)
(5.94814 -1.20167 -3.49063e-20)
(5.82365 -1.16328 6.25221e-20)
(5.85398 -1.39621 -2.24086e-20)
(5.74109 -1.37533 1.19544e-21)
(5.74242 -1.61394 2.28398e-21)
(5.65449 -1.60727 -7.38634e-21)
(5.60079 -1.84632 6.43481e-20)
(5.55413 -1.85988 3.80759e-20)
(5.41473 -2.08033 2.49224e-20)
(5.42471 -2.1187 1.50645e-20)
(5.17142 -2.29882 7.59105e-20)
(5.25245 -2.36652 -2.16621e-20)
(4.85615 -2.47991 2.98787e-19)
(5.02473 -2.58097 1.85959e-21)
(4.44995 -2.5942 -3.04922e-19)
(4.72579 -2.7362 3.10854e-19)
(3.93406 -2.6021 -5.12328e-19)
(4.33845 -2.80889 2.06228e-19)
(3.83925 -2.80189 1.51556e-19)
(3.24411 -2.51058 1.05587e-19)
(5.67655 -1.12826 1.62036e-19)
(5.51529 -1.19226 2.42695e-20)
(5.61203 -1.33229 1.02826e-19)
(5.44252 -1.29187 -1.56888e-20)
(5.53955 -1.56596 1.68999e-20)
(5.37428 -1.52858 1.51836e-20)
(5.4672 -1.82461 3.95086e-21)
(5.31713 -1.79266 3.51172e-20)
(5.38264 -2.09786 -3.03933e-20)
(5.26308 -2.07434 2.6797e-20)
(5.27006 -2.37002 -2.75202e-20)
(5.19939 -2.35772 -1.63401e-21)
(5.11657 -2.62317 -9.83303e-20)
(5.10963 -2.62586 2.58048e-20)
(4.91199 -2.83426 -3.22463e-20)
(4.98168 -2.85578 1.91136e-20)
(4.64171 -2.9743 6.79867e-19)
(4.80305 -3.02132 -2.15293e-20)
(4.28183 -3.02209 6.54238e-19)
(4.55251 -3.10638 2.20897e-19)
(4.2107 -3.13261 0)
(3.72374 -2.99557 0)