/*--------------------------------*- C++ -*----------------------------------*\
| =========                 |                                                 |
| \\      /  F ield         | OpenFOAM: The Open Source CFD Toolbox           |
|  \\    /   O peration     | Version:  3.0.1                                 |
|   \\  /    A nd           | Web:      www.OpenFOAM.org                      |
|    \\/     M anipulation  |                                                 |
\*---------------------------------------------------------------------------*/
FoamFile
{
    version     2.0;
    format      ascii;
    class       surfaceVectorField;
    location    "0.0343046";
    object      Uf;
}
// * * * * * * * * * * * * * * * * * * * * * * * * * * * * * * * * * * * * * //

dimensions      [0 1 -1 0 0 0 0];

internalField   nonuniform List<vector> 
32369
(
(7.0452 -4.15885 3.68533e-19)
(5.61522 -4.62662 2.53763e-19)
(8.73987 -2.77863 1.41344e-18)
(6.3332 -3.28494 2.25621e-21)
(5.47582 -4.14356 -2.09954e-18)
(6.83505 -2.12467 2.42767e-18)
(5.98849 -2.67765 -1.11742e-19)
(5.45365 -3.45463 1.52624e-18)
(6.36532 -2.05067 -1.50426e-18)
(5.69134 -2.15569 -1.32985e-20)
(5.37374 -2.83398 -4.93114e-20)
(6.12389 -1.85292 2.29539e-19)
(5.39437 -1.72774 1.66919e-20)
(5.22345 -2.29538 5.08733e-19)
(5.78541 -1.55651 2.50352e-20)
(5.11256 -1.39583 -2.19667e-20)
(5.02426 -1.84986 -4.09507e-19)
(5.41691 -1.26805 2.88707e-20)
(4.8511 -1.12414 1.47926e-20)
(4.80978 -1.48913 -1.86316e-19)
(5.10825 -1.02508 -1.1107e-19)
(4.60809 -0.900758 4.10555e-20)
(4.59484 -1.19513 3.17361e-19)
(4.8243 -0.813389 3.05584e-20)
(4.38426 -0.713792 1.47197e-20)
(4.38728 -0.953179 -5.33029e-20)
(4.57019 -0.636863 4.89056e-20)
(4.17771 -0.55672 0)
(4.18982 -0.752721 -6.39293e-20)
(4.33761 -0.48659 -2.0438e-20)
(4.00237 -0.60051 4.64028e-20)
(4.12904 -0.375279 -3.99286e-21)
(3.94927 -0.42522 -1.75615e-19)
(4.04897 -4.96124 -1.71855e-18)
(2.75949 -4.61117 0)
(4.50632 -4.25211 -8.05561e-19)
(3.51524 -4.41205 -1.79184e-18)
(4.77234 -3.57792 1.55498e-18)
(4.02293 -3.9684 1.5984e-18)
(4.86914 -2.95523 3.67554e-19)
(4.34098 -3.42512 -1.25117e-20)
(4.83733 -2.40704 2.12841e-19)
(4.48679 -2.87855 4.29646e-19)
(4.72205 -1.9471 -5.64581e-19)
(4.50247 -2.3758 -8.47565e-19)
(4.56318 -1.57023 2.7088e-20)
(4.43222 -1.93806 1.94863e-19)
(4.38597 -1.26344 2.52478e-19)
(4.31253 -1.56978 6.73184e-19)
(4.20527 -1.01304 -1.16522e-19)
(4.16862 -1.26479 4.8818e-20)
(4.0293 -0.80778 -3.93501e-20)
(4.01543 -1.01411 -2.56779e-19)
(3.8588 -0.820045 1.76206e-19)
(3.83799 -0.636439 3.71731e-20)
(2.36685 -4.33875 0)
(1.46685 -3.85319 2.3219e-19)
(3.04009 -4.21997 2.12754e-19)
(2.19365 -3.93071 0)
(3.54399 -3.85341 2.91875e-19)
(2.78665 -3.85622 -1.80727e-18)
(3.89814 -3.37953 3.52713e-20)
(3.28179 -3.56476 1.49725e-18)
(4.10503 -2.87207 -4.0471e-19)
(3.63157 -3.15513 0)
(4.18421 -2.38781 -2.34555e-19)
(3.8431 -2.70742 -1.11236e-19)
(4.16826 -1.95758 7.25632e-19)
(3.93491 -2.27132 5.47272e-19)
(4.09121 -1.59197 5.61348e-19)
(3.93838 -1.87527 -1.11339e-19)
(3.98039 -1.2894 -7.15774e-20)
(3.88486 -1.53152 1.4052e-19)
(3.8545 -1.04339 -9.9907e-20)
(3.79817 -1.24244 -1.90321e-19)
(3.68873 -1.01427 2.86176e-19)
(3.6973 -0.835786 1.01315e-19)
(1.46378 -3.51005 2.49098e-19)
(1.00606 -3.22862 4.10764e-19)
(1.99521 -3.67378 -1.70417e-18)
(1.4964 -3.34554 -1.22762e-18)
(2.5471 -3.63893 -7.1702e-19)
(1.92778 -3.43814 -2.18361e-18)
(3.01056 -3.40177 1.58931e-18)
(2.40909 -3.36563 1.75629e-18)
(3.35176 -3.04109 2.93532e-19)
(2.83521 -3.14617 0)
(3.57555 -2.63097 5.61641e-19)
(3.16014 -2.82242 -3.76377e-20)
(3.69531 -2.2207 -2.03129e-19)
(3.374 -2.45106 -1.19891e-20)
(3.73267 -1.84245 -5.52454e-19)
(3.4916 -2.07754 -4.99415e-19)
(3.71021 -1.51245 3.71211e-20)
(3.53698 -1.7298 1.9594e-19)
(3.64581 -1.23429 1.29378e-19)
(3.53195 -1.42267 0)
(3.48485 -1.16875 1.44935e-19)
(3.54008 -0.995889 -9.43671e-19)
(1.1116 -3.02154 -6.93532e-19)
(0.864482 -2.81854 -1.2003e-18)
(1.40582 -3.15777 -1.55035e-18)
(1.20715 -2.89285 -1.20604e-18)
(1.79175 -3.21187 3.95298e-20)
(1.45347 -3.00047 -2.3227e-19)
(2.22459 -3.16319 3.68958e-19)
(1.81589 -3.01855 -1.26169e-18)
(2.62665 -2.98412 -2.90393e-19)
(2.19852 -2.93193 4.96287e-19)
(2.94403 -2.69537 -5.54973e-19)
(2.54797 -2.73384 -3.23385e-19)
(3.16205 -2.35134 -2.41538e-19)
(2.82981 -2.45922 -1.13087e-18)
(3.29056 -1.99924 1.62577e-19)
(3.03113 -2.14711 1.62953e-18)
(3.35095 -1.66792 2.0381e-19)
(3.15731 -1.82892 -7.13177e-19)
(3.36592 -1.37059 0)
(3.22174 -1.52806 -5.72107e-19)
(3.2347 -1.26737 -3.45601e-19)
(3.32921 -1.09859 0)
(0.980648 -2.64055 -1.56162e-18)
(0.789861 -2.46651 -1.44063e-18)
(1.18878 -2.74296 0)
(1.05398 -2.5003 -9.62398e-19)
(1.44721 -2.81293 -1.39755e-18)
(1.22311 -2.60554 7.37384e-19)
(1.7544 -2.81465 -1.24138e-18)
(1.49105 -2.64336 -1.5552e-18)
(2.08426 -2.72317 5.45789e-19)
(1.79023 -2.61389 1.81731e-18)
(2.39874 -2.54195 -8.09713e-19)
(2.09728 -2.50061 -2.70748e-20)
(2.66655 -2.2937 4.96665e-19)
(2.38045 -2.31337 -1.84327e-18)
(2.87002 -2.00904 9.67106e-19)
(2.61671 -2.07481 2.29907e-20)
(3.00692 -1.71767 -1.49262e-18)
(2.79608 -1.81088 5.43402e-21)
(3.08689 -1.44263 -9.36712e-19)
(2.9178 -1.54671 -1.16308e-20)
(2.97949 -1.30741 -3.41221e-19)
(3.11189 -1.18152 3.66187e-19)
(0.899062 -2.31026 -8.86045e-19)
(0.744835 -2.18345 -1.36872e-18)
(1.05456 -2.37507 -3.40189e-19)
(0.964033 -2.17441 5.08382e-19)
(1.25561 -2.43789 8.11266e-19)
(1.09018 -2.25468 -2.30065e-19)
(1.49619 -2.45853 1.16323e-18)
(1.29915 -2.29146 2.46159e-19)
(1.7646 -2.41667 1.37745e-18)
(1.53698 -2.28338 9.18539e-19)
(2.03951 -2.30486 -9.0547e-19)
(1.79458 -2.21722 -3.1547e-19)
(2.29681 -2.13098 -2.43931e-18)
(2.05149 -2.09295 -1.30344e-20)
(2.51668 -1.91348 -9.09566e-19)
(2.28713 -1.92062 -1.52667e-18)
(2.68822 -1.67472 1.47795e-18)
(2.48704 -1.71604 8.81785e-19)
(2.80935 -1.43557 6.20113e-19)
(2.64252 -1.49975 5.00132e-21)
(2.74318 -1.29838 7.86613e-19)
(2.8718 -1.20038 0)
(0.839593 -2.03208 -2.74483e-19)
(0.702254 -1.93785 -1.36086e-18)
(0.96416 -2.06241 7.0336e-19)
(0.899254 -1.90137 9.1627e-19)
(1.12766 -2.10928 -8.44884e-19)
(1.00255 -1.95656 -8.60866e-20)
(1.32319 -2.12941 -6.8911e-20)
(1.17437 -1.98499 4.85766e-21)
(1.5445 -2.108 -6.78562e-19)
(1.37075 -1.98291 2.73895e-21)
(1.7805 -2.03733 4.54412e-19)
(1.58808 -1.94031 1.00698e-20)
(2.01544 -1.91811 8.887e-19)
(1.81429 -1.85503 1.31447e-18)
(2.23263 -1.75897 -1.96599e-20)
(2.03475 -1.73081 8.27273e-19)
(2.41914 -1.57401 -4.87613e-19)
(2.2365 -1.57566 -3.15466e-20)
(2.56936 -1.37919 1.72058e-20)
(2.40707 -1.403 -8.38806e-19)
(2.52738 -1.2355 -2.14038e-21)
(2.67385 -1.17144 5.58575e-19)
(0.792212 -1.79099 -5.00489e-19)
(0.670807 -1.71388 4.223e-19)
(0.899513 -1.79611 2.26777e-19)
(0.851351 -1.65799 -1.22844e-18)
(1.03926 -1.828 7.60916e-19)
(0.939004 -1.69693 1.40597e-18)
(1.20472 -1.84242 6.76602e-20)
(1.08677 -1.71726 -2.37258e-19)
(1.39265 -1.82778 6.55904e-19)
(1.2547 -1.71529 3.8464e-20)
(1.59694 -1.7786 6.77559e-19)
(1.44231 -1.68411 1.02129e-18)
(1.80771 -1.69382 1.21035e-18)
(1.64223 -1.62191 4.07313e-20)
(2.01276 -1.57676 8.66584e-19)
(1.84452 -1.52998 5.52882e-19)
(2.20054 -1.4348 -3.35737e-19)
(2.03929 -1.41171 -3.14896e-20)
(2.36344 -1.27879 -9.82292e-19)
(2.21456 -1.27469 -2.90633e-19)
(2.34831 -1.13465 -3.40594e-19)
(2.49371 -1.10912 -1.42438e-18)
(0.768141 -1.57868 -1.40129e-19)
(0.661964 -1.531 4.24162e-19)
(0.857308 -1.56277 -2.25386e-19)
(0.821945 -1.44809 -6.74025e-19)
(0.977466 -1.5827 5.75759e-19)
(0.894046 -1.46997 4.0924e-19)
(1.12061 -1.5909 -2.95466e-19)
(1.0234 -1.48116 0)
(1.28411 -1.57761 3.04416e-19)
(1.17038 -1.47609 -6.32081e-19)
(1.4641 -1.53928 4.79183e-19)
(1.33605 -1.44963 1.18968e-18)
(1.65402 -1.47507 -6.5819e-19)
(1.51539 -1.40073 -2.12209e-19)
(1.84497 -1.38601 -3.05792e-19)
(1.70131 -1.32985 -4.0694e-20)
(2.0274 -1.27518 0)
(1.88647 -1.23799 1.68225e-19)
(2.19273 -1.14815 3.21848e-19)
(2.0605 -1.12948 0)
(2.19956 -1.0189 3.62319e-19)
(2.32685 -1.0007 2.9682e-19)
(0.752082 -1.40109 0)
(0.657999 -1.38352 -3.51731e-19)
(0.827372 -1.35959 -1.02953e-19)
(0.794407 -1.26795 4.82691e-19)
(0.932273 -1.36633 -1.26127e-19)
(0.857763 -1.27053 -2.21005e-19)
(1.05865 -1.36687 -2.70025e-19)
(0.974776 -1.2706 -3.35674e-19)
(1.20413 -1.35168 6.5573e-20)
(1.10702 -1.25978 2.20038e-19)
(1.36597 -1.31836 6.35069e-19)
(1.25699 -1.23372 3.5334e-20)
(1.53947 -1.26653 3.87974e-19)
(1.42108 -1.19197 2.66962e-21)
(1.7178 -1.19659 4.11178e-19)
(1.59397 -1.13486 1.56944e-21)
(1.89297 -1.11005 1.86833e-19)
(1.77024 -1.06247 -5.86244e-22)
(2.05766 -1.01117 0)
(1.94103 -0.976805 -1.06472e-19)
(2.07992 -0.888018 0)
(2.20368 -0.896409 0)
(0.722663 -1.24345 1.97604e-20)
(0.643549 -1.22861 -7.14909e-19)
(0.795057 -1.17715 4.22437e-19)
(0.760455 -1.0942 5.496e-19)
(0.89296 -1.1708 -4.16876e-19)
(0.823286 -1.08397 -1.04161e-19)
(1.00952 -1.16286 9.73239e-20)
(0.933826 -1.07533 -3.74059e-19)
(1.14329 -1.14382 2.08728e-19)
(1.05707 -1.05884 5.24457e-19)
(1.29266 -1.11205 -5.95481e-19)
(1.19696 -1.03135 -4.12204e-19)
(1.45429 -1.06767 -3.81e-19)
(1.35087 -0.993289 -9.3268e-20)
(1.62294 -1.01099 -4.0426e-19)
(1.5147 -0.945345 -1.84624e-19)
(1.79207 -0.942516 -2.78786e-19)
(1.68429 -0.887317 -1.66041e-19)
(1.95523 -0.864291 -1.18434e-19)
(1.85263 -0.819455 -5.08882e-20)
(1.99487 -0.747245 4.21681e-21)
(2.10526 -0.772774 -2.00964e-19)
(0.69409 -1.08545 -3.38849e-19)
(0.632157 -1.07412 -3.15666e-19)
(0.764098 -1.00194 7.21481e-20)
(0.731811 -0.924432 5.87471e-20)
(0.85781 -0.986016 -3.3004e-20)
(0.793652 -0.904161 1.07169e-20)
(0.968618 -0.970928 -4.05026e-20)
(0.899177 -0.888455 -5.95385e-22)
(1.09542 -0.947779 0)
(1.01675 -0.866859 1.2695e-20)
(1.23723 -0.915879 5.78689e-20)
(1.15085 -0.83734 0)
(1.39156 -0.876041 1.13992e-19)
(1.29907 -0.801234 -1.1765e-19)
(1.55417 -0.82871 5.25999e-20)
(1.4578 -0.759811 9.15779e-20)
(1.7196 -0.77336 4.92613e-20)
(1.62339 -0.712768 0)
(1.88264 -0.708839 5.44783e-20)
(1.7901 -0.658538 -7.98487e-20)
(1.93278 -0.599631 4.5124e-20)
(2.03587 -0.623453 3.36017e-19)
(0.678256 -0.935872 4.09416e-20)
(0.623939 -0.952607 -1.31724e-19)
(0.740507 -0.833694 2.00778e-21)
(0.705297 -0.770859 1.56075e-19)
(0.828612 -0.807812 4.45311e-20)
(0.76714 -0.733339 -1.21091e-19)
(0.93487 -0.785653 5.15498e-20)
(0.86978 -0.707758 3.92761e-20)
(1.05761 -0.758216 1.4047e-20)
(0.984659 -0.679859 -3.14579e-21)
(1.19567 -0.725413 -1.64111e-19)
(1.11659 -0.647488 7.10388e-20)
(1.34668 -0.688747 -1.62162e-19)
(1.26307 -0.612466 -2.90814e-19)
(1.50657 -0.649017 4.87609e-20)
(1.42039 -0.576618 4.60961e-20)
(1.66976 -0.605377 -1.19529e-19)
(1.58465 -0.539897 2.86297e-20)
(1.83025 -0.556431 -1.18644e-19)
(1.75082 -0.500048 -1.34684e-19)
(1.89362 -0.456297 8.56851e-20)
(1.98181 -0.496994 -1.70862e-19)
(0.64854 -0.794754 -4.53008e-20)
(0.61326 -0.813298 -1.43455e-19)
(0.713464 -0.670292 5.63492e-20)
(0.67472 -0.609229 1.72724e-20)
(0.801666 -0.632827 -1.43156e-19)
(0.741637 -0.560009 -8.82599e-20)
(0.907222 -0.60295 -1.15111e-20)
(0.844892 -0.526477 6.14351e-20)
(1.02939 -0.570836 4.59727e-20)
(0.96049 -0.492681 -6.05491e-20)
(1.16736 -0.536802 -1.78829e-20)
(1.09393 -0.457462 7.13056e-20)
(1.31872 -0.503062 -1.16251e-19)
(1.24251 -0.423634 -2.32383e-20)
(1.4791 -0.470855 2.83927e-20)
(1.40201 -0.393771 -1.18599e-19)
(1.64263 -0.438992 3.18675e-20)
(1.56756 -0.36794 2.88172e-20)
(1.80349 -0.404545 3.6294e-20)
(1.7345 -0.34283 -1.60232e-20)
(1.87893 -0.314788 5.28872e-20)
(1.95572 -0.360105 4.50762e-19)
(0.620418 -0.644195 -9.63253e-20)
(0.609152 -0.662688 -7.59969e-20)
(0.688204 -0.501719 -1.19606e-19)
(0.649262 -0.440261 -1.04283e-19)
(0.778283 -0.454683 1.03247e-19)
(0.721912 -0.381182 -3.92392e-20)
(0.885796 -0.417766 2.53643e-20)
(0.826462 -0.34029 5.98968e-20)
(1.01076 -0.381183 -5.01071e-20)
(0.945192 -0.300705 -1.77187e-19)
(1.15242 -0.346273 7.54522e-20)
(1.08368 -0.263074 0)
(1.30788 -0.316285 -1.45363e-20)
(1.23833 -0.231579 1.41269e-21)
(1.47186 -0.292931 -1.34053e-19)
(1.40355 -0.209584 -4.31929e-20)
(1.63749 -0.274399 -1.43193e-20)
(1.57247 -0.19702 -2.54137e-21)
(1.79857 -0.255939 -9.0649e-21)
(1.74054 -0.188921 8.37804e-21)
(1.88533 -0.177003 -2.66973e-20)
(1.95143 -0.227854 -4.54821e-19)
(0.605807 -0.4904 -8.11113e-20)
(0.605042 -0.529854 -5.68235e-20)
(0.671393 -0.328623 -2.87732e-20)
(0.625616 -0.275017 1.13891e-19)
(0.761842 -0.270791 -9.32742e-20)
(0.706716 -0.199331 3.64003e-20)
(0.872495 -0.226066 -1.18246e-19)
(0.814816 -0.147275 0)
(1.00308 -0.184929 -1.45747e-19)
(0.940375 -0.100523 1.00336e-19)
(1.15238 -0.150069 -7.59509e-20)
(1.08861 -0.0606658 -7.10519e-20)
(1.31587 -0.126014 -2.36697e-20)
(1.25379 -0.033644 -8.51418e-20)
(1.48616 -0.114595 8.63044e-20)
(1.42786 -0.0233203 2.16329e-19)
(1.65472 -0.112662 1.7899e-20)
(1.60117 -0.0282647 -3.26092e-20)
(1.81452 -0.112869 -1.72422e-21)
(1.7691 -0.0413375 -1.11999e-19)
(1.91162 -0.049786 1.9006e-20)
(1.96195 -0.104377 -2.64713e-20)
(0.5865 -0.336605 1.29632e-19)
(0.606034 -0.381665 -2.47632e-20)
(0.655069 -0.151171 1.90215e-19)
(0.601746 -0.0997152 5.42786e-22)
(0.750309 -0.078779 1.38045e-19)
(0.696849 -0.00545673 2.0316e-19)
(0.868421 -0.0241715 2.12937e-19)
(0.813113 0.0591231 0)
(1.00986 0.0219064 1.99207e-19)
(0.951364 0.113576 1.79367e-19)
(1.17198 0.0547602 -7.87107e-20)
(1.11513 0.153629 -8.82464e-20)
(1.34733 0.0687995 1.22041e-19)
(1.29514 0.171463 9.57025e-20)
(1.5255 0.0632417 1.27613e-19)
(1.47978 0.163887 1.37216e-19)
(1.6964 0.0438801 -1.55721e-19)
(1.65646 0.135675 -8.40517e-20)
(1.85384 0.0215282 -1.00911e-19)
(1.82135 0.0976692 1.73835e-20)
(1.95869 0.0669765 5.88581e-20)
(1.99652 0.00789936 -7.21898e-20)
(0.568051 -0.170122 -1.58791e-19)
(0.614286 -0.218407 -1.91309e-20)
(0.643425 0.0396428 -1.13349e-20)
(0.582923 0.0934202 -2.50089e-20)
(0.748232 0.128918 8.63173e-20)
(0.698738 0.207683 -3.39355e-20)
(0.880027 0.194063 -5.75046e-20)
(0.82982 0.285822 -4.76833e-20)
(1.0388 0.243119 -8.50569e-20)
(0.98852 0.345914 -4.42482e-20)
(1.21902 0.269249 6.92604e-20)
(1.17445 0.3805 -3.76788e-20)
(1.40878 0.266663 1.06283e-19)
(1.37252 0.380831 7.85858e-20)
(1.59397 0.237397 -4.80177e-20)
(1.56631 0.346747 -2.13197e-20)
(1.76375 0.191684 6.32735e-20)
(1.74153 0.289031 4.46193e-20)
(1.91419 0.144612 1.54428e-19)
(1.89662 0.223416 1.75435e-19)
(2.02499 0.171183 -5.77023e-20)
(2.04949 0.108309 1.02188e-19)
(0.558558 0.017063 1.20765e-19)
(0.635166 -0.0345445 6.95117e-20)
(0.643921 0.251694 -4.61659e-20)
(0.575096 0.309994 2.47125e-20)
(0.764754 0.359886 -1.74508e-19)
(0.722655 0.447786 -1.18258e-19)
(0.918807 0.434252 -3.48525e-20)
(0.879739 0.538945 -9.09164e-21)
(1.10361 0.480601 1.04992e-21)
(1.06929 0.598514 -5.33475e-22)
(1.30723 0.490517 -3.76748e-20)
(1.28319 0.615943 -1.04144e-19)
(1.51093 0.460863 -1.52682e-20)
(1.49797 0.58536 5.04563e-20)
(1.69754 0.399821 4.7397e-20)
(1.69341 0.514376 -2.13693e-20)
(1.85805 0.323758 1.37799e-19)
(1.85727 0.421999 8.21716e-20)
(1.99247 0.251739 -9.65927e-21)
(1.99202 0.328142 -2.50583e-20)
(2.10187 0.252568 -1.5453e-20)
(2.10617 0.19608 -4.46377e-20)
(0.562066 0.231343 -1.99759e-20)
(0.681042 0.180677 0)
(0.666799 0.494401 -2.46448e-20)
(0.590315 0.568631 2.37924e-20)
(0.815452 0.621156 4.5495e-20)
(0.792249 0.7232 -2.18098e-20)
(1.00444 0.698498 3.7743e-20)
(0.991034 0.820219 5.02829e-20)
(1.2239 0.729421 -9.50402e-20)
(1.22092 0.863159 1.59952e-19)
(1.45119 0.707726 -3.66925e-20)
(1.46091 0.843378 -2.1261e-19)
(1.66104 0.638376 6.60682e-20)
(1.6807 0.765815 1.36674e-19)
(1.83723 0.538878 -2.13602e-20)
(1.86201 0.650289 0)
(1.9768 0.431291 -5.4686e-20)
(2.00022 0.522993 -1.59242e-20)
(2.08653 0.335747 -8.70331e-21)
(2.104 0.405227 -3.14928e-20)
(2.18821 0.311213 5.06938e-20)
(2.17906 0.265635 2.51367e-20)
(0.599926 0.506307 4.86994e-20)
(0.814131 0.457847 0)
(0.73854 0.777115 -5.44985e-21)
(0.689208 0.853007 5.29371e-20)
(0.932482 0.915957 -2.38165e-20)
(0.950316 1.036 -1.26832e-19)
(1.17114 0.977272 1.59153e-19)
(1.21167 1.11243 0)
(1.42641 0.968815 9.95193e-20)
(1.47685 1.10595 1.75977e-19)
(1.66491 0.895946 -1.91877e-20)
(1.72147 1.02456 -1.26349e-19)
(1.86189 0.777292 4.12042e-20)
(1.91991 0.890324 3.6624e-20)
(2.00974 0.638996 3.17347e-20)
(2.06477 0.73303 0)
(2.11501 0.504745 3.99974e-20)
(2.16227 0.579603 3.56803e-20)
(2.19095 0.391895 5.26418e-21)
(2.22616 0.447778 0)
(2.27493 0.345923 5.95307e-21)
(2.24838 0.306644 4.38969e-21)
(0.655659 0.688852 0)
(1.11463 0.820088 2.42759e-19)
(0.852497 1.07481 -9.18116e-20)
(0.86792 1.26019 7.02381e-19)
(1.14912 1.20162 -1.15029e-19)
(1.36615 1.31723 8.02042e-19)
(1.44827 1.21371 0)
(1.62677 1.30922 -1.21901e-18)
(1.72148 1.14049 -9.65819e-20)
(1.86486 1.22754 3.6278e-19)
(1.94164 1.00746 -1.21754e-19)
(2.05924 1.08566 2.90968e-20)
(2.09913 0.845067 0)
(2.19774 0.91338 1.5063e-19)
(2.20111 0.680696 0)
(2.28453 0.738158 0)
(2.26243 0.533312 0)
(2.33093 0.579462 -7.89768e-20)
(2.3001 0.41498 0)
(2.35044 0.449606 0)
(2.36094 0.354904 1.11754e-20)
(2.34049 0.337169 0)
(1.40737 1.65928 8.50598e-19)
(3.39735 1.22247 1.18498e-18)
(1.73248 1.5772 1.02459e-18)
(1.65732 1.00314 4.3299e-18)
(1.92913 1.51311 -1.41406e-19)
(1.81054 1.01005 -1.13712e-18)
(2.10779 1.38439 -1.0596e-18)
(2.02862 1.05035 -3.02307e-18)
(2.25329 1.21344 5.13201e-19)
(2.21679 1.01095 1.65222e-18)
(2.34814 1.02199 2.79455e-19)
(2.34846 0.905672 -5.26015e-19)
(2.39921 0.832235 1.65909e-19)
(2.43326 0.771607 2.9443e-19)
(2.4195 0.659219 -6.87473e-20)
(2.47619 0.632393 2.82197e-20)
(2.41811 0.512889 -8.7557e-20)
(2.48262 0.501588 5.21634e-20)
(2.40601 0.402552 9.76972e-21)
(2.46185 0.393874 1.4398e-20)
(2.43402 0.324753 4.93057e-20)
(2.4083 0.334207 -1.32104e-19)
(6.09753 -0.935636 1.76152e-18)
(5.77626 -2.04641 2.06507e-18)
(6.41732 -1.41843 3.54947e-18)
(5.06565 -0.80224 3.47622e-18)
(6.47257 -1.44212 -1.1814e-18)
(5.84177 -0.800256 -2.62427e-18)
(6.28525 -1.31995 2.61447e-19)
(6.20855 -0.847161 3.95139e-19)
(5.92902 -1.14709 3.63662e-20)
(6.13717 -0.775656 0)
(5.51819 -0.945861 1.99228e-19)
(5.83806 -0.665721 3.73422e-20)
(5.14934 -0.743617 -9.81591e-20)
(5.47785 -0.558999 -1.62212e-20)
(4.83813 -0.578021 5.51432e-22)
(5.08987 -0.430412 4.31764e-21)
(4.56321 -0.437003 -8.50286e-20)
(4.77244 -0.31587 -1.43481e-19)
(4.31491 -0.323407 -2.61703e-20)
(4.48515 -0.210633 -9.06201e-20)
(4.23055 -0.13441 -6.8822e-21)
(4.06748 -0.246143 1.01648e-19)
(3.71446 -1.28531 3.3861e-18)
(2.9112 -3.44202 1.86965e-18)
(4.76136 -0.74968 1.60277e-18)
(3.35302 -1.66137 1.41714e-18)
(5.46493 -0.563513 -1.70929e-18)
(4.56478 -0.820272 -1.26631e-18)
(5.88198 -0.507033 -2.62555e-19)
(5.3549 -0.468385 -2.23802e-19)
(5.98572 -0.463494 0)
(5.76312 -0.254458 0)
(5.80619 -0.399588 0)
(5.8485 -0.127732 0)
(5.4555 -0.314701 0)
(5.68527 -0.062024 0)
(5.06854 -0.219341 -1.18629e-19)
(5.32519 -0.00367936 -3.19104e-19)
(4.73412 -0.126629 -2.10885e-19)
(4.95186 0.0421819 2.25626e-19)
(4.43894 -0.0490147 -7.39444e-20)
(4.61325 0.0989052 9.21904e-20)
(4.32911 0.140613 3.89089e-21)
(4.14394 0.00276396 -6.67231e-20)
(2.54762 -3.43735 2.61302e-19)
(1.89519 -5.39619 1.06018e-18)
(3.39941 -1.72902 -3.0357e-19)
(2.60373 -3.27846 -2.6742e-19)
(4.31934 -0.786363 0)
(3.49006 -1.79319 3.47098e-19)
(5.06667 -0.29542 0)
(4.371 -0.824208 -2.50507e-19)
(5.54065 -0.023923 0)
(5.06722 -0.198301 -5.99324e-19)
(5.69901 0.11346 0)
(5.48486 0.174421 -4.27911e-19)
(5.57137 0.1715 -2.76402e-19)
(5.59804 0.356483 -4.29071e-19)
(5.24807 0.200447 -1.33976e-19)
(5.4177 0.426741 -4.77308e-19)
(4.8769 0.228675 5.30361e-19)
(5.08016 0.436762 6.82721e-19)
(4.54081 0.266939 2.09954e-19)
(4.71407 0.443142 -1.19982e-19)
(4.40495 0.439963 2.20977e-19)
(4.23617 0.298344 -1.95499e-19)
(2.07922 -5.47113 7.28372e-19)
(1.8843 -6.43104 1.84208e-18)
(2.71108 -3.37178 3.03434e-19)
(2.16451 -4.94455 -4.48475e-19)
(3.50761 -1.79761 1.46234e-19)
(2.82684 -3.08781 -3.26872e-19)
(4.2942 -0.728685 -7.98016e-19)
(3.62964 -1.63045 2.28763e-19)
(4.93975 -0.033987 -9.57858e-19)
(4.3922 -0.566529 -2.72337e-19)
(5.34167 0.373108 -8.4588e-19)
(4.98301 0.157273 6.91492e-19)
(5.45103 0.565949 -6.19246e-19)
(5.31333 0.584885 4.08962e-19)
(5.29054 0.621357 -1.86426e-19)
(5.33614 0.783181 2.2184e-19)
(4.96878 0.614792 -1.40121e-19)
(5.11548 0.824569 1.15128e-19)
(4.61388 0.598251 -2.87367e-19)
(4.76968 0.804138 -3.02799e-19)
(4.43977 0.758628 2.18476e-19)
(4.27389 0.561421 3.05705e-19)
(1.93892 -6.18049 9.02975e-19)
(1.97622 -6.63558 2.27382e-18)
(2.24173 -4.86796 -1.08742e-18)
(2.01992 -5.95071 -2.08615e-18)
(2.90581 -3.03076 -3.13485e-19)
(2.3758 -4.45192 1.18851e-18)
(3.66385 -1.5279 8.02988e-19)
(3.05801 -2.68508 4.08249e-21)
(4.3652 -0.413281 1.22001e-18)
(3.81023 -1.22723 3.94942e-19)
(4.89912 0.340652 1.80114e-18)
(4.47301 -0.134879 1.65497e-18)
(5.18373 0.778401 1.20835e-18)
(4.93786 0.599396 3.20141e-19)
(5.18997 0.965819 4.29453e-19)
(5.12646 1.01151 -1.04993e-18)
(4.97093 0.993283 0)
(5.04195 1.16414 0)
(4.64053 0.952119 0)
(4.76335 1.16381 3.453e-19)
(4.43166 1.09687 3.18506e-19)
(4.2826 0.860738 6.71374e-19)
(2.04178 -6.50357 -2.61346e-19)
(2.06207 -6.88156 2.86548e-18)
(2.09231 -5.7326 -8.11099e-20)
(2.10747 -6.37536 -2.82823e-18)
(2.48493 -4.30313 1.68984e-18)
(2.2036 -5.46706 1.05059e-18)
(3.14442 -2.52768 -4.32466e-19)
(2.63794 -3.83241 -4.57098e-19)
(3.84506 -1.0441 6.71199e-19)
(3.31356 -2.09544 4.32239e-19)
(4.44352 0.0649134 3.0036e-19)
(3.98949 -0.652206 1.52586e-19)
(4.84156 0.798962 -1.79998e-18)
(4.5271 0.41356 -4.58448e-19)
(4.98281 1.19317 -1.57346e-18)
(4.83169 1.09341 -7.45692e-19)
(4.87657 1.32486 3.04866e-19)
(4.86891 1.42295 -4.4232e-19)
(4.60562 1.30084 6.64009e-19)
(4.67635 1.49649 2.20515e-19)
(4.37181 1.42923 3.15936e-19)
(4.25599 1.14922 -6.9916e-20)
(2.14636 -6.80554 9.39023e-19)
(2.12804 -7.16019 1.32015e-18)
(2.1747 -6.22325 -2.11235e-18)
(2.2215 -6.7189 -6.31298e-19)
(2.31164 -5.18172 -9.92317e-19)
(2.24377 -6.04154 -6.18038e-19)
(2.77125 -3.57701 3.14027e-19)
(2.44009 -4.83433 2.36784e-19)
(3.39737 -1.84791 -3.33034e-20)
(2.933 -3.0699 2.45882e-21)
(4.00282 -0.406875 -5.24954e-19)
(3.55446 -1.3469 -4.74618e-19)
(4.46172 0.643841 5.80042e-19)
(4.10912 0.0483011 -2.28061e-20)
(4.69742 1.29162 3.07552e-19)
(4.4797 1.02732 6.69228e-19)
(4.69026 1.58496 -5.89435e-19)
(4.60814 1.58242 -4.41192e-19)
(4.48773 1.62422 -1.41313e-19)
(4.49997 1.78351 1.10873e-19)
(4.25969 1.73666 0)
(4.18957 1.50345 1.17388e-18)
(2.22642 -7.11786 -3.43132e-20)
(2.17733 -7.45557 -3.95298e-19)
(2.26832 -6.6138 8.82448e-19)
(2.31734 -7.05555 2.97595e-19)
(2.33762 -5.82941 5.29344e-19)
(2.33159 -6.45651 1.45539e-18)
(2.57371 -4.51742 -4.23366e-20)
(2.42 -5.53451 3.38631e-20)
(3.0514 -2.74583 -3.77566e-19)
(2.69665 -4.00075 -1.06959e-18)
(3.59991 -1.03533 -2.03755e-20)
(3.18793 -2.1449 0)
(4.06541 0.332091 -8.58695e-21)
(3.69976 -0.461426 -2.28893e-20)
(4.35158 1.26069 1.89241e-20)
(4.08598 0.822361 -1.37424e-19)
(4.41855 1.7581 2.10759e-19)
(4.26862 1.63142 -2.10291e-19)
(4.28494 1.90538 2.64034e-19)
(4.23058 2.00134 1.85589e-19)
(4.06288 2.03937 1.4276e-19)
(4.01429 1.84844 -7.11798e-19)
(2.29402 -7.43937 -1.27913e-19)
(2.22183 -7.75111 -1.69309e-18)
(2.349 -6.97851 7.45922e-19)
(2.39567 -7.39626 1.2948e-18)
(2.40853 -6.27193 1.12522e-18)
(2.3965 -6.84082 1.18004e-18)
(2.51263 -5.19568 -9.03065e-19)
(2.45511 -6.02009 -2.18367e-19)
(2.81289 -3.60318 -8.07122e-19)
(2.58196 -4.76529 -7.32555e-19)
(3.24155 -1.75326 0)
(2.89821 -2.95326 0)
(3.66016 -0.110304 -1.37895e-19)
(3.3057 -1.07581 4.39673e-19)
(3.95196 1.10291 -3.58922e-19)
(3.65542 0.490421 -3.31475e-19)
(4.06326 1.82787 -2.9476e-19)
(3.852 1.56138 -9.15933e-21)
(4.00078 2.11591 4.66015e-20)
(3.86226 2.11636 -3.26365e-19)
(3.75077 2.2464 8.28745e-20)
(3.82287 2.10358 8.39617e-20)
(2.35328 -7.74918 -6.60623e-19)
(2.26518 -8.03978 7.30984e-20)
(2.40543 -7.3327 1.74776e-18)
(2.45851 -7.71052 1.59321e-18)
(2.45233 -6.67872 0)
(2.42596 -7.19968 1.20741e-18)
(2.51456 -5.73444 0)
(2.46742 -6.43934 -9.47918e-19)
(2.65569 -4.32185 0)
(2.51494 -5.34829 7.92128e-19)
(2.93585 -2.48289 3.937e-19)
(2.66388 -3.70148 -2.96484e-19)
(3.24929 -0.649124 3.18309e-19)
(2.92933 -1.73785 9.22386e-19)
(3.49892 0.825213 -1.02465e-20)
(3.18877 0.0486397 1.5027e-19)
(3.61804 1.78059 -4.04721e-21)
(3.35547 1.36851 -5.58011e-19)
(3.60194 2.22632 -3.26732e-19)
(3.38974 2.11628 -5.91514e-19)
(3.33001 2.36608 -6.46177e-20)
(3.47705 2.33457 1.58696e-18)
(2.38709 -8.02152 2.08929e-18)
(2.28551 -8.24648 1.66862e-18)
(2.4335 -7.6562 1.08942e-18)
(2.48533 -7.99655 0)
(2.45571 -7.04706 5.16684e-19)
(2.41902 -7.526 2.44271e-18)
(2.47953 -6.17797 -3.37128e-19)
(2.43012 -6.82078 -1.42111e-18)
(2.52019 -4.91717 6.28428e-19)
(2.42366 -5.82746 3.87038e-19)
(2.6547 -3.18021 1.01983e-19)
(2.4368 -4.36875 -1.93991e-18)
(2.82914 -1.24697 8.1119e-19)
(2.55437 -2.41238 1.51143e-18)
(2.98647 0.433352 -4.17825e-19)
(2.68269 -0.479461 3.27374e-19)
(3.08085 1.60307 -1.14284e-18)
(2.78029 1.04361 -3.32178e-20)
(3.09784 2.21259 -3.64665e-19)
(2.81604 1.97276 -4.02416e-19)
(2.8013 2.34783 -7.74075e-19)
(3.0431 2.41094 1.23808e-18)
(2.41129 -8.24837 -2.62805e-19)
(2.28425 -8.44048 1.5901e-20)
(2.43518 -7.93251 1.10724e-18)
(2.47133 -8.22903 4.25835e-20)
(2.4147 -7.372 9.74617e-19)
(2.37711 -7.78806 6.38001e-19)
(2.38987 -6.57849 -8.85275e-19)
(2.33919 -7.15028 -4.49646e-19)
(2.36058 -5.44404 -1.94696e-18)
(2.27407 -6.24851 -1.97927e-20)
(2.35545 -3.82947 -9.98033e-19)
(2.17839 -4.94886 -2.84631e-19)
(2.38083 -1.87999 1.14128e-18)
(2.15803 -3.07778 -4.842e-20)
(2.41867 -0.0619141 6.70414e-19)
(2.13571 -1.08102 7.87355e-19)
(2.45749 1.28326 6.72866e-19)
(2.13463 0.583797 1.68476e-19)
(2.4945 2.03935 -7.37689e-19)
(2.14939 1.66018 -4.4085e-20)
(2.20222 2.13261 2.61703e-20)
(2.54195 2.34535 1.97694e-18)
(2.40451 -8.42642 4.89898e-19)
(2.28131 -8.58137 -3.06034e-18)
(2.38878 -8.14703 -5.66264e-19)
(2.42484 -8.38672 1.53517e-18)
(2.32501 -7.63706 -6.50645e-19)
(2.29887 -7.98817 5.08011e-20)
(2.24109 -6.92299 3.73415e-19)
(2.19375 -7.41755 -1.97073e-18)
(2.1357 -5.90137 1.69333e-18)
(2.05329 -6.61708 4.07319e-19)
(2.01374 -4.41667 6.23411e-19)
(1.86355 -5.47501 2.7952e-18)
(1.90295 -2.52266 -4.94751e-19)
(1.69597 -3.75504 -3.2951e-18)
(1.79832 -0.649355 2.15921e-19)
(1.54664 -1.74021 7.9008e-19)
(1.75928 0.810507 -6.50142e-19)
(1.43524 -0.010629 1.60072e-18)
(1.79892 1.68179 6.97473e-19)
(1.41684 1.16727 -7.88273e-19)
(1.54016 1.75293 1.56684e-18)
(1.88579 2.08829 -1.4963e-19)
(2.37475 -8.53248 -2.48703e-18)
(2.26235 -8.63585 -3.77982e-18)
(2.31078 -8.28635 2.21757e-18)
(2.33133 -8.46689 1.49266e-18)
(2.18981 -7.83168 -1.07538e-18)
(2.17167 -8.11049 6.37443e-19)
(2.03116 -7.20025 -2.19702e-18)
(1.99299 -7.60467 -1.49987e-18)
(1.83061 -6.30805 1.25933e-18)
(1.76426 -6.90628 1.68176e-18)
(1.58763 -5.00163 -3.7027e-19)
(1.47718 -5.93128 8.43555e-20)
(1.35922 -3.22 -2.45107e-18)
(1.15833 -4.47118 -1.11704e-18)
(1.13948 -1.33886 1.95393e-18)
(0.93797 -2.48927 1.58864e-18)
(1.0261 0.178079 1.43746e-18)
(0.727237 -0.745114 3.12998e-20)
(1.07245 1.13887 -1.82096e-19)
(0.680921 0.482135 1.10979e-18)
(0.848002 1.16698 -4.23459e-19)
(1.22757 1.61475 3.23127e-18)
(2.30129 -8.5667 -5.15826e-19)
(2.22581 -8.61903 -4.67744e-19)
(2.18461 -8.34371 0)
(2.18986 -8.46876 0)
(2.00106 -7.94023 4.50494e-19)
(1.99009 -8.14945 0)
(1.76342 -7.38647 2.06199e-18)
(1.73585 -7.70596 5.00992e-19)
(1.46848 -6.62912 7.46397e-19)
(1.41929 -7.10432 2.43199e-18)
(1.11555 -5.54942 -4.63741e-19)
(1.04144 -6.28871 -1.32389e-18)
(0.751252 -3.95897 2.6594e-18)
(0.623295 -5.13377 1.11975e-18)
(0.488505 -2.1105 -2.04264e-19)
(0.334839 -3.40099 -1.91219e-19)
(0.33508 -0.600037 -7.54826e-19)
(0.0797841 -1.6196 -1.13197e-18)
(0.374481 0.409362 8.44259e-19)
(0.00980327 -0.361083 -9.98812e-20)
(0.226665 0.378541 -1.02783e-18)
(0.614441 0.958556 -9.24527e-19)
(2.18733 -8.51903 0)
(2.16049 -8.50646 -4.12162e-19)
(2.008 -8.31312 0)
(2.00282 -8.37365 0)
(1.75425 -7.95963 0)
(1.74805 -8.09614 1.11278e-18)
(1.43539 -7.4792 6.72429e-19)
(1.41647 -7.72502 1.06976e-19)
(1.05344 -6.83484 8.28931e-19)
(1.02126 -7.23132 -9.86287e-21)
(0.624073 -5.96672 0)
(0.580453 -6.57286 -1.1582e-18)
(0.190553 -4.74845 -1.41605e-18)
(0.13006 -5.67493 0)
(-0.13857 -3.10538 -1.34908e-18)
(-0.2255 -4.35469 1.24579e-19)
(-0.303465 -1.52739 -1.01548e-18)
(-0.469386 -2.68929 1.31243e-19)
(-0.214451 -0.49889 -1.60488e-18)
(-0.530901 -1.37509 -2.80611e-18)
(-0.226056 -0.597506 1.04095e-18)
(0.0959665 0.215884 1.45112e-19)
(2.02334 -8.36257 -4.51262e-19)
(2.04212 -8.26726 1.69283e-18)
(1.77189 -8.17739 9.96366e-19)
(1.76006 -8.15583 -1.26087e-18)
(1.44213 -7.88693 1.33323e-18)
(1.43321 -7.93454 6.37103e-19)
(1.04633 -7.50444 -4.48295e-19)
(1.02214 -7.6596 1.07053e-18)
(0.599891 -7.00263 -1.73407e-18)
(0.560896 -7.30624 -7.00963e-19)
(0.13311 -6.33045 -1.28108e-18)
(0.0916437 -6.83525 -1.15518e-18)
(-0.315043 -5.4012 1.30653e-18)
(-0.336804 -6.17771 0)
(-0.66495 -4.13471 9.00953e-19)
(-0.67472 -5.21906 2.54516e-18)
(-0.791412 -2.68526 -1.10243e-18)
(-0.876535 -3.88253 -1.61954e-18)
(-0.678949 -1.57615 -8.78439e-20)
(-0.920936 -2.56216 -5.57881e-19)
(-0.538511 -1.63021 5.99999e-19)
(-0.313837 -0.924275 9.38398e-19)
(1.78857 -8.06488 1.09847e-18)
(1.84084 -7.88095 2.04535e-18)
(1.45731 -7.91046 -1.79624e-18)
(1.43678 -7.78944 -1.76944e-18)
(1.04715 -7.70608 2.65878e-19)
(1.01751 -7.6477 1.24608e-19)
(0.58144 -7.45829 9.57764e-19)
(0.528179 -7.50582 1.50723e-19)
(0.0951511 -7.14272 0)
(0.025667 -7.33625 0)
(-0.36311 -6.70867 0)
(-0.42603 -7.09233 0)
(-0.746013 -6.07273 9.62069e-19)
(-0.773318 -6.69834 0)
(-1.01369 -5.13315 -5.79511e-21)
(-0.993292 -6.05536 1.07963e-18)
(-1.10164 -3.91858 -8.95547e-19)
(-1.08734 -5.04207 -8.07463e-19)
(-0.93705 -2.77568 0)
(-1.07984 -3.86381 -3.60711e-19)
(-0.613591 -2.74653 0)
(-0.559291 -1.94071 0)
(1.45486 -7.58853 -4.70903e-19)
(1.48953 -7.31762 -1.41978e-18)
(1.02926 -7.49145 -1.37759e-19)
(0.969587 -7.24537 2.40154e-18)
(0.537644 -7.41588 -8.8261e-20)
(0.448909 -7.22371 -7.87324e-19)
(0.0235379 -7.35443 -7.80243e-19)
(-0.0887066 -7.26011 1.70586e-18)
(-0.456303 -7.27077 0)
(-0.563836 -7.30384 -5.48784e-19)
(-0.840417 -7.10161 0)
(-0.904403 -7.28949 -8.80809e-19)
(-1.08525 -6.75121 0)
(-1.0628 -7.12242 1.28576e-18)