/*--------------------------------*- C++ -*----------------------------------*\
| =========                 |                                                 |
| \\      /  F ield         | OpenFOAM: The Open Source CFD Toolbox           |
|  \\    /   O peration     | Version:  3.0.1                                 |
|   \\  /    A nd           | Web:      www.OpenFOAM.org                      |
|    \\/     M anipulation  |                                                 |
\*---------------------------------------------------------------------------*/
FoamFile
{
    version     2.0;
    format      ascii;
    class       volScalarField;
    location    "0.919037";
    object      k;
}
// * * * * * * * * * * * * * * * * * * * * * * * * * * * * * * * * * * * * * //

dimensions      [0 2 -2 0 0 0 0];

internalField   nonuniform List<scalar> 
21246
(
0.691503
1.00816
0.605956
0.376315
0.214556
0.121308
0.0726358
0.0488224
0.0373566
0.0313538
0.0278563
0.675798
0.970608
0.661309
0.439953
0.26294
0.15004
0.0868178
0.0548327
0.039969
0.0327719
0.0289066
0.618758
0.803736
0.656191
0.472583
0.307188
0.177054
0.10305
0.0629543
0.0438026
0.0349449
0.0306858
0.532168
0.675631
0.624942
0.480629
0.332847
0.204915
0.118865
0.0720789
0.0485976
0.0377826
0.0329652
0.435169
0.594626
0.589691
0.481075
0.351341
0.228346
0.137742
0.082347
0.0542717
0.0412543
0.0356463
0.341283
0.538911
0.557876
0.480921
0.368879
0.25178
0.157789
0.0959742
0.0618617
0.0454251
0.0386779
0.256866
0.495819
0.532011
0.481033
0.386064
0.276255
0.180335
0.112265
0.0719676
0.0513415
0.0424223
0.186019
0.463008
0.514328
0.481839
0.401986
0.300734
0.204974
0.131582
0.0847362
0.0591873
0.047386
0.138612
0.446865
0.509266
0.485601
0.416906
0.324402
0.23082
0.153704
0.100543
0.0694196
0.053854
0.129228
0.454169
0.521755
0.497503
0.433617
0.347725
0.257263
0.178094
0.119448
0.0824326
0.0623141
0.134657
0.460579
0.550597
0.525147
0.457856
0.372914
0.284184
0.203931
0.140964
0.0983151
0.0731752
0.127374
0.430399
0.573751
0.568444
0.495471
0.404038
0.312835
0.230819
0.164396
0.116793
0.086673
0.109572
0.362868
0.553833
0.605857
0.544539
0.444841
0.346031
0.259646
0.189547
0.137566
0.102797
0.0893889
0.286223
0.485061
0.604481
0.588602
0.49318
0.385613
0.291827
0.216784
0.160512
0.121453
0.0723899
0.221566
0.394544
0.55189
0.602994
0.53677
0.428405
0.32708
0.246065
0.185412
0.142502
0.0599508
0.172925
0.305864
0.462727
0.571205
0.557235
0.465334
0.362274
0.276461
0.211902
0.165719
0.0516121
0.138207
0.231445
0.363475
0.497731
0.54021
0.48337
0.390434
0.304882
0.238667
0.190491
0.0466561
0.116301
0.178944
0.275461
0.40323
0.485865
0.472542
0.402596
0.325757
0.262424
0.215047
0.0442277
0.103548
0.145438
0.208381
0.309106
0.407263
0.432101
0.392389
0.332786
0.278452
0.235252
0.0430848
0.0958247
0.12433
0.166362
0.232793
0.321022
0.370793
0.359066
0.320848
0.280593
0.245602
0.042668
0.0901347
0.109745
0.139752
0.184219
0.246047
0.302144
0.307868
0.288162
0.263135
0.238657
0.0442142
0.0865345
0.104638
0.128821
0.159968
0.2009
0.24221
0.250714
0.24067
0.226032
0.210116
0.0643031
0.140367
0.161618
0.170175
0.18004
0.198775
0.214498
0.21585
0.204128
0.190055
0.17612
0.139298
0.140318
0.133341
0.13838
0.152008
0.173331
0.197895
0.210024
0.201281
0.18298
0.167841
0.631718
0.774693
0.533101
0.311574
0.177773
0.10486
0.0661875
0.0464166
0.0363313
0.0307233
0.027205
0.455775
0.607636
0.459786
0.306437
0.185597
0.112146
0.0708095
0.0489018
0.0376422
0.031454
0.0276298
0.417208
0.55342
0.428148
0.321807
0.212633
0.13142
0.0812285
0.0540793
0.0403238
0.0330085
0.028623
0.393439
0.501888
0.39879
0.32237
0.228088
0.148691
0.0935707
0.0614925
0.0445551
0.0355814
0.0303794
0.37502
0.448139
0.373949
0.311954
0.227027
0.153358
0.100636
0.0681149
0.049917
0.0397663
0.0335636
0.359226
0.40268
0.351534
0.298563
0.222505
0.154737
0.10419
0.0718898
0.053376
0.0429682
0.0366284
0.345208
0.366641
0.332028
0.28533
0.216545
0.154342
0.106581
0.075153
0.0566601
0.0462185
0.0400377
0.332813
0.338196
0.315229
0.273653
0.210902
0.153603
0.108552
0.0781555
0.0598006
0.049286
0.0431571
0.322021
0.31564
0.30118
0.264127
0.206679
0.153519
0.110766
0.0812695
0.0629849
0.0522601
0.0459755
0.312693
0.297428
0.289739
0.256843
0.204382
0.154617
0.113761
0.084943
0.0665747
0.0553931
0.0485799
0.304546
0.28259
0.280488
0.251762
0.204198
0.157374
0.11807
0.0896999
0.0710555
0.0590947
0.0511417
0.297373
0.269988
0.272674
0.248563
0.205877
0.161955
0.124125
0.0961353
0.0771572
0.0642156
0.0545323
0.291093
0.258913
0.26611
0.247076
0.209459
0.168664
0.132447
0.104977
0.0858529
0.0720558
0.0605029
0.285343
0.24887
0.260223
0.246865
0.214912
0.177783
0.143535
0.116944
0.0981572
0.0841184
0.0710521
0.27968
0.2397
0.25415
0.246503
0.220913
0.18849
0.15733
0.132446
0.114658
0.101156
0.0876152
0.274078
0.231062
0.247663
0.245663
0.226976
0.200299
0.17334
0.151165
0.135146
0.122935
0.109907
0.268459
0.22263
0.240438
0.243851
0.232392
0.21238
0.190712
0.172251
0.158754
0.14844
0.136968
0.26269
0.2141
0.232118
0.240422
0.236164
0.223438
0.207947
0.194062
0.18368
0.175581
0.166149
0.256678
0.20516
0.222277
0.234596
0.237065
0.231762
0.222926
0.214127
0.207131
0.201199
0.193765
0.250384
0.195489
0.210412
0.225457
0.233643
0.235261
0.232948
0.229212
0.225427
0.221258
0.215215
0.243853
0.18471
0.195961
0.211984
0.224248
0.23152
0.234843
0.235514
0.234341
0.231428
0.226295
0.23758
0.172428
0.17832
0.19301
0.206958
0.217764
0.225076
0.228994
0.229676
0.227681
0.223995
0.232228
0.157833
0.156333
0.167134
0.17994
0.191608
0.201003
0.207582
0.210864
0.210683
0.209499
0.238107
0.141456
0.138709
0.147115
0.160185
0.175884
0.19177
0.202718
0.20444
0.198599
0.192824
0.493742
0.707829
0.604558
0.464127
0.326924
0.21471
0.135741
0.0847957
0.0525027
0.032182
0.019993
0.391313
0.581738
0.550421
0.440507
0.3148
0.208611
0.132343
0.0820742
0.0501689
0.0303893
0.0186235
0.295272
0.50423
0.504296
0.428698
0.319632
0.216785
0.138476
0.0854256
0.0515738
0.03087
0.0188605
0.244975
0.446123
0.467436
0.415381
0.322029
0.224549
0.145829
0.0908341
0.055119
0.0329305
0.0199134
0.210286
0.377248
0.414521
0.391635
0.320385
0.232377
0.154122
0.0966142
0.0583552
0.0342154
0.0199983
0.191658
0.332326
0.369118
0.357167
0.302777
0.227713
0.155128
0.0986989
0.0601488
0.0357544
0.0213925
0.180376
0.30187
0.336813
0.327613
0.280429
0.214636
0.149515
0.097346
0.0604931
0.0364286
0.0218774
0.173588
0.279968
0.311493
0.302941
0.260976
0.201842
0.142681
0.0944957
0.059779
0.0366828
0.0227664
0.168504
0.26274
0.290904
0.282308
0.243755
0.189737
0.135581
0.0911095
0.0586499
0.0366553
0.0230603
0.163994
0.24813
0.273749
0.265305
0.229394
0.17938
0.129244
0.0878725
0.0573642
0.0363178
0.0228933
0.15997
0.235531
0.259352
0.251321
0.217677
0.170912
0.123975
0.0850654
0.0561133
0.0358882
0.0230523
0.157029
0.225005
0.247345
0.239747
0.208076
0.164046
0.119733
0.0828028
0.0551031
0.0355654
0.0230444
0.154769
0.215989
0.23729
0.23032
0.200495
0.158816
0.116643
0.0812577
0.0545076
0.0354508
0.0230094
0.152619
0.207952
0.228816
0.222898
0.194972
0.155352
0.114851
0.0805559
0.0543947
0.0355741
0.0232887
0.151159
0.201074
0.221756
0.217109
0.191143
0.153428
0.114277
0.0806961
0.0547915
0.0359456
0.0234539
0.150263
0.194988
0.215908
0.212878
0.189056
0.153178
0.115076
0.0818166
0.0558046
0.0366497
0.0238404
0.149598
0.189269
0.211029
0.210218
0.18894
0.154928
0.117567
0.0841634
0.0575945
0.0377791
0.0244635
0.149437
0.183973
0.207021
0.209008
0.190795
0.158858
0.122018
0.0879893
0.0603687
0.0394821
0.0253054
0.150233
0.1789
0.203352
0.208731
0.194508
0.165344
0.128875
0.0936724
0.0644548
0.0420333
0.0267064
0.152101
0.173772
0.199786
0.208822
0.199118
0.173314
0.137879
0.1015
0.0702382
0.0458536
0.0289604
0.155337
0.168427
0.195909
0.208898
0.204109
0.182246
0.14846
0.111329
0.0780511
0.0515176
0.0326807
0.161446
0.161816
0.191706
0.208127
0.208272
0.190904
0.159828
0.123119
0.0885041
0.0599281
0.0388269
0.168902
0.156335
0.185469
0.206258
0.210896
0.19818
0.171064
0.136607
0.102135
0.0721666
0.0487577
0.19217
0.165506
0.194891
0.201609
0.205035
0.196946
0.176839
0.148621
0.117726
0.0885215
0.0638481
0.456208
0.628449
0.584369
0.494982
0.387196
0.268284
0.169724
0.105968
0.0648718
0.0390743
0.0238757
0.353861
0.46
0.507669
0.483022
0.415707
0.320961
0.222114
0.140947
0.0857637
0.0515519
0.030936
0.192254
0.416283
0.455704
0.455544
0.418856
0.34987
0.263109
0.178726
0.113449
0.0690606
0.0420202
0.200869
0.401044
0.482822
0.465055
0.427262
0.369362
0.293838
0.212624
0.141586
0.0900161
0.0575701
0.221314
0.407123
0.599141
0.584017
0.496779
0.410689
0.327176
0.244701
0.16999
0.111808
0.0739841
0.237105
0.401807
0.635235
0.786119
0.686298
0.526908
0.392928
0.286815
0.2012
0.135149
0.0906812
0.252088
0.393827
0.615863
0.869867
0.939058
0.754419
0.533026
0.36341
0.244911
0.162647
0.108992
0.267095
0.38838
0.584806
0.840679
1.08192
1.03574
0.765335
0.500906
0.31677
0.200554
0.130338
0.28186
0.387297
0.556154
0.784818
1.05164
1.21297
1.02718
0.697013
0.427059
0.255947
0.158235
0.296072
0.39063
0.533026
0.722322
0.964989
1.2203
1.22122
0.910051
0.567718
0.330145
0.194218
0.309751
0.399089
0.518452
0.663822
0.862103
1.12381
1.28381
1.07534
0.707522
0.412914
0.236071
0.323509
0.412052
0.511915
0.614648
0.76254
0.990557
1.22114
1.15357
0.809221
0.484267
0.276084
0.337959
0.430483
0.512882
0.578896
0.679084
0.857855
1.09977
1.14676
0.850639
0.525228
0.303692
0.35377
0.453816
0.519633
0.555485
0.614486
0.737981
0.948697
1.08241
0.831343
0.527008
0.313733
0.371099
0.482226
0.531148
0.54031
0.566268
0.642288
0.772112
0.90767
0.772913
0.491174
0.305675
0.390102
0.517684
0.548877
0.529592
0.520921
0.552249
0.61783
0.683966
0.67006
0.4521
0.287048
0.411961
0.56367
0.577638
0.528748
0.485947
0.479846
0.503357
0.533712
0.534869
0.419703
0.275807
0.438353
0.625308
0.625528
0.547785
0.474518
0.441971
0.441546
0.451362
0.447151
0.391139
0.280327
0.472641
0.711518
0.70714
0.60325
0.502004
0.450763
0.440142
0.444692
0.441562
0.407384
0.327799
0.520174
0.848468
0.862117
0.735816
0.602668
0.532035
0.516818
0.516066
0.502169
0.458602
0.380883
0.524405
0.944
1.0143
0.901405
0.749524
0.648677
0.564823
0.505822
0.445504
0.378676
0.289129
0.497316
0.893433
0.98547
0.922147
0.717817
0.517198
0.402676
0.322586
0.260841
0.210715
0.164192
0.375733
0.616426
0.598301
0.483373
0.365285
0.287346
0.237233
0.201123
0.170779
0.142157
0.113921
0.232673
0.188593
0.178386
0.176938
0.179363
0.180248
0.174829
0.160934
0.139653
0.114153
0.0882842
0.226286
0.210572
0.100897
0.0469027
0.0247739
0.0160801
0.0126708
0.0111463
0.0103174
0.00974882
0.00926174
0.273415
0.310464
0.0961773
0.0540243
0.0281334
0.0175965
0.0130597
0.0110216
0.00994536
0.00925357
0.00872014
0.318138
0.365177
0.0964386
0.0626966
0.0305147
0.0192244
0.0136825
0.0111451
0.00979497
0.00894588
0.00829972
0.358215
0.34481
0.0993604
0.0669238
0.0311357
0.0204676
0.0141913
0.0113478
0.00976195
0.00877911
0.00804549
0.390143
0.311028
0.10028
0.0660159
0.0310193
0.0212504
0.0144535
0.0115362
0.00978021
0.00871146
0.0079301
0.413673
0.287192
0.0997424
0.0631161
0.030814
0.021608
0.0145192
0.0116734
0.00979667
0.00868705
0.00788745
0.429055
0.274288
0.0988204
0.060097
0.0307181
0.0215924
0.0145196
0.0117522
0.00979261
0.00867477
0.00785334
0.43679
0.267564
0.0977175
0.0576222
0.0307246
0.0213418
0.0145205
0.011777
0.00977224
0.00866941
0.00785467
0.438081
0.266054
0.0970533
0.0559904
0.0308237
0.0210887
0.0145376
0.011772
0.00975041
0.00866525
0.00784273
0.433938
0.269211
0.0995326
0.0558916
0.0311669
0.0209827
0.0146105
0.0117609
0.00974722
0.00866159
0.00782535
0.424524
0.275637
0.104989
0.0572143
0.0321124
0.0212042
0.0148123
0.0117627
0.00977963
0.00865709
0.00781949
0.410368
0.28448
0.111851
0.0594901
0.0334702
0.0216901
0.0151748
0.011852
0.00986608
0.00867343
0.00783203
0.392789
0.295292
0.121065
0.0631268
0.035466
0.0225625
0.0157224
0.0120603
0.0100044
0.00872361
0.00786205
0.372448
0.308311
0.134261
0.0690035
0.0385812
0.0240601
0.0165626
0.012453
0.0102226
0.00882648
0.00791667
0.349583
0.323903
0.150182
0.0770355
0.0429138
0.0262961
0.017789
0.0130898
0.0105603
0.00900325
0.00801064
0.325218
0.34176
0.16995
0.0881482
0.0490659
0.0296202
0.0196225
0.0140945
0.0110965
0.0092951
0.00816761
0.300125
0.361161
0.195554
0.104143
0.0582329
0.0347398
0.0224892
0.0157078
0.0119782
0.00978291
0.00843401
0.274949
0.383265
0.227556
0.126388
0.0717439
0.0426372
0.027053
0.0183438
0.0134668
0.0106221
0.00890134
0.251175
0.407919
0.267944
0.157779
0.0921906
0.0552365
0.0346426
0.0228711
0.0161157
0.0121532
0.0097736
0.23084
0.434295
0.318977
0.202697
0.124094
0.0762323
0.0479873
0.0311909
0.0211957
0.0151965
0.0115617
0.216117
0.460329
0.382021
0.267479
0.175435
0.112955
0.0729842
0.0477218
0.0318676
0.0219316
0.0157142
0.209365
0.484827
0.455563
0.359273
0.259512
0.18009
0.122903
0.0833545
0.0565752
0.0386601
0.0267733
0.201622
0.48046
0.511837
0.460913
0.37764
0.2924
0.218593
0.159802
0.115123
0.0821916
0.0582951
0.207821
0.42734
0.441132
0.42633
0.390934
0.34353
0.291442
0.240294
0.193453
0.152714
0.118226
0.206556
0.208116
0.102482
0.0478254
0.0248283
0.0161435
0.0130228
0.0117472
0.0111158
0.0107252
0.0104163
0.248115
0.270972
0.0891148
0.0504855
0.0277359
0.018305
0.0144146
0.0127973
0.0120524
0.0116571
0.0113955
0.285455
0.304515
0.0822565
0.0548511
0.0300035
0.020376
0.0161936
0.0144936
0.0137961
0.0134721
0.0132686
0.314909
0.275225
0.0789962
0.0563332
0.0309225
0.0217744
0.0176646
0.0162226
0.015888
0.0160294
0.0163575
0.335269
0.232933
0.0760667
0.0547604
0.0309519
0.0227333
0.018864
0.0176873
0.0176791
0.0182462
0.0190723
0.348823
0.199177
0.0727825
0.0518431
0.030713
0.0234294
0.0198331
0.018924
0.0192627
0.0203725
0.0220366
0.358232
0.175092
0.069488
0.0489333
0.0304595
0.0239648
0.020596
0.0199169
0.0204987
0.0219673
0.0241273
0.363932
0.157425
0.0662961
0.0464369
0.0302314
0.0243595
0.0211916
0.0206847
0.0214124
0.0231527
0.025924
0.368147
0.144245
0.0634538
0.0444469
0.0301152
0.0246071
0.0216598
0.0212294
0.0219912
0.0238225
0.0268461
0.372454
0.134394
0.0610885
0.0429707
0.0301599
0.0247608
0.0220122
0.0215533
0.0222339
0.0239487
0.026797
0.378091
0.127762
0.0593179
0.0419745
0.0303462
0.0249043
0.0222576
0.0216765
0.0221744
0.0236038
0.0259869
0.38388
0.12323
0.0579701
0.0413361
0.0306397
0.0250486
0.0224224
0.0216373
0.02188
0.0229243
0.0247388
0.388245
0.121571
0.0573427
0.0410469
0.031099
0.0252501
0.0225723
0.0215039
0.0214485
0.02207
0.0232858
0.391373
0.122868
0.0579412
0.0411478
0.0317778
0.0256082
0.0227693
0.0213548
0.0209658
0.021162
0.0218417
0.393315
0.125744
0.0593815
0.0415939
0.0326091
0.0261542
0.0230443
0.0212485
0.0204944
0.0202826
0.0205
0.394239
0.130386
0.0618659
0.0425124
0.0336083
0.0269421
0.0234616
0.0212573
0.0201072
0.0195097
0.0193396
0.394237
0.137139
0.0657716
0.0441425
0.0348604
0.0280293
0.0241091
0.0214724
0.0198947
0.0189242
0.0184239
0.393278
0.145797
0.0713735
0.0467855
0.0365294
0.0294785
0.0250872
0.0220042
0.0199718
0.0186222
0.0178074
0.39129
0.156327
0.0791268
0.0509474
0.0389747
0.0314405
0.0265286
0.0229876
0.0204863
0.0187361
0.0175944
0.388127
0.168878
0.089748
0.0574778
0.0429029
0.0343132
0.0286829
0.0246158
0.0216279
0.0194502
0.017945
0.383406
0.18328
0.10414
0.067689
0.0495946
0.0390292
0.0321629
0.0272903
0.0236877
0.0210072
0.0190797
0.376127
0.199232
0.123362
0.0835485
0.0612698
0.0475607
0.0384667
0.0320475
0.0273317
0.0238144
0.0212342
0.364132
0.219589
0.151398
0.109681
0.0829346
0.0648335
0.0519967
0.0425522
0.0354301
0.0299947
0.0273639
0.260959
0.266857
0.221676
0.190773
0.170105
0.155381
0.144042
0.134461
0.125691
0.117172
0.106721
0.0649012
0.0351412
0.017814
0.0163154
0.0182731
0.0301226
0.0648298
0.0870005
0.101571
0.0781614
0.0544754
0.0339881
0.026047
0.0328471
0.0652979
0.0912334
0.118477
0.143949
0.0958132
0.0699588
0.0454371
0.0341252
0.0445027
0.0863951
0.115803
0.138772
0.151945
0.0999329
0.0786636
0.0537776
0.0413092
0.0557061
0.0975006
0.121179
0.135235
0.142106
0.0842873
0.0954619
0.102055
0.105193
0.105388
0.107759
0.116352
0.115407
0.111309
0.100924
0.120926
0.137487
0.148849
0.156965
0.172854
0.187822
0.17685
0.164818
0.11503
0.126971
0.136901
0.147302
0.153322
0.165413
0.182082
0.171074
0.161585
0.11105
0.11661
0.121834
0.128063
0.128407
0.133653
0.151589
0.146113
0.145778
0.00442775
0.00460204
0.00461752
0.00210695
0.0467296
0.00438322
0.0111223
0.00454944
0.00437487
0.00425027
0.0457976
0.00455894
0.00373758
0.00328485
0.00448412
0.00430366
0.00331262
0.0020903
0.00429319
0.00425038
0.00411321
0.00467412
0.00466534
0.0186955
0.00449209
0.00329742
0.00378673
0.0106614
0.0596579
0.0489545
0.00340717
0.00410324
0.00299099
0.0045369
0.00427235
0.00459266
0.0173798
0.00448715
0.00291726
0.00438937
0.00553885
0.00454607
0.00663521
0.00465832
0.0603235
0.0121504
0.00324307
0.0198028
0.00429539
0.00433555
0.0491243
0.00439577
0.011613
0.00668906
0.00432887
0.00412027
0.00463022
0.00440172
0.0601646
0.00398227
0.00514463
0.0091128
0.0536468
0.00791011
0.00718374
0.00426232
0.0522485
0.00435149
0.00460232
0.00424189
0.00329648
0.00429613
0.00309933
0.00452447
0.00412386
0.00426575
0.00414235
0.004598
0.00921153
0.0734602
0.0464546
0.00633391
0.00449582
0.00462623
0.00438324
0.00312277
0.0785557
0.00756719
0.00310046
0.0187088
0.00454224
0.00441329
0.00632973
0.00437305
0.0724555
0.0342239
0.00260084
0.00399588
0.00343471
0.00435548
0.00465711
0.0174903
0.00416792
0.00402371
0.0028637
0.00455193
0.0030502
0.00464659
0.00439244
0.00414817
0.00451077
0.00456093
0.00430082
0.0022494
0.00421542
0.00442324
0.00437531
0.00431671
0.00450383
0.00413963
0.00229235
0.00446942
0.0048941
0.00325716
0.0107424
0.00419613
0.0595161
0.00304737
0.00322545
0.00355554
0.00445421
0.0039728
0.0181765
0.0042703
0.00461429
0.00457872
0.00371377
0.00427479
0.0498919
0.00447118
0.00687036
0.00411413
0.0240803
0.00402526
0.00436725
0.00331693
0.00445305
0.00433927
0.0043046
0.0042558
0.00429173
0.00442002
0.00355316
0.00445219
0.00224141
0.00360945
0.00377252
0.00372775
0.00320779
0.00436023
0.00364277
0.00423368
0.00428788
0.00442988
0.0534848
0.00585496
0.00353746
0.00430389
0.00425449
0.00712076
0.00308459
0.00309866
0.00441305
0.00405759
0.00409329
0.0039626
0.00316412
0.00358204
0.0613053
0.00392877
0.00433438
0.00437901
0.00466003
0.0131722
0.00450684
0.0038636
0.00427738
0.00430326
0.00459012
0.0123748
0.0042312
0.00341194
0.00427449
0.00551803
0.00461047
0.00439766
0.00435071
0.00351071
0.00364655
0.00467915
0.00325082
0.00433632
0.00408984
0.00350224
0.00462792
0.00777841
0.00436397
0.00321751
0.00434329
0.00433908
0.0219458
0.00439454
0.0040144
0.00422644
0.00449253
0.00432997
0.00451022
0.00371666
0.00429643
0.0032145
0.00293545
0.00219036
0.00264318
0.00420572
0.00321644
0.00440678
0.00980327
0.00569421
0.00397778
0.0228977
0.00391016
0.00425859
0.00428769
0.00446559
0.00351108
0.069277
0.0505589
0.00464679
0.0045636
0.00455214
0.00373756
0.00847157
0.00401469
0.00532593
0.00458071
0.00466039
0.0045188
0.00360617
0.0278498
0.0587719
0.00359242
0.0221607
0.00520915
0.00430351
0.00395381
0.00435799
0.00414048
0.00447285
0.00318876
0.00427182
0.00339228
0.00455259
0.00432668
0.00457568
0.00450841
0.00306966
0.00411332
0.00474383
0.00559409
0.00372472
0.0222504
0.00432098
0.00433017
0.00313872
0.00439001
0.00432819
0.00332011
0.00444836
0.00428215
0.0031681
0.00432947
0.00459783
0.0466739
0.0474462
0.00395489
0.004396
0.0811049
0.00458974
0.00425036
0.00666532
0.00461656
0.0111377
0.00424473
0.002904
0.00467877
0.00434823
0.00424644
0.00456673
0.00426719
0.00334929
0.00445016
0.00244621
0.0043777
0.0493383
0.00415239
0.00414956
0.00459904
0.0159265
0.00440595
0.00434848
0.00710432
0.00456391
0.00409055
0.00299162
0.00451318
0.00411007
0.00370573
0.00322877
0.00412963
0.00444546
0.00426907
0.0366006
0.00435623
0.00339323
0.0055228
0.00420431
0.00445262
0.00371716
0.00424221
0.0269341
0.004459
0.0541039
0.00401113
0.00464936
0.00357213
0.0433857
0.00341051
0.00458755
0.00447462
0.00398004
0.00401592
0.0211109
0.00433268
0.00572939
0.0201336
0.0160833
0.00449685
0.00437744
0.0148438
0.0636797
0.00853001
0.00391998
0.00374197
0.00417104
0.00394537
0.00468915
0.00297251
0.00399916
0.00465954
0.0348536
0.0038629
0.00332351
0.00451763
0.00451227
0.00431018
0.00325369
0.00308813
0.00318114
0.0106526
0.00449801
0.00444136
0.0130972
0.0351957
0.00319825
0.00388003
0.00460878
0.0039181
0.00425496
0.00437835
0.0042627
0.0388601
0.0043849
0.00320254
0.0044139
0.00339923
0.0503043
0.0023592
0.00320216
0.00824599
0.00342509
0.00443072
0.00532684
0.00310618
0.00456629
0.0519066
0.00713406
0.00447987
0.00429303
0.00461905
0.00562577
0.00316597
0.00441
0.0046615
0.00681324
0.00286924
0.00624644
0.00788752
0.00732735
0.00433491
0.0365186
0.00433014
0.00427919
0.00378704
0.00372278
0.00410516
0.00407481
0.00426203
0.00464248
0.00314161
0.00493955
0.0318851
0.00321346
0.0125829
0.00414172
0.00398323
0.00413778
0.00449304
0.00482141
0.00437872
0.00849973
0.00448677
0.00320376
0.00342809
0.00410493
0.00432101
0.0031474
0.0251634
0.0484957
0.0032683
0.00468836
0.00395949
0.0777451
0.00212417
0.00239605
0.00423811
0.00424204
0.00419909
0.00342909
0.00434619
0.00392906
0.00444373
0.00461345
0.00449941
0.00428596
0.00446003
0.0112194
0.00309506
0.00325675
0.00491752
0.00459171
0.00434251
0.06171
0.0032022
0.00394527
0.00435637
0.00817087
0.0076378
0.00545505
0.00546768
0.00443855
0.00393393
0.00314427
0.00423114
0.00506985
0.00427644
0.00458726
0.00432732
0.00557893
0.00362853
0.00428083
0.00444964
0.00412804
0.0166465
0.00415859
0.00464661
0.00335886
0.0306518
0.00404816
0.00327633
0.00434131
0.00332593
0.0043959
0.00428933
0.00440157
0.00338497
0.00327046
0.00426524
0.00339686
0.00400226
0.00466817
0.003752
0.00370664
0.00454106
0.00453506
0.0343126
0.00374885
0.00285712
0.00447482
0.0158836
0.00461917
0.0374694
0.00435305
0.00349203
0.00516287
0.00469497
0.0499221
0.00498644
0.00338565
0.00445312
0.00360777
0.00411963
0.00459599
0.00442649
0.00457423
0.00418768
0.0374405
0.0045221
0.00435418
0.0122969
0.00444135
0.00893359
0.00435286
0.0129648
0.00331549
0.00313381
0.00467851
0.00447591
0.00463317
0.00558884
0.00370008
0.00450287
0.00448829
0.00324888
0.00461454
0.00216433
0.00460441
0.0375089
0.00423614
0.00400624
0.00292359
0.00333753
0.0139611
0.0393881
0.00416249
0.00410834
0.00429576
0.00460656
0.00314579
0.0033676
0.00423697
0.00354833
0.0321363
0.036804
0.00449092
0.00433489
0.0045957
0.00419211
0.0530071
0.00422907
0.0045434
0.00436937
0.0476585
0.00431611
0.00302295
0.00328818
0.00886017
0.0337644
0.00443082
0.00451217
0.00446287
0.00507303
0.00433782
0.00399181
0.00318668
0.00409448
0.00475315
0.00749178
0.00463565
0.00467318
0.0716284
0.00440587
0.00354586
0.00321164
0.00529629
0.00373919
0.00398232
0.00362001
0.00421024
0.00444043
0.0044961
0.0298738
0.00299799
0.00389975
0.00425273
0.00450011
0.0065687
0.00426463
0.00443858
0.00425917
0.00427848
0.0031689
0.00303072
0.00526511
0.0056768
0.00401637
0.00526472
0.00429625
0.0101289
0.00425452
0.00445956
0.0287737
0.0293327
0.00438282
0.00438847
0.00369456
0.00415908
0.00433679
0.00565189
0.00460562
0.00416855
0.003302
0.00291372
0.00382194
0.00312845
0.00318364
0.00553997
0.0255887
0.00486979
0.00618068
0.00354079
0.00343756
0.00458007
0.00349143
0.00462113
0.00417262
0.00560602
0.00393851
0.00422428
0.00423704
0.00343668
0.00675245
0.0271777
0.00361307
0.00533869
0.00442445
0.00526135
0.00455033
0.00430035
0.00427444
0.00341709
0.00423821
0.00455474
0.00420947
0.00459369
0.0039541
0.00622014
0.0220801
0.0042574
0.00426558
0.00399184
0.00775114
0.0044119
0.0156983
0.00428678
0.00536855
0.0338677
0.00442964
0.00347001
0.00465958
0.0030065
0.00508319
0.00314248
0.0243405
0.00365015
0.00427564
0.00463642
0.00372537
0.00321209
0.00423396
0.059535
0.0043692
0.00407753
0.00463267
0.0037477
0.00421349
0.00324604
0.00455567
0.00440121
0.00440357
0.00380442
0.00443215
0.00456285
0.00332349
0.00437431
0.00551126
0.00321804
0.00407836
0.00371774
0.00527087
0.00288464
0.00409621
0.00372936
0.00361976
0.00742021
0.00301951
0.0116446
0.00446934
0.00334655
0.00449468
0.00443192
0.00657214
0.00441851
0.00336771
0.00327973
0.00431458
0.00416506
0.00413204
0.00409477
0.0045864
0.0564452
0.00622171
0.0360776
0.0041291
0.0039778
0.0059887
0.00368819
0.00445312
0.0034881
0.0037059
0.00289407
0.00452945
0.0033319
0.0322216
0.00454862
0.00907942
0.00350628
0.00458394
0.00515498
0.00437766
0.00429595
0.0042253
0.00336596
0.00434269
0.00319986
0.00457043
0.00301338
0.0042876
0.00291946
0.00371901
0.0252422
0.00428737
0.00429192
0.0221797
0.0120369
0.00446154
0.00319941
0.00385385
0.00467315
0.005206
0.00378753
0.00429169
0.00419927
0.00293079
0.00500362
0.00429209
0.00437599
0.00441382
0.0033296
0.00378151
0.00469022
0.00449263
0.00453558
0.0315482
0.0355602
0.00360949
0.00457764
0.00335518
0.00426115
0.00455722
0.00458053
0.00462429
0.00448458
0.0045638
0.00316471
0.00516563
0.0111922
0.00308692
0.00420961
0.0044265
0.00450325
0.00376915
0.0333358
0.00459545
0.00405982
0.00352536
0.0156353
0.0210274
0.00464118
0.00391932
0.0036282
0.00442982
0.00446598
0.0102041
0.00421998
0.00456785
0.0042514
0.00918018
0.00399761
0.00390246
0.00455568
0.00409611
0.00629534
0.00365246
0.00456675
0.00309916
0.00535778
0.00442154
0.00394377
0.00464042
0.00428625
0.00206393
0.00294997
0.00436914
0.00460124
0.00420637
0.00453203
0.00433365
0.00459111
0.00273545
0.0034452
0.00869053
0.0147378
0.00648541
0.00454952
0.0515343
0.00466935
0.00428341
0.0049571
0.00449184
0.00441827
0.00441727
0.00301776
0.00675179
0.00361719
0.00441523
0.00294884
0.00442305
0.00468804
0.00433565
0.00438519
0.00423391
0.00449767
0.00455844
0.00433955
0.0617178
0.0043792
0.00425936
0.00448279
0.017993
0.0043067
0.00450707
0.00486812
0.0603547
0.00428623
0.00451594
0.00292284
0.00318722
0.00464941
0.00454008
0.0041942
0.0040081
0.00912417
0.004598
0.0120953
0.00291545
0.0257846
0.00297235
0.00458057
0.00324396
0.00564151
0.00444284
0.00446096
0.00450615
0.00460813
0.00397783
0.00930972
0.00427418
0.0057644
0.0474219
0.00472193
0.00393733
0.00576685
0.00466284
0.00456139
0.00314267
0.00284772
0.00328047
0.0043969
0.0278073
0.00430168
0.00334603
0.00431801
0.00313998
0.00313019
0.00328176
0.00355207
0.00419759
0.00452733
0.0466033
0.00431859
0.0627441
0.00422901
0.00299571
0.00419262
0.00421152
0.0543252
0.00438214
0.00460351
0.0035263
0.00828121
0.00772895
0.00343214
0.00329858
0.00331455
0.00441011
0.0460819
0.0045205
0.00420592
0.0637401
0.00439653
0.00550396
0.00449746
0.0157273
0.00297973
0.00679701
0.00460544
0.00342636
0.00464478
0.00440616
0.00425526
0.00244402
0.00427658
0.00446151
0.00433393
0.00457411
0.00428335
0.00474724
0.00438539
0.00417894
0.0061067
0.00356715
0.00393765
0.00461061
0.00890296
0.00299075
0.00459738
0.0046791
0.00408752
0.00635318
0.0503679
0.00396982
0.00343081
0.00410359
0.00434774
0.00312368
0.00453658
0.00426904
0.0102321
0.00455377
0.06715
0.00917648
0.0320998
0.00455303
0.00455028
0.00380863
0.0431199
0.00335585
0.0031373
0.00467574
0.00307366
0.0194594
0.00456363
0.00402841
0.00314345
0.0039252
0.0324195
0.00367519
0.0044577
0.00433157
0.00417947
0.00427243
0.00643587
0.00287232
0.0128365
0.0525253
0.00459987
0.00308208
0.00382609
0.00513418
0.0155823
0.00424271
0.00439141
0.0040653
0.003135
0.00454567
0.00467072
0.00467881
0.00339342
0.00411847
0.00460748
0.00371884
0.00658958
0.00320765
0.00452696
0.00803313
0.00404532
0.00407674
0.00401432
0.00455661
0.00430802
0.0044816
0.0142338
0.0045026
0.00459424
0.00399865
0.00339085
0.00450855
0.00417933
0.00450396
0.00437622
0.0033764
0.0110054
0.00728975
0.0540276
0.00907266
0.0469602
0.00419906
0.00427189
0.00248413
0.00462889
0.00324997
0.00632438
0.00429738
0.00487258
0.00388857
0.0288531
0.00420764
0.00320028
0.0045511
0.0492881
0.00469504
0.0337351
0.00419107
0.004583
0.00503829
0.0105228
0.00418622
0.00547465
0.00538556
0.00440507
0.0205552
0.0055864
0.0238204
0.00353789
0.00237305
0.0125732
0.00474115
0.00461005
0.00371784
0.00463722
0.00344478
0.00331581
0.00320496
0.00390545
0.00311322
0.0527906
0.00437424
0.00433347
0.00424653
0.00457463
0.00288287
0.00340646
0.00423132
0.0033215
0.0433778
0.0045797
0.0560753
0.00743925
0.00450262
0.00481401
0.00387383
0.00315644
0.00318055
0.0259563
0.00442064
0.00452692
0.0522709
0.00437374
0.00458627
0.00355857
0.00454427
0.00448312
0.0308454
0.00449994
0.0336823
0.00397947
0.00379668
0.00429198
0.00430388
0.00589951
0.00323443
0.0116579
0.0044448
0.00288073
0.00515174
0.00304812
0.00326979
0.00528025
0.00556626
0.00424186
0.00804962
0.0151473
0.00406717
0.0043232
0.00350381
0.00381122
0.0046908
0.0034852
0.0506139
0.00425718
0.00468943
0.00450568
0.00403901
0.00285267
0.00320679
0.00330284
0.0791821
0.00462976
0.00587824
0.00555696
0.0045746
0.00389939
0.00424809
0.00427698
0.0635303
0.00451985
0.0169851
0.0237216
0.00456653
0.00449559
0.00464674
0.0314983
0.0333004
0.0223065
0.00335188
0.00456613
0.00430157
0.0032538
0.04155
0.00658089
0.00303259
0.00434139
0.00616217
0.00538494
0.00535697
0.00416662
0.0133899
0.0277306
0.00405133
0.00382797
0.00430802
0.00436248
0.0304856
0.00319178
0.00371226
0.00460047
0.00468729
0.00413406
0.0482564
0.00314206
0.00293152
0.00781601
0.00758618
0.00436866
0.0143935
0.00535942
0.00462216
0.00305116
0.00349327
0.00412944
0.0564919
0.00453546
0.00442483
0.00424571
0.00528169
0.00310434
0.00435506
0.0050134
0.00461509
0.00456139
0.00468819
0.00330085
0.00442905
0.00744077
0.00417758
0.00455953
0.0501559
0.00442482
0.00354093
0.00355513
0.00420928
0.00351865
0.0053499
0.0045305
0.00456656
0.00448672
0.00301829
0.00449687
0.00429253
0.00441129
0.00345218
0.00625003
0.00312397
0.00696624
0.00430111
0.00547024
0.00414515
0.00467562
0.00439666
0.0045868
0.00315027
0.00413981
0.00325944
0.00412169
0.00420865
0.00451007
0.00443731
0.0316766
0.00546859
0.016159
0.00468828
0.00302706
0.0626008
0.00323835
0.00291968
0.00439485
0.00548864
0.00449128
0.0048183
0.00319327
0.00523272
0.0037459
0.00303139
0.00450159
0.0686859
0.00309319
0.00414777
0.00409074
0.00400193
0.00361163
0.00279784
0.00433089
0.00306814
0.0554569
0.0213277
0.00448718
0.0043361
0.00427309
0.0112413
0.00401697
0.00455173