/*--------------------------------*- C++ -*----------------------------------*\
| =========                 |                                                 |
| \\      /  F ield         | OpenFOAM: The Open Source CFD Toolbox           |
|  \\    /   O peration     | Version:  3.0.1                                 |
|   \\  /    A nd           | Web:      www.OpenFOAM.org                      |
|    \\/     M anipulation  |                                                 |
\*---------------------------------------------------------------------------*/
FoamFile
{
    version     2.0;
    format      ascii;
    class       volScalarField;
    location    "0.31727";
    object      k;
}
// * * * * * * * * * * * * * * * * * * * * * * * * * * * * * * * * * * * * * //

dimensions      [0 2 -2 0 0 0 0];

internalField   nonuniform List<scalar> 
21246
(
0.793962
1.25078
0.831137
0.578533
0.372444
0.233759
0.151438
0.105031
0.0789978
0.0633773
0.0528103
0.743603
1.08947
0.84915
0.633819
0.43244
0.273332
0.175064
0.117914
0.0859933
0.0676247
0.0556513
0.639093
0.861911
0.801398
0.642846
0.470234
0.313324
0.198026
0.132097
0.0945456
0.0732822
0.0600433
0.507241
0.704857
0.732079
0.628321
0.486633
0.341159
0.22348
0.14697
0.103561
0.0797079
0.0654756
0.37351
0.602347
0.665132
0.607217
0.495074
0.36361
0.246927
0.164489
0.114657
0.0867037
0.0716599
0.256028
0.525275
0.606677
0.584672
0.500192
0.384372
0.271207
0.184084
0.127902
0.0956652
0.0785823
0.165156
0.464963
0.560232
0.56243
0.501827
0.402947
0.296179
0.206437
0.143933
0.106394
0.0862747
0.124884
0.4393
0.537252
0.546519
0.501628
0.418376
0.320215
0.230582
0.162926
0.119501
0.0951239
0.126541
0.435673
0.540427
0.545491
0.505381
0.432418
0.342675
0.255327
0.184358
0.135271
0.105779
0.11778
0.401003
0.545668
0.560867
0.519536
0.449104
0.364581
0.280047
0.207473
0.153579
0.118638
0.096379
0.315398
0.510041
0.573402
0.542159
0.470701
0.387129
0.304342
0.231254
0.173832
0.13373
0.0777466
0.241422
0.434146
0.554696
0.558877
0.493665
0.409781
0.327502
0.254513
0.194997
0.150689
0.0636252
0.185955
0.340819
0.491883
0.550102
0.508204
0.429014
0.347995
0.275936
0.215823
0.168648
0.0540285
0.146595
0.254847
0.401392
0.505994
0.502747
0.438427
0.362708
0.293631
0.234747
0.18612
0.0480722
0.122812
0.195313
0.310378
0.43447
0.472089
0.431848
0.367506
0.304864
0.249532
0.201245
0.0438261
0.107949
0.158362
0.236727
0.348886
0.419027
0.406625
0.35925
0.307105
0.257954
0.211414
0.0399268
0.0963278
0.132257
0.187425
0.267474
0.348236
0.364301
0.336746
0.298422
0.257803
0.214353
0.0362828
0.0866753
0.111936
0.152011
0.207106
0.271928
0.309358
0.301828
0.278889
0.248421
0.209948
0.0333737
0.0790982
0.0967172
0.126257
0.163705
0.209405
0.249107
0.260329
0.252332
0.233847
0.202326
0.032113
0.0746486
0.0867454
0.108463
0.133726
0.164616
0.196922
0.219069
0.223447
0.2176
0.195931
0.032041
0.0709817
0.0797986
0.0964074
0.114011
0.134907
0.158991
0.180791
0.190151
0.191976
0.18051
0.0311558
0.0676851
0.0731677
0.0875996
0.101415
0.116919
0.133517
0.148147
0.155774
0.158814
0.154763
0.0318263
0.061867
0.0696964
0.0851209
0.0970978
0.108448
0.119258
0.128548
0.135061
0.140258
0.14211
0.0555925
0.0585172
0.0555012
0.0675465
0.0837611
0.100431
0.116458
0.130758
0.141861
0.148925
0.15102
0.765783
0.995683
0.769108
0.505531
0.319757
0.205194
0.1374
0.0981505
0.0753087
0.0610244
0.0508617
0.532958
0.777044
0.651835
0.475383
0.318566
0.210143
0.141756
0.100879
0.0769045
0.0620758
0.0517169
0.463687
0.672034
0.589092
0.473587
0.336789
0.225536
0.15124
0.106369
0.0803183
0.0645884
0.0539058
0.421727
0.593065
0.530475
0.453927
0.341936
0.237966
0.16173
0.113043
0.0843791
0.067539
0.0566258
0.392678
0.525302
0.485799
0.426362
0.331313
0.238963
0.167017
0.118755
0.0890775
0.0712906
0.060121
0.369957
0.471876
0.452199
0.404935
0.322275
0.238023
0.169545
0.12204
0.091911
0.073409
0.0620669
0.350789
0.43069
0.426399
0.388376
0.316497
0.240432
0.175571
0.128017
0.0960176
0.0754186
0.0628094
0.334198
0.398751
0.40657
0.37682
0.314792
0.246652
0.185651
0.138046
0.103459
0.079385
0.0637455
0.319201
0.37332
0.391213
0.369784
0.317262
0.257122
0.200427
0.153212
0.115985
0.0877506
0.0680817
0.304745
0.351924
0.378869
0.365601
0.323115
0.271326
0.219802
0.173967
0.134634
0.101804
0.0762897
0.289978
0.332207
0.367392
0.362512
0.330741
0.287851
0.242748
0.199788
0.159596
0.122616
0.0904878
0.274221
0.312294
0.354603
0.358411
0.337463
0.304268
0.266999
0.228852
0.189752
0.150077
0.111801
0.257511
0.291144
0.338447
0.350575
0.340307
0.317439
0.289359
0.258209
0.222654
0.182533
0.140223
0.2393
0.268321
0.317913
0.337177
0.33668
0.323983
0.305466
0.28251
0.25308
0.216036
0.172783
0.219174
0.243907
0.293292
0.317932
0.325697
0.322296
0.312962
0.298495
0.27629
0.244457
0.20332
0.197352
0.21818
0.265239
0.293353
0.307602
0.312124
0.310991
0.304584
0.289946
0.264459
0.227752
0.174515
0.191974
0.235154
0.264946
0.283871
0.294706
0.300398
0.301011
0.293525
0.274691
0.243906
0.151875
0.166627
0.205108
0.235085
0.257048
0.272551
0.28348
0.289636
0.288202
0.275588
0.250942
0.13103
0.143529
0.17717
0.206314
0.22997
0.248593
0.26309
0.273045
0.27608
0.268767
0.249912
0.113419
0.123615
0.15276
0.180485
0.204767
0.225084
0.24148
0.253419
0.259196
0.256022
0.242337
0.099827
0.10699
0.132156
0.158126
0.182118
0.20279
0.219514
0.23179
0.238739
0.238684
0.229345
0.0903554
0.0930148
0.114487
0.13832
0.161136
0.181004
0.196892
0.208402
0.215303
0.2172
0.211857
0.0845799
0.0797858
0.0971501
0.118372
0.139603
0.158393
0.17333
0.184087
0.190744
0.193589
0.191372
0.0883473
0.0699066
0.0853598
0.105725
0.126006
0.142796
0.155143
0.16372
0.169173
0.171824
0.170663
0.738914
1.06369
0.865391
0.629627
0.41851
0.259811
0.157
0.0942783
0.0561697
0.0332658
0.0200778
0.558965
0.820243
0.756828
0.581541
0.397731
0.252916
0.154557
0.0925368
0.0546776
0.0320959
0.0191533
0.411534
0.69268
0.680057
0.560879
0.403082
0.2636
0.162735
0.0971635
0.0567668
0.0329004
0.0195616
0.332763
0.601943
0.621686
0.53845
0.404274
0.272764
0.171659
0.103751
0.0611007
0.0354779
0.0209314
0.279752
0.493532
0.537492
0.50008
0.399444
0.281756
0.181479
0.110523
0.0649334
0.0371621
0.0212797
0.252361
0.42697
0.468061
0.445589
0.369792
0.271263
0.180184
0.111966
0.0666719
0.0387404
0.0227966
0.236029
0.383013
0.420384
0.401417
0.335797
0.250382
0.170352
0.108733
0.0663021
0.0391403
0.0230763
0.225348
0.35071
0.38346
0.365554
0.307296
0.231615
0.160117
0.104164
0.0648064
0.0390687
0.0238744
0.217378
0.325191
0.353555
0.335918
0.282764
0.214538
0.150093
0.0992582
0.0629777
0.0387452
0.0240297
0.210481
0.303741
0.328854
0.311767
0.262664
0.200247
0.141393
0.0947522
0.06108
0.038123
0.0236874
0.204438
0.285381
0.308251
0.292061
0.246429
0.188691
0.134248
0.0909113
0.0593124
0.0374492
0.0237539
0.199813
0.269978
0.291077
0.275806
0.233196
0.179365
0.128507
0.0878156
0.057889
0.0369505
0.0236883
0.19617
0.256802
0.276717
0.262562
0.22271
0.172186
0.124228
0.0856085
0.0569717
0.0367127
0.0236235
0.192922
0.245187
0.264644
0.252062
0.214904
0.167203
0.121503
0.0843823
0.0566024
0.0367327
0.0238768
0.190574
0.235189
0.254513
0.243726
0.209246
0.164081
0.120193
0.0841071
0.0567978
0.0370276
0.0240348
0.189037
0.226363
0.246048
0.237411
0.205725
0.162914
0.120427
0.0849101
0.0576627
0.0376772
0.0244149
0.188062
0.218231
0.238943
0.233083
0.204549
0.164012
0.122514
0.0870336
0.0593612
0.0387774
0.0250344
0.18797
0.210746
0.232922
0.230501
0.205631
0.167506
0.126695
0.0907224
0.0621085
0.0404971
0.0259361
0.189068
0.203791
0.227319
0.228744
0.208502
0.173517
0.133431
0.096462
0.0663033
0.0431472
0.0274552
0.19158
0.196973
0.221909
0.227409
0.212351
0.181134
0.142121
0.104082
0.072075
0.0471455
0.0299206
0.195918
0.190312
0.216276
0.226094
0.216643
0.189794
0.152481
0.113739
0.0798934
0.0530347
0.0339512
0.203854
0.182655
0.210484
0.223949
0.22005
0.19815
0.16369
0.12543
0.0904153
0.0617517
0.040537
0.214265
0.175162
0.202008
0.22077
0.222084
0.205292
0.174967
0.139013
0.104266
0.074422
0.0510778
0.237106
0.184129
0.210643
0.214158
0.215301
0.204224
0.181456
0.151758
0.120483
0.0914278
0.0669362
0.696982
0.995151
0.868267
0.69714
0.518905
0.330748
0.198733
0.117669
0.0683415
0.0395136
0.0233637
0.56576
0.739788
0.775965
0.698634
0.571728
0.412177
0.266323
0.155805
0.0903363
0.0513941
0.0295263
0.312934
0.608291
0.683332
0.661823
0.581853
0.457796
0.321431
0.201324
0.118237
0.0686256
0.0393781
0.287702
0.631303
0.680263
0.648479
0.583123
0.482625
0.361384
0.242354
0.149123
0.0897022
0.0537135
0.320372
0.697875
0.829066
0.735484
0.623492
0.511835
0.394399
0.27819
0.179891
0.111795
0.0708454
0.330077
0.673004
1.01773
0.993691
0.77853
0.589351
0.439829
0.314059
0.210255
0.134609
0.0873793
0.337782
0.646567
1.00945
1.26218
1.07124
0.763724
0.52757
0.362328
0.242875
0.158235
0.104648
0.345142
0.624894
0.974284
1.34569
1.39848
1.05358
0.690302
0.441695
0.284511
0.183929
0.122082
0.352042
0.602759
0.927496
1.30905
1.60673
1.40139
0.938175
0.56876
0.344
0.214392
0.140573
0.359036
0.580925
0.875607
1.23522
1.60373
1.65662
1.2226
0.740448
0.425526
0.252065
0.160505
0.366584
0.563038
0.823707
1.14229
1.50907
1.75327
1.46582
0.926594
0.521636
0.295986
0.182038
0.375298
0.55056
0.776061
1.04074
1.36987
1.68586
1.59741
1.07817
0.611089
0.339153
0.2033
0.385754
0.547277
0.736792
0.942953
1.21495
1.53521
1.60364
1.15548
0.668567
0.371076
0.221049
0.397999
0.550901
0.70571
0.856576
1.05991
1.33848
1.50159
1.14327
0.677654
0.383418
0.23304
0.413218
0.562818
0.683925
0.784799
0.918452
1.10997
1.29711
1.05789
0.635907
0.374424
0.238685
0.429312
0.580754
0.667415
0.71994
0.789578
0.892687
0.987663
0.930799
0.572465
0.351264
0.240372
0.447457
0.607155
0.658591
0.66248
0.673662
0.710823
0.749962
0.734562
0.528151
0.331995
0.24456
0.469708
0.64779
0.667091
0.626377
0.59202
0.589538
0.602003
0.59384
0.492548
0.34448
0.256292
0.500133
0.712546
0.709229
0.630741
0.563345
0.541002
0.546386
0.54705
0.502913
0.407285
0.300413
0.546337
0.822029
0.820392
0.712371
0.6144
0.578328
0.585389
0.596573
0.577724
0.509182
0.361272
0.620055
1.00987
1.04618
0.932012
0.80154
0.730504
0.672619
0.632953
0.586757
0.480785
0.341225
0.652365
1.1345
1.19787
1.10825
0.886412
0.60426
0.497353
0.406954
0.331303
0.261131
0.197862
0.457662
0.741145
0.729508
0.574418
0.434052
0.33569
0.272325
0.225396
0.186867
0.152691
0.121174
0.28337
0.225922
0.205763
0.197424
0.195055
0.191869
0.182915
0.166298
0.143445
0.117449
0.0916913
0.221734
0.218147
0.0972963
0.0459066
0.0248656
0.0170683
0.0140624
0.0127013
0.0119386
0.011385
0.0108682
0.266292
0.345113
0.0941845
0.0548158
0.0276156
0.0180829
0.0140802
0.0122815
0.0112975
0.0106374
0.0101089
0.309362
0.384656
0.0982934
0.0641393
0.0291639
0.0191695
0.0142656
0.0120819
0.0108801
0.0100887
0.00944669
0.345716
0.360775
0.103566
0.0678497
0.0294558
0.020005
0.0143897
0.0119606
0.0105895
0.00968736
0.0089561
0.371816
0.334563
0.105968
0.0665457
0.0294983
0.0204516
0.0143861
0.0118565
0.0103675
0.00940086
0.00863558
0.387673
0.321718
0.107367
0.0640312
0.0296866
0.0205604
0.0142935
0.0117481
0.0101839
0.0091849
0.00841932
0.393862
0.31833
0.11108
0.062214
0.0300856
0.0204736
0.0141902
0.0116362
0.0100221
0.00900649
0.00823138
0.391143
0.321139
0.115838
0.0622072
0.0306724
0.020316
0.0141263
0.0115207
0.00987685
0.00885569
0.00809332
0.3811
0.32785
0.122275
0.0636589
0.0318748
0.0203272
0.0141377
0.0114149
0.00975254
0.00872392
0.00796587
0.365228
0.337231
0.133234
0.0672789
0.0338971
0.0207641
0.0143657
0.0113827
0.00967009
0.00861019
0.00784946
0.343969
0.350219
0.148226
0.0732373
0.0368851
0.0217429
0.0148066
0.0114496
0.00964558
0.00853206
0.00775632
0.318324
0.367876
0.165991
0.0812194
0.0408314
0.0233183
0.0154898
0.0116509
0.00968092
0.00848674
0.0076805
0.290388
0.389241
0.188128
0.0921405
0.0462631
0.0257351
0.0165488
0.0120548
0.00980782
0.00848935
0.00762939
0.261718
0.41293
0.216988
0.107769
0.0541734
0.0294635
0.0182326
0.0127791
0.0100862
0.00856863
0.00761798
0.23376
0.442554
0.252591
0.12864
0.0650937
0.0348735
0.0208034
0.0139693
0.010601
0.00876985
0.00767162
0.209658
0.478744
0.297884
0.157227
0.0806168
0.0428719
0.0247886
0.0159155
0.0115136
0.00918066
0.00783759
0.192837
0.519913
0.356897
0.198009
0.103805
0.0552575
0.0312143
0.0191925
0.0131423
0.00997424
0.00821073
0.187138
0.570298
0.433555
0.256105
0.138729
0.0747484
0.0417831
0.0248329
0.0160979
0.011501
0.00898886
0.19441
0.62662
0.530641
0.339822
0.193062
0.106725
0.0599701
0.0350132
0.0217127
0.0145563
0.0106339
0.210036
0.674506
0.63999
0.456547
0.278943
0.161424
0.0930311
0.0545593
0.0330903
0.0210848
0.0143323
0.221963
0.690891
0.732783
0.598738
0.408628
0.255976
0.155746
0.0944219
0.0578249
0.0361547
0.0233643
0.230397
0.671758
0.776116
0.729199
0.576168
0.408155
0.272863
0.177385
0.113959
0.0730801
0.0470899
0.208217
0.597313
0.694542
0.725762
0.674611
0.563849
0.434422
0.316968
0.223234
0.154201
0.104788
0.280685
0.622624
0.710072
0.725536
0.670147
0.585451
0.490589
0.396675
0.311088
0.238236
0.178077
0.180864
0.191906
0.0938727
0.0424926
0.0234955
0.0169068
0.0144948
0.0134746
0.012973
0.0126726
0.0124329
0.203922
0.19708
0.0748319
0.0428258
0.0259709
0.0187698
0.0157634
0.014541
0.0140356
0.0138427
0.0137612
0.230541
0.209736
0.0665942
0.045282
0.027865
0.0208669
0.017861
0.0166489
0.0161827
0.0160398
0.0160599
0.253357
0.190551
0.0628843
0.0466186
0.0282191
0.0215708
0.0187371
0.0178868
0.0179565
0.0184938
0.0192968
0.27036
0.16277
0.0604979
0.0457267
0.0279173
0.0218639
0.0190924
0.0183677
0.0186309
0.0194778
0.0207416
0.283108
0.140054
0.0582091
0.0436608
0.0273523
0.0219125
0.0191676
0.0184789
0.0187969
0.0198048
0.0214048
0.293372
0.123571
0.0559037
0.0413816
0.0267334
0.0218163
0.0190668
0.0183729
0.018628
0.0195912
0.0211708
0.301039
0.11139
0.0535857
0.039279
0.0261391
0.0215947
0.0188755
0.018149
0.0182856
0.019107
0.0205354
0.30784
0.102248
0.0514711
0.0375142
0.0256811
0.0213009
0.0186537
0.0178664
0.0178649
0.0184922
0.0196199
0.314902
0.0955509
0.0497066
0.0361277
0.0253944
0.0210232
0.0184376
0.0175726
0.0174392
0.0178866
0.0187346
0.323244
0.0910311
0.0484342
0.0351815
0.025267
0.0208296
0.0182633
0.0173081
0.0170588
0.0173707
0.0180446
0.33226
0.0879427
0.0474955
0.0345904
0.0252924
0.0207405
0.0181564
0.0171015
0.0167515
0.0169704
0.0175744
0.341044
0.0871139
0.0469857
0.0343577
0.0255299
0.0207846
0.018151
0.0169716
0.0165283
0.0166764
0.0172858
0.348729
0.0892795
0.0473449
0.0344825
0.0260893
0.0210499
0.0183274
0.0169723
0.0164327
0.0165092
0.0171355
0.355384
0.0930734
0.0483674
0.0349306
0.0269158
0.0215768
0.0187089
0.0171371
0.016476
0.0164623
0.0170674
0.361159
0.0987387
0.0502663
0.0357968
0.0280135
0.0224276
0.0193453
0.0175182
0.0166851
0.0165405
0.0170516
0.366161
0.106668
0.053419
0.0372629
0.0294282
0.0236667
0.0203091
0.018191
0.0171167
0.0167779
0.0171057
0.370421
0.116677
0.0581537
0.0395704
0.0312505
0.0253469
0.0216846
0.0192526
0.0178675
0.0172534
0.0172867
0.373975
0.128781
0.0649541
0.0431387
0.0337126
0.0275579
0.0235713
0.0208214
0.0190795
0.018113
0.0177618
0.376876
0.143236
0.0745349
0.0486843
0.0373121
0.0305318
0.0261248
0.023042
0.0209348
0.0195777
0.0187918
0.379159
0.160032
0.0877685
0.057319
0.0429999
0.034853
0.029692
0.0261446
0.0236479
0.0219061
0.0207124
0.380903
0.178855
0.105486
0.0706042
0.0524106
0.0418059
0.0351176
0.0306274
0.0274997
0.0252842
0.0236993
0.381598
0.202543
0.130556
0.0916073
0.0687239
0.0543285
0.0448192
0.0383089
0.033748
0.0305072
0.0281545
0.350935
0.246648
0.193464
0.159121
0.137015
0.124114
0.117408
0.113795
0.111314
0.108752
0.104983
0.0441741
0.0185633
0.0160122
0.0173473
0.0252978
0.0583588
0.0828179
0.0997103
0.111288
0.0634422
0.0387331
0.026557
0.0289364
0.0583422
0.0870005
0.115164
0.142535
0.166657
0.0807999
0.0512477
0.0344471
0.0386533
0.0775481
0.111683
0.138276
0.155801
0.168147
0.0892286
0.0606571
0.0411667
0.047971
0.0898071
0.119337
0.137328
0.147664
0.154936
0.0749054
0.0939761
0.105359
0.112845
0.115825
0.116778
0.115773
0.123269
0.120972
0.0907907
0.116237
0.13936
0.157449
0.169349
0.182315
0.196036
0.195285
0.184282
0.109747
0.130465
0.145896
0.158858
0.168672
0.180356
0.193501
0.191997
0.181272
0.112314
0.125676
0.136346
0.144531
0.146815
0.152254
0.163866
0.164335
0.161694
0.00442741
0.0046011
0.00461661
0.0172274
0.0430879
0.00438341
0.0125008
0.00454816
0.00437602
0.00424958
0.0423461
0.00455858
0.00386698
0.00349531
0.00448393
0.00430289
0.00361238
0.0172168
0.00429234
0.00424847
0.00410872
0.0050083
0.00466588
0.00713875
0.00449249
0.00348818
0.00389221
0.0120289
0.0590011
0.0411861
0.00367419
0.00409754
0.00338859
0.00453607
0.00426665
0.00459191
0.00665728
0.00448761
0.00329785
0.0043897
0.00601343
0.00454536
0.00661049
0.00465899
0.0630194
0.0123443
0.00366588
0.0196549
0.00429057
0.0043409
0.0387116
0.00439553
0.00876832
0.00671597
0.00433207
0.0041159
0.00494986
0.00440122
0.061325
0.00857679
0.00511906
0.00767745
0.0533513
0.0231362
0.0078085
0.0042605
0.0248268
0.00434464
0.00460145
0.00424201
0.00339857
0.00431563
0.00802433
0.00459377
0.0235449
0.00427866
0.004043
0.00459821
0.0104398
0.07257
0.00677752
0.0191325
0.00449538
0.00462625
0.00436958
0.00812085
0.0888207
0.00602019
0.00416062
0.0047219
0.00454299
0.00441188
0.00691921
0.00439656
0.0716705
0.0328982
0.0198958
0.00395277
0.00424839
0.00438219
0.0046553
0.0192216
0.00417068
0.00400721
0.00566625
0.0045534
0.0033606
0.00464667
0.00367035
0.00415464
0.00450847
0.00456045
0.00430952
0.00953552
0.0075126
0.00442342
0.00437746
0.00431662
0.00449948
0.00414034
0.00790685
0.00452279
0.00512372
0.00355626
0.011329
0.0041068
0.00900853
0.00335349
0.00347589
0.00359319
0.00445153
0.00889772
0.0188575
0.00428506
0.00461394
0.00456613
0.00369566
0.0116832
0.0424688
0.00445807
0.00638112
0.0041077
0.0305149
0.00402316
0.00437016
0.00301937
0.00445176
0.00433073
0.00431401
0.00424684
0.0042845
0.00441814
0.00296291
0.00450631
0.0138544
0.00416754
0.00821149
0.00368572
0.00345423
0.00436137
0.00361096
0.00381606
0.00430626
0.00443115
0.0272477
0.00396229
0.00518145
0.00423311
0.00421176
0.00775191
0.00349294
0.00339258
0.00442849
0.00405183
0.00408769
0.00395414
0.00346687
0.0029122
0.0639961
0.00392142
0.00432358
0.00455636
0.00465989
0.0109209
0.00450382
0.0197111
0.0042629
0.0043023
0.0045889
0.0139834
0.00370992
0.00344905
0.00427363
0.00600705
0.0046096
0.00439999
0.00435512
0.00421399
0.00362073
0.00467917
0.00316552
0.00434026
0.00382009
0.00369122
0.00462741
0.00582421
0.00438409
0.00346811
0.0043485
0.00433924
0.00471398
0.0043942
0.00400794
0.00422333
0.00449088
0.0127651
0.00451063
0.00401969
0.00428661
0.00350371
0.00312028
0.00835199
0.020596
0.00769482
0.00353426
0.00440611
0.00814025
0.00391104
0.0036448
0.0298492
0.00388246
0.00425751
0.00427808
0.00451192
0.00294462
0.0751256
0.0120759
0.00464639
0.00456277
0.00455052
0.0040957
0.0384488
0.00399748
0.00572776
0.00466489
0.00368422
0.00451787
0.00366968
0.031168
0.00979893
0.00367506
0.00477331
0.00518214
0.00430146
0.00393737
0.00436147
0.00413569
0.00447346
0.00328702
0.00425642
0.00365249
0.0045361
0.00432677
0.00457527
0.00450629
0.003366
0.00410735
0.00486465
0.00557394
0.00369965
0.0184034
0.00432156
0.00433311
0.0035119
0.00439085
0.00432857
0.00355861
0.00444747
0.0042721
0.00513257
0.00435396
0.00460031
0.00681555
0.0104539
0.00393875
0.00439765
0.0828475
0.00459118
0.0042443
0.00587942
0.00461822
0.0127973
0.00426342
0.00329233
0.00467902
0.00435384
0.00419639
0.004566
0.00426331
0.00354012
0.00444613
0.00655092
0.00437238
0.042207
0.00414727
0.00415682
0.00459936
0.00397432
0.00458626
0.00435093
0.00794026
0.00456571
0.00408537
0.00340625
0.00454639
0.00410515
0.00374319
0.00664936
0.0041292
0.00450121
0.00425714
0.00534859
0.00435636
0.00338768
0.0143311
0.00418125
0.00445157
0.00367605
0.00424119
0.0168716
0.00443671
0.0539116
0.0038777
0.00464932
0.00376047
0.0461443
0.00791504
0.00458753
0.00447365
0.003944
0.00402769
0.00481233
0.00433438
0.00401812
0.0166133
0.00397705
0.00794415
0.00437757
0.00674795
0.0102469
0.00943046
0.0038841
0.00371767
0.00416522
0.00415964
0.00468916
0.00309448
0.00399494
0.00466016
0.0160522
0.00384319
0.00348656
0.00451823
0.00451179
0.00431183
0.00454838
0.00338759
0.00353161
0.0118411
0.00464814
0.00444082
0.0107019
0.0383863
0.00350266
0.00403419
0.00461013
0.00390317
0.00424824
0.00437938
0.0042543
0.00650542
0.00438699
0.00301057
0.00441293
0.00345243
0.0191597
0.00703942
0.00352449
0.0378984
0.0038461
0.00442833
0.00600831
0.00342749
0.00460622
0.0185307
0.00774568
0.00447826
0.00428936
0.00462105
0.00737049
0.00327642
0.00441032
0.00466138
0.00577174
0.00331857
0.00655634
0.00823759
0.00376475
0.00433749
0.0053738
0.00422725
0.00427801
0.00379104
0.00377447
0.00326082
0.00406738
0.00373196
0.00473845
0.00346708
0.00547618
0.0277168
0.00349956
0.0140381
0.00355377
0.00397391
0.00414081
0.00455728
0.00491865
0.00446266
0.00905747
0.00448573
0.00301278
0.00338484
0.00410403
0.00422704
0.0030792
0.0154031
0.0395575
0.00355833
0.00468842
0.00393677
0.0888506
0.021127
0.00702383
0.00419444
0.00372921
0.00823416
0.00340577
0.00434666
0.00298472
0.00444048
0.00461339
0.00449934
0.0045439
0.00446211
0.012592
0.00349593
0.00312813
0.00502222
0.00459082
0.00434251
0.0092576
0.00347427
0.00392863
0.00423292
0.00802669
0.00762935
0.00545505
0.00546768
0.00441813
0.00392441
0.00520033
0.00422055
0.00505872
0.00421069
0.00458789
0.00432893
0.00557885
0.00305355
0.00426875
0.00444992
0.00412391
0.031788
0.00426174
0.00464733
0.00313498
0.0318593
0.00404622
0.00322416
0.00434168
0.00338252
0.00439825
0.00421721
0.00440145
0.00349879
0.00350705
0.00426405
0.0033684
0.00399468
0.00477684
0.00369161
0.00366319
0.00454095
0.00453433
0.0389982
0.003158
0.00692329
0.00444556
0.0180312
0.00461932
0.0154034
0.00455076
0.00381394
0.00392596
0.00469255
0.0152603
0.00663599
0.00336766
0.00445218
0.00357579
0.00411918
0.00459853
0.0044271
0.004574
0.00416599
0.00641669
0.00451864
0.00435496
0.0087722
0.00443771
0.00974181
0.00428057
0.00383702
0.00340271
0.00411685
0.00467887
0.00447608
0.00463448
0.0060749
0.00312473
0.00450185
0.00448813
0.00355905
0.00461574
0.0177409
0.00460599
0.0153056
0.00422948
0.004122
0.0032947
0.00360218
0.0136667
0.0160001
0.00415689
0.00410318
0.00430328
0.00460774
0.00306006
0.00328324
0.00423607
0.00374151
0.0300396
0.0374815
0.00449125
0.00434177
0.00459682
0.00855404
0.0131077
0.00438247
0.00454419
0.00437173
0.0101443
0.004325
0.00336277
0.00351953
0.00375659
0.0291148
0.00442977
0.00465625
0.00446321
0.00653065
0.00434066
0.0229257
0.00348258
0.00408918
0.0048202
0.00403554
0.00463735
0.00467348
0.0720825
0.00440755
0.00351265
0.0241492
0.00694669
0.0098771
0.00399351
0.00368899
0.00421675
0.00443713
0.00449263
0.0288529
0.00330427
0.00404827
0.00425107
0.00450044
0.00690422
0.00424757
0.00447855
0.00420036
0.00429344
0.00343366
0.00347597
0.00685708
0.00565481
0.00400283
0.00523948
0.00429412
0.00536343
0.00426785
0.00445527
0.0312133
0.00541452
0.00438256
0.0043905
0.00368631
0.00416035
0.0043366
0.00564023
0.00460624
0.00415767
0.0035494
0.00329441
0.00380304
0.00353566
0.00347763
0.005698
0.00445563
0.00490721
0.00451945
0.00348039
0.00440464
0.0090753
0.00366635
0.00462128
0.00416205
0.0138404
0.00392526
0.00421353
0.00428606
0.00338659
0.00641298
0.0308516
0.00355166
0.00542769
0.00442377
0.00522565
0.00454987
0.00429806
0.00426431
0.00365124
0.00424832
0.00449702
0.00418793
0.00459438
0.0318655
0.00629154
0.0281561
0.00427118
0.00424194
0.00398802
0.00490043
0.00445744
0.0184755
0.00429775
0.0272499
0.00547628
0.00442869
0.00299323
0.00465993
0.00340587
0.028442
0.00342229
0.0266452
0.00361861
0.00426355
0.00463649
0.00391887
0.00347462
0.0045366
0.00862153
0.00436946
0.00407088
0.00463271
0.00372381
0.00419971
0.00324165
0.00455732
0.00440026
0.00440552
0.00390411
0.0055025
0.00456216
0.00359402
0.00437461
0.00388341
0.00345589
0.00407156
0.0255884
0.00553508
0.00325944
0.00407499
0.00370188
0.00373151
0.00453241
0.00344068
0.0129819
0.00446844
0.00348818
0.00449134
0.00441388
0.00729021
0.00433045
0.00340017
0.00349851
0.0043231
0.0041569
0.00413259
0.00489962
0.00458541
0.0120927
0.00512653
0.0153959
0.00412854
0.00396291
0.00656688
0.0103931
0.00449141
0.0036415
0.00290635
0.00597472
0.00452726
0.003482
0.0296256
0.0045492
0.00994668
0.00374981
0.00468083
0.0265226
0.0043794
0.00422611
0.00421622
0.00362257
0.00436784
0.00349487
0.00457187
0.0034058
0.0043018
0.00330078
0.00319661
0.00523823
0.00360223
0.00429049
0.014298
0.0128898
0.00446156
0.00352335
0.00383767
0.00445103
0.00517449
0.00378075
0.00423715
0.00736335
0.00329957
0.00498308
0.00428907
0.00436165
0.00441342
0.0101715
0.00371496
0.00469058
0.00448798
0.00453284
0.0327534
0.00525223
0.00367904
0.0045788
0.00349429
0.00433456
0.00455681
0.00457921
0.00462452
0.00448127
0.00462522
0.00346617
0.00580348
0.00922799
0.00339583
0.00421243
0.00442833
0.00449936
0.00374599
0.00784358
0.00459514
0.00405435
0.00357114
0.0178394
0.00531504
0.00468459
0.0039081
0.00810569
0.00443164
0.00446293
0.0109945
0.00421906
0.00456838
0.00430616
0.00366235
0.00397477
0.00387569
0.00455596
0.00407226
0.00670154
0.00827269
0.00456689
0.0034198
0.00417311
0.00554338
0.00773955
0.00464059
0.00428269
0.0182052
0.00335441
0.0042426
0.00460109
0.00418587
0.00461317
0.00433712
0.00459279
0.0149681
0.00345453
0.00945518
0.0167187
0.00542266
0.00455011
0.0479677
0.0046697
0.00429359
0.005176
0.00448793
0.00441772
0.00441545
0.00630187
0.00897144
0.004224
0.00441476
0.00891994
0.00442438
0.00468822
0.00434268
0.0043873
0.00428498
0.00449562
0.00455938
0.0043502
0.0692753
0.0043797
0.00425695
0.00432033
0.0215063
0.00429255
0.00450724
0.0138211
0.0653194
0.00425423
0.00449978
0.00331075
0.00774765
0.00465061
0.00454005
0.00417839
0.00400557
0.00449454
0.00459982
0.00844939
0.00330033
0.00443994
0.00333814
0.00458038
0.00347844
0.00564123
0.00444154
0.00450316
0.00446509
0.00460855
0.00393641
0.0101427
0.00424843
0.00409805
0.0137447
0.00471269
0.00392298
0.00598426
0.00466325
0.00456046
0.00345951
0.00324075
0.0034803
0.00439637
0.0236521
0.00430855
0.00358899
0.00431574
0.00350433
0.00342549
0.00484338
0.00366438
0.00419788
0.00452754
0.0146104
0.00446157
0.00955941
0.00417396
0.00335048
0.0042128
0.00420955
0.0130305
0.00438236
0.00460337
0.00349285
0.00889795
0.0287206
0.00342558
0.00353038
0.00349166
0.0122198
0.0407143
0.00451983
0.00423065
0.0107552
0.00439819
0.00547061
0.00449585
0.00439727
0.00334462
0.003771
0.00460488
0.00356653
0.00464518
0.00440514
0.0037457
0.0192046
0.00426618
0.00446051
0.00434291
0.00455579
0.00435106
0.00519139
0.00446023
0.00418232
0.00652767
0.00378449
0.00402377
0.00461046
0.00376919
0.003371
0.00459984
0.00479738
0.00408263
0.00703447
0.0226776
0.00395595
0.00365618
0.00409909
0.00434808
0.00329507
0.00385891
0.00424659
0.00381903
0.00455444
0.0727872
0.00365978
0.0310522
0.00455278
0.00469682
0.0253772
0.0458497
0.00361495
0.00343172
0.00467579
0.0033911
0.0333016
0.00456305
0.00402174
0.0177081
0.00351404
0.00805155
0.00364881
0.00445344
0.00433075
0.00425663
0.0042128
0.00702289
0.00323479
0.00383209
0.0144691
0.00460188
0.00332637
0.00380924
0.00524092
0.00435553
0.00379164
0.00439336
0.00404983
0.00353451
0.00454467
0.00464423
0.0046789
0.0238314
0.00411579
0.00460966
0.00364818
0.00458206
0.00352082
0.00452483
0.0088672
0.004117
0.00407243
0.00385735
0.00455633
0.00430747
0.00446666
0.0159764
0.004409
0.00720228
0.00398415
0.0043339
0.00450654
0.00417628
0.00450345
0.00437746
0.00644974
0.0233819
0.00611648
0.0600654
0.00966465
0.0419311
0.00420356
0.0043339
0.00645552
0.0046289
0.0034971
0.00948465
0.00429557
0.00491204
0.00385297
0.0219995
0.00418507
0.00353008
0.00455036
0.0142341
0.00469524
0.0384229
0.00412458
0.00466452
0.00562512
0.00471474
0.00416592
0.00421878
0.00427216
0.00444999
0.00542713
0.00558052
0.0303049
0.0035761
0.00833913
0.012951
0.00391626
0.00461068
0.00369668
0.00474098
0.00344212
0.00342874
0.0159375
0.00389321
0.003568
0.0596946
0.0043758
0.00432544
0.00420447
0.00457428
0.0032711
0.00339636
0.00424195
0.00344955
0.0353908
0.00451658
0.0552342
0.0085572
0.00448589
0.0050004
0.00384469
0.00350784
0.00345462
0.00449189
0.00442204
0.00452614
0.015636
0.00437537
0.00458643
0.0035781
0.00454392
0.00452559
0.0208057
0.00454476
0.0353092
0.00419178
0.00807296
0.0042895
0.00428606
0.00674284
0.00348104
0.0127127
0.00444499
0.00325091
0.00741018
0.00341207
0.00299143
0.00528009
0.00369873
0.00424115
0.0354295
0.00394751
0.00406261
0.0043221
0.00294886
0.00379284
0.00428778
0.00412151
0.0216983
0.00425547
0.00468965
0.00450538
0.00402769
0.0032537
0.00350881
0.00322971
0.0787626
0.00465891
0.00587127
0.00555669
0.00457642
0.00293272
0.00424574
0.00424765
0.0542102
0.00456244
0.0191292
0.0281548
0.00456572
0.00449506
0.00478802
0.039276
0.00521668
0.0257001
0.00344342
0.00456789
0.00429322
0.00347635
0.00603189
0.00663494
0.00336701
0.00434184
0.00620607
0.00739053
0.00838985
0.00415712
0.00846823
0.0294875
0.00404636
0.00380177
0.00430682
0.0043571
0.0377543
0.00351967
0.00366681
0.00459914
0.00466495
0.00410158
0.0444874
0.0241487
0.0033108
0.0270243
0.0059668
0.00437139
0.0161656
0.0244611
0.00462172
0.00336488
0.00389379
0.00412413
0.00794364
0.00453454
0.00442555
0.00425648
0.00563381
0.00337809
0.00435527
0.00671627
0.00461472
0.00456064
0.00468819
0.00356995
0.00442842
0.00402291
0.00419945
0.00455833
0.0450219
0.00479752
0.00370546
0.00282278
0.00423706
0.0034312
0.0054249
0.00452755
0.00456589
0.00448478
0.00338797
0.00449645
0.0042871
0.00439887
0.00343198
0.00706196
0.0034835
0.00376585
0.00429371
0.0235235
0.00417302
0.0046757
0.00432958
0.00458668
0.00346996
0.00413918
0.00349959
0.00411734
0.00420811
0.00450676
0.00368495
0.00516164
0.00546779
0.00569221
0.00468828
0.00306561
0.0101357
0.00344787
0.00334063
0.00439662
0.00548851
0.0108662
0.00504764
0.00352152
0.003563
0.00281597
0.00343812
0.00450114
0.0717526
0.00340203
0.00414891
0.00372511
0.00387094
0.00354577
0.00590709
0.0229763
0.00338467
0.058198
0.01944
0.00448634
0.00432287
0.00787806
0.0228684
0.00400315
0.00455087
0.00423301
0.00462937
0.00442643
0.00445734
0.00440154