/*--------------------------------*- C++ -*----------------------------------*\
| =========                 |                                                 |
| \\      /  F ield         | OpenFOAM: The Open Source CFD Toolbox           |
|  \\    /   O peration     | Version:  3.0.1                                 |
|   \\  /    A nd           | Web:      www.OpenFOAM.org                      |
|    \\/     M anipulation  |                                                 |
\*---------------------------------------------------------------------------*/
FoamFile
{
    version     2.0;
    format      ascii;
    class       volScalarField;
    location    "0.31727";
    object      nut;
}
// * * * * * * * * * * * * * * * * * * * * * * * * * * * * * * * * * * * * * //

dimensions      [0 2 -1 0 0 0 0];

internalField   nonuniform List<scalar> 
21246
(
4.69754e-05
0.000278038
0.000400611
0.000524315
0.000614856
0.000676956
0.000681084
0.000625384
0.000545813
0.000468665
0.000396748
3.65649e-05
0.000160806
0.000246291
0.000354985
0.000486408
0.000630236
0.000696459
0.000658798
0.000573463
0.00048542
0.000401945
3.27431e-05
0.000112632
0.000190809
0.000271778
0.000366076
0.000486658
0.000645828
0.000680262
0.00060737
0.000511268
0.000415058
3.07471e-05
9.0544e-05
0.000160074
0.000227329
0.000300431
0.000386957
0.000512954
0.000642958
0.000635731
0.000545233
0.000443071
2.8397e-05
8.20843e-05
0.000141259
0.000199109
0.000258896
0.000322834
0.000408302
0.000530787
0.000618434
0.000579872
0.00048417
2.51544e-05
7.92977e-05
0.000129717
0.000179902
0.000230004
0.000279035
0.000335963
0.000420905
0.000530425
0.000580366
0.000527636
2.14943e-05
8.03789e-05
0.000124294
0.00016752
0.000210036
0.000249245
0.000288621
0.000342144
0.000426314
0.000520278
0.00054441
1.96668e-05
8.99672e-05
0.000128043
0.000163142
0.000198298
0.000230299
0.000259157
0.000292842
0.00034682
0.000431725
0.000511503
2.07768e-05
0.000112426
0.000145067
0.00016981
0.000195862
0.000220652
0.00024218
0.00026396
0.000296483
0.000355288
0.000441799
2.09073e-05
0.000137931
0.000173045
0.000189572
0.000204728
0.000220499
0.000235019
0.000248841
0.000267835
0.000304145
0.00037058
1.95748e-05
0.000150336
0.000200414
0.000218829
0.000225522
0.000230898
0.000237246
0.000244295
0.000254497
0.000275412
0.000318871
1.80512e-05
0.000151796
0.000220705
0.000248068
0.000254176
0.000251104
0.000248566
0.000248746
0.000252417
0.000263273
0.000289089
1.65948e-05
0.000146792
0.00022876
0.000266416
0.000281456
0.00027667
0.000267033
0.0002606
0.000258856
0.000262938
0.000276634
1.5399e-05
0.000137263
0.000221887
0.000269713
0.000297993
0.000300332
0.000288579
0.000277426
0.000271501
0.000270954
0.000276299
1.44882e-05
0.000127925
0.000207098
0.000260809
0.000299954
0.000315337
0.000307878
0.0002957
0.000287679
0.000284269
0.000283739
1.3666e-05
0.00012098
0.000193202
0.000243517
0.000287991
0.000317485
0.000319846
0.00031124
0.000304037
0.000299543
0.000294311
1.27604e-05
0.000114366
0.000181004
0.000226011
0.000266997
0.000304768
0.000320992
0.000320093
0.000316853
0.000313025
0.000303911
1.17074e-05
0.000107059
0.00016945
0.000210868
0.000246236
0.000281564
0.000310293
0.000320328
0.000323958
0.000322904
0.000311929
1.0598e-05
9.88227e-05
0.00015885
0.000199349
0.00022973
0.000259739
0.000291316
0.000315032
0.000328425
0.000334549
0.000326188
9.56609e-06
8.96576e-05
0.000149096
0.000191267
0.000219172
0.000244686
0.000274348
0.000308664
0.000332828
0.000349462
0.000348874
8.48888e-06
7.86918e-05
0.000136003
0.000180339
0.000208333
0.000231208
0.000257468
0.000289943
0.000313113
0.000327509
0.000324892
7.08618e-06
6.44909e-05
0.000113237
0.000155588
0.000183103
0.000203696
0.000222945
0.000242179
0.000254764
0.000263653
0.00026825
5.63328e-06
4.4875e-05
7.51354e-05
0.000108473
0.000133864
0.000154261
0.000171975
0.000189518
0.000209803
0.000239434
0.000276571
5.18625e-06
9.52513e-06
1.55012e-05
3.23327e-05
5.95198e-05
9.38491e-05
0.000133609
0.000180416
0.000236424
0.000297802
0.000348791
4.24776e-05
0.000293271
0.00044144
0.000534129
0.000608349
0.000658369
0.000657103
0.00060462
0.00053303
0.000463503
0.000398093
2.66513e-05
0.000216887
0.000383391
0.000506444
0.000593811
0.000651236
0.000658304
0.000612489
0.000543767
0.000475507
0.000411228
2.4562e-05
0.000170464
0.000332685
0.00048395
0.00058723
0.000649898
0.000664858
0.000627208
0.000562347
0.000495815
0.000432882
2.57287e-05
0.000153766
0.00030346
0.000459919
0.000571982
0.000641365
0.000665578
0.000638901
0.000579934
0.000516392
0.000455921
2.78364e-05
0.000146881
0.000291297
0.000443139
0.000554241
0.000620062
0.000641661
0.000626004
0.000585408
0.000533997
0.000480716
2.99307e-05
0.000144027
0.000287503
0.000435148
0.000543684
0.000604769
0.000619438
0.000601476
0.00056765
0.000528103
0.000486468
3.18226e-05
0.000142925
0.000287185
0.000432052
0.000539766
0.000598965
0.000608095
0.000584279
0.00054899
0.000512268
0.000475734
3.3565e-05
0.000143019
0.000289056
0.000432924
0.000541761
0.000601839
0.000608805
0.000580337
0.00053978
0.000498193
0.000457186
3.49286e-05
0.000143307
0.000291562
0.000436089
0.000547995
0.000611962
0.000621115
0.000592218
0.00054818
0.000500323
0.000451992
3.58448e-05
0.000143277
0.000293154
0.000439201
0.000555845
0.000626289
0.000641985
0.00061803
0.000575411
0.000523429
0.000463111
3.6244e-05
0.000141203
0.000291917
0.000439264
0.000561599
0.000640357
0.00066623
0.000652146
0.000617173
0.000568048
0.000500555
3.61969e-05
0.000137189
0.000286606
0.000434219
0.000561428
0.000649163
0.000687324
0.000686481
0.00066427
0.00062635
0.000563184
3.56337e-05
0.000129654
0.000274555
0.000419912
0.000549662
0.000645635
0.00069727
0.000711818
0.000704924
0.000683664
0.000639093
3.45473e-05
0.000119188
0.00025566
0.000395799
0.000524899
0.000626691
0.00069077
0.000720668
0.000728572
0.000722602
0.000698824
3.28816e-05
0.000107847
0.000232966
0.000365107
0.000490564
0.000595159
0.000669003
0.000712387
0.000733368
0.0007393
0.000730598
3.06428e-05
9.60325e-05
0.000208128
0.000330315
0.000449749
0.000554157
0.000634397
0.000688391
0.000720296
0.000735415
0.000736758
2.79009e-05
8.42791e-05
0.00018287
0.000294098
0.000405893
0.000507581
0.000590879
0.000652262
0.0006927
0.000714846
0.000722774
2.47368e-05
7.3169e-05
0.000158982
0.000259188
0.000362558
0.000459707
0.000543288
0.000609055
0.000655603
0.000682914
0.000694371
2.13061e-05
6.28331e-05
0.00013721
0.000227068
0.000321976
0.000413631
0.000495655
0.000563517
0.000614051
0.000645057
0.000658194
1.78003e-05
5.28903e-05
0.000116944
0.000197167
0.000283898
0.00036979
0.000449393
0.000518058
0.000571247
0.00060505
0.000619204
1.435e-05
4.26251e-05
9.63824e-05
0.00016682
0.000245195
0.000325092
0.000401947
0.000471131
0.000526848
0.000563663
0.000578836
1.09971e-05
3.15868e-05
7.36486e-05
0.000132328
0.000200544
0.000273097
0.000346611
0.000416824
0.000476503
0.000517964
0.000536064
7.71188e-06
1.9768e-05
4.76761e-05
9.03989e-05
0.000144189
0.000206259
0.000274989
0.00034706
0.000413975
0.000464096
0.000488945
4.62411e-06
1.04697e-05
2.53791e-05
5.08732e-05
8.78027e-05
0.000136269
0.00019633
0.000266048
0.000337853
0.000398251
0.00043363
4.50787e-05
0.00028608
0.000414624
0.000474393
0.000493894
0.000503072
0.000514276
0.000524293
0.00052261
0.000500636
0.00045506
3.15462e-05
0.00024317
0.0004039
0.00048147
0.000505708
0.000509203
0.000510532
0.000512372
0.000507876
0.000487138
0.000444005
2.61364e-05
0.000214154
0.000380188
0.000477169
0.000513679
0.000519646
0.000517702
0.000514963
0.000507623
0.000487461
0.000446134
2.4751e-05
0.000199498
0.000362235
0.000469347
0.000517195
0.000528396
0.000527183
0.000524243
0.000517076
0.000497493
0.000455876
2.43898e-05
0.000181225
0.000343641
0.00046133
0.000520247
0.000536403
0.000533359
0.000525079
0.000511311
0.000486994
0.000447073
2.47242e-05
0.000171004
0.000323299
0.000441023
0.000508833
0.000534388
0.00053674
0.000531795
0.000522421
0.000503634
0.000467579
2.53951e-05
0.000165563
0.0003109
0.000422622
0.000489849
0.000520354
0.000530145
0.000531771
0.000526512
0.000508879
0.000470922
2.62825e-05
0.000161418
0.000301222
0.00040745
0.000473121
0.000506268
0.000521187
0.000528401
0.000528383
0.000516223
0.000484325
2.71079e-05
0.000157726
0.000292827
0.000394268
0.000457842
0.000492319
0.000511192
0.000523604
0.000528842
0.000520439
0.000488313
2.77136e-05
0.000153419
0.000284566
0.000382419
0.000444392
0.000479886
0.000501936
0.000518601
0.000527651
0.0005203
0.000484746
2.82093e-05
0.000148878
0.000276595
0.000371791
0.000432776
0.000469309
0.000494033
0.000514093
0.000526083
0.000520847
0.000490536
2.86409e-05
0.0001449
0.000269615
0.000362613
0.000422937
0.000460542
0.000487663
0.00051067
0.000525336
0.000522166
0.000492771
2.88685e-05
0.000140845
0.000263077
0.000354503
0.000414671
0.000453578
0.000483059
0.000508876
0.000526117
0.000524348
0.000492803
2.88778e-05
0.000135994
0.000256126
0.000346862
0.000407644
0.000448291
0.000480252
0.000508825
0.000528469
0.000528128
0.000498746
2.8668e-05
0.000131061
0.000249286
0.000339777
0.000401668
0.000444423
0.000479031
0.000510368
0.00053227
0.000532712
0.000500654
2.81988e-05
0.000125632
0.00024212
0.000332871
0.000396474
0.000441816
0.000479324
0.000513517
0.000537674
0.000538743
0.000505068
2.74904e-05
0.000118976
0.000233656
0.000325374
0.000391553
0.000440166
0.000480956
0.000518203
0.00054478
0.000546598
0.000511832
2.64248e-05
0.000110764
0.000223056
0.000316611
0.000386167
0.000438735
0.000483202
0.000523776
0.000553305
0.000556552
0.000519589
2.49898e-05
0.000100153
0.000208424
0.000303176
0.000376503
0.000433331
0.000481502
0.000525716
0.000559673
0.000566789
0.000531203
2.31476e-05
8.70525e-05
0.000188887
0.000284107
0.000360837
0.000420727
0.000469453
0.0005118
0.000544166
0.000552549
0.000523775
2.08338e-05
7.19982e-05
0.000163864
0.000257921
0.000337616
0.000399814
0.000446906
0.000482809
0.000506995
0.000511011
0.000488598
1.8016e-05
5.51913e-05
0.000134568
0.000224498
0.000305717
0.000369478
0.000414298
0.000442488
0.000455652
0.000451081
0.000428644
1.45131e-05
4.08469e-05
0.000104249
0.000186485
0.000265182
0.000327701
0.000369841
0.00039237
0.000397544
0.000386234
0.000361428
1.05418e-05
4.11932e-05
9.25677e-05
0.000152754
0.000208705
0.000256976
0.000292038
0.000311789
0.000316554
0.00030742
0.000287526
4.03197e-05
0.000150731
0.000231294
0.000307063
0.000375427
0.000460515
0.000520524
0.00056458
0.000568305
0.000540013
0.000489149
2.73028e-05
7.92068e-05
0.000138136
0.000193897
0.000244479
0.000283099
0.000322174
0.000442305
0.000591552
0.000597052
0.000536124
2.006e-05
6.25518e-05
0.000103088
0.000144404
0.000184056
0.000214493
0.00023654
0.000276002
0.000413497
0.000619285
0.000597068
2.11499e-05
7.89038e-05
0.00010138
0.000125499
0.000153184
0.000177541
0.000194202
0.000210047
0.000260316
0.000431849
0.000637912
2.50079e-05
0.000132378
0.000150241
0.000145402
0.00015015
0.000161046
0.000170849
0.000177858
0.000195744
0.000269634
0.000475813
2.81313e-05
0.000159332
0.000262862
0.000231504
0.000192579
0.00017221
0.000164735
0.000162011
0.00016549
0.000195597
0.000307054
3.10689e-05
0.000171301
0.000323998
0.000369906
0.000296989
0.000226136
0.000183488
0.000161418
0.000152124
0.000160953
0.000217532
3.39399e-05
0.000180451
0.000365557
0.0004826
0.0004466
0.000335307
0.000239048
0.00018147
0.000152449
0.000145447
0.000172449
3.64989e-05
0.000186485
0.000388598
0.000545546
0.000601899
0.00049156
0.000339467
0.000228915
0.000168133
0.000142644
0.00015028
3.86998e-05
0.000191159
0.000401456
0.000576987
0.000681268
0.000638099
0.000470325
0.000304178
0.000200471
0.000150686
0.000141314
4.05086e-05
0.000196648
0.000407411
0.000585356
0.000710836
0.000741989
0.000600876
0.000396268
0.000246379
0.000167758
0.000141291
4.20524e-05
0.000199773
0.000406581
0.000576177
0.000704268
0.000775563
0.00069483
0.00048318
0.000296232
0.000189767
0.000147109
4.32471e-05
0.000205257
0.000403847
0.000555838
0.00067166
0.000756288
0.000735171
0.00054289
0.000336754
0.000210612
0.000155691
4.40882e-05
0.00021012
0.000397413
0.000528469
0.000622317
0.000702544
0.000722989
0.000563259
0.000357177
0.000224618
0.000164617
4.45569e-05
0.000212132
0.00038716
0.000497033
0.000563946
0.000622324
0.000659139
0.000544566
0.000352636
0.000229103
0.000172687
4.44611e-05
0.000213211
0.000375347
0.000465227
0.000505566
0.000534289
0.000550161
0.000501572
0.000333814
0.000226357
0.000180807
4.38105e-05
0.000213557
0.000362785
0.000435102
0.000452568
0.000456125
0.000453813
0.00042447
0.000320774
0.000225796
0.000193105
4.25341e-05
0.000214224
0.000352509
0.000411734
0.000414184
0.000402749
0.000391591
0.000369972
0.000313212
0.000243981
0.000215422
4.06401e-05
0.000217182
0.000348996
0.000400895
0.000398653
0.000385091
0.000377123
0.000366098
0.000337656
0.00029628
0.000265108
3.81542e-05
0.000225468
0.000358322
0.000407554
0.000405276
0.000393456
0.000390614
0.000391125
0.000386369
0.00036935
0.000317636
3.49664e-05
0.000235038
0.000355789
0.000383187
0.000363292
0.000333462
0.000296549
0.00027974
0.000271269
0.000253105
0.000207248
2.89249e-05
0.000211107
0.000302923
0.00032058
0.000273297
0.000174396
0.000147209
0.00013075
0.000119488
0.000108573
9.65855e-05
1.76291e-05
9.56843e-05
0.000118558
0.000103235
8.33329e-05
7.22069e-05
6.90715e-05
7.0097e-05
7.29312e-05
7.54681e-05
7.59957e-05
8.16134e-06
1.01987e-05
1.46425e-05
2.17772e-05
3.30312e-05
4.89213e-05
6.82895e-05
8.82412e-05
0.000105361
0.000116837
0.000121596
2.48457e-05
5.32098e-05
4.85583e-05
4.75204e-05
4.20254e-05
3.64824e-05
3.3591e-05
3.23734e-05
3.20288e-05
3.22385e-05
3.2994e-05
2.1902e-05
5.97759e-05
4.51094e-05
4.98518e-05
4.35253e-05
3.73475e-05
3.36775e-05
3.20973e-05
3.16782e-05
3.20399e-05
3.31485e-05
2.27825e-05
5.97706e-05
4.23619e-05
5.20988e-05
4.413e-05
3.81531e-05
3.38177e-05
3.19345e-05
3.14486e-05
3.20116e-05
3.37289e-05
2.53629e-05
5.56732e-05
4.12302e-05
5.24312e-05
4.3833e-05
3.86556e-05
3.37781e-05
3.17121e-05
3.11813e-05
3.19391e-05
3.42815e-05
2.82748e-05
5.21965e-05
4.04051e-05
5.09884e-05
4.34191e-05
3.87637e-05
3.35178e-05
3.1377e-05
3.07845e-05
3.16485e-05
3.42952e-05
3.08248e-05
5.0307e-05
3.96838e-05
4.92438e-05
4.31688e-05
3.85503e-05
3.31098e-05
3.0935e-05
3.0251e-05
3.11151e-05
3.38217e-05
3.30058e-05
4.96207e-05
3.84276e-05
4.76824e-05
4.31021e-05
3.81683e-05
3.26672e-05
3.04192e-05
2.96103e-05
3.03996e-05
3.31406e-05
3.48435e-05
5.00854e-05
3.72207e-05
4.5288e-05
4.31164e-05
3.77463e-05
3.22668e-05
2.98588e-05
2.88997e-05
2.95368e-05
3.20554e-05
3.61329e-05
5.14517e-05
3.63833e-05
4.20593e-05
4.20863e-05
3.73614e-05
3.19614e-05
2.92936e-05
2.81635e-05
2.85824e-05
3.08085e-05
3.67699e-05
5.31593e-05
3.60764e-05
3.80027e-05
3.89224e-05
3.64609e-05
3.17471e-05
2.87967e-05
2.74487e-05
2.75826e-05
2.94164e-05
3.68784e-05
5.54847e-05
3.68676e-05
3.45196e-05
3.44435e-05
3.42853e-05
3.12828e-05
2.83523e-05
2.68057e-05
2.6604e-05
2.79483e-05
3.6451e-05
5.87866e-05
3.88585e-05
3.25603e-05
3.03994e-05
3.08731e-05
3.00616e-05
2.78219e-05
2.6224e-05
2.57057e-05
2.65627e-05
3.54386e-05
6.28963e-05
4.20942e-05
3.20894e-05
2.74444e-05
2.69291e-05
2.75962e-05
2.6823e-05
2.5605e-05
2.48916e-05
2.52953e-05
3.39613e-05
6.75547e-05
4.6835e-05
3.32471e-05
2.59178e-05
2.34722e-05
2.40214e-05
2.47492e-05
2.46126e-05
2.40757e-05
2.41525e-05
3.20691e-05
7.33729e-05
5.32799e-05
3.62633e-05
2.61422e-05
2.14823e-05
2.06158e-05
2.15967e-05
2.27097e-05
2.29591e-05
2.30491e-05
2.99855e-05
8.04607e-05
6.19094e-05
4.14947e-05
2.82497e-05
2.11866e-05
1.83932e-05
1.83084e-05
1.97121e-05
2.10053e-05
2.16748e-05
2.8055e-05
8.8669e-05
7.3445e-05
4.97726e-05
3.27711e-05
2.28453e-05
1.78487e-05
1.60343e-05
1.64415e-05
1.79625e-05
1.94603e-05
2.64853e-05
9.87814e-05
8.88482e-05
6.2303e-05
4.06806e-05
2.70765e-05
1.94137e-05
1.55458e-05
1.42636e-05
1.47583e-05
1.6248e-05
2.53772e-05
0.000110589
0.000108998
8.10519e-05
5.38795e-05
3.52511e-05
2.39405e-05
1.74517e-05
1.41073e-05
1.2894e-05
1.31979e-05
2.4246e-05
0.000122179
0.000133084
0.000108085
7.55611e-05
5.02158e-05
3.35274e-05
2.31579e-05
1.69796e-05
1.35579e-05
1.20309e-05
2.22041e-05
0.000129178
0.000156595
0.000142803
0.000109355
7.69663e-05
5.27474e-05
3.62465e-05
2.54572e-05
1.86021e-05
1.44381e-05
1.91956e-05
0.000131044
0.00017385
0.000178426
0.00015472
0.000120843
8.93285e-05
6.43965e-05
4.60817e-05
3.31538e-05
2.42557e-05
1.43462e-05
0.000114032
0.000164304
0.000187451
0.000187113
0.000168869
0.000141581
0.000113039
8.74809e-05
6.66038e-05
5.01946e-05
1.15193e-05
8.87662e-05
0.000123386
0.000149422
0.000161141
0.000161479
0.000153123
0.000138769
0.00012123
0.000102989
8.54293e-05
2.06909e-05
5.14821e-05
4.69422e-05
4.65566e-05
4.1258e-05
3.62563e-05
3.38511e-05
3.28882e-05
3.26242e-05
3.27449e-05
3.31444e-05
1.655e-05
4.38605e-05
4.64763e-05
4.90355e-05
4.34481e-05
3.81419e-05
3.51993e-05
3.39663e-05
3.36083e-05
3.37164e-05
3.40831e-05
1.73874e-05
4.16918e-05
4.19034e-05
5.09138e-05
4.58106e-05
4.07732e-05
3.79001e-05
3.66831e-05
3.63136e-05
3.63687e-05
3.66869e-05
2.00176e-05
3.81634e-05
3.99368e-05
5.18678e-05
4.68072e-05
4.23866e-05
3.99856e-05
3.94431e-05
3.99454e-05
4.1015e-05
4.24003e-05
2.3185e-05
3.43681e-05
3.93205e-05
5.16151e-05
4.71688e-05
4.35026e-05
4.14235e-05
4.13042e-05
4.23611e-05
4.41904e-05
4.65934e-05
2.62799e-05
3.14625e-05
3.90267e-05
5.07158e-05
4.72497e-05
4.42943e-05
4.24639e-05
4.26552e-05
4.41191e-05
4.6593e-05
5.00031e-05
2.91982e-05
2.94271e-05
3.87158e-05
4.96865e-05
4.72398e-05
4.48871e-05
4.32424e-05
4.36792e-05
4.53961e-05
4.82646e-05
5.22796e-05
3.19437e-05
2.7971e-05
3.83459e-05
4.87625e-05
4.72234e-05
4.53245e-05
4.38963e-05
4.45572e-05
4.65166e-05
4.98515e-05
5.48574e-05
3.43685e-05
2.68986e-05
3.79444e-05
4.80326e-05
4.73234e-05
4.56783e-05
4.45189e-05
4.5383e-05
4.75978e-05
5.13879e-05
5.71748e-05
3.64683e-05
2.61043e-05
3.75884e-05
4.75116e-05
4.75807e-05
4.60579e-05
4.5164e-05
4.62212e-05
4.87221e-05
5.30246e-05
5.96982e-05
3.82459e-05
2.55322e-05
3.72705e-05
4.72233e-05
4.79813e-05
4.65417e-05
4.58735e-05
4.71095e-05
4.99144e-05
5.47323e-05
6.19626e-05
3.9756e-05
2.50938e-05
3.69683e-05
4.71161e-05
4.85304e-05
4.71608e-05
4.6681e-05
4.80723e-05
5.11743e-05
5.65133e-05
6.44459e-05
4.08276e-05
2.44827e-05
3.63855e-05
4.69995e-05
4.9244e-05
4.79303e-05
4.76201e-05
4.91061e-05
5.24622e-05
5.82621e-05
6.70086e-05
4.14112e-05
2.34513e-05
3.37916e-05
4.57173e-05
4.9553e-05
4.8746e-05
4.87296e-05
5.02928e-05
5.38818e-05
6.00547e-05
6.94603e-05
4.14455e-05
2.25259e-05
3.01907e-05
4.30107e-05
4.91111e-05
4.94363e-05
4.99348e-05
5.16136e-05
5.53872e-05
6.17929e-05
7.15576e-05
4.08865e-05
2.17731e-05
2.62229e-05
3.85447e-05
4.72142e-05
4.95411e-05
5.10033e-05
5.29728e-05
5.68916e-05
6.3358e-05
7.3107e-05
3.97149e-05
2.12283e-05
2.25297e-05
3.25858e-05
4.29637e-05
4.80833e-05
5.12923e-05
5.40293e-05
5.81939e-05
6.46033e-05
7.39982e-05
3.78353e-05
2.08753e-05
1.96434e-05
2.63808e-05
3.6262e-05
4.3768e-05
4.94187e-05
5.3775e-05
5.86527e-05
6.51306e-05
7.39815e-05
3.51856e-05
2.05756e-05
1.76475e-05
2.11252e-05
2.84602e-05
3.62084e-05
4.36043e-05
5.00743e-05
5.64303e-05
6.35573e-05
7.21744e-05
3.17189e-05
2.01103e-05
1.63684e-05
1.73176e-05
2.14922e-05
2.72023e-05
3.38963e-05
4.09821e-05
4.84379e-05
5.64944e-05
6.54208e-05
2.73769e-05
1.91642e-05
1.5496e-05
1.48615e-05
1.64635e-05
1.94691e-05
2.36078e-05
2.86926e-05
3.46965e-05
4.16589e-05
4.95647e-05
2.21604e-05
1.7317e-05
1.45297e-05
1.32756e-05
1.33136e-05
1.42723e-05
1.59889e-05
1.83921e-05
2.1483e-05
2.52872e-05
2.97863e-05
1.6116e-05
1.39778e-05
1.25804e-05
1.15891e-05
1.10904e-05
1.10248e-05
1.13424e-05
1.20151e-05
1.30314e-05
1.43853e-05
1.60443e-05
9.06858e-06
1.10996e-05
1.23533e-05
1.33618e-05
1.46818e-05
1.68624e-05
2.0174e-05
2.44743e-05
2.95319e-05
3.50211e-05
4.04804e-05
1.10641e-05
7.12865e-06
6.55571e-06
6.79351e-06
8.14466e-06
1.23852e-05
1.48475e-05
1.63637e-05
1.7368e-05
2.98516e-05
2.45544e-05
2.5159e-05
2.49368e-05
2.92876e-05
3.76763e-05
5.53349e-05
7.96714e-05
0.000108078
5.64781e-05
4.32914e-05
3.96321e-05
3.85527e-05
5.05276e-05
7.42817e-05
0.000113844
0.000160412
0.000205558
8.44163e-05
6.4469e-05
5.46481e-05
5.22588e-05
7.31324e-05
0.00011135
0.000168601
0.000233913
0.000288539
1.43148e-05
1.59282e-05
1.67952e-05
1.7341e-05
1.75479e-05
1.76296e-05
1.7591e-05
1.82061e-05
1.81156e-05
4.07128e-05
5.99626e-05
8.60312e-05
0.000108047
0.000123204
0.000137496
0.000148484
0.000141446
0.000127445
8.23077e-05
0.000123468
0.00017321
0.000208425
0.000230497
0.00024946
0.000263061
0.000255046
0.00023673
0.000122792
0.000182127
0.000246466
0.000287917
0.000305992
0.00032132
0.000336017
0.000330541
0.000321681
0.000195694
0.000229712
0.000229767
0.000291318
0.000389342
0.000229163
9.30966e-05
0.000229709
0.000229213
0.000234004
0.000375641
0.00022975
0.000162933
0.00021478
0.000123845
0.000228736
0.000216096
0.000290504
0.000228741
0.000228609
0.00022939
3.2849e-05
0.000229968
0.000119361
0.000229296
0.000215592
0.000167423
9.29387e-05
0.000379432
0.000465716
0.000216245
0.000235664
0.000167316
0.000229479
0.000241132
0.000229663
0.000114978
0.000229286
0.000144483
0.000229065
2.10533e-05
0.00022952
0.000121001
0.000229952
0.000470687
5.0135e-05
7.08336e-05
8.42333e-05
0.000239706
0.000230026
0.000441233
0.000229063
0.00019275
0.000122484
0.000229812
0.000229192
3.32432e-05
0.000229052
0.00039322
0.000182364
3.08564e-05
0.000172215
0.000487833
0.000369177
3.00198e-05
0.000228621
0.000336959
0.00023277
0.000229705
0.000233531
0.000183838
0.000233854
0.000112922
0.000243249
0.000371288
0.000231845
1.86144e-05
0.000229745
0.000147548
0.000391857
0.000134773
0.000318469
0.000229261
0.000229806
0.000247609
0.00011651
0.000426761
0.000136488
5.26991e-05
0.000108799
0.000229514
0.00022906
2.48558e-05
0.000235166
0.0004043
0.000120835
0.000332399
0.000236459
4.71593e-05
0.000236136
0.000252262
0.000101563
0.000230217
0.000235872
7.50512e-05
0.000229622
0.000191463
0.000229876
0.000193063
0.000234949
0.000229426
0.000229576
0.000231364
0.000176237
0.000134418
0.000229002
0.000229118
0.000228981
0.000229461
0.000229185
0.000139321
0.000241241
0.000251102
0.000212847
5.04023e-05
0.000210697
0.000192524
0.00018308
0.000217892
0.000212275
0.000229181
0.000187371
8.87176e-05
0.000232334
0.000229756
0.00023418
2.04169e-05
0.000216615
0.000463801
0.000244409
0.000116753
0.000230879
0.000284979
0.000167791
0.000229156
4.70315e-05
0.000124305
0.000232051
0.000235557
0.000229222
0.000229583
0.000229171
4.17125e-05
0.000240486
0.000244583
7.68902e-05
0.000125034
2.80235e-05
0.000166312
0.000228949
0.000214789
3.95338e-05
0.000233281
0.000229066
0.000367707
0.000157706
8.23209e-05
0.000235681
0.00023343
3.01949e-05
0.000198212
0.000161368
0.000225207
0.000229351
0.000234918
0.000219866
0.000161596
3.83371e-05
0.000474157
0.000199156
0.000231461
2.67269e-05
0.000229945
0.000116814
0.000229485
0.000328553
0.000229773
0.000228959
0.000229674
0.00018088
0.000198496
0.000216759
0.000228597
2.12217e-05
0.000229739
0.000229088
0.000229648
4.54675e-05
0.000210241
0.000230001
4.09947e-05
0.000230373
0.000199113
0.000209878
0.000229808
0.000132661
0.000234523
0.000217785
0.000229696
0.000228742
0.000110041
0.000228949
0.00017471
0.000238921
0.000229312
0.000250583
0.000229426
6.36384e-05
0.000229984
0.000135422
0.000116417
0.000149473
0.000339842
0.000133937
0.000210652
0.000229062
9.65058e-05
0.000170793
0.000202447
0.00040553
3.06926e-05
0.000228552
0.000229654
0.00024115
4.09277e-05
0.000324399
0.000190859
0.00022989
0.000229731
0.000229685
6.45266e-05
0.0005316
0.000235962
2.06923e-05
0.000244282
3.69762e-05
0.000229403
0.00020124
0.000179141
0.000183509
0.000202198
0.000109563
0.000239434
0.000228818
0.000233297
0.000229485
0.000229118
0.000229244
6.61522e-05
0.000229854
0.000128939
0.000197914
0.000228224
0.000229678
0.00022941
7.68417e-05
0.000231222
0.00025034
0.000159265
0.000177648
0.00017468
0.000229507
0.000230382
7.1855e-05
0.000229218
0.000228973
0.000212638
0.000229252
0.000238056
6.13903e-05
0.000235388
0.000229825
0.000134681
0.000169459
0.00023294
0.000229191
0.000485542
0.000229834
0.000237833
0.000107185
0.000229873
0.000110758
0.000237574
0.00011567
0.000230021
0.000229603
0.000233562
0.000229668
0.000240648
0.000211273
0.000229201
9.73978e-05
0.000242803
0.000470705
0.000229071
0.000235287
0.000229761
0.000120451
2.77024e-05
0.000229156
5.70314e-05
0.000229649
0.000233719
0.000173391
2.16981e-05
0.000231483
0.000208544
0.000120193
0.000228728
0.000239358
0.000229523
0.000121789
0.000228912
0.000186872
0.000256343
0.000233307
0.000229152
0.000223159
0.000228252
0.000298217
0.000237279
0.000485186
1.73632e-05
0.000229886
0.000141676
0.00021613
0.000125783
0.000229727
0.000229318
0.000238424
5.64623e-05
0.000108992
0.000230511
0.000139344
0.000160481
0.000120388
0.000161968
0.000228962
0.000113757
0.000209896
6.02424e-05
0.000236502
0.000177726
0.000229067
0.00010929
0.000230037
0.000111806
0.00020653
0.000229951
0.000282731
0.000134982
0.000214248
0.000229452
0.000229326
0.000229733
6.73497e-05
0.000170274
7.54874e-05
7.47304e-05
0.000251342
0.000229243
0.000117067
0.000196391
0.000211878
0.000115915
0.000229857
0.000151534
0.000240875
0.000229195
0.000229213
0.000124452
0.000229108
4.52196e-05
0.000229054
0.000217091
0.000281653
0.00010438
0.00020904
0.000525767
4.90266e-05
0.000229194
5.13618e-05
0.000198393
0.00024562
0.000271564
2.90055e-05
0.000229259
0.000229243
0.00022985
0.000116108
6.66053e-05
0.000228961
0.000229933
0.000105676
0.000160399
2.07561e-05
0.000104837
0.000155105
0.000230311
0.000122649
0.000234535
0.000228717
0.000205895
0.000208886
4.32038e-05
0.000233635
0.000198862
0.000248155
0.000194172
5.37099e-05
0.000275077
0.000156612
9.54366e-05
0.000190601
0.000226852
0.000234232
0.000241923
7.59903e-05
0.000223452
3.70078e-05
0.000229268
4.58799e-05
0.00020902
0.000228623
0.000242208
8.56852e-05
0.000192338
0.000423241
0.000213012
0.000230035
0.000235651
0.000407968
0.000342736
0.000101034
0.00023189
7.57857e-05
0.000178027
2.71923e-05
0.000228995
3.02756e-05
0.000229212
0.000229755
0.000229396
5.1895e-05
0.000105628
7.76511e-05
0.000198882
3.70012e-05
8.37165e-05
0.000229675
0.000228998
0.000195915
0.00019146
0.000233349
0.000234105
4.10576e-05
4.52716e-05
2.96836e-05
2.93526e-05
0.000236552
0.000211253
6.3622e-05
0.000229239
2.99997e-05
0.000233145
0.000229802
0.000229425
8.05675e-05
2.94716e-05
0.000229666
0.000229096
0.000229405
0.000455821
2.34799e-05
0.000229911
5.33815e-05
0.000355866
0.000156482
7.791e-05
0.00022885
3.95583e-05
0.000229114
0.000233059
0.000229057
0.000212966
0.000147982
0.000228626
0.000188113
0.000168235
0.000247587
0.000227789
0.000223187
0.000229655
0.00022943
0.000247734
7.66933e-05
9.01584e-05
0.000237662
0.000103128
0.000229774
0.000212554
0.000107275
4.53291e-05
0.000165083
0.000251871
0.000228126
0.00010129
0.000188412
0.000229138
0.000181415
0.000228832
0.000229817
0.000229233
0.000229753
0.00023221
0.000122363
0.000229562
0.00022889
0.000122039
0.000229176
4.81851e-05
0.000243404
0.000124429
0.000171163
5.55435e-05
0.000230024
0.000229292
0.000229862
2.15562e-05
2.97454e-05
0.00022934
0.000229236
0.000213413
0.000229791
0.000298843
0.000229769
0.000290641
0.000236746
3.09913e-05
0.00013161
0.000136913
5.26005e-05
0.000221779
0.000229096
0.00023133
0.000235299
0.000229856
8.63942e-05
2.539e-05
0.000223878
0.0002128
0.00019203
0.000116846
0.000229311
0.000230445
0.000229714
0.000183438
0.000206567
8.66536e-05
0.000229639
0.000229116
0.000166494
0.000231839
0.000136965
0.000218074
0.000143121
0.000256552
0.000229107
9.15293e-05
0.000229266
9.95511e-05
0.000229697
0.000365591
0.000156681
0.000234593
2.28303e-05
0.000143989
0.000229894
0.00022999
0.000429825
0.00022902
0.000180002
0.000383527
0.00010874
0.000205693
5.63714e-05
0.000199605
0.000231501
0.000229147
0.000229424
0.00011441
8.10306e-05
0.000115754
0.000228607
0.000229345
9.16815e-05
0.00022983
0.000238402
0.000233413
0.000233821
0.000155057
7.67644e-05
0.000108325
0.000159661
0.000233146
0.000229039
0.000228787
0.000104508
0.000231783
0.000229249
0.000165596
0.000111331
0.000228921
0.000229048
2.09947e-05
0.000230312
0.000228957
0.000147505
0.000229736
0.000232852
0.000151748
0.000121041
0.000157263
0.000218964
0.000166712
6.99413e-05
0.000115955
6.5356e-05
0.000104541
0.00017224
6.55297e-05
0.000120181
0.000128654
0.000229779
0.000229783
0.000247965
0.000229637
0.000229268
0.000239179
0.000208803
0.000116108
0.000188763
0.000186891
0.000233947
0.000229068
0.000196947
0.000229495
0.000229209
0.000236361
0.000119189
0.000231842
0.000239599
0.000230348
0.00022982
0.000468061
6.30324e-05
0.000384023
0.000232126
0.000230273
0.000189665
9.51918e-05
0.000237771
0.000191928
0.00023167
0.00040815
0.00013165
0.000229092
8.43494e-05
0.000229952
0.000170321
0.000435116
0.000151296
0.000142897
0.000213005
0.000246204
0.000229834
0.00010363
0.000191293
4.90242e-05
0.000181972
0.000228947
0.000233451
0.000229823
0.000159206
0.000229473
6.40338e-05
0.000229663
0.000229067
0.000229172
0.000166721
8.72498e-05
0.000229539
0.000135254
0.000229285
0.00017551
0.00016596
0.000230868
0.000401113
2.03535e-05
0.000115317
0.000236328
0.000216928
0.000188389
0.000109321
0.000182644
9.20484e-05
0.000229209
0.000191986
0.000229366
0.000236479
5.22277e-05
0.000237096
3.80638e-05
0.000215081
0.000231496
0.00023308
0.000229214
7.25606e-05
0.000229654
0.000251434
9.38756e-05
0.000290426
0.000233182
0.000137888
0.000139354
0.000213527
0.000240777
0.000177794
2.91424e-05
0.000101188
0.000229519
0.000213878
0.000188288
0.000229527
5.15092e-05
0.000124795
0.000245669
0.000401268
0.000229088
0.000232686
0.000234913
0.000136581
0.000236083
0.000208493
0.000229657
0.000169303
0.000234326
0.000120628
7.63201e-05
0.000108904
0.000190804
0.000228945
0.000179757
6.23066e-05
0.000229137
0.000217984
0.00018686
8.19921e-05
0.000239202
2.82124e-05
0.000236015
0.000134541
0.000131062
0.000251821
0.000229157
0.000247573
0.000229038
0.000200801
2.05216e-05
0.000230062
0.000229398
0.000251864
0.000354946
0.00011699
0.000199607
0.000229809
0.000190111
0.000240603
0.000229563
0.00022963
0.000229796
0.000229314
0.000243057