/*--------------------------------*- C++ -*----------------------------------*\
| =========                 |                                                 |
| \\      /  F ield         | OpenFOAM: The Open Source CFD Toolbox           |
|  \\    /   O peration     | Version:  3.0.1                                 |
|   \\  /    A nd           | Web:      www.OpenFOAM.org                      |
|    \\/     M anipulation  |                                                 |
\*---------------------------------------------------------------------------*/
FoamFile
{
    version     2.0;
    format      ascii;
    class       surfaceScalarField;
    location    "0.558018";
    object      phi;
}
// * * * * * * * * * * * * * * * * * * * * * * * * * * * * * * * * * * * * * //

dimensions      [0 3 -1 0 0 0 0];

internalField   nonuniform List<scalar> 
32369
(
-2.01336e-06
1.43651e-05
-1.23517e-05
-4.20284e-06
1.37235e-05
-1.1534e-05
-8.08926e-06
1.66121e-05
-1.27256e-05
-1.29155e-05
1.91507e-05
-1.43245e-05
-1.81074e-05
2.15785e-05
-1.63866e-05
-2.36453e-05
2.45485e-05
-1.90106e-05
-2.96932e-05
2.83541e-05
-2.23063e-05
-3.64821e-05
3.32286e-05
-2.64397e-05
-4.42795e-05
3.94791e-05
-3.16817e-05
-5.3412e-05
4.75398e-05
-3.84074e-05
5.80015e-05
-4.70827e-05
-6.43307e-05
3.37031e-06
1.09947e-05
4.39457e-06
1.26992e-05
3.18901e-06
1.78176e-05
3.67666e-07
2.1972e-05
-3.88664e-06
2.58328e-05
-9.25204e-06
2.99139e-05
-1.54991e-05
3.46012e-05
-2.27016e-05
4.04311e-05
-3.10688e-05
4.78463e-05
-4.08927e-05
5.73637e-05
6.96732e-05
-5.25644e-05
2.60776e-06
8.38698e-06
3.85097e-06
1.1456e-05
4.48084e-06
1.71878e-05
3.93646e-06
2.25164e-05
1.78395e-06
2.79853e-05
-1.9229e-06
3.36208e-05
-6.93355e-06
3.96118e-05
-1.31056e-05
4.66032e-05
-2.0502e-05
5.52427e-05
-2.93229e-05
6.61845e-05
8.02747e-05
-3.99244e-05
2.1501e-06
6.23688e-06
3.05475e-06
1.05514e-05
4.10738e-06
1.61351e-05
4.57439e-06
2.20494e-05
3.96059e-06
2.85991e-05
2.02801e-06
3.55533e-05
-1.2643e-06
4.29041e-05
-5.82623e-06
5.11651e-05
-1.16078e-05
6.10243e-05
-1.87065e-05
7.32832e-05
8.88057e-05
-2.72375e-05
1.64865e-06
4.58822e-06
2.89545e-06
9.30459e-06
4.09219e-06
1.49384e-05
4.96058e-06
2.1181e-05
5.20428e-06
2.83554e-05
4.54627e-06
3.62114e-05
2.77865e-06
4.46718e-05
-1.44879e-07
5.40887e-05
-4.21415e-06
6.50935e-05
-9.45272e-06
7.85218e-05
9.53742e-05
-1.60213e-05
1.43622e-06
3.152e-06
2.91497e-06
7.82584e-06
4.45127e-06
1.34021e-05
5.6906e-06
1.99417e-05
6.5178e-06
2.75282e-05
6.71844e-06
3.60107e-05
6.08516e-06
4.5305e-05
4.52074e-06
5.56531e-05
1.98285e-06
6.76314e-05
-1.55994e-06
8.20646e-05
0.000100031
-6.21647e-06
1.34536e-06
1.80665e-06
3.02251e-06
6.14869e-06
4.76707e-06
1.16575e-05
6.36902e-06
1.83397e-05
7.69464e-06
2.62026e-05
8.57546e-06
3.51299e-05
8.83348e-06
4.5047e-05
8.36412e-06
5.61225e-05
7.1231e-06
6.88725e-05
5.09913e-06
8.40886e-05
0.000102889
2.24108e-06
1.17862e-06
6.28029e-07
2.89462e-06
4.43269e-06
4.77434e-06
9.77779e-06
6.67253e-06
1.64416e-05
8.44327e-06
2.44319e-05
9.92094e-06
3.36522e-05
1.09504e-05
4.40175e-05
1.14326e-05
5.56402e-05
1.1334e-05
6.89711e-05
1.06872e-05
8.47353e-05
0.000104154
9.42178e-06
8.57595e-07
-2.29566e-07
2.42678e-06
2.86351e-06
4.41789e-06
7.78667e-06
6.61646e-06
1.4243e-05
8.81667e-06
2.22316e-05
1.08537e-05
3.16152e-05
1.25858e-05
4.22854e-05
1.39217e-05
5.43043e-05
1.48636e-05
6.80292e-05
1.54186e-05
8.41803e-05
0.000103923
1.56502e-05
3.88916e-07
-6.18481e-07
1.69959e-06
1.55283e-06
3.82085e-06
5.66541e-06
6.30165e-06
1.17622e-05
8.9097e-06
1.96236e-05
1.14767e-05
2.90482e-05
1.38591e-05
3.9903e-05
1.59768e-05
5.21867e-05
1.78218e-05
6.61842e-05
1.94791e-05
8.2523e-05
0.000102329
2.1073e-05
1.90481e-07
-8.08963e-07
1.19269e-06
5.50628e-07
3.09367e-06
3.76443e-06
5.64653e-06
9.20934e-06
8.54439e-06
1.67257e-05
1.15617e-05
2.60309e-05
1.45407e-05
3.69241e-05
1.73882e-05
4.93391e-05
2.01034e-05
6.3469e-05
2.27821e-05
7.98444e-05
9.94109e-05
2.56999e-05
1.38299e-07
-9.47261e-07
7.68719e-07
-7.97919e-08
2.28254e-06
2.25061e-06
4.679e-06
6.81287e-06
7.67949e-06
1.37252e-05
1.10133e-05
2.2697e-05
1.44897e-05
3.34477e-05
1.80083e-05
4.58205e-05
2.15649e-05
5.99124e-05
2.52894e-05
7.61199e-05
9.52542e-05
2.9446e-05
1.29278e-07
-1.07654e-06
5.19432e-07
-4.69946e-07
1.62071e-06
1.14933e-06
3.69152e-06
4.74206e-06
6.608e-06
1.08088e-05
1.00914e-05
1.92136e-05
1.39227e-05
2.96164e-05
1.79809e-05
4.17623e-05
2.22899e-05
5.56035e-05
2.69952e-05
7.14146e-05
8.98619e-05
3.23875e-05
9.99207e-08
-1.17646e-06
3.56203e-07
-7.26228e-07
1.14033e-06
3.65197e-07
2.80877e-06
3.07362e-06
5.4498e-06
8.16775e-06
8.8912e-06
1.57722e-05
1.29094e-05
2.55981e-05
1.7373e-05
3.72987e-05
2.22861e-05
5.06904e-05
2.78074e-05
6.58933e-05
8.34167e-05
3.42526e-05
6.33023e-08
-1.23976e-06
1.924e-07
-8.55325e-07
6.96793e-07
-1.39197e-07
1.90993e-06
1.86048e-06
4.10954e-06
5.96815e-06
7.27592e-06
1.26058e-05
1.12515e-05
2.16226e-05
1.59287e-05
3.26215e-05
2.13157e-05
4.53033e-05
2.75438e-05
5.96652e-05
7.59916e-05
3.49689e-05
1.57561e-08
-1.25552e-06
3.02085e-08
-8.69778e-07
2.86447e-07
-3.95435e-07
1.07766e-06
1.06927e-06
2.77413e-06
4.27168e-06
5.50829e-06
9.87165e-06
9.24008e-06
1.78908e-05
1.39053e-05
2.79563e-05
1.9538e-05
3.96707e-05
2.63332e-05
5.28701e-05
6.76641e-05
3.46607e-05
-4.08191e-08
-1.2147e-06
-1.19998e-07
-7.90599e-07
-6.71e-08
-4.48332e-07
3.39145e-07
6.63027e-07
1.52756e-06
3.08326e-06
3.74856e-06
7.65065e-06
7.05985e-06
1.45795e-05
1.15108e-05
2.35053e-05
1.71867e-05
3.39948e-05
2.42483e-05
4.58084e-05
5.89819e-05
3.29306e-05
-9.42434e-08
-1.12046e-06
-2.6179e-07
-6.23053e-07
-3.66451e-07
-3.43672e-07
-2.78014e-07
5.7459e-07
3.85481e-07
2.41977e-06
2.05537e-06
5.98075e-06
4.83691e-06
1.1798e-05
8.88047e-06
1.94617e-05
1.43506e-05
2.85246e-05
2.14483e-05
3.87108e-05
4.99493e-05
3.04808e-05
-1.45751e-07
-9.74705e-07
-3.89277e-07
-3.79527e-07
-6.14866e-07
-1.18082e-07
-7.27101e-07
6.86824e-07
-4.69575e-07
2.16224e-06
6.40995e-07
4.87019e-06
2.89003e-06
9.54893e-06
6.42678e-06
1.5925e-05
1.15235e-05
2.34279e-05
1.84448e-05
3.17895e-05
4.0764e-05
2.76301e-05
-2.00065e-07
-7.74641e-07
-5.07479e-07
-7.21128e-08
-8.13986e-07
1.88426e-07
-1.02488e-06
8.97716e-07
-9.50032e-07
2.0874e-06
-2.52129e-07
4.17228e-06
1.50991e-06
7.78689e-06
4.54811e-06
1.28868e-05
9.14908e-06
1.88269e-05
1.56464e-05
2.52922e-05
3.18875e-05
2.45229e-05
-2.8019e-07
-4.94451e-07
-6.28429e-07
2.76126e-07
-9.46482e-07
5.06479e-07
-1.11414e-06
1.06537e-06
-9.90296e-07
1.96355e-06
-3.85796e-07
3.56778e-06
1.08205e-06
6.31905e-06
3.73628e-06
1.02326e-05
7.8324e-06
1.47308e-05
1.3796e-05
1.93286e-05
2.3418e-05
2.22654e-05
-4.28059e-07
-6.63913e-08
-7.56137e-07
6.04204e-07
-9.08075e-07
6.58417e-07
-7.8314e-07
9.40439e-07
-3.09637e-07
1.49005e-06
5.87239e-07
2.67091e-06
2.14924e-06
4.75705e-06
4.72698e-06
7.65481e-06
8.63881e-06
1.0819e-05
1.43712e-05
1.35962e-05
1.53802e-05
2.24091e-05
-6.75718e-07
6.09327e-07
-5.7648e-07
5.04966e-07
-1.50872e-07
2.32808e-07
5.95451e-07
1.94117e-07
1.6553e-06
4.30196e-07
3.10243e-06
1.22378e-06
5.18792e-06
2.67156e-06
8.3013e-06
4.54144e-06
1.28427e-05
6.27761e-06
1.93065e-05
7.13238e-06
6.2766e-06
2.84101e-05
2.23077e-06
-1.62144e-06
3.68507e-06
-9.49339e-07
4.86868e-06
-9.50794e-07
6.04882e-06
-9.8603e-07
7.26991e-06
-7.90885e-07
8.90316e-06
-4.09477e-07
1.14646e-05
1.10125e-07
1.53799e-05
6.26099e-07
2.09205e-05
7.37006e-07
2.81986e-05
-1.45679e-07
-2.44574e-06
3.69209e-05
-1.05113e-05
-1.84041e-06
-1.75521e-05
-4.49323e-06
-2.33058e-05
-6.9719e-06
-2.83192e-05
-9.31112e-06
-3.30453e-05
-1.16605e-05
-3.7901e-05
-1.41549e-05
-4.32239e-05
-1.69834e-05
-4.92919e-05
-2.03717e-05
-5.63586e-05
-2.4615e-05
-6.46706e-05
-3.00953e-05
-3.73033e-05
-7.445e-05
-5.48009e-06
3.63968e-06
-1.11116e-05
1.13825e-06
-1.72274e-05
-8.56072e-07
-2.30885e-05
-3.44998e-06
-2.88036e-05
-5.94543e-06
-3.46626e-05
-8.29588e-06
-4.09804e-05
-1.06656e-05
-4.80857e-05
-1.32664e-05
-5.63092e-05
-1.63915e-05
-6.59847e-05
-2.04198e-05
-2.58157e-05
-7.74724e-05
-2.30099e-06
5.94067e-06
-5.71852e-06
4.55579e-06
-1.05926e-05
4.01802e-06
-1.64468e-05
2.40423e-06
-2.28012e-05
4.0898e-07
-2.94283e-05
-1.66879e-06
-3.65059e-05
-3.58804e-06
-4.43459e-05
-5.42641e-06
-5.33043e-05
-7.4331e-06
-6.37361e-05
-9.98804e-06
-1.35516e-05
-7.60001e-05
-1.38368e-06
7.32436e-06
-3.69272e-06
6.86482e-06
-7.10852e-06
7.43382e-06
-1.17208e-05
7.01654e-06
-1.74549e-05
6.14305e-06
-2.40696e-05
4.94587e-06
-3.14222e-05
3.76459e-06
-3.95626e-05
2.71399e-06
-4.8699e-05
1.70329e-06
-5.9162e-05
4.74981e-07
-1.30141e-06
-7.14122e-05
-1.19575e-06
8.5201e-06
-3.16786e-06
8.83694e-06
-5.82242e-06
1.00884e-05
-9.37179e-06
1.05659e-05
-1.39904e-05
1.07617e-05
-1.97094e-05
1.06649e-05
-2.64416e-05
1.04968e-05
-3.41607e-05
1.04331e-05
-4.29774e-05
1.052e-05
-5.3103e-05
1.06006e-05
1.04194e-05
-6.48238e-05
-1.06173e-06
9.58183e-06
-2.78931e-06
1.05645e-05
-5.00899e-06
1.23081e-05
-7.9193e-06
1.34762e-05
-1.17313e-05
1.45737e-05
-1.65687e-05
1.55022e-05
-2.2462e-05
1.63901e-05
-2.94139e-05
1.7385e-05
-3.74597e-05
1.85658e-05
-4.67372e-05
1.98781e-05
2.11586e-05
-5.74764e-05
-9.21378e-07
1.05032e-05
-2.42725e-06
1.20704e-05
-4.30965e-06
1.41905e-05
-6.75225e-06
1.59188e-05
-9.93694e-06
1.77584e-05
-1.39992e-05
1.95645e-05
-1.90387e-05
2.14296e-05
-2.51082e-05
2.34546e-05
-3.22357e-05
2.56932e-05
-4.0524e-05
2.81664e-05
3.07165e-05
-5.0082e-05
-8.18429e-07
1.13216e-05
-2.13993e-06
1.33919e-05
-3.75593e-06
1.58065e-05
-5.80488e-06
1.79678e-05
-8.45937e-06
2.04129e-05
-1.18449e-05
2.29501e-05
-1.60817e-05
2.56663e-05
-2.1242e-05
2.86148e-05
-2.74205e-05
3.18718e-05
-3.46841e-05
3.543e-05
3.91433e-05
-4.31108e-05
-7.12604e-07
1.20342e-05
-1.83088e-06
1.45102e-05
-3.16151e-06
1.71371e-05
-4.87121e-06
1.96775e-05
-7.05137e-06
2.2593e-05
-9.8246e-06
2.57233e-05
-1.33087e-05
2.91504e-05
-1.76148e-05
3.2921e-05
-2.28289e-05
3.70858e-05
-2.90181e-05
4.16192e-05
4.63524e-05
-3.62272e-05
-5.46481e-07
1.25807e-05
-1.50426e-06
1.54679e-05
-2.5168e-06
1.81496e-05
-3.89521e-06
2.10559e-05
-5.62058e-06
2.43184e-05
-7.81662e-06
2.79193e-05
-1.05928e-05
3.19266e-05
-1.40648e-05
3.6393e-05
-1.8335e-05
4.1356e-05
-2.35186e-05
4.68028e-05
5.25905e-05
-2.97566e-05
-3.7907e-07
1.29598e-05
-9.91175e-07
1.608e-05
-1.7571e-06
1.89156e-05
-2.75736e-06
2.20561e-05
-4.02754e-06
2.55886e-05
-5.66043e-06
2.95522e-05
-7.75103e-06
3.40172e-05
-1.04043e-05
3.90463e-05
-1.37447e-05
4.46964e-05
-1.79109e-05
5.09689e-05
5.77227e-05
-2.3043e-05
-2.0797e-07
1.31678e-05
-6.03173e-07
1.64752e-05
-1.06617e-06
1.93786e-05
-1.69251e-06
2.26825e-05
-2.48989e-06
2.6386e-05
-3.53152e-06
3.05939e-05
-4.89292e-06
3.53786e-05
-6.68067e-06
4.0834e-05
-9.01948e-06
4.70353e-05
-1.20646e-05
5.40141e-05
6.16871e-05
-1.6029e-05
-2.33118e-08
1.31911e-05
-1.45751e-07
1.65977e-05
-3.09005e-07
1.95418e-05
-5.40183e-07
2.29137e-05
-8.5018e-07
2.6696e-05
-1.28271e-06
3.10264e-05
-1.89468e-06
3.59905e-05
-2.76947e-06
4.17088e-05
-4.04246e-06
4.83083e-05
-5.8889e-06
5.58605e-05
6.42693e-05
-8.47109e-06
2.44112e-07
1.2947e-05
4.15598e-07
1.64262e-05
5.87989e-07
1.93694e-05
7.63964e-07
2.27377e-05
9.51565e-07
2.65084e-05
1.13833e-06
3.08396e-05
1.29888e-06
3.583e-05
1.36267e-06
4.1645e-05
1.21609e-06
4.84548e-05
6.72254e-07
5.64043e-05
6.55031e-05
-5.61607e-07
4.19289e-07
1.25277e-05
8.69879e-07
1.59756e-05
1.38924e-06
1.88501e-05
1.99217e-06
2.21347e-05
2.70309e-06
2.57974e-05
3.54094e-06
3.00018e-05
4.50314e-06
3.48678e-05
5.55372e-06
4.05945e-05
6.593e-06
4.74156e-05
7.46429e-06
5.5533e-05
6.5066e-05
7.90135e-06
6.25364e-07
1.19023e-05
1.36576e-06
1.52352e-05
2.23794e-06
1.79779e-05
3.27405e-06
2.10986e-05
4.51721e-06
2.45543e-05
6.00995e-06
2.8509e-05
7.77947e-06
3.30983e-05
9.81918e-06
3.85547e-05
1.20675e-05
4.51673e-05
1.43736e-05
5.32269e-05
6.29416e-05
1.64981e-05
8.52917e-07
1.10494e-05
1.90275e-06
1.41854e-05
3.13374e-06
1.67469e-05
4.60767e-06
1.96247e-05
6.3794e-06
2.27825e-05
8.51769e-06
2.63708e-05
1.10779e-05
3.0538e-05
1.40911e-05
3.55415e-05
1.75159e-05
4.17425e-05
2.12283e-05
4.95145e-05
5.92286e-05
2.49413e-05
1.06392e-06
9.98547e-06
2.40642e-06
1.28429e-05
3.99453e-06
1.51588e-05
5.89786e-06
1.77214e-05
8.18336e-06
2.0497e-05
1.09438e-05
2.36104e-05
1.42615e-05
2.72203e-05
1.81929e-05
3.16101e-05
2.27485e-05
3.7187e-05
2.78498e-05
4.44132e-05
5.36595e-05
3.34189e-05
1.25675e-06
8.72872e-06
2.87147e-06
1.12282e-05
4.79124e-06
1.3239e-05
7.09379e-06
1.54188e-05
9.85682e-06
1.7734e-05
1.3185e-05
2.02822e-05
1.71831e-05
2.32222e-05
2.19389e-05
2.68543e-05
2.74838e-05
3.16421e-05
3.37679e-05
3.81291e-05
4.68044e-05
4.0623e-05
1.42832e-06
7.3004e-06
3.27957e-06
9.37691e-06
5.48854e-06
1.103e-05
8.13226e-06
1.27751e-05
1.12976e-05
1.45687e-05
1.50976e-05
1.64823e-05
1.9648e-05
1.86717e-05
2.50511e-05
2.14512e-05
3.13812e-05
2.5312e-05
3.86631e-05
3.08472e-05
3.85221e-05
4.69455e-05
1.56248e-06
5.73792e-06
3.58725e-06
7.35215e-06
6.00941e-06
8.60788e-06
8.90804e-06
9.87649e-06
1.23631e-05
1.11136e-05
1.64879e-05
1.23575e-05
2.13961e-05
1.37635e-05
2.71982e-05
1.56491e-05
3.40034e-05
1.85067e-05
4.19047e-05
2.29459e-05
2.92504e-05
5.11764e-05
1.62163e-06
4.11628e-06
3.72744e-06
5.24634e-06
6.27045e-06
6.06487e-06
9.30558e-06
6.84136e-06
1.29018e-05
7.51737e-06
1.71462e-05
8.11305e-06
2.21454e-05
8.76438e-06
2.8012e-05
9.78239e-06
3.4864e-05
1.16548e-05
4.28087e-05
1.50013e-05
2.02329e-05
5.18262e-05
1.61302e-06
2.50326e-06
3.73367e-06
3.12569e-06
6.27709e-06
3.52145e-06
9.27783e-06
3.84063e-06
1.27876e-05
4.00763e-06
1.68853e-05
4.01528e-06
2.16628e-05
3.98692e-06
2.72378e-05
4.20734e-06
3.37592e-05
5.13334e-06
4.14868e-05
7.27369e-06
1.08953e-05
5.08244e-05
8.8182e-07
3.05817e-06
5.62883e-06
8.48342e-06
1.17002e-05
1.5306e-05
1.9403e-05
2.42365e-05
3.01068e-05
3.72348e-05
4.56844e-05
-5.39241e-06
-7.22327e-06
1.26157e-05
-8.64588e-06
-8.29073e-06
1.15442e-05
-1.13675e-05
-9.89358e-06
1.26152e-05
-1.42857e-05
-1.16491e-05
1.45673e-05
-1.73802e-05
-1.33889e-05
1.64834e-05
-2.0587e-05
-1.50143e-05
1.82211e-05
-2.40959e-05
-1.64874e-05
1.99963e-05
-2.80973e-05
-1.77428e-05
2.17441e-05
-3.27566e-05
-1.86424e-05
2.33017e-05
-3.82755e-05
-1.89539e-05
2.44728e-05
-1.82673e-05
2.4942e-05
-4.49503e-05
-4.88715e-06
-2.33612e-06
-8.91064e-06
-4.26723e-06
-1.25252e-05
-6.27901e-06
-1.58983e-05
-8.27598e-06
-1.91715e-05
-1.01158e-05
-2.25072e-05
-1.16785e-05
-2.61119e-05
-1.28828e-05
-3.02206e-05
-1.3634e-05
-3.50796e-05
-1.37834e-05
-4.09586e-05
-1.30749e-05
-1.11123e-05
-4.81135e-05
-2.67184e-06
3.35719e-07
-5.68675e-06
-1.25232e-06
-9.05486e-06
-2.9109e-06
-1.2658e-05
-4.67289e-06
-1.64166e-05
-6.35707e-06
-2.0345e-05
-7.75016e-06
-2.45695e-05
-8.65823e-06
-2.92818e-05
-8.9217e-06
-3.47162e-05
-8.34905e-06
-4.11328e-05
-6.65826e-06
-3.39143e-06
-4.88537e-05
-1.45254e-06
1.78826e-06
-3.59415e-06
8.89283e-07
-6.4094e-06
-9.56478e-08
-9.71367e-06
-1.36862e-06
-1.34363e-05
-2.6344e-06
-1.75601e-05
-3.62644e-06
-2.21384e-05
-4.07988e-06
-2.72679e-05
-3.7922e-06
-3.31078e-05
-2.50917e-06
-3.98518e-05
8.5742e-08
4.53735e-06
-4.77806e-05
-7.82381e-07
2.57064e-06
-2.21422e-06
2.32112e-06
-4.39504e-06
2.08518e-06
-7.27185e-06
1.50819e-06
-1.07853e-05
8.79048e-07
-1.48675e-05
4.55805e-07
-1.94442e-05
4.9676e-07
-2.46149e-05
1.37847e-06
-3.05564e-05
3.43236e-06
-3.75221e-05
7.05144e-06
1.2761e-05
-4.57457e-05
-6.9444e-07
3.26508e-06
-1.78078e-06
3.40746e-06
-3.36136e-06
3.66576e-06
-5.59813e-06
3.74496e-06
-8.56806e-06
3.84898e-06
-1.22601e-05
4.14782e-06
-1.67048e-05
4.94153e-06
-2.18932e-05
6.56686e-06
-2.78851e-05
9.42422e-06
-3.48174e-05
1.39838e-05
2.08931e-05
-4.29496e-05
-6.70539e-07
3.93562e-06
-1.71176e-06
4.44868e-06
-3.08777e-06
5.04177e-06
-4.98251e-06
5.63971e-06
-7.51098e-06
6.37744e-06
-1.07713e-05
7.40811e-06
-1.48089e-05
8.97915e-06
-1.96622e-05
1.14202e-05
-2.53883e-05
1.51503e-05
-3.20815e-05
2.0677e-05
2.86582e-05
-3.98467e-05
-6.81691e-07
4.61731e-06
-1.62851e-06
5.3955e-06
-2.89942e-06
6.31268e-06
-4.59964e-06
7.33993e-06
-6.84198e-06
8.61978e-06
-9.74135e-06
1.03075e-05
-1.33892e-05
1.2627e-05
-1.78606e-05
1.58916e-05
-2.32301e-05
2.05198e-05
-2.96092e-05
2.70561e-05
3.62258e-05
-3.71768e-05
-6.53244e-07
5.27056e-06
-1.56047e-06
6.30273e-06
-2.74303e-06
7.49523e-06
-4.29919e-06
8.89608e-06
-6.3326e-06
1.06532e-05
-8.95204e-06
1.29269e-05
-1.22636e-05
1.59385e-05
-1.63685e-05
1.99965e-05
-2.13661e-05
2.55174e-05
-2.73823e-05
3.30724e-05
4.34393e-05
-3.45958e-05
-5.72293e-07
5.84285e-06
-1.40136e-06
7.13179e-06
-2.49372e-06
8.58759e-06
-3.92597e-06
1.03283e-05
-5.78684e-06
1.25141e-05
-8.1823e-06
1.53224e-05
-1.12173e-05
1.89735e-05
-1.50052e-05
2.37844e-05
-1.96639e-05
3.01762e-05
-2.53261e-05
3.87346e-05
5.02275e-05
-3.21144e-05
-4.95633e-07
6.33849e-06
-1.25047e-06
7.88663e-06
-2.251e-06
9.58812e-06
-3.56295e-06
1.16403e-05
-5.27119e-06
1.42223e-05
-7.46767e-06
1.75188e-05
-1.02592e-05
2.1765e-05
-1.37557e-05
2.72809e-05
-1.80835e-05
3.4504e-05
-2.33781e-05
4.40292e-05
5.66546e-05
-2.98051e-05
-4.92012e-07
6.8305e-06
-1.19978e-06
8.5944e-06
-2.11947e-06
1.05078e-05
-3.32184e-06
1.28427e-05
-4.88207e-06
1.57825e-05
-6.88837e-06
1.95251e-05
-9.44359e-06
2.43202e-05
-1.26553e-05
3.04926e-05
-1.66481e-05
3.84968e-05
-2.1564e-05
4.89452e-05
6.26647e-05
-2.75742e-05
-4.51345e-07
7.28184e-06
-1.09304e-06
9.2361e-06
-1.92829e-06
1.13431e-05
-3.01867e-06
1.3933e-05
-4.43455e-06
1.71984e-05
-6.25862e-06
2.13492e-05
-8.58655e-06
2.66482e-05
-1.15266e-05
3.34326e-05
-1.5201e-05
4.21712e-05
-1.97648e-05
5.3509e-05
6.83034e-05
-2.54035e-05
-3.33878e-07
7.61572e-06
-8.66904e-07
9.76913e-06
-1.58997e-06
1.20661e-05
-2.55364e-06
1.48967e-05
-3.81744e-06
1.84622e-05
-5.45798e-06
2.29898e-05
-7.56317e-06
2.87534e-05
-1.02322e-05
3.61017e-05
-1.35784e-05
4.55174e-05
-1.77316e-05
5.76622e-05
7.34208e-05
-2.28491e-05
-3.02555e-07
7.91828e-06
-7.5329e-07
1.02199e-05
-1.36586e-06
1.26787e-05
-2.1884e-06
1.57193e-05
-3.27763e-06
1.95514e-05
-4.70682e-06
2.44189e-05
-6.55308e-06
3.05996e-05
-8.90569e-06
3.84543e-05
-1.18581e-05
4.84697e-05
-1.55276e-05
6.13318e-05
7.79449e-05
-2.00516e-05
-2.3945e-07
8.15773e-06
-5.86616e-07
1.0567e-05
-1.06584e-06
1.31579e-05
-1.72249e-06
1.63759e-05
-2.61526e-06
2.04442e-05
-3.80333e-06
2.5607e-05
-5.35855e-06
3.21548e-05
-7.34966e-06
4.04454e-05
-9.84127e-06
5.09613e-05
-1.29253e-05
6.44158e-05
8.17459e-05
-1.67262e-05
-9.39191e-08
8.25164e-06
-2.76149e-07
1.07493e-05
-5.7782e-07
1.34596e-05
-1.03737e-06
1.68355e-05
-1.69583e-06
2.11026e-05
-2.61279e-06
2.6524e-05
-3.83446e-06
3.33765e-05
-5.40321e-06
4.20141e-05
-7.35578e-06
5.29139e-05
-9.73354e-06
6.67935e-05
8.46133e-05
-1.26009e-05
1.69148e-08
8.23473e-06
6.19953e-09
1.076e-05
-9.29573e-08
1.35587e-05
-3.09479e-07
1.7052e-05
-6.88305e-07
2.14815e-05
-1.27112e-06
2.71068e-05
-2.07999e-06
3.41854e-05
-3.11756e-06
4.30517e-05
-4.37286e-06
5.41692e-05
-5.83918e-06
6.82598e-05
8.63297e-05
-7.55558e-06
1.54272e-07
8.08046e-06
3.5586e-07
1.05584e-05
5.01025e-07
1.34136e-05
5.66017e-07
1.6987e-05
5.17823e-07
2.15297e-05
3.39858e-07
2.72848e-05
4.76998e-08
3.44775e-05
-3.1287e-07
4.34123e-05
-6.71366e-07
5.45277e-05
-9.7793e-07
6.85664e-05
8.65798e-05
-1.22809e-06
3.27472e-07
7.75299e-06
7.83211e-07
1.01026e-05
1.21154e-06
1.29853e-05
1.59972e-06
1.65988e-05
1.93767e-06
2.11917e-05
2.25147e-06
2.6971e-05
2.61056e-06
3.41185e-05
3.12887e-06
4.2894e-05
3.92584e-06
5.37307e-05
5.1221e-06
6.73701e-05
8.48756e-05
6.82636e-06
5.37465e-07
7.21552e-06
1.26706e-06
9.37306e-06
1.9888e-06
1.22635e-05
2.72855e-06
1.58591e-05
3.51173e-06
2.04085e-05
4.43257e-06
2.60501e-05
5.63603e-06
3.2915e-05
7.29103e-06
4.1239e-05
9.55707e-06
5.14647e-05
1.26142e-05
6.43131e-05
8.08277e-05
1.6662e-05
7.4279e-07
6.47273e-06
1.63488e-06
8.48096e-06
2.63926e-06
1.12591e-05
3.74447e-06
1.47538e-05
5.06397e-06
1.9089e-05
6.77165e-06
2.43424e-05
9.06773e-06
3.06189e-05
1.21403e-05
3.81664e-05
1.61823e-05
4.74227e-05
2.14398e-05
5.90555e-05
7.40513e-05
2.82162e-05
4.43445e-07
6.02929e-06
1.75103e-06
7.17337e-06
2.8823e-06
1.01279e-05
4.34344e-06
1.32927e-05
6.33835e-06
1.70941e-05
9.0647e-06
2.16161e-05
1.27013e-05
2.69824e-05
1.74247e-05
3.34429e-05
2.34651e-05
4.13823e-05
3.1155e-05
5.13656e-05
6.42751e-05
4.09312e-05
-2.29945e-06
8.32874e-06
-1.39425e-06
6.26817e-06
5.09549e-07
8.22407e-06
3.07367e-06
1.07286e-05
6.42523e-06
1.37426e-05
1.06851e-05
1.73562e-05
1.59901e-05
2.16773e-05
2.2528e-05
2.69051e-05
3.06264e-05
3.32839e-05
4.07549e-05
4.12372e-05
5.15209e-05
5.35091e-05
5.02957e-06
7.58611e-06
7.4141e-06
9.15967e-06
7.06726e-06
1.29621e-05
4.95122e-06
1.66833e-05
1.4335e-06
2.00011e-05
-3.25735e-06
2.2912e-05
-8.75256e-06
2.54915e-05
-1.4759e-05
2.77505e-05
-2.1361e-05
2.99038e-05
-2.87417e-05
3.18535e-05
3.31824e-05
-3.69822e-05
5.72898e-06
1.85713e-06
9.54689e-06
5.34176e-06
1.19103e-05
1.05987e-05
1.2778e-05
1.58155e-05
1.17386e-05
2.10405e-05
8.55329e-06
2.60973e-05
3.40834e-06
3.06365e-05
-3.19907e-06
3.43579e-05
-1.07093e-05
3.7414e-05
-1.90072e-05
4.01513e-05
4.26226e-05
-2.84473e-05
3.64608e-06
-1.78895e-06
7.58507e-06
1.40277e-06
1.11947e-05
6.98906e-06
1.38736e-05
1.31367e-05
1.49904e-05
1.99237e-05
1.40937e-05
2.6994e-05
1.09419e-05
3.37882e-05
5.58562e-06
3.97142e-05
-1.4625e-06
4.44622e-05
-9.55545e-06
4.82442e-05
5.14776e-05
-1.84105e-05
1.70409e-06
-3.49304e-06
5.19392e-06
-2.08706e-06
9.65339e-06
2.5296e-06
1.34428e-05
9.34727e-06
1.61781e-05
1.71883e-05
1.72786e-05
2.58935e-05
1.62537e-05
3.48131e-05
1.28196e-05
4.31484e-05
7.14309e-06
5.01386e-05
-1.65622e-07
5.5553e-05
5.97163e-05
-8.40432e-06
1.03181e-06
-4.52485e-06
3.09317e-06
-4.14842e-06
7.26978e-06
-1.64701e-06
1.2098e-05
4.51909e-06
1.62321e-05
1.30542e-05
1.90681e-05
2.30575e-05
2.00148e-05
3.38665e-05
1.86042e-05
4.4559e-05
1.46807e-05
5.40622e-05
8.64724e-06
6.15864e-05
6.70817e-05
1.28187e-06
1.17501e-06
-5.69986e-06
2.62276e-06
-5.59617e-06
5.4951e-06
-4.51935e-06
1.03437e-05
-3.29506e-07
1.55044e-05
7.89347e-06
1.98205e-05
1.87414e-05
2.25337e-05
3.11533e-05
2.30382e-05
4.40544e-05
2.09638e-05
5.61366e-05
1.64025e-05
6.61476e-05
7.3358e-05
1.01263e-05
1.28845e-06
-6.9883e-06
2.84058e-06
-7.1483e-06
4.93495e-06
-6.61372e-06
8.79818e-06
-4.19273e-06
1.42247e-05
2.46698e-06
1.96307e-05
1.33353e-05
2.38596e-05
2.69244e-05
2.61098e-05
4.18042e-05
2.58498e-05
5.63966e-05
2.29291e-05
6.90684e-05
7.86581e-05
1.76289e-05
1.30147e-06
-8.28977e-06
2.96693e-06
-8.81376e-06
5.07496e-06
-8.72175e-06
7.99855e-06
-7.11632e-06
1.28372e-05
-2.37167e-06
1.86424e-05
7.5301e-06
2.39925e-05
2.15744e-05
2.77408e-05
3.8056e-05
2.91916e-05
5.49458e-05
2.81136e-05
7.01463e-05
8.17367e-05
2.50351e-05
1.21094e-06
-9.50072e-06
2.8451e-06
-1.04479e-05
4.9238e-06
-1.08004e-05
7.60599e-06
-9.79851e-06
1.16102e-05
-6.37591e-06
1.72205e-05
1.91985e-06
2.31029e-05
1.56919e-05
2.79606e-05
3.31982e-05
3.08777e-05
5.20287e-05
3.13915e-05
6.96326e-05
8.35789e-05
2.95493e-05
1.09854e-06
-1.05993e-05
2.56722e-06
-1.19166e-05
4.46961e-06
-1.27028e-05
6.95692e-06
-1.22858e-05
1.03493e-05
-9.76826e-06
1.53798e-05
-3.11066e-06
2.12591e-05
9.81263e-06
2.67644e-05
2.76929e-05
3.086e-05
4.79331e-05
3.29865e-05
6.75061e-05
8.3369e-05
3.31964e-05
7.60223e-07
-1.13595e-05
2.00609e-06
-1.31625e-05
3.60667e-06
-1.43034e-05
5.75296e-06
-1.44321e-05
8.69812e-06
-1.27134e-05
1.2978e-05
-7.39053e-06
1.85029e-05
4.28776e-06
2.42183e-05
2.19774e-05
2.907e-05
4.30814e-05
3.26365e-05
6.39396e-05
8.11605e-05
3.4845e-05
5.95279e-07
-1.19548e-05
1.48931e-06
-1.40565e-05
2.57717e-06
-1.53913e-05
4.17583e-06
-1.60308e-05
6.50454e-06
-1.50421e-05
9.9559e-06
-1.08419e-05
1.48527e-05
-6.09065e-07
2.02262e-05
1.6604e-05
2.54946e-05
3.7813e-05
3.02761e-05
5.91581e-05
7.64498e-05
3.49868e-05
2.96492e-07
-1.22513e-05
7.08281e-07
-1.44683e-05
1.30039e-06
-1.59834e-05
2.17658e-06
-1.6907e-05
3.57222e-06
-1.64378e-05
5.9476e-06
-1.32173e-05
9.95946e-06
-4.62092e-06
1.48783e-05
1.16852e-05
2.03496e-05
3.23417e-05
2.58949e-05
5.36128e-05
7.08619e-05
3.14828e-05
-8.07388e-08
-1.21705e-05
-1.65083e-07
-1.43839e-05
-1.96977e-07
-1.59515e-05
-1.23995e-07
-1.69799e-05
2.32666e-07
-1.67944e-05
1.30258e-06
-1.42872e-05
4.14315e-06
-7.4615e-06
8.81945e-06
7.00889e-06
1.41479e-05
2.70132e-05
2.05417e-05
4.7219e-05
6.3416e-05
2.79876e-05
-4.25785e-07
-1.17447e-05
-1.02538e-06
-1.37843e-05
-1.72351e-06
-1.52534e-05
-2.49965e-06
-1.62038e-05
-3.22305e-06
-1.6071e-05
-3.52432e-06
-1.39859e-05
-2.39199e-06
-8.59382e-06
1.53377e-06
3.08313e-06
7.37722e-06
2.11698e-05
1.46074e-05
3.99888e-05
5.44644e-05
2.35589e-05
-8.13617e-07
-1.09311e-05
-1.97573e-06
-1.26222e-05
-3.37711e-06
-1.3852e-05
-5.0071e-06
-1.45738e-05
-6.72518e-06
-1.4353e-05
-8.15632e-06
-1.25548e-05
-8.57788e-06
-8.17226e-06
-6.02662e-06
5.31873e-07
1.30602e-07
1.50126e-05
8.36482e-06
3.17546e-05
4.34807e-05
1.93486e-05
-1.25475e-06
-9.67636e-06
-2.9994e-06
-1.08776e-05
-5.13582e-06
-1.17156e-05
-7.63884e-06
-1.20708e-05
-1.03244e-05
-1.16673e-05
-1.27431e-05
-1.01362e-05
-1.40417e-05
-6.87365e-06
-1.26529e-05
-8.56934e-07
-6.97421e-06
9.33392e-06
2.31867e-06
2.24617e-05
3.09004e-05
1.48989e-05
-1.713e-06
-7.96336e-06
-4.0524e-06
-8.53819e-06
-6.94597e-06
-8.82199e-06
-1.03298e-05
-8.68694e-06
-1.39387e-05
-8.05844e-06
-1.72142e-05
-6.86073e-06
-1.91983e-05
-4.88955e-06
-1.84973e-05
-1.55788e-06
-1.35644e-05
4.40096e-06
-4.03393e-06
1.29313e-05
1.84118e-05
8.45465e-06
-2.2348e-06
-5.72856e-06
-5.21537e-06
-5.55762e-06
-8.8958e-06
-5.14157e-06
-1.31134e-05
-4.46933e-06
-1.75055e-05
-3.6664e-06
-2.14094e-05
-2.95676e-06
-2.38372e-05
-2.4618e-06
-2.35096e-05
-1.88546e-06
-1.90023e-05
-1.06338e-07
-9.59027e-06
3.51928e-06
4.66376e-06
4.15781e-06
-2.94998e-06
-2.77858e-06
-6.68879e-06
-1.8188e-06
-1.10539e-05
-7.76436e-07
-1.5695e-05
1.71774e-07
-2.00831e-05
7.2167e-07
-2.35449e-05
5.05024e-07
-2.51131e-05
-8.93578e-07
-2.40181e-05
-2.98049e-06
-1.94117e-05
-4.71275e-06
-1.03642e-05
-5.52816e-06
-8.50953e-06
2.80907e-06
-3.25647e-06
4.77888e-07
-6.43634e-06
1.36108e-06
-9.50888e-06
2.2961e-06
-1.22509e-05
2.91379e-06
-1.40757e-05
2.54648e-06
-1.36733e-05
1.02618e-07
-1.05114e-05
-4.05546e-06
-5.01419e-06
-8.47771e-06
2.92605e-06
-1.2653e-05
1.35654e-05
-1.61675e-05
-2.04621e-05
2.5518e-05
-2.75257e-06
3.23046e-06
-3.64129e-06
2.2498e-06
-3.66424e-06
2.31904e-06
-1.9941e-06
1.24365e-06
2.30471e-06
-1.75234e-06
9.02417e-06
-6.61684e-06
1.58784e-05
-1.09097e-05
2.31213e-05
-1.57206e-05
3.12365e-05
-2.07682e-05
4.12141e-05
-2.6145e-05
-3.24414e-05
5.31934e-05
1.28264e-06
1.94782e-06
4.00209e-06
-4.69648e-07
8.71687e-06
-2.39574e-06
1.51499e-05
-5.18942e-06
2.21398e-05
-8.74219e-06
2.83155e-05
-1.27926e-05
3.45972e-05
-1.71914e-05
4.10357e-05
-2.21591e-05
4.81814e-05
-2.79139e-05
5.68076e-05
-3.47712e-05
-4.35032e-05
6.78694e-05
1.02766e-05
1.60751e-05
2.19034e-05
2.74426e-05
3.2443e-05
3.70066e-05
4.14925e-05
4.62385e-05
5.16085e-05
5.80744e-05
6.60921e-05
-1.13345e-05
1.74711e-05
-6.13656e-06
-1.98112e-05
1.55389e-05
-7.06228e-06
-2.85616e-05
1.68928e-05
-8.14227e-06
-3.69954e-05
1.76131e-05
-9.17932e-06
-4.56345e-05
1.9191e-05
-1.05519e-05
-5.4692e-05
2.16568e-05
-1.25993e-05
-6.44982e-05
2.50968e-05
-1.52906e-05
-7.55078e-05
2.97716e-05
-1.87619e-05
-8.81809e-05
3.59221e-05
-2.3249e-05
-0.000103019
4.39174e-05
-2.90794e-05
5.43249e-05
-3.66981e-05
-0.000120646
-1.34109e-06
1.88122e-05
-3.76519e-06
1.7963e-05
-1.02576e-05
2.33851e-05
-1.78205e-05
2.5176e-05
-2.67072e-05
2.80778e-05
-3.63189e-05
3.12685e-05
-4.70594e-05
3.58374e-05
-5.91576e-05
4.18698e-05
-7.30708e-05
4.98353e-05
-8.93209e-05
6.01675e-05
7.35123e-05
-0.000108508
5.22861e-07
1.82893e-05
-7.35732e-07
1.92216e-05
-4.34577e-06
2.69952e-05
-9.20524e-06
3.00355e-05
-1.62578e-05
3.51303e-05
-2.48565e-05
3.98672e-05
-3.48563e-05
4.58372e-05
-4.63672e-05
5.33807e-05
-5.97071e-05
6.31751e-05
-7.53192e-05
7.57796e-05
9.20072e-05
-9.38141e-05
4.23203e-07
1.78661e-05
-1.01153e-06
2.06563e-05
-2.99353e-06
2.89771e-05
-6.11585e-06
3.31578e-05
-1.11951e-05
4.02095e-05
-1.77499e-05
4.64221e-05
-2.60551e-05
5.41423e-05
-3.59925e-05
6.33181e-05
-4.77378e-05
7.49204e-05
-6.15666e-05
8.96083e-05
0.000108321
-7.78805e-05
3.21564e-07
1.75445e-05
-1.18914e-06
2.2167e-05
-2.57734e-06
3.03653e-05
-4.862e-06
3.54425e-05
-8.42424e-06
4.37718e-05
-1.31508e-05
5.11487e-05
-1.95802e-05
6.05718e-05
-2.7565e-05
7.13029e-05
-3.73131e-05
8.46685e-05
-4.89967e-05
0.000101292
0.000122327
-6.30026e-05
4.50498e-07
1.70941e-05
-7.00914e-07
2.33185e-05
-1.71017e-06
3.13746e-05
-3.53547e-06
3.72678e-05
-6.10802e-06
4.63443e-05
-9.54563e-06
5.45863e-05
-1.43685e-05
6.53947e-05
-2.05482e-05
7.74826e-05
-2.83431e-05
9.24634e-05
-3.78579e-05
0.000110807
0.000133818
-4.93486e-05
5.78968e-07
1.65151e-05
-1.47978e-07
2.40454e-05
-7.56403e-07
3.1983e-05
-2.19078e-06
3.87022e-05
-4.0367e-06
4.81902e-05
-6.5611e-06
5.71107e-05
-1.01353e-05
6.89689e-05
-1.47752e-05
8.21225e-05
-2.0802e-05
9.84902e-05
-2.83305e-05
0.000118335
0.000143104
-3.76172e-05
5.26303e-07
1.59888e-05
7.66691e-08
2.4495e-05
-1.29865e-07
3.21896e-05
-1.22351e-06
3.97958e-05
-2.39628e-06
4.9363e-05
-4.22892e-06
5.89433e-05
-6.73005e-06
7.147e-05
-1.01116e-05
8.5504e-05
-1.45135e-05
0.000102892
-2.01529e-05
0.000123975
0.00015019
-2.72388e-05
4.85048e-07
1.55037e-05
4.51594e-07
2.45285e-05
4.94941e-07
3.21462e-05
-2.23209e-07
4.0514e-05
-8.11092e-07
4.99509e-05
-2.06347e-06
6.01957e-05
-3.64361e-06
7.30501e-05
-5.89815e-06
8.77586e-05
-8.96056e-06
0.000105954
-1.29944e-05
0.000128008
0.000155339
-1.81429e-05
7.71123e-07
1.47326e-05
1.16718e-06
2.41324e-05
1.50477e-06
3.18086e-05
1.25078e-06
4.0768e-05
1.09489e-06
5.01068e-05
3.99224e-07
6.08914e-05
-4.27873e-07
7.38772e-05
-1.8002e-06
8.91309e-05
-3.71405e-06
0.000107868
-6.36683e-06
0.000130661
0.000158933
-9.96111e-06
9.56077e-07
1.37765e-05
1.73593e-06
2.33526e-05
2.40128e-06
3.11433e-05
2.62847e-06
4.05408e-05
2.90505e-06
4.98302e-05
2.76966e-06
6.10267e-05
2.62385e-06
7.4023e-05
2.08361e-06
8.96711e-05
1.24274e-06
0.000108709
-1.12039e-07
0.000132016
0.000160892
-2.0712e-06
9.83957e-07
1.27926e-05
1.98245e-06
2.23541e-05
2.92247e-06
3.02033e-05
3.59274e-06
3.98705e-05
4.29703e-06
4.91259e-05
4.76268e-06
6.05611e-05
5.30955e-06
7.34762e-05