/*--------------------------------*- C++ -*----------------------------------*\
| =========                 |                                                 |
| \\      /  F ield         | OpenFOAM: The Open Source CFD Toolbox           |
|  \\    /   O peration     | Version:  3.0.1                                 |
|   \\  /    A nd           | Web:      www.OpenFOAM.org                      |
|    \\/     M anipulation  |                                                 |
\*---------------------------------------------------------------------------*/
FoamFile
{
    version     2.0;
    format      ascii;
    class       volScalarField;
    location    "0.58802";
    object      epsilon;
}
// * * * * * * * * * * * * * * * * * * * * * * * * * * * * * * * * * * * * * //

dimensions      [0 2 -3 0 0 0 0];

internalField   nonuniform List<scalar> 
21246
(
270.961
151.567
23.5433
5.44085
1.55165
0.725371
0.505499
0.43205
0.404617
0.395166
0.393682
414.852
290.368
45.8245
8.55162
2.07793
0.851071
0.533059
0.432057
0.393497
0.376831
0.368165
501.868
305.995
69.4784
13.5299
2.5303
0.984218
0.562831
0.432528
0.382154
0.358143
0.341641
517.016
287.257
79.3219
17.204
2.84612
1.09862
0.587481
0.432283
0.371679
0.341832
0.319841
488.101
275.194
83.6096
19.506
3.24828
1.18773
0.60668
0.431925
0.36287
0.329065
0.305075
439.498
270.396
88.4574
22.4596
4.11152
1.27879
0.625406
0.432805
0.356318
0.319628
0.29504
379.851
269.656
94.903
26.5929
5.52324
1.5033
0.661018
0.436067
0.352255
0.312976
0.287685
315.956
271.211
102.138
31.4475
7.44764
1.90987
0.738017
0.449106
0.351487
0.308732
0.283184
256.594
273.614
110.74
37.191
9.97406
2.59113
0.885751
0.478004
0.356199
0.307399
0.280846
205.49
275.477
122.145
44.6001
13.44
3.71575
1.17061
0.540662
0.369342
0.30904
0.280182
161.981
277.932
135.806
53.6114
17.9094
5.40028
1.67307
0.667711
0.399008
0.315327
0.281316
127.675
282.84
151.007
63.7134
23.157
7.6365
2.45414
0.898264
0.459755
0.330282
0.285068
104.779
288.228
168.563
75.5173
29.4153
10.5275
3.60201
1.29007
0.577552
0.362775
0.293909
92.5644
291.128
188.867
90.019
37.2122
14.2984
5.24657
1.92646
0.796241
0.430846
0.313879
91.0035
295.079
211.552
107.14
46.5538
18.9751
7.44902
2.87908
1.1693
0.5634
0.357293
100.015
296.984
235.87
127.844
58.1908
24.9061
10.3773
4.25815
1.77371
0.806913
0.447486
117.135
292.336
258.801
153.128
73.4517
32.8415
14.3979
6.25936
2.73023
1.23756
0.627544
136.529
278.16
274.154
181.664
93.266
43.6297
20.017
9.17573
4.22085
1.97267
0.970879
154.962
256.859
275.839
209.448
118.176
58.5864
28.1848
13.5825
6.58865
3.22433
1.61136
172.014
231.503
260.277
227.879
146.268
79.0388
40.4703
20.5918
10.5316
5.42034
2.81334
187.116
199.743
227.253
226.916
171.693
105.624
59.3314
32.3723
17.5452
9.51198
5.16641
241.991
178.182
193.789
214.241
190.176
137.731
87.9901
52.7609
30.7217
17.685
10.1055
274.022
154.91
155.709
163.338
159.85
139.572
108.035
75.6995
49.694
31.5226
19.4234
550.52
601.871
448.241
368.117
289.505
215.629
153.193
104.812
70.4465
46.9956
30.7462
204.892
84.5708
18.5895
3.75032
1.22681
0.659614
0.492766
0.433968
0.413365
0.410119
0.416949
239.501
66.1677
12.7052
3.95764
1.38613
0.716074
0.513983
0.442904
0.418229
0.414503
0.422964
279.846
83.7688
12.1565
4.59794
1.69142
0.852916
0.568057
0.464728
0.426573
0.417199
0.423775
286.764
82.1121
11.5303
4.74588
1.73693
0.900454
0.58804
0.466578
0.418224
0.402211
0.404444
277.894
69.822
10.9885
4.72811
1.74763
0.923859
0.591809
0.46102
0.40722
0.388101
0.387338
266.145
58.17
10.4057
4.48274
1.67914
0.911659
0.580737
0.450625
0.395958
0.376232
0.374609
255.114
49.3737
9.83073
4.17043
1.58577
0.882465
0.560602
0.436074
0.382715
0.363798
0.362991
244.07
42.8521
9.26969
3.8674
1.50006
0.848336
0.538667
0.42038
0.368593
0.350497
0.350982
235.91
38.0628
8.80287
3.62666
1.44051
0.81619
0.519246
0.405481
0.35448
0.336265
0.336749
231.244
34.7264
8.44784
3.44708
1.40683
0.791884
0.504166
0.392413
0.341022
0.321576
0.320729
230.485
32.5885
8.24983
3.34749
1.3975
0.77885
0.49437
0.381858
0.328807
0.307272
0.30439
232.455
31.2148
8.15371
3.31306
1.41054
0.777344
0.490107
0.374223
0.318302
0.293923
0.287933
237.738
30.7329
8.18208
3.34497
1.45078
0.789353
0.492448
0.370171
0.310053
0.282109
0.272211
244.258
32.8416
8.6811
3.51715
1.5527
0.827767
0.507799
0.372371
0.305602
0.273043
0.259589
252.594
36.1746
9.64056
3.85025
1.73546
0.905989
0.544139
0.385122
0.307386
0.268283
0.250515
263.521
41.0581
11.2397
4.42772
2.03298
1.04597
0.613163
0.415401
0.319042
0.269827
0.24607
277.913
47.8778
13.7644
5.4036
2.51722
1.28919
0.738842
0.477613
0.34877
0.282304
0.248723
297.561
56.8757
17.4978
7.00033
3.31644
1.71217
0.968757
0.60181
0.415188
0.316992
0.265132
325.322
68.7811
22.912
9.57495
4.6671
2.46623
1.40239
0.854137
0.562512
0.403054
0.314567
366.019
85.2099
30.862
13.7314
7.00402
3.85501
2.25346
1.38622
0.899164
0.618254
0.453081
429.405
109.314
42.9711
20.5464
11.1294
6.48448
3.98244
2.54915
1.69502
1.17157
0.84406
538.352
147.524
62.5978
32.1831
18.6127
11.5699
7.55949
5.12935
3.59499
2.59783
1.93572
753.711
226.419
102.832
56.058
34.1838
22.404
15.4429
11.0729
8.21265
6.28154
4.94166
1382.45
394.523
202.508
126.033
86.688
62.7818
46.9894
36.6611
29.5327
24.3088
20.0474
1114.13
525.091
224.531
108.546
54.9413
26.0242
11.6617
5.38804
2.854
1.85659
1.51682
1093.32
561.674
297.137
156.154
81.3
39.1575
16.0866
6.19685
2.90701
1.78477
1.46837
725.924
455.004
298.669
180.078
102.818
53.8839
24.3715
9.28455
3.3997
1.74585
1.36494
346.77
332.528
262.855
181.454
114.493
65.6702
33.0505
13.9382
5.0317
1.9982
1.25533
128.874
232.272
216.98
169.111
117.354
73.2835
40.5592
19.1713
7.58264
2.76643
1.30183
66.9889
162.246
175.107
150.167
113.087
76.2726
45.9065
24.0271
10.6271
4.05443
1.60031
55.5999
109.035
138.091
128.355
103.526
74.6693
48.3253
27.5955
13.5255
5.63475
2.15093
42.4058
65.7521
103.428
105.692
90.645
69.1898
47.6436
29.2793
15.6615
7.13791
2.83214
30.6922
37.8574
70.4084
83.0942
76.2198
61.1294
44.3819
29.0138
16.6858
8.22551
3.46205
22.6575
24.5828
43.8805
61.7937
61.564
51.8001
39.409
27.1481
16.5649
8.70423
3.87874
16.7912
16.9762
27.5659
42.5022
47.7164
42.2321
33.5412
24.1633
15.46
8.53722
3.98158
12.633
12.1593
18.2366
27.9493
35.115
33.1821
27.4499
20.5514
13.6435
7.8162
3.77597
9.70084
8.93342
12.4896
18.4545
24.5344
25.1098
21.6366
16.7563
11.4447
6.73337
3.34433
7.51439
6.77244
8.78571
12.3574
16.6319
18.2124
16.4087
13.1099
9.16674
5.51107
2.79888
6.06752
5.31724
6.40256
8.45265
11.1708
12.7096
11.9647
9.86449
7.06543
4.34918
2.26895
5.11539
4.34706
4.90111
5.99206
7.57848
8.66637
8.47271
7.24193
5.36281
3.42012
1.85428
4.45704
3.71533
3.97745
4.477
5.31401
5.96904
6.03441
5.41449
4.22812
2.85157
1.62692
4.09747
3.32985
3.40917
3.56333
3.97896
4.42824
4.69305
4.52915
3.82448
2.77949
1.68875
3.91744
3.11241
3.02265
3.01739
3.34326
3.93589
4.62216
4.96163
4.55364
3.5138
2.22451
3.941
3.17287
2.8031
2.88878
3.52671
5.00632
6.86092
8.26633
8.08084
6.33401
3.98653
7.07466
4.10998
3.21563
3.82923
5.9519
10.7881
13.9895
14.8408
14.1581
12.3524
8.90187
13.2598
5.64307
5.03461
9.054
15.7226
18.7105
18.6087
17.1245
15.2518
13.5394
11.4915
17.71
16.4139
23.1792
27.9936
27.4208
24.2489
20.1398
16.1965
13.1203
11.2301
10.1016
130.121
81.7909
59.1724
43.1006
31.4983
22.9246
16.6571
12.3507
9.71386
8.40858
7.99378
1338.83
349.277
173.282
90.6277
46.7608
23.2085
11.1986
5.5371
3.02854
1.96165
1.54732
1089.95
283.611
148.688
88.3115
51.3316
27.7724
13.9744
6.8677
3.58412
2.16074
1.58052
610.467
222.381
128.355
86.764
57.5582
34.5738
18.4268
9.07518
4.5033
2.48673
1.65397
272.774
120.797
88.7882
75.2838
59.9548
41.4826
24.2794
12.3897
5.98929
3.04815
1.81058
99.3903
56.2831
49.3572
51.7251
52.739
45.3275
31.2263
17.531
8.62942
4.14301
2.20411
37.4426
25.0203
26.3887
32.4454
39.2684
41.1077
34.6126
23.0676
12.7013
6.25771
3.03291
21.1538
14.3617
15.988
20.9232
28.2485
33.9489
33.0139
24.9499
15.0574
7.87072
3.96653
17.5636
11.9142
12.525
15.6181
21.1189
27.6193
30.2425
25.6386
16.9116
9.41794
5.008
16.9962
11.7591
11.682
13.6393
17.391
22.8043
27.0968
25.5342
18.289
10.7917
6.00071
17.2741
12.0622
11.602
12.9299
15.4787
19.645
24.0314
24.7305
19.3331
11.9469
6.9094
17.9751
12.5987
11.813
12.5912
14.2737
17.416
21.3617
23.215
19.8278
13.0486
7.68351
19.1413
13.4125
12.1455
12.3336
13.3402
15.6197
18.9582
21.3547
19.5329
13.7993
8.45491
20.5546
14.2563
12.5229
12.1869
12.5744
14.0402
16.6812
19.2395
18.6624
14.0505
9.01806
22.1855
15.1388
12.9779
12.1537
11.9404
12.6357
14.5168
16.9487
17.3518
13.9045
9.27015
24.1084
16.0918
13.5322
12.2245
11.4438
11.4402
12.568
14.6398
15.7321
13.4257
9.32452
26.5191
17.1832
14.2189
12.4047
11.0845
10.4765
10.9407
12.5004
13.9189
12.6594
9.31514
29.6953
18.5005
15.1158
12.7769
10.923
9.77879
9.69606
10.6983
12.039
11.645
9.27235
34.2825
20.2227
16.4447
13.563
11.1066
9.40257
8.83272
9.32433
10.3011
10.4317
9.02833
41.1825
22.846
18.5758
15.0087
11.7953
9.412
8.30939
8.3401
8.92109
9.19869
8.61519
50.7711
26.7627
21.6272
17.2493
13.1418
9.91402
8.16104
7.70793
7.90909
8.09674
7.8377
61.74
31.7794
25.6034
20.284
15.0911
10.8895
8.39626
7.41839
7.24372
7.24659
7.08382
81.2955
39.1475
31.15
23.5816
17.0832
12.0299
8.89469
7.43146
6.92037
6.74633
6.59224
116.703
59.4248
36.9484
25.884
18.3189
12.9484
9.49724
7.68552
6.91148
6.6169
6.5471
360.592
70.1738
40.7841
26.0378
18.6622
13.6703
10.2791
8.22297
7.21647
6.84173
6.87681
2251.65
757.256
305.604
115.914
39.5035
12.7004
4.00406
1.25912
0.40309
0.13742
0.0547331
1604.01
447.483
210.151
89.9066
34.5081
12.2263
4.08698
1.31397
0.416636
0.137537
0.0528813
981.662
351.796
176.204
84.7948
35.6649
13.4135
4.64923
1.52195
0.483295
0.157009
0.0585425
676.936
259.233
145.453
80.42
37.9186
15.2167
5.48616
1.84458
0.592931
0.191424
0.0695269
504.513
197.638
112.433
66.5776
34.5183
15.2799
5.90242
2.05414
0.660027
0.206071
0.0712557
411.74
156.824
90.8173
54.7084
28.9767
13.3225
5.34828
1.93024
0.646706
0.210868
0.0758284
349.931
129.612
75.2871
45.5814
24.4304
11.4186
4.70726
1.76167
0.615024
0.208567
0.0768232
305.441
109.844
63.5828
38.4049
20.6659
9.74736
4.09102
1.57454
0.569749
0.201226
0.0795244
273.059
95.1036
54.6569
32.867
17.6845
8.38054
3.5625
1.40346
0.525559
0.193711
0.0797761
248.827
84.0619
47.9034
28.691
15.4238
7.32865
3.14379
1.26144
0.486157
0.18554
0.0777298
229.618
75.4738
42.6806
25.5045
13.7109
6.53049
2.82119
1.14822
0.452408
0.176974
0.0762714
214.868
68.5241
38.4975
22.989
12.3772
5.91562
2.57299
1.06001
0.42527
0.169839
0.0745088
204.465
63.0204
35.1922
21.036
11.3644
5.45829
2.3907
0.99565
0.405698
0.164923
0.0739382
197.367
58.9063
32.6824
19.5973
10.6488
5.14777
2.27115
0.954857
0.394034
0.162373
0.0744117
193.648
55.7271
30.7211
18.522
10.1537
4.95382
2.20492
0.935737
0.39038
0.162621
0.0752468
193.539
53.4298
29.2717
17.7892
9.87349
4.87791
2.19464
0.940229
0.395907
0.166047
0.0771708
197.039
52.5033
28.4621
17.4401
9.83936
4.94236
2.253
0.974263
0.413121
0.173461
0.0804055
205.276
53.1939
28.3048
17.4955
10.1103
5.21696
2.42765
1.06096
0.4515
0.188563
0.0867131
219.694
55.82
28.9729
17.9805
10.6938
5.73467
2.76624
1.23861
0.533578
0.223662
0.100696
243.303
61.1786
30.8265
19.0665
11.6761
6.56012
3.32909
1.55576
0.690158
0.295241
0.130461
282.421
70.6772
34.4543
21.0435
13.1978
7.78788
4.20771
2.09678
0.98442
0.44228
0.197818
351.905
85.5713
40.5932
24.2967
15.4611
9.5563
5.5379
3.00117
1.53783
0.753256
0.359063
481.645
110.377
50.5752
29.6337
19.0287
12.2614
7.63202
4.54384
2.59261
1.4243
0.758283
746.743
115.663
56.2679
35.1327
24.2454
16.8671
11.4756
7.56547
4.83326
2.99868
1.81485
2373.68
1417.99
575.158
226.301
72.6471
21.9712
6.08514
1.74992
0.52627
0.17001
0.0646846
2654.26
1572.81
838.352
403.802
172.212
60.2367
12.463
2.99239
0.851266
0.256548
0.0894724
1700.74
1315.26
872.906
493.398
246.715
103.378
30.1944
5.65372
1.41697
0.410159
0.134971
624.712
1158.54
849.478
530.926
292.873
138.052
49.765
12.1105
2.35005
0.653993
0.217373
561.215
1165.76
866.935
562.011
326.238
165.28
67.9899
20.439
4.55608
1.03608
0.336706
647.344
1099.59
894.083
594.08
354.289
187.813
84.3455
29.592
7.87104
1.84002
0.52069
694.939
971.807
954.466
648.337
385.442
208.061
98.8207
38.7721
12.0194
3.13871
0.88251
635.87
763.584
942.283
712.188
422.809
227.462
111.302
47.255
16.5861
4.9079
1.42884
584.016
611.159
855.293
776.958
469.24
248.023
122.255
54.7255
21.1939
7.05264
2.20597
545.343
519.798
750.718
811.989
520.529
270.674
132.226
61.1304
25.5795
9.45071
3.22935
515.081
455.826
660.197
808.797
568.915
295.109
141.763
66.6528
29.6436
12.0101
4.50384
488.915
407.363
586.104
769.533
605.175
318.439
150.31
71.2034
33.2652
14.6345
5.9895
468.237
367.577
521.219
707.848
622.675
337.594
157.319
74.8275
36.4559
17.2833
7.68755
452.621
332.303
461.769
638.828
618.151
349.932
162.284
77.6312
39.3208
19.9718
9.65895
446.893
304.239
405.835
564.833
592.468
351.963
163.971
79.532
41.9573
22.7526
11.952
449.133
283.415
355.569
479.545
547.286
341.699
161.394
80.444
44.5892
25.8379
14.6626
457.929
265.616
308.696
392.327
462.699
323.143
154.782
80.7602
47.5229
29.5134
18.012
476.045
250.661
262.898
310.692
349.008
293.429
146.778
81.5391
51.5915
34.3707
22.4146
511.675
241.848
221.012
237.41
254.769
241.98
147.486
85.9368
58.5919
41.7094
28.6791
585.444
246.76
189.778
181.066
186.986
191.814
154.054
99.4898
71.2298
52.8702
37.6744
762.139
289.846
193.131
165.879
161.639
163.878
150.021
112.762
80.6157
61.435
44.7703
1360.18
486.515
356.148
295.938
250.167
225.604
185.786
137.006
99.3299
70.1775
47.1951
1007.12
571.252
604.57
428.171
314.516
227.436
158.054
106.444
69.7312
44.6814
27.9469
1203.69
648.037
375.593
232.336
149.059
97.0369
63.0285
40.4504
25.5244
15.8089
9.591
77.7365
70.1511
60.0642
45.8636
26.2486
6.32677
2.73488
3.10542
3.98597
23.3811
22.0994
21.8936
20.765
16.3383
9.05846
2.99238
1.79715
4.4064
11.8539
11.225
12.0056
13.3916
12.5055
7.95718
3.27055
1.91782
4.78006
6.70595
6.49607
6.99879
8.50556
9.12331
6.65452
3.27052
2.12655
4.88982
81.8081
80.9532
79.2981
77.1568
70.7164
60.8268
48.6776
32.5658
11.4752
24.1558
25.3017
25.427
24.2753
23.5589
22.8324
22.0441
19.2472
13.2362
12.6719
13.5487
13.4992
12.3564
11.9143
12.1939
13.602
14.2717
12.0028
7.12152
7.77322
7.66215
6.84509
6.85043
7.22812
8.27002
9.72935
9.68733
0.0090183
0.00829396
0.00834718
0.0117315
0.46119
0.00755734
0.127383
0.00808785
0.00753321
0.00694149
0.463514
0.0081249
0.0101608
0.00510814
0.0146142
0.00728449
0.00558409
0.0126911
0.00724806
0.00710178
0.00664097
0.0608365
0.00852232
0.112091
0.00792394
0.00504647
0.00980705
0.119828
1.47195
0.392812
0.0064709
0.00643342
0.00725873
0.00806578
0.00679537
0.00826399
0.101957
0.00790776
0.00826003
0.00758731
0.218259
0.00809738
0.102341
0.00849758
0.752433
0.259208
0.0168571
0.354204
0.0069228
0.00734294
0.397373
0.00760481
0.242957
0.104056
0.00733107
0.00666811
0.0578404
0.00762484
1.47968
0.0846666
0.1087
0.208636
0.506261
0.0353327
0.229899
0.00714004
0.397602
0.00712365
0.00829651
0.00692539
0.00518903
0.00722388
0.0192188
0.00813736
0.077761
0.00715539
0.074587
0.00827995
0.0575177
1.04756
0.1696
0.0268585
0.00793278
0.00838066
0.00695962
0.0193572
2.28722
0.133459
0.0201881
0.0814408
0.00809226
0.00765814
0.224288
0.0073915
0.999848
0.553424
0.0682443
0.00594208
0.0253674
0.00743419
0.00785844
0.340197
0.00680228
0.00616247
0.0153178
0.00812039
0.00469217
0.008453
0.0107432
0.00670601
0.0079663
0.00814934
0.00723714
0.00776524
0.0408425
0.00769196
0.00754638
0.00732041
0.00792538
0.00673558
0.00802751
0.00784975
0.00951129
0.00490583
0.245188
0.00701765
0.143467
0.00486951
0.00543561
0.00726362
0.00778188
0.0831043
0.343209
0.00716631
0.00834199
0.00801958
0.0636037
0.0164907
0.415251
0.00733129
0.108737
0.00660859
0.227255
0.00868001
0.00751922
0.0242026
0.0154693
0.0071415
0.0071547
0.00705784
0.00715438
0.00766436
0.0265216
0.00785531
0.00859089
0.0243952
0.0283668
0.0426731
0.00558543
0.00747326
0.00549024
0.0336425
0.00721472
0.00772192
0.404267
0.0216984
0.0208268
0.00718524
0.00669456
0.221596
0.00589921
0.0056583
0.00820373
0.00645926
0.00642152
0.00641642
0.00579782
0.0282194
0.767955
0.0069588
0.00714522
0.0677504
0.00849699
0.11561
0.00793972
0.0129914
0.00706576
0.00726926
0.00824833
0.0834448
0.0104054
0.00521453
0.00718619
0.20795
0.00832441
0.00760773
0.00743807
0.0262273
0.00779834
0.00856744
0.0260618
0.00731776
0.0110348
0.00716434
0.00838723
0.132493
0.0073485
0.00540448
0.00740471
0.0074072
0.0879461
0.00759263
0.00827239
0.00672656
0.00791169
0.201681
0.00797769
0.021896
0.00713046
0.0106712
0.0121917
0.00821454
0.0607745
0.0401775
0.00475641
0.00764085
0.075953
0.0186128
0.00908189
0.156367
0.0425133
0.00713377
0.00712631
0.00783427
0.0269544
1.7643
0.301627
0.00845062
0.00814332
0.00810039
0.0219758
0.0320303
0.00613169
0.170719
0.00791262
0.0399638
0.00800414
0.00773113
0.474519
0.232265
0.00766837
0.0912126
0.00963457
0.00726489
0.00602776
0.0074707
0.0067338
0.00786036
0.0190407
0.00704117
0.00835251
0.00971598
0.00738124
0.00819701
0.0079602
0.0153312
0.00660436
0.00738737
0.0176438
0.00694263
0.209151
0.00730436
0.00729395
0.01599
0.00756301
0.00736401
0.00518243
0.00776094
0.00691543
0.0190342
0.00733294
0.00828785
0.173445
0.275296
0.00603763
0.00759031
1.48803
0.00824674
0.00683258
0.100396
0.0083493
0.11559
0.00740177
0.00946149
0.00856422
0.00743409
0.00659179
0.00816232
0.00680351
0.00526049
0.00775698
0.00988668
0.00708289
0.401083
0.00676989
0.00669594
0.00828273
0.0329039
0.0648178
0.00744201
0.0855239
0.00816694
0.00646222
0.00700306
0.081856
0.00655303
0.00699348
0.0145602
0.00671171
0.00776173
0.00706651
0.102547
0.00746432
0.00539031
0.0243757
0.00687573
0.00778272
0.005912
0.00708933
0.24345
0.00705391
0.519299
0.0691416
0.00846745
0.0112812
0.665566
0.0241522
0.00824011
0.00784955
0.00587355
0.0280368
0.0906449
0.00727841
0.0236081
0.190566
0.0338504
0.0682593
0.00753738
0.0879744
0.179591
0.111824
0.0058283
0.00700469
0.00682525
0.0133837
0.00860274
0.01323
0.00695771
0.00850172
0.248226
0.0098649
0.00526656
0.0080039
0.00798794
0.00728869
0.0197388
0.00529743
0.0184713
0.143897
0.00838224
0.00773893
0.107681
0.567886
0.00473116
0.0119268
0.00831877
0.00904906
0.00675486
0.00752247
0.00708114
0.176345
0.00755713
0.0241114
0.00766287
0.00517719
0.326371
0.00962164
0.00473512
0.0333482
0.0236907
0.00769845
0.0532685
0.00468663
0.0080797
0.347938
0.239264
0.00787035
0.00720156
0.0083678
0.0451567
0.0187842
0.00764787
0.00850838
0.10322
0.00798387
0.244307
0.0551016
0.0200081
0.00731174
0.100733
0.00699604
0.00719967
0.00935384
0.00883117
0.028176
0.00640063
0.0105868
0.00864508
0.00483191
0.0423308
0.285659
0.00614889
0.153879
0.00939741
0.00628474
0.006671
0.00805008
0.0281668
0.0117647
0.236749
0.00789633
0.0239188
0.00505673
0.0066321
0.0073771
0.0191255
0.195771
0.417912
0.00495027
0.00860035
0.00596423
2.25131
0.027614
0.00987022
0.00684973
0.046034
0.128701
0.0419664
0.00741535
0.0351836
0.00773776
0.00833563
0.00793814
0.032254
0.017983
0.160327
0.00585102
0.0278505
0.0263904
0.00825489
0.00739906
0.152996
0.00502751
0.00600076
0.00695217
0.14218
0.114791
0.0902243
0.0916647
0.00708087
0.00657576
0.0187476
0.00697785
0.107726
0.00689334
0.0082353
0.00733939
0.0347639
0.0333421
0.00709221
0.00778383
0.0066911
0.0963901
0.0703934
0.00845551
0.0228356
0.246899
0.00941037
0.0228424
0.00740802
0.0278252
0.00759936
0.00688931
0.00762623
0.00631008
0.00657782
0.00715218
0.00536
0.00853246
0.00734454
0.00564713
0.00587573
0.0080663
0.00806396
0.516515
0.0342125
0.0162868
0.00705108
0.305604
0.00835758
0.270777
0.0163897
0.0254097
0.018464
0.00799724
0.328535
0.0347667
0.00532867
0.00778492
0.00634734
0.00667618
0.00828184
0.00769254
0.00818593
0.00680578
0.17423
0.00798853
0.00745388
0.0835117
0.00773042
0.194912
0.0065802
0.026636
0.00563992
0.0199986
0.00856387
0.00786479
0.00841854
0.196786
0.0343603
0.00795015
0.00791192
0.00488255
0.00835065
0.0298242
0.00831453
0.262691
0.00681703
0.0460537
0.00873486
0.00757512
0.276007
0.284308
0.00679985
0.00658929
0.00711249
0.00830872
0.0189781
0.0397256
0.00721122
0.007716
0.490385
0.785208
0.00791853
0.00734274
0.00828361
0.128355
0.316308
0.0193505
0.00808274
0.00752456
0.268591
0.00724738
0.00839562
0.00580673
0.0230837
0.350307
0.00771354
0.0204682
0.00782154
0.0364783
0.00738615
0.0864253
0.00605289
0.00643436
0.0859732
0.0286359
0.00842601
0.00854828
0.968293
0.00763947
0.00615769
0.010605
0.040581
0.122526
0.0279658
0.00737544
0.00692419
0.0077329
0.00790376
0.482027
0.0145336
0.012047
0.00710973
0.00794875
0.0447283
0.00701559
0.0076175
0.00690985
0.00713589
0.00797719
0.0143423
0.0414131
0.0181225
0.00621629
0.0102356
0.00724205
0.0549412
0.00711889
0.00778475
0.488356
0.131673
0.00755349
0.00757495
0.0621274
0.00676006
0.00738038
0.0194551
0.00831735
0.00677722
0.00968867
0.00919654
0.00828322
0.00487425
0.00567723
0.0398355
0.0599055
0.032551
0.0313984
0.00627824
0.0213516
0.0334427
0.00860104
0.00836435
0.00680501
0.0252597
0.00607465
0.00695619
0.00726869
0.00508164
0.105226
0.451284
0.00608584
0.00802341
0.00769225
0.0124349
0.00811872
0.00723653
0.0069339
0.0129094
0.00704013
0.00705243
0.00685881
0.00825943
0.0144672
0.0554167
0.152607
0.00711237
0.00697259
0.00754911
0.0903138
0.00763888
0.132082
0.00721716
0.058733
0.0710216
0.00770961
0.0258602
0.00849723
0.00699188
0.0169334
0.00807899
0.43326
0.0055603
0.00666965
0.00841733
0.0127313
0.00505315
0.0332552
0.147377
0.00750971
0.00642027
0.00840375
0.0078432
0.00691036
0.0202946
0.00813217
0.00762122
0.00762071
0.0098835
0.0301391
0.00816119
0.00761665
0.00751049
0.0171756
0.00561297
0.00648656
0.0122014
0.142439
0.009724
0.00632989
0.0062233
0.00818305
0.0367883
0.00652958
0.137167
0.00783833
0.00658299
0.0079073
0.00703441
0.0799406
0.00978849
0.0292336
0.005095
0.00726047
0.00677062
0.00670891
0.0239
0.00823639
0.253724
0.090651
0.256695
0.00665552
0.010255
0.0852657
0.12182
0.00772788
0.00848063
0.0338109
0.0124391
0.00802819
0.00528968
0.474064
0.0081142
0.182252
0.00919478
0.0083991
0.0603271
0.00755141
0.00688944
0.00681655
0.00772146
0.00735518
0.00475272
0.00819112
0.0070293
0.00714952
0.00919766
0.0343263
0.115723
0.010095
0.00722937
0.16983
0.259196
0.00782214
0.00479214
0.00710751
0.0534899
0.0096251
0.0441114
0.00724388
0.0414279
0.00877215
0.00870922
0.00720808
0.00693212
0.00765886
0.0608685
0.05381
0.00860563
0.00788892
0.00742521
0.260213
0.115545
0.00733606
0.00820044
0.00674327
0.00765286
0.00813724
0.00821569
0.00838198
0.00787528
0.00758986
0.0056207
0.0500603
0.0885061
0.00494368
0.0076029
0.00770631
0.00792973
0.00671438
0.199474
0.00827647
0.00634774
0.00759621
0.285517
0.104843
0.0388228
0.00779148
0.0423349
0.00771876
0.00781718
0.233188
0.00714937
0.00816102
0.00730466
0.020172
0.00602137
0.00593139
0.00813856
0.0106193
0.173245
0.024506
0.00815589
0.00456855
0.0726843
0.0292589
0.0365387
0.00842957
0.00718527
0.0133996
0.0129983
0.0459739
0.00829278
0.00686323
0.00823693
0.00736874
0.00825246
0.108056
0.0062696
0.180973
0.222619
0.0963019
0.00809964
0.467634
0.0085324
0.00720367
0.0093154
0.00789346
0.00765947
0.0076677
0.0141089
0.214438
0.0240365
0.00764947
0.0358151
0.00768829
0.0085978
0.00735315
0.00756072
0.00731275
0.00792618
0.00814808
0.00728216
1.88745
0.00754608
0.00712674
0.00893516
0.160272
0.00710578
0.00796482
0.019208
1.64179
0.00695267
0.00770061
0.0105038
0.0287012
0.00846845
0.00808503
0.00686345
0.00860401
0.0597076
0.00828126
0.0818494
0.009495
0.0613488
0.00816874
0.00821265
0.00608787
0.0288524
0.00775077
0.00777688
0.00707483
0.00831644
0.00592121
0.212662
0.006588
0.0249256
0.258363
0.0518104
0.00604989
0.0425271
0.00851237
0.00814209
0.00510944
0.00885194
0.00595714
0.00760728
0.281808
0.00724701
0.0101994
0.00730597
0.00461084
0.00554138
0.0202539
0.00734575
0.00694283
0.00804206
0.276799
0.061425
0.155629
0.0067359
0.00949874
0.00700269
0.00776834
0.237998
0.00753742
0.00830546
0.00609789
0.226378
0.0320248
0.0388317
0.00584859
0.0052448
0.200821
0.63163
0.00801534
0.00710812
0.187958
0.00760583
0.0194284
0.00791812
0.0616041
0.00825673
0.0188951
0.00830324
0.00739184
0.00845521
0.00763563
0.0107046
0.00871633
0.00709692
0.00780527
0.00727653
0.00970185
0.00927903
0.0394027
0.00750297
0.00687521
0.244451
0.0208316
0.0447445
0.00832482
0.0233508
0.00750084
0.00828871
0.0266679
0.00646439
0.0992372
0.37482
0.00610258
0.0130391
0.00653427
0.007417
0.0166747
0.0133785
0.00699239
0.0273844
0.00813266
1.58411
0.0199448
0.538639
0.00812825
0.0207822
0.0123395
0.316231
0.00768443
0.00556607
0.00855552
0.00452742
0.119207
0.00815589
0.00890575
0.141916
0.0254971
0.19717
0.00781476
0.00778248
0.00735774
0.0451078
0.00687826
0.214904
0.0116645
0.025723
0.329233
0.0082878
0.0152335
0.0323188
0.0293183
0.0596495
0.0462148
0.00757752
0.0114701
0.00489751
0.0080995
0.0078609
0.00856458
0.0636956
0.00662031
0.00832723
0.00555423
0.0856507
0.00481391
0.00802029
0.101615
0.0144911
0.00689334
0.0106046
0.00813649
0.00708778
0.00734307
0.200906
0.00698453
0.128712
0.00616765
0.024478
0.00796205
0.00694775
0.00796009
0.00753361
0.021633
0.126661
0.112304
0.663348
0.231502
0.65812
0.00687374
0.00736123
0.0101247
0.00838814
0.00583651
0.213325
0.00690003
0.117779
0.0060985
0.200125
0.00684874
0.00479106
0.00811799
0.282071
0.00862651
0.485474
0.00649437
0.0083781
0.045047
0.0525813
0.00679803
0.0249299
0.0744143
0.0591715
0.106571
0.019938
0.234126
0.00718524
0.00808469
0.265256
0.0173364
0.00833265
0.00621328
0.00772167
0.00503934
0.00526793
0.0106233
0.00773174
0.0155035
0.655101
0.00752555
0.00716197
0.00698912
0.00818961
0.00987015
0.00542897
0.00702358
0.00556663
0.37759
0.00705106
0.634649
0.0709669
0.00767777
0.172885
0.0488149
0.0161296
0.0069311
0.0589615
0.00769014
0.00803813
0.335266
0.00751855
0.00824549
0.00571693
0.00809678
0.00751317
0.22229
0.00789854
0.547938
0.013583
0.0288708
0.00722715
0.0124276
0.0872272
0.00605903
0.251036
0.00776617
0.0116938
0.0640587
0.00712215
0.0215341
0.0304116
0.0146423
0.00747176
0.032803
0.0377258
0.00644626
0.00733139
0.0265368
0.00694927
0.0185795
0.0245836
0.371461
0.0071216
0.00860264
0.00796948
0.00625974
0.00859599
0.00473816
0.0371614
1.36295
0.00818009
0.0240113
0.0280443
0.00820518
0.0344995
0.00709234
0.00695281
1.36997
0.0419713
0.326592
0.170354
0.00815936
0.00792898
0.0218685
0.227808
0.120427
0.236926
0.00493359
0.00817412
0.00715885
0.00610895
0.108409
0.0473586
0.00841408
0.00739715
0.0278394
0.0991242
0.0372415
0.00678834
0.0902614
0.225169
0.00638655
0.00559149
0.00726945
0.00720518
0.221725
0.00537535
0.00815255
0.0151221
0.00776138
0.00640513
0.378083
0.0104734
0.0101072
0.0328677
0.00844177
0.00752056
0.188078
0.019618
0.00836069
0.00458964
0.0241592
0.00660933
0.197881
0.00806561
0.00768844
0.00704389
0.157018
0.00639073
0.00746071
0.0340685
0.00833706
0.00814637
0.00859551
0.00512637
0.00770699
0.0279616
0.0184856
0.00814568
0.458313
0.0359149
0.00751822
0.0313894
0.0077661
0.00515497
0.0321987
0.00801795
0.0081631
0.00788163
0.00739129
0.00793586
0.00717791
0.0080259
0.0508743
0.0948538
0.00607965
0.0682476
0.00691404
0.0203068
0.0184134
0.00855541
0.00662294
0.015898
0.00485593
0.00674796
0.00586795
0.00666848
0.00684236
0.00794791
0.0379361
0.0666113
0.02407
0.0887611
0.00859361
0.015266
0.178381
0.0160987
0.012236
0.0075999
0.0336953
0.190861
0.176162
0.00471164
0.0119919
0.032261
0.00660049
0.00795483
0.90528
0.00496482
0.00673757
0.0262679
0.024987
0.00584451
0.0122948
0.0148105
0.00451237
0.590589
0.593998
0.00789828
0.00712813
0.141197
0.139835
0.0104503
0.00811397
0.00685524
0.00839115
0.00753251
0.0793588
0.00761848
0.0084638
0.134392
0.00981283
0.0073202
0.00770431
0.00757733
0.00674354
0.0085818
0.00726139
0.00933035
0.00704089
0.00879355
0.00803523
0.0288317
0.00818627
0.101695
0.0077018
0.0209429
0.00838747
0.007713
0.0602673
0.258745
0.00705313
0.00780669
0.00758363
0.0138062
0.00826447
0.00931047
0.00786043
0.00741982
0.00621724
0.00727749
0.0309292
0.00512447
0.0591895
0.008486
0.0108926
0.00788429
0.00669805
0.00895411
0.0083084
0.0080197
0.194284
0.00759828
0.0170739
0.00789975
0.00799784
0.477431
0.00845197
0.00855272
0.141824
0.255156
0.0178807
0.00755804
0.0199034
0.00788692
0.186633
0.00875111
0.020233
0.00738544
0.006229
0.0241766
0.00763817
0.0321274
0.00697151
0.0153467
0.0236262
0.00823657
0.0102745
0.00768537
0.142336
0.0192211
0.00492554
0.0450293
0.00642538
0.00597351
0.00840186
0.0104295
0.0297801
0.00752446
0.00811371
0.0934623
0.00687915
0.00683599
0.00690126
0.00541475
0.00789655
0.0270689
0.0299147
0.00685123
0.0178761
0.00798032
0.00706467
0.00702297
1.11152
0.00936621
0.00750158
0.0858625
0.0321515
0.00820642
0.00706192
0.0289716
0.0105738
0.00662317
0.00726527
0.0109097
0.0388027
0.0075499
0.00693735
0.0747886
0.0071516
0.00830135
0.00733894
0.00693428
0.00805247
0.022344
0.00764391
0.0588529
0.00633549
0.0134083
0.00812999
0.00498617
0.0291665
0.0069121
0.0129891
0.00765541
0.00735828
0.0392488
0.0136557
0.00548538
0.00845665
0.00740099
0.255876
0.0077266
0.00695158
1.81676
0.00674262
0.00707227
0.00695654
0.00696063
0.00646839
0.00631839
0.0144583
0.00514072
0.0160492
0.00707087
0.00759514
0.0151153
0.00457281
0.00748377
0.00646538
0.00563432
0.00730798
0.254041
0.00855915
0.0242993
0.00749088
0.00689508
0.00583981
0.00700138
0.0125905
0.00795504
0.00721144
0.00672569
0.007567
0.00837618
0.0421105
0.0713884
0.0123603
0.0105839
0.0838793
0.00677236
0.00757221
0.00746904
0.220661
0.00728288
0.00666771
0.33209
0.00693243
0.247117
0.152479
0.00687721
0.00809994
0.007081
0.00535133
0.00493534
0.00684885
0.00804109
0.0148571
0.037189
0.00458468
0.0347419
0.00780899
0.0638219
0.0104581
0.937239
0.0105246
0.0113187
0.00466973
0.00828562
0.0068937
0.0239941
0.00790268
0.0110011
0.00509605
0.0154015
0.00522786
0.0537113
0.016443
0.0241718
0.226232
0.00780154
0.340525
0.0100206
0.00647919
0.00602584
0.0095061
0.00840357
0.589889
0.00781243
0.118792
0.304285
0.0050656
0.113126
0.0480911
0.159647
0.00739629
0.00790148
0.00741595
0.00726254
0.00765923
0.006213
0.00698106
0.021988
0.0077192
0.259827
0.0154335
0.00764171
0.0081803
0.00971298
0.0919307
0.00813079
0.00845996
0.00811803