/*--------------------------------*- C++ -*----------------------------------*\
| =========                 |                                                 |
| \\      /  F ield         | OpenFOAM: The Open Source CFD Toolbox           |
|  \\    /   O peration     | Version:  3.0.1                                 |
|   \\  /    A nd           | Web:      www.OpenFOAM.org                      |
|    \\/     M anipulation  |                                                 |
\*---------------------------------------------------------------------------*/
FoamFile
{
    version     2.0;
    format      ascii;
    class       surfaceScalarField;
    location    "0.893191";
    object      phi;
}
// * * * * * * * * * * * * * * * * * * * * * * * * * * * * * * * * * * * * * //

dimensions      [0 3 -1 0 0 0 0];

internalField   nonuniform List<scalar> 
32369
(
7.71818e-07
4.23015e-06
-5.00197e-06
1.14838e-06
4.31747e-06
-4.69403e-06
6.33227e-07
5.47251e-06
-4.95736e-06
-5.06185e-07
6.27217e-06
-5.13276e-06
-2.07994e-06
6.88959e-06
-5.31583e-06
-3.9652e-06
7.53897e-06
-5.65371e-06
-6.14467e-06
8.52047e-06
-6.341e-06
-8.65779e-06
1.00834e-05
-7.57023e-06
-1.15801e-05
1.25312e-05
-9.60893e-06
-1.50413e-05
1.62672e-05
-1.2806e-05
2.18564e-05
-1.76837e-05
-1.9214e-05
1.00762e-06
3.22253e-06
1.49055e-06
3.83454e-06
1.4989e-06
5.46416e-06
1.08654e-06
6.68453e-06
1.2211e-07
7.85402e-06
-1.35803e-06
9.01911e-06
-3.26811e-06
1.04305e-05
-5.58359e-06
1.23988e-05
-8.35704e-06
1.53047e-05
-1.16952e-05
1.96054e-05
2.59213e-05
-1.57601e-05
3.35395e-07
2.88714e-06
5.47913e-07
3.62202e-06
7.73564e-07
5.23851e-06
7.81776e-07
6.67631e-06
3.92825e-07
8.24297e-06
-4.81469e-07
9.8934e-06
-1.83584e-06
1.17849e-05
-3.65137e-06
1.42144e-05
-5.93413e-06
1.75874e-05
-8.74056e-06
2.24118e-05
2.93768e-05
-1.21961e-05
-2.8363e-09
2.88997e-06
-2.48036e-08
3.64399e-06
9.06087e-08
5.1231e-06
1.78427e-07
6.5885e-06
8.55157e-08
8.33588e-06
-3.29518e-07
1.03084e-05
-1.14844e-06
1.26038e-05
-2.40216e-06
1.54681e-05
-4.09933e-06
1.92846e-05
-6.26529e-06
2.45778e-05
3.20492e-05
-8.93771e-06
-1.23271e-07
3.01324e-06
-2.34134e-07
3.75485e-06
-2.38256e-07
5.12722e-06
-1.99095e-07
6.54934e-06
-2.04627e-07
8.34142e-06
-3.7193e-07
1.04757e-05
-8.12767e-07
1.30447e-05
-1.59891e-06
1.62542e-05
-2.76938e-06
2.04551e-05
-4.3357e-06
2.61441e-05
3.40271e-05
-6.31357e-06
-1.00126e-07
3.11337e-06
-2.05413e-07
3.86014e-06
-2.64034e-07
5.18584e-06
-2.65595e-07
6.5509e-06
-2.62815e-07
8.33864e-06
-3.2879e-07
1.05417e-05
-5.57341e-07
1.32732e-05
-1.03272e-06
1.67296e-05
-1.81418e-06
2.12365e-05
-2.93175e-06
2.72616e-05
3.55053e-05
-4.40998e-06
-2.22945e-08
3.13567e-06
-1.32836e-07
3.97068e-06
-1.90122e-07
5.24313e-06
-1.99368e-07
6.56014e-06
-1.96655e-07
8.33592e-06
-2.21065e-07
1.05661e-05
-3.40258e-07
1.33924e-05
-6.30449e-07
1.70198e-05
-1.15736e-06
2.17634e-05
-1.96324e-06
2.80675e-05
3.66104e-05
-3.06831e-06
-5.24945e-08
3.18816e-06
-1.49928e-07
4.06811e-06
-1.42573e-07
5.23578e-06
-1.38605e-07
6.55617e-06
-1.30554e-07
8.32787e-06
-1.31062e-07
1.05666e-05
-1.89537e-07
1.34509e-05
-3.68034e-07
1.71983e-05
-7.28841e-07
2.21242e-05
-1.31253e-06
2.86512e-05
3.74624e-05
-2.16451e-06
-2.63121e-08
3.21447e-06
-4.67426e-08
4.08854e-06
-3.61911e-08
5.22522e-06
-5.32637e-08
6.57325e-06
-3.73763e-08
8.31198e-06
-2.20372e-08
1.05513e-05
-4.66631e-08
1.34755e-05
-1.60503e-07
1.73121e-05
-4.11131e-07
2.23749e-05
-8.65124e-07
2.91052e-05
3.81668e-05
-1.56956e-06
2.81751e-08
3.1863e-06
3.7749e-08
4.07897e-06
5.7781e-08
5.20519e-06
8.6263e-08
6.54476e-06
1.25484e-07
8.27276e-06
1.54997e-07
1.05218e-05
1.49523e-07
1.3481e-05
7.27646e-08
1.73889e-05
-1.25294e-07
2.25729e-05
-4.97911e-07
2.94778e-05
3.8761e-05
-1.0921e-06
6.98949e-08
3.1164e-06
1.09764e-07
4.0391e-06
1.61912e-07
5.15304e-06
2.14425e-07
6.49225e-06
2.71202e-07
8.21599e-06
3.18797e-07
1.04742e-05
3.36196e-07
1.34636e-05
2.89157e-07
1.74359e-05
1.32642e-07
2.27294e-05
-1.95601e-07
2.98061e-05
3.92918e-05
-7.26434e-07
7.38712e-08
3.04253e-06
1.21398e-07
3.99157e-06
1.90758e-07
5.08368e-06
2.65259e-07
6.41775e-06
3.45393e-07
8.13585e-06
4.1897e-07
1.04006e-05
4.67165e-07
1.34154e-05
4.60029e-07
1.74431e-05
3.52234e-07
2.28372e-05
9.48998e-08
3.00634e-05
3.97759e-05
-3.89219e-07
9.0098e-08
2.95243e-06
1.54018e-07
3.92765e-06
2.4463e-07
4.99307e-06
3.43842e-07
6.31854e-06
4.50571e-07
8.02912e-06
5.55822e-07
1.02954e-05
6.40729e-07
1.33305e-05
6.75462e-07
1.74083e-05
6.27776e-07
2.28849e-05
4.41545e-07
3.02496e-05
4.01737e-05
4.38185e-08
1.35865e-07
2.81657e-06
2.31752e-07
3.83177e-06
3.5313e-07
4.87169e-06
4.84592e-07
6.18708e-06
6.26669e-07
7.88705e-06
7.73232e-07
1.01488e-05
9.09228e-07
1.31945e-05
1.00459e-06
1.7313e-05
1.01801e-06
2.28715e-05
8.92062e-07
3.03756e-05
4.05272e-05
5.38498e-07
1.40989e-07
2.67558e-06
2.52224e-07
3.72053e-06
4.02997e-07
4.72092e-06
5.71056e-07
6.01902e-06
7.61504e-07
7.6966e-06
9.69577e-07
9.94072e-06
1.17832e-06
1.29857e-05
1.36237e-06
1.71289e-05
1.47914e-06
2.27547e-05
1.45875e-06
3.0396e-05
4.07412e-05
1.24475e-06
1.56752e-07
2.51883e-06
2.92756e-07
3.58453e-06
4.79727e-07
4.53395e-06
6.98958e-07
5.79979e-06
9.53566e-07
7.44199e-06
1.24355e-06
9.65073e-06
1.55526e-06
1.2674e-05
1.85821e-06
1.6826e-05
2.10578e-06
2.25072e-05
2.25714e-06
3.02446e-05
4.07498e-05
2.2486e-06
2.0075e-07
2.31808e-06
3.817e-07
3.40358e-06
6.22149e-07
4.2935e-06
9.09688e-07
5.51225e-06
1.25597e-06
7.09571e-06
1.6603e-06
9.2464e-06
2.10929e-06
1.22251e-05
2.57059e-06
1.63647e-05
3.00272e-06
2.2075e-05
3.3555e-06
2.98918e-05
4.05241e-05
3.58122e-06
2.30795e-07
2.08728e-06
4.5572e-07
3.17865e-06
7.62158e-07
3.98706e-06
1.14328e-06
5.13112e-06
1.61432e-06
6.62467e-06
2.17796e-06
8.68276e-06
2.81569e-06
1.15873e-05
3.48827e-06
1.56921e-05
4.15647e-06
2.14068e-05
4.79267e-06
2.92556e-05
3.99051e-05
5.41162e-06
2.69595e-07
1.81769e-06
5.52402e-07
2.89584e-06
9.46695e-07
3.59277e-06
1.45675e-06
4.62107e-06
2.10302e-06
5.97839e-06
2.88415e-06
7.90164e-06
3.76629e-06
1.07052e-05
4.70439e-06
1.4754e-05
5.67791e-06
2.04333e-05
6.70979e-06
2.82238e-05
3.87871e-05
7.82784e-06
3.20612e-07
1.49708e-06
6.8064e-07
2.53582e-06
1.19618e-06
3.07723e-06
1.89262e-06
3.92463e-06
2.78496e-06
5.08606e-06
3.84936e-06
6.83724e-06
5.02743e-06
9.52711e-06
6.27983e-06
1.35016e-05
7.62206e-06
1.90911e-05
9.14223e-06
2.67036e-05
3.69612e-05
1.09681e-05
3.92039e-07
1.10504e-06
8.48958e-07
2.0789e-06
1.54491e-06
2.38127e-06
2.51803e-06
2.95151e-06
3.74068e-06
3.86341e-06
5.13906e-06
5.43885e-06
6.63935e-06
8.02682e-06
8.23121e-06
1.19097e-05
1.00064e-05
1.73159e-05
1.21441e-05
2.45659e-05
3.42231e-05
1.48822e-05
4.56261e-07
6.48775e-07
1.04415e-06
1.49101e-06
2.06407e-06
1.36135e-06
3.44327e-06
1.57232e-06
5.0473e-06
2.25937e-06
6.76767e-06
3.71849e-06
8.55602e-06
6.23848e-06
1.04828e-05
9.98301e-06
1.27409e-05
1.50578e-05
1.55967e-05
2.17101e-05
3.04928e-05
1.9327e-05
2.07963e-07
4.40812e-07
1.55027e-06
1.48705e-07
3.14839e-06
-2.36774e-07
4.9219e-06
-2.01188e-07
6.7946e-06
3.8667e-07
8.67667e-06
1.83641e-06
1.06208e-05
4.29436e-06
1.28284e-05
7.77536e-06
1.55897e-05
1.22965e-05
1.92442e-05
1.80556e-05
2.55688e-05
2.41682e-05
3.43873e-06
-2.99792e-06
4.96949e-06
-1.38205e-06
6.23563e-06
-1.50291e-06
7.50317e-06
-1.46873e-06
8.8102e-06
-9.20361e-07
1.0364e-05
2.82634e-07
1.22979e-05
2.3604e-06
1.4764e-05
5.30931e-06
1.8048e-05
9.01253e-06
2.24906e-05
1.36131e-05
1.95526e-05
2.85068e-05
-1.39619e-06
-3.60578e-06
-2.08294e-06
-4.00728e-06
-2.77229e-06
-4.26801e-06
-3.62073e-06
-4.28431e-06
-4.8218e-06
-4.11477e-06
-6.47138e-06
-4.00412e-06
-8.57667e-06
-4.23572e-06
-1.11623e-05
-4.98461e-06
-1.4268e-05
-6.50319e-06
-1.79975e-05
-9.07649e-06
-1.33085e-05
-2.23728e-05
-5.4582e-07
-3.05996e-06
-9.84259e-07
-3.56884e-06
-1.23508e-06
-4.01719e-06
-1.49312e-06
-4.02628e-06
-2.08141e-06
-3.52647e-06
-3.37863e-06
-2.7069e-06
-5.5359e-06
-2.07845e-06
-8.60012e-06
-1.92038e-06
-1.24178e-05
-2.68554e-06
-1.69746e-05
-4.51963e-06
-7.8325e-06
-2.24506e-05
2.65741e-07
-3.3257e-06
4.29451e-07
-3.73255e-06
6.58397e-07
-4.24613e-06
9.39434e-07
-4.30732e-06
1.13898e-06
-3.72602e-06
7.76427e-07
-2.34434e-06
-8.03806e-07
-4.98222e-07
-3.89979e-06
1.1756e-06
-8.3866e-06
1.80127e-06
-1.38813e-05
9.7512e-07
-1.48293e-06
-2.02309e-05
5.96456e-07
-3.92216e-06
1.17258e-06
-4.30868e-06
1.83802e-06
-4.91157e-06
2.56683e-06
-5.03613e-06
3.32693e-06
-4.48612e-06
3.85631e-06
-2.87371e-06
3.45837e-06
-1.00286e-07
1.47193e-06
3.16204e-06
-2.71451e-06
5.98772e-06
-8.87666e-06
7.13727e-06
5.95912e-06
-1.63187e-05
7.17691e-07
-4.63985e-06
1.51437e-06
-5.10536e-06
2.46365e-06
-5.86085e-06
3.53812e-06
-6.11059e-06
4.73576e-06
-5.68377e-06
5.93966e-06
-4.07761e-06
6.62806e-06
-7.88682e-07
5.95669e-06
3.8334e-06
3.15689e-06
8.78752e-06
-2.39992e-06
1.26941e-05
1.37491e-05
-1.01899e-05
7.1815e-07
-5.358e-06
1.59244e-06
-5.97965e-06
2.6685e-06
-6.93691e-06
3.94247e-06
-7.38456e-06
5.45244e-06
-7.19374e-06
7.16254e-06
-5.78771e-06
8.77609e-06
-2.40224e-06
9.37704e-06
3.23245e-06
8.07223e-06
1.00923e-05
3.94846e-06
1.68178e-05
2.13936e-05
-3.69596e-06
6.36714e-07
-5.99471e-06
1.49316e-06
-6.8361e-06
2.56582e-06
-8.00957e-06
3.88776e-06
-8.7065e-06
5.53838e-06
-8.84435e-06
7.55016e-06
-7.79949e-06
9.81048e-06
-4.66255e-06
1.15577e-05
1.48524e-06
1.17285e-05
9.92154e-06
9.32008e-06
1.92262e-05
2.72915e-05
3.42214e-06
5.55238e-07
-6.54995e-06
1.34102e-06
-7.62188e-06
2.31859e-06
-8.98714e-06
3.55145e-06
-9.93935e-06
5.15331e-06
-1.04462e-05
7.22911e-06
-9.87529e-06
9.81483e-06
-7.24827e-06
1.24691e-05
-1.16903e-06
1.39359e-05
8.4547e-06
1.32343e-05
1.99278e-05
3.12941e-05
9.23174e-06
4.54614e-07
-7.00456e-06
1.10733e-06
-8.2746e-06
1.91196e-06
-9.79177e-06
2.95608e-06
-1.09835e-05
4.35377e-06
-1.18439e-05
6.2528e-06
-1.17743e-05
8.79947e-06
-9.79494e-06
1.19235e-05
-4.29304e-06
1.44792e-05
5.89896e-06
1.54535e-05
1.89535e-05
3.265e-05
1.40976e-05
3.01572e-07
-7.30613e-06
7.86823e-07
-8.75985e-06
1.38146e-06
-1.03864e-05
2.15182e-06
-1.17538e-05
3.21293e-06
-1.2905e-05
4.73434e-06
-1.32957e-05
6.96656e-06
-1.20272e-05
1.0117e-05
-7.44346e-06
1.33687e-05
2.64723e-06
1.5453e-05
1.68693e-05
3.2398e-05
1.57049e-05
1.2702e-07
-7.43315e-06
4.75157e-07
-9.10799e-06
6.8474e-07
-1.0596e-05
1.10503e-06
-1.21741e-05
1.72937e-06
-1.35294e-05
2.6987e-06
-1.42651e-05
4.30314e-06
-1.36316e-05
7.03487e-06
-1.01752e-05
1.06648e-05
-9.82704e-07
1.35043e-05
1.40298e-05
3.04504e-05
1.5452e-05
-2.89038e-08
-7.40425e-06
-4.17531e-08
-9.09514e-06
-3.5073e-08
-1.06027e-05
-1.22919e-08
-1.21969e-05
8.56394e-08
-1.36273e-05
3.55235e-07
-1.45347e-05
1.02146e-06
-1.42978e-05
2.60799e-06
-1.17617e-05
5.97735e-06
-4.35206e-06
9.68334e-06
1.03238e-05
2.66781e-05
1.34556e-05
-2.22555e-07
-7.1817e-06
-5.02077e-07
-8.81561e-06
-8.46289e-07
-1.02585e-05
-1.26218e-06
-1.1781e-05
-1.71567e-06
-1.31738e-05
-2.14473e-06
-1.41056e-05
-2.40566e-06
-1.40369e-05
-2.12783e-06
-1.20395e-05
8.59801e-08
-6.56588e-06
4.54512e-06
5.86466e-06
2.33743e-05
7.84893e-06
-4.75678e-07
-6.70602e-06
-1.06393e-06
-8.22737e-06
-1.79286e-06
-9.52953e-06
-2.67808e-06
-1.08958e-05
-3.70759e-06
-1.21443e-05
-4.83065e-06
-1.29825e-05
-5.90825e-06
-1.29593e-05
-6.59169e-06
-1.13561e-05
-6.20678e-06
-6.95078e-06
-2.88956e-06
2.54744e-06
1.81727e-05
2.31201e-06
-6.87327e-07
-6.01869e-06
-1.58611e-06
-7.32858e-06
-2.7143e-06
-8.40134e-06
-4.09759e-06
-9.51252e-06
-5.73581e-06
-1.05061e-05
-7.58009e-06
-1.11383e-05
-9.48234e-06
-1.10571e-05
-1.11145e-05
-9.72393e-06
-1.18392e-05
-6.22609e-06
-1.01542e-05
8.62465e-07
1.2973e-05
-4.95448e-06
-9.0837e-07
-5.11032e-06
-2.12201e-06
-6.11494e-06
-3.65202e-06
-6.87133e-06
-5.53386e-06
-7.63068e-06
-7.77239e-06
-8.26753e-06
-1.03124e-05
-8.59826e-06
-1.29963e-05
-8.37311e-06
-1.54756e-05
-7.24464e-06
-1.7059e-05
-4.64273e-06
-1.65263e-05
3.29818e-07
8.56587e-06
-1.21192e-05
-1.14369e-06
-3.96664e-06
-2.66925e-06
-4.58937e-06
-4.58408e-06
-4.9565e-06
-6.93581e-06
-5.27894e-06
-9.72697e-06
-5.47638e-06
-1.28953e-05
-5.42989e-06
-1.62823e-05
-4.9861e-06
-1.95613e-05
-3.96565e-06
-2.20977e-05
-2.10635e-06
-2.27868e-05
1.01894e-06
6.31844e-06
-2.05394e-05
-1.3888e-06
-2.57783e-06
-3.19004e-06
-2.78813e-06
-5.42438e-06
-2.72217e-06
-8.14753e-06
-2.55579e-06
-1.1363e-05
-2.26094e-06
-1.50007e-05
-1.79214e-06
-1.89116e-05
-1.07525e-06
-2.27946e-05
-8.26546e-08
-2.60864e-05
1.18549e-06
-2.79419e-05
2.87443e-06
5.57541e-06
-2.71989e-05
-1.63303e-06
-9.44808e-07
-3.59617e-06
-8.2499e-07
-5.96274e-06
-3.55599e-07
-8.77677e-06
2.58241e-07
-1.20327e-05
9.95011e-07
-1.56919e-05
1.86705e-06
-1.96326e-05
2.86547e-06
-2.35837e-05
3.86838e-06
-2.70645e-05
4.66629e-06
-2.93474e-05
5.15742e-06
5.89367e-06
-2.96657e-05
-1.37379e-06
4.28987e-07
-2.94e-06
7.41212e-07
-4.77285e-06
1.47726e-06
-6.94515e-06
2.43054e-06
-9.50276e-06
3.55262e-06
-1.24217e-05
4.78597e-06
-1.55589e-05
6.00265e-06
-1.85755e-05
6.88505e-06
-2.09159e-05
7.00665e-06
-2.20232e-05
6.26471e-06
4.85947e-06
-2.0989e-05
-9.23872e-07
1.35286e-06
-1.89915e-06
1.71649e-06
-3.03675e-06
2.61486e-06
-4.36089e-06
3.75467e-06
-5.85916e-06
5.05089e-06
-7.42283e-06
6.34963e-06
-8.83379e-06
7.41361e-06
-9.56578e-06
7.61704e-06
-8.59117e-06
6.03204e-06
-4.80669e-06
2.48023e-06
-1.6144e-06
1.66718e-06
-4.94309e-07
1.84717e-06
-9.35531e-07
2.15771e-06
-1.38991e-06
3.06924e-06
-1.75348e-06
4.11824e-06
-1.92341e-06
5.22082e-06
-1.6484e-06
6.07462e-06
-4.64241e-07
6.22946e-06
2.42158e-06
4.73122e-06
7.65723e-06
7.96388e-07
1.4333e-05
-4.19552e-06
-9.19568e-06
2.19142e-05
-4.18489e-07
2.26566e-06
-3.53498e-07
2.09272e-06
-8.12944e-08
2.79704e-06
6.23285e-07
3.41366e-06
2.04109e-06
3.80302e-06
4.50346e-06
3.61225e-06
8.47338e-06
2.25954e-06
1.38995e-05
-6.94917e-07
1.95267e-05
-4.83083e-06
2.47717e-05
-9.44052e-06
-1.49282e-05
3.05042e-05
-7.32265e-07
-2.15945e-08
1.27253e-06
3.21746e-06
6.10011e-06
9.995e-06
1.46149e-05
1.92293e-05
2.3411e-05
2.75836e-05
3.2208e-05
-1.62548e-05
-1.61191e-06
1.78667e-05
-2.65956e-05
-4.02497e-06
1.43657e-05
-3.48509e-05
-5.94667e-06
1.42019e-05
-4.17917e-05
-7.16739e-06
1.41083e-05
-4.83548e-05
-7.74015e-06
1.43032e-05
-5.51764e-05
-7.79158e-06
1.46132e-05
-6.27181e-05
-7.37955e-06
1.49213e-05
-7.13384e-05
-6.47416e-06
1.50944e-05
-8.13665e-05
-4.94812e-06
1.49762e-05
-9.31735e-05
-2.55838e-06
1.43654e-05
1.08793e-06
1.29547e-05
-0.000107216
-7.51689e-06
5.90498e-06
-1.53618e-05
3.81996e-06
-2.37383e-05
2.42983e-06
-3.18448e-05
9.39035e-07
-3.95848e-05
-1.14299e-10
-4.73166e-05
-5.97333e-08
-5.55962e-05
8.99973e-07
-6.49963e-05
2.92596e-06
-7.60422e-05
6.09778e-06
-8.92365e-05
1.0636e-05
1.69088e-05
-0.000105057
-2.97906e-06
8.88404e-06
-7.20659e-06
8.0475e-06
-1.32711e-05
8.49434e-06
-2.05137e-05
8.18161e-06
-2.86316e-05
8.11785e-06
-3.73664e-05
8.675e-06
-4.67772e-05
1.03108e-05
-5.71609e-05
1.33097e-05
-6.897e-05
1.79069e-05
-8.27227e-05
2.43887e-05
3.32182e-05
-9.90322e-05
-1.92883e-06
1.08129e-05
-5.01013e-06
1.11288e-05
-9.36318e-06
1.28474e-05
-1.50006e-05
1.3819e-05
-2.19861e-05
1.51034e-05
-3.01114e-05
1.68003e-05
-3.92683e-05
1.94677e-05
-4.95351e-05
2.35766e-05
-6.11841e-05
2.95558e-05
-7.46346e-05
3.78392e-05
4.8966e-05
-9.03823e-05
-1.5128e-06
1.23257e-05
-4.00338e-06
1.36194e-05
-7.445e-06
1.6289e-05
-1.19135e-05
1.82875e-05
-1.7606e-05
2.07959e-05
-2.46215e-05
2.38157e-05
-3.28957e-05
2.77419e-05
-4.24513e-05
3.31321e-05
-5.34299e-05
4.05345e-05
-6.61243e-05
5.05337e-05
6.38447e-05
-8.10031e-05
-1.19013e-06
1.35158e-05
-3.41787e-06
1.58471e-05
-6.10752e-06
1.89787e-05
-9.74071e-06
2.19207e-05
-1.44777e-05
2.55329e-05
-2.0384e-05
2.9722e-05
-2.75343e-05
3.48922e-05
-3.60723e-05
4.16702e-05
-4.60726e-05
5.05347e-05
-5.77415e-05
6.22027e-05
7.75454e-05
-7.14423e-05
-1.0728e-06
1.45886e-05
-2.84406e-06
1.76184e-05
-5.10427e-06
2.12389e-05
-8.13313e-06
2.49495e-05
-1.20413e-05
2.94411e-05
-1.69959e-05
3.46766e-05
-2.31807e-05
4.1077e-05
-3.06325e-05
4.9122e-05
-3.95201e-05
5.94224e-05
-5.00267e-05
7.27092e-05
8.98953e-05
-6.23765e-05
-1.0212e-06
1.56098e-05
-2.59703e-06
1.91942e-05
-4.51424e-06
2.31561e-05
-7.05758e-06
2.74929e-05
-1.03165e-05
3.27e-05
-1.44778e-05
3.88379e-05
-1.96967e-05
4.62959e-05
-2.61078e-05
5.5533e-05
-3.38537e-05
6.71683e-05
-4.31091e-05
8.19646e-05
0.000100902
-5.41163e-05
-9.13086e-07
1.65229e-05
-2.29317e-06
2.05743e-05
-3.96181e-06
2.48247e-05
-6.11722e-06
2.96483e-05
-8.85905e-06
3.54418e-05
-1.23476e-05
4.23265e-05
-1.67403e-05
5.06885e-05
-2.21917e-05
6.09844e-05
-2.88504e-05
7.3827e-05
-3.69015e-05
9.00157e-05
0.000110576
-4.65751e-05
-6.34501e-07
1.71574e-05
-1.72933e-06
2.16691e-05
-3.11737e-06
2.62128e-05
-4.92572e-06
3.14567e-05
-7.22208e-06
3.77382e-05
-1.01551e-05
4.52596e-05
-1.38559e-05
5.43893e-05
-1.84803e-05
6.56089e-05
-2.41842e-05
7.95308e-05
-3.11536e-05
9.69851e-05
0.000119036
-3.9614e-05
-4.01131e-07
1.75585e-05
-1.25314e-06
2.25211e-05
-2.35629e-06
2.73159e-05
-3.8151e-06
3.29155e-05
-5.69593e-06
3.9619e-05
-8.10469e-06
4.76683e-05
-1.11688e-05
5.74534e-05
-1.5017e-05
6.94571e-05
-1.98096e-05
8.43233e-05
-2.57117e-05
0.000102887
0.000126249
-3.29242e-05
-3.68734e-07
1.79273e-05
-1.06745e-06
2.32198e-05
-1.92453e-06
2.8173e-05
-3.06098e-06
3.40519e-05
-4.5188e-06
4.10768e-05
-6.40145e-06
4.9551e-05
-8.81652e-06
5.98684e-05
-1.18777e-05
7.25183e-05
-1.57259e-05
8.81715e-05
-2.05224e-05
0.000107684
0.000132168
-2.64413e-05
-2.26398e-07
1.81537e-05
-7.15283e-07
2.37087e-05
-1.32288e-06
2.87806e-05
-2.13821e-06
3.48672e-05
-3.18896e-06
4.21276e-05
-4.56206e-06
5.09241e-05
-6.34259e-06
6.1649e-05
-8.63653e-06
7.48123e-05
-1.15598e-05
9.10948e-05
-1.52596e-05
0.000111384
0.000136822
-1.9914e-05
8.45652e-08
1.80691e-05
-9.33286e-08
2.38866e-05
-3.86899e-07
2.90742e-05
-8.5437e-07
3.53347e-05
-1.48538e-06
4.27586e-05
-2.35204e-06
5.17907e-05
-3.51141e-06
6.28083e-05
-5.04745e-06
7.63483e-05
-7.05692e-06
9.31042e-05
-9.66338e-06
0.00011399
0.000140161
-1.30016e-05
1.69517e-07
1.78996e-05
2.19246e-07
2.38369e-05
2.24525e-07
2.90689e-05
1.41707e-07
3.54175e-05
-1.2117e-08
4.29124e-05
-2.98093e-07
5.20767e-05
-7.45533e-07
6.32558e-05
-1.41953e-06
7.70223e-05
-2.38119e-06
9.40659e-05
-3.72495e-06
0.000115334
0.000141978
-5.54197e-06
3.22052e-07
1.75775e-05
6.48336e-07
2.35106e-05
9.90018e-07
2.87272e-05
1.33206e-06
3.50755e-05
1.69136e-06
4.25531e-05
2.04314e-06
5.17249e-05
2.3719e-06
6.2927e-05
2.6442e-06
7.675e-05
2.83511e-06
9.3875e-05
2.88228e-06
0.000115287
0.000142153
2.70721e-06
6.36836e-07
1.69407e-05
1.35356e-06
2.27939e-05
2.11062e-06
2.79701e-05
2.93069e-06
3.42554e-05
3.86757e-06
4.16162e-05
4.9131e-06
5.06794e-05
6.09393e-06
6.17462e-05
7.4102e-06
7.54337e-05
8.85954e-06
9.24256e-05
1.04374e-05
0.000113709
0.000140436
1.21546e-05
8.56143e-07
1.60845e-05
1.93876e-06
2.17113e-05
3.14479e-06
2.67641e-05
4.53059e-06
3.28696e-05
6.1377e-06
4.00091e-05
8.0091e-06
4.8808e-05
1.01922e-05
5.95631e-05
1.27335e-05
7.28925e-05
1.56783e-05
8.94809e-05
1.90897e-05
0.000110297
0.000136513
2.30119e-05
1.11954e-06
1.4965e-05
2.62097e-06
2.02098e-05
4.33931e-06
2.50458e-05
6.35578e-06
3.08532e-05
8.73181e-06
3.76331e-05
1.15608e-05
4.5979e-05
1.4919e-05
5.62049e-05
1.88951e-05
6.89163e-05
2.35862e-05
8.47898e-05
2.91139e-05
0.00010477
0.000130021
3.56063e-05
1.43207e-06
1.35329e-05
3.39974e-06
1.82421e-05
5.70524e-06
2.27403e-05
8.45739e-06
2.8101e-05
1.17352e-05
3.43553e-05
1.56802e-05
4.2034e-05
2.03991e-05
5.1486e-05
2.60339e-05
6.32816e-05
3.27465e-05
7.80772e-05
4.07488e-05
9.67674e-05
0.000120462
5.03081e-05
1.7771e-06
1.17558e-05
4.23487e-06
1.57844e-05
7.1931e-06
1.9782e-05
1.07811e-05
2.4513e-05
1.51023e-05
3.00341e-05
2.03227e-05
3.68136e-05
2.65942e-05
4.52144e-05
3.41205e-05
5.57553e-05
4.31335e-05
6.90642e-05
5.39547e-05
8.59462e-05
0.000107437
6.6979e-05
2.05198e-06
9.70386e-06
4.99734e-06
1.2839e-05
8.65795e-06
1.61214e-05
1.31829e-05
1.99881e-05
1.86667e-05
2.45503e-05
2.52903e-05
3.019e-05
3.32597e-05
3.7245e-05
4.28322e-05
4.61828e-05
5.43439e-05
5.75525e-05
6.82363e-05
7.20538e-05
9.06576e-05
8.50159e-05
2.21316e-06
7.4907e-06
5.78078e-06
9.27139e-06
1.01621e-05
1.17401e-05
1.55802e-05
1.457e-05
2.21753e-05
1.79552e-05
3.01614e-05
2.22038e-05
3.97845e-05
2.7622e-05
5.13867e-05
3.45806e-05
6.54166e-05
4.35226e-05
8.24497e-05
5.50208e-05
6.99271e-05
0.00010318
-8.08907e-08
7.57159e-06
4.53972e-06
4.65078e-06
1.03147e-05
5.96507e-06
1.69469e-05
7.9379e-06
2.47943e-05
1.01078e-05
3.41088e-05
1.28894e-05
4.52067e-05
1.6524e-05
5.85643e-05
2.1223e-05
7.47823e-05
2.73045e-05
9.45787e-05
3.52244e-05
4.56129e-05
0.000118893
-3.20587e-06
2.10726e-05
-7.07711e-06
1.8237e-05
-1.46763e-05
2.18011e-05
-2.32934e-05
2.27254e-05
-3.20866e-05
2.30964e-05
-4.11789e-05
2.37055e-05
-5.08636e-05
2.4606e-05
-6.14888e-05
2.57197e-05
-7.34151e-05
2.69025e-05
-8.69857e-05
2.7936e-05
2.85654e-05
-0.000102596
4.04922e-06
1.70234e-05
4.83703e-06
1.74492e-05
1.00961e-06
2.56286e-05
-5.57448e-06
2.93095e-05
-1.41727e-05
3.16947e-05
-2.40753e-05
3.36081e-05
-3.50015e-05
3.55321e-05
-4.70453e-05
3.77634e-05
-6.04933e-05
4.03505e-05
-7.57255e-05
4.31682e-05
4.60483e-05
-9.32084e-05
2.91076e-06
1.41126e-05
3.35389e-06
1.7006e-05
2.09698e-06
2.68855e-05
-1.15738e-06
3.25639e-05
-7.13698e-06
3.76743e-05
-1.52874e-05
4.17585e-05
-2.51601e-05
4.54049e-05
-3.65212e-05
4.91245e-05
-4.94009e-05
5.32301e-05
-6.40521e-05
5.78195e-05
6.27431e-05
-8.07469e-05
1.71758e-06
1.2395e-05
1.238e-06
1.74856e-05
5.45845e-07
2.75776e-05
-1.251e-06
3.43607e-05
-5.06226e-06
4.14855e-05
-1.08705e-05
4.75667e-05
-1.86734e-05
5.32078e-05
-2.82571e-05
5.87082e-05
-3.9518e-05
6.44911e-05
-5.25214e-05
7.08228e-05
7.77604e-05
-6.75387e-05
1.01285e-06
1.13822e-05
1.7503e-07
1.83234e-05
-6.22899e-07
2.83756e-05
-2.09379e-06
3.58316e-05
-4.66339e-06
4.40551e-05
-8.64484e-06
5.15482e-05
-1.43572e-05
5.89201e-05
-2.18181e-05
6.61691e-05
-3.09897e-05
7.36627e-05
-4.18419e-05
8.1675e-05
9.04299e-05
-5.45114e-05
6.41549e-07
1.07406e-05
-9.001e-08
1.9055e-05
-8.496e-07
2.91351e-05
-2.20785e-06
3.71898e-05
-4.12209e-06
4.59694e-05
-6.9509e-06
5.4377e-05
-1.10494e-05
6.30186e-05
-1.65992e-05
7.17189e-05
-2.36735e-05
8.0737e-05
-3.22841e-05
9.02857e-05
0.000100564
-4.24183e-05
4.5469e-07
1.02859e-05
-4.13256e-08
1.9551e-05
-6.01165e-07
2.9695e-05
-1.73567e-06
3.83243e-05
-3.18501e-06
4.74187e-05
-5.22638e-06
5.64183e-05
-8.13562e-06
6.59278e-05
-1.21326e-05
7.57159e-05
-1.73642e-05
8.59686e-05
-2.39231e-05
9.68446e-05
0.000108531
-3.18901e-05
2.55112e-07
1.00308e-05
-6.65395e-08
1.98727e-05
-4.30122e-07
3.00586e-05
-1.25684e-06
3.91511e-05
-2.24022e-06
4.84021e-05
-3.60871e-06
5.77868e-05
-5.53663e-06
6.78557e-05
-8.21381e-06
7.83931e-05
-1.181e-05
8.95647e-05
-1.63922e-05
0.000101427
0.000114129
-2.19899e-05
1.6229e-07
9.86854e-06
1.38208e-08
2.00211e-05
-1.21346e-07
3.01937e-05
-5.9777e-07
3.96275e-05
-1.11897e-06
4.89233e-05
-1.87088e-06
5.85387e-05
-2.93676e-06
6.89216e-05
-4.47778e-06
7.99341e-05
-6.62298e-06
9.17099e-05
-9.4995e-06
0.000104303
0.000117734
-1.31044e-05
1.18875e-07
9.74966e-06
1.84688e-07
1.99553e-05
3.11102e-07
3.00673e-05
2.19257e-07
3.97193e-05
1.60293e-07
4.89823e-05
1.53101e-08
5.86837e-05
-2.50761e-07
6.91877e-05
-7.5019e-07
8.04335e-05
-1.57799e-06
9.25377e-05
-2.8166e-06
0.000105542
0.000119498
-4.58066e-06
2.66525e-07
9.48314e-06
6.09365e-07
1.96125e-05
1.03161e-06
2.96451e-05
1.36489e-06
3.93861e-05
1.78351e-06
4.85636e-05
2.21455e-06
5.82527e-05
2.69974e-06
6.87025e-05
3.1461e-06
7.99872e-05
3.53168e-06
9.21522e-05
3.81759e-06
0.000105256
0.000119315
4.00031e-06
2.86571e-07
9.19656e-06
8.1e-07
1.90891e-05
1.55779e-06
2.88973e-05
2.32778e-06
3.86161e-05
3.26027e-06
4.76312e-05
4.32046e-06
5.71925e-05
5.57932e-06
6.74437e-05
7.00456e-06
7.85619e-05
8.60211e-06
9.05546e-05
1.03688e-05
0.000103489
0.000117293
1.23908e-05
3.36484e-07
8.86008e-06
1.07231e-06
1.83532e-05
2.14465e-06
2.78249e-05
3.39398e-06
3.73668e-05
4.85921e-06
4.61659e-05
6.57154e-06
5.54801e-05
8.62095e-06
6.53942e-05
1.10155e-05
7.61673e-05
1.38155e-05
8.77546e-05
1.70349e-05
0.00010027
0.000113543
2.0785e-05
4.94233e-07
8.36585e-06
1.49708e-06
1.73504e-05
2.93465e-06
2.63874e-05
4.67312e-06
3.56283e-05
6.69972e-06
4.41393e-05
9.07598e-06
5.31039e-05
1.19178e-05
6.25525e-05
1.52921e-05
7.2793e-05
1.92762e-05
8.37705e-05
2.39514e-05
9.55947e-05
0.0001081
2.93946e-05
5.7207e-07
7.79378e-06
1.77109e-06
1.61514e-05
3.55851e-06
2.45999e-05
5.79915e-06
3.33876e-05
8.41234e-06
4.15261e-05
1.1515e-05
5.00012e-05
1.52148e-05
5.88526e-05
1.96397e-05
6.83681e-05
2.48926e-05
7.85176e-05
3.10903e-05
8.93971e-05
0.000100864
3.83261e-05
6.74259e-07
7.11952e-06
2.08823e-06
1.47374e-05
4.22464e-06
2.24635e-05
6.97407e-06
3.06382e-05
1.02229e-05
3.82773e-05
1.40807e-05
4.61434e-05
1.86939e-05
5.42395e-05
2.42169e-05
6.28451e-05
3.07909e-05
7.19436e-05
3.85815e-05
8.16065e-05
9.15934e-05
4.7852e-05
8.18479e-07
6.30104e-06
2.44892e-06
1.3107e-05
4.94009e-06
1.99724e-05
8.20531e-06
2.7373e-05
1.21039e-05
3.43787e-05
1.67717e-05
4.14756e-05
2.23571e-05
4.86541e-05
2.90449e-05
5.61573e-05
3.69969e-05
6.39915e-05
4.64178e-05
7.21857e-05
8.03934e-05
5.76178e-05
9.53428e-07
5.34761e-06
2.77954e-06
1.12808e-05
5.59523e-06
1.71567e-05
9.35685e-06
2.36114e-05
1.39279e-05
2.98076e-05
1.94573e-05
3.59463e-05
2.6083e-05
4.20284e-05
3.40021e-05
4.82381e-05
4.33909e-05
5.46028e-05
5.44605e-05
6.11161e-05
6.73721e-05
6.74818e-05
1.08144e-06
4.26617e-06
3.05851e-06
9.30377e-06
6.14338e-06
1.40718e-05
1.03449e-05
1.94098e-05
1.55914e-05
2.45611e-05
2.20111e-05
2.95266e-05
2.97409e-05
3.42986e-05
3.89543e-05
3.90247e-05
4.98124e-05
4.37446e-05
6.25654e-05
4.83631e-05
5.24188e-05
7.75186e-05
1.18525e-06
3.08092e-06
3.25173e-06
7.23729e-06
6.49447e-06
1.08291e-05
1.10465e-05
1.48579e-05
1.69151e-05
1.86925e-05
2.42172e-05
2.22245e-05
3.30551e-05
2.54607e-05
4.35306e-05
2.85492e-05
5.58206e-05
3.14546e-05
7.01789e-05
3.40048e-05
3.55839e-05
8.70138e-05
1.26282e-06
1.8181e-06
3.22501e-06
5.2751e-06
6.4636e-06
7.59047e-06
1.12351e-05
1.00864e-05
1.76298e-05
1.22978e-05
2.57008e-05
1.41535e-05
3.547e-05
1.56915e-05
4.70131e-05
1.70061e-05
6.05059e-05
1.79618e-05
7.62521e-05
1.82586e-05
1.71899e-05
9.46462e-05
6.70231e-07
1.14787e-06
2.55649e-06
3.38884e-06
5.67968e-06
4.46728e-06
1.05506e-05
5.21554e-06
1.71749e-05
5.67342e-06
2.55195e-05
5.80892e-06
3.55923e-05
5.61869e-06
4.75576e-05
5.04074e-06
6.15966e-05
3.92289e-06
7.8115e-05
1.74017e-06
-2.37929e-06
9.76842e-05
-3.18853e-07
1.46672e-06
1.77908e-06
1.29091e-06
5.59491e-06
6.51445e-07
1.10978e-05
-2.87318e-07
1.84786e-05
-1.70741e-06
2.76231e-05
-3.33555e-06
3.86157e-05
-5.37397e-06
5.17695e-05
-8.11299e-06
6.75394e-05
-1.1847e-05
8.63243e-05
-1.70448e-05
-2.42371e-05
0.000108182
9.03831e-06
1.498e-05
2.15965e-05
2.92471e-05
3.76475e-05
4.72013e-05
5.83513e-05
7.14614e-05
8.69188e-05
0.000105098
0.000126474
-3.9157e-06
1.71913e-05
-1.32756e-05
-7.69255e-06
1.5973e-05
-1.21962e-05
-1.33902e-05
1.89467e-05
-1.3249e-05
-1.96092e-05
2.09142e-05
-1.46952e-05
-2.5959e-05
2.30628e-05
-1.67131e-05
-3.25205e-05
2.60057e-05
-1.94442e-05
-3.95685e-05
2.99588e-05
-2.29108e-05
-4.73963e-05
3.51989e-05
-2.7371e-05
-5.63152e-05
4.20578e-05
-3.3139e-05
-6.66646e-05
5.0991e-05
-4.06417e-05
6.26585e-05
-5.04547e-05
-7.88683e-05
2.7567e-06
1.44346e-05
3.2965e-06
1.54332e-05
6.38131e-07
2.16051e-05
-3.78365e-06
2.5336e-05
-9.56057e-06
2.88398e-05
-1.62569e-05
3.2702e-05
-2.37471e-05
3.7449e-05
-3.21462e-05
4.3598e-05
-4.17118e-05
5.16234e-05
-5.2786e-05
6.20652e-05
7.56523e-05
-6.57798e-05
2.37327e-06
1.20613e-05
3.04351e-06
1.4763e-05
2.62163e-06
2.20269e-05
8.43529e-07
2.71141e-05
-2.77843e-06
3.24617e-05
-7.88206e-06
3.78057e-05
-1.42086e-05
4.37756e-05
-2.16311e-05
5.10205e-05
-3.02159e-05
6.02082e-05
-4.01761e-05
7.20254e-05
8.72981e-05
-5.18219e-05
1.6553e-06
1.0406e-05
1.87961e-06
1.45387e-05
2.11279e-06
2.17938e-05
1.53314e-06
2.76937e-05
-3.75954e-07
3.43708e-05
-3.60918e-06
4.10389e-05
-8.15901e-06
4.83254e-05
-1.39159e-05
5.67774e-05
-2.08299e-05
6.71222e-05
-2.89431e-05
8.01386e-05
9.67108e-05
-3.83558e-05
1.25857e-06
9.14744e-06
1.44824e-06
1.4349e-05
1.77665e-06
2.14653e-05
1.56428e-06
2.79061e-05
6.13953e-07
3.53212e-05
-1.24829e-06
4.29011e-05
-4.18921e-06
5.12663e-05
-8.23481e-06
6.08229e-05
-1.33514e-05
7.22388e-05
-1.95429e-05
8.63301e-05
0.000104037
-2.68693e-05
1.11293e-06
8.0345e-06
1.55128e-06
1.39106e-05
2.05887e-06
2.09578e-05
2.08503e-06
2.78799e-05
1.6591e-06
3.57471e-05
6.20457e-07
4.39398e-05
-1.1801e-06
5.30669e-05
-3.85105e-06
6.34939e-05
-7.41853e-06
7.58063e-05
-1.19005e-05
9.08121e-05
0.000109428
-1.7291e-05
1.04167e-06
6.99284e-06
1.72393e-06
1.32284e-05
2.43345e-06
2.02482e-05
2.73244e-06
2.75809e-05
2.70315e-06
3.57764e-05
2.23259e-06
4.44103e-05
1.21717e-06
5.40823e-05
-4.21846e-07
6.51329e-05
-2.74735e-06
7.81318e-05
-5.81656e-06
9.38813e-05
0.000113256
-9.64524e-06
8.77151e-07
6.11568e-06
1.73897e-06
1.23666e-05
2.61096e-06
1.93762e-05
3.1663e-06
2.70256e-05
3.48536e-06
3.54573e-05
3.46726e-06
4.44284e-05
3.07983e-06
5.44697e-05
2.2541e-06
6.59586e-05
9.33529e-07
7.94524e-05
-9.13027e-07
9.57278e-05
0.000115645
-3.30193e-06
8.57095e-07
5.25859e-06
1.83749e-06
1.13862e-05
2.8422e-06
1.83715e-05
3.63626e-06
2.62315e-05
4.25407e-06
3.48395e-05
4.61778e-06
4.40647e-05
4.72807e-06
5.43594e-05
4.54909e-06
6.61376e-05
4.03856e-06
7.99629e-05
3.1569e-06
9.66095e-05
0.000116902
1.90021e-06
9.29095e-07
4.3295e-06
2.08267e-06
1.02326e-05
3.28847e-06
1.71657e-05
4.35165e-06
2.51683e-05
5.26221e-06
3.3929e-05
5.96361e-06
4.33633e-05
6.47862e-06
5.38444e-05
6.80588e-06
6.58104e-05
6.91875e-06
7.985e-05
6.7925e-06
9.67357e-05
0.000117345
6.34912e-06
9.43058e-07
3.38644e-06
2.20812e-06
8.96753e-06
3.59266e-06
1.57812e-05
4.92578e-06
2.38352e-05
6.14133e-06
3.27134e-05
7.18474e-06
4.23199e-05
8.09249e-06
5.29367e-05
8.88745e-06
6.50154e-05
9.5773e-06
7.91602e-05
1.0153e-05
9.61601e-05
0.000116885
1.06131e-05
8.57827e-07
2.52861e-06
2.11175e-06
7.71361e-06
3.59478e-06
1.42982e-05
5.14375e-06
2.22863e-05
6.64958e-06
3.12076e-05
8.05825e-06
4.09112e-05
9.39713e-06
5.15978e-05
1.06943e-05
6.37182e-05
1.19834e-05
7.78711e-05
1.32834e-05
9.486e-05
0.000115587
1.45812e-05
7.8407e-07