/*--------------------------------*- C++ -*----------------------------------*\
| =========                 |                                                 |
| \\      /  F ield         | OpenFOAM: The Open Source CFD Toolbox           |
|  \\    /   O peration     | Version:  3.0.1                                 |
|   \\  /    A nd           | Web:      www.OpenFOAM.org                      |
|    \\/     M anipulation  |                                                 |
\*---------------------------------------------------------------------------*/
FoamFile
{
    version     2.0;
    format      ascii;
    class       volScalarField;
    location    "0.559436";
    object      k;
}
// * * * * * * * * * * * * * * * * * * * * * * * * * * * * * * * * * * * * * //

dimensions      [0 2 -2 0 0 0 0];

internalField   nonuniform List<scalar> 
21246
(
0.734093
1.09188
0.678532
0.434982
0.25529
0.147271
0.0887657
0.0590023
0.0441616
0.0361846
0.0314023
0.708485
1.02278
0.72648
0.502229
0.308271
0.180621
0.106181
0.0668305
0.0476854
0.0380753
0.0327095
0.63794
0.836272
0.710459
0.530009
0.354507
0.212306
0.125336
0.0770222
0.0527429
0.0409429
0.0349224
0.537932
0.69766
0.668757
0.532524
0.379785
0.242142
0.144592
0.0881203
0.0588984
0.0446542
0.0377912
0.429492
0.61011
0.624605
0.527479
0.396974
0.266798
0.165799
0.101171
0.0660268
0.0491572
0.0412322
0.327453
0.548535
0.585089
0.521549
0.412386
0.290882
0.188017
0.11712
0.075823
0.0546438
0.0451744
0.238337
0.499107
0.552434
0.515524
0.426388
0.315097
0.212322
0.135762
0.0879983
0.0623166
0.0501997
0.167108
0.46239
0.529638
0.510302
0.438126
0.338118
0.237869
0.157163
0.102984
0.0720588
0.0565769
0.12946
0.449063
0.523479
0.50961
0.448667
0.35927
0.263515
0.180723
0.120898
0.0842767
0.0646501
0.131467
0.457653
0.537524
0.520258
0.462399
0.379857
0.288814
0.20569
0.141484
0.0992076
0.0748522
0.130378
0.445249
0.561312
0.548759
0.48624
0.403277
0.314266
0.23132
0.164035
0.11672
0.0874469
0.115587
0.388571
0.561916
0.586094
0.523513
0.433719
0.341699
0.257522
0.187829
0.136367
0.102493
0.0955657
0.311015
0.513146
0.602969
0.565963
0.472664
0.373581
0.28533
0.212754
0.157776
0.119832
0.0772301
0.240465
0.428263
0.572189
0.591932
0.513527
0.409774
0.315545
0.239045
0.180763
0.139257
0.0630969
0.185719
0.335093
0.495725
0.579699
0.540948
0.444225
0.346344
0.266019
0.204843
0.160491
0.0536952
0.147025
0.253815
0.398756
0.524178
0.539122
0.466511
0.372968
0.291721
0.229118
0.182935
0.0477956
0.122074
0.194615
0.306136
0.438986
0.501444
0.466035
0.388262
0.312308
0.251561
0.205349
0.0443017
0.106811
0.155439
0.231251
0.34499
0.434634
0.438122
0.385475
0.322579
0.268425
0.225189
0.0421093
0.0971039
0.130761
0.181047
0.260214
0.352428
0.386637
0.361871
0.31806
0.275567
0.237987
0.0408371
0.0907051
0.113798
0.148594
0.200605
0.270609
0.321594
0.32016
0.296529
0.268792
0.239869
0.0400021
0.0852642
0.101132
0.126504
0.161802
0.208733
0.255542
0.267483
0.259024
0.245024
0.226046
0.040177
0.0804726
0.0937219
0.114321
0.14049
0.172783
0.203459
0.214789
0.212436
0.205737
0.19386
0.0488772
0.107217
0.119917
0.133324
0.149772
0.168581
0.182182
0.184261
0.178009
0.170746
0.161746
0.120039
0.122882
0.112493
0.117279
0.132811
0.154804
0.17292
0.177147
0.169917
0.160427
0.154759
0.679868
0.847527
0.603819
0.364342
0.21281
0.127253
0.0804293
0.0557034
0.0427154
0.0353241
0.0305722
0.482951
0.661145
0.517463
0.353865
0.219752
0.135002
0.0856199
0.0586086
0.0443
0.0362374
0.0311229
0.435593
0.593126
0.477996
0.366804
0.247042
0.15517
0.0969334
0.0644694
0.0474671
0.0381652
0.0324008
0.406318
0.53329
0.44004
0.361594
0.260288
0.172031
0.109852
0.0725615
0.0522455
0.041199
0.0345667
0.384213
0.473809
0.407983
0.344993
0.25543
0.175382
0.116744
0.0796023
0.0582505
0.0460667
0.0384333
0.365725
0.424208
0.380106
0.32703
0.247701
0.174786
0.119242
0.0829645
0.0616583
0.0494306
0.041854
0.349645
0.384945
0.356421
0.310155
0.239038
0.172637
0.120637
0.0857356
0.0647107
0.0525491
0.0452503
0.335679
0.354022
0.336531
0.295797
0.231364
0.170572
0.121865
0.0883704
0.0676044
0.055297
0.0479442
0.323664
0.329628
0.320322
0.28452
0.225911
0.169843
0.123884
0.0915285
0.0708393
0.0581424
0.0504339
0.31333
0.310061
0.307511
0.27629
0.223236
0.171158
0.127491
0.0959729
0.075101
0.0616013
0.0528626
0.304299
0.294208
0.297457
0.270933
0.223524
0.175076
0.133423
0.102539
0.0812642
0.0665227
0.0558917
0.296266
0.280834
0.289238
0.268011
0.226404
0.181726
0.142193
0.112039
0.0904181
0.074258
0.0609972
0.289069
0.269074
0.282501
0.267144
0.2317
0.191233
0.154219
0.125204
0.10368
0.0864359
0.0705745
0.282261
0.258289
0.276313
0.267415
0.238859
0.203401
0.169646
0.142477
0.121842
0.104425
0.0865426
0.275432
0.248271
0.269758
0.267287
0.246228
0.216859
0.187526
0.163201
0.144331
0.127781
0.109268
0.268475
0.238535
0.262434
0.266159
0.252906
0.23052
0.206651
0.186122
0.169776
0.154895
0.136907
0.261198
0.228647
0.253826
0.263247
0.25775
0.24289
0.225238
0.209227
0.19598
0.183307
0.167024
0.253363
0.218208
0.243425
0.257662
0.259397
0.252102
0.240973
0.229831
0.219932
0.209652
0.195596
0.24478
0.206828
0.230711
0.248486
0.256417
0.256126
0.251273
0.244874
0.238187
0.230186
0.218543
0.235336
0.194136
0.215194
0.234844
0.247444
0.252997
0.253612
0.251388
0.247481
0.241517
0.232191
0.225043
0.179787
0.196475
0.216027
0.231322
0.241039
0.245871
0.246987
0.245383
0.241422
0.234581
0.214417
0.163539
0.174287
0.191489
0.207125
0.218949
0.226529
0.230166
0.230577
0.228812
0.225425
0.204344
0.14479
0.147959
0.160582
0.174164
0.186162
0.195585
0.202056
0.205186
0.20587
0.206396
0.204401
0.125549
0.127162
0.137715
0.152326
0.168638
0.182624
0.189508
0.189336
0.186043
0.184766
0.55155
0.792261
0.66804
0.505894
0.351119
0.227249
0.141913
0.0877096
0.0537537
0.0326383
0.0201074
0.431777
0.63952
0.601619
0.476648
0.336832
0.220824
0.138714
0.0852205
0.0516224
0.0310091
0.0188651
0.324277
0.550107
0.547944
0.462388
0.341551
0.229481
0.145289
0.0888506
0.0531634
0.0315351
0.0191328
0.266145
0.484538
0.505681
0.446416
0.343249
0.237286
0.152828
0.0944388
0.0568752
0.0337359
0.0202508
0.226941
0.406344
0.445981
0.419805
0.341227
0.245576
0.161554
0.100512
0.060321
0.0351973
0.0204476
0.205944
0.355779
0.394317
0.380275
0.320789
0.239838
0.162386
0.102681
0.0621918
0.0367535
0.0219119
0.1935
0.322041
0.358071
0.346925
0.295426
0.224687
0.155637
0.100847
0.0623781
0.0373736
0.0223342
0.185822
0.297672
0.329957
0.319467
0.273654
0.210344
0.147892
0.0975205
0.061446
0.0375396
0.0232017
0.180101
0.278488
0.307109
0.296588
0.254554
0.196921
0.139986
0.093702
0.0601082
0.0374195
0.0234527
0.17506
0.262255
0.288117
0.277792
0.23871
0.185514
0.132996
0.090101
0.058635
0.036986
0.0232242
0.170582
0.248281
0.272205
0.262375
0.225829
0.176226
0.127216
0.087002
0.0572281
0.036475
0.0233483
0.167266
0.236589
0.258937
0.249631
0.215297
0.168716
0.122575
0.0845127
0.0560994
0.0360953
0.0233131
0.164695
0.226575
0.247832
0.239253
0.206978
0.162985
0.11918
0.0827983
0.0554207
0.0359455
0.0232608
0.162293
0.217673
0.238476
0.231067
0.200882
0.159142
0.117161
0.0819742
0.0552517
0.0360482
0.0235356
0.16063
0.210036
0.230666
0.22465
0.196604
0.156932
0.116421
0.0820289
0.0556137
0.0364122
0.0237061
0.159585
0.203281
0.224181
0.219913
0.194176
0.156477
0.117107
0.083096
0.0566103
0.037118
0.0241044
0.158841
0.196966
0.218762
0.216858
0.193826
0.158104
0.119538
0.0854198
0.0584003
0.0382555
0.0247384
0.158684
0.191116
0.214296
0.215345
0.195541
0.161987
0.123982
0.0892543
0.0611943
0.039978
0.025599
0.159549
0.185581
0.210192
0.214782
0.19915
0.168468
0.130952
0.0949809
0.0653174
0.0425604
0.0270284
0.161575
0.180045
0.206227
0.214623
0.203704
0.176483
0.139979
0.102847
0.0711391
0.0464324
0.0293331
0.16508
0.174389
0.201993
0.214501
0.208681
0.185498
0.150602
0.11272
0.0790021
0.0521691
0.0331327
0.171733
0.167354
0.197529
0.213557
0.212837
0.194233
0.162029
0.124567
0.0895267
0.0606853
0.0394012
0.180077
0.161495
0.190892
0.211582
0.215513
0.201629
0.173372
0.138161
0.103277
0.0730774
0.0495135
0.203815
0.171218
0.200814
0.206456
0.209384
0.200415
0.179345
0.150416
0.119098
0.0896648
0.0648524
0.512863
0.713361
0.652314
0.54456
0.420224
0.285402
0.177899
0.10951
0.0661321
0.0393777
0.0238329
0.402316
0.525888
0.572959
0.536055
0.454365
0.344538
0.234126
0.145422
0.0873293
0.0517386
0.0306704
0.220247
0.452183
0.508262
0.505558
0.459095
0.377334
0.278659
0.185265
0.115131
0.0692161
0.0415056
0.218523
0.44476
0.524921
0.507856
0.465159
0.397939
0.311732
0.221165
0.144087
0.0903064
0.0568278
0.241581
0.463532
0.653771
0.620368
0.527222
0.435776
0.344766
0.254251
0.173304
0.11217
0.0733576
0.256149
0.458186
0.720548
0.842498
0.711072
0.542413
0.404825
0.294442
0.204316
0.135436
0.0899777
0.269071
0.445017
0.701623
0.975533
0.990792
0.766548
0.534409
0.363904
0.24495
0.161855
0.107965
0.282287
0.433848
0.665521
0.954262
1.1885
1.06745
0.757492
0.488338
0.308763
0.196211
0.12807
0.295594
0.426588
0.629507
0.896617
1.19052
1.29578
1.03164
0.674052
0.407357
0.244844
0.153082
0.308712
0.42381
0.597173
0.825954
1.10762
1.3628
1.26873
0.890892
0.537697
0.31018
0.184443
0.321594
0.426815
0.572848
0.755181
0.996331
1.2837
1.37985
1.07603
0.674457
0.385058
0.220985
0.334747
0.435127
0.557154
0.691493
0.880253
1.1473
1.3572
1.18193
0.781496
0.452533
0.25659
0.348708
0.449898
0.550314
0.641814
0.776756
0.995987
1.24085
1.19448
0.831134
0.493885
0.282454
0.364022
0.470086
0.550364
0.606092
0.691567
0.850406
1.08207
1.14022
0.817879
0.49916
0.293553
0.381072
0.49582
0.556041
0.580935
0.626377
0.725397
0.878699
1.01015
0.753289
0.468482
0.289109
0.399707
0.52844
0.567614
0.560346
0.56611
0.613271
0.692824
0.75601
0.676472
0.42554
0.274989
0.421174
0.571573
0.590053
0.549684
0.516922
0.52035
0.54989
0.576837
0.555918
0.401951
0.263971
0.447243
0.630708
0.631878
0.559569
0.493512
0.467578
0.471404
0.481326
0.469948
0.388446
0.268615
0.481309
0.71532
0.708403
0.607322
0.512513
0.468025
0.462307
0.468837
0.462604
0.416555
0.317759
0.528565
0.850283
0.859544
0.733314
0.605353
0.54228
0.533519
0.537639
0.526141
0.478745
0.373791
0.553785
0.970764
1.0349
0.917923
0.766731
0.671274
0.591155
0.537901
0.481816
0.407244
0.303553
0.534588
0.950254
1.03742
0.966339
0.75233
0.532893
0.419275
0.338081
0.274529
0.221057
0.17134
0.397448
0.645549
0.627855
0.502398
0.37938
0.297412
0.244889
0.206785
0.174785
0.144951
0.115941
0.246312
0.19823
0.185959
0.183085
0.184512
0.184485
0.178146
0.163405
0.141488
0.115602
0.0895352
0.226274
0.212253
0.10019
0.0466462
0.024838
0.0164093
0.013123
0.0116443
0.0108255
0.0102467
0.00973511
0.273875
0.319134
0.0959726
0.0540858
0.0280069
0.0177817
0.0134101
0.0114324
0.0103749
0.00967948
0.0091312
0.31869
0.369932
0.0970722
0.0628085
0.0301463
0.0192214
0.0139059
0.0114697
0.0101496
0.00930386
0.0086415
0.358345
0.348227
0.100485
0.0668816
0.0306584
0.0203121
0.0143211
0.0115897
0.0100454
0.00907256
0.0083209
0.389239
0.316123
0.101656
0.0658824
0.0306054
0.0210189
0.0145351
0.0116969
0.0100017
0.00894704
0.00815067
0.411165
0.295018
0.101424
0.0631208
0.0305391
0.0213478
0.0145718
0.0117723
0.00996971
0.00887592
0.00806567
0.424497
0.284932
0.100934
0.0604349
0.030576
0.0213782
0.0145411
0.0118156
0.0099285
0.00882667
0.00799585
0.429803
0.281642
0.100526
0.0582902
0.0307162
0.0212218
0.0145234
0.011815
0.00988413
0.00879163
0.00796787
0.428343
0.283036
0.101292
0.0570868
0.0309939
0.0210427
0.0145533
0.0117745
0.00985618
0.00876116
0.00793403
0.421202
0.287574
0.10593
0.0578619
0.031717
0.0210142
0.0146581
0.0117387
0.00985216
0.00873178
0.00790155
0.408613
0.295523
0.113743
0.0601651
0.03306
0.0213692
0.014933
0.0117776
0.00987645
0.00871138
0.00788136
0.39119
0.306478
0.123226
0.0636664
0.034935
0.0220493
0.0153614
0.0119019
0.00995112
0.00872377
0.00787992
0.370368
0.319801
0.135474
0.0688819
0.0376476
0.0232186
0.0160059
0.0121581
0.0100816
0.00877161
0.00789536
0.346922
0.335283
0.152221
0.0768604
0.0417418
0.0251492
0.0169981
0.0126189
0.0103039
0.00887216
0.0079372
0.321237
0.353899
0.172381
0.0875832
0.0473891
0.0279986
0.0184636
0.0133578
0.0106657
0.00904954
0.0080201
0.294673
0.375524
0.197397
0.102172
0.05536
0.0322194
0.0206835
0.0145272
0.011259
0.00935269
0.00817012
0.268411
0.399175
0.229618
0.122954
0.0672154
0.0387287
0.024201
0.0164295
0.0122588
0.00987793
0.00844032
0.243694
0.426775
0.27026
0.151936
0.0847667
0.0488284
0.0298788
0.0195971
0.013988
0.0108136
0.00893867
0.222945
0.458522
0.32211
0.193081
0.111485
0.0650577
0.0394456
0.025149
0.0171461
0.0125824
0.00991312
0.209276
0.493797
0.388097
0.252353
0.153515
0.0923624
0.0564946
0.0355575
0.0233656
0.0162246
0.0120036
0.204556
0.528423
0.468148
0.33766
0.22163
0.140674
0.0889148
0.0566497
0.0367615
0.0245455
0.0170571
0.208608
0.556187
0.553883
0.453265
0.33113
0.228774
0.154112
0.102718
0.068328
0.0456672
0.0308656
0.203613
0.543411
0.599751
0.558933
0.46791
0.365642
0.273281
0.198469
0.141478
0.0997273
0.0696829
0.232593
0.478628
0.509952
0.498532
0.45992
0.405954
0.345026
0.283993
0.227491
0.178277
0.13659
0.198183
0.202856
0.100472
0.0464446
0.0244716
0.0164184
0.0135168
0.0123093
0.0117017
0.0113178
0.0110068
0.236078
0.249166
0.0856429
0.048371
0.0273388
0.01853
0.0148959
0.0133806
0.0126809
0.012317
0.0120833
0.270861
0.275328
0.0779233
0.0520059
0.0295161
0.0207516
0.0169187
0.015348
0.0147019
0.0143946
0.0141927
0.298623
0.248819
0.0742995
0.0535694
0.0304822
0.0221214
0.0184091
0.0171625
0.01695
0.0171874
0.0176085
0.318128
0.211045
0.0715325
0.0523972
0.0305392
0.0230107
0.019525
0.0185463
0.0186788
0.0193782
0.0203662
0.331539
0.180784
0.0686283
0.0498874
0.0302918
0.0236073
0.0203425
0.0195924
0.0200304
0.0212273
0.0230053
0.341297
0.15912
0.0657199
0.0472696
0.0299973
0.024019
0.0209111
0.0203303
0.0209326
0.0223946
0.0245626
0.347656
0.143201
0.0628672
0.0449577
0.029695
0.0242587
0.021292
0.0208074
0.0214589
0.023053
0.0255955
0.352695
0.13125
0.060289
0.0430493
0.0294816
0.0243353
0.0215313
0.0210491
0.0216426
0.0231846
0.0257228
0.357879
0.122345
0.0581121
0.0415896
0.0294076
0.0243166
0.0216475
0.0210815
0.0215236
0.0228455
0.0250301
0.36439
0.116295
0.0564755
0.040571
0.0294473
0.0242852
0.021666
0.0209456
0.0211681
0.0221677
0.0238621
0.371246
0.112084
0.0552062
0.0398825
0.0295791
0.0242596
0.0216221
0.0206925
0.0206578
0.0212977
0.0224976
0.37692
0.110636
0.0545229
0.0395149
0.0298669
0.0242907
0.0215798
0.0203871
0.0200827
0.0203687
0.021116
0.381363
0.112166
0.0549253
0.0395003
0.0303812
0.0244808
0.0216119
0.0201072
0.0195246
0.0194851
0.0198714
0.384629
0.115288
0.0560921
0.0397992
0.0310604
0.0248647
0.0217508
0.0199103
0.0190375
0.0187037
0.0188072
0.386887
0.120211
0.0582344
0.0405309
0.0319191
0.0255003
0.0220586
0.0198656
0.0186823
0.0180762
0.0179508
0.388239
0.127305
0.0617371
0.0419203
0.0330329
0.0264491
0.0226208
0.0200571
0.0185342
0.0176595
0.0173289
0.388684
0.13637
0.0669022
0.0442564
0.0345469
0.0277717
0.023531
0.0205848
0.0186924
0.0175283
0.0169705
0.388197
0.147397
0.0742066
0.0480277
0.0367851
0.0296017
0.0249093
0.0215721
0.0192884
0.0177977
0.0169697
0.386707
0.160587
0.0843874
0.0540594
0.0403997
0.0322905
0.0269784
0.0231921
0.0204944
0.0186385
0.0174862
0.383971
0.175859
0.0983794
0.0636351
0.046593
0.0366791
0.0302748
0.0257925
0.022567
0.0202763
0.0187462
0.379315
0.193036
0.117268
0.078663
0.0574501
0.0445657
0.0361279
0.0302693
0.0260698
0.0230534
0.0209573
0.371158
0.215534
0.14497
0.103367
0.0774381
0.060298
0.0483965
0.0398167
0.0334894
0.0287921
0.0261603
0.282531
0.272151
0.215703
0.180889
0.160306
0.147562
0.139005
0.132171
0.125597
0.118576
0.109632
0.0608377
0.0300129
0.0171754
0.016372
0.0194026
0.0355722
0.0693978
0.0902052
0.103818
0.0750416
0.0507782
0.0315787
0.0256678
0.0371483
0.0709578
0.0967349
0.124367
0.14943
0.0930684
0.0655523
0.0419259
0.0336981
0.0506423
0.0933749
0.121442
0.143197
0.156001
0.0986136
0.0747415
0.0499467
0.0413629
0.0628
0.10345
0.125498
0.138538
0.145594
0.0827087
0.0955512
0.103162
0.107365
0.108055
0.110119
0.115692
0.11638
0.113347
0.0992083
0.12072
0.139004
0.151644
0.160414
0.175481
0.189931
0.179959
0.16895
0.114917
0.128804
0.139862
0.150807
0.157606
0.169548
0.185186
0.175253
0.165869
0.11258
0.119779
0.126241
0.132618
0.133249
0.138663
0.155518
0.150072
0.149394
0.00442765
0.00460179
0.00461732
0.00588938
0.0462233
0.00438323
0.0111755
0.00454949
0.00437513
0.00425056
0.0453149
0.00455921
0.00374986
0.00327911
0.00448407
0.00430367
0.0032838
0.00626097
0.00429321
0.00424982
0.00411279
0.0047026
0.00466546
0.0154918
0.00449219
0.0032906
0.00379676
0.0107279
0.0595534
0.0493869
0.00334423
0.00410203
0.00296179
0.00453676
0.0042717
0.00459241
0.0143476
0.00448727
0.00289305
0.00438937
0.00562969
0.00454596
0.0143057
0.00465847
0.0605386
0.012002
0.00332345
0.0194014
0.00429509
0.00433788
0.049309
0.00439563
0.0222148
0.0148429
0.00433046
0.00411981
0.0046492
0.00440148
0.0604833
0.0200438
0.00513305
0.0161086
0.0536141
0.0081287
0.00727831
0.00426182
0.050965
0.00435265
0.00460206
0.00424243
0.0032983
0.00430126
0.00403356
0.00454188
0.0321992
0.004269
0.00409916
0.00459813
0.00932547
0.0734752
0.0251735
0.00659474
0.00449569
0.00462625
0.00438066
0.0041248
0.0803788
0.00973173
0.00314748
0.0116988
0.00454243
0.00441281
0.00643309
0.00437992
0.0724407
0.0335843
0.0285794
0.00398964
0.00349391
0.00436256
0.00465698
0.0175774
0.0041687
0.00402061
0.00298047
0.00455243
0.0030414
0.00464661
0.00360373
0.00415148
0.00451028
0.00456089
0.00430328
0.00308059
0.00984128
0.00442324
0.00437582
0.00431702
0.00450293
0.00413973
0.00280477
0.00448274
0.00496077
0.00326319
0.0107474
0.00418072
0.0344549
0.00304024
0.00314856
0.00330617
0.00445348
0.0206704
0.0179939
0.00427406
0.00461416
0.00457653
0.00370966
0.00460691
0.0501892
0.00446958
0.0137183
0.00411338
0.0246103
0.00402462
0.004368
0.00321406
0.00445225
0.00433935
0.00430729
0.00425413
0.00429096
0.00441951
0.00339347
0.0044656
0.0040658
0.00495131
0.00615371
0.00372405
0.00321786
0.00436057
0.00363879
0.00424513
0.00429262
0.00443012
0.0535899
0.00470362
0.00354385
0.00427064
0.00425302
0.00721612
0.00306744
0.00310092
0.00443033
0.0040573
0.00409205
0.00396067
0.00317854
0.00344074
0.0615175
0.00392707
0.00433404
0.00440371
0.00466006
0.0128212
0.00450635
0.00432475
0.00427482
0.00430341
0.00458984
0.0126024
0.00358044
0.00340604
0.00427425
0.00561114
0.00461024
0.00439824
0.00435204
0.00357632
0.00334927
0.00467916
0.00323784
0.00433845
0.00367106
0.00343701
0.0046278
0.00872962
0.00437
0.00314079
0.00434514
0.00433911
0.0126102
0.0043945
0.00401403
0.00422624
0.00449215
0.0410939
0.00451045
0.00365699
0.00429528
0.00323996
0.00285773
0.00303372
0.0277401
0.00941531
0.00322551
0.0044065
0.0095375
0.00440484
0.00345372
0.022944
0.00391751
0.00425828
0.00428636
0.00447739
0.00337447
0.0701716
0.0391845
0.00464675
0.00456367
0.004552
0.00370258
0.011943
0.00401156
0.00540322
0.00460181
0.00457791
0.00451862
0.00355256
0.0281019
0.0375614
0.00353964
0.0128827
0.00520558
0.00430307
0.00395276
0.00435898
0.00413975
0.004473
0.00318034
0.00426899
0.00341064
0.0045484
0.00432669
0.0045757
0.00450794
0.00307013
0.00411272
0.00478543
0.00559159
0.00372178
0.0216527
0.00432191
0.00433202
0.00318976
0.00439033
0.00432855
0.00331989
0.00444817
0.00428003
0.00331839
0.00433592
0.00459848
0.0254488
0.0357829
0.00395385
0.00439649
0.0820738
0.00459032
0.00424935
0.0119285
0.00461706
0.0112522
0.00424105
0.00297802
0.00467886
0.00435
0.00424254
0.0045667
0.0042669
0.00335255
0.00444911
0.00270002
0.00437795
0.0497607
0.00415156
0.00415332
0.00459922
0.00706097
0.00442727
0.00434933
0.00714696
0.00456441
0.00409141
0.00295906
0.00449143
0.00410877
0.00371121
0.00325993
0.00412939
0.00445935
0.00426694
0.0167857
0.00435639
0.00338903
0.00564204
0.00419576
0.00445237
0.00371377
0.00424191
0.0524975
0.0044621
0.0540717
0.00396222
0.00464933
0.00358661
0.0433031
0.00563849
0.00458767
0.00447449
0.00397548
0.00401853
0.01279
0.0043345
0.00497237
0.0195819
0.00713807
0.0151595
0.00437754
0.0130304
0.0403499
0.00855422
0.00391535
0.00373919
0.00416999
0.00395464
0.00468915
0.00289106
0.003998
0.00465969
0.0510757
0.0038605
0.00332046
0.00451788
0.00451214
0.00431062
0.00327061
0.00308952
0.00380661
0.0106992
0.00454163
0.00444126
0.0127704
0.0352234
0.00319573
0.00386793
0.00460924
0.00391671
0.00425382
0.00437875
0.00426124
0.0239947
0.00438549
0.0031516
0.00441354
0.00339273
0.0478832
0.00269441
0.00321083
0.0128888
0.00345078
0.00443008
0.00536696
0.00310679
0.00457594
0.0476443
0.00722782
0.00447948
0.0042928
0.00461948
0.0103856
0.00315854
0.00441004
0.00466148
0.0116527
0.00278575
0.00620541
0.00795314
0.00467679
0.0043368
0.0167324
0.00429513
0.00427916
0.00354393
0.00349957
0.00383101
0.00407525
0.00360403
0.00466518
0.00315111
0.00497649
0.03134
0.00322097
0.0126308
0.00345222
0.00398122
0.00414007
0.00450906
0.00478866
0.00439808
0.00855179
0.00448654
0.00315079
0.00341594
0.00410458
0.0042899
0.00339965
0.0240673
0.0482897
0.00327352
0.00468837
0.00395606
0.0799229
0.0131828
0.00271869
0.0042264
0.00615196
0.0233934
0.0034257
0.00434644
0.00382421
0.0044429
0.00461346
0.00449954
0.00431541
0.00446068
0.0112958
0.00308024
0.00324078
0.00491909
0.00459153
0.00434265
0.0361741
0.00319798
0.00394424
0.00431686
0.00801345
0.00760734
0.00545505
0.00546768
0.0044406
0.00393186
0.00347801
0.00422893
0.00506257
0.00425693
0.00458763
0.00432838
0.00557892
0.00357517
0.00427888
0.00444964
0.00412764
0.016532
0.00417647
0.0046468
0.00323728
0.0312392
0.00404757
0.00392944
0.00434146
0.0033328
0.00439651
0.00426929
0.00440144
0.00320087
0.00328148
0.00426492
0.00338487
0.00400177
0.0047005
0.003746
0.00370306
0.00454138
0.00453486
0.0347852
0.00437863
0.00341383
0.00447784
0.016117
0.00461922
0.0340246
0.00436231
0.0035231
0.00436393
0.00469463
0.0428899
0.0073859
0.00337337
0.00445292
0.0036033
0.00411939
0.00459666
0.00442666
0.00457439
0.0041808
0.0234553
0.0045215
0.00435442
0.0117152
0.00444037
0.00901319
0.00433845
0.00611643
0.00331656
0.00316515
0.00467862
0.004476
0.0046334
0.00568109
0.00364649
0.00450265
0.00448818
0.00325571
0.00461474
0.0120569
0.00460473
0.0627767
0.00423468
0.00400956
0.00295265
0.0033475
0.0136141
0.0358111
0.0041615
0.00410802
0.00429799
0.00460701
0.00335376
0.00334846
0.00423669
0.00342945
0.0323569
0.036654
0.00449103
0.00433728
0.00459587
0.0252812
0.0420825
0.00421799
0.00454385
0.00437
0.0351782
0.00431896
0.0030792
0.00319332
0.00512745
0.0330678
0.00443052
0.00451522
0.00446298
0.00761751
0.00433865
0.0332946
0.00319974
0.00409327
0.00473101
0.0054931
0.004636
0.00467325
0.0716104
0.00440624
0.00354075
0.00473917
0.00910179
0.0259816
0.00398438
0.0036293
0.00421209
0.00443951
0.00449544
0.0292264
0.00299807
0.00388725
0.00425226
0.00450022
0.00660444
0.00426134
0.00444913
0.00423955
0.00428264
0.00321828
0.0031559
0.00925376
0.00567416
0.00401557
0.00526218
0.00429576
0.00882402
0.00425787
0.00445847
0.0288038
0.0175882
0.00438282
0.00438899
0.00369606
0.00415951
0.00433688
0.00565017
0.00460567
0.00416503
0.00332656
0.00297648
0.00381989
0.00313429
0.00319054
0.0055745
0.0107625
0.00488058
0.00580923
0.00353415
0.00344865
0.00607434
0.0034989
0.00462119
0.00417024
0.00569896
0.00393771
0.00422203
0.0042499
0.00342472
0.0136125
0.0275595
0.00360624
0.0053848
0.00442429
0.00525379
0.00455013
0.0043004
0.00427203
0.0034332
0.00424089
0.00455461
0.00420423
0.00459405
0.00689959
0.0061607
0.0221567
0.00426095
0.00426082
0.00399076
0.00849081
0.00442331
0.0159321
0.00428963
0.0262238
0.0146145
0.00442939
0.0035293
0.0046597
0.00298826
0.00559136
0.00319418
0.0244397
0.00364624
0.00427335
0.00463645
0.0037235
0.0032064
0.00426524
0.0312842
0.00436935
0.00407808
0.00463269
0.00374478
0.00421046
0.00317577
0.00455625
0.00440084
0.0044041
0.00381403
0.00615561
0.00456259
0.00334036
0.00437448
0.0042613
0.00322838
0.00407803
0.00495426
0.00531667
0.00295139
0.00409365
0.00372425
0.00363294
0.00660764
0.00299275
0.0116853
0.00446915
0.00336905
0.00449389
0.00443468
0.00661445
0.00438181
0.0033704
0.00327386
0.00431722
0.00416255
0.00413211
0.0041804
0.00458618
0.0692388
0.0102797
0.0610482
0.00413006
0.00397625
0.0138045
0.0279244
0.00446311
0.0035048
0.00361476
0.00297307
0.00452903
0.00332926
0.0322522
0.00454873
0.00915885
0.00351585
0.00460712
0.0269537
0.0043781
0.00427799
0.0042231
0.00337124
0.0043494
0.00319675
0.00457076
0.00299841
0.00429164
0.0029845
0.00448287
0.0157051
0.0035273
0.00429196
0.0212132
0.0120632
0.00446148
0.00319693
0.00385253
0.00783849
0.00520108
0.00378137
0.004263
0.0102684
0.00296474
0.00500027
0.00429192
0.00437325
0.00441373
0.0165027
0.0037599
0.00469033
0.00449159
0.00453513
0.032176
0.0174853
0.00361867
0.0045782
0.00337961
0.00427661
0.00455718
0.00458019
0.00462427
0.00448376
0.00458314
0.00317545
0.00520215
0.0109117
0.00308782
0.0042073
0.00442693
0.00450238
0.0037667
0.025157
0.0045953
0.00406071
0.00351565
0.0158917
0.014202
0.00465417
0.00391709
0.0111622
0.00443023
0.00446518
0.0102716
0.00421968
0.00456831
0.00426635
0.00496454
0.00399414
0.00389854
0.00455569
0.00409391
0.00635281
0.00467275
0.00456711
0.00308991
0.00794929
0.0060202
0.00877785
0.0046405
0.00428595
0.00678742
0.00304181
0.00705096
0.00460122
0.00420122
0.00455143
0.00433468
0.00459175
0.0340428
0.00344285
0.00875842
0.0149201
0.0109428
0.00454998
0.0514612
0.00466945
0.00428605
0.00502707
0.00449092
0.00441814
0.0044167
0.00304734
0.0250561
0.00493805
0.00441513
0.0108576
0.00442337
0.00468811
0.00433799
0.00438576
0.00424643
0.00449719
0.00455866
0.00434324
0.0634427
0.00437938
0.00425869
0.00442523
0.018278
0.00430502
0.00450725
0.00516968
0.0612401
0.00428014
0.00451277
0.00300777
0.00848524
0.00464969
0.00454
0.00418822
0.00400736
0.00661097
0.0045986
0.0115026
0.0029916
0.0108205
0.00299529
0.00458068
0.0032572
0.00564144
0.0044425
0.00447186
0.00450682
0.00460831
0.00397169
0.00939638
0.00427199
0.00520168
0.0663322
0.00815699
0.00393645
0.00580677
0.00466294
0.00456133
0.0031542
0.00277265
0.00329185
0.00439666
0.0271777
0.00430362
0.00336697
0.00431756
0.0031528
0.00313734
0.0034348
0.00350038
0.00419746
0.00452733
0.0446533
0.0043311
0.0421985
0.00421262
0.00306045
0.00419749
0.00421132
0.0578017
0.00438228
0.0046034
0.00352101
0.00835152
0.00818971
0.00343157
0.00320256
0.00331102
0.0388267
0.0453242
0.0045203
0.00421088
0.0463753
0.00439692
0.00549799
0.00449729
0.00945194
0.00302135
0.00452435
0.00460535
0.00343456
0.00464482
0.0044058
0.0036187
0.00437432
0.00427489
0.00446133
0.00433717
0.00456969
0.00430264
0.00478251
0.00440934
0.00417967
0.0061591
0.00350652
0.00394336
0.00461061
0.00515282
0.00297671
0.00459798
0.00465431
0.00408626
0.0161815
0.0483248
0.00396903
0.00344649
0.0041024
0.00434791
0.00307703
0.0038656
0.00426457
0.00567886
0.0045539
0.0678886
0.0049618
0.0316317
0.00455288
0.00455134
0.00480694
0.0433033
0.00336271
0.00314537
0.00467575
0.00306138
0.0193961
0.00456359
0.00402801
0.0413296
0.00366026
0.0248884
0.00364478
0.00445658
0.00433151
0.00420298
0.00425656
0.00653517
0.00302137
0.00604178
0.0441294
0.00460052
0.00306253
0.00385417
0.00512366
0.00927521
0.0062797
0.00439197
0.00406255
0.00313842
0.00454538
0.00466435
0.00467887
0.0284746
0.00411881
0.00460795
0.00371151
0.00869776
0.00320408
0.00452655
0.00805982
0.00405612
0.00407646
0.00398007
0.0045566
0.00430806
0.00447974
0.0143655
0.00449175
0.0190298
0.00399772
0.0034584
0.0045081
0.00417898
0.00450381
0.00437653
0.00395132
0.0407716
0.0126267
0.0546445
0.00912194
0.0463833
0.00420041
0.00428938
0.00272412
0.00462893
0.00324403
0.0269506
0.00429798
0.00487552
0.00388472
0.0464609
0.00420218
0.00320299
0.00455091
0.0438338
0.00469507
0.0342352
0.00418169
0.00460302
0.00507493
0.00840263
0.00418007
0.00516377
0.00824045
0.00441828
0.0143385
0.00558509
0.0243166
0.00329172
0.00282618
0.0124574
0.00436413
0.00461011
0.00371351
0.00466623
0.00344207
0.00330293
0.0037335
0.00390309
0.00323745
0.0534598
0.00437466
0.00433361
0.00422949
0.00457473
0.00296545
0.0034021
0.00423408
0.00330903
0.0427125
0.00457874
0.0559587
0.00751432
0.00449911
0.00484459
0.00386492
0.00319297
0.00318638
0.0108398
0.00442093
0.00452664
0.0454724
0.00437421
0.00458622
0.00355703
0.00454419
0.00449549
0.0479308
0.00451156
0.033418
0.00398634
0.00640653
0.00429139
0.00430237
0.01483
0.0032468
0.0117482
0.00444479
0.00303623
0.0143563
0.00305668
0.0033278
0.00528024
0.00402272
0.00424165
0.00925244
0.00717454
0.00406592
0.00432305
0.0033629
0.00380952
0.00461859
0.00357509
0.0478708
0.00425658
0.00468951
0.00450553
0.00403864
0.00278566
0.0032032
0.00328612
0.0797316
0.00463482
0.00587677
0.00555689
0.00457507
0.00379104
0.0042474
0.00427146
0.0614502
0.00453265
0.0172
0.0239508
0.00456652
0.0044955
0.00464421
0.0313285
0.0171988
0.0224476
0.00335517
0.00456662
0.00430079
0.00326795
0.0191527
0.0065101
0.00308902
0.00434156
0.00613914
0.0170001
0.00611266
0.00416452
0.0125939
0.0283618
0.00405
0.00382523
0.0043083
0.00436072
0.0302903
0.00318691
0.00367974
0.00460037
0.00468534
0.00412742
0.0494348
0.00483293
0.00300659
0.00807859
0.00724685
0.00436939
0.0144981
0.0058004
0.00462213
0.00304116
0.00477443
0.00412813
0.0302433
0.00453518
0.00442503
0.00424868
0.00534829
0.00310059
0.00435523
0.00719611
0.00461506
0.00456132
0.00468819
0.00330297
0.00442891
0.00543333
0.00417981
0.0045592
0.0496574
0.00445795
0.00347182
0.00346595
0.0042152
0.0035075
0.00534344
0.00453007
0.00456653
0.00448642
0.00303313
0.00449675
0.00429202
0.00440839
0.0034529
0.0161605
0.00311956
0.00644968
0.00430031
0.00579147
0.00414817
0.00467564
0.00438495
0.00458678
0.00315745
0.0041395
0.00325262
0.00412128
0.00420885
0.00450952
0.00438563
0.0133664
0.00546831
0.0125914
0.00468828
0.00305592
0.0388059
0.00324303
0.003051
0.00439527
0.00548862
0.0340327
0.00485908
0.00320217
0.00374848
0.00363262
0.00301035
0.00450141
0.0688495
0.00309515
0.0041481
0.00380846
0.00375282
0.0036044
0.00289165
0.00489026
0.00305445
0.0558019
0.0207124
0.00448702
0.00433528
0.0248691
0.0423788
0.0040156
0.00455161
0.00425176
0.00462992
0.00440299
0.00439047
0.00440097
0.00464713
0.0128397
0.0027659