/*--------------------------------*- C++ -*----------------------------------*\
| =========                 |                                                 |
| \\      /  F ield         | OpenFOAM: The Open Source CFD Toolbox           |
|  \\    /   O peration     | Version:  3.0.1                                 |
|   \\  /    A nd           | Web:      www.OpenFOAM.org                      |
|    \\/     M anipulation  |                                                 |
\*---------------------------------------------------------------------------*/
FoamFile
{
    version     2.0;
    format      ascii;
    class       volVectorField;
    location    "0.294156";
    object      U;
}
// * * * * * * * * * * * * * * * * * * * * * * * * * * * * * * * * * * * * * //

dimensions      [0 1 -1 0 0 0 0];

internalField   nonuniform List<vector> 
21246
(
(4.18547 -1.64302 0)
(3.91893 -1.19803 -1.21509e-20)
(4.02788 -1.09448 -5.86432e-21)
(4.05713 -0.910491 6.7212e-20)
(4.047 -0.724121 -5.14363e-20)
(4.00094 -0.554846 2.33536e-20)
(3.92952 -0.414921 -3.93848e-20)
(3.8428 -0.306627 0)
(3.74717 -0.22812 3.45433e-20)
(3.64907 -0.178017 -3.60577e-20)
(3.56119 -0.156093 0)
(3.70928 -1.24028 0)
(3.51513 -0.864309 0)
(3.62136 -0.954255 0)
(3.70638 -0.890675 0)
(3.76871 -0.782194 0)
(3.79652 -0.654427 0)
(3.78845 -0.529795 2.28987e-20)
(3.75073 -0.422309 0)
(3.69188 -0.338064 6.58985e-20)
(3.62104 -0.279173 -1.44649e-19)
(3.55058 -0.247678 1.39875e-19)
(3.5206 -0.932711 3.1656e-19)
(3.38024 -0.643643 0)
(3.42701 -0.780623 0)
(3.49493 -0.780719 0)
(3.56819 -0.743652 2.18869e-19)
(3.62805 -0.673407 0)
(3.6605 -0.585441 0)
(3.66139 -0.496313 0)
(3.63469 -0.41805 1.0082e-19)
(3.5885 -0.357794 -2.09247e-19)
(3.53471 -0.322326 1.91509e-19)
(3.46101 -0.764849 -3.02742e-19)
(3.36625 -0.52875 0)
(3.37163 -0.64911 -2.72082e-19)
(3.40867 -0.666726 5.61137e-19)
(3.46256 -0.668792 -7.45433e-19)
(3.51971 -0.64367 -1.09973e-19)
(3.56411 -0.595041 2.08045e-19)
(3.58505 -0.533521 0)
(3.58014 -0.470825 1.64275e-19)
(3.55343 -0.416568 0)
(3.51378 -0.380285 1.34146e-19)
(3.45014 -0.683488 -2.96477e-19)
(3.39222 -0.483235 1.58647e-19)
(3.37923 -0.580073 -1.21824e-19)
(3.39672 -0.592585 8.58769e-20)
(3.42848 -0.60694 3.94481e-19)
(3.46873 -0.605399 4.47127e-21)
(3.50613 -0.584685 -1.2534e-19)
(3.52991 -0.54821 0)
(3.5344 -0.503526 -1.88763e-19)
(3.51987 -0.459301 -2.49214e-19)
(3.49231 -0.426266 2.63304e-20)
(3.45941 -0.643459 -2.19421e-21)
(3.42622 -0.470764 -3.01238e-19)
(3.40431 -0.557575 -1.02225e-19)
(3.4146 -0.559147 1.35867e-20)
(3.43176 -0.574234 -1.39515e-19)
(3.45533 -0.580878 9.79917e-20)
(3.47922 -0.574723 0)
(3.49602 -0.554985 0)
(3.50039 -0.52498 9.48074e-20)
(3.49071 -0.49062 6.99349e-20)
(3.47014 -0.461608 1.15205e-19)
(3.48844 -0.620622 1.34834e-19)
(3.45879 -0.479299 3.85562e-19)
(3.43054 -0.56357 2.83978e-19)
(3.4398 -0.55344 -9.99213e-20)
(3.44829 -0.567626 8.10614e-20)
(3.45965 -0.575386 -2.4756e-19)
(3.4707 -0.574698 1.01157e-19)
(3.47748 -0.563689 3.63468e-20)
(3.4766 -0.543098 -2.93946e-19)
(3.46618 -0.516321 8.08236e-20)
(3.44665 -0.492114 -1.77983e-19)
(3.51967 -0.632537 -1.27772e-19)
(3.48104 -0.517504 -6.44106e-19)
(3.4584 -0.584473 2.83274e-19)
(3.46499 -0.565593 0)
(3.4666 -0.580142 -1.40277e-19)
(3.46925 -0.586439 1.07406e-19)
(3.47009 -0.58649 0)
(3.46738 -0.578838 0)
(3.45979 -0.563121 2.45614e-19)
(3.44629 -0.541004 -3.75458e-20)
(3.42726 -0.519921 1.31988e-19)
(3.53735 -0.675713 0)
(3.50138 -0.555135 8.91716e-20)
(3.4845 -0.608679 0)
(3.4841 -0.596344 -1.91644e-19)
(3.48119 -0.607164 9.88047e-21)
(3.47782 -0.610218 1.06215e-19)
(3.47087 -0.608822 -1.38624e-19)
(3.46028 -0.601464 9.94164e-20)
(3.44632 -0.587474 -1.09341e-19)
(3.42886 -0.567455 -1.11853e-20)
(3.40791 -0.547702 -1.03137e-19)
(3.55147 -0.724665 2.3572e-20)
(3.52341 -0.592558 7.3671e-19)
(3.50072 -0.643565 1.62076e-20)
(3.49648 -0.635929 -3.73757e-19)
(3.49086 -0.641937 2.8963e-19)
(3.48252 -0.64268 -2.49951e-20)
(3.4695 -0.639435 6.96567e-20)
(3.45259 -0.630832 4.3842e-20)
(3.43305 -0.616611 -7.70353e-21)
(3.41135 -0.596758 -5.59231e-21)
(3.38677 -0.577343 -4.28715e-20)
(3.56682 -0.778292 9.07197e-19)
(3.54195 -0.636916 -2.09728e-20)
(3.5109 -0.686218 -1.57946e-20)
(3.50407 -0.67982 0)
(3.49494 -0.682961 0)
(3.48198 -0.681695 2.13013e-19)
(3.46396 -0.676114 -7.58687e-20)
(3.44184 -0.665519 9.41375e-20)
(3.41752 -0.649911 0)
(3.39219 -0.628749 8.34437e-20)
(3.36543 -0.608231 -3.71442e-20)
(3.57578 -0.837595 8.73138e-19)
(3.55156 -0.689389 -4.7482e-19)
(3.51432 -0.73559 4.95306e-19)
(3.50477 -0.72811 -3.50778e-19)
(3.49214 -0.72869 2.72667e-19)
(3.47523 -0.725271 -1.87567e-19)
(3.4529 -0.717251 -6.72508e-20)
(3.42641 -0.704214 -9.27177e-20)
(3.39802 -0.686297 0)
(3.36955 -0.662913 -8.23902e-20)
(3.3397 -0.640774 0)
(3.57397 -0.896667 -1.047e-19)
(3.55197 -0.743112 -1.5707e-19)
(3.51018 -0.787483 4.58915e-19)
(3.49809 -0.778863 -6.97202e-19)
(3.48235 -0.777368 5.14649e-19)
(3.46191 -0.771875 1.85183e-19)
(3.4358 -0.761398 -2.47394e-19)
(3.40549 -0.745628 3.57646e-19)
(3.37354 -0.724726 -1.35709e-19)
(3.34206 -0.698052 -4.737e-19)
(3.30844 -0.672649 3.09048e-19)
(3.56895 -0.955318 9.04306e-19)
(3.54818 -0.796343 -7.73862e-19)
(3.50065 -0.839742 -4.43506e-19)
(3.48531 -0.830775 9.99826e-19)
(3.46632 -0.827772 -7.57314e-19)
(3.44237 -0.820474 -1.72518e-19)
(3.41259 -0.807569 2.42118e-19)
(3.37863 -0.788778 4.90321e-19)
(3.34331 -0.764258 -2.27475e-19)
(3.30907 -0.733179 1.74179e-19)
(3.27299 -0.703893 -2.79268e-19)
(3.55955 -1.01715 2.31876e-20)
(3.53792 -0.852009 7.56746e-19)
(3.48467 -0.893707 -8.58127e-19)
(3.46601 -0.883619 3.51906e-19)
(3.44365 -0.879167 4.55567e-19)
(3.41615 -0.870185 -1.79927e-19)
(3.38268 -0.854858 -4.6636e-19)
(3.34502 -0.832693 -3.01126e-19)
(3.30637 -0.803905 4.35364e-19)
(3.26964 -0.767425 -4.26138e-19)
(3.2304 -0.732882 3.59515e-19)
(3.54194 -1.07725 0)
(3.52093 -0.907037 -5.60098e-19)
(3.46278 -0.947587 2.28156e-19)
(3.44073 -0.936777 1.49543e-20)
(3.4148 -0.93127 -2.16145e-19)
(3.38338 -0.92082 3.35652e-19)
(3.34579 -0.902969 0)
(3.30417 -0.876894 2.87466e-19)
(3.26219 -0.842974 -2.16112e-19)
(3.22351 -0.800046 2.7276e-19)
(3.18265 -0.758501 1.42552e-19)
(3.52082 -1.13576 7.74586e-19)
(3.50117 -0.960864 -5.45391e-19)
(3.43731 -1.00082 6.35456e-19)
(3.41083 -0.990474 8.89468e-19)
(3.3805 -0.984522 -1.29198e-18)
(3.34419 -0.972882 3.18017e-19)
(3.3015 -0.952164 -3.96435e-19)
(3.25525 -0.921111 2.99841e-19)
(3.20996 -0.880589 0)
(3.17025 -0.830114 0)
(3.12867 -0.782203 -1.59123e-19)
(3.49727 -1.19622 0)
(3.47853 -1.0159 1.06565e-18)
(3.40836 -1.05516 -8.24611e-19)
(3.37655 -1.04575 -2.76633e-19)
(3.34058 -1.03988 4.06429e-19)
(3.2977 -1.02707 2.68829e-19)
(3.24832 -1.00251 -3.66206e-19)
(3.19669 -0.964594 3.16257e-20)
(3.14857 -0.915362 1.82511e-19)
(3.10942 -0.85582 0)
(3.06866 -0.800458 1.31537e-19)
(3.47026 -1.25749 1.84577e-19)
(3.45367 -1.07204 0)
(3.37703 -1.11156 0)
(3.33856 -1.10452 8.15904e-19)
(3.29457 -1.09956 -6.05706e-19)
(3.24213 -1.08495 -7.73868e-19)
(3.18374 -1.05413 2.06326e-19)
(3.12632 -1.006 2.50527e-19)
(3.07695 -0.945138 0)
(3.04111 -0.875242 -1.87067e-19)
(3.00611 -0.809763 5.17982e-21)
(3.44128 -1.31992 -2.00174e-19)
(3.42958 -1.13028 0)
(3.34579 -1.17265 -1.76543e-19)
(3.29735 -1.17083 4.96966e-19)
(3.24034 -1.16734 -3.77478e-19)
(3.17334 -1.14821 -3.4248e-19)
(3.10345 -1.10596 1.68545e-19)
(3.04131 -1.04233 -2.01475e-19)
(2.99437 -0.966584 1.48825e-19)
(2.96561 -0.886255 0)
(2.93975 -0.812354 0)
(3.41482 -1.3892 1.53538e-18)
(3.41221 -1.19668 -1.56555e-18)
(3.31766 -1.24686 9.52096e-19)
(3.25071 -1.25356 4.5733e-19)
(3.17101 -1.24854 -2.72441e-19)
(3.0831 -1.21676 2.88048e-19)
(3.00143 -1.15362 -2.34016e-19)
(2.93939 -1.06781 -2.77358e-19)
(2.90164 -0.974967 1.9918e-19)
(2.88543 -0.885998 0)
(2.87313 -0.807899 -1.01288e-19)
(3.39629 -1.47046 4.63593e-20)
(3.40792 -1.27717 0)
(3.28921 -1.34917 0)
(3.18573 -1.36185 0)
(3.07031 -1.34273 -7.80961e-20)
(2.95928 -1.28234 2.10904e-20)
(2.87291 -1.18588 -7.01218e-20)
(2.82193 -1.07271 7.39743e-20)
(2.80318 -0.964206 -1.57123e-19)
(2.80565 -0.871346 3.01224e-20)
(2.80974 -0.794927 1.06367e-19)
(3.40685 -1.529 -5.88717e-20)
(3.41071 -1.47205 8.83181e-19)
(3.24311 -1.52422 -1.16768e-18)
(3.07213 -1.51611 3.82199e-19)
(2.9161 -1.45073 2.35934e-19)
(2.79523 -1.3345 -1.93694e-19)
(2.72321 -1.19112 0)
(2.69954 -1.04976 1.20001e-20)
(2.70929 -0.931957 -5.18167e-20)
(2.73322 -0.843097 1.97331e-20)
(2.75631 -0.774521 -6.82545e-20)
(3.07632 -2.0539 1.03759e-18)
(3.30036 -1.61349 4.8829e-19)
(3.0423 -1.71612 -3.0193e-19)
(2.84572 -1.6183 2.58754e-19)
(2.70363 -1.45094 -2.09659e-19)
(2.61505 -1.27243 0)
(2.58523 -1.10413 0)
(2.60274 -0.961422 1.41332e-20)
(2.64278 -0.859506 1.93737e-20)
(2.68308 -0.793747 0)
(2.71529 -0.747134 -1.16793e-20)
(5.11263 -1.61285 -1.28896e-20)
(4.83031 -1.32415 2.30884e-20)
(4.66797 -1.033 6.32981e-21)
(4.5209 -0.773979 4.25543e-20)
(4.38073 -0.567171 -3.88734e-20)
(4.23801 -0.402058 0)
(4.09013 -0.26804 0)
(3.9466 -0.165629 3.36277e-21)
(3.80788 -0.0939045 -7.48117e-22)
(3.67625 -0.0534357 1.10914e-20)
(3.56175 -0.0433573 1.30085e-20)
(5.76895 -1.28325 1.58977e-19)
(5.51487 -1.23013 -1.1952e-19)
(5.27199 -1.03425 -3.52801e-21)
(5.02089 -0.757857 1.79572e-19)
(4.78989 -0.477591 3.9857e-21)
(4.57918 -0.24853 -9.99526e-20)
(4.35159 -0.0779484 -6.73035e-21)
(4.12392 0.0175099 -3.59391e-21)
(3.90884 0.0690252 -2.12784e-21)
(3.71825 0.0952323 -2.12771e-21)
(3.56487 0.0985972 -2.64989e-21)
(6.06721 -1.17998 -3.17046e-20)
(5.91779 -1.11709 -3.0437e-20)
(5.71067 -1.00261 3.76717e-20)
(5.45786 -0.777541 -3.88555e-21)
(5.16874 -0.464512 1.05504e-19)
(4.88339 -0.145202 -1.48288e-19)
(4.62252 0.099431 6.15026e-20)
(4.34037 0.259051 0)
(4.02213 0.321878 -6.39831e-21)
(3.7644 0.312597 0)
(3.55962 0.281594 0)
(6.27673 -1.19668 0)
(6.1964 -1.07052 0)
(6.0221 -0.975045 -5.24856e-21)
(5.78952 -0.778095 0)
(5.49839 -0.489765 0)
(5.15736 -0.117963 -3.62206e-20)
(4.82205 0.233561 -1.59996e-21)
(4.49839 0.489905 3.31509e-21)
(4.16234 0.620949 5.16172e-21)
(3.79488 0.605341 1.99193e-20)
(3.52873 0.516867 8.15601e-21)
(6.4512 -1.25447 -8.75635e-20)
(6.42294 -1.07108 2.29142e-19)
(6.27109 -0.9874 -1.72977e-19)
(6.05495 -0.796186 0)
(5.76806 -0.523471 1.34173e-19)
(5.41338 -0.152568 3.22382e-20)
(5.00446 0.275163 0)
(4.60662 0.640791 0)
(4.21531 0.874899 0)
(3.82846 0.937505 -8.83972e-20)
(3.46844 0.825646 6.36452e-20)
(6.59956 -1.31693 -2.92675e-20)
(6.61184 -1.09047 4.35997e-19)
(6.47421 -1.02734 -2.57309e-19)
(6.27131 -0.842876 0)
(5.98932 -0.583762 2.15028e-19)
(5.62364 -0.227318 -2.59207e-19)
(5.17067 0.23616 0)
(4.68925 0.694332 0)
(4.21703 1.03793 -1.8919e-19)
(3.76833 1.2017 5.11211e-19)
(3.36107 1.15409 0)
(6.71778 -1.3733 -2.86091e-19)
(6.76053 -1.12213 2.83336e-19)
(6.6327 -1.08629 0)
(6.44213 -0.914194 -5.94544e-19)
(6.16816 -0.677035 -4.42291e-20)
(5.79845 -0.343728 3.84578e-19)
(5.32313 0.109514 -6.73736e-19)
(4.76071 0.640509 -2.52052e-21)
(4.18983 1.08743 3.73831e-19)
(3.65538 1.36162 -3.60905e-19)
(3.19292 1.41654 0)
(6.80884 -1.42849 2.43234e-19)
(6.86901 -1.16959 0)
(6.74774 -1.1623 0)
(6.56909 -1.0055 -3.78561e-19)
(6.306 -0.798936 6.42682e-19)
(5.94131 -0.499942 -4.57536e-19)
(5.44903 -0.0805036 -5.10908e-19)
(4.82449 0.483734 7.14922e-19)
(4.15212 1.01498 5.37019e-19)
(3.51285 1.38986 5.25494e-19)
(2.97437 1.5601 5.82208e-19)
(6.87674 -1.47829 -1.22511e-19)
(6.942 -1.22458 0)
(6.82251 -1.25039 0)
(6.65403 -1.11076 -5.99589e-20)
(6.40178 -0.942073 7.05107e-19)
(6.04754 -0.689207 -1.25807e-18)
(5.55498 -0.320726 0)
(4.89365 0.200334 0)
(4.12322 0.808461 0)
(3.37251 1.27148 3.17083e-19)
(2.73359 1.52137 -5.70919e-19)
(6.91395 -1.51852 -1.63958e-19)
(6.98232 -1.2848 2.28554e-19)
(6.85797 -1.34677 -2.29968e-19)
(6.69787 -1.22569 0)
(6.45495 -1.10026 4.77669e-19)
(6.11385 -0.902429 -3.63615e-19)
(5.63468 -0.600101 0)
(4.96078 -0.153893 1.18322e-18)
(4.11285 0.477326 -2.82969e-18)
(3.24816 0.995807 -2.01309e-18)
(2.51601 1.3178 -9.94889e-19)
(6.91116 -1.56477 3.72771e-19)
(6.98951 -1.3578 0)
(6.84908 -1.44003 -3.15591e-21)
(6.69805 -1.34747 4.75848e-19)
(6.46323 -1.27053 -8.20677e-19)
(6.13499 -1.1351 7.17078e-19)
(5.67722 -0.91429 -7.26962e-19)
(5.02457 -0.571222 0)
(4.132 0.0194965 1.00043e-18)
(3.1633 0.581659 2.2591e-18)
(2.3406 0.952727 -7.3972e-19)
(6.8727 -1.63208 0)
(6.95041 -1.43142 3.7914e-19)
(6.80498 -1.52149 5.08596e-19)
(6.65394 -1.48705 -1.76571e-19)
(6.42681 -1.45376 0)
(6.10967 -1.3822 -4.31677e-19)
(5.67349 -1.25008 1.05479e-18)
(5.06184 -1.02492 6.72602e-19)
(4.17004 -0.595698 0)
(3.13821 0.0336475 0)
(2.25709 0.433264 1.15082e-18)
(6.80354 -1.67985 0)
(6.85408 -1.51169 1.22056e-19)
(6.72076 -1.61363 -1.84918e-19)
(6.56389 -1.63129 -2.06857e-19)
(6.34115 -1.64594 4.38529e-19)
(6.03387 -1.63689 -1.57646e-19)
(5.61898 -1.58739 0)
(5.0608 -1.47298 -1.70547e-18)
(4.27459 -1.24753 1.14883e-18)
(3.17767 -0.625431 4.99699e-21)
(2.25755 -0.203644 -3.14488e-19)
(6.68644 -1.71448 -1.81702e-19)
(6.7103 -1.59448 -5.41049e-20)
(6.58486 -1.71511 1.54805e-19)
(6.42846 -1.78391 4.96803e-21)
(6.21356 -1.85218 -3.99443e-19)
(5.92062 -1.9058 1.28509e-19)
(5.52912 -1.92947 0)
(5.01274 -1.90336 3.22946e-19)
(4.33142 -1.79195 -5.70987e-19)
(3.42391 -1.42038 3.6035e-21)
(2.34952 -0.914093 6.07692e-19)
(6.51525 -1.7455 -1.18119e-19)
(6.51372 -1.68067 -5.11286e-20)
(6.39388 -1.82467 2.60883e-19)
(6.24391 -1.94464 -9.53605e-20)
(6.04445 -2.07017 0)
(5.778 -2.18861 1.38004e-19)
(5.42771 -2.28411 -1.65133e-19)
(4.97219 -2.33383 1.26682e-19)
(4.3764 -2.30136 0)
(3.59511 -2.11866 -2.64106e-20)
(2.6675 -1.69828 1.34294e-19)
(6.28521 -1.77182 9.57002e-21)
(6.25628 -1.76475 3.95555e-21)
(6.14099 -1.93809 2.45852e-20)
(6.00333 -2.11052 -1.50744e-19)
(5.82927 -2.29468 1.89007e-19)
(5.60351 -2.47634 7.54603e-20)
(5.31261 -2.63739 6.95399e-20)
(4.94082 -2.75118 -4.79551e-19)
(4.46214 -2.77989 0)
(3.84178 -2.67671 0)
(3.07173 -2.38906 3.86108e-19)
(5.98022 -1.79833 -9.98417e-21)
(5.92694 -1.84685 -4.09447e-21)
(5.81919 -2.05541 -3.20915e-20)
(5.70304 -2.28078 3.08374e-20)
(5.56774 -2.52186 -9.70298e-20)
(5.39829 -2.76091 -2.18985e-19)
(5.18231 -2.97775 0)
(4.90722 -3.14482 3.29009e-19)
(4.55317 -3.22808 -3.33513e-19)
(4.09305 -3.20029 -1.291e-19)
(3.51186 -3.0547 -4.4563e-19)
(5.58937 -1.83826 0)
(5.52 -1.93306 9.83443e-20)
(5.42751 -2.17693 -2.14694e-20)
(5.34524 -2.44824 -3.39566e-20)
(5.26354 -2.73489 1.43514e-21)
(5.16533 -3.01561 1.00416e-19)
(5.03738 -3.26901 0)
(4.87006 -3.46787 -3.40088e-19)
(4.64887 -3.58089 4.74452e-19)
(4.35047 -3.58901 -6.70106e-19)
(3.94889 -3.51136 4.82919e-19)
(5.1226 -1.90059 1.47282e-19)
(5.04357 -2.0206 -2.3194e-19)
(4.97078 -2.28151 0)
(4.91725 -2.57068 0)
(4.88243 -2.86731 0)
(4.85251 -3.15133 -1.56557e-19)
(4.81211 -3.40279 -1.36117e-19)
(4.74987 -3.59481 5.09329e-19)
(4.64858 -3.69893 0)
(4.48095 -3.70469 9.49851e-19)
(4.21226 -3.65162 -3.89777e-19)
(4.44773 -1.89213 6.70707e-21)
(4.38209 -1.96531 1.836e-19)
(4.32385 -2.17999 0)
(4.30993 -2.42546 0)
(4.32761 -2.67844 -1.28779e-20)
(4.35927 -2.92193 3.18178e-20)
(4.39173 -3.13459 9.17947e-20)
(4.41039 -3.27828 1.7359e-19)
(4.39127 -3.31469 -1.28559e-19)
(4.29788 -3.23452 0)
(4.08672 -3.08418 -4.8156e-19)
(3.89732 -1.89059 -1.90134e-19)
(3.85422 -1.89501 -1.91152e-19)
(3.80605 -2.06456 -1.282e-19)
(3.7833 -2.25483 -2.81964e-20)
(3.78804 -2.44222 0)
(3.81719 -2.60878 -1.0214e-19)
(3.86473 -2.72693 1.58872e-19)
(3.91461 -2.73179 -3.30129e-19)
(3.93598 -2.54482 4.9843e-19)
(3.85359 -2.2431 0)
(3.5482 -1.91849 1.84213e-19)
(3.47458 -1.9185 3.44827e-20)
(3.40807 -1.85334 3.09851e-19)
(3.34162 -1.98871 9.0186e-20)
(3.30395 -2.12038 7.00246e-20)
(3.28884 -2.22415 -3.33637e-21)
(3.29396 -2.27649 -4.33182e-20)
(3.32094 -2.22934 -2.18738e-19)
(3.33577 -1.97735 5.09168e-19)
(3.27992 -1.55045 -2.69205e-19)
(3.24003 -1.31076 2.50672e-19)
(3.08009 -1.15021 -1.68902e-19)
(3.07134 -2.04 3.14117e-19)
(3.01335 -1.88183 -1.54041e-19)
(2.95351 -1.95727 2.15884e-20)
(2.91221 -2.00186 -5.69003e-21)
(2.87773 -1.97892 -7.48609e-20)
(2.85039 -1.85974 3.84063e-19)
(2.81736 -1.58657 -1.98631e-19)
(2.78425 -1.21772 -3.76461e-19)
(2.81667 -0.985067 0)
(2.83219 -0.868755 0)
(2.79402 -0.805036 -1.3301e-19)
(2.69773 -2.21551 -6.89477e-20)
(2.79464 -1.77061 0)
(2.73685 -1.80712 -5.1136e-20)
(2.69091 -1.71922 -1.84612e-19)
(2.63847 -1.562 1.58072e-19)
(2.58693 -1.3386 3.13369e-19)
(2.56789 -1.10872 -4.41243e-19)
(2.59221 -0.93496 4.53394e-19)
(2.63769 -0.828709 -2.06303e-19)
(2.67631 -0.77099 0)
(2.69576 -0.734836 0)
(0.941119 -5.90693 -3.84913e-19)
(0.835611 -4.24074 -5.17932e-18)
(1.61505 -3.19592 7.15766e-19)
(2.0606 -2.49427 -1.74528e-18)
(2.30832 -1.97468 -1.93385e-19)
(2.44699 -1.56362 -1.83692e-18)
(2.52303 -1.23349 1.97226e-18)
(2.56305 -0.966807 4.56159e-19)
(2.58105 -0.751319 6.73579e-19)
(2.58328 -0.578714 3.77679e-19)
(2.57233 -0.444847 -1.90624e-18)
(-1.68406 -0.75606 0)
(-0.769451 -1.91803 -1.562e-18)
(-0.0343043 -2.1699 2.99492e-18)
(0.742718 -2.08547 0)
(1.32452 -1.83964 1.43121e-18)
(1.73142 -1.54028 -2.06352e-18)
(2.0017 -1.24658 -1.12235e-18)
(2.17883 -0.986045 -7.50152e-19)
(2.297 -0.766711 5.62922e-19)
(2.3766 -0.588488 7.0673e-19)
(2.42304 -0.450462 7.12327e-19)
(-1.4271 0.371442 0)
(-0.747082 -0.409173 0)
(-0.487469 -0.755034 0)
(0.0547172 -1.03766 -1.48313e-18)
(0.616161 -1.15922 0)
(1.12057 -1.13674 1.20185e-18)
(1.5242 -1.01585 8.6266e-19)
(1.82502 -0.851788 -6.09899e-19)
(2.04004 -0.683453 -3.46972e-19)
(2.19031 -0.532306 -3.34868e-19)
(2.28785 -0.409583 2.48734e-19)
(-0.819372 1.0278 9.81588e-19)
(-0.140321 0.394172 -4.2459e-18)
(-0.211889 0.170539 -4.37805e-18)
(0.100311 -0.191314 3.54377e-18)
(0.446787 -0.438337 0)
(0.849678 -0.588806 -6.47965e-19)
(1.23166 -0.63168 -8.38025e-19)
(1.55882 -0.595149 1.0487e-18)
(1.81875 -0.515041 0)
(2.01491 -0.421214 4.41415e-19)
(2.15175 -0.333599 -1.96182e-19)
(-0.174057 1.29697 -5.04928e-19)
(0.440075 0.839191 6.64705e-18)
(0.215897 0.756974 -4.28642e-18)
(0.413997 0.420029 -3.92395e-18)
(0.579229 0.162064 3.28094e-18)
(0.844691 -0.0627493 6.22438e-19)
(1.13473 -0.208439 1.37805e-18)
(1.42129 -0.277771 -2.22118e-18)
(1.67779 -0.286613 9.49309e-19)
(1.89061 -0.258188 -2.06465e-19)
(2.05026 -0.212566 -5.43007e-19)
(0.376546 1.32685 0)
(0.921178 1.05866 0)
(0.635745 1.06389 0)
(0.784841 0.784147 -3.1396e-18)
(0.837046 0.571542 2.67265e-18)
(0.991331 0.345113 0)
(1.18662 0.160852 -1.22543e-18)
(1.40555 0.0310223 2.16851e-18)
(1.62342 -0.042853 -9.03478e-19)
(1.82162 -0.0727378 -1.11313e-19)
(1.97995 -0.0728193 0)
(0.748542 1.26462 3.13023e-18)
(1.28259 1.14452 -3.39245e-18)
(1.01672 1.18532 5.51723e-18)
(1.1184 0.979234 -4.67788e-18)
(1.11764 0.818575 -2.66745e-19)
(1.19964 0.620668 1.96706e-18)
(1.31861 0.439991 0)
(1.47161 0.290338 -1.19074e-19)
(1.64096 0.181457 0)
(1.80933 0.112128 -1.08012e-19)
(1.95448 0.0778174 0)
(0.988338 1.19393 -6.78827e-20)
(1.52244 1.16348 0)
(1.31513 1.22415 -2.4482e-19)
(1.39371 1.07091 4.35054e-19)
(1.37203 0.954883 0)
(1.41377 0.792965 2.49029e-19)
(1.48148 0.633974 2.077e-18)
(1.58223 0.487845 -3.12293e-18)
(1.70588 0.366967 2.2627e-18)
(1.83909 0.275745 -8.22998e-19)
(1.95624 0.21667 0)
(1.17121 1.13755 1.49757e-19)
(1.70132 1.15459 -1.90457e-18)
(1.54081 1.22848 1.91317e-18)
(1.61131 1.10693 -4.20103e-19)
(1.58454 1.02333 7.41402e-19)
(1.60659 0.892984 -3.87085e-18)
(1.64374 0.759885 3.47902e-18)
(1.70842 0.628149 -3.33057e-18)
(1.79569 0.509674 1.01785e-18)
(1.89739 0.410706 0)
(1.99105 0.338582 0)
(1.31655 1.06193 -2.14779e-18)
(1.85638 1.11553 1.60376e-18)
(1.72082 1.20979 -2.25296e-19)
(1.786 1.11045 -1.23307e-18)
(1.75788 1.05203 5.97388e-19)
(1.77055 0.9469 0)
(1.79042 0.837754 0)
(1.83226 0.723488 6.2815e-19)
(1.89376 0.614648 0)
(1.97137 0.517363 1.89591e-18)
(2.0479 0.442801 -9.50207e-19)
(1.40206 0.954009 -1.6831e-18)
(1.96895 1.05754 1.28674e-18)
(1.85776 1.17585 3.49079e-19)
(1.92393 1.09439 -9.22174e-19)
(1.89735 1.05755 9.43262e-19)
(1.90667 0.9726 -7.84155e-19)
(1.91737 0.884085 0)
(1.94548 0.786708 -1.04651e-18)
(1.98962 0.690068 7.96037e-19)
(2.04947 0.59894 5.17334e-19)
(2.10867 0.526613 0)
(1.44115 0.859178 -1.48698e-19)
(2.03233 1.01724 -1.30441e-18)
(1.95335 1.14503 3.14862e-19)
(2.02764 1.07334 -1.38839e-18)
(2.00668 1.05245 1.30595e-18)
(2.01761 0.982401 7.71853e-19)
(2.02468 0.910754 5.76283e-19)
(2.04542 0.828121 -1.85232e-18)
(2.07854 0.743665 7.19441e-19)
(2.12606 0.660351 -1.09451e-18)
(2.17358 0.592618 -7.96141e-19)
(1.4734 0.792002 4.60985e-19)
(2.08306 0.990104 0)
(2.02818 1.12081 9.62977e-19)
(2.10893 1.05406 -2.05742e-18)
(2.09319 1.04481 -1.95977e-20)
(2.10784 0.984824 6.73214e-19)
(2.11449 0.926462 -5.71054e-19)
(2.13208 0.855878 3.10584e-20)
(2.15883 0.782479 1.82379e-20)
(2.19883 0.707123 4.56287e-20)
(2.23933 0.645928 1.44925e-18)
(1.49046 0.718847 -2.04514e-18)
(2.12602 0.949576 1.53046e-18)
(2.09138 1.09524 -2.45888e-18)
(2.177 1.03516 1.23303e-18)
(2.16416 1.03727 4.13371e-19)
(2.18283 0.984334 -6.71145e-19)
(2.19019 0.936803 1.0467e-18)
(2.20705 0.875813 -8.03476e-19)
(2.23037 0.812168 2.42945e-20)
(2.26627 0.744084 1.38348e-18)
(2.30186 0.689583 6.38237e-19)
(1.48042 0.652446 -2.90286e-18)
(2.14322 0.92054 -2.78942e-20)
(2.13851 1.07503 1.22106e-18)
(2.23123 1.02041 -2.50926e-19)
(2.22326 1.03068 8.00388e-19)
(2.24617 0.983078 9.6186e-19)
(2.25488 0.944627 -9.86093e-19)
(2.27233 0.891416 -1.14672e-18)
(2.29399 0.836381 5.8595e-19)
(2.32797 0.774598 -4.2295e-19)
(2.36133 0.726363 -1.2764e-18)
(1.47716 0.60261 9.9205e-19)
(2.15356 0.900213 -1.95354e-19)
(2.17905 1.058 -1.39177e-18)
(2.27599 1.00985 1.9632e-18)
(2.2742 1.02448 -9.66946e-19)
(2.30037 0.981946 -3.11449e-19)
(2.31111 0.950498 0)
(2.32977 0.90418 1.57932e-20)
(2.35122 0.856963 0)
(2.38448 0.801222 4.20375e-19)
(2.41839 0.757501 3.03231e-20)
(1.47518 0.550739 -9.92044e-19)
(2.15804 0.867657 1.76858e-18)
(2.21603 1.03371 -9.2647e-19)
(2.31421 0.999292 9.83605e-19)
(2.31946 1.01714 -5.73992e-19)
(2.34739 0.980945 1.48293e-19)
(2.36042 0.955211 0)
(2.3804 0.915521 3.58695e-19)
(2.40283 0.875344 0)
(2.43608 0.826076 0)
(2.47208 0.785823 2.69e-19)
(1.45523 0.500011 -2.16333e-18)
(2.1436 0.833646 -4.3698e-21)
(2.24099 1.00736 1.10642e-18)
(2.34396 0.988665 0)
(2.35853 1.00839 -9.49027e-20)
(2.3877 0.979517 5.15519e-19)
(2.40325 0.959048 4.4629e-19)
(2.42474 0.926385 -1.27683e-18)
(2.44922 0.892834 3.86566e-19)
(2.48341 0.850114 0)
(2.52188 0.812479 -2.67808e-19)
(1.43213 0.454439 6.91573e-20)
(2.11585 0.799182 0)
(2.25488 0.97813 2.0092e-20)
(2.36522 0.976182 0)
(2.39068 0.997142 9.7825e-20)
(2.42061 0.976858 -7.53215e-20)
(2.43906 0.962382 -2.78112e-20)
(2.46274 0.937765 -6.43739e-20)
(2.49063 0.910858 1.24272e-19)
(2.52729 0.874422 2.10751e-20)
(2.56949 0.838036 0)
(1.41182 0.410565 1.19052e-18)
(2.0779 0.757346 -1.01107e-18)
(2.25763 0.938693 6.23536e-20)
(2.37637 0.955451 0)
(2.41283 0.979656 0)
(2.44428 0.971131 0)
(2.46629 0.965699 3.63887e-19)
(2.49389 0.950864 -5.19541e-19)
(2.52717 0.931076 3.57795e-19)
(2.56814 0.900895 -3.18988e-20)
(2.61482 0.865615 -2.18843e-19)
(1.38886 0.365032 -2.59777e-18)
(2.02417 0.701078 1.09064e-18)
(2.2405 0.88021 8.81587e-20)
(2.36809 0.917578 2.77852e-19)
(2.416 0.952366 -2.09021e-19)
(2.45211 0.961836 6.34745e-19)
(2.48154 0.969484 1.10216e-19)
(2.51699 0.966809 -5.02451e-19)
(2.55869 0.954671 6.89906e-20)
(2.60609 0.93004 -2.05187e-19)
(2.65725 0.896078 4.25803e-19)
(1.37788 0.305119 0)
(1.94764 0.623216 8.09776e-19)
(2.18892 0.792177 -1.82474e-18)
(2.32337 0.855026 9.2015e-19)
(2.3869 0.912184 -2.32816e-19)
(2.43535 0.948138 3.92143e-21)
(2.48021 0.974516 1.19972e-19)
(2.53017 0.985675 -8.84897e-20)
(2.58424 0.981206 1.25803e-19)
(2.64038 0.961087 -2.11961e-19)
(2.69709 0.927186 -4.01265e-19)
(1.21912 0.281741 1.77114e-18)
(1.79925 0.497567 -9.37173e-19)
(2.03453 0.686243 -1.00526e-18)
(2.18806 0.781911 3.25767e-19)
(2.28521 0.872174 -2.72267e-19)
(2.36825 0.935861 -1.89291e-19)
(2.44699 0.979978 -3.99036e-19)
(2.52435 1.00262 -9.31961e-20)
(2.5979 1.0048 6.56527e-19)
(2.66676 0.989867 4.29725e-19)
(2.73058 0.956255 -5.50876e-19)
(2.03586 -0.423458 0)
(1.88525 0.307752 3.89204e-19)
(2.03528 0.436743 0)
(2.12074 0.622412 1.03276e-18)
(2.19453 0.784324 -1.13994e-18)
(2.28093 0.900105 6.14636e-20)
(2.37917 0.973032 5.99233e-19)
(2.47968 1.00885 0)
(2.57367 1.01747 -4.79796e-19)
(2.659 1.00914 -2.62253e-19)
(2.73841 0.991483 7.53115e-19)
(4.76984 -6.33652 -5.71519e-19)
(4.26638 -3.83649 2.1939e-19)
(3.89132 -3.54685 -1.06996e-18)
(3.509 -2.76308 8.2815e-19)
(3.24436 -2.13061 6.30326e-19)
(3.08 -1.62906 0)
(2.97079 -1.24698 0)
(2.88907 -0.952222 -7.06225e-19)
(2.82269 -0.722453 3.31601e-19)
(2.7659 -0.542962 0)
(2.71325 -0.408711 4.09663e-19)
(5.45319 -4.43988 0)
(5.09271 -1.23958 1.9578e-18)
(5.35864 -2.29993 0)
(4.82952 -2.11671 0)
(4.28299 -1.83802 1.01661e-18)
(3.82513 -1.49447 -2.66847e-19)
(3.49167 -1.16415 9.37437e-20)
(3.25503 -0.881734 1.37433e-19)
(3.08273 -0.654539 -2.31386e-19)
(2.95197 -0.478502 -1.39934e-19)
(2.84709 -0.352271 -4.07923e-19)
(4.56073 -2.42392 -3.20911e-17)
(4.75571 0.636716 1.02516e-17)
(5.77092 -0.753176 1.70112e-18)
(5.48423 -0.851416 -1.88218e-18)
(5.01724 -1.00331 3.17596e-19)
(4.47647 -0.974326 3.77317e-19)
(4.0018 -0.842397 -2.80399e-19)
(3.62844 -0.667728 1.04455e-19)
(3.34784 -0.498488 -1.39605e-21)
(3.13834 -0.355503 0)
(2.97785 -0.248496 -6.51705e-21)
(3.28215 -1.20371 1.38004e-17)
(4.05757 1.4984 -1.20358e-17)
(5.48401 0.452251 -1.6174e-18)
(5.44605 0.423954 1.76716e-18)
(5.25816 0.00432425 0)
(4.82129 -0.210057 -1.61082e-19)
(4.35118 -0.303922 -8.64439e-19)
(3.9242 -0.294193 6.13591e-19)
(3.57563 -0.232943 -1.80911e-19)
(3.30586 -0.155245 0)
(3.101 -0.0861422 2.61608e-20)
(2.19057 -0.653988 1.42711e-17)
(3.35766 1.72737 1.94524e-17)
(4.86163 1.20651 -1.44262e-17)
(5.01389 1.3404 -8.18649e-18)
(5.08596 0.871709 6.19622e-18)
(4.82268 0.562677 1.95482e-18)
(4.46188 0.314031 -1.71802e-18)
(4.07097 0.174834 6.51451e-20)
(3.71469 0.115036 4.10556e-19)
(3.41786 0.106966 -3.04283e-19)
(3.18233 0.124987 6.31146e-20)
(1.38453 -0.432874 3.5131e-17)
(2.78145 1.73181 -1.70137e-17)
(4.20329 1.61897 -1.17258e-17)
(4.46818 1.882 9.47968e-18)
(4.695 1.48376 -6.85232e-19)
(4.5823 1.18905 9.95672e-20)
(4.35903 0.877753 2.30826e-18)
(4.05452 0.647872 -2.02761e-18)
(3.74039 0.49144 3.43562e-19)
(3.45426 0.398206 -5.95944e-19)
(3.21628 0.351368 4.78455e-19)
(0.794486 -0.354292 -8.81323e-18)
(2.3177 1.67758 1.52115e-17)
(3.63113 1.83971 -1.07922e-17)
(3.95183 2.18053 -4.84562e-19)
(4.246 1.87354 6.54754e-19)
(4.23036 1.63506 0)
(4.12152 1.32339 -1.57104e-18)
(3.90986 1.05955 -1.66752e-18)
(3.66081 0.846534 1.37594e-18)
(3.41148 0.690485 -1.45282e-19)
(3.19107 0.581933 -5.32652e-19)
(0.353698 -0.344331 -9.90637e-20)
(1.9496 1.61357 -8.1639e-19)
(3.15455 1.95912 8.9799e-18)
(3.50463 2.34264 -1.49551e-17)
(3.81767 2.11278 7.23537e-18)
(3.85402 1.93317 4.52373e-18)
(3.82358 1.64753 -3.30619e-18)
(3.68805 1.38472 2.34841e-18)
(3.50504 1.14796 -1.78613e-18)
(3.30341 0.955297 8.48274e-19)
(3.11036 0.805222 -8.84161e-19)
(0.0275644 -0.358356 -1.41136e-17)
(1.64078 1.549 2.16904e-17)
(2.75173 2.01893 -3.22929e-19)
(3.11895 2.42798 -4.58263e-18)
(3.43004 2.25699 -8.32044e-18)
(3.49124 2.12649 1.63366e-18)
(3.51054 1.87212 2.00091e-18)
(3.43018 1.62589 -1.24422e-18)
(3.30354 1.38555 1.41846e-18)
(3.14962 1.17626 -1.27097e-18)
(2.99542 0.992117 -1.24394e-18)
(-0.218308 -0.371351 4.88902e-18)
(1.36404 1.48731 0)
(2.40038 2.0416 0)
(2.7783 2.46769 5.13486e-18)
(3.08111 2.33957 -5.66267e-18)
(3.15288 2.24767 2.85685e-18)
(3.2039 2.02127 -1.65547e-18)
(3.16181 1.79599 3.86662e-18)
(3.08028 1.56117 0)
(2.96864 1.34929 1.84547e-18)
(2.85193 1.14966 1.06247e-18)
(-0.427902 -0.388836 5.93583e-18)
(1.09267 1.41596 0)
(2.07286 2.03558 0)
(2.46359 2.47098 2.25793e-18)
(2.75996 2.37969 -3.30427e-18)
(2.83814 2.3159 2.5743e-18)
(2.91011 2.11339 -1.73983e-18)
(2.89548 1.9085 0)
(2.8499 1.68255 1.37487e-18)
(2.77456 1.47357 1.06524e-19)
(2.69044 1.27643 -1.80039e-18)
(-0.615707 -0.42311 -9.33463e-18)
(0.83575 1.33276 1.74881e-19)
(1.76483 2.0016 5.88688e-18)
(2.17035 2.44454 -2.06217e-19)
(2.46149 2.38632 -1.48736e-18)
(2.54531 2.34205 6.43918e-18)
(2.6309 2.16018 -6.03991e-18)
(2.6374 1.97251 4.09363e-18)
(2.62013 1.75694 -1.35385e-18)
(2.57577 1.55246 -2.04832e-19)
(2.52233 1.3561 8.19825e-19)
(-0.779363 -0.458286 2.41279e-18)
(0.587001 1.24386 0)
(1.47431 1.94098 -6.28129e-18)
(1.89587 2.39009 -1.74738e-18)
(2.17798 2.3654 1.41358e-18)
(2.27026 2.3343 5.50747e-18)
(2.36593 2.17026 -2.85905e-18)
(2.39053 1.99635 -1.88938e-18)
(2.39672 1.79159 0)
(2.37942 1.59388 0)
(2.35889 1.39297 -9.18216e-19)
(-0.932784 -0.501707 -7.54974e-18)
(0.334191 1.13966 4.92758e-18)
(1.18823 1.85424 5.76736e-18)
(1.62508 2.30773 -2.4052e-19)
(1.90261 2.3182 -2.55776e-18)
(2.00899 2.29623 -1.72012e-19)
(2.1133 2.14858 -1.42298e-18)
(2.15535 1.98545 -1.45239e-18)
(2.18279 1.79116 1.87025e-18)
(2.19013 1.60205 4.4469e-19)
(2.19771 1.4044 -1.55968e-18)
(-1.07977 -0.563463 9.49899e-19)
(0.0836552 1.01787 1.51849e-18)
(0.907088 1.74102 9.85368e-19)
(1.35597 2.19874 0)
(1.63417 2.24494 2.05538e-18)
(1.75821 2.23016 2.83798e-18)
(1.87147 2.09746 -3.28732e-18)
(1.9317 1.94292 2.06506e-18)
(1.98012 1.75865 -1.55718e-19)
(2.01194 1.57852 9.73663e-19)
(2.04402 1.39302 -7.30915e-19)
(-1.21835 -0.633245 2.70017e-18)
(-0.167126 0.880614 0)
(0.625477 1.60102 -1.88355e-18)
(1.08423 2.06151 6.20128e-19)
(1.36787 2.14314 -8.65553e-19)
(1.51273 2.13642 0)
(1.63769 2.01719 2.37161e-18)
(1.71841 1.86988 -8.14928e-19)
(1.78958 1.69565 -1.56657e-18)
(1.84795 1.5245 3.79688e-19)
(1.91129 1.34865 -2.7828e-20)
(-1.3548 -0.713656 -3.37047e-18)
(-0.425807 0.723905 2.70861e-19)
(0.335113 1.43148 -1.92934e-18)
(0.801578 1.89289 2.10686e-18)
(1.09646 2.00821 1.25215e-18)
(1.26651 2.01118 0)
(1.40763 1.90548 -7.86957e-19)
(1.51353 1.76552 0)
(1.6111 1.60245 2.28188e-19)
(1.6974 1.44226 -3.57818e-19)
(1.78976 1.27711 -5.16648e-19)
(-1.49348 -0.813683 0)
(-0.695098 0.542148 -2.85894e-19)
(0.0306393 1.22664 -4.0532e-19)
(0.500973 1.68606 -2.79805e-19)
(0.81092 1.83309 -3.78096e-19)
(1.01068 1.84718 9.12604e-20)
(1.17641 1.75613 0)