/*--------------------------------*- C++ -*----------------------------------*\
| =========                 |                                                 |
| \\      /  F ield         | OpenFOAM: The Open Source CFD Toolbox           |
|  \\    /   O peration     | Version:  3.0.1                                 |
|   \\  /    A nd           | Web:      www.OpenFOAM.org                      |
|    \\/     M anipulation  |                                                 |
\*---------------------------------------------------------------------------*/
FoamFile
{
    version     2.0;
    format      ascii;
    class       volScalarField;
    location    "0.110873";
    object      epsilon;
}
// * * * * * * * * * * * * * * * * * * * * * * * * * * * * * * * * * * * * * //

dimensions      [0 2 -3 0 0 0 0];

internalField   nonuniform List<scalar> 
21246
(
219.068
113.905
19.5936
4.43765
1.39377
0.732785
0.546985
0.482378
0.457785
0.448793
0.445748
343.977
236.143
26.9242
6.61194
1.73946
0.821035
0.560524
0.471878
0.435138
0.416803
0.404394
428.997
257.056
44.2321
8.83704
1.99175
0.910061
0.574546
0.462687
0.414298
0.387074
0.364307
457.827
242.056
52.0852
10.3914
2.14099
0.981069
0.583081
0.453873
0.396234
0.362508
0.333048
448.855
230.735
55.8229
11.258
2.28348
1.03049
0.586769
0.44572
0.381406
0.343833
0.312196
420.225
226.197
60.3671
12.9586
2.54596
1.06641
0.590701
0.439515
0.369908
0.330045
0.298076
377.951
225.727
66.4416
15.7695
3.20867
1.13996
0.599596
0.436123
0.3617
0.320047
0.28739
327.248
227.285
73.2186
19.3932
4.27342
1.31157
0.632234
0.437976
0.356696
0.313293
0.280635
275.987
229.718
81.0946
23.961
5.86998
1.65725
0.703784
0.450453
0.356701
0.309912
0.276724
228.171
232.317
91.4163
30.1168
8.3252
2.32931
0.860118
0.483351
0.362961
0.309541
0.275308
183.715
235.4
103.755
37.862
11.7941
3.48196
1.17459
0.559349
0.380735
0.313205
0.276132
144.663
240.044
117.402
46.8057
16.1913
5.19838
1.73023
0.716001
0.421931
0.323945
0.2798
114.136
245.177
133.243
57.508
21.7677
7.64347
2.64837
1.01768
0.511993
0.349914
0.288499
93.357
249.681
152.158
70.9284
29.031
11.0873
4.10216
1.56645
0.699877
0.410273
0.308649
85.3985
258.699
174.8
87.3098
38.1213
15.656
6.22647
2.47444
1.05661
0.540763
0.355169
93.7968
271.156
202.394
108.33
50.0208
21.8227
9.27897
3.91015
1.69189
0.804767
0.45992
113.743
276.42
232.559
136.275
66.7419
30.6843
13.8189
6.18122
2.79051
1.31477
0.68674
136.366
266.914
256.755
171.007
90.5671
43.9451
20.8319
9.84556
4.68123
2.27069
1.15715
154.892
242.15
261.859
205.961
122.838
64.2443
32.2525
16.0949
8.07198
4.09595
2.1286
168.369
210.758
242.687
226.141
159.083
93.6367
51.1489
27.3119
14.5439
7.78488
4.21445
179.667
180.315
206.784
219.56
186.788
130.25
80.9394
47.6763
27.4637
15.7103
8.98912
218.979
157.954
173.074
196.532
195.676
164.165
120.277
80.9046
51.8478
32.4538
19.9981
241.017
145.704
148.945
163.115
168.556
160.156
137.839
108.415
79.6505
56.2683
38.188
468.377
474.07
470.506
432.519
369.346
298.208
226.474
164.815
117.52
83.311
57.9459
166.638
74.5139
16.6134
3.29749
1.16338
0.685144
0.54314
0.493983
0.479207
0.480903
0.492613
217.186
62.1717
10.5725
3.43018
1.33338
0.749481
0.569381
0.508403
0.491076
0.494647
0.511427
259.207
77.0993
10.07
3.98827
1.5596
0.859577
0.616115
0.529579
0.50242
0.503676
0.52281
271.091
74.6727
9.76763
4.23714
1.60064
0.889282
0.621545
0.519709
0.483959
0.479609
0.495553
267.362
63.5099
9.42796
4.21638
1.60523
0.912359
0.625771
0.512634
0.467767
0.455914
0.46411
259.965
53.2179
9.0205
4.00634
1.55778
0.911845
0.620797
0.50436
0.454332
0.436895
0.437789
252.514
45.5612
8.60234
3.74639
1.49311
0.897144
0.608931
0.49466
0.442718
0.422425
0.418344
244.302
39.9283
8.18158
3.49724
1.43278
0.875975
0.595389
0.484811
0.433103
0.412969
0.409467
238.433
35.8125
7.82935
3.30138
1.3937
0.854814
0.583445
0.475781
0.424693
0.405416
0.403774
235.741
32.9704
7.56787
3.15785
1.3755
0.839422
0.574821
0.468115
0.416862
0.397782
0.39779
236.839
31.2192
7.43919
3.08239
1.37714
0.833262
0.570487
0.462226
0.409413
0.389299
0.390072
240.479
30.1659
7.39711
3.06221
1.39711
0.836694
0.570692
0.458352
0.402375
0.379572
0.378723
246.926
30.2207
7.46551
3.09817
1.44022
0.851444
0.576502
0.457051
0.396154
0.368876
0.363433
254.475
32.8152
8.05192
3.27019
1.54117
0.890525
0.594659
0.4613
0.392698
0.359035
0.347543
263.762
36.6266
9.11476
3.59848
1.71333
0.96451
0.631035
0.474726
0.394268
0.351986
0.332808
275.62
42.0103
10.8465
4.17371
1.99148
1.09394
0.696163
0.503791
0.404532
0.350296
0.321769
290.985
49.3873
13.551
5.16138
2.45085
1.31896
0.812269
0.561749
0.431409
0.359078
0.318336
311.745
59.0291
17.5288
6.80099
3.22835
1.71692
1.0252
0.676742
0.492538
0.389628
0.330231
340.886
71.724
23.283
9.47518
4.57793
2.44582
1.43489
0.912971
0.630239
0.470171
0.376727
383.405
89.2013
31.7364
13.8341
6.96895
3.82999
2.26414
1.42392
0.951713
0.676712
0.512743
449.336
114.831
44.6695
21.0573
11.2771
6.52728
4.0062
2.57842
1.73441
1.22028
0.901534
561.966
155.724
65.9186
33.6168
19.2741
11.8925
7.72801
5.2293
3.66677
2.6628
2.00784
782.78
240.475
110.127
60.0072
36.4238
23.7221
16.2523
11.592
8.56798
6.55414
5.19183
1421.26
446.991
234.479
148.291
103.478
76.0742
59.0433
48.1637
40.7209
35.2957
30.7312
989.499
516.91
276.966
170.849
109.851
62.9931
31.4703
13.6049
5.61658
2.5125
1.24686
860.7
488.078
312.063
203.348
134.452
83.8907
46.0553
20.1722
6.74569
2.57117
1.15278
436.629
368.531
287.398
208.99
147.294
98.7166
59.9374
30.3064
11.3322
3.40321
1.14842
150.15
265.336
243.466
196.294
148.378
105.892
69.6664
39.7875
17.7402
5.87876
1.60746
96.337
165.629
195.458
174.378
140.579
106.077
74.4597
46.699
24.0801
9.45071
2.76403
71.4268
84.0894
144.196
147.76
127.119
100.697
74.5378
50.2753
28.9513
13.1669
4.46619
49.047
47.7152
91.9246
116.519
109.676
91.141
70.583
50.4532
31.5897
16.0971
6.24663
35.7587
28.7903
50.0799
83.1292
89.7584
78.8506
63.6326
47.7154
31.856
17.6693
7.60431
27.2379
20.2814
30.761
54.1042
69.6246
65.4815
54.9887
42.9354
30.1114
17.7592
8.23292
20.7662
14.9656
20.9886
33.9928
50.1515
52.4205
45.8388
37.0412
26.9504
16.5731
8.07999
15.4882
11.1264
14.6542
22.394
33.7534
40.1337
36.9496
30.7376
22.9514
14.4776
7.27685
11.5094
8.38528
10.3925
15.2146
22.4703
28.9362
28.7374
24.5126
18.612
11.89
6.08484
8.74781
6.4609
7.53149
10.546
15.0714
19.9547
21.3493
18.731
14.3705
9.23019
4.78664
6.79096
5.14056
5.69406
7.47827
10.2039
13.4484
15.1061
13.6685
10.589
6.84195
3.5978
5.51794
4.28603
4.51807
5.50391
7.05714
9.00801
10.284
9.57761
7.53868
4.94968
2.67259
4.74439
3.74727
3.78449
4.26664
5.07897
6.13731
6.92135
6.6309
5.38558
3.67234
2.07709
4.26461
3.41776
3.32892
3.49811
3.86892
4.4058
4.88905
4.88141
4.20412
3.06631
1.84073
4.06646
3.24917
3.02164
3.01426
3.17638
3.5426
4.06535
4.38426
4.11303
3.25674
2.08483
4.14259
3.25081
2.8137
2.79158
3.0078
3.6013
4.76358
5.80647
5.85689
4.85106
3.1601
5.38009
3.89944
3.01229
3.15884
3.73689
5.41573
9.11486
12.5253
12.9417
10.8927
6.96554
11.9312
5.52005
3.99674
4.52166
6.4329
14.7051
19.6853
20.6163
19.6884
17.5813
13.939
19.3057
7.56546
6.31916
11.7855
22.215
26.8201
26.5339
24.0443
20.872
18.0868
15.5282
26.1588
29.9318
37.1566
43.5201
41.8848
36.4131
29.5494
22.8897
17.5577
14.0698
12.1701
225.721
138.301
96.4076
68.5209
48.9536
34.5354
23.9189
16.4608
11.8457
9.39477
8.44923
1248.48
369.083
213.031
139.894
90.7999
53.4968
27.6059
12.7754
5.76765
2.7568
1.40596
930.539
259.255
167.125
125.639
91.6362
59.3281
32.7398
15.6904
7.14011
3.4212
1.77812
385.36
151.696
116.021
104.314
89.5879
66.5682
40.6406
20.485
9.33144
4.38994
2.2741
112.834
63.996
64.8132
72.9141
76.2511
67.543
47.7621
26.4797
12.4003
5.73856
2.90917
46.5029
26.8946
31.9538
43.4154
55.1631
59.3259
50.5464
32.6795
16.6129
7.72428
3.85001
33.9139
18.2583
19.0433
25.6133
36.0105
45.4031
46.494
36.3603
21.4249
10.4558
5.05553
30.5053
16.4972
15.3703
18.0512
24.4039
32.6955
38.0348
34.4115
22.8049
11.9313
6.07738
29.1799
16.1232
14.3704
15.2208
18.6208
24.6148
30.7936
31.3714
23.3303
13.0918
7.03699
28.8884
16.2058
14.1785
14.1748
15.8479
19.6785
24.9737
27.7183
23.0157
13.8771
7.80349
29.2231
16.4754
14.3246
13.795
14.4153
16.6258
20.5116
23.8944
21.9413
14.3034
8.30075
29.9996
17.082
14.6921
13.6377
13.5787
14.6512
17.1863
20.2467
20.1784
14.3925
8.5639
31.3095
17.912
15.1878
13.6356
13.024
13.2772
14.7023
16.993
17.8674
14.0873
8.66172
33.2348
18.8866
15.7783
13.786
12.6206
12.2101
12.7729
14.2389
15.3305
13.3004
8.6663
35.6961
20.0191
16.4724
14.0137
12.2939
11.2919
11.1934
11.9792
12.9139
12.0716
8.57045
38.753
21.3724
17.3296
14.3385
12.0397
10.4828
9.87338
10.1665
10.8368
10.6133
8.36884
42.8452
23.0727
18.4677
14.8852
11.9505
9.83724
8.81872
8.7705
9.19565
9.23462
8.09201
48.5415
25.3343
20.1502
15.8857
12.1653
9.44906
8.06477
7.75476
7.97534
8.09664
7.60633
56.7176
28.6241
22.7891
17.5778
12.9254
9.5011
7.67389
7.08787
7.11827
7.22392
7.009
68.2516
33.5723
26.3985
20.2399
14.5606
10.1802
7.6972
6.73966
6.55833
6.59375
6.50775
80.6934
39.1617
31.1411
24.1784
17.2669
11.5824
8.17096
6.70298
6.25031
6.14739
6.05204
97.2088
46.9301
37.4685
29.2893
20.7716
13.5487
9.03583
6.94753
6.17457
5.90281
5.75323
128.795
58.314
45.8772
34.4802
24.0729
15.5533
10.0943
7.40307
6.31467
5.90155
5.73122
191.804
88.0492
54.0859
37.7944
25.9537
17.0596
11.1774
8.02538
6.646
6.10985
5.99356
577.734
103.381
59.9018
37.6865
26.2849
18.1747
12.4843
8.89795
7.29134
6.63238
6.56724
2170.02
725.274
302.044
120.744
43.3577
14.4418
4.69093
1.5182
0.498028
0.172226
0.0681086
1597.26
445.81
215.028
95.3514
37.8697
13.8105
4.74365
1.56771
0.511441
0.172773
0.0664883
975.134
348.559
179.356
89.1745
38.7462
14.9817
5.33038
1.78564
0.578403
0.191434
0.0717744
677.773
264.097
150.862
84.3321
40.2114
16.525
6.13837
2.12374
0.700298
0.230571
0.0843416
495.112
197.811
115.553
69.915
37.0777
16.8246
6.67649
2.38926
0.792451
0.252679
0.087323
401.328
156.241
92.8045
57.3062
31.3723
14.8659
6.12241
2.25919
0.773815
0.257597
0.0931926
340.112
128.971
76.963
47.8565
26.4926
12.7608
5.39835
2.06563
0.736072
0.253957
0.093701
296.567
109.404
65.1204
40.4492
22.4876
10.9354
4.70949
1.85112
0.682039
0.244279
0.0964391
265.02
94.8652
56.0967
34.7113
19.2974
9.43011
4.11255
1.65294
0.628961
0.23429
0.0959047
241.312
83.959
49.2518
30.3632
16.8645
8.26343
3.63584
1.48699
0.581073
0.223257
0.0924904
222.452
75.4572
43.9465
27.0331
15.0136
7.37413
3.26678
1.35401
0.539792
0.211849
0.0899952
208.05
68.58
39.6972
24.4005
13.5694
6.68734
2.98216
1.25014
0.506525
0.20237
0.0872434
197.878
63.1329
36.3383
22.354
12.4713
6.17594
2.77303
1.17436
0.4825
0.195798
0.0861288
190.778
59.0448
33.7831
20.8435
11.6943
5.82871
2.63616
1.12644
0.468103
0.192267
0.0863795
186.989
55.8798
31.7884
19.7151
11.157
5.61247
2.56098
1.10418
0.463375
0.19216
0.0869565
186.659
53.5835
30.3143
18.9452
10.853
5.52895
2.55065
1.10989
0.46963
0.195862
0.088874
189.726
52.4512
29.4095
18.5672
10.8144
5.60278
2.61964
1.15038
0.489662
0.204255
0.0923374
197.444
52.8782
29.2045
18.6073
11.0956
5.89698
2.80933
1.24289
0.529501
0.219803
0.0987122
211.177
55.2185
29.8069
19.0818
11.7007
6.45115
3.17877
1.43932
0.619698
0.257213
0.113279
233.826
60.1733
31.5513
20.1537
12.7144
7.32865
3.78854
1.78648
0.791339
0.334758
0.145037
271.506
69.0977
34.9949
22.094
14.2653
8.6157
4.72599
2.36898
1.10884
0.492669
0.216645
338.777
83.1354
40.8386
25.24
16.5177
10.4226
6.11019
3.31953
1.69226
0.819806
0.385181
464.333
106.792
50.196
30.317
19.9765
13.1024
8.22254
4.89309
2.7727
1.5064
0.791578
728.061
111.806
56.984
35.3894
24.8374
17.5032
11.9818
7.89289
5.0107
3.07804
1.8413
2249.15
1302.81
563.138
238.616
81.2517
24.7718
7.18923
2.09934
0.644849
0.210852
0.0797437
2429.83
1417.2
795.675
405.319
182.328
68.2988
17.2442
3.6937
1.02143
0.312991
0.108746
1440.66
1177.4
824.852
493.104
260.142
116.617
39.1675
8.55217
1.74472
0.493053
0.162421
593.118
1225.4
857.854
547.171
315.087
157.952
63.625
18.1677
3.5814
0.799848
0.258183
652.278
1083.72
865.358
582.683
354.833
191.488
86.8725
30.2038
7.45869
1.49344
0.404284
717.172
932.487
932.625
641.745
395.039
221.12
108.219
43.1778
13.0131
3.00495
0.714066
649.344
694.418
904.769
714.059
444.469
251.118
128.149
56.1203
19.7061
5.39976
1.34988
592.366
534.695
783.149
791.598
512.801
286.606
147.761
68.4404
26.8606
8.55387
2.37279
551.546
453.67
658.765
817.315
590.246
329.877
168.392
80.0678
33.9447
12.211
3.80955
519.977
398.496
561.798
783.871
664.277
380.289
190.701
91.0388
40.5879
16.08
5.61971
494.02
355.284
491.372
712.247
710.213
431.526
213.946
101.266
46.5694
19.9155
7.72292
471.373
320.446
435.671
634.959
717.04
472.984
234.638
109.773
51.5175
23.471
9.96701
455.703
291.515
387.107
561.36
687.856
496.236
248.8
115.449
55.1623
26.5959
12.2569
447.235
267.475
342.697
489.239
627.949
496.489
253.195
117.408
57.3916
29.2501
14.6034
449.834
251.134
303.386
416.987
550.441
472.717
245.383
115.122
58.2499
31.4937
17.0301
461.345
240.408
269.81
347.588
444.479
431.021
226.255
108.659
58.0344
33.6372
19.6397
479.739
232.22
237.248
283.35
338.345
353.624
206.374
100.361
57.5846
36.1206
22.667
509.759
228.614
206.869
224.604
250.967
259.169
187.278
94.6172
58.442
39.8406
26.6763
563.081
234.589
183.44
177.115
184.716
189.844
164.95
99.9772
63.8841
46.6852
32.6907
667.047
260.074
174.947
147.551
143.39
149.529
147.475
117.344
77.6845
57.9321
41.3983
903.795
337.875
212.343
164.67
145.442
142.041
139.355
125.941
91.9353
68.4713
48.7299
1604.2
608.397
451.671
366.08
301.07
263.004
210.763
162.153
115.077
79.2638
51.9475
1168.11
623.401
621.676
447.097
325.939
233.561
160.769
107.841
70.3928
44.95
27.9996
1217.64
649.329
376.983
233.382
149.826
97.5562
63.3421
40.5861
25.5138
15.703
9.44617
94.3736
89.7676
80.1797
66.9424
47.0783
20.6822
5.13837
4.26718
4.86625
29.0276
28.2107
27.6163
27.5269
24.6999
16.4899
7.3444
3.16385
3.73339
15.2801
14.6004
14.8062
16.7787
17.851
14.1218
7.27972
3.40363
4.3527
8.55267
8.48214
8.79275
10.521
12.5852
11.4938
6.87637
3.51189
4.98182
96.592
94.1253
96.5257
91.9267
82.1827
70.5788
54.3267
32.9126
9.09681
30.0617
31.6439
31.1506
30.1882
29.0751
29.2082
27.9458
23.6427
13.938
16.1791
17.2286
16.5281
15.3045
15.2702
17.0876
19.4662
19.6728
14.1851
8.98885
9.79881
9.29347
8.53858
9.00584
10.4495
12.8405
14.8764
13.0099
0.00902533
0.00829465
0.00834765
0.00786073
0.0284335
0.00755457
0.26952
0.00809073
0.00753082
0.00733139
0.0319536
0.00812799
0.0083384
0.0069466
0.0146269
0.00727814
0.00681222
0.00774987
0.00724153
0.00708567
0.00702776
0.173323
0.00852213
0.007527
0.00792186
0.00694854
0.00835033
0.257964
0.217027
0.0174963
0.00690917
0.00855372
0.00696298
0.00806574
0.00865688
0.00826512
0.00752019
0.00790519
0.00704116
0.00758389
0.297515
0.00809742
0.0071091
0.00849747
0.298321
0.64199
0.00727559
0.969377
0.00874365
0.00734795
0.0152088
0.00760154
0.00770183
0.00712999
0.00733641
0.00689823
0.168479
0.00762122
0.247051
0.00676727
0.0866514
0.00762713
0.0423017
0.0507213
0.573408
0.00712581
0.00796266
0.00712947
0.00829738
0.00724448
0.00681517
0.00716896
0.00863272
0.00803541
0.00679599
0.00709974
0.121987
0.00828016
0.15815
0.841125
0.00722943
0.0505786
0.00793141
0.00838055
0.00834672
0.00846877
1.87083
0.00742542
0.150856
0.0073416
0.00809415
0.00765487
0.441959
0.00734982
0.731876
2.08157
0.00675484
0.00765504
0.124446
0.00734814
0.00889131
0.620934
0.00685268
0.0078636
0.0492611
0.0081238
0.0067705
0.00845291
0.00734532
0.0115138
0.00796617
0.00814946
0.00720381
0.0109031
0.00725336
0.00768791
0.00754311
0.00731565
0.0079267
0.00680869
0.0127139
0.00777454
0.0125483
0.00668402
0.534104
0.00833712
0.00703405
0.00677766
0.00683072
0.00702407
0.00777996
0.00677267
0.784732
0.00711049
0.00834309
0.00883454
0.0702546
0.0454774
0.0201612
0.00941746
0.00705678
0.00902126
0.254214
0.00963614
0.00751666
0.0098958
0.0117019
0.00714844
0.00736196
0.00705311
0.00715381
0.00766214
0.0100899
0.0077507
0.00897627
0.00727726
0.00764094
0.160695
0.00685683
0.00746607
0.00727534
0.0340501
0.00715363
0.00771562
0.00804507
0.00742889
0.12401
0.00827294
0.00776621
0.591153
0.00685536
0.00686595
0.00803339
0.00720694
0.00855534
0.00803972
0.0070534
0.011576
0.315012
0.00844319
0.00714899
0.130382
0.00849703
0.0151349
0.00794126
0.0180248
0.00706146
0.0072641
0.00824838
0.168056
0.00731131
0.00684973
0.0071743
0.300975
0.00832509
0.00760036
0.00743852
0.0870316
0.00707853
0.00856741
0.0175893
0.00732476
0.00724585
0.00695155
0.00838781
0.00744429
0.00731619
0.00683048
0.00740742
0.00740001
0.00732724
0.00758918
0.00955118
0.00865526
0.00791094
0.00693425
0.00797817
0.00767729
0.00713102
0.00756342
0.00726271
0.0104098
0.00677238
0.00729078
0.00668009
0.00763696
0.0142451
0.00743326
0.00721913
0.0837607
0.176473
0.00712045
0.007125
0.00775947
0.0108435
2.90227
0.00724569
0.00845075
0.0081451
0.00810203
0.00763811
0.00932661
0.0078171
0.267078
0.0079926
0.037567
0.0080039
0.00698185
1.29172
0.0070867
0.00697932
0.00732758
0.0105988
0.00725557
0.00753026
0.00746995
0.00688992
0.00785694
0.0103675
0.00703498
0.00817973
0.00931701
0.00737416
0.00819738
0.00795994
0.00749995
0.0095187
0.00752896
0.0189306
0.00820582
0.0365061
0.00730564
0.00730141
0.00729685
0.00755823
0.0073594
0.00671245
0.00775819
0.00853994
0.0443796
0.00727087
0.00829083
0.00723081
0.00723997
0.0075689
0.00758434
0.77296
0.00824898
0.00857956
0.00707467
0.00835027
0.215691
0.0089638
0.0069477
0.00856424
0.00743561
0.00778134
0.00816287
0.00868217
0.00672884
0.00775599
0.0224991
0.00898268
0.018927
0.00686071
0.0115747
0.00828304
0.00741829
0.128073
0.00743918
0.327848
0.00817057
0.0108793
0.00695541
0.213669
0.00760417
0.00739405
0.0718658
0.00682084
0.00767908
0.00706205
0.00719269
0.00745939
0.00696421
0.0839985
0.00794762
0.00778085
0.00715918
0.00707541
0.00702054
0.00707144
0.0450246
0.100589
0.00846758
0.00842177
2.38631
0.00769374
0.00824049
0.00784801
0.00755552
0.0199592
0.00733061
0.00728588
0.00747038
0.0265971
0.00740191
0.0070236
0.00753282
0.00756913
0.00708664
0.334011
0.00767186
0.00828543
0.00687546
0.0118379
0.00860272
0.00729514
0.0082753
0.0085016
0.0070146
0.0107135
0.00696451
0.00800476
0.007987
0.00727805
0.140493
0.00677197
0.00727699
0.312967
0.0109754
0.00773586
0.0307542
2.08514
0.00673825
0.0106726
0.00831982
0.0102621
0.00862128
0.00751648
0.0070769
0.00727447
0.0075501
0.0117254
0.00765927
0.00687228
0.00732831
0.0167002
0.0066905
0.00891995
0.167044
0.00769631
0.261053
0.00674538
0.00841106
0.0073846
0.547026
0.00786914
0.00719917
0.00836955
0.00737369
0.010167
0.00764329
0.00850823
0.00706623
0.00707063
0.302327
0.137451
0.00753694
0.00731871
0.0071806
0.00764179
0.00719247
0.00715185
0.00712547
0.00896567
0.0103094
0.0073171
0.00856522
0.00677036
0.191939
0.0153435
0.00715698
0.294795
0.00730109
0.00804223
0.0115467
0.00792598
0.0246768
0.0089881
0.586935
0.00789547
0.0112655
0.00676386
0.00691799
0.00818576
0.00746607
0.00907877
0.0181351
0.00668578
0.0086003
0.00759151
1.9823
0.00705136
0.0178435
0.0070297
0.00744792
0.00682615
0.0370071
0.00740812
0.0287496
0.00773613
0.00833552
0.00793793
0.166612
0.0131327
0.316176
0.00684872
0.019784
0.0218928
0.00825476
0.00739166
0.00704606
0.00677148
0.00746379
0.0073674
0.127584
0.0969691
0.0902243
0.0916648
0.00710038
0.00807676
0.0200468
0.00697498
0.0860392
0.00723145
0.00823685
0.00733982
0.0347635
0.0403254
0.00708909
0.00777943
0.00702485
0.0569517
0.118072
0.00845553
0.00895291
0.103712
0.0102638
0.00747987
0.00740031
0.0227743
0.00759199
0.00713922
0.00762223
0.00694488
0.00727156
0.00713844
0.00687732
0.0100126
0.00747638
0.00715097
0.00713385
0.00806974
0.00806334
1.00031
0.00752261
0.0114455
0.00706734
0.432597
0.00835757
0.00783138
0.0148393
0.180104
0.00741003
0.00897747
0.00737311
0.00738721
0.00685821
0.00778304
0.00768987
0.00684537
0.00828491
0.00768813
0.00818732
0.00768209
0.00727757
0.00799048
0.00744642
0.00853998
0.00772903
0.540391
0.00885757
0.00752878
0.00702912
0.157839
0.00856379
0.00786201
0.00841942
0.312502
0.0433859
0.00794964
0.00790904
0.0066887
0.00835243
0.00702727
0.00831691
0.0073614
0.00840689
0.19818
0.00700951
0.00778222
0.763583
0.00779304
0.00687974
0.00979776
0.00735874
0.00830976
0.00746675
0.0439313
0.00720333
0.00702632
0.401794
2.52384
0.00791679
0.00734636
0.00828619
0.00681253
0.00720216
0.0167602
0.00808608
0.00752086
0.00722472
0.00722317
0.0069318
0.00685505
0.00751274
0.0522721
0.00770998
0.0171162
0.00781779
0.00737525
0.00738304
0.00677426
0.0071351
0.00855336
0.27553
0.00744064
0.00842686
0.00854814
0.632507
0.00763257
0.00747867
0.0104345
0.00739065
0.00677433
0.0197762
0.00734862
0.00696959
0.00773124
0.00790479
1.69959
0.00754009
0.0108068
0.00709448
0.00794767
0.134436
0.00700749
0.00756986
0.00747687
0.00713633
0.00694449
0.00707625
0.00739833
0.0194901
0.00849538
0.0110349
0.00723154
0.00755399
0.00707167
0.00778422
1.51274
0.00730973
0.00754968
0.00756771
0.0673187
0.00686826
0.0073731
0.0202552
0.0083193
0.00881517
0.00746735
0.00696358
0.00941535
0.00675014
0.0069839
0.156083
0.00721912
0.0242419
0.00758867
0.00770657
0.139657
0.00785638
0.00865142
0.00836434
0.0070645
0.0882154
0.00766332
0.00695609
0.010007
0.00677008
0.00709675
1.01617
0.00743826
0.0116519
0.00768891
0.0119569
0.00811937
0.00723403
0.00807412
0.00861267
0.0070273
0.00708438
0.00688911
0.00826058
0.00915693
0.0495
0.0896843
0.00706993
0.00696028
0.00876769
0.00708665
0.00756313
0.191851
0.00716871
0.00698675
0.00715354
0.00770605
0.0074613
0.00849701
0.00693526
0.0149167
0.00694353
1.08412
0.0072988
0.00820739
0.00841724
0.0111664
0.00678569
0.174897
0.00705974
0.00750509
0.0104587
0.00840365
0.00896732
0.00691772
0.00880923
0.00813589
0.00761791
0.00761443
0.00840315
0.00730559
0.00816203
0.00778717
0.00750667
0.00744328
0.00687681
0.00889336
0.011908
0.248982
0.00703487
0.00873191
0.00737333
0.00754735
0.00750433
0.00691861
0.284333
0.00783716
0.0069037
0.00790729
0.00704035
0.361588
0.00864789
0.0244921
0.00694222
0.00723887
0.00920268
0.00682197
0.00752964
0.00823625
0.0071956
0.00718668
0.00732813
0.0111069
0.0113546
0.00682769
0.00676524
0.00771963
0.0074277
0.0303361
0.0541391
0.00802855
0.00695779
0.404654
0.00811597
0.490283
0.00872279
0.00831463
0.00694006
0.00754726
0.00699927
0.00786807
0.00787306
0.00730599
0.00673985
0.00819426
0.00693147
0.00717491
0.00695349
0.00752239
0.00732213
0.00732781
0.00722363
0.0090628
0.503505
0.00781842
0.00676086
0.00842921
0.00734443
0.010498
0.163175
0.00842202
0.00722387
0.00700199
0.00981628
0.00720483
0.00832807
0.00765498
0.00689038
0.0583151
0.00860563
0.00788979
0.00872525
0.108874
0.00727172
0.00732551
0.00820341
0.0069101
0.00961512
0.00813728
0.00821576
0.00838299
0.00787483
0.00763813
0.00698242
0.242975
0.0233022
0.006741
0.00802933
0.00770041
0.0079304
0.00805532
0.00735261
0.00827793
0.00767441
0.00808631
0.367183
0.00736628
0.0303595
0.00907081
0.00714562
0.00771277
0.00781587
0.492859
0.00714189
0.00816419
0.010139
0.00760638
0.00765762
0.00746423
0.00814026
0.0112497
0.439654
0.00835531
0.00815876
0.00676678
0.00735345
0.00729911
0.00732488
0.00842937
0.00718167
0.00765139
0.00705594
0.00736662
0.00829265
0.00688558
0.00811685
0.00736613
0.00825501
0.00671954
0.00755931
0.539086
0.30807
0.00713939
0.00810341
0.0298517
0.00853217
0.00715719
0.0125526
0.00789372
0.00765598
0.00766484
0.0782308
0.00744125
0.00726181
0.00764589
0.00713332
0.00768299
0.00859781
0.00735568
0.00755323
0.00969942
0.00792556
0.00815065
0.00727551
3.28018
0.00754146
0.00711118
0.00853566
0.215814
0.0071074
0.00796513
0.0432166
3.17096
0.00694024
0.00866327
0.00694669
0.00734271
0.00846856
0.00808554
0.00829045
0.00967318
0.00708871
0.00828314
0.00842322
0.00694114
0.00722309
0.00695936
0.00821326
0.00695772
0.0288485
0.00774788
0.00772222
0.007105
0.00831666
0.00769834
0.530965
0.00961467
0.00741449
0.00734911
0.00732579
0.00760631
0.158713
0.00851223
0.00814272
0.00684985
0.00712151
0.0069554
0.00760402
0.0353999
0.00722006
0.00765164
0.00729745
0.00671529
0.0068034
0.0379193
0.00695366
0.00691667
0.0080423
0.00696253
0.117393
0.00702411
0.00811212
0.00696256
0.0097851
0.00778007
0.00723295
0.00753333
0.00830699
0.00740998
0.613081
0.02653
0.0319388
0.00686059
0.00696857
0.00697049
0.573496
0.00801436
0.00942081
0.00708111
0.00759898
0.0175226
0.0079186
0.0073526
0.00694587
0.00754088
0.00830313
0.00806435
0.00845564
0.00763238
0.00731335
0.00931001
0.00709433
0.00780316
0.00727211
0.00933846
0.00826731
0.182119
0.0106423
0.00685691
0.31551
0.00768715
0.200611
0.00832468
0.00750861
0.0069602
0.00829187
0.0232514
0.00821369
0.00714908
0.00783407
0.00781453
0.00868426
0.00771013
0.00741124
0.00809865
0.00734896
0.0069818
0.00747493
0.00813476
2.91352
0.00762842
2.15015
0.00812934
0.0174195
0.0126991
0.0175402
0.00784756
0.00681201
0.00855547
0.00676595
0.0633341
0.00815612
0.010338
0.00672047
0.00827718
0.00737387
0.00706854
0.00778159
0.00735001
0.216111
0.00704747
0.469522
0.00711918
0.007555
0.00725107
0.00829014
0.00806164
0.0857378
0.0244828
0.00735022
0.00743507
0.00757147
0.0117324
0.00674938
0.00809897
0.0100797
0.00856459
0.00681735
0.0108553
0.00832979
0.00709695
0.00722867
0.00677758
0.00802052
0.330155
0.0111599
0.0072524
0.00743102
0.00813649
0.0077221
0.00946555
0.303003
0.00700038
0.00690213
0.00814944
0.109205
0.00796173
0.00695574
0.00795882
0.0075264
0.0108714
0.0068167
0.00696542
0.278535
0.574926
0.599507
0.00694704
0.0102581
0.0241687
0.008388
0.00699538
0.00738692
0.00875609
0.0949479
0.00740484
0.00694031
0.00690129
0.0067277
0.00811761
0.00700725
0.00862611
0.796189
0.00785815
0.00830512
0.207136
0.00752249
0.00790419
0.00745848
0.00734206
0.0492806
0.00738308
0.0217026
0.265753
0.00701521
0.0139164
0.612367
0.00735351
0.00833431
0.007335
0.00784614
0.00687177
0.00692293
0.0169254
0.00895866
0.00713784
0.297989
0.00751823
0.00716753
0.00795754
0.00819045
0.00699459
0.00699834
0.00701792
0.00701322
0.0165058
0.00709086
0.119536
0.210417
0.00864826
0.156732
0.0478511
0.0073415
0.00726606
0.00721696
0.00768373
0.00803729
0.007289
0.00751157
0.00824736
0.00698306
0.00809643
0.00753408
0.00691031
0.00787152
2.15327
0.0120871
0.00758367
0.00721688
0.0128314
0.00683299
0.0069561
0.44765
0.00776209
0.00709761
0.00713789
0.0069162
0.00746103
0.0304156
0.00750404
0.00746965
0.0162616
0.00736306
0.00774734
0.00732349
0.0104592
0.00821945
0.00792767
0.0439005
0.00773245
0.00710116
0.00860268
0.00796762
0.00767356
0.00710615
0.00675693
0.0398574
0.855781
0.00902056
0.0257939
0.0280377
0.00820858
0.0267364
0.00707509
0.00694006
0.148709
0.0335522
0.497195
0.0961099
0.00816016
0.00792842
0.0183455
0.0523286
0.00731534
0.332818
0.00675477
0.00817753
0.00716053
0.00695706
0.00712398
0.0431741
0.00693326
0.00739141
0.0241493
0.00681039
0.00785355
0.0071704
0.0080915
0.126763
0.00817138
0.00742813
0.007267
0.00848403
0.0560347
0.00685539
0.00710168
0.0154073
0.0101102
0.00821691
0.0173659
0.0100224
0.006948
0.0292496
0.0102663
0.00751795
0.301862
0.0227588
0.00836061
0.0067694
0.00730621
0.00733912
0.00714525
0.00806486
0.00768411
0.00705025
0.25931
0.00711464
0.00745602
0.00737847
0.00833693
0.00814666
0.00859551
0.00670946
0.00770418
0.00744191
0.0131355
0.00814549
0.023308
0.17964
0.00698085
0.0225572
0.00801941
0.006847
0.0267421
0.00802023
0.00816353
0.00788133
0.00692862
0.00793473
0.00717749
0.00862006
0.0522038
0.0071633
0.00687146
0.0072808
0.0087711
0.0246634
0.0130758
0.00855537
0.00911897
0.0159022
0.00676268
0.00681657
0.00701682
0.00709383
0.00712862
0.00794981
0.0416
0.00717546
0.0252536
0.00748429
0.00859361
0.00737751
0.00709671
0.00916554
0.00696412
0.00759305
0.0336935
0.00697829
0.165748
0.00670025
0.00750329
0.020304
0.00691094
0.0079527
0.473485
0.00673956
0.00684274
0.00822562
0.00805979
0.00728219
0.0489753
0.0173189
0.00676665
0.114519
0.0956797
0.00789752
0.0071309
0.00685488
0.00679829
0.0116431
0.00811413
0.00773493
0.00839142
0.00745958
0.193767
0.00761306
0.00846421
0.230451
0.0152973
0.00732724
0.00770096
0.00757443
0.00784527
0.00858143
0.0072285
0.00946596
0.00806299
0.00879368
0.00803806
0.00918621
0.00818754
0.00678911
0.00769827
0.0209555
0.00838883
0.00883931
0.14003
0.00707993
0.00703283
0.00780466
0.0069287
0.00749541
0.00826433
0.00823559
0.00700365
0.00741934
0.00774104
0.00772484
0.0212128
0.00700514
0.00858722
0.00848617
0.0094911
0.00788472
0.0068624
0.00885486
0.00965423
0.00801864
0.00698097
0.00752977
0.048884
0.00789888
0.00799651
0.0370083
0.00845199
0.00855266
0.0119747
0.00690342
0.0100851
0.0075518
0.0200855
0.00788761
0.00682209
0.00717866
0.00766643
0.00909546
0.00727148
0.0171656
0.00763373
0.0321274
0.00697208
0.0161412
0.00756618
0.00814056
0.0150689
0.00759028
0.39397
0.00742249
0.00690076
0.00735353
0.00783256
0.00743184
0.00840213
0.0111498
0.0171902
0.00751712
0.00811341
0.00724399
0.00846635
0.00693557
0.00702889
0.00691733
0.00789399
0.0108094
0.0182513
0.0074852
0.0162484
0.00797995
0.00822816
0.00885241
0.873363
0.00697223
0.0106138
0.00727961
0.0321515
0.00820692
0.007043
0.0289741
0.0110447
0.0086615
0.00723294
0.00735095
0.0127257
0.00754555
0.0072203
0.19087
0.00814971
0.00830123
0.00856835
0.00695468
0.00878015
0.00743948
0.00763671
0.00731939
0.00689278
0.0135164
0.0081324
0.00679531
0.0137293
0.00688457
0.00749617
0.00765016
0.00727655
0.034329
0.0137351
0.00695446
0.00845648
0.00735792
0.510963
0.00976931
0.00694254
0.860341
0.00700883
0.0070713
0.00698238
0.00695244
0.00852201
0.00887475
0.00730081
0.00701573
0.076107
0.00706938
0.00759218
0.00888864
0.00677284
0.00749522
0.0092205
0.00704894
0.00729839
0.00730115
0.00855875
0.00742467
0.00748941
0.00687102
0.00702321
0.00696062
0.0118364
0.00795399
0.00719962
0.00693598
0.00756211
0.0083774
0.00736318
0.00702733
0.011105
0.00888786
0.00729825
0.00949183
0.00756784
0.00746658
0.132649
0.00880375
0.00689709
0.392125
0.00784232
0.0070671
0.00968715
0.00699321
0.00809953
0.0106044
0.00747828
0.00674335
0.00709003
0.00853675
0.0075016
0.0362661
0.00676836
0.0298902
0.00780699
0.00752373
0.0136004
0.541101
0.00740952
0.00798994
0.00677531
0.00828566
0.00719633
0.01009
0.00790077
0.0100167
0.00671038
0.00738133
0.00686202
0.00753078
0.0132487
0.0186355
0.00727277
0.00780096
0.00733781