/*--------------------------------*- C++ -*----------------------------------*\
| =========                 |                                                 |
| \\      /  F ield         | OpenFOAM: The Open Source CFD Toolbox           |
|  \\    /   O peration     | Version:  3.0.1                                 |
|   \\  /    A nd           | Web:      www.OpenFOAM.org                      |
|    \\/     M anipulation  |                                                 |
\*---------------------------------------------------------------------------*/
FoamFile
{
    version     2.0;
    format      ascii;
    class       volScalarField;
    location    "0.115565";
    object      epsilon;
}
// * * * * * * * * * * * * * * * * * * * * * * * * * * * * * * * * * * * * * //

dimensions      [0 2 -3 0 0 0 0];

internalField   nonuniform List<scalar> 
21246
(
192.474
89.2294
18.7703
4.35687
1.49881
0.846798
0.644762
0.561348
0.515059
0.479073
0.440828
307.469
196.361
19.2856
5.97838
1.75869
0.914851
0.640028
0.527909
0.465627
0.419024
0.374893
392.701
233.46
25.2936
7.75951
1.90596
0.987239
0.643384
0.506667
0.430318
0.373311
0.3184
433.121
220.126
28.0914
8.55803
1.94287
1.04143
0.643588
0.491533
0.405248
0.341471
0.281045
441.614
203.298
29.5247
8.43886
1.96461
1.06895
0.637447
0.479701
0.387583
0.320863
0.260306
432.546
195.632
31.0508
8.11586
2.00608
1.07429
0.628848
0.470228
0.374999
0.307671
0.248878
409.464
192.874
34.7806
8.29515
2.07349
1.06828
0.622408
0.462547
0.365932
0.298996
0.240785
375.486
193.022
39.1343
9.09733
2.23738
1.0607
0.620307
0.45649
0.359498
0.293579
0.237407
337.421
194.552
44.3505
10.5687
2.58218
1.0922
0.628574
0.45245
0.355479
0.290494
0.235924
298.999
197.551
51.8118
13.1974
3.27699
1.20633
0.656086
0.455365
0.355121
0.289943
0.236424
259.577
202.097
61.2308
17.0939
4.47508
1.47096
0.717211
0.467843
0.358235
0.291083
0.23873
220.783
208.397
71.3281
21.922
6.21573
1.95252
0.839149
0.497504
0.36649
0.294274
0.242054
185.724
215.872
82.9461
28.0056
8.705
2.77537
1.07842
0.56321
0.385281
0.301003
0.246732
155.11
223.53
97.1935
36.0469
12.3098
4.14409
1.53763
0.70593
0.428731
0.315683
0.254118
129.82
233.381
113.664
45.943
17.1079
6.19835
2.33182
0.989134
0.524716
0.348817
0.267862
111.882
245.443
133.537
58.5377
23.569
9.21342
3.6386
1.51915
0.727978
0.424838
0.297844
102.998
258.213
158.2
75.4835
32.6707
13.7206
5.76321
2.4763
1.14031
0.596406
0.368738
106.218
273.18
188.351
98.2074
45.5921
20.4656
9.16251
4.14452
1.9358
0.964855
0.535469
122.945
286.527
222.832
128.974
64.6364
30.9801
14.7647
7.08075
3.45107
1.73334
0.918124
149.96
289.306
254.166
168.012
92.9793
48.1043
24.5035
12.5011
6.43197
3.35547
1.79107
178.737
275.734
268.088
207.77
132.101
76.0575
42.1842
23.1454
12.6886
6.98171
3.87082
215.573
245.625
255.585
231.716
175.524
117.535
73.5225
44.4466
26.4338
15.616
9.18686
223.757
220.02
211.073
209.478
188.777
152.031
111.821
77.3781
51.5166
33.6235
21.511
555.374
368.688
360.99
318.41
254.949
194.765
144.788
105.49
75.6436
53.7177
37.5343
152.824
69.327
17.9951
3.70687
1.34561
0.828701
0.671428
0.61139
0.584713
0.570367
0.55938
228.816
76.0066
11.0055
3.58869
1.54286
0.943885
0.740082
0.666828
0.641378
0.635035
0.636237
272.822
88.9295
9.68155
3.797
1.63382
1.04257
0.831241
0.754917
0.732098
0.735448
0.752858
283.1
80.5515
9.05757
3.94821
1.62524
1.04206
0.823907
0.753813
0.747424
0.774337
0.82327
276.664
65.617
8.49531
3.80299
1.56246
1.02267
0.800792
0.728417
0.720483
0.74907
0.804305
266.774
53.3192
7.90701
3.51191
1.47851
0.991426
0.769554
0.694317
0.680672
0.704928
0.759712
257.418
44.5628
7.343
3.20511
1.39468
0.955127
0.734958
0.657453
0.634726
0.646102
0.682
247.725
38.2569
6.81007
2.92962
1.32011
0.915854
0.700823
0.621066
0.588519
0.584236
0.59502
240.917
33.6814
6.3587
2.70768
1.26342
0.877391
0.669802
0.587492
0.546896
0.531065
0.527947
237.883
30.4794
6.00431
2.53815
1.22443
0.844667
0.643435
0.558289
0.511615
0.487743
0.474439
239.349
28.4531
5.77469
2.42684
1.20172
0.820918
0.622905
0.534465
0.483274
0.454565
0.436566
243.764
27.1939
5.63113
2.3618
1.19389
0.806454
0.60866
0.516378
0.461637
0.430277
0.412218
250.779
27.409
5.61511
2.34657
1.20465
0.802143
0.60169
0.50423
0.446228
0.412918
0.396352
259.173
30.2054
6.14397
2.44367
1.26149
0.817694
0.607063
0.500006
0.437753
0.401914
0.386246
269.555
34.3115
7.17175
2.6804
1.37107
0.859216
0.627289
0.505505
0.436651
0.396844
0.379788
282.739
40.1206
8.91047
3.15377
1.56587
0.942516
0.669443
0.524873
0.444714
0.398186
0.376438
299.644
48.1012
11.6903
4.04299
1.92139
1.10199
0.750222
0.567205
0.466898
0.408585
0.377895
322.168
58.5718
15.8442
5.61249
2.5835
1.41183
0.908721
0.654065
0.515818
0.435601
0.389053
353.312
72.3982
21.9293
8.28129
3.82733
2.0347
1.23999
0.841355
0.625803
0.501054
0.425277
398.07
91.452
30.9848
12.7664
6.16423
3.31681
1.97229
1.27789
0.895082
0.671347
0.533269
466.372
119.386
45.0704
20.4202
10.5685
5.97465
3.63104
2.34556
1.60144
1.15046
0.865315
580.707
164.354
68.8744
34.269
19.1356
11.5454
7.38629
4.95331
3.45984
2.50728
1.87986
800.09
259.27
120.382
65.0207
38.7435
24.7164
16.6088
11.641
8.46059
6.35172
4.9098
1205.75
478.849
266.201
168.771
115.366
83.6945
63.7155
50.3844
40.9635
33.9756
28.3556
1252.23
570.168
221.028
99.7641
45.6641
19.8923
8.52562
3.8894
2.00414
1.21861
0.925604
1269.36
642.173
321.606
158.427
75.8022
33.3185
12.4887
4.83589
2.22838
1.2654
0.943895
878.552
534.522
338.998
195.299
105.016
51.3549
21.7057
8.09816
2.89844
1.38669
0.949634
440.985
400.381
309.214
207.307
125.743
68.8462
33.1877
13.8581
5.06295
1.91907
0.990038
168.993
279.883
261.145
201.953
137.719
83.833
45.3742
21.5646
8.89453
3.32728
1.33593
82.3031
186.684
212.831
186.426
141.217
94.8346
56.8519
30.3244
14.2428
5.89173
2.25725
67.6268
114.447
167.811
165.606
137.714
100.829
66.0302
38.8526
20.4397
9.52139
3.93151
50.2934
59.9787
119.541
139.935
128.637
101.663
71.7213
45.788
26.4687
13.7176
6.27854
35.4155
33.2562
71.5053
107.414
114.002
97.5595
73.424
50.1583
31.3329
17.7619
8.95675
25.6419
19.7749
37.5594
72.8124
93.9351
88.7274
71.1391
51.5191
34.3322
20.9652
11.4809
19.945
13.7139
22.2742
44.8219
70.9136
76.0187
65.3007
49.896
35.1481
22.8421
13.379
16.3654
10.5805
14.5949
26.6719
49.1905
61.3847
56.9328
45.8034
33.8926
23.2119
14.3539
13.7139
8.60726
10.7666
17.4539
31.6248
46.5894
47.2981
40.0599
31.0122
22.1947
14.3097
11.4469
7.08742
8.19136
12.4187
20.5953
32.3939
37.4021
33.4425
27.0287
20.0717
13.3079
9.45501
5.89858
6.32141
9.00882
13.9706
21.4654
27.5586
26.606
22.4136
17.1687
11.6031
7.92038
4.99514
4.9554
6.66566
9.63473
14.1384
18.8963
20.0118
17.6539
13.9229
9.5431
6.76812
4.35145
3.98222
5.03635
6.72171
9.302
12.4014
14.1841
13.2929
10.8741
7.57599
6.18207
3.99299
3.37526
3.95199
4.83835
6.25977
8.156
9.87284
10.0558
8.75737
6.38396
6.3364
4.03655
3.10852
3.37524
3.84301
4.71255
6.05573
7.77728
8.82353
8.45717
6.63082
8.43461
4.73878
3.31598
3.38478
3.73535
4.55725
6.04734
8.3772
10.1328
10.5155
9.14198
12.3929
5.80412
3.92425
3.90405
4.43379
5.76553
8.68716
11.6149
12.978
13.0599
12.1159
17.4405
7.30254
4.7962
5.10717
6.59281
9.39356
12.505
13.5774
12.8406
11.51
10.0958
20.9302
8.49206
8.19718
10.3409
13.6711
15.8623
15.6556
13.8266
11.4552
9.26915
7.62636
69.1945
40.4444
31.7043
27.1282
23.0312
18.9725
15.0356
11.5356
8.77089
6.86334
5.70146
1474.65
374.613
174.724
81.5523
37.2453
16.8206
7.71703
3.74079
1.9976
1.22943
0.922547
1246.7
328.756
158.451
82.1748
41.1741
19.772
9.2892
4.44691
2.28188
1.32245
0.920228
930.998
304.789
154.088
87.3763
48.0631
24.7408
11.9954
5.68591
2.78815
1.50156
0.951609
619.466
231.516
129.43
84.6054
53.4312
30.5353
15.7287
7.55512
3.5971
1.8122
1.03628
404.657
165.978
101.607
73.0775
53.2275
35.6692
20.7578
10.587
5.02731
2.40904
1.26986
260.779
114.574
77.1376
60.2159
48.2993
36.6482
24.6248
14.2895
7.3553
3.54679
1.70512
163.428
76.6257
56.6695
48.0596
42.1286
35.209
26.0773
16.4697
9.01799
4.53775
2.24947
100.512
49.9399
40.4473
37.3144
35.65
32.5774
26.4029
18.117
10.6026
5.6108
2.90879
63.2326
32.4936
28.4945
28.518
29.5558
29.3339
25.8625
19.2341
12.0446
6.68951
3.5468
42.4887
21.9584
20.4137
21.8678
24.2848
25.9177
24.7006
19.8436
13.2736
7.7329
4.2445
31.5674
16.2159
15.4926
17.2678
20.0269
22.6004
23.105
19.9723
14.2343
8.69037
5.01211
26.0887
13.4352
12.8097
14.3701
16.8765
19.609
21.1246
19.6183
14.8807
9.48012
5.69681
23.6701
12.3583
11.5404
12.6846
14.6701
17.0953
18.966
18.6127
15.1349
10.1505
6.26552
22.89
12.2166
11.0957
11.7806
13.1665
15.0458
16.8181
17.1523
14.8049
10.5252
6.7447
23.0834
12.5469
11.1077
11.3515
12.1481
13.3925
14.7869
15.4078
13.9817
10.5317
7.00064
23.9821
13.1495
11.383
11.2023
11.4458
12.0507
12.9296
13.5367
12.7844
10.1933
7.06644
25.5688
13.9776
11.8527
11.2461
10.9698
10.967
11.2897
11.6902
11.3599
9.56153
6.98696
28.105
15.0739
12.5291
11.483
10.711
10.1386
9.91291
10.0034
9.86968
8.72646
6.76068
31.9083
16.5319
13.4741
11.9754
10.7263
9.60964
8.85131
8.58377
8.47189
7.80175
6.44473
37.3147
18.4959
14.8041
12.838
11.1219
9.46345
8.16818
7.50994
7.29031
6.89773
6.01322
44.9655
21.3149
16.7175
14.2242
12.0115
9.78747
7.93025
6.84075
6.4161
6.12146
5.57205
57.8069
25.5904
19.7003
16.3319
13.4418
10.5934
8.16138
6.60354
5.88859
5.54715
5.17355
76.9837
35.0345
24.4577
19.1931
15.1975
11.707
8.79364
6.79782
5.73377
5.22487
4.90271
176.634
44.8341
30.7546
21.8809
16.805
12.9385
9.79748
7.48865
6.0537
5.26958
4.84448
1448.64
476.381
212.961
95.4672
39.0318
14.2374
4.95776
1.71613
0.599219
0.216248
0.085856
1159.6
323.11
163.841
79.2149
34.2909
13.3993
4.88237
1.7106
0.592718
0.210829
0.082658
746.015
258.194
138.952
74.0419
34.7011
14.3005
5.3588
1.88478
0.640517
0.220559
0.0845253
512.671
206.587
120.607
69.038
34.7207
15.1422
5.89801
2.13262
0.737006
0.253786
0.0954563
365.721
151.42
93.4206
59.6682
33.3611
15.854
6.51259
2.42219
0.846677
0.287127
0.101733
292.598
119.326
74.7981
49.0117
28.7462
14.469
6.26271
2.41256
0.861665
0.298638
0.110649
248.024
98.6695
62.3099
41.1211
24.3626
12.5098
5.59602
2.24678
0.835728
0.298613
0.111393
217.256
84.2828
53.1201
35.0706
20.9188
10.8893
4.97583
2.05407
0.788443
0.291085
0.115252
195.072
73.681
46.1364
30.3733
18.149
9.52072
4.41601
1.86509
0.737864
0.281962
0.114917
178.203
65.7024
40.8227
26.7945
16.0166
8.44201
3.9575
1.70118
0.689751
0.270692
0.111171
164.638
59.4516
36.6952
24.0436
14.3842
7.6112
3.59705
1.56688
0.646747
0.258402
0.108691
154.436
54.3998
33.3941
21.8674
13.1056
6.96464
3.316
1.46038
0.611285
0.247843
0.105579
147.287
50.4033
30.7855
20.1739
12.1308
6.48137
3.10881
1.3825
0.58566
0.240596
0.104502
142.118
47.3955
28.8006
18.9232
11.4411
6.15465
2.97486
1.33428
0.570727
0.236865
0.104966
139.443
45.0802
27.2631
17.9948
10.9678
5.95481
2.90474
1.31404
0.566682
0.236933
0.105097
139.275
43.4187
26.1429
17.3717
10.708
5.88599
2.90325
1.325
0.575176
0.241273
0.106726
141.342
42.4969
25.4714
17.0847
10.6938
5.97405
2.98648
1.37502
0.599459
0.250999
0.110151
146.939
42.5675
25.3119
17.1626
10.9431
6.24298
3.17411
1.47568
0.645187
0.268584
0.116394
157.172
44.0828
25.7774
17.6145
11.5326
6.78787
3.54145
1.66924
0.731692
0.302301
0.128841
174.178
47.5392
27.1274
18.563
12.4883
7.63711
4.14087
2.01133
0.898735
0.375568
0.157859
202.531
53.9987
29.7933
20.2235
13.9115
8.85692
5.04223
2.57278
1.20212
0.523591
0.223101
253.654
64.4843
34.3583
22.8244
15.8923
10.5031
6.32391
3.45675
1.74126
0.821172
0.372511
348.396
81.6812
41.2595
26.8583
18.7759
12.8155
8.18439
4.85596
2.69922
1.42124
0.718949
574.502
87.6933
49.6146
30.7721
22.5091
16.3168
11.2886
7.39201
4.6013
2.74319
1.58339
1451.98
801.203
388.247
183.47
80.1104
24.5563
7.76172
2.42949
0.793476
0.271689
0.103115
1444.17
848.745
524.447
295.67
152.65
65.5923
22.7986
5.10087
1.28692
0.408145
0.143316
604.081
714.399
540.343
354.88
210.019
107.859
46.0112
14.2413
2.93799
0.67224
0.220811
450.794
661.156
550.301
391.995
252.904
144.851
71.2395
27.7601
7.68558
1.51546
0.3712
474.276
472.23
562.193
433.598
292.938
178.693
96.3866
43.6641
15.3054
3.85486
0.80307
438.85
350.212
496.249
490.726
346.713
216.684
122.657
60.9955
25.1052
7.93551
1.93738
410.521
288.473
395.949
516.838
419.858
268.548
154.075
80.2047
36.4704
13.5984
4.0182
386.165
250.719
318.197
466.405
491.17
340.237
196.275
103.099
49.2717
20.45
7.05104
368.362
223.919
269.842
395.311
510.809
416.219
250.031
131.303
63.7609
28.1475
10.8475
355.821
201.064
232.279
332.988
469.595
470.54
308.734
164.226
79.8363
36.3505
15.1117
348.827
181.41
202.058
282.844
409.022
481.51
356.673
196.854
96.0495
44.4568
19.4901
346.888
167.809
177.951
239.406
346.268
449.136
380.696
221.056
109.143
51.2962
23.4521
351.764
158.586
159.129
203.114
288.231
393.043
375.245
229.558
115.489
55.5113
26.4531
363.282
154.002
145.287
173.839
236.275
328.906
345.275
219.952
113.171
56.2611
28.2477
383.948
156.006
136.484
151.268
191.598
258.156
301.65
194.981
102.691
53.8009
28.9198
412.363
162.227
130.369
132.384
154.5
190.414
221.004
168.369
87.6882
49.3185
28.8737
451.331
173.589
126.847
115.412
121.535
136.752
148.257
134.185
77.3663
45.1134
28.5673
508.517
193.256
128.542
103.368
97.1657
101.254
106.94
104.412
72.5047
44.2703
29.4541
599.716
226.95
140.57
100.847
85.1042
83.7501
87.6827
88.8827
74.0371
50.9886
32.7214
760.669
287.792
176.241
118.595
91.7656
86.2453
89.5801
92.332
85.1764
64.8984
38.8607
1086.57
420.104
286.451
208.847
165.074
151.21
148.06
139.897
124.335
86.1996
54.0887
1558.13
646.165
494.373
397.194
304.89
231.792
183.586
138.358
100.032
67.9222
43.9015
1216.36
596.502
486.481
347.088
246.501
171.012
117.318
78.8948
51.9062
33.3842
20.8449
1040.26
535.962
310.093
191.641
122.987
80.0919
51.976
33.17
20.6547
12.5046
7.34869
79.5572
79.2408
76.2154
69.3102
58.2911
40.81
17.8568
5.28396
4.58352
25.0772
24.4838
24.0814
24.2173
24.3061
21.6951
14.3648
6.58011
3.2338
13.437
12.8127
12.3857
13.1432
15.1493
15.9615
12.4233
6.55006
3.47827
7.2591
7.12888
7.07582
7.92499
9.69218
11.4499
10.2866
6.12674
3.63947
82.0211
94.4601
90.0093
81.3303
69.9779
54.6044
34.2176
10.0849
5.27524
27.508
30.5875
29.5621
28.1633
28.0363
27.0608
23.5198
14.7521
4.39312
14.8453
16.3023
15.2114
14.5189
15.9109
18.3461
19.2806
14.7524
5.15398
8.13759
9.20339
8.62093
8.4748
9.60705
11.9039
14.3576
13.2839
5.82753
0.00902312
0.00829358
0.00834693
0.00817654
0.0365128
0.00754594
0.254264
0.00810176
0.00752037
0.00708316
0.0425055
0.00813847
0.00837707
0.00685082
0.0146247
0.00727962
0.00671058
0.00800918
0.00724343
0.00708774
0.00682291
0.176801
0.0085209
0.00746606
0.00792197
0.00684538
0.00838192
0.246539
0.0952421
0.0204091
0.00681291
0.00846147
0.00685151
0.0080681
0.00862976
0.00826332
0.00744761
0.00790503
0.00692142
0.00757355
0.211771
0.00809983
0.00707611
0.00849645
0.323944
0.855782
0.00728528
1.35717
0.00849126
0.00737115
0.0177086
0.00759282
0.00746443
0.00709374
0.00735091
0.00676242
0.160627
0.00761278
0.107663
0.00669712
0.0772391
0.0073917
0.0496155
0.0588757
0.402783
0.00712876
0.00831052
0.00724947
0.00829562
0.00703466
0.00676799
0.00711821
0.0091915
0.00777947
0.00678434
0.00706868
0.149752
0.00828215
0.1473
1.06227
0.00712336
0.0585106
0.00793164
0.0083812
0.00831374
0.00895679
1.30037
0.00721182
0.152261
0.00725706
0.00809559
0.00764847
0.313265
0.00735872
0.95402
2.1613
0.00672036
0.0074743
0.137173
0.00725829
0.00887309
0.921875
0.0067908
0.00786546
0.0591722
0.00812902
0.00666256
0.00845316
0.00724496
0.0107757
0.00797053
0.00815189
0.00720109
0.0126865
0.00726447
0.00768716
0.00753151
0.00731914
0.00793565
0.00674343
0.0151148
0.00758349
0.0118639
0.0065879
0.636981
0.00809139
0.00696854
0.00666703
0.00674037
0.00694634
0.00777998
0.00670452
1.12593
0.0070724
0.00834003
0.00880609
0.078854
0.0523089
0.0229485
0.00903306
0.00702133
0.00809503
0.253883
0.00939396
0.00750595
0.0106335
0.0118225
0.00723949
0.0071571
0.00706782
0.00718173
0.00766223
0.010995
0.00755048
0.00990506
0.00712996
0.00777044
0.145641
0.0068031
0.00746868
0.00721726
0.0415212
0.00710698
0.00771263
0.00848937
0.00732732
0.118659
0.00762643
0.00763399
0.421092
0.00675944
0.00677864
0.00792288
0.00695454
0.00842243
0.00801503
0.00695861
0.0129745
0.340181
0.00842295
0.00723107
0.139881
0.00849761
0.0198289
0.00795123
0.0225293
0.00709552
0.00726956
0.00824935
0.161753
0.00720915
0.00673027
0.00717674
0.219
0.00832337
0.00760034
0.00743478
0.10345
0.00699974
0.00856741
0.0192943
0.00735456
0.00713704
0.00685695
0.00838565
0.00724073
0.00734
0.0067373
0.00741212
0.00740097
0.00722514
0.00758854
0.00933709
0.00854295
0.00791327
0.00674275
0.00798204
0.00770577
0.00717144
0.00757362
0.00716543
0.0119307
0.00674705
0.00731285
0.00657413
0.00762914
0.0181269
0.00730853
0.00713066
0.0901937
0.165897
0.00712251
0.00715532
0.00754889
0.0119758
2.39109
0.00720809
0.00845053
0.00815335
0.00811055
0.00766548
0.0107205
0.00781144
0.213077
0.00805031
0.0460457
0.00800608
0.00689178
1.82162
0.00696221
0.00688779
0.00722854
0.0112291
0.00726158
0.00762309
0.00746208
0.00678232
0.0078563
0.0109553
0.00706991
0.00815576
0.00931318
0.00737521
0.00820105
0.00796365
0.0075326
0.00848118
0.00831927
0.0189949
0.00820211
0.0508023
0.00731995
0.0073305
0.00731393
0.00756173
0.00736116
0.00663068
0.00776167
0.00814561
0.0538586
0.00719268
0.00829173
0.00712126
0.00719116
0.00766232
0.00758714
0.423619
0.00825482
0.00826314
0.00701689
0.00835186
0.218338
0.00818694
0.00683846
0.00856539
0.00743515
0.00763951
0.00816765
0.00862655
0.00665659
0.00775852
0.02645
0.0088335
0.0218846
0.00678871
0.0109751
0.00828564
0.00726638
0.128919
0.00743639
0.286116
0.00817339
0.0107771
0.00684377
0.258491
0.00723895
0.00737946
0.0760592
0.00674564
0.00758649
0.00708854
0.00713248
0.00745878
0.00692535
0.0881513
0.00740557
0.00778141
0.00712681
0.00707642
0.00683287
0.00732983
0.0542132
0.120183
0.00846361
0.00850701
2.43106
0.0078509
0.00824379
0.0078524
0.00739305
0.0203913
0.00723803
0.00732517
0.00734539
0.0370994
0.00725739
0.00695036
0.00753095
0.00751889
0.00700707
0.294508
0.00748455
0.00828254
0.00682777
0.0119199
0.00860271
0.00720281
0.00802768
0.00850068
0.00683924
0.0107691
0.00684293
0.0080084
0.00798749
0.00727378
0.13328
0.00668049
0.00710415
0.281831
0.0102985
0.00773871
0.0385826
2.32203
0.00668048
0.0107445
0.00832249
0.0103184
0.00860113
0.00752106
0.00709298
0.0071547
0.00755252
0.0128607
0.00765273
0.00674554
0.00735678
0.0198655
0.00658128
0.0100757
0.154262
0.00769683
0.262318
0.00664075
0.00793127
0.00741646
0.377358
0.00787083
0.00721388
0.00836601
0.00724915
0.0107208
0.00764257
0.0085052
0.00699892
0.00697157
0.218928
0.12809
0.00740429
0.00734662
0.00712211
0.00722303
0.00719493
0.00705002
0.00702505
0.00946758
0.0104232
0.00721044
0.00815009
0.00666215
0.190441
0.0183242
0.00707474
0.270255
0.00719271
0.00803363
0.0106826
0.00768612
0.0247066
0.00860689
0.460097
0.00789714
0.0123071
0.00669344
0.00677392
0.00849001
0.00733135
0.00945751
0.0201523
0.00659284
0.00860012
0.00755772
1.43138
0.00709863
0.0211832
0.00688708
0.00729606
0.00668782
0.035289
0.00741347
0.0344812
0.00773799
0.0083363
0.00794217
0.155485
0.0133666
0.291447
0.0067566
0.0218011
0.021982
0.00825625
0.00739791
0.00698012
0.00670886
0.00753338
0.00707064
0.127519
0.0971284
0.0902244
0.0916648
0.007317
0.00809247
0.0236318
0.00698052
0.077063
0.0069949
0.00824276
0.00734946
0.0347657
0.0485022
0.00712094
0.00777745
0.00682961
0.0650299
0.133413
0.00845528
0.00932791
0.107946
0.0100348
0.00731859
0.00740331
0.022633
0.00759276
0.00695628
0.00761379
0.00684808
0.00725839
0.00714133
0.00683835
0.00985937
0.00821687
0.00710551
0.0071005
0.00808012
0.00806382
1.55983
0.00739568
0.013108
0.0073316
0.624722
0.00835786
0.0080247
0.0149628
0.164947
0.00730538
0.00898374
0.00737956
0.00726932
0.00681079
0.0077838
0.00768158
0.00674365
0.00828579
0.00769045
0.00819365
0.00721279
0.00716111
0.00800044
0.00744864
0.00864035
0.00773033
0.462863
0.00952382
0.00735731
0.0069947
0.149696
0.00856487
0.00786329
0.00841367
0.235082
0.0520822
0.00795156
0.00790765
0.00658919
0.00834833
0.00706043
0.0083143
0.00713876
0.00802435
0.166914
0.00688597
0.00773866
1.12329
0.00797697
0.00681274
0.00872869
0.00714525
0.00831334
0.00733935
0.0414514
0.00720327
0.00693125
0.266126
2.45681
0.00791727
0.00736087
0.0082831
0.00668215
0.00717053
0.0168012
0.00809388
0.0075113
0.00716768
0.00723822
0.00683928
0.00677472
0.00738395
0.0735288
0.00770759
0.0171844
0.00781839
0.00725425
0.00737857
0.00675202
0.00704746
0.00838066
0.322572
0.00734136
0.00842276
0.00854745
0.860524
0.00763061
0.00747021
0.0122576
0.00726403
0.00666024
0.0200541
0.00733213
0.00689451
0.00773057
0.00791359
1.94423
0.00757338
0.0108804
0.00709701
0.0079487
0.128807
0.00704009
0.00753569
0.00711576
0.00705619
0.00686685
0.007049
0.00726913
0.0195407
0.00875605
0.011831
0.00723713
0.00747575
0.00703685
0.00778835
1.93942
0.00720401
0.00754907
0.00756823
0.0726226
0.00678097
0.00737922
0.0203392
0.00831537
0.00797998
0.00746905
0.00684745
0.00944596
0.00665605
0.00689111
0.144955
0.00713609
0.0246633
0.00758347
0.00768432
0.132131
0.0080413
0.00870188
0.00836475
0.00688197
0.0919743
0.00767671
0.00695733
0.00930548
0.00670609
0.00706315
1.57245
0.00739276
0.0132802
0.00768762
0.0127333
0.00811899
0.00724606
0.00762938
0.00874762
0.00697238
0.00740061
0.00684858
0.00826555
0.0103646
0.049565
0.0956896
0.00703472
0.00699932
0.00852824
0.00695246
0.00749017
0.194542
0.00714771
0.00703324
0.00704519
0.00770412
0.00738242
0.0084981
0.00682793
0.0186483
0.00686269
1.54684
0.00724049
0.00818107
0.00841761
0.0111872
0.00672777
0.163979
0.00699371
0.00750347
0.0104535
0.00840415
0.00898424
0.00690619
0.00907279
0.00814164
0.0076085
0.00761619
0.00843429
0.00718726
0.00816114
0.0077452
0.00750519
0.00731126
0.00682608
0.00824695
0.0144497
0.218079
0.00689916
0.0092388
0.00735083
0.00754283
0.0074077
0.00681049
0.26223
0.00783848
0.00681809
0.00791185
0.00728962
0.31336
0.00866271
0.0239597
0.00685083
0.00724773
0.00828285
0.00673838
0.00754416
0.00823759
0.00712131
0.00708885
0.00710527
0.0100035
0.0114226
0.00675835
0.00665845
0.00750433
0.00741856
0.0363418
0.0601261
0.00803373
0.00683213
0.291907
0.00811698
0.43024
0.0087109
0.00803724
0.00697436
0.00753788
0.00691105
0.00746364
0.00783591
0.00721805
0.00668195
0.008195
0.00682615
0.00707535
0.00684192
0.00738601
0.00722802
0.00722801
0.00722938
0.00937681
0.683792
0.00781691
0.00670357
0.00844398
0.00722422
0.0110888
0.143807
0.00773164
0.00722538
0.00687953
0.0101675
0.00721658
0.0082922
0.00765286
0.00683879
0.0664574
0.00860657
0.00789737
0.00871516
0.113634
0.00719035
0.0073081
0.00821095
0.00683718
0.00881044
0.00813945
0.00821637
0.00837828
0.00787845
0.00785496
0.00688283
0.246618
0.0294094
0.0066419
0.00811979
0.00769914
0.00793684
0.00804058
0.00730447
0.00827535
0.00777093
0.00810855
0.500588
0.00729396
0.0315443
0.00914862
0.00714623
0.00771121
0.00781744
0.53459
0.00713993
0.00817352
0.00948388
0.00743945
0.00761791
0.00744062
0.00814039
0.0113293
0.358826
0.00876341
0.00816793
0.00667153
0.00721443
0.00718657
0.00736164
0.00843048
0.00719418
0.00786518
0.00703493
0.00723543
0.00829351
0.0068493
0.00786049
0.00736337
0.00826075
0.00663406
0.00753628
0.456799
0.331685
0.00705577
0.00811272
0.0314497
0.00853285
0.00714038
0.0120446
0.00789897
0.00765776
0.00765964
0.0838437
0.00716672
0.0071173
0.00764752
0.00715018
0.00768348
0.00859846
0.00736642
0.00755498
0.00897672
0.00792836
0.00815198
0.00731312
2.86844
0.00753826
0.00711395
0.00874211
0.220577
0.00716546
0.00796949
0.0504463
2.92037
0.00699428
0.00863304
0.00688317
0.0073994
0.00846705
0.00808557
0.00764234
0.00942781
0.00696039
0.00828658
0.00853051
0.00683662
0.0071447
0.00684915
0.00821772
0.00685122
0.0288507
0.00774702
0.00752736
0.00737688
0.00831853
0.00750611
0.473892
0.01028
0.00730683
0.00719818
0.0072165
0.00764381
0.145809
0.00851156
0.00814794
0.00674017
0.00702006
0.00683885
0.00759497
0.0501239
0.00721594
0.00765791
0.00730402
0.00661448
0.00673065
0.04587
0.00686186
0.00690841
0.00804265
0.00690454
0.111346
0.00695894
0.00845049
0.00690572
0.00898098
0.00777577
0.00710474
0.00753296
0.00830411
0.00739614
0.464693
0.0330582
0.0311635
0.00678202
0.00685257
0.00676677
0.488039
0.00801465
0.00865879
0.00700731
0.00759794
0.0192937
0.00792635
0.00726
0.00684107
0.00740602
0.00830482
0.00807817
0.00845037
0.00762521
0.00720438
0.0104658
0.0071208
0.00780688
0.00730505
0.00934053
0.00815016
0.177687
0.0103336
0.00683308
0.220981
0.00771808
0.172082
0.0083258
0.0073801
0.00684977
0.00829168
0.0232912
0.00784255
0.00707959
0.00809199
0.00791625
0.0088299
0.00732753
0.00740831
0.00815799
0.00723181
0.00702092
0.00734894
0.0081353
2.43867
0.00745407
2.28222
0.00812903
0.017483
0.0155582
0.0216045
0.00780773
0.00674139
0.00855547
0.00666889
0.0712225
0.00815945
0.0101494
0.00662643
0.00841863
0.00732937
0.00699295
0.00778393
0.00735693
0.197688
0.0069126
0.340207
0.00696071
0.0073754
0.00723589
0.00829392
0.00811334
0.102488
0.024548
0.00725418
0.00728479
0.00757413
0.0118714
0.00665914
0.00809932
0.00947862
0.00856521
0.00681613
0.00969172
0.00832699
0.00705083
0.0070978
0.00672223
0.00802558
0.28905
0.0111355
0.00711012
0.00738461
0.00813832
0.00734528
0.00911582
0.301618
0.00719638
0.00673068
0.00835912
0.123773
0.00796512
0.00694549
0.00795909
0.00752668
0.0122886
0.00679712
0.00690275
0.298397
0.503717
0.460636
0.00686057
0.00965273
0.0282367
0.0083893
0.00694856
0.00711208
0.00862511
0.0832004
0.00734063
0.00693139
0.0068426
0.00661553
0.00811841
0.00695725
0.0086244
1.30694
0.00769639
0.00794282
0.208472
0.00742691
0.00734605
0.00742882
0.00720625
0.0515031
0.00731294
0.021949
0.265392
0.00693596
0.0167524
0.854461
0.00722985
0.00833037
0.00731295
0.00819612
0.00682948
0.00683841
0.0209943
0.00903491
0.00712253
0.312798
0.00751925
0.0072451
0.00742522
0.00819562
0.00686635
0.00696268
0.00695795
0.00694632
0.017656
0.00743174
0.154325
0.202823
0.00861491
0.125217
0.0533594
0.00736326
0.00721148
0.00712605
0.00768109
0.00803696
0.00728528
0.00751421
0.00824553
0.00691795
0.00809712
0.00765444
0.00688927
0.00763197
2.2788
0.0121738
0.0076935
0.00722207
0.0129477
0.00677013
0.00685476
0.583675
0.00776058
0.00694223
0.00706612
0.00682385
0.00737393
0.0304164
0.00738302
0.00746897
0.0205537
0.00725421
0.00738184
0.00732989
0.011479
0.00821693
0.00789219
0.0539056
0.00792482
0.00709836
0.00860349
0.00796666
0.00779897
0.00700126
0.00670242
0.0383538
0.472015
0.00835419
0.0260982
0.0280398
0.0082103
0.0320034
0.00707683
0.00698884
0.0890888
0.0353974
0.739428
0.101386
0.00816567
0.0079298
0.0184063
0.0584237
0.00720472
0.379399
0.0066908
0.00818019
0.00719771
0.00684602
0.0070666
0.0431569
0.00684206
0.00738674
0.0243269
0.00669865
0.00799481
0.00691976
0.00822108
0.131765
0.00785388
0.00727852
0.0072771
0.00790238
0.0621504
0.0067908
0.00702797
0.0152937
0.00985814
0.00862194
0.020987
0.0116397
0.00688699
0.0361351
0.0136427
0.00750831
0.29127
0.0285055
0.00836267
0.00666362
0.00714879
0.00703686
0.00703536
0.00806503
0.007686
0.00698425
0.215265
0.00702063
0.00745521
0.00727022
0.00833879
0.00815046
0.00859551
0.00662165
0.00770368
0.00733719
0.013113
0.00814582
0.0245866
0.170691
0.00688561
0.0265802
0.00804689
0.0067995
0.0268321
0.00803078
0.00816779
0.00788823
0.00683093
0.00793514
0.00719884
0.00858075
0.0502226
0.00708589
0.00679397
0.0071769
0.00857631
0.0307293
0.0130191
0.00855524
0.00982895
0.0158915
0.00666067
0.00676156
0.00697416
0.00685878
0.00694558
0.00796026
0.0511973
0.00706727
0.024862
0.00740329
0.00859361
0.00726475
0.00701219
0.00945096
0.00689389
0.00759219
0.0336966
0.00677628
0.131172
0.00658845
0.00737353
0.0239265
0.00680668
0.00795187
0.619888
0.00664165
0.00675766
0.00835748
0.0081332
0.00723231
0.0556613
0.0217143
0.006669
0.143601
0.0372409
0.00789925
0.00721782
0.00670247
0.00676775
0.0117171
0.00811748
0.00762457
0.00839086
0.00734836
0.236083
0.00761206
0.00846021
0.234567
0.0181488
0.00735165
0.00770053
0.00756582
0.00726883
0.00857927
0.00723362
0.00916927
0.00808636
0.00879245
0.00804655
0.00979179
0.00819419
0.00668403
0.00770098
0.0209569
0.00838675
0.00886494
0.129896
0.00708231
0.00703254
0.00780525
0.00683574
0.00737773
0.00826586
0.00809223
0.00692035
0.00741337
0.00771119
0.00772124
0.0249699
0.00696869
0.00854952
0.00848184
0.0108344
0.00789323
0.00675609
0.00840409
0.00995685
0.00801818
0.00698552
0.00746549
0.0555242
0.00790299
0.0079959
0.0503837
0.0084515
0.0085539
0.0145953
0.0067804
0.0112451
0.00755478
0.0199984
0.00789554
0.00667166
0.00709238
0.00797528
0.00920582
0.0072471
0.017443
0.00762808
0.0321274
0.00715128
0.0158848
0.00758536
0.00788043
0.0177983
0.00747163
0.347587
0.00725214
0.00677612
0.00724583
0.00749551
0.00745188
0.0084016
0.01114
0.0198792
0.00751848
0.00811349
0.00719455
0.00777962
0.00684256
0.00691263
0.00686985
0.00789398
0.0120707
0.0211259
0.00747131
0.016383
0.00798134
0.00804925
0.00851442
0.992687
0.00691955
0.0102324
0.00719911
0.0321515
0.00821093
0.00704322
0.0289722
0.0111156
0.00781628
0.00723255
0.00724761
0.0148686
0.00753731
0.00710107
0.186428
0.0081758
0.00830221
0.00853426
0.00689295
0.0081703
0.00731207
0.00763536
0.007237
0.00681444
0.0134738
0.00813381
0.0066918
0.0160022
0.00686934
0.00737766
0.00765153
0.00721263
0.034538
0.0137048
0.00682983
0.00845805
0.00736222
0.682272
0.00896666
0.00702816
0.537346
0.00683802
0.00713433
0.00711195
0.00703746
0.00848682
0.00936864
0.00732297
0.00698844
0.0774145
0.00712218
0.00758424
0.00910386
0.00666623
0.00748906
0.00859947
0.00701611
0.00729353
0.00717334
0.00855487
0.00730691
0.00748088
0.0068519
0.0069386
0.00691606
0.0119375
0.00795581
0.00720469
0.00680318
0.00756197
0.00837691
0.00724602
0.00695102
0.0132996
0.00894394
0.00723718
0.0085438
0.00755997
0.0074605
0.139368
0.00818253
0.0068062
0.538477
0.00734538
0.00688942
0.00988999
0.00689597
0.00810027
0.0107966
0.00742224
0.00668272
0.00690823
0.00856428
0.00737824
0.0435875
0.00667268
0.0300759
0.00780762
0.00742938
0.0360431
0.722069
0.00736093
0.00802855
0.00668318
0.00828695
0.00700178
0.0108681
0.00790224
0.0100844
0.00661921
0.00726069
0.00683613
0.00743066
0.0125678
0.0191415
0.00721319