/*--------------------------------*- C++ -*----------------------------------*\
| =========                 |                                                 |
| \\      /  F ield         | OpenFOAM: The Open Source CFD Toolbox           |
|  \\    /   O peration     | Version:  3.0.1                                 |
|   \\  /    A nd           | Web:      www.OpenFOAM.org                      |
|    \\/     M anipulation  |                                                 |
\*---------------------------------------------------------------------------*/
FoamFile
{
    version     2.0;
    format      ascii;
    class       volScalarField;
    location    "0.762496";
    object      p;
}
// * * * * * * * * * * * * * * * * * * * * * * * * * * * * * * * * * * * * * //

dimensions      [0 2 -2 0 0 0 0];

internalField   nonuniform List<scalar> 
21246
(
1.08709
0.828239
0.76762
0.771771
0.795424
0.828615
0.848138
0.842031
0.816055
0.784322
0.787783
2.84157
2.39579
1.97557
1.69907
1.52143
1.4007
1.30805
1.22402
1.13971
1.06368
1.02483
2.79271
2.73176
2.51387
2.27955
2.06296
1.87371
1.70933
1.56161
1.42263
1.30105
1.23269
2.43629
2.52985
2.50629
2.41176
2.28083
2.1302
1.96793
1.8025
1.6462
1.51384
1.42666
2.1549
2.30245
2.34615
2.35078
2.31595
2.23709
2.12388
1.99078
1.84843
1.70803
1.60354
1.94323
2.11776
2.18755
2.24708
2.27362
2.2593
2.2027
2.10835
1.98284
1.84192
1.72873
1.7467
1.9448
1.99871
2.09098
2.16131
2.19578
2.18626
2.13191
2.03735
1.90829
1.80109
1.61186
1.75324
1.83144
1.92601
2.01224
2.07498
2.10076
2.08219
2.01916
1.92433
1.84227
1.49294
1.61629
1.69038
1.77866
1.86619
1.93951
1.98505
1.9924
1.95696
1.88856
1.82707
1.3816
1.50098
1.56968
1.65148
1.73514
1.80958
1.86315
1.88551
1.86989
1.82236
1.77766
1.29441
1.40543
1.46665
1.54109
1.61836
1.68916
1.74379
1.77304
1.76959
1.73768
1.71313
1.24015
1.33398
1.38271
1.44658
1.5144
1.57792
1.62888
1.65934
1.66234
1.64065
1.62751
1.18554
1.2679
1.30726
1.36111
1.41844
1.47253
1.51663
1.54429
1.54968
1.53513
1.53336
1.1203
1.19833
1.23152
1.2766
1.32342
1.367
1.40215
1.42416
1.42848
1.41655
1.42036
1.07816
1.13883
1.15847
1.19087
1.22479
1.25588
1.28013
1.29458
1.29664
1.28778
1.29759
1.02604
1.07032
1.07729
1.0961
1.11535
1.13202
1.14372
1.14968
1.14971
1.14528
1.16516
0.946461
0.980657
0.977736
0.982686
0.985682
0.986208
0.984354
0.982327
0.982748
0.986618
1.01823
0.866102
0.880388
0.859636
0.844654
0.826834
0.8085
0.792797
0.785511
0.791886
0.811869
0.863237
0.764925
0.753836
0.708815
0.667131
0.623198
0.58425
0.557769
0.552284
0.574311
0.620162
0.700872
0.624589
0.579866
0.504708
0.430256
0.356132
0.296847
0.267196
0.277737
0.330483
0.414398
0.527217
0.426272
0.333499
0.219006
0.107518
0.00353707
-0.0678908
-0.0839341
-0.0348764
0.0672064
0.204729
0.361839
0.154114
-0.0419852
-0.189232
-0.333186
-0.457425
-0.519513
-0.492738
-0.380093
-0.200852
0.00557281
0.215662
-0.545144
-0.60288
-0.760086
-0.923842
-1.03895
-1.04549
-0.928028
-0.71351
-0.445866
-0.16751
0.0929111
0.382196
-0.817471
-1.27277
-1.52889
-1.61697
-1.52961
-1.29772
-0.980978
-0.632965
-0.293511
0.0071274
-3.72012
-1.45371
-0.524684
-0.187848
0.0893388
0.304298
0.417254
0.467746
0.492447
0.491924
0.518831
-3.2732
-2.30445
-1.73419
-1.34135
-0.9175
-0.52824
-0.235888
-0.0308924
0.0888474
0.146024
0.215428
-2.3482
-2.36347
-2.23487
-2.02804
-1.75778
-1.4253
-1.06589
-0.729447
-0.463645
-0.285812
-0.140326
-2.80561
-2.65794
-2.54449
-2.46188
-2.38025
-2.22356
-1.94749
-1.58024
-1.19974
-0.879293
-0.600833
-3.38117
-3.25218
-3.08153
-2.97665
-2.97516
-2.97636
-2.85819
-2.55657
-2.12281
-1.66442
-1.22871
-4.07316
-4.01518
-3.88163
-3.76389
-3.74461
-3.83323
-3.85982
-3.67871
-3.25016
-2.67272
-2.06136
-4.78493
-4.8366
-4.78891
-4.77332
-4.79601
-4.92431
-5.06202
-4.99837
-4.60613
-3.92403
-3.12255
-5.48115
-5.64979
-5.69734
-5.82242
-6.00551
-6.22458
-6.47517
-6.52929
-6.19211
-5.4176
-4.37519
-6.11819
-6.40211
-6.54475
-6.81987
-7.18013
-7.60606
-8.00998
-8.21701
-7.95893
-7.15138
-5.91285
-6.62139
-7.03733
-7.26608
-7.69211
-8.23247
-8.87808
-9.51576
-9.93936
-9.76241
-8.86858
-7.39608
-6.90119
-7.50446
-7.79277
-8.35847
-9.06229
-9.90821
-10.8138
-11.4524
-11.4086
-10.4634
-8.79577
-7.07799
-7.70797
-8.07741
-8.76786
-9.58842
-10.5817
-11.679
-12.5262
-12.6752
-11.6815
-9.85456
-7.05194
-7.66446
-8.14134
-8.85505
-9.75336
-10.8234
-11.9921
-12.9951
-13.2979
-12.2488
-10.181
-6.75068
-7.34206
-7.8749
-8.60649
-9.52848
-10.6156
-11.7739
-12.7801
-13.008
-12.0254
-9.91855
-6.2166
-6.73762
-7.26891
-7.97915
-8.87611
-9.92439
-11.0047
-11.853
-11.9472
-11.0171
-9.06115
-5.42603
-5.85311
-6.34712
-7.00909
-7.84832
-8.8084
-9.73158
-10.3522
-10.348
-9.38821
-7.60824
-4.37946
-4.72714
-5.18561
-5.80977
-6.59717
-7.46047
-8.20641
-8.5812
-8.35346
-7.34225
-5.75298
-3.16586
-3.49568
-3.96992
-4.6027
-5.36629
-6.14078
-6.70637
-6.81547
-6.30484
-5.19509
-3.81441
-2.03968
-2.46731
-3.04066
-3.71803
-4.45625
-5.12667
-5.49774
-5.32707
-4.53204
-3.30066
-2.02389
-1.47167
-2.05645
-2.73794
-3.43712
-4.13533
-4.7034
-4.87798
-4.42264
-3.35706
-2.00907
-0.641775
-1.635
-2.29253
-3.00259
-3.71085
-4.38056
-4.83196
-4.72731
-3.92711
-2.65386
-1.25639
0.0401386
-2.23146
-2.96375
-3.71493
-4.38222
-4.93026
-4.9993
-4.28468
-3.18729
-2.00469
-0.882266
-0.0203357
-3.15081
-4.41736
-4.82867
-4.82607
-4.53042
-3.93865
-3.09884
-2.19565
-1.34955
-0.610738
-0.052718
-6.32239
-4.65388
-3.75533
-3.28745
-2.87993
-2.39848
-1.8698
-1.33842
-0.837228
-0.390928
-0.0339513
22.2378
19.184
15.9929
13.1885
10.7897
8.83183
7.2347
5.93414
4.87671
4.04546
3.47871
8.69924
13.0065
13.058
12.295
10.611
8.95567
7.40734
6.07634
4.975
4.10156
3.49068
-4.90309
2.89436
5.06344
7.31052
7.7578
7.40177
6.57581
5.62501
4.71405
3.94199
3.3924
-11.1761
-4.64011
-2.75727
1.25391
3.16483
4.37374
4.64388
4.43171
3.97153
3.46441
3.04152
-12.7588
-8.31421
-7.55316
-3.25869
-1.26177
0.960126
2.12061
2.69842
2.81581
2.70162
2.54615
-12.7121
-9.43928
-9.57266
-5.70065
-4.30996
-1.80938
-0.265207
0.857812
1.472
1.75263
1.87715
-11.9194
-9.57189
-9.75332
-6.89299
-5.76675
-3.5609
-2.04203
-0.694034
0.218178
0.803723
1.17728
-10.5281
-9.17789
-9.01965
-7.1791
-6.23459
-4.42575
-3.10795
-1.76405
-0.754984
-0.00613621
0.535789
-9.20146
-8.36621
-8.12977
-6.81517
-6.1041
-4.64663
-3.57047
-2.34557
-1.3733
-0.570347
0.0533411
-8.19357
-7.47371
-7.22046
-6.16614
-5.63668
-4.44616
-3.59763
-2.52697
-1.66186
-0.882558
-0.240144
-7.01426
-6.43888
-6.22091
-5.37006
-4.97357
-3.98701
-3.33746
-2.41653
-1.68829
-0.981609
-0.389598
-5.55913
-5.20723
-5.10284
-4.45229
-4.17407
-3.3666
-2.88928
-2.10199
-1.51889
-0.89874
-0.389727
-4.38109
-4.09714
-4.02979
-3.50752
-3.32357
-2.65778
-2.32555
-1.65084
-1.2097
-0.681836
-0.259792
-3.50566
-3.18027
-3.08587
-2.62355
-2.49409
-1.92443
-1.72057
-1.11084
-0.810182
-0.380426
-0.0605656
-2.47435
-2.21764
-2.16886
-1.77536
-1.68901
-1.20083
-1.03511
-0.602553
-0.357163
-0.0312508
0.195807
-1.59108
-1.35568
-1.32097
-0.97222
-0.901805
-0.524828
-0.372136
-0.0532382
0.117234
0.343357
0.48134
-0.924237
-0.643316
-0.57471
-0.245652
-0.159015
0.141859
0.266535
0.499161
0.594528
0.721277
0.769834
-0.207047
0.072986
0.143289
0.435229
0.552855
0.801536
0.894311
1.04091
1.05936
1.08399
1.04349
0.482122
0.753693
0.830075
1.10457
1.23653
1.44342
1.50563
1.56289
1.49707
1.41628
1.2874
1.06149
1.35726
1.46897
1.75325
1.90463
2.07395
2.09431
2.05025
1.88868
1.70332
1.4939
1.64293
1.9566
2.11175
2.40663
2.57742
2.69657
2.64216
2.47508
2.20796
1.92798
1.65294
2.25385
2.58124
2.81031
3.11136
3.27156
3.28627
3.09835
2.78676
2.41833
2.0711
1.75992
2.68928
3.27845
3.61771
3.88811
3.9323
3.75186
3.38393
2.93829
2.50228
2.14245
1.90434
4.36787
4.60648
4.76432
4.68038
4.32913
3.83516
3.27949
2.75403
2.3082
1.98792
1.78644
19.6524
18.1817
15.5203
12.871
10.477
8.50421
6.92555
5.66087
4.6476
3.86069
3.3126
3.72027
10.0385
11.034
10.9237
9.70316
8.14459
6.67577
5.41619
4.39402
3.61432
3.08853
-10.0872
-1.03477
2.12339
5.20026
6.29252
6.23238
5.51354
4.65654
3.83394
3.15701
2.68354
-16.8474
-9.43527
-6.53365
-1.81632
1.00817
2.68101
3.19165
3.13188
2.79643
2.41054
2.13302
-18.803
-13.8035
-12.0054
-7.36845
-4.12935
-1.43139
0.204955
1.02525
1.33418
1.37967
1.38775
-18.7368
-15.3065
-14.3959
-10.5958
-7.81053
-4.88523
-2.70253
-1.22198
-0.325541
0.180849
0.507948
-18.0237
-15.4584
-15.0092
-11.9847
-9.89701
-7.18461
-4.9781
-3.17517
-1.89326
-1.01149
-0.375683
-17.0092
-15.0289
-14.8327
-12.2924
-10.8483
-8.42022
-6.47281
-4.60956
-3.1617
-2.05102
-1.22218
-16.078
-14.3943
-14.3734
-12.0487
-11.1471
-8.88732
-7.31021
-5.48851
-4.04505
-2.82955
-1.91264
-15.3087
-13.7677
-13.7676
-11.6179
-11.0162
-8.92858
-7.63464
-5.89849
-4.55373
-3.30904
-2.31697
-14.5589
-13.3086
-12.9496
-11.2435
-10.5084
-8.75705
-7.59092
-5.94767
-4.74745
-3.52029
-2.53156
-13.6019
-12.6053
-12.0733
-10.6995
-9.87017
-8.35758
-7.29397
-5.77722
-4.65527
-3.51044
-2.58057
-12.6941
-11.7447
-11.1937
-9.95726
-9.14247
-7.75979
-6.75981
-5.43103
-4.37634
-3.32469
-2.46284
-11.8592
-10.8582
-10.2896
-9.11319
-8.31818
-7.03214
-6.09409
-4.90725
-3.94057
-3.0019
-2.21628
-10.8204
-9.84859
-9.30626
-8.18665
-7.40165
-6.20482
-5.32042
-4.24669
-3.37776
-2.56617
-1.89395
-9.75274
-8.78222
-8.25225
-7.17793
-6.39556
-5.28456
-4.43335
-3.47273
-2.71349
-2.04191
-1.50922
-8.69303
-7.68553
-7.13581
-6.08869
-5.2914
-4.26232
-3.43714
-2.60454
-1.97093
-1.45132
-1.0605
-7.54265
-6.50136
-5.92338
-4.89833
-4.07277
-3.11345
-2.34794
-1.65996
-1.17319
-0.818554
-0.577293
-6.28777
-5.20581
-4.58475
-3.57713
-2.723
-1.83989
-1.17476
-0.660853
-0.350742
-0.174148
-0.0787744
-4.9199
-3.77701
-3.08845
-2.09366
-1.22696
-0.458753
0.0540297
0.351233
0.451794
0.438503
0.365183
-3.38997
-2.15528
-1.37957
-0.415609
0.402172
0.993359
1.2736
1.30805
1.18265
0.994423
0.79864
-1.63432
-0.26145
0.591272
1.44418
2.0814
2.3817
2.34661
2.09827
1.76776
1.44525
1.16239
0.457605
1.95578
2.80926
3.37821
3.64286
3.54728
3.17769
2.69413
2.23063
1.83488
1.52671
2.48786
4.14629
4.65628
4.60617
4.34602
3.88989
3.31771
2.75501
2.26527
1.83116
1.56807
-1.37254
1.42252
2.20456
2.26124
2.02158
1.69703
1.37688
1.08137
0.8103
0.576812
0.434349
-15.5087
-7.64973
-4.40953
-2.18445
-0.81548
-0.156449
0.105916
0.167385
0.129497
0.0521321
0.00663925
-17.0807
-12.2547
-9.82827
-6.86322
-4.37194
-2.67321
-1.62494
-1.03193
-0.719614
-0.560402
-0.45266
-14.0282
-12.4923
-11.5163
-9.26966
-6.95079
-4.95624
-3.41499
-2.35383
-1.67533
-1.25172
-0.968324
-10.7943
-10.6251
-10.4926
-9.339
-7.84267
-6.21533
-4.69761
-3.46675
-2.5598
-1.92556
-1.46213
-8.62432
-8.72729
-8.78432
-8.28382
-7.49293
-6.42198
-5.24006
-4.13152
-3.19993
-2.47508
-1.90595
-7.02027
-7.18991
-7.24501
-7.03343
-6.64115
-6.00263
-5.1932
-4.33355
-3.52332
-2.8264
-2.23222
-5.82555
-5.93875
-5.97264
-5.89903
-5.71599
-5.3515
-4.83016
-4.21365
-3.57152
-2.97242
-2.41573
-5.04103
-5.01782
-5.01381
-4.98781
-4.89969
-4.69072
-4.36026
-3.93224
-3.4456
-2.95703
-2.4716
-4.59789
-4.44362
-4.40176
-4.35499
-4.27878
-4.13506
-3.91004
-3.60589
-3.23882
-2.84836
-2.43454
-4.36543
-4.12057
-4.04636
-3.94681
-3.84342
-3.71229
-3.53309
-3.29848
-3.01144
-2.69726
-2.35557
-4.22654
-3.93937
-3.80819
-3.66328
-3.5299
-3.39258
-3.22992
-3.03106
-2.79241
-2.52932
-2.24359
-4.10398
-3.80273
-3.64112
-3.46385
-3.3039
-3.15414
-2.99384
-2.80966
-2.59502
-2.3591
-2.10449
-3.99891
-3.69993
-3.52486
-3.33364
-3.15547
-2.99202
-2.82528
-2.6399
-2.42829
-2.19724
-1.95422
-3.93211
-3.63912
-3.45904
-3.26027
-3.06842
-2.89257
-2.71529
-2.51858
-2.29412
-2.05015
-1.80161
-3.90363
-3.62006
-3.44258
-3.24409
-3.04461
-2.85724
-2.66335
-2.44412
-2.19129
-1.91687
-1.64422
-3.90679
-3.6367
-3.46606
-3.27488
-3.0757
-2.87666
-2.66254
-2.40976
-2.11408
-1.79316
-1.4721
-3.93123
-3.67817
-3.51757
-3.33564
-3.13877
-2.92924
-2.68758
-2.39349
-2.04848
-1.67917
-1.32253
-3.96552
-3.73334
-3.58618
-3.41495
-3.21922
-2.99207
-2.71332
-2.37048
-1.97934
-1.57043
-1.19574
-3.99888
-3.78996
-3.65975
-3.5009
-3.30031
-3.0429
-2.71433
-2.31709
-1.88929
-1.4751
-1.09921
-4.00489
-3.83524
-3.731
-3.58517
-3.37076
-3.07078
-2.6811
-2.22879
-1.78429
-1.39894
-1.06252
-3.92939
-3.87102
-3.8161
-3.6724
-3.42545
-3.07352
-2.62561
-2.12545
-1.68203
-1.36512
-1.15258
-4.06461
-4.13069
-4.04432
-3.84345
-3.55075
-3.15026
-2.63749
-2.08734
-1.63227
-1.3704
-1.22988
-4.60117
-4.08242
-3.78463
-3.52342
-3.17317
-2.69201
-2.12921
-1.63553
-1.36884
-1.3619
-1.49587
14.5646
10.2632
7.25722
5.3112
3.99084
3.06998
2.38743
1.84615
1.39754
1.0356
0.787784
11.7881
11.5091
9.84334
7.89397
6.10625
4.65858
3.53386
2.67147
1.99344
1.47426
1.13495
7.61914
8.80934
8.79666
8.1052
6.88408
5.51153
4.26095
3.24227
2.42774
1.79882
1.38298
3.91692
5.80762
6.44377
6.65995
6.25576
5.44949
4.48199
3.53064
2.68188
1.99595
1.54845
1.27598
3.09008
3.8782
4.60039
4.88805
4.6925
4.14584
3.4269
2.69194
2.05173
1.61125
-0.491592
1.03123
1.7067
2.58438
3.17506
3.41884
3.31295
2.9359
2.42571
1.91313
1.5236
-1.66898
-0.41553
0.0854435
0.935996
1.58806
2.04961
2.24418
2.16551
1.90865
1.56866
1.29038
-2.42552
-1.40218
-1.07132
-0.294473
0.316166
0.83692
1.17807
1.31461
1.26714
1.10205
0.941845
-3.02135
-2.11275
-1.93738
-1.19997
-0.686172
-0.161303
0.241422
0.499236
0.601928
0.58376
0.523554
-3.5467
-2.72392
-2.57961
-1.93008
-1.46336
-0.966879
-0.545771
-0.224159
-0.0226006
0.0709265
0.110232
-3.95664
-3.34439
-3.0671
-2.52717
-2.08829
-1.616
-1.19494
-0.841171
-0.577484
-0.408365
-0.297371
-4.25404
-3.74471
-3.47367
-2.99664
-2.58621
-2.13868
-1.72503
-1.35557
-1.05217
-0.827299
-0.665587
-4.51983
-4.04755
-3.7975
-3.36254
-2.97709
-2.55324
-2.15047
-1.77547
-1.44781
-1.17884
-0.964486
-4.77631
-4.30252
-4.05687
-3.64709
-3.27978
-2.87569
-2.48452
-2.11036
-1.77088
-1.47748
-1.22628
-4.89487
-4.46404
-4.24275
-3.85893
-3.50776
-3.1206
-2.74009
-2.36997
-2.02666
-1.72116
-1.45171
-4.97578
-4.57638
-4.37075
-4.00939
-3.67075
-3.2977
-2.92575
-2.56084
-2.21896
-1.91124
-1.64035
-5.04554
-4.6597
-4.45577
-4.10942
-3.77687
-3.41333
-3.04708
-2.68734
-2.3505
-2.04758
-1.78197
-5.0617
-4.69433
-4.49254
-4.15954
-3.82864
-3.4699
-3.10632
-2.75115
-2.42253
-2.13367
-1.888
-5.02797
-4.68076
-4.47985
-4.15814
-3.825
-3.46659
-3.10302
-2.75191
-2.43418
-2.16605
-1.95247
-4.95812
-4.6262
-4.41958
-4.10368
-3.76351
-3.40124
-3.03591
-2.68877
-2.3845
-2.14381
-1.96848
-4.84583
-4.52386
-4.3045
-3.98883
-3.63928
-3.27222
-2.90547
-2.56257
-2.27389
-2.06798
-1.94973
-4.66731
-4.35222
-4.11038
-3.79325
-3.44159
-3.07627
-2.71067
-2.3714
-2.09816
-1.92984
-1.88424
-4.48383
-4.11878
-3.85249
-3.55601
-3.22521
-2.87033
-2.50169
-2.15822
-1.8922
-1.75574
-1.80203
-3.78713
-3.49369
-3.27332
-3.04623
-2.77789
-2.4573
-2.10712
-1.79323
-1.54444
-1.38965
-1.47246
-1.08825
-1.77829
-1.97132
-1.43394
-0.407832
0.422669
0.837547
0.95524
0.458353
-0.894623
-1.35084
-1.45422
-1.01338
-0.293762
0.349685
0.708082
0.792119
0.379428
-0.838328
-1.22891
-1.3164
-0.941123
-0.263175
0.269321
0.584866
0.656658
0.300116
-0.775692
-1.07749
-1.1209
-0.787346
-0.244849
0.201639
0.480631
0.548761
0.216114
-0.725662
-0.715156
-0.736659
-0.862176
-1.10358
-1.48802
-1.63693
-1.28747
-0.488985
-0.723304
-0.718274
-0.736936
-0.823244
-0.947155
-1.1752
-1.2458
-0.920766
-0.34875
-0.707127
-0.70099
-0.710915
-0.778607
-0.881526
-1.07856
-1.13694
-0.889172
-0.309142
-0.685649
-0.669541
-0.674117
-0.722958
-0.787662
-0.937215
-0.969159
-0.720581
-0.278167
1.10871
1.20301
1.20072
-0.227538
-0.319781
1.21409
-0.599218
1.15595
1.21297
1.27458
-0.338331
1.15663
-0.225353
-0.0678764
1.10564
0.987387
-0.093472
-0.221676
0.987285
1.12776
0.89362
-0.416888
1.06956
-0.231082
1.2091
-0.0681343
-0.217869
-0.583217
0.138404
-0.313397
-0.0948594
0.634563
-0.0384218
1.04283
0.638971
1.20568
-0.223518
1.2112
-0.0398569
1.16962
-0.112332
1.04634
-0.0629677
1.0719
-0.485533
-0.351862
-0.129677
-0.749575
0.856201
1.18229
-0.316703
1.17009
-0.00563285
-0.0580512
1.17758
0.888025
-0.409186
1.16261
0.16773
-0.062541
0.17942
-0.0084126
-0.360331
-0.323588
-0.175386
1.12574
-0.291669
1.20043
1.20436
1.26508
-0.160506
1.39365
-0.246215
1.46128
-0.173248
1.35795
-0.369398
1.05378
-0.447234
-0.592091
-0.142271
-0.323573
1.13164
1.13645
0.103153
-0.238273
-0.614906
-0.0158366
-0.406073
-0.14616
1.21219
1.16063
-0.117504
1.33865
-0.53548
-0.952361
-0.140769
-0.152652
-0.374481
1.41661
0.306925
-0.753112
1.13444
0.298063
-0.340708
1.20492
-0.0114302
1.13226
-0.0426999
0.693917
1.0812
1.04426
1.32485
-0.263647
-0.128707
1.12431
1.16273
1.04834
1.17304
1.05392
-0.273623
1.46937
0.369875
-0.108435
-0.327871
-0.208294
0.00128773
-0.0110047
-0.0056561
-0.0346764
1.12406
-0.0623704
-0.731484
1.36688
1.20415
0.0510336
-0.359051
-0.317898
-0.267195
0.88521
-0.0513235
0.877009
-0.504501
0.861012
1.1587
-0.265446
-0.122057
1.20165
1.36903
1.09806
1.133
1.21466
-0.265193
1.44738
-0.250891
-0.0696185
-0.201227
-0.414084
-0.101579
1.16669
-0.157692
-0.347308
1.37929
1.17135
-0.260417
-0.142613
-0.421222
1.20646
-0.153053
-0.180714
-0.0362472
-0.0313844
-0.124707
0.75643
0.65644
0.621551
-0.00335232
-0.281823
-0.507806
0.651104
1.19396
-0.406772
1.20327
-0.327681
1.20095
-0.283057
1.14192
1.03831
1.18384
-0.446841
-0.0527772
-0.100851
1.0912
-0.10705
1.20478
1.19871
1.23006
-0.375195
-0.0364282
1.12857
-0.288669
1.19947
-0.107558
-0.128611
1.20248
-0.00451419
1.3298
-0.00348536
1.19142
1.10406
-0.14443
1.01524
0.648044
0.696467
1.06039
-0.0606462
1.21774
-0.122435
1.15439
-0.170699
-0.0205518
-0.26232
-0.149482
-0.136394
-0.0927652
1.14611
-0.292983
-0.111919
-0.0410837
-0.356535
-0.402523
1.08386
1.13676
1.48128
-0.265938
-0.968301
-0.254661
1.20453
1.12286
1.12375
-0.0919251
-0.260703
0.264125
-0.11921
1.25376
-0.371216
1.03838
-0.167501
-0.848362
-0.101074
-0.161029
-0.159873
0.579475
1.17922
0.230125
1.22601
0.937696
1.21257
-0.277369
1.14468
-0.00376663
-0.0948959
1.09336
1.06409
1.08057
-0.150551
0.860139
1.15628
-0.0679024
0.00158837
-0.372192
1.13855
1.20744
-0.134581
1.24689
1.0435
-0.133985
1.22605
0.92349
-0.346976
1.41061
1.17547
-0.143754
-0.219384
0.273776
1.23091
-0.518608
1.13576
0.863016
-0.0809516
1.10968
-0.579736
1.00097
-0.0655798
1.2026
1.19031
-0.160251
1.07998
0.678128
-0.15466
1.19408
-0.302183
0.788706
-0.303848
0.949541
0.65528
1.06064
0.0129224
-0.395707
1.1156
-0.51088
1.20463
0.577874
-0.0284632
-0.454445
0.943466
-0.186314
-0.36889
1.00928
1.37707
1.13444
-0.0175732
1.02336
-0.189721
-0.359919
1.07378
1.04521
-0.173716
1.07844
-0.0904914
1.16081
-0.356054
-0.32775
1.19384
-0.214454
-0.912755
-0.221912
1.06428
1.22194
-0.130742
-0.200072
-0.137433
1.20488
-0.174734
-0.378319
0.00331222
-0.0772819
1.04089
-0.238263
-0.00656479
-0.527174
-0.15311
0.0341948
0.964084
-0.0661651
1.1286
-0.0164324
0.800961
1.06597
-0.10613
0.0100656
-0.0780352
1.21608
1.12929
1.29067
-0.413765
-0.032499
-0.0835609
-0.575109
0.508732
1.22735
-0.360441
-0.895088
-0.0371399
-0.0583988
1.10766
0.214558
0.619688
1.23636
1.09432
-0.15472
1.21037
-0.280488
1.14166
-0.0977724
-0.211147
-0.283458
-0.090156
-0.254898
-0.429476
1.21478
-0.471912
-0.0358988
1.56569
-0.217283
-0.177734
1.06408
1.09466
1.17334
-0.073649
-0.280662
1.12314
1.19293
-0.0503839
-0.00378593
-0.0907378
-0.473563
-0.0392202
1.19491
-0.0103407
1.27287
0.983705
-0.107299
-0.101149
-0.250258
0.510071
-0.0590813
1.4775
-0.0147876
-0.474822
-0.295478
-0.014862
-0.616735
-0.0111228
0.604841
0.728354
1.45012
-0.019314
-0.0637747
-0.215186
1.03292
-0.317248
-0.114703
0.982643
0.0214127
-0.049874
-0.26637
-0.287097
-0.11366
1.02772
0.12665
-0.731869
-0.177477
-0.289487
1.17542
-0.098631
-0.0591128
-0.315441
1.1941
-0.359209
1.21137
1.13667
1.21872
-0.458191
-0.133258
-0.569566
-0.0368678
-0.347285
-0.00407776
1.16809
1.20218
-0.0097515
-0.0374357
0.199554
1.27344
-0.0092244
-0.00381529
1.12382
1.01658
1.16628
0.599568
-0.299539
1.07828
0.162285
1.22331
1.10964
1.13357
1.10521
-0.344842
1.13797
1.15169
0.918606
-0.325577
-0.395364
1.06486
-0.244061
-0.357355
0.891219
-0.0602042
1.14307
-0.273661
1.20712
1.22064
1.14459
-0.00553803
-0.101816
1.09539
-0.113237
0.590372
1.16354
-0.16339
-0.171105
1.19392
1.14655
-0.809546
-0.0280405
-0.26338
1.1542
-0.688525
1.02647
-0.259028
-0.0942449
-0.433991
-0.140766
0.313332
-0.246576
-0.0600074
-0.108481
1.03343
-0.132007
0.992715
1.17747
1.23226
1.10906
1.09815
-0.17541
1.15988
1.1471
-0.254078
1.19389
-0.323762
0.193324
-0.00847047
-0.158224
-0.42035
1.19456
1.22099
1.17553
-0.141097
-0.339704
1.03696
1.1742
-0.103535
1.19307
-0.167342
1.19377
-0.0270819
0.917946
-0.440992
-0.047291
-0.0144414
-0.406633
-0.252879
0.95311
0.832808
1.33889
1.09966
-0.0558003
-0.385252
1.06001
-0.101922
-0.423896
-0.909866
1.21472
1.24214
1.2037
-0.0606878
-0.239152
-0.021717
1.19955
1.13811
-0.219704
1.32093
-0.0618793
-0.0195043
-0.0417953
-0.404031
1.08519
-0.0103428
1.22184
-0.0564558
1.26785
-0.163339
-0.00418197
0.698729
-0.447359
-0.147774
1.15509
1.05141
-0.510632
1.16801
-0.161789
-0.262022
-0.0869029
-0.0721031
-0.18775
-0.186894
1.26545
1.1717
1.20006
-0.926095
-0.137974
-0.0614268
1.11428
1.21313
-0.46774
1.14541
1.34824
1.18744
1.37296
-0.103152
-0.0832999
-0.0924666
-0.0466249
0.3898
0.604936
1.17198
-0.235811
1.35255
1.19314
-0.870444
-0.142378
1.01113
1.19339
-0.339001
1.12373
1.19045
0.174769
1.2034
0.979392
-0.175113
-0.0798553
0.0972504
-0.0147276
-0.0147908
-0.468615
-0.0399547
0.0762387
-0.227722
-0.132401
-0.421739
-0.216711
-0.120639
1.02788
1.05314
-0.364812
0.375999
1.07834
0.767928
-0.119282
-0.0761402
-0.818704
-0.104828
0.209163
1.05134
0.533797
1.20126
1.09137
1.05657
-0.214138
1.31108
1.14163
1.13178
1.0977
-0.257515
-0.0395492
-0.36094
1.35625
1.15691
0.805881
-0.0522386
1.37413
-0.513443
1.34494
-0.207299
0.00391468
1.07137
-0.00488182
1.16852
-0.0425521
-0.274027
-0.097316
-0.860258
-0.144535
0.145143
1.13202
-0.0144046
-0.0408487
-0.458124
0.0100332
1.03382
0.548235
1.13528
-0.00435397
1.08926
-0.213295
1.20117
1.18382
1.22798
-0.216634
-0.0682974
1.20179
-0.00574459
1.24569
-0.0954177
-0.106566
0.77413
-0.266108
-0.138624
-0.0575711
0.297823
-0.241613
-0.194396
-0.213156
-0.0296815
-0.599033
1.03237
-0.111005
1.11177
1.16082
-0.502334
-0.0540953
-0.284461
-0.0644282
1.31561
0.966152
1.03898
-0.115263
1.17015
0.00956515
-0.0847245
-0.0250019
0.804675
0.163247
-0.067754
-0.0697639
1.49062
-0.178959
-0.285897
-0.351483
1.08783
-0.0808451
-0.461283
1.21028
-0.379666
-0.0151684
1.42207
-0.197967
1.13845
1.21018
1.03897
-0.0197523
1.42757
-0.0388603
1.20668
-0.0482318
1.37689
-0.0726905
-0.038194
-0.13931
-0.0245927
1.02923
-0.264953
-0.47059
1.15097
-0.0376386
0.245682
-0.0315119
0.548025
-0.404536
1.17627
-0.129471
-0.0559422
0.547059
1.07786
0.0710013
1.05087
-0.088892
-0.255837
1.2017
1.16974
0.332303
-0.364124
-0.0600193
-0.183456
1.15307
-0.102681
0.833111
1.03914
1.1852
1.19781
1.11115
1.2424
-0.00958052
-0.470128
-0.345338
-0.0362243
-0.0184797
1.21818
1.13331
0.0956344
-0.209755
1.20802
0.0665222
-0.0969224
-0.663867
-0.210154
0.0058058
0.495964
-0.14248
1.21536
1.12263
-0.343465
1.05593
1.15648
0.718596
-0.00555079
0.0986683
0.123608
1.20911
-0.123309
-0.162638
-0.234335
1.15177
-0.0182835
-0.098437
-0.0597425
-0.163976
1.15174
1.07532
-0.220478
-0.09754
-0.053931
1.13593
1.12978
1.39354
1.27025
1.1445
-0.100434
-0.18448
-0.343447
-0.64654
-0.0652041
1.19074
-0.360125
1.16854
1.34294
0.342229
1.13183
1.23212
1.16787
-0.367772
-0.0300109
-0.0742736
1.23228
-0.153543
1.23027
1.20118
1.24645
1.19762
0.794301
1.0698
1.21007
1.28088
-1.1471
1.05372
1.14901
-0.0273776
-0.522648
1.1698
1.217
-0.315329
-1.11787
1.1613
0.0490435
-0.093055
-0.174248
1.09915
1.20614
1.05182
0.830572
-0.00567713
1.13352
-0.254124
-0.0712572
-0.0322252
-0.0366581
1.07916
-0.0752287
1.08528
1.07262
1.48131
1.13716
1.05551
-0.160561
-0.325238
0.288719
-0.21065
0.00364059
-0.0781931
0.355814
-0.47561
1.05183
1.07887
-0.00882847
-0.0176489
-0.0803877
1.18249
-0.410436
1.31898
-0.185167
1.21774
-0.010766
-0.0528534
-0.343924
-0.156995
1.13235
1.20716
-0.196932
-0.350279
0.00632311
0.0295724
-0.102126
0.86305
0.917584
-0.00255495
1.24792
1.20541
-0.160528
-0.215395
-0.298304
-0.283463
-0.0221511
-0.0744612
-0.0568337
-0.682259
1.14326
0.882772
0.000737218
1.16409
0.608349
1.21535
-0.150409
-0.0774723
-0.04246
1.16146
-0.143767
1.18682
1.16516
-0.0638944
-0.253794
1.13171
1.22335
1.28416
-0.0595749
-0.0524001
-0.469134
0.506617
1.16283
-0.0917815
-0.133611
-0.451454
1.14138
-0.0439662
-0.0445896
1.18692
-0.0236199
0.827317
-0.0671218
-0.243112
0.357547
-0.223715
0.91119
1.26701
-0.195344
-0.109756
1.15253
-0.0405312
1.21137
-0.962844
-0.00107848
-0.850488
1.20548
-0.0133918
-0.268252
-0.286427
-0.0144075
-0.056696
1.13026
-0.00708619
-0.336945
1.05833
0.615838
-0.116597
-0.215086
-0.202171
-0.204207
1.17636
1.20433
-0.390685
1.19584
-0.154975
-0.0652216
-0.00625852
-0.251116
1.14514
-0.186117
-0.360754
-0.018384
-0.140719
-0.0887437
1.22377
-0.124027
-0.0165165
1.16412
0.947114
1.20284
-0.174061
0.816572
1.18576
-0.157032
-0.0609827
-0.0412428
1.08257
-0.529049
-0.21485
0.797276
-0.238749
1.03539
1.28858
0.864609
-0.636506
1.15967
-0.0549815
0.383531
-0.367525
1.06991
0.907357
1.13506
1.14396
-0.266107
-0.211151
-0.0334013
-0.484855
-0.23032
-0.627951
1.20444
0.687393
-0.305485
1.15256
-0.0361206
-0.0346377
0.758412
0.0937308
-0.165826
-0.204169
1.13687
-0.0788129
1.14447
-0.208064
1.08885
-0.780638
-0.168247
1.48967
-0.469825
-0.189004
1.07203
-0.22634
-0.0955491
-0.0231379
-0.199887
0.51637
-0.511944
-0.0282196
-0.276593
-0.403626
-0.183671
1.19951
-0.238693
1.21606
-0.201723
-0.0770549
-0.280764
0.460928
-0.0864591
-0.468113
1.16505
1.19742
1.15405
1.08789
-0.0653729
-0.191754
1.30129
-0.074075
-0.255268
1.13366
-0.393654
-0.526807
0.0111004
0.00604835
-0.234612
-0.117895
-0.0328685
0.00574561
1.16787
1.18186
-0.26951
1.19638
1.20795
-0.210772
1.13017
1.27444
-0.217044
1.50406
-0.928248
-0.0701584
-0.201881
1.18477
-0.122368
-0.056081
-0.0762284
-0.487373
1.14431
-0.0591041
-0.0875492
-0.0592434
-0.0133928
0.978702
-0.0344791
1.0568
-0.27523
-0.0480977
0.865518
1.1922
-0.2774
0.188935
-0.257399
-0.359118
-0.239651
1.24463
1.203
1.18787
0.0941762
-0.0175428
-0.0399629
-0.342809
-0.523175
1.51915
0.484883
1.07921
1.20082
-0.347799
1.14703
1.16527
0.0738554
-0.0273479
-0.722201
-0.363129
1.08741
1.01757
-0.0174194
-0.322866
-0.078944
-0.657188
-0.171634
1.20233
1.15404
-0.0812762
-0.0135599
-0.0372732
-0.06684
1.26965
-0.0791472
-0.0436213
-0.201662
1.03639
-0.238383
-0.436829
0.80681
-0.138096
1.09048
1.21237
-0.329932
-0.0511001
-0.207991
0.846785
0.831801
0.159664
-0.289978
-0.259028
-0.0897398
-0.299446
-0.0798814
1.16751
-0.651049
-0.285885
1.17547
-0.00563551
-0.0633905
0.994627
-0.0923463
1.16435
1.23164
1.33526
-0.15318
-0.00385671
1.0318
-0.059987
1.16347
1.06093
1.13092
-0.128406
1.03349
-0.131913
-0.186477
1.17947
-0.385063
-0.463144
-0.13203
-0.340507
-0.0141008
-0.139619
-0.00516302
1.16071
1.06881
1.21592
-0.0502065
1.12813
1.11563
-0.0629635
-0.365199
-0.0633028
-0.0452474
-0.00146724
0.811949
-0.289335
-0.189725
1.02633
0.193057
1.00065
-0.0158816
1.01751
-0.0400904
0.899465
1.18322
1.18401
-0.334432
-0.0118204
0.926891
-0.205503
1.02373
-0.0506986
-0.00103167
-0.259565
-0.0833116
1.17289
1.10063
-0.048436
-0.0455524
-0.0808901
-0.0130723
-0.313574
-0.0394181
1.17192
-0.471205
-0.0387346
1.08614
-0.221222
-0.192971
-0.115777
-0.345152
-0.279631
-0.00377265
-0.445406
-0.0761051
1.03173
1.18949
-0.0452731
-0.217785
0.209447
1.05595
-0.11085
1.20429
1.45731
-0.469455
1.13548
1.14917
-0.596767
-0.282328
1.20576
1.11985
1.20755
1.03198
1.08756
1.32601
-0.239584
0.197336
1.01179
1.20407
-0.266177
1.10455
-0.0494631
1.22992
0.964696
1.15265
-0.127757
-0.486688
-0.224017
1.15292
1.07107
-0.0625542
-0.0361327
1.16249
-0.0652012
-0.175632
1.25034
-0.064426
-0.0659785
-0.354714
-0.201295
-0.286961
1.14555
-0.25749
1.20419
0.899848
1.38313
0.583595
1.18559
-0.213365
1.35269
-0.323406
1.21844
1.18306
-0.34402
1.07187
1.19522
-0.300665
-0.139723
-0.256853
1.22095
0.861704
1.20661
-0.0765552
-0.0449015
-0.236404
0.663606
-0.182448
-0.160005
1.09914
1.01503
1.17641
0.778142
-0.142973
1.38632
0.23182
1.42011
-0.479645
-0.0528212
-0.0816947
-0.0784908
0.853253
0.283761
1.20418
0.00849431
-0.385641
1.16927
1.18065
-0.0346274
1.02845
1.13387
1.21944
-0.151708
1.21674
-0.261012
-0.364298
-0.0581522
-0.102323
1.01993
-0.203526
0.866761
-0.6402
-0.0999696
0.547918
-0.0662504
1.12305
1.07098
1.12184
0.997044
0.161565
0.902083
1.32762
-0.0473103
-0.315146
1.12119
0.809279
-0.532587
0.16959
1.14043
0.132927
1.25625
1.52155
-0.186904
1.19804
-0.039113
-0.0588862
0.879122
1.21071
-0.10172
-0.280833
1.14831
-0.02541
1.23142
1.41611
-0.0833682
0.888544
-0.0822881
1.16998
1.33166
-0.440954
0.800923
1.16444
-0.380675
0.951076
1.16753
1.17958
1.16738
0.565807
0.306257
-0.110481
-0.211377
-0.375748
1.16814
1.2031
-0.249906
-0.00288688
0.915874
0.749779
-0.0670686
1.28655
0.00318963
1.14903
-0.203241
1.22399
1.16314
-0.0178272
-0.136889
-0.119701
1.21428
1.16853
1.09506
1.10785
1.13419
-0.0791201
-0.0674128
-0.265584
-0.221867
-0.0253418
0.937816
1.12096
1.13754
-0.433342
1.15006
-0.0495456
-0.665327
1.13141
-0.0948854
-0.282778
1.19043
1.13124
0.407671
-0.219578
-0.166571
1.16764
-0.144856
-0.0421633
-0.306875
-0.0224995
-0.0726147
1.08719
-0.216153
-0.0735568
-0.472487
-0.237572
-0.201938
-0.0224686
1.18449
1.20044
-0.210804
1.21698
-0.0637749
-0.12041
-0.0488947
-0.125223
-0.191585
-0.272028
0.0230328
-0.208886
1.20588
-0.240308
-0.0623121
0.201894
-0.0127038
-0.299539
1.1682
-0.486985
1.20823
0.0235173
-0.729257
-0.20544
-0.238352
-0.123876
-0.0279574
1.25091
1.38917
1.10872
1.22675
1.21909
0.523222
1.16682
-0.277222
1.33051
-0.143932
-0.195808
1.00593
1.13959
-0.0855135
-0.118767
1.20869
0.563145
1.07048
1.47415
0.373709
-0.208629
1.18603
0.987013
0.957721
1.03417
1.40719
1.21237
0.03629
-0.280345
1.19974
0.153395
1.20525
1.0138
0.816698
1.22317
-0.134376
1.10772
1.13477
1.10529
1.11545
-0.0338162
1.17022
-0.0147071
-0.284863
-0.554067
-0.0457117
-0.0756868
-0.0406911
-0.0453331
-0.0739521
-0.0305468
0.0136017
1.06212
-0.0752718
0.719992
1.18155
1.22076
0.239873
-0.0360762
-0.0276208
1.14051
-0.246502