/*--------------------------------*- C++ -*----------------------------------*\
| =========                 |                                                 |
| \\      /  F ield         | OpenFOAM: The Open Source CFD Toolbox           |
|  \\    /   O peration     | Version:  3.0.1                                 |
|   \\  /    A nd           | Web:      www.OpenFOAM.org                      |
|    \\/     M anipulation  |                                                 |
\*---------------------------------------------------------------------------*/
FoamFile
{
    version     2.0;
    format      ascii;
    class       volScalarField;
    location    "0.116779";
    object      k;
}
// * * * * * * * * * * * * * * * * * * * * * * * * * * * * * * * * * * * * * //

dimensions      [0 2 -2 0 0 0 0];

internalField   nonuniform List<scalar> 
21246
(
0.24001
0.238527
0.107326
0.0508452
0.0277563
0.0192282
0.0159449
0.0144472
0.0135823
0.0129185
0.0122544
0.285211
0.370005
0.103837
0.0601975
0.0305474
0.0201704
0.0158211
0.013837
0.0127046
0.011893
0.0111929
0.328033
0.406415
0.108161
0.0698526
0.0320726
0.0211885
0.0158822
0.0134818
0.0121049
0.0111349
0.0102965
0.363031
0.378435
0.113468
0.0734499
0.032289
0.0219353
0.0158959
0.0132389
0.0116845
0.0106078
0.0097107
0.386972
0.349103
0.115626
0.0718337
0.0322636
0.0222963
0.0158053
0.0130411
0.0113713
0.0102439
0.00934427
0.400281
0.333792
0.116722
0.0690445
0.0324177
0.0223412
0.0156465
0.0128628
0.0111247
0.00997789
0.00909932
0.403842
0.328055
0.120034
0.0670463
0.0328106
0.0222116
0.0154991
0.0127009
0.0109199
0.00976659
0.00889232
0.398655
0.3285
0.124225
0.066928
0.0334112
0.0220271
0.01541
0.0125538
0.0107464
0.00959334
0.00873885
0.386514
0.332656
0.129849
0.0682646
0.0346487
0.02204
0.0154134
0.0124296
0.0106058
0.00944698
0.00859956
0.369012
0.339221
0.139682
0.0717279
0.0367075
0.0224961
0.0156531
0.0123924
0.0105204
0.009326
0.00847417
0.346591
0.349131
0.153118
0.077388
0.0397009
0.0235083
0.0161159
0.0124645
0.0104958
0.00924743
0.00837582
0.32025
0.363186
0.168816
0.084803
0.0435568
0.0251081
0.0168255
0.0126791
0.010537
0.00920616
0.00829952
0.292009
0.380225
0.188157
0.0947498
0.0487512
0.0275153
0.0179064
0.0131022
0.0106748
0.00921665
0.00825258
0.263237
0.398846
0.21315
0.108772
0.0561548
0.0311495
0.0195922
0.0138483
0.0109703
0.00930911
0.00825054
0.235036
0.42212
0.243485
0.12711
0.066118
0.03629
0.0221105
0.0150504
0.0115054
0.00952933
0.00831908
0.209892
0.450172
0.281458
0.151742
0.0799599
0.0436994
0.0259229
0.0169741
0.0124345
0.00996395
0.00850699
0.190347
0.481267
0.330122
0.186272
0.100169
0.0548751
0.0319138
0.0201318
0.0140539
0.0107822
0.00891024
0.179528
0.519089
0.392284
0.234423
0.129896
0.0719889
0.0414944
0.0254164
0.0169141
0.0123118
0.00972111
0.180186
0.562588
0.470698
0.302764
0.175186
0.0993784
0.0575424
0.0346849
0.0221913
0.0152822
0.0113822
0.190333
0.601929
0.561038
0.398123
0.246021
0.145456
0.0861127
0.0520539
0.0326085
0.0214571
0.0150084
0.200941
0.618962
0.64283
0.517857
0.354229
0.225175
0.139993
0.0871268
0.0549693
0.0355072
0.0237323
0.207956
0.601464
0.685355
0.634594
0.499179
0.356215
0.241988
0.160837
0.10616
0.0702567
0.0469058
0.186162
0.53978
0.630686
0.653249
0.601535
0.502367
0.390787
0.290399
0.209867
0.149688
0.105673
0.261898
0.56916
0.645
0.665941
0.61827
0.546418
0.464872
0.383508
0.308726
0.244441
0.190541
0.197655
0.211894
0.104627
0.047598
0.0264854
0.0191908
0.0165478
0.0154458
0.0149146
0.0146018
0.0143494
0.219981
0.215496
0.0833144
0.0480721
0.0293422
0.0213219
0.0179843
0.0166474
0.016111
0.0159251
0.0158568
0.246054
0.226685
0.0743669
0.0508287
0.031466
0.0236587
0.0203275
0.0190251
0.0185776
0.0185037
0.0186269
0.268011
0.20488
0.0703459
0.0524394
0.031971
0.0243968
0.0210867
0.0200313
0.0200403
0.0206083
0.0215091
0.283917
0.174761
0.0675653
0.0513412
0.031548
0.0245875
0.021292
0.0203128
0.0204644
0.021286
0.0225738
0.295449
0.150372
0.064803
0.0488474
0.0307457
0.0244701
0.0212144
0.0202866
0.0205261
0.0215887
0.0233878
0.304496
0.132685
0.0620184
0.0461121
0.0298667
0.0241951
0.0209752
0.0200788
0.0202908
0.0213478
0.0231616
0.311025
0.119605
0.0592395
0.043594
0.0290297
0.0238024
0.0206603
0.0197622
0.0198616
0.0207332
0.0222215
0.316716
0.109758
0.0567163
0.0414761
0.0283668
0.0233564
0.0203294
0.019392
0.0193483
0.0199866
0.0211082
0.322809
0.1025
0.0545982
0.0398001
0.0279114
0.0229499
0.0200204
0.0190192
0.0188353
0.0192611
0.0200756
0.330246
0.0975505
0.0530303
0.0386294
0.0276496
0.0226525
0.0197694
0.0186871
0.018381
0.0186508
0.0192819
0.338419
0.0941302
0.051846
0.0378649
0.02757
0.0224828
0.019602
0.0184262
0.0180167
0.018185
0.0187554
0.346372
0.0930001
0.051141
0.0375082
0.0277349
0.0224703
0.0195527
0.018257
0.0177559
0.0178518
0.0184344
0.353247
0.0949338
0.0513573
0.0375437
0.0282619
0.0227097
0.0197099
0.0182382
0.0176432
0.0176732
0.0182912
0.359104
0.0984717
0.0522641
0.0379331
0.029088
0.0232419
0.0200981
0.018405
0.0176913
0.0176426
0.0182622
0.364087
0.103912
0.0540843
0.0387718
0.0302186
0.0241327
0.0207706
0.0188135
0.0179286
0.0177624
0.0183089
0.368289
0.111525
0.0571799
0.040238
0.031698
0.025449
0.0218043
0.0195442
0.0184151
0.0180653
0.0184427
0.37172
0.121194
0.0618588
0.0425718
0.0336161
0.0272457
0.0232886
0.0207007
0.0192525
0.0186313
0.0187162
0.374398
0.132925
0.0685992
0.046186
0.0362016
0.029612
0.0253289
0.0224078
0.0205893
0.0196113
0.0193038
0.376337
0.146859
0.0780858
0.0517848
0.0399458
0.0327756
0.0280813
0.0248162
0.0226156
0.0212347
0.0204821
0.377483
0.162993
0.0911519
0.0604691
0.0457928
0.0373131
0.0318857
0.0281526
0.0255481
0.0237662
0.0225866
0.37773
0.181085
0.108679
0.0738042
0.0553786
0.0445078
0.0375803
0.0329034
0.029652
0.0273755
0.0257827
0.376341
0.203979
0.133602
0.0949502
0.0720071
0.0574485
0.0477508
0.0410646
0.0363603
0.0330207
0.0306192
0.330175
0.248772
0.196975
0.162525
0.143035
0.132569
0.127735
0.125808
0.125022
0.124585
0.123508
0.804695
1.32358
0.965992
0.713103
0.479102
0.301544
0.18876
0.124594
0.0893441
0.0716446
0.0660698
0.720747
1.05919
0.942867
0.761114
0.559969
0.371174
0.22105
0.139166
0.0952464
0.0741213
0.0685983
0.570305
0.802805
0.852075
0.755965
0.603742
0.432813
0.275415
0.168273
0.105522
0.0774321
0.0693721
0.39322
0.644149
0.749717
0.723011
0.62119
0.478763
0.328718
0.208355
0.127695
0.0851269
0.069166
0.235038
0.532523
0.658466
0.68006
0.623096
0.512134
0.377431
0.253593
0.159265
0.101281
0.0728407
0.13785
0.452037
0.588967
0.637188
0.614757
0.534606
0.419742
0.300186
0.198038
0.125974
0.0834005
0.117946
0.40172
0.551206
0.606511
0.60349
0.547905
0.453709
0.343982
0.240175
0.157735
0.101499
0.107125
0.346071
0.525346
0.592146
0.598096
0.55687
0.47936
0.381614
0.281264
0.193362
0.125969
0.0882485
0.266373
0.464813
0.572754
0.59761
0.565262
0.498452
0.41155
0.317644
0.228981
0.154236
0.0711203
0.198114
0.365504
0.518228
0.585401
0.569458
0.511225
0.43313
0.346774
0.260943
0.182858
0.0598499
0.15402
0.271363
0.427979
0.542451
0.558992
0.514319
0.444997
0.366697
0.286192
0.208239
0.0524987
0.127643
0.207626
0.330613
0.468557
0.526211
0.50327
0.445295
0.376002
0.302497
0.227403
0.0476966
0.11223
0.16683
0.251275
0.379005
0.470958
0.475689
0.432705
0.373981
0.308588
0.238013
0.0435481
0.100949
0.141406
0.200688
0.29246
0.396863
0.4318
0.406629
0.360175
0.303713
0.238272
0.0392826
0.0913145
0.12179
0.165991
0.230009
0.313437
0.372827
0.367708
0.334486
0.287447
0.227978
0.0354084
0.0829617
0.105942
0.13946
0.184606
0.243974
0.301853
0.318668
0.298756
0.26159
0.208863
0.0319133
0.0756085
0.0926116
0.118734
0.150213
0.190821
0.235889
0.264125
0.25887
0.232308
0.187418
0.029383
0.0699231
0.0830187
0.103712
0.125556
0.153017
0.186077
0.216395
0.226665
0.21296
0.178187
0.0287874
0.0682224
0.078571
0.0952399
0.110964
0.130647
0.156599
0.187422
0.211817
0.213452
0.189417
0.0316945
0.0707733
0.0790428
0.0928386
0.104832
0.120133
0.142145
0.171527
0.197979
0.206138
0.192817
0.0358684
0.0728361
0.0806198
0.0923572
0.102171
0.115055
0.136067
0.161807
0.175818
0.17962
0.174049
0.038678
0.0734829
0.0791449
0.0904442
0.100986
0.11534
0.134082
0.148145
0.153187
0.154749
0.153728
0.0375737
0.062
0.0737073
0.0866454
0.101839
0.122133
0.140555
0.151424
0.154887
0.153281
0.14843
0.0580552
0.0660673
0.0853936
0.110623
0.136564
0.156827
0.168483
0.170845
0.165612
0.156515
0.146466
0.830937
1.12473
0.932216
0.657142
0.429957
0.274225
0.177541
0.120329
0.0874497
0.0701341
0.0639872
0.610563
0.938757
0.853208
0.663922
0.462767
0.30438
0.197424
0.130916
0.0914712
0.0696196
0.0600431
0.524194
0.849888
0.823643
0.699934
0.521636
0.355475
0.231949
0.150623
0.100588
0.0715991
0.0571145
0.453299
0.738404
0.763643
0.712603
0.578456
0.417714
0.279761
0.180925
0.116949
0.0781252
0.0569599
0.39651
0.63897
0.693276
0.685264
0.607289
0.482982
0.345801
0.230372
0.147679
0.0939452
0.0624961
0.345674
0.551821
0.62595
0.642755
0.599887
0.51132
0.398722
0.287739
0.195452
0.125994
0.0780281
0.296421
0.472835
0.559296
0.59405
0.579313
0.520807
0.429571
0.326377
0.232197
0.156571
0.10027
0.24899
0.400809
0.493009
0.540787
0.548853
0.51729
0.448716
0.357658
0.266108
0.18818
0.127229
0.204491
0.335344
0.427803
0.484582
0.511
0.503226
0.457355
0.381198
0.295437
0.217326
0.152505
0.165687
0.276961
0.365616
0.427525
0.467914
0.48053
0.456493
0.396789
0.319077
0.24298
0.177269
0.134134
0.228892
0.309312
0.372302
0.421928
0.451211
0.447286
0.404597
0.336348
0.264249
0.201533
0.110285
0.191753
0.262698
0.323802
0.377367
0.417263
0.430463
0.405129
0.346903
0.279453
0.220558
0.09382
0.164865
0.22688
0.284105
0.33768
0.382672
0.40724
0.397359
0.351514
0.288699
0.233895
0.0833877
0.14682
0.200994
0.253402
0.304244
0.349948
0.380687
0.382313
0.348068
0.29195
0.240691
0.0773797
0.136005
0.183715
0.231019
0.277345
0.320427
0.352819
0.361933
0.337947
0.288883
0.239906
0.0743331
0.130214
0.172944
0.215291
0.25616
0.294345
0.324795
0.33759
0.322167
0.28074
0.234022
0.073101
0.127551
0.16673
0.204493
0.239583
0.271535
0.297428
0.310549
0.301624
0.268261
0.225378
0.0729946
0.126783
0.163609
0.197298
0.226755
0.25192
0.271589
0.282307
0.277495
0.252175
0.214767
0.0736329
0.126946
0.16238
0.192628
0.217009
0.235545
0.248272
0.254672
0.251526
0.233402
0.203185
0.0746779
0.127054
0.161818
0.189451
0.209761
0.222556
0.228565
0.229629
0.225863
0.213102
0.189889
0.0756421
0.125891
0.160587
0.186664
0.204371
0.213056
0.213562
0.209288
0.203204
0.193279
0.176505
0.0767055
0.123406
0.15782
0.183218
0.199932
0.206621
0.203712
0.195144
0.185853
0.176338
0.163747
0.0755908
0.114501
0.149797
0.176521
0.193913
0.200811
0.197295
0.186787
0.174787
0.163981
0.153152
0.0863025
0.123713
0.156813
0.176801
0.189391
0.194537
0.191472
0.181666
0.16913
0.157327
0.146702
0.816059
1.17626
0.952371
0.689635
0.456253
0.282074
0.169851
0.101669
0.0603978
0.0356531
0.021417
0.617597
0.9057
0.833469
0.637351
0.43375
0.274682
0.16738
0.100019
0.0590736
0.0347376
0.0208557
0.454849
0.763962
0.748517
0.61491
0.439723
0.286209
0.176089
0.104789
0.0610261
0.0352845
0.0209735
0.366601
0.66283
0.683283
0.590073
0.441204
0.296312
0.185814
0.111946
0.0656867
0.0380154
0.022409
0.307207
0.540911
0.588875
0.547302
0.436245
0.306731
0.196976
0.119725
0.0702095
0.040141
0.0229956
0.276223
0.465959
0.510251
0.485093
0.401766
0.29418
0.195194
0.121193
0.0720686
0.0417998
0.0245599
0.257873
0.416844
0.4567
0.435195
0.363183
0.270222
0.183637
0.117123
0.0713249
0.0420104
0.0246912
0.245729
0.380646
0.415303
0.394972
0.331178
0.249091
0.172005
0.111816
0.0694741
0.041775
0.0254311
0.236664
0.35205
0.381845
0.361837
0.303735
0.229945
0.160683
0.106186
0.0672772
0.041256
0.0254392
0.22885
0.328053
0.354264
0.334887
0.281291
0.213939
0.150855
0.100993
0.0649725
0.0403641
0.0248519
0.222025
0.307542
0.33129
0.312925
0.263182
0.200989
0.142755
0.0965252
0.0627929
0.0393945
0.024646
0.216746
0.290324
0.312152
0.294825
0.248421
0.190517
0.136206
0.0928621
0.0609451
0.0385506
0.0242838
0.212591
0.275611
0.296162
0.280074
0.236705
0.182418
0.131254
0.0901549
0.0596389
0.0380344
0.0242565
0.208907
0.262664
0.282728
0.268366
0.227943
0.176718
0.127997
0.0885196
0.058962
0.0378745
0.024485
0.206214
0.25152
0.271454
0.259055
0.221541
0.173056
0.126284
0.0879347
0.0589281
0.0380341
0.0245145
0.204429
0.241699
0.262036
0.251966
0.217477
0.17152
0.126252
0.0885313
0.0596352
0.0385747
0.0247687
0.203296
0.23268
0.254139
0.247063
0.215961
0.172438
0.128227
0.0905612
0.0612494
0.0395998
0.0252847
0.203169
0.224416
0.247429
0.244062
0.216899
0.175942
0.132462
0.094286
0.0640021
0.0412958
0.0261302
0.204332
0.216772
0.241216
0.241957
0.219751
0.182149
0.139445
0.100225
0.0683199
0.0440074
0.0276539
0.207037
0.209357
0.235256
0.240343
0.223714
0.190133
0.148565
0.108217
0.0743587
0.0481618
0.0301977
0.211798
0.20207
0.229102
0.238819
0.228202
0.199302
0.159543
0.118441
0.0826212
0.0543538
0.0344094
0.220468
0.193992
0.222841
0.236444
0.231829
0.208252
0.171524
0.1309
0.0938064
0.0635771
0.0413361
0.231907
0.186017
0.213704
0.233109
0.234163
0.216069
0.183703
0.145462
0.10858
0.0770194
0.0524424
0.255479
0.195191
0.22283
0.225964
0.226993
0.215094
0.190786
0.159158
0.125907
0.0950996
0.0692183
0.769734
1.09949
0.956421
0.764526
0.566017
0.359374
0.214408
0.126032
0.0725012
0.0414496
0.0243055
0.624927
0.816789
0.855032
0.767131
0.624899
0.448274
0.287401
0.166443
0.095075
0.0533419
0.0298087
0.34317
0.674152
0.753721
0.727175
0.636612
0.498446
0.347469
0.21512
0.124151
0.0704343
0.0391227
0.309532
0.693026
0.747668
0.71151
0.637804
0.525645
0.391135
0.259561
0.156775
0.0917956
0.0531801
0.341086
0.752389
0.901194
0.801492
0.679602
0.556708
0.426963
0.29855
0.1899
0.114566
0.0699347
0.348403
0.71454
1.09173
1.07115
0.841327
0.637777
0.47523
0.337323
0.222853
0.138828
0.0870571
0.354889
0.680482
1.07168
1.34814
1.14664
0.819513
0.567102
0.388656
0.258126
0.164486
0.104879
0.361698
0.654075
1.02644
1.4279
1.48884
1.12226
0.736874
0.472001
0.302615
0.19241
0.123686
0.368501
0.628865
0.972101
1.3797
1.70246
1.48578
0.995279
0.604646
0.365412
0.225257
0.143696
0.375681
0.604977
0.914534
1.29533
1.69119
1.75167
1.29197
0.783473
0.450821
0.265469
0.165357
0.383587
0.585846
0.858303
1.19332
1.58382
1.84805
1.54487
0.976858
0.550996
0.3119
0.188711
0.392783
0.572766
0.807449
1.08412
1.4318
1.77005
1.67938
1.1332
0.643551
0.357134
0.211666
0.403824
0.569496
0.765965
0.980272
1.26551
1.60548
1.68108
1.21064
0.701954
0.390074
0.230525
0.416752
0.573622
0.733338
0.889221
1.10096
1.39432
1.56854
1.19315
0.708808
0.401969
0.242688
0.432763
0.58644
0.710509
0.813912
0.952025
1.15143
1.34799
1.09901
0.662419
0.3912
0.247938
0.449754
0.605525
0.693127
0.745717
0.81648
0.922378
1.02001
0.961445
0.594418
0.365884
0.249154
0.46897
0.633586
0.683893
0.685426
0.695025
0.731902
0.770949
0.75462
0.545072
0.344473
0.250465
0.492631
0.676745
0.692986
0.647706
0.609957
0.605979
0.617872
0.609225
0.506904
0.356522
0.264974
0.525146
0.745689
0.737834
0.6527
0.580627
0.556418
0.561531
0.562353
0.518095
0.422521
0.305737
0.574828
0.863164
0.857153
0.740467
0.636251
0.597649
0.604761
0.616682
0.597283
0.527588
0.372551
0.654473
1.06707
1.10218
0.978509
0.838353
0.763506
0.703536
0.660702
0.609126
0.495722
0.354143
0.695179
1.20565
1.27031
1.17568
0.940484
0.640951
0.524926
0.428006
0.347007
0.272789
0.207459
0.489688
0.790804
0.779759
0.613508
0.462763
0.357081
0.28862
0.237895
0.19643
0.159949
0.126437
0.305137
0.24244
0.219584
0.209606
0.206341
0.202426
0.192539
0.174651
0.150267
0.122664
0.0953697
0.12385
0.123413
0.121188
0.114848
0.104534
0.0860729
0.0553517
0.0240967
0.0193782
0.189833
0.176924
0.164299
0.147723
0.126145
0.101526
0.0746433
0.0491418
0.0335441
0.183319
0.171334
0.159216
0.150203
0.138744
0.120955
0.0940875
0.0639012
0.0438112
0.14899
0.143332
0.13732
0.136124
0.131769
0.122432
0.102984
0.0744337
0.0522738
0.12659
0.140598
0.137456
0.12766
0.114718
0.0948997
0.0638071
0.0275248
0.0204336
0.21081
0.219824
0.20525
0.184341
0.15639
0.125633
0.095193
0.0633589
0.0334542
0.202593
0.21264
0.196932
0.181007
0.168101
0.149846
0.121594
0.0830895
0.0453897
0.166366
0.17939
0.169787
0.162347
0.155943
0.146981
0.129085
0.0964847
0.0561617
0.00442675
0.00460082
0.00461617
0.00481404
0.00837017
0.00438258
0.0170377
0.00454802
0.00437546
0.00426738
0.00898805
0.00455865
0.00480567
0.00425868
0.00448348
0.00430085
0.00419999
0.00475508
0.00429017
0.00424144
0.00415026
0.0101756
0.00466601
0.00452431
0.00449258
0.00425478
0.0047935
0.0165874
0.0109591
0.00566106
0.00424491
0.00488464
0.00426204
0.00453569
0.00495494
0.00459191
0.0045159
0.00448766
0.00428967
0.00438987
0.00778648
0.00454501
0.0043573
0.00465915
0.032899
0.0275962
0.00445728
0.0539695
0.00482772
0.0043405
0.00550631
0.00439554
0.00447966
0.00436371
0.00433247
0.00413935
0.00955771
0.00440127
0.0109563
0.00419793
0.00566894
0.00445296
0.00969789
0.00993219
0.0156536
0.00425401
0.00476976
0.00433297
0.0046013
0.00425119
0.00413089
0.00428763
0.00514085
0.00455305
0.00424297
0.00425843
0.00751403
0.00459808
0.0155992
0.0668878
0.00437634
0.00991272
0.00449488
0.00462604
0.004879
0.00507875
0.0768727
0.00438849
0.0131203
0.00443437
0.00454382
0.00441179
0.0115871
0.00437518
0.0643206
0.0937098
0.00421302
0.00452098
0.0117899
0.00434657
0.00508724
0.0416565
0.00416049
0.00469199
0.00606877
0.00455447
0.00416731
0.00464658
0.00442279
0.00496548
0.00450781
0.00456014
0.00429753
0.00582895
0.00445293
0.00442231
0.00437797
0.00431485
0.00449875
0.00413892
0.00612633
0.00448022
0.00582582
0.00414536
0.0226328
0.00466469
0.00431517
0.00415739
0.00421562
0.00430196
0.00445109
0.00420111
0.0460806
0.00426295
0.00461407
0.00498733
0.00485757
0.00915806
0.00576555
0.00496099
0.00433655
0.00435328
0.024144
0.00421864
0.00437089
0.00517567
0.00495872
0.00432244
0.00430532
0.00424305
0.00428125
0.00441688
0.00517624
0.00446377
0.00529697
0.00436939
0.00467365
0.0108949
0.00407212
0.00435791
0.00432691
0.00486204
0.00427996
0.00443004
0.00481833
0.00446245
0.0111556
0.0044399
0.00458081
0.0165696
0.0042244
0.00410774
0.00465197
0.00422274
0.00485799
0.0045934
0.00415523
0.00511053
0.034185
0.0044972
0.004315
0.00781963
0.00465951
0.00636751
0.00450347
0.00702536
0.00425769
0.00430007
0.00458819
0.0173615
0.00440814
0.00420856
0.0042683
0.00811915
0.00460933
0.00439751
0.00435426
0.00922275
0.00432395
0.00467916
0.00459196
0.00433886
0.00438173
0.00426398
0.00462724
0.00440089
0.00436528
0.00421414
0.00434876
0.00433635
0.00441967
0.00439346
0.00433132
0.00489869
0.00449035
0.00420434
0.00451113
0.00463343
0.00428252
0.00457499
0.00438985
0.00570735
0.0042254
0.00447483
0.00413659
0.00440614
0.00615978
0.00445182
0.00437715
0.0117589
0.0125205
0.00425157
0.00427421
0.00446937
0.0051571
0.120848
0.0044242
0.00464601
0.00456244
0.00455004
0.00461645
0.00533672
0.00467114
0.00820384
0.00465011
0.0050863
0.00451747
0.00428026
0.0931179
0.00430794
0.00427849
0.00442143
0.00572512
0.00429562
0.00456713
0.00436072
0.00414382
0.0044733
0.00510475
0.00425075
0.00414097
0.00498174
0.00432366
0.00457493
0.00450567
0.00456303
0.00442215
0.00483066
0.00588005
0.00427941
0.00933341
0.00432064
0.00433191
0.00447003
0.00438764
0.00432713
0.00416533
0.00444639
0.00466833
0.00566257
0.00432083
0.0046015
0.00437526
0.00441596
0.00457768
0.00439475
0.0250192
0.00459157
0.00473447
0.00433456
0.0046186
0.0157386
0.0046094
0.00425701
0.0046788
0.00435437
0.00458338
0.00456558
0.0049433
0.00417558
0.00444528
0.00599465
0.0049629
0.00573192
0.00414905
0.0050272
0.00459922
0.00443201
0.0074265
0.00435079
0.0166135
0.00456698
0.00506898
0.00425859
0.0125862
0.00433312
0.00449362
0.0075149
0.00413693
0.00446994
0.0042529
0.00438417
0.00435518
0.00419726
0.0114667
0.00431541
0.00445111
0.00438541
0.0042346
0.00424368
0.00440606
0.0102487
0.00606923
0.00464946
0.00486419
0.117372
0.00470658
0.0045873
0.00447325
0.00449336
0.00466183
0.004426
0.00433205
0.00446806
0.0080592
0.00442868
0.00430472
0.00437674
0.0045459
0.0043287
0.0172515
0.00452415
0.00428983
0.00416286
0.00415072
0.00468916
0.00440476
0.00436709
0.0046603
0.00424865
0.0043328
0.00425487
0.00451881
0.00451134
0.0043067
0.0120735
0.00411406
0.00435692
0.0171636
0.00532378
0.00443963
0.00793316
0.112959
0.00417956
0.00417315
0.00461039
0.00439728
0.00495207
0.00437549
0.00425061
0.00439034
0.00438376
0.00509255
0.00441297
0.00421394
0.00448702
0.00609462
0.0041376
0.0052098
0.0133315
0.00442716
0.0151489
0.00415686
0.00461002
0.00451092
0.0143612
0.00447774
0.00428682
0.00462211
0.00442233
0.00511436
0.00440899
0.00466139
0.0043267
0.00431262
0.00781386
0.0126999
0.00448564
0.00433621
0.00438019
0.00432001
0.00427551
0.00434607
0.00433522
0.00511166
0.00505791
0.00440866
0.00469988
0.00414629
0.012375
0.00627488
0.00412536
0.0177811
0.00440328
0.00467411
0.00491478
0.00451523
0.00470345
0.00483849
0.0181806
0.00448528
0.00512783
0.0041792
0.00414643
0.00493993
0.00445101
0.00494627
0.00557384
0.00414799
0.00468843
0.00456555
0.0835773
0.0043827
0.00607156
0.00420188
0.00443738
0.00418825
0.00409651
0.00434207
0.00450143
0.00443937
0.00461313
0.00449961
0.011957
0.00496249
0.0174912
0.00422357
0.00449903
0.00466857
0.00459012
0.00433754
0.0043196
0.00414094
0.00453901
0.00427768
0.00749733
0.00679007
0.00545505
0.00546768
0.00439227
0.0045455
0.00505781
0.00421619
0.00560035
0.00424573
0.00458788
0.00432832
0.00557871
0.00515863
0.00426419
0.00444914
0.00414917
0.00999134
0.00727355
0.00464745
0.00509023
0.0139461
0.00419922
0.00444431
0.00433787
0.00439146
0.00439553
0.00423612
0.0044016
0.0042605
0.00405152
0.00425784
0.00415714
0.00440251
0.00476156
0.00437081
0.00437466
0.00454144
0.00453387
0.0878277
0.00447625
0.00565588
0.0044113
0.0296884
0.0046193
0.00468917
0.00442932
0.0139073
0.00445308
0.00512387
0.00449673
0.00443162
0.00415021
0.00445166
0.00424212
0.00413766
0.00459976
0.00442536
0.00457377
0.00425092
0.00439367
0.00451807
0.00435153
0.00487785
0.00443685
0.021689
0.0051569
0.00446755
0.00412953
0.0131144
0.00467865
0.0044759
0.00463532
0.00876609
0.00538392
0.00450142
0.00448776
0.00414607
0.00461665
0.00436576
0.00460706
0.00436101
0.00463102
0.0118752
0.0042749
0.00411523
0.0352483
0.00467821
0.00415644
0.00447044
0.00429805
0.00460788
0.00445454
0.00433673
0.00422985
0.00429614
0.0158521
0.0936491
0.00449146
0.00434008
0.00459785
0.00418661
0.00440817
0.0043222
0.00454495
0.00437213
0.00440512
0.00431377
0.0042588
0.00423039
0.00447841
0.011648
0.00442939
0.00445148
0.0044627
0.0044241
0.00433778
0.00422806
0.00414678
0.0048316
0.0154427
0.00446849
0.00463817
0.00467354
0.0623687
0.00440579
0.00421834
0.00571407
0.00442725
0.00417866
0.00464727
0.00447353
0.00419959
0.00443658
0.00449212
0.0872267
0.00457979
0.00418775
0.00424428
0.00450074
0.0125687
0.00424152
0.00445064
0.00427292
0.00426696
0.00427297
0.00435503
0.00442816
0.00596996
0.00483267
0.00579329
0.00428803
0.00452761
0.00424797
0.0044544
0.0963461
0.00441152
0.00438171
0.00438783
0.00462678
0.00415844
0.00433169
0.00583258
0.004607
0.00438088
0.00453138
0.00425989
0.00432779
0.00417834
0.00412929
0.0119261
0.00438446
0.00531202
0.0045699
0.00429433
0.0120832
0.00478055
0.00407936
0.00462125
0.00416745
0.0116653
0.00456317
0.00420905
0.00484765
0.00418369
0.00435335
0.0835544
0.00424593
0.00629935
0.00442327
0.00572788
0.00455003
0.00429587
0.00445766
0.00493367
0.00422735
0.00445405
0.00418265
0.00459434
0.00532573
0.00582476
0.0122755
0.00424987
0.00423379
0.00430968
0.00430211
0.0044299
0.0182212
0.0042826
0.00435406
0.00434589
0.00442824
0.00447469
0.00465963
0.00425269
0.00656158
0.00427079
0.0782978
0.00432051
0.00483113
0.00463637
0.00410998
0.00414514
0.0123262
0.00432599
0.00436856
0.00503722
0.00463255
0.00428137
0.00419421
0.00505635
0.00455842
0.00440009
0.00440298
0.0047935
0.00439663
0.00456222
0.00413318
0.00437168
0.00445133
0.0040735
0.00446025
0.00604047
0.00865021
0.00427885
0.00497054
0.0044847
0.0045584
0.00449835
0.00424492
0.0173178
0.00446799
0.00425149
0.00449069
0.0043865
0.0174424
0.00499076
0.0043559
0.00425924
0.00431371
0.00443575
0.00413779
0.00456446
0.00458472
0.00436759
0.00436105
0.00434819
0.00473887
0.00443346
0.00422482
0.00417852
0.00445276
0.0045099
0.00456351
0.00641508
0.0045266
0.00425007
0.0173103
0.00454988
0.0211727
0.00413059
0.00464576
0.00432835
0.00437967
0.00422433
0.00440822
0.00410345
0.0043337
0.00417385
0.00457298
0.00425216
0.00427607
0.00425808
0.00447201
0.00442212
0.00441714
0.00428803
0.00494826
0.025487
0.00446089
0.00419932
0.00437676
0.00441189
0.00569961
0.0105942
0.00447257
0.00443499
0.00427233
0.0054968
0.00428661
0.00487037
0.00441289
0.00426108
0.00458925
0.00469043
0.00448719
0.00503512
0.0146527
0.00440539
0.00446389
0.00457924
0.00426119
0.0048101
0.00455652
0.00457856
0.00462498
0.00448064
0.00459706
0.00414429
0.0145324
0.00711687
0.00413268
0.00478888
0.00442699
0.00449863
0.00431145
0.00446146
0.00459542
0.00463924
0.0041274
0.0255395
0.00445067
0.00513068
0.0044684
0.00440066
0.00443041
0.00446239
0.0213575
0.0042123
0.00456868
0.00490863
0.00450093
0.00459402
0.00449151
0.00455654
0.00459604
0.0139677
0.00502296
0.00456703
0.00418241
0.00440673
0.00439782
0.00449726
0.00464025
0.00428003
0.00470158
0.00435013
0.00441517
0.00460078
0.00418019
0.00457724
0.00433426
0.00459333
0.00417015
0.00420561
0.0219412
0.0199905
0.00434876
0.00455079
0.00670864
0.0046695
0.00427888
0.00590706
0.00448724
0.00441584
0.00441522
0.00797672
0.00436292
0.00436463
0.00441285
0.00440398
0.0044228
0.00468809
0.00434087
0.00438418
0.00478862
0.00449502
0.00456028
0.00434206
0.131652
0.0043791
0.00424991
0.00504962
0.0201295
0.00428649
0.00450764
0.0091894
0.134378
0.00424249
0.00494578
0.00428165
0.00451519
0.00465095
0.00454032
0.00435584
0.00424176
0.00430548
0.00460034
0.00485514
0.00425675
0.00438817
0.00426123
0.00458007
0.00426067
0.00564062
0.00444109
0.00446182
0.00443106
0.00460848
0.00453311
0.0212221
0.00522671
0.00445559
0.00439134
0.00440914
0.00455999
0.0115619
0.00466333
0.00455998
0.00414871
0.00433198
0.00425457
0.00439621
0.00938532
0.00429906
0.00460715
0.00430961
0.00415407
0.00408761
0.00516774
0.00426667
0.00418723
0.00452791
0.00429061
0.00670573
0.00431004
0.00489929
0.00429199
0.00468216
0.00420631
0.00435948
0.00437947
0.0046037
0.00421354
0.0192105
0.00791611
0.0041223
0.00423356
0.00425939
0.00421284
0.0278915
0.00451936
0.00465244
0.00432829
0.00439615
0.00602142
0.0044957
0.00443499
0.00425821
0.00448605
0.00460425
0.00411564
0.00464564
0.00440501
0.00440615
0.00540848
0.00426235
0.00445981
0.00433603
0.00498851
0.00475172
0.0120209
0.00523461
0.00416823
0.0079475
0.00463891
0.0124183
0.00461009
0.0044768
0.00426158
0.00460116
0.00460301
0.00457747
0.00435423
0.00471783
0.00464489
0.00494106
0.00436704
0.00434378
0.0048103
0.00442091
0.00423885
0.00446483
0.00455524
0.122069
0.0045066
0.0864263
0.00455307
0.00447959
0.00619856
0.00618185
0.00410812
0.00408477
0.00467577
0.0041814
0.0103492
0.00456268
0.00438536
0.00416623
0.00490554
0.00447182
0.0043225
0.00445269
0.00432529
0.0146288
0.00422001
0.0127852
0.00430147
0.00447462
0.00443689
0.00460256
0.0047926
0.00900651
0.00480454
0.00443233
0.00443314
0.00439044
0.00453627
0.00418003
0.00454419
0.00509515
0.0046787
0.00425747
0.00466071
0.00461093
0.00434306
0.00436149
0.00420686
0.00452416
0.0169368
0.00481927
0.00414106
0.0044891
0.00455608
0.00435761
0.00499518
0.0189245
0.00436875
0.00420288
0.0047509
0.0107996
0.00450593
0.00417358
0.00450296
0.00437481
0.00554389
0.00424839
0.00428705
0.0301698
0.019902
0.025963
0.00418979
0.00497074
0.00590926
0.0046285
0.0041029
0.00434166
0.0049113
0.00541773
0.00446593
0.00430704
0.0041809
0.00415434
0.00454987
0.00431415
0.00469532
0.0775896
0.00458328
0.00462053
0.013048
0.00450244
0.00426891
0.00450735
0.00440388
0.0049583
0.00445877
0.00596647
0.0244542
0.00429765
0.00631919
0.0289157
0.00442114
0.00461139
0.00446867
0.00472386
0.00423134
0.0041569
0.00686266
0.00444853
0.00438689
0.0308155
0.00437286
0.00431823
0.00435977
0.00457395
0.00426639
0.00420587
0.00422139
0.00414068
0.00547396
0.00447233
0.0194285
0.0131362
0.00493902
0.00548372
0.00452322
0.00449114
0.00406815
0.00437983
0.00442072
0.0045259
0.00445789
0.00437201
0.00458695
0.00429226
0.00454357
0.00450279
0.00428801
0.00450448
0.109178
0.00417514
0.00464159
0.00428347
0.0047262
0.00422993
0.00426264
0.0232607
0.00444415
0.00429435
0.00435583
0.00425228
0.00447067
0.00527987
0.00447739
0.00423555
0.00668545
0.00442923
0.00438746
0.00431673
0.00517333
0.004339
0.00469269
0.00558901
0.00467511
0.00424774
0.00468952
0.00450524
0.00464097
0.00432398
0.00419395
0.00434095
0.0268868
0.00474851
0.00622498
0.00555572
0.0045776
0.00441991
0.00423837
0.0042369
0.0135521
0.00503389
0.0350474
0.012833
0.00456529
0.00449472
0.00453362
0.00890899
0.00440922
0.0291784
0.00417536
0.00456908
0.00428963
0.00425812
0.00435785
0.00614714
0.0042602
0.00433769
0.00567574
0.00419592
0.00476093
0.00416978
0.00477459
0.0163167
0.0045835
0.00444373
0.00430494
0.00453665
0.00924274
0.00423962
0.00433732
0.00462362
0.00526446
0.00487478
0.00590798
0.00560535
0.00428358
0.00817266
0.00706403
0.00437181
0.0190219
0.00756959
0.004621
0.00417365
0.00437632
0.00425706
0.0043395
0.00453409
0.0044239
0.00423484
0.00840408
0.00412079
0.0043542
0.00443415
0.00461409
0.00456022
0.00468819
0.00416199
0.00442787
0.00446631
0.00483873
0.00455784
0.00637485
0.012278
0.00427664
0.00444265
0.00475582
0.00423325
0.00492997
0.0045271
0.00456548
0.00448439
0.00425482
0.00449598
0.00428456
0.00489087
0.00403213
0.00435607
0.00424107
0.00439401
0.00487152
0.00776677
0.00483262
0.00467571
0.00523352
0.00458658
0.00414254
0.00414062
0.00410415
0.00415329
0.00422247
0.00450634
0.00540076
0.00435501
0.00557539
0.00449521
0.00468828
0.00442697
0.0043305
0.00505693
0.00428533
0.00439452
0.00548819
0.00421706
0.00557728
0.00414101
0.00447469
0.00444537
0.00424388
0.00450081
0.0521233
0.00412909
0.0041483
0.004887
0.00480798
0.00424722
0.00606187
0.00692855
0.00418176
0.018644
0.00689462
0.00448592
0.00431312
0.00419309
0.00423469
0.00447216
0.00455044
0.00457752
0.00462894
0.00438746
0.0116814
0.00439998
0.0046488
0.0171635