/*--------------------------------*- C++ -*----------------------------------*\
| =========                 |                                                 |
| \\      /  F ield         | OpenFOAM: The Open Source CFD Toolbox           |
|  \\    /   O peration     | Version:  3.0.1                                 |
|   \\  /    A nd           | Web:      www.OpenFOAM.org                      |
|    \\/     M anipulation  |                                                 |
\*---------------------------------------------------------------------------*/
FoamFile
{
    version     2.0;
    format      ascii;
    class       volScalarField;
    location    "0.545704";
    object      nut;
}
// * * * * * * * * * * * * * * * * * * * * * * * * * * * * * * * * * * * * * //

dimensions      [0 2 -1 0 0 0 0];

internalField   nonuniform List<scalar> 
21246
(
4.18764e-05
0.000237112
0.000406078
0.000564101
0.000647996
0.000650186
0.000642218
0.000658157
0.000667102
0.000621545
0.000534361
3.0703e-05
0.000134345
0.000259354
0.000394621
0.000502188
0.000551164
0.000566344
0.000609625
0.000641903
0.000605451
0.000510469
2.4967e-05
9.05707e-05
0.00018718
0.000296382
0.000398128
0.000463319
0.000487808
0.000508833
0.000570482
0.000592491
0.000492204
2.00787e-05
7.75056e-05
0.000150913
0.000238392
0.000328246
0.00039673
0.000428411
0.000436841
0.00046881
0.00052635
0.000486447
1.58889e-05
7.93324e-05
0.00013512
0.000204563
0.000281288
0.000346652
0.000382563
0.000388875
0.00039609
0.000432127
0.000448544
1.51896e-05
8.87128e-05
0.000133168
0.000187087
0.000250426
0.000309306
0.000346146
0.000353943
0.000349716
0.000359721
0.000382384
1.51882e-05
9.79917e-05
0.000138261
0.00018039
0.00023139
0.000282097
0.000317026
0.000326355
0.000318296
0.000312715
0.000321248
1.50848e-05
9.87923e-05
0.000141677
0.000178887
0.000220214
0.0002625
0.000293584
0.00030327
0.000294577
0.000281568
0.000276931
1.44906e-05
9.59142e-05
0.00013887
0.000176942
0.000212769
0.000247601
0.00027406
0.000283034
0.000274787
0.000258953
0.000246414
1.37555e-05
9.08769e-05
0.000134129
0.000170052
0.000205432
0.000234796
0.000256933
0.000264776
0.000257353
0.000241192
0.000225185
1.30489e-05
8.47526e-05
0.000127451
0.000161399
0.000195762
0.000222703
0.000241546
0.000248495
0.000242274
0.000227377
0.00021086
1.24794e-05
7.88685e-05
0.000120799
0.000153334
0.000185382
0.000211535
0.000228483
0.00023531
0.000230952
0.000218615
0.000203868
1.18963e-05
7.31888e-05
0.000115153
0.000147237
0.000177576
0.00020302
0.000219711
0.000227713
0.000226305
0.000217663
0.000206024
1.12776e-05
6.72819e-05
0.000110469
0.000143878
0.000174347
0.000199698
0.000218115
0.000229181
0.000232111
0.00022786
0.000218934
1.0712e-05
6.14566e-05
0.000106495
0.00014285
0.000175291
0.000203141
0.000225784
0.000242203
0.000250648
0.000250338
0.000242098
1.01922e-05
5.58295e-05
0.000102168
0.000141314
0.000178032
0.00021132
0.000240856
0.000264603
0.000278734
0.000280379
0.000269358
9.63224e-06
5.07421e-05
9.66343e-05
0.000137665
0.000179047
0.000219251
0.00025724
0.000288925
0.000307692
0.00030914
0.000292887
8.94903e-06
4.67326e-05
9.10962e-05
0.000132737
0.000178029
0.000225243
0.0002714
0.000309812
0.000331915
0.000332512
0.000311203
8.14961e-06
4.3951e-05
8.65488e-05
0.000129605
0.000179796
0.000232913
0.000281063
0.000319582
0.000342898
0.000344789
0.000321225
7.23111e-06
4.2972e-05
8.79215e-05
0.000136891
0.000183287
0.000218049
0.000226167
0.000244602
0.00027424
0.000303035
0.00029751
7.26191e-06
5.37705e-05
9.40765e-05
0.000109844
0.000109406
0.000115674
0.000137225
0.000162081
0.000183423
0.000198076
0.000207793
7.50241e-06
4.38941e-05
5.39227e-05
5.31289e-05
7.47606e-05
0.000103935
0.000137465
0.000170219
0.000195136
0.000202326
0.000186457
6.09702e-06
1.68306e-05
3.13287e-05
5.61094e-05
8.97081e-05
0.00012972
0.000171644
0.000210563
0.000241071
0.000254036
0.000235739
8.05385e-06
2.28546e-05
5.1297e-05
9.30768e-05
0.000144013
0.000196728
0.00024372
0.000280186
0.000302973
0.000309995
0.00029517
4.00463e-05
0.000338672
0.000563165
0.000677678
0.000704309
0.000688228
0.000677786
0.000691626
0.00069819
0.000651186
0.000561862
2.45013e-05
0.000254348
0.000519187
0.000683114
0.000740854
0.000737224
0.000727001
0.000740595
0.000751711
0.000704457
0.000596473
1.75885e-05
0.000195424
0.000449046
0.000644466
0.000746097
0.000772885
0.000773539
0.000792918
0.000817645
0.000781079
0.000658836
1.15112e-05
0.000142948
0.000357099
0.000557168
0.000698718
0.000770033
0.000797476
0.000832256
0.000881383
0.000872216
0.000745386
1.03623e-05
8.90435e-05
0.000250869
0.000436447
0.000598846
0.000711681
0.000775664
0.000835018
0.000922987
0.000976006
0.000890283
1.15826e-05
7.98384e-05
0.00019389
0.000342454
0.00049702
0.000618128
0.000691476
0.000746643
0.000849279
0.00097816
0.000996903
1.30489e-05
8.36953e-05
0.000185165
0.000308823
0.000443973
0.000565619
0.000642287
0.000680715
0.000757698
0.000916744
0.00103607
1.45829e-05
8.93165e-05
0.000188155
0.000302427
0.000426501
0.000542612
0.000622126
0.000648815
0.000677232
0.000813766
0.0010049
1.60542e-05
9.59225e-05
0.00019508
0.000304597
0.000421457
0.000534199
0.000616282
0.00064291
0.000631531
0.000700475
0.000909326
1.74013e-05
0.000103583
0.000203999
0.000310121
0.000420154
0.000528598
0.000613163
0.00064635
0.000621017
0.000613651
0.000775275
1.85734e-05
0.000110916
0.000212864
0.000316838
0.000419754
0.00052105
0.000605365
0.000646981
0.00062514
0.000573628
0.000637882
1.96165e-05
0.000118391
0.000224044
0.000324418
0.000419766
0.000510461
0.000589699
0.000638091
0.000628326
0.000562022
0.000545273
2.0456e-05
0.000125143
0.000233717
0.000331967
0.000420036
0.000497672
0.000566033
0.000617119
0.000622357
0.000560349
0.000496419
2.10966e-05
0.000130981
0.000242668
0.000339173
0.00042025
0.000484514
0.00053722
0.000584226
0.00060352
0.000557213
0.00047208
2.15292e-05
0.000135553
0.000250271
0.000344919
0.000419309
0.000471376
0.000508326
0.000544441
0.000570189
0.000545204
0.000461478
2.16867e-05
0.00013988
0.000257025
0.000349441
0.000416926
0.000457304
0.000480473
0.000504655
0.000527562
0.000519749
0.000457911
2.15433e-05
0.000143717
0.000263488
0.000353943
0.000414643
0.00044385
0.00045484
0.000468191
0.000484727
0.000484268
0.000447275
2.1041e-05
0.000147185
0.000270313
0.000359551
0.000413052
0.000432617
0.00043367
0.000437076
0.000446315
0.000448102
0.000429718
2.01131e-05
0.000150262
0.000276859
0.000363053
0.000410641
0.000425247
0.00041913
0.000412811
0.000413691
0.000413303
0.000402202
1.86127e-05
0.000150686
0.000275307
0.000361008
0.000409426
0.000423051
0.000412062
0.000396984
0.000389343
0.000384407
0.000374948
1.62438e-05
0.000142002
0.000263629
0.000354021
0.000407909
0.00042355
0.000410131
0.000388629
0.000374139
0.00036524
0.000356285
1.33114e-05
0.000124628
0.000239404
0.000337361
0.000399436
0.000420438
0.000408547
0.00038433
0.000365416
0.00035368
0.000344838
9.96508e-06
8.95333e-05
0.000204343
0.000307201
0.000376417
0.000405164
0.000400921
0.000380257
0.000360386
0.000346866
0.000336604
6.97717e-06
8.40152e-05
0.000171769
0.000264328
0.000324737
0.000359539
0.000371085
0.000365638
0.000352017
0.000338993
0.000324713
5.9581e-05
0.000340999
0.000441192
0.000480726
0.000497134
0.000506988
0.000514691
0.000516773
0.000505474
0.000468854
0.000407353
3.93874e-05
0.00027534
0.0004192
0.000480218
0.000501773
0.000509032
0.000509969
0.000505644
0.000491911
0.000458624
0.000401713
3.19254e-05
0.000241674
0.000404106
0.00049002
0.000519986
0.000527457
0.000527031
0.00052077
0.000504625
0.000470094
0.00041146
3.02545e-05
0.000206977
0.00037963
0.000493128
0.000538878
0.000547904
0.000545053
0.000537035
0.000519957
0.000486463
0.000429801
3.04958e-05
0.000185812
0.00034474
0.000464873
0.000525379
0.000544828
0.000545134
0.000537058
0.000518858
0.000483343
0.000423581
3.11802e-05
0.000174082
0.000322387
0.000435227
0.000496698
0.000524835
0.000535688
0.000536095
0.000523621
0.000492515
0.00043722
3.20479e-05
0.000164064
0.000303178
0.000408533
0.000469868
0.000503063
0.000521794
0.000530378
0.000524315
0.00049661
0.000441497
3.30774e-05
0.00015604
0.000286962
0.000385163
0.000444591
0.000480346
0.000504872
0.000520773
0.000521922
0.000501082
0.000453724
3.4012e-05
0.000149124
0.000273111
0.000365184
0.000422301
0.000459425
0.000488357
0.000510722
0.000519124
0.000504355
0.000458525
3.47065e-05
0.000142228
0.000260464
0.000347866
0.000403162
0.000441304
0.000473747
0.00050151
0.000515853
0.000504624
0.000456823
3.52905e-05
0.000135514
0.000248831
0.000332679
0.000386722
0.000425838
0.000461227
0.00049342
0.000512361
0.000504154
0.000460611
3.57696e-05
0.000129557
0.000238532
0.000319424
0.000372551
0.000412644
0.000450655
0.000486713
0.000509682
0.000504334
0.00046219
3.6003e-05
0.000123785
0.000229052
0.000307686
0.000360343
0.000401544
0.000442054
0.00048175
0.000508582
0.000505798
0.000463214
3.60198e-05
0.000117621
0.000219672
0.000296922
0.000349723
0.000392284
0.000435297
0.000478567
0.000509141
0.000508651
0.000467777
3.57579e-05
0.000111566
0.000210641
0.000286969
0.000340303
0.000384428
0.000429999
0.000476916
0.000511403
0.000513208
0.000471571
3.51888e-05
0.000105263
0.000201511
0.000277389
0.000331695
0.000377633
0.000425846
0.000476591
0.000515456
0.000519961
0.000478085
3.43579e-05
9.69538e-05
0.000189925
0.000266163
0.000322292
0.000370778
0.000421891
0.000476641
0.000520657
0.000528817
0.000487435
3.30658e-05
8.7249e-05
0.000175199
0.0002512
0.000308218
0.000356939
0.000408009
0.000464408
0.000513725
0.000529236
0.000495321
3.12819e-05
7.62216e-05
0.000156805
0.000231595
0.000288881
0.000336042
0.000382703
0.000434142
0.000482842
0.000505516
0.000487359
2.89679e-05
6.41118e-05
0.000134524
0.000206282
0.000263304
0.000308106
0.000347755
0.000388443
0.000428296
0.000452267
0.000450852
2.60543e-05
5.1493e-05
0.000109069
0.000174779
0.000230498
0.00027307
0.000305838
0.000334011
0.000359341
0.000375576
0.00038017
2.24746e-05
3.951e-05
8.30388e-05
0.000138726
0.00019057
0.000230853
0.000258847
0.000277516
0.000289572
0.000294212
0.000292503
1.80758e-05
2.83712e-05
5.8212e-05
0.000101415
0.000145507
0.000181666
0.000206526
0.000220659
0.000225941
0.000223462
0.000215124
1.27217e-05
2.61633e-05
5.26722e-05
7.88736e-05
0.000106168
0.000130005
0.000147652
0.000158238
0.00016197
0.000159347
0.000151505
5.47252e-05
0.000245392
0.000303053
0.000412378
0.000505223
0.000541438
0.000565594
0.000562747
0.000545118
0.000499289
0.000429911
3.93603e-05
0.000139348
0.000197278
0.000256348
0.000320748
0.00039383
0.000553668
0.000608712
0.0005921
0.000542217
0.000464133
3.44202e-05
0.000100976
0.000157989
0.000205087
0.000254212
0.000304311
0.000425186
0.00062127
0.000641409
0.000595307
0.000510126
3.06998e-05
8.9478e-05
0.000137229
0.000177595
0.000218901
0.000260817
0.000344723
0.000566571
0.000687851
0.000657878
0.000571259
2.72766e-05
9.91805e-05
0.000130868
0.000162092
0.000196174
0.000232611
0.000298875
0.000478582
0.000711354
0.000725423
0.000640547
3.25104e-05
0.000121512
0.000138671
0.000157232
0.000182014
0.000212242
0.000267174
0.000410939
0.000647682
0.000781381
0.000709586
3.79751e-05
0.00015793
0.000160825
0.000162961
0.000175504
0.000197934
0.000243758
0.00036098
0.000571653
0.000766559
0.000780658
4.27792e-05
0.000207573
0.000199543
0.000180275
0.000176511
0.000189121
0.000226681
0.000324775
0.000507237
0.000714522
0.00080006
4.59781e-05
0.000244221
0.000248662
0.00020938
0.000185015
0.000185212
0.00021436
0.000297848
0.00045582
0.000653046
0.00077683
4.79071e-05
0.000265882
0.000297971
0.000248304
0.000200948
0.000185905
0.000205847
0.000277263
0.000414614
0.000593475
0.000728857
4.91145e-05
0.000282445
0.000342245
0.0002937
0.000224082
0.000191097
0.000200527
0.000260953
0.000380557
0.000538966
0.000669819
4.98815e-05
0.000295348
0.000380666
0.000341169
0.000253375
0.000200706
0.000198388
0.000248401
0.000352501
0.000491124
0.000608219
5.00687e-05
0.000305491
0.000409375
0.000386096
0.000287375
0.000214565
0.000199341
0.000238986
0.000328984
0.000449188
0.000549307
4.96283e-05
0.000309839
0.000428248
0.000424748
0.000324141
0.00023254
0.000203436
0.0002324
0.000308975
0.000411881
0.000496391
4.86765e-05
0.000306065
0.000437923
0.000454721
0.000360825
0.000253919
0.000210847
0.000228944
0.000292501
0.000378886
0.000448969
4.71022e-05
0.000298066
0.000436964
0.00047407
0.000394091
0.000277628
0.000221673
0.000228952
0.000279684
0.000350147
0.00040616
4.48987e-05
0.000286166
0.000426541
0.000478994
0.000420347
0.000301986
0.000236044
0.000233236
0.000271176
0.000326091
0.000368406
4.19903e-05
0.000269649
0.00040733
0.000465214
0.000435791
0.000324989
0.000254138
0.00024306
0.00026832
0.000307642
0.000335844
3.84144e-05
0.000248733
0.000380859
0.000437062
0.000431656
0.00034715
0.000277684
0.000261139
0.000273794
0.0002966
0.000310654
3.42686e-05
0.00022346
0.00034872
0.000401227
0.000407523
0.000370111
0.00031133
0.000291639
0.000290968
0.000295861
0.000293184
2.9794e-05
0.000193035
0.000314527
0.000364545
0.000382838
0.000379774
0.000346612
0.000322073
0.000306697
0.000293959
0.00027382
2.65044e-05
0.000191801
0.000282142
0.000319631
0.000331323
0.00032013
0.000270041
0.000234433
0.000203954
0.000173569
0.000140561
1.61991e-05
0.000109356
0.000124786
0.000109369
9.33728e-05
7.96237e-05
6.90277e-05
6.14019e-05
5.53892e-05
5.03732e-05
4.57989e-05
9.23907e-06
1.06387e-05
1.25427e-05
1.5441e-05
1.96505e-05
2.49803e-05
3.10293e-05
3.71321e-05
4.25436e-05
4.66205e-05
4.89207e-05
3.08978e-05
8.32871e-05
7.63511e-05
7.69556e-05
6.58371e-05
5.16752e-05
4.173e-05
3.58237e-05
3.17302e-05
2.83128e-05
2.51015e-05
2.63331e-05
7.79364e-05
5.70285e-05
7.96246e-05
7.11847e-05
5.45142e-05
4.18557e-05
3.45535e-05
2.98127e-05
2.61046e-05
2.28621e-05
2.64188e-05
6.77095e-05
5.37566e-05
6.609e-05
7.41209e-05
5.83913e-05
4.31527e-05
3.43077e-05
2.88498e-05
2.4808e-05
2.14019e-05
2.81938e-05
6.08189e-05
5.3491e-05
6.03218e-05
7.09256e-05
6.22002e-05
4.50464e-05
3.47324e-05
2.85697e-05
2.42354e-05
2.07913e-05
3.00375e-05
5.80934e-05
5.35837e-05
5.67879e-05
6.69615e-05
6.56276e-05
4.73206e-05
3.56599e-05
2.88009e-05
2.41865e-05
2.07428e-05
3.12336e-05
5.78208e-05
5.39004e-05
5.39135e-05
6.15231e-05
6.66022e-05
5.0036e-05
3.70526e-05
2.94596e-05
2.45285e-05
2.10175e-05
3.18428e-05
5.92575e-05
5.47763e-05
5.20035e-05
5.59941e-05
6.31314e-05
5.2777e-05
3.89899e-05
3.05125e-05
2.51932e-05
2.15242e-05
3.19629e-05
6.24097e-05
5.65974e-05
5.13745e-05
5.19297e-05
5.76417e-05
5.36017e-05
4.15093e-05
3.21375e-05
2.6176e-05
2.22714e-05
3.15293e-05
6.67496e-05
5.95627e-05
5.1912e-05
4.93077e-05
5.21889e-05
5.1916e-05
4.3717e-05
3.42255e-05
2.75922e-05
2.33071e-05
3.05909e-05
7.16828e-05
6.38484e-05
5.36144e-05
4.79051e-05
4.75795e-05
4.81648e-05
4.44886e-05
3.65604e-05
2.94258e-05
2.46455e-05
2.93858e-05
7.75826e-05
6.97455e-05
5.67515e-05
4.79585e-05
4.45853e-05
4.40586e-05
4.31959e-05
3.84645e-05
3.16371e-05
2.63408e-05
2.81301e-05
8.51618e-05
7.76465e-05
6.15658e-05
4.95773e-05
4.34176e-05
4.10509e-05
4.06892e-05
3.91122e-05
3.39366e-05
2.84287e-05
2.70855e-05
9.42647e-05
8.79447e-05
6.84037e-05
5.27964e-05
4.38119e-05
3.93995e-05
3.81251e-05
3.82124e-05
3.57075e-05
3.08182e-05
2.64892e-05
0.000104348
0.000100974
7.78719e-05
5.7951e-05
4.57495e-05
3.9104e-05
3.62715e-05
3.63132e-05
3.62082e-05
3.31432e-05
2.64315e-05
0.000116658
0.000117372
9.06132e-05
6.54834e-05
4.9442e-05
4.0291e-05
3.56375e-05
3.45213e-05
3.53274e-05
3.46928e-05
2.68376e-05
0.000130729
0.00013734
0.000107589
7.6203e-05
5.53014e-05
4.3085e-05
3.63514e-05
3.35697e-05
3.37851e-05
3.48077e-05
2.73609e-05
0.00014439
0.000159979
0.000129788
9.14638e-05
6.42418e-05
4.79541e-05
3.86314e-05
3.38605e-05
3.25616e-05
3.36277e-05
2.71141e-05
0.00015639
0.000183353
0.00015732
0.000112714
7.76139e-05
5.58146e-05
4.30311e-05
3.58252e-05
3.25016e-05
3.22263e-05
2.6027e-05
0.00016464
0.000204347
0.000188487
0.000141232
9.74478e-05
6.83402e-05
5.06965e-05
4.02124e-05
3.43453e-05
3.18994e-05
2.4046e-05
0.000167149
0.00021911
0.000218578
0.000176547
0.000126194
8.83928e-05
6.39568e-05
4.86844e-05
3.93011e-05
3.39665e-05
2.11428e-05
0.000159212
0.000223642
0.000241173
0.000214891
0.000165757
0.000120438
8.73245e-05
6.49031e-05
5.01013e-05
4.0561e-05
1.85239e-05
0.000145565
0.000217427
0.000251852
0.000246962
0.000212205
0.000167484
0.000127111
9.564e-05
7.27324e-05
5.65307e-05
1.40395e-05
0.000111892
0.000159492
0.000198629
0.000217472
0.000217126
0.000199232
0.000170436
0.000139302
0.000111478
8.84323e-05
1.08757e-05
4.24854e-05
5.78912e-05
7.87292e-05
0.000100206
0.000120636
0.000136443
0.000141709
0.000137153
0.000126233
0.000111669
2.54367e-05
7.5231e-05
7.33999e-05
7.20627e-05
6.39146e-05
5.22647e-05
4.39555e-05
3.87932e-05
3.5134e-05
3.2046e-05
2.90829e-05
1.77769e-05
6.58004e-05
7.71419e-05
7.86032e-05
7.06651e-05
5.86448e-05
4.95323e-05
4.39137e-05
4.01767e-05
3.72134e-05
3.44437e-05
1.8228e-05
6.08107e-05
7.6382e-05
9.15003e-05
8.34868e-05
6.98046e-05
5.8236e-05
5.11007e-05
4.68261e-05
4.39259e-05
4.14532e-05
2.06382e-05
5.70385e-05
7.43883e-05
0.000100032
9.91205e-05
8.9146e-05
7.7189e-05
6.8375e-05
6.2659e-05
5.87086e-05
5.57107e-05
2.36241e-05
5.31093e-05
7.49668e-05
0.000105255
0.000106928
9.81956e-05
8.56412e-05
7.64295e-05
7.09959e-05
6.80176e-05
6.63609e-05
2.65412e-05
5.01035e-05
7.59789e-05
0.00010719
0.000110815
0.000103928
9.16907e-05
8.26267e-05
7.74305e-05
7.49745e-05
7.41435e-05
2.92758e-05
4.8032e-05
7.68053e-05
0.000107629
0.000112992
0.000108061
9.64372e-05
8.78454e-05
8.30579e-05
8.12584e-05
8.14841e-05
3.1848e-05
4.66501e-05
7.73984e-05
0.000107648
0.00011475
0.000111539
0.000100721
9.27916e-05
8.85946e-05
8.77091e-05
8.94784e-05
3.40975e-05
4.57252e-05
7.78419e-05
0.00010782
0.000116774
0.000114852
0.000105014
9.77258e-05
9.40838e-05
9.39134e-05
9.64923e-05
3.6007e-05
4.50651e-05
7.82903e-05
0.000108232
0.000119191
0.000118386
0.000109551
0.00010279
9.96196e-05
0.000100075
0.000103455
3.75573e-05
4.45131e-05
7.8624e-05
0.000109009
0.000121934
0.000122359
0.000114458
0.000108055
0.000105187
0.000106001
0.000109319
3.88364e-05
4.39917e-05
7.8818e-05
0.000110015
0.00012494
0.000126792
0.000119789
0.000113572
0.000110816
0.000111852
0.000115286
3.97594e-05
4.33626e-05
7.87908e-05
0.000111105
0.000128177
0.000131717
0.000125638
0.000119423
0.000116547
0.000117673
0.000121587
4.02082e-05
4.13527e-05
7.63132e-05
0.00011017
0.000129949
0.000136111
0.000131725
0.000125683
0.000122498
0.000123478
0.000127705
4.01273e-05
3.89974e-05
7.148e-05
0.000106183
0.000128468
0.000137937
0.000136691
0.000131945
0.000128799
0.000129495
0.000133772
3.94797e-05
3.64261e-05
6.46372e-05
9.88097e-05
0.00012323
0.000136095
0.000139088
0.000137183
0.000135069
0.000135693
0.000139795
3.82526e-05
3.37555e-05
5.64173e-05
8.80043e-05
0.000113682
0.000129542
0.000137035
0.000139311
0.000139886
0.000141475
0.000145622
3.63599e-05
3.11609e-05
4.79721e-05
7.48312e-05
9.99712e-05
0.000117789
0.000128961
0.000135558
0.000140143
0.000144499
0.000149932
3.37486e-05
2.86036e-05
4.00915e-05
6.086e-05
8.31284e-05
0.00010115
0.000114348
0.000123913
0.000131945
0.000139854
0.000148302
3.0381e-05
2.59182e-05
3.30943e-05
4.75821e-05
6.50359e-05
8.10681e-05
9.42087e-05
0.000104677
0.000113879
0.000123251
0.000133655
2.62092e-05
2.28803e-05
2.69647e-05
3.60094e-05
4.79101e-05
6.01107e-05
7.11568e-05
8.06053e-05
8.89246e-05
9.69858e-05
0.000105643
2.12443e-05
1.92232e-05
2.14213e-05
2.64103e-05
3.33305e-05
4.10416e-05
4.86652e-05
5.56987e-05
6.20447e-05
6.79034e-05
7.36066e-05
1.55202e-05
1.43941e-05
1.55515e-05
1.79159e-05
2.12047e-05
2.50502e-05
2.91173e-05
3.31635e-05
3.70434e-05
4.06991e-05
4.41249e-05
9.37548e-06
9.72919e-06
1.13208e-05
1.32102e-05
1.5339e-05
1.75688e-05
1.99868e-05
2.37954e-05
2.91083e-05
3.58667e-05
4.35669e-05
6.26646e-06
6.55123e-06
7.2919e-06
1.14438e-05
1.42964e-05
1.59543e-05
1.7086e-05
1.80475e-05
1.86579e-05
2.59981e-05
2.52885e-05
2.39797e-05
3.14226e-05
4.92101e-05
7.60837e-05
0.000108099
0.000131234
0.000153342
3.72726e-05
3.60193e-05
3.74778e-05
5.87113e-05
0.000100102
0.000154648
0.000211453
0.000255611
0.000295855
5.01488e-05
4.70812e-05
5.09219e-05
8.4155e-05
0.00014652
0.000229014
0.000309226
0.000367432
0.000412082
6.29768e-06
1.13106e-05
1.46021e-05
1.62974e-05
1.72907e-05
1.80232e-05
1.84271e-05
1.85741e-05
1.86276e-05
2.2002e-05
2.70866e-05
3.93129e-05
6.11708e-05
9.19991e-05
0.000119326
0.000141632
0.000159251
0.000168857
3.49135e-05
4.91854e-05
7.88732e-05
0.000128155
0.00019094
0.00023958
0.000279977
0.000310569
0.000319035
4.87977e-05
7.04564e-05
0.000116934
0.000194009
0.000284141
0.00034944
0.000393434
0.000428104
0.000433307
0.000195624
0.00022971
0.000229761
0.000210353
0.000425107
0.000229329
8.8779e-05
0.000229476
0.000229402
0.000233884
0.000418625
0.00022953
0.000126877
0.000188436
0.000123819
0.000228725
0.000181822
0.000218968
0.000228719
0.000228568
0.000229668
3.07192e-05
0.000229989
0.000206523
0.000229335
0.000192048
0.000134265
8.98224e-05
0.000467863
0.00055126
0.000166134
0.00023592
0.000117101
0.000229426
0.000241025
0.000229673
0.000195468
0.000229333
9.7482e-05
0.000229323
2.07623e-05
0.000229466
0.000191933
0.000229968
0.000442104
5.65643e-05
5.34908e-05
0.00010422
0.000239866
0.000229452
0.000546071
0.00022929
0.000236499
0.000199225
0.000229405
0.000229449
3.02881e-05
0.000229286
0.000461511
0.000326266
2.41052e-05
0.000180646
0.000486896
0.000172108
2.8152e-05
0.000228551
0.000618751
0.000230089
0.000229713
0.000233312
0.000187467
0.000234303
7.74097e-05
0.000246955
0.000680304
0.000232353
2.19462e-05
0.0002297
0.000137417
0.000466937
0.000398949
0.000148602
0.000229268
0.000229789
0.000246935
8.15268e-05
0.000386956
0.000128648
4.47378e-05
0.000181296
0.000229487
0.000229253
2.29404e-05
0.000234249
0.000472642
0.000119177
0.00061036
0.000237492
4.32575e-05
0.000237538
0.000252485
0.000110782
0.00023015
0.000236494
5.07469e-05
0.000229521
0.00018019
0.000229869
0.000117722
0.000236307
0.000229341
0.000229522
0.000231276
0.000107053
0.000207666
0.000229036
0.000229388
0.000228908
0.000229269
0.000229203
8.75147e-05
0.000243491
0.000264831
0.000199097
5.16832e-05
0.000216461
0.000698543
0.000173274
0.000167882
0.000142385
0.00022922
0.000349037
0.000105392
0.00023288
0.000229789
0.000229349
2.31011e-05
0.000115191
0.000543777
0.000244683
0.000176079
0.000231375
0.000245144
0.000167882
0.000229402
3.85877e-05
0.000108232
0.000229928
0.000236066
0.000228929
0.000228973
0.000229159
3.92498e-05
0.000243179
0.000150885
7.36465e-05
0.000122203
3.09886e-05
0.000165503
0.000228857
0.000216874
4.79749e-05
0.000233812
0.00022916
0.000659915
0.000107216
5.57984e-05
0.000242061
0.000235544
2.75212e-05
0.000150945
0.000154314
0.000223676
0.000229596
0.000235165
0.000220301
0.000151351
3.83448e-05
0.000440469
0.000199662
0.000229601
2.76724e-05
0.000229932
0.000138996
0.000229283
0.000129863
0.00022908
0.000228843
0.000229639
0.000173195
0.000120735
0.000198571
0.000228532
2.01001e-05
0.000229747
0.000229068
0.000229602
4.36159e-05
0.000137245
0.000230001
3.55738e-05
0.000229579
0.000124305
0.000160403
0.00022983
0.000120154
0.000233312
0.000167777
0.000229517
0.000228718
0.000195326
0.000228992
0.000175326
0.000238933
0.000229277
0.000584501
0.000229371
5.1698e-05
0.000229105
8.6199e-05
7.48754e-05
9.87599e-05
0.000613435
0.000195233
0.000199277
0.000229289
0.000105779
0.000108616
0.000126381
0.000309129
3.36099e-05
0.000228496
0.000228999
0.000244298
3.84777e-05
0.000259078
0.000522305
0.000229887
0.000229552
0.0002295
5.24225e-05
0.000310538
0.00023661
1.78388e-05
0.000238334
4.79945e-05
0.00022936
0.000156539
0.000197451
0.000612406
0.000156735
0.000197372
0.000241217
0.000228636
0.000234001
0.00022955
0.000229393
0.000229296
4.88676e-05
0.000229177
0.000121187
0.000185452
0.0002282
0.000229596
0.000229337
5.28487e-05
0.000231825
0.000234318
0.000159504
0.00017951
0.000188405
0.000229157
0.000229585
5.27995e-05
0.000229077
0.000228943
0.000196735
0.000229173
0.000238347
4.98509e-05
0.000236216
0.000229787
0.000399266
0.00047819
0.000233586
0.000229084
0.000363739
0.000229705
0.00023809
0.000152082
0.00022983
0.000103385
0.00024632
8.03188e-05
0.000229998
0.000229545
0.000236283
0.000229563
0.000240614
0.000196494
0.000229154
6.5089e-05
0.000242712
0.000549738
0.000229307
0.000236487
0.000229703
0.000152869
2.72579e-05
0.000229218
5.59935e-05
0.000229581
0.000234178
0.000122024
2.59742e-05
0.000231499
0.000178542
6.54432e-05
0.000228754
0.000239893
0.000229003
0.000294398
0.000228951
0.000191086
0.000117622
0.000235716
0.000229169
0.000210976
0.000228205
0.000912679
0.000231658
0.000486876
1.92897e-05
0.000229952
0.000105125
0.000225628
0.000124536
0.000229654
0.000229241
0.000238639
4.81145e-05
0.000195079
0.000229521
0.000103812
0.000184279
0.000153002
0.000306095
0.000229036
0.00017751
0.000767376
5.60739e-05
0.000236734
0.000179598
0.000229267
0.00010538
0.000230037
7.2222e-05
0.000206676
0.000229965
0.000884962
0.000135961
0.000186504
0.0002294
0.000229324
0.000229716
5.00431e-05
0.000163265
6.25694e-05
6.34371e-05
0.000259546
0.000229173
0.000114108
0.000222057
0.000193739
0.000112555
0.000229793
0.000152541
0.000240934
0.000229027
0.000228882
0.00034411
0.000229011
3.80745e-05
0.000229261
0.000198454
0.000648008
6.67577e-05
0.000198085
0.000330646
4.59715e-05
0.000229171
4.66727e-05
0.000187246
0.000250111
0.000625721
2.80632e-05
0.000229245
0.000228912
0.000229893
0.000166743
4.89779e-05
0.000228991
0.000229988
0.000146962
0.000104588
2.33052e-05
0.000103449
0.00011028
0.000229563
0.000296528
0.000237563
0.000228683
0.000134625
0.000138067
4.74629e-05
0.000233986
0.000120793
0.000254426
0.000181131
5.11785e-05
0.000313312
0.000147415
8.30825e-05
0.00011994
0.000227285
0.000235451
0.000245739
7.39223e-05
0.000187254
3.56677e-05
0.000229246
3.83351e-05
0.000207646
0.00022863
0.000236115
6.3208e-05
0.000283591
0.00050941
0.000198861
0.000230039
0.000236559
0.000378654
0.000386258
6.5914e-05
0.000232623
8.15073e-05
0.000315653
2.50834e-05
0.000228811
3.87095e-05
0.000229165
0.000229735
0.000229336
5.08522e-05
9.17771e-05
6.32919e-05
0.000152394
3.34966e-05
8.16898e-05
0.000229632
0.00022879
0.000723128
0.000181157
0.000234056
0.000236013
4.0971e-05
4.52228e-05
2.96836e-05
2.93526e-05
0.000231631
0.000211814
5.54003e-05
0.000229111
2.38132e-05
0.000234496
0.000229671
0.000229182
8.05639e-05
3.44692e-05
0.000229005
0.000229172
0.00022972
0.000262842
2.63504e-05
0.000229911
4.08561e-05
0.000358803
0.000156567
6.42183e-05
0.000228753
3.74545e-05
0.00022907
0.000233999
0.000229298
0.000149728
0.000146225
0.000228551
0.000192978
0.000168936
0.00023362
0.00022472
0.000210881
0.000229447
0.00022942
0.000241496
6.59193e-05
6.37091e-05
0.00023186
9.88166e-05
0.000229767
0.000399396
0.000104475
4.42167e-05
0.000107231
0.000252216
0.000556605
0.00011388
0.000192758
0.000229148
0.000183926
0.000228854
0.000229774
0.000229161
0.000229613
0.000233694
0.000332578
0.000229348
0.000228815
0.000150581
0.000229157
4.08186e-05
0.000241029
0.000138493
0.00017442
4.61475e-05
0.000229998
0.000229296
0.000229949
1.93711e-05
3.44979e-05
0.000229305
0.000229301
0.00019908
0.000229843
0.000352412
0.000229793
0.0010218
0.000237039
3.23945e-05
9.06117e-05
0.000128999
6.32619e-05
0.000425263
0.000229335
0.000231946
0.000235591
0.000229774
6.30839e-05
2.48007e-05
0.000223798
0.000149513
0.000149486
8.51139e-05
0.00022934
0.000229908
0.000229742
0.000348708
0.000568344
8.35239e-05
0.000229482
0.000229349
0.000474846
0.000231275
9.65343e-05
0.000163125
0.000115738
0.000289637
0.000229214
8.85505e-05
0.000229276
0.00011299
0.000229631
0.000688807
0.000147003
0.000234838
2.66012e-05
0.000111601
0.000229955
0.000230001
0.000468298
0.000229071
0.000182994
0.000167031
0.000143761
0.000382675
4.75622e-05
0.000160515
0.000231528
0.000229189
0.000229241
0.000130773
5.38408e-05
0.000112616
0.000228548
0.00022936
8.82554e-05
0.000229231
0.000237518
0.000235638
0.000234219
0.000111259
5.63304e-05
0.000145422
0.000159931
0.000233611
0.00023
0.000228623
0.000131989
0.00023223
0.000229163
0.00019206
0.000253459
0.000228962
0.000229013
2.30873e-05
0.000230162
0.000228755
0.000147653
0.000229782
0.000234521
0.000100338
8.38691e-05
0.000158497
0.000185833
0.00015682
6.94392e-05
0.000206113
6.67121e-05
0.000104627
0.000179321
5.15928e-05
9.62704e-05
0.000127354
0.000229769
0.000230219
0.000115983
0.000230257
0.000229192
0.000244617
0.000207728
0.000177341
0.000192962
0.000192364
0.000250273
0.000229141
0.000191347
0.000229504
0.000228935
0.000236574
8.42236e-05
0.000232206
0.000232461
0.000230729
0.000229709
0.000226503
6.19956e-05
0.000296085
0.000232448
0.000229608
0.000189778
0.000109574
0.000238131
0.000170259
0.000232045
0.00059688
0.000298386
0.000229185
6.2292e-05
0.000229924
0.000120911
0.000166505
0.000107775
0.000163377
0.000215085
0.000246396
0.000229824
9.89923e-05
0.000181375
4.81268e-05
0.00061878
0.000229011
0.000233862
0.00022981
0.000160867
0.000229543
4.40363e-05
0.000229541
0.000229297
0.000229098
0.000134096
8.90373e-05
0.000229544
0.000127058
0.000229241
0.000109149
0.000165652
0.000231219
0.000164301
1.66027e-05
7.93165e-05
0.000236509
0.000202601
0.000145846
0.000111457
0.000131755
8.51918e-05
0.000229198
0.000151193
0.000229281
0.000231418
5.2219e-05
0.000200829
3.61269e-05
0.000188447
0.000231075
0.000234761
0.000229221
5.96822e-05
0.000229616
0.00110778
0.00012694
0.00100575
0.000234381
0.000138713
0.000202307
0.000426389
0.000243301
0.000128549
3.58622e-05
6.31406e-05
0.000229406
0.000186522
0.000144822
0.000229508
4.30182e-05
0.0001179
0.000248291
0.000608727
0.000229332
0.000233035
0.000235062
0.000129002
0.000236879
0.000192563
0.000229627
0.000120496
0.000234778
8.37153e-05
6.66984e-05
0.00022927
0.000118256
0.000228827
0.000253408
6.41566e-05
0.000229203
0.000192745
0.000188009
0.000100513
0.000242044
3.05096e-05
0.000243291
0.000217651
9.04924e-05
0.000252653
0.000228895
0.00024687
0.00022913
0.000367552
2.19812e-05
0.000230042
0.000229235
0.000252542
0.00035931
0.000286372
0.000160141
0.000229644
0.000148642
0.000250743
0.000229516
0.000229604
0.00022986
0.000229257
0.000236288
0.000156518