/*--------------------------------*- C++ -*----------------------------------*\
| =========                 |                                                 |
| \\      /  F ield         | OpenFOAM: The Open Source CFD Toolbox           |
|  \\    /   O peration     | Version:  3.0.1                                 |
|   \\  /    A nd           | Web:      www.OpenFOAM.org                      |
|    \\/     M anipulation  |                                                 |
\*---------------------------------------------------------------------------*/
FoamFile
{
    version     2.0;
    format      ascii;
    class       surfaceVectorField;
    location    "0.916161";
    object      Uf;
}
// * * * * * * * * * * * * * * * * * * * * * * * * * * * * * * * * * * * * * //

dimensions      [0 1 -1 0 0 0 0];

internalField   nonuniform List<vector> 
32369
(
(4.44182 -0.0684478 -1.305e-18)
(4.99803 -0.436965 -3.95957e-19)
(5.45928 1.13091 4.43666e-19)
(4.0266 0.2598 8.35059e-19)
(3.38924 -0.566763 5.57328e-19)
(4.12589 1.09935 -1.10005e-18)
(3.63625 0.231098 3.46592e-19)
(3.53251 -0.411141 7.44096e-19)
(3.6032 0.889021 -7.06761e-20)
(3.20578 0.167687 2.14842e-19)
(3.32279 -0.333933 2.80789e-19)
(3.15507 0.640398 4.4981e-20)
(2.8264 0.0997115 -4.05414e-20)
(2.98993 -0.252503 1.28135e-19)
(2.79783 0.438191 1.05999e-19)
(2.51693 0.0326181 -7.88759e-20)
(2.68013 -0.202736 -2.09452e-19)
(2.51183 0.278497 6.32572e-20)
(2.26531 -0.0281637 5.44001e-20)
(2.4129 -0.187266 0)
(2.27599 0.155013 0)
(2.0576 -0.0810819 1.46416e-20)
(2.18472 -0.192139 -1.38477e-20)
(2.0758 0.0590734 6.00435e-20)
(1.88382 -0.127367 -5.13953e-20)
(1.99031 -0.208322 8.28714e-21)
(1.90404 -0.017747 -1.01814e-19)
(1.73583 -0.168784 -3.42756e-20)
(1.82599 -0.230197 2.79937e-21)
(1.75668 -0.080256 4.27809e-20)
(1.69377 -0.248149 -5.37745e-20)
(1.63052 -0.123939 -4.6338e-20)
(1.59362 -0.201523 -4.63701e-20)
(2.71829 -0.699987 -6.28751e-19)
(3.06638 -0.000811227 6.52195e-19)
(3.09483 -0.745495 4.2444e-19)
(2.01194 -0.745599 -1.26825e-19)
(3.19004 -0.711122 4.83227e-19)
(2.74347 -0.960345 1.80762e-19)
(3.10014 -0.59902 5.54971e-19)
(2.89605 -0.952735 3.38319e-19)
(2.88118 -0.471362 3.73817e-19)
(2.81701 -0.835805 -2.4272e-19)
(2.61676 -0.381644 -1.48854e-19)
(2.65336 -0.682364 -1.61478e-19)
(2.36574 -0.330132 -6.17499e-20)
(2.44433 -0.550414 1.02654e-19)
(2.14418 -0.306255 -8.87947e-20)
(2.23611 -0.46376 -9.11099e-20)
(1.95522 -0.300288 2.15067e-20)
(2.04386 -0.412812 5.99359e-20)
(1.79552 -0.30462 5.26499e-22)
(1.87459 -0.387233 1.20409e-20)
(1.73723 -0.371681 -1.52456e-20)
(1.65244 -0.304859 -1.24333e-20)
(1.64426 -0.155439 5.13659e-19)
(1.93058 0.785849 9.98424e-19)
(1.97956 -0.790396 -7.84037e-19)
(1.25669 -0.179805 -9.78558e-22)
(2.31279 -1.02518 -3.5119e-19)
(1.91009 -0.771974 1.17723e-19)
(2.53172 -1.04348 -6.14483e-19)
(2.19879 -1.03055 4.70322e-19)
(2.58364 -0.938474 -9.71995e-19)
(2.34946 -1.08907 -5.73652e-19)
(2.49755 -0.785298 -9.22157e-22)
(2.38923 -1.00293 -3.0646e-20)
(2.33855 -0.647322 1.51401e-19)
(2.3172 -0.855085 9.80824e-20)
(2.16039 -0.549845 8.01232e-21)
(2.18777 -0.717824 1.07049e-19)
(1.98717 -0.487289 -2.83952e-20)
(2.03843 -0.61578 8.96399e-20)
(1.83001 -0.452565 3.21012e-20)
(1.89091 -0.5477 2.84863e-20)
(1.76869 -0.501538 1.16755e-19)
(1.68417 -0.428927 0)
(1.30544 0.721485 5.87715e-19)
(1.42367 1.7121 1.62469e-18)
(1.40278 -0.230805 8.46638e-19)
(1.11124 0.51821 -9.76654e-19)
(1.67077 -0.775312 8.70403e-19)
(1.44336 -0.257482 8.98512e-19)
(1.9444 -1.04236 7.03946e-19)
(1.67026 -0.746534 -1.79388e-19)
(2.1356 -1.10821 4.03903e-19)
(1.88524 -1.01787 -1.04552e-19)
(2.21196 -1.03236 0)
(2.03875 -1.08648 0)
(2.1831 -0.895741 5.43024e-20)
(2.08924 -1.01786 0)
(2.08895 -0.764282 2.11614e-19)
(2.05701 -0.897862 6.05794e-20)
(1.96593 -0.663781 1.51268e-19)
(1.97459 -0.781793 9.99312e-20)
(1.83613 -0.592579 1.02438e-19)
(1.8685 -0.690084 3.47164e-20)
(1.77185 -0.617178 9.57005e-20)
(1.70992 -0.529124 4.20553e-19)
(1.25573 1.57048 5.70183e-19)
(1.36211 2.51179 1.26984e-19)
(1.23471 0.479768 -8.73291e-19)
(1.16773 1.26142 -2.52935e-18)
(1.36663 -0.261743 1.93837e-19)
(1.27991 0.327225 1.00797e-18)
(1.56474 -0.74647 -9.17429e-19)
(1.40132 -0.316599 -5.15801e-19)
(1.76143 -1.00628 -5.1025e-19)
(1.57674 -0.75783 -3.6762e-19)
(1.90614 -1.07277 0)
(1.74599 -0.983536 0)
(1.97055 -1.01514 0)
(1.85544 -1.03208 1.51675e-19)
(1.96027 -0.908302 -9.79665e-20)
(1.89567 -0.978084 -1.14604e-19)
(1.89962 -0.801659 -1.07197e-19)
(1.87721 -0.886771 -3.63257e-19)
(1.81139 -0.714172 -7.66257e-21)
(1.81807 -0.797811 5.48347e-20)
(1.75645 -0.720119 3.89402e-20)
(1.70805 -0.632728 1.06867e-19)
(1.37505 2.303 -2.50978e-18)
(1.56401 3.19049 -2.16875e-19)
(1.24195 1.16839 -9.76116e-19)
(1.33262 1.94592 -1.22947e-18)
(1.27517 0.306307 3.72501e-19)
(1.27973 0.944376 -3.03352e-20)
(1.38318 -0.328251 -5.68808e-20)
(1.31268 0.162697 1.64737e-20)
(1.53095 -0.747078 9.84636e-20)
(1.41967 -0.411272 3.17771e-19)
(1.67464 -0.957888 1.34224e-19)
(1.55611 -0.772997 0)
(1.77606 -1.00764 5.58891e-20)
(1.67408 -0.940173 1.49919e-19)
(1.82025 -0.964177 -3.61615e-19)
(1.74935 -0.970412 -1.13241e-19)
(1.81294 -0.885961 -2.80247e-19)
(1.77591 -0.927879 -1.63985e-19)
(1.76868 -0.80513 1.02505e-19)
(1.75792 -0.861943 4.05762e-20)
(1.73219 -0.794762 1.03681e-20)
(1.70056 -0.723639 -2.50291e-19)
(1.60332 2.95023 1.15524e-18)
(1.90139 3.74086 1.02255e-18)
(1.38489 1.80883 -4.21856e-19)
(1.5469 2.57389 0)
(1.31192 0.867597 -4.12266e-19)
(1.38947 1.52774 -1.49848e-18)
(1.33508 0.120938 3.58528e-19)
(1.33479 0.655014 1.57989e-18)
(1.41971 -0.421027 2.69229e-19)
(1.3684 -0.0292775 -8.34418e-19)
(1.53192 -0.756224 0)
(1.45503 -0.5054 4.64585e-19)
(1.63401 -0.912805 0)
(1.55486 -0.781895 -3.43435e-20)
(1.70211 -0.945605 8.07076e-20)
(1.6381 -0.899378 0)
(1.72965 -0.913295 1.187e-19)
(1.6894 -0.915789 7.15847e-21)
(1.72226 -0.857068 -5.61865e-20)
(1.70168 -0.883923 1.21626e-19)
(1.70561 -0.837797 -5.04975e-20)
(1.6888 -0.794881 -3.61201e-19)
(1.88359 3.52321 -3.10803e-20)
(2.20794 4.13024 -1.1898e-19)
(1.58939 2.39683 -9.24219e-19)
(1.75755 3.11883 0)
(1.42538 1.40203 1.3173e-19)
(1.54841 2.06397 -1.03108e-18)
(1.36696 0.570591 6.49553e-19)
(1.41655 1.13589 1.57587e-18)
(1.38887 -0.0708536 -7.68815e-19)
(1.38135 0.369398 -1.23032e-18)
(1.45877 -0.51104 4.8321e-19)
(1.41583 -0.205208 3.27515e-19)
(1.54352 -0.765038 -3.80067e-20)
(1.48597 -0.580334 -1.21947e-19)
(1.61615 -0.874886 -7.68892e-20)
(1.56168 -0.782889 -6.52993e-20)
(1.66282 -0.895016 -7.08267e-21)
(1.62331 -0.862062 4.00755e-19)
(1.68175 -0.871719 1.43194e-19)
(1.65662 -0.870308 4.40257e-20)
(1.68147 -0.852283 2.7887e-20)
(1.67586 -0.83064 -2.1111e-19)
(2.09713 3.91042 -8.61041e-20)
(2.40121 4.3468 8.24463e-19)
(1.77787 2.90347 0)
(1.94182 3.56432 1.14404e-18)
(1.55797 1.90695 1.12805e-19)
(1.72284 2.56657 -9.70403e-19)
(1.43899 1.01853 1.70717e-21)
(1.52836 1.62086 -1.01749e-19)
(1.40442 0.295312 -2.9012e-19)
(1.4335 0.786869 -3.98848e-20)
(1.43119 -0.23702 -2.30022e-19)
(1.41738 0.124973 -5.02795e-20)
(1.49109 -0.580579 -1.49781e-19)
(1.4526 -0.342271 -4.47348e-19)
(1.55787 -0.765775 3.75941e-19)
(1.51207 -0.628069 2.12971e-20)
(1.61379 -0.840783 4.85499e-19)
(1.5748 -0.77242 4.86144e-19)
(1.65188 -0.85448 -7.90267e-20)
(1.62303 -0.82475 1.64845e-19)
(1.66485 -0.835392 -1.32493e-19)
(1.67155 -0.844835 -7.18199e-21)
(2.23124 4.12784 2.0276e-18)
(2.5362 4.38998 1.62637e-18)
(1.94245 3.3337 4.52229e-19)
(2.12175 3.89932 1.39284e-19)
(1.70664 2.39781 -1.28152e-18)
(1.91642 3.05005 -8.6429e-19)
(1.53966 1.48071 -1.52303e-19)
(1.67367 2.11662 -6.69207e-19)
(1.45199 0.688021 2.08659e-19)
(1.52119 1.23085 3.49269e-19)
(1.43408 0.0703811 -2.22473e-19)
(1.45164 0.490379 3.95155e-19)
(1.46447 -0.359605 -3.10015e-19)
(1.4461 -0.064475 7.13196e-20)
(1.51885 -0.620518 9.95739e-20)
(1.48197 -0.433294 -8.61114e-20)
(1.57793 -0.753127 1.97098e-19)
(1.53856 -0.645622 0)
(1.63077 -0.806473 1.4245e-19)
(1.5969 -0.746365 8.39381e-20)
(1.6548 -0.788201 2.68928e-19)
(1.67144 -0.828662 -4.702e-19)
(2.38136 4.26238 -5.0982e-19)
(2.64775 4.36857 2.14582e-18)
(2.14505 3.68661 -1.01966e-18)
(2.29511 4.11846 -3.31e-18)
(1.89505 2.86884 -2.75602e-19)
(2.11275 3.4459 9.15424e-19)
(1.67796 1.9565 -2.95492e-19)
(1.84795 2.58839 -1.00415e-18)
(1.53323 1.1107 5.31459e-19)
(1.64271 1.68853 8.75482e-19)
(1.4648 0.415626 7.2618e-19)
(1.51613 0.887672 3.096e-19)
(1.45839 -0.0977238 3.11342e-19)
(1.46301 0.253841 2.07695e-19)
(1.49326 -0.435057 -1.95272e-19)
(1.46737 -0.195065 -3.32334e-19)
(1.54995 -0.628505 -1.22598e-19)
(1.51058 -0.476615 -4.0223e-19)
(1.61463 -0.724672 1.86475e-19)
(1.57388 -0.62951 1.01049e-20)
(1.64805 -0.704934 1.91284e-19)
(1.67752 -0.777525 2.42238e-19)
(2.50997 4.31768 -9.09116e-19)
(2.74204 4.33514 3.38188e-20)
(2.32548 3.92498 -1.9883e-18)
(2.43908 4.22758 -1.22218e-18)
(2.08711 3.26209 3.84053e-19)
(2.29624 3.72796 8.1536e-19)
(1.84126 2.41185 -6.92996e-20)
(2.03367 3.00166 -8.46372e-19)
(1.6441 1.54776 7.15075e-19)
(1.78821 2.13642 1.48742e-18)
(1.52114 0.793257 -1.98626e-19)
(1.60561 1.30527 -8.62596e-21)
(1.47059 0.205574 -3.84733e-19)
(1.49993 0.609265 -2.22568e-19)
(1.47815 -0.205056 -5.31698e-19)
(1.46555 0.0889232 -1.55922e-19)
(1.52616 -0.460545 -3.09742e-19)
(1.48835 -0.259323 -3.89697e-19)
(1.5989 -0.602497 1.17937e-21)
(1.55102 -0.466401 2.90249e-19)
(1.63971 -0.579995 -3.03144e-20)
(1.68063 -0.687642 -5.65899e-19)
(2.61517 4.32689 -1.4669e-19)
(2.83014 4.29624 -1.40339e-18)
(2.47285 4.05637 1.20672e-18)
(2.55501 4.27343 6.52371e-20)
(2.26453 3.55352 -2.47806e-19)
(2.45857 3.90545 6.09353e-19)
(2.013 2.81703 4.40056e-19)
(2.21631 3.3346 2.06542e-20)
(1.77558 1.98079 9.36526e-19)
(1.94892 2.5549 4.08747e-19)
(1.5983 1.19589 -9.55743e-21)
(1.71572 1.73148 1.00052e-20)
(1.49827 0.550289 0)
(1.55484 0.998386 1.97158e-19)
(1.47161 0.0745 1.32153e-20)
(1.47569 0.421326 -3.13766e-20)
(1.50486 -0.241061 1.50482e-19)
(1.4717 0.0133927 -3.77165e-19)
(1.58219 -0.431079 2.94856e-19)
(1.52845 -0.246693 3.63718e-20)
(1.63094 -0.401275 1.54715e-19)
(1.68824 -0.545686 -2.24912e-19)
(2.70941 4.31868 -9.32684e-19)
(2.9069 4.24871 0)
(2.60222 4.12948 -8.01433e-19)
(2.65194 4.2885 -2.07778e-18)
(2.42844 3.75852 9.23051e-19)
(2.59664 4.00913 1.62026e-18)
(2.18679 3.15589 -7.00471e-20)
(2.38382 3.58477 -1.66053e-20)
(1.92118 2.39278 -4.78688e-19)
(2.1122 2.92301 -2.20264e-19)
(1.69381 1.61434 1.7785e-19)
(1.84228 2.15059 2.99979e-19)
(1.5415 0.935205 1.81951e-19)
(1.62832 1.41301 -2.59654e-19)
(1.4749 0.408453 -4.00775e-19)
(1.50095 0.801138 -1.54282e-20)
(1.48755 0.0390197 -5.20149e-19)
(1.46492 0.346246 -1.8673e-19)
(1.5648 -0.19859 -1.18061e-19)
(1.51004 0.0381295 1.52154e-19)
(1.62263 -0.15854 1.5867e-19)
(1.68474 -0.355977 0)
(2.78648 4.29146 -9.39018e-19)
(2.97245 4.19498 -1.64143e-18)
(2.70506 4.15992 -4.55503e-19)
(2.72991 4.27654 -2.10118e-18)
(2.56395 3.89183 8.54904e-19)
(2.70352 4.05761 1.05003e-18)
(2.34312 3.42033 -1.33727e-19)
(2.52191 3.75474 6.20803e-19)
(2.06894 2.76026 4.97438e-19)
(2.26415 3.22544 -5.16597e-22)
(1.80298 2.02854 -7.18581e-20)
(1.97438 2.53898 2.90599e-19)
(1.60138 1.34838 -4.85078e-19)
(1.71798 1.83454 -3.76345e-20)
(1.49268 0.79307 2.24822e-19)
(1.54511 1.21767 -8.65079e-19)
(1.48045 0.382615 4.6237e-19)
(1.47559 0.73589 4.14956e-19)
(1.55288 0.101814 4.43597e-19)
(1.50513 0.390278 2.50037e-20)
(1.62232 0.151093 1.59988e-19)
(1.68401 -0.0921442 -2.59177e-19)
(2.84974 4.24818 -2.75649e-18)
(3.02698 4.1313 -1.41692e-18)
(2.7826 4.15354 -1.3708e-18)
(2.7924 4.23935 7.52522e-20)
(2.66622 3.96426 9.26652e-19)
(2.77994 4.06144 3.22494e-20)
(2.4731 3.61286 8.18793e-19)
(2.62891 3.8544 3.18765e-19)
(2.20736 3.07166 -2.41557e-19)
(2.39794 3.45833 6.76745e-19)
(1.92012 2.4193 3.75503e-19)
(2.10695 2.88162 -1.71007e-19)
(1.67951 1.7733 -3.3816e-19)
(1.82344 2.24361 6.44762e-19)
(1.53214 1.21787 -7.76512e-19)
(1.61375 1.65413 -1.1655e-18)
(1.49395 0.785468 2.27968e-20)
(1.51378 1.17051 2.59706e-19)
(1.55833 0.470501 -2.57894e-19)
(1.52708 0.80387 1.52914e-20)
(1.6486 0.530085 1.09628e-19)
(1.70406 0.239473 0)
(2.90196 4.19053 1.70606e-18)
(3.0679 4.05579 2.22638e-19)
(2.84156 4.11838 1.24617e-18)
(2.8408 4.18232 9.87295e-19)
(2.74281 3.98531 -5.40283e-19)
(2.83189 4.03105 -1.05746e-19)
(2.5783 3.73921 1.37698e-19)
(2.70452 3.88994 -1.21603e-18)
(2.33389 3.32235 8.62294e-19)
(2.50968 3.61778 9.23025e-19)
(2.04327 2.77081 9.60693e-21)
(2.23728 3.16693 4.59298e-19)
(1.77803 2.19071 8.81971e-22)
(1.94402 2.61795 -2.45e-19)
(1.60158 1.66501 -2.30069e-19)
(1.71268 2.08637 -1.93437e-21)
(1.54163 1.2329 3.01921e-19)
(1.5914 1.62794 -5.37314e-19)
(1.59612 0.898586 3.75421e-19)
(1.59014 1.25921 1.46216e-19)
(1.7043 0.964054 -1.35118e-20)
(1.73805 0.639859 1.42612e-19)
(2.93904 4.11802 -1.26111e-19)
(3.09607 3.96994 3.18805e-18)
(2.88077 4.06045 -2.49202e-19)
(2.87306 4.10766 -1.27539e-18)
(2.79151 3.96197 -6.67373e-19)
(2.8635 3.97481 8.08568e-21)
(2.65366 3.79539 -6.53582e-19)
(2.75166 3.87488 -5.3196e-19)
(2.44373 3.50302 5.84045e-19)
(2.59182 3.69605 2.66161e-20)
(2.17042 3.06631 3.28873e-19)
(2.35953 3.37938 7.3019e-19)
(1.89844 2.57271 -2.74446e-19)
(2.07654 2.93459 -4.69689e-19)
(1.70763 2.10487 -2.40383e-19)
(1.84185 2.48212 4.24145e-19)
(1.63413 1.6982 -7.31102e-19)
(1.714 2.07331 -3.65453e-19)
(1.68159 1.35995 -2.15625e-19)
(1.70773 1.72285 1.3053e-19)
(1.81935 1.41897 -5.44971e-20)
(1.82754 1.07771 -9.32081e-20)
(2.96319 4.03258 2.0056e-18)
(3.11049 3.87393 3.13328e-18)
(2.90319 3.98328 -1.15388e-18)
(2.88882 4.01554 2.34052e-19)
(2.81997 3.9095 1.93798e-19)
(2.87549 3.89766 -8.93666e-19)
(2.702 3.79345 8.85761e-20)
(2.77779 3.82722 -7.47661e-21)
(2.53169 3.60065 7.57405e-20)
(2.64781 3.70612 0)
(2.29628 3.28832 9.39143e-20)
(2.46441 3.49974 1.73222e-19)
(2.03969 2.893 1.32345e-19)
(2.21764 3.17322 0)
(1.85278 2.50139 3.31402e-19)
(1.99806 2.80743 -1.69164e-20)
(1.78056 2.14093 3.99862e-19)
(1.88178 2.46623 1.87746e-19)
(1.82849 1.81756 2.91534e-19)
(1.88279 2.15226 1.56817e-19)
(2.0065 1.84989 -6.38558e-20)
(1.97269 1.51393 4.34153e-20)
(2.9714 3.93337 1.20713e-18)
(3.10669 3.76758 1.85803e-18)
(2.90636 3.88875 8.43552e-19)
(2.88443 3.90615 -1.44567e-19)
(2.82976 3.83449 -1.17706e-18)
(2.86889 3.80573 -9.53789e-19)
(2.7323 3.75412 -9.36732e-20)
(2.78947 3.75505 -8.39839e-20)
(2.59909 3.62336 7.62754e-20)
(2.6908 3.66759 0)
(2.41229 3.41411 9.48145e-20)
(2.55142 3.5256 8.51771e-20)
(2.1969 3.12518 -1.36975e-19)
(2.35713 3.30414 0)
(2.03199 2.81532 -1.71141e-19)
(2.17254 3.02526 -1.74532e-19)
(1.97775 2.51519 -3.60871e-20)
(2.08359 2.75703 1.69475e-19)
(2.03943 2.22297 -1.44033e-19)
(2.10635 2.49048 -1.50925e-19)
(2.24986 2.19846 -1.34291e-19)
(2.18309 1.92096 -1.00178e-19)
(2.95515 3.81988 2.47282e-19)
(3.06762 3.64776 3.9172e-18)
(2.88938 3.78216 -1.57634e-18)
(2.85766 3.78987 -1.39933e-18)
(2.82728 3.74426 3.50508e-20)
(2.85144 3.70351 -1.03328e-18)
(2.75578 3.68346 0)
(2.80165 3.65737 9.14313e-19)
(2.65908 3.58374 0)
(2.73639 3.57469 -4.02849e-19)
(2.51942 3.43394 0)
(2.63114 3.4525 3.0172e-19)
(2.35323 3.23002 -1.82187e-20)
(2.48424 3.28928 0)
(2.23029 2.99845 1.2783e-19)
(2.3455 3.08409 -1.72089e-19)
(2.20864 2.76082 1.09373e-19)
(2.29279 2.8745 3.19938e-19)
(2.29883 2.50615 -1.55643e-19)
(2.35084 2.64768 -2.27804e-20)
(2.52909 2.36839 -1.49558e-19)
(2.47776 2.21481 -2.95502e-20)
(2.91736 3.6967 2.32393e-18)
(2.98066 3.56711 2.13418e-18)
(2.86689 3.67454 -9.04893e-19)
(2.81324 3.67465 4.07493e-18)
(2.83551 3.64001 -2.56939e-19)
(2.85086 3.57872 -3.69869e-18)
(2.79483 3.56825 6.47751e-19)
(2.84047 3.49113 1.72641e-18)
(2.72468 3.45792 -1.74992e-19)
(2.79948 3.374 -1.08761e-19)
(2.61539 3.31826 3.33343e-19)
(2.70767 3.23633 -2.18247e-19)
(2.49403 3.15731 -1.33872e-19)
(2.58467 3.08644 1.48067e-19)
(2.41825 2.97822 -5.50196e-20)
(2.48281 2.91662 -1.49992e-19)
(2.43835 2.78037 2.50206e-19)
(2.4659 2.72796 1.52724e-19)
(2.57111 2.54515 -1.70583e-21)
(2.56184 2.50415 -1.77563e-19)
(2.76224 2.20065 -1.47366e-19)
(2.77261 2.2649 -2.05973e-19)
(2.88305 3.61485 4.1065e-18)
(2.54135 2.8778 1.18909e-19)
(2.89572 3.57119 1.8806e-18)
(2.70305 3.08296 3.55984e-18)
(2.88076 3.46448 -2.0422e-18)
(2.80398 2.98734 -2.51767e-18)
(2.84502 3.32635 1.16712e-18)
(2.82607 2.91581 1.04525e-18)
(2.77647 3.17278 -1.21164e-19)
(2.79787 2.83615 5.1505e-19)
(2.67479 3.0145 -4.88238e-19)
(2.71128 2.73313 -5.17263e-19)
(2.57673 2.85355 1.63694e-19)
(2.60292 2.60289 1.44126e-19)
(2.53672 2.67791 0)
(2.52858 2.44186 2.55103e-19)
(2.59818 2.46885 -2.83029e-19)
(2.54084 2.24486 -3.75632e-19)
(2.77014 2.20372 -2.47209e-19)
(2.66589 2.0008 -5.50828e-19)
(2.89378 1.67533 -2.45026e-19)
(2.9978 1.87238 1.02445e-19)
(2.28955 2.51794 -2.11574e-20)
(2.46543 1.26736 2.57059e-18)
(2.51601 2.54308 -2.68055e-20)
(2.31363 1.63512 -1.06524e-18)
(2.64386 2.53262 2.18667e-19)
(2.33108 1.69298 2.35127e-19)
(2.72044 2.48968 4.32192e-19)
(2.37089 1.74567 -5.89526e-19)
(2.72902 2.42317 1.96311e-19)
(2.37541 1.79887 1.62701e-19)
(2.67945 2.32536 0)
(2.35974 1.80951 0)
(2.61387 2.19059 2.21469e-19)
(2.34028 1.76261 0)
(2.58948 2.01468 -4.50029e-20)
(2.34455 1.65729 1.65826e-19)
(2.64898 1.79383 -4.41596e-19)
(2.40697 1.49608 5.88245e-19)
(2.80683 1.53433 -3.56141e-19)
(2.55021 1.29062 -4.73659e-19)
(2.75406 1.02845 2.53645e-20)
(2.97845 1.29647 8.47624e-19)
(3.83448 2.9943 1.07811e-19)
(1.91915 3.07611 0)
(3.37431 2.01987 1.07398e-19)
(2.49574 2.61354 1.00467e-19)
(3.07592 1.3547 -1.00406e-19)
(2.6597 1.99266 1.04049e-18)
(2.80126 0.903122 -2.41636e-20)
(2.61769 1.43703 -6.58534e-19)
(2.54908 0.598623 1.26706e-19)
(2.48831 1.01243 5.0803e-20)
(2.3237 0.388007 7.95327e-20)
(2.32029 0.696133 -1.22438e-19)
(2.12488 0.236326 0)
(2.14454 0.463059 3.41122e-21)
(1.95069 0.122559 -4.92817e-20)
(1.97671 0.290489 7.59848e-20)
(1.7989 0.0336875 -2.39355e-20)
(1.82401 0.160175 -1.86413e-20)
(1.66589 -0.0382772 4.51327e-20)
(1.68885 0.0605225 3.02001e-20)
(1.57257 -0.0108428 1.06958e-20)
(1.53879 -0.0913354 1.50176e-19)
(1.09308 3.06294 0)
(-0.016957 2.90843 -5.25324e-20)
(1.79352 2.68982 8.30642e-19)
(0.889511 2.54595 0)
(2.12323 2.1028 4.80171e-19)
(1.39579 2.30567 8.73388e-19)
(2.23085 1.55877 -5.93134e-19)
(1.79161 1.888 -7.46193e-19)
(2.21031 1.11651 -1.54189e-19)
(1.97071 1.45596 0)
(2.11627 0.775547 -2.14289e-19)
(1.99405 1.07089 -1.67386e-19)
(1.98778 0.522351 6.77246e-20)
(1.93475 0.760699 7.69848e-20)
(1.85023 0.335885 1.44942e-19)
(1.83388 0.521328 2.2584e-19)
(1.71813 0.196303 7.29417e-20)
(1.71863 0.339008 -3.73989e-20)
(1.59728 0.0881098 3.05031e-20)
(1.60409 0.200628 -1.1151e-20)
(1.49675 0.102558 -1.07485e-20)
(1.47095 0.00233082 3.59605e-19)
(0.0804156 2.33136 -5.37631e-20)
(-0.563875 2.29041 1.26234e-20)
(0.542824 2.34656 0)
(0.155176 1.98203 0)
(1.07275 2.18676 -2.21458e-19)
(0.49819 2.05404 1.57036e-18)
(1.49175 1.85754 -2.76745e-19)
(0.951999 1.89706 -1.34225e-18)
(1.72072 1.45432 0)
(1.31239 1.62218 -7.71457e-19)
(1.79147 1.08144 1.14742e-19)
(1.53801 1.29774 9.23627e-20)
(1.76979 0.776109 2.4794e-19)
(1.62737 0.986072 7.7248e-19)
(1.69812 0.538384 5.37968e-20)
(1.62467 0.717496 -2.95065e-19)
(1.60565 0.356489 -1.19512e-19)
(1.57078 0.500639 1.95164e-19)
(1.50991 0.216578 -5.78093e-20)
(1.49386 0.33165 -2.02453e-19)
(1.40992 0.210668 -3.80142e-20)
(1.40283 0.107619 3.41002e-19)
(-0.205422 1.71063 4.86502e-20)
(-0.627402 1.72089 -5.13158e-21)
(0.0364996 1.80841 1.37281e-18)
(-0.0752385 1.41839 5.93714e-20)
(0.387275 1.8361 5.83198e-19)
(0.0798391 1.60917 2.64541e-18)
(0.770582 1.739 -1.90309e-18)
(0.426558 1.60993 -1.8194e-18)
(1.11422 1.52507 -6.48072e-19)
(0.769011 1.51256 -1.38035e-19)
(1.35562 1.24507 7.27752e-19)
(1.06323 1.32272 -3.77351e-19)
(1.47321 0.954569 3.31779e-19)
(1.25766 1.08385 6.33966e-19)
(1.49723 0.698231 -2.06685e-19)
(1.3559 0.841115 -4.97384e-19)
(1.46412 0.491973 1.62293e-19)
(1.38169 0.622975 2.9721e-19)
(1.40199 0.332741 -2.13899e-19)
(1.36064 0.440957 -1.15425e-19)
(1.30653 0.305041 7.08207e-20)
(1.30381 0.200461 1.95326e-19)
(-0.264208 1.22225 -9.68381e-22)
(-0.56416 1.26408 -3.21907e-20)
(-0.125226 1.30287 1.04885e-18)
(-0.121212 0.966604 -2.92973e-21)
(0.114127 1.39879 6.18774e-19)
(-0.0760737 1.18032 1.10157e-18)
(0.402136 1.43002 -2.44741e-19)
(0.180314 1.24424 -9.25577e-19)
(0.695279 1.36427 1.60598e-19)
(0.451591 1.25101 6.1523e-19)
(0.949977 1.2102 -5.17858e-19)
(0.720273 1.1766 -4.65341e-19)
(1.1316 1.0054 -7.48066e-20)
(0.94113 1.03547 0)
(1.2345 0.790153 -9.38631e-20)
(1.0924 0.857757 -4.7623e-22)
(1.27295 0.591496 6.6277e-20)
(1.17526 0.672662 0)
(1.26562 0.421831 1.48558e-19)
(1.20436 0.502439 -1.94257e-20)
(1.18867 0.367038 6.71593e-20)
(1.21237 0.277728 -2.17371e-19)
(-0.232419 0.861221 -1.51338e-20)
(-0.443198 0.923598 3.65758e-20)
(-0.157366 0.905366 -5.98192e-20)
(-0.0882477 0.636671 -7.06719e-20)
(0.00736457 1.00945 -1.67146e-19)
(-0.104764 0.832983 0)
(0.220322 1.08623 -2.07056e-19)
(0.0897443 0.908331 2.47071e-19)
(0.457782 1.09955 0)
(0.29188 0.960758 -2.44547e-19)
(0.690146 1.04078 0)
(0.512279 0.954128 0)
(0.884299 0.921078 7.18867e-20)
(0.717655 0.888518 -3.34585e-19)
(1.02131 0.766603 8.99803e-20)
(0.882784 0.777087 3.33468e-19)
(1.09968 0.605323 -8.29663e-20)
(0.997506 0.640365 -1.34344e-19)
(1.12913 0.455201 -1.30799e-19)
(1.06228 0.501162 -2.06269e-19)
(1.07681 0.384287 1.52318e-19)
(1.10739 0.316831 1.7015e-20)
(-0.152054 0.601498 -5.34278e-22)
(-0.295722 0.679824 1.2942e-20)
(-0.119332 0.609716 -1.80514e-20)
(-0.0233668 0.403932 3.11383e-20)
(-0.00536646 0.702345 3.73386e-19)
(-0.0734451 0.569778 -2.34095e-20)
(0.150211 0.7875 2.28376e-19)
(0.0822586 0.636536 4.47046e-19)
(0.333515 0.833706 -2.71242e-19)
(0.229841 0.704177 -2.02761e-19)
(0.527359 0.829895 -2.98005e-19)
(0.404283 0.730987 -9.32082e-20)
(0.707344 0.773693 -9.27666e-20)
(0.579752 0.713171 -1.99632e-19)
(0.853741 0.676879 1.61355e-19)
(0.735913 0.652215 8.63223e-20)
(0.955839 0.560072 -2.36233e-19)
(0.862045 0.560048 1.29748e-19)
(1.01488 0.439582 -8.53835e-21)
(0.947391 0.453599 2.91446e-20)
(0.986752 0.358309 1.9552e-20)
(1.02697 0.32344 7.89082e-20)
(-0.0650701 0.417226 4.72394e-20)
(-0.159141 0.493859 -2.14156e-19)
(-0.055479 0.39489 -2.61029e-19)
(0.0448636 0.235049 8.90317e-20)
(0.0281655 0.469986 -8.64552e-22)
(-0.0211753 0.370689 1.24555e-19)
(0.144707 0.549901 6.96563e-20)
(0.11609 0.424852 -5.5826e-20)
(0.285545 0.605177 -3.56821e-20)
(0.221867 0.495062 -4.31887e-20)
(0.441924 0.627944 1.73606e-20)
(0.359703 0.535303 4.55541e-20)
(0.597948 0.610547 -2.25674e-20)
(0.504039 0.543701 2.69622e-19)
(0.735917 0.557279 1.2021e-20)
(0.643875 0.516929 -1.6645e-19)
(0.845898 0.4765 3.58537e-19)
(0.765472 0.45771 3.55794e-20)
(0.922425 0.382393 8.22155e-20)
(0.859277 0.378861 9.34217e-20)
(0.915199 0.303022 -3.332e-20)
(0.959371 0.283731 -6.54705e-20)
(0.0218699 0.274564 -3.7005e-20)
(-0.029064 0.34399 3.202e-20)
(0.0183179 0.232126 -4.30735e-20)
(0.115354 0.10208 -1.21235e-19)
(0.0809623 0.294387 -3.28973e-20)
(0.0427145 0.218667 1.59055e-19)
(0.172428 0.36543 -1.85801e-19)
(0.168222 0.259661 1.9401e-20)
(0.282079 0.420721 1.09495e-20)
(0.242493 0.329799 -1.57485e-19)
(0.406875 0.455123 2.43943e-19)
(0.352908 0.37426 1.29249e-19)
(0.536607 0.460224 1.25715e-19)
(0.470248 0.39651 7.74101e-20)
(0.660452 0.433663 -1.35738e-19)
(0.5888 0.389526 0)
(0.767694 0.380278 -1.60721e-19)
(0.699559 0.353302 -1.52606e-19)
(0.852583 0.310867 1.95411e-20)
(0.794974 0.294751 -8.17194e-20)
(0.86257 0.234411 8.62007e-20)
(0.909522 0.235343 2.4883e-20)
(0.104714 0.160615 1.5015e-19)
(0.0946701 0.241471 2.43844e-19)
(0.0980149 0.0994792 -1.55374e-19)
(0.179648 -0.0175694 -4.72425e-19)
(0.143214 0.160593 9.38943e-20)
(0.127372 0.103559 2.20691e-19)
(0.217231 0.221014 1.02633e-19)
(0.225438 0.130671 1.04945e-19)
(0.303394 0.275534 -7.05147e-20)
(0.280861 0.201034 -3.83017e-20)
(0.402225 0.314712 -2.82132e-20)
(0.368427 0.246768 -1.18663e-19)
(0.508109 0.330721 -3.49843e-20)
(0.460856 0.275703 5.2046e-20)
(0.61385 0.319995 0)
(0.557635 0.279888 -1.52946e-20)
(0.712398 0.283533 -4.29353e-20)
(0.653265 0.257044 1.20357e-20)
(0.799657 0.227301 -3.09611e-20)
(0.743631 0.209418 -5.25685e-20)
(0.814249 0.152956 5.79813e-21)
(0.872034 0.154636 1.28363e-20)
(0.215023 0.0668229 -2.85135e-19)
(0.202592 0.179815 4.14843e-19)
(0.181274 -0.00101072 -2.85301e-19)
(0.271536 -0.0856493 -5.63524e-19)
(0.220413 0.0548086 2.44087e-19)
(0.215286 0.00878303 5.28892e-19)
(0.27336 0.1101 2.30819e-20)
(0.291331 0.0398376 -2.53046e-19)
(0.339337 0.164299 -8.77355e-20)
(0.331362 0.104812 -4.84696e-20)
(0.415336 0.205117 -6.12437e-20)
(0.397316 0.150504 -1.24063e-19)
(0.498096 0.226319 8.95615e-20)
(0.466231 0.182373 8.40146e-20)
(0.583969 0.22338 9.92229e-21)
(0.540366 0.191624 7.78902e-20)
(0.669201 0.194977 -4.74267e-21)
(0.617281 0.174769 -5.31391e-20)
(0.751794 0.143697 -4.068e-20)
(0.696999 0.130689 -4.04449e-20)
(0.767552 0.0725835 2.45303e-20)
(0.827983 0.0731099 -1.20739e-20)
(0.312745 0.013672 9.07961e-20)
(0.305945 0.137353 4.7886e-20)
(0.271727 -0.0699029 -1.23161e-20)
(0.361175 -0.136904 -1.64492e-19)
(0.298158 -0.0208411 4.5204e-20)
(0.304754 -0.0548305 8.86453e-19)
(0.336755 0.0308718 -3.48872e-19)
(0.362028 -0.0231728 -2.87983e-19)
(0.384622 0.0836978 -8.15762e-20)
(0.389006 0.0385138 -2.84077e-19)
(0.439143 0.124553 -5.37333e-21)
(0.43485 0.0837904 2.34977e-19)
(0.498869 0.147366 8.33856e-20)
(0.481025 0.116139 3.49531e-21)
(0.562905 0.146677 4.30144e-20)
(0.531432 0.125942 -6.71785e-20)
(0.630786 0.119872 -1.11158e-19)
(0.586245 0.109106 1.92188e-20)
(0.702975 0.0684364 3.10525e-20)
(0.650174 0.0630505 1.57933e-19)
(0.711091 -0.00195287 -7.74144e-20)
(0.782657 -0.00270369 -9.67819e-20)
(0.41483 -0.0212603 -1.82971e-19)
(0.416143 0.110984 -4.30134e-19)
(0.363354 -0.114384 5.58795e-19)
(0.459638 -0.165973 1.08001e-19)
(0.379524 -0.0705874 5.44635e-19)
(0.396979 -0.0943625 6.83087e-19)
(0.404754 -0.0202183 -2.04116e-19)
(0.43796 -0.0605164 -1.17315e-19)
(0.435956 0.0315649 -1.74147e-20)
(0.452077 -0.000827602 -2.07758e-19)
(0.470058 0.0717268 2.68429e-19)
(0.478766 0.0442892 2.36754e-19)
(0.506659 0.0936452 -1.37819e-19)
(0.503036 0.075551 -9.69444e-20)
(0.546891 0.0907585 -9.80022e-20)
(0.529175 0.0824644 -1.74274e-19)
(0.593583 0.0596466 2.45265e-19)
(0.559352 0.0602957 9.55775e-20)
(0.650698 0.000410084 5.10389e-20)
(0.6027 0.00574933 9.49481e-20)
(0.64993 -0.0692206 -4.4306e-20)
(0.714568 -0.0904038 3.75199e-20)
(0.530057 -0.0337585 -5.49123e-20)
(0.541021 0.123238 8.4374e-19)
(0.464273 -0.134568 1.02227e-19)
(0.566471 -0.163028 -3.76131e-19)
(0.46693 -0.0954991 4.16072e-20)
(0.495248 -0.107045 -1.2922e-19)
(0.478185 -0.0456966 -9.22271e-20)
(0.519352 -0.0723031 1.85475e-19)
(0.493038 0.00539795 0)
(0.520823 -0.0149169 2.44296e-19)
(0.507461 0.044388 -8.74123e-20)
(0.529063 0.0298042 -1.89677e-19)
(0.52133 0.0633689 -1.23209e-19)
(0.532583 0.0585866 -4.28129e-20)
(0.536948 0.0545584 -1.07228e-20)
(0.535135 0.0598058 -7.49445e-20)
(0.559881 0.0139916 -4.02062e-20)
(0.54041 0.027488 7.64986e-20)
(0.597686 -0.0580864 -5.09747e-21)
(0.56077 -0.0415847 9.69972e-21)
(0.594048 -0.140709 -4.10239e-20)
(0.661816 -0.15595 -4.76071e-19)
(0.644519 -0.0159533 4.99992e-19)
(0.666159 0.147189 9.82427e-19)
(0.568715 -0.127519 -6.2903e-19)
(0.67431 -0.137402 -4.21941e-19)
(0.559039 -0.0950397 5.95238e-21)
(0.597716 -0.0953161 -1.32337e-20)
(0.55705 -0.0465637 5.14433e-19)
(0.60636 -0.0600753 9.33378e-20)
(0.55634 0.00343284 9.88468e-20)
(0.596026 -0.00513527 2.80193e-19)
(0.552203 0.0404058 -1.60661e-19)
(0.587167 0.0385247 -1.89824e-19)
(0.544636 0.0543585 1.0168e-20)
(0.571603 0.0633154 1.25183e-19)
(0.536751 0.0358607 -6.71979e-21)
(0.552493 0.0561649 -1.09731e-20)
(0.536244 -0.0197219 1.48348e-19)
(0.535024 0.00926899 -1.43964e-19)
(0.552833 -0.111975 -1.1442e-20)
(0.532829 -0.0794042 2.88684e-19)
(0.556173 -0.206 -1.37069e-19)
(0.601184 -0.225415 -6.49124e-19)
(0.762509 0.021909 6.07849e-20)
(0.797274 0.188992 5.87531e-20)
(0.677756 -0.0968319 1.51653e-19)
(0.788957 -0.0886982 -3.04975e-20)
(0.656769 -0.0708499 6.57523e-20)
(0.707941 -0.0605248 2.54805e-19)
(0.64265 -0.0242485 -1.59556e-19)
(0.701838 -0.025416 -1.98812e-19)
(0.627674 0.0241027 3.97093e-20)
(0.680469 0.0270373 -1.42691e-21)
(0.606735 0.0580732 6.10529e-20)
(0.65642 0.0688759 2.15996e-19)
(0.579961 0.0651842 1.18772e-19)
(0.624168 0.0883505 -1.07431e-19)
(0.551272 0.0339946 -1.33822e-19)
(0.586662 0.070584 4.83497e-20)
(0.530158 -0.0410179 -5.37105e-20)
(0.550763 0.00557178 -2.10719e-19)
(0.52918 -0.158377 2.42379e-19)
(0.530481 -0.108004 2.50166e-19)
(0.545815 -0.265272 -5.34037e-20)
(0.566433 -0.290005 -6.67883e-21)
(0.889836 0.0800784 -2.4377e-20)
(0.936525 0.25699 -3.16413e-20)
(0.797029 -0.0430485 4.40817e-20)
(0.913909 -0.0139974 -8.72902e-22)
(0.764666 -0.0237228 1.5427e-20)
(0.829559 -0.000512396 -4.35211e-21)
(0.73907 0.0203264 -6.06864e-20)
(0.810017 0.0324237 -2.50579e-20)
(0.711288 0.0663726 1.52466e-19)
(0.778951 0.0815835 -3.66066e-20)
(0.675909 0.0963358 8.54188e-20)
(0.742367 0.120562 2.15434e-19)
(0.633253 0.0950228 -1.94822e-19)
(0.69682 0.133571 -7.75991e-20)
(0.588295 0.048694 0)
(0.645666 0.103466 -1.333e-19)
(0.552213 -0.0496544 3.81209e-20)
(0.597574 0.0178105 -9.45106e-20)
(0.540671 -0.198533 1.42892e-20)
(0.566703 -0.125448 5.50565e-20)
(0.579812 -0.321384 -4.3903e-20)
(0.573954 -0.379489 -3.05864e-20)
(1.02545 0.162692 -1.12617e-20)
(1.08315 0.344678 0)
(0.927644 0.0363121 -4.82827e-20)
(1.04975 0.0860543 -1.25311e-19)
(0.886012 0.0476865 -4.23848e-20)
(0.965089 0.0850441 8.7648e-20)
(0.851137 0.0878684 0)
(0.935478 0.11426 1.16901e-19)
(0.813146 0.130677 0)
(0.897507 0.159654 -6.9684e-21)
(0.766758 0.155716 8.73186e-20)
(0.852258 0.19508 -2.64999e-19)
(0.712865 0.144868 -7.70366e-21)
(0.798141 0.201035 9.67606e-20)
(0.65794 0.0819691 -2.32325e-19)
(0.739793 0.157879 -9.95832e-20)
(0.61455 -0.0414621 -9.60717e-20)
(0.688109 0.0512458 -6.79867e-20)
(0.598737 -0.222064 1.40077e-20)
(0.658136 -0.120892 8.52403e-20)
(0.67812 -0.34515 -1.22203e-19)
(0.622487 -0.414138 -3.6207e-19)
(1.16938 0.267906 -1.00379e-19)
(1.23781 0.449297 0)
(1.07187 0.140977 -1.18127e-20)
(1.19866 0.209623 5.13169e-19)