/*--------------------------------*- C++ -*----------------------------------*\
| =========                 |                                                 |
| \\      /  F ield         | OpenFOAM: The Open Source CFD Toolbox           |
|  \\    /   O peration     | Version:  3.0.1                                 |
|   \\  /    A nd           | Web:      www.OpenFOAM.org                      |
|    \\/     M anipulation  |                                                 |
\*---------------------------------------------------------------------------*/
FoamFile
{
    version     2.0;
    format      ascii;
    class       surfaceVectorField;
    location    "0.0545928";
    object      Uf;
}
// * * * * * * * * * * * * * * * * * * * * * * * * * * * * * * * * * * * * * //

dimensions      [0 1 -1 0 0 0 0];

internalField   nonuniform List<vector> 
32369
(
(4.02211 -1.1499 -1.09609e-18)
(3.9033 -1.28844 1.38673e-19)
(4.62528 -1.41348 -1.16489e-19)
(4.10629 -1.01594 2.33181e-19)
(3.81185 -0.971226 -2.41286e-19)
(4.43486 -1.13581 -8.26108e-20)
(4.14094 -0.85799 9.64427e-20)
(3.90117 -0.911407 6.31397e-20)
(4.41519 -0.933996 -3.33755e-20)
(4.1468 -0.675989 -2.06569e-20)
(3.95789 -0.775476 2.86211e-20)
(4.37504 -0.716159 -9.7603e-21)
(4.1204 -0.493237 6.6121e-21)
(3.98528 -0.616846 -3.42123e-20)
(4.31824 -0.508829 9.46184e-20)
(4.06425 -0.325825 2.75618e-20)
(3.97754 -0.455057 -3.04483e-20)
(4.23852 -0.322456 8.61386e-21)
(3.98352 -0.181158 -3.71246e-20)
(3.93681 -0.305493 -7.68918e-22)
(4.13749 -0.162115 4.7563e-20)
(3.88367 -0.0608059 -3.63519e-20)
(3.86841 -0.175126 -1.2222e-19)
(4.01777 -0.0274042 -6.1665e-20)
(3.77108 0.034463 1.06208e-19)
(3.77864 -0.0670716 1.89213e-20)
(3.88507 0.0789158 3.3357e-20)
(3.65116 0.105194 7.18849e-20)
(3.67567 0.0161433 4.08803e-20)
(3.74638 0.157034 5.94275e-20)
(3.57497 0.0689467 -2.23682e-20)
(3.61859 0.207968 -2.25542e-20)
(3.52397 0.15146 -1.47411e-20)
(3.64175 -0.897185 -3.77058e-19)
(3.60063 -1.07176 1.7141e-19)
(3.70769 -0.886266 -1.77144e-19)
(3.54341 -0.786931 -6.39947e-20)
(3.77621 -0.825514 8.6504e-21)
(3.61708 -0.823254 -2.55062e-19)
(3.83751 -0.721902 -2.19999e-20)
(3.6877 -0.76138 9.76264e-20)
(3.87164 -0.590232 -6.21286e-20)
(3.74684 -0.663306 -3.03151e-20)
(3.87191 -0.448551 -5.39903e-20)
(3.78113 -0.541735 -1.96891e-20)
(3.83935 -0.313054 -7.36045e-20)
(3.78349 -0.413792 -6.11477e-20)
(3.77971 -0.193868 -4.72856e-20)
(3.75409 -0.292685 -5.3699e-20)
(3.70019 -0.095968 -3.40022e-20)
(3.69779 -0.18657 5.3147e-20)
(3.60837 -0.0205975 -2.4472e-20)
(3.62258 -0.100844 5.01089e-21)
(3.54267 -0.0421832 0)
(3.51099 0.031681 8.21118e-20)
(3.47272 -0.749157 2.76308e-20)
(3.46715 -0.897879 -1.24426e-19)
(3.49846 -0.75819 2.45884e-20)
(3.42506 -0.656546 1.27176e-19)
(3.55302 -0.742246 -1.13404e-19)
(3.46646 -0.722947 -1.89425e-19)
(3.61977 -0.695402 6.12108e-20)
(3.52304 -0.69997 5.39915e-20)
(3.67652 -0.617168 8.13281e-21)
(3.58175 -0.649392 -5.41238e-20)
(3.71009 -0.515408 -4.73605e-20)
(3.62988 -0.571736 8.97554e-21)
(3.71333 -0.40408 -4.02088e-21)
(3.65569 -0.476379 -1.19453e-20)
(3.68656 -0.296566 7.54551e-20)
(3.65328 -0.375447 -2.83906e-20)
(3.63491 -0.202243 7.77001e-20)
(3.62325 -0.279496 5.19243e-20)
(3.56534 -0.126173 2.41006e-20)
(3.57113 -0.196952 2.13866e-20)
(3.50717 -0.13852 0)
(3.47855 -0.0731466 0)
(3.40081 -0.664658 -5.37623e-20)
(3.40566 -0.794028 -4.01241e-20)
(3.40376 -0.669099 1.24222e-20)
(3.37659 -0.587059 -3.58097e-20)
(3.43819 -0.665975 -2.22846e-20)
(3.39499 -0.653686 6.27723e-20)
(3.49059 -0.64658 -4.73374e-20)
(3.43475 -0.642382 0)
(3.54381 -0.60447 -5.88723e-20)
(3.48094 -0.617521 -1.33347e-20)
(3.58607 -0.539146 2.21186e-20)
(3.52503 -0.571585 0)
(3.607 -0.45725 2.235e-20)
(3.55645 -0.50638 7.25833e-20)
(3.6019 -0.369234 -6.63894e-21)
(3.5671 -0.428952 1.68562e-20)
(3.57192 -0.285172 0)
(3.55405 -0.348311 0)
(3.52191 -0.212515 0)
(3.51964 -0.273596 0)
(3.47199 -0.215944 3.54157e-21)
(3.45586 -0.158805 0)
(3.37131 -0.623561 -5.02772e-20)
(3.37301 -0.737718 4.53413e-20)
(3.36423 -0.621766 3.0585e-21)
(3.35653 -0.557652 -5.22918e-20)
(3.3847 -0.618812 8.10227e-20)
(3.36088 -0.620118 1.3727e-19)
(3.42203 -0.608838 4.54539e-20)
(3.38968 -0.607555 -1.54282e-20)
(3.46294 -0.584986 5.64151e-20)
(3.42339 -0.593482 6.75108e-20)
(3.49977 -0.543737 1.82934e-20)
(3.45736 -0.5652 -1.28943e-20)
(3.52363 -0.486201 4.2884e-20)
(3.48428 -0.520957 -9.08783e-21)
(3.52827 -0.418078 2.50898e-20)
(3.49725 -0.463326 4.71181e-20)
(3.51198 -0.34729 0)
(3.49228 -0.398052 1.19177e-20)
(3.47717 -0.281321 3.11078e-21)
(3.46928 -0.332829 -8.76308e-21)
(3.43325 -0.279359 1.96685e-20)
(3.42452 -0.227303 1.74802e-20)
(3.36026 -0.604833 5.26556e-20)
(3.36242 -0.70121 -1.26847e-19)
(3.34756 -0.601145 4.03719e-20)
(3.35101 -0.547513 -5.88177e-20)
(3.35935 -0.596797 5.36082e-20)
(3.34253 -0.611319 1.46907e-19)
(3.38614 -0.589856 -1.88716e-21)
(3.36555 -0.593283 -1.73616e-20)
(3.4152 -0.57399 6.36661e-21)
(3.3896 -0.583953 -1.58729e-20)
(3.44228 -0.545927 -5.28123e-20)
(3.41342 -0.564283 -1.99463e-20)
(3.46137 -0.504553 -3.79734e-20)
(3.43248 -0.532297 -4.31303e-20)
(3.4673 -0.452113 2.3158e-20)
(3.44207 -0.488355 -7.22295e-20)
(3.45753 -0.393637 1.51149e-20)
(3.43887 -0.435459 2.42218e-20)
(3.43279 -0.335199 -1.27613e-20)
(3.42183 -0.379081 -1.79113e-20)
(3.39299 -0.330053 1.61751e-20)
(3.39296 -0.282703 1.354e-20)
(3.36079 -0.607042 -2.42323e-19)
(3.37921 -0.684694 1.00844e-19)
(3.33956 -0.595533 1.03088e-20)
(3.34285 -0.560779 -1.81484e-19)
(3.34617 -0.592105 7.30962e-20)
(3.33319 -0.616096 -2.07911e-22)
(3.36544 -0.586846 -3.14099e-20)
(3.35195 -0.59363 5.91668e-20)
(3.38501 -0.574422 -4.27121e-20)
(3.36756 -0.587444 -3.21533e-20)
(3.40261 -0.552944 -7.94025e-21)
(3.38258 -0.571708 5.21006e-20)
(3.4145 -0.520987 -8.06734e-20)
(3.39361 -0.546178 3.75351e-20)
(3.41728 -0.479116 -9.20068e-20)
(3.39772 -0.510653 -2.96515e-20)
(3.40868 -0.430192 5.58927e-21)
(3.39283 -0.466517 1.22349e-20)
(3.38785 -0.378634 6.94473e-21)
(3.37787 -0.417476 -1.54789e-20)
(3.35378 -0.373487 1.57738e-20)
(3.35038 -0.330489 1.72202e-20)
(3.36479 -0.615071 1.60414e-19)
(3.37526 -0.705933 2.85823e-19)
(3.33544 -0.602509 -2.10739e-19)
(3.33923 -0.586671 -1.16647e-19)
(3.33919 -0.602531 -2.28848e-20)
(3.33262 -0.627895 -2.56841e-19)
(3.35113 -0.596525 7.11165e-20)
(3.34147 -0.607633 1.89632e-19)
(3.36291 -0.585036 5.29507e-20)
(3.35006 -0.601826 3.68405e-20)
(3.37243 -0.566563 9.89912e-20)
(3.35798 -0.587156 -3.17009e-20)
(3.3772 -0.539621 9.84411e-20)
(3.36183 -0.564606 1.79053e-22)
(3.3754 -0.504217 7.07586e-20)
(3.36024 -0.533755 4.11134e-20)
(3.36579 -0.462065 -5.71287e-21)
(3.35237 -0.495177 -1.16013e-22)
(3.34818 -0.416319 -1.3462e-20)
(3.33765 -0.451241 -1.34183e-20)
(3.31692 -0.411065 -9.36619e-21)
(3.321 -0.37174 1.21007e-19)
(3.36231 -0.641959 6.47541e-21)
(3.36602 -0.739595 3.00513e-19)
(3.33023 -0.629183 -1.48363e-19)
(3.3364 -0.614076 2.11651e-19)
(3.33186 -0.623977 -6.31631e-20)
(3.32303 -0.648888 -1.73843e-19)
(3.33767 -0.615887 1.74883e-19)
(3.32855 -0.63221 1.09725e-19)
(3.34343 -0.604279 -3.94259e-20)
(3.3329 -0.624398 -4.98147e-20)
(3.34635 -0.586676 -1.32285e-19)
(3.33497 -0.60945 -9.00911e-20)
(3.34488 -0.561911 -6.0825e-20)
(3.33277 -0.587848 -3.65383e-20)
(3.33843 -0.52992 -2.53059e-20)
(3.326 -0.559116 -2.28088e-20)
(3.32667 -0.491798 -6.34838e-21)
(3.31483 -0.523551 -2.23472e-20)
(3.30966 -0.449536 -9.31893e-21)
(3.299 -0.482448 1.21069e-20)
(3.27817 -0.444158 -1.38684e-21)
(3.28344 -0.405266 -6.89719e-20)
(3.35995 -0.670386 5.15465e-19)
(3.36357 -0.776924 5.92024e-19)
(3.32396 -0.656351 2.74079e-19)
(3.33295 -0.644333 2.38659e-19)
(3.32099 -0.650519 -2.79322e-20)
(3.3124 -0.676691 3.43625e-22)
(3.32255 -0.64225 -9.832e-20)
(3.31383 -0.66202 -1.51047e-19)
(3.32348 -0.630048 -9.83094e-20)
(3.31375 -0.652565 -1.98168e-21)
(3.32093 -0.612209 0)
(3.31083 -0.63699 -2.88397e-20)
(3.31411 -0.587931 0)
(3.30352 -0.61518 0)
(3.30334 -0.557204 -1.99058e-20)
(3.29219 -0.586871 0)
(3.28889 -0.520784 -8.98929e-21)
(3.2777 -0.552388 -1.43749e-20)
(3.27051 -0.480373 2.17251e-20)
(3.26057 -0.512369 3.72887e-20)
(3.23962 -0.475098 -1.31179e-20)
(3.24143 -0.437457 -7.21068e-20)
(3.35893 -0.705821 3.50154e-19)
(3.36295 -0.820877 3.12133e-19)
(3.31595 -0.689266 3.70194e-20)
(3.32754 -0.682014 6.55888e-21)
(3.30752 -0.682291 -1.20466e-19)
(3.29909 -0.711241 -3.82292e-20)
(3.30484 -0.673431 -6.95267e-20)
(3.29606 -0.696223 -1.61413e-19)
(3.30116 -0.660418 7.05425e-20)
(3.29156 -0.685093 1.27416e-19)
(3.29381 -0.641773 -3.19358e-20)
(3.28402 -0.668382 -2.07455e-22)
(3.28239 -0.616979 0)
(3.27223 -0.645556 -7.22775e-20)
(3.26776 -0.586193 7.04445e-21)
(3.25691 -0.616503 5.495e-20)
(3.2508 -0.55014 2.4563e-20)
(3.23945 -0.581589 -5.40632e-20)
(3.23203 -0.510064 5.89857e-21)
(3.22084 -0.541203 3.96088e-21)
(3.19975 -0.503787 -7.3454e-21)
(3.20793 -0.467558 -8.26423e-21)
(3.35086 -0.751011 -3.68923e-21)
(3.34781 -0.867101 3.62544e-19)
(3.30223 -0.729145 -6.3344e-20)
(3.31219 -0.724154 -2.62818e-20)
(3.28924 -0.71944 -6.69086e-20)
(3.27897 -0.750139 1.44498e-19)
(3.28263 -0.708847 5.61042e-21)
(3.27276 -0.733739 -1.37971e-19)
(3.27479 -0.694281 6.95773e-20)
(3.26456 -0.720768 -7.66286e-20)
(3.26323 -0.674195 -3.34418e-20)
(3.25304 -0.702435 2.84204e-20)
(3.24785 -0.64806 -3.08476e-20)
(3.23733 -0.677936 -7.25982e-20)
(3.22988 -0.616076 5.65944e-21)
(3.21851 -0.64722 1.03692e-19)
(3.21067 -0.578923 -8.4858e-20)
(3.1984 -0.610627 3.32306e-20)
(3.19095 -0.537533 -3.83153e-21)
(3.17833 -0.568368 2.18071e-20)
(3.15614 -0.52893 -6.63738e-20)
(3.16561 -0.491765 5.38253e-20)
(3.33358 -0.795825 3.79452e-19)
(3.32572 -0.912302 3.50503e-19)
(3.28114 -0.770719 1.64373e-19)
(3.29091 -0.765475 0)
(3.26479 -0.758998 8.91799e-20)
(3.25287 -0.78999 3.91073e-19)
(3.25486 -0.746679 -2.27492e-19)
(3.24365 -0.77257 -1.26e-19)
(3.24344 -0.730353 -1.28371e-19)
(3.23209 -0.758064 -1.96803e-19)
(3.22818 -0.708403 0)
(3.217 -0.73798 0)
(3.2093 -0.680251 4.34328e-20)
(3.19775 -0.711369 0)
(3.18836 -0.64608 1.37997e-19)
(3.17576 -0.678209 -9.29023e-20)
(3.16701 -0.606489 1.36479e-19)
(3.15322 -0.638834 -8.53365e-20)
(3.14582 -0.561997 -3.22955e-20)
(3.13179 -0.593221 7.79047e-20)
(3.10841 -0.550487 -2.48388e-20)
(3.11654 -0.510952 -5.7443e-20)
(3.31465 -0.838586 -2.21712e-21)
(3.309 -0.962913 -7.31663e-20)
(3.25619 -0.81173 1.87523e-19)
(3.26829 -0.808905 9.10276e-20)
(3.2356 -0.798953 1.94485e-19)
(3.22291 -0.831207 7.08226e-20)
(3.22201 -0.785433 -8.80134e-20)
(3.20975 -0.812298 -1.55269e-19)
(3.20699 -0.767531 -8.92653e-20)
(3.19445 -0.796202 1.38052e-19)
(3.18818 -0.743545 0)
(3.17569 -0.774212 0)
(3.16595 -0.712841 -1.25587e-19)
(3.15293 -0.745097 0)
(3.1422 -0.675587 -3.14362e-19)
(3.12782 -0.708744 -4.62216e-20)
(3.11892 -0.632405 -1.6819e-19)
(3.10301 -0.665541 -1.1639e-19)
(3.09721 -0.583986 8.72478e-20)
(3.08063 -0.615293 4.23235e-20)
(3.05694 -0.568176 4.56005e-20)
(3.07178 -0.529763 2.31471e-19)
(3.29003 -0.886277 9.58573e-21)
(3.27989 -1.01078 -6.58633e-20)
(3.22583 -0.854794 3.02457e-20)
(3.23743 -0.852534 3.59073e-19)
(3.20087 -0.83978 -2.80228e-19)
(3.18683 -0.872671 -2.70426e-19)
(3.18352 -0.824607 4.07463e-20)
(3.17015 -0.85223 -4.1737e-19)
(3.16485 -0.804948 2.42267e-19)
(3.15114 -0.83456 2.91471e-19)
(3.14242 -0.77869 0)
(3.12857 -0.810546 0)
(3.11681 -0.744923 8.21435e-20)
(3.10208 -0.778509 6.05924e-20)
(3.09033 -0.70372 1.54643e-19)
(3.07376 -0.738119 1.43765e-20)
(3.06538 -0.655783 6.55907e-20)
(3.04679 -0.689926 1.17815e-19)
(3.0432 -0.601865 0)
(3.02397 -0.633671 0)
(3.00051 -0.580251 0)
(3.01774 -0.54027 6.29654e-20)
(3.25805 -0.931839 2.39601e-19)
(3.24392 -1.05451 2.34098e-19)
(3.18941 -0.897176 2.29375e-19)
(3.20171 -0.894173 1.6722e-19)
(3.1606 -0.880381 -3.93371e-19)
(3.146 -0.912814 -3.11534e-19)
(3.13944 -0.863735 -2.38643e-19)
(3.12528 -0.891741 -8.0286e-20)
(3.11689 -0.84234 8.02455e-20)
(3.10213 -0.872871 1.93169e-19)
(3.09047 -0.813549 5.43027e-20)
(3.07519 -0.846866 -9.25934e-20)
(3.06112 -0.776052 -2.47667e-21)
(3.04438 -0.811414 -1.8551e-21)
(3.03184 -0.729799 -3.80873e-20)
(3.01248 -0.76585 -6.80146e-21)
(3.00566 -0.675803 6.51543e-20)
(2.98354 -0.711148 -4.06178e-20)
(2.98406 -0.615494 0)
(2.96137 -0.647467 -8.32739e-20)
(2.93974 -0.587182 4.07775e-20)
(2.96128 -0.547886 9.52125e-20)
(3.22417 -0.973891 4.20403e-20)
(3.21031 -1.10246 5.17346e-21)
(3.15007 -0.937948 -2.68628e-19)
(3.16522 -0.937197 -1.11114e-20)
(3.11637 -0.920307 1.9687e-21)
(3.10242 -0.953268 -4.08561e-19)
(3.09045 -0.902812 3.24407e-19)
(3.07617 -0.931872 4.62718e-19)
(3.06312 -0.879977 4.99677e-20)
(3.04766 -0.911964 6.55608e-20)
(3.03182 -0.848442 -1.57171e-19)
(3.01504 -0.883793 -9.28329e-20)
(2.99802 -0.806293 -3.558e-21)
(2.97873 -0.843935 -6.11528e-20)
(2.96571 -0.75339 -4.20157e-21)
(2.94264 -0.791318 6.9601e-21)
(2.93893 -0.691455 -1.96833e-19)
(2.91207 -0.727863 -5.17696e-20)
(2.91962 -0.623291 -3.84588e-20)
(2.89209 -0.654998 -7.04703e-20)
(2.87446 -0.587795 5.46407e-20)
(2.90233 -0.549897 -1.1721e-19)
(3.18768 -1.01823 -3.84521e-20)
(3.17124 -1.14866 -2.2496e-19)
(3.10782 -0.979738 -1.08464e-19)
(3.12519 -0.980574 3.96067e-19)
(3.06834 -0.960934 7.33669e-21)
(3.05547 -0.994557 -1.95667e-19)
(3.03649 -0.94275 2.45091e-19)
(3.0226 -0.97363 9.94717e-20)
(3.00284 -0.918482 -6.07485e-20)
(2.98702 -0.953056 2.7939e-21)
(2.96502 -0.883431 0)
(2.94655 -0.922141 -1.33434e-19)
(2.92563 -0.834843 -5.81553e-20)
(2.90294 -0.875897 1.00755e-19)
(2.89028 -0.772911 -3.63906e-20)
(2.86217 -0.813228 -6.53865e-20)
(2.86424 -0.700928 5.76525e-20)
(2.83113 -0.737972 8.83273e-20)
(2.84938 -0.623392 6.9797e-21)
(2.81581 -0.653908 4.18153e-20)
(2.80539 -0.57718 2.98627e-21)
(2.84012 -0.541065 5.28904e-20)
(3.14834 -1.06274 2.74566e-19)
(3.12912 -1.1942 -1.3152e-20)
(3.06293 -1.02265 4.85223e-19)
(3.08371 -1.02474 1.0454e-19)
(3.01689 -1.00344 -1.34021e-19)
(3.00649 -1.038 -2.16984e-20)
(2.97726 -0.985266 -1.32413e-19)
(2.96469 -1.01942 -3.2043e-20)
(2.93463 -0.959442 -5.6424e-20)
(2.91863 -0.998679 -3.33399e-21)
(2.88768 -0.919213 -6.52483e-20)
(2.86663 -0.963261 -1.76413e-20)
(2.84137 -0.861033 1.11894e-19)
(2.81341 -0.906679 -2.26144e-20)
(2.80361 -0.786388 3.51539e-20)
(2.76814 -0.829196 -5.42022e-20)
(2.7807 -0.701348 8.20169e-20)
(2.73922 -0.738227 1.18319e-19)
(2.77352 -0.613023 3.07525e-20)
(2.73212 -0.641421 3.06093e-21)
(2.73368 -0.553597 7.68525e-20)
(2.77765 -0.524162 3.93731e-20)
(3.1085 -1.10709 -3.37185e-19)
(3.0868 -1.24148 1.26998e-20)
(3.01782 -1.06781 -2.67379e-19)
(3.04482 -1.07295 -4.24907e-19)
(2.96317 -1.05042 5.6234e-20)
(2.95768 -1.08879 1.26611e-19)
(2.91171 -1.03364 8.89297e-20)
(2.90141 -1.07527 1.31134e-19)
(2.8552 -1.00526 3.68426e-20)
(2.83825 -1.0532 -1.10674e-19)
(2.79545 -0.956011 3.39841e-20)
(2.76946 -1.00801 1.14972e-19)
(2.74138 -0.882756 -1.85494e-19)
(2.70493 -0.933679 -6.88363e-20)
(2.70344 -0.790386 -3.10586e-21)
(2.65743 -0.834712 -6.74032e-20)
(2.68777 -0.689407 6.5799e-20)
(2.63557 -0.724044 2.82982e-20)
(2.69254 -0.590232 4.88169e-20)
(2.64196 -0.614272 -5.81306e-20)
(2.66165 -0.518798 -2.49876e-20)
(2.7116 -0.500487 5.94521e-20)
(3.07313 -1.15581 -1.75702e-19)
(3.04908 -1.29724 2.0332e-19)
(2.97632 -1.12142 -2.06832e-19)
(3.0135 -1.13386 -3.67255e-19)
(2.90711 -1.10938 1.99591e-19)
(2.90851 -1.15975 2.01515e-19)
(2.83521 -1.09423 -3.88827e-20)
(2.82595 -1.15173 0)
(2.75726 -1.05845 -4.83656e-20)
(2.73563 -1.12032 -4.31605e-20)
(2.68139 -0.991861 3.43829e-20)
(2.64565 -1.05322 3.73461e-20)
(2.62124 -0.89513 3.13714e-20)
(2.57187 -0.949843 -6.22631e-20)
(2.58829 -0.779385 -4.99527e-20)
(2.52851 -0.8222 5.76299e-20)
(2.58621 -0.660657 -6.99266e-20)
(2.52153 -0.689335 -8.02942e-20)
(2.6089 -0.552186 -1.21205e-19)
(2.54817 -0.567968 4.90945e-21)
(2.59193 -0.468827 -7.51476e-20)
(2.64556 -0.460473 1.47478e-19)
(3.04794 -1.21283 -1.4214e-19)
(3.02348 -1.37111 3.58784e-19)
(2.93914 -1.1937 -1.37093e-19)
(2.98688 -1.23655 -1.38709e-19)
(2.84037 -1.19186 2.4853e-20)
(2.84647 -1.27815 2.18609e-20)
(2.73392 -1.17206 0)
(2.71749 -1.25818 -4.56689e-20)
(2.62792 -1.11578 3.29342e-20)
(2.59274 -1.19411 3.09428e-20)
(2.53755 -1.01831 -2.25799e-20)
(2.48553 -1.08593 4.04996e-20)
(2.47855 -0.888522 -8.50167e-20)
(2.41258 -0.941858 -5.59533e-20)
(2.45956 -0.745288 3.63841e-20)
(2.38464 -0.781488 3.32337e-20)
(2.47922 -0.609211 -1.55306e-20)
(2.40212 -0.627261 -7.73516e-20)
(2.52608 -0.49467 5.78414e-20)
(2.45545 -0.497866 5.57307e-20)
(2.52705 -0.39948 2.27919e-20)
(2.58838 -0.413199 1.18516e-19)
(3.04043 -1.32236 2.0563e-19)
(2.83489 -1.54679 1.20954e-19)
(2.89484 -1.34171 -1.09413e-21)
(2.90484 -1.45532 7.99324e-20)
(2.73603 -1.32814 -3.97096e-20)
(2.7018 -1.4467 0)
(2.58529 -1.27314 -6.664e-20)
(2.53435 -1.36491 -4.79456e-20)
(2.45536 -1.1708 3.39543e-20)
(2.39583 -1.2414 -8.41292e-21)
(2.36256 -1.02529 3.79418e-20)
(2.29368 -1.07856 5.41054e-20)
(2.31863 -0.854747 3.20557e-20)
(2.24129 -0.891672 4.21616e-20)
(2.32462 -0.683177 -6.76004e-20)
(2.24204 -0.703269 -3.0372e-20)
(2.37378 -0.532196 -1.75716e-20)
(2.29121 -0.532858 -3.72124e-20)
(2.44857 -0.415199 2.46054e-20)
(2.37387 -0.401578 2.18251e-20)
(2.47439 -0.309928 0)
(2.53213 -0.325019 0)
(2.82622 -1.49621 4.90822e-19)
(2.27358 -2.21396 -4.34186e-19)
(2.67845 -1.50781 3.69282e-20)
(2.49708 -1.60786 2.72587e-20)
(2.51947 -1.43083 -3.9147e-21)
(2.4207 -1.49254 -1.45178e-20)
(2.36088 -1.31133 -4.70125e-20)
(2.31793 -1.39512 -5.31427e-20)
(2.23914 -1.14721 -9.01536e-20)
(2.22565 -1.22656 -4.42961e-20)
(2.17337 -0.952611 4.58574e-20)
(2.15145 -1.0179 3.87779e-20)
(2.16414 -0.749928 0)
(2.11729 -0.80079 0)
(2.20307 -0.563382 0)
(2.13582 -0.597701 0)
(2.28608 -0.412725 0)
(2.21051 -0.413494 -1.54143e-19)
(2.38592 -0.306529 0)
(2.31532 -0.287049 8.62618e-20)
(2.43845 -0.209698 -1.90372e-19)
(2.48554 -0.239261 -1.05838e-19)
(4.88014 -1.30937 7.65289e-21)
(5.44895 -1.36289 -2.16913e-19)
(4.77224 -1.04046 -1.02854e-19)
(5.19305 -1.23296 -4.25565e-19)
(4.67091 -0.780834 -4.49548e-20)
(5.03044 -0.986964 5.51399e-19)
(4.562 -0.55188 1.55561e-19)
(4.87148 -0.702647 -2.42702e-19)
(4.44461 -0.352253 1.0929e-19)
(4.72001 -0.445597 7.86756e-20)
(4.32018 -0.175487 3.27982e-20)
(4.57577 -0.22829 2.95252e-21)
(4.18475 -0.0241465 3.28876e-20)
(4.41282 -0.0392665 -4.6128e-20)
(4.03473 0.0985741 1.20461e-20)
(4.21898 0.123717 7.81885e-20)
(3.87965 0.191269 6.93591e-22)
(4.0296 0.23938 6.12705e-21)
(3.72205 0.253761 -5.18816e-21)
(3.84216 0.319992 -4.566e-21)
(3.67272 0.364675 0)
(3.5699 0.292162 -1.64952e-19)
(5.58209 -1.34692 -5.36396e-19)
(5.92918 -1.33108 -3.36373e-20)
(5.39656 -1.16337 1.5884e-19)
(5.726 -1.25604 -3.53269e-19)
(5.20488 -0.895988 3.32869e-19)
(5.53383 -1.0725 5.35569e-19)
(5.02358 -0.584118 -2.93739e-19)
(5.32941 -0.796478 -4.17747e-19)
(4.85297 -0.303331 -1.07555e-20)
(5.11807 -0.474281 9.32943e-20)
(4.67098 -0.0773455 -7.0332e-20)
(4.91331 -0.167059 1.43278e-20)
(4.46013 0.120561 -6.15588e-20)
(4.70968 0.0956254 4.49802e-20)
(4.238 0.276739 4.94267e-20)
(4.4678 0.302287 -7.50526e-20)
(4.02121 0.37452 0)
(4.22026 0.437419 5.03601e-20)
(3.80837 0.435452 0)
(3.95171 0.522661 -5.05709e-20)
(3.73148 0.568148 4.58593e-21)
(3.60075 0.466238 -1.81157e-19)
(6.01498 -1.32484 1.31299e-19)
(6.22876 -1.36681 1.20537e-19)
(5.85433 -1.1973 -1.04168e-20)
(6.10891 -1.24963 7.87018e-21)
(5.66617 -0.994043 -1.59556e-19)
(5.93732 -1.11667 -3.64173e-21)
(5.44728 -0.694988 -4.37991e-20)
(5.73497 -0.881479 -2.47032e-19)
(5.21479 -0.33332 1.21349e-19)
(5.49879 -0.554737 1.30345e-19)
(4.98283 0.00126386 1.20725e-19)
(5.2374 -0.173208 5.01692e-20)
(4.74392 0.267411 -1.15437e-20)
(4.98384 0.183913 1.34607e-19)
(4.4816 0.469607 -8.5412e-20)
(4.7148 0.474244 -7.1503e-20)
(4.19381 0.602722 -6.06802e-20)
(4.4192 0.677164 1.99776e-20)
(3.89942 0.665919 -4.00799e-20)
(4.08392 0.792079 -2.63707e-20)
(3.79214 0.817498 -1.61464e-20)
(3.6343 0.690231 -7.27173e-21)
(6.32031 -1.33273 6.9041e-21)
(6.4478 -1.43654 4.40175e-20)
(6.19318 -1.21815 8.5591e-21)
(6.39702 -1.26458 -3.92133e-21)
(6.02753 -1.04248 -6.60314e-20)
(6.24996 -1.15804 -5.66784e-20)
(5.81546 -0.783369 -6.51099e-20)
(6.06412 -0.948605 -7.38358e-20)
(5.5632 -0.423716 9.33246e-20)
(5.83279 -0.649119 3.58539e-20)
(5.28559 -0.00267655 5.50665e-20)
(5.55468 -0.249723 4.9264e-20)
(4.99425 0.377285 4.97699e-20)
(5.24203 0.19843 -1.17506e-20)
(4.68766 0.669022 8.01533e-21)
(4.92505 0.598346 2.51278e-20)
(4.35538 0.861668 -1.68668e-20)
(4.58254 0.900104 -2.87717e-20)
(4.01114 0.949894 -2.23262e-20)
(4.21006 1.08211 6.25966e-20)
(3.84492 1.1367 -9.36266e-20)
(3.66838 0.940377 -1.21046e-20)
(6.5499 -1.3654 1.58086e-19)
(6.61847 -1.51344 -3.55896e-20)
(6.4547 -1.26114 -1.43299e-19)
(6.61865 -1.2973 2.54539e-20)
(6.31112 -1.09868 -6.2548e-20)
(6.49005 -1.21683 -4.64818e-20)
(6.11235 -0.861757 3.21839e-21)
(6.32141 -1.02584 4.23252e-20)
(5.86406 -0.531126 4.00918e-21)
(6.10036 -0.753663 -1.15921e-19)
(5.56335 -0.090741 -1.03931e-20)
(5.82384 -0.376378 9.11776e-20)
(5.22382 0.393032 8.43753e-20)
(5.48368 0.113302 -2.77669e-20)
(4.86256 0.804593 -3.40824e-20)
(5.10589 0.626613 -3.05195e-20)
(4.48022 1.10159 3.98806e-20)
(4.70742 1.04993 -1.61392e-19)
(4.08614 1.26219 -2.66977e-20)
(4.28555 1.33433 4.48551e-20)
(3.85731 1.45473 -9.73579e-20)
(3.70265 1.26662 -1.5074e-19)
(6.72067 -1.40226 -4.97969e-20)
(6.74548 -1.57788 -8.02686e-20)
(6.65122 -1.3137 6.94203e-20)
(6.78056 -1.33685 1.64997e-20)
(6.52459 -1.17016 6.5295e-20)
(6.66358 -1.28796 2.48962e-20)
(6.33956 -0.957897 -5.97447e-20)
(6.51037 -1.1191 1.12275e-20)
(6.09907 -0.656203 -5.3525e-20)
(6.30244 -0.880125 -1.19639e-19)
(5.79623 -0.240489 1.45921e-19)
(6.03248 -0.541419 2.69705e-19)
(5.42821 0.290232 5.59955e-20)
(5.68783 -0.0706197 -8.59624e-20)
(5.00542 0.825572 -1.42747e-19)
(5.2616 0.519657 2.65643e-19)
(4.56027 1.24784 -1.79082e-19)
(4.79402 1.07742 -2.73543e-19)
(4.10899 1.51553 -2.329e-20)
(4.30855 1.48909 0)
(3.81501 1.70804 -2.62087e-20)
(3.70561 1.5636 3.60472e-19)
(6.83485 -1.44028 -2.2337e-20)
(6.82359 -1.62328 -1.84584e-19)
(6.78548 -1.37134 -2.74567e-20)
(6.88212 -1.38121 1.52233e-19)
(6.67148 -1.2529 -3.53536e-20)
(6.77354 -1.36742 2.68303e-20)
(6.5001 -1.07349 -4.36907e-20)
(6.63419 -1.22471 -1.4489e-19)
(6.27225 -0.811409 1.59469e-19)
(6.44056 -1.02686 0)
(5.97454 -0.437226 8.73154e-20)
(6.18388 -0.738245 1.79159e-19)
(5.58806 0.0805831 8.47861e-20)
(5.84431 -0.322853 -1.36481e-19)
(5.12062 0.700534 3.03869e-19)
(5.39569 0.261391 6.81883e-19)
(4.60085 1.25522 -4.44075e-20)
(4.85764 0.942512 -3.98952e-20)
(4.08045 1.6497 0)
(4.28991 1.4938 0)
(3.73557 1.83303 0)
(3.61669 1.83186 2.43164e-19)
(6.89918 -1.48849 -2.42107e-19)
(6.86534 -1.66359 -1.08833e-20)
(6.86207 -1.4374 1.11726e-19)
(6.93195 -1.43325 1.47381e-19)
(6.75697 -1.34613 -4.21792e-20)
(6.82592 -1.45466 2.71472e-20)
(6.5979 -1.20391 -1.16839e-19)
(6.69757 -1.33941 4.10461e-20)
(6.38465 -0.990192 0)
(6.51678 -1.18793 -1.14569e-19)
(6.10008 -0.674306 0)
(6.27557 -0.958144 0)
(5.71795 -0.216332 3.71134e-19)
(5.95115 -0.614464 2.6802e-19)
(5.21542 0.414784 4.6269e-19)
(5.50553 -0.107789 -8.9007e-20)
(4.619 1.09261 0)
(4.91452 0.609867 -2.58013e-20)
(4.00829 1.61606 0)
(4.24821 1.31527 -3.0518e-19)
(3.60856 1.79031 0)
(3.47813 1.90766 0)
(6.92267 -1.53881 3.37052e-19)
(6.87552 -1.6995 2.82245e-19)
(6.88863 -1.50841 -4.02886e-20)
(6.93372 -1.48651 -2.16198e-19)
(6.78714 -1.4467 1.32749e-19)
(6.82629 -1.54666 1.06346e-19)
(6.63705 -1.34423 5.57069e-20)
(6.70583 -1.46093 2.99806e-19)
(6.43693 -1.18415 -1.27191e-19)
(6.53426 -1.35926 2.13884e-19)
(6.16899 -0.937908 2.39806e-19)
(6.3071 -1.19416 -2.41311e-19)
(5.80295 -0.562242 -2.16952e-19)
(6.00254 -0.935009 2.69176e-19)
(5.29228 -0.000802531 -6.98102e-19)
(5.57932 -0.532622 -7.52407e-20)
(4.63899 0.725455 -3.11622e-19)
(4.96812 0.0964897 7.58882e-19)
(3.92926 1.37908 -3.39254e-19)
(4.21894 0.921231 -6.74546e-19)
(3.49592 1.51717 0)
(3.38055 1.79749 9.08383e-19)
(6.90183 -1.59514 7.70123e-21)
(6.83308 -1.73175 7.08691e-20)
(6.86992 -1.5827 7.89041e-21)
(6.89507 -1.55171 -3.87984e-20)
(6.76622 -1.55061 2.54091e-19)
(6.782 -1.63961 1.89648e-20)
(6.62096 -1.49136 4.57508e-19)
(6.66011 -1.58678 9.499e-20)
(6.43021 -1.38871 1.48808e-19)
(6.49423 -1.53815 2.01626e-19)
(6.17741 -1.21923 -2.67798e-19)
(6.2777 -1.44067 -3.79981e-19)
(5.83458 -0.944634 4.77126e-19)
(5.99156 -1.27239 3.15626e-19)
(5.34627 -0.499725 1.41513e-18)
(5.60098 -0.990837 5.27991e-20)
(4.66016 0.183898 7.26584e-19)
(5.02392 -0.522727 4.11732e-19)
(3.85909 0.92378 -4.10793e-19)
(4.21045 0.284661 -3.69788e-19)
(3.3772 1.04958 6.54703e-19)
(3.2881 1.37573 -1.50532e-18)
(6.83705 -1.6339 9.82825e-21)
(6.74008 -1.77331 -2.72959e-20)
(6.803 -1.64935 5.69775e-21)
(6.80464 -1.62397 1.43388e-19)
(6.69066 -1.66099 -1.4926e-19)
(6.67449 -1.72123 -1.042e-19)
(6.55064 -1.64608 -1.84253e-19)
(6.56253 -1.72333 4.49383e-20)
(6.36615 -1.60171 -2.72182e-19)
(6.4002 -1.72566 -1.3512e-19)
(6.12468 -1.51067 1.30323e-19)
(6.19034 -1.6954 3.00198e-19)
(5.80423 -1.34407 -7.82424e-20)
(5.91827 -1.61644 8.16996e-20)
(5.355 -1.04432 -1.00618e-18)
(5.55997 -1.45817 -4.7547e-19)
(4.68414 -0.504724 -5.68906e-19)
(5.05184 -1.16546 -4.44767e-19)
(3.82965 0.241822 5.82022e-19)
(4.24116 -0.563485 -4.70175e-19)
(3.35056 0.365432 6.47106e-19)
(3.14766 0.834303 -2.51894e-18)
(6.72184 -1.68112 7.11103e-21)
(6.6105 -1.81452 -3.01488e-20)
(6.6777 -1.73336 -1.38226e-20)
(6.64839 -1.69438 0)
(6.56474 -1.77204 7.35035e-20)
(6.53132 -1.81274 2.65983e-21)
(6.4263 -1.80671 1.11091e-19)
(6.40884 -1.8687 4.08462e-20)
(6.24592 -1.82242 3.93359e-19)
(6.25177 -1.92361 2.07693e-20)
(6.01312 -1.80715 2.83698e-19)
(6.04927 -1.96068 4.40089e-19)
(5.71192 -1.74278 -2.34118e-19)
(5.78922 -1.96506 4.84078e-20)
(5.31065 -1.59501 7.19124e-20)
(5.45432 -1.9147 -1.88112e-19)
(4.70672 -1.26873 -3.89182e-19)
(5.0107 -1.77553 3.27748e-20)
(3.86052 -0.608475 -3.42483e-19)
(4.34358 -1.44813 -2.72689e-19)
(3.48153 -0.567727 5.82523e-19)
(3.11247 0.127738 1.58733e-19)
(6.55572 -1.72779 -4.0357e-20)
(6.43342 -1.84219 -2.00267e-20)
(6.50066 -1.81154 1.3616e-20)
(6.44002 -1.7661 4.45209e-20)
(6.38651 -1.8945 -3.52209e-20)
(6.32629 -1.90921 1.51531e-20)
(6.24781 -1.97892 -4.50737e-20)
(6.20238 -2.01931 -4.01264e-20)
(6.07263 -2.05585 2.29818e-20)
(6.05095 -2.13314 -3.96367e-21)
(5.84908 -2.11367 2.54873e-19)
(5.86037 -2.23912 -9.61939e-21)
(5.56373 -2.13675 1.35096e-19)
(5.6197 -2.32367 2.85462e-19)
(5.19721 -2.10045 -2.56332e-19)
(5.31639 -2.36775 -2.18963e-19)
(4.71359 -1.95862 9.25294e-20)
(4.9297 -2.34341 3.43073e-20)
(3.99891 -1.54555 5.38693e-19)
(4.4262 -2.19766 1.99576e-19)
(3.65746 -1.65965 4.34606e-19)
(3.14701 -0.874072 -1.50638e-18)
(6.33069 -1.76793 1.72238e-19)
(6.1883 -1.86068 1.67052e-20)
(6.26313 -1.88929 4.90435e-20)
(6.16897 -1.83563 5.46961e-20)
(6.14869 -2.01949 1.23455e-20)
(6.05747 -2.00926 -1.80565e-20)
(6.01406 -2.15939 -3.38824e-21)
(5.93718 -2.17442 2.01532e-20)
(5.84994 -2.30109 -3.14696e-20)
(5.79714 -2.35061 -4.20442e-20)
(5.64574 -2.43343 -1.06521e-20)
(5.62652 -2.52675 2.44947e-20)
(5.39148 -2.54103 0)
(5.41652 -2.6897 0)
(5.07412 -2.6006 4.47289e-20)
(5.15941 -2.82081 0)
(4.66919 -2.57522 5.56804e-20)
(4.84261 -2.89043 7.05803e-20)
(4.13949 -2.4137 6.84314e-20)
(4.4383 -2.85051 -8.84941e-20)
(3.92174 -2.65077 -9.68385e-20)
(3.38414 -1.88031 4.48618e-20)
(6.04046 -1.80864 9.15063e-21)
(5.88299 -1.87661 -1.52158e-19)
(5.96018 -1.96781 -5.04359e-21)
(5.8327 -1.90272 2.99249e-20)
(5.84744 -2.14693 -1.45631e-20)
(5.72119 -2.11177 4.76936e-21)
(5.72276 -2.34468 -1.43302e-20)
(5.60935 -2.33296 4.20318e-20)
(5.5783 -2.55221 -4.08392e-22)
(5.48898 -2.57207 -2.83031e-20)
(5.40481 -2.75757 3.42891e-20)
(5.34921 -2.81607 3.10042e-20)
(5.19508 -2.94528 0)
(5.18246 -3.05138 3.80309e-20)
(4.94061 -3.09389 2.98002e-20)
(4.98396 -3.25943 -2.895e-20)
(4.62617 -3.17333 -4.18335e-20)
(4.74524 -3.41144 -6.69988e-20)
(4.23272 -3.13684 -2.08717e-19)
(4.44982 -3.47045 -2.11819e-19)
(4.0844 -3.41789 2.41553e-19)
(3.6607 -2.91573 2.08114e-18)
(5.67888 -1.8453 -3.47797e-20)
(5.50534 -1.89519 -3.49503e-19)
(5.58536 -2.04568 2.59527e-20)
(5.42051 -1.96875 2.34908e-19)
(5.47834 -2.27654 5.69137e-20)
(5.31013 -2.21721 4.82209e-20)
(5.37248 -2.53313 3.30452e-20)
(5.21483 -2.49261 -1.90315e-21)
(5.25951 -2.80402 -7.67988e-21)
(5.12606 -2.78965 -1.54269e-20)
(5.12981 -3.07569 3.40093e-20)
(5.03058 -3.09268 1.51379e-21)
(4.97759 -3.33278 2.37523e-20)
(4.91979 -3.3878 3.80631e-20)
(4.79819 -3.55552 -1.06709e-19)
(4.79079 -3.65713 -1.24758e-20)
(4.58282 -3.71654 -2.02535e-19)
(4.63939 -3.87456 -9.62657e-20)
(4.31632 -3.78201 1.6167e-19)
(4.45274 -4.01129 -2.48368e-20)
(4.21434 -4.05573 3.24382e-19)
(3.89351 -3.72216 -1.94584e-18)
(5.24629 -1.88072 1.14545e-19)
(5.04045 -1.94427 -8.86091e-20)
(5.14379 -2.12597 2.63348e-19)
(4.92262 -2.04775 3.39219e-20)
(5.05129 -2.40711 -3.30098e-21)
(4.81878 -2.31716 2.09276e-20)
(4.97615 -2.7155 -4.80384e-20)
(4.74854 -2.6206 -4.80094e-20)
(4.90634 -3.03842 -3.54824e-21)
(4.69891 -2.94505 1.9934e-21)
(4.82926 -3.36199 1.6744e-21)
(4.65389 -3.27449 1.15834e-21)
(4.73893 -3.6715 1.47684e-20)
(4.60318 -3.59481 0)
(4.6342 -3.94928 9.04642e-21)
(4.54413 -3.88762 -6.01709e-20)
(4.51141 -4.17058 4.52607e-20)
(4.47631 -4.12546 -1.24661e-20)
(4.3548 -4.30183 1.33265e-19)
(4.39222 -4.27646 1.35558e-19)
(4.25447 -4.3358 -5.56628e-19)
(4.08625 -4.33943 2.9519e-19)
(4.75408 -1.94085 -2.01021e-19)
(4.3824 -1.94644 3.95561e-19)
(4.61825 -2.21195 -1.99908e-19)
(4.32006 -2.04166 -1.72924e-19)
(4.52958 -2.50387 -1.99386e-20)
(4.25505 -2.29437 -9.19993e-21)
(4.47716 -2.81583 -4.19554e-21)
(4.2136 -2.58008 -1.25628e-19)
(4.44623 -3.13993 9.30706e-21)
(4.19357 -2.88145 1.00264e-20)
(4.42382 -3.46244 -3.88639e-22)
(4.18728 -3.18526 -1.94203e-20)
(4.40259 -3.76632 -6.84153e-20)
(4.18675 -3.47868 -3.92828e-20)
(4.38004 -4.03158 -8.52563e-20)
(4.1886 -3.74106 2.44529e-19)
(4.35036 -4.23252 6.14137e-20)
(4.19184 -3.93593 -2.31593e-19)
(4.28952 -4.33719 -2.7992e-19)
(4.18725 -4.01283 -1.04009e-19)
(4.13761 -3.94998 8.14154e-20)
(4.09378 -4.32245 -8.96441e-19)
(3.99106 -1.85904 3.02942e-19)
(3.76078 -1.89053 2.47447e-19)
(3.96792 -2.10217 0)
(3.73735 -1.94211 9.49278e-20)