/*--------------------------------*- C++ -*----------------------------------*\
| =========                 |                                                 |
| \\      /  F ield         | OpenFOAM: The Open Source CFD Toolbox           |
|  \\    /   O peration     | Version:  3.0.1                                 |
|   \\  /    A nd           | Web:      www.OpenFOAM.org                      |
|    \\/     M anipulation  |                                                 |
\*---------------------------------------------------------------------------*/
FoamFile
{
    version     2.0;
    format      ascii;
    class       volScalarField;
    location    "0.299978";
    object      nut;
}
// * * * * * * * * * * * * * * * * * * * * * * * * * * * * * * * * * * * * * //

dimensions      [0 2 -1 0 0 0 0];

internalField   nonuniform List<scalar> 
21246
(
2.66185e-05
0.00012902
0.000207566
0.000282493
0.000321862
0.000327673
0.000339139
0.000393218
0.00048201
0.000577733
0.000629111
1.93636e-05
8.11487e-05
0.00014783
0.000218335
0.000270503
0.000293428
0.000312124
0.000372135
0.000451119
0.000522238
0.00054979
1.55613e-05
6.29156e-05
0.000118037
0.000178765
0.000231338
0.000263712
0.000286843
0.000332746
0.000413423
0.000475422
0.000480165
1.3493e-05
5.94171e-05
0.000104649
0.000156323
0.000205248
0.000241338
0.000268169
0.000304593
0.000369381
0.000433224
0.000433982
1.30762e-05
5.92974e-05
0.000100006
0.000144871
0.000189145
0.000225605
0.000254733
0.000287066
0.000337465
0.000393106
0.000399983
1.32094e-05
5.96096e-05
9.78212e-05
0.000139042
0.000179819
0.000215359
0.000245766
0.000276879
0.000318531
0.000363802
0.000373379
1.32425e-05
5.94849e-05
9.78176e-05
0.000136129
0.000175515
0.000210233
0.000241751
0.000273276
0.000310099
0.000346413
0.000355017
1.33619e-05
5.92725e-05
9.90933e-05
0.000136726
0.000175895
0.000210881
0.000243923
0.000276393
0.000309549
0.000337759
0.000343153
1.34305e-05
5.87585e-05
0.000101518
0.000140934
0.000181289
0.000217602
0.000252288
0.000284572
0.000312964
0.00033357
0.000336136
1.34109e-05
5.81978e-05
0.000104905
0.000147817
0.000189943
0.000228334
0.000263696
0.000293546
0.000316127
0.000330874
0.000332472
1.3407e-05
5.77008e-05
0.000108207
0.000154364
0.000198902
0.000238984
0.000273508
0.000299699
0.000317456
0.000329045
0.00033129
1.34227e-05
5.74897e-05
0.000110793
0.000159566
0.000205999
0.000246776
0.00027981
0.000303107
0.000318244
0.000328987
0.000333111
1.33731e-05
5.73801e-05
0.000112554
0.000163107
0.000210705
0.000251691
0.00028374
0.000305694
0.000320001
0.000331078
0.000337414
1.32424e-05
5.69047e-05
0.000113249
0.000165091
0.000213585
0.000254966
0.000286936
0.000308772
0.000323141
0.000334844
0.00034296
1.29975e-05
5.67115e-05
0.000113725
0.000166446
0.000215765
0.000257863
0.000290472
0.000312934
0.000327749
0.000339949
0.000349537
1.26225e-05
5.63536e-05
0.000113621
0.000166983
0.000217189
0.00026039
0.000294237
0.000317847
0.000333263
0.00034555
0.000355793
1.21238e-05
5.51858e-05
0.000112095
0.000165877
0.000217125
0.000261894
0.000297603
0.000322846
0.000338883
0.000350604
0.000360662
1.14304e-05
5.33449e-05
0.000109156
0.00016288
0.000215177
0.000261933
0.000300082
0.000327349
0.000343834
0.000354019
0.000362348
1.05315e-05
5.06259e-05
0.000104454
0.000157533
0.000210806
0.000259795
0.000300694
0.000330075
0.000346543
0.000353788
0.000357731
9.41754e-06
4.70083e-05
9.79519e-05
0.000149669
0.000203
0.000253056
0.000295959
0.000327238
0.000343571
0.000347257
0.000345141
8.01353e-06
4.19944e-05
9.14458e-05
0.00013864
0.000183511
0.000226468
0.000268872
0.000304397
0.00032498
0.000328846
0.000322381
7.32882e-06
4.68892e-05
7.14543e-05
7.52556e-05
9.44181e-05
0.000123884
0.00016493
0.000220632
0.000263628
0.000283494
0.000284101
5.65213e-06
1.60175e-05
3.10827e-05
5.5223e-05
8.48039e-05
0.000111833
0.000127823
0.00013514
0.00015603
0.00019052
0.000216664
9.2871e-06
2.48971e-05
5.46261e-05
9.84326e-05
0.000147134
0.000187437
0.000206596
0.000195819
0.00016152
0.000140652
0.000146907
2.50852e-05
0.000181605
0.000284757
0.000341565
0.000353046
0.00033828
0.000341354
0.000401892
0.000512758
0.000638628
0.000712314
1.47663e-05
0.000119964
0.000240326
0.00032547
0.000363779
0.000358652
0.000349269
0.00040206
0.000531813
0.000699243
0.000824644
1.20905e-05
6.99522e-05
0.000179352
0.000285574
0.000358433
0.000377964
0.000356821
0.000381845
0.000520235
0.000735709
0.000938768
1.31074e-05
5.52349e-05
0.00014244
0.000250026
0.00034605
0.000396145
0.000374523
0.000336077
0.000446836
0.000702393
0.000990261
1.50154e-05
6.03392e-05
0.000141605
0.000241234
0.000341367
0.000415133
0.000425364
0.000355033
0.000318088
0.000490861
0.000862856
1.70467e-05
6.99358e-05
0.000154259
0.000250489
0.000349565
0.000435735
0.000476372
0.000432413
0.000340655
0.000343534
0.000631045
1.90748e-05
8.15668e-05
0.00017186
0.000266918
0.000362538
0.000453175
0.000515974
0.000507471
0.000411692
0.000324505
0.000431526
2.11081e-05
9.39558e-05
0.000191147
0.000285552
0.000375689
0.000463578
0.000538526
0.000564117
0.000488911
0.000368295
0.00033549
2.29946e-05
0.00010709
0.00021133
0.000304911
0.000388064
0.000466973
0.000542697
0.000591985
0.000551021
0.000428212
0.000328112
2.46825e-05
0.000120796
0.000231259
0.000323529
0.000399177
0.000465452
0.000532746
0.000594524
0.000590318
0.000483851
0.00035422
2.6136e-05
0.000133519
0.000249505
0.000340366
0.000408565
0.000461332
0.000515067
0.000579365
0.00060721
0.000526096
0.00038825
2.74434e-05
0.000144721
0.000266643
0.00035432
0.000415136
0.000455794
0.000495295
0.000553396
0.000604981
0.000553385
0.000417992
2.8533e-05
0.000154926
0.000280393
0.000365271
0.000418683
0.000449367
0.000477209
0.000520632
0.000574329
0.000566363
0.000438131
2.9345e-05
0.000164554
0.000292647
0.000373989
0.000419639
0.000440669
0.000458119
0.000488779
0.000528313
0.000540909
0.000455486
2.97994e-05
0.000173198
0.00030344
0.000381013
0.000418801
0.000430224
0.000437194
0.000455749
0.000482269
0.000496497
0.000459915
2.98982e-05
0.000181397
0.000313773
0.000387616
0.000417519
0.000419367
0.000415744
0.000423009
0.000439127
0.000452805
0.000442734
2.96189e-05
0.000189387
0.000324644
0.000395548
0.000418023
0.000410624
0.000396157
0.000391531
0.00039642
0.000405798
0.000403184
2.88719e-05
0.000197414
0.000337601
0.000407978
0.000424792
0.000409251
0.000384042
0.000367494
0.000363807
0.000365096
0.00036178
2.75516e-05
0.000206319
0.000354611
0.000428416
0.000442389
0.000420805
0.000389575
0.000366491
0.000354859
0.000349277
0.00034323
2.51807e-05
0.000207634
0.000356851
0.000435291
0.000454763
0.0004341
0.000399094
0.000371151
0.000357004
0.00035315
0.000353867
2.11482e-05
0.000191548
0.000338028
0.000426238
0.000457437
0.000442439
0.000404471
0.000368545
0.000346335
0.000337232
0.000338436
1.67783e-05
0.000160645
0.000297551
0.000395147
0.000439836
0.000436188
0.000401978
0.000360545
0.000326144
0.00029661
0.00025487
1.20934e-05
0.000111407
0.000241482
0.00034243
0.000398236
0.000409034
0.000386524
0.000345295
0.000301897
0.000250684
0.000189437
8.01091e-06
9.49643e-05
0.000186351
0.000276504
0.000327713
0.000347839
0.000335995
0.000303959
0.000257507
0.000198111
0.000155727
5.82126e-05
0.000302506
0.000363305
0.000394014
0.000426709
0.000457116
0.000477844
0.000482406
0.000460163
0.00040728
0.000347226
3.68073e-05
0.000248097
0.000349197
0.000395325
0.000428719
0.000456107
0.000473328
0.000476509
0.000456814
0.000406674
0.000345029
3.10741e-05
0.000197275
0.000337806
0.000420141
0.000455537
0.00047242
0.000480837
0.000478549
0.000459026
0.000413778
0.000351072
3.08021e-05
0.000171069
0.000304313
0.000403075
0.000451149
0.000474198
0.000485731
0.000486447
0.000469763
0.000426025
0.000362351
3.18493e-05
0.00015517
0.000279432
0.000377322
0.0004309
0.000464395
0.000485528
0.000492666
0.000478227
0.000433593
0.000366756
3.30077e-05
0.000142469
0.000258981
0.000352252
0.000407404
0.000447598
0.000477126
0.000491936
0.00048226
0.000439984
0.000374796
3.42426e-05
0.000132273
0.000241574
0.000328589
0.000383661
0.000427481
0.000463413
0.000485674
0.000481977
0.000443021
0.000378639
3.5574e-05
0.000124209
0.000226954
0.000308043
0.000361883
0.000407288
0.000447516
0.000475783
0.00047791
0.000443947
0.000385595
3.67737e-05
0.000117467
0.000214535
0.000290596
0.000342805
0.000388717
0.000431755
0.000464789
0.000472553
0.000443955
0.000389148
3.77371e-05
0.000111147
0.000203433
0.000275633
0.000326382
0.000372399
0.000417389
0.000454253
0.00046695
0.00044268
0.000389262
3.85919e-05
0.000105243
0.000193366
0.000262587
0.000312167
0.000358209
0.000404719
0.000444772
0.000461533
0.000440663
0.00039091
3.92945e-05
0.000100052
0.000184404
0.000251142
0.000299763
0.000345838
0.000393657
0.000436553
0.000456969
0.000439163
0.00039176
3.97186e-05
9.51372e-05
0.000176179
0.000241007
0.000288964
0.00033518
0.000384237
0.000429844
0.000453741
0.00043861
0.000392406
3.99351e-05
9.00951e-05
0.00016819
0.000231819
0.000279523
0.000326067
0.000376377
0.000424709
0.000452064
0.000439178
0.000394224
3.98155e-05
8.52495e-05
0.000160506
0.000223315
0.000271052
0.00031809
0.000369685
0.000420857
0.000451931
0.000441259
0.000396883
3.92993e-05
7.95511e-05
0.000151678
0.000214054
0.000262129
0.000309912
0.000363165
0.000417483
0.000452983
0.000445052
0.000401423
3.84291e-05
7.21159e-05
0.000139263
0.000200712
0.000247981
0.000293645
0.000344505
0.000399708
0.000441478
0.000442335
0.000405298
3.70038e-05
6.42109e-05
0.000124383
0.000183679
0.000229214
0.000270506
0.00031456
0.000364473
0.00040902
0.000423001
0.00040248
3.49915e-05
5.59457e-05
0.000107233
0.000162532
0.000205739
0.000241705
0.0002763
0.000314891
0.000354266
0.000378537
0.00038111
3.23521e-05
4.74802e-05
8.84857e-05
0.000137309
0.000177391
0.000208342
0.000233629
0.000258467
0.000284783
0.000307682
0.000326149
2.90123e-05
3.90479e-05
6.93869e-05
0.000109191
0.000144659
0.000171371
0.000189838
0.000203469
0.000215411
0.000226637
0.000241171
2.48994e-05
3.09951e-05
5.16802e-05
8.09552e-05
0.000109662
0.000132153
0.000146622
0.000154226
0.000157217
0.000157677
0.000159258
1.9901e-05
2.31716e-05
3.60487e-05
5.5164e-05
7.55449e-05
9.28632e-05
0.000104646
0.000110423
0.000111
0.000107768
0.000102861
1.4064e-05
2.16957e-05
3.01255e-05
4.05313e-05
5.14115e-05
6.1047e-05
6.82057e-05
7.22342e-05
7.29823e-05
7.07437e-05
6.63127e-05
5.49708e-05
0.000297366
0.000325823
0.000421551
0.000469706
0.000494489
0.000513594
0.00051682
0.000486914
0.000425082
0.000357843
4.10946e-05
0.000185925
0.000203476
0.000265008
0.000389179
0.000496906
0.000536238
0.000548735
0.000523055
0.000459333
0.000383972
3.85244e-05
0.000135747
0.00017275
0.000218479
0.000312128
0.00048247
0.000559882
0.000584572
0.0005649
0.000502275
0.000416868
3.86878e-05
0.000115754
0.000157484
0.000197519
0.000281031
0.000457174
0.0005808
0.000623915
0.000611892
0.000551726
0.00045925
3.8909e-05
0.000111735
0.00014962
0.000185326
0.000264654
0.000444664
0.000595625
0.000660212
0.000659188
0.000601866
0.000502455
3.86697e-05
0.000116286
0.000146763
0.000177586
0.000253095
0.000432137
0.000602746
0.000688632
0.000701067
0.000644894
0.000531532
3.849e-05
0.000124247
0.000147324
0.000172667
0.000243327
0.000415484
0.000602043
0.000708171
0.000734898
0.000680676
0.000552327
3.87915e-05
0.00013444
0.000150679
0.000170099
0.000235291
0.000397574
0.000588652
0.000718323
0.000760052
0.000708063
0.000562345
3.93985e-05
0.000145722
0.00015616
0.000169255
0.000228276
0.000378563
0.000566347
0.000708165
0.000768894
0.000726436
0.000561485
4.01372e-05
0.000157227
0.000163228
0.000169741
0.000221777
0.000358507
0.000537367
0.000682119
0.000750492
0.000713159
0.000549345
4.07029e-05
0.000167245
0.000171351
0.0001712
0.000215028
0.00033643
0.000502095
0.000643218
0.000711635
0.000674943
0.000520611
4.10773e-05
0.00017642
0.000180366
0.000173718
0.000208701
0.000314099
0.000463509
0.000595997
0.000660051
0.000622269
0.000479758
4.11511e-05
0.00018503
0.000189825
0.000177215
0.00020281
0.000291644
0.000422632
0.000542929
0.000600777
0.000562978
0.000433575
4.07501e-05
0.000191006
0.000198953
0.000181659
0.000197319
0.000269006
0.000380066
0.000485845
0.000537144
0.000501948
0.000388448
3.98216e-05
0.000194933
0.000207397
0.000187059
0.00019296
0.000247681
0.000338182
0.000427821
0.000472494
0.000442433
0.000346719
3.83373e-05
0.000196398
0.000214564
0.000193198
0.000189966
0.000228282
0.00029834
0.000370925
0.000408806
0.000385745
0.000308478
3.62382e-05
0.000194411
0.000219597
0.000199689
0.000188609
0.00021159
0.000262001
0.00031725
0.000347745
0.000331965
0.00027304
3.34736e-05
0.000189065
0.000221613
0.00020584
0.000189098
0.000198578
0.00023093
0.000269193
0.000291293
0.00028113
0.000238688
3.01022e-05
0.00018006
0.000219595
0.000210479
0.000191301
0.000190064
0.000206727
0.000229049
0.000241736
0.000234076
0.000204681
2.64016e-05
0.000169865
0.000213388
0.000212642
0.000195112
0.000187014
0.000191029
0.000199097
0.000201784
0.000193141
0.000171637
2.25187e-05
0.000150794
0.000200393
0.000209426
0.000198715
0.000188967
0.000184144
0.000180391
0.000173462
0.000161228
0.000142639
2.07185e-05
0.000132729
0.000179416
0.000195219
0.000188864
0.000179513
0.000170062
0.00015967
0.0001467
0.000128202
0.00010601
1.43373e-05
9.62898e-05
0.000118901
0.000107336
9.43907e-05
8.23703e-05
7.13076e-05
6.08199e-05
5.10357e-05
4.32442e-05
3.66971e-05
9.83024e-06
1.11769e-05
1.16723e-05
1.27676e-05
1.44186e-05
1.64416e-05
1.86337e-05
2.07363e-05
2.24754e-05
2.36127e-05
2.39796e-05
3.68373e-05
0.000136498
0.000137527
0.000150787
0.000145321
0.000124665
9.80078e-05
7.92851e-05
6.71281e-05
5.77206e-05
4.92296e-05
3.0562e-05
0.000108952
9.78782e-05
0.000131905
0.000151596
0.000133338
0.00010132
7.77177e-05
6.32673e-05
5.283e-05
4.40367e-05
2.97096e-05
8.74149e-05
8.79793e-05
0.000104831
0.000137084
0.000141548
0.000107956
7.90684e-05
6.18014e-05
5.0109e-05
4.07445e-05
3.06773e-05
7.53163e-05
8.38178e-05
9.46611e-05
0.000121219
0.000146798
0.000115983
8.24576e-05
6.22361e-05
4.93474e-05
3.98128e-05
3.16691e-05
7.0089e-05
8.10918e-05
8.87995e-05
0.000110988
0.000143868
0.000124074
8.72701e-05
6.41133e-05
5.00082e-05
4.03589e-05
3.19982e-05
6.83524e-05
7.9128e-05
8.44303e-05
0.000101909
0.000133239
0.000129713
9.31855e-05
6.71009e-05
5.16565e-05
4.16556e-05
3.18046e-05
6.88441e-05
7.81395e-05
8.13827e-05
9.40412e-05
0.000119519
0.000127883
9.99352e-05
7.10198e-05
5.40451e-05
4.34638e-05
3.12499e-05
7.12637e-05
7.85039e-05
7.97978e-05
8.81509e-05
0.00010714
0.000120288
0.000104315
7.62826e-05
5.73248e-05
4.57509e-05
3.03201e-05
7.47662e-05
8.0247e-05
7.94595e-05
8.39e-05
9.69416e-05
0.000109955
0.000104544
8.16269e-05
6.13824e-05
4.86403e-05
2.907e-05
7.88109e-05
8.33184e-05
8.02479e-05
8.09029e-05
8.85747e-05
9.87999e-05
0.000100044
8.55735e-05
6.60401e-05
5.20679e-05
2.7725e-05
8.37582e-05
8.79826e-05
8.24339e-05
7.9419e-05
8.24337e-05
8.89431e-05
9.24488e-05
8.6408e-05
7.07143e-05
5.60392e-05
2.64758e-05
9.02852e-05
9.4673e-05
8.63251e-05
7.96544e-05
7.86596e-05
8.15539e-05
8.44337e-05
8.37116e-05
7.42497e-05
6.04416e-05
2.55132e-05
9.82212e-05
0.000103618
9.22016e-05
8.16146e-05
7.6834e-05
7.63678e-05
7.73578e-05
7.84801e-05
7.52693e-05
6.47507e-05
2.49739e-05
0.000106955
0.000114921
0.000100535
8.55712e-05
7.68328e-05
7.31047e-05
7.17579e-05
7.23168e-05
7.30254e-05
6.78442e-05
2.49374e-05
0.000117795
0.000129233
0.000111974
9.20121e-05
7.891e-05
7.18706e-05
6.80811e-05
6.68867e-05
6.83991e-05
6.82992e-05
2.54097e-05
0.000130533
0.000146788
0.000127398
0.00010173
8.346e-05
7.27091e-05
6.63207e-05
6.29535e-05
6.31299e-05
6.54723e-05
2.57318e-05
0.000142916
0.000166737
0.00014771
0.000116082
9.14367e-05
7.60844e-05
6.66413e-05
6.08681e-05
5.87391e-05
6.04849e-05
2.52987e-05
0.000153717
0.000187474
0.000173073
0.000136656
0.000104414
8.31027e-05
6.97184e-05
6.11199e-05
5.63079e-05
5.55977e-05
2.40456e-05
0.000160537
0.000205835
0.000201501
0.000164667
0.000124771
9.58741e-05
7.7059e-05
6.46968e-05
5.67565e-05
5.28351e-05
2.20063e-05
0.000161529
0.000218166
0.000228195
0.000199204
0.000155318
0.000118137
9.19226e-05
7.4035e-05
6.18568e-05
5.40961e-05
1.92698e-05
0.000152165
0.000221361
0.000247928
0.000236148
0.000197898
0.000155573
0.000120732
9.47891e-05
7.60957e-05
6.29608e-05
1.67982e-05
0.000138805
0.000214799
0.000256388
0.000265461
0.000245488
0.000209373
0.000170577
0.000136389
0.000109039
8.80241e-05
1.28825e-05
0.0001082
0.000157676
0.000199832
0.000225519
0.000236891
0.000232742
0.00021469
0.000188932
0.000162053
0.000137023
1.01653e-05
3.79519e-05
5.41948e-05
7.60018e-05
0.000100215
0.000125909
0.000150417
0.00016629
0.000172532
0.000170824
0.000162769
3.10485e-05
0.000126478
0.000135918
0.000141091
0.000139686
0.000123237
0.000101409
8.52143e-05
7.43154e-05
6.58315e-05
5.80879e-05
2.06652e-05
0.000103505
0.000135711
0.000150665
0.000150136
0.000135228
0.000113352
9.59249e-05
8.43825e-05
7.59143e-05
6.85629e-05
2.05398e-05
9.00016e-05
0.000131495
0.000170095
0.000172718
0.000156706
0.000131389
0.00011001
9.63107e-05
8.70824e-05
7.9672e-05
2.26756e-05
8.24828e-05
0.00012586
0.000180766
0.000195543
0.000185847
0.00016032
0.000133821
0.000115585
0.000104009
9.58033e-05
2.54438e-05
7.65471e-05
0.000123809
0.000182949
0.000201513
0.000196142
0.000173164
0.000147842
0.000129575
0.000117922
0.000109734
2.81199e-05
7.21604e-05
0.00012247
0.000180909
0.000202209
0.000201645
0.00018148
0.000157195
0.000139191
0.000127791
0.000120131
3.05844e-05
6.89789e-05
0.000121156
0.000177416
0.000200624
0.000204124
0.000186916
0.000164555
0.000147577
0.000137166
0.000130871
3.28826e-05
6.6677e-05
0.000119823
0.000173861
0.000198681
0.000205536
0.000191065
0.000170819
0.000155237
0.000146265
0.000141823
3.48458e-05
6.49378e-05
0.000118452
0.000170733
0.000197259
0.000206666
0.00019481
0.000176513
0.000162213
0.000154576
0.000151783
3.64605e-05
6.34423e-05
0.00011716
0.000168129
0.000196598
0.000208009
0.000198583
0.000181891
0.000168591
0.000162024
0.00016062
3.77106e-05
6.19736e-05
0.000115697
0.000166098
0.000196454
0.000209846
0.000202631
0.000187121
0.000174369
0.000168357
0.000167461
3.86945e-05
6.04924e-05
0.000114065
0.000164419
0.000196638
0.000212139
0.000207022
0.000192337
0.000179661
0.000173764
0.000173245
3.9334e-05
5.88382e-05
0.000112136
0.000162842
0.000197007
0.000214868
0.00021188
0.000197754
0.000184645
0.000178353
0.000178017
3.95659e-05
5.56208e-05
0.000107972
0.000159434
0.00019598
0.00021697
0.000216981
0.00020366
0.000189635
0.000182346
0.000181446
3.93068e-05
5.18172e-05
0.000101078
0.00015231
0.000190223
0.000214009
0.000218477
0.000208456
0.000194872
0.000186476
0.000184369
3.85236e-05
4.7568e-05
9.16434e-05
0.000141269
0.00017971
0.000205462
0.000214846
0.000210384
0.000199609
0.000190964
0.000187472
3.72055e-05
4.30341e-05
8.01255e-05
0.00012619
0.000164268
0.000191094
0.000204739
0.000206772
0.00020156
0.000195035
0.000191111
3.52694e-05
3.85393e-05
6.77572e-05
0.000107957
0.000144222
0.000171192
0.000187698
0.000195226
0.000196778
0.00019549
0.000193955
3.26644e-05
3.41535e-05
5.56234e-05
8.80443e-05
0.000120407
0.000146293
0.00016411
0.000175003
0.000181715
0.000186546
0.00019062
2.93533e-05
2.97799e-05
4.44145e-05
6.82141e-05
9.44687e-05
0.000117494
0.000134995
0.000147213
0.000156198
0.000164308
0.000173067
2.52885e-05
2.52669e-05
3.4459e-05
5.0138e-05
6.89141e-05
8.70562e-05
0.000102319
0.000114104
0.00012327
0.00013145
0.000140377
2.04786e-05
2.04259e-05
2.57368e-05
3.4815e-05
4.62599e-05
5.82738e-05
6.94238e-05
7.89552e-05
8.68668e-05
9.37535e-05
0.000100603
1.49547e-05
1.47279e-05
1.73951e-05
2.17756e-05
2.73877e-05
3.36125e-05
3.98609e-05
4.57296e-05
5.10342e-05
5.58271e-05
6.04e-05
9.03929e-06
9.56445e-06
1.16578e-05
1.4292e-05
1.73645e-05
2.07066e-05
2.40709e-05
2.90159e-05
3.58572e-05
4.50336e-05
5.67784e-05
6.63053e-06
7.20447e-06
1.041e-05
1.28916e-05
1.41166e-05
1.48965e-05
1.55742e-05
1.60721e-05
1.60744e-05
2.76492e-05
2.30123e-05
2.49175e-05
3.67429e-05
5.76588e-05
8.49213e-05
0.000105106
0.000127713
0.000146728
4.02346e-05
3.36553e-05
4.36203e-05
7.07914e-05
0.000110886
0.000156053
0.000193304
0.000237873
0.000273692
5.36152e-05
4.46124e-05
5.95379e-05
9.78403e-05
0.000155687
0.000222593
0.000275838
0.000334281
0.000378618
6.16336e-06
6.46427e-06
1.07365e-05
1.33661e-05
1.4685e-05
1.53811e-05
1.58723e-05
1.61882e-05
1.63146e-05
2.50709e-05
2.01233e-05
2.15526e-05
2.99914e-05
4.61783e-05
7.19972e-05
9.84609e-05
0.000121353
0.000139556
3.60865e-05
2.988e-05
3.70271e-05
5.7145e-05
9.31184e-05
0.000145817
0.000193344
0.000238431
0.000269948
5.02116e-05
4.09007e-05
5.15441e-05
8.02895e-05
0.000134399
0.000212837
0.000281046
0.00034129
0.000379838
0.000195763
0.000229697
0.000229749
0.000311132
0.000380997
0.000229371
0.000100861
0.000229441
0.000229384
0.00023339
0.000382381
0.000229481
0.000169594
0.000220567
0.000123887
0.000228689
0.000220062
0.000303856
0.000228678
0.000228606
0.000229592
2.97152e-05
0.000229965
0.000105001
0.000229356
0.000221168
0.000173523
0.000100288
0.000365326
0.000405123
0.000220404
0.000235411
0.000183695
0.000229428
0.000240434
0.000229655
0.000104135
0.000229345
0.000161417
0.000229398
1.84259e-05
0.000229463
0.000104305
0.000229938
0.000453705
5.85414e-05
7.03512e-05
0.000115809
0.000239473
0.000229102
0.000375626
0.000229396
0.000142245
0.000105926
0.000229068
0.000229391
2.90807e-05
0.000229414
0.000355276
0.000139601
2.31102e-05
0.000129234
0.000452871
0.000436902
2.59572e-05
0.000228577
0.000255732
0.000230179
0.000229696
0.000232839
0.000185949
0.000232661
0.000114553
0.000240815
0.000333782
0.000231298
2.30329e-05
0.000229676
0.000173221
0.000480138
0.00015302
0.000394397
0.00022929
0.000229785
0.000246997
0.000115748
0.000364615
0.000104998
6.1073e-05
0.000113199
0.000229488
0.000229419
2.00414e-05
0.000231812
0.000474585
0.000155772
0.000281105
0.000236941
5.04071e-05
0.000235289
0.000251494
0.000116333
0.000229764
0.000235675
7.64261e-05
0.000229487
0.000195323
0.000229865
0.000182863
0.000235801
0.000229384
0.000229511
0.000230346
0.000234806
0.000129608
0.00022903
0.000229355
0.000228806
0.000229317
0.000229032
0.000182835
0.000239583
0.000250154
0.00021723
5.25069e-05
0.000212968
0.000203288
0.000186953
0.000217711
0.000207151
0.000229365
0.000143602
0.000113858
0.000231667
0.000229751
0.000231812
2.23135e-05
0.000293152
0.000414605
0.000244249
9.86699e-05
0.000231297
0.000262457
0.000167544
0.000229314
4.80994e-05
0.000116061
0.000229929
0.000235016
0.00022906
0.000228948
0.00022927
4.36811e-05
0.000237551
0.000305416
7.18311e-05
0.000120852
2.87149e-05
0.000169772
0.000228761
0.000214439
4.18414e-05
0.000232184
0.000229115
0.000285297
0.00017032
0.000100813
0.000246492
0.000238913
2.50352e-05
0.000210017
0.000164634
0.00023777
0.000229424
0.000234711
0.000219695
0.00016201
4.07049e-05
0.000447288
0.000199004
0.000229625
2.6366e-05
0.000229943
0.000128997
0.000229292
0.00042358
0.000229286
0.000228757
0.000229646
0.000192047
0.000190389
0.000220749
0.000228524
1.74417e-05
0.000229729
0.000228935
0.000229328
4.75017e-05
0.000204298
0.00023
4.35615e-05
0.000229181
0.00020419
0.000218155
0.000229807
0.000103584
0.000231285
0.000217898
0.000229205
0.000228689
0.000111605
0.000228994
0.000174788
0.000238399
0.000229327
0.000184533
0.000229376
6.84275e-05
0.000229129
0.000128742
0.000139464
0.000182077
0.000290132
0.000129062
0.000214646
0.000229424
0.000101348
0.000173476
0.000194166
0.000446953
3.07369e-05
0.0002285
0.000229034
0.000240815
4.29754e-05
0.000257223
0.000166332
0.000229887
0.000229514
0.000229477
6.93248e-05
0.000477716
0.000235746
1.55488e-05
0.000233588
3.79107e-05
0.000229371
0.000210461
0.000209211
0.000220592
0.000211621
0.000111824
0.000244683
0.000228633
0.000233402
0.000229352
0.000229412
0.000229284
7.22044e-05
0.000229458
0.000129445
0.000195527
0.00022817
0.000229574
0.000229379
7.28934e-05
0.000231751
0.000234528
0.000159249
0.000177353
0.000177269
0.000228928
0.000229191
7.04328e-05
0.000229003
0.000228841
0.000217247
0.000229151
0.000238151
6.42506e-05
0.000233945
0.000229684
0.000150658
0.000150917
0.000233017
0.000228969
0.000285832
0.000229628
0.000237778
8.96086e-05
0.000229755
0.000110602
0.000250499
0.000120168
0.000230005
0.000229255
0.000238705
0.00022954
0.000240017
0.000215298
0.000229304
0.000107033
0.000242188
0.000414071
0.000229345
0.00023586
0.00022967
0.000123564
2.56981e-05
0.000229052
6.14461e-05
0.000229533
0.000233742
0.00018996
2.76017e-05
0.000231376
0.000208833
0.000108866
0.000228664
0.000234454
0.000229171
0.000142761
0.000228905
0.000186572
0.00027377
0.00023683
0.000229219
0.000222851
0.000228202
0.000297064
0.000232766
0.000455838
2.05089e-05
0.000229927
0.000148408
0.000267723
0.000122694
0.000229625
0.000229219
0.000238162
5.06596e-05
0.000112019
0.00022918
0.00015883
0.000172621
0.000123009
0.000140841
0.000229011
0.000104501
0.000224605
6.30761e-05
0.000236138
0.000177475
0.000229354
0.000109983
0.000230036
0.000134915
0.000206344
0.000229938
0.000297535
0.000134832
0.000219618
0.000229404
0.000229342
0.000229419
8.07532e-05
0.000173625
7.535e-05
7.07236e-05
0.000251733
0.000229144
0.000101452
0.000250721
0.00021489
0.000117608
0.000229725
0.000151391
0.00024034
0.000228923
0.000228974
0.00012217
0.000228875
4.88948e-05
0.0002294
0.000221448
0.000235414
0.000116269
0.000212908
0.000468097
5.42341e-05
0.000229271
4.79014e-05
0.00020161
0.000248805
0.000224554
2.60704e-05
0.000229306
0.000228833
0.000229797
0.00010796
7.25123e-05
0.000228977
0.000229981
8.81483e-05
0.000183727
2.3957e-05
0.000110785
0.000143083
0.000229174
0.000144389
0.000240211
0.000228644
0.000211773
0.000213311
5.26813e-05
0.000233571
0.00019173
0.000247499
0.000195094
5.09359e-05
0.000261744
0.000157075
9.50931e-05
0.000183357
0.000226669
0.000235056
0.000239164
7.60196e-05
0.000190008
3.47905e-05
0.000229276
4.92386e-05
0.000213011
0.000228503
0.000229959
9.92881e-05
0.000167851
0.000379044
0.00021748
0.000230036
0.000235321
0.00035534
0.000297265
0.000112773
0.000233362
7.35236e-05
0.000130461
2.61874e-05
0.000228711
3.03758e-05
0.000229272
0.000229733
0.000229333
5.01155e-05
9.67792e-05
6.87685e-05
0.000210137
3.92053e-05
8.38239e-05
0.000229639
0.000228706
0.00020795
0.000193497
0.00023342
0.000238378
4.09378e-05
4.52171e-05
2.96836e-05
2.93526e-05
0.000232489
0.000211048
7.59273e-05
0.000229359
2.32128e-05
0.00023585
0.000229609
0.000228948
8.05633e-05
2.78506e-05
0.000229131
0.000229179
0.000229659
0.00049425
2.53623e-05
0.00022988
5.29421e-05
0.00037261
0.000156271
8.46437e-05
0.000228691
4.53783e-05
0.000228932
0.000235257
0.000229402
0.000210987
0.000150928
0.000228548
0.000192632
0.000168354
0.000234049
0.000227353
0.000222728
0.000229415
0.000229443
0.000251219
8.54545e-05
0.000107459
0.000233074
0.000100256
0.000229758
0.000157607
0.000108088
4.69226e-05
0.000179372
0.000251138
0.000188097
9.41203e-05
0.00019319
0.000229185
0.000180949
0.000228747
0.000229675
0.000229089
0.000229568
0.000234329
0.000119619
0.000229362
0.000228742
0.000111742
0.000229319
3.98366e-05
0.000242578
0.000126285
0.000173262
6.54334e-05
0.000229995
0.000229271
0.000229868
1.65636e-05
2.78581e-05
0.000229327
0.000229342
0.000217698
0.000229764
0.000259494
0.000229711
0.000261347
0.000236869
3.06729e-05
0.00014314
0.000137406
6.67331e-05
0.000162342
0.000229406
0.000231855
0.000234671
0.000229708
0.000100882
2.60215e-05
0.000223774
0.000217939
0.000118584
0.000114944
0.000229356
0.000229376
0.000229671
0.000134056
0.00018049
8.69341e-05
0.000229447
0.000229266
0.000149536
0.000230346
0.000139275
0.000216426
0.000132582
0.000279208
0.000229304
9.17467e-05
0.000229225
9.16159e-05
0.000229312
0.000328154
0.00015701
0.000234418
2.88336e-05
0.000152911
0.000229871
0.000229989
0.000467209
0.000228989
0.000179382
0.000434359
0.000100515
0.000151568
5.06725e-05
0.00019781
0.000230909
0.000229372
0.000229265
0.000160177
7.61866e-05
0.000117529
0.000228569
0.00022938
0.000102667
0.000229586
0.000233412
0.000237258
0.00023304
0.000153156
7.54531e-05
9.96545e-05
0.000159638
0.000233211
0.000237193
0.000228629
0.000107105
0.000231106
0.000229291
0.000210253
0.000111791
0.000228955
0.000228893
2.20162e-05
0.000229811
0.000228678
0.00014744
0.000229717
0.000234975
0.00014555
0.000127695
0.000157075
0.0002245
0.000167292
7.21341e-05
0.000126224
7.55256e-05
0.000118591
0.00017253
8.12987e-05
0.000118008
0.000130972
0.00022976
0.000230391
0.000257882
0.000229734
0.000229467
0.000244185
0.000212531
9.87192e-05
0.00019919
0.000185975
0.00024292
0.000229186
0.000204066
0.000229526
0.000228826
0.000236455
0.000125061
0.00023149
0.000233996
0.000231268
0.00022965
0.000468729
6.29565e-05
0.000428019
0.000231397
0.000230215
0.00018944
7.90519e-05
0.000233488
0.000174156
0.000231026
0.000361171
0.000148207
0.00022926
0.00010131
0.000229914
0.000184896
0.000489874
0.000149796
0.000174436
0.000212671
0.000245846
0.00022982
0.000104397
0.000193538
4.67637e-05
0.00020442
0.000228973
0.000233442
0.000229806
0.000158954
0.000229914
6.27819e-05
0.000229493
0.000229436
0.000228975
0.000172637
8.03873e-05
0.000229555
0.000135719
0.000229196
0.000175031
0.000169443
0.000231028
0.000455634
1.53994e-05
0.000124677
0.000236388
0.000217147
0.000187831
0.000121242
0.000197486
9.74733e-05
0.000229227
0.000191668
0.000229364
0.000232644
5.64902e-05
0.000186386
4.28333e-05
0.000220888
0.000230157
0.000235165
0.000229047
7.8518e-05
0.000229626
0.000220021
7.9373e-05
0.000265589
0.000234219
0.000137761
0.00011123
0.000157444
0.000240633
0.000173369
2.87838e-05
9.70545e-05
0.000229421
0.000219066
0.000118458
0.000229506
4.26094e-05
0.000125342
0.000239769
0.000357342
0.000229302
0.000234243
0.000234937
0.000137221
0.000234731
0.000211165
0.000229576
0.000183448
0.000233686
0.000126642
8.40679e-05
0.00011057
0.000181196
0.000228757
0.000158577
6.61437e-05
0.000229224
0.000222333
0.000186699
7.347e-05
0.000244274
2.84939e-05
0.000248028
0.000129206
0.000142071
0.000252629
0.000228819
0.00024706
0.000229161
0.000165787
2.223e-05
0.000230045
0.00022931
0.000251668
0.000361656
0.000129988
0.000197477
0.000229568
0.000188997
0.000253092
0.000229509
0.000229615
0.000229807
0.000229362
0.000233459
0.00016742