/*--------------------------------*- C++ -*----------------------------------*\
| =========                 |                                                 |
| \\      /  F ield         | OpenFOAM: The Open Source CFD Toolbox           |
|  \\    /   O peration     | Version:  3.0.1                                 |
|   \\  /    A nd           | Web:      www.OpenFOAM.org                      |
|    \\/     M anipulation  |                                                 |
\*---------------------------------------------------------------------------*/
FoamFile
{
    version     2.0;
    format      ascii;
    class       surfaceVectorField;
    location    "0.299978";
    object      Uf;
}
// * * * * * * * * * * * * * * * * * * * * * * * * * * * * * * * * * * * * * //

dimensions      [0 1 -1 0 0 0 0];

internalField   nonuniform List<vector> 
32369
(
(3.97101 -1.51778 1.10096e-18)
(4.4091 -1.13291 -8.81355e-19)
(5.61728 -2.18823 -1.2967e-18)
(4.23404 -1.4512 1.96007e-19)
(3.5402 -0.960323 1.7094e-19)
(4.88056 -1.49471 3.0535e-19)
(4.26203 -1.36175 6.24229e-19)
(3.71936 -1.24233 -6.53445e-19)
(4.75018 -1.24711 5.47427e-19)
(4.19761 -1.18422 -2.92047e-19)
(3.8209 -1.26702 4.95893e-19)
(4.58235 -1.0619 -2.93051e-19)
(4.08233 -0.936317 1.10086e-19)
(3.81806 -1.12782 -2.00525e-19)
(4.35915 -0.839848 5.67529e-20)
(3.93389 -0.678212 8.1187e-22)
(3.76878 -0.899437 1.15116e-19)
(4.1288 -0.596398 2.4339e-20)
(3.77627 -0.476924 2.45218e-20)
(3.70036 -0.668971 1.4422e-19)
(3.92182 -0.402969 1.37823e-20)
(3.6318 -0.34206 -2.92603e-20)
(3.61029 -0.481584 1.00426e-19)
(3.73912 -0.272259 -1.66722e-20)
(3.50051 -0.259038 -1.14402e-20)
(3.51052 -0.359068 -3.7289e-20)
(3.57687 -0.191699 6.56463e-21)
(3.38231 -0.218018 -1.45802e-20)
(3.4114 -0.286618 -1.53886e-21)
(3.43339 -0.151068 -1.63284e-20)
(3.32621 -0.258689 -3.23448e-20)
(3.31716 -0.145878 -4.12064e-22)
(3.27615 -0.215215 1.3759e-20)
(3.46593 -0.372572 -9.90687e-20)
(4.04026 -0.00139185 -1.62142e-18)
(3.36291 -0.839803 -1.07877e-18)
(3.22873 -0.227323 3.08532e-18)
(3.42342 -1.07007 -5.41607e-19)
(3.20084 -0.735588 -3.7618e-18)
(3.51833 -1.13883 5.14737e-19)
(3.25203 -0.971243 1.6291e-18)
(3.58401 -1.07029 -3.13524e-19)
(3.30956 -1.03588 -2.88061e-19)
(3.60085 -0.895803 1.51353e-19)
(3.37159 -0.962421 1.11978e-19)
(3.57808 -0.687807 2.38917e-19)
(3.42298 -0.794736 -2.8652e-19)
(3.51834 -0.508567 1.8586e-19)
(3.43143 -0.62026 4.08101e-19)
(3.44285 -0.3919 -2.90151e-20)
(3.40806 -0.47643 -6.79954e-20)
(3.36479 -0.326548 -1.13348e-20)
(3.3617 -0.382641 -2.00579e-19)
(3.31214 -0.338165 1.21174e-19)
(3.28813 -0.308589 1.76046e-19)
(3.60208 0.255806 1.24542e-18)
(4.02328 0.551967 1.42567e-18)
(3.14818 -0.223282 9.88891e-19)
(3.31089 0.235023 1.76873e-18)
(3.02474 -0.572196 -1.75981e-18)
(3.05833 -0.214631 -1.99017e-18)
(3.04938 -0.803285 1.01043e-18)
(2.96576 -0.515556 8.91257e-19)
(3.13056 -0.905321 -5.18439e-20)
(2.96731 -0.718529 0)
(3.22906 -0.8732 -4.11044e-19)
(3.03888 -0.794991 -5.72161e-20)
(3.30745 -0.744399 -2.77104e-19)
(3.14307 -0.749637 -3.16132e-19)
(3.34864 -0.593577 3.46865e-19)
(3.23027 -0.636628 5.64286e-19)
(3.34733 -0.471597 -2.03269e-19)
(3.27931 -0.519529 -7.2374e-20)
(3.31871 -0.394862 -1.20788e-19)
(3.28874 -0.430422 -2.04961e-19)
(3.27945 -0.38368 2.34474e-19)
(3.27265 -0.368777 -1.75224e-19)
(3.7521 0.535485 2.19553e-18)
(4.04277 0.725602 3.74384e-18)
(3.21274 0.187343 -7.80731e-19)
(3.43536 0.480628 -1.57175e-18)
(2.95002 -0.129413 5.09831e-19)
(3.09081 0.153262 6.43845e-20)
(2.85157 -0.397521 0)
(2.89696 -0.118873 9.70738e-19)
(2.86416 -0.588249 0)
(2.82081 -0.359743 -8.55055e-19)
(2.95608 -0.671386 8.11722e-20)
(2.84893 -0.518815 0)
(3.07651 -0.651565 3.93544e-19)
(2.94897 -0.574658 9.04047e-20)
(3.1772 -0.572813 4.29183e-19)
(3.06685 -0.548329 1.8097e-19)
(3.23637 -0.485093 -4.97751e-21)
(3.16015 -0.487027 -1.20451e-19)
(3.25723 -0.418962 6.31055e-20)
(3.21293 -0.426216 -2.22662e-19)
(3.23835 -0.391027 -1.13486e-20)
(3.24941 -0.389379 -1.10643e-19)
(3.78852 0.636674 6.38273e-19)
(3.99609 0.702873 9.41545e-19)
(3.32187 0.425289 -8.72503e-19)
(3.52411 0.591939 -5.50187e-19)
(3.01339 0.183571 5.37428e-19)
(3.18861 0.375696 -5.18402e-20)
(2.83865 -0.0570428 2.20225e-19)
(2.95385 0.165278 9.00956e-19)
(2.78029 -0.267212 -9.38284e-19)
(2.82417 -0.0573486 -2.76325e-19)
(2.82624 -0.411759 0)
(2.80246 -0.240062 -3.71423e-19)
(2.93486 -0.474608 -1.27639e-19)
(2.86898 -0.354983 0)
(3.05261 -0.471446 -2.9786e-19)
(2.97723 -0.400311 -5.06805e-22)
(3.14366 -0.436551 -3.69043e-19)
(3.0814 -0.399661 -1.54537e-19)
(3.19856 -0.39977 -3.51184e-19)
(3.15602 -0.37951 1.85508e-19)
(3.20375 -0.366744 -4.24697e-19)
(3.22232 -0.379756 -9.70818e-20)
(3.77698 0.646743 -1.83432e-20)
(3.92776 0.631163 -9.55763e-19)
(3.41616 0.534725 2.11339e-19)
(3.57733 0.623575 2.8833e-19)
(3.12987 0.374777 2.4869e-19)
(3.29607 0.482542 -4.05873e-21)
(2.92814 0.183978 4.33991e-19)
(3.06888 0.340891 -5.15089e-19)
(2.82507 -0.00753391 1.69916e-19)
(2.91699 0.156912 3.38328e-19)
(2.82372 -0.169358 -4.08952e-19)
(2.85972 -0.015402 -2.39375e-20)
(2.89634 -0.27849 1.24921e-19)
(2.88743 -0.153122 0)
(2.99853 -0.33303 1.55991e-19)
(2.96626 -0.242365 2.85711e-19)
(3.09262 -0.349349 3.82929e-19)
(3.05686 -0.289603 1.24953e-20)
(3.16123 -0.348682 2.39938e-19)
(3.13224 -0.308917 3.15936e-19)
(3.18705 -0.322221 -4.62204e-19)
(3.20222 -0.348595 4.17962e-20)
(3.76385 0.616128 -7.76649e-19)
(3.88164 0.569745 -1.11553e-18)
(3.48525 0.563091 1.14625e-19)
(3.60545 0.608946 2.87766e-19)
(3.24833 0.467429 -6.81532e-19)
(3.38748 0.510298 -2.25547e-19)
(3.06109 0.329399 -7.07217e-19)
(3.19808 0.429008 -4.82887e-19)
(2.94116 0.170803 1.19987e-19)
(3.0506 0.285217 -1.67998e-19)
(2.90668 0.0173693 3.7876e-19)
(2.9761 0.137358 2.06794e-19)
(2.94095 -0.108971 1.29437e-19)
(2.97239 0.000212291 2.20787e-19)
(3.01254 -0.197517 1.72449e-19)
(3.01765 -0.108604 -1.2219e-20)
(3.0901 -0.251874 -9.83365e-20)
(3.08276 -0.185619 -1.87761e-19)
(3.15433 -0.283422 -2.58578e-19)
(3.14435 -0.235112 2.50308e-19)
(3.19281 -0.271481 -8.65463e-20)
(3.19883 -0.304362 5.57947e-19)
(3.7485 0.578137 -1.85262e-19)
(3.8445 0.499499 -9.35557e-20)
(3.53522 0.551802 0)
(3.62832 0.574335 1.13394e-19)
(3.35395 0.491464 0)
(3.46785 0.497464 8.62903e-20)
(3.19927 0.395718 1.15176e-20)
(3.31969 0.452814 1.29676e-19)
(3.08491 0.271408 -9.71692e-20)
(3.19287 0.342305 -8.69233e-20)
(3.03338 0.137371 6.24802e-20)
(3.1164 0.221745 -2.7011e-19)
(3.0372 0.0124161 1.17456e-19)
(3.09219 0.096959 5.161e-19)
(3.07667 -0.0901965 -3.23618e-19)
(3.10821 -0.0148274 -2.7138e-19)
(3.12927 -0.166921 1.08122e-19)
(3.14552 -0.105653 -2.68486e-19)
(3.17831 -0.22182 4.65164e-19)
(3.18672 -0.173493 4.72085e-19)
(3.22137 -0.225109 6.82184e-20)
(3.21482 -0.262964 4.4159e-19)
(3.7448 0.528232 1.85342e-19)
(3.8276 0.429596 4.02416e-20)
(3.58195 0.511306 2.02894e-19)
(3.6578 0.534501 -9.79882e-20)
(3.44691 0.471609 2.1187e-19)
(3.53784 0.459793 1.67449e-19)
(3.32633 0.405542 5.79172e-20)
(3.42561 0.432521 1.30001e-19)
(3.2292 0.30938 -2.31727e-19)
(3.32707 0.347828 -9.9961e-20)
(3.17345 0.196832 1.1763e-19)
(3.25784 0.251021 -1.3567e-19)
(3.15696 0.0825165 2.12467e-19)
(3.22267 0.14217 1.91638e-19)
(3.16936 -0.0210115 -2.14378e-19)
(3.21673 0.0364638 -2.51883e-19)
(3.19632 -0.107003 1.36655e-20)
(3.22915 -0.0571264 1.09893e-19)
(3.22512 -0.174443 1.31621e-19)
(3.24827 -0.133495 -4.36223e-21)
(3.26489 -0.194223 0)
(3.24477 -0.227033 -2.63181e-19)
(3.75866 0.479138 -2.36973e-19)
(3.83622 0.36318 -1.13827e-19)
(3.63107 0.464235 -1.80376e-19)
(3.69858 0.490306 -2.10748e-19)
(3.52948 0.432709 8.77891e-20)
(3.60493 0.40827 3.89362e-21)
(3.43928 0.38057 0)
(3.52263 0.388001 -5.62236e-20)
(3.36278 0.303375 0)
(3.4487 0.320318 0)
(3.30947 0.209294 -8.81494e-20)
(3.38906 0.240247 0)
(3.28096 0.108213 -2.18845e-19)
(3.34923 0.146244 -2.71816e-19)
(3.27296 0.0105015 2.81461e-20)
(3.32819 0.0501134 -5.94771e-20)
(3.27736 -0.0763556 9.92795e-20)
(3.32051 -0.0399823 2.69906e-19)
(3.28552 -0.148865 -1.29935e-19)
(3.31933 -0.117924 -1.71078e-19)
(3.31763 -0.181358 -1.03881e-19)
(3.29044 -0.20709 0)
(3.79074 0.425948 -7.64379e-20)
(3.86393 0.295804 -6.89994e-20)
(3.68652 0.409227 -6.34094e-20)
(3.75042 0.43755 6.48727e-21)
(3.60835 0.378378 -1.36992e-19)
(3.67337 0.347584 -8.75524e-20)
(3.54157 0.332442 -6.21355e-20)
(3.61186 0.328853 -1.87549e-21)
(3.48187 0.267638 0)
(3.55574 0.270826 9.74276e-21)
(3.43324 0.187662 -1.54589e-19)
(3.5054 0.201539 0)
(3.39826 0.098886 -1.34364e-19)
(3.46461 0.119636 -1.73252e-19)
(3.37569 0.00946427 1.45565e-19)
(3.43362 0.0333626 6.36403e-20)
(3.36172 -0.0735902 4.53671e-20)
(3.4104 -0.0504163 4.71931e-20)
(3.35141 -0.145878 -1.52525e-19)
(3.39188 -0.125573 -8.77173e-21)
(3.37403 -0.187683 -8.04849e-20)
(3.33884 -0.206412 -5.46006e-19)
(3.83309 0.363991 8.65346e-21)
(3.89592 0.225256 1.60023e-22)
(3.74586 0.345706 -8.03394e-21)
(3.80488 0.376724 -6.7287e-20)
(3.68362 0.313931 3.97411e-20)
(3.73983 0.279988 1.78773e-20)
(3.63284 0.270502 6.96252e-20)
(3.69271 0.260414 8.05588e-20)
(3.58546 0.21271 1.07859e-20)
(3.64917 0.207275 2.59277e-22)
(3.54178 0.142207 0)
(3.60655 0.144414 6.59234e-21)
(3.50349 0.0633662 0)
(3.56614 0.0712878 -5.04022e-21)
(3.47061 -0.0176651 -3.32761e-20)
(3.5284 -0.0065736 -2.94194e-20)
(3.44201 -0.0947645 -3.00523e-21)
(3.49311 -0.0835368 -3.93519e-20)
(3.41563 -0.162993 6.59969e-20)
(3.45957 -0.153819 4.1958e-20)
(3.42621 -0.213255 -2.18882e-20)
(3.38614 -0.219678 1.03916e-19)
(3.87955 0.299086 -6.92841e-20)
(3.93463 0.154005 -7.76455e-21)
(3.80556 0.277744 -5.95293e-20)
(3.86217 0.312731 -4.60782e-20)
(3.75457 0.243665 5.24049e-20)
(3.80472 0.209466 -2.18034e-20)
(3.71433 0.200213 1.92444e-20)
(3.76695 0.187027 -4.7311e-20)
(3.67547 0.145717 -4.72988e-21)
(3.73158 0.135699 9.81516e-20)
(3.63573 0.0810873 2.78611e-21)
(3.69424 0.0759012 6.62296e-21)
(3.59538 0.0093867 -3.19303e-20)
(3.65418 0.0081827 -5.06421e-21)
(3.55475 -0.0646159 -3.44496e-20)
(3.61129 -0.0635448 2.04969e-20)
(3.5142 -0.135711 -4.12371e-21)
(3.56623 -0.13467 -2.01599e-20)
(3.47388 -0.199121 -4.03918e-20)
(3.51984 -0.199409 2.17793e-20)
(3.47348 -0.254725 -6.79874e-20)
(3.43044 -0.252678 2.48558e-19)
(3.933 0.233745 2.00824e-20)
(3.98594 0.0797378 0)
(3.86724 0.208034 -1.92183e-20)
(3.9247 0.245625 2.23076e-20)
(3.82307 0.170879 -1.19341e-19)
(3.86919 0.136596 -1.73189e-19)
(3.789 0.125724 1.56564e-20)
(3.8368 0.110651 -6.86311e-20)
(3.75526 0.0718367 1.19301e-19)
(3.80598 0.0592276 3.8502e-20)
(3.71772 0.00991413 0)
(3.77151 -4.6198e-05 4.75672e-20)
(3.67522 -0.0575705 4.49527e-20)
(3.73089 -0.0654223 -1.02575e-19)
(3.62782 -0.126538 3.97321e-20)
(3.68304 -0.133617 5.54556e-20)
(3.57684 -0.192046 8.26662e-22)
(3.62873 -0.200323 -1.45798e-20)
(3.52406 -0.250071 2.80564e-21)
(3.57082 -0.259526 4.62855e-20)
(3.51086 -0.310093 3.23736e-20)
(3.46725 -0.296595 -1.68643e-20)
(3.98981 0.162814 0)
(4.03598 0.00302094 -1.10022e-19)
(3.92885 0.13519 -1.11519e-19)
(3.98588 0.175755 8.71022e-20)
(3.88842 0.09535 -1.18605e-19)
(3.93181 0.0611918 6.37643e-20)
(3.85776 0.0480149 -5.82863e-20)
(3.90267 0.0319066 1.88218e-19)
(3.8267 -0.00695056 -3.53975e-20)
(3.87434 -0.0209666 -1.40144e-19)
(3.78979 -0.0686921 -3.93906e-20)
(3.841 -0.0818198 4.77458e-20)
(3.74447 -0.134754 -1.09613e-19)
(3.79866 -0.147708 -1.03058e-19)
(3.69022 -0.201074 8.05347e-21)
(3.74518 -0.215072 5.01965e-21)
(3.62894 -0.262676 2.24522e-20)
(3.68125 -0.278954 3.75121e-21)
(3.56377 -0.314467 7.58385e-20)
(3.61079 -0.332562 -4.92307e-20)
(3.53722 -0.376487 -2.79063e-20)
(3.49268 -0.352942 4.95658e-19)
(4.04635 0.0901782 6.76155e-23)
(4.08635 -0.075091 -6.37611e-22)
(3.98901 0.0604538 2.65049e-19)
(4.04684 0.104653 8.6979e-20)
(3.95133 0.0178858 3.72627e-19)
(3.99339 -0.0153733 6.29921e-20)
(3.92251 -0.0322488 1.40844e-19)
(3.96612 -0.0486981 1.84115e-19)
(3.89261 -0.0898402 -7.66681e-20)
(3.93915 -0.104414 -6.94913e-20)
(3.85496 -0.153838 0)
(3.90574 -0.169183 0)
(3.80555 -0.221296 0)
(3.86027 -0.238742 1.17665e-19)
(3.74315 -0.287185 0)
(3.79921 -0.308093 7.69112e-20)
(3.67023 -0.345399 -6.42879e-20)
(3.72338 -0.370499 -5.75033e-20)
(3.59177 -0.390612 -1.61409e-19)
(3.63882 -0.417891 5.53337e-20)
(3.55122 -0.452172 9.95937e-20)
(3.50902 -0.419626 -1.89894e-19)
(4.10534 0.0170567 1.27673e-19)
(4.14163 -0.157088 -1.09267e-19)
(4.04991 -0.0155023 -1.13588e-19)
(4.11033 0.0314965 1.05724e-20)
(4.01409 -0.0610469 -1.39271e-19)
(4.05539 -0.0932317 6.71366e-22)
(3.98612 -0.114912 0)
(4.0295 -0.131229 0)
(3.95646 -0.177091 0)
(4.00364 -0.191537 1.21647e-19)
(3.91673 -0.246371 1.05425e-19)
(3.9694 -0.26355 -1.65175e-19)
(3.86099 -0.318519 1.99515e-19)
(3.91861 -0.34096 8.53001e-22)
(3.78737 -0.386147 3.7424e-20)
(3.84621 -0.41537 7.73887e-20)
(3.69978 -0.440922 5.02355e-20)
(3.75404 -0.476692 2.98259e-20)
(3.60612 -0.476753 2.97161e-19)
(3.6518 -0.515543 -1.10118e-20)
(3.54735 -0.53737 1.57909e-19)
(3.51352 -0.491875 1.18184e-19)
(4.16594 -0.0592707 -1.39761e-19)
(4.19677 -0.241274 8.92848e-21)
(4.1114 -0.0931919 7.11061e-20)
(4.17418 -0.0428006 -3.33864e-19)
(4.07721 -0.141545 1.39417e-19)
(4.11847 -0.171964 1.25852e-19)
(4.05062 -0.2001 1.08938e-19)
(4.09541 -0.215074 0)
(4.02133 -0.269791 -1.33964e-20)
(4.07218 -0.283309 -1.19418e-19)
(3.97803 -0.348928 -2.90052e-19)
(4.03655 -0.368513 1.51631e-19)
(3.91212 -0.430111 -1.32875e-19)
(3.97629 -0.459883 -4.31376e-19)
(3.82191 -0.50128 7.8477e-20)
(3.88555 -0.542234 7.30484e-20)
(3.71478 -0.55106 -1.68383e-20)
(3.77014 -0.600648 6.51861e-20)
(3.60315 -0.574187 -1.5206e-19)
(3.64643 -0.626012 -1.85946e-19)
(3.5263 -0.629379 -6.99145e-20)
(3.4956 -0.572801 1.58138e-19)
(4.22767 -0.137429 -1.58571e-19)
(4.25241 -0.327534 -2.6835e-19)
(4.17383 -0.171555 -3.77435e-19)
(4.23865 -0.11615 -1.4192e-19)
(4.14355 -0.222329 0)
(4.18537 -0.247953 1.38462e-19)
(4.12122 -0.287745 -2.18499e-19)
(4.17038 -0.298041 0)
(4.09347 -0.370921 1.9012e-20)
(4.15348 -0.382563 -2.46001e-19)
(4.04333 -0.467742 7.07386e-20)
(4.114 -0.492529 1.81188e-19)
(3.95949 -0.563385 -2.81765e-19)
(4.03482 -0.606183 -1.90089e-20)
(3.84366 -0.638002 7.01651e-20)
(3.91328 -0.696976 7.33804e-20)
(3.71077 -0.677642 -3.46409e-20)
(3.76507 -0.745714 5.16074e-20)
(3.57989 -0.681134 -1.16663e-19)
(3.61676 -0.748255 -1.03653e-19)
(3.48321 -0.723215 -6.09816e-20)
(3.46493 -0.656994 8.83384e-20)
(4.29024 -0.215237 -2.5713e-19)
(4.30893 -0.411969 -2.08241e-19)
(4.24057 -0.247719 2.06869e-19)
(4.30902 -0.179599 -9.83254e-20)
(4.22169 -0.300303 1.51969e-19)
(4.26661 -0.30936 2.71082e-19)
(4.21061 -0.37893 9.22057e-21)
(4.27132 -0.377232 -4.33738e-19)
(4.18425 -0.48894 -1.15062e-19)
(4.26342 -0.501145 6.12981e-19)
(4.11741 -0.616195 1.17519e-19)
(4.20815 -0.656206 -3.01109e-19)
(4.00012 -0.730712 3.26016e-19)
(4.08948 -0.798757 2.51209e-19)
(3.8449 -0.803055 5.72389e-20)
(3.9179 -0.89014 8.52494e-20)
(3.67972 -0.821172 6.98672e-20)
(3.72689 -0.913498 2.57347e-21)
(3.53049 -0.793752 -5.24426e-20)
(3.55412 -0.878382 -4.72714e-20)
(3.41414 -0.815745 0)
(3.41225 -0.741413 0)
(4.369 -0.293728 4.57506e-20)
(4.38616 -0.474239 2.65151e-19)
(4.32003 -0.303952 -1.89951e-19)
(4.3809 -0.1917 4.31213e-19)
(4.32425 -0.353602 -2.32413e-19)
(4.36569 -0.342287 -1.80012e-19)
(4.3304 -0.468023 1.3068e-19)
(4.40403 -0.491088 -2.94225e-19)
(4.29515 -0.636192 4.72199e-19)
(4.3793 -0.711745 6.92761e-19)
(4.19038 -0.814385 -1.94498e-19)
(4.27811 -0.927499 -2.13896e-19)
(4.01779 -0.94803 5.37498e-20)
(4.09934 -1.07776 -1.22479e-19)
(3.80969 -1.00226 1.06685e-19)
(3.87089 -1.13228 1.58825e-21)
(3.60988 -0.979336 -6.92181e-20)
(3.63704 -1.10026 -6.21131e-20)
(3.4487 -0.907816 0)
(3.44993 -1.00824 0)
(3.31856 -0.900417 0)
(3.33371 -0.822165 8.07103e-20)
(4.3992 -0.235496 5.5962e-19)
(4.32198 -0.255474 0)
(4.39291 -0.277855 5.68715e-19)
(4.34268 -0.308383 8.44403e-19)
(4.48136 -0.45305 -1.74038e-19)
(4.41254 -0.591227 6.42397e-21)
(4.48685 -0.707676 3.04621e-19)
(4.40738 -0.894985 -1.08111e-19)
(4.386 -0.965754 6.65712e-20)
(4.31856 -1.1696 1.83956e-20)
(4.19658 -1.15761 -7.73455e-20)
(4.15679 -1.35672 5.09598e-20)
(3.95387 -1.2469 3.41092e-20)
(3.93515 -1.43768 2.23652e-19)
(3.70167 -1.23316 -9.28444e-20)
(3.68773 -1.40911 -2.08035e-19)
(3.48448 -1.14094 0)
(3.46132 -1.28842 6.16668e-20)
(3.32987 -1.01092 0)
(3.29291 -1.12154 0)
(3.19706 -0.960726 0)
(3.24054 -0.891516 -5.34016e-20)
(4.26584 -0.370382 -7.03446e-20)
(3.92124 -0.371506 0)
(4.4751 -0.740525 1.80105e-19)
(4.20391 -1.01719 -5.82776e-19)
(4.40096 -1.04332 -2.05157e-20)
(4.13063 -1.27073 5.69785e-19)
(4.27714 -1.31103 -4.62121e-19)
(4.04065 -1.50713 -2.31458e-20)
(4.11331 -1.50788 -2.74305e-20)
(3.93409 -1.67316 -4.90209e-19)
(3.90808 -1.60708 2.05258e-19)
(3.7945 -1.75135 2.41495e-19)
(3.67279 -1.59431 1.92457e-19)
(3.61499 -1.73425 1.46601e-19)
(3.44629 -1.47592 -2.20626e-19)
(3.40469 -1.61314 -2.25332e-19)
(3.27474 -1.28787 6.86011e-20)
(3.21303 -1.40434 5.642e-20)
(3.16764 -1.09279 0)
(3.09589 -1.17879 0)
(3.06064 -0.988421 2.32074e-20)
(3.11277 -0.939795 0)
(3.95851 -1.14136 -3.95047e-19)
(3.61894 -2.4704 -5.3287e-19)
(3.88986 -1.40875 -5.09693e-19)
(3.6463 -1.74709 1.15867e-20)
(3.81285 -1.63397 5.60249e-19)
(3.59816 -1.82263 2.29214e-19)
(3.72504 -1.79278 -2.29826e-20)
(3.58607 -1.89153 2.391e-19)
(3.63067 -1.87218 -3.03086e-19)
(3.56947 -1.9197 -3.38009e-19)
(3.5149 -1.86857 2.43616e-19)
(3.529 -1.91111 2.73984e-19)
(3.35973 -1.77067 -5.35921e-20)
(3.44977 -1.85045 -7.22392e-20)
(3.17718 -1.57154 -1.76537e-19)
(3.3228 -1.70362 -8.0724e-20)
(3.0354 -1.31808 2.13002e-20)
(3.16126 -1.45332 -1.28087e-20)
(2.98454 -1.09261 2.02883e-20)
(3.02916 -1.17374 -5.29153e-20)
(2.9822 -0.971957 4.0131e-20)
(2.98438 -0.948367 -1.59244e-20)
(6.01616 -1.44026 -3.6442e-19)
(6.43183 -0.815116 -3.31296e-19)
(5.48394 -1.17926 -1.71819e-20)
(6.05163 -0.732116 9.25319e-20)
(5.11133 -0.994665 -5.97525e-21)
(5.65388 -0.709336 -5.11835e-20)
(4.76508 -0.793829 -4.48142e-20)
(5.25125 -0.619305 1.5036e-20)
(4.44258 -0.577104 -3.67922e-20)
(4.84946 -0.474067 -2.74756e-20)
(4.16074 -0.378624 3.73694e-20)
(4.47006 -0.29734 3.54306e-20)
(3.91768 -0.232964 -4.20088e-21)
(4.13805 -0.144138 -7.23275e-20)
(3.71003 -0.141417 2.86026e-20)
(3.86465 -0.0482814 -2.36146e-21)
(3.53161 -0.0922779 2.58994e-20)
(3.63738 -7.86428e-05 8.23574e-20)
(3.37553 -0.0802893 -5.15921e-21)
(3.44533 0.0145737 -6.88112e-21)
(3.29247 0.000232155 -2.68248e-21)
(3.23808 -0.107624 -2.54934e-21)
(6.45758 -0.103902 -2.38058e-20)
(6.4956 0.194514 3.52209e-20)
(6.11024 -0.287259 -2.75809e-20)
(6.35754 0.0996672 -2.93559e-20)
(5.72572 -0.361677 9.33839e-20)
(6.07885 -0.0632556 2.68445e-22)
(5.3017 -0.328012 2.90123e-20)
(5.70876 -0.109057 6.80242e-20)
(4.87022 -0.211439 1.76733e-20)
(5.27563 -0.0649582 -6.48829e-21)
(4.46468 -0.0653127 -1.56958e-20)
(4.81661 0.0502816 -5.07862e-20)
(4.1109 0.0442455 -2.41062e-20)
(4.37641 0.172828 -6.38901e-20)
(3.81709 0.097006 7.71162e-20)
(4.00166 0.235072 1.29715e-19)
(3.57478 0.111637 4.51862e-20)
(3.69955 0.239912 -7.73235e-20)
(3.36994 0.0975089 -4.96208e-21)
(3.45182 0.217909 6.82044e-20)
(3.2562 0.183439 -1.22929e-20)
(3.18855 0.0526355 -5.06842e-20)
(6.46606 0.482152 -7.01129e-21)
(6.43099 0.55164 6.34344e-20)
(6.32191 0.3261 -3.61883e-20)
(6.40094 0.575411 -4.38852e-20)
(6.05989 0.205265 -1.46081e-20)
(6.23387 0.423499 8.92561e-20)
(5.68803 0.157249 -7.87039e-20)
(5.95705 0.352703 -8.26544e-20)
(5.24036 0.199541 -1.41876e-19)
(5.57209 0.347349 -2.18369e-19)
(4.76033 0.306996 -1.41066e-20)
(5.10539 0.42507 1.5619e-19)
(4.30652 0.397981 6.14873e-20)
(4.60312 0.544787 1.18075e-19)
(3.91999 0.409414 -2.12231e-19)
(4.13258 0.602548 -5.43577e-20)
(3.60703 0.36889 -6.18784e-20)
(3.74319 0.554249 -2.87324e-19)
(3.35206 0.310962 9.12962e-20)
(3.43495 0.466892 1.17426e-19)
(3.19803 0.386597 -1.26576e-20)
(3.13358 0.246592 2.7483e-20)
(6.40801 0.711577 -7.82525e-20)
(6.38964 0.655521 7.53589e-20)
(6.33706 0.64181 3.58936e-20)
(6.38425 0.776096 -8.18465e-20)
(6.16687 0.572664 1.93735e-20)
(6.26602 0.677195 1.20191e-19)
(5.87918 0.532237 -2.0709e-19)
(6.05006 0.646334 -6.5087e-20)
(5.48291 0.554061 -2.21643e-21)
(5.72372 0.64811 -2.01575e-19)
(5.00108 0.651543 3.49138e-19)
(5.28986 0.716697 2.52267e-19)
(4.48251 0.774276 -1.14067e-20)
(4.77347 0.856059 6.81423e-20)
(4.00486 0.803012 -1.09236e-19)
(4.24164 0.985448 -2.65203e-20)
(3.61595 0.698724 4.26362e-20)
(3.76509 0.963306 7.94185e-21)
(3.30543 0.559615 3.36758e-21)
(3.38298 0.794992 9.59104e-21)
(3.10784 0.644358 -3.0457e-20)
(3.02821 0.443096 4.2248e-20)
(6.38628 0.79081 -3.31089e-21)
(6.38561 0.680117 -6.08396e-21)
(6.32844 0.770379 -6.1023e-20)
(6.38073 0.853728 -4.38885e-20)
(6.18452 0.751984 3.64668e-20)
(6.27678 0.782363 3.29674e-20)
(5.93929 0.748887 -4.52454e-20)
(6.08502 0.78915 1.52675e-21)
(5.58756 0.785805 -1.46844e-20)
(5.79287 0.813682 -1.55321e-20)
(5.13281 0.884437 -3.32352e-22)
(5.38643 0.887104 -3.27279e-20)
(4.6116 1.03592 -1.60928e-20)
(4.87198 1.0264 1.1879e-20)
(4.07266 1.16151 1.51585e-19)
(4.29877 1.20736 -1.0537e-19)
(3.58533 1.1297 5.79006e-20)
(3.74189 1.3033 -3.74911e-21)
(3.21316 0.928105 -6.61596e-20)
(3.26847 1.16779 -1.33068e-19)
(2.9611 0.934031 -2.11348e-20)
(2.92644 0.71595 -2.84418e-20)
(6.3907 0.818188 -2.55013e-20)
(6.39917 0.674499 -8.01588e-21)
(6.33971 0.819037 0)
(6.39302 0.881717 -2.86228e-22)
(6.2044 0.825451 1.36537e-21)
(6.2953 0.815935 2.19221e-22)
(5.97543 0.846185 1.7676e-20)
(6.11308 0.844192 -1.15907e-22)
(5.6423 0.899496 -2.02244e-20)
(5.83748 0.881983 2.91506e-20)
(5.19174 1.00394 -2.8264e-20)
(5.44524 0.960677 -3.79609e-20)
(4.63746 1.16058 -2.25685e-21)
(4.9229 1.09765 -5.56008e-20)
(4.04172 1.31638 -8.44931e-20)
(4.29492 1.29169 1.30497e-20)
(3.48926 1.37742 -7.38104e-21)
(3.66025 1.45384 -4.5987e-20)
(3.05301 1.23935 2.56677e-19)
(3.1093 1.44072 -6.02538e-20)
(2.72917 1.21016 5.10487e-20)
(2.75463 0.95617 -1.39351e-19)
(6.4035 0.81704 1.66033e-20)
(6.41307 0.656281 1.84336e-20)
(6.35869 0.827372 -3.3916e-21)
(6.40883 0.878588 -2.89491e-22)
(6.2282 0.843065 1.03251e-20)
(6.31712 0.807451 2.21262e-22)
(6.00887 0.87244 2.24987e-20)
(6.14095 0.846228 -8.94036e-21)
(5.68812 0.931398 4.28412e-20)
(5.8772 0.885107 2.6643e-21)
(5.24136 1.03693 -2.88484e-20)
(5.49702 0.961187 3.33095e-20)
(4.66209 1.19656 -4.23171e-20)
(4.97263 1.09115 -4.97058e-20)
(3.99901 1.37742 5.79282e-20)
(4.30453 1.287 1.17654e-19)
(3.35948 1.49343 -7.84273e-20)
(3.58305 1.4793 8.75451e-20)
(2.84242 1.44403 -5.60531e-20)
(2.93648 1.56045 -2.71241e-19)
(2.46915 1.43005 9.98294e-20)
(2.49028 1.18433 3.3185e-20)
(6.42027 0.790513 3.34519e-21)
(6.43082 0.626869 -7.97454e-21)
(6.37894 0.805469 0)
(6.42505 0.851754 -4.78688e-21)
(6.25232 0.822396 -2.27039e-20)
(6.33691 0.768685 0)
(6.04098 0.850876 -3.67332e-20)
(6.16545 0.812261 -7.33515e-21)
(5.732 0.905362 -9.56299e-21)
(5.91275 0.842215 -8.67638e-21)
(5.29297 1.00233 5.33281e-20)
(5.54662 0.905947 7.29614e-20)
(4.70045 1.15476 8.40004e-20)
(5.0295 1.01863 5.99072e-20)
(3.98341 1.34551 7.96692e-20)
(4.33774 1.19952 1.98815e-20)
(3.24813 1.49812 1.20841e-19)
(3.54164 1.41166 -5.68063e-20)
(2.62735 1.52454 1.93763e-19)
(2.78916 1.53781 -6.48645e-20)
(2.21237 1.51856 -1.65742e-20)
(2.18538 1.34504 1.90432e-19)
(6.43658 0.750785 3.70053e-20)
(6.44863 0.592372 3.36951e-21)
(6.39577 0.7633 -5.30969e-21)
(6.43493 0.810789 1.31699e-20)
(6.27193 0.774402 2.10225e-20)
(6.34967 0.707438 -1.40113e-20)
(6.06781 0.794731 2.58855e-20)
(6.18301 0.751995 3.33681e-20)
(5.7716 0.835783 6.54425e-20)
(5.94089 0.764559 5.71003e-21)
(5.34678 0.913189 8.1025e-20)
(5.5913 0.806482 -2.96767e-20)
(4.75528 1.04481 0)
(5.09243 0.88993 -2.15146e-20)
(4.00108 1.22836 -2.12013e-19)
(4.39832 1.036 -1.31236e-19)
(3.18347 1.39854 -3.4579e-19)
(3.5449 1.25311 -1.60241e-19)
(2.4585 1.48108 -1.74318e-19)
(2.70113 1.39999 -1.92392e-20)
(2.0197 1.42994 -9.32228e-20)
(1.95658 1.40568 -3.03958e-19)
(6.44546 0.696892 1.63064e-20)
(6.44762 0.547897 1.5705e-20)
(6.40603 0.704939 -1.85099e-20)
(6.43724 0.753327 5.95253e-21)
(6.28195 0.707229 -6.66582e-21)
(6.35668 0.631222 -1.16121e-20)
(6.08499 0.712423 1.76664e-20)
(6.18812 0.671186 -8.48636e-21)
(5.80208 0.731721 -9.4993e-20)
(5.95638 0.659411 -3.71825e-22)
(5.39749 0.778725 -1.44427e-19)
(5.62479 0.671078 -7.41399e-20)
(4.82408 0.874088 -1.36481e-19)
(5.15393 0.71356 1.52169e-20)
(4.05563 1.03082 -3.31292e-20)
(4.48373 0.804623 -7.38946e-20)
(3.17411 1.19955 2.70403e-19)
(3.59829 1.00172 1.28198e-19)
(2.35407 1.30377 3.32651e-20)
(2.67339 1.15629 1.73856e-19)
(1.89699 1.20452 -1.2948e-19)
(1.74377 1.29152 2.51674e-19)
(6.44026 0.647152 4.13844e-20)
(6.42994 0.479017 4.9721e-20)
(6.40124 0.651889 -1.12505e-20)
(6.44108 0.681852 7.8069e-21)
(6.27343 0.621837 -1.55053e-20)
(6.32227 0.554571 -3.48194e-20)
(6.08746 0.607682 -2.79796e-20)
(6.1784 0.565732 -2.04309e-20)
(5.81795 0.598887 3.19913e-20)
(5.95607 0.530453 -5.74733e-22)
(5.43684 0.606131 8.53506e-20)
(5.64152 0.506229 4.34087e-20)
(4.89675 0.649524 1.15172e-19)
(5.20356 0.498932 -1.32397e-20)
(4.14258 0.75598 8.54454e-20)
(4.58359 0.52032 1.67774e-19)
(3.22227 0.906518 2.63902e-20)
(3.70965 0.644671 -8.46973e-20)
(2.32413 1.01112 4.4939e-20)
(2.71683 0.815632 4.11021e-20)
(1.87072 0.86548 1.15469e-21)
(1.63053 1.04443 -1.31529e-19)
(6.41833 0.58101 1.48253e-19)
(6.4033 0.40112 8.09721e-20)
(6.37936 0.557113 -6.53812e-20)
(6.39701 0.599277 -5.97224e-20)
(6.24891 0.523175 -4.29962e-20)
(6.29421 0.468372 -7.50773e-20)
(6.07284 0.483278 5.41421e-21)
(6.14785 0.438378 4.01925e-20)
(5.81626 0.441606 6.6681e-21)
(5.93571 0.379173 6.50825e-20)
(5.45886 0.403301 -4.94765e-20)
(5.63614 0.316454 -1.64979e-19)
(4.96017 0.379963 1.52197e-20)
(5.22527 0.256805 3.65125e-20)
(4.25081 0.402955 2.49716e-20)
(4.66461 0.210041 5.04736e-20)
(3.32873 0.512854 -9.26562e-20)
(3.87804 0.217029 -9.39656e-20)
(2.38284 0.626708 -1.57676e-20)
(2.86496 0.382444 1.37452e-19)
(1.97243 0.438698 -3.01163e-19)
(1.63503 0.706681 1.21683e-18)
(6.37235 0.505242 8.264e-20)
(6.35554 0.330465 5.47131e-20)
(6.33169 0.464327 -6.88575e-20)
(6.33304 0.500503 -7.08316e-20)
(6.20734 0.406819 -1.68487e-20)
(6.23889 0.365277 -1.44878e-20)
(6.03554 0.339174 9.7475e-20)
(6.09713 0.297143 1.89658e-19)
(5.79016 0.262672 -8.07472e-20)
(5.89646 0.206719 -2.45413e-20)
(5.45035 0.180609 -1.08025e-19)
(5.61502 0.104235 -2.64735e-19)
(4.99218 0.0996157 6.57558e-20)
(5.23134 -0.00464531 9.22581e-20)
(4.38181 0.0382541 -1.85046e-20)
(4.71911 -0.110743 5.3168e-20)
(3.5352 0.0575493 1.25507e-19)
(4.04975 -0.196635 4.00339e-21)
(2.548 0.157187 -1.53969e-19)
(3.11971 -0.122626 1.36269e-19)
(2.14802 -0.0734209 3.49257e-20)
(1.67852 0.192276 -6.63722e-19)
(6.29822 0.423015 1.4141e-20)
(6.27018 0.257046 1.81733e-20)
(6.25678 0.358972 2.8235e-20)
(6.23945 0.387855 -2.21032e-21)
(6.14038 0.274545 1.56896e-19)
(6.15322 0.244861 6.06505e-20)
(5.97803 0.175489 9.31868e-20)
(6.02162 0.140966 7.27063e-20)
(5.74905 0.0616873 -1.81608e-19)
(5.83699 0.014912 -1.6487e-19)
(5.43386 -0.0643008 -1.09865e-19)
(5.5799 -0.128886 -7.85717e-20)
(5.012 -0.195226 8.70423e-20)
(5.23263 -0.28463 0)
(4.45689 -0.314485 1.08063e-19)
(4.77739 -0.441712 2.96056e-19)
(3.72979 -0.40057 0)
(4.18861 -0.58205 -1.50391e-19)
(2.83155 -0.387556 3.46099e-19)
(3.4026 -0.634202 2.68696e-19)
(2.49757 -0.627964 8.26396e-21)
(1.89082 -0.310837 -5.1752e-19)
(6.19471 0.327519 1.14593e-19)
(6.15511 0.179094 5.28663e-22)
(6.15189 0.23985 2.38786e-20)
(6.11475 0.263189 -1.10599e-20)
(6.04482 0.12751 -1.8898e-20)
(6.0346 0.108525 4.00541e-20)
(5.89637 -0.00501908 -1.54198e-19)
(5.91623 -0.0304065 -7.38378e-20)
(5.68949 -0.157844 -7.95295e-20)
(5.75285 -0.194157 1.26404e-20)
(5.4073 -0.328221 1.22793e-20)
(5.52744 -0.379867 1.12152e-19)
(5.03369 -0.508319 1.77394e-19)
(5.22563 -0.58077 1.91126e-19)
(4.54817 -0.683627 1.11989e-19)
(4.83397 -0.782907 5.33937e-20)
(3.92414 -0.832997 7.24512e-20)
(4.33102 -0.967337 -4.25343e-19)
(3.15225 -0.900528 -5.11782e-20)
(3.68622 -1.09265 2.69984e-19)
(2.9134 -1.1544 -3.47736e-20)
(2.26789 -0.875143 -4.8443e-19)
(6.05649 0.222457 -1.31471e-20)
(6.00297 0.0956956 -1.14514e-20)
(6.01073 0.108418 0)
(5.95162 0.127913 0)
(5.91433 -0.0339211 0)
(5.87756 -0.0430548 0)
(5.78457 -0.201458 7.35026e-20)
(5.77623 -0.217849 -5.05379e-20)
(5.60743 -0.3934 1.70551e-19)
(5.64138 -0.421036 1.21162e-19)
(5.36879 -0.605499 2.69729e-19)
(5.45776 -0.648526 1.34764e-19)
(5.05655 -0.828386 1.03245e-19)
(5.2128 -0.891597 7.2235e-20)
(4.65583 -1.04579 -4.06606e-19)
(4.89704 -1.13407 -1.45936e-19)
(4.14655 -1.23434 -3.05222e-19)
(4.4962 -1.36081 3.3065e-20)
(3.51779 -1.3534 3.1146e-19)
(3.98505 -1.52584 -1.81672e-19)
(3.38486 -1.63377 3.51792e-19)
(2.71378 -1.37523 1.5336e-19)
(5.8747 0.106177 1.36744e-20)
(5.80332 0.000673704 1.23295e-20)
(5.82624 -0.0369654 0)
(5.74114 -0.0206603 4.27813e-20)
(5.74327 -0.2119 -4.52255e-20)
(5.67419 -0.212706 0)
(5.63871 -0.416669 -2.69543e-20)
(5.59415 -0.425049 -5.01896e-20)
(5.50092 -0.649285 8.40506e-20)
(5.4963 -0.669878 2.14696e-20)
(5.31627 -0.903354 -2.6694e-20)
(5.36695 -0.939447 6.05445e-21)
(5.0741 -1.16992 -1.31964e-19)
(5.19063 -1.22397 9.3862e-20)
(4.7664 -1.43165 2.1083e-19)
(4.9594 -1.50228 9.56107e-20)
(4.37983 -1.65431 1.34635e-19)
(4.66712 -1.74656 1.69732e-19)
(3.89809 -1.80419 -2.02576e-19)
(4.29493 -1.93156 1.57398e-19)
(3.8391 -2.08597 2.41699e-20)
(3.25801 -1.91266 0)
(5.64219 -0.0254519 3.82016e-20)
(5.54861 -0.114576 1.30534e-19)
(5.59247 -0.199168 4.68422e-20)
(5.47421 -0.187443 -5.46755e-20)
(5.52679 -0.408237 0)
(5.41353 -0.403145 0)
(5.4551 -0.651904 -1.57365e-20)
(5.35354 -0.65034 0)
(5.36747 -0.927739 -8.24403e-20)
(5.29115 -0.930069 2.40701e-20)
(5.24779 -1.22633 8.8463e-20)
(5.21845 -1.22936 1.23191e-19)
(5.08667 -1.52623 3.45958e-19)
(5.12133 -1.53145 1.59594e-19)
(4.88109 -1.79816 9.38597e-20)
(4.98983 -1.81515 -1.60396e-20)
(4.61639 -2.02394 1.25251e-19)
(4.80837 -2.05875 -1.48152e-19)
(4.27629 -2.19905 2.68854e-19)
(4.56283 -2.26225 7.61844e-21)
(4.25429 -2.43382 2.06036e-19)
(3.77118 -2.34581 -8.67188e-19)
(5.3543 -0.174003 -5.90325e-20)
(5.22231 -0.258218 3.84111e-19)
(5.30062 -0.379077 -1.21948e-19)
(5.12344 -0.362518 -2.00633e-19)
(5.24443 -0.622502 0)