/*--------------------------------*- C++ -*----------------------------------*\
| =========                 |                                                 |
| \\      /  F ield         | OpenFOAM: The Open Source CFD Toolbox           |
|  \\    /   O peration     | Version:  3.0.1                                 |
|   \\  /    A nd           | Web:      www.OpenFOAM.org                      |
|    \\/     M anipulation  |                                                 |
\*---------------------------------------------------------------------------*/
FoamFile
{
    version     2.0;
    format      ascii;
    class       surfaceVectorField;
    location    "0.459485";
    object      Uf;
}
// * * * * * * * * * * * * * * * * * * * * * * * * * * * * * * * * * * * * * //

dimensions      [0 1 -1 0 0 0 0];

internalField   nonuniform List<vector> 
32369
(
(3.11392 3.84148 -9.99465e-19)
(4.23956 4.37611 2.95592e-18)
(2.18248 5.31867 4.28448e-18)
(2.54882 3.37318 -2.36478e-19)
(3.40136 2.27074 -5.05732e-18)
(1.57967 3.772 -1.70465e-18)
(2.34821 2.75377 3.11232e-19)
(3.22794 2.47143 1.11315e-18)
(1.59035 2.97607 1.69277e-18)
(2.1575 2.17231 -1.14717e-19)
(2.85271 2.08713 5.80241e-19)
(1.62067 2.30905 8.35816e-19)
(2.03037 1.71043 -3.87272e-19)
(2.50912 1.71934 -4.20885e-19)
(1.66162 1.82595 -1.31798e-18)
(1.95216 1.35618 2.35369e-19)
(2.27345 1.40403 1.87414e-19)
(1.69389 1.45972 3.3164e-19)
(1.9055 1.08745 3.00063e-19)
(2.12288 1.1399 1.22369e-19)
(1.72205 1.17622 -4.27241e-19)
(1.87866 0.882256 1.31353e-19)
(2.02839 0.927702 1.65677e-19)
(1.74386 0.956774 3.36856e-19)
(1.86659 0.724694 -5.71492e-20)
(1.97113 0.759868 -8.10547e-20)
(1.76382 0.78529 -6.75183e-20)
(1.86697 0.602988 3.64969e-20)
(1.9404 0.62912 9.2315e-20)
(1.78454 0.652047 1.37255e-19)
(1.92993 0.535537 -4.83541e-20)
(1.80258 0.553312 -2.40301e-20)
(1.87775 0.502573 2.08272e-20)
(3.32863 1.53842 -2.61058e-18)
(3.18105 2.50658 2.83149e-18)
(3.50865 1.87859 -4.53589e-18)
(3.13675 0.366014 -3.28746e-18)
(3.38183 1.87805 1.33064e-18)
(3.75048 1.33234 9.47985e-19)
(3.04626 1.74715 4.85614e-19)
(3.53544 1.2978 2.30541e-19)
(2.70519 1.51271 1.51519e-19)
(3.17284 1.24017 1.20426e-19)
(2.43644 1.2562 1.02743e-19)
(2.80835 1.12261 2.13528e-19)
(2.24744 1.02495 1.6848e-20)
(2.51806 0.96817 -2.09395e-19)
(2.12272 0.834839 -1.27847e-20)
(2.31083 0.815022 0)
(2.04435 0.685441 3.25963e-20)
(2.1721 0.679918 -1.41425e-20)
(1.99989 0.571759 8.58368e-20)
(2.08373 0.569208 -1.32814e-20)
(2.03415 0.489436 -2.4061e-21)
(1.97912 0.486805 -1.39314e-21)
(2.51212 0.376516 -3.05863e-19)
(1.94868 1.43354 1.47559e-19)
(3.29474 0.393385 0)
(2.31945 -0.569197 0)
(3.52531 0.619675 0)
(3.38313 0.308175 0)
(3.431 0.841924 -1.28946e-19)
(3.46372 0.330914 0)
(3.15094 0.925909 -2.48989e-19)
(3.36742 0.51483 -1.34293e-18)
(2.83275 0.898419 -2.09947e-19)
(3.09131 0.614538 8.55953e-19)
(2.55916 0.805633 -2.41949e-19)
(2.7921 0.625545 -1.933e-19)
(2.35273 0.692941 0)
(2.53504 0.586579 8.23226e-21)
(2.20982 0.586976 -9.18573e-20)
(2.34072 0.524291 0)
(2.11945 0.498021 -1.15674e-19)
(2.20592 0.460996 -1.38872e-19)
(2.12259 0.415178 4.23919e-20)
(2.07104 0.427777 0)
(1.5952 0.0864001 3.03892e-19)
(0.914338 1.03854 6.89747e-18)
(2.6277 -0.316916 0)
(1.575 -0.70525 -4.96214e-18)
(3.13622 -0.225008 0)
(2.73863 -0.260034 -3.09471e-18)
(3.3109 0.00540613 -1.05054e-18)
(3.02182 -0.368023 2.54024e-18)
(3.22575 0.2253 -3.68741e-19)
(3.18512 -0.13207 -1.36584e-18)
(2.99809 0.382464 1.24165e-18)
(3.07181 0.0674509 1.86254e-18)
(2.74255 0.448959 1.00661e-19)
(2.86554 0.203532 -1.34744e-18)
(2.51294 0.451929 9.03778e-21)
(2.63838 0.279 8.75967e-19)
(2.3336 0.422742 -7.87964e-21)
(2.43737 0.3055 0)
(2.20655 0.385158 1.83657e-20)
(2.28115 0.306158 -1.1733e-19)
(2.17259 0.306006 4.3672e-20)
(2.1212 0.355237 3.7548e-20)
(0.807409 0.187666 2.30802e-18)
(0.0984191 1.01143 6.32754e-18)
(1.90821 -0.476602 -8.16267e-18)
(0.983609 -0.505904 -4.72654e-18)
(2.56836 -0.608518 -3.94512e-19)
(2.11991 -0.468988 -4.42299e-19)
(2.92343 -0.526285 2.6066e-18)
(2.51278 -0.724748 3.12853e-19)
(3.01729 -0.328817 5.06691e-19)
(2.83 -0.557828 -9.78158e-19)
(2.92723 -0.109441 -3.74371e-19)
(2.85313 -0.369317 1.8394e-18)
(2.75523 0.0560325 -9.04386e-19)
(2.76232 -0.182759 -1.83943e-18)
(2.56161 0.158521 9.52902e-19)
(2.60803 -0.0357718 7.09577e-19)
(2.3866 0.211151 -9.54137e-20)
(2.44159 0.0625938 2.14689e-19)
(2.24743 0.234552 -1.17258e-19)
(2.29433 0.124398 2.29242e-19)
(2.181 0.171847 2.93111e-21)
(2.13881 0.249586 6.30436e-19)
(0.170257 0.415813 -7.95682e-20)
(-0.563167 1.17882 -4.47077e-18)
(1.2704 -0.395334 2.49566e-18)
(0.476716 -0.202159 3.31687e-18)
(2.00545 -0.706032 5.26524e-19)
(1.55966 -0.474785 2.61401e-18)
(2.46392 -0.776929 -3.12312e-18)
(2.03672 -0.841785 -3.47032e-18)
(2.67832 -0.665498 1.7225e-19)
(2.4389 -0.782838 1.37955e-19)
(2.70655 -0.471665 7.53698e-19)
(2.55494 -0.654029 -6.13815e-19)
(2.62958 -0.27988 -6.16997e-19)
(2.5575 -0.473439 8.19956e-20)
(2.49965 -0.12327 1.23175e-20)
(2.47849 -0.30223 6.46537e-19)
(2.35931 -0.0106041 5.54516e-19)
(2.3634 -0.162419 4.11694e-19)
(2.23256 0.0670455 3.98225e-19)
(2.24441 -0.0571808 -6.57945e-19)
(2.14089 0.03008 6.43825e-19)
(2.1214 0.129908 1.28075e-19)
(-0.348023 0.717811 -2.04499e-18)
(-1.08293 1.47438 -4.69477e-18)
(0.730962 -0.201307 3.5028e-18)
(0.0378905 0.150058 3.18061e-18)
(1.50352 -0.654651 -1.16904e-18)
(1.05841 -0.357717 0)
(2.02248 -0.851342 -6.18482e-19)
(1.60843 -0.81481 -2.57678e-19)
(2.3125 -0.831427 -3.55556e-19)
(2.06176 -0.867219 -1.20025e-18)
(2.4245 -0.694277 -1.30665e-18)
(2.24286 -0.808952 -1.17664e-18)
(2.42647 -0.521083 1.27969e-18)
(2.31333 -0.662657 4.72451e-19)
(2.3604 -0.351717 1.06098e-18)
(2.29521 -0.498745 7.99426e-19)
(2.26459 -0.208199 -6.66226e-19)
(2.22948 -0.345035 -2.16567e-19)
(2.16389 -0.0953612 -6.13208e-19)
(2.14621 -0.216794 -2.13435e-19)
(2.06398 -0.104586 2.63909e-19)
(2.05582 0.00402547 1.4143e-19)
(-0.766438 1.063 -4.48579e-19)
(-1.43703 1.81198 3.15178e-19)
(0.285657 0.0603026 0)
(-0.333632 0.520337 0)
(1.07393 -0.513869 9.56762e-19)
(0.628724 -0.161185 2.05792e-18)
(1.63032 -0.818481 -7.28235e-19)
(1.23419 -0.699047 -2.12497e-19)
(1.96884 -0.884548 -1.93883e-18)
(1.71788 -0.85685 -1.74851e-18)
(2.13636 -0.809335 4.95207e-19)
(1.94615 -0.869025 8.29064e-19)
(2.19453 -0.671007 0)
(2.06434 -0.767527 -9.00144e-19)
(2.18076 -0.513638 -3.62477e-19)
(2.09207 -0.627145 1.30384e-18)
(2.12748 -0.364161 2.54737e-19)
(2.06715 -0.478397 -4.06697e-19)
(2.0577 -0.232326 6.15077e-19)
(2.01556 -0.342193 1.30267e-18)
(1.95346 -0.216583 -1.04866e-18)
(1.96902 -0.103696 -2.66389e-19)
(-1.08872 1.42075 8.12466e-19)
(-1.70064 2.15559 -5.21586e-19)
(-0.0805261 0.363848 1.85296e-18)
(-0.649364 0.88326 2.21061e-19)
(0.710498 -0.314378 1.06042e-18)
(0.266929 0.0823481 1.68594e-18)
(1.29114 -0.715681 -1.01831e-18)
(0.910718 -0.528674 -2.0976e-18)
(1.66259 -0.862888 8.11037e-19)
(1.41265 -0.78389 8.24235e-19)
(1.86757 -0.848979 -4.07464e-19)
(1.67685 -0.863491 3.58477e-19)
(1.96397 -0.750668 1.99739e-19)
(1.82832 -0.809902 -1.30506e-18)
(1.9882 -0.615628 1.44521e-18)
(1.8892 -0.699757 1.27452e-18)
(1.96892 -0.473854 4.40605e-19)
(1.89584 -0.566163 -7.28109e-19)
(1.92576 -0.339088 -3.23699e-20)
(1.87104 -0.433586 1.02485e-18)
(1.8285 -0.303554 -1.04066e-18)
(1.85999 -0.202929 1.09669e-18)
(-1.35751 1.77404 -1.22697e-18)
(-1.91391 2.52187 -1.84683e-18)
(-0.399611 0.687103 -1.02076e-19)
(-0.937642 1.25473 1.63324e-18)
(0.389464 -0.0761082 -1.15521e-18)
(-0.0551155 0.365704 -1.6199e-18)
(0.990408 -0.56513 -5.74978e-19)
(0.618788 -0.318036 -1.28123e-18)
(1.38956 -0.790309 4.31379e-19)
(1.13785 -0.666369 3.91085e-19)
(1.62391 -0.836477 -3.6207e-19)
(1.43419 -0.812298 0)
(1.748 -0.779614 -4.12301e-19)
(1.61146 -0.807611 -8.07799e-19)
(1.79954 -0.671292 -6.36623e-19)
(1.69704 -0.73005 -4.82308e-19)
(1.80594 -0.544124 -3.36211e-19)
(1.72738 -0.616389 -2.16786e-20)
(1.78468 -0.415113 2.68112e-19)
(1.72438 -0.494015 7.80732e-19)
(1.70213 -0.369535 -6.62692e-20)
(1.72923 -0.276496 -9.11063e-19)
(-1.58828 2.13692 6.62662e-19)
(-2.06371 2.88997 4.46616e-19)
(-0.682686 1.03027 4.60419e-19)
(-1.19204 1.63065 -1.62757e-21)
(0.0990807 0.1943 -1.78434e-18)
(-0.341129 0.67852 -1.48343e-18)
(0.717084 -0.378147 -5.17537e-19)
(0.351861 -0.0764306 5.6548e-19)
(1.14224 -0.680676 0)
(0.887277 -0.514119 0)
(1.40311 -0.786833 -3.50456e-19)
(1.21354 -0.727094 -8.768e-19)
(1.54993 -0.772021 -8.74582e-19)
(1.41341 -0.772454 -3.47115e-19)
(1.62226 -0.692043 9.37347e-20)
(1.51895 -0.728555 4.22351e-19)
(1.64824 -0.582477 9.86323e-19)
(1.56747 -0.636771 1.00772e-18)
(1.6458 -0.462353 5.28407e-19)
(1.5809 -0.526807 2.30317e-19)
(1.57203 -0.407146 4.58182e-20)
(1.61388 -0.32372 1.93359e-19)
(-1.77282 2.49088 -1.88355e-19)
(-2.15094 3.21225 1.20587e-18)
(-0.923566 1.37859 -1.84053e-18)
(-1.40367 1.9812 -1.42212e-18)
(-0.157119 0.483903 6.53186e-19)
(-0.586356 0.997234 -9.39451e-19)
(0.471157 -0.165569 1.14287e-18)
(0.111061 0.181296 1.59269e-18)
(0.918091 -0.543528 -7.87278e-19)
(0.658344 -0.337809 -2.5583e-19)
(1.20246 -0.709595 -9.26526e-19)
(1.01074 -0.616791 -8.80913e-19)
(1.36908 -0.737344 8.85899e-19)
(1.23123 -0.712646 4.58545e-20)
(1.45835 -0.686331 1.28552e-18)
(1.35435 -0.703006 2.90009e-19)
(1.49947 -0.59566 3.32806e-19)
(1.4179 -0.634057 -2.68936e-21)
(1.51034 -0.487139 -2.32945e-19)
(1.44459 -0.538809 0)
(1.44798 -0.428113 -4.46812e-19)
(1.49271 -0.359531 -8.30777e-19)
(-1.91222 2.80512 2.51908e-19)
(-2.20228 3.49083 1.03667e-18)
(-1.12919 1.71263 -6.25746e-19)
(-1.58368 2.30761 0)
(-0.387226 0.780112 -2.76871e-19)
(-0.80464 1.31917 -1.66005e-18)
(0.244554 0.0644834 3.82181e-19)
(-0.114946 0.453457 1.53264e-18)
(0.709536 -0.38493 -2.83126e-19)
(0.440859 -0.140387 -9.35943e-21)
(1.01571 -0.610611 0)
(0.817258 -0.485046 -5.13521e-19)
(1.2013 -0.681657 -5.58458e-19)
(1.05861 -0.632493 2.64803e-19)
(1.30617 -0.660222 -9.576e-19)
(1.19958 -0.658202 -4.35311e-19)
(1.36048 -0.589357 -3.29441e-19)
(1.27785 -0.612927 -2.97733e-19)
(1.38288 -0.494554 -1.8435e-19)
(1.31725 -0.53369 1.5759e-19)
(1.3338 -0.436575 1.08573e-20)
(1.3735 -0.377684 3.51296e-19)
(-2.0184 3.09167 8.88609e-19)
(-2.2351 3.74674 1.5497e-18)
(-1.31054 2.0399 -8.68272e-19)
(-1.73947 2.62156 -6.22378e-19)
(-0.603942 1.08826 -1.81344e-19)
(-1.00579 1.64994 -1.65639e-18)
(0.0240643 0.315484 1.31636e-18)
(-0.334713 0.746197 8.52228e-19)
(0.504628 -0.203347 -1.78597e-19)
(0.225919 0.0832434 7.05287e-19)
(0.833084 -0.490108 -3.2963e-19)
(0.624584 -0.32842 -3.49437e-19)
(1.03953 -0.606712 4.6517e-19)
(0.888286 -0.530484 1.58112e-19)
(1.16162 -0.616464 2.12595e-19)
(1.04937 -0.594406 1.92384e-19)
(1.2301 -0.566388 1.4074e-19)
(1.14429 -0.574636 2.08483e-19)
(1.26555 -0.485864 3.82027e-19)
(1.1976 -0.511993 -1.54272e-19)
(1.22639 -0.425304 -2.73253e-19)
(1.27767 -0.385032 8.27959e-19)
(-2.10025 3.35318 5.62044e-20)
(-2.24571 3.9539 7.4053e-19)
(-1.4681 2.35257 -1.30522e-18)
(-1.86404 2.90071 -5.27663e-19)
(-0.805583 1.40214 -8.78942e-19)
(-1.18648 1.9735 -6.43601e-19)
(-0.189384 0.58504 2.45137e-19)
(-0.546108 1.05171 -1.37392e-19)
(0.301385 0.00167509 6.48182e-19)
(0.0125742 0.330677 5.66107e-20)
(0.650356 -0.346379 9.03031e-20)
(0.429069 -0.145116 4.69937e-19)
(0.878832 -0.511032 -1.19809e-19)
(0.715149 -0.403494 2.43547e-19)
(1.02064 -0.554503 1.86499e-19)
(0.898708 -0.508876 -1.49066e-19)
(1.10576 -0.52701 -4.41833e-20)
(1.01344 -0.517616 2.09849e-19)
(1.1552 -0.46214 -7.86658e-19)
(1.08359 -0.474295 3.14696e-21)
(1.12774 -0.403009 -5.46064e-19)
(1.17742 -0.374386 2.85848e-20)
(-2.15423 3.56854 8.74075e-20)
(-2.23215 4.11177 2.37039e-20)
(-1.60208 2.64117 1.47759e-19)
(-1.9602 3.15074 5.7733e-19)
(-0.994681 1.71806 5.01363e-20)
(-1.35041 2.29151 9.33924e-22)
(-0.399996 0.874005 -3.5343e-19)
(-0.752943 1.37405 -4.88073e-22)
(0.0949765 0.23417 -1.62971e-19)
(-0.204659 0.608188 -7.57922e-19)
(0.461958 -0.174286 6.49244e-19)
(0.224736 0.0716134 5.77326e-19)
(0.71348 -0.389684 2.55051e-19)
(0.532818 -0.24467 3.07067e-19)
(0.878208 -0.470596 -1.65722e-19)
(0.74169 -0.395611 -1.49983e-19)
(0.983837 -0.469228 2.82342e-19)
(0.880824 -0.437575 0)
(1.05092 -0.42303 3.08742e-19)
(0.97245 -0.417905 2.58992e-19)
(1.0361 -0.364152 5.83091e-20)
(1.09175 -0.353522 -4.48e-19)
(-2.18258 3.75672 6.94549e-19)
(-2.20145 4.23905 -6.34386e-19)
(-1.71443 2.91622 4.85499e-19)
(-2.02846 3.37645 9.74478e-19)
(-1.17399 2.04363 -5.14912e-20)
(-1.49665 2.60781 -4.65547e-20)
(-0.612411 1.19159 -3.2666e-19)
(-0.955396 1.72119 -2.40558e-19)
(-0.121036 0.504064 -1.53514e-19)
(-0.428636 0.92585 1.55973e-19)
(0.260675 0.0361903 2.62057e-19)
(0.00673415 0.333242 2.52242e-19)
(0.536487 -0.233368 -5.41428e-20)
(0.335296 -0.042082 -2.22751e-19)
(0.72847 -0.357152 0)
(0.572348 -0.243796 -9.97325e-20)
(0.860167 -0.387731 -5.28111e-20)
(0.741402 -0.325999 7.46488e-20)
(0.949866 -0.36541 2.88391e-20)
(0.860416 -0.337277 -1.39866e-19)
(0.948016 -0.308058 1.10255e-19)
(1.01063 -0.320914 -7.10191e-19)
(-2.18853 3.9003 -2.71411e-20)
(-2.15703 4.3233 -1.29938e-18)
(-1.80293 3.16971 5.45724e-19)
(-2.06671 3.576 4.70991e-19)
(-1.33814 2.37441 -2.15464e-19)
(-1.61921 2.91198 3.45709e-19)
(-0.823522 1.53908 1.96216e-19)
(-1.14833 2.0856 -2.39014e-19)
(-0.346953 0.81818 5.52312e-19)
(-0.658631 1.28541 4.40796e-19)
(0.0435855 0.295587 -1.90332e-19)
(-0.227654 0.649326 -1.26887e-19)
(0.343202 -0.0300088 -2.82149e-19)
(0.11807 0.218156 -1.74319e-19)
(0.566515 -0.202864 -4.53288e-20)
(0.385588 -0.0384045 -1.78589e-19)
(0.730299 -0.273737 1.156e-20)
(0.590122 -0.169961 1.22576e-19)
(0.848624 -0.283725 -8.91402e-20)
(0.743049 -0.222831 -5.54964e-20)
(0.860143 -0.228689 -2.26491e-20)
(0.931518 -0.263788 5.4107e-20)
(-2.17371 4.02256 -4.73498e-19)
(-2.10373 4.38079 -5.55722e-19)
(-1.86399 3.40361 1.63752e-19)
(-2.07902 3.74861 4.27743e-20)
(-1.48198 2.70465 3.80294e-19)
(-1.71682 3.19411 3.42164e-19)
(-1.03162 1.91565 -6.95685e-20)
(-1.32996 2.45865 0)
(-0.585364 1.18468 -1.77611e-19)
(-0.896257 1.69023 -1.44407e-19)
(-0.193919 0.618818 -1.13567e-19)
(-0.482349 1.03531 4.63561e-20)
(0.128721 0.238163 -6.9936e-20)
(-0.123278 0.55749 -3.39687e-20)
(0.387151 0.00925249 -4.49019e-20)
(0.176648 0.242574 7.05381e-21)
(0.588767 -0.113186 7.35922e-20)
(0.42108 0.0500573 6.51885e-20)
(0.741869 -0.167234 2.15354e-21)
(0.613129 -0.0584879 2.00277e-20)
(0.766787 -0.110648 -3.22849e-20)
(0.856411 -0.18634 -2.39909e-19)
(-2.14428 4.12763 1.43439e-19)
(-2.04293 4.42024 -1.53935e-19)
(-1.90161 3.61281 6.63542e-20)
(-2.07551 3.89509 -5.5809e-20)
(-1.60643 3.02314 0)
(-1.79781 3.44478 0)
(-1.23803 2.31597 -5.59268e-20)
(-1.50455 2.82981 1.07448e-19)
(-0.839789 1.6127 6.78083e-20)
(-1.14212 2.1445 -2.56929e-21)
(-0.45586 1.02645 1.3535e-19)
(-0.756365 1.51235 1.53139e-19)
(-0.110606 0.596042 3.46007e-20)
(-0.387802 1.0056 -3.39235e-20)
(0.185381 0.303466 1.10982e-19)
(-0.0563323 0.629438 4.1633e-20)
(0.428084 0.115443 2.43055e-20)
(0.227897 0.362367 -1.10315e-19)
(0.619915 0.00280821 -1.44843e-20)
(0.459429 0.181673 2.06769e-21)
(0.651855 0.0677899 4.197e-20)
(0.768635 -0.0672577 -3.1998e-20)
(-2.10177 4.21358 -3.85016e-19)
(-1.96087 4.43919 6.13909e-19)
(-1.92952 3.79052 -1.25736e-19)
(-2.06788 3.98874 -4.77324e-19)
(-1.72479 3.31988 9.52062e-20)
(-1.88863 3.65756 1.64533e-19)
(-1.44812 2.73639 1.79583e-19)
(-1.67824 3.19488 2.08424e-19)
(-1.10731 2.11489 8.61408e-20)
(-1.38132 2.6547 9.57012e-22)
(-0.735705 1.54561 0)
(-1.02688 2.10023 5.7171e-20)
(-0.371017 1.07654 -3.52712e-20)
(-0.657154 1.59062 -2.83489e-20)
(-0.0420132 0.713292 -1.4312e-19)
(-0.305927 1.15499 5.20922e-20)
(0.237918 0.44475 -1.19291e-19)
(0.00666691 0.804328 -4.08914e-20)
(0.466834 0.256893 3.13432e-20)
(0.268868 0.537603 1.6346e-20)
(0.503242 0.343406 4.48626e-20)
(0.654706 0.136632 -1.23299e-19)
(-2.07382 4.15779 2.50503e-19)
(-2.05911 4.38828 1.78988e-18)
(-1.99249 3.88894 -2.8717e-19)
(-2.10454 4.03636 -1.00098e-18)
(-1.86845 3.57973 2.70447e-19)
(-1.96789 3.83873 1.80093e-19)
(-1.65733 3.16851 2.58805e-20)
(-1.77944 3.55147 -2.72055e-21)
(-1.3571 2.69093 -3.31476e-20)
(-1.51788 3.19611 1.89673e-20)
(-0.998614 2.18735 3.81322e-20)
(-1.20119 2.7653 -2.73276e-20)
(-0.628723 1.70352 7.36334e-21)
(-0.862169 2.29359 -5.44766e-20)
(-0.28618 1.27522 1.09181e-19)
(-0.532789 1.8269 6.24214e-20)
(0.0145855 0.922753 5.80436e-20)
(-0.23016 1.41155 6.31825e-20)
(0.275875 0.650907 4.54911e-20)
(0.0325671 1.07246 -4.58856e-21)
(0.307238 0.795016 -2.67518e-19)
(0.500474 0.420505 1.07815e-20)
(-2.09627 4.41201 6.24927e-19)
(-1.44868 3.54316 1.31472e-18)
(-2.0026 4.12431 -8.45882e-19)
(-1.55271 3.50885 -1.12506e-18)
(-1.87071 3.92326 -3.06002e-19)
(-1.3837 3.47992 2.67922e-20)
(-1.66459 3.66434 -2.09617e-20)
(-1.24579 3.4057 2.80775e-19)
(-1.39873 3.332 1.65065e-20)
(-1.09686 3.27822 -4.12511e-19)
(-1.09631 2.91575 -1.3088e-19)
(-0.930168 3.07181 1.7085e-19)
(-0.789192 2.45058 -2.94576e-20)
(-0.750829 2.78411 1.88676e-19)
(-0.503034 1.9907 -2.81126e-20)
(-0.549994 2.41874 4.3104e-20)
(-0.240268 1.57714 8.25659e-20)
(-0.338521 2.04636 1.16668e-20)
(-0.00734556 1.2322 2.59756e-19)
(-0.141725 1.70134 -3.02913e-19)
(0.0925211 1.34107 1.96537e-20)
(0.216312 1.02697 2.29051e-19)
(-1.24239 2.58365 -5.35408e-19)
(0.506828 1.48764 -1.04599e-18)
(-1.11016 2.76856 -5.22594e-19)
(0.402352 1.64582 2.54692e-19)
(-0.974658 2.84417 3.05337e-19)
(0.399438 1.61761 2.77259e-19)
(-0.859677 2.91102 5.59099e-22)
(0.356747 1.60183 1.58181e-19)
(-0.755336 2.93994 -1.54638e-20)
(0.326724 1.58982 -1.3698e-19)
(-0.648535 2.90318 6.92765e-20)
(0.318932 1.56521 2.2811e-20)
(-0.526283 2.76762 4.10091e-20)
(0.341542 1.52033 5.77904e-20)
(-0.376786 2.53298 -2.28067e-20)
(0.395751 1.44469 -1.42034e-20)
(-0.213087 2.24524 -2.51993e-20)
(0.450765 1.34936 3.38035e-19)
(-0.0579897 1.92957 4.34898e-19)
(0.494678 1.2449 3.52514e-19)
(0.53213 1.0998 1.79169e-20)
(0.123923 1.68014 1.17237e-20)
(-0.755732 4.3281 3.19079e-18)
(-1.70964 2.01624 1.77893e-18)
(0.146452 3.21009 -3.49551e-19)
(-0.944824 2.3904 -2.17011e-18)
(0.763092 2.52276 2.13159e-18)
(-0.0882241 2.34229 1.32776e-18)
(1.13236 2.01953 -2.72492e-19)
(0.530265 2.05916 3.46477e-19)
(1.3592 1.62471 -7.47889e-19)
(0.919143 1.72741 -1.01402e-18)
(1.49419 1.31558 -1.9716e-19)
(1.18292 1.43093 5.07041e-19)
(1.57834 1.07162 -4.5535e-19)
(1.3581 1.17255 -6.30466e-20)
(1.63691 0.878939 2.04148e-19)
(1.47599 0.95834 1.74685e-19)
(1.68325 0.727504 1.02718e-19)
(1.56145 0.786375 0)
(1.72427 0.608671 1.81402e-19)
(1.62694 0.652335 1.13424e-19)
(1.67634 0.554011 7.83287e-20)
(1.76081 0.514731 -4.4054e-20)
(-1.908 0.926923 -1.85146e-18)
(-2.48239 -0.306316 1.54326e-18)
(-1.25173 1.67858 -1.28304e-18)
(-1.44319 0.645652 7.4799e-20)
(-0.445152 1.81857 -2.29559e-19)
(-0.998103 1.05496 -4.45977e-19)
(0.224106 1.69727 4.77091e-19)
(-0.340614 1.30923 1.31267e-18)
(0.696746 1.48171 2.22812e-19)
(0.217202 1.35473 -2.37683e-19)
(1.01928 1.25405 4.25974e-19)
(0.655672 1.24316 -4.51717e-19)
(1.23597 1.04192 4.20195e-19)
(0.971346 1.07279 2.88836e-20)
(1.3858 0.859514 0)
(1.18931 0.897942 2.11193e-19)
(1.49372 0.710697 0)
(1.34556 0.745405 -1.52816e-19)
(1.57662 0.591934 9.02792e-20)
(1.45956 0.621292 0)
(1.53826 0.52641 2.36459e-19)
(1.64299 0.490485 -2.26873e-19)
(-1.60338 -0.286293 3.0274e-18)
(-2.03759 -1.03458 2.2122e-18)
(-1.4202 0.170693 6.37406e-19)
(-1.07396 -0.387507 5.61502e-19)
(-0.991803 0.61882 8.68883e-19)
(-1.11611 -0.0377164 -2.05584e-19)
(-0.46494 0.956508 6.95108e-19)
(-0.698171 0.421622 9.59061e-19)
(0.0946072 1.08576 -9.54015e-19)
(-0.267213 0.686059 -3.45284e-19)
(0.562259 1.04514 -1.10599e-18)
(0.191601 0.814685 -5.8274e-19)
(0.904339 0.925826 -3.16453e-19)
(0.587234 0.820084 -4.42638e-19)
(1.13929 0.787707 1.30756e-19)
(0.891236 0.752458 2.04557e-19)
(1.30454 0.661833 -1.67921e-19)
(1.11631 0.65517 2.65231e-19)
(1.42707 0.557746 1.18376e-19)
(1.28138 0.559487 6.61897e-20)
(1.39496 0.482462 1.33276e-19)
(1.51883 0.470352 1.41034e-19)
(-0.992703 -0.848643 0)
(-1.38789 -1.32464 0)
(-0.992584 -0.584752 -1.79722e-19)
(-0.471317 -0.881497 0)
(-0.871654 -0.205624 -2.2345e-19)
(-0.795122 -0.679495 -5.55669e-19)
(-0.604685 0.1634 0)
(-0.578552 -0.269968 -6.2766e-20)
(-0.243196 0.438105 1.99533e-20)
(-0.336648 0.0696785 -1.77684e-19)
(0.159114 0.591727 2.4995e-20)
(-0.0139143 0.314106 5.44948e-19)
(0.533565 0.637263 0)
(0.329773 0.451195 3.62164e-19)
(0.840564 0.611228 3.63691e-19)
(0.645067 0.49741 -8.07515e-20)
(1.07524 0.549068 5.25266e-19)
(0.905074 0.483358 1.38105e-19)
(1.25066 0.479487 7.33676e-20)
(1.10815 0.442369 -5.13711e-20)
(1.24994 0.396003 -8.88944e-20)
(1.38435 0.406431 -2.5836e-19)
(-0.452739 -1.14021 0)
(-0.812782 -1.4365 -5.10842e-20)
(-0.460462 -1.00997 -3.7707e-19)
(0.0476978 -1.12192 4.40872e-20)
(-0.466624 -0.703956 -6.57165e-19)
(-0.364797 -1.04307 -7.20741e-19)
(-0.37991 -0.371278 -1.43708e-19)
(-0.246491 -0.701425 1.5543e-19)
(-0.178629 -0.0684521 2.95832e-19)
(-0.156967 -0.40596 8.8906e-20)
(0.0901566 0.162191 8.70752e-19)
(0.0391166 -0.126885 1.95504e-19)
(0.387699 0.302112 3.00253e-19)
(0.283792 0.0754179 4.61318e-19)
(0.669922 0.363803 -3.76087e-19)
(0.542864 0.202407 -1.74073e-19)
(0.911656 0.372371 -4.86268e-19)
(0.781599 0.26399 -2.4343e-19)
(1.10773 0.354685 -2.49358e-19)
(0.98533 0.282208 -1.19463e-19)
(1.13558 0.277836 -3.75137e-20)
(1.26253 0.325724 -4.59921e-19)
(-0.0279904 -1.26018 -6.90834e-19)
(-0.35293 -1.43312 -4.53716e-20)
(-0.00921487 -1.22678 -2.18643e-19)
(0.432342 -1.22302 6.88073e-20)
(-0.0626803 -0.997708 -3.09778e-19)
(0.026249 -1.22085 -3.12396e-19)
(-0.0625846 -0.729879 4.2753e-19)
(0.110157 -0.935642 4.83724e-19)
(0.0243681 -0.458656 -6.36099e-20)
(0.104595 -0.708932 -3.36543e-19)
(0.184165 -0.21202 -1.76112e-19)
(0.208257 -0.453371 -5.82165e-20)
(0.391386 -0.0224601 7.28216e-20)
(0.36143 -0.234252 1.40393e-19)
(0.61099 0.10223 -1.73138e-20)
(0.549191 -0.062559 -7.80106e-20)
(0.823986 0.172563 1.06829e-19)
(0.741685 0.0442297 1.6086e-19)
(1.01073 0.203583 1.03172e-19)
(0.91968 0.110472 -9.12828e-20)
(1.05593 0.144413 6.0751e-20)
(1.16687 0.211439 9.88706e-20)
(0.296847 -1.27363 2.94289e-20)
(0.00532971 -1.35595 -2.39927e-21)
(0.34511 -1.30922 6.25333e-19)
(0.706221 -1.24949 2.53836e-20)
(0.283624 -1.1397 2.2676e-19)
(0.344627 -1.2976 -6.8931e-21)
(0.247481 -0.932666 -2.9516e-19)
(0.424816 -1.04282 2.67074e-19)
(0.273925 -0.70827 -3.69293e-19)
(0.363997 -0.887517 -5.39924e-19)
(0.350719 -0.48108 2.88936e-19)
(0.417237 -0.662135 2.77556e-19)
(0.478774 -0.283181 1.38211e-20)
(0.498519 -0.45792 2.00861e-20)
(0.639654 -0.127106 9.84094e-20)
(0.621616 -0.280207 -1.33439e-19)
(0.80418 -0.0173123 -3.94262e-20)
(0.763947 -0.143778 2.17388e-19)
(0.960817 0.0539987 -1.54027e-19)
(0.905694 -0.0474718 -1.61465e-19)
(1.01971 0.0144201 -4.56686e-20)
(1.09867 0.104184 6.84219e-20)
(0.537831 -1.24668 -6.31515e-21)
(0.293232 -1.27843 -7.24115e-20)
(0.613515 -1.32502 1.36811e-21)
(0.903939 -1.24733 4.96807e-19)
(0.560554 -1.19768 1.68268e-21)
(0.594484 -1.32528 -8.82459e-20)
(0.521774 -1.02997 -3.66636e-21)
(0.68976 -1.09236 -1.72074e-19)
(0.513208 -0.850937 1.00893e-20)
(0.592362 -0.977034 -1.35607e-19)
(0.541169 -0.654137 3.60797e-20)
(0.622984 -0.784657 -1.65048e-20)
(0.611475 -0.467536 -1.07458e-19)
(0.656346 -0.606068 2.87235e-20)
(0.714226 -0.306321 -1.57256e-20)
(0.728951 -0.436605 -9.91356e-20)
(0.834285 -0.17993 1.06798e-19)
(0.824356 -0.293241 5.51464e-20)
(0.958408 -0.0873594 -8.21669e-20)
(0.929643 -0.182354 5.41388e-20)
(1.01837 -0.105162 -7.09313e-21)
(1.07569 -0.0164106 -1.71713e-19)
(0.730846 -1.21259 3.75975e-19)
(0.526587 -1.19701 -1.45748e-19)
(0.833366 -1.30511 7.12709e-19)
(1.07967 -1.25357 5.9092e-19)
(0.770535 -1.21504 -3.99525e-19)
(0.789525 -1.28901 -9.07552e-20)
(0.741899 -1.07793 -1.69509e-19)
(0.905375 -1.1158 9.36417e-20)
(0.720513 -0.925461 -1.08897e-19)
(0.792998 -1.02068 -1.94571e-19)
(0.723577 -0.757573 3.02839e-21)
(0.808205 -0.852048 8.11575e-21)
(0.755628 -0.589991 4.66019e-20)
(0.811331 -0.696559 4.07719e-21)
(0.814544 -0.435666 -8.7785e-21)
(0.848029 -0.540651 3.89489e-20)
(0.893358 -0.305254 1.118e-20)
(0.90533 -0.401443 -8.73152e-20)
(0.981483 -0.20192 1.23113e-19)
(0.97693 -0.285931 1.98851e-21)
(1.03839 -0.200581 5.99187e-20)
(1.06581 -0.112737 -2.16782e-19)
(0.897163 -1.17505 -8.67703e-21)
(0.698711 -1.11776 -5.23195e-19)
(1.00675 -1.28478 9.74069e-20)
(1.24304 -1.22961 -7.94395e-20)
(0.962647 -1.1936 2.47075e-19)
(0.972855 -1.26767 4.86581e-19)
(0.932946 -1.0889 3.6107e-19)
(1.07432 -1.10607 -3.18191e-19)
(0.900225 -0.956989 -3.219e-20)
(0.968058 -1.02751 1.97643e-19)
(0.887842 -0.812701 6.08736e-20)
(0.971266 -0.88108 1.35542e-19)
(0.894814 -0.663919 -2.01701e-20)
(0.954463 -0.745472 -1.02118e-19)
(0.922464 -0.521288 -2.57861e-20)
(0.965927 -0.603918 -6.42626e-20)
(0.968153 -0.394903 -4.76151e-20)
(0.993852 -0.473422 -6.23229e-20)
(1.02631 -0.289892 -5.06748e-20)
(1.03751 -0.360481 -4.53228e-20)
(1.0773 -0.275634 1.14849e-20)
(1.08684 -0.194273 1.06127e-20)
(1.05557 -1.1042 -6.57201e-19)
(0.819446 -1.03632 6.82248e-19)
(1.17023 -1.24219 2.35301e-19)
(1.37147 -1.16883 -9.65696e-19)
(1.12196 -1.16394 -1.65328e-19)
(1.13104 -1.2184 3.36122e-19)
(1.09413 -1.07476 -5.13055e-19)
(1.22003 -1.08063 -6.89105e-19)
(1.0563 -0.959233 3.80124e-19)
(1.11859 -1.01191 -7.96489e-20)
(1.0333 -0.833918 4.36197e-20)
(1.11338 -0.882731 2.73439e-19)
(1.02269 -0.70178 -1.57469e-19)
(1.08295 -0.764034 8.24181e-20)
(1.02778 -0.571993 -1.0111e-19)
(1.07631 -0.636195 1.05256e-20)
(1.04833 -0.453648 -2.72149e-20)
(1.08164 -0.516308 -6.37919e-20)
(1.0822 -0.352959 1.06233e-20)
(1.10277 -0.409603 3.82743e-20)
(1.12624 -0.326852 -4.7174e-20)
(1.12016 -0.261993 -1.15632e-20)
(1.16785 -1.03448 1.49366e-19)
(0.920108 -0.961544 -4.071e-20)
(1.30286 -1.18733 -1.01073e-18)
(1.48572 -1.10985 1.30306e-19)
(1.26111 -1.12015 -2.50119e-19)
(1.26361 -1.16324 1.9598e-21)
(1.23222 -1.04332 -4.0699e-19)
(1.34588 -1.03878 -8.94953e-20)
(1.19119 -0.940992 -1.75766e-19)
(1.24749 -0.980029 6.86328e-20)
(1.16076 -0.83076 3.51308e-19)
(1.23649 -0.86417 -2.67513e-20)
(1.1373 -0.713002 2.61033e-19)
(1.19599 -0.759849 6.9842e-20)
(1.12546 -0.595776 7.69401e-20)
(1.17593 -0.64463 -6.31438e-20)
(1.12638 -0.486995 -5.27063e-21)
(1.16353 -0.536083 -3.10011e-20)
(1.13957 -0.393102 6.13281e-20)
(1.16563 -0.437421 -5.58902e-20)
(1.1728 -0.360483 -1.00266e-20)
(1.15489 -0.303024 -1.37543e-20)
(1.26798 -0.958661 -5.90637e-20)
(1.01168 -0.880329 -1.99114e-18)
(1.41597 -1.12612 1.15682e-18)
(1.58916 -1.03783 9.27026e-19)
(1.37956 -1.06719 1.68388e-19)
(1.37849 -1.10269 -1.40612e-20)
(1.35089 -0.999201 3.71366e-19)
(1.45525 -0.985917 -1.97177e-19)
(1.30722 -0.907444 2.31545e-19)
(1.35783 -0.93585 4.38045e-19)
(1.27111 -0.809528 -3.16867e-19)
(1.34235 -0.830523 -2.06089e-19)
(1.23769 -0.704273 -2.37501e-19)
(1.29364 -0.738664 -1.00022e-19)
(1.21257 -0.599004 -1.57585e-19)
(1.263 -0.634919 1.43128e-19)
(1.19758 -0.500585 -7.90146e-20)
(1.23612 -0.537823 -1.85123e-19)
(1.19452 -0.414851 -8.74847e-20)
(1.22269 -0.44892 1.47412e-19)
(1.21278 -0.379319 -1.09896e-19)
(1.19755 -0.342036 5.70238e-20)
(1.35793 -0.863885 -8.91658e-19)
(1.07264 -0.769319 -1.29159e-18)
(1.51521 -1.05115 -1.50384e-19)
(1.66792 -0.946891 -8.86384e-19)
(1.4825 -1.00431 -3.6154e-19)
(1.47634 -1.03087 5.34228e-19)
(1.45298 -0.944815 -2.72036e-19)
(1.54736 -0.92367 -6.64916e-19)
(1.40677 -0.862101 2.91874e-20)
(1.45284 -0.880717 3.50551e-19)
(1.36569 -0.77486 0)
(1.43205 -0.785202 1.79215e-19)
(1.32388 -0.680789 2.50832e-19)
(1.37682 -0.70394 -1.65731e-19)
(1.28762 -0.58683 1.59029e-19)
(1.33686 -0.61118 2.8136e-19)
(1.25908 -0.499055 -1.14922e-20)
(1.29763 -0.525443 -1.85821e-19)
(1.24099 -0.422818 1.84048e-19)
(1.27069 -0.446872 3.43859e-19)
(1.24845 -0.387615 -1.92267e-19)
(1.22728 -0.351846 -1.09907e-19)
(1.42107 -0.763736 -1.33931e-18)
(1.13093 -0.664288 -1.15908e-18)
(1.59452 -0.967783 -6.02858e-19)
(1.72904 -0.854154 -1.11369e-18)
(1.56938 -0.932853 3.53604e-19)
(1.56048 -0.951596 8.72114e-19)
(1.53931 -0.880922 -2.23309e-19)
(1.6229 -0.854634 -2.22548e-19)
(1.4912 -0.806058 5.16097e-19)
(1.53426 -0.815603 1.55188e-19)
(1.44518 -0.728167 8.2421e-20)
(1.50628 -0.730081 3.99502e-19)
(1.39597 -0.644435 -1.8373e-19)
(1.44611 -0.657626 -3.0853e-19)
(1.34994 -0.561723 0)
(1.3971 -0.576023 0)
(1.30969 -0.485133 9.35093e-20)
(1.34712 -0.501798 0)
(1.27842 -0.419821 6.37099e-20)
(1.30747 -0.434646 1.05325e-19)
(1.27262 -0.384618 -1.43162e-19)
(1.25132 -0.364512 1.18661e-20)
(1.47216 -0.659865 -9.38991e-19)
(1.18246 -0.554677 -1.96699e-18)
(1.65824 -0.878007 -9.79218e-20)
(1.77558 -0.753488 1.01609e-18)
(1.64175 -0.854593 4.02542e-19)
(1.63363 -0.863484 1.71632e-19)
(1.61134 -0.80933 1.14133e-19)
(1.6846 -0.778857 2.3635e-19)
(1.56153 -0.741229 1.23057e-20)
(1.60281 -0.741812 -1.64149e-19)
(1.51033 -0.67174 1.1492e-19)
(1.56593 -0.666239 1.08975e-19)
(1.45407 -0.59791 -1.54763e-19)
(1.50127 -0.601679 -2.77797e-19)
(1.39886 -0.526577 0)
(1.44321 -0.531625 8.54529e-20)
(1.3478 -0.461731 0)
(1.38359 -0.469332 -1.99138e-19)
(1.30436 -0.408097 -5.75556e-20)
(1.33216 -0.414723 7.19371e-20)
(1.28639 -0.376212 -1.32488e-19)
(1.26543 -0.363653 1.77914e-19)
(1.51492 -0.545738 1.51878e-19)
(1.21729 -0.433495 -1.99435e-18)
(1.70976 -0.777134 1.36715e-18)
(1.80381 -0.638889 2.9168e-19)
(1.7018 -0.76736 0)
(1.69335 -0.762848 1.49327e-18)
(1.67057 -0.72945 0)
(1.73261 -0.694139 -1.09923e-18)
(1.61834 -0.668115 -9.61732e-20)
(1.6579 -0.659074 4.35582e-19)
(1.56129 -0.606693 -2.42333e-19)
(1.61116 -0.593856 3.95387e-21)
(1.49787 -0.542982 -7.67428e-20)
(1.54163 -0.537483 -2.46444e-19)
(1.43389 -0.483538 -8.27524e-20)
(1.47464 -0.479805 1.86512e-19)
(1.37286 -0.4312 -1.68138e-19)
(1.40642 -0.430309 -8.94838e-20)
(1.31797 -0.38985 2.00797e-20)
(1.34454 -0.388986 7.23427e-20)
(1.28587 -0.362133 -6.7982e-20)
(1.26723 -0.362492 -7.46879e-20)
(1.54199 -0.421074 -1.61215e-18)
(1.24039 -0.305225 4.04908e-20)
(1.74551 -0.663269 4.54118e-20)
(1.81431 -0.510962 -2.25967e-20)
(1.7479 -0.668999 5.30469e-19)
(1.7375 -0.648173 6.36088e-19)
(1.71633 -0.639765 -8.65772e-19)
(1.7659 -0.598194 -9.61836e-19)
(1.66098 -0.58624 5.78937e-19)
(1.69757 -0.566494 4.24984e-19)