/*--------------------------------*- C++ -*----------------------------------*\
| =========                 |                                                 |
| \\      /  F ield         | OpenFOAM: The Open Source CFD Toolbox           |
|  \\    /   O peration     | Version:  3.0.1                                 |
|   \\  /    A nd           | Web:      www.OpenFOAM.org                      |
|    \\/     M anipulation  |                                                 |
\*---------------------------------------------------------------------------*/
FoamFile
{
    version     2.0;
    format      ascii;
    class       volVectorField;
    location    "0.283254";
    object      U;
}
// * * * * * * * * * * * * * * * * * * * * * * * * * * * * * * * * * * * * * //

dimensions      [0 1 -1 0 0 0 0];

internalField   nonuniform List<vector> 
21246
(
(6.31766 -1.38289 0)
(5.76063 -1.3857 -8.35753e-20)
(5.46072 -1.17716 5.54861e-20)
(5.23407 -0.975457 -1.94036e-20)
(5.00897 -0.801974 0)
(4.78714 -0.658319 0)
(4.58073 -0.543131 0)
(4.38906 -0.452212 -1.09615e-19)
(4.20827 -0.38034 2.0286e-19)
(4.03966 -0.325688 1.69298e-19)
(3.88774 -0.297609 -6.24322e-20)
(4.98656 -2.59524 0)
(5.02141 -2.29987 0)
(5.02128 -1.93726 2.79176e-19)
(4.95562 -1.59131 -9.2965e-20)
(4.83464 -1.29861 -5.32125e-20)
(4.67831 -1.06154 4.10346e-20)
(4.50759 -0.873809 0)
(4.33596 -0.726311 0)
(4.16898 -0.61045 -2.1103e-19)
(4.00994 -0.521805 -1.22877e-19)
(3.8644 -0.46518 -2.61821e-19)
(3.92341 -2.86308 0)
(4.26261 -2.60896 0)
(4.4417 -2.35676 -7.10951e-19)
(4.5338 -2.04504 5.58376e-19)
(4.54033 -1.73189 0)
(4.47883 -1.44658 0)
(4.37214 -1.20293 1.765e-19)
(4.24144 -1.00284 -2.36428e-19)
(4.10164 -0.841352 1.77051e-19)
(3.96239 -0.712908 4.93192e-20)
(3.83058 -0.621309 0)
(3.21301 -2.74911 0)
(3.58955 -2.616 -1.10509e-18)
(3.86682 -2.49251 1.30445e-18)
(4.06294 -2.27708 -5.92286e-19)
(4.1693 -2.01443 3.90112e-19)
(4.19847 -1.74088 -4.19687e-19)
(4.16704 -1.48238 2.82082e-20)
(4.09466 -1.25311 2.34286e-19)
(3.99673 -1.05885 -9.1467e-20)
(3.88117 -0.904722 0)
(3.76383 -0.786642 0)
(2.92664 -2.62755 -3.79845e-18)
(3.17728 -2.5254 1.90127e-18)
(3.37074 -2.48253 1.56876e-18)
(3.58953 -2.35991 -1.12107e-18)
(3.76597 -2.17207 -7.79526e-19)
(3.86978 -1.94149 1.04489e-18)
(3.90262 -1.69871 -4.34732e-19)
(3.88107 -1.46647 0)
(3.82451 -1.25485 8.98652e-20)
(3.74971 -1.06619 0)
(3.66081 -0.917691 -6.13106e-20)
(2.76467 -2.4971 0)
(2.95836 -2.41183 1.73229e-18)
(3.08336 -2.40438 -1.3116e-18)
(3.24816 -2.32968 0)
(3.40187 -2.20251 7.58544e-19)
(3.52557 -2.02556 -5.25113e-19)
(3.60582 -1.8172 -4.17244e-19)
(3.63969 -1.59882 3.12425e-19)
(3.63311 -1.38764 3.97257e-19)
(3.59736 -1.1946 -2.20987e-19)
(3.54184 -1.03487 -2.21823e-20)
(2.6476 -2.37217 -1.79038e-18)
(2.7827 -2.29671 1.34923e-18)
(2.8734 -2.30162 0)
(3.00959 -2.24237 0)
(3.13906 -2.15236 0)
(3.25506 -2.01839 -7.07891e-20)
(3.34508 -1.84924 0)
(3.40253 -1.66037 0)
(3.42746 -1.46731 0)
(3.42439 -1.28308 -6.98765e-20)
(3.39568 -1.12356 0)
(2.52438 -2.28904 -1.655e-18)
(2.63184 -2.19728 1.1845e-18)
(2.70827 -2.19459 0)
(2.81422 -2.14799 -1.99743e-19)
(2.92244 -2.07491 0)
(3.02578 -1.96796 1.03286e-18)
(3.11517 -1.83025 -1.04111e-20)
(3.18415 -1.67078 -2.05951e-20)
(3.23018 -1.50055 -2.29815e-20)
(3.25336 -1.3322 2.60603e-19)
(3.25175 -1.18537 -2.75223e-20)
(2.41011 -2.21366 1.36182e-18)
(2.50631 -2.1105 -9.64194e-19)
(2.56611 -2.09983 0)
(2.65347 -2.05679 1.92347e-19)
(2.74479 -1.99196 0)
(2.83502 -1.90068 0)
(2.91851 -1.78428 0)
(2.99056 -1.64806 5.34076e-19)
(3.04795 -1.49894 -7.84857e-19)
(3.08825 -1.34643 1.60443e-20)
(3.10628 -1.20865 1.63516e-20)
(2.31268 -2.1412 -1.26015e-18)
(2.39747 -2.02917 1.04985e-18)
(2.44235 -2.01362 2.91774e-20)
(2.51594 -1.9712 -4.92735e-19)
(2.59402 -1.91056 5.44627e-19)
(2.67304 -1.82832 -2.1456e-19)
(2.74964 -1.72542 0)
(2.8206 -1.60549 -4.87321e-19)
(2.88299 -1.47276 7.20499e-19)
(2.93309 -1.33363 -1.05233e-18)
(2.96194 -1.20278 3.78317e-19)
(2.23021 -2.07927 0)
(2.2992 -1.95668 1.06589e-18)
(2.33123 -1.93506 -1.50011e-18)
(2.39369 -1.89095 4.37189e-19)
(2.46118 -1.83163 0)
(2.53118 -1.75423 -2.01614e-19)
(2.60162 -1.65966 -3.14428e-19)
(2.67034 -1.55083 1.39826e-18)
(2.73514 -1.43069 -1.02874e-18)
(2.79231 -1.30433 5.05781e-19)
(2.83088 -1.18864 3.45323e-19)
(2.14844 -2.02464 5.29378e-19)
(2.20096 -1.89258 -6.10534e-21)
(2.22529 -1.86268 6.9749e-19)
(2.28014 -1.81461 -2.76345e-19)
(2.33995 -1.7542 0)
(2.40327 -1.6786 0)
(2.46904 -1.58874 2.66978e-19)
(2.53591 -1.48726 -4.35672e-19)
(2.60233 -1.3764 1.26265e-18)
(2.66493 -1.2599 -9.03821e-19)
(2.71179 -1.15183 0)
(2.06319 -1.96605 0)
(2.10294 -1.82768 -1.03086e-19)
(2.12223 -1.79092 0)
(2.17165 -1.73892 -6.56026e-19)
(2.22603 -1.67641 4.0195e-19)
(2.28485 -1.60067 -3.1026e-19)
(2.34775 -1.51292 -2.63035e-19)
(2.41396 -1.41575 3.5163e-19)
(2.48234 -1.31096 0)
(2.54969 -1.20049 1.2466e-18)
(2.60221 -1.09424 -9.5434e-21)
(1.98329 -1.9084 -4.77562e-19)
(2.01012 -1.76112 6.3416e-19)
(2.02264 -1.71791 7.34618e-19)
(2.06678 -1.66186 -4.72034e-19)
(2.11689 -1.59646 3.75881e-19)
(2.1729 -1.5192 1.56182e-20)
(2.23472 -1.43169 -2.38741e-19)
(2.30175 -1.33683 -7.08506e-19)
(2.37292 -1.23643 5.53759e-21)
(2.445 -1.13178 -2.03627e-19)
(2.50241 -1.03385 -2.69539e-19)
(1.90255 -1.85346 -5.39545e-19)
(1.91417 -1.69609 1.73728e-19)
(1.92259 -1.64368 -8.192e-19)
(1.96339 -1.58175 -2.20193e-19)
(2.01098 -1.51207 3.37088e-19)
(2.06601 -1.43192 0)
(2.1287 -1.3433 -4.06419e-19)
(2.19849 -1.24958 3.09666e-19)
(2.27396 -1.15286 2.25772e-19)
(2.35179 -1.05378 -1.6916e-19)
(2.41564 -0.960551 0)
(1.81811 -1.7893 5.17178e-19)
(1.81539 -1.62484 -1.61645e-19)
(1.82179 -1.56354 -3.11749e-19)
(1.86059 -1.49545 5.86063e-19)
(1.90721 -1.4206 0)
(1.96322 -1.33652 0)
(2.02908 -1.24589 -8.18335e-20)
(2.10399 -1.15284 0)
(2.18576 -1.06001 0)
(2.27071 -0.967339 4.1797e-19)
(2.34129 -0.88091 -2.12769e-19)
(1.73665 -1.71855 2.25036e-20)
(1.71908 -1.54597 7.85492e-20)
(1.72193 -1.47554 -5.6387e-19)
(1.75844 -1.4006 2.5739e-19)
(1.80515 -1.3195 -2.63177e-19)
(1.86425 -1.2304 4.62614e-21)
(1.93609 -1.13725 3.00194e-19)
(2.01901 -1.04532 0)
(2.10925 -0.95782 -7.14011e-20)
(2.20231 -0.873773 4.09792e-20)
(2.27922 -0.796679 -8.23757e-21)
(1.65652 -1.64522 3.27831e-19)
(1.62064 -1.46231 2.58595e-19)
(1.62049 -1.37936 -7.35331e-19)
(1.65607 -1.29481 2.06923e-20)
(1.70508 -1.20526 2.25025e-19)
(1.77038 -1.11001 1.56522e-19)
(1.85184 -1.01462 -1.86344e-19)
(1.94614 -0.925564 0)
(2.04699 -0.846248 1.9584e-19)
(2.14882 -0.774056 -1.45244e-19)
(2.23194 -0.708374 -8.04364e-21)
(1.57583 -1.56026 3.11916e-19)
(1.5185 -1.36864 -2.38581e-19)
(1.51717 -1.27006 -1.1609e-20)
(1.55385 -1.17338 2.79429e-21)
(1.60859 -1.07349 1.51019e-19)
(1.68442 -0.971598 -1.15671e-19)
(1.78057 -0.875099 0)
(1.88955 -0.792813 0)
(2.00224 -0.726378 0)
(2.11234 -0.670257 0)
(2.20073 -0.618866 7.81298e-20)
(1.49547 -1.4577 0)
(1.41334 -1.2584 1.63476e-20)
(1.41443 -1.13986 1.85864e-19)
(1.45627 -1.02825 -2.77524e-19)
(1.52268 -0.916728 9.42035e-20)
(1.61567 -0.80973 0)
(1.73059 -0.717659 0)
(1.85621 -0.648557 1.75488e-20)
(1.97967 -0.601107 -1.14908e-20)
(2.09422 -0.565926 0)
(2.18472 -0.531816 -2.1974e-20)
(1.41613 -1.33594 1.69528e-19)
(1.30806 -1.12109 -1.7953e-20)
(1.31745 -0.979235 3.44651e-20)
(1.37262 -0.850879 -2.00236e-20)
(1.45915 -0.72939 2.77779e-20)
(1.57646 -0.623316 2.81457e-20)
(1.71366 -0.544719 2.19454e-20)
(1.85449 -0.498129 -5.9785e-20)
(1.98394 -0.4767 2.39758e-21)
(2.09632 -0.466734 -1.45924e-20)
(2.18373 -0.453064 0)
(1.36031 -1.12359 6.19743e-20)
(1.19918 -0.945039 -5.1181e-20)
(1.24549 -0.774489 1.29926e-19)
(1.32378 -0.633141 1.26935e-21)
(1.43956 -0.510346 -1.52916e-19)
(1.58583 -0.418461 2.62988e-20)
(1.74318 -0.366924 7.70668e-21)
(1.8916 -0.352814 5.08597e-20)
(2.01769 -0.362602 0)
(2.11911 -0.379405 6.02585e-20)
(2.19697 -0.387277 0)
(1.22149 -1.13825 4.6105e-19)
(1.17463 -0.759669 -4.38282e-19)
(1.21534 -0.551508 0)
(1.33698 -0.393218 -1.12513e-19)
(1.49226 -0.281886 3.11681e-19)
(1.66419 -0.221239 0)
(1.82915 -0.208833 1.09834e-19)
(1.97022 -0.231557 -4.11286e-20)
(2.08014 -0.271522 8.87128e-20)
(2.16086 -0.311593 -1.19084e-19)
(2.21866 -0.33654 0)
(1.76338 -0.0105076 1.18982e-19)
(1.18167 -0.20784 1.64122e-19)
(1.45856 -0.0623822 0)
(1.59997 -0.0151282 -4.68739e-19)
(1.74112 -0.00148642 -9.76322e-19)
(1.88344 -0.0207855 0)
(2.00755 -0.0705135 5.93055e-19)
(2.10619 -0.136935 -2.95898e-19)
(2.17717 -0.20709 -1.69208e-19)
(2.22286 -0.268086 1.97005e-19)
(2.25212 -0.307975 0)
(5.70583 -0.652485 -5.6817e-19)
(4.90736 -0.517253 9.21267e-20)
(5.12337 -0.502896 -6.11142e-20)
(5.24521 -0.463644 1.85212e-19)
(5.15209 -0.389097 0)
(4.94592 -0.312031 0)
(4.70208 -0.250084 0)
(4.47499 -0.201433 -6.673e-20)
(4.26477 -0.159282 1.3523e-19)
(4.0744 -0.132785 -8.70127e-20)
(3.90457 -0.130735 9.14899e-20)
(4.43959 -1.59272 -2.11923e-18)
(4.17335 -1.04647 -2.96454e-19)
(4.52962 -0.618205 8.68172e-19)
(4.84505 -0.358149 -4.69399e-19)
(4.97695 -0.176055 0)
(4.95627 -0.0431322 -2.19639e-19)
(4.81561 0.0371613 6.14131e-20)
(4.59057 0.0737936 -2.03793e-19)
(4.32201 0.0847892 1.50167e-20)
(4.09985 0.0831242 0)
(3.90129 0.0636511 0)
(4.21229 -4.33366 0)
(4.16652 -2.4672 -3.99412e-19)
(4.28053 -1.40413 2.77812e-19)
(4.50826 -0.738391 6.6517e-19)
(4.71156 -0.278618 -7.49622e-19)
(4.81584 0.0438171 2.13412e-19)
(4.79301 0.247353 2.10762e-19)
(4.64545 0.346458 3.74968e-19)
(4.39859 0.363389 -1.42131e-19)
(4.11313 0.331254 0)
(3.89673 0.285739 -5.33077e-20)
(4.58624 -4.1941 1.92125e-18)
(4.34461 -3.82326 -1.36831e-18)
(4.23775 -2.51032 1.18651e-18)
(4.33926 -1.46394 0)
(4.50745 -0.682927 2.47783e-19)
(4.64291 -0.100822 0)
(4.68712 0.304946 -4.8789e-19)
(4.61216 0.545936 -4.2121e-19)
(4.41773 0.638417 -8.9613e-20)
(4.13572 0.616565 0)
(3.86358 0.531952 0)
(4.77488 -4.38611 2.48889e-18)
(4.62923 -4.1229 -1.90386e-19)
(4.46791 -3.57281 -3.62229e-19)
(4.35694 -2.38341 0)
(4.41721 -1.31305 -1.23853e-18)
(4.5146 -0.453723 9.09759e-19)
(4.56469 0.194816 1.84214e-19)
(4.52231 0.63206 1.75879e-19)
(4.36975 0.86159 2.93215e-19)
(4.11172 0.906365 -9.60756e-20)
(3.82438 0.821871 5.54516e-20)
(4.97117 -4.62705 -2.37073e-18)
(4.91271 -4.34715 -1.15656e-19)
(4.75469 -3.94013 -2.43729e-18)
(4.59318 -3.24181 1.81534e-18)
(4.4715 -2.07578 0)
(4.46209 -0.975656 1.05866e-18)
(4.46157 -0.073168 -1.56317e-18)
(4.40551 0.591547 5.62858e-19)
(4.26348 1.00184 -7.59313e-20)
(4.02533 1.16257 -3.88988e-20)
(3.72142 1.11926 -5.37969e-20)
(5.14489 -4.8811 -5.00031e-18)
(5.17031 -4.59379 3.73604e-18)
(5.02725 -4.23053 0)
(4.85644 -3.66486 2.24707e-18)
(4.65758 -2.78491 -1.65339e-18)
(4.50057 -1.59556 -1.61939e-18)
(4.39658 -0.478232 1.04476e-18)
(4.27917 0.421303 3.87165e-19)
(4.10855 1.03876 0)
(3.86907 1.35333 1.27501e-19)
(3.57986 1.39254 -3.21486e-19)
(5.29817 -5.11831 5.22556e-18)
(5.38578 -4.8368 -7.13515e-18)
(5.24797 -4.51664 2.95917e-18)
(5.08423 -4.00164 6.27206e-19)
(4.86568 -3.27943 5.07228e-19)
(4.60441 -2.19256 3.38852e-19)
(4.37443 -0.967841 -2.90254e-18)
(4.1534 0.132282 2.24824e-18)
(3.91354 0.960479 1.11347e-18)
(3.63945 1.45076 -1.7031e-18)
(3.36052 1.61418 0)
(5.43546 -5.3306 -5.75767e-18)
(5.56307 -5.05924 3.46689e-18)
(5.41674 -4.7871 -2.37769e-18)
(5.25544 -4.3119 1.22979e-18)
(5.02393 -3.66153 -4.8009e-19)
(4.72386 -2.75699 3.48012e-18)
(4.37632 -1.50392 -5.5695e-19)
(4.02549 -0.261794 1.07611e-18)
(3.68285 0.756749 -1.48443e-18)
(3.34996 1.42762 3.70611e-18)
(3.04148 1.72239 -2.6422e-18)
(5.55215 -5.50601 6.17366e-19)
(5.70108 -5.25151 0)
(5.53355 -5.03153 2.59962e-18)
(5.36959 -4.60289 -2.0056e-18)
(5.12564 -4.01785 -3.51009e-18)
(4.78731 -3.20653 3.71862e-18)
(4.3591 -2.04424 -4.47789e-18)
(3.88505 -0.733949 2.57263e-18)
(3.41703 0.424803 1.6556e-18)
(2.99939 1.25496 -4.43231e-18)
(2.65603 1.68581 1.60748e-18)
(5.62964 -5.63412 6.48966e-19)
(5.79198 -5.41275 0)
(5.59536 -5.24108 0)
(5.42132 -4.8666 0)
(5.15823 -4.36018 1.15389e-18)
(4.79504 -3.64443 1.94686e-18)
(4.29804 -2.63282 1.80007e-18)
(3.72092 -1.28831 -2.56929e-18)
(3.11992 -0.0385538 -1.91545e-18)
(2.60524 0.920067 1.41925e-18)
(2.21344 1.48162 1.76355e-18)
(5.65292 -5.74626 2.56875e-18)
(5.81324 -5.55451 0)
(5.60426 -5.40835 8.76493e-19)
(5.41046 -5.09862 -4.5365e-18)
(5.12346 -4.67771 2.40732e-18)
(4.73676 -4.06836 0)
(4.19325 -3.19277 -1.77231e-18)
(3.53281 -1.90334 -3.00493e-18)
(2.80618 -0.623027 8.72483e-18)
(2.19766 0.417208 -3.1381e-18)
(1.77207 1.07855 1.20986e-19)
(5.65017 -5.82006 4.58559e-18)
(5.7783 -5.64937 -8.38687e-18)
(5.55699 -5.5359 2.52833e-18)
(5.33124 -5.29637 -1.61246e-18)
(5.01578 -4.96092 3.70794e-18)
(4.5993 -4.47263 -4.59818e-18)
(4.0308 -3.76464 -2.95421e-19)
(3.29252 -2.634 3.03211e-18)
(2.48951 -1.3281 -9.10223e-18)
(1.79001 -0.261756 3.30942e-18)
(1.36341 0.489173 -1.88359e-18)
(5.60656 -5.83647 2.59075e-18)
(5.67564 -5.70298 2.63607e-19)
(5.44481 -5.62494 -4.08912e-18)
(5.18295 -5.45103 -3.00854e-18)
(4.83537 -5.19935 3.73309e-18)
(4.388 -4.83479 2.4619e-18)
(3.81372 -4.31294 -3.54561e-18)
(3.02813 -3.43611 6.11531e-18)
(2.19137 -2.11992 2.53246e-20)
(1.44341 -1.07087 2.99755e-18)
(0.995772 -0.256316 0)
(5.50498 -5.8044 -4.18571e-18)
(5.50304 -5.72105 4.10248e-18)
(5.25888 -5.67962 -2.46139e-18)
(4.96389 -5.57334 3.23084e-18)
(4.58552 -5.40534 1.11156e-18)
(4.11184 -5.14643 -1.92818e-18)
(3.52866 -4.75877 -1.92243e-18)
(2.82465 -4.16229 -1.9355e-19)
(2.04298 -3.1136 2.09538e-18)
(1.20362 -1.93166 -4.58014e-18)
(0.738946 -1.10737 3.11625e-18)
(5.33952 -5.71842 -5.3568e-18)
(5.25888 -5.6888 -1.06417e-18)
(4.99423 -5.69196 5.062e-18)
(4.67156 -5.66184 -2.98308e-18)
(4.27613 -5.58998 2.08039e-18)
(3.8052 -5.44631 -3.61106e-18)
(3.25625 -5.18863 1.3217e-18)
(2.62209 -4.74542 0)
(1.91661 -3.9951 0)
(1.20208 -2.97029 2.29478e-18)
(0.684668 -2.00379 -3.30351e-18)
(5.08778 -5.56852 7.06267e-19)
(4.92923 -5.59279 4.06354e-19)
(4.63944 -5.65235 6.75237e-19)
(4.29814 -5.71065 0)
(3.90531 -5.749 -5.79383e-19)
(3.46798 -5.73209 0)
(2.99323 -5.61236 -2.70943e-18)
(2.4783 -5.32464 3.03985e-18)
(1.91548 -4.79601 0)
(1.33508 -3.94222 -1.80483e-18)
(0.859812 -3.02012 3.59499e-19)
(4.71604 -5.35326 -2.16362e-19)
(4.49071 -5.42746 1.33109e-19)
(4.17777 -5.55881 0)
(3.83563 -5.72127 -2.05705e-19)
(3.4762 -5.88199 -2.29546e-18)
(3.11277 -5.99475 1.61574e-18)
(2.75645 -6.00657 2.26015e-18)
(2.40374 -5.85629 -1.0343e-18)
(2.03111 -5.47936 -1.25846e-18)
(1.60973 -4.79499 -6.42877e-19)
(1.20289 -3.96448 7.818e-19)
(4.18929 -5.08702 -1.62624e-20)
(3.92121 -5.20001 -1.43114e-19)
(3.59911 -5.4149 1.87212e-18)
(3.28619 -5.68808 4.75354e-19)
(3.00085 -5.96418 3.71102e-19)
(2.75548 -6.1801 -1.47579e-18)
(2.55918 -6.2766 0)
(2.3991 -6.1987 4.00234e-20)
(2.2307 -5.9112 -7.79917e-19)
(2.00617 -5.40076 5.57662e-19)
(1.72605 -4.69445 -3.1037e-19)
(3.51035 -4.80376 -2.26278e-18)
(3.22557 -4.91197 1.64412e-18)
(2.91939 -5.14537 0)
(2.68976 -5.44628 -2.55199e-20)
(2.55518 -5.74365 0)
(2.50891 -5.95543 8.97125e-19)
(2.54157 -5.99479 -1.13634e-18)
(2.61331 -5.78633 -4.21517e-20)
(2.63048 -5.41456 -2.88468e-19)
(2.54009 -4.92575 1.05974e-19)
(2.36758 -4.22545 3.04103e-20)
(2.51919 -4.11852 1.75876e-19)
(2.36835 -4.14227 0)
(2.22139 -4.36138 -1.9535e-18)
(2.16514 -4.61931 2.21613e-19)
(2.21255 -4.82618 1.53957e-18)
(2.38445 -4.86021 3.38527e-19)
(2.67068 -4.51804 2.51288e-19)
(2.89804 -4.12135 5.46032e-19)
(2.95779 -3.61434 2.6491e-19)
(2.82246 -3.21996 1.45695e-19)
(2.548 -2.61507 -4.67489e-21)
(1.76133 -3.6819 -2.0875e-19)
(1.6846 -3.58477 0)
(1.69339 -3.63094 -1.91122e-18)
(1.80719 -3.68411 1.97398e-18)
(2.07733 -3.51696 -1.03445e-18)
(2.3905 -2.88219 0)
(2.6675 -2.4402 0)
(2.83522 -2.08863 -9.83606e-19)
(2.86157 -1.79397 -3.12212e-19)
(2.75775 -1.54209 3.25646e-20)
(2.54829 -1.24836 0)
(0.868432 -3.47747 -2.11862e-18)
(1.52252 -2.61055 0)
(1.57541 -2.41713 0)
(1.7635 -2.02766 8.78377e-19)
(2.0244 -1.50357 -1.95405e-18)
(2.27529 -1.1287 5.1753e-19)
(2.45471 -0.882897 0)
(2.54962 -0.723593 4.45375e-19)
(2.56523 -0.63092 0)
(2.51193 -0.5798 9.50192e-20)
(2.41208 -0.52309 -6.74845e-20)
(1.30544 -1.09172 -9.50507e-18)
(1.10022 -1.19312 0)
(1.36606 -0.834991 0)
(1.62784 -0.504952 1.19749e-18)
(1.83928 -0.291085 1.52587e-18)
(2.01035 -0.178062 -6.15376e-19)
(2.13893 -0.145864 -3.93733e-19)
(2.22788 -0.164855 0)
(2.27996 -0.214306 -2.06433e-19)
(2.29758 -0.271 6.6056e-20)
(2.2902 -0.309309 5.6163e-20)
(-1.53506 2.91437 -4.03175e-18)
(-0.932617 1.59762 -1.62812e-18)
(-0.0934555 1.06749 1.72692e-18)
(0.568067 0.797766 0)
(1.05941 0.679473 0)
(1.43318 0.625106 0)
(1.71704 0.604933 1.2707e-19)
(1.93431 0.598903 2.79891e-19)
(2.10155 0.596975 -2.70735e-19)
(2.22855 0.593869 5.12121e-20)
(2.3161 0.586206 1.44412e-19)
(-0.342462 4.29885 1.53151e-19)
(0.571664 2.67321 6.96273e-18)
(0.494614 2.43288 -5.17097e-18)
(0.809833 1.8521 9.09561e-20)
(1.11743 1.45317 1.35169e-19)
(1.43978 1.16162 0)
(1.70779 0.976688 -2.5721e-19)
(1.92709 0.85658 -6.75078e-19)
(2.09998 0.776226 8.58709e-20)
(2.23159 0.718381 1.47949e-19)
(2.32232 0.673235 7.01459e-20)
(0.914924 4.28901 3.51425e-18)
(2.28274 2.51506 6.51193e-19)
(1.53646 3.04454 -5.87698e-19)
(1.60588 2.42255 -2.19373e-18)
(1.59117 2.04176 -2.7308e-19)
(1.7125 1.64219 1.5377e-18)
(1.86727 1.34414 1.2184e-19)
(2.0271 1.12419 3.15296e-19)
(2.17242 0.968497 3.37502e-19)
(2.29447 0.857511 -2.83357e-19)
(2.38602 0.779483 -3.11087e-19)
(1.75361 3.5733 -7.28122e-19)
(3.3412 2.0475 0)
(2.47102 3.03973 0)
(2.49397 2.44732 -6.70905e-20)
(2.24827 2.29647 6.29609e-19)
(2.1832 1.909 -5.99989e-19)
(2.17962 1.61037 0)
(2.23621 1.34425 -2.33675e-19)
(2.31473 1.14078 7.94384e-19)
(2.39594 0.987592 8.49425e-20)
(2.46146 0.875888 -4.11675e-20)
(2.17443 2.77294 6.89621e-19)
(3.79483 1.61588 8.21505e-19)
(3.09031 2.70187 0)
(3.16167 2.15203 -5.78408e-19)
(2.8399 2.25842 -8.29255e-20)
(2.69162 1.92836 -9.46983e-20)
(2.55662 1.71993 7.18023e-20)
(2.51512 1.46448 3.87952e-19)
(2.51467 1.25518 -2.56691e-19)
(2.54237 1.08359 0)
(2.57431 0.953126 -4.85575e-19)
(2.33907 2.05615 0)
(3.94085 1.24193 -3.99837e-18)
(3.42107 2.2626 6.68473e-18)
(3.5647 1.76249 2.99385e-19)
(3.24291 2.05271 -1.82349e-18)
(3.10986 1.77107 4.33018e-19)
(2.90564 1.68224 0)
(2.80105 1.47242 4.24516e-21)
(2.73484 1.29428 -1.08889e-19)
(2.70973 1.13156 5.45633e-20)
(2.70168 1.0024 1.05688e-19)
(2.32926 1.43967 0)
(3.94784 0.919981 0)
(3.55858 1.82948 -2.08966e-18)
(3.77956 1.40044 3.01021e-19)
(3.47667 1.7708 9.559e-19)
(3.39012 1.53777 9.71149e-19)
(3.17318 1.54747 -9.1955e-19)
(3.04442 1.39054 6.54397e-19)
(2.93864 1.26262 0)
(2.87498 1.12625 0)
(2.83371 1.01166 -1.04483e-19)
(2.19687 0.984935 9.22617e-19)
(3.87411 0.663602 -2.68119e-18)
(3.58531 1.45029 2.09514e-18)
(3.86484 1.09547 6.60842e-19)
(3.59734 1.47913 -9.44402e-21)
(3.55022 1.29227 -1.06461e-18)
(3.34967 1.36805 -5.84736e-19)
(3.2231 1.25544 7.22719e-19)
(3.10211 1.18102 3.702e-19)
(3.01783 1.07736 0)
(2.95609 0.986256 -4.52595e-20)
(2.02904 0.668286 -1.67124e-18)
(3.75 0.449585 0)
(3.55387 1.14268 -1.69019e-18)
(3.86381 0.840759 7.48692e-19)
(3.64102 1.21688 -8.90985e-19)
(3.62411 1.0599 2.05061e-18)
(3.44879 1.18054 -8.83631e-20)
(3.33693 1.09877 -7.09436e-19)
(3.21761 1.07249 -2.02044e-20)
(3.12704 0.999155 -2.5896e-19)
(3.05523 0.935741 0)
(1.83918 0.407195 -6.68515e-19)
(3.58035 0.24017 2.00172e-18)
(3.47985 0.888913 -8.38512e-19)
(3.81454 0.619575 9.50687e-19)
(3.62858 0.993778 6.24241e-19)
(3.63839 0.85021 -2.10473e-18)
(3.48917 1.00573 -7.84996e-20)
(3.396 0.941103 2.30568e-19)
(3.28844 0.95668 -5.16973e-19)
(3.20162 0.906485 3.9704e-20)
(3.1302 0.871186 3.11752e-19)
(1.58947 0.1821 2.35761e-19)
(3.35574 0.0630068 -4.30788e-20)
(3.36689 0.668056 4.20633e-20)
(3.72681 0.433904 -1.3847e-18)
(3.57503 0.806753 7.02609e-19)
(3.61104 0.66772 4.65145e-19)
(3.48617 0.853363 -2.80647e-19)
(3.41221 0.793781 0)
(3.32184 0.847475 -2.03125e-19)
(3.24386 0.811755 -2.26127e-19)
(3.18166 0.801548 0)
(1.31141 0.0194685 6.63616e-19)
(3.10493 -0.0556636 -1.38396e-18)
(3.22526 0.49583 2.97824e-19)
(3.60736 0.293972 0)
(3.49531 0.649509 0)
(3.55184 0.519898 -1.67106e-19)
(3.45217 0.724481 -1.87512e-19)
(3.39674 0.663237 4.97009e-19)
(3.32472 0.752402 3.69402e-19)
(3.25908 0.722048 -1.26769e-19)
(3.20847 0.737425 1.13944e-20)
(1.05873 -0.096926 -8.58734e-20)
(2.85091 -0.141257 5.40123e-19)
(3.07197 0.355714 -2.84084e-19)
(3.46903 0.192923 -2.93417e-19)
(3.40145 0.51871 -1.87792e-19)
(3.47001 0.408219 4.91561e-19)
(3.39224 0.614708 1.88598e-19)
(3.36198 0.557339 -2.82326e-19)
(3.30246 0.670346 0)
(3.25484 0.644254 0)
(3.21634 0.679539 -1.41495e-19)
(0.801659 -0.194914 -2.05539e-19)
(2.57377 -0.219822 0)
(2.90219 0.227933 -2.19976e-19)
(3.31366 0.118719 2.45905e-19)
(3.29435 0.407471 1.88736e-20)
(3.37784 0.320955 -1.19287e-20)
(3.31644 0.525675 -1.69972e-20)
(3.31106 0.480194 0)
(3.2634 0.597882 1.27059e-20)
(3.23495 0.58396 0)
(3.20947 0.629875 4.04249e-20)
(0.524908 -0.259683 -1.69559e-20)
(2.27988 -0.27014 6.71616e-20)
(2.71216 0.126123 -6.39808e-20)
(3.1453 0.0622449 2.16228e-20)
(3.17435 0.321565 -1.88424e-20)
(3.27546 0.261488 1.18795e-20)
(3.23524 0.449954 6.13289e-20)
(3.24478 0.425586 0)
(3.21392 0.539215 -1.25998e-20)
(3.20271 0.540114 -8.99742e-21)
(3.19124 0.590458 6.74785e-21)
(0.265893 -0.3029 -6.96195e-20)
(1.97973 -0.304618 -6.83321e-20)
(2.50412 0.0433512 -5.23398e-20)
(2.9632 0.0195661 6.92975e-20)
(3.04455 0.25183 -6.04223e-20)
(3.15909 0.223091 0)
(3.14654 0.389538 -4.42092e-20)
(3.16915 0.389757 -4.1279e-21)
(3.15663 0.494911 -1.17671e-21)
(3.1616 0.51095 3.16218e-21)
(3.16511 0.561611 0)
(0.00714655 -0.337733 7.17445e-20)
(1.65552 -0.339705 -3.41918e-20)
(2.26481 -0.0323797 2.65444e-20)
(2.75489 -0.0177589 0)
(2.89726 0.189439 1.0109e-19)
(3.02931 0.198099 0)
(3.04835 0.344039 0)
(3.08551 0.369151 1.60632e-20)
(3.09294 0.464761 0)
(3.114 0.494402 0)
(3.13349 0.543644 0)
(-0.27146 -0.351413 -1.27839e-20)
(1.30142 -0.362138 9.47708e-21)
(1.98492 -0.0949328 0)
(2.51102 -0.0485052 1.58082e-20)
(2.72223 0.136948 -4.08999e-20)
(2.88142 0.180702 0)
(2.93678 0.311759 0)
(2.99269 0.360019 -1.62124e-20)
(3.0228 0.448027 0)
(3.06094 0.488389 0)
(3.0974 0.535387 0)
(-0.55589 -0.349767 -1.98177e-20)
(0.919661 -0.374729 -8.15509e-21)
(1.65747 -0.146364 2.67173e-20)
(2.2212 -0.0758105 -7.82147e-20)
(2.50471 0.0929006 -8.0334e-20)
(2.70294 0.167006 2.07366e-19)
(2.80261 0.290246 0)
(2.88557 0.358782 2.49694e-19)
(2.94324 0.442346 0)
(3.00105 0.490258 -8.99485e-20)
(3.05533 0.534637 6.66905e-20)
(-0.845287 -0.337783 9.72213e-20)
(0.506011 -0.383212 0)
(1.27077 -0.190123 0)
(1.8682 -0.103099 2.36552e-19)
(2.22296 0.0534063 1.21821e-19)
(2.47294 0.153096 -2.16486e-19)
(2.6288 0.27564 0)
(2.75199 0.360915 -2.56563e-19)
(2.84547 0.442775 0)
(2.92801 0.495235 0)
(3.00211 0.537882 0)
(-1.14954 -0.313025 -8.53361e-20)
(0.0498306 -0.388261 0)
(0.807359 -0.225156 0)
(1.42356 -0.127501 -2.57778e-19)
(1.84357 0.0187332 0)
(2.15808 0.138074 0)
(2.38553 0.263386 2.89064e-19)
(2.56654 0.359697 -2.72204e-19)
(2.70816 0.440359 -5.73588e-19)
(2.8243 0.494801 3.04014e-19)
(2.92282 0.535998 -1.38815e-20)
(-1.45988 -0.294229 0)
(-0.453167 -0.38695 3.6337e-19)
(0.248127 -0.250118 -2.66931e-19)
(0.852475 -0.142482 -2.65495e-19)
(1.3236 -0.00219515 0)
(1.70994 0.127468 0)
(2.02188 0.250917 -4.10792e-19)
(2.27762 0.347903 4.75053e-19)
(2.4818 0.423797 2.99441e-19)
(2.6445 0.477853 -3.53362e-19)
(2.78137 0.529069 4.12188e-20)
(-1.89681 -0.149646 1.39449e-19)
(-1.07667 -0.359468 -2.45817e-19)
(-0.457169 -0.222682 0)
(0.107919 -0.109897 1.41747e-18)
(0.609716 0.0125642 -5.14291e-19)
(1.06268 0.126345 -3.72876e-19)
(1.45817 0.227078 2.21342e-19)
(1.79392 0.305884 0)
(2.0695 0.366564 0)
(2.28876 0.410047 0)
(2.49 0.469001 0)
(-2.0423 -0.590644 3.13438e-19)
(-1.51051 -0.411222 -1.12007e-18)
(-1.10026 -0.195978 5.6747e-19)
(-0.673066 -0.0190987 -4.97377e-19)
(-0.234666 0.126407 1.37173e-18)
(0.198769 0.226602 -5.20437e-19)
(0.606096 0.28749 1.22569e-21)
(0.973539 0.324144 0)
(1.29641 0.345738 -1.8338e-19)
(1.57101 0.354196 0)
(1.86457 0.381732 0)
(0.175319 -3.85219 1.62117e-17)
(-0.0232366 -2.07394 -6.59303e-18)
(0.338405 -1.1068 5.7342e-18)
(0.799374 -0.46972 -9.08551e-18)
(1.20696 -0.0947913 3.83824e-18)
(1.53622 0.132861 -8.57059e-19)
(1.78752 0.272707 0)
(1.97803 0.36311 -3.28465e-19)
(2.12354 0.424175 3.99712e-19)
(2.23395 0.465753 0)
(2.31293 0.489347 -8.51771e-19)
(1.80834 -4.39644 2.15095e-18)
(1.89995 -2.39409 0)
(1.64013 -2.23435 -1.02155e-19)
(1.55079 -1.49762 -9.19602e-19)
(1.57477 -0.912441 2.09892e-18)
(1.70421 -0.448023 -1.20053e-18)
(1.8657 -0.122715 0)
(2.0181 0.0997426 0)
(2.14635 0.249511 0)
(2.24605 0.348314 4.44348e-19)
(2.31545 0.409187 1.35302e-18)
(2.8565 -3.80034 0)
(3.26795 -1.44099 3.28741e-19)
(2.85026 -2.2198 1.04346e-18)
(2.51873 -1.65951 9.13146e-19)
(2.25469 -1.25313 2.85551e-18)
(2.13706 -0.800925 -1.01418e-18)
(2.13273 -0.423337 0)
(2.17964 -0.129283 2.11684e-18)
(2.24536 0.080303 -8.01305e-19)
(2.30811 0.226771 -4.32151e-19)
(2.35482 0.323511 -5.19581e-19)
(3.29331 -2.79491 7.51862e-19)
(3.99331 -0.513982 -7.90676e-19)
(3.69125 -1.73306 0)
(3.33555 -1.31497 -3.07879e-19)
(2.96007 -1.18753 -2.67192e-19)
(2.67223 -0.879591 -8.55365e-19)
(2.50115 -0.562366 0)
(2.42191 -0.267373 -9.82961e-19)
(2.39557 -0.0404972 3.96265e-19)
(2.39678 0.129781 5.83749e-19)
(2.40285 0.245799 -4.25504e-19)
(3.34613 -1.87069 -1.56131e-18)
(4.24028 0.110189 0)
(4.10785 -1.1121 7.52909e-21)
(3.82988 -0.770115 2.77807e-19)
(3.48206 -0.872723 0)
(3.14285 -0.714915 -2.39131e-19)
(2.87252 -0.515253 9.89031e-20)
(2.69078 -0.290672 2.51502e-19)
(2.57653 -0.0921452 -5.09723e-19)
(2.50993 0.0702729 1.79214e-19)
(2.46797 0.185704 4.40778e-20)
(3.2296 -1.15584 2.87978e-18)
(4.23201 0.524027 -3.22177e-18)
(4.22315 -0.554776 -1.42974e-18)
(4.03226 -0.241417 -8.43988e-20)
(3.76905 -0.474402 2.38529e-19)
(3.4512 -0.417934 5.84914e-19)
(3.16096 -0.341789 -4.48415e-19)
(2.92313 -0.20812 3.44096e-20)
(2.74367 -0.0704009 -1.35487e-19)
(2.61405 0.0536313 5.07746e-20)
(2.51721 0.142491 -2.09371e-19)
(3.04602 -0.617034 -2.67009e-18)
(4.12072 0.815602 2.97554e-18)
(4.1861 -0.113133 1.34151e-18)
(4.05101 0.191209 3.91649e-19)
(3.87442 -0.100021 -8.74513e-19)
(3.59737 -0.0909672 -4.78402e-19)
(3.33399 -0.11252 4.49704e-19)
(3.08129 -0.0572317 -5.55263e-19)
(2.8672 0.0106927 4.92568e-19)
(2.69336 0.082038 1.28277e-19)
(2.55209 0.130419 1.07225e-20)
(2.86016 -0.211607 6.23636e-19)
(3.98292 1.01129 4.22799e-19)
(4.09069 0.227081 0)
(3.97841 0.524126 -8.01389e-19)
(3.87252 0.211039 1.68647e-18)
(3.62763 0.21192 -4.50698e-20)
(3.40327 0.11869 0)
(3.15833 0.122086 6.89678e-20)
(2.93325 0.12616 -4.12993e-19)
(2.73121 0.142824 -3.62598e-19)
(2.5491 0.148045 0)
(2.69701 0.101651 -5.20937e-18)
(3.8508 1.15201 -3.54885e-18)
(3.97327 0.494364 4.93184e-19)
(3.87557 0.780613 1.5945e-18)
(3.80606 0.455412 2.90766e-19)
(3.59197 0.476833 -6.7573e-19)
(3.39777 0.329229 2.13079e-20)
(3.16731 0.3009 1.00255e-19)
(2.94445 0.253744 -1.58046e-19)
(2.72554 0.221226 3.54418e-19)
(2.50784 0.178834 -9.15135e-20)
(2.54484 0.350727 -4.0542e-18)
(3.7363 1.27942 2.35916e-19)
(3.83855 0.709266 2.01147e-18)
(3.77323 0.992012 1.93485e-19)
(3.70019 0.65425 7.52897e-19)
(3.51951 0.692484 -8.10222e-19)
(3.34456 0.51611 2.29057e-19)
(3.12783 0.466404 4.26027e-19)
(2.91293 0.381279 -3.82692e-20)
(2.68691 0.313905 -1.66679e-19)
(2.44894 0.237432 1.51739e-19)
(2.37925 0.519814 -3.96119e-18)
(3.61259 1.41642 -4.39121e-20)
(3.69322 0.894584 -2.01034e-18)
(3.66494 1.1655 3.0091e-18)
(3.57987 0.829069 -2.11283e-18)
(3.42202 0.86862 1.12425e-18)
(3.26124 0.677604 -2.31634e-19)
(3.05598 0.614271 -5.59795e-19)
(2.85233 0.50079 4.0048e-19)
(2.62802 0.410962 0)
(2.39083 0.318446 -9.48419e-20)
(2.2111 0.635646 0)
(3.46656 1.532 0)
(3.55109 1.0459 0)
(3.53995 1.31156 -6.74103e-19)
(3.45336 0.977666 -9.41358e-19)
(3.30819 1.01792 1.66074e-18)
(3.15881 0.814613 -7.54946e-19)
(2.96369 0.743251 0)
(2.77266 0.606744 0)
(2.55665 0.502329 0)
(2.32894 0.393446 2.26376e-19)
(2.05647 0.735121 -3.28416e-18)
(3.30493 1.62759 4.87209e-18)
(3.40776 1.17722 -2.76361e-18)
(3.40335 1.42929 6.66165e-19)
(3.31832 1.10586 2.6448e-18)
(3.18246 1.13954 -1.36978e-18)
(3.0417 0.930701 -3.65627e-20)
(2.85737 0.851388 -9.04019e-20)
(2.67823 0.697297 -3.91344e-20)
(2.47569 0.583128 -7.67698e-20)
(2.26577 0.451549 -2.17088e-20)
(1.89143 0.826842 -7.68128e-19)
(3.11979 1.70992 0)
(3.25501 1.29955 2.48038e-18)
(3.25726 1.52112 -1.26514e-18)
(3.17484 1.22024 -8.90296e-19)
(3.04789 1.23403 0)
(2.91298 1.02794 8.05011e-19)
(2.74228 0.937622 3.80875e-19)
(2.57505 0.772196 -4.955e-20)
(2.38933 0.64949 -6.89018e-19)
(2.20224 0.508254 2.39526e-19)
(1.71254 0.896036 -2.08289e-18)
(2.91992 1.76719 2.17505e-18)
(3.09227 1.4034 -7.35469e-19)
(3.10255 1.59085 0)
(3.024 1.3191 -7.22286e-19)
(2.90596 1.30619 0)
(2.77686 1.10586 0)
(2.62137 1.00087 0)
(2.46713 0.83079 0)
(2.3011 0.698886 0)
(2.13988 0.556402 0)
(1.53403 0.95367 0)
(2.70686 1.80566 1.84792e-18)
(2.91759 1.49095 -1.37853e-18)
(2.93798 1.64102 1.84762e-18)
(2.86556 1.40105 -7.22836e-19)
(2.75723 1.3577 -1.63965e-18)
(2.63606 1.16435 1.14705e-19)
(2.49595 1.0421 0)
(2.35787 0.870759 0)
(2.2143 0.730257 0)
(2.08021 0.587475 0)
(1.34888 1.00269 2.60548e-18)
(2.47174 1.83047 0)
(2.72395 1.56497 6.82906e-19)
(2.75942 1.67432 0)
(2.69733 1.4642 1.0802e-18)
(2.60088 1.38939 -1.41845e-20)
(2.49075 1.20164 5.34174e-19)
(2.36898 1.06163 -4.86748e-19)
(2.251 0.890307 0)
(2.13199 0.74379 0)
(2.02377 0.602904 0)
(1.14891 1.03527 -5.6086e-19)
(2.2086 1.83728 0)
(2.50319 1.62039 2.09428e-18)
(2.56022 1.68953 -2.58172e-19)
(2.51497 1.50425 -1.88971e-19)
(2.43487 1.39915 -7.20598e-19)
(2.34205 1.21458 6.93477e-19)
(2.24416 1.05855 1.30445e-19)
(2.15083 0.888379 2.76265e-19)
(2.05817 0.739774 0)
(1.97521 0.601933 0)
(0.931752 1.04866 -9.62005e-19)
(1.91088 1.82324 1.53714e-18)
(2.24519 1.65121 -4.10946e-19)
(2.33088 1.68186 -5.86374e-19)
(2.31194 1.51464 8.28482e-19)
(2.25733 1.38178 -5.07786e-19)
(2.19225 1.19808 8.43468e-20)
(2.12576 1.0314 -2.86606e-19)
(2.06231 0.865144 4.50031e-20)
(1.99756 0.72012 -1.51928e-19)
(1.93762 0.591406 3.32876e-20)
(0.691142 1.03833 -2.38858e-18)
(1.56634 1.78397 1.33513e-18)