/*--------------------------------*- C++ -*----------------------------------*\
| =========                 |                                                 |
| \\      /  F ield         | OpenFOAM: The Open Source CFD Toolbox           |
|  \\    /   O peration     | Version:  3.0.1                                 |
|   \\  /    A nd           | Web:      www.OpenFOAM.org                      |
|    \\/     M anipulation  |                                                 |
\*---------------------------------------------------------------------------*/
FoamFile
{
    version     2.0;
    format      ascii;
    class       volScalarField;
    location    "0.180938";
    object      p;
}
// * * * * * * * * * * * * * * * * * * * * * * * * * * * * * * * * * * * * * //

dimensions      [0 2 -2 0 0 0 0];

internalField   nonuniform List<scalar> 
21246
(
-8.96763
-4.88868
-3.17703
-2.25274
-1.52161
-1.00995
-0.719145
-0.578515
-0.509691
-0.481654
-0.446029
-8.41238
-6.4058
-5.17413
-3.98141
-2.8506
-2.00214
-1.46635
-1.1385
-0.94837
-0.838753
-0.756137
-6.79979
-6.5545
-6.05362
-5.15795
-4.09602
-3.11116
-2.34172
-1.80945
-1.45368
-1.22255
-1.05925
-5.97086
-6.0206
-5.85311
-5.37856
-4.65343
-3.80949
-3.0144
-2.38188
-1.92303
-1.59778
-1.35526
-5.40249
-5.4409
-5.37587
-5.13708
-4.69527
-4.07937
-3.40236
-2.78861
-2.29326
-1.91275
-1.61457
-4.94263
-4.94265
-4.89934
-4.75735
-4.48125
-4.05414
-3.53204
-3.00383
-2.53223
-2.13969
-1.81449
-4.59263
-4.54568
-4.5027
-4.3869
-4.18904
-3.88289
-3.48932
-3.06051
-2.64528
-2.27249
-1.94476
-4.33381
-4.24888
-4.19362
-4.075
-3.90788
-3.66844
-3.36167
-3.01561
-2.66125
-2.32357
-2.01275
-4.14096
-4.02657
-3.95427
-3.82791
-3.67139
-3.46293
-3.20742
-2.91869
-2.61416
-2.31128
-2.02097
-3.9933
-3.85519
-3.77116
-3.63711
-3.47958
-3.28366
-3.05561
-2.80182
-2.53211
-2.25805
-1.98941
-3.87017
-3.7139
-3.62398
-3.48159
-3.31965
-3.12905
-2.9144
-2.67977
-2.43167
-2.17806
-1.92816
-3.75957
-3.58888
-3.49549
-3.34633
-3.18041
-2.99112
-2.78164
-2.55611
-2.31983
-2.07861
-1.83975
-3.6624
-3.478
-3.38023
-3.22517
-3.05441
-2.86299
-2.65343
-2.43038
-2.19913
-1.96562
-1.73666
-3.57566
-3.37828
-3.27475
-3.11393
-2.93674
-2.74025
-2.52654
-2.3008
-2.0695
-1.83947
-1.61619
-3.4894
-3.2814
-3.1738
-3.0069
-2.82208
-2.61798
-2.39656
-2.16414
-1.92912
-1.70012
-1.48187
-3.40425
-3.18629
-3.07393
-2.90042
-2.70644
-2.49192
-2.2591
-2.01631
-1.77508
-1.54691
-1.33566
-3.31946
-3.09226
-2.9739
-2.79332
-2.58801
-2.35914
-2.1102
-1.85321
-1.60455
-1.37865
-1.17649
-3.23108
-2.99667
-2.87334
-2.68502
-2.46521
-2.21615
-1.94461
-1.6697
-1.415
-1.1977
-1.01527
-3.13919
-2.90076
-2.77361
-2.57629
-2.33616
-2.05713
-1.75442
-1.45949
-1.20476
-1.00677
-0.852068
-3.04604
-2.81054
-2.68151
-2.47045
-2.19656
-1.8702
-1.52743
-1.21704
-0.976671
-0.813879
-0.699524
-2.96052
-2.73073
-2.60412
-2.35995
-2.02949
-1.64154
-1.25089
-0.938061
-0.742162
-0.637352
-0.574961
-2.84555
-2.72374
-2.60061
-2.30401
-1.87369
-1.39162
-0.962214
-0.661554
-0.525051
-0.500242
-0.492583
-2.95839
-3.08477
-2.51152
-2.0206
-1.53206
-1.07776
-0.727083
-0.509025
-0.425207
-0.444699
-0.482303
-4.17246
-1.89959
-1.67835
-1.29698
-0.963677
-0.73604
-0.600435
-0.536005
-0.524646
-0.539491
-0.554426
-2.71769
-2.42556
-1.83291
-1.26176
-0.783304
-0.426553
-0.212071
-0.135842
-0.137822
-0.166052
-0.169267
-0.0822606
-0.417868
-0.491118
-0.350648
-0.0940123
0.154508
0.299289
0.308566
0.228942
0.126206
0.0741609
0.589129
0.383655
0.284491
0.264736
0.359968
0.516573
0.638974
0.641044
0.523536
0.355729
0.242206
0.691551
0.532537
0.47354
0.43192
0.454689
0.540467
0.649725
0.707238
0.625956
0.444659
0.323321
0.622135
0.447343
0.38221
0.309057
0.27347
0.284129
0.334458
0.407669
0.446269
0.378789
0.274382
0.494567
0.2772
0.184258
0.0574815
-0.0508762
-0.1299
-0.168202
-0.141439
-0.0324531
0.0486302
0.0535773
0.353008
0.0802615
-0.0524523
-0.24537
-0.435828
-0.616919
-0.768666
-0.84549
-0.787872
-0.598512
-0.428359
0.197206
-0.123193
-0.295251
-0.558611
-0.834703
-1.12575
-1.40914
-1.62772
-1.68906
-1.52066
-1.18517
0.0541318
-0.31807
-0.521273
-0.853693
-1.21216
-1.61285
-2.0349
-2.41876
-2.63838
-2.5655
-2.1972
-0.0373102
-0.49768
-0.703797
-1.10403
-1.53752
-2.03855
-2.59073
-3.14068
-3.5358
-3.59841
-3.25834
-0.0905136
-0.61523
-0.8086
-1.2896
-1.7868
-2.37166
-3.03048
-3.71571
-4.27589
-4.50385
-4.23658
-0.109588
-0.617823
-0.900847
-1.37681
-1.93112
-2.58184
-3.31918
-4.09391
-4.80496
-5.16736
-5.0136
-0.0652597
-0.55237
-0.886232
-1.36689
-1.95109
-2.64386
-3.43416
-4.27621
-5.06873
-5.53638
-5.44581
0.0590883
-0.404622
-0.763501
-1.24372
-1.83477
-2.54146
-3.35127
-4.21715
-5.03547
-5.58827
-5.61763
0.244468
-0.180867
-0.541902
-1.00798
-1.58657
-2.28404
-3.08433
-3.93272
-4.72736
-5.30897
-5.4541
0.495213
0.117379
-0.231454
-0.673081
-1.22667
-1.90027
-2.67188
-3.4783
-4.22776
-4.79543
-5.02859
0.808498
0.479349
0.149844
-0.262454
-0.782285
-1.41709
-2.13869
-2.88673
-3.58135
-4.10673
-4.33166
1.15525
0.867487
0.556262
0.17381
-0.299953
-0.87147
-1.52663
-2.21255
-2.8333
-3.28777
-3.50196
1.48461
1.22532
0.933211
0.593951
0.180008
-0.325104
-0.905653
-1.51451
-2.05612
-2.42248
-2.5411
1.75043
1.52635
1.26174
0.96002
0.588152
0.124615
-0.406623
-0.947774
-1.39791
-1.64143
-1.62651
1.95952
1.75357
1.48495
1.15547
0.752552
0.293401
-0.179342
-0.646368
-1.00173
-1.1613
-1.09432
2.03944
1.78082
1.4325
1.01198
0.561509
0.119455
-0.292903
-0.623331
-0.871775
-1.00599
-1.02701
1.82835
1.4653
0.956667
0.466251
0.0566531
-0.254034
-0.493586
-0.691627
-0.847361
-0.912776
-0.864375
1.45686
0.53031
-0.00345087
-0.344179
-0.516163
-0.603258
-0.66932
-0.735251
-0.789849
-0.796045
-0.743628
17.4893
10.6356
7.06163
5.56909
4.6039
4.05397
3.65367
3.30294
2.97879
2.69648
2.53022
24.3003
20.7778
16.5101
13.1669
10.5227
8.4966
6.97933
5.82523
4.93212
4.25612
3.80291
20.5953
20.5312
19.0673
16.7211
14.1388
11.7229
9.67708
8.03369
6.74082
5.74034
5.05077
17.5793
18.4081
18.0739
17.1157
15.5946
13.7352
11.7892
9.98558
8.41821
7.12538
6.16299
15.1425
16.298
16.4272
16.3363
15.637
14.4157
12.8669
11.2114
9.61921
8.20919
7.12013
12.9772
14.193
14.3818
14.6857
14.5454
13.9379
12.9162
11.6262
10.2316
8.8844
7.75776
11.4095
12.2922
12.6183
13.0097
13.1248
12.9078
12.3225
11.4247
10.3235
9.157
8.0981
10.3793
10.9736
11.2397
11.5997
11.7915
11.7653
11.4572
10.8671
10.047
9.10452
8.21413
9.53655
10.0046
10.1949
10.4832
10.6654
10.7092
10.5496
10.1631
9.56257
8.81622
8.0779
8.73327
9.16888
9.32795
9.5725
9.72986
9.79074
9.70253
9.43853
8.99254
8.40084
7.78642
8.17038
8.52619
8.63446
8.83063
8.95237
9.00519
8.9457
8.75058
8.40612
7.93038
7.4321
7.89385
8.09703
8.11838
8.24313
8.31099
8.33526
8.27654
8.11525
7.83578
7.44498
7.03374
7.56849
7.69529
7.67602
7.74715
7.76463
7.75398
7.68091
7.53127
7.29084
6.95971
6.61604
7.14472
7.26779
7.24639
7.28769
7.26899
7.22819
7.13674
6.98733
6.76893
6.47558
6.17777
6.91231
6.942
6.86692
6.86115
6.80371
6.73356
6.62279
6.46909
6.26519
6.00133
5.7377
6.62438
6.59165
6.48475
6.44063
6.3482
6.25061
6.12152
5.96308
5.77114
5.5324
5.29686
6.2069
6.16873
6.0645
5.99874
5.88054
5.76078
5.61819
5.45859
5.27982
5.06557
4.85162
5.8702
5.77906
5.64229
5.53923
5.39296
5.2539
5.10498
4.95192
4.79109
4.60488
4.42045
5.51659
5.36115
5.18582
5.04258
4.87122
4.72106
4.57896
4.44528
4.31026
4.15507
3.99692
5.07204
4.85302
4.64783
4.47664
4.29758
4.15822
4.04628
3.94867
3.84622
3.72026
3.57186
4.5263
4.23565
4.00667
3.82891
3.67498
3.58293
3.53255
3.48345
3.41338
3.31252
3.17876
3.87159
3.48329
3.26232
3.12421
3.04974
3.04889
3.09376
3.07946
3.02809
2.94096
2.82207
2.80916
2.61156
2.42198
2.41754
2.5131
2.65545
2.74041
2.7451
2.69309
2.60212
2.46176
3.63404
2.00863
2.17837
2.35303
2.50546
2.61718
2.6123
2.52915
2.42737
2.31542
2.1507
-28.9956
-11.3804
-5.32827
-2.19083
-0.584363
0.279584
0.712679
0.947279
1.06804
1.11857
1.20569
-53.6202
-32.4111
-22.8223
-14.8843
-8.87899
-5.22547
-3.15633
-1.9208
-1.14216
-0.614176
-0.184487
-51.4067
-42.4357
-36.0801
-27.1751
-18.7127
-12.4273
-8.19718
-5.48753
-3.74112
-2.56266
-1.69076
-43.617
-42.2376
-39.7884
-33.5077
-25.9451
-18.9766
-13.3825
-9.34616
-6.56968
-4.66547
-3.2698
-37.277
-38.1415
-37.6043
-34.249
-29.018
-23.0177
-17.3764
-12.74
-9.23786
-6.70502
-4.86297
-32.9708
-34.1782
-34.047
-32.3028
-28.9789
-24.4373
-19.5804
-15.0903
-11.3473
-8.42456
-6.2502
-29.9516
-30.9836
-30.8311
-29.7873
-27.5427
-24.1588
-20.241
-16.2894
-12.6958
-9.66041
-7.21918
-27.551
-28.3786
-28.1687
-27.429
-25.733
-23.0928
-19.9229
-16.5583
-13.3133
-10.4037
-7.8999
-25.5003
-26.1627
-25.9137
-25.3192
-23.9106
-21.7324
-19.0902
-16.2059
-13.3329
-10.6524
-8.20802
-23.6538
-24.1869
-23.9057
-23.3866
-22.1437
-20.2685
-17.9978
-15.486
-12.9354
-10.5133
-8.21572
-21.9465
-22.3601
-22.0701
-21.5946
-20.4497
-18.7769
-16.7693
-14.5438
-12.2611
-10.0772
-7.99181
-20.3325
-20.6113
-20.3381
-19.8802
-18.7993
-17.2744
-15.46
-13.456
-11.3934
-9.40881
-7.51786
-18.784
-18.9413
-18.7127
-18.2278
-17.1853
-15.7714
-14.0992
-12.265
-10.3839
-8.5722
-6.83397
-17.2993
-17.3598
-17.1321
-16.625
-15.6145
-14.2838
-12.7104
-11.0024
-9.26988
-7.6211
-6.04972
-15.8687
-15.8351
-15.5785
-15.0488
-14.0978
-12.8098
-11.3004
-9.68412
-8.07185
-6.5687
-5.18065
-14.4827
-14.3697
-14.0784
-13.5309
-12.6042
-11.3425
-9.86768
-8.31313
-6.79915
-5.43151
-4.24078
-13.1448
-12.9545
-12.6311
-12.0682
-11.1423
-9.88376
-8.40529
-6.88426
-5.45353
-4.21753
-3.17908
-11.856
-11.5897
-11.2351
-10.6514
-9.70435
-8.40614
-6.89736
-5.38398
-4.03681
-2.94684
-2.04449
-10.6132
-10.2802
-9.88807
-9.26579
-8.26044
-6.87685
-5.301
-3.79932
-2.57212
-1.67451
-0.979264
-9.41804
-9.00868
-8.5632
-7.86284
-6.7384
-5.21946
-3.57499
-2.13403
-1.09645
-0.436844
0.064767
-8.26035
-7.75005
-7.20962
-6.37274
-5.07398
-3.41255
-1.77198
-0.516357
0.252238
0.640304
0.996277
-6.60668
-6.13292
-5.58407
-4.49007
-2.91369
-1.14492
0.308463
1.13911
1.44222
1.49683
1.66627
-5.20096
-5.59292
-4.4936
-2.9313
-1.11836
0.407621
1.34236
1.74434
1.87397
1.90264
1.97673
-9.12902
-2.5383
-0.62962
0.65098
1.70232
2.2546
2.38015
2.30668
2.20712
2.10702
1.94877
-2.44572
1.82095
2.73248
2.74063
2.33573
1.84087
1.36704
0.941197
0.566067
0.256918
0.0935371
-24.0816
-11.7804
-7.36842
-3.93429
-1.93511
-0.98212
-0.596872
-0.492273
-0.517838
-0.592267
-0.622603
-27.4797
-19.5669
-16.0679
-11.1664
-7.38992
-4.8305
-3.25879
-2.35748
-1.8582
-1.57446
-1.37378
-23.7386
-20.8966
-19.3541
-15.2863
-11.648
-8.48573
-6.08569
-4.44134
-3.37269
-2.6814
-2.2005
-19.4994
-18.8404
-18.4786
-16.0452
-13.525
-10.7407
-8.25047
-6.26682
-4.80685
-3.77449
-3.02773
-16.3173
-16.2586
-16.2339
-14.9415
-13.4521
-11.4167
-9.34468
-7.45516
-5.89123
-4.68213
-3.75725
-13.8468
-13.9945
-14.0105
-13.2979
-12.4291
-11.0408
-9.49831
-7.93196
-6.49592
-5.28117
-4.28393
-11.7863
-12.0326
-12.0478
-11.6473
-11.1235
-10.1813
-9.07161
-7.85187
-6.64713
-5.55086
-4.60234
-10.1888
-10.3499
-10.3578
-10.141
-9.81689
-9.17126
-8.37384
-7.44099
-6.46589
-5.52463
-4.6658
-8.97075
-9.01696
-8.99834
-8.86208
-8.63821
-8.17944
-7.59431
-6.87742
-6.09481
-5.30341
-4.54125
-7.96027
-7.93071
-7.8964
-7.7951
-7.62141
-7.27738
-6.83082
-6.26861
-5.63639
-4.9781
-4.33701
-7.13586
-7.01988
-6.97259
-6.88996
-6.74796
-6.47824
-6.12223
-5.66771
-5.14691
-4.59073
-4.03499
-6.52388
-6.31846
-6.25241
-6.1617
-6.02456
-5.79211
-5.48715
-5.10108
-4.65788
-4.1802
-3.6975
-6.07298
-5.8042
-5.71769
-5.60338
-5.44951
-5.22183
-4.93324
-4.58141
-4.18665
-3.76769
-3.34798
-5.70769
-5.39284
-5.28265
-5.13934
-4.96528
-4.73051
-4.44129
-4.10234
-3.73473
-3.35736
-2.98302
-5.39901
-5.05582
-4.91786
-4.74053
-4.5442
-4.29199
-3.99096
-3.6501
-3.29464
-2.94768
-2.62101
-5.1165
-4.75919
-4.59692
-4.39279
-4.16519
-3.89263
-3.56889
-3.21247
-2.85782
-2.53399
-2.2491
-4.83076
-4.46897
-4.28629
-4.0607
-3.80847
-3.50968
-3.15462
-2.77336
-2.41418
-2.1124
-1.86859
-4.54432
-4.18749
-3.99173
-3.75144
-3.47195
-3.13376
-2.73181
-2.31913
-1.95772
-1.68416
-1.49166
-4.26924
-3.92388
-3.72191
-3.46716
-3.14671
-2.74473
-2.28377
-1.8413
-1.49112
-1.25446
-1.10871
-3.99603
-3.67607
-3.46985
-3.18448
-2.79586
-2.30853
-1.7924
-1.34879
-1.04034
-0.852398
-0.733663
-3.65445
-3.43026
-3.19878
-2.84112
-2.35133
-1.78788
-1.26731
-0.887272
-0.656576
-0.525923
-0.420984
-3.55385
-3.29426
-2.92046
-2.40362
-1.81216
-1.24755
-0.813752
-0.556091
-0.404991
-0.274531
-0.00593639
-3.05248
-2.29238
-1.7545
-1.26053
-0.844526
-0.556283
-0.435005
-0.42473
-0.433034
-0.425379
-0.320001
20.5256
14.293
10.0842
7.23806
5.3278
3.95107
2.93395
2.13825
1.49566
0.994745
0.667414
16.1452
15.9678
13.7048
10.9395
8.35394
6.26588
4.64389
3.38549
2.41009
1.68516
1.22073
10.1982
12.1477
12.081
11.2541
9.5347
7.5419
5.73781
4.24407
3.06969
2.19051
1.61964
4.89848
7.87585
8.72731
9.13795
8.65537
7.48896
6.09657
4.72961
3.51766
2.55106
1.92594
1.1749
3.98852
5.04861
6.26838
6.7107
6.47512
5.6948
4.67102
3.61601
2.70064
2.07023
-1.26183
1.07113
1.9297
3.39918
4.2674
4.6656
4.51289
4.00746
3.29044
2.55585
1.99605
-2.81599
-0.901612
-0.338126
1.12225
2.03447
2.77228
3.05364
2.96211
2.5947
2.11864
1.72431
-3.75345
-2.17186
-1.91804
-0.480082
0.244437
1.10109
1.61535
1.82758
1.7626
1.52992
1.304
-4.46961
-3.03569
-3.04159
-1.70518
-1.05252
-0.232208
0.361333
0.74914
0.902746
0.87804
0.792775
-5.06449
-3.86969
-3.65653
-2.69149
-2.04835
-1.27365
-0.663149
-0.186199
0.108546
0.245297
0.30287
-5.51071
-4.60509
-4.22297
-3.40265
-2.80158
-2.07664
-1.47208
-0.952653
-0.57343
-0.330733
-0.162441
-5.78688
-5.02843
-4.66531
-3.9244
-3.3611
-2.68132
-2.09224
-1.55514
-1.126
-0.813315
-0.58002
-6.01527
-5.30447
-4.97084
-4.28879
-3.75904
-3.11648
-2.54587
-2.00524
-1.54908
-1.18906
-0.913617
-6.22782
-5.50311
-5.17394
-4.52548
-4.01921
-3.40517
-2.8519
-2.31545
-1.84838
-1.46258
-1.15358
-6.23163
-5.56201
-5.26547
-4.64886
-4.16089
-3.56936
-3.02983
-2.50109
-2.03338
-1.63793
-1.31946
-6.17691
-5.54243
-5.26526
-4.67557
-4.19793
-3.62513
-3.09481
-2.57557
-2.1138
-1.72034
-1.40284
-6.1029
-5.47365
-5.19317
-4.62011
-4.14082
-3.58098
-3.05559
-2.54742
-2.09758
-1.7167
-1.41359
-5.94343
-5.32589
-5.03955
-4.48087
-3.99097
-3.43854
-2.91616
-2.42247
-1.99245
-1.63555
-1.35174
-5.70128
-5.09631
-4.79814
-4.25057
-3.74319
-3.19442
-2.67787
-2.20647
-1.80755
-1.48739
-1.24021
-5.39339
-4.79043
-4.46498
-3.91982
-3.38912
-2.84411
-2.34377
-1.90884
-1.55576
-1.28462
-1.08309
-5.00437
-4.39009
-4.01965
-3.46889
-2.91788
-2.38791
-1.92563
-1.54757
-1.25513
-1.04147
-0.888826
-4.49039
-3.85151
-3.41628
-2.86393
-2.31917
-1.83612
-1.44581
-1.14665
-0.924958
-0.767586
-0.670702
-3.91669
-3.15179
-2.65896
-2.15633
-1.67697
-1.28415
-0.991841
-0.774063
-0.611076
-0.507453
-0.481162
-2.50813
-1.87316
-1.49576
-1.1727
-0.88487
-0.675357
-0.521038
-0.371435
-0.2244
-0.0999682
-0.14874
-1.24347
-1.31203
-1.72987
-2.41521
-2.66335
-2.19822
-1.15629
-0.149096
0.414026
-1.25659
-1.33033
-1.52679
-1.95806
-2.09723
-1.69668
-0.987788
-0.219534
0.248965
-1.24001
-1.28792
-1.47286
-1.85335
-1.98003
-1.66714
-0.954251
-0.312572
0.086523
-1.20573
-1.22388
-1.39455
-1.67608
-1.74087
-1.44862
-0.92126
-0.389307
-0.0524826
-1.28992
-1.39233
-1.69389
-2.32508
-2.5386
-2.02456
-0.906576
0.166669
0.666258
-1.28505
-1.3543
-1.50533
-1.89446
-2.01266
-1.56966
-0.792954
0.0511039
0.448375
-1.26971
-1.30955
-1.46138
-1.79446
-1.8966
-1.54248
-0.775088
-0.079527
0.252202
-1.21358
-1.24852
-1.38998
-1.63682
-1.67884
-1.32072
-0.76731
-0.21911
0.0760303
1.89453
2.18733
2.1876
0.00277346
-0.286963
2.09466
-1.04276
1.70025
2.08208
2.18924
-0.294665
1.70772
-0.34652
-0.0178538
1.88689
0.835331
-0.0153933
0.00525961
0.83536
1.95416
0.441741
-0.952239
1.20089
0.00294776
2.24614
-0.0191274
-0.346839
-1.03833
-1.72735
-0.134385
-0.0140657
0.559414
-0.00149626
1.07399
0.492974
2.19474
0.00292739
2.25255
-0.000486495
1.70042
-1.70241
1.08458
0.0347115
1.21243
-1.00549
-1.33344
-0.0359461
-1.02072
1.01462
1.71041
-0.144877
1.71101
0.00636877
0.03669
1.67439
0.454253
-0.938099
1.65941
-1.73919
0.0435726
-0.618321
0.00574642
-0.272323
-0.232621
-1.85388
1.94793
0.0498746
1.90615
2.18945
2.18821
-0.0843981
3.12956
-0.195858
4.22575
0.0796348
3.02449
-0.982774
1.12255
-0.670839
-1.07691
0.0273782
-0.229824
1.9771
1.99233
-0.401741
-0.172732
-1.60282
0.00615189
-0.504785
0.0212468
2.20588
1.64293
-1.71221
3.3821
-1.17321
-1.00172
0.0848169
-0.527164
-0.470911
3.35098
-0.219306
-1.03001
1.91331
-0.00385126
-0.361378
2.12293
-0.00328603
1.97548
0.000286325
-0.137529
1.24453
1.07684
3.0506
-0.13779
0.0583555
1.95777
1.63681
0.991763
1.78948
1.68253
-0.199114
3.9125
-0.858404
-0.0241218
-1.38553
-0.558501
0.00706038
-0.00265995
-0.00010662
-0.00232499
1.42107
0.0480092
-1.02311
3.02767
2.15267
-0.529576
-0.884824
-0.236339
-0.156543
1.1313
0.0310321
0.268393
-1.14037
1.20024
1.6009
-0.302728
-0.643159
1.86598
2.52314
1.01507
1.22318
2.14184
-0.294874
3.94185
-0.0805455
0.0182218
-0.0664828
-0.563698
-0.0371555
2.10612
-0.370141
-0.402391
3.11846
2.12217
0.0580743
-0.000825826
-0.546461
0.190736
-0.615453
-1.78127
-0.00368075
-0.00955493
-0.623531
0.254629
0.618723
0.617522
-0.00306513
-0.310609
-1.05982
0.70324
1.78748
-0.947737
2.1569
-0.359408
2.02622
-0.143622
1.21991
0.953726
2.15257
-0.649746
-0.000933818
-0.0553125
1.84581
-1.61843
2.18409
2.23573
2.23308
-0.474238
-0.00194697
1.95715
-0.447093
1.88929
-0.00548674
-0.0286615
2.15583
0.00458213
3.3006
-0.00139917
1.84221
1.88454
0.0209308
0.950456
0.147505
0.650709
1.13047
0.0353437
2.23307
-0.0544621
1.35313
-0.164427
0.00117984
-0.165904
0.0922333
0.0431347
-0.0206196
1.55516
-0.345177
0.000609256
-0.000207286
-0.229888
-0.53508
1.81891
1.23974
3.71137
-0.313698
-0.797231
0.0595249
2.16089
1.46514
1.47735
-0.0407906
0.0270914
-0.0524917
-1.50077
2.6699
-0.437234
1.05505
-0.0435322
-0.972611
0.0392847
-0.0397071
0.0215984
0.203132
2.15217
-0.365116
2.19657
0.54477
2.2643
-0.352823
1.19072
-0.00267973
-0.593641
1.85914
1.16992
1.22624
-0.0916911
0.218895
1.83509
-0.337348
-0.376097
-0.42118
1.35572
1.96236
-0.0333322
2.42935
0.991362
-0.0364815
2.28043
1.216
-0.377321
3.23899
1.84922
0.0297871
0.053198
-0.325423
2.36642
-1.03151
1.55939
1.04971
0.0239019
1.40756
-1.06992
-0.0408121
-0.00167875
2.1713
1.82275
-0.590621
1.23016
0.584715
-0.0492867
1.93202
-0.260576
0.849626
-0.145977
0.584689
-0.183854
1.15773
0.00378364
-0.924743
1.27927
-1.01478
2.1092
-0.191889
0.00122611
-1.04781
1.3167
-0.243778
-0.385152
1.58016
3.92145
1.14037
0.0181312
0.95884
-0.155685
-0.263613
0.267903
1.06413
-0.227373
1.79616
0.0458493
1.53686
-0.309322
-0.941962
2.01582
-0.300581
-0.922691
-0.0723644
1.17036
2.24864
-0.528817
-0.718489
0.0242159
1.91635
-0.0147559
-0.433883
0.00464544
0.080816
1.01852
-0.0282284
0.0133921
-1.02109
-0.499999
-0.36478
0.62911
-0.0259354
1.95586
0.000381491
1.03674
1.18371
0.0478618
-0.347868
-0.0262299
2.22465
1.97241
2.72917
-0.514899
-0.00911684
0.0132676
-1.04594
-0.661618
2.29491
-0.470784
-0.95382
-0.00752831
-0.0273592
1.38938
-0.273159
0.465074
2.40211
1.02552
0.0378517
2.27467
-0.348661
1.51127
-0.0642863
0.0935806
-0.2284
-0.0238491
0.0510606
-0.573481
2.12847
-0.954273
-0.00776766
2.87646
0.0846633
-1.83777
1.1362
1.09903
1.83146
0.0385154
-0.34627
1.95369
2.0092
0.0279205
-0.000587491
-1.91013
-0.844043
0.00657621
1.84688
0.0162867
0.39829
0.813156
-0.00768745
-0.00826718
-0.279868
-0.24689
-0.000762986
4.31113
-0.00449844
-0.879875
-0.285117
-0.00758785
-1.03701
0.00118426
0.567251
-0.0657823
4.07003
-0.00792582
-0.716096
-1.79535
1.03592
-0.366218
-0.0862286
1.48722
-0.676977
0.00543508
-0.115931
-0.168147
-0.0263825
1.01454
-0.212142
-1.33671
0.0792928
-0.245979
0.636765
0.0101505
0.0289968
-0.73647
2.21293
-0.438804
2.10464
1.99306
2.2376
-0.736702
-0.682672
-1.04763
-0.00317348
-0.482569
-0.00379459
2.09872
2.23959
0.00969991
-0.0160326
-0.381456
0.522256
-0.00556755
-0.00329151
1.94593
0.970905
1.57875
0.579783
-0.277376
0.918548
-0.686525
0.549482
1.4151
1.33581
1.88467
-0.481136
1.20685
2.05031
0.477111
-0.242716
-0.931551
1.17655
-0.274872
-0.261342
1.25963
0.00948791
2.01607
-0.512555
2.25947
0.604375
1.5337
-0.00109304
-0.0392341
1.86759
-0.0914837
0.0703773
1.83667
-0.255525
-0.217597
1.98647
2.02443
-1.02666
0.00704204
-0.241645
1.45947
-1.03742
1.00951
-0.00106492
-0.0400503
-0.56862
-0.00366994
-0.223357
0.0668265
0.0273587
-0.0954562
1.02439
-0.339368
1.52986
1.86464
2.34065
1.3966
0.396465
0.0352331
1.69855
2.033
-0.132036
1.95238
-1.37066
-0.619568
0.00151484
-0.086421
-0.515487
2.17055
2.27689
1.84613
-1.62064
-0.479468
1.05138
2.1271
-0.0206518
2.00093
0.090248
2.00396
0.024901
1.20187
-0.697424
0.003648
-0.00763555
-1.21079
0.0075118
0.595359
0.177666
2.4314
1.35335
0.00433686
-0.631928
1.75027
-0.0105141
-0.774903
-0.977669
2.25602
2.36855
2.09935
0.0312742
0.0670634
-0.008814
2.04886
1.44475
0.0533629
3.09087
-0.00736878
-0.00350468
0.00493339
-0.452388
1.2188
-0.00621676
2.29122
0.0288115
2.56009
0.0806107
-0.00328804
0.705389
-1.0671
0.00647399
1.69838
1.11581
-1.24863
2.10913
-0.302115
-0.061449
0.0323546
0.0373026
-0.683425
-0.218083
2.30289
1.75414
2.0196
-1.01101
-0.0965776
-0.0309341
1.91471
2.24808
-0.783747
1.15185
3.64706
0.414056
2.82216
-0.0480274
-0.0142746
0.0332748
-0.330203
-0.293316
0.217264
2.12118
-0.0255271
2.9246
1.92551
-0.976363
0.0341345
0.933853
2.20324
-0.848539
1.85791
2.19595
-0.0564597
2.09992
0.207063
-0.166089
-0.00301754
-0.343322
-0.00507563
-0.00717489
-0.769443
0.00927794
-0.800698
-0.0876537
-0.194029
-0.540134
-0.115716
-0.0581174
1.01609
0.648018
-0.272866
-0.223745
0.889067
-0.210066
-0.0971116
0.0304198
-0.997451
-0.252816
-0.858564
1.08462
0.0831217
2.20637
1.091
1.56831
-0.292993
2.58061
1.35218
0.794703
1.33882
-0.00826217
-0.0130353
-0.227305
2.89916
1.173
1.05318
0.011938
3.78642
-1.19119
3.10725
0.103836
0.00527201
1.16419
0.0010448
2.09929
-0.00177378
-0.0819576
-0.0419246
-1.00539
-0.372215
-0.329266
1.97403
-0.00518444
-0.0143903
-0.741871
0.0142369
0.996633
-0.200143
1.98699
-0.360878
0.852541
-0.253566
2.06149
1.82485
2.35172
-0.352948
0.0228497
2.20492
-0.00331015
2.41088
0.00195087
-0.0394457
0.162193
-0.0564044
-1.40868
0.000312571
-0.451492
-0.250939
-0.246925
-0.0403036
0.000407466
-1.03412
1.02237
-0.0666293
1.39476
1.44888
-1.01633
-0.745589
-0.525013
-0.0129941
3.01331
0.19861
1.64113
-0.026719
2.10788
0.00478869
0.0179216
0.027957
0.0369619
-0.298743
0.0341275
0.0412841
3.35818
-0.199925
-0.390667
-0.341456
1.27354
-0.0292027
-0.780701
2.20835
-1.27471
-0.00793332
4.53591
0.102239
1.4519
0.732134
1.52656
-0.00933415
3.22846
-0.0113453
2.12892
-0.00243446
2.78587
-0.00799515
0.00756122
0.0315081
0.000997565
0.929271
-0.127704
-1.16393
2.04897
-0.00941705
-0.267544
0.0211467
0.143934
-0.59805
0.139616
0.0409827
0.00237197
0.166195
1.04844
-0.430816
1.07626
0.0810637
-0.905847
2.17295
1.77694
-0.149248
-0.289009
0.0219238
-0.208145
1.67251
-0.0572179
-0.225459
1.05631
2.15797
2.06465
1.38531
2.54418
-0.00451582
-0.937521
-0.428161
-0.00858309
-0.678044
2.29992
1.517
-0.348377
0.0347154
2.17063
-0.553109
-0.0770459
-1.04029
0.0282823
-0.891647
0.415053
0.0539323
2.28996
1.41967
-1.35577
1.7327
1.69812
-0.274521
0.00207547
-0.260685
-0.191131
2.20659
-0.199078
-1.48745
-0.176196
1.65203
-0.00399738
0.00948833
0.0221016
0.0216532
2.04035
1.02589
0.0311817
-0.0211163
0.018498
1.98894
0.815366
4.2486
2.58574
1.6165
0.0665526
-0.152009
-1.31217
-1.04024
0.0207441
1.96434
-0.2308
2.10008
3.06508
-0.854292
1.50316
2.30838
1.71214
-0.395615
0.0156303
0.0189305
2.31769
0.0584315
2.34584
2.10122
2.40404
2.23309
-0.209543
1.18279
2.17837
2.77904
-0.930383
1.07191
2.04137
-0.738442
-1.2128
1.49051
2.22667
-0.21913
-0.892823
1.16389
-0.492807
-0.020126
0.0259444
1.34853
2.21813
0.255803
1.12998
0.00360269
1.54162
-0.129993
-0.00236225
0.0106428
7.02806e-05
1.22462
-0.0208978
1.81923
1.17893
3.57025
1.41366
1.13505
-0.509729
-1.39417
-0.566494
-0.0427447
0.0137654
0.0199547
-0.249869
-0.810874
1.11742
1.24546
-0.00530063
0.000178942
-0.0297958
1.80336
-0.444972
3.00449
-0.203278
2.31705
-0.00386767
-0.0136783
-0.365655
-0.0478908
1.96494
2.22397
0.0740775
-0.85414
0.0063719
-0.669619
-0.0349842
-0.054821
0.66321
0.0169853
2.41188
2.15845
-0.297537
-1.72585
-0.162834
-0.722294
-0.00238142
-0.0222759
0.0323546
-0.744797
2.01731
-0.0643309
0.00986158
2.09424
0.183887
2.16596
0.0174825
-0.00147056
0.00614347
2.0805
-0.0754339
1.9541
1.68978
-0.000614821
-0.0577161
1.15423
2.25635
2.77985
-0.572557
-0.671275
-0.833515
-0.568088
2.02123
-1.91493
-0.0686654
-0.66006
2.01208
0.00559053
-0.000949747
1.94204
-0.00965974
1.02391
0.0481306
0.0553405
-0.266854
-0.304475
1.25762
2.56068
-0.191681
0.000763493
1.17182
0.00706668
2.20002
-0.798468
0.00186163
-0.979218
2.21002
-0.00795092
-0.0600568
-0.106673
-0.00728078
-0.0149912
1.96641
-0.00217123
-0.247679
1.13977
0.110182
0.064535
-0.206688
0.0355548
-0.0989229
1.77657
2.25576
-0.534031
0.648193
-1.70922
0.00552677
0.000595699
0.0667633
1.62608
-0.191065
-0.474282
-0.00909243
0.0147801
0.011286
2.33642
-0.157356
-0.00293267
2.09058
1.33208
2.13085
0.0957908
0.0796247
1.92998
-0.252516
0.0131388
-0.00950776
1.25645
-1.01253
-0.491516
0.372545
-0.188144
1.04391
2.15567
1.07375
-1.04442
1.20116
0.0217918
-0.280119
-0.467025
1.1805
0.616093
1.98826
2.02698
-0.260116
0.0857416
0.0282995
-1.00702
-1.70981
-0.750407
2.08254
-0.331798
-0.259189
2.04589
-0.0128897
0.0180666
0.771951
-0.896702
-0.321641
0.110969
0.74988
-0.0169029
2.02013
0.0661557
1.29563
-1.05089
-0.560391
4.1538
-0.898573
0.0062292
0.380659
-0.0919281
0.0108286
-1.01443
0.0254086
0.453796
-1.21027
-0.00199164
-0.188811
-1.22965
-0.0304914
2.07558
-0.238116
2.3298
-0.175093
-0.0431284
-0.141964
0.349115
-0.0102942
-1.00772
2.09419
1.84237
0.262942
1.28756
0.00163518
-0.163794
2.52261
-0.037507
-0.167411
1.33852
-0.481333
-0.983099
-0.52409
-1.25952
-0.89751
-0.0419152
-0.0109937
0.0117655
2.10852
2.14882
0.0666956
2.22011
2.16715
-0.145183
1.96912
2.74384
0.100986
3.53886
-0.964936
-0.0280581
-0.0547361
2.16859
-0.191625
0.0385835
-0.028304
-1.14699
2.01916
0.00726472
0.0623369
-0.00631503
0.00228344
0.851622
0.0041379
1.74428
-0.0686144
0.00758617
1.16179
2.19636
-0.315672
-0.305059
-0.236993
-0.413023
0.0631342
2.41815
2.13725
2.17419
-0.527289
0.00032655
-0.0111573
-0.537856
-0.93732
2.27115
0.38663
1.80124
2.07033
-0.426447
2.02733
1.16712
-1.63408
-0.94738
-1.03397
-0.245406
1.27386
0.976352
-0.00937647
-0.207956
0.0282578
-1.19169
-0.0789823
2.08375
1.37277
-0.0240217
0.0149105
-0.01403
-0.0106098
2.5851
-0.0523642
0.0405172
-0.10925
0.609525
-0.0787233
-0.395971
0.996479
-0.488168
1.11429
1.85389
-0.231196
-0.0125615
-0.110824
0.509201
0.996064
-0.554141
-0.112199
-0.0560824
-0.0208205
-0.17463
-0.817226
1.65938
-1.04403
-0.12452
2.12887
-0.00162464
0.0166183
1.46008
0.0381989
2.09187
2.34539
2.6442
-1.44607
-0.00117769
0.976896
0.0306009
2.08666
1.15636
1.95404
-0.0272202
1.02038
0.00489107
-0.599136
2.13646
-0.241967
-0.79851
-0.0238135
-0.428414
-0.651346
-0.142274
-0.00358994
1.72003
1.18759
2.18216
-0.00256036
1.96338
1.17147
-0.508679
-0.802591
0.0516139
-0.00310265
0.00298207
0.898777
-0.141645
-0.586287
1.00817
-0.648414
0.920562
-0.00467206
1.60183
-0.0156727
0.446785
1.96783
1.91262
-0.416825
0.00529199
1.35879
0.00620197
0.979497
0.000985329
0.0143908
-0.322885
-0.00741864
2.12829
1.87163
0.0386942
-1.37254
-0.019091
0.000293312
-0.37848
-0.00152191
2.11969
-1.33085
-0.00971611
1.76694
-0.198067
-0.156558
-0.257609
-0.33762
-0.133625
-0.00196294
-0.494242
-1.09133
1.01497
1.76335
0.0380387
0.0803914
-0.270895
1.12707
-0.607599
2.17332
3.53601
-1.03246
1.99301
1.6567
-1.11409
-0.235294
1.9546
1.93532
2.02752
0.434334
1.28931
3.15124
-0.566528
-0.050738
0.955026
2.09071
-0.281985
1.3623
0.0319543
2.31811
0.798533
1.68118
-0.185887
-0.926846
0.0974752
2.0418
1.16966
-0.00350964
0.00195107
2.08033
-0.671537
-0.0643124
2.39827
-0.394461
-0.0338496
-0.434816
-0.225286
-0.197512
1.63389
-0.0396324
2.0623
0.495758
4.43746
0.255817
2.16515
0.100206
3.61892
-0.245454
2.23565
2.15586
-0.324416
1.21435
2.17269
-0.293876
0.0563669
-0.252639
2.32626
0.548351
2.07992
0.0454295
-0.00109637
0.0664768
0.494156
-0.249045
-0.689422
1.26988
0.959689
1.19454
0.377368
-0.0402348
4.23188
-0.969113
3.85794
-1.10559
0.0105969
-0.0412014
0.0262489
1.12796
-0.304615
2.17035
-0.208753
-0.442538
2.1207
2.1404
0.0378299
0.195514
0.706015
2.12022
-0.172685
2.2666
-0.291385
-0.440077
-0.0263952
-0.0481972
0.986694
-0.566615
1.07632
-0.948946
-0.0391201
-0.508998
0.0216363
1.93788
1.20216
1.93654
0.900012
-0.0767828
0.309721
3.10712
0.000274957
-0.407925
1.35194
0.402038
-0.992352
-0.0774716
2.00428
-0.401293
2.2949
2.38678
-0.0233799
2.22784
0.0280223
-0.00562175
0.572826
2.18839
-0.0626762
-0.288134
1.99895
0.00159479
2.35617
3.38454
-0.0678704
0.598772
-0.0363185
2.10407
3.32122
-1.19881
-0.257612
1.18329
-1.37558
0.542918
1.44642
1.04968
1.22808
0.417128
-0.42771
-0.0543856
-0.208418
-0.394798
1.4094
1.99561
-0.310225
-0.0011808
0.651804
0.107866
-0.297721
2.69507
0.0122992
1.65665
-0.0390069
2.18247
2.03315
-0.00691425
-0.0892835
-0.0585603
2.24989
2.10716
1.75834
1.90535
1.55552
0.0374462
0.0712938
-0.0472099
-0.38158
0.0391397
0.136724
1.36025
1.42333
-0.415998
1.70911
-0.00410325
-1.19564
0.278472
0.0400435
-0.174753
0.702501
1.97646
-0.573645
-0.346971
-0.0788141
0.587277
-0.0797796
0.00366692
-0.403451
-0.00412138
-0.0407194
1.24999
-0.000377231
-0.889324
-1.2793
-0.176475
-0.247283
-0.00398521
2.15328
2.0174
-0.285687
2.26086
-0.0328893
-0.0252313
0.00261423
-0.103606
0.00466775
-0.567108
-0.806127
0.0416206
2.08408
0.0727075
0.00113743
-0.593125
-0.526305
-0.246779
2.10222
-0.572554
2.10014
0.0084213
-1.11509
-0.206175
-0.893934
0.0425353
0.027495
2.41862
4.0805
1.25213
2.35185
2.30681
0.400843
1.30734
-0.553738
3.39632
0.0599824
-0.207986
0.934037
2.00681
-0.555417
-0.835921
2.1605
0.040711
1.18683
4.35288
-0.617196
-0.647091
2.15612
0.866799
0.785791
1.04271
4.47383
2.20078
-0.189027
-0.248904
2.01317
-0.290676
2.15994
0.962667
0.921005
2.25973
-0.144601
1.89753
1.56047
0.5999
1.93002
-0.0108984
1.50512
0.000655449
-0.254852
-1.05788
0.0261086
0.0481312