/*--------------------------------*- C++ -*----------------------------------*\
| =========                 |                                                 |
| \\      /  F ield         | OpenFOAM: The Open Source CFD Toolbox           |
|  \\    /   O peration     | Version:  3.0.1                                 |
|   \\  /    A nd           | Web:      www.OpenFOAM.org                      |
|    \\/     M anipulation  |                                                 |
\*---------------------------------------------------------------------------*/
FoamFile
{
    version     2.0;
    format      ascii;
    class       volScalarField;
    location    "0.943816";
    object      nut;
}
// * * * * * * * * * * * * * * * * * * * * * * * * * * * * * * * * * * * * * //

dimensions      [0 2 -1 0 0 0 0];

internalField   nonuniform List<scalar> 
21246
(
3.10285e-05
8.43517e-05
7.73883e-05
7.82455e-05
6.70833e-05
5.27095e-05
4.2566e-05
3.65907e-05
3.2501e-05
2.91147e-05
2.59286e-05
2.64224e-05
7.85145e-05
5.76488e-05
8.07825e-05
7.26514e-05
5.57678e-05
4.28337e-05
3.54006e-05
3.06085e-05
2.68591e-05
2.35442e-05
2.64892e-05
6.80767e-05
5.43978e-05
6.65906e-05
7.56391e-05
5.98823e-05
4.42915e-05
3.52305e-05
2.96665e-05
2.55444e-05
2.20524e-05
2.82384e-05
6.11002e-05
5.41186e-05
6.07819e-05
7.19434e-05
6.38795e-05
4.63518e-05
3.57359e-05
2.94164e-05
2.49762e-05
2.14401e-05
3.00475e-05
5.8363e-05
5.42047e-05
5.72853e-05
6.77831e-05
6.74393e-05
4.8792e-05
3.67542e-05
2.96916e-05
2.49538e-05
2.14208e-05
3.12132e-05
5.80984e-05
5.45174e-05
5.44731e-05
6.22976e-05
6.82648e-05
5.16703e-05
3.82517e-05
3.04118e-05
2.53414e-05
2.17435e-05
3.17918e-05
5.95433e-05
5.53954e-05
5.26224e-05
5.67967e-05
6.45557e-05
5.44796e-05
4.03198e-05
3.15439e-05
2.6069e-05
2.23161e-05
3.18928e-05
6.2708e-05
5.72196e-05
5.20417e-05
5.27544e-05
5.89103e-05
5.52476e-05
4.29596e-05
3.32719e-05
2.71321e-05
2.31437e-05
3.14448e-05
6.70409e-05
6.0186e-05
5.26088e-05
5.01432e-05
5.33578e-05
5.34386e-05
4.5238e-05
3.54761e-05
2.86467e-05
2.42736e-05
3.04957e-05
7.19554e-05
6.44633e-05
5.43257e-05
4.87345e-05
4.8668e-05
4.95531e-05
4.60042e-05
3.7921e-05
3.05924e-05
2.57196e-05
2.92935e-05
7.78331e-05
7.03394e-05
5.7462e-05
4.87675e-05
4.55962e-05
4.53222e-05
4.46433e-05
3.98993e-05
3.29227e-05
2.75307e-05
2.80498e-05
8.53689e-05
7.82067e-05
6.22617e-05
5.03575e-05
4.43552e-05
4.21976e-05
4.20352e-05
4.05637e-05
3.53325e-05
2.97389e-05
2.70164e-05
9.44162e-05
8.845e-05
6.90654e-05
5.35375e-05
4.46765e-05
4.04362e-05
3.93525e-05
3.96207e-05
3.71788e-05
3.22539e-05
2.64273e-05
0.000104421
0.000101388
7.84752e-05
5.86384e-05
4.65371e-05
4.00319e-05
3.73674e-05
3.76147e-05
3.76907e-05
3.46837e-05
2.63684e-05
0.000116627
0.000117649
9.11211e-05
6.60955e-05
5.0146e-05
4.11135e-05
3.66025e-05
3.5681e-05
3.67379e-05
3.62907e-05
2.67557e-05
0.000130549
0.00013742
0.000107945
7.67107e-05
5.59096e-05
4.37998e-05
3.71874e-05
3.45722e-05
3.50486e-05
3.63722e-05
2.72639e-05
0.000144048
0.000159806
0.000129926
9.18145e-05
6.47296e-05
4.85519e-05
3.93376e-05
3.47042e-05
3.36301e-05
3.50386e-05
2.70102e-05
0.000155899
0.000182905
0.000157163
0.000112847
7.79411e-05
5.62764e-05
4.36035e-05
3.6515e-05
3.33704e-05
3.34035e-05
2.5921e-05
0.000164048
0.000203656
0.000187994
0.000141076
9.75626e-05
6.86385e-05
5.1124e-05
4.07506e-05
3.50253e-05
3.28186e-05
2.39474e-05
0.000166501
0.000218261
0.000217791
0.000176058
0.000126043
8.84879e-05
6.42166e-05
4.90668e-05
3.98069e-05
3.46522e-05
2.10564e-05
0.00015867
0.000222778
0.000240226
0.000214117
0.000165324
0.000120295
8.73937e-05
6.51192e-05
5.04415e-05
4.10476e-05
1.84398e-05
0.000145026
0.000216607
0.00025093
0.000246053
0.000211544
0.000167114
0.000126982
9.56855e-05
7.29054e-05
5.68306e-05
1.39796e-05
0.000111549
0.000159081
0.000198268
0.000216992
0.000216687
0.000198915
0.000170286
0.000139304
0.000111591
8.85666e-05
1.08467e-05
4.22662e-05
5.75904e-05
7.84393e-05
9.99435e-05
0.000120435
0.000136357
0.000141768
0.000137387
0.000126649
0.000112155
2.55614e-05
7.61754e-05
7.45183e-05
7.32328e-05
6.5056e-05
5.31903e-05
4.4688e-05
3.94434e-05
3.57858e-05
3.27639e-05
2.99283e-05
1.78301e-05
6.66845e-05
7.84154e-05
8.00274e-05
7.20394e-05
5.97365e-05
5.03081e-05
4.44685e-05
4.05861e-05
3.75204e-05
3.46719e-05
1.82737e-05
6.15889e-05
7.79509e-05
9.37183e-05
8.56956e-05
7.17089e-05
5.97278e-05
5.23103e-05
4.78856e-05
4.49156e-05
4.23829e-05
2.06812e-05
5.78318e-05
7.6043e-05
0.000102694
0.000102063
9.18122e-05
7.92252e-05
6.98238e-05
6.37114e-05
5.95127e-05
5.64152e-05
2.36617e-05
5.39167e-05
7.669e-05
0.000108035
0.000109917
0.000100738
8.73032e-05
7.72458e-05
7.11704e-05
6.76899e-05
6.55973e-05
2.65701e-05
5.09193e-05
7.77353e-05
0.00010993
0.000113708
0.000106393
9.33635e-05
8.362e-05
7.80622e-05
7.554e-05
7.49151e-05
2.92977e-05
4.88479e-05
7.85679e-05
0.000110286
0.000115797
0.00011055
9.83128e-05
8.92617e-05
8.43686e-05
8.27891e-05
8.3532e-05
3.18626e-05
4.7463e-05
7.91514e-05
0.000110215
0.000117484
0.00011409
0.000102841
9.46329e-05
9.04665e-05
8.98248e-05
9.18694e-05
3.4101e-05
4.65315e-05
7.9572e-05
0.000110301
0.000119453
0.00011747
0.000107356
9.99027e-05
9.62909e-05
9.61133e-05
9.81943e-05
3.60005e-05
4.58584e-05
7.99871e-05
0.00011063
0.000121824
0.000121063
0.000112073
0.00010521
0.000102008
0.000102181
0.000104501
3.75378e-05
4.52846e-05
8.02773e-05
0.000111328
0.000124524
0.000125077
0.000117119
0.000110656
0.000107725
0.000108246
0.000111096
3.87998e-05
4.47336e-05
8.04156e-05
0.000112256
0.000127478
0.000129529
0.000122547
0.000116301
0.000113475
0.000114278
0.000117645
3.97128e-05
4.40899e-05
8.03249e-05
0.000113266
0.000130655
0.000134451
0.00012845
0.000122232
0.00011928
0.000120211
0.000124197
4.01515e-05
4.20079e-05
7.77674e-05
0.000112259
0.00013235
0.000138803
0.000134545
0.000128522
0.000125255
0.000126044
0.000130397
4.0061e-05
3.95841e-05
7.28522e-05
0.000108151
0.000130738
0.000140483
0.000139409
0.000134737
0.000131525
0.000132033
0.000136438
3.94061e-05
3.69206e-05
6.58706e-05
0.000100611
0.000125309
0.000138408
0.000141587
0.000139823
0.000137697
0.000138159
0.000142347
3.81747e-05
3.41678e-05
5.748e-05
8.96205e-05
0.000115553
0.00013158
0.000139224
0.000141674
0.000142318
0.000143808
0.000147992
3.62854e-05
3.14843e-05
4.88456e-05
7.62195e-05
0.000101617
0.000119553
0.000130809
0.000137543
0.000142244
0.000146594
0.000152055
3.36726e-05
2.88371e-05
4.07573e-05
6.19776e-05
8.45167e-05
0.00010265
0.000115883
0.000125509
0.000133624
0.00014158
0.00015008
3.03061e-05
2.60749e-05
3.35664e-05
4.84146e-05
6.61325e-05
8.22967e-05
9.54717e-05
0.000105948
0.000115173
0.000124571
0.00013502
2.61509e-05
2.29741e-05
2.72745e-05
3.65708e-05
4.86907e-05
6.10341e-05
7.21407e-05
8.16036e-05
8.99263e-05
9.79976e-05
0.00010669
2.11981e-05
1.92647e-05
2.15924e-05
2.67377e-05
3.38094e-05
4.16378e-05
4.93339e-05
5.64053e-05
6.2772e-05
6.86597e-05
7.44511e-05
1.54839e-05
1.43981e-05
1.56187e-05
1.80607e-05
2.14286e-05
2.53451e-05
2.94677e-05
3.3553e-05
3.74612e-05
4.11458e-05
4.46245e-05
9.35361e-06
9.71748e-06
1.13284e-05
1.32434e-05
1.53994e-05
1.76546e-05
2.00827e-05
2.38936e-05
2.92017e-05
3.59337e-05
4.3546e-05
4.1388e-05
0.000232835
0.000399232
0.000554967
0.000639557
0.000644094
0.000638287
0.000655421
0.000661212
0.000604541
0.000498393
3.03122e-05
0.000132233
0.00025568
0.000389474
0.000496319
0.000545503
0.000561479
0.000604769
0.000635675
0.000589396
0.000477928
2.458e-05
8.96679e-05
0.000184947
0.000293076
0.000394168
0.000459099
0.000483954
0.000505419
0.000564622
0.000579593
0.000466619
1.97074e-05
7.73356e-05
0.000149616
0.000236221
0.000325445
0.00039351
0.000425319
0.00043459
0.000465458
0.000516014
0.000467233
1.56756e-05
7.94627e-05
0.000134421
0.000203181
0.000279311
0.000344148
0.0003799
0.000386954
0.000394372
0.000425699
0.000433515
1.5022e-05
8.84468e-05
0.000132425
0.000186017
0.000248943
0.000307258
0.000343683
0.000351917
0.000348394
0.000356142
0.000371581
1.50673e-05
9.59319e-05
0.000136699
0.00017905
0.000229959
0.000280188
0.000314551
0.000324016
0.000316708
0.000310287
0.000314071
1.49658e-05
9.63747e-05
0.000138879
0.000176875
0.000218428
0.000260394
0.000290899
0.000300538
0.000292493
0.000279321
0.000271981
1.43858e-05
9.35013e-05
0.000135747
0.000173958
0.000210354
0.000245063
0.000271058
0.000279959
0.000272263
0.000256601
0.000242768
1.36851e-05
8.85049e-05
0.00013096
0.00016664
0.00020238
0.000231805
0.000253687
0.000261566
0.000254679
0.000238923
0.000222667
1.30413e-05
8.25091e-05
0.000124482
0.000158204
0.000192492
0.000219534
0.000238373
0.000245564
0.00023998
0.000225772
0.000209847
1.24952e-05
7.68095e-05
0.000118213
0.000150609
0.000182647
0.000208734
0.000225947
0.000233299
0.000229813
0.000218525
0.000205023
1.19284e-05
7.13531e-05
0.000113035
0.000145201
0.000175844
0.000201238
0.000218498
0.000227387
0.00022718
0.000219916
0.000209845
1.13311e-05
6.56825e-05
0.000108838
0.000142611
0.000173613
0.000199355
0.000218716
0.00023105
0.000235437
0.000232607
0.000225015
1.07929e-05
6.00862e-05
0.00010533
0.000142021
0.000175241
0.000204043
0.000227947
0.000245788
0.000255548
0.000256161
0.000248522
1.02903e-05
5.48076e-05
0.000101194
0.000140669
0.000178227
0.000212581
0.000243259
0.000267992
0.000282709
0.00028448
0.000273529
9.73017e-06
5.00128e-05
9.59477e-05
0.000137191
0.000179116
0.000219941
0.000258341
0.000290055
0.000308547
0.00030972
0.000293816
9.04234e-06
4.62371e-05
9.07081e-05
0.000132486
0.000177952
0.000225136
0.000270888
0.000308576
0.000329944
0.000330238
0.00030974
8.23331e-06
4.36035e-05
8.63575e-05
0.000129394
0.000179448
0.000232196
0.00028024
0.000318478
0.000341239
0.000342413
0.000319083
7.29608e-06
4.24436e-05
8.72235e-05
0.000136021
0.00018359
0.000219655
0.000231038
0.000250678
0.000281683
0.000307624
0.00029924
7.19613e-06
5.3356e-05
9.46751e-05
0.00011153
0.000111532
0.000116624
0.000137728
0.000161913
0.000182834
0.000199072
0.00021152
7.51683e-06
4.37512e-05
5.36248e-05
5.29716e-05
7.51568e-05
0.000104486
0.000137501
0.000168675
0.000190763
0.000194846
0.000178877
6.11977e-06
1.67833e-05
3.15992e-05
5.68412e-05
9.08853e-05
0.00013097
0.000172093
0.000208824
0.000235553
0.000243439
0.000220896
8.23517e-06
2.32912e-05
5.2268e-05
9.46886e-05
0.000146038
0.00019842
0.000243779
0.000277017
0.000295336
0.000297099
0.000275949
3.95558e-05
0.000335398
0.000556833
0.000669904
0.000696736
0.000682085
0.000674003
0.000690339
0.000696004
0.00063983
0.000531597
2.40467e-05
0.000250974
0.000512062
0.000673011
0.000730534
0.000728617
0.00072174
0.000740635
0.000756421
0.000707267
0.00058744
1.69695e-05
0.000190319
0.00043898
0.00063022
0.000731221
0.000759632
0.000763505
0.00078905
0.000822075
0.000789982
0.000661704
1.12623e-05
0.000135314
0.000343366
0.000539247
0.000679738
0.00075201
0.000781468
0.000821253
0.000879508
0.000879586
0.000755528
1.06444e-05
8.57603e-05
0.000240344
0.000421725
0.000581177
0.000692456
0.000755595
0.000816819
0.000911268
0.000973
0.000893368
1.1985e-05
7.99471e-05
0.000191933
0.000336435
0.000488134
0.000606683
0.000675743
0.000726997
0.000831939
0.00096854
0.000994105
1.35003e-05
8.46501e-05
0.000186701
0.000309334
0.000442173
0.000560878
0.000633887
0.000665701
0.000739662
0.000906288
0.00103799
1.50782e-05
9.08653e-05
0.00019133
0.000306024
0.000429045
0.000543352
0.000619721
0.000640292
0.000660883
0.000799177
0.00100031
1.65878e-05
9.80772e-05
0.000199542
0.000310185
0.000426705
0.000538162
0.000617901
0.000639842
0.000620456
0.000684648
0.000898685
1.7963e-05
0.000106291
0.000209563
0.000317244
0.000427309
0.000534539
0.000617025
0.000646571
0.000615044
0.000600218
0.00076083
1.91569e-05
0.000114116
0.000219375
0.000325188
0.000428345
0.000528237
0.00061035
0.000648796
0.000622231
0.000563846
0.000625992
2.02169e-05
0.000121955
0.000231303
0.00033363
0.000429357
0.000518389
0.000595024
0.0006404
0.000626794
0.000554963
0.00053702
2.1071e-05
0.000128948
0.000241403
0.000341712
0.000430167
0.000505961
0.00057117
0.000619271
0.0006212
0.000555179
0.000489856
2.17337e-05
0.000134677
0.000250493
0.000349035
0.000430435
0.000492918
0.000542205
0.000585797
0.000602253
0.000553747
0.000466774
2.21702e-05
0.000139555
0.000257931
0.000354336
0.000428858
0.000479356
0.000513418
0.000546096
0.000568736
0.000543073
0.000457997
2.23084e-05
0.000143865
0.000264382
0.000358293
0.000425712
0.000464608
0.000485465
0.000507046
0.000527363
0.000518572
0.000458059
2.21404e-05
0.000147614
0.000270411
0.000362005
0.000422356
0.000450152
0.000459462
0.000471223
0.000486348
0.000485696
0.000452152
2.16019e-05
0.000151045
0.000276936
0.000367054
0.000419999
0.000438152
0.000437836
0.000440142
0.000448341
0.000449359
0.000430055
2.06344e-05
0.000154096
0.000283286
0.00037022
0.00041705
0.000430204
0.000422738
0.000415372
0.00041521
0.000413601
0.000400818
1.90863e-05
0.000154553
0.000281684
0.000368246
0.000415914
0.000427828
0.000415076
0.000398515
0.000389354
0.000382441
0.000369909
1.66195e-05
0.000145637
0.000269869
0.0003614
0.000414633
0.000428249
0.000412372
0.000388504
0.000371695
0.000360519
0.000349753
1.36239e-05
0.000127689
0.000245096
0.000344422
0.00040596
0.000424794
0.000409898
0.000382377
0.000359973
0.000344755
0.000333287
1.02012e-05
9.17691e-05
0.000209152
0.00031328
0.000382011
0.000408739
0.000401476
0.000377093
0.000352858
0.000334312
0.000317055
7.1252e-06
8.58427e-05
0.000175131
0.000268632
0.000328616
0.000361835
0.000370797
0.000361804
0.00034345
0.00032493
0.000302911
5.97382e-05
0.00034047
0.000439245
0.000478669
0.000495367
0.000505246
0.000512643
0.000514295
0.000502405
0.000464993
0.000403034
3.94633e-05
0.000274795
0.000417517
0.00047861
0.00050089
0.000508734
0.000509822
0.00050537
0.000491255
0.000457251
0.000399572
3.2001e-05
0.000240973
0.000403042
0.000489226
0.000520044
0.000528453
0.000528601
0.000522644
0.000506565
0.000471547
0.000412018
3.03362e-05
0.000205407
0.000377096
0.000491111
0.000537724
0.000547358
0.000544397
0.000535953
0.000518551
0.000484665
0.000427327
3.06209e-05
0.00018496
0.000343028
0.000463045
0.000523691
0.000543534
0.000544218
0.000536396
0.000518354
0.000482788
0.000422679
3.1318e-05
0.000173163
0.000320715
0.000433425
0.000494913
0.000523323
0.000534549
0.000535295
0.000522951
0.000491593
0.00043571
3.21923e-05
0.000163078
0.000301444
0.000406557
0.000467833
0.000501273
0.000520376
0.000529287
0.000523319
0.000495333
0.000439736
3.3223e-05
0.00015502
0.000285171
0.000383056
0.000442409
0.000478418
0.000503357
0.000519653
0.000520992
0.000499919
0.000452015
3.41639e-05
0.00014808
0.000271273
0.000362983
0.000420025
0.000457421
0.000486809
0.000509644
0.000518333
0.000503354
0.000456826
3.4866e-05
0.000141173
0.000258592
0.0003456
0.000400819
0.000439247
0.000472179
0.000500451
0.000515089
0.000503505
0.000454617
3.5459e-05
0.000134468
0.000246946
0.000330374
0.000384331
0.000423738
0.000459642
0.000492378
0.000511585
0.00050269
0.000456966
3.5937e-05
0.000128502
0.000236634
0.000317086
0.000370115
0.000410498
0.000449039
0.000485625
0.000508626
0.000501808
0.000456107
3.61741e-05
0.000122742
0.000227149
0.000305326
0.000357867
0.000399343
0.000440363
0.000480495
0.000507002
0.000502257
0.000458101
3.61998e-05
0.000116602
0.000217781
0.000294549
0.000347206
0.000390013
0.000433495
0.00047708
0.000507039
0.000504482
0.000463
3.59404e-05
0.000110576
0.000208764
0.000284592
0.000337748
0.000382076
0.000428062
0.000475194
0.000508894
0.000508704
0.000466964
3.53751e-05
0.00010431
0.000199654
0.000275013
0.000329096
0.000375182
0.000423753
0.000474652
0.000512674
0.000515307
0.000473767
3.45372e-05
9.59444e-05
0.000187993
0.000263671
0.000319456
0.000367926
0.000419527
0.000474449
0.000517675
0.000524062
0.000483229
3.32365e-05
8.63014e-05
0.000173208
0.000248578
0.000305152
0.000353663
0.000404798
0.000461135
0.000509661
0.00052359
0.00049056
3.14466e-05
7.53651e-05
0.000154822
0.000228871
0.000285596
0.000332349
0.000378715
0.000429792
0.000477656
0.000498981
0.000481768
2.91228e-05
6.33794e-05
0.000132599
0.00020348
0.000259816
0.000304061
0.000343202
0.000383295
0.000422246
0.000445042
0.000444189
2.61891e-05
5.09166e-05
0.000107303
0.000171983
0.000226877
0.00026879
0.000300964
0.000328498
0.000353
0.000368246
0.00037279
2.25895e-05
3.91003e-05
8.15629e-05
0.000136097
0.000186958
0.000226479
0.000253887
0.000272034
0.000283508
0.000287487
0.000285472
1.81629e-05
2.80999e-05
5.70703e-05
9.90969e-05
0.00014209
0.000177419
0.000201726
0.000215486
0.000220472
0.000217723
0.000209248
1.27817e-05
2.59156e-05
5.13649e-05
7.683e-05
0.000103339
0.000126517
0.000143701
0.000154009
0.000157592
0.000154916
0.000147114
5.49218e-05
0.000247891
0.000304053
0.000417545
0.000505984
0.00054057
0.000562244
0.000559169
0.000541599
0.000495712
0.000426662
3.956e-05
0.000141321
0.000198316
0.000257725
0.000322635
0.000399372
0.000555337
0.000605991
0.000590307
0.000538995
0.000457281
3.47125e-05
0.00010224
0.000159123
0.000206275
0.000255997
0.000308187
0.000437623
0.000624476
0.000640053
0.000591347
0.000504131
3.11705e-05
9.05141e-05
0.000138527
0.00017895
0.000220809
0.000264508
0.000356652
0.00058966
0.000689461
0.000654609
0.00057076
2.72447e-05
9.9306e-05
0.00013189
0.00016354
0.000198225
0.000236349
0.000310089
0.000505494
0.000721413
0.000721329
0.000636678
3.20392e-05
0.000120668
0.000138747
0.000158212
0.000183875
0.000215861
0.000277567
0.000436456
0.000672611
0.000779624
0.000707392
3.74323e-05
0.000154265
0.000158777
0.000162789
0.00017679
0.000201194
0.000253213
0.000384199
0.000602526
0.000779886
0.000780936
4.22531e-05
0.000198776
0.000193224
0.000177805
0.000176702
0.000191801
0.000235191
0.000345717
0.000538818
0.000736579
0.000807231
4.56782e-05
0.00023858
0.000238984
0.000203632
0.000183471
0.00018704
0.000221913
0.000316654
0.000485679
0.000678386
0.000789449
4.77307e-05
0.00026188
0.000286272
0.000238777
0.000197019
0.000186556
0.000212392
0.000294054
0.000441835
0.000618732
0.000743562
4.89594e-05
0.000278535
0.000329518
0.000280482
0.000217193
0.00019021
0.000205933
0.000275768
0.000404767
0.000562429
0.000684724
4.97401e-05
0.000291447
0.000366657
0.000324771
0.000243171
0.000197972
0.000202551
0.000261301
0.00037371
0.000512005
0.000621901
4.99408e-05
0.000301822
0.000396663
0.000367818
0.000273834
0.000209753
0.000202154
0.000250012
0.000347284
0.000467301
0.000560803
4.95151e-05
0.000306745
0.000416798
0.000405982
0.000307673
0.000225534
0.0002048
0.000241538
0.000324461
0.000427283
0.000505281
4.85648e-05
0.000303756
0.000427948
0.000436634
0.000342264
0.000244829
0.000210728
0.000236201
0.000305241
0.000391685
0.000455898
4.69793e-05
0.000296066
0.000428918
0.000457621
0.000374675
0.000266838
0.000220144
0.000234324
0.000289721
0.000360406
0.000411624
4.47449e-05
0.00028451
0.000419988
0.00046601
0.000401449
0.000290203
0.000233271
0.000236723
0.000278472
0.000333677
0.000372449
4.1814e-05
0.000268472
0.000402267
0.000456791
0.000419217
0.000313035
0.000250403
0.000244658
0.000272878
0.000312487
0.00033866
3.8218e-05
0.000248012
0.00037685
0.000430899
0.000421311
0.000335042
0.000273092
0.000260716
0.000275434
0.000298672
0.000311025
3.40432e-05
0.000223167
0.00034537
0.00039649
0.000401849
0.000359539
0.000305465
0.00028882
0.000289473
0.00029472
0.000291831
2.94724e-05
0.000192259
0.000310785
0.000359765
0.000377563
0.0003734
0.00034001
0.000317732
0.00030329
0.000290722
0.000271816
2.60853e-05
0.000188252
0.000276232
0.000313671
0.000326869
0.000319895
0.000270356
0.000235947
0.000205461
0.000174848
0.000141376
1.60516e-05
0.000107655
0.000122924
0.000108254
9.32497e-05
7.93833e-05
6.87951e-05
6.12153e-05
5.51951e-05
5.0137e-05
4.54834e-05
9.26306e-06
1.06279e-05
1.24518e-05
1.52593e-05
1.9341e-05
2.44905e-05
3.03286e-05
3.62139e-05
4.14302e-05
4.53571e-05
4.75551e-05
1.80844e-05
1.72236e-05
1.60727e-05
1.41993e-05
1.06986e-05
5.96742e-06
6.18142e-06
6.49323e-06
7.33685e-06
0.000118603
8.85595e-05
5.82791e-05
3.74207e-05
2.60863e-05
2.1336e-05
2.57757e-05
2.46068e-05
2.40912e-05
0.000238856
0.00018496
0.000121932
7.46187e-05
4.67181e-05
3.35956e-05
3.68782e-05
3.49552e-05
3.76962e-05
0.000346727
0.000276672
0.000183253
0.000109945
6.72899e-05
4.74633e-05
4.94154e-05
4.51054e-05
5.1087e-05
1.85611e-05
1.8497e-05
1.82088e-05
1.83308e-05
1.77761e-05
1.69475e-05
1.59028e-05
1.43305e-05
1.16065e-05
0.000142971
0.000159266
0.000166251
0.000151459
0.000130353
0.000108987
7.70675e-05
4.9918e-05
3.16491e-05
0.000284623
0.000312176
0.000315293
0.000292126
0.000255441
0.000215117
0.000157275
0.000101549
5.9289e-05
0.000402453
0.000433014
0.000429215
0.000407672
0.000369659
0.000316594
0.000231627
0.000147366
8.41745e-05
0.000195633
0.00022971
0.000229761
7.36707e-05
0.000430069
0.000229334
8.83556e-05
0.000229472
0.000229405
0.000233902
0.000423373
0.000229525
0.000118628
0.000187608
0.000123824
0.000228725
0.000159692
7.37547e-05
0.000228719
0.000228575
0.000229679
2.99848e-05
0.000229988
0.000256782
0.000229337
0.000191319
0.000126438
8.89409e-05
0.000468244
0.000557155
0.00014167
0.000236
0.000114305
0.000229426
0.000241113
0.000229672
0.000243396
0.000229335
9.63682e-05
0.000229331
2.16614e-05
0.000229465
0.000105152
0.000229967
0.000440913
5.86776e-05
5.16632e-05
0.000107775
0.000239946
0.000229432
0.000555292
0.000229299
0.000283225
0.000105025
0.000229387
0.000229459
2.94415e-05
0.000229295
0.000460134
9.28705e-05
2.4685e-05
0.000234237
0.000489044
0.000161959
2.94232e-05
0.000228556
0.000658709
0.000230061
0.000229713
0.000233325
0.000189841
0.000234277
6.05686e-05
0.000246844
0.000133962
0.000232346
2.24345e-05
0.000229699
0.000137745
0.000467072
0.000686168
0.000138058
0.00022927
0.000229789
0.000247439
6.13087e-05
0.000388627
0.000175395
4.5302e-05
0.000280388
0.000229485
0.000229262
2.38305e-05
0.000234142
0.000471638
0.000124344
9.70549e-05
0.000237477
4.38971e-05
0.000237539
0.000253502
0.000112972
0.000230156
0.000236619
4.8865e-05
0.000229517
0.000181622
0.000229869
0.000110091
0.000236327
0.000229341
0.000229521
0.000231249
7.01583e-05
7.60077e-05
0.000229037
0.000229392
0.000228904
0.000229269
0.000229216
6.77297e-05
0.000243409
0.000263995
0.000188367
5.38684e-05
0.000215536
0.000914964
0.000176899
0.000140678
0.000117464
0.000229226
9.2132e-05
0.000108437
0.000232869
0.000229788
0.000231716
2.33563e-05
0.00010479
0.000550113
0.000244775
0.00010834
0.000231396
0.000243331
0.000167952
0.000229403
3.8865e-05
0.000110107
0.0002299
0.000236078
0.000228932
0.000228966
0.000229162
4.04663e-05
0.000243058
7.46655e-05
5.90333e-05
6.791e-05
3.02294e-05
0.000170335
0.000228854
0.000217262
4.83695e-05
0.000233787
0.000229162
0.000675683
0.00011654
5.68179e-05
0.000242365
0.000235224
2.86343e-05
0.000146148
0.000159778
0.000222081
0.000229608
0.000235241
0.000220414
0.000154745
3.94938e-05
0.000439031
0.000199793
0.000229582
2.74137e-05
0.000229933
0.000143286
0.000229282
0.00010673
0.000229083
0.000228839
0.000229639
0.000173294
0.00010921
0.000198184
0.000228535
2.08561e-05
0.000229747
0.000229064
0.000229592
4.40071e-05
0.000114561
0.000230001
3.37728e-05
0.000229553
0.000109982
0.000138598
0.00022983
0.000182155
0.000233207
0.000140781
0.000229504
0.000228718
0.000326636
0.000228994
0.000175367
0.000239011
0.000229279
0.000137653
0.000229371
5.06496e-05
0.000229098
8.25841e-05
7.40529e-05
6.61384e-05
9.76738e-05
7.51944e-05
0.000191782
0.000229298
0.000108195
0.00011706
0.00011032
0.00031011
3.31123e-05
0.0002285
0.000228994
0.000244318
3.94096e-05
0.000254154
0.000680689
0.000229888
0.000229549
0.000229497
5.1049e-05
0.000194752
0.000236735
1.81684e-05
0.000237827
4.978e-05
0.00022936
0.000140238
0.000197121
0.000862702
0.000140049
0.000327363
0.000247658
0.000228636
0.000234048
0.000229544
0.000229405
0.000229297
4.54609e-05
0.000229183
0.000123306
0.000187786
0.000228201
0.000229595
0.000229338
5.19938e-05
0.000231849
0.000234151
0.000159544
0.000179812
0.000192796
0.000229146
0.000229559
5.14362e-05
0.000229073
0.00022894
0.000183526
0.000229172
0.000238419
4.82891e-05
0.000236189
0.000229781
0.000686333
0.000643179
0.000233632
0.00022908
0.000363045
0.0002297
0.000238163
0.000104515
0.000229826
0.000100942
0.000246738
8.06e-05
0.000229998
0.000229534
0.000236054
0.000229561
0.000240701
0.000186503
0.000229158
5.95916e-05
0.000242798
0.000555024
0.000229318
0.000236497
0.000229701
0.000282882
2.68877e-05
0.000229214
5.55891e-05
0.000229576
0.000234188
0.000118033
2.64286e-05
0.000231538
0.000172287
6.3729e-05
0.000228768
0.000239696
0.000229005
0.000565897
0.000228951
0.00019252
0.000114382
0.000235832
0.000229172
0.000207726
0.00022821
0.000521578
0.000231668
0.000488468
1.97781e-05
0.000229953
9.76589e-05
0.000230202
6.64433e-05
0.000229652
0.00022924
0.000238709
4.90817e-05
0.000311859
0.000229496
0.000109503
0.00018952
0.000284216
8.53119e-05
0.000229037
0.000206819
0.000955285
5.65989e-05
0.000236676
0.000179887
0.000229279
0.000106151
0.000230037
7.18422e-05
0.000206755
0.000229964
0.000619443
0.000136135
0.000185759
0.0002294
0.000229325
0.000229709
5.10412e-05
0.000168387
5.76489e-05
6.38387e-05
0.000259118
0.000229172
0.000114993
0.00022478
0.000192608
0.000112938
0.00022979
0.000152667
0.000241027
0.000229022
0.000228884
0.000556239
0.000229006
3.71596e-05
0.000229269
0.000198086
0.000688997
5.93228e-05
0.000191506
0.000193539
4.74411e-05
0.000229174
4.47491e-05
0.000185468
0.000250355
0.000695232
2.94046e-05
0.000229247
0.000228906
0.000229889
8.28012e-05
4.56227e-05
0.000228992
0.000229989
0.000106511
9.67805e-05
2.44721e-05
0.000105095
0.00014395
0.000229539
0.000567779
0.000237764
0.000228682
0.00011542
0.000117093
4.93722e-05
0.000233998
0.000109302
0.000254393
0.000182408
4.94014e-05
0.000320077
0.000150143
8.32101e-05
0.000110548
0.000227394
0.000235476
0.00024564
7.4331e-05
0.000180909
3.74454e-05
0.000229247
3.75157e-05
0.000208055
0.000228648
0.000233796
6.37508e-05
0.000303807
0.000520516
0.000187699
0.000230039
0.0002367
0.000378459
8.04227e-05
5.92964e-05
0.000232695
6.97436e-05
0.000104052
2.52271e-05
0.000228807
4.08153e-05
0.000229168
0.000229735
0.000229336
5.13704e-05
9.39894e-05
6.35143e-05
0.000148087
3.20073e-05
8.17139e-05
0.000229632
0.000228787
0.000936823
0.000182042
0.000234105
0.000236186
4.14209e-05
4.53091e-05
2.96836e-05
2.93526e-05
0.000231623
0.000211953
5.24357e-05
0.000229122
2.45704e-05
0.00023461
0.000229667
0.000229172
8.05639e-05
3.61673e-05
0.000229004
0.000229175
0.000229732
0.000261435
2.63502e-05
0.00022991
4.12857e-05
0.000356219
0.000156629
6.15975e-05
0.000228752
3.67632e-05
0.000229065
0.000234106
0.000229307
0.000123213
0.000150193
0.000228554
0.000193865
0.000168985
0.000233478
0.000223094
0.000207806
0.000229443
0.000229421
0.000237185
6.66927e-05
5.67435e-05
0.000231879
9.99486e-05
0.000229766
0.000454562
0.000104895
4.55427e-05
0.000109525
0.000253325
0.000664288
7.19377e-05
0.000193631
0.00022915
0.000184453
0.000228869
0.000229768
0.000229158
0.00022961
0.00023377
0.000530753
0.000229347
0.000228813
0.000160279
0.000229162
4.19645e-05
0.000241097
0.000239934
0.000176683
4.70983e-05
0.000229998
0.000229297
0.000229947
1.99097e-05
3.61692e-05
0.000229306
0.000229304
0.000188211
0.00022984
7.54482e-05
0.000229789
0.000682231
0.000237107
3.13338e-05
9.1185e-05
0.000131274
6.56156e-05
0.000483915
0.000229348
0.000231969
0.000235603
0.000229771
6.39412e-05
2.45106e-05
0.000223806
0.00012677
0.000150498
8.84048e-05
0.000229342
0.000229878
0.000229738
0.000103243
0.000722393
8.41649e-05
0.000229478
0.00022935
0.000649453
0.000231235
9.62607e-05
0.000134777
0.000168414
0.000295218
0.00022922
8.86788e-05
0.000229275
7.20218e-05
0.000229619
0.000132175
0.000150285
0.000234911
2.71191e-05
0.000136515
0.000229953
0.000230001
0.00046576
0.000229071
0.00018371
9.96359e-05
7.76722e-05
9.96444e-05
4.84434e-05
0.000154124
0.00023153
0.000229195
0.000229241
0.000135906
5.29896e-05
0.000112985
0.000228553
0.000229361
9.04695e-05
0.000229241
0.000237324
0.000235775
0.000234218
0.000109866
5.46202e-05
7.78279e-05
0.000159974
0.000233641
0.000239245
0.000228625
0.000152078
0.000232218
0.000229167
0.000193918
0.00041591
0.000228964
0.00022901
2.32686e-05
0.00023017
0.000228752
0.000147682
0.000229779
0.000234592
9.61244e-05
8.44438e-05
0.000158682
0.000179414
0.000159495
7.07696e-05
0.000414821
7.26525e-05
0.000108619
0.00018026
5.29586e-05
7.09264e-05
0.000129186
0.000229769
0.000230245
0.000113465
0.000230302
0.000229206
0.00024472
0.000208119
0.000105321
0.000190757
0.000193135
0.000249823
0.000229144
0.000203713
0.000229504
0.000228929
0.000236632
7.78181e-05
0.000232211
0.000232496
0.000230771
0.000229706
0.000117782
6.22991e-05
0.00029698
0.000232434
0.000229631
0.000189858
0.0001218
0.000237963
0.000169289
0.000232031
0.000156024
0.000552826
0.00022919
6.61054e-05
0.000229923
0.000118687
0.000130554
0.000106606
0.000164916
0.000215465
0.000246571
0.000229824
0.000100163
0.000182228
4.80505e-05
0.000898488
0.000229012
0.000233874
0.000229809
0.000161151
0.000229566
4.33781e-05
0.000229537
0.000229306
0.000229093
0.000126396
6.45122e-05
0.000229544
0.000129676
0.000229241
0.000115722
0.000170465
0.000231236
0.000109189
1.67028e-05
8.01912e-05
0.000236541
0.000198895
0.000138345
0.000122019
0.000127439
8.52224e-05
0.000229199
0.000149412
0.000229283
0.000231443
5.17776e-05
0.000194791
3.57165e-05
0.000187542
0.000231038
0.000234831
0.000229234
5.58219e-05
0.000229616
0.000947995
9.53667e-05
0.000658575
0.000234416
0.000138832
0.000110477
9.8329e-05
0.000243322
0.000122801
3.78581e-05
6.07384e-05
0.000229405
0.000185837
0.000145849
0.000229507
4.38277e-05
0.000119331
0.000248186
0.000153119
0.000229336
0.000233129
0.000235115
0.000130904
0.000236854
0.00019195
0.000229623
0.000118669
0.000234784
8.43194e-05
6.60985e-05
0.000361601
0.000110376
0.000228825
0.000271131
6.64099e-05
0.000229205
0.000190293
0.000188139
7.31431e-05
0.00024783
2.96838e-05
0.000243595
7.64837e-05
9.11847e-05
0.000254796
0.00022889
0.000247349
0.000229133
7.92158e-05
2.26569e-05
0.000230041
0.000229236
0.00025288
0.000356949
0.000538049
0.000154058
0.000229639
0.00014662
0.00025107
0.000229516
0.000229604
0.000229859
0.00022926
0.000236007
0.000159447
4.45938e-05