/*--------------------------------*- C++ -*----------------------------------*\
| =========                 |                                                 |
| \\      /  F ield         | OpenFOAM: The Open Source CFD Toolbox           |
|  \\    /   O peration     | Version:  3.0.1                                 |
|   \\  /    A nd           | Web:      www.OpenFOAM.org                      |
|    \\/     M anipulation  |                                                 |
\*---------------------------------------------------------------------------*/
FoamFile
{
    version     2.0;
    format      ascii;
    class       volScalarField;
    location    "0.931584";
    object      p;
}
// * * * * * * * * * * * * * * * * * * * * * * * * * * * * * * * * * * * * * //

dimensions      [0 2 -2 0 0 0 0];

internalField   nonuniform List<scalar> 
21246
(
-1.81447
1.75112
2.64964
2.70457
2.39616
2.00061
1.62007
1.27736
0.973632
0.718966
0.559291
-19.9478
-9.75571
-5.81834
-2.94272
-1.21587
-0.381621
-0.0314505
0.0771432
0.0711218
0.0198275
-0.0080273
-22.5796
-16.0647
-13.0088
-9.00638
-5.79416
-3.61217
-2.26003
-1.47728
-1.03929
-0.788206
-0.618214
-19.2828
-16.9641
-15.639
-12.382
-9.30063
-6.64297
-4.60669
-3.20405
-2.28851
-1.69456
-1.29081
-15.6548
-15.1336
-14.8263
-12.9074
-10.7803
-8.47421
-6.37898
-4.70221
-3.46275
-2.58144
-1.9406
-12.9693
-12.9337
-12.9136
-11.9041
-10.6484
-8.98342
-7.2486
-5.6632
-4.3435
-3.31672
-2.52172
-10.8858
-11.0152
-11.0323
-10.4819
-9.75173
-8.62843
-7.34008
-6.03336
-4.82879
-3.80353
-2.95098
-9.15134
-9.35282
-9.36907
-9.06639
-8.63233
-7.88076
-6.95875
-5.94685
-4.94164
-4.02202
-3.20856
-7.81636
-7.92978
-7.93798
-7.77948
-7.51776
-7.01277
-6.358
-5.59148
-4.78316
-4.00044
-3.27112
-6.79851
-6.81425
-6.79646
-6.69457
-6.51742
-6.16574
-5.69366
-5.11333
-4.4716
-3.82129
-3.18102
-5.96654
-5.91299
-5.87621
-5.7966
-5.66052
-5.40069
-5.04745
-4.60071
-4.09034
-3.55826
-3.02567
-5.30277
-5.16702
-5.11684
-5.04584
-4.93209
-4.72892
-4.4519
-4.09749
-3.68482
-3.24472
-2.79271
-4.82388
-4.61043
-4.54041
-4.4547
-4.33828
-4.1591
-3.9228
-3.62568
-3.2804
-2.90896
-2.51691
-4.48539
-4.22004
-4.1267
-4.0124
-3.8744
-3.69138
-3.46565
-3.19599
-2.89241
-2.57273
-2.24657
-4.21572
-3.91631
-3.79574
-3.64902
-3.48587
-3.29101
-3.06226
-2.80255
-2.52275
-2.2387
-1.95626
-3.97694
-3.66113
-3.51318
-3.33508
-3.14623
-2.93522
-2.69637
-2.43515
-2.16591
-1.90591
-1.66133
-3.74808
-3.42614
-3.25906
-3.05915
-2.84784
-2.61856
-2.36161
-2.08762
-1.8177
-1.5729
-1.35812
-3.52119
-3.20314
-3.02401
-2.81132
-2.58222
-2.33061
-2.04826
-1.75214
-1.47406
-1.24058
-1.05417
-3.30659
-3.00128
-2.81815
-2.60083
-2.35438
-2.07133
-1.7507
-1.42333
-1.1344
-0.912321
-0.754678
-3.11412
-2.82788
-2.64729
-2.42821
-2.15799
-1.82878
-1.458
-1.09885
-0.805836
-0.598538
-0.458056
-2.93809
-2.67925
-2.50612
-2.27495
-1.96308
-1.57458
-1.1589
-0.789112
-0.511742
-0.326801
-0.185336
-2.72459
-2.54565
-2.36756
-2.09357
-1.71581
-1.27572
-0.854287
-0.5233
-0.298853
-0.145192
-0.0122672
-2.66677
-2.49079
-2.22566
-1.84293
-1.39791
-0.961697
-0.605213
-0.366529
-0.213586
-0.0762774
0.177456
-2.36555
-1.84436
-1.41136
-1.03257
-0.714082
-0.475703
-0.348907
-0.314849
-0.314127
-0.321781
-0.288666
17.9471
12.624
8.98524
6.57669
4.9251
3.79759
2.95666
2.29397
1.75892
1.33921
1.05059
14.5638
14.261
12.2381
9.83979
7.61626
5.8232
4.43807
3.36659
2.54199
1.92817
1.52487
9.56004
11.0844
11.0191
10.2029
8.69334
6.95395
5.39523
4.12528
3.1252
2.36895
1.8682
5.03665
7.46752
8.20732
8.4789
8.0048
6.99886
5.73698
4.55575
3.50607
2.66753
2.11387
1.79625
4.14387
5.08264
6.04034
6.38897
6.18777
5.41152
4.51327
3.58987
2.78786
2.22881
-0.372553
1.60648
2.39202
3.56859
4.29695
4.62018
4.46619
3.98515
3.33155
2.67891
2.19399
-1.7886
-0.148515
0.399145
1.57346
2.38401
2.97308
3.19255
3.10432
2.76645
2.33077
1.98022
-2.6637
-1.30649
-1.01344
0.119932
0.830662
1.52269
1.94952
2.10861
2.03467
1.82185
1.62425
-3.3388
-2.09628
-2.05819
-0.940709
-0.353241
0.336821
0.848106
1.16611
1.27941
1.23949
1.18218
-3.91088
-2.85408
-2.66
-1.83003
-1.25934
-0.60071
-0.0685542
0.335403
0.577609
0.678592
0.745599
-4.33943
-3.54306
-3.19993
-2.49097
-1.95398
-1.33295
-0.803657
-0.357645
-0.0342126
0.167451
0.320944
-4.6175
-3.95048
-3.62424
-2.98345
-2.47927
-1.89367
-1.37611
-0.911908
-0.540504
-0.272496
-0.0612678
-4.85257
-4.22646
-3.92562
-3.33511
-2.86054
-2.30526
-1.80265
-1.33391
-0.937
-0.626109
-0.383963
-5.06763
-4.43156
-4.13417
-3.57225
-3.11817
-2.58633
-2.09805
-1.63212
-1.22506
-0.891002
-0.619905
-5.09886
-4.51057
-4.24153
-3.70739
-3.26944
-2.75621
-2.27953
-1.81963
-1.41161
-1.06822
-0.792046
-5.07397
-4.51791
-4.26589
-3.75549
-3.32725
-2.82963
-2.36123
-1.90882
-1.50541
-1.16197
-0.885665
-5.02952
-4.48021
-4.22545
-3.7299
-3.30159
-2.81485
-2.35181
-1.90856
-1.51525
-1.18163
-0.917046
-4.90821
-4.37147
-4.11219
-3.62974
-3.1945
-2.71443
-2.25601
-1.82578
-1.45009
-1.13719
-0.887721
-4.71315
-4.19009
-3.92159
-3.44967
-3.00252
-2.52688
-2.07665
-1.66739
-1.3198
-1.03862
-0.819444
-4.46071
-3.94169
-3.65093
-3.18246
-2.71965
-2.25007
-1.81828
-1.44341
-1.13739
-0.89922
-0.720669
-4.13584
-3.60936
-3.28247
-2.81192
-2.338
-1.88634
-1.49283
-1.17054
-0.919013
-0.730613
-0.597137
-3.69937
-3.15519
-2.77824
-2.31152
-1.85167
-1.44724
-1.12115
-0.869802
-0.679831
-0.540605
-0.446297
-3.20267
-2.56523
-2.14482
-1.7271
-1.33365
-1.01342
-0.774641
-0.594147
-0.454864
-0.352778
-0.288388
-2.04208
-1.50399
-1.18464
-0.929933
-0.708327
-0.545166
-0.428037
-0.322749
-0.217928
-0.130212
-0.124306
-0.66556
0.0273964
0.328963
0.50086
0.581338
0.606032
0.600162
0.576599
0.542598
0.506612
0.487591
-1.50323
-0.820477
-0.447786
-0.138321
0.0912299
0.237952
0.320163
0.35932
0.371122
0.368016
0.366702
-1.79087
-1.35893
-1.06975
-0.740012
-0.435746
-0.193073
-0.0192849
0.0957381
0.166571
0.208115
0.238512
-1.89417
-1.61538
-1.41955
-1.14617
-0.855214
-0.584008
-0.356518
-0.180872
-0.0537016
0.035243
0.101744
-1.94048
-1.72717
-1.59111
-1.37849
-1.13412
-0.8806
-0.641696
-0.434743
-0.267607
-0.138665
-0.037318
-1.98166
-1.78565
-1.68382
-1.50807
-1.30517
-1.08253
-0.855972
-0.642354
-0.454549
-0.297948
-0.167877
-2.01575
-1.8197
-1.74496
-1.58471
-1.40921
-1.21322
-1.00512
-0.797654
-0.603476
-0.431084
-0.280544
-2.01798
-1.84318
-1.78554
-1.62777
-1.47071
-1.29402
-1.10233
-0.904892
-0.712133
-0.532814
-0.368359
-2.01767
-1.86536
-1.78616
-1.64363
-1.50146
-1.33796
-1.15897
-0.971323
-0.783151
-0.602435
-0.431123
-2.01517
-1.86416
-1.77722
-1.64924
-1.51074
-1.35449
-1.18427
-1.00441
-0.821209
-0.641705
-0.467838
-1.99798
-1.84671
-1.76039
-1.63658
-1.50052
-1.34911
-1.1845
-1.01006
-0.831002
-0.653474
-0.478221
-1.96186
-1.81213
-1.72804
-1.6065
-1.47227
-1.32374
-1.16258
-0.991907
-0.816239
-0.641198
-0.466451
-1.91954
-1.76725
-1.6825
-1.56133
-1.42746
-1.28003
-1.12068
-0.95251
-0.779777
-0.607679
-0.435066
-1.87145
-1.71338
-1.62568
-1.5031
-1.36792
-1.22005
-1.06111
-0.894387
-0.724213
-0.555474
-0.385232
-1.80346
-1.64304
-1.55428
-1.43007
-1.29295
-1.14379
-0.98466
-0.819258
-0.652034
-0.487968
-0.322289
-1.72371
-1.55928
-1.46813
-1.34131
-1.20146
-1.05045
-0.891146
-0.728018
-0.565533
-0.408401
-0.249735
-1.63422
-1.46297
-1.36719
-1.23655
-1.0929
-0.939608
-0.780764
-0.621814
-0.467095
-0.320054
-0.171316
-1.52529
-1.34829
-1.2481
-1.11308
-0.964996
-0.809746
-0.653469
-0.502573
-0.360306
-0.227665
-0.0910279
-1.39795
-1.21431
-1.10817
-0.967336
-0.814205
-0.658837
-0.51011
-0.374216
-0.251004
-0.13721
-0.0156517
-1.25106
-1.05844
-0.942801
-0.793613
-0.635753
-0.485857
-0.354863
-0.244947
-0.148681
-0.057
0.0459265
-1.07928
-0.872555
-0.741046
-0.581131
-0.424209
-0.294526
-0.199498
-0.129745
-0.0668012
0.00345874
0.0926942
-0.869091
-0.635899
-0.479528
-0.313872
-0.181311
-0.103286
-0.0696083
-0.0516731
-0.0209967
0.0362249
0.123707
-0.591244
-0.323795
-0.130632
-0.00534425
0.0452677
0.0320177
-0.0114249
-0.0405839
-0.027086
0.0328432
0.126463
-0.500172
0.31
0.280532
0.239773
0.177104
0.0692283
-0.0417863
-0.0959602
-0.0773489
0.00400306
0.117485
0.689329
0.807591
0.913352
0.943977
0.915374
0.852216
0.793116
0.734192
0.672657
0.614198
0.581164
0.897041
0.953248
1.02888
1.09361
1.11795
1.08811
0.999417
0.887549
0.776695
0.682881
0.640655
0.753896
0.792334
0.870898
0.953794
1.01882
1.03785
1.01002
0.951077
0.849246
0.729261
0.650138
0.49301
0.493164
0.55509
0.625188
0.696234
0.748885
0.76549
0.762982
0.749498
0.69289
0.619059
0.17638
0.118491
0.146575
0.171794
0.20285
0.238861
0.265053
0.292438
0.350408
0.420398
0.449868
-0.137965
-0.27594
-0.300415
-0.349568
-0.399538
-0.440205
-0.458861
-0.442438
-0.346532
-0.163728
0.0487763
-0.412931
-0.643547
-0.734958
-0.881455
-1.04116
-1.20342
-1.33841
-1.40256
-1.32103
-1.07087
-0.68906
-0.656589
-0.967463
-1.12521
-1.37772
-1.65999
-1.96959
-2.2758
-2.48451
-2.4971
-2.24204
-1.76483
-0.848192
-1.23361
-1.44895
-1.80528
-2.20807
-2.66863
-3.15843
-3.57442
-3.76312
-3.54673
-2.95083
-0.945746
-1.43407
-1.67797
-2.12878
-2.64182
-3.2446
-3.91564
-4.56384
-4.95941
-4.85112
-4.19651
-0.948138
-1.54481
-1.76789
-2.31562
-2.92515
-3.64684
-4.46957
-5.32191
-5.92397
-5.9888
-5.32301
-0.885068
-1.46035
-1.79473
-2.35814
-3.03367
-3.84031
-4.76283
-5.73646
-6.52504
-6.80706
-6.15282
-0.711515
-1.2576
-1.65766
-2.23381
-2.94814
-3.80498
-4.78251
-5.8081
-6.70963
-7.07136
-6.41979
-0.397827
-0.914095
-1.34459
-1.92223
-2.64467
-3.51461
-4.50439
-5.53425
-6.42901
-6.80277
-6.32854
0.0185128
-0.445684
-0.874734
-1.43353
-2.13669
-2.98535
-3.94289
-4.91701
-5.73604
-6.12158
-5.79068
0.540093
0.133873
-0.278735
-0.808478
-1.47767
-2.2841
-3.18002
-4.05918
-4.75846
-5.09129
-4.91809
1.1472
0.784111
0.383919
-0.120775
-0.753023
-1.50546
-2.3213
-3.08678
-3.65054
-3.89488
-3.82335
1.7538
1.40176
0.996779
0.508549
-0.0813139
-0.762235
-1.47699
-2.11545
-2.54448
-2.69789
-2.64132
2.19767
1.82801
1.41214
0.95734
0.439223
-0.148901
-0.761248
-1.29221
-1.60975
-1.64073
-1.4748
2.36625
1.9973
1.59862
1.19187
0.739706
0.223361
-0.31589
-0.768266
-0.997455
-0.912857
-0.580728
2.33293
1.97479
1.59362
1.19348
0.749516
0.259045
-0.234827
-0.625893
-0.803306
-0.688582
-0.196351
2.07965
1.69913
1.31066
0.917252
0.508977
0.0687664
-0.371344
-0.715882
-0.773773
-0.489407
-0.049072
1.62583
1.20537
0.833349
0.494671
0.153447
-0.181831
-0.474853
-0.613642
-0.507965
-0.253693
0.023511
0.861247
0.483788
0.30995
0.116957
-0.0781393
-0.235304
-0.317764
-0.320229
-0.23665
-0.0834821
0.084188
25.9495
18.4259
14.0403
11.2146
9.22794
7.74691
6.57515
5.6266
4.85889
4.2662
3.87335
23.3872
22.2918
19.3139
16.1993
13.3028
10.8875
8.98477
7.50642
6.35408
5.47817
4.86928
18.6626
19.7858
19.0775
17.4863
15.3887
13.142
11.0313
9.21681
7.73124
6.56094
5.73167
13.2642
15.6786
16.0901
16.1379
15.2267
13.7465
11.9994
10.2657
8.70474
7.39277
6.39359
9.38438
11.8878
12.3809
13.3276
13.3869
12.854
11.8076
10.4985
9.14038
7.88673
6.87987
6.83981
9.09025
9.44072
10.5983
11.1268
11.2095
10.808
10.0346
9.0431
7.9989
7.08419
5.43336
6.96632
7.48259
8.49233
9.13785
9.53121
9.53919
9.18857
8.56344
7.79101
7.03623
4.80627
5.75458
6.18421
7.00548
7.60432
8.08624
8.3018
8.23069
7.89517
7.37594
6.82579
4.37047
5.08332
5.37867
6.01883
6.51233
6.97004
7.25423
7.3332
7.19168
6.86865
6.48631
3.9144
4.58092
4.82747
5.35755
5.75752
6.15674
6.43835
6.57874
6.54813
6.35789
6.1003
3.75971
4.31259
4.48943
4.92865
5.24516
5.57941
5.82813
5.97981
6.00177
5.88943
5.71622
3.96957
4.31062
4.37062
4.69836
4.92134
5.18323
5.38327
5.51891
5.55821
5.49066
5.36951
4.06939
4.31606
4.32953
4.57854
4.72272
4.91733
5.06402
5.16969
5.20404
5.15312
5.06464
4.00548
4.26035
4.28494
4.49517
4.58774
4.73155
4.83049
4.90267
4.92069
4.86908
4.78757
4.17698
4.32458
4.29271
4.44688
4.49228
4.59368
4.65157
4.6917
4.68879
4.62902
4.54852
4.27117
4.3564
4.29786
4.41062
4.41913
4.48477
4.50775
4.5178
4.49129
4.4161
4.32715
4.19696
4.2992
4.26269
4.35987
4.35037
4.38981
4.38618
4.36915
4.31726
4.22044
4.10351
4.23195
4.29642
4.24334
4.31164
4.28705
4.30516
4.28122
4.23917
4.16028
4.03957
3.89771
4.27051
4.29298
4.22121
4.26268
4.22948
4.23318
4.19309
4.12531
4.01589
3.86773
3.70204
4.23906
4.23489
4.16503
4.20092
4.17704
4.18264
4.12513
4.02556
3.87803
3.69437
3.49134
4.16469
4.14233
4.09319
4.15333
4.16357
4.1591
4.0798
3.93563
3.73862
3.5139
3.27858
4.08377
4.05382
4.064
4.185
4.22467
4.19291
4.05923
3.84531
3.58718
3.3207
3.06173
3.83494
4.05682
4.16385
4.35807
4.36171
4.24894
4.02246
3.72293
3.40671
3.10703
2.81941
5.18518
4.71805
4.94997
4.91073
4.68545
4.35071
3.94155
3.52938
3.16826
2.85903
2.55915
-4.58408
3.98704
5.80724
6.11839
5.67737
5.06453
4.46125
3.93185
3.47725
3.10718
2.87972
-34.3674
-16.3214
-8.88569
-3.40162
-0.325462
1.09832
1.65043
1.82254
1.82878
1.77827
1.77567
-41.8566
-29.9245
-23.2922
-15.0794
-8.84788
-4.75224
-2.35379
-0.999226
-0.23355
0.21761
0.552979
-39.6116
-34.5477
-30.8048
-23.2847
-16.6038
-11.0082
-7.00289
-4.34789
-2.64994
-1.55864
-0.783959
-35.192
-33.5114
-31.8781
-26.607
-21.2787
-15.7602
-11.1428
-7.62643
-5.12453
-3.39513
-2.17716
-31.2667
-30.6894
-29.9071
-26.5372
-22.8314
-18.2514
-13.9309
-10.2074
-7.27257
-5.06718
-3.44808
-28.1574
-27.902
-27.3229
-25.0228
-22.4574
-18.9005
-15.2639
-11.7994
-8.81555
-6.39979
-4.52739
-25.5449
-25.4122
-24.8736
-23.1395
-21.2411
-18.4595
-15.5006
-12.4727
-9.6831
-7.26066
-5.27734
-23.324
-23.2116
-22.6685
-21.2571
-19.737
-17.4777
-15.052
-12.4563
-9.95861
-7.67314
-5.66001
-21.4038
-21.2483
-20.6776
-19.4534
-18.1544
-16.2426
-14.2076
-11.9759
-9.77809
-7.71079
-5.82435
-19.7107
-19.4814
-18.8711
-17.7417
-16.5698
-14.8908
-13.1357
-11.1933
-9.26282
-7.41899
-5.73055
-18.0192
-17.7473
-17.1428
-16.0749
-14.9988
-13.4839
-11.9327
-10.2182
-8.51364
-6.86513
-5.35162
-16.3997
-16.0596
-15.4414
-14.4729
-13.4426
-12.0468
-10.649
-9.11847
-7.60805
-6.14345
-4.79483
-14.8794
-14.4588
-13.8239
-12.896
-11.8833
-10.59
-9.31154
-7.93376
-6.59419
-5.31078
-4.11773
-13.3305
-12.8511
-12.2208
-11.3197
-10.3261
-9.11676
-7.93257
-6.6859
-5.49963
-4.39216
-3.36331
-11.8099
-11.2629
-10.6314
-9.74637
-8.77184
-7.62384
-6.5163
-5.38668
-4.345
-3.41314
-2.58226
-10.3302
-9.70637
-9.06308
-8.18063
-7.20645
-6.11543
-5.06452
-4.04423
-3.14788
-2.39093
-1.73594
-8.85083
-8.15219
-7.49588
-6.61313
-5.63131
-4.57145
-3.57236
-2.6671
-1.92802
-1.35347
-0.875325
-7.36422
-6.59246
-5.91911
-5.02952
-4.02686
-2.98082
-2.04148
-1.27272
-0.716437
-0.342882
-0.0576337
-5.87374
-5.03063
-4.32893
-3.41346
-2.36911
-1.33381
-0.486667
0.103969
0.444179
0.605252
0.701501
-4.37599
-3.4761
-2.70698
-1.72697
-0.628651
0.35827
1.03609
1.38413
1.47928
1.42905
1.3595
-2.94345
-1.83237
-0.962504
0.126781
1.23059
2.05716
2.46358
2.51941
2.40025
2.17955
1.96789
-0.866103
-0.188409
1.00976
2.14098
2.94649
3.32573
3.30244
3.01581
2.67822
2.40273
2.28649
-1.95924
2.72969
3.58657
4.07199
4.29979
4.15901
3.77907
3.34803
2.97901
2.68195
2.41341
-1.92578
-1.75617
-1.1948
-0.843325
-0.681246
-0.607284
-0.544453
-0.828377
-1.46736
-1.40983
-1.34694
-0.992013
-0.787722
-0.675617
-0.611316
-0.570223
-0.72056
-1.06984
-1.29321
-1.2471
-0.931784
-0.74136
-0.650597
-0.594481
-0.544799
-0.657911
-0.979643
-1.07956
-1.07835
-0.826952
-0.6749
-0.606981
-0.559287
-0.511791
-0.590322
-0.847814
-1.32647
-0.287046
0.646485
1.0285
0.876904
0.391508
-0.505535
-1.42066
-1.78324
-0.953929
-0.204293
0.552529
0.873316
0.760254
0.350572
-0.334162
-0.946155
-1.26801
-0.899969
-0.180079
0.462743
0.7437
0.650864
0.291668
-0.289054
-0.92327
-1.15404
-0.741101
-0.161385
0.366538
0.631632
0.555072
0.23489
-0.250071
-0.677153
-0.935784
2.26293
2.27088
2.26302
-0.155352
-0.225924
1.99208
-0.548326
1.73327
1.97758
2.91092
-0.250918
1.74035
-0.143665
-0.0650346
2.25823
1.09428
-0.042767
-0.152744
1.0932
2.35552
0.810264
-0.516026
1.35881
-0.109288
2.34076
-0.0634224
-0.133533
-0.541218
-0.338562
-0.21589
-0.0434129
1.3107
-0.0401247
1.26575
1.29236
2.26133
-0.102512
2.33815
-0.0413779
1.70399
-0.354143
1.27397
-0.109109
1.36732
-0.272076
-1.16884
-0.139188
-0.74507
1.8377
1.68338
-0.220579
1.71417
-0.004261
-0.105365
1.65852
0.818655
-0.496066
1.67811
-0.168588
-0.0798267
0.360724
-0.00497297
-0.260069
-0.232609
-0.651552
2.34503
-0.171494
1.7618
2.25658
2.87821
-0.0821048
3.27845
-0.171978
3.61917
-0.097709
3.07513
-0.445305
1.30145
-0.327396
-0.52437
-0.0753209
-0.2333
2.30027
2.30163
0.310431
-0.166352
-0.0116627
-0.00403893
-0.326585
-0.0442225
2.23664
1.66846
-0.460679
2.66077
-0.529183
-0.568967
-0.096947
-0.0519248
-0.298046
3.40125
0.625295
-0.677653
2.48529
0.682985
-0.265716
2.11989
-0.00571422
2.29592
-0.0198136
0.404404
1.38723
1.26862
2.76465
-0.181498
-0.111435
2.29759
1.65442
1.20117
1.79733
2.23659
-0.190454
3.68677
0.154211
-0.0510115
-1.11721
-0.0931881
-0.00595101
-0.00594936
-0.00341514
-0.0153716
1.51446
-0.0795552
-0.7285
3.12731
2.1828
0.200597
-0.437685
-0.229666
-0.171061
2.02148
-0.0777663
0.677985
-0.344643
1.80049
1.62822
-0.19669
-0.0512263
1.7444
3.20306
1.20741
1.35168
2.05942
-0.194601
3.57659
-0.171446
-0.106499
-0.15553
-0.334064
-0.0484553
2.39021
-0.0648155
-0.279902
3.2078
2.37231
-0.138883
-0.0609236
-0.337299
0.479458
-0.0478529
-0.655799
-0.0366908
-0.0156044
-0.0325753
0.682688
1.36231
1.30452
-0.00281165
-0.213191
-0.304669
1.36948
1.70548
-0.511407
2.20474
-0.213363
1.99665
-0.197388
1.34458
1.17276
2.32997
-0.320755
-0.0224379
-0.0836645
2.25941
-0.351397
2.24558
2.42262
2.06555
-0.301959
-0.0161046
2.29013
-0.221097
1.79311
-0.0471931
-0.0596682
2.19165
0.00110258
2.60412
-0.00105307
1.77913
2.26857
-0.0588252
1.17578
0.60174
1.44208
1.30667
-0.0453064
2.24829
-0.108289
1.43612
-0.122597
-0.0187582
-0.180672
-0.0979274
-0.119439
-0.043923
1.60323
-0.183742
-0.048196
-0.0186866
-0.257061
-0.32408
2.24651
1.36119
3.79243
-0.197029
-0.210918
-0.112908
2.21145
1.55337
1.56162
-0.0815121
-0.169436
0.622179
-0.347369
2.06005
-0.306589
1.25195
-0.0834263
-0.442023
-0.0302616
-0.0792845
-0.0680221
1.0493
2.45358
0.217042
2.04575
0.881369
2.34521
-0.206627
1.32369
-0.00274979
0.000960243
2.25222
1.33533
1.37543
-0.130255
0.635857
1.69311
0.00471219
0.0584268
-0.240658
1.44787
1.83744
-0.14096
2.40204
1.20109
-0.0639722
2.24455
2.04444
-0.274677
3.38033
1.86204
-0.0717106
-0.0797481
0.252524
2.42087
0.0894971
1.62674
1.86112
-0.096111
1.51211
-0.490591
0.280405
-0.0801959
2.24358
1.77047
-0.0533236
1.37961
1.38414
-0.075093
1.89749
-0.220495
1.67934
-0.206891
0.908565
0.381912
1.32688
0.0195531
-0.489591
1.4021
-0.616497
2.10689
0.399605
-0.0266662
-0.566932
2.01636
-0.114982
-0.283029
2.12172
2.93538
1.29376
0.00752153
1.18045
-0.100771
-0.26535
0.604211
1.25816
-0.0966441
2.23168
-0.0244506
1.54598
-0.259504
-0.377678
2.02501
-0.138384
-0.391398
-0.168571
1.33593
2.22984
-0.0371174
-0.178228
-0.0343508
1.80741
-0.0767704
-0.239234
0.0117913
-0.0956888
1.22337
-0.122707
-0.00738376
-0.665067
-0.0541424
0.0840982
0.933622
-0.0324076
2.28998
-0.0157752
1.67721
1.34654
-0.033893
0.0670255
-0.0727194
2.24465
2.29651
2.595
-0.332608
-0.0154429
-0.107883
-0.663876
0.145
2.2648
-0.215071
-0.421645
-0.034146
-0.0457404
1.49828
0.225305
1.25721
2.45226
1.21573
-0.0428022
2.44235
-0.210808
1.57395
-0.0814801
-0.0778868
-0.20098
-0.042063
-0.164655
-0.354451
2.05763
-0.524081
-0.0160634
3.88248
-0.080569
-0.608119
1.31108
1.27045
1.85077
-0.120699
-0.210141
2.2979
2.01902
-0.0690287
-0.00403233
-0.20674
-0.367555
-0.0131831
1.76603
0.0110045
0.686494
1.0777
-0.0473967
-0.0446811
-0.176518
0.362588
-0.0253905
3.8973
-0.0126394
-0.462285
-0.191285
-0.0124793
-0.585577
-0.00551642
1.26419
0.453736
3.55309
-0.00997535
-0.0360624
-0.849174
1.23679
-0.247452
-0.0807691
2.05421
0.039955
-0.0430803
-0.163343
-0.189299
-0.0537913
1.22422
0.385915
-0.0303813
-0.12636
-0.207397
0.907346
-0.0925957
-0.0516219
-0.315239
2.45109
-0.293622
2.04024
2.30205
2.24141
-0.4061
-0.0788397
-0.687383
-0.0364593
-0.279411
-0.00296959
2.33042
2.4659
-0.012343
-0.0335949
0.195617
0.798044
-0.00629596
-0.00172573
2.28442
1.19302
1.56811
1.25894
-0.223118
1.1341
0.315869
0.831804
1.5166
1.43529
2.25667
-0.281215
1.33699
2.33924
0.830875
-0.231997
-0.491904
1.34109
-0.177877
-0.253702
1.84961
-0.0562187
2.35256
-0.185318
2.43058
0.876576
1.58801
-0.00177104
-0.0489883
2.2806
-0.0778135
0.54388
1.6961
-0.0722161
-0.0966839
1.9732
2.31705
-0.445471
-0.0183892
-0.181575
1.49722
-0.702116
1.22045
-0.132501
-0.0462156
-0.360428
-0.0595683
0.632676
-0.106297
-0.108064
-0.0744258
1.22901
-0.0460259
2.08814
1.87666
2.32347
1.50265
0.721349
-0.0643127
1.72915
2.35769
-0.149745
1.9113
-0.911288
0.166052
-0.00298307
-0.0806761
-0.340682
2.2972
2.29977
1.86483
-0.40403
-0.275525
1.24844
2.35478
-0.0483635
2.00536
-0.125214
2.00635
-0.0133066
2.01115
-0.388855
-0.0504345
-0.0121105
-1.156
-0.125245
0.90989
0.609376
3.10955
1.47104
-0.0486682
-0.309195
2.19697
-0.0454089
-0.052702
-0.695822
2.32315
2.1203
2.10794
-0.0546495
-0.096464
-0.0112567
2.03779
1.51962
-0.0792148
2.63158
-0.0735441
-0.00769706
-0.0247857
-0.26701
1.36669
-0.0080361
2.31535
-0.107
2.35388
-0.0945063
-0.00322423
1.4501
-0.58232
-0.070667
1.74005
1.29673
-0.492894
2.37561
-0.0707883
-0.177932
-0.136754
-0.0752988
-0.160776
-0.121771
2.84431
1.75663
1.98693
-0.554583
-0.114749
-0.0473764
2.32285
2.31109
-0.369048
1.2981
2.66609
0.710485
3.23021
-0.0987833
-0.103601
-0.14563
0.0233605
0.315691
1.06405
2.43821
-0.120072
3.08182
1.89619
-0.45895
-0.0291681
1.16421
2.41953
-0.418356
2.4414
2.45013
0.482788
2.1117
0.58194
-0.126735
-0.0934836
0.132628
-0.015357
-0.0130753
-0.391397
-0.0336807
0.168608
-0.12336
-0.0515273
-0.339909
-0.162073
-0.0593712
1.2251
0.938367
-0.269941
0.331428
1.11363
0.289938
-0.0822482
-0.109682
-0.454926
0.0207427
0.165058
1.27085
0.939164
2.31386
1.26614
2.38639
-0.141405
2.98429
1.43683
1.03558
1.46006
-0.172017
-0.0185476
-0.261249
3.10518
1.30827
1.68469
-0.0343779
2.90982
-0.379069
2.92203
-0.117499
0.00285346
1.32704
-0.00687712
2.32531
-0.0426797
-0.188286
-0.0959187
-0.504832
-0.0548041
0.38278
2.2955
-0.00748089
-0.0366323
-0.413468
0.0141746
1.20745
0.388533
2.29978
0.0556358
1.08468
-0.14739
2.0532
1.79854
2.41911
-0.128869
-0.117569
2.3079
-0.00464245
2.2974
-0.0401314
-0.0511977
0.617958
-0.181679
-0.380394
-0.0710996
0.238971
-0.1401
-0.124904
-0.109155
-0.0280527
-0.572833
1.22853
-0.0958836
1.49634
1.49058
-0.620944
-0.0428225
-0.196788
-0.0612696
2.60477
0.587932
2.20075
-0.119357
2.33134
0.0147036
-0.0894662
-0.00821745
0.510513
0.18706
-0.0894112
-0.0692813
3.78555
-0.121717
-0.217885
-0.268801
1.40954
-0.0744278
-0.0583689
2.25295
-0.89433
-0.0126611
3.23879
-0.114787
1.52647
0.982401
2.32138
-0.0168857
3.45831
-0.0361288
2.13683
-0.0488853
3.24942
-0.0871959
-0.0273729
-0.0275739
-0.0117905
1.15535
-0.16227
-1.01895
2.33539
-0.03669
0.245971
-0.0544368
0.992796
-0.330756
0.430458
-0.118106
-0.0606985
1.0136
1.23509
0.261098
1.26457
-0.0945775
-0.288662
2.25188
1.78434
0.679497
-0.257812
-0.0102728
-0.120619
1.71462
-0.0874281
0.182129
1.25367
2.33052
2.07232
1.48874
2.00842
-0.00797355
-0.505411
-0.216226
-0.0172483
0.00371304
2.39621
1.58809
0.133418
-0.0779368
2.21181
0.085642
-0.0663141
-0.691566
-0.0940094
0.0425331
1.0734
-0.130905
2.39767
1.51453
-1.03142
2.18953
1.734
0.270124
-0.00422667
0.337378
0.387292
2.25836
-0.0332643
-0.453509
-0.164154
1.69785
-0.00859742
-0.0891262
-0.108894
-0.136682
2.31608
1.2186
-0.150983
-0.112382
-0.0719522
2.30103
1.05407
3.03495
2.35992
1.67189
-0.0780727
-0.0973564
-0.875986
-0.643091
-0.0757882
1.9554
-0.24359
2.32489
2.9247
0.168507
1.57686
2.23788
1.71951
-0.284012
-0.0168572
-0.113753
2.25069
-0.133833
2.37846
2.12495
2.14988
2.43
0.258893
1.34241
2.2012
2.31767
-0.329762
1.26007
2.4104
-0.0196433
-0.381845
1.52172
2.23514
-0.226507
-0.346354
1.29951
0.208793
-0.107497
-0.140467
1.46826
2.31554
0.605412
1.74212
-0.0108757
1.61332
-0.149576
-0.0858201
-0.0211068
-0.0460002
1.37609
-0.0760649
2.22436
1.33804
3.78646
1.46833
1.31063
-0.0599765
-0.989091
0.213203
-0.107328
-0.00114843
-0.0998184
0.316662
-0.403067
1.29783
1.3901
-0.00794751
-0.0170528
-0.0785603
1.78172
-0.274629
2.71618
-0.127922
2.52556
-0.010185
-0.0257439
-0.273304
-0.0761067
2.40952
2.31544
-0.06833
-0.425127
0.0107032
0.0403941
-0.105845
0.391544
0.972502
-0.0029381
2.3088
2.1874
-0.0699319
-0.864851
-0.210509
-0.284162
-0.00974652
-0.0720166
-0.045895
-0.15669
2.31524
0.363805
-0.00567198
2.37123
1.0282
2.13614
-0.0656024
-0.0851824
-0.014326
2.32632
-0.072715
1.96269
1.70017
-0.0268929
-0.172825
1.30478
2.22797
2.33553
0.048663
-0.0120547
-0.444354
0.200097
2.51879
-0.277636
-0.11626
-0.386979
2.30807
-0.0222933
-0.0464242
1.94642
-0.012273
1.73998
-0.113779
-0.114566
0.312225
-0.149664
1.95256
2.4608
-0.141219
-0.0464844
1.30817
-0.0186599
2.23584
-0.248866
2.62336e-05
-0.748268
2.29512
-0.0107321
-0.183354
-0.193995
-0.0123088
-0.0276093
2.29286
-0.00342411
-0.241627
1.31364
0.572116
-0.076187
-0.153329
-0.0685711
-0.110272
1.77765
2.48106
-0.319424
0.914613
-0.513395
-0.082896
-0.00225953
-0.109316
1.68008
-0.131775
-0.288344
-0.0147702
-0.0617006
-0.0853211
2.44344
-0.0563797
-0.0162662
2.33562
2.33633
2.16495
-0.104197
0.542609
1.93618
-0.0663096
-0.0502353
-0.0395024
1.39624
-0.638387
-0.114413
0.767046
-0.138815
1.24456
2.95974
1.95095
-0.617268
1.3386
-0.0441113
0.320841
-0.292328
1.34195
0.940015
2.30508
2.34515
-0.184807
-0.105068
-0.054614
-0.275406
-0.925622
-0.167695
2.66979
0.233563
-0.22398
2.31735
-0.0307651
-0.0213026
1.58015
0.176698
-0.0589515
-0.088313
1.00201
-0.0360864
2.31432
-0.070439
1.42947
-0.454553
-0.0588418
3.90636
-0.472679
-0.084288
0.71355
-0.124284
-0.0885266
-0.0453313
-0.0812703
1.10205
-0.360342
-0.0124687
-0.193092
-1.11457
-0.0865147
2.08456
-0.137698
1.90848
-0.109117
-0.0627985
-0.195722
1.00723
-0.108029
-0.276565
2.38231
1.73827
0.575309
1.42151
-0.080616
-0.10192
2.94416
-0.0592001
-0.148639
1.43458
-0.240277
-0.501686
0.153197
-0.0357784
-0.249939
-0.118628
-0.0160936
0.0169049
2.36923
2.34781
-0.128617
2.42935
2.20236
-0.115995
2.29478
2.12849
-0.093568
3.8918
-0.443239
-0.034464
-0.160697
2.47147
-0.0353778
-0.0812518
-0.0765317
-0.965133
2.32565
-0.0797425
-0.110121
-0.0647842
-0.0109102
1.10653
-0.0149923
2.18882
-0.188646
-0.0300218
1.82547
2.46283
-0.208257
0.204847
-0.153947
-0.290665
-0.109094
2.65241
2.1753
2.35412
0.106416
-0.0165108
-0.038209
-0.250296
0.0568157
3.49319
1.0304
2.21438
2.06749
-0.281029
2.41091
1.30331
-0.902094
-0.0186155
-0.670997
-0.262356
1.41174
1.19571
-0.0141349
-0.225973
-0.0050411
-0.461656
-0.0889912
2.08201
1.45143
-0.0806957
-0.000957787
-0.0171381
-0.0767172
2.46741
-0.0546516
-0.0660661
-0.150075
0.909693
-0.129969
-0.322212
1.6837
-0.044967
1.28337
2.78519
-0.232838
-0.0517716
-0.11299
0.8631
1.90323
0.146756
-0.196588
-0.175282
-0.101155
-0.211314
0.00634203
1.66942
-0.596131
-0.199453
2.32767
-0.00309886
-0.0911814
2.14469
-0.0187738
2.33764
2.33681
3.07067
-0.36978
-0.001784
1.19353
-0.102883
2.32642
1.32516
2.29168
-0.060591
1.22545
-0.0588353
-0.119755
2.34045
-0.268022
-0.433523
-0.0615477
-0.274749
0.0173804
-0.087467
-0.00381039
1.74585
1.34856
2.15083
-0.0577722
2.29381
1.31681
0.058745
-0.384961
-0.110348
-0.0466222
-0.00340758
1.71703
-0.20279
-0.122592
1.2197
0.163215
1.1561
-0.0136714
2.12985
-0.0342221
0.809142
2.63697
1.8994
-0.265229
-0.0118754
1.91976
-0.0881246
1.20104
-0.047146
-0.00570877
-0.188172
-0.106223
2.38742
2.25029
-0.0447422
-0.119317
-0.0373087
-0.00603927
-0.247018
-0.0393398
2.34912
-0.417731
-0.0180869
2.34635
-0.160842
-0.141689
0.0030998
-0.264597
-0.194101
-0.00156396
-0.311488
-0.331207
1.22487
1.68589
-0.0452352
-0.108119
0.223454
1.30454
-0.0255748
2.23481
3.60037
-0.576699
2.31975
1.70643
-0.488933
-0.199907
1.83918
2.28579
1.9455
0.769375
1.42451
2.67931
-0.116612
0.520537
1.18149
2.07321
-0.191959
1.47674
-0.0631352
2.28179
1.06972
1.72554
-0.0467452
-0.377876
-0.0953884
2.43061
1.33297
-0.0751823
-0.0161888
2.32813
-0.015757
-0.0887093
2.1991
0.0838022
-0.0520963
-0.288801
-0.106434
-0.175751
1.6883
-0.173466
2.02574
0.847109
2.85763
1.09865
2.34958
-0.0925633
2.76117
-0.234552
2.23322
2.35031
-0.257372
1.36911
2.29366
-0.204886
-0.0415353
-0.176324
2.44813
0.890676
2.04416
-0.0523223
-0.019805
-0.152538
1.32388
-0.105248
-0.124218
1.40081
1.18546
1.33479
0.767004
-0.141693
2.94529
0.160339
3.33322
-0.767818
-0.055994
-0.0710839
-0.125457
1.78852
0.263754
2.22672
0.208221
-0.318017
2.39415
2.34349
-0.0836505
0.556239
0.970702
2.71972
-0.0940037
2.33036
-0.189173
-0.297075
-0.0465902
-0.0511321
1.20318
-0.0839992
1.92408
-0.485532
-0.100746
0.205744
-0.0165106
2.28222
1.35895
2.35231
1.14249
0.45943
0.702659
2.70795
-0.0204836
-0.180498
1.45647
0.787577
-0.490444
0.476847
2.30615
0.349466
2.81229
3.5625
-0.0859012
2.41263
-0.0824353
-0.0636003
0.908672
2.21297
-0.0776986
-0.204039
2.46918
-0.013279
2.3779
3.34746
-0.0606673
0.926817
-0.0778362
2.32576
2.58223
-1.03952
0.189965
1.3141
0.199871
0.872743
1.4916
1.23662
1.34594
1.17296
0.241348
-0.106618
-0.115591
-0.287325
1.46903
1.92306
-0.179075
-0.00172493
0.964286
0.582305
0.0905422
2.58787
-0.00425329
1.70747
-0.101018
2.0456
2.51109
-0.0152687
-0.108312
-0.0598019
2.3043
2.43899
2.38295
2.27221
1.626
-0.121611
-0.0915517
-0.180331
-0.131029
-0.0761868
0.543525
1.46345
1.5011
-0.315381
2.66544
-0.0520392
-0.462761
0.598806
-0.0341261
-0.177546
0.957731
2.29721
0.221606
-0.115526
-0.08571
0.867229
-0.073213
-0.0196852
-0.238985
-0.0108054
-0.0533939
1.38935
-0.10543
0.0548785
-0.447125
-0.137538
-0.136467
-0.0105986
2.32677
2.69119
-0.141241
2.30674
-0.0487987
-0.0573595
-0.044446
-0.0787538
-0.0847073
-0.141589
0.0909177
-0.0766151
2.03346
-0.100378
-0.0747864
0.167549
0.0418967
-0.217014
2.32674
-0.293614
2.05066
0.0233452
-0.464
-0.110953
-0.357683
-0.120578
0.0147193
2.19922
3.03013
1.38137
2.5507
2.42116
1.10721
1.39726
-0.197409
2.46376
-0.0422684
-0.138663
1.16389
2.3078
0.0172783
-0.106012
2.17131
0.520817
1.34788
3.75805
0.209213
-0.161949
2.317
1.11868
1.05985
1.24429
3.11967
2.22441
0.253985
-0.19794
1.98861
0.402203
2.20243
1.18693
1.7755
2.24623
-0.0843126
2.30123
1.62995
0.889276
2.28905
-0.0168802
1.53407