/*--------------------------------*- C++ -*----------------------------------*\
| =========                 |                                                 |
| \\      /  F ield         | OpenFOAM: The Open Source CFD Toolbox           |
|  \\    /   O peration     | Version:  3.0.1                                 |
|   \\  /    A nd           | Web:      www.OpenFOAM.org                      |
|    \\/     M anipulation  |                                                 |
\*---------------------------------------------------------------------------*/
FoamFile
{
    version     2.0;
    format      ascii;
    class       surfaceScalarField;
    location    "0.114374";
    object      phi;
}
// * * * * * * * * * * * * * * * * * * * * * * * * * * * * * * * * * * * * * //

dimensions      [0 3 -1 0 0 0 0];

internalField   nonuniform List<scalar> 
32369
(
-9.10176e-06
1.86162e-05
-9.51443e-06
-1.61264e-05
1.68377e-05
-9.81307e-06
-2.45391e-05
1.92356e-05
-1.08229e-05
-3.28248e-05
2.02101e-05
-1.19244e-05
-4.12323e-05
2.21518e-05
-1.37444e-05
-4.99669e-05
2.4984e-05
-1.62494e-05
-5.9548e-05
2.90807e-05
-1.94996e-05
-7.03782e-05
3.45026e-05
-2.36724e-05
-8.2945e-05
4.16562e-05
-2.90894e-05
-9.78087e-05
5.10284e-05
-3.61646e-05
6.33428e-05
-4.54163e-05
-0.000115735
1.56002e-07
1.84602e-05
-1.14491e-06
1.81386e-05
-6.6951e-06
2.47858e-05
-1.34713e-05
2.69863e-05
-2.18168e-05
3.04973e-05
-3.11208e-05
3.4288e-05
-4.14127e-05
3.93727e-05
-5.31738e-05
4.62637e-05
-6.6818e-05
5.53003e-05
-8.28873e-05
6.70977e-05
8.24681e-05
-0.000102013
1.34811e-06
1.71121e-05
7.61054e-07
1.87257e-05
-1.83522e-06
2.73821e-05
-5.74155e-06
3.08926e-05
-1.20091e-05
3.67648e-05
-1.98145e-05
4.20935e-05
-2.92255e-05
4.87837e-05
-4.00893e-05
5.71275e-05
-5.28488e-05
6.80599e-05
-6.79319e-05
8.21808e-05
0.000100497
-8.59606e-05
9.88044e-07
1.6124e-05
1.30493e-07
1.95832e-05
-1.03356e-06
2.85461e-05
-3.32648e-06
3.31856e-05
-7.52325e-06
4.09616e-05
-1.31602e-05
4.77305e-05
-2.05599e-05
5.61834e-05
-2.9669e-05
6.62366e-05
-4.05238e-05
7.89147e-05
-5.3476e-05
9.5133e-05
0.000115905
-6.88837e-05
7.90626e-07
1.53334e-05
-1.19753e-07
2.04936e-05
-7.99737e-07
2.92261e-05
-2.42907e-06
3.48149e-05
-5.12934e-06
4.36618e-05
-8.94443e-06
5.15456e-05
-1.43573e-05
6.15962e-05
-2.1312e-05
7.31913e-05
-2.99707e-05
8.75734e-05
-4.04333e-05
0.000105596
0.000128549
-5.30777e-05
8.55519e-07
1.44779e-05
3.25233e-07
2.10239e-05
-2.45342e-10
2.95516e-05
-1.26412e-06
3.60788e-05
-3.01966e-06
4.54174e-05
-5.61449e-06
5.41404e-05
-9.4237e-06
6.54054e-05
-1.44705e-05
7.82381e-05
-2.09942e-05
9.4097e-05
-2.91105e-05
0.000113712
0.000138439
-3.90006e-05
9.35702e-07
1.35422e-05
8.27198e-07
2.11324e-05
8.68233e-07
2.95106e-05
5.20736e-09
3.69418e-05
-1.05304e-06
4.64756e-05
-2.81134e-06
5.58987e-05
-5.37789e-06
6.7972e-05
-8.88206e-06
8.17423e-05
-1.35696e-05
9.87846e-05
-1.95675e-05
0.00011971
0.000145942
-2.70705e-05
8.87103e-07
1.26551e-05
1.09282e-06
2.09267e-05
1.41385e-06
2.91895e-05
9.73238e-07
3.73824e-05
4.85259e-07
4.69636e-05
-5.92267e-07
5.69762e-05
-2.12866e-06
6.95084e-05
-4.36014e-06
8.39738e-05
-7.45569e-06
0.00010188
-1.1493e-05
0.000123747
0.000151112
-1.66628e-05
8.7005e-07
1.1785e-05
1.40113e-06
2.03956e-05
1.98418e-06
2.86065e-05
1.95404e-06
3.74126e-05
1.95466e-06
4.6963e-05
1.46574e-06
5.74652e-05
7.6827e-07
7.02059e-05
-4.18062e-07
8.51601e-05
-2.12374e-06
0.000103586
-4.55407e-06
0.000126177
0.000154357
-7.79959e-06
1.07063e-06
1.07144e-05
1.99319e-06
1.9473e-05
2.89936e-06
2.77003e-05
3.3194e-06
3.69925e-05
3.72971e-06
4.65526e-05
3.76986e-06
5.7425e-05
3.74148e-06
7.02342e-05
3.40703e-06
8.54945e-05
2.78193e-06
0.000104211
1.73159e-06
0.000127228
0.000155963
1.25873e-07
1.21748e-06
9.49693e-06
2.47449e-06
1.8216e-05
3.689e-06
2.64858e-05
4.5685e-06
3.6113e-05
5.38152e-06
4.57396e-05
5.94265e-06
5.68639e-05
6.5237e-06
6.96532e-05
6.96203e-06
8.50562e-05
7.32185e-06
0.000103851
7.49496e-06
0.000127055
0.000155878
7.58038e-06
1.17786e-06
8.31907e-06
2.61533e-06
1.67785e-05
4.07478e-06
2.50264e-05
5.37327e-06
3.48145e-05
6.60767e-06
4.45052e-05
7.71718e-06
5.57543e-05
8.90452e-06
6.84659e-05
1.01231e-05
8.38377e-05
1.14493e-05
0.000102525
1.28606e-05
0.000125643
0.00015437
1.43682e-05
1.18257e-06
7.1365e-06
2.80843e-06
1.51527e-05
4.54025e-06
2.32946e-05
6.26845e-06
3.30863e-05
7.93275e-06
4.28409e-05
9.57997e-06
5.41071e-05
1.13449e-05
6.6701e-05
1.32762e-05
8.19063e-05
1.55149e-05
0.000100286
1.80996e-05
0.000123059
0.000151457
2.1013e-05
1.29629e-06
5.84021e-06
3.12471e-06
1.33242e-05
5.16518e-06
2.12541e-05
7.33594e-06
3.09156e-05
9.46656e-06
4.07103e-05
1.16611e-05
5.19126e-05
1.40208e-05
6.43413e-05
1.6677e-05
7.92501e-05
1.97619e-05
9.72013e-05
2.34136e-05
0.000119407
0.000147149
2.77212e-05
1.21699e-06
4.62322e-06
3.08573e-06
1.14555e-05
5.34311e-06
1.89967e-05
7.89833e-06
2.83603e-05
1.05297e-05
3.80789e-05
1.33374e-05
4.91049e-05
1.637e-05
6.13087e-05
1.98329e-05
7.57872e-05
2.38818e-05
9.31524e-05
2.86613e-05
0.000114628
0.000141421
3.43893e-05
1.12492e-06
3.4983e-06
2.99057e-06
9.58985e-06
5.43066e-06
1.65566e-05
8.36405e-06
2.5427e-05
1.15141e-05
3.49289e-05
1.49655e-05
4.56535e-05
1.87531e-05
5.75211e-05
2.30838e-05
7.14565e-05
2.81299e-05
8.81062e-05
3.41903e-05
0.000108567
0.000134101
4.15104e-05
1.0512e-06
2.4471e-06
2.89448e-06
7.74657e-06
5.49787e-06
1.39532e-05
8.78753e-06
2.21373e-05
1.2493e-05
3.12235e-05
1.66411e-05
4.15053e-05
2.12543e-05
5.2908e-05
2.65451e-05
6.61657e-05
3.273e-05
8.19213e-05
4.00714e-05
0.000101226
0.000125372
4.88001e-05
8.61779e-07
1.58532e-06
2.56012e-06
6.04823e-06
5.20915e-06
1.13042e-05
8.77921e-06
1.85672e-05
1.30133e-05
2.69894e-05
1.79046e-05
3.6614e-05
2.34647e-05
4.73478e-05
2.98732e-05
5.97572e-05
3.73402e-05
7.44543e-05
4.61441e-05
9.24218e-05
0.000114831
5.66854e-05
6.39905e-07
9.45416e-07
2.13979e-06
4.54835e-06
4.72505e-06
8.71894e-06
8.46414e-06
1.48282e-05
1.31635e-05
2.229e-05
1.88085e-05
3.0969e-05
2.53938e-05
4.07626e-05
3.30643e-05
5.20866e-05
4.20234e-05
6.54953e-05
5.25924e-05
8.18528e-05
0.000102231
6.51917e-05
4.48257e-07
4.97159e-07
1.72978e-06
3.26683e-06
4.10028e-06
6.34844e-06
7.81358e-06
1.11149e-05
1.28325e-05
1.72711e-05
1.9159e-05
2.46425e-05
2.67876e-05
3.31339e-05
3.58145e-05
4.30597e-05
4.64029e-05
5.4907e-05
5.88668e-05
6.93888e-05
8.74052e-05
7.36931e-05
3.66817e-07
1.30341e-07
1.34754e-06
2.2861e-06
3.32521e-06
4.37077e-06
6.73745e-06
7.70262e-06
1.18121e-05
1.21965e-05
1.86353e-05
1.78194e-05
2.71768e-05
2.45924e-05
3.74664e-05
3.277e-05
4.9674e-05
4.26994e-05
6.40912e-05
5.49717e-05
7.02441e-05
8.12523e-05
9.51755e-08
3.51658e-08
7.75685e-07
1.60559e-06
2.27542e-06
2.87104e-06
5.20751e-06
4.77053e-06
1.00326e-05
7.37135e-06
1.69258e-05
1.09263e-05
2.58843e-05
1.56338e-05
3.70001e-05
2.16542e-05
5.04734e-05
2.92261e-05
6.66264e-05
3.88187e-05
5.04257e-05
8.64448e-05
8.3351e-08
-4.81852e-08
4.09959e-07
1.27898e-06
1.60273e-06
1.67826e-06
4.11563e-06
2.25763e-06
8.28133e-06
3.20565e-06
1.43627e-05
4.84485e-06
2.25949e-05
7.40165e-06
3.32623e-05
1.09868e-05
4.66537e-05
1.58347e-05
6.31532e-05
2.23192e-05
3.0882e-05
8.2697e-05
-4.05409e-07
3.57223e-07
1.59015e-06
-7.16573e-07
4.01307e-06
-7.4466e-07
6.65338e-06
-3.8268e-07
9.91349e-06
-5.44615e-08
1.43724e-05
3.85973e-07
2.05951e-05
1.17889e-06
2.91092e-05
2.47273e-06
4.04355e-05
4.50847e-06
5.50815e-05
7.6732e-06
1.27219e-05
7.32415e-05
-1.39658e-05
4.45137e-06
-2.56888e-05
1.90995e-06
-3.58755e-05
-6.36282e-07
-4.43159e-05
-3.48395e-06
-5.22428e-05
-5.81747e-06
-6.04781e-05
-8.01411e-06
-6.96224e-05
-1.03553e-05
-8.01037e-05
-1.3191e-05
-9.22967e-05
-1.68965e-05
-0.00010662
-2.18414e-05
-2.85095e-05
-0.000123527
-5.84238e-06
1.02937e-05
-1.22951e-05
8.36265e-06
-2.09815e-05
8.05019e-06
-3.04361e-05
5.97064e-06
-4.02201e-05
3.96651e-06
-5.03368e-05
2.10253e-06
-6.11008e-05
4.08751e-07
-7.30902e-05
-1.20167e-06
-8.69205e-05
-3.06619e-06
-0.000103159
-5.60241e-06
-9.22928e-06
-0.00012244
-2.47773e-06
1.27715e-05
-5.99945e-06
1.18844e-05
-1.2003e-05
1.40538e-05
-1.96807e-05
1.36483e-05
-2.88649e-05
1.31507e-05
-3.91684e-05
1.24061e-05
-5.06182e-05
1.18586e-05
-6.34091e-05
1.15892e-05
-7.79603e-05
1.1485e-05
-9.47854e-05
1.12227e-05
1.03838e-05
-0.000114398
-1.60054e-06
1.4372e-05
-4.51476e-06
1.47986e-05
-8.88387e-06
1.84229e-05
-1.46608e-05
1.94253e-05
-2.22454e-05
2.07354e-05
-3.13152e-05
2.14758e-05
-4.18506e-05
2.2394e-05
-5.38607e-05
2.35993e-05
-6.75701e-05
2.51943e-05
-8.33974e-05
2.705e-05
2.89062e-05
-0.00010192
-1.43373e-06
1.58057e-05
-4.14943e-06
1.75143e-05
-7.51849e-06
2.17919e-05
-1.20066e-05
2.39134e-05
-1.80473e-05
2.67761e-05
-2.56519e-05
2.90803e-05
-3.48359e-05
3.1578e-05
-4.55905e-05
3.43539e-05
-5.80381e-05
3.7642e-05
-7.24136e-05
4.14255e-05
4.55006e-05
-8.9008e-05
-1.26292e-06
1.70687e-05
-3.73956e-06
1.99909e-05
-6.54578e-06
2.45981e-05
-1.01951e-05
2.75627e-05
-1.51064e-05
3.16874e-05
-2.12657e-05
3.52396e-05
-2.89689e-05
3.92813e-05
-3.82131e-05
4.35981e-05
-4.90777e-05
4.85066e-05
-6.16685e-05
5.40163e-05
6.0006e-05
-7.61739e-05
-1.05502e-06
1.81237e-05
-3.20714e-06
2.2143e-05
-5.57964e-06
2.69706e-05
-8.59537e-06
3.05784e-05
-1.25763e-05
3.56683e-05
-1.76262e-05
4.02895e-05
-2.39698e-05
4.56249e-05
-3.171e-05
5.13383e-05
-4.09362e-05
5.77328e-05
-5.17643e-05
6.48444e-05
7.26062e-05
-6.43646e-05
-9.79891e-07
1.91036e-05
-2.82456e-06
2.39877e-05
-4.80091e-06
2.8947e-05
-7.43989e-06
3.32174e-05
-1.05685e-05
3.87969e-05
-1.46222e-05
4.43431e-05
-1.97222e-05
5.07249e-05
-2.60122e-05
5.76283e-05
-3.36187e-05
6.53393e-05
-4.26774e-05
7.39031e-05
8.33007e-05
-5.33719e-05
-8.28773e-07
1.99323e-05
-2.42104e-06
2.558e-05
-3.86669e-06
3.03926e-05
-6.05561e-06
3.54063e-05
-8.57683e-06
4.13181e-05
-1.18044e-05
4.75707e-05
-1.58099e-05
5.47304e-05
-2.07681e-05
6.25865e-05
-2.68107e-05
7.13819e-05
-3.40604e-05
8.11528e-05
9.19452e-05
-4.27049e-05
-6.21966e-07
2.05543e-05
-1.85066e-06
2.68087e-05
-3.05499e-06
3.1597e-05
-4.69052e-06
3.70418e-05
-6.5741e-06
4.32017e-05
-9.02236e-06
5.00189e-05
-1.2026e-05
5.77341e-05
-1.57545e-05
6.6315e-05
-2.03056e-05
7.59331e-05
-2.58059e-05
8.66531e-05
9.85291e-05
-3.23898e-05
-3.46999e-07
2.09013e-05
-1.11969e-06
2.75814e-05
-1.91249e-06
3.23898e-05
-3.08219e-06
3.82115e-05
-4.37384e-06
4.44934e-05
-6.07639e-06
5.17215e-05
-8.15806e-06
5.98158e-05
-1.07405e-05
6.88974e-05
-1.38931e-05
7.90857e-05
-1.76868e-05
9.04468e-05
0.000103055
-2.22124e-05
-1.30857e-07
2.10322e-05
-6.0221e-07
2.80527e-05
-9.95968e-07
3.27835e-05
-1.65895e-06
3.88745e-05
-2.35056e-06
4.5185e-05
-3.30071e-06
5.26716e-05
-4.44098e-06
6.0956e-05
-5.87784e-06
7.03343e-05
-7.62156e-06
8.08294e-05
-9.69455e-06
9.25198e-05
0.000105481
-1.21209e-05
1.11404e-07
2.09208e-05
1.8952e-08
2.81452e-05
5.81908e-09
3.27967e-05
-1.45243e-07
3.90256e-05
-2.28549e-07
4.52683e-05
-4.33656e-07
5.28767e-05
-6.54903e-07
6.11773e-05
-9.5934e-07
7.06387e-05
-1.31851e-06
8.11885e-05
-1.70523e-06
9.29066e-05
0.000105771
-1.99518e-06
4.8441e-07
2.04364e-05
8.17895e-07
2.78117e-05
1.22493e-06
3.23896e-05
1.60181e-06
3.86487e-05
2.11269e-06
4.47574e-05
2.65381e-06
5.23356e-05
3.34256e-06
6.04885e-05
4.14033e-06
6.9841e-05
5.13701e-06
8.01919e-05
6.39163e-06
9.16519e-05
0.000104119
8.04351e-06
6.99913e-07
1.97364e-05
1.42196e-06
2.70896e-05
2.26697e-06
3.15446e-05
3.20807e-06
3.77076e-05
4.34972e-06
4.36158e-05
5.69488e-06
5.09904e-05
7.32804e-06
5.88554e-05
9.28695e-06
6.78821e-05
1.16685e-05
7.78103e-05
1.45814e-05
8.87391e-05
0.000100507
1.81937e-05
9.67629e-07
1.87688e-05
2.10434e-06
2.59529e-05
3.40479e-06
3.02442e-05
4.93158e-06
3.61808e-05
6.73291e-06
4.18144e-05
8.90985e-06
4.88135e-05
1.15172e-05
5.6248e-05
1.46566e-05
6.47426e-05
1.84505e-05
7.40164e-05
2.30143e-05
8.41753e-05
9.49717e-05
2.85493e-05
1.28151e-06
1.74873e-05
2.88175e-06
2.43527e-05
4.674e-06
2.84519e-05
6.8246e-06
3.40302e-05
9.32416e-06
3.93149e-05
1.23673e-05
4.57703e-05
1.59874e-05
5.26279e-05
2.03512e-05
6.03789e-05
2.556e-05
6.88077e-05
3.18178e-05
7.79175e-05
8.74521e-05
3.93374e-05
1.58753e-06
1.58998e-05
3.65083e-06
2.22894e-05
5.98238e-06
2.61204e-05
8.80073e-06
3.12119e-05
1.20613e-05
3.60543e-05
1.60234e-05
4.18082e-05
2.07239e-05
4.79274e-05
2.63479e-05
5.47549e-05
3.30579e-05
6.20976e-05
4.10253e-05
6.99501e-05
7.80168e-05
5.04606e-05
1.89812e-06
1.40017e-05
4.43699e-06
1.97505e-05
7.34432e-06
2.3213e-05
1.08761e-05
2.76801e-05
1.49734e-05
3.1957e-05
1.99138e-05
3.68677e-05
2.57565e-05
4.20847e-05
3.27154e-05
4.7796e-05
4.0937e-05
5.3876e-05
5.06548e-05
6.02323e-05
6.65504e-05
6.21211e-05
2.22995e-06
1.17717e-05
5.25253e-06
1.67279e-05
8.77683e-06
1.96888e-05
1.30647e-05
2.33922e-05
1.80601e-05
2.69617e-05
2.40264e-05
3.09014e-05
3.10542e-05
3.50569e-05
3.93527e-05
3.94975e-05
4.91179e-05
4.41108e-05
6.05992e-05
4.87511e-05
5.30796e-05
7.407e-05
2.57291e-06
9.19879e-06
6.07095e-06
1.32299e-05
1.02302e-05
1.55295e-05
1.52992e-05
1.83232e-05
2.12185e-05
2.10424e-05
2.82139e-05
2.3906e-05
3.64152e-05
2.68556e-05
4.60283e-05
2.98844e-05
5.7286e-05
3.2853e-05
7.04679e-05
3.55692e-05
3.76559e-05
8.58915e-05
2.88191e-06
6.31688e-06
6.84769e-06
9.26413e-06
1.16113e-05
1.07659e-05
1.73883e-05
1.25462e-05
2.4157e-05
1.42737e-05
3.20826e-05
1.59804e-05
4.13274e-05
1.76108e-05
5.21201e-05
1.90917e-05
6.47125e-05
2.02606e-05
7.94099e-05
2.08718e-05
2.05021e-05
9.65638e-05
3.55681e-06
2.76007e-06
7.87062e-06
4.95032e-06
1.29814e-05
5.65518e-06
1.91578e-05
6.36978e-06
2.64242e-05
7.00731e-06
3.49371e-05
7.46749e-06
4.48782e-05
7.6697e-06
5.64993e-05
7.47055e-06
7.00483e-05
6.71165e-06
8.57433e-05
5.17686e-06
2.67922e-06
0.000103566
3.11729e-06
7.35104e-06
1.22616e-05
1.82486e-05
2.52015e-05
3.3055e-05
4.19036e-05
5.18468e-05
6.3067e-05
7.5917e-05
9.13181e-05
1.02271e-06
1.07232e-05
-1.17459e-05
1.24297e-06
1.09202e-05
-1.11405e-05
-2.43754e-07
1.40498e-05
-1.2563e-05
-2.88964e-06
1.72168e-05
-1.45709e-05
-6.29305e-06
2.04527e-05
-1.70493e-05
-1.02989e-05
2.40494e-05
-2.00436e-05
-1.48275e-05
2.82848e-05
-2.37562e-05
-1.99225e-05
3.36138e-05
-2.85187e-05
-2.58247e-05
4.06485e-05
-3.47463e-05
-3.28133e-05
4.99209e-05
-4.29323e-05
6.21433e-05
-5.36371e-05
-4.13194e-05
4.01505e-06
6.70812e-06
6.16792e-06
8.76735e-06
7.00608e-06
1.32116e-05
6.70843e-06
1.75145e-05
5.11116e-06
2.205e-05
2.20433e-06
2.69562e-05
-1.83605e-06
3.23252e-05
-6.77379e-06
3.85515e-05
-1.25544e-05
4.64291e-05
-1.94299e-05
5.67965e-05
7.05425e-05
-2.78291e-05
3.18702e-06
3.5211e-06
5.16332e-06
6.79105e-06
7.04604e-06
1.13289e-05
8.35542e-06
1.62051e-05
8.61449e-06
2.17909e-05
7.60683e-06
2.79639e-05
5.29436e-06
3.46377e-05
1.81239e-06
4.20335e-05
-2.59869e-06
5.08402e-05
-7.89375e-06
6.20915e-05
7.70258e-05
-1.43771e-05
2.08722e-06
1.43388e-06
4.15278e-06
4.72548e-06
6.3669e-06
9.11477e-06
8.2477e-06
1.43243e-05
9.59828e-06
2.04404e-05
1.01091e-05
2.74531e-05
9.53644e-06
3.52103e-05
7.83262e-06
4.37373e-05
5.18191e-06
5.34909e-05
1.82938e-06
6.5444e-05
8.10045e-05
-2.14929e-06
1.36858e-06
6.53068e-08
3.39893e-06
2.69512e-06
5.65852e-06
6.85519e-06
7.90584e-06
1.20769e-05
9.9052e-06
1.8441e-05
1.1368e-05
2.59903e-05
1.2138e-05
3.44403e-05
1.19986e-05
4.38768e-05
1.10223e-05
5.44671e-05
9.4813e-06
6.6985e-05
8.27986e-05
7.68718e-06
7.79114e-07
-7.13807e-07
2.57628e-06
8.97958e-07
4.87723e-06
4.55423e-06
7.36286e-06
9.59132e-06
9.7957e-06
1.60082e-05
1.20195e-05
2.37665e-05
1.37309e-05
3.27289e-05
1.47994e-05
4.28083e-05
1.52056e-05
5.40609e-05
1.51637e-05
6.7027e-05
8.28971e-05
1.50653e-05
3.93485e-07
-1.10729e-06
1.66441e-06
-3.72965e-07
3.79563e-06
2.42301e-06
6.4162e-06
6.97075e-06
9.18104e-06
1.32433e-05
1.188e-05
2.10676e-05
1.43097e-05
3.02992e-05
1.63198e-05
4.07981e-05
1.7842e-05
5.25388e-05
1.90288e-05
6.58401e-05
8.16713e-05
2.02546e-05
2.70397e-07
-1.37769e-06
9.56374e-07
-1.05894e-06
2.60259e-06
7.76802e-07
5.07504e-06
4.49829e-06
7.94739e-06
1.0371e-05
1.0942e-05
1.8073e-05
1.38713e-05
2.73699e-05
1.65871e-05
3.80823e-05
1.90168e-05
5.01092e-05
2.12586e-05
6.35982e-05
7.92685e-05
2.36614e-05
1.40185e-07
-1.51787e-06
4.90085e-07
-1.40884e-06
1.59494e-06
-3.28048e-07
3.62972e-06
2.46351e-06
6.33661e-06
7.6641e-06
9.4038e-06
1.50058e-05
1.26099e-05
2.41638e-05
1.58115e-05
3.48807e-05
1.89391e-05
4.69816e-05
2.20409e-05
6.04964e-05
7.59177e-05
2.53917e-05
5.72823e-08
-1.57516e-06
2.44378e-07
-1.59594e-06
8.35366e-07
-9.19035e-07
2.26648e-06
1.03239e-06
4.59515e-06
5.33544e-06
7.50734e-06
1.20936e-05
1.07751e-05
2.0896e-05
1.42484e-05
3.14074e-05
1.78568e-05
4.33732e-05
2.16289e-05
5.67243e-05
7.17901e-05
2.57565e-05
-3.92051e-08
-1.53595e-06
-3.042e-08
-1.60472e-06
1.76571e-07
-1.12603e-06
1.01162e-06
1.97339e-07
2.80169e-06
3.54536e-06
5.36452e-06
9.53076e-06
8.47886e-06
1.77817e-05
1.20255e-05
2.78607e-05
1.59404e-05
3.94583e-05
2.02424e-05
5.24223e-05
6.69247e-05
2.51078e-05
-1.08959e-07
-1.42699e-06
-2.53313e-07
-1.46037e-06
-3.00501e-07
-1.07884e-06
-2.65935e-08
-7.6569e-08
1.09884e-06
2.41993e-06
3.1818e-06
7.4478e-06
5.96298e-06
1.50005e-05
9.40264e-06
2.44211e-05
1.34743e-05
3.53867e-05
1.81917e-05
4.77049e-05
6.14874e-05
2.3629e-05
-1.774e-07
-1.24959e-06
-4.29639e-07
-1.20813e-06
-6.40197e-07
-8.68281e-07
-7.18465e-07
1.6997e-09
-2.43201e-07
1.94467e-06
1.26946e-06
5.93514e-06
3.65692e-06
1.26131e-05
6.84861e-06
2.12294e-05
1.09414e-05
3.12938e-05
1.59665e-05
4.26798e-05
5.5489e-05
2.19648e-05
-2.28503e-07
-1.02109e-06
-5.50922e-07
-8.85711e-07
-8.69727e-07
-5.49476e-07
-1.1252e-06
2.57173e-07
-1.0729e-06
1.89236e-06
-1.96809e-07
5.05906e-06
1.77074e-06
1.06455e-05
4.68316e-06
1.83169e-05
8.71804e-06
2.7259e-05
1.39526e-05
3.74453e-05
4.903e-05
2.04116e-05
-2.36541e-07
-7.84549e-07
-6.05503e-07
-5.16749e-07
-9.87459e-07
-1.6752e-07
-1.34955e-06
6.19262e-07
-1.5243e-06
2.06711e-06
-1.1512e-06
4.68596e-06
3.26905e-07
9.16741e-06
2.96064e-06
1.56832e-05
6.94887e-06
2.32707e-05
1.23944e-05
3.19998e-05
4.21887e-05
1.92357e-05
-2.3222e-07
-5.52328e-07
-6.06367e-07
-1.42603e-07
-9.98175e-07
2.24288e-07
-1.40397e-06
1.02506e-06
-1.69224e-06
2.35538e-06
-1.57522e-06
4.56895e-06
-5.32905e-07
8.12509e-06
1.8673e-06
1.3283e-05
5.83332e-06
1.93047e-05
1.15199e-05
2.63131e-05
3.47432e-05
1.89654e-05
-2.09832e-07
-3.42496e-07
-5.64068e-07
2.11633e-07
-9.39249e-07
5.99469e-07
-1.34689e-06
1.43269e-06
-1.67422e-06
2.68271e-06
-1.6765e-06
4.57122e-06
-8.88822e-07
7.33742e-06
1.32678e-06
1.10674e-05
5.30268e-06
1.53288e-05
1.12046e-05
2.04112e-05
2.69838e-05
1.8964e-05
-1.95318e-07
-1.47178e-07
-5.24974e-07
5.41289e-07
-8.90059e-07
9.64554e-07
-1.30389e-06
1.84652e-06
-1.65951e-06
3.03833e-06
-1.72971e-06
4.64143e-06
-1.07223e-06
6.67993e-06
1.04046e-06
8.95471e-06
5.08759e-06
1.12817e-05
1.12959e-05
1.4203e-05
1.85123e-05
1.97673e-05
-1.8795e-07
4.07722e-08
-5.23069e-07
8.76408e-07
-9.3314e-07
1.37462e-06
-1.39533e-06
2.30871e-06
-1.80789e-06
3.45088e-06
-1.94259e-06
4.77614e-06
-1.34798e-06
6.08532e-06
8.08617e-07
6.79812e-06
5.05908e-06
7.03122e-06
1.16501e-05
7.61189e-06
9.44066e-06
2.07218e-05
-2.5869e-07
2.99462e-07
-6.48346e-07
1.26606e-06
-1.12769e-06
1.85397e-06
-1.62003e-06
2.80105e-06
-2.02018e-06
3.85103e-06
-2.06486e-06
4.82082e-06
-1.00207e-06
5.02253e-06
1.96222e-06
3.83383e-06
7.02406e-06
1.96938e-06
1.41707e-05
4.65221e-07
5.45478e-08
2.35568e-05
-4.05493e-07
7.04955e-07
-7.71368e-07
1.63194e-06
-1.14735e-06
2.22996e-06
-1.36401e-06
3.01771e-06
-1.11789e-06
3.6049e-06
3.45403e-07
3.35753e-06
3.89331e-06
1.47462e-06
9.20982e-06
-1.48268e-06
1.56128e-05
-4.43355e-06
2.31912e-05
-7.11321e-06
-9.14268e-06
3.23884e-05
-4.89413e-07
1.19437e-06
-6.08947e-07
1.75147e-06
-3.98739e-07
2.01975e-06
6.19028e-07
1.99995e-06
3.03409e-06
1.18984e-06
7.13906e-06
-7.47443e-07
1.20528e-05
-3.43916e-06
1.69918e-05
-6.42165e-06
2.24038e-05
-9.84555e-06
2.90235e-05
-1.37329e-05
-1.75884e-05
3.74692e-05
-3.63247e-08
1.23069e-06
1.01506e-06
7.00083e-07
2.95497e-06
7.98429e-08
5.9214e-06
-9.66484e-07
9.6285e-06
-2.51726e-06
1.3401e-05
-4.51993e-06
1.69703e-05
-7.00845e-06
2.07018e-05
-1.01532e-05
2.49752e-05
-1.4119e-05
3.03084e-05
-1.90661e-05
-2.4911e-05
3.76311e-05
3.28111e-06
-2.05042e-06
5.65588e-06
-1.67469e-06
8.15407e-06
-2.41834e-06
1.07115e-05
-3.52395e-06
1.32312e-05
-5.03691e-06
1.57289e-05
-7.01766e-06
1.83057e-05
-9.58524e-06
2.10639e-05
-1.29114e-05
2.41687e-05
-1.72237e-05
2.78964e-05
-2.27939e-05
-2.97969e-05
3.27823e-05
-7.36857e-06
-4.37732e-06
-1.21649e-05
-6.34416e-06
-1.61358e-05
-8.59208e-06
-1.96761e-05
-1.10307e-05
-2.31001e-05
-1.36253e-05
-2.66826e-05
-1.64611e-05
-3.06627e-05
-1.97762e-05
-3.52648e-05
-2.39166e-05
-4.07026e-05
-2.93085e-05
-4.719e-05
-3.6445e-05
-4.59392e-05
-5.48879e-05
-4.71655e-06
3.39231e-07
-9.20415e-06
-1.85656e-06
-1.36173e-05
-4.17889e-06
-1.79179e-05
-6.73014e-06
-2.21752e-05
-9.36797e-06
-2.65782e-05
-1.20581e-05
-3.14125e-05
-1.49419e-05
-3.6984e-05
-1.8345e-05
-4.3581e-05
-2.27115e-05
-5.14785e-05
-2.85475e-05
-3.6344e-05
-6.10737e-05
-2.14975e-06
2.48898e-06
-5.00685e-06
1.00055e-06
-8.76599e-06
-4.19757e-07
-1.3073e-05
-2.42311e-06
-1.77649e-05
-4.67611e-06
-2.28688e-05
-6.9542e-06
-2.85341e-05
-9.27663e-06
-3.5013e-05
-1.18661e-05
-4.26098e-05
-1.51147e-05
-5.16436e-05
-1.95137e-05
-2.56269e-05
-6.23607e-05
-6.87229e-07
3.17621e-06
-2.34212e-06
2.65544e-06
-5.04359e-06
2.28171e-06
-8.73224e-06
1.26555e-06
-1.32584e-05
-1.49944e-07
-1.84928e-05
-1.71986e-06
-2.44898e-05
-3.27954e-06
-3.14201e-05
-4.93581e-06
-3.95452e-05
-6.98971e-06
-4.91872e-05
-9.87157e-06
-1.40331e-05
-6.07811e-05
-2.54062e-07
3.43027e-06
-1.11772e-06
3.51909e-06
-2.70408e-06
3.86807e-06
-5.26654e-06
3.82801e-06
-8.93095e-06
3.51447e-06
-1.37065e-05
3.05568e-06
-1.9582e-05
2.59596e-06
-2.65895e-05
2.07167e-06
-3.48409e-05
1.26175e-06
-4.45682e-05
-1.44296e-07
-2.54132e-06
-5.606e-05
-9.28061e-08
3.52308e-06
-5.98058e-07
4.02434e-06
-1.54078e-06
4.81079e-06
-3.17014e-06
5.45737e-06
-5.7219e-06
6.06623e-06
-9.41257e-06
6.74634e-06
-1.43954e-05
7.57883e-06
-2.07896e-05
8.4658e-06
-2.86806e-05
9.15278e-06
-3.81906e-05
9.36574e-06
8.76002e-06
-4.9492e-05
1.30399e-09
3.52177e-06
-2.93788e-07
4.31943e-06
-8.53279e-07
5.37028e-06
-1.89442e-06
6.49852e-06
-3.65737e-06
7.82917e-06
-6.40447e-06
9.49345e-06
-1.03984e-05
1.15727e-05
-1.58636e-05
1.3931e-05
-2.29105e-05
1.61997e-05
-3.15855e-05
1.80407e-05
1.92255e-05
-4.2051e-05
2.16287e-08
3.50014e-06
-1.35569e-07
4.47663e-06
-4.40077e-07
5.67479e-06
-1.06105e-06
7.11949e-06
-2.20036e-06
8.96849e-06
-4.10897e-06
1.14021e-05
-7.09738e-06
1.45612e-05
-1.14933e-05
1.83269e-05
-1.75107e-05
2.22171e-05
-2.51574e-05
2.56874e-05
2.85052e-05
-3.4437e-05
3.05801e-08
3.46956e-06
-3.39908e-08
4.5412e-06
-1.59428e-07
5.80022e-06
-4.75632e-07
7.43569e-06
-1.13187e-06
9.62472e-06
-2.33491e-06
1.26051e-05
-4.38755e-06
1.66138e-05
-7.69629e-06
2.16356e-05
-1.2627e-05
2.71479e-05
-1.93095e-05
3.23699e-05
3.69359e-05
-2.77402e-05
4.60305e-08
3.42353e-06
5.47437e-08
4.53249e-06
5.76446e-08
5.79732e-06
-4.43711e-08
7.53771e-06
-3.39953e-07
9.9203e-06
-9.73763e-07
1.32389e-05
-2.20648e-06
1.78465e-05
-4.45066e-06
2.38798e-05
-8.21195e-06
3.09092e-05
-1.37672e-05
3.79251e-05
4.40839e-05
-2.09151e-05
9.36497e-08
3.32988e-06
1.98774e-07
4.42736e-06
2.78717e-07
5.71738e-06
3.35908e-07
7.48052e-06
3.04444e-07
9.95177e-06
9.04855e-08
1.34529e-05
-4.77886e-07
1.84149e-05
-1.74968e-06
2.51516e-05
-4.29583e-06
3.34553e-05
-8.5846e-06
4.22139e-05
5.00252e-05
-1.4526e-05
1.01312e-07
3.22857e-06
2.55387e-07
4.27329e-06
4.25916e-07
5.54685e-06
6.02741e-07
7.30369e-06
7.5669e-07
9.79782e-06
8.38019e-07
1.33715e-05
7.58183e-07
1.84947e-05
2.88354e-07
2.56214e-05
-1.08901e-06
3.48327e-05
-4.00985e-06
4.51347e-05
5.46291e-05
-8.61371e-06
1.13246e-07
3.11533e-06
3.2395e-07
4.06259e-06
5.53009e-07
5.31779e-06
8.15476e-07
7.04123e-06
1.09871e-06
9.51458e-06
1.38489e-06
1.30854e-05
1.64007e-06
1.82395e-05
1.73962e-06
2.55219e-05
1.34348e-06
3.52288e-05
-2.70618e-07
4.67488e-05
5.83416e-05
-3.9831e-06
1.41979e-07
2.97335e-06
4.00137e-07
3.80443e-06
6.74635e-07
5.04329e-06
9.9259e-07
6.72327e-06
1.35698e-06
9.15019e-06
1.76962e-06
1.26727e-05
2.23944e-06
1.77697e-05
2.73679e-06
2.50245e-05
3.08102e-06
3.48846e-05
2.7471e-06
4.70827e-05
6.02091e-05
8.79599e-07
1.4685e-07
2.8265e-06
4.25363e-07
3.52591e-06
7.18217e-07
4.75044e-06
1.05458e-06
6.38691e-06
1.44627e-06
8.7585e-06
1.91571e-06
1.22033e-05
2.50274e-06
1.71827e-05
3.26016e-06
2.42671e-05
4.15489e-06
3.39899e-05
4.88171e-06
4.63559e-05
6.06819e-05
4.40894e-06
1.51871e-07
2.67463e-06
4.28649e-07
3.24914e-06
7.11261e-07
4.46783e-06
1.03214e-06
6.06603e-06
1.41185e-06
8.3788e-06
1.88495e-06
1.17302e-05
2.5171e-06
1.65505e-05
3.41167e-06
2.33725e-05
4.65441e-06
3.27471e-05
6.15271e-06
4.48576e-05
5.97239e-05
7.11064e-06
1.50924e-07
2.5237e-06
3.98966e-07
3.00109e-06
6.50799e-07
4.21599e-06
9.37751e-07
5.77907e-06
1.28357e-06
8.03298e-06
1.72881e-06
1.12849e-05
2.35465e-06
1.59247e-05
3.29572e-06
2.24314e-05
4.71787e-06
3.1325e-05
6.71872e-06
4.28567e-05
5.74342e-05
9.0084e-06
1.30229e-07
2.39347e-06
3.34236e-07
2.79709e-06
5.5026e-07
3.99997e-06
8.02317e-07
5.52702e-06
1.10881e-06
7.72648e-06
1.51296e-06
1.08808e-05
2.0951e-06
1.53426e-05
3.00554e-06
2.1521e-05
4.44044e-06
2.98901e-05
6.5078e-06
4.07894e-05
5.50004e-05
8.94164e-06
1.09554e-07
2.28392e-06
2.80213e-07
2.62643e-06
4.7947e-07
3.80071e-06
7.11356e-07
5.29513e-06
9.88285e-07
7.44956e-06
1.34507e-06
1.0524e-05
1.87095e-06
1.48167e-05
2.72151e-06
2.06704e-05
4.11695e-06
2.84946e-05
6.26966e-06
3.86367e-05
5.17271e-05
9.54299e-06
1.21008e-07
2.16291e-06
2.94668e-07
2.45277e-06
5.04494e-07
3.59089e-06
7.39974e-07
5.05965e-06
1.0025e-06
7.18703e-06
1.32922e-06
1.01973e-05
1.82017e-06
1.43257e-05
2.62744e-06
1.98632e-05
3.94928e-06
2.71728e-05
5.85808e-06
3.67279e-05
4.94131e-05
8.17204e-06
1.76277e-07
1.98664e-06
3.79854e-07
2.24919e-06
6.27163e-07
3.34358e-06
8.90215e-07
4.7966e-06
1.17028e-06
6.90697e-06
1.52472e-06
9.84285e-06
2.07011e-06
1.37803e-05
2.97601e-06
1.89573e-05
4.41545e-06
2.57334e-05
6.59216e-06
3.45512e-05
4.62002e-05
9.80508e-06
2.05825e-07
1.78081e-06
4.60119e-07
1.9949e-06
7.64369e-07
3.03933e-06
1.08037e-06
4.4806e-06
1.44149e-06
6.54585e-06
1.94797e-06
9.33637e-06
2.74321e-06
1.29851e-05
3.99443e-06
1.77061e-05
5.88952e-06
2.38383e-05
8.66665e-06
3.1774e-05
4.19837e-05
1.28831e-05
2.87292e-07
1.49352e-06
5.69331e-07
1.71286e-06
8.38748e-07
2.76991e-06
1.1886e-06
4.13075e-06
1.71978e-06
6.01467e-06
2.5609e-06
8.49525e-06
3.85352e-06
1.16925e-05
5.75146e-06
1.58081e-05
8.43837e-06
2.11514e-05
1.20956e-05
2.81168e-05
3.72419e-05
1.68375e-05
-5.56903e-07
-5.18732e-07
-1.67159e-07
4.39638e-07
1.41739e-06
2.89498e-06
5.00222e-06
7.89897e-06
1.18266e-05
1.71495e-05
2.45945e-05
-7.8605e-06
-9.43655e-06
1.72971e-05
-1.25844e-05
-1.0872e-05
1.55959e-05
-1.65329e-05
-1.2988e-05
1.69365e-05
-2.0602e-05
-1.52131e-05
1.92821e-05
-2.47003e-05
-1.73617e-05
2.146e-05
-2.87997e-05
-1.93526e-05
2.34521e-05
-3.32724e-05
-2.11913e-05
2.5664e-05
-3.83218e-05
-2.28211e-05
2.78704e-05
-4.42073e-05
-2.41374e-05
3.0023e-05
-5.11767e-05
-2.49396e-05
3.1909e-05
-2.48665e-05
3.32562e-05
-5.95664e-05
-6.66107e-06
-2.77548e-06
-1.21481e-05
-5.38497e-06
-1.70953e-05
-8.04081e-06
-2.16775e-05
-1.06309e-05
-2.60579e-05
-1.29812e-05
-3.04483e-05
-1.49622e-05
-3.51443e-05
-1.64953e-05
-4.04464e-05
-1.7519e-05
-4.66737e-05
-1.79101e-05
-5.41773e-05
-1.7436e-05
-1.57211e-05
-6.33227e-05
-3.47584e-06
7.00354e-07
-7.55904e-06
-1.30177e-06
-1.21166e-05
-3.48325e-06
-1.69621e-05
-5.78541e-06
-2.19853e-05
-7.95799e-06
-2.71791e-05
-9.76851e-06
-3.26969e-05
-1.09774e-05
-3.87915e-05
-1.14244e-05
-4.57709e-05
-1.09307e-05
-5.39545e-05
-9.25242e-06
-5.95041e-06
-6.37253e-05
-1.81373e-06
2.51409e-06
-4.60885e-06
1.49335e-06
-8.36944e-06
2.77343e-07
-1.28071e-05
-1.34777e-06
-1.77725e-05
-2.99259e-06
-2.32238e-05
-4.31715e-06
-2.92078e-05
-4.99342e-06
-3.58569e-05
-4.77529e-06
-4.33682e-05
-3.4195e-06
-5.20044e-05
-6.16186e-07
4.17462e-06
-6.21294e-05
-1.01656e-06
3.53065e-06
-2.80943e-06
3.28622e-06
-5.59233e-06
3.06024e-06
-9.32856e-06
2.38845e-06
-1.39074e-05
1.58625e-06
-1.92309e-05
1.00634e-06
-2.52277e-05
1.00335e-06
-3.19572e-05
1.95426e-06
-3.96232e-05
4.24654e-06
-4.85323e-05
8.2929e-06
1.46392e-05
-5.89969e-05
-9.43562e-07
4.47421e-06
-2.39378e-06
4.73644e-06
-4.42364e-06
5.0901e-06
-7.2812e-06
5.24602e-06
-1.10948e-05
5.39981e-06
-1.58692e-05
5.7808e-06
-2.15772e-05
6.71132e-06
-2.82176e-05
8.59467e-06
-3.58533e-05
1.18822e-05
-4.4649e-05
1.70886e-05
2.49012e-05
-5.4911e-05
-8.91379e-07
5.36559e-06
-2.21946e-06
6.06452e-06
-4.00672e-06
6.87736e-06
-6.44251e-06
7.6818e-06
-9.68755e-06
8.64486e-06
-1.38458e-05
9.93906e-06
-1.89815e-05
1.1847e-05
-2.5133e-05
1.47462e-05
-3.23615e-05
1.91107e-05
-4.07789e-05
2.55061e-05
3.4641e-05
-5.05188e-05
-8.7422e-07
6.23981e-06
-2.10147e-06
7.29177e-06
-3.72698e-06
8.50287e-06
-5.89192e-06
9.84674e-06
-8.73801e-06
1.1491e-05
-1.24034e-05
1.36044e-05
-1.69963e-05
1.64399e-05
-2.26068e-05
2.03567e-05
-2.93232e-05
2.58271e-05
-3.72779e-05
3.34608e-05
4.40532e-05
-4.66901e-05
-8.33155e-07
7.07297e-06
-1.98619e-06
8.4448e-06
-3.4824e-06
9.99908e-06
-5.44177e-06
1.18061e-05
-7.99266e-06
1.40418e-05
-1.12663e-05
1.68781e-05
-1.53917e-05
2.05653e-05
-2.04857e-05
2.54506e-05
-2.66697e-05
3.20111e-05
-3.40957e-05
4.08867e-05
5.29252e-05
-4.29677e-05
-7.17785e-07
7.79075e-06
-1.75483e-06
9.48185e-06
-3.11638e-06
1.13606e-05
-4.89713e-06
1.35869e-05
-7.20286e-06
1.63476e-05
-1.01579e-05
1.98331e-05
-1.38909e-05
2.42984e-05
-1.85323e-05
3.0092e-05
-2.42265e-05
3.77053e-05
-3.11242e-05
4.77845e-05
6.11723e-05
-3.93713e-05
-6.11026e-07
8.40178e-06
-1.54044e-06
1.04113e-05
-2.76749e-06
1.25877e-05
-4.37334e-06
1.51927e-05
-6.45529e-06
1.84295e-05
-9.12684e-06
2.25046e-05
-1.25102e-05
2.76818e-05
-1.67372e-05
3.4319e-05
-2.19492e-05
4.29172e-05
-2.83052e-05
5.41406e-05
6.88799e-05
-3.60128e-05
-5.95878e-07
8.99766e-06
-1.45296e-06
1.12683e-05
-2.56377e-06
1.36985e-05
-4.00824e-06
1.66372e-05
-5.8788e-06
2.03001e-05
-8.27706e-06
2.49029e-05
-1.13177e-05
3.07224e-05
-1.51321e-05
3.81334e-05
-1.98584e-05
4.76436e-05
-2.5652e-05
5.99341e-05
7.58718e-05
-3.2644e-05
-5.3863e-07