/*--------------------------------*- C++ -*----------------------------------*\
| =========                 |                                                 |
| \\      /  F ield         | OpenFOAM: The Open Source CFD Toolbox           |
|  \\    /   O peration     | Version:  3.0.1                                 |
|   \\  /    A nd           | Web:      www.OpenFOAM.org                      |
|    \\/     M anipulation  |                                                 |
\*---------------------------------------------------------------------------*/
FoamFile
{
    version     2.0;
    format      ascii;
    class       surfaceVectorField;
    location    "0.0985148";
    object      Uf;
}
// * * * * * * * * * * * * * * * * * * * * * * * * * * * * * * * * * * * * * //

dimensions      [0 1 -1 0 0 0 0];

internalField   nonuniform List<vector> 
32369
(
(3.59184 3.51093 0)
(4.64041 3.89405 -4.55277e-18)
(2.94644 5.17937 0)
(2.99097 3.17759 -1.60716e-20)
(3.60876 1.99549 -1.17044e-18)
(2.12644 3.7377 0)
(2.73865 2.64314 -1.25268e-19)
(3.49253 2.2093 7.14212e-19)
(2.02336 2.97803 3.64012e-19)
(2.49094 2.09974 -6.62531e-20)
(3.15706 1.93326 1.56744e-19)
(1.9735 2.31656 -5.76045e-20)
(2.3077 1.65312 1.88761e-19)
(2.78535 1.60447 1.62681e-19)
(1.94796 1.81999 9.46044e-19)
(2.1836 1.3006 1.02219e-19)
(2.51804 1.31585 6.61098e-20)
(1.93442 1.43995 -7.77238e-20)
(2.09813 1.02583 -3.14389e-20)
(2.33256 1.06102 -1.18222e-19)
(1.92246 1.14204 -3.83852e-19)
(2.03854 0.810324 1.04876e-19)
(2.20574 0.847138 1.02881e-19)
(1.91082 0.906477 1.28786e-19)
(1.99723 0.639656 -1.44527e-20)
(2.11889 0.671134 -2.64313e-20)
(1.90154 0.7183 -4.22352e-20)
(1.96927 0.503341 4.08434e-20)
(2.05939 0.52823 2.3045e-20)
(1.89537 0.567987 -1.56776e-19)
(2.01877 0.421869 4.80502e-20)
(1.8871 0.453306 2.50774e-19)
(1.94481 0.386942 3.28848e-20)
(3.36953 1.25182 -5.37854e-18)
(3.16573 2.18264 -1.23843e-17)
(3.63116 1.58064 -2.29576e-18)
(3.01055 0.270658 5.35571e-18)
(3.57809 1.63147 5.30069e-19)
(3.73689 1.02048 3.17652e-19)
(3.29545 1.55515 5.11216e-19)
(3.67105 1.09114 2.50001e-19)
(2.95092 1.37152 2.11146e-19)
(3.36219 1.05419 9.60844e-19)
(2.66293 1.14596 -1.38074e-19)
(3.01478 0.980764 -1.1093e-18)
(2.4456 0.928542 -5.6373e-20)
(2.71666 0.851651 2.88941e-19)
(2.29146 0.739738 -1.1251e-20)
(2.48999 0.709972 -3.38474e-20)
(2.18415 0.583837 4.91077e-21)
(2.32707 0.574687 1.54203e-20)
(2.10934 0.458842 7.26017e-22)
(2.21159 0.456392 -1.25867e-20)
(2.13026 0.367147 -1.43875e-20)
(2.04895 0.360238 -8.30517e-20)
(2.29149 0.324316 2.22725e-19)
(1.68549 1.37069 -1.69195e-19)
(3.11918 0.243206 6.45019e-18)
(2.00907 -0.377312 5.528e-18)
(3.475 0.42661 1.33764e-19)
(3.1367 0.140262 2.1279e-19)
(3.50814 0.638308 7.49081e-19)
(3.41645 0.221229 1.98688e-18)
(3.30539 0.750879 2.06481e-19)
(3.42243 0.350669 2.55906e-19)
(3.0138 0.755207 -8.95201e-19)
(3.22516 0.468767 -1.58787e-18)
(2.74227 0.684357 2.82794e-19)
(2.95495 0.498781 1.18254e-19)
(2.52168 0.581185 1.66491e-20)
(2.7029 0.471603 2.61123e-20)
(2.35669 0.474075 -1.61261e-20)
(2.49784 0.4119 -2.06874e-19)
(2.23746 0.376753 -2.66073e-20)
(2.34265 0.343039 1.03796e-19)
(2.22984 0.289533 1.26064e-20)
(2.14318 0.295268 -3.06606e-20)
(1.24605 0.315848 8.09125e-18)
(0.511453 1.25465 1.6166e-17)
(2.27665 -0.215394 2.58341e-20)
(1.19085 -0.238196 -4.12056e-18)
(2.90894 -0.245408 1.83845e-18)
(2.35485 -0.19674 -2.65235e-18)
(3.22867 -0.0926023 1.47682e-18)
(2.8475 -0.294184 6.1518e-18)
(3.26966 0.0991352 -1.08896e-18)
(3.1231 -0.191343 -6.31509e-19)
(3.11733 0.254208 -9.34332e-19)
(3.1356 -0.0206421 -2.00009e-18)
(2.89385 0.330984 -1.21734e-19)
(2.98819 0.107004 -3.28742e-20)
(2.67334 0.339562 -1.68814e-19)
(2.78997 0.179869 4.92161e-19)
(2.48511 0.308944 -2.07228e-19)
(2.59488 0.201589 -5.5423e-19)
(2.33519 0.26361 1.51752e-19)
(2.42847 0.193029 1.23853e-19)
(2.29434 0.18437 -1.00949e-19)
(2.20503 0.226879 3.75683e-20)
(0.401987 0.695956 5.99655e-18)
(-0.397388 1.51935 1.07749e-17)
(1.47423 -0.10124 -6.86357e-18)
(0.568321 0.204657 -6.67077e-19)
(2.24333 -0.402763 1.32312e-18)
(1.66515 -0.153123 -5.61763e-18)
(2.74172 -0.448783 4.37138e-18)
(2.26838 -0.444134 3.84871e-18)
(2.97987 -0.341056 -1.51508e-18)
(2.70059 -0.46762 -2.53352e-19)
(2.99603 -0.171053 -1.29494e-18)
(2.87509 -0.354146 -2.53579e-18)
(2.88093 -0.0236929 5.51452e-19)
(2.86199 -0.214504 1.27422e-18)
(2.71404 0.0686675 3.09287e-19)
(2.75366 -0.0940367 -4.15056e-19)
(2.54485 0.110589 -3.71118e-19)
(2.6063 -0.0146876 7.05719e-20)
(2.39199 0.12103 -9.55289e-20)
(2.45862 0.0271525 4.29686e-19)
(2.3285 0.0599086 -3.60575e-19)
(2.24446 0.124011 -4.70632e-19)
(-0.270493 1.18156 5.2529e-18)
(-1.07429 1.99297 2.26775e-18)
(0.796491 0.237766 1.31891e-18)
(0.0335484 0.74458 3.5526e-18)
(1.63091 -0.267323 -3.44617e-18)
(1.06387 0.102441 -4.28169e-18)
(2.23348 -0.503853 -4.56286e-19)
(1.75149 -0.353052 1.53395e-18)
(2.60211 -0.532523 -1.17436e-18)
(2.27919 -0.526038 0)
(2.75254 -0.432099 -2.91692e-19)
(2.56539 -0.516123 -1.31007e-18)
(2.74974 -0.293999 4.93769e-19)
(2.66016 -0.421254 2.23002e-19)
(2.65958 -0.170946 -6.3671e-19)
(2.63777 -0.302735 1.66273e-19)
(2.53369 -0.0831705 8.22147e-19)
(2.54959 -0.200284 4.25138e-19)
(2.40185 -0.0293323 3.13002e-19)
(2.43714 -0.128896 6.38381e-19)
(2.32505 -0.0637544 -4.74926e-19)
(2.26088 0.0143646 -1.40439e-19)
(-0.804909 1.73692 4.41819e-19)
(-1.54668 2.58141 -2.25895e-19)
(0.237363 0.68806 -1.01792e-18)
(-0.434488 1.32888 -2.49842e-19)
(1.10339 0.0198222 1.21759e-19)
(0.543529 0.486545 -1.95992e-18)
(1.77231 -0.379468 2.0844e-18)
(1.29836 -0.116012 1.88592e-18)
(2.22867 -0.54563 0)
(1.89376 -0.437425 0)
(2.4762 -0.542685 -8.27876e-19)
(2.26223 -0.544769 0)
(2.56291 -0.45505 -7.31259e-20)
(2.43956 -0.521663 -9.26513e-19)
(2.54556 -0.344094 1.13152e-18)
(2.4874 -0.436019 1.0165e-18)
(2.47158 -0.244845 2.20671e-19)
(2.45432 -0.338769 -1.1289e-18)
(2.37087 -0.166908 1.17696e-20)
(2.37982 -0.25793 4.18217e-20)
(2.29424 -0.175346 -6.78237e-21)
(2.24228 -0.0933592 5.3919e-19)
(-1.22341 2.33499 -9.05078e-19)
(-1.84249 3.19372 -1.59824e-18)
(-0.217295 1.20828 -9.85349e-19)
(-0.835006 1.91792 -2.92233e-19)
(0.661202 0.398513 -4.84904e-19)
(0.109244 0.941832 -4.40416e-19)
(1.37479 -0.14853 0)
(0.908978 0.205559 1.01553e-18)
(1.89373 -0.446658 0)
(1.55221 -0.256032 -7.76907e-19)
(2.21256 -0.547341 0)
(1.98394 -0.482067 0)
(2.36699 -0.526828 0)
(2.22628 -0.54208 0)
(2.40746 -0.449876 -1.00196e-18)
(2.32998 -0.505686 0)
(2.37962 -0.360499 -1.43929e-18)
(2.34278 -0.430426 -7.05328e-19)
(2.31364 -0.276977 4.75399e-20)
(2.30206 -0.354088 8.30523e-19)
(2.2434 -0.266841 3.60021e-21)
(2.20649 -0.185094 5.76794e-19)
(-1.5457 2.92516 -1.12157e-18)
(-2.02124 3.78394 -1.21869e-18)
(-0.591312 1.75352 2.64961e-19)
(-1.18071 2.48966 1.23897e-18)
(0.285487 0.824095 9.12703e-19)
(-0.256483 1.42505 -6.01279e-19)
(1.03116 0.144198 4.46997e-19)
(0.562601 0.572164 1.01808e-18)
(1.59795 -0.279194 -8.59423e-19)
(1.24287 -0.0201257 -7.7819e-19)
(1.97299 -0.483568 0)
(1.72732 -0.360758 0)
(2.18115 -0.536388 0)
(2.02514 -0.507703 -7.13688e-19)
(2.26732 -0.503652 3.40774e-19)
(2.17611 -0.528496 4.68276e-20)
(2.27654 -0.435651 1.29463e-18)
(2.22728 -0.484491 1.09879e-18)
(2.23999 -0.358265 8.3015e-19)
(2.21558 -0.421311 2.12028e-19)
(2.18084 -0.337034 1.31241e-20)
(2.164 -0.267505 4.52805e-19)
(-1.8143 3.51347 8.99986e-19)
(-2.16536 4.29186 -2.62334e-19)
(-0.926697 2.30069 6.31907e-19)
(-1.4889 3.01685 8.50016e-19)
(-0.0613838 1.27291 -6.63611e-19)
(-0.595338 1.91748 -6.03347e-19)
(0.706671 0.473935 0)
(0.22625 0.966863 0)
(1.31798 -0.0673914 0)
(0.936966 0.258523 3.04987e-19)
(1.74541 -0.374488 -6.38026e-19)
(1.47371 -0.195101 2.25874e-19)
(2.00327 -0.503894 -7.3104e-19)
(1.82601 -0.432678 -1.70167e-18)
(2.13035 -0.520707 7.08354e-19)
(2.02311 -0.516509 8.51826e-20)
(2.17133 -0.480147 1.43434e-19)
(2.11022 -0.509811 1.06891e-18)
(2.16006 -0.415442 -5.4673e-19)
(2.12529 -0.464854 -1.17579e-18)
(2.1137 -0.391681 3.01077e-19)
(2.108 -0.334791 2.47369e-19)
(-2.01612 3.94227 -4.64437e-19)
(-2.24062 4.60794 -9.75171e-19)
(-1.24183 2.78809 -2.14242e-19)
(-1.76319 3.47817 5.57146e-19)
(-0.405645 1.72656 0)
(-0.93455 2.42391 0)
(0.379855 0.836251 2.73984e-19)
(-0.120347 1.40038 9.79026e-19)
(1.03252 0.183468 5.39954e-19)
(0.621696 0.582382 -5.87135e-19)
(1.51279 -0.22737 -6.3348e-19)
(1.20935 0.0153922 2.1882e-19)
(1.82206 -0.437984 -1.04893e-18)
(1.61698 -0.318961 -9.76423e-19)
(1.99129 -0.509652 3.7039e-19)
(1.86259 -0.473444 2.52781e-19)
(2.06375 -0.500913 -2.4696e-21)
(1.98727 -0.510603 2.3003e-20)
(2.07727 -0.451884 -4.97802e-19)
(2.02954 -0.487409 -2.07743e-19)
(2.03729 -0.425391 -3.02922e-19)
(2.0535 -0.379443 -4.44048e-21)
(-2.13288 4.21433 8.8419e-20)
(-2.21414 4.75392 -1.54446e-18)
(-1.51375 3.24009 8.30577e-19)
(-1.96334 3.87149 1.48263e-18)
(-0.740383 2.2011 8.82004e-19)
(-1.2422 2.92061 0)
(0.0490009 1.23677 2.97587e-19)
(-0.459273 1.86633 5.99003e-19)
(0.737459 0.477307 -1.00621e-18)
(0.30085 0.952119 -1.45643e-18)
(1.26776 -0.0398078 2.06084e-21)
(0.931828 0.272576 -2.07314e-19)
(1.62877 -0.338244 2.10452e-19)
(1.39183 -0.164383 7.79299e-19)
(1.84248 -0.47198 -6.75318e-20)
(1.68699 -0.398007 4.34843e-19)
(1.94857 -0.50046 -1.64194e-19)
(1.85178 -0.486967 -4.77005e-19)
(1.98692 -0.470249 -2.65028e-21)
(1.92385 -0.491014 4.38082e-19)
(1.95155 -0.443633 -5.39869e-19)
(1.98675 -0.411742 4.59253e-19)
(-2.17012 4.43585 -2.38609e-20)
(-2.14043 4.83289 -1.04659e-18)
(-1.71702 3.65766 8.00722e-19)
(-2.05149 4.1769 7.29046e-19)
(-1.04418 2.68864 -3.44135e-19)
(-1.48474 3.38269 1.2545e-19)
(-0.277836 1.67849 -9.19345e-19)
(-0.774515 2.35463 -8.40041e-19)
(0.432904 0.820065 -8.00636e-19)
(-0.0220119 1.3685 -1.34514e-19)
(1.00623 0.194079 4.67867e-19)
(0.639105 0.580454 -1.95846e-19)
(1.41656 -0.199833 1.04099e-18)
(1.14533 0.0358592 3.40296e-19)
(1.67606 -0.404576 1.13036e-19)
(1.48894 -0.285665 4.32422e-19)
(1.81883 -0.477732 2.27813e-20)
(1.69614 -0.435477 -2.50066e-21)
(1.88457 -0.471431 5.79939e-21)
(1.8023 -0.473936 2.0785e-19)
(1.85436 -0.446292 -2.53012e-19)
(1.90546 -0.426857 3.50253e-19)
(-2.14672 4.60337 -2.55136e-19)
(-2.0664 4.90188 7.32543e-19)
(-1.82894 4.00667 1.13084e-19)
(-2.06562 4.40722 6.63775e-19)
(-1.29153 3.15657 -2.68072e-19)
(-1.64553 3.77688 -1.00225e-18)
(-0.589958 2.15285 -1.43117e-19)
(-1.04974 2.84461 -1.68475e-19)
(0.119256 1.21588 4.65394e-19)
(-0.339855 1.82935 9.53249e-20)
(0.723843 0.481805 -3.82939e-19)
(0.331676 0.944778 4.00551e-19)
(1.17837 -0.0148869 -2.78701e-19)
(0.873912 0.289823 -4.29086e-19)
(1.48353 -0.300417 3.65469e-19)
(1.26184 -0.12786 2.38247e-20)
(1.66655 -0.427277 1.60937e-19)
(1.5123 -0.348091 3.16563e-20)
(1.76521 -0.451032 0)
(1.65691 -0.429055 1.92936e-19)
(1.73846 -0.423132 0)
(1.81827 -0.426418 7.70295e-19)
(-2.10182 4.723 1.66487e-18)
(-1.99708 4.96832 1.02532e-18)
(-1.87474 4.26342 -1.96418e-19)
(-2.04308 4.57269 6.69181e-19)
(-1.46839 3.56223 -9.86192e-19)
(-1.72862 4.08695 -1.62831e-18)
(-0.867463 2.62927 1.98791e-20)
(-1.26417 3.29541 6.63142e-19)
(-0.191364 1.65385 -2.30249e-20)
(-0.635388 2.31073 -6.51729e-19)
(0.425118 0.82352 4.43732e-19)
(0.0177272 1.35852 6.02368e-19)
(0.912941 0.222098 -1.69998e-19)
(0.57848 0.600297 8.65351e-21)
(1.25962 -0.1514 -3.05005e-19)
(1.00166 0.083693 -6.3981e-21)
(1.48437 -0.340466 5.37875e-20)
(1.29331 -0.214142 -2.61086e-19)
(1.62045 -0.40173 2.15048e-19)
(1.47989 -0.346505 1.89287e-19)
(1.59881 -0.371259 -1.01112e-19)
(1.70339 -0.397995 0)
(-2.04812 4.82275 6.77045e-20)
(-1.92593 5.03285 5.72007e-20)
(-1.87678 4.46083 -4.39657e-19)
(-2.00168 4.70323 -3.59037e-23)
(-1.57511 3.90074 -2.00596e-19)
(-1.75527 4.32991 -4.95099e-19)
(-1.09275 3.0811 1.26787e-19)
(-1.41088 3.68577 6.5557e-19)
(-0.487709 2.11832 -1.89676e-19)
(-0.893862 2.78655 -6.15368e-19)
(0.113489 1.21812 2.29656e-19)
(-0.295294 1.81475 2.99631e-19)
(0.61833 0.518334 1.74798e-19)
(0.25936 0.972405 2.20276e-22)
(0.998395 0.0537578 6.24775e-20)
(0.70446 0.360358 1.85629e-19)
(1.26493 -0.204758 -1.67688e-19)
(1.0329 -0.0182551 -3.16134e-19)
(1.44365 -0.312073 -9.59709e-20)
(1.26387 -0.210734 8.63443e-20)
(1.42845 -0.273847 -1.02103e-19)
(1.56767 -0.336676 -3.48413e-19)
(-1.98722 4.91609 -4.78466e-21)
(-1.85451 5.09523 9.36055e-19)
(-1.85192 4.62756 -5.85238e-21)
(-1.95224 4.818 -7.27177e-19)
(-1.62805 4.1837 2.47967e-19)
(-1.75176 4.52488 5.16813e-19)
(-1.26116 3.48976 5.13406e-20)
(-1.50232 4.01019 -2.81462e-20)
(-0.756608 2.59144 -2.32448e-19)
(-1.10773 3.23528 -1.4877e-19)
(-0.205984 1.66365 1.01393e-19)
(-0.597858 2.29998 1.33025e-21)
(0.29292 0.883844 -9.78623e-21)
(-0.0793252 1.41061 -1.47466e-19)
(0.695969 0.331649 -1.50643e-19)
(0.369787 0.718485 1.81986e-19)
(1.00181 -0.00163524 -9.81002e-20)
(0.728377 0.259401 -1.10185e-19)
(1.22778 -0.164979 1.02259e-19)
(1.00473 -0.000669842 9.24578e-20)
(1.22027 -0.117184 0)
(1.39571 -0.230435 0)
(-1.92619 4.99932 1.57947e-19)
(-1.78447 5.15235 9.25433e-19)
(-1.81754 4.76173 -3.29396e-19)
(-1.9013 4.91432 -7.15274e-19)
(-1.65221 4.40773 2.96655e-19)
(-1.73797 4.67715 7.82993e-19)
(-1.38454 3.84102 -2.05589e-19)
(-1.56398 4.27106 -5.08893e-19)
(-0.993316 3.0485 6.53066e-20)
(-1.28425 3.63514 -2.36981e-21)
(-0.523515 2.14758 -2.3682e-19)
(-0.883075 2.79287 -1.01883e-19)
(-0.0563814 1.32428 8.85133e-21)
(-0.42823 1.91252 2.73428e-19)
(0.353968 0.699202 2.57274e-19)
(0.00472261 1.17087 3.40021e-21)
(0.695418 0.291004 6.8305e-20)
(0.38428 0.642325 3.69416e-20)
(0.971325 0.0612203 0)
(0.704623 0.30889 1.82157e-20)
(0.975994 0.125513 -9.31137e-20)
(1.19256 -0.0558945 0)
(-1.8649 5.0714 0)
(-1.7115 5.19399 0)
(-1.78081 4.86962 2.41018e-19)
(-1.8473 4.98361 0)
(-1.66691 4.58549 1.10526e-19)
(-1.72562 4.78408 2.69504e-19)
(-1.48664 4.13567 -3.62437e-19)
(-1.6234 4.47257 1.28551e-20)
(-1.20685 3.4745 -1.63679e-19)
(-1.44936 3.98528 -1.47433e-19)
(-0.835385 2.65793 3.74517e-19)
(-1.15467 3.28313 0)
(-0.421646 1.84419 2.9794e-19)
(-0.776048 2.47712 6.75437e-20)
(-0.0158104 1.17477 -2.31156e-19)
(-0.373678 1.73449 -6.2375e-20)
(0.352563 0.69777 -1.01649e-20)
(0.0148514 1.15273 -8.22136e-20)
(0.676037 0.393792 -6.27726e-20)
(0.371487 0.745729 2.12136e-19)
(0.698192 0.484343 1.22929e-19)
(0.954513 0.207251 1.49535e-19)
(-1.7989 5.11306 0)
(-1.62973 5.20404 5.9152e-19)
(-1.74471 4.92882 2.50976e-21)
(-1.79354 5.00209 0)
(-1.68896 4.70362 1.93604e-19)
(-1.73406 4.82862 -7.94238e-19)
(-1.59842 4.37578 2.42144e-19)
(-1.706 4.60582 7.83437e-19)
(-1.42445 3.87211 0)
(-1.61777 4.28501 0)
(-1.14054 3.19112 -3.16133e-19)
(-1.41786 3.78713 -4.21066e-19)
(-0.785964 2.44874 -2.71912e-19)
(-1.10032 3.10515 -4.80284e-19)
(-0.397819 1.7754 7.72508e-20)
(-0.735088 2.41329 6.16127e-20)
(-0.0106551 1.24372 1.08842e-19)
(-0.350477 1.8095 -3.21363e-19)
(0.350927 0.862668 3.75768e-19)
(0.0241428 1.33515 -3.17038e-19)
(0.384006 0.989957 2.3479e-19)
(0.674124 0.592314 2.67385e-19)
(-1.73339 5.08547 6.43499e-19)
(-1.56024 5.14123 9.03771e-19)
(-1.7335 4.91456 -6.86196e-19)
(-1.77654 4.92306 0)
(-1.75 4.74575 -3.51434e-19)
(-1.79923 4.79214 -7.14364e-19)
(-1.73587 4.546 6.22503e-19)
(-1.81747 4.67975 2.88891e-19)
(-1.63964 4.25341 -3.73614e-19)
(-1.75856 4.53341 3.30497e-19)
(-1.42498 3.77388 -5.77855e-19)
(-1.60599 4.26985 1.03454e-19)
(-1.11043 3.14154 -1.74492e-19)
(-1.34003 3.78334 1.16148e-19)
(-0.745421 2.5084 -3.23351e-19)
(-1.01086 3.17857 3.34371e-19)
(-0.359936 1.94608 -6.84703e-19)
(-0.654201 2.59425 -2.22214e-19)
(0.0123852 1.49296 -4.7236e-19)
(-0.29366 2.07393 9.51956e-20)
(0.061879 1.64391 5.49499e-20)
(0.358133 1.17897 6.84448e-20)
(-1.72585 4.89455 3.61234e-19)
(-1.70648 4.87789 -1.58287e-19)
(-1.80986 4.77724 -1.08519e-21)
(-1.81103 4.67437 2.79418e-19)
(-1.87082 4.72505 -2.23274e-19)
(-1.81617 4.64271 1.66992e-19)
(-1.8612 4.67742 1.44389e-20)
(-1.77476 4.65086 -9.60817e-20)
(-1.76332 4.56867 7.67746e-19)
(-1.66946 4.63877 -3.70225e-19)
(-1.57777 4.31612 7.19161e-19)
(-1.51052 4.54213 2.39679e-19)
(-1.30554 3.8694 4.86633e-19)
(-1.28929 4.27664 2.37818e-19)
(-0.977426 3.31164 2.60321e-19)
(-1.02501 3.84449 2.78081e-19)
(-0.627864 2.75989 2.2068e-19)
(-0.747655 3.3534 7.61675e-20)
(-0.284287 2.26363 4.63442e-19)
(-0.461428 2.85892 3.02529e-19)
(-0.136072 2.40227 0)
(0.0445869 1.82502 0)
(-1.69293 4.72957 -2.04616e-19)
(-1.20476 3.36677 -1.66265e-18)
(-1.72136 4.66552 6.59389e-19)
(-1.018 3.50651 -3.05101e-20)
(-1.67107 4.66805 4.3372e-19)
(-0.841015 3.52743 6.64469e-20)
(-1.55792 4.69829 -8.70052e-19)
(-0.690387 3.54147 5.12218e-19)
(-1.39824 4.70053 -1.20172e-18)
(-0.548155 3.55287 -1.36279e-20)
(-1.20982 4.60679 -2.30359e-19)
(-0.419424 3.55032 -2.55108e-19)
(-1.00444 4.36552 0)
(-0.308166 3.50317 2.60744e-19)
(-0.784807 3.98489 1.16594e-19)
(-0.224232 3.39627 3.3104e-19)
(-0.563931 3.52562 -2.3979e-20)
(-0.147862 3.22063 -1.58886e-20)
(-0.356736 3.06369 -3.67553e-19)
(-0.0679916 2.97261 -1.03119e-19)
(0.0596987 2.62299 8.18803e-20)
(-0.109515 2.76757 0)
(-0.552445 2.34285 -1.53035e-18)
(1.25214 1.31983 -9.26327e-19)
(-0.285665 2.39511 -4.61941e-19)
(1.07382 1.32594 -1.59348e-19)
(-0.0644174 2.39416 1.049e-19)
(1.07442 1.26546 1.14462e-18)
(0.118286 2.37535 1.02811e-18)
(1.10621 1.24771 -7.11377e-19)
(0.243128 2.36827 2.76315e-19)
(1.11545 1.24489 3.37806e-19)
(0.302827 2.40244 -2.05547e-19)
(1.09006 1.25888 -1.95378e-19)
(0.311816 2.48491 5.74586e-19)
(1.02488 1.29465 3.73859e-19)
(0.299701 2.58128 3.8977e-19)
(0.939519 1.34643 3.28724e-19)
(0.293896 2.63757 -9.06071e-20)
(0.875381 1.3957 -5.88033e-20)
(0.321716 2.6001 1.63135e-19)
(0.86259 1.42482 8.10053e-20)
(0.905471 1.42909 3.02434e-19)
(0.426389 2.45688 3.66385e-19)
(-0.0936038 4.60106 0)
(-1.40842 2.50607 -5.70113e-19)
(0.644261 3.41167 6.10767e-19)
(-0.546698 2.80713 0)
(1.15625 2.6525 7.52615e-19)
(0.270715 2.61422 1.17433e-18)
(1.45604 2.08932 8.181e-19)
(0.834816 2.2198 -9.50737e-19)
(1.62305 1.65629 8.98445e-19)
(1.18594 1.83089 1.33e-18)
(1.7115 1.31814 -4.13276e-19)
(1.40977 1.48512 -6.05916e-19)
(1.75837 1.04983 -2.71158e-19)
(1.5472 1.18899 -6.49855e-19)
(1.78573 0.835586 0)
(1.6332 0.944414 0)
(1.80456 0.663978 -1.69487e-19)
(1.69066 0.746766 0)
(1.81976 0.525737 -6.43338e-20)
(1.73088 0.589845 -5.38422e-20)
(1.75687 0.471426 3.68235e-19)
(1.82772 0.412113 5.19255e-20)
(-1.78747 1.53396 -5.33149e-19)
(-2.49665 0.341177 -4.4197e-19)
(-1.00452 2.13248 5.59692e-20)
(-1.35325 1.11865 -4.79381e-19)
(-0.170243 2.12739 -6.84502e-19)
(-0.84116 1.44587 -1.01009e-18)
(0.472578 1.8954 -8.45577e-19)
(-0.142897 1.60968 -8.02189e-19)
(0.918401 1.60951 -2.09854e-19)
(0.421641 1.55741 5.48686e-19)
(1.212 1.3263 -7.59447e-19)
(0.844845 1.37095 -3.53763e-19)
(1.40129 1.07054 -4.40856e-19)
(1.13428 1.14263 -5.65254e-19)
(1.52417 0.853481 0)
(1.32811 0.925564 2.67326e-19)
(1.60661 0.675798 1.15547e-19)
(1.46139 0.738125 0)
(1.66579 0.531984 1.80114e-19)
(1.55364 0.584003 3.0254e-20)
(1.61223 0.464564 -9.83406e-20)
(1.70612 0.406595 2.92676e-20)
(-1.67038 0.181315 -3.98919e-19)
(-2.15625 -0.490675 1.50688e-18)
(-1.39097 0.603084 -1.22193e-18)
(-1.18391 -0.0102575 -1.02133e-18)
(-0.899395 1.01663 -9.04997e-19)
(-1.11612 0.364668 -1.80728e-18)
(-0.306194 1.27827 5.49727e-19)
(-0.65506 0.752985 -3.59536e-19)
(0.269187 1.30551 6.88578e-19)
(-0.163465 0.961118 9.20151e-19)
(0.723622 1.18046 -4.99588e-20)
(0.319329 1.01459 8.95246e-20)
(1.04026 0.997658 1.68708e-19)
(0.714757 0.950135 2.61106e-19)
(1.25286 0.814337 2.91819e-19)
(1.00615 0.822799 3.68625e-20)
(1.39932 0.652479 -1.14695e-19)
(1.21475 0.678419 -1.77625e-19)
(1.5045 0.517963 -2.71272e-19)
(1.36306 0.545413 -2.74608e-19)
(1.46091 0.438929 -3.70457e-20)
(1.57799 0.403012 -2.51236e-19)
(-1.15427 -0.477176 2.10241e-18)
(-1.56546 -0.89965 2.11516e-18)
(-1.10723 -0.217095 -1.66176e-18)
(-0.683128 -0.590322 -4.43954e-19)
(-0.92354 0.148921 -1.39234e-18)
(-0.902115 -0.332486 -1.02438e-18)
(-0.600459 0.480623 -6.22769e-20)
(-0.648412 0.0448556 2.7685e-19)
(-0.182859 0.700328 4.1899e-19)
(-0.348892 0.342052 3.05048e-19)
(0.252754 0.791115 4.31863e-19)
(0.0193885 0.537694 -2.67221e-19)
(0.638766 0.772395 1.78646e-19)
(0.390799 0.61566 4.29342e-19)
(0.940765 0.685965 -4.72378e-19)
(0.715822 0.603528 3.08211e-20)
(1.16205 0.574549 -3.24453e-19)
(0.974294 0.538612 -2.18091e-19)
(1.32191 0.465605 -1.41625e-19)
(1.17023 0.454586 -3.79316e-19)
(1.30304 0.374014 2.42376e-19)
(1.43719 0.35661 -2.21497e-19)
(-0.667686 -0.854456 1.82592e-18)
(-1.02026 -1.11031 6.68116e-19)
(-0.653573 -0.717018 -2.62576e-19)
(-0.213223 -0.9096 -5.41718e-20)
(-0.608225 -0.412061 3.12591e-19)
(-0.536108 -0.763159 7.35525e-20)
(-0.464964 -0.091416 6.12911e-19)
(-0.395504 -0.443073 -6.99635e-22)
(-0.21803 0.179217 -3.14614e-19)
(-0.247747 -0.157579 -1.39484e-19)
(0.0916846 0.364289 -3.42527e-19)
(-0.00814279 0.0864059 -3.46748e-20)
(0.416107 0.451151 3.38775e-19)
(0.271828 0.246202 3.51401e-19)
(0.711629 0.459158 3.16316e-19)
(0.554079 0.324385 3.48147e-19)
(0.956673 0.419839 -2.54865e-19)
(0.807002 0.338041 -1.73471e-19)
(1.15124 0.360111 -1.69602e-19)
(1.01547 0.31187 -9.67996e-20)
(1.1663 0.270856 1.37045e-19)
(1.30125 0.292554 3.82267e-20)
(-0.266429 -1.04625 -2.59791e-19)
(-0.570434 -1.1872 -4.14788e-19)
(-0.243902 -1.00245 2.00993e-19)
(0.15363 -1.07254 -2.09902e-19)
(-0.256558 -0.768844 -1.70499e-19)
(-0.179711 -1.00363 2.39988e-19)
(-0.210722 -0.500897 -6.18937e-19)
(-0.0852732 -0.737695 -3.91895e-19)
(-0.0784963 -0.243893 1.05138e-19)
(-0.0372812 -0.504601 -1.33363e-19)
(0.123742 -0.0258117 5.90022e-19)
(0.105394 -0.270374 2.60239e-19)
(0.358655 0.125474 3.62641e-19)
(0.299032 -0.0724095 1.2068e-19)
(0.607044 0.207771 -9.36322e-20)
(0.514372 0.0489539 -8.01115e-21)
(0.833799 0.23282 -1.38287e-20)
(0.729148 0.12157 8.89057e-21)
(1.02756 0.221559 1.67213e-19)
(0.920191 0.147122 1.49616e-19)
(1.06435 0.145504 0)
(1.18682 0.189273 0)
(0.0534741 -1.11837 1.12539e-19)
(-0.209313 -1.17617 -1.10403e-18)
(0.0932395 -1.14297 1.16467e-19)
(0.426185 -1.14592 3.43444e-19)
(0.0636122 -0.967675 9.66591e-20)
(0.121979 -1.13306 -4.50016e-20)
(0.0631906 -0.754182 6.00087e-20)
(0.206838 -0.900214 1.3653e-19)
(0.126594 -0.535038 -2.12339e-20)
(0.193437 -0.725576 1.0925e-19)
(0.24326 -0.325775 -1.57511e-19)
(0.277498 -0.515456 -9.92464e-20)
(0.411457 -0.153029 -2.25391e-19)
(0.399019 -0.327772 -2.55119e-19)
(0.596689 -0.0310419 6.6461e-20)
(0.554307 -0.179741 9.90001e-20)
(0.780987 0.0413607 1.28792e-19)
(0.721816 -0.0722415 1.08884e-19)
(0.953559 0.0761356 0)
(0.882473 -0.0138273 0)
(1.00922 0.0159694 5.75252e-21)
(1.10321 0.0880376 1.55328e-19)
(0.297846 -1.13782 -2.04861e-19)
(0.0839655 -1.1531 -7.34267e-19)
(0.357484 -1.20593 2.25737e-19)
(0.629344 -1.1796 2.04074e-19)
(0.330358 -1.07327 1.031e-19)
(0.365258 -1.20469 -4.14419e-20)
(0.318514 -0.898753 1.49239e-19)
(0.461705 -0.994271 1.56591e-19)
(0.342431 -0.71833 9.26209e-20)
(0.409326 -0.856442 5.131e-20)
(0.406276 -0.531195 -1.86936e-19)
(0.462557 -0.675264 -1.05466e-19)
(0.511735 -0.362751 4.68579e-20)
(0.53329 -0.505868 -8.28e-20)
(0.644026 -0.227791 1.31715e-19)
(0.637123 -0.355876 1.42691e-19)
(0.790473 -0.130517 -7.57935e-21)
(0.760668 -0.236941 -3.58037e-20)
(0.932674 -0.0691531 5.09223e-21)
(0.888506 -0.155426 2.77443e-20)
(0.992372 -0.106337 2.23133e-20)
(1.06451 -0.033026 2.69556e-19)
(0.496569 -1.14214 -7.6323e-20)
(0.324649 -1.11728 -5.56963e-19)
(0.580446 -1.22651 -3.97228e-20)
(0.808724 -1.21855 -6.7396e-21)
(0.538839 -1.12852 1.13412e-19)
(0.565791 -1.20653 0)
(0.531874 -0.985599 1.92541e-19)
(0.673188 -1.05466 3.33527e-19)
(0.538972 -0.830612 -9.18609e-20)
(0.604925 -0.936463 -3.04358e-19)
(0.573163 -0.667398 -3.28635e-21)
(0.638119 -0.77663 -4.5086e-20)
(0.637165 -0.511404 1.92083e-20)
(0.675618 -0.62511 5.60084e-20)
(0.726173 -0.375137 -7.79612e-21)
(0.741643 -0.482711 1.47288e-20)
(0.831264 -0.2677 1.65943e-20)
(0.826934 -0.361513 -2.76451e-20)
(0.940276 -0.190915 4.75752e-20)
(0.921874 -0.268772 1.13674e-20)
(1.00099 -0.206633 1.45369e-21)
(1.04284 -0.132605 1.10984e-20)
(0.671641 -1.13772 -5.42562e-19)
(0.508231 -1.07844 -1.12826e-18)
(0.758255 -1.23959 3.80146e-20)
(0.977716 -1.22305 7.86599e-19)
(0.734802 -1.14313 1.83954e-19)
(0.753903 -1.22005 -5.918e-19)
(0.722812 -1.03082 1.09844e-19)
(0.845329 -1.07705 2.05605e-19)
(0.715906 -0.895611 -2.86424e-19)
(0.780211 -0.975734 -5.00468e-20)
(0.730767 -0.752784 -1.18185e-20)
(0.798646 -0.835809 -4.0549e-20)
(0.766916 -0.610973 6.25073e-20)
(0.813607 -0.700588 -1.14069e-19)
(0.822912 -0.480673 5.50876e-21)
(0.852049 -0.568014 3.56866e-20)
(0.894298 -0.371427 -1.14585e-20)
(0.906665 -0.450147 -2.02508e-20)
(0.974559 -0.287612 -3.20445e-20)
(0.973534 -0.354842 -3.13831e-20)
(1.03238 -0.289882 2.82328e-20)
(1.05749 -0.220682 2.75104e-20)
(0.840986 -1.1008 1.19672e-20)
(0.644764 -1.02661 -4.05722e-19)
(0.929627 -1.22837 5.38421e-19)
(1.11808 -1.19076 1.22946e-18)
(0.900496 -1.14487 -6.54539e-19)
(0.92051 -1.20202 -5.95751e-19)
(0.887716 -1.04734 1.56201e-19)
(0.997896 -1.08002 3.95668e-19)
(0.873863 -0.927597 1.92481e-19)
(0.935199 -0.989377 -2.65491e-19)
(0.875428 -0.801265 -1.50514e-19)
(0.943078 -0.86454 0)
(0.891598 -0.672667 -1.65999e-19)
(0.942192 -0.74315 4.56428e-20)
(0.922983 -0.550751 6.28565e-21)
(0.960122 -0.620595 2.9079e-20)
(0.967975 -0.444754 -6.04461e-22)
(0.990366 -0.508845 1.63718e-20)
(1.02372 -0.361142 2.40671e-20)
(1.03361 -0.415545 -2.4315e-20)
(1.07654 -0.349961 8.98823e-20)
(1.0848 -0.29605 2.31444e-20)
(0.9677 -1.05834 8.41962e-19)
(0.762518 -0.978921 3.7639e-20)
(1.07271 -1.20142 5.21278e-19)
(1.24394 -1.15741 4.74615e-19)
(1.04876 -1.12939 3.56377e-19)
(1.06385 -1.17471 -1.80575e-19)
(1.03329 -1.04335 1.09395e-19)
(1.13348 -1.06421 -5.50715e-20)
(1.01445 -0.935886 -4.83115e-19)
(1.07208 -0.983435 -8.2931e-20)
(1.00636 -0.822487 1.90084e-19)
(1.07231 -0.870236 4.33067e-19)
(1.00756 -0.705306 2.35389e-19)
(1.05951 -0.760304 -6.8876e-20)
(1.01984 -0.592133 4.53984e-20)
(1.0616 -0.647077 -3.50338e-19)
(1.04326 -0.491617 3.18643e-20)
(1.07194 -0.542514 1.71324e-19)
(1.0766 -0.411169 -9.18166e-22)
(1.09386 -0.453266 -2.77462e-20)
(1.1188 -0.390645 -1.96996e-20)
(1.11395 -0.342953 2.05508e-20)
(1.08331 -1.00882 -1.8052e-19)
(0.872119 -0.923577 -1.64326e-19)
(1.19829 -1.16551 -1.62754e-19)
(1.36183 -1.11075 -7.20884e-19)
(1.17847 -1.10198 -6.06768e-19)
(1.19099 -1.13955 1.4817e-18)
(1.16215 -1.02405 -2.40156e-19)
(1.25509 -1.03546 -7.44093e-19)
(1.13944 -0.926037 7.81752e-19)
(1.19322 -0.96272 3.56455e-19)
(1.1238 -0.822827 2.40679e-19)
(1.18757 -0.858234 1.96216e-19)
(1.1131 -0.715266 -6.22704e-19)
(1.1651 -0.757699 -2.79853e-19)
(1.10977 -0.610382 -2.93871e-19)
(1.15434 -0.652563 -3.79845e-19)
(1.11473 -0.516227 1.33741e-19)
(1.1479 -0.555103 -2.24636e-20)
(1.12889 -0.440596 -5.65373e-20)
(1.15091 -0.471437 0)
(1.15636 -0.412055 -1.77079e-19)
(1.1489 -0.386645 -1.15984e-19)
(1.19181 -0.939755 -6.49823e-19)
(0.955626 -0.835433 0)
(1.31302 -1.11521 4.64646e-19)
(1.45964 -1.0435 -9.86961e-19)
(1.29489 -1.06302 1.44771e-18)
(1.30283 -1.09144 1.66463e-18)
(1.27703 -0.992662 -3.20274e-19)
(1.36254 -0.995294 -2.80595e-19)
(1.25075 -0.902253 -2.08816e-19)
(1.30145 -0.929415 0)
(1.2287 -0.807104 -2.57831e-19)
(1.29025 -0.832214 -2.33339e-19)
(1.208 -0.707376 -2.91591e-20)
(1.25985 -0.739139 -3.39703e-19)
(1.19136 -0.609706 -1.64103e-19)
(1.238 -0.6409 4.57215e-19)
(1.17998 -0.521615 -1.59217e-19)
(1.21698 -0.549711 1.60178e-21)
(1.1753 -0.451249 -1.00978e-19)
(1.20269 -0.471048 2.03347e-19)
(1.19422 -0.415962 -1.01337e-20)
(1.17513 -0.395107 -2.48366e-19)
(1.27563 -0.862686 -2.3154e-19)
(1.03653 -0.752922 1.94614e-19)
(1.41012 -1.05463 -2.83053e-19)
(1.54186 -0.973388 -2.56505e-19)
(1.39755 -1.01377 1.22489e-20)
(1.40283 -1.0349 2.08064e-19)
(1.379 -0.950015 1.50481e-20)
(1.45657 -0.946587 -8.4041e-19)
(1.35012 -0.865903 0)
(1.39887 -0.884893 4.39699e-19)
(1.32244 -0.777315 -3.04049e-19)
(1.38158 -0.794169 -2.51473e-19)
(1.29312 -0.684126 5.72574e-20)
(1.34489 -0.706694 -2.86396e-19)
(1.26481 -0.592737 6.65396e-19)
(1.31292 -0.614464 7.65909e-19)
(1.23899 -0.509976 3.39939e-19)
(1.27918 -0.528712 -2.75051e-20)
(1.21791 -0.444473 3.26882e-19)
(1.2489 -0.454818 -3.60114e-21)
(1.22722 -0.400529 1.13317e-19)
(1.20048 -0.397958 8.44941e-20)
(1.34923 -0.781434 2.13414e-19)
(1.11254 -0.665801 -1.86578e-21)
(1.49411 -0.986843 1.86683e-19)
(1.61255 -0.895265 -2.88791e-19)
(1.48829 -0.956632 -5.33223e-19)
(1.4944 -0.969454 6.06964e-19)
(1.4698 -0.898429 -5.91069e-19)
(1.54021 -0.890141 -1.49387e-18)
(1.43907 -0.819114 2.60465e-19)
(1.48708 -0.830761 2.18768e-19)
(1.40625 -0.73552 -2.44437e-19)
(1.46318 -0.745509 -5.51371e-19)
(1.36917 -0.647574 3.11056e-19)
(1.42109 -0.662075 4.39185e-19)
(1.33034 -0.561564 1.58553e-19)
(1.37969 -0.575056 -1.30621e-20)
(1.29159 -0.483468 -3.70654e-19)
(1.33478 -0.49399 4.07321e-21)
(1.25598 -0.421445 -2.25946e-19)
(1.29064 -0.424389 -2.03838e-19)
(1.25471 -0.371295 0)
(1.2217 -0.377733 0)
(1.41742 -0.690582 -4.79925e-19)
(1.17528 -0.566416 1.52715e-20)
(1.56936 -0.908372 4.05478e-20)
(1.66931 -0.803532 -1.17295e-18)
(1.57021 -0.890366 -2.53581e-19)
(1.57653 -0.892065 6.77554e-19)
(1.55177 -0.837964 -9.0931e-19)
(1.61463 -0.824491 1.96148e-19)
(1.5192 -0.762747 -5.08398e-19)
(1.56692 -0.767009 4.44043e-19)
(1.48137 -0.682969 1.53578e-20)
(1.53634 -0.686645 1.21515e-19)
(1.43705 -0.599311 1.63509e-19)
(1.48914 -0.606359 -6.81064e-19)
(1.38867 -0.517972 -1.73265e-19)
(1.43891 -0.524041 1.47611e-19)
(1.33868 -0.444096 1.90761e-19)
(1.38421 -0.447403 3.40719e-19)
(1.29113 -0.384106 0)
(1.32932 -0.381752 8.9537e-20)
(1.28045 -0.330614 1.23002e-19)
(1.24634 -0.342907 -3.83924e-19)
(1.47354 -0.589642 -5.60921e-19)
(1.22985 -0.460262 -9.47472e-19)
(1.6334 -0.817801 -9.51037e-19)
(1.71339 -0.699804 -2.15186e-18)
(1.64299 -0.813525 1.16336e-18)
(1.64866 -0.802165 1.26417e-18)
(1.6256 -0.767658 1.51349e-18)
(1.68035 -0.748219 1.31186e-18)
(1.59137 -0.69654 1.09034e-18)
(1.63843 -0.692906 2.7302e-19)
(1.54858 -0.62 -4.83648e-19)
(1.60155 -0.617219 2.51726e-19)
(1.49732 -0.540253 -7.86518e-19)
(1.54919 -0.540017 -1.03789e-18)
(1.44032 -0.463392 6.41127e-19)
(1.49083 -0.462455 8.70717e-19)
(1.38089 -0.393864 2.74429e-19)
(1.42766 -0.390665 -2.07602e-19)
(1.32362 -0.336368 2.30908e-19)