/*--------------------------------*- C++ -*----------------------------------*\
| =========                 |                                                 |
| \\      /  F ield         | OpenFOAM: The Open Source CFD Toolbox           |
|  \\    /   O peration     | Version:  3.0.1                                 |
|   \\  /    A nd           | Web:      www.OpenFOAM.org                      |
|    \\/     M anipulation  |                                                 |
\*---------------------------------------------------------------------------*/
FoamFile
{
    version     2.0;
    format      ascii;
    class       volScalarField;
    location    "0.597946";
    object      nut;
}
// * * * * * * * * * * * * * * * * * * * * * * * * * * * * * * * * * * * * * //

dimensions      [0 2 -1 0 0 0 0];

internalField   nonuniform List<scalar> 
21246
(
2.52951e-05
5.7639e-05
5.2903e-05
5.16492e-05
4.65331e-05
4.05619e-05
3.73331e-05
3.59832e-05
3.56627e-05
3.60636e-05
3.73022e-05
2.23527e-05
6.24542e-05
4.91613e-05
5.3833e-05
4.82732e-05
4.17856e-05
3.77591e-05
3.60569e-05
3.57872e-05
3.65831e-05
3.85774e-05
2.32519e-05
6.30242e-05
4.59424e-05
5.60207e-05
4.91699e-05
4.28673e-05
3.82119e-05
3.62565e-05
3.60454e-05
3.73503e-05
4.06363e-05
2.59123e-05
5.86889e-05
4.46637e-05
5.64085e-05
4.89279e-05
4.35385e-05
3.84145e-05
3.63197e-05
3.61764e-05
3.79259e-05
4.23057e-05
2.89442e-05
5.45645e-05
4.38217e-05
5.49669e-05
4.84151e-05
4.3747e-05
3.82837e-05
3.61745e-05
3.60574e-05
3.80642e-05
4.29669e-05
3.16522e-05
5.18281e-05
4.30256e-05
5.30952e-05
4.80053e-05
4.35703e-05
3.79154e-05
3.58341e-05
3.56664e-05
3.77432e-05
4.27391e-05
3.40265e-05
5.05178e-05
4.23443e-05
5.15067e-05
4.77536e-05
4.31664e-05
3.74481e-05
3.53439e-05
3.50572e-05
3.70761e-05
4.21152e-05
3.61086e-05
5.05178e-05
4.15818e-05
5.02641e-05
4.76498e-05
4.26607e-05
3.698e-05
3.47563e-05
3.43002e-05
3.6124e-05
4.08056e-05
3.76735e-05
5.13047e-05
4.03036e-05
4.8442e-05
4.76506e-05
4.2186e-05
3.6583e-05
3.41224e-05
3.3457e-05
3.49847e-05
3.92421e-05
3.86019e-05
5.23197e-05
3.88083e-05
4.48578e-05
4.61421e-05
4.17077e-05
3.63171e-05
3.34913e-05
3.25798e-05
3.373e-05
3.74373e-05
3.90321e-05
5.3922e-05
3.817e-05
4.05607e-05
4.25534e-05
4.05166e-05
3.60229e-05
3.29227e-05
3.17257e-05
3.24118e-05
3.54528e-05
3.89472e-05
5.63595e-05
3.87423e-05
3.71667e-05
3.81124e-05
3.81411e-05
3.5369e-05
3.23703e-05
3.09342e-05
3.11488e-05
3.34407e-05
3.82558e-05
5.9453e-05
4.04425e-05
3.49536e-05
3.37197e-05
3.44045e-05
3.37957e-05
3.16397e-05
3.01769e-05
2.9974e-05
3.15503e-05
3.70461e-05
6.29653e-05
4.33994e-05
3.41245e-05
3.01827e-05
2.98769e-05
3.07037e-05
3.0196e-05
2.92698e-05
2.88619e-05
2.9814e-05
3.53048e-05
6.73246e-05
4.77e-05
3.50167e-05
2.83459e-05
2.60935e-05
2.66234e-05
2.74791e-05
2.77475e-05
2.76344e-05
2.81988e-05
3.31337e-05
7.24443e-05
5.35539e-05
3.7731e-05
2.8298e-05
2.37997e-05
2.28036e-05
2.36453e-05
2.50019e-05
2.58102e-05
2.64863e-05
3.07497e-05
7.80435e-05
6.13319e-05
4.26862e-05
3.02716e-05
2.33331e-05
2.03101e-05
1.98568e-05
2.10805e-05
2.27294e-05
2.41108e-05
2.82134e-05
8.45581e-05
7.14958e-05
5.0499e-05
3.47758e-05
2.50745e-05
1.98029e-05
1.74886e-05
1.73463e-05
1.86109e-05
2.04596e-05
2.58127e-05
9.20693e-05
8.47088e-05
6.22738e-05
4.28312e-05
2.97375e-05
2.17906e-05
1.73194e-05
1.5298e-05
1.50614e-05
1.6115e-05
2.36828e-05
0.000100063
0.000101341
7.96688e-05
5.64214e-05
3.89981e-05
2.74741e-05
2.02249e-05
1.59451e-05
1.37492e-05
1.31013e-05
2.146e-05
0.00010644
0.000120112
0.000104072
7.87264e-05
5.63198e-05
3.98244e-05
2.84728e-05
2.09507e-05
1.61548e-05
1.33144e-05
1.86652e-05
0.000109195
0.00013712
0.00013387
0.000112536
8.72272e-05
6.50395e-05
4.77334e-05
3.49752e-05
2.5878e-05
1.95605e-05
1.42931e-05
9.86581e-05
0.000139277
0.000153861
0.000147939
0.000129974
0.000107641
8.58539e-05
6.68955e-05
5.14503e-05
3.92633e-05
1.11488e-05
8.71614e-05
0.000115685
0.000135961
0.000142326
0.000139919
0.000131001
0.000117931
0.000102823
8.74132e-05
7.26557e-05
2.14356e-05
5.7054e-05
5.22546e-05
5.12208e-05
4.60765e-05
4.03122e-05
3.74367e-05
3.62674e-05
3.59008e-05
3.59736e-05
3.63746e-05
1.74362e-05
4.8881e-05
4.91798e-05
5.41913e-05
4.85725e-05
4.24911e-05
3.89567e-05
3.73938e-05
3.68383e-05
3.68023e-05
3.70782e-05
1.83788e-05
4.65706e-05
4.4323e-05
5.64598e-05
5.14207e-05
4.55798e-05
4.20784e-05
4.05475e-05
4.00146e-05
3.99217e-05
4.00221e-05
2.11562e-05
4.24057e-05
4.2317e-05
5.77474e-05
5.28804e-05
4.76178e-05
4.44634e-05
4.34856e-05
4.36896e-05
4.44919e-05
4.55766e-05
2.44668e-05
3.80105e-05
4.17513e-05
5.75531e-05
5.33736e-05
4.8927e-05
4.61273e-05
4.55929e-05
4.63635e-05
4.78968e-05
4.98531e-05
2.767e-05
3.47033e-05
4.14938e-05
5.65443e-05
5.34378e-05
4.97733e-05
4.73396e-05
4.73092e-05
4.88385e-05
5.16338e-05
5.56557e-05
3.06669e-05
3.24175e-05
4.11935e-05
5.53536e-05
5.3337e-05
5.03272e-05
4.8201e-05
4.86376e-05
5.07947e-05
5.46002e-05
6.01769e-05
3.34669e-05
3.07986e-05
4.08168e-05
5.42465e-05
5.31405e-05
5.06181e-05
4.87925e-05
4.95744e-05
5.21207e-05
5.64991e-05
6.28854e-05
3.59102e-05
2.96123e-05
4.03761e-05
5.3289e-05
5.29633e-05
5.06902e-05
4.91682e-05
5.01356e-05
5.28362e-05
5.73329e-05
6.35805e-05
3.8004e-05
2.87303e-05
3.99376e-05
5.24986e-05
5.28624e-05
5.0646e-05
4.93594e-05
5.03856e-05
5.30933e-05
5.75366e-05
6.37457e-05
3.97482e-05
2.80999e-05
3.94926e-05
5.18777e-05
5.28174e-05
5.05737e-05
4.94164e-05
5.04081e-05
5.30475e-05
5.74009e-05
6.36855e-05
4.11916e-05
2.76176e-05
3.90231e-05
5.13716e-05
5.28292e-05
5.05086e-05
4.94013e-05
5.02926e-05
5.28301e-05
5.7103e-05
6.34984e-05
4.21549e-05
2.69294e-05
3.80211e-05
5.06143e-05
5.28378e-05
5.04708e-05
4.93883e-05
5.01201e-05
5.25462e-05
5.67545e-05
6.32775e-05
4.26112e-05
2.58265e-05
3.50676e-05
4.84664e-05
5.23063e-05
5.03993e-05
4.9442e-05
5.00104e-05
5.23534e-05
5.6561e-05
6.33504e-05
4.25007e-05
2.48019e-05
3.12878e-05
4.48249e-05
5.09154e-05
5.01412e-05
4.9524e-05
4.99942e-05
5.22741e-05
5.65144e-05
6.35729e-05
4.17861e-05
2.39004e-05
2.72605e-05
3.95516e-05
4.80246e-05
4.92772e-05
4.94598e-05
5.00349e-05
5.2289e-05
5.65548e-05
6.37685e-05
4.0454e-05
2.31653e-05
2.35618e-05
3.31006e-05
4.29135e-05
4.69276e-05
4.87115e-05
4.98833e-05
5.22689e-05
5.65603e-05
6.37532e-05
3.84174e-05
2.25884e-05
2.06526e-05
2.67006e-05
3.56958e-05
4.19783e-05
4.60782e-05
4.871e-05
5.1712e-05
5.61865e-05
6.32045e-05
3.56053e-05
2.20464e-05
1.85985e-05
2.14108e-05
2.77807e-05
3.4236e-05
4.00199e-05
4.46714e-05
4.90782e-05
5.42696e-05
6.13002e-05
3.19831e-05
2.13306e-05
1.72436e-05
1.76309e-05
2.09648e-05
2.55075e-05
3.07027e-05
3.60546e-05
4.16376e-05
4.78542e-05
5.53092e-05
2.75101e-05
2.01345e-05
1.62875e-05
1.52245e-05
1.61848e-05
1.82999e-05
2.12733e-05
2.49541e-05
2.93984e-05
3.48021e-05
4.14137e-05
2.21681e-05
1.80362e-05
1.52206e-05
1.36892e-05
1.32896e-05
1.3654e-05
1.46046e-05
1.60752e-05
1.81032e-05
2.08038e-05
2.43147e-05
1.60202e-05
1.4465e-05
1.31575e-05
1.20464e-05
1.13134e-05
1.09205e-05
1.08182e-05
1.09796e-05
1.14068e-05
1.21273e-05
1.31665e-05
8.55314e-06
1.21719e-05
1.3164e-05
1.43397e-05
1.64202e-05
1.93687e-05
2.3234e-05
2.77347e-05
3.24845e-05
3.7091e-05
4.11041e-05
4.63551e-05
0.00026539
0.000371334
0.000471887
0.000538796
0.00057025
0.00054625
0.000472577
0.000392141
0.000325767
0.000271872
3.63752e-05
0.000159549
0.000235537
0.000336553
0.000467578
0.000560879
0.000575887
0.00050562
0.000412246
0.000332556
0.000266584
3.3007e-05
0.000113162
0.000185563
0.000262455
0.000355452
0.000471545
0.000573344
0.0005423
0.000443532
0.000350309
0.000273613
3.1557e-05
9.14683e-05
0.000158613
0.000223231
0.000295665
0.000384472
0.000503306
0.000561454
0.000481547
0.000378783
0.000291568
2.98662e-05
8.31741e-05
0.000141452
0.00019786
0.000257583
0.000324854
0.000416266
0.000516587
0.000513699
0.000416712
0.000322328
2.73567e-05
8.0306e-05
0.000130489
0.000179887
0.000230078
0.000281714
0.000345484
0.000431702
0.00049517
0.000455661
0.000362227
2.4274e-05
8.02377e-05
0.000124222
0.000167424
0.000210025
0.000250717
0.000294748
0.000354303
0.000428997
0.000461384
0.000406397
2.12678e-05
8.46495e-05
0.000123743
0.00016049
0.000196458
0.000229373
0.000260819
0.000299381
0.000357052
0.000421519
0.000429691
2.07768e-05
9.83193e-05
0.000132436
0.000160905
0.000189511
0.00021578
0.000238887
0.000263735
0.000301821
0.000361442
0.000414566
2.19865e-05
0.00012297
0.000153584
0.000172058
0.000191036
0.000209623
0.000225854
0.000241652
0.000265073
0.000307945
0.000370005
2.18061e-05
0.000145789
0.000183453
0.000196204
0.000203986
0.000212527
0.000221147
0.000229852
0.000243181
0.000270633
0.000321224
2.04737e-05
0.0001584
0.000212059
0.000229051
0.000229174
0.000226333
0.000225517
0.00022702
0.000232754
0.000248762
0.000284077
1.87871e-05
0.000160117
0.000231895
0.000260065
0.000261998
0.000250657
0.000239474
0.000232776
0.000231682
0.000239251
0.000261781
1.70908e-05
0.000154126
0.000238646
0.00027865
0.000292362
0.000280951
0.000261772
0.000246702
0.000238939
0.000239879
0.000252781
1.5635e-05
0.00014332
0.000232236
0.000282099
0.00031076
0.000309153
0.000288245
0.000266979
0.00025344
0.00024916
0.000255073
1.45005e-05
0.000132354
0.000218034
0.000273537
0.000313429
0.00032727
0.000312626
0.000289968
0.000273144
0.000265472
0.000266337
1.35605e-05
0.000122902
0.000201821
0.000255939
0.000301638
0.000330447
0.000328576
0.000310773
0.000294807
0.000286336
0.000283859
1.25579e-05
0.000114403
0.000187703
0.000236325
0.000279769
0.000318181
0.00033198
0.000324514
0.000314242
0.000308022
0.000304075
1.14838e-05
0.000105855
0.000175182
0.000220278
0.000257466
0.000294593
0.000322343
0.000328294
0.000327767
0.00032731
0.000323788
1.0352e-05
9.64758e-05
0.000162866
0.000207696
0.00024017
0.000271377
0.000303037
0.000322765
0.000333634
0.000342169
0.000343083
9.07885e-06
8.518e-05
0.000148164
0.000194671
0.000226375
0.00025357
0.000281874
0.000308253
0.000326724
0.000342014
0.00034674
7.59616e-06
7.00663e-05
0.000123028
0.000169186
0.000204954
0.000234145
0.00025821
0.000280047
0.000296219
0.000308006
0.000309923
6.16339e-06
4.92466e-05
7.6149e-05
0.000115966
0.00015324
0.000188716
0.000216754
0.000236347
0.000249724
0.000262525
0.000275881
6.62423e-06
1.07197e-05
1.39569e-05
2.34458e-05
4.38449e-05
7.88323e-05
0.000123594
0.00016726
0.000207067
0.000251015
0.000303951
4.14161e-05
0.000273477
0.000396889
0.00046804
0.000521904
0.000549123
0.000524837
0.000458534
0.000386921
0.000326369
0.000275294
2.60813e-05
0.000201517
0.000348621
0.00045135
0.000518241
0.000554088
0.000538369
0.00047638
0.000404954
0.000344198
0.000293571
2.42759e-05
0.000159456
0.000304501
0.000441412
0.000528659
0.000572096
0.000563484
0.000504306
0.000430274
0.000366961
0.000315234
2.55902e-05
0.000144006
0.000279284
0.000425295
0.000528078
0.000584792
0.000588219
0.000535774
0.00045899
0.00039007
0.000334013
2.77748e-05
0.000136665
0.000267391
0.00040976
0.000516129
0.00058247
0.000598427
0.000560321
0.000492894
0.000425295
0.000365621
2.99258e-05
0.00013264
0.000261604
0.000399006
0.000504456
0.0005726
0.000593145
0.00056424
0.000507127
0.000447474
0.000393695
3.18614e-05
0.000130245
0.000258368
0.000390779
0.0004939
0.000561935
0.000584504
0.000561855
0.000513734
0.00046183
0.000413565
3.36598e-05
0.00012905
0.000256957
0.000385368
0.000486176
0.000553149
0.000575583
0.000556177
0.000514748
0.000469678
0.000426831
3.51225e-05
0.000128458
0.000256607
0.000382504
0.00048204
0.000548151
0.000569464
0.000550859
0.000512638
0.000470171
0.000426761
3.6206e-05
0.000127997
0.000256778
0.000381517
0.000481405
0.000547601
0.00056825
0.000549775
0.000512826
0.000470793
0.00042557
3.68759e-05
0.000126774
0.00025643
0.00038121
0.000483194
0.00055115
0.000573097
0.000556183
0.000521032
0.000479581
0.000433095
3.72311e-05
0.000124999
0.000255193
0.000380862
0.000485947
0.000557535
0.000583535
0.000571047
0.000540213
0.000501216
0.000451376
3.71805e-05
0.000122073
0.000252149
0.000378766
0.000487363
0.000564163
0.000597079
0.000592354
0.000569321
0.00053726
0.000490243
3.6724e-05
0.000115751
0.000243749
0.0003703
0.000481584
0.000564187
0.000606849
0.000613834
0.000602074
0.000580954
0.000544483
3.58043e-05
0.000107947
0.000230873
0.000355173
0.000467087
0.000554537
0.000607897
0.000629073
0.000630664
0.000621172
0.000596717
3.43898e-05
9.87356e-05
0.000213536
0.00033328
0.000443864
0.000534797
0.00059824
0.00063389
0.000649496
0.000651699
0.000638729
3.24765e-05
8.8199e-05
0.000192071
0.000304749
0.000411915
0.000504451
0.00057601
0.000624597
0.0006536
0.000667123
0.000665277
2.9998e-05
7.69111e-05
0.000167649
0.000270675
0.000372101
0.00046384
0.000540567
0.000599275
0.000640014
0.00066416
0.00067281
2.69504e-05
6.52339e-05
0.000141552
0.000232616
0.000325969
0.000414283
0.000492945
0.000558449
0.000608668
0.000642507
0.000660418
2.3367e-05
5.33709e-05
0.000114822
0.000192275
0.000275493
0.000358013
0.000435658
0.000504818
0.000562182
0.000604843
0.000631188
1.93176e-05
4.15034e-05
8.84291e-05
0.000151277
0.000222705
0.000297365
0.000371486
0.000441669
0.00050423
0.000555101
0.000590559
1.49413e-05
2.98752e-05
6.2991e-05
0.000110579
0.000168492
0.00023292
0.000300801
0.000369421
0.000435654
0.000494827
0.000540275
1.04114e-05
1.85488e-05
3.85454e-05
6.99279e-05
0.000111658
0.000161996
0.000219286
0.00028244
0.00035004
0.000417851
0.000476036
6.06257e-06
1.04883e-05
2.11985e-05
3.82721e-05
6.28864e-05
9.54199e-05
0.000136067
0.000186159
0.000248328
0.00032109
0.000392883
4.15401e-05
0.000265761
0.000392292
0.000454816
0.000478305
0.000489947
0.000504074
0.000517486
0.000518934
0.000498743
0.000454253
2.93583e-05
0.000228004
0.000383735
0.000462746
0.000490247
0.000496583
0.000500483
0.000505268
0.000503904
0.000486124
0.000445306
2.44726e-05
0.000201333
0.000360943
0.000457512
0.000496564
0.000505207
0.000505517
0.000505028
0.000500061
0.000482572
0.000444543
2.32505e-05
0.000188543
0.000344447
0.000449928
0.000499513
0.000513236
0.000514226
0.000513361
0.000508276
0.000490816
0.000451737
2.29996e-05
0.000173125
0.000328893
0.000443385
0.000502968
0.000521502
0.000521121
0.000515605
0.000504352
0.000482058
0.000444147
2.33442e-05
0.000163968
0.000310999
0.000425849
0.000493665
0.000520794
0.000524789
0.000521427
0.000513881
0.000496873
0.000462804
2.40053e-05
0.000159542
0.000300532
0.000410064
0.000477424
0.00050906
0.000519718
0.000522054
0.00051803
0.000502197
0.000466735
2.48804e-05
0.000156271
0.000292583
0.000397228
0.000463178
0.000497149
0.000512409
0.000519799
0.000520552
0.000509852
0.000480032
2.56975e-05
0.00015338
0.000285714
0.00038611
0.000450117
0.000485227
0.000504057
0.000516134
0.000521527
0.000513944
0.000483294
2.63022e-05
0.000149802
0.00027879
0.000376037
0.000438579
0.000474569
0.000496248
0.000512034
0.000520473
0.000513077
0.00047831
2.67993e-05
0.000145942
0.000272009
0.000366954
0.000428616
0.000465536
0.000489586
0.000508206
0.000518727
0.000512325
0.000481413
2.72287e-05
0.000142561
0.000266087
0.000359134
0.000420228
0.000458123
0.000484262
0.00050521
0.000517375
0.000511784
0.000481274
2.74681e-05
0.000139066
0.000260492
0.000352226
0.000413239
0.000452341
0.000480536
0.000503692
0.000517637
0.000513534
0.000485157
2.74952e-05
0.000134719
0.000254384
0.000345637
0.000407329
0.000448099
0.000478518
0.000503947
0.00051988
0.000517749
0.000492356
2.73097e-05
0.000130259
0.000248306
0.000339493
0.000402357
0.000445189
0.000478055
0.00050589
0.000523844
0.000522733
0.000493728
2.68762e-05
0.000125262
0.000241831
0.000333439
0.000398076
0.000443481
0.00047911
0.000509523
0.000529508
0.000528953
0.000497504
2.61988e-05
0.000118991
0.000234004
0.000326714
0.000393996
0.000442702
0.000481542
0.000514773
0.00053689
0.000536808
0.000503618
2.51762e-05
0.000111327
0.000224464
0.00031877
0.000389452
0.000442191
0.000484742
0.000521147
0.000545835
0.000546656
0.0005105
2.38083e-05
0.000101205
0.000210617
0.000306483
0.000381163
0.000438605
0.000485561
0.000526235
0.000554706
0.000558074
0.000522115
2.20522e-05
8.84252e-05
0.000191814
0.000288561
0.000366985
0.000428043
0.000476467
0.000516428
0.000544678
0.00054963
0.000518877
1.98415e-05
7.32118e-05
0.000167306
0.000263574
0.000345331
0.000409257
0.000456974
0.000491762
0.00051317
0.000514226
0.000488963
1.71616e-05
5.63991e-05
0.000138852
0.00023147
0.000315073
0.000380987
0.000427169
0.000455274
0.000466714
0.000459557
0.00043406
1.38165e-05
4.29354e-05
0.000109523
0.000194516
0.000275783
0.000340769
0.000384769
0.000407885
0.000412045
0.000398463
0.000370575
1.01056e-05
4.28268e-05
9.65654e-05
0.000159284
0.000217843
0.000268843
0.000306248
0.00032731
0.000331942
0.000321297
0.000298934
3.70133e-05
0.000136163
0.000214708
0.000289413
0.000355828
0.000429233
0.000498912
0.000547398
0.000561336
0.000535623
0.000486969
2.48159e-05
7.17276e-05
0.000127479
0.000181538
0.000231052
0.000270085
0.000307296
0.00040054
0.000562793
0.000588822
0.00052879
1.82146e-05
5.7733e-05
9.48134e-05
0.000133878
0.000172214
0.000203248
0.000225819
0.000257749
0.000361574
0.000586802
0.0005919
1.9528e-05
7.66462e-05
9.83889e-05
0.000119314
0.000144317
0.000167832
0.000184922
0.000198829
0.000234841
0.000362938
0.000614671
2.30356e-05
0.000118623
0.000157962
0.000149564
0.000148709
0.000155759
0.000164011
0.00016988
0.000181522
0.000231332
0.000394678
2.6118e-05
0.000138976
0.000251911
0.00024455
0.000204417
0.000176989
0.000163959
0.000157908
0.000157053
0.000174033
0.000251953
2.9036e-05
0.000146663
0.000302181
0.000390131
0.000333573
0.00025399
0.000197666
0.000165739
0.000149481
0.000148591
0.000183334
3.19437e-05
0.000152103
0.000327952
0.000466863
0.000490884
0.000390699
0.000278752
0.000202049
0.00015917
0.000140687
0.000151157
3.46091e-05
0.000157123
0.000343504
0.000511852
0.000609749
0.000554929
0.000409229
0.000274984
0.000190314
0.000147263
0.00013819
3.69622e-05
0.000162547
0.000352264
0.000529377
0.000658629
0.000688127
0.000559323
0.000379468
0.00024383
0.00016777
0.000137904
3.89349e-05
0.00017027
0.000358162
0.000530386
0.000667837
0.0007499
0.000683887
0.000493836
0.000312685
0.000199514
0.000146943
4.06342e-05
0.000177006
0.000360552
0.000518872
0.000647311
0.000747398
0.000750966
0.000587469
0.000380487
0.000235347
0.000161425
4.19626e-05
0.00018599
0.000362861
0.000501252
0.000609548
0.000706872
0.000756298
0.000639194
0.000428985
0.00026538
0.000176404
4.29325e-05
0.00019427
0.000362379
0.000480146
0.000562651
0.000642509
0.000708131
0.000643307
0.000446719
0.000281365
0.000187871
4.34921e-05
0.000199816
0.000358679
0.000457346
0.000513353
0.000565015
0.000619878
0.000609462
0.000431425
0.00028005
0.000194261
4.35212e-05
0.000204487
0.000353291
0.000434264
0.000466632
0.000490785
0.000518237
0.000519655
0.000407618
0.000266756
0.000197362
4.30216e-05
0.000208995
0.000348126
0.00041363
0.000426212
0.000426999
0.000430575
0.000421443
0.000366253
0.000261814
0.000202195
4.1917e-05
0.000214339
0.000346125
0.000399931
0.000399614
0.000386808
0.000378559
0.000366583
0.000337052
0.00027349
0.000222279
4.01808e-05
0.000222292
0.000351288
0.000398018
0.000392591
0.000377758
0.000371674
0.000367855
0.000353062
0.000318293
0.000273774
3.77767e-05
0.000236189
0.00036962
0.000411426
0.000398698
0.000379762
0.000372025
0.000371189
0.000371413
0.000359813
0.000311083
3.39611e-05
0.000234689
0.000351903
0.000375726
0.000350336
0.00031357
0.000271067
0.000251912
0.00024188
0.000227462
0.000191604
2.73489e-05
0.000204344
0.000297468
0.000316301
0.000264775
0.000171687
0.000140406
0.000123819
0.000113758
0.000105311
9.58925e-05
1.69728e-05
9.28225e-05
0.000116077
0.000102408
8.27082e-05
7.25201e-05
7.05271e-05
7.31077e-05
7.76475e-05
8.16976e-05
8.30988e-05
7.85648e-06
1.00131e-05
1.48778e-05
2.27355e-05
3.51887e-05
5.29645e-05
7.48098e-05
9.73681e-05
0.000116533
0.00012898
0.000133469
1.73313e-05
1.72333e-05
1.70404e-05
1.65492e-05
1.58131e-05
1.45085e-05
1.19833e-05
7.88152e-06
6.59536e-06
0.000137456
0.000124257
0.000108616
9.07966e-05
6.47081e-05
4.37627e-05
3.1223e-05
2.52644e-05
2.46538e-05
0.000244865
0.00022747
0.000203446
0.000175088
0.000131121
8.89538e-05
6.04948e-05
4.53205e-05
3.98421e-05
0.000309817
0.000293901
0.000271801
0.00024321
0.000189585
0.000131883
9.07017e-05
6.77031e-05
5.63579e-05
1.76036e-05
1.78385e-05
1.74733e-05
1.66933e-05
1.56782e-05
1.40231e-05
1.07833e-05
7.4885e-06
6.65831e-06
0.000146007
0.000135796
0.000118111
9.76056e-05
6.9774e-05
4.74226e-05
3.38765e-05
2.61291e-05
2.52852e-05
0.000256676
0.000246988
0.000219809
0.00018916
0.000141258
9.71599e-05
6.34986e-05
4.34192e-05
3.90656e-05
0.000323238
0.000321589
0.000298538
0.000267697
0.000206494
0.000144782
9.37395e-05
6.24786e-05
5.27835e-05
0.000195746
0.000229722
0.000229779
0.000113784
0.00041644
0.000229165
8.4238e-05
0.00022974
0.000229203
0.000234088
0.000401407
0.000229769
0.000123214
0.000191621
0.000123871
0.000228758
0.00017293
0.00011807
0.000228766
0.000228636
0.000229508
3.1853e-05
0.000229962
0.000251782
0.00022929
0.000194922
0.000131533
8.41597e-05
0.000376692
0.00056202
0.000154879
0.000235881
0.000115447
0.000229492
0.000241381
0.000229669
0.000237353
0.00022928
9.83709e-05
0.000229062
2.13303e-05
0.000229532
0.000274311
0.000229944
0.000456263
4.76566e-05
5.32562e-05
8.17178e-05
0.000239923
0.000230016
0.000559748
0.000229067
0.000912252
0.000266198
0.000229817
0.000229301
3.20226e-05
0.000229058
0.000397016
0.000473849
3.11743e-05
0.000866568
0.000496304
0.000164082
3.00997e-05
0.000228648
0.0006731
0.000233014
0.000229713
0.000233602
0.000188841
0.000233656
6.51349e-05
0.000242451
0.000423957
0.000231707
1.91706e-05
0.000229746
0.000140123
0.000398983
0.000515316
0.000140739
0.000229266
0.000229806
0.000248082
6.61995e-05
0.000421203
0.000712311
4.59372e-05
0.0002405
0.000229506
0.000229075
2.52655e-05
0.000234942
0.000408467
0.00012467
0.000400315
0.000235215
4.43951e-05
0.000235864
0.000252971
9.45956e-05
0.000230214
0.000236416
4.89988e-05
0.00022961
0.000180342
0.000229875
0.000113724
0.000235056
0.000229459
0.000229586
0.000231285
7.679e-05
0.000109166
0.000228999
0.000229095
0.000229001
0.000229522
0.000229195
7.26845e-05
0.000240631
0.000250451
0.000194431
4.83663e-05
0.000198161
0.0004906
0.000173546
0.000166152
0.000136666
0.000229214
0.000461738
8.40831e-05
0.000232178
0.000229758
0.000234624
2.09873e-05
0.000107977
0.000551626
0.000244783
0.000299776
0.000231055
0.000245939
0.000167962
0.000229127
3.82507e-05
0.000121565
0.000232283
0.000235511
0.000229373
0.00022973
0.000229196
3.95616e-05
0.000239858
8.9753e-05
6.37048e-05
7.81628e-05
2.85798e-05
0.000167377
0.00022894
0.000217113
4.83533e-05
0.000233089
0.000229048
0.000683868
0.000109749
5.76167e-05
0.000236166
0.000228175
3.04233e-05
0.000147268
0.000154901
0.000218891
0.000229524
0.000235121
0.000220248
0.000154705
3.86409e-05
0.000459026
0.000199602
0.000231722
2.68681e-05
0.000229949
0.000132326
0.000229532
0.000113596
0.000230017
0.000228993
0.000229689
0.000177293
0.000115223
0.000201926
0.000228612
2.16253e-05
0.000229749
0.000229062
0.000229612
4.4461e-05
0.000130936
0.000230001
3.48581e-05
0.00023039
0.000114708
0.000148132
0.000229814
0.000719428
0.000234342
0.000166462
0.000229664
0.000228742
0.00026762
0.000228956
0.000175237
0.000239113
0.000229335
0.00078607
0.000229425
4.82115e-05
0.000230179
8.7807e-05
7.42467e-05
7.28007e-05
0.000376537
0.000103667
0.000196544
0.00022907
0.000106942
0.000109472
0.000121006
0.00031457
3.1638e-05
0.00022857
0.000229835
0.000240646
3.85836e-05
0.000313363
0.000656932
0.000229897
0.000229753
0.000229716
4.8578e-05
0.000201578
0.000236533
2.13753e-05
0.000243332
4.96347e-05
0.000229418
0.000147451
0.000164139
0.00068711
0.000147512
0.000271564
0.000232277
0.000228851
0.000233811
0.000229455
0.000229221
0.000229236
4.58151e-05
0.000230111
0.00012331
0.00019664
0.000228225
0.000229688
0.00022944
5.41686e-05
0.0002314
0.000249528
0.000159522
0.000179666
0.000199847
0.000229543
0.000230409
5.35136e-05
0.000229216
0.000228984
0.000190294
0.000229265
0.000238304
4.85823e-05
0.000235138
0.000229797
0.000521337
0.000615319
0.000233443
0.000229176
0.000504555
0.000229827
0.000238037
0.000277973
0.000229858
9.82524e-05
0.000237165
8.83883e-05
0.00023002
0.000229559
0.000228128
0.000229684
0.000240868
0.000191527
0.000229251
6.20239e-05
0.000243072
0.000558856
0.000229175
0.000235398
0.000229762
0.000157288
2.77054e-05
0.00022914
5.3285e-05
0.00022963
0.000233987
0.000118435
2.20277e-05
0.000231603
0.000174725
6.35991e-05
0.000228748
0.000238701
0.000229725
0.000353333
0.000228917
0.000191909
0.000114767
0.000233573
0.000229166
0.000208854
0.000228271
0.000823283
0.000237981
0.000492652
1.80042e-05
0.000229885
9.98343e-05
0.000202572
7.71272e-05
0.000229732
0.000229334
0.000238774
5.56343e-05
0.000264619
0.000230567
0.000108128
0.000184143
0.000159626
0.000239479
0.000228965
0.000205182
0.000575097
5.65131e-05
0.000236203
0.000179706
0.000229176
0.000105654
0.000230037
7.28412e-05
0.000206755
0.000229943
0.000812121
0.000136063
0.000190991
0.000229449
0.000229331
0.000229724
5.1776e-05
0.000164114
6.26232e-05
6.95413e-05
0.000250156
0.000229252
0.00013341
0.000181339
0.000193281
0.000112561
0.000229847
0.000152562
0.000241135
0.000229191
0.000229358
0.000474254
0.000229088
3.64079e-05
0.000229065
0.000201832
0.00068471
6.2536e-05
0.000195976
0.000207147
4.7701e-05
0.000229224
4.65722e-05
0.000187379
0.000245253
0.000695602
2.89556e-05
0.000229281
0.000229327
0.000229825
8.91652e-05
4.58066e-05
0.000228956
0.000229934
0.00029095
9.30903e-05
2.03695e-05
0.00010577
0.000116486
0.000230346
0.000350414
0.000235561
0.000228747
0.000123039
0.000126335
4.63297e-05
0.000233942
0.000114946
0.000247032
0.00018256
4.89062e-05
0.000308828
0.000150058
8.69218e-05
0.000117508
0.000227227
0.000234367
0.000241186
7.41342e-05
0.000224635
3.64996e-05
0.000229283
3.67222e-05
0.000208398
0.000228658
0.000243288
7.14946e-05
0.000292964
0.000515543
0.000193824
0.000230035
0.000236473
0.000396328
0.000228998
6.23445e-05
0.000232462
0.000109937
0.000618692
2.72595e-05
0.000228998
4.02135e-05
0.000229254
0.000229757
0.000229401
5.09871e-05
0.000103744
7.22922e-05
0.000149742
3.27281e-05
8.15642e-05
0.000229687
0.000229007
0.000512438
0.000181757
0.000233876
0.000235425
4.11923e-05
4.51307e-05
2.96836e-05
2.93526e-05
0.000237164
0.000211752
5.34624e-05
0.000229407
3.03537e-05
0.00023392
0.000229804
0.000229441
8.05678e-05
3.5799e-05
0.000229878
0.00022909
0.000229512
0.000262716
2.39139e-05
0.000229903
4.08384e-05
0.000362861
0.000156627
7.23148e-05
0.000228851
3.62275e-05
0.000229088
0.000233953
0.000229058
0.000147933
0.000147714
0.000228646
0.000192695
0.000168833
0.000246623
0.000223679
0.000208964
0.000229671
0.000229438
0.000226978
9.90241e-05
6.0032e-05
0.000238503
9.62587e-05
0.000229773
0.000456753
0.000104661
4.55906e-05
0.000106178
0.000252652
0.00066333
6.98723e-05
0.000192476
0.000229152
0.000184231
0.000228856
0.000229789
0.000229228
0.000229766
0.000232495
0.000458916
0.000229615
0.000228885
0.000157283
0.00022922
4.79226e-05
0.000244568
0.000139304
0.000175633
4.77141e-05
0.000230021
0.000229291
0.000229843
2.21118e-05
3.58931e-05
0.000229355
0.000229234
0.000194536
0.000229773
0.000204711
0.000229747
0.00081887
0.000236936
3.03727e-05
9.62973e-05
0.000131305
5.06611e-05
0.000485954
0.000229204
0.000231502
0.000235278
0.000229849
7.16845e-05
2.53234e-05
0.000223904
0.000137323
0.000215692
0.000116115
0.000229307
0.000230403
0.000229697
0.000609273
0.000702217
8.36578e-05
0.00022964
0.000229093
0.000613397
0.000231774
0.000105959
0.000159291
0.000124492
0.000286096
0.000229121
8.85611e-05
0.000229262
7.05105e-05
0.000229676
0.000449945
0.000150211
0.000234783
2.30766e-05
0.000122231
0.000229872
0.000229986
0.000425273
0.000228999
0.000183389
0.000110808
8.0627e-05
0.000594733
5.55072e-05
0.000158394
0.00023146
0.000229187
0.000229475
0.000115284
5.53772e-05
0.000112598
0.000228632
0.000229341
9.13311e-05
0.000230107
0.000237961
0.000234044
0.000233691
0.000119923
5.85485e-05
8.29497e-05
0.000159948
0.00023356
0.000219354
0.000228821
0.000150102
0.00023164
0.000229304
0.000153341
0.000355989
0.000228927
0.000229025
2.15886e-05
0.000230332
0.000228969
0.000147669
0.000229725
0.000233041
0.000102002
9.17311e-05
0.000158599
0.000179607
0.000159499
7.07022e-05
0.000235627
6.72104e-05
0.000104916
0.000179335
5.36236e-05
7.44079e-05
0.000128168
0.000229778
0.000229957
0.000113948
0.000230104
0.000229438
0.000238753
0.000208456
0.000273198
0.000172781
0.000192489
0.000227243
0.000229078
0.000187667
0.000229497
0.000229271
0.000236583
7.91074e-05
0.000231752
0.000240926
0.000230657
0.000229821
0.000138551
6.22042e-05
0.000302111
0.000231985
0.000230645
0.000189897
0.000323088
0.000237242
0.000172021
0.000231556
0.000348972
0.000278212
0.000229104
8.83354e-05
0.000229949
0.000121229
0.000136163
0.000116988
0.000132106
0.000215306
0.000246639
0.000229833
9.91548e-05
0.000181931
4.74149e-05
0.000502365
0.000228949
0.000233741
0.000229823
0.000161008
0.000229684
4.35155e-05
0.000229651
0.000229078
0.000229151
0.000131831
6.40198e-05
0.000229543
0.00012976
0.00022929
0.000108984
0.000167578
0.00023108
0.000117961
2.12173e-05
8.57679e-05
0.000236847
0.000201607
0.000141992
0.000120614
0.000128466
8.3884e-05
0.000229222
0.000157706
0.00022941
0.000237073
4.93346e-05
0.000239461
3.57485e-05
0.000191458
0.000231429
0.000233251
0.000229227
5.12818e-05
0.000229667
0.000700924
0.000227743
0.00081573
0.000233331
0.000138773
0.000429687
0.000585718
0.000240386
0.000128476
3.71818e-05
6.07126e-05
0.000229552
0.000191168
0.000212179
0.000229519
5.08868e-05
0.000119287
0.000244482
0.000356195
0.000229071
0.000233602
0.000235112
0.000130855
0.000235833
0.000192415
0.000229639
0.000121561
0.000234213
9.19262e-05
9.72892e-05
0.000313969
0.000115083
0.000228985
0.000260688
5.95033e-05
0.000229134
0.000191696
0.000188006
0.000112236
0.000232937
2.83843e-05
0.000236291
0.000115012
9.65882e-05
0.000249879
0.000229228
0.000248038
0.000229044
0.000282951
2.11371e-05
0.000230058
0.000229461
0.000252221
0.000364966
0.000372027
0.000158518
0.000229808
0.000154666
0.00023972
0.000229572
0.000229645
0.00022979
0.000229356
0.000242529
0.000159424