/*--------------------------------*- C++ -*----------------------------------*\
| =========                 |                                                 |
| \\      /  F ield         | OpenFOAM: The Open Source CFD Toolbox           |
|  \\    /   O peration     | Version:  3.0.1                                 |
|   \\  /    A nd           | Web:      www.OpenFOAM.org                      |
|    \\/     M anipulation  |                                                 |
\*---------------------------------------------------------------------------*/
FoamFile
{
    version     2.0;
    format      ascii;
    class       volScalarField;
    location    "0.223101";
    object      k;
}
// * * * * * * * * * * * * * * * * * * * * * * * * * * * * * * * * * * * * * //

dimensions      [0 2 -2 0 0 0 0];

internalField   nonuniform List<scalar> 
21246
(
0.429527
0.561947
0.222378
0.111055
0.0518651
0.0271092
0.0178047
0.0142585
0.0126764
0.0118139
0.0112279
0.468007
0.672173
0.289925
0.140732
0.0666861
0.0323932
0.019181
0.0143976
0.0124162
0.0113891
0.0107132
0.487354
0.612724
0.325696
0.168909
0.0794805
0.0384961
0.0212046
0.0148584
0.0123551
0.011131
0.0103652
0.480905
0.549205
0.335362
0.181537
0.0895702
0.0441313
0.0234922
0.0155382
0.0124602
0.0110322
0.0102124
0.45417
0.51414
0.335683
0.187262
0.0971332
0.0493571
0.0258446
0.0163857
0.012711
0.0110674
0.0102018
0.415138
0.496181
0.336192
0.193424
0.104402
0.0548993
0.0285434
0.0173988
0.0130962
0.0112169
0.0102842
0.369552
0.488793
0.339422
0.201594
0.112379
0.060586
0.0320021
0.0188501
0.0136121
0.011465
0.0104443
0.321962
0.489648
0.34581
0.211167
0.120921
0.0666741
0.0358898
0.0207687
0.0144195
0.0118367
0.0106742
0.27696
0.494101
0.356758
0.22281
0.130381
0.0734671
0.0403273
0.0231593
0.0155196
0.0123635
0.0109936
0.236835
0.499069
0.373433
0.237994
0.14174
0.0814909
0.0456065
0.0261519
0.0169922
0.0130755
0.0114123
0.20229
0.507006
0.395691
0.25691
0.155164
0.0908123
0.0518198
0.0298373
0.0189131
0.0140271
0.0119451
0.175361
0.521156
0.424151
0.279468
0.170358
0.101168
0.0588604
0.0342281
0.0213411
0.0152799
0.01263
0.158576
0.539613
0.4599
0.307302
0.188344
0.112994
0.0669105
0.0394512
0.0243878
0.0169194
0.0135222
0.151704
0.55741
0.502909
0.342779
0.210933
0.127224
0.0763912
0.045739
0.0282373
0.0190831
0.0147019
0.155075
0.58019
0.553692
0.38693
0.238948
0.144284
0.0874856
0.0531946
0.0330189
0.021917
0.0162957
0.169673
0.605521
0.610803
0.442315
0.275133
0.165854
0.101041
0.0622465
0.0390083
0.0256448
0.0184762
0.182562
0.616931
0.664847
0.510163
0.323703
0.195043
0.118824
0.0738221
0.0467367
0.0306473
0.0215329
0.191085
0.613284
0.705542
0.586729
0.387754
0.235484
0.143341
0.0894287
0.057104
0.0375179
0.0259128
0.194182
0.592888
0.720219
0.659217
0.467534
0.292168
0.179123
0.11215
0.0720377
0.0474844
0.0324585
0.192598
0.558871
0.701042
0.705968
0.554646
0.369484
0.233373
0.14798
0.0956912
0.0632738
0.0429766
0.186876
0.497547
0.645673
0.709337
0.631687
0.468615
0.316985
0.208505
0.137205
0.0913581
0.0618868
0.199917
0.457262
0.584434
0.682157
0.68339
0.578023
0.436274
0.309273
0.213162
0.145921
0.100072
0.194083
0.399844
0.474684
0.533277
0.564212
0.548141
0.487872
0.399645
0.308074
0.229811
0.167254
0.235841
0.441281
0.458683
0.499183
0.521562
0.518
0.487893
0.429847
0.360458
0.293078
0.231119
0.351445
0.378519
0.188916
0.086726
0.0433993
0.0250446
0.0176607
0.0146041
0.0131846
0.0124295
0.0119655
0.284237
0.30687
0.164795
0.0918408
0.0482995
0.0279772
0.019263
0.0156144
0.0139713
0.0131507
0.0126993
0.296351
0.319231
0.164883
0.109012
0.0610857
0.03515
0.0226469
0.0173807
0.0151446
0.0141356
0.0136842
0.306315
0.302901
0.158219
0.116448
0.0701552
0.0427747
0.0276085
0.0202548
0.0169253
0.015462
0.0148819
0.312086
0.269508
0.152906
0.117651
0.0722011
0.045023
0.0292199
0.0214318
0.0178259
0.0161934
0.0155427
0.314925
0.238817
0.147051
0.113997
0.0710137
0.0456395
0.0300982
0.0222484
0.0185277
0.0168358
0.0161858
0.316263
0.214812
0.141165
0.108933
0.0687186
0.0453955
0.0304017
0.0228086
0.0191421
0.0174511
0.0168021
0.316316
0.196318
0.13543
0.103845
0.0664406
0.0448731
0.0305178
0.0232797
0.0197416
0.0181277
0.01754
0.316235
0.182051
0.130478
0.0996461
0.0648009
0.044376
0.0306457
0.0237117
0.020295
0.0187514
0.0181881
0.316698
0.171319
0.126402
0.0963685
0.0639155
0.044148
0.0308962
0.024153
0.020819
0.0193462
0.0188646
0.318141
0.163369
0.123424
0.0943503
0.0637489
0.044342
0.0313466
0.0246492
0.0213301
0.0199102
0.0195401
0.320389
0.157212
0.121121
0.093315
0.0642045
0.0449706
0.0320272
0.0252307
0.0218406
0.0204257
0.0201421
0.323735
0.152492
0.119529
0.0932019
0.0653393
0.0461074
0.0330005
0.0259428
0.0223708
0.0208811
0.0206472
0.326708
0.150187
0.118652
0.0939432
0.0673379
0.047939
0.0344433
0.0268975
0.0229829
0.0213004
0.0210217
0.328979
0.149072
0.117996
0.0949456
0.069957
0.0504592
0.0365458
0.0283087
0.0238627
0.0218275
0.0213606
0.330721
0.149208
0.117601
0.0961822
0.0731108
0.0537441
0.0394241
0.0303489
0.025166
0.0225863
0.021758
0.332066
0.150665
0.11757
0.097629
0.0767146
0.0578571
0.0432265
0.0332491
0.0271345
0.0237892
0.0223856
0.333086
0.153302
0.117963
0.0992134
0.0806055
0.0627653
0.0480803
0.0372773
0.030103
0.0257747
0.023555
0.333903
0.157086
0.118941
0.100904
0.0845993
0.0683347
0.0540539
0.0427071
0.0345015
0.0290417
0.0257793
0.334711
0.162094
0.120775
0.102747
0.0884971
0.0742787
0.0610411
0.0497041
0.0407692
0.0342288
0.0298114
0.335807
0.168313
0.12377
0.104884
0.0920912
0.0800976
0.068571
0.0580484
0.0490657
0.0418763
0.0365003
0.337966
0.17531
0.128029
0.10748
0.0951453
0.0849954
0.0755208
0.0666117
0.0585464
0.0516051
0.0459689
0.34181
0.183966
0.134106
0.110922
0.0975984
0.0880713
0.0800908
0.072959
0.0665564
0.0609375
0.0561954
0.360994
0.19391
0.152314
0.132773
0.121694
0.113911
0.106827
0.103662
0.103647
0.105617
0.107845
0.381005
0.702573
0.711558
0.700354
0.629024
0.472554
0.300673
0.193342
0.134576
0.0970445
0.0693778
0.30629
0.499366
0.577854
0.60594
0.580751
0.477443
0.324849
0.19638
0.121876
0.0820865
0.0560632
0.196293
0.375411
0.462912
0.507521
0.510115
0.448961
0.330026
0.205476
0.12015
0.0721513
0.0459512
0.111116
0.31507
0.379599
0.422798
0.437732
0.403605
0.315528
0.20638
0.11961
0.0674211
0.039569
0.0786692
0.268862
0.319224
0.354805
0.372254
0.353355
0.288734
0.197793
0.116676
0.0639631
0.0352579
0.0762075
0.210702
0.268357
0.29941
0.315426
0.304383
0.256291
0.182197
0.110306
0.0603361
0.032138
0.0672432
0.167403
0.219648
0.251438
0.266412
0.259201
0.222421
0.162447
0.100909
0.0559084
0.0295607
0.0593157
0.134641
0.178377
0.207783
0.223848
0.218595
0.18957
0.141046
0.0897204
0.0508323
0.0272061
0.0524871
0.109611
0.145334
0.170809
0.186585
0.182975
0.159547
0.120359
0.078407
0.0457617
0.0251524
0.0466379
0.0907415
0.120133
0.141245
0.155433
0.152914
0.133919
0.102419
0.0685256
0.0414348
0.0236131
0.041898
0.0770109
0.10193
0.119081
0.130962
0.129054
0.11372
0.0884486
0.0610076
0.0383249
0.0226719
0.0383991
0.0675316
0.0895417
0.103512
0.112981
0.111568
0.0992235
0.0787783
0.056111
0.0365837
0.0224245
0.0359522
0.0610531
0.081307
0.0929711
0.100758
0.0998652
0.0899365
0.0730603
0.0536789
0.0361793
0.022875
0.0340989
0.0565255
0.0758138
0.0862023
0.0930685
0.0928021
0.0848304
0.0705422
0.0533181
0.0369681
0.0239382
0.0324929
0.0535779
0.0724269
0.0821662
0.0886901
0.0891363
0.0827856
0.0704245
0.0546143
0.0388106
0.0256504
0.0310218
0.0516555
0.0703988
0.0799181
0.086538
0.0878588
0.0830153
0.0722445
0.0574025
0.0416869
0.027991
0.0295619
0.0502207
0.0690528
0.0786722
0.0857913
0.0883321
0.0851886
0.0759807
0.061866
0.0458434
0.0311518
0.0280349
0.049104
0.0680271
0.0779537
0.086128
0.0906068
0.0897522
0.0823261
0.0687342
0.0519111
0.0356346
0.0264011
0.0481541
0.0670217
0.0777152
0.0881696
0.0960235
0.0985195
0.0931985
0.0796373
0.0609687
0.0419395
0.0245955
0.0469041
0.0660643
0.0792443
0.0947208
0.108559
0.115522
0.111833
0.0969977
0.0748125
0.0512777
0.022857
0.0504095
0.0697454
0.0863547
0.110336
0.132376
0.144195
0.141121
0.122507
0.0946609
0.064851
0.0375231
0.0605995
0.0746344
0.113885
0.153294
0.180176
0.191486
0.183835
0.157672
0.119765
0.0824077
0.0387672
0.110117
0.155728
0.202977
0.240493
0.261666
0.264052
0.248652
0.213602
0.160029
0.106019
0.195031
0.245322
0.294667
0.328113
0.340878
0.332698
0.308493
0.278543
0.246443
0.201676
0.14099
0.402372
0.735471
0.766635
0.730153
0.621892
0.465151
0.316049
0.216363
0.158635
0.119094
0.0861281
0.234772
0.438967
0.582882
0.655328
0.636606
0.530061
0.383881
0.266681
0.198026
0.153126
0.116156
0.122018
0.232561
0.382243
0.519028
0.598342
0.578179
0.461545
0.327549
0.243725
0.192543
0.15198
0.0986383
0.147493
0.244302
0.367921
0.491994
0.560613
0.516335
0.388507
0.291411
0.235041
0.190276
0.100543
0.13952
0.197466
0.276386
0.382432
0.487815
0.522111
0.433305
0.319401
0.268721
0.229293
0.104587
0.146087
0.193166
0.247738
0.321648
0.414564
0.489424
0.468236
0.343012
0.270473
0.24967
0.109336
0.155186
0.197934
0.240164
0.293378
0.367542
0.449381
0.47699
0.383504
0.270583
0.248202
0.114472
0.16525
0.206033
0.240167
0.278458
0.334448
0.410088
0.464536
0.414009
0.29038
0.236103
0.119854
0.176099
0.216051
0.243726
0.270255
0.309677
0.372435
0.437928
0.426293
0.315794
0.231149
0.125377
0.187626
0.227235
0.248926
0.26588
0.290923
0.338241
0.403321
0.422052
0.335064
0.236003
0.131154
0.199588
0.23894
0.254786
0.263948
0.2774
0.309852
0.367643
0.405711
0.344732
0.242436
0.137554
0.212007
0.251212
0.261366
0.263513
0.268213
0.288502
0.335031
0.38632
0.347262
0.248863
0.144745
0.225068
0.26324
0.268611
0.263861
0.261788
0.274084
0.306495
0.350879
0.346816
0.252077
0.152195
0.239115
0.276277
0.276497
0.264409
0.255187
0.260173
0.281946
0.312863
0.324992
0.257994
0.159756
0.254704
0.29122
0.285992
0.265794
0.248568
0.245923
0.258374
0.278877
0.292966
0.263108
0.168104
0.273166
0.309665
0.298741
0.269329
0.242931
0.232484
0.2373
0.251771
0.265514
0.25925
0.1777
0.296017
0.33402
0.31781
0.27809
0.2408
0.221361
0.219219
0.22872
0.239747
0.240694
0.188901
0.325348
0.368473
0.34953
0.299275
0.248202
0.215608
0.204915
0.207296
0.212816
0.213537
0.201581
0.363057
0.417746
0.401895
0.342825
0.273621
0.224963
0.201918
0.194704
0.193533
0.191725
0.211499
0.401656
0.469878
0.459331
0.395384
0.314641
0.251159
0.215488
0.199822
0.193979
0.190787
0.207012
0.419272
0.498586
0.500675
0.441609
0.354874
0.279751
0.233785
0.212021
0.204477
0.204104
0.207307
0.420428
0.506308
0.515213
0.462486
0.378199
0.299849
0.247709
0.220035
0.207284
0.199106
0.212337
0.411068
0.48412
0.491666
0.447973
0.377763
0.308169
0.25698
0.22517
0.20591
0.178903
0.283349
0.409044
0.440245
0.432453
0.40101
0.354137
0.30192
0.259339
0.229879
0.202592
0.159659
1.28715
1.73804
1.15037
0.662738
0.365671
0.200004
0.109029
0.0592186
0.0322094
0.0180909
0.0112041
0.834803
1.16667
0.902701
0.582948
0.347869
0.200267
0.112122
0.0612242
0.0330487
0.0182583
0.0110511
0.614802
0.937451
0.823449
0.608194
0.387631
0.230275
0.131193
0.0719604
0.0383722
0.0205893
0.012011
0.516556
0.751101
0.693396
0.565147
0.394626
0.248909
0.145907
0.0807202
0.0428529
0.0225539
0.0128717
0.467151
0.640643
0.599294
0.504492
0.36527
0.238442
0.143315
0.0810233
0.0438411
0.0233668
0.0132122
0.433674
0.554274
0.525555
0.447415
0.327092
0.217725
0.134549
0.0784814
0.0436951
0.0238139
0.0137251
0.409468
0.489085
0.465651
0.395713
0.291153
0.196252
0.123822
0.0742148
0.0425501
0.0238043
0.0139153
0.390991
0.438146
0.416687
0.352234
0.259739
0.176391
0.112997
0.069253
0.0407621
0.0234345
0.0142653
0.376592
0.397636
0.376852
0.316881
0.233694
0.159415
0.103269
0.0644643
0.0388845
0.0230003
0.014392
0.365201
0.364653
0.344581
0.288771
0.212942
0.145688
0.0951548
0.0602772
0.0371253
0.0224906
0.0142657
0.355937
0.337216
0.318013
0.266209
0.196447
0.134752
0.0885804
0.0567739
0.035558
0.021937
0.0141903
0.348262
0.314166
0.295715
0.247644
0.183076
0.125966
0.0832919
0.0539245
0.0342537
0.0214584
0.0140495
0.342375
0.294625
0.277105
0.232599
0.172516
0.119159
0.0792317
0.0517554
0.033281
0.0211174
0.0139915
0.338525
0.278126
0.261776
0.220871
0.164675
0.114286
0.0764037
0.0503004
0.0326813
0.0209403
0.0140328
0.335909
0.264075
0.248814
0.211535
0.158911
0.110998
0.0746552
0.0495241
0.0324813
0.0209807
0.0141559
0.334862
0.251967
0.237916
0.204407
0.155162
0.109316
0.0740353
0.049486
0.032747
0.0212841
0.0144244
0.334829
0.241843
0.228241
0.198799
0.153404
0.109543
0.0748851
0.0504325
0.0336475
0.021968
0.0148907
0.335783
0.23318
0.219395
0.193937
0.152884
0.111279
0.0771145
0.0523948
0.0352345
0.0231705
0.0157229
0.337961
0.225863
0.211254
0.189647
0.153411
0.1145
0.0808818
0.0556032
0.0377064
0.0250427
0.0169892
0.341828
0.219833
0.203639
0.185634
0.154656
0.119087
0.0863803
0.0604561
0.0414779
0.0278919
0.0189356
0.348156
0.215129
0.196323
0.181451
0.156024
0.124665
0.0936896
0.0674574
0.0472409
0.0323422
0.0220876
0.358698
0.211224
0.189057
0.176492
0.156606
0.130433
0.102522
0.0769762
0.055846
0.0394082
0.0273879
0.373516
0.207344
0.181018
0.170224
0.155654
0.135425
0.112107
0.0888488
0.0678736
0.0502285
0.036262
0.387515
0.202322
0.178865
0.168072
0.156344
0.140735
0.122111
0.102285
0.0829313
0.0652138
0.049902
1.3184
2.41639
1.3393
0.881784
0.522346
0.274741
0.140498
0.0727588
0.038073
0.0206463
0.0123785
1.26079
2.04408
1.46147
1.02716
0.680456
0.376296
0.196891
0.100591
0.0507557
0.0260869
0.0146216
1.07912
1.60526
1.39011
1.05016
0.748549
0.461039
0.257351
0.136071
0.0686046
0.0341098
0.0182921
0.83589
1.37139
1.28552
1.01571
0.756321
0.507076
0.309435
0.173342
0.0900617
0.0449355
0.0241266
0.608235
1.30948
1.21199
0.973098
0.739786
0.523274
0.347574
0.207442
0.113118
0.057883
0.0308811
0.453101
1.31869
1.18048
0.943667
0.719253
0.525028
0.371832
0.236885
0.135785
0.0720647
0.0387912
0.377357
1.35185
1.18293
0.930161
0.70187
0.520939
0.385307
0.261736
0.157338
0.0868439
0.0478889
0.365734
1.41045
1.21054
0.929265
0.688225
0.514424
0.392269
0.279774
0.178083
0.10223
0.0566348
0.381795
1.46355
1.25498
0.939466
0.678941
0.507557
0.395526
0.293091
0.195569
0.117511
0.0667498
0.397245
1.49371
1.30796
0.959894
0.674672
0.501674
0.396835
0.303258
0.210466
0.131581
0.0768388
0.405945
1.48618
1.36125
0.990412
0.676991
0.498142
0.397522
0.311464
0.223669
0.144834
0.0867581
0.411084
1.4594
1.40966
1.02689
0.684958
0.497061
0.398091
0.318273
0.235659
0.157698
0.0962365
0.413579
1.42903
1.44562
1.06643
0.699039
0.499227
0.399279
0.3243
0.246879
0.170599
0.106148
0.409908
1.37609
1.4602
1.10845
0.720918
0.505906
0.401978
0.330191
0.257758
0.183874
0.117503
0.403328
1.3139
1.45452
1.14826
0.749005
0.517442
0.406834
0.336465
0.268623
0.19776
0.130829
0.394995
1.24857
1.42958
1.18142
0.782617
0.534561
0.414966
0.344067
0.280061
0.212813
0.146342
0.385385
1.17763
1.38553
1.20279
0.819604
0.558286
0.428016
0.354414
0.292916
0.229443
0.164595
0.379399
1.09581
1.32267
1.20529
0.855009
0.588379
0.448071
0.369762
0.308694
0.248299
0.185778
0.376149
1.00116
1.23724
1.17875
0.880542
0.623946
0.47837
0.394142
0.330423
0.270958
0.210282
0.373308
0.903157
1.10751
1.11753
0.889668
0.666971
0.526302
0.435705
0.364665
0.301378
0.239709
0.354697
0.747827
0.906335
0.972109
0.87046
0.710659
0.590407
0.494423
0.411118
0.33847
0.270899
0.401344
0.694831
0.735217
0.762636
0.727416
0.630451
0.546728
0.46344
0.380827
0.305222
0.234543
0.343317
0.713717
0.758684
0.617287
0.508877
0.409187
0.32349
0.253971
0.197198
0.151627
0.114899
0.392567
0.306503
0.242389
0.203477
0.177537
0.156616
0.137325
0.118521
0.100134
0.0825714
0.066289
0.11066
0.0996159
0.0829513
0.0568559
0.0218823
0.013263
0.0158203
0.0177721
0.0312838
0.147552
0.120091
0.0926821
0.0665548
0.046198
0.0267226
0.024682
0.0330519
0.0572296
0.145168
0.125409
0.104464
0.078201
0.0527441
0.0336463
0.0301372
0.0399393
0.0695046
0.131079
0.113965
0.0978793
0.0783537
0.0556691
0.0392618
0.0363357
0.0450892
0.0721228
0.119467
0.122154
0.121665
0.119532
0.114077
0.107053
0.0960539
0.0826125
0.0635605
0.170267
0.187545
0.200262
0.198771
0.178832
0.160516
0.137217
0.109123
0.0805507
0.167889
0.18914
0.202432
0.19738
0.176425
0.156078
0.137175
0.118572
0.0956218
0.14884
0.166141
0.177467
0.172469
0.15544
0.13865
0.122351
0.10723
0.0918771
0.00442739
0.00460074
0.00461618
0.0069213
0.0201462
0.00439051
0.0128372
0.00453886
0.00438285
0.00422179
0.0205392
0.00454944
0.00417701
0.00392656
0.00448373
0.004301
0.00384555
0.00667877
0.00428991
0.00424561
0.00411277
0.00434397
0.00466615
0.00667173
0.00449426
0.00391588
0.00418944
0.013142
0.0880357
0.0145155
0.00390361
0.00405293
0.00405649
0.004534
0.00419963
0.00459181
0.00645394
0.00448953
0.00412766
0.00440052
0.00694421
0.00454318
0.00407034
0.00465895
0.0585865
0.0147728
0.00346774
0.0231565
0.00424854
0.00431282
0.0136217
0.00440576
0.00492035
0.00402346
0.00431062
0.0041198
0.00421913
0.00441202
0.0866396
0.00448872
0.00561047
0.0048997
0.0287635
0.0362212
0.00877819
0.00425665
0.0169973
0.00424821
0.00460145
0.00421235
0.00373378
0.00429215
0.00709904
0.00460707
0.0069496
0.0042717
0.00374143
0.00459597
0.0409893
0.0736339
0.00516158
0.0361273
0.00449577
0.00462552
0.00423153
0.00707855
0.110475
0.00480393
0.00787364
0.00525023
0.00454191
0.00442177
0.00718045
0.00430927
0.0729311
0.0281369
0.00546684
0.00397505
0.0082374
0.00438755
0.00457327
0.0231521
0.00415369
0.00393723
0.00671202
0.0045487
0.00361401
0.00464631
0.00397323
0.00418499
0.00450563
0.00455812
0.00428412
0.00757284
0.0051507
0.00442418
0.00438672
0.00431128
0.00449333
0.00413159
0.00732086
0.00451497
0.00478369
0.00380498
0.0135569
0.00414805
0.00442646
0.00360142
0.00373958
0.00385617
0.0044552
0.00444297
0.0230517
0.00427617
0.00461446
0.00440139
0.00348362
0.0284008
0.0136414
0.00441656
0.00425737
0.00411753
0.0400613
0.00401294
0.00437727
0.00440461
0.00438425
0.00425234
0.00429966
0.00423666
0.00426071
0.00441992
0.0050068
0.00448214
0.00797912
0.00408038
0.00646905
0.00464573
0.00369402
0.00435573
0.00378143
0.00893842
0.00428685
0.0044335
0.0181067
0.00434231
0.00844584
0.0045065
0.00410484
0.00835668
0.00395607
0.00360477
0.00433255
0.00405096
0.00404759
0.00392261
0.0036541
0.00542379
0.0599015
0.00389525
0.00425585
0.00396371
0.00465985
0.00674669
0.00449678
0.0172655
0.00423981
0.00429557
0.0045876
0.0427306
0.00398563
0.00395429
0.00426977
0.00638429
0.00460966
0.00439644
0.00434802
0.00843497
0.00388292
0.00467915
0.00357348
0.00430309
0.0040815
0.00394927
0.0046279
0.00476972
0.00429324
0.00373396
0.00433576
0.00433719
0.00512571
0.00439528
0.00400391
0.00416908
0.00449003
0.00542888
0.00450882
0.00354767
0.00425397
0.00382681
0.00415743
0.00701062
0.00551412
0.0053294
0.00377526
0.00441674
0.00579383
0.00424681
0.00392669
0.0354495
0.00526926
0.00425392
0.00425364
0.00456066
0.00508557
0.0736179
0.00958109
0.00464645
0.00455529
0.00454314
0.00352754
0.0173198
0.00392469
0.0050587
0.00431254
0.00965987
0.0045162
0.00392488
0.0358926
0.00553232
0.00393153
0.00522418
0.0050061
0.00429365
0.00393538
0.00436023
0.00414206
0.00447523
0.00378114
0.00423495
0.00375562
0.00439672
0.00432463
0.0045717
0.004504
0.00347708
0.00412056
0.00428961
0.00571925
0.00370197
0.0109544
0.00430391
0.00429589
0.00346921
0.00438438
0.00432478
0.00382715
0.00444416
0.00424454
0.00713333
0.00433198
0.0045966
0.00524875
0.00886585
0.00393526
0.00439142
0.0757073
0.00458467
0.00421222
0.00439245
0.00461495
0.0158076
0.00462354
0.00414347
0.00467831
0.00434586
0.0040936
0.00456151
0.00420029
0.00382278
0.00444704
0.00674023
0.00431315
0.014246
0.00415282
0.0041801
0.00459641
0.00414086
0.00386995
0.00434953
0.00816159
0.00456202
0.00408492
0.00402587
0.00428855
0.00408507
0.00415849
0.0103646
0.00412242
0.00440211
0.00423946
0.00448698
0.00435623
0.00379318
0.0426695
0.00427268
0.00445267
0.00413514
0.00423763
0.00628671
0.0042585
0.0294655
0.00351743
0.00465155
0.00408357
0.0442271
0.00654186
0.00458415
0.00447055
0.00395152
0.00407094
0.00529882
0.00429142
0.00433099
0.00952806
0.00415387
0.00383616
0.00437919
0.00606209
0.00464097
0.00883705
0.00395343
0.00371517
0.00417062
0.00413354
0.00468915
0.0041654
0.00397725
0.00466012
0.00632129
0.00386055
0.00396447
0.00451637
0.00451178
0.00430383
0.00787658
0.00361439
0.00426178
0.010278
0.00477468
0.00443777
0.00759323
0.0413677
0.00379142
0.00421474
0.00460623
0.00389122
0.00418414
0.00437115
0.00424223
0.00601199
0.00438058
0.00419101
0.00442263
0.00395057
0.0127365
0.00660316
0.00376286
0.0165541
0.00803209
0.00442944
0.00768504
0.00366984
0.00473224
0.0129871
0.00905201
0.00447839
0.00427482
0.00462069
0.00353952
0.00376851
0.00441077
0.00466362
0.00443342
0.00398743
0.00899769
0.0305075
0.00414441
0.00430251
0.00445613
0.00436023
0.00427512
0.00403705
0.0040126
0.00536617
0.00406307
0.00400141
0.00485591
0.00369708
0.0112887
0.0118138
0.00369426
0.0126697
0.00389418
0.003936
0.00416804
0.00457326
0.00476951
0.00508868
0.0107563
0.00448508
0.00419257
0.00388339
0.00409414
0.0045532
0.00432035
0.00612913
0.0117279
0.00381086
0.00468849
0.00385283
0.109562
0.00566705
0.00665776
0.00422578
0.00444381
0.00496442
0.00339592
0.0043376
0.00734797
0.00444091
0.00461255
0.00449727
0.0116147
0.00440395
0.0104985
0.00395957
0.00355172
0.00485289
0.00458934
0.00433281
0.00447198
0.00374611
0.00392601
0.00432579
0.00773996
0.00728042
0.00545505
0.00546768
0.00425785
0.00389096
0.00637381
0.00421776
0.00552055
0.00427008
0.00458163
0.00431507
0.00557825
0.00579697
0.00424555
0.00445256
0.00412983
0.0344559
0.00388456
0.00464666
0.00409802
0.0424761
0.00403755
0.00438623
0.0043364
0.00362451
0.00439373
0.00426224
0.00441197
0.00378206
0.00371356
0.00425964
0.00382785
0.00398981
0.00428073
0.00410966
0.00413036
0.00453272
0.00453425
0.0422867
0.00436016
0.00694263
0.00426297
0.019928
0.00461884
0.0110226
0.0045401
0.00822042
0.00427607
0.0046174
0.0119441
0.00347882
0.00382077
0.00445278
0.003737
0.00411121
0.00459482
0.00442297
0.00456778
0.00421965
0.00610969
0.00451101
0.00435033
0.0049182
0.00443991
0.00957038
0.00421558
0.00408848
0.00374074
0.00768681
0.00467781
0.00447593
0.0046362
0.00583122
0.0056866
0.00450066
0.00449101
0.00380295
0.00461605
0.0051113
0.00460512
0.00545942
0.0042044
0.00499584
0.00418721
0.00375282
0.0160567
0.0118304
0.0041632
0.00411651
0.00428253
0.00460321
0.00430802
0.00328862
0.00423252
0.00397361
0.0245135
0.0249165
0.0044927
0.00431066
0.00459631
0.00494572
0.00971126
0.00428502
0.00453772
0.00437838
0.0084885
0.00428298
0.00406965
0.00377562
0.00415063
0.0170108
0.00443482
0.00456449
0.00446273
0.00351428
0.00433143
0.00681762
0.00366508
0.00405198
0.00452443
0.00446659
0.00463789
0.00467364
0.073732
0.00440753
0.00378149
0.0123058
0.00349323
0.00495446
0.00404995
0.00410684
0.00419797
0.00444175
0.00448654
0.0286019
0.00348893
0.00423702
0.0042474
0.00450134
0.0228902
0.00422994
0.0043567
0.00429188
0.00427737
0.00400347
0.00364421
0.00348943
0.00577069
0.00399944
0.0050386
0.00428698
0.00498419
0.00425674
0.00445436
0.0359257
0.00572433
0.00438336
0.00438667
0.00342927
0.00414018
0.00432721
0.00565596
0.00460655
0.00421401
0.00390838
0.00417175
0.00379354
0.00380723
0.00368861
0.016885
0.00429871
0.00495725
0.00419072
0.00392627
0.00820177
0.00694125
0.00385964
0.0046207
0.00417616
0.0433595
0.00392041
0.00421289
0.00446387
0.003889
0.00420056
0.0345683
0.00385789
0.00437763
0.00442674
0.00512005
0.00455023
0.00428509
0.0042435
0.00395987
0.00424118
0.00427482
0.00420635
0.00458889
0.0135718
0.00609115
0.0362902
0.00425569
0.00422609
0.00397297
0.00456294
0.00436799
0.0299922
0.0042879
0.00888256
0.00421834
0.00443299
0.00425018
0.00465861
0.00405914
0.0189265
0.00400863
0.0312711
0.00375907
0.00414678
0.00463603
0.00389485
0.00375366
0.0111695
0.00448529
0.00437048
0.00406856
0.00463212
0.00374044
0.00420539
0.00379393
0.00455176
0.00441135
0.00440032
0.00418526
0.00361742
0.00456232
0.00372544
0.00437237
0.00420303
0.00370027
0.00407324
0.0142679
0.00437075
0.00421633
0.00406857
0.00423067
0.00410693
0.00450547
0.00400114
0.0125125
0.00446816
0.00403329
0.00448918
0.0042575
0.0075172
0.004985
0.00362025
0.00392552
0.00428643
0.00421328
0.00412304
0.0036265
0.00458405
0.00464311
0.00447569
0.00552416
0.00415934
0.00395477
0.00448191
0.00492051
0.00452491
0.0040236
0.0065177
0.00802831
0.00452312
0.00396546
0.0226991
0.00454813
0.00923774
0.00385672
0.00461675
0.00854975
0.00438743
0.00425234
0.00419506
0.00378321
0.00434538
0.00378055
0.00456941
0.00406763
0.00428891
0.00415646
0.00437431
0.00567798
0.00393078
0.00428386
0.00583265
0.0154734
0.00446407
0.00383729
0.0038241
0.00438354
0.00501981
0.00453191
0.00454569
0.00498592
0.00418632
0.00485464
0.00427705
0.0042201
0.00441683
0.00402717
0.00356597
0.00468983
0.00448328
0.00445212
0.0445883
0.0047151
0.00410114
0.00457101
0.00403209
0.0047222
0.00455474
0.00457823
0.00462603
0.00448044
0.00430841
0.0036683
0.00822737
0.00666386
0.00363448
0.00454645
0.00442717
0.00449524
0.00373368
0.00812081
0.0045953
0.00411951
0.00393082
0.0183173
0.0058962
0.00470101
0.00387485
0.00476491
0.0044311
0.00446478
0.0126508
0.00421569
0.00455969
0.00446725
0.0040457
0.00388037
0.00380157
0.00455532
0.0044322
0.00531912
0.00720095
0.00455837
0.00366972
0.00448452
0.00357732
0.00553448
0.00463932
0.00427046
0.00644125
0.0036885
0.00438105
0.00460019
0.00420439
0.00450961
0.00432523
0.00458618
0.00499669
0.00384138
0.00892009
0.014505
0.00445936
0.00454205
0.0184369
0.00466871
0.00428161
0.004726
0.0044853
0.00441576
0.00442428
0.00805861
0.0051061
0.00403503
0.00441248
0.00480862
0.00442161
0.0046885
0.00431472
0.00438172
0.00450133
0.00449439
0.00455745
0.00427968
0.0668774
0.00438239
0.00425362
0.00488298
0.0306555
0.00424804
0.00450507
0.0312007
0.0565647
0.00423143
0.00433641
0.0039397
0.00556982
0.00465028
0.00454033
0.00426516
0.0039942
0.00451308
0.00459478
0.00485551
0.00412484
0.00432342
0.00416142
0.00457593
0.00402913
0.00564062
0.00444498
0.0045262
0.00426969
0.00460627
0.00397926
0.0106429
0.00416049
0.0042326
0.00501129
0.00431287
0.00391788
0.0177535
0.00466327
0.00455557
0.00367628
0.0040683
0.00401798
0.004407
0.0131361
0.00428875
0.00390318
0.00430635
0.00373697
0.00363986
0.00708332
0.00392744
0.00419908
0.00452818
0.00834041
0.00368414
0.00441775
0.00436003
0.00394412
0.0043428
0.00420788
0.00495786
0.00437986
0.00460349
0.0037908
0.0101635
0.0286648
0.00348637
0.00378317
0.00396427
0.00542212
0.0277563
0.00452014
0.00440754
0.00460699
0.00439697
0.00532437
0.00449061
0.00488397
0.00414814
0.00413941
0.00460321
0.00383114
0.0046475
0.00441498
0.00401118
0.00920395
0.00424635
0.00445736
0.00428145
0.00440674
0.00471686
0.0118804
0.00444991
0.00417726
0.00889247
0.00346907
0.00515041
0.00460931
0.00416081
0.00410455
0.0045969
0.00466081
0.00405791
0.00375238
0.0160743
0.00395238
0.0039743
0.00407918
0.00434156
0.00355714
0.0041461
0.00422804
0.00420793
0.00455344
0.0674615
0.00403547
0.0233141
0.00455273
0.00461753
0.0149731
0.0235135
0.00377047
0.00364506
0.00467572
0.00364649
0.03416
0.00455988
0.00401732
0.00564759
0.00442771
0.00824963
0.00391998
0.00445495
0.00432065
0.00627151
0.00424674
0.00686448
0.00426158
0.00407467
0.0107119
0.00459657
0.00356153
0.0079884
0.00511767
0.00482284
0.0044405
0.00438697
0.00440868
0.00381727
0.00454472
0.00463803
0.00467899
0.00670505
0.00414048
0.00460844
0.00409166
0.00452184
0.00384315
0.00452091
0.00882421
0.00414278
0.00407187
0.00424238
0.00455452
0.00428978
0.00442075
0.0137693
0.00427286
0.0049978
0.00398152
0.00836527
0.00450447
0.0041747
0.00450384
0.00437494
0.00715875
0.0086014
0.00444466
0.0596045
0.0111403
0.0294955
0.00418145
0.00447733
0.00690653
0.00462754
0.00375265
0.00514983
0.00423731
0.00542485
0.00409897
0.0104893
0.00420589
0.0037631
0.00454979
0.00850855
0.00469631
0.0406378
0.00406864
0.00474898
0.0103091
0.00511812
0.00421357
0.00411433
0.00448378
0.00446838
0.00601487
0.00556407
0.0374014
0.00384532
0.00774514
0.0157067
0.00414896
0.00461123
0.00422423
0.00429708
0.00385894
0.0038035
0.0140081
0.00385828
0.00355556
0.0607922
0.00437186
0.00425864
0.00435825
0.00456914
0.00419333
0.00380546
0.00423106
0.0038041
0.0104097
0.0042791
0.0387931
0.0131953
0.00432444
0.00589125
0.00375323
0.0034673
0.00361121
0.00427227
0.00442355
0.00452751
0.0114273
0.00436914
0.00458597
0.00396236
0.00454334
0.00428632
0.0100644
0.00460833
0.0369055
0.00417007
0.00634219
0.00428302
0.0046357
0.00442393
0.00403081
0.0148817
0.00444703
0.00424636
0.00398355
0.00409732
0.00425178
0.00527949
0.00405085
0.00423781
0.0230667
0.00426315
0.00404289
0.00431299
0.00498668
0.00377785
0.00454739
0.00808084
0.0156337
0.00425643
0.00468946
0.00450794
0.00407175
0.00407116
0.0038118
0.00331675
0.0672068
0.00479773
0.00585292
0.00555596
0.00457303
0.00742672
0.00424361
0.00422702
0.0946892
0.00457692
0.0220998
0.0378976
0.00456049
0.00449407
0.00471126
0.0273569
0.00501826
0.023146
0.00377619
0.0045642
0.00426116
0.0040264
0.00440605
0.00641758
0.00405515
0.00433628
0.00630888
0.0047702
0.00662514
0.00417198
0.00505831
0.0475432
0.00402307
0.00384523
0.00429491
0.00435681
0.028742
0.0039512
0.00393974
0.00459859
0.00458455
0.00414569
0.0197329
0.0118656
0.00393879
0.0299596
0.00488532
0.00437783
0.0136098
0.023429
0.00461973
0.00362089
0.00422397
0.00410144
0.00522752
0.004535
0.00442194
0.0042391
0.00469383
0.00356147
0.00435517
0.00349284
0.0046129
0.0045571
0.00468819
0.00382899
0.00443013
0.00444404
0.00422538
0.00455815
0.0168379
0.0112893
0.0039654
0.00615534
0.00455823
0.00395497
0.00521784
0.00451916
0.00456184
0.00448008
0.00412118
0.00449652
0.00426737
0.00425734
0.00320359
0.00371109
0.00402402
0.00440736
0.00424575
0.0248936
0.00421227
0.00467571
0.00421037
0.00458637
0.00370532
0.00413352
0.00376077
0.00412271
0.00417863
0.00449922
0.00934842
0.00422236
0.00546485
0.00602754
0.00468828
0.00424658
0.0046776
0.00381505
0.00390272
0.00439501
0.0054877
0.00525439
0.00583956
0.00375733
0.00395121
0.00686711
0.00402005
0.00450349
0.0727277
0.00363901
0.00413223
0.0046267
0.00432175
0.00388272
0.0073402
0.0181436
0.00364162
0.0444553
0.041123
0.00448542
0.0042523
0.00499807
0.00837868
0.00399371
0.00454782
0.00415115
0.00462935
0.00442073
0.00425501
0.00440176