/*--------------------------------*- C++ -*----------------------------------*\
| =========                 |                                                 |
| \\      /  F ield         | OpenFOAM: The Open Source CFD Toolbox           |
|  \\    /   O peration     | Version:  3.0.1                                 |
|   \\  /    A nd           | Web:      www.OpenFOAM.org                      |
|    \\/     M anipulation  |                                                 |
\*---------------------------------------------------------------------------*/
FoamFile
{
    version     2.0;
    format      ascii;
    class       volScalarField;
    location    "0.223101";
    object      p;
}
// * * * * * * * * * * * * * * * * * * * * * * * * * * * * * * * * * * * * * //

dimensions      [0 2 -2 0 0 0 0];

internalField   nonuniform List<scalar> 
21246
(
-2.72885
1.87451
2.82997
2.85501
2.43701
1.92005
1.42266
0.975629
0.580302
0.253174
0.0943557
-25.6461
-12.509
-7.9021
-4.22936
-2.09793
-1.08091
-0.667573
-0.552648
-0.577702
-0.658673
-0.681396
-29.2607
-20.8172
-17.1646
-11.9058
-7.89961
-5.18081
-3.50918
-2.5494
-2.0168
-1.71464
-1.49218
-25.2917
-22.2657
-20.6679
-16.2949
-12.4442
-9.08406
-6.53337
-4.7851
-3.64743
-2.91086
-2.38884
-20.7786
-20.0848
-19.7282
-17.1167
-14.4592
-11.4991
-8.85614
-6.74901
-5.19671
-4.09933
-3.30127
-17.3859
-17.3342
-17.3283
-15.9497
-14.3901
-12.2287
-10.0355
-8.03192
-6.37119
-5.08771
-4.10463
-14.761
-14.9303
-14.9604
-14.2065
-13.3042
-11.8344
-10.2074
-8.55057
-7.02852
-5.74039
-4.68109
-12.5874
-12.857
-12.8818
-12.4622
-11.9213
-10.9266
-9.75969
-8.47199
-7.19706
-6.03592
-5.03202
-10.9109
-11.0919
-11.1049
-10.8797
-10.5456
-9.86377
-9.02546
-8.04078
-7.00924
-6.01155
-5.10327
-9.64668
-9.7
-9.68474
-9.54533
-9.31297
-8.82603
-8.20792
-7.44853
-6.61857
-5.77729
-4.97125
-8.60663
-8.57625
-8.54791
-8.44222
-8.2579
-7.88806
-7.41071
-6.80979
-6.13482
-5.43057
-4.75082
-7.76689
-7.64354
-7.59683
-7.50956
-7.3558
-7.06074
-6.67332
-6.18042
-5.61788
-5.01599
-4.41577
-7.14273
-6.92596
-6.85856
-6.76128
-6.61028
-6.35152
-6.01318
-5.58718
-5.10133
-4.57787
-4.0449
-6.67579
-6.39439
-6.30582
-6.18435
-6.01545
-5.7605
-5.43624
-5.04227
-4.60337
-4.14073
-3.68722
-6.28792
-5.95901
-5.84652
-5.69616
-5.50759
-5.24664
-4.92067
-4.53752
-4.12382
-3.7009
-3.28978
-5.95699
-5.59357
-5.45515
-5.27223
-5.05995
-4.78375
-4.44473
-4.0573
-3.65349
-3.25926
-2.89445
-5.6482
-5.27129
-5.10721
-4.89601
-4.65582
-4.35758
-3.99382
-3.58817
-3.18337
-2.81252
-2.48963
-5.33589
-4.95355
-4.76791
-4.53473
-4.26925
-3.94351
-3.54496
-3.11197
-2.70234
-2.35589
-2.07629
-5.02519
-4.64568
-4.44411
-4.1933
-3.89683
-3.52801
-3.07764
-2.61229
-2.20344
-1.89082
-1.67083
-4.72256
-4.35119
-4.14036
-3.86944
-3.52457
-3.08428
-2.57208
-2.07773
-1.68839
-1.42581
-1.26023
-4.41143
-4.06719
-3.84571
-3.53483
-3.11122
-2.57515
-2.00457
-1.51651
-1.18611
-0.985959
-0.860126
-4.0118
-3.77368
-3.51954
-3.12429
-2.58542
-1.96164
-1.38815
-0.979254
-0.745218
-0.623738
-0.536185
-3.90416
-3.62187
-3.19475
-2.61803
-1.95976
-1.32906
-0.850505
-0.580669
-0.443164
-0.341689
-0.113622
-3.37819
-2.44658
-1.87878
-1.33512
-0.86172
-0.535235
-0.404252
-0.408674
-0.44508
-0.469048
-0.393799
21.5565
14.9908
10.5942
7.62966
5.58743
4.14495
3.07722
2.24179
1.5664
1.03974
0.697918
16.8898
16.7443
14.3835
11.4817
8.7744
6.58207
4.87925
3.55982
2.5376
1.78146
1.30402
10.6291
12.7025
12.6336
11.7932
9.9875
7.91529
6.0274
4.46012
3.22956
2.31251
1.72021
5.09969
8.23391
9.11148
9.56516
9.06585
7.84178
6.40098
4.97321
3.71068
2.70391
2.0492
1.23552
4.18068
5.26562
6.56364
7.02758
6.77534
5.99244
4.91506
3.81253
2.85707
2.19235
-1.28074
1.15248
2.02152
3.57732
4.47283
4.88426
4.70302
4.19514
3.45508
2.69835
2.12823
-2.87897
-0.885477
-0.326771
1.22133
2.15206
2.92373
3.2112
3.11744
2.73867
2.24676
1.84159
-3.83728
-2.19179
-1.95743
-0.434396
0.294537
1.19114
1.71989
1.93791
1.8699
1.63114
1.4001
-4.56884
-3.08155
-3.10325
-1.70549
-1.04468
-0.189976
0.418824
0.818825
0.975472
0.948001
0.883501
-5.17317
-3.94016
-3.72719
-2.72344
-2.0694
-1.26534
-0.640256
-0.148514
0.153129
0.287715
0.366582
-5.6273
-4.69257
-4.30401
-3.45355
-2.84235
-2.09184
-1.47353
-0.938303
-0.54819
-0.300918
-0.123755
-5.90375
-5.1234
-4.75409
-3.98723
-3.41491
-2.71244
-2.11051
-1.55754
-1.11567
-0.793975
-0.552388
-6.13508
-5.40344
-5.06427
-4.35895
-3.82106
-3.1578
-2.57528
-2.01929
-1.55045
-1.17997
-0.898778
-6.34901
-5.60367
-5.26964
-4.59974
-4.08598
-3.45264
-2.88813
-2.33686
-1.85778
-1.46136
-1.14458
-6.35084
-5.66215
-5.36161
-4.72507
-4.22998
-3.62037
-3.06981
-2.52642
-2.04665
-1.64017
-1.31316
-6.29251
-5.64085
-5.36065
-4.7525
-4.26779
-3.67803
-3.13625
-2.60215
-2.12754
-1.72208
-1.39478
-6.2165
-5.57081
-5.28771
-4.69763
-4.21081
-3.63485
-3.09706
-2.57341
-2.10953
-1.71546
-1.40084
-6.05454
-5.42208
-5.13359
-4.55946
-4.06127
-3.49319
-2.95688
-2.44668
-2.00114
-1.62985
-1.33245
-5.8104
-5.19291
-4.893
-4.33161
-3.81473
-3.25004
-2.71738
-2.22791
-1.81199
-1.47641
-1.2144
-5.50397
-4.89049
-4.56321
-4.00541
-3.46319
-2.90066
-2.38123
-1.92631
-1.55509
-1.26793
-1.05029
-5.1189
-4.49669
-4.12435
-3.56108
-2.99504
-2.44406
-1.95896
-1.55939
-1.24885
-1.01877
-0.851594
-4.6108
-3.96878
-3.53024
-2.96268
-2.39658
-1.88682
-1.47034
-1.1505
-0.911485
-0.739207
-0.625562
-4.05862
-3.28632
-2.78438
-2.25924
-1.74899
-1.32351
-1.0044
-0.771502
-0.59415
-0.475079
-0.409376
-2.62482
-1.99041
-1.59336
-1.23747
-0.913597
-0.676725
-0.507394
-0.352395
-0.200102
-0.0856536
-0.13625
-10.2601
-5.67501
-3.70401
-2.63766
-1.80929
-1.23513
-0.905344
-0.726204
-0.632326
-0.588076
-0.535341
-10.3104
-7.65701
-6.13935
-4.74919
-3.43422
-2.44335
-1.8008
-1.39853
-1.16062
-1.01621
-0.907533
-7.99293
-7.68617
-7.11475
-6.10313
-4.87991
-3.73092
-2.8152
-2.1545
-1.74528
-1.46767
-1.26713
-6.92993
-7.02912
-6.85344
-6.33766
-5.52892
-4.56529
-3.63694
-2.89022
-2.30733
-1.90446
-1.60923
-6.32281
-6.37659
-6.31729
-6.06731
-5.5763
-4.86931
-4.06675
-3.32296
-2.7161
-2.2546
-1.89768
-5.80691
-5.81515
-5.78097
-5.63972
-5.33014
-4.82986
-4.1955
-3.54265
-2.96398
-2.49057
-2.10518
-5.34675
-5.32169
-5.28509
-5.17864
-4.96444
-4.60349
-4.11616
-3.5764
-3.06138
-2.61138
-2.22494
-4.97007
-4.90231
-4.85564
-4.74649
-4.57235
-4.29469
-3.91576
-3.47903
-3.03979
-2.63475
-2.27366
-4.67306
-4.56698
-4.49866
-4.3784
-4.21276
-3.97766
-3.66844
-3.31103
-2.94052
-2.58351
-2.25076
-4.44234
-4.30574
-4.21931
-4.08394
-3.91495
-3.69533
-3.42558
-3.12112
-2.80288
-2.48841
-2.18718
-4.261
-4.09996
-4.0028
-3.85294
-3.67555
-3.45969
-3.21038
-2.93727
-2.65351
-2.37058
-2.0976
-4.11302
-3.93244
-3.83049
-3.66795
-3.48223
-3.26661
-3.02626
-2.76923
-2.50512
-2.24162
-1.98473
-3.99138
-3.79516
-3.68947
-3.51714
-3.32525
-3.1075
-2.86894
-2.61743
-2.36194
-2.10981
-1.86751
-3.89113
-3.68183
-3.57147
-3.39294
-3.19525
-2.97327
-2.73139
-2.47785
-2.22258
-1.97455
-1.73916
-3.80305
-3.58338
-3.4705
-3.28695
-3.08308
-2.85483
-2.60555
-2.34414
-2.08223
-1.83451
-1.60197
-3.72569
-3.49784
-3.38247
-3.19452
-2.98352
-2.74617
-2.48486
-2.21024
-1.93809
-1.68493
-1.45704
-3.65845
-3.42483
-3.3064
-3.11482
-2.89503
-2.64419
-2.36439
-2.06984
-1.78267
-1.52438
-1.30034
-3.59859
-3.36278
-3.24317
-3.04861
-2.81755
-2.54647
-2.23887
-1.91657
-1.61175
-1.35282
-1.14379
-3.54644
-3.31403
-3.19617
-2.99975
-2.75261
-2.44942
-2.10044
-1.74266
-1.4216
-1.17097
-0.986551
-3.50507
-3.28562
-3.17398
-2.97371
-2.69621
-2.33851
-1.93065
-1.53342
-1.209
-0.984679
-0.838202
-3.48139
-3.28045
-3.19756
-2.98851
-2.68551
-2.27021
-1.78231
-1.325
-0.98992
-0.808312
-0.719956
-3.4419
-3.41048
-3.36607
-3.12662
-2.6858
-2.15553
-1.63024
-1.17683
-0.850917
-0.690343
-0.648309
-3.68274
-3.98346
-3.39823
-2.91479
-2.4068
-1.89279
-1.44594
-1.09737
-0.856589
-0.720807
-0.678145
-5.18484
-2.83303
-2.55396
-2.1591
-1.78934
-1.48795
-1.2593
-1.09089
-0.973762
-0.900917
-0.84796
-1.6902
-1.92722
-1.66569
-1.24344
-0.823525
-0.479627
-0.264195
-0.177493
-0.174076
-0.201561
-0.188584
1.45657
0.843502
0.412708
0.254257
0.293403
0.395895
0.449262
0.40826
0.294651
0.162821
0.120986
1.96465
1.74098
1.49176
1.26575
1.14632
1.10866
1.06256
0.933175
0.721955
0.48785
0.34209
1.85691
1.75166
1.67018
1.55427
1.46088
1.41023
1.36385
1.23581
0.994265
0.705837
0.520191
1.61385
1.5062
1.45947
1.38838
1.32351
1.27854
1.25159
1.18977
1.02419
0.761162
0.556427
1.32981
1.18574
1.12503
1.03352
0.946423
0.874411
0.83047
0.819158
0.772923
0.622654
0.469959
1.03873
0.844084
0.752762
0.614347
0.473156
0.338618
0.23451
0.205392
0.242145
0.227719
0.169698
0.74392
0.500123
0.374283
0.178017
-0.0292868
-0.244525
-0.442082
-0.564731
-0.552437
-0.455397
-0.381511
0.463238
0.165882
0.00959799
-0.249381
-0.527026
-0.831451
-1.13814
-1.38268
-1.47632
-1.36461
-1.10911
0.223514
-0.155654
-0.318362
-0.644036
-0.990272
-1.38318
-1.80182
-2.17925
-2.40809
-2.37638
-2.02347
0.0152961
-0.437808
-0.580314
-0.986908
-1.39518
-1.86739
-2.38553
-2.89467
-3.26524
-3.33918
-3.00807
-0.162013
-0.614472
-0.84115
-1.25319
-1.71907
-2.25782
-2.85589
-3.47267
-3.95816
-4.14737
-3.88661
-0.287221
-0.733598
-1.01562
-1.43757
-1.94134
-2.52839
-3.18488
-3.86505
-4.44215
-4.73297
-4.49044
-0.343628
-0.779088
-1.09312
-1.52209
-2.04285
-2.65428
-3.34066
-4.05394
-4.68994
-5.0546
-4.92425
-0.340196
-0.750312
-1.07551
-1.49979
-2.01931
-2.63341
-3.32322
-4.03963
-4.68923
-5.10737
-5.0882
-0.27084
-0.64337
-0.964863
-1.37324
-1.87715
-2.4758
-3.14553
-3.84275
-4.47614
-4.90392
-4.98965
-0.129259
-0.456298
-0.763769
-1.14845
-1.62549
-2.19405
-2.83041
-3.49029
-4.08229
-4.49008
-4.63487
0.079632
-0.199588
-0.485716
-0.838444
-1.27202
-1.79184
-2.38517
-2.99392
-3.52709
-3.89012
-4.01084
0.329268
0.0921149
-0.168455
-0.478478
-0.859832
-1.32203
-1.85273
-2.39894
-2.8668
-3.16536
-3.22651
0.579242
0.384287
0.155508
-0.114896
-0.45326
-0.877058
-1.35711
-1.83029
-2.21027
-2.40635
-2.3363
0.821387
0.660134
0.439565
0.155838
-0.20324
-0.617416
-1.04093
-1.42356
-1.70233
-1.79658
-1.67081
1.00672
0.817219
0.531468
0.157124
-0.253333
-0.644398
-0.979605
-1.24329
-1.4207
-1.45886
-1.32462
0.952208
0.696161
0.226378
-0.252225
-0.645871
-0.91747
-1.09409
-1.21248
-1.29071
-1.30818
-1.24635
0.947698
-0.0389799
-0.629487
-1.0008
-1.17002
-1.21495
-1.21277
-1.20249
-1.18818
-1.15133
-1.06069
13.8249
7.75831
4.86352
3.67384
3.15702
2.94263
2.8002
2.6498
2.47825
2.31185
2.2286
22.8378
18.911
14.875
11.684
9.22573
7.44177
6.1663
5.21972
4.47985
3.90886
3.53541
20.0369
19.7442
17.9362
15.5614
13.1126
10.8888
9.01641
7.50474
6.30388
5.38378
4.76895
17.3369
17.8934
17.4607
16.4524
14.9083
13.0433
11.1568
9.44678
7.99328
6.80597
5.91979
15.3519
16.2463
16.2676
16.0021
15.1839
13.9262
12.4054
10.8161
9.30316
7.96311
6.9203
13.5325
14.5085
14.6093
14.758
14.4949
13.7975
12.7303
11.434
10.0586
8.74132
7.64522
12.0979
12.8331
13.0784
13.3403
13.3462
13.0298
12.3679
11.4205
10.2944
9.12079
8.06511
11.0857
11.5908
11.8075
12.0683
12.1709
12.0548
11.6667
11.0113
10.1429
9.16936
8.2636
10.2574
10.6491
10.8025
11.0166
11.1298
11.0977
10.8646
10.4106
9.75217
8.96089
8.192
9.46615
9.83021
9.95731
10.1368
10.2362
10.2321
10.0782
9.74994
9.24397
8.60055
7.9468
8.87202
9.16989
9.255
9.39597
9.46943
9.46577
9.34782
9.09321
8.6909
8.16298
7.62323
8.53932
8.69966
8.70589
8.78494
8.81388
8.78992
8.68005
8.46484
8.13112
7.68989
7.22937
8.14606
8.24295
8.21479
8.24846
8.23511
8.18351
8.06615
7.86836
7.57763
7.19708
6.81066
7.67683
7.76714
7.73454
7.74121
7.69607
7.61906
7.4887
7.29652
7.03316
6.69521
6.35585
7.37952
7.38289
7.29874
7.26093
7.17957
7.07591
6.93011
6.73848
6.49587
6.19634
5.90234
7.02927
6.97273
6.85605
6.78078
6.66511
6.53528
6.37411
6.18219
5.95791
5.69154
5.43278
6.55957
6.49106
6.37149
6.27254
6.12974
5.97779
5.80516
5.61659
5.41273
5.17967
4.95195
6.15459
6.03004
5.87558
5.73765
5.56391
5.39178
5.21442
5.03775
4.86097
4.66666
4.48356
5.7278
5.53323
5.33605
5.1541
4.95026
4.76553
4.59753
4.44841
4.31029
4.16077
4.01613
5.20284
4.93633
4.70188
4.48446
4.26556
4.09101
3.95915
3.8601
3.77325
3.67102
3.54894
4.56477
4.21095
3.94085
3.70555
3.50445
3.38246
3.32492
3.29894
3.27082
3.21573
3.12333
3.78757
3.3108
3.03427
2.82661
2.70677
2.69872
2.75149
2.80591
2.82928
2.81034
2.74676
2.52855
2.23751
1.96341
1.88946
1.96438
2.13177
2.30037
2.41178
2.46203
2.45613
2.38349
3.25291
1.30628
1.40056
1.55974
1.76987
1.99114
2.12787
2.19013
2.20682
2.18221
2.08446
-33.644
-14.4525
-7.56237
-4.01187
-2.02404
-0.815463
-0.125274
0.299234
0.566351
0.729704
0.896928
-54.0287
-33.9189
-24.5005
-16.6138
-10.346
-6.35232
-4.00699
-2.57111
-1.63949
-1.0183
-0.5288
-49.0759
-41.9568
-36.331
-28.1126
-19.8101
-13.4371
-9.02266
-6.13276
-4.24016
-2.96138
-2.03061
-40.7273
-40.4307
-38.6815
-33.3829
-26.385
-19.6163
-14.0527
-9.92573
-7.04251
-5.04734
-3.59227
-34.7796
-36.2568
-36.0377
-33.4619
-28.8894
-23.2568
-17.7986
-13.2013
-9.65308
-7.04807
-5.13668
-31.2037
-32.566
-32.597
-31.4073
-28.6361
-24.4572
-19.805
-15.4352
-11.7016
-8.73218
-6.44198
-28.8549
-29.8639
-29.8443
-29.172
-27.3276
-24.2112
-20.4254
-16.5745
-13.0193
-9.98449
-7.50097
-27.02
-27.8037
-27.7194
-27.2388
-25.8275
-23.3533
-20.226
-16.8846
-13.6413
-10.7145
-8.18512
-25.3744
-26.031
-25.9384
-25.541
-24.3518
-22.2655
-19.5944
-16.6653
-13.7322
-11.0007
-8.49306
-23.7685
-24.3503
-24.2463
-23.9208
-22.8817
-21.059
-18.7142
-16.1086
-13.451
-10.9397
-8.57547
-22.2321
-22.7442
-22.6382
-22.3624
-21.4223
-19.7835
-17.6746
-15.3197
-12.8947
-10.5837
-8.41374
-20.777
-21.1803
-21.0933
-20.8323
-19.9539
-18.4525
-16.5204
-14.3593
-12.1257
-9.98028
-7.98045
-19.3791
-19.6634
-19.614
-19.3257
-18.4847
-17.0847
-15.2822
-13.2675
-11.1896
-9.18836
-7.32509
-18.0282
-18.2093
-18.1573
-17.845
-17.0374
-15.7019
-13.9873
-12.0763
-10.1219
-8.25785
-6.53155
-16.7188
-16.8006
-16.7182
-16.3835
-15.6215
-14.2919
-12.6418
-10.8005
-8.94014
-7.20102
-5.62687
-15.4419
-15.4359
-15.3112
-14.945
-14.1712
-12.9056
-11.2485
-9.43954
-7.65001
-6.02905
-4.63539
-14.1925
-14.1104
-13.9367
-13.5378
-12.7447
-11.4652
-9.79702
-7.98311
-6.24994
-4.74562
-3.47494
-12.9683
-12.8088
-12.5828
-12.1433
-11.31
-9.97268
-8.24576
-6.41407
-4.7449
-3.38888
-2.28276
-11.7562
-11.5207
-11.2367
-10.7359
-9.82448
-8.37886
-6.55815
-4.72009
-3.15703
-2.00297
-1.07083
-10.5568
-10.225
-9.87241
-9.26805
-8.21069
-6.60759
-4.70102
-2.92378
-1.55479
-0.666044
0.0466299
-9.30293
-8.8777
-8.42311
-7.66199
-6.37787
-4.61402
-2.7106
-1.11042
-0.0357276
0.57181
1.04064
-7.28791
-7.03296
-6.69198
-5.69392
-4.14048
-2.30642
-0.618357
0.498945
1.10443
1.37353
1.63929
-6.27298
-7.0373
-5.93131
-4.32496
-2.3809
-0.612954
0.678659
1.39577
1.69527
1.83891
2.0161
-10.9562
-4.02202
-1.80254
-0.442669
0.742908
1.49062
1.82831
1.95507
1.98623
1.97662
1.88183
-1.72531
-2.35952
-2.30327
-1.74637
-1.39971
-1.27351
-1.20164
-1.22188
-1.47366
-1.34161
-1.8491
-1.85513
-1.51196
-1.33697
-1.26568
-1.21505
-1.24837
-1.37597
-1.29473
-1.75503
-1.75248
-1.45781
-1.28889
-1.24424
-1.20114
-1.22223
-1.31497
-1.1694
-1.53836
-1.56963
-1.36211
-1.22619
-1.19639
-1.16947
-1.19017
-1.23993
-0.477657
0.429085
0.563438
0.254014
-0.428324
-1.48438
-2.33825
-2.56041
-2.09027
-0.475488
0.251424
0.370478
0.113012
-0.434695
-1.22512
-1.80297
-2.03394
-1.72976
-0.515405
0.0878357
0.188613
-0.0244477
-0.491472
-1.17635
-1.78608
-1.9154
-1.65364
-0.557731
-0.0342469
0.0369068
-0.128649
-0.549713
-1.11528
-1.50779
-1.69311
-1.52204
1.74716
2.16836
2.17314
-0.189057
-0.800117
2.23626
-1.04211
1.81463
2.22916
1.89176
-0.81786
1.82068
-0.448764
-0.0875596
1.73856
0.924631
-0.0636666
-0.191319
0.925294
1.78468
0.508279
-1.18561
1.30816
-0.120151
2.20648
-0.0885028
-0.454546
-1.04641
-1.74646
-0.271753
-0.0617537
0.304937
-0.0302917
1.17637
0.232239
2.18527
-0.116438
2.21735
-0.029821
1.84732
-2.06849
1.18732
-0.00653788
1.3201
-1.17427
-1.27865
-0.211165
-1.01518
0.772702
1.89405
-0.263972
1.85515
0.0159464
-0.00977674
1.85551
0.520812
-1.16134
1.80049
-1.75979
0.0127234
-1.10994
0.0132859
-0.833627
-0.452221
-1.99168
1.7811
-0.142636
2.18739
2.18063
1.89852
-0.186739
2.83732
-0.244786
3.85496
-0.0101337
2.80868
-1.27193
1.227
-1.1374
-0.972905
0.00783765
-0.43888
1.84409
1.86511
-0.689924
-0.239198
-1.60031
0.0152885
-0.731401
-0.0362318
2.21795
1.78148
-1.96834
3.56183
-1.07765
-0.987865
-0.00843759
-0.663072
-0.648046
3.03183
-0.544906
-1.01995
1.68303
-0.267933
-0.486621
2.17603
-0.00963408
1.84436
-0.0174424
-0.0842856
1.35679
1.17889
3.02173
-0.235581
-0.174621
1.81773
1.78635
1.09781
1.90735
1.47393
-0.260031
3.50777
-0.754264
-0.0838333
-1.33275
-0.703336
0.00928966
-0.00878182
-0.00263591
-0.0181846
1.54466
0.0171271
-1.0202
2.78799
2.17649
-0.823566
-1.14772
-0.445069
-0.29937
0.890632
0.00622493
0.332892
-1.11435
0.986272
1.75014
-0.368572
-0.913194
2.13285
2.18313
1.1374
1.36696
2.25147
-0.354694
3.58517
-0.211971
-0.0542399
-0.269382
-0.876147
-0.0975667
1.97654
-0.535761
-0.433181
2.85487
2.00928
-0.131672
-0.067029
-0.86655
0.269514
-0.725442
-1.93297
-0.0286526
-0.0270317
-0.737791
0.295762
0.367569
0.376307
-0.00675138
-0.366837
-1.20838
0.467665
2.02663
-1.19703
2.16819
-0.687599
2.12164
-0.257167
1.37109
1.05768
2.07925
-1.15378
-0.0237342
-0.163684
1.68013
-1.97845
2.1803
2.13902
2.39395
-0.58343
-0.0182089
1.82168
-0.515939
2.09509
-0.0553386
-0.0987563
2.17481
0.0139985
3.50252
-0.00410832
2.02216
1.72996
-0.0236735
1.0471
0.166065
0.398175
1.23687
0.0417765
2.24954
-0.236554
1.51828
-0.293849
-0.0085444
-0.23581
-0.0106767
-0.204746
-0.0698484
1.69201
-0.653669
-0.0474353
-0.0178563
-0.719367
-0.853004
1.64924
1.38762
3.25554
-0.364563
-0.865975
-0.0364316
2.16977
1.58127
1.59409
-0.213877
-0.164766
-0.315302
-1.83245
3.24294
-0.450218
1.15651
-0.14192
-0.914586
0.0391523
-0.133599
-0.0271137
-0.0637376
2.00613
-0.430478
2.35292
0.620685
2.22911
-0.425605
1.3415
-0.0060762
-0.863844
1.70172
1.2769
1.33744
-0.252494
0.282562
2.24377
-0.474533
-0.493314
-0.800038
1.50288
2.17663
-0.215004
2.42573
1.09647
-0.112757
2.32017
0.971243
-0.473751
2.91557
1.94802
0.00997294
-0.0253693
-0.381195
2.324
-1.09142
1.6736
0.807674
0.00367719
1.52045
-1.0308
0.0448512
-0.077551
2.16346
1.99688
-0.711382
1.34005
0.329394
-0.139323
2.05494
-0.360351
0.607789
-0.281841
0.663893
-0.135007
1.26373
0.000873865
-1.16311
1.40957
-1.13468
2.16503
-0.168991
-0.0196512
-1.32621
1.08288
-0.360472
-0.684872
1.37883
4.00401
1.27969
0.0130433
1.05788
-0.2921
-0.762575
0.349694
1.16737
-0.36005
1.62511
0.056587
1.80711
-0.854873
-1.2393
2.08332
-0.399732
-0.887232
-0.257907
1.27716
2.28447
-0.657034
-0.987361
-0.0282064
2.13045
-0.109754
-0.788115
0.000789844
-0.0418783
1.12173
-0.151429
0.0168651
-1.13445
-0.640919
-0.475193
0.714471
-0.0646883
1.81999
-0.00764013
0.812478
1.29019
0.0576694
-0.46531
-0.110677
2.23988
1.83921
2.71073
-0.80927
-0.0269741
-0.047953
-1.09451
-0.527418
2.32695
-0.779858
-0.90998
-0.0394931
-0.0843218
1.50235
-0.343841
0.202354
2.35328
1.14713
-0.00374581
2.18275
-0.400875
1.64504
-0.167353
-0.0315731
-0.302867
-0.0730326
-0.148738
-0.892086
2.23275
-1.1018
-0.0263848
2.37291
-0.0402755
-2.01202
1.24325
1.22213
1.92914
-0.12209
-0.424247
1.81179
2.07755
0.0179533
-0.00549817
-2.38055
-1.0603
-0.009481
2.0492
0.0123203
0.481181
0.901831
-0.0588132
-0.0568249
-0.316151
-0.236939
-0.0257974
3.78378
-0.0166978
-1.03882
-0.653049
-0.0211588
-1.04079
-0.00428733
0.322963
-0.0126939
3.73079
-0.0189401
-0.82728
-1.79278
1.13703
-0.426996
-0.203034
1.28157
-0.79007
-0.00778273
-0.263207
-0.308659
-0.0886162
1.11261
-0.460429
-1.37797
-0.112953
-0.32176
0.739781
-0.00892996
0.0268165
-0.989218
2.09124
-0.459004
2.20934
1.86594
2.2608
-0.991369
-0.956912
-1.10433
-0.0307274
-0.578571
-0.00802843
2.00148
2.12022
0.0133479
-0.0519483
-0.452572
0.61305
-0.010027
-0.0103747
1.80855
1.06637
1.85232
0.339287
-0.365012
1.03496
-1.18138
0.644233
1.52894
1.47927
1.73641
-0.473694
1.35441
1.92644
0.549109
-0.490006
-1.18968
1.28294
-0.349137
-1.00264
1.04962
-0.0107067
1.87109
-0.733408
2.16866
0.703996
1.67005
-0.00415338
-0.100241
1.69961
-0.206193
0.0779624
2.22907
-0.396589
-0.349884
2.07749
1.90259
-0.896632
0.00131917
-0.266703
1.70994
-1.03802
1.1074
-0.150226
-0.0977079
-0.902309
-0.0722189
-0.556673
-0.0620563
-0.129786
-0.204682
1.12525
-0.497019
1.32484
1.96117
2.35239
1.51069
0.482176
-0.0123121
1.81654
1.8919
-0.289556
2.07514
-1.41972
-0.694203
-0.00165872
-0.188786
-0.807382
2.12695
2.27724
1.94152
-1.92295
-0.488236
1.15307
2.02705
-0.077216
2.07502
-0.111234
2.07903
0.0393052
0.957962
-0.994566
-0.0353449
-0.021132
-1.17728
-0.14171
0.677885
0.237966
2.10762
1.46565
-0.00739805
-0.879677
1.57663
-0.0608937
-0.823049
-0.973418
2.2322
2.56173
2.1501
0.0272542
-0.0219931
-0.0211882
2.12436
1.58425
-0.0187648
3.17967
-0.107631
-0.0137103
-0.00769291
-0.875399
1.33391
-0.0159643
2.28723
-0.130644
2.64949
-0.000766812
-0.00800297
0.457289
-1.33874
-0.0505132
1.80533
1.21949
-1.11158
1.98904
-0.464174
-0.209774
-0.128503
0.0239511
-0.943956
-0.338105
2.04034
1.88633
2.11889
-0.991621
-0.254364
-0.090689
1.74561
2.22855
-1.04136
1.2985
3.93078
0.501533
2.50579
-0.174278
-0.165769
-0.119663
-0.46391
-0.319882
-0.0368914
1.97194
-0.15262
2.6863
2.04538
-0.931691
-0.0184899
1.02932
2.09652
-1.10442
1.63007
2.06839
-0.28202
2.14835
0.284933
-0.295001
-0.0756218
-0.436949
-0.0177472
-0.0213674
-1.00919
0.0026122
-1.19517
-0.229642
-0.332723
-0.85896
-0.255642
-0.134179
1.11436
0.743925
-0.80964
-0.256103
1.00337
-0.124817
-0.216033
-0.00523376
-0.926256
-0.41914
-0.900842
1.19078
-0.205626
2.167
1.21212
1.30915
-0.384513
2.31688
1.58426
0.910613
1.45109
-0.193194
-0.036897
-0.765427
2.64642
1.33101
0.83108
0.0128552
3.8619
-1.08189
2.99363
-0.0326787
0.004689
1.276
-0.00287192
2.00546
-0.0299064
-0.220046
-0.165667
-0.969842
-0.534275
-0.613023
1.84258
-0.0131021
-0.0523103
-0.997775
0.0193156
1.09837
-0.183412
1.85861
-0.48129
0.966745
-0.326731
2.13262
1.96806
2.30471
-0.470966
-0.105047
2.16889
-0.0079657
2.4725
-0.0379759
-0.102788
0.209093
-0.190918
-1.69583
-0.0611195
-0.497559
-0.449876
-0.358764
-0.159114
-0.0219639
-1.04887
1.12235
-0.191541
1.514
1.69078
-1.15556
-0.862324
-0.752261
-0.0777422
3.09477
0.274367
1.43256
-0.231525
2.01391
0.0124545
-0.00110139
0.0470277
0.0979145
-0.380496
0.0186713
0.0315626
2.89205
-0.319115
-0.401465
-0.577103
1.38633
-0.11732
-0.815536
2.21033
-1.33422
-0.0217148
4.44066
-0.0248752
1.58967
0.844472
1.27261
-0.0275895
2.87347
-0.0470285
2.17366
-0.0335741
2.45795
-0.0872451
-0.00010024
-0.0226219
-0.00925177
1.03099
-0.277281
-1.16453
1.92655
-0.0435332
-0.329507
-0.00832393
-0.136663
-0.897247
0.219255
-0.175454
-0.041433
-0.117629
1.16602
-0.715005
1.18244
-0.0289085
-1.19828
2.1603
1.89756
-0.464544
-1.07147
0.00848439
-0.328322
1.78498
-0.191866
-0.12998
1.15729
2.08661
2.12269
1.50515
3.09487
-0.0127199
-1.08575
-0.736126
-0.0284761
-0.790628
2.24662
1.63823
-0.443589
-0.0654012
2.18395
-0.648775
-0.178021
-1.04726
-0.0588972
-1.25212
0.173209
-0.177923
2.23172
1.54181
-1.34302
1.55613
1.81043
-0.1883
-0.000150756
-0.511529
-0.43339
2.20423
-0.344016
-1.75117
-0.245824
1.76598
-0.013955
-0.00547369
-0.109915
-0.210255
1.92614
1.14255
-0.179767
-0.170142
-0.0140831
1.86074
0.931182
4.30414
2.68225
1.72934
0.0443704
-0.284477
-1.38036
-1.0488
0.00365616
2.05662
-0.557487
2.00679
2.93993
-0.779566
1.62524
2.36595
1.85068
-0.65628
0.0303714
-0.061212
2.37023
-0.160316
2.32316
2.14087
2.59006
2.13086
-0.120323
1.29266
2.20212
3.01846
-0.976685
1.17968
1.87619
-0.855614
-1.09024
1.68368
2.24909
-0.411055
-0.938039
1.33041
-0.778675
-0.146794
-0.196376
1.46002
2.18343
0.336558
0.912309
0.00617147
1.65579
-0.285387
-0.0847232
0.00363617
-0.0548496
1.33399
-0.107472
1.66044
1.29075
3.11112
1.66063
1.23986
-0.655952
-1.40349
-0.606529
-0.160267
0.0242506
-0.0174649
-0.287976
-1.01342
1.22123
1.35556
-0.0138168
-0.00923666
-0.126535
1.94817
-0.843672
2.9949
-0.32027
2.19209
-0.0135293
-0.0418299
-0.446506
-0.137999
1.77496
2.19154
0.0329426
-1.09395
0.0120477
-0.772146
-0.170577
0.0225863
0.736971
0.024743
2.46639
2.18192
-0.457044
-1.71731
-0.281619
-0.974271
-0.0126886
-0.107072
0.0391678
-0.732353
1.89311
0.0170027
0.0141132
1.97062
-0.0712294
2.22949
-0.0310458
-0.0629429
-0.0117382
1.97731
-0.167094
2.0345
1.83106
-0.0284104
-0.208636
1.29259
2.29696
3.00167
-0.845263
-0.782897
-1.02713
-0.488907
1.80662
-2.32035
-0.235947
-0.976922
1.88958
-0.00898873
-0.0344935
2.02868
-0.0230095
0.786938
-0.0258393
-0.10377
-0.303652
-0.39716
1.02408
2.57016
-0.312466
-0.048538
1.32683
-0.006658
2.21024
-0.853115
0.000619461
-0.976715
2.18482
-0.0206706
-0.192314
-0.220417
-0.021512
-0.0454237
1.83322
-0.00616097
-0.526805
1.24547
0.123094
0.0455066
-0.295084
-0.0755507
-0.228236
1.90543
2.13342
-0.841132
0.75234
-1.94365
-0.055996
-0.00178649
-0.0369081
1.7379
-0.308334
-0.562176
-0.0257949
-0.0317243
-0.00917851
2.26778
-0.289836
-0.015326
1.98624
1.08295
2.15714
-0.0124492
0.140124
2.01764
-0.391615
0.00518634
-0.0467284
1.36867
-1.12586
-0.702932
0.420911
-0.352044
1.14418
1.8444
0.83431
-1.04897
1.39417
0.0208671
-0.309964
-0.59933
1.28962
0.68678
1.8574
1.88969
-0.273858
-0.00428175
0.0197548
-1.14135
-1.67134
-0.763199
1.83381
-0.23862
-0.376294
1.93317
-0.0471146
0.0334717
0.5256
-1.41671
-0.474659
0.0296379
0.861833
-0.0590877
1.89776
0.0202511
1.40551
-0.89736
-0.692862
3.6468
-1.05143
-0.0840587
0.465239
-0.227912
-0.00565291
-1.37264
-0.065262
0.217064
-1.11476
-0.0150917
-0.264198
-1.20668
-0.133475
2.13062
-0.426708
2.8631
-0.322177
-0.123683
-0.240432
0.105389
-0.172207
-1.10793
1.96474
2.08718
0.344112
1.39896
-0.0679421
-0.303474
2.26437
-0.112415
-0.338554
1.57185
-1.01829
-1.05481
-0.806363
-1.78069
-1.19506
-0.217938
-0.0297057
0.00864564
1.99187
2.0628
-0.0575253
2.11404
2.18514
-0.288036
1.83592
3.25332
0.0252692
3.04052
-0.935851
-0.0692701
-0.272001
2.01957
-0.335241
0.0239294
-0.110517
-1.16065
1.89011
-0.0589257
-0.115122
-0.0616701
-0.000226605
0.939452
-0.00965883
1.57171
-0.203911
-0.00532417
0.933978
2.06243
-0.373267
-0.380111
-0.439685
-0.475802
-0.0939143
2.26002
2.15949
2.09487
-0.617663
-0.0110443
-0.0484246
-0.773386
-0.97435
1.87597
0.150723
1.64005
2.13507
-0.44114
1.85738
1.33046
-1.64589
-1.30027
-1.02513
-0.867867
1.38511
1.07287
-0.0252872
-0.462225
0.00732635
-0.990262
-0.188264
2.14505
1.53634
-0.115638
0.0132998
-0.0374347
-0.116224
2.59941
-0.135589
0.0445085
-0.251212
0.702375
-0.229516
-1.18247
0.76396
-0.626612
1.23556
1.5577
-0.522256
-0.058895
-0.243441
0.567892
0.765521
-0.635994
-0.219896
-0.198439
-0.148713
-0.291766
-0.97383
1.81164
-1.03228
-0.226836
2.04618
-0.00528785
-0.0399873
1.2261
0.0361282
1.98683
2.34997
2.3605
-1.77291
-0.00370845
1.07777
-0.134942
1.98619
1.2629
1.81695
-0.0984818
1.12172
-0.046811
-0.841854
2.04983
-0.56567
-1.01914
-0.0956574
-0.437312
-0.76325
-0.269804
-0.00833744
1.83682
1.29534
2.24266
-0.0571692
1.8282
1.30665
-0.763919
-1.05269
-0.0323578
-0.0467276
0.00293545
0.656312
-0.249492
-0.824845
1.10588
-0.722317
1.01307
-0.0180545
1.40466
-0.0542133
0.515526
1.70814
2.01946
-0.45133
0.00342821
1.15666
-0.0986413
1.07509
-0.0114448
0.0189544
-0.400567
-0.128618
2.00927
1.72112
0.0605701
-1.87691
-0.0629381
-0.00569171
-0.401586
-0.0309904
2.01973
-1.18577
-0.0310119
1.54544
-0.292791
-0.279537
-0.419067
-0.537091
-0.250718
-0.0045708
-1.10532
-1.21635
1.1138
2.00792
0.0578555
-0.00293359
-0.34282
1.23225
-0.718813
2.17221
3.15172
-1.31245
1.8559
1.76538
-1.03067
-0.292075
2.15903
1.79271
2.16932
0.519545
1.39916
3.22171
-0.72507
-0.284695
1.04954
2.16171
-0.330589
1.47623
0.0219003
2.34842
0.882385
1.78937
-0.325925
-1.06499
0.00780221
1.86803
1.27999
-0.0846665
-0.0131837
1.97628
-0.780631
-0.172623
2.53539
-0.622109
-0.0994305
-0.447153
-0.38741
-0.397484
1.74329
-0.203347
2.15455
0.565077
4.74512
-0.0173416
2.08481
0.00495696
3.7822
-0.484754
2.26321
2.07108
-0.857234
1.32188
2.13219
-0.642796
0.0545384
-0.263092
2.25059
0.610494
2.16763
0.0534577
-0.020873
-0.145891
0.238378
-0.372328
-0.961163
1.3909
1.05442
1.38121
0.42257
-0.247473
4.38352
-0.962834
3.63158
-1.20553
-0.0160405
-0.12888
-0.0545845
0.901086
-0.355957
2.17306
-0.410146
-0.473156
1.99424
2.05366
-0.01197
0.274867
0.812935
1.86352
-0.2966
2.24257
-0.344158
-0.461756
-0.0828227
-0.11064
1.08372
-0.70452
0.834699
-0.875319
-0.174213
-0.425779
0.00699059
1.79858
1.3104
1.76193
0.99085
-0.302867
0.378147
3.14079
-0.0197744
-0.694888
1.48272
0.452965
-1.04732
-0.308486
1.87985
-0.701279
2.04067
1.97243
-0.12865
2.13441
-0.0237784
-0.0618581
0.638246
2.20848
-0.169404
-0.333866
1.79579
-0.0083539
2.33776
3.09749
-0.149782
0.666435
-0.130217
2.01209
3.55818
-1.19605
-0.159788
1.36048
-1.45397
0.62272
1.63706
1.21092
1.41066
0.154981
-0.467443
-0.21507
-0.371644
-0.744979
1.59335
2.137
-0.398026
-0.00353579
0.725055
0.15092
-0.493956
2.66926
0.0207414
1.76452
-0.15164
2.32997
1.82445
-0.022886
-0.226099
-0.132865
2.23576
1.95234
1.52564
1.7567
1.66776
-0.134038
-0.0437372
-0.208592
-0.513704
-0.0184276
0.211264
1.48997
1.56559
-1.16679
1.42504
-0.0476942
-0.976552
0.360395
0.0446997
-0.34125
0.812329
1.84478
-0.547127
-0.548374
-0.184977
0.686227
-0.17342
-0.0124157
-0.418076
-0.0159403
-0.110493
1.36536
-0.10606
-1.09798
-1.17712
-0.334593
-0.349352
-0.0156887
2.08238
1.75134
-0.332908
2.24967
-0.0960759
-0.0903576
-0.0101975
-0.233012
-0.0906802
-0.745836
-1.15693
-0.0372049
2.182
-0.0587806
-0.0556426
-0.658245
-0.630414
-0.35085
2.00847
-0.99792
2.19346
0.01245
-0.950704
-0.367415
-1.03047
-0.173581
0.0278525
2.56643
4.11052
1.38157
2.22572
2.24077
0.148096
1.49902
-0.774525
3.83287
0.0539674
-0.320439
1.02882
1.88214
-0.816077
-0.944215
2.19628
0.0421508
1.29501
3.90159
-0.600262
-0.898505
2.09267
0.955566
0.868639
1.1424
4.48355
2.21887
-0.396189
-0.289873
2.1077
-0.566866
2.17439
1.05764
0.682686
2.28933
-0.266758
1.73194
1.67237
0.698058
1.78278
-0.0300144
1.69444
-0.00554144
-0.324788
-1.12261
-0.0269463
0.0490775
0.0352967
-0.0265152
-0.0497114
0.011235
0.0120536
1.17534
-0.0615332
0.311897
1.97771
2.28149
-0.932615
-0.00483668
-0.0216778
1.87489
-0.2712
3.74296
-0.0206132