/*--------------------------------*- C++ -*----------------------------------*\
| =========                 |                                                 |
| \\      /  F ield         | OpenFOAM: The Open Source CFD Toolbox           |
|  \\    /   O peration     | Version:  3.0.1                                 |
|   \\  /    A nd           | Web:      www.OpenFOAM.org                      |
|    \\/     M anipulation  |                                                 |
\*---------------------------------------------------------------------------*/
FoamFile
{
    version     2.0;
    format      ascii;
    class       surfaceScalarField;
    location    "0.675183";
    object      phi;
}
// * * * * * * * * * * * * * * * * * * * * * * * * * * * * * * * * * * * * * //

dimensions      [0 3 -1 0 0 0 0];

internalField   nonuniform List<scalar> 
32369
(
-1.32329e-06
1.39429e-05
-1.26196e-05
-2.94561e-06
1.34296e-05
-1.18073e-05
-6.33258e-06
1.6488e-05
-1.3101e-05
-1.07696e-05
1.92555e-05
-1.48185e-05
-1.56941e-05
2.19289e-05
-1.70045e-05
-2.09701e-05
2.50272e-05
-1.97513e-05
-2.67688e-05
2.89851e-05
-2.31863e-05
-3.33068e-05
3.40106e-05
-2.74726e-05
-4.08492e-05
4.04197e-05
-3.28773e-05
-4.97251e-05
4.86402e-05
-3.97642e-05
5.92605e-05
-4.85699e-05
-6.04157e-05
3.73018e-06
1.02127e-05
5.03612e-06
1.21237e-05
4.30259e-06
1.72215e-05
2.01903e-06
2.15391e-05
-1.74215e-06
2.56901e-05
-6.71298e-06
2.99981e-05
-1.26049e-05
3.4877e-05
-1.94566e-05
4.08622e-05
-2.74827e-05
4.84458e-05
-3.69829e-05
5.81404e-05
7.06547e-05
-4.83771e-05
2.71922e-06
7.4935e-06
4.22535e-06
1.06175e-05
5.26421e-06
1.61826e-05
5.19799e-06
2.16053e-05
3.59133e-06
2.72968e-05
3.98013e-07
3.31914e-05
-4.14733e-06
3.94224e-05
-9.88185e-06
4.65967e-05
-1.68346e-05
5.53985e-05
-2.52402e-05
6.65461e-05
8.09341e-05
-3.55197e-05
2.29217e-06
5.20134e-06
3.5287e-06
9.38101e-06
4.85225e-06
1.48591e-05
5.70031e-06
2.07572e-05
5.57735e-06
2.74197e-05
4.18086e-06
3.45879e-05
1.41967e-06
4.21836e-05
-2.62382e-06
5.06402e-05
-7.88917e-06
6.06639e-05
-1.44593e-05
7.31162e-05
8.90095e-05
-2.25346e-05
1.74753e-06
3.45381e-06
3.22799e-06
7.90055e-06
4.77751e-06
1.33096e-05
6.01418e-06
1.95206e-05
6.70974e-06
2.67242e-05
6.56898e-06
3.47286e-05
5.35364e-06
4.33989e-05
3.00402e-06
5.29898e-05
-4.65631e-07
6.41335e-05
-5.05543e-06
7.7706e-05
9.49004e-05
-1.09464e-05
1.4699e-06
1.9839e-06
3.16621e-06
6.20425e-06
4.96517e-06
1.15106e-05
6.57924e-06
1.79065e-05
7.84568e-06
2.54577e-05
8.56233e-06
3.4012e-05
8.49972e-06
4.34615e-05
7.5424e-06
5.39472e-05
5.67682e-06
6.59991e-05
2.9011e-06
8.04817e-05
9.86753e-05
-8.73718e-07
1.30466e-06
6.79247e-07
3.11503e-06
4.39387e-06
5.06093e-06
9.56471e-06
6.97733e-06
1.59901e-05
8.73339e-06
2.37017e-05
1.01301e-05
3.26153e-05
1.09799e-05
4.26117e-05
1.11597e-05
5.37674e-05
1.06461e-05
6.65127e-05
9.48063e-06
8.16472e-05
0.000100455
7.70125e-06
9.74844e-07
-2.95598e-07
2.64811e-06
2.72061e-06
4.68739e-06
7.52543e-06
6.88921e-06
1.37883e-05
9.06808e-06
2.15228e-05
1.10585e-05
3.06249e-05
1.26914e-05
4.09788e-05
1.38568e-05
5.26019e-05
1.45332e-05
6.58363e-05
1.48134e-05
8.1367e-05
0.000100508
1.47599e-05
4.48813e-07
-7.44411e-07
1.85111e-06
1.31831e-06
3.94273e-06
5.43382e-06
6.38457e-06
1.13464e-05
8.94353e-06
1.89638e-05
1.14536e-05
2.81148e-05
1.37728e-05
3.86597e-05
1.57975e-05
5.05773e-05
1.75389e-05
6.40948e-05
1.90603e-05
7.98456e-05
9.90148e-05
2.05537e-05
2.01572e-07
-9.45983e-07
1.22017e-06
2.99714e-07
3.16552e-06
3.48846e-06
5.69796e-06
8.81399e-06
8.52913e-06
1.61327e-05
1.14649e-05
2.5179e-05
1.43556e-05
3.57689e-05
1.71187e-05
4.78142e-05
1.97487e-05
6.14648e-05
2.2374e-05
7.72204e-05
9.61448e-05
2.5244e-05
1.63859e-07
-1.10984e-06
8.4277e-07
-3.79198e-07
2.39958e-06
1.93165e-06
4.78163e-06
6.43194e-06
7.70419e-06
1.32101e-05
1.09185e-05
2.19647e-05
1.42597e-05
3.24277e-05
1.76386e-05
4.44353e-05
2.10613e-05
5.80421e-05
2.46535e-05
7.36281e-05
9.20018e-05
2.87965e-05
1.30051e-07
-1.23989e-06
5.17677e-07
-7.66824e-07
1.62803e-06
8.21303e-07
3.66515e-06
4.39482e-06
6.46014e-06
1.04151e-05
9.76015e-06
1.86647e-05
1.33866e-05
2.88012e-05
1.72536e-05
4.05683e-05
2.13685e-05
5.39272e-05
2.58757e-05
6.91209e-05
8.67892e-05
3.10883e-05
8.20073e-08
-1.3219e-06
2.8832e-07
-9.73136e-07
1.01754e-06
9.20797e-08
2.59878e-06
2.81358e-06
5.07441e-06
7.93948e-06
8.26165e-06
1.54775e-05
1.19843e-05
2.50786e-05
1.61537e-05
3.6399e-05
2.08091e-05
4.92718e-05
2.61005e-05
6.38295e-05
8.0553e-05
3.23367e-05
1.79452e-08
-1.33985e-06
9.10704e-08
-1.04626e-06
5.0467e-07
-3.21519e-07
1.62258e-06
1.69567e-06
3.66422e-06
5.89784e-06
6.56713e-06
1.25745e-05
1.02027e-05
2.1443e-05
1.45051e-05
3.20965e-05
1.95092e-05
4.42677e-05
2.53688e-05
5.79699e-05
7.35347e-05
3.2387e-05
-4.04107e-08
-1.29944e-06
-1.05924e-07
-9.80749e-07
2.06429e-08
-4.48086e-07
6.55652e-07
1.06066e-06
2.18782e-06
4.36567e-06
4.6474e-06
1.0115e-05
8.0013e-06
1.80891e-05
1.22377e-05
2.78601e-05
1.74379e-05
3.90675e-05
2.3723e-05
5.16848e-05
6.58772e-05
3.13805e-05
-1.05499e-07
-1.19394e-06
-2.79718e-07
-8.0653e-07
-3.56972e-07
-3.70832e-07
-1.42772e-07
8.46465e-07
8.28891e-07
3.39401e-06
2.7963e-06
8.14755e-06
5.72956e-06
1.51559e-05
9.74851e-06
2.38412e-05
1.49488e-05
3.38672e-05
2.15402e-05
4.50935e-05
5.75671e-05
2.98503e-05
-1.63951e-07
-1.02999e-06
-4.18881e-07
-5.51599e-07
-6.30783e-07
-1.58931e-07
-6.89819e-07
9.05501e-07
-2.44082e-07
2.94827e-06
1.18669e-06
6.71678e-06
3.65359e-06
1.26889e-05
7.31448e-06
2.01803e-05
1.24078e-05
2.87739e-05
1.91375e-05
3.83637e-05
4.90741e-05
2.76305e-05
-2.00464e-07
-8.29522e-07
-5.14275e-07
-2.37788e-07
-8.17657e-07
1.44451e-07
-1.04148e-06
1.12932e-06
-9.56358e-07
2.86315e-06
-9.87067e-08
5.85913e-06
1.88769e-06
1.07025e-05
5.13768e-06
1.69303e-05
9.99127e-06
2.39203e-05
1.67083e-05
3.16467e-05
4.01716e-05
2.56108e-05
-2.15699e-07
-6.13823e-07
-5.57358e-07
1.03872e-07
-9.09962e-07
4.97055e-07
-1.21959e-06
1.43895e-06
-1.31574e-06
2.9593e-06
-8.68288e-07
5.41168e-06
6.4312e-07
9.19114e-06
3.49789e-06
1.40755e-05
8.0675e-06
1.93507e-05
1.47265e-05
2.49877e-05
3.09606e-05
2.39375e-05
-2.32157e-07
-3.81666e-07
-5.80702e-07
4.52418e-07
-9.3373e-07
8.50083e-07
-1.24194e-06
1.74716e-06
-1.37649e-06
3.09385e-06
-1.09242e-06
5.1276e-06
7.26428e-08
8.02608e-06
2.60269e-06
1.15455e-05
6.85295e-06
1.51005e-05
1.33037e-05
1.85369e-05
2.17671e-05
2.24972e-05
-2.7786e-07
-1.03806e-07
-5.75835e-07
7.50393e-07
-8.48654e-07
1.1229e-06
-1.03352e-06
1.93203e-06
-1.03373e-06
3.09406e-06
-6.61523e-07
4.75539e-06
4.82135e-07
6.88242e-06
2.90058e-06
9.12702e-06
6.98468e-06
1.10164e-05
1.33007e-05
1.22209e-05
1.24966e-05
2.25712e-05
-2.07334e-07
1.03528e-07
-4.22721e-07
9.6578e-07
-4.76089e-07
1.17627e-06
-3.32136e-07
1.78807e-06
8.30557e-08
2.67887e-06
9.49022e-07
3.88943e-06
2.61679e-06
5.21465e-06
5.51467e-06
6.22914e-06
1.00418e-05
6.48921e-06
1.6611e-05
5.65172e-06
3.6036e-06
2.55041e-05
-3.78893e-07
4.82421e-07
-7.45214e-08
6.61408e-07
4.33655e-07
6.68093e-07
1.20817e-06
1.01356e-06
2.38398e-06
1.50305e-06
4.19298e-06
2.08043e-06
6.93396e-06
2.47367e-06
1.08753e-05
2.28785e-06
1.61663e-05
1.19817e-06
2.28442e-05
-1.02615e-06
-4.6147e-06
3.10625e-05
1.6945e-06
-1.21208e-06
2.75486e-06
-3.98946e-07
3.78177e-06
-3.58823e-07
5.20545e-06
-4.10115e-07
7.10555e-06
-3.97046e-07
9.69227e-06
-5.06293e-07
1.31154e-05
-9.49458e-07
1.73396e-05
-1.93632e-06
2.22231e-05
-3.68536e-06
2.77512e-05
-6.55428e-06
-1.09671e-05
3.41036e-05
-1.01114e-05
-2.50823e-06
-1.67402e-05
-5.17845e-06
-2.22093e-05
-7.63194e-06
-2.6967e-05
-1.00608e-05
-3.14467e-05
-1.25247e-05
-3.6041e-05
-1.51569e-05
-4.10817e-05
-1.81456e-05
-4.68419e-05
-2.17124e-05
-5.35715e-05
-2.61478e-05
-6.15158e-05
-3.18199e-05
-3.91902e-05
-7.08955e-05
-5.3745e-06
2.86627e-06
-1.10288e-05
4.75815e-07
-1.69007e-05
-1.75998e-06
-2.25088e-05
-4.45268e-06
-2.79775e-05
-7.05604e-06
-3.35524e-05
-9.58212e-06
-3.9542e-05
-1.2156e-05
-4.62823e-05
-1.49721e-05
-5.41055e-05
-1.83245e-05
-6.33383e-05
-2.25872e-05
-2.81898e-05
-7.43388e-05
-2.41929e-06
5.28556e-06
-5.88409e-06
3.94061e-06
-1.06824e-05
3.03832e-06
-1.63458e-05
1.2107e-06
-2.23976e-05
-1.00421e-06
-2.87065e-05
-3.27319e-06
-3.54586e-05
-5.40393e-06
-4.29498e-05
-7.48089e-06
-5.15247e-05
-9.74959e-06
-6.1516e-05
-1.25958e-05
-1.64375e-05
-7.32683e-05
-1.39972e-06
6.68528e-06
-3.65394e-06
6.19483e-06
-7.0819e-06
6.46628e-06
-1.16858e-05
5.81455e-06
-1.73251e-05
4.63509e-06
-2.37525e-05
3.15421e-06
-3.08303e-05
1.67391e-06
-3.86177e-05
3.0655e-07
-4.7348e-05
-1.01937e-06
-5.73851e-05
-2.55868e-06
-4.68669e-06
-6.91359e-05
-1.16309e-06
7.84837e-06
-3.02192e-06
8.05367e-06
-5.60175e-06
9.04611e-06
-9.08987e-06
9.30267e-06
-1.36574e-05
9.20262e-06
-1.92942e-05
8.79099e-06
-2.59046e-05
8.28431e-06
-3.34598e-05
7.86182e-06
-4.20307e-05
7.55151e-06
-5.18137e-05
7.22425e-06
6.58431e-06
-6.30847e-05
-9.9171e-07
8.84008e-06
-2.60692e-06
9.66888e-06
-4.72115e-06
1.11603e-05
-7.53772e-06
1.21192e-05
-1.12657e-05
1.29307e-05
-1.60163e-05
1.35415e-05
-2.18085e-05
1.40765e-05
-2.86359e-05
1.46893e-05
-3.65602e-05
1.54758e-05
-4.56582e-05
1.63222e-05
1.7099e-05
-5.61729e-05
-8.18693e-07
9.65878e-06
-2.19884e-06
1.1049e-05
-3.95171e-06
1.29132e-05
-6.26587e-06
1.44334e-05
-9.32438e-06
1.59892e-05
-1.32736e-05
1.74908e-05
-1.82181e-05
1.90209e-05
-2.42173e-05
2.06885e-05
-3.13006e-05
2.25591e-05
-3.95609e-05
2.45825e-05
2.66232e-05
-4.90851e-05
-7.07127e-07
1.03659e-05
-1.86559e-06
1.22075e-05
-3.31096e-06
1.43586e-05
-5.18831e-06
1.63107e-05
-7.66506e-06
1.84659e-05
-1.08905e-05
2.07162e-05
-1.50005e-05
2.31309e-05
-2.01097e-05
2.57977e-05
-2.6282e-05
2.87314e-05
-3.36193e-05
3.19198e-05
3.5174e-05
-4.21701e-05
-5.66452e-07
1.09324e-05
-1.47313e-06
1.31142e-05
-2.62954e-06
1.5515e-05
-4.09676e-06
1.7778e-05
-6.04557e-06
2.04147e-05
-8.59823e-06
2.32689e-05
-1.19105e-05
2.64432e-05
-1.60991e-05
2.99863e-05
-2.13078e-05
3.39401e-05
-2.76231e-05
3.82351e-05
4.2641e-05
-3.50902e-05
-3.58637e-07
1.1291e-05
-1.11811e-06
1.38736e-05
-1.86001e-06
1.62569e-05
-2.95522e-06
1.88732e-05
-4.3814e-06
2.18409e-05
-6.27932e-06
2.51668e-05
-8.79011e-06
2.8954e-05
-1.20818e-05
3.32781e-05
-1.62981e-05
3.81564e-05
-2.15923e-05
4.35294e-05
4.91994e-05
-2.81507e-05
-1.64536e-07
1.14555e-05
-5.09288e-07
1.42184e-05
-9.87655e-07
1.67353e-05
-1.65994e-06
1.95455e-05
-2.56379e-06
2.27448e-05
-3.81793e-06
2.64209e-05
-5.55532e-06
3.06914e-05
-7.937e-06
3.56597e-05
-1.11412e-05
4.13606e-05
-1.53455e-05
4.77336e-05
5.45662e-05
-2.07123e-05
2.86914e-08
1.14268e-05
-6.61778e-08
1.43132e-05
-2.003e-07
1.68694e-05
-4.43074e-07
1.97882e-05
-8.20354e-07
2.3122e-05
-1.41768e-06
2.70183e-05
-2.35086e-06
3.16245e-05
-3.78507e-06
3.70939e-05
-5.90876e-06
4.34843e-05
-8.91657e-06
5.07414e-05
5.86862e-05
-1.30365e-05
2.29451e-07
1.11974e-05
4.26421e-07
1.41163e-05
6.24488e-07
1.66713e-05
8.05779e-07
1.96069e-05
9.50068e-07
2.29777e-05
9.98755e-07
2.69696e-05
8.59478e-07
3.17638e-05
3.92222e-07
3.75612e-05
-6.13899e-07
4.44904e-05
-2.39376e-06
5.25213e-05
6.14317e-05
-5.13926e-06
4.84108e-07
1.07133e-05
9.82549e-07
1.36178e-05
1.52059e-06
1.61333e-05
2.11415e-06
1.90134e-05
2.75686e-06
2.2335e-05
3.42075e-06
2.63057e-05
4.04443e-06
3.11401e-05
4.50626e-06
3.70994e-05
4.6203e-06
4.43764e-05
4.13976e-06
5.30018e-05
6.28442e-05
2.72723e-06
6.37927e-07
1.00754e-05
1.3938e-06
1.2862e-05
2.25492e-06
1.52722e-05
3.24379e-06
1.80245e-05
4.36861e-06
2.12102e-05
5.62749e-06
2.50468e-05
6.9845e-06
2.97831e-05
8.35671e-06
3.57272e-05
9.57925e-06
4.31538e-05
1.04285e-05
5.21525e-05
6.26621e-05
1.06106e-05
7.83548e-07
9.2918e-06
1.77158e-06
1.18739e-05
2.92255e-06
1.41212e-05
4.26806e-06
1.6679e-05
5.83313e-06
1.96452e-05
7.63492e-06
2.3245e-05
9.66849e-06
2.77496e-05
1.18852e-05
3.35105e-05
1.41693e-05
4.08697e-05
1.63196e-05
5.00023e-05
6.08954e-05
1.80863e-05
9.07318e-07
8.38448e-06
2.10143e-06
1.06798e-05
3.50093e-06
1.27217e-05
5.15522e-06
1.50247e-05
7.10018e-06
1.77002e-05
9.37492e-06
2.09703e-05
1.20023e-05
2.51222e-05
1.49748e-05
3.0538e-05
1.82005e-05
3.7644e-05
2.15094e-05
4.66934e-05
5.79078e-05
2.4497e-05
9.85919e-07
7.39856e-06
2.32949e-06
9.33625e-06
3.92669e-06
1.11245e-05
5.82714e-06
1.31242e-05
8.07852e-06
1.54488e-05
1.07395e-05
1.83093e-05
1.38608e-05
2.20009e-05
1.74666e-05
2.69322e-05
2.15419e-05
3.35686e-05
2.59648e-05
4.22705e-05
5.31319e-05
3.07407e-05
1.03498e-06
6.36359e-06
2.47813e-06
7.89309e-06
4.20994e-06
9.3927e-06
6.28252e-06
1.10517e-05
8.75433e-06
1.2977e-05
1.16954e-05
1.53682e-05
1.51769e-05
1.85193e-05
1.926e-05
2.28491e-05
2.3963e-05
2.88657e-05
2.91971e-05
3.70363e-05
4.76045e-05
3.47245e-05
1.07178e-06
5.29181e-06
2.57044e-06
6.39444e-06
4.37832e-06
7.58481e-06
6.54635e-06
8.88363e-06
9.1427e-06
1.03806e-05
1.22447e-05
1.22662e-05
1.59344e-05
1.48297e-05
2.02963e-05
1.84872e-05
2.54107e-05
2.37513e-05
3.1312e-05
3.1135e-05
4.08738e-05
3.80427e-05
1.10161e-06
4.1902e-06
2.61357e-06
4.88248e-06
4.44117e-06
5.75722e-06
6.63829e-06
6.6865e-06
9.27132e-06
7.74762e-06
1.24174e-05
9.12008e-06
1.61571e-05
1.10901e-05
2.05961e-05
1.40482e-05
2.58752e-05
1.84722e-05
3.2142e-05
2.48682e-05
3.32428e-05
3.9773e-05
1.1067e-06
3.08349e-06
2.59258e-06
3.3966e-06
4.39932e-06
3.95047e-06
6.57534e-06
4.51049e-06
9.17899e-06
5.14398e-06
1.22629e-05
6.03615e-06
1.59008e-05
7.45222e-06
2.02134e-05
9.73558e-06
2.5376e-05
1.33095e-05
3.15205e-05
1.87237e-05
2.62164e-05
3.85469e-05
1.07628e-06
2.00722e-06
2.51254e-06
1.96034e-06
4.29453e-06
2.16849e-06
6.42767e-06
2.37734e-06
8.93464e-06
2.63701e-06
1.18585e-05
3.11225e-06
1.52705e-05
4.04026e-06
1.93179e-05
5.68812e-06
2.42471e-05
8.3804e-06
3.03941e-05
1.25768e-05
1.84741e-05
3.81364e-05
7.95134e-07
2.35653e-06
4.16619e-06
6.13341e-06
8.37338e-06
1.09793e-05
1.40701e-05
1.78219e-05
2.2517e-05
2.85395e-05
3.60465e-05
-6.52287e-06
-8.28911e-06
1.4812e-05
-1.04452e-05
-9.52586e-06
1.34482e-05
-1.372e-05
-1.13663e-05
1.4641e-05
-1.71586e-05
-1.33364e-05
1.6775e-05
-2.07121e-05
-1.52576e-05
1.88111e-05
-2.42977e-05
-1.70372e-05
2.06228e-05
-2.82245e-05
-1.86628e-05
2.25896e-05
-3.26668e-05
-2.00674e-05
2.45098e-05
-3.78334e-05
-2.11298e-05
2.62964e-05
-4.39409e-05
-2.16313e-05
2.77387e-05
-2.11832e-05
2.85567e-05
-5.13144e-05
-5.69517e-06
-2.59394e-06
-1.03892e-05
-4.83185e-06
-1.46085e-05
-7.14689e-06
-1.85261e-05
-9.4188e-06
-2.22929e-05
-1.14908e-05
-2.60901e-05
-1.324e-05
-3.01604e-05
-1.45925e-05
-3.47707e-05
-1.54572e-05
-4.01995e-05
-1.5701e-05
-4.67481e-05
-1.50826e-05
-1.32223e-05
-5.4709e-05
-3.04151e-06
4.47564e-07
-6.53326e-06
-1.34009e-06
-1.04328e-05
-3.24738e-06
-1.4593e-05
-5.25855e-06
-1.89106e-05
-7.17323e-06
-2.34012e-05
-8.74932e-06
-2.81903e-05
-9.8034e-06
-3.35016e-05
-1.01459e-05
-3.95977e-05
-9.60496e-06
-4.67645e-05
-7.9157e-06
-4.63312e-06
-5.53537e-05
-1.62385e-06
2.07141e-06
-4.06498e-06
1.10104e-06
-7.30691e-06
-5.45378e-09
-1.11142e-05
-1.45124e-06
-1.5397e-05
-2.89045e-06
-2.00966e-05
-4.04973e-06
-2.52829e-05
-4.61704e-06
-3.10673e-05
-4.3615e-06
-3.76196e-05
-3.05268e-06
-4.51599e-05
-3.75366e-07
4.20407e-06
-5.39971e-05
-8.78817e-07
2.95023e-06
-2.47655e-06
2.69877e-06
-4.93746e-06
2.45546e-06
-8.20153e-06
1.81283e-06
-1.2197e-05
1.10498e-06
-1.68254e-05
5.78699e-07
-2.20339e-05
5.91495e-07
-2.78849e-05
1.48943e-06
-3.45709e-05
3.63333e-06
-4.23702e-05
7.42396e-06
1.33915e-05
-5.15576e-05
-8.04992e-07
3.75522e-06
-2.04963e-06
3.94342e-06
-3.82737e-06
4.2332e-06
-6.35061e-06
4.33607e-06
-9.68309e-06
4.43746e-06
-1.38648e-05
4.76038e-06
-1.88727e-05
5.5994e-06
-2.47035e-05
7.32024e-06
-3.14175e-05
1.03473e-05
-3.91626e-05
1.5169e-05
2.2447e-05
-4.82181e-05
-7.6993e-07
4.52515e-06
-1.93832e-06
5.11181e-06
-3.49652e-06
5.79139e-06
-5.62905e-06
6.4686e-06
-8.48277e-06
7.29118e-06
-1.21456e-05
8.4232e-06
-1.66722e-05
1.0126e-05
-2.21012e-05
1.27492e-05
-2.84909e-05
1.6737e-05
-3.59406e-05
2.26187e-05
3.10718e-05
-4.45653e-05
-7.67903e-07
5.29305e-06
-1.8405e-06
6.1844e-06
-3.26982e-06
7.22072e-06
-5.17839e-06
8.37716e-06
-7.69161e-06
9.80441e-06
-1.09347e-05
1.16663e-05
-1.50053e-05
1.41967e-05
-1.99841e-05
1.7728e-05
-2.59498e-05
2.27026e-05
-3.30218e-05
2.96908e-05
3.94445e-05
-4.13946e-05
-7.34298e-07
6.02735e-06
-1.7519e-06
7.202e-06
-3.0757e-06
8.54452e-06
-4.81355e-06
1.0115e-05
-7.0801e-06
1.2071e-05
-9.99358e-06
1.45797e-05
-1.36694e-05
1.78725e-05
-1.82167e-05
2.22753e-05
-2.37416e-05
2.82275e-05
-3.03789e-05
3.63281e-05
4.73845e-05
-3.83188e-05
-6.38745e-07
6.6661e-06
-1.56222e-06
8.12548e-06
-2.77679e-06
9.75909e-06
-4.36648e-06
1.17047e-05
-6.42802e-06
1.41325e-05
-9.0764e-06
1.72281e-05
-1.24254e-05
2.12215e-05
-1.65973e-05
2.64472e-05
-2.17183e-05
3.33486e-05
-2.79296e-05
4.25394e-05
5.48157e-05
-3.53608e-05
-5.48892e-07
7.21499e-06
-1.38316e-06
8.95975e-06
-2.48734e-06
1.08633e-05
-3.93298e-06
1.31503e-05
-5.81212e-06
1.60116e-05
-8.22381e-06
1.96398e-05
-1.12834e-05
2.42811e-05
-1.51089e-05
3.02728e-05
-1.98357e-05
3.80754e-05
-2.56083e-05
4.8312e-05
6.18126e-05
-3.26052e-05
-5.41472e-07
7.75646e-06
-1.31769e-06
9.73596e-06
-2.3243e-06
1.18699e-05
-3.63812e-06
1.44642e-05
-5.33997e-06
1.77135e-05
-7.52464e-06
2.18245e-05
-1.03026e-05
2.70591e-05
-1.37889e-05
3.3759e-05
-1.81164e-05
4.24029e-05
-2.34364e-05
5.3632e-05
6.83061e-05
-2.99299e-05
-4.91699e-07
8.24816e-06
-1.18849e-06
1.04328e-05
-2.09393e-06
1.27753e-05
-3.27387e-06
1.56441e-05
-4.80332e-06
1.92429e-05
-6.7705e-06
2.37917e-05
-9.27733e-06
2.95659e-05
-1.24388e-05
3.69205e-05
-1.63844e-05
4.63485e-05
-2.1278e-05
5.85255e-05
7.43437e-05
-2.73156e-05
-3.56778e-07
8.60494e-06
-9.26119e-07
1.10021e-05
-1.69955e-06
1.35487e-05
-2.72981e-06
1.66744e-05
-4.07911e-06
2.05922e-05
-5.82824e-06
2.55408e-05
-8.06976e-06
3.18074e-05
-1.0908e-05
3.97588e-05
-1.44618e-05
4.99023e-05
-1.88675e-05
6.29312e-05
7.97661e-05
-2.42899e-05
-3.17553e-07
8.92249e-06
-7.90692e-07
1.14752e-05
-1.43484e-06
1.41929e-05
-2.29945e-06
1.7539e-05
-3.44341e-06
2.17362e-05
-4.94328e-06
2.70407e-05
-6.87915e-06
3.37433e-05
-9.34393e-06
4.22236e-05
-1.24344e-05
5.29928e-05
-1.62729e-05
6.67697e-05
8.44975e-05
-2.10043e-05
-2.4349e-07
9.16598e-06
-5.96409e-07
1.18282e-05
-1.08629e-06
1.46828e-05
-1.75858e-06
1.82113e-05
-2.67373e-06
2.26514e-05
-3.89211e-06
2.8259e-05
-5.48744e-06
3.53386e-05
-7.5299e-06
4.4266e-05
-1.00849e-05
5.55478e-05
-1.32468e-05
6.99316e-05
8.83946e-05
-1.71439e-05
-7.85776e-08
9.24456e-06
-2.43586e-07
1.19932e-05
-5.31018e-07
1.49702e-05
-9.77447e-07
1.86577e-05
-1.62297e-06
2.32969e-05
-2.52762e-06
2.91637e-05
-3.7366e-06
3.65476e-05
-5.29119e-06
4.58206e-05
-7.2271e-06
5.74837e-05
-9.58495e-06
7.22894e-05
9.12351e-05
-1.24254e-05
4.64502e-08
9.19811e-06
7.53632e-08
1.19642e-05
1.69316e-08
1.50286e-05
-1.53619e-07
1.88283e-05
-4.79927e-07
2.36232e-05
-1.00157e-06
2.96853e-05
-1.73797e-06
3.7284e-05
-2.68619e-06
4.67689e-05
-3.83254e-06
5.863e-05
-5.16867e-06
7.36256e-05
9.27985e-05
-6.73211e-06
1.99391e-07
8.99872e-06
4.63515e-07
1.17001e-05
6.77331e-07
1.48148e-05
8.22997e-07
1.86826e-05
8.71412e-07
2.35748e-05
8.10873e-07
2.97459e-05
6.62662e-07
3.74322e-05
4.80117e-07
4.69514e-05
3.36752e-07
5.87734e-05
2.84167e-07
7.36782e-05
9.27567e-05
3.26017e-07
3.84144e-07
8.61457e-06
9.26146e-07
1.11581e-05
1.45787e-06
1.42831e-05
1.97182e-06
1.81686e-05
2.45494e-06
2.30917e-05
2.94705e-06
2.92538e-05
3.53074e-06
3.68485e-05
4.32679e-06
4.61553e-05
5.46088e-06
5.76393e-05
7.05848e-06
7.20806e-05
9.05794e-05
9.23576e-06
5.75092e-07
8.03948e-06
1.44756e-06
1.02856e-05
2.31995e-06
1.34107e-05
3.22305e-06
1.72655e-05
4.20503e-06
2.21097e-05
5.37527e-06
2.80835e-05
6.89504e-06
3.53287e-05
8.94344e-06
4.41069e-05
1.16857e-05
5.48971e-05
1.53081e-05
6.84582e-05
8.5867e-05
2.00205e-05
8.30893e-07
7.20859e-06
1.88669e-06
9.22985e-06
3.05776e-06
1.22396e-05
4.36018e-06
1.59631e-05
5.9333e-06
2.05366e-05
7.97186e-06
2.60449e-05
1.06893e-05
3.26113e-05
1.42821e-05
4.05141e-05
1.89513e-05
5.02279e-05
2.4952e-05
6.24575e-05
7.82235e-05
3.25955e-05
6.42959e-07
6.56563e-06
2.07414e-06
7.79866e-06
3.35006e-06
1.09637e-05
5.04638e-06
1.42668e-05
7.36762e-06
1.82153e-05
1.05188e-05
2.28938e-05
1.46851e-05
2.8445e-05
2.00556e-05
3.51436e-05
2.68748e-05
4.34088e-05
3.54926e-05
5.38396e-05
6.73534e-05
4.63627e-05
-2.62144e-06
9.18707e-06
-1.55158e-06
6.72881e-06
7.35236e-07
8.67691e-06
3.71438e-06
1.12876e-05
7.531e-06
1.43987e-05
1.23393e-05
1.80855e-05
1.8283e-05
2.25012e-05
2.55856e-05
2.7841e-05
3.45984e-05
3.4396e-05
4.58246e-05
4.26134e-05
5.32868e-05
5.98912e-05
5.43634e-06
9.37565e-06
7.97529e-06
1.09092e-05
7.33306e-06
1.52833e-05
4.62405e-06
1.9484e-05
3.44577e-07
2.30906e-05
-5.12613e-06
2.60935e-05
-1.13339e-05
2.87973e-05
-1.79831e-05
3.11589e-05
-2.53117e-05
3.3625e-05
-3.34729e-05
3.58998e-05
3.76624e-05
-4.25785e-05
6.63875e-06
2.7369e-06
1.07434e-05
6.80459e-06
1.30917e-05
1.2935e-05
1.37209e-05
1.88548e-05
1.21354e-05
2.46761e-05
8.10552e-06
3.01234e-05
2.01772e-06
3.48851e-05
-5.44956e-06
3.86262e-05
-1.37141e-05
4.18896e-05
-2.28797e-05
4.50654e-05
4.80496e-05
-3.32669e-05
4.40295e-06
-1.66605e-06
8.42055e-06
2.78699e-06
1.22097e-05
9.14585e-06
1.48685e-05
1.6196e-05
1.56819e-05
2.38626e-05
1.41558e-05
3.16495e-05
1.01467e-05
3.88942e-05
3.84071e-06
4.49322e-05
-3.97442e-06
4.97047e-05
-1.27438e-05
5.38347e-05
5.77207e-05
-2.2415e-05
2.13681e-06
-3.80286e-06
6.20434e-06
-1.28054e-06
1.0646e-05
4.70422e-06
1.43935e-05
1.24485e-05
1.68806e-05
2.13755e-05
1.74896e-05
3.10405e-05
1.57284e-05
4.06554e-05
1.13993e-05
4.92613e-05
4.89869e-06
5.62054e-05
-2.97333e-06
6.17068e-05
6.6476e-05
-1.17286e-05
9.48406e-07
-4.75127e-06
3.64665e-06
-3.97878e-06
8.40725e-06
-5.63881e-08
1.31776e-05
7.67811e-06
1.7037e-05
1.75161e-05
1.9385e-05
2.86925e-05
1.96374e-05
4.04031e-05
1.73717e-05
5.1527e-05
1.26187e-05
6.09583e-05
6.02663e-06
6.82988e-05
7.40718e-05
-1.56923e-06
1.06362e-06
-5.81489e-06
2.54521e-06
-5.46037e-06
6.17956e-06
-3.69074e-06
1.14133e-05
2.44439e-06
1.64277e-05
1.25017e-05
2.02783e-05
2.48418e-05
2.2296e-05
3.83854e-05
2.1944e-05
5.18791e-05
1.90103e-05
6.3892e-05
1.38549e-05
7.34543e-05
8.04697e-05
7.45693e-06
1.22077e-06
-7.03566e-06
2.71785e-06
-6.95745e-06
5.02268e-06
-5.99557e-06
9.58665e-06
-2.11958e-06
1.5174e-05
6.91438e-06
2.02429e-05
1.97729e-05
2.37927e-05
3.48355e-05
2.51642e-05
5.05076e-05
2.39971e-05
6.50591e-05
2.03962e-05
7.70553e-05
8.59598e-05
1.49061e-05
1.25076e-06
-8.28643e-06
2.82455e-06
-8.53123e-06
4.86582e-06
-8.03684e-06
8.28787e-06
-5.54163e-06
1.36603e-05
1.54198e-06
1.93883e-05
1.40449e-05
2.41292e-05
3.00947e-05
2.69925e-05
4.76442e-05
2.74934e-05
6.45582e-05
2.56575e-05
7.88911e-05
8.93543e-05
2.2263e-05
1.20889e-06
-9.49532e-06
2.80854e-06
-1.01309e-05
4.82334e-06
-1.00516e-05
7.56229e-06
-8.28058e-06
1.2154e-05
-3.04969e-06
1.79446e-05
8.25428e-06
2.34572e-05
2.4582e-05
2.7502e-05
4.35995e-05
2.94649e-05
6.25952e-05
2.91843e-05
7.91718e-05
9.15535e-05
2.69851e-05
1.13099e-06
-1.06263e-05
2.61782e-06
-1.16177e-05
4.52238e-06
-1.19562e-05
7.02192e-06
-1.07801e-05
1.07509e-05
-6.77872e-06
1.61034e-05
2.90186e-06
2.18594e-05
1.8826e-05
2.67162e-05
3.87427e-05
2.99086e-05
5.94028e-05
3.12689e-05
7.78116e-05
9.17627e-05
3.10597e-05
8.11941e-07
-1.14383e-05
2.12562e-06
-1.29314e-05
3.81391e-06
-1.36445e-05
6.04966e-06
-1.30159e-05
9.18001e-06
-9.90906e-06
1.39089e-05
-1.82706e-06
1.94447e-05
1.32903e-05
2.46834e-05
3.35039e-05
2.88418e-05
5.52444e-05
3.17059e-05
7.49475e-05
8.99709e-05
3.34977e-05
6.7287e-07
-1.21111e-05
1.68539e-06
-1.39439e-05
2.90454e-06
-1.48636e-05
4.65933e-06
-1.47707e-05
7.16917e-06
-1.24189e-05
1.10328e-05
-5.6907e-06
1.60424e-05
8.2807e-06
2.13098e-05
2.82365e-05
2.61672e-05
5.0387e-05
3.04217e-05
7.0693e-05
8.57068e-05
3.46857e-05
3.86082e-07
-1.24972e-05
9.35709e-07
-1.44935e-05
1.71845e-06
-1.56464e-05
2.84735e-06
-1.58996e-05
4.62992e-06
-1.42015e-05
7.5728e-06
-8.63357e-06
1.18285e-05
4.025e-06
1.68339e-05
2.32311e-05
2.207e-05
4.51509e-05
2.7485e-05
6.5278e-05
8.02606e-05
3.29312e-05
2.21527e-08
-1.25194e-05
9.74796e-08
-1.45689e-05
2.833e-07
-1.58322e-05
6.6572e-07
-1.6282e-05
1.48691e-06
-1.50227e-05
3.36023e-06
-1.05069e-05
7.00914e-06
3.76091e-07
1.15725e-05
1.86678e-05
1.70564e-05
3.9667e-05
2.36701e-05
5.86643e-05
7.27318e-05
3.1199e-05
-3.0683e-07
-1.22125e-05
-7.37745e-07
-1.41379e-05
-1.20954e-06
-1.53604e-05
-1.67983e-06
-1.58117e-05
-1.96449e-06
-1.4738e-05
-1.52866e-06
-1.09427e-05
9.60228e-07
-2.1128e-06
5.67913e-06
1.39489e-05
1.16096e-05
3.37366e-05
1.92381e-05
5.10358e-05
6.32808e-05
2.8689e-05
-6.81851e-07
-1.15307e-05
-1.66975e-06
-1.315e-05
-2.83687e-06
-1.41933e-05
-4.1594e-06
-1.44892e-05
-5.46756e-06
-1.34298e-05
-6.31152e-06
-1.00988e-05
-5.28249e-06
-3.14183e-06
-8.2674e-07
9.49316e-06
5.87384e-06
2.7036e-05
1.45924e-05
4.23173e-05
5.16585e-05
2.62147e-05
-1.11723e-06
-1.04134e-05
-2.68642e-06
-1.15809e-05
-4.57713e-06
-1.23026e-05
-6.74332e-06
-1.2323e-05
-8.94731e-06
-1.12259e-05
-1.06069e-05
-8.43915e-06
-1.06083e-05
-3.14041e-06
-7.14184e-06
6.02665e-06
2.98965e-07
1.95952e-05
1.01228e-05
3.24935e-05
3.83527e-05
2.34286e-05
-1.56553e-06
-8.84791e-06
-3.72237e-06
-9.42402e-06
-6.3551e-06
-9.66985e-06
-9.36918e-06
-9.30889e-06
-1.24291e-05
-8.16592e-06
-1.48479e-05
-6.02039e-06
-1.54931e-05
-2.49524e-06
-1.27271e-05
3.26069e-06
-5.27714e-06
1.21452e-05
5.3868e-06
2.18295e-05
2.54769e-05
1.82625e-05
-2.04913e-06
-6.79878e-06
-4.83441e-06
-6.63874e-06
-8.2644e-06
-6.23986e-06
-1.21263e-05
-5.44703e-06
-1.59712e-05
-4.32097e-06
-1.90148e-05
-2.97678e-06
-2.00774e-05
-1.4327e-06
-1.76779e-05
8.61238e-07
-1.05363e-05
5.00365e-06
7.71785e-07
1.05214e-05
1.10766e-05
1.51721e-05
-2.72605e-06
-4.07273e-06
-6.32081e-06
-3.04398e-06
-1.06171e-05
-1.94355e-06
-1.52228e-05
-8.41323e-07
-1.95419e-05
-1.84791e-09
-2.27234e-05
2.04704e-07
-2.3715e-05
-4.41162e-07
-2.13736e-05
-1.48017e-06
-1.46394e-05
-1.73046e-06
-3.21773e-06
-9.00323e-07
-3.94576e-06
1.18047e-05
-3.73841e-06
-3.3432e-07
-7.50091e-06
7.18512e-07
-1.11558e-05
1.71135e-06
-1.44035e-05
2.40639e-06
-1.67288e-05
2.32344e-06
-1.67591e-05
2.35004e-07
-1.38846e-05
-3.31563e-06
-8.23908e-06
-7.12573e-06
7.26365e-07
-1.06959e-05
1.33525e-05
-1.35264e-05
-1.77818e-05
2.71885e-05
-3.43004e-06
3.09572e-06
-4.77426e-06
2.06273e-06
-5.23791e-06
2.17501e-06
-3.955e-06
1.12347e-06
6.02465e-08
-1.6918e-06
6.85906e-06
-6.56381e-06
1.42109e-05
-1.06675e-05
2.22768e-05
-1.51917e-05
3.14665e-05
-1.98856e-05
4.29395e-05
-2.49994e-05
-3.1249e-05
5.64067e-05
1.20272e-06
1.893e-06
3.88279e-06
-6.17339e-07
8.62387e-06
-2.56608e-06
1.52021e-05
-5.45473e-06
2.2554e-05
-9.04376e-06
2.91179e-05
-1.31277e-05
3.59552e-05
-1.75048e-05
4.3191e-05
-2.24275e-05
5.14337e-05
-2.81283e-05
6.14478e-05
-3.50135e-05
-4.39011e-05
7.40999e-05
1.10801e-05
1.71915e-05
2.33024e-05
2.91353e-05
3.44902e-05
3.94481e-05
4.44444e-05
4.9858e-05
5.61257e-05
6.37257e-05
7.31114e-05
-1.00452e-05
1.85776e-05
-8.53246e-06
-1.76996e-05
1.67306e-05
-9.07616e-06
-2.63707e-05
1.87922e-05
-1.01211e-05
-3.49022e-05
1.96721e-05
-1.11406e-05
-4.35492e-05
2.14854e-05
-1.28383e-05
-5.25422e-05
2.4197e-05
-1.52041e-05
-6.23338e-05
2.80573e-05
-1.82656e-05
-7.33686e-05
3.3226e-05
-2.21912e-05
-8.61152e-05
4.00066e-05
-2.726e-05
-0.000101092
4.88225e-05
-3.38455e-05
6.03083e-05
-4.24308e-05
-0.00011897
-3.88616e-07
1.89663e-05
-2.07483e-06
1.84168e-05
-8.08775e-06
2.48051e-05
-1.52512e-05
2.68355e-05
-2.39375e-05
3.01717e-05
-3.35085e-05
3.3768e-05
-4.41779e-05
3.87267e-05
-5.62437e-05
4.52917e-05
-7.01485e-05
5.39114e-05
-8.64216e-05
6.50956e-05
7.95447e-05
-0.000105658
1.06161e-06
1.79046e-05
2.32659e-07
1.92458e-05
-2.79163e-06
2.78294e-05
-7.10538e-06
3.11493e-05
-1.37996e-05
3.68659e-05
-2.20449e-05
4.20132e-05
-3.17863e-05
4.84682e-05
-4.31002e-05
5.66056e-05
-5.62571e-05
6.70683e-05
-7.17048e-05
8.05433e-05
9.78987e-05
-9.00588e-05
7.9839e-07
1.71063e-05
-3.0157e-07
2.03457e-05
-1.7865e-06
2.93143e-05
-4.43257e-06
3.37953e-05
-9.04909e-06
4.14825e-05
-1.51427e-05
4.81069e-05
-2.30726e-05
5.63981e-05
-3.25923e-05
6.61253e-05
-4.39711e-05
7.84471e-05
-5.74415e-05
9.40137e-05
0.000113854
-7.33967e-05
6.47398e-07
1.64589e-05
-5.17802e-07
2.15109e-05
-1.49447e-06
3.0291e-05
-3.40759e-06
3.57085e-05
-6.49186e-06
4.45667e-05
-1.07332e-05
5.23482e-05
-1.66295e-05
6.22944e-05
-2.41546e-05
7.36504e-05
-3.33748e-05
8.76674e-05
-4.45228e-05
0.000105162
0.000127279
-5.79477e-05
7.30774e-07
1.57281e-05
-4.74581e-08
2.22891e-05
-6.31099e-07
3.08746e-05
-2.16279e-06
3.72402e-05
-4.27478e-06
4.66787e-05
-7.25943e-06
5.53328e-05
-1.15508e-05
6.65858e-05
-1.71625e-05
7.92621e-05
-2.43357e-05
9.48406e-05
-3.31868e-05
0.000114013
0.000138031
-4.39392e-05
8.40269e-07
1.48878e-05
5.09767e-07
2.26197e-05
3.03556e-07
3.10809e-05
-8.29503e-07
3.83732e-05
-2.22646e-06
4.80757e-05
-4.33229e-06
5.74387e-05
-7.36918e-06
6.96227e-05
-1.14191e-05
8.3312e-05
-1.67695e-05
0.000100191
-2.35606e-05
0.000120804
0.000146484
-3.20135e-05
8.18375e-07
1.40694e-05
7.84083e-07
2.26539e-05
8.99893e-07
3.0965e-05
1.80659e-07
3.90925e-05
-5.86454e-07
4.88428e-05
-2.00902e-06
5.88612e-05
-3.98767e-06
7.16013e-05
-6.74236e-06
8.60667e-05
-1.04866e-05
0.000103935
-1.53589e-05
0.000125676
0.000152694
-2.15692e-05
7.74786e-07
1.32947e-05
1.10513e-06
2.23236e-05
1.51169e-06
3.05585e-05
1.21207e-06
3.93921e-05
9.66274e-07
4.90886e-05
1.48981e-07
5.96785e-05
-9.38427e-07
7.26887e-05
-2.62448e-06
8.77528e-05
-4.99374e-06
0.000106304
-8.20286e-06
0.000128885
0.000156891
-1.23993e-05
1.00545e-06
1.22892e-05
1.76555e-06
2.15635e-05
2.50742e-06
2.98166e-05
2.66671e-06
3.92328e-05
2.85918e-06
4.88961e-05
2.5891e-06
5.99486e-05
2.21771e-06
7.30601e-05
1.40899e-06
8.85615e-05
1.73579e-07
0.00010754
-1.65533e-06
0.000130714
0.000159497
-4.26167e-06
1.19434e-06
1.10949e-05
2.33316e-06
2.04247e-05
3.38106e-06
2.87687e-05
4.02535e-06
3.85885e-05
4.6416e-06
4.82799e-05
4.92266e-06
5.96676e-05
5.19755e-06
7.27852e-05
5.20112e-06
8.85579e-05
5.01048e-06
0.00010773
4.47135e-06
0.000131253
0.00016044
3.52858e-06
1.17055e-06
9.92432e-06
2.52075e-06
1.90745e-05
3.84834e-06
2.74411e-05
4.95148e-06
3.74853e-05
5.9951e-06
4.72362e-05
6.85802e-06
5.88046e-05
7.7885e-06
7.18547e-05