/*--------------------------------*- C++ -*----------------------------------*\
| =========                 |                                                 |
| \\      /  F ield         | OpenFOAM: The Open Source CFD Toolbox           |
|  \\    /   O peration     | Version:  3.0.1                                 |
|   \\  /    A nd           | Web:      www.OpenFOAM.org                      |
|    \\/     M anipulation  |                                                 |
\*---------------------------------------------------------------------------*/
FoamFile
{
    version     2.0;
    format      ascii;
    class       volScalarField;
    location    "0.975997";
    object      k;
}
// * * * * * * * * * * * * * * * * * * * * * * * * * * * * * * * * * * * * * //

dimensions      [0 2 -2 0 0 0 0];

internalField   nonuniform List<scalar> 
21246
(
1.15581
1.47899
0.914384
0.489088
0.259305
0.138844
0.0741702
0.0394998
0.0214271
0.0125638
0.00851624
0.69715
0.991851
0.751556
0.460899
0.263478
0.148152
0.0809404
0.042998
0.0227406
0.0127558
0.0083409
0.562665
0.767007
0.637263
0.466369
0.297163
0.173388
0.0954132
0.0503799
0.0261111
0.014002
0.00871868
0.50947
0.657323
0.556717
0.436922
0.292544
0.177099
0.0997694
0.0534842
0.0279171
0.0149785
0.00921575
0.476974
0.567815
0.488151
0.392325
0.267446
0.167486
0.0979326
0.0543614
0.0291167
0.015773
0.00960524
0.453447
0.494365
0.431134
0.349323
0.24043
0.154023
0.0927292
0.05317
0.0293474
0.0162307
0.00998335
0.435476
0.438035
0.384765
0.310513
0.21529
0.139874
0.0860609
0.0507518
0.0288697
0.0163775
0.0101854
0.421071
0.393751
0.346486
0.277915
0.193438
0.126712
0.0791522
0.047725
0.0278667
0.0162124
0.0103961
0.409696
0.35844
0.315085
0.251344
0.175265
0.115332
0.0727962
0.0446592
0.026698
0.0159592
0.0105083
0.401276
0.329963
0.289687
0.230307
0.160772
0.106071
0.0674229
0.0419191
0.0255709
0.0156712
0.010505
0.394833
0.306576
0.268825
0.213498
0.149251
0.0986569
0.0630299
0.0396029
0.0245621
0.0153555
0.0105103
0.389236
0.286949
0.251156
0.19962
0.139889
0.092681
0.0594703
0.0377006
0.0237184
0.0150908
0.010518
0.385197
0.270412
0.236394
0.188455
0.132554
0.0880782
0.0567384
0.0362428
0.0230852
0.0149089
0.0105343
0.383614
0.256805
0.224427
0.179982
0.127276
0.084884
0.054875
0.0352769
0.0227006
0.0148231
0.0105807
0.382701
0.245476
0.214345
0.173393
0.12358
0.0828749
0.0537909
0.0347829
0.0225804
0.0148613
0.0106838
0.38225
0.236106
0.205666
0.16834
0.121503
0.0822216
0.0536626
0.0348877
0.0227953
0.0150687
0.0108806
0.382386
0.228834
0.19809
0.164306
0.120836
0.0829599
0.0546484
0.0357343
0.0235047
0.0156116
0.0112436
0.383097
0.223039
0.191377
0.160975
0.121269
0.0849926
0.0568159
0.0374455
0.0247674
0.0165367
0.0118464
0.384622
0.218695
0.185498
0.158225
0.122653
0.0883593
0.0603806
0.0403064
0.0268324
0.018007
0.012789
0.387395
0.215921
0.180461
0.155897
0.124767
0.0930436
0.0655967
0.0447473
0.0301421
0.0203492
0.0142961
0.392106
0.214889
0.176285
0.153784
0.127239
0.09885
0.0726356
0.0512839
0.0353646
0.0241765
0.0168553
0.400267
0.21512
0.17294
0.151658
0.12953
0.105261
0.0813525
0.0602823
0.0432698
0.0304224
0.0213402
0.412138
0.215554
0.169975
0.149177
0.130995
0.111365
0.0909758
0.0714954
0.0542785
0.0400433
0.0289909
0.436205
0.212244
0.172155
0.15234
0.135965
0.119224
0.101815
0.0844538
0.068028
0.0532667
0.0406797
1.24712
2.28797
1.06024
0.677366
0.36798
0.186393
0.0940296
0.047602
0.0246263
0.0137878
0.00904729
1.2381
2.12811
1.26109
0.817565
0.486232
0.258932
0.132212
0.065259
0.0321663
0.0168589
0.0103288
1.13547
1.72549
1.24871
0.85549
0.556582
0.322223
0.175286
0.0884101
0.0429459
0.0215143
0.0125129
0.977687
1.45032
1.16673
0.829304
0.573193
0.364255
0.21375
0.11308
0.0558029
0.0275874
0.0157625
0.815689
1.30974
1.08354
0.781217
0.561027
0.385883
0.2423
0.135593
0.0690993
0.0342362
0.0191434
0.678815
1.24776
1.01783
0.734868
0.540654
0.393069
0.260738
0.153819
0.0814154
0.0409047
0.022952
0.575873
1.2182
0.96999
0.696584
0.520571
0.392132
0.271551
0.167465
0.0918528
0.0466719
0.0255735
0.502701
1.20501
0.93536
0.664931
0.501338
0.387743
0.277417
0.177294
0.100196
0.0514008
0.0277307
0.452476
1.19758
0.911044
0.639347
0.483803
0.38115
0.280999
0.184995
0.1069
0.0550229
0.0294717
0.418217
1.18964
0.894413
0.619274
0.468377
0.37364
0.282091
0.190761
0.113103
0.0584181
0.0306289
0.393372
1.17232
0.88535
0.605452
0.455693
0.366301
0.281902
0.195265
0.118589
0.061814
0.0317494
0.374121
1.15388
0.880877
0.595863
0.44514
0.359267
0.280877
0.198941
0.123726
0.0655171
0.033143
0.35887
1.13576
0.878907
0.590412
0.437041
0.352964
0.279569
0.202307
0.129018
0.0700352
0.0354104
0.345092
1.10808
0.878364
0.590188
0.432217
0.347934
0.278474
0.205834
0.134936
0.0758151
0.0389281
0.331847
1.07503
0.877163
0.593837
0.430415
0.344301
0.277771
0.209661
0.141703
0.0830916
0.0441499
0.318469
1.03382
0.874266
0.601335
0.432348
0.34274
0.277923
0.214076
0.149578
0.0921832
0.0514022
0.303878
0.982276
0.867791
0.612488
0.438893
0.344212
0.279612
0.21944
0.158758
0.103284
0.0611583
0.287441
0.922038
0.855367
0.626049
0.450679
0.35001
0.283917
0.226329
0.169409
0.116453
0.0736787
0.268448
0.853012
0.833349
0.639261
0.468007
0.361994
0.292761
0.23598
0.182026
0.131761
0.0891135
0.248843
0.783472
0.800113
0.649377
0.49164
0.383584
0.310128
0.251517
0.198411
0.149891
0.107717
0.218837
0.684145
0.743486
0.646275
0.518369
0.417503
0.341065
0.277849
0.221981
0.172627
0.129684
0.280976
0.688457
0.696567
0.615522
0.5167
0.42945
0.355266
0.291225
0.235448
0.186176
0.142412
0.266007
0.544581
0.581784
0.47721
0.391322
0.31946
0.258191
0.20509
0.159306
0.121837
0.0918937
0.412544
0.318433
0.241424
0.194843
0.163334
0.139026
0.11842
0.099946
0.0830183
0.0675725
0.0537122
0.480858
0.651988
0.283024
0.146564
0.0702797
0.0359137
0.0221671
0.0169576
0.0147701
0.0136738
0.0130045
0.510363
0.743017
0.352151
0.180983
0.0900903
0.0438279
0.0244912
0.0174119
0.0146829
0.0134072
0.0126439
0.516597
0.661359
0.382139
0.210444
0.10673
0.0526892
0.027861
0.0183707
0.0148625
0.0133368
0.0125142
0.495897
0.581148
0.38406
0.221417
0.118363
0.060429
0.0315854
0.0196654
0.0152623
0.013439
0.0125474
0.457204
0.532773
0.376236
0.224124
0.125606
0.0671013
0.0352203
0.0211625
0.0158385
0.0136842
0.0127053
0.409946
0.503337
0.368429
0.226616
0.13176
0.0733108
0.0390045
0.0227924
0.0165434
0.0140378
0.0129437
0.359854
0.485596
0.363267
0.230588
0.138111
0.0790459
0.0432459
0.0248475
0.017348
0.0144701
0.0132566
0.310851
0.47663
0.36126
0.235595
0.144595
0.0847177
0.0475515
0.0272895
0.0184425
0.0149937
0.013623
0.266468
0.471599
0.36359
0.242221
0.151629
0.0907355
0.0521146
0.0300789
0.0198022
0.0156571
0.0140536
0.22784
0.46806
0.370891
0.25169
0.160122
0.0976933
0.0572971
0.0333583
0.0215028
0.0164844
0.0145539
0.194815
0.467376
0.383017
0.264115
0.170183
0.105637
0.0632132
0.0372186
0.0236162
0.0175311
0.0151382
0.168367
0.472237
0.400303
0.279324
0.1815
0.114306
0.069755
0.0416715
0.0261977
0.0188639
0.0158478
0.15
0.48026
0.423279
0.298574
0.194934
0.12409
0.0771156
0.0468642
0.0293746
0.0205784
0.0167445
0.139384
0.487688
0.451641
0.323587
0.211933
0.13579
0.0856883
0.053032
0.0333372
0.0228241
0.0179226
0.137209
0.500814
0.486254
0.355062
0.233072
0.149711
0.0955942
0.0602574
0.0382169
0.0257597
0.0195294
0.143781
0.51747
0.526516
0.395182
0.260581
0.167263
0.107578
0.0689289
0.044285
0.0296276
0.0217589
0.154485
0.528151
0.567813
0.445946
0.29811
0.191134
0.123207
0.0798993
0.052054
0.0348121
0.0249247
0.162241
0.527693
0.601816
0.505723
0.348938
0.224772
0.144865
0.0946137
0.0624005
0.0419252
0.0295174
0.165323
0.512223
0.61653
0.565537
0.414674
0.273346
0.177097
0.116199
0.0773147
0.0522686
0.0364554
0.163526
0.482146
0.602841
0.606985
0.489382
0.342019
0.227591
0.151108
0.101364
0.0689209
0.0478583
0.157974
0.437174
0.559782
0.613107
0.557441
0.432137
0.307446
0.211782
0.144888
0.0995776
0.0692533
0.166092
0.395108
0.507926
0.593324
0.600225
0.528213
0.418873
0.311919
0.224895
0.160289
0.113961
0.155784
0.342864
0.414017
0.476792
0.508512
0.506199
0.46598
0.397641
0.32056
0.250298
0.190522
0.209197
0.426919
0.451357
0.496719
0.522614
0.524104
0.498694
0.445284
0.381356
0.318621
0.259409
0.404137
0.451425
0.242295
0.116185
0.058662
0.032757
0.0217697
0.0172248
0.015177
0.0141052
0.013428
0.315972
0.360794
0.211176
0.121815
0.065155
0.036856
0.0239453
0.018479
0.01606
0.0148523
0.0141456
0.31914
0.362286
0.207891
0.141498
0.0819827
0.0466798
0.0284768
0.0205751
0.0172767
0.0157766
0.0150144
0.322088
0.33828
0.195976
0.147301
0.0918629
0.0554193
0.0342283
0.0236766
0.0190037
0.0169076
0.015919
0.322237
0.29901
0.185354
0.14478
0.0917776
0.0568359
0.0358685
0.025251
0.0203026
0.0180393
0.0169829
0.320485
0.26366
0.174955
0.137763
0.0885956
0.0567139
0.0366435
0.0261414
0.0212
0.0189786
0.0180659
0.318011
0.235909
0.165338
0.129898
0.0845114
0.055631
0.0367141
0.0266797
0.0218693
0.0197136
0.0189006
0.314942
0.214416
0.156602
0.122591
0.0806809
0.0543512
0.036487
0.0269584
0.0223091
0.0202249
0.0194829
0.312248
0.197685
0.149223
0.116464
0.0777387
0.0532433
0.0362962
0.0272007
0.0226958
0.0206956
0.0200848
0.310471
0.184919
0.143119
0.11161
0.0758519
0.0525117
0.0362801
0.0274761
0.0230558
0.0211036
0.0205566
0.309852
0.175243
0.138441
0.108313
0.0749135
0.0523166
0.0365317
0.0278392
0.0234142
0.0214478
0.0208709
0.310207
0.167585
0.134674
0.106213
0.0747572
0.0526611
0.0370839
0.0283332
0.0238082
0.0217808
0.0211972
0.311843
0.161519
0.131802
0.105206
0.075406
0.0536159
0.0380092
0.0290168
0.0242777
0.0221266
0.0215258
0.313486
0.157722
0.12977
0.105202
0.077029
0.0553737
0.0394911
0.0300106
0.0248834
0.0225154
0.0218265
0.314648
0.155208
0.128011
0.105479
0.0792989
0.0578618
0.0417162
0.0315716
0.0258751
0.0231235
0.0222282
0.315461
0.153904
0.126533
0.105987
0.0821066
0.0611386
0.0447934
0.0338812
0.0274232
0.0241002
0.0228498
0.316015
0.153904
0.125393
0.106676
0.0853449
0.0652488
0.0488592
0.0371733
0.0297902
0.0256812
0.0238762
0.316348
0.155019
0.12462
0.107441
0.0888144
0.0701213
0.0540103
0.0416984
0.0333167
0.0282239
0.0256271
0.31653
0.157201
0.124318
0.108204
0.0922795
0.0755687
0.0602522
0.0476782
0.0384013
0.0322171
0.0286023
0.316699
0.160509
0.124706
0.108947
0.095474
0.0812235
0.0673802
0.0551715
0.0453878
0.038228
0.0335081
0.317085
0.164921
0.126018
0.109722
0.0980841
0.0864608
0.0747666
0.0637718
0.0542391
0.0466111
0.0410384
0.31831
0.170027
0.128336
0.110595
0.0997333
0.0903094
0.0810654
0.0720753
0.0637839
0.0566271
0.0509407
0.320832
0.17654
0.132032
0.111753
0.100133
0.0916218
0.0842067
0.077344
0.0710275
0.0654305
0.0607769
0.337212
0.186375
0.149057
0.132352
0.123264
0.116941
0.11147
0.110116
0.111586
0.115124
0.119384
0.205215
0.407185
0.403776
0.40252
0.35476
0.253992
0.168622
0.112273
0.076415
0.0537117
0.0395694
0.171499
0.29862
0.328653
0.343623
0.320977
0.248664
0.164923
0.100645
0.063952
0.0424527
0.0297055
0.127015
0.225413
0.265746
0.286422
0.277792
0.227503
0.155949
0.0936362
0.0553243
0.0347317
0.0228104
0.0947587
0.183308
0.217996
0.237589
0.234806
0.198432
0.140082
0.0852017
0.0492614
0.0294561
0.0185863
0.0798911
0.150377
0.181031
0.197617
0.196277
0.168227
0.121361
0.0755854
0.0441099
0.0260865
0.0160299
0.0710826
0.12396
0.1514
0.164821
0.163601
0.140954
0.103581
0.0664789
0.039855
0.0238332
0.0146179
0.0638911
0.104123
0.128328
0.138709
0.137451
0.118831
0.0890574
0.0591492
0.0367319
0.022482
0.0139037
0.0587036
0.0902318
0.111114
0.119411
0.118165
0.102694
0.0786778
0.054128
0.0348412
0.0218738
0.0136743
0.0546114
0.0805343
0.0993336
0.106572
0.105293
0.0922974
0.0723649
0.0514118
0.0341286
0.0218911
0.0138345
0.0513107
0.0742543
0.0921516
0.0987861
0.0976307
0.0866393
0.0694355
0.050658
0.0344258
0.0224278
0.0143027
0.0488515
0.0704089
0.0879595
0.0944797
0.093736
0.0843097
0.0688672
0.0512962
0.0354562
0.0233474
0.0149748
0.0469217
0.0682745
0.0857517
0.092413
0.0922005
0.0839648
0.0696828
0.052755
0.0369371
0.0245276
0.0158384
0.045372
0.0670806
0.0846248
0.0915777
0.0919466
0.084679
0.0712451
0.054684
0.0387129
0.0259018
0.0168269
0.0440211
0.0662343
0.0839485
0.091295
0.0922893
0.0859075
0.0732126
0.0569323
0.0407456
0.0274712
0.0179393
0.0427939
0.0657419
0.0835677
0.0912599
0.092871
0.0873432
0.0753926
0.0594278
0.0430431
0.0292712
0.0192418
0.0416674
0.0653437
0.0832429
0.0912801
0.0935519
0.0889481
0.0778548
0.0623123
0.0457577
0.0314156
0.0207709
0.0405288
0.0647178
0.0827574
0.0912314
0.0943143
0.0908428
0.0808437
0.0658946
0.0491782
0.0341249
0.0226773
0.0392896
0.0639159
0.082126
0.091121
0.0952537
0.0932569
0.0847099
0.0705808
0.0536849
0.0376918
0.0251597
0.037859
0.0627786
0.0812711
0.0910107
0.0966565
0.0966956
0.0900861
0.0770132
0.059831
0.0425202
0.0283967
0.0361119
0.0611587
0.0802486
0.091283
0.0992877
0.102163
0.097993
0.086076
0.0683336
0.0491723
0.0328345
0.033575
0.0580232
0.0795903
0.0931578
0.104632
0.111002
0.109447
0.0985265
0.0798125
0.0582219
0.0390066
0.0324815
0.0640362
0.083741
0.0986273
0.114935
0.124398
0.124057
0.113541
0.0938541
0.0698499
0.0474224
0.0315218
0.0764748
0.11111
0.143052
0.162641
0.163803
0.148036
0.126829
0.10625
0.0821652
0.0581266
0.171149
0.21381
0.255311
0.287033
0.298232
0.285105
0.246504
0.185455
0.12983
0.0951466
0.0698567
0.21451
0.405346
0.437768
0.426784
0.362768
0.270558
0.189959
0.134422
0.0965094
0.0707101
0.05352
0.138398
0.234786
0.328048
0.389725
0.388893
0.324055
0.238089
0.173838
0.12896
0.0967468
0.0746803
0.109421
0.148088
0.231723
0.323735
0.383673
0.371036
0.290457
0.217681
0.170209
0.132691
0.106364
0.112535
0.135546
0.191914
0.268505
0.34692
0.387741
0.341575
0.245964
0.202608
0.172284
0.144759
0.11927
0.144436
0.19013
0.249691
0.320442
0.383778
0.38865
0.305161
0.218218
0.184747
0.174408
0.126503
0.156973
0.198316
0.246683
0.305736
0.373823
0.416534
0.372287
0.26695
0.191067
0.178923
0.133718
0.170358
0.20958
0.24911
0.295591
0.358041
0.421081
0.422411
0.329592
0.223425
0.175901
0.140863
0.183972
0.222165
0.25377
0.287464
0.338074
0.406299
0.446766
0.38616
0.269514
0.186886
0.147974
0.198073
0.235897
0.260013
0.281599
0.317624
0.379454
0.44278
0.423646
0.315603
0.212008
0.155082
0.212801
0.250533
0.267245
0.278118
0.299837
0.348961
0.421147
0.440561
0.352301
0.239308
0.162419
0.228183
0.265664
0.275118
0.276972
0.286706
0.321912
0.39148
0.438887
0.375646
0.261779
0.170458
0.244191
0.281335
0.283919
0.277833
0.278557
0.302256
0.360776
0.42965
0.389106
0.278022
0.179427
0.261219
0.296923
0.293575
0.280063
0.274208
0.289585
0.331868
0.398058
0.400615
0.287347
0.188712
0.279812
0.314108
0.304357
0.282695
0.269512
0.277135
0.306905
0.352014
0.379305
0.295662
0.198119
0.300645
0.333939
0.317409
0.286465
0.264378
0.262868
0.280649
0.309569
0.331836
0.302917
0.208353
0.325037
0.358027
0.334411
0.29285
0.260291
0.24896
0.256188
0.273936
0.291529
0.288304
0.219769
0.354382
0.388705
0.358308
0.304819
0.259925
0.237954
0.235552
0.243688
0.25544
0.259192
0.232612
0.390607
0.430253
0.39553
0.329607
0.269172
0.233114
0.219221
0.218844
0.224304
0.226819
0.247005
0.437275
0.491455
0.459991
0.385299
0.307861
0.253125
0.224036
0.211975
0.207012
0.201592
0.251777
0.475616
0.550184
0.533823
0.45873
0.369563
0.301801
0.264611
0.250178
0.248005
0.248039
0.2346
0.469534
0.556307
0.558873
0.499107
0.411631
0.334417
0.285417
0.261988
0.255158
0.258697
0.220785
0.441653
0.532898
0.548408
0.504304
0.427482
0.350644
0.293464
0.256243
0.221281
0.172904
0.211759
0.403514
0.484966
0.501922
0.471097
0.412075
0.344353
0.288664
0.239547
0.179196
0.120762
0.256074
0.388735
0.4246
0.426306
0.402894
0.360847
0.311475
0.258372
0.192843
0.131085
0.090941
0.0855256
0.0885736
0.0855539
0.0853875
0.0856627
0.084234
0.0811127
0.0747199
0.0615732
0.124805
0.135964
0.139842
0.128759
0.118769
0.106198
0.0913939
0.0762243
0.0616851
0.113547
0.12546
0.133208
0.127046
0.11522
0.100229
0.089389
0.0808498
0.069678
0.0944378
0.101598
0.109742
0.109109
0.0991715
0.0873129
0.0785787
0.0719404
0.0660391
0.080496
0.0743117
0.0640792
0.0460167
0.0204525
0.0162519
0.0144815
0.0142468
0.0388125
0.113015
0.0959913
0.0777009
0.0603293
0.0463421
0.0256034
0.0254693
0.0350627
0.0464019
0.104417
0.0972659
0.088364
0.0737432
0.0556512
0.0331543
0.03192
0.0398327
0.0542333
0.0898859
0.0845874
0.0811546
0.0748695
0.0617445
0.0418422
0.0389245
0.0449838
0.0561258
0.00442786
0.00460053
0.00461581
0.00211609
0.0458712
0.00439121
0.011711
0.00453896
0.00438226
0.00423239
0.0457081
0.00454925
0.00371924
0.00329455
0.00448399
0.004302
0.00330794
0.00209921
0.00429097
0.00424913
0.0041201
0.00437546
0.00466563
0.0186584
0.00449472
0.00330606
0.00376973
0.0112534
0.0826744
0.0486608
0.00340023
0.00410222
0.00298199
0.00453451
0.00425863
0.00459166
0.0173719
0.00448972
0.00290676
0.00440139
0.00683339
0.00454353
0.00673218
0.00465837
0.0621113
0.0142152
0.00331937
0.0226511
0.00429454
0.00431008
0.0488758
0.00440743
0.00768646
0.00679248
0.00430756
0.00412676
0.00429382
0.00441423
0.0812499
0.00359665
0.00574279
0.00585879
0.0523715
0.00793918
0.00834331
0.00425971
0.052058
0.00426721
0.00460113
0.0042224
0.00329694
0.0042718
0.00311925
0.00447223
0.00449412
0.00425761
0.00482092
0.00459573
0.00935843
0.0737392
0.0452526
0.00636435
0.00449639
0.00462551
0.00437596
0.00313792
0.114255
0.00525392
0.00319803
0.0181775
0.00454251
0.00442515
0.00694899
0.00428536
0.0723856
0.0297321
0.00271903
0.0039891
0.00352515
0.00434111
0.0046806
0.0214255
0.00415688
0.00402722
0.00281985
0.00454878
0.00304818
0.00464628
0.00437032
0.00418984
0.00450751
0.00455826
0.00427542
0.00223807
0.00416268
0.00442429
0.00438544
0.00431125
0.00449554
0.00413659
0.00227333
0.0044468
0.00449141
0.00325741
0.0128525
0.00420527
0.0602366
0.00304553
0.00322489
0.00354855
0.00445909
0.00359492
0.0219711
0.00425931
0.00461358
0.00455405
0.00420331
0.00430677
0.0496283
0.00446556
0.00700225
0.00412841
0.0236233
0.00402396
0.00437498
0.00326539
0.00450534
0.00426776
0.00429461
0.00424443
0.00426551
0.00442318
0.00354037
0.00438693
0.00224779
0.00374122
0.00378043
0.00378232
0.00320799
0.004355
0.0036406
0.00427403
0.00426567
0.0044325
0.0532466
0.0058294
0.00364703
0.0046313
0.00409447
0.0079043
0.00307891
0.0030972
0.00423153
0.00406096
0.00409299
0.00396363
0.00316481
0.00357989
0.0627214
0.00392955
0.00426859
0.00436668
0.00465968
0.0141955
0.00449774
0.00382202
0.00425101
0.00429623
0.00458793
0.0125639
0.00419775
0.00341826
0.0042716
0.00625925
0.00460917
0.00439456
0.00434447
0.00358673
0.00363605
0.00467913
0.00315497
0.00430137
0.00406417
0.00350581
0.00462709
0.00533296
0.00427911
0.00321723
0.00433169
0.00433755
0.0212905
0.00439589
0.00401507
0.00421904
0.00449185
0.00411478
0.00450919
0.00376435
0.00426142
0.00317481
0.00289248
0.00218136
0.0027749
0.0041642
0.00321558
0.00441921
0.0100837
0.00560008
0.00396292
0.0228109
0.00384449
0.00425626
0.00426024
0.00447
0.00349414
0.0559327
0.0497106
0.00464604
0.00455527
0.00454354
0.00378946
0.00846848
0.00401831
0.00502716
0.0043241
0.00477306
0.00451694
0.00359855
0.0328415
0.0583533
0.00358606
0.0214845
0.00515543
0.00429597
0.00395941
0.00435717
0.00414919
0.00447489
0.00315234
0.00424816
0.00339336
0.00459969
0.00432507
0.00457169
0.00450585
0.00312099
0.0041321
0.00435225
0.0055941
0.00372434
0.0229847
0.00430244
0.00429473
0.00320697
0.00438431
0.00432436
0.00332073
0.00444465
0.0042854
0.00312078
0.00429787
0.00459507
0.0454553
0.0466114
0.00395964
0.00439042
0.0728705
0.00458377
0.00425232
0.00680379
0.00461382
0.0113109
0.00471871
0.00296406
0.00467845
0.00434164
0.00409495
0.00456165
0.00425694
0.00334849
0.00445152
0.00244889
0.00436602
0.0490321
0.00415988
0.00418281
0.00459608
0.0158003
0.00421647
0.00434705
0.00750905
0.00456179
0.00409744
0.00297825
0.0053135
0.00410716
0.00368078
0.00320265
0.00412849
0.00432557
0.00424901
0.0358243
0.00435634
0.00339318
0.00548224
0.00431054
0.00445423
0.00370606
0.00424017
0.029383
0.00430363
0.0527105
0.00437372
0.00465043
0.00354387
0.0442072
0.00340783
0.00458396
0.00447054
0.00396079
0.00408695
0.0204839
0.00429163
0.00572146
0.0215568
0.0159321
0.00433235
0.00437933
0.0146328
0.0644753
0.00889722
0.00394246
0.0037416
0.00417816
0.00394497
0.00468914
0.00292639
0.0039976
0.00465958
0.0365304
0.0038631
0.00333491
0.00451685
0.00451237
0.00430201
0.00335808
0.00308669
0.00325342
0.0105719
0.00458063
0.00443811
0.0121805
0.0401907
0.00319868
0.00387842
0.00460525
0.00391757
0.00424598
0.00437062
0.00424893
0.0380279
0.00437905
0.00317579
0.0044254
0.00340594
0.049929
0.00235608
0.0032007
0.00829091
0.00346212
0.00443265
0.00517476
0.00310353
0.00469965
0.0513919
0.0086462
0.00448043
0.00427695
0.00461884
0.005764
0.00312866
0.00441079
0.00466282
0.00693966
0.00282476
0.00955253
0.00785823
0.00724359
0.00430045
0.0357848
0.00444073
0.00427651
0.00377439
0.0037066
0.00409492
0.00407776
0.00422177
0.0046425
0.0031412
0.00478108
0.0305354
0.00321356
0.0125774
0.00414901
0.00398355
0.00417571
0.00442273
0.00481904
0.00513623
0.0102342
0.00448628
0.00316944
0.00343056
0.00410225
0.0047199
0.00313712
0.0257792
0.0486709
0.00326884
0.00468843
0.00396305
0.110296
0.00214532
0.00239428
0.00425258
0.00436551
0.00361826
0.00351257
0.00433737
0.00403376
0.00444422
0.00461257
0.00449739
0.00412821
0.00448884
0.0108626
0.00309176
0.00316282
0.00492097
0.00458969
0.00433304
0.0625045
0.00320193
0.00394988
0.00439704
0.00816789
0.00764527
0.00545505
0.00546768
0.00429934
0.00393424
0.00308489
0.00422826
0.00561119
0.0043152
0.00458099
0.00431291
0.00557831
0.00365333
0.00425443
0.00445268
0.00413646
0.016594
0.00446561
0.00464612
0.00331449
0.0310582
0.00404652
0.00330514
0.00433646
0.00344622
0.00439189
0.00430398
0.00441367
0.0033877
0.00327076
0.00426192
0.00339824
0.00400293
0.00434073
0.003748
0.00369549
0.00453276
0.00453497
0.0355472
0.00377889
0.00286421
0.00431021
0.0181255
0.00461872
0.0374275
0.00435329
0.00348769
0.00516421
0.00472529
0.0492801
0.00514453
0.00338693
0.00445406
0.00360679
0.00411801
0.00459336
0.00442271
0.00456749
0.00424601
0.0366258
0.00451234
0.00435001
0.0127009
0.0044445
0.00936049
0.00429521
0.0129264
0.00331597
0.00323398
0.00467787
0.00447545
0.00463426
0.00570485
0.00370323
0.00450167
0.00449191
0.00324871
0.00461451
0.00216035
0.00460372
0.0390393
0.00424304
0.00409572
0.00294654
0.00333756
0.0156019
0.039449
0.00417062
0.0041278
0.00428259
0.00460235
0.00312957
0.00338554
0.0042349
0.00354038
0.0217474
0.0249621
0.00449301
0.00430699
0.00459521
0.00362939
0.0521823
0.00422696
0.00453771
0.00437645
0.0467922
0.00427725
0.00307262
0.00328568
0.00876939
0.0357303
0.00443705
0.00451409
0.00446187
0.00525641
0.00432817
0.00436009
0.0031873
0.00409477
0.00556183
0.00738022
0.00463611
0.00467337
0.0713737
0.00440614
0.00354547
0.0032057
0.00545157
0.00327839
0.00406171
0.00358576
0.00419753
0.00444649
0.00448792
0.0297759
0.00304138
0.00389809
0.00425047
0.00450188
0.00654976
0.00424464
0.0043117
0.00434511
0.00426403
0.00319978
0.00311287
0.00541993
0.00567702
0.00402059
0.00518822
0.00428955
0.00993564
0.00424257
0.00445846
0.0343267
0.028528
0.00438387
0.00438507
0.00406638
0.00414569
0.00432761
0.00565094
0.00460534
0.00423707
0.00326222
0.00296522
0.00382177
0.00312206
0.00318363
0.00541074
0.0251353
0.00490845
0.00627647
0.00354199
0.00353796
0.00462882
0.00349185
0.00462058
0.00418666
0.00555782
0.0039436
0.00422399
0.00444463
0.00343909
0.0068809
0.0304409
0.00361348
0.00435988
0.00442807
0.00526751
0.0045512
0.00428619
0.00427544
0.00337547
0.00423524
0.00433021
0.00422434
0.00458823
0.00397153
0.00621859
0.0220387
0.00424504
0.00424711
0.00399065
0.00760916
0.00430698
0.015358
0.00427445
0.0056829
0.033786
0.0044349
0.0034419
0.00465854
0.00300425
0.00501797
0.00317606
0.029397
0.0036484
0.00427433
0.00463599
0.00372325
0.00321187
0.00406744
0.0594938
0.00437048
0.00408246
0.00463211
0.00374744
0.0042188
0.00315546
0.00455154
0.00441382
0.00439901
0.00378694
0.00461217
0.00456301
0.0033242
0.00437235
0.0054137
0.00321832
0.00408513
0.00369917
0.00453941
0.00292136
0.00409605
0.00373681
0.00357906
0.00728469
0.00300849
0.0120521
0.00446927
0.0033618
0.00449215
0.00430256
0.00696709
0.00525666
0.00349526
0.00328925
0.00427986
0.00423517
0.00412849
0.00416053
0.00458445
0.05918
0.00639864
0.03785
0.0041705
0.00397757
0.00546291
0.00325014
0.00446506
0.00344035
0.00379126
0.00285767
0.00452442
0.00334311
0.0210398
0.00454874
0.00923185
0.00350638
0.00443923
0.00549402
0.00438642
0.00429024
0.00422414
0.00336555
0.00431497
0.00320016
0.00456907
0.00301443
0.0042774
0.00297396
0.00376005
0.0245446
0.00428493
0.00428506
0.022935
0.0144786
0.00446453
0.00320055
0.00385369
0.00485981
0.00517087
0.0038728
0.00467537
0.00413946
0.00295771
0.00499385
0.00427896
0.00437041
0.00441782
0.00317996
0.00389911
0.00469001
0.00448619
0.00455068
0.0319729
0.0347663
0.00357533
0.00457022
0.00336981
0.00474417
0.00455488
0.00457874
0.00462465
0.00448387
0.00432303
0.00316505
0.00502409
0.0106425
0.00308515
0.00460266
0.00442535
0.00449793
0.00376869
0.0329319
0.00459479
0.004123
0.00352533
0.0166432
0.0206089
0.00463099
0.00391933
0.00356174
0.00442939
0.00446866
0.0119176
0.00421841
0.00455922
0.00443519
0.00916527
0.00400288
0.0039051
0.00455584
0.00409623
0.00552874
0.0036882
0.00455797
0.00309651
0.00552604
0.0045995
0.00390506
0.00463927
0.00427303
0.00207319
0.00302052
0.00453463
0.00460024
0.00422183
0.00436353
0.00432185
0.00458517
0.00258805
0.00344546
0.00888811
0.0139761
0.00664852
0.00454181
0.0521749
0.00466863
0.00427076
0.00445054
0.00448857
0.00441737
0.00442797
0.00300883
0.00517307
0.0037537
0.00441374
0.0028854
0.00442047
0.00468874
0.00431077
0.00438011
0.00449463
0.00449643
0.00455767
0.00427698
0.0512346
0.0043822
0.0042574
0.00520086
0.0175714
0.00425954
0.00450534
0.00489656
0.0457013
0.00425897
0.00450226
0.00298574
0.00313867
0.00464927
0.00454136
0.00429863
0.00400661
0.00836136
0.00459358
0.0125482
0.00297707
0.0252853
0.00300214
0.00457577
0.00326658
0.00564098
0.00444727
0.00445796
0.00431989
0.0046059
0.00398644
0.0102062
0.0041909
0.00568216
0.0490005
0.00491516
0.00394242
0.0055959
0.00466292
0.00455576
0.00314274
0.00280774
0.00329966
0.00440907
0.0299142
0.00428122
0.00328029
0.00430842
0.0031378
0.00312916
0.00323048
0.00354851
0.00420226
0.00452926
0.0468053
0.00404592
0.0645218
0.00444245
0.00304048
0.00435509
0.00421052
0.056592
0.00438026
0.00460274
0.0035261
0.00957955
0.00772765
0.00356587
0.0032951
0.00332606
0.00407837
0.0350403
0.00452095
0.00442774
0.0654052
0.00439568
0.00546492
0.00449097
0.0152522
0.00302214
0.00671532
0.00460338
0.00342686
0.00464601
0.00441771
0.00421192
0.00245233
0.00425401
0.00445751
0.00427917
0.00460722
0.00469411
0.00458174
0.00435679
0.0041786
0.00920531
0.00362084
0.00401661
0.00460936
0.00880388
0.00299351
0.00459548
0.00467699
0.00408759
0.00632618
0.0501703
0.00397496
0.00339458
0.00410161
0.00433973
0.00309688
0.00449343
0.00424716
0.0100986
0.0045539
0.0538229
0.00917547
0.0240729
0.00455355
0.00455176
0.0037783
0.043238
0.00335567
0.00313635
0.00467569
0.00307128
0.0193628
0.00456003
0.00402883
0.00313698
0.00392319
0.0321308
0.00368812
0.00445979
0.00432157
0.00411404
0.00428081
0.00665594
0.00291856
0.0128248
0.0518242
0.00459535
0.00303406
0.00390395
0.00513619
0.0151151
0.00437474
0.00438562
0.00406564
0.0031293
0.00454566
0.0046871
0.00467906
0.00362821
0.00415262
0.00460669
0.00371471
0.00665031
0.00320964
0.00452228
0.00853435
0.00412482
0.00407918
0.00399346
0.00455463
0.00430461
0.0044697
0.0134568
0.00432589
0.0038082
0.00400414
0.00347284
0.0045062
0.00417887
0.00450455
0.00437416
0.00338435
0.0120852
0.00734785
0.0555347
0.0106626
0.0337723
0.00418452
0.0044268
0.00248664
0.00462755
0.00324922
0.00513849
0.00428784
0.00550851
0.00388797
0.0298184
0.00422398
0.0031971
0.00455038
0.0490819
0.00469594
0.0335724
0.00410108
0.00458789
0.00489433
0.0105636
0.00423666
0.00552138
0.0055693
0.00439262
0.0202596
0.00558607
0.0237296
0.00353366
0.00235185
0.0149603
0.00471076
0.00460995
0.00372254
0.00433483
0.00344389
0.00331675
0.00317667
0.00390484
0.00319683
0.054555
0.00437074
0.00426953
0.00442609
0.00456894
0.00293586
0.0034062
0.00422209
0.00332184
0.0440745
0.00433763
0.0572837
0.00721816
0.00449914
0.00601023
0.00391363
0.00322168
0.00317931
0.0255661
0.00442243
0.00452886
0.0516505
0.00436797
0.00458562
0.00355928
0.00454363
0.00429923
0.031888
0.00454915
0.037723
0.00397919
0.00379569
0.00428594
0.0043039
0.00539601
0.00325741
0.0137957
0.00444722
0.00293298
0.00508327
0.00307054
0.00323617
0.00527969
0.00552826
0.0042398
0.00803585
0.0148911
0.00406443
0.0043142
0.00348378
0.00381098
0.00467186
0.00349533
0.0503229
0.0042603
0.0046897
0.00450914
0.00408311
0.00281613
0.00320787
0.00335192
0.0665185
0.00480729
0.0058776
0.00555637
0.00457242
0.00400633
0.00424776
0.00425182
0.0947974
0.0045005
0.0199704
0.0237776
0.0045605
0.00449462
0.00464804
0.0312434
0.0325094
0.0215998
0.0033533
0.00456382
0.00426659
0.0032758
0.0408227
0.00657911
0.00308073
0.00433411
0.00616269
0.00465216
0.00540215
0.00418228
0.0137276
0.0281527
0.00405231
0.00383434
0.00429514
0.00438258
0.0302514
0.00320004
0.00372782
0.00460072
0.00464348
0.00418568
0.0483297
0.00313917
0.00298787
0.00781184
0.00571534
0.0043759
0.0136679
0.00532973
0.00461979
0.00304902
0.00360663
0.00412033
0.0552182
0.00453609
0.00442157
0.00423099
0.00473444
0.00310259
0.00435514
0.00516984
0.00461299
0.00455733
0.00468819
0.0033018
0.00443122
0.00731511
0.00428692
0.00455907
0.0500719
0.0042536
0.00354473
0.00362349
0.00457646
0.0035202
0.00535384
0.00452005
0.00456196
0.00448058
0.0030436
0.00449706
0.00427062
0.00446408
0.00352856
0.00621605
0.00313629
0.00679154
0.00429283
0.00544195
0.00426212
0.00467565
0.00428227
0.00458646
0.00314983
0.00413918
0.00325865
0.00412946
0.00418908
0.00450046
0.00454394
0.0315196
0.00546818
0.0162032
0.00468828
0.00299558
0.0632758
0.00318828
0.00300223
0.00439359
0.00548782
0.00401829
0.00591712
0.00319134
0.00524158
0.00382546
0.00302605
0.00450468
0.0687652
0.00309143
0.00413768
0.00407926
0.00399792
0.00361198
0.00276193
0.00428891
0.00306578
0.0548404
0.0473752
0.00448635
0.00426779
0.00368449
0.0124698