/*--------------------------------*- C++ -*----------------------------------*\
| =========                 |                                                 |
| \\      /  F ield         | OpenFOAM: The Open Source CFD Toolbox           |
|  \\    /   O peration     | Version:  3.0.1                                 |
|   \\  /    A nd           | Web:      www.OpenFOAM.org                      |
|    \\/     M anipulation  |                                                 |
\*---------------------------------------------------------------------------*/
FoamFile
{
    version     2.0;
    format      ascii;
    class       volScalarField;
    location    "0.975997";
    object      nut;
}
// * * * * * * * * * * * * * * * * * * * * * * * * * * * * * * * * * * * * * //

dimensions      [0 2 -1 0 0 0 0];

internalField   nonuniform List<scalar> 
21246
(
5.6827e-05
0.000287674
0.000341485
0.000372268
0.00041027
0.000446257
0.000470225
0.000474512
0.000448027
0.000391896
0.000335154
3.55045e-05
0.000238423
0.000335238
0.000379354
0.000416948
0.000450066
0.000469806
0.00047191
0.000446924
0.000390863
0.000331801
3.07153e-05
0.000185258
0.000315443
0.000399345
0.000440576
0.000462085
0.000471697
0.000469407
0.000448716
0.000400281
0.000338646
3.07451e-05
0.000162218
0.000286085
0.000383533
0.000434256
0.00046075
0.000474434
0.000476269
0.000458616
0.000411303
0.000348082
3.19498e-05
0.000146568
0.000262831
0.000359077
0.000413907
0.000450291
0.000473888
0.000482674
0.000467555
0.000419722
0.000353746
3.32384e-05
0.000134179
0.000243495
0.000334783
0.000390627
0.000433625
0.00046577
0.000482314
0.000471849
0.000426174
0.000361284
3.458e-05
0.000124333
0.000227015
0.000311963
0.000367583
0.000414149
0.000452648
0.000476459
0.000471675
0.000429211
0.000365115
3.60053e-05
0.000116601
0.000213177
0.000292188
0.00034658
0.000394631
0.000437247
0.000466771
0.000467413
0.000429526
0.00037078
3.72895e-05
0.000110177
0.00020143
0.000275453
0.00032823
0.000376629
0.000421836
0.000455801
0.000461681
0.000428876
0.000373829
3.83299e-05
0.000104228
0.000190988
0.000261192
0.000312488
0.000360833
0.000407791
0.000445303
0.000455825
0.000427373
0.000374227
3.92642e-05
9.87263e-05
0.000181575
0.000248842
0.000298911
0.000347091
0.000395365
0.000435848
0.000450279
0.000425308
0.000375703
4.00264e-05
9.39079e-05
0.000173227
0.000238074
0.000287103
0.000335101
0.000384451
0.000427564
0.000445512
0.000423666
0.000376672
4.04975e-05
8.93771e-05
0.000165602
0.00022861
0.000276872
0.000324773
0.000375089
0.000420672
0.000441949
0.000422836
0.000377521
4.07646e-05
8.4752e-05
0.000158224
0.000220101
0.000267988
0.000315966
0.000367232
0.000415278
0.000439833
0.000422994
0.000379134
4.06659e-05
8.01116e-05
0.000151085
0.000212248
0.000260049
0.000308257
0.000360453
0.000411035
0.000439116
0.000424463
0.000381522
4.01367e-05
7.45987e-05
0.000142234
0.000202833
0.000250459
0.00029849
0.000351314
0.000405066
0.000438504
0.000427222
0.000385507
3.92392e-05
6.75833e-05
0.000129833
0.000189207
0.00023553
0.000280518
0.000329643
0.000382653
0.000422003
0.000421333
0.000387882
3.77645e-05
6.02225e-05
0.000115151
0.000171835
0.000215982
0.000255925
0.000297354
0.000343754
0.000385206
0.00039896
0.000383147
3.56859e-05
5.26347e-05
9.85694e-05
0.000150498
0.000191818
0.000226055
0.000257784
0.000292342
0.000327892
0.000351896
0.000359186
3.29647e-05
4.49237e-05
8.08421e-05
0.000125556
0.000163111
0.000192119
0.000214906
0.000236266
0.000258815
0.00028038
0.000301604
2.95164e-05
3.72392e-05
6.32216e-05
9.85554e-05
0.000130774
0.000155246
0.000171721
0.000183043
0.000192426
0.000202085
0.000216931
2.52879e-05
2.98468e-05
4.719e-05
7.22859e-05
9.73276e-05
0.000117197
0.000129887
0.00013614
0.000137991
0.000137795
0.000139322
2.01678e-05
2.25265e-05
3.31276e-05
4.89251e-05
6.59072e-05
8.05043e-05
9.04677e-05
9.52193e-05
9.53759e-05
9.22536e-05
8.78607e-05
1.4316e-05
2.12288e-05
2.75922e-05
3.58007e-05
4.44589e-05
5.21584e-05
5.78791e-05
6.10257e-05
6.14332e-05
5.9357e-05
5.54973e-05
5.43267e-05
0.000282981
0.00031115
0.000403215
0.00045212
0.000478884
0.000503525
0.000505847
0.000472159
0.000408334
0.000345857
4.07077e-05
0.000182216
0.000194101
0.000261435
0.000413371
0.000487125
0.000525115
0.000535445
0.000505973
0.000438244
0.000364801
3.84739e-05
0.00013524
0.000166168
0.000215714
0.000334163
0.000480061
0.00054811
0.000567947
0.000543049
0.000474723
0.000392439
3.91521e-05
0.000115552
0.000152804
0.000196287
0.000304065
0.000473818
0.000571093
0.000603557
0.000582897
0.000514935
0.000426682
4.00281e-05
0.000110513
0.000145726
0.000185395
0.00029166
0.000468087
0.000587645
0.000635747
0.000620469
0.00054986
0.000449941
4.03848e-05
0.000113255
0.000142612
0.000178346
0.00028402
0.000461457
0.000596188
0.000659992
0.000651831
0.00057781
0.000466619
4.0566e-05
0.000119341
0.000142131
0.000173522
0.000276501
0.0004536
0.000598246
0.000675402
0.00067437
0.000593985
0.000464302
4.09296e-05
0.000127408
0.00014377
0.00017062
0.000269458
0.000441835
0.000595571
0.00068332
0.00068829
0.000599986
0.000449101
4.13355e-05
0.000136316
0.000146932
0.000168949
0.000261873
0.000425911
0.000583201
0.000682827
0.000695237
0.000597787
0.000429558
4.17305e-05
0.000145321
0.00015118
0.000168028
0.000253064
0.000405907
0.000560754
0.000663786
0.000680325
0.000580831
0.000403931
4.19336e-05
0.000153054
0.000156088
0.000167308
0.000242078
0.000380942
0.000528649
0.000629412
0.00064519
0.000544518
0.000372912
4.19656e-05
0.000160202
0.000161614
0.000167015
0.000230384
0.0003534
0.000490013
0.000584686
0.000597138
0.000497651
0.000339876
4.17079e-05
0.000166765
0.000167423
0.000167063
0.000218253
0.000323923
0.00044632
0.000532663
0.000541616
0.000447697
0.000307899
4.10626e-05
0.000171239
0.000173019
0.000167359
0.000205781
0.000292982
0.000398808
0.000475482
0.000482382
0.000398945
0.000278251
3.99515e-05
0.000174106
0.000178224
0.000168149
0.000194213
0.000262817
0.000350499
0.000416362
0.000422662
0.000353167
0.000251871
3.83246e-05
0.000174735
0.000182649
0.000169421
0.000183923
0.000234477
0.000303401
0.000357547
0.000364149
0.000310252
0.00022804
3.61321e-05
0.00017249
0.000185712
0.00017111
0.000175356
0.000209106
0.000259561
0.000301317
0.000307995
0.000269205
0.000205543
3.33023e-05
0.000167267
0.000186778
0.000173018
0.000168998
0.000187904
0.000221136
0.000250219
0.000255646
0.000229381
0.000182701
2.97931e-05
0.000158718
0.000184932
0.000174563
0.000165093
0.000171847
0.000189951
0.000206695
0.000208985
0.000191252
0.000158553
2.57749e-05
0.000147969
0.000179574
0.000175034
0.000163742
0.00016178
0.000167508
0.000172969
0.000170485
0.000156861
0.000133969
2.08532e-05
0.000129832
0.000168631
0.000172505
0.000164037
0.000157735
0.00015447
0.000150502
0.000142493
0.000129338
0.00011159
1.92306e-05
0.000121495
0.000159167
0.000165052
0.000158702
0.000150419
0.00014173
0.000131953
0.000120417
0.000105499
8.73342e-05
1.35726e-05
8.86564e-05
0.000113917
0.000100839
8.83001e-05
7.70796e-05
6.69459e-05
5.74664e-05
4.84144e-05
4.05995e-05
3.40967e-05
9.87131e-06
1.12603e-05
1.15592e-05
1.24301e-05
1.37751e-05
1.54252e-05
1.72022e-05
1.88777e-05
2.02142e-05
2.10136e-05
2.11525e-05
3.65244e-05
0.000137401
0.000140057
0.000154662
0.000150204
0.000130065
0.00010315
8.42721e-05
7.23394e-05
6.34238e-05
5.56094e-05
3.02628e-05
0.00010917
9.92457e-05
0.000135849
0.0001559
0.000138302
0.000106362
8.26871e-05
6.84572e-05
5.83065e-05
4.95613e-05
2.93932e-05
8.74204e-05
8.87561e-05
0.000107533
0.000141908
0.000146177
0.000112954
8.40801e-05
6.70333e-05
5.56542e-05
4.65422e-05
3.0334e-05
7.51558e-05
8.43116e-05
9.6801e-05
0.000125709
0.000151113
0.000120846
8.74883e-05
6.74848e-05
5.48587e-05
4.54131e-05
3.13059e-05
6.97651e-05
8.13988e-05
9.05843e-05
0.000115185
0.000149085
0.000128708
9.22361e-05
6.93431e-05
5.54711e-05
4.58319e-05
3.1646e-05
6.78667e-05
7.9254e-05
8.58699e-05
0.000105696
0.000139124
0.000134574
9.79622e-05
7.22563e-05
5.70657e-05
4.70526e-05
3.14929e-05
6.81567e-05
7.80731e-05
8.24931e-05
9.73212e-05
0.000125403
0.00013348
0.000104442
7.60212e-05
5.93824e-05
4.8804e-05
3.10032e-05
7.03563e-05
7.82075e-05
8.0598e-05
9.09257e-05
0.000112553
0.000126435
0.000108982
8.10326e-05
6.24762e-05
5.10683e-05
3.01444e-05
7.35912e-05
7.96655e-05
7.99439e-05
8.61764e-05
0.000101648
0.00011613
0.000109664
8.61988e-05
6.63574e-05
5.39226e-05
2.8961e-05
7.73439e-05
8.23708e-05
8.03712e-05
8.2661e-05
9.24407e-05
0.000104429
0.000105556
9.02047e-05
7.0824e-05
5.7276e-05
2.76609e-05
8.19048e-05
8.65655e-05
8.21357e-05
8.0656e-05
8.54801e-05
9.36815e-05
9.78668e-05
9.13059e-05
7.53796e-05
6.11383e-05
2.64118e-05
8.79256e-05
9.26552e-05
8.55326e-05
8.03883e-05
8.09852e-05
8.53532e-05
8.92512e-05
8.87446e-05
7.89451e-05
6.54136e-05
2.53644e-05
9.51666e-05
0.00010082
9.07974e-05
8.18223e-05
7.85166e-05
7.93028e-05
8.13072e-05
8.32026e-05
8.00521e-05
6.96405e-05
2.46668e-05
0.000103094
0.000111152
9.83507e-05
8.51841e-05
7.79123e-05
7.52741e-05
7.47955e-05
7.62911e-05
7.76601e-05
7.26863e-05
2.44414e-05
0.000113089
0.000124332
0.000108819
9.09437e-05
7.9418e-05
7.33986e-05
7.03192e-05
6.99441e-05
7.24361e-05
7.29779e-05
2.47003e-05
0.000125121
0.000140735
0.0001231
9.98613e-05
8.33899e-05
7.36863e-05
6.79031e-05
6.51492e-05
6.6245e-05
6.96099e-05
2.50211e-05
0.000137272
0.000159876
0.000142248
0.000113301
9.0758e-05
7.65722e-05
6.77016e-05
6.23628e-05
6.09021e-05
6.36686e-05
2.46583e-05
0.000148366
0.00018041
0.000166734
0.000132999
0.000103156
8.31864e-05
7.03977e-05
6.21146e-05
5.77097e-05
5.7733e-05
2.34794e-05
0.000155809
0.000199209
0.00019497
0.000160483
0.000123153
9.57592e-05
7.75762e-05
6.54467e-05
5.77031e-05
5.41817e-05
2.14959e-05
0.000157363
0.000212457
0.000222332
0.000195199
0.000153895
0.000118336
9.27587e-05
7.50052e-05
6.28337e-05
5.51819e-05
1.88081e-05
0.000150126
0.000217089
0.000243399
0.000233105
0.000197451
0.000156995
0.000122889
9.69913e-05
7.8091e-05
6.47783e-05
1.63487e-05
0.00013675
0.000211779
0.000253781
0.000263674
0.000246314
0.000212671
0.000175259
0.000141444
0.000113877
9.24471e-05
1.24385e-05
0.000106612
0.000156463
0.000200014
0.00022638
0.00023961
0.000237622
0.000221567
0.00019717
0.000170901
0.000145731
9.95017e-06
3.99708e-05
5.75329e-05
8.09016e-05
0.000106374
0.000133164
0.000158276
0.000174777
0.000181843
0.000181066
0.000173564
3.08355e-05
0.000127927
0.000138963
0.000145512
0.000145302
0.000129267
0.000106946
9.02879e-05
7.91797e-05
7.06118e-05
6.27943e-05
2.05148e-05
0.000104128
0.000138595
0.000155616
0.000156608
0.000142489
0.000120322
0.000102382
9.06294e-05
8.21124e-05
7.46961e-05
2.03774e-05
9.01936e-05
0.000133397
0.000174573
0.000179475
0.000164764
0.000139518
0.00011759
0.000103859
9.49958e-05
8.81252e-05
2.24869e-05
8.25797e-05
0.000127215
0.000183803
0.000199641
0.000190367
0.000164889
0.000138053
0.000119711
0.000108433
0.000100699
2.52169e-05
7.65539e-05
0.000124593
0.000184798
0.00020416
0.000199545
0.000177167
0.000151812
0.000133495
0.00012215
0.000114504
2.78616e-05
7.21037e-05
0.000122902
0.000182148
0.000204295
0.000204916
0.000185859
0.000162022
0.000144562
0.000134257
0.000128309
3.02957e-05
6.88775e-05
0.000121384
0.00017839
0.000202623
0.000207614
0.000191818
0.0001701
0.000153683
0.000144232
0.000139378
3.25708e-05
6.65488e-05
0.000119958
0.000174752
0.000200719
0.000209244
0.000196223
0.000176472
0.000160967
0.000152086
0.00014773
3.45189e-05
6.48042e-05
0.000118556
0.000171615
0.000199409
0.000210626
0.000200143
0.00018213
0.000167481
0.00015939
0.000156402
3.61221e-05
6.33154e-05
0.00011727
0.000169062
0.000198913
0.000212196
0.000204032
0.00018739
0.000173332
0.000165763
0.000163447
3.73643e-05
6.18597e-05
0.000115832
0.000167099
0.000198941
0.000214229
0.000208166
0.000192485
0.000178626
0.000171171
0.000168923
3.8341e-05
6.03939e-05
0.000114228
0.000165489
0.000199278
0.000216695
0.000212647
0.000197616
0.00018356
0.000175891
0.000173769
3.89814e-05
5.8757e-05
0.000112323
0.000163965
0.000199763
0.000219573
0.000217626
0.000203043
0.000188368
0.000180072
0.000177799
3.92146e-05
5.55648e-05
0.000108159
0.000160577
0.000198779
0.000221752
0.000222863
0.000209086
0.000193408
0.000183995
0.000180933
3.89592e-05
5.17616e-05
0.000101282
0.0001534
0.000192933
0.000218656
0.000224298
0.000213985
0.000198877
0.000188421
0.000184144
3.81826e-05
4.75233e-05
9.18314e-05
0.000142244
0.000182192
0.000209778
0.000220413
0.000215939
0.000203979
0.000193555
0.000188122
3.68782e-05
4.29986e-05
8.03117e-05
0.000127033
0.000166423
0.000194909
0.000209859
0.000212217
0.000206313
0.000198497
0.000193102
3.49561e-05
3.85045e-05
6.79305e-05
0.000108645
0.000145982
0.000174385
0.000192183
0.000200358
0.000201773
0.000199824
0.000197506
3.23702e-05
3.41094e-05
5.57833e-05
8.85903e-05
0.000121766
0.000148801
0.000167801
0.000179558
0.000186643
0.000191467
0.000195485
2.90817e-05
2.97302e-05
4.45366e-05
6.86303e-05
9.54478e-05
0.000119311
0.000137779
0.000150889
0.000160571
0.000169208
0.000178538
2.50502e-05
2.52056e-05
3.45461e-05
5.04261e-05
6.95568e-05
8.82402e-05
0.00010418
0.000116698
0.00012659
0.000135511
0.000145315
2.02784e-05
2.03533e-05
2.57641e-05
3.4967e-05
4.66061e-05
5.89106e-05
7.04476e-05
8.04413e-05
8.88732e-05
9.63668e-05
0.000104002
1.47952e-05
1.46482e-05
1.73681e-05
2.18041e-05
2.74938e-05
3.38334e-05
4.02437e-05
4.6316e-05
5.18671e-05
5.69684e-05
6.19773e-05
8.92998e-06
9.48143e-06
1.16072e-05
1.43155e-05
1.74886e-05
2.09548e-05
2.4618e-05
2.99324e-05
3.72267e-05
4.69463e-05
5.92766e-05
2.41798e-05
0.000116119
0.000181757
0.000246512
0.000286504
0.00030887
0.000339868
0.000399892
0.000480472
0.000561696
0.000603846
1.77561e-05
7.65765e-05
0.000134937
0.000197883
0.000248227
0.000282305
0.000322345
0.000386435
0.000449919
0.000505447
0.000523125
1.46979e-05
6.07192e-05
0.000112172
0.000168299
0.000219507
0.000259628
0.000299407
0.000356956
0.000421749
0.000459732
0.000455347
1.33061e-05
5.76996e-05
0.000102939
0.00015283
0.000201544
0.000243452
0.000282843
0.000332176
0.000391453
0.000426253
0.000413349
1.31033e-05
5.75912e-05
9.99434e-05
0.000145912
0.000191574
0.000233188
0.000272384
0.000316547
0.000367048
0.000399194
0.000387756
1.31868e-05
5.77723e-05
9.95897e-05
0.000143075
0.000187229
0.000228212
0.000267507
0.000308671
0.000351125
0.000378136
0.000369913
1.32664e-05
5.77853e-05
0.000101063
0.000143511
0.00018777
0.000228828
0.000268406
0.000306932
0.000341895
0.000363055
0.000356852
1.3454e-05
5.8186e-05
0.000103814
0.000147478
0.000193001
0.000234772
0.000273968
0.000308635
0.000336277
0.000352346
0.000347521
1.36138e-05
5.84043e-05
0.000107361
0.000154181
0.000201028
0.000243316
0.000280661
0.000310333
0.000331872
0.000344879
0.000342131
1.36967e-05
5.87622e-05
0.000111292
0.000160758
0.000208581
0.00025063
0.000285206
0.000310451
0.000328227
0.000340345
0.00034033
1.37928e-05
5.88428e-05
0.000114155
0.000165604
0.000214056
0.000255441
0.000287695
0.000310252
0.000326369
0.000338837
0.000341374
1.38716e-05
5.94323e-05
0.000116723
0.000169498
0.000218275
0.000259116
0.000290091
0.000311478
0.000327118
0.000340375
0.00034536
1.38692e-05
6.01444e-05
0.000118917
0.000172739
0.000221893
0.000262651
0.000293277
0.000314427
0.000330112
0.00034415
0.00035111
1.37759e-05
6.02862e-05
0.00012015
0.000175036
0.000224865
0.000266089
0.000297074
0.000318543
0.000334493
0.000349151
0.000357789
1.35611e-05
6.05005e-05
0.000121064
0.000176834
0.000227484
0.000269535
0.000301347
0.000323512
0.000339832
0.000354857
0.000364941
1.32116e-05
6.03263e-05
0.000121156
0.000177637
0.00022923
0.000272438
0.000305506
0.000328702
0.000345396
0.000360356
0.000371426
1.27284e-05
5.90615e-05
0.0001195
0.000176491
0.000229184
0.000273962
0.000308789
0.000333351
0.000350312
0.000364594
0.000376273
1.20431e-05
5.6967e-05
0.000116162
0.000173129
0.000226882
0.000273555
0.000310617
0.000336832
0.000353775
0.000366402
0.000377455
1.1143e-05
5.37827e-05
0.00011071
0.000166911
0.0002215
0.000270241
0.000309862
0.000337874
0.000354356
0.000363961
0.00037194
1.001e-05
4.94194e-05
0.000102873
0.000157204
0.000211721
0.000261875
0.00030379
0.000333607
0.000349534
0.000355246
0.000357896
8.58141e-06
4.31119e-05
9.27022e-05
0.000142489
0.000192298
0.000240045
0.000283269
0.000316108
0.000333713
0.000337344
0.000334301
7.19963e-06
4.48772e-05
7.84414e-05
0.000101138
0.000127255
0.000168159
0.000220638
0.000263764
0.000292455
0.000303408
0.000300657
5.58688e-06
1.50386e-05
2.89091e-05
4.96396e-05
7.35931e-05
9.50166e-05
0.000115689
0.00015251
0.000199634
0.000235563
0.000251173
9.01289e-06
2.35778e-05
5.07095e-05
9.02739e-05
0.000131361
0.000159108
0.000161383
0.000140384
0.000130348
0.000148353
0.000176739
2.27752e-05
0.000152533
0.000237529
0.000286581
0.000301984
0.000304609
0.00033308
0.000405974
0.000510887
0.000624794
0.000694885
1.3706e-05
9.77694e-05
0.000195713
0.000267313
0.000301278
0.000305237
0.00032249
0.000399019
0.000528146
0.000683996
0.000801908
1.19405e-05
5.89206e-05
0.000148689
0.000237847
0.000296791
0.000310292
0.000303642
0.000360703
0.000508765
0.000715385
0.000909694
1.32647e-05
5.12055e-05
0.000127405
0.000220085
0.000298872
0.000334028
0.000305841
0.000279282
0.000394735
0.000649976
0.000951876
1.53014e-05
5.74569e-05
0.000132661
0.000224096
0.000312392
0.000371382
0.000367735
0.000301385
0.000275391
0.000430172
0.000796274
1.74506e-05
6.76524e-05
0.000148047
0.000240192
0.000332626
0.000408588
0.000435855
0.000382782
0.000300025
0.000295938
0.00055914
1.95809e-05
7.97994e-05
0.000167535
0.000260704
0.000353166
0.000438005
0.000490795
0.000466842
0.000372293
0.000291133
0.000363514
2.17066e-05
9.2762e-05
0.000188437
0.000282054
0.000370888
0.000456204
0.000525447
0.000539447
0.000456658
0.000339847
0.000297726
2.36741e-05
0.000106581
0.000210126
0.000303339
0.00038587
0.000464041
0.000537689
0.000580891
0.00052967
0.000405275
0.000306376
2.54311e-05
0.000120995
0.000231498
0.000323417
0.00039835
0.000464441
0.000531767
0.000591286
0.000579196
0.000467616
0.000340072
2.69446e-05
0.000134604
0.000251058
0.000341395
0.000408443
0.000460775
0.000515503
0.000580115
0.000603277
0.000516134
0.000377967
2.83068e-05
0.000146636
0.000269316
0.000356256
0.000415413
0.000455084
0.000495953
0.000555842
0.000606852
0.000548263
0.000410838
2.94448e-05
0.000157514
0.000283897
0.000367785
0.000419128
0.000448398
0.000477086
0.000523175
0.000580399
0.000566765
0.000433666
3.02955e-05
0.00016783
0.000296917
0.000376957
0.000420124
0.000439448
0.000457463
0.000490328
0.000533103
0.000547409
0.000450507
3.07805e-05
0.000177178
0.000308438
0.000384389
0.000419286
0.000428647
0.000435637
0.000455298
0.000483468
0.000498915
0.00045729
3.08946e-05
0.00018606
0.000319442
0.000391351
0.000418097
0.000417698
0.000413702
0.000421059
0.00043746
0.000450743
0.000438831
3.06137e-05
0.000194672
0.000330795
0.000399413
0.000418669
0.000409264
0.00039481
0.000390543
0.000395306
0.00040283
0.000399561
2.98354e-05
0.000203173
0.000343802
0.000411302
0.000424853
0.000407878
0.000383834
0.000368574
0.000364394
0.000365068
0.000360862
2.84586e-05
0.000212648
0.000360659
0.000430665
0.000440993
0.000418105
0.000387776
0.000366169
0.000355386
0.00034974
0.000342416
2.58313e-05
0.000212416
0.000359813
0.000433729
0.000448778
0.000425499
0.000390159
0.000363263
0.000350517
0.000347856
0.000348297
2.14798e-05
0.000193344
0.000336931
0.000420077
0.000446459
0.000428
0.000387748
0.000349533
0.000323846
0.0003093
0.000302647
1.68528e-05
0.000159885
0.000292702
0.000384321
0.000424418
0.000417975
0.000381523
0.000337037
0.000296241
0.000253253
0.000204912
1.20114e-05
0.000109831
0.000233171
0.000327135
0.000378394
0.000386282
0.000359021
0.00031544
0.000265296
0.000206334
0.000156874
7.7986e-06
9.04805e-05
0.000174877
0.000257804
0.000304957
0.000315958
0.000297434
0.000258919
0.000204026
0.000159876
0.00014312
1.5288e-05
1.55002e-05
1.5195e-05
1.51613e-05
1.51718e-05
1.50454e-05
1.47805e-05
1.42285e-05
1.2982e-05
9.92374e-05
0.000115761
0.000128406
0.000118392
0.000102917
8.39719e-05
6.04245e-05
3.96865e-05
2.72293e-05
0.000174639
0.00020419
0.000232675
0.000225532
0.000197777
0.000161133
0.000120148
7.87023e-05
5.11029e-05
0.000241795
0.000281027
0.000323474
0.000321716
0.000283604
0.000232161
0.000171675
0.000110993
7.11995e-05
1.48113e-05
1.41529e-05
1.30782e-05
1.10087e-05
7.34919e-06
6.5771e-06
6.21741e-06
6.23775e-06
1.03373e-05
8.28441e-05
5.92522e-05
3.89803e-05
2.63551e-05
2.39176e-05
2.6553e-05
2.59507e-05
2.01081e-05
2.04718e-05
0.0001462
0.000110713
7.4393e-05
4.74438e-05
3.64523e-05
3.93544e-05
3.82459e-05
3.01323e-05
3.49945e-05
0.000201055
0.000151169
0.000101241
6.54194e-05
4.90797e-05
5.2915e-05
5.34864e-05
4.31101e-05
4.93222e-05
0.000195806
0.000229697
0.000229747
7.37993e-05
0.000415066
0.000229385
9.25179e-05
0.000229447
0.000229388
0.000233485
0.000410976
0.000229484
0.000120374
0.000188278
0.000123909
0.000228712
0.000159709
7.39356e-05
0.000228702
0.000228634
0.000229741
2.88621e-05
0.000229961
0.000258803
0.000229355
0.000191921
0.000128152
9.10227e-05
0.000354612
0.000556798
0.000141657
0.000235825
0.000114091
0.000229436
0.0002409
0.000229657
0.000245353
0.000229341
9.62519e-05
0.000229411
1.76621e-05
0.000229469
0.000106511
0.000229934
0.000449985
5.44992e-05
5.21803e-05
0.000105515
0.000239845
0.000229116
0.000554852
0.000229416
0.000243301
0.000106402
0.000229077
0.000229528
2.88578e-05
0.000229438
0.000343645
9.09878e-05
2.23801e-05
0.000197963
0.000482906
0.000162281
2.45275e-05
0.000228603
0.000658432
0.000230456
0.000229695
0.000232934
0.000189849
0.000232497
6.04438e-05
0.000239568
0.000137269
0.000231174
2.46754e-05
0.000229676
0.000138852
0.000468226
0.000676135
0.000138483
0.000229294
0.000229786
0.000247502
6.12079e-05
0.000344605
0.000147968
4.59333e-05
0.000277124
0.000229494
0.000229454
1.92175e-05
0.000231754
0.000461468
0.000147291
9.8718e-05
0.000236119
4.43508e-05
0.000234841
0.000251369
0.000104035
0.000229784
0.000236614
4.89623e-05
0.000229489
0.000181609
0.000229865
0.000109956
0.000236027
0.000229408
0.000229515
0.000230313
6.97265e-05
7.60594e-05
0.000229028
0.000229351
0.000228824
0.000229346
0.000229064
6.72795e-05
0.000238895
0.000247727
0.000188618
4.86835e-05
0.000201581
0.000911218
0.000176893
0.000140822
0.000117645
0.000229407
9.04421e-05
0.000103158
0.00023152
0.000229746
0.00023021
2.29419e-05
0.000105327
0.000548503
0.000244662
0.000110012
0.000231526
0.000237347
0.000167843
0.000229304
3.8134e-05
0.000108536
0.000230167
0.000234963
0.000229179
0.000229039
0.000229307
4.03727e-05
0.000236845
7.45707e-05
6.02449e-05
6.81187e-05
3.03801e-05
0.00017027
0.000228756
0.000217223
4.9207e-05
0.00023202
0.0002291
0.000675259
0.000116551
5.75836e-05
0.000247933
0.000237763
2.38021e-05
0.000146059
0.000159761
0.000236757
0.000229634
0.000235096
0.000220346
0.000154917
3.9349e-05
0.000444873
0.000199756
0.000229824
2.56605e-05
0.00022994
0.000153186
0.000229305
0.000106196
0.00022945
0.000228784
0.00022965
0.000174444
0.000109001
0.000197678
0.000228539
1.6868e-05
0.000229726
0.000228918
0.00022932
4.46107e-05
0.000114671
0.00023
3.379e-05
0.000229214
0.000109877
0.000139731
0.000229801
0.000151393
0.0002313
0.00014088
0.000229195
0.00022869
0.000322695
0.000229004
0.000175418
0.000238798
0.000229349
0.000137373
0.000229377
5.07203e-05
0.000229256
8.03667e-05
7.32722e-05
6.57522e-05
9.933e-05
7.52882e-05
0.000191735
0.000229451
0.000117559
0.00011627
0.000110324
0.000309551
3.23237e-05
0.000228519
0.000229146
0.000239842
3.91212e-05
0.000251548
0.000676649
0.000229883
0.000229518
0.000229486
5.11878e-05
0.000193853
0.000236732
1.57114e-05
0.000234087
5.07017e-05
0.000229381
0.000140821
0.000184725
0.000858492
0.000140848
0.000323367
0.000243074
0.000228657
0.000234
0.000229343
0.000229541
0.000229276
4.5839e-05
0.000229645
0.000123409
0.000190547
0.000228173
0.000229577
0.000229402
5.15584e-05
0.000231996
0.000235364
0.000159545
0.000179732
0.000212949
0.000228947
0.000229231
5.17701e-05
0.00022901
0.000228853
0.000184374
0.000229161
0.000238489
4.85662e-05
0.000233663
0.000229675
0.000676326
0.000639052
0.000233604
0.000228965
0.00029106
0.000229624
0.000238098
0.000106404
0.000229749
9.88945e-05
0.000251559
8.18724e-05
0.000230006
0.000229241
0.000237259
0.000229545
0.000240467
0.000187283
0.000229355
5.98219e-05
0.000242622
0.000554152
0.000229468
0.00023607
0.00022967
0.000278263
2.52064e-05
0.000229046
5.68727e-05
0.000229534
0.000234085
0.000117688
2.8668e-05
0.000231562
0.000170873
6.36322e-05
0.000228707
0.00023401
0.000229314
0.000556189
0.000228916
0.000192545
0.000113731
0.000237361
0.000229237
0.000207038
0.000228223
0.00054422
0.000233328
0.000479818
2.21391e-05
0.000229917
9.84398e-05
0.000249739
6.65762e-05
0.000229626
0.00022922
0.00023874
4.79115e-05
0.000308181
0.000229234
0.000110416
0.000207918
0.000279432
8.49915e-05
0.000229019
0.00020714
0.000953651
6.18594e-05
0.000235308
0.000179803
0.000229478
0.000106147
0.000230036
7.10217e-05
0.000206725
0.000229934
0.000636617
0.000136118
0.000186166
0.000229406
0.000229347
0.000229424
5.16674e-05
0.000168364
5.85231e-05
7.01851e-05
0.000249775
0.000229152
0.000118774
0.000227488
0.000192996
0.000112969
0.00022972
0.000152583
0.000240824
0.000228925
0.00022908
0.000550424
0.000228863
3.68112e-05
0.000229429
0.00019773
0.00068731
5.93932e-05
0.000191393
0.000193054
4.68915e-05
0.000229309
4.52768e-05
0.000185463
0.000248383
0.000693212
2.45172e-05
0.00022933
0.000228886
0.000229785
8.39208e-05
4.58384e-05
0.000228974
0.000229972
0.000108411
9.56462e-05
2.26071e-05
0.00010374
0.000142831
0.000229203
0.000558249
0.00024123
0.000228674
0.000115508
0.000117029
4.94888e-05
0.000233949
0.00010901
0.000245283
0.000182631
4.94175e-05
0.000302237
0.000150325
9.11842e-05
0.000110457
0.000227313
0.00023531
0.000237879
7.43278e-05
0.000187272
3.27003e-05
0.000229291
3.70027e-05
0.000207743
0.000228568
0.000225154
6.35742e-05
0.000304575
0.000519689
0.000188061
0.000230036
0.000236701
0.000333252
8.08839e-05
5.94207e-05
0.000233756
7.0918e-05
9.96664e-05
2.6046e-05
0.000228713
4.10268e-05
0.000229311
0.000229733
0.000229331
4.96729e-05
9.04456e-05
6.81906e-05
0.000148111
3.18841e-05
8.17226e-05
0.000229643
0.000228713
0.00093383
0.000182312
0.000234027
0.000239287
4.14163e-05
4.53187e-05
2.96836e-05
2.93526e-05
0.000233018
0.000211884
5.21527e-05
0.000229508
2.27758e-05
0.000236466
0.000229608
0.000228957
8.05635e-05
3.59363e-05
0.000229269
0.000229175
0.000229794
0.000260787
2.50271e-05
0.000229877
4.06184e-05
0.000358998
0.000156528
6.19096e-05
0.000228692
3.91662e-05
0.000228916
0.000235835
0.000229421
0.000123344
0.000150145
0.000228567
0.000193883
0.000169055
0.000234827
0.000223231
0.000206914
0.000229418
0.000229449
0.000218831
6.69602e-05
5.65817e-05
0.000233658
8.97412e-05
0.000229757
0.000457313
0.000104893
4.46579e-05
0.000109995
0.000250839
0.000661733
7.30293e-05
0.000193659
0.000229201
0.000184433
0.000228796
0.000229667
0.000229093
0.00022957
0.000234732
0.000525574
0.000229383
0.000228739
0.000165131
0.00022937
3.85097e-05
0.000243904
0.000236524
0.00017668
4.75318e-05
0.000229995
0.000229263
0.000229853
1.62852e-05
3.58621e-05
0.00022934
0.000229345
0.000188355
0.000229754
7.57947e-05
0.000229702
0.000701629
0.000237188
3.22487e-05
9.17824e-05
0.000131421
6.18217e-05
0.000486704
0.000229531
0.000232098
0.000234665
0.000229704
6.3683e-05
2.60083e-05
0.000223804
0.000126814
0.000129563
0.000114081
0.000229354
0.00022939
0.000229665
9.93237e-05
0.000718268
8.41636e-05
0.000229449
0.000229259
0.000644955
0.000230357
9.72256e-05
0.000135034
0.000166548
0.000317277
0.000229329
8.86905e-05
0.000229215
7.32739e-05
0.000229309
0.000135754
0.000150452
0.00023478
3.01445e-05
0.000135614
0.000229858
0.000229987
0.000450369
0.000228973
0.000183698
9.91995e-05
7.88594e-05
9.70945e-05
4.80386e-05
0.000151697
0.000230898
0.000229423
0.000229285
0.000149019
5.22727e-05
0.000113017
0.000228594
0.00022938
8.91811e-05
0.000229788
0.000233262
0.000237969
0.000232905
0.000109387
5.54843e-05
7.9065e-05
0.000159975
0.000233705
0.000235373
0.000228655
0.000151511
0.000230987
0.000229339
0.000189216
0.00041138
0.000228965
0.000228878
2.24918e-05
0.000229856
0.000228686
0.000147684
0.00022971
0.000235354
9.3689e-05
8.55836e-05
0.000158632
0.000179349
0.000159709
6.8837e-05
0.000407075
7.37204e-05
0.000109105
0.000180344
5.33384e-05
7.1163e-05
0.000129174
0.00022976
0.000230567
0.000112814
0.000230289
0.000229623
0.00024402
0.000207778
0.000107
0.000174424
0.000193137
0.000242442
0.000229202
0.000201849
0.000229535
0.000228867
0.000236726
7.77644e-05
0.00023142
0.000234673
0.00023152
0.000229649
0.000117584
6.22966e-05
0.0002968
0.000231309
0.000230486
0.000189829
0.000123042
0.000233178
0.000167291
0.000230927
0.000158271
0.00054606
0.000229281
6.56637e-05
0.000229913
0.000118741
0.000129653
0.00010635
0.000156508
0.000215416
0.000246594
0.00022982
0.000100167
0.000182511
4.65806e-05
0.000891417
0.000228981
0.000233805
0.000229806
0.000161096
0.000230098
4.20533e-05
0.000229494
0.000229464
0.000228966
0.000127947
6.58062e-05
0.000229563
0.000129815
0.000229205
0.000114899
0.000170406
0.00023129
0.000108563
1.63208e-05
8.09557e-05
0.000237018
0.000196206
0.000136404
0.000121292
0.000127217
9.16999e-05
0.000229241
0.000148232
0.0002294
0.000233194
5.23522e-05
0.000178783
3.85494e-05
0.000188246
0.00023016
0.000235532
0.000229083
5.6057e-05
0.00022963
0.000962298
9.74798e-05
0.000679638
0.000234492
0.000138789
0.000107676
9.6257e-05
0.000239974
0.000120018
3.78154e-05
6.03581e-05
0.00022944
0.000186126
0.000133951
0.000229513
4.1832e-05
0.000119422
0.00023841
0.000155833
0.0002293
0.000234754
0.000235183
0.000131044
0.000234464
0.000192325
0.000229576
0.0001188
0.000233559
8.54917e-05
6.64648e-05
0.00035768
0.000110307
0.00022879
0.000274146
6.0362e-05
0.000229223
0.000190745
0.000188024
7.48332e-05
0.000242421
3.0363e-05
0.000249515
7.65138e-05
9.18479e-05
0.000252041
0.000228868
0.000247608
0.000229174
7.91125e-05
2.2768e-05
0.000230046
0.000229347
0.000252054
0.000360317
0.000529101
0.0001515
0.000229565
0.000145248
0.000253167
0.000229513
0.000229621
0.000229797
0.000229402
0.000233929
0.00015964