/*--------------------------------*- C++ -*----------------------------------*\
| =========                 |                                                 |
| \\      /  F ield         | OpenFOAM: The Open Source CFD Toolbox           |
|  \\    /   O peration     | Version:  3.0.1                                 |
|   \\  /    A nd           | Web:      www.OpenFOAM.org                      |
|    \\/     M anipulation  |                                                 |
\*---------------------------------------------------------------------------*/
FoamFile
{
    version     2.0;
    format      ascii;
    class       volScalarField;
    location    "0.0126747";
    object      nut;
}
// * * * * * * * * * * * * * * * * * * * * * * * * * * * * * * * * * * * * * //

dimensions      [0 2 -1 0 0 0 0];

internalField   nonuniform List<scalar> 
21246
(
5.72043e-05
0.000264355
0.000312311
0.000358456
0.000411613
0.000457043
0.000482467
0.000475511
0.00043143
0.000370187
0.000322143
3.46445e-05
0.000220664
0.000327584
0.000383356
0.000424578
0.000461666
0.000481394
0.000473824
0.000433353
0.000372262
0.000321548
3.19847e-05
0.000177499
0.000291241
0.00037391
0.000419709
0.000452873
0.000473043
0.000471064
0.000436797
0.000375945
0.000322234
3.28089e-05
0.000153806
0.00025948
0.000351113
0.000403891
0.000443767
0.000468306
0.000470814
0.000440732
0.000381242
0.00032592
3.45483e-05
0.000136322
0.000235926
0.000327045
0.000380791
0.000425629
0.000456383
0.000465756
0.000440945
0.00038365
0.000327255
3.62511e-05
0.000123145
0.000217788
0.00030359
0.000356157
0.000403745
0.000439253
0.000455078
0.00043639
0.00038306
0.000328209
3.79162e-05
0.000113094
0.000203013
0.000282493
0.000333769
0.000381603
0.000419909
0.000441218
0.00042862
0.000379888
0.000326835
3.95983e-05
0.000105396
0.000190777
0.000264546
0.000314202
0.000361015
0.00040062
0.000425868
0.000418511
0.000374602
0.000325751
4.10805e-05
9.91397e-05
0.000180424
0.000249574
0.00029751
0.000342793
0.000382741
0.000410758
0.000407983
0.000368969
0.000323798
4.22843e-05
9.35273e-05
0.000171287
0.000237062
0.000283523
0.000327284
0.000367067
0.000397026
0.000398056
0.000363307
0.000320799
4.33577e-05
8.84402e-05
0.000163033
0.000226368
0.000271733
0.000314226
0.000353669
0.000385046
0.000389182
0.000357894
0.000318158
4.42058e-05
8.39987e-05
0.000155577
0.000217016
0.000261626
0.000303186
0.000342306
0.000374835
0.000381601
0.000353156
0.000315465
4.47142e-05
7.98539e-05
0.000148624
0.000208749
0.000253001
0.000294036
0.000332946
0.000366489
0.000375556
0.000349346
0.000312927
4.49453e-05
7.48037e-05
0.00014144
0.00020119
0.000245626
0.000286635
0.000325533
0.000360099
0.000371285
0.000346755
0.000310993
4.4723e-05
6.98861e-05
0.000132709
0.000192043
0.000236946
0.000278273
0.000317709
0.000354299
0.000368427
0.000345579
0.000310032
4.40119e-05
6.46887e-05
0.000122078
0.00017984
0.000223788
0.000263016
0.000299633
0.000335477
0.000355175
0.00034111
0.00030962
4.28857e-05
5.86959e-05
0.000108612
0.000163307
0.000205325
0.000240557
0.000271311
0.000302129
0.000325499
0.000326212
0.000306717
4.112e-05
5.28018e-05
9.415e-05
0.000143688
0.000182795
0.000213207
0.000236608
0.000258466
0.000278879
0.000292026
0.000292871
3.86928e-05
4.6986e-05
7.93956e-05
0.000121717
0.000156878
0.000182591
0.000199219
0.000211308
0.00022263
0.000236065
0.000252881
3.55698e-05
4.11719e-05
6.50541e-05
9.86894e-05
0.000128691
0.000150204
0.000162074
0.000167035
0.000168984
0.000173024
0.00018603
3.16689e-05
3.5276e-05
5.18071e-05
7.63899e-05
0.00010012
0.000117718
0.000126958
0.000128773
0.0001258
0.00012187
0.00012229
2.69454e-05
2.92697e-05
4.0124e-05
5.65356e-05
7.35256e-05
8.70884e-05
9.48627e-05
9.65321e-05
9.32907e-05
8.73367e-05
8.15838e-05
2.13143e-05
2.27449e-05
2.95814e-05
3.95392e-05
5.03878e-05
5.98733e-05
6.6298e-05
6.88839e-05
6.77612e-05
6.38049e-05
5.84165e-05
1.51841e-05
2.19747e-05
2.5554e-05
3.02454e-05
3.52956e-05
3.99922e-05
4.36812e-05
4.58646e-05
4.62843e-05
4.49839e-05
4.23282e-05
5.5611e-05
0.000260502
0.000296695
0.000392377
0.000431153
0.000470401
0.000495461
0.000486344
0.00043859
0.000373794
0.00032378
4.18305e-05
0.000184082
0.000185639
0.000321556
0.000418581
0.000470406
0.000503216
0.000504278
0.000462488
0.000392334
0.000332904
4.02484e-05
0.000143238
0.000160846
0.000259209
0.000395507
0.000476463
0.000519305
0.000525431
0.000488756
0.000415826
0.000346425
4.20562e-05
0.000123338
0.000150917
0.000239766
0.000376159
0.000482402
0.000538322
0.0005498
0.000516805
0.00044372
0.000366883
4.43083e-05
0.000116161
0.000145798
0.000227968
0.000361324
0.000483315
0.000553153
0.000573299
0.000544272
0.000471109
0.000384904
4.59702e-05
0.00011532
0.000142658
0.000218667
0.000349493
0.000479433
0.000561875
0.000593128
0.000570712
0.00049949
0.00040761
4.71095e-05
0.000117526
0.00014064
0.00021149
0.000339455
0.000472751
0.000565793
0.000608737
0.000595014
0.000525808
0.000425987
4.80101e-05
0.000121665
0.000139692
0.000205916
0.000330641
0.000464952
0.000566816
0.000621164
0.000617858
0.000552914
0.000447778
4.85229e-05
0.000126589
0.000139352
0.00020085
0.000322491
0.000456853
0.000566432
0.000631892
0.000640338
0.00058142
0.000475924
4.86946e-05
0.00013158
0.000139358
0.000194886
0.000311472
0.000445113
0.000562105
0.000639518
0.000662829
0.00061193
0.000505365
4.84875e-05
0.00013573
0.000139367
0.000187309
0.000295242
0.000424625
0.000544248
0.000627023
0.000658991
0.000618889
0.000526006
4.80186e-05
0.000139633
0.000139735
0.000179512
0.000276293
0.000398027
0.000515898
0.000599265
0.000634837
0.000602677
0.000527018
4.71908e-05
0.000142972
0.000140372
0.000171669
0.000255373
0.000366357
0.000478651
0.000559844
0.000596246
0.000570333
0.000509046
4.59923e-05
0.0001449
0.000141135
0.000163862
0.000233034
0.000330508
0.000433836
0.000511168
0.00054753
0.000528023
0.000475663
4.4347e-05
0.000145799
0.000142119
0.000156962
0.000211475
0.000293554
0.000384838
0.000456599
0.000492602
0.000480113
0.000435219
4.22181e-05
0.000145199
0.000143123
0.000151154
0.000191609
0.000257362
0.00033423
0.000398416
0.000433594
0.000428626
0.000391863
3.95804e-05
0.000142533
0.000143793
0.000146531
0.00017417
0.000223701
0.000284749
0.000339185
0.000372223
0.00037424
0.000347493
3.63439e-05
0.000137489
0.000143648
0.000143108
0.00015988
0.000194373
0.000239426
0.000282242
0.000310994
0.000317847
0.000301445
3.24518e-05
0.000129628
0.000141906
0.000140542
0.000149029
0.000170599
0.000200726
0.000231018
0.00025318
0.00026156
0.00025354
2.7914e-05
0.00011867
0.000137481
0.00013804
0.000141446
0.000152947
0.000170253
0.000188393
0.000202416
0.000208864
0.000205531
2.26702e-05
0.00010319
0.000129121
0.000134354
0.000136345
0.000141164
0.000148456
0.000155993
0.000161561
0.000163569
0.000160628
1.72547e-05
9.29249e-05
0.000118694
0.000127901
0.000130388
0.000131123
0.00013121
0.000130554
0.000128774
0.00012551
0.000119141
1.18075e-05
6.79362e-05
8.75428e-05
9.34893e-05
8.88549e-05
8.24185e-05
7.55203e-05
6.82787e-05
6.08866e-05
5.32641e-05
4.58646e-05
1.01791e-05
1.16883e-05
1.2442e-05
1.31509e-05
1.42626e-05
1.56287e-05
1.71309e-05
1.86301e-05
1.99782e-05
2.10369e-05
2.16994e-05
5.64197e-05
0.000254515
0.000322571
0.000424525
0.000487452
0.000516156
0.000540742
0.000548471
0.000531697
0.000493203
0.000439982
4.40131e-05
0.000150162
0.00020981
0.000259416
0.000300819
0.000334424
0.000420061
0.000549883
0.000569688
0.000522395
0.00045812
3.83233e-05
0.000106045
0.000165254
0.000204382
0.000232107
0.000246843
0.000263908
0.000340067
0.00054519
0.000555625
0.000484837
3.29985e-05
9.20261e-05
0.000140787
0.000174991
0.000197957
0.000207369
0.000206417
0.000220567
0.000296742
0.000462154
0.000510471
2.7477e-05
9.83786e-05
0.000133211
0.000159465
0.000177961
0.000185082
0.00017979
0.000173189
0.00018499
0.000247969
0.000390646
2.95515e-05
0.000126189
0.00014941
0.000161339
0.000170542
0.000173308
0.000166088
0.000152754
0.000142842
0.00015166
0.000212488
3.21545e-05
0.000194166
0.000207294
0.000192929
0.000181506
0.000172968
0.000161133
0.00014448
0.000126783
0.000116078
0.000129009
3.23079e-05
0.000212787
0.000289043
0.000263002
0.000221091
0.000189657
0.000165972
0.000143984
0.000122097
0.000103543
9.72237e-05
3.22288e-05
0.000222799
0.000361658
0.000358874
0.000296134
0.000231091
0.000184614
0.000151249
0.000123982
0.000100893
8.58889e-05
3.1908e-05
0.000218445
0.000384733
0.00044797
0.000397875
0.0003021
0.000221994
0.00016836
0.000131494
0.000103591
8.34938e-05
3.1754e-05
0.000210181
0.000389015
0.000496474
0.000491192
0.000392818
0.000278395
0.000196543
0.000144681
0.000110008
8.572e-05
3.17971e-05
0.000203081
0.000381592
0.000499029
0.000547561
0.000478838
0.000344596
0.000232816
0.000162301
0.000119
9.0596e-05
3.17854e-05
0.000199723
0.000371404
0.000486371
0.000564141
0.000536558
0.000404421
0.000269603
0.000181059
0.000128988
9.6821e-05
3.16479e-05
0.000199055
0.000359743
0.000464435
0.000543109
0.000553148
0.000441712
0.000297076
0.000196418
0.000138053
0.000103368
3.13184e-05
0.000197476
0.00034675
0.000438921
0.000508685
0.000538074
0.000451207
0.00030849
0.000204585
0.000144602
0.000109644
3.07949e-05
0.000196188
0.000333855
0.000412945
0.000466589
0.000500475
0.00044028
0.000304639
0.000205451
0.000148627
0.000115673
3.00886e-05
0.000191822
0.000320703
0.000390223
0.000430368
0.000450348
0.000420066
0.000293447
0.0002022
0.000151834
0.000122495
2.89217e-05
0.000184272
0.000305842
0.000369065
0.000400468
0.000411608
0.000390898
0.000290145
0.000201505
0.000157566
0.000132113
2.74203e-05
0.000174013
0.000289007
0.000349482
0.000376846
0.000386218
0.000371255
0.000303043
0.000211315
0.000170903
0.000147681
2.56501e-05
0.000161483
0.000269151
0.000331067
0.000361565
0.000377974
0.000375928
0.000334484
0.000244311
0.000199271
0.000174478
2.36755e-05
0.000147783
0.000244224
0.000308054
0.000350387
0.000385127
0.000407355
0.000394227
0.000311794
0.000253302
0.000220932
2.15538e-05
0.000136015
0.000212548
0.000257977
0.000289746
0.000327824
0.000385247
0.000441783
0.000406598
0.000342658
0.000298216
2.24808e-05
0.00014081
0.000179338
0.000188958
0.000209443
0.000244635
0.000294497
0.00035357
0.000393296
0.000391664
0.000360192
1.38729e-05
1.94279e-05
2.21362e-05
2.66023e-05
3.35958e-05
4.33004e-05
5.55771e-05
6.93236e-05
8.15105e-05
9.51618e-05
0.00011485
5.16044e-05
0.000312365
0.000419838
0.000463055
0.000485086
0.000501885
0.000515533
0.000520206
0.000508122
0.000473158
0.000420692
3.32072e-05
0.000244815
0.000385179
0.000456099
0.000486856
0.000505467
0.000518033
0.000521204
0.000509173
0.000475071
0.000422658
2.99824e-05
0.000213675
0.000359527
0.000455272
0.000496463
0.000516766
0.000528681
0.000530214
0.000516543
0.000482457
0.000431109
3.10045e-05
0.000195317
0.000344422
0.00045675
0.00050631
0.000526652
0.000537169
0.000537982
0.000522443
0.00048581
0.00043167
3.32342e-05
0.000183285
0.000330443
0.000456825
0.000520143
0.000543593
0.000552182
0.000551115
0.000533854
0.000495101
0.000437827
3.55318e-05
0.000175787
0.000318576
0.000442761
0.00051603
0.000555329
0.00057002
0.000565358
0.000543735
0.000504059
0.000446594
3.76184e-05
0.000170251
0.000309993
0.000429877
0.000503845
0.000548182
0.000570948
0.000574055
0.000554547
0.000513471
0.000455502
3.95797e-05
0.00016601
0.000302934
0.000418125
0.000491962
0.000540792
0.000568984
0.000575807
0.000558479
0.000518966
0.000461957
4.11578e-05
0.000162503
0.000296994
0.000407823
0.00048121
0.000532394
0.000563803
0.000572957
0.000556333
0.000515042
0.000453948
4.2328e-05
0.000159009
0.000291405
0.00039863
0.000471649
0.000523916
0.000556825
0.000567153
0.000551787
0.000513286
0.000458201
4.30516e-05
0.000154915
0.000285304
0.000390137
0.000463114
0.000516149
0.000550112
0.000561715
0.00054874
0.000514925
0.000466412
4.34629e-05
0.000150418
0.000278812
0.000382061
0.000455302
0.000509295
0.000544708
0.000558475
0.000548737
0.000518509
0.00047059
4.34757e-05
0.000145241
0.000271699
0.000374041
0.000447947
0.000503385
0.000541077
0.000558262
0.000552514
0.000524027
0.000471719
4.31177e-05
0.000138918
0.000263382
0.000365523
0.000440639
0.000498155
0.000539066
0.000561038
0.000560493
0.0005339
0.000477083
4.23366e-05
0.000130804
0.000253694
0.000356028
0.000432715
0.000492786
0.000537681
0.000565819
0.000572496
0.000549785
0.000487708
4.10954e-05
0.000120461
0.00023928
0.000341531
0.000419419
0.000481465
0.00053014
0.000565552
0.000583046
0.000570698
0.000508739
3.93932e-05
0.000107853
0.000219909
0.000321048
0.000398893
0.000460291
0.000508323
0.00054503
0.000567979
0.000566248
0.000518984
3.71406e-05
9.38113e-05
0.000195804
0.000294267
0.000371447
0.000430952
0.000475405
0.00050786
0.000528626
0.00053155
0.000503991
3.42953e-05
7.89747e-05
0.000167542
0.0002608
0.000336847
0.000394563
0.000435005
0.000460843
0.000474182
0.000474101
0.000457905
3.08185e-05
6.38644e-05
0.000136008
0.000220452
0.000294208
0.000350929
0.000389068
0.00040997
0.000416291
0.000410391
0.000395441
2.66639e-05
4.90912e-05
0.000103221
0.00017442
0.000243071
0.000298771
0.000336901
0.000356991
0.00036127
0.000353297
0.000338195
2.18185e-05
3.55213e-05
7.23476e-05
0.000126534
0.000185156
0.000237103
0.000275597
0.000298293
0.000306244
0.000302531
0.000291835
1.62521e-05
2.31316e-05
4.54883e-05
8.16922e-05
0.000125257
0.000167862
0.00020295
0.000227268
0.000240547
0.000244533
0.000242412
9.86506e-06
2.03748e-05
3.80474e-05
5.99813e-05
8.53631e-05
0.000111027
0.000133745
0.000151561
0.000163804
0.000171088
0.000174457
3.18681e-05
0.000210231
0.000317305
0.000379094
0.000411787
0.000431667
0.000449416
0.000464673
0.000469047
0.000452483
0.000414474
2.11228e-05
0.000163402
0.000287417
0.000366268
0.000408845
0.000432199
0.000448114
0.000459728
0.000461932
0.000444785
0.000407077
1.7198e-05
0.000138535
0.000259821
0.000351033
0.000405551
0.000436127
0.00045552
0.000467628
0.000466301
0.00044505
0.000404497
1.63917e-05
0.000120925
0.000234768
0.000330691
0.000394095
0.000431205
0.000452754
0.000463619
0.000462233
0.00044413
0.000405554
1.64767e-05
0.000112171
0.000216604
0.000307507
0.000371548
0.00041141
0.00043583
0.000450531
0.000453535
0.000438622
0.000401342
1.68328e-05
0.00010881
0.000207738
0.000292623
0.000353468
0.000393261
0.000420155
0.000439413
0.000447605
0.000436714
0.000401774
1.72821e-05
0.000107499
0.000203131
0.000282961
0.000339832
0.000377644
0.000405303
0.000428911
0.000443465
0.000437201
0.000402464
1.79703e-05
0.000107524
0.00020097
0.00027681
0.000330005
0.000365036
0.000391912
0.000418441
0.000439257
0.000439432
0.00040983
1.86305e-05
0.000108032
0.000200334
0.000273434
0.000323672
0.000355828
0.000380992
0.000408992
0.000435144
0.000441407
0.000413977
1.91432e-05
0.000108177
0.000199996
0.000271746
0.000320152
0.000349998
0.000373116
0.000401409
0.000431486
0.0004424
0.00041549
1.9577e-05
0.000108142
0.000199904
0.000271317
0.000318952
0.000347266
0.000368405
0.000396143
0.000428744
0.000443268
0.000419178
1.99623e-05
0.000108379
0.000200374
0.000272047
0.00031969
0.000347249
0.000366774
0.000393525
0.000427598
0.000444533
0.000420459
2.01931e-05
0.000108329
0.000200837
0.000273403
0.000321905
0.000349629
0.000368172
0.000393879
0.000428772
0.000447473
0.000424006
2.02271e-05
0.00010737
0.000200518
0.000274722
0.000325131
0.000354167
0.000372612
0.0003975
0.000432852
0.000452938
0.000430592
2.00808e-05
0.000106027
0.000199699
0.000275914
0.000329047
0.000360559
0.000380041
0.000404668
0.000440373
0.000461275
0.000437194
1.97172e-05
0.000103891
0.000197876
0.000276481
0.000333251
0.000368628
0.000390644
0.000415938
0.000452095
0.000473217
0.000446761
1.91452e-05
9.94867e-05
0.000193616
0.000275298
0.000336981
0.000377964
0.000404538
0.000431965
0.000468986
0.000489668
0.000459999
1.82936e-05
9.37621e-05
0.000186645
0.000270787
0.000337566
0.000385483
0.000418675
0.000450077
0.000489256
0.000510764
0.000477512
1.71498e-05
8.6156e-05
0.000175998
0.000261684
0.000333402
0.000388574
0.000428989
0.000463738
0.000501466
0.00052244
0.000493066
1.56901e-05
7.6262e-05
0.000160578
0.000246127
0.000321977
0.000384334
0.000432539
0.000470898
0.000504755
0.000521069
0.000497908
1.38782e-05
6.3966e-05
0.000139597
0.000222037
0.000300012
0.000368608
0.00042494
0.000468669
0.000500216
0.000509588
0.000486431
1.17119e-05
5.05403e-05
0.000113458
0.000187667
0.000263593
0.000335634
0.000399287
0.00045071
0.000485703
0.000493843
0.00046667
9.09004e-06
3.35961e-05
7.94932e-05
0.000140267
0.000208222
0.000278064
0.000345096
0.000404159
0.000448615
0.000467271
0.000448265
6.5305e-06
2.85467e-05
6.00149e-05
9.99294e-05
0.000146835
0.000199262
0.00025506
0.000310935
0.00036124
0.00039607
0.000402804
2.87223e-05
0.000148541
0.000231257
0.000340942
0.000404134
0.000438974
0.000466109
0.000485583
0.000489795
0.000470616
0.000430848
2.01038e-05
7.93107e-05
0.000140733
0.000218609
0.000298735
0.000378848
0.000451438
0.000499534
0.000513798
0.000494704
0.000449095
1.7106e-05
5.32079e-05
0.000103369
0.000163577
0.0002331
0.000305256
0.00040551
0.000497689
0.000537041
0.0005284
0.000484959
1.42136e-05
4.92252e-05
8.50408e-05
0.000132191
0.000190912
0.000256759
0.000343594
0.000478051
0.000556486
0.000569301
0.000536277
1.56892e-05
5.80167e-05
8.05272e-05
0.000115025
0.000162754
0.000221361
0.00029819
0.000432407
0.000563299
0.000608231
0.000586317
1.90174e-05
7.95418e-05
9.02445e-05
0.000110633
0.000145966
0.000195687
0.000264816
0.00038377
0.00055461
0.000641696
0.000638851
2.20857e-05
0.000115508
0.000117228
0.000119514
0.000139379
0.00017845
0.000240148
0.000347998
0.000521613
0.000664304
0.000692306
2.40713e-05
0.000141234
0.000153247
0.000140385
0.000142104
0.000168836
0.000223109
0.000323838
0.000491497
0.000667921
0.000736086
2.53955e-05
0.000154847
0.000187125
0.000168433
0.000152066
0.000165513
0.000212601
0.000308825
0.000472203
0.000657538
0.00076317
2.65453e-05
0.000164211
0.000214138
0.000197498
0.000166444
0.000166984
0.000207688
0.000301477
0.000462466
0.000648856
0.000769865
2.72853e-05
0.000170743
0.000229844
0.000221116
0.000182994
0.000172072
0.000207486
0.00030057
0.000460473
0.000644828
0.000770664
2.77807e-05
0.000175077
0.000237886
0.000237173
0.000200536
0.000180642
0.00021175
0.000305727
0.000465338
0.000645923
0.000769662
2.77548e-05
0.000177344
0.000243114
0.000248331
0.000217714
0.000192873
0.000220606
0.000316419
0.000475545
0.000650823
0.00076818
2.71762e-05
0.000177586
0.0002463
0.00025773
0.000234139
0.000208755
0.000234298
0.000331926
0.000489244
0.000657492
0.000770524
2.60775e-05
0.000175563
0.000247403
0.000265801
0.000250476
0.000228019
0.000253123
0.00035146
0.00050464
0.000664449
0.000776514
2.44984e-05
0.000170845
0.000245912
0.000272
0.000266311
0.000249952
0.000276505
0.00037334
0.000519241
0.00067002
0.000784714
2.2472e-05
0.000163189
0.000240897
0.000274883
0.000279966
0.000273166
0.000302516
0.000394874
0.000530062
0.000672417
0.000796371
2.00513e-05
0.00015238
0.000231473
0.00027288
0.000289133
0.000294786
0.000327703
0.000412521
0.00053387
0.000667624
0.000798287
1.74315e-05
0.000138542
0.000217227
0.000264825
0.000292077
0.000310264
0.000347088
0.000421997
0.000526882
0.000648688
0.000770578
1.46943e-05
0.000122188
0.00019823
0.000250399
0.000285732
0.000314895
0.000354731
0.000418509
0.000505011
0.000609063
0.000704886
1.17854e-05
0.000101473
0.000173139
0.000225974
0.000266289
0.000302075
0.00034204
0.000394247
0.000461597
0.000540687
0.000594115
8.97042e-06
8.09584e-05
0.000141788
0.000190543
0.000229249
0.000263083
0.000296794
0.000334249
0.00037146
0.000378082
0.00033849
6.22366e-06
5.43661e-05
9.14344e-05
0.000120668
0.000136553
0.000147233
0.000154943
0.000159376
0.000158951
0.000165112
0.000175877
4.36085e-06
1.06002e-05
1.90612e-05
3.09121e-05
4.75257e-05
6.9531e-05
9.71194e-05
0.000129983
0.00016697
0.000205256
0.000238008
2.58035e-05
2.57135e-05
2.56017e-05
2.54772e-05
2.55227e-05
2.52807e-05
2.47014e-05
2.31219e-05
1.93776e-05
0.000170002
0.000187602
0.000182319
0.00016271
0.000141461
0.000116771
7.86586e-05
5.20895e-05
3.76479e-05
0.000274346
0.000294191
0.000296047
0.000273412
0.000237897
0.00020193
0.000143078
9.40062e-05
6.31352e-05
0.000340967
0.000359301
0.000372841
0.000352361
0.000302643
0.000261339
0.000185349
0.000120821
8.3205e-05
2.57219e-05
2.51314e-05
2.42606e-05
2.24753e-05
1.84859e-05
1.44557e-05
1.49165e-05
1.5114e-05
1.35734e-05
0.000148082
0.000124711
8.56796e-05
5.61643e-05
3.98329e-05
4.36303e-05
6.69464e-05
7.19027e-05
4.47345e-05
0.000236049
0.000200798
0.00014851
0.000100276
6.53273e-05
5.664e-05
9.38815e-05
0.000104817
5.83267e-05
0.000289201
0.000245234
0.000182651
0.000125031
8.37908e-05
6.75519e-05
0.000114463
0.000138525
7.64442e-05
0.000235712
0.000265047
0.000256015
0.000250997
0.000244525
0.00025531
0.000251207
0.000253716
0.000252852
0.000261879
0.000242203
0.000258584
0.00024181
0.000244611
0.000200758
0.000239089
0.000254529
0.000249269
0.000240081
0.000245911
0.000247232
0.000246007
0.000231154
0.000258002
0.000258986
0.000242676
0.000243185
0.000250942
0.000145732
0.000240728
0.000250368
0.000245145
0.000257733
0.000255042
0.000244033
0.000270575
0.000257604
0.000258025
0.000247261
0.00025294
0.000241804
0.000257171
0.000235234
0.000232001
0.000243828
0.000257402
0.000247399
0.000292502
0.000245779
0.00024786
0.000242673
0.000253874
0.000248037
0.000234792
0.000246386
0.000244613
0.000244444
0.000253988
0.000165921
0.000241142
0.000246163
0.000252864
0.000239744
0.00024214
0.000238628
0.000246096
0.000244412
0.000248863
0.00026566
0.000259021
0.000249603
0.000237748
0.000245414
0.00026468
0.000261156
0.0002353
0.000248456
0.000261807
0.000239038
0.000258765
0.000253392
0.000243158
0.000248393
0.000244315
0.000245452
0.000245231
0.000165088
0.000274086
0.000243074
0.000259626
0.000280857
0.000254866
0.000240656
0.000242015
0.000257309
0.000219348
0.000248537
0.000242356
0.000240666
0.000246633
0.000253383
0.000282453
0.000252902
0.000234423
0.000246276
0.000258058
0.000256573
0.000235662
0.000248986
0.000252339
0.000241721
0.000259796
0.000268307
0.000244296
0.000252801
0.00023807
0.000249353
0.00024491
0.000253348
0.0002484
0.000239282
0.00026024
0.000253147
0.000249086
0.000251096
0.000243896
0.000278761
0.000252401
0.000250385
0.00024163
0.000242575
0.000241418
0.000288959
0.000235265
0.000259936
0.000255609
0.000247776
0.000241538
0.000241144
0.000247058
0.000236931
0.000250854
0.000246397
0.000236249
0.000247601
0.000248431
0.000262014
0.000248927
0.000257278
0.000250073
0.000243234
0.000253099
0.000241911
0.000266334
0.000257601
0.000241285
0.000240866
0.000247069
0.000234415
0.000256906
0.000233445
0.000252212
0.000237057
0.000251529
0.000235508
0.000242078
0.000245441
0.000269233
0.000253186
0.00023881
0.000270993
0.000250061
0.000269569
0.000242501
0.000243966
0.000235231
0.000244259
0.000246515
0.000244886
0.000237731
0.00025681
0.000247191
0.000232399
0.000251903
0.000257062
0.000250195
0.000240871
0.000244465
0.000268197
0.000244184
0.000249539
0.000247554
0.00024654
0.000242547
0.000259366
0.000254315
0.00026314
0.000240782
0.000243117
0.000230426
0.000239797
0.000258747
0.000240945
0.000245106
0.000248229
0.000273862
0.000241176
0.000251544
0.000257769
0.000240297
0.000260809
0.000250685
0.000244831
0.000240098
0.000252922
0.000248426
0.000274111
0.000251104
0.000245061
0.000242718
0.000250193
0.000244529
0.000250213
0.000249644
0.000251911
0.000254917
0.000258655
0.000247853
0.000247131
0.000239042
0.000244287
0.000248684
0.000241578
0.000252692
0.000246531
0.000277788
0.000238321
0.000235617
0.000261
0.000257842
0.000249642
0.000257432
0.000234279
0.000243528
0.000240803
0.000255287
0.00024969
0.000245258
0.000277156
0.00025185
0.000243473
0.000261388
0.000245634
0.000240261
0.000245713
0.000265985
0.000241599
0.000256584
0.000236827
0.000241062
0.000240221
0.000249351
0.000239154
0.000276168
0.000250515
0.000244295
0.000249307
0.000270776
0.000155976
0.00023803
0.000251977
0.000253111
0.000254138
0.000246941
0.000255294
0.000245474
0.000241185
0.000241748
0.000248206
0.0002465
0.000240591
0.000281002
0.000254034
0.00024103
0.00024383
0.000259207
0.000250812
0.000263617
0.00024634
0.000237535
0.000250683
0.000246379
0.000284322
0.000243975
0.000230445
0.000255001
0.000251844
0.000252035
0.000241877
0.000239802
0.000250977
0.000235859
0.000246299
0.00024058
0.000242972
0.000254313
0.000259707
0.000238961
0.000247043
0.000245615
0.000246314
0.000261051
0.00025177
0.000256254
0.000254998
0.000241777
0.000236425
0.000235245
0.00023978
0.000255275
0.00024396
0.00025306
0.000245585
0.000238015
0.000241443
0.000254983
0.000251892
0.000238421
0.000250382
0.000236927
0.000252282
0.000239756
0.000246951
0.000233413
0.000242584
0.000290226
0.000239993
0.000270634
0.000247659
0.000239603
0.000261821
0.000261284
0.000254547
0.000253289
0.000248385
0.000238672
0.000238635
0.000243972
0.000258768
0.000252211
0.000249113
0.000249815
0.000239736
0.000246516
0.000233955
0.000230195
0.000250314
0.000239876
0.000231529
0.000236921
0.000238299
0.000242758
0.00027761
0.000251499
0.000262949
0.000248293
0.000253796
0.000241739
0.00025423
0.000252926
0.000241894
0.000266095
0.000288093
0.000244001
0.000243313
0.000236126
0.000239525
0.000247463
0.00025792
0.000250064
0.000248171
0.000251045
0.000248464
0.000245084
0.000250306
0.000239022
0.000237377
0.000253821
0.000254981
0.000248274
0.000251912
0.000249117
0.000242659
0.000250965
0.000240098
0.000238472
0.000250748
0.000247425
0.000255576
0.000249818
0.000238104
0.000237935
0.000231429
0.00023761
0.000259834
0.000213444
0.000239669
0.000239435
0.000259797
0.000252003
0.000247124
0.000240282
0.000240169
0.000239977
0.000248396
0.000247561
0.00024821
0.000254499
0.000250186
0.000245426
0.000254146
0.000240396
0.000252486
0.000242267
0.000237382
0.000250797
0.000268507
0.000186931
0.000258021
0.000239628
0.000250223
0.000253934
0.000244324
0.000238235
0.000254554
0.00024086
0.000237969
0.000248369
0.000248226
0.000230286
0.000240873
0.000193619
0.000238469
0.00023711
0.000249108
0.000244803
0.000242691
0.000260597
0.000247261
0.000265083
0.00025223
0.000251635
0.000263108
0.000243092
0.000262471
0.000256021
0.00027542
0.000241259
0.000200329
0.000262202
0.000250481
0.000274032
0.000235345
0.000247907
0.000244626
3.67504e-05
3.91195e-05
2.97244e-05
2.93913e-05
0.000254041
0.00023653
0.000240568
0.000247866
0.000247516
0.000242768
0.000264592
0.000253372
7.92496e-05
0.000258569
0.000240576
0.000264729
0.000242652
0.000240182
0.000246916
0.000234176
0.000243837
0.000249459
0.000233871
0.000240635
0.000254579
0.000244847
0.000250538
0.000244226
0.000246882
0.000253182
0.000233622
0.000249712
0.000244309
0.000241965
0.000270119
0.000246336
0.000237452
0.00026636
0.000277777
0.000263152
0.000241864
0.000238358
0.000250369
0.000270063
0.000252112
0.00025382
0.000222547
0.000247562
0.000243798
0.000256529
0.000240267
0.000255107
0.000241327
0.000253634
0.000235366
0.000239384
0.000281937
0.000249731
0.000253263
0.000254268
0.000249776
0.000246501
0.000258256
0.000242403
0.000251134
0.000245246
0.00025065
0.000244252
0.000248571
0.000249346
0.000227919
0.000256889
0.000243425
0.000242167
0.000253991
0.000249311
0.00025371
0.000249733
0.000252099
0.000240874
0.000258945
0.000242338
0.000246806
0.000244211
0.000239266
0.000236987
0.000270113
0.000251591
0.000245551
0.000247534
0.000265113
0.000214868
0.000240488
0.000264811
0.00024952
0.000241113
0.000253488
0.000161416
0.000252512
0.000252104
0.000262517
0.000242227
0.000236804
0.00022992
0.000259851
0.000247695
0.000240717
0.00024743
0.000246221
0.00024229
0.000242933
0.000243909
0.000254312
0.000225803
0.000253574
0.000256247
0.000257509
0.000264866
0.000241892
0.000243183
0.000258042
0.000245117
0.000236111
0.000230381
0.000258772
0.000256311
0.000239132
0.000264216
0.00025356
0.000245014
0.000261788
0.000239555
0.000239042
0.000255603
0.000255593
0.000244709
0.000241314
0.000242277
0.000248645
0.000253465
0.000249931
0.000241736
0.000245832
0.000241038
0.00023948
0.00025221
0.000241542
0.000253557
0.000150966
0.000248333
0.000244846
0.000247145
0.000259349
0.000233685
0.000251891
0.000278356
0.000260468
0.000248602
0.000250455
0.000248486
0.0002534
0.000244245
0.000146583
0.000258246
0.000266469
0.000243372
0.000241686
0.00024126
0.000253147
0.000242489
0.0002505
0.000245132
0.000245715
0.000250722
0.000233638
0.000248122
0.000249567
0.000240955
0.000249179
0.000252292
0.000239399
0.000241999
0.000248557
0.000263443
0.000244995
0.000236445
0.000272533
0.00023803
0.000248135
0.000247217
0.000249204
0.000261877
0.0002459
0.000244918
0.000243113
0.000238655
0.000248178
0.000255976
0.000224276
0.000287964
7.2271e-05
0.00023922
0.000234394
0.000247749
0.00024304
0.000243431
0.00025301
0.000243074
0.000255908
0.000240935
0.00024961
0.000256717
0.000242651
0.000231546
0.000261813
0.000251524
0.00024958
0.000272629
0.000234066
0.000245017
0.000240038
0.000247349
0.000235484
0.000242615
0.000259332
0.000244425
0.000249965
0.000242633
0.000236784
0.000250552
0.000251645
0.000258631
0.000248245
0.00025152
0.000244349
0.000251294
0.000265226
0.000238108
0.000256586
0.000246317
0.000233791
0.000248241
0.000253983
0.000242724
0.000239389
0.000247645
0.000240867
0.000240051
0.000262584
0.000259134
0.000251831
0.000251675
0.000247434
0.00024672
0.000252506
0.000244396
0.000253004
0.000248156
0.000245521
0.000247704
0.000264788
0.000248286
0.000243877
0.000266659
0.000257117
0.000239275
0.000241458
0.000247547
0.000235982
0.000237885
0.000246074
0.000247454
0.000244292
0.000267549
0.000236843
0.000229706
0.000243444
0.000251445
0.000272407
0.000247572
0.000237458
0.00026693
0.000242332
0.000244458
0.000244585
0.000243952
0.000237043
0.000241905
0.000239355
0.00026789
0.000260866
0.000241466
0.000242282
0.000241302
0.000263085
0.000245191
0.0002447
0.000237684
0.000264228
0.000264033
0.000257567
0.000241384
0.00024156
0.000246556
0.000247925
0.000275957
0.00025454
0.000239377
0.000250933
0.000245616
0.000245606
0.000246591
0.000236055
0.000247258
0.000230175
0.000252418
0.00025287
0.000252189
0.000257157
0.000240642
0.000277947
0.000246674
0.000274677
0.000252278
0.000269206
0.000241205
0.000245332
0.000241427
0.000245759