/*--------------------------------*- C++ -*----------------------------------*\
| =========                 |                                                 |
| \\      /  F ield         | OpenFOAM: The Open Source CFD Toolbox           |
|  \\    /   O peration     | Version:  3.0.1                                 |
|   \\  /    A nd           | Web:      www.OpenFOAM.org                      |
|    \\/     M anipulation  |                                                 |
\*---------------------------------------------------------------------------*/
FoamFile
{
    version     2.0;
    format      ascii;
    class       surfaceVectorField;
    location    "0.0126747";
    object      Uf;
}
// * * * * * * * * * * * * * * * * * * * * * * * * * * * * * * * * * * * * * //

dimensions      [0 1 -1 0 0 0 0];

internalField   nonuniform List<vector> 
32369
(
(-0.00351385 -5.86561 3.37906e-18)
(-1.06926 -2.87402 2.92327e-18)
(3.34835 -7.99673 -2.50809e-18)
(1.08104 -4.29776 6.9515e-19)
(-0.272621 -3.325 1.55015e-18)
(2.9319 -5.16638 1.00053e-18)
(1.83667 -3.42934 -6.63929e-19)
(0.695275 -3.18519 -1.38631e-18)
(2.87139 -4.1337 0)
(2.28351 -2.79061 -1.82916e-20)
(1.43658 -2.84428 5.12782e-20)
(2.90453 -3.24818 -7.10799e-19)
(2.54984 -2.28655 1.09913e-18)
(1.93442 -2.43552 5.05482e-20)
(2.95227 -2.60125 7.5987e-19)
(2.7128 -1.87707 0)
(2.26621 -2.03586 -1.70999e-19)
(2.99598 -2.09852 -3.26269e-19)
(2.81717 -1.53922 3.29593e-19)
(2.48712 -1.68176 0)
(3.02837 -1.70239 5.056e-19)
(2.88236 -1.25901 6.70271e-20)
(2.63563 -1.38035 3.40594e-19)
(3.04485 -1.37953 2.29632e-19)
(2.9208 -1.02623 -6.55328e-19)
(2.73659 -1.12756 -2.11629e-19)
(3.04907 -1.1168 -3.81488e-19)
(2.93945 -0.831159 -5.61622e-21)
(2.80303 -0.917458 -5.75704e-19)
(3.04389 -0.901902 -9.14152e-20)
(2.83676 -0.744694 9.0766e-19)
(3.02523 -0.72973 1.95482e-19)
(2.93006 -0.64069 2.54e-19)
(-1.45706 -1.44453 1.47568e-18)
(-1.61106 -0.0396154 -5.00537e-18)
(-0.668485 -2.29978 -3.13121e-19)
(-0.926631 -1.09752 4.03425e-18)
(0.258159 -2.4805 -7.9557e-19)
(-0.372004 -1.56641 -3.25472e-18)
(1.05298 -2.37086 1.19695e-20)
(0.369468 -1.82479 6.28012e-19)
(1.64482 -2.11755 -1.02115e-18)
(1.01879 -1.86492 7.81329e-19)
(2.04878 -1.81582 -1.78098e-19)
(1.54091 -1.74437 -9.8866e-19)
(2.31613 -1.51932 -8.11306e-20)
(1.93231 -1.53604 0)
(2.49502 -1.25246 1.64085e-20)
(2.21473 -1.30217 -4.49657e-19)
(2.6189 -1.0225 -1.32027e-19)
(2.41566 -1.07853 5.41371e-19)
(2.70855 -0.828421 -8.79281e-21)
(2.55621 -0.87988 -4.76648e-19)
(2.64684 -0.714319 2.10986e-19)
(2.7658 -0.648576 4.18363e-19)
(-0.967769 -0.00231403 -2.89269e-18)
(-1.02852 0.877084 -4.91568e-18)
(-0.784707 -0.55588 1.24022e-18)
(-0.445343 0.031787 3.36054e-18)
(-0.325963 -0.999545 -2.17033e-18)
(-0.358148 -0.313499 -2.66119e-18)
(0.249359 -1.30672 1.41829e-18)
(0.0667953 -0.73925 0)
(0.849165 -1.43791 9.95501e-19)
(0.549561 -1.0181 1.42553e-18)
(1.3825 -1.41164 -8.9405e-19)
(1.04801 -1.14725 -6.02856e-19)
(1.80681 -1.28315 -4.56262e-19)
(1.49159 -1.14144 9.39099e-19)
(2.12022 -1.10991 -2.35895e-19)
(1.85318 -1.04901 -1.20777e-18)
(2.34295 -0.930881 3.05749e-19)
(2.1308 -0.915502 1.52344e-19)
(2.49798 -0.767355 -4.30427e-19)
(2.33527 -0.773351 7.40207e-20)
(2.47389 -0.640175 -3.28913e-19)
(2.60535 -0.609682 -8.28366e-19)
(-0.218874 0.652231 3.3367e-19)
(-0.293722 1.22041 -4.20606e-18)
(-0.196441 0.299924 -1.83914e-19)
(0.24966 0.615177 4.2272e-19)
(-0.0227744 -0.0829064 -7.36522e-19)
(0.0952309 0.453719 -5.28898e-19)
(0.252971 -0.435901 -1.17165e-19)
(0.327105 0.0185819 -2.56493e-18)
(0.65141 -0.705796 1.83682e-20)
(0.584769 -0.271971 -5.41582e-20)
(1.0868 -0.85769 1.02698e-18)
(0.931785 -0.51859 1.41196e-18)
(1.49533 -0.894984 3.85194e-19)
(1.29518 -0.659797 1.94325e-18)
(1.83875 -0.849552 -1.00754e-18)
(1.63505 -0.703508 -2.04827e-18)
(2.10693 -0.758709 -9.47836e-20)
(1.92532 -0.67669 8.47332e-20)
(2.30707 -0.652744 2.56956e-19)
(2.15723 -0.610366 2.28487e-19)
(2.32615 -0.529128 0)
(2.45188 -0.539584 1.76101e-18)
(0.416196 0.982103 -4.53934e-18)
(0.345109 1.3186 -7.15568e-18)
(0.415431 0.78547 1.56054e-19)
(0.845875 0.877012 -1.58322e-19)
(0.451033 0.50785 -2.15134e-18)
(0.592715 0.848122 2.34953e-19)
(0.575325 0.188766 -2.62086e-18)
(0.73375 0.508156 -2.70149e-19)
(0.786781 -0.100084 1.279e-18)
(0.841051 0.240402 -1.68984e-18)
(1.06698 -0.32624 2.28009e-18)
(1.04453 -0.0267387 7.4123e-20)
(1.38135 -0.470498 -1.31933e-19)
(1.29518 -0.223002 3.42314e-18)
(1.68579 -0.532648 -1.1726e-18)
(1.56361 -0.348832 -1.37053e-18)
(1.95124 -0.530957 3.83261e-19)
(1.82026 -0.406648 -1.4376e-19)
(2.16729 -0.49027 0)
(2.04508 -0.411868 -8.22342e-19)
(2.22027 -0.381931 0)
(2.34068 -0.417646 2.31609e-18)
(0.910591 1.0983 -3.49844e-18)
(0.816446 1.25542 -2.79798e-18)
(0.944053 1.00239 -1.16336e-19)
(1.30707 1.00111 2.12788e-18)
(0.917737 0.806754 2.13592e-18)
(1.0383 1.01706 -1.66434e-18)
(0.949049 0.567797 7.92515e-19)
(1.1292 0.758735 2.00289e-18)
(1.04727 0.317529 -2.95715e-18)
(1.15079 0.554906 -1.3768e-18)
(1.21288 0.0837209 9.40039e-19)
(1.25799 0.320833 -3.08548e-18)
(1.42431 -0.101899 2.5296e-18)
(1.41341 0.114973 4.22603e-18)
(1.65627 -0.225955 -5.38315e-19)
(1.60306 -0.0454525 4.73317e-19)
(1.88247 -0.290778 -1.30107e-18)
(1.80531 -0.152276 -7.21658e-20)
(2.08401 -0.309939 -9.09247e-19)
(1.99953 -0.209381 -5.72528e-20)
(2.16255 -0.22316 0)
(2.25686 -0.292105 0)
(1.27975 1.07838 2.3091e-18)
(1.12358 1.15924 2.18436e-18)
(1.34282 1.0779 5.4568e-19)
(1.62072 1.00133 4.09832e-19)
(1.30264 0.940895 -2.16082e-18)
(1.4012 1.06919 -4.61803e-19)
(1.30079 0.76849 7.21189e-20)
(1.46112 0.875484 7.42748e-19)
(1.33515 0.568407 -1.35538e-18)
(1.44551 0.727574 8.55775e-19)
(1.41894 0.363482 -4.31358e-19)
(1.49501 0.535817 -2.7156e-18)
(1.54967 0.178745 2.47199e-18)
(1.58219 0.351156 2.70394e-18)
(1.71271 0.0317987 8.99177e-19)
(1.70633 0.188626 -9.7149e-19)
(1.88892 -0.0697487 1.07879e-18)
(1.8541 0.061741 3.78676e-19)
(2.06045 -0.128197 8.2271e-19)
(2.00878 -0.0256041 1.13033e-18)
(2.14513 -0.0721943 -4.7834e-20)
(2.21736 -0.143766 0)
(1.5243 1.02737 4.27873e-19)
(1.34429 1.09125 1.77011e-18)
(1.63475 1.07414 -5.9976e-19)
(1.84016 0.986434 -1.58243e-18)
(1.60352 0.983515 2.31837e-18)
(1.67385 1.06467 1.33327e-19)
(1.5926 0.860825 1.46729e-18)
(1.72337 0.916817 2.14403e-18)
(1.59737 0.707127 -1.14265e-19)
(1.69592 0.810906 8.19839e-20)
(1.63453 0.538611 -5.75616e-20)
(1.7155 0.657808 -2.14783e-18)
(1.70911 0.37349 -3.29046e-19)
(1.76016 0.50269 1.95644e-18)
(1.81604 0.2278 -1.59481e-18)
(1.83684 0.35444 -1.43566e-18)
(1.94368 0.11226 3.73289e-19)
(1.93901 0.226512 -1.16079e-18)
(2.07769 0.0295144 4.42225e-19)
(2.05538 0.126427 4.48559e-19)
(2.16191 0.062608 4.55212e-19)
(2.20789 -0.0205649 -4.00844e-20)
(1.70618 0.978922 8.7412e-20)
(1.52348 1.02728 -4.4768e-20)
(1.84781 1.04981 -6.89331e-19)
(2.01986 0.957737 3.33391e-19)
(1.83199 0.984643 -4.02916e-19)
(1.88623 1.04294 -1.20214e-18)
(1.82258 0.893743 9.31662e-19)
(1.93018 0.921088 3.31222e-19)
(1.81651 0.775167 -1.71475e-18)
(1.89987 0.844071 9.64255e-19)
(1.83001 0.639494 -5.51108e-19)
(1.90502 0.72126 -1.93048e-18)
(1.87017 0.499093 1.16441e-18)
(1.92512 0.59385 6.10504e-19)
(1.93731 0.366322 -1.03247e-18)
(1.97059 0.464901 7.13345e-19)
(2.02601 0.251428 -1.22364e-18)
(2.03895 0.3459 -6.0534e-19)
(2.1267 0.15949 5.09956e-19)
(2.12413 0.244533 1.2111e-18)
(2.20732 0.173048 -1.16231e-18)
(2.2306 0.0913902 -9.8533e-19)
(1.85734 0.901432 1.69373e-19)
(1.63431 0.915427 -1.31776e-18)
(2.02027 1.00177 -1.58109e-20)
(2.15416 0.892817 1.98284e-18)
(2.012 0.960032 -7.87218e-19)
(2.04847 1.00026 -1.80124e-18)
(2.0043 0.89324 3.40053e-19)
(2.09231 0.900641 -9.28901e-19)
(1.99435 0.801342 1.07227e-18)
(2.06323 0.847702 1.72017e-18)
(1.99627 0.692551 -1.01796e-18)
(2.06236 0.748896 -1.05759e-18)
(2.01668 0.575491 1.4849e-19)
(2.06908 0.645186 -1.30469e-20)
(2.05808 0.459288 1.24664e-18)
(2.09525 0.535268 7.39063e-19)
(2.11895 0.352605 1.63377e-18)
(2.14039 0.429 -4.59869e-19)
(2.19449 0.261562 -1.7968e-19)
(2.20234 0.332836 1.18125e-18)
(2.26559 0.260733 -1.65433e-18)
(2.28151 0.193502 -1.36992e-18)
(1.94786 0.808684 -2.36836e-19)
(1.67978 0.793791 -1.3318e-18)
(2.14681 0.938556 3.37601e-19)
(2.2342 0.826537 2.01176e-18)
(2.15 0.919246 -2.16177e-18)
(2.16214 0.950582 -2.66968e-18)
(2.14689 0.873015 2.62723e-19)
(2.21382 0.867699 7.96252e-19)
(2.13727 0.802818 -1.0272e-19)
(2.19084 0.834731 1.17769e-18)
(2.1343 0.715915 -1.58249e-19)
(2.1901 0.754904 4.66968e-19)
(2.14392 0.61905 5.02024e-19)
(2.19088 0.67092 -6.50831e-19)
(2.16936 0.519186 -8.70193e-19)
(2.20605 0.577928 4.64229e-20)
(2.211 0.423449 -1.08799e-18)
(2.23593 0.484784 -5.5401e-19)
(2.26619 0.337455 3.25161e-20)
(2.28103 0.39612 5.11765e-20)
(2.3284 0.327652 2.58141e-20)
(2.32985 0.264131 4.19295e-21)
(1.98618 0.746863 1.7204e-19)
(1.7264 0.720622 8.71091e-21)
(2.22869 0.889459 -7.75394e-19)
(2.29602 0.790882 -1.24852e-19)
(2.24931 0.880977 -3.10674e-19)
(2.24926 0.913509 1.54106e-19)
(2.25542 0.847108 1.72676e-18)
(2.30736 0.837076 2.05536e-19)
(2.25037 0.792291 1.86393e-18)
(2.29088 0.817057 1.4252e-18)
(2.24733 0.722077 9.47927e-20)
(2.29323 0.750168 5.53506e-19)
(2.25207 0.641655 -1.17962e-18)
(2.29249 0.681509 -7.43082e-19)
(2.26825 0.556204 4.30695e-19)
(2.30221 0.602456 -5.04207e-19)
(2.29742 0.47138 5.18714e-19)
(2.32278 0.521358 1.23652e-18)
(2.33882 0.391964 3.94507e-20)
(2.35662 0.440808 4.6739e-20)
(2.39316 0.377125 -1.59878e-22)
(2.38983 0.321857 1.24675e-18)
(2.02282 0.700386 -2.82183e-19)
(1.76649 0.657202 -7.46471e-19)
(2.29418 0.852758 7.80529e-19)
(2.35048 0.756136 -1.1178e-19)
(2.32626 0.85011 6.48559e-19)
(2.32262 0.881376 2.71844e-20)
(2.34024 0.823234 -2.32845e-19)
(2.38424 0.809855 -1.9293e-19)
(2.34048 0.778376 2.40057e-19)
(2.37223 0.799845 5.44967e-19)
(2.33977 0.720019 -1.51381e-19)
(2.37806 0.741413 -6.24089e-19)
(2.34324 0.652164 -8.28433e-20)
(2.37773 0.684351 3.55459e-19)
(2.35468 0.578529 1.26942e-19)
(2.38523 0.616108 -1.02869e-18)
(2.37629 0.503551 8.95766e-19)
(2.40042 0.545299 1.15717e-18)
(2.40895 0.431111 1.77507e-20)
(2.42735 0.472272 5.88284e-19)
(2.4568 0.414255 -4.41684e-19)
(2.45543 0.367634 -8.9875e-19)
(2.05123 0.637387 -6.4996e-19)
(1.74614 0.575508 -5.93298e-19)
(2.3482 0.810642 -8.90093e-19)
(2.3711 0.713137 1.14234e-19)
(2.39025 0.819895 -7.74617e-19)
(2.37506 0.848655 -1.08779e-18)
(2.4103 0.800806 5.10166e-19)
(2.44513 0.784346 4.63257e-19)
(2.41476 0.764056 -1.78884e-19)
(2.4391 0.783393 -1.20853e-19)
(2.41686 0.714622 -2.20714e-19)
(2.4492 0.731259 -1.94385e-19)
(2.42077 0.656344 -4.43527e-19)
(2.45033 0.683423 6.09711e-19)
(2.43012 0.592087 -2.31083e-19)
(2.45742 0.623488 -7.3698e-19)
(2.44736 0.52549 9.09796e-19)
(2.46961 0.561272 -6.08762e-21)
(2.47398 0.459648 2.67268e-19)
(2.49222 0.494499 6.18012e-20)
(2.51726 0.441588 3.40433e-19)
(2.51029 0.397945 4.71871e-19)
(2.04826 0.597778 1.10185e-19)
(1.74865 0.522866 6.17943e-19)
(2.38212 0.77913 4.91388e-20)
(2.39041 0.689488 1.2227e-19)
(2.44065 0.794862 -1.04655e-19)
(2.42052 0.82385 -8.60619e-19)
(2.46829 0.78105 -1.08605e-19)
(2.49568 0.764275 6.00869e-19)
(2.4774 0.750389 -1.26289e-19)
(2.49584 0.768216 4.76779e-19)
(2.48268 0.707882 5.55771e-19)
(2.50995 0.720933 -2.66777e-19)
(2.4878 0.657133 4.64853e-19)
(2.51319 0.680199 4.70811e-19)
(2.49651 0.600381 -5.92632e-19)
(2.52091 0.626932 -4.65705e-19)
(2.5114 0.540661 -8.71856e-19)
(2.53176 0.571982 -1.99628e-19)
(2.53439 0.480384 8.91348e-20)
(2.55178 0.51067 -1.01773e-18)
(2.57408 0.461299 1.12948e-18)
(2.56642 0.423074 -4.41504e-19)
(2.05023 0.568084 6.7882e-19)
(1.76303 0.476073 1.84515e-18)
(2.41051 0.754975 -6.86926e-19)
(2.40822 0.664997 -4.77388e-19)
(2.48356 0.775041 -3.89121e-19)
(2.46362 0.798194 -6.65438e-19)
(2.51793 0.764421 1.20142e-18)
(2.54057 0.747093 6.01436e-19)
(2.53152 0.737619 4.37917e-19)
(2.54647 0.753245 6.00705e-19)
(2.54002 0.700267 -4.29429e-19)
(2.56331 0.710767 -2.26483e-19)
(2.54676 0.655453 -3.60941e-19)
(2.56871 0.675262 3.44169e-19)
(2.55577 0.605027 -1.02298e-19)
(2.57736 0.627731 -7.23334e-20)
(2.56965 0.55124 -2.62158e-19)
(2.58802 0.578968 -6.44039e-20)
(2.59066 0.495868 -2.35313e-19)
(2.60664 0.52304 -4.41119e-19)
(2.62917 0.476289 1.85276e-19)
(2.62115 0.440525 2.58676e-19)
(2.05459 0.523672 9.79641e-19)
(1.7386 0.424108 1.21856e-18)
(2.43352 0.722382 -4.39748e-19)
(2.4003 0.632995 5.02197e-19)
(2.52137 0.752676 1.04661e-19)
(2.49364 0.768281 4.73662e-19)
(2.56198 0.74766 0)
(2.57697 0.73 -5.72935e-19)
(2.57957 0.724756 4.28664e-20)
(2.59104 0.737201 -2.81747e-20)
(2.59091 0.691972 4.8963e-19)
(2.61041 0.700167 9.30155e-20)
(2.59927 0.652165 6.82648e-19)
(2.61812 0.668895 4.20701e-19)
(2.60904 0.607274 -3.5167e-20)
(2.62779 0.626803 4.10916e-19)
(2.62286 0.558799 -2.09143e-19)
(2.6391 0.583491 -3.46831e-19)
(2.64298 0.508209 -9.16049e-20)
(2.65708 0.532978 9.15716e-22)
(2.67941 0.487832 -1.75137e-19)
(2.67002 0.456893 -1.18468e-19)
(2.03798 0.48808 8.30913e-19)
(1.72254 0.379583 6.63036e-19)
(2.44141 0.69094 1.36767e-18)
(2.38566 0.604126 9.68549e-19)
(2.5503 0.729965 -2.98756e-20)
(2.51586 0.738748 8.10722e-19)
(2.59974 0.730261 -6.56991e-19)
(2.60688 0.713045 -1.18644e-18)
(2.62205 0.710965 9.216e-21)
(2.63007 0.719639 2.31034e-19)
(2.63607 0.68252 -1.16417e-20)
(2.65153 0.688355 1.31208e-19)
(2.64602 0.647554 1.50391e-19)
(2.66151 0.661126 6.09841e-20)
(2.65694 0.608035 1.81637e-19)
(2.67246 0.624841 5.93802e-20)
(2.67148 0.564579 -1.75027e-19)
(2.68532 0.586752 -7.18483e-20)
(2.69163 0.518023 -6.3104e-20)
(2.70391 0.541486 1.52562e-19)
(2.72708 0.497433 -7.61338e-20)
(2.7177 0.468878 0)
(2.01523 0.456638 7.28226e-19)
(1.70959 0.337504 5.67925e-19)
(2.4389 0.660221 3.88157e-19)
(2.36419 0.57302 -5.24397e-19)
(2.57117 0.706553 -4.29422e-20)
(2.5313 0.704796 7.79706e-19)
(2.63122 0.71127 -4.33692e-19)
(2.63117 0.691934 -6.11136e-19)
(2.65864 0.695254 3.6311e-19)
(2.66313 0.697988 2.57795e-19)
(2.67508 0.671463 2.11517e-19)
(2.68566 0.673822 -1.77878e-19)
(2.68684 0.641973 -3.03321e-20)
(2.69796 0.651992 -4.49892e-21)
(2.69963 0.608231 -1.79891e-19)
(2.71103 0.62265 -4.83692e-19)
(2.71604 0.569766 2.34832e-19)
(2.72689 0.590124 1.47513e-19)
(2.73761 0.526629 1.64786e-19)
(2.74792 0.549995 3.78758e-19)
(2.77389 0.506577 -5.75691e-20)
(2.76366 0.477994 6.23333e-19)
(1.99146 0.422209 -5.61165e-19)
(1.69584 0.294792 -7.38682e-19)
(2.42791 0.622161 -2.34087e-19)
(2.33129 0.532882 5.22276e-20)
(2.58368 0.675303 3.86098e-19)
(2.53436 0.658574 3.45768e-19)
(2.6547 0.685518 0)
(2.64385 0.659364 0)
(2.687 0.675392 -2.34236e-19)
(2.68375 0.668617 -1.62456e-21)
(2.70615 0.658095 -4.10669e-19)
(2.70901 0.655076 1.96526e-19)
(2.7206 0.6359 -4.04896e-19)
(2.72487 0.641784 -2.0132e-19)
(2.73677 0.60899 -2.23816e-19)
(2.74239 0.621286 -9.07161e-20)
(2.7568 0.575797 2.67194e-19)
(2.76361 0.594978 1.06927e-19)
(2.78131 0.536211 2.04429e-19)
(2.789 0.559816 -3.0291e-20)
(2.81762 0.517449 -2.40009e-19)
(2.80681 0.490803 -2.41251e-20)
(1.96154 0.380428 -2.22929e-19)
(1.68018 0.245441 2.13926e-19)
(2.40196 0.569099 6.17477e-19)
(2.28472 0.475396 -6.89182e-19)
(2.57955 0.627671 0)
(2.51452 0.590368 -2.88947e-21)
(2.66168 0.646466 -1.44061e-21)
(2.63109 0.608208 5.15364e-19)
(2.70039 0.646929 3.94194e-19)
(2.68068 0.628997 -4.0268e-19)
(2.72439 0.641625 4.42224e-19)
(2.71225 0.632382 4.49145e-19)
(2.74462 0.630202 1.01349e-19)
(2.73717 0.631755 -6.69721e-20)
(2.76734 0.611499 2.20771e-19)
(2.76434 0.621875 3.93921e-19)
(2.7935 0.583752 -1.77848e-19)
(2.79465 0.602132 4.05758e-19)
(2.8226 0.547214 -4.54994e-19)
(2.82691 0.571333 -2.99454e-19)
(2.85974 0.529793 2.50565e-19)
(2.85216 0.502949 1.2081e-18)
(1.92988 0.322028 -1.6953e-19)
(1.68336 0.166193 -1.78554e-19)
(2.35277 0.489011 -1.38081e-18)
(2.2064 0.376757 -1.37375e-18)
(2.54441 0.55491 4.07028e-19)
(2.44632 0.495181 -2.7612e-19)
(2.63757 0.59034 2.24406e-19)
(2.56703 0.54004 4.92234e-19)
(2.68752 0.610443 -4.3066e-19)
(2.63463 0.583367 -2.31892e-19)
(2.72291 0.622968 0)
(2.68354 0.608643 -1.06671e-19)
(2.75541 0.625621 1.73298e-19)
(2.72733 0.623329 7.75376e-20)
(2.78964 0.616023 5.77073e-19)
(2.77213 0.623953 -1.57811e-20)
(2.82513 0.593605 3.64451e-19)
(2.81649 0.610229 1.18158e-19)
(2.86103 0.559875 3.46859e-19)
(2.8589 0.583528 -9.83036e-20)
(2.89875 0.542266 9.36972e-21)
(2.88956 0.517742 3.80994e-19)
(1.80864 0.222384 -1.22393e-18)
(1.69075 -0.0112539 -2.76875e-18)
(2.21778 0.399585 -4.46884e-19)
(2.07157 0.322291 2.62693e-20)
(2.41678 0.483382 -3.21467e-19)
(2.28903 0.385532 -2.56801e-19)
(2.53527 0.537289 1.15407e-19)
(2.43368 0.456709 -6.00248e-21)
(2.61421 0.578402 7.03494e-20)
(2.53009 0.531022 5.1287e-19)
(2.67913 0.609179 -5.13158e-20)
(2.60974 0.582991 -3.57917e-19)
(2.73909 0.623784 -1.00724e-19)
(2.68483 0.61354 5.89203e-19)
(2.79493 0.620737 -4.90131e-19)
(2.75526 0.622688 -8.77951e-19)
(2.84572 0.602707 -3.22052e-19)
(2.81795 0.614126 -2.59925e-19)
(2.89275 0.572738 -4.43848e-19)
(2.87386 0.592696 5.66473e-19)
(2.9261 0.55823 -7.59541e-19)
(2.93291 0.534412 -2.00554e-19)
(2.21795 -0.0792266 -1.58603e-18)
(1.94567 -1.36904 2.07257e-18)
(2.30875 0.0772113 5.01564e-19)
(1.04273 -0.0970354 -9.1268e-19)
(2.41252 0.260863 0)
(1.30576 0.0170962 0)
(2.48613 0.394298 3.17632e-19)
(1.62731 0.0902076 0)
(2.5492 0.50069 1.84085e-19)
(1.86615 0.204325 -1.53807e-19)
(2.61962 0.575361 1.71916e-19)
(2.08507 0.304587 -4.71684e-19)
(2.69526 0.611909 -1.99283e-20)
(2.28746 0.381062 4.86021e-19)
(2.76804 0.618882 -7.307e-19)
(2.45912 0.436128 -4.31199e-19)
(2.83424 0.607892 5.04071e-19)
(2.59828 0.471529 2.4476e-20)
(2.89562 0.585853 4.33394e-19)
(2.71293 0.490491 5.57071e-19)
(2.81978 0.503301 -2.80149e-19)
(2.95104 0.563698 -1.68218e-19)
(4.66299 -5.39179 -1.32883e-18)
(5.69789 -6.88252 5.28601e-19)
(4.04213 -4.90175 4.21958e-19)
(5.5388 -3.54822 -2.00903e-19)
(3.82419 -4.07294 0)
(5.18892 -3.87637 1.17899e-18)
(3.58092 -3.22427 -3.89505e-19)
(4.64176 -3.27881 5.47724e-20)
(3.42524 -2.53599 -7.65978e-19)
(4.15438 -2.67419 -3.87998e-19)
(3.33311 -2.00466 1.07777e-19)
(3.82139 -2.1598 -4.00909e-19)
(3.27095 -1.59911 4.31873e-19)
(3.60536 -1.73084 3.58387e-19)
(3.22277 -1.28126 -1.46749e-19)
(3.46316 -1.38364 -5.47284e-20)
(3.18137 -1.02764 1.17754e-19)
(3.36044 -1.10432 0)
(3.14282 -0.8229 -2.33129e-20)
(3.28089 -0.87724 -1.52388e-19)
(3.21065 -0.698399 1.41165e-19)
(3.09369 -0.643139 -1.60885e-19)
(5.16828 -2.50142 2.42507e-18)
(4.77576 -3.99938 1.00853e-17)
(5.65625 -3.06954 -2.15233e-18)
(5.61601 -1.02193 -8.90821e-18)
(5.47868 -3.11807 1.18845e-18)
(6.24299 -2.43232 9.67342e-19)
(4.96522 -2.87469 9.82629e-20)
(5.8694 -2.40265 1.16853e-18)
(4.46021 -2.45154 -3.48608e-21)
(5.25947 -2.21545 2.67529e-21)
(4.06828 -1.99636 -3.2024e-19)
(4.68441 -1.92444 -1.44528e-19)
(3.79291 -1.58897 -1.08398e-19)
(4.23849 -1.59764 -2.32604e-19)
(3.60058 -1.25468 1.22642e-19)
(3.91867 -1.29017 9.88003e-20)
(3.45936 -0.990107 -2.46611e-19)
(3.68894 -1.02476 0)
(3.35101 -0.777342 2.95347e-20)
(3.52591 -0.805353 -3.39897e-19)
(3.39762 -0.629779 2.38395e-19)
(3.24062 -0.592511 2.06141e-20)
(4.54172 -0.811652 -2.09752e-18)
(3.56497 -2.11882 -1.20005e-17)
(5.84051 -0.989951 -7.50976e-18)
(4.87508 0.545824 4.48373e-18)
(6.12673 -1.38895 9.48023e-19)
(6.17091 -0.833272 -6.58458e-19)
(5.84386 -1.7087 1.18469e-18)
(6.19614 -0.988902 -3.79478e-18)
(5.32011 -1.75703 -7.7731e-21)
(5.84924 -1.24075 -7.40295e-19)
(4.78417 -1.60747 -6.01739e-20)
(5.31428 -1.28346 -8.64021e-21)
(4.33894 -1.3631 -3.70651e-20)
(4.78693 -1.18937 -5.10957e-20)
(4.00284 -1.10491 7.86232e-20)
(4.35018 -1.02224 6.9761e-20)
(3.75767 -0.86968 -2.09517e-20)
(4.0171 -0.839343 -2.14824e-19)
(3.57769 -0.677378 -9.06743e-20)
(3.7666 -0.664085 -8.71457e-20)
(3.58666 -0.520847 -3.22674e-20)
(3.42504 -0.50567 -3.30721e-20)
(3.63331 -0.0709663 -8.71065e-18)
(2.45282 -1.15042 -1.74562e-17)
(5.30866 0.272326 1.21803e-17)
(4.03323 1.13746 1.24848e-17)
(5.99945 0.00375025 -6.0023e-18)
(5.61035 0.282451 -1.81055e-19)
(6.0504 -0.432591 -6.2275e-18)
(5.92926 0.247035 -3.73307e-18)
(5.72943 -0.755909 -8.10077e-19)
(5.90236 -0.199207 1.66385e-18)
(5.25073 -0.908712 0)
(5.55188 -0.454334 -2.64484e-19)
(4.76667 -0.900902 0)
(5.0998 -0.58518 -9.87905e-19)
(4.35218 -0.799081 -1.88554e-19)
(4.65299 -0.596562 3.10391e-19)
(4.02631 -0.662622 -2.93481e-19)
(4.27205 -0.538511 2.32262e-20)
(3.78182 -0.522167 1.6344e-20)
(3.97138 -0.448239 -3.2325e-19)
(3.74386 -0.358365 1.12699e-19)
(3.56084 -0.391717 6.88094e-20)
(2.74179 0.164505 1.73724e-18)
(1.53749 -0.71832 8.3938e-21)
(4.55784 0.864195 1.94744e-18)
(3.32978 1.24527 1.39164e-18)
(5.4957 0.865944 1.55664e-18)
(4.97985 0.919121 -4.38021e-20)
(5.79638 0.554667 3.45175e-18)
(5.44128 1.06906 5.45951e-18)
(5.70418 0.177481 2.33065e-18)
(5.62662 0.630323 -1.24804e-18)
(5.38525 -0.132938 -1.15388e-18)
(5.4602 0.318049 -1.93747e-18)
(4.97681 -0.311737 -8.63819e-19)
(5.14931 0.0547637 2.96183e-19)
(4.57068 -0.373811 6.25969e-19)
(4.77327 -0.0986893 3.07986e-19)
(4.21915 -0.359281 1.59016e-19)
(4.40999 -0.165842 6.63437e-19)
(3.93839 -0.306596 -2.97168e-19)
(4.09839 -0.171999 -2.02099e-19)
(3.85121 -0.144713 -1.22584e-19)
(3.68631 -0.240696 3.27584e-20)
(1.99737 0.225515 -4.62966e-19)
(0.811014 -0.543885 -1.07911e-19)
(3.84453 1.13051 -3.86593e-19)
(2.75102 1.21195 0)
(4.89903 1.34588 3.35536e-18)
(4.38892 1.27508 5.058e-18)
(5.34151 1.19501 1.51306e-18)
(4.92659 1.55794 9.46011e-20)
(5.41388 0.875574 -5.50565e-18)
(5.22284 1.20203 -3.6266e-18)
(5.25522 0.537413 -6.7763e-19)
(5.18506 0.919904 2.21518e-19)
(4.96773 0.266558 1.41653e-18)
(5.00581 0.612051 2.78803e-19)
(4.62969 0.0879259 3.0637e-19)
(4.72708 0.379892 -7.82531e-19)
(4.30319 -0.00649691 5.24052e-19)
(4.42195 0.220531 6.75515e-20)
(4.02251 -0.0426983 6.7794e-20)
(4.13478 0.128566 5.01201e-19)
(3.89385 0.0927775 8.99915e-20)
(3.74826 -0.0485328 -7.79639e-20)
(1.4028 0.221878 3.47793e-19)
(0.231189 -0.501074 2.18106e-20)
(3.2362 1.25445 4.93941e-18)
(2.2529 1.14434 0)
(4.33758 1.61744 1.83689e-18)
(3.84718 1.481 6.12427e-18)
(4.85117 1.59142 -4.66077e-18)
(4.44233 1.84537 -3.81169e-18)
(5.01848 1.34974 1.69158e-18)
(4.79355 1.57726 2.367e-18)
(4.97753 1.04341 1.1686e-18)
(4.83499 1.35061 -1.73268e-18)
(4.80222 0.751223 -1.79999e-18)
(4.75477 1.04725 -7.41594e-20)
(4.55087 0.513032 -1.1393e-18)
(4.56484 0.78673 7.81519e-20)
(4.27864 0.343168 -1.74268e-20)
(4.32911 0.574274 -6.95312e-19)
(4.02622 0.233439 6.35423e-19)
(4.08599 0.418906 5.15983e-19)
(3.86401 0.318912 4.46204e-19)
(3.78184 0.156309 7.05328e-19)
(0.933728 0.181376 -3.283e-19)
(-0.194358 -0.521021 1.6619e-19)
(2.73495 1.30506 5.25351e-19)
(1.83891 1.06882 -6.84207e-19)
(3.84605 1.77506 1.026e-18)
(3.365 1.5975 2.56074e-20)
(4.39158 1.83909 2.59434e-18)
(4.00147 2.01411 3.0271e-18)
(4.60773 1.66384 -7.73938e-19)
(4.37707 1.82104 -1.01724e-18)
(4.64126 1.40341 -3.15489e-18)
(4.46576 1.64845 -3.63948e-18)
(4.55026 1.12345 1.80368e-18)
(4.45427 1.36862 9.4224e-19)
(4.37764 0.865952 5.78558e-19)
(4.33471 1.10808 1.53658e-19)
(4.16722 0.654671 -3.61626e-19)
(4.16351 0.871754 -8.03609e-19)
(3.95447 0.496373 3.3777e-19)
(3.97261 0.678266 -3.2416e-19)
(3.78864 0.535509 1.12716e-18)
(3.73134 0.376611 -3.75197e-19)
(0.558302 0.133857 -1.02212e-19)
(-0.515769 -0.559949 2.70967e-20)
(2.31136 1.31349 -1.26376e-18)
(1.48499 0.998832 -6.34723e-19)
(3.41262 1.86171 1.72917e-18)
(2.93517 1.65801 -5.64847e-19)
(3.9735 1.99374 -7.65629e-20)
(3.60078 2.10752 -3.69272e-20)
(4.21429 1.87123 -3.77734e-18)
(3.98469 1.97734 6.55054e-19)
(4.2927 1.65387 0)
(4.10196 1.84981 6.67838e-19)
(4.25984 1.39691 -5.98223e-19)
(4.1368 1.59801 1.77635e-18)
(4.14966 1.14087 -1.10257e-18)
(4.07007 1.35021 -2.0411e-18)
(3.99655 0.911426 -8.35245e-19)
(3.95294 1.10699 4.30976e-19)
(3.83118 0.720039 2.37489e-19)
(3.80913 0.892328 -4.37201e-19)
(3.66294 0.727377 1.38363e-18)
(3.63782 0.555871 5.22693e-19)
(0.247792 0.0954596 -4.45565e-19)
(-0.765159 -0.594565 2.8163e-19)
(1.94244 1.29982 6.3776e-20)
(1.16123 0.935004 5.08069e-18)
(3.02311 1.90216 -2.40426e-18)
(2.54256 1.68061 -3.38036e-18)
(3.59016 2.08529 6.31005e-19)
(3.2315 2.14961 -2.68724e-18)
(3.84442 2.00541 5.1118e-18)
(3.61653 2.07433 4.85777e-18)
(3.95067 1.82499 2.33176e-18)
(3.75291 1.98057 -1.30996e-18)
(3.9577 1.59231 6.96957e-19)
(3.8183 1.75592 1.78363e-18)
(3.89483 1.34616 -8.07975e-19)
(3.79072 1.52447 -3.22748e-19)
(3.78915 1.11149 8.88731e-19)
(3.71721 1.2839 -3.55418e-21)
(3.66656 0.903717 4.30533e-19)
(3.61538 1.05945 8.54333e-19)
(3.50066 0.875817 -1.06726e-19)
(3.51776 0.709586 -2.20322e-18)
(-0.0339491 0.0520515 5.35967e-18)
(-1.00928 -0.64514 4.85725e-18)
(1.59382 1.26205 2.40924e-18)
(0.840128 0.862243 1.02616e-18)
(2.65416 1.90655 -3.73872e-18)
(2.16856 1.6675 -4.10896e-18)
(3.22853 2.13075 6.90007e-19)
(2.87847 2.15172 0)
(3.49404 2.08593 -9.98331e-19)
(3.26604 2.12637 1.51908e-18)
(3.61951 1.93529 -2.18849e-18)
(3.41929 2.0574 -1.98316e-18)
(3.65469 1.72449 9.38898e-19)
(3.5057 1.85765 0)
(3.62799 1.49136 4.54079e-19)
(3.50834 1.64219 2.01244e-18)
(3.56141 1.25924 -1.33531e-19)
(3.46994 1.40919 -8.06849e-19)
(3.47544 1.04517 4.7136e-19)
(3.40496 1.18317 -7.50696e-19)
(3.32573 0.989998 -4.41982e-19)
(3.36368 0.846062 -1.18416e-18)
(-0.296036 -0.00409369 9.91547e-19)
(-1.21325 -0.694492 4.80706e-18)
(1.26471 1.20653 -5.10014e-18)
(0.542624 0.78647 -4.97985e-19)
(2.30302 1.88141 -7.80442e-19)
(1.81415 1.62534 -2.72407e-18)
(2.88353 2.13924 6.72082e-19)
(2.53693 2.12217 -1.87962e-18)
(3.16008 2.1249 8.27731e-19)
(2.92925 2.14149 1.25776e-19)
(3.30067 1.99853 0)
(3.09861 2.09155 1.98274e-18)
(3.35722 1.80676 8.5729e-19)
(3.20082 1.91405 -2.07512e-18)
(3.35901 1.58674 1.06452e-18)
(3.22805 1.71285 -2.40404e-21)
(3.32496 1.36032 -1.40224e-18)
(3.21879 1.48894 0)
(3.27237 1.14495 -1.71433e-18)
(3.1859 1.26539 -1.56168e-18)
(3.13965 1.06533 1.04305e-18)
(3.20381 0.942946 5.95927e-20)
(-0.539862 -0.0574581 3.93908e-18)
(-1.3869 -0.74108 1.20081e-19)
(0.949431 1.13682 2.0455e-18)
(0.253624 0.702821 3.65555e-19)
(1.96271 1.82809 -3.91447e-18)
(1.46649 1.55432 2.7495e-18)
(2.54883 2.11559 -2.66374e-18)
(2.20089 2.06446 -5.35027e-18)
(2.83756 2.12884 1.1386e-18)
(2.60034 2.12481 6.71855e-19)
(2.99201 2.02298 3.64054e-19)
(2.78695 2.09038 2.91361e-18)
(3.06655 1.84768 -3.15163e-18)
(2.90308 1.93258 -1.99193e-18)
(3.09227 1.6397 -1.0553e-18)
(2.9519 1.7435 -1.67042e-18)
(3.08636 1.41999 1.44459e-20)
(2.96795 1.52856 5.48254e-19)
(3.06351 1.20561 8.26904e-19)
(2.96324 1.30964 -1.21552e-18)
(2.94777 1.10242 1.25944e-18)
(3.02394 0.993995 7.14774e-19)
(-0.776806 -0.118195 -3.48411e-18)
(-1.56069 -0.808496 2.07301e-18)
(0.632494 1.04553 8.16948e-19)
(-0.0411127 0.601186 -3.18644e-19)
(1.61784 1.74809 2.08909e-18)
(1.11869 1.45347 2.57322e-18)
(2.2137 2.06186 -2.67173e-18)
(1.85987 1.974 -2.75083e-18)
(2.5192 2.10123 2.2616e-18)
(2.27168 2.07597 2.63096e-19)
(2.68932 2.01376 1.09833e-18)
(2.47907 2.05705 2.41586e-18)
(2.78138 1.85285 -5.45806e-19)
(2.61022 1.91739 6.36479e-19)
(2.82896 1.65554 -3.18412e-19)
(2.67989 1.73879 -1.31055e-18)
(2.84864 1.44282 -4.69221e-19)
(2.71966 1.53231 9.30775e-19)
(2.85232 1.2314 -1.05947e-18)
(2.74085 1.31993 -7.66337e-19)
(2.75467 1.11095 3.23574e-19)
(2.85135 1.03101 -9.61967e-19)
(-1.00648 -0.192018 5.46189e-18)
(-1.7151 -0.872841 -1.10252e-18)
(0.320386 0.933461 1.17719e-18)
(-0.330922 0.491494 8.20427e-18)
(1.27421 1.63844 -1.77739e-18)
(0.771834 1.32737 -4.16896e-18)
(1.87695 1.97671 -1.37464e-19)
(1.51339 1.85488 1.28329e-18)
(2.20144 2.04277 2.21715e-19)
(1.93975 1.99561 -1.60627e-18)
(2.38941 1.9731 2.14047e-18)
(2.17027 1.99265 -4.08419e-19)
(2.50011 1.82525 7.7721e-20)
(2.31891 1.86996 2.24613e-18)
(2.56938 1.63756 -3.17001e-19)
(2.41058 1.70088 -1.05196e-18)
(2.61386 1.4323 8.41092e-19)
(2.47483 1.5027 7.62104e-19)
(2.64351 1.22671 4.74263e-19)
(2.52237 1.29833 -3.74658e-19)
(2.56843 1.09539 2.56566e-19)
(2.6663 1.03678 0)
(-1.22988 -0.271939 1.05446e-18)
(-1.86024 -0.939524 -3.04607e-19)
(0.008597 0.803006 4.08636e-18)
(-0.623249 0.369719 2.54094e-18)
(0.924968 1.50135 -1.66362e-18)
(0.418825 1.17545 6.82797e-20)
(1.53223 1.86041 1.09722e-19)
(1.15369 1.70522 -6.87897e-19)
(1.87794 1.95292 -2.32891e-18)
(1.59636 1.88186 -1.37992e-18)
(2.08698 1.90104 -5.97199e-19)
(1.85304 1.89605 -1.89691e-18)
(2.21931 1.76561 1.46306e-18)
(2.02371 1.78962 1.99098e-18)
(2.3124 1.58707 -1.88397e-19)
(2.14091 1.62985 -3.51987e-19)
(2.38317 1.38986 -2.88296e-19)
(2.23262 1.44051 6.52129e-19)
(2.44083 1.19133 -6.26313e-19)
(2.30801 1.24513 -1.02449e-18)
(2.38515 1.04431 5.6211e-19)
(2.50854 1.01787 1.75551e-19)
(-1.45394 -0.360553 7.76426e-19)
(-2.00503 -1.01945 5.07466e-18)
(-0.31095 0.6519 -1.19061e-18)
(-0.924397 0.228866 -2.42264e-18)
(0.561727 1.33441 1.06399e-18)
(0.051854 0.992956 1.60366e-18)
(1.1702 1.71023 -2.10647e-18)
(0.77179 1.51992 -2.43723e-18)
(1.53928 1.82868 -8.95184e-19)
(1.23061 1.72921 3.07102e-19)
(1.77405 1.79512 2.60389e-19)
(1.51687 1.76225 -1.78898e-19)
(1.93347 1.6722 4.18708e-19)
(1.71635 1.67206 -1.28357e-20)
(2.05522 1.50342 3.48139e-19)
(1.86567 1.52281 1.07256e-19)
(2.15568 1.31599 1.02264e-19)
(1.99044 1.34479 4.67615e-19)
(2.24137 1.12704 4.98108e-20)
(2.09686 1.16253 -2.07774e-19)
(2.20911 0.971553 1.48094e-19)
(2.32068 0.949486 4.93816e-19)
(-1.68379 -0.46437 2.18058e-18)
(-2.15151 -1.11217 1.61442e-18)
(-0.64233 0.476053 -4.77635e-20)
(-1.2363 0.0679514 -1.55361e-18)
(0.17823 1.1335 -1.51724e-18)
(-0.334277 0.778364 1.04538e-18)
(0.781245 1.52067 -2.94773e-19)
(0.358867 1.29411 -9.36051e-19)
(1.17382 1.66353 1.07032e-18)
(0.829642 1.52923 1.10605e-18)
(1.43992 1.64878 -4.6573e-19)
(1.14813 1.58101 1.05294e-20)
(1.63468 1.53962 -3.33016e-19)
(1.38527 1.5076 -2.71709e-19)
(1.79299 1.38345 1.65934e-19)
(1.57687 1.37283 0)
(1.92872 1.21041 2.74094e-19)
(1.74341 1.21232 1.69684e-19)
(2.04554 1.03732 -1.84683e-19)
(1.88659 1.05029 -7.41753e-21)
(2.03847 0.879187 -1.61585e-19)
(2.15639 0.893831 8.49234e-20)
(-1.92383 -0.586726 -1.76324e-18)
(-2.30489 -1.221 9.90679e-19)
(-0.990522 0.272692 -8.75154e-19)
(-1.56398 -0.11421 -3.61456e-18)
(-0.234099 0.894204 1.80897e-18)
(-0.748558 0.530232 2.35996e-18)
(0.352386 1.28366 2.68634e-19)
(-0.0986274 1.02079 -5.23972e-19)