/*--------------------------------*- C++ -*----------------------------------*\
| =========                 |                                                 |
| \\      /  F ield         | OpenFOAM: The Open Source CFD Toolbox           |
|  \\    /   O peration     | Version:  3.0.1                                 |
|   \\  /    A nd           | Web:      www.OpenFOAM.org                      |
|    \\/     M anipulation  |                                                 |
\*---------------------------------------------------------------------------*/
FoamFile
{
    version     2.0;
    format      ascii;
    class       surfaceVectorField;
    location    "0.430752";
    object      Uf;
}
// * * * * * * * * * * * * * * * * * * * * * * * * * * * * * * * * * * * * * //

dimensions      [0 1 -1 0 0 0 0];

internalField   nonuniform List<vector> 
32369
(
(4.25995 -1.05706 8.91905e-19)
(4.54262 -1.06661 7.10074e-19)
(5.87884 -0.522802 3.13647e-18)
(4.2296 -0.636313 -9.68798e-20)
(3.2688 -0.83397 0)
(4.71165 -0.0784215 -4.06152e-19)
(4.06169 -0.559824 -1.53496e-19)
(3.60042 -0.863184 -1.66531e-19)
(4.31933 -0.0361588 9.12702e-20)
(3.79453 -0.510526 -1.86411e-20)
(3.61497 -0.845438 -2.29277e-19)
(3.94024 -0.0970003 -3.51083e-19)
(3.50324 -0.466483 -6.72387e-20)
(3.472 -0.769261 -2.14838e-19)
(3.60465 -0.161401 1.6307e-19)
(3.22887 -0.434943 0)
(3.27711 -0.677594 2.51406e-20)
(3.31023 -0.211737 0)
(2.99258 -0.418584 2.35338e-20)
(3.06668 -0.595045 3.74439e-21)
(3.05735 -0.249775 0)
(2.78985 -0.417661 8.14743e-21)
(2.87463 -0.54526 -6.63297e-20)
(2.84248 -0.283795 -7.22146e-20)
(2.61336 -0.428451 9.82273e-21)
(2.7001 -0.522395 8.57966e-21)
(2.65537 -0.318567 4.60568e-20)
(2.45383 -0.447631 -1.59515e-20)
(2.54353 -0.520053 -5.18251e-20)
(2.48948 -0.354004 0)
(2.41116 -0.528069 -6.5025e-20)
(2.34379 -0.379795 -4.44731e-21)
(2.2935 -0.467027 -1.49873e-19)
(2.66398 -0.529306 -2.73246e-19)
(3.12537 0.249914 -1.09765e-19)
(3.01584 -0.82257 9.53256e-20)
(2.27257 -0.211949 -1.4689e-18)
(3.22271 -0.94174 1.53779e-19)
(2.75852 -0.750291 1.06279e-18)
(3.313 -0.955739 -8.12148e-20)
(2.98787 -0.961533 1.01207e-19)
(3.28267 -0.896318 -1.56363e-19)
(3.06459 -1.02123 1.31421e-19)
(3.15643 -0.797907 2.5967e-20)
(3.05578 -0.982964 -8.49576e-20)
(2.98465 -0.702053 -8.79163e-20)
(2.96726 -0.882652 3.32724e-20)
(2.8117 -0.638361 -1.15053e-19)
(2.84296 -0.780756 -4.68954e-20)
(2.65414 -0.604986 -4.50785e-20)
(2.70545 -0.707373 -7.07488e-20)
(2.50911 -0.594986 -5.24046e-20)
(2.57469 -0.670418 -2.77921e-20)
(2.46206 -0.656863 4.80615e-21)
(2.3715 -0.597298 2.50033e-19)
(2.24219 0.556886 -1.11105e-18)
(2.63844 1.51433 -7.78256e-20)
(2.27494 -0.191461 -9.451e-19)
(2.11021 0.632772 -1.16639e-18)
(2.48458 -0.652906 1.20112e-18)
(2.29687 -0.109626 8.87374e-19)
(2.70151 -0.91522 4.73358e-19)
(2.46703 -0.586455 2.12483e-19)
(2.8444 -1.02492 1.99183e-19)
(2.61018 -0.886098 2.12164e-19)
(2.8926 -1.01238 -8.96717e-20)
(2.71673 -1.0203 -2.22262e-19)
(2.85365 -0.927917 1.23279e-19)
(2.75266 -1.01578 -2.69878e-20)
(2.76178 -0.831721 8.77599e-20)
(2.72579 -0.939386 1.3229e-19)
(2.65043 -0.762259 -3.2791e-20)
(2.65565 -0.852596 -4.37127e-20)
(2.53625 -0.729385 5.61874e-20)
(2.5707 -0.79498 5.85262e-21)
(2.49616 -0.774333 3.19037e-20)
(2.41753 -0.738943 9.2996e-20)
(2.43613 1.56233 -1.80107e-20)
(2.80904 2.43789 -4.96684e-18)
(2.21142 0.632276 1.29622e-19)
(2.36216 1.43688 3.71639e-18)
(2.21548 -0.0472728 0)
(2.25322 0.586157 -1.32615e-18)
(2.32356 -0.532615 -3.79964e-20)
(2.25595 -0.0553694 0)
(2.46274 -0.848738 -1.77378e-19)
(2.32614 -0.526836 1.23013e-20)
(2.57928 -0.996708 -2.55423e-19)
(2.42897 -0.835989 -4.33143e-19)
(2.63961 -1.00916 -1.16463e-19)
(2.51497 -0.972991 1.66422e-19)
(2.64016 -0.948278 6.02574e-20)
(2.56017 -0.981221 3.03797e-19)
(2.59816 -0.876142 3.70701e-20)
(2.56124 -0.926921 -1.59077e-19)
(2.53535 -0.830082 -2.09335e-20)
(2.53202 -0.871497 6.68092e-20)
(2.50272 -0.846417 -4.91321e-20)
(2.46337 -0.829009 2.82583e-20)
(2.84132 2.33656 -2.48225e-18)
(3.31497 3.00087 -4.76905e-18)
(2.4386 1.37856 2.77706e-18)
(2.74359 2.08017 2.08129e-18)
(2.26192 0.593229 -1.45069e-18)
(2.433 1.218 -1.44002e-18)
(2.22262 -0.0357258 3.69587e-20)
(2.27528 0.489746 0)
(2.26163 -0.504322 -2.16768e-19)
(2.22937 -0.106459 1.86467e-19)
(2.34692 -0.80447 -3.98008e-20)
(2.26179 -0.538266 -3.56522e-19)
(2.43305 -0.941789 5.65018e-19)
(2.32982 -0.802654 -2.07858e-19)
(2.49003 -0.959455 1.5279e-19)
(2.39902 -0.912934 6.84927e-19)
(2.51029 -0.921164 -1.53091e-19)
(2.44749 -0.919933 -3.344e-19)
(2.50373 -0.881846 5.92382e-20)
(2.46929 -0.888607 1.08262e-19)
(2.4841 -0.870337 -2.32489e-19)
(2.48029 -0.877339 -6.52337e-20)
(3.30126 2.90401 -1.42611e-18)
(3.73865 3.3096 -9.47157e-20)
(2.78639 1.98452 -1.7062e-18)
(3.10146 2.59437 -1.49542e-18)
(2.45781 1.16441 -1.50193e-19)
(2.69832 1.74761 1.12208e-18)
(2.27544 0.460718 1.29042e-19)
(2.41255 0.985154 -5.81165e-19)
(2.20899 -0.108892 1.13344e-19)
(2.25252 0.3277 6.65723e-19)
(2.22249 -0.521294 -4.82014e-19)
(2.19641 -0.195183 -1.2007e-18)
(2.28173 -0.769594 -1.40909e-19)
(2.21266 -0.559702 5.90401e-19)
(2.35286 -0.876229 3.27482e-19)
(2.26958 -0.762685 3.73736e-21)
(2.41166 -0.892069 -1.23251e-19)
(2.33751 -0.839427 6.51188e-21)
(2.45171 -0.8768 -1.34863e-19)
(2.39646 -0.846249 0)
(2.44898 -0.842897 1.17423e-20)
(2.47482 -0.880816 3.40404e-19)
(3.58178 3.18563 -2.09909e-19)
(3.93476 3.42952 -1.24886e-20)
(3.09813 2.44649 1.04395e-18)
(3.3992 2.97752 -8.93865e-20)
(2.69062 1.65687 8.96953e-19)
(2.98221 2.19939 9.28197e-19)
(2.40504 0.921804 -1.70138e-19)
(2.60231 1.44472 -1.61513e-18)
(2.23834 0.293289 -4.52444e-19)
(2.34293 0.750983 4.21076e-19)
(2.17345 -0.197689 -2.73719e-19)
(2.19878 0.168143 -1.47016e-18)
(2.18583 -0.534198 8.03391e-19)
(2.15135 -0.270491 1.59162e-18)
(2.24372 -0.721794 -3.20796e-19)
(2.17549 -0.552892 -5.52597e-20)
(2.3186 -0.79706 1.20807e-19)
(2.24195 -0.696989 -1.31489e-19)
(2.39171 -0.815394 1.43816e-19)
(2.32358 -0.748646 2.6195e-19)
(2.40738 -0.767692 -3.2035e-20)
(2.45489 -0.830542 -1.26391e-19)
(3.77907 3.3217 1.22129e-19)
(4.05204 3.42015 1.1129e-19)
(3.37357 2.79224 -3.23689e-19)
(3.6422 3.19682 1.20471e-18)
(2.93447 2.08276 -1.33915e-18)
(3.25409 2.55556 -2.19557e-18)
(2.57147 1.35119 -1.26627e-18)
(2.81386 1.85977 -8.63256e-19)
(2.31727 0.689761 -4.10139e-19)
(2.47239 1.15723 3.93118e-19)
(2.17505 0.145095 1.46233e-19)
(2.24662 0.539049 -3.27292e-19)
(2.13157 -0.257393 8.75426e-19)
(2.13267 0.0483521 7.7323e-19)
(2.16231 -0.513254 1.23111e-19)
(2.11415 -0.29624 7.89223e-19)
(2.23805 -0.645731 -3.36007e-20)
(2.16564 -0.500719 -2.60337e-19)
(2.33318 -0.701924 1.45286e-19)
(2.25775 -0.598762 -6.22511e-21)
(2.3679 -0.643783 -2.63997e-20)
(2.42975 -0.740405 -1.37905e-19)
(3.91891 3.35972 1.08684e-18)
(4.13726 3.33914 5.80702e-19)
(3.58873 3.01126 -2.71789e-19)
(3.80054 3.27113 2.3473e-18)
(3.17019 2.42592 -1.7541e-18)
(3.48596 2.814 -2.69762e-18)
(2.75671 1.73925 6.39756e-19)
(3.02688 2.21219 -4.35933e-19)
(2.42689 1.07385 5.53262e-19)
(2.62395 1.53431 7.50269e-19)
(2.21229 0.49916 2.14553e-19)
(2.32641 0.908429 6.4872e-19)
(2.11174 0.0503675 6.85409e-19)
(2.14894 0.387742 -9.2988e-19)
(2.108 -0.260075 4.84123e-19)
(2.0848 -0.0020106 6.46346e-19)
(2.17432 -0.444475 -2.6074e-19)
(2.11368 -0.257539 -6.13329e-19)
(2.28128 -0.5395 -1.49033e-19)
(2.20631 -0.401332 3.7887e-20)
(2.33526 -0.479459 -1.62052e-19)
(2.39861 -0.602564 1.7123e-19)
(4.00436 3.32482 1.66571e-18)
(4.18615 3.23849 9.59386e-19)
(3.75081 3.10408 6.20708e-19)
(3.89404 3.27875 1.14208e-18)
(3.37998 2.67319 -1.53785e-18)
(3.6535 2.96238 -4.6447e-19)
(2.94411 2.07323 -5.07719e-19)
(3.22022 2.48529 -9.36381e-19)
(2.55656 1.43754 8.56651e-19)
(2.78506 1.87039 4.94095e-19)
(2.27908 0.858177 -3.6117e-19)
(2.43196 1.2671 6.67759e-19)
(2.12455 0.382525 -1.1114e-18)
(2.19907 0.738609 -1.59971e-18)
(2.08402 0.0311467 -3.29637e-19)
(2.09117 0.320615 -7.55927e-20)
(2.13471 -0.198951 -3.85746e-19)
(2.09424 0.0244943 -5.66025e-19)
(2.24599 -0.334265 4.72939e-20)
(2.1807 -0.162234 5.52094e-19)
(2.32181 -0.278963 -4.43546e-19)
(2.38802 -0.416029 -2.6098e-19)
(4.04768 3.2593 4.01408e-19)
(4.19617 3.12969 3.51075e-19)
(3.85008 3.12825 3.753e-19)
(3.93637 3.2343 0)
(3.5314 2.83292 1.87854e-19)
(3.75477 3.01187 -5.64137e-19)
(3.11173 2.34274 -1.15117e-19)
(3.38102 2.67873 4.20366e-19)
(2.69796 1.76671 3.01305e-19)
(2.94648 2.15632 -3.96131e-19)
(2.37372 1.20905 -3.60425e-19)
(2.55938 1.59836 3.4386e-19)
(2.17308 0.727222 -6.63703e-19)
(2.28447 1.08493 -1.03201e-18)
(2.09774 0.349731 -2.37653e-19)
(2.13951 0.656887 7.66416e-20)
(2.12998 0.0817914 2.47826e-19)
(2.11753 0.332236 2.16928e-19)
(2.23976 -0.09332 1.65738e-19)
(2.19358 0.107736 2.49508e-19)
(2.34087 -0.0484825 -8.79635e-20)
(2.38931 -0.214729 4.38375e-19)
(4.05167 3.17114 -5.79374e-21)
(4.18219 3.01586 -1.86929e-19)
(3.88826 3.0914 -8.81737e-19)
(3.94161 3.16123 0)
(3.62975 2.90458 -3.57901e-19)
(3.79891 2.98958 -7.98283e-19)
(3.25978 2.53976 2.46155e-19)
(3.49758 2.78454 8.87018e-19)
(2.84436 2.04322 -4.37127e-19)
(3.09692 2.37653 -4.29831e-19)
(2.49392 1.53133 -1.96881e-19)
(2.70142 1.88169 3.13954e-19)
(2.26072 1.06485 -3.54961e-19)
(2.40395 1.40556 -3.89185e-19)
(2.15729 0.677783 5.20598e-19)
(2.23414 0.986268 9.82934e-19)
(2.1715 0.38212 2.06717e-19)
(2.19214 0.646372 -1.55438e-19)
(2.27454 0.170522 1.24326e-20)
(2.25587 0.390619 -1.82523e-19)
(2.39728 0.194136 4.92001e-19)
(2.42166 0.0154428 1.01178e-20)
(4.03379 3.07133 -1.84652e-19)
(4.15033 2.89143 -7.87901e-19)
(3.89305 3.02162 1.66142e-19)
(3.92647 3.07178 4.87121e-19)
(3.68095 2.90191 3.3155e-19)
(3.81121 2.92611 -6.20163e-21)
(3.37292 2.65704 3.4422e-19)
(3.56854 2.80412 1.42916e-19)
(2.99347 2.25938 2.30031e-19)
(3.23507 2.52239 3.92977e-19)
(2.63646 1.80715 1.8354e-19)
(2.85398 2.10587 -2.84599e-19)
(2.38864 1.37486 8.01944e-19)
(2.55494 1.68197 2.05672e-19)
(2.26805 0.994142 3.87683e-19)
(2.37598 1.28757 2.82675e-19)
(2.26786 0.681417 -5.43343e-19)
(2.32249 0.945082 1.37808e-19)
(2.36119 0.436972 2.24525e-19)
(2.37527 0.665598 -2.86694e-19)
(2.50727 0.432046 2.59147e-19)
(2.51482 0.250325 7.98482e-20)
(4.00627 2.96301 -4.44189e-20)
(4.10692 2.76302 -1.84291e-18)
(3.88538 2.93401 3.7225e-19)
(3.90022 2.97226 -5.46106e-20)
(3.70873 2.85461 -2.01616e-19)
(3.80869 2.83978 -2.38564e-19)
(3.46191 2.6953 1.6562e-19)
(3.61141 2.76835 5.25759e-19)
(3.1351 2.40528 -3.92488e-20)
(3.34795 2.58427 2.91018e-19)
(2.79872 2.02517 -3.15328e-19)
(3.01312 2.26411 -5.33096e-19)
(2.55501 1.63972 -3.15161e-19)
(2.73264 1.89957 -1.42658e-19)
(2.43092 1.27791 4.21243e-20)
(2.56198 1.54183 5.626e-21)
(2.42227 0.957952 4.3265e-19)
(2.50722 1.20716 4.01217e-19)
(2.50413 0.687036 -3.0069e-19)
(2.5512 0.911398 1.20856e-19)
(2.66933 0.644093 -2.00414e-19)
(2.63721 0.459358 -2.85748e-19)
(3.9667 2.84805 -1.63058e-18)
(4.06185 2.63853 -1.20566e-18)
(3.86347 2.83187 -8.82446e-19)
(3.86726 2.86691 9.75537e-20)
(3.71843 2.77828 4.85499e-19)
(3.79758 2.73764 3.19766e-20)
(3.52296 2.67196 6.68655e-19)
(3.63721 2.69952 1.0501e-19)
(3.25862 2.47253 -1.13581e-19)
(3.4322 2.57584 5.65432e-19)
(2.97272 2.17551 -4.04129e-19)
(3.16575 2.34902 -9.07131e-21)
(2.75175 1.84339 1.89866e-19)
(2.92623 2.04921 -2.40679e-19)
(2.63954 1.50958 3.3875e-19)
(2.78243 1.73473 4.95781e-19)
(2.63007 1.19077 1.2531e-19)
(2.73817 1.41535 -1.44057e-19)
(2.70026 0.899382 2.30509e-19)
(2.77739 1.10985 1.79305e-19)
(2.87613 0.81188 -1.06484e-20)
(2.81413 0.642477 -8.34761e-21)
(3.92711 2.73429 7.97243e-19)
(4.01824 2.51688 1.56651e-20)
(3.83845 2.72291 7.77749e-19)
(3.83511 2.76166 1.0205e-18)
(3.71963 2.6837 -2.84176e-19)
(3.78395 2.62663 -9.18632e-19)
(3.56755 2.61125 -6.35886e-20)
(3.65336 2.611 5.39054e-19)
(3.36605 2.47394 7.27993e-19)
(3.49871 2.52492 9.46764e-20)
(3.14316 2.25413 1.74911e-19)
(3.30333 2.3672 2.75784e-21)
(2.96797 1.97893 1.82327e-20)
(3.12558 2.13324 1.74589e-19)
(2.88275 1.67796 7.02945e-20)
(3.02495 1.86254 -2.99024e-20)
(2.88129 1.36579 -1.27245e-19)
(3.00346 1.56202 -2.12074e-19)
(2.94212 1.05837 -4.68072e-20)
(3.04413 1.25159 4.88127e-20)
(3.12787 0.926827 -3.71211e-20)
(3.04458 0.770261 0)
(3.89569 2.62435 3.47289e-19)
(3.98207 2.40366 0)
(3.81758 2.61277 -3.47709e-19)
(3.80763 2.65896 8.38037e-19)
(3.7196 2.58024 -1.50354e-19)
(3.7711 2.51467 -1.66998e-18)
(3.60341 2.52839 7.47912e-19)
(3.6648 2.51469 1.18941e-18)
(3.45833 2.43244 -6.22771e-19)
(3.55354 2.45344 -4.2059e-20)
(3.30462 2.27325 -1.06077e-20)
(3.42526 2.34296 -5.05873e-19)
(3.19169 2.0517 1.33805e-19)
(3.32132 2.1656 4.13308e-19)
(3.14717 1.78312 -3.07889e-19)
(3.2779 1.93321 -2.92567e-19)
(3.16327 1.47946 -7.63027e-20)
(3.29109 1.64937 -9.98157e-20)
(3.21757 1.16041 5.24991e-20)
(3.339 1.33352 1.11171e-19)
(3.39932 0.983393 -1.08635e-20)
(3.29533 0.855552 1.72792e-19)
(3.86835 2.52019 4.06625e-19)
(3.95215 2.30466 -6.59925e-19)
(3.7975 2.50576 3.43397e-20)
(3.78444 2.55819 5.09795e-19)
(3.71696 2.47703 -4.78948e-19)
(3.75751 2.41014 -6.85483e-19)
(3.63062 2.4392 5.47125e-19)
(3.67053 2.42372 1.60901e-19)
(3.53658 2.37289 1.32399e-19)
(3.59714 2.38375 -1.99881e-20)
(3.45389 2.25792 -1.72525e-19)
(3.53332 2.3088 1.35803e-20)
(3.41276 2.07934 2.75601e-20)
(3.50934 2.17188 -1.25708e-19)
(3.42185 1.83592 -1.04028e-19)
(3.53553 1.96408 -1.00125e-19)
(3.46524 1.53595 5.31859e-20)
(3.5944 1.68526 1.04895e-19)
(3.51631 1.20161 4.21531e-20)
(3.6559 1.35561 6.42365e-20)
(3.69782 0.976615 4.25821e-20)
(3.56119 0.862996 -2.50672e-20)
(3.84729 2.42398 -6.67697e-19)
(3.9264 2.22329 -6.48587e-19)
(3.77882 2.40578 4.59544e-20)
(3.7616 2.45967 -8.83585e-21)
(3.71056 2.38499 -8.48679e-20)
(3.7339 2.32587 3.62017e-19)
(3.64912 2.36316 -3.84841e-19)
(3.66402 2.35542 -1.41219e-19)
(3.60348 2.32417 -1.44158e-19)
(3.62762 2.33927 -3.46269e-19)
(3.59211 2.24227 7.52352e-20)
(3.63192 2.29017 2.81326e-19)
(3.62819 2.08888 -2.4811e-19)
(3.6965 2.16631 -5.66925e-20)
(3.70004 1.8522 1.08792e-19)
(3.80235 1.95305 -4.96536e-20)
(3.77863 1.54021 1.19932e-19)
(3.91359 1.65382 5.01763e-20)
(3.83201 1.18175 6.7237e-20)
(3.99065 1.2991 1.38079e-19)
(4.00898 0.88781 1.99069e-20)
(3.86498 0.817257 -6.74137e-21)
(3.82949 2.33805 -5.78219e-20)
(3.89541 2.16156 9.89753e-19)
(3.74529 2.32219 2.7113e-19)
(3.71088 2.36479 -8.03953e-19)
(3.68465 2.32161 3.08964e-19)
(3.67973 2.26837 1.03114e-18)
(3.64801 2.32191 -8.33422e-20)
(3.63466 2.3071 -4.07326e-19)
(3.65191 2.30754 0)
(3.6398 2.29893 -2.39875e-19)
(3.71914 2.23546 1.72009e-19)
(3.72416 2.21833 -8.17005e-20)
(3.84513 2.0697 1.32221e-19)
(3.87726 2.02368 1.06836e-20)
(3.98881 1.80121 -7.06271e-20)
(4.0533 1.73292 -8.79873e-20)
(4.10294 1.45483 9.15132e-20)
(4.203 1.38837 -1.52454e-20)
(4.15268 1.06727 1.06072e-19)
(4.28987 1.01881 1.55099e-20)
(4.28755 0.613087 -1.17033e-19)
(4.15377 0.678074 1.32198e-21)
(3.76571 2.26383 2.38893e-19)
(3.78336 2.09758 7.2199e-19)
(3.67116 2.25648 -2.29828e-19)
(3.61537 2.26016 1.70472e-19)
(3.62752 2.27227 3.91311e-19)
(3.59002 2.19071 6.60108e-19)
(3.63258 2.27055 -5.53554e-19)
(3.59554 2.19945 -1.76789e-19)
(3.71966 2.20879 -3.37085e-19)
(3.67594 2.10044 5.04676e-20)
(3.89739 2.0277 -2.43926e-19)
(3.85731 1.86494 -8.08125e-20)
(4.10546 1.726 -2.177e-19)
(4.081 1.55489 -6.41493e-20)
(4.28292 1.36305 -8.01953e-20)
(4.2714 1.22753 -1.53824e-19)
(4.39631 0.991177 -1.67895e-19)
(4.40477 0.89987 -7.36749e-20)
(4.42694 0.629077 -2.13654e-19)
(4.47969 0.571408 -2.61146e-19)
(4.46106 0.207923 -2.15805e-20)
(4.38518 0.286704 -4.18468e-19)
(3.61247 2.16233 6.38421e-19)
(3.55422 2.03272 -1.44257e-18)
(3.54806 2.15405 9.50622e-19)
(3.4766 2.0688 8.15959e-19)
(3.57003 2.12874 1.75913e-19)
(3.52937 1.97669 4.68859e-19)
(3.67022 2.01157 4.57331e-19)
(3.63876 1.83919 1.80791e-19)
(3.8457 1.76319 3.15468e-19)
(3.81772 1.57677 3.28266e-19)
(4.05528 1.43303 1.70884e-19)
(4.02032 1.26821 0)
(4.2417 1.10679 1.03558e-19)
(4.19412 0.987727 1.90704e-19)
(4.38994 0.808039 -1.51627e-19)
(4.34559 0.731082 5.5256e-20)
(4.49856 0.512915 -1.45401e-19)
(4.48054 0.465974 0)
(4.54208 0.210704 -1.33293e-19)
(4.5828 0.189636 -1.9942e-19)
(4.58851 -0.132829 4.93758e-22)
(4.49785 -0.0893856 -1.50337e-19)
(3.39031 1.9555 -1.51262e-18)
(3.37148 1.89814 -1.12216e-18)
(3.51185 1.87611 3.82032e-19)
(3.54414 1.74243 -8.57014e-21)
(3.63986 1.69231 3.6161e-19)
(3.67577 1.5256 7.25916e-19)
(3.79912 1.42423 1.12996e-20)
(3.80354 1.28368 -3.04516e-19)
(3.96837 1.13686 1.42194e-20)
(3.93417 1.03305 8.16887e-20)
(4.12783 0.886672 0)
(4.06619 0.817157 -2.71359e-19)
(4.27857 0.657554 1.72202e-19)
(4.2054 0.61068 3.58124e-19)
(4.42336 0.424614 2.17752e-19)
(4.34968 0.398659 1.90555e-19)
(4.55556 0.17714 -1.64413e-20)
(4.49457 0.168834 3.27682e-19)
(4.64306 -0.087591 -1.047e-19)
(4.62621 -0.0830236 -3.88488e-19)
(4.68504 -0.380255 -1.65265e-19)
(4.6294 -0.355706 -1.65321e-19)
(3.66627 1.59598 0)
(3.89922 1.11973 -2.54883e-18)
(3.76852 1.36288 3.51181e-19)
(3.80284 1.20859 0)
(3.85715 1.1383 1.80981e-19)
(3.83001 1.05567 6.02761e-19)
(3.94052 0.930336 -3.18862e-19)
(3.88594 0.88657 -6.12221e-19)
(4.03214 0.746105 -2.19927e-19)
(3.9663 0.714381 -7.38274e-19)
(4.14012 0.567309 1.22543e-20)
(4.06658 0.543738 -7.89973e-20)
(4.26608 0.380832 3.82872e-19)
(4.18375 0.36635 3.38809e-19)
(4.4052 0.175377 2.83334e-19)
(4.31341 0.171959 -2.68013e-19)
(4.54829 -0.0562179 2.98306e-20)
(4.45068 -0.0482982 -1.12071e-19)
(4.67369 -0.313753 -2.04714e-19)
(4.58819 -0.297405 1.29049e-19)
(4.6825 -0.588406 1.4575e-19)
(4.72596 -0.570734 5.75084e-19)
(5.29916 1.47128 1.05376e-20)
(4.05762 2.2232 5.89863e-19)
(4.61862 0.905737 -1.60766e-21)
(4.20276 1.73459 -6.14329e-19)
(4.16911 0.49439 5.97697e-19)
(4.07167 1.21759 9.12566e-19)
(3.7941 0.224177 -3.44843e-19)
(3.84279 0.786201 -2.65168e-19)
(3.46811 0.0537719 1.62163e-19)
(3.57298 0.468677 -2.62412e-20)
(3.1865 -0.0547783 0)
(3.29762 0.245756 -6.84757e-20)
(2.94554 -0.13015 -5.34945e-20)
(3.04118 0.0908994 -1.15921e-19)
(2.73833 -0.190325 -3.38506e-20)
(2.81438 -0.0216954 -3.68021e-20)
(2.55657 -0.243411 4.1072e-20)
(2.61558 -0.110226 -8.83733e-20)
(2.39165 -0.292191 1.19597e-20)
(2.44007 -0.182206 5.05734e-20)
(2.2875 -0.234499 -2.97326e-20)
(2.23009 -0.326642 -6.79881e-20)
(3.36703 2.72276 3.38823e-19)
(2.37372 2.90839 4.66197e-19)
(3.64552 2.11311 -2.52734e-19)
(2.91903 2.43702 -2.32235e-19)
(3.68087 1.53077 -5.40409e-20)
(3.25201 2.00312 -4.56556e-20)
(3.57075 1.04098 -1.27136e-19)
(3.36741 1.52064 0)
(3.37591 0.664432 -1.99473e-19)
(3.31721 1.08827 -8.53041e-20)
(3.14561 0.39417 -1.66814e-19)
(3.16539 0.73691 -8.79295e-21)
(2.9155 0.204065 -1.30589e-19)
(2.96569 0.470533 9.89466e-20)
(2.70358 0.0661814 -9.44089e-20)
(2.75862 0.272245 6.69402e-20)
(2.5134 -0.039659 -9.27951e-20)
(2.56346 0.121456 -2.57924e-19)
(2.34105 -0.125681 1.75621e-20)
(2.38518 0.00552319 3.47637e-20)
(2.22526 -0.0734138 -2.25261e-21)
(2.16303 -0.190152 7.37764e-21)
(2.13769 2.58811 0)
(1.57769 2.745 1.03596e-19)
(2.62775 2.41898 0)
(2.09233 2.42914 0)
(2.96044 2.05882 0)
(2.4499 2.26741 0)
(3.10371 1.62177 1.52307e-19)
(2.74006 1.94393 1.9027e-19)
(3.09203 1.20136 2.37899e-19)
(2.88456 1.55684 3.66735e-20)
(2.97668 0.843794 2.32429e-19)
(2.8828 1.17556 -1.14262e-19)
(2.80828 0.561455 2.63257e-19)
(2.78089 0.845086 -7.93484e-21)
(2.62494 0.346577 -3.32624e-21)
(2.63141 0.576907 9.00621e-20)
(2.44662 0.183303 -8.94435e-20)
(2.46775 0.364892 -3.37307e-20)
(2.27988 0.0577508 5.22733e-20)
(2.30677 0.20006 1.56292e-19)
(2.15711 0.0858627 -3.80963e-21)
(2.1056 -0.0316228 1.64526e-19)
(1.67248 2.35356 1.11768e-19)
(1.40839 2.47258 1.64286e-20)
(1.95072 2.34844 0)
(1.72522 2.23651 0)
(2.2634 2.20427 1.66467e-19)
(1.93548 2.25374 0)
(2.53733 1.93415 9.18856e-20)
(2.19851 2.10628 -5.71649e-20)
(2.68512 1.58027 -2.88069e-19)
(2.40465 1.84539 2.64058e-19)
(2.6961 1.2152 -3.75943e-19)
(2.50933 1.51719 -3.32597e-19)
(2.61243 0.89001 -2.23335e-19)
(2.50858 1.17935 -1.26013e-19)
(2.48227 0.620648 1.29176e-19)
(2.43243 0.871137 4.2964e-20)
(2.33656 0.405446 2.91509e-19)
(2.31802 0.607465 1.50658e-19)
(2.19041 0.236191 1.57335e-19)
(2.1898 0.39346 1.38473e-19)
(2.05755 0.242593 -9.34372e-20)
(2.0169 0.106314 -2.20105e-19)
(1.56121 2.15089 -1.00665e-19)
(1.46167 2.26289 3.01197e-19)
(1.69451 2.20001 0)
(1.63793 2.06961 0)
(1.87897 2.18108 -1.58123e-19)
(1.72129 2.15733 -6.0182e-19)
(2.07756 2.05916 1.16157e-19)
(1.88006 2.1151 7.5466e-19)
(2.23995 1.83035 2.08442e-19)
(2.03241 1.97573 -3.74758e-19)
(2.33023 1.52783 -9.64206e-20)
(2.14042 1.74545 1.04895e-19)
(2.33738 1.2006 1.17102e-19)
(2.18228 1.45633 2.71504e-19)
(2.28018 0.891313 5.25057e-20)
(2.16371 1.15033 -1.98262e-20)
(2.18646 0.623778 8.52286e-21)
(2.10534 0.857257 -9.41629e-20)
(2.07498 0.405981 -6.64974e-20)
(2.02523 0.598393 -2.9048e-20)
(1.9349 0.400965 -3.46226e-20)
(1.93187 0.242752 2.14315e-19)
(1.61237 2.02906 4.345e-19)
(1.6205 2.14194 9.37116e-20)
(1.63615 2.07282 -5.3948e-19)
(1.68269 1.97008 4.1852e-19)
(1.72049 2.09623 1.4702e-19)
(1.66907 2.06445 -6.24839e-19)
(1.83141 2.05561 3.65534e-19)
(1.73148 2.06395 9.34446e-19)
(1.93353 1.92884 -5.16715e-19)
(1.80439 1.99427 -6.97897e-19)
(1.99965 1.71884 4.53344e-19)
(1.86261 1.84331 4.79582e-19)
(2.01859 1.4506 1.33608e-19)
(1.88835 1.61985 -1.56082e-19)
(1.99662 1.15837 -1.89743e-19)
(1.88098 1.34957 6.6703e-20)
(1.94781 0.8709 -1.4083e-19)
(1.84969 1.06106 -1.27381e-19)
(1.8858 0.607297 1.88491e-20)
(1.80339 0.781829 5.66971e-20)
(1.74851 0.551811 -5.01663e-20)
(1.7947 0.378661 5.59272e-19)
(1.75158 1.97793 -4.13089e-19)
(1.82938 2.0827 -7.90414e-19)
(1.68789 1.99701 4.45645e-19)
(1.79633 1.93096 3.78997e-19)
(1.6838 2.02437 -2.24452e-20)
(1.71428 2.00185 2.26752e-19)
(1.7077 2.01194 2.51792e-20)
(1.69382 2.00811 0)
(1.73654 1.93391 2.13552e-19)
(1.6841 1.96676 1.77949e-19)
(1.75332 1.7806 -8.79616e-20)
(1.67074 1.85894 2.38182e-19)
(1.7505 1.56074 -2.53018e-19)
(1.64613 1.68075 -2.83233e-19)
(1.73106 1.29736 1.22424e-19)
(1.61477 1.44517 -1.12882e-19)
(1.70141 1.01797 4.88671e-20)
(1.58497 1.17463 1.46729e-19)
(1.66874 0.746389 1.44633e-20)
(1.5587 0.896383 -1.95438e-21)
(1.53134 0.656329 -4.0536e-20)
(1.62282 0.495765 2.32655e-19)
(1.92378 1.9683 -8.68536e-19)
(2.03838 2.04975 -4.94693e-19)
(1.80284 1.96083 2.90149e-19)
(1.93824 1.92674 -3.44153e-20)
(1.72996 1.97585 2.76669e-19)
(1.81684 1.96359 2.52093e-19)
(1.67608 1.96591 1.38003e-19)
(1.73244 1.96219 0)
(1.62714 1.90726 1.9752e-19)
(1.65073 1.92728 1.23154e-19)
(1.57552 1.78579 5.4512e-20)
(1.56368 1.83919 1.27456e-21)
(1.52257 1.6008 -1.66186e-19)
(1.47259 1.68927 -1.37754e-20)
(1.47739 1.36505 -7.14218e-20)
(1.39145 1.48109 -2.06808e-19)
(1.44552 1.10081 1.23333e-19)
(1.33789 1.22934 6.64315e-20)
(1.42726 0.831147 -4.99012e-20)
(1.31274 0.958226 -1.73138e-20)
(1.30147 0.718949 4.27947e-20)
(1.40777 0.572016 2.67042e-20)
(2.09711 1.96996 4.07917e-21)
(2.23518 2.02257 -7.65393e-22)
(1.94732 1.94425 1.1635e-20)
(2.08993 1.93578 6.15269e-21)
(1.8292 1.94357 0)
(1.95194 1.94004 3.1368e-20)
(1.71658 1.92531 -2.84925e-20)
(1.82244 1.92637 -2.65927e-20)
(1.59959 1.86926 -5.98762e-20)
(1.68528 1.88607 -2.62085e-21)
(1.47576 1.76153 -7.01301e-20)
(1.53462 1.80251 -2.73671e-20)
(1.35623 1.59778 -4.91042e-20)
(1.37472 1.66638 1.28388e-20)
(1.26254 1.38253 -3.73906e-20)
(1.22641 1.47479 -3.53524e-20)
(1.20856 1.13331 -4.66635e-20)
(1.12584 1.23764 -1.87303e-20)
(1.19276 0.874101 6.85191e-20)
(1.08508 0.973005 -2.4997e-20)
(1.0794 0.735695 4.22705e-20)
(1.19841 0.622284 1.11638e-19)
(2.26183 1.97219 -3.91328e-22)
(2.41586 1.9978 4.74015e-21)
(2.10344 1.93649 2.15005e-20)
(2.24327 1.94754 2.55197e-20)
(1.95894 1.92205 9.37012e-21)
(2.10618 1.92634 9.26064e-20)
(1.80539 1.89059 -3.56197e-21)
(1.9457 1.90046 -7.15187e-20)
(1.63784 1.82807 3.22612e-20)
(1.76955 1.84838 9.7405e-20)
(1.45443 1.72237 3.91218e-20)
(1.57115 1.75878 -2.33868e-20)
(1.2654 1.56547 1.64688e-20)
(1.35212 1.62234 4.34563e-20)
(1.10361 1.36003 -1.79222e-20)
(1.13342 1.43543 -9.54967e-20)
(1.00506 1.12019 3.66311e-21)
(0.965682 1.20593 1.50012e-21)
(0.974835 0.865814 -7.47707e-21)
(0.886883 0.942528 5.56686e-21)
(0.872743 0.698525 9.48777e-21)
(0.987205 0.611501 -6.33188e-21)
(2.42193 1.97589 2.67987e-20)
(2.59161 1.981 -3.39719e-20)
(2.26355 1.93712 8.7781e-20)
(2.40037 1.96428 -7.75884e-21)
(2.10749 1.90943 4.50973e-20)
(2.26745 1.91991 1.6096e-20)
(1.92859 1.86357 1.25365e-20)
(2.09026 1.88354 -2.36902e-19)
(1.72474 1.7891 5.4404e-20)
(1.89082 1.8172 3.35111e-20)
(1.49518 1.67428 -3.01256e-20)
(1.65885 1.71469 4.58983e-20)
(1.24978 1.5126 -5.3663e-20)
(1.39568 1.56664 1.19745e-19)
(1.01987 1.30664 -1.0242e-19)
(1.11871 1.37079 -2.82422e-20)
(0.855425 1.06528 -1.72934e-20)
(0.87703 1.13575 -1.609e-19)
(0.786609 0.808729 9.76915e-20)
(0.736436 0.870187 7.91707e-20)
(0.702965 0.609988 3.12352e-21)
(0.79043 0.554505 1.32973e-20)
(2.57565 1.98417 -6.71824e-20)
(2.75337 1.96284 -1.6339e-19)
(2.42465 1.9415 -7.71471e-20)
(2.54942 1.98267 -2.29947e-19)
(2.26573 1.90159 -2.22697e-19)
(2.42791 1.91793 2.1159e-19)
(2.07454 1.8434 -2.39582e-19)
(2.24854 1.87238 -1.17298e-19)
(1.84908 1.75436 2.16767e-20)
(2.03741 1.79068 2.02626e-19)
(1.58772 1.62415 1.88427e-19)
(1.78575 1.67163 -1.86457e-19)
(1.29835 1.44637 1.82893e-19)
(1.49355 1.50537 3.98573e-21)
(1.01052 1.22453 -3.84737e-20)
(1.1745 1.28886 -1.2526e-19)
(0.779651 0.972383 -3.58599e-20)
(0.871467 1.03307 4.86119e-20)
(0.655965 0.709494 1.42986e-20)
(0.660077 0.755327 4.86639e-20)
(0.584854 0.484941 1.94574e-19)
(0.647771 0.463544 -1.45539e-19)
(2.72092 1.99068 -3.17967e-19)
(2.90656 1.94316 3.12952e-19)
(2.58145 1.9482 1.20395e-19)
(2.69314 2.00059 -2.50866e-19)
(2.42505 1.89906 3.52661e-19)
(2.58742 1.91879 -2.50474e-20)
(2.23368 1.82733 2.96045e-19)
(2.41156 1.86127 7.36893e-20)
(2.00016 1.72163 3.49909e-20)
(2.19991 1.76543 2.68163e-19)
(1.72252 1.57232 -3.92117e-19)
(1.94273 1.62784 -2.79303e-19)
(1.40565 1.37238 -2.93234e-19)
(1.63779 1.43941 9.99717e-20)
(1.07453 1.12433 -7.99479e-20)
(1.29421 1.19588 1.97108e-19)
(0.784238 0.846068 1.54415e-19)
(0.948094 0.908552 -4.58758e-19)
(0.599279 0.563843 2.13064e-19)
(0.673598 0.604092 7.27924e-19)
(0.532748 0.310849 -3.2722e-19)
(0.541932 0.284359 1.97638e-19)
(2.86022 1.99509 7.00003e-19)
(3.0557 1.92917 7.0305e-19)
(2.73458 1.95427 -4.60638e-19)
(2.83291 2.01692 -5.59632e-20)
(2.58522 1.89568 -3.14738e-19)
(2.74302 1.91964 -2.85564e-19)
(2.39992 1.811 2.27269e-20)
(2.57623 1.84954 1.47929e-19)
(2.1697 1.6883 1.75146e-20)
(2.37263 1.73876 -1.89397e-19)
(1.89068 1.51786 1.74258e-19)
(2.12276 1.58107 -6.20329e-19)
(1.56462 1.29181 6.03622e-19)
(1.82141 1.36776 1.22689e-18)
(1.21015 1.01204 -1.1842e-19)
(1.47296 1.09419 4.09676e-19)
(0.876549 0.698815 1.88668e-20)
(1.1054 0.771043 -8.25403e-19)
(0.63279 0.384946 2.21221e-19)
(0.782949 0.432472 5.1137e-19)
(0.593344 0.0981983 -4.98401e-19)
(0.536382 0.103423 5.5164e-19)
(2.99374 2.00094 2.88376e-19)
(3.19418 1.91596 2.61495e-19)
(2.88215 1.9593 0)
(2.96633 2.02802 7.19239e-20)
(2.74233 1.89016 1.32852e-19)
(2.89184 1.91662 0)
(2.56872 1.79139 -2.16043e-20)
(2.73809 1.83232 3.1146e-19)
(2.35153 1.65062 -7.91613e-19)
(2.54989 1.70513 -3.51763e-19)
(2.08517 1.45742 2.08028e-19)
(2.31869 1.52633 -6.15948e-19)
(1.76813 1.20364 1.14291e-18)
(2.03718 1.28771 8.37037e-19)
(1.41245 0.890597 -1.76034e-19)
(1.70483 0.984621 3.39592e-19)
(1.05837 0.539531 -4.65522e-19)
(1.34037 0.62665 -2.04059e-19)
(0.769075 0.189204 -1.35301e-19)
(0.992925 0.2544 -4.51299e-19)
(0.769707 -0.125687 1.81943e-19)
(0.622148 -0.113455 -5.35508e-20)
(3.11994 2.00393 6.45849e-20)
(3.32422 1.90447 -9.89819e-20)
(3.02262 1.95919 7.90029e-20)
(3.0939 2.03054 1.03465e-21)
(2.89429 1.87786 1.50149e-19)
(3.03328 1.90583 0)
(2.73688 1.76337 6.01501e-20)
(2.89593 1.80466 1.66838e-19)
(2.541 1.6032 -1.53412e-19)
(2.72918 1.65911 -1.38611e-19)
(2.30019 1.3869 -1.67507e-19)
(2.52638 1.45917 7.45822e-19)
(2.01022 1.10666 8.60934e-20)
(2.27939 1.19743 -6.37778e-19)
(1.67631 0.763534 3.65595e-19)
(1.98375 0.869434 3.29528e-19)
(1.32787 0.378755 -2.21875e-19)
(1.64924 0.482617 1.76957e-21)
(1.01868 -0.00507179 -2.04787e-19)
(1.30827 0.0796209 -1.8475e-19)
(1.06892 -0.325141 2.98993e-19)
(0.808871 -0.334956 0)
(3.23938 2.00188 -1.75111e-19)
(3.44583 1.89496 4.88636e-19)
(3.15574 1.95006 -8.17174e-20)
(3.21532 2.021 -2.48198e-20)
(3.04072 1.85366 0)
(3.16699 1.88231 -6.58647e-19)
(2.90333 1.72106 0)
(3.04897 1.76175 -1.26584e-19)
(2.73559 1.54059 6.66634e-19)
(2.90863 1.59698 4.12469e-19)
(2.53129 1.30284 4.36569e-19)
(2.74188 1.37772 2.79234e-19)
(2.28469 1.00081 -4.99139e-19)
(2.54118 1.09749 -5.84843e-19)
(1.99511 0.63447 0)
(2.29961 0.752117 0)
(1.68057 0.221181 0)
(2.01846 0.345507 3.15867e-19)
(1.38764 -0.204688 2.66452e-19)
(1.7102 -0.0884739 -4.68312e-19)
(1.47362 -0.533936 1.98818e-19)
(1.17602 -0.605342 2.09856e-19)
(3.35105 1.99243 1.18307e-18)
(3.55434 1.88263 1.09264e-18)
(3.28004 1.92675 -7.6947e-19)
(3.32714 1.99323 1.00902e-19)
(3.18038 1.81206 -8.35816e-19)
(3.28994 1.84092 -1.23883e-18)
(3.06622 1.66033 2.28763e-19)
(3.19353 1.70133 6.97606e-21)
(2.93171 1.46107 4.04819e-20)
(3.08329 1.51875 4.09094e-19)
(2.77206 1.20615 -6.38592e-19)
(2.95815 1.28352 -9.52387e-20)
(2.58142 0.889625 -1.49336e-19)
(2.81236 0.99069 -2.71775e-19)
(2.35473 0.51054 2.81526e-19)
(2.63806 0.637266 0)
(2.09724 0.0819454 -1.24166e-19)
(2.43095 0.225108 4.0201e-19)
(1.83223 -0.364221 -6.47333e-19)
(2.18937 -0.217803 -2.15685e-19)
(1.99456 -0.683911 4.8139e-20)
(1.61383 -0.778647 -8.23497e-20)
(3.4497 1.96808 1.16108e-18)
(3.64214 1.85958 5.51301e-19)
(3.39019 1.88321 -6.98105e-19)
(3.42272 1.94276 5.15941e-20)
(3.30788 1.75089 -5.2494e-19)
(3.39562 1.78072 -5.76048e-19)
(3.21927 1.58243 1.47196e-19)
(3.322 1.62468 1.31782e-19)
(3.12153 1.36775 3.30196e-19)
(3.24455 1.42597 -5.17195e-19)
(3.01241 1.1006 2.90047e-19)
(3.16543 1.17786 1.15669e-18)
(2.88674 0.777251 -1.52898e-19)
(3.08083 0.878672 -4.4273e-19)
(2.73721 0.396686 7.57824e-20)
(2.98231 0.526969 4.78543e-19)
(2.56196 -0.033693 3.09042e-19)
(2.86267 0.121516 -3.55875e-19)
(2.37796 -0.495608 4.73987e-19)
(2.71188 -0.324522 2.41859e-19)
(2.5817 -0.807055 1.54693e-19)
(2.2156 -0.975531 6.64125e-19)
(3.5277 1.92322 4.09248e-20)