/*--------------------------------*- C++ -*----------------------------------*\
| =========                 |                                                 |
| \\      /  F ield         | OpenFOAM: The Open Source CFD Toolbox           |
|  \\    /   O peration     | Version:  3.0.1                                 |
|   \\  /    A nd           | Web:      www.OpenFOAM.org                      |
|    \\/     M anipulation  |                                                 |
\*---------------------------------------------------------------------------*/
FoamFile
{
    version     2.0;
    format      ascii;
    class       volVectorField;
    location    "0.0281291";
    object      U;
}
// * * * * * * * * * * * * * * * * * * * * * * * * * * * * * * * * * * * * * //

dimensions      [0 1 -1 0 0 0 0];

internalField   nonuniform List<vector> 
21246
(
(7.04247 -6.39114 -1.57555e-18)
(5.88022 -5.314 5.28178e-19)
(5.70777 -4.1928 -4.10631e-19)
(5.52815 -3.33627 0)
(5.29845 -2.66183 0)
(5.05084 -2.14224 -3.52232e-21)
(4.80153 -1.7316 2.25838e-19)
(4.56411 -1.40178 -3.3556e-19)
(4.34375 -1.12937 1.89248e-20)
(4.14098 -0.903104 1.93819e-19)
(3.95114 -0.72596 -1.92919e-20)
(2.44589 -5.88924 -2.72224e-19)
(3.0077 -5.45138 -5.84121e-18)
(3.65145 -4.76349 3.7971e-18)
(4.08157 -4.03393 0)
(4.29241 -3.34637 1.29311e-18)
(4.34543 -2.73684 -4.17696e-19)
(4.29574 -2.22038 3.78105e-19)
(4.18852 -1.79369 -3.45305e-19)
(4.05423 -1.44379 3.18931e-19)
(3.90993 -1.15885 6.65735e-19)
(3.76064 -0.937011 -4.88904e-19)
(0.27545 -4.04931 0)
(1.35342 -4.52835 1.01916e-18)
(2.06698 -4.44442 4.35408e-18)
(2.71905 -4.08051 -4.78528e-18)
(3.19476 -3.59664 0)
(3.49925 -3.06945 7.57811e-19)
(3.66043 -2.55949 -1.41682e-18)
(3.71459 -2.10147 4.97432e-19)
(3.69969 -1.70822 -1.02821e-18)
(3.64435 -1.38036 -3.90182e-19)
(3.55909 -1.12009 5.35798e-20)
(-0.23467 -2.95135 -3.89746e-18)
(0.384333 -3.26695 4.82755e-18)
(0.967409 -3.60432 -2.84169e-18)
(1.64036 -3.66857 3.73889e-18)
(2.23913 -3.47036 -2.86113e-18)
(2.68872 -3.11603 1.67507e-18)
(3.00144 -2.704 -2.19773e-18)
(3.19195 -2.28899 3.00831e-18)
(3.28392 -1.90286 -1.90974e-18)
(3.30852 -1.56237 -6.48888e-19)
(3.29179 -1.27685 -9.4199e-20)
(-0.243516 -2.35354 1.0426e-19)
(0.173624 -2.59001 8.81125e-19)
(0.419569 -2.83308 3.21845e-20)
(0.864247 -2.98034 9.60379e-19)
(1.36663 -2.99951 2.65169e-18)
(1.86557 -2.87217 -2.86501e-18)
(2.2766 -2.615 1.55329e-19)
(2.5863 -2.28878 0)
(2.80454 -1.94476 0)
(2.94369 -1.61638 1.42426e-18)
(3.00635 -1.32996 2.62063e-18)
(-0.11707 -1.9068 8.16652e-20)
(0.19697 -2.06703 6.27651e-20)
(0.330422 -2.27079 0)
(0.652081 -2.42078 2.56634e-18)
(1.01497 -2.49128 -1.32543e-18)
(1.41519 -2.45681 -1.86386e-18)
(1.80402 -2.32039 0)
(2.14235 -2.10659 8.95246e-19)
(2.41186 -1.84899 1.1009e-18)
(2.60896 -1.58069 -2.23927e-18)
(2.7303 -1.33299 -9.98054e-19)
(-0.0244763 -1.55102 8.47733e-19)
(0.245281 -1.63387 6.74669e-19)
(0.334292 -1.79278 0)
(0.56501 -1.92145 -8.05531e-19)
(0.839717 -2.00527 0)
(1.15896 -2.02308 1.75688e-18)
(1.49306 -1.96612 -6.53514e-19)
(1.81068 -1.84116 -8.70748e-19)
(2.08898 -1.66596 0)
(2.31348 -1.46379 0)
(2.46943 -1.25956 1.94717e-18)
(0.0519343 -1.26746 -3.53345e-19)
(0.299269 -1.29652 7.03491e-20)
(0.37079 -1.41118 3.65929e-19)
(0.551155 -1.51503 0)
(0.766967 -1.5924 0)
(1.02317 -1.6297 -7.74703e-19)
(1.30291 -1.61738 -5.72936e-19)
(1.58511 -1.55367 1.23853e-18)
(1.85043 -1.44497 -2.2854e-18)
(2.08049 -1.30571 1.14737e-18)
(2.24936 -1.15775 -5.43893e-19)
(0.125695 -1.02546 -3.23205e-19)
(0.356944 -1.02028 0)
(0.418769 -1.10337 -4.03198e-19)
(0.570579 -1.18623 0)
(0.748282 -1.25203 0)
(0.95957 -1.29291 4.01857e-19)
(1.19489 -1.3019 0)
(1.441 -1.27489 0)
(1.68398 -1.21208 1.10813e-18)
(1.90736 -1.11984 0)
(2.08359 -1.01287 0)
(0.207841 -0.82452 9.55261e-19)
(0.426384 -0.788435 0)
(0.475411 -0.846846 0)
(0.606338 -0.912854 -1.31399e-19)
(0.757259 -0.967212 0)
(0.936794 -1.00563 1.824e-19)
(1.13867 -1.02359 1.75976e-19)
(1.35424 -1.01711 -3.87396e-19)
(1.57403 -0.983719 6.57086e-20)
(1.78489 -0.924304 1.69614e-19)
(1.96021 -0.844776 -3.55679e-19)
(0.286393 -0.673523 -1.13168e-18)
(0.491236 -0.597241 -1.8865e-22)
(0.532203 -0.631069 0)
(0.648855 -0.680909 1.28033e-19)
(0.780968 -0.723688 -3.82919e-19)
(0.938172 -0.756988 4.50302e-19)
(1.11562 -0.777758 -1.21673e-19)
(1.30727 -0.78271 3.35896e-19)
(1.50663 -0.768812 -6.03601e-20)
(1.70311 -0.73511 3.09434e-22)
(1.86573 -0.685899 0)
(0.345581 -0.542645 -9.2818e-19)
(0.533516 -0.427374 7.2394e-19)
(0.579108 -0.441886 1.37474e-19)
(0.690241 -0.477913 3.38731e-19)
(0.811525 -0.510072 -5.1591e-19)
(0.954355 -0.537433 -5.21803e-19)
(1.11491 -0.558036 6.01433e-19)
(1.28889 -0.569412 -1.75156e-20)
(1.47184 -0.568703 -2.08644e-19)
(1.65587 -0.553775 9.52207e-21)
(1.81283 -0.524694 1.09012e-19)
(0.399559 -0.405632 1.70741e-18)
(0.571654 -0.263261 -1.49711e-18)
(0.622948 -0.265961 6.39307e-19)
(0.73081 -0.292296 3.02178e-19)
(0.845726 -0.316235 -4.64847e-19)
(0.979882 -0.338407 9.73785e-19)
(1.12963 -0.357866 3.49337e-19)
(1.29162 -0.373132 -7.97563e-19)
(1.46265 -0.381636 0)
(1.6376 -0.379845 0)
(1.79187 -0.362144 0)
(0.454841 -0.286787 1.90327e-19)
(0.617405 -0.113722 1.59962e-19)
(0.66992 -0.102208 -1.2054e-18)
(0.773437 -0.118658 1.96715e-19)
(0.883724 -0.135151 0)
(1.01269 -0.152859 1.891e-19)
(1.15604 -0.171341 -3.4625e-19)
(1.31048 -0.189827 5.10979e-19)
(1.47288 -0.206003 -6.67976e-19)
(1.6397 -0.215809 -4.73261e-19)
(1.78516 -0.212022 0)
(0.497272 -0.180016 2.01888e-18)
(0.648174 0.0298919 -1.14993e-18)
(0.709948 0.0555059 0)
(0.815233 0.0481474 3.57395e-19)
(0.925432 0.038137 4.97987e-19)
(1.05321 0.0239511 -4.17996e-19)
(1.19401 0.00556969 -5.5965e-19)
(1.34445 -0.0167967 0)
(1.50104 -0.0409356 6.64401e-19)
(1.66162 -0.0623396 4.70405e-19)
(1.80351 -0.0705828 -3.04125e-19)
(0.54333 -0.0612281 -6.91995e-19)
(0.679555 0.179462 2.52624e-19)
(0.752308 0.214093 -3.86041e-19)
(0.860481 0.213392 2.77638e-20)
(0.972944 0.208303 -9.81487e-19)
(1.10264 0.19615 -7.00788e-19)
(1.24416 0.17623 1.09869e-18)
(1.39351 0.148227 3.76651e-20)
(1.54619 0.114673 -1.08467e-18)
(1.70123 0.080818 -7.33071e-19)
(1.83829 0.0603913 -5.41006e-19)
(0.597151 0.0539323 0)
(0.721026 0.325891 -2.57429e-19)
(0.802547 0.371961 3.92917e-19)
(0.912889 0.379158 5.98895e-19)
(1.02921 0.378706 0)
(1.16358 0.367107 0)
(1.3086 0.34313 -8.7097e-19)
(1.45883 0.306461 1.06241e-18)
(1.60805 0.260902 9.56073e-19)
(1.75641 0.212796 7.34174e-19)
(1.88629 0.1788 -9.20027e-19)
(0.647181 0.164039 -1.17469e-18)
(0.758565 0.470945 1.32739e-18)
(0.856443 0.53129 -3.07336e-19)
(0.973279 0.547774 1.42434e-18)
(1.0979 0.551267 -7.53152e-19)
(1.24036 0.537883 0)
(1.39109 0.506148 8.28932e-20)
(1.54266 0.456697 -5.47457e-19)
(1.68732 0.395875 -3.12424e-20)
(1.82701 0.331352 0)
(1.94736 0.283015 8.56038e-19)
(0.702796 0.282027 -1.11156e-18)
(0.798331 0.623729 -7.21189e-20)
(0.919062 0.698326 3.20012e-19)
(1.0479 0.723557 -4.68163e-19)
(1.18656 0.728002 0)
(1.34112 0.707607 0)
(1.49869 0.661711 3.49562e-19)
(1.64952 0.593916 0)
(1.78587 0.514764 -3.18025e-19)
(1.91209 0.434053 7.02808e-19)
(2.02162 0.371934 -1.25148e-21)
(0.773569 0.412866 0)
(0.850478 0.788959 -9.06521e-19)
(1.0015 0.877133 7.08221e-19)
(1.1487 0.908597 7.58466e-19)
(1.30659 0.907806 -4.79875e-19)
(1.47495 0.871529 0)
(1.6365 0.80276 -1.62569e-19)
(1.7802 0.711036 5.67096e-19)
(1.90109 0.612117 -2.36575e-19)
(2.0067 0.517853 -3.1453e-19)
(2.10104 0.44409 0)
(0.865996 0.558223 6.86523e-19)
(0.926103 0.970869 -1.62086e-19)
(1.11776 1.06866 -8.37162e-19)
(1.29262 1.09901 3.29929e-19)
(1.47324 1.08122 0)
(1.65157 1.01611 0)
(1.80735 0.915422 1.69698e-19)
(1.93217 0.797258 -2.57567e-19)
(2.0278 0.681079 -1.2383e-19)
(2.10608 0.578549 3.88691e-20)
(2.17875 0.498323 2.05017e-19)
(1.04064 0.736648 2.01904e-19)
(1.03657 1.1747 0)
(1.29945 1.26536 0)
(1.50663 1.27782 -2.40167e-20)
(1.70369 1.22294 0)
(1.8761 1.11475 -2.07077e-20)
(2.00707 0.978681 1.6916e-20)
(2.09725 0.83944 -3.30284e-20)
(2.15759 0.715096 1.59365e-19)
(2.20398 0.613546 0)
(2.25297 0.533122 1.09105e-19)
(1.00551 0.833538 -1.06821e-19)
(1.25523 1.33311 3.51994e-19)
(1.5276 1.43008 -1.91162e-19)
(1.77908 1.38873 2.78194e-20)
(1.97795 1.27669 0)
(2.11974 1.12495 3.14864e-20)
(2.20644 0.966921 4.12646e-20)
(2.252 0.824573 -1.75069e-20)
(2.27401 0.708598 -8.39333e-20)
(2.28978 0.621493 -3.43439e-20)
(2.31563 0.556441 5.91752e-20)
(3.07243 1.23829 0)
(1.96768 1.70231 0)
(2.45007 1.40895 1.063e-19)
(2.47877 1.30165 -1.24057e-19)
(2.49036 1.15599 0)
(2.4765 1.00146 4.07361e-19)
(2.44828 0.862039 -2.60601e-19)
(2.41209 0.747058 4.61187e-20)
(2.37898 0.660307 -3.93365e-20)
(2.35841 0.602374 3.79505e-20)
(2.36071 0.563275 -1.79268e-20)
(8.33139 -3.87641 0)
(6.64983 -1.78553 2.61037e-18)
(6.92807 -2.28196 -3.03816e-18)
(6.76294 -2.29345 8.7688e-19)
(6.20944 -1.93812 0)
(5.7025 -1.60455 3.83677e-21)
(5.2729 -1.29473 -3.47034e-20)
(4.91975 -1.04166 2.24147e-20)
(4.61575 -0.8284 -3.15066e-20)
(4.3511 -0.647736 -1.46428e-20)
(4.11672 -0.508971 3.53665e-20)
(5.42233 -2.38968 -7.59277e-19)
(4.66485 -0.378453 -1.7e-19)
(5.98183 -0.650601 6.58406e-18)
(6.59549 -0.897826 -5.04753e-18)
(6.57562 -0.905329 1.05248e-18)
(6.25613 -0.859981 -1.3785e-18)
(5.72486 -0.742922 3.4372e-21)
(5.26827 -0.612723 3.12143e-19)
(4.88133 -0.478476 1.24578e-20)
(4.54631 -0.349298 -1.13079e-20)
(4.25978 -0.242312 3.29871e-20)
(2.09617 -2.75187 8.56768e-19)
(3.08348 -0.950437 -9.2276e-18)
(4.62048 -0.273673 5.28733e-18)
(5.64859 -0.0599259 5.51239e-18)
(6.17887 0.0237785 6.1166e-19)
(6.29451 -0.00260749 -4.01258e-18)
(6.00393 -0.0462644 -2.44215e-19)
(5.5237 -0.0708879 1.06826e-18)
(5.08754 -0.0472235 6.67969e-19)
(4.71244 0.000894168 4.81774e-19)
(4.39856 0.0474739 -9.5505e-20)
(-0.260091 -5.6071 0)
(1.82471 -2.71558 1.81088e-18)
(3.29028 -0.995056 -2.33113e-18)
(4.51312 -0.0481278 3.42864e-18)
(5.41154 0.458116 1.21696e-18)
(5.91041 0.641288 0)
(5.9398 0.62783 1.92393e-18)
(5.62582 0.524748 -2.54425e-18)
(5.19146 0.434209 -7.61878e-19)
(4.80525 0.396214 -3.76981e-19)
(4.47732 0.375828 0)
(-0.427927 -6.7776 2.08342e-18)
(0.869763 -4.22282 -4.61409e-18)
(2.21178 -2.09355 -2.26678e-18)
(3.50159 -0.571383 0)
(4.57924 0.421748 -2.05921e-18)
(5.32415 0.956396 3.37443e-19)
(5.62744 1.13017 1.90506e-18)
(5.52446 1.06853 -1.77026e-18)
(5.19244 0.923991 1.32358e-18)
(4.81182 0.803602 5.44308e-19)
(4.4887 0.714286 -1.77156e-19)
(-0.411873 -7.01225 1.8051e-18)
(0.21927 -5.58053 1.42219e-18)
(1.38367 -3.25852 0)
(2.64861 -1.3273 0)
(3.79524 0.0887452 1.90075e-18)
(4.6811 0.992806 -5.72616e-18)
(5.18224 1.42955 1.90273e-18)
(5.27227 1.50055 -2.03923e-18)
(5.06815 1.37208 9.12346e-20)
(4.7452 1.20251 0)
(4.41398 1.06487 1.3984e-20)
(-0.369581 -7.23159 3.2311e-18)
(0.0189007 -6.22087 -2.50845e-18)
(0.770873 -4.30072 -1.95163e-18)
(1.93117 -2.18565 4.09274e-20)
(3.08516 -0.425182 8.14041e-18)
(4.04328 0.828642 1.42142e-18)
(4.67486 1.55346 -1.83176e-18)
(4.91933 1.81049 2.53982e-18)
(4.84104 1.75479 2.96803e-18)
(4.5922 1.57114 1.6102e-18)
(4.30385 1.37384 -2.29441e-18)
(-0.367858 -7.4252 0)
(-0.051844 -6.63094 2.31412e-18)
(0.334496 -5.30908 -5.51459e-18)
(1.32472 -3.11401 1.37959e-18)
(2.4411 -1.06115 -1.99786e-18)
(3.4282 0.520962 -5.56845e-18)
(4.1392 1.53784 2.23359e-19)
(4.49755 2.00779 -1.0678e-18)
(4.53051 2.06322 -1.53019e-18)
(4.35855 1.90206 -1.16373e-18)
(4.14176 1.65702 4.21527e-19)
(-0.382708 -7.62691 0)
(-0.0831126 -6.93707 0)
(0.148423 -5.86534 -1.72495e-18)
(0.847196 -3.95831 1.35136e-18)
(1.86105 -1.76261 -2.00908e-18)
(2.83719 0.106609 0)
(3.58682 1.40793 0)
(4.02221 2.10187 0)
(4.14851 2.29137 -1.75973e-18)
(4.05543 2.17671 1.05248e-18)
(3.89624 1.92009 7.1124e-19)
(-0.408657 -7.83212 0)
(-0.127911 -7.20476 -1.03484e-18)
(0.0333306 -6.26561 1.63718e-18)
(0.497676 -4.69212 -1.32788e-18)
(1.35339 -2.4798 1.97802e-18)
(2.27061 -0.383479 1.47346e-18)
(3.02155 1.1834 0)
(3.49997 2.10022 0)
(3.69841 2.43514 1.72882e-18)
(3.68046 2.38263 0)
(3.59218 2.12807 0)
(-0.430296 -8.01432 6.32312e-19)
(-0.168721 -7.45229 -4.91396e-19)
(-0.0530661 -6.59932 -7.90423e-19)
(0.261563 -5.27083 2.57367e-18)
(0.915587 -3.17102 -9.96399e-19)
(1.72628 -0.928194 -1.46146e-18)
(2.44193 0.874631 0)
(2.93254 2.00429 6.67283e-19)
(3.18298 2.4871 -5.03589e-19)
(3.23716 2.50763 5.72122e-19)
(3.21293 2.27477 0)
(-0.487519 -8.1824 0)
(-0.245006 -7.68415 2.3973e-19)
(-0.146039 -6.88443 0)
(0.0877392 -5.68086 0)
(0.545263 -3.7774 -5.01738e-19)
(1.20968 -1.49134 0)
(1.85252 0.498281 -5.38933e-19)
(2.32487 1.8168 0)
(2.60742 2.43872 0)
(2.73111 2.53624 -3.34292e-19)
(2.77343 2.33456 -5.55321e-20)
(-0.541252 -8.33384 1.49113e-19)
(-0.321723 -7.8744 -1.15807e-19)
(-0.250715 -7.12213 -2.7948e-19)
(-0.0891543 -6.01522 0)
(0.215815 -4.30029 8.74597e-19)
(0.720882 -2.04334 -3.76199e-19)
(1.25473 0.0685695 8.00103e-19)
(1.68203 1.53682 -1.94867e-19)
(1.97987 2.27848 0)
(2.16746 2.45372 2.99948e-20)
(2.31311 2.28767 6.86921e-21)
(-0.578357 -8.44385 2.85955e-19)
(-0.405761 -8.0166 -5.67835e-20)
(-0.37381 -7.31652 9.28474e-20)
(-0.28269 -6.2939 -5.92705e-19)
(-0.109 -4.75449 -6.09595e-19)
(0.250957 -2.57542 -5.55049e-19)
(0.648093 -0.410757 0)
(1.01107 1.15775 0)
(1.31537 1.99162 0)
(1.56362 2.24268 0)
(1.80973 2.13093 6.84118e-20)
(-0.609105 -8.51135 -2.8742e-19)
(-0.508263 -8.10941 -2.27243e-19)
(-0.510956 -7.45763 1.79067e-19)
(-0.494318 -6.51671 -5.5547e-19)
(-0.443935 -5.12944 4.87268e-19)
(-0.220386 -3.09222 3.9066e-19)
(0.0435871 -0.941472 2.73083e-19)
(0.328151 0.676468 0)
(0.636647 1.56681 3.94312e-19)
(0.946911 1.88668 -2.94472e-19)
(1.27504 1.84769 -2.68237e-19)
(-0.627769 -8.53237 2.81008e-19)
(-0.620068 -8.13702 -2.18288e-19)
(-0.660161 -7.51997 0)
(-0.723658 -6.66454 2.26854e-18)
(-0.795752 -5.4666 2.71241e-18)
(-0.711578 -3.58756 -7.24073e-19)
(-0.542529 -1.51468 9.71031e-19)
(-0.33448 0.084443 -1.33619e-18)
(-0.0303368 0.994689 4.57434e-19)
(0.347798 1.37427 0)
(0.787544 1.41324 1.33437e-18)
(-0.638782 -8.48841 0)
(-0.741155 -8.0983 0)
(-0.829066 -7.51052 0)
(-0.972789 -6.71583 -1.12597e-18)
(-1.13889 -5.64207 -9.46292e-19)
(-1.22339 -4.17745 1.87294e-18)
(-1.12202 -2.179 1.77368e-18)
(-0.950388 -0.624706 -2.2467e-18)
(-0.640972 0.274566 -1.28081e-18)
(-0.218407 0.700388 0)
(0.345952 0.834151 -8.31893e-19)
(-0.653218 -8.35182 1.28295e-18)
(-0.879948 -7.96993 -4.11135e-19)
(-1.03033 -7.41995 1.29206e-18)
(-1.25507 -6.7061 -1.01722e-18)
(-1.49848 -5.78238 -3.10019e-18)
(-1.68843 -4.58333 -1.36818e-18)
(-1.68099 -3.03022 -1.82467e-18)
(-1.5 -1.46799 2.31805e-18)
(-1.16227 -0.600511 1.31642e-18)
(-0.699359 -0.133965 4.71391e-19)
(-0.0450991 0.136275 -3.45628e-19)
(-0.683843 -8.09255 -2.06386e-18)
(-1.04428 -7.72114 7.82546e-19)
(-1.27855 -7.22629 -6.03175e-19)
(-1.59275 -6.62928 -3.64807e-18)
(-1.90334 -5.90439 3.04586e-18)
(-2.13113 -5.00873 -1.9755e-18)
(-2.16509 -3.86729 2.68056e-20)
(-1.98452 -2.55868 -2.48784e-18)
(-1.57086 -1.62863 2.59422e-18)
(-1.07643 -1.11099 -2.3975e-19)
(-0.342898 -0.664729 1.96615e-19)
(-0.764364 -7.66231 2.97431e-18)
(-1.25568 -7.3176 -7.44867e-19)
(-1.60103 -6.92477 -1.04613e-18)
(-2.0008 -6.51916 1.56586e-19)
(-2.34653 -6.07395 1.40322e-18)
(-2.55178 -5.52783 1.08557e-18)
(-2.53617 -4.76991 1.34497e-18)
(-2.32804 -3.80997 -1.09479e-18)
(-1.83521 -2.83949 -3.02621e-19)
(-1.31473 -2.20333 0)
(-0.629921 -1.59114 -1.20554e-19)
(-1.03471 -6.959 -3.34433e-18)
(-1.67736 -6.65808 6.95327e-19)
(-2.17802 -6.39871 1.19116e-19)
(-2.61397 -6.2318 1.60319e-18)
(-2.88992 -6.09525 1.23977e-18)
(-2.93141 -5.87226 -1.52145e-18)
(-2.73193 -5.4852 -1.65312e-18)
(-2.32023 -4.87515 1.75164e-18)
(-1.72085 -4.00616 -7.39253e-19)
(-1.17716 -3.17659 1.7293e-19)
(-0.485836 -2.34301 -1.46253e-21)
(-1.79503 -5.40901 2.0753e-18)
(-2.16601 -5.12427 1.52829e-18)
(-2.23988 -5.1995 -2.2996e-18)
(-2.27123 -5.35996 3.58763e-18)
(-1.99057 -5.36154 -5.15505e-18)
(-1.38905 -4.9861 3.60131e-18)
(-0.598857 -4.29349 9.58645e-19)
(-0.0976132 -3.70777 -2.7032e-19)
(0.33496 -3.00911 9.07273e-20)
(0.669249 -2.29386 -6.44047e-20)
(1.00509 -1.54901 -1.0641e-19)
(-2.6144 -3.73636 -1.43813e-18)
(-0.573158 -3.28314 3.26118e-18)
(-0.730079 -3.08079 -1.85317e-18)
(-0.142025 -2.63751 2.07383e-18)
(0.556123 -2.17121 -1.46434e-18)
(1.13764 -1.83119 4.70455e-19)
(1.55193 -1.49695 0)
(1.78659 -1.14506 1.28942e-19)
(1.92333 -0.781597 0)
(2.00296 -0.441326 -8.52256e-20)
(2.0739 -0.0976946 1.22182e-20)
(1.08641 0.307923 0)
(0.258265 0.369862 -6.77475e-19)
(1.01643 0.407972 -2.2671e-18)
(1.66833 0.44868 1.62044e-18)
(2.06959 0.450053 0)
(2.29911 0.438211 -1.10595e-18)
(2.40991 0.42864 3.78342e-19)
(2.42994 0.42782 1.59398e-19)
(2.40946 0.438611 1.46201e-20)
(2.3816 0.463001 -9.35905e-21)
(2.36696 0.512572 6.27675e-20)
(1.72617 5.55476 7.84559e-19)
(1.6673 3.8648 -3.76218e-18)
(1.6701 3.24212 1.80971e-19)
(1.72066 2.51052 1.59497e-18)
(1.80076 1.95181 3.0559e-19)
(1.90593 1.52645 1.60356e-18)
(2.01178 1.20837 -1.41727e-18)
(2.11377 0.964998 0)
(2.21417 0.774228 -2.82296e-19)
(2.31551 0.623788 5.57035e-19)
(2.41045 0.514684 2.41518e-19)
(3.11488 4.44419 9.09367e-19)
(3.27753 1.9745 -2.50094e-19)
(3.18197 2.87371 -1.21888e-19)
(2.90768 2.42088 0)
(2.66391 2.05575 -3.45478e-19)
(2.51033 1.66781 2.34506e-21)
(2.44235 1.33283 0)
(2.43462 1.06013 0)
(2.46671 0.843938 0)
(2.52672 0.675006 0)
(2.60152 0.55357 9.61757e-20)
(2.83925 2.65186 -6.92891e-18)
(3.49495 0.349963 3.47098e-18)
(3.86221 1.85546 4.64903e-19)
(3.68658 1.66198 -3.60826e-19)
(3.39686 1.66773 0)
(3.10996 1.49101 2.95487e-19)
(2.8998 1.27067 0)
(2.77755 1.0465 7.32332e-20)
(2.7292 0.847064 -2.97941e-20)
(2.73859 0.680725 4.84043e-20)
(2.79088 0.559741 -1.36803e-19)
(1.86749 1.46182 -6.47868e-18)
(2.99787 -0.378027 -9.85478e-19)
(3.79207 0.917545 3.24307e-18)
(3.87122 0.764159 -1.96125e-18)
(3.76792 1.05524 0)
(3.51158 1.07414 -2.89333e-19)
(3.26679 1.01845 2.67115e-19)
(3.0822 0.902238 -8.58964e-20)
(2.9733 0.765059 6.08905e-20)
(2.93576 0.630928 2.71923e-20)
(2.95885 0.525967 0)
(0.845349 0.911613 5.55093e-19)
(2.24911 -0.523844 -4.07565e-19)
(3.29755 0.316255 -1.28523e-18)
(3.63587 0.118106 1.97202e-18)
(3.77196 0.482951 -1.19828e-18)
(3.64175 0.601578 0)
(3.4588 0.674658 -5.38231e-19)
(3.28305 0.66764 2.08036e-19)
(3.15671 0.611287 -1.21045e-19)
(3.09391 0.530028 0)
(3.09296 0.459212 3.8317e-20)
(-0.0675976 0.733127 -4.19458e-18)
(1.4823 -0.411926 3.37659e-18)
(2.66397 0.016628 -1.71846e-18)
(3.20895 -0.219206 2.6203e-18)
(3.53556 0.0826601 -2.73594e-18)
(3.5574 0.212081 2.76932e-18)
(3.47794 0.349205 -1.07912e-18)
(3.35786 0.413503 0)
(3.25428 0.424658 -1.28916e-19)
(3.19326 0.396918 0)
(3.18331 0.364722 -3.0631e-20)
(-0.901567 0.799319 2.78867e-18)
(0.753887 -0.164707 -1.52987e-19)
(2.01743 -0.0700356 2.34653e-19)
(2.72978 -0.333373 0)
(3.19719 -0.1408 -1.82366e-19)
(3.35234 -0.0401832 -1.51982e-19)
(3.37806 0.100488 1.88893e-19)
(3.33087 0.194406 4.23873e-19)
(3.26979 0.246251 -4.0147e-19)
(3.23059 0.255623 1.82595e-19)
(3.22904 0.255299 0)
(-1.65038 1.06472 -6.80313e-18)
(0.0714438 0.176568 3.52956e-18)
(1.39269 0.00119393 0)
(2.25268 -0.299536 2.2293e-19)
(2.83619 -0.224495 1.35541e-18)
(3.10509 -0.169604 -8.40574e-19)
(3.21905 -0.055918 8.19866e-19)
(3.23989 0.0360749 -1.33402e-18)
(3.22706 0.101503 5.96221e-19)
(3.21731 0.129961 3.08535e-19)
(3.23266 0.148619 -4.06811e-19)
(-2.28845 1.44553 -3.38981e-18)
(-0.578551 0.564684 -5.40105e-19)
(0.794045 0.187233 1.79777e-18)
(1.78853 -0.166225 1.33368e-18)
(2.47968 -0.207451 2.37424e-19)
(2.85275 -0.207624 -1.95827e-18)
(3.04318 -0.13498 7.65808e-19)
(3.12194 -0.0615389 0)
(3.15181 -0.000510794 0)
(3.17076 0.0316336 -3.12464e-19)
(3.20411 0.0572452 2.57256e-20)
(-2.84566 1.88715 -4.37902e-18)
(-1.21653 0.974912 4.6617e-18)
(0.205087 0.451444 -1.42888e-18)
(1.3204 0.0292848 2.98579e-19)
(2.12028 -0.124156 -1.22938e-18)
(2.59865 -0.185375 1.79059e-18)
(2.865 -0.159247 -8.2505e-19)
(2.99741 -0.111805 -3.50485e-19)
(3.06444 -0.0643833 4.67725e-19)
(3.10798 -0.0377416 -3.64693e-19)
(3.15779 -0.0152183 3.53199e-19)
(-3.36187 2.36585 -2.30585e-18)
(-1.83932 1.39387 0)
(-0.387027 0.761332 0)
(0.827928 0.259271 -3.20553e-20)
(1.73789 0.00122224 -8.24044e-19)
(2.32808 -0.125008 2.9956e-19)
(2.67895 -0.147425 4.33961e-19)
(2.86962 -0.129032 9.70484e-19)
(2.97396 -0.0990149 -9.06057e-19)
(3.04018 -0.0815361 8.76199e-19)
(3.1024 -0.0697397 -4.22062e-19)
(-3.71716 2.70147 -3.05539e-18)
(-2.39602 1.75053 3.5897e-18)
(-0.976792 1.07798 -1.33806e-18)
(0.300909 0.506877 9.5762e-19)
(1.31638 0.157269 -7.49653e-19)
(2.02324 -0.0356871 -5.53865e-19)
(2.47059 -0.108884 -3.87486e-19)
(2.73075 -0.12239 6.00889e-19)
(2.87926 -0.112256 3.53844e-20)
(2.97078 -0.106075 5.23781e-19)
(3.04507 -0.105638 -3.818e-20)
(-3.83428 2.86512 -1.79675e-18)
(-2.86732 2.03304 0)
(-1.57711 1.39897 0)
(-0.274041 0.782593 -6.85607e-19)
(0.837672 0.350588 0)
(1.6641 0.0864566 -4.19776e-20)
(2.22062 -0.0432967 0)
(2.5659 -0.0943639 0)
(2.77181 -0.107959 7.40402e-19)
(2.89738 -0.115443 4.82729e-19)
(2.98848 -0.126235 -7.09414e-19)
(-3.84675 2.98177 4.22348e-18)
(-3.22067 2.30272 -3.30882e-18)
(-2.1519 1.74349 1.22985e-18)
(-0.893867 1.10722 1.30431e-18)
(0.28774 0.598559 -6.52679e-19)
(1.2306 0.254821 -1.3839e-18)
(1.90732 0.0578411 3.65034e-19)
(2.35516 -0.0410129 -4.64923e-19)
(2.63635 -0.0856431 -6.51174e-19)
(2.81036 -0.111111 9.38404e-19)
(2.92664 -0.135176 -7.31993e-21)
(-3.81327 3.05914 0)
(-3.42179 2.52915 0)
(-2.61868 2.07658 1.1367e-18)
(-1.50647 1.46874 -4.73399e-20)
(-0.317896 0.904862 -6.27699e-19)
(0.719479 0.479572 4.29979e-19)
(1.51704 0.204894 3.25135e-19)
(2.07977 0.0455092 4.36139e-19)
(2.45381 -0.040996 0)
(2.69387 -0.0919367 -4.42325e-19)
(2.85077 -0.131132 6.07073e-19)
(-3.76455 3.12188 4.56118e-18)
(-3.50931 2.7031 -8.81597e-20)
(-2.93457 2.35844 -1.1842e-18)
(-2.04848 1.83297 0)
(-0.947199 1.26023 -2.99464e-19)
(0.132089 0.766608 -6.49273e-19)
(1.03457 0.408458 5.89323e-19)
(1.71655 0.175862 -1.29601e-18)
(2.19849 0.0344363 -2.57726e-19)
(2.52394 -0.0525184 3.91835e-19)
(2.74121 -0.111968 -3.00275e-20)
(-3.72328 3.19285 -2.75913e-19)
(-3.54458 2.85198 -1.75882e-18)
(-3.12722 2.59399 1.19892e-18)
(-2.47209 2.17461 0)
(-1.54795 1.64603 8.99569e-19)
(-0.513327 1.11799 -1.07323e-18)
(0.44873 0.682072 3.27458e-19)
(1.23836 0.366698 0)
(1.83635 0.156082 -2.82773e-19)
(2.26531 0.0190724 0)
(2.56451 -0.0721396 -2.33184e-19)
(-3.69626 3.27151 0)
(-3.56132 2.98858 4.14681e-19)
(-3.24418 2.79378 1.34586e-18)
(-2.77184 2.4736 -9.15895e-19)
(-2.06356 2.02705 4.60858e-19)
(-1.16748 1.51557 -4.72961e-19)
(-0.22669 1.0318 9.21025e-19)
(0.628543 0.63813 -8.61291e-19)
(1.33288 0.348191 1.82327e-19)
(1.87586 0.146187 -1.43858e-19)
(2.27773 0.00928219 3.61142e-20)
(-3.67931 3.35954 -2.30233e-18)
(-3.57503 3.11963 1.7087e-18)
(-3.32695 2.96441 -1.60977e-19)
(-2.98963 2.71839 0)
(-2.4849 2.36496 2.59827e-19)
(-1.78701 1.92108 0)
(-0.959332 1.44626 0)
(-0.112268 1.00664 0)
(0.659975 0.642413 4.81707e-19)
(1.30688 0.364078 -1.96057e-19)
(1.82436 0.16823 5.06059e-20)
(-3.659 3.44694 -8.01876e-20)
(-3.58822 3.22871 -1.20272e-19)
(-3.40608 3.09017 0)
(-3.18581 2.89219 0)
(-2.86019 2.63189 -8.47145e-19)
(-2.37261 2.29926 5.57796e-19)
(-1.71854 1.90288 3.44449e-19)
(-0.959778 1.47764 -2.54648e-19)
(-0.186857 1.07009 -6.90783e-20)
(0.522033 0.718935 1.59551e-19)
(1.13471 0.453016 -8.01758e-20)
(-3.61381 3.48443 3.10434e-18)
(-3.58824 3.25882 0)
(-3.49378 3.11727 0)
(-3.39673 2.97774 0)
(-3.23777 2.83682 8.35419e-19)
(-2.9391 2.65198 -5.15385e-20)
(-2.47113 2.38987 -7.85315e-19)
(-1.85796 2.04401 3.90288e-19)
(-1.16538 1.64492 -7.79137e-20)
(-0.47511 1.2462 -1.63231e-19)
(0.147035 0.908433 1.36107e-19)
(-3.54494 3.30899 -3.37364e-18)
(-3.57414 3.11077 0)
(-3.57114 3.03665 1.83126e-18)
(-3.57236 3.00445 -5.61041e-20)
(-3.51769 3.00243 -9.89463e-19)
(-3.36592 2.98671 -6.11821e-19)
(-3.07993 2.89593 4.50796e-19)
(-2.64857 2.67529 -1.30663e-19)
(-2.12158 2.34062 -7.10254e-20)
(-1.54839 1.94471 8.95068e-20)
(-0.987524 1.57191 4.34976e-20)
(-3.52272 3.09935 -5.60507e-19)
(-3.39213 3.01615 0)
(-3.35071 2.99094 1.12682e-18)
(-3.30911 3.03592 -8.38541e-19)
(-3.23037 3.11905 0)
(-3.10904 3.19704 0)
(-2.95421 3.2218 4.07794e-19)
(-2.75701 3.14957 0)
(-2.50502 2.95322 -1.33335e-19)
(-2.20673 2.65566 0)
(-1.76499 2.28669 -3.23953e-19)
(-1.83648 1.87513 3.96598e-18)
(-1.57202 1.86093 -4.03373e-18)
(-1.34352 1.91829 1.25334e-19)
(-1.1315 1.98483 8.55953e-19)
(-0.950944 2.03088 0)
(-0.836861 2.06637 0)
(-0.7933 2.11282 -4.50169e-19)
(-0.805742 2.17578 2.47721e-19)
(-0.830334 2.23031 4.63599e-19)
(-0.778848 2.2151 -2.96465e-19)
(-0.53822 2.07021 2.42014e-19)
(-1.96852 3.32788 0)
(-1.29224 2.58405 8.2919e-19)
(-0.127189 2.10697 -1.57832e-18)
(0.589299 1.76017 -5.63633e-19)
(1.05323 1.46601 4.43497e-19)
(1.38516 1.21119 -8.29742e-19)
(1.62534 0.997958 8.25862e-19)
(1.80888 0.82029 3.88916e-19)
(1.95917 0.672645 -4.57085e-19)
(2.08887 0.550973 0)
(2.19956 0.456032 -5.41494e-19)
(-2.12811 -1.42276 -6.45823e-18)
(-1.39842 -0.141148 4.09167e-18)
(-0.905863 0.538141 -3.3584e-18)
(-0.196492 0.889928 8.93841e-19)
(0.420061 0.966777 0)
(0.893959 0.906935 0)
(1.24508 0.802602 -4.4653e-20)
(1.50492 0.68534 1.03909e-19)
(1.70399 0.574155 1.99088e-19)
(1.86134 0.475713 0)
(1.9809 0.393697 3.46733e-19)
(-1.38305 -2.36278 -3.46641e-18)
(-0.578281 -1.25501 8.58812e-19)
(-0.731115 -0.916503 0)
(-0.391762 -0.328507 -3.63309e-18)
(0.0129588 0.113437 2.69555e-18)
(0.483777 0.378246 0)
(0.895753 0.477196 0)
(1.22325 0.478539 4.97625e-21)
(1.47393 0.436004 -1.06689e-19)
(1.66111 0.37754 4.69854e-20)
(1.79229 0.315882 -1.78556e-19)
(-0.503511 -2.59983 0)
(0.393928 -1.61054 -4.22979e-18)
(-0.101219 -1.56485 -4.53986e-19)
(0.00633131 -1.02493 2.54856e-18)
(0.131149 -0.599463 0)
(0.405941 -0.236622 0)
(0.729273 0.0119868 0)
(1.02519 0.148215 -2.51576e-19)
(1.28148 0.208629 1.43339e-19)
(1.48539 0.223081 5.08833e-21)
(1.63004 0.211625 9.51611e-20)
(0.233982 -2.50675 4.1632e-20)
(1.12766 -1.71244 4.29874e-21)
(0.555756 -1.85162 0)
(0.57056 -1.39215 0)
(0.521383 -1.05206 -1.45983e-18)
(0.631566 -0.672309 -1.84502e-19)
(0.82036 -0.37418 1.53675e-18)
(1.03928 -0.161476 -2.85607e-19)
(1.25527 -0.0270678 4.85804e-19)
(1.44203 0.0487347 -3.59687e-19)
(1.5782 0.0835844 -2.61794e-19)
(0.775985 -2.2915 -1.26076e-18)
(1.62236 -1.67847 1.171e-18)
(1.09812 -1.90495 -1.40955e-19)
(1.09507 -1.51761 -6.24667e-20)
(0.959603 -1.29443 1.1842e-19)
(0.968379 -0.960311 1.96916e-19)
(1.0413 -0.671397 7.97728e-19)
(1.17222 -0.428406 -1.52925e-18)
(1.32783 -0.246317 4.70688e-19)
(1.47962 -0.119785 -2.31493e-19)
(1.59723 -0.0410229 2.35728e-19)
(1.16211 -2.03951 1.2603e-18)
(1.9477 -1.58404 -8.47279e-20)
(1.50637 -1.84244 -1.37522e-19)
(1.51481 -1.50347 3.07444e-19)
(1.34438 -1.38363 0)
(1.31352 -1.10336 7.07598e-20)
(1.31055 -0.855616 0)
(1.37003 -0.619445 4.22089e-19)
(1.4673 -0.422483 -3.14377e-19)
(1.58075 -0.270298 2.25602e-19)
(1.67851 -0.166695 -9.02062e-20)
(1.44795 -1.80201 2.36726e-18)
(2.1596 -1.49287 -1.84649e-18)
(1.79958 -1.73814 -5.27469e-19)
(1.84207 -1.43194 5.65718e-19)
(1.6544 -1.382 -1.98792e-20)
(1.61672 -1.14733 -2.53646e-19)
(1.5733 -0.946636 8.3634e-20)
(1.58466 -0.734979 2.12544e-19)
(1.63283 -0.544633 -3.25371e-19)
(1.7051 -0.385096 2.92922e-19)
(1.77385 -0.267083 0)
(1.67568 -1.59469 3.79495e-19)
(2.33424 -1.41007 0)
(2.00654 -1.62639 2.95593e-19)
(2.0904 -1.35044 -1.41851e-19)
(1.90621 -1.32998 4.37881e-19)
(1.86803 -1.13473 -5.28735e-19)
(1.8065 -0.973473 2.0669e-19)
(1.78999 -0.789734 0)
(1.80437 -0.615868 5.34859e-20)
(1.84535 -0.461224 -2.06072e-19)
(1.8915 -0.343687 -7.44312e-20)
(1.8451 -1.43923 2.80874e-20)
(2.49998 -1.32193 0)
(2.18671 -1.50636 -1.68176e-18)
(2.2769 -1.2715 5.36416e-19)
(2.1116 -1.25705 -1.06323e-18)
(2.07487 -1.09128 9.37371e-19)
(2.00607 -0.960138 -4.21867e-19)
(1.97432 -0.801942 0)
(1.96699 -0.648167 0)
(1.98603 -0.505833 -9.8121e-20)
(2.01352 -0.393999 -3.5696e-20)
(1.96094 -1.3096 -3.77805e-19)
(2.63548 -1.21777 2.04787e-18)
(2.34977 -1.38833 -8.43821e-19)
(2.43094 -1.18402 4.72332e-19)
(2.28081 -1.17498 3.11417e-19)
(2.24598 -1.03066 0)
(2.17456 -0.922498 -2.84065e-19)
(2.13429 -0.785947 -2.43593e-19)
(2.11233 -0.652258 4.99847e-19)
(2.11486 -0.524448 -3.35116e-19)
(2.125 -0.42129 1.3219e-19)
(2.04204 -1.19123 -4.01394e-19)
(2.73671 -1.11249 0)
(2.48262 -1.27764 -1.93713e-18)
(2.55964 -1.09123 1.78935e-18)
(2.42123 -1.08799 1.11347e-18)
(2.38835 -0.959532 -2.66845e-20)
(2.31612 -0.869519 2.80349e-19)
(2.27088 -0.750847 0)
(2.23862 -0.635346 -1.84212e-19)
(2.22817 -0.521809 4.92604e-19)
(2.22554 -0.429301 0)
(2.10929 -1.07935 3.96493e-19)
(2.82415 -1.00559 2.21987e-18)
(2.59032 -1.17334 -1.7603e-18)
(2.667 -0.995512 5.57634e-19)
(2.53682 -0.998905 -7.82742e-20)
(2.50627 -0.881725 -1.12662e-18)
(2.43387 -0.806783 3.77288e-19)
(2.38578 -0.702934 4.77769e-19)
(2.3464 -0.603673 0)
(2.32728 -0.503436 -2.88268e-19)
(2.31377 -0.42697 0)
(2.15966 -0.955374 0)
(2.89486 -0.8864 0)
(2.68049 -1.06772 -1.67531e-18)
(2.7563 -0.897672 1.00672e-18)
(2.63183 -0.908706 -4.2769e-19)
(2.60345 -0.800211 0)
(2.53056 -0.738392 -3.77239e-19)
(2.48079 -0.647026 -4.77607e-19)
(2.43601 -0.562938 3.29463e-19)
(2.41106 -0.475292 3.49696e-19)
(2.39274 -0.410423 -2.24065e-19)
(2.18555 -0.829594 2.08202e-19)
(2.93762 -0.773169 2.325e-18)
(2.75407 -0.960799 -1.84178e-18)
(2.8251 -0.802251 6.30947e-19)
(2.71065 -0.814511 0)
(2.68061 -0.717203 0)
(2.60903 -0.664803 0)
(2.55756 -0.585909 -4.99957e-19)
(2.50909 -0.515603 5.08171e-20)
(2.47865 -0.441091 2.18375e-19)
(2.45786 -0.385651 2.5894e-19)
(2.20514 -0.706464 3.11337e-18)
(2.96148 -0.663724 -1.27033e-18)
(2.814 -0.852215 0)
(2.87691 -0.709117 9.22842e-19)
(2.77459 -0.717935 -9.71327e-19)
(2.74033 -0.63356 -5.98673e-19)
(2.67072 -0.58792 6.74394e-19)
(2.61721 -0.521564 -1.40327e-19)
(2.56653 -0.463627 -1.51273e-19)
(2.5313 -0.402494 -8.24691e-20)
(2.50947 -0.352364 1.23069e-19)
(2.21772 -0.579914 -1.74674e-18)
(2.96847 -0.549362 0)
(2.86133 -0.737846 0)
(2.91399 -0.615652 -8.15843e-20)
(2.8243 -0.619232 0)
(2.78409 -0.54918 0)
(2.71642 -0.509452 2.43974e-19)
(2.66089 -0.455937 1.67664e-19)
(2.60934 -0.409595 -3.80611e-19)
(2.5711 -0.361767 1.13232e-19)
(2.54745 -0.319272 -9.67898e-21)