/*--------------------------------*- C++ -*----------------------------------*\
| =========                 |                                                 |
| \\      /  F ield         | OpenFOAM: The Open Source CFD Toolbox           |
|  \\    /   O peration     | Version:  3.0.1                                 |
|   \\  /    A nd           | Web:      www.OpenFOAM.org                      |
|    \\/     M anipulation  |                                                 |
\*---------------------------------------------------------------------------*/
FoamFile
{
    version     2.0;
    format      ascii;
    class       surfaceVectorField;
    location    "0.576498";
    object      Uf;
}
// * * * * * * * * * * * * * * * * * * * * * * * * * * * * * * * * * * * * * //

dimensions      [0 1 -1 0 0 0 0];

internalField   nonuniform List<vector> 
32369
(
(3.40544 3.42087 -1.67372e-19)
(4.54375 3.78481 -1.14212e-18)
(2.71333 4.96145 -1.95628e-18)
(2.80186 3.04979 2.46154e-19)
(3.47465 1.8933 -2.18389e-18)
(1.93245 3.56647 2.14728e-18)
(2.52867 2.4907 -8.23489e-20)
(3.32524 2.0924 -8.0081e-19)
(1.83243 2.80454 -1.69836e-18)
(2.27088 1.96168 -4.964e-22)
(2.92491 1.78717 4.09534e-19)
(1.77629 2.1664 -8.81622e-20)
(2.08885 1.53475 7.25472e-20)
(2.54899 1.47887 1.35528e-19)
(1.74779 1.69389 6.05719e-19)
(1.96805 1.20609 -8.44081e-20)
(2.28271 1.20844 0)
(1.7356 1.33724 -4.20312e-19)
(1.88642 0.956138 -8.82671e-20)
(2.10164 0.976549 -1.19247e-19)
(1.72473 1.06412 -7.45188e-19)
(1.83143 0.765474 -8.73991e-21)
(1.98041 0.787518 1.70522e-20)
(1.71554 0.852725 3.05906e-19)
(1.79598 0.619789 7.06916e-20)
(1.89973 0.637488 -2.36021e-20)
(1.71029 0.688564 -3.14514e-20)
(1.77579 0.508745 1.58313e-19)
(1.84777 0.521069 7.80939e-20)
(1.71009 0.562203 5.72132e-20)
(1.81748 0.439326 -1.07311e-21)
(1.7114 0.470548 1.87089e-19)
(1.76518 0.419867 2.43527e-20)
(3.30246 1.18073 -6.00198e-18)
(3.27644 2.12221 -8.23887e-19)
(3.51729 1.49022 -2.99917e-18)
(2.96679 0.108919 -2.17591e-18)
(3.40041 1.51249 -5.22079e-19)
(3.66588 0.923847 -6.8124e-19)
(3.06597 1.43203 5.05674e-19)
(3.4738 0.940433 4.28131e-19)
(2.70926 1.25442 7.47641e-21)
(3.11981 0.929147 6.44692e-21)
(2.41776 1.04549 -2.51258e-20)
(2.75696 0.86638 0)
(2.20345 0.850507 -3.13935e-20)
(2.45654 0.758258 -4.45697e-20)
(2.0549 0.687377 1.26559e-20)
(2.23377 0.64097 0)
(1.95465 0.558603 -1.1745e-20)
(2.07745 0.533325 1.4e-20)
(1.88925 0.461465 -5.30785e-20)
(1.97046 0.444283 -5.17875e-20)
(1.90092 0.382295 -3.13419e-21)
(1.84468 0.391128 -9.31681e-20)
(2.36114 0.177133 -2.72031e-19)
(1.95184 1.24979 2.3286e-19)
(3.11243 0.0984529 -2.03898e-19)
(2.0599 -0.678121 -2.45654e-19)
(3.36918 0.284516 1.63557e-19)
(3.17616 -0.00973597 -8.63737e-20)
(3.3123 0.510221 0)
(3.27707 0.0241251 -1.91125e-18)
(3.05787 0.629672 0)
(3.20742 0.205338 1.5802e-18)
(2.74946 0.647363 2.51985e-20)
(2.95932 0.339598 -6.36921e-19)
(2.4721 0.596884 3.15336e-20)
(2.67303 0.391019 5.05605e-19)
(2.25408 0.519175 0)
(2.4172 0.38997 3.59539e-19)
(2.09552 0.440979 -9.31795e-21)
(2.21579 0.359723 -2.65373e-19)
(1.98591 0.374659 3.37053e-21)
(2.0681 0.322788 6.54507e-20)
(1.96639 0.298667 -7.45965e-21)
(1.90785 0.325441 5.5794e-21)
(1.44169 0.0208658 2.86111e-19)
(0.90901 1.00339 3.41678e-18)
(2.37756 -0.49242 -1.56534e-19)
(1.32856 -0.713478 1.84579e-19)
(2.88239 -0.474189 -1.91952e-18)
(2.4846 -0.467123 -6.59788e-18)
(3.08393 -0.276011 -6.51858e-19)
(2.76143 -0.586561 4.56496e-19)
(3.03514 -0.053266 1.16144e-18)
(2.94441 -0.392266 1.53386e-18)
(2.83871 0.128132 -3.58278e-19)
(2.86757 -0.184093 -8.48432e-19)
(2.60013 0.227697 8.37934e-19)
(2.68718 -0.0259668 4.65906e-19)
(2.37458 0.264106 2.9985e-19)
(2.47523 0.0784459 3.51437e-19)
(2.18963 0.264701 -2.25581e-19)
(2.27832 0.134084 -5.43064e-19)
(2.04878 0.253101 6.02382e-20)
(2.11689 0.161312 2.7966e-19)
(1.99387 0.18453 -1.23551e-19)
(1.9365 0.249219 1.58412e-19)
(0.70121 0.219634 3.17059e-18)
(0.125283 1.08237 -1.96817e-18)
(1.66768 -0.551185 -4.87639e-18)
(0.78762 -0.450061 3.64242e-18)
(2.28677 -0.766245 -4.28384e-18)
(1.86605 -0.583713 -9.08669e-18)
(2.64092 -0.73306 2.55527e-18)
(2.22629 -0.861819 4.89028e-18)
(2.76077 -0.557316 -2.01943e-19)
(2.54667 -0.753996 -9.64558e-19)
(2.70523 -0.336073 -2.51314e-19)
(2.60049 -0.574998 1.0171e-18)
(2.56028 -0.153545 0)
(2.53745 -0.38514 5.64689e-19)
(2.38241 -0.0270438 -2.49207e-19)
(2.4053 -0.222421 -5.99859e-19)
(2.21171 0.0510466 -2.3864e-19)
(2.25085 -0.103052 1.69316e-19)
(2.06603 0.0988096 7.08e-20)
(2.10563 -0.019211 4.19009e-19)
(1.98426 0.0492491 -6.73331e-19)
(1.9365 0.138868 -1.12211e-19)
(0.123138 0.518074 -2.48979e-18)
(-0.482689 1.32805 -1.00208e-17)
(1.06896 -0.391977 1.41663e-18)
(0.341564 -0.0982556 6.22615e-18)
(1.73462 -0.785843 -3.12517e-19)
(1.33065 -0.513964 -2.72847e-18)
(2.16712 -0.91209 1.99768e-18)
(1.75376 -0.912596 2.06086e-18)
(2.39093 -0.835564 1.60509e-19)
(2.14193 -0.917929 -1.32431e-18)
(2.44597 -0.655348 1.84082e-18)
(2.27762 -0.809064 1.60769e-18)
(2.39633 -0.461403 9.23664e-20)
(2.30373 -0.638705 4.85998e-19)
(2.28708 -0.292396 -3.09205e-19)
(2.24784 -0.463634 -8.81234e-19)
(2.15767 -0.162255 6.71106e-19)
(2.1485 -0.312179 1.29885e-18)
(2.03118 -0.0654141 -2.16566e-19)
(2.03648 -0.191636 1.69019e-19)
(1.93092 -0.0872707 -4.97119e-20)
(1.90688 0.0192345 -4.47642e-19)
(-0.331132 0.871595 -3.14982e-18)
(-0.936774 1.67802 -4.04868e-18)
(0.579686 -0.137936 2.999e-18)
(-0.0321772 0.291644 2.77821e-18)
(1.26118 -0.671033 -4.09401e-19)
(0.868566 -0.33468 0)
(1.73461 -0.925071 -7.92095e-19)
(1.34614 -0.831318 -4.56894e-19)
(2.01869 -0.946493 3.70625e-21)
(1.76984 -0.948142 -3.20709e-19)
(2.14696 -0.832262 4.36476e-19)
(1.95875 -0.916361 1.38719e-18)
(2.1715 -0.667676 -2.66361e-19)
(2.04618 -0.788952 -1.18861e-18)
(2.12609 -0.496024 4.37725e-19)
(2.04899 -0.630116 -6.54926e-19)
(2.04413 -0.34333 9.53557e-19)
(1.9998 -0.472956 8.49618e-19)
(1.94807 -0.217471 4.37818e-19)
(1.92592 -0.336458 2.33201e-19)
(1.84539 -0.211939 8.3817e-19)
(1.83232 -0.098223 8.97535e-20)
(-0.68414 1.25348 9.84561e-19)
(-1.22654 2.04576 -5.95676e-19)
(0.189473 0.168942 5.50893e-20)
(-0.338814 0.690533 1.40161e-18)
(0.869332 -0.479573 0)
(0.485778 -0.0886817 1.59971e-18)
(1.364 -0.841278 0)
(1.00286 -0.671204 -1.51407e-18)
(1.68317 -0.951491 9.16575e-19)
(1.44298 -0.891046 -8.77543e-19)
(1.85694 -0.904586 8.75594e-20)
(1.66761 -0.93392 1.70222e-18)
(1.93173 -0.781998 -1.53626e-18)
(1.79573 -0.856743 -1.62988e-18)
(1.9362 -0.629942 -3.69515e-19)
(1.84074 -0.727801 2.53156e-19)
(1.89712 -0.478464 2.32802e-19)
(1.83148 -0.58212 0)
(1.83453 -0.340014 5.66181e-19)
(1.79043 -0.44383 -2.84956e-19)
(1.73354 -0.310973 2.68146e-19)
(1.74207 -0.196847 2.21514e-19)
(-0.942834 1.63601 -4.68845e-19)
(-1.43082 2.40883 -5.57497e-19)
(-0.118936 0.506553 2.9202e-18)
(-0.592212 1.07542 1.55762e-18)
(0.549351 -0.239955 3.51728e-19)
(0.174651 0.19329 6.01585e-19)
(1.05409 -0.69665 -2.4608e-18)
(0.716438 -0.464844 -2.50029e-18)
(1.39411 -0.888721 -3.12493e-19)
(1.16233 -0.778317 -9.2684e-20)
(1.59617 -0.906161 3.26343e-19)
(1.41215 -0.891271 1.46425e-19)
(1.70331 -0.828217 -2.25356e-21)
(1.56681 -0.865295 2.90562e-19)
(1.74263 -0.703933 6.49314e-19)
(1.64088 -0.771103 -1.65343e-18)
(1.7368 -0.565817 -4.47284e-19)
(1.66155 -0.645581 4.02781e-19)
(1.70216 -0.429841 -5.78931e-19)
(1.64738 -0.516043 1.93984e-19)
(1.61259 -0.383227 -3.49478e-19)
(1.63547 -0.283441 -6.84186e-19)
(-1.15221 2.00741 1.20402e-18)
(-1.58288 2.78748 8.87549e-19)
(-0.379741 0.8566 -6.63636e-19)
(-0.818154 1.4666 1.13483e-20)
(0.275295 0.0312697 -1.99163e-18)
(-0.093178 0.508194 -9.74247e-19)
(0.787936 -0.510791 -4.04243e-19)
(0.466062 -0.223204 -5.44223e-19)
(1.14438 -0.780634 3.93924e-19)
(0.91739 -0.626192 7.882e-19)
(1.36719 -0.860043 9.53901e-20)
(1.18907 -0.807467 -2.33356e-19)
(1.49641 -0.826699 -1.14317e-18)
(1.36306 -0.832562 4.33862e-19)
(1.5598 -0.733098 -2.06894e-18)
(1.45773 -0.774298 -1.66824e-18)
(1.57848 -0.613974 1.06518e-18)
(1.50022 -0.672563 4.44737e-20)
(1.56627 -0.488167 4.78494e-19)
(1.50746 -0.557452 9.31105e-19)
(1.49422 -0.434412 -5.98228e-20)
(1.51469 -0.344456 2.33007e-19)
(-1.32389 2.38401 -1.87163e-19)
(-1.67458 3.16003 1.1331e-18)
(-0.603363 1.22209 -1.93037e-19)
(-1.0113 1.85912 -2.08479e-19)
(0.0353794 0.330022 4.44059e-19)
(-0.322747 0.847032 1.56145e-18)
(0.553473 -0.292973 4.91695e-19)
(0.244536 0.0454256 -5.31873e-19)
(0.924943 -0.639653 2.60893e-19)
(0.700864 -0.443431 0)
(1.16585 -0.780446 2.57606e-20)
(0.992369 -0.693192 5.21207e-19)
(1.31236 -0.791553 9.27434e-20)
(1.18251 -0.769945 -1.29537e-22)
(1.3934 -0.729366 2.65932e-19)
(1.29309 -0.748006 9.28063e-19)
(1.43035 -0.63137 -1.68787e-19)
(1.35189 -0.671227 -1.25594e-18)
(1.4373 -0.51842 4.98455e-19)
(1.37523 -0.571919 2.35282e-19)
(1.37712 -0.457659 -1.1412e-20)
(1.41086 -0.379618 1.68236e-19)
(-1.45235 2.74758 1.24969e-18)
(-1.71384 3.48224 1.03767e-18)
(-0.786 1.58823 1.36828e-18)
(-1.16681 2.22274 0)
(-0.169139 0.643233 8.06314e-19)
(-0.512566 1.18658 1.83933e-18)
(0.349114 -0.0536626 -1.07977e-18)
(0.0504984 0.326712 -1.32182e-18)
(0.731989 -0.474733 2.03334e-19)
(0.508565 -0.240108 0)
(0.988233 -0.676352 5.43314e-19)
(0.816656 -0.556649 -1.35053e-19)
(1.14919 -0.731919 7.3066e-19)
(1.02107 -0.685124 4.73267e-19)
(1.2441 -0.701204 -3.57501e-19)
(1.14524 -0.699694 6.12903e-19)
(1.29494 -0.624946 -1.00393e-18)
(1.21719 -0.648349 -8.71408e-19)
(1.31561 -0.526544 -2.31223e-19)
(1.2533 -0.566368 1.87045e-19)
(1.268 -0.464087 -5.21673e-19)
(1.30586 -0.401991 4.44879e-19)
(-1.54352 3.06886 -1.29626e-19)
(-1.72512 3.75923 -1.09192e-19)
(-0.937 1.93678 2.8249e-19)
(-1.29551 2.5603 5.39974e-19)
(-0.347899 0.959759 4.39327e-20)
(-0.676859 1.52593 -1.96374e-19)
(0.165581 0.200191 -3.76267e-19)
(-0.127708 0.620218 -3.41918e-19)
(0.557044 -0.290914 -3.25582e-19)
(0.329758 -0.0177066 0)
(0.827197 -0.55271 -2.69549e-19)
(0.652748 -0.400283 -3.64254e-19)
(1.00183 -0.65322 3.44341e-19)
(0.8717 -0.581445 2.111e-20)
(1.10931 -0.654329 2.46448e-19)
(1.00971 -0.633539 1.21214e-19)
(1.17199 -0.600353 1.97929e-19)
(1.0944 -0.608402 2.86249e-20)
(1.20412 -0.518167 -4.65164e-21)
(1.1426 -0.544902 4.24267e-20)
(1.17016 -0.459153 -2.25812e-19)
(1.20473 -0.408559 2.31624e-19)
(-1.60727 3.36103 4.79437e-19)
(-1.7227 4.01251 5.85525e-19)
(-1.06642 2.27629 2.01321e-19)
(-1.40347 2.88298 5.41314e-19)
(-0.513001 1.28624 -5.70981e-19)
(-0.82515 1.87154 -5.18932e-19)
(-0.00989237 0.473651 0)
(-0.298395 0.932973 2.72882e-19)
(0.38811 -0.0851173 0)
(0.1559 0.22974 -2.0877e-19)
(0.672768 -0.408394 -1.134e-19)
(0.49228 -0.219346 3.50433e-20)
(0.862808 -0.556176 -2.10804e-19)
(0.727065 -0.456281 -1.27066e-19)
(0.984331 -0.59086 -8.74686e-20)
(0.880965 -0.548968 -1.21985e-21)
(1.05971 -0.560283 -1.29998e-19)
(0.980133 -0.55216 -1.9087e-19)
(1.10448 -0.495149 -1.46399e-19)
(1.04161 -0.508038 -1.29698e-19)
(1.08174 -0.436035 1.67433e-19)
(1.12568 -0.405435 9.08828e-21)
(-1.65182 3.62563 6.40263e-19)
(-1.70606 4.21416 6.21218e-19)
(-1.17669 2.59869 0)
(-1.48727 3.1675 0)
(-0.664812 1.61651 2.45495e-19)
(-0.956985 2.20795 3.46364e-19)
(-0.177892 0.764462 1.16993e-19)
(-0.461251 1.25781 1.715e-20)
(0.222836 0.143754 -1.99455e-19)
(-0.0149715 0.501235 -2.14927e-19)
(0.520576 -0.240887 3.88212e-20)
(0.331493 -0.0112073 2.6593e-19)
(0.727099 -0.438493 7.03792e-20)
(0.582205 -0.305614 -1.96536e-19)
(0.864949 -0.509592 -8.34119e-20)
(0.754095 -0.442416 7.90298e-20)
(0.95532 -0.504567 -1.99888e-19)
(0.870559 -0.477389 -1.87118e-19)
(1.0137 -0.457951 1.51955e-19)
(0.947882 -0.455704 7.77062e-20)
(1.00263 -0.402113 1.49571e-19)
(1.04637 -0.384532 1.16876e-19)
(-1.67587 3.83748 4.87538e-20)
(-1.67126 4.35917 4.42715e-20)
(-1.26931 2.89397 3.11525e-19)
(-1.5475 3.41927 0)
(-0.806463 1.9479 1.45624e-19)
(-1.07504 2.53816 3.46273e-19)
(-0.342378 1.07491 -2.87859e-19)
(-0.619232 1.60035 -3.21992e-19)
(0.0565554 0.400866 2.00575e-19)
(-0.187254 0.804078 -4.10459e-20)
(0.365405 -0.0439614 7.66063e-20)
(0.165236 0.232032 3.39485e-19)
(0.589359 -0.294228 -2.18103e-19)
(0.431462 -0.121383 -2.46769e-19)
(0.746342 -0.40591 4.4743e-21)
(0.623689 -0.306852 5.27315e-20)
(0.8551 -0.430515 5.99042e-20)
(0.761342 -0.378951 -7.29969e-20)
(0.930197 -0.405905 6.78356e-20)
(0.858529 -0.384706 9.97583e-20)
(0.931543 -0.352641 2.3997e-20)
(0.980306 -0.354034 -3.78701e-19)
(-1.67721 4.01248 0)
(-1.62198 4.46487 0)
(-1.34271 3.17237 0)
(-1.58169 3.64294 4.35098e-19)
(-0.93845 2.28874 -5.903e-20)
(-1.17567 2.86464 -3.30735e-19)
(-0.506414 1.41525 -1.04266e-19)
(-0.770321 1.96769 1.04224e-19)
(-0.115621 0.697403 5.78223e-20)
(-0.362028 1.14859 7.02061e-21)
(0.20153 0.193699 7.37125e-20)
(-0.00979768 0.522714 1.0834e-19)
(0.443599 -0.11289 -7.51384e-21)
(0.270177 0.109102 -8.85547e-20)
(0.623228 -0.271178 -1.10662e-20)
(0.484739 -0.130453 1.38789e-19)
(0.75504 -0.331988 -5.25637e-20)
(0.647961 -0.247333 -3.05673e-20)
(0.851039 -0.335324 6.33355e-20)
(0.769885 -0.288609 9.54869e-20)
(0.865223 -0.285365 -5.30188e-21)
(0.919742 -0.311644 -4.30486e-19)
(-1.6604 4.14508 3.90086e-19)
(-1.5648 4.52731 0)
(-1.39328 3.42738 2.94682e-19)
(-1.58754 3.83433 4.31116e-19)
(-1.05396 2.63332 -2.11958e-19)
(-1.2525 3.17324 -3.2847e-19)
(-0.665643 1.78607 2.2495e-19)
(-0.90911 2.34961 5.27301e-20)
(-0.292803 1.04023 4.6865e-20)
(-0.537904 1.53542 -1.00299e-19)
(0.027019 0.483002 -3.54651e-20)
(-0.19527 0.870214 0)
(0.286327 0.118336 3.26619e-20)
(0.0950453 0.40044 -5.44401e-20)
(0.491494 -0.0931153 1.38176e-19)
(0.333199 0.102708 8.73775e-21)
(0.651127 -0.199067 1.05295e-19)
(0.526012 -0.0682711 -3.22306e-20)
(0.772995 -0.239412 3.84587e-20)
(0.677632 -0.156263 3.34378e-20)
(0.799815 -0.192693 -1.02668e-20)
(0.862998 -0.244965 -2.34199e-20)
(-1.62462 4.25178 0)
(-1.50278 4.5655 -3.21267e-19)
(-1.41685 3.65589 0)
(-1.56966 3.99406 -2.12275e-19)
(-1.14726 2.97109 -1.02886e-19)
(-1.30506 3.452 3.09067e-19)
(-0.817439 2.18345 -2.54293e-19)
(-1.0336 2.7338 -1.24778e-19)
(-0.476366 1.43642 -1.57558e-19)
(-0.715081 1.96537 -7.46635e-20)
(-0.161312 0.839018 -1.31123e-20)
(-0.393164 1.28904 0)
(0.113846 0.417963 -8.43747e-20)
(-0.0964466 0.774377 5.47456e-20)
(0.34694 0.146524 -1.57488e-19)
(0.165823 0.415883 -8.93279e-21)
(0.538354 -0.0160262 -1.07212e-19)
(0.390618 0.179681 -7.23365e-20)
(0.690753 -0.105571 -5.89853e-21)
(0.575088 0.0310244 -1.16108e-19)
(0.729622 -0.0572343 4.23857e-20)
(0.809225 -0.154465 -2.04945e-20)
(-1.57669 4.34094 -5.39474e-19)
(-1.43777 4.59097 -6.33585e-19)
(-1.41918 3.85363 -1.75386e-20)
(-1.5405 4.12521 2.96741e-20)
(-1.22054 3.28832 3.29905e-19)
(-1.34402 3.6924 4.53917e-19)
(-0.962494 2.59808 5.4882e-20)
(-1.14884 3.1071 2.14115e-19)
(-0.667697 1.89233 8.30785e-20)
(-0.892264 2.43775 1.79155e-19)
(-0.36488 1.28144 6.18851e-20)
(-0.599066 1.79644 -3.48479e-20)
(-0.075414 0.81146 1.3888e-19)
(-0.300092 1.25867 -8.11135e-20)
(0.186021 0.473768 7.38373e-20)
(-0.0166878 0.83996 2.26796e-21)
(0.410334 0.241404 -9.31449e-20)
(0.237355 0.527527 7.69089e-20)
(0.595048 0.08827 -7.65479e-20)
(0.452443 0.302978 1.42389e-20)
(0.638748 0.148274 7.72726e-20)
(0.743299 -0.0167168 -2.22373e-20)
(-1.5213 4.41423 -6.61694e-21)
(-1.35522 4.59577 -3.08742e-19)
(-1.41716 4.01626 3.92196e-19)
(-1.51651 4.20514 1.13712e-19)
(-1.28967 3.57613 3.63411e-19)
(-1.3957 3.89236 -2.45759e-20)
(-1.10599 3.0229 3.37777e-19)
(-1.26124 3.46489 1.10445e-19)
(-0.860972 2.41439 8.44518e-20)
(-1.05273 2.95032 -3.3185e-20)
(-0.573341 1.83232 -1.60844e-19)
(-0.785828 2.40053 -3.44691e-20)
(-0.273836 1.32999 -2.0676e-19)
(-0.492163 1.87312 1.66803e-20)
(0.00901397 0.923557 -8.92897e-21)
(-0.201526 1.40438 -5.31592e-20)
(0.258653 0.609857 1.28901e-19)
(0.0666151 1.01272 5.67803e-20)
(0.471754 0.378144 1.29681e-19)
(0.300947 0.703966 3.11796e-20)
(0.51726 0.464647 8.56443e-20)
(0.653055 0.218768 4.06721e-20)
(-1.4971 4.35225 -1.02107e-19)
(-1.44666 4.55361 -4.37361e-19)
(-1.45724 4.10794 -2.76655e-19)
(-1.5363 4.24518 1.93346e-20)
(-1.38422 3.82623 -3.0035e-19)
(-1.43646 4.05418 -1.23465e-19)
(-1.24266 3.44768 -2.63158e-19)
(-1.30096 3.79095 -1.95173e-19)
(-1.02317 2.99068 -1.51617e-19)
(-1.10429 3.4576 -1.34134e-19)
(-0.747215 2.4884 1.07475e-19)
(-0.86229 3.04144 7.53575e-20)
(-0.451499 1.98673 1.3494e-19)
(-0.59965 2.57292 -2.73645e-20)
(-0.168906 1.52724 0)
(-0.340579 2.09626 1.98744e-20)
(0.087334 1.13638 -2.83337e-20)
(-0.0965713 1.65858 3.37463e-21)
(0.317572 0.823653 -4.40335e-20)
(0.122969 1.28941 -3.9206e-20)
(0.367675 0.973507 -3.05146e-19)
(0.523866 0.551515 1.93172e-21)
(-1.47814 4.57863 -2.32278e-19)
(-0.99308 3.71397 -1.7008e-19)
(-1.42779 4.30785 3.15223e-19)
(-1.07817 3.67498 1.0262e-19)
(-1.33105 4.12081 -1.20883e-19)
(-0.921726 3.62808 -5.70989e-19)
(-1.17265 3.8824 -2.0723e-19)
(-0.797528 3.55205 2.49974e-19)
(-0.967729 3.57118 6.58402e-20)
(-0.671358 3.43008 -2.39184e-20)
(-0.737403 3.17376 -3.96569e-21)
(-0.540143 3.2389 9.89742e-20)
(-0.505149 2.71969 -1.95234e-19)
(-0.408613 2.97545 -1.47996e-19)
(-0.288422 2.25924 2.50098e-20)
(-0.265552 2.63146 -5.44264e-22)
(-0.0854004 1.83274 7.24157e-20)
(-0.112037 2.26944 3.61929e-20)
(0.0998937 1.46683 -1.74755e-21)
(0.0337151 1.92412 -2.89551e-19)
(0.218895 1.5477 5.57195e-21)
(0.299439 1.23831 5.82351e-21)
(-0.911238 2.80282 -7.36207e-21)
(0.619034 1.47767 -1.14794e-18)
(-0.750939 2.93164 -3.57254e-19)
(0.572877 1.63577 -1.20468e-19)
(-0.603318 2.9766 -1.60599e-19)
(0.570603 1.60748 -2.85334e-19)
(-0.480697 3.02091 1.19611e-19)
(0.531958 1.59433 1.13079e-19)
(-0.37647 3.03965 -3.5617e-21)
(0.505854 1.58645 -7.59922e-20)
(-0.281195 3.01115 1.45424e-19)
(0.493998 1.56957 5.29988e-20)
(-0.18481 2.89974 -3.75834e-20)
(0.506178 1.53773 -5.38203e-20)
(-0.0748143 2.69358 -5.12504e-21)
(0.545384 1.47765 -8.45506e-21)
(0.0438132 2.42888 1.74364e-20)
(0.585571 1.40013 -1.24621e-19)
(0.154143 2.12899 -9.91897e-21)
(0.615791 1.31514 3.39741e-19)
(0.643772 1.18919 2.41753e-19)
(0.302058 1.87219 -1.02118e-21)
(-0.248172 4.39548 7.07269e-20)
(-1.45357 2.30328 1.70694e-18)
(0.48057 3.21611 -4.16477e-19)
(-0.6716 2.57019 9.12718e-19)
(0.984198 2.47884 -1.7942e-18)
(0.139827 2.41565 -1.10241e-18)
(1.27622 1.94578 4.68973e-19)
(0.691554 2.06341 -5.9584e-19)
(1.43873 1.54011 3.00759e-19)
(1.02861 1.69906 1.11034e-18)
(1.52659 1.22708 -1.02287e-18)
(1.24432 1.37693 -9.69389e-19)
(1.57451 0.983394 -5.18395e-19)
(1.37828 1.10709 -4.83951e-19)
(1.60446 0.792819 3.15485e-19)
(1.46284 0.887616 2.69955e-19)
(1.62778 0.644398 -4.99406e-20)
(1.52173 0.713889 0)
(1.64989 0.52914 7.52188e-20)
(1.5661 0.580147 -5.51461e-20)
(1.59954 0.483671 1.16975e-19)
(1.67053 0.439634 -6.92512e-20)
(-1.79856 1.29342 1.84918e-18)
(-2.49712 0.174651 1.52289e-18)
(-1.0673 1.92568 8.17967e-19)
(-1.38393 0.953912 1.03236e-18)
(-0.272383 1.9559 1.8527e-19)
(-0.89928 1.28936 1.64319e-18)
(0.35334 1.75491 -7.41158e-20)
(-0.234875 1.45225 -6.29681e-19)
(0.781454 1.48897 1.57887e-19)
(0.307976 1.42652 8.50376e-19)
(1.0635 1.22779 -3.90303e-19)
(0.713054 1.26174 2.25702e-19)
(1.24489 0.997205 3.48997e-19)
(0.997027 1.05752 7.38557e-19)
(1.36543 0.804501 0)
(1.1839 0.863087 -2.92803e-19)
(1.44937 0.650456 0)
(1.3147 0.699181 -5.29785e-19)
(1.51294 0.52953 -9.67879e-20)
(1.40826 0.568499 -1.39906e-19)
(1.47202 0.471344 -1.08918e-19)
(1.56319 0.429282 -8.29103e-20)
(-1.65876 0.0711268 1.01085e-18)
(-2.16511 -0.597348 2.38162e-19)
(-1.41861 0.489039 1.35141e-18)
(-1.16771 -0.0984469 -1.06698e-19)
(-0.950551 0.870375 7.71932e-19)
(-1.14465 0.249556 1.70493e-18)
(-0.393171 1.12942 -2.43723e-20)
(-0.694162 0.629837 -1.18353e-19)
(0.163798 1.18119 7.60336e-19)
(-0.239755 0.837091 -8.13914e-20)
(0.604579 1.08218 1.28642e-18)
(0.220732 0.90729 -1.42472e-19)
(0.916531 0.923364 3.75584e-19)
(0.602918 0.859688 5.93229e-19)
(1.12352 0.76199 -7.80805e-19)
(0.887564 0.756275 -5.23945e-19)
(1.26666 0.622684 -7.4374e-19)
(1.09125 0.635641 -1.40428e-19)
(1.37197 0.510545 -1.54637e-19)
(1.23819 0.525309 2.42658e-19)
(1.33868 0.440294 -1.07113e-19)
(1.45085 0.420035 1.71687e-19)
(-1.14104 -0.557301 -7.99524e-19)
(-1.57839 -0.972526 -4.0147e-20)
(-1.10447 -0.301367 3.37596e-19)
(-0.651359 -0.659631 -7.69531e-19)
(-0.935311 0.0500501 1.01026e-18)
(-0.915503 -0.420132 3.93019e-19)
(-0.631912 0.372153 -4.41259e-20)
(-0.660734 -0.0541143 -4.84e-19)
(-0.246373 0.592583 -8.0454e-19)
(-0.379409 0.244602 -3.72407e-19)
(0.164642 0.691081 -8.66374e-19)
(-0.0372685 0.442578 -4.87085e-19)
(0.534422 0.68739 -1.39464e-19)
(0.310766 0.530249 -3.10559e-19)
(0.827493 0.625216 1.37349e-19)
(0.625284 0.536505 -4.75754e-19)
(1.04535 0.537509 9.06037e-19)
(0.874446 0.492151 4.50808e-19)
(1.20548 0.451081 4.80252e-19)
(1.06544 0.429466 4.50455e-19)
(1.19721 0.369631 -1.059e-19)
(1.32634 0.368151 -6.48651e-19)
(-0.656143 -0.916031 8.7791e-20)
(-1.03671 -1.16239 3.28455e-19)
(-0.645533 -0.787266 -4.62831e-19)
(-0.178308 -0.965255 -6.69553e-20)
(-0.608208 -0.491845 -8.52024e-19)
(-0.54581 -0.833249 -4.18589e-19)
(-0.478361 -0.181499 -7.37349e-19)
(-0.39451 -0.520167 -2.16323e-19)
(-0.242117 0.0864932 -7.951e-21)
(-0.263566 -0.244479 -2.72317e-19)
(0.0443366 0.277123 3.67233e-20)
(-0.036372 0.010268 4.20592e-19)
(0.351541 0.377221 -6.25576e-19)
(0.22266 0.168414 5.3464e-21)
(0.633718 0.402884 -2.64832e-19)
(0.492485 0.26112 -5.66775e-20)
(0.868804 0.383149 0)
(0.732727 0.293311 -1.03013e-19)
(1.05643 0.343844 0)
(0.932385 0.287687 3.59908e-20)
(1.07787 0.26681 -1.15341e-19)
(1.20353 0.299694 0)
(-0.258034 -1.09344 8.5126e-19)
(-0.589427 -1.22521 1.37894e-19)
(-0.235058 -1.06078 -2.11426e-20)
(0.186064 -1.11835 7.74864e-21)
(-0.253544 -0.8332 1.33827e-19)
(-0.188735 -1.06137 9.15553e-21)
(-0.21612 -0.573715 2.16951e-19)
(-0.0782252 -0.798204 4.62186e-20)
(-0.0961324 -0.32197 8.01697e-20)
(-0.046274 -0.573542 1.15814e-19)
(0.0962813 -0.100163 3.60536e-19)
(0.0880747 -0.337501 -1.3354e-20)
(0.318213 0.0613522 4.39673e-19)
(0.267383 -0.141193 4.51664e-19)
(0.550734 0.156973 7.6974e-20)
(0.470579 -0.00260545 1.45878e-19)
(0.765859 0.199973 -8.25277e-20)
(0.672779 0.0836662 4.03063e-20)
(0.950529 0.208309 -5.1154e-20)
(0.85432 0.127779 2.02785e-20)
(0.9916 0.145025 -6.79283e-21)
(1.10346 0.198588 -7.55024e-20)
(0.0585106 -1.15471 -2.88988e-20)
(-0.229962 -1.20351 -2.96926e-19)
(0.101241 -1.19194 3.35842e-19)
(0.454056 -1.18507 3.64267e-19)
(0.0674037 -1.02031 -7.79131e-20)
(0.112318 -1.18273 -6.15241e-20)
(0.0623914 -0.813311 -1.34034e-20)
(0.216273 -0.949679 -1.51239e-19)
(0.119002 -0.597011 5.21796e-20)
(0.187323 -0.784472 1.16411e-19)
(0.226422 -0.3847 2.21987e-20)
(0.267181 -0.572807 -2.35059e-19)
(0.37945 -0.205845 1.45751e-19)
(0.376885 -0.381498 2.45894e-19)
(0.554099 -0.072387 1.04166e-19)
(0.520699 -0.223159 -1.03796e-19)
(0.728834 0.0156538 1.16737e-19)
(0.677755 -0.10406 1.95241e-19)
(0.891251 0.0675158 6.63292e-20)
(0.829605 -0.0264799 -2.07235e-20)
(0.949641 0.0207163 9.78937e-20)
(1.03281 0.100027 2.78611e-19)
(0.299539 -1.16586 3.63846e-19)
(0.0621649 -1.1716 7.0425e-20)
(0.363301 -1.24802 5.45663e-19)
(0.65189 -1.21326 7.11284e-20)
(0.332752 -1.11776 -1.18406e-19)
(0.354195 -1.24856 -1.07888e-19)
(0.317844 -0.948979 0)
(0.470981 -1.03472 0)
(0.336809 -0.771354 -1.33799e-19)
(0.402204 -0.907504 1.69618e-22)
(0.392778 -0.581827 -2.99434e-20)
(0.454897 -0.723615 -1.9999e-19)
(0.488588 -0.407026 3.45981e-20)
(0.515497 -0.550642 1.53014e-19)
(0.611323 -0.260801 -1.22111e-20)
(0.610593 -0.392153 -1.22756e-19)
(0.747325 -0.149468 8.20281e-20)
(0.724923 -0.261283 7.80598e-20)
(0.881859 -0.0715226 -5.91593e-21)
(0.844793 -0.163531 -2.50144e-20)
(0.942997 -0.0965458 -2.59897e-20)
(1.00546 -0.014032 0)
(0.49532 -1.1633 -9.98287e-20)
(0.302665 -1.12832 3.27002e-19)
(0.583784 -1.26272 -3.36143e-19)
(0.826547 -1.247 -3.06804e-19)
(0.538381 -1.16711 0)
(0.552111 -1.2442 0)
(0.53119 -1.02847 1.52513e-22)
(0.681239 -1.09099 2.00212e-19)
(0.533488 -0.875988 -1.07832e-19)
(0.59509 -0.980528 -1.56297e-19)
(0.561171 -0.710633 1.82167e-21)
(0.630452 -0.81773 -2.44811e-20)
(0.617537 -0.548832 2.56542e-20)
(0.658976 -0.663371 6.43099e-21)
(0.698418 -0.40291 -2.08704e-20)
(0.718052 -0.513246 4.53346e-21)
(0.795523 -0.282268 -1.8777e-20)
(0.795847 -0.381106 0)
(0.897635 -0.189134 -4.65367e-20)
(0.884421 -0.273527 7.35658e-20)
(0.958449 -0.193693 -4.75889e-20)
(0.992956 -0.108524 -1.89961e-19)
(0.665502 -1.15349 -4.29576e-20)
(0.483772 -1.07826 -4.89122e-19)
(0.758885 -1.27071 0)
(0.992438 -1.24976 4.05484e-19)
(0.731671 -1.1765 1.80466e-19)
(0.736721 -1.25213 4.6074e-19)
(0.718947 -1.06899 1.86446e-19)
(0.850681 -1.10825 3.54349e-20)
(0.708097 -0.934956 -1.50582e-19)
(0.767693 -1.01494 -5.41367e-19)
(0.718014 -0.790281 1.95628e-20)
(0.789148 -0.871895 2.13943e-19)
(0.747883 -0.643292 -1.90328e-20)
(0.79586 -0.734338 -1.93112e-20)
(0.797298 -0.504352 2.04063e-20)
(0.828784 -0.594912 4.60195e-20)
(0.862359 -0.382982 7.76596e-20)
(0.877331 -0.467263 0)
(0.936874 -0.283544 8.23187e-20)
(0.939017 -0.358244 5.45821e-20)
(0.992878 -0.27552 -1.84577e-20)
(1.01204 -0.192351 -2.94828e-19)
(0.832412 -1.10967 5.63691e-20)
(0.61544 -1.01923 -4.15713e-19)
(0.927007 -1.2552 8.63851e-19)
(1.1287 -1.21177 1.69862e-18)
(0.894057 -1.17314 1.97637e-19)
(0.900259 -1.22921 -1.35256e-19)
(0.881041 -1.08093 -4.41385e-19)
(0.999348 -1.10683 2.59383e-19)
(0.863041 -0.962248 -2.1156e-19)
(0.919182 -1.02406 -6.52901e-19)
(0.860278 -0.834696 2.1938e-19)
(0.930431 -0.896731 -3.09908e-20)
(0.871033 -0.701722 3.79374e-20)
(0.921598 -0.774008 1.46245e-19)
(0.896959 -0.572354 3.06433e-20)
(0.935013 -0.645742 -1.02307e-19)
(0.936844 -0.455442 -2.05591e-20)
(0.960192 -0.525666 2.72852e-20)
(0.987874 -0.35666 -2.56752e-20)
(0.999278 -0.420049 8.95353e-21)
(1.03691 -0.337391 -6.3447e-21)
(1.04156 -0.266417 0)
(0.954155 -1.0606 1.40009e-18)
(0.726622 -0.96326 -5.36582e-19)
(1.06649 -1.22325 1.12127e-18)
(1.25077 -1.17327 8.36688e-19)
(1.03836 -1.15293 -2.79661e-19)
(1.03947 -1.19679 6.08891e-19)
(1.02262 -1.07269 3.08917e-19)
(1.13038 -1.0866 -2.33761e-20)
(0.999603 -0.966638 -4.91096e-19)
(1.05141 -1.01409 -2.68159e-19)
(0.987459 -0.853002 -1.21133e-19)
(1.05519 -0.89921 -2.13026e-19)
(0.983643 -0.732631 3.42372e-20)
(1.03439 -0.789424 2.5503e-19)
(0.99118 -0.613573 -1.20335e-19)
(1.03257 -0.67205 -1.30753e-19)
(1.01042 -0.503821 8.62823e-20)
(1.03845 -0.561155 -2.54485e-20)
(1.04019 -0.409416 4.93822e-20)
(1.05733 -0.461588 8.24735e-20)
(1.0774 -0.383884 -8.15144e-20)
(1.07205 -0.317231 -3.88547e-21)
(1.06465 -1.00349 -8.45183e-19)
(0.829355 -0.899255 6.05265e-20)
(1.18759 -1.18212 3.46055e-19)
(1.36394 -1.12024 3.88062e-19)
(1.16337 -1.12064 7.8391e-19)
(1.1618 -1.15633 5.43793e-19)
(1.14649 -1.04919 -4.97559e-19)
(1.24646 -1.05307 -8.64896e-19)
(1.11927 -0.953311 1.22544e-21)
(1.16671 -0.989339 6.01745e-19)
(1.0996 -0.851192 9.35265e-20)
(1.16448 -0.884388 -2.1483e-19)
(1.08396 -0.742072 1.33397e-19)
(1.13355 -0.785972 1.20679e-19)
(1.07625 -0.633404 -4.71725e-20)
(1.11911 -0.678767 0)
(1.07767 -0.532394 -3.70011e-20)
(1.10835 -0.577707 -1.41145e-19)
(1.08926 -0.444998 -1.38728e-20)
(1.10943 -0.48645 4.72045e-20)
(1.10989 -0.415026 -6.79687e-20)
(1.1052 -0.370638 -5.75172e-20)
(1.16742 -0.926074 1.46431e-18)
(0.905829 -0.801825 1.84862e-19)
(1.29678 -1.12542 5.78979e-19)
(1.45549 -1.04511 4.55816e-19)
(1.27423 -1.07622 -1.1117e-18)
(1.26851 -1.10218 6.43397e-19)
(1.25519 -1.01312 1.17218e-20)
(1.34674 -1.00761 -9.06429e-19)
(1.22389 -0.925958 4.36856e-19)
(1.26797 -0.951468 3.10498e-19)
(1.19746 -0.833871 -2.39412e-19)
(1.25911 -0.855562 -5.77281e-19)
(1.17143 -0.734879 0)
(1.21967 -0.76697 -7.86696e-20)
(1.15033 -0.636158 -7.87199e-20)
(1.19379 -0.669573 -1.24657e-19)
(1.13573 -0.544473 -9.79936e-20)
(1.16813 -0.578451 1.95353e-19)
(1.12941 -0.465594 -1.91186e-21)
(1.15278 -0.49617 -1.73971e-19)
(1.13776 -0.434741 -2.15625e-21)
(1.12604 -0.391644 1.31381e-19)
(1.24457 -0.83944 -6.3082e-19)
(0.978651 -0.70918 -4.21414e-19)
(1.38738 -1.0574 5.0125e-19)
(1.52992 -0.965452 -1.01786e-18)
(1.37026 -1.02081 8.64508e-19)
(1.36251 -1.03846 2.01281e-18)
(1.34944 -0.965167 -8.05674e-19)
(1.43157 -0.952846 -2.81644e-19)
(1.31474 -0.885608 -6.14625e-19)
(1.35683 -0.90157 -6.38157e-19)
(1.2817 -0.80224 -4.9753e-19)
(1.33964 -0.814532 -1.47741e-19)
(1.24624 -0.712712 -1.9565e-19)
(1.29323 -0.734209 3.06911e-19)
(1.21297 -0.624032 1.01578e-19)
(1.25618 -0.646736 -1.46289e-19)
(1.18377 -0.54211 1.7098e-19)
(1.21708 -0.565698 2.815e-19)
(1.16067 -0.472953 -1.93755e-19)
(1.18571 -0.49311 4.56721e-20)
(1.15489 -0.439005 -7.65456e-20)
(1.13804 -0.414229 -1.88405e-21)
(1.31024 -0.747076 -3.10324e-19)
(1.0452 -0.610686 5.47601e-19)
(1.46338 -0.980592 -3.12475e-19)
(1.59094 -0.875693 -6.21905e-19)
(1.45275 -0.956338 9.59825e-19)
(1.4466 -0.964186 2.14136e-19)
(1.43045 -0.907306 -1.78545e-20)
(1.50355 -0.88915 1.17375e-18)
(1.39265 -0.834255 -1.94264e-19)
(1.43394 -0.840991 -8.54636e-19)
(1.35288 -0.758589 5.74565e-19)
(1.40688 -0.762461 -3.9581e-19)
(1.30839 -0.677997 3.98787e-19)
(1.35402 -0.689509 6.87325e-19)
(1.26353 -0.599378 -2.92596e-20)
(1.30587 -0.612174 -2.64119e-20)
(1.22061 -0.527546 1.90442e-19)
(1.25455 -0.541507 0)
(1.18198 -0.468154 1.98398e-19)
(1.20825 -0.479464 3.19484e-19)
(1.16397 -0.434537 -8.9723e-20)
(1.14375 -0.417848 -2.05571e-19)
(1.36885 -0.643151 5.60516e-19)
(1.09671 -0.498311 5.02002e-19)
(1.52864 -0.890903 -4.27976e-19)
(1.63568 -0.769529 1.06135e-18)
(1.52412 -0.880997 4.60653e-19)
(1.51895 -0.875481 -1.2092e-18)
(1.49979 -0.839165 6.57116e-19)
(1.56311 -0.814426 1.31554e-18)
(1.45822 -0.772472 -1.10346e-18)
(1.49887 -0.769404 -4.98546e-19)
(1.4112 -0.704032 -4.15372e-19)
(1.46101 -0.69959 -9.95332e-20)
(1.35765 -0.632419 3.37079e-19)
(1.40146 -0.63415 -1.20298e-19)
(1.30174 -0.5642 0)
(1.34247 -0.567602 7.69587e-20)
(1.24621 -0.502968 9.34877e-20)
(1.2802 -0.50802 -9.07896e-20)
(1.19331 -0.453393 1.20979e-19)
(1.2209 -0.456951 2.31168e-22)
(1.1615 -0.420088 -1.56499e-19)
(1.13884 -0.417407 1.55613e-19)
(1.41328 -0.526469 9.41376e-19)
(1.13741 -0.377044 0)
(1.57996 -0.786051 7.51652e-19)
(1.66463 -0.647628 1.28311e-18)
(1.5831 -0.792503 -4.83057e-19)
(1.5777 -0.770632 -9.02033e-19)
(1.55705 -0.759209 4.0179e-19)
(1.60953 -0.726362 -1.03062e-19)
(1.511 -0.699753 4.57728e-19)