/*--------------------------------*- C++ -*----------------------------------*\
| =========                 |                                                 |
| \\      /  F ield         | OpenFOAM: The Open Source CFD Toolbox           |
|  \\    /   O peration     | Version:  3.0.1                                 |
|   \\  /    A nd           | Web:      www.OpenFOAM.org                      |
|    \\/     M anipulation  |                                                 |
\*---------------------------------------------------------------------------*/
FoamFile
{
    version     2.0;
    format      ascii;
    class       volScalarField;
    location    "0.0850386";
    object      epsilon;
}
// * * * * * * * * * * * * * * * * * * * * * * * * * * * * * * * * * * * * * //

dimensions      [0 2 -3 0 0 0 0];

internalField   nonuniform List<scalar> 
21246
(
984.687
490.977
135.148
47.1358
15.6265
5.15979
2.09829
1.15803
0.822206
0.678434
0.604797
1157.92
631.188
251.633
95.2568
32.5515
8.42058
2.73999
1.31746
0.868237
0.689808
0.602107
975.714
557.368
290.321
130.455
52.0097
16.3957
4.50289
1.58129
0.939393
0.712671
0.605172
656.894
464.862
287.383
147.943
66.9881
24.9244
7.63667
2.31354
1.04572
0.745612
0.617675
384.46
377.573
266.17
154.643
78.0623
33.0708
11.6102
3.63391
1.35904
0.810106
0.639195
207.712
301.304
238.467
154.708
86.291
40.8494
16.2784
5.62228
1.98009
0.967835
0.68405
109.583
236.664
209.684
149.856
91.485
47.8186
21.3581
8.26447
3.01453
1.29192
0.777957
64.5493
186.178
182.741
141.413
93.4489
53.3476
26.3798
11.4006
4.50626
1.86289
0.968572
55.4299
147.798
158.947
131.268
92.9156
57.3403
31.0358
14.8508
6.45142
2.75257
1.31769
56.525
114.326
136.986
121.226
91.2394
60.2484
35.3012
18.5054
8.83109
4.01816
1.8946
55.5586
85.8591
115.695
112.026
89.4909
62.6063
39.243
22.2721
11.5902
5.6881
2.76426
52.0104
64.2368
94.5451
102.619
87.9838
64.8927
43.028
26.1052
14.6584
7.75511
3.97704
46.5463
48.5545
73.9829
90.7598
85.7396
67.2218
46.8816
30.0658
18.0021
10.1978
5.55648
39.6429
36.0628
55.5905
75.6092
80.483
68.553
50.5725
34.0935
21.5547
12.96
7.48961
32.8135
26.6665
40.587
59.1343
70.9409
67.0494
53.0888
37.7071
25.0416
15.8699
9.69456
26.8603
19.7579
29.0044
43.8371
58.1823
61.5224
53.1094
40.1072
28.0122
18.6576
12.0077
22.0094
14.7184
20.1962
31.101
44.5716
52.424
49.7978
40.4229
29.8735
20.9499
14.2048
18.8872
11.5594
14.351
21.5414
32.3497
41.6511
43.4968
38.2018
30.0912
22.3217
16.0095
17.6155
9.87315
10.6715
14.897
22.6512
31.2036
35.4777
33.7083
28.4475
22.4717
17.0948
17.9455
9.18887
8.59096
10.7804
15.6151
22.3655
27.1942
27.73
25.0749
21.1846
17.148
19.6657
9.10508
7.50924
8.57158
11.4047
15.7093
19.8397
21.3087
20.4579
18.4375
15.8223
23.4408
9.62496
7.55484
8.25276
9.91071
12.3275
14.8087
15.995
15.8944
15.0816
13.6373
29.2048
16.4327
16.4696
15.5122
14.9489
14.6114
14.6344
14.4449
14.0038
13.5525
12.7417
97.3748
74.6359
49.477
38.5007
32.2843
26.8399
21.7162
17.935
15.4808
13.7737
11.9836
999.165
255.454
99.7964
33.7474
11.1528
4.0754
1.85514
1.10199
0.811699
0.682738
0.616261
783.92
207.225
82.1833
31.6152
11.5709
4.45313
2.03097
1.17663
0.847861
0.707592
0.64186
684.012
207.624
80.7649
34.4401
13.5441
5.28239
2.34427
1.29834
0.901727
0.740878
0.675647
547.783
181.344
73.4105
35.3164
15.494
6.38948
2.79006
1.46689
0.96898
0.774304
0.705118
443.187
150.587
64.0195
32.5245
15.7913
7.34347
3.41823
1.76569
1.09413
0.82382
0.729434
368.301
124.42
56.1707
29.9031
15.3011
7.62657
3.89639
2.15762
1.32822
0.933165
0.772073
312.746
104.273
49.8438
27.6451
14.9022
7.95607
4.35618
2.52146
1.55632
1.04969
0.817409
269.724
88.9047
44.799
25.8262
14.6207
8.32639
4.87836
2.97509
1.87343
1.23232
0.897484
236.765
77.3333
40.8868
24.5067
14.5444
8.80822
5.50821
3.55289
2.31556
1.52337
1.06208
210.679
68.3964
37.9408
23.5907
14.7032
9.44174
6.28338
4.29272
2.92036
1.95237
1.32297
189.396
61.6559
35.6679
23.013
15.0806
10.2218
7.21475
5.2159
3.71849
2.55448
1.72005
170.785
56.0276
33.7699
22.6438
15.5653
11.0956
8.26801
6.30941
4.72073
3.35536
2.27847
154.572
51.6099
32.1676
22.3929
16.0952
12.003
9.38007
7.52234
5.90497
4.36108
3.03725
139.886
48.1607
30.7336
22.11
16.5432
12.8444
10.4447
8.73538
7.1838
5.55984
3.99265
126.16
44.8078
29.1754
21.6107
16.7475
13.4578
11.299
9.76514
8.34493
6.75223
5.04857
113.215
41.4318
27.4017
20.806
16.6135
13.7452
11.8412
10.4965
9.24753
7.77362
6.04429
101.047
37.9917
25.3997
19.6777
16.1154
13.6711
12.0304
10.8748
9.80876
8.50501
6.87061
90.1488
34.546
23.2317
18.2901
15.313
13.2864
11.9099
10.9292
10.0256
8.89712
7.41283
81.3446
31.391
21.1041
16.8204
14.3685
12.7384
11.6141
10.777
9.98336
8.98938
7.67187
75.7039
29.0025
19.3377
15.5346
13.5196
12.2436
11.3424
10.6021
9.84188
8.90299
7.70756
74.7632
27.9642
18.3078
14.7331
13.0314
12.0437
11.3193
10.6157
9.79771
8.81367
7.6394
81.5054
29.0776
18.4491
14.7505
13.2077
12.4318
11.8242
11.0761
10.0806
8.91968
7.6271
103.438
34.2012
20.6001
16.2651
14.7837
14.2044
13.6236
12.6312
11.2034
9.61413
8.02082
191.874
35.8323
25.8386
22.7668
22.184
21.642
20.2262
17.8714
15.0221
12.224
9.6932
390.117
122.126
62.8667
34.4453
17.9086
8.46388
3.63417
1.4967
0.613132
0.253945
0.111846
380.433
108.724
58.077
32.146
16.5357
7.73401
3.3378
1.37424
0.55715
0.228694
0.100048
271.238
97.4317
54.6807
31.864
17.0572
8.16881
3.5494
1.44697
0.57401
0.231147
0.101037
206.114
83.6611
50.4672
31.1601
17.4953
8.68361
3.85722
1.58805
0.629742
0.250571
0.107024
158.662
67.4284
42.9751
28.6976
17.3872
9.18503
4.25108
1.78458
0.706427
0.270521
0.107554
131.662
56.022
36.66
25.3829
16.1426
8.99634
4.34274
1.86107
0.740254
0.286505
0.116288
113.899
47.7571
31.9051
22.5133
14.582
8.3363
4.15111
1.83447
0.747013
0.293228
0.119355
102.308
42.181
28.2608
20.0798
13.1837
7.66178
3.89178
1.75794
0.730956
0.292451
0.123889
93.6223
38.004
25.3933
18.0855
11.9585
7.02057
3.61659
1.66289
0.705914
0.288799
0.124691
86.8095
34.8035
23.1527
16.5044
10.9584
6.47644
3.3698
1.57089
0.678418
0.282513
0.122536
81.1773
32.25
21.378
15.2526
10.1598
6.03581
3.16451
1.49059
0.651875
0.274846
0.121887
77.0762
30.1711
19.9358
14.2381
9.51358
5.67961
2.99803
1.42459
0.629558
0.268457
0.120397
74.3065
28.5336
18.7864
13.4384
9.01289
5.40963
2.87497
1.37716
0.614314
0.26454
0.11904
72.212
27.3168
17.9196
12.8528
8.66494
5.23468
2.8019
1.35203
0.607539
0.263231
0.119563
71.3406
26.4233
17.267
12.432
8.44018
5.14208
2.77584
1.34951
0.609956
0.265011
0.119785
71.6457
25.8402
16.8234
12.1784
8.3468
5.14205
2.80487
1.37439
0.623931
0.270881
0.1216
72.7599
25.6078
16.6154
12.1196
8.41507
5.26044
2.90649
1.43601
0.653457
0.282281
0.125268
75.4159
25.7502
16.6516
12.267
8.66433
5.52161
3.10079
1.54658
0.704508
0.301662
0.131099
80.4243
26.6059
17.0559
12.6848
9.16032
5.98544
3.42553
1.72943
0.78892
0.334094
0.141775
88.7724
28.4209
17.942
13.4069
9.90393
6.68717
3.95993
2.04736
0.94246
0.396678
0.164046
102.537
31.7377
19.5205
14.5493
10.9622
7.66341
4.73714
2.55469
1.21752
0.524812
0.216208
127.329
36.8001
22.064
16.2349
12.3922
8.95115
5.81037
3.32791
1.69281
0.778716
0.335395
171.42
46.1452
26.1419
18.862
14.4176
10.6881
7.29642
4.49423
2.5015
1.27385
0.605548
306.458
53.6531
33.2593
22.7504
17.3964
13.2336
9.54861
6.39806
3.96638
2.28876
1.24531
354.92
184.923
106.148
60.4239
32.9519
16.3168
6.16115
2.35029
0.898353
0.351101
0.148547
255.781
179.763
133.151
90.5503
56.8363
32.5106
15.822
6.47948
1.93917
0.592149
0.22489
144.318
162.988
145.278
111.671
78.6768
50.6777
28.9516
14.2178
5.51117
1.57114
0.405181
145.697
91.8479
126.667
123.42
96.8099
68.2374
43.413
24.4399
11.5986
4.2964
1.2
158.294
85.959
96.6864
126.18
117.955
89.1275
60.2181
36.796
19.8409
8.96514
3.1818
171.948
86.6404
81.361
105.176
130.473
115.522
83.0461
53.0784
30.6314
15.573
6.64643
183.884
86.7825
72.6662
84.2497
112.956
131.946
109.948
74.9746
45.2069
24.4957
11.6909
192.959
85.8272
66.4142
69.7887
88.0817
118.737
126.914
98.5391
63.3997
36.0405
18.3708
201.061
84.4697
61.9379
59.6914
69.2531
93.7601
122.247
114.667
81.6236
49.2454
26.4977
209.133
83.3873
59.2284
52.9275
56.1109
72.2644
102.11
117.574
94.752
61.5075
34.9091
218.185
83.1539
58.2959
48.875
47.8007
57.6242
82.3725
109.023
100.312
70.1148
41.9704
228.898
85.4072
59.1531
47.0599
43.1778
48.6975
67.1678
96.3233
99.8739
73.9141
46.4134
243.185
89.7122
61.584
47.1121
41.2523
43.9904
57.1136
83.6305
96.4899
73.2002
47.1045
262.152
96.9887
65.6541
48.6362
41.095
42.094
50.8499
68.0497
88.5196
70.1395
44.9179
285.59
107.163
71.6403
51.266
41.2957
40.0625
45.2311
55.1863
67.1602
67.5054
41.2535
316.261
121.12
80.2072
55.3217
41.959
37.9026
39.6691
44.9021
51.6949
55.1733
40.3854
357.305
140.214
92.5251
61.6278
43.8382
36.7331
35.7534
37.8569
41.1471
43.0399
38.5537
414.561
166.596
110.98
72.1327
48.4487
37.8947
34.6861
34.8109
36.0795
36.921
36.0509
497.866
205.645
143.358
94.049
61.4464
46.1872
41.6655
42.2207
43.1339
42.1239
39.3109
580.46
250.776
194.502
142.947
100.444
77.1127
69.3088
68.2287
64.0243
57.1437
51.9633
566.476
259.78
211.767
165.974
126.667
104.242
92.2188
74.5283
60.6675
46.9083
33.7059
621.433
262.898
219.117
179.085
140.543
111.158
85.6501
62.956
45.0457
31.2802
20.5454
644.36
293.273
214.889
160.403
117.246
84.3813
59.4229
41.0257
27.6116
17.9626
11.1568
577.34
281.567
164.529
104.145
68.5682
45.8636
30.6329
20.1047
12.7698
7.75211
4.46272
227.842
70.5713
18.7112
3.78031
0.908736
0.310088
0.159282
0.107481
0.0827294
0.0668981
0.0542965
352.143
124.851
17.8917
4.60004
1.17505
0.384539
0.173729
0.105144
0.07476
0.0570659
0.0444455
438.833
166.183
18.4492
5.73987
1.43391
0.482465
0.200839
0.110798
0.0726417
0.0518243
0.0379085
481.07
159.113
19.0781
6.38876
1.51239
0.558363
0.225219
0.118982
0.073586
0.0497203
0.0346976
495.922
138.198
19.0169
6.35103
1.48304
0.606569
0.241254
0.127215
0.0762373
0.0497511
0.0336713
501.248
120.526
18.5643
5.96776
1.44107
0.625929
0.249665
0.134203
0.0793699
0.0508427
0.0338348
498.881
108.187
17.9951
5.52093
1.41238
0.622924
0.25429
0.139859
0.0825381
0.0524555
0.0343173
486.319
99.3377
17.3079
5.10954
1.38676
0.609972
0.257586
0.14458
0.0857575
0.0546077
0.0358266
471.601
92.9199
16.6589
4.78946
1.3653
0.597018
0.261238
0.149128
0.0892796
0.0572155
0.0374624
460.099
90.171
16.288
4.58909
1.35985
0.590638
0.266828
0.154399
0.0934386
0.0603819
0.0394108
445.305
91.8882
16.4285
4.49336
1.3733
0.592189
0.275148
0.160988
0.0985467
0.064324
0.0420658
428.058
93.7656
17.0897
4.55888
1.40624
0.601021
0.286619
0.169263
0.104905
0.0692973
0.0454098
411.283
96.5982
18.5737
4.87904
1.51503
0.631915
0.306166
0.180925
0.11345
0.0758524
0.0500541
394.966
101.96
21.5602
5.66395
1.75637
0.702834
0.339689
0.198277
0.125302
0.0845093
0.0565108
379.611
107.414
25.1587
6.8643
2.15647
0.830793
0.393145
0.223997
0.14166
0.0959272
0.065158
366.185
113.484
29.6616
8.65282
2.81793
1.06327
0.48551
0.265448
0.165391
0.111589
0.0768218
354.532
121.34
35.7829
11.4022
3.94216
1.49676
0.659962
0.341116
0.204122
0.134917
0.0932193
346.225
130.236
43.2542
15.2681
5.74463
2.28472
1.00147
0.492958
0.277479
0.174986
0.118684
342.141
140.677
52.518
20.6567
8.57415
3.68929
1.68022
0.819002
0.437914
0.258582
0.166646
344.036
153.129
64.2581
28.2314
13.0029
6.16187
3.02167
1.5343
0.817742
0.462763
0.280345
355.109
168.39
79.4296
39.0742
20.0132
10.5099
5.64797
3.09121
1.7292
0.993451
0.590543
382.453
187.501
99.4279
55.0397
31.4515
18.3225
10.8313
6.46637
3.89684
2.37244
1.46287
435.03
210.771
126.337
79.3607
50.875
32.8978
21.3792
13.9334
9.10304
5.96332
3.91789
588.764
252.629
167.55
117.717
83.5622
59.2313
41.8703
29.5282
20.7898
14.6246
10.2704
295.737
90.3147
18.4045
3.93899
0.950253
0.3345
0.180876
0.129312
0.105575
0.0909814
0.0796516
513.747
236.033
19.2273
5.17684
1.26986
0.461231
0.241548
0.169561
0.138377
0.119877
0.105426
627.033
314.565
22.984
6.81269
1.57824
0.600322
0.314548
0.225351
0.190685
0.173631
0.161448
646.244
279.741
25.2171
7.50734
1.70847
0.713335
0.388266
0.290206
0.25793
0.248473
0.246097
618.097
222.857
24.9413
7.21422
1.72695
0.791118
0.453605
0.354916
0.328265
0.328684
0.338551
576.711
178.458
23.3516
6.52908
1.70267
0.839441
0.510389
0.419462
0.404425
0.425472
0.468591
534.124
147.492
21.4341
5.8445
1.66825
0.870371
0.560415
0.481552
0.478936
0.519073
0.585749
491.359
125.128
19.4971
5.26211
1.63543
0.894052
0.605566
0.540834
0.550959
0.614075
0.723535
455.328
108.827
17.7731
4.80566
1.61448
0.917007
0.647859
0.596775
0.618275
0.704152
0.859437
427.733
96.7527
16.3709
4.46228
1.61369
0.940826
0.689762
0.648057
0.678245
0.780522
0.96902
408.231
88.9949
15.3504
4.23775
1.63666
0.967921
0.733056
0.693485
0.728637
0.836584
1.034
391.564
84.2932
14.6834
4.11664
1.679
0.999976
0.777887
0.732911
0.768816
0.871237
1.06205
378.769
81.9466
14.9957
4.23028
1.78229
1.05374
0.829825
0.771477
0.803554
0.893329
1.06287
369.334
82.6088
16.5146
4.66757
1.97556
1.14117
0.891983
0.812106
0.832969
0.90399
1.03937
363.311
84.8328
18.8359
5.45258
2.28778
1.27788
0.971119
0.858836
0.858955
0.905446
0.999207
361.117
88.9026
22.122
6.73613
2.7992
1.50106
1.08392
0.920044
0.886581
0.902206
0.95111
363.083
95.3298
26.7025
8.76649
3.66274
1.88858
1.26912
1.0149
0.927335
0.902854
0.906434
370.412
104.286
32.8484
11.8423
5.11732
2.58991
1.61298
1.19015
1.00863
0.92498
0.878757
384.743
116.458
41.1241
16.4426
7.55795
3.8914
2.30542
1.56338
1.20304
1.01404
0.898213
408.841
133.385
52.6682
23.4398
11.6843
6.33764
3.75278
2.42201
1.70761
1.30288
1.05255
447.986
157.636
69.6405
34.5389
18.8592
11.0196
6.81789
4.43635
3.03169
2.17154
1.62016
511.364
194.828
96.7527
53.6954
32.2667
20.4493
13.4772
9.1633
6.40387
4.58976
3.36355
617.958
252.849
142.768
89.4429
59.3852
40.8223
28.7032
20.5106
15.0591
11.4203
8.95666
801.891
359.192
216.159
145.412
103.233
75.5291
56.217
42.2866
31.8203
23.8645
17.8159
36.8555
20.8601
5.92009
4.72831
5.60081
8.11281
27.7318
46.7444
55.3475
17.371
14.0974
8.82393
4.09388
3.3932
13.3298
21.5394
23.1894
22.008
11.8884
11.2606
7.6462
4.19816
3.83209
12.8492
18.2816
15.6464
11.681
7.65878
8.46147
6.54566
4.21862
4.46597
11.9348
13.9366
9.74773
6.46112
45.7522
48.7428
48.117
45.4912
42.2131
41.7979
54.4782
57.3575
58.333
16.9895
15.5121
14.324
13.5788
13.003
14.3522
18.9666
19.4987
20.1547
9.77724
7.59305
6.60838
6.41563
6.10942
6.60941
9.19151
9.07837
9.41212
5.44358
3.939
3.22782
2.97717
2.60047
2.59351
4.0425
4.04957
4.8019
0.00901751
0.00829602
0.00834948
0.00742193
0.0186057
0.0075398
0.275626
0.00810639
0.00750725
0.0101055
0.0199744
0.00813831
0.00829433
0.0073045
0.0146178
0.00729593
0.00736832
0.00738185
0.00726755
0.00722931
0.00934779
0.45475
0.0085178
0.00795016
0.00792056
0.00730717
0.0082992
0.269207
0.743849
0.00866425
0.00739445
0.00845158
0.00760547
0.00807109
0.00863953
0.00826471
0.00794463
0.00790357
0.00765728
0.00756871
0.190975
0.00810223
0.00766481
0.00849256
0.0934709
1.78239
0.00772894
0.854331
0.00873204
0.00733405
0.00848113
0.00759173
0.00791951
0.00764813
0.00732662
0.00900264
0.421003
0.00761408
0.709179
0.00769147
0.0624462
0.00789382
0.0280622
0.0128742
0.587703
0.00722628
0.00780698
0.00766458
0.00829767
0.0100789
0.00717824
0.00874505
0.00783748
0.0098239
0.00737923
0.00808565
0.176814
0.00827992
0.160989
0.405932
0.00759547
0.0130304
0.00793314
0.00838083
0.00861842
0.00780277
1.08823
0.00779837
0.0484002
0.00788949
0.00809063
0.00765535
0.247526
0.00793371
0.36026
0.791307
0.00735054
0.00866713
0.0328581
0.00893388
0.00898224
0.72645
0.00870749
0.00804927
0.0155014
0.00812054
0.00742658
0.0084527
0.00811299
0.00888784
0.00798064
0.00815304
0.00741129
0.00802538
0.00767698
0.00768588
0.0075157
0.0073385
0.0079586
0.00865373
0.00822035
0.0097394
0.00872304
0.00735333
1.83621
0.00936669
0.00757431
0.00745778
0.00751362
0.00771039
0.00779372
0.00765354
0.826182
0.00830239
0.00833966
0.00904627
0.118866
0.0124887
0.0090624
0.008916
0.00772152
0.0113415
0.209271
0.0102558
0.0074852
0.00874209
0.011458
0.00754483
0.0103431
0.00795429
0.00728322
0.00767329
0.00870555
0.00952222
0.00771923
0.00825745
0.00767731
0.086894
0.00727364
0.00746279
0.00763933
0.011798
0.00851653
0.00770739
0.00778521
0.00824826
0.0845233
0.0099859
0.00924765
0.50224
0.00749134
0.00755717
0.00948299
0.00834526
0.00849086
0.00800504
0.00753226
0.00884737
0.0994561
0.00822225
0.00743967
0.305923
0.00849785
0.00988506
0.00796791
0.00834623
0.00738251
0.00731885
0.00825337
0.17143
0.00796892
0.00758976
0.00725722
0.164929
0.00832553
0.00759017
0.00739722
0.0224066
0.00775223
0.00856733
0.0105772
0.00732182
0.00781969
0.00748995
0.00838637
0.00778027
0.00776973
0.00751422
0.00737042
0.00740368
0.00782947
0.00758842
0.00970317
0.00865972
0.00792034
0.00849181
0.00798025
0.00787897
0.00734486
0.007572
0.00772156
0.00800159
0.00732157
0.00768466
0.00735514
0.00763135
0.00938517
0.00820873
0.00794048
0.0303612
0.0766538
0.00725746
0.00729914
0.009846
0.00880268
0.575023
0.0078094
0.0084515
0.0081553
0.00811676
0.0078888
0.00757385
0.00800864
0.127016
0.00872766
0.0123532
0.00800951
0.0075357
0.608166
0.00760926
0.00753194
0.00784433
0.0100732
0.00728469
0.00780027
0.00743145
0.00963915
0.00785488
0.00895074
0.00744519
0.00828001
0.00947539
0.00738283
0.00820141
0.00797304
0.00755428
0.0110693
0.00989529
0.0180768
0.00821691
0.0115191
0.00731192
0.00730916
0.00765635
0.00755725
0.00736653
0.00731978
0.00777001
0.0087702
0.0140475
0.00903872
0.00827738
0.00760335
0.00786789
0.00777192
0.00758025
0.8213
0.00824532
0.00871572
0.00777343
0.00834173
0.25485
0.00929582
0.00773282
0.00856426
0.0073924
0.00930119
0.00816942
0.00865981
0.00727104
0.00778171
0.00947866
0.00877727
0.00883311
0.0094244
0.00873839
0.00828245
0.00860946
0.289713
0.00741999
0.305364
0.0081628
0.00838956
0.00760382
0.330401
0.00917167
0.00757464
0.0299499
0.00852369
0.00877773
0.00739839
0.00784668
0.00745604
0.00726767
0.0335971
0.00984165
0.00778548
0.00743049
0.00729386
0.00843193
0.00902959
0.0303895
0.125477
0.00846258
0.00831937
0.765238
0.00764359
0.00824224
0.00786015
0.00857737
0.0196913
0.00786973
0.00731428
0.00813291
0.0110357
0.00859844
0.00734313
0.00752818
0.00803698
0.00747226
0.389967
0.00840714
0.0083021
0.00960115
0.0114714
0.00860266
0.00772124
0.00847104
0.0084971
0.00824168
0.0103244
0.00739152
0.00800532
0.00798911
0.0072776
0.0735537
0.00749347
0.00827116
0.453727
0.00851714
0.00774517
0.00967705
0.711897
0.00733207
0.010339
0.00831376
0.00997873
0.00859237
0.00751498
0.00779851
0.00779473
0.00754288
0.00900075
0.00765707
0.00756698
0.0075789
0.00871315
0.00734978
0.00752224
0.129847
0.00771116
0.33158
0.00737188
0.0105052
0.00763538
0.609563
0.0078778
0.00742158
0.00835421
0.00778194
0.00890772
0.00764061
0.00850493
0.00775888
0.00773877
0.638832
0.151683
0.00848796
0.00732162
0.00786891
0.0101421
0.00723839
0.00766207
0.00760335
0.00835027
0.00820731
0.00793975
0.0104064
0.00744428
0.304115
0.0116134
0.00760628
0.323335
0.00815206
0.00805695
0.00910812
0.00959999
0.0240217
0.00926719
1.43941
0.00790114
0.00894482
0.00746724
0.00876363
0.00879737
0.00780903
0.00816224
0.00903673
0.00734795
0.0085998
0.00769752
0.901591
0.00722142
0.00885786
0.00973744
0.00798745
0.00806974
0.0356311
0.00741051
0.0108148
0.00775731
0.00833622
0.00794359
0.259074
0.0127486
0.520546
0.00747863
0.011107
0.0211102
0.00825913
0.00739737
0.00754814
0.00741768
0.00781132
0.0103998
0.125129
0.0947632
0.0902244
0.0916648
0.00884049
0.00803798
0.00946554
0.00888528
0.0606232
0.00986308
0.00823712
0.00733312
0.0347675
0.012891
0.00733109
0.00777617
0.0100635
0.0146848
0.257063
0.008451
0.00852092
0.061862
0.0110899
0.00795799
0.00740165
0.0149301
0.0075825
0.00987572
0.00761295
0.00766087
0.007439
0.00723867
0.00736244
0.00984204
0.00962717
0.0074502
0.00741115
0.00807977
0.00806637
0.497689
0.00779696
0.00823811
0.00918803
0.688747
0.00835682
0.0078822
0.014197
0.15446
0.00820481
0.00902861
0.00774814
0.00791035
0.00736426
0.00778721
0.00777984
0.0086629
0.00827108
0.00769071
0.00819249
0.0104394
0.00783568
0.0080174
0.00744426
0.00818208
0.00775135
1.12483
0.00846503
0.0086955
0.00730007
0.0715859
0.00856321
0.00786481
0.00840538
0.150422
0.0135999
0.00795547
0.00790818
0.0073588
0.00834049
0.00724195
0.00830456
0.00806243
0.00874339
0.177438
0.00769361
0.00799481
1.4698
0.00786034
0.00986514
0.010746
0.0103241
0.00830527
0.00778986
0.0280224
0.00743002
0.00747897
0.320307
0.711843
0.00791639
0.00731119
0.00827532
0.00806118
0.00770727
0.0162118
0.00808891
0.00749427
0.00786558
0.00742961
0.00756341
0.00753304
0.00859111
0.0161668
0.00771199
0.0164655
0.00781968
0.00790228
0.00735295
0.00741314
0.00757323
0.00854499
0.372596
0.00828153
0.00841274
0.00854578
0.32342
0.00762312
0.00765951
0.0077987
0.00780982
0.00807187
0.0192475
0.00753126
0.0094684
0.0077486
0.0079332
0.80441
0.00753702
0.0104547
0.00723382
0.00794746
0.127803
0.00751657
0.00841743
0.0098078
0.00956099
0.00749878
0.00778278
0.00778266
0.0187504
0.00786664
0.0103488
0.00726709
0.00812894
0.00838072
0.00781287
0.678864
0.00786361
0.00754828
0.00755901
0.111618
0.00885314
0.00738006
0.0202167
0.0083101
0.01046
0.00753655
0.00772079
0.00922251
0.00745072
0.00752332
0.16492
0.00823117
0.0208713
0.00817145
0.00767756
0.0993418
0.00776921
0.00834707
0.00836359
0.01327
0.0380791
0.00773512
0.00923674
0.00862935
0.00744698
0.00773013
0.547283
0.00775396
0.0100244
0.00768971
0.0112447
0.00811955
0.00739642
0.00904886
0.00842489
0.00929497
0.00973485
0.00928612
0.00825961
0.00758994
0.0491139
0.0355383
0.00858394
0.00787593
0.00893639
0.00760573
0.00852467
0.256006
0.00759474
0.00729988
0.0080949
0.00770784
0.00770655
0.00849631
0.00758481
0.00806698
0.00749681
0.64743
0.00763846
0.0084972
0.00841715
0.0108249
0.00739752
0.296367
0.00757138
0.00749994
0.00827341
0.00840375
0.00881941
0.00964857
0.00847412
0.00813198
0.00761136
0.00760862
0.00833469
0.00798866
0.00816253
0.00798174
0.00749856
0.0081791
0.00728015
0.00914423
0.00789022
0.124968
0.00777532
0.00804603
0.00763537
0.00767956
0.00816681
0.00756914
0.293728
0.00784171
0.00754401
0.00792821
0.0089112
0.311213
0.00922955
0.0166068
0.007297
0.00736821
0.0103216
0.00878488
0.0080263
0.00824083
0.00756714
0.00784261
0.00810789
0.00970781
0.0109603
0.00771656
0.00803643
0.00996113
0.00754097
0.0110166
0.0191952
0.00804315
0.00741345
0.324075
0.00811267
1.00884
0.00872373
0.00974645
0.00731737
0.00752519
0.00980194
0.00893642
0.00808786
0.00925651
0.00734057
0.00818612
0.00758271
0.00975686
0.00771509
0.00782457
0.0078883
0.00818707
0.00729978
0.00818346
1.2939
0.00781668
0.00731038
0.00847339
0.00812115
0.0100686
0.102027
0.00991965
0.0076676
0.00769614
0.00950759
0.00745737
0.00859164
0.00765346
0.00726672
0.0677811
0.00860505
0.00792226
0.00885239
0.0700431
0.00773513
0.00751106
0.00820278
0.00755413
0.00887312
0.00814029
0.00822076
0.00837519
0.00789487
0.00869601
0.0075039
0.334149
0.0094308
0.00743667
0.0086621
0.00769284
0.00795624
0.00814755
0.00802114
0.00827463
0.00822935
0.00808028
0.637882
0.00793926
0.0261434
0.00884782
0.00751845
0.00770508
0.00783297
1.68805
0.00748064
0.00816869
0.00855236
0.00877406
0.00776773
0.00754549
0.00813738
0.0106053
0.192565
0.0078125
0.008165
0.00736842
0.00785457
0.00798394
0.00764836
0.0084294
0.00750876
0.00734487
0.00767149
0.00815355
0.00829373
0.00928245
0.00932377
0.00733584
0.00825
0.00779396
0.00772268
0.9527
0.477636
0.00781732
0.00810834
0.0134442
0.00853113
0.00756946
0.00878617
0.00791874
0.0076634
0.00766897
0.0297463
0.00806814
0.00823283
0.00765199
0.00741099
0.00768033
0.00859777
0.00731414
0.00754506
0.00867147
0.00793748
0.00814585
0.00736362
0.515284
0.00753381
0.00722044
0.009297
0.248073
0.00746357
0.00796923
0.0116874
0.549289
0.00850002
0.00888571
0.00765838
0.00751439
0.00846004
0.00808432
0.00991486
0.01006
0.00762243
0.00827526
0.00817894
0.00772369
0.00819789
0.00764841
0.00821667
0.00740287
0.0289065
0.00775257
0.00985521
0.00941691
0.0083151
0.00864348
1.41998
0.00829847
0.00811601
0.00766293
0.00814687
0.00772746
0.175395
0.00850923
0.00815041
0.00745945
0.00772715
0.00741273
0.00759529
0.0135038
0.00733564
0.00765242
0.00732409
0.00744086
0.00741738
0.0126383
0.00750535
0.00754712
0.00804061
0.00772112
0.235467
0.00755844
0.00857231
0.00752278
0.00895442
0.00808034
0.00755381
0.00752893
0.00830256
0.00760981
1.15832
0.0088812
0.032263
0.00752659
0.00737052
0.00849312
0.463025
0.00801696
0.00891927
0.00746831
0.00759033
0.014764
0.00793629
0.00795287
0.00763948
0.00844197
0.00830642
0.00801211
0.00844682
0.00762929
0.00791128
0.00773565
0.00734444
0.00781543
0.00733082
0.00948098
0.00890979
0.302563
0.00839858
0.0081058
0.537662
0.00779712
0.156343
0.00832595
0.00856248
0.00761304
0.00827751
0.0226429
0.00888463
0.00746215
0.00778634
0.0077546
0.00846401
0.00915038
0.00739809
0.007917
0.00801435
0.00770605
0.00852763
0.00813043
0.616662
0.00876275
0.784488
0.0081285
0.0167713
0.00795339
0.00841562
0.00805622
0.00740198
0.00855527
0.00738277
0.0171352
0.00816082
0.0102485
0.00790092
0.00812125
0.00801004
0.00757069
0.00780751
0.00736201
0.109666
0.00973418
0.246581
0.00793538
0.00868915
0.00767309
0.00828174
0.00787861
0.021356
0.0236905
0.00795542
0.00801709
0.00756566
0.0108586
0.00743404
0.00810283
0.00945945
0.00856479
0.00732755
0.0100775
0.00831408
0.00742126
0.00771123
0.00729645
0.00803474
0.344565
0.0101996
0.00853603
0.00779564
0.00813871
0.01015
0.00890956
0.429583
0.00999773
0.00804894
0.00781701
0.0283988
0.00797387
0.00758876
0.00796087
0.00752024
0.00821958
0.00750471
0.00769513
0.11286
1.65658
0.48071
0.0090223
0.00848806
0.00976773
0.00838885
0.00754012
0.00812177
0.00872269
0.0655805
0.0076642
0.00751229
0.0094692
0.00734147
0.00812097
0.00769042
0.00862313
0.454691
0.00928488
0.0102648
0.315723
0.00800927
0.0107883
0.00810445
0.00788424
0.0406606
0.00794827
0.0204362
0.208386
0.00772444
0.00830516
1.47955
0.0080276
0.00832521
0.00763941
0.00906876
0.00726661
0.00730994
0.00834102
0.00875568
0.00778496
0.125709
0.00751152
0.0074147
0.00961004
0.0081952
0.00779306
0.00729789
0.00933239
0.0073367
0.00925801
0.0099307
0.0464229
0.285537
0.00886961
0.102317
0.0523864
0.00763589
0.0077865
0.00826351
0.00767511
0.00803958
0.00765993
0.00750624
0.00824268
0.00745986
0.0080982
0.00825718
0.00756071
0.0100775
0.77092
0.0116953
0.00767805
0.00725878
0.0119172
0.00769971
0.0073993
1.25595
0.00775956
0.00794407
0.00752954
0.00757179
0.00771956
0.0304276
0.00840409
0.00765135
0.00808878
0.00844669
0.00881453
0.00733822
0.00876251
0.0082545
0.00825542
0.0134091
0.00776356
0.00734575
0.00860262
0.00796757
0.00813027
0.00771872
0.00730134
0.0237416
0.787874
0.0104972
0.0243997
0.0281385
0.00819959
0.0104657
0.00722743
0.00827888
1.1794
0.0293084
0.678514
0.0424222
0.00816759
0.00793129
0.0176866
0.0151072
0.00770618
0.264786
0.00714187
0.0081699
0.00731877
0.00740938
0.00782301
0.043199
0.00755369
0.00737553
0.0232408
0.00790202
0.00786845
0.0136297
0.0082081
0.0941161
0.00853094
0.00809728
0.00737295
0.00967634
0.0165626
0.00736624
0.0076013
0.0171659
0.0091412
0.00821476
0.00850494
0.00775433
0.00760399
0.00916095
0.0343008
0.00748815
0.365635
0.00860417
0.00836374
0.00740725
0.00829202
0.00912788
0.00756693
0.00806828
0.00768586
0.00952394
0.124254
0.00759576
0.00745206
0.00794769
0.00833959
0.0081525
0.00859552
0.0073427
0.00770539
0.0082909
0.012415
0.00814996
0.0126572
0.311988
0.00751923
0.00999678
0.00868497
0.00729311
0.0258539
0.00804468
0.00816929
0.00790064
0.00759717
0.0079365
0.00729118
0.00880969
0.0654698
0.00744934
0.00748601
0.00763614
0.00872017
0.00877459
0.0122173
0.00855483
0.00847873
0.0158877
0.00744445
0.00833732
0.00753345
0.0100888
0.00924334
0.00797774
0.0131353
0.00815905
0.027816
0.00792145
0.00859362
0.00774339
0.00747331
0.00865869
0.00784848
0.00758419
0.0337003
0.00833786
0.10393
0.00734622
0.00850852
0.00964858
0.00755589
0.00795344
0.24907
0.00742478
0.00882153
0.00808003
0.00801275
0.00763406
0.0165609
0.00825595
0.00738293
0.0628673
0.235611
0.00790217
0.00749883
0.00807913
0.00755184
0.0112411
0.00812022
0.00905376
0.0083927
0.00934429
0.332813
0.00760853
0.00845244
0.240666
0.00856313
0.00731668
0.00770029
0.0075621
0.0123834
0.0085766
0.00749613
0.00982852
0.0080127
0.00879365
0.00804546
0.00840777
0.00819368
0.0079296
0.0077056
0.0210207
0.00837492
0.00849375
0.163871
0.00749709
0.00726221
0.0078124
0.00755706
0.00843524
0.00826838
0.0090113
0.00755515
0.00738202
0.00792138
0.00782538
0.00978269
0.00730086
0.00837355
0.00847488
0.00768117
0.00791311
0.00892394
0.00964651
0.00931872
0.00802021
0.00746774
0.00838793
0.0135148
0.00790678
0.00799775
0.0214546
0.00844639
0.00855228
0.0100449
0.00800496
0.00807342
0.00754609
0.0220774
0.00791192
0.00841123
0.00783247
0.00730839
0.00891279
0.00749928
0.0164975
0.00762683
0.0321269
0.00961153
0.0178564
0.00801074
0.00924358
0.0117789
0.00906491
0.636678
0.00803126
0.00739405
0.00800706
0.00851391
0.00771422
0.00840267
0.0110836
0.00939914
0.00751037
0.00811746
0.00769385
0.00975092
0.00968905
0.00937426
0.00731107
0.00789319
0.00870551
0.00955131
0.0076872
0.015542
0.00798259
0.00948339
0.00876633
0.452178
0.00750315
0.00840359
0.00786305
0.0321511
0.00821025
0.0072592
0.0289678
0.0109355
0.0117416
0.00743204
0.00808223
0.00900408
0.00752675
0.00852625
0.273683
0.00814305
0.00830253
0.00882524
0.0093124
0.0104806
0.00810438
0.00762614
0.00803175
0.00750003
0.0146989
0.00812806
0.00750566
0.00873916
0.00779938
0.00850022
0.00764765
0.00867874
0.033359
0.0147222
0.00741926
0.00845661
0.00785374
1.46807
0.00880687
0.00899956
0.914716
0.0109654
0.00756974
0.0102007
0.00881524
0.00840833
0.00801512
0.0075433
0.00738381
0.037488
0.00755906
0.00758501
0.00854688
0.0074022
0.00792606
0.00892334
0.00739984
0.00729301
0.00759671
0.00855223
0.00810715
0.00745602
0.00795264
0.00755502
0.00754074
0.0112362
0.00795435
0.00724743
0.00901596
0.00756066
0.0083647
0.00783083
0.00733983
0.00781749
0.00864351
0.00772393
0.0100072
0.0075524
0.00743607
0.104647
0.00954542
0.00754517
0.317677
0.00963684
0.00809479
0.00840459
0.00965008
0.00810172
0.00835878
0.00773058
0.00714026
0.00977994
0.00836819
0.00836523
0.012057
0.00736157
0.0290588
0.00781723
0.0079596
0.201872
0.272439
0.00778021
0.00795186
0.00736089