/*--------------------------------*- C++ -*----------------------------------*\
| =========                 |                                                 |
| \\      /  F ield         | OpenFOAM: The Open Source CFD Toolbox           |
|  \\    /   O peration     | Version:  3.0.1                                 |
|   \\  /    A nd           | Web:      www.OpenFOAM.org                      |
|    \\/     M anipulation  |                                                 |
\*---------------------------------------------------------------------------*/
FoamFile
{
    version     2.0;
    format      ascii;
    class       volScalarField;
    location    "0.0850386";
    object      k;
}
// * * * * * * * * * * * * * * * * * * * * * * * * * * * * * * * * * * * * * //

dimensions      [0 2 -2 0 0 0 0];

internalField   nonuniform List<scalar> 
21246
(
0.692755
1.15946
0.691766
0.452551
0.270352
0.154849
0.0932325
0.0630531
0.0482146
0.0401803
0.0352185
0.667669
1.01245
0.744057
0.520772
0.337199
0.190308
0.109785
0.0698142
0.0508715
0.0412035
0.0354159
0.582092
0.800157
0.715778
0.543907
0.378308
0.230809
0.13268
0.0792035
0.0549855
0.0430956
0.0361087
0.463004
0.658657
0.660708
0.540152
0.399155
0.260921
0.156616
0.0931453
0.0603947
0.0457987
0.0375426
0.339983
0.569845
0.60493
0.526567
0.410257
0.284236
0.179178
0.108638
0.0690831
0.0499388
0.0397814
0.23557
0.505391
0.555965
0.509998
0.416718
0.303986
0.201334
0.125981
0.0800234
0.0560272
0.0432816
0.16002
0.453719
0.51613
0.4929
0.419654
0.320802
0.223041
0.145131
0.0934562
0.064198
0.0480791
0.116766
0.418576
0.488438
0.477916
0.420203
0.3347
0.24368
0.165509
0.109331
0.0747782
0.0546255
0.109192
0.400513
0.474733
0.468701
0.421191
0.346993
0.263378
0.186777
0.127518
0.0880264
0.063422
0.113447
0.383632
0.470638
0.46911
0.42693
0.360418
0.283309
0.20915
0.14803
0.104141
0.0748936
0.114555
0.359844
0.469685
0.481495
0.442067
0.378514
0.305268
0.233179
0.170906
0.123236
0.0893608
0.111577
0.331535
0.462979
0.501427
0.469152
0.405116
0.331814
0.259955
0.196399
0.145378
0.107094
0.104848
0.300651
0.441147
0.514246
0.503541
0.442038
0.365748
0.291277
0.225236
0.170786
0.128226
0.094833
0.265123
0.403501
0.504556
0.530058
0.483833
0.407065
0.328245
0.258108
0.19966
0.152796
0.0836085
0.229424
0.356318
0.469253
0.532063
0.516659
0.44952
0.368781
0.294244
0.231498
0.180512
0.0726014
0.195494
0.304866
0.414799
0.502845
0.525118
0.481235
0.406709
0.330777
0.264846
0.2104
0.062614
0.163639
0.251712
0.350198
0.447565
0.501848
0.490083
0.432763
0.362256
0.296709
0.24085
0.0550528
0.138257
0.20574
0.286313
0.378975
0.451711
0.470921
0.438623
0.381925
0.322529
0.269174
0.0504991
0.120383
0.16933
0.230354
0.309612
0.386407
0.427379
0.42094
0.384235
0.337539
0.291109
0.0483623
0.108828
0.144142
0.187657
0.247733
0.318094
0.368418
0.381823
0.366128
0.336508
0.301379
0.047573
0.101175
0.126938
0.159007
0.202282
0.255852
0.304523
0.327563
0.327771
0.314702
0.292162
0.0480024
0.0954865
0.114368
0.140484
0.173856
0.213237
0.249992
0.271447
0.278262
0.275747
0.263245
0.0473986
0.0966707
0.113275
0.141842
0.173226
0.203469
0.226883
0.24037
0.245714
0.247374
0.242032
0.0828054
0.0999699
0.104998
0.134736
0.176801
0.213261
0.234456
0.242439
0.24369
0.242428
0.235195
0.661985
0.845171
0.62181
0.382461
0.224532
0.134226
0.0857473
0.060669
0.0476028
0.0402398
0.035576
0.465623
0.672931
0.538544
0.367966
0.230693
0.142536
0.0917194
0.0642891
0.0498443
0.0418721
0.0370433
0.421841
0.612506
0.513821
0.387009
0.255425
0.159751
0.10205
0.070223
0.0533981
0.044334
0.0391495
0.387357
0.548274
0.480146
0.397413
0.281243
0.181943
0.115987
0.0782494
0.0581459
0.0474853
0.0416819
0.363081
0.489798
0.443842
0.383884
0.291854
0.203138
0.134862
0.0912736
0.0662335
0.0525111
0.0452533
0.343677
0.441347
0.415664
0.36981
0.291225
0.21233
0.149792
0.106901
0.0790928
0.0615419
0.0511208
0.326857
0.402325
0.392849
0.357468
0.290896
0.221368
0.163089
0.120444
0.0908943
0.070943
0.0583265
0.311924
0.371133
0.374358
0.347553
0.291284
0.230486
0.176998
0.13556
0.104968
0.0828592
0.0677975
0.298238
0.345928
0.359395
0.34051
0.29342
0.240844
0.192375
0.152795
0.121796
0.098047
0.080996
0.285117
0.324794
0.347088
0.335417
0.297505
0.252888
0.20972
0.172621
0.141725
0.116505
0.0972249
0.272029
0.305916
0.335832
0.331291
0.302885
0.266091
0.228799
0.194933
0.164701
0.13816
0.116496
0.258465
0.28776
0.324115
0.32694
0.307797
0.279141
0.248454
0.218842
0.190138
0.16262
0.138422
0.244388
0.269214
0.310538
0.320567
0.310494
0.290262
0.266875
0.242703
0.216768
0.189022
0.163178
0.229508
0.250047
0.293963
0.310327
0.3087
0.296927
0.281292
0.263598
0.242144
0.215959
0.188577
0.213431
0.230157
0.274498
0.29586
0.301556
0.297619
0.289459
0.278463
0.262429
0.239445
0.211936
0.196171
0.209507
0.252379
0.277222
0.288859
0.291768
0.290381
0.285779
0.275521
0.256859
0.230608
0.17798
0.188403
0.22832
0.255127
0.271252
0.279819
0.284237
0.285298
0.280583
0.266757
0.243467
0.15947
0.167574
0.203629
0.23107
0.250358
0.263406
0.272567
0.278278
0.278289
0.269033
0.249158
0.141668
0.147951
0.179865
0.207035
0.228497
0.245079
0.258035
0.267286
0.270759
0.265116
0.248708
0.125776
0.130361
0.158406
0.184913
0.208017
0.227564
0.243655
0.255477
0.261032
0.257617
0.243883
0.112809
0.115163
0.139933
0.165834
0.19047
0.21279
0.231673
0.245392
0.251869
0.249394
0.236926
0.103486
0.102206
0.124273
0.149874
0.176237
0.201409
0.222967
0.238135
0.244637
0.242113
0.229734
0.0978978
0.0902372
0.11061
0.137009
0.166367
0.195405
0.219866
0.23582
0.241314
0.23775
0.225481
0.103568
0.0933055
0.118258
0.150388
0.186985
0.220933
0.245643
0.257326
0.256707
0.247829
0.231629
0.37098
0.534981
0.485686
0.399366
0.303407
0.215213
0.145313
0.095746
0.0620585
0.0395012
0.0252717
0.31572
0.479912
0.467619
0.392657
0.296901
0.208255
0.139329
0.090835
0.0582106
0.0368064
0.0234259
0.246126
0.431674
0.440862
0.387626
0.302171
0.214967
0.143901
0.0929914
0.0588609
0.0369331
0.0235471
0.212346
0.388667
0.414907
0.379939
0.306058
0.222523
0.150612
0.0976956
0.0617864
0.0385204
0.0242909
0.18725
0.339278
0.376356
0.362085
0.305276
0.229693
0.158376
0.103158
0.0647114
0.0393947
0.0239673
0.172773
0.304387
0.341901
0.33625
0.292267
0.226913
0.159933
0.105223
0.066329
0.0407877
0.0251946
0.163292
0.279345
0.316022
0.313125
0.274988
0.216959
0.155847
0.104362
0.0666644
0.0413358
0.0255695
0.157969
0.261465
0.295446
0.292954
0.259015
0.206394
0.150122
0.101891
0.0659383
0.0414308
0.0262913
0.153838
0.247419
0.278469
0.275777
0.244496
0.19597
0.143836
0.0987499
0.0647493
0.0412377
0.0264161
0.15006
0.235368
0.264145
0.261398
0.232122
0.186794
0.138017
0.0956173
0.063359
0.0407297
0.0260827
0.146623
0.224876
0.252004
0.249424
0.221852
0.179127
0.133049
0.0928178
0.0619824
0.040146
0.0261118
0.144181
0.216135
0.241847
0.239442
0.213334
0.172806
0.128963
0.0904981
0.0608289
0.0396658
0.0259549
0.142323
0.208639
0.233313
0.23127
0.20656
0.167944
0.125938
0.0888607
0.0600772
0.0393816
0.0257498
0.140447
0.201887
0.226079
0.224822
0.201632
0.164736
0.124178
0.0880675
0.0598168
0.0393469
0.025891
0.139208
0.196141
0.220079
0.21983
0.198272
0.163016
0.12364
0.0881411
0.0600854
0.0395643
0.025894
0.138451
0.191064
0.215135
0.216251
0.196563
0.162959
0.124523
0.0892549
0.0610132
0.0401357
0.0261279
0.137768
0.186217
0.21101
0.214107
0.196757
0.164935
0.127202
0.0917071
0.0627984
0.0411798
0.0266127
0.137453
0.181701
0.207647
0.213319
0.198894
0.169173
0.132006
0.0958171
0.065698
0.04287
0.0273226
0.137962
0.177263
0.204591
0.213492
0.202973
0.176054
0.139397
0.102069
0.0701331
0.0455368
0.0286475
0.139399
0.172659
0.20156
0.21399
0.207946
0.184707
0.149445
0.110989
0.0766937
0.0497008
0.030915
0.141984
0.167651
0.198102
0.214381
0.213317
0.194483
0.161416
0.122382
0.0857523
0.0560485
0.0348387
0.146917
0.161533
0.194224
0.213844
0.217902
0.204149
0.174476
0.136164
0.0979444
0.0655828
0.0414833
0.152502
0.156479
0.188024
0.211743
0.220546
0.21215
0.187297
0.151786
0.113708
0.0794465
0.052353
0.175409
0.163979
0.19783
0.20829
0.215012
0.21072
0.193158
0.164733
0.130981
0.0976505
0.0689166
0.329555
0.438578
0.444214
0.405337
0.340745
0.263321
0.179911
0.119265
0.0771394
0.0482242
0.030278
0.218639
0.313576
0.372515
0.380304
0.35136
0.297371
0.225541
0.157816
0.101762
0.0631962
0.0388849
0.148799
0.296346
0.348539
0.36069
0.348778
0.313937
0.257847
0.193394
0.132249
0.084023
0.0520429
0.159673
0.249004
0.376811
0.395119
0.370732
0.333428
0.283498
0.223994
0.162311
0.10784
0.0693286
0.182347
0.248132
0.390143
0.501489
0.472145
0.3997
0.327238
0.258596
0.193038
0.133716
0.0877219
0.20641
0.259298
0.380231
0.543288
0.6312
0.552974
0.43051
0.322187
0.234819
0.163975
0.109248
0.228855
0.277682
0.377283
0.523382
0.692684
0.739116
0.610874
0.444908
0.308026
0.207717
0.136659
0.2488
0.29779
0.380942
0.497541
0.652428
0.817349
0.802648
0.623286
0.427105
0.276811
0.175441
0.266553
0.318888
0.389478
0.475985
0.594348
0.763156
0.894945
0.797502
0.577233
0.373661
0.230565
0.282563
0.341127
0.40233
0.460648
0.539469
0.675532
0.858248
0.901007
0.717762
0.482771
0.29806
0.297467
0.365356
0.419367
0.452573
0.49704
0.594286
0.767735
0.913731
0.811932
0.577901
0.365453
0.312329
0.391726
0.439663
0.451455
0.46908
0.532425
0.674452
0.861246
0.851412
0.639039
0.417994
0.328232
0.421583
0.462803
0.456823
0.454275
0.491683
0.598179
0.780982
0.850678
0.659348
0.441421
0.345851
0.45544
0.488615
0.466896
0.448597
0.468252
0.540064
0.666795
0.797999
0.648532
0.43662
0.36413
0.494843
0.519626
0.480448
0.443485
0.443166
0.485174
0.559989
0.640949
0.627975
0.412473
0.384233
0.542337
0.558659
0.499379
0.439946
0.416663
0.430385
0.468396
0.513585
0.527763
0.404561
0.407022
0.600474
0.609536
0.527654
0.4431
0.397418
0.388887
0.402239
0.422381
0.428826
0.38684
0.433536
0.672802
0.679314
0.573445
0.461338
0.394225
0.369511
0.368805
0.377047
0.381897
0.372674
0.465322
0.770361
0.791578
0.665222
0.52069
0.429759
0.395044
0.393252
0.398941
0.398885
0.391555
0.478774
0.846692
0.915006
0.814074
0.658687
0.542299
0.487461
0.464678
0.438033
0.409771
0.395117
0.42601
0.805731
0.908157
0.850579
0.726079
0.613847
0.517781
0.405696
0.346167
0.292693
0.238081
0.392859
0.727422
0.836695
0.81116
0.695247
0.534324
0.406136
0.314506
0.250922
0.202815
0.159901
0.325494
0.537883
0.545021
0.467382
0.361395
0.289605
0.241402
0.20756
0.179292
0.151189
0.121603
0.212554
0.180161
0.17465
0.177319
0.183147
0.187575
0.185527
0.173901
0.152751
0.12514
0.095751
0.262562
0.266105
0.138907
0.0643792
0.0323178
0.0184859
0.0128546
0.0104765
0.0093358
0.00869221
0.00825801
0.302936
0.334016
0.128536
0.071668
0.0375049
0.0212494
0.0139486
0.0107978
0.00929679
0.00848128
0.00797091
0.342133
0.375457
0.122059
0.0802675
0.0417998
0.0242616
0.0153775
0.011411
0.00948627
0.00844638
0.0078065
0.37611
0.349641
0.11898
0.0837501
0.0425203
0.0262425
0.0164482
0.0120124
0.00975808
0.00853005
0.00778864
0.402434
0.308166
0.115488
0.0814628
0.0413071
0.0272191
0.0169872
0.0124741
0.0100321
0.00867925
0.00785749
0.423136
0.274642
0.111352
0.0765611
0.0399016
0.0272743
0.0170881
0.0127407
0.0102236
0.00880778
0.00794012
0.438928
0.251186
0.107153
0.0713719
0.0387419
0.0266669
0.016959
0.0128354
0.010319
0.00889157
0.00799489
0.448262
0.234493
0.102839
0.0666827
0.0376441
0.0257829
0.0167287
0.0128062
0.0103366
0.00893664
0.00806
0.453714
0.222589
0.0988798
0.062908
0.0366243
0.0249067
0.0164784
0.0127119
0.0103074
0.00894757
0.00808419
0.457915
0.216574
0.0959989
0.06021
0.0358718
0.0242092
0.0162715
0.0126061
0.0102592
0.00893548
0.00807679
0.457908
0.216208
0.0945054
0.0583972
0.0354256
0.0237168
0.016137
0.0125207
0.0102131
0.0089156
0.00806478
0.454046
0.217381
0.0940501
0.0574199
0.0352368
0.0234013
0.0160872
0.0124729
0.010186
0.00890237
0.00804487
0.447294
0.220203
0.0950419
0.0572173
0.0355067
0.0234078
0.016213
0.0125098
0.0102109
0.00891538
0.00804218
0.438084
0.225668
0.0985878
0.0581816
0.0363564
0.0238297
0.0165731
0.0126749
0.0103181
0.00896979
0.00806921
0.426477
0.232169
0.103387
0.060053
0.0376907
0.0246584
0.017175
0.0129975
0.0105271
0.00908196
0.00813511
0.413112
0.239743
0.109986
0.0631415
0.0397156
0.026022
0.0181191
0.0135497
0.0108766
0.00928301
0.00825764
0.398333
0.248814
0.119512
0.0681722
0.0428591
0.0281438
0.0195621
0.0144526
0.0114431
0.00962387
0.00846861
0.382123
0.25874
0.131558
0.0754622
0.0474978
0.0313054
0.0217181
0.0158681
0.0123489
0.0101895
0.00882382
0.364782
0.269163
0.14658
0.0858346
0.0543698
0.0360466
0.0249987
0.0180984
0.0138215
0.0111407
0.00943298
0.346619
0.279129
0.164977
0.100442
0.0647161
0.0433774
0.030181
0.0217254
0.0162998
0.0127979
0.0105233
0.327759
0.287137
0.18672
0.120705
0.080475
0.055131
0.0387879
0.0279452
0.0207073
0.0158583
0.0126078
0.308714
0.290469
0.210898
0.148138
0.104574
0.074584
0.0538583
0.0393519
0.0291661
0.0220105
0.0169943
0.286669
0.284666
0.234126
0.182923
0.140358
0.106826
0.0810633
0.0614751
0.0467017
0.0356311
0.027373
0.274191
0.2798
0.254075
0.220338
0.185614
0.153287
0.12495
0.100968
0.0811204
0.0649467
0.0518572
0.296078
0.289439
0.136261
0.0643039
0.0320554
0.0184274
0.013023
0.0108334
0.00983888
0.00931514
0.00898904
0.353571
0.43635
0.120621
0.0715528
0.0360519
0.0208554
0.0143526
0.0117326
0.0105999
0.01003
0.00967933
0.400236
0.499199
0.119635
0.0812295
0.0397035
0.0233398
0.0158065
0.0128596
0.011675
0.0111865
0.0109551
0.434464
0.447384
0.120724
0.0839672
0.0406295
0.025044
0.0170713
0.0140248
0.0129203
0.0126144
0.0126217
0.45506
0.375426
0.11795
0.0801735
0.0400808
0.0259534
0.018054
0.0151124
0.0141595
0.0140614
0.014312
0.465118
0.31928
0.112419
0.0740244
0.0390803
0.026295
0.0188343
0.0161802
0.0155025
0.0158205
0.0167073
0.468461
0.279555
0.106105
0.0681493
0.0380569
0.0263616
0.0195022
0.0172227
0.016851
0.0175784
0.018944
0.466444
0.250379
0.0997287
0.0631889
0.037149
0.0263643
0.0201178
0.0182533
0.0182164
0.0194781
0.0217899
0.462055
0.228794
0.0939284
0.059268
0.0364849
0.0264249
0.0207281
0.0192652
0.0195606
0.0214168
0.0249004
0.457558
0.212608
0.0890578
0.0562638
0.0361686
0.0265621
0.0213781
0.020223
0.0208128
0.0231829
0.0277433
0.453766
0.202098
0.0853182
0.0541875
0.0362297
0.0268095
0.0220907
0.0210875
0.0218936
0.0245505
0.0295972
0.448625
0.195394
0.0824809
0.0528228
0.0365822
0.027182
0.0228527
0.0218408
0.0227604
0.0254389
0.0305837
0.442678
0.191086
0.0813111
0.0521694
0.037269
0.0278363
0.0237458
0.022588
0.0235195
0.0260508
0.0309268
0.436079
0.189727
0.0821611
0.0523205
0.0383031
0.0288293
0.0247804
0.023367
0.0241569
0.0263838
0.0306376
0.428751
0.190061
0.0843308
0.0531804
0.0396073
0.0301532
0.0259761
0.0242176
0.0246907
0.0264642
0.0298497
0.420807
0.192097
0.0879981
0.0549275
0.0412441
0.0318408
0.0273826
0.0252018
0.0251812
0.0263621
0.0287397
0.412233
0.195952
0.0935037
0.0578825
0.0433956
0.0339538
0.0290791
0.0264056
0.0257369
0.0262036
0.0275411
0.402822
0.201305
0.100961
0.0623942
0.0463542
0.0366048
0.0311781
0.0279409
0.0265143
0.0261691
0.0264815
0.392277
0.207893
0.11064
0.0690141
0.0506464
0.0400788
0.0338859
0.0299766
0.027724
0.0265046
0.0258471
0.380114
0.215406
0.122975
0.0786027
0.0571975
0.0450267
0.0376511
0.0328336
0.029667
0.0275338
0.02596
0.36539
0.222987
0.138349
0.0923531
0.0675399
0.0528191
0.043511
0.037254
0.0328856
0.0296975
0.0271856
0.345965
0.2288
0.156674
0.111779
0.0840897
0.0660559
0.0537599
0.0450449
0.0386766
0.0338572
0.0300171
0.317032
0.227086
0.174211
0.136107
0.108483
0.0878908
0.0721671
0.059944
0.0508919
0.044402
0.0398588
0.266767
0.216909
0.186962
0.165903
0.148352
0.132834
0.118797
0.106063
0.0939703
0.0825
0.0718116
0.0769847
0.0526367
0.0227039
0.0194085
0.0217337
0.0277903
0.0628844
0.0896217
0.100651
0.076438
0.0613408
0.0484221
0.0356011
0.0339456
0.0644837
0.0844605
0.103712
0.122852
0.0859525
0.0724462
0.0564892
0.0446094
0.0441256
0.077029
0.10236
0.115586
0.11842
0.0800726
0.0742738
0.062499
0.0534305
0.0551697
0.0852813
0.103863
0.105042
0.0995203
0.0888265
0.09232
0.0912867
0.0877772
0.0834302
0.0828778
0.0991014
0.102813
0.104249
0.0888252
0.0986251
0.104994
0.107434
0.108376
0.119273
0.143625
0.14087
0.136908
0.091791
0.0915865
0.0905295
0.0920148
0.0902944
0.0954958
0.119521
0.116302
0.116511
0.0777813
0.0731321
0.06863
0.0672499
0.0623401
0.0622282
0.0821383
0.0815261
0.0906868
0.00442709
0.00460173
0.00461704
0.00443744
0.00568877
0.00438075
0.0159997
0.00454888
0.00437112
0.00528503
0.0057519
0.0045578
0.00478745
0.00439214
0.00448367
0.00430716
0.00441815
0.00442144
0.00429942
0.00429315
0.0049878
0.0240309
0.00466502
0.00465078
0.00449196
0.00439291
0.00478934
0.0165456
0.0488537
0.00490341
0.00442826
0.00485619
0.00451578
0.00453662
0.00493147
0.00459255
0.00464909
0.00448703
0.00453633
0.00438872
0.00642031
0.0045457
0.00454056
0.00465787
0.014132
0.0471208
0.00455872
0.0309317
0.00496222
0.00432405
0.00484982
0.0043957
0.00462946
0.0045337
0.00432105
0.00490133
0.0222822
0.00440233
0.0499267
0.00454605
0.00552088
0.00462065
0.00617928
0.00574488
0.0151357
0.00428965
0.00459885
0.00446923
0.00460213
0.00526797
0.00429659
0.00485586
0.00460967
0.00529294
0.00441955
0.00460899
0.00922334
0.00459714
0.0166096
0.0322139
0.00451198
0.00579214
0.00449539
0.00462586
0.00492367
0.00459531
0.0731072
0.00458729
0.00550129
0.00462722
0.00454199
0.00441485
0.00800686
0.00457855
0.0298291
0.0327128
0.00440751
0.00493525
0.00530546
0.00494747
0.00506037
0.0277178
0.00487219
0.00469456
0.00601557
0.00455108
0.00444259
0.0046464
0.00471713
0.00490891
0.00451128
0.00456039
0.0043745
0.00468309
0.00453872
0.00442182
0.00437272
0.00431752
0.00450654
0.00485123
0.00476224
0.00526208
0.00492834
0.00441217
0.0477647
0.00517323
0.00450194
0.00445346
0.00448072
0.00455811
0.00445628
0.0045309
0.0300024
0.00468758
0.00461413
0.00504664
0.00695888
0.00574026
0.00500135
0.0050236
0.00456326
0.00537191
0.0187503
0.00465711
0.00436374
0.00496577
0.00521229
0.00442361
0.00536208
0.00440801
0.00431155
0.00442106
0.00495124
0.00518007
0.00455755
0.00475998
0.00454083
0.0060839
0.00432566
0.00435544
0.00450029
0.00553958
0.00477127
0.00442821
0.00458785
0.00476307
0.00708195
0.00537604
0.00514976
0.0137324
0.00446969
0.00446566
0.0052014
0.00478842
0.00487057
0.0046254
0.00443953
0.00500683
0.014863
0.00455232
0.00438158
0.0160477
0.00465944
0.00521186
0.00450882
0.00479865
0.00435156
0.00430979
0.00458951
0.0169547
0.00465978
0.00450825
0.00429773
0.00612046
0.00461016
0.00439366
0.00434025
0.00549115
0.00457466
0.00467914
0.00532251
0.00432393
0.00459594
0.00446665
0.00462756
0.00458036
0.00451693
0.00448098
0.0043324
0.00433724
0.00460365
0.00439341
0.00459283
0.00493755
0.00449284
0.0048393
0.00451017
0.00461596
0.00433605
0.00450231
0.00456347
0.00467447
0.00439653
0.00454187
0.00441277
0.00440752
0.00515788
0.00474904
0.00464926
0.00740452
0.00562842
0.00430108
0.00431958
0.00530116
0.00498993
0.0353203
0.00459788
0.00464625
0.00456252
0.00455164
0.00461944
0.00450139
0.00467823
0.00574122
0.00490147
0.00552651
0.00451859
0.00448672
0.0303313
0.00451406
0.00448516
0.00460938
0.00533853
0.00430388
0.00459952
0.00434961
0.00495341
0.00447272
0.00503829
0.00437429
0.00440459
0.00510368
0.0043263
0.00457478
0.00450889
0.00449329
0.00532504
0.00529658
0.00568689
0.00441771
0.00538333
0.00431572
0.00432108
0.00453085
0.00438566
0.0043267
0.00439847
0.00444929
0.00496647
0.00585424
0.00497107
0.00459642
0.0045151
0.00462056
0.00458765
0.00439194
0.0689884
0.00458776
0.00495326
0.00458309
0.00461493
0.0181343
0.00513706
0.00456618
0.00467831
0.00433818
0.00517081
0.00456585
0.00493875
0.00437803
0.00445385
0.00519169
0.00498254
0.00494803
0.00487714
0.00487829
0.00459791
0.00491854
0.0152902
0.00434409
0.0155516
0.0045631
0.00479939
0.00451516
0.0167903
0.00510735
0.00450298
0.00706522
0.0048011
0.00489616
0.00434111
0.00461389
0.00435411
0.00433644
0.00808647
0.0051519
0.00445258
0.0044447
0.00431455
0.00480859
0.00496597
0.00628789
0.00678202
0.00464927
0.00479607
0.0373133
0.00452807
0.00458649
0.00447576
0.0049023
0.00515158
0.00461941
0.00432414
0.00472332
0.00532197
0.00491404
0.00440769
0.00437573
0.0046842
0.00445912
0.0154201
0.00483521
0.00442885
0.00484148
0.00435955
0.00468914
0.00456354
0.00464402
0.00465912
0.00474153
0.0044375
0.00442828
0.00451741
0.00451188
0.00430822
0.00641112
0.00445916
0.00476346
0.0167081
0.00487262
0.00444187
0.00522761
0.0352162
0.00440304
0.00437989
0.0046071
0.00450146
0.00491327
0.00437279
0.00438092
0.0045906
0.00437991
0.00505928
0.00441506
0.00449898
0.00450511
0.00494843
0.0044104
0.00448027
0.00857116
0.00443254
0.0203326
0.00442036
0.00554215
0.00452808
0.0151358
0.00448023
0.00432122
0.00461829
0.00458191
0.00502358
0.00440825
0.00466138
0.00457718
0.00457026
0.0134977
0.0138109
0.00486566
0.00432387
0.00462296
0.00540022
0.00429225
0.00453411
0.00451093
0.00480846
0.0047457
0.00464801
0.00551416
0.00444682
0.0196337
0.00531354
0.00443442
0.0155298
0.00473434
0.00467741
0.00495566
0.00520929
0.00481236
0.00507506
0.0339042
0.00448666
0.00504102
0.00445515
0.00490106
0.00498918
0.00459504
0.00473903
0.00498824
0.00441
0.00468833
0.00455307
0.0647782
0.00435763
0.0049983
0.00513558
0.00466078
0.0046903
0.0047979
0.0043405
0.00534579
0.00444646
0.00461304
0.00449973
0.0163376
0.00526233
0.0183388
0.00446436
0.00535031
0.00468948
0.004591
0.0043368
0.00449084
0.00442749
0.00460403
0.00546506
0.00740489
0.00667838
0.00545505
0.00546768
0.0048975
0.00458995
0.00520399
0.00457409
0.00544351
0.00526271
0.00458544
0.00432084
0.00557886
0.00533127
0.00433197
0.00444872
0.00508258
0.0059769
0.0134476
0.00464598
0.00487681
0.00901175
0.00467318
0.00464911
0.00433697
0.00523063
0.0043916
0.00525792
0.00440185
0.0045399
0.00429172
0.00429318
0.00438075
0.00456298
0.00519723
0.00445243
0.00443687
0.00454053
0.00453475
0.0299978
0.0045909
0.00477283
0.00501455
0.0256208
0.0046189
0.00462746
0.00447264
0.00978677
0.00474639
0.00507393
0.00457378
0.00463193
0.00438403
0.00445286
0.00441654
0.00485848
0.0045946
0.00442534
0.00457289
0.00522532
0.00460657
0.00452357
0.00434966
0.00474629
0.0044447
0.0304791
0.00486703
0.00494999
0.00428905
0.00610624
0.004678
0.00447628
0.00463284
0.00608615
0.00531619
0.00450275
0.00448799
0.00441448
0.00461424
0.00436609
0.00460389
0.00467157
0.00495807
0.0102884
0.00455052
0.00441576
0.0409634
0.00461919
0.00491573
0.00527009
0.00534848
0.00460474
0.00458816
0.00472989
0.00431277
0.0044618
0.028992
0.0288442
0.004491
0.00432033
0.00459543
0.0046868
0.00455755
0.00453581
0.00454259
0.00436628
0.00461961
0.00438163
0.00449927
0.00448773
0.00490707
0.00569187
0.00443118
0.00453788
0.00446306
0.00462933
0.00432825
0.00443233
0.00443459
0.00489094
0.0189039
0.00477591
0.00463499
0.00467301
0.0281913
0.00440307
0.00442177
0.00459
0.00459327
0.00468795
0.00515534
0.00448552
0.00503923
0.00444348
0.00449871
0.0328735
0.00448744
0.00437902
0.004294
0.00450013
0.0106718
0.00439753
0.00476546
0.00523952
0.00509494
0.00447301
0.00458107
0.00458309
0.00580607
0.00462597
0.00537467
0.0042988
0.00472139
0.00469768
0.00446332
0.0321835
0.00461728
0.0043814
0.00438429
0.00665821
0.00493371
0.0043315
0.00580953
0.00460549
0.00520289
0.00448785
0.00456142
0.00445174
0.00445449
0.00444129
0.0115556
0.0047693
0.00529002
0.00474039
0.00437902
0.00743299
0.00457834
0.00423477
0.00462082
0.00546826
0.00845237
0.00456445
0.004641
0.00486744
0.00444658
0.00456655
0.0281657
0.00445975
0.00511223
0.0044241
0.00537465
0.00455031
0.00431891
0.00503419
0.0048378
0.00495927
0.00521092
0.00488571
0.00459187
0.00450583
0.00583577
0.00777389
0.00476902
0.00452068
0.00461204
0.00451568
0.00480098
0.0212204
0.00444433
0.0043894
0.00471648
0.00442973
0.00455768
0.00465893
0.00450729
0.00469593
0.00447229
0.0291738
0.00449058
0.00487699
0.00463618
0.00441879
0.00441704
0.0183794
0.00450018
0.00436726
0.00476479
0.00463237
0.00440655
0.00476172
0.00485979
0.00455459
0.00440182
0.00440002
0.00480361
0.00466206
0.00456284
0.00441233
0.00436912
0.00473857
0.00432124
0.00497716
0.00462731
0.00601753
0.00458179
0.0046992
0.00452407
0.00454497
0.00473797
0.00450111
0.0155604
0.0044691
0.00449061
0.00449651
0.00491139
0.0163881
0.00511593
0.00516546
0.00438909
0.00435628
0.0051765
0.00490291
0.00467096
0.00458576
0.00449503
0.00460813
0.00468834
0.00507019
0.00451915
0.00456024
0.00467427
0.00533119
0.00448966
0.0053246
0.00654405
0.0045297
0.00443726
0.0291847
0.00454832
0.0285212
0.00440582
0.00526052
0.00439619
0.00437546
0.00521626
0.00500635
0.00441999
0.00505339
0.00440528
0.00456985
0.00450639
0.00516629
0.0045591
0.00460102
0.00462692
0.00474739
0.00430436
0.00474707
0.037756
0.00446083
0.00439572
0.00450772
0.00471065
0.00533304
0.00676543
0.00535943
0.00453505
0.00455148
0.00522338
0.00432453
0.00491333
0.00441321
0.00437682
0.00503991
0.00468985
0.00449588
0.00501773
0.00945234
0.00456876
0.00447746
0.00457578
0.00449445
0.00498865
0.00455669
0.00458007
0.00462422
0.00448658
0.00488462
0.00444026
0.020668
0.00516508
0.00444316
0.00493775
0.00442472
0.00450538
0.00445488
0.00467945
0.00459537
0.00477378
0.00429471
0.0237902
0.00464761
0.00521076
0.00451854
0.00447641
0.0044282
0.00446814
0.0441823
0.00433771
0.00456626
0.00484903
0.00497701
0.0045829
0.00448008
0.00455552
0.0045687
0.00808909
0.00459884
0.0045653
0.00442076
0.00461126
0.00466016
0.00452759
0.00463978
0.00433058
0.00440656
0.00453827
0.00472219
0.0046008
0.00484568
0.00510164
0.0043239
0.0045891
0.00457742
0.00433313
0.026776
0.0188436
0.00459893
0.00454855
0.00552447
0.00466886
0.00443374
0.00494513
0.00449428
0.00441785
0.0044191
0.00674431
0.00468594
0.00475129
0.00441445
0.00443419
0.0044216
0.00468777
0.00432046
0.0043803
0.00488615
0.00449822
0.00455805
0.00435829
0.0331798
0.00437747
0.00428874
0.00514225
0.020545
0.00437589
0.00450715
0.00558453
0.0323141
0.00472046
0.0049989
0.00453535
0.00447561
0.00464864
0.00453991
0.00514099
0.00462735
0.00452221
0.00459609
0.0047445
0.00456244
0.00475546
0.00453319
0.00457936
0.00443414
0.00564773
0.00444322
0.00530311
0.00509809
0.00460714
0.0049266
0.0371408
0.00479919
0.0047194
0.00452677
0.00472042
0.00456377
0.0123311
0.00466257
0.00456053
0.00444483
0.00456529
0.0044381
0.00439695
0.00548101
0.00434328
0.00453442
0.00431585
0.00444985
0.00441466
0.00574316
0.00447387
0.00442098
0.00452717
0.00456092
0.0126918
0.00449545
0.00490969
0.00448231
0.00492409
0.00431693
0.00448545
0.00437785
0.00460338
0.00441692
0.0283238
0.0049503
0.00481631
0.00448507
0.00441968
0.00484007
0.0393352
0.00452018
0.00493733
0.00445766
0.00439332
0.0055786
0.0044987
0.00465051
0.00452953
0.00484729
0.00460465
0.00426555
0.00464472
0.00440704
0.00463618
0.00456365
0.00432504
0.00446274
0.00434326
0.00510154
0.00499609
0.0194073
0.00482423
0.00463792
0.0119317
0.00458557
0.00924838
0.00461005
0.00489578
0.00451871
0.00459628
0.00473854
0.00501338
0.00445814
0.00459059
0.00458059
0.00485255
0.00510259
0.00433996
0.0046393
0.00467316
0.00446442
0.00488264
0.00455354
0.0359054
0.00497241
0.0299278
0.00455297
0.00457135
0.00465231
0.00482545
0.00441742
0.00440539
0.0046757
0.00442651
0.00627111
0.00456293
0.00458298
0.00461559
0.00471643
0.00467503
0.00450167
0.00446139
0.00432657
0.00699476
0.00519455
0.00832733
0.00464175
0.00494747
0.00454377
0.00459798
0.00462463
0.00524252
0.00482983
0.00465175
0.00467168
0.00438703
0.00445229
0.0044476
0.00454544
0.00521951
0.00467845
0.00439936
0.00514003
0.00460669
0.00443952
0.00455671
0.00438967
0.00452719
0.0148178
0.00517525
0.00470813
0.00458969
0.0045561
0.00532812
0.00502403
0.0175133
0.00526023
0.00468357
0.00460622
0.00544879
0.00450894
0.00442335
0.00450357
0.00437231
0.0047651
0.00446959
0.004553
0.0144984
0.0401921
0.0409669
0.00496633
0.00483372
0.00527326
0.00462823
0.00442613
0.00470559
0.00496202
0.00525758
0.004541
0.00447623
0.00494583
0.00440754
0.00455074
0.00454989
0.00469498
0.0283921
0.00515366
0.00546399
0.0201594
0.00467453
0.00527171
0.00471436
0.0046225
0.00498914
0.00465124
0.00567984
0.0188395
0.00456401
0.00479428
0.0414313
0.00468375
0.0046099
0.00452605
0.00501839
0.00436974
0.00435672
0.00479992
0.00450355
0.00458128
0.0156445
0.00436982
0.00437201
0.00519227
0.00457342
0.00458906
0.00434456
0.00496907
0.00433667
0.00502712
0.00528244
0.0078503
0.0190031
0.0049935
0.00512807
0.00487844
0.00452304
0.00445822
0.00478238
0.00441861
0.00452688
0.00453827
0.00436878
0.00458614
0.00445627
0.00454391
0.0047201
0.00449514
0.00538954
0.0354715
0.00436271
0.00454084
0.00429688
0.00463107
0.0045534
0.00443251
0.0367756
0.0044438
0.00464534
0.0044814
0.00450178
0.00456269
0.00528136
0.0048317
0.00430048
0.00470223
0.00485276
0.00496882
0.00431935
0.0049741
0.00447825
0.00476436
0.00568209
0.0045812
0.00432419
0.00468915
0.00450559
0.00473417
0.00456174
0.004391
0.00485124
0.0662761
0.0055539
0.00594043
0.00556877
0.00457373
0.00532018
0.00429336
0.00464926
0.0585781
0.00515052
0.0259928
0.00820851
0.00456557
0.00449519
0.00462083
0.00596049
0.00455612
0.0187919
0.00431924
0.00456528
0.00432603
0.00443681
0.00460411
0.00615129
0.00449521
0.00433362
0.0055302
0.00462867
0.00461531
0.00556114
0.00475255
0.0110275
0.00487323
0.00471377
0.00431805
0.00521896
0.00611653
0.00441781
0.0045144
0.00503283
0.00512108
0.00476777
0.00485773
0.0045719
0.00451415
0.00502509
0.00700077
0.00436476
0.0164148
0.00487481
0.00462118
0.00443533
0.0047718
0.00508004
0.00449894
0.00453527
0.00442374
0.00504661
0.00582461
0.00445064
0.00435296
0.00464583
0.0046142
0.0045607
0.00468819
0.0044081
0.00442852
0.00477982
0.00521022
0.0045593
0.00541099
0.0194815
0.00447868
0.0052511
0.00494334
0.00438661
0.00490542
0.00453142
0.00456571
0.00448837
0.00451244
0.00449643
0.00430729
0.00495731
0.00504874
0.00445256
0.00446667
0.0045282
0.00495957
0.00492525
0.00522157
0.00467557
0.00487245
0.00458663
0.00444603
0.00472721
0.0044164
0.0051073
0.00506498
0.00451196
0.00552348
0.00474236
0.00602293
0.00464114
0.00468828
0.00457115
0.00445904
0.00492986
0.00460885
0.00439153
0.00548854
0.00478557
0.00510207
0.00440916
0.00486967
0.00521276
0.00449559
0.0045014
0.0251382
0.00443768
0.00492252
0.00469998
0.004672
0.0044502
0.00630363
0.00476518
0.0044266
0.00864464
0.0205785