/*--------------------------------*- C++ -*----------------------------------*\
| =========                 |                                                 |
| \\      /  F ield         | OpenFOAM: The Open Source CFD Toolbox           |
|  \\    /   O peration     | Version:  3.0.1                                 |
|   \\  /    A nd           | Web:      www.OpenFOAM.org                      |
|    \\/     M anipulation  |                                                 |
\*---------------------------------------------------------------------------*/
FoamFile
{
    version     2.0;
    format      ascii;
    class       volScalarField;
    location    "0.471844";
    object      epsilon;
}
// * * * * * * * * * * * * * * * * * * * * * * * * * * * * * * * * * * * * * //

dimensions      [0 2 -3 0 0 0 0];

internalField   nonuniform List<scalar> 
21246
(
191.733
106.704
18.086
4.20177
1.36711
0.737569
0.554674
0.488162
0.459962
0.445554
0.43429
305.92
228.477
24.2065
6.28922
1.69874
0.825781
0.566432
0.473512
0.431306
0.406191
0.385152
389.106
250.351
40.1957
8.40113
1.92263
0.913588
0.579293
0.462134
0.40709
0.372136
0.340156
424.175
235.886
47.4131
9.6107
2.0354
0.981023
0.586078
0.451969
0.387293
0.345571
0.307114
424.817
225.584
50.7719
10.1193
2.13575
1.02311
0.586576
0.44263
0.371534
0.326248
0.286326
406.056
222.893
55.1356
11.4318
2.28377
1.04736
0.585965
0.43478
0.359248
0.31231
0.272866
372.595
225.183
61.2654
13.8242
2.77557
1.0851
0.589062
0.429106
0.350012
0.30214
0.262694
328.984
230.319
68.3736
17.0439
3.61266
1.19784
0.608951
0.426373
0.343618
0.295001
0.25639
282.854
236.9
76.8792
21.2336
4.91796
1.44384
0.657077
0.432737
0.341461
0.290726
0.252367
238.423
244.201
88.2842
27.0621
7.00437
1.95272
0.766884
0.453816
0.3442
0.289256
0.250684
196.007
252.58
102.235
34.5898
10.0408
2.86252
0.994812
0.505169
0.355174
0.290861
0.250756
158.069
263.191
117.889
43.4297
13.9619
4.25277
1.40722
0.613147
0.381939
0.297383
0.25296
128.141
274.606
136.265
54.1835
19.0232
6.27805
2.10495
0.82497
0.441208
0.313757
0.258533
107.193
284.583
158.37
67.8903
25.743
9.19556
3.2374
1.21897
0.566434
0.351797
0.271124
96.7937
297.195
184.134
84.608
34.2125
13.1147
4.92023
1.88295
0.807413
0.43387
0.299128
99.1969
311.441
214.508
105.691
45.2106
18.4048
7.35495
2.94551
1.24214
0.600693
0.360771
112.775
320.327
248.318
133.066
60.2433
25.8523
10.9361
4.62268
1.99728
0.924643
0.493232
135.034
320.598
280.908
167.267
80.8507
36.4917
16.2501
7.24961
3.27285
1.5258
0.765623
160.808
307.762
302.446
206.17
108.891
52.1263
24.4358
11.4863
5.45078
2.62972
1.31213
184.967
283.542
302.625
241.184
144.3
75.0865
37.4943
18.6468
9.32829
4.70944
2.41284
204.822
247.354
275.473
256.8
181.55
107.17
58.6527
31.3343
16.6448
8.84844
4.72238
257.217
216.418
239.145
250.966
211.961
147.805
92.053
54.181
31.0434
17.5836
9.88377
286.762
180.103
183.146
194.365
187.384
159.637
120.161
82.3851
53.1969
33.2498
20.198
574.534
627.121
487.007
398.695
308.204
226.711
159.554
109.293
73.6872
49.2145
32.1705
143.65
68.2841
15.0779
3.06023
1.13151
0.688838
0.554005
0.506126
0.490825
0.49059
0.498418
187.918
55.3889
9.20208
3.08882
1.26553
0.745968
0.581699
0.525539
0.510144
0.514349
0.530319
227.406
69.1439
8.42106
3.40752
1.40364
0.828146
0.622607
0.549807
0.529438
0.535477
0.558601
241.128
67.0932
8.06615
3.56981
1.39455
0.822943
0.604761
0.524683
0.502165
0.508657
0.535528
240.707
56.8926
7.76717
3.5392
1.38003
0.826949
0.593516
0.50401
0.473041
0.472388
0.492321
236.596
47.4787
7.43919
3.36119
1.3321
0.817386
0.578453
0.484599
0.447016
0.438963
0.449567
232.112
40.496
7.10642
3.14262
1.27396
0.799195
0.560569
0.466676
0.424724
0.4103
0.410649
226.58
35.3824
6.7693
2.93261
1.22141
0.777169
0.543388
0.451133
0.407213
0.389711
0.385418
223
31.6778
6.48663
2.76706
1.18755
0.756002
0.529044
0.438362
0.393796
0.37562
0.37152
222.242
29.1452
6.281
2.64556
1.17136
0.740322
0.51863
0.428347
0.383227
0.364941
0.362141
225.067
27.6163
6.18768
2.58141
1.17177
0.732933
0.512709
0.421027
0.374625
0.355828
0.35457
230.316
26.7345
6.16844
2.56411
1.18764
0.734045
0.511293
0.416276
0.367437
0.346949
0.345607
238.216
26.9505
6.24499
2.59424
1.22308
0.74494
0.515136
0.414297
0.361586
0.337812
0.333698
247.144
29.6653
6.80785
2.74219
1.30776
0.776151
0.529797
0.417389
0.35848
0.329603
0.320966
257.745
33.604
7.83349
3.03102
1.45376
0.836586
0.55989
0.428387
0.359767
0.323674
0.308543
270.853
39.1283
9.51836
3.55044
1.69331
0.944315
0.614123
0.452559
0.3683
0.321951
0.298344
287.422
46.6662
12.1692
4.46491
2.09802
1.13566
0.711605
0.500964
0.390519
0.328524
0.293625
309.366
56.4984
16.0913
6.0145
2.80137
1.48298
0.893364
0.597855
0.441243
0.352702
0.300663
339.722
69.4262
21.7896
8.57979
4.05224
2.13729
1.25186
0.800715
0.557326
0.418549
0.335683
383.591
87.201
30.1884
12.8025
6.30916
3.41112
1.99776
1.25144
0.835697
0.593316
0.446372
451.227
113.227
43.0689
19.8439
10.4228
5.93731
3.60073
2.29705
1.53395
1.07027
0.780011
566.527
154.51
64.1824
32.1058
18.0959
11.0048
7.06687
4.73561
3.29166
2.36774
1.76249
792.726
239.98
108.103
57.9235
34.6091
22.2189
15.0283
10.5938
7.74135
5.84756
4.55714
1447.75
434.728
224.147
138.468
93.7843
66.4611
49.2452
38.1179
30.5258
25.0056
20.5369
1218.54
546.729
189.797
81.7496
34.6315
14.2652
6.26572
3.2686
2.07943
1.56649
1.32361
1293.88
649.584
298.32
135.736
59.1791
22.761
8.17353
3.74036
2.22258
1.64699
1.40813
960.006
556.75
325.889
172.81
84.7336
36.6463
13.6354
4.95413
2.44205
1.71295
1.4755
542.792
437.589
308.763
189.006
104.293
50.8708
21.3176
7.91316
3.16446
1.79857
1.50285
251.292
325.746
271.217
190.382
117.666
64.0102
30.238
12.4274
4.79314
2.19378
1.54055
104.651
233.597
229.528
181.756
124.648
75.0099
39.5106
18.2005
7.50545
3.12801
1.73346
69.1506
167.611
191.549
166.857
125.124
82.375
47.8097
24.4856
11.1385
4.73763
2.23625
61.3669
115.289
157.008
148.761
120.132
85.301
53.7772
30.2158
15.1595
6.92503
3.13127
46.3427
67.2867
118.975
127.755
111.001
83.9454
56.7035
34.4732
18.8795
9.3694
4.364
32.0319
38.4179
79.4828
103.192
98.3133
78.8431
56.4737
36.7109
21.691
11.6439
5.7409
23.3334
23.7443
48.4363
76.8631
82.5562
70.5641
53.312
36.7262
23.1699
13.3374
6.98107
18.1549
16.2981
28.5568
52.5647
65.4539
60.1647
47.8471
34.7181
23.1853
14.1731
7.83661
14.4878
12.1722
18.6986
33.4134
48.9306
48.9642
41.004
31.2267
21.921
14.0906
8.15708
11.4554
9.2744
12.9512
21.6091
33.7615
38.0651
33.6256
26.8413
19.6995
13.1952
7.89949
9.01029
7.18995
9.196
14.4628
22.3161
27.8729
26.3616
22.0566
16.8549
11.6724
7.17022
7.20022
5.67281
6.70074
9.88301
14.6566
19.2133
19.669
17.2972
13.7465
9.80897
6.15298
5.84037
4.63302
5.02169
6.8686
9.62937
12.6862
13.9093
12.953
10.7578
7.94575
5.09509
4.96964
3.95522
3.9033
4.90453
6.39423
8.23587
9.49853
9.48048
8.3717
6.52364
4.3609
4.50805
3.5421
3.17213
3.66911
4.44606
5.58818
6.81335
7.4638
7.22185
6.12951
4.36404
4.77349
3.57042
2.81808
3.07494
3.60612
4.64058
6.19546
7.50184
7.99162
7.48848
5.83774
7.37141
4.15369
2.95922
3.18107
3.91872
5.747
8.14226
10.0062
10.838
10.7365
9.4936
11.4464
5.17314
3.54901
4.2299
6.11427
8.93303
11.1463
11.7104
11.1344
10.2949
9.37097
14.0553
6.22416
6.5
9.0867
12.1729
13.703
13.1942
11.6578
9.90361
8.48959
7.55844
48.1889
29.3723
24.6948
21.8011
18.6656
15.43
12.373
9.81601
7.95358
6.7877
6.14725
1377.08
343.199
152.302
65.4576
27.6666
12.0326
5.71208
3.12182
2.01108
1.49769
1.23068
1108.51
293.26
133.5
64.0034
29.6709
13.623
6.51651
3.44256
2.10593
1.49786
1.19135
870.889
276.047
129.153
67.6115
34.1709
16.533
7.96506
4.04227
2.31051
1.54362
1.18262
623.711
221.701
111.742
66.1298
38.0532
20.2432
10.1463
5.03597
2.67954
1.64578
1.18689
440.744
169.078
92.5467
59.3997
38.9968
24.3882
13.685
6.98474
3.49294
1.91384
1.2476
307.827
125.595
75.2019
51.903
37.2397
26.1782
16.982
9.82842
5.15677
2.6262
1.45788
206.924
90.8014
59.634
44.2701
34.5585
26.7926
19.2313
12.1498
6.74483
3.45754
1.80618
132.151
63.4401
45.7383
36.6293
31.0958
26.429
20.8284
14.333
8.51636
4.55034
2.38182
81.3828
42.8519
33.8432
29.3243
27.0933
25.17
21.6971
16.2413
10.363
5.82127
3.08435
49.7781
28.3013
24.3684
22.9231
22.9411
23.1684
21.7882
17.7276
12.1522
7.19529
3.93011
32.3173
19.2027
17.7107
17.9695
19.2213
20.7317
21.0614
18.69
13.767
8.58742
4.89875
23.744
14.2906
13.6879
14.6561
16.3596
18.4005
19.7244
18.7956
15.0581
10.0105
5.87589
20.1562
12.1619
11.6594
12.7381
14.404
16.4612
18.1963
18.244
15.6297
11.1743
6.97546
19.0358
11.6041
10.8636
11.7524
13.1304
14.9122
16.6638
17.2838
15.6016
11.8618
7.8411
19.1239
11.7894
10.702
11.2717
12.2509
13.6154
15.1492
16.0421
15.0982
12.0927
8.40869
19.8604
12.2969
10.8313
11.0156
11.5427
12.4225
13.6104
14.5764
14.2197
11.9276
8.69417
21.0445
12.9704
11.1166
10.8754
10.9237
11.2869
12.0555
12.9533
13.0547
11.4451
8.74638
22.7981
13.8058
11.561
10.8787
10.443
10.2785
10.5811
11.2896
11.6933
10.7212
8.57219
25.4762
14.9213
12.2591
11.1295
10.2129
9.51771
9.32443
9.7388
10.2597
9.82039
8.27605
29.529
16.493
13.3407
11.7502
10.3509
9.11742
8.40557
8.44082
8.87744
8.78762
7.75131
35.339
18.7419
14.9498
12.8608
10.9457
9.15311
7.90738
7.50997
7.70764
7.73759
7.1279
45.211
22.1663
17.5158
14.609
11.995
9.60108
7.83613
6.99097
6.85953
6.83212
6.47213
57.383
29.9557
21.5639
16.862
13.2177
10.272
8.10845
6.8695
6.38532
6.19078
5.93486
138.016
38.0563
25.8385
18.3226
14.0904
11.0091
8.70426
7.18585
6.36145
5.94734
5.69087
1791.73
595.922
254.826
106.079
39.7951
13.6476
4.5259
1.49281
0.497124
0.173061
0.0679983
1346.92
375.529
184.928
84.8097
34.7276
12.9489
4.52701
1.51922
0.502583
0.171328
0.0657349
828.752
293.759
154.35
78.9519
35.3166
13.9586
5.04524
1.71074
0.559361
0.186069
0.0696998
575.571
227.873
131.533
74.0976
36.0158
15.1353
5.71385
2.00018
0.665859
0.220803
0.0808442
416.073
169.041
100.866
62.3081
33.7339
15.5863
6.26193
2.2655
0.760931
0.245832
0.0848238
335.931
133.387
80.8688
51.0649
28.7253
13.9286
5.83582
2.18096
0.754669
0.253095
0.0916418
284.672
110.115
67.1588
42.7354
24.303
11.998
5.17835
2.01227
0.725676
0.252278
0.0929797
248.713
93.6593
57.0035
36.2606
20.7275
10.3484
4.55491
1.82066
0.679502
0.245413
0.0968182
222.762
81.4926
49.2842
31.2455
17.8723
8.97724
4.00672
1.6395
0.632408
0.237654
0.0972223
203.196
72.3667
43.425
27.4377
15.6868
7.90749
3.56448
1.48553
0.588795
0.228263
0.0945576
187.574
65.2449
38.8801
24.516
14.0191
7.08809
3.2197
1.36084
0.550424
0.217956
0.0926467
175.716
59.4853
35.2396
22.2033
12.7142
6.45252
2.9523
1.26273
0.519111
0.209186
0.0902466
167.375
54.9239
32.3596
20.4024
11.7194
5.97778
2.75533
1.19109
0.496561
0.203201
0.0894908
161.489
51.4983
30.167
19.071
11.0142
5.65526
2.62688
1.14632
0.483438
0.200246
0.090103
158.408
48.8515
28.4581
18.0766
10.5263
5.45488
2.55744
1.12663
0.479928
0.200724
0.0908578
158.218
46.9397
27.1996
17.4002
10.2514
5.37923
2.55061
1.13457
0.487452
0.205063
0.0930068
160.787
45.8718
26.4284
17.073
10.2204
5.45241
2.62055
1.17683
0.508797
0.214162
0.0967937
167.372
46.1575
26.2418
17.1214
10.482
5.72314
2.7881
1.26393
0.549073
0.230296
0.103391
179.118
48.0477
26.75
17.5522
11.0361
6.23767
3.13754
1.44796
0.633561
0.265344
0.117211
198.493
52.2036
28.2422
18.5066
11.9573
7.04597
3.70773
1.77319
0.794334
0.338099
0.147126
230.721
59.7135
31.1848
20.2131
13.3525
8.21992
4.5723
2.3127
1.08861
0.484623
0.213547
288.429
71.6146
36.178
22.9403
15.3429
9.84009
5.82657
3.1788
1.62099
0.783158
0.366936
395.774
91.2686
43.9825
27.2627
18.3339
12.192
7.70281
4.58661
2.58999
1.39852
0.729721
630.433
96.5195
50.8954
31.5766
22.4675
15.9881
10.994
7.23759
4.57413
2.79013
1.65521
1840.02
1047.38
471.331
207.528
77.3137
23.5627
7.02878
2.08999
0.654608
0.216452
0.0814609
1942.45
1129.93
654.791
345.01
162.764
64.0628
18.2752
3.80021
1.04683
0.328442
0.114581
1046.35
931.823
674.705
417.182
228.955
107.671
39.5001
9.76994
1.85685
0.527286
0.177331
544.504
1007.99
717.995
469.101
279.048
146.021
63.1054
20.1349
4.37965
0.891191
0.289123
597.228
838.752
739.607
509.255
318.283
178.393
85.8661
32.7882
9.07298
1.91315
0.470683
610.704
673.77
771.869
567.893
360.461
208.565
107.283
46.2876
15.5061
3.92032
0.930365
548.236
489.76
698.631
647.54
420.16
242.991
128.57
59.8827
23.0236
6.94882
1.80856
506.969
401.678
578.187
691.767
495.988
286.811
151.639
73.3787
30.9621
10.7754
3.17845
476.674
349.919
481.631
674.131
577.783
343.013
178.703
87.161
38.9065
15.0719
5.02398
452.549
312.752
416.11
608.432
634.473
406.659
210.327
101.513
46.604
19.5119
7.24505
432.613
280.769
367.159
539.633
648.079
464.742
243.825
115.989
53.8063
23.8191
9.70147
415.964
254.732
326.228
473.896
617.021
503.79
272.945
128.55
59.8557
27.6731
12.1872
405.941
233.245
289.844
413.508
559.425
513.554
290.522
136.557
63.9962
30.8038
14.5477
402.791
216.024
256.983
356.521
489.835
494.191
292.022
137.951
65.6744
33.0647
16.7641
409.887
205.81
229.636
302.865
412.26
452.877
275.431
131.699
64.8471
34.4984
18.8542
425.602
200.68
207.161
255.037
324.4
379.34
247.727
118.928
61.8454
35.4648
20.9423
448.432
198.583
185.435
209.625
247.28
271.939
216.879
105.335
58.4131
36.6249
23.2826
483.595
201.867
166.443
168.585
182.74
192.344
174.18
99.7384
56.92
39.0796
26.5576
543.379
215.526
154.995
138.144
137.987
142.887
140.012
102.152
61.9604
45.0562
31.798
656.043
249.699
159.776
125.207
115.071
118.37
123.26
111.152
78.1729
55.8369
39.4637
903.569
337.817
213.943
159.985
135.492
129.463
129.594
122.825
96.6202
69.1447
47.5425
1529.98
600.578
450.21
363.23
295.556
251.177
196.015
151.901
108.382
74.0825
48.1162
1106.67
570.086
539.639
389.568
282.079
201.118
137.812
92.7268
60.8044
38.9731
24.3493
1076.5
567.967
329.431
204.025
131.138
85.506
55.592
35.6432
22.383
13.7359
8.22382
76.8334
73.0733
64.9507
54.294
38.5892
17.2432
3.39513
3.01449
3.47325
23.3806
22.6161
21.7302
21.6714
19.6933
13.4466
5.9275
2.24999
2.31345
12.3885
11.7229
11.5474
12.8669
13.8355
11.2806
5.82808
2.45219
2.57266
7.07917
6.87931
6.84788
7.95524
9.52373
8.94619
5.40169
2.5507
2.90592
78.444
76.0375
76.9009
72.7531
64.1371
54.1052
40.308
22.1772
5.78615
24.2367
25.1776
24.6933
23.9662
22.9149
22.7577
21.2724
17.1779
8.86393
13.0922
13.7069
13.094
12.2086
12.1576
13.4422
14.9448
14.5055
9.05142
7.43205
7.93175
7.49187
6.93123
7.25615
8.24723
9.90676
11.0878
8.4176
0.00901793
0.00829356
0.00834682
0.0425827
0.433588
0.00755219
0.128639
0.00809495
0.00752769
0.00694725
0.438548
0.00813207
0.0101473
0.0051229
0.0146144
0.00728534
0.00525655
0.0386556
0.00724926
0.00710255
0.00663517
0.0619014
0.0085219
0.067672
0.00792282
0.00510072
0.00976173
0.120254
1.22747
0.348538
0.00596242
0.00643187
0.00575826
0.00806729
0.00680378
0.00826342
0.0628504
0.00790634
0.00619203
0.00757959
0.193342
0.00809897
0.0150202
0.00849742
0.743822
0.248031
0.0169678
0.353846
0.00692134
0.00736426
0.334291
0.00759787
0.044814
0.0154906
0.00734577
0.00666266
0.0588474
0.0076177
1.26088
0.0218807
0.0962142
0.0441748
0.493348
0.0742291
0.210042
0.00714167
0.298251
0.00720544
0.00829573
0.00693437
0.00518077
0.00721901
0.030458
0.00804016
0.0498735
0.00714571
0.0742122
0.00828164
0.061503
1.12026
0.337485
0.0534655
0.00793255
0.00838125
0.00695551
0.0315669
2.08334
0.0414352
0.0213937
0.0674814
0.00809366
0.007652
0.206575
0.00743254
1.05139
0.656631
0.025993
0.00595371
0.0271129
0.00740026
0.00781962
0.322461
0.00680608
0.00615624
0.0170345
0.00812484
0.00453875
0.00845329
0.0114652
0.00668128
0.00796858
0.00815106
0.00724418
0.0262967
0.0334665
0.00769108
0.0075391
0.00732351
0.0079297
0.00673598
0.0225347
0.007801
0.00972586
0.00468164
0.228986
0.00706502
0.353025
0.00470906
0.00546919
0.00742423
0.0077801
0.022139
0.330831
0.00715621
0.00834062
0.00800659
0.0616923
0.0271844
0.366464
0.00732197
0.0139723
0.00659824
0.235198
0.00867999
0.0075132
0.0263306
0.0149641
0.00720608
0.00714494
0.00706505
0.007171
0.00766398
0.0297955
0.00778279
0.0404169
0.0111405
0.0359557
0.0421411
0.00548862
0.00747652
0.00549058
0.0367867
0.00720587
0.00771937
0.337407
0.0173948
0.0221062
0.0070095
0.00686524
0.204812
0.0052886
0.0054569
0.00834438
0.00645516
0.00641959
0.00641397
0.0064624
0.0308582
0.759581
0.00695746
0.00719771
0.067782
0.00849716
0.104214
0.00794474
0.0512857
0.00708218
0.00727342
0.00824898
0.0885071
0.0106806
0.00523569
0.00718794
0.188754
0.0083235
0.00760917
0.00744182
0.0280518
0.00792615
0.00856745
0.0260169
0.00734514
0.00980031
0.00632553
0.008386
0.0426703
0.00739853
0.00544272
0.00741308
0.00740803
0.0871776
0.00759167
0.00827371
0.00673178
0.00791263
0.0303335
0.00797952
0.0258621
0.00715416
0.0110441
0.00676937
0.0249834
0.0275654
0.0347706
0.0045644
0.00763384
0.0694866
0.0166123
0.00954932
0.201418
0.0423869
0.0071352
0.00714332
0.00775341
0.0295559
1.70541
0.303354
0.00845029
0.00814898
0.00810588
0.025535
0.215526
0.00612521
0.165223
0.00818891
0.0429071
0.00800544
0.00663424
0.461202
0.47001
0.00659955
0.0869157
0.00993702
0.00726971
0.00601655
0.00747013
0.00672732
0.0078587
0.0192649
0.00705702
0.00911475
0.00955646
0.00738211
0.00819967
0.00796207
0.0165764
0.00659179
0.007957
0.0176226
0.00694292
0.194226
0.00731611
0.00732071
0.0164006
0.00756751
0.00736597
0.00488953
0.00776293
0.00690807
0.0210261
0.0073169
0.00829072
0.339635
0.268912
0.00602744
0.0075942
1.4266
0.00825193
0.00682778
0.0130493
0.00835174
0.115535
0.00717782
0.00766825
0.00856522
0.0074391
0.00676481
0.00816565
0.00681071
0.00496029
0.007757
0.0141145
0.00708836
0.358688
0.00676416
0.00667594
0.00828496
0.06442
0.0652193
0.00744181
0.0858967
0.00817041
0.00645723
0.00565543
0.0811004
0.00655343
0.00703866
0.0172692
0.00671156
0.00776924
0.00707907
0.22287
0.00746388
0.00541341
0.0313882
0.00681204
0.00778223
0.00592111
0.00709046
0.072762
0.00719997
0.50812
0.0707875
0.0084648
0.0113671
0.724088
0.0348767
0.00824266
0.00785134
0.00588654
0.0270379
0.0798633
0.00731036
0.017353
0.174064
0.0658532
0.025038
0.00753573
0.0579421
0.394633
0.114415
0.00580065
0.00700576
0.00682009
0.013083
0.00860274
0.00692739
0.00695762
0.00850157
0.141604
0.00986191
0.00524923
0.00800588
0.00798802
0.00729014
0.0208424
0.00511722
0.00947359
0.148563
0.00819993
0.00774072
0.100929
0.577396
0.00500964
0.0124952
0.00832172
0.00904966
0.00675911
0.00752796
0.00708949
0.213179
0.00756087
0.024893
0.00765665
0.00520592
0.377754
0.0162906
0.00454505
0.210999
0.0243761
0.00769809
0.0534302
0.00451555
0.00795526
0.345428
0.215768
0.00787065
0.00721133
0.00836744
0.0248699
0.0190294
0.00764713
0.00850601
0.0130544
0.00587482
0.206696
0.0568323
0.0239263
0.00733622
0.22036
0.00689595
0.00720115
0.00829318
0.00795991
0.0355136
0.00639782
0.0107654
0.0084723
0.00530591
0.0422302
0.261302
0.00687251
0.158777
0.0103716
0.00628248
0.00664823
0.0079427
0.0274607
0.0101649
0.215641
0.00789701
0.0247983
0.00509934
0.00663269
0.00692818
0.00779443
0.133483
0.350199
0.0047162
0.00860027
0.0059564
2.09341
0.0329756
0.0156963
0.00681845
0.00930914
0.0235637
0.0410202
0.00742106
0.0364992
0.00773763
0.00833629
0.0079398
0.0323414
0.0174218
0.16518
0.00529019
0.0278036
0.0266936
0.00825587
0.00740536
0.371294
0.00544877
0.00598985
0.00687213
0.139363
0.113138
0.0902244
0.0916648
0.00721584
0.00657408
0.019881
0.00698004
0.0963033
0.00684077
0.00824013
0.00734832
0.0347654
0.0338235
0.00710848
0.00778157
0.00668412
0.16416
0.0694913
0.00845591
0.0256851
0.272504
0.00941147
0.00831112
0.0074111
0.0277883
0.00760158
0.0068436
0.00761906
0.00654943
0.00648188
0.00715415
0.00541941
0.0085344
0.00792641
0.00563733
0.00588521
0.00807305
0.00806405
0.513945
0.00857656
0.0216521
0.00719547
0.291061
0.00835793
0.170759
0.0161175
0.0260424
0.0147527
0.00795489
0.28382
0.0225339
0.00539703
0.00778468
0.00635397
0.00667623
0.00828474
0.00769502
0.0081906
0.00676523
0.194351
0.00799399
0.00745646
0.0653806
0.00772969
0.187202
0.00661971
0.0480522
0.00564749
0.0210327
0.00856502
0.00786442
0.00841612
0.184429
0.0348156
0.00795115
0.0079099
0.00466019
0.00834961
0.0300953
0.00831477
0.110122
0.00681102
0.0455739
0.00662349
0.00837599
0.270643
0.183348
0.00679381
0.00657678
0.00710907
0.00831219
0.00778425
0.0395581
0.00721205
0.00693112
0.477381
0.967475
0.00791757
0.00736348
0.00828349
0.0234023
0.362626
0.0188205
0.00808832
0.00751877
0.277681
0.00727017
0.00741895
0.0058279
0.0308897
0.328029
0.00771034
0.021037
0.00782105
0.0210104
0.00738951
0.0390367
0.00677549
0.00643216
0.0855921
0.0235912
0.00842486
0.00854804
0.995722
0.00763846
0.00617103
0.0714636
0.022503
0.0240531
0.0269205
0.00747475
0.00692714
0.00773064
0.00790794
0.534708
0.0156635
0.0126143
0.0071111
0.00794838
0.0455738
0.00702854
0.007667
0.00684068
0.00713136
0.0076019
0.0131388
0.0215515
0.018096
0.00620926
0.0107229
0.00724631
0.0370767
0.00711129
0.00778583
0.481199
0.127312
0.00755265
0.00757671
0.0603623
0.00676583
0.00738642
0.019453
0.00831627
0.00673688
0.00995911
0.00723901
0.00828264
0.0048885
0.00632363
0.0402781
0.128114
0.0332554
0.0230264
0.00627154
0.0223368
0.0404061
0.00855203
0.00836477
0.00679221
0.0314139
0.00606559
0.00695687
0.00714616
0.00512023
0.0142716
0.439089
0.00607873
0.00937523
0.00769023
0.01286
0.00811868
0.0072451
0.00692823
0.013091
0.00703431
0.00721805
0.00684313
0.00826364
0.123195
0.0542513
0.190179
0.00710952
0.00698458
0.00754859
0.0137582
0.00764563
0.135687
0.00720986
0.148541
0.174095
0.00770683
0.00817282
0.00849842
0.00575922
0.0989018
0.00761756
0.421861
0.00555983
0.00666453
0.00841771
0.0123879
0.0054678
0.0333153
0.388385
0.00750845
0.00641606
0.00840423
0.00784531
0.00690589
0.0220851
0.00813717
0.00761367
0.00762368
0.00982817
0.0167193
0.00816099
0.00841033
0.00751172
0.0158942
0.00552432
0.00648062
0.0746575
0.145085
0.0070977
0.00632769
0.00590966
0.00831665
0.0259498
0.00553626
0.140011
0.00783873
0.00648262
0.0079092
0.00716802
0.0801305
0.00835192
0.0291216
0.00511346
0.00727794
0.00673059
0.0067096
0.0275906
0.00823726
0.239913
0.0117172
0.101412
0.00663103
0.0102547
0.0170055
0.0239539
0.00766547
0.00866186
0.0346099
0.0151196
0.00803122
0.00526704
0.466716
0.00811554
0.17816
0.0100026
0.00835028
0.117132
0.00754501
0.0068573
0.0068125
0.00851379
0.00734167
0.00507202
0.00819332
0.00578437
0.00714304
0.00732107
0.00853749
0.0997613
0.0110433
0.0072335
0.11992
0.242505
0.00782016
0.0049431
0.00710451
0.0104087
0.00987193
0.0435392
0.00704779
0.032482
0.00666154
0.00879086
0.00721607
0.00692775
0.00765635
0.0242441
0.0553055
0.00860664
0.00789226
0.0074054
0.281317
0.209166
0.00743173
0.00820664
0.00666069
0.0074113
0.00813878
0.0082161
0.00837968
0.00787642
0.00784622
0.00623954
0.0501798
0.0825001
0.00477017
0.00715289
0.00770596
0.00793279
0.00671348
0.134405
0.00827562
0.00629967
0.0077788
0.276297
0.0733903
0.0406684
0.00779209
0.0300905
0.00771803
0.0078166
0.217388
0.00714982
0.00816796
0.00719037
0.0310525
0.00601192
0.0059247
0.00813936
0.0106048
0.173492
0.0338561
0.00816257
0.00443004
0.0100889
0.0173803
0.0352
0.00843064
0.00719351
0.0384907
0.0122291
0.0101153
0.00829347
0.0068482
0.00814667
0.00737405
0.00825774
0.0253062
0.00631646
0.17619
0.226415
0.0123911
0.00810628
0.427937
0.00853328
0.00719908
0.00976757
0.00789564
0.00766123
0.00766237
0.0165154
0.037751
0.0113965
0.00765116
0.0287445
0.0076894
0.00859817
0.00737122
0.00756376
0.00716907
0.00792734
0.00815005
0.00732903
1.75496
0.00754357
0.0071279
0.00777111
0.164701
0.00713853
0.00796677
0.036465
1.61558
0.00696951
0.00768378
0.00944191
0.0326958
0.0084684
0.00808525
0.00680295
0.00860362
0.0175338
0.00828513
0.0633733
0.00775811
0.130671
0.00650495
0.00821599
0.00577733
0.0288535
0.00774876
0.0077136
0.00723708
0.00831816
0.00591433
0.200723
0.00665154
0.0178919
0.19149
0.0109636
0.00604043
0.0427637
0.00851223
0.0081457
0.00567039
0.00619873
0.00573595
0.00760013
0.260385
0.00725108
0.0105313
0.00731174
0.00490405
0.00536162
0.0220206
0.00637674
0.00693872
0.00804214
0.458078
0.0618851
0.33854
0.0065808
0.00895573
0.00691524
0.00776816
0.26124
0.00753907
0.00830456
0.00611057
0.208387
0.104173
0.037634
0.00586077
0.00523279
0.0312055
0.639112
0.00801518
0.00699271
0.361394
0.00760576
0.0209746
0.00792186
0.056562
0.00672545
0.0215899
0.00830446
0.00739702
0.00845227
0.00762929
0.0107126
0.0502267
0.00711078
0.00780699
0.00731689
0.00955519
0.00852873
0.0393123
0.00748803
0.00687269
0.207405
0.0240919
0.0442398
0.00832573
0.0310684
0.00598546
0.00829099
0.0259747
0.00646284
0.0194744
0.279535
0.00609343
0.0132024
0.00653385
0.00741885
0.0184279
0.0118647
0.007006
0.0369733
0.00813384
1.60516
0.0306407
0.707549
0.00812849
0.0214231
0.075032
0.370585
0.00846107
0.00538677
0.00855556
0.0044011
0.186711
0.00815824
0.00890778
0.0275755
0.0331371
0.129313
0.00676227
0.00778217
0.00736429
0.0453086
0.00684185
0.201234
0.00782696
0.0467538
0.349206
0.00829201
0.0163886
0.0338315
0.0296996
0.0565219
0.00935824
0.00758143
0.0114713
0.00490751
0.00809947
0.0078187
0.0085649
0.042452
0.00660029
0.0083277
0.00554771
0.0115003
0.00495761
0.00802321
0.103244
0.0144389
0.00689174
0.00925882
0.00813784
0.00708137
0.00733485
0.206785
0.00705881
0.0248464
0.00615889
0.0261652
0.00796374
0.00694763
0.00795989
0.00753459
0.0251743
0.191409
0.0136718
0.667106
0.213782
0.655014
0.00687857
0.00725555
0.0138619
0.00838927
0.00638202
0.0365452
0.00690695
0.104791
0.00607182
0.378808
0.00683034
0.00459742
0.00811841
0.469575
0.00862539
0.487393
0.00666722
0.00823478
0.045009
0.0362566
0.00676094
0.0183268
0.0101632
0.0625644
0.0720623
0.0199356
0.238696
0.00737011
0.0224873
0.251583
0.0131981
0.00833136
0.00589307
0.00817892
0.00503763
0.00549142
0.0371227
0.00773217
0.0145354
0.658058
0.0075275
0.00721439
0.00688679
0.00819342
0.00749825
0.00545392
0.00701825
0.00584346
0.311511
0.0072283
0.62888
0.0712219
0.00765294
0.150106
0.0503689
0.0168351
0.00670468
0.127748
0.00768815
0.00803739
0.347562
0.00752221
0.00824545
0.0054636
0.00809722
0.00770755
0.389955
0.00781856
0.568247
0.0133013
0.0358027
0.00723093
0.0124104
0.0171688
0.00573978
0.234865
0.0077644
0.00791978
0.0283654
0.00597606
0.00793429
0.0304129
0.0164975
0.00747217
0.140421
0.0629501
0.00644664
0.00733718
0.0293153
0.00694439
0.0159094
0.0261818
0.281945
0.00711864
0.00860329
0.00796788
0.00622386
0.00616991
0.00496183
0.0370149
1.31401
0.00805087
0.0240086
0.0280456
0.00820817
0.0359597
0.00709254
0.00696745
1.05252
0.044425
0.310006
0.204386
0.0081632
0.00792978
0.0224716
0.298156
0.181453
0.244429
0.00486022
0.00817748
0.00718154
0.00580998
0.264422
0.0464077
0.00749879
0.00739799
0.028002
0.0205429
0.0459108
0.0067749
0.066347
0.242647
0.00638433
0.00558283
0.00727718
0.00718017
0.286564
0.00517553
0.00702559
0.0151234
0.00776553
0.00636631
0.367807
0.0701935
0.00928162
0.0989262
0.00836982
0.0075153
0.195059
0.0701893
0.00836222
0.0044478
0.0101254
0.00661295
0.460715
0.00806537
0.00769052
0.00704237
0.155743
0.00619774
0.00746021
0.0237304
0.00833847
0.00814898
0.00859551
0.00484147
0.00770582
0.0234336
0.0178751
0.00814575
0.406987
0.0358813
0.00655567
0.032417
0.00732079
0.00516961
0.0322862
0.00802402
0.0081661
0.00788475
0.00616702
0.00793586
0.00719147
0.00793998
0.049755
0.0202562
0.00550478
0.0116713
0.00691402
0.0688618
0.0178563
0.00855538
0.00670464
0.0158912
0.0053364
0.00674759
0.00641105
0.00666158
0.00685007
0.00795336
0.0404316
0.160594
0.0240702
0.05639
0.00859361
0.00731923
0.38963
0.0164187
0.0103386
0.0076001
0.0336975
0.0285326
0.154079
0.00452185
0.0148517
0.0339655
0.0055739
0.00795334
0.913256
0.00478925
0.00674152
0.0351647
0.0335131
0.00583626
0.0148006
0.0637861
0.00439058
0.601973
0.423461
0.00789913
0.00718302
0.02433
0.1515
0.010452
0.00811622
0.00697453
0.00839065
0.00750372
0.0783214
0.00761774
0.0084623
0.13474
0.0175418
0.00734395
0.00770361
0.00757168
0.00672272
0.00858064
0.00727489
0.00928543
0.00703856
0.00879256
0.00804063
0.0360015
0.00819109
0.0214719
0.00770403
0.0209451
0.0083879
0.00770107
0.0616365
0.45301
0.00705174
0.00780587
0.00651403
0.0159761
0.00826551
0.00872827
0.00672682
0.00742213
0.00619935
0.00773689
0.0320778
0.00512174
0.0486477
0.00848413
0.0710398
0.00788832
0.00669263
0.00883062
0.00837268
0.00801875
0.40856
0.00759433
0.0267147
0.00790125
0.00799667
0.453028
0.00845232
0.00855395
0.128462
0.251591
0.0252684
0.00756231
0.0199038
0.00789073
0.0297753
0.00891099
0.133571
0.0074123
0.00624046
0.0233309
0.00763296
0.0321275
0.00703767
0.0153485
0.0280285
0.00815382
0.0147261
0.00764959
0.145828
0.0083554
0.0050302
0.0141103
0.00642526
0.00596396
0.00840154
0.0104262
0.0309249
0.0075268
0.00811353
0.0155676
0.00681321
0.00681361
0.00690784
0.00542818
0.00789513
0.0306476
0.0309046
0.00732404
0.0175945
0.0079812
0.0072796
0.00701688
1.17621
0.00893978
0.00745715
0.154695
0.0321516
0.00820944
0.00706134
0.0289711
0.0105724
0.006613
0.00727711
0.0115581
0.0366079
0.00754412
0.00693578
0.0750088
0.00715001
0.00830213
0.00733504
0.0069353
0.00794297
0.0164437
0.00764388
0.0128406
0.00566831
0.0134094
0.00813184
0.00506066
0.0320749
0.00690725
0.015555
0.00765755
0.00733868
0.0394665
0.0136555
0.00541521
0.00845813
0.00743525
0.239207
0.00748202
0.00698045
1.70872
0.00673454
0.00710536
0.00699395
0.00699223
0.00646807
0.00631595
0.0149301
0.00509076
0.0189542
0.00709828
0.00758925
0.0154516
0.00443647
0.00748389
0.00645865
0.00562596
0.00730877
0.217318
0.00855666
0.0175851
0.00748892
0.00689132
0.00648412
0.00701264
0.0124532
0.00795523
0.00721501
0.00673297
0.00756677
0.00837761
0.0259847
0.0241189
0.0802346
0.0104938
0.0158084
0.0067304
0.00756624
0.00746696
0.233656
0.0072571
0.00571331
0.345804
0.00684996
0.199665
0.118836
0.00684682
0.00810037
0.0071726
0.00534539
0.00486931
0.00681301
0.00805313
0.0166073
0.0378594
0.00444252
0.0350122
0.00780801
0.0426371
0.0160046
0.952508
0.00919233
0.011654
0.00453935
0.00828647
0.00690237
0.0257513
0.00790238
0.0115031
0.00481622
0.00733903
0.00525274
0.0366461
0.0152198
0.0249618
0.1904
0.00780431
0.326116
0.00739736
0.00649592
0.00602867
0.0145642
0.00840522
0.568182
0.00781468
0.303304
0.317459
0.00505132
0.0655549
0.0335687
0.384795
0.00740036
0.00789496
0.00741758
0.00726685
0.00766011
0.00621036
0.00701603
0.0218406
0.00780037
0.275115
0.0166287
0.00764121
0.00818101
0.00954569
0.0678442
0.00813357
0.00846129