/*--------------------------------*- C++ -*----------------------------------*\
| =========                 |                                                 |
| \\      /  F ield         | OpenFOAM: The Open Source CFD Toolbox           |
|  \\    /   O peration     | Version:  3.0.1                                 |
|   \\  /    A nd           | Web:      www.OpenFOAM.org                      |
|    \\/     M anipulation  |                                                 |
\*---------------------------------------------------------------------------*/
FoamFile
{
    version     2.0;
    format      ascii;
    class       volScalarField;
    location    "0.922446";
    object      p;
}
// * * * * * * * * * * * * * * * * * * * * * * * * * * * * * * * * * * * * * //

dimensions      [0 2 -2 0 0 0 0];

internalField   nonuniform List<scalar> 
21246
(
-1.00657
1.72466
2.46332
2.48687
2.22185
1.87937
1.54591
1.24046
0.963534
0.726903
0.580631
-15.3715
-7.47428
-4.20937
-1.9832
-0.627878
0.0173691
0.268705
0.322062
0.279014
0.199154
0.152138
-17.1252
-12.1969
-9.73071
-6.7282
-4.22133
-2.51949
-1.47418
-0.885152
-0.575822
-0.418009
-0.311056
-14.1322
-12.5167
-11.5155
-9.21177
-6.85812
-4.84055
-3.28698
-2.22137
-1.54079
-1.11571
-0.832377
-10.9403
-10.7155
-10.5594
-9.34512
-7.80643
-6.1437
-4.60029
-3.35376
-2.43762
-1.79692
-1.33021
-8.7284
-8.8074
-8.85864
-8.31673
-7.49037
-6.3824
-5.16988
-4.03847
-3.09093
-2.3541
-1.77802
-7.08326
-7.2459
-7.30096
-7.06291
-6.64492
-5.9754
-5.13727
-4.25385
-3.42458
-2.71261
-2.10894
-5.83427
-5.95871
-5.9955
-5.90732
-5.70727
-5.31981
-4.775
-4.13721
-3.47676
-2.86279
-2.29545
-4.99175
-4.98678
-4.98821
-4.95785
-4.86354
-4.64129
-4.2947
-3.85014
-3.348
-2.84618
-2.35111
-4.49078
-4.35856
-4.32252
-4.28111
-4.20724
-4.0591
-3.82584
-3.51128
-3.13304
-2.73221
-2.31002
-4.21616
-3.98592
-3.92236
-3.83339
-3.73745
-3.60794
-3.42666
-3.18731
-2.89387
-2.57328
-2.22558
-4.05853
-3.78035
-3.65656
-3.52238
-3.39739
-3.26394
-3.10215
-2.9021
-2.66088
-2.39486
-2.10386
-3.9322
-3.63425
-3.47648
-3.30579
-3.15162
-3.00503
-2.84615
-2.66262
-2.44827
-2.21249
-1.95493
-3.81698
-3.51866
-3.34519
-3.15755
-2.98313
-2.8223
-2.65727
-2.47407
-2.26582
-2.03961
-1.80157
-3.73253
-3.4397
-3.25951
-3.06261
-2.87372
-2.70093
-2.526
-2.33303
-2.11526
-1.88109
-1.64393
-3.6872
-3.40398
-3.22509
-3.0271
-2.82869
-2.64599
-2.45347
-2.23876
-1.99551
-1.73581
-1.48067
-3.67618
-3.40662
-3.23447
-3.04369
-2.84561
-2.64771
-2.43449
-2.18643
-1.90212
-1.60036
-1.3043
-3.69007
-3.43749
-3.27498
-3.09378
-2.89808
-2.68886
-2.44727
-2.15659
-1.82255
-1.47486
-1.14723
-3.71778
-3.48637
-3.33736
-3.16771
-2.97345
-2.74698
-2.46761
-2.12584
-1.74137
-1.35529
-1.00666
-3.74906
-3.54133
-3.41022
-3.25297
-3.05442
-2.79905
-2.46903
-2.07078
-1.64619
-1.24444
-0.889307
-3.75703
-3.58738
-3.48269
-3.33868
-3.12782
-2.82976
-2.43906
-1.98573
-1.53875
-1.1543
-0.82849
-3.68433
-3.62114
-3.56498
-3.4233
-3.18012
-2.83293
-2.39008
-1.89209
-1.43992
-1.10782
-0.890918
-3.7914
-3.85038
-3.7687
-3.57379
-3.29318
-2.91586
-2.4362
-1.90312
-1.42508
-1.11529
-0.935661
-4.27177
-3.81148
-3.52534
-3.28433
-2.97499
-2.54369
-2.00077
-1.47173
-1.1406
-1.07917
-1.19137
14.8384
10.5372
7.51345
5.54517
4.20231
3.26224
2.56339
2.01062
1.55497
1.18921
0.936396
11.9792
11.7203
10.0686
8.11283
6.31204
4.85022
3.71106
2.83982
2.15302
1.63148
1.28918
7.75763
8.98379
8.97837
8.29681
7.07861
5.69844
4.43608
3.40584
2.58431
1.95254
1.53396
3.99148
5.92895
6.58609
6.81783
6.42815
5.62403
4.6523
3.69333
2.83915
2.1489
1.69515
1.31393
3.17363
3.98203
4.73515
5.03852
4.85409
4.31062
3.58379
2.84435
2.19659
1.74978
-0.472139
1.08867
1.77702
2.68393
3.28874
3.55443
3.46122
3.07899
2.56987
2.05361
1.67544
-1.65508
-0.37029
0.138108
1.01804
1.69256
2.17013
2.38522
2.29386
2.04702
1.71138
1.4424
-2.4089
-1.36047
-1.02808
-0.225278
0.400693
0.938295
1.29584
1.44131
1.39952
1.23924
1.08989
-2.99952
-2.06855
-1.89606
-1.13263
-0.609892
-0.0679124
0.349308
0.619217
0.729275
0.71302
0.671778
-3.51772
-2.67675
-2.53311
-1.8631
-1.38714
-0.875412
-0.44119
-0.107703
0.102995
0.19758
0.246614
-3.92087
-3.29303
-3.01272
-2.45662
-2.00876
-1.52235
-1.08904
-0.723126
-0.448263
-0.271838
-0.153776
-4.20707
-3.68599
-3.41108
-2.91961
-2.50066
-2.03983
-1.61451
-1.23318
-0.918129
-0.683608
-0.516059
-4.46378
-3.98006
-3.72585
-3.27731
-2.88359
-2.44709
-2.03315
-1.64683
-1.30843
-1.03019
-0.811545
-4.71019
-4.22526
-3.97528
-3.55255
-3.17702
-2.7607
-2.3586
-1.97359
-1.62445
-1.32295
-1.06649
-4.81844
-4.37633
-4.15055
-3.75429
-3.39478
-2.99565
-2.60433
-2.2236
-1.87114
-1.55854
-1.28392
-4.88761
-4.47735
-4.2673
-3.89398
-3.54684
-3.16217
-2.77948
-2.40393
-2.05276
-1.73791
-1.46058
-4.9461
-4.54922
-4.34064
-3.98275
-3.64146
-3.26669
-2.88981
-2.51938
-2.17274
-1.86165
-1.58713
-4.95024
-4.57179
-4.36506
-4.02096
-3.68109
-3.31166
-2.9378
-2.57212
-2.23306
-1.93455
-1.67927
-4.90371
-4.54548
-4.33918
-4.00674
-3.66455
-3.29634
-2.92343
-2.56237
-2.2333
-1.95265
-1.72566
-4.82122
-4.47747
-4.26436
-3.93801
-3.58919
-3.21893
-2.84627
-2.49016
-2.17297
-1.91511
-1.72394
-4.69419
-4.35889
-4.13179
-3.8066
-3.45028
-3.0789
-2.70845
-2.35773
-2.05285
-1.82033
-1.66876
-4.49615
-4.16611
-3.91624
-3.59251
-3.23877
-2.8756
-2.51165
-2.16517
-1.8707
-1.66467
-1.56115
-4.28499
-3.90607
-3.63374
-3.33725
-3.01367
-2.67126
-2.31058
-1.95819
-1.66424
-1.47487
-1.4234
-3.57156
-3.26327
-3.04258
-2.82652
-2.57645
-2.27547
-1.93086
-1.59918
-1.33164
-1.14248
-1.14747
1.23759
1.00526
0.938563
0.931208
0.942242
0.962035
0.970264
0.957007
0.926446
0.890221
0.889014
2.67282
2.3053
1.94708
1.70994
1.556
1.44883
1.36423
1.28605
1.20664
1.13283
1.09107
2.56979
2.53802
2.36497
2.17479
1.99777
1.84004
1.69984
1.57059
1.4468
1.33774
1.27826
2.22157
2.32535
2.32345
2.2573
2.15655
2.03645
1.90376
1.76622
1.63565
1.5241
1.45041
1.95093
2.10392
2.15824
2.17804
2.16398
2.11243
2.02857
1.92438
1.80777
1.6893
1.60081
1.74597
1.92172
1.99839
2.0686
2.11131
2.11687
2.08328
2.01363
1.91364
1.7987
1.70454
1.55876
1.75362
1.814
1.91132
1.99175
2.04094
2.05028
2.01755
1.94633
1.84965
1.76192
1.4324
1.57437
1.65435
1.75324
1.84648
1.92
1.96081
1.96128
1.9207
1.85116
1.79001
1.32316
1.44773
1.52393
1.61583
1.70896
1.79085
1.8487
1.87234
1.85691
1.81095
1.76977
1.22224
1.34302
1.41415
1.49943
1.58819
1.67016
1.73444
1.77106
1.77324
1.74597
1.72051
1.14507
1.25807
1.32211
1.40027
1.48265
1.56063
1.62514
1.66737
1.68009
1.66668
1.65959
1.09989
1.19695
1.24927
1.31742
1.39074
1.46154
1.5221
1.56484
1.58294
1.57849
1.58207
1.05565
1.1421
1.18562
1.24439
1.30779
1.36955
1.42332
1.46298
1.48281
1.48461
1.49844
1.00217
1.0849
1.12277
1.1734
1.22699
1.2788
1.32397
1.35796
1.37633
1.38013
1.39849
0.971419
1.0382
1.06351
1.10243
1.14401
1.1841
1.2189
1.24547
1.26121
1.26733
1.29095
0.932507
0.984255
0.99785
1.02422
1.05216
1.07874
1.1016
1.11984
1.13307
1.14255
1.17494
0.869104
0.911712
0.916191
0.929781
0.942617
0.954045
0.963968
0.974197
0.987001
1.00324
1.04549
0.805959
0.830284
0.818368
0.81358
0.807056
0.800711
0.797227
0.801718
0.819086
0.849309
0.909288
0.724699
0.725643
0.691428
0.661994
0.631117
0.605092
0.590617
0.595509
0.626258
0.679662
0.765437
0.607408
0.578442
0.516574
0.456862
0.397655
0.351712
0.332478
0.350076
0.408285
0.497244
0.610224
0.437775
0.365812
0.268009
0.174021
0.0862223
0.0267831
0.0170024
0.0665621
0.171129
0.314051
0.460438
0.201939
0.0368034
-0.090951
-0.215912
-0.324813
-0.3797
-0.353285
-0.24525
-0.0779095
0.111618
0.323507
-0.423033
-0.461621
-0.600925
-0.74567
-0.851832
-0.861398
-0.755799
-0.556529
-0.304679
-0.039981
0.213845
0.477316
-0.608186
-1.03451
-1.28436
-1.38025
-1.31212
-1.10368
-0.808593
-0.478721
-0.153313
0.138379
-2.85853
-0.952595
-0.170718
0.104136
0.330655
0.506724
0.595019
0.629793
0.641943
0.632385
0.650496
-2.49573
-1.68382
-1.20435
-0.890015
-0.548583
-0.227907
0.0160116
0.18642
0.281616
0.32648
0.387242
-1.76176
-1.75023
-1.64174
-1.48912
-1.2865
-1.02565
-0.730849
-0.447194
-0.221247
-0.0718688
0.0490047
-2.23993
-2.08873
-1.97437
-1.90522
-1.85926
-1.75567
-1.54053
-1.23375
-0.904333
-0.622038
-0.375786
-2.83149
-2.70643
-2.54174
-2.44169
-2.45151
-2.47792
-2.40187
-2.15693
-1.77836
-1.36361
-0.966091
-3.51934
-3.46887
-3.34402
-3.23847
-3.22233
-3.32141
-3.37809
-3.2412
-2.86656
-2.33364
-1.7543
-4.21699
-4.27702
-4.23686
-4.23083
-4.2653
-4.39828
-4.55585
-4.53035
-4.19285
-3.56975
-2.78137
-4.89244
-5.06951
-5.12502
-5.25976
-5.45435
-5.68594
-5.95084
-6.03367
-5.74947
-5.05979
-4.10011
-5.50395
-5.79497
-5.94411
-6.22663
-6.59527
-7.03403
-7.44642
-7.68275
-7.47038
-6.70404
-5.47584
-5.97918
-6.40152
-6.63389
-7.06233
-7.60374
-8.25047
-8.90622
-9.36691
-9.24434
-8.42426
-6.97661
-6.23927
-6.84118
-7.12976
-7.69241
-8.39329
-9.23824
-10.1568
-10.8228
-10.8534
-10.0008
-8.34596
-6.39538
-7.02161
-7.39595
-8.06571
-8.8807
-9.8663
-10.9574
-11.8467
-12.0915
-11.202
-9.40629
-6.35194
-6.95907
-7.43301
-8.13631
-9.02313
-10.0814
-11.236
-12.2878
-12.6682
-11.7549
-9.69617
-6.04138
-6.62733
-7.15473
-7.87665
-8.78683
-9.86243
-11.0165
-12.0613
-12.361
-11.5385
-9.49006
-5.50785
-6.02503
-6.55054
-7.25204
-8.13878
-9.17919
-10.2632
-11.1451
-11.3246
-10.5557
-8.69812
-4.72952
-5.15714
-5.6477
-6.30383
-7.13652
-8.09436
-9.02948
-9.6928
-9.7761
-8.95432
-7.28904
-3.71172
-4.06555
-4.52496
-5.14707
-5.93215
-6.8002
-7.5692
-7.9946
-7.84787
-6.96449
-5.5333
-2.55
-2.89139
-3.36963
-4.00093
-4.76249
-5.54505
-6.14071
-6.30601
-5.87432
-4.87958
-3.61214
-1.50506
-1.94567
-2.519
-3.18913
-3.92232
-4.60358
-5.01304
-4.90839
-4.19503
-3.04006
-1.79177
-1.02539
-1.60762
-2.27593
-2.95854
-3.64775
-4.22955
-4.45221
-4.07027
-3.08456
-1.81677
-0.52824
-1.22383
-1.8622
-2.54722
-3.23261
-3.89456
-4.36674
-4.33136
-3.62338
-2.42682
-1.11323
0.108766
-1.8248
-2.51778
-3.22711
-3.86388
-4.41064
-4.5383
-3.92901
-2.92099
-1.80235
-0.723223
0.17712
-2.6611
-3.8359
-4.25806
-4.3047
-4.07493
-3.5637
-2.8104
-1.97094
-1.16731
-0.456917
0.0810678
-5.62797
-4.18436
-3.36394
-2.93141
-2.57348
-2.14337
-1.65694
-1.15585
-0.676177
-0.245494
0.102277
22.8581
19.5689
16.3114
13.44
11.0051
9.03293
7.43661
6.14199
5.09132
4.26601
3.69913
10.4233
14.1314
14.0144
13.003
11.2095
9.43893
7.81254
6.42798
5.29116
4.39893
3.7821
-2.90234
4.36294
6.4536
8.38825
8.61264
8.09659
7.14872
6.1051
5.12681
4.30763
3.7219
-9.38364
-3.11292
-1.20327
2.50649
4.23654
5.24548
5.36959
5.03489
4.48172
3.90461
3.42923
-11.2667
-6.91283
-6.08082
-1.99586
-0.0800735
1.92375
2.95363
3.39795
3.40881
3.20959
2.98894
-11.4709
-8.22892
-8.26826
-4.58966
-3.121
-0.82653
0.617164
1.61174
2.12009
2.31004
2.36189
-10.8459
-8.52411
-8.62523
-5.90519
-4.69413
-2.62724
-1.16882
0.0692321
0.889061
1.38749
1.68727
-9.59912
-8.25554
-8.0321
-6.28749
-5.29799
-3.57423
-2.28423
-1.02803
-0.090842
0.581266
1.05534
-8.39543
-7.54439
-7.28285
-6.01064
-5.27457
-3.88042
-2.81366
-1.65812
-0.737094
0.00172661
0.567641
-7.49261
-6.75013
-6.4873
-5.45287
-4.90032
-3.76126
-2.91019
-1.89706
-1.06548
-0.338993
0.255648
-6.39876
-5.80376
-5.58334
-4.73873
-4.32386
-3.37864
-2.7169
-1.84708
-1.13677
-0.473663
0.0813929
-5.01819
-4.65072
-4.54457
-3.89571
-3.60498
-2.82673
-2.33183
-1.59351
-1.01393
-0.429144
0.0552986
-3.9041
-3.60827
-3.53982
-3.0168
-2.82043
-2.17898
-1.82456
-1.20296
-0.753185
-0.248502
0.15407
-3.08119
-2.74725
-2.65266
-2.19002
-2.04481
-1.49543
-1.25798
-0.733224
-0.407081
0.0338563
0.324288
-2.09261
-1.83296
-1.78577
-1.39388
-1.29281
-0.801431
-0.66865
-0.231627
0.0226331
0.338178
0.554436
-1.24662
-1.01326
-0.98284
-0.637395
-0.581291
-0.167663
-0.0231746
0.290626
0.465476
0.680035
0.812922
-0.613996
-0.335895
-0.269493
0.074204
0.125884
0.452429
0.585554
0.814182
0.912096
1.03038
1.07591
0.0765112
0.352158
0.416979
0.715192
0.831986
1.09207
1.18724
1.33135
1.35173
1.37019
1.32787
0.745617
1.01772
1.08938
1.36966
1.50687
1.72002
1.78101
1.83547
1.76984
1.6839
1.55304
1.35117
1.63161
1.73078
2.02308
2.17459
2.34341
2.35913
2.31056
2.14642
1.95534
1.74139
1.93348
2.23871
2.38077
2.69747
2.85835
2.96738
2.90314
2.72813
2.45492
2.1669
1.88244
2.58322
2.89948
3.11505
3.44485
3.57609
3.56745
3.3624
3.03797
2.65999
2.30124
1.97482
3.03088
3.67596
4.01375
4.28029
4.27389
4.05415
3.6579
3.19447
2.74758
2.3721
2.11623
4.89412
5.12317
5.24747
5.12562
4.72229
4.16678
3.56465
3.0249
2.57714
2.23081
2.00534
18.9881
17.595
15.1914
12.7441
10.4745
8.55922
7.01774
5.77733
4.78228
4.00915
3.47129
2.21551
9.00643
10.3434
10.484
9.47588
7.98024
6.60832
5.41806
4.44537
3.69976
3.19491
-11.6291
-2.31108
1.06063
4.40465
5.7472
5.89317
5.29288
4.54307
3.80121
3.19077
2.76882
-18.1358
-10.6403
-7.67437
-2.75922
0.268626
2.14687
2.84172
2.90116
2.66438
2.35953
2.15252
-19.7958
-14.7879
-13.0121
-8.26573
-4.90181
-2.04118
-0.233594
0.710779
1.13389
1.27052
1.34266
-19.5024
-16.0734
-15.2096
-11.3584
-8.5143
-5.47837
-3.15918
-1.57267
-0.561829
0.0424902
0.437947
-18.627
-16.0631
-15.6551
-12.6061
-10.4939
-7.7181
-5.40688
-3.51492
-2.13585
-1.17041
-0.478303
-17.4941
-15.5178
-15.3471
-12.7981
-11.3339
-8.88676
-6.87582
-4.88958
-3.38453
-2.19866
-1.30577
-16.4697
-14.7964
-14.7811
-12.4623
-11.5281
-9.27422
-7.65985
-5.71588
-4.24128
-2.95532
-1.94158
-15.6224
-14.0839
-14.1058
-11.9229
-11.3461
-9.18101
-7.94422
-6.08036
-4.72593
-3.42069
-2.39616
-14.8115
-13.5495
-13.2353
-11.4488
-10.8002
-8.90405
-7.82275
-6.12931
-4.87014
-3.60272
-2.60814
-13.7897
-12.7939
-12.2725
-10.8655
-10.0635
-8.48319
-7.41541
-5.92436
-4.74782
-3.54985
-2.60054
-12.8239
-11.8788
-11.3298
-10.0753
-9.26596
-7.85107
-6.84234
-5.50613
-4.42233
-3.32657
-2.46485
-11.9395
-10.9431
-10.3728
-9.18215
-8.38693
-7.07498
-6.13951
-4.92649
-3.94226
-2.96881
-2.18191
-10.8564
-9.8877
-9.34107
-8.20967
-7.42068
-6.20014
-5.32364
-4.21946
-3.33835
-2.49946
-1.81193
-9.74717
-8.7784
-8.24197
-7.15799
-6.37001
-5.24898
-4.37912
-3.40309
-2.63585
-1.94548
-1.3968
-8.64694
-7.64047
-7.0825
-6.02655
-5.21995
-4.17696
-3.34115
-2.49823
-1.85841
-1.32904
-0.932598
-7.45765
-6.41603
-5.8282
-4.79466
-3.95814
-2.98351
-2.2124
-1.51821
-1.02896
-0.672193
-0.424687
-6.16095
-5.07936
-4.44903
-3.43387
-2.56901
-1.66829
-1.00021
-0.485157
-0.178831
-0.0101632
0.0711713
-4.74918
-3.60766
-2.91175
-1.90946
-1.02929
-0.249737
0.265243
0.557804
0.647771
0.621716
0.539658
-3.16769
-1.9366
-1.15739
-0.18637
0.64387
1.24334
1.52001
1.5411
1.39768
1.1913
0.97828
-1.36095
0.0113765
0.869214
1.7319
2.37645
2.67299
2.62043
2.34709
1.99227
1.64838
1.3487
0.786077
2.2942
3.17112
3.74965
4.00466
3.88345
3.4756
2.95338
2.45402
2.02548
1.66004
2.77774
4.57861
5.12495
5.04456
4.73291
4.21953
3.59483
2.97989
2.46528
2.07289
1.87224
-1.49745
-1.06063
-0.745531
-0.61221
-0.594469
-0.57452
-0.888784
-1.58752
-1.89578
-1.12888
-0.876616
-0.697912
-0.612155
-0.597265
-0.575836
-0.735672
-1.17648
-1.33998
-1.01969
-0.81001
-0.646007
-0.587039
-0.579642
-0.559721
-0.675636
-1.05953
-1.189
-0.871197
-0.719013
-0.571296
-0.536388
-0.551345
-0.534565
-0.612314
-0.919878
-0.982384
-1.5237
-1.08348
-0.232443
0.62248
1.07901
1.02396
0.553521
-0.307951
-1.34942
-1.12798
-0.753365
-0.140642
0.548051
0.924612
0.883614
0.482759
-0.183673
-0.909565
-1.02111
-0.699812
-0.1169
0.466493
0.791227
0.752777
0.401352
-0.141102
-0.838936
-0.8465
-0.560777
-0.10927
0.38207
0.668317
0.650376
0.335807
-0.110182
-0.658327
1.29127
1.36785
1.3649
-0.158896
-0.213672
1.35522
-0.482062
1.28757
1.35319
1.49101
-0.231071
1.28867
-0.147956
-0.0710386
1.28826
1.09973
-0.0406629
-0.156698
1.09946
1.31532
1.00232
-0.297237
1.18799
-0.106668
1.37806
-0.0695664
-0.139055
-0.465786
0.285096
-0.212982
-0.0413594
0.813889
-0.0418598
1.15873
0.825396
1.36912
-0.0998216
1.37953
-0.0430269
1.29684
0.00818612
1.16242
-0.11385
1.19057
-0.351337
-0.242485
-0.149952
-0.65584
1.07285
1.30526
-0.215276
1.29803
-0.00439234
-0.110722
1.29942
0.99718
-0.286278
1.28907
0.326242
-0.0843512
0.320451
-0.00473358
-0.25531
-0.232807
-0.0424223
1.31271
-0.16935
1.32604
1.36762
1.47946
-0.0768787
1.59152
-0.176365
1.6462
-0.0991536
1.54889
-0.252748
1.1706
-0.331678
-0.475369
-0.0743309
-0.233016
1.31277
1.31679
0.238665
-0.171313
-0.379144
-0.00324238
-0.300978
-0.0415749
1.37246
1.28684
0.00604242
1.50249
-0.418395
-0.846809
-0.0998957
-0.0240495
-0.27419
1.61364
0.457899
-0.649856
1.33614
0.445926
-0.255563
1.35725
-0.00554226
1.31304
-0.0192963
0.810577
1.19964
1.16029
1.49832
-0.182759
-0.11885
1.30645
1.28726
1.15958
1.30687
1.2478
-0.190763
1.66329
0.498854
-0.0483527
-0.215692
-0.0795916
-0.00759178
-0.00580589
-0.00338976
-0.0148253
1.24531
-0.0844083
-0.633787
1.56038
1.36151
0.183071
-0.240066
-0.228513
-0.169271
1.12345
-0.0817633
0.984314
-0.377121
1.04351
1.28194
-0.196163
0.00255179
1.32583
1.5859
1.20212
1.24017
1.36051
-0.192858
1.63726
-0.173752
-0.11201
-0.163298
-0.279989
-0.0453934
1.34855
-0.0399661
-0.269864
1.57417
1.35062
-0.137585
-0.0580517
-0.310232
1.2861
-0.0192102
-0.0491312
-0.0385751
-0.0149269
0.0115636
0.87012
0.837092
0.792709
-0.00292028
-0.209665
-0.372636
0.822908
1.31596
-0.288694
1.3627
-0.214567
1.3449
-0.197225
1.24606
1.14893
1.35709
-0.330615
-0.021603
-0.0931452
1.27662
0.0134526
1.36714
1.37628
1.37377
-0.282712
-0.0155034
1.30983
-0.204328
1.32788
-0.0451678
-0.0566587
1.3607
0.00164802
1.49191
-0.00107808
1.32021
1.28786
-0.0571293
1.12896
0.764688
0.89001
1.17676
-0.0463401
1.37786
-0.119584
1.26279
-0.13204
-0.0189483
-0.182117
-0.100589
-0.127218
-0.041649
1.26963
-0.179017
-0.0463072
-0.0181774
-0.258972
-0.271568
1.26969
1.24351
1.68404
-0.194639
-0.768202
-0.108704
1.3644
1.24699
1.24816
-0.0928494
-0.169723
0.409021
-0.000463399
1.39895
-0.29482
1.15398
-0.0795021
-0.711032
-0.0289139
-0.0754554
-0.0660602
0.765635
1.36408
0.356657
1.36897
1.04509
1.38105
-0.206323
1.24673
-0.00283272
0.0303456
1.27733
1.18166
1.19864
-0.141616
0.967435
1.28841
0.0500034
0.12433
-0.255606
1.2518
1.33808
-0.151787
1.4129
1.15524
-0.0605792
1.38391
1.14507
-0.263898
1.60989
1.31353
-0.0705467
-0.0756516
0.399313
1.40149
-0.325478
1.26305
1.0775
-0.0983376
1.23283
-0.459986
1.10143
-0.0862488
1.36536
1.31885
-0.0274629
1.19852
0.870135
-0.0713893
1.33189
-0.217421
1.00415
-0.204607
1.05673
0.773325
1.17813
0.0191902
-0.274476
1.22999
-0.397598
1.35616
0.698351
-0.0279957
-0.340237
1.14383
-0.125665
-0.272932
1.19874
1.54746
1.23775
0.00691498
1.13638
-0.0924634
-0.262961
1.16358
1.16041
-0.110638
1.26418
-0.0240645
1.27106
-0.249532
-0.209078
1.34115
-0.144423
-0.758
-0.175027
1.18191
1.37963
-0.00203458
-0.077522
-0.0317749
1.33376
-0.0731753
-0.262256
0.0114379
-0.102436
1.15445
-0.120131
-0.00893829
-0.417896
-0.0270974
0.157288
1.07013
-0.0304352
1.30991
-0.0159504
0.982266
1.18412
-0.0327159
0.131609
-0.0798673
1.37625
1.3104
1.46142
-0.304366
-0.0146407
-0.11209
-0.465493
0.636563
1.38653
-0.24045
-0.74728
-0.0369501
-0.0515146
1.23022
0.337694
0.802816
1.40814
1.19951
-0.0401757
1.38746
-0.21035
1.26408
-0.0908049
-0.0749316
-0.199398
-0.0398241
-0.165193
-0.310912
1.36078
-0.352069
-0.0151188
1.7994
-0.0774657
-0.0433976
1.18037
1.20336
1.31109
-0.129553
-0.210575
1.30555
1.33993
-0.0714747
-0.00403167
-0.0260722
-0.354689
-0.0129758
1.32192
0.0102427
1.33579
1.09552
-0.0452696
-0.0426666
-0.178872
0.631992
-0.0244582
1.66909
-0.0134633
-0.351071
-0.188443
-0.0134945
-0.502024
-0.00543443
0.77524
0.843436
1.63645
-0.00952594
0.0743792
-0.0822149
1.14808
-0.24778
-0.0921941
1.17133
0.155884
-0.0432134
-0.157009
-0.187429
-0.0510177
1.14307
0.258844
-0.495008
-0.130324
-0.205279
1.25053
-0.0928431
-0.0537104
-0.190385
1.37539
-0.28306
1.35662
1.317
1.37799
-0.333901
-0.00896395
-0.461732
-0.0384967
-0.259046
-0.003078
1.34462
1.38322
-0.0139149
-0.0367414
0.326424
1.32462
-0.00626709
-0.00197328
1.3053
1.13137
1.27835
0.768024
-0.217861
1.18008
0.290925
1.29044
1.23289
1.24686
1.2878
-0.265752
1.24263
1.33213
1.02576
-0.233813
-0.277539
1.1828
-0.178411
-0.253822
1.0741
-0.0567798
1.32671
-0.153488
1.38395
1.28516
1.26738
-0.00169536
-0.0458723
1.28163
-0.089559
0.708262
1.2935
-0.0902358
-0.110572
1.33724
1.32635
-0.672013
-0.0181135
-0.181769
1.25911
-0.586017
1.14172
-0.132041
-0.043033
-0.312974
-0.0565417
0.46522
-0.102627
-0.11743
-0.0859438
1.14819
-0.0153472
1.18228
1.31636
1.39498
1.23163
1.18563
-0.0618461
1.29085
1.33025
-0.145591
1.33244
-0.209411
0.325372
-0.00289978
-0.0752588
-0.310473
1.36318
1.38427
1.31405
-0.0195747
-0.258202
1.15241
1.35147
-0.0458261
1.33902
-0.12984
1.33969
-0.0149439
1.13513
-0.301159
-0.0535673
-0.0131209
-0.301329
-0.124041
1.0593
0.941504
1.55487
1.22137
-0.0486542
-0.254951
1.24551
-0.0433008
-0.265518
-0.812088
1.38128
1.38757
1.3557
-0.0570401
-0.0927137
-0.0107159
1.34675
1.257
-0.0751349
1.48641
-0.0811568
-0.00735679
-0.0246951
-0.288005
1.20188
-0.00875265
1.386
-0.116335
1.42587
-0.0961293
-0.00343771
0.883543
-0.333692
-0.0683334
1.28763
1.16823
-0.390692
1.34834
-0.0493584
-0.178908
-0.145541
-0.0778984
-0.0648442
-0.132129
1.47148
1.30259
1.34336
-0.812899
-0.126204
-0.0535249
1.30132
1.37895
-0.349409
1.246
1.51082
1.25982
1.57899
-0.108444
-0.113381
-0.153987
0.07198
0.514171
0.794719
1.3572
-0.11872
1.54702
1.33106
-0.733886
-0.0263066
1.12469
1.37229
-0.219139
1.32499
1.37256
0.303743
1.35576
1.07822
-0.13616
-0.0989063
0.220753
-0.0162705
-0.0142055
-0.349028
-0.0345383
0.206943
-0.11979
-0.0732239
-0.309401
-0.169858
-0.0552401
1.14322
1.15028
-0.266936
0.499002
1.17926
0.884723
-0.094106
-0.11358
-0.685131
-0.0180547
0.346677
1.16634
0.70711
1.36964
1.20047
1.27789
-0.146941
1.51313
1.23981
1.21896
1.21897
-0.173193
-0.0173319
-0.262484
1.55279
1.25381
0.986524
-0.0335821
1.54442
-0.38981
1.52551
-0.118575
0.00215572
1.18726
-0.00697761
1.34454
-0.0447398
-0.188244
-0.10536
-0.732585
-0.0262106
0.282656
1.31284
-0.00711482
-0.0400445
-0.331797
0.0124353
1.14721
0.66895
1.31574
0.117446
1.18683
-0.14924
1.34936
1.31578
1.39908
-0.134092
-0.125908
1.36962
-0.00485675
1.40359
-0.0386936
-0.047985
0.886639
-0.182335
-0.0174001
-0.0755945
0.425947
-0.133681
-0.134241
-0.105082
-0.0294621
-0.48339
1.14733
-0.106028
1.23323
1.26459
-0.389254
0.0826034
-0.160997
-0.0668961
1.48075
1.06739
1.2322
-0.130361
1.34626
0.0143938
-0.0908528
-0.00933649
0.916109
0.286248
-0.0929056
-0.0722313
1.70296
-0.130731
-0.208536
-0.26085
1.207
-0.0819714
-0.302898
1.37213
-0.269216
-0.0138035
1.59906
-0.116259
1.2579
1.27565
1.25703
-0.0184959
1.63054
-0.0391702
1.36029
-0.0512518
1.58526
-0.0931854
-0.0270495
-0.0248689
-0.0115096
1.13988
-0.156459
-0.368443
1.33114
-0.0395213
0.36903
-0.0575027
0.727209
-0.267942
1.27033
-0.125754
-0.0641836
0.726464
1.18662
0.204561
1.16555
-0.100427
-0.134624
1.36528
1.30288
0.485598
-0.258369
-0.00989428
-0.130793
1.28402
-0.0978268
0.949984
1.15486
1.35818
1.34782
1.23218
1.38611
-0.00845298
-0.348546
-0.227261
-0.0164838
0.117341
1.3897
1.25814
0.219537
-0.0738461
1.3674
0.198391
-0.0771205
-0.560068
-0.090064
0.134092
0.656366
-0.137977
1.38754
1.24412
-0.23178
1.24176
1.28824
0.837664
-0.00420846
0.229838
0.254622
1.37163
-0.0593765
-0.0395885
-0.169577
1.28182
-0.00830936
-0.0891204
-0.117505
-0.144011
1.33044
1.1834
-0.154667
-0.122219
-0.0744327
1.31639
1.21938
1.56543
1.42815
1.27374
-0.0808544
-0.0890121
-0.230643
-0.538339
-0.0775993
1.33325
-0.259444
1.34449
1.52468
0.476255
1.25608
1.38833
1.29655
-0.272167
-0.0172916
-0.119753
1.38932
-0.140181
1.39782
1.35488
1.39336
1.37603
0.910499
1.18693
1.36805
1.43373
-0.922198
1.16769
1.33649
0.107755
-0.398048
1.28082
1.37614
-0.22591
-0.924723
1.25312
0.180966
-0.11645
-0.147316
1.22087
1.37396
1.14508
1.01201
-0.0111582
1.26027
-0.145567
-0.0922569
-0.02192
-0.0503031
1.19766
-0.0832005
1.26883
1.18904
1.68779
1.24026
1.17265
-0.0330238
-0.210961
0.419081
-0.10376
-0.00329629
-0.102815
0.479669
-0.35528
1.16866
1.19792
-0.00849506
-0.0173259
-0.0864107
1.3135
-0.295089
1.49062
-0.136404
1.39996
-0.0108824
-0.0243273
-0.263619
-0.0723695
1.32421
1.37467
-0.0654042
-0.226516
0.0100744
0.163301
-0.115404
0.974383
1.03027
-0.00497593
1.40658
1.36294
-0.0489258
-0.0876278
-0.210109
-0.159128
-0.00931643
-0.0789135
-0.0470227
-0.527558
1.32338
0.993621
-0.00750154
1.34488
0.793741
1.36731
-0.0639233
-0.0901276
-0.0140803
1.33884
-0.0677448
1.33054
1.29275
-0.0259057
-0.17474
1.23642
1.38057
1.43778
0.066874
0.08525
-0.344744
0.634065
1.36041
0.011203
-0.127943
-0.311433
1.32117
-0.0221445
-0.0488087
1.32951
-0.0116886
1.02004
-0.120203
-0.112928
0.481694
-0.155086
1.10952
1.43311
-0.148893
-0.0445815
1.25087
-0.0186351
1.37183
-0.772106
2.24411e-05
-0.766227
1.37166
-0.0117755
-0.183766
-0.191634
-0.0136413
-0.0260644
1.31127
-0.00338567
-0.243964
1.17533
0.733086
-0.0780381
-0.16108
-0.0640449
-0.105237
1.30837
1.38592
-0.259945
1.26588
-0.0285679
-0.0871453
-0.00210782
-0.105674
1.27484
-0.139488
-0.268465
-0.0163589
-0.0600822
-0.0858587
1.39783
-0.0753735
-0.0172968
1.34176
1.19795
1.35931
-0.106175
0.927115
1.32778
-0.0853316
-0.0501487
-0.0425824
1.20141
-0.418184
-0.0985601
0.910752
-0.133588
1.15097
1.50976
1.1004
-0.525019
1.24416
-0.044907
0.507852
-0.271736
1.18715
1.0196
1.31597
1.3264
-0.184554
-0.104682
-0.0575813
-0.35273
-0.110014
-0.473882
1.41025
0.808268
-0.220445
1.33109
-0.0342205
-0.0216169
0.96246
0.213817
-0.0770828
-0.0868723
1.22222
-0.0341945
1.32432
-0.066827
1.20946
-0.646508
-0.0369621
1.68476
-0.345558
-0.0806814
1.16225
-0.1199
-0.08878
0.102149
-0.0767095
0.675916
-0.385214
-0.0120429
-0.193191
-0.296914
-0.0829548
1.35028
-0.131582
1.35801
-0.101035
-0.0705374
-0.195682
0.618823
-0.118086
-0.336712
1.34678
1.32157
1.2372
1.20788
-0.0859004
-0.0931867
1.50341
-0.0666271
-0.152752
1.23188
-0.275763
-0.406976
0.141097
0.122728
-0.11241
-0.12964
-0.0152995
0.015805
1.34765
1.35711
-0.124905
1.37531
1.36653
-0.110071
1.31123
1.42064
-0.0908886
1.71534
-0.784512
-0.0323477
-0.168079
1.3702
-0.0606776
-0.0854042
-0.0834731
-0.385747
1.32527
-0.0844577
-0.117946
-0.0690332
-0.0107662
1.09244
-0.0147431
1.24194
-0.188401
-0.0298502
1.0552
1.37531
-0.205995
0.312838
-0.150103
-0.278796
-0.107027
1.43186
1.36026
1.36228
0.225063
-0.0168588
-0.0413325
-0.216312
-0.336678
1.76537
0.640704
1.26293
1.35005
-0.272929
1.33529
1.25852
0.191086
0.0996506
-0.616297
-0.263435
1.20698
1.13226
-0.0155664
-0.229195
-0.00398165
-0.531846
-0.0839093
1.35247
1.26397
-0.0881989
-0.00208283
-0.0160525
-0.0846417
1.4355
-0.0636898
-0.0695091
-0.158716
1.13428
-0.125549
-0.326758
0.993054
-0.0127425
1.20074
1.44101
-0.236093
-0.0556354
-0.107915
0.960186
1.08206
0.290688
-0.194268
-0.176516
-0.110206
-0.211124
0.0547654
1.29246
-0.53671
-0.199214
1.35001
-0.00309063
-0.0955494
1.19716
-0.0173039
1.34211
1.39542
1.53958
-0.0349251
-0.00170434
1.1447
-0.112195
1.34045
1.17822
1.31236
-0.0575466
1.14798
-0.0567864
-0.063282
1.35471
-0.283616
-0.336099
-0.0584242
-0.267567
0.121914
-0.100811
-0.00401877
1.29255
1.1867
1.36873
-0.0618855
1.30946
1.22333
0.0618458
-0.239652
-0.117255
-0.0500978
-0.00351268
1.02426
-0.202581
-0.0668463
1.14158
0.325665
1.11493
-0.0147374
1.2061
-0.0380795
1.00729
1.39366
1.32318
-0.253817
-0.012448
1.11005
-0.0848867
1.13855
-0.0473041
-0.00766981
-0.191322
-0.114761
1.3532
1.28345
-0.0464156
0.0721767
-0.0353096
-0.00595833
-0.240526
-0.0413848
1.3491
-0.345816
-0.0171698
1.28507
-0.168592
-0.151329
-0.0312342
-0.256501
-0.193951
-0.00157081
-0.329387
0.0753736
1.14675
1.31022
-0.047399
-0.107083
0.332319
1.17271
0.0235885
1.36601
1.65742
-0.355371
1.31753
1.28018
-0.475845
-0.198545
1.33678
1.30213
1.34648
1.12692
1.20797
1.49314
-0.110733
0.330982
1.12642
1.35307
-0.193264
1.22607
-0.066274
1.3898
1.07801
1.28448
-0.0690595
-0.366594
-0.0928937
1.34202
1.18756
-0.0813039
-0.0159333
1.34
0.0721715
-0.0843554
1.40055
0.0543972
-0.0586904
-0.282628
-0.0963337
-0.180402
1.2758
-0.174839
1.34964
1.00888
1.55398
0.768883
1.36007
-0.0909095
1.51889
-0.23326
1.37705
1.35817
-0.235426
1.19067
1.36337
-0.191514
-0.0396096
-0.177931
1.39597
0.975122
1.35313
-0.05409
-0.0191444
-0.154505
0.861233
-0.118071
-0.0371974
1.21597
1.12966
1.26038
0.892374
-0.152627
1.55606
0.37135
1.60348
-0.372465
-0.0574987
-0.0790169
-0.131327
1.04075
0.408676
1.36522
0.11791
-0.314705
1.35073
1.35594
-0.0896192
1.12511
1.21989
1.42676
-0.107064
1.38347
-0.187075
-0.292698
-0.052362
-0.0477487
1.13478
-0.0733673
1.09238
-0.52217
-0.110428
0.673986
-0.0160102
1.30473
1.18919
1.31026
1.11111
0.289862
1.00775
1.49683
-0.019861
-0.198066
1.23848
0.922621
-0.412852
0.300602
1.32043
0.270809
1.46058
1.76867
-0.0825351
1.37506
-0.0874178
-0.0679131
0.992077
1.3694
-0.0876989
-0.200835
1.34321
-0.013047
1.39852
1.60983
-0.069458
1.00151
-0.0857257
1.34574
1.49265
-0.33668
0.920095
1.25313
-0.169767
1.05643
1.27624
1.25007
1.2593
0.739543
0.433507
-0.117577
-0.10758
-0.277611
1.27554
1.34103
-0.182935
-0.00177849
1.02834
0.863422
0.0394704
1.45784
-0.00641931
1.28018
-0.0975544
1.36731
1.3594
-0.0166385
-0.119155
-0.0557696
1.37932
1.35462
1.29812
1.29084
1.26175
-0.130635
-0.0983056
-0.181009
-0.132731
-0.0827745
1.04193
1.2388
1.255
-0.322056
1.38197
-0.0554027
-0.539018
1.21661
-0.0332616
-0.177275
1.26018
1.31214
0.536589
-0.104829
-0.0806423
1.24396
-0.0680202
-0.0193088
-0.227372
-0.0104369
-0.0608686
1.20497
-0.101825
0.0623381
-0.348948
-0.132675
-0.143316
-0.010234
1.35735
1.41192
-0.141961
1.38169
-0.0553885
-0.0545062
-0.0447197
-0.0922337
-0.0812236
-0.143912
0.152992
-0.0726774
1.35133
-0.096839
-0.0791726
0.333214
0.118088
-0.214407
1.34425
-0.362635
1.35469
0.0224386
-0.599863
-0.102331
-0.104045
-0.128446
0.0147537
1.40079
1.56165
1.22244
1.40924
1.39255
0.688903
1.26448
-0.157788
1.48723
-0.0401524
-0.14511
1.11988
1.31969
0.0389452
0.0254375
1.36452
0.681629
1.18817
1.65996
0.50378
-0.0857754
1.35774
1.10077
1.07107
1.14991
1.57998
1.37163
0.149786
-0.19657
1.3434
0.290784
1.36423
1.12851
1.0441
1.38196
-0.097615
1.29386
1.2625
1.19317
1.29853
-0.0160495
1.28263
-0.0075102
-0.203491
-0.44627
-0.0903911
-0.0581196
-0.0567631
-0.020715
-0.0995107
-0.00174584
0.0121589
1.17468
-0.132203
0.835629
1.31894
1.383
0.38196
-0.0149826
-0.0123747
1.32172
-0.167187
1.52968
-0.0963899
-0.043774
1.14984