/*--------------------------------*- C++ -*----------------------------------*\
| =========                 |                                                 |
| \\      /  F ield         | OpenFOAM: The Open Source CFD Toolbox           |
|  \\    /   O peration     | Version:  3.0.1                                 |
|   \\  /    A nd           | Web:      www.OpenFOAM.org                      |
|    \\/     M anipulation  |                                                 |
\*---------------------------------------------------------------------------*/
FoamFile
{
    version     2.0;
    format      ascii;
    class       volVectorField;
    location    "0.136043";
    object      U;
}
// * * * * * * * * * * * * * * * * * * * * * * * * * * * * * * * * * * * * * //

dimensions      [0 1 -1 0 0 0 0];

internalField   nonuniform List<vector> 
21246
(
(1.68803 -6.47824 -6.38271e-18)
(1.40247 -4.86327 4.54936e-18)
(2.09284 -3.73178 0)
(2.46926 -2.93659 -2.35725e-18)
(2.65631 -2.34193 7.84226e-19)
(2.74703 -1.87705 1.0179e-18)
(2.78334 -1.50707 1.09202e-18)
(2.7906 -1.20949 -1.04546e-18)
(2.78143 -0.968889 0)
(2.76064 -0.776068 -3.19515e-19)
(2.72686 -0.625381 0)
(-1.60512 -1.87149 2.52411e-18)
(-0.580141 -2.82875 -1.86718e-19)
(0.284265 -2.92289 2.14002e-18)
(1.11755 -2.68698 -1.1271e-18)
(1.68439 -2.32453 2.13587e-18)
(2.05236 -1.94617 8.66423e-19)
(2.27816 -1.5952 -6.6514e-19)
(2.40827 -1.28886 -8.5128e-19)
(2.4865 -1.03254 1.05708e-18)
(2.53286 -0.823977 0)
(2.55417 -0.660929 0)
(-1.55797 -0.393606 -8.2283e-18)
(-0.888267 -1.05114 6.09027e-18)
(-0.534498 -1.40782 -2.19812e-18)
(0.0709073 -1.66529 0)
(0.705032 -1.74312 0)
(1.24548 -1.64634 -1.46472e-19)
(1.66258 -1.44877 1.10317e-19)
(1.96588 -1.2187 8.57024e-19)
(2.17228 -0.995584 -1.05012e-18)
(2.30977 -0.80035 0)
(2.39389 -0.643296 0)
(-1.01115 0.344651 6.41477e-19)
(-0.386129 -0.193412 4.43038e-18)
(-0.373826 -0.45208 -4.59608e-18)
(-0.019325 -0.788301 -2.73443e-18)
(0.398723 -1.00551 3.98555e-18)
(0.856529 -1.10274 -1.44062e-18)
(1.27676 -1.08435 0)
(1.62564 -0.987112 0)
(1.89469 -0.852067 0)
(2.09192 -0.710924 0)
(2.22543 -0.584598 3.02468e-19)
(-0.436709 0.752491 -5.94035e-19)
(0.113281 0.358656 -2.80222e-18)
(-0.0203616 0.217977 7.01083e-19)
(0.210657 -0.105137 4.54174e-18)
(0.438877 -0.354045 -1.75725e-18)
(0.755809 -0.546345 0)
(1.09473 -0.650118 0)
(1.41697 -0.67066 5.26469e-19)
(1.69616 -0.63066 -1.08814e-18)
(1.92181 -0.557219 2.47478e-19)
(2.08694 -0.472837 -5.3836e-19)
(0.0883514 0.901762 -3.2555e-18)
(0.566862 0.66479 7.73772e-18)
(0.35392 0.607041 -4.3199e-18)
(0.521722 0.34024 0)
(0.636644 0.121591 0)
(0.838328 -0.0885097 0)
(1.07944 -0.246475 -1.45234e-18)
(1.33762 -0.341884 1.09766e-18)
(1.58696 -0.378146 1.02232e-18)
(1.80742 -0.370205 -4.97105e-19)
(1.9796 -0.335792 0)
(0.456207 0.934505 2.29269e-18)
(0.918444 0.824763 -1.8398e-20)
(0.71495 0.806561 2.95516e-20)
(0.824058 0.606798 -3.10283e-18)
(0.875358 0.43376 2.27126e-18)
(0.999458 0.243483 -1.80536e-18)
(1.16321 0.0768056 1.01162e-18)
(1.35624 -0.0515021 -1.84545e-18)
(1.55949 -0.133409 1.08581e-18)
(1.75457 -0.172921 4.37607e-19)
(1.91879 -0.177615 0)
(0.707256 0.934923 -4.05519e-18)
(1.1641 0.901304 6.76627e-18)
(1.00593 0.911532 -2.34175e-18)
(1.08707 0.761113 -1.12456e-19)
(1.1075 0.629036 4.45257e-19)
(1.18397 0.468127 0)
(1.29188 0.314568 3.11757e-19)
(1.43071 0.181254 -4.10932e-19)
(1.58859 0.0787239 -2.71479e-19)
(1.75041 0.00937804 -4.3847e-19)
(1.88883 -0.0270172 -5.99187e-19)
(0.905555 0.933863 1.93875e-19)
(1.35455 0.940966 -1.88835e-19)
(1.23245 0.970051 -2.96949e-18)
(1.30291 0.850472 2.58638e-18)
(1.31092 0.749747 -2.06157e-18)
(1.3612 0.617097 1.87157e-18)
(1.43302 0.483834 2.48602e-18)
(1.53194 0.358511 -1.13051e-18)
(1.65182 0.251316 -1.55744e-18)
(1.78245 0.167517 1.6108e-18)
(1.89925 0.112203 -1.04213e-18)
(1.07046 0.905189 -5.27854e-19)
(1.5233 0.944898 -2.50138e-18)
(1.41844 0.996778 2.70089e-18)
(1.4815 0.899568 -4.46931e-19)
(1.48299 0.823747 0)
(1.51883 0.714956 -5.95065e-19)
(1.56861 0.602282 -2.2285e-18)
(1.64057 0.490027 2.67738e-18)
(1.73198 0.387185 5.30416e-20)
(1.83741 0.299728 -3.11736e-20)
(1.93767 0.237391 -5.13697e-21)
(1.18123 0.837651 3.31039e-19)
(1.65167 0.92406 -2.51278e-18)
(1.56491 1.00101 1.29107e-18)
(1.62684 0.922513 0)
(1.62601 0.868116 -5.88197e-19)
(1.65453 0.779137 0)
(1.69129 0.68503 7.47055e-19)
(1.74585 0.586828 -4.19501e-20)
(1.817 0.492358 9.62466e-19)
(1.90255 0.406751 1.34166e-18)
(1.98349 0.342186 0)
(1.24672 0.776568 0)
(1.73162 0.914008 8.03858e-21)
(1.67207 1.00186 0)
(1.74024 0.934538 -6.68893e-19)
(1.74218 0.896186 5.77601e-19)
(1.76909 0.822415 0)
(1.79915 0.743881 -2.14538e-18)
(1.84321 0.658624 9.89642e-19)
(1.90065 0.573546 0)
(1.97166 0.492399 -1.14969e-18)
(2.03945 0.428847 0)
(1.30428 0.738956 2.99497e-19)
(1.79835 0.913453 2.53584e-19)
(1.75941 1.00476 0)
(1.83236 0.943869 -6.39786e-19)
(1.83761 0.917118 1.01934e-18)
(1.86572 0.854146 0)
(1.89297 0.787974 1.29163e-18)
(1.93127 0.713617 -3.01251e-18)
(1.97997 0.637513 7.51972e-19)
(2.04136 0.561853 5.82351e-20)
(2.10077 0.502274 4.15257e-20)
(1.34523 0.691686 4.41033e-18)
(1.86029 0.899261 -1.62451e-18)
(1.83592 1.00393 1.53344e-18)
(1.91179 0.950662 -2.44066e-18)
(1.91893 0.934649 4.91582e-19)
(1.94899 0.879703 -7.50449e-19)
(1.97524 0.823475 0)
(2.01063 0.757948 8.91013e-19)
(2.05383 0.689882 -1.36774e-18)
(2.10909 0.619519 2.01472e-18)
(2.16152 0.56445 1.47586e-18)
(1.36008 0.647712 0)
(1.89723 0.893161 -4.42e-21)
(1.89622 1.00694 1.48494e-18)
(1.97869 0.9586 -1.16893e-18)
(1.98922 0.950993 -4.57928e-19)
(2.02229 0.901728 2.94162e-18)
(2.04857 0.853637 -1.83522e-21)
(2.08278 0.795166 -2.58994e-18)
(2.12249 0.734211 -6.24621e-19)
(2.17389 0.668466 -9.80637e-19)
(2.22243 0.617492 -4.20928e-20)
(1.38059 0.618657 -2.06856e-18)
(1.92808 0.89459 -2.07527e-18)
(1.9509 1.0118 -3.4825e-19)
(2.03729 0.968558 8.54929e-19)
(2.05238 0.965984 -4.35175e-19)
(2.0881 0.921639 -1.38478e-18)
(2.11517 0.879941 7.95004e-21)
(2.1491 0.827372 1.64611e-18)
(2.18676 0.772788 6.23446e-19)
(2.23569 0.711267 0)
(2.2829 0.66336 1.23596e-18)
(1.40255 0.586287 -1.51918e-19)
(1.95603 0.883922 -2.22857e-19)
(2.00392 1.00949 3.57354e-19)
(2.09105 0.977264 2.82874e-19)
(2.1112 0.978592 4.38196e-19)
(2.14855 0.939577 -1.31675e-18)
(2.17678 0.902926 1.76945e-18)
(2.21072 0.85562 -7.64206e-19)
(2.24746 0.8067 0)
(2.29445 0.75008 3.94105e-19)
(2.342 0.704394 -6.08696e-19)
(1.40767 0.552846 -4.83882e-18)
(1.96746 0.871059 2.41924e-19)
(2.04739 1.00504 1.28043e-20)
(2.13854 0.985134 -1.27145e-19)
(2.1658 0.988766 8.37189e-19)
(2.2045 0.955168 0)
(2.23401 0.922776 1.40536e-20)
(2.26795 0.880702 7.07604e-19)
(2.30458 0.837073 -1.05159e-18)
(2.35025 0.785716 -6.03325e-21)
(2.39853 0.741619 -7.8591e-19)
(1.41053 0.522944 -3.71012e-20)
(1.96882 0.857517 -1.82152e-18)
(2.08352 0.998318 1.45567e-18)
(2.18096 0.991021 1.37346e-19)
(2.21649 0.995622 -8.07971e-19)
(2.25601 0.967549 1.19355e-18)
(2.2866 0.939418 -2.28322e-19)
(2.32056 0.903246 -4.12988e-20)
(2.35788 0.8651 4.8626e-19)
(2.40335 0.819271 -3.19844e-19)
(2.45356 0.775669 1.99719e-19)
(1.41757 0.493612 1.94684e-21)
(1.9644 0.837156 5.67578e-20)
(2.11432 0.982827 1.35323e-18)
(2.21916 0.989093 -2.1312e-18)
(2.26248 0.995383 1.10302e-19)
(2.30174 0.974487 4.84063e-20)
(2.33301 0.952441 1.00433e-18)
(2.36755 0.92394 1.10859e-19)
(2.40678 0.89225 -2.40185e-19)
(2.45349 0.852672 2.78807e-19)
(2.50616 0.810287 -1.76848e-19)
(1.42555 0.46118 4.26442e-20)
(1.9509 0.803038 -1.9736e-18)
(2.13435 0.949931 1.98202e-19)
(2.24711 0.970695 1.08058e-18)
(2.29744 0.982617 -1.03859e-19)
(2.33661 0.973343 1.47861e-19)
(2.36962 0.961622 3.22558e-19)
(2.40691 0.943675 -9.55233e-20)
(2.45021 0.919842 -1.21838e-19)
(2.50015 0.886818 -1.53733e-19)
(2.55535 0.846792 -5.48662e-20)
(1.45203 0.413227 1.67368e-19)
(1.92501 0.746914 -1.26057e-18)
(2.13459 0.886745 1.31585e-18)
(2.25315 0.92479 2.82584e-19)
(2.31036 0.95157 -4.22343e-19)
(2.35262 0.962071 -1.59515e-19)
(2.39169 0.967002 0)
(2.43622 0.962909 2.30693e-19)
(2.48681 0.948323 5.64547e-20)
(2.54234 0.921817 1.53406e-19)
(2.60161 0.883246 0)
(1.32803 0.396314 -2.0943e-19)
(1.84698 0.638636 2.9965e-19)
(2.05003 0.799027 -4.00577e-19)
(2.18035 0.860373 3.00068e-19)
(2.25853 0.910716 0)
(2.32153 0.945965 0)
(2.38264 0.970098 -7.20612e-21)
(2.44633 0.980039 -4.81697e-19)
(2.51116 0.97491 3.14498e-19)
(2.57641 0.956228 1.47412e-19)
(2.64178 0.919905 -3.32399e-19)
(2.32886 -0.294539 2.52561e-18)
(2.01478 0.485849 -1.99106e-18)
(2.17036 0.523988 -5.95159e-19)
(2.21292 0.670637 1.24693e-18)
(2.24182 0.801844 -6.16343e-19)
(2.28763 0.897052 0)
(2.35292 0.958334 0)
(2.42892 0.9884 -5.64066e-21)
(2.50652 0.994851 -6.71834e-19)
(2.58295 0.986589 -2.51613e-19)
(2.65965 0.966958 1.14968e-18)
(5.51125 -6.48168 -1.22582e-18)
(4.85953 -3.78606 8.7908e-19)
(4.50705 -3.72401 -4.86178e-19)
(4.05831 -2.99767 5.34322e-19)
(3.7018 -2.36732 -3.76567e-19)
(3.45841 -1.85727 0)
(3.28686 -1.45969 -4.41292e-20)
(3.15604 -1.14922 -2.8835e-19)
(3.04998 -0.905051 1.4111e-19)
(2.96111 -0.714058 6.65436e-19)
(2.881 -0.568952 -5.54053e-19)
(5.79381 -4.27594 1.45579e-18)
(5.33037 -1.04459 -1.02919e-18)
(5.77435 -2.15009 3.48699e-18)
(5.35174 -2.12288 -5.06416e-19)
(4.75539 -1.88251 -4.06401e-19)
(4.24192 -1.59585 -4.96273e-19)
(3.84426 -1.28901 -1.52435e-19)
(3.55056 -1.01519 -6.91928e-21)
(3.3303 -0.789407 2.30734e-19)
(3.15965 -0.60832 -1.62141e-19)
(3.02238 -0.470973 3.33948e-19)
(4.46954 -2.21462 2.3338e-18)
(4.69864 0.732975 0)
(5.92351 -0.487557 0)
(5.85356 -0.700123 -1.96447e-19)
(5.41071 -0.890909 1.13479e-18)
(4.86747 -0.944865 4.88117e-19)
(4.35433 -0.867476 0)
(3.93406 -0.728241 2.01097e-19)
(3.60865 -0.578146 5.38532e-20)
(3.35923 -0.442813 1.38359e-19)
(3.16849 -0.338092 -1.97307e-19)
(2.90771 -1.12345 -2.80858e-18)
(3.81632 1.40315 -7.12241e-19)
(5.40883 0.695358 9.76405e-19)
(5.63546 0.613006 -1.01182e-18)
(5.52417 0.20239 -1.06672e-18)
(5.13358 -0.085971 -4.00392e-19)
(4.66151 -0.242144 4.28024e-19)
(4.21057 -0.284283 1.30617e-19)
(3.82918 -0.258402 -2.23722e-19)
(3.52545 -0.202673 -1.06104e-20)
(3.29163 -0.148145 1.31805e-19)
(1.67446 -0.742765 4.84471e-19)
(2.98602 1.46629 6.6564e-19)
(4.64934 1.34633 -9.18621e-19)
(5.06074 1.49724 -8.53126e-18)
(5.2272 1.08658 6.65416e-18)
(5.03749 0.730102 3.18226e-18)
(4.704 0.431328 -1.29145e-18)
(4.31387 0.23889 -1.04484e-18)
(3.94186 0.135713 2.57426e-19)
(3.6226 0.0944898 -4.79355e-19)
(3.36615 0.0828332 -9.23041e-20)
(0.806166 -0.672243 -7.12943e-19)
(2.31954 1.34042 0)
(3.92203 1.6514 1.52086e-18)
(4.41808 1.98659 -8.58717e-18)
(4.74092 1.67505 6.30165e-18)
(4.70908 1.35972 2.16108e-19)
(4.52832 1.0183 -3.62915e-18)
(4.24285 0.74414 2.94214e-18)
(3.92889 0.54566 -1.2329e-18)
(3.63176 0.418807 2.41084e-19)
(3.37422 0.352069 7.03891e-19)
(0.194802 -0.724961 6.70228e-19)
(1.80407 1.18292 0)
(3.3038 1.78306 -1.43805e-18)
(3.83896 2.23537 7.47788e-18)
(4.22583 2.02896 -7.01447e-18)
(4.28842 1.78877 -1.74331e-18)
(4.22683 1.4647 -5.17659e-18)
(4.04444 1.1684 3.09316e-18)
(3.80731 0.918889 1.4045e-18)
(3.5572 0.728884 -1.84877e-18)
(3.32464 0.604936 1.34503e-19)
(-0.245108 -0.826251 2.40971e-17)
(1.39944 1.03502 -1.27143e-17)
(2.79354 1.83073 6.97041e-18)
(3.34821 2.35441 -1.20696e-17)
(3.75065 2.23242 8.69401e-18)
(3.86034 2.06315 9.47092e-18)
(3.87688 1.77791 -7.65577e-18)
(3.77506 1.49327 3.05382e-18)
(3.61068 1.22786 0)
(3.41572 1.00321 9.80631e-19)
(3.22157 0.828597 -2.11201e-18)
(-0.561881 -0.929873 1.71987e-17)
(1.06598 0.905722 -1.37845e-18)
(2.35883 1.8292 -1.42985e-17)
(2.92852 2.40031 1.05385e-17)
(3.32695 2.34347 -8.91628e-18)
(3.45766 2.23135 -7.27819e-18)
(3.5219 1.98645 4.40625e-18)
(3.4768 1.72666 -2.42103e-18)
(3.37248 1.46468 3.46745e-18)
(3.23036 1.22762 -9.67229e-19)
(3.07313 1.03948 1.04325e-19)
(-0.796266 -1.01455 6.69875e-18)
(0.776134 0.797846 1.34189e-17)
(1.97825 1.79995 -9.16329e-18)
(2.55948 2.39852 -2.57466e-18)
(2.94656 2.39523 3.91759e-18)
(3.08718 2.32719 0)
(3.18056 2.11814 -1.81004e-18)
(3.17444 1.88567 -2.29629e-18)
(3.1165 1.63545 1.55432e-19)
(3.02013 1.39633 -3.64817e-18)
(2.90254 1.2007 2.90311e-19)
(-0.998801 -1.08544 1.20225e-17)
(0.493152 0.69065 -1.11236e-17)
(1.62607 1.74185 1.70797e-18)
(2.22141 2.36019 2.51363e-18)
(2.59704 2.40508 -1.8318e-18)
(2.74589 2.36895 0)
(2.85671 2.19075 1.44431e-19)
(2.87865 1.98357 0)
(2.85651 1.74954 0)
(2.79844 1.51629 1.86559e-18)
(2.71768 1.31776 1.06077e-18)
(-1.18754 -1.16011 -4.11874e-18)
(0.227689 0.580387 -7.82162e-18)
(1.30312 1.65881 4.55843e-18)
(1.90504 2.29406 -2.04907e-18)
(2.27236 2.38179 0)
(2.42994 2.36983 4.21335e-18)
(2.55208 2.2181 -1.65873e-18)
(2.59565 2.03265 0)
(2.60169 1.81469 -1.19283e-18)
(2.57628 1.59111 2.75081e-19)
(2.52954 1.39616 -1.96251e-18)
(-1.3476 -1.2323 -6.14757e-18)
(-0.0194273 0.468421 7.19612e-18)
(0.998141 1.55207 6.54526e-18)
(1.60315 2.20159 -1.1244e-19)
(1.96588 2.32923 -2.68597e-18)
(2.13388 2.33693 3.9495e-18)
(2.26472 2.20836 2.57181e-18)
(2.32677 2.04111 -1.96901e-18)
(2.35657 1.83807 5.1521e-20)
(2.36003 1.62559 2.05025e-19)
(2.34861 1.43224 1.89536e-18)
(-1.489 -1.30667 0)
(-0.266086 0.341961 7.69915e-19)
(0.69732 1.41727 0)
(1.30601 2.07959 -1.83436e-18)
(1.66952 2.24763 -3.56704e-18)
(1.85135 2.27364 -7.33813e-21)
(1.99131 2.16611 -1.14161e-18)
(2.07102 2.01416 -1.46813e-18)
(2.12266 1.82466 -9.6609e-19)
(2.15202 1.62413 1.95139e-18)
(2.17368 1.43279 -1.59357e-18)
(-1.6205 -1.38931 9.68891e-19)
(-0.509046 0.202853 -1.47617e-18)
(0.403432 1.25723 -1.01341e-18)
(1.01198 1.929 7.29716e-19)
(1.37982 2.13677 1.02815e-19)
(1.5785 2.18117 1.63928e-18)
(1.72928 2.09332 -1.13011e-18)
(1.82717 1.95474 1.50043e-18)
(1.90053 1.77785 8.24168e-19)
(1.95435 1.5901 -1.84022e-18)
(2.00511 1.40714 1.19292e-19)
(-1.74157 -1.47293 3.20484e-18)
(-0.750813 0.0522478 8.39885e-20)
(0.111425 1.07187 5.82763e-19)
(0.715677 1.74783 1.92645e-18)
(1.09093 1.99433 -1.25794e-18)
(1.30936 2.05867 -2.04717e-18)
(1.47445 1.9897 -1.6718e-18)
(1.59286 1.86356 1.28103e-18)
(1.69007 1.69921 0)
(1.77037 1.52448 4.15983e-19)
(1.85427 1.35089 -8.19291e-19)
(-1.85728 -1.56164 -3.92432e-18)
(-0.996901 -0.114974 6.53285e-19)
(-0.186287 0.857359 -2.90936e-18)
(0.408859 1.53183 2.5847e-18)
(0.794246 1.8151 0)
(1.03607 1.90159 -4.36365e-19)
(1.22064 1.85192 8.15831e-19)
(1.36451 1.7388 2.03574e-19)
(1.48979 1.58859 0)
(1.59853 1.42904 0)
(1.71405 1.26694 3.85548e-19)
(-1.97218 -1.66394 3.12703e-18)
(-1.24967 -0.303884 -2.29282e-18)
(-0.494187 0.609416 -3.05567e-18)
(0.0844623 1.27473 2.39971e-19)
(0.47979 1.59098 1.7283e-19)
(0.748217 1.70084 1.92457e-18)
(0.960072 1.67199 -6.58281e-19)
(1.13731 1.57513 -2.08355e-19)
(1.29718 1.44367 0)
(1.43787 1.30452 -2.34992e-20)
(1.58955 1.16056 1.33249e-19)
(-2.08872 -1.7846 2.88549e-18)
(-1.51196 -0.517766 -2.10179e-18)
(-0.818743 0.323735 -2.60334e-18)
(-0.267249 0.967775 3.85448e-18)
(0.134109 1.30811 -1.86506e-19)
(0.432247 1.44037 -1.50884e-18)
(0.682137 1.43504 4.92855e-19)
(0.904068 1.3619 -2.02194e-19)
(1.10744 1.2584 1.9231e-19)
(1.28592 1.14839 -7.65026e-20)
(1.47572 1.03358 8.13854e-20)
(-2.21083 -1.92517 0)
(-1.79039 -0.755514 -1.73706e-18)
(-1.1714 -0.00360453 1.56142e-18)
(-0.662075 0.598229 1.30544e-18)
(-0.261435 0.944181 -7.45655e-20)
(0.0705706 1.09385 -4.33079e-19)
(0.37196 1.11748 0)
(0.651743 1.08244 0)
(0.907788 1.02276 -4.24066e-20)
(1.13 0.955108 4.25558e-20)
(1.35315 0.881465 0)
(-2.34421 -2.09925 -2.35209e-18)
(-2.0951 -1.05255 -3.44116e-19)
(-1.57501 -0.391372 -5.131e-19)
(-1.1213 0.134036 2.24511e-19)
(-0.725491 0.451936 -2.02774e-19)
(-0.352227 0.607193 -1.90306e-19)
(0.01438 0.666971 -7.94025e-20)
(0.36185 0.689054 0)
(0.674806 0.692883 1.62072e-19)
(0.942995 0.683601 -1.69412e-20)
(1.20814 0.666443 -1.4315e-19)
(-2.54304 -2.44208 1.93045e-18)
(-2.54124 -1.2389 -1.16958e-18)
(-2.05124 -0.807361 2.51596e-19)
(-1.67172 -0.431015 -3.42371e-19)
(-1.28743 -0.183598 -5.83343e-20)
(-0.875505 -0.0270449 0)
(-0.450536 0.0913216 8.82831e-20)
(-0.046664 0.196204 0)
(0.309479 0.285519 -1.74442e-19)
(0.616543 0.350943 0)
(0.945965 0.395507 1.62612e-19)
(-3.31928 -1.81885 2.02371e-18)
(-2.64307 -1.73388 0)
(-2.44629 -1.43105 0)
(-2.03634 -1.23149 2.70628e-19)
(-1.47097 -1.01547 -3.08713e-19)
(-0.888634 -0.786028 3.14908e-20)
(-0.327566 -0.540715 6.05088e-19)
(0.185434 -0.299952 1.15373e-19)
(0.639459 -0.0834244 -4.91877e-19)
(1.03856 0.0976298 -2.13567e-19)
(1.43723 0.278925 1.47855e-19)
(0.319499 -0.163124 -1.70714e-18)
(-0.400103 0.208846 5.76682e-19)
(0.233931 0.07276 4.62867e-19)
(0.768016 0.0805243 -5.81978e-19)
(1.17683 0.157818 4.0465e-19)
(1.51695 0.281941 -6.1828e-21)
(1.79702 0.424939 -4.60912e-19)
(2.023 0.558083 6.47163e-19)
(2.20661 0.666216 -2.1854e-19)
(2.36042 0.748409 2.35803e-19)
(2.50585 0.827646 -3.21455e-19)
(4.12245 4.00957 3.48886e-19)
(3.15057 2.65401 0)
(2.84671 2.34397 -2.91009e-19)
(2.50474 1.84425 4.75483e-20)
(2.24813 1.42379 0)
(2.07406 1.08683 -1.81025e-20)
(1.95331 0.825007 1.40133e-19)
(1.86847 0.622883 0)
(1.80863 0.466643 0)
(1.76724 0.346815 0)
(1.73844 0.263507 2.39238e-20)
(4.27045 2.391 1.19205e-17)
(3.17782 0.480092 -9.40646e-18)
(3.5623 1.12364 -2.33488e-18)
(3.2558 1.09173 1.69989e-18)
(2.87568 0.976454 -6.85188e-20)
(2.54941 0.827289 2.0006e-20)
(2.29392 0.662134 -5.88992e-20)
(2.10898 0.511027 4.39848e-20)
(1.97811 0.384636 1.71562e-20)
(1.88595 0.2846 1.88886e-21)
(1.82243 0.214361 -4.76826e-20)
(2.93355 1.22188 1.86134e-17)
(2.37258 -0.707042 0)
(3.37122 0.0119284 -5.63269e-18)
(3.33854 0.111185 4.30896e-18)
(3.13289 0.253049 6.91936e-20)
(2.84095 0.337194 1.46419e-19)
(2.55159 0.340357 0)
(2.30942 0.298334 3.99896e-19)
(2.12386 0.239103 -2.0371e-19)
(1.98734 0.182417 -5.38544e-20)
(1.89091 0.144145 5.16761e-20)
(1.53286 0.88157 -1.4096e-17)
(1.57734 -0.893916 2.21122e-17)
(2.75247 -0.588548 -7.42555e-18)
(2.92656 -0.621287 5.71495e-19)
(2.99591 -0.419502 -2.29957e-18)
(2.85419 -0.207927 2.01651e-18)
(2.63526 -0.0704051 -1.35651e-18)
(2.40932 0.0064577 7.59592e-19)
(2.21128 0.0353904 -2.27215e-19)
(2.05223 0.0413825 1.15011e-19)
(1.92978 0.049977 2.44604e-19)
(0.522007 1.00633 -8.66058e-19)
(0.945485 -0.601077 8.32563e-18)
(2.05569 -0.731841 -7.48992e-18)
(2.36115 -0.959495 -5.48407e-19)
(2.62759 -0.843062 -7.16457e-19)
(2.64405 -0.641609 -3.53892e-18)
(2.54 -0.448937 2.9249e-18)
(2.38344 -0.296363 2.46296e-19)
(2.21623 -0.193176 -8.65557e-19)
(2.06409 -0.126328 4.33847e-19)
(1.93607 -0.070698 -4.87689e-19)
(-0.171569 1.30812 -4.95697e-18)
(0.458845 -0.175783 -8.5e-19)
(1.44679 -0.619045 -5.39686e-19)
(1.8322 -1.00293 0)
(2.19886 -1.01908 -1.86329e-18)
(2.32574 -0.896906 1.9599e-18)
(2.33056 -0.72191 -2.55495e-18)
(2.25595 -0.545598 2.74543e-18)
(2.14272 -0.402934 -9.06084e-19)
(2.02047 -0.293424 0)
(1.90622 -0.19979 4.83245e-19)
(-0.657531 1.71383 7.13396e-18)
(0.0842284 0.287703 -2.86417e-18)
(0.952223 -0.379937 1.84036e-19)
(1.39172 -0.882558 -4.03773e-18)
(1.80121 -1.02691 2.50357e-18)
(1.9951 -0.997445 7.92362e-19)
(2.07678 -0.874232 -3.08512e-18)
(2.07381 -0.717032 9.54057e-19)
(2.01607 -0.564787 9.58889e-19)
(1.93208 -0.435941 9.36021e-19)
(1.84267 -0.316784 -1.29939e-19)
(-0.97426 2.17772 -3.17157e-18)
(-0.203373 0.765434 3.11618e-18)
(0.560956 -0.0680997 -2.69211e-18)
(1.03833 -0.672979 6.36015e-18)
(1.46466 -0.933226 -3.14581e-18)
(1.69855 -0.992937 -6.21065e-19)
(1.8284 -0.930121 1.032e-18)
(1.8755 -0.808995 5.68758e-19)
(1.86488 -0.671799 -1.48995e-19)
(1.81852 -0.543025 -5.90783e-19)
(1.75441 -0.414854 0)
(-1.17304 2.63032 2.82451e-18)
(-0.441732 1.23648 0)
(0.253602 0.286696 0)
(0.756803 -0.410959 0)
(1.1884 -0.777409 -9.43603e-19)
(1.4481 -0.921416 7.50184e-19)
(1.60767 -0.919904 0)
(1.68742 -0.840519 -1.15496e-18)
(1.71051 -0.728143 8.75727e-19)
(1.69444 -0.610654 -1.01981e-18)
(1.65678 -0.48473 4.01787e-20)
(-1.29494 3.06524 -1.72468e-18)
(-0.646154 1.70085 1.74525e-18)
(0.00248393 0.671136 6.21253e-19)
(0.52106 -0.112917 0)
(0.956133 -0.579832 0)
(1.23705 -0.806067 6.5421e-20)
(1.4179 -0.865991 0)
(1.51995 -0.830009 5.30706e-19)
(1.56665 -0.746462 0)
(1.57297 -0.646611 8.26526e-20)
(1.55729 -0.530891 6.38246e-19)
(-1.35721 3.49904 2.55847e-18)
(-0.813999 2.165 -1.53287e-18)
(-0.205477 1.08008 -6.11971e-19)
(0.314672 0.21429 4.10841e-19)
(0.75346 -0.349729 0)
(1.05444 -0.658908 5.51347e-20)
(1.25397 -0.781699 0)
(1.3738 -0.790267 -5.21677e-19)
(1.43836 -0.737108 -6.49842e-19)
(1.46229 -0.657192 4.89914e-19)
(1.46457 -0.555967 -5.78857e-19)
(-1.37835 3.90301 1.38631e-18)
(-0.955554 2.60781 1.35133e-18)
(-0.380257 1.49613 -1.02292e-18)
(0.132902 0.559681 -4.06689e-19)
(0.573392 -0.0951768 2.75433e-19)
(0.891783 -0.48665 1.70192e-18)
(1.10905 -0.67396 -6.44723e-19)
(1.24525 -0.728663 -4.26582e-19)
(1.32493 -0.707125 0)
(1.363 -0.648265 3.9855e-19)
(1.38009 -0.562072 -2.51732e-19)
(-1.37196 4.22537 -6.26345e-19)
(-1.07404 3.00276 2.52753e-18)
(-0.534225 1.90199 -9.41388e-19)
(-0.0369524 0.916094 0)
(0.403169 0.181435 -1.03696e-18)
(0.73769 -0.29017 -1.22308e-20)
(0.973742 -0.544069 0)
(1.12761 -0.647793 6.14671e-19)
(1.22265 -0.660148 -2.68724e-19)
(1.27386 -0.624151 0)
(1.3022 -0.556265 0)
(-1.34163 4.45222 -2.14342e-19)
(-1.16894 3.35366 -7.23813e-20)
(-0.678565 2.30667 0)
(-0.205997 1.29524 6.40716e-19)
(0.231214 0.490615 -2.39173e-19)
(0.581101 -0.0609384 -8.46403e-20)
(0.838102 -0.386189 -4.95897e-19)
(1.01297 -0.544719 5.38736e-19)
(1.12638 -0.595641 1.89066e-22)
(1.19356 -0.58552 -3.32961e-19)
(1.23655 -0.537646 2.48986e-19)
(-1.29963 4.58985 0)
(-1.23727 3.65113 -4.88594e-19)
(-0.807267 2.7043 4.52585e-19)
(-0.36928 1.6976 -6.21938e-19)
(0.0597794 0.836698 4.87113e-19)
(0.421254 0.207484 6.54673e-20)
(0.69843 -0.193237 2.80953e-20)
(0.896088 -0.413348 0)
(1.031 -0.509437 2.21231e-19)
(1.11724 -0.53027 -1.66442e-19)
(1.17601 -0.505342 2.02836e-19)
(-1.242 4.65266 0)
(-1.26415 3.89198 1.34439e-19)
(-0.907946 3.08287 -1.24347e-19)
(-0.519324 2.12065 -2.68162e-19)
(-0.10904 1.22426 -2.23586e-19)
(0.256824 0.522843 6.31544e-19)
(0.550727 0.0440862 -4.63053e-19)
(0.771303 -0.244361 1.58745e-19)
(0.930572 -0.393583 9.99083e-20)
(1.04021 -0.452712 -7.49624e-20)
(1.11907 -0.456455 4.56156e-20)
(-1.16891 4.69166 0)
(-1.24689 4.08768 -6.64116e-19)
(-0.968635 3.42697 5.02721e-19)
(-0.646422 2.55453 -2.77169e-19)
(-0.272631 1.65599 2.1051e-19)
(0.0853353 0.895465 0)
(0.389337 0.33924 -9.79728e-20)
(0.631449 -0.0234496 -1.06764e-19)
(0.817662 -0.234943 2.02866e-19)
(0.955618 -0.342409 0)
(1.06102 -0.383524 0)
(-1.09579 4.71605 -7.52536e-19)
(-1.20291 4.23862 0)
(-0.989765 3.71624 -3.79465e-19)
(-0.741004 2.97056 2.8936e-19)
(-0.424253 2.11843 -3.917e-19)
(-0.092512 1.32884 -1.68281e-20)
(0.211186 0.705759 5.83084e-19)
(0.470903 0.267675 0)
(0.685291 -0.0145464 -2.60199e-19)
(0.856043 -0.182436 6.84716e-21)
(0.993543 -0.273165 3.90306e-20)
(-1.02368 4.73958 0)
(-1.14616 4.35763 -1.63677e-21)
(-0.983449 3.95062 -5.90221e-19)
(-0.804576 3.3458 3.44188e-20)
(-0.559367 2.59087 3.83444e-19)
(-0.27375 1.82114 0)
(0.0154903 1.15914 -2.94047e-20)
(0.28605 0.653435 3.38187e-19)
(0.527413 0.29476 8.2663e-20)
(0.733057 0.0535369 -3.53471e-19)
(0.909326 -0.101712 0)
(-0.950709 4.77073 8.02987e-19)
(-1.08774 4.45653 2.87011e-19)
(-0.968209 4.14016 9.80461e-21)
(-0.852722 3.67233 0)
(-0.681612 3.05435 0)
(-0.45353 2.366 -2.59744e-19)
(-0.190953 1.71305 -1.77797e-19)
(0.081188 1.16126 -4.67193e-19)
(0.342778 0.72735 -9.93906e-22)
(0.57873 0.40275 6.90276e-19)
(0.794108 0.168561 9.39159e-20)
(-0.871635 4.797 0)
(-1.04234 4.52827 0)
(-0.972519 4.28642 3.36768e-19)
(-0.914299 3.95387 6.94426e-19)
(-0.80052 3.5047 0)
(-0.619572 2.9563 0)
(-0.385522 2.37135 0)
(-0.122953 1.81177 1.84791e-19)
(0.14256 1.31817 -3.89959e-19)
(0.391507 0.911136 -1.53147e-19)
(0.625215 0.592293 -1.90781e-19)
(-0.89725 4.6552 2.46911e-19)
(-1.06316 4.48807 1.72318e-19)
(-1.03736 4.35967 0)
(-1.00056 4.19807 -1.01273e-18)
(-0.898084 3.93789 0)
(-0.729804 3.55783 5.26213e-19)
(-0.517207 3.09131 2.97805e-19)
(-0.279025 2.57716 -5.59873e-19)
(-0.0373921 2.06678 -2.01588e-19)
(0.195597 1.60667 -2.39211e-19)
(0.438738 1.21285 1.71101e-19)
(-0.943723 4.75967 -1.19921e-18)
(-0.969643 4.56668 0)
(-0.918801 4.4843 0)
(-0.839962 4.41009 3.88389e-19)
(-0.704017 4.27312 0)
(-0.549918 4.0477 -6.00063e-19)
(-0.388848 3.72279 0)
(-0.230305 3.31418 0)
(-0.0793236 2.86547 2.13136e-19)
(0.0584774 2.43306 -3.89775e-19)
(0.250369 1.99048 1.69198e-19)
(-0.384335 2.85996 1.64461e-18)
(-0.422419 2.85975 0)
(-0.246326 2.85721 -2.61773e-19)
(-0.0979465 2.87526 0)
(0.0162065 2.90304 0)
(0.0927112 2.95119 2.42637e-19)
(0.14815 3.00508 0)
(0.20233 3.0163 0)
(0.27348 2.91361 -6.93358e-21)
(0.349427 2.72789 1.84254e-19)
(0.448268 2.40208 3.10367e-19)
(0.650084 4.45073 5.37364e-18)
(0.492418 3.52153 -4.06925e-18)
(1.01636 2.61961 3.35619e-18)
(1.32914 1.9826 -2.39575e-18)
(1.49032 1.51345 1.00284e-18)
(1.56904 1.15784 -7.82475e-19)
(1.60362 0.885233 3.52179e-19)
(1.61873 0.672301 0)
(1.6274 0.505875 1.88777e-19)
(1.63501 0.377188 -3.26348e-19)
(1.64147 0.284285 2.00507e-19)
(-2.32824 1.04956 3.57447e-18)
(-1.04109 1.88237 -2.48855e-18)
(-0.341341 2.00282 0)
(0.312435 1.7951 0)
(0.7535 1.49474 -1.85114e-18)
(1.0485 1.19482 3.07375e-18)
(1.23771 0.93052 -1.31509e-18)
(1.35593 0.710024 0)
(1.43501 0.532209 -7.28411e-19)
(1.49159 0.392904 2.29121e-19)
(1.53147 0.291963 -1.45503e-19)
(-2.39797 0.00063453 8.09873e-19)
(-1.33447 0.450502 0)
(-1.08446 0.797069 -1.24361e-18)
(-0.503919 1.07279 9.32612e-19)
(0.0540744 1.15701 -6.88902e-19)
(0.522285 1.05378 -6.69961e-19)
(0.863858 0.87132 0)
(1.08308 0.683177 7.76612e-19)
(1.23006 0.517161 -1.50315e-19)
(1.33345 0.381989 0)
(1.40464 0.280531 -2.62067e-19)
(-1.96363 -0.650954 -7.32192e-19)
(-0.917736 -0.330471 0)
(-1.07518 -0.0308413 1.15063e-18)
(-0.726096 0.292465 0)
(-0.351757 0.519466 9.60451e-19)
(0.0633961 0.626664 6.55847e-19)
(0.447263 0.61485 -8.16432e-19)
(0.762385 0.53933 4.25592e-19)
(0.995012 0.434105 1.41365e-19)
(1.16289 0.329026 -6.4141e-19)
(1.27543 0.242205 3.3871e-19)
(-1.41975 -1.00546 -1.51535e-20)
(-0.460946 -0.81904 0)
(-0.79223 -0.606815 -2.13168e-19)
(-0.571916 -0.288184 6.20987e-20)
(-0.352471 -0.0214786 -2.6284e-19)
(-0.0586659 0.17933 -6.1464e-19)
(0.255029 0.282889 4.31367e-19)
(0.553686 0.303183 2.53479e-19)
(0.799984 0.271673 -2.23733e-19)
(0.994317 0.217724 6.96832e-19)
(1.13161 0.164372 -2.61327e-19)
(-0.932638 -1.17041 -5.32947e-19)
(-0.0807382 -1.0948 0)
(-0.457021 -0.969746 -3.17015e-19)
(-0.302689 -0.693135 3.37085e-19)
(-0.205781 -0.448837 -5.88489e-19)
(-0.0139559 -0.225593 -4.66561e-20)
(0.220499 -0.0578146 -4.23287e-19)
(0.464915 0.0390392 0)
(0.691591 0.0794217 -1.96295e-19)
(0.884564 0.0819743 3.43279e-20)
(1.02513 0.0694339 8.0802e-20)
(-0.530346 -1.21942 -8.20016e-19)
(0.217973 -1.23258 -1.97798e-19)
(-0.146168 -1.17621 1.51936e-19)
(-0.0146513 -0.940091 1.67741e-21)
(0.002394 -0.743656 0)
(0.122709 -0.529084 0)
(0.280832 -0.346339 5.66736e-19)
(0.46653 -0.21056 0)
(0.655289 -0.122891 0)
(0.827702 -0.0763566 4.38646e-20)
(0.959565 -0.0549525 1.24012e-20)
(-0.205895 -1.21779 0)
(0.436747 -1.30051 0)
(0.116073 -1.29054 0)
(0.247101 -1.08292 -5.79148e-20)
(0.212147 -0.932434 4.36615e-20)
(0.295205 -0.739979 8.21891e-20)
(0.394198 -0.563886 -2.06845e-19)
(0.526187 -0.414368 0)
(0.67218 -0.300633 0)
(0.815429 -0.222568 0)
(0.930715 -0.172798 -1.20217e-19)
(0.0689623 -1.19975 0)
(0.607301 -1.34695 -6.71896e-19)
(0.326484 -1.3439 5.33735e-19)
(0.477589 -1.17033 -2.15483e-19)
(0.406 -1.04919 1.67747e-19)
(0.468235 -0.880154 -2.10207e-20)
(0.528063 -0.71931 3.27488e-20)
(0.619417 -0.570334 0)
(0.728418 -0.445591 0)
(0.843238 -0.350371 0)
(0.939686 -0.285607 2.74049e-20)
(0.28686 -1.1763 -1.36486e-18)
(0.780669 -1.37971 -1.16205e-20)
(0.514552 -1.363 0)
(0.657456 -1.22797 0)
(0.586179 -1.11939 2.59707e-19)
(0.630858 -0.970687 4.80725e-20)
(0.664287 -0.826045 -2.40553e-19)
(0.726066 -0.684562 6.9361e-20)
(0.804715 -0.559298 0)
(0.893208 -0.457605 -1.67544e-20)
(0.969794 -0.382792 -3.17799e-20)
(0.443667 -1.14414 -1.34337e-18)
(0.936137 -1.38564 1.28546e-19)
(0.694148 -1.36953 9.09802e-19)
(0.815699 -1.25485 2.41978e-19)
(0.747375 -1.1584 -6.45675e-20)
(0.779345 -1.0262 3.17608e-19)
(0.794284 -0.896119 -3.05007e-19)
(0.834055 -0.764362 3.89187e-20)
(0.887954 -0.643774 -3.52734e-20)
(0.953816 -0.541386 7.96156e-21)
(1.01124 -0.461267 2.13108e-20)
(0.568503 -1.10247 -1.4887e-18)
(1.06714 -1.36664 2.63856e-19)
(0.849388 -1.36258 5.26943e-19)
(0.957857 -1.26022 -7.94158e-19)
(0.890896 -1.17464 0)
(0.913507 -1.05558 -4.07675e-19)
(0.914638 -0.938149 -1.12844e-19)
(0.93735 -0.816319 0)
(0.970709 -0.702668 0)
(1.0165 -0.60311 9.57699e-20)
(1.05672 -0.523066 6.78566e-20)
(0.679897 -1.05527 -3.923e-19)
(1.18867 -1.33532 -5.35482e-19)
(0.983305 -1.34393 1.51424e-18)
(1.0855 -1.24926 -9.08048e-19)
(1.01802 -1.17314 0)
(1.03376 -1.06443 4.75725e-19)
(1.02367 -0.958047 -6.29102e-20)
(1.03253 -0.845756 0)
(1.04833 -0.740266 2.40484e-19)
(1.07666 -0.646344 -1.81288e-19)
(1.09705 -0.572296 0)
(0.784061 -0.98859 3.91255e-19)
(1.30332 -1.28398 8.37419e-19)
(1.10465 -1.31201 0)
(1.20057 -1.22454 3.12124e-19)
(1.13114 -1.15713 3.56234e-19)
(1.14098 -1.05714 -1.13529e-18)
(1.12084 -0.960527 2.10763e-20)
(1.11777 -0.856974 0)
(1.11751 -0.760235 -3.22404e-19)
(1.1301 -0.673538 4.09589e-19)
(1.13553 -0.607019 2.25325e-19)
(0.870943 -0.906003 0)
(1.39526 -1.22 -5.66917e-19)
(1.21285 -1.26755 4.32641e-19)
(1.30018 -1.18787 -5.97311e-19)
(1.23325 -1.12691 4.23043e-19)
(1.23506 -1.03517 5.56281e-19)
(1.20706 -0.946917 -7.89466e-19)
(1.19259 -0.852311 5.70849e-19)
(1.17783 -0.76456 7.28045e-21)
(1.17403 -0.686056 2.71127e-19)
(1.16542 -0.627626 0)
(0.95044 -0.81953 -6.86067e-20)
(1.47168 -1.14661 -1.23523e-18)
(1.31037 -1.21199 -2.12415e-18)
(1.38658 -1.14099 1.25072e-19)
(1.32471 -1.08451 9.36245e-19)
(1.31707 -1.00053 -5.75612e-19)
(1.2824 -0.919341 4.44495e-19)
(1.25661 -0.833528 -5.08475e-19)
(1.22881 -0.754683 5.60052e-20)
(1.20892 -0.684829 -1.92642e-19)
(1.18793 -0.632838 0)
(1.02473 -0.724883 -2.06652e-18)
(1.53787 -1.05884 1.26891e-18)
(1.40016 -1.14307 -1.72602e-18)
(1.46238 -1.08319 1.25412e-19)
(1.40613 -1.03037 9.5258e-19)