/*--------------------------------*- C++ -*----------------------------------*\
| =========                 |                                                 |
| \\      /  F ield         | OpenFOAM: The Open Source CFD Toolbox           |
|  \\    /   O peration     | Version:  3.0.1                                 |
|   \\  /    A nd           | Web:      www.OpenFOAM.org                      |
|    \\/     M anipulation  |                                                 |
\*---------------------------------------------------------------------------*/
FoamFile
{
    version     2.0;
    format      ascii;
    class       surfaceVectorField;
    location    "0.136043";
    object      Uf;
}
// * * * * * * * * * * * * * * * * * * * * * * * * * * * * * * * * * * * * * //

dimensions      [0 1 -1 0 0 0 0];

internalField   nonuniform List<vector> 
32369
(
(1.10816 -5.96556 4.04382e-19)
(-0.502273 -3.50449 -1.34346e-18)
(4.65566 -7.28086 -3.65658e-18)
(1.7937 -4.31402 2.50613e-18)
(0.319075 -3.75401 1.89978e-18)
(3.70628 -4.70801 2.61943e-18)
(2.30125 -3.3537 -1.05715e-18)
(1.19649 -3.401 1.18336e-18)
(3.42024 -3.78272 -2.54223e-19)
(2.57345 -2.65843 -1.09807e-18)
(1.81413 -2.89381 -1.6852e-18)
(3.26803 -2.94522 -8.53997e-19)
(2.71013 -2.1258 8.88708e-19)
(2.18251 -2.38948 1.12924e-18)
(3.16466 -2.328 1.84301e-19)
(2.77117 -1.70658 1.10148e-18)
(2.40283 -1.94321 9.37153e-19)
(3.09085 -1.84854 4.94908e-19)
(2.79142 -1.37095 1.96477e-19)
(2.52962 -1.56734 1.66603e-19)
(3.02782 -1.47209 6.30495e-19)
(2.78996 -1.09977 -5.80106e-19)
(2.59788 -1.25788 -9.44379e-19)
(2.96878 -1.17257 -6.6086e-19)
(2.77457 -0.881256 -1.42023e-19)
(2.63417 -1.00679 5.44178e-19)
(2.91207 -0.93236 7.13001e-20)
(2.75011 -0.705349 -1.77679e-19)
(2.64917 -0.805607 -1.56737e-19)
(2.85796 -0.741955 1.38177e-19)
(2.64464 -0.64883 0)
(2.80217 -0.595594 -2.77272e-19)
(2.70202 -0.544159 0)
(-1.25147 -2.2938 1.30936e-18)
(-1.6119 -1.02941 -3.24346e-18)
(-0.292534 -2.86959 8.65519e-19)
(-0.839806 -1.73473 3.15752e-18)
(0.642409 -2.81808 6.80208e-19)
(-0.187448 -2.06204 -4.04242e-19)
(1.37248 -2.52507 3.25359e-19)
(0.571704 -2.15644 -5.34899e-19)
(1.86453 -2.15332 1.57036e-18)
(1.19953 -2.06145 1.02131e-18)
(2.16997 -1.78611 2.32874e-19)
(1.66263 -1.83464 3.41374e-19)
(2.34964 -1.45503 -7.4783e-19)
(1.98404 -1.55512 -2.65696e-19)
(2.45219 -1.17176 -4.63837e-21)
(2.19781 -1.27764 -1.43481e-19)
(2.51305 -0.937495 5.88653e-19)
(2.33672 -1.02946 1.61228e-19)
(2.5519 -0.746951 0)
(2.42553 -0.820777 0)
(2.47615 -0.656376 0)
(2.56804 -0.580041 0)
(-1.10296 -0.731687 -2.40867e-18)
(-1.28964 0.0148478 -3.6646e-18)
(-0.811359 -1.19212 2.38491e-18)
(-0.643079 -0.583148 5.23814e-18)
(-0.284692 -1.51929 -1.21694e-18)
(-0.465884 -0.88822 -3.42637e-18)
(0.327705 -1.6972 0)
(0.0183905 -1.20303 -1.39747e-18)
(0.926979 -1.69924 -6.5184e-20)
(0.548406 -1.36605 2.03238e-18)
(1.42808 -1.55859 -3.14149e-20)
(1.05223 -1.37999 -8.05012e-19)
(1.80365 -1.34609 4.41744e-19)
(1.47332 -1.27836 5.42945e-20)
(2.06479 -1.11867 1.16198e-20)
(1.79951 -1.11468 4.22632e-19)
(2.23875 -0.907924 -5.85103e-19)
(2.03647 -0.933176 -5.18788e-19)
(2.35252 -0.729342 0)
(2.2029 -0.762151 0)
(2.31007 -0.616236 1.52569e-19)
(2.42431 -0.570817 8.82098e-19)
(-0.564048 0.0344636 2.33895e-18)
(-0.724671 0.564567 -6.67737e-22)
(-0.456765 -0.281707 1.08835e-19)
(-0.143012 0.117679 8.08286e-19)
(-0.221747 -0.600365 -3.76448e-18)
(-0.200413 -0.0956142 -1.88769e-18)
(0.133813 -0.877017 3.70048e-19)
(0.0850669 -0.402736 9.41318e-19)
(0.576708 -1.04402 1.49241e-18)
(0.409879 -0.645211 1.08534e-18)
(1.02744 -1.09258 -7.99956e-19)
(0.800396 -0.803714 -7.13309e-19)
(1.42668 -1.04084 0)
(1.18291 -0.858411 0)
(1.74634 -0.927223 0)
(1.52049 -0.827924 2.65636e-19)
(1.98521 -0.789382 0)
(1.79558 -0.74392 -5.48889e-19)
(2.15712 -0.654397 1.3386e-19)
(2.00738 -0.637696 1.24809e-19)
(2.15709 -0.53337 -8.78361e-20)
(2.27651 -0.527821 3.12427e-19)
(-0.0638065 0.51119 -1.58434e-18)
(-0.172527 0.828305 -1.93365e-18)
(-0.00810354 0.32405 -9.97104e-19)
(0.341116 0.516135 2.50008e-18)
(0.107677 0.0633742 2.33045e-18)
(0.1667 0.423158 -1.82666e-18)
(0.288924 -0.207906 1.65149e-18)
(0.364768 0.136149 2.25512e-18)
(0.560235 -0.433819 -9.73822e-19)
(0.53563 -0.0953152 -8.72487e-19)
(0.888457 -0.588096 0)
(0.794458 -0.296033 0)
(1.22688 -0.657141 2.34041e-19)
(1.08503 -0.433273 -7.31305e-19)
(1.53622 -0.652252 -2.00673e-19)
(1.37595 -0.497852 8.14102e-19)
(1.79478 -0.597965 -4.93078e-19)
(1.64079 -0.500884 -1.94028e-20)
(1.99887 -0.520015 -1.00561e-19)
(1.86421 -0.463064 -1.27498e-19)
(2.03302 -0.404751 -2.67253e-19)
(2.15732 -0.424496 1.79253e-18)
(0.367551 0.756506 1.40653e-18)
(0.273005 0.901372 -4.73456e-19)
(0.430711 0.661511 2.00929e-18)
(0.742996 0.762356 3.84646e-18)
(0.464713 0.469565 -2.38602e-18)
(0.535084 0.704094 -2.13811e-18)
(0.559171 0.24884 0)
(0.673389 0.478752 -1.55711e-18)
(0.718484 0.0311173 0)
(0.756369 0.287197 1.14014e-18)
(0.933127 -0.154451 -6.47165e-19)
(0.919119 0.0882809 -9.06546e-19)
(1.18301 -0.28551 -2.61039e-19)
(1.12142 -0.0761328 -2.16306e-19)
(1.44099 -0.356106 1.06418e-18)
(1.34688 -0.188058 -3.79696e-19)
(1.68022 -0.373658 3.29899e-19)
(1.57309 -0.249982 1.05423e-18)
(1.88587 -0.355314 -2.76801e-19)
(1.78082 -0.268493 -2.72608e-20)
(1.949 -0.254343 0)
(2.05656 -0.3114 0)
(0.719741 0.846836 1.25425e-18)
(0.578952 0.91315 -8.75795e-19)
(0.784534 0.84392 3.11756e-21)
(1.04004 0.853877 3.37e-18)
(0.789872 0.701581 -1.37386e-18)
(0.859979 0.855849 -1.15539e-18)
(0.838799 0.533871 -6.41341e-19)
(0.955595 0.684224 -1.60748e-18)
(0.928367 0.349974 4.50288e-19)
(0.991806 0.534072 1.35773e-18)
(1.06509 0.172481 -5.06511e-19)
(1.09236 0.360452 -9.01649e-19)
(1.242 0.0225695 -2.60792e-19)
(1.22829 0.201167 6.69581e-19)
(1.43992 -0.0855072 -4.80699e-19)
(1.39422 0.0706933 -1.12655e-18)
(1.64074 -0.149236 7.97899e-19)
(1.57464 -0.0223238 4.15814e-19)
(1.82796 -0.175158 2.43527e-19)
(1.75286 -0.0782933 -1.37232e-20)
(1.90382 -0.101507 -3.00739e-19)
(1.99178 -0.166616 0)
(0.963698 0.881385 3.48062e-19)
(0.803792 0.925127 -1.93694e-18)
(1.06101 0.928729 2.40472e-18)
(1.25677 0.911803 3.30676e-18)
(1.06319 0.830111 -1.34212e-18)
(1.11738 0.934406 -2.64425e-18)
(1.09095 0.705276 1.37259e-19)
(1.19405 0.802582 1.2306e-18)
(1.14239 0.556691 2.462e-19)
(1.20888 0.688374 -8.04796e-19)
(1.22833 0.401638 1.39163e-19)
(1.27287 0.543838 9.35513e-19)
(1.34902 0.257508 -1.03593e-20)
(1.36317 0.402031 1.39919e-18)
(1.49579 0.137998 -3.48872e-19)
(1.48222 0.273381 -7.61653e-19)
(1.65535 0.050071 -3.45713e-19)
(1.62108 0.168477 -9.00147e-19)
(1.81359 -0.00745 -4.97075e-19)
(1.76717 0.0914532 6.09762e-19)
(1.8947 0.0453359 -8.21155e-19)
(1.96103 -0.037743 -2.14277e-19)
(1.15197 0.900979 2.1669e-20)
(0.99148 0.928931 -1.78158e-19)
(1.27129 0.97609 -1.43822e-18)
(1.43994 0.945908 -1.34317e-18)
(1.28107 0.903826 -6.13589e-19)
(1.32494 0.982418 -1.39919e-19)
(1.30237 0.808235 5.03895e-19)
(1.39146 0.873324 1.07627e-18)
(1.33531 0.689151 -3.14765e-19)
(1.39629 0.785186 -1.03159e-18)
(1.39147 0.558701 2.14605e-18)
(1.43978 0.665492 6.40926e-19)
(1.47451 0.429483 8.4413e-19)
(1.50104 0.543662 1.27099e-19)
(1.5818 0.312719 -1.32064e-18)
(1.58682 0.425724 7.73695e-19)
(1.70562 0.216272 -1.11187e-19)
(1.69262 0.321086 -7.34847e-19)
(1.83572 0.142273 4.32733e-19)
(1.81062 0.235402 7.89247e-19)
(1.9192 0.176717 -4.98832e-19)
(1.96372 0.0890048 2.19014e-19)
(1.3177 0.884798 -1.41622e-18)
(1.12668 0.873316 -9.46596e-20)
(1.44954 0.99083 7.71798e-20)
(1.58817 0.936064 -2.50707e-18)
(1.46063 0.941816 1.28775e-18)
(1.4916 0.99904 1.99687e-18)
(1.47782 0.868974 -2.46581e-19)
(1.55378 0.910532 -2.23878e-19)
(1.50089 0.77366 -2.66346e-19)
(1.55387 0.844932 -2.93623e-19)
(1.54002 0.665349 -1.32507e-18)
(1.58616 0.746201 -2.97946e-19)
(1.59938 0.553097 -2.39685e-20)
(1.6297 0.64327 -7.42437e-19)
(1.67908 0.44564 1.48554e-18)
(1.6933 0.53864 1.31895e-18)
(1.77557 0.350318 -1.41826e-20)
(1.77487 0.440493 5.14929e-19)
(1.88294 0.271455 -4.12474e-21)
(1.87054 0.354296 6.63815e-19)
(1.96108 0.290714 -2.56913e-21)
(1.99698 0.215459 -2.10469e-21)
(1.43109 0.840602 -9.49528e-19)
(1.20436 0.793616 1.66072e-19)
(1.58892 0.980449 -5.81131e-19)
(1.68702 0.912623 -1.27153e-18)
(1.60538 0.954496 7.11283e-19)
(1.61583 0.997866 6.47458e-19)
(1.62212 0.901862 -2.63775e-19)
(1.682 0.926531 -3.33515e-19)
(1.64055 0.826807 -3.24824e-19)
(1.68298 0.88073 -1.43649e-20)
(1.67017 0.737698 3.34001e-19)
(1.71099 0.799739 0)
(1.71498 0.641706 3.94808e-19)
(1.74465 0.713739 -6.91114e-19)
(1.77621 0.545728 4.20095e-19)
(1.79424 0.62238 4.76362e-19)
(1.85243 0.456153 1.15602e-18)
(1.85879 0.532938 4.82061e-19)
(1.93959 0.377318 7.453e-19)
(1.9372 0.449725 9.79045e-20)
(2.01179 0.385974 0)
(2.03164 0.31049 0)
(1.49101 0.812852 3.62053e-21)
(1.27385 0.756034 1.4938e-19)
(1.6852 0.972556 4.42271e-21)
(1.76348 0.912128 1.26402e-19)
(1.71482 0.96011 -3.00464e-19)
(1.7139 1.00136 0)
(1.73707 0.92108 -1.09743e-19)
(1.78475 0.937577 -6.65875e-19)
(1.75617 0.861391 3.18899e-19)
(1.78859 0.905293 7.9795e-19)
(1.78193 0.787824 -9.59491e-19)
(1.81639 0.837224 0)
(1.81854 0.706052 -7.41789e-19)
(1.84529 0.765127 -4.30812e-19)
(1.868 0.621381 5.48424e-19)
(1.88671 0.685583 -1.00037e-18)
(1.93026 0.539063 -5.11799e-19)
(1.94002 0.605231 3.75153e-19)
(2.00327 0.462964 -6.3844e-19)
(2.00635 0.526952 -5.48917e-19)
(2.06996 0.465382 2.07179e-20)
(2.08334 0.395897 0)
(1.54637 0.797309 2.78817e-19)
(1.33495 0.724487 2.32027e-18)
(1.76441 0.971346 1.39507e-19)
(1.83349 0.910135 -6.83784e-19)
(1.8028 0.966668 -2.87438e-19)
(1.79879 1.00542 7.65244e-19)
(1.8305 0.936079 1.40496e-19)
(1.87191 0.94719 -1.53839e-18)
(1.85215 0.88699 5.62724e-19)
(1.87759 0.925341 7.56035e-19)
(1.87735 0.825093 5.77734e-19)
(1.90655 0.866263 -3.74356e-19)
(1.91001 0.754827 -6.31636e-19)
(1.93336 0.805102 6.47401e-19)
(1.95251 0.68013 -1.32832e-18)
(1.97035 0.735283 -1.06587e-18)
(2.00573 0.605297 4.43098e-19)
(2.0165 0.663361 -3.04976e-19)
(2.06953 0.533748 1.87273e-20)
(2.07508 0.590562 1.03369e-18)
(2.13114 0.533343 7.57854e-19)
(2.14625 0.473111 1.64863e-20)
(1.59707 0.763468 1.90442e-18)
(1.34342 0.663191 2.20605e-18)
(1.83472 0.9623 -2.03918e-19)
(1.87458 0.893267 -8.0545e-19)
(1.87898 0.97024 -1.66705e-19)
(1.8645 1.00435 1.50921e-18)
(1.91045 0.948409 -1.08476e-18)
(1.94449 0.954133 -1.80564e-18)
(1.93424 0.908039 -6.47942e-20)
(1.9535 0.942442 1.48703e-20)
(1.96006 0.855273 -4.14777e-19)
(1.98503 0.890312 1.08706e-18)
(1.99107 0.794179 3.97942e-19)
(2.01131 0.838164 -9.15415e-22)
(2.02966 0.727847 -1.16283e-19)
(2.04618 0.776205 -8.39438e-19)
(2.07712 0.65996 1.67696e-19)
(2.08774 0.711751 -9.97336e-19)
(2.13396 0.593375 1.7751e-18)
(2.14119 0.643777 5.25357e-19)
(2.192 0.590965 7.17857e-19)
(2.19994 0.531815 4.71416e-19)
(1.61442 0.744176 -1.9907e-21)
(1.3674 0.631553 -1.03523e-18)
(1.88453 0.958341 6.6549e-19)
(1.91096 0.892942 -1.03669e-18)
(1.94189 0.97528 3.77648e-19)
(1.92255 1.00881 5.68396e-19)
(1.9792 0.960086 -8.49995e-19)
(2.00716 0.963128 -1.57607e-19)
(2.006 0.926618 1.04779e-18)
(2.02023 0.958189 -4.46565e-19)
(2.03331 0.881092 1.61354e-18)
(2.05469 0.91142 7.82134e-19)
(2.06393 0.827422 -1.15628e-18)
(2.08143 0.866558 3.04615e-21)
(2.10041 0.768084 -1.71363e-18)
(2.11554 0.811058 -4.81414e-19)
(2.1443 0.706247 -7.83113e-19)
(2.15427 0.753301 -4.98901e-21)
(2.19676 0.644214 -5.63344e-19)
(2.20447 0.689675 -4.92267e-19)
(2.25207 0.640071 5.94053e-19)
(2.25862 0.58642 -1.13217e-18)
(1.63458 0.734077 -2.07158e-18)
(1.4014 0.606475 -1.13216e-18)
(1.92832 0.959334 -1.19132e-18)
(1.94643 0.891042 -1.14815e-18)
(1.99739 0.982951 1.13536e-19)
(1.97917 1.01136 1.04809e-20)
(2.04016 0.972287 2.76419e-19)
(2.06454 0.973067 5.70058e-19)
(2.07026 0.943709 -8.60385e-19)
(2.08175 0.97228 1.03446e-21)
(2.09951 0.903913 -7.50303e-19)
(2.11809 0.930518 -1.35082e-18)
(2.13044 0.856309 7.37311e-19)
(2.14571 0.891326 8.86479e-19)
(2.1659 0.803027 1.19027e-18)
(2.17963 0.841377 4.44872e-19)
(2.20769 0.746602 3.45978e-19)
(2.21685 0.78962 3.12971e-19)
(2.25748 0.688811 5.49407e-19)
(2.2649 0.730571 1.96133e-19)
(2.31279 0.683974 3.12338e-19)
(2.31867 0.632598 -3.62866e-19)
(1.66001 0.709927 -1.83846e-19)
(1.40071 0.568239 -2.50052e-18)
(1.9692 0.951023 3.79351e-20)
(1.95967 0.876873 6.33259e-21)
(2.04921 0.986868 3.23921e-19)
(2.0252 1.00711 1.84661e-19)
(2.09649 0.982773 3.52491e-19)
(2.11458 0.981136 7.75829e-20)
(2.12949 0.958887 -3.4723e-19)
(2.1385 0.98368 6.37756e-19)
(2.16055 0.924102 7.35865e-20)
(2.17648 0.947361 -6.58883e-19)
(2.19204 0.881635 6.4102e-19)
(2.20533 0.912829 8.93355e-19)
(2.22713 0.833764 -4.23743e-19)
(2.2392 0.868111 -3.04609e-20)
(2.26784 0.782396 1.75335e-19)
(2.27585 0.821809 -5.23723e-19)
(2.31592 0.729187 -5.1436e-20)
(2.32213 0.767787 1.95612e-19)
(2.36996 0.722859 -6.96785e-19)
(2.37258 0.67612 -1.02458e-18)
(1.66449 0.689515 -2.61274e-18)
(1.40664 0.537387 -2.42104e-18)
(1.9964 0.940627 2.19436e-19)
(1.96652 0.863983 -7.95758e-19)
(2.09361 0.988552 -1.09993e-19)
(2.06491 1.00156 7.3744e-19)
(2.14784 0.991116 3.36594e-19)
(2.15941 0.988021 4.98265e-21)
(2.18445 0.971605 4.62799e-19)
(2.19129 0.992216 1.32752e-20)
(2.21724 0.94144 6.27538e-21)
(2.23044 0.961389 5.96877e-19)
(2.24925 0.903824 3.23284e-19)
(2.26044 0.931113 -1.06496e-19)
(2.28426 0.861266 -7.54912e-20)
(2.29422 0.891951 3.34131e-19)
(2.32455 0.814917 -5.81008e-19)
(2.33105 0.851019 -2.85695e-19)
(2.37182 0.765862 -3.52292e-19)
(2.37652 0.802382 -1.62114e-19)
(2.4254 0.758458 -2.98978e-19)
(2.42746 0.714987 1.73424e-19)
(1.66289 0.671303 -8.38957e-19)
(1.41553 0.50819 -1.69807e-20)
(2.01464 0.928778 -2.82712e-19)
(1.96794 0.847307 -8.74296e-19)
(2.13173 0.98808 8.64936e-19)
(2.10037 0.990577 1.40358e-18)
(2.19469 0.996666 -2.8564e-19)
(2.20105 0.99009 -1.00269e-18)
(2.23528 0.98103 7.28447e-20)
(2.24054 0.995544 -3.47326e-19)
(2.26942 0.95546 5.56591e-19)
(2.27955 0.97105 6.2039e-19)
(2.3018 0.923149 -1.45019e-19)
(2.31016 0.945943 3.87862e-19)
(2.33711 0.886383 1.93348e-19)
(2.34408 0.913576 3.46758e-20)
(2.3779 0.845214 1.24365e-19)
(2.38219 0.878625 1.24308e-19)
(2.42556 0.80011 -8.93549e-20)
(2.42826 0.835888 -2.19559e-20)
(2.48014 0.792889 1.32361e-20)
(2.48058 0.749716 6.30882e-19)
(1.66162 0.649764 2.65482e-20)
(1.42455 0.476917 2.34145e-20)
(2.02764 0.908464 6.37788e-19)
(1.96116 0.819589 -9.72865e-19)
(2.16521 0.978967 -1.54785e-19)
(2.12824 0.965899 7.69738e-19)
(2.23718 0.994403 -1.11208e-18)
(2.23613 0.979585 -5.12307e-19)
(2.28092 0.984126 7.03648e-20)
(2.28219 0.988789 3.03931e-22)
(2.3156 0.964846 4.75264e-19)
(2.32034 0.973823 9.83149e-20)
(2.34837 0.939776 6.06826e-19)
(2.35169 0.95701 6.62394e-19)
(2.38487 0.910214 -4.6677e-20)
(2.38715 0.933809 7.79379e-21)
(2.4274 0.875111 -9.92891e-21)
(2.4283 0.906027 -1.81143e-19)
(2.4767 0.83451 7.25733e-20)
(2.47668 0.869682 6.33871e-20)
(2.53064 0.828437 -1.16193e-19)
(2.52933 0.787912 -7.79015e-19)
(1.65702 0.620063 -8.60651e-19)
(1.43398 0.43779 1.06364e-19)
(2.03131 0.871439 -9.80002e-19)
(1.94606 0.772637 -1.61039e-18)
(2.18869 0.9518 5.36116e-19)
(2.1411 0.916402 7.55099e-19)
(2.26923 0.976714 5.52361e-19)
(2.25394 0.94663 6.76494e-19)
(2.31563 0.976558 8.22434e-21)
(2.30558 0.966588 -2.64685e-19)
(2.35123 0.968301 2.25539e-19)
(2.34474 0.967651 -7.06852e-21)
(2.38606 0.954108 1.34598e-19)
(2.38008 0.964461 1.6051e-19)
(2.42599 0.933776 -1.10201e-19)
(2.42093 0.953462 6.79841e-20)
(2.47229 0.905568 -1.36668e-19)
(2.46815 0.934168 -3.26615e-20)
(2.52454 0.869583 -1.10805e-19)
(2.52107 0.904322 -9.20078e-22)
(2.57793 0.865065 -2.75202e-20)
(2.58042 0.826238 -2.31565e-20)
(1.6555 0.574455 -4.70561e-19)
(1.46878 0.374238 -1.28886e-19)
(2.02142 0.804048 -1.32834e-19)
(1.9132 0.680615 -3.98699e-19)
(2.19191 0.894197 8.91485e-19)
(2.11793 0.831844 4.36716e-19)
(2.27909 0.935412 -2.64686e-20)
(2.23119 0.886246 2.47356e-19)
(2.32969 0.954388 -3.05612e-19)
(2.29174 0.927918 -2.07694e-19)
(2.36985 0.964739 -8.87568e-20)
(2.33974 0.952839 -7.87188e-20)
(2.41127 0.96632 1.02211e-19)
(2.3874 0.96846 -3.63886e-21)
(2.45857 0.957377 1.54618e-19)
(2.44082 0.971721 -1.25281e-19)
(2.51137 0.936844 9.93235e-20)
(2.49865 0.961829 1.8609e-19)
(2.5686 0.905585 8.5631e-20)
(2.5593 0.939111 1.50401e-19)
(2.62246 0.901311 -1.66327e-19)
(2.61986 0.864075 0)
(1.58029 0.469025 1.69944e-20)
(1.53841 0.213244 1.23158e-18)
(1.93728 0.709638 -1.1335e-20)
(1.82373 0.622127 -8.97289e-19)
(2.11312 0.813479 -1.38346e-19)
(2.02408 0.706796 -1.5113e-19)
(2.21636 0.878217 1.67141e-19)
(2.1431 0.7934 7.88275e-19)
(2.28702 0.92333 0)
(2.22351 0.869981 -3.16093e-19)
(2.34851 0.957 -3.18595e-21)
(2.29317 0.927304 0)
(2.41078 0.975908 -2.16691e-19)
(2.3648 0.965673 -3.542e-21)
(2.47502 0.978451 -1.28661e-19)
(2.43858 0.983667 -2.40449e-19)
(2.53987 0.966307 2.39287e-19)
(2.51103 0.983725 -2.07376e-19)
(2.60579 0.942177 -6.41312e-20)
(2.58208 0.970178 -5.37222e-20)
(2.65364 0.941936 4.55444e-19)
(2.66647 0.909751 -1.3463e-19)
(2.05822 0.277586 -4.60753e-19)
(2.07595 -1.05219 -3.55071e-18)
(2.11759 0.429962 -1.37556e-18)
(0.960218 0.0153985 -4.82957e-19)
(2.18046 0.613052 2.16416e-19)
(1.19139 0.171961 2.4692e-21)
(2.22259 0.741643 3.78553e-19)
(1.4782 0.298193 1.12805e-20)
(2.26157 0.84776 -3.45033e-19)
(1.68122 0.447932 -6.90526e-20)
(2.31644 0.927343 0)
(1.87207 0.581517 -3.25507e-21)
(2.38653 0.972635 -2.48161e-21)
(2.05436 0.690049 -2.39191e-19)
(2.46276 0.990206 -2.93451e-19)
(2.21367 0.773603 2.74587e-19)
(2.53935 0.989312 -4.87021e-19)
(2.349 0.832168 -4.41478e-19)
(2.61595 0.976577 3.53498e-19)
(2.46669 0.869888 -5.80831e-21)
(2.57999 0.89933 4.58968e-19)
(2.68495 0.964624 -8.55e-20)
(5.3091 -4.42826 -2.80835e-19)
(6.44221 -5.64842 -7.96913e-19)
(4.6387 -4.17767 1.03998e-18)
(5.69862 -2.54106 1.1978e-18)
(4.28622 -3.50075 -2.07872e-19)
(5.48699 -2.98303 7.05959e-19)
(3.88623 -2.76768 -4.39767e-20)
(4.90508 -2.58159 3.74927e-19)
(3.5864 -2.16237 -2.08521e-19)
(4.30915 -2.11649 -3.93013e-19)
(3.37901 -1.68847 -1.96627e-20)
(3.87825 -1.71277 -2.68864e-19)
(3.2278 -1.32363 -1.63842e-19)
(3.57627 -1.36405 -4.01285e-20)
(3.10848 -1.04165 -9.75314e-20)
(3.35819 -1.07596 -1.40735e-19)
(3.00964 -0.822002 3.58705e-19)
(3.19296 -0.844086 1.65736e-19)
(2.92524 -0.650351 1.15268e-19)
(3.06306 -0.660562 2.36854e-19)
(2.95408 -0.520736 -7.76583e-20)
(2.83806 -0.507471 -5.20691e-19)
(5.10036 -1.63107 3.46135e-19)
(4.9105 -3.09097 1.93096e-18)
(5.70949 -2.08135 9.84305e-19)
(5.20962 -0.182367 -4.77432e-19)
(5.602 -2.19929 1.93014e-18)
(6.1134 -1.37515 1.63465e-18)
(5.1022 -2.10362 -3.15469e-19)
(5.84167 -1.46774 3.58892e-19)
(4.53503 -1.83417 -4.46298e-19)
(5.23514 -1.42204 3.98327e-19)
(4.06616 -1.50146 -3.43817e-19)
(4.63415 -1.28697 -2.80691e-19)
(3.7128 -1.18796 -6.21527e-20)
(4.13772 -1.08515 -7.40294e-20)
(3.45179 -0.92418 9.82272e-20)
(3.76134 -0.874734 9.93756e-20)
(3.25389 -0.713701 3.92784e-20)
(3.48003 -0.685565 1.40883e-19)
(3.09742 -0.553002 5.69659e-20)
(3.26439 -0.52631 -1.02956e-20)
(3.09773 -0.404912 6.67384e-20)
(2.94666 -0.420947 5.69981e-20)
(4.11911 -0.205209 1.29263e-18)
(3.38462 -1.58571 -6.54497e-19)
(5.41297 -0.108846 0)
(4.17596 1.09322 -3.6431e-19)
(5.81853 -0.427401 -8.73728e-20)
(5.68295 0.110649 4.98224e-19)
(5.66158 -0.797068 3.94892e-19)
(5.82813 -0.0525641 -4.88926e-19)
(5.1868 -0.971936 8.47926e-19)
(5.56636 -0.359527 2.50542e-19)
(4.65073 -0.960728 2.71833e-19)
(5.07993 -0.528437 3.772e-20)
(4.17259 -0.839274 8.90081e-20)
(4.55937 -0.563219 2.16559e-19)
(3.79111 -0.681306 1.13916e-19)
(4.10235 -0.511014 2.44631e-19)
(3.49816 -0.529613 9.11891e-20)
(3.73603 -0.420861 -8.61209e-20)
(3.27486 -0.398289 -9.83212e-21)
(3.45299 -0.324344 1.01953e-19)
(3.23614 -0.243956 -6.83456e-20)
(3.08119 -0.288167 -1.83058e-20)
(3.09675 0.273285 -1.8719e-18)
(2.1501 -0.919594 -1.11618e-18)
(4.6336 0.938821 4.10214e-20)
(3.26451 1.44743 4.54267e-20)
(5.39144 0.847176 9.08701e-20)
(4.91878 1.03216 -6.37034e-20)
(5.57268 0.455084 -1.03624e-18)
(5.31 1.0603 -4.78634e-18)
(5.35059 0.0745073 -7.70762e-19)
(5.3869 0.645246 2.80999e-18)
(4.93411 -0.182671 -3.29032e-20)
(5.11933 0.32072 1.36671e-18)
(4.47024 -0.291105 2.96248e-19)
(4.71834 0.0928739 -3.79723e-19)
(4.04664 -0.29647 8.19803e-20)
(4.29019 -0.0239837 -4.96493e-19)
(3.69716 -0.250502 -1.29485e-19)
(3.90455 -0.0620755 5.92093e-20)
(3.42293 -0.189262 5.23111e-20)
(3.58598 -0.05439 -2.24845e-19)
(3.33654 -0.0327152 1.91353e-20)
(3.16814 -0.130602 3.64832e-19)
(2.21046 0.30133 5.65565e-19)
(1.21361 -0.708904 -1.12446e-19)
(3.80276 1.32472 -4.23897e-20)
(2.58288 1.40023 3.3353e-19)
(4.73335 1.54738 -4.31566e-18)
(4.20191 1.49478 2.99599e-19)
(5.12122 1.33511 -1.60565e-18)
(4.67999 1.73907 -8.57909e-18)
(5.12441 0.960158 5.10939e-18)
(4.95103 1.37945 6.47781e-18)
(4.89085 0.594216 1.21353e-18)
(4.86606 1.04501 1.70044e-18)
(4.53754 0.329838 -1.09598e-18)
(4.62475 0.725837 -2.46953e-18)
(4.1556 0.173909 -4.67653e-19)
(4.29265 0.492898 9.54313e-19)
(3.80529 0.100319 9.8641e-22)
(3.94886 0.342027 -4.90341e-19)
(3.51219 0.0756014 -3.0816e-19)
(3.63791 0.257807 -1.17663e-19)
(3.37861 0.218461 2.95096e-19)
(3.23707 0.0649798 -6.0933e-19)
(1.50657 0.20844 -3.93348e-19)
(0.510057 -0.697026 -2.9604e-20)
(3.08353 1.42974 6.80809e-19)
(2.04866 1.25944 0)
(4.0767 1.88021 -2.99732e-18)
(3.58386 1.71157 -1.92094e-21)
(4.55956 1.85095 -1.91552e-18)
(4.09675 2.10482 -5.73743e-19)
(4.703 1.56923 3.58979e-18)
(4.45327 1.84625 -3.46871e-19)
(4.62419 1.21515 -1.49491e-18)
(4.47996 1.57073 -7.63137e-19)
(4.40304 0.893531 -7.41583e-19)
(4.37007 1.24025 -4.4032e-18)
(4.10861 0.64519 1.08934e-18)
(4.14476 0.956765 3.01775e-18)
(3.80257 0.476224 -6.90532e-19)
(3.87345 0.733648 8.85177e-20)
(3.52493 0.368845 2.97823e-19)
(3.60049 0.575386 -8.06784e-19)
(3.35614 0.480171 4.58779e-19)
(3.23675 0.286077 7.98785e-19)
(0.958777 0.0938149 3.6938e-19)
(-0.0220219 -0.774769 1.22892e-17)
(2.49531 1.43341 -6.44596e-19)
(1.59903 1.10818 -6.31264e-18)
(3.49886 2.03257 2.55252e-18)
(3.04267 1.80438 2.74125e-18)
(4.01823 2.13575 1.06262e-18)
(3.58359 2.29107 -2.24855e-18)
(4.23254 1.94867 -4.66241e-18)
(3.97356 2.1254 8.45916e-19)
(4.25582 1.65158 -3.27293e-18)
(4.06098 1.9212 3.90201e-18)
(4.14332 1.33652 -1.45543e-18)
(4.04205 1.61789 -6.38247e-18)
(3.94158 1.0533 2.34291e-18)
(3.90488 1.3292 3.0735e-18)
(3.70021 0.827249 2.51241e-20)
(3.70837 1.07327 7.01903e-19)
(3.46124 0.659056 -1.08243e-18)
(3.48745 0.866583 -4.32109e-19)
(3.27039 0.716196 -9.91249e-19)
(3.21333 0.51716 1.11987e-18)
(0.537409 -0.0271535 7.9796e-18)
(-0.39796 -0.875691 2.06633e-17)
(2.02341 1.39358 -3.88076e-18)
(1.23259 0.970242 -7.08427e-18)
(3.01112 2.09562 -1.84805e-18)
(2.57574 1.82919 -3.59642e-18)
(3.53752 2.2901 -2.8636e-18)
(3.13647 2.37591 -8.29196e-19)
(3.78219 2.17659 9.04108e-18)
(3.53341 2.28488 -1.05626e-19)
(3.86451 1.93987 1.7783e-18)
(3.65233 2.14367 1.09315e-18)
(3.82763 1.65631 -2.82374e-18)
(3.69254 1.87867 -1.63745e-18)
(3.70278 1.37404 1.69563e-18)
(3.6206 1.60731 3.19684e-19)
(3.52638 1.12453 4.35538e-19)
(3.48859 1.34485 1.73312e-18)
(3.33178 0.922096 -3.9124e-19)
(3.32319 1.11556 7.7504e-21)
(3.1496 0.935238 -1.03211e-18)
(3.10711 0.748753 3.8026e-19)
(0.205708 -0.133478 9.18308e-18)
(-0.675027 -0.969929 1.19816e-17)
(1.63355 1.33173 -7.30178e-18)
(0.922332 0.852366 5.97753e-18)
(2.59291 2.10488 -2.96841e-18)
(2.16893 1.81431 -1.17437e-17)
(3.11571 2.36635 1.90213e-18)
(2.74373 2.39877 4.0102e-18)
(3.37078 2.30838 -8.18387e-18)
(3.13465 2.36755 -2.50862e-18)
(3.48532 2.12314 -2.04611e-18)
(3.26932 2.27691 -3.6497e-18)
(3.49762 1.87551 1.36288e-18)
(3.34718 2.04946 1.30494e-18)
(3.43044 1.60995 1.9893e-19)
(3.32163 1.80347 -2.35875e-18)
(3.31063 1.35756 1.49624e-18)
(3.24118 1.54791 1.77997e-18)
(3.16632 1.13607 -4.91554e-19)
(3.12299 1.31057 -2.3074e-18)
(2.98863 1.12063 1.97351e-19)
(2.97625 0.928439 2.83039e-18)
(-0.0673178 -0.215872 9.72281e-18)
(-0.886752 -1.04178 9.34936e-18)
(1.29964 1.26189 3.12019e-18)
(0.638637 0.747138 1.21127e-18)
(2.2253 2.08041 -6.20668e-18)
(1.80429 1.77218 -3.75258e-18)
(2.73996 2.39072 3.34449e-19)
(2.3918 2.38006 -4.37728e-20)
(2.99728 2.3763 2.16483e-18)
(2.7716 2.39962 1.04711e-18)
(3.12954 2.23316 -8.08608e-19)
(2.91535 2.34679 0)
(3.17391 2.01851 -2.02693e-18)
(3.0164 2.1524 -8.15831e-19)
(3.14875 1.77409 -1.20574e-18)
(3.02382 1.93225 -1.14985e-18)
(3.07394 1.52875 -1.53626e-18)
(2.98374 1.69017 7.78008e-20)
(2.9726 1.30385 -1.99796e-18)
(2.9067 1.45419 -8.47576e-19)
(2.80658 1.25644 6.75405e-19)
(2.82814 1.07975 2.64657e-18)
(-0.311214 -0.298018 1.75073e-18)
(-1.09503 -1.12479 3.9811e-18)
(0.990349 1.17268 -5.35511e-18)
(0.359353 0.63422 -9.47823e-18)
(1.88464 2.02647 2.06966e-18)
(1.46594 1.70128 3.12872e-18)
(2.39457 2.37632 5.65676e-19)
(2.064 2.32753 2.38876e-19)
(2.6537 2.39753 -1.01187e-18)
(2.43496 2.3933 -9.18301e-19)
(2.79709 2.28782 6.45514e-20)
(2.58773 2.36884 2.10173e-18)
(2.86319 2.10138 7.99792e-20)
(2.70355 2.20327 -7.45891e-19)
(2.86934 1.87875 0)
(2.73584 2.00654 0)
(2.83084 1.64559 8.30079e-19)
(2.72746 1.78027 -5.95505e-19)
(2.76574 1.4248 1.50798e-18)
(2.68574 1.55193 1.07135e-18)
(2.62239 1.35562 -4.70042e-19)
(2.65867 1.20625 1.2388e-18)
(-0.536309 -0.386758 -5.78598e-18)
(-1.26886 -1.19792 -5.13596e-18)
(0.700981 1.07309 -2.16442e-18)
(0.104111 0.524181 -3.28454e-19)
(1.56693 1.94904 1.59135e-18)
(1.15078 1.60535 5.55057e-18)
(2.07296 2.33089 -1.13025e-18)
(1.7543 2.2478 -1.08194e-18)
(2.33474 2.38299 1.8865e-18)
(2.11923 2.35533 -1.34039e-18)
(2.48665 2.30028 1.61632e-18)
(2.28185 2.35301 4.08167e-18)
(2.56878 2.13762 -9.1831e-19)
(2.40803 2.21247 4.52709e-19)
(2.59924 1.93473 -5.31669e-19)
(2.46057 2.0358 -9.82785e-19)
(2.59072 1.71489 -5.4631e-19)
(2.47826 1.82504 -5.85369e-19)
(2.55835 1.50192 -7.19409e-19)
(2.46723 1.60698 2.63277e-19)
(2.4386 1.41341 -3.66218e-20)
(2.49558 1.29241 1.80039e-18)
(-0.74542 -0.46936 -1.75667e-19)
(-1.41479 -1.26413 -3.07609e-18)
(0.42813 0.963042 6.90341e-18)
(-0.140955 0.407858 3.98575e-18)
(1.2637 1.84824 3.50547e-18)
(0.848593 1.48583 3.27593e-18)
(1.76777 2.2574 -1.26657e-18)
(1.4551 2.1412 -9.69219e-19)
(2.03439 2.33766 3.32749e-19)
(1.81803 2.2887 -3.12595e-18)
(2.19459 2.27779 3.33351e-18)
(1.99268 2.30512 1.97215e-18)
(2.29023 2.13535 5.18607e-19)
(2.12786 2.18669 7.18004e-19)
(2.3412 1.94973 -1.08054e-18)
(2.19855 2.0268 -1.72877e-18)
(2.35879 1.74296 1.19849e-19)
(2.23911 1.83026 -4.56343e-19)
(2.35571 1.53906 9.43416e-19)
(2.25542 1.62361 1.07647e-18)
(2.26023 1.43083 1.32342e-19)
(2.3279 1.33124 -1.68796e-19)
(-0.947225 -0.558073 3.46715e-19)
(-1.55591 -1.3502 4.84949e-19)
(0.158342 0.831559 4.23701e-19)
(-0.388099 0.271473 -3.55684e-19)
(0.963932 1.71938 -8.23851e-19)
(0.550181 1.33694 -5.06893e-19)
(1.4692 2.15483 -2.61135e-18)
(1.15895 2.00421 -5.52305e-19)
(1.74539 2.26307 -1.93506e-18)
(1.52458 2.19194 -1.73148e-18)
(1.9161 2.22408 -5.14473e-19)
(1.71488 2.22716 8.15349e-19)
(2.02526 2.09938 -1.26878e-18)
(1.86021 2.1293 -1.13877e-18)
(2.09536 1.9288 -1.24434e-18)
(1.94891 1.98376 2.17145e-20)
(2.13717 1.73443 3.19259e-19)
(2.01125 1.8002 -7.267e-20)
(2.1609 1.53959 3.7568e-19)
(2.05266 1.60567 3.80239e-20)
(2.08824 1.41727 -7.05931e-19)
(2.17226 1.35089 -4.64364e-19)
(-1.14074 -0.658512 -1.31979e-19)
(-1.68114 -1.43106 2.09062e-18)
(-0.103971 0.680319 -1.26812e-18)
(-0.63028 0.127214 -6.93911e-19)
(0.670248 1.5631 -2.30671e-19)
(0.25708 1.16418 -2.13201e-19)
(1.17675 2.02225 4.48653e-19)
(0.863523 1.83798 1.32798e-18)
(1.46448 2.15935 8.19388e-19)
(1.23526 2.06542 -5.78337e-19)
(1.64786 2.14069 4.01325e-19)
(1.44377 2.1195 -2.03908e-19)
(1.77186 2.03214 4.39851e-20)
(1.60177 2.04106 -1.40077e-18)
(1.86135 1.87502 1.19905e-18)
(1.70988 1.90844 1.39087e-18)
(1.92684 1.69292 -3.40677e-19)
(1.79508 1.73748 4.12876e-19)
(1.97625 1.50917 -9.69408e-19)
(1.86213 1.55614 -7.14955e-19)
(1.93006 1.37948 -3.48564e-19)
(2.01304 1.33748 1.17304e-18)
(-1.32861 -0.764794 1.80024e-18)
(-1.79868 -1.51343 -3.73097e-19)
(-0.363485 0.51066 3.08166e-19)
(-0.87407 -0.0305147 3.67661e-19)
(0.376397 1.37914 1.18587e-18)
(-0.0377433 0.965009 -1.17036e-18)
(0.883043 1.85878 4.93507e-19)
(0.561932 1.63976 2.25641e-18)
(1.18581 2.02478 -1.62992e-18)
(0.942323 1.90448 -6.27941e-19)
(1.38488 2.02688 -1.87944e-18)
(1.1726 1.98 -1.24094e-18)
(1.52667 1.93374 -3.47911e-19)
(1.34747 1.92044 -4.28205e-19)
(1.63786 1.78947 7.10339e-19)
(1.47859 1.80038 7.42882e-19)
(1.72868 1.62005 1.85052e-19)
(1.58979 1.64269 0)
(1.80589 1.4482 -1.4596e-19)
(1.68426 1.47525 2.08564e-19)
(1.78375 1.30649 -2.19006e-19)
(1.886 1.30164 1.28241e-18)
(-1.51664 -0.881127 -1.86515e-18)
(-1.91466 -1.6094 -3.70835e-19)
(-0.627448 0.318552 -9.47095e-19)
(-1.12408 -0.209603 -8.29775e-19)
(0.0745324 1.16349 -3.98048e-19)
(-0.341025 0.733243 -2.98293e-18)
(0.579588 1.65976 1.42697e-18)
(0.245992 1.40303 1.40719e-18)
(0.899397 1.85535 -1.95158e-19)
(0.636559 1.70293 8.66858e-20)
(1.11959 1.87887 1.16403e-19)
(0.891866 1.80097 7.46321e-19)
(1.28484 1.80147 5.42841e-19)
(1.0902 1.76136 7.83169e-20)
(1.42255 1.67095 1.12937e-19)
(1.2508 1.65575 -5.27458e-21)
(1.54206 1.51607 0)
(1.39339 1.51439 0)
(1.6474 1.35798 1.71185e-19)
(1.51812 1.3647 -1.17159e-20)
(1.65159 1.21074 2.59889e-19)
(1.74561 1.21182 7.80626e-19)
(-1.7086 -1.01433 4.2406e-19)
(-2.03099 -1.71904 3.00485e-18)
(-0.89918 0.0993314 -2.6352e-18)
(-1.38213 -0.411641 -2.19634e-18)
(-0.240831 0.910867 -1.53347e-18)
(-0.657819 0.466131 -2.82774e-18)
(0.258129 1.41789 2.32449e-19)
(-0.0925684 1.12094 2.05947e-18)
(0.596327 1.64165 9.77087e-19)
(0.306088 1.44952 -7.92833e-21)
(0.843153 1.68779 7.74628e-19)
(0.589694 1.57012 2.02032e-19)
(1.04002 1.62846 -4.57846e-19)
(0.820836 1.55224 -8.17052e-20)
(1.21174 1.51551 -1.15667e-19)
(1.02062 1.46637 -2.05274e-19)
(1.36488 1.38024 -1.04396e-20)
(1.20238 1.3486 9.60249e-20)
(1.5002 1.24202 4.60461e-20)
(1.36205 1.22442 -4.80771e-20)
(1.53282 1.09536 1.07422e-19)
(1.62565 1.13276 -1.89522e-19)
(-1.90783 -1.16827 3.07478e-19)
(-2.15169 -1.84643 1.41924e-18)
(-1.1832 -0.150603 -2.32663e-18)
(-1.65313 -0.638503 -1.91684e-18)
(-0.577742 0.615008 3.31295e-19)
(-0.997386 0.160244 -4.96066e-19)
(-0.0931978 1.12232 2.01171e-18)
(-0.4668 0.783462 2.56896e-18)