/*--------------------------------*- C++ -*----------------------------------*\
| =========                 |                                                 |
| \\      /  F ield         | OpenFOAM: The Open Source CFD Toolbox           |
|  \\    /   O peration     | Version:  3.0.1                                 |
|   \\  /    A nd           | Web:      www.OpenFOAM.org                      |
|    \\/     M anipulation  |                                                 |
\*---------------------------------------------------------------------------*/
FoamFile
{
    version     2.0;
    format      ascii;
    class       volScalarField;
    location    "0.381016";
    object      epsilon;
}
// * * * * * * * * * * * * * * * * * * * * * * * * * * * * * * * * * * * * * //

dimensions      [0 2 -3 0 0 0 0];

internalField   nonuniform List<scalar> 
21246
(
2373.64
792.728
272.361
78.6068
21.6909
6.04073
1.70138
0.489458
0.149304
0.0535526
0.0255034
1475.06
441.779
178.337
62.2244
19.9071
6.14057
1.83375
0.537426
0.161263
0.0548241
0.0246375
1001.78
321.538
144.16
64.3816
24.3195
8.04816
2.47165
0.725264
0.21132
0.067006
0.0276424
766.857
258.121
116.858
57.0739
24.1413
8.86818
2.91009
0.872392
0.249026
0.0760173
0.0303326
626.776
209.182
95.9506
48.3703
21.0547
8.10406
2.78434
0.876585
0.262584
0.081961
0.0321787
532.387
170.727
79.6616
40.7809
17.9453
7.06604
2.51468
0.828689
0.260678
0.0846238
0.0340437
464.297
143.051
67.1654
34.2785
15.1785
6.05082
2.20619
0.754992
0.248928
0.0845421
0.0348354
411.734
122.093
57.3391
29.0663
12.8916
5.16984
1.91558
0.674915
0.231448
0.0819235
0.0357163
372.578
106.252
49.7052
25.0278
11.0924
4.45777
1.66859
0.601069
0.213428
0.0789142
0.0360268
344.332
94.4415
43.914
21.9964
9.73442
3.91179
1.47257
0.539119
0.197097
0.0758441
0.0357132
322.421
85.3737
39.4283
19.6914
8.70864
3.49774
1.32091
0.489279
0.183039
0.0726318
0.0354458
305.134
78.0292
35.7888
17.8628
7.91012
3.17931
1.20391
0.450151
0.171671
0.0700052
0.0352746
293.491
72.2703
32.9176
16.4582
7.31232
2.94535
1.11822
0.421301
0.163317
0.0681827
0.0352068
287.247
68.1932
30.8099
15.4679
6.91075
2.79344
1.06317
0.402901
0.158181
0.0671507
0.0352849
285.299
65.1942
29.1994
14.7637
6.65696
2.70864
1.03476
0.394159
0.156316
0.0671067
0.0356643
288.109
63.7166
28.1766
14.3783
6.5613
2.69676
1.03605
0.396458
0.158361
0.0683589
0.0365128
295.066
64.9875
28.1015
14.4353
6.75499
2.84315
1.10844
0.425953
0.170015
0.0729084
0.0384146
308.342
68.3285
28.9216
14.9189
7.22497
3.16675
1.2768
0.498841
0.199104
0.0842681
0.042809
330.053
74.3304
30.9619
15.9951
8.05461
3.72965
1.58842
0.644519
0.260496
0.109015
0.0522854
364.331
84.2207
34.8168
17.978
9.4153
4.64912
2.13233
0.923877
0.38936
0.16462
0.0747526
419.825
100.156
41.4524
21.423
11.6345
6.14566
3.07614
1.46139
0.66759
0.298261
0.134796
515.708
124.643
52.2343
27.2342
15.317
8.6481
4.75074
2.51543
1.28488
0.636464
0.308909
693.685
164.995
70.2287
37.2862
21.7972
13.1398
7.90399
4.67232
2.69701
1.51732
0.832535
1070.57
169.62
82.4155
50.2324
32.7303
21.7441
14.4369
9.48722
6.14153
3.90591
2.43803
2746.37
1955.66
415.785
139.405
41.2162
10.384
2.59834
0.679411
0.192334
0.0644403
0.0288035
3523.36
2376.76
887.979
319.618
94.3045
20.3405
4.88712
1.21206
0.313843
0.0937529
0.0371025
2964.6
2037.63
995.725
417.201
148.112
35.1614
8.27064
2.09839
0.529502
0.145318
0.052255
1982.85
1693.32
950.567
436.909
172.093
48.3056
11.8957
3.23125
0.842716
0.227141
0.0799757
1215.2
1475.35
877.433
424.44
176.973
56.0143
14.9933
4.42341
1.23003
0.338883
0.118056
759.056
1339.21
813.519
406.184
174.789
59.949
17.7131
5.53302
1.6538
0.477084
0.171537
519.242
1231.47
764.083
389.739
170.854
62.1119
20.151
6.54787
2.08118
0.629823
0.225054
397.249
1143.06
723.661
374.12
165.94
63.1948
22.1035
7.67221
2.52296
0.792088
0.287799
337.32
1064.17
690.111
359.975
160.999
63.8349
23.814
8.78674
3.05852
0.993736
0.362449
306.824
987.713
661.538
347.898
156.738
64.4895
25.4823
9.9505
3.67243
1.24789
0.451965
287.425
904.971
637.964
339.477
154.248
65.7169
27.358
11.2616
4.39994
1.5736
0.569977
274.32
828.266
617.382
333.125
152.971
67.3926
29.4594
12.7648
5.27542
1.99602
0.72962
268.252
763.136
597.283
328.685
153.275
69.784
31.9493
14.5583
6.36446
2.56171
0.964999
261.927
696.482
575.805
327.407
156.05
73.3229
35.0647
16.7902
7.76641
3.33911
1.32234
257.576
633.998
552.039
327.684
160.573
77.9444
38.9034
19.5792
9.59458
4.41855
1.8755
255.537
576.339
525.824
328.882
167.132
83.9786
43.7312
23.1449
12.0324
5.9524
2.7327
254.017
520.457
496.624
330.06
175.669
91.7688
49.92
27.8108
15.3566
8.17291
4.08523
254.747
468.897
463.789
329.124
185.395
101.464
57.8784
34.0207
19.9728
11.4361
6.23143
260.784
420.958
426.213
322.883
194.694
113.079
68.2469
42.4891
26.5341
16.3134
9.66336
289.806
388.509
384.549
309.01
202.335
127.37
82.5623
54.7401
36.3051
23.825
15.2451
341.572
324.91
323.601
279.118
203.799
143.76
101.899
72.1662
50.5394
35.0353
23.7916
551.644
303.878
246.614
223.151
174.348
132.891
101.292
76.5019
57.0067
41.9383
30.0715
627.164
393.49
380.179
277.273
207.532
156.308
116.04
83.79
58.6967
40.0794
26.6235
1495.54
811.525
460.403
280.157
178.068
115.335
74.9679
48.5174
31.1407
19.7701
12.3626
521.57
266.292
46.0913
10.9625
2.60603
0.83806
0.437873
0.329784
0.298221
0.294408
0.304669
724.627
441.73
104.361
18.7935
4.05298
1.13464
0.502801
0.347568
0.306152
0.301826
0.315129
782.489
440.019
139.89
33.3147
6.12727
1.51055
0.592032
0.371269
0.314049
0.306383
0.320283
714.729
399.178
150.506
41.7089
8.60432
1.89328
0.69124
0.398679
0.322224
0.30926
0.322638
600.536
366.299
151.265
46.2772
10.7694
2.34043
0.790837
0.42829
0.331131
0.31121
0.321737
485.473
341.028
150.859
50.6506
13.1962
3.01416
0.912736
0.459664
0.340952
0.313228
0.320192
380.658
320.635
150.93
55.46
16.1075
3.95492
1.12455
0.504564
0.351773
0.315649
0.319258
291.114
303.435
151.076
60.1665
19.2929
5.168
1.44183
0.576381
0.368974
0.318977
0.318545
221.282
287.708
152.276
65.055
22.8015
6.70167
1.90736
0.691179
0.396288
0.325095
0.318404
169.041
272.755
155.366
70.8845
26.9634
8.71044
2.60293
0.882157
0.443063
0.335773
0.319724
129.842
259.61
159.755
77.4342
31.6901
11.2001
3.58553
1.18868
0.524647
0.3552
0.323009
102.133
249.554
165.046
84.2122
36.6285
14.0274
4.8531
1.64327
0.661157
0.390879
0.330304
85.2927
240.852
171.573
91.708
41.9809
17.2382
6.44862
2.29439
0.883665
0.456119
0.345948
76.771
231.121
179.121
100.594
48.1791
21.0051
8.459
3.21016
1.23846
0.574218
0.378725
75.7771
223.337
187.377
110.651
55.133
25.2658
10.8727
4.42707
1.77263
0.777898
0.445176
82.3252
216.042
195.576
122.364
63.3616
30.2792
13.803
6.02234
2.55387
1.11692
0.573556
93.9812
206.015
201.59
135.994
73.7247
36.6072
17.5278
8.14799
3.68796
1.66829
0.813287
105.576
191.646
202.199
150.314
86.6347
44.8067
22.4143
11.0256
5.32658
2.54538
1.24544
116.34
174.111
194.537
162.323
102.059
55.734
29.1805
15.1174
7.76279
3.94723
2.00914
125.961
154.885
177.22
166.519
118.064
70.1431
39.0299
21.3528
11.6099
6.2731
3.37325
135.44
133.575
151.396
158.17
130.512
88.1631
53.8424
31.5794
18.2245
10.4353
5.94048
173.333
119.895
128.423
144.719
137.312
108.295
75.1827
48.5461
30.1897
18.455
11.1522
200.259
112.465
111.741
115.488
114.628
104.597
86.2981
64.8221
45.5535
30.8717
20.2559
440.911
461.634
348.339
293.762
241.669
189.338
140.939
99.8742
69.2715
47.7983
32.4794
426.87
134.985
34.1908
7.27957
1.89656
0.713509
0.412137
0.320478
0.290954
0.28603
0.294585
403.726
105.338
25.7311
7.54209
2.16668
0.807323
0.436882
0.322874
0.284186
0.273739
0.277611
425.382
124.768
25.8527
9.12704
2.97689
1.09465
0.517951
0.342312
0.283412
0.2643
0.26289
400.097
119.684
24.2764
9.4935
3.34783
1.31473
0.616235
0.376546
0.291527
0.261247
0.254419
362.141
101.096
22.381
9.18866
3.28538
1.32585
0.627813
0.384424
0.293673
0.258718
0.248351
327.778
83.5948
20.3895
8.4823
3.07387
1.28883
0.622507
0.38384
0.292523
0.256275
0.244394
299.479
70.2044
18.5791
7.7291
2.83019
1.22792
0.604669
0.379282
0.291048
0.255097
0.24257
275.16
60.164
16.9728
7.04452
2.61394
1.16587
0.583494
0.37232
0.288177
0.253824
0.242241
256.731
52.6529
15.6771
6.49616
2.45379
1.11277
0.565338
0.365825
0.285392
0.25286
0.242866
243.796
47.2793
14.6504
6.07537
2.35137
1.07521
0.552893
0.360891
0.282859
0.251689
0.243193
235.837
43.58
13.9422
5.80767
2.30142
1.05749
0.547809
0.358335
0.280792
0.249894
0.241642
231.312
40.9364
13.4359
5.65759
2.29554
1.05929
0.550526
0.358762
0.279652
0.247986
0.239836
230.802
39.2011
13.1406
5.62112
2.33733
1.08337
0.562639
0.363108
0.280026
0.246322
0.237572
232.459
39.8156
13.3159
5.7672
2.46328
1.14537
0.591045
0.374121
0.283133
0.245493
0.234999
236.239
41.6955
13.9477
6.10573
2.7055
1.27008
0.652465
0.400472
0.293573
0.248345
0.234061
242.748
44.9788
15.1713
6.6996
3.09288
1.48197
0.762581
0.452029
0.316675
0.257766
0.236558
252.639
50.06
17.2174
7.67425
3.68965
1.82555
0.95134
0.548347
0.364027
0.280287
0.246242
267.502
57.0751
20.3266
9.20961
4.60379
2.37497
1.2723
0.726958
0.460265
0.331249
0.27249
289.632
66.6311
24.894
11.6058
6.03548
3.26897
1.82693
1.06251
0.658735
0.447241
0.33974
323.214
80.1077
31.6827
15.3924
8.36365
4.77883
2.81856
1.71039
1.0778
0.716925
0.51349
376.755
100.23
42.0732
21.5186
12.2982
7.44467
4.66892
3.00604
1.98734
1.3573
0.968362
469.892
132.461
58.9387
31.8724
19.2416
12.367
8.26793
5.68552
4.00563
2.89388
2.15415
655.694
199.287
93.2199
52.7219
33.2942
22.4918
15.8792
11.5866
8.69576
6.69809
5.29431
1202.97
341.228
177.538
112.957
79.7754
59.5382
45.7031
36.3917
29.8122
24.9498
21.0329
295.238
209.828
127.417
89.7734
62.4828
33.4343
13.7041
5.15162
2.03063
0.897099
0.471131
270.657
177.97
122.292
88.7396
64.0135
38.306
16.9996
5.42034
1.7169
0.67474
0.326886
155.087
131.551
101.048
77.5524
58.4822
38.0383
18.8501
6.48064
1.75262
0.539543
0.230718
73.307
95.3512
77.6927
62.5838
49.2359
33.9935
18.3004
6.91381
1.89479
0.498503
0.173301
44.7316
65.7565
57.2036
48.1091
39.2618
28.2646
16.082
6.54179
1.90901
0.483317
0.144624
36.394
42.6001
40.8547
35.9043
30.1845
22.3316
13.1456
5.63329
1.75636
0.45766
0.128144
28.6633
28.0012
28.4165
26.151
22.5398
16.925
10.1453
4.50667
1.49223
0.412324
0.115969
22.9471
19.0349
19.5694
18.6075
16.3893
12.3641
7.471
3.41275
1.19773
0.356676
0.105367
18.6851
13.4746
13.6422
13.0994
11.6758
8.7971
5.34469
2.5149
0.940727
0.305543
0.0971889
15.5364
10.0288
9.85539
9.33561
8.29098
6.23741
3.83165
1.87651
0.755931
0.269538
0.0930171
13.2332
7.9202
7.51656
6.90881
6.05341
4.55894
2.86176
1.47789
0.645755
0.251807
0.0932534
11.6877
6.66679
6.1172
5.44727
4.69448
3.55836
2.30615
1.26484
0.597043
0.250765
0.0981686
10.6462
5.94417
5.31982
4.62714
3.94336
3.02823
2.03641
1.18225
0.594471
0.263672
0.107214
9.86975
5.54415
4.89561
4.20368
3.57181
2.79107
1.94501
1.18427
0.624903
0.288255
0.120099
9.28166
5.3116
4.67922
3.99969
3.41043
2.71518
1.95312
1.23713
0.678933
0.323571
0.137823
8.8483
5.18292
4.58035
3.91628
3.3636
2.72968
2.0226
1.32843
0.756351
0.371884
0.161575
8.50409
5.12908
4.55918
3.90845
3.39001
2.81016
2.14846
1.46571
0.86763
0.441049
0.195484
8.25134
5.12467
4.5915
3.95555
3.48277
2.96831
2.35648
1.67871
1.03756
0.547282
0.24838
8.07003
5.16586
4.67336
4.0717
3.68986
3.28258
2.73689
2.04714
1.32264
0.723217
0.334985
7.95161
5.21364
4.8094
4.33152
4.18893
4.01808
3.55786
2.77757
1.85658
1.04283
0.491141
7.74757
5.36413
5.12273
5.23923
6.2082
7.07016
6.37706
4.66748
3.02381
1.68899
0.798015
15.0942
7.45986
8.8842
17.2724
21.2977
20.8783
17.5013
12.158
6.67628
3.31616
1.48628
18.5192
58.5408
58.9246
54.8307
48.175
40.4196
32.4381
24.2504
15.4787
7.72499
3.3061
332.238
196.295
129.041
89.3098
64.1469
47.0162
35.132
27.0943
20.4562
13.1086
6.61001
343.564
150.907
104.751
80.0982
55.9377
32.4341
15.332
6.412
2.73015
1.27587
0.687988
205.94
75.648
69.1586
67.7788
58.6944
41.2269
22.2677
9.78227
4.19956
1.96142
1.05036
93.7957
37.7622
40.1278
49.5598
54.8151
48.8871
31.9685
15.3073
6.66289
3.09734
1.67144
73.5457
27.8496
25.0512
31.7665
41.6175
47.4054
40.3463
22.9794
10.676
4.97919
2.60376
69.265
27.118
21.3966
23.1139
29.3601
37.8248
41.3767
31.2405
16.5577
8.05395
4.05041
67.0713
27.0089
20.4638
20.1198
23.3274
29.8517
36.38
34.6689
21.9103
10.8182
5.59146
66.1192
27.0126
20.1613
18.7307
20.0491
24.5551
31.3417
34.2514
26.1378
14.2566
7.22864
65.8309
27.215
20.1883
17.9946
17.9979
20.7689
26.6272
31.9359
28.1669
17.6765
9.1926
66.4179
27.5758
20.4555
17.6178
16.6328
17.9817
22.4896
28.4962
28.4801
19.9419
11.5159
67.7947
28.1196
20.9525
17.4767
15.7317
15.9789
19.1119
24.8871
27.5328
21.2304
13.0661
70.0863
29.1072
21.6899
17.5109
15.1822
14.6414
16.6104
21.6272
25.7764
21.6284
13.9303
73.3714
30.5338
22.5852
17.7863
14.9298
13.8541
14.9893
18.9877
24.1095
21.5068
14.3555
78.0676
32.3795
23.7222
18.3037
14.9123
13.4681
14.0781
16.7478
21.3526
21.5174
14.4767
83.8062
34.6508
25.1878
19.0378
15.0193
13.138
13.3071
15.1371
18.1052
19.8493
14.7216
90.7173
37.6015
27.1594
20.1127
15.3038
12.845
12.492
13.588
15.4683
17.0671
15.1717
99.7146
41.5102
29.8556
21.7026
15.871
12.6583
11.7267
12.209
13.4059
14.747
14.5969
111.691
46.798
33.6624
24.1544
16.9776
12.7509
11.1534
11.0852
11.8123
12.8141
13.1791
128.124
54.1373
39.316
28.2499
19.2827
13.5096
10.8725
10.1491
10.4512
11.0981
11.5808
151.401
64.5204
48.2734
35.8006
24.6889
16.4386
11.8658
10.0271
9.50762
9.47844
9.46376
179.825
77.9869
61.0464
47.2024
32.977
21.7756
15.2291
12.2051
11.0345
10.6604
10.4591
198.375
89.5486
70.8928
56.0614
40.521
27.327
19.0106
14.9986
13.5825
13.6316
14.5983
238.952
102.346
79.5583
61.8405
45.0712
30.9886
21.7407
16.9383
14.9842
14.537
14.2896
330.877
134.211
85.7604
62.5072
45.2176
32.0635
23.1968
18.1366
15.628
14.103
10.9885
833.714
149.235
88.0269
57.8158
42.5481
31.7298
23.7135
19.2128
16.3227
13.0086
8.40473
52.0285
56.2471
56.9131
59.006
58.8572
56.2699
50.9599
44.2827
33.9946
16.7098
17.1124
17.7518
17.1788
16.531
15.9297
15.0885
15.485
14.9251
7.78693
8.33369
9.08355
8.96773
8.3744
7.61659
7.21942
8.21343
9.47842
3.95926
4.19425
4.74916
4.84299
4.49193
4.09361
3.95352
4.49265
5.7708
45.0223
37.3301
26.7667
11.4373
4.28746
3.42231
2.76686
4.73092
19.4538
16.2795
15.8562
14.5903
11.1974
5.51126
1.92155
2.66358
7.44584
12.0453
7.88432
9.15252
10.4157
9.77064
5.4515
2.09218
2.85688
6.17349
9.0557
4.23285
5.09858
6.71824
7.68094
5.30423
2.43282
2.88772
5.09197
6.4496
0.00901424
0.00829301
0.00834673
0.0367696
0.38154
0.00756537
0.143218
0.00808074
0.00753648
0.0069124
0.385322
0.00811659
0.00961498
0.00473947
0.0146075
0.00728187
0.00511237
0.0361221
0.00724478
0.00710458
0.00664292
0.0627221
0.00852031
0.0886728
0.00792729
0.00473911
0.00938195
0.135304
1.67883
0.412378
0.00559922
0.00641709
0.00578993
0.00806483
0.00676771
0.00826233
0.0804462
0.00791064
0.00645335
0.00759974
0.24148
0.00809605
0.0492769
0.00849489
0.795745
0.31684
0.0112886
0.419246
0.00691578
0.00730127
0.405864
0.0076191
0.0837876
0.0499218
0.00729429
0.00667089
0.0600398
0.00764109
1.65491
0.0542851
0.131674
0.0840487
0.468297
0.0889179
0.256237
0.0071412
0.411499
0.0070823
0.0082954
0.00689427
0.00521355
0.00710797
0.0244457
0.00775338
0.0992736
0.00708892
0.0834143
0.00827666
0.0738895
1.02391
0.0838287
0.0733358
0.00793473
0.00837992
0.00693827
0.0245431
2.99884
0.0761145
0.0239211
0.0503287
0.00809106
0.00767643
0.233577
0.00716676
0.999161
0.518672
0.0732265
0.00595004
0.0284058
0.00731638
0.00783726
0.398523
0.0067749
0.00615515
0.0215422
0.00811425
0.0051259
0.00845243
0.0074091
0.00669332
0.00796782
0.0081473
0.00715987
0.0270348
0.0371695
0.0076923
0.00755003
0.00731099
0.00792684
0.00672533
0.0251781
0.00758405
0.00765563
0.00477635
0.295477
0.00723714
0.0416366
0.00532646
0.00503591
0.00579746
0.00779486
0.0534801
0.409988
0.00708919
0.00833947
0.00803251
0.0700366
0.044422
0.422358
0.00733252
0.0488879
0.006614
0.273316
0.00868249
0.0075171
0.0205367
0.016281
0.0070983
0.00709744
0.00706339
0.00714197
0.00767387
0.0223369
0.00746962
0.0316154
0.014263
0.0251556
0.0453931
0.00577202
0.00746347
0.00546576
0.0352594
0.00710165
0.00772048
0.43558
0.0152308
0.0258502
0.00760651
0.00627291
0.240253
0.00497116
0.00610026
0.00696686
0.0064544
0.00640814
0.00641128
0.00591721
0.0250762
0.81528
0.00695426
0.00711574
0.0702132
0.00849893
0.0919957
0.00793818
0.0328424
0.00707141
0.00726036
0.00824851
0.125375
0.00737688
0.00500991
0.00718447
0.217539
0.00832364
0.00759603
0.00741329
0.0290814
0.00606179
0.00856735
0.0257217
0.00726683
0.00818705
0.00609262
0.00838639
0.0750178
0.00714466
0.00502597
0.00737445
0.00740452
0.0498554
0.00759391
0.00827111
0.00670315
0.00791482
0.112781
0.00797752
0.0138532
0.00711742
0.00889043
0.00916344
0.0299412
0.0655184
0.0347461
0.00473408
0.00765757
0.0599778
0.0124518
0.00662738
0.267045
0.0447251
0.00713321
0.00711831
0.00768108
0.0234816
1.43699
0.23173
0.00845168
0.00813661
0.0080952
0.0138535
0.0897743
0.00612459
0.15783
0.00715388
0.0425878
0.00800401
0.00664918
0.542066
0.111836
0.00659073
0.0525688
0.00968665
0.0072617
0.00600827
0.00745541
0.00674258
0.00786158
0.0177753
0.00705319
0.00846071
0.00981542
0.00737861
0.00819343
0.00796221
0.0109091
0.00661188
0.00714771
0.0175878
0.00694118
0.180908
0.00727889
0.00724294
0.0110009
0.00755445
0.00735523
0.00491612
0.00775767
0.00692281
0.0238961
0.00718296
0.00827613
0.087113
0.204368
0.00601909
0.00757848
1.6161
0.00823642
0.00683132
0.0459244
0.00834071
0.12847
0.00784117
0.00719647
0.00856445
0.00740731
0.00625272
0.00815831
0.00677548
0.0049986
0.00776869
0.0244821
0.00706534
0.419103
0.00677948
0.00667233
0.00827827
0.0147573
0.0665115
0.00742963
0.0955895
0.00815959
0.0064436
0.00565208
0.0903933
0.00655121
0.00663044
0.021415
0.00670724
0.00730975
0.00707153
0.0413861
0.00746166
0.00538046
0.0455867
0.00699719
0.00778725
0.00577621
0.00708869
0.140376
0.00707984
0.477269
0.0748599
0.00846762
0.0104265
0.694066
0.0258359
0.00823598
0.00784725
0.00585357
0.0303964
0.0542252
0.00723035
0.0180462
0.16018
0.0152398
0.0556961
0.00753724
0.0710885
0.0543978
0.121881
0.00584391
0.0070043
0.00683797
0.0135365
0.00860268
0.00987029
0.00695508
0.00849925
0.141805
0.00985748
0.00488281
0.00800336
0.00798937
0.00726464
0.0244342
0.00569272
0.0119411
0.152636
0.00782705
0.0077354
0.0898084
0.640557
0.00455214
0.0120748
0.00831055
0.00905048
0.00672914
0.00751093
0.00708291
0.103673
0.00754366
0.0222467
0.00767917
0.00496587
0.331836
0.0251547
0.00475241
0.093002
0.0276034
0.00770664
0.0581346
0.00494908
0.00812955
0.334824
0.272526
0.00787504
0.00718946
0.00835866
0.0241076
0.0174651
0.00764742
0.0085103
0.0461216
0.00655262
0.333838
0.0639901
0.0117521
0.00726452
0.0401751
0.00724558
0.00719648
0.00727366
0.00692147
0.0208779
0.0063832
0.00750761
0.00828696
0.00483355
0.0473688
0.217555
0.00626842
0.166474
0.00663798
0.00627631
0.00666459
0.00765728
0.0284001
0.0126795
0.280733
0.00789821
0.0218266
0.00507187
0.006626
0.00841356
0.0129829
0.155949
0.3943
0.00479491
0.00860017
0.00595682
3.03834
0.0434953
0.0251724
0.00692855
0.0245517
0.0711567
0.0430687
0.00740376
0.0373194
0.00774666
0.00833494
0.00793787
0.0366778
0.0192648
0.166655
0.00494231
0.0275686
0.0257788
0.00825511
0.00738832
0.0442002
0.00504077
0.00597862
0.00717319
0.141146
0.111124
0.0902243
0.0916647
0.00707953
0.00656942
0.0302024
0.00699624
0.126726
0.00702638
0.00822664
0.00731527
0.0347619
0.0353486
0.00709181
0.00778648
0.00669521
0.178124
0.0747515
0.00845232
0.0180308
0.365186
0.00941442
0.0144845
0.0074011
0.0269098
0.00758675
0.00701389
0.0076406
0.00535989
0.00677384
0.0071507
0.00550837
0.00853056
0.00713162
0.00559255
0.00574357
0.00805987
0.00806575
0.561577
0.0205567
0.0295475
0.00708908
0.342389
0.00835655
0.240818
0.0163988
0.0287088
0.0133677
0.00799595
0.286552
0.0186819
0.00547484
0.00778832
0.00634223
0.00667073
0.00827018
0.00768474
0.00817901
0.00687946
0.104147
0.00798641
0.00744643
0.066488
0.00774367
0.210417
0.00670434
0.0125482
0.00567202
0.0241881
0.00856275
0.00786406
0.00841237
0.192329
0.0363839
0.00795105
0.00791703
0.00476579
0.00834356
0.0460834
0.00830614
0.0927541
0.00682345
0.0500574
0.00667483
0.00770917
0.333641
0.256672
0.00681209
0.00659567
0.00705921
0.00830045
0.013018
0.039688
0.00721099
0.00633564
0.372047
0.498376
0.00792152
0.00728318
0.00827624
0.0711648
0.253182
0.0197044
0.00807645
0.00752309
0.19454
0.00715865
0.00662301
0.00516939
0.0127456
0.305173
0.00772362
0.0201125
0.0078186
0.0186721
0.00735773
0.108366
0.00617764
0.0064226
0.0944566
0.0191275
0.00841863
0.00854722
1.00516
0.00763369
0.0061574
0.0288287
0.0216727
0.0765221
0.030091
0.0068216
0.00688219
0.00774887
0.00790358
0.510067
0.010697
0.0122151
0.00711071
0.00795145
0.0531971
0.00703513
0.00723619
0.00706835
0.00706432
0.00647522
0.0100868
0.0224061
0.0180582
0.00620595
0.0101695
0.00723988
0.0430401
0.00704453
0.00779396
0.563425
0.0769034
0.00755392
0.00756415
0.067336
0.00673389
0.00737045
0.0194392
0.00831142
0.00683732
0.00823678
0.00697292
0.00828321
0.00445216
0.00577875
0.0465773
0.0244877
0.030118
0.0243091
0.0063714
0.0262235
0.0233054
0.00869757
0.00836319
0.00683
0.0449727
0.00605915
0.00697799
0.00732941
0.00509844
0.0491293
0.504382
0.00609471
0.00697545
0.00769788
0.0124085
0.00811996
0.00722282
0.00694333
0.0117585
0.00699861
0.00711357
0.00691406
0.00825127
0.0376861
0.0549957
0.266608
0.00703847
0.00701346
0.00754882
0.0388826
0.0072486
0.154629
0.00714871
0.0934224
0.0242293
0.00771818
0.0173161
0.00849536
0.00562232
0.0482682
0.00649503
0.500699
0.00553704
0.00665194
0.00841671
0.0131693
0.00507102
0.0372224
0.0474695
0.00750823
0.00640294
0.00840308
0.00784472
0.00694391
0.0164021
0.00812444
0.00763835
0.00760865
0.00949156
0.0161648
0.00816158
0.00774911
0.00750716
0.0114181
0.00579007
0.00648236
0.0318142
0.124187
0.00724957
0.00634149
0.00583389
0.00748049
0.0288383
0.00536461
0.152129
0.00784037
0.0058098
0.00791208
0.0070813
0.0892226
0.0126685
0.0283183
0.00472118
0.00717426
0.00682788
0.00669834
0.0142753
0.00823662
0.050887
0.04196
0.0959453
0.00666612
0.0102562
0.0437816
0.0763853
0.00761271
0.00753508
0.0357209
0.022056
0.00802744
0.00491377
0.332856
0.00811249
0.191894
0.00928487
0.00774732
0.0905129
0.00755468
0.0070067
0.00682274
0.0078549
0.00721254
0.00462121
0.00818428
0.00563481
0.00708805
0.00697783
0.0203037
0.0705913
0.00700608
0.0072217
0.134129
0.307208
0.00782572
0.00446765
0.00709914
0.0264975
0.00975343
0.0472524
0.00769905
0.0393969
0.00668407
0.00879626
0.00719726
0.00691544
0.00766384
0.053715
0.0572469
0.00860518
0.00789275
0.00738987
0.384418
0.0514288
0.00678638
0.00818967
0.00593888
0.0080054
0.00813535
0.00821622
0.00837859
0.00788223
0.00715583
0.0057245
0.0548371
0.0726127
0.0052942
0.00811214
0.00769782
0.00793271
0.00670811
0.148594
0.00827372
0.00635632
0.00792437
0.309091
0.070342
0.0350966
0.00778621
0.0459137
0.00771135
0.00782817
0.271711
0.00714928
0.00815128
0.00731684
0.0105949
0.00601658
0.00592342
0.00813711
0.010723
0.159393
0.0236117
0.00814672
0.00481481
0.0351098
0.0157356
0.0340363
0.00842811
0.00717573
0.0364934
0.00947939
0.0235709
0.00829214
0.00691619
0.00747247
0.00733578
0.00824146
0.0837473
0.00628403
0.192679
0.229056
0.044108
0.00809147
0.448664
0.00853061
0.00713767
0.00753367
0.00789877
0.00765994
0.00768593
0.0197442
0.0928105
0.0140183
0.00764852
0.0510277
0.00767974
0.00860013
0.00729608
0.0075478
0.00743674
0.00792955
0.00814419
0.00715681
1.78252
0.00754596
0.00713002
0.0119092
0.186044
0.00709623
0.00796454
0.057
1.32877
0.00701308
0.00771396
0.0079656
0.0409005
0.00846348
0.0080861
0.0069688
0.00860595
0.0321154
0.0082707
0.0651546
0.00721197
0.0253287
0.00632589
0.00820763
0.00527929
0.0288528
0.00775946
0.00760791
0.00710259
0.00831251
0.00595056
0.235952
0.00655794
0.0194957
0.0697694
0.0256899
0.00603294
0.0495246
0.00851078
0.00813778
0.00516984
0.00706787
0.00525595
0.00762319
0.239256
0.00718338
0.00876269
0.00730081
0.00444473
0.00587237
0.0261213
0.00632041
0.00694428
0.00804422
0.229545
0.0627729
0.0389348
0.00704938
0.00741871
0.00708982
0.00776911
0.0690679
0.00753476
0.00830179
0.00609507
0.259971
0.0918292
0.040783
0.00518502
0.00485184
0.110628
0.462109
0.00801767
0.00725226
0.0511736
0.00759891
0.0186505
0.00791629
0.0366899
0.00640311
0.0113705
0.00830275
0.00748611
0.00845278
0.00765237
0.00759125
0.0297059
0.00709529
0.00780222
0.00716908
0.00983919
0.00924982
0.0442141
0.00715819
0.00685943
0.322451
0.0134522
0.0484066
0.00832403
0.0129299
0.00592145
0.00827751
0.0269039
0.00646074
0.0532155
0.37792
0.00608704
0.0119272
0.00653191
0.00740077
0.0128052
0.0095046
0.00702499
0.0148185
0.0081305
1.21422
0.010435
0.449481
0.00812842
0.0204266
0.0322721
0.398939
0.00781359
0.00588744
0.00855529
0.00485512
0.205807
0.00815304
0.00890413
0.116087
0.0170242
0.149503
0.00678916
0.00779572
0.00734864
0.0476383
0.00698119
0.217382
0.00841237
0.0120829
0.283413
0.00827682
0.0121559
0.0352283
0.0286
0.0349057
0.0243425
0.00756464
0.0116999
0.00446275
0.00810179
0.00788179
0.00856644
0.081526
0.00663139
0.00831676
0.00550653
0.0418636
0.00449015
0.00801981
0.112672
0.0136534
0.00689179
0.00893611
0.00813473
0.00706822
0.0073382
0.207533
0.00710061
0.0710263
0.00615638
0.0276117
0.00796396
0.0069483
0.00796224
0.00752683
0.0296249
0.169252
0.0453681
0.719092
0.272522
0.495043
0.00683547
0.00731346
0.0244312
0.00838704
0.00595301
0.0952828
0.00687561
0.137026
0.00604719
0.253598
0.0069052
0.0047705
0.00811902
0.232023
0.00862642
0.520812
0.00631664
0.0080747
0.0500278
0.0397482
0.00685954
0.019403
0.0352239
0.0507454
0.0731978
0.0199302
0.278322
0.00575379
0.0237153
0.321879
0.013716
0.00832725
0.00580885
0.00714404
0.00498314
0.00538768
0.0243466
0.00772716
0.0106866
0.723352
0.00751624
0.00712439
0.00721577
0.00818395
0.00737735
0.00541897
0.00696899
0.00572997
0.330573
0.00712244
0.598148
0.0788112
0.00769756
0.203476
0.0510435
0.0110556
0.00739089
0.0236329
0.00768717
0.00804245
0.30138
0.00750669
0.00824153
0.00533206
0.00809698
0.00711631
0.264025
0.00781994
0.606412
0.0137207
0.0258858
0.00722667
0.0125558
0.0444578
0.0052454
0.291517
0.00776833
0.00840233
0.0461918
0.00567749
0.0149339
0.0304082
0.00920714
0.00747198
0.0885516
0.0183751
0.00644304
0.00732418
0.0227633
0.00693892
0.0151551
0.0280506
0.367191
0.00712654
0.00860378
0.00797492
0.00626623
0.00687045
0.00451189
0.03708
1.40336
0.00827821
0.0240002
0.0280438
0.00819682
0.0364366
0.00709713
0.00700615
1.85187
0.0379146
0.372937
0.290384
0.00815447
0.00792894
0.0214706
0.352396
0.0591633
0.259745
0.0048627
0.00816647
0.00714103
0.00530804
0.0406995
0.047134
0.00663745
0.00738058
0.0274238
0.0558593
0.0214264
0.00681079
0.0711206
0.351813
0.00638293
0.00556862
0.00725423
0.00721445
0.348739
0.00472427
0.00702662
0.0151208
0.00773061
0.00649456
0.439791
0.0287645
0.00779002
0.095687
0.0150459
0.00751931
0.19618
0.0571466
0.00835997
0.00500607
0.0142284
0.00660272
0.0920194
0.00806857
0.00768134
0.00698194
0.140345
0.00694019
0.00745768
0.0181003
0.00833621
0.00814341
0.00859551
0.004883
0.0077107
0.0185429
0.0186717
0.0081477
0.401026
0.0401721
0.00635176
0.0322414
0.00807611
0.00515649
0.0313397
0.00801406
0.00815938
0.00788025
0.00586469
0.00793724
0.00716392
0.00801296
0.0530801
0.0522232
0.00508592
0.0378818
0.00690142
0.0624768
0.0183446
0.00855514
0.00668928
0.015906
0.00485406
0.00674503
0.0059926
0.00667095
0.00681099
0.00794638
0.0407305
0.0235352
0.0240689
0.0671432
0.0085936
0.0109375
0.0568941
0.014582
0.00889903
0.00759222
0.0336926
0.101906
0.201613
0.00474422
0.00757765
0.0329572
0.00538565
0.00796006
0.982555
0.0053037
0.00671629
0.0170104
0.0158868
0.00585383
0.022722
0.0402621
0.0048591
0.587497
0.837439
0.00789926
0.00710255
0.0750251
0.178934
0.0104523
0.00811179
0.0063569
0.00839195
0.00738612
0.087503
0.00761655
0.00845841
0.149383
0.0270073
0.00727146
0.00770533
0.0075882
0.0067735
0.00858057
0.00716458
0.00996731
0.0070358
0.00879603
0.00803056
0.02178
0.00817954
0.0604599
0.00769736
0.0209396
0.00837843
0.0078686
0.0696595
0.303527
0.00705935
0.00781419
0.0060338
0.00868533
0.00826436
0.0087657
0.00680839
0.00739451
0.00620313
0.00753337
0.0316002
0.00507473
0.0460485
0.00848135
0.0297628
0.00788447
0.00670164
0.00769411
0.00833071
0.00802441
0.256409
0.0072529
0.0459469
0.00789871
0.00800302
0.400039
0.00844817
0.00855172
0.109704
0.179351
0.0280515
0.00754474
0.0199014
0.00788633
0.113027
0.00653431
0.0442146
0.00734734
0.00604599
0.0261315
0.00764727
0.0321272
0.00708042
0.0153443
0.0141939
0.00753787
0.00737051
0.00740472
0.146841
0.0125887
0.00482007
0.0225868
0.00642228
0.00595297
0.00840187
0.0104267
0.0291284
0.00751426
0.00811645
0.0446742
0.00698891
0.00689516
0.0068576
0.00533893
0.00789877
0.0238495
0.0295467
0.00706972
0.0178347
0.00797988
0.00704171
0.00702515
0.966228
0.00737638
0.0072138
0.0383097
0.0321512
0.00820187
0.00706547
0.0289692
0.0105693
0.0066283
0.00716117
0.00752605
0.030458
0.00755241
0.00693642
0.0829567
0.00714622
0.00830076
0.0072927
0.00689372
0.00813535
0.0173694
0.00763447
0.0286613
0.00524733
0.0134066
0.00812678
0.00500046
0.0313641
0.00690838
0.00815837
0.00764605
0.00724583
0.0385788
0.0136571
0.00502883
0.00845502
0.00716757
0.305273
0.00803095
0.00703344
2.16081
0.00675265
0.00707402
0.00709585
0.00703128
0.00644721
0.00631889
0.0103006
0.00501683
0.0221883
0.00707471
0.00760934
0.0135848
0.00500167
0.00748348
0.00646174
0.00562451
0.00728601
0.0650281
0.00855884
0.0190277
0.00748156
0.00688343
0.00594695
0.00616315
0.0126728
0.00795669
0.0072109
0.00670346
0.00756623
0.00836675
0.022438
0.0550626
0.03287
0.0103529
0.0400946
0.00682997
0.00757762
0.00745738
0.348333
0.00730123
0.00541011
0.360553
0.00710939
0.128827
0.120263
0.00697355
0.00810033
0.00679132
0.00526115
0.00488194
0.00693245
0.00812432
0.00936259
0.0396208
0.00479963
0.0341154
0.00781839
0.0488025
0.0197419
0.979563
0.00885002
0.00992237
0.00477859
0.00828562
0.00685724
0.0206329
0.00790398
0.0112034
0.00486506
0.0109256
0.0053365
0.0408588
0.018556
0.0232
0.162426
0.00780507
0.308837
0.00747539
0.00654168
0.00596565
0.0234814
0.00840211
0.540752
0.00781542
0.0365482
0.316528
0.00499215
0.262028
0.0379815
0.0703537
0.00736814