/*--------------------------------*- C++ -*----------------------------------*\
| =========                 |                                                 |
| \\      /  F ield         | OpenFOAM: The Open Source CFD Toolbox           |
|  \\    /   O peration     | Version:  3.0.1                                 |
|   \\  /    A nd           | Web:      www.OpenFOAM.org                      |
|    \\/     M anipulation  |                                                 |
\*---------------------------------------------------------------------------*/
FoamFile
{
    version     2.0;
    format      ascii;
    class       volScalarField;
    location    "0.460817";
    object      nut;
}
// * * * * * * * * * * * * * * * * * * * * * * * * * * * * * * * * * * * * * //

dimensions      [0 2 -1 0 0 0 0];

internalField   nonuniform List<scalar> 
21246
(
3.5532e-05
0.000123071
0.000120194
0.000129274
0.000120697
9.99781e-05
7.78555e-05
6.35093e-05
5.42529e-05
4.70945e-05
4.06964e-05
2.96586e-05
0.000101683
8.68129e-05
0.000118637
0.000128229
0.000107514
8.03437e-05
6.22914e-05
5.13359e-05
4.3366e-05
3.66549e-05
2.90404e-05
8.30301e-05
7.92918e-05
9.39648e-05
0.000120286
0.000115639
8.55975e-05
6.33302e-05
5.0294e-05
4.14008e-05
3.43176e-05
3.02012e-05
7.22215e-05
7.64638e-05
8.51467e-05
0.000107424
0.000121822
9.21485e-05
6.59623e-05
5.07212e-05
4.09343e-05
3.37134e-05
3.13828e-05
6.76523e-05
7.4689e-05
8.02009e-05
9.89543e-05
0.000122837
9.91133e-05
6.97601e-05
5.22825e-05
4.15743e-05
3.42556e-05
3.19041e-05
6.63201e-05
7.34689e-05
7.65431e-05
9.11229e-05
0.000116128
0.000105309
7.45332e-05
5.47544e-05
4.30106e-05
3.54042e-05
3.18835e-05
6.7067e-05
7.30754e-05
7.40819e-05
8.42248e-05
0.000105302
0.000106436
8.03533e-05
5.80166e-05
4.50702e-05
3.69905e-05
3.14811e-05
6.97008e-05
7.38905e-05
7.29872e-05
7.91164e-05
9.49042e-05
0.000102333
8.51946e-05
6.24566e-05
4.7836e-05
3.89937e-05
3.0667e-05
7.34037e-05
7.59874e-05
7.30585e-05
7.55309e-05
8.61388e-05
9.50593e-05
8.71875e-05
6.72919e-05
5.13227e-05
4.15119e-05
2.94945e-05
7.76347e-05
7.93602e-05
7.4204e-05
7.31104e-05
7.88965e-05
8.63373e-05
8.52368e-05
7.14834e-05
5.54181e-05
4.45162e-05
2.82025e-05
8.27485e-05
8.42689e-05
7.66831e-05
7.21099e-05
7.365e-05
7.82848e-05
8.01338e-05
7.35209e-05
5.97657e-05
4.8025e-05
2.69782e-05
8.94261e-05
9.11283e-05
8.07799e-05
7.27217e-05
7.05733e-05
7.2195e-05
7.40756e-05
7.26137e-05
6.35192e-05
5.19895e-05
2.60046e-05
9.74436e-05
0.000100172
8.67698e-05
7.49461e-05
6.92819e-05
6.79746e-05
6.84454e-05
6.92018e-05
6.54841e-05
5.60823e-05
2.54188e-05
0.000106148
0.000111505
9.51225e-05
7.90498e-05
6.96667e-05
6.54283e-05
6.3894e-05
6.45083e-05
6.47212e-05
5.94555e-05
2.52733e-05
0.000116763
0.00012569
0.000106421
8.54752e-05
7.19617e-05
6.4691e-05
6.09532e-05
6.0112e-05
6.15844e-05
6.08688e-05
2.55327e-05
0.000128961
0.000142851
0.000121449
9.4942e-05
7.65229e-05
6.58156e-05
5.96823e-05
5.68545e-05
5.74411e-05
5.94332e-05
2.58638e-05
0.000140761
0.000162214
0.000141017
0.000108662
8.42007e-05
6.92196e-05
6.02557e-05
5.5163e-05
5.37284e-05
5.56915e-05
2.55065e-05
0.000151318
0.000182384
0.000165299
0.000128034
9.63554e-05
7.58612e-05
6.32701e-05
5.55253e-05
5.15909e-05
5.15431e-05
2.43699e-05
0.000158509
0.000200662
0.000192816
0.000154293
0.000115083
8.7543e-05
6.99953e-05
5.87852e-05
5.19232e-05
4.89419e-05
2.24154e-05
0.000160228
0.000213444
0.000219354
0.000187006
0.000142996
0.000107468
8.31341e-05
6.69236e-05
5.61923e-05
4.96651e-05
1.9668e-05
0.000152241
0.000217211
0.000239449
0.000222729
0.000182164
0.000140697
0.000108073
8.45011e-05
6.79158e-05
5.65441e-05
1.71404e-05
0.000138917
0.000211071
0.000248926
0.000252229
0.000227513
0.000189562
0.000151618
0.000119659
9.48507e-05
7.62388e-05
1.30382e-05
0.00010739
0.000155032
0.000195974
0.000218474
0.000225497
0.000216415
0.000194691
0.000167366
0.000140533
0.000116438
1.03333e-05
3.96905e-05
5.55282e-05
7.71774e-05
0.000100536
0.000124344
0.00014541
0.000157048
0.000158956
0.000153538
0.000142671
2.97735e-05
0.000112844
0.000117872
0.000120584
0.000116112
9.92114e-05
8.07969e-05
6.81597e-05
5.97283e-05
5.32035e-05
4.74092e-05
2.00076e-05
9.40451e-05
0.000119629
0.000130218
0.000126442
0.000110433
9.11562e-05
7.70762e-05
6.7818e-05
6.09129e-05
5.49211e-05
2.00429e-05
8.31722e-05
0.0001176
0.000149589
0.000147981
0.000130808
0.00010804
9.05467e-05
7.9666e-05
7.2242e-05
6.62845e-05
2.22595e-05
7.68598e-05
0.000113745
0.000161425
0.000171108
0.000159941
0.000136548
0.000114028
9.86793e-05
8.89393e-05
8.20859e-05
2.50854e-05
7.15455e-05
0.000112843
0.000165098
0.000178389
0.000170538
0.000148262
0.000125896
0.000110279
0.000100241
9.3161e-05
2.78176e-05
6.75602e-05
0.000112367
0.000164421
0.000180441
0.000176733
0.000156692
0.000135223
0.000119992
0.000110439
0.000104128
3.03447e-05
6.46857e-05
0.000111755
0.000162134
0.000180227
0.000180311
0.000162828
0.000143116
0.000128996
0.000120585
0.000115742
3.27044e-05
6.26301e-05
0.000111004
0.000159604
0.000179537
0.000182835
0.000167872
0.000150147
0.000137447
0.000130555
0.00012758
3.47271e-05
6.1098e-05
0.000110143
0.000157397
0.000179252
0.00018503
0.000172516
0.000156547
0.000145004
0.000139141
0.000136942
3.64033e-05
5.98038e-05
0.00010931
0.000155611
0.000179596
0.000187392
0.000177152
0.000162576
0.000151871
0.000146824
0.00014562
3.77108e-05
5.85433e-05
0.000108298
0.000154329
0.000180386
0.000190198
0.000182032
0.000168468
0.000158241
0.000153794
0.000153627
3.87453e-05
5.7268e-05
0.000107098
0.000153349
0.000181456
0.000193426
0.000187243
0.000174382
0.000164241
0.00016006
0.000160659
3.94354e-05
5.58305e-05
0.000105599
0.000152447
0.000182691
0.000197069
0.000192913
0.00018052
0.000170018
0.000165629
0.000166683
3.97025e-05
5.28213e-05
0.000101742
0.000149575
0.000182347
0.000199903
0.000198677
0.000187081
0.000175854
0.000170655
0.000171418
3.94681e-05
4.92945e-05
9.52478e-05
0.00014308
0.000177542
0.000198124
0.000201312
0.000192746
0.000181895
0.000175773
0.000175582
3.87011e-05
4.53545e-05
8.62898e-05
0.000132747
0.000168136
0.000191071
0.000199213
0.000195788
0.000187411
0.000181082
0.000179639
3.73916e-05
4.1195e-05
7.53949e-05
0.000118512
0.000153924
0.000178372
0.000190884
0.000193526
0.000190154
0.000185729
0.000183787
3.54611e-05
3.7077e-05
6.37926e-05
0.000101275
0.000135189
0.000160183
0.000175686
0.000183462
0.000186208
0.000186509
0.000186615
3.28464e-05
3.3047e-05
5.24913e-05
8.25323e-05
0.000112795
0.000137006
0.000153902
0.000164746
0.000172037
0.00017774
0.000182774
2.95179e-05
2.90091e-05
4.21239e-05
6.40113e-05
8.84449e-05
0.000110004
0.000126602
0.000138508
0.000147564
0.000155828
0.000164606
2.54406e-05
2.47915e-05
3.29499e-05
4.72534e-05
6.4598e-05
8.14994e-05
9.58768e-05
0.000107158
0.000116051
0.000123921
0.000132187
2.0604e-05
2.01822e-05
2.48671e-05
3.30983e-05
4.35946e-05
5.46991e-05
6.50987e-05
7.40821e-05
8.15824e-05
8.80249e-05
9.41685e-05
1.50421e-05
1.46528e-05
1.70203e-05
2.09841e-05
2.61036e-05
3.18185e-05
3.75975e-05
4.30661e-05
4.80271e-05
5.24578e-05
5.6505e-05
9.0876e-06
9.60547e-06
1.16095e-05
1.40987e-05
1.69678e-05
2.004e-05
2.32346e-05
2.79042e-05
3.42735e-05
4.25387e-05
5.26089e-05
3.0153e-05
0.000152349
0.000250037
0.000340309
0.000384066
0.00038178
0.00038393
0.000444355
0.000549161
0.000638893
0.000642808
2.19257e-05
9.19895e-05
0.000172031
0.000255971
0.000316741
0.000335883
0.000340647
0.000397039
0.000498178
0.00057185
0.000567358
1.73901e-05
6.92674e-05
0.000133221
0.000204007
0.000264842
0.000295997
0.0003057
0.000337733
0.000428227
0.000514795
0.00050599
1.44307e-05
6.43824e-05
0.000114531
0.000173245
0.000228769
0.000264362
0.000279859
0.000300238
0.000359218
0.000445897
0.000461013
1.32232e-05
6.55655e-05
0.000107245
0.000156064
0.000204707
0.00024035
0.000259929
0.000276773
0.000314027
0.000380036
0.000413071
1.34937e-05
6.48813e-05
0.000103663
0.000146456
0.000188787
0.000222607
0.000244496
0.000261062
0.000287132
0.000333912
0.000369102
1.35028e-05
6.43447e-05
0.000101212
0.00014001
0.000178354
0.000210037
0.000233163
0.000250773
0.000272333
0.00030726
0.000337723
1.35108e-05
6.3278e-05
9.98758e-05
0.000135521
0.000172099
0.000202224
0.00022634
0.000245878
0.000266851
0.000295562
0.000319656
1.34326e-05
6.16068e-05
9.93709e-05
0.000134034
0.000169666
0.00019955
0.000225171
0.00024739
0.000269495
0.000294313
0.000311971
1.3254e-05
5.97133e-05
9.99697e-05
0.000135828
0.000171824
0.000202774
0.000230751
0.000255728
0.00027838
0.000298835
0.000310256
1.30787e-05
5.80733e-05
0.000101919
0.000140593
0.00017814
0.000211671
0.000242309
0.000268753
0.000289652
0.000304579
0.00031056
1.2965e-05
5.69482e-05
0.000104388
0.000146332
0.000186819
0.000223445
0.000255898
0.000281669
0.000298976
0.000308936
0.000311988
1.28361e-05
5.57169e-05
0.000105977
0.000151048
0.000194549
0.000233643
0.000266634
0.000290628
0.000304755
0.000311942
0.000314524
1.26458e-05
5.41626e-05
0.000106158
0.000153518
0.000199248
0.000239892
0.000272945
0.000295789
0.000308471
0.000314884
0.000318126
1.23557e-05
5.30888e-05
0.000105895
0.00015455
0.000201657
0.000243348
0.000276817
0.000299736
0.000312419
0.000319034
0.000323252
1.19469e-05
5.21967e-05
0.000105241
0.000154589
0.000202695
0.000245518
0.000280117
0.000304151
0.000317593
0.000324393
0.000328769
1.1423e-05
5.09018e-05
0.000103616
0.000153334
0.000202459
0.000246883
0.000283448
0.000309396
0.00032389
0.000330362
0.00033377
1.07193e-05
4.92817e-05
0.00010106
0.000150755
0.000201014
0.00024764
0.00028695
0.00031534
0.000330795
0.000336039
0.000336884
9.82764e-06
4.7139e-05
9.731e-05
0.000146733
0.000198434
0.000247682
0.000290009
0.000320789
0.00033658
0.000339153
0.000334916
8.74312e-06
4.43676e-05
9.26076e-05
0.00014197
0.000194271
0.000243053
0.000285684
0.00031848
0.000335287
0.000335405
0.000325416
7.4211e-06
4.23457e-05
9.26496e-05
0.000135216
0.000165084
0.000185591
0.000222684
0.000271391
0.000303534
0.000311456
0.00030222
7.58578e-06
4.57581e-05
6.07674e-05
5.8574e-05
7.9361e-05
0.000105698
0.000132176
0.000160155
0.000199965
0.000235641
0.000248336
5.93791e-06
1.71724e-05
3.31047e-05
5.92608e-05
9.34827e-05
0.000129006
0.000155575
0.000163555
0.000154459
0.000152657
0.000166199
9.43264e-06
2.54848e-05
5.61928e-05
0.000101645
0.000154155
0.00020226
0.00023399
0.000242072
0.000220441
0.000175721
0.00014299
2.84403e-05
0.000223516
0.000351341
0.000415947
0.000424324
0.00040276
0.000402365
0.000472644
0.000602422
0.000717587
0.000718334
1.63167e-05
0.000153108
0.000304037
0.000401973
0.000440379
0.000431449
0.000422499
0.0004879
0.000644692
0.00081349
0.000869568
1.20633e-05
8.98748e-05
0.000228363
0.000352245
0.00043119
0.000450989
0.000435693
0.000478262
0.000647029
0.000872233
0.00100928
1.24466e-05
6.11683e-05
0.000168527
0.000296115
0.00040237
0.000456496
0.000444428
0.000442755
0.000595143
0.00086105
0.00108299
1.42128e-05
6.32916e-05
0.000152577
0.000264711
0.000377935
0.000460314
0.000471129
0.00040621
0.000437674
0.000699514
0.00104395
1.61318e-05
7.15397e-05
0.000160381
0.000264302
0.000373423
0.000467426
0.000509624
0.000464162
0.000387779
0.000506187
0.000877595
1.80615e-05
8.19892e-05
0.00017478
0.000275468
0.000379585
0.000477548
0.000541401
0.000526816
0.0004312
0.000399278
0.000673395
2.00099e-05
9.3244e-05
0.000191589
0.000290725
0.00038899
0.000484966
0.000561753
0.000577675
0.000495993
0.000391826
0.000486025
2.18276e-05
0.000105325
0.000209778
0.000307768
0.000399092
0.000487389
0.000567405
0.000608564
0.000553835
0.000430424
0.000393133
2.34554e-05
0.00011801
0.000228172
0.000324864
0.000408784
0.000485303
0.000559228
0.000615343
0.000592891
0.00047728
0.000377721
2.48592e-05
0.000129846
0.000245256
0.000340815
0.000417425
0.000480444
0.000541893
0.000602827
0.000611043
0.00051638
0.000390572
2.61182e-05
0.000140475
0.000261954
0.000354535
0.000423909
0.000474056
0.000520803
0.000578439
0.000611615
0.000542401
0.000411225
2.7187e-05
0.000149951
0.000275128
0.000365436
0.000427514
0.000466606
0.000499632
0.000544201
0.000589817
0.000557121
0.000428364
2.79855e-05
0.000158828
0.000286779
0.000373962
0.000428365
0.00045717
0.000478949
0.000510845
0.000546871
0.000545151
0.000443882
2.84418e-05
0.000166686
0.000296889
0.0003806
0.000427145
0.000445823
0.00045664
0.00047647
0.000501176
0.00050885
0.000455012
2.85557e-05
0.000174111
0.000306516
0.000386699
0.000425301
0.000433983
0.000434056
0.000443087
0.000459081
0.000470239
0.000449868
2.83159e-05
0.000181401
0.00031675
0.000394116
0.000425161
0.00042413
0.000413207
0.000411052
0.000420453
0.000430071
0.000423031
2.7628e-05
0.000188909
0.000329214
0.000406054
0.000431271
0.00042142
0.000398965
0.00038645
0.000386346
0.000388435
0.000381393
2.6396e-05
0.000196868
0.00034463
0.00042353
0.000443778
0.000426762
0.000398013
0.000376707
0.000366959
0.000362232
0.000354673
2.42629e-05
0.000199201
0.000347682
0.000429628
0.000453936
0.000436975
0.00040298
0.000373835
0.000357358
0.000349888
0.000345729
2.05599e-05
0.000185844
0.000331709
0.000422763
0.000457632
0.000445132
0.000407456
0.00036976
0.000344168
0.000329071
0.000319426
1.64802e-05
0.000157959
0.000295208
0.000396045
0.000443685
0.00044139
0.000407051
0.000365055
0.000330542
0.000303083
0.000269597
1.20152e-05
0.000110698
0.000243566
0.00034856
0.000407067
0.00041884
0.00039685
0.000359091
0.000317977
0.000277326
0.000222267
8.08444e-06
9.69388e-05
0.000192071
0.000286491
0.000340686
0.000363779
0.000358261
0.000331991
0.000294944
0.00024528
0.000186282
5.89571e-05
0.000311242
0.000379086
0.000410824
0.000438665
0.000464542
0.000483153
0.000488452
0.000470478
0.000421892
0.000359671
3.77171e-05
0.00025267
0.000361132
0.000409419
0.000438651
0.000461488
0.000476407
0.000479639
0.000463462
0.000418825
0.000357127
3.15806e-05
0.000212457
0.000359398
0.000439565
0.000470664
0.000486467
0.000496025
0.000494433
0.000474699
0.000430933
0.000368213
3.08567e-05
0.00017916
0.000320599
0.000423344
0.000472808
0.000494863
0.000504069
0.000502188
0.000485057
0.000443552
0.000379291
3.17167e-05
0.0001632
0.000294943
0.000397278
0.000453715
0.000486235
0.000503679
0.000507179
0.000491869
0.000449424
0.000382355
3.27368e-05
0.000150594
0.000274229
0.000371673
0.000429196
0.000468115
0.000494338
0.000505915
0.000495632
0.000456015
0.000391248
3.38665e-05
0.00014032
0.000256334
0.00034713
0.000403997
0.000446416
0.00047942
0.000498922
0.000494977
0.000458828
0.000394823
3.51047e-05
0.000132197
0.000241271
0.000325712
0.000380846
0.000424812
0.000462488
0.000488512
0.00049092
0.000460346
0.00040301
3.6228e-05
0.000125336
0.00022846
0.000307567
0.000360706
0.00040519
0.000446031
0.000477365
0.000485968
0.000461058
0.000406885
3.71168e-05
0.000118823
0.000216972
0.000292023
0.000343482
0.000388129
0.000431253
0.000466903
0.00048085
0.000460144
0.000406409
3.7898e-05
0.000112685
0.000206538
0.000278491
0.000328664
0.000373408
0.00041833
0.000457561
0.000475889
0.000458461
0.000407817
3.85313e-05
0.000107251
0.00019726
0.000266655
0.000315807
0.000360669
0.00040714
0.00044953
0.000471681
0.000456937
0.000407233
3.88987e-05
0.000102081
0.000188736
0.000256184
0.000304668
0.00034977
0.00039769
0.000443045
0.000468775
0.000456407
0.000408019
3.90627e-05
9.67083e-05
0.000180413
0.000246667
0.000294953
0.000340501
0.00038988
0.000438173
0.000467439
0.000457245
0.000410578
3.89012e-05
9.15131e-05
0.000172386
0.000237851
0.000286273
0.000332455
0.000383333
0.000434683
0.000467806
0.000459964
0.000413899
3.83814e-05
8.57028e-05
0.000163742
0.000229046
0.000278131
0.000325144
0.00037749
0.000432038
0.000469707
0.000464814
0.000419451
3.75176e-05
7.78369e-05
0.000151379
0.000216159
0.000265144
0.00031131
0.000362869
0.000419376
0.00046333
0.000465887
0.000425433
3.61241e-05
6.9365e-05
0.000136306
0.000199512
0.000247433
0.000290314
0.000336541
0.000389178
0.000436163
0.00045022
0.00042481
3.41736e-05
6.03358e-05
0.000118565
0.000178542
0.000224782
0.000263097
0.000300698
0.000343082
0.000385657
0.000409395
0.000406141
3.16189e-05
5.09535e-05
9.86091e-05
0.000152924
0.000196774
0.00023059
0.000258995
0.000287652
0.000317563
0.00034079
0.000354473
2.83798e-05
4.1547e-05
7.76856e-05
0.000123442
0.000163472
0.000193511
0.000214828
0.000231418
0.000246199
0.00025843
0.000270812
2.43954e-05
3.26365e-05
5.78846e-05
9.27916e-05
0.000126533
0.000152797
0.000169948
0.000179584
0.000184108
0.000185059
0.000185704
1.95319e-05
2.41153e-05
4.0156e-05
6.38869e-05
8.90052e-05
0.000110186
0.000124662
0.000132073
0.000133403
0.00013003
0.000124141
1.37592e-05
2.24331e-05
3.3849e-05
4.72928e-05
6.12961e-05
7.36889e-05
8.29443e-05
8.8328e-05
8.96968e-05
8.73658e-05
8.22088e-05
5.53931e-05
0.000285408
0.000327867
0.000431652
0.000478812
0.000508696
0.000524091
0.000529365
0.000505541
0.000448143
0.000378554
4.11009e-05
0.000176662
0.000204601
0.000264579
0.000355908
0.000493984
0.000550837
0.000567978
0.00054733
0.000485267
0.000403436
3.80772e-05
0.00012894
0.00017218
0.000216819
0.000287065
0.000428513
0.000565773
0.000605781
0.000591915
0.000530465
0.000441143
3.75898e-05
0.000111452
0.000156305
0.000194847
0.000256564
0.000387984
0.000576247
0.000644668
0.000641368
0.000585064
0.000493711
3.7024e-05
0.000110439
0.000149068
0.000182364
0.000238934
0.000366754
0.000581366
0.000679865
0.000691677
0.000641237
0.000542962
3.61494e-05
0.000117974
0.000147891
0.000175191
0.000226536
0.000350523
0.000570481
0.000706417
0.00073778
0.000695173
0.000589262
3.57894e-05
0.000128969
0.000151043
0.000171666
0.000217009
0.000335017
0.000549507
0.000720338
0.000776718
0.000745001
0.000636449
3.63969e-05
0.000142626
0.000157815
0.00017117
0.000210059
0.000320866
0.000524538
0.000711183
0.00080218
0.000787548
0.000669751
3.76318e-05
0.00015773
0.000167441
0.00017305
0.000205005
0.000307514
0.000497153
0.000686372
0.000796692
0.000806718
0.000695648
3.90578e-05
0.000173083
0.000179244
0.000176888
0.000201375
0.00029441
0.000467982
0.000651209
0.000768382
0.000790528
0.000692433
4.01606e-05
0.000186338
0.000192423
0.000182377
0.000198644
0.000280654
0.0004363
0.000607911
0.000724046
0.000748767
0.000662829
4.10706e-05
0.000198243
0.000206601
0.000189429
0.000197099
0.000267198
0.0004041
0.000560355
0.000670235
0.000692318
0.00061313
4.16655e-05
0.000209378
0.000221063
0.000197879
0.000196755
0.000254135
0.000371698
0.000510245
0.00061065
0.000628896
0.00055347
4.16065e-05
0.000216723
0.000234497
0.000207694
0.000197687
0.000241485
0.000339261
0.000458667
0.000547829
0.000563126
0.000492949
4.09748e-05
0.00022128
0.000246388
0.000218639
0.0002003
0.000230317
0.000308474
0.000408051
0.00048481
0.000498305
0.000436554
3.97493e-05
0.000223124
0.000255984
0.000230212
0.000204729
0.000221182
0.00028022
0.000359836
0.000423505
0.00043609
0.000385099
3.78426e-05
0.000221009
0.000262234
0.00024162
0.000211025
0.000214723
0.000255524
0.000315515
0.000365517
0.000377103
0.000338066
3.52718e-05
0.000215172
0.000264228
0.000251567
0.000218937
0.0002117
0.000235837
0.000277047
0.000312854
0.00032208
0.000294038
3.2145e-05
0.000205344
0.00026116
0.00025828
0.000227688
0.000212725
0.000222597
0.000246426
0.000267733
0.000272359
0.00025212
2.90559e-05
0.000194367
0.000253253
0.0002604
0.00023658
0.000218715
0.000217655
0.000226004
0.000232921
0.000230449
0.000213476
2.4978e-05
0.000167279
0.000233387
0.000253972
0.000242302
0.00022808
0.000220433
0.000215977
0.000209555
0.000198467
0.000180099
2.18518e-05
0.000143479
0.000199887
0.000223287
0.000223245
0.000213486
0.00020392
0.000193311
0.000174954
0.000152174
0.000125733
1.48726e-05
0.000101064
0.00011936
0.000109512
9.73361e-05
8.50716e-05
7.34934e-05
6.22815e-05
5.34829e-05
4.62059e-05
3.99036e-05
9.72308e-06
1.09139e-05
1.16895e-05
1.31457e-05
1.52796e-05
1.78967e-05
2.07635e-05
2.35675e-05
2.59847e-05
2.77109e-05
2.85197e-05
1.59102e-05
1.51097e-05
1.37479e-05
1.12138e-05
6.92127e-06
5.88499e-06
6.45009e-06
6.96146e-06
9.49183e-06
8.06503e-05
5.16591e-05
3.28599e-05
2.28516e-05
2.03724e-05
2.23169e-05
2.83644e-05
2.27398e-05
2.47551e-05
0.000165742
0.000105881
6.39351e-05
4.01691e-05
3.0609e-05
3.2491e-05
4.08988e-05
3.25518e-05
4.16413e-05
0.000245359
0.000156312
9.08782e-05
5.62344e-05
4.22199e-05
4.55708e-05
5.37964e-05
4.23593e-05
5.62262e-05
1.64483e-05
1.65767e-05
1.64945e-05
1.62699e-05
1.61215e-05
1.57381e-05
1.50421e-05
1.41799e-05
1.27627e-05
0.000109697
0.000131336
0.00014613
0.000148226
0.000128568
0.000107249
8.52562e-05
5.61661e-05
3.49969e-05
0.000218438
0.0002596
0.000283135
0.000278363
0.000243482
0.000200862
0.000159786
0.000108806
6.71099e-05
0.000320077
0.000371568
0.000396535
0.000385796
0.000343916
0.000285357
0.000226963
0.000152542
9.27909e-05
0.000195729
0.0002297
0.000229753
0.000218454
0.00039572
0.000229384
9.09294e-05
0.000229441
0.000229412
0.000233607
0.000394528
0.000229484
0.000122602
0.000205147
0.000123871
0.000228708
0.00017604
0.000200165
0.000228699
0.000228602
0.000229698
2.86993e-05
0.000229971
0.000175358
0.000229355
0.000205841
0.000130093
9.05556e-05
0.000403027
0.000502244
0.000159921
0.000235776
0.000177132
0.000229426
0.000240826
0.000229657
0.000168621
0.000229347
0.000157418
0.000229411
1.9259e-05
0.000229461
5.03413e-05
0.000229946
0.000442767
5.82885e-05
4.98438e-05
0.000111117
0.000239807
0.00022917
0.000482569
0.000229399
0.000279302
5.01838e-05
0.000229137
0.000229485
2.84359e-05
0.000229412
0.000391179
7.57791e-05
2.51504e-05
0.000246011
0.000463493
0.000271788
2.66051e-05
0.000228573
0.000576785
0.000230084
0.0002297
0.00023303
0.000186172
0.000233113
0.000146897
0.000242673
0.000178368
0.000231616
2.33718e-05
0.00022968
0.000148786
0.000471755
0.000748807
0.00022793
0.000229286
0.000229785
0.00024723
0.000146455
0.000364811
0.000196298
4.83009e-05
0.000213596
0.000229483
0.000229403
2.06257e-05
0.000232248
0.000468572
0.000146015
0.000117206
0.000237268
4.64339e-05
0.000236096
0.00025283
0.000110037
0.000229886
0.000236424
5.61794e-05
0.000229486
0.000179929
0.000229866
0.000111275
0.000236134
0.000229371
0.000229512
0.000230553
0.000208373
0.000102421
0.000229034
0.000229394
0.000228838
0.000229298
0.0002291
0.000191666
0.000240712
0.000252857
0.000197005
5.23372e-05
0.000211276
0.000791775
0.000173083
0.000163449
0.000132966
0.000229339
7.48976e-05
0.000109091
0.000232031
0.00022976
0.000230956
2.26004e-05
0.000166567
0.000494533
0.000244655
5.27587e-05
0.000231445
0.000247989
0.000167786
0.000229365
3.98411e-05
0.000108477
0.000229859
0.000235422
0.000229043
0.000228948
0.000229247
4.24214e-05
0.000238973
0.000243518
5.61326e-05
0.000129103
3.05766e-05
0.000165624
0.000228778
0.00021609
5.19791e-05
0.000232624
0.000229131
0.000641646
0.000106712
6.16592e-05
0.000245836
0.000238446
2.55397e-05
0.000197734
0.000154573
0.000233344
0.00022958
0.000235046
0.000220231
0.000145018
4.10262e-05
0.000438331
0.000199611
0.000229572
2.582e-05
0.000229945
0.000138692
0.000229284
0.000279395
0.00022924
0.000228784
0.000229643
0.000185856
0.000112817
0.000206772
0.000228526
1.81015e-05
0.000229734
0.000228962
0.000229394
4.67235e-05
0.000127829
0.00023
3.39993e-05
0.000229243
0.000118121
0.000159467
0.000229815
0.000204827
0.000231594
0.000163906
0.00022928
0.000228695
0.000265151
0.000229003
0.000175246
0.00023875
0.000229316
0.000132952
0.000229373
4.91364e-05
0.00022911
8.58003e-05
0.000138903
0.000194112
0.000120111
0.000106949
0.00019732
0.00022942
0.00010697
0.000107556
0.000117591
0.000385417
3.31824e-05
0.000228501
0.000229021
0.000242251
4.08419e-05
0.000240568
0.000664433
0.000229891
0.000229516
0.000229476
4.89727e-05
0.000564884
0.000236535
1.59088e-05
0.000233661
5.25615e-05
0.000229367
0.00016152
0.000192312
0.000937837
0.000161385
0.000262686
0.000247148
0.000228628
0.000233892
0.00022941
0.000229482
0.000229292
4.70906e-05
0.000229401
0.000117971
0.000188175
0.000228178
0.000229576
0.000229367
5.18313e-05
0.000231913
0.000234136
0.000159451
0.00017886
0.000189713
0.000228979
0.000229247
5.04316e-05
0.000229014
0.000228875
0.000195656
0.000229151
0.000238408
5.43165e-05
0.000234603
0.000229701
0.0007521
0.000606548
0.000233489
0.000228988
0.000306791
0.000229638
0.00023807
5.64323e-05
0.000229769
0.000100841
0.000250056
0.000110041
0.000230004
0.00022933
0.000238458
0.000229542
0.000240406
0.000197341
0.000229268
0.000102734
0.000242579
0.000503074
0.000229405
0.000236215
0.000229676
0.000221345
2.52975e-05
0.000229107
5.59669e-05
0.000229534
0.000234042
0.000181712
2.73648e-05
0.0002315
0.000175852
7.58269e-05
0.000228711
0.000235557
0.000229138
0.000554173
0.000228928
0.000189544
0.000146795
0.00023683
0.000229213
0.000209738
0.000228207
0.000347271
0.000232499
0.0004638
2.09057e-05
0.00022994
0.000101343
0.000250518
0.000134917
0.000229629
0.000229222
0.000238745
4.77808e-05
0.000243606
0.000229225
0.000103203
0.000185481
0.000225015
6.98264e-05
0.000229031
0.000149699
0.000871299
5.89809e-05
0.000236407
0.000178964
0.000229398
0.000105193
0.000230036
0.00013492
0.000206631
0.000229945
0.000507015
0.000135634
0.000202743
0.0002294
0.000229338
0.000229489
5.47431e-05
0.000163488
7.06135e-05
6.61143e-05
0.000253589
0.000229146
0.000108182
0.000232607
0.00019776
0.000111131
0.000229737
0.00015222
0.000240745
0.000228939
0.000228962
0.000531943
0.000228899
3.81112e-05
0.000229392
0.000207301
0.000773558
0.000127481
0.000196334
0.000563562
4.93789e-05
0.000229248
4.48599e-05
0.000186603
0.000250002
0.000716786
2.68691e-05
0.000229294
0.000228852
0.000229817
5.55648e-05
4.72196e-05
0.000228982
0.00022999
5.78593e-05
0.000171712
2.46802e-05
0.000109744
0.000123526
0.00022924
0.000551292
0.000239909
0.000228665
0.000128787
0.000131103
5.60831e-05
0.000233879
0.000112718
0.000250188
0.0001764
5.03792e-05
0.000280398
0.000141
8.68985e-05
0.000114487
0.000227203
0.00023536
0.000241191
7.38134e-05
0.000179204
3.55127e-05
0.00022927
3.84159e-05
0.000209074
0.00022857
0.000226535
0.000105901
0.000226998
0.00045287
0.000196911
0.000230037
0.000236456
0.000355176
0.0001412
0.000120155
0.000233372
7.29337e-05
9.77181e-05
2.50922e-05
0.000228725
4.20513e-05
0.000229246
0.000229732
0.000229333
5.25715e-05
9.13655e-05
6.43841e-05
0.000197681
3.20664e-05
8.13408e-05
0.000229636
0.000228716
0.000821142
0.000176822
0.000233924
0.000238106
4.08751e-05
4.48271e-05
2.96835e-05
2.93526e-05
0.000232246
0.000211739
6.5688e-05
0.000229335
2.53466e-05
0.000235759
0.000229617
0.000229005
8.05632e-05
3.67956e-05
0.000229101
0.000229183
0.000229762
0.000385818
2.50848e-05
0.000229887
4.23969e-05
0.000392287
0.00015648
8.97363e-05
0.000228701
3.81839e-05
0.000228959
0.000235189
0.000229407
0.000143926
0.000146242
0.000228549
0.000191708
0.000168856
0.000233673
0.000223917
0.000209799
0.000229414
0.000229437
0.000228564
9.22678e-05
0.000119256
0.000232804
9.42031e-05
0.00022976
0.000322158
0.000104198
4.71849e-05
0.000106284
0.000252675
0.0006126
5.09274e-05
0.000191422
0.000229182
0.000182968
0.000228803
0.00022969
0.000229099
0.000229573
0.00023438
0.000488516
0.000229352
0.000228755
0.000134252
0.000229282
3.90733e-05
0.000242607
0.000182411
0.000173097
4.99927e-05
0.000229994
0.000229279
0.000229889
1.70428e-05
3.67154e-05
0.000229321
0.000229336
0.000196765
0.000229781
0.000122055
0.000229725
0.000524966
0.0002371
3.19877e-05
0.000139939
0.000124698
6.59932e-05
0.000350324
0.000229458
0.000232023
0.000235025
0.000229719
0.000107149
2.49814e-05
0.000223785
0.000144007
0.000129723
0.000107593
0.000229356
0.00022946
0.000229682
9.44518e-05
0.000770095
8.34422e-05
0.000229447
0.000229315
0.000625912
0.000230518
0.000121722
0.000156313
0.000140751
0.000291309
0.000229299
8.81648e-05
0.000229238
4.98104e-05
0.00022938
0.000163672
0.00014059
0.000234732
2.85019e-05
0.000114779
0.000229891
0.000229992
0.000459025
0.00022901
0.000181824
0.000340069
5.17256e-05
9.27403e-05
4.74905e-05
0.000157992
0.000231107
0.000229336
0.000229254
0.000151275
5.3319e-05
0.000111203
0.000228567
0.000229377
9.40908e-05
0.00022952
0.000234132
0.000237131
0.000233443
0.000126374
5.63016e-05
5.07874e-05
0.000159862
0.000233585
0.000240832
0.000228623
0.000116768
0.000231426
0.000229257
0.000195212
0.000345971
0.000228966
0.000228917
2.22742e-05
0.000229923
0.000228687
0.000147645
0.000229729
0.000235075
0.000100155
0.000120723
0.000158096
0.000207136
0.000150268
7.31174e-05
0.000364375
7.75824e-05
0.000102928
0.000179107
5.64916e-05
0.000126432
0.000126934
0.000229762
0.000230454
0.000142486
0.000230163
0.000229445
0.000244695
0.000209062
5.21081e-05
0.000182042
0.000192402
0.000243876
0.000229188
0.000210387
0.000229517
0.000228854
0.000236658
8.0628e-05
0.000231741
0.000233683
0.000231262
0.000229659
0.000431864
6.18021e-05
0.000364461
0.00023169
0.000230111
0.000189728
7.40064e-05
0.000234395
0.000172705
0.000231311
0.000361585
0.000459789
0.000229257
0.000106009
0.000229914
0.00017686
0.000378111
0.000124751
0.000162694
0.000214316
0.000246336
0.000229821
9.88931e-05
0.000177055
4.90735e-05
0.000832206
0.000228995
0.000233748
0.000229806
0.000160282
0.000229894
4.40751e-05
0.000229495
0.00022943
0.000228996
0.000129774
4.85032e-05
0.000229549
0.000123058
0.000229212
0.000107391
0.000165757
0.000231218
0.000343107
1.56066e-05
0.000123093
0.000236739
0.000208644
0.000142023
0.000103967
0.000187081
8.87275e-05
0.000229223
0.000163135
0.000229342
0.000232383
5.17661e-05
0.000179349
3.7204e-05
0.000205426
0.000230327
0.000235281
0.000229118
5.23991e-05
0.000229622
0.00074443
6.22347e-05
0.000493454
0.000234463
0.000138447
6.19225e-05
8.99442e-05
0.000241758
0.00012684
3.86845e-05
7.34606e-05
0.000229413
0.000202194
0.000128272
0.000229501
4.14476e-05
0.000115096
0.000242384
0.00030723
0.000229339
0.000234166
0.00023512
0.000124761
0.000235373
0.000193849
0.000229579
0.00017585
0.000234089
0.000119168
9.08571e-05
0.000283811
0.000112389
0.000228782
0.000207762
6.46311e-05
0.000229224
0.000205929
0.00018765
6.14668e-05
0.000246703
3.02114e-05
0.000247367
9.80882e-05
0.00013886
0.000254069
0.00022884
0.000247211
0.000229168
7.7138e-05
2.26141e-05
0.000230043
0.000229285
0.000252377
0.000387787
0.000530109
0.000157991
0.000229577
0.000158806
0.000253143
0.000229509
0.00022961
0.000229821
0.000229336
0.000233502
0.000150197
4.50998e-05
0.000101388
0.000174922