/*--------------------------------*- C++ -*----------------------------------*\
| =========                 |                                                 |
| \\      /  F ield         | OpenFOAM: The Open Source CFD Toolbox           |
|  \\    /   O peration     | Version:  3.0.1                                 |
|   \\  /    A nd           | Web:      www.OpenFOAM.org                      |
|    \\/     M anipulation  |                                                 |
\*---------------------------------------------------------------------------*/
FoamFile
{
    version     2.0;
    format      ascii;
    class       volVectorField;
    location    "0.230384";
    object      U;
}
// * * * * * * * * * * * * * * * * * * * * * * * * * * * * * * * * * * * * * //

dimensions      [0 1 -1 0 0 0 0];

internalField   nonuniform List<vector> 
21246
(
(0.963023 5.82805 2.47107e-18)
(1.18398 4.11098 -1.93834e-18)
(1.29535 3.44825 -2.69341e-21)
(1.45357 2.70706 1.79966e-18)
(1.62347 2.15795 -1.833e-18)
(1.79213 1.75003 1.47794e-18)
(1.94495 1.45198 -7.69025e-19)
(2.08289 1.22915 -3.28631e-19)
(2.21206 1.05886 3.80324e-19)
(2.33848 0.928885 -4.65018e-20)
(2.45591 0.838836 1.37157e-19)
(2.60087 5.05722 -3.50001e-18)
(3.19503 2.42271 0)
(2.92135 3.35458 3.68559e-19)
(2.69313 2.79707 5.22651e-19)
(2.49383 2.39042 -3.60002e-19)
(2.39364 1.97074 4.44204e-20)
(2.37456 1.62697 -1.79474e-19)
(2.40893 1.35612 1.33621e-19)
(2.47755 1.14953 0)
(2.56869 0.995364 0)
(2.66954 0.893106 6.27972e-20)
(2.72932 3.26988 5.10699e-19)
(3.78636 0.726407 -6.86816e-19)
(3.85188 2.46922 -8.27234e-19)
(3.64523 2.11886 -6.2597e-19)
(3.32581 2.106 2.63241e-19)
(3.04642 1.86615 5.62616e-19)
(2.86213 1.61531 0)
(2.77174 1.37461 0)
(2.75695 1.17299 -1.42991e-19)
(2.79772 1.01578 1.04566e-19)
(2.875 0.913448 -1.30309e-19)
(2.07736 1.89505 -4.03811e-18)
(3.52199 -0.188376 3.1163e-18)
(4.03337 1.50799 0)
(4.04125 1.17574 0)
(3.83884 1.52744 -1.71679e-18)
(3.5426 1.47305 4.96245e-19)
(3.28972 1.38963 6.4991e-19)
(3.11459 1.24837 -1.49468e-19)
(3.02506 1.10273 -5.82342e-19)
(3.01056 0.974174 2.56305e-19)
(3.0505 0.885421 -5.84659e-20)
(1.27009 1.11218 8.12319e-19)
(2.91188 -0.545599 2.4937e-18)
(3.73835 0.773526 -1.88824e-18)
(3.97946 0.393387 0)
(3.98078 0.916257 6.00403e-19)
(3.77258 0.957809 -4.94785e-20)
(3.5537 1.03147 -8.02333e-19)
(3.36308 1.00421 -1.77256e-19)
(3.23841 0.942728 7.14825e-19)
(3.18548 0.867926 3.15417e-19)
(3.19184 0.814241 -2.30588e-19)
(0.516953 0.696079 4.27712e-18)
(2.2439 -0.643122 4.90445e-19)
(3.25557 0.284532 0)
(3.67516 -0.110921 0)
(3.85541 0.412412 2.19393e-18)
(3.76497 0.477775 -1.0164e-18)
(3.63275 0.650526 -6.01961e-19)
(3.47957 0.707557 1.3421e-18)
(3.36261 0.726578 -1.84632e-19)
(3.29911 0.712829 -6.64874e-20)
(3.28816 0.702176 0)
(-0.185024 0.507436 5.29528e-18)
(1.60156 -0.605612 -7.44898e-18)
(2.73249 -0.0191741 5.23246e-18)
(3.28707 -0.398259 -3.84731e-18)
(3.59263 0.0490418 1.6894e-18)
(3.60992 0.103645 -5.374e-19)
(3.56918 0.318128 1.14106e-18)
(3.47386 0.419646 -7.87395e-19)
(3.39167 0.496251 -6.76053e-19)
(3.34143 0.532736 0)
(3.33301 0.562246 1.56417e-19)
(-0.831532 0.493332 -3.80552e-18)
(1.0052 -0.476615 -2.60194e-21)
(2.21853 -0.179638 -3.99206e-21)
(2.88792 -0.540345 -1.58577e-18)
(3.28322 -0.192075 1.54123e-18)
(3.38504 -0.154887 1.58025e-18)
(3.41878 0.0577538 -1.2069e-18)
(3.38161 0.174212 6.84345e-19)
(3.34159 0.284719 -5.14548e-19)
(3.31692 0.355296 0)
(3.32347 0.413692 -1.64028e-19)
(-1.39244 0.597611 -2.98004e-18)
(0.454691 -0.293859 4.74714e-18)
(1.72526 -0.233787 -1.60691e-18)
(2.49878 -0.58289 0)
(2.96689 -0.339334 0)
(3.13852 -0.319927 0)
(3.2272 -0.130388 -4.15206e-21)
(3.23774 -0.0155926 -3.30996e-19)
(3.23668 0.106111 0)
(3.23912 0.195276 -5.2905e-19)
(3.26326 0.273121 3.92789e-19)
(-1.89359 0.764799 -2.83606e-18)
(-0.0829351 -0.0811744 0)
(1.23849 -0.20834 -2.06957e-19)
(2.11315 -0.556385 0)
(2.6522 -0.41785 0)
(2.88983 -0.415961 2.9725e-19)
(3.02174 -0.25977 0)
(3.06982 -0.154533 3.23969e-19)
(3.09934 -0.0349029 -4.01636e-19)
(3.12543 0.0610371 0)
(3.16739 0.146623 0)
(-2.36839 1.00081 -2.00344e-18)
(-0.610505 0.167113 1.69505e-18)
(0.753477 -0.11348 -2.5685e-18)
(1.72479 -0.479317 3.462e-18)
(2.33907 -0.442252 -1.50279e-18)
(2.64418 -0.462256 2.22421e-19)
(2.81514 -0.34371 -1.51251e-18)
(2.89379 -0.252199 5.83832e-19)
(2.94593 -0.141811 -3.28802e-19)
(2.99002 -0.0449571 0)
(3.0445 0.0395565 0)
(-2.79156 1.28512 -1.74912e-18)
(-1.10484 0.437088 1.80118e-18)
(0.285967 0.0365235 2.72329e-18)
(1.34085 -0.364499 -1.24172e-18)
(2.0307 -0.422745 1.25541e-18)
(2.40343 -0.472303 -1.47564e-18)
(2.6126 -0.393165 7.37483e-19)
(2.71759 -0.318283 4.65019e-19)
(2.78602 -0.221155 -5.77223e-19)
(2.84186 -0.128352 4.86293e-19)
(2.90239 -0.0472941 0)
(-3.1342 1.56436 1.28411e-18)
(-1.56209 0.700891 -3.19679e-18)
(-0.164754 0.217952 1.42627e-18)
(0.958687 -0.224927 0)
(1.72213 -0.372038 0)
(2.16317 -0.457854 0)
(2.41267 -0.418583 0)
(2.54291 -0.361931 -1.28039e-18)
(2.62427 -0.279248 6.3799e-19)
(2.68799 -0.193011 -7.72799e-19)
(2.75203 -0.11678 5.77365e-19)
(-3.41875 1.83171 -3.16614e-18)
(-1.99487 0.962625 2.67901e-18)
(-0.613169 0.424273 2.16046e-18)
(0.561379 -0.0657156 -1.33268e-18)
(1.39735 -0.297496 -4.74546e-19)
(1.9105 -0.426259 0)
(2.20683 -0.427511 0)
(2.3657 -0.390201 1.53931e-18)
(2.46042 -0.321356 5.03503e-19)
(2.53064 -0.241412 7.5565e-21)
(2.59541 -0.168639 -9.65303e-19)
(-3.66316 2.08458 -1.82045e-18)
(-2.39236 1.21491 2.22831e-18)
(-1.05217 0.647797 -4.24757e-19)
(0.150847 0.110929 5.83692e-19)
(1.05223 -0.20016 4.77127e-19)
(1.63732 -0.378247 0)
(1.98632 -0.421802 0)
(2.17935 -0.406003 -1.36499e-18)
(2.29096 -0.35071 -9.43196e-19)
(2.36798 -0.277676 1.26992e-18)
(2.43194 -0.208101 1.18253e-21)
(-3.84092 2.29566 -1.00897e-18)
(-2.74172 1.44706 2.13678e-18)
(-1.48048 0.8803 -1.14651e-18)
(-0.276694 0.305165 -5.57254e-19)
(0.678095 -0.0784125 1.67696e-18)
(1.33256 -0.310723 -1.20807e-18)
(1.73951 -0.39946 0)
(1.97403 -0.408487 6.43603e-19)
(2.10963 -0.367401 4.41762e-19)
(2.19852 -0.301485 -1.11308e-18)
(2.2672 -0.232734 7.78352e-19)
(-3.95925 2.47983 -1.42571e-18)
(-3.0457 1.66737 0)
(-1.90125 1.12551 1.07432e-18)
(-0.730181 0.525782 -4.5022e-20)
(0.262111 0.0758162 -8.0935e-19)
(0.981416 -0.215521 1.67334e-18)
(1.45113 -0.353779 -1.20271e-18)
(1.73648 -0.392442 5.67259e-19)
(1.90695 -0.368085 3.27037e-19)
(2.01639 -0.311321 0)
(2.09619 -0.244559 -2.88173e-19)
(-4.0202 2.61506 2.37694e-18)
(-3.29358 1.86986 -1.81306e-18)
(-2.29919 1.37939 0)
(-1.20155 0.77654 1.01931e-18)
(-0.197635 0.270576 -5.04758e-20)
(0.575294 -0.0819611 -5.46212e-19)
(1.10806 -0.273472 -3.77088e-19)
(1.45274 -0.347492 0)
(1.67125 -0.344942 -6.00992e-19)
(1.81419 -0.301865 -3.63159e-19)
(1.91419 -0.243678 2.68783e-19)
(-4.04909 2.73005 5.2945e-19)
(-3.48778 2.06217 -2.52083e-19)
(-2.65918 1.63638 0)
(-1.6798 1.0563 -2.44373e-19)
(-0.703361 0.512482 -1.69759e-19)
(0.10242 0.102924 0)
(0.693719 -0.141632 -7.26317e-19)
(1.10578 -0.256894 8.01159e-19)
(1.38734 -0.284447 -2.23548e-19)
(1.58064 -0.263205 -1.18387e-19)
(1.71789 -0.218891 2.94283e-19)
(-4.05762 2.83677 -1.60464e-18)
(-3.63649 2.2403 1.19245e-19)
(-2.97231 1.8835 1.37922e-18)
(-2.15198 1.35391 -7.78887e-19)
(-1.25627 0.806254 -4.65087e-19)
(-0.451833 0.358881 4.81533e-19)
(0.189083 0.0660668 7.56319e-19)
(0.67615 -0.0945959 -5.82939e-19)
(1.03535 -0.165081 3.06498e-19)
(1.2959 -0.17997 -1.8462e-19)
(1.48682 -0.160153 -7.71496e-21)
(-4.04093 2.93867 2.85827e-18)
(-3.75445 2.39747 -2.27238e-18)
(-3.24788 2.10374 2.15756e-20)
(-2.61599 1.65311 9.41523e-19)
(-1.85726 1.1562 -7.00938e-19)
(-1.09466 0.715872 0)
(-0.418431 0.390238 2.54954e-19)
(0.143898 0.176658 -3.49473e-19)
(0.590922 0.0450717 1.99617e-19)
(0.930964 -0.0276304 -6.35367e-20)
(1.18926 -0.0544745 -9.10804e-20)
(-3.96402 2.82578 -9.68275e-20)
(-3.81957 2.43496 2.09034e-18)
(-3.5212 2.23932 -1.58352e-18)
(-3.07332 1.92487 0)
(-2.48126 1.56528 -6.18108e-20)
(-1.80132 1.20023 0)
(-1.11888 0.873469 2.72748e-20)
(-0.496487 0.603075 0)
(0.0311605 0.394283 1.382e-20)
(0.452923 0.244734 -2.28453e-20)
(0.80632 0.167117 0)
(-4.19429 3.10062 1.21894e-19)
(-3.9486 2.6853 -2.34917e-18)
(-3.72387 2.56125 1.88079e-18)
(-3.39832 2.39492 0)
(-2.95586 2.18058 7.19642e-20)
(-2.40961 1.89862 -1.64214e-19)
(-1.80278 1.56619 8.63977e-20)
(-1.20082 1.22651 0)
(-0.656252 0.922443 1.0143e-20)
(-0.210387 0.675227 1.72707e-21)
(0.237876 0.498773 -1.01496e-20)
(-2.01805 1.60393 0)
(-2.37034 1.6313 0)
(-2.23242 1.82521 6.93389e-19)
(-2.17928 1.9721 -5.55179e-19)
(-2.11109 2.08602 -1.2951e-19)
(-1.99619 2.13044 0)
(-1.79852 2.0725 4.73464e-21)
(-1.47867 1.89757 -1.23173e-21)
(-1.10938 1.66162 -2.88066e-21)
(-0.754897 1.40676 5.76874e-21)
(-0.323011 1.09924 1.39518e-20)
(-2.39014 2.92844 -3.33454e-18)
(-1.58738 2.29797 2.41565e-18)
(-0.340374 2.00323 -6.19558e-19)
(0.425031 1.77727 -5.08932e-19)
(0.941649 1.5628 1.69105e-19)
(1.308 1.36596 -3.96331e-19)
(1.57717 1.19658 0)
(1.78337 1.0543 -2.61611e-19)
(1.95002 0.937306 6.32701e-20)
(2.09023 0.842984 -3.48928e-19)
(2.20529 0.770491 0)
(-1.82231 -1.82681 0)
(-1.25329 -0.483504 9.7385e-18)
(-0.86945 0.30772 2.26746e-19)
(-0.219166 0.787482 -9.11222e-19)
(0.387476 0.972132 -2.8185e-18)
(0.867771 0.990857 3.02247e-19)
(1.23236 0.946485 -2.08353e-19)
(1.50772 0.875767 2.31288e-19)
(1.72091 0.802615 1.25295e-19)
(1.88898 0.736538 2.12948e-19)
(2.01691 0.679956 6.27233e-20)
(-0.949602 -2.6547 -3.55255e-18)
(-0.263606 -1.41607 2.78877e-19)
(-0.492358 -1.11602 -3.9714e-19)
(-0.248352 -0.469569 -3.85452e-18)
(0.0829163 0.0411343 2.85888e-18)
(0.509491 0.3935 0)
(0.903561 0.565581 2.11669e-19)
(1.23152 0.627992 2.18751e-19)
(1.48926 0.634761 -4.47853e-19)
(1.68437 0.617077 0)
(1.82326 0.589318 -7.1402e-20)
(-0.0611852 -2.74293 1.52179e-20)
(0.750717 -1.58638 -1.44985e-19)
(0.206887 -1.65141 -3.62533e-18)
(0.221724 -1.0844 2.91034e-18)
(0.260851 -0.637931 0)
(0.46213 -0.227895 0)
(0.732541 0.0733919 -1.57063e-18)
(1.00062 0.2603 1.14651e-18)
(1.24524 0.365538 0)
(1.44758 0.417503 2.75469e-19)
(1.59522 0.436281 -1.99018e-19)
(0.628609 -2.51233 -1.2563e-19)
(1.47121 -1.54509 1.46227e-19)
(0.871653 -1.81771 1.58863e-18)
(0.807476 -1.34413 -1.42072e-18)
(0.680548 -1.01596 0)
(0.711229 -0.620709 -9.90064e-19)
(0.836346 -0.295834 7.39173e-19)
(1.01312 -0.0479228 1.19456e-18)
(1.20286 0.120967 -5.90593e-19)
(1.37629 0.227036 0)
(1.50898 0.285892 1.58771e-19)
(1.09981 -2.18853 -1.11254e-18)
(1.92149 -1.41186 -1.44952e-20)
(1.38026 -1.76758 5.94139e-20)
(1.31181 -1.36932 0)
(1.11442 -1.17795 -6.92283e-19)
(1.0471 -0.848336 3.13398e-19)
(1.05513 -0.557374 0)
(1.13349 -0.300196 -6.45197e-19)
(1.24784 -0.101223 0)
(1.36959 0.0415024 2.15187e-19)
(1.46782 0.132221 -1.5524e-19)
(1.40685 -1.85492 1.49582e-18)
(2.19037 -1.24789 -1.27246e-18)
(1.73337 -1.62404 9.81531e-19)
(1.68046 -1.27218 0)
(1.47032 -1.19695 -1.24456e-19)
(1.36762 -0.927363 4.3813e-19)
(1.29923 -0.697602 5.12706e-19)
(1.30029 -0.463269 -1.25889e-19)
(1.34286 -0.264643 0)
(1.40727 -0.107819 -5.46839e-19)
(1.46323 0.00123362 2.4751e-19)
(1.61497 -1.55614 0)
(2.34559 -1.10696 0)
(1.9744 -1.45678 0)
(1.9418 -1.13483 3.42134e-19)
(1.72597 -1.14085 -5.195e-20)
(1.62977 -0.91123 -9.46945e-20)
(1.52096 -0.742854 0)
(1.47127 -0.545013 0)
(1.45746 -0.366584 0)
(1.471 -0.215689 0)
(1.48707 -0.106006 0)
(1.7728 -1.29646 0)
(2.45623 -0.991511 9.51701e-19)
(2.1261 -1.29718 -7.45979e-19)
(2.14027 -0.993327 -3.26976e-19)
(1.91292 -1.04288 0)
(1.82662 -0.849675 -2.92542e-19)
(1.70173 -0.727528 -1.13656e-19)
(1.62328 -0.565186 8.88731e-20)
(1.57043 -0.413987 -1.89724e-21)
(1.54454 -0.278181 0)
(1.5278 -0.174234 -6.21998e-20)
(1.88261 -1.08517 -1.48681e-18)
(2.56596 -0.866111 1.16507e-18)
(2.23509 -1.13876 0)
(2.27696 -0.872839 -5.13839e-19)
(2.05809 -0.926479 3.42336e-19)
(1.97493 -0.765012 -1.15345e-19)
(1.84318 -0.676417 0)
(1.74887 -0.543696 -2.38723e-19)
(1.67059 -0.419681 -1.17709e-19)
(1.61602 -0.303035 4.18349e-20)
(1.57346 -0.212324 -2.2906e-20)
(1.93658 -0.919306 -1.94876e-18)
(2.64832 -0.731835 6.41193e-19)
(2.33176 -0.982477 0)
(2.37368 -0.750329 -5.02636e-19)
(2.16759 -0.806495 4.50815e-19)
(2.08692 -0.667927 3.92194e-19)
(1.95197 -0.604571 -1.72053e-19)
(1.84869 -0.49542 3.34784e-19)
(1.75408 -0.395779 4.9462e-19)
(1.6798 -0.298152 1.37369e-19)
(1.61986 -0.219243 7.03755e-20)
(1.95683 -0.77642 1.94398e-18)
(2.69439 -0.599436 4.40584e-19)
(2.40327 -0.839087 -8.48006e-20)
(2.44396 -0.626056 -6.20054e-19)
(2.24768 -0.68698 0)
(2.16993 -0.564146 0)
(2.03361 -0.520835 -2.87365e-19)
(1.92543 -0.430238 0)
(1.8204 -0.351916 5.05808e-20)
(1.73273 -0.271905 0)
(1.6614 -0.201749 4.52843e-20)
(1.96586 -0.642862 7.903e-20)
(2.72576 -0.466424 1.49715e-18)
(2.45143 -0.707514 -8.04807e-19)
(2.49441 -0.501547 1.45574e-18)
(2.30347 -0.570241 -1.13068e-19)
(2.22939 -0.456889 -3.21041e-19)
(2.09198 -0.430921 3.16823e-19)
(1.98152 -0.354905 -2.42595e-19)
(1.86995 -0.29542 2.62206e-19)
(1.77345 -0.232306 -3.04894e-19)
(1.6909 -0.179702 -2.05901e-19)
(1.95956 -0.500072 -2.01909e-19)
(2.73421 -0.326566 -1.39447e-18)
(2.48548 -0.573815 8.84041e-19)
(2.52477 -0.381013 -5.43222e-19)
(2.34129 -0.452557 6.79769e-19)
(2.26793 -0.350081 5.24476e-19)
(2.13077 -0.337038 -7.35565e-19)
(2.01885 -0.274402 2.56686e-19)
(1.90329 -0.231592 -5.18825e-19)
(1.80179 -0.184 5.08783e-19)
(1.71299 -0.145478 -1.11335e-19)
(1.92877 -0.359928 3.03489e-19)
(2.7169 -0.196451 -1.10492e-18)
(2.50354 -0.4422 8.77335e-19)
(2.53576 -0.266464 2.70135e-19)
(2.36392 -0.333309 -2.34172e-19)
(2.28722 -0.245788 -8.01165e-19)
(2.15221 -0.240303 4.95341e-19)
(2.03847 -0.192053 0)
(1.92083 -0.163824 -7.16444e-20)
(1.81642 -0.131842 -1.68496e-19)
(1.72437 -0.10922 0)
(1.89133 -0.223973 -1.01819e-19)
(2.6808 -0.0727772 -2.15454e-21)
(2.50805 -0.311494 -1.62577e-21)
(2.53051 -0.156876 -5.61601e-19)
(2.37246 -0.214001 4.37498e-19)
(2.28971 -0.143985 2.11632e-21)
(2.15775 -0.142896 -9.34319e-20)
(2.04191 -0.110024 0)
(1.92351 -0.0953152 2.02949e-19)
(1.81764 -0.0791709 -1.94294e-20)
(1.72455 -0.0712037 -5.66958e-20)
(1.84564 -0.0862711 -1.54133e-18)
(2.62643 0.0532689 1.1946e-18)
(2.49903 -0.177083 -8.96976e-19)
(2.51071 -0.0490594 6.8026e-20)
(2.36709 -0.0948433 4.32668e-19)
(2.27664 -0.0439283 1.28089e-19)
(2.1478 -0.0466061 1.41072e-21)
(2.02998 -0.0299216 0)
(1.91197 -0.0287429 6.41285e-20)
(1.80601 -0.0287438 -1.53511e-19)
(1.712 -0.0396933 5.40955e-20)
(1.78355 0.0516725 1.55745e-18)
(2.54906 0.181333 -2.2921e-18)
(2.47163 -0.0389957 9.64938e-19)
(2.47504 0.0593599 -5.42347e-19)
(2.34603 0.0238097 5.23046e-20)
(2.24791 0.0549578 1.54557e-19)
(2.12193 0.0468023 1.83433e-19)
(2.0031 0.0466176 1.9379e-19)
(1.88685 0.0334302 -6.60204e-20)
(1.78272 0.0178877 -6.13465e-20)
(1.68977 -0.0094867 0)
(1.7057 0.188936 2.07373e-18)
(2.44656 0.312366 2.70939e-19)
(2.42073 0.103799 0)
(2.41999 0.170651 -5.27267e-19)
(2.30573 0.14164 7.59053e-19)
(2.20188 0.15242 -2.55175e-19)
(2.07918 0.135278 -3.48479e-20)
(1.96176 0.117595 -3.43173e-19)
(1.84987 0.0889838 2.27738e-19)
(1.74897 0.0578207 2.42973e-19)
(1.66024 0.0152599 3.68017e-20)
(1.61112 0.327303 -1.67173e-18)
(2.31485 0.451376 9.33226e-19)
(2.33869 0.255262 0)
(2.33863 0.288176 0)
(2.24019 0.258794 -3.76652e-19)
(2.13524 0.247381 -1.98211e-19)
(2.01835 0.216327 0)
(1.90694 0.180298 1.75678e-19)
(1.80231 0.136444 -1.23014e-19)
(1.7072 0.0906647 -4.60036e-20)
(1.6248 0.0354602 9.70744e-20)
(1.4902 0.465931 1.2411e-18)
(2.14316 0.602284 -1.54148e-18)
(2.21061 0.418219 -9.00922e-21)
(2.21696 0.413829 2.82682e-19)
(2.1382 0.374317 1.81591e-20)
(2.04141 0.337651 1.99859e-19)
(1.93737 0.287621 0)
(1.83769 0.233054 0)
(1.74435 0.175081 1.15976e-19)
(1.65934 0.115927 -1.19374e-19)
(1.58598 0.0489992 3.97002e-20)
(1.34256 0.613831 -1.9868e-18)
(1.92024 0.770614 6.25288e-19)
(2.01919 0.596571 -8.48607e-19)
(2.03908 0.550809 3.98629e-19)
(1.98827 0.49049 2.24159e-19)
(1.91417 0.42542 3.76047e-19)
(1.83429 0.354972 -9.79866e-20)
(1.75459 0.283403 7.81759e-20)
(1.67893 0.212161 -1.79787e-19)
(1.60883 0.14188 0)
(1.54759 0.0671174 1.87746e-20)
(1.0527 0.678251 1.49445e-18)
(1.56025 0.913811 -3.65214e-19)
(1.69003 0.744528 0)
(1.73872 0.657338 -4.82338e-19)
(1.73303 0.577511 -2.63813e-19)
(1.70428 0.494046 -3.01513e-19)
(1.66503 0.410312 3.18416e-21)
(1.61778 0.328479 0)
(1.56601 0.244561 3.91527e-20)
(1.5135 0.160905 1.16769e-20)
(1.46461 0.0884615 1.30515e-20)
(1.02843 1.0056 -7.65997e-19)
(1.26272 1.30754 0)
(1.33499 1.12105 0)
(1.35777 0.978413 1.21475e-19)
(1.35595 0.854863 0)
(1.34549 0.743888 -8.35644e-20)
(1.32007 0.661267 7.38429e-20)
(1.2517 0.623818 0)
(1.15068 0.616345 1.42602e-21)
(1.03169 0.620877 -5.74506e-21)
(0.907331 0.618027 -2.49493e-20)
(5.27734 -1.1034 0)
(4.03274 -0.720897 -4.60362e-19)
(4.14916 -0.587402 5.35006e-19)
(4.00407 -0.520006 0)
(3.75982 -0.462076 -1.9232e-19)
(3.4955 -0.409479 8.4412e-20)
(3.25105 -0.373282 -2.29112e-20)
(3.04197 -0.360518 -1.51782e-20)
(2.86394 -0.370655 -5.64025e-20)
(2.70861 -0.398227 0)
(2.5797 -0.428809 0)
(3.70695 -0.483084 -4.5961e-18)
(2.65085 -0.453488 1.9552e-18)
(3.16715 -0.752744 -1.70014e-18)
(3.38395 -0.852395 0)
(3.40688 -0.845673 2.18196e-19)
(3.3349 -0.777677 3.16793e-19)
(3.19619 -0.678493 -3.49606e-20)
(3.03482 -0.595732 1.82398e-19)
(2.88612 -0.554225 5.81364e-20)
(2.7523 -0.547163 8.43125e-20)
(2.64086 -0.562348 5.24513e-20)
(2.90599 0.979989 3.62131e-18)
(2.31235 0.366042 -5.73955e-19)
(2.57455 -0.290842 -1.73419e-18)
(2.78138 -0.656003 0)
(2.92197 -0.855524 8.27502e-19)
(3.00279 -0.922422 -1.26967e-18)
(3.00574 -0.881729 4.11319e-19)
(2.94426 -0.790685 -7.5847e-20)
(2.85177 -0.709445 3.21817e-21)
(2.75633 -0.67175 -1.31781e-19)
(2.67993 -0.673214 -1.05334e-19)
(2.92953 2.21014 5.7793e-18)
(2.5148 1.22549 -3.88787e-18)
(2.45178 0.41823 3.06887e-18)
(2.48954 -0.1542 0)
(2.57667 -0.565673 0)
(2.68005 -0.815007 -7.69894e-19)
(2.75495 -0.905039 5.72799e-19)
(2.77995 -0.879972 -1.30686e-19)
(2.76264 -0.809871 -2.42581e-19)
(2.72098 -0.756287 2.22015e-19)
(2.68781 -0.746074 -1.36082e-19)
(3.49025 2.94562 0)
(2.92172 1.95222 7.40824e-21)
(2.61423 1.10387 2.70322e-18)
(2.4717 0.40809 -1.90642e-18)
(2.43831 -0.147705 0)
(2.47455 -0.545431 0)
(2.54048 -0.772482 8.21959e-21)
(2.60165 -0.848345 -1.79472e-19)
(2.64003 -0.829275 0)
(2.6525 -0.785984 1.37513e-19)
(2.6638 -0.770926 0)
(4.01308 3.21846 3.97785e-18)
(3.31591 2.50189 -3.16681e-18)
(2.88895 1.66592 -1.50646e-19)
(2.5982 0.921339 -2.06641e-19)
(2.43668 0.289113 0)
(2.3796 -0.207204 0)
(2.39528 -0.543973 2.82005e-19)
(2.44899 -0.718837 1.75193e-19)
(2.51284 -0.767695 1.91491e-19)
(2.56698 -0.754654 -1.83815e-19)
(2.6166 -0.744221 1.37212e-19)
(4.13449 3.25122 1.97852e-18)
(3.60783 2.85986 0)
(3.17031 2.11058 0)
(2.77908 1.37883 2.0199e-19)
(2.50978 0.710986 0)
(2.35901 0.153073 1.15048e-18)
(2.30841 -0.26149 -1.44455e-18)
(2.33081 -0.518926 -1.04845e-18)
(2.39704 -0.636915 7.40902e-19)
(2.47775 -0.665432 5.53881e-19)
(2.56015 -0.669952 -7.83629e-19)
(4.24033 3.22287 -1.59057e-18)
(3.85705 3.0593 0)
(3.4409 2.45602 -1.50511e-18)
(2.98259 1.78335 2.98777e-18)
(2.62461 1.11134 -1.64572e-18)
(2.38795 0.520715 -7.17826e-19)
(2.26835 0.0539618 1.65501e-18)
(2.2483 -0.26767 -3.15984e-19)
(2.30176 -0.448217 5.05278e-19)
(2.39631 -0.523248 -2.94627e-19)
(2.50617 -0.551965 1.98101e-20)
(4.30227 3.13094 1.27552e-18)
(3.98431 3.09795 -2.82619e-18)
(3.65371 2.6831 1.92777e-18)
(3.18101 2.11872 0)
(2.76173 1.47847 1.69572e-20)
(2.45261 0.884183 -3.76152e-19)
(2.2689 0.389652 -5.2197e-19)
(2.20356 0.022722 6.83039e-19)
(2.23577 -0.21043 -4.45557e-19)
(2.33326 -0.332283 2.91225e-19)
(2.46431 -0.393275 0)
(4.32629 3.01653 1.98512e-18)
(4.05065 3.07193 5.9406e-19)
(3.80475 2.8051 -9.09499e-19)
(3.35882 2.37122 -1.32689e-18)
(2.91075 1.79848 2.95891e-18)
(2.54824 1.23137 6.36926e-19)
(2.31045 0.73315 -1.49101e-18)
(2.20236 0.339506 -6.16548e-19)
(2.20979 0.0649299 8.63608e-19)
(2.3023 -0.101664 0)
(2.44498 -0.201066 0)
(4.31881 2.89575 -1.1213e-18)
(4.07064 3.00751 -2.84061e-19)
(3.8813 2.82242 1.69096e-20)
(3.51056 2.54237 3.11839e-19)
(3.0623 2.06028 -4.77825e-19)
(2.67149 1.54436 6.41004e-19)
(2.39502 1.06566 -5.66569e-19)
(2.25166 0.664119 -6.34148e-19)
(2.23493 0.360798 -4.19043e-19)
(2.31745 0.154228 4.79356e-19)
(2.4647 0.0118304 -5.41135e-20)
(4.28446 2.77249 2.07289e-18)
(4.05767 2.92564 -1.07769e-18)
(3.90368 2.77732 -7.75159e-19)
(3.61222 2.61512 9.1904e-19)
(3.21334 2.25726 0)
(2.8154 1.80294 6.46414e-19)
(2.52015 1.36402 -4.2206e-19)
(2.3546 0.972714 1.16866e-18)
(2.31863 0.654428 3.64043e-19)
(2.38796 0.415908 -4.56314e-19)
(2.52876 0.233123 0)
(4.23756 2.6454 -9.64294e-19)
(4.02782 2.83148 7.79826e-19)
(3.90557 2.70258 -3.8741e-19)
(3.66946 2.60671 0)
(3.35233 2.3735 -7.99835e-19)
(2.97167 1.99597 6.10535e-19)
(2.68048 1.60934 8.13858e-19)
(2.50909 1.24327 -5.62296e-19)
(2.46211 0.922241 -3.62635e-19)
(2.518 0.659438 2.46488e-19)
(2.64268 0.441127 -2.44909e-19)
(4.19162 2.51604 -1.12348e-18)
(3.99634 2.73043 -1.87509e-18)
(3.90113 2.60878 1.29447e-18)
(3.71078 2.55505 -2.62983e-19)
(3.4591 2.40058 -7.53714e-19)
(3.13778 2.1215 5.77024e-19)
(2.86923 1.79028 -7.62825e-19)
(2.70843 1.45886 0)
(2.6594 1.14483 3.08877e-19)
(2.70277 0.865687 2.07261e-19)
(2.80802 0.614929 -2.21855e-19)
(4.1439 2.39211 1.21479e-18)
(3.96163 2.62802 -1.63242e-18)
(3.89073 2.50181 2.25606e-18)
(3.73837 2.47635 -1.93049e-18)
(3.54578 2.36998 7.75657e-19)
(3.29525 2.17103 -5.04187e-19)
(3.07332 1.90111 7.53556e-19)
(2.93948 1.6085 0)
(2.89778 1.30801 -1.64016e-19)
(2.93076 1.02014 1.01731e-20)
(3.01166 0.744695 3.22136e-19)
(4.10478 2.27592 -1.56395e-19)
(3.93207 2.5279 8.98301e-19)
(3.88216 2.38996 -7.00856e-19)
(3.76023 2.38245 2.54153e-19)
(3.61857 2.30414 0)
(3.43831 2.15966 -1.28098e-19)
(3.28017 1.94744 0)
(3.18669 1.69259 -1.12709e-19)
(3.16195 1.40848 -1.45565e-19)
(3.1891 1.11598 -1.76291e-19)
(3.246 0.818 9.27996e-20)
(4.08077 2.16914 0)
(3.9137 2.43266 4.33764e-25)
(3.88045 2.28095 0)
(3.7826 2.28458 -1.27813e-19)
(3.68333 2.2227 4.48425e-23)
(3.56922 2.11411 1.29771e-19)
(3.48009 1.94697 3.26835e-19)
(3.4376 1.72391 -1.32021e-19)
(3.43954 1.45364 0)
(3.46589 1.15715 -1.48092e-19)
(3.49819 0.838083 1.08949e-19)
(4.0645 2.07594 -1.27398e-18)
(3.90209 2.34119 -4.4889e-25)
(3.88145 2.18141 -8.87146e-20)
(3.80339 2.19363 -5.07212e-19)
(3.74094 2.1456 3.89734e-19)
(3.68908 2.06456 -3.70968e-19)
(3.67054 1.92792 2.90354e-19)
(3.68879 1.72396 1.12127e-22)
(3.7269 1.45557 7.14611e-20)
(3.75689 1.14525 -8.27387e-20)
(3.7599 0.802851 4.2493e-20)
(4.05535 1.99613 0)
(3.89631 2.2525 0)
(3.88052 2.0981 2.80316e-19)
(3.81863 2.12408 0)
(3.7913 2.09877 0)
(3.80069 2.04314 -1.19772e-19)
(3.85649 1.92138 2.94888e-19)
(3.94073 1.71223 0)
(4.01934 1.42149 7.9171e-20)
(4.0568 1.07974 8.38156e-20)
(4.03134 0.705397 1.07425e-20)
(4.06006 1.93031 -1.42735e-18)
(3.87694 2.17004 1.09004e-18)
(3.85271 2.0514 -1.99256e-19)
(3.80897 2.10037 -3.01367e-19)
(3.81865 2.10412 -4.19157e-19)
(3.89604 2.05718 1.73785e-20)
(4.05455 1.89831 0)
(4.22815 1.61765 2.79798e-19)
(4.34597 1.26129 -1.74142e-19)
(4.36788 0.897005 1.31673e-20)
(4.29385 0.513694 0)
(3.99669 1.9012 -1.62496e-18)
(3.80179 2.09511 0)
(3.77251 2.03779 4.29781e-19)
(3.77137 2.08181 -3.46201e-19)
(3.85588 2.04833 -2.39386e-19)
(4.08361 1.82258 2.63723e-19)
(4.32244 1.4465 4.27396e-19)
(4.49044 1.06961 -2.89857e-19)
(4.57142 0.714355 1.64239e-19)
(4.56684 0.375982 -1.19042e-19)
(4.45945 0.0584827 0)
(3.76682 1.85856 -1.4166e-18)
(3.62306 2.00939 1.413e-18)
(3.67398 1.92239 5.39229e-19)
(3.80653 1.84478 -7.2919e-21)
(4.02068 1.50991 0)
(4.24816 1.10838 0)
(4.42339 0.782675 -5.15757e-19)
(4.54712 0.479361 7.04227e-19)
(4.61842 0.186621 0)
(4.61854 -0.0941911 0)
(4.49179 -0.384074 -2.38722e-19)
(3.29568 1.93793 -3.09289e-18)
(3.622 1.59043 1.35383e-18)
(3.79265 1.44908 1.17166e-20)
(3.98295 1.12701 4.32555e-20)
(4.15622 0.809236 1.18039e-19)
(4.3064 0.538822 -5.46466e-19)
(4.43788 0.295919 3.1041e-19)
(4.55358 0.0612197 -3.86541e-19)
(4.6441 -0.173852 -3.16757e-19)
(4.68445 -0.409846 -6.27543e-19)
(4.60094 -0.657174 3.45851e-19)
(3.86146 1.15337 -1.82325e-18)
(3.93238 1.15728 2.97766e-18)
(4.0399 0.829015 -7.99017e-19)
(4.12016 0.57138 0)
(4.20304 0.369227 7.25922e-19)
(4.30047 0.187805 5.03449e-19)
(4.41053 0.00940749 0)
(4.52715 -0.179644 -1.31633e-18)
(4.63692 -0.384047 1.1562e-18)
(4.71836 -0.603423 -3.98982e-20)
(4.71624 -0.837458 -7.31883e-19)
(5.65971 0.928347 -1.70538e-18)
(5.05519 0.998314 -2.27849e-19)
(4.57064 0.601995 2.67986e-19)
(4.16603 0.311925 1.29394e-19)
(3.81061 0.132031 -1.42984e-19)
(3.49791 0.0229098 0)
(3.22988 -0.0496207 2.30032e-20)
(3.00448 -0.109507 4.11802e-20)
(2.813 -0.17003 -7.44091e-20)
(2.6471 -0.233594 0)
(2.50699 -0.290207 0)
(3.82107 2.67434 0)
(4.03677 2.16556 -8.3362e-20)
(4.07361 1.68295 -2.69008e-19)
(3.96237 1.20768 -3.78911e-20)
(3.75009 0.822545 2.36104e-19)
(3.48774 0.538524 -1.80322e-19)
(3.22227 0.336567 1.49675e-19)
(2.98184 0.187009 -2.73897e-19)
(2.77304 0.0647511 3.87163e-20)
(2.59152 -0.0429358 0)
(2.43768 -0.128766 -7.08109e-20)
(2.47713 2.91274 5.54051e-18)
(3.09141 2.51885 4.12199e-19)
(3.39148 2.22658 -1.72291e-18)
(3.51667 1.8316 -3.20302e-19)
(3.48483 1.4211 2.64499e-19)
(3.33581 1.05316 2.54538e-19)
(3.12671 0.752774 3.25606e-19)
(2.90685 0.516252 -1.43344e-19)
(2.70235 0.326287 2.40232e-19)
(2.52008 0.169497 7.66632e-20)
(2.36086 0.0510563 1.42698e-20)
(2.19887 2.77824 -4.9115e-19)
(2.51427 2.5349 0)
(2.76662 2.44385 5.22385e-19)
(2.99813 2.19772 3.12484e-19)
(3.10109 1.85736 0)
(3.06278 1.4904 1.8268e-20)
(2.92985 1.14546 -3.19152e-19)
(2.75524 0.846183 0)
(2.57625 0.592898 2.40193e-19)
(2.41057 0.380077 0)
(2.26466 0.21805 -1.37505e-19)
(2.2511 2.62378 -2.2829e-18)
(2.38361 2.45311 1.83483e-18)
(2.46252 2.47968 -8.67798e-19)
(2.58775 2.3796 -1.77997e-19)
(2.6879 2.16415 1.82327e-19)
(2.71337 1.85895 -5.36979e-19)
(2.652 1.51644 2.00531e-19)
(2.53643 1.17814 1.22115e-19)
(2.40028 0.868848 -3.59458e-19)
(2.26314 0.601778 2.95145e-20)
(2.13299 0.400796 1.14512e-19)
(2.43955 2.50948 7.50186e-19)
(2.43711 2.37817 0)
(2.39971 2.42379 2.06416e-19)
(2.41364 2.39608 -1.1697e-19)
(2.42607 2.28518 -1.74497e-19)
(2.40225 2.08533 0)
(2.33301 1.81267 1.32645e-19)
(2.23486 1.49691 -2.22057e-19)
(2.12924 1.16962 1.17556e-19)
(2.02907 0.8592 -3.96273e-20)
(1.94305 0.603659 0)
(2.62605 2.42222 0)
(2.54802 2.32832 0)
(2.44694 2.34978 -6.11453e-20)
(2.37163 2.3389 -5.90635e-19)
(2.29728 2.27391 4.37491e-19)
(2.2031 2.13779 -3.3939e-19)
(2.08487 1.92707 2.55195e-19)
(1.96264 1.65311 0)
(1.85896 1.34179 5.59093e-20)
(1.7772 1.02891 -6.67185e-20)
(1.71311 0.765255 4.65237e-20)
(2.78688 2.34496 -1.31519e-20)
(2.66642 2.29774 0)
(2.54267 2.28893 8.30547e-21)
(2.41181 2.27194 -1.65136e-20)
(2.26726 2.22014 0)
(2.09748 2.11606 3.9192e-20)
(1.90667 1.95029 3.00512e-20)
(1.72485 1.7193 -4.33572e-20)
(1.59218 1.43467 -1.35813e-19)
(1.51516 1.13116 5.58084e-21)
(1.46915 0.866819 4.87289e-20)
(2.93613 2.28157 -2.40349e-19)
(2.78374 2.27623 -1.50362e-20)
(2.65909 2.24484 1.62015e-19)
(2.49567 2.217 -1.15824e-19)
(2.30742 2.16071 9.99617e-20)
(2.08473 2.06533 7.44684e-20)
(1.82225 1.91886 -1.01089e-19)
(1.55915 1.7175 -6.13721e-20)
(1.36273 1.45767 1.40587e-19)
(1.26405 1.1621 2.61477e-20)
(1.22097 0.89703 -2.40387e-20)
(3.07138 2.2427 2.56207e-20)
(2.89911 2.26121 -1.64535e-20)
(2.78549 2.2098 3.42847e-20)
(2.60277 2.17513 -2.64543e-20)
(2.38837 2.10744 1.07821e-20)
(2.12992 2.00453 -1.71249e-20)
(1.82286 1.85891 -6.22657e-20)
(1.48868 1.66789 0)
(1.19824 1.42187 4.78726e-20)
(1.04344 1.13283 7.0805e-21)
(0.990267 0.868716 0)
(3.19841 2.21146 -2.90152e-19)
(3.02186 2.24778 1.76716e-19)
(2.91428 2.17835 1.46461e-19)
(2.72206 2.1403 1.84219e-20)
(2.49742 2.05913 -1.45229e-19)
(2.21832 1.94369 -1.78746e-19)
(1.88018 1.78487 6.10083e-20)
(1.49703 1.58139 -7.06416e-20)
(1.12879 1.3395 -1.76214e-20)
(0.883467 1.05068 1.67343e-19)
(0.801244 0.78741 -4.08463e-21)
(3.32936 2.16853 -1.78391e-19)
(3.14213 2.2412 -2.84782e-19)
(3.0369 2.15191 4.35037e-19)
(2.85045 2.10443 0)
(2.62527 2.01019 1.18353e-19)
(2.33861 1.87998 -3.90132e-20)
(1.98516 1.70328 0)
(1.57151 1.47622 5.89904e-19)
(1.14432 1.21312 1.04278e-19)
(0.814989 0.919587 0)
(0.668521 0.6532 0)
(3.45404 2.12454 6.88379e-19)
(3.25387 2.23331 -7.32927e-19)
(3.15998 2.1252 0)
(2.98307 2.0646 0)
(2.76265 1.95777 -5.29591e-20)
(2.48093 1.80952 0)
(2.12809 1.61138 0)
(1.70486 1.35744 -1.26653e-18)
(1.24353 1.06262 4.79768e-20)
(0.84753 0.741512 0)
(0.613137 0.468676 6.36878e-20)
(3.57214 2.08366 -1.43656e-18)
(3.36124 2.21833 7.60752e-19)
(3.27964 2.09618 0)
(3.11292 2.01966 0)
(2.90416 1.89846 -2.85152e-19)
(2.63793 1.72985 7.78961e-19)
(2.30172 1.50665 5.16158e-20)
(1.8904 1.22414 -5.86998e-19)
(1.42129 0.895644 -2.86735e-21)
(0.979684 0.545232 -9.49768e-19)
(0.673225 0.231255 7.48451e-20)
(3.68379 2.04875 1.51185e-19)
(3.4654 2.19757 -1.00513e-18)
(3.3941 2.06269 5.63582e-19)
(3.23933 1.96819 -7.07399e-19)
(3.04679 1.82874 2.39233e-19)
(2.80404 1.63707 1.44378e-18)
(2.49818 1.38735 -7.61424e-19)
(2.11927 1.07679 0)
(1.67102 0.717226 9.99128e-19)
(1.21224 0.339644 6.44226e-19)
(0.869234 -0.0336127 -5.27982e-19)
(3.78541 2.01533 5.08172e-19)
(3.5632 2.16724 3.02756e-19)
(3.50033 2.02012 1.19779e-18)
(3.36004 1.90447 -1.57773e-18)
(3.18774 1.74229 5.95388e-19)
(2.9748 1.52566 -1.15124e-18)
(2.71024 1.2513 1.35218e-18)
(2.38232 0.918227 -7.52642e-19)
(1.98362 0.534628 2.30728e-18)
(1.53948 0.135297 -8.49611e-19)
(1.20125 -0.306189 0)
(3.87611 1.98199 -1.61226e-18)
(3.65314 2.12315 2.29292e-18)
(3.59732 1.96212 7.18426e-20)
(3.47402 1.82109 -8.62376e-19)
(3.32596 1.63385 7.43812e-19)
(3.14825 1.39439 -9.65404e-19)
(2.93277 1.10119 -5.59917e-19)
(2.66874 0.754096 -4.40008e-20)
(2.34337 0.357303 1.07059e-20)
(1.94992 -0.0563182 9.09932e-19)
(1.62879 -0.526979 -6.67549e-19)
(3.95145 1.94533 0)
(3.73179 2.05626 0)
(3.68178 1.8793 1.25953e-18)
(3.57789 1.71366 -9.68295e-19)
(3.45818 1.50536 -4.00245e-19)
(3.32046 1.24883 7.26886e-19)
(3.15945 0.942863 -2.1852e-18)
(2.96693 0.588861 8.44197e-19)
(2.73076 0.188061 4.26638e-21)
(2.42958 -0.23981 4.9228e-19)
(2.14736 -0.718029 -6.79152e-19)