/*--------------------------------*- C++ -*----------------------------------*\
| =========                 |                                                 |
| \\      /  F ield         | OpenFOAM: The Open Source CFD Toolbox           |
|  \\    /   O peration     | Version:  3.0.1                                 |
|   \\  /    A nd           | Web:      www.OpenFOAM.org                      |
|    \\/     M anipulation  |                                                 |
\*---------------------------------------------------------------------------*/
FoamFile
{
    version     2.0;
    format      ascii;
    class       volScalarField;
    location    "0.699086";
    object      k;
}
// * * * * * * * * * * * * * * * * * * * * * * * * * * * * * * * * * * * * * //

dimensions      [0 2 -2 0 0 0 0];

internalField   nonuniform List<scalar> 
21246
(
0.469005
0.628689
0.263602
0.134223
0.0635001
0.0325609
0.0204132
0.0157965
0.013802
0.0127514
0.0120639
0.502135
0.727833
0.33371
0.167541
0.0817757
0.0395916
0.0223923
0.0161408
0.0136642
0.0124535
0.0117069
0.513023
0.652876
0.366575
0.197282
0.0973353
0.0475614
0.0252706
0.0169131
0.0137632
0.012336
0.0115336
0.496921
0.577546
0.37146
0.20927
0.108717
0.054696
0.0284978
0.0179808
0.0140603
0.0123844
0.0115412
0.46174
0.533223
0.366485
0.213292
0.116345
0.0610221
0.0317298
0.0192517
0.0145242
0.0125675
0.0116643
0.41662
0.507313
0.361462
0.217197
0.123098
0.0671758
0.0352168
0.0206865
0.0151252
0.0128594
0.0118634
0.367434
0.492734
0.359005
0.222664
0.130139
0.0730315
0.039299
0.0225713
0.015845
0.013238
0.0121352
0.318408
0.486851
0.359601
0.229144
0.137367
0.078924
0.0435645
0.0248876
0.016863
0.0137209
0.0124624
0.273515
0.484732
0.364492
0.237265
0.145152
0.0852161
0.0481568
0.0275969
0.0181616
0.0143512
0.0128621
0.234245
0.483808
0.374508
0.248327
0.154427
0.0924594
0.0533935
0.0308194
0.0198116
0.0151529
0.0133427
0.200693
0.485839
0.389524
0.262454
0.165298
0.100698
0.0593622
0.0346307
0.0218769
0.0161777
0.0139153
0.174084
0.493655
0.409872
0.279438
0.177432
0.10965
0.0659474
0.0390284
0.0244044
0.0174858
0.0146185
0.156059
0.504738
0.436181
0.300625
0.191724
0.119712
0.0733291
0.0441403
0.0275021
0.0191618
0.0155074
0.146024
0.514555
0.468112
0.327885
0.209701
0.131702
0.0818939
0.0501926
0.0313541
0.0213455
0.016666
0.1441
0.529131
0.506159
0.361804
0.231897
0.145912
0.0917653
0.057262
0.0360802
0.0241836
0.018229
0.150283
0.545881
0.549209
0.404341
0.260476
0.163723
0.10366
0.0657241
0.041938
0.0278993
0.020376
0.161098
0.556519
0.592506
0.457146
0.298841
0.187671
0.119063
0.0763792
0.0494061
0.0328585
0.0234003
0.169466
0.556613
0.628254
0.518392
0.349795
0.220779
0.14008
0.0905105
0.0592689
0.039606
0.0277382
0.17379
0.543142
0.646005
0.580336
0.415014
0.267685
0.170704
0.110829
0.0732335
0.0492567
0.0341892
0.17329
0.514957
0.635913
0.626117
0.489986
0.333404
0.217694
0.142809
0.0950875
0.0643206
0.0444564
0.16827
0.467044
0.593443
0.637425
0.561278
0.420743
0.291585
0.197298
0.133397
0.0909324
0.0628071
0.177367
0.422024
0.539116
0.621911
0.611735
0.519701
0.398646
0.288852
0.203826
0.142748
0.0999778
0.165951
0.359859
0.431794
0.494686
0.521025
0.507783
0.454649
0.376528
0.294936
0.224171
0.166461
0.221373
0.446533
0.460401
0.499477
0.518118
0.51144
0.478758
0.420658
0.354272
0.290808
0.232481
0.390508
0.430732
0.225101
0.105837
0.0529434
0.0297264
0.0200856
0.0160755
0.0142375
0.0132568
0.0126344
0.308704
0.346086
0.196473
0.11157
0.0590041
0.0334201
0.022031
0.0172152
0.0150481
0.0139439
0.0132928
0.314933
0.351293
0.194409
0.130777
0.0747308
0.0425153
0.0262788
0.0192923
0.01631
0.0149127
0.0141899
0.320128
0.329475
0.184656
0.137876
0.0848673
0.0513359
0.0321567
0.0226115
0.0182813
0.0162869
0.0153359
0.321977
0.291798
0.176105
0.13698
0.085912
0.0533566
0.0339245
0.0240947
0.0194618
0.0172695
0.0162003
0.321538
0.257628
0.167269
0.131142
0.0835006
0.053495
0.0347073
0.0249629
0.0203018
0.0181029
0.0170771
0.320092
0.230816
0.15883
0.124114
0.0799165
0.0525759
0.0347676
0.0254657
0.0209603
0.018862
0.0179706
0.317828
0.210046
0.15096
0.117393
0.0764756
0.0514284
0.034574
0.0257816
0.0215062
0.0195839
0.0188905
0.315754
0.193898
0.144229
0.111749
0.0738392
0.0504049
0.034399
0.0260292
0.0219354
0.0201371
0.0195539
0.314491
0.18159
0.138635
0.107267
0.0721691
0.049734
0.0343838
0.0262893
0.0223025
0.0205857
0.0201169
0.314344
0.172291
0.134363
0.104257
0.0713859
0.049579
0.0346223
0.0266259
0.022651
0.0209665
0.0205985
0.315152
0.164956
0.130934
0.102391
0.0713463
0.0499429
0.0351477
0.0270795
0.0230123
0.0212909
0.0209535
0.31716
0.159184
0.128352
0.101578
0.0720871
0.0508973
0.0360272
0.0277049
0.0234221
0.021574
0.0211984
0.31908
0.155771
0.126579
0.101729
0.0737789
0.0526308
0.037444
0.0286247
0.0239526
0.0218633
0.0213717
0.320474
0.153606
0.125077
0.102169
0.0761202
0.055097
0.0395878
0.0300786
0.0248249
0.0223372
0.0216032
0.321489
0.152714
0.123868
0.102859
0.0790134
0.0583606
0.0425712
0.0322466
0.0262132
0.0231367
0.022011
0.322228
0.153135
0.123028
0.103758
0.0823592
0.0624724
0.0465379
0.0353672
0.0283788
0.0244969
0.0227825
0.322736
0.154726
0.122595
0.104771
0.0859734
0.0673788
0.0516009
0.0397081
0.0316706
0.0267786
0.0242387
0.323099
0.157439
0.122699
0.105839
0.0896411
0.0729141
0.0577981
0.045524
0.0365157
0.0304894
0.0268978
0.323471
0.161332
0.123569
0.106965
0.0931171
0.0787402
0.0649642
0.0529251
0.0433122
0.0362442
0.0314949
0.32409
0.166374
0.125469
0.108232
0.0961227
0.0842741
0.0725264
0.061577
0.0521077
0.0444871
0.0388037
0.325614
0.17217
0.128488
0.109739
0.098325
0.0885938
0.0792013
0.0701558
0.061837
0.0546099
0.0487217
0.328514
0.179472
0.13307
0.111748
0.0995071
0.0906135
0.0829734
0.0759843
0.0695805
0.0638497
0.0589356
0.345641
0.189823
0.151048
0.133299
0.123347
0.116188
0.109995
0.107844
0.108366
0.110636
0.113184
0.285514
0.545422
0.540663
0.528974
0.46624
0.334749
0.216646
0.144137
0.10079
0.0722346
0.0523351
0.234744
0.392895
0.440454
0.455962
0.427922
0.335751
0.22428
0.136522
0.086855
0.0582426
0.0402141
0.162219
0.293473
0.353069
0.380665
0.373688
0.31385
0.222111
0.135716
0.079249
0.0486193
0.0314586
0.106534
0.239744
0.287212
0.315226
0.318485
0.280059
0.20809
0.1305
0.0742492
0.0426685
0.0256996
0.0822147
0.198937
0.238264
0.262362
0.268934
0.243077
0.18682
0.120561
0.0688293
0.0383339
0.0221446
0.0735016
0.160805
0.197623
0.219498
0.226329
0.207454
0.162852
0.10778
0.0626749
0.0348423
0.0197511
0.0651714
0.130818
0.163776
0.183155
0.189987
0.175054
0.139192
0.0942262
0.0562946
0.0318873
0.0181403
0.0586295
0.108011
0.136251
0.152837
0.159394
0.146946
0.117938
0.0816994
0.0504665
0.0294921
0.0170799
0.0531539
0.0908224
0.115046
0.129052
0.134685
0.124165
0.100705
0.0715872
0.0458899
0.0278055
0.016513
0.0485802
0.0784144
0.0999122
0.111701
0.116079
0.107332
0.0882957
0.0645631
0.0429393
0.026937
0.0164224
0.0449838
0.0700326
0.089855
0.0997899
0.103274
0.0961328
0.0804414
0.0604892
0.0415769
0.0268588
0.0167272
0.0424319
0.0647204
0.0834478
0.0922512
0.095319
0.0895186
0.0762398
0.0587971
0.0415299
0.0274618
0.0174098
0.0404775
0.061364
0.07955
0.0878591
0.0909125
0.0862486
0.0747107
0.0588907
0.0425211
0.0286368
0.0184267
0.0388181
0.0591447
0.0772166
0.0854845
0.0888234
0.0851852
0.0749828
0.0602513
0.0443139
0.0302955
0.01971
0.0373247
0.0578232
0.0759554
0.0843507
0.0881248
0.085439
0.0763639
0.0624653
0.0467334
0.0324019
0.0213149
0.0359469
0.0569634
0.0752424
0.0838708
0.0882027
0.0865054
0.0785447
0.0654349
0.0498255
0.0350335
0.0232623
0.0345708
0.0561428
0.0746499
0.0836432
0.0887204
0.0882173
0.081567
0.0693707
0.0538668
0.0384399
0.0257262
0.0331038
0.0553015
0.0740508
0.0835142
0.0896544
0.0907756
0.0858437
0.0747997
0.0593705
0.0430326
0.0290087
0.0314641
0.0542843
0.0733144
0.0835601
0.091486
0.095065
0.0924856
0.0828108
0.0672219
0.0494065
0.0333735
0.0295712
0.0528796
0.0725144
0.0844493
0.0956394
0.103019
0.103497
0.0951636
0.0787609
0.0584984
0.0394908
0.0269124
0.0511938
0.0737533
0.0894294
0.105902
0.118345
0.121485
0.113299
0.0950911
0.0712374
0.0480985
0.0345078
0.062309
0.0793591
0.103816
0.131474
0.14849
0.150718
0.138088
0.115253
0.0874043
0.0595745
0.0334324
0.101478
0.1418
0.183741
0.21576
0.229775
0.221082
0.188976
0.14367
0.104811
0.0730385
0.185844
0.235085
0.283351
0.317962
0.332381
0.325559
0.301547
0.263756
0.207264
0.140534
0.0920037
0.298372
0.555056
0.581242
0.553795
0.466018
0.344181
0.237137
0.167606
0.124119
0.0930628
0.0684417
0.17653
0.322642
0.437889
0.502598
0.491156
0.406146
0.294417
0.21134
0.160747
0.124881
0.0965406
0.10978
0.178193
0.291177
0.4051
0.474373
0.457306
0.359706
0.261163
0.202937
0.16252
0.130932
0.103345
0.135584
0.206131
0.305241
0.406718
0.460694
0.412611
0.304738
0.244494
0.204247
0.169169
0.10798
0.139202
0.189843
0.257217
0.34206
0.422683
0.441515
0.349707
0.257511
0.229074
0.204989
0.113704
0.148925
0.192858
0.244489
0.310421
0.388553
0.442023
0.404858
0.290751
0.225158
0.219798
0.119809
0.160283
0.201216
0.242955
0.29372
0.361902
0.430934
0.438502
0.342977
0.237944
0.215338
0.126082
0.172201
0.211708
0.245691
0.283281
0.33813
0.409149
0.450278
0.388355
0.270785
0.207923
0.132461
0.184737
0.223663
0.250728
0.276516
0.316561
0.380053
0.440271
0.416915
0.306451
0.215529
0.138895
0.197907
0.236639
0.256961
0.27247
0.298225
0.348815
0.415758
0.427262
0.335837
0.231262
0.145546
0.211632
0.250135
0.263778
0.270665
0.284252
0.320595
0.384676
0.421605
0.353768
0.246201
0.152799
0.22587
0.264215
0.271438
0.270669
0.274895
0.299067
0.353657
0.408594
0.361934
0.258228
0.161007
0.240887
0.278004
0.279871
0.27191
0.269255
0.284516
0.323209
0.37855
0.369017
0.264508
0.169484
0.257136
0.293032
0.289108
0.273382
0.263514
0.27138
0.298734
0.337437
0.353384
0.271145
0.178066
0.275236
0.310292
0.300241
0.275775
0.257409
0.256875
0.273549
0.298923
0.316166
0.279329
0.187428
0.296545
0.331437
0.315
0.280557
0.252298
0.242996
0.250802
0.267406
0.28357
0.275779
0.197987
0.322562
0.358908
0.336488
0.290828
0.250754
0.231705
0.231304
0.241597
0.254548
0.255733
0.210053
0.355338
0.397009
0.371222
0.314123
0.259051
0.226323
0.215223
0.218142
0.224699
0.225705
0.223698
0.397285
0.452074
0.429775
0.364596
0.292263
0.240444
0.215474
0.207465
0.206275
0.204353
0.233101
0.43806
0.50936
0.496599
0.427148
0.342105
0.276234
0.239182
0.223304
0.218721
0.217645
0.222973
0.448227
0.531097
0.532817
0.472583
0.384851
0.308412
0.260607
0.237412
0.229593
0.229919
0.216394
0.436343
0.525148
0.536722
0.48689
0.405217
0.327386
0.272844
0.241211
0.221741
0.190623
0.214436
0.413117
0.491039
0.502504
0.463999
0.398805
0.331644
0.277301
0.23978
0.204557
0.15054
0.274765
0.405781
0.439545
0.43625
0.409512
0.365655
0.31539
0.271784
0.231008
0.178051
0.119986
1.23147
1.62182
1.03811
0.572732
0.308696
0.167018
0.0899654
0.0482322
0.0260483
0.0148379
0.00959224
0.769242
1.0967
0.826818
0.514598
0.299223
0.169871
0.0939912
0.0508178
0.0272281
0.0150987
0.00945243
0.583154
0.838908
0.72689
0.537422
0.342753
0.200082
0.111288
0.0598347
0.0315202
0.0169066
0.0101136
0.511375
0.700632
0.623653
0.498035
0.339614
0.209089
0.119967
0.0652084
0.0342278
0.0181529
0.0107307
0.471496
0.603626
0.543411
0.444557
0.31
0.197493
0.117346
0.0659375
0.0355113
0.0190216
0.0111093
0.443281
0.524327
0.477716
0.394888
0.278599
0.18133
0.110727
0.0641678
0.0355872
0.019486
0.0115504
0.422185
0.463475
0.424319
0.350045
0.248903
0.1642
0.102365
0.0609613
0.0348295
0.0195728
0.0117508
0.405605
0.415743
0.380659
0.312497
0.223057
0.148344
0.0938757
0.0571496
0.0335184
0.019342
0.012045
0.392607
0.377707
0.345061
0.28198
0.201606
0.13473
0.0861665
0.0533866
0.0320677
0.0190284
0.0121786
0.382592
0.346829
0.316228
0.257732
0.18447
0.123652
0.0796682
0.0500399
0.0306745
0.0186537
0.0121337
0.374661
0.32127
0.292485
0.238261
0.170805
0.114776
0.0743606
0.0472122
0.0294237
0.0182412
0.0121047
0.367976
0.299799
0.272445
0.222165
0.159668
0.107604
0.0700646
0.0448989
0.0283792
0.0178833
0.012029
0.362999
0.281647
0.25569
0.209118
0.150864
0.102041
0.0667567
0.0431294
0.0275952
0.0176266
0.0120002
0.360319
0.266511
0.241971
0.199035
0.144388
0.0980939
0.0644642
0.0419422
0.0271102
0.0174946
0.0120397
0.35873
0.253734
0.230384
0.191069
0.139702
0.0954922
0.0630752
0.0413166
0.0269509
0.0175324
0.0121591
0.358215
0.242984
0.220588
0.185093
0.136884
0.0943034
0.0626525
0.0413106
0.0271762
0.0177835
0.0123969
0.358525
0.23433
0.211896
0.180183
0.135634
0.094801
0.063565
0.0421924
0.0279616
0.0183904
0.0128195
0.359639
0.227163
0.204098
0.176032
0.13555
0.0966845
0.0657508
0.0440055
0.0293625
0.0194427
0.0135375
0.36179
0.221448
0.197117
0.172498
0.136487
0.0999719
0.069404
0.0470171
0.031607
0.0210992
0.0146391
0.365425
0.217202
0.190864
0.169363
0.138188
0.104622
0.0747678
0.0516607
0.035137
0.0236834
0.016361
0.371271
0.214514
0.185227
0.166295
0.140181
0.110375
0.0819962
0.0584708
0.0406547
0.0278307
0.0192173
0.380956
0.212886
0.18004
0.162865
0.14175
0.116605
0.0909073
0.0678485
0.0490027
0.0345466
0.024142
0.394654
0.211351
0.174665
0.158572
0.142136
0.122335
0.100717
0.079599
0.0607094
0.0449207
0.0325162
0.412806
0.207124
0.174314
0.159153
0.145247
0.129253
0.111461
0.0930995
0.0754047
0.0592984
0.0454196
1.29153
2.51442
1.1988
0.787161
0.444017
0.227946
0.115444
0.0590908
0.0306759
0.0168263
0.0105112
1.26918
2.20795
1.40373
0.941807
0.582653
0.315779
0.162539
0.081787
0.04072
0.0210249
0.0122401
1.13292
1.75039
1.37157
0.977888
0.662364
0.390318
0.215359
0.111297
0.0548838
0.027201
0.0150482
0.935729
1.47372
1.27624
0.948095
0.677317
0.438253
0.261897
0.142665
0.0719565
0.0354955
0.019462
0.742061
1.35168
1.1911
0.900112
0.662907
0.46067
0.29627
0.17154
0.0902027
0.0452047
0.0243832
0.589638
1.31439
1.13209
0.857092
0.640084
0.467969
0.318848
0.195482
0.107779
0.0554505
0.0297949
0.487644
1.30431
1.09677
0.824148
0.617094
0.466285
0.333879
0.214364
0.123582
0.0655865
0.0356655
0.425882
1.30937
1.0786
0.798992
0.595541
0.459948
0.342486
0.229976
0.137445
0.0750505
0.0405241
0.391604
1.31858
1.07289
0.780564
0.57645
0.451645
0.34644
0.241773
0.150412
0.0842372
0.0451682
0.373355
1.32387
1.07569
0.768303
0.560438
0.442943
0.347711
0.250633
0.161365
0.0926537
0.0501621
0.361524
1.31225
1.08515
0.763334
0.548708
0.435053
0.347698
0.257702
0.171107
0.100638
0.055053
0.35269
1.29452
1.09851
0.763618
0.540701
0.428222
0.34695
0.263521
0.18011
0.10867
0.0597285
0.346517
1.27727
1.11221
0.768974
0.537044
0.42311
0.346117
0.268658
0.188841
0.117229
0.0650745
0.338752
1.24444
1.12251
0.780993
0.539169
0.420614
0.345846
0.273638
0.197746
0.126744
0.0718961
0.329589
1.20331
1.12717
0.797597
0.546513
0.421013
0.346521
0.278731
0.207066
0.137496
0.0808104
0.320122
1.15467
1.12425
0.817666
0.559739
0.425292
0.34891
0.284439
0.217133
0.149923
0.0921833
0.309382
1.09364
1.11083
0.839259
0.579213
0.434683
0.354175
0.291516
0.228292
0.16423
0.106518
0.297056
1.02472
1.08394
0.858133
0.604041
0.450399
0.363935
0.301148
0.241083
0.180533
0.123915
0.283549
0.947732
1.03982
0.86745
0.631611
0.473705
0.380864
0.315615
0.25677
0.199167
0.14433
0.275189
0.883583
0.979924
0.862493
0.660342
0.508152
0.410631
0.340183
0.27892
0.221769
0.168043
0.276034
0.774161
0.885318
0.825055
0.680321
0.552792
0.456632
0.379059
0.310872
0.249939
0.194487
0.347302
0.697512
0.738944
0.719235
0.621797
0.527933
0.446969
0.375361
0.308748
0.247168
0.190564
0.309945
0.637714
0.685341
0.559525
0.456249
0.370953
0.297983
0.234199
0.180969
0.138635
0.104794
0.405883
0.317394
0.245326
0.201293
0.171651
0.148469
0.128214
0.109437
0.0917685
0.0753174
0.0602979
0.0875062
0.0799734
0.0662007
0.0426967
0.0158683
0.0133091
0.0157643
0.0186501
0.0368452
0.104803
0.0855581
0.0676853
0.0503239
0.0375545
0.0251387
0.0244739
0.0383817
0.0550657
0.102279
0.0896399
0.0758651
0.0583416
0.0422183
0.0311761
0.0306884
0.04567
0.066787
0.0911208
0.0802352
0.0709493
0.0590165
0.0457765
0.0372198
0.0375876
0.0507671
0.0683944
0.0924946
0.0944456
0.0939791
0.0915127
0.0919691
0.0883493
0.0813997
0.0731615
0.0604835
0.123202
0.138169
0.149398
0.155404
0.143765
0.130589
0.113947
0.0932147
0.0727028
0.118168
0.136836
0.149898
0.152212
0.139058
0.122896
0.108007
0.0967005
0.0837149
0.104085
0.118957
0.129906
0.130631
0.119183
0.105237
0.0936934
0.0846183
0.0777254
0.00442772
0.00460056
0.00461595
0.00250643
0.0457618
0.00439132
0.011435
0.00453879
0.00438299
0.00423621
0.0456878
0.00454923
0.00372046
0.00329667
0.00448392
0.00430193
0.00329705
0.00249234
0.00429089
0.0042485
0.00411939
0.00433948
0.0046659
0.0173281
0.00449473
0.00330817
0.00376762
0.011074
0.0861936
0.0481545
0.00338496
0.00410368
0.00298951
0.00453425
0.00425985
0.00459163
0.0161825
0.00448988
0.00289304
0.00440159
0.00709534
0.00454334
0.00579016
0.00465866
0.0619764
0.0146093
0.00322791
0.0231165
0.00429635
0.00431141
0.0480286
0.0044072
0.0225073
0.0058742
0.00430898
0.004126
0.0042456
0.00441377
0.0843619
0.00786054
0.00581199
0.0219078
0.0520625
0.00852641
0.0086564
0.00425911
0.050711
0.00425843
0.00460121
0.00422547
0.00329179
0.00428646
0.00318907
0.00454751
0.00688057
0.00426827
0.00457432
0.00459583
0.00937825
0.0731753
0.0503999
0.00676337
0.00449618
0.00462551
0.00437239
0.00322702
0.112428
0.0223724
0.00315017
0.0176731
0.0045422
0.00442406
0.00715227
0.00429575
0.0719839
0.0296854
0.00517691
0.00398131
0.00348174
0.00437215
0.00469182
0.0218223
0.00415972
0.00402696
0.00286131
0.00454865
0.00304699
0.00464629
0.00437532
0.00419307
0.00450659
0.00455817
0.00428084
0.00242617
0.00440708
0.00442444
0.00438665
0.00431158
0.00449431
0.00413787
0.00241383
0.00449127
0.00461187
0.00324908
0.0132551
0.00418465
0.0655432
0.0030439
0.00322216
0.003542
0.00445747
0.00773646
0.0224497
0.00427164
0.00461393
0.00454466
0.00409107
0.00445793
0.049095
0.00446858
0.0056787
0.004127
0.0243536
0.00402418
0.00437662
0.00331426
0.00444103
0.00426053
0.00430658
0.00424126
0.00426333
0.00442175
0.00355683
0.00443513
0.00254796
0.00323844
0.00387359
0.00383509
0.00320227
0.00435552
0.00363891
0.00425034
0.00427993
0.00443328
0.0527364
0.00567574
0.0036132
0.00458201
0.00409348
0.00814259
0.0031052
0.00309357
0.00426959
0.00406025
0.00409425
0.00396417
0.00317305
0.00359407
0.0624884
0.00393005
0.00426262
0.00433927
0.00465983
0.0139863
0.00449718
0.00423076
0.00424608
0.00429624
0.00458773
0.0126321
0.00419173
0.00341852
0.00427137
0.00642497
0.00460935
0.00439561
0.00434633
0.00354356
0.00362793
0.00467914
0.00314657
0.00430207
0.00401988
0.00348294
0.00462746
0.0228675
0.0042849
0.00321481
0.00433379
0.0043377
0.0212083
0.00439587
0.00401439
0.00422053
0.00449104
0.0117142
0.00450912
0.00374699
0.00425797
0.00322752
0.00280655
0.00234642
0.00511513
0.00437464
0.00320842
0.00441864
0.00986908
0.00551428
0.00396371
0.0238244
0.00394158
0.00425594
0.00425726
0.00453082
0.00351753
0.0587625
0.0497729
0.00464628
0.00455518
0.00454325
0.00376139
0.0110923
0.00401797
0.00502409
0.00431171
0.00472389
0.00451659
0.00357043
0.0329234
0.0638058
0.00355854
0.0212876
0.00514482
0.0042953
0.00395901
0.0043589
0.00414803
0.00447531
0.00318207
0.00424247
0.00340733
0.00456309
0.00432521
0.00457167
0.00450496
0.00310686
0.00413071
0.0043235
0.00559296
0.00372288
0.0223525
0.00430321
0.00429512
0.00313453
0.00438438
0.00432488
0.00330997
0.00444439
0.00428586
0.0031561
0.00432016
0.00459566
0.0504519
0.046477
0.00395906
0.00439093
0.0758774
0.00458411
0.0042541
0.00523614
0.00461432
0.0113857
0.00468586
0.00288309
0.00467841
0.00434389
0.00408899
0.00456154
0.00425842
0.00333768
0.00444937
0.00250618
0.00436807
0.0485893
0.00415861
0.00418686
0.00459622
0.0174187
0.00419356
0.00434857
0.00730807
0.00456177
0.0040973
0.00299728
0.00509076
0.00410696
0.00369764
0.00325704
0.00412904
0.00435949
0.00424488
0.0404643
0.00435664
0.00339002
0.00567675
0.00429918
0.00445367
0.00371279
0.00423993
0.0291519
0.00428492
0.0524888
0.0041327
0.00465103
0.00356284
0.0437103
0.00355915
0.00458402
0.00447058
0.00395536
0.00398341
0.0200812
0.0042914
0.00551448
0.0210769
0.017565
0.00535622
0.00437963
0.0137472
0.0685275
0.00849633
0.00393897
0.00374019
0.00417648
0.0039384
0.00468915
0.00281435
0.00399777
0.00465985
0.0368895
0.00386189
0.00333377
0.0045167
0.00451214
0.00430351
0.00332376
0.00308272
0.00291259
0.010064
0.00467094
0.00443793
0.0118216
0.0400293
0.00321077
0.00389032
0.00460567
0.00391663
0.00424716
0.00437093
0.00424615
0.0390357
0.00437987
0.00322779
0.00442464
0.00340612
0.0513523
0.00242226
0.00319385
0.0108098
0.0035133
0.00443117
0.00514224
0.00309946
0.00474643
0.0517044
0.00903164
0.00447957
0.00427611
0.00461964
0.00542786
0.00316389
0.00441099
0.0046633
0.00529386
0.00287527
0.00990332
0.00801713
0.00740089
0.0043013
0.0404606
0.00441104
0.00427631
0.0037409
0.00367809
0.00415412
0.00407715
0.00421384
0.00476944
0.00315157
0.00487413
0.0304163
0.00322376
0.0120661
0.0041547
0.00398423
0.00417765
0.00450194
0.00480967
0.00515626
0.0106274
0.00448577
0.00322606
0.00343006
0.00410286
0.00467554
0.00282225
0.0245304
0.0478349
0.00326013
0.00468846
0.00396242
0.110655
0.00312388
0.00245725
0.00424443
0.00330319
0.0102926
0.00341813
0.00433762
0.0040305
0.00444265
0.00461255
0.00449746
0.00430479
0.00441796
0.0103635
0.00311488
0.00315789
0.00492179
0.0045895
0.00433309
0.0673839
0.00320978
0.00394965
0.00437068
0.00814336
0.00761561
0.00545505
0.00546768
0.00428182
0.00393479
0.00317004
0.00422431
0.00568492
0.00429954
0.00458123
0.00431407
0.00557827
0.00369761
0.00425049
0.00445289
0.00413599
0.017811
0.00440941
0.00464638
0.00336143
0.0315026
0.00404655
0.00286257
0.00433668
0.00337662
0.0043929
0.0042899
0.00441348
0.00338358
0.00326558
0.0042616
0.00339679
0.00400213
0.00431388
0.00375039
0.00370254
0.00453267
0.00453466
0.035945
0.00304107
0.002913
0.00429097
0.0183675
0.00461878
0.035409
0.00434638
0.00356978
0.00503801
0.0047365
0.0485862
0.00478944
0.00338563
0.00445362
0.0036049
0.00411866
0.00459392
0.00442281
0.00456756
0.00423857
0.0371592
0.00451155
0.00435039
0.0121973
0.00444237
0.00929949
0.0042672
0.0140323
0.00331167
0.00320318
0.00467784
0.00447586
0.00463517
0.0057822
0.00375394
0.00450122
0.00449171
0.00324063
0.00461515
0.00313545
0.00460426
0.0401379
0.00424317
0.0041098
0.00289435
0.00335244
0.0160286
0.0374863
0.00416913
0.00412661
0.00429218
0.00460271
0.0028233
0.00331088
0.00423469
0.00351801
0.0237488
0.0251457
0.00449308
0.00430855
0.00459558
0.0100303
0.0531747
0.00422035
0.00453764
0.00437793
0.0469965
0.00428073
0.00301715
0.00328057
0.00912183
0.0351648
0.0044364
0.00452257
0.00446243
0.00478665
0.00432984
0.00662196
0.00319633
0.00409598
0.00530881
0.00718956
0.00463694
0.00467351
0.0709736
0.00440705
0.00354343
0.00374105
0.00506507
0.0093825
0.00395512
0.00361123
0.00420295
0.00444443
0.00448714
0.0298012
0.00304582
0.00391014
0.00424994
0.0045018
0.00669419
0.00423843
0.00433003
0.00432646
0.00427742
0.00317623
0.00299662
0.0050032
0.00567568
0.00401938
0.00517992
0.00428884
0.00938058
0.00425303
0.00445643
0.0342635
0.0283359
0.00438391
0.00438599
0.00397999
0.00414775
0.00432759
0.00565075
0.00460579
0.00423128
0.00331028
0.00289036
0.00382056
0.00315295
0.00319322
0.0056093
0.0281563
0.00496838
0.00606295
0.00354025
0.0035256
0.00461452
0.00348768
0.00462064
0.00418441
0.00574238
0.00394297
0.00421995
0.00446188
0.0034387
0.00560504
0.0305755
0.00361267
0.00434921
0.00442778
0.00527037
0.00455071
0.00428585
0.00427583
0.0034092
0.00424342
0.00430803
0.00421883
0.00458849
0.00500075
0.00620301
0.0229261
0.00425423
0.00423854
0.00399071
0.00615909
0.00433321
0.0157186
0.00428364
0.00826212
0.0383198
0.00443438
0.00295546
0.00465856
0.00300853
0.00589581
0.00314754
0.0294554
0.00364681
0.00427271
0.004636
0.00371928
0.00321942
0.00423212
0.0667949
0.00437083
0.00408211
0.00463211
0.00374603
0.00421427
0.00323011
0.00455154
0.00441319
0.00439968
0.00378197
0.00412358
0.00456262
0.00333906
0.00437258
0.00535036
0.00321264
0.0040841
0.00428023
0.00444008
0.00284179
0.00409124
0.00373647
0.00360769
0.0069604
0.00303233
0.0116533
0.00446885
0.00335981
0.0044907
0.00428432
0.00679677
0.00518671
0.00341671
0.00329194
0.0042835
0.00423004
0.00412977
0.00412572
0.00458423
0.0569651
0.00462192
0.0382362
0.00417065
0.00397656
0.00790954
0.00913623
0.00451067
0.00347983
0.00381165
0.00293261
0.00452373
0.00334154
0.0224942
0.00454839
0.00905367
0.00352243
0.00453385
0.00769738
0.00438751
0.00427751
0.00422444
0.00338034
0.00433685
0.00321098
0.00456909
0.00301471
0.00429084
0.00289976
0.00302251
0.0240144
0.00429397
0.00428486
0.0218637
0.0149185
0.00446456
0.00321578
0.00385286
0.00367865
0.00516127
0.00389913
0.00462511
0.00441923
0.00290194
0.00498588
0.00427828
0.00436551
0.00441773
0.00494785
0.0037523
0.00468993
0.00448464
0.00455712
0.032323
0.0380738
0.00360141
0.00457049
0.0033699
0.00474598
0.0045548
0.00457845
0.00462526
0.00448225
0.00431131
0.00317356
0.00500741
0.0103434
0.00308113
0.00459929
0.00442635
0.00449653
0.00376737
0.0313708
0.00459493
0.00412758
0.00352728
0.0166861
0.0196032
0.00466826
0.00391969
0.00396424
0.00443037
0.00446695
0.0122143
0.00421825
0.00455933
0.00445703
0.00968657
0.00400177
0.00390453
0.00455552
0.0040955
0.00541667
0.00372502
0.00455805
0.00309487
0.00388991
0.00415289
0.00415264
0.00463928
0.00427207
0.00246665
0.00293133
0.00349914
0.00460021
0.00421639
0.00442203
0.00432355
0.00458555
0.00729326
0.00344284
0.00872338
0.0135646
0.00489147
0.00454183
0.0516776
0.00466865
0.00427859
0.00456002
0.00448693
0.00441664
0.00442666
0.00303727
0.0179818
0.0032666
0.00441318
0.0034068
0.00442106
0.00468871
0.0043125
0.004381
0.00450733
0.00449549
0.00455747
0.00427766
0.0533012
0.0043827
0.00425658
0.00510817
0.0180364
0.00425421
0.00450532
0.00514174
0.0472014
0.00424818
0.00449096
0.00290823
0.0035056
0.00464976
0.00454087
0.00428925
0.00400678
0.0098348
0.00459407
0.0120649
0.00289556
0.0283473
0.00295522
0.00457581
0.00325299
0.00564086
0.00444651
0.00450408
0.00429951
0.00460606
0.0039794
0.0103065
0.00418099
0.00547323
0.0504812
0.00379257
0.00394176
0.00581364
0.0046631
0.00455562
0.00315178
0.00282245
0.00328966
0.00440865
0.0294774
0.00428591
0.00333447
0.00430781
0.00315581
0.00312408
0.00327533
0.00352271
0.00420305
0.0045288
0.0500878
0.00401669
0.0666354
0.00442118
0.00299921
0.00435735
0.00421004
0.0564328
0.00438024
0.00460298
0.00352403
0.00988008
0.00861807
0.00345808
0.00328959
0.00332552
0.0121777
0.0338367
0.00452063
0.00442732
0.0669852
0.00439651
0.00548137
0.0044908
0.0150395
0.00296739
0.00681177
0.00460328
0.00342314
0.00464674
0.00441694
0.00419717
0.00281018
0.00425062
0.00445743
0.00427986
0.00457174
0.00472705
0.00471076
0.0043975
0.0041813
0.00964343
0.00359588
0.00405754
0.00460933
0.00915461
0.00298099
0.004596
0.00466803
0.00408797
0.00626017
0.048842
0.00397427
0.00342318
0.00410178
0.00434074
0.00315429
0.00443509
0.00423918
0.0105356
0.00455361
0.0553139
0.00968942
0.0242295
0.00455311
0.00456213
0.00436724
0.0447835
0.00336986
0.00313113
0.0046757
0.00307129
0.0206379
0.00455993
0.00402814
0.0077891
0.00398952
0.0305096
0.00366444
0.00445751
0.00432134
0.0042201
0.00426986
0.00678165
0.00277772
0.0139029
0.052409
0.00459584
0.00309812
0.00389185
0.00513866
0.0149676
0.0033136
0.00438631
0.00406541
0.00315886
0.00454523
0.00469326
0.0046791
0.00575578
0.00415167
0.00460739
0.0037168
0.0047733
0.00322332
0.00452157
0.00820426
0.00408327
0.00407856
0.00397477
0.00455457
0.00431056
0.00447297
0.012955
0.0043054
0.0120678
0.00400302
0.00342556
0.00450536
0.0041781
0.00450429
0.00437476
0.00342794
0.0160324
0.00606094
0.056236
0.0109837
0.0334343
0.0041889
0.00445616
0.00254399
0.00462753
0.00325774
0.0172853
0.00428998
0.00558054
0.00388778
0.0332905
0.00421865
0.00319032
0.0045501
0.0525318
0.00469616
0.0339067
0.0040859
0.00468841
0.00494179
0.0100202
0.00423084
0.00535483
0.0039185
0.00441942
0.0192032
0.00558615
0.0245421
0.0035273
0.00249285
0.0154251
0.00458784
0.00461046
0.00372275
0.00431352
0.00344079
0.00331908
0.00343586
0.00390512
0.00307991
0.0553036
0.00437147
0.00426438
0.00440243
0.00456899
0.00284603
0.00340322
0.0042314
0.00332515
0.0430634
0.00431435
0.057414
0.00723454
0.00448497
0.00612562
0.00381012
0.00315982
0.00317554
0.0286615
0.00442324
0.0045283
0.052192
0.00436864
0.00458566
0.00355316
0.0045435
0.00428967
0.0352907
0.00459726
0.0373542
0.00397265
0.0039106
0.00428511
0.00430341
0.00777771
0.00324395
0.0141518
0.00444737
0.00279032
0.00536401
0.00305072
0.00287785
0.00527964
0.00557867
0.00423966
0.00926681
0.016082
0.00406439
0.00431389
0.00350646
0.00380994
0.00465187
0.00347989
0.0490542
0.00426007
0.00468963
0.00450875
0.0040852
0.00283171
0.00322029
0.00328384
0.0685813
0.00483596
0.00587771
0.00555627
0.00457256
0.00399541
0.00424694
0.00424198
0.0974077
0.00452677
0.0202617
0.0245563
0.00456044
0.0044944
0.00465747
0.0327202
0.0344835
0.0213441
0.00334715
0.00456387
0.00426402
0.00326257
0.0471269
0.00656247
0.00302795
0.00433535
0.00616394
0.0097781
0.00540489
0.00418026
0.013169
0.0283985
0.00405279
0.00383324
0.00429522
0.0043883
0.0316587
0.0032093
0.00370259
0.00460046
0.00464631
0.00417656
0.0486525
0.0036882
0.00292383
0.00866971
0.00537527
0.00437737
0.0131004
0.00591895
0.00461975
0.00304844
0.00309565
0.00412006
0.0625208
0.00453561
0.00442175
0.00424014
0.00468572
0.00310085
0.00435549
0.00485298
0.00461293
0.00455719
0.00468819
0.00329155
0.00443096
0.00714057
0.00421125
0.00455862
0.0491987
0.00440523
0.00351915
0.00363877
0.00458644
0.00352094
0.00534894
0.00451948
0.00456186
0.00448033
0.00301553
0.00449686
0.00426915
0.00444373
0.00346277
0.0062126
0.00313771
0.00503384
0.0042949
0.00602238
0.0041875
0.00467568
0.00425565
0.00458643
0.00316016
0.00413956
0.00326721
0.00412903
0.00419206
0.00449974
0.00450111
0.0356831
0.00546812
0.0151811
0.00468828
0.00280427
0.0672679
0.00323468
0.00287923
0.00439447
0.00548777
0.0122937
0.00603646
0.00318468
0.00532928
0.00381763
0.00304203
0.00450429
0.068222
0.00308714
0.00413958
0.00416572
0.00407639
0.00361128
0.00283402
0.00481578
0.00306625
0.0552109
0.0469693
0.00448597
0.00426061
0.010975
0.0155786
0.00401544
0.00454798
0.0041174
0.00462914
0.00440895
0.00499331