/*--------------------------------*- C++ -*----------------------------------*\
| =========                 |                                                 |
| \\      /  F ield         | OpenFOAM: The Open Source CFD Toolbox           |
|  \\    /   O peration     | Version:  3.0.1                                 |
|   \\  /    A nd           | Web:      www.OpenFOAM.org                      |
|    \\/     M anipulation  |                                                 |
\*---------------------------------------------------------------------------*/
FoamFile
{
    version     2.0;
    format      ascii;
    class       volScalarField;
    location    "0.106191";
    object      p;
}
// * * * * * * * * * * * * * * * * * * * * * * * * * * * * * * * * * * * * * //

dimensions      [0 2 -2 0 0 0 0];

internalField   nonuniform List<scalar> 
21246
(
2.30394
5.44538
5.67027
5.17716
4.37133
3.56581
2.84119
2.21362
1.66907
1.22167
0.997897
-20.9786
-8.75844
-4.6786
-1.41978
0.204692
0.850662
0.973404
0.864398
0.65519
0.425017
0.302677
-26.3165
-17.6904
-14.171
-9.03328
-5.43082
-3.05164
-1.69428
-0.986184
-0.658073
-0.528425
-0.428387
-23.3502
-19.8919
-18.247
-13.7353
-10.1094
-6.94608
-4.65926
-3.14583
-2.21137
-1.64768
-1.25785
-19.1269
-18.151
-17.757
-14.9439
-12.3925
-9.49731
-7.03652
-5.11392
-3.74133
-2.80509
-2.14224
-15.7257
-15.5199
-15.5188
-14.0065
-12.5299
-10.3884
-8.3222
-6.45088
-4.93943
-3.79809
-2.94425
-13.0191
-13.0811
-13.1461
-12.332
-11.5228
-10.0924
-8.58346
-7.03433
-5.63738
-4.47316
-3.53002
-10.7321
-10.9447
-11.0119
-10.5791
-10.1393
-9.21543
-8.17698
-7.00267
-5.8477
-4.80008
-3.90273
-8.95336
-9.12741
-9.17883
-8.96891
-8.7391
-8.15316
-7.4541
-6.59658
-5.69217
-4.8094
-4.00376
-7.65774
-7.70249
-7.72219
-7.61861
-7.49203
-7.11772
-6.64518
-6.02375
-5.32801
-4.60568
-3.90556
-6.64896
-6.6046
-6.60397
-6.54158
-6.45693
-6.20535
-5.87319
-5.41465
-4.87632
-4.29135
-3.71445
-5.91621
-5.75875
-5.75802
-5.69785
-5.62493
-5.44054
-5.18904
-4.835
-4.40606
-3.92022
-3.41791
-5.48232
-5.23351
-5.17482
-5.08948
-4.99867
-4.83291
-4.61337
-4.31557
-3.95525
-3.54188
-3.10315
-5.23455
-4.93401
-4.82437
-4.69312
-4.55646
-4.37144
-4.14661
-3.86678
-3.54138
-3.17803
-2.80426
-5.03257
-4.70103
-4.55001
-4.37414
-4.19895
-3.99379
-3.7552
-3.47462
-3.16091
-2.82277
-2.47679
-4.8205
-4.47743
-4.29898
-4.0926
-3.89078
-3.67054
-3.41612
-3.12368
-2.8046
-2.47579
-2.15646
-4.60792
-4.27102
-4.08192
-3.86363
-3.64403
-3.40725
-3.12406
-2.80804
-2.46594
-2.13234
-1.82951
-4.42339
-4.10209
-3.91087
-3.69251
-3.46149
-3.20693
-2.89399
-2.51646
-2.13245
-1.784
-1.49398
-4.27801
-3.97815
-3.79192
-3.58162
-3.34029
-3.04547
-2.65185
-2.21779
-1.78784
-1.42401
-1.14893
-4.1666
-3.89066
-3.71563
-3.51019
-3.24004
-2.87286
-2.40392
-1.89208
-1.42449
-1.05546
-0.786621
-4.05951
-3.81911
-3.65721
-3.43321
-3.10078
-2.63958
-2.08407
-1.52767
-1.05771
-0.705437
-0.41979
-3.85859
-3.72001
-3.56479
-3.27819
-2.84252
-2.28182
-1.67726
-1.13859
-0.728682
-0.432698
-0.169911
-3.84712
-3.74273
-3.47493
-3.02745
-2.47203
-1.86986
-1.30933
-0.864962
-0.552359
-0.293534
0.15968
-3.63544
-3.02118
-2.4664
-1.97693
-1.51906
-1.09643
-0.772217
-0.59736
-0.528457
-0.502641
-0.44294
23.1165
16.9586
12.5083
9.39363
7.15821
5.51581
4.27116
3.29238
2.50013
1.87591
1.46994
16.6991
16.9633
15.1405
12.4661
9.75351
7.50161
5.74296
4.37194
3.29617
2.48252
1.96134
9.34742
12.1668
12.3988
11.8756
10.3858
8.47798
6.64321
5.06356
3.79346
2.84037
2.22784
3.23003
6.96021
8.15405
9.10121
8.92642
7.95199
6.63916
5.2749
4.04346
3.06311
2.44053
-0.815284
2.51765
3.7679
5.51272
6.322
6.38577
5.79949
4.91713
3.93305
3.04943
2.43505
-3.28205
-0.59406
0.331363
2.24925
3.41342
4.15885
4.25489
3.92429
3.33188
2.68919
2.20522
-4.75775
-2.57535
-2.01963
-0.181948
0.892584
1.97319
2.49628
2.62456
2.42638
2.07185
1.76456
-5.58153
-3.78281
-3.5837
-1.80117
-1.00982
0.128214
0.855878
1.28397
1.40016
1.31376
1.19227
-6.20439
-4.58136
-4.64174
-3.02959
-2.31652
-1.27533
-0.505964
0.0767573
0.405187
0.529133
0.578128
-6.72236
-5.37104
-5.16574
-4.00931
-3.29084
-2.33329
-1.57595
-0.926377
-0.470377
-0.193019
-0.00650101
-7.09363
-6.07138
-5.65608
-4.687
-4.01215
-3.12786
-2.39535
-1.72108
-1.19303
-0.811802
-0.525449
-7.28439
-6.43166
-6.0308
-5.16045
-4.52895
-3.70771
-3.00476
-2.3271
-1.76151
-1.31508
-0.96606
-7.44154
-6.63865
-6.26961
-5.46931
-4.87644
-4.10547
-3.43252
-2.76349
-2.1833
-1.69768
-1.30914
-7.59374
-6.77105
-6.40786
-5.64782
-5.0819
-4.34913
-3.70221
-3.04744
-2.46749
-1.96658
-1.54842
-7.52352
-6.76102
-6.43432
-5.71213
-5.16662
-4.46449
-3.83707
-3.19802
-2.62552
-2.12344
-1.70363
-7.39736
-6.67358
-6.36916
-5.67951
-5.14507
-4.46909
-3.85408
-3.23109
-2.67003
-2.1759
-1.76296
-7.26053
-6.54153
-6.23381
-5.56584
-5.02858
-4.37219
-3.76361
-3.15703
-2.61164
-2.13444
-1.73977
-7.03682
-6.33132
-6.01731
-5.36924
-4.81912
-4.17623
-3.57134
-2.98359
-2.46043
-2.01019
-1.63333
-6.72948
-6.04003
-5.71293
-5.08202
-4.51199
-3.87862
-3.28052
-2.71868
-2.22806
-1.8173
-1.47563
-6.35945
-5.67437
-5.31678
-4.69439
-4.09954
-3.47615
-2.89642
-2.37421
-1.92955
-1.57157
-1.27382
-5.90745
-5.21273
-4.80648
-4.18593
-3.57252
-2.97185
-2.43396
-1.97247
-1.59071
-1.28196
-1.03622
-5.32354
-4.60642
-4.13384
-3.52357
-2.92385
-2.37895
-1.91655
-1.5379
-1.22258
-0.967004
-0.766293
-4.67601
-3.8337
-3.31171
-2.77194
-2.25128
-1.80294
-1.43912
-1.13939
-0.881312
-0.664198
-0.491968
-3.15153
-2.46881
-2.08457
-1.74513
-1.4229
-1.14832
-0.92549
-0.731542
-0.532914
-0.332017
-0.193802
-12.9465
-7.29096
-4.95817
-3.757
-2.73129
-1.9327
-1.39474
-1.08118
-0.924766
-0.846484
-0.78629
-10.9099
-8.68672
-7.22595
-5.84646
-4.44066
-3.25342
-2.38668
-1.83104
-1.49325
-1.29572
-1.16791
-8.70793
-8.68407
-8.14135
-7.16044
-5.93781
-4.68403
-3.57201
-2.72576
-2.15998
-1.79935
-1.54581
-8.02634
-8.04384
-7.90185
-7.43825
-6.64653
-5.62378
-4.53152
-3.55622
-2.81818
-2.30965
-1.9405
-7.43701
-7.44684
-7.40938
-7.20714
-6.74365
-6.00861
-5.08739
-4.14124
-3.33205
-2.73283
-2.2799
-6.90581
-6.90037
-6.87559
-6.77351
-6.50405
-6.00071
-5.28276
-4.45547
-3.67053
-3.03762
-2.53951
-6.4348
-6.3878
-6.3647
-6.27837
-6.0976
-5.74859
-5.20481
-4.52206
-3.81752
-3.20246
-2.69161
-6.02167
-5.93571
-5.89212
-5.79188
-5.63257
-5.36647
-4.94758
-4.39592
-3.79303
-3.23332
-2.74694
-5.67121
-5.54557
-5.47129
-5.34973
-5.18719
-4.94814
-4.60554
-4.15305
-3.64648
-3.1547
-2.70632
-5.38063
-5.22399
-5.12494
-4.97895
-4.79682
-4.56094
-4.25528
-3.86723
-3.43664
-3.00863
-2.60513
-5.14952
-4.96638
-4.85113
-4.68161
-4.4796
-4.23675
-3.94061
-3.58956
-3.21027
-2.83073
-2.46834
-4.96692
-4.76055
-4.63706
-4.44936
-4.23116
-3.97667
-3.67823
-3.34487
-2.99428
-2.64412
-2.30521
-4.8196
-4.59577
-4.4689
-4.26886
-4.03951
-3.77301
-3.46887
-3.13981
-2.79998
-2.4639
-2.14243
-4.70094
-4.4655
-4.33641
-4.12816
-3.89062
-3.61487
-3.30405
-2.96964
-2.62653
-2.2904
-1.97241
-4.60504
-4.36055
-4.23052
-4.01698
-3.77324
-3.49053
-3.17022
-2.82294
-2.46586
-2.11999
-1.79821
-4.52641
-4.2768
-4.14674
-3.93071
-3.68197
-3.39112
-3.05651
-2.68844
-2.30883
-1.94574
-1.61875
-4.46476
-4.21464
-4.08526
-3.8697
-3.61631
-3.31405
-2.95746
-2.558
-2.14598
-1.76006
-1.42335
-4.4195
-4.17434
-4.04876
-3.83696
-3.57969
-3.26109
-2.87047
-2.42509
-1.97064
-1.56116
-1.2273
-4.39094
-4.15897
-4.04234
-3.83957
-3.58021
-3.23485
-2.78833
-2.27686
-1.77189
-1.34551
-1.02587
-4.38314
-4.1738
-4.07673
-3.88906
-3.62956
-3.24568
-2.73876
-2.14219
-1.56254
-1.11148
-0.825438
-4.38088
-4.23862
-4.1908
-4.03138
-3.78554
-3.36914
-2.71865
-2.02637
-1.39527
-0.917929
-0.651537
-4.42578
-4.46721
-4.51438
-4.35847
-3.91311
-3.28711
-2.57463
-1.88499
-1.28934
-0.843779
-0.588122
-4.75548
-5.30546
-4.65144
-4.12736
-3.52866
-2.86252
-2.2337
-1.68799
-1.23955
-0.903066
-0.698757
-6.88276
-3.97035
-3.46643
-3.10351
-2.62038
-2.18695
-1.82403
-1.51948
-1.26396
-1.06007
-0.922265
-4.02225
-3.83129
-3.13666
-2.41034
-1.75841
-1.21754
-0.818179
-0.565704
-0.46736
-0.45938
-0.447007
0.218603
-0.532493
-0.937547
-0.969613
-0.756917
-0.457114
-0.192532
-0.0415061
-0.0280423
-0.102621
-0.140476
1.3036
0.913032
0.548495
0.265961
0.161967
0.209447
0.317403
0.379294
0.32865
0.190935
0.074065
1.45167
1.23975
1.05777
0.838337
0.667828
0.583709
0.57232
0.571127
0.494847
0.336454
0.217634
1.35593
1.17559
1.06152
0.902881
0.744666
0.611491
0.518771
0.462217
0.393212
0.268779
0.181384
1.17833
0.978787
0.867362
0.709913
0.545556
0.37972
0.226106
0.110512
0.0498559
0.00293985
0.00213124
0.970012
0.732258
0.600367
0.409101
0.207024
-0.00631228
-0.221677
-0.402984
-0.484787
-0.468821
-0.380229
0.740134
0.464733
0.30774
0.0701519
-0.186341
-0.466203
-0.758059
-1.02345
-1.17646
-1.16188
-0.996243
0.514961
0.193092
0.0161926
-0.271744
-0.586525
-0.941328
-1.31979
-1.68351
-1.94117
-1.9827
-1.72962
0.328696
-0.0738386
-0.246987
-0.591228
-0.960736
-1.3862
-1.85
-2.31432
-2.69035
-2.83307
-2.56207
0.164902
-0.28454
-0.451652
-0.873516
-1.28267
-1.76822
-2.30761
-2.86114
-3.34867
-3.61247
-3.41686
0.0247379
-0.420443
-0.661321
-1.06698
-1.52945
-2.06499
-2.66402
-3.28745
-3.86401
-4.24099
-4.15617
-0.0724468
-0.508189
-0.79322
-1.2029
-1.69264
-2.26339
-2.904
-3.57592
-4.21008
-4.66049
-4.66626
-0.11403
-0.53682
-0.847291
-1.26191
-1.76459
-2.35485
-3.01838
-3.71784
-4.38144
-4.87715
-4.9989
-0.105463
-0.503432
-0.823298
-1.2347
-1.73811
-2.33288
-3.00078
-3.7065
-4.37814
-4.89133
-5.08561
-0.0372374
-0.400407
-0.718072
-1.11711
-1.60789
-2.1892
-2.84413
-3.53582
-4.1871
-4.69325
-4.92803
0.0979961
-0.224506
-0.531137
-0.908244
-1.36989
-1.91864
-2.54532
-3.20344
-3.81373
-4.28896
-4.52677
0.289504
0.0083699
-0.2801
-0.623399
-1.04102
-1.54487
-2.12351
-2.73302
-3.29017
-3.70839
-3.88529
0.505635
0.264068
0.0039615
-0.298012
-0.665564
-1.1236
-1.65913
-2.21503
-2.7073
-3.05078
-3.15707
0.725723
0.526056
0.2935
0.0151103
-0.341923
-0.784229
-1.27835
-1.7627
-2.16278
-2.39587
-2.3586
0.92468
0.745983
0.499081
0.180886
-0.213622
-0.65496
-1.0929
-1.47788
-1.76449
-1.89767
-1.82094
1.03865
0.805782
0.476781
0.0515543
-0.403973
-0.819747
-1.15299
-1.39789
-1.55617
-1.60991
-1.52053
0.859696
0.570235
0.0292284
-0.519061
-0.958847
-1.23653
-1.38307
-1.45285
-1.47808
-1.46974
-1.44712
0.91317
-0.31219
-1.00924
-1.45418
-1.64674
-1.65836
-1.58903
-1.49814
-1.40413
-1.30396
-1.20311
9.23329
4.41959
2.44752
1.77178
1.72757
1.89044
2.02366
2.08132
2.06552
2.01496
2.03197
20.5686
16.4026
12.6653
9.79015
7.7114
6.29692
5.32928
4.62257
4.06473
3.62557
3.34248
19.0363
18.4418
16.4269
14.1738
11.9544
9.96799
8.31224
6.984
5.92894
5.10553
4.55111
16.7803
17.0927
16.605
15.4421
13.8763
12.0989
10.3662
8.8273
7.52845
6.47433
5.70904
15.1466
15.7539
15.6529
15.2172
14.3496
13.1456
11.7394
10.286
8.90613
7.68948
6.7536
13.7731
14.4812
14.5018
14.5064
14.1472
13.4073
12.3523
11.1073
9.80365
8.56531
7.54508
12.5792
13.1289
13.2933
13.4259
13.3327
12.9438
12.2447
11.2926
10.1863
9.04926
8.03825
11.6485
12.0385
12.1953
12.3526
12.3697
12.1801
11.7379
11.0495
10.1679
9.19915
8.31436
10.86
11.1661
11.2797
11.4149
11.4597
11.3614
11.0715
10.5727
9.88262
9.07403
8.30233
10.1078
10.3909
10.4838
10.5975
10.6407
10.5789
10.3712
9.99483
9.44875
8.77602
8.10514
9.50723
9.73655
9.79531
9.8803
9.90725
9.85364
9.68683
9.38536
8.9404
8.37844
7.81727
9.09943
9.22287
9.22018
9.25764
9.25144
9.18589
9.03311
8.77434
8.39861
7.92149
7.43502
8.66299
8.72817
8.69215
8.69081
8.64976
8.56294
8.40809
8.17074
7.84045
7.42551
7.01557
8.14973
8.20973
8.16838
8.14262
8.07308
7.96422
7.80008
7.57196
7.27235
6.90286
6.54416
7.80911
7.78039
7.6833
7.61239
7.50707
7.37247
7.19487
6.97017
6.69512
6.36808
6.05644
7.386
7.30337
7.17578
7.06896
6.92978
6.76906
6.57712
6.35473
6.10273
5.81535
5.54604
6.85669
6.75511
6.61894
6.48578
6.31737
6.13377
5.93123
5.71541
5.4908
5.24636
5.01677
6.37749
6.21443
6.03875
5.86245
5.6575
5.45022
5.24357
5.0457
4.86006
4.67039
4.50386
5.86453
5.62423
5.39974
5.17234
4.92844
4.70331
4.50748
4.34752
4.21827
4.09363
3.98564
5.2435
4.91863
4.64608
4.37019
4.09799
3.87799
3.72506
3.63447
3.58299
3.5319
3.46753
4.48934
4.05663
3.73039
3.41635
3.14578
2.97913
2.92114
2.93887
2.98442
3.01302
3.00104
3.56023
2.96471
2.60582
2.29192
2.09232
2.06116
2.16113
2.31658
2.46255
2.56169
2.59927
2.03455
1.61677
1.20937
1.0104
1.02899
1.24011
1.53966
1.82631
2.04862
2.18857
2.23348
2.66337
0.224483
0.147451
0.222335
0.49479
0.894684
1.27904
1.58225
1.80053
1.92911
1.95017
-36.8126
-16.7632
-9.36619
-5.60319
-3.21967
-1.77156
-0.808738
-0.207965
0.182052
0.439298
0.697701
-50.6158
-33.2167
-24.6742
-17.4119
-11.2793
-7.16457
-4.60935
-3.02294
-1.9903
-1.29066
-0.727644
-42.4489
-38.2129
-33.9518
-27.2166
-19.8496
-13.7956
-9.44996
-6.49369
-4.54127
-3.20736
-2.22498
-33.8595
-34.9754
-34.3306
-30.7528
-25.2317
-19.2919
-14.1068
-10.1348
-7.27004
-5.26366
-3.77975
-30.1123
-31.5134
-31.6527
-30.2413
-27.0322
-22.4172
-17.5035
-13.22
-9.81249
-7.24021
-5.32381
-28.9069
-29.6564
-29.6725
-28.9749
-27.0359
-23.6541
-19.4694
-15.3787
-11.8365
-8.93827
-6.641
-27.6995
-28.3412
-28.3903
-27.9431
-26.5712
-23.9557
-20.4287
-16.6943
-13.2343
-10.256
-7.75987
-26.405
-27.0243
-27.1587
-26.9282
-25.9241
-23.813
-20.7822
-17.3907
-14.091
-11.1222
-8.52814
-25.1871
-25.8052
-25.9636
-25.8711
-25.1286
-23.3845
-20.7336
-17.637
-14.5186
-11.632
-8.98377
-24.0231
-24.649
-24.8036
-24.7949
-24.2272
-22.7476
-20.3868
-17.5344
-14.5899
-11.8237
-9.23883
-22.8954
-23.5213
-23.6751
-23.7258
-23.272
-21.9747
-19.8217
-17.1549
-14.3543
-11.6992
-9.23393
-21.8371
-22.3729
-22.5572
-22.6325
-22.2411
-21.0728
-19.0707
-16.541
-13.8522
-11.2822
-8.92849
-20.786
-21.2207
-21.434
-21.4966
-21.1382
-20.0534
-18.1524
-15.7171
-13.1126
-10.6131
-8.33237
-19.7068
-20.06
-20.2657
-20.3091
-19.9664
-18.9283
-17.0813
-14.7006
-12.1574
-9.7358
-7.54419
-18.6161
-18.8731
-19.0358
-19.0485
-18.6936
-17.6889
-15.8476
-13.4876
-10.9908
-8.6511
-6.58668
-17.4957
-17.6504
-17.7547
-17.706
-17.3151
-16.2917
-14.4809
-12.061
-9.6113
-7.36659
-5.47267
-16.3201
-16.3711
-16.4089
-16.2865
-15.8229
-14.7408
-12.866
-10.4658
-8.02597
-5.89357
-4.10054
-15.0707
-15.0147
-14.9735
-14.7779
-14.1991
-13.0179
-11.0533
-8.62743
-6.24378
-4.30266
-2.67289
-13.7324
-13.5536
-13.4241
-13.1287
-12.4245
-11.0678
-9.01545
-6.59011
-4.34261
-2.63854
-1.16938
-12.2733
-11.9629
-11.7383
-11.3225
-10.4541
-8.90961
-6.79474
-4.42967
-2.40144
-0.996845
0.050149
-10.5209
-10.2143
-9.94163
-9.3829
-8.28533
-6.57319
-4.40532
-2.19894
-0.495802
0.506278
1.12752
-7.961
-8.1121
-8.20059
-7.50916
-6.17949
-4.45673
-2.43574
-0.52788
0.682267
1.27408
1.73817
-7.89268
-9.36357
-8.29559
-6.76559
-4.66823
-2.44527
-0.618615
0.636044
1.29927
1.6387
1.91627
-13.534
-6.29024
-3.78103
-2.33348
-0.929807
0.177602
0.907795
1.35708
1.61469
1.75588
1.77138
-0.853794
-1.94414
-2.44369
-2.25076
-1.73836
-1.45075
-1.35274
-1.36169
-1.43679
-0.72557
-1.48445
-1.92337
-1.835
-1.54735
-1.42247
-1.36013
-1.37235
-1.42988
-0.708988
-1.44852
-1.7977
-1.72628
-1.47891
-1.37126
-1.33766
-1.35521
-1.40097
-0.707305
-1.24875
-1.57187
-1.56171
-1.38183
-1.29958
-1.29628
-1.32817
-1.35719
0.311506
0.686274
0.441529
-0.18964
-1.3619
-2.48536
-2.98307
-2.72042
-1.89789
0.160242
0.461279
0.263157
-0.268622
-1.17387
-1.94266
-2.37668
-2.22117
-1.65989
0.0193316
0.265223
0.0906936
-0.359509
-1.13399
-1.89296
-2.23426
-2.09438
-1.608
-0.103528
0.135039
-0.0483808
-0.424481
-1.09765
-1.6854
-1.99039
-1.89778
-1.52702
1.85028
2.3207
2.32919
0.0960198
0.0561475
2.53244
-0.423343
2.10537
2.53226
1.84531
0.0433703
2.10962
-0.0513414
0.0260472
1.84224
1.22351
0.0199296
0.0941554
1.22446
1.86174
0.791408
-0.516804
1.61152
0.0586958
2.33606
0.0262746
-0.0516912
-0.426305
-0.920977
0.111358
0.0200908
0.549744
0.0111736
1.47974
0.475579
2.34372
0.056406
2.34944
0.0115011
2.17388
-1.15948
1.49073
0.0275033
1.6234
-0.289839
-0.578473
0.0545831
-0.565296
0.933679
2.26517
0.110683
2.1781
0.00232076
0.0291
2.22783
0.805432
-0.48756
2.12284
-0.914195
0.0293919
-0.824615
0.00221424
0.059429
0.17657
-0.929055
1.86113
0.086189
2.68477
2.3403
1.85726
0.0252168
2.6471
0.108595
3.40672
0.0540907
2.6877
-0.678434
1.53059
-0.13299
-0.246506
0.0246663
0.194976
1.94537
1.96855
-0.236363
0.104977
-1.40216
0.00240341
-0.389188
0.0362951
2.39072
2.10152
-0.979667
3.68186
-0.297706
-0.602112
0.0507033
-0.224401
-0.313316
2.78494
-0.17945
-0.504651
1.72194
0.0969242
-0.0197074
2.38839
0.00198723
1.94758
0.00986577
0.188931
1.66342
1.48209
3.03512
0.133651
0.0718262
1.91666
2.11949
1.40514
2.19815
1.56317
0.139262
3.10027
-0.39914
0.0231897
-0.598135
-0.224866
0.00456984
0.00217694
0.00125636
0.00766709
1.85687
0.0311858
-0.554197
2.65025
2.36404
-0.332789
-0.534736
0.16994
0.120238
1.03017
0.0241431
0.605242
-0.262604
1.15121
2.08426
0.052524
-0.385934
2.61152
2.06409
1.4569
1.70733
2.51156
0.0697519
3.19849
0.115272
0.0301144
0.084734
-0.411717
0.0192048
2.06048
-0.085853
-0.0700163
2.68566
2.10346
0.087836
0.032804
-0.336167
0.48061
-0.319148
-0.893127
0.0100769
0.00556223
-0.375295
0.577699
0.60392
0.624357
-9.57503e-05
0.0471979
-0.32805
0.704611
2.4702
-0.548458
2.34586
-0.0147302
2.3773
0.155731
1.72098
1.36425
2.19788
-0.118672
0.0125076
0.0357897
1.77674
-1.08855
2.34408
2.22856
2.69822
-0.254373
0.00823073
1.92485
-0.125371
2.48369
0.0243888
0.0266289
2.35851
0.00130789
3.66237
0.000503623
2.38105
1.8289
0.0319423
1.34921
0.452344
0.618842
1.54167
0.0213178
2.42262
0.0670957
1.88255
0.0510277
0.00393184
0.130928
0.0533378
0.0732551
0.0192787
2.01382
-0.00365557
0.0254785
0.00954801
0.149672
-0.361638
1.747
1.73274
2.85566
0.0502707
-0.805289
0.0537649
2.34513
1.8837
1.89667
0.0668514
0.110492
0.0619772
-0.994409
4.02077
-0.0863129
1.45976
0.03596
-0.299634
0.0257807
0.0342341
0.0335014
0.202543
2.07097
-0.136888
2.65612
0.907667
2.35953
-0.00509564
1.69117
0.000134628
-0.354893
1.80268
1.58103
1.64372
0.0605338
0.555977
3.00561
-0.0734176
-0.107639
-0.0401656
1.84424
2.56983
0.0544061
2.55843
1.40311
0.0271379
2.50614
1.09875
-0.0380783
2.68598
2.2173
0.0261412
0.0498669
-0.0959568
2.43498
-0.558155
1.97018
0.963365
0.0194692
1.82157
-0.372554
0.262826
0.029956
2.32582
2.34972
-0.294806
1.64501
0.558644
0.03097
2.34322
0.143794
0.793771
0.117793
0.953461
0.140412
1.56736
0.00383543
-0.504911
1.7337
-0.490818
2.38095
0.104019
0.0101469
-0.724721
1.20906
0.0260536
-0.0434971
1.4899
3.90509
1.61552
0.0152247
1.36138
0.019281
0.155694
0.596278
1.47152
0.0207913
1.72516
0.0265739
2.33988
0.0400524
-0.661774
2.3154
-0.00742295
-0.288219
0.0908844
1.58112
2.47082
-0.233458
-0.441925
0.0357806
2.52709
0.0418366
-0.0620173
0.00483561
0.0505128
1.42709
0.0580856
0.00881133
-0.534457
-0.191162
-0.101034
1.00823
0.0113099
1.92316
0.00293929
0.997165
1.59342
0.0273137
-0.0824291
0.0303573
2.41286
1.9412
2.787
-0.364289
0.00629458
0.0260597
-0.486071
-0.18741
2.50523
-0.0857976
-0.25306
0.0127435
0.0201755
1.80432
-0.0165026
0.452201
2.45453
1.46618
0.0365848
2.26971
0.0125749
1.96483
0.0308311
0.067982
0.146088
0.0175729
0.108146
-0.341256
2.48933
-0.459732
0.00779868
2.12142
0.0670951
-0.963506
1.54848
1.5428
2.1979
0.0489612
0.00586124
1.9099
2.31083
0.0190357
0.000897327
-1.43979
-0.248902
0.0129732
2.43651
0.0137813
0.703271
1.20028
0.0241639
0.0227088
0.0866195
0.032724
0.0137423
3.22951
0.00376963
-0.384316
0.0417578
0.00324667
-0.438407
0.00312861
0.578058
0.257215
3.33177
0.00267725
-0.562358
-0.745874
1.44063
0.00130991
0.0359695
1.40387
-0.60812
0.00833966
0.0843064
0.115072
0.0238274
1.4144
-0.0437493
-1.32401
0.067926
0.14322
1.0157
0.0128246
0.0197493
-0.426747
2.16528
-0.0631452
2.46834
1.96934
2.43821
-0.329855
-0.418699
-0.486044
0.0113976
-0.172804
-0.000129524
2.11062
2.19207
0.00583089
0.0113584
-0.153266
0.852495
-0.00122234
0.00288295
1.9117
1.3674
2.38314
0.595606
0.115278
1.34877
-0.886264
0.897468
1.83059
1.81689
1.84022
-0.127217
1.69975
2.02326
0.833891
0.176667
-0.556009
1.58637
0.0663033
0.100259
1.20695
0.0131856
1.95742
-0.283307
2.25867
0.967091
1.99224
0.000990308
0.0186925
1.79139
0.0335463
0.364832
2.9561
-0.0014824
0.0242734
2.33164
2.00481
-0.235787
0.00618114
0.124469
2.21481
-0.511296
1.40919
0.0758719
0.0172618
-0.352452
0.0327905
-0.200232
0.0641314
0.0474933
0.0283694
1.4288
-0.0686623
1.44122
2.2273
2.5089
1.81354
0.738364
0.0368367
2.11138
1.97833
0.06816
2.36195
-0.623525
-0.483348
0.00191945
0.0247558
-0.366323
2.26424
2.43287
2.20728
-1.01787
-0.148434
1.45669
2.12988
0.0226577
2.31366
0.0690987
2.31826
0.0140239
1.08931
-0.41855
0.019847
0.00306846
-0.571262
0.0753825
0.96993
0.511382
2.01105
1.7682
0.00701569
-0.370768
1.68209
0.0225677
-0.452794
-0.636162
2.37272
2.88574
2.36252
0.0211452
0.0548784
0.00293184
2.36087
1.91332
0.0480922
3.28321
0.0364582
0.00395285
0.0101175
-0.0543275
1.64422
0.00217659
2.43752
0.0483526
2.84323
0.0526597
0.000493208
0.678709
-0.725348
0.0311474
2.08878
1.52267
-0.321922
2.07971
-0.0451286
0.123239
0.0469659
0.0247483
-0.404802
0.0306056
2.00035
2.19407
2.37864
-0.523085
0.0609916
0.0205054
1.82919
2.37306
-0.253869
1.64284
4.06956
0.745679
2.35305
0.0415341
0.047609
0.0445617
-0.0672549
-0.0459235
0.229581
2.03895
0.0588596
2.5668
2.33096
-0.3657
0.0385748
1.33095
2.183
-0.485825
1.67847
2.14067
0.0969349
2.35884
0.540135
0.0481073
0.0268774
-0.0820932
0.00330776
0.00386491
-0.278697
0.00988948
-0.685519
0.0527057
0.0137169
-0.39923
0.0895826
0.0203902
1.41624
1.03448
0.143878
0.0316428
1.31437
0.132616
0.0352902
0.0247748
-0.287467
-0.0163867
-0.656176
1.49668
0.062591
2.30264
1.53083
1.37521
0.0221684
2.23528
2.06663
1.2131
1.75423
0.114011
0.00946606
0.146278
2.52183
1.68976
1.01491
0.0075832
3.79473
-0.290845
2.93146
0.067751
0.00395454
1.58487
0.00108475
2.11707
0.0125107
0.149708
0.0415166
-0.390515
-0.089685
-0.176486
1.94577
0.00240828
0.0132742
-0.331994
0.00875088
1.40293
0.0896704
1.96204
-0.0949869
1.27566
0.0603654
2.36417
2.28422
2.4141
-0.0666192
0.0415644
2.30717
0.000367661
2.66124
0.0226446
0.0200385
0.483216
0.130428
-0.857343
0.0236074
-0.249454
0.0052763
0.0210722
0.0482223
0.0101891
-0.434615
1.4253
0.0411055
1.82215
2.17954
-0.509307
-0.672372
-0.292989
0.0256003
3.20688
0.529974
1.52821
0.0631597
2.1241
0.00150395
0.0162446
0.0152769
0.363601
-0.0431032
0.0233921
0.0263707
2.56189
0.0442
-0.0738831
0.032765
1.6925
0.0314912
-0.434105
2.37556
-0.644645
0.00349226
4.05525
0.0658644
1.91636
1.12935
1.34847
0.00530505
2.62733
0.0126133
2.37912
0.013749
2.30413
0.028127
0.00738621
0.0383978
0.00602327
1.33636
0.0816468
-0.551648
2.02475
0.0125195
-0.0103841
0.02055
0.131819
-0.395043
0.423027
0.0673832
0.0209906
0.152091
1.48168
-0.251746
1.48854
0.0508641
-0.610485
2.31907
2.19164
-0.108199
0.0732963
0.0207212
0.0338244
2.07521
0.0473149
0.110094
1.46023
2.20591
2.344
1.81433
3.88328
0.00154742
-0.451041
-0.0598116
0.00748531
-0.554427
2.35892
1.94416
-0.0943778
0.0533123
2.36113
-0.37502
0.0289823
-0.50402
0.0450606
-0.675763
0.461349
0.0674757
2.34162
1.85244
-0.618255
1.66201
2.09936
0.0786258
0.00184071
-0.0831458
-0.0206533
2.3663
0.0106298
-0.884101
0.101582
2.05872
0.00371231
0.0110579
0.0428697
0.0759535
2.03178
1.45742
0.091967
0.0469995
0.020249
1.96395
1.23614
4.09109
2.87869
2.02219
0.0369451
0.0157822
-0.63198
-0.475749
0.0172661
2.31331
0.0934154
2.11869
2.8766
-0.439234
1.93262
2.56393
2.16739
-0.0839123
0.00800034
0.0318535
2.56248
0.067803
2.45235
2.34466
2.9012
2.21656
0.134068
1.59913
2.3862
3.3272
-1.00269
1.48705
1.94396
-0.65446
-0.290287
2.08172
2.4273
0.184423
-0.880555
1.70048
-0.29559
0.0415819
0.0777495
1.76201
2.32049
0.583732
1.08657
0.00135813
1.95316
0.0642449
0.0317524
0.0111918
0.0221631
1.63868
0.0307887
1.76642
1.59928
2.7402
2.16435
1.54321
-0.205679
-0.620415
-0.365669
0.0487841
0.00744334
0.0223231
-0.00494707
-0.290413
1.52447
1.65998
0.00133121
0.00351801
0.0331392
2.26732
-0.0537619
3.03164
0.0418605
2.2483
0.00289179
0.0109175
-0.00784728
0.0307243
1.83566
2.32969
0.0466623
-0.453807
0.00248087
-0.563907
0.0444458
0.275245
1.03056
0.00981671
2.64895
2.36855
-0.0454477
-0.739726
0.163179
-0.416113
0.00486945
0.0304801
0.0195208
-0.362702
1.99481
0.264059
0.00593721
2.06081
0.198245
2.44667
0.0316523
0.0259233
0.0134946
2.08488
0.0223134
2.28139
2.15201
0.0152826
0.116448
1.62715
2.48627
3.29162
-0.339919
-0.527987
-0.369236
-0.186414
1.84128
-1.349
0.0657266
-0.40746
1.99345
0.0113227
0.0144286
2.28147
0.00306641
0.960137
0.0370591
0.0805346
-0.0243772
0.0109035
1.16093
2.69506
0.0633175
0.025886
1.68166
0.0119086
2.38215
-0.596445
0.00111388
-0.647611
2.33001
0.00291797
0.130652
0.135507
0.00439562
0.0117074
1.93644
0.00107067
0.153943
1.54946
0.410432
0.0370501
0.0827695
0.056229
0.0391032
2.20838
2.20061
-0.284724
1.02618
-0.970728
0.0241806
0.000929378
0.0590053
2.02926
0.0608592
-0.261486
0.00512941
0.0299577
0.013995
2.36338
0.0229413
0.00484091
2.0915
1.18028
2.34831
0.057605
0.40587
2.27223
-0.00681664
0.0103014
0.0138338
1.67484
-0.510184
-0.231956
0.705588
0.0327537
1.44687
1.79369
0.983855
-0.44532
1.81237
0.0156619
-0.0394654
-0.269332
1.59539
0.978297
1.95854
1.98016
0.120723
0.0552294
0.0195426
-0.265786
-0.738769
-0.361877
1.83481
0.0330804
0.149393
2.03904
0.0134767
0.00943769
0.72534
-1.02178
-0.0518683
0.0598555
1.15789
0.0165558
2.00034
0.0461817
1.70798
-0.260703
-0.25856
3.12882
-0.400731
0.0437341
0.723344
0.0506441
0.0123261
-0.745617
0.0464001
0.499296
-0.291809
0.00614831
0.142144
-0.580594
0.0424753
2.34843
0.00887937
3.70201
0.0170522
0.0261939
0.157029
0.404961
0.0493523
-0.243945
2.05049
2.5345
0.573146
1.70307
0.027405
0.0184415
2.19474
0.0259636
0.105542
2.06139
-0.0485087
-0.42008
-0.314231
-1.18221
-0.610065
0.0571688
0.00579091
0.0093189
2.08517
2.17259
0.0617197
2.19845
2.3662
0.0306782
1.93838
3.9121
0.0572749
2.65615
-0.377905
0.0119042
0.0823798
2.07964
0.012721
0.025414
0.0274802
-0.559135
1.98766
0.0261272
0.0554948
0.0208951
0.0017738
1.238
0.0104635
1.67902
0.15023
0.011705
1.09283
2.12967
0.0625071
-0.0561711
0.0201496
-0.0825001
0.0780191
2.27655
2.34708
2.20598
-0.339664
0.00428976
0.0133516
-0.330471
-0.469028
1.75525
0.445522
1.74687
2.36118
-0.0393571
1.92345
1.69661
-0.924636
-0.6971
-0.498246
0.105221
1.68967
1.37445
0.00424319
0.158501
0.0267526
-0.310822
0.0320809
2.36695
1.89762
0.0323871
0.0117329
0.00850693
0.0378328
2.72492
0.0285867
0.0226835
0.0874454
0.990718
0.0708598
0.00702264
0.94685
-0.183287
1.55412
1.55698
0.158288
0.0169853
0.0378286
0.857722
0.928939
-0.403133
0.136392
0.118613
0.0421673
0.171972
-0.934174
2.14683
-0.45157
0.160384
2.16156
0.00123534
0.0265899
1.32954
0.0251857
2.09139
2.50005
2.2564
-0.96547
0.000854611
1.38181
0.0500486
2.09483
1.56707
1.9201
0.0276553
1.42577
0.0289945
-0.327046
2.16095
0.0857491
-0.356105
0.0289964
-0.0309497
-0.519018
0.0318983
0.000545579
2.12936
1.59962
2.45578
0.0215448
1.92998
1.63844
-0.27126
-0.45941
0.0388661
0.0186406
0.00137782
0.835918
0.162606
-0.316019
1.40758
-0.509506
1.31322
0.00469008
1.51554
0.0146536
0.800504
1.71784
2.29268
-0.126675
0.00438015
1.30332
0.0505332
1.37616
0.00547603
0.00964296
0.000569354
0.0401938
2.09797
1.82519
0.0198199
-1.21277
0.0166944
0.00283605
2.44988e-05
0.0123907
2.12385
-0.381975
0.00805416
1.61253
0.082082
0.0800921
-0.0190559
0.025963
0.13799
0.00040577
-0.0451949
-0.845087
1.41579
2.46241
0.0200534
0.05266
-0.0152199
1.53615
-0.347743
2.33904
2.83133
-0.712071
1.95152
2.05238
-0.369022
0.144278
2.54012
1.89305
2.47093
0.788614
1.70181
3.29682
-0.216527
0.0974104
1.35026
2.39124
0.0847284
1.78031
0.0221572
2.52255
1.17946
2.07483
0.0155789
-0.247398
0.0613967
1.92888
1.58719
0.0294663
0.00905585
2.08317
-0.48811
0.0342428
2.79635
-0.160463
0.0225944
-0.0191509
-0.00137741
0.054704
2.03192
0.116206
2.40494
0.852672
4.60335
0.244389
2.19653
0.061561
3.82694
0.17513
2.44431
2.18092
0.0277232
1.62493
2.27137
0.0283409
0.0347445
0.114903
2.34243
0.901418
2.41278
0.0257298
0.0105413
0.0920736
0.474954
0.0137856
-0.426825
1.70564
1.35527
1.78666
0.710994
0.0636556
4.23676
-0.666591
3.34265
-0.567149
0.0161074
0.0291763
0.0326975
1.06632
-0.0670134
2.34311
-0.00121012
-0.0130638
2.07858
2.16407
0.0313251
0.519188
1.10494
1.85354
0.0268663
2.38159
0.069298
-0.0248888
0.0205773
0.0160298
1.38543
-0.237184
0.983924
-0.221458
0.044395
-0.130204
0.0206868
1.90177
1.61462
1.83797
1.29037
0.0819824
0.65198
3.19273
0.011345
-0.0578343
1.80485
0.738633
-0.388833
0.07788
1.98346
-0.253674
2.00828
1.82892
0.0450408
2.22743
0.0281118
0.0211837
0.929228
2.38926
0.0353122
0.104875
1.84163
0.00616174
2.46867
2.86627
0.0180775
0.958216
0.0313904
2.12434
3.74518
-0.569119
0.0902842
1.74746
-0.744698
0.91073
2.03393
1.57378
1.8039
0.422998
-0.209328
0.0553833
0.00738135
-0.0542506
1.98227
2.44058
0.0149609
0.000642831
1.01845
0.424867
-0.0665793
2.74437
0.00673304
2.05069
0.0467216
2.62487
1.86147
0.00516409
0.0467909
0.0190179
2.38385
2.01739
1.58475
1.85722
1.96236
0.0507326
0.0477342
0.129838
-0.0954211
0.0327452
0.464812
1.81068
1.89902
4.6707e-05
1.4502
0.0177677
-0.311677
0.594551
0.024488
0.0818088
1.09587
1.9473
-0.270659
-0.0553616
0.0298792
0.956035
0.021843
0.0115238
-0.117024
0.00467966
0.0225301
1.67503
0.0491712
-1.11982
-0.368642
0.0372631
0.0362133
0.00465822
2.20266
1.74968
0.0486896
2.39886
0.0222191
0.0252244
0.0066967
0.0424762
0.0458076
-0.196586
-0.606188
0.0482983
2.43557
0.0648639
0.0239591
-0.444546
-0.288492
0.153997
2.1197
-0.106182
2.44184
0.00470394
-0.295521
0.00423303
-0.930665
0.067443
0.0195009
2.83585
3.93079
1.70573
2.27559
2.3427
0.431175
1.90378
-0.281226
4.19637
0.0366029
0.0603963
1.33009
1.98516
-0.312676
-0.637262
2.39107
0.329849
1.5998
3.38361
-0.326479
-0.368783
2.21787
1.25425
1.1656
1.44461
4.17745
2.39672
0.0107219
0.146564
2.3635
-0.137102
2.35389
1.35849
0.857455
2.46959
0.0247778
1.82065
1.96643
0.977538
1.88051
0.00619054
2.0858
0.0037201
0.111742
-0.531597
0.0280968
0.0277658
0.0203678
0.00996142
0.0252343
0.0160375
0.00520236
1.48495
0.0343281
0.599007
2.2561
2.44249
-0.657055
0.0115598
0.00543533
1.9727
0.11507
3.75157
0.0241305
0.0215953
1.43423
-0.174702
2.27162
0.247903
2.18629
-0.396967
2.18467
1.93462
0.0370914
0.0203592
0.0396034
0.11961