/*--------------------------------*- C++ -*----------------------------------*\
| =========                 |                                                 |
| \\      /  F ield         | OpenFOAM: The Open Source CFD Toolbox           |
|  \\    /   O peration     | Version:  3.0.1                                 |
|   \\  /    A nd           | Web:      www.OpenFOAM.org                      |
|    \\/     M anipulation  |                                                 |
\*---------------------------------------------------------------------------*/
FoamFile
{
    version     2.0;
    format      ascii;
    class       surfaceVectorField;
    location    "0.106191";
    object      Uf;
}
// * * * * * * * * * * * * * * * * * * * * * * * * * * * * * * * * * * * * * //

dimensions      [0 1 -1 0 0 0 0];

internalField   nonuniform List<vector> 
32369
(
(2.02566 4.33838 -3.07431e-18)
(3.18437 5.17696 -1.47267e-18)
(0.570697 5.07968 -3.21991e-18)
(1.67395 3.61661 4.89511e-19)
(2.88702 2.9142 9.05197e-22)
(0.550347 3.59503 -6.16321e-19)
(1.68417 2.86865 6.51971e-19)
(2.64793 2.98415 4.1964e-19)
(0.870096 2.78813 -1.75716e-19)
(1.68955 2.22646 5.43943e-19)
(2.37222 2.38995 5.24253e-19)
(1.12332 2.16215 -5.036e-19)
(1.73498 1.73402 3.54169e-19)
(2.17119 1.92331 2.89999e-19)
(1.33133 1.71165 5.11346e-19)
(1.79728 1.36918 -8.14992e-21)
(2.07192 1.53485 -8.24899e-21)
(1.50405 1.3729 1.81557e-19)
(1.86511 1.09747 2.11662e-20)
(2.04253 1.23084 1.45019e-19)
(1.64322 1.11499 -1.98139e-19)
(1.93504 0.892025 -1.82842e-19)
(2.05398 0.994613 -1.3985e-19)
(1.75781 0.914814 1.96794e-19)
(2.00896 0.73475 8.29856e-20)
(2.09212 0.81105 -1.80602e-20)
(1.8585 0.75761 -2.74498e-19)
(2.09163 0.612399 2.11206e-19)
(2.15191 0.669209 1.84888e-19)
(1.95238 0.63431 1.04463e-19)
(2.22874 0.571762 -1.46739e-19)
(2.03642 0.541667 -3.4986e-20)
(2.19986 0.515155 -4.54185e-21)
(3.11737 2.25791 1.79923e-18)
(2.8913 3.22442 -4.39602e-18)
(3.14455 2.58227 3.92552e-19)
(3.32949 0.978922 3.25702e-18)
(2.98838 2.45374 9.61759e-20)
(3.59915 2.17038 1.91917e-20)
(2.68444 2.17178 2.3181e-19)
(3.32081 1.90078 5.18042e-19)
(2.44638 1.80671 9.42812e-20)
(2.9742 1.73147 3.80385e-19)
(2.29487 1.45964 1.48305e-19)
(2.67719 1.47295 3.15471e-19)
(2.22099 1.16969 -2.43288e-20)
(2.47894 1.22082 -1.59239e-19)
(2.2021 0.941696 2.6191e-20)
(2.37025 0.998976 4.07612e-20)
(2.22268 0.76715 8.7073e-20)
(2.32979 0.816088 -3.72382e-20)
(2.27572 0.635329 -4.18364e-20)
(2.34166 0.671126 0)
(2.39494 0.570375 -4.68431e-20)
(2.36603 0.540181 1.25413e-21)
(2.81116 0.869123 -1.31413e-18)
(2.06609 1.83366 3.19586e-18)
(3.49555 1.09391 2.6137e-18)
(2.89603 -0.243097 1.9731e-18)
(3.57536 1.33979 3.73666e-19)
(3.638 1.1053 -1.78119e-18)
(3.36742 1.48381 3.28321e-19)
(3.60029 0.974764 1.85485e-19)
(3.06605 1.436 2.93785e-20)
(3.41822 1.15293 -1.4921e-19)
(2.79044 1.28252 7.42377e-20)
(3.12217 1.11554 2.55322e-19)
(2.59349 1.08878 -2.18155e-19)
(2.85665 1.01475 -2.68238e-19)
(2.479 0.902259 -5.54156e-20)
(2.66533 0.879614 -1.73728e-19)
(2.43517 0.743504 -1.24706e-19)
(2.55518 0.743747 -1.23639e-19)
(2.45207 0.61711 0)
(2.51808 0.624322 3.62525e-20)
(2.54553 0.539409 -4.75191e-20)
(2.54017 0.524047 1.02288e-19)
(2.07669 0.267173 7.10033e-18)
(1.19167 1.12575 4.74711e-18)
(3.13842 0.170729 -1.21214e-18)
(2.24375 -0.646296 -3.15129e-19)
(3.5172 0.412938 -2.28344e-18)
(3.2261 0.34929 -1.72018e-18)
(3.55396 0.669761 -4.45669e-19)
(3.42053 0.168378 -6.43195e-19)
(3.3763 0.825678 -1.8167e-19)
(3.47485 0.513727 0)
(3.12057 0.879381 -5.38553e-20)
(3.28993 0.61829 -5.69118e-21)
(2.88737 0.839637 5.02178e-20)
(3.06956 0.669498 3.76002e-19)
(2.71699 0.750838 -1.22432e-19)
(2.86916 0.649416 -1.48577e-19)
(2.62127 0.648545 1.38647e-19)
(2.7276 0.592456 1.4712e-19)
(2.59851 0.554202 5.45239e-21)
(2.65656 0.523472 -4.63824e-21)
(2.65621 0.470276 -1.74497e-21)
(2.65181 0.480541 9.35969e-20)
(1.29078 0.11008 -3.01176e-18)
(0.385974 0.8395 -2.8789e-18)
(2.51747 -0.222812 0)
(1.61171 -0.629078 0)
(3.11959 -0.135262 -2.17003e-19)
(2.70144 -0.0554261 1.87223e-20)
(3.37788 0.0459408 -2.68582e-19)
(3.05353 -0.321225 -1.67231e-18)
(3.37012 0.254339 1.73347e-19)
(3.28398 0.0179872 1.3251e-18)
(3.2182 0.418628 3.77752e-19)
(3.22628 0.158902 -1.47195e-20)
(3.03069 0.501142 3.54551e-19)
(3.10052 0.301622 1.65431e-19)
(2.86295 0.516925 2.33382e-19)
(2.94543 0.370772 1.4409e-19)
(2.7485 0.490739 4.20877e-20)
(2.81508 0.391647 -9.7156e-21)
(2.69954 0.447945 -4.92781e-21)
(2.73525 0.381523 -3.34139e-20)
(2.71734 0.369799 1.7482e-20)
(2.7215 0.408643 3.64388e-20)
(0.57414 0.143761 -1.74541e-19)
(-0.355473 0.79412 -1.88404e-18)
(1.86677 -0.33272 1.66722e-20)
(1.00625 -0.454304 -7.8956e-20)
(2.61387 -0.393072 -1.30435e-18)
(2.15264 -0.233696 2.04568e-18)
(3.02791 -0.324045 -6.20426e-19)
(2.63686 -0.551031 -3.05357e-18)
(3.16389 -0.150743 1.28941e-18)
(2.98664 -0.296184 1.18183e-18)
(3.12994 0.0310653 -2.22022e-19)
(3.03546 -0.177751 -1.87253e-19)
(3.02198 0.172387 -1.682e-20)
(3.00097 -0.00692345 1.18972e-19)
(2.89747 0.25999 -7.12682e-20)
(2.90899 0.108443 0)
(2.79707 0.300407 -8.37721e-20)
(2.81456 0.183295 -6.98595e-20)
(2.74291 0.311474 -3.23394e-20)
(2.74699 0.221738 5.51623e-20)
(2.72437 0.247898 -4.39285e-20)
(2.74656 0.313662 -3.5289e-20)
(-0.0669737 0.307543 -1.96635e-18)
(-1.02647 0.928351 1.25795e-18)
(1.25736 -0.282004 1.72802e-18)
(0.436409 -0.193155 -2.18516e-18)
(2.10583 -0.473022 5.00538e-19)
(1.60928 -0.259916 2.02344e-18)
(2.62892 -0.504789 -1.85392e-18)
(2.21621 -0.613728 -1.57349e-18)
(2.872 -0.39269 -1.4203e-19)
(2.65464 -0.46497 1.07493e-20)
(2.93736 -0.238484 1.17321e-19)
(2.79179 -0.387605 7.70739e-19)
(2.9084 -0.0889185 1.45898e-19)
(2.8324 -0.228991 -4.72996e-19)
(2.83893 0.030792 9.27238e-21)
(2.7987 -0.102099 -5.34123e-19)
(2.77033 0.112728 5.43747e-20)
(2.7461 -0.000770352 7.47265e-19)
(2.72822 0.163169 5.36055e-20)
(2.70245 0.0688803 -4.77828e-19)
(2.69014 0.121504 2.43063e-19)
(2.72968 0.192951 6.46239e-19)
(-0.638132 0.563975 1.53226e-18)
(-1.56468 1.18225 3.65935e-19)
(0.706499 -0.121714 -2.32576e-18)
(-0.0816789 0.123285 -2.11594e-18)
(1.63038 -0.43239 0)
(1.09852 -0.172111 0)
(2.23818 -0.556453 1.10926e-19)
(1.8132 -0.565541 1.01812e-18)
(2.56392 -0.512431 8.25335e-19)
(2.32247 -0.526266 -1.23417e-18)
(2.70511 -0.401033 3.25243e-19)
(2.5357 -0.496113 6.5092e-19)
(2.74032 -0.268545 -1.1243e-18)
(2.63633 -0.369155 -1.10196e-18)
(2.72201 -0.146496 7.59651e-20)
(2.65183 -0.252351 -7.15e-19)
(2.68833 -0.0473352 3.58353e-19)
(2.63608 -0.145432 1.44323e-18)
(2.66572 0.028324 -3.67988e-19)
(2.61557 -0.060845 1.22139e-19)
(2.61135 0.00687026 1.88951e-19)
(2.67745 0.0870227 -1.3188e-18)
(-1.1342 0.871833 -2.9079e-18)
(-2.00563 1.49226 -2.53313e-18)
(0.209336 0.115526 0)
(-0.56018 0.465653 0)
(1.19208 -0.303616 9.1503e-19)
(0.626437 -0.00116368 -2.60959e-19)
(1.87257 -0.516545 -1.43507e-20)
(1.43394 -0.44149 1.73245e-19)
(2.26851 -0.544246 -1.52259e-18)
(2.00532 -0.509725 -8.88617e-19)
(2.47044 -0.481972 -5.78724e-19)
(2.28745 -0.530372 -1.05134e-19)
(2.55526 -0.378178 -6.91446e-19)
(2.43738 -0.444482 1.09607e-20)
(2.57755 -0.268664 4.4376e-19)
(2.49289 -0.348499 -8.59536e-19)
(2.57381 -0.169416 1.33991e-18)
(2.50725 -0.24931 6.86337e-19)
(2.56887 -0.0857997 6.70831e-19)
(2.50703 -0.162901 8.2e-19)
(2.51098 -0.08943 2.00712e-19)
(2.59221 -0.0195348 -1.46627e-18)
(-1.57972 1.21185 1.46204e-19)
(-2.41317 1.85895 1.80322e-18)
(-0.258989 0.404995 -2.34945e-19)
(-1.02234 0.832438 0)
(0.773787 -0.111444 -1.04971e-18)
(0.17328 0.235935 -9.50178e-19)
(1.52415 -0.411585 -5.60088e-19)
(1.06446 -0.26311 -1.27304e-19)
(1.98861 -0.513723 5.29406e-19)
(1.69973 -0.43625 -5.78834e-20)
(2.24645 -0.504188 4.59072e-19)
(2.05051 -0.51215 -3.7743e-19)
(2.373 -0.434994 -8.71914e-20)
(2.24617 -0.472172 8.81228e-19)
(2.42711 -0.345724 -7.52647e-19)
(2.33587 -0.402469 -6.5883e-19)
(2.44663 -0.255764 1.89995e-19)
(2.37432 -0.318298 -2.57272e-19)
(2.45611 -0.174187 4.45265e-19)
(2.39071 -0.237791 1.92929e-19)
(2.40356 -0.167199 2.39439e-19)
(2.47392 -0.104715 7.67729e-19)
(-1.99843 1.58302 1.8405e-18)
(-2.75555 2.25373 4.59562e-18)
(-0.706973 0.73592 -6.17159e-19)
(-1.46347 1.22044 -1.08674e-18)
(0.365151 0.129872 -9.08161e-20)
(-0.259343 0.523375 -6.88233e-19)
(1.18289 -0.258034 3.15446e-19)
(0.697559 -0.044363 7.2598e-19)
(1.71796 -0.438004 -9.05405e-19)
(1.39864 -0.318895 -5.40096e-19)
(2.03308 -0.484754 -1.09098e-19)
(1.81992 -0.455919 -3.78848e-19)
(2.19988 -0.453762 4.51009e-19)
(2.06308 -0.465356 1.12527e-19)
(2.2814 -0.388659 -1.93946e-19)
(2.1856 -0.425356 9.0862e-20)
(2.31918 -0.312687 -2.84257e-19)
(2.2447 -0.359941 -3.09857e-21)
(2.33991 -0.237013 -6.02288e-21)
(2.27337 -0.289118 7.36243e-21)
(2.28809 -0.22212 -4.88221e-19)
(2.36645 -0.165915 -3.6189e-19)
(-2.3727 1.965 2.03265e-18)
(-3.01592 2.61591 2.54041e-19)
(-1.12722 1.08371 -1.19962e-18)
(-1.85359 1.58339 -9.70146e-20)
(-0.0287762 0.403436 0)
(-0.670397 0.834657 0)
(0.847917 -0.0690861 0)
(0.33329 0.199315 -5.45013e-19)
(1.45189 -0.328749 0)
(1.09691 -0.169919 4.188e-19)
(1.82596 -0.435194 -2.17527e-19)
(1.58823 -0.372079 6.04221e-19)
(2.03476 -0.445344 -2.36533e-19)
(1.88264 -0.433468 -9.05424e-19)
(2.1431 -0.406793 2.85649e-19)
(2.04037 -0.425862 3.72184e-19)
(2.19673 -0.347466 2.96718e-19)
(2.12044 -0.381409 4.83636e-19)
(2.22449 -0.282043 -3.93191e-19)
(2.16069 -0.323521 -3.22871e-19)
(2.17994 -0.263737 -2.20625e-19)
(2.24834 -0.219992 -3.19984e-19)
(-2.68445 2.3118 -1.77013e-18)
(-3.21521 2.92795 -2.69001e-18)
(-1.51185 1.42845 1.09841e-18)
(-2.21353 1.91766 8.88039e-19)
(-0.415517 0.694419 -4.90892e-19)
(-1.07191 1.15075 0)
(0.507834 0.143842 -2.4853e-19)
(-0.0419652 0.461223 -3.02199e-19)
(1.17807 -0.194232 1.00607e-18)
(0.77839 0.00616175 4.20702e-19)
(1.61415 -0.362778 8.08444e-20)
(1.34064 -0.264281 3.29877e-19)
(1.86997 -0.416894 -4.26914e-19)
(1.69306 -0.380795 -6.41701e-19)
(2.0088 -0.407002 5.65452e-19)
(1.89265 -0.408935 3.63254e-19)
(2.07987 -0.36597 -5.73625e-20)
(1.99841 -0.38739 2.39386e-19)
(2.11584 -0.31242 -1.73375e-19)
(2.0528 -0.343852 -3.245e-19)
(2.07959 -0.293224 2.09711e-19)
(2.13365 -0.254507 1.66018e-19)
(-2.93554 2.60537 -1.01124e-19)
(-3.35449 3.17909 3.7177e-20)
(-1.8792 1.75561 -1.23511e-19)
(-2.5381 2.22659 9.12756e-19)
(-0.813683 0.996927 2.20814e-19)
(-1.47646 1.48173 -4.82329e-19)
(0.142446 0.381593 2.70974e-19)
(-0.444131 0.753356 4.95372e-19)
(0.876926 -0.0326365 -2.48879e-19)
(0.426818 0.218872 3.43187e-19)
(1.38056 -0.266888 -2.8967e-19)
(1.06152 -0.125161 -9.23702e-19)
(1.69222 -0.369627 5.41367e-20)
(1.48008 -0.303243 3.78378e-19)
(1.86978 -0.391858 4.89694e-20)
(1.73105 -0.373414 -2.19561e-19)
(1.96433 -0.370842 2.49127e-20)
(1.87086 -0.378566 2.09151e-19)
(2.01303 -0.32923 0)
(1.94497 -0.350804 0)
(1.98129 -0.307325 0)
(2.04215 -0.279908 0)
(-3.1192 2.83212 1.36543e-18)
(-3.40866 3.33938 -1.13908e-18)
(-2.21495 2.0608 7.02214e-19)
(-2.79592 2.49565 1.92597e-18)
(-1.21645 1.31433 -3.04825e-19)
(-1.86013 1.81687 -4.95312e-19)
(-0.247612 0.651471 5.74668e-19)
(-0.861896 1.07566 3.52436e-19)
(0.54353 0.163964 -2.03455e-19)
(0.0434487 0.472528 5.04087e-19)
(1.116 -0.140665 -4.04679e-19)
(0.745139 0.0523404 -1.84063e-19)
(1.49047 -0.298947 1.73698e-19)
(1.23347 -0.19417 -1.54442e-19)
(1.71596 -0.359214 -1.00317e-19)
(1.544 -0.314361 8.99751e-22)
(1.84246 -0.361836 2.09504e-19)
(1.72764 -0.352225 1.8945e-19)
(1.90966 -0.334378 0)
(1.8305 -0.344261 0)
(1.88558 -0.312611 -1.27418e-19)
(1.9433 -0.293745 -1.61132e-19)
(-3.22541 3.00297 -7.13979e-20)
(-3.398 3.43591 -1.10077e-18)
(-2.49713 2.34698 9.75377e-19)
(-2.97202 2.72987 7.17738e-20)
(-1.60906 1.64917 9.02064e-20)
(-2.19757 2.14719 4.59021e-19)
(-0.659979 0.960645 2.65963e-19)
(-1.28182 1.42816 4.27048e-19)
(0.173115 0.405288 5.9771e-19)
(-0.372417 0.77407 -3.2994e-19)
(0.811102 0.0254447 6.65152e-20)
(0.38353 0.27724 5.86406e-19)
(1.25256 -0.196681 -3.46043e-19)
(0.940622 -0.0442735 -3.51894e-19)
(1.53474 -0.303059 2.73176e-19)
(1.31694 -0.223302 2.47231e-19)
(1.70367 -0.335346 0)
(1.55495 -0.301694 0)
(1.79974 -0.325765 -1.13792e-19)
(1.69836 -0.319201 0)
(1.78293 -0.302007 -1.28667e-19)
(1.85353 -0.296912 -8.58756e-20)
(-3.27473 3.15377 -6.58218e-19)
(-3.36571 3.51425 -1.10564e-18)
(-2.70964 2.61717 -6.58076e-19)
(-3.0759 2.93573 -7.63466e-19)
(-1.96674 1.99596 8.02013e-19)
(-2.46665 2.45834 1.09242e-18)
(-1.08499 1.31197 -7.7781e-20)
(-1.68106 1.8012 3.16177e-19)
(-0.239169 0.700588 -4.37938e-19)
(-0.814418 1.12621 -4.90699e-19)
(0.453349 0.242904 2.74911e-19)
(-0.0303753 0.56039 3.24525e-19)
(0.962536 -0.0510742 1.80784e-19)
(0.586599 0.160843 2.85013e-19)
(1.30939 -0.212736 0)
(1.03157 -0.0856688 -2.08285e-19)
(1.53301 -0.282835 0)
(1.33438 -0.213816 0)
(1.67113 -0.297387 0)
(1.53243 -0.265442 0)
(1.66059 -0.270596 8.81339e-20)
(1.75603 -0.287038 -2.05362e-20)
(-3.28833 3.28341 -8.25395e-19)
(-3.33153 3.58887 5.72726e-19)
(-2.85268 2.85414 4.40538e-19)
(-3.13045 3.11267 -1.65991e-18)
(-2.26281 2.3285 6.86322e-19)
(-2.66189 2.73123 1.25528e-18)
(-1.49679 1.68783 0)
(-2.03175 2.16512 4.31503e-19)
(-0.685637 1.04858 1.85993e-19)
(-1.26349 1.51288 -3.26216e-19)
(0.0358577 0.522233 3.36169e-19)
(-0.496737 0.905801 5.53295e-21)
(0.60432 0.153177 -6.79479e-20)
(0.158575 0.436041 2.8977e-19)
(1.02084 -0.0716814 -2.31789e-19)
(0.66835 0.120103 -2.09444e-19)
(1.31131 -0.189493 0)
(1.0441 -0.0673994 -1.16823e-20)
(1.50685 -0.237788 7.87216e-20)
(1.31136 -0.164982 0)
(1.50014 -0.203778 8.92225e-20)
(1.63663 -0.250036 2.18398e-19)
(-3.28681 3.40213 -4.56555e-20)
(-3.30108 3.66513 1.06914e-18)
(-2.94564 3.05717 -1.48371e-18)
(-3.1614 3.2671 -7.92648e-19)
(-2.49397 2.6278 1.08417e-18)
(-2.80433 2.96134 5.95653e-19)
(-1.87488 2.0632 1.97623e-19)
(-2.32948 2.49534 -2.30476e-20)
(-1.15393 1.44002 -5.41179e-19)
(-1.70459 1.91295 -3.64124e-19)
(-0.446459 0.873481 -6.97934e-20)
(-1.01059 1.31449 -2.02043e-19)
(0.162358 0.438412 1.86464e-19)
(-0.352862 0.802751 1.52552e-19)
(0.647152 0.146036 -1.04332e-20)
(0.208666 0.424392 1.74246e-20)
(1.01447 -0.0306842 -1.30383e-20)
(0.659812 0.170067 1.96843e-20)
(1.2825 -0.126229 0)
(1.00747 0.0112561 0)
(1.27418 -0.0753367 0)
(1.47715 -0.175199 1.52286e-19)
(-3.28265 3.51689 1.00618e-19)
(-3.26807 3.73799 1.60252e-19)
(-3.01413 3.23128 1.131e-18)
(-3.18584 3.39453 8.4623e-19)
(-2.6828 2.88411 -4.07486e-19)
(-2.9269 3.14071 -3.23664e-20)
(-2.22114 2.41428 -5.31695e-19)
(-2.59773 2.77425 -4.12503e-19)
(-1.63576 1.85813 -4.36211e-20)
(-2.13509 2.30722 -2.22553e-21)
(-0.993064 1.30319 -1.55522e-20)
(-1.55792 1.7852 1.91665e-19)
(-0.373627 0.831805 -3.85119e-21)
(-0.94091 1.28617 -2.66533e-19)
(0.168936 0.476743 4.6711e-20)
(-0.353924 0.866081 1.05361e-19)
(0.615475 0.230245 3.41969e-20)
(0.162415 0.542271 6.88911e-21)
(0.966486 0.0711844 0)
(0.589995 0.307203 -1.29076e-20)
(0.939095 0.15385 7.10274e-22)
(1.2394 -0.0322789 2.06387e-19)
(-3.26982 3.6126 8.24323e-19)
(-3.21093 3.78667 5.93579e-19)
(-3.0795 3.36078 -3.37535e-20)
(-3.20291 3.4465 -5.63545e-19)
(-2.86693 3.08023 2.59029e-20)
(-3.05222 3.24272 7.63242e-19)
(-2.55954 2.72521 7.01107e-20)
(-2.85797 3.00204 -3.17078e-19)
(-2.12501 2.29482 2.17305e-19)
(-2.54505 2.69988 1.98537e-19)
(-1.58268 1.82225 -4.85431e-20)
(-2.09387 2.31917 7.47294e-20)
(-0.991616 1.36475 -1.82495e-19)
(-1.55576 1.89664 -2.4583e-19)
(-0.417759 0.965635 8.2195e-20)
(-0.986686 1.4752 1.15374e-19)
(0.0926349 0.64381 -3.31725e-20)
(-0.440852 1.09326 -2.1957e-20)
(0.520299 0.403162 -1.38161e-20)
(0.042908 0.775206 -3.11604e-21)
(0.470519 0.531273 7.16466e-22)
(0.863847 0.255109 9.32115e-22)
(-3.23235 3.53245 -5.76331e-19)
(-3.26585 3.63836 -9.46543e-20)
(-3.15573 3.34399 1.67801e-20)
(-3.21765 3.38049 -5.08693e-19)
(-3.06243 3.18314 5.18082e-19)
(-3.1175 3.27501 7.33124e-19)
(-2.88459 3.00073 -2.41172e-19)
(-2.99008 3.18731 -1.86281e-19)
(-2.57719 2.74974 4.08624e-20)
(-2.76662 3.067 -4.34961e-20)
(-2.14091 2.41855 -1.25388e-19)
(-2.43236 2.86159 -1.87362e-19)
(-1.61818 2.03376 4.18907e-20)
(-2.01541 2.56886 7.20673e-20)
(-1.06605 1.63057 5.22137e-20)
(-1.5409 2.20839 7.93266e-20)
(-0.537759 1.25177 -7.99952e-21)
(-1.05117 1.82087 -4.18924e-20)
(-0.0627722 0.934123 -2.18532e-21)
(-0.593326 1.45677 8.32366e-20)
(-0.113179 1.15263 3.40224e-21)
(0.370386 0.653984 1.01945e-19)
(-3.23876 3.60725 0)
(-2.50849 2.89272 0)
(-3.15116 3.43526 0)
(-2.39425 2.87534 0)
(-3.05324 3.37282 1.2869e-19)
(-2.25115 2.90519 0)
(-2.89554 3.33109 -8.02197e-20)
(-2.12643 2.93363 3.52798e-19)
(-2.66253 3.24519 -2.80124e-19)
(-1.98401 2.93595 -4.01223e-20)
(-2.35262 3.07312 -6.39643e-20)
(-1.82742 2.89218 3.08952e-19)
(-1.97643 2.80191 1.10214e-20)
(-1.65163 2.79343 -4.46939e-19)
(-1.55889 2.44835 -5.01486e-20)
(-1.44598 2.62723 -2.43143e-19)
(-1.1366 2.05819 -1.35679e-20)
(-1.19032 2.37902 -7.67854e-21)
(-0.748001 1.68461 2.62344e-19)
(-0.920393 2.08175 2.37882e-19)
(-0.548341 1.71851 4.7116e-20)
(-0.399891 1.49356 2.75386e-21)
(-1.84684 2.16927 0)
(0.207068 1.4338 5.46819e-19)
(-1.65089 2.25152 0)
(0.23628 1.55262 2.57372e-19)
(-1.48806 2.3322 -5.35133e-20)
(0.250038 1.50536 4.05e-19)
(-1.36544 2.40379 -1.43295e-20)
(0.243421 1.472 -4.28494e-19)
(-1.28062 2.46371 2.35723e-19)
(0.236515 1.4549 2.06491e-19)
(-1.22745 2.51777 2.08067e-20)
(0.214215 1.44035 4.79318e-20)
(-1.18298 2.55759 -1.31189e-19)
(0.185373 1.43176 4.02931e-20)
(-1.10899 2.54586 -4.5177e-20)
(0.173434 1.43465 -9.47901e-20)
(-0.975487 2.44808 -6.78625e-20)
(0.198189 1.43102 1.83029e-21)
(-0.787535 2.24891 2.6924e-19)
(0.241449 1.40529 -1.73416e-20)
(0.323843 1.31561 -5.697e-19)
(-0.529623 2.05258 -4.69427e-20)
(-1.91354 3.29769 1.41506e-18)
(-2.19105 0.654193 1.38064e-19)
(-0.635187 2.53255 4.37007e-19)
(-1.40138 1.23602 -1.38568e-18)
(0.220394 2.05312 -1.31885e-18)
(-0.53911 1.52198 2.11289e-19)
(0.761567 1.69442 -8.07286e-19)
(0.158362 1.5161 1.08478e-18)
(1.11769 1.39894 3.65957e-19)
(0.662401 1.3519 1.14376e-19)
(1.36384 1.15589 1.25117e-21)
(1.02635 1.15551 1.38061e-19)
(1.54263 0.958539 -1.08397e-19)
(1.29115 0.97385 -2.46246e-19)
(1.68084 0.799645 2.07966e-19)
(1.48817 0.816558 3.58683e-19)
(1.79541 0.673119 -2.88011e-19)
(1.64214 0.686168 -1.90459e-19)
(1.89763 0.572873 -8.62176e-20)
(1.76743 0.582008 6.15934e-20)
(1.8684 0.504876 -1.31342e-19)
(1.99426 0.495803 0)
(-1.81472 -0.404602 -1.6175e-18)
(-2.05619 -1.69078 -1.95486e-18)
(-1.41627 0.44302 -6.01923e-19)
(-1.22462 -0.557867 -2.75013e-18)
(-0.713776 0.922314 2.6817e-18)
(-0.985961 -0.0124666 9.07774e-19)
(-0.0148474 1.08321 1.73907e-18)
(-0.425644 0.45315 -5.38055e-20)
(0.539329 1.04914 -2.37411e-19)
(0.104868 0.716088 1.00612e-18)
(0.938643 0.940121 -9.24966e-20)
(0.570997 0.787138 -1.23981e-18)
(1.22449 0.813591 2.97356e-19)
(0.938738 0.748061 7.03035e-19)
(1.43585 0.693141 6.79392e-20)
(1.21647 0.664577 1.85758e-19)
(1.59928 0.589624 1.19152e-19)
(1.42813 0.575253 -1.38353e-19)
(1.73285 0.504511 3.53555e-20)
(1.59018 0.49612 -3.09763e-21)
(1.70853 0.431251 -1.66411e-19)
(1.85056 0.430104 4.7082e-20)
(-1.04789 -1.34194 -2.63121e-18)
(-1.33299 -2.21375 -1.76006e-18)
(-1.0626 -0.911157 -7.83781e-19)
(-0.435001 -1.28975 -4.26161e-19)
(-0.806226 -0.398466 -1.2569e-18)
(-0.700731 -1.03744 1.68846e-18)
(-0.41429 0.0769893 -5.62988e-19)
(-0.436469 -0.496598 -2.71697e-18)
(0.0597081 0.404671 1.57219e-19)
(-0.12809 -0.0605965 2.25404e-18)
(0.522467 0.554799 -6.17104e-19)
(0.258395 0.219347 -1.39453e-18)
(0.904557 0.579794 6.30071e-19)
(0.63083 0.367558 -1.25397e-19)
(1.1943 0.543747 1.72968e-20)
(0.945911 0.41684 3.05611e-19)
(1.41006 0.487469 -2.70364e-19)
(1.19989 0.410476 3.19957e-20)
(1.57361 0.430884 -1.81923e-19)
(1.39726 0.381722 -1.32963e-19)
(1.53967 0.35076 -3.63993e-20)
(1.69814 0.377203 -2.671e-19)
(-0.23994 -1.67581 1.43315e-19)
(-0.574385 -2.25064 -1.00511e-20)
(-0.323395 -1.45975 1.65373e-18)
(0.357573 -1.53593 9.05589e-19)
(-0.346189 -1.066 8.64192e-19)
(-0.146095 -1.52413 1.20645e-18)
(-0.252354 -0.640335 -3.40874e-19)
(-0.0522491 -1.05068 -1.30077e-18)
(-0.00914401 -0.256617 8.29238e-19)
(0.0311972 -0.657375 5.64653e-19)
(0.30404 0.0225347 -1.05017e-18)
(0.246641 -0.298385 -4.55494e-20)
(0.630961 0.190846 -4.73285e-19)
(0.514103 -0.0463429 -5.50061e-19)
(0.925299 0.27135 3.55802e-19)
(0.7858 0.107214 1.59253e-19)
(1.17008 0.295659 2.23557e-19)
(1.03145 0.185273 1.47968e-19)
(1.36798 0.292896 0)
(1.23679 0.215607 -1.71686e-20)
(1.38904 0.218371 2.01748e-20)
(1.5327 0.274179 0)
(0.381912 -1.76285 6.54362e-19)
(0.0322147 -2.13856 -4.57568e-19)
(0.346301 -1.68213 -6.35427e-19)
(0.937973 -1.56901 7.11718e-19)
(0.219477 -1.40172 -5.36147e-19)
(0.397552 -1.69417 -4.70013e-19)
(0.164875 -1.06101 -6.0075e-19)
(0.429438 -1.30975 0)
(0.231078 -0.70618 -2.59588e-19)
(0.374227 -1.01894 -7.27286e-19)
(0.394147 -0.391559 5.1825e-19)
(0.453849 -0.683482 3.77788e-19)
(0.617068 -0.155413 4.17613e-20)
(0.601784 -0.404107 -1.18416e-20)
(0.852863 0.00010152 -5.75865e-20)
(0.792512 -0.193419 0)
(1.07183 0.089737 -8.75269e-20)
(0.988153 -0.0536144 2.61318e-20)
(1.25983 0.136182 -1.29881e-21)
(1.16606 0.0306765 7.91521e-22)
(1.30284 0.0742836 2.12813e-22)
(1.41462 0.157751 -3.59361e-19)
(0.823142 -1.71148 -5.3814e-19)
(0.48042 -1.95604 4.40836e-19)
(0.849729 -1.71551 -8.62182e-19)
(1.32511 -1.51898 -8.04331e-19)
(0.705573 -1.52209 2.15839e-20)
(0.831363 -1.70578 -1.68039e-19)
(0.596573 -1.27276 -4.77435e-20)
(0.853993 -1.38 1.45598e-19)
(0.568576 -0.985595 -1.10868e-19)
(0.731276 -1.19565 1.54736e-19)
(0.612867 -0.697346 -9.60012e-20)
(0.732389 -0.907301 8.42468e-20)
(0.730135 -0.447933 -3.96844e-20)
(0.781829 -0.65325 -1.55797e-19)
(0.886089 -0.254383 8.03711e-20)
(0.889074 -0.430421 0)
(1.05154 -0.118846 1.15543e-19)
(1.0202 -0.259806 -2.72201e-20)
(1.20625 -0.0305881 1.13038e-21)
(1.15306 -0.139673 -1.47689e-19)
(1.25857 -0.0654926 4.48608e-20)
(1.34028 0.0260768 -1.28968e-20)
(1.12997 -1.59072 -7.35297e-19)
(0.803844 -1.73806 2.17268e-18)
(1.20805 -1.65077 -1.0197e-18)
(1.5771 -1.43725 -1.77711e-18)
(1.07705 -1.51515 3.40415e-19)
(1.15818 -1.64912 -1.89366e-19)
(0.958264 -1.33769 3.22953e-19)
(1.18579 -1.34783 1.46651e-19)
(0.890753 -1.1211 3.20108e-19)
(1.03344 -1.25456 1.82604e-19)
(0.867698 -0.87737 -4.74565e-20)
(1.00712 -1.01257 1.14956e-19)
(0.905195 -0.646515 -1.33278e-19)
(0.990205 -0.799483 -1.20234e-19)
(0.986212 -0.446684 -7.80225e-20)
(1.03136 -0.590304 -2.69455e-20)
(1.09082 -0.289144 -2.43033e-19)
(1.102 -0.414133 -3.41408e-20)
(1.19959 -0.172829 -1.44983e-19)
(1.1866 -0.276774 -1.67086e-19)
(1.25676 -0.182782 1.59582e-19)
(1.29601 -0.0833243 4.85818e-19)
(1.34254 -1.46447 -2.7353e-19)
(1.0574 -1.54982 1.25251e-18)
(1.46067 -1.55412 -1.11092e-18)
(1.74855 -1.35809 -1.72497e-18)
(1.35135 -1.4561 0)
(1.39934 -1.56872 8.15953e-19)
(1.25169 -1.31089 -1.09795e-21)
(1.4524 -1.29433 0)
(1.167 -1.15137 -1.3578e-21)
(1.27186 -1.24078 1.18146e-19)
(1.10942 -0.957611 0)
(1.24225 -1.03679 -4.01906e-21)
(1.09521 -0.759051 -2.40138e-20)
(1.18927 -0.865928 9.426e-20)
(1.11924 -0.572997 1.77356e-20)
(1.18585 -0.681171 1.96921e-20)
(1.17113 -0.41394 2.71319e-20)
(1.20898 -0.514961 -3.56165e-20)
(1.23722 -0.286957 2.08043e-20)
(1.25197 -0.375566 -5.10955e-20)
(1.29046 -0.272532 1.92771e-19)
(1.3001 -0.18321 -7.98505e-20)
(1.50741 -1.35331 -6.60687e-19)
(1.25451 -1.37944 0)
(1.65443 -1.44602 -3.44526e-19)
(1.90472 -1.29573 -9.83393e-19)
(1.54892 -1.38438 9.05317e-19)
(1.56691 -1.45025 -2.03823e-19)
(1.46754 -1.26789 1.07339e-19)
(1.65895 -1.22829 2.61571e-19)
(1.3816 -1.133 1.28925e-19)
(1.4726 -1.19839 -5.76982e-21)
(1.31481 -0.974923 -1.05289e-21)
(1.43701 -1.02132 4.20209e-20)
(1.27241 -0.807167 1.2809e-19)
(1.36441 -0.881049 2.21559e-19)
(1.25842 -0.642051 -1.75213e-20)
(1.33303 -0.720119 -7.05472e-20)
(1.26978 -0.492441 -7.11516e-20)
(1.32205 -0.570023 -5.2426e-20)
(1.29765 -0.365795 3.42391e-20)
(1.33196 -0.436315 7.42961e-20)
(1.34353 -0.33202 5.6801e-20)
(1.32341 -0.250745 -5.62906e-20)
(1.64669 -1.25099 -2.21492e-19)
(1.39027 -1.23407 -1.90428e-19)
(1.80459 -1.35543 -1.1503e-18)
(2.04405 -1.20935 -3.0488e-19)
(1.71837 -1.2845 -6.04597e-19)
(1.72831 -1.35567 -8.10519e-19)
(1.64789 -1.1989 1.85915e-19)
(1.80949 -1.14868 5.01625e-19)
(1.55759 -1.08568 -7.50219e-20)
(1.63753 -1.13023 -5.81509e-19)
(1.48551 -0.954743 1.79548e-19)
(1.59767 -0.97886 -1.07469e-19)
(1.42698 -0.812217 5.49433e-20)
(1.51401 -0.862989 3.30488e-19)
(1.38884 -0.668038 -1.07554e-19)
(1.46488 -0.722838 -3.62479e-19)
(1.37155 -0.532403 5.0915e-20)
(1.43008 -0.590092 1.66392e-19)
(1.37171 -0.412578 6.3631e-20)
(1.41547 -0.466922 1.19453e-19)
(1.4072 -0.367785 0)
(1.3727 -0.297263 0)
(1.77011 -1.11968 -2.30254e-19)
(1.4726 -1.10443 -1.82766e-19)
(1.94047 -1.24917 1.35982e-19)
(2.13929 -1.0972 -1.301e-20)
(1.85388 -1.19004 3.98899e-19)
(1.85821 -1.24391 1.7894e-19)
(1.79152 -1.118 -1.69482e-19)
(1.93321 -1.06434 -2.69489e-19)
(1.70245 -1.02074 -5.84252e-19)
(1.77161 -1.05112 -2.3556e-19)
(1.62743 -0.910748 5.51059e-21)
(1.72944 -0.918762 3.16082e-19)
(1.55855 -0.788922 -1.93794e-20)
(1.63943 -0.822738 -2.09005e-19)
(1.50463 -0.663733 -1.71822e-19)
(1.57889 -0.700581 -2.20255e-19)
(1.46765 -0.543248 2.27063e-19)
(1.52733 -0.584957 3.75309e-19)
(1.44783 -0.433955 5.26354e-20)
(1.49486 -0.474601 -1.63584e-19)
(1.47333 -0.382492 -5.05871e-20)
(1.43092 -0.326651 0)
(1.84772 -1.00547 -1.54253e-20)
(1.53771 -0.990728 -5.26525e-21)
(2.04312 -1.14234 -1.27676e-20)
(2.22254 -0.993446 2.60598e-19)
(1.96657 -1.09075 -4.46253e-19)
(1.96172 -1.13682 0)
(1.90762 -1.03012 -4.56923e-19)
(2.03365 -0.971823 -2.53385e-19)
(1.82056 -0.945318 7.39325e-19)
(1.87983 -0.96581 -5.42309e-19)
(1.74432 -0.851361 1.50861e-19)
(1.83675 -0.847107 7.51124e-19)
(1.66863 -0.746625 -4.04639e-19)
(1.7425 -0.767529 -5.55374e-19)
(1.60388 -0.638432 2.15771e-19)
(1.67438 -0.660823 4.57552e-19)
(1.55273 -0.533174 8.1829e-20)
(1.61066 -0.561687 3.06794e-19)
(1.51716 -0.436769 -2.89461e-19)
(1.564 -0.465223 -3.02318e-19)
(1.52953 -0.38476 -5.07196e-20)
(1.48037 -0.33704 1.20002e-19)
(1.91277 -0.89044 2.33402e-19)
(1.59399 -0.874654 1.71399e-19)
(2.12551 -1.03727 2.90553e-19)
(2.29172 -0.881392 2.64237e-19)
(2.05718 -0.990924 2.2004e-19)
(2.04777 -1.03163 -7.74254e-19)
(2.00174 -0.93793 -3.14972e-19)
(2.11531 -0.875524 1.13763e-18)
(1.91598 -0.863059 -5.39806e-19)
(1.96692 -0.875974 -9.45849e-19)
(1.83912 -0.781898 1.79296e-19)
(1.92296 -0.768057 3.01551e-19)
(1.75851 -0.691544 2.22391e-19)
(1.82543 -0.702291 3.33923e-20)
(1.68587 -0.598649 5.63316e-19)
(1.7517 -0.609056 2.09781e-19)
(1.6239 -0.508446 5.36368e-20)
(1.67858 -0.525476 1.2171e-19)
(1.57673 -0.425637 -9.12007e-20)
(1.62111 -0.443762 -2.5226e-19)
(1.57337 -0.377586 1.00782e-19)
(1.53664 -0.348904 0)
(1.96336 -0.760403 2.11824e-19)
(1.61157 -0.737713 3.8572e-19)
(2.19071 -0.923621 -6.97033e-19)
(2.33033 -0.758904 -1.07103e-18)
(2.13072 -0.887469 1.21473e-19)
(2.11557 -0.921236 -1.3164e-19)
(2.07716 -0.842262 8.26969e-19)
(2.17738 -0.7773 8.90461e-19)
(1.99237 -0.775796 -1.14333e-19)
(2.03716 -0.781122 -5.81535e-19)
(1.91465 -0.705653 1.84053e-19)
(1.9901 -0.684471 4.34401e-19)
(1.83002 -0.627793 1.70288e-20)
(1.89075 -0.62946 3.33055e-19)
(1.75105 -0.54885 -2.19574e-19)
(1.8118 -0.549017 -4.61092e-19)
(1.68013 -0.473291 -1.23148e-19)
(1.73092 -0.479727 1.71205e-19)
(1.62214 -0.405547 -9.9474e-20)
(1.66396 -0.412375 -8.49784e-20)
(1.60823 -0.360996 6.33642e-21)
(1.56708 -0.338258 -1.1706e-19)
(1.98591 -0.634073 -7.51509e-19)
(1.62993 -0.609232 7.42355e-19)
(2.23451 -0.808915 -8.83516e-19)
(2.35115 -0.641191 -5.72219e-19)
(2.18694 -0.781883 7.0839e-19)
(2.169 -0.808694 2.97284e-23)
(2.13512 -0.743574 -3.64002e-19)
(2.22155 -0.678977 0)
(2.05174 -0.684173 -8.32157e-20)
(2.09247 -0.681561 1.87784e-19)
(1.97237 -0.62372 5.92423e-19)
(2.03953 -0.597576 -3.12749e-20)
(1.88431 -0.557046 -7.04202e-20)
(1.93986 -0.550381 1.58205e-19)
(1.7998 -0.491157 -1.55883e-19)
(1.85549 -0.482916 -4.74516e-19)
(1.72134 -0.429519 2.33244e-19)
(1.7683 -0.426796 1.59285e-19)
(1.65445 -0.376569 8.5206e-23)
(1.69274 -0.373941 1.7323e-19)
(1.62814 -0.335323 -1.00589e-19)
(1.59356 -0.331182 -7.50036e-20)
(1.99613 -0.508711 8.1526e-19)
(1.64144 -0.478923 -2.52241e-19)
(2.26174 -0.693509 2.52222e-19)
(2.3557 -0.520781 4.92171e-19)
(2.22779 -0.675119 -7.08019e-19)
(2.21029 -0.691487 1.04068e-19)
(2.17772 -0.642755 5.29834e-19)
(2.25097 -0.579379 -1.24819e-18)
(2.09569 -0.589364 2.16292e-19)
(2.13389 -0.578221 1.02292e-18)
(2.01402 -0.537571 -4.83715e-19)
(2.07303 -0.507575 -4.36902e-19)
(1.92272 -0.481328 -1.93343e-19)
(1.97344 -0.466722 0)
(1.83309 -0.427974 -2.37653e-19)
(1.88355 -0.412412 -1.6073e-19)
(1.74798 -0.37979 9.9358e-20)
(1.79121 -0.36881 1.83825e-20)
(1.67311 -0.340878 9.86785e-20)
(1.70829 -0.330195 8.90233e-20)
(1.63605 -0.30507 1.5077e-19)
(1.60569 -0.311017 -6.95718e-20)
(1.99606 -0.376206 -8.7627e-19)
(1.63368 -0.342352 6.52827e-21)
(2.27454 -0.571249 6.66343e-19)
(2.33849 -0.392329 -5.93694e-19)
(2.25493 -0.563992 -4.61319e-19)
(2.23566 -0.566335 8.03596e-19)
(2.20648 -0.538422 -1.06392e-18)
(2.26547 -0.475791 -1.16512e-18)
(2.12516 -0.491356 4.77674e-19)
(2.16076 -0.470881 4.42957e-19)
(2.04049 -0.447827 0)
(2.09133 -0.414111 0)
(1.94597 -0.402021 5.01559e-20)
(1.99162 -0.379787 0)
(1.85174 -0.361026 6.24054e-20)
(1.89668 -0.338931 4.11728e-21)
(1.76111 -0.325983 0)
(1.80042 -0.307776 8.18639e-21)
(1.67924 -0.300077 1.34361e-19)
(1.71198 -0.28257 4.97792e-21)
(1.63111 -0.270681 8.58107e-20)
(1.6066 -0.287277 1.45109e-19)
(1.97806 -0.238377 8.12697e-20)
(1.61336 -0.202807 7.67714e-19)
(2.26873 -0.441088 -5.9075e-19)
(2.30049 -0.256256 -5.93262e-19)
(2.2661 -0.446575 1.39097e-19)
(2.24233 -0.432268 5.63939e-22)
(2.22047 -0.429002 9.25084e-20)
(2.26361 -0.365902 6.26694e-19)
(2.13965 -0.389611 1.34892e-20)
(2.17094 -0.359145 -4.25145e-19)
(2.05165 -0.354876 0)
(2.0937 -0.316932 0)
(1.95421 -0.320339 -4.50081e-20)
(1.99376 -0.29088 0)
(1.85643 -0.291971 -4.87908e-20)
(1.89526 -0.264054 -5.76003e-20)
(1.76195 -0.269896 1.35508e-20)
(1.79696 -0.245709 -6.86608e-22)
(1.67487 -0.255818 -4.59623e-20)
(1.70557 -0.232858 -3.62813e-20)
(1.62055 -0.233585 -2.98326e-20)
(1.60359 -0.253306 -3.40025e-20)
(1.9421 -0.0947539 -2.30786e-20)