/*--------------------------------*- C++ -*----------------------------------*\
| =========                 |                                                 |
| \\      /  F ield         | OpenFOAM: The Open Source CFD Toolbox           |
|  \\    /   O peration     | Version:  3.0.1                                 |
|   \\  /    A nd           | Web:      www.OpenFOAM.org                      |
|    \\/     M anipulation  |                                                 |
\*---------------------------------------------------------------------------*/
FoamFile
{
    version     2.0;
    format      ascii;
    class       surfaceVectorField;
    location    "0.397009";
    object      Uf;
}
// * * * * * * * * * * * * * * * * * * * * * * * * * * * * * * * * * * * * * //

dimensions      [0 1 -1 0 0 0 0];

internalField   nonuniform List<vector> 
32369
(
(6.95911 -2.82957 -4.2057e-21)
(5.97497 -3.48632 1.38501e-18)
(7.99608 -1.50456 -4.32717e-21)
(6.25462 -2.29002 -6.61635e-20)
(5.74905 -3.13075 -3.7259e-19)
(6.40431 -1.30015 -3.79745e-20)
(5.88468 -1.89331 -4.56754e-22)
(5.60154 -2.61254 -5.42711e-19)
(6.01799 -1.33016 -7.56087e-19)
(5.56576 -1.54098 -3.8527e-20)
(5.42965 -2.144 0)
(5.82698 -1.22226 2.07516e-19)
(5.25336 -1.24946 -3.80497e-20)
(5.21579 -1.74242 -8.08651e-20)
(5.53434 -1.04304 4.41148e-19)
(4.96374 -1.02954 1.44446e-20)
(4.97487 -1.41712 -1.00172e-19)
(5.1893 -0.869338 -2.88339e-19)
(4.69949 -0.85651 3.30244e-21)
(4.73355 -1.16266 1.61856e-19)
(4.88968 -0.725532 7.83152e-20)
(4.45762 -0.720331 1.5772e-20)
(4.50263 -0.963412 -5.66756e-20)
(4.61648 -0.60501 9.66681e-21)
(4.23789 -0.612721 1.96833e-20)
(4.28667 -0.806228 6.31795e-20)
(4.37177 -0.509994 2.85542e-20)
(4.03849 -0.528295 4.93878e-20)
(4.08752 -0.682791 1.22367e-20)
(4.15196 -0.436239 -2.67686e-20)
(3.90624 -0.59832 1.03922e-20)
(3.95907 -0.391547 7.12709e-20)
(3.82636 -0.471469 3.63255e-20)
(4.77432 -4.06529 4.84253e-19)
(3.74718 -4.04693 -2.3292e-18)
(5.00432 -3.41992 -6.31171e-19)
(4.25745 -3.73751 -1.40155e-19)
(5.09412 -2.84186 -5.42552e-19)
(4.57243 -3.29933 -4.6187e-19)
(5.05851 -2.33179 4.17619e-20)
(4.72183 -2.81478 -8.69841e-19)
(4.93159 -1.90014 -4.01103e-20)
(4.73623 -2.35276 7.10663e-19)
(4.75144 -1.55102 3.46966e-21)
(4.65333 -1.94391 2.67875e-19)
(4.55031 -1.27543 1.27654e-19)
(4.51259 -1.60144 -1.34487e-19)
(4.34698 -1.05966 -2.09419e-20)
(4.34458 -1.32415 -5.90831e-20)
(4.15142 -0.890866 6.03893e-20)
(4.16885 -1.10269 1.64515e-20)
(3.96895 -0.757724 -4.03816e-20)
(3.9954 -0.927878 1.18493e-20)
(3.83147 -0.800287 -6.36174e-20)
(3.78193 -0.655807 -6.49443e-19)
(3.3663 -3.93694 -3.56639e-18)
(2.53817 -3.7092 -6.01463e-18)
(3.83472 -3.69109 4.53483e-21)
(3.13434 -3.63756 2.1005e-18)
(4.16337 -3.3091 -7.38981e-19)
(3.57801 -3.45862 -1.54937e-18)
(4.35846 -2.866 -3.20576e-19)
(3.90293 -3.13137 -8.09441e-19)
(4.42867 -2.42086 1.02359e-18)
(4.10276 -2.74125 6.20287e-19)
(4.3988 -2.01496 1.69328e-19)
(4.18445 -2.34123 3.4807e-19)
(4.30213 -1.66882 -3.08456e-19)
(4.17276 -1.96937 -2.65108e-19)
(4.16849 -1.38533 -4.94028e-20)
(4.09769 -1.64612 -1.40063e-21)
(4.01954 -1.15897 -5.39556e-20)
(3.9874 -1.37546 -2.28005e-19)
(3.86976 -0.981917 0)
(3.86097 -1.15491 2.85132e-19)
(3.72804 -0.986738 0)
(3.70503 -0.841424 -1.11376e-19)
(2.45727 -3.44477 -1.254e-18)
(1.99339 -3.30188 -2.85268e-18)
(2.93344 -3.48583 7.04391e-19)
(2.44249 -3.32044 2.02202e-18)
(3.34489 -3.33718 -1.67367e-18)
(2.81462 -3.30176 -1.4963e-18)
(3.65007 -3.0553 -4.50048e-21)
(3.18068 -3.14933 0)
(3.84856 -2.70349 -5.59713e-21)
(3.46885 -2.89108 1.84268e-19)
(3.94656 -2.33049 3.9215e-21)
(3.65789 -2.56505 0)
(3.9625 -1.97519 1.00292e-20)
(3.75374 -2.21989 4.36752e-21)
(3.91973 -1.65971 -1.50921e-19)
(3.77236 -1.89366 5.71997e-21)
(3.83901 -1.39374 4.83235e-20)
(3.73988 -1.60207 -1.13069e-19)
(3.73439 -1.17824 3.14642e-19)
(3.67693 -1.35166 -4.04545e-19)
(3.59269 -1.14955 2.37257e-20)
(3.60432 -1.00502 7.0487e-19)
(2.03558 -3.13322 -8.88358e-20)
(1.78777 -3.03206 -1.18021e-18)
(2.31453 -3.18315 0)
(2.08086 -3.02825 0)
(2.65516 -3.15359 0)
(2.31278 -3.06005 0)
(3.00161 -3.02908 1.67333e-19)
(2.61578 -3.00551 0)
(3.28385 -2.79685 2.07685e-19)
(2.90268 -2.85594 1.59118e-19)
(3.47306 -2.49772 0)
(3.14566 -2.62313 0)
(3.57271 -2.17579 0)
(3.31714 -2.34027 7.26338e-19)
(3.60063 -1.86589 5.20268e-20)
(3.41533 -2.04476 -5.43404e-19)
(3.58022 -1.58544 -5.58251e-19)
(3.45219 -1.759 5.16782e-19)
(3.53251 -1.33956 -7.98479e-19)
(3.44418 -1.49814 -9.38382e-19)
(3.40409 -1.27776 2.33586e-20)
(3.44932 -1.12029 5.24552e-19)
(1.84506 -2.88301 -1.20451e-18)
(1.65411 -2.78973 -1.08978e-18)
(2.02903 -2.92618 0)
(1.87731 -2.77078 0)
(2.25157 -2.92724 0)
(2.03239 -2.81313 0)
(2.50339 -2.86157 -5.01692e-22)
(2.25714 -2.78992 0)
(2.7532 -2.71813 -6.21543e-22)
(2.49418 -2.70213 -5.12192e-19)
(2.97357 -2.50463 6.4277e-19)
(2.72012 -2.54339 0)
(3.14186 -2.24522 2.75285e-19)
(2.91179 -2.32809 1.44521e-18)
(3.25032 -1.96856 -1.64811e-19)
(3.05503 -2.07995 -1.58925e-18)
(3.30355 -1.69921 3.06812e-19)
(3.14737 -1.82252 8.63328e-19)
(3.31449 -1.45382 -2.67735e-19)
(3.19376 -1.57614 4.61534e-19)
(3.19709 -1.36129 -3.35446e-19)
(3.2838 -1.22884 0)
(1.70588 -2.65422 0)
(1.55018 -2.58459 -1.03135e-20)
(1.8467 -2.67256 0)
(1.72317 -2.53709 2.03321e-18)
(2.02013 -2.67929 0)
(1.84413 -2.57059 -1.30549e-18)
(2.21903 -2.64369 -4.5939e-19)
(2.01964 -2.55471 0)
(2.42815 -2.55019 -5.68183e-19)
(2.21071 -2.49506 7.9396e-19)
(2.62833 -2.39741 6.45775e-19)
(2.40626 -2.38298 -4.88071e-19)
(2.80169 -2.19687 -1.83336e-19)
(2.58959 -2.22249 7.22716e-19)
(2.93621 -1.96811 -7.88539e-19)
(2.74616 -2.02647 -1.04484e-18)
(3.02785 -1.7317 1.03562e-18)
(2.86768 -1.81114 3.73606e-19)
(3.07928 -1.50489 5.00507e-19)
(2.95148 -1.59504 -2.72458e-20)
(2.99413 -1.40186 -3.32301e-19)
(3.08403 -1.29181 1.99847e-19)
(1.58937 -2.45202 1.73266e-18)
(1.44947 -2.4053 -6.06472e-19)
(1.69703 -2.44937 9.90459e-19)
(1.60351 -2.33959 3.87363e-18)
(1.83863 -2.44945 -1.44106e-18)
(1.70015 -2.3559 -2.0107e-18)
(2.00106 -2.42095 1.13792e-18)
(1.84412 -2.3398 0)
(2.17605 -2.35231 9.56215e-19)
(2.00308 -2.29211 6.73414e-19)
(2.35304 -2.23933 -5.39793e-19)
(2.17077 -2.20589 -4.87656e-19)
(2.51954 -2.08617 0)
(2.33716 -2.08194 6.57144e-19)
(2.66398 -1.9037 0)
(2.49136 -1.92679 -4.97882e-19)
(2.77893 -1.70623 -6.39262e-19)
(2.62469 -1.7499 6.17418e-21)
(2.86324 -1.50787 -7.99801e-19)
(2.72986 -1.56478 3.92455e-20)
(2.79541 -1.39369 0)
(2.90793 -1.30655 -4.20762e-19)
(1.48713 -2.27478 9.11172e-19)
(1.36233 -2.23941 -7.95433e-19)
(1.57682 -2.25465 1.31625e-18)
(1.50125 -2.15964 2.39196e-18)
(1.6964 -2.24661 -7.77584e-19)
(1.58208 -2.1655 1.70484e-19)
(1.83361 -2.21856 -5.2335e-19)
(1.70502 -2.14664 -6.82898e-19)
(1.98323 -2.1611 -6.45512e-19)
(1.84126 -2.10376 -5.65707e-19)
(2.13912 -2.07094 5.8693e-19)
(1.98741 -2.03175 4.01241e-19)
(2.29324 -1.94959 2.54536e-19)
(2.13735 -1.93083 6.57082e-19)
(2.43663 -1.80264 -5.46375e-19)
(2.28356 -1.80451 -9.44231e-19)
(2.56161 -1.63867 6.83096e-19)
(2.41898 -1.65791 3.11844e-19)
(2.66438 -1.46806 8.00956e-19)
(2.53552 -1.49961 7.14547e-19)
(2.61782 -1.34679 2.8648e-19)
(2.73798 -1.2912 0)
(1.40831 -2.11435 2.01537e-19)
(1.29933 -2.09853 -8.44402e-19)
(1.47996 -2.08036 1.39731e-18)
(1.41898 -2.00049 1.0606e-18)
(1.58179 -2.06577 3.65136e-19)
(1.48413 -1.99552 8.79745e-19)
(1.70001 -2.03638 -7.40715e-19)
(1.59069 -1.97228 -2.06405e-19)
(1.83041 -1.98412 3.76177e-19)
(1.7097 -1.93038 -9.53634e-19)
(1.96908 -1.90681 4.44056e-19)
(1.83929 -1.86587 3.87659e-19)
(2.11073 -1.80543 -3.98736e-19)
(1.97549 -1.77907 -5.6811e-19)
(2.24864 -1.68305 -1.80972e-19)
(2.11292 -1.67226 -1.49683e-20)
(2.37589 -1.54427 3.54893e-19)
(2.24617 -1.54806 5.96002e-19)
(2.48669 -1.39526 2.74255e-19)
(2.36778 -1.41219 2.25139e-19)
(2.46033 -1.28118 2.81609e-19)
(2.56776 -1.23326 -3.87277e-19)
(1.34202 -1.97744 -3.44254e-19)
(1.24692 -1.98223 -5.10683e-19)
(1.39816 -1.92566 5.59391e-19)
(1.34411 -1.86207 6.25818e-19)
(1.48551 -1.90304 4.30564e-19)
(1.39815 -1.84362 5.52372e-19)
(1.58894 -1.87031 -3.403e-19)
(1.49279 -1.81362 3.38583e-19)
(1.70464 -1.81957 -1.08094e-18)
(1.59897 -1.76965 -5.208e-19)
(1.82989 -1.74932 -5.20159e-19)
(1.71614 -1.70812 1.67842e-19)
(1.96098 -1.66057 -2.30032e-19)
(1.84161 -1.6296 -1.36152e-18)
(2.09276 -1.55541 7.32078e-19)
(1.97146 -1.53589 4.46618e-19)
(2.21932 -1.43692 4.77693e-19)
(2.10166 -1.42846 7.2702e-22)
(2.33573 -1.31005 2.27515e-19)
(2.22542 -1.31091 6.10021e-19)
(2.32244 -1.19691 -3.06794e-19)
(2.43324 -1.17143 -9.95709e-19)
(1.27025 -1.85639 2.6755e-19)
(1.18648 -1.8614 5.06868e-19)
(1.31911 -1.78567 6.26405e-19)
(1.26666 -1.72874 -3.29276e-19)
(1.39812 -1.75384 4.90051e-19)
(1.31662 -1.70021 3.8042e-19)
(1.49193 -1.71604 2.53136e-19)
(1.40418 -1.66417 -2.72355e-19)
(1.59746 -1.66421 6.63174e-19)
(1.50192 -1.61713 2.41903e-19)
(1.71304 -1.59729 -5.15299e-19)
(1.61065 -1.55614 3.45041e-19)
(1.83618 -1.51642 -8.56783e-19)
(1.72869 -1.48222 -9.12749e-19)
(1.96297 -1.42331 -2.17788e-19)
(1.85314 -1.3972 -3.42606e-19)
(2.08851 -1.3199 4.26983e-20)
(1.98101 -1.30202 1.37983e-19)
(2.20825 -1.20926 2.20051e-19)
(2.10667 -1.19846 3.94709e-19)
(2.21011 -1.09599 -4.20174e-19)
(2.31494 -1.08776 -2.11764e-19)
(1.19972 -1.73429 2.87869e-20)
(1.12887 -1.73933 -1.01105e-19)
(1.24308 -1.65002 -6.54087e-19)
(1.19428 -1.59684 -1.46566e-19)
(1.3165 -1.61106 -3.14104e-19)
(1.24043 -1.56031 -1.78433e-19)
(1.40402 -1.56843 -3.39831e-19)
(1.32244 -1.51911 -2.13382e-21)
(1.50296 -1.51443 -9.00919e-20)
(1.41441 -1.46877 -1.24245e-19)
(1.61234 -1.44859 7.94919e-20)
(1.51789 -1.40698 4.62657e-19)
(1.73051 -1.37241 -4.49167e-19)
(1.63162 -1.33539 -2.29191e-19)
(1.85438 -1.28744 -1.35062e-20)
(1.75321 -1.25614 4.7043e-20)
(1.97976 -1.1945 4.60794e-19)
(1.8801 -1.16988 6.17484e-20)
(2.10249 -1.09356 -1.13172e-19)
(2.00737 -1.07667 2.57468e-19)
(2.11384 -0.98364 3.52717e-19)
(2.21335 -0.973384 -1.0103e-19)
(1.14022 -1.61595 -2.7156e-19)
(1.07961 -1.64099 3.97761e-20)
(1.17404 -1.51775 3.38115e-19)
(1.12647 -1.47567 3.07504e-19)
(1.24097 -1.47153 1.16831e-19)
(1.16855 -1.42565 0)
(1.32324 -1.42382 2.2758e-19)
(1.24626 -1.37691 1.30187e-19)
(1.41783 -1.36689 3.68427e-19)
(1.33457 -1.32184 1.95805e-21)
(1.52382 -1.30074 2.25381e-19)
(1.43545 -1.25792 2.96173e-19)
(1.63978 -1.22735 2.40184e-19)
(1.54775 -1.18719 -1.59127e-19)
(1.76287 -1.14845 1.23577e-19)
(1.66908 -1.1122 3.28654e-19)
(1.88878 -1.06456 -1.46569e-19)
(1.79678 -1.03379 -3.57629e-19)
(2.01285 -0.975791 7.11028e-19)
(1.9264 -0.951206 1.41302e-19)
(2.0357 -0.869157 4.67056e-19)
(2.12817 -0.876252 -1.05916e-19)
(1.07268 -1.50493 5.54638e-19)
(1.02613 -1.5281 5.06154e-19)
(1.10392 -1.38871 0)
(1.05511 -1.34861 7.32319e-19)
(1.1682 -1.33308 0)
(1.09756 -1.28813 -2.93749e-19)
(1.24803 -1.27911 -8.38691e-20)
(1.1739 -1.23251 2.14262e-19)
(1.3409 -1.21829 -1.03226e-19)
(1.26122 -1.17234 -4.22774e-19)
(1.44625 -1.15088 -4.34296e-20)
(1.36234 -1.10561 1.25636e-19)
(1.56275 -1.07937 -1.24248e-19)
(1.47617 -1.03512 1.90152e-19)
(1.68743 -1.00583 -8.74853e-20)
(1.60001 -0.964039 -2.16215e-19)
(1.81569 -0.93048 -1.04877e-19)
(1.73049 -0.893407 0)
(1.94277 -0.852067 -1.38288e-19)
(1.86337 -0.821441 -1.42315e-20)
(1.97677 -0.750316 -5.83121e-20)
(2.06197 -0.762819 -2.60826e-19)
(1.00469 -1.3859 6.75657e-19)
(0.97654 -1.40485 4.54317e-19)
(1.03455 -1.25461 5.2633e-19)
(0.986903 -1.21402 7.37085e-19)
(1.09802 -1.1906 -1.31128e-19)
(1.03021 -1.14442 -2.54185e-19)
(1.17761 -1.13034 -5.97908e-20)
(1.10594 -1.0822 4.09634e-19)
(1.27137 -1.06518 -2.50395e-19)
(1.19424 -1.01664 -5.1579e-19)
(1.37904 -0.99612 3.53845e-19)
(1.29846 -0.946793 1.2608e-19)
(1.49909 -0.926478 1.41245e-19)
(1.41707 -0.876693 1.51035e-19)
(1.62788 -0.858781 -1.52359e-19)
(1.54638 -0.810388 -1.3514e-19)
(1.75994 -0.79286 9.25649e-20)
(1.68148 -0.749023 4.29767e-20)
(1.88992 -0.726126 7.95167e-20)
(1.81815 -0.689425 -8.90724e-21)
(1.93416 -0.629919 3.48321e-20)
(2.01252 -0.647839 -3.61622e-20)
(0.946624 -1.26114 5.01718e-19)
(0.930495 -1.29409 3.98729e-19)
(0.970914 -1.11458 4.1666e-20)
(0.920827 -1.08123 -6.97712e-20)
(1.03234 -1.04157 2.18764e-19)
(0.966022 -0.996496 8.55514e-21)
(1.11255 -0.974244 4.66711e-20)
(1.04254 -0.924459 3.69331e-19)
(1.20956 -0.904166 -2.05591e-19)
(1.13445 -0.851711 -2.86541e-19)
(1.32279 -0.833509 -8.04858e-20)
(1.24536 -0.778239 8.48065e-20)
(1.44971 -0.766763 -9.66843e-20)
(1.37252 -0.709575 -1.23605e-19)
(1.58509 -0.70684 4.10642e-20)
(1.51028 -0.650467 1.38451e-19)
(1.72197 -0.652715 -5.34562e-20)
(1.6513 -0.601512 8.77038e-20)
(1.85416 -0.599964 -5.86504e-20)
(1.79136 -0.557541 -1.48145e-19)
(1.90852 -0.512952 8.61686e-20)
(1.97677 -0.537062 -1.08909e-18)
(0.885021 -1.13616 -1.23325e-19)
(0.886587 -1.17066 2.96557e-19)
(0.907561 -0.969801 -1.11324e-19)
(0.853632 -0.938646 -2.61625e-22)
(0.969709 -0.884219 1.2115e-19)
(0.904445 -0.837259 -3.16493e-20)
(1.05358 -0.807501 1.00084e-19)
(0.98495 -0.753532 9.95014e-20)
(1.15765 -0.731552 -3.38073e-20)
(1.08479 -0.672419 -9.46262e-20)
(1.28066 -0.660074 6.40824e-20)
(1.20716 -0.596038 1.0433e-19)
(1.41803 -0.598733 8.42182e-20)
(1.34693 -0.531747 -4.005e-20)
(1.56201 -0.550131 1.9157e-19)
(1.49538 -0.484425 5.04856e-20)
(1.70373 -0.511493 1.78679e-20)
(1.6423 -0.452771 -2.03938e-20)
(1.83775 -0.475434 -3.95588e-20)
(1.78439 -0.427635 4.17875e-20)
(1.901 -0.399659 1.5009e-20)
(1.96108 -0.429837 -5.40366e-19)
(0.823237 -1.00013 4.54271e-19)
(0.84726 -1.03191 4.30827e-19)
(0.845903 -0.812979 8.67204e-20)
(0.78762 -0.781304 -5.88093e-20)
(0.911949 -0.712356 -6.62018e-20)
(0.849186 -0.660299 0)
(1.00384 -0.624914 -7.50763e-20)
(0.938479 -0.563248 -7.34949e-20)
(1.12034 -0.543397 2.11959e-20)
(1.05267 -0.473698 -5.02374e-21)
(1.25804 -0.473819 1.28704e-20)
(1.19263 -0.397811 -4.78918e-20)
(1.40887 -0.422723 -8.18987e-20)
(1.34886 -0.344044 4.8793e-20)
(1.5617 -0.390995 -1.49247e-19)
(1.50818 -0.315605 -1.09854e-19)
(1.70704 -0.372434 -7.29047e-21)
(1.65822 -0.306348 -1.05913e-19)
(1.83945 -0.355786 8.8867e-20)
(1.79717 -0.303841 1.34551e-19)
(1.91065 -0.292208 1.85166e-20)
(1.96172 -0.327533 -1.38363e-20)
(0.764834 -0.846192 -9.76465e-20)
(0.816576 -0.87392 -1.42878e-19)
(0.789969 -0.637678 -1.49687e-19)
(0.727091 -0.604484 -2.00744e-20)
(0.86534 -0.518836 0)
(0.807406 -0.456428 -4.02907e-20)
(0.972213 -0.419707 -8.41916e-21)
(0.913416 -0.345962 -4.06423e-21)
(1.10879 -0.335588 -6.83608e-20)
(1.05172 -0.251304 -6.30174e-21)
(1.26709 -0.274717 -2.33707e-20)
(1.21615 -0.184042 -6.12193e-20)
(1.43264 -0.242431 3.81256e-20)
(1.38972 -0.152008 -3.23678e-20)
(1.59108 -0.235 -7.23572e-20)
(1.55536 -0.151996 1.30008e-20)
(1.73342 -0.240877 9.01516e-21)
(1.70115 -0.170881 7.20077e-20)
(1.85727 -0.245014 7.88143e-20)
(1.82815 -0.192789 2.64157e-20)
(1.93171 -0.20048 3.35522e-21)
(1.96643 -0.235417 1.12194e-19)
(0.713807 -0.671563 -5.35326e-20)
(0.800566 -0.681976 -1.78807e-19)
(0.746724 -0.433059 8.86129e-20)
(0.671354 -0.388686 1.1032e-19)
(0.83888 -0.294011 -4.77364e-20)
(0.793741 -0.217345 5.42434e-21)
(0.973487 -0.186366 -1.02664e-21)
(0.933862 -0.0938433 -6.36535e-21)
(1.13998 -0.108909 6.77277e-21)
(1.10633 -0.00674603 1.43369e-20)
(1.3213 -0.0694823 -5.49238e-20)
(1.29632 0.0345157 2.65219e-20)
(1.49697 -0.0675469 -5.30305e-20)
(1.47978 0.0298891 -1.41824e-19)
(1.6522 -0.0915158 1.41253e-19)
(1.63976 -0.00712683 3.91978e-20)
(1.78226 -0.124465 8.37082e-20)
(1.76965 -0.0564927 9.30933e-20)
(1.8901 -0.149723 -4.14114e-20)
(1.87529 -0.100942 2.22876e-20)
(1.9619 -0.126058 -4.28086e-20)
(1.98462 -0.152948 -3.356e-19)
(0.663457 -0.432186 8.58205e-20)
(0.82315 -0.449539 7.49662e-20)
(0.733686 -0.183376 5.46389e-20)
(0.700425 -0.123501 3.19361e-20)
(0.862717 -0.0290146 6.58406e-20)
(0.853032 0.0679344 5.62074e-20)
(1.03894 0.0726123 4.19713e-21)
(1.043 0.18341 6.21304e-20)
(1.23921 0.123497 -4.75652e-21)
(1.24945 0.236004 6.07529e-20)
(1.4359 0.123358 -3.52483e-20)
(1.45038 0.228157 -2.06102e-19)
(1.60715 0.0841969 -4.36462e-20)
(1.62295 0.175078 3.90108e-20)
(1.74433 0.025945 -6.24276e-22)
(1.75819 0.100182 4.36704e-21)
(1.85056 -0.0321176 5.19006e-20)
(1.85856 0.0254079 -5.8461e-20)
(1.93445 -0.0750347 6.68484e-21)
(1.93409 -0.0346614 6.38004e-20)
(1.9965 -0.0701044 -1.21245e-19)
(2.00549 -0.0971979 6.91836e-20)
(0.691181 -0.271857 2.76146e-20)
(1.03018 -0.0683387 1.16823e-19)
(0.768857 0.0788594 2.35325e-20)
(0.746729 0.226672 -5.98898e-22)
(0.973374 0.242563 9.58698e-21)
(1.10804 0.370335 -1.86605e-20)
(1.20359 0.314729 1.11321e-19)
(1.32119 0.416903 2.12129e-19)
(1.42561 0.315403 -1.39906e-19)
(1.51684 0.401592 -5.77878e-20)
(1.61328 0.263697 -3.98963e-20)
(1.68328 0.335946 -2.45037e-19)
(1.75645 0.184091 1.55237e-19)
(1.81044 0.243928 2.56143e-19)
(1.85884 0.0994668 -4.43969e-20)
(1.89964 0.147582 1.43376e-19)
(1.93108 0.025795 -3.26732e-20)
(1.95918 0.0627318 3.011e-20)
(1.98467 -0.0257555 -6.41354e-20)
(1.99801 -0.00109199 9.502e-22)
(2.02964 -0.037111 -3.38492e-20)
(2.03796 -0.0435016 3.35855e-20)
(1.06807 0.636147 9.83467e-20)
(2.74502 0.62701 -6.16584e-18)
(1.33444 0.642841 1.2418e-20)
(1.40202 0.161738 -2.38863e-20)
(1.5135 0.634481 1.52163e-19)
(1.53113 0.219524 -1.12788e-18)
(1.67689 0.564096 9.0025e-20)
(1.68355 0.279766 1.75387e-18)
(1.80879 0.461818 -1.66706e-19)
(1.81537 0.27786 -2.67493e-19)
(1.90216 0.343798 6.2644e-20)
(1.92026 0.229355 -6.73375e-20)
(1.96276 0.227341 2.31634e-19)
(1.99512 0.16081 -2.47433e-20)
(2.00048 0.125948 1.59583e-19)
(2.03948 0.0901186 -8.38442e-20)
(2.0233 0.0453556 6.50927e-20)
(2.06118 0.0265584 6.07755e-20)
(2.03618 -0.00610507 2.46747e-20)
(2.0611 -0.0221288 5.73345e-21)
(2.05622 -0.0384788 3.07269e-20)
(2.05412 -0.0248337 4.15688e-20)
(5.52524 -0.50433 0)
(5.37723 -1.55863 0)
(5.91393 -0.824843 -6.47873e-19)
(4.71451 -0.643147 4.03763e-20)
(5.99464 -0.836823 -1.57778e-18)
(5.33656 -0.465537 -2.88176e-19)
(5.86014 -0.766162 5.06449e-19)
(5.67576 -0.424819 7.47806e-19)
(5.57396 -0.681174 5.33152e-19)
(5.65231 -0.364084 -4.61683e-19)
(5.21502 -0.586927 -1.63938e-19)
(5.4154 -0.305633 1.14787e-19)
(4.87219 -0.48743 4.94362e-21)
(5.10944 -0.271241 2.60627e-19)
(4.57941 -0.408127 5.06704e-20)
(4.76681 -0.234197 -1.38392e-19)
(4.32504 -0.348646 -5.16857e-20)
(4.47012 -0.201369 8.13893e-20)
(4.09836 -0.308879 5.64415e-20)
(4.2119 -0.176371 -2.60897e-20)
(3.98612 -0.171277 2.39874e-20)
(3.87981 -0.301133 1.27014e-19)
(3.67434 -1.30231 3.09984e-20)
(3.42778 -3.24624 -7.37765e-19)
(4.44663 -0.658074 1.58483e-19)
(3.49837 -1.72585 -7.59866e-19)
(5.00829 -0.356565 7.75985e-19)
(4.31558 -0.788456 6.1067e-19)
(5.36127 -0.21298 -1.89885e-19)
(4.91258 -0.319817 4.83157e-19)
(5.46864 -0.133074 -6.85338e-19)
(5.23683 -0.0379108 -8.01642e-19)
(5.33776 -0.0906238 4.74082e-19)
(5.31014 0.118842 3.32378e-19)
(5.04699 -0.0713091 1.51117e-19)
(5.18188 0.172337 -1.93513e-19)
(4.7047 -0.0612519 -2.23528e-19)
(4.88323 0.171147 -1.37459e-19)
(4.39884 -0.0531421 1.14162e-19)
(4.54953 0.140966 -5.83698e-20)
(4.1373 -0.0546343 3.39017e-21)
(4.24627 0.112646 1.14435e-19)
(3.99822 0.0790756 -8.37636e-20)
(3.88164 -0.084204 2.90408e-21)
(3.15587 -3.39969 -1.4282e-18)
(3.02575 -4.8988 -2.96306e-19)
(3.57787 -1.78199 -2.00171e-19)
(3.17649 -3.30778 -7.44127e-19)
(4.15408 -0.804202 3.54161e-19)
(3.66215 -1.81829 1.53916e-18)
(4.67797 -0.228265 1.64556e-19)
(4.20295 -0.821336 -6.40746e-19)
(5.02762 0.119211 1.69116e-19)
(4.66693 -0.142 3.32428e-19)
(5.14899 0.300087 -6.14181e-19)
(4.95455 0.285651 -5.70036e-20)
(5.04586 0.355486 -6.91611e-19)
(5.02683 0.499721 1.49517e-19)
(4.77432 0.333859 -1.38442e-19)
(4.87289 0.556213 -2.22716e-19)
(4.44574 0.283195 -1.96642e-19)
(4.57957 0.511274 1.00994e-20)
(4.14533 0.236173 4.96135e-20)
(4.25296 0.434995 1.12423e-19)
(3.98188 0.35292 5.81994e-20)
(3.88064 0.182769 -1.50142e-19)
(3.16439 -4.99212 -3.78276e-19)
(3.20161 -5.67764 -8.16802e-20)
(3.3022 -3.36501 5.62387e-19)
(3.14598 -4.6432 -1.98655e-18)
(3.67657 -1.83728 7.63821e-19)
(3.33768 -3.04662 9.12754e-19)
(4.13351 -0.758159 -5.53053e-19)
(3.74197 -1.64487 2.1873e-19)
(4.5427 -0.0185891 1.64301e-19)
(4.1821 -0.583146 1.47174e-19)
(4.80537 0.440622 7.54327e-19)
(4.54307 0.173512 -3.31472e-19)
(4.86568 0.664473 7.51628e-19)
(4.74216 0.640259 3.05032e-19)
(4.72176 0.708208 -1.39938e-19)
(4.72688 0.852386 -7.49621e-20)
(4.44122 0.644533 1.8285e-19)
(4.52442 0.865619 5.5223e-20)
(4.12701 0.545333 1.27153e-19)
(4.21662 0.772689 2.50237e-19)
(3.92406 0.64528 4.24044e-19)
(3.83582 0.422127 -4.64017e-19)
(3.20482 -5.51411 -1.67982e-18)
(3.31373 -5.89464 -2.68268e-18)
(3.1829 -4.50205 -2.00117e-18)
(3.23688 -5.34635 -1.75041e-18)
(3.3936 -2.9643 3.69486e-19)
(3.23499 -4.20546 1.11527e-18)
(3.75195 -1.5453 9.33929e-19)
(3.45909 -2.64442 1.6804e-18)
(4.13287 -0.445334 -2.93655e-19)
(3.81807 -1.25284 -6.13003e-19)
(4.43812 0.332574 -8.51047e-19)
(4.16795 -0.166621 -2.94993e-19)
(4.59198 0.801697 -4.66226e-19)
(4.41551 0.59095 -5.3968e-19)
(4.55664 0.997175 6.28382e-20)
(4.49038 1.02287 1.43311e-19)
(4.35333 0.989085 1.00833e-19)
(4.3772 1.16449 1.28145e-19)
(4.06036 0.87398 5.24797e-19)
(4.11918 1.10574 4.72076e-20)
(3.82231 0.955547 1.39184e-19)
(3.75345 0.690053 7.67894e-19)
(3.35776 -5.79753 -2.88957e-18)
(3.43749 -6.13457 -2.54402e-19)
(3.26956 -5.19794 1.12368e-18)
(3.41001 -5.67632 -1.52719e-18)
(3.30421 -4.04875 2.31542e-18)
(3.31832 -4.97436 1.42809e-18)
(3.51385 -2.47995 4.34456e-19)
(3.35216 -3.65226 7.34549e-19)
(3.81578 -1.07187 -6.85609e-19)
(3.57042 -2.07116 2.36332e-20)
(4.10045 0.0233068 1.26187e-20)
(3.85358 -0.684953 -7.06413e-21)
(4.28481 0.770449 -7.84841e-21)
(4.09026 0.372564 3.12009e-19)
(4.31519 1.17337 2.07897e-19)
(4.20152 1.05961 -4.44089e-19)
(4.18213 1.28129 6.42357e-20)
(4.14985 1.38082 1.00943e-20)
(3.9332 1.19313 -4.2641e-19)
(3.94669 1.40531 1.00852e-19)
(3.66974 1.25524 -2.31273e-19)
(3.64162 0.952467 -3.58387e-19)
(3.51484 -6.0639 1.24012e-18)
(3.54682 -6.40413 3.94898e-18)
(3.43978 -5.55658 -1.44129e-18)
(3.57408 -5.97318 -2.66154e-18)
(3.35982 -4.73875 -5.93019e-20)
(3.46632 -5.39499 1.09035e-18)
(3.41766 -3.40875 3.97824e-19)
(3.39341 -4.43496 -8.74888e-19)
(3.58967 -1.82651 7.06753e-19)
(3.43976 -2.92212 1.97677e-18)
(3.80617 -0.444868 2.72721e-19)
(3.60845 -1.33453 -1.00774e-18)
(3.97061 0.588814 -5.48627e-20)
(3.78509 0.00790769 1.00461e-18)
(4.02189 1.23057 -6.66469e-19)
(3.88308 0.9656 -7.301e-19)
(3.93432 1.49938 4.21876e-20)
(3.85548 1.49976 -2.26107e-19)
(3.72747 1.4786 3.31081e-19)
(3.69364 1.65162 3.12377e-19)
(3.46907 1.52742 -1.62911e-19)
(3.47081 1.2701 -1.95332e-20)
(3.64365 -6.34605 8.09733e-19)
(3.64255 -6.67186 -5.8979e-20)
(3.58801 -5.88651 -4.707e-19)
(3.71365 -6.26727 5.56802e-20)
(3.50346 -5.20385 5.29242e-19)
(3.6051 -5.73978 9.56135e-19)
(3.42684 -4.11222 3.52426e-19)
(3.5006 -4.94811 -2.49866e-18)
(3.46659 -2.58699 6.81195e-19)
(3.41868 -3.67989 2.72963e-18)
(3.56823 -1.01982 -4.9577e-19)
(3.43928 -2.03174 -9.97913e-19)
(3.66412 0.279606 4.66268e-19)
(3.50798 -0.466731 1.47642e-18)
(3.69176 1.1712 -3.21217e-19)
(3.54652 0.751974 -8.68312e-19)
(3.61868 1.62965 -1.3439e-20)
(3.50474 1.51252 0)
(3.44512 1.71384 -1.90213e-19)
(3.36322 1.82143 -2.99342e-21)
(3.186 1.78241 -1.34379e-19)
(3.19604 1.56162 -9.40842e-20)
(3.75611 -6.623 -8.50411e-19)
(3.73204 -6.92449 -1.81813e-18)
(3.71053 -6.1982 1.40266e-18)
(3.83413 -6.55202 1.39535e-18)
(3.62402 -5.5696 -1.71213e-18)
(3.71143 -6.06147 -1.09574e-20)
(3.50338 -4.65877 -6.87883e-19)
(3.5988 -5.3316 -1.74367e-18)
(3.41932 -3.30229 1.54973e-18)
(3.44713 -4.27186 1.39356e-18)
(3.37957 -1.6509 7.11854e-19)
(3.32551 -2.70555 1.17821e-18)
(3.36712 -0.13412 3.04905e-19)
(3.25578 -1.01358 -8.72217e-20)
(3.33071 0.998117 -6.43011e-19)
(3.19437 0.430676 -1.2404e-18)
(3.24204 1.65643 1.19647e-20)
(3.10237 1.41114 0)
(3.09941 1.87171 1.49684e-20)
(2.96043 1.88125 4.96651e-19)
(2.81445 1.92676 -3.60737e-19)
(2.92535 1.77127 8.90283e-19)
(3.85579 -6.87934 0)
(3.81633 -7.16353 3.14302e-20)
(3.80973 -6.49246 1.20571e-19)
(3.93299 -6.80845 -1.37809e-18)
(3.71336 -5.90341 1.4791e-19)
(3.78036 -6.36352 7.0082e-19)
(3.57174 -5.06836 0)
(3.65662 -5.68067 2.30989e-18)
(3.38682 -3.85356 1.04295e-18)
(3.4624 -4.72733 -1.46276e-18)
(3.22392 -2.2549 5.62338e-19)
(3.22917 -3.31722 1.80207e-18)
(3.07536 -0.616219 -1.55174e-18)
(3.01694 -1.58585 -2.78733e-18)
(2.9385 0.717693 -7.33314e-19)
(2.82427 0.0190821 1.98181e-18)
(2.8044 1.56597 4.29903e-19)
(2.65078 1.19136 -9.8735e-19)
(2.66894 1.91776 1.14515e-19)
(2.48855 1.82033 -5.15557e-20)
(2.36537 1.9706 6.52486e-19)
(2.51796 1.93378 -1.77377e-19)
(3.92084 -7.10111 -1.1548e-18)
(3.85821 -7.32557 1.80247e-18)
(3.87368 -6.75973 -1.01219e-18)
(3.99004 -7.04037 -2.76553e-18)
(3.75676 -6.21178 2.70669e-18)
(3.81013 -6.6379 2.87135e-18)
(3.5852 -5.43979 1.2891e-18)
(3.6637 -6.00115 -1.81891e-18)
(3.34456 -4.34546 -1.05172e-18)
(3.43245 -5.12315 2.48174e-20)
(3.06863 -2.84186 -1.01446e-18)
(3.11264 -3.86561 1.35018e-18)
(2.77477 -1.14635 3.11503e-19)
(2.77276 -2.16701 -2.0123e-18)
(2.51453 0.335249 1.87728e-18)
(2.43421 -0.472218 2.77228e-18)
(2.31248 1.34809 -1.57387e-18)
(2.15811 0.847458 7.30653e-20)
(2.17518 1.83455 3.92551e-19)
(1.96303 1.61637 -1.25437e-18)
(1.85667 1.87125 5.86967e-19)
(2.07194 1.93517 -1.71903e-18)
(3.97105 -7.28027 8.69275e-19)
(3.87707 -7.48491 3.50692e-18)
(3.91168 -6.98231 5.57997e-19)
(4.00474 -7.23563 -1.38494e-18)
(3.7557 -6.48203 -1.0956e-18)
(3.79832 -6.8503 1.77402e-18)
(3.54768 -5.77786 -3.27027e-18)
(3.61665 -6.28288 -7.01862e-18)
(3.26038 -4.77975 2.26147e-18)
(3.34426 -5.48759 1.41819e-18)
(2.88247 -3.38337 7.94394e-19)
(2.9529 -4.35765 1.9441e-18)
(2.45527 -1.70579 5.85507e-20)
(2.50512 -2.74665 -2.12125e-18)
(2.06335 -0.141153 1.2897e-18)
(2.02457 -1.03095 1.76619e-18)
(1.77972 0.99361 5.41562e-19)
(1.63793 0.380265 1.06643e-18)
(1.63809 1.59567 -1.27272e-18)
(1.40554 1.25243 5.02182e-19)
(1.34552 1.5922 2.38511e-19)
(1.60864 1.80177 -2.61896e-19)
(3.97972 -7.42215 1.90146e-18)
(3.88329 -7.59273 2.1501e-18)
(3.88501 -7.16298 -5.06502e-19)
(3.97402 -7.36065 2.81515e-18)
(3.70098 -6.7081 -3.18414e-18)
(3.74994 -7.02098 -2.77841e-18)
(3.45025 -6.07867 -3.24055e-18)
(3.51339 -6.51804 -2.86088e-18)
(3.10794 -5.18295 9.70117e-19)
(3.18818 -5.81586 -8.43291e-20)
(2.65091 -3.9022 -4.82179e-19)
(2.7373 -4.82567 1.27092e-18)
(2.1141 -2.28703 -8.03802e-19)
(2.19858 -3.34753 -4.23658e-18)
(1.59284 -0.705514 1.77137e-18)
(1.60161 -1.64687 3.27188e-18)
(1.23089 0.500267 1.15212e-18)
(1.11613 -0.20893 0)
(1.0796 1.18758 2.03197e-18)
(0.849067 0.73133 1.19611e-18)
(0.839756 1.16956 -8.19992e-19)
(1.07564 1.48176 -1.54738e-18)
(3.95562 -7.50245 2.99885e-18)
(3.86121 -7.62729 4.64324e-21)
(3.82534 -7.27963 9.65006e-19)
(3.88862 -7.43143 3.46724e-18)
(3.59898 -6.88208 -2.42721e-18)
(3.64443 -7.13199 -2.74668e-18)
(3.29619 -6.3313 1.8847e-20)
(3.35443 -6.69546 2.79001e-18)
(2.89324 -5.55468 0)
(2.96974 -6.09133 -1.47453e-18)
(2.36047 -4.42594 -1.90294e-18)
(2.46653 -5.25248 0)
(1.75227 -2.90841 -1.01028e-18)
(1.85481 -4.01108 -4.17608e-18)
(1.13548 -1.35469 1.71317e-18)
(1.19581 -2.33243 1.46778e-18)
(0.709117 -0.124426 -8.97562e-20)
(0.637845 -0.906377 2.4894e-20)
(0.558208 0.627788 -1.85578e-18)
(0.350792 0.0630619 7.96752e-19)
(0.377036 0.580054 -1.26626e-18)
(0.609738 0.997229 1.66483e-18)
(3.87985 -7.52932 1.21914e-19)
(3.81104 -7.60452 -3.28007e-18)
(3.70825 -7.33491 2.40038e-19)
(3.74933 -7.44579 -1.35918e-18)
(3.43709 -6.99019 1.91595e-18)
(3.48057 -7.18295 1.56039e-18)
(3.07967 -6.51532 1.78496e-18)
(3.13829 -6.81096 2.7806e-18)
(2.62019 -5.86319 -1.62936e-18)
(2.69907 -6.30036 -7.98169e-19)
(2.04605 -4.9542 -1.83088e-18)
(2.15333 -5.60173 -1.10907e-18)
(1.3558 -3.6178 -2.15324e-18)
(1.51008 -4.62853 -2.93196e-18)
(0.699987 -2.07175 -6.7692e-21)
(0.852665 -3.14086 -2.61916e-20)
(0.262595 -0.85724 1.00167e-18)
(0.262332 -1.70389 -1.09374e-18)
(0.126936 -0.0650646 1.35822e-18)
(-0.0310593 -0.71941 1.2093e-18)
(0.0290703 -0.13674 -4.58362e-19)
(0.236361 0.373834 1.65006e-18)
(3.75668 -7.49615 -5.06472e-18)
(3.72023 -7.50804 -3.23891e-18)
(3.53701 -7.32797 -3.18541e-19)
(3.55776 -7.38871 -1.99744e-18)
(3.21813 -7.03753 2.29648e-18)
(3.25567 -7.16868 2.5994e-18)
(2.80937 -6.63772 6.05535e-19)
(2.86598 -6.86964 0)
(2.30293 -6.09213 -2.46218e-19)
(2.38778 -6.4613 -6.3382e-20)
(1.70183 -5.34712 -2.01638e-18)
(1.82856 -5.90243 3.2444e-18)
(1.01946 -4.31352 -9.78401e-19)
(1.20784 -5.13044 -7.20867e-19)
(0.381662 -2.95395 -8.71141e-19)
(0.586847 -3.98176 -1.12798e-18)
(-0.0695794 -1.69556 -1.08618e-18)
(0.0242995 -2.61836 2.27491e-18)
(-0.176132 -0.877852 -6.47227e-19)
(-0.264258 -1.58745 -6.9567e-19)
(-0.128674 -0.962831 -6.9481e-19)
(-0.0246804 -0.28359 -3.17069e-19)
(3.57698 -7.38426 -4.38542e-19)
(3.56787 -7.32049 -3.95411e-19)
(3.30467 -7.24606 4.55992e-19)
(3.3047 -7.24366 0)
(2.93939 -7.02073 5.59753e-19)
(2.96171 -7.08032 5.04699e-19)
(2.4919 -6.71471 -6.16967e-19)
(2.53203 -6.87261 0)
(1.968 -6.29846 3.02135e-18)
(2.03525 -6.58947 -6.86552e-19)
(1.38466 -5.7245 4.76047e-18)
(1.49825 -6.18828 1.65852e-18)
(0.763585 -4.92251 -1.00791e-18)
(0.950122 -5.60667 -1.40598e-19)
(0.176748 -3.83765 1.97694e-18)
(0.421531 -4.74161 -2.04252e-18)
(-0.224535 -2.64929 1.99287e-18)
(-0.0551637 -3.59874 3.24397e-18)
(-0.31805 -1.77273 -1.14224e-18)
(-0.331687 -2.5351 -1.57514e-18)
(-0.155231 -1.80532 1.74841e-19)
(-0.110078 -1.20263 -8.13875e-19)
(3.32252 -7.1778 0)
(3.3317 -7.03482 -2.55699e-18)
(2.99671 -7.07627 0)
(2.97216 -6.99795 1.92951e-18)
(2.58954 -6.93326 0)
(2.5783 -6.91235 3.54357e-19)
(2.11963 -6.74719 0)
(2.1193 -6.82474 -1.29588e-18)
(1.60912 -6.4879 -2.16414e-18)
(1.63385 -6.69738 1.00487e-18)
(1.08865 -6.10428 -2.65726e-18)
(1.16468 -6.47775 -4.10568e-18)
(0.583377 -5.52258 -8.027e-19)
(0.7417 -6.09633 2.51942e-18)
(0.121322 -4.67632 -4.4447e-19)
(0.368532 -5.46458 -2.4498e-18)
(-0.211738 -3.62852 -3.12799e-19)
(0.0300905 -4.54632 6.09935e-19)
(-0.277654 -2.70624 1.94947e-19)
(-0.208264 -3.54057 -6.08372e-19)
(-0.000303446 -2.64719 8.46181e-19)
(-0.0963601 -2.02043 1.028e-19)
(2.96983 -6.85396 -9.86018e-19)
(2.96537 -6.64646 -6.02459e-18)
(2.58539 -6.80873 2.4229e-18)
(2.51085 -6.64127 3.57405e-18)