/*--------------------------------*- C++ -*----------------------------------*\
| =========                 |                                                 |
| \\      /  F ield         | OpenFOAM: The Open Source CFD Toolbox           |
|  \\    /   O peration     | Version:  3.0.1                                 |
|   \\  /    A nd           | Web:      www.OpenFOAM.org                      |
|    \\/     M anipulation  |                                                 |
\*---------------------------------------------------------------------------*/
FoamFile
{
    version     2.0;
    format      ascii;
    class       surfaceScalarField;
    location    "0.715112";
    object      phi;
}
// * * * * * * * * * * * * * * * * * * * * * * * * * * * * * * * * * * * * * //

dimensions      [0 3 -1 0 0 0 0];

internalField   nonuniform List<scalar> 
32369
(
-1.00353e-05
1.84865e-05
-8.4512e-06
-1.76918e-05
1.66531e-05
-8.99659e-06
-2.63354e-05
1.86797e-05
-1.00361e-05
-3.48399e-05
1.95525e-05
-1.10481e-05
-4.3463e-05
2.13512e-05
-1.27281e-05
-5.24349e-05
2.40388e-05
-1.50669e-05
-6.22089e-05
2.7879e-05
-1.8105e-05
-7.32312e-05
3.30214e-05
-2.1999e-05
-8.59751e-05
3.97678e-05
-2.70239e-05
-0.000100973
4.85561e-05
-3.35583e-05
6.00241e-05
-4.20779e-05
-0.000118919
-4.10606e-07
1.88971e-05
-2.11841e-06
1.83609e-05
-8.12374e-06
2.46851e-05
-1.52835e-05
2.67123e-05
-2.39523e-05
3.002e-05
-3.35154e-05
3.36019e-05
-4.41797e-05
3.85434e-05
-5.62437e-05
4.50853e-05
-7.01743e-05
5.36984e-05
-8.64914e-05
6.48732e-05
7.93398e-05
-0.000105807
1.03967e-06
1.78574e-05
2.03095e-07
1.91975e-05
-2.82738e-06
2.77155e-05
-7.15797e-06
3.10428e-05
-1.38485e-05
3.67105e-05
-2.20987e-05
4.18521e-05
-3.18415e-05
4.82861e-05
-4.31816e-05
5.64254e-05
-5.63739e-05
6.68907e-05
-7.18817e-05
8.0381e-05
9.7775e-05
-9.03168e-05
7.8806e-07
1.70694e-05
-3.24033e-07
2.03095e-05
-1.82561e-06
2.92171e-05
-4.48484e-06
3.37021e-05
-9.11132e-06
4.1337e-05
-1.52174e-05
4.79582e-05
-2.31649e-05
5.62336e-05
-3.27089e-05
6.59695e-05
-4.41179e-05
7.82998e-05
-5.76413e-05
9.39043e-05
0.000113785
-7.36508e-05
6.33547e-07
1.64358e-05
-5.41121e-07
2.14842e-05
-1.53109e-06
3.02071e-05
-3.45162e-06
3.56226e-05
-6.55136e-06
4.44367e-05
-1.08078e-05
5.22147e-05
-1.67225e-05
6.21483e-05
-2.42735e-05
7.35205e-05
-3.35413e-05
8.75676e-05
-4.47154e-05
0.000105078
0.000127243
-5.81741e-05
7.15684e-07
1.57201e-05
-6.30419e-08
2.22629e-05
-6.68182e-07
3.08122e-05
-2.20435e-06
3.71588e-05
-4.33097e-06
4.65633e-05
-7.3326e-06
5.52163e-05
-1.1651e-05
6.64666e-05
-1.72893e-05
7.91589e-05
-2.44974e-05
9.47756e-05
-3.33892e-05
0.00011397
0.000138057
-4.42033e-05
8.26963e-07
1.48932e-05
4.83198e-07
2.26067e-05
2.70893e-07
3.10245e-05
-8.77377e-07
3.8307e-05
-2.2847e-06
4.79707e-05
-4.40878e-06
5.73404e-05
-7.46162e-06
6.95195e-05
-1.15404e-05
8.32376e-05
-1.69358e-05
0.000100171
-2.37683e-05
0.000120803
0.000146522
-3.22326e-05
8.00641e-07
1.40925e-05
7.62372e-07
2.2645e-05
8.57768e-07
3.09291e-05
1.36685e-07
3.90281e-05
-6.49532e-07
4.87569e-05
-2.08231e-06
5.87732e-05
-4.08152e-06
7.15187e-05
-6.86119e-06
8.60173e-05
-1.06487e-05
0.000103959
-1.55447e-05
0.000125699
0.000152761
-2.17844e-05
7.61176e-07
1.33314e-05
1.07933e-06
2.23268e-05
1.47249e-06
3.0536e-05
1.1614e-06
3.93392e-05
9.03577e-07
4.90147e-05
7.69717e-08
5.95998e-05
-1.02573e-06
7.26214e-05
-2.73453e-06
8.77261e-05
-5.11489e-06
0.000106339
-8.38774e-06
0.000128972
0.00015705
-1.26767e-05
9.96413e-07
1.23349e-05
1.74176e-06
2.15815e-05
2.46675e-06
2.9811e-05
2.61405e-06
3.91919e-05
2.79216e-06
4.88366e-05
2.51094e-06
5.9881e-05
2.12248e-06
7.30099e-05
1.30247e-06
8.85461e-05
4.94402e-08
0.000107592
-1.81935e-06
0.00013084
0.000159705
-4.47449e-06
1.18253e-06
1.11524e-05
2.31047e-06
2.04535e-05
3.34458e-06
2.87769e-05
3.97378e-06
3.85627e-05
4.57067e-06
4.82397e-05
4.83791e-06
5.96137e-05
5.10445e-06
7.27433e-05
5.10041e-06
8.85502e-05
4.88915e-06
0.000107803
4.28721e-06
0.000131442
0.000160651
3.34161e-06
1.1614e-06
9.99101e-06
2.49655e-06
1.91184e-05
3.80735e-06
2.74661e-05
4.88984e-06
3.74802e-05
5.92531e-06
4.72042e-05
6.77858e-06
5.87605e-05
7.6961e-06
7.18258e-05
8.53182e-06
8.77144e-05
9.3587e-06
0.000106976
1.00756e-05
0.000130725
0.000160065
1.06617e-05
1.19568e-06
8.79533e-06
2.7719e-06
1.75422e-05
4.38508e-06
2.58529e-05
5.9368e-06
3.59285e-05
7.4183e-06
4.57228e-05
8.84914e-06
5.73296e-05
1.03849e-05
7.02901e-05
1.19994e-05
8.61e-05
1.38191e-05
0.000105157
1.58073e-05
0.000128737
0.000157981
1.78916e-05
1.36025e-06
7.43507e-06
3.20114e-06
1.57013e-05
5.17014e-06
2.38839e-05
7.21216e-06
3.38865e-05
9.1812e-06
4.37537e-05
1.11981e-05
5.53127e-05
1.33666e-05
6.81216e-05
1.57744e-05
8.36922e-05
1.85232e-05
0.000102408
2.16859e-05
0.000125574
0.000154386
2.52802e-05
1.30868e-06
6.1264e-06
3.2538e-06
1.37562e-05
5.49917e-06
2.16385e-05
7.98585e-06
3.13998e-05
1.04952e-05
4.12444e-05
1.31714e-05
5.26364e-05
1.60557e-05
6.52373e-05
1.93428e-05
8.04051e-05
2.31512e-05
9.85994e-05
2.75766e-05
0.000121149
0.000149179
3.27836e-05
1.25298e-06
4.87342e-06
3.26522e-06
1.17439e-05
5.76716e-06
1.91366e-05
8.70202e-06
2.84649e-05
1.17818e-05
3.81647e-05
1.51517e-05
4.92666e-05
1.88393e-05
6.15497e-05
2.30661e-05
7.61783e-05
2.79708e-05
9.36947e-05
3.38247e-05
0.000115295
0.000142201
4.08036e-05
1.23884e-06
3.63458e-06
3.31149e-06
9.67127e-06
6.0512e-06
1.63969e-05
9.42113e-06
2.5095e-05
1.31232e-05
3.44626e-05
1.72477e-05
4.5142e-05
2.18161e-05
5.69814e-05
2.70752e-05
7.09191e-05
3.32223e-05
8.75476e-05
4.05081e-05
0.000108009
0.00013359
4.91187e-05
1.09597e-06
2.53861e-06
3.08847e-06
7.67876e-06
5.96371e-06
1.35216e-05
9.70576e-06
2.1353e-05
1.40212e-05
3.01471e-05
1.89659e-05
4.01973e-05
2.45565e-05
5.13908e-05
3.10165e-05
6.44591e-05
3.85547e-05
8.00094e-05
4.74578e-05
9.91062e-05
0.000122935
5.81128e-05
9.02945e-07
1.63567e-06
2.74417e-06
5.83754e-06
5.64873e-06
1.06171e-05
9.66345e-06
1.73382e-05
1.45573e-05
2.52533e-05
2.036e-05
3.43945e-05
2.70786e-05
4.46722e-05
3.49039e-05
5.66339e-05
4.40554e-05
7.08579e-05
5.48825e-05
8.82791e-05
0.000110011
6.78059e-05
6.98662e-07
9.37005e-07
2.33728e-06
4.19892e-06
5.11342e-06
7.84093e-06
9.23329e-06
1.32184e-05
1.45926e-05
1.9894e-05
2.12268e-05
2.77603e-05
2.91292e-05
3.67698e-05
3.84475e-05
4.73156e-05
4.93701e-05
5.99354e-05
6.22537e-05
7.53955e-05
9.46517e-05
7.76135e-05
5.72439e-07
3.64566e-07
1.89097e-06
2.88039e-06
4.32929e-06
5.4026e-06
8.28759e-06
9.26008e-06
1.38967e-05
1.42849e-05
2.12128e-05
2.04442e-05
3.02191e-05
2.77635e-05
4.09924e-05
3.65423e-05
5.37165e-05
4.72113e-05
6.8748e-05
6.03639e-05
7.674e-05
8.66597e-05
2.56413e-07
1.08153e-07
1.21854e-06
1.91826e-06
3.17196e-06
3.44919e-06
6.72518e-06
5.70686e-06
1.22604e-05
8.74962e-06
1.9892e-05
1.28127e-05
2.95976e-05
1.8058e-05
4.14681e-05
2.46718e-05
5.57155e-05
3.29639e-05
7.27469e-05
4.33325e-05
5.59347e-05
9.35522e-05
1.68176e-07
-6.00224e-08
6.88622e-07
1.39782e-06
2.2326e-06
1.90521e-06
5.29458e-06
2.64488e-06
1.02035e-05
3.84073e-06
1.71939e-05
5.82225e-06
2.64556e-05
8.7963e-06
3.82711e-05
1.28563e-05
5.29579e-05
1.82771e-05
7.07468e-05
2.55436e-05
3.46641e-05
9.20174e-05
-5.29907e-07
4.69885e-07
1.4864e-06
-6.18495e-07
4.06893e-06
-6.7732e-07
6.99024e-06
-2.76431e-07
1.07422e-05
8.87571e-08
1.59796e-05
5.84822e-07
2.32491e-05
1.52684e-06
3.3106e-05
2.9993e-06
4.60842e-05
5.29889e-06
6.27929e-05
8.83489e-06
1.45563e-05
8.29007e-05
-1.39682e-05
5.51698e-06
-2.58896e-05
2.92484e-06
-3.63086e-05
3.82964e-07
-4.51501e-05
-2.20665e-06
-5.33737e-05
-4.50449e-06
-6.185e-05
-6.59063e-06
-7.1228e-05
-8.72704e-06
-8.1948e-05
-1.1279e-05
-9.43986e-05
-1.45733e-05
-0.000108975
-1.89821e-05
-2.495e-05
-0.000126103
-5.50232e-06
1.10193e-05
-1.17829e-05
9.20541e-06
-2.06764e-05
9.27652e-06
-3.02423e-05
7.35916e-06
-4.02746e-05
5.52784e-06
-5.071e-05
3.84476e-06
-6.18886e-05
2.45162e-06
-7.42655e-05
1.09793e-06
-8.84353e-05
-4.03526e-07
-0.000104978
-2.43943e-06
-5.41801e-06
-0.00012451
-2.35721e-06
1.33765e-05
-5.82853e-06
1.26767e-05
-1.18158e-05
1.52638e-05
-1.95164e-05
1.50598e-05
-2.88032e-05
1.48146e-05
-3.92678e-05
1.43093e-05
-5.08734e-05
1.40573e-05
-6.39108e-05
1.41353e-05
-7.87702e-05
1.44558e-05
-9.59487e-05
1.47391e-05
1.45739e-05
-0.000115941
-1.53168e-06
1.49082e-05
-4.41638e-06
1.55614e-05
-8.73121e-06
1.95786e-05
-1.44831e-05
2.08117e-05
-2.20938e-05
2.24253e-05
-3.12536e-05
2.34691e-05
-4.19153e-05
2.4719e-05
-5.40861e-05
2.63061e-05
-6.79921e-05
2.83619e-05
-8.40381e-05
3.0785e-05
3.33467e-05
-0.000102811
-1.3855e-06
1.62937e-05
-4.10333e-06
1.82792e-05
-7.42644e-06
2.29017e-05
-1.18637e-05
2.5249e-05
-1.7863e-05
2.84245e-05
-2.54474e-05
3.10536e-05
-3.46277e-05
3.38993e-05
-4.53886e-05
3.70669e-05
-5.78445e-05
4.08178e-05
-7.22277e-05
4.51683e-05
4.99477e-05
-8.88287e-05
-1.22388e-06
1.75176e-05
-3.70486e-06
2.07602e-05
-6.46917e-06
2.5666e-05
-1.00636e-05
2.88434e-05
-1.4888e-05
3.3249e-05
-2.09558e-05
3.71214e-05
-2.85481e-05
4.14916e-05
-3.76557e-05
4.61745e-05
-4.83366e-05
5.14988e-05
-6.06629e-05
5.74945e-05
6.40461e-05
-7.47612e-05
-1.01982e-06
1.85374e-05
-3.16501e-06
2.29054e-05
-5.49049e-06
2.79915e-05
-8.45366e-06
3.18066e-05
-1.23539e-05
3.71492e-05
-1.72462e-05
4.20136e-05
-2.34121e-05
4.76576e-05
-3.092e-05
5.36824e-05
-3.98311e-05
6.04098e-05
-5.02129e-05
6.78763e-05
7.59976e-05
-6.21644e-05
-9.49744e-07
1.94871e-05
-2.77537e-06
2.4731e-05
-4.70399e-06
2.99201e-05
-7.23107e-06
3.43337e-05
-1.02672e-05
4.01854e-05
-1.41897e-05
4.59361e-05
-1.90949e-05
5.25628e-05
-2.51128e-05
5.97002e-05
-3.23525e-05
6.76496e-05
-4.09091e-05
7.64328e-05
8.60022e-05
-5.09137e-05
-8.03678e-07
2.02908e-05
-2.37239e-06
2.62998e-05
-3.77052e-06
3.13183e-05
-5.907e-06
3.64701e-05
-8.3007e-06
4.25791e-05
-1.13663e-05
4.90017e-05
-1.51657e-05
5.63622e-05
-1.98534e-05
6.4388e-05
-2.55445e-05
7.33406e-05
-3.23387e-05
8.32271e-05
9.40837e-05
-4.04203e-05
-5.97575e-07
2.08884e-05
-1.80754e-06
2.75097e-05
-2.94324e-06
3.2454e-05
-4.5126e-06
3.80395e-05
-6.29052e-06
4.4357e-05
-8.59405e-06
5.13052e-05
-1.14028e-05
5.91709e-05
-1.4886e-05
6.78712e-05
-1.91344e-05
7.7589e-05
-2.42669e-05
8.83596e-05
0.000100228
-3.04116e-05
-3.1618e-07
2.12046e-05
-1.06252e-06
2.82561e-05
-1.79967e-06
3.31911e-05
-2.90245e-06
3.91423e-05
-4.08668e-06
4.55412e-05
-5.66059e-06
5.28792e-05
-7.57091e-06
6.10812e-05
-9.94655e-06
7.02468e-05
-1.28586e-05
8.05011e-05
-1.63879e-05
9.18889e-05
0.000104495
-2.0655e-05
-1.06403e-07
2.1311e-05
-5.47376e-07
2.8697e-05
-8.81434e-07
3.35252e-05
-1.48398e-06
3.97448e-05
-2.07376e-06
4.6131e-05
-2.90834e-06
5.37137e-05
-3.89948e-06
6.20724e-05
-5.16711e-06
7.15145e-05
-6.72643e-06
8.20604e-05
-8.61861e-06
9.37811e-05
0.000106768
-1.08908e-05
1.33318e-07
2.11777e-05
7.45851e-08
2.87558e-05
1.19006e-07
3.34807e-05
2.83962e-08
3.98354e-05
3.8504e-08
4.61209e-05
-6.46728e-08
5.38169e-05
-1.5601e-07
6.21637e-05
-3.22712e-07
7.16812e-05
-5.38966e-07
8.22766e-05
-8.00327e-07
9.40425e-05
0.000106978
-1.01062e-06
5.07153e-07
2.06705e-05
8.78831e-07
2.83841e-05
1.34189e-06
3.30177e-05
1.77883e-06
3.93985e-05
2.3742e-06
4.55255e-05
3.00744e-06
5.31837e-05
3.80873e-06
6.13624e-05
4.72198e-06
7.07679e-05
5.83604e-06
8.11626e-05
7.19581e-06
9.26827e-05
0.000105237
8.93652e-06
7.21327e-07
1.99492e-05
1.48434e-06
2.76211e-05
2.38429e-06
3.21177e-05
3.38674e-06
3.83961e-05
4.60588e-06
4.43064e-05
6.03765e-06
5.17519e-05
7.77089e-06
5.96292e-05
9.83393e-06
6.87049e-05
1.23225e-05
7.8674e-05
1.53448e-05
8.96605e-05
0.000101506
1.90758e-05
9.89042e-07
1.89601e-05
2.17053e-06
2.64396e-05
3.52554e-06
3.07627e-05
5.1159e-06
3.68057e-05
6.98982e-06
4.24324e-05
9.25087e-06
4.94909e-05
1.1951e-05
5.69291e-05
1.51911e-05
6.54648e-05
1.9092e-05
7.4773e-05
2.37803e-05
8.49722e-05
9.58019e-05
2.94846e-05
1.30435e-06
1.76558e-05
2.95445e-06
2.47895e-05
4.80205e-06
2.89151e-05
7.02001e-06
3.45877e-05
9.58982e-06
3.98626e-05
1.27175e-05
4.63631e-05
1.6428e-05
5.32186e-05
2.08924e-05
6.10004e-05
2.62273e-05
6.94381e-05
3.26312e-05
7.85683e-05
8.80642e-05
4.03688e-05
1.61233e-06
1.60435e-05
3.73087e-06
2.26709e-05
6.12052e-06
2.65255e-05
9.01178e-06
3.16965e-05
1.23442e-05
3.65303e-05
1.63945e-05
4.23128e-05
2.11895e-05
4.84236e-05
2.69284e-05
5.52615e-05
3.37629e-05
6.26037e-05
4.18948e-05
7.04364e-05
7.84049e-05
5.1554e-05
1.92567e-06
1.41178e-05
4.52587e-06
2.00707e-05
7.49641e-06
2.35549e-05
1.11084e-05
2.80845e-05
1.52834e-05
3.23553e-05
2.03181e-05
3.72781e-05
2.62598e-05
4.24819e-05
3.3337e-05
4.81843e-05
4.17001e-05
5.42405e-05
5.15959e-05
6.05406e-05
6.67067e-05
6.32942e-05
2.26157e-06
1.18562e-05
5.35244e-06
1.69799e-05
8.94798e-06
1.99594e-05
1.33253e-05
2.37072e-05
1.84078e-05
2.72728e-05
2.44729e-05
3.1213e-05
3.1613e-05
3.53418e-05
4.00401e-05
3.97572e-05
4.99549e-05
4.43257e-05
6.1616e-05
4.88794e-05
5.30277e-05
7.5295e-05
2.61095e-06
9.24528e-06
6.18572e-06
1.34051e-05
1.04272e-05
1.57179e-05
1.55965e-05
1.85378e-05
2.16182e-05
2.12511e-05
2.87285e-05
2.41027e-05
3.70483e-05
2.7022e-05
4.67983e-05
3.00073e-05
5.82123e-05
3.29117e-05
7.15702e-05
3.55215e-05
3.74176e-05
8.71803e-05
2.92974e-06
6.31554e-06
6.98357e-06
9.35127e-06
1.18387e-05
1.08628e-05
1.77224e-05
1.26542e-05
2.46063e-05
1.43672e-05
3.26556e-05
1.60534e-05
4.2037e-05
1.76406e-05
5.29799e-05
1.90644e-05
6.57362e-05
2.01553e-05
8.06069e-05
2.06509e-05
2.00808e-05
9.79437e-05
3.64692e-06
2.66862e-06
8.05018e-06
4.948e-06
1.32485e-05
5.66448e-06
1.95273e-05
6.37532e-06
2.69086e-05
6.98592e-06
3.55789e-05
7.38309e-06
4.56757e-05
7.54383e-06
5.7474e-05
7.26612e-06
7.12086e-05
6.42066e-06
8.70903e-05
4.76918e-06
1.97587e-06
0.000105195
3.13851e-06
7.46801e-06
1.24552e-05
1.85541e-05
2.56287e-05
3.35966e-05
4.26673e-05
5.29327e-05
6.46523e-05
7.82563e-05
9.47886e-05
-1.34216e-06
1.3961e-05
-1.26189e-05
-2.97858e-06
1.34402e-05
-1.18037e-05
-6.38011e-06
1.64974e-05
-1.30959e-05
-1.08296e-05
1.92567e-05
-1.48072e-05
-1.57605e-05
2.19209e-05
-1.699e-05
-2.10456e-05
2.50193e-05
-1.97342e-05
-2.68554e-05
2.89718e-05
-2.31619e-05
-3.34058e-05
3.39925e-05
-2.74421e-05
-4.0962e-05
4.03976e-05
-3.28415e-05
-4.98344e-05
4.86099e-05
-3.97375e-05
5.92269e-05
-4.85699e-05
-6.04913e-05
3.72247e-06
1.02386e-05
5.01895e-06
1.21437e-05
4.27157e-06
1.72448e-05
1.97243e-06
2.15558e-05
-1.80538e-06
2.56987e-05
-6.78814e-06
3.00021e-05
-1.26929e-05
3.48765e-05
-1.95653e-05
4.08649e-05
-2.76098e-05
4.84421e-05
-3.71427e-05
5.81428e-05
7.06382e-05
-4.8554e-05
2.71864e-06
7.51992e-06
4.21531e-06
1.0647e-05
5.24397e-06
1.62161e-05
5.16186e-06
2.16379e-05
3.53624e-06
2.73243e-05
3.2684e-07
3.32115e-05
-4.23455e-06
3.94379e-05
-9.9886e-06
4.6619e-05
-1.69683e-05
5.54218e-05
-2.54009e-05
6.65754e-05
8.09597e-05
-3.57224e-05
2.28946e-06
5.23046e-06
3.52086e-06
9.41561e-06
4.83793e-06
1.48991e-05
5.6733e-06
2.08025e-05
5.53194e-06
2.74657e-05
4.11476e-06
3.46287e-05
1.33095e-06
4.22217e-05
-2.72812e-06
5.06781e-05
-8.02255e-06
6.07162e-05
-1.46249e-05
7.31777e-05
8.90695e-05
-2.27347e-05
1.74767e-06
3.4828e-06
3.22422e-06
7.93905e-06
4.76198e-06
1.33613e-05
5.989e-06
1.95755e-05
6.6725e-06
2.67822e-05
6.51133e-06
3.47899e-05
5.27576e-06
4.34573e-05
2.90062e-06
5.30532e-05
-5.9278e-07
6.42096e-05
-5.22695e-06
7.78119e-05
9.49993e-05
-1.11568e-05
1.47245e-06
2.01035e-06
3.16585e-06
6.24565e-06
4.96228e-06
1.15649e-05
6.56469e-06
1.79731e-05
7.81729e-06
2.55296e-05
8.51629e-06
3.40909e-05
8.43332e-06
4.35402e-05
7.45275e-06
5.40338e-05
5.55845e-06
6.61039e-05
2.74455e-06
8.06258e-05
9.88172e-05
-1.0733e-06
1.31117e-06
6.99179e-07
3.12349e-06
4.43334e-06
5.06687e-06
9.6215e-06
6.97959e-06
1.60604e-05
8.72042e-06
2.37887e-05
1.0101e-05
3.27103e-05
1.09272e-05
4.2714e-05
1.10823e-05
5.38787e-05
1.05461e-05
6.664e-05
9.34856e-06
8.18234e-05
0.000100652
7.51362e-06
9.85303e-07
-2.86124e-07
2.66531e-06
2.75333e-06
4.70784e-06
7.57898e-06
6.903e-06
1.38652e-05
9.07498e-06
2.16167e-05
1.10487e-05
3.07365e-05
1.26605e-05
4.11022e-05
1.37997e-05
5.27395e-05
1.44533e-05
6.59864e-05
1.46884e-05
8.15883e-05
0.000100767
1.45733e-05
4.57559e-07
-7.43683e-07
1.86926e-06
1.34162e-06
3.96663e-06
5.48161e-06
6.41027e-06
1.14216e-05
8.96302e-06
1.9064e-05
1.14628e-05
2.82367e-05
1.37631e-05
3.88019e-05
1.57623e-05
5.07403e-05
1.74664e-05
6.42823e-05
1.89682e-05
8.00866e-05
9.92941e-05
2.04414e-05
2.04898e-07
-9.48582e-07
1.23271e-06
3.1381e-07
3.1889e-06
3.52542e-06
5.72898e-06
8.88151e-06
8.56343e-06
1.62295e-05
1.14922e-05
2.5308e-05
1.43734e-05
3.59207e-05
1.71125e-05
4.80012e-05
1.97145e-05
6.16804e-05
2.23104e-05
7.74907e-05
9.6474e-05
2.51304e-05
1.65919e-07
-1.1145e-06
8.52623e-07
-3.72893e-07
2.42025e-06
1.95779e-06
4.81546e-06
6.48629e-06
7.74645e-06
1.32986e-05
1.09663e-05
2.20881e-05
1.43005e-05
3.25865e-05
1.7665e-05
4.46366e-05
2.10651e-05
5.82802e-05
2.46477e-05
7.39082e-05
9.23957e-05
2.8726e-05
1.3369e-07
-1.24819e-06
5.27593e-07
-7.66796e-07
1.64878e-06
8.36608e-07
3.70045e-06
4.43462e-06
6.51008e-06
1.04889e-05
9.82037e-06
1.87778e-05
1.34484e-05
2.89585e-05
1.73091e-05
4.0776e-05
2.14137e-05
5.41756e-05
2.59077e-05
6.94142e-05
8.72004e-05
3.11031e-05
8.58893e-08
-1.33408e-06
2.9934e-07
-9.80246e-07
1.03933e-06
9.66155e-08
2.63541e-06
2.83854e-06
5.12898e-06
7.99537e-06
8.33381e-06
1.5573e-05
1.20718e-05
2.52205e-05
1.62556e-05
3.65923e-05
2.09065e-05
4.95246e-05
2.61817e-05
6.4139e-05
8.09744e-05
3.24077e-05
2.21475e-08
-1.35623e-06
1.02722e-07
-1.06082e-06
5.28645e-07
-3.29308e-07
1.66166e-06
1.70552e-06
3.72304e-06
5.934e-06
6.6488e-06
1.26472e-05
1.03042e-05
2.15651e-05
1.46229e-05
3.22736e-05
1.9638e-05
4.45096e-05
2.54953e-05
5.82816e-05
7.39294e-05
3.25402e-05
-3.63228e-08
-1.3199e-06
-9.50054e-08
-1.00214e-06
4.34264e-08
-4.67739e-07
6.96809e-07
1.05214e-06
2.2481e-06
4.38271e-06
4.73032e-06
1.0165e-05
8.11088e-06
1.81845e-05
1.23682e-05
2.80162e-05
1.75836e-05
3.92942e-05
2.38952e-05
5.19701e-05
6.62647e-05
3.156e-05
-1.01373e-07
-1.21853e-06
-2.69848e-07
-8.33663e-07
-3.37994e-07
-3.99594e-07
-1.07242e-07
8.21388e-07
8.87074e-07
3.38839e-06
2.87684e-06
8.17524e-06
5.83711e-06
1.52242e-05
9.88318e-06
2.39701e-05
1.51116e-05
3.40657e-05
2.17077e-05
4.53739e-05
5.79654e-05
3.0007e-05
-1.61012e-07
-1.05752e-06
-4.11309e-07
-5.83365e-07
-6.1611e-07
-1.94793e-07
-6.64266e-07
8.69544e-07
-1.97407e-07
2.92153e-06
1.25864e-06
6.71919e-06
3.7495e-06
1.27334e-05
7.43629e-06
2.02834e-05
1.25448e-05
2.89572e-05
1.92757e-05
3.86431e-05
4.94468e-05
2.77943e-05
-1.98781e-07
-8.58739e-07
-5.09893e-07
-2.72253e-07
-8.08902e-07
1.04216e-07
-1.02475e-06
1.08539e-06
-9.25595e-07
2.82238e-06
-4.2575e-08
5.83617e-06
1.96739e-06
1.07234e-05
5.24041e-06
1.70103e-05
1.01134e-05
2.40842e-05
1.68526e-05
3.19039e-05
4.05513e-05
2.57481e-05
-2.15583e-07
-6.43156e-07
-5.56125e-07
6.82888e-08
-9.06283e-07
4.54374e-07
-1.21118e-06
1.39029e-06
-1.29829e-06
2.90949e-06
-8.34097e-07
5.37198e-06
7.00669e-07
9.18864e-06
3.57526e-06
1.41357e-05
8.16074e-06
1.94987e-05
1.48228e-05
2.52418e-05
3.13341e-05
2.404e-05
-2.31667e-07
-4.11489e-07
-5.80896e-07
4.17517e-07
-9.34372e-07
8.0785e-07
-1.24093e-06
1.69684e-06
-1.36993e-06
3.03849e-06
-1.07457e-06
5.07662e-06
1.08503e-07
8.00556e-06
2.65288e-06
1.15914e-05
6.91456e-06
1.52371e-05
1.33705e-05
1.87859e-05
2.21388e-05
2.25657e-05
-2.78275e-07
-1.33213e-07
-5.81053e-07
7.20295e-07
-8.57418e-07
1.08422e-06
-1.04339e-06
1.88282e-06
-1.04058e-06
3.03568e-06
-6.63255e-07
4.6993e-06
4.85873e-07
6.85644e-06
2.90809e-06
9.16916e-06
6.99073e-06
1.11544e-05
1.32972e-05
1.24794e-05
1.28965e-05
2.25396e-05
-2.17431e-07
8.42173e-08
-4.41386e-07
9.44251e-07
-5.00942e-07
1.14377e-06
-3.60129e-07
1.742e-06
5.36016e-08
2.62195e-06
9.14594e-07
3.8383e-06
2.56981e-06
5.20122e-06
5.45024e-06
6.28872e-06
9.95665e-06
6.648e-06
1.65078e-05
5.9282e-06
4.01521e-06
2.53891e-05
-4.0108e-07
4.85298e-07
-1.02673e-07
6.45843e-07
4.04092e-07
6.37006e-07
1.17529e-06
9.70803e-07
2.34304e-06
1.4542e-06
4.13557e-06
2.04578e-06
6.85494e-06
2.48185e-06
1.07799e-05
2.36376e-06
1.60784e-05
1.34949e-06
2.28001e-05
-7.93441e-07
-4.27684e-06
3.10921e-05
1.72985e-06
-1.24456e-06
2.80542e-06
-4.29724e-07
3.83866e-06
-3.96233e-07
5.26144e-06
-4.51979e-07
7.15171e-06
-4.36068e-07
9.72697e-06
-5.29484e-07
1.31522e-05
-9.43363e-07
1.74061e-05
-1.89017e-06
2.23467e-05
-3.59113e-06
2.7955e-05
-6.40174e-06
-1.07408e-05
3.4419e-05
-1.01229e-05
-2.49598e-06
-1.67591e-05
-5.16751e-06
-2.22355e-05
-7.61947e-06
-2.69986e-05
-1.00442e-05
-3.14825e-05
-1.2506e-05
-3.60858e-05
-1.5131e-05
-4.11382e-05
-1.81095e-05
-4.69159e-05
-2.16644e-05
-5.36724e-05
-2.6085e-05
-6.16736e-05
-3.17362e-05
-3.91083e-05
-7.11353e-05
-5.37632e-06
2.88034e-06
-1.10317e-05
4.87833e-07
-1.6907e-05
-1.74417e-06
-2.25174e-05
-4.43374e-06
-2.79891e-05
-7.03427e-06
-3.35665e-05
-9.5536e-06
-3.95569e-05
-1.21192e-05
-4.62987e-05
-1.49225e-05
-5.41244e-05
-1.82593e-05
-6.33506e-05
-2.25101e-05
-2.80857e-05
-7.43731e-05
-2.42048e-06
5.30082e-06
-5.88581e-06
3.95316e-06
-1.06872e-05
3.05719e-06
-1.6354e-05
1.23308e-06
-2.2411e-05
-9.77287e-07
-2.87236e-05
-3.24102e-06
-3.54788e-05
-5.36395e-06
-4.29685e-05
-7.43281e-06
-5.15307e-05
-9.69715e-06
-6.15066e-05
-1.25341e-05
-1.63654e-05
-7.32269e-05
-1.40242e-06
6.70324e-06
-3.66286e-06
6.21359e-06
-7.09587e-06
6.49021e-06
-1.17045e-05
5.84173e-06
-1.73528e-05
4.67102e-06
-2.37935e-05
3.19965e-06
-3.08899e-05
1.73241e-06
-3.87021e-05
3.79429e-07
-4.74688e-05
-9.30448e-07
-5.75472e-05
-2.45571e-06
-4.58212e-06
-6.93306e-05
-1.16669e-06
7.86993e-06
-3.02973e-06
8.07664e-06
-5.61422e-06
9.0747e-06
-9.10797e-06
9.33547e-06
-1.36788e-05
9.24182e-06
-1.93202e-05
8.8411e-06
-2.59337e-05
8.34593e-06
-3.34953e-05
7.94103e-06
-4.20782e-05
7.65242e-06
-5.18776e-05
7.34369e-06
6.74466e-06
-6.32044e-05
-9.95863e-07
8.86579e-06
-2.61599e-06
9.69676e-06
-4.73709e-06
1.11958e-05
-7.56237e-06
1.21608e-05
-1.12978e-05
1.29772e-05
-1.60546e-05
1.35979e-05
-2.18521e-05
1.41434e-05
-2.86832e-05
1.47721e-05
-3.66004e-05
1.55696e-05
-4.56927e-05
1.6436e-05
1.72142e-05
-5.61623e-05
-8.21613e-07
9.6874e-06
-2.2109e-06
1.1086e-05
-3.97274e-06
1.29576e-05
-6.29494e-06
1.4483e-05
-9.36296e-06
1.60452e-05
-1.33206e-05
1.75556e-05
-1.82682e-05
1.90911e-05
-2.42641e-05
2.0768e-05
-3.13374e-05
2.26429e-05
-3.95907e-05
2.46894e-05
2.67786e-05
-4.91551e-05
-7.15302e-07
1.04027e-05
-1.87902e-06
1.22498e-05
-3.33584e-06
1.44145e-05
-5.22405e-06
1.63712e-05
-7.71382e-06
1.8535e-05
-1.09466e-05
2.07884e-05
-1.5057e-05
2.32015e-05
-2.01482e-05
2.58592e-05
-2.62859e-05
2.87806e-05
-3.3544e-05
3.19475e-05
3.52016e-05
-4.19669e-05
-5.73828e-07
1.09765e-05
-1.49417e-06
1.31701e-05
-2.662e-06
1.55823e-05
-4.14064e-06
1.78498e-05
-6.105e-06
2.04993e-05
-8.67231e-06
2.33557e-05
-1.1993e-05
2.65222e-05
-1.61859e-05
3.00521e-05
-2.13967e-05
3.39914e-05
-2.77515e-05
3.83023e-05
4.28494e-05
-3.53994e-05
-3.68104e-07
1.13446e-05
-1.14151e-06
1.39435e-05
-1.89544e-06
1.63362e-05
-3.01264e-06
1.8967e-05
-4.45708e-06
2.19438e-05
-6.37231e-06
2.52709e-05
-8.90596e-06
2.90558e-05
-1.22159e-05
3.33621e-05
-1.64603e-05
3.82358e-05
-2.17893e-05
4.36312e-05
4.93021e-05
-2.8242e-05
-1.76426e-07
1.15211e-05
-5.33779e-07
1.43009e-05
-1.03157e-06
1.6834e-05
-1.72097e-06
1.96564e-05
-2.6488e-06
2.28716e-05
-3.92954e-06
2.65516e-05
-5.69211e-06
3.08184e-05
-8.1051e-06
3.5775e-05
-1.13376e-05
4.14684e-05
-1.55552e-05
4.78488e-05
5.46357e-05
-2.08888e-05
1.39485e-08
1.15071e-05
-9.45427e-08
1.44094e-05
-2.45926e-07
1.69854e-05
-5.10402e-07
1.99209e-05
-9.09904e-07
2.32711e-05
-1.53635e-06
2.71781e-05
-2.50322e-06
3.17852e-05
-3.96916e-06
3.7241e-05
-6.12311e-06
4.36223e-05
-9.15551e-06
5.08812e-05
5.86931e-05
-1.32129e-05
2.20031e-07
1.12871e-05
3.96592e-07
1.42328e-05
5.78726e-07
1.68033e-05
7.39211e-07
1.97604e-05
8.58497e-07
2.31518e-05
8.79366e-07
2.71572e-05
7.11132e-07
3.19535e-05
2.05851e-07
3.77463e-05
-8.29434e-07
4.46576e-05
-2.63899e-06
5.26908e-05
6.15814e-05
-5.52726e-06
4.71653e-07
1.08154e-05
9.58968e-07
1.37455e-05
1.48089e-06
1.62813e-05
2.05424e-06
1.91871e-05
2.67748e-06
2.25286e-05
3.31556e-06
2.65191e-05
3.90921e-06
3.13598e-05
4.34164e-06
3.73138e-05
4.42822e-06
4.4571e-05
3.94552e-06
5.31735e-05
6.29315e-05
2.59539e-06
6.33049e-07
1.01824e-05
1.3765e-06
1.3002e-05
2.22549e-06
1.54323e-05
3.19955e-06
1.8213e-05
4.30648e-06
2.14217e-05
5.54535e-06
2.52803e-05
6.87733e-06
3.00278e-05
8.22659e-06
3.59646e-05
9.43444e-06
4.33632e-05
1.029e-05
5.23179e-05
6.27501e-05
1.04715e-05
7.80226e-07
9.40215e-06
1.76557e-06
1.20167e-05
2.90727e-06
1.42906e-05
4.24334e-06
1.68769e-05
5.79617e-06
1.98688e-05
7.58465e-06
2.34918e-05
9.60261e-06
2.80099e-05
1.18042e-05
3.3763e-05
1.40719e-05
4.10955e-05
1.62108e-05
5.0179e-05
6.10586e-05
1.79023e-05
9.13294e-07
8.48886e-06
2.10607e-06
1.08239e-05
3.50522e-06
1.28915e-05
5.15805e-06
1.52241e-05
7.09889e-06
1.7928e-05
9.36651e-06
2.12242e-05
1.19887e-05
2.53877e-05
1.49554e-05
3.07963e-05
1.819e-05
3.78609e-05
2.15382e-05
4.68307e-05
5.77373e-05
2.48595e-05
9.96746e-07
7.49211e-06
2.34869e-06
9.47196e-06
3.95099e-06
1.12892e-05
5.85753e-06
1.33176e-05
8.11183e-06
1.56737e-05
1.07783e-05
1.85577e-05
1.39019e-05
2.22642e-05
1.75107e-05
2.71874e-05
2.1579e-05
3.37926e-05
2.59656e-05
4.24441e-05
5.33297e-05
3.03732e-05
1.04869e-06
6.44342e-06
2.50345e-06
8.01721e-06
4.24999e-06
9.54266e-06
6.33412e-06
1.12334e-05
8.82005e-06
1.31878e-05
1.17758e-05
1.56019e-05
1.52743e-05
1.87657e-05
1.93781e-05
2.30837e-05
2.41181e-05
2.90526e-05
2.9483e-05
3.70792e-05
4.71253e-05
3.56874e-05
1.08727e-06
5.35615e-06
2.60412e-06
6.50035e-06
4.4289e-06
7.71788e-06
6.61764e-06
9.04468e-06
9.23661e-06
1.05688e-05
1.2364e-05
1.24746e-05
1.60849e-05
1.50447e-05
2.04802e-05
1.86883e-05
2.56232e-05
2.39096e-05
3.14587e-05
3.12436e-05
4.08891e-05
3.7695e-05
1.11816e-06
4.23799e-06
2.64744e-06
4.97107e-06
4.49757e-06
5.86775e-06
6.72025e-06
6.822e-06
9.38337e-06
7.90566e-06
1.25655e-05
9.29247e-06
1.63454e-05
1.12648e-05
2.0829e-05
1.42047e-05
2.61401e-05
1.85985e-05
3.23899e-05
2.49939e-05
3.37086e-05
3.95704e-05
1.1213e-06
3.1167e-06
2.6269e-06
3.46547e-06
4.45748e-06
4.03717e-06
6.66352e-06
4.61596e-06
9.3029e-06
5.26628e-06
1.24339e-05
6.16144e-06
1.61331e-05
7.56566e-06
2.0525e-05
9.81276e-06
2.58187e-05
1.33048e-05
3.23195e-05
1.84931e-05
2.54537e-05
4.05744e-05
1.08846e-06
2.02824e-06
2.54624e-06
2.00769e-06
4.35271e-06
2.2307e-06
6.51526e-06
2.4534e-06
9.06239e-06
2.71915e-06
1.20376e-05
3.18626e-06
1.55157e-05
4.08755e-06
1.96351e-05
5.69334e-06
2.46232e-05
8.31674e-06
3.06848e-05
1.24316e-05
1.84776e-05
3.76608e-05
7.83685e-07
2.36165e-06
4.19612e-06
6.19754e-06
8.48062e-06
1.11374e-05
1.42816e-05
1.80848e-05
2.28104e-05
2.88402e-05
3.6577e-05
-6.47011e-06
-8.25129e-06
1.47214e-05
-1.03631e-05
-9.48033e-06
1.33733e-05
-1.36124e-05
-1.13107e-05
1.45599e-05
-1.70295e-05
-1.32733e-05
1.66905e-05
-2.0563e-05
-1.51904e-05
1.87238e-05
-2.41336e-05
-1.69633e-05
2.0534e-05
-2.80444e-05
-1.85858e-05
2.24966e-05
-3.24725e-05
-1.99868e-05
2.44149e-05
-3.76257e-05
-2.10429e-05
2.61961e-05
-4.3724e-05
-2.15383e-05
2.76365e-05
-2.10934e-05
2.84269e-05
-5.10575e-05
-5.66162e-06
-2.58967e-06
-1.03278e-05
-4.81415e-06
-1.45207e-05
-7.11777e-06
-1.84142e-05
-9.37986e-06
-2.21616e-05
-1.1443e-05
-2.5937e-05
-1.31879e-05
-2.99887e-05
-1.45342e-05
-3.45798e-05
-1.53956e-05
-3.99876e-05
-1.56351e-05
-4.65195e-05
-1.50063e-05
-1.31254e-05
-5.44875e-05
-3.02833e-06
4.38661e-07
-6.50053e-06
-1.34195e-06
-1.03779e-05
-3.24043e-06
-1.45151e-05
-5.24261e-06
-1.88078e-05
-7.15028e-06
-2.32757e-05
-8.71997e-06
-2.80385e-05
-9.77143e-06
-3.33189e-05
-1.01152e-05
-3.93805e-05
-9.57354e-06
-4.65015e-05
-7.8852e-06
-4.60135e-06
-5.50256e-05
-1.61997e-06
2.05863e-06
-4.05132e-06
1.0894e-06
-7.27739e-06
-1.43554e-08
-1.1065e-05
-1.45501e-06
-1.53275e-05
-2.88773e-06
-2.00059e-05
-4.04159e-06
-2.51706e-05
-4.60677e-06
-3.09345e-05
-4.35135e-06
-3.74657e-05
-3.04236e-06
-4.49825e-05
-3.68361e-07
4.20583e-06
-5.37897e-05
-8.74882e-07
2.93352e-06
-2.46675e-06
2.68127e-06
-4.9174e-06
2.4363e-06
-8.16834e-06
1.79592e-06
-1.21453e-05
1.08927e-06
-1.67508e-05
5.63841e-07
-2.1934e-05
5.76497e-07
-2.77581e-05
1.47268e-06
-3.44136e-05
3.61321e-06
-4.21785e-05
7.39653e-06
1.33573e-05
-5.133e-05
-8.00346e-07
3.73386e-06
-2.03821e-06
3.91913e-06
-3.80717e-06
4.20526e-06
-6.3174e-06
4.30616e-06
-9.63451e-06
4.40637e-06
-1.37988e-05
4.72808e-06
-1.87835e-05
5.56122e-06
-2.45882e-05
7.27745e-06
-3.12723e-05
1.02973e-05
-3.89841e-05
1.51083e-05
2.2373e-05
-4.79998e-05
-7.65236e-07
4.4991e-06
-1.92695e-06
5.08084e-06
-3.47861e-06
5.75692e-06
-5.60186e-06
6.42941e-06
-8.44278e-06
7.24729e-06
-1.20874e-05
8.37271e-06
-1.6595e-05
1.00688e-05
-2.20017e-05
1.26842e-05
-2.83641e-05
1.66597e-05
-3.57844e-05
2.25286e-05
3.09673e-05
-4.43786e-05
-7.64056e-07
5.26315e-06
-1.83229e-06
6.14907e-06
-3.2554e-06
7.18003e-06
-5.15507e-06
8.32908e-06
-7.65748e-06
9.7497e-06
-1.08873e-05
1.16025e-05
-1.49418e-05
1.41233e-05
-1.99026e-05
1.76449e-05
-2.585e-05
2.26072e-05
-3.29043e-05
2.95829e-05
3.93273e-05
-4.12644e-05
-7.3137e-07
5.99452e-06
-1.7449e-06
7.1626e-06
-3.06336e-06
8.49849e-06
-4.79416e-06
1.00599e-05
-7.0522e-06
1.20077e-05
-9.95566e-06
1.4506e-05
-1.36212e-05
1.77889e-05
-1.81551e-05
2.21788e-05
-2.36681e-05
2.81202e-05
-3.02988e-05
3.62135e-05
4.7263e-05
-3.82344e-05
-6.36585e-07
6.63111e-06
-1.55625e-06
8.08227e-06
-2.76593e-06
9.70817e-06
-4.35078e-06
1.16447e-05
-6.40695e-06
1.40639e-05
-9.04709e-06
1.71461e-05
-1.23884e-05
2.11302e-05
-1.65502e-05
2.63406e-05
-2.1665e-05
3.32351e-05
-2.78724e-05
4.24209e-05
5.46974e-05
-3.53069e-05
-5.47798e-07
7.17891e-06
-1.37991e-06
8.91438e-06
-2.48021e-06
1.08085e-05
-3.92208e-06
1.30866e-05
-5.79459e-06
1.59364e-05
-8.20158e-06
1.95531e-05
-1.12554e-05
2.41839e-05
-1.50774e-05
3.01626e-05
-1.97989e-05
3.79566e-05
-2.55674e-05
4.81894e-05
6.1705e-05
-3.2575e-05
-5.37931e-07
7.71684e-06
-1.31227e-06
9.68872e-06
-2.31825e-06
1.18144e-05
-3.62848e-06
1.43968e-05
-5.32802e-06
1.7636e-05
-7.51069e-06
2.17358e-05
-1.02826e-05
2.69559e-05
-1.37659e-05
3.36459e-05
-1.80898e-05
4.22805e-05
-2.34001e-05
5.34997e-05
6.8125e-05
-2.98201e-05
-4.92187e-07
8.20902e-06
-1.18731e-06