/*--------------------------------*- C++ -*----------------------------------*\
| =========                 |                                                 |
| \\      /  F ield         | OpenFOAM: The Open Source CFD Toolbox           |
|  \\    /   O peration     | Version:  3.0.1                                 |
|   \\  /    A nd           | Web:      www.OpenFOAM.org                      |
|    \\/     M anipulation  |                                                 |
\*---------------------------------------------------------------------------*/
FoamFile
{
    version     2.0;
    format      ascii;
    class       volVectorField;
    location    "0.164535";
    object      U;
}
// * * * * * * * * * * * * * * * * * * * * * * * * * * * * * * * * * * * * * //

dimensions      [0 1 -1 0 0 0 0];

internalField   nonuniform List<vector> 
21246
(
(6.08839 -1.30641 -2.03747e-19)
(5.60803 -1.31554 6.30368e-20)
(5.34834 -1.13648 0)
(5.1536 -0.953762 -1.26491e-20)
(4.95733 -0.791789 -3.80508e-22)
(4.75901 -0.653675 9.93802e-20)
(4.57064 -0.539122 -8.88633e-20)
(4.39342 -0.446028 0)
(4.22346 -0.370718 1.35205e-19)
(4.06278 -0.312244 -6.33223e-20)
(3.917 -0.280606 -1.20072e-19)
(4.93918 -2.4153 7.75963e-19)
(4.96628 -2.1398 -4.67696e-19)
(4.96116 -1.81574 -3.96431e-19)
(4.89974 -1.50355 0)
(4.79023 -1.2369 1.06884e-19)
(4.64882 -1.01796 -1.25815e-19)
(4.49314 -0.841579 4.57141e-19)
(4.335 -0.700211 1.50787e-19)
(4.1791 -0.586944 3.56249e-19)
(4.02873 -0.498749 -1.16257e-19)
(3.89 -0.441497 2.65696e-19)
(3.97257 -2.69486 -1.1931e-20)
(4.28573 -2.44143 -9.83877e-21)
(4.44381 -2.207 4.49186e-19)
(4.52253 -1.92055 -2.27979e-19)
(4.52439 -1.63335 -4.06518e-19)
(4.46559 -1.37078 0)
(4.36605 -1.14486 -2.26657e-19)
(4.24424 -0.957227 3.44466e-21)
(4.11318 -0.803524 -5.82347e-20)
(3.98133 -0.679529 -1.5231e-19)
(3.85501 -0.591248 -4.74435e-20)
(3.32866 -2.61975 -1.37107e-18)
(3.66446 -2.47153 1.28182e-19)
(3.91596 -2.34952 -4.56141e-21)
(4.09566 -2.14574 1.11104e-19)
(4.18931 -1.90037 1.58069e-19)
(4.21189 -1.64596 -2.24862e-19)
(4.17931 -1.40548 1.70322e-20)
(4.10917 -1.1912 -2.45901e-19)
(4.01427 -1.00911 2.09331e-20)
(3.90266 -0.86326 -9.78164e-21)
(3.79002 -0.749468 1.59579e-20)
(3.05499 -2.51737 0)
(3.28807 -2.40381 1.49887e-19)
(3.4629 -2.35817 -1.54652e-19)
(3.65704 -2.23725 1.14721e-19)
(3.81567 -2.05791 0)
(3.90726 -1.84119 -6.19988e-20)
(3.93334 -1.61373 0)
(3.90933 -1.39553 1.74115e-19)
(3.85347 -1.1951 0)
(3.77972 -1.01633 -1.01929e-19)
(3.69202 -0.875904 7.4071e-20)
(2.89459 -2.40181 -9.14772e-19)
(3.07783 -2.30658 1.26151e-18)
(3.19359 -2.29594 0)
(3.3444 -2.22015 0)
(3.4839 -2.09642 6.39252e-19)
(3.59386 -1.92765 -4.28511e-19)
(3.6623 -1.73046 0)
(3.68709 -1.52416 -6.03309e-20)
(3.67527 -1.3244 -3.29628e-19)
(3.63663 -1.14156 1.83548e-19)
(3.57984 -0.990652 -1.89817e-19)
(2.7797 -2.29023 2.27411e-20)
(2.90757 -2.20705 -1.90948e-20)
(2.99029 -2.21099 -9.32113e-19)
(3.11547 -2.15097 6.30158e-19)
(3.23445 -2.06111 1.4125e-19)
(3.33872 -1.93157 -1.10627e-19)
(3.41714 -1.77047 1.67872e-19)
(3.46496 -1.59057 -4.8391e-19)
(3.48255 -1.40638 5.34272e-19)
(3.47386 -1.23092 2.87279e-19)
(3.44167 -1.07919 3.453e-20)
(2.65977 -2.22111 -1.22643e-18)
(2.75987 -2.12462 1.0512e-18)
(2.82984 -2.12042 0)
(2.92813 -2.07275 -5.7335e-19)
(3.02736 -1.99974 3.73325e-19)
(3.1204 -1.89529 -3.08718e-19)
(3.19923 -1.76229 1.54342e-19)
(3.25878 -1.60894 -2.33145e-19)
(3.29615 -1.44547 5.06658e-19)
(3.31225 -1.28392 -2.44388e-19)
(3.30563 -1.14323 1.5471e-19)
(2.54715 -2.15861 0)
(2.63677 -2.05207 -1.00073e-20)
(2.69141 -2.04043 0)
(2.7722 -1.99637 -5.78986e-19)
(2.85577 -1.93154 -2.10703e-20)
(2.93713 -1.84171 1.29057e-18)
(3.01119 -1.72812 6.11671e-21)
(3.07384 -1.59583 -2.30881e-19)
(3.12234 -1.45144 -3.25145e-19)
(3.15482 -1.30396 -2.2232e-19)
(3.16675 -1.17095 1.38107e-20)
(2.45021 -2.09765 1.71e-18)
(2.52928 -1.98308 -4.35434e-20)
(2.56975 -1.96719 -5.93578e-19)
(2.63748 -1.92401 0)
(2.70874 -1.86332 -1.97397e-19)
(2.77992 -1.78197 -3.33147e-19)
(2.8479 -1.68079 5.267e-19)
(2.9099 -1.56334 -5.9369e-19)
(2.96351 -1.43376 0)
(3.00547 -1.29822 -6.32453e-19)
(3.02759 -1.17114 -2.84529e-19)
(2.36755 -2.04576 -7.22361e-19)
(2.43164 -1.92156 5.55477e-19)
(2.45964 -1.90022 0)
(2.51675 -1.85565 -4.59428e-19)
(2.57807 -1.79632 7.26942e-19)
(2.6409 -1.71949 1.55881e-19)
(2.70334 -1.62597 0)
(2.76359 -1.51865 1.89663e-19)
(2.81984 -1.40046 -6.89622e-21)
(2.86885 -1.27643 9.89478e-19)
(2.90072 -1.16323 2.92664e-19)
(2.28547 -2.00036 -8.76386e-20)
(2.33387 -1.86757 -6.81688e-20)
(2.35414 -1.83848 0)
(2.40387 -1.79023 0)
(2.45787 -1.72989 -5.10386e-19)
(2.51445 -1.65467 2.61672e-19)
(2.57267 -1.56542 0)
(2.63145 -1.46472 -3.2843e-19)
(2.68958 -1.35489 -2.45696e-19)
(2.74411 -1.2397 -7.33191e-19)
(2.78414 -1.13315 2.65921e-19)
(2.19954 -1.95089 7.5131e-19)
(2.23587 -1.81238 2.11202e-19)
(2.25095 -1.77681 1.07342e-19)
(2.29536 -1.72481 -3.73118e-19)
(2.34411 -1.66242 2.91019e-19)
(2.39643 -1.58695 2.58831e-19)
(2.45204 -1.49944 -7.59277e-19)
(2.51042 -1.4025 2.92793e-19)
(2.57074 -1.298 2.32934e-19)
(2.63009 -1.188 3.24028e-19)
(2.67554 -1.08265 -4.75983e-19)
(2.11843 -1.90177 9.32205e-19)
(2.14241 -1.75507 -4.91813e-19)
(2.15065 -1.71346 -2.03647e-19)
(2.18985 -1.65757 -7.86943e-20)
(2.23441 -1.59235 0)
(2.28401 -1.51523 1.25274e-19)
(2.33866 -1.42766 1.59067e-19)
(2.39802 -1.33253 2.60327e-19)
(2.46127 -1.23174 -2.07748e-19)
(2.52551 -1.1268 1.45599e-19)
(2.57616 -1.02898 -1.98867e-19)
(2.0363 -1.85491 5.17851e-19)
(2.04569 -1.69893 -9.87297e-19)
(2.04951 -1.64854 1.05625e-21)
(2.08526 -1.58697 6.97945e-20)
(2.12723 -1.51751 4.76177e-19)
(2.1758 -1.43738 3.83078e-19)
(2.2313 -1.3484 -5.87434e-19)
(2.29346 -1.25388 2.25048e-19)
(2.36117 -1.15607 -3.51969e-19)
(2.43136 -1.05589 -3.61194e-19)
(2.48859 -0.962073 3.81311e-19)
(1.94994 -1.79901 5.79525e-19)
(1.94574 -1.63661 -4.6838e-19)
(1.94712 -1.57765 8.83061e-20)
(1.98068 -1.51004 0)
(2.02147 -1.43544 2.08638e-19)
(2.07081 -1.35122 -3.22398e-19)
(2.12933 -1.25984 3.84745e-19)
(2.19658 -1.16539 -3.76314e-19)
(2.27073 -1.07066 1.41243e-19)
(2.34835 -0.975982 1.13057e-19)
(2.41265 -0.888178 0)
(1.86588 -1.73637 3.16864e-20)
(1.84761 -1.56658 7.27973e-20)
(1.84506 -1.49887 0)
(1.87609 -1.42459 0)
(1.91664 -1.34376 0)
(1.96869 -1.25431 1.0148e-19)
(2.03289 -1.15988 0)
(2.10805 -1.06571 -3.01778e-20)
(2.19088 -0.975323 0)
(2.27708 -0.888264 0)
(2.34828 -0.808978 0)
(1.78269 -1.67071 2.1216e-19)
(1.74709 -1.4917 -3.47236e-19)
(1.74098 -1.41201 2.21884e-19)
(1.77059 -1.32836 -1.81481e-19)
(1.81286 -1.23913 0)
(1.87047 -1.14317 -2.83221e-20)
(1.94381 -1.04568 -1.16834e-20)
(2.03025 -0.953242 3.04867e-20)
(2.1241 -0.869785 0)
(2.21981 -0.793485 0)
(2.29813 -0.724853 1.08582e-19)
(1.69871 -1.5934 -3.44408e-19)
(1.64268 -1.407 2.63082e-19)
(1.63435 -1.3124 1.31297e-20)
(1.66433 -1.21697 1.06713e-19)
(1.71138 -1.11737 -8.05545e-20)
(1.77864 -1.01402 7.13774e-22)
(1.86592 -0.914202 1.19608e-20)
(1.96711 -0.826862 1.88246e-20)
(2.07363 -0.754724 -1.40679e-20)
(2.17886 -0.693366 0)
(2.26376 -0.638491 -1.99261e-20)
(1.61447 -1.49882 0)
(1.53477 -1.30616 0)
(1.52735 -1.19257 -5.28816e-20)
(1.56127 -1.08265 3.03924e-20)
(1.61844 -0.97114 5.93666e-21)
(1.70138 -0.861449 -7.37435e-22)
(1.80685 -0.763918 -2.41923e-20)
(1.92524 -0.687437 3.41883e-20)
(2.04414 -0.632515 1.11745e-20)
(2.15591 -0.591159 -9.96488e-21)
(2.24469 -0.553329 2.15719e-21)
(1.53063 -1.38499 0)
(1.42592 -1.17908 -2.12095e-20)
(1.42476 -1.04352 -5.80081e-20)
(1.46978 -0.917359 4.37567e-20)
(1.54455 -0.794821 -6.78591e-20)
(1.65012 -0.683391 5.11395e-20)
(1.77794 -0.595814 0)
(1.91327 -0.538937 0)
(2.04093 -0.50836 -2.36969e-20)
(2.1534 -0.491783 1.01472e-20)
(2.24142 -0.474657 -2.03812e-20)
(1.46687 -1.18293 9.16248e-20)
(1.31349 -1.01536 -1.03709e-19)
(1.34423 -0.852905 1.35646e-19)
(1.40833 -0.713148 1.19956e-19)
(1.50893 -0.585999 -1.55076e-19)
(1.64242 -0.483789 -4.7985e-21)
(1.79236 -0.418528 8.90414e-20)
(1.9391 -0.391165 0)
(2.06743 -0.39085 0)
(2.17249 -0.401543 -8.41688e-20)
(2.25374 -0.407088 -7.07706e-20)
(1.32575 -1.21587 1.4205e-18)
(1.27572 -0.853335 -6.27126e-19)
(1.29808 -0.649239 1.04981e-19)
(1.39899 -0.486459 -5.0881e-19)
(1.53714 -0.362769 1.27221e-19)
(1.69904 -0.284381 1.04826e-19)
(1.862 -0.253745 2.62201e-19)
(2.00724 -0.261778 1.29729e-19)
(2.12433 -0.292386 -1.4679e-19)
(2.21248 -0.328168 3.53158e-19)
(2.27607 -0.352776 -8.92506e-20)
(1.78134 -0.143587 -9.66103e-19)
(1.24181 -0.333348 1.89127e-19)
(1.48176 -0.174484 -3.40788e-19)
(1.60761 -0.111985 -8.17978e-19)
(1.7477 -0.0721204 2.94774e-19)
(1.89235 -0.0684132 3.67173e-19)
(2.02588 -0.0983648 -8.69161e-19)
(2.13649 -0.152055 5.85784e-20)
(2.21945 -0.216091 9.52506e-20)
(2.27575 -0.276082 -2.91767e-19)
(2.31334 -0.318825 2.03215e-19)
(5.52932 -0.705878 2.2392e-19)
(4.86404 -0.605593 -6.93122e-20)
(5.05606 -0.576538 2.19461e-19)
(5.17422 -0.522529 1.46256e-19)
(5.10159 -0.436262 -3.99121e-21)
(4.92668 -0.346987 -7.44327e-20)
(4.70155 -0.270119 -4.37462e-20)
(4.48969 -0.213059 -1.66611e-20)
(4.28879 -0.162497 -5.39847e-20)
(4.1055 -0.127977 7.14139e-21)
(3.94043 -0.119767 -1.25751e-20)
(4.43895 -1.80859 -4.26223e-18)
(4.24551 -1.20326 2.45862e-18)
(4.55593 -0.756894 -1.02598e-18)
(4.84011 -0.478846 1.00959e-19)
(4.96528 -0.279279 2.62958e-20)
(4.95287 -0.125491 2.52668e-19)
(4.82528 -0.019535 1.68643e-19)
(4.62315 0.0388395 4.53016e-20)
(4.35886 0.0692933 -7.46338e-20)
(4.14194 0.078546 3.36524e-20)
(3.94562 0.0688655 1.36787e-19)
(4.46244 -4.11225 0)
(4.32161 -2.64519 -1.25642e-18)
(4.39163 -1.57839 1.72692e-18)
(4.58483 -0.897945 -8.56457e-19)
(4.76243 -0.423262 -2.19954e-19)
(4.8537 -0.0804506 -1.89182e-19)
(4.82827 0.152094 -2.20507e-19)
(4.69238 0.283486 -1.997e-20)
(4.45408 0.331421 2.06e-19)
(4.17697 0.321124 -8.93167e-20)
(3.95171 0.286435 -5.71336e-20)
(4.7828 -3.99158 0)
(4.56344 -3.71693 2.46724e-18)
(4.43363 -2.69505 -1.9592e-18)
(4.48243 -1.64262 0)
(4.61602 -0.850131 2.12408e-19)
(4.72866 -0.253187 0)
(4.75857 0.178196 -2.12385e-19)
(4.68232 0.454727 2.45396e-20)
(4.492 0.587637 1.87851e-19)
(4.21626 0.600514 0)
(3.93926 0.535999 0)
(4.98479 -4.19716 -3.41387e-20)
(4.86127 -3.9778 1.40438e-19)
(4.70987 -3.52435 -2.06529e-18)
(4.57172 -2.54996 1.55761e-18)
(4.57899 -1.49477 -1.16133e-18)
(4.64422 -0.628335 1.63939e-18)
(4.67373 0.0406444 -1.17924e-18)
(4.62058 0.513362 4.27025e-19)
(4.46467 0.789166 -1.75694e-19)
(4.20859 0.880971 0)
(3.91637 0.831167 2.97786e-20)
(5.18693 -4.44242 3.05043e-20)
(5.15355 -4.19595 2.25399e-20)
(5.01058 -3.84355 -1.61259e-19)
(4.85503 -3.25856 -1.22862e-19)
(4.69193 -2.22993 -1.49455e-19)
(4.64174 -1.16273 -1.40648e-19)
(4.61308 -0.251504 -7.35468e-19)
(4.53737 0.445444 5.44944e-19)
(4.38224 0.904742 -3.84159e-20)
(4.13835 1.12232 1.37765e-19)
(3.82596 1.12856 -2.8868e-20)
(5.36574 -4.68949 6.69393e-18)
(5.41601 -4.42925 -3.18335e-18)
(5.28538 -4.11355 -2.44755e-18)
(5.12579 -3.61167 2.11703e-18)
(4.93687 -2.88136 6.13548e-19)
(4.73684 -1.77302 -5.46259e-19)
(4.5948 -0.673106 5.22479e-19)
(4.44701 0.248079 0)
(4.25321 0.913661 5.51448e-19)
(3.99883 1.29142 4.41535e-19)
(3.69493 1.39444 -4.26068e-19)
(5.52155 -4.91508 -4.99167e-18)
(5.6309 -4.65484 3.39076e-18)
(5.50432 -4.38367 0)
(5.35218 -3.92075 0)
(5.14105 -3.27942 -4.07885e-19)
(4.88046 -2.35242 -1.47059e-19)
(4.61422 -1.17274 -2.79952e-18)
(4.35627 -0.0688819 7.37905e-19)
(4.08372 0.802235 -5.3786e-19)
(3.78416 1.36083 9.27087e-19)
(3.48032 1.59746 0)
(5.65738 -5.11222 -4.58446e-18)
(5.80143 -4.85815 3.76055e-18)
(5.66403 -4.63591 7.97139e-19)
(5.51463 -4.21575 -2.51518e-18)
(5.29588 -3.6395 -1.07345e-19)
(5.00156 -2.83993 2.38906e-18)
(4.64298 -1.69107 0)
(4.26411 -0.479814 2.08412e-18)
(3.88318 0.564596 0)
(3.51231 1.3 -9.10179e-19)
(3.16644 1.67306 -1.15836e-18)
(5.76789 -5.27012 0)
(5.928 -5.03091 0)
(5.76806 -4.85936 -7.62136e-19)
(5.61473 -4.48653 0)
(5.38322 -3.97885 1.15236e-18)
(5.06399 -3.26777 0)
(4.64132 -2.26878 0)
(4.15407 -0.981831 -3.59706e-18)
(3.64369 0.191341 -1.8827e-18)
(3.17832 1.07897 1.29602e-18)
(2.78759 1.59412 0)
(5.8344 -5.3821 -5.0279e-18)
(6.00327 -5.1742 2.87435e-18)
(5.81532 -5.04715 8.35822e-19)
(5.65216 -4.72716 -1.41059e-18)
(5.40331 -4.29821 -1.12574e-18)
(5.06428 -3.68332 0)
(4.59212 -2.80975 5.31346e-18)
(4.01678 -1.54943 2.12013e-19)
(3.37664 -0.306219 -7.63679e-20)
(2.80424 0.695348 1.49735e-18)
(2.35582 1.33821 0)
(5.8448 -5.4782 0)
(6.0071 -5.29774 1.00367e-18)
(5.80706 -5.19365 -8.19474e-19)
(5.62407 -4.9388 2.80792e-18)
(5.35107 -4.59451 1.22463e-18)
(4.98707 -4.0914 -4.4044e-18)
(4.48809 -3.35986 -2.0713e-18)
(3.82991 -2.24389 -5.57741e-21)
(3.09223 -0.932997 0)
(2.4177 0.135708 0)
(1.93038 0.874197 2.04022e-18)
(5.82618 -5.53499 2.35313e-18)
(5.9516 -5.37655 9.67935e-19)
(5.73952 -5.30516 0)
(5.52591 -5.11937 -1.41384e-18)
(5.22674 -4.8551 -3.80325e-18)
(4.83242 -4.4677 2.02873e-18)
(4.31336 -3.89054 -1.8301e-18)
(3.60079 -2.99056 0)
(2.80531 -1.67999 -4.7353e-18)
(2.03786 -0.599826 3.47101e-18)
(1.54009 0.221938 -2.04931e-18)
(5.7615 -5.53585 2.23222e-18)
(5.82462 -5.41772 -9.59989e-19)
(5.60406 -5.38079 -3.27141e-18)
(5.35523 -5.2598 1.28473e-18)
(5.02703 -5.07552 1.34568e-18)
(4.60753 -4.79671 -1.95936e-18)
(4.0805 -4.38224 1.81963e-18)
(3.40224 -3.77322 0)
(2.5377 -2.50187 0)
(1.72288 -1.44464 3.1621e-18)
(1.19904 -0.576958 -1.94067e-18)
(5.63257 -5.49069 -2.06755e-18)
(5.62676 -5.42459 4.01343e-19)
(5.39305 -5.42589 3.01631e-18)
(5.11472 -5.37418 -4.28898e-18)
(4.76171 -5.2747 4.2421e-18)
(4.32495 -5.10033 0)
(3.79422 -4.81677 0)
(3.15247 -4.36299 0)
(2.40502 -3.5739 -2.05465e-18)
(1.56406 -2.39148 -3.62133e-19)
(0.971807 -1.45952 -1.12175e-19)
(5.43354 -5.39348 0)
(5.35266 -5.38178 -4.08943e-19)
(5.09917 -5.42957 2.67454e-18)
(4.79692 -5.45553 -3.84712e-18)
(4.43164 -5.45284 -1.2605e-18)
(4.00172 -5.39349 2.40697e-18)
(3.50663 -5.23858 1.36442e-18)
(2.93741 -4.92684 1.1177e-18)
(2.28176 -4.37014 2.03441e-18)
(1.59931 -3.4196 2.41352e-18)
(0.982859 -2.42806 1.04459e-18)
(5.14072 -5.23632 3.22077e-18)
(4.98731 -5.27764 -2.30567e-18)
(4.71107 -5.38365 0)
(4.39531 -5.49851 0)
(4.03836 -5.60381 0)
(3.64664 -5.66596 -2.3615e-18)
(3.22849 -5.64142 -1.77281e-19)
(2.7835 -5.47073 9.04632e-19)
(2.29713 -5.07852 -3.0075e-18)
(1.75502 -4.35761 1.1012e-18)
(1.2094 -3.48529 -1.41905e-18)
(4.72177 -5.0216 2.55304e-18)
(4.50867 -5.1095 -2.00709e-18)
(4.21453 -5.28789 -9.92319e-20)
(3.90537 -5.50402 0)
(3.58828 -5.72399 1.53685e-18)
(3.27318 -5.9042 -4.71707e-21)
(2.97116 -5.99705 -1.27514e-18)
(2.68161 -5.94488 -3.81338e-19)
(2.37882 -5.68518 0)
(2.01916 -5.16703 0)
(1.57387 -4.39901 0)
(4.15501 -4.76963 2.02332e-18)
(3.9067 -4.88507 2.51506e-19)
(3.61207 -5.14111 -2.91066e-18)
(3.34189 -5.45517 2.84261e-18)
(3.10518 -5.77053 2.4327e-19)
(2.90979 -6.02814 -9.53888e-19)
(2.76645 -6.17449 2.01583e-19)
(2.66869 -6.15522 1.05624e-18)
(2.57046 -5.93826 -5.49644e-19)
(2.41202 -5.52248 4.4026e-19)
(2.17682 -4.94139 -5.1607e-19)
(3.47009 -4.51575 8.44327e-19)
(3.17562 -4.55403 0)
(2.9122 -4.7816 0)
(2.73617 -5.08156 1.70012e-19)
(2.65173 -5.38481 -4.32242e-20)
(2.64936 -5.61886 -2.64664e-19)
(2.72129 -5.69594 -8.51629e-19)
(2.83594 -5.50776 6.83279e-19)
(2.90131 -5.15985 4.06949e-19)
(2.83884 -4.72463 0)
(2.65254 -4.10887 -2.41454e-20)
(2.4258 -3.81484 0)
(2.38917 -3.85399 8.76624e-19)
(2.2763 -4.06251 -8.69707e-19)
(2.23249 -4.2942 -2.16961e-19)
(2.28056 -4.48529 0)
(2.44455 -4.52683 3.39754e-19)
(2.73342 -4.20349 -4.91246e-19)
(3.01052 -3.78051 7.15858e-20)
(3.10142 -3.32954 -4.05431e-19)
(2.99771 -2.99511 -4.96394e-20)
(2.72486 -2.4623 0)
(1.81908 -3.48341 7.30214e-19)
(1.76046 -3.37619 -1.03869e-18)
(1.75253 -3.4203 0)
(1.85508 -3.45677 1.33043e-18)
(2.09954 -3.32056 1.1009e-18)
(2.39994 -2.72414 -2.98073e-20)
(2.6855 -2.23683 -5.37255e-19)
(2.8749 -1.89612 -5.14041e-19)
(2.92607 -1.63096 -1.48561e-19)
(2.84643 -1.41206 0)
(2.64979 -1.15903 0)
(0.979629 -3.34675 -6.95167e-19)
(1.54294 -2.5274 -3.7933e-18)
(1.60634 -2.34615 3.32857e-18)
(1.78069 -1.97214 -2.42251e-18)
(2.01612 -1.4467 8.71693e-19)
(2.25984 -1.0585 5.47975e-19)
(2.44998 -0.803203 -1.74826e-19)
(2.5653 -0.64869 6.28666e-19)
(2.60312 -0.568235 6.76032e-19)
(2.57097 -0.53258 -1.26203e-19)
(2.48867 -0.497179 0)
(1.37029 -1.16966 -6.43646e-18)
(1.20107 -1.24508 8.87937e-19)
(1.42553 -0.895637 3.00817e-18)
(1.65516 -0.560265 -1.55212e-18)
(1.84914 -0.328071 -7.72737e-19)
(2.01398 -0.198764 -1.13593e-18)
(2.14903 -0.150307 7.49019e-19)
(2.25129 -0.160878 -4.64011e-19)
(2.31879 -0.207463 3.01305e-19)
(2.35141 -0.266025 2.63753e-19)
(2.35717 -0.311646 -1.85705e-19)
(-1.69196 2.39911 0)
(-0.977488 1.07481 0)
(-0.0978441 0.597489 3.73153e-19)
(0.580276 0.4064 0)
(1.07839 0.354644 3.09453e-19)
(1.4514 0.35189 -2.42306e-19)
(1.72985 0.371455 -5.27428e-19)
(1.94087 0.39537 1.5423e-19)
(2.10223 0.416439 -1.37672e-19)
(2.22429 0.431527 -4.26012e-21)
(2.30876 0.438463 1.59344e-20)
(-0.630522 3.87874 0)
(0.277423 2.34166 -8.57846e-18)
(0.285451 2.03659 -2.2396e-19)
(0.65783 1.48737 4.79268e-18)
(1.01788 1.12413 0)
(1.37334 0.874323 -1.70899e-18)
(1.66066 0.729043 1.33524e-18)
(1.89129 0.642152 0)
(2.07041 0.588428 -1.56967e-19)
(2.20562 0.551641 1.98064e-19)
(2.29917 0.522974 1.59549e-19)
(0.611153 4.06359 0)
(1.91991 2.39929 4.76316e-20)
(1.24238 2.76829 -3.04351e-18)
(1.34666 2.16114 2.10722e-18)
(1.39866 1.76846 0)
(1.57183 1.38581 1.76866e-18)
(1.76129 1.11118 -1.13476e-18)
(1.94741 0.916522 0)
(2.11031 0.784074 7.23374e-19)
(2.24376 0.692998 -1.0425e-18)
(2.34255 0.630664 7.63224e-19)
(1.51654 3.49436 -4.60229e-18)
(3.01772 2.05995 -4.50528e-20)
(2.17189 2.87954 0)
(2.19723 2.30056 7.46219e-20)
(2.00354 2.09983 4.93586e-20)
(1.99127 1.71366 -5.63435e-19)
(2.02862 1.41199 0)
(2.11782 1.15901 0)
(2.22162 0.97 0)
(2.32075 0.831643 -4.19069e-19)
(2.39882 0.732825 4.37075e-19)
(2.02842 2.77858 0)
(3.54163 1.69616 0)
(2.83111 2.63028 2.66434e-18)
(2.8856 2.09667 -2.39048e-18)
(2.5808 2.14032 9.44865e-20)
(2.47538 1.80347 5.73211e-19)
(2.38206 1.56448 -2.8233e-19)
(2.37038 1.31286 -4.06436e-19)
(2.39787 1.10703 4.34596e-19)
(2.44707 0.943168 -3.61617e-19)
(2.49527 0.821075 0)
(2.27992 2.10854 4.20038e-18)
(3.7567 1.35969 -4.96659e-19)
(3.21092 2.25179 1.39644e-18)
(3.33769 1.77027 -5.40597e-19)
(3.0045 1.99196 -2.08794e-18)
(2.89399 1.70822 7.00994e-20)
(2.72587 1.57097 -7.94922e-20)
(2.6444 1.35923 -1.84553e-19)
(2.60438 1.17377 0)
(2.60071 1.01144 0)
(2.60996 0.884923 -2.25881e-19)
(2.33985 1.5262 -5.27902e-18)
(3.83156 1.05476 -6.51433e-19)
(3.39284 1.85857 -3.65384e-18)
(3.59807 1.44769 2.86191e-18)
(3.27967 1.74501 6.70639e-19)
(3.19279 1.52301 0)
(3.00277 1.47542 4.31033e-19)
(2.88901 1.31425 -1.3762e-19)
(2.80486 1.16989 1.03737e-19)
(2.7598 1.02819 0)
(2.735 0.910749 3.85019e-19)
(2.27783 1.09587 -3.31332e-18)
(3.81298 0.800655 5.07677e-18)
(3.46692 1.5043 -2.77924e-18)
(3.71444 1.17064 5.75207e-19)
(3.44104 1.47877 0)
(3.38148 1.30799 7.86282e-19)
(3.19809 1.32591 -2.00814e-19)
(3.07867 1.21006 -6.28882e-19)
(2.97345 1.11248 0)
(2.90335 1.00027 1.88511e-19)
(2.85496 0.902129 4.22797e-20)
(2.17433 0.792072 4.50061e-18)
(3.73931 0.588893 -9.01022e-20)
(3.48357 1.21414 7.20934e-19)
(3.74503 0.928928 3.2275e-19)
(3.51825 1.23482 -2.48995e-19)
(3.48498 1.09545 -1.06861e-18)
(3.31973 1.1589 0)
(3.20919 1.07715 0)
(3.09972 1.02257 3.08821e-19)
(3.01877 0.940098 -1.58079e-19)
(2.95668 0.866024 -8.41814e-20)
(2.03441 0.536433 -8.40013e-20)
(3.6306 0.380571 5.65488e-20)
(3.45457 0.969436 0)
(3.72908 0.714459 -4.55937e-19)
(3.53739 1.023 1.26981e-18)
(3.52786 0.898988 -1.88411e-19)
(3.38321 0.996769 -5.69589e-19)
(3.28771 0.937186 6.77194e-19)
(3.18425 0.919328 -3.04916e-19)
(3.1034 0.862173 0)
(3.0377 0.812865 8.3417e-20)
(1.83342 0.309559 4.80849e-19)
(3.46712 0.195617 -1.97192e-18)
(3.38102 0.759774 1.24667e-18)
(3.67852 0.527705 6.14478e-20)
(3.51415 0.843399 2.83642e-19)
(3.52797 0.724104 0)
(3.40314 0.850801 -5.28877e-19)
(3.32448 0.802862 -3.00582e-19)
(3.23253 0.816822 0)
(3.15801 0.77906 -1.60013e-19)
(3.09714 0.751072 -1.38989e-19)
(1.6018 0.14066 -1.77902e-19)
(3.27376 0.0680533 2.80108e-20)
(3.27795 0.59408 7.30535e-19)
(3.59702 0.379899 3.79037e-19)
(3.46091 0.694834 -2.79599e-19)
(3.49709 0.57482 -6.23191e-19)
(3.39079 0.726296 4.83333e-19)
(3.32878 0.680686 0)
(3.25141 0.723429 0)
(3.18587 0.698216 1.58873e-19)
(3.13317 0.690893 2.24171e-20)
(1.39365 0.015998 1.19059e-19)
(3.07571 -0.0269383 0)
(3.16454 0.457269 -3.11514e-19)
(3.49576 0.26902 0)
(3.39172 0.569054 -9.18956e-20)
(3.44183 0.456802 -2.51542e-19)
(3.35675 0.619949 2.76732e-19)
(3.30837 0.575755 0)
(3.24744 0.642612 5.60178e-20)
(3.19292 0.624209 0)
(3.15124 0.635573 6.34144e-20)
(1.1804 -0.0936395 8.90303e-20)
(2.85533 -0.116805 -3.98924e-19)
(3.03916 0.329513 3.95619e-19)
(3.37872 0.183759 1.13942e-20)
(3.31318 0.458636 3.80493e-19)
(3.37004 0.367129 -2.15721e-19)
(3.30476 0.528671 -8.01782e-20)
(3.27341 0.490737 -8.07256e-21)
(3.22475 0.574561 -5.52799e-20)
(3.18413 0.562292 0)
(3.15464 0.587672 3.0815e-20)
(0.946891 -0.172493 -8.01605e-21)
(2.61771 -0.178407 -2.96078e-19)
(2.89666 0.225345 4.57157e-19)
(3.24855 0.120526 -1.7974e-19)
(3.22442 0.365157 0)
(3.28972 0.296734 2.77831e-20)
(3.23932 0.455063 -5.06213e-20)
(3.22655 0.427948 -5.62737e-20)
(3.18921 0.51637 5.51327e-20)
(3.16335 0.514685 0)
(3.14601 0.548748 2.67301e-21)
(0.730564 -0.230898 0)
(2.37421 -0.224275 -1.01745e-19)
(2.73995 0.136077 7.98879e-20)
(3.10573 0.0722454 1.18137e-20)
(3.12424 0.289415 -5.95827e-21)
(3.20055 0.244559 2.38134e-21)
(3.16771 0.392797 0)
(3.16716 0.384178 1.8604e-20)
(3.14474 0.470741 -1.84806e-20)
(3.13356 0.48092 -1.31126e-21)
(3.12905 0.519079 -2.20342e-21)
(0.515813 -0.282691 1.0755e-19)
(2.10849 -0.272344 0)
(2.55919 0.0488986 0)
(2.94493 0.028998 2.54752e-20)
(3.00947 0.224369 8.86476e-21)
(3.09729 0.208495 0)
(3.088 0.342023 0)
(3.09906 0.355602 0)
(3.09307 0.43811 0)
(3.09713 0.460145 1.0232e-20)
(3.10642 0.499827 -2.50442e-20)
(0.283176 -0.315647 4.32946e-20)
(1.81545 -0.308714 -4.25214e-20)
(2.3448 -0.0250103 8.02596e-21)
(2.75719 -0.0102948 0)
(2.87389 0.165148 0)
(2.97768 0.183945 -1.87915e-20)
(2.99628 0.304862 1.44359e-20)
(3.02255 0.340515 -3.32079e-20)
(3.03523 0.418782 2.51368e-20)
(3.05568 0.451047 0)
(3.07977 0.490172 0)
(0.0460261 -0.333529 0)
(1.49617 -0.335931 4.64138e-20)
(2.08964 -0.0895475 6.75668e-20)
(2.53034 -0.0455048 1.26299e-19)
(2.70639 0.113836 -3.19871e-20)
(2.83521 0.166215 4.11728e-20)
(2.88755 0.280489 0)
(2.93541 0.336834 0)
(2.97068 0.412081 0)
(3.00945 0.451857 1.60211e-19)
(3.04924 0.488897 8.42838e-20)
(-0.194727 -0.341486 0)
(1.14594 -0.360067 -6.14548e-20)
(1.78213 -0.150056 -6.38273e-20)
(2.25014 -0.081037 -1.63968e-19)
(2.48829 0.069603 1.95146e-19)
(2.6549 0.153028 -1.48265e-19)
(2.7512 0.267448 -2.38772e-19)
(2.83126 0.341651 1.79699e-19)
(2.89559 0.415223 0)
(2.95586 0.45918 -2.77476e-19)
(3.01261 0.493755 -1.76498e-19)
(-0.451949 -0.33482 3.60738e-23)
(0.750906 -0.381743 -6.31405e-20)
(1.40147 -0.20456 -1.95634e-19)
(1.89154 -0.115314 0)
(2.19212 0.0339985 -3.39179e-19)
(2.41214 0.144546 5.2234e-19)
(2.56767 0.263324 -3.72158e-19)
(2.69502 0.349957 5.00144e-19)
(2.79794 0.421632 -3.17715e-19)
(2.8852 0.466558 0)
(2.96131 0.498271 2.03131e-19)
(-0.711288 -0.335476 5.9207e-20)
(0.304387 -0.398524 0)
(0.925964 -0.246087 -1.07286e-19)
(1.42244 -0.136286 0)
(1.78198 0.0158221 -5.27939e-20)
(2.07057 0.145116 -2.52007e-19)
(2.30143 0.265006 3.99435e-19)
(2.49203 0.354172 -5.30272e-19)
(2.64506 0.420719 -2.63927e-20)
(2.76786 0.463962 4.33769e-19)
(2.8719 0.500941 0)
(-1.11491 -0.213659 -2.6426e-19)
(-0.275177 -0.405707 -4.12465e-19)
(0.299024 -0.239666 4.63254e-19)
(0.793058 -0.108894 0)
(1.21023 0.033772 0)
(1.57664 0.154994 0)
(1.89069 0.256223 5.27758e-19)
(2.1536 0.330376 0)
(2.36573 0.384317 7.83615e-21)
(2.53262 0.419801 -4.60411e-19)
(2.6828 0.462847 2.34977e-19)
(-1.207 -0.653725 -6.05814e-19)
(-0.699198 -0.469443 1.22982e-18)
(-0.304275 -0.209718 0)
(0.0976454 -0.0138764 0)
(0.495179 0.141172 0)
(0.876504 0.244032 -2.56523e-19)
(1.22554 0.30677 -9.14474e-19)
(1.53172 0.340133 0)
(1.79301 0.356073 6.18486e-19)
(2.01029 0.361519 0)
(2.23632 0.385804 0)
(0.918576 -4.39349 7.67904e-18)
(0.506641 -2.53752 -5.55936e-18)
(0.681393 -1.51509 0)
(1.01606 -0.819207 -9.96547e-19)
(1.3433 -0.395658 2.52133e-18)
(1.62377 -0.126321 -3.53744e-18)
(1.8461 0.0504629 1.76782e-18)
(2.01861 0.170819 0)
(2.15222 0.255204 0)
(2.25413 0.313249 2.04936e-19)
(2.326 0.349337 -3.4002e-19)
(2.44778 -4.64045 1.92495e-18)
(2.34237 -2.40818 -1.11519e-18)
(1.98706 -2.38512 0)
(1.83273 -1.66216 1.20485e-18)
(1.79758 -1.1027 1.18524e-18)
(1.87351 -0.640673 0)
(1.99294 -0.306835 0)
(2.11174 -0.0724696 6.11509e-19)
(2.21476 0.0910117 0)
(2.2954 0.204276 4.28703e-19)
(2.35062 0.277352 -6.21869e-19)
(3.36511 -3.89051 -1.18188e-18)
(3.62601 -1.26573 0)
(3.18611 -2.26375 -8.20323e-19)
(2.81878 -1.70752 3.00176e-19)
(2.51493 -1.35071 -1.17524e-18)
(2.34776 -0.920785 0)
(2.29498 -0.552123 -8.21476e-19)
(2.30457 -0.258883 1.08505e-20)
(2.33995 -0.0448992 0)
(2.37917 0.107613 1.11622e-18)
(2.40792 0.21053 -5.11239e-19)
(3.65769 -2.80248 0)
(4.25032 -0.260849 1.08014e-18)
(3.97456 -1.69298 1.67702e-18)
(3.60466 -1.25969 0)
(3.21547 -1.20045 -1.73427e-19)
(2.89755 -0.921961 1.30727e-19)
(2.6878 -0.629535 1.94755e-19)
(2.57271 -0.352381 -6.25029e-19)
(2.51679 -0.129107 -2.28746e-19)
(2.4939 0.0414488 2.92721e-19)
(2.48123 0.160173 2.57821e-19)
(3.58422 -1.83911 -1.51629e-18)
(4.40884 0.373931 2.83081e-18)
(4.32306 -1.01986 -3.92757e-18)
(4.04547 -0.646906 2.41658e-19)
(3.70663 -0.819138 6.70167e-19)
(3.35473 -0.690588 5.82962e-19)
(3.06337 -0.525941 -1.84803e-19)
(2.85468 -0.325689 0)
(2.71543 -0.138273 2.81226e-19)
(2.62709 0.0190278 -7.85816e-20)
(2.56773 0.13447 -1.58674e-19)
(3.37007 -1.10728 -1.80627e-18)
(4.33575 0.773102 0)
(4.3773 -0.438492 1.51387e-18)
(4.19385 -0.0852794 -4.23146e-19)
(3.95377 -0.379124 -5.34778e-19)
(3.63692 -0.345664 -2.6261e-19)
(3.33997 -0.30432 -8.55096e-20)
(3.0872 -0.197012 3.1414e-19)
(2.89183 -0.0748555 -2.78922e-19)
(2.74716 0.0404075 7.65733e-20)
(2.63928 0.12713 -7.74112e-20)
(3.11252 -0.562993 -7.84975e-19)
(4.17961 1.04483 -2.11444e-18)
(4.29295 0.0122452 1.64008e-19)
(4.16851 0.359189 1.14205e-18)
(4.02043 0.0173316 0)
(3.7542 0.010971 8.08956e-20)
(3.49415 -0.0391154 -6.19785e-20)
(3.23701 -0.00922511 -3.03803e-19)
(3.01715 0.0417401 -6.7486e-20)
(2.83624 0.102715 -1.90938e-19)
(2.69045 0.146977 0)
(2.86927 -0.157221 1.08583e-18)
(4.01017 1.22194 0)
(4.16142 0.355322 0)
(4.06297 0.694372 4.84037e-19)
(3.98558 0.338687 -6.11152e-19)
(3.75499 0.32976 8.97954e-19)
(3.54554 0.216405 -5.26213e-19)
(3.30148 0.196301 0)
(3.07989 0.18362 5.85821e-19)
(2.87824 0.189576 2.49117e-19)
(2.69754 0.188202 0)
(2.66113 0.15192 -1.03889e-17)
(3.85168 1.34764 3.75455e-18)
(4.01788 0.622185 2.57467e-18)
(3.93083 0.94974 -2.49412e-18)
(3.89897 0.590776 1.05416e-18)
(3.68927 0.599366 -1.36253e-18)
(3.52386 0.437973 9.96155e-19)
(3.29547 0.394427 -3.71577e-19)
(3.08433 0.328075 -4.11298e-19)
(2.87068 0.284493 6.0769e-20)
(2.65764 0.231269 -5.88361e-20)
(2.47132 0.397869 4.36372e-18)
(3.71382 1.45883 -3.91386e-19)
(3.86299 0.83761 -1.73853e-19)
(3.80347 1.15309 -3.57495e-18)
(3.77786 0.79039 1.64093e-18)
(3.59445 0.823677 0)
(3.45333 0.626145 0)
(3.23953 0.571639 0)
(3.04361 0.463738 -1.78375e-19)
(2.82382 0.385249 2.51975e-19)
(2.59004 0.292375 5.84101e-20)
(2.27289 0.563406 4.34687e-18)
(3.5705 1.57947 -3.01919e-18)
(3.69571 1.02036 -2.80911e-18)
(3.67875 1.32223 1.76714e-19)
(3.63515 0.959719 1.68401e-18)
(3.4837 1.00335 3.88093e-19)
(3.3521 0.789183 0)
(3.15402 0.724583 0)
(2.97035 0.584449 0)
(2.75216 0.484683 -3.28301e-19)
(2.51604 0.372483 -1.11605e-19)
(2.08176 0.67392 3.88231e-18)
(3.4039 1.67977 -2.27963e-18)
(3.53189 1.1662 3.16914e-18)
(3.54072 1.46328 -1.552e-19)
(3.48786 1.10264 -2.29944e-18)
(3.35664 1.14986 -3.85093e-19)
(3.23207 0.923967 0)
(3.05058 0.856025 -6.23713e-19)
(2.87618 0.689887 -3.6249e-19)
(2.66688 0.573464 2.37454e-19)
(2.4364 0.441909 -5.81583e-19)
(1.90765 0.766383 3.71217e-18)
(3.22251 1.75865 -6.799e-19)
(3.37039 1.29369 -5.1992e-19)
(3.38971 1.57119 0)
(3.33575 1.22715 5.35968e-19)
(3.21645 1.26528 0)
(3.09813 1.03481 0)
(2.93182 0.959629 6.15864e-19)
(2.76741 0.778719 -6.7707e-19)
(2.57069 0.648122 9.70159e-19)
(2.35464 0.489625 7.83426e-19)
(1.72569 0.849309 -8.31709e-19)
(3.01837 1.82362 5.78399e-19)
(3.2007 1.41064 0)
(3.22954 1.652 0)
(3.17697 1.33677 0)
(3.06825 1.35251 1.17666e-18)
(2.95613 1.12586 -7.99713e-19)
(2.80273 1.03668 9.87317e-19)
(2.64957 0.849262 -1.36533e-18)
(2.46906 0.707142 4.62409e-19)
(2.2734 0.535327 -6.28676e-20)
(1.53221 0.908247 8.43069e-19)
(2.80063 1.86374 -5.84074e-19)
(3.02175 1.50733 0)
(3.06127 1.70994 0)
(3.01185 1.42904 0)
(2.9143 1.41543 -1.17583e-18)
(2.80756 1.19702 1.48587e-18)
(2.66765 1.0897 -8.56134e-19)
(2.52774 0.900167 0)
(2.36688 0.747937 0)
(2.19695 0.57454 0)
(1.34045 0.954658 -2.86048e-18)
(2.57008 1.88491 4.13593e-18)
(2.83085 1.58558 1.29699e-18)
(2.88306 1.74722 -5.19639e-18)
(2.83971 1.50166 1.5617e-18)
(2.75347 1.45654 0)
(2.65317 1.24748 -1.84365e-18)
(2.52969 1.11942 1.03363e-18)
(2.40624 0.930205 5.43566e-19)
(2.26836 0.769442 0)
(2.12769 0.597312 0)
(1.14294 0.990999 -3.43368e-18)
(2.31716 1.8914 0)
(2.62013 1.64765 0)
(2.68983 1.76632 1.81643e-18)
(2.65722 1.55302 -1.15081e-18)
(2.58366 1.47556 1.62738e-18)
(2.49474 1.27497 3.48323e-19)
(2.39171 1.126 -1.21422e-18)
(2.28898 0.938238 0)
(2.17684 0.772331 3.56711e-19)
(2.06488 0.605468 2.12425e-19)
(0.931411 1.00893 3.70335e-18)
(2.03568 1.87847 -3.40147e-18)
(2.38093 1.68809 3.45256e-18)
(2.4742 1.76567 -1.89477e-18)
(2.45924 1.57931 0)
(2.40338 1.47002 0)
(2.3339 1.27484 6.55862e-19)
(2.25688 1.10859 1.99967e-20)
(2.1802 0.923583 -4.0495e-20)
(2.09646 0.757262 -1.94783e-19)
(2.01304 0.597704 -2.13567e-19)
(0.703157 1.00512 -6.41823e-19)
(1.7188 1.8426 -3.15122e-19)
(2.10264 1.70027 0)
(2.22599 1.73949 -7.1221e-19)
(2.23849 1.57289 -3.6501e-19)
(2.21095 1.43532 7.70167e-19)
(2.17216 1.24194 0)
(2.12918 1.06533 0)
(2.0848 0.886537 -2.87251e-19)