/*--------------------------------*- C++ -*----------------------------------*\
| =========                 |                                                 |
| \\      /  F ield         | OpenFOAM: The Open Source CFD Toolbox           |
|  \\    /   O peration     | Version:  3.0.1                                 |
|   \\  /    A nd           | Web:      www.OpenFOAM.org                      |
|    \\/     M anipulation  |                                                 |
\*---------------------------------------------------------------------------*/
FoamFile
{
    version     2.0;
    format      ascii;
    class       surfaceScalarField;
    location    "0.659154";
    object      phi;
}
// * * * * * * * * * * * * * * * * * * * * * * * * * * * * * * * * * * * * * //

dimensions      [0 3 -1 0 0 0 0];

internalField   nonuniform List<scalar> 
32369
(
2.75072e-06
6.05992e-06
-8.81065e-06
4.11841e-06
6.99717e-06
-8.36486e-06
3.8349e-06
9.5215e-06
-9.23799e-06
2.54378e-06
1.17308e-05
-1.04397e-05
4.88677e-07
1.36596e-05
-1.16045e-05
-2.16668e-06
1.53882e-05
-1.27328e-05
-5.18968e-06
1.73312e-05
-1.43082e-05
-8.44215e-06
1.99259e-05
-1.66734e-05
-1.20956e-05
2.38099e-05
-2.01564e-05
-1.63274e-05
2.94076e-05
-2.51758e-05
3.73873e-05
-3.2377e-05
-2.13377e-05
2.85546e-06
3.20446e-06
4.5796e-06
5.27304e-06
5.63601e-06
8.46509e-06
5.94193e-06
1.14249e-05
5.25008e-06
1.43514e-05
3.49453e-06
1.71438e-05
9.55148e-07
1.98706e-05
-2.0563e-06
2.29373e-05
-5.50657e-06
2.72601e-05
-9.47626e-06
3.33773e-05
4.20986e-05
-1.41875e-05
1.50039e-06
1.70407e-06
2.67056e-06
4.10287e-06
3.95686e-06
7.17879e-06
4.95683e-06
1.04249e-05
5.31885e-06
1.39894e-05
4.82849e-06
1.76341e-05
3.48964e-06
2.12095e-05
1.44606e-06
2.49809e-05
-1.04499e-06
2.97512e-05
-3.98858e-06
3.63209e-05
4.55678e-05
-7.45782e-06
5.3912e-07
1.16495e-06
1.23624e-06
3.40574e-06
2.21648e-06
6.19855e-06
3.2303e-06
9.4111e-06
4.04485e-06
1.31749e-05
4.41932e-06
1.72597e-05
4.18296e-06
2.14458e-05
3.3084e-06
2.58555e-05
1.94107e-06
3.11185e-05
1.87163e-07
3.80748e-05
4.76577e-05
-1.90272e-06
-1.05306e-07
1.27026e-06
2.26578e-07
3.07386e-06
8.943e-07
5.53083e-06
1.7402e-06
8.5652e-06
2.65426e-06
1.22608e-05
3.46761e-06
1.64463e-05
3.98115e-06
2.09323e-05
4.05907e-06
2.57775e-05
3.71455e-06
3.1463e-05
3.05218e-06
3.87372e-05
4.8543e-05
2.16694e-06
-3.27331e-07
1.59759e-06
-2.67987e-07
3.01451e-06
1.17153e-07
5.14569e-06
7.77579e-07
7.90477e-06
1.63752e-06
1.14009e-05
2.60944e-06
1.54744e-05
3.52551e-06
2.00162e-05
4.22772e-06
2.50753e-05
4.65106e-06
3.10397e-05
4.83511e-06
3.85531e-05
4.85092e-05
4.86883e-06
-2.9648e-07
1.89407e-06
-4.10247e-07
3.12828e-06
-2.54694e-07
4.99013e-06
2.3228e-07
7.4178e-06
9.87904e-07
1.06452e-05
1.9736e-06
1.44887e-05
3.06759e-06
1.89222e-05
4.12407e-06
2.40189e-05
5.04843e-06
3.01153e-05
5.83232e-06
3.77692e-05
4.78119e-05
6.5297e-06
-2.77581e-07
2.17165e-06
-4.34511e-07
3.28521e-06
-3.80268e-07
4.93589e-06
-3.57235e-08
7.07325e-06
6.11143e-07
9.99838e-06
1.54917e-06
1.35507e-05
2.69444e-06
1.7777e-05
3.9283e-06
2.2785e-05
5.15592e-06
2.88877e-05
6.35603e-06
3.65691e-05
4.66157e-05
7.55214e-06
-2.04176e-07
2.37583e-06
-3.24477e-07
3.40551e-06
-2.98635e-07
4.91005e-06
-4.82273e-08
6.82284e-06
5.2e-07
9.43015e-06
1.3949e-06
1.26758e-05
2.52296e-06
1.66489e-05
3.81692e-06
2.1491e-05
5.20398e-06
2.75006e-05
6.61866e-06
3.51544e-05
4.51813e-05
8.0531e-06
-9.86342e-08
2.47446e-06
-1.48602e-07
3.45548e-06
-8.5211e-08
4.84666e-06
1.6296e-07
6.57467e-06
6.95552e-07
8.89756e-06
1.51547e-06
1.18558e-05
2.59697e-06
1.55674e-05
3.88601e-06
2.0202e-05
5.3172e-06
2.60694e-05
6.8409e-06
3.36307e-05
4.35939e-05
8.42828e-06
-4.685e-09
2.47914e-06
2.1073e-08
3.42972e-06
1.53476e-07
4.71425e-06
4.39433e-07
6.28872e-06
9.62717e-07
8.37428e-06
1.74562e-06
1.10729e-05
2.78804e-06
1.4525e-05
4.05446e-06
1.89356e-05
5.49602e-06
2.46279e-05
7.05974e-06
3.2067e-05
4.19063e-05
8.74732e-06
5.23532e-08
2.42679e-06
1.34759e-07
3.34732e-06
3.31818e-07
4.5172e-06
6.6382e-07
5.95671e-06
1.20097e-06
7.83713e-06
1.97647e-06
1.02974e-05
3.0005e-06
1.3501e-05
4.25684e-06
1.76792e-05
5.70779e-06
2.31769e-05
7.30646e-06
3.04684e-05
4.02104e-05
9.00236e-06
1.15832e-07
2.31096e-06
2.59908e-07
3.20324e-06
5.22515e-07
4.25459e-06
9.09947e-07
5.56928e-06
1.47837e-06
7.2687e-06
2.26559e-06
9.51022e-06
3.28963e-06
1.24769e-05
4.54534e-06
1.64235e-05
6.01591e-06
2.17064e-05
7.66179e-06
2.88225e-05
3.84345e-05
9.4377e-06
1.95003e-07
2.11596e-06
4.06148e-07
2.9921e-06
7.32593e-07
3.92814e-06
1.17846e-06
5.12341e-06
1.79036e-06
6.6568e-06
2.60877e-06
8.69181e-06
3.66011e-06
1.14256e-05
4.94701e-06
1.51366e-05
6.45121e-06
2.02022e-05
8.13868e-06
2.7135e-05
3.66306e-05
9.94258e-06
2.31307e-07
1.88465e-06
4.8084e-07
2.74256e-06
8.57793e-07
3.55119e-06
1.35476e-06
4.62644e-06
2.01737e-06
5.99419e-06
2.88811e-06
7.82107e-06
3.99643e-06
1.03173e-05
5.35586e-06
1.37772e-05
6.95004e-06
1.8608e-05
8.72589e-06
2.53592e-05
3.47119e-05
1.06446e-05
2.65207e-07
1.61944e-06
5.4832e-07
2.45945e-06
9.67444e-07
3.13207e-06
1.51505e-06
4.07884e-06
2.23437e-06
5.27486e-06
3.17577e-06
6.87968e-06
4.37827e-06
9.11477e-06
5.85459e-06
1.23009e-05
7.57978e-06
1.68828e-05
9.51504e-06
2.34239e-05
3.26228e-05
1.16042e-05
3.06563e-07
1.31288e-06
6.25039e-07
2.14097e-06
1.08165e-06
2.67545e-06
1.67681e-06
3.48367e-06
2.46393e-06
4.48775e-06
3.50386e-06
5.83976e-06
4.84548e-06
7.77314e-06
6.49793e-06
1.06484e-05
8.42146e-06
1.49593e-05
1.05377e-05
2.13076e-05
3.04017e-05
1.27588e-05
3.25e-07
9.8788e-07
6.58138e-07
1.80783e-06
1.13878e-06
2.19481e-06
1.77583e-06
2.84663e-06
2.64169e-06
3.62189e-06
3.82242e-06
4.65903e-06
5.37348e-06
6.22208e-06
7.28158e-06
8.74031e-06
9.47014e-06
1.27707e-05
1.18421e-05
1.89357e-05
2.78645e-05
1.43794e-05
3.3158e-07
6.563e-07
6.61336e-07
1.47808e-06
1.14319e-06
1.71296e-06
1.81203e-06
2.17779e-06
2.78498e-06
2.64894e-06
4.18171e-06
3.26229e-06
6.04144e-06
4.36235e-06
8.29944e-06
6.48232e-06
1.08278e-05
1.02423e-05
1.35306e-05
1.62329e-05
2.50039e-05
1.63911e-05
3.17338e-07
3.38962e-07
6.09555e-07
1.18586e-06
1.03656e-06
1.28595e-06
1.72916e-06
1.48519e-06
2.88262e-06
1.49549e-06
4.6332e-06
1.51172e-06
6.93646e-06
2.05909e-06
9.63291e-06
3.78587e-06
1.25416e-05
7.33359e-06
1.5585e-05
1.31896e-05
2.17477e-05
1.88412e-05
2.30331e-07
1.08632e-07
2.80519e-07
1.13567e-06
5.20162e-07
1.0463e-06
1.36393e-06
6.41422e-07
2.98538e-06
-1.25962e-07
5.333e-06
-8.35911e-07
8.20724e-06
-8.15148e-07
1.13645e-05
6.28589e-07
1.4636e-05
4.06213e-06
1.80271e-05
9.79847e-06
1.79962e-05
2.17786e-05
-8.52407e-07
9.61039e-07
-6.14914e-07
8.98181e-07
4.25371e-07
6.01855e-09
2.37127e-06
-1.30448e-06
4.89294e-06
-2.64762e-06
7.68227e-06
-3.62525e-06
1.06492e-05
-3.78208e-06
1.37786e-05
-2.50077e-06
1.71006e-05
7.40133e-07
2.07077e-05
6.19135e-06
1.38581e-05
2.48458e-05
1.36572e-07
8.24467e-07
2.3321e-06
-1.29735e-06
4.66282e-06
-2.3247e-06
6.99886e-06
-3.64052e-06
9.29396e-06
-4.94272e-06
1.16166e-05
-5.94788e-06
1.41148e-05
-6.28029e-06
1.69197e-05
-5.30567e-06
1.9989e-05
-2.32918e-06
2.35076e-05
2.67281e-06
9.35156e-06
2.80141e-05
5.4944e-06
-4.66993e-06
7.61858e-06
-3.42153e-06
9.55505e-06
-4.26117e-06
1.1188e-05
-5.2735e-06
1.25443e-05
-6.29898e-06
1.38635e-05
-7.26706e-06
1.54966e-05
-7.91341e-06
1.78783e-05
-7.68738e-06
2.12057e-05
-5.65657e-06
2.5242e-05
-1.36355e-06
4.39012e-06
3.02035e-05
-2.92603e-06
-5.88462e-06
-4.57417e-06
-6.71672e-06
-5.92548e-06
-7.88668e-06
-7.3821e-06
-8.98306e-06
-9.04872e-06
-9.93787e-06
-1.09817e-05
-1.07999e-05
-1.33697e-05
-1.19203e-05
-1.62853e-05
-1.37578e-05
-1.97928e-05
-1.66489e-05
-2.39915e-05
-2.09771e-05
-2.73832e-05
-2.89853e-05
-2.02004e-06
-3.86458e-06
-3.76812e-06
-4.96864e-06
-5.25127e-06
-6.40353e-06
-6.63807e-06
-7.59626e-06
-8.12123e-06
-8.45472e-06
-9.99931e-06
-8.92179e-06
-1.26014e-05
-9.31818e-06
-1.60379e-05
-1.03213e-05
-2.03086e-05
-1.23782e-05
-2.55457e-05
-1.574e-05
-2.09193e-05
-3.20095e-05
-4.15151e-07
-3.44943e-06
-1.19034e-06
-4.19345e-06
-2.15479e-06
-5.43908e-06
-3.26673e-06
-6.48431e-06
-4.56535e-06
-7.1561e-06
-6.32001e-06
-7.16714e-06
-9.02936e-06
-6.60882e-06
-1.30032e-05
-6.34749e-06
-1.80742e-05
-7.30717e-06
-2.42459e-05
-9.56833e-06
-1.34327e-05
-3.17325e-05
1.89932e-07
-3.63936e-06
1.71195e-07
-4.17471e-06
-5.98076e-08
-5.20808e-06
-5.38524e-07
-6.0056e-06
-1.25197e-06
-6.44265e-06
-2.34208e-06
-6.07703e-06
-4.36296e-06
-4.58794e-06
-8.19213e-06
-2.51832e-06
-1.39145e-05
-1.58483e-06
-2.09011e-05
-2.58169e-06
-4.9641e-06
-2.93697e-05
3.51725e-07
-3.99109e-06
6.72419e-07
-4.49541e-06
9.1697e-07
-5.45263e-06
1.01251e-06
-6.10114e-06
9.36564e-07
-6.3667e-06
6.36529e-07
-5.777e-06
-1.46022e-07
-3.80539e-06
-2.37619e-06
-2.88149e-07
-7.35579e-06
3.39477e-06
-1.4883e-05
4.94554e-06
3.92086e-06
-2.3768e-05
3.87023e-07
-4.37811e-06
8.26573e-07
-4.93496e-06
1.28934e-06
-5.9154e-06
1.71643e-06
-6.52822e-06
2.08364e-06
-6.73392e-06
2.32349e-06
-6.01685e-06
2.22679e-06
-3.70869e-06
1.20298e-06
7.35664e-07
-1.95182e-06
6.54956e-06
-8.48427e-06
1.1478e-05
1.30456e-05
-1.7609e-05
3.57259e-07
-4.73537e-06
8.29292e-07
-5.40699e-06
1.36732e-06
-6.45342e-06
1.94995e-06
-7.11085e-06
2.58362e-06
-7.36759e-06
3.23244e-06
-6.66566e-06
3.74196e-06
-4.21822e-06
3.63956e-06
8.3807e-07
1.99147e-06
8.19765e-06
-2.65151e-06
1.6121e-05
2.14466e-05
-1.10525e-05
3.26817e-07
-5.06219e-06
7.89562e-07
-5.86974e-06
1.32321e-06
-6.98707e-06
1.93745e-06
-7.7251e-06
2.67297e-06
-8.10311e-06
3.55019e-06
-7.54288e-06
4.51226e-06
-5.18029e-06
5.21102e-06
1.39309e-07
4.77689e-06
8.63178e-06
2.00932e-06
1.88885e-05
2.80673e-05
-4.61143e-06
2.81062e-07
-5.34325e-06
6.81074e-07
-6.26975e-06
1.14411e-06
-7.4501e-06
1.70316e-06
-8.28415e-06
2.40885e-06
-8.8088e-06
3.32806e-06
-8.4621e-06
4.51121e-06
-6.36344e-06
5.79926e-06
-1.14874e-06
6.41083e-06
8.02021e-06
5.37734e-06
1.9922e-05
3.20393e-05
1.40543e-06
1.80905e-07
-5.52415e-06
5.01129e-07
-6.58997e-06
8.62494e-07
-7.81147e-06
1.28845e-06
-8.71011e-06
1.84834e-06
-9.36869e-06
2.63467e-06
-9.24843e-06
3.79003e-06
-7.51879e-06
5.38346e-06
-2.74218e-06
6.79573e-06
6.60795e-06
7.09936e-06
1.96184e-05
3.3895e-05
5.24359e-06
8.09745e-08
-5.60513e-06
3.45959e-07
-6.85496e-06
4.276e-07
-7.89311e-06
6.71361e-07
-8.95387e-06
9.99521e-07
-9.69685e-06
1.50314e-06
-9.75205e-06
2.37415e-06
-8.38979e-06
3.93192e-06
-4.29995e-06
5.9055e-06
4.63436e-06
7.19512e-06
1.83288e-05
3.38498e-05
7.24032e-06
-1.83931e-08
-5.58673e-06
-1.53494e-08
-6.858e-06
-8.99262e-09
-7.89946e-06
-1.99459e-08
-8.94291e-06
-1.00296e-08
-9.70676e-06
6.86576e-08
-9.83074e-06
3.8142e-07
-8.70256e-06
1.40037e-06
-5.3189e-06
3.57816e-06
2.45657e-06
5.70842e-06
1.61985e-05
3.19371e-05
7.62113e-06
-1.46728e-07
-5.44001e-06
-3.15279e-07
-6.68945e-06
-5.37675e-07
-7.67707e-06
-8.29278e-07
-8.65131e-06
-1.17105e-06
-9.36499e-06
-1.53088e-06
-9.47091e-06
-1.80482e-06
-8.42862e-06
-1.73065e-06
-5.39307e-06
-2.45733e-07
9.71653e-07
2.69423e-06
1.32586e-05
2.98746e-05
4.75674e-06
-3.19353e-07
-5.12065e-06
-6.9688e-07
-6.31192e-06
-1.17783e-06
-7.19612e-06
-1.78034e-06
-8.0488e-06
-2.50399e-06
-8.64134e-06
-3.32314e-06
-8.65176e-06
-4.14301e-06
-7.60874e-06
-4.70594e-06
-4.83015e-06
-4.47874e-06
7.44456e-07
-2.19643e-06
1.09763e-05
2.61664e-05
1.51176e-06
-4.60338e-07
-4.66031e-06
-1.05123e-06
-5.72104e-06
-1.80558e-06
-6.44177e-06
-2.75043e-06
-7.10395e-06
-3.89758e-06
-7.49419e-06
-5.22745e-06
-7.32189e-06
-6.64756e-06
-6.18863e-06
-7.92122e-06
-3.5565e-06
-8.57016e-06
1.39339e-06
-7.37858e-06
9.78468e-06
2.25465e-05
-3.7586e-06
-6.06193e-07
-4.05412e-06
-1.41795e-06
-4.90928e-06
-2.45365e-06
-5.40607e-06
-3.7539e-06
-5.80369e-06
-5.33906e-06
-5.90904e-06
-7.18818e-06
-5.47277e-06
-9.20975e-06
-4.16706e-06
-1.11701e-05
-1.59617e-06
-1.25378e-05
2.76112e-06
-1.22965e-05
9.54334e-06
1.92803e-05
-9.03029e-06
-7.58917e-07
-3.2952e-06
-1.79433e-06
-3.87387e-06
-3.11435e-06
-4.08604e-06
-4.78061e-06
-4.13743e-06
-6.82361e-06
-3.86604e-06
-9.21995e-06
-3.07643e-06
-1.19026e-05
-1.48441e-06
-1.46223e-05
1.12351e-06
-1.67924e-05
4.93128e-06
-1.75913e-05
1.03422e-05
1.80476e-05
-1.63586e-05
-9.06397e-07
-2.38881e-06
-2.15029e-06
-2.62998e-06
-3.74725e-06
-2.48909e-06
-5.78075e-06
-2.10393e-06
-8.30928e-06
-1.33751e-06
-1.12973e-05
-8.84291e-08
-1.45534e-05
1.7717e-06
-1.77545e-05
4.32458e-06
-2.05354e-05
7.71223e-06
-2.24187e-05
1.22256e-05
1.8049e-05
-2.24202e-05
-1.04796e-06
-1.34085e-06
-2.46061e-06
-1.21733e-06
-4.27905e-06
-6.7065e-07
-6.5654e-06
1.82425e-07
-9.30404e-06
1.40112e-06
-1.24338e-05
3.04129e-06
-1.58184e-05
5.15637e-06
-1.93483e-05
7.85449e-06
-2.27979e-05
1.11618e-05
-2.56356e-05
1.50633e-05
1.97299e-05
-2.73165e-05
-1.06268e-06
-2.78168e-07
-2.42199e-06
1.41974e-07
-4.08558e-06
9.92944e-07
-6.14025e-06
2.23709e-06
-8.62555e-06
3.88643e-06
-1.15377e-05
5.95347e-06
-1.48052e-05
8.42389e-06
-1.82497e-05
1.12989e-05
-2.1619e-05
1.45312e-05
-2.44986e-05
1.79429e-05
2.14698e-05
-2.62385e-05
-8.84018e-07
6.0585e-07
-1.95599e-06
1.21395e-06
-3.28639e-06
2.32335e-06
-4.96475e-06
3.91545e-06
-7.02172e-06
5.9434e-06
-9.36576e-06
8.29752e-06
-1.18311e-05
1.08893e-05
-1.41877e-05
1.36555e-05
-1.60815e-05
1.64249e-05
-1.68622e-05
1.87236e-05
1.97967e-05
-1.51891e-05
-6.67492e-07
1.27334e-06
-1.45801e-06
2.00446e-06
-2.4916e-06
3.35694e-06
-3.73368e-06
5.15752e-06
-5.05833e-06
7.26805e-06
-6.31096e-06
9.55015e-06
-7.31454e-06
1.18929e-05
-7.8021e-06
1.41431e-05
-7.10675e-06
1.57296e-05
-3.79385e-06
1.54107e-05
1.16896e-05
4.31322e-06
-7.74967e-07
2.04831e-06
-1.50723e-06
2.73673e-06
-2.32336e-06
4.17307e-06
-2.95521e-06
5.78937e-06
-3.21738e-06
7.53022e-06
-2.97077e-06
9.30354e-06
-2.03869e-06
1.09608e-05
-1.75373e-08
1.21219e-05
3.90312e-06
1.18089e-05
1.05695e-05
8.74435e-06
2.86973e-06
1.93894e-05
-2.62162e-06
-3.30642e-06
-3.39452e-06
-2.87866e-06
-1.64742e-06
3.89052e-07
3.43642e-06
7.87094e-06
1.40233e-05
2.14041e-05
2.86639e-05
-1.49482e-05
-6.6576e-06
2.16058e-05
-2.40006e-05
-9.08291e-06
1.81353e-05
-3.16924e-05
-1.11654e-05
1.88572e-05
-3.83199e-05
-1.28306e-05
1.94581e-05
-4.44036e-05
-1.41302e-05
2.02139e-05
-5.05222e-05
-1.50364e-05
2.1155e-05
-5.7184e-05
-1.55438e-05
2.22056e-05
-6.47716e-05
-1.56337e-05
2.32213e-05
-7.36129e-05
-1.52164e-05
2.40576e-05
-8.40657e-05
-1.40865e-05
2.45394e-05
-1.18839e-05
2.43843e-05
-9.65661e-05
-8.61111e-06
1.95351e-06
-1.71844e-05
-5.0965e-07
-2.50616e-05
-3.28815e-06
-3.22179e-05
-5.67437e-06
-3.90169e-05
-7.33114e-06
-4.59033e-05
-8.15004e-06
-5.33157e-05
-8.13136e-06
-6.16946e-05
-7.25479e-06
-7.146e-05
-5.45098e-06
-8.30489e-05
-2.49762e-06
1.9814e-06
-9.69143e-05
-3.60128e-06
5.55479e-06
-8.57842e-06
4.46749e-06
-1.52042e-05
3.33766e-06
-2.26457e-05
1.7671e-06
-3.03937e-05
4.16836e-07
-3.82772e-05
-2.66545e-07
-4.65431e-05
1.34553e-07
-5.56372e-05
1.83929e-06
-6.60888e-05
5.0007e-06
-7.84114e-05
9.82497e-06
1.67162e-05
-9.31462e-05
-1.92849e-06
7.48328e-06
-4.81948e-06
7.35847e-06
-9.26123e-06
7.77942e-06
-1.50774e-05
7.58326e-06
-2.21122e-05
7.45161e-06
-3.01149e-05
7.73621e-06
-3.8943e-05
8.96268e-06
-4.86672e-05
1.15634e-05
-5.95692e-05
1.59027e-05
-7.20831e-05
2.23389e-05
3.13305e-05
-8.66974e-05
-1.6176e-06
9.10088e-06
-4.03454e-06
9.77541e-06
-7.44492e-06
1.11898e-05
-1.19768e-05
1.21151e-05
-1.77825e-05
1.32573e-05
-2.48295e-05
1.47833e-05
-3.30215e-05
1.71546e-05
-4.23394e-05
2.08813e-05
-5.29158e-05
2.64791e-05
-6.50401e-05
3.44632e-05
4.54752e-05
-7.91848e-05
-1.29537e-06
1.03962e-05
-3.45093e-06
1.1931e-05
-6.19741e-06
1.39363e-05
-9.89619e-06
1.58139e-05
-1.47093e-05
1.80704e-05
-2.07339e-05
2.08078e-05
-2.8003e-05
2.44238e-05
-3.65337e-05
2.9412e-05
-4.64075e-05
3.63529e-05
-5.78263e-05
4.5882e-05
5.88072e-05
-7.11583e-05
-1.17862e-06
1.15749e-05
-2.954e-06
1.37064e-05
-5.28379e-06
1.62661e-05
-8.39961e-06
1.89297e-05
-1.24462e-05
2.21171e-05
-1.75773e-05
2.59389e-05
-2.39039e-05
3.07504e-05
-3.15077e-05
3.70157e-05
-4.04888e-05
4.5334e-05
-5.10024e-05
5.63956e-05
7.1053e-05
-6.32482e-05
-1.08206e-06
1.26569e-05
-2.68889e-06
1.53132e-05
-4.71911e-06
1.82963e-05
-7.38657e-06
2.15972e-05
-1.08257e-05
2.55562e-05
-1.52061e-05
3.03192e-05
-2.06666e-05
3.62109e-05
-2.7335e-05
4.36842e-05
-3.53329e-05
5.33319e-05
-4.48219e-05
6.58846e-05
8.22683e-05
-5.60372e-05
-9.92429e-07
1.36494e-05
-2.41967e-06
1.67404e-05
-4.20905e-06
2.00857e-05
-6.51752e-06
2.39057e-05
-9.47461e-06
2.85133e-05
-1.32304e-05
3.4075e-05
-1.79356e-05
4.09161e-05
-2.37397e-05
4.94884e-05
-3.07833e-05
6.03755e-05
-3.9246e-05
7.43473e-05
9.23864e-05
-4.93641e-05
-7.63373e-07
1.44127e-05
-1.95002e-06
1.79271e-05
-3.48237e-06
2.1618e-05
-5.46979e-06
2.58931e-05
-8.00928e-06
3.10528e-05
-1.12438e-05
3.73095e-05
-1.53122e-05
4.49845e-05
-2.03662e-05
5.45423e-05
-2.65597e-05
6.65691e-05
-3.40743e-05
8.18619e-05
0.000101437
-4.31249e-05
-5.63748e-07
1.49765e-05
-1.5412e-06
1.89045e-05
-2.82022e-06
2.2897e-05
-4.49205e-06
2.75649e-05
-6.64954e-06
3.32103e-05
-9.40169e-06
4.00617e-05
-1.28843e-05
4.84671e-05
-1.72322e-05
5.88902e-05
-2.26065e-05
7.19434e-05
-2.91738e-05
8.84291e-05
0.000109392
-3.71292e-05
-5.30308e-07
1.55068e-05
-1.3726e-06
1.97468e-05
-2.43276e-06
2.39572e-05
-3.81563e-06
2.89478e-05
-5.59254e-06
3.49872e-05
-7.86849e-06
4.23376e-05
-1.07644e-05
5.1363e-05
-1.44036e-05
6.25295e-05
-1.89347e-05
7.64745e-05
-2.45262e-05
9.40207e-05
0.000116242
-3.13756e-05
-4.07392e-07
1.59142e-05
-1.06797e-06
2.04074e-05
-1.90584e-06
2.47951e-05
-3.00041e-06
3.00423e-05
-4.41106e-06
3.63979e-05
-6.22792e-06
4.41545e-05
-8.55324e-06
5.36883e-05
-1.15046e-05
6.54808e-05
-1.52115e-05
8.01814e-05
-1.98372e-05
9.86464e-05
0.000121987
-2.55827e-05
-1.34263e-07
1.60484e-05
-5.2672e-07
2.07998e-05
-1.08693e-06
2.53553e-05
-1.86892e-06
3.08243e-05
-2.9029e-06
3.74318e-05
-4.26374e-06
4.55153e-05
-6.03128e-06
5.54559e-05
-8.30305e-06
6.77526e-05
-1.11918e-05
8.30701e-05
-1.48336e-05
0.000102288
0.000126534
-1.93806e-05
-5.01423e-08
1.60986e-05
-2.44848e-07
2.09945e-05
-5.39649e-07
2.56501e-05
-9.79996e-07
3.12647e-05
-1.58856e-06
3.80404e-05
-2.43033e-06
4.63571e-05
-3.56214e-06
5.65877e-05
-5.06331e-06
6.92537e-05
-7.01393e-06
8.50207e-05
-9.52604e-06
0.0001048
0.000129734
-1.2726e-05
9.2559e-08
1.6006e-05
1.42349e-07
2.09448e-05
1.50428e-07
2.5642e-05
9.01319e-08
3.1325e-05
-5.83117e-08
3.81888e-05
-3.30229e-07
4.6629e-05
-7.68343e-07
5.70258e-05
-1.42185e-06
6.99072e-05
-2.33504e-06
8.59339e-05
-3.58891e-06
0.000106054
0.00013142
-5.27482e-06
3.79333e-07
1.56267e-05
7.79811e-07
2.05443e-05
1.16366e-06
2.52582e-05
1.53164e-06
3.0957e-05
1.90395e-06
3.78165e-05
2.25451e-06
4.62785e-05
2.58354e-06
5.66968e-05
2.87478e-06
6.9616e-05
3.10761e-06
8.57011e-05
3.25557e-06
0.000105906
0.000131366
3.31007e-06
5.90154e-07
1.50365e-05
1.32315e-06
1.98113e-05
2.11284e-06
2.44685e-05
2.9874e-06
3.00825e-05
3.96262e-06
3.68413e-05
5.05382e-06
4.51873e-05
6.28905e-06
5.54615e-05
7.69852e-06
6.82065e-05
9.30975e-06
8.40899e-05
1.11585e-05
0.000104057
0.000129276
1.32482e-05
8.43891e-07
1.41927e-05
1.96404e-06
1.86911e-05
3.21889e-06
2.32136e-05
4.65753e-06
2.86438e-05
6.32285e-06
3.5176e-05
8.27655e-06
4.32336e-05
1.05857e-05
5.31524e-05
1.33254e-05
6.54668e-05
1.65761e-05
8.08392e-05
2.04233e-05
0.00010021
0.000124754
2.49457e-05
1.14716e-06
1.30455e-05
2.70426e-06
1.7134e-05
4.49222e-06
2.14257e-05
6.58559e-06
2.65504e-05
9.05777e-06
3.27038e-05
1.20272e-05
4.02641e-05
1.56028e-05
4.95768e-05
1.99137e-05
6.11559e-05
2.50988e-05
7.56541e-05
3.13338e-05
9.39752e-05
0.000117252
3.88348e-05
1.48266e-06
1.15628e-05
3.50119e-06
1.51155e-05
5.87778e-06
1.90491e-05
8.70801e-06
2.37202e-05
1.21173e-05
2.92945e-05
1.62719e-05
3.61095e-05
2.13341e-05
4.45146e-05
2.74854e-05
5.50046e-05
3.49245e-05
6.8215e-05
4.39261e-05
8.49736e-05
0.000106347
5.48317e-05
1.72312e-06
9.83971e-06
4.19976e-06
1.26389e-05
7.19254e-06
1.60563e-05
1.08464e-05
2.00663e-05
1.53347e-05
2.48063e-05
2.08545e-05
3.05897e-05
2.76028e-05
3.77663e-05
3.58058e-05
4.68017e-05
4.57508e-05
5.827e-05
5.78252e-05
7.28992e-05
9.17081e-05
7.2464e-05
1.8304e-06
8.00931e-06
4.8609e-06
9.60837e-06
8.39997e-06
1.25172e-05
1.29046e-05
1.55616e-05
1.8525e-05
1.91859e-05
2.54638e-05
2.36509e-05
3.39449e-05
2.92852e-05
4.42528e-05
3.64937e-05
5.67874e-05
4.57354e-05
7.20809e-05
5.76057e-05
7.30086e-05
9.07804e-05
-1.31685e-06
9.32616e-06
2.3255e-06
5.96602e-06
7.44166e-06
7.40106e-06
1.34641e-05
9.53919e-06
2.06822e-05
1.19679e-05
2.9277e-05
1.50561e-05
3.94865e-05
1.90757e-05
5.17555e-05
2.42247e-05
6.66654e-05
3.08256e-05
8.49156e-05
3.93555e-05
5.05497e-05
0.000107375
3.5564e-07
2.12502e-05
-6.27335e-07
1.91183e-05
-6.24164e-06
2.44715e-05
-1.42607e-05
2.74772e-05
-2.28626e-05
2.88158e-05
-3.16759e-05
2.99684e-05
-4.09937e-05
3.15234e-05
-5.10975e-05
3.33251e-05
-6.23264e-05
3.52865e-05
-7.49823e-05
3.71953e-05
3.88433e-05
-8.94413e-05
6.63171e-06
1.46185e-05
8.79393e-06
1.69561e-05
7.28028e-06
2.59851e-05
2.55024e-06
3.22072e-05
-4.9979e-06
3.63639e-05
-1.42315e-05
3.9202e-05
-2.45676e-05
4.18594e-05
-3.595e-05
4.47076e-05
-4.85628e-05
4.78993e-05
-6.27302e-05
5.13627e-05
5.49581e-05
-7.8845e-05
4.27922e-06
1.03393e-05
5.97308e-06
1.52622e-05
6.6825e-06
2.52757e-05
5.25283e-06
3.36369e-05
7.74424e-07
4.08423e-05
-6.24493e-06
4.62214e-05
-1.51254e-05
5.07398e-05
-2.55392e-05
5.51214e-05
-3.7368e-05
5.97281e-05
-5.07614e-05
6.47561e-05
7.011e-05
-6.59133e-05
2.83033e-06
7.50892e-06
3.60163e-06
1.44909e-05
4.44424e-06
2.44331e-05
4.14562e-06
3.39355e-05
1.78797e-06
4.32e-05
-2.76709e-06
5.07764e-05
-9.34998e-06
5.73227e-05
-1.77603e-05
6.35317e-05
-2.77871e-05
6.97549e-05
-3.93831e-05
7.63521e-05
8.34365e-05
-5.27095e-05
1.97636e-06
5.53256e-06
2.49987e-06
1.39674e-05
3.06195e-06
2.3871e-05
2.882e-06
3.41155e-05
1.52575e-06
4.45562e-05
-1.29498e-06
5.35971e-05
-5.79e-06
6.18177e-05
-1.20028e-05
6.97445e-05
-1.98521e-05
7.76042e-05
-2.92265e-05
8.57265e-05
9.43735e-05
-4.01635e-05
1.27406e-06
4.2585e-06
1.97647e-06
1.3265e-05
2.58241e-06
2.32651e-05
2.4801e-06
3.42178e-05
1.62064e-06
4.54157e-05
-1.70648e-07
5.53884e-05
-3.16314e-06
6.48102e-05
-7.5157e-06
7.40971e-05
-1.32861e-05
8.33746e-05
-2.04434e-05
9.28838e-05
0.000102782
-2.88517e-05
9.65117e-07
3.29339e-06
1.80043e-06
1.24297e-05
2.50056e-06
2.25649e-05
2.5869e-06
3.41314e-05
2.12337e-06
4.58792e-05
1.03812e-06
5.64737e-05
-8.70835e-07
6.67192e-05
-3.76546e-06
7.69917e-05
-7.77212e-06
8.73813e-05
-1.29672e-05
9.80789e-05
0.000109203
-1.93888e-05
7.05995e-07
2.58739e-06
1.57361e-06
1.1562e-05
2.33813e-06
2.18004e-05
2.65235e-06
3.38172e-05
2.59556e-06
4.5936e-05
2.12085e-06
5.69484e-05
1.11465e-06
6.77254e-05
-5.46691e-07
7.8653e-05
-3.01204e-06
8.98467e-05
-6.33466e-06
0.000101401
0.000113312
-1.04435e-05
5.33518e-07
2.05387e-06
1.39456e-06
1.0701e-05
2.25393e-06
2.0941e-05
2.83313e-06
3.3238e-05
3.18976e-06
4.55794e-05
3.28163e-06
5.68565e-05
3.07307e-06
6.7934e-05
2.46981e-06
7.92563e-05
1.35545e-06
9.0961e-05
-3.72883e-07
0.00010313
0.00011563
-2.6908e-06
3.94351e-07
1.65952e-06
1.26727e-06
9.82808e-06
2.24703e-06
1.99613e-05
3.12155e-06
3.23635e-05
3.90052e-06
4.48004e-05
4.55442e-06
5.62026e-05
5.08061e-06
6.74078e-05
5.44403e-06
7.88929e-05
5.55898e-06
9.08461e-05
5.36807e-06
0.000103321
0.000116209
4.78883e-06
3.91205e-07
1.26832e-06
1.32358e-06
8.89571e-06
2.45446e-06
1.88304e-05
3.66049e-06
3.11575e-05
4.88888e-06
4.3572e-05
6.08588e-06
5.50056e-05
7.30619e-06
6.61874e-05
8.54427e-06
7.76548e-05
9.78807e-06
8.96023e-05
1.10148e-05
0.000102094
0.000114955
1.22694e-05
3.73741e-07
8.94578e-07
1.27117e-06
7.99828e-06
2.50646e-06
1.75951e-05
4.02244e-06
2.96415e-05
5.71266e-06
4.18818e-05
7.49182e-06
5.32265e-05
9.42562e-06
6.42536e-05
1.15642e-05
7.55162e-05
1.39296e-05
8.72369e-05
1.65424e-05
9.94812e-05
0.000111973
1.95237e-05
3.05298e-07
5.8928e-07
1.17281e-06
7.13077e-06
2.58483e-06
1.61831e-05
4.44418e-06
2.77821e-05
6.60932e-06
3.97166e-05
8.98826e-06
5.08475e-05
1.16521e-05
6.15898e-05
1.46793e-05
7.2489e-05
1.81518e-05
8.37643e-05
2.21055e-05
9.55275e-05
0.000107458
2.66207e-05
3.38936e-07
2.50344e-07
1.24822e-06
6.22148e-06
2.82805e-06
1.46033e-05
5.03195e-06
2.55782e-05
7.66276e-06
3.70858e-05
1.06471e-05
4.78631e-05
1.4046e-05
5.81909e-05
1.79742e-05
6.85609e-05
2.25428e-05
7.91957e-05
2.7866e-05
9.02042e-05
0.000101311
3.40133e-05
3.31907e-07
-8.15632e-08
1.22313e-06
5.33026e-06
2.90704e-06
1.29194e-05
5.38793e-06
2.30974e-05
8.51167e-06
3.39621e-05
1.2143e-05
4.42318e-05
1.63321e-05
5.40019e-05
2.1231e-05
6.36619e-05
2.69856e-05
7.34411e-05
3.37456e-05
8.34443e-05
9.34748e-05
4.15819e-05
3.08364e-07
-3.89927e-07
1.20968e-06
4.42895e-06
2.99415e-06
1.11349e-05
5.75204e-06
2.03395e-05
9.3401e-06
3.0374e-05
1.3611e-05
3.99609e-05
1.86345e-05
4.89784e-05
2.45532e-05
5.77432e-05
3.15549e-05
6.64394e-05
3.98325e-05
7.51667e-05
8.36455e-05
4.96618e-05
3.19015e-07
-7.08943e-07
1.2222e-06
3.52576e-06
3.07967e-06
9.27741e-06
6.0695e-06
1.73496e-05
1.00905e-05
2.6353e-05
1.50244e-05
3.50271e-05
2.0889e-05
4.31137e-05
2.78895e-05
5.07427e-05
3.62039e-05
5.8125e-05
4.60287e-05
6.53419e-05
7.19648e-05
5.77094e-05
3.13699e-07
-1.02264e-06
1.1899e-06
2.64956e-06
3.05608e-06
7.41124e-06
6.18407e-06
1.42216e-05
1.0552e-05
2.19851e-05
1.60928e-05
2.94862e-05
2.28722e-05
3.63344e-05
3.10293e-05
4.25856e-05
4.07179e-05
4.84364e-05
5.20938e-05
5.39661e-05
5.86977e-05
6.53609e-05
2.9171e-07
-1.31435e-06
1.06065e-06
1.88063e-06
2.83822e-06
5.63367e-06
5.96843e-06
1.10914e-05
1.05845e-05
1.7369e-05
1.66979e-05
2.33728e-05
2.43814e-05
2.86508e-05
3.37354e-05
3.32316e-05
4.48144e-05
3.73574e-05
5.77824e-05
4.09981e-05
4.35081e-05
7.2972e-05
8.53326e-08
-1.39968e-06
6.87025e-07
1.27893e-06
2.23732e-06
4.08338e-06
5.19561e-06
8.13313e-06
9.93048e-06
1.26342e-05
1.65173e-05
1.6786e-05
2.50312e-05
2.01369e-05
3.54311e-05
2.28317e-05
4.78332e-05
2.49553e-05
6.21685e-05
2.66628e-05
2.67881e-05
7.88885e-05
-6.19605e-08
-1.33772e-06
8.98831e-08
1.12709e-06
1.21287e-06
2.96039e-06
3.85276e-06
5.49324e-06
8.49853e-06
7.98842e-06
1.54e-05
9.88457e-06
2.44633e-05
1.10736e-05
3.55262e-05
1.17688e-05
4.8523e-05
1.19585e-05
6.38464e-05
1.13394e-05
8.83886e-06
8.17957e-05
-1.89764e-06
5.59914e-07
-2.04108e-06
1.27053e-06
-1.35234e-06
2.27165e-06
1.13726e-06
3.00364e-06
5.90939e-06
3.21629e-06
1.29534e-05
2.84055e-06
2.19923e-05
2.03469e-06
3.30202e-05
7.4085e-07
4.6389e-05
-1.41021e-06
6.2632e-05
-4.90359e-06
-1.03171e-05
8.17879e-05
-9.03078e-07
1.46299e-06
7.7966e-08
2.89484e-07
3.05586e-06
-7.06245e-07
8.33863e-06
-2.27912e-06
1.56737e-05
-4.11883e-06
2.48478e-05
-6.33351e-06
3.59057e-05
-9.02321e-06
4.91163e-05
-1.24698e-05
6.47216e-05
-1.70154e-05
8.28865e-05
-2.30685e-05
-3.11056e-05
0.000103675
1.07892e-05
1.70447e-05
2.37395e-05
3.09995e-05
3.88486e-05
4.75711e-05
5.76236e-05
6.93785e-05
8.31887e-05
9.94756e-05
0.00011892
-4.2369e-06
1.82977e-05
-1.40608e-05
-8.29975e-06
1.69333e-05
-1.28704e-05
-1.44969e-05
2.01993e-05
-1.40021e-05
-2.12071e-05
2.21893e-05
-1.54791e-05
-2.80105e-05
2.44143e-05
-1.76108e-05
-3.50804e-05
2.74698e-05
-2.03999e-05
-4.26927e-05
3.16158e-05
-2.40035e-05
-5.11768e-05
3.71219e-05
-2.86378e-05
-6.08903e-05
4.43403e-05
-3.46268e-05
-7.22424e-05
5.37667e-05
-4.24146e-05
6.61405e-05
-5.25893e-05
-8.57936e-05
2.91068e-06
1.5387e-05
3.42684e-06
1.64171e-05
4.91033e-07
2.31351e-05
-4.27626e-06
2.69566e-05
-1.05167e-05
3.06548e-05
-1.77385e-05
3.46915e-05
-2.58169e-05
3.96942e-05
-3.49013e-05
4.62063e-05
-4.52965e-05
5.47355e-05
-5.741e-05
6.58802e-05
8.04765e-05
-7.17461e-05
2.51066e-06
1.28764e-05
3.18063e-06
1.57471e-05
2.6995e-06
2.36162e-05
7.5789e-07
2.88982e-05
-3.18914e-06
3.46018e-05
-8.71389e-06
4.02162e-05
-1.55433e-05
4.65236e-05
-2.3562e-05
5.42249e-05
-3.28705e-05
6.40441e-05
-4.37414e-05
7.6751e-05
9.33283e-05
-5.65932e-05
1.76469e-06
1.11117e-05
1.97287e-06
1.55389e-05
2.21782e-06
2.33713e-05
1.55531e-06
2.95607e-05
-5.51568e-07
3.67087e-05
-4.05985e-06
4.37245e-05
-8.97425e-06
5.1438e-05
-1.51818e-05
6.04324e-05
-2.26497e-05
7.15121e-05
-3.14559e-05
8.55571e-05
0.00010365
-4.17778e-05
1.34901e-06
9.76269e-06
1.53222e-06
1.53557e-05
1.88377e-06
2.30197e-05
1.61546e-06
2.9829e-05
5.57057e-07
3.77671e-05
-1.46794e-06
4.57495e-05
-4.64007e-06
5.46102e-05
-8.98004e-06
6.47724e-05
-1.44602e-05
7.69922e-05
-2.10916e-05
9.21885e-05
0.000111491
-2.89325e-05
1.20547e-06
8.55722e-06
1.66085e-06
1.49004e-05
2.20283e-06
2.24777e-05
2.19182e-06
2.984e-05
1.70734e-06
3.82516e-05
5.7056e-07
4.68863e-05
-1.36334e-06
5.65441e-05
-4.19914e-06
6.76082e-05
-7.96251e-06
8.07556e-05
-1.26599e-05
9.68859e-05
0.000117085
-1.8254e-05
1.12975e-06
7.42747e-06
1.85188e-06
1.41782e-05
2.60978e-06
2.17198e-05
2.89416e-06
2.95556e-05
2.83861e-06
3.83071e-05
2.31191e-06
4.7413e-05
1.22606e-06
5.76299e-05
-4.85732e-07
6.932e-05
-2.87843e-06
8.31483e-05
-5.99143e-06
9.99989e-05
0.000120907
-9.81346e-06
9.50372e-07
6.47709e-06
1.86782e-06
1.32608e-05
2.79284e-06
2.07948e-05
3.35333e-06
2.89951e-05
3.66961e-06
3.79908e-05
3.62583e-06
4.74568e-05
3.21346e-06
5.80423e-05
2.37676e-06
7.01567e-05
1.0788e-06
8.44463e-05
-6.80107e-07
0.000101758
0.000123078
-2.85076e-06
9.13784e-07
5.56331e-06
1.95684e-06
1.22177e-05
3.01881e-06
1.97328e-05
3.83378e-06
2.81802e-05
4.46406e-06
3.73606e-05
4.82341e-06
4.70974e-05
4.93889e-06
5.79268e-05
4.79002e-06
7.03056e-05
4.35977e-06
8.48765e-05
3.64546e-06
0.000102472
0.000124021
2.70265e-06
9.87376e-07
4.57593e-06
2.2068e-06
1.09983e-05
3.47068e-06
1.84689e-05
4.56517e-06
2.70857e-05
5.49657e-06
3.64292e-05
6.20558e-06
4.63884e-05
6.74129e-06
5.73911e-05
7.12012e-06
6.99267e-05
7.34274e-06
8.46539e-05
7.42355e-06
0.000102391
0.00012411
7.33395e-06
9.93412e-07
3.58252e-06
2.3194e-06
9.67233e-06
3.76286e-06
1.70255e-05
5.13637e-06
2.57122e-05
6.37838e-06
3.51871e-05
7.43632e-06
4.53305e-05
8.37169e-06
5.64557e-05
9.22715e-06
6.90713e-05
1.0039e-05
8.3842e-05
1.08387e-05
0.000101592
0.000123255
1.16941e-05
8.853e-07
2.69722e-06
2.19298e-06
8.36466e-06
3.73118e-06
1.54873e-05
5.32311e-06
2.41203e-05
6.8579e-06
3.36524e-05
8.28547e-06
4.39029e-05
9.65483e-06
5.50864e-05
1.10142e-05
6.77119e-05
1.24249e-05
8.24313e-05
1.39396e-05
0.000100077
0.000121611
1.55831e-05
7.99486e-07