/*--------------------------------*- C++ -*----------------------------------*\
| =========                 |                                                 |
| \\      /  F ield         | OpenFOAM: The Open Source CFD Toolbox           |
|  \\    /   O peration     | Version:  3.0.1                                 |
|   \\  /    A nd           | Web:      www.OpenFOAM.org                      |
|    \\/     M anipulation  |                                                 |
\*---------------------------------------------------------------------------*/
FoamFile
{
    version     2.0;
    format      ascii;
    class       volVectorField;
    location    "0.659154";
    object      U;
}
// * * * * * * * * * * * * * * * * * * * * * * * * * * * * * * * * * * * * * //

dimensions      [0 1 -1 0 0 0 0];

internalField   nonuniform List<vector> 
21246
(
(4.87939 -1.97063 -5.88708e-19)
(3.95044 -1.39399 -2.20024e-18)
(4.1687 -1.38963 6.00036e-19)
(4.21524 -1.28315 -1.70703e-19)
(4.10746 -1.06876 1.30307e-19)
(3.94308 -0.796158 1.05943e-20)
(3.78169 -0.572045 -8.09556e-21)
(3.62924 -0.415638 1.41801e-20)
(3.49069 -0.318538 -6.33995e-22)
(3.36586 -0.267406 1.36912e-20)
(3.26588 -0.256316 -5.37156e-21)
(4.01567 -0.664039 0)
(3.17826 -0.559642 -2.9557e-18)
(3.34297 -1.01053 2.18664e-18)
(3.47901 -1.17668 7.18096e-19)
(3.53902 -1.15723 -6.84063e-19)
(3.55642 -1.01111 -8.82868e-20)
(3.5415 -0.805614 -1.76035e-19)
(3.48921 -0.601902 8.85898e-20)
(3.41744 -0.464632 3.17473e-20)
(3.33795 -0.384052 -2.31224e-20)
(3.26635 -0.352842 -2.16487e-21)
(3.94832 0.452824 0)
(3.19058 0.0422447 0)
(3.02644 -0.476796 1.92249e-18)
(3.01454 -0.776817 -2.83176e-18)
(3.06273 -0.937964 1.00346e-18)
(3.14466 -0.957987 4.81074e-19)
(3.23081 -0.858001 1.11855e-19)
(3.28432 -0.695729 -5.26004e-20)
(3.29687 -0.551462 -7.38349e-20)
(3.27686 -0.45641 1.07026e-19)
(3.2475 -0.413788 -1.20887e-19)
(4.08522 0.882872 2.17276e-18)
(3.36959 0.435862 -1.58287e-18)
(3.01213 0.00935654 4.228e-18)
(2.84302 -0.317681 -1.27352e-18)
(2.79902 -0.572848 1.38457e-18)
(2.85194 -0.715095 -1.1838e-18)
(2.9634 -0.731823 3.34343e-20)
(3.07871 -0.657093 0)
(3.15981 -0.558869 -7.79975e-20)
(3.19697 -0.477844 1.8283e-19)
(3.20921 -0.434958 -8.94964e-20)
(4.10641 0.914651 -1.38995e-18)
(3.51441 0.65489 1.69132e-18)
(3.10724 0.344259 4.57038e-19)
(2.85223 0.0589253 -1.46067e-18)
(2.7245 -0.208907 -8.47762e-21)
(2.71738 -0.40869 3.07528e-19)
(2.80439 -0.511102 3.43365e-19)
(2.931 -0.524609 -3.83537e-19)
(3.04549 -0.490719 2.83826e-19)
(3.12159 -0.446429 0)
(3.16766 -0.420736 3.02623e-19)
(4.04305 0.836411 -7.71485e-19)
(3.60227 0.742382 8.5042e-19)
(3.23732 0.541878 -8.8278e-19)
(2.95186 0.321159 3.35014e-19)
(2.77742 0.0846521 -8.93373e-19)
(2.71836 -0.123043 -8.56423e-19)
(2.76305 -0.270525 1.48958e-18)
(2.86801 -0.34845 -5.27669e-20)
(2.98253 -0.375177 5.27985e-19)
(3.07327 -0.375422 1.03437e-19)
(3.13721 -0.375813 -3.72969e-19)
(3.9861 0.758474 3.45862e-19)
(3.6463 0.75432 0)
(3.35053 0.624193 7.48367e-19)
(3.09024 0.480921 -5.73303e-19)
(2.90087 0.287688 3.27776e-20)
(2.81098 0.0997163 2.55686e-19)
(2.81617 -0.0605315 -1.10258e-18)
(2.8861 -0.174999 -6.60722e-19)
(2.97928 -0.246318 -5.35774e-19)
(3.06378 -0.286254 -1.52702e-19)
(3.12974 -0.315239 0)
(3.93235 0.67942 -5.80082e-19)
(3.66611 0.726688 0)
(3.43979 0.635998 6.55484e-19)
(3.22829 0.554592 -5.05579e-19)
(3.05224 0.404769 2.83694e-20)
(2.95226 0.246616 5.25045e-19)
(2.92927 0.0934837 0)
(2.9643 -0.034657 4.49087e-19)
(3.02758 -0.131853 -2.59419e-19)
(3.09327 -0.200363 3.60353e-19)
(3.14838 -0.251475 0)
(3.89339 0.601102 1.33237e-19)
(3.68174 0.686457 -3.88012e-19)
(3.51333 0.611009 1.25285e-20)
(3.35074 0.564986 -6.46782e-19)
(3.20456 0.451559 3.32472e-19)
(3.10974 0.323708 0)
(3.07069 0.186877 0)
(3.0774 0.0599798 0)
(3.11091 -0.0475206 2.50493e-19)
(3.1527 -0.132182 -1.67293e-20)
(3.19037 -0.198439 -2.01599e-19)
(3.87702 0.527865 5.26827e-21)
(3.70674 0.64376 1.7493e-19)
(3.57976 0.565207 4.1264e-19)
(3.45763 0.536184 -1.84019e-19)
(3.34604 0.449531 2.93322e-19)
(3.26395 0.346123 -2.17508e-19)
(3.21793 0.227298 0)
(3.20434 0.109092 -1.88516e-19)
(3.21249 0.00133922 0)
(3.23034 -0.0899363 -3.05226e-19)
(3.24759 -0.16421 4.05421e-19)
(3.88496 0.457364 2.22845e-19)
(3.74566 0.595526 -2.55609e-19)
(3.64557 0.50738 -2.51757e-19)
(3.55598 0.485422 2.81642e-19)
(3.47339 0.415122 1.39298e-19)
(3.4052 0.328613 0)
(3.35782 0.225821 1.26804e-19)
(3.33087 0.118769 3.46896e-19)
(3.31913 0.0161523 -2.3822e-19)
(3.31572 -0.0752792 2.37196e-19)
(3.31319 -0.150613 -9.51791e-20)
(3.90805 0.386311 -3.88546e-20)
(3.79421 0.537096 0)
(3.71297 0.440819 1.20053e-19)
(3.6467 0.420513 -8.86294e-20)
(3.58535 0.358919 3.04752e-20)
(3.52969 0.283303 0)
(3.48394 0.193248 0)
(3.44866 0.0969048 -1.2433e-19)
(3.42185 0.00167156 5.90059e-20)
(3.40033 -0.085785 -6.42335e-20)
(3.38003 -0.159829 4.75621e-20)
(3.93969 0.314814 2.5358e-20)
(3.84802 0.473669 1.68703e-20)
(3.78052 0.369554 -5.84864e-21)
(3.73033 0.347534 5.24418e-21)
(3.68382 0.289948 -5.83024e-20)
(3.63818 0.220505 2.14046e-20)
(3.59484 0.139184 1.19713e-20)
(3.55415 0.0514327 -4.18654e-20)
(3.51571 -0.0365963 2.39713e-20)
(3.47881 -0.118624 0)
(3.44231 -0.189274 1.75011e-20)
(3.98284 0.243005 0)
(3.90887 0.408379 -1.78616e-20)
(3.84941 0.296977 -5.11912e-20)
(3.80953 0.270789 7.70763e-20)
(3.77256 0.214212 -2.31116e-21)
(3.7338 0.147225 1.80176e-20)
(3.69219 0.0707839 1.09386e-20)
(3.64721 -0.0112147 -3.73459e-20)
(3.599 -0.093521 5.2041e-20)
(3.54862 -0.169763 7.8627e-21)
(3.4974 -0.235606 3.82051e-21)
(4.03481 0.167599 9.02971e-20)
(3.97314 0.339547 6.20989e-20)
(3.91799 0.221522 -1.04876e-19)
(3.88457 0.191589 -7.64958e-20)
(3.8535 0.134214 0)
(3.81902 0.0669863 6.90299e-20)
(3.77805 -0.008014 -5.27215e-20)
(3.72877 -0.0873639 -1.22401e-19)
(3.67124 -0.165892 -8.60682e-20)
(3.60793 -0.236687 0)
(3.54173 -0.298194 0)
(4.08942 0.0902309 -1.83897e-19)
(4.0382 0.269102 -1.29286e-19)
(3.98606 0.144728 2.0126e-19)
(3.95685 0.110915 0)
(3.92952 0.0513595 0)
(3.89748 -0.0184988 -1.31842e-19)
(3.85582 -0.0954531 0)
(3.8011 -0.175513 1.22614e-19)
(3.73303 -0.252467 0)
(3.65565 -0.31812 3.77349e-20)
(3.57418 -0.371424 -6.9397e-20)
(4.14812 0.0107218 0)
(4.10623 0.197899 1.2727e-19)
(4.05533 0.0677909 0)
(4.02888 0.0291684 -2.64483e-19)
(4.00421 -0.0339538 1.01006e-19)
(3.97356 -0.109276 1.33349e-19)
(3.92958 -0.192246 0)
(3.86672 -0.276775 0)
(3.78469 -0.353933 5.50892e-20)
(3.69027 -0.413486 4.02436e-20)
(3.59154 -0.45608 0)
(4.21049 -0.0722707 -3.262e-21)
(4.17589 0.125404 1.20467e-19)
(4.12524 -0.0099573 -1.9583e-19)
(4.10182 -0.0530879 3.97879e-19)
(4.08068 -0.121737 0)
(4.05147 -0.206977 -2.27392e-19)
(4.00279 -0.301787 0)
(3.92672 -0.395186 0)
(3.82454 -0.473372 -1.10229e-19)
(3.70823 -0.524367 8.5125e-20)
(3.58921 -0.554166 -4.20747e-20)
(4.27473 -0.158492 -1.91991e-19)
(4.24601 0.0530195 2.54952e-19)
(4.19671 -0.0862959 1.67578e-19)
(4.17979 -0.133864 -5.51727e-19)
(4.16614 -0.212603 0)
(4.13888 -0.316479 6.41912e-19)
(4.07992 -0.43195 -3.59914e-20)
(3.98061 -0.538394 -8.57185e-20)
(3.84855 -0.615305 -6.0405e-20)
(3.70516 -0.650971 -4.14743e-20)
(3.56778 -0.656423 -1.6909e-20)
(4.33769 -0.245915 0)
(4.31751 -0.0176175 0)
(4.27541 -0.155954 1.91108e-19)
(4.27556 -0.209916 0)
(4.27606 -0.310523 -1.60727e-19)
(4.24653 -0.449645 -2.16672e-19)
(4.16345 -0.598157 0)
(4.0232 -0.71834 1.61019e-19)
(3.84789 -0.784611 -9.51959e-20)
(3.67288 -0.792564 2.47734e-20)
(3.51906 -0.764238 1.56142e-20)
(4.4243 -0.352702 0)
(4.39201 -0.0578638 0)
(4.36426 -0.182078 -4.27044e-21)
(4.39814 -0.256267 -2.47674e-19)
(4.41556 -0.418197 3.59583e-19)
(4.36952 -0.63327 1.524e-19)
(4.23633 -0.823763 1.19515e-19)
(4.03469 -0.947696 -1.68917e-19)
(3.80604 -0.98462 3.2462e-22)
(3.60062 -0.945271 7.27098e-21)
(3.44076 -0.870176 -1.98427e-20)
(4.42165 -0.250267 0)
(4.39584 0.041688 1.79619e-19)
(4.49791 -0.228279 -2.35795e-19)
(4.5892 -0.488936 0)
(4.55351 -0.793534 4.02848e-19)
(4.41833 -1.042 -3.57233e-19)
(4.20483 -1.20251 -3.12026e-20)
(3.94833 -1.25118 0)
(3.6897 -1.20635 3.71429e-20)
(3.47443 -1.09682 1.71632e-20)
(3.32797 -0.964869 1.97856e-21)
(4.13326 0.285321 0)
(4.44491 -0.674189 -1.15691e-18)
(4.48713 -0.81882 6.09332e-19)
(4.40223 -1.13757 0)
(4.27962 -1.39117 -1.05931e-19)
(4.1188 -1.55623 1.64716e-20)
(3.9109 -1.62203 4.34144e-20)
(3.6652 -1.57627 -3.11802e-22)
(3.44025 -1.4256 -2.19496e-20)
(3.27593 -1.22654 1.32828e-20)
(3.1888 -1.03291 -2.39451e-20)
(3.94986 -1.33405 -8.42838e-19)
(4.06242 -1.08108 6.73061e-19)
(3.94382 -1.50987 0)
(3.87676 -1.69692 -6.03121e-21)
(3.81265 -1.81309 -5.58091e-20)
(3.72885 -1.87102 -4.48237e-20)
(3.60837 -1.85396 1.88761e-20)
(3.43528 -1.73878 -2.08011e-20)
(3.22037 -1.51311 8.11955e-21)
(3.06663 -1.24816 -1.43452e-20)
(3.03161 -1.03847 -1.08784e-20)
(6.26655 -1.51871 4.43479e-20)
(5.71268 -1.1298 0)
(5.27364 -1.0031 -1.3598e-20)
(4.89145 -0.85049 1.47204e-20)
(4.53579 -0.660081 1.09235e-19)
(4.21713 -0.463713 -5.16611e-20)
(3.94805 -0.304169 -5.37104e-21)
(3.72425 -0.198068 -1.03022e-20)
(3.53342 -0.138923 -7.19414e-20)
(3.36895 -0.117916 4.25649e-20)
(3.23689 -0.132015 -1.29125e-20)
(6.45393 0.0543992 0)
(6.20359 -0.0469629 0)
(5.85483 -0.206808 9.59743e-20)
(5.44082 -0.259257 1.1561e-19)
(4.99606 -0.215731 -4.33732e-20)
(4.55918 -0.108599 -1.45353e-19)
(4.1692 -0.00272098 0)
(3.84989 0.0584802 0)
(3.59055 0.0785954 2.1932e-19)
(3.37448 0.0703178 -1.53487e-19)
(3.20396 0.0388061 5.90792e-20)
(6.33942 0.672656 0)
(6.28968 0.611041 7.69303e-19)
(6.09118 0.418022 1.07505e-19)
(5.77112 0.306056 -4.28545e-19)
(5.35053 0.268651 -2.20747e-19)
(4.86888 0.311064 3.07329e-19)
(4.38387 0.377087 0)
(3.96516 0.390352 0)
(3.63362 0.352688 2.0245e-19)
(3.36492 0.295942 -1.44874e-19)
(3.15284 0.233358 0)
(6.24133 0.844938 0)
(6.23539 0.9243 -4.49223e-19)
(6.12205 0.79137 8.94862e-21)
(5.89316 0.713351 1.49126e-19)
(5.5469 0.671079 -2.26688e-19)
(5.09449 0.697679 1.7345e-19)
(4.57194 0.778762 2.66787e-19)
(4.05754 0.800418 -1.95508e-19)
(3.64592 0.691116 -2.41615e-19)
(3.32591 0.555285 1.81806e-20)
(3.07363 0.448232 1.98011e-19)
(6.21296 0.883944 -4.21843e-20)
(6.1993 1.03156 -8.06403e-20)
(6.0997 0.950242 0)
(5.90934 0.929247 -1.38942e-19)
(5.61558 0.920817 2.48851e-20)
(5.20919 0.957386 1.03885e-19)
(4.70996 1.0562 2.26919e-19)
(4.16017 1.17743 1.63902e-19)
(3.63196 1.15768 -2.25909e-19)
(3.23557 0.93771 4.18104e-19)
(2.96551 0.738132 -1.98228e-19)
(6.21637 0.883554 -1.60303e-19)
(6.1988 1.07207 4.39834e-20)
(6.10317 1.00541 1.18675e-19)
(5.92005 1.0179 0)
(5.64198 1.03686 2.67128e-19)
(5.24852 1.08922 -1.39016e-19)
(4.73691 1.19083 2.94602e-20)
(4.15134 1.33542 -1.1755e-19)
(3.57556 1.42164 2.59834e-19)
(3.07433 1.27456 -2.75425e-19)
(2.77765 1.01542 4.64602e-20)
(6.23147 0.866014 2.26135e-19)
(6.21209 1.07935 1.76973e-20)
(6.12092 1.01168 -1.23164e-19)
(5.94141 1.04025 7.49121e-20)
(5.67233 1.06966 -2.08897e-19)
(5.28648 1.12966 -1.59827e-20)
(4.76451 1.2346 -6.61053e-20)
(4.1252 1.38814 -4.70537e-20)
(3.46991 1.51966 -5.81947e-20)
(2.9036 1.50331 5.97063e-20)
(2.51659 1.25684 -1.28791e-19)
(6.25346 0.835727 9.20343e-21)
(6.23114 1.05945 -4.29949e-20)
(6.14463 0.984519 2.68461e-20)
(5.96802 1.02151 -3.64634e-20)
(5.7075 1.04937 4.52222e-20)
(5.33075 1.10616 0)
(4.80617 1.20509 0)
(4.12979 1.36048 -3.50654e-20)
(3.38935 1.51234 1.6175e-20)
(2.72478 1.57105 1.52102e-20)
(2.24681 1.4446 -6.82255e-20)
(6.2775 0.801989 0)
(6.25012 1.02385 1.06591e-20)
(6.16814 0.933026 0)
(5.9938 0.974114 0)
(5.74256 0.990721 2.45723e-20)
(5.37886 1.03371 1.51909e-20)
(4.86274 1.11409 -1.16463e-20)
(4.1669 1.25108 0)
(3.35734 1.417 -4.43286e-20)
(2.58789 1.5093 3.26983e-20)
(2.00653 1.46809 6.40155e-20)
(6.29146 0.767094 1.01324e-19)
(6.2672 0.97606 -8.3499e-21)
(6.18527 0.862866 0)
(6.0133 0.905603 0)
(5.77196 0.902739 -4.53839e-20)
(5.4246 0.922499 5.23382e-20)
(4.92886 0.972263 4.94631e-20)
(4.23729 1.07095 5.13229e-21)
(3.37734 1.23563 -9.33382e-20)
(2.51932 1.33887 -5.26958e-20)
(1.82897 1.34118 1.00352e-19)
(6.2919 0.710914 -9.85852e-21)
(6.2816 0.909927 -1.79009e-21)
(6.1827 0.785133 8.82522e-24)
(6.02052 0.818826 -4.93006e-20)
(5.79009 0.790241 5.95556e-20)
(5.46065 0.77876 -5.13125e-20)
(4.99399 0.786975 -5.5184e-20)
(4.3352 0.827927 0)
(3.45396 0.970405 9.20118e-20)
(2.52331 1.07183 1.77215e-22)
(1.74122 1.07791 2.39304e-22)
(6.28538 0.626662 -5.40199e-20)
(6.2741 0.839808 0)
(6.16563 0.709483 -8.65365e-24)
(6.01515 0.702047 3.67209e-20)
(5.79439 0.655046 -4.86322e-20)
(5.48218 0.607717 7.48158e-20)
(5.04679 0.566669 1.67812e-19)
(4.44249 0.53706 -1.28376e-19)
(3.57937 0.604369 -1.31611e-19)
(2.60025 0.716816 1.941e-19)
(1.76745 0.71985 -1.34219e-19)
(6.26212 0.553062 -3.2555e-20)
(6.23637 0.749629 1.56827e-20)
(6.13767 0.617738 3.25688e-20)
(5.98898 0.571785 -1.26981e-20)
(5.77665 0.498594 -2.32695e-19)
(5.47894 0.413599 2.09755e-19)
(5.07339 0.322491 0)
(4.5346 0.231885 3.20119e-19)
(3.81367 0.169539 2.89573e-19)
(2.77412 0.271391 4.62169e-19)
(1.88782 0.280665 3.25312e-19)
(6.21148 0.481968 5.25451e-20)
(6.17556 0.645474 1.22485e-21)
(6.08472 0.5086 -9.3324e-20)
(5.94311 0.426906 7.29731e-20)
(5.74363 0.321297 6.78184e-20)
(5.46562 0.197443 -3.35602e-19)
(5.08948 0.0602508 1.39651e-19)
(4.59477 -0.0829513 -6.67833e-19)
(3.9479 -0.219032 -2.91901e-19)
(3.08471 -0.2337 -6.85094e-19)
(2.136 -0.238024 3.47341e-19)
(6.13199 0.405165 -1.47378e-20)
(6.08888 0.527202 -1.05827e-20)
(6.0042 0.382187 1.16236e-20)
(5.8736 0.266506 1.18483e-19)
(5.69157 0.125315 -9.25996e-20)
(5.44018 -0.0394552 0)
(5.10357 -0.222908 3.51188e-19)
(4.6655 -0.414936 -2.68394e-19)
(4.10099 -0.601504 5.7091e-19)
(3.37189 -0.718552 -1.33391e-18)
(2.52973 -0.786572 -6.40972e-19)
(6.02067 0.323638 5.33783e-20)
(5.9694 0.397405 4.08725e-20)
(5.89007 0.240096 -4.57646e-20)
(5.7736 0.0902146 0)
(5.61488 -0.0883262 4.65779e-20)
(5.39885 -0.293807 -9.70664e-20)
(5.11273 -0.519557 0)
(4.74436 -0.751852 5.06977e-19)
(4.27816 -0.976851 0)
(3.68329 -1.14132 4.54651e-19)
(2.98983 -1.25814 3.07797e-19)
(5.86876 0.233582 7.24825e-20)
(5.80939 0.255089 0)
(5.73622 0.0807139 1.01788e-20)
(5.63819 -0.104881 0)
(5.5108 -0.323115 8.03571e-20)
(5.34052 -0.570071 2.35051e-19)
(5.11455 -0.837685 8.12463e-20)
(4.82514 -1.11455 -1.95222e-19)
(4.4667 -1.37267 -7.67758e-19)
(4.01295 -1.56723 0)
(3.47901 -1.73051 -1.07038e-18)
(5.6688 0.127792 0)
(5.60196 0.0967639 0)
(5.53673 -0.0991085 8.37271e-20)
(5.46248 -0.321842 -1.41471e-19)
(5.3757 -0.582068 8.35107e-21)
(5.26243 -0.87328 0)
(5.10751 -1.18611 0)
(4.91257 -1.48037 -4.00951e-19)
(4.66169 -1.7281 1.04499e-18)
(4.34059 -1.94029 -7.5581e-19)
(3.95693 -2.12648 8.59172e-19)
(5.41766 -6.16959e-05 1.33931e-19)
(5.34072 -0.0798129 0)
(5.27993 -0.300277 0)
(5.22081 -0.560131 2.15757e-19)
(5.15814 -0.857439 -9.40766e-20)
(5.09905 -1.16838 6.62588e-20)
(5.03356 -1.46793 -5.2811e-20)
(4.93794 -1.75324 -2.76034e-19)
(4.79849 -2.01438 -5.33606e-20)
(4.60493 -2.24268 2.68672e-19)
(4.35489 -2.4461 -6.94871e-20)
(5.10929 -0.140756 -1.49796e-19)
(4.98843 -0.258209 -3.94518e-19)
(4.89664 -0.488632 2.95951e-19)
(4.83987 -0.753326 0)
(4.82609 -1.0397 -9.78293e-20)
(4.83043 -1.33801 -7.04623e-20)
(4.83511 -1.63543 -1.48837e-20)
(4.82226 -1.91815 -9.08719e-20)
(4.77503 -2.17056 0)
(4.67534 -2.37885 0)
(4.50928 -2.54917 0)
(4.64803 -0.308365 0)
(4.54449 -0.429223 0)
(4.47435 -0.645887 -3.29329e-19)
(4.43197 -0.910826 6.34209e-19)
(4.43279 -1.20125 -1.85659e-19)
(4.47123 -1.49161 9.77847e-20)
(4.52444 -1.76174 -3.07711e-20)
(4.56428 -1.99856 1.66614e-19)
(4.56503 -2.18892 -1.49484e-19)
(4.49539 -2.31636 -6.30467e-20)
(4.33047 -2.37336 9.25648e-20)
(4.26097 -0.478452 1.34354e-19)
(4.1366 -0.595138 0)
(4.04886 -0.841143 4.78384e-19)
(4.01216 -1.12103 -7.02923e-19)
(4.03457 -1.4021 1.10592e-19)
(4.09875 -1.65219 2.03184e-19)
(4.17366 -1.85785 -6.45571e-21)
(4.22809 -2.01184 -1.56699e-20)
(4.23163 -2.09413 0)
(4.14504 -2.06989 3.84028e-20)
(3.92729 -1.89063 -2.21935e-20)
(3.88304 -0.666894 -8.69668e-19)
(3.73449 -0.885146 0)
(3.6708 -1.13765 -1.15311e-19)
(3.67981 -1.41281 0)
(3.73347 -1.64378 1.25934e-19)
(3.80425 -1.81709 -5.86797e-20)
(3.86209 -1.93023 -1.66221e-20)
(3.88312 -1.97794 6.90021e-20)
(3.8324 -1.91268 -3.34127e-20)
(3.67576 -1.68021 -4.1094e-20)
(3.42097 -1.31438 1.49871e-20)
(3.50655 -1.5613 -1.40194e-18)
(3.48024 -1.32028 8.75004e-19)
(3.51636 -1.59089 0)
(3.56773 -1.75854 6.92418e-21)
(3.61537 -1.87095 3.86265e-21)
(3.64184 -1.92764 0)
(3.62766 -1.9241 0)
(3.56196 -1.84357 -2.96527e-21)
(3.4256 -1.64521 0)
(3.22528 -1.33485 0)
(3.0622 -1.05376 0)
(4.17657 -7.07971 0)
(3.42267 -5.623 0)
(3.7146 -4.31674 2.2447e-18)
(3.82099 -3.36888 -2.44012e-18)
(3.78329 -2.68605 3.11265e-19)
(3.6917 -2.15524 -8.09573e-19)
(3.57132 -1.7417 -9.38969e-19)
(3.44341 -1.41366 -1.02364e-18)
(3.32008 -1.15106 5.74179e-19)
(3.20621 -0.940758 2.95349e-19)
(3.09863 -0.777705 2.17522e-19)
(-0.200797 -4.56618 1.82409e-18)
(0.782285 -4.59594 -4.32248e-18)
(1.62078 -4.14003 -1.20704e-18)
(2.27893 -3.56604 5.95588e-18)
(2.68851 -3.00441 -2.76653e-18)
(2.91545 -2.48307 3.1041e-19)
(3.01988 -2.02736 1.95372e-18)
(3.04794 -1.64647 0)
(3.03184 -1.33611 0)
(2.98962 -1.0876 6.48859e-19)
(2.92849 -0.895026 0)
(-1.22961 -2.19401 -2.30941e-18)
(-0.461675 -2.73715 1.11994e-19)
(0.236164 -3.14228 2.01899e-18)
(0.994735 -3.1617 -2.7041e-18)
(1.6418 -2.92026 -1.86078e-18)
(2.10414 -2.55448 1.22082e-18)
(2.40118 -2.16021 1.57332e-18)
(2.57321 -1.78892 1.68366e-18)
(2.66612 -1.46371 -1.77681e-19)
(2.71268 -1.19072 -4.98477e-20)
(2.72793 -0.972383 -1.00891e-18)
(-1.10037 -1.32433 -1.57146e-18)
(-0.556662 -1.71501 8.06069e-20)
(-0.314251 -2.01655 -1.01337e-18)
(0.185096 -2.23458 0)
(0.739291 -2.30001 2.80356e-18)
(1.27475 -2.21186 -6.92579e-19)
(1.71743 -2.00353 8.47868e-20)
(2.04765 -1.73533 5.53804e-19)
(2.274 -1.45857 0)
(2.42059 -1.20567 -9.21406e-19)
(2.50468 -0.994478 0)
(-0.771441 -0.742864 4.76957e-18)
(-0.310784 -1.03286 0)
(-0.252493 -1.26673 0)
(0.0806565 -1.51185 1.20782e-18)
(0.463173 -1.66576 -1.80444e-18)
(0.892054 -1.71054 -1.60873e-18)
(1.30512 -1.64819 -1.47771e-18)
(1.66125 -1.50559 7.82862e-20)
(1.94326 -1.31939 -1.55002e-18)
(2.15248 -1.12283 8.13313e-19)
(2.29121 -0.941344 6.17308e-19)
(-0.413714 -0.356882 -5.42504e-18)
(-0.034346 -0.529624 0)
(-0.0789811 -0.697822 0)
(0.159417 -0.915803 -3.27255e-18)
(0.414201 -1.08795 2.56575e-18)
(0.733282 -1.20078 2.42642e-18)
(1.07461 -1.23684 -8.44561e-19)
(1.4025 -1.19884 -2.32266e-18)
(1.69116 -1.10467 1.51305e-18)
(1.92727 -0.97913 1.45315e-18)
(2.09907 -0.8472 -2.59048e-18)
(-0.134427 -0.122325 -3.33609e-18)
(0.213804 -0.191951 -3.51542e-19)
(0.15199 -0.311208 0)
(0.313456 -0.483308 5.46741e-19)
(0.486041 -0.638254 -1.44159e-18)
(0.718187 -0.768275 -5.58084e-19)
(0.984376 -0.851803 8.18181e-19)
(1.26136 -0.879741 1.13425e-18)
(1.52631 -0.855404 -1.82477e-19)
(1.76084 -0.791721 1.39348e-19)
(1.94509 -0.704808 6.54517e-19)
(0.071831 0.0372065 3.38625e-18)
(0.405189 0.0329172 -4.67053e-18)
(0.358453 -0.0430958 -5.26237e-20)
(0.481331 -0.176863 4.32806e-19)
(0.605315 -0.305322 2.50987e-18)
(0.777452 -0.427983 -4.0536e-19)
(0.982472 -0.526004 -7.07883e-19)
(1.20781 -0.587537 1.04202e-18)
(1.43738 -0.608558 -2.90914e-19)
(1.65301 -0.593712 2.3837e-19)
(1.82639 -0.553203 -1.76316e-19)
(0.24754 0.169666 0)
(0.569623 0.20135 0)
(0.53446 0.155028 -2.10129e-19)
(0.637628 0.0479243 -4.60058e-20)
(0.733709 -0.0568941 0)
(0.867289 -0.165001 -5.62905e-20)
(1.02806 -0.261391 -1.59574e-18)
(1.21047 -0.335875 9.7519e-19)
(1.40476 -0.381977 -4.18918e-19)
(1.59687 -0.398936 -4.57489e-19)
(1.75918 -0.390274 2.0399e-20)
(0.40754 0.259981 -5.18477e-18)
(0.726297 0.324305 -6.30984e-20)
(0.691868 0.30492 1.75204e-18)
(0.780696 0.218248 -3.0169e-19)
(0.857713 0.133313 0)
(0.96552 0.040365 -1.539e-18)
(1.09538 -0.0482597 2.65299e-18)
(1.24543 -0.124723 -8.87233e-19)
(1.40993 -0.182336 -9.05983e-19)
(1.57958 -0.21728 9.23891e-19)
(1.73094 -0.226049 -2.91496e-19)
(0.53484 0.298153 2.53138e-18)
(0.855828 0.408727 -5.35036e-18)
(0.825625 0.416961 -4.58817e-20)
(0.906978 0.349038 8.04314e-19)
(0.971822 0.282245 3.5789e-18)
(1.0628 0.203714 -1.39454e-18)
(1.1713 0.124799 0)
(1.29753 0.051562 1.57706e-18)
(1.43825 -0.0100589 -1.19453e-18)
(1.58713 -0.0557306 0)
(1.71842 -0.0793518 5.9861e-19)
(0.62563 0.326355 2.59543e-18)
(0.944373 0.484617 0)
(0.930431 0.509852 6.38896e-19)
(1.01277 0.455547 2.06147e-18)
(1.0726 0.403484 9.47567e-21)
(1.15422 0.337419 -6.57951e-19)
(1.24893 0.268233 0)
(1.35848 0.200257 -2.16478e-18)
(1.48122 0.13851 5.3319e-20)
(1.61349 0.0870773 0)
(1.73216 0.0547048 0)
(0.706802 0.368357 -2.48833e-18)
(1.02111 0.560634 1.55212e-18)
(1.02094 0.59438 -6.29584e-19)
(1.10429 0.549034 1.91957e-18)
(1.16178 0.50787 -1.52268e-18)
(1.2385 0.451474 -1.79155e-18)
(1.32474 0.390698 9.09449e-19)
(1.42321 0.328205 2.04816e-18)
(1.5331 0.268189 9.88723e-19)
(1.65336 0.214419 0)
(1.76399 0.179152 0)
(0.77773 0.394331 0)
(1.09829 0.621499 0)
(1.10537 0.668943 -5.65868e-19)
(1.18775 0.633106 -4.70345e-19)
(1.24313 0.601471 0)
(1.3171 0.552722 2.81977e-20)
(1.39807 0.498803 -8.47183e-19)
(1.48928 0.441078 1.24821e-18)
(1.5899 0.3833 -2.82786e-18)
(1.70102 0.328532 -6.35234e-19)
(1.80181 0.291149 5.31564e-20)
(0.826163 0.413531 1.81305e-18)
(1.15466 0.681895 -5.86466e-21)
(1.1765 0.740708 -3.86706e-18)
(1.26274 0.711975 1.73528e-18)
(1.31863 0.687952 6.53396e-19)
(1.39203 0.645046 2.07347e-18)
(1.46997 0.596526 0)
(1.55648 0.542497 -1.13703e-18)
(1.65025 0.486668 0)
(1.75442 0.431048 -1.214e-18)
(1.84969 0.39203 9.3173e-19)
(0.877571 0.444398 3.51034e-18)
(1.20688 0.746092 -5.46094e-18)
(1.24351 0.812053 2.13831e-18)
(1.33338 0.788348 -2.44837e-18)
(1.3907 0.770165 9.48139e-21)
(1.46507 0.731339 9.28247e-19)
(1.54151 0.686693 -3.66357e-18)
(1.62502 0.635072 2.22898e-18)
(1.71341 0.580672 4.30098e-20)
(1.8121 0.523921 -1.06539e-18)
(1.90293 0.483502 3.70494e-20)
(0.933352 0.471497 0)
(1.26223 0.799379 2.60573e-18)
(1.31352 0.876417 -2.04239e-18)
(1.40384 0.861162 2.36725e-18)
(1.46346 0.847915 -5.91902e-19)
(1.53876 0.812522 1.81051e-18)
(1.61449 0.770275 -1.71749e-20)
(1.69563 0.719886 -2.04135e-18)
(1.77938 0.666433 5.99237e-20)
(1.87251 0.608872 2.19334e-18)
(1.95903 0.566892 -1.55247e-18)
(0.977909 0.492932 3.73426e-18)
(1.30705 0.847995 -5.11114e-18)
(1.37946 0.937521 1.97664e-18)
(1.47345 0.931577 -1.12166e-18)
(1.53813 0.921665 2.59553e-20)
(1.61512 0.888363 -8.25758e-19)
(1.69054 0.846757 6.28756e-19)
(1.76909 0.79645 5.31136e-20)
(1.8484 0.743388 1.42261e-18)
(1.93558 0.68571 0)
(2.01848 0.64193 -1.44574e-20)
(1.02316 0.517313 1.0428e-18)
(1.34767 0.896766 2.4846e-18)
(1.4452 0.997614 -1.92496e-18)
(1.54562 1.00015 -3.72511e-19)
(1.61732 0.991072 -1.05857e-18)
(1.69591 0.957736 4.31726e-19)
(1.77021 0.914962 0)
(1.84484 0.864133 -4.16211e-19)
(1.9191 0.811553 1.96996e-20)
(1.99989 0.755048 -4.67305e-19)
(2.08066 0.70913 -5.79836e-20)
(1.07761 0.544562 2.18257e-19)
(1.39193 0.943138 0)
(1.51747 1.05339 -2.02469e-18)
(1.62602 1.06296 2.72908e-18)
(1.7045 1.05211 -2.02231e-18)
(1.78243 1.0167 -1.4964e-19)
(1.85284 0.972019 2.47553e-20)
(1.92118 0.921637 1.24508e-18)
(1.98925 0.871135 3.17804e-19)
(2.06309 0.818367 -4.03506e-19)
(2.14118 0.771781 5.73642e-19)
(1.14247 0.571248 -3.37976e-18)
(1.44336 0.981962 2.51257e-18)
(1.59923 1.09732 2.34999e-19)
(1.71729 1.11075 3.73156e-20)
(1.79984 1.09584 9.36404e-19)
(1.87238 1.058 -9.7321e-19)
(1.93458 1.01362 6.12021e-20)
(1.99433 0.967375 9.02605e-20)
(2.05565 0.922323 -2.23238e-19)
(2.12302 0.875967 0)
(2.19674 0.831533 0)
(1.24994 0.591264 6.88004e-18)
(1.50689 1.00665 -2.4363e-18)
(1.69692 1.11367 0)
(1.8208 1.12642 1.23935e-18)
(1.89903 1.10792 -8.86781e-21)
(1.95864 1.07234 -5.76159e-19)
(2.00865 1.03572 -6.51943e-20)
(2.05915 1.00048 -3.67732e-19)
(2.11474 0.965601 1.94434e-19)
(2.1776 0.928245 1.81843e-19)
(2.24881 0.886226 -1.36765e-19)
(1.19683 0.601204 2.98072e-19)
(1.5751 0.965009 -2.15083e-19)
(1.75415 1.08442 1.60433e-18)
(1.88065 1.09201 -2.43628e-18)
(1.9554 1.07576 -2.86159e-20)
(2.00642 1.0551 8.17901e-19)
(2.05218 1.0382 -4.93412e-19)
(2.10252 1.02139 2.68352e-19)
(2.15892 1.00133 -1.27873e-19)
(2.22163 0.976944 5.40951e-21)
(2.29249 0.94028 -1.13328e-20)
(2.66497 0.234524 -3.19304e-19)
(1.97745 0.933185 -2.55212e-18)
(2.18438 0.829083 1.92042e-18)
(2.15417 0.887732 0)
(2.10738 0.941947 0)
(2.08546 0.983337 -5.76632e-19)
(2.09662 1.01336 2.71902e-19)
(2.13472 1.02714 1.98284e-19)
(2.18747 1.02677 -4.07044e-21)
(2.24865 1.01889 0)
(2.31808 0.99998 0)
(7.40779 -5.70505 4.02165e-18)
(6.08382 -2.75792 -6.65325e-19)
(5.98628 -3.24887 0)
(5.4373 -2.77329 -2.92967e-19)
(4.86788 -2.26465 -1.51438e-19)
(4.42399 -1.82122 -5.46402e-20)
(4.08552 -1.46693 2.3226e-19)
(3.81637 -1.18283 2.83872e-19)
(3.59523 -0.956377 0)
(3.41026 -0.774665 -5.09928e-19)
(3.25335 -0.635418 -5.75907e-20)
(6.30615 -3.22 -3.34787e-17)
(5.34957 -0.162675 1.26791e-17)
(6.31834 -1.12785 -8.0272e-18)
(6.29912 -1.36554 6.14081e-18)
(5.75073 -1.31547 0)
(5.13193 -1.20653 6.40602e-19)
(4.61652 -1.04785 -4.29911e-19)
(4.19914 -0.868953 9.11452e-20)
(3.86941 -0.706665 2.21323e-21)
(3.60654 -0.571698 2.07684e-20)
(3.39699 -0.473428 0)
(3.81874 -1.67437 -1.6242e-17)
(3.99607 0.92859 2.52459e-17)
(5.62778 0.445106 9.71002e-19)
(6.11878 0.194721 7.27397e-18)
(6.00837 -0.024597 -1.79826e-18)
(5.52683 -0.273255 -2.57074e-18)
(4.995 -0.385692 -1.66009e-19)
(4.50753 -0.39586 3.90016e-19)
(4.09892 -0.355075 -2.8681e-19)
(3.76952 -0.299678 -2.17881e-20)
(3.50763 -0.255086 2.67286e-20)
(1.67314 -1.36328 -1.69109e-17)
(2.79225 0.855775 1.77766e-19)
(4.52983 1.19938 -2.30278e-19)
(5.34416 1.30099 8.46647e-18)
(5.65779 1.10989 -6.66192e-18)
(5.47748 0.71677 2.53769e-18)
(5.08061 0.398524 7.58318e-19)
(4.64021 0.197786 -1.15515e-18)
(4.22417 0.0894737 -1.03622e-18)
(3.86782 0.0410058 2.55086e-19)
(3.57738 0.0177821 0)
(0.258985 -1.68491 -1.36031e-17)
(1.8586 0.340327 -9.65954e-18)
(3.45548 1.33418 1.40608e-17)
(4.4249 1.84334 8.82893e-18)
(5.00444 1.85647 -1.37011e-17)
(5.08138 1.51185 6.0381e-18)
(4.87987 1.12201 -4.64731e-18)
(4.56285 0.802906 5.04687e-18)
(4.20741 0.570163 -4.19532e-19)
(3.87016 0.417516 -9.8892e-19)
(3.57459 0.325381 -8.38504e-19)
(-0.53913 -2.18066 8.51535e-18)
(1.2103 -0.187855 -1.62646e-17)
(2.58614 1.19068 1.19676e-17)
(3.597 2.00647 0)
(4.29204 2.2461 1.43923e-18)
(4.52729 2.03591 4.89602e-18)
(4.49466 1.67565 -6.26769e-18)
(4.31474 1.32245 2.23809e-18)
(4.05435 1.01948 -1.86168e-19)
(3.77298 0.785113 -1.31823e-18)
(3.50773 0.61922 1.31955e-18)
(-0.987525 -2.62776 -7.00991e-18)
(0.710652 -0.637635 1.66601e-18)
(1.9058 0.95506 0)
(2.91675 1.9817 7.18063e-18)
(3.63944 2.40651 -3.06176e-18)
(3.95212 2.33383 -3.7578e-18)
(4.03431 2.04988 2.1659e-18)
(3.9665 1.71471 5.07237e-18)
(3.80136 1.39319 -3.24994e-18)
(3.58983 1.11539 -3.29387e-18)
(3.37451 0.887005 1.11619e-18)
(-1.2724 -2.98994 0)
(0.307475 -1.00344 -1.5843e-18)
(1.36759 0.705424 8.8004e-18)
(2.36382 1.87915 -3.5056e-18)
(3.07518 2.44259 6.85652e-18)
(3.41862 2.48228 -3.084e-19)
(3.56699 2.27827 0)
(3.57943 1.98629 -2.6089e-18)
(3.49333 1.67476 3.00378e-18)
(3.34947 1.38579 6.88362e-19)
(3.18506 1.12514 0)
(-1.45848 -3.26167 7.21194e-18)
(-0.0295613 -1.30274 2.74432e-18)
(0.925812 0.460907 -3.95699e-18)
(1.89908 1.73949 -3.02829e-18)
(2.58516 2.40741 -3.99577e-18)
(2.93863 2.5359 7.19946e-20)
(3.1231 2.40072 -1.88295e-18)
(3.18777 2.15657 -2.29444e-18)
(3.16364 1.87291 -1.32693e-18)
(3.0774 1.59194 0)
(2.97462 1.30722 1.03768e-18)
(-1.58153 -3.45686 0)
(-0.318958 -1.54947 2.47997e-18)
(0.549447 0.224566 0)
(1.49392 1.5765 5.06268e-18)
(2.15096 2.32474 -3.87106e-18)
(2.50688 2.52522 0)
(2.71128 2.44813 -1.49217e-18)
(2.80988 2.24857 2.44685e-18)
(2.83176 1.99512 -1.46531e-19)
(2.79271 1.73312 -1.74195e-18)
(2.74282 1.45166 -1.02221e-18)
(-1.68324 -3.5992 -7.18725e-18)
(-0.584581 -1.77636 3.21078e-18)
(0.216488 -0.0193682 0)
(1.12502 1.38627 0)
(1.75415 2.20131 0)
(2.11218 2.46508 -2.25983e-18)
(2.32964 2.43899 4.78312e-18)
(2.45193 2.27998 1.94055e-18)
(2.50894 2.05615 1.31245e-18)
(2.50917 1.81459 1.0039e-19)
(2.49772 1.55097 -9.45732e-19)
(-1.80438 -3.71339 2.6048e-18)
(-0.831454 -1.98544 1.01147e-18)
(-0.0772762 -0.262685 -2.8333e-18)
(0.785098 1.17642 2.14924e-18)
(1.38749 2.045 0)
(1.74807 2.3649 0)
(1.97518 2.38467 -1.38212e-18)
(2.11526 2.26231 -9.74248e-19)
(2.19959 2.06695 -2.43998e-18)
(2.23289 1.8455 3.8523e-18)
(2.25526 1.59849 -1.08452e-19)
(-1.91257 -3.80739 -1.13037e-17)
(-1.04342 -2.16795 4.34859e-18)
(-0.337961 -0.502772 -1.95497e-18)
(0.463944 0.948315 1.95653e-18)
(1.04286 1.85776 0)
(1.40739 2.22909 -2.76619e-18)
(1.64304 2.29166 1.41734e-18)
(1.79822 2.20287 -8.27432e-19)
(1.90523 2.03471 0)
(1.96689 1.83442 -1.26717e-18)
(2.02805 1.60171 -2.86886e-19)
(-1.98998 -3.89847 5.3951e-20)
(-1.23709 -2.34583 -7.25283e-18)
(-0.58493 -0.758987 -5.70923e-19)
(0.153919 0.68946 4.99588e-19)
(0.712349 1.63616 1.29894e-18)
(1.08208 2.05749 9.22467e-19)
(1.32688 2.16235 -1.10947e-18)
(1.49739 2.10553 5.92968e-19)
(1.62598 1.96338 1.44829e-18)
(1.71483 1.78469 -1.13407e-18)
(1.80506 1.57418 1.47662e-18)
(-2.0519 -3.99133 7.62926e-19)
(-1.41942 -2.51681 -1.75511e-19)
(-0.821429 -1.01971 0)
(-0.140638 0.405939 -4.21094e-19)
(0.395954 1.38161 -2.16751e-18)
(0.766004 1.85044 1.65997e-18)
(1.02139 1.99671 -9.77763e-19)
(1.20908 1.9711 1.11189e-18)
(1.36035 1.85435 0)
(1.47789 1.6972 1.00402e-19)
(1.59188 1.51444 2.15822e-20)
(-2.09553 -4.07634 -2.43225e-19)
(-1.58784 -2.6808 1.79679e-19)
(-1.04849 -1.28394 0)
(-0.426339 0.0989062 1.40602e-18)
(0.0843926 1.08955 -9.46638e-20)
(0.452426 1.60318 -1.3985e-18)
(0.719847 1.79005 4.47001e-19)
(0.928116 1.79611 -5.27639e-19)
(1.10557 1.70552 4.38961e-19)
(1.25612 1.57117 0)
(1.40468 1.41416 2.04543e-19)
(-2.13885 -4.1534 2.29019e-19)
(-1.75073 -2.84807 3.53083e-19)
(-1.26974 -1.55853 7.07151e-20)
(-0.710356 -0.237359 1.36622e-18)
(-0.230826 0.754496 -6.58211e-19)
(0.131876 1.30631 6.63318e-19)
(0.412832 1.53398 2.29553e-19)
(0.647965 1.57239 0)
(0.857489 1.51088 -1.61456e-19)
(1.04428 1.40394 9.1505e-20)
(1.23436 1.27195 0)
(-2.18726 -4.23266 -3.43786e-18)
(-1.91246 -3.01848 -3.18447e-18)