/*--------------------------------*- C++ -*----------------------------------*\
| =========                 |                                                 |
| \\      /  F ield         | OpenFOAM: The Open Source CFD Toolbox           |
|  \\    /   O peration     | Version:  3.0.1                                 |
|   \\  /    A nd           | Web:      www.OpenFOAM.org                      |
|    \\/     M anipulation  |                                                 |
\*---------------------------------------------------------------------------*/
FoamFile
{
    version     2.0;
    format      ascii;
    class       volScalarField;
    location    "0.560952";
    object      k;
}
// * * * * * * * * * * * * * * * * * * * * * * * * * * * * * * * * * * * * * //

dimensions      [0 2 -2 0 0 0 0];

internalField   nonuniform List<scalar> 
21246
(
0.672576
0.972583
0.575835
0.352838
0.198921
0.111699
0.0668559
0.0452683
0.0350122
0.0296925
0.026625
0.660823
0.947451
0.633491
0.414339
0.244985
0.138423
0.0797341
0.0505986
0.0372981
0.030939
0.0275726
0.609276
0.78871
0.632392
0.448249
0.287421
0.163714
0.0947083
0.0578954
0.0406809
0.0328634
0.0291889
0.528237
0.664956
0.605116
0.458057
0.313019
0.189821
0.109341
0.0661856
0.0449487
0.0353834
0.0312539
0.436045
0.586657
0.573278
0.460311
0.331702
0.212507
0.126882
0.0753368
0.0500311
0.038471
0.0336618
0.345732
0.533213
0.544445
0.462123
0.349682
0.235331
0.145728
0.0878856
0.0567146
0.0421768
0.0363662
0.26356
0.49255
0.521187
0.464387
0.367707
0.259474
0.167195
0.103032
0.0659007
0.047408
0.0396512
0.193492
0.46167
0.505665
0.467449
0.384939
0.284075
0.191042
0.121231
0.0776569
0.0544488
0.0440574
0.143662
0.445221
0.501513
0.473125
0.401411
0.308345
0.216521
0.142422
0.0924281
0.0637811
0.0498646
0.128568
0.450813
0.513507
0.485889
0.419401
0.332539
0.243033
0.166201
0.110396
0.0758593
0.0575655
0.135004
0.462463
0.543007
0.513156
0.443965
0.358388
0.27028
0.191783
0.131201
0.0908705
0.0676146
0.131277
0.44386
0.573234
0.557492
0.481339
0.389682
0.29925
0.218688
0.15421
0.108641
0.080323
0.115373
0.383539
0.565956
0.601546
0.5319
0.430752
0.33274
0.247716
0.17922
0.128933
0.0957642
0.0950652
0.307402
0.506663
0.612233
0.581965
0.48113
0.373196
0.28042
0.206626
0.151663
0.11391
0.0769625
0.238592
0.419369
0.57161
0.607113
0.530398
0.41868
0.317082
0.236602
0.176705
0.134686
0.0632511
0.186083
0.329343
0.488902
0.586996
0.560164
0.461176
0.355403
0.268663
0.203901
0.15799
0.0536748
0.147014
0.250145
0.389125
0.52096
0.553157
0.487258
0.388852
0.30019
0.232261
0.183433
0.0478452
0.121512
0.1913
0.296393
0.428034
0.505922
0.484798
0.407839
0.325669
0.258779
0.209558
0.0450807
0.106719
0.152832
0.222775
0.331368
0.430098
0.450639
0.404446
0.338176
0.278652
0.23254
0.0439639
0.0981788
0.129356
0.175171
0.248505
0.343855
0.392367
0.376229
0.331369
0.28509
0.2466
0.0437732
0.0924023
0.113988
0.146505
0.195501
0.264353
0.323883
0.327201
0.301965
0.271157
0.243261
0.0460334
0.0899039
0.110558
0.136697
0.170165
0.215029
0.261594
0.269035
0.254925
0.235709
0.217135
0.0721287
0.15673
0.183082
0.190663
0.196546
0.213485
0.229633
0.231114
0.217384
0.199851
0.183191
0.145541
0.146641
0.14141
0.146728
0.159613
0.179718
0.205059
0.222202
0.215914
0.195277
0.175879
0.611099
0.74442
0.50462
0.290995
0.164606
0.0966842
0.0611202
0.0431843
0.0341401
0.0291538
0.0260533
0.443711
0.584203
0.435294
0.287432
0.172593
0.103732
0.0654956
0.0455049
0.0353594
0.0298351
0.0264537
0.409054
0.536315
0.407333
0.303671
0.199202
0.122434
0.0754637
0.0503934
0.0378601
0.0312711
0.0273761
0.387481
0.488157
0.38099
0.305822
0.21483
0.139368
0.0874004
0.0574734
0.0418612
0.0336791
0.0290115
0.37054
0.436482
0.358705
0.297438
0.214957
0.144329
0.0942708
0.0637461
0.0468627
0.0375441
0.0319199
0.355838
0.392605
0.338424
0.285814
0.211535
0.146247
0.0980275
0.0675271
0.0502295
0.0405977
0.0347926
0.342691
0.357892
0.320659
0.274053
0.206596
0.146441
0.100682
0.0708522
0.0534883
0.0437832
0.0380858
0.33099
0.330548
0.305256
0.263567
0.201819
0.146245
0.102926
0.0739557
0.0566562
0.046878
0.0412403
0.320768
0.308897
0.292293
0.25496
0.198275
0.146575
0.105331
0.0771215
0.0598411
0.0498736
0.044112
0.311936
0.291422
0.281673
0.248344
0.196425
0.147869
0.108337
0.080695
0.0633081
0.0529512
0.0467843
0.304228
0.27719
0.273034
0.243694
0.196412
0.150543
0.112379
0.0850806
0.0674109
0.0563827
0.0492864
0.297458
0.265083
0.265653
0.240704
0.197988
0.154724
0.117809
0.0907544
0.0727209
0.0608222
0.0522681
0.29157
0.254428
0.259381
0.239245
0.201226
0.160718
0.125114
0.0983636
0.0800779
0.0673729
0.0571871
0.286223
0.244783
0.253744
0.239001
0.206205
0.168853
0.134814
0.108626
0.090462
0.0774538
0.0659152
0.280966
0.235991
0.247903
0.238591
0.211711
0.178559
0.147067
0.122144
0.104671
0.0920469
0.0800763
0.275801
0.227751
0.241684
0.237763
0.217372
0.189439
0.161598
0.138901
0.122858
0.111343
0.0998765
0.270682
0.219785
0.234824
0.236115
0.222618
0.200885
0.177842
0.158434
0.144623
0.134867
0.124929
0.265511
0.211823
0.227029
0.233096
0.226603
0.211841
0.194642
0.179546
0.168705
0.161141
0.153284
0.260237
0.203595
0.21793
0.228019
0.228235
0.220811
0.210192
0.200182
0.192812
0.187535
0.18176
0.254861
0.194821
0.207072
0.220028
0.226148
0.225838
0.221982
0.217352
0.213525
0.210231
0.205833
0.249472
0.185158
0.193911
0.20811
0.218686
0.224482
0.226794
0.227149
0.226409
0.224509
0.220715
0.244616
0.174214
0.17781
0.191015
0.203767
0.213703
0.220673
0.224906
0.226407
0.225282
0.222182
0.240981
0.16121
0.157533
0.167173
0.179289
0.190636
0.200134
0.20724
0.211427
0.211972
0.210716
0.24926
0.146279
0.141385
0.148672
0.160908
0.176192
0.192598
0.20576
0.209983
0.204781
0.197457
0.467863
0.670007
0.575863
0.445079
0.315786
0.208897
0.132877
0.083445
0.0519236
0.0319737
0.0199444
0.373117
0.555765
0.52722
0.423959
0.304624
0.202937
0.129376
0.0806074
0.049491
0.0301005
0.0185124
0.282124
0.483642
0.484576
0.413325
0.309539
0.210896
0.135302
0.0838279
0.050833
0.0305642
0.0187384
0.235443
0.428647
0.449969
0.401219
0.312312
0.218679
0.142588
0.0891579
0.0543023
0.0325661
0.0197679
0.202891
0.364155
0.400266
0.37877
0.31083
0.226285
0.150678
0.0948091
0.0574371
0.0337545
0.019793
0.185334
0.321777
0.357693
0.346592
0.294478
0.222098
0.151732
0.0968282
0.0591899
0.0352784
0.0211424
0.174573
0.292784
0.327156
0.318764
0.273519
0.209968
0.146632
0.0956891
0.0596013
0.0359797
0.0216552
0.168169
0.271979
0.303114
0.295375
0.255119
0.197883
0.140228
0.0930605
0.0589856
0.0362729
0.022555
0.16336
0.255621
0.283533
0.275759
0.238763
0.186388
0.133509
0.0898815
0.0579541
0.0362877
0.022869
0.159079
0.241734
0.267201
0.259569
0.225081
0.176518
0.12748
0.0868182
0.056758
0.0359956
0.0227309
0.15525
0.229747
0.253484
0.246237
0.213898
0.168429
0.122452
0.0841503
0.0555823
0.0356054
0.0229064
0.152471
0.219739
0.24204
0.235193
0.204722
0.161861
0.118397
0.081995
0.0546294
0.0353108
0.0229125
0.150343
0.211166
0.232456
0.226194
0.197476
0.15686
0.115446
0.0805283
0.0540733
0.0352139
0.0228877
0.148303
0.203516
0.224375
0.219116
0.192211
0.153566
0.113757
0.0798811
0.0539857
0.0353474
0.0231708
0.146929
0.196974
0.217649
0.213607
0.188583
0.151769
0.113254
0.0800569
0.0543962
0.0357215
0.0233345
0.146097
0.191188
0.212084
0.209599
0.186644
0.151605
0.114098
0.0811963
0.0554128
0.036422
0.023714
0.145466
0.185735
0.207444
0.207111
0.186626
0.153402
0.116608
0.0835462
0.0571972
0.0375437
0.0243281
0.145305
0.180686
0.203638
0.206029
0.188533
0.157341
0.121051
0.0873597
0.0599569
0.0392337
0.025157
0.14607
0.175821
0.200156
0.205864
0.192271
0.163809
0.127846
0.0930153
0.0640208
0.041766
0.0265418
0.147867
0.170875
0.196753
0.206043
0.196877
0.171733
0.13682
0.100816
0.069782
0.0455606
0.0287719
0.150979
0.165677
0.193021
0.206179
0.20184
0.180599
0.147357
0.110621
0.0775719
0.051191
0.0324559
0.156838
0.159263
0.188961
0.205458
0.205975
0.189195
0.158685
0.12238
0.0879919
0.059554
0.0385462
0.163884
0.153966
0.182837
0.203596
0.208546
0.196392
0.169866
0.135817
0.101567
0.0717225
0.048394
0.186858
0.162811
0.191971
0.199163
0.202803
0.195151
0.175546
0.147712
0.117047
0.0879682
0.0633692
0.430843
0.590899
0.553927
0.472565
0.372186
0.26038
0.165966
0.104342
0.0642955
0.0389438
0.0239044
0.3323
0.431025
0.478641
0.459103
0.398148
0.31017
0.216609
0.138898
0.0850613
0.0514881
0.0310744
0.181523
0.402143
0.433269
0.433178
0.400531
0.337288
0.255982
0.175736
0.112597
0.069069
0.0422777
0.193693
0.382673
0.465206
0.446327
0.410181
0.356301
0.28561
0.208688
0.140421
0.0899364
0.0578873
0.212923
0.383412
0.575291
0.568621
0.483599
0.399534
0.31921
0.240325
0.168465
0.111674
0.0742783
0.229227
0.377921
0.598337
0.759415
0.675156
0.520365
0.387928
0.283539
0.199859
0.135064
0.0910314
0.245127
0.372416
0.578699
0.822139
0.914765
0.749085
0.533023
0.363722
0.245218
0.163174
0.109543
0.26088
0.369809
0.550507
0.790659
1.02834
1.01531
0.766879
0.50681
0.321014
0.202958
0.131593
0.276191
0.371571
0.525693
0.736685
0.98897
1.16815
1.02013
0.706327
0.436598
0.261729
0.161042
0.290782
0.377549
0.507027
0.678845
0.902761
1.15272
1.19146
0.914341
0.580793
0.339944
0.199364
0.304717
0.388238
0.496765
0.626335
0.805137
1.05133
1.23134
1.06813
0.720193
0.425831
0.243722
0.318655
0.403028
0.494049
0.583651
0.713868
0.923182
1.15631
1.13296
0.817963
0.498215
0.28562
0.333241
0.422859
0.498167
0.55378
0.639435
0.799972
1.03492
1.11791
0.854957
0.538375
0.313822
0.349196
0.447363
0.507554
0.535403
0.58372
0.692686
0.886808
1.04376
0.833363
0.538355
0.32315
0.366553
0.476755
0.521376
0.524203
0.54207
0.608065
0.726595
0.858145
0.77762
0.500651
0.313329
0.385598
0.513222
0.541523
0.517449
0.502816
0.527502
0.587375
0.654062
0.660304
0.464464
0.292707
0.407483
0.560162
0.572755
0.520572
0.473682
0.463581
0.484271
0.514712
0.521958
0.425923
0.282654
0.43384
0.622483
0.62294
0.54319
0.466887
0.431301
0.428576
0.437501
0.435353
0.39051
0.287069
0.468015
0.708709
0.70631
0.601527
0.497447
0.443037
0.43002
0.433449
0.431177
0.402069
0.333003
0.515574
0.844748
0.861248
0.736203
0.601236
0.527178
0.508802
0.505733
0.490826
0.44931
0.383861
0.510306
0.929038
1.00099
0.891846
0.740933
0.638066
0.552974
0.491216
0.428753
0.365334
0.282075
0.480828
0.868356
0.96224
0.902558
0.703639
0.510904
0.396056
0.316325
0.255211
0.206378
0.161139
0.366292
0.603936
0.585845
0.47567
0.359517
0.28312
0.233944
0.19863
0.16898
0.140886
0.112992
0.226619
0.18427
0.174897
0.174032
0.17685
0.178115
0.173129
0.159662
0.138716
0.113429
0.0876753
0.22696
0.210914
0.101509
0.0471876
0.0248193
0.0159453
0.0124592
0.0109054
0.0100684
0.00950351
0.00902823
0.273663
0.307624
0.0965894
0.054183
0.0282662
0.0175329
0.0128964
0.0108208
0.00973276
0.0090423
0.00851713
0.31828
0.362715
0.0964402
0.0628411
0.0307863
0.0192655
0.0135835
0.010987
0.00961881
0.00876765
0.00813052
0.358242
0.343054
0.0990753
0.0671548
0.0314822
0.020605
0.0141393
0.0112296
0.00962098
0.00863257
0.00790878
0.390146
0.308758
0.0998407
0.0662891
0.0313363
0.0214594
0.0144279
0.0114513
0.0096713
0.00859341
0.00782027
0.414198
0.283714
0.0991705
0.0633168
0.031065
0.0218216
0.0145105
0.0116126
0.00971367
0.0085913
0.00779789
0.430345
0.269516
0.0980462
0.0601602
0.0308895
0.0217496
0.0145278
0.0117044
0.00972881
0.00859565
0.0077805
0.439076
0.261405
0.096653
0.0575028
0.0308183
0.0214473
0.0145323
0.0117348
0.00972088
0.00860202
0.00779507
0.441554
0.258288
0.0955796
0.0556474
0.0308346
0.0211485
0.0145415
0.0117345
0.00970425
0.00860621
0.00779262
0.438772
0.260709
0.0971368
0.0550754
0.0310756
0.0209929
0.0145943
0.0117361
0.00969618
0.00861074
0.00778112
0.430858
0.266377
0.101524
0.0560041
0.0318374
0.0211318
0.0147352
0.0117493
0.00971868
0.00861604
0.00777833
0.418281
0.274282
0.107214
0.0578083
0.0329672
0.0215297
0.0150508
0.0118262
0.0097992
0.00863631
0.00778955
0.402283
0.28405
0.115112
0.0608469
0.034672
0.0222879
0.0155602
0.0120071
0.00993762
0.00868492
0.00782526
0.383486
0.29601
0.126744
0.0658769
0.0373532
0.0236019
0.016339
0.0123629
0.010153
0.00878433
0.00788481
0.362106
0.310226
0.140828
0.0728056
0.0411308
0.0255817
0.0174661
0.0129485
0.0104796
0.00895628
0.00798208
0.339083
0.326415
0.158364
0.0824375
0.0465027
0.028528
0.0191374
0.0138765
0.0109901
0.0092393
0.00813993
0.315041
0.34403
0.181171
0.0964168
0.0545352
0.0330628
0.0217299
0.0153621
0.0118194
0.00970792
0.00840251
0.290387
0.363886
0.20959
0.115879
0.0663635
0.0400347
0.0258231
0.017769
0.0132033
0.0105036
0.00885497
0.266274
0.385735
0.245267
0.143262
0.0842075
0.0511082
0.032575
0.0218583
0.0156335
0.0119326
0.00968344
0.244287
0.408586
0.290092
0.182313
0.111945
0.0694693
0.0443543
0.0292889
0.0202278
0.0147222
0.0113454
0.22622
0.430533
0.345384
0.238434
0.156343
0.101375
0.0662348
0.0438897
0.0297437
0.0207864
0.015121
0.214512
0.451086
0.410967
0.318573
0.229088
0.159465
0.109619
0.0750575
0.0515096
0.0356284
0.0250006
0.203276
0.447154
0.465997
0.412681
0.335208
0.258944
0.19396
0.142465
0.103294
0.0742938
0.053142
0.203317
0.405238
0.412358
0.394763
0.359656
0.314668
0.266377
0.219628
0.177093
0.140256
0.109103
0.212144
0.211993
0.103685
0.0486194
0.0250953
0.0160615
0.0127958
0.011474
0.0108279
0.0104338
0.0101271
0.255351
0.283559
0.0907408
0.0516057
0.0279723
0.0182189
0.0141842
0.0125082
0.0117405
0.0113321
0.01106
0.293797
0.321015
0.0845147
0.0564772
0.0303365
0.0202259
0.0158515
0.0140806
0.0133568
0.0130291
0.0128344
0.323921
0.29007
0.0816146
0.0579946
0.0312203
0.0216164
0.0172907
0.0157416
0.0153427
0.0154399
0.0157278
0.344508
0.245159
0.0786729
0.0561931
0.0311901
0.0225803
0.0184968
0.017197
0.0171071
0.0176047
0.018353
0.357922
0.209378
0.0751929
0.0530086
0.0309215
0.0232952
0.0194946
0.0184745
0.0187412
0.0197863
0.0213735
0.366948
0.183875
0.0716542
0.0498826
0.0306534
0.0238455
0.0203071
0.0195494
0.0200873
0.021524
0.0236403
0.372134
0.165175
0.0682239
0.0472198
0.0304236
0.0242835
0.0209747
0.0204248
0.0211536
0.0229244
0.025753
0.375783
0.151257
0.065182
0.0451236
0.030319
0.0245886
0.0215313
0.0210954
0.0219087
0.0238465
0.0270641
0.379536
0.140856
0.0626629
0.0435879
0.0303892
0.0248037
0.0219849
0.0215535
0.022331
0.0242197
0.0273809
0.384619
0.13387
0.0607748
0.0425645
0.0306236
0.0250169
0.0223356
0.0218081
0.022436
0.0240794
0.0268226
0.389677
0.129205
0.0593482
0.0419207
0.0309805
0.0252366
0.0226051
0.0218884
0.0222785
0.0235467
0.0257172
0.393347
0.12739
0.0587298
0.0416523
0.0315147
0.025522
0.0228597
0.021864
0.0219576
0.0227883
0.0243119
0.3958
0.12853
0.0594215
0.0418042
0.0322723
0.0259703
0.0231555
0.0218099
0.021556
0.0219267
0.0228372
0.397066
0.131255
0.0610043
0.0423279
0.0331841
0.0266108
0.0235205
0.0217818
0.0211373
0.0210509
0.0214112
0.397309
0.135736
0.0636748
0.0433539
0.0342654
0.0274934
0.0240199
0.0218529
0.0207765
0.0202495
0.0201363
0.396613
0.142298
0.0678045
0.045129
0.0356067
0.0286732
0.0247433
0.0221179
0.0205704
0.0196155
0.019097
0.394934
0.15073
0.0736535
0.0479609
0.0373852
0.030215
0.0257911
0.0226895
0.0206428
0.0192572
0.0183648
0.392181
0.160981
0.0816617
0.0523627
0.0399779
0.03228
0.0272985
0.0237069
0.0211498
0.0193182
0.0180548
0.388173
0.173168
0.0925283
0.0591922
0.0441153
0.0352904
0.0295358
0.0253762
0.0222918
0.0199934
0.0183338
0.382457
0.187068
0.10713
0.0697702
0.0511162
0.0402261
0.0331561
0.0281292
0.0243805
0.0215386
0.0194257
0.373876
0.202283
0.126485
0.0860787
0.0632639
0.049149
0.0397471
0.0330784
0.0281381
0.0243973
0.021584
0.359975
0.221193
0.154423
0.112819
0.0857666
0.0672456
0.0539781
0.0441274
0.0366285
0.0308388
0.028179
0.252736
0.261436
0.221438
0.192989
0.172922
0.157771
0.145426
0.134705
0.124891
0.115597
0.104444
0.0666622
0.0376647
0.0182242
0.0163743
0.0179002
0.0279309
0.0628095
0.0857097
0.100795
0.079514
0.056198
0.0354842
0.0264653
0.0313547
0.0626996
0.0889451
0.116032
0.141758
0.0969024
0.0719746
0.0472404
0.0346715
0.0424109
0.0829538
0.113383
0.136864
0.150316
0.100298
0.0803953
0.0557375
0.0417265
0.0532151
0.0943275
0.119276
0.133778
0.140602
0.0849654
0.0953845
0.101506
0.104165
0.104148
0.106547
0.116401
0.115243
0.11068
0.101595
0.120851
0.136577
0.147364
0.155258
0.171484
0.18649
0.175761
0.163286
0.114864
0.12593
0.135314
0.145407
0.151133
0.163328
0.180223
0.169321
0.159873
0.110096
0.114896
0.119518
0.12566
0.125882
0.131065
0.149406
0.144208
0.144193
0.00442777
0.00460213
0.00461759
0.00576982
0.0460157
0.00438322
0.0112354
0.00454936
0.00437474
0.00424851
0.0451044
0.00455876
0.00374949
0.00327923
0.00448412
0.00430363
0.00328444
0.00613386
0.00429316
0.00425037
0.00411326
0.00466992
0.00466529
0.0156448
0.00449205
0.00329067
0.00379657
0.0107587
0.0591458
0.0494152
0.003345
0.00410048
0.00296359
0.00453695
0.00426906
0.00459277
0.0144872
0.0044871
0.00289636
0.00438942
0.00547798
0.00454611
0.0146306
0.00465825
0.0607159
0.0123053
0.00331197
0.0201751
0.00429224
0.00433438
0.0493513
0.00439589
0.0239755
0.0151603
0.00432806
0.00412036
0.00463448
0.00440189
0.0594737
0.0203912
0.00515023
0.0175309
0.0536352
0.00810931
0.00713356
0.0042623
0.0511913
0.00435042
0.00460242
0.00424013
0.00329825
0.00429276
0.00401335
0.00451496
0.0315619
0.00426359
0.00415397
0.00459792
0.00932921
0.0732936
0.0253125
0.00657914
0.00449586
0.00462621
0.00438064
0.00410081
0.0782911
0.0104466
0.00314728
0.0117966
0.00454217
0.00441357
0.00625993
0.00436913
0.0723296
0.0347849
0.0281185
0.00399569
0.00349354
0.00435094
0.00465252
0.0175909
0.00416666
0.00402044
0.00297481
0.0045517
0.00304297
0.00464657
0.0036088
0.0041461
0.00451098
0.00456093
0.00429925
0.00304149
0.00970947
0.0044232
0.00437514
0.00431655
0.00450421
0.00413885
0.00278395
0.00446163
0.00485925
0.00326362
0.0107903
0.00419749
0.0335465
0.00304171
0.00315093
0.00330907
0.00445458
0.0209205
0.018426
0.00426782
0.00461435
0.00457721
0.00369179
0.00459481
0.0501751
0.00446789
0.014093
0.00411426
0.0245105
0.00402448
0.00436695
0.00321195
0.0044609
0.00433879
0.00430178
0.0042565
0.00429194
0.00442025
0.00339311
0.0044445
0.00398991
0.00493894
0.00608208
0.00371791
0.00321814
0.00435994
0.0036387
0.00424033
0.00428479
0.00442974
0.0537206
0.00471914
0.0035464
0.00432278
0.00425023
0.00707134
0.00306687
0.0031021
0.00439782
0.00405737
0.00409074
0.00396027
0.0031768
0.00343871
0.0616889
0.00392672
0.00433409
0.00434393
0.00466
0.0129133
0.00450702
0.00429755
0.00427839
0.00430315
0.00459022
0.0126087
0.00358516
0.00340635
0.00427438
0.0054541
0.00461056
0.0043973
0.00435003
0.00357431
0.00335239
0.00467915
0.00323145
0.00433515
0.00367398
0.00343884
0.00462796
0.00938652
0.00436053
0.00314315
0.00434239
0.00433895
0.0127285
0.00439456
0.00401408
0.00422325
0.00449271
0.0416825
0.00451011
0.00363863
0.00429677
0.0032437
0.0028739
0.00299943
0.0271903
0.00928658
0.00322594
0.00440696
0.00962852
0.00441472
0.0034575
0.0229452
0.00390296
0.0042585
0.00428814
0.00445832
0.00337255
0.0692387
0.0395244
0.00464678
0.00456352
0.00455215
0.00368303
0.0116878
0.00401137
0.00526868
0.00457018
0.00457834
0.00451887
0.00355393
0.0279897
0.0374742
0.00354124
0.0130046
0.00520508
0.00430347
0.00395245
0.00435749
0.00414077
0.00447278
0.00318033
0.00427296
0.00340861
0.00455586
0.00432655
0.00457564
0.00450861
0.00306544
0.00411337
0.00472377
0.00559167
0.00372179
0.0219587
0.00432048
0.00432913
0.00318125
0.00438974
0.004328
0.00332053
0.00444842
0.00428022
0.00331102
0.00432526
0.00459754
0.0256054
0.0361092
0.00395359
0.00439567
0.0803676
0.00458945
0.00424792
0.0122694
0.00461632
0.0112201
0.00424848
0.0029805
0.00467872
0.0043474
0.00424362
0.00456671
0.00426375
0.00335293
0.00445067
0.00269471
0.00437376
0.0497702
0.00415273
0.0041472
0.00459893
0.00703709
0.00437437
0.0043481
0.00714999
0.0045637
0.00408942
0.0029602
0.00452439
0.00410892
0.00371081
0.00325567
0.00412904
0.00443803
0.00426992
0.0168032
0.00435615
0.0033891
0.00563618
0.00420896
0.00445274
0.00371378
0.00424209
0.0519151
0.00445601
0.0540328
0.00402737
0.00464937
0.00358484
0.0439349
0.0055677
0.00458747
0.00447466
0.00397935
0.00402627
0.012906
0.00433161
0.0049969
0.0198198
0.00711881
0.0151807
0.0043774
0.0131122
0.0394044
0.0086083
0.00391873
0.0037392
0.00417149
0.00395534
0.00468915
0.00291118
0.00399788
0.00465948
0.050546
0.00386053
0.00332091
0.00451751
0.00451232
0.00430975
0.00327285
0.00309064
0.0038094
0.0107495
0.00447557
0.00444139
0.0128483
0.0356138
0.00319454
0.00386735
0.00460856
0.00391668
0.0042518
0.00437801
0.0042633
0.0242425
0.0043845
0.00315037
0.00441413
0.00339303
0.0480671
0.00268786
0.00321133
0.0126052
0.00345686
0.00443102
0.0053597
0.00310808
0.00455922
0.047911
0.0070829
0.00448005
0.00429306
0.00461888
0.0102413
0.00315781
0.00440994
0.0046615
0.0120073
0.00278735
0.00627937
0.00796061
0.00469147
0.00433385
0.0167366
0.00434818
0.00427918
0.00354574
0.00350101
0.00382589
0.00407377
0.00360862
0.00462927
0.00314944
0.00497543
0.0311152
0.00321947
0.0127188
0.003455
0.00398061
0.00413625
0.00448413
0.00479028
0.00436781
0.00848582
0.00448687
0.00314848
0.00341603
0.00410417
0.00433732
0.00343935
0.0240915
0.0482775
0.00327398
0.00468835
0.00395584
0.0770531
0.012901
0.00271266
0.00424346
0.0062858
0.024187
0.00342002
0.00434589
0.00382972
0.00444411
0.00461343
0.00449934
0.00431945
0.00446881
0.0113033
0.00307975
0.00323254
0.00491741
0.00459177
0.00434224
0.0352271
0.00319702
0.00394379
0.00437575
0.00801591
0.0076065
0.00545505
0.00546768
0.00443635
0.00393144
0.00347306
0.00423213
0.00507301
0.00428585
0.00458704
0.00432678
0.00557893
0.00358639
0.00428156
0.00444962
0.00412811
0.0165191
0.00412434
0.00464652
0.00323848
0.0312594
0.00404755
0.0039764
0.0043411
0.00333014
0.00439552
0.00429856
0.00440169
0.00320331
0.00328171
0.00426514
0.00338489
0.00400186
0.0046527
0.00374583
0.00370322
0.00454088
0.00453514
0.0344733
0.00448249
0.00340793
0.00447146
0.0158925
0.00461914
0.0342537
0.0043627
0.00352968
0.00437659
0.0046904
0.0432061
0.00728104
0.00337337
0.00445322
0.00360334
0.00411894
0.0045957
0.00442637
0.00457411
0.00419121
0.0237005
0.00452234
0.00435394
0.0117822
0.00444183
0.0089335
0.00435871
0.00609451
0.00331652
0.00316705
0.00467845
0.00447586
0.00463309
0.00552373
0.00365825
0.00450296
0.00448834
0.00325612
0.00461447
0.0118384
0.00460429
0.0618747
0.00423418
0.00401746
0.0029558
0.00334573
0.0142364
0.0360503
0.0041629
0.00410823
0.00429309
0.00460633
0.00339371
0.00335443
0.00423683
0.00343044
0.0315287
0.0369949
0.00449087
0.00433361
0.00459565
0.0260013
0.0424404
0.00421941
0.00454318
0.00436913
0.0354987
0.00431437
0.00308195
0.00319576
0.00514197
0.0333528
0.00443099
0.00451347
0.0044628
0.00751562
0.00433727
0.0327187
0.00319804
0.00409204
0.00477347
0.00551495
0.00463551
0.00467316
0.0717299
0.00440564
0.00354088
0.00465411
0.00897667
0.0265534
0.00399297
0.00362953
0.00420839
0.0044409
0.00449638
0.0304344
0.00299575
0.00388671
0.00425269
0.00450006
0.00661385
0.00426598
0.00443278
0.00426918
0.00427537
0.00321931
0.00314972
0.00913966
0.00567421
0.00401553
0.00525991
0.00429623
0.00886834
0.00425229
0.00446007
0.0290447
0.0177748
0.00438282
0.00438813
0.00366545
0.00415787
0.00433655
0.00565016
0.00460562
0.00417041
0.00332981
0.00297926
0.00381995
0.00313188
0.00318905
0.00558206
0.0107583
0.00486585
0.00581367
0.00353428
0.00345271
0.00602465
0.00349896
0.0046211
0.0041737
0.00569451
0.00393745
0.00422529
0.00423086
0.00342483
0.0139538
0.0272285
0.0036063
0.00531065
0.00442454
0.00525953
0.00455044
0.00430027
0.00427314
0.00343032
0.0042361
0.00455174
0.00421184
0.00459349
0.006744
0.00616226
0.0221611
0.004255
0.00426754
0.00399074
0.00880216
0.00440576
0.0159277
0.00428495
0.0256214
0.014455
0.00442978
0.00360161
0.00465952
0.00298965
0.00552595
0.00319547
0.0245015
0.00364612
0.00427298
0.0046364
0.00372483
0.00320552
0.00426582
0.0306787
0.00436913
0.00407649
0.00463265
0.0037448
0.00421484
0.0031759
0.0045554
0.00440143
0.00440325
0.00381394
0.00609105
0.00456298
0.00333835
0.00437411
0.00427011
0.00322862
0.00407809
0.0048793
0.00522874
0.00295444
0.00409627
0.00372402
0.0036321
0.00663019
0.00299308
0.0117716
0.00446942
0.00336971
0.00449504
0.00442945
0.00660635
0.00443898
0.00337055
0.00327393
0.00431299
0.00416637
0.00413122
0.0041472
0.00458647
0.0677354
0.0105791
0.0601668
0.00412832
0.00397631
0.01423
0.0283648
0.00444656
0.00350627
0.00362285
0.00296837
0.00452962
0.00332974
0.0317353
0.00454859
0.00909287
0.00351403
0.00457213
0.0263339
0.00437751
0.00430387
0.00422408
0.00336967
0.00433825
0.00319563
0.0045703
0.00299992
0.00428444
0.00298715
0.00458673
0.0158573
0.00353126
0.00429186
0.0212614
0.0120992
0.00446155
0.00319571
0.00385232
0.00797062
0.0052027
0.00378386
0.00431039
0.0101391
0.00296791
0.00499974
0.00429211
0.00437372
0.00441388
0.0164384
0.00378962
0.00469017
0.0044931
0.00453165
0.032215
0.01759
0.00361914
0.00457735
0.00338024
0.00425489
0.00455722
0.00458065
0.0046243
0.00448496
0.00455391
0.00317385
0.00520037
0.0109892
0.00308898
0.00421091
0.00442627
0.00450363
0.00376668
0.0253961
0.00459552
0.004058
0.00351566
0.0156363
0.0143319
0.00463832
0.00391679
0.0110488
0.00442959
0.00446637
0.0102158
0.00421981
0.00456759
0.004244
0.00495652
0.00399406
0.00389841
0.00455569
0.00409399
0.0062491
0.00464713
0.00456654
0.00309169
0.00818993
0.00595093
0.00865424
0.00464037
0.00428632
0.00664693
0.0030387
0.00715441
0.00460123
0.00420873
0.00452176
0.00433302
0.0045908
0.0339221
0.00344287
0.00870056
0.014801
0.0112633
0.00454927
0.0515459
0.0046693
0.0042817
0.00492111
0.00449227
0.0044183
0.00441758
0.00304316
0.02663
0.00492024
0.00441523
0.0107645
0.00442285
0.004688
0.0043344
0.0043848
0.00422818
0.00449788
0.00455836
0.00433746
0.0610667
0.00437912
0.00425941
0.00451365
0.0182474
0.00430714
0.00450697
0.0051573
0.0601897
0.00428859
0.00451465
0.00300871
0.00835643
0.00464928
0.00454014
0.0041975
0.00400726
0.00683139
0.00459771
0.0115582
0.00299406
0.0108264
0.00299829
0.00458048
0.00325862
0.00564152
0.00444301
0.00445413
0.00450339
0.00460803
0.00397769
0.00930262
0.00427406
0.00521652
0.0651378
0.00826292
0.00393615
0.00581226
0.0046628
0.00456138
0.00315252
0.00277734
0.00329303
0.00439706
0.0273949
0.00430042
0.00336894
0.00431795
0.00315062
0.00313817
0.00342862
0.00350222
0.00419728
0.00452734
0.0447977
0.00428997
0.0408298
0.00423744
0.00306152
0.00419042
0.00421157
0.0564669
0.00438198
0.00460357
0.00352114
0.00826047
0.00814492
0.00343268
0.00320497
0.00331143
0.0395948
0.0460484
0.00452057
0.00420401
0.0450935
0.00439628
0.00550124
0.00449751
0.00952333
0.0030241
0.00453822
0.00460545
0.00343449
0.00464477
0.00440637
0.00362313
0.00428734
0.00427723
0.00446158
0.00433207
0.00457708
0.00427178
0.00478105
0.0043725
0.00417801
0.00609585
0.0034918
0.00394303
0.0046106
0.00516846
0.00297909
0.00459714
0.00465582
0.00408588
0.0164326
0.0485618
0.00396874
0.00344411
0.00410233
0.00434747
0.00308062
0.00387033
0.00427087
0.00569987
0.00455374
0.0672391
0.00495172
0.0325534
0.0045531
0.00454958
0.00474029
0.0432709
0.00336109
0.00314616
0.00467574
0.00306325
0.019384
0.00456362
0.00402807
0.0410494
0.00365132
0.025122
0.00364506
0.00445824
0.00433136
0.00418751
0.00427959
0.00637028
0.00302481
0.00601553
0.0444801
0.00459956
0.00306661
0.00385795
0.00512235
0.00934546
0.00641169
0.00439104
0.0040627
0.0031362
0.00454579
0.004669
0.00467877
0.0278574
0.00411802
0.00460729
0.00371145
0.00898326
0.00320301
0.00452713
0.00810256
0.00405314
0.00407666
0.00398071
0.00455661
0.00430597
0.00447833
0.0143271
0.00450447
0.019949
0.00399773
0.00345635
0.00450874
0.00417942
0.00450402
0.00437599
0.00394363
0.0401795
0.0130479
0.0545488
0.00906655
0.0468049
0.00419725
0.00426305
0.00271899
0.00462886
0.00324319
0.0284492
0.00429358
0.00487077
0.00388507
0.0461962
0.00421009
0.00320363
0.00455117
0.0440218
0.00469503
0.0338719
0.00419104
0.00457177
0.00507489
0.00847078
0.00418929
0.00516622
0.00848495
0.00439968
0.0144744
0.00558508
0.0242033
0.00329462
0.00280755
0.0127172
0.00437567
0.00461003
0.00371291
0.00462319
0.00344209
0.0033027
0.00370852
0.00390284
0.00322884
0.0533617
0.00437394
0.00433299
0.00425603
0.00457455
0.00296788
0.00340216
0.00422916
0.00330877
0.0428073
0.00457697
0.0558883
0.00749348
0.00450217
0.00479193
0.00387852
0.00318444
0.00318747
0.0108209
0.00442047
0.00452704
0.0457944
0.00437339
0.00458631
0.0035575
0.00454429
0.00447653
0.0477474
0.00449256
0.0341786
0.00398698
0.00632767
0.00429201
0.00430246
0.0152527
0.0032482
0.0116828
0.00444478
0.00303915
0.014309
0.00305855
0.00338208
0.00528025
0.00403146
0.00424173
0.00916167
0.00719663
0.00406596
0.00432305
0.00336152
0.00380942
0.00461384
0.00357004
0.0481243
0.00425719
0.00468939
0.00450576
0.00403771
0.00278971
0.00320207
0.00329153
0.0786223
0.00462481
0.00587672
0.00555695
0.0045744
0.00379476
0.00424814
0.00427912
0.0641473
0.0045176
0.0170124
0.0239536
0.0045665
0.00449562
0.00464259
0.0313223
0.017362
0.0226009
0.00335494
0.00456592
0.00430174
0.00326933
0.0190724
0.00651181
0.00309159
0.00434112
0.00613894
0.0176024
0.0060651
0.00416757
0.0126022
0.0283931
0.00404965
0.00382594
0.00430783
0.00436085
0.0302871
0.00318674
0.00368045
0.00460047
0.00468287
0.00413646
0.0494571
0.00474181
0.00300785
0.00804533
0.00771686
0.00436836
0.0145152
0.00576615
0.00462215
0.00304282
0.00477983
0.00412846
0.0303004
0.00453558
0.0044247
0.00424335
0.00522997
0.0031019
0.00435497
0.00708682
0.00461508
0.00456139
0.00468819
0.00330361
0.00442911
0.0054537
0.00418716
0.00455968
0.0498006
0.00445616
0.00347399
0.00347058
0.00420589
0.00350783
0.00534201
0.00453064
0.00456654
0.00448684
0.00303525
0.00449691
0.00429267
0.00441196
0.00342672
0.016384
0.00312025
0.00667885
0.00429809
0.00576631
0.00415483
0.00467562
0.00440095
0.0045868
0.00315588
0.00413931
0.00325181
0.00412175
0.00420699
0.00451028
0.00438709
0.0132482
0.00546837
0.0127162
0.00468828
0.00308266
0.0379698
0.00323973
0.00304977
0.00439458
0.00548863
0.0349573
0.00479007
0.00320273
0.00374975
0.00363359
0.003011
0.00450168
0.0690715
0.00309626
0.00414668
0.00379678
0.00373821
0.00360447
0.00288721
0.00485259
0.00305632
0.0556357
0.0214942
0.00448725
0.00433599
0.025789
0.041849
0.00401563
0.00455175
0.00423775