/*--------------------------------*- C++ -*----------------------------------*\
| =========                 |                                                 |
| \\      /  F ield         | OpenFOAM: The Open Source CFD Toolbox           |
|  \\    /   O peration     | Version:  3.0.1                                 |
|   \\  /    A nd           | Web:      www.OpenFOAM.org                      |
|    \\/     M anipulation  |                                                 |
\*---------------------------------------------------------------------------*/
FoamFile
{
    version     2.0;
    format      ascii;
    class       volVectorField;
    location    "0.560952";
    object      U;
}
// * * * * * * * * * * * * * * * * * * * * * * * * * * * * * * * * * * * * * //

dimensions      [0 1 -1 0 0 0 0];

internalField   nonuniform List<vector> 
21246
(
(5.18087 1.03556 2.09462e-18)
(3.80535 0.703779 -7.89128e-19)
(3.48764 0.703406 0)
(3.03292 0.57234 -2.70923e-19)
(2.63298 0.436406 -3.97291e-19)
(2.3175 0.308392 3.09299e-19)
(2.07079 0.196674 -1.29483e-19)
(1.87603 0.102387 5.72784e-20)
(1.72086 0.0226161 -2.22535e-20)
(1.59706 -0.0449235 8.42181e-20)
(1.50201 -0.0951052 -5.65878e-20)
(4.18038 -0.0152539 -4.93778e-19)
(2.60736 -0.605732 7.70333e-19)
(3.14931 -0.439438 0)
(3.06914 -0.321102 0)
(2.78165 -0.211043 -2.23054e-19)
(2.49402 -0.14184 1.68616e-19)
(2.22603 -0.117358 0)
(1.99842 -0.122527 5.56578e-21)
(1.81353 -0.143875 0)
(1.66649 -0.171524 2.40937e-21)
(1.5551 -0.193628 -5.10901e-20)
(2.55005 0.13467 1.53255e-18)
(1.48436 -0.763334 -1.00538e-18)
(2.35854 -0.936927 0)
(2.55319 -0.922605 0)
(2.54121 -0.795226 0)
(2.4204 -0.615148 -8.48186e-20)
(2.2366 -0.477751 3.802e-19)
(2.04093 -0.386804 -2.788e-19)
(1.8604 -0.336567 0)
(1.708 -0.313598 0)
(1.59191 -0.299606 -4.28174e-20)
(1.46257 0.8684 -5.51396e-19)
(0.944341 -0.268736 -1.43254e-18)
(1.64834 -0.826558 5.97448e-19)
(1.90939 -1.05377 -1.25012e-18)
(2.08606 -1.0766 8.23496e-19)
(2.14821 -0.950645 -1.04103e-18)
(2.09205 -0.781197 1.67505e-19)
(1.97802 -0.637844 2.16268e-19)
(1.84228 -0.531081 0)
(1.71068 -0.459027 3.56465e-19)
(1.60327 -0.40243 -1.08547e-19)
(0.936492 1.66861 1.18282e-18)
(0.748494 0.414685 1.49861e-18)
(1.19193 -0.380824 -2.65132e-19)
(1.41986 -0.83575 9.71347e-19)
(1.6529 -1.05352 9.60401e-19)
(1.81164 -1.06335 0)
(1.86426 -0.957968 1.22654e-19)
(1.8386 -0.817935 7.69157e-19)
(1.76495 -0.692032 1.96055e-19)
(1.67106 -0.59157 -5.69208e-19)
(1.58504 -0.506071 4.15364e-19)
(0.780768 2.38997 1.58217e-18)
(0.724637 1.08241 -1.15785e-18)
(0.95316 0.164137 4.02563e-19)
(1.12557 -0.454081 0)
(1.34118 -0.837836 -7.15579e-19)
(1.52363 -0.994577 -1.61489e-19)
(1.63323 -0.99176 -7.16992e-19)
(1.67385 -0.907338 -1.62446e-19)
(1.65788 -0.79771 1.53638e-19)
(1.60454 -0.693025 3.28661e-19)
(1.54782 -0.596937 0)
(0.854499 3.0365 0)
(0.791703 1.71893 2.13661e-19)
(0.869854 0.723753 -3.90394e-19)
(0.983703 -0.0173002 0)
(1.15387 -0.532623 -3.6711e-19)
(1.32161 -0.819102 2.80932e-19)
(1.44832 -0.923294 8.29626e-20)
(1.52393 -0.912052 -5.11474e-19)
(1.54881 -0.844082 2.84663e-19)
(1.53084 -0.758331 -4.01443e-19)
(1.50517 -0.665597 -1.52596e-19)
(1.06727 3.60732 0)
(0.910446 2.32377 -1.72154e-18)
(0.892755 1.2704 1.00232e-18)
(0.947899 0.428368 8.48737e-19)
(1.06492 -0.194502 -7.97686e-19)
(1.20049 -0.591895 -4.44362e-19)
(1.32093 -0.79515 3.39689e-19)
(1.40851 -0.85958 0)
(1.4565 -0.841941 -4.15344e-19)
(1.46327 -0.786202 0)
(1.46147 -0.712102 2.00667e-19)
(1.32907 4.08957 1.77171e-18)
(1.05262 2.88486 -1.28965e-18)
(0.978463 1.7894 1.0904e-18)
(0.973879 0.869634 -7.29072e-19)
(1.03762 0.156152 1.46154e-19)
(1.13739 -0.338501 0)
(1.24148 -0.63285 2.7493e-19)
(1.32825 -0.771165 1.66766e-19)
(1.38724 -0.806628 -1.17667e-19)
(1.41059 -0.785548 0)
(1.42648 -0.736419 0)
(1.55612 4.42268 1.52806e-18)
(1.19192 3.37048 -1.08684e-18)
(1.08506 2.28518 0)
(1.0258 1.31825 -1.56535e-19)
(1.04306 0.52601 0)
(1.10909 -0.0597016 -8.63092e-19)
(1.19385 -0.442396 3.30131e-20)
(1.2744 -0.655207 5.53135e-19)
(1.33792 -0.74642 -3.17861e-20)
(1.37304 -0.76303 -3.16445e-19)
(1.40114 -0.741545 3.15068e-19)
(1.70784 4.57854 -1.63171e-18)
(1.31277 3.77638 1.15154e-18)
(1.19899 2.77187 -2.00483e-19)
(1.09659 1.78738 -1.36916e-19)
(1.07216 0.926744 0)
(1.1046 0.253109 -1.44446e-19)
(1.16749 -0.218937 -2.26568e-19)
(1.23831 -0.509989 -1.72352e-19)
(1.30262 -0.661698 4.3974e-19)
(1.34731 -0.720144 -4.66351e-19)
(1.38548 -0.728181 2.19935e-19)
(1.81317 4.62176 1.89854e-19)
(1.43848 4.0975 -1.35595e-19)
(1.32852 3.23512 1.7278e-18)
(1.19345 2.26962 -1.98151e-18)
(1.12781 1.35772 1.65313e-18)
(1.12318 0.603045 -8.92202e-19)
(1.15917 0.0423219 6.71647e-19)
(1.21527 -0.330438 3.01354e-19)
(1.27623 -0.547977 0)
(1.32843 -0.653481 0)
(1.37712 -0.693327 -1.82891e-19)
(1.9097 4.61224 0)
(1.57481 4.30093 0)
(1.47573 3.6238 0)
(1.31771 2.73767 -2.71571e-19)
(1.21078 1.81086 0)
(1.16442 0.990885 2.82933e-19)
(1.16712 0.346317 -4.06052e-19)
(1.20204 -0.109447 -8.61941e-19)
(1.25448 -0.39747 4.25209e-19)
(1.31127 -0.555701 0)
(1.37087 -0.630856 0)
(2.00401 4.59108 -3.52712e-19)
(1.70843 4.41585 -2.00116e-18)
(1.62874 3.91035 1.53452e-18)
(1.46366 3.16144 -1.32686e-18)
(1.3209 2.27242 1.17722e-18)
(1.22918 1.41562 -8.62382e-19)
(1.19117 0.698818 4.06619e-19)
(1.19699 0.162417 0)
(1.23443 -0.19888 -3.67582e-19)
(1.29168 -0.41539 -7.13963e-19)
(1.36334 -0.531524 4.83991e-20)
(2.08893 4.56919 -1.36754e-18)
(1.82337 4.48206 2.55946e-18)
(1.77151 4.10318 -1.54761e-18)
(1.61715 3.51164 3.03269e-20)
(1.45211 2.71223 1.20739e-18)
(1.31752 1.8607 5.65515e-19)
(1.23295 1.09598 3.99992e-19)
(1.20133 0.489902 -5.30115e-19)
(1.21617 0.0580585 7.52389e-19)
(1.26819 -0.21919 2.37744e-19)
(1.35012 -0.381375 -2.96209e-19)
(2.17229 4.5442 -1.03273e-18)
(1.92251 4.51731 1.60174e-18)
(1.90149 4.22838 3.89297e-19)
(1.76724 3.78003 -5.60443e-19)
(1.5941 3.10467 4.08403e-19)
(1.42517 2.30647 -5.75133e-19)
(1.29326 1.52978 -1.18667e-18)
(1.21781 0.875568 5.8709e-19)
(1.20264 0.383264 0)
(1.24306 0.0472889 -4.56724e-19)
(1.33402 -0.164973 2.67147e-20)
(2.25511 4.51434 1.47549e-18)
(2.0155 4.53406 0)
(2.02022 4.30962 -3.98542e-19)
(1.90603 3.9783 -1.14413e-18)
(1.73755 3.43791 4.52961e-19)
(1.5467 2.7333 -1.16234e-18)
(1.37322 1.98814 8.73345e-19)
(1.25214 1.31724 5.67159e-19)
(1.20111 0.783049 0)
(1.22207 0.397315 1.303e-18)
(1.31316 0.137088 -2.80806e-20)
(2.32908 4.47897 0)
(2.09654 4.53119 0)
(2.11757 4.35356 -1.64978e-18)
(2.02254 4.11812 1.27059e-18)
(1.87056 3.70889 -8.65496e-19)
(1.67452 3.12324 1.9667e-20)
(1.47317 2.45002 -4.35186e-19)
(1.31245 1.80044 -5.8042e-19)
(1.22401 1.25155 3.06531e-19)
(1.21912 0.831631 -1.36683e-18)
(1.29388 0.535816 -4.26489e-19)
(2.39357 4.43751 0)
(2.16667 4.50687 0)
(2.19019 4.36502 4.49244e-19)
(2.11292 4.20864 -1.28375e-18)
(1.98456 3.9209 9.75385e-19)
(1.80291 3.4654 6.59679e-19)
(1.59433 2.8931 1.30873e-18)
(1.40867 2.30053 -1.185e-18)
(1.28747 1.76767 7.77718e-19)
(1.25268 1.33537 4.34907e-19)
(1.30936 1.01207 1.98352e-19)
(2.44619 4.38319 0)
(2.21879 4.46083 -3.24744e-19)
(2.23275 4.34818 -4.78458e-19)
(2.16733 4.25075 0)
(2.07709 4.07938 0)
(1.93408 3.75453 -3.48788e-19)
(1.74296 3.29214 0)
(1.55288 2.77964 0)
(1.408 2.28972 3.35289e-19)
(1.34073 1.87222 -2.44501e-19)
(1.37008 1.54986 -7.88722e-20)
(2.47077 4.3039 0)
(2.24021 4.38799 5.39246e-19)
(2.23526 4.3156 0)
(2.19177 4.27404 0)
(2.15097 4.1804 1.0434e-18)
(2.08223 3.98128 -4.08114e-19)
(1.93342 3.61121 9.10589e-19)
(1.75726 3.18128 -8.1178e-19)
(1.59567 2.74951 0)
(1.49396 2.37178 0)
(1.48962 2.07467 3.41462e-19)
(2.32498 4.19583 -2.26027e-18)
(2.1464 4.28864 -2.18512e-19)
(2.18118 4.29279 0)
(2.205 4.29896 0)
(2.24519 4.23751 1.15978e-18)
(2.263 4.08655 -9.7156e-20)
(2.18051 3.78201 -5.47679e-19)
(2.02279 3.41633 7.40727e-19)
(1.84242 3.04413 -7.83107e-19)
(1.70673 2.72074 5.03424e-19)
(1.67268 2.47209 -3.1128e-19)
(2.18888 4.26971 -2.26011e-20)
(2.3382 4.22975 1.60948e-20)
(2.38536 4.24261 2.93622e-18)
(2.46838 4.19728 -1.93304e-18)
(2.54703 4.05381 -2.18021e-20)
(2.57424 3.87834 0)
(2.49973 3.64982 0)
(2.31718 3.34429 1.54937e-19)
(2.09558 3.03894 -1.35991e-20)
(1.92508 2.77441 -1.51213e-19)
(1.87391 2.52552 1.12416e-19)
(1.67713 2.18222 0)
(1.59042 2.33802 4.82781e-18)
(1.77276 2.20309 -3.40348e-18)
(1.90752 2.11541 1.69958e-18)
(2.03512 2.14388 -1.72648e-18)
(2.18162 2.26478 0)
(2.31544 2.40267 -4.80006e-19)
(2.3607 2.49878 6.52378e-19)
(2.25795 2.43212 -2.84943e-19)
(2.12272 2.29084 4.07554e-20)
(2.07261 2.08991 -1.12856e-19)
(3.26955 3.26597 0)
(2.69944 2.80216 1.78584e-19)
(2.53873 1.96402 0)
(2.3693 1.35858 -7.3544e-20)
(2.19087 0.948754 3.72116e-19)
(2.01946 0.661355 -8.01475e-20)
(1.86232 0.452327 1.68436e-19)
(1.7247 0.294446 -2.89642e-20)
(1.60802 0.171103 5.29605e-20)
(1.51092 0.0732183 0)
(1.43286 -9.56745e-05 1.20551e-19)
(-0.413799 2.91421 6.03031e-18)
(0.782663 2.72058 -7.41942e-19)
(1.29346 2.37742 -1.00285e-17)
(1.56731 1.85594 3.32973e-18)
(1.68148 1.39385 -1.51162e-18)
(1.69297 1.01616 2.01291e-18)
(1.64381 0.720398 -1.58388e-19)
(1.56955 0.493053 -3.70573e-19)
(1.49126 0.319281 -1.48192e-19)
(1.41767 0.185676 0)
(1.35468 0.0883188 0)
(-1.16552 2.21985 -7.77327e-20)
(-0.321402 1.95781 -6.67519e-18)
(0.1133 2.02491 9.62492e-18)
(0.660514 1.88291 -3.42829e-18)
(1.05006 1.58952 0)
(1.27126 1.24196 0)
(1.35418 0.923386 -1.80388e-19)
(1.36526 0.659604 0)
(1.34043 0.451398 -1.14993e-19)
(1.3025 0.290104 0)
(1.26324 0.170977 0)
(-1.25283 1.55282 0)
(-0.508822 1.27313 4.62332e-18)
(-0.370138 1.49967 -3.26498e-18)
(0.0217397 1.53229 -2.80261e-18)
(0.398727 1.45014 3.21091e-18)
(0.723271 1.26538 -1.29485e-18)
(0.957888 1.02611 5.30186e-19)
(1.0868 0.780864 4.20863e-19)
(1.14153 0.561436 1.1318e-19)
(1.15544 0.381677 0)
(1.14354 0.248622 1.16702e-19)
(-1.10751 1.02903 -1.11822e-18)
(-0.48998 0.73132 2.90638e-18)
(-0.499446 0.986482 -1.83795e-18)
(-0.215685 1.09216 2.03581e-18)
(0.0792649 1.13292 -9.66616e-19)
(0.371421 1.08142 0)
(0.617753 0.954064 -1.53722e-18)
(0.796803 0.784102 4.92344e-19)
(0.910858 0.603125 4.47416e-19)
(0.976306 0.436096 0)
(1.00274 0.302006 4.16678e-19)
(-0.896194 0.656545 0)
(-0.397321 0.35197 1.87096e-19)
(-0.484244 0.578813 -1.11932e-18)
(-0.27755 0.693248 8.56682e-19)
(-0.0662048 0.784924 9.04809e-19)
(0.171428 0.812973 -3.99648e-19)
(0.39839 0.774674 -4.36919e-19)
(0.587371 0.682893 -2.98414e-19)
(0.728808 0.558657 -1.18023e-18)
(0.821844 0.426726 2.76123e-19)
(0.867675 0.314256 0)
(-0.672532 0.402233 1.5345e-19)
(-0.275563 0.0958754 -2.24371e-19)
(-0.397672 0.280738 4.85993e-19)
(-0.237685 0.380034 -3.1172e-19)
(-0.094042 0.482855 -5.18011e-19)
(0.0872708 0.546105 -6.51898e-19)
(0.275823 0.562074 1.03415e-18)
(0.450225 0.530742 2.29424e-19)
(0.59654 0.462233 1.01364e-18)
(0.702739 0.374294 1.40058e-19)
(0.763621 0.293211 -2.66065e-19)
(-0.471267 0.223195 -1.35914e-19)
(-0.161682 -0.0775333 -3.30596e-19)
(-0.291009 0.0654021 -7.14292e-20)
(-0.152376 0.145167 1.84578e-19)
(-0.0568986 0.242185 -7.24136e-20)
(0.0811855 0.315582 6.6629e-19)
(0.231933 0.358668 -4.4279e-19)
(0.382552 0.365757 -9.31298e-20)
(0.518427 0.338845 -2.29344e-20)
(0.625413 0.287652 -3.77664e-19)
(0.692553 0.232459 0)
(-0.294005 0.0802548 -6.1251e-19)
(-0.0594034 -0.209092 6.9482e-19)
(-0.182647 -0.0949119 -1.98116e-19)
(-0.0521557 -0.0354207 -1.49017e-19)
(0.0097558 0.0549286 8.76714e-20)
(0.120391 0.126385 -1.1793e-19)
(0.240892 0.180945 1.44761e-19)
(0.36738 0.209962 1.00517e-19)
(0.487615 0.211548 -1.1406e-19)
(0.589786 0.189648 2.18859e-19)
(0.660615 0.159715 9.6636e-20)
(-0.133847 -0.034277 -1.38784e-18)
(0.0391222 -0.328418 2.36447e-19)
(-0.0733344 -0.220198 -3.15442e-19)
(0.047354 -0.178989 4.40792e-20)
(0.0923842 -0.0947757 2.75783e-19)
(0.183122 -0.0271692 0)
(0.281433 0.031029 1.28007e-19)
(0.387584 0.071476 -9.95306e-20)
(0.492771 0.0907849 0)
(0.588489 0.0886476 0)
(0.660594 0.0746964 3.33317e-20)
(-0.00972359 -0.109767 -2.23448e-19)
(0.139544 -0.424438 1.3787e-19)
(0.0476259 -0.327012 -4.05318e-19)
(0.145162 -0.292389 3.17405e-19)
(0.182497 -0.216044 0)
(0.258344 -0.152139 -1.27146e-19)
(0.339714 -0.0935928 -7.37441e-20)
(0.42947 -0.0477864 1.00601e-19)
(0.521365 -0.018652 -1.71721e-19)
(0.610336 -0.00950353 -1.63558e-19)
(0.684989 -0.0165556 6.59653e-20)
(0.100211 -0.1635 0)
(0.240571 -0.490627 0)
(0.159908 -0.413053 0)
(0.242817 -0.381903 0)
(0.275022 -0.312971 -2.52082e-19)
(0.339294 -0.252902 1.25366e-19)
(0.407132 -0.19556 1.65408e-19)
(0.482992 -0.147835 -1.27129e-19)
(0.56237 -0.114025 -2.40439e-20)
(0.643399 -0.0990873 1.97639e-19)
(0.71906 -0.102979 0)
(0.205852 -0.208416 -1.42398e-19)
(0.342162 -0.544118 0)
(0.265467 -0.481222 -5.35758e-19)
(0.33938 -0.452346 2.1371e-19)
(0.367147 -0.389053 2.5024e-19)
(0.421862 -0.332196 3.39354e-19)
(0.478047 -0.276498 -4.83673e-19)
(0.541 -0.228669 3.39908e-19)
(0.607484 -0.193576 -1.7659e-19)
(0.677641 -0.177402 1.33213e-19)
(0.741903 -0.181302 8.58894e-20)
(0.317484 -0.236034 -9.81255e-19)
(0.450472 -0.582617 1.78978e-18)
(0.370132 -0.533489 -6.34349e-19)
(0.435365 -0.506388 2.06924e-19)
(0.457957 -0.447115 -3.71104e-19)
(0.503756 -0.392264 -1.71059e-19)
(0.548939 -0.337609 3.08396e-19)
(0.598842 -0.290097 -1.70259e-19)
(0.650746 -0.255335 -1.13817e-19)
(0.707709 -0.241523 -5.93845e-20)
(0.760726 -0.24968 2.26141e-20)
(0.426918 -0.24374 0)
(0.551683 -0.601342 -9.62355e-19)
(0.471948 -0.568669 1.31041e-18)
(0.529006 -0.543607 -4.92532e-19)
(0.547814 -0.487867 3.98895e-19)
(0.584562 -0.433895 -2.63462e-19)
(0.618893 -0.379548 0)
(0.654926 -0.332162 0)
(0.690284 -0.298672 0)
(0.730044 -0.289041 -1.25541e-20)
(0.767963 -0.30745 -8.15024e-21)
(0.533873 -0.244218 0)
(0.648837 -0.606133 0)
(0.572029 -0.589219 -1.05796e-20)
(0.620681 -0.565656 -6.34405e-20)
(0.636371 -0.512336 0)
(0.664105 -0.45775 2.55916e-19)
(0.687417 -0.402352 -2.7585e-19)
(0.70858 -0.354239 1.13234e-19)
(0.725801 -0.322353 -1.62094e-19)
(0.745155 -0.31827 1.20266e-19)
(0.768859 -0.349974 -1.03867e-19)
(0.642 -0.235483 4.891e-19)
(0.747846 -0.596745 -6.33885e-19)
(0.673681 -0.595379 3.53789e-19)
(0.712507 -0.572974 -7.69578e-20)
(0.724689 -0.520766 -1.82566e-19)
(0.74315 -0.463887 1.41327e-19)
(0.754889 -0.405693 9.09793e-20)
(0.760159 -0.355536 -3.23714e-19)
(0.758097 -0.32503 4.73112e-21)
(0.755233 -0.327877 3.12544e-20)
(0.760106 -0.375594 7.42132e-20)
(0.749819 -0.212032 1.61631e-18)
(0.847769 -0.56973 -6.74561e-19)
(0.776885 -0.584733 -3.76136e-19)
(0.805808 -0.564133 4.23549e-19)
(0.814132 -0.512069 -2.09437e-19)
(0.823141 -0.451322 -6.80425e-20)
(0.822608 -0.388442 5.20914e-20)
(0.811151 -0.33473 2.66521e-19)
(0.789244 -0.305025 0)
(0.764748 -0.31594 -3.21872e-19)
(0.754553 -0.380006 4.53728e-20)
(0.857122 -0.174714 0)
(0.949087 -0.524092 2.79799e-19)
(0.882675 -0.555262 -4.13782e-19)
(0.902423 -0.536987 0)
(0.906686 -0.484087 0)
(0.906204 -0.417959 0)
(0.892786 -0.348519 -9.91862e-20)
(0.864243 -0.289703 -3.45564e-19)
(0.823097 -0.259937 2.92111e-19)
(0.780232 -0.27928 1.234e-19)
(0.756925 -0.360793 3.91523e-19)
(0.965649 -0.123368 0)
(1.05515 -0.457853 -6.03509e-19)
(0.994445 -0.503821 1.35491e-18)
(1.00581 -0.487897 0)
(1.00562 -0.433061 4.45256e-19)
(0.99556 -0.36019 1.50065e-19)
(0.968897 -0.282544 -1.13147e-19)
(0.923765 -0.21713 8.74776e-19)
(0.86564 -0.186022 -1.99183e-19)
(0.810394 -0.212646 4.30999e-19)
(0.782553 -0.310594 -6.05778e-19)
(1.07516 -0.0529218 -4.76764e-19)
(1.16858 -0.365453 1.39717e-18)
(1.11543 -0.423394 -7.40823e-19)
(1.11955 -0.409369 -5.02467e-19)
(1.11459 -0.35183 -4.86417e-19)
(1.09516 -0.271555 -6.39987e-19)
(1.05585 -0.18468 4.28267e-19)
(0.996338 -0.111183 -1.22473e-18)
(0.926193 -0.0763632 2.16911e-19)
(0.868335 -0.10603 3.04646e-19)
(0.844298 -0.215777 -6.84964e-19)
(1.19614 0.0319167 -1.1888e-18)
(1.29602 -0.243542 -4.22001e-19)
(1.253 -0.306874 0)
(1.25078 -0.293364 7.86214e-19)
(1.24058 -0.232709 -7.54005e-19)
(1.21282 -0.144838 1.2265e-18)
(1.16347 -0.0477299 2.00552e-19)
(1.09463 0.0365961 0)
(1.02094 0.0805198 4.36141e-19)
(0.975483 0.0572037 9.69115e-19)
(0.979074 -0.053795 -9.59278e-19)
(1.25961 0.202127 2.32858e-18)
(1.40757 -0.0397052 -2.03649e-18)
(1.37328 -0.106772 0)
(1.368 -0.0970912 0)
(1.36055 -0.0375592 1.15172e-18)
(1.33589 0.0543812 -3.98498e-19)
(1.29027 0.16079 -9.71798e-19)
(1.22712 0.260069 3.36371e-19)
(1.16581 0.322911 0)
(1.149 0.318542 -1.00401e-18)
(1.20406 0.223537 5.21464e-19)
(1.64197 0.141131 2.26512e-18)
(1.76046 0.10085 7.22443e-19)
(1.70876 0.0755504 -4.01714e-19)
(1.6823 0.112431 7.6593e-19)
(1.65295 0.198899 -6.21382e-19)
(1.60904 0.325204 1.19475e-18)
(1.55761 0.478787 -7.7805e-19)
(1.51697 0.641994 -6.34671e-19)
(1.52082 0.817014 2.10028e-19)
(1.56599 0.923611 6.87617e-19)
(1.66005 0.896067 2.71961e-19)
(6.58055 -1.59669 0)
(5.93793 -1.57358 0)
(5.60325 -1.32248 0)
(5.35021 -1.09106 0)
(5.09993 -0.895023 1.80919e-19)
(4.85645 -0.734986 -4.04519e-20)
(4.63262 -0.608821 2.05273e-19)
(4.42645 -0.510266 -3.06029e-19)
(4.23396 -0.432376 5.6556e-19)
(4.05577 -0.371754 -2.86903e-19)
(3.89555 -0.337244 -2.31098e-19)
(5.01655 -2.88613 -1.98311e-18)
(5.06553 -2.56904 1.22806e-18)
(5.08168 -2.16054 2.95756e-19)
(5.02171 -1.77275 -2.27791e-19)
(4.89705 -1.4449 -3.74909e-20)
(4.73135 -1.17993 2.5513e-19)
(4.54926 -0.971102 -2.50734e-19)
(4.36647 -0.808134 1.31109e-19)
(4.18957 -0.680904 -3.85995e-19)
(4.02204 -0.583197 1.59564e-19)
(3.8684 -0.518333 2.30169e-19)
(3.83594 -3.11513 -2.16679e-18)
(4.20585 -2.86655 1.78965e-19)
(4.41594 -2.59662 -2.44416e-19)
(4.53236 -2.2564 0)
(4.55372 -1.91168 -1.81363e-19)
(4.4979 -1.59619 -4.09108e-19)
(4.39046 -1.32631 1.7022e-19)
(4.25555 -1.1049 -2.01438e-19)
(4.11024 -0.926755 -1.07197e-19)
(3.96539 -0.785234 -2.67381e-20)
(3.82821 -0.682401 -3.95045e-20)
(3.03873 -2.93386 2.04203e-18)
(3.47072 -2.82964 -2.94864e-18)
(3.78176 -2.70961 2.29254e-18)
(4.00167 -2.48318 -8.96323e-20)
(4.13014 -2.20149 -1.28876e-19)
(4.17489 -1.90467 6.97477e-20)
(4.15231 -1.62217 0)
(4.08396 -1.37074 -2.22095e-19)
(3.98767 -1.15703 3.10416e-19)
(3.87344 -0.985095 -6.88642e-20)
(3.75351 -0.855823 5.00712e-20)
(2.73733 -2.78315 1.05955e-19)
(3.011 -2.70013 2.52627e-18)
(3.23043 -2.66419 -1.88466e-18)
(3.48438 -2.54387 1.09498e-19)
(3.68752 -2.34828 9.4368e-20)
(3.81247 -2.10178 8.96792e-20)
(3.85999 -1.8397 -4.68962e-19)
(3.84739 -1.58826 3.37865e-19)
(3.79571 -1.35914 1.13147e-19)
(3.72375 -1.15567 4.23193e-20)
(3.63757 -0.992038 0)
(2.57422 -2.6312 0)
(2.78171 -2.56165 -1.79804e-20)
(2.91971 -2.56067 -1.04048e-19)
(3.10378 -2.49036 -1.49694e-18)
(3.27816 -2.36079 2.03209e-18)
(3.42433 -2.17559 -7.56785e-19)
(3.5251 -1.95467 -3.27326e-20)
(3.5757 -1.72101 4.92215e-19)
(3.58194 -1.49302 -5.41408e-19)
(3.55507 -1.28431 -1.98636e-19)
(3.50464 -1.11101 3.6619e-19)
(2.45488 -2.48784 2.48934e-18)
(2.60194 -2.42188 -2.00866e-18)
(2.70381 -2.4295 1.6311e-18)
(2.85396 -2.3755 4.49775e-19)
(2.99933 -2.2867 -2.29831e-19)
(3.13449 -2.14748 0)
(3.24272 -1.97062 -2.61906e-19)
(3.31713 -1.77084 1.87078e-19)
(3.35691 -1.56473 0)
(3.36506 -1.36732 1.73794e-19)
(3.34441 -1.19573 -8.50915e-19)
(2.32887 -2.38382 0)
(2.44819 -2.29832 2.14264e-19)
(2.53306 -2.29842 0)
(2.64958 -2.2552 -2.8254e-19)
(2.77202 -2.18346 2.20957e-19)
(2.89089 -2.07441 1.32654e-18)
(2.99673 -1.932 -7.57651e-19)
(3.08219 -1.7653 -3.55844e-19)
(3.14343 -1.58584 5.36835e-19)
(3.1794 -1.40738 -3.60817e-19)
(3.18732 -1.25087 0)
(2.21356 -2.28867 0)
(2.32012 -2.19071 -1.80785e-18)
(2.38706 -2.1819 9.32068e-19)
(2.48409 -2.14132 -1.00345e-18)
(2.58727 -2.07751 7.78728e-19)
(2.69102 -1.98539 0)
(2.78937 -1.86627 9.28713e-19)
(2.87676 -1.72548 -1.3968e-18)
(2.949 -1.57012 0)
(3.00264 -1.41032 -3.35701e-19)
(3.03118 -1.26508 5.09024e-19)
(2.11641 -2.19865 -6.80851e-19)
(2.21025 -2.09083 -1.76176e-19)
(2.26166 -2.07618 1.44841e-18)
(2.34401 -2.03561 -8.98153e-19)
(2.43249 -1.9758 -1.07806e-18)
(2.52358 -1.89324 5.61805e-19)
(2.61365 -1.78883 0)
(2.69881 -1.66615 -3.09821e-19)
(2.7754 -1.52947 4.83663e-19)
(2.83878 -1.38547 6.62976e-19)
(2.87861 -1.24928 -9.61307e-19)
(2.03502 -2.12157 -2.72503e-18)
(2.11197 -2.00173 -3.17176e-20)
(2.15018 -1.98007 1.04042e-18)
(2.2207 -1.93723 -4.07582e-19)
(2.29767 -1.87855 1.90684e-20)
(2.37873 -1.8011 -1.0461e-18)
(2.46158 -1.7058 8.03003e-19)
(2.54357 -1.59557 -1.18922e-18)
(2.62189 -1.47328 4.52177e-19)
(2.69201 -1.34422 6.29714e-19)
(2.74116 -1.22567 -4.4827e-19)
(1.95449 -2.05294 1.57134e-18)
(2.01392 -1.92227 -2.15201e-18)
(2.04458 -1.89154 1.20551e-18)
(2.10719 -1.84426 1.17898e-18)
(2.17595 -1.7843 -9.0999e-19)
(2.24968 -1.7088 4.78605e-19)
(2.32715 -1.6188 -3.60153e-19)
(2.40657 -1.51694 5.78861e-19)
(2.48593 -1.40542 0)
(2.56118 -1.28803 -5.90637e-19)
(2.61891 -1.17894 4.38502e-19)
(1.87093 -1.98061 0)
(1.91666 -1.84264 -1.48467e-19)
(1.94257 -1.8045 9.04455e-19)
(1.99963 -1.75296 -8.90939e-19)
(2.06269 -1.69076 -5.72043e-19)
(2.13157 -1.61527 1.33538e-18)
(2.20575 -1.52785 -3.31138e-19)
(2.28405 -1.43118 0)
(2.36499 -1.32695 0)
(2.44485 -1.2171 -5.49587e-19)
(2.5087 -1.11124 4.08454e-19)
(1.79349 -1.91003 0)
(1.82556 -1.76206 1.09253e-18)
(1.84487 -1.71688 -1.06974e-18)
(1.89654 -1.66099 1.73383e-19)
(1.95522 -1.59581 0)
(2.02116 -1.51892 6.2439e-19)
(2.09406 -1.43218 -6.32334e-19)
(2.17297 -1.33857 2.27797e-19)
(2.25644 -1.23984 1.02873e-20)
(2.34088 -1.13716 -2.59897e-19)
(2.40941 -1.04086 -7.17607e-19)
(1.71546 -1.84286 5.75149e-19)
(1.73151 -1.68353 0)
(1.7472 -1.62853 7.06343e-19)
(1.7957 -1.5665 -6.26774e-19)
(1.85199 -1.49693 0)
(1.91702 -1.41731 -1.79915e-19)
(1.99082 -1.32991 2.89562e-19)
(2.07243 -1.23819 -4.31119e-19)
(2.16007 -1.14418 1.98038e-20)
(2.25006 -1.0483 1.63305e-20)
(2.32505 -0.95769 3.51741e-19)
(1.63453 -1.76625 7.8535e-19)
(1.63521 -1.59877 -4.87174e-19)
(1.64949 -1.53446 9.7498e-20)
(1.6963 -1.46604 -6.94474e-20)
(1.7519 -1.39124 -4.47811e-19)
(1.8182 -1.30788 3.46228e-19)
(1.89541 -1.21898 -5.141e-19)
(1.98223 -1.1288 5.05382e-19)
(2.07603 -1.03979 -2.79936e-19)
(2.17285 -0.951403 2.23001e-19)
(2.25405 -0.868254 1.51839e-19)
(1.55757 -1.68342 5.16107e-19)
(1.54226 -1.50657 -8.8321e-19)
(1.55359 -1.43259 1.40026e-18)
(1.59847 -1.35704 -4.37882e-19)
(1.65464 -1.27593 -4.72282e-20)
(1.72455 -1.18783 -3.37632e-19)
(1.80818 -1.09712 1.79331e-19)
(1.90319 -1.00914 -2.4126e-19)
(2.00527 -0.926722 4.92779e-19)
(2.10964 -0.848168 -2.77938e-19)
(2.19618 -0.775079 7.10391e-20)
(1.48235 -1.59866 -4.1814e-21)
(1.44745 -1.40971 -2.82035e-20)
(1.45681 -1.32244 6.31733e-19)
(1.50142 -1.23694 -4.97297e-20)
(1.5607 -1.14731 -3.1124e-19)
(1.63767 -1.05347 3.58571e-20)
(1.73155 -0.961559 -1.35428e-19)
(1.83811 -0.877949 1.42368e-19)
(1.95036 -0.805298 2.0327e-19)
(2.06262 -0.739949 -3.85549e-19)
(2.15438 -0.678812 5.99801e-20)
(1.40693 -1.5023 4.40392e-21)
(1.34925 -1.30259 0)
(1.35909 -1.19872 -3.13834e-20)
(1.40586 -1.10063 -4.3994e-19)
(1.47212 -1.00069 5.82107e-19)
(1.56089 -0.901012 -1.7427e-19)
(1.6702 -0.809747 2.94882e-20)
(1.79148 -0.734907 0)
(1.91457 -0.677024 3.28418e-20)
(2.03368 -0.629213 0)
(2.12934 -0.583114 0)
(1.33295 -1.3877 -4.69545e-19)
(1.24897 -1.17828 3.5676e-19)
(1.26347 -1.05325 7.94611e-20)
(1.31703 -0.939684 4.61964e-20)
(1.39696 -0.828531 3.46033e-20)
(1.50466 -0.725365 -2.12822e-20)
(1.63349 -0.640976 -1.06274e-19)
(1.77059 -0.581994 -7.78678e-20)
(1.90247 -0.545513 -7.81936e-21)
(2.02367 -0.520144 1.16834e-20)
(2.11973 -0.491992 -3.65961e-21)
(1.26083 -1.255 -8.76321e-19)
(1.15 -1.02594 2.43688e-19)
(1.17558 -0.875887 -9.00875e-20)
(1.2454 -0.745276 6.84322e-20)
(1.34846 -0.625671 -8.84096e-20)
(1.48226 -0.526735 4.38348e-20)
(1.63309 -0.459692 4.97471e-20)
(1.78359 -0.42657 4.48732e-20)
(1.91864 -0.418218 -7.61434e-21)
(2.03416 -0.418854 -3.37109e-20)
(2.1244 -0.41144 9.24423e-20)
(1.21712 -1.02702 3.83754e-19)
(1.04622 -0.831858 3.66038e-20)
(1.11659 -0.652058 8.05251e-20)
(1.21511 -0.509585 -4.94248e-20)
(1.35109 -0.392836 -1.132e-19)
(1.51435 -0.31388 -9.90909e-20)
(1.68292 -0.279021 -2.04017e-20)
(1.8368 -0.281622 5.09451e-21)
(1.96399 -0.305334 -3.43759e-20)
(2.0645 -0.332221 2.99231e-20)
(2.14208 -0.345912 -2.53574e-19)
(1.0815 -1.01844 2.65074e-19)
(1.04296 -0.618954 -1.77012e-19)
(1.11083 -0.405816 1.33086e-19)
(1.25858 -0.254025 1.92769e-19)
(1.43499 -0.157944 2.95375e-19)
(1.62022 -0.117919 9.69241e-20)
(1.79046 -0.126315 0)
(1.93069 -0.166849 -1.06796e-19)
(2.03636 -0.219881 -1.37994e-21)
(2.11211 -0.268249 3.83863e-20)
(2.16676 -0.297414 2.4716e-20)
(1.75248 0.167323 0)
(1.10365 -0.0315361 0)
(1.43501 0.100147 -2.47173e-19)
(1.58609 0.121778 0)
(1.73269 0.110249 -3.10329e-19)
(1.87139 0.0649527 0)
(1.98934 -0.00445033 0)
(2.07884 -0.0863531 1.18797e-19)
(2.14007 -0.166244 0)
(2.17702 -0.232008 3.12222e-20)
(2.20004 -0.27285 1.01e-19)
(5.93171 -0.701316 -1.45359e-18)
(5.0002 -0.49792 0)
(5.24762 -0.508931 0)
(5.37652 -0.491057 0)
(5.26287 -0.424513 1.87786e-19)
(5.02603 -0.350547 -1.27168e-20)
(4.75968 -0.28998 -1.12382e-19)
(4.51511 -0.239176 5.26415e-20)
(4.29224 -0.19521 7.48957e-20)
(4.09079 -0.166973 3.28478e-20)
(3.9113 -0.161023 0)
(4.42266 -1.56197 7.29353e-19)
(4.08749 -1.0008 1.23046e-18)
(4.52641 -0.568358 -2.64118e-20)
(4.8959 -0.319556 0)
(5.04858 -0.150049 -2.00599e-19)
(5.02785 -0.0317223 3.16224e-19)
(4.87546 0.0330636 -2.44812e-19)
(4.62915 0.0591653 3.76154e-20)
(4.34937 0.0655043 7.79652e-20)
(4.11994 0.0636331 -3.2886e-20)
(3.92443 0.0461729 2.41371e-20)
(3.84324 -4.38154 -3.36591e-18)
(3.94812 -2.39724 -4.75961e-19)
(4.16052 -1.33851 -5.80366e-19)
(4.45842 -0.671967 -4.32752e-19)
(4.71106 -0.215197 0)
(4.84512 0.0969593 1.38184e-19)
(4.83307 0.28162 6.37336e-19)
(4.67779 0.359805 -2.94777e-19)
(4.41992 0.360726 -4.73532e-20)
(4.12726 0.320978 0)
(3.91225 0.269431 -2.34824e-20)
(4.31609 -4.50601 2.45712e-18)
(4.08281 -3.97882 -2.08286e-18)
(4.04939 -2.49911 0)
(4.21711 -1.41837 4.23163e-19)
(4.44149 -0.613556 -5.85248e-19)
(4.6203 -0.0252992 4.63601e-19)
(4.69171 0.368948 -8.13336e-19)
(4.62558 0.586821 6.5958e-19)
(4.4281 0.65355 2.79422e-19)
(4.14169 0.613299 2.15881e-19)
(3.86902 0.519415 1.28058e-19)
(4.49632 -4.6819 2.43514e-18)
(4.34303 -4.36112 -1.54613e-18)
(4.19144 -3.65595 1.34366e-18)
(4.164 -2.36359 2.55544e-19)
(4.28833 -1.25011 1.15673e-18)
(4.43567 -0.369932 -9.86362e-19)
(4.52439 0.278647 -6.18431e-19)
(4.5063 0.697087 1.05931e-19)
(4.36267 0.896024 -2.07429e-19)
(4.10642 0.910587 -2.01094e-19)
(3.80653 0.805032 -4.78506e-20)
(4.67874 -4.93207 2.53588e-21)
(4.60804 -4.6173 3.62436e-18)
(4.45376 -4.14446 -2.77389e-18)
(4.30874 -3.28757 -2.40864e-19)
(4.26597 -2.03186 -1.34693e-18)
(4.32114 -0.890062 1.12026e-18)
(4.37195 0.0246379 -3.50458e-21)
(4.35302 0.677645 5.14386e-19)
(4.23263 1.05708 -5.97719e-20)
(4.00462 1.17976 -2.36559e-19)
(3.72269 1.10211 -9.74656e-20)
(4.84308 -5.19467 -2.30538e-21)
(4.85232 -4.87875 0)
(4.70929 -4.46782 0)
(4.54846 -3.83167 -3.01527e-19)
(4.37634 -2.78541 2.35285e-19)
(4.29328 -1.51766 0)
(4.25361 -0.368554 3.39752e-21)
(4.1865 0.528346 1.2962e-18)
(4.05119 1.11746 -1.80929e-18)
(3.82971 1.38983 6.24804e-19)
(3.57697 1.39089 -1.05266e-19)
(4.98899 -5.44587 0)
(5.06191 -5.14073 5.24423e-19)
(4.92355 -4.77012 0)
(4.76456 -4.19989 2.80252e-19)
(4.56426 -3.38999 -7.41559e-19)
(4.34639 -2.1633 0)
(4.17774 -0.8648 0)
(4.01639 0.255864 0)
(3.82669 1.06405 0)
(3.58825 1.50971 -6.61529e-19)
(3.34293 1.61553 1.08156e-18)
(5.12132 -5.67503 0)
(5.23747 -5.38535 -4.92497e-19)
(5.09151 -5.06105 0)
(4.9339 -4.52918 0)
(4.70882 -3.79981 -1.65703e-18)
(4.42449 -2.75538 1.68628e-18)
(4.12804 -1.4091 0)
(3.84067 -0.123793 1.08316e-18)
(3.55943 0.887249 -1.31086e-18)
(3.27132 1.51106 -2.47484e-20)
(3.04037 1.75004 9.89972e-19)
(5.23694 -5.86796 5.39411e-18)
(5.37744 -5.59897 -8.50409e-18)
(5.20929 -5.32757 -1.06789e-19)
(5.04718 -4.84193 2.70597e-18)
(4.80705 -4.17944 0)
(4.47646 -3.26071 0)
(4.07889 -1.95894 0)
(3.65622 -0.586947 -1.07101e-18)
(3.25548 0.585467 0)
(2.89248 1.37779 2.97109e-18)
(2.65107 1.76118 -2.83924e-19)
(5.31802 -6.01098 -3.47949e-18)
(5.4745 -5.77867 4.23974e-18)
(5.27519 -5.55781 0)
(5.10162 -5.12595 0)
(4.83971 -4.53863 0)
(4.47368 -3.7154 0)
(3.99421 -2.54048 0)
(3.4532 -1.1219 0)
(2.92055 0.156938 0)
(2.46783 1.0872 0)
(2.18074 1.60067 2.95187e-18)
(5.34618 -6.1363 -1.11265e-20)
(5.5035 -5.93701 0)
(5.29032 -5.74385 3.68288e-18)
(5.09504 -5.37674 2.01726e-19)
(4.80524 -4.87555 -2.44422e-18)
(4.40924 -4.15776 0)
(3.85807 -3.12952 -1.86784e-18)
(3.22122 -1.7275 0)
(2.56201 -0.398527 1.99786e-18)
(2.0242 0.628728 -1.47914e-18)
(1.71331 1.24623 -3.28978e-18)
(5.35125 -6.22341 -7.39412e-18)
(5.48032 -6.04434 8.68997e-18)
(5.2534 -5.8844 -2.61761e-18)
(5.02293 -5.58848 -3.14753e-18)
(4.70098 -5.17564 2.48718e-18)
(4.27238 -4.57887 2.21106e-18)
(3.67552 -3.7119 -2.27115e-20)
(2.96609 -2.39312 3.05255e-18)
(2.19699 -1.06963 0)
(1.56973 -0.00379842 0)
(1.26922 0.716883 1.55867e-18)
(5.32101 -6.25077 0)
(5.39296 -6.10594 0)
(5.15474 -5.98308 2.74286e-18)
(4.88526 -5.75365 -4.32631e-18)
(4.52678 -5.42956 0)
(4.06288 -4.96934 -8.94934e-18)
(3.44748 -4.29892 5.48395e-18)
(2.66519 -3.16284 -3.66016e-20)
(1.85883 -1.83207 -6.48994e-18)
(1.17371 -0.767638 5.91382e-18)
(0.843641 0.0260466 3.33919e-18)
(5.2384 -6.22604 5.80799e-19)
(5.23637 -6.12853 9.51571e-19)
(4.98356 -6.04156 -3.43476e-18)
(4.67568 -5.87837 4.16495e-18)
(4.27876 -5.63817 0)
(3.78004 -5.28878 6.45079e-18)
(3.1678 -4.78369 2.12794e-19)
(2.43548 -4.02855 -9.22141e-20)
(1.61512 -2.71668 0)
(0.887187 -1.60541 -7.83456e-18)
(0.534316 -0.791074 1.52788e-18)
(5.09749 -6.14378 1.14355e-18)
(5.01226 -6.09789 -9.6829e-19)
(4.73695 -6.05439 3.14395e-18)
(4.39581 -5.96599 -2.47758e-18)
(3.97473 -5.82138 0)
(3.4712 -5.58757 0)
(2.88229 -5.2185 -3.20985e-18)
(2.20376 -4.63988 -2.53036e-18)
(1.49361 -3.68623 0)
(0.800216 -2.57552 4.6848e-18)
(0.406504 -1.67979 -1.55849e-18)
(4.87694 -5.99163 5.46993e-19)
(4.70803 -5.99875 0)
(4.40448 -6.01039 -6.03909e-19)
(4.03849 -6.00968 0)
(3.61329 -5.97703 -1.13488e-18)
(3.13878 -5.87558 -1.06649e-18)
(2.62371 -5.65531 2.64696e-18)
(2.06641 -5.24478 5.3583e-18)
(1.47052 -4.53937 -2.98072e-18)
(0.89445 -3.58267 2.71207e-18)
(0.510127 -2.62652 -3.72513e-19)
(4.54296 -5.76435 -1.84794e-19)
(4.30016 -5.82296 -1.49045e-19)