/*--------------------------------*- C++ -*----------------------------------*\
| =========                 |                                                 |
| \\      /  F ield         | OpenFOAM: The Open Source CFD Toolbox           |
|  \\    /   O peration     | Version:  3.0.1                                 |
|   \\  /    A nd           | Web:      www.OpenFOAM.org                      |
|    \\/     M anipulation  |                                                 |
\*---------------------------------------------------------------------------*/
FoamFile
{
    version     2.0;
    format      ascii;
    class       volScalarField;
    location    "0.786492";
    object      p;
}
// * * * * * * * * * * * * * * * * * * * * * * * * * * * * * * * * * * * * * //

dimensions      [0 2 -2 0 0 0 0];

internalField   nonuniform List<scalar> 
21246
(
-8.7887
-4.23874
-2.29666
-1.25673
-0.586592
-0.164226
0.0939696
0.244918
0.31676
0.352083
0.418616
-12.6863
-8.03829
-5.95221
-4.25909
-2.78171
-1.72151
-1.03404
-0.606862
-0.344861
-0.177136
-0.0422642
-9.38732
-8.33
-7.48437
-6.15854
-4.65215
-3.32493
-2.29988
-1.57199
-1.07609
-0.742862
-0.49192
-7.0998
-7.11651
-6.94252
-6.3536
-5.41289
-4.31994
-3.27639
-2.41279
-1.76161
-1.29304
-0.943798
-6.08367
-6.12628
-6.08178
-5.84082
-5.35255
-4.63601
-3.78904
-2.96733
-2.27363
-1.73449
-1.32015
-5.72993
-5.60328
-5.53896
-5.39356
-5.09253
-4.59877
-3.94783
-3.23825
-2.57478
-2.01724
-1.56921
-5.50359
-5.31361
-5.2403
-5.09595
-4.85097
-4.4655
-3.9349
-3.31725
-2.70027
-2.15027
-1.68897
-5.25618
-5.05304
-4.98108
-4.83356
-4.61504
-4.28491
-3.8257
-3.27305
-2.69819
-2.16697
-1.71469
-4.99496
-4.79537
-4.70532
-4.55505
-4.35405
-4.05656
-3.64299
-3.13787
-2.59979
-2.08954
-1.64036
-4.73272
-4.53183
-4.42237
-4.25994
-4.06558
-3.78535
-3.40227
-2.93386
-2.42959
-1.94584
-1.51191
-4.47917
-4.26706
-4.14523
-3.9651
-3.75671
-3.4835
-3.12109
-2.68274
-2.21105
-1.75777
-1.35053
-4.24448
-4.01591
-3.88016
-3.68396
-3.45193
-3.17723
-2.82466
-2.41013
-1.96907
-1.5468
-1.1611
-4.03493
-3.79082
-3.6452
-3.4331
-3.18539
-2.89782
-2.54778
-2.14811
-1.73196
-1.33923
-0.986721
-3.85931
-3.60341
-3.45445
-3.23066
-2.97341
-2.67147
-2.31795
-1.92594
-1.52507
-1.15243
-0.8225
-3.71972
-3.45796
-3.31207
-3.08202
-2.81942
-2.50847
-2.15016
-1.75903
-1.36318
-0.999618
-0.679936
-3.61462
-3.35359
-3.21525
-2.98601
-2.72384
-2.41049
-2.04913
-1.65294
-1.25139
-0.884616
-0.569698
-3.5431
-3.2901
-3.16157
-2.93913
-2.68344
-2.37466
-2.0108
-1.60355
-1.18588
-0.802343
-0.473427
-3.50329
-3.26474
-3.1477
-2.93887
-2.69598
-2.39545
-2.02752
-1.60219
-1.1588
-0.751092
-0.411557
-3.49206
-3.27478
-3.17314
-2.98629
-2.76238
-2.4698
-2.09202
-1.63772
-1.15856
-0.721915
-0.367953
-3.50822
-3.31913
-3.2401
-3.0837
-2.88532
-2.60003
-2.21232
-1.73852
-1.21689
-0.728563
-0.343933
-3.53689
-3.40962
-3.36361
-3.25394
-3.09925
-2.852
-2.44653
-1.9374
-1.38932
-0.850255
-0.392354
-3.58943
-3.57021
-3.57821
-3.51978
-3.36276
-3.05606
-2.64446
-2.1667
-1.64322
-1.10176
-0.582522
-3.74335
-3.9582
-3.8327
-3.65791
-3.42173
-3.12121
-2.76115
-2.34937
-1.8841
-1.37379
-0.8342
-4.74536
-3.8143
-3.65096
-3.52088
-3.32137
-3.08376
-2.81164
-2.49395
-2.1161
-1.67261
-1.16733
5.38132
2.93229
1.59414
1.08359
0.957821
0.960809
0.97178
0.948222
0.888753
0.826351
0.809847
7.60491
6.46629
4.95412
3.72973
2.89797
2.36743
2.0083
1.72855
1.48494
1.2896
1.20388
6.21058
6.2865
5.7894
5.01558
4.21875
3.52274
2.94521
2.46123
2.04446
1.70469
1.52042
4.89558
5.24123
5.28364
5.03895
4.59909
4.06989
3.51863
2.97966
2.47119
2.03348
1.78546
3.97251
4.27825
4.4364
4.46606
4.34448
4.06471
3.66307
3.18296
2.66803
2.19232
1.89715
3.27881
3.46876
3.61601
3.72133
3.74347
3.65526
3.44568
3.1156
2.68814
2.2438
1.95668
2.65909
2.75357
2.85228
2.94415
3.01069
3.02678
2.96506
2.79386
2.49682
2.11921
1.8435
2.07371
2.10046
2.14709
2.1891
2.22701
2.25457
2.25683
2.19636
2.0347
1.76925
1.54582
1.52241
1.4837
1.48908
1.47406
1.45527
1.43966
1.43182
1.42219
1.36402
1.21838
1.08127
1.00149
0.896228
0.871733
0.795786
0.714979
0.63425
0.568176
0.542467
0.544447
0.513071
0.473403
0.507079
0.338715
0.291198
0.14997
0.00909744
-0.140501
-0.282663
-0.376592
-0.379492
-0.319268
-0.25286
0.0427501
-0.17706
-0.266097
-0.456617
-0.655212
-0.874825
-1.09558
-1.27419
-1.33387
-1.23762
-1.05404
-0.395068
-0.6568
-0.790794
-1.01574
-1.27281
-1.55794
-1.8503
-2.1231
-2.24987
-2.16711
-1.87853
-0.804018
-1.09846
-1.27213
-1.5296
-1.83541
-2.17991
-2.54346
-2.87616
-3.07582
-3.0304
-2.72172
-1.18028
-1.49834
-1.70329
-1.98817
-2.33087
-2.71936
-3.13211
-3.51539
-3.76956
-3.76367
-3.46753
-1.52131
-1.85131
-2.08018
-2.3843
-2.74983
-3.16265
-3.59806
-4.00317
-4.2841
-4.30823
-4.04285
-1.82093
-2.14859
-2.39176
-2.702
-3.07153
-3.48534
-3.91731
-4.31678
-4.59627
-4.61517
-4.3071
-2.06728
-2.37679
-2.62108
-2.92062
-3.27207
-3.66295
-4.06869
-4.44134
-4.69819
-4.71069
-4.43416
-2.25169
-2.52769
-2.75722
-3.02898
-3.34425
-3.69379
-4.05319
-4.375
-4.58184
-4.56316
-4.24483
-2.36615
-2.59877
-2.80077
-3.03378
-3.30396
-3.60169
-3.89868
-4.1476
-4.28083
-4.21148
-3.8801
-2.41717
-2.59528
-2.76436
-2.96182
-3.19104
-3.43295
-3.65253
-3.80693
-3.84521
-3.71051
-3.36477
-2.39791
-2.5472
-2.68796
-2.86855
-3.06931
-3.24895
-3.37144
-3.41296
-3.34441
-3.11979
-2.68517
-2.46441
-2.50509
-2.65331
-2.84564
-3.00944
-3.09846
-3.10113
-3.02154
-2.8509
-2.55691
-2.11149
-1.98793
-2.41502
-2.70036
-2.89183
-2.9651
-2.93182
-2.8179
-2.63696
-2.38453
-2.04075
-1.59882
6.77676
3.14556
1.8585
1.53375
1.72279
2.01005
2.25847
2.40679
2.46506
2.46499
2.51368
18.0197
14.2946
11.0637
8.67135
7.00756
5.91016
5.18285
4.66092
4.24384
3.90139
3.67413
17.3017
16.6229
14.8186
12.8433
10.9374
9.25412
7.88182
6.79831
5.93307
5.242
4.76752
15.4826
15.6557
15.1824
14.1055
12.7236
11.2172
9.76035
8.45614
7.34676
6.44632
5.80461
14.1862
14.5987
14.4628
14.0489
13.2928
12.2487
11.0222
9.77022
8.59523
7.56086
6.76696
13.1801
13.6865
13.6838
13.6301
13.2708
12.5947
11.6665
10.5893
9.46426
8.39204
7.50952
12.2473
12.6582
12.7696
12.837
12.716
12.3421
11.7062
10.859
9.88218
8.87993
7.99051
11.4778
11.7757
11.8906
11.9909
11.9739
11.7771
11.3612
10.7327
9.93811
9.07078
8.28273
10.8107
11.0479
11.1333
11.2235
11.2372
11.1242
10.8423
10.3765
9.74289
9.00738
8.31106
10.1724
10.3922
10.4619
10.538
10.5549
10.477
10.269
9.9102
9.40001
8.77902
8.16462
9.64766
9.82631
9.86897
9.92351
9.92939
9.86146
9.691
9.39852
8.97593
8.45007
7.93419
9.27288
9.36773
9.36075
9.37757
9.35754
9.28144
9.12502
8.87118
8.50963
8.05643
7.60944
8.87696
8.92274
8.88639
8.87083
8.822
8.72872
8.57186
8.33821
8.01866
7.6227
7.23658
8.42171
8.45685
8.41151
8.37364
8.29982
8.18734
8.02271
7.79771
7.50606
7.1508
6.8083
8.07427
8.0427
7.95704
7.88306
7.77844
7.6429
7.46605
7.24427
6.97471
6.65832
6.36029
7.69258
7.6108
7.48797
7.37724
7.23954
7.07854
6.88766
6.66783
6.42036
6.14222
5.88821
7.19693
7.09362
6.96219
6.82645
6.65974
6.47503
6.27285
6.05945
5.8394
5.6045
5.39302
6.74306
6.57857
6.40669
6.22784
6.02406
5.81497
5.60767
5.41186
5.23189
5.05338
4.90577
6.24454
6.00612
5.78588
5.55521
5.31003
5.08091
4.88294
4.72519
4.60417
4.49402
4.40926
5.64007
5.31704
5.04613
4.76288
4.48361
4.25506
4.0983
4.01214
3.97453
3.94466
3.90965
4.8993
4.46692
4.13569
3.80511
3.51749
3.33658
3.27586
3.30539
3.37547
3.43589
3.46125
3.98257
3.37155
2.99472
2.64847
2.41926
2.37255
2.48011
2.66391
2.85092
2.99553
3.07947
2.42064
1.98555
1.54291
1.29013
1.27219
1.48264
1.81586
2.15662
2.43906
2.63876
2.73979
3.06256
0.497345
0.29501
0.314954
0.594918
1.05097
1.51577
1.90478
2.20084
2.40225
2.48815
-33.2845
-15.1615
-8.35107
-4.91912
-2.59525
-1.20224
-0.231269
0.38537
0.792368
1.06305
1.31614
-42.4101
-28.3013
-21.1717
-15.0368
-9.67306
-5.96716
-3.60639
-2.12379
-1.15041
-0.468491
0.0834294
-33.7241
-31.2527
-28.167
-22.9216
-16.8953
-11.7072
-7.87324
-5.21895
-3.43134
-2.19741
-1.26162
-26.8679
-28.1169
-27.8554
-25.3881
-21.2045
-16.3679
-11.9252
-8.44458
-5.88365
-4.05936
-2.68439
-25.0727
-25.8377
-25.9309
-25.0198
-22.7025
-19.0742
-14.9408
-11.2017
-8.18656
-5.87889
-4.13301
-24.5439
-24.9183
-24.9398
-24.4634
-23.0474
-20.397
-16.8727
-13.2645
-10.0829
-7.47077
-5.4239
-23.7894
-24.2267
-24.3291
-24.0834
-23.1246
-21.0875
-18.0853
-14.7187
-11.5321
-8.75899
-6.40886
-23.0767
-23.5965
-23.7282
-23.6687
-23.0424
-21.443
-18.8489
-15.7193
-12.593
-9.77364
-7.27971
-22.3938
-22.9235
-23.1174
-23.1965
-22.8116
-21.5457
-19.2773
-16.3582
-13.3081
-10.4768
-7.85796
-21.7408
-22.2904
-22.5398
-22.6918
-22.464
-21.4432
-19.4271
-16.6829
-13.7091
-10.9039
-8.25986
-21.0366
-21.6496
-21.917
-22.133
-22.0171
-21.1744
-19.3422
-16.7265
-13.8104
-11.0277
-8.42904
-20.3453
-20.9104
-21.1928
-21.462
-21.4255
-20.7133
-19.0176
-16.494
-13.6165
-10.8384
-8.2841
-19.5986
-20.0903
-20.396
-20.6791
-20.6991
-20.0612
-18.4498
-15.9806
-13.1264
-10.3489
-7.79227
-18.7651
-19.1975
-19.5063
-19.7886
-19.8183
-19.2142
-17.6372
-15.1826
-12.3413
-9.59403
-7.10506
-17.8793
-18.222
-18.5014
-18.7418
-18.7393
-18.1317
-16.5571
-14.0806
-11.2478
-8.55029
-6.18775
-16.9052
-17.1388
-17.3643
-17.5366
-17.4287
-16.7716
-15.1697
-12.686
-9.83613
-7.22508
-5.03519
-15.7969
-15.9092
-16.06
-16.1397
-15.9234
-15.1244
-13.4532
-10.9364
-8.14972
-5.64959
-3.59906
-14.5245
-14.5037
-14.5538
-14.5172
-14.1875
-13.2096
-11.431
-8.89451
-6.20537
-3.8884
-1.94462
-13.0673
-12.8988
-12.8427
-12.6812
-12.19
-11.0686
-9.13419
-6.62199
-4.07052
-2.0378
-0.540084
-11.3879
-11.1071
-10.9841
-10.7196
-10.0489
-8.73655
-6.69771
-4.29107
-1.99873
-0.344787
0.823889
-9.34251
-9.15174
-9.05439
-8.70323
-7.82757
-6.27578
-4.15782
-1.89184
0.0281108
1.21775
1.90179
-6.85206
-7.29681
-7.65848
-7.22558
-6.14375
-4.47264
-2.33098
-0.253847
1.19936
1.98291
2.51688
-7.41402
-9.25579
-8.30698
-6.89088
-4.78027
-2.44375
-0.512107
0.893474
1.67925
2.14002
2.39035
-13.2451
-6.30122
-3.83213
-2.37727
-0.930787
0.293833
1.13329
1.68755
2.03807
2.2632
2.33961
2.32763
5.95842
6.22499
5.74121
4.91573
4.08691
3.34077
2.69677
2.13841
1.68531
1.49576
-23.541
-9.82327
-5.33636
-1.63188
0.225562
1.00581
1.20077
1.13572
0.956936
0.746618
0.660652
-29.7377
-19.9593
-16.0734
-10.1798
-6.13375
-3.41629
-1.84657
-0.995209
-0.563881
-0.368941
-0.207532
-26.7204
-22.6766
-20.8424
-15.5793
-11.4962
-7.8621
-5.24322
-3.48313
-2.36836
-1.66928
-1.1721
-22.2057
-20.968
-20.5049
-17.1272
-14.2308
-10.8376
-8.00473
-5.76678
-4.15062
-3.0215
-2.19873
-18.5314
-18.1908
-18.1549
-16.2568
-14.5527
-11.9685
-9.55678
-7.35073
-5.56417
-4.19672
-3.15118
-15.5996
-15.5851
-15.6136
-14.5198
-13.5497
-11.7564
-9.95702
-8.08673
-6.4131
-5.00965
-3.85569
-13.0847
-13.2626
-13.3006
-12.6554
-12.0838
-10.859
-9.58036
-8.11752
-6.70373
-5.42069
-4.31361
-11.0754
-11.2546
-11.2804
-10.9063
-10.5578
-9.71513
-8.8101
-7.69734
-6.56047
-5.45812
-4.45465
-9.54583
-9.61786
-9.61615
-9.38499
-9.14956
-8.55562
-7.90105
-7.05351
-6.15081
-5.22936
-4.35104
-8.26232
-8.26207
-8.24803
-8.09313
-7.9156
-7.4807
-6.98855
-6.33136
-5.60925
-4.84574
-4.11801
-7.19721
-7.12045
-7.09508
-6.98782
-6.84866
-6.519
-6.13185
-5.60686
-5.01604
-4.36926
-3.7352
-6.41906
-6.24367
-6.19374
-6.09592
-5.9647
-5.6914
-5.36215
-4.92073
-4.41973
-3.86328
-3.32182
-5.85873
-5.60615
-5.53316
-5.41924
-5.26773
-5.00717
-4.69397
-4.29364
-3.84675
-3.35623
-2.87841
-5.40737
-5.0961
-5.00106
-4.86399
-4.68965
-4.42606
-4.10796
-3.72072
-3.30071
-2.85453
-2.41848
-5.03205
-4.68399
-4.56189
-4.39521
-4.19495
-3.91674
-3.57949
-3.1859
-2.77463
-2.36166
-1.98174
-4.71015
-4.3365
-4.18959
-3.99269
-3.76691
-3.45966
-3.08866
-2.67234
-2.25732
-1.8688
-1.52584
-4.40066
-4.01406
-3.84159
-3.61824
-3.35604
-3.01783
-2.60566
-2.15722
-1.73469
-1.37238
-1.07463
-4.08477
-3.69469
-3.50142
-3.25489
-2.95664
-2.57228
-2.1037
-1.61951
-1.19762
-0.874728
-0.648621
-3.7677
-3.38071
-3.17293
-2.902
-2.55058
-2.09157
-1.5534
-1.04457
-0.646823
-0.380158
-0.217794
-3.43807
-3.07281
-2.85034
-2.53414
-2.09082
-1.5258
-0.931191
-0.434132
-0.0998894
0.0938042
0.206934
-3.02026
-2.75774
-2.48868
-2.0695
-1.48894
-0.83013
-0.243555
0.159346
0.380842
0.49029
0.551173
-2.89207
-2.552
-2.09223
-1.46281
-0.750048
-0.0945457
0.375508
0.621906
0.749409
0.841031
1.11719
-2.17323
-1.27441
-0.652613
-0.0580324
0.417369
0.711208
0.806824
0.78752
0.75809
0.756207
0.902433
25.3139
18.5581
13.7121
10.474
8.04421
6.28403
4.963
3.93163
3.09932
2.44849
2.05431
18.5238
18.8001
16.7679
13.8268
10.9166
8.49781
6.6153
5.15581
4.01416
3.15048
2.60883
10.7499
13.7241
13.9212
13.3374
11.6781
9.62737
7.65508
5.96982
4.6221
3.61301
2.96372
4.30715
8.24936
9.46066
10.4472
10.2215
9.11572
7.70652
6.25394
4.94847
3.91528
3.26175
0.0846306
3.59737
4.86521
6.70769
7.52097
7.54353
6.90013
5.93812
4.88665
3.95285
3.30766
-2.45202
0.36782
1.29037
3.32092
4.49961
5.25637
5.32555
4.95102
4.31132
3.62655
3.09516
-3.9385
-1.65895
-1.12775
0.819094
1.8921
3.00762
3.5234
3.63223
3.40467
3.01905
2.6805
-4.74712
-2.87277
-2.71247
-0.828181
-0.0603973
1.12474
1.85083
2.27431
2.376
2.27078
2.1275
-5.34588
-3.66283
-3.75995
-2.06606
-1.37657
-0.295
0.473828
1.05868
1.38106
1.49879
1.51675
-5.83759
-4.43694
-4.25923
-3.04346
-2.33905
-1.35047
-0.594923
0.0589157
0.511464
0.788919
0.952956
-6.17832
-5.12093
-4.71374
-3.70532
-3.0401
-2.12963
-1.40009
-0.721135
-0.197596
0.180415
0.456475
-6.33169
-5.45358
-5.0539
-4.15197
-3.52878
-2.68451
-1.98555
-1.30322
-0.743253
-0.302863
0.0337776
-6.44744
-5.62345
-5.25486
-4.42627
-3.84163
-3.04948
-2.38177
-1.70834
-1.135
-0.657716
-0.285075
-6.56142
-5.71479
-5.35237
-4.56551
-4.00751
-3.25505
-2.61442
-1.95609
-1.38446
-0.893037
-0.494034
-6.44671
-5.661
-5.33602
-4.58791
-4.04923
-3.32906
-2.70821
-2.06726
-1.50515
-1.01519
-0.616039
-6.27724
-5.52879
-5.22619
-4.51087
-3.98149
-3.28915
-2.68039
-2.05821
-1.5106
-1.03389
-0.645986
-6.09629
-5.35035
-5.04358
-4.34994
-3.81503
-3.14406
-2.54109
-1.93909
-1.41151
-0.959191
-0.596708
-5.82654
-5.0916
-4.7767
-4.10301
-3.55141
-2.89556
-2.29565
-1.71713
-1.21776
-0.801363
-0.465967
-5.47063
-4.74882
-4.41797
-3.76137
-3.18504
-2.53988
-1.94656
-1.39972
-0.941356
-0.575206
-0.288701
-5.04758
-4.3279
-3.96278
-3.31406
-2.70696
-2.07205
-1.49805
-0.998616
-0.599106
-0.294999
-0.0699912
-4.53996
-3.80839
-3.38857
-2.73917
-2.10607
-1.49318
-0.964267
-0.536048
-0.21017
0.02285
0.180575
-3.89851
-3.14098
-2.64435
-1.99933
-1.37176
-0.815083
-0.369979
-0.0354903
0.208467
0.367883
0.453649
-3.20276
-2.29823
-1.73857
-1.15715
-0.602857
-0.150255
0.181696
0.420755
0.587773
0.670609
0.665683
-1.54231
-0.809913
-0.3877
-0.00663485
0.335522
0.584734
0.779105
0.938754
1.11489
1.20623
1.10509
-0.318774
-0.280896
-0.341704
-0.621762
-1.26237
-1.64163
-1.39617
-0.576603
0.399751
-0.317091
-0.297339
-0.355238
-0.496122
-0.906388
-1.14709
-0.898803
-0.346078
0.382999
-0.296992
-0.284193
-0.339826
-0.448468
-0.820257
-1.0292
-0.889643
-0.302657
0.325282
-0.241806
-0.251785
-0.311574
-0.386018
-0.68557
-0.822082
-0.609934
-0.242979
0.270764
-0.407274
-0.708195
-1.19785
-1.2191
-0.62926
0.388913
1.18547
1.31621
1.04414
-0.352484
-0.497993
-0.795725
-0.772909
-0.329739
0.406244
1.03686
1.1388
0.899668
-0.302516
-0.447873
-0.698451
-0.680702
-0.283531
0.384773
0.899757
0.97393
0.761071
-0.236159
-0.368023
-0.547641
-0.504695
-0.182485
0.364168
0.774254
0.828372
0.648261
2.1412
2.72611
2.73869
-0.1378
-0.16727
3.13456
-0.168453
2.77198
3.14453
2.09708
-0.181366
2.77258
-0.149163
-0.0248366
2.13224
1.99867
-0.0602573
-0.135765
2.00097
2.13743
1.57977
-0.23568
2.35858
-0.137672
2.70889
-0.0257339
-0.144038
-0.172795
-0.91035
-0.16766
-0.0624424
0.699935
-0.00483959
2.24
0.593417
2.75815
-0.133883
2.72586
-0.003666
2.89329
-0.618412
2.2502
0.0133693
2.36924
-0.240313
-0.0614316
-0.0802065
-0.0936816
1.14551
3.05382
-0.17585
2.89014
-0.00205019
0.0154423
3.01822
1.59047
-0.250115
2.84238
-0.959399
-0.0157555
-1.11223
-0.000540265
-0.190746
-0.170448
-0.370534
2.13847
-0.173571
3.58971
2.75636
2.10693
-0.0722573
2.78306
-0.152794
3.26758
-0.111883
2.84842
-0.257938
2.28601
-0.195841
-0.126321
-0.161186
-0.170958
2.24658
2.27429
-0.0799026
-0.148103
-0.970864
-0.00215071
-0.23335
-0.114568
2.82646
2.82109
-0.470371
3.81678
-0.198854
-0.120688
-0.0894948
0.0184966
-0.212271
2.87691
-0.116414
-0.119039
1.9738
0.227353
-0.195627
2.88665
-0.00851664
2.25042
-0.0382475
0.974086
2.4131
2.24168
3.23593
-0.150974
-0.0756271
2.21211
2.86011
2.19522
2.85083
1.81658
-0.155351
3.06572
0.416883
-0.0632633
-0.0812266
-0.0284051
-0.0244398
-0.00798122
-0.00506843
-0.028263
2.5979
-0.0155119
-0.101341
2.80808
2.82398
-0.152625
-0.239476
-0.169023
-0.111343
1.28214
0.0310193
1.40804
-0.218033
1.37757
2.83389
-0.167149
-0.180903
3.50931
2.29065
2.29677
2.5539
3.06383
-0.16257
3.14018
-0.147149
0.00020918
-0.131783
-0.243945
-0.0511554
2.36034
0.0237325
-0.218928
2.82308
2.41636
-0.143182
-0.101081
-0.214528
1.35446
-0.0182231
-0.37218
-0.0104687
-0.0200403
-0.0212901
1.32636
0.763058
0.800841
-0.0011964
-0.176577
-0.280133
0.889433
3.34612
-0.249831
2.79124
-0.131879
2.94616
-0.15489
2.59347
2.15624
2.54726
-0.191534
-0.0440205
-0.05047
2.05395
-0.601176
2.7669
2.54661
3.27679
-0.22833
-0.0297951
2.22438
-0.195381
3.24613
-0.0766589
-0.0750823
2.81212
6.93813e-05
3.83614
-0.0039565
3.11539
2.11428
-0.127131
2.11961
1.15689
0.765922
2.30173
-0.0376425
2.857
-0.0672122
2.75062
-0.102594
-0.0015212
-0.151754
-0.0949686
-0.0825155
-0.0544649
2.75002
-0.10187
-0.0863456
-0.0359206
-0.183925
-0.221676
2.02157
2.58656
2.88842
-0.163083
-0.302405
-0.186692
2.78725
2.59987
2.61126
-0.0385342
-0.144724
0.191045
-0.540849
4.76134
-0.248214
2.22135
-0.0894481
-0.153635
-0.124318
-0.0868478
-0.138259
0.151559
2.35669
0.437867
3.24206
1.70499
2.73372
-0.185749
2.57486
-0.00168477
-0.157188
2.08525
2.3333
2.39562
-0.0922662
1.35653
4.36736
0.122039
0.203153
-0.126474
2.65801
3.31791
-0.0832525
2.93002
2.18992
-0.0740898
2.95165
1.33744
-0.207712
2.80135
2.83117
-0.159271
-0.1594
0.503218
2.78486
-0.767572
2.66467
1.17841
0.00633756
2.54221
-0.179888
1.10876
-0.010341
2.7469
3.08133
-0.0121199
2.39279
0.692169
-0.0827107
2.96877
-0.169881
0.979666
-0.154536
1.75228
0.921225
2.31966
0.00462667
-0.2548
2.5234
-0.179663
2.88577
0.860941
0.00130127
-0.286197
1.43993
-0.113878
-0.196765
1.74123
3.80524
2.4781
-0.0459544
2.13709
-0.0648398
-0.183923
1.45501
2.23672
-0.106463
1.99906
-0.0971274
3.5151
-0.184008
-0.236871
2.85556
-0.134829
-0.177401
-0.151253
2.33292
2.92081
0.0385002
-0.193197
-0.109323
3.29489
-0.10396
-0.144086
-0.00739223
-0.0342279
2.20199
-0.13881
-0.0411649
-0.161537
0.0283031
0.240209
1.81306
-0.0348649
2.22238
-0.00101504
1.20957
2.34207
-0.115948
0.217238
-0.032041
2.84796
2.2421
3.07853
-0.220499
-0.019615
-0.0157152
-0.152843
0.586041
2.93959
-0.138528
-0.172398
-0.0123804
-0.0273571
2.5285
0.472537
0.570273
2.7922
2.29981
-0.134707
2.58918
-0.179626
2.70651
-0.0489788
-0.116399
-0.158027
-0.0535654
-0.141997
-0.221744
3.04051
-0.202757
-0.0213247
2.34121
-0.120733
-0.41399
2.3096
2.35908
2.81436
-0.0297195
-0.18886
2.20394
2.85348
0.037138
0.0023301
-0.80252
-0.202881
-0.0412033
3.20879
-0.0391231
1.60553
1.97843
-0.0745935
-0.0705671
-0.155958
0.77855
-0.049057
3.0957
-0.00543288
-0.208569
-0.132673
-0.0061289
-0.157118
-0.0129147
0.748617
1.04579
3.23559
-0.011263
-0.0625745
-0.215121
2.20424
-0.219739
-0.0620707
1.6508
0.0555669
-0.00965311
-0.12857
-0.131832
-0.0653945
2.17586
0.080118
-0.80244
-0.111934
-0.162113
1.9262
-0.0320038
-0.0115391
-0.247678
2.46527
-0.242993
3.0263
2.27519
2.87866
-0.216505
-0.19287
-0.149258
-0.00847556
-0.247955
-0.00195597
2.43985
2.4923
-0.0407822
-0.0144068
0.399699
1.78032
-0.00729903
5.56803e-05
2.20979
2.13085
3.52337
0.770568
-0.172555
2.19314
-1.07555
1.81092
2.55157
2.6263
2.13055
-0.227581
2.56462
2.33
1.63061
-0.166933
-0.241267
2.33609
-0.155618
-0.161063
1.44058
-0.00140961
2.24839
-0.179921
2.58075
1.89206
2.73309
-0.00494762
-0.0511316
2.06654
-0.0619594
1.05158
4.26115
-0.100057
-0.104249
2.90515
2.31476
-0.157096
0.00942577
-0.150168
3.37097
-0.118986
2.1711
-0.143562
-0.0441688
-0.228503
-0.0967549
-0.162905
-0.156002
-0.0143325
-0.0585718
2.19505
0.0487032
1.68902
2.83513
2.91343
2.53859
1.6047
-0.15408
2.78431
2.27183
-0.116096
2.98102
-0.161569
0.281283
-0.0139976
-0.0694183
-0.231987
2.64461
2.84069
2.8179
-0.540808
-0.220739
2.21902
2.45448
-0.0617204
2.86466
-0.106673
2.86966
-0.0589465
1.32154
-0.271426
0.00310315
-0.00612005
-0.050885
-0.13873
1.77292
1.30656
2.24443
2.4977
-0.020598
-0.285424
1.9527
-0.0697464
-0.247048
-0.0881585
2.7602
3.44632
2.86474
-0.0134065
-0.171748
-0.0129214
2.90171
2.68339
-0.165067
3.51152
-0.00860293
-0.0153792
-0.0456798
-0.155075
2.40751
-0.00456872
2.83801
-0.0118476
3.25211
-0.105812
-0.00125187
0.846267
-0.287202
-0.116522
2.74496
2.27771
-0.218415
2.3873
0.00856205
-0.148533
-0.0402426
-0.0283558
-0.177672
-0.115963
2.24036
2.87591
2.95331
-0.133118
-0.078484
-0.0291026
2.10464
2.76629
-0.20433
2.52885
4.08734
1.63746
2.53746
-0.0502718
-0.0325014
-0.0421818
0.147136
0.635714
0.173054
2.32401
-0.137237
2.74168
2.95448
-0.15397
-0.113939
2.10177
2.49638
-0.223938
1.93216
2.43733
0.198356
2.85846
1.37854
-0.108063
-0.0267775
0.322153
-0.00435286
-0.0053864
-0.206552
-0.0584492
-0.525312
-0.110334
-0.07664
-0.217486
-0.144271
-0.0549532
2.17779
1.88119
-0.185352
0.664745
2.16131
0.947837
-0.0658307
0.00739235
-0.156155
-0.0580924
0.253198
2.26474
-0.0626869
2.68179
2.34333
1.63585
-0.130067
2.45002
3.25245
2.11231
2.48641
-0.146549
-0.0191919
-0.184145
2.69953
2.61316
1.22952
0.00741591
3.75409
-0.20594
3.09484
-0.127213
-0.00865103
2.3507
0.00425496
2.44988
-0.00885955
-0.148266
-0.0446898
-0.153464
0.0377401
-0.0267671
2.24842
-0.00835902
-0.0158163
-0.221622
-0.027737
2.17815
0.836818
2.26698
0.197701
2.13607
-0.125102
2.89763
2.96525
2.76262
-0.141119
-0.0123058
2.69024
-0.00288362
3.09161
-0.075292
-0.0534645
1.25685
-0.148499
-0.436441
-0.00380481
0.462357
-0.0833391
-0.120755
-0.118339
-0.00051972
-0.1637
2.18998
-0.0573802
2.55803
3.30521
-0.186632
-0.0526625
-0.184924
-0.0222071
3.46048
1.36347
1.78017
-0.0684737
2.45593
-0.00443502
3.02668e-06
-0.0538792
1.16442
0.405022
0.0025216
-0.0269066
2.67685
-0.10844
-0.167346
-0.194205
2.43813
-0.034121
-0.23525
2.79968
-0.150233
-0.00669926
3.74291
-0.121979
2.68116
2.07656
1.60368
-0.00832896
2.74839
-0.0134287
2.86774
-0.0128288
2.49441
-0.0204151
0.00478435
-0.108402
-0.0241723
2.12688
-0.123722
-0.0773936
2.33268
-0.0106638
0.51189
0.0512551
0.0531992
-0.239093
1.29312
-0.0823888
-0.00504823
0.112928
2.29343
-0.090955
2.25865
-0.0437614
-0.249665
2.73432
2.85053
-0.0374193
-0.157866
-0.0785851
-0.112667
2.74482
-0.0476741
0.935766
2.22088
2.55676
2.86198
2.55341
4.71985
-0.00401881
-0.206404
-0.125227
-0.0230192
0.00841923
2.70977
2.6595
0.313071
-0.136169
2.80628
0.174852
-0.0504364
-0.125946
-0.160489
-0.441898
0.621045
-0.0945278
2.68938
2.59073
-0.106592
1.93085
2.76346
0.886159
-0.00900432
0.0420005
0.0936042
2.78616
-0.0701824
-0.429754
-0.14625
2.73485
-0.0135678
-0.0271816
-0.00700507
-0.108854
2.3482
2.27237
-0.13541
-0.0460885
0.0248384
2.26908
2.12672
3.85668
3.28433
2.70348
-0.0635404
-0.0637707
-0.160238
-0.142426
0.0195957
2.89336
-0.187592
2.45193
3.04771
0.392235
2.65247
3.01877
2.86938
-0.198162
-0.01585
-0.00662242
3.01022
-0.100888
2.82411
2.83429
3.44156
2.5301
0.950829
2.35568
2.84071
3.74918
-0.129206
2.2627
2.21998
-0.0253781
-0.212957
2.97779
2.8693
-0.166199
-0.134597
2.66973
-0.12364
-0.040643
-0.114936
2.49071
2.7034
1.43739
1.30671
0.0101292
2.65096
-0.118816
-0.0159944
-0.0513082
0.014799
2.38648
-0.0269703
2.04869
2.36167
2.80576
3.34601
2.29711
0.0140752
-0.133758
0.409206
-0.117345
-0.0293479
0.00364276
0.625342
-0.204685
2.27948
2.40494
-0.00321325
-0.00236892
-0.0315832
2.95692
-0.161053
3.2527
-0.113511
2.53749
-0.00314558
-0.0298005
-0.209374
-0.0850368
2.09964
2.71382
-0.151663
-0.222976
-0.0118264
0.0890137
-0.0495618
1.09387
1.79598
-0.0433316
3.07403
2.82688
0.00751836
-0.193931
-0.160727
-0.23291
-0.0168682
-0.028425
-0.034031
-0.136237
2.30258
1.08888
-0.0295495
2.36623
0.103568
2.9458
-0.129061
-0.0258103
-0.0427291
2.40943
-0.0642458
2.85013
2.86373
-0.0520391
-0.147556
2.48139
2.93896
3.70446
-0.1472
-0.0161383
-0.213771
0.612488
2.09652
-0.684482
-0.0758971
-0.275074
2.30269
-0.0480709
-0.00538107
2.86034
-0.0139329
1.16441
-0.00684856
-0.12844
0.61785
-0.140813
1.3851
3.04586
-0.121002
-0.0829775
2.59184
-0.0472439
2.8174
-0.270147
-0.00486327
-0.076703
2.72427
-0.00587337
-0.14833
-0.148984
-0.00546544
-0.0315339
2.23772
-0.00636146
-0.175471
2.30458
1.10428
-0.0825114
-0.135542
-0.12257
-0.0946739
2.88078
2.49693
-0.201851
1.9488
-0.46048
-0.00537638
-0.00967018
-0.173636
2.70702
-0.112013
-0.219116
-0.00831988
-0.121446
-0.0189292
2.69491
-0.0703172
-0.00443496
2.41415
1.49301
2.81634
-0.111935
1.20725
2.85509
-0.0954649
0.00735387
-0.0124598
2.42191
-0.167634
-0.164051
1.45585
-0.093991
2.20796
2.05415
1.224
-0.151173
2.93483
-0.00962049
0.634691
-0.211348
2.35123
1.74582
2.26139
2.27627
-0.155272
-0.146356
0.0492191
-0.217446
-0.176523
-0.170149
2.0858
0.837026
-0.170431
2.35641
-0.0140216
-0.0122355
0.892793
-1.00735
-0.106039
-0.134437
2.05789
-0.0486077
2.3097
-0.159605
2.44323
-0.150013
-0.0079239
3.04427
-0.207246
-0.125794
1.58346
-0.110922
-0.0212416
-0.456781
-0.144512
0.6681
-0.217336
-0.0236752
-0.155795
-0.068132
-0.104475
2.86063
-0.0839021
4.73985
-0.0686679
-0.0358055
-0.154268
0.559549
-0.0363049
-0.207871
2.35145
3.39399
1.44545
2.44307
-0.00918873
-0.062774
2.41684
-0.0344371
-0.0929312
3.2865
-0.116636
-0.191084
-0.134563
-0.880194
-0.272687
-0.0654707
-0.0197872
-0.0163432
2.3957
2.50944
-0.184692
2.51078
2.81715
-0.0853254
2.23968
4.54729
-0.146453
2.73973
-0.160384
-0.0363834
-0.137634
2.36292
-0.069322
0.0104168
-0.0298421
-0.0888722
2.29143
0.00196562
-0.0461178
-0.0141191
-0.00148918
2.00403
-0.0336872
1.94995
-0.147845
-0.0577364
1.31128
2.4221
-0.175716
0.428908
-0.0997776
-0.229665
-0.127256
2.53737
2.80919
2.54696
0.217097
0.000667483
-0.0125008
-0.224726
-0.611536
2.06288
0.611846
2.02732
2.88522
-0.23247
2.19724
2.64991
-0.781953
-0.436439
-0.123309
-0.179957
2.43225
2.13904
-0.00795999
-0.161515
-0.0857538
-0.17465
-0.0783017
2.88414
2.75348
-0.0324159
-0.0461141
-0.019235
-0.0136933
3.07278
-0.03898
0.0141684
-0.131306
1.83265
-0.113967
-0.212208
1.15298
0.0443632
2.36037
1.84324
-0.167237
-0.0158212
-0.0942154
1.61045
1.18247
0.266906
-0.149994
-0.147886
-0.0370875
-0.158582
-0.0500968
2.88715
-0.151058
-0.152841
2.50292
-0.00479199
0.00829139
1.56964
-0.115538
2.41334
2.89692
2.46389
-0.535241
-0.00223142
2.15948
-0.0138068
2.42161
2.32085
2.21841
-0.0753283
2.19399
-0.103216
-0.180455
2.49833
-0.21648
-0.220425
-0.076963
-0.230121
0.0227773
-0.0812027
-0.00262121
2.79549
2.35061
2.94727
-0.00228143
2.22974
2.47218
-0.113055
-0.29172
-0.00816079
-0.0046825
0.014855
1.02762
-0.153722
-0.175365
2.1694
0.272615
2.07829
-0.00576669
1.76986
-0.0158499
1.59185
1.97237
2.90174
-0.208674
-0.0243422
1.54563
-0.12816
2.13954
-0.0260513
-0.0368692
-0.172469
-0.0296954
2.40533
2.11371
-0.0161755
-0.858725
-0.0486081
-0.0146187
-0.200068
-0.00650954
2.44888
-0.269028
-0.0234208
1.8643
-0.142425
-0.120359
-0.0660958
-0.192872
-0.151665
-0.00397085
-0.167954
-0.512589
2.18032
3.36245
-0.00717254
-0.154446
0.467497
2.29267
0.00536539
2.7672
2.89161
-0.288526
2.24894
2.71928
-0.179467
-0.159902
3.2752
2.18725
3.09375
1.63809
2.43806
3.4972
-0.0554803
0.208368
2.11431
2.91675
-0.168642
2.51156
0.00228932
2.94929
1.94612
2.73618
-0.0728919
-0.202126
-0.142984
2.20066
2.34871
-0.010338
-0.0357478
2.40739
-0.0249872
-0.0869809
3.29698
-0.0661373
-0.0307411
-0.245814
-0.0533763
-0.132597
2.70431
-0.148004
2.96059
1.6375
4.23337
0.245613
2.53736
-0.134586
3.85382
-0.171585
2.88918
2.51818
-0.159305
2.37026
2.65473
-0.138101
-0.128485
-0.149545
2.66918
1.65594
2.95905
-0.0537685
-0.0374454
-0.140276
0.573559
-0.11318
-0.166715
2.4723
2.11932
2.8805
1.44878
-0.0943079
3.99069
0.25586
3.29642
-0.156073
0.0110246
-0.0367235
-0.0095314
1.28422
0.526822
2.77621
0.0338079
-0.279265
2.37973
2.50109
0.0362256
1.3671
1.99574
2.103
-0.0898021
2.76696
-0.155635
-0.258932
-0.0260349
-0.0496173
2.14924
-0.0275907
1.21275
-0.0632726
-0.0471878
0.664856
-0.0835726
2.19854
2.36369
2.11036
2.05587
0.178928
1.45992
3.39848
-0.0414207
-0.104934
2.5776
1.49039
-0.190039
0.182393
2.29156
-0.102358
2.24832
2.11763
-0.107488
2.54949
0.0380492
-0.014654
1.689
2.83738
-0.0522313
-0.162842
2.1003
-0.026086
2.84201
2.95109
-0.0439541
1.71892
-0.0348922
2.45873
3.91713
-0.0811627
0.904014
2.76473
-1.09222
1.71727
2.94286
2.65368
2.81728
0.557085
0.490775
-0.0572132
-0.0685751
-0.196988
2.88801
3.07194
-0.1636
-0.00323087
1.78478
1.19437
-0.038212
3.04003
-0.0281554
2.7165
-0.114721
3.20596
2.11844
-0.00711463
-0.0785119
-0.0555862
2.78249
2.29913
1.83669
2.14629
2.65434
-0.0351169
-0.0205503
-0.149337
-0.147897
0.0440298
1.29399
2.57887
2.68066
-0.201428
1.74285
-0.00860072
-0.171414
1.46494
-0.115475
-0.122558
2.02807
2.24952
0.532628
-0.0415374
-0.0761506
1.85806
-0.0632532
-0.0394729
-0.183531
-0.0164977
-0.0368298
2.43126
-0.139893
-0.0944259
-0.271516
-0.0956281
-0.123163
-0.0167924
2.55458
2.0032
-0.111384
2.79817
-0.0300357
-0.0715325
-0.0178938
-0.0701841
-0.123302
-0.0814547
-0.399126
-0.151173
2.99152
-0.147789
-0.00655454
0.30913
0.126946
-0.166653
2.45205
-0.183886
2.98855
0.00145447
-0.16676
-0.0646535
-0.260664
-0.0798677
-0.0610974
3.3381
3.77206
2.49906
2.56133
2.68092
0.583589
2.89989
-0.210067
4.36003
-0.128299
-0.119593
2.09809
2.29259
-0.132606
-0.226546
2.8624
1.00477
2.35213
3.21765
0.485114
-0.191803
2.57746
2.02083
1.9313
2.20449
3.85434
2.84007
0.0589543
-0.159053
2.93473
0.00876265
2.80231
2.12219
1.06552
2.91079
-0.0775404
2.09829
2.65682
1.85404
2.17054
-0.0199508
2.96444
-0.0143907
-0.163132
-0.148131
0.0305428
-0.0502023
0.0300299
-0.0329186
-0.00905942
-0.0560002
-0.00942175
2.27025
-0.00917384
1.31821
2.87939
2.85835
-0.95906
-0.0452984
-0.0180183
2.275
-0.138047
3.78041
0.0182084
-0.0659027
2.20103
0.565393