/*--------------------------------*- C++ -*----------------------------------*\
| =========                 |                                                 |
| \\      /  F ield         | OpenFOAM: The Open Source CFD Toolbox           |
|  \\    /   O peration     | Version:  3.0.1                                 |
|   \\  /    A nd           | Web:      www.OpenFOAM.org                      |
|    \\/     M anipulation  |                                                 |
\*---------------------------------------------------------------------------*/
FoamFile
{
    version     2.0;
    format      ascii;
    class       volScalarField;
    location    "0.014119";
    object      k;
}
// * * * * * * * * * * * * * * * * * * * * * * * * * * * * * * * * * * * * * //

dimensions      [0 2 -2 0 0 0 0];

internalField   nonuniform List<scalar> 
21246
(
1.26578
1.56605
0.922942
0.478636
0.251992
0.13454
0.0723131
0.039227
0.0220269
0.0135761
0.00966662
0.735656
1.00548
0.770072
0.479854
0.269985
0.149731
0.0813333
0.0433836
0.023535
0.0139001
0.00960062
0.641762
0.827307
0.645629
0.461398
0.289569
0.169021
0.093265
0.0491469
0.0257398
0.0145015
0.0096733
0.595007
0.717852
0.563121
0.426651
0.277726
0.167119
0.093967
0.0504645
0.0267385
0.0150103
0.00989693
0.563347
0.618682
0.494568
0.383678
0.251971
0.155405
0.0899256
0.0497094
0.0269281
0.0152343
0.00997534
0.539458
0.537912
0.438542
0.341717
0.225262
0.141045
0.0833343
0.0473178
0.0263115
0.0151568
0.0100172
0.520242
0.476137
0.393413
0.304722
0.201535
0.127091
0.0761902
0.0442178
0.0252142
0.0148492
0.00992004
0.504083
0.427732
0.355966
0.273795
0.181508
0.114805
0.0694421
0.0409537
0.0238546
0.0143495
0.0098201
0.490923
0.389291
0.325086
0.248686
0.165102
0.104494
0.063536
0.0379192
0.0224972
0.0138359
0.0096773
0.481202
0.358602
0.300241
0.229051
0.152233
0.0962718
0.0586663
0.0353008
0.0212595
0.0133382
0.00947822
0.473639
0.333613
0.279914
0.21357
0.142208
0.0898418
0.054779
0.0331391
0.0201904
0.0128728
0.00930277
0.466576
0.312649
0.26257
0.200851
0.134201
0.0847925
0.0517165
0.0314081
0.0193117
0.012477
0.00913908
0.461094
0.295017
0.248028
0.190739
0.128112
0.0810651
0.0494597
0.0301161
0.0186442
0.0121646
0.00899295
0.457973
0.280912
0.236319
0.183306
0.124042
0.0787262
0.0480534
0.0292998
0.0182126
0.0119476
0.00887885
0.454784
0.269171
0.226311
0.17773
0.121646
0.0776022
0.0474367
0.0289514
0.018031
0.0118429
0.00881444
0.451899
0.259368
0.217372
0.1731
0.120617
0.0779239
0.047932
0.0293067
0.0182538
0.0119544
0.00884793
0.449491
0.252026
0.209665
0.169515
0.12102
0.0797492
0.0496999
0.0305307
0.0190079
0.0123837
0.0090325
0.447537
0.246363
0.202932
0.166633
0.122512
0.0829805
0.0528566
0.0328315
0.0204755
0.0132511
0.00946395
0.446293
0.242396
0.197226
0.164368
0.124949
0.0876656
0.0576612
0.036585
0.0230099
0.0148138
0.0103097
0.446192
0.240277
0.192669
0.162642
0.128138
0.0937956
0.0643947
0.0423017
0.0271796
0.0175524
0.011914
0.447889
0.240136
0.189389
0.161368
0.13177
0.101172
0.0732172
0.0505384
0.03377
0.0222708
0.0149602
0.452813
0.241356
0.187408
0.160476
0.135419
0.109273
0.0839204
0.0616222
0.04361
0.0300804
0.0205921
0.461181
0.242566
0.186245
0.159734
0.138506
0.117135
0.0955708
0.0751143
0.0570081
0.0419869
0.0302687
0.489611
0.239927
0.192493
0.167013
0.146927
0.127887
0.109047
0.0907204
0.0735437
0.0581211
0.0448953
1.39361
2.31168
1.06483
0.65788
0.346967
0.175076
0.0883077
0.0449271
0.0237943
0.0140328
0.00977237
1.38485
2.30636
1.2712
0.783727
0.454394
0.237758
0.11969
0.058699
0.0293413
0.0160998
0.010519
1.29428
1.92573
1.2772
0.839373
0.517195
0.294322
0.154963
0.076399
0.0369827
0.019025
0.0116628
1.14855
1.62302
1.20181
0.821185
0.535954
0.332985
0.186219
0.0947795
0.0457533
0.0227114
0.0133738
0.992191
1.45057
1.11428
0.769883
0.530979
0.353175
0.209425
0.111481
0.0548006
0.0267906
0.0151002
0.852345
1.35611
1.03969
0.719032
0.516561
0.360275
0.224728
0.125367
0.0635603
0.0312288
0.0173032
0.738033
1.30195
0.980964
0.678621
0.499907
0.360276
0.234408
0.136536
0.0717255
0.0356565
0.0191724
0.648763
1.27028
0.934342
0.646191
0.48357
0.357001
0.24073
0.145723
0.079385
0.0402919
0.0214557
0.581053
1.24838
0.898123
0.619642
0.469336
0.353336
0.245648
0.153964
0.0869276
0.045183
0.024379
0.53004
1.22896
0.870301
0.59832
0.456316
0.349237
0.250288
0.162365
0.0952151
0.0508741
0.0276446
0.490524
1.20434
0.851249
0.582761
0.445379
0.345704
0.254615
0.17076
0.104085
0.0575666
0.0316528
0.458646
1.18039
0.837872
0.570975
0.436115
0.34272
0.258765
0.179285
0.113557
0.065249
0.0363893
0.432499
1.15683
0.828699
0.563121
0.42895
0.340598
0.263072
0.188209
0.123868
0.0742235
0.0424331
0.409846
1.12565
0.823563
0.560129
0.424544
0.339722
0.267843
0.197784
0.135288
0.0848197
0.0500064
0.38931
1.09026
0.820328
0.56114
0.422869
0.340096
0.273077
0.207967
0.147901
0.0972007
0.0597627
0.370022
1.04835
0.81805
0.56649
0.424657
0.342241
0.279084
0.218884
0.161861
0.111702
0.0720676
0.350808
0.997735
0.815293
0.576541
0.431002
0.347083
0.28643
0.230757
0.17728
0.12854
0.0875795
0.330618
0.93893
0.809723
0.590771
0.442927
0.355935
0.296077
0.244024
0.19424
0.147739
0.106546
0.308392
0.87135
0.797869
0.607656
0.461494
0.37092
0.30993
0.25981
0.213143
0.169307
0.129038
0.284012
0.798688
0.775804
0.624429
0.487895
0.395561
0.331774
0.280972
0.235542
0.193685
0.154995
0.25038
0.696233
0.734518
0.634849
0.521691
0.433842
0.367055
0.312286
0.264559
0.222174
0.183625
0.246376
0.714088
0.703114
0.631476
0.544071
0.464877
0.396459
0.337151
0.285656
0.241299
0.199744
0.244561
0.517074
0.54906
0.487367
0.418131
0.353832
0.295352
0.242308
0.194844
0.153108
0.118859
0.447855
0.34435
0.263554
0.212251
0.177464
0.150724
0.12835
0.108674
0.0909935
0.0750957
0.0609435
1.12074
1.84794
1.16013
0.748794
0.454564
0.255525
0.140597
0.0782435
0.0445174
0.0263737
0.0172157
1.0639
1.53611
1.21965
0.866958
0.571043
0.337145
0.177345
0.0979215
0.054103
0.0305096
0.0188372
0.881657
1.20887
1.16197
0.910176
0.646438
0.409978
0.227966
0.122083
0.0666088
0.0365112
0.021528
0.616115
1.02992
1.08149
0.916437
0.694025
0.469643
0.279153
0.152322
0.0817968
0.0437152
0.0252268
0.354106
0.987518
1.04197
0.921786
0.731696
0.521902
0.330098
0.188128
0.100957
0.0530377
0.0302807
0.335061
1.00812
1.07184
0.952499
0.772853
0.572361
0.381419
0.228868
0.12614
0.065842
0.0362077
0.36133
1.06719
1.26354
1.07739
0.850462
0.632938
0.435429
0.273384
0.156856
0.0833819
0.0444408
0.326455
0.910391
1.41788
1.30669
1.00497
0.727275
0.500629
0.322585
0.192126
0.105502
0.0559216
0.291451
0.752889
1.3516
1.56154
1.26404
0.88961
0.595307
0.382627
0.232653
0.13184
0.0708217
0.260841
0.618012
1.13182
1.6234
1.5609
1.13703
0.741802
0.464903
0.281906
0.162697
0.0890517
0.240773
0.516402
0.930147
1.44397
1.73978
1.42678
0.946086
0.578691
0.343953
0.198726
0.110312
0.230088
0.450112
0.783475
1.22044
1.70904
1.65607
1.17668
0.719367
0.418662
0.23947
0.133859
0.225595
0.408114
0.673512
1.01772
1.49209
1.73
1.36935
0.862518
0.497746
0.281748
0.158048
0.224986
0.383003
0.593649
0.859735
1.26148
1.64434
1.46194
0.969073
0.563981
0.318771
0.180079
0.227485
0.369705
0.536147
0.737524
1.05125
1.44485
1.43902
1.00673
0.597681
0.341757
0.196509
0.233442
0.367369
0.497875
0.648723
0.872219
1.19746
1.33059
0.970501
0.590267
0.345981
0.205038
0.243442
0.374207
0.474786
0.588329
0.738263
0.952964
1.16415
0.882073
0.547872
0.333413
0.206206
0.256368
0.386224
0.459637
0.541498
0.641601
0.773423
0.922577
0.789677
0.489934
0.311113
0.203017
0.273654
0.408734
0.456908
0.509264
0.570892
0.650888
0.730607
0.714214
0.445837
0.291903
0.200934
0.298316
0.448354
0.478041
0.505563
0.542826
0.600103
0.658445
0.667925
0.454618
0.292271
0.207761
0.336445
0.518119
0.545958
0.556803
0.583731
0.637623
0.697651
0.716765
0.545747
0.335149
0.234935
0.404768
0.677448
0.751537
0.756637
0.753785
0.781436
0.813758
0.825203
0.700832
0.45811
0.309088
0.541126
1.13819
1.22489
1.06278
1.01873
0.996756
1.00058
0.996854
0.898934
0.699398
0.474044
0.436688
0.401071
0.340763
0.306013
0.290978
0.28602
0.286699
0.289985
0.28866
0.27538
0.262586
1.09891
1.42117
1.03091
0.62798
0.360827
0.204918
0.11709
0.0676576
0.0397272
0.0241825
0.0159058
0.788982
1.09479
0.864342
0.581505
0.354367
0.208239
0.120533
0.0695304
0.0405175
0.0244659
0.0159811
0.682749
1.01533
0.820825
0.59334
0.375737
0.224217
0.1299
0.074347
0.0426867
0.0254208
0.0165633
0.609717
0.88806
0.755107
0.596845
0.400777
0.242441
0.139539
0.0792029
0.0449239
0.0262829
0.0167762
0.561891
0.773316
0.674365
0.561859
0.401348
0.255581
0.152148
0.0871512
0.0490035
0.0281093
0.0175519
0.52678
0.680641
0.60833
0.512107
0.371481
0.246731
0.153494
0.0909094
0.0520716
0.0297882
0.0183429
0.498479
0.606702
0.554406
0.470385
0.344695
0.232546
0.146842
0.0889519
0.0523492
0.0306753
0.0191729
0.475313
0.548061
0.509995
0.434193
0.320363
0.219417
0.141063
0.0871616
0.0522841
0.0311779
0.0197695
0.455913
0.50127
0.473153
0.403829
0.300177
0.207778
0.135522
0.0850255
0.0516749
0.0309773
0.0193938
0.439846
0.464311
0.443254
0.379163
0.284143
0.198361
0.130733
0.0828328
0.0507419
0.0306188
0.0194443
0.426333
0.434114
0.418518
0.35986
0.272158
0.191531
0.12728
0.0812016
0.0500532
0.0304799
0.0198304
0.414909
0.408553
0.397449
0.34447
0.263325
0.187014
0.12531
0.0804802
0.0499321
0.0306782
0.0201314
0.40539
0.386407
0.379469
0.332405
0.257307
0.184752
0.124993
0.0809284
0.0505841
0.0312368
0.0204266
0.397615
0.366711
0.364015
0.323303
0.254044
0.184871
0.126555
0.0827781
0.0521881
0.0323392
0.0209643
0.391088
0.348812
0.350226
0.31632
0.253058
0.187256
0.130118
0.0862442
0.0549791
0.034209
0.0218964
0.385635
0.332406
0.336694
0.309879
0.253719
0.191983
0.136168
0.0918973
0.059492
0.0373547
0.023695
0.381304
0.3172
0.323119
0.303211
0.255016
0.198288
0.144388
0.0998138
0.066051
0.0422296
0.0268226
0.378206
0.302987
0.309309
0.296003
0.256471
0.205851
0.154748
0.110221
0.0750196
0.0492221
0.0317815
0.376655
0.289663
0.295112
0.287916
0.257513
0.214186
0.167065
0.123344
0.0869413
0.0590542
0.0393173
0.377277
0.277227
0.280332
0.278488
0.257377
0.222468
0.180823
0.139228
0.102432
0.0727359
0.0506058
0.381261
0.265727
0.264743
0.267087
0.25496
0.229335
0.194856
0.157341
0.121804
0.091347
0.0673506
0.391271
0.254966
0.247966
0.25261
0.248287
0.232213
0.206553
0.175661
0.144062
0.115104
0.0907264
0.411408
0.244546
0.230238
0.236017
0.238381
0.231382
0.215134
0.19259
0.16744
0.142765
0.120629
0.435502
0.227486
0.221905
0.225059
0.229561
0.229678
0.22367
0.212226
0.197319
0.180924
0.164858
0.321228
0.456633
0.3831
0.285441
0.197528
0.130647
0.084537
0.0544147
0.0352505
0.0232777
0.0160841
0.211915
0.328809
0.309159
0.252274
0.186556
0.128979
0.0853799
0.0551745
0.0353861
0.0228854
0.0155276
0.16098
0.267843
0.270437
0.239716
0.189135
0.136627
0.0928093
0.0604161
0.0380719
0.0238444
0.0156092
0.133587
0.2258
0.238011
0.223097
0.186513
0.141282
0.0985187
0.0643737
0.0402721
0.0248612
0.015941
0.117775
0.197797
0.2147
0.207311
0.178717
0.139257
0.0992402
0.0657519
0.0413153
0.0253719
0.016063
0.1073
0.177233
0.196837
0.193392
0.169525
0.134449
0.0974581
0.0655398
0.0416261
0.025647
0.0161703
0.0995207
0.162124
0.183121
0.181776
0.160824
0.128854
0.0944682
0.0644032
0.0415067
0.0258425
0.0162489
0.0951171
0.152033
0.172815
0.172224
0.153154
0.123343
0.0910053
0.0626811
0.0409744
0.0258676
0.0165245
0.0920716
0.145036
0.165037
0.164709
0.14687
0.118491
0.0876463
0.0607655
0.0402181
0.0257795
0.0166717
0.0895861
0.139775
0.159161
0.159053
0.142106
0.114703
0.0848505
0.059009
0.0394177
0.0256109
0.0167127
0.0874949
0.135711
0.154682
0.154859
0.138658
0.111969
0.0827333
0.0575586
0.0386684
0.0253828
0.0168094
0.0860814
0.132713
0.151243
0.151689
0.136149
0.110065
0.0812406
0.0564634
0.038054
0.0251681
0.0168004
0.085022
0.130287
0.14849
0.149308
0.134477
0.10899
0.0804403
0.0558255
0.0376772
0.025055
0.0168779
0.0837909
0.128017
0.146162
0.147595
0.133652
0.108835
0.0804634
0.0557752
0.0376471
0.0251221
0.0171153
0.0828115
0.126042
0.1441
0.146275
0.133409
0.109443
0.0812885
0.0563784
0.038059
0.0254613
0.0174528
0.0819559
0.124023
0.142106
0.145226
0.133721
0.110896
0.0830773
0.0578201
0.0390737
0.0261793
0.0180242
0.0811283
0.121489
0.139837
0.144241
0.134583
0.113394
0.0861656
0.060426
0.0409494
0.0274196
0.0189019
0.0802721
0.118705
0.137239
0.14297
0.135428
0.116437
0.0904929
0.0646169
0.0441708
0.029562
0.0202806
0.0793681
0.115445
0.134102
0.141225
0.136114
0.119949
0.0960891
0.0705845
0.0491029
0.0330284
0.0223977
0.0783717
0.111395
0.130132
0.138731
0.136391
0.123719
0.10289
0.07862
0.0563499
0.0384875
0.0258402
0.0772059
0.106223
0.124963
0.135112
0.135858
0.127323
0.110574
0.0887664
0.0664913
0.0468451
0.0315823
0.0760651
0.0998346
0.118388
0.129972
0.133928
0.129997
0.118309
0.100465
0.0796869
0.059067
0.0409219
0.0734322
0.0902444
0.108368
0.121635
0.129013
0.129958
0.124071
0.111753
0.0946781
0.0751747
0.055429
0.0777476
0.0898006
0.107763
0.11927
0.126102
0.128428
0.126102
0.119028
0.107455
0.0921007
0.0742139
0.307146
0.51653
0.405127
0.33175
0.243723
0.161302
0.10175
0.0638238
0.0403938
0.0261001
0.0176587
0.266998
0.401648
0.382502
0.342869
0.281058
0.198388
0.129286
0.0813759
0.0505949
0.0315562
0.0203553
0.202026
0.300655
0.337729
0.327823
0.291489
0.226585
0.155964
0.102032
0.0642892
0.0398138
0.0251437
0.124259
0.253456
0.299178
0.306547
0.287031
0.241353
0.178386
0.122872
0.0801673
0.0504684
0.0322538
0.108197
0.279688
0.290706
0.293085
0.279395
0.245751
0.196082
0.142398
0.0975407
0.0631411
0.0404352
0.132307
0.329474
0.311588
0.294147
0.274635
0.2456
0.206392
0.160697
0.115926
0.0778789
0.0504373
0.153942
0.403886
0.372755
0.318819
0.277965
0.244647
0.211224
0.175418
0.134595
0.0947308
0.0628203
0.159908
0.42108
0.443004
0.366483
0.292169
0.245203
0.212691
0.185051
0.152593
0.113149
0.076948
0.158452
0.406609
0.488801
0.42473
0.315619
0.247904
0.212233
0.190945
0.167676
0.132602
0.093688
0.156738
0.391614
0.509003
0.47746
0.342617
0.251662
0.210625
0.194386
0.17979
0.151309
0.11321
0.155366
0.374351
0.505382
0.507373
0.366353
0.25508
0.208446
0.196545
0.189917
0.168268
0.133293
0.154383
0.360843
0.479516
0.507516
0.383913
0.257676
0.20628
0.198437
0.198894
0.183824
0.152016
0.151391
0.345318
0.452164
0.485038
0.395214
0.260844
0.205125
0.200932
0.207304
0.198074
0.169118
0.145853
0.32756
0.424445
0.458449
0.39726
0.267544
0.206446
0.204728
0.215495
0.210935
0.185639
0.138075
0.308156
0.39709
0.432868
0.393106
0.277636
0.211376
0.210386
0.223686
0.222368
0.200719
0.128462
0.287243
0.369895
0.408719
0.386891
0.289132
0.220651
0.218314
0.231951
0.232377
0.213144
0.117087
0.264188
0.342063
0.384779
0.378911
0.300111
0.234217
0.228703
0.240197
0.240858
0.223843
0.1044
0.239935
0.313297
0.359234
0.366938
0.308723
0.250851
0.241341
0.248329
0.247673
0.233005
0.0910935
0.215507
0.283356
0.330992
0.348492
0.312906
0.268018
0.255228
0.256143
0.25283
0.239695
0.0793993
0.191609
0.252595
0.299528
0.323965
0.309955
0.281585
0.268037
0.262988
0.256729
0.245407
0.068534
0.166741
0.221039
0.264176
0.291995
0.295551
0.283693
0.272883
0.264896
0.258943
0.252303
0.0614331
0.149611
0.191544
0.227252
0.253861
0.266094
0.265594
0.260485
0.255079
0.245739
0.216641
0.0597692
0.131478
0.164108
0.186582
0.200925
0.204662
0.199059
0.186051
0.16625
0.142644
0.121201
0.0708796
0.0845687
0.0932069
0.102317
0.109878
0.116187
0.119637
0.119231
0.114395
0.105313
0.0925797
0.261607
0.267754
0.259961
0.255029
0.255745
0.250531
0.238582
0.210627
0.155163
0.371328
0.400758
0.389301
0.355791
0.336202
0.310468
0.269238
0.221778
0.172857
0.317383
0.339019
0.336739
0.314819
0.2899
0.269192
0.258683
0.23957
0.197806
0.232504
0.238955
0.240922
0.234106
0.214974
0.208666
0.208576
0.206187
0.189556
0.25533
0.242589
0.221884
0.183204
0.104561
0.0744765
0.0770033
0.0725805
0.074186
0.351165
0.31493
0.263456
0.209452
0.170555
0.144989
0.117398
0.12296
0.157985
0.295668
0.280575
0.267018
0.236633
0.194676
0.160216
0.138663
0.14318
0.160469
0.222168
0.215173
0.214773
0.210294
0.189458
0.16429
0.166084
0.167298
0.161846
0.0049311
0.00618885
0.00578739
0.00546667
0.00510749
0.00567511
0.0054451
0.00670618
0.00554986
0.00589365
0.00505162
0.00703929
0.00506357
0.00510898
0.00490947
0.00492773
0.00546706
0.00539125
0.00496884
0.00522112
0.00518138
0.00534838
0.00469788
0.00571107
0.00587564
0.00504951
0.005117
0.0054281
0.00687351
0.0050002
0.00531576
0.00514408
0.00575467
0.0057827
0.00506839
0.00650552
0.00569067
0.00583184
0.00526112
0.00552987
0.00509532
0.00588324
0.00477208
0.00471764
0.00514555
0.00621714
0.00524797
0.0102379
0.00521242
0.00524162
0.00506074
0.00554903
0.00528006
0.00476501
0.00518296
0.00510383
0.00524004
0.00556721
0.00677633
0.00501514
0.00544706
0.00550239
0.00495715
0.00502839
0.00495127
0.00522115
0.00508982
0.00528912
0.00623036
0.0057319
0.00529659
0.0048646
0.00515181
0.00630964
0.00578578
0.00481198
0.0053095
0.00603114
0.00497016
0.00578036
0.00552726
0.00507776
0.0054945
0.00518971
0.00519214
0.0051658
0.0346772
0.00640438
0.0051518
0.00573859
0.00681622
0.00557148
0.00501896
0.00504031
0.00573416
0.015462
0.00544138
0.00503074
0.00502673
0.00527858
0.00556417
0.00815346
0.00546399
0.00476799
0.00514329
0.00609185
0.00553015
0.00486733
0.00529755
0.00541284
0.00699739
0.00596785
0.00615417
0.00507456
0.00539399
0.00495652
0.00541951
0.00516611
0.0056441
0.00529528
0.00491253
0.00612577
0.00552573
0.00527266
0.00571278
0.00516202
0.00659546
0.00540354
0.00533717
0.0050592
0.00509777
0.0050168
0.00915603
0.00479473
0.00569526
0.0056169
0.00525843
0.00504927
0.00505128
0.00525788
0.00483264
0.00539602
0.00523673
0.00480363
0.00536906
0.00543491
0.00585689
0.00531389
0.00558229
0.00535837
0.00517931
0.00547312
0.00510531
0.00639353
0.00564455
0.00500797
0.00506149
0.00530826
0.00474445
0.00569344
0.00473501
0.00549094
0.00485391
0.00538625
0.00477554
0.00505259
0.00520807
0.00609981
0.00568406
0.00494338
0.00642096
0.00536454
0.00617492
0.00507505
0.00509673
0.00477589
0.00512484
0.00530349
0.00519121
0.0048863
0.0056173
0.00531215
0.00472468
0.00553769
0.00574758
0.00541162
0.00502062
0.00514012
0.00614843
0.00517822
0.00529744
0.00520611
0.00517804
0.00510079
0.00590964
0.00547473
0.00603673
0.00499595
0.00514303
0.0046893
0.00498908
0.00585085
0.0050137
0.00512709
0.00525551
0.00643566
0.00500869
0.00540359
0.00557794
0.00499775
0.00585804
0.00543696
0.00516586
0.00496057
0.00575818
0.00528772
0.00678218
0.00543708
0.00522776
0.00506707
0.00532291
0.00507055
0.00546426
0.00526223
0.005372
0.0057061
0.00582726
0.00526231
0.00527582
0.00493796
0.00519481
0.00525738
0.00509728
0.00565926
0.00531592
0.0200696
0.00491195
0.00481225
0.00610941
0.00597421
0.00540705
0.00597168
0.00475523
0.00514441
0.00500124
0.00563916
0.00547444
0.00520016
0.00794976
0.00553358
0.00514217
0.00586066
0.00524286
0.00502384
0.0051385
0.00610189
0.00507288
0.00574373
0.0048313
0.00500895
0.00495458
0.00543826
0.00496682
0.00650286
0.00636745
0.00510216
0.00535941
0.00620753
0.00503011
0.00491832
0.00560611
0.005669
0.00575088
0.00524185
0.00558306
0.00519277
0.00498406
0.00515664
0.00527931
0.00517225
0.00497724
0.00667603
0.00552936
0.00501367
0.00508051
0.00574028
0.00625153
0.00613577
0.00522492
0.00487161
0.00539732
0.00527098
0.00692849
0.00515322
0.00469634
0.00546588
0.0056434
0.0069697
0.00500819
0.00498297
0.00545892
0.0048096
0.00520677
0.00501129
0.00513566
0.00547578
0.00579335
0.00491656
0.00527708
0.00513402
0.00525977
0.00621072
0.00562418
0.00573126
0.00560942
0.00505042
0.00484076
0.00480017
0.0049684
0.00551174
0.00514017
0.00557826
0.0052117
0.00488958
0.00496696
0.00550411
0.00544802
0.00493583
0.0053154
0.00488778
0.0055994
0.00497572
0.00522583
0.00474371
0.00503264
0.0100108
0.00501458
0.00621712
0.00548987
0.00492667
0.00588548
0.00583346
0.00572051
0.00562889
0.00548967
0.00491219
0.00494726
0.00514757
0.00567852
0.00542139
0.00546425
0.00528541
0.004971
0.00523117
0.00476871
0.0046926
0.00532793
0.00496356
0.00470184
0.00489163
0.00494014
0.00509356
0.00689567
0.00566807
0.0057927
0.00530246
0.00547602
0.00501749
0.00568776
0.00555354
0.00515186
0.00595269
0.00899225
0.00509045
0.00525127
0.00595678
0.00496002
0.00518166
0.00575922
0.00534681
0.00528599
0.00540718
0.00522489
0.00528169
0.00531693
0.00497204
0.00485592
0.00545483
0.00590328
0.00525628
0.00545786
0.00535895
0.0050724
0.00540721
0.00502217
0.00496381
0.0055902
0.00523405
0.00561708
0.00533166
0.00486163
0.00491429
0.00469781
0.00487128
0.0060624
0.0051059
0.00496229
0.00492987
0.00579837
0.00555651
0.00522582
0.00496832
0.00500508
0.00497399
0.00523848
0.00539433
0.00524334
0.00583414
0.0052657
0.00521141
0.00544115
0.00496045
0.00553575
0.00506448
0.00485842
0.00535014
0.00646991
0.00527968
0.00572741
0.00503742
0.00537014
0.0054359
0.00513617
0.00491208
0.00556926
0.00501914
0.00490805
0.00538476
0.00522561
0.00469511
0.00497527
0.0336355
0.0049241
0.00484409
0.0054535
0.00515146
0.0050619
0.00571647
0.00531486
0.00616142
0.00548862
0.00547882
0.00637169
0.00509763
0.00584114
0.0057913
0.00652933
0.00503654
0.0049513
0.00619951
0.00540348
0.00634175
0.00479638
0.00521455
0.0051491
0.00655805
0.00573243
0.00546503
0.00547733
0.0056818
0.00482812
0.00504176
0.00527459
0.00540946
0.0051362
0.00605355
0.00562263
0.00546757
0.00569215
0.00503531
0.00594162
0.00505454
0.00494909
0.00528262
0.00478115
0.00516049
0.00546524
0.00474166
0.00502743
0.00562533
0.00522325
0.00534806
0.00519454
0.00536656
0.00539518
0.00472438
0.00527646
0.00518537
0.00508333
0.00614494
0.00522547
0.00489422
0.00623919
0.0068935
0.00632316
0.0050207
0.00491242
0.00555814
0.00693282
0.00544198
0.00549997
0.00487403
0.00524391
0.00512529
0.00567452
0.00503441
0.00545948
0.00507712
0.00547025
0.00480208
0.00495356
0.00690209
0.00539001
0.0065097
0.0055029
0.00536043
0.00584879
0.00575573
0.00517114
0.00546143
0.00527011
0.00538053
0.00513509
0.00531
0.0053671
0.00473702
0.00581582
0.00514424
0.00507615
0.00549239
0.0053934
0.00570296
0.00531583
0.00536223
0.00499337
0.00562614
0.0050247
0.00520975
0.00512169
0.00493912
0.00484827
0.00717405
0.00543087
0.00522094
0.00531029
0.00589646
0.00817488
0.0050055
0.00604915
0.00524762
0.00501486
0.00560249
0.020159
0.00566375
0.00552829
0.00615869
0.00506584
0.00483718
0.00510789
0.00584521
0.00522535
0.00500075
0.00530929
0.00519771
0.00501947
0.00502904
0.00515919
0.00558006
0.00480629
0.00563796
0.00554063
0.00592338
0.00600916
0.00502929
0.00506259
0.00569767
0.00513988
0.00529719
0.00468449
0.00580101
0.00558888
0.00490565
0.00593282
0.00546966
0.0052339
0.00591957
0.00493434
0.00487542
0.00554061
0.00566323
0.0133689
0.00500413
0.00526003
0.00525446
0.00574911
0.00533335
0.00502141
0.00513962
0.00503966
0.0048963
0.00551056
0.00507167
0.00550152
0.00508391
0.00528577
0.00521804
0.00532268
0.00567625
0.00472204
0.00551299
0.00889736
0.00579412
0.00536724
0.00533879
0.00527209
0.00549788
0.00522151
0.00510148
0.00590521
0.00595701
0.00508539
0.00504808
0.00499848
0.00554239
0.00502625
0.00537221
0.00533776
0.00524117
0.00544359
0.00472605
0.00524792
0.00535174
0.00501194
0.00535029
0.00546273
0.00490169
0.0050269
0.00528587
0.00634809
0.0051398
0.00480927
0.00725318
0.00492472
0.00531055
0.00527938
0.00529788
0.00687322
0.00517696
0.00513094
0.00504303
0.00489412
0.00537281
0.00557309
0.00873969
0.00723244
0.00499677
0.00495486
0.00473714
0.00522681
0.00504484
0.00513924
0.00544638
0.00508658
0.00578638
0.00500367
0.00532027
0.00564279
0.0050465
0.00473955
0.00587081
0.00555628
0.00543706
0.00874193
0.00476953
0.00518787
0.00503439
0.00517992
0.00480499
0.00507732
0.00570095
0.00516454
0.00552738
0.00516135
0.00486826
0.00535471
0.00552357
0.00578433
0.00535643
0.00545994
0.00515379
0.00539317
0.00704618
0.0048765
0.00552313
0.0052339
0.00473192
0.00531299
0.0055443
0.00509053
0.0049558
0.00522647
0.00501152
0.00497528
0.00579205
0.00590491
0.00548039
0.00537736
0.00521281
0.00534049
0.00571026
0.00519625
0.00549712
0.00538063
0.00514012
0.00533752
0.00593571
0.00530256
0.0051795
0.00621251
0.00572467
0.00493832
0.0049986
0.00527972
0.00490218
0.00488043
0.00527251
0.00524985
0.00509269
0.0062382
0.00484472
0.00823658
0.00512783
0.00552587
0.00646492
0.00537806
0.00486451
0.00606729
0.0050398
0.0051283
0.00516386
0.00509584
0.00486694
0.00501666
0.0049317
0.00658794
0.00578147
0.0049604
0.00508113
0.00500749
0.00586884
0.00520313
0.00513145
0.00489541
0.00648658
0.00591486
0.00559224
0.0050034
0.00499603
0.00523849
0.00531999
0.00640078
0.0054847
0.00494524
0.00551299
0.00520224
0.00519909
0.00524628
0.00485825
0.00521779
0.00469476
0.00554638
0.00549477
0.00554444
0.00586566
0.00496174
0.00856211
0.00516294
0.00683044
0.00555474
0.00627855
0.00497703
0.0052598
0.00502701
0.00515513
0.0053304
0.00610463
0.00508369
0.00589126
0.00534533
0.0059154
0.00499624
0.00551481
0.00595683
0.00529339
0.00490194
0.00646398
0.00551115
0.005291
0.00498229
0.00548797
0.00512836
0.00513989
0.0055579
0.00546124
0.00743063
0.00610859
0.00567416
0.00490196
0.00503174
0.00647647
0.00476926
0.00505805
0.00519005
0.00786381
0.00565953
0.00517508
0.00534653
0.00517933
0.00489664
0.00518358
0.00532376
0.00510072
0.00499221
0.00578931
0.00550508
0.0056898
0.00581433
0.00683294
0.00525374
0.00484273
0.0052548
0.00582843
0.00490446
0.00641636
0.00521064
0.00470255
0.00573651
0.00550726
0.00584779
0.00507008
0.00552015
0.00481956
0.00569563
0.00499772
0.00499976
0.0054596
0.00555984
0.00470021
0.00536568
0.00556307
0.00674408
0.00595715
0.00730029
0.00510275
0.0412027
0.0053464
0.00537952
0.00547195
0.00515973
0.00531423
0.0065686
0.0050549
0.0308242
0.00538675
0.00552667
0.00525359
0.00519045
0.00541641
0.00651222
0.00589199
0.00487706
0.00503964
0.00597747
0.00513212
0.00519566
0.00544258
0.00496206
0.00695555
0.0050679
0.00532375
0.00564051
0.0055226
0.00546326
0.00569999
0.00509763
0.00534851
0.0053893
0.00589998
0.00542555
0.00494879
0.00502123
0.00535935
0.0047015
0.00935019
0.00524672
0.00599841
0.00501114
0.00539656
0.00523983
0.00607629
0.00501142
0.00536535
0.00551425
0.00505961
0.00523984
0.00505132
0.00501349
0.00629488
0.00544555
0.00528194
0.00686272
0.00557913
0.00547061
0.00662635
0.00529957
0.00535392
0.00525962
0.00610314
0.00500856
0.00502323
0.00553473
0.00557362
0.00497747
0.0050736
0.00531135
0.00550814
0.00672266
0.00706674
0.00587138
0.00564561
0.00519077
0.00552864
0.00580087
0.0049843
0.00492025
0.00593199
0.00506321
0.00484451
0.00554697
0.00521101
0.00579686
0.0051755
0.00531252
0.00511814
0.00551971
0.00606499
0.00516033
0.00569544
0.00532382
0.00508989
0.00535398
0.00511944
0.00576558
0.00499574
0.00551402
0.00636263
0.0050942
0.00493105
0.00484906
0.00524777
0.00497521
0.00499391
0.00500779
0.00557256
0.00578292
0.00510042
0.0051755
0.00498065
0.0067446
0.0165867
0.00563104
0.0166757
0.00665362
0.00480797
0.00544433
0.00523353
0.00484967
0.00498993
0.00469956
0.00554402
0.00492066
0.00628545
0.00517315
0.00535543
0.00551415
0.00552539
0.00479283
0.00547699
0.00539929
0.00514937
0.00525136
0.00500455
0.00494424
0.00516596
0.00483982
0.00664921
0.00542116
0.00502131
0.00487361
0.00583648
0.00514391
0.00498358
0.00493681
0.00558604
0.00619463
0.00583957
0.00469317
0.00551319
0.00527322
0.00605762
0.00527664
0.00499357
0.0053793
0.00793105
0.00538503
0.00526821
0.00497026
0.00500718
0.00543108
0.00617074
0.00524659
0.00570915
0.00542738
0.00524632
0.00515593
0.00498398
0.00615692
0.00529227
0.00568863
0.00582513
0.00490177
0.00552701
0.00495839
0.00518188
0.00515329
0.00550633
0.00516717
0.00591346
0.00481307
0.00508855
0.00492421
0.00573245
0.00505681
0.00532263
0.00529834
0.00532427
0.00564954
0.00564229
0.00702067
0.00546775
0.00469838
0.00604123
0.00532597
0.00578627
0.0052502
0.00582721
0.0056491
0.00525973
0.00515218
0.00547672
0.00541396
0.00502111
0.00529426
0.00504537
0.00490759
0.00664194
0.00532167
0.00531114
0.00497041
0.00517377
0.00506493
0.00511028
0.00512557
0.00499996
0.00515041
0.00523778
0.00573169
0.00545533
0.00532031
0.0130942
0.00504356
0.00489376
0.00489787
0.00520843
0.00587162
0.00533708
0.00551517
0.00539429
0.00551699
0.00521312
0.00516001
0.00524799
0.00499362
0.00521784
0.00550274
0.00626466
0.00488584
0.00543436
0.00646784
0.00503105
0.00618357
0.00501417
0.00530931
0.00551599
0.0109306
0.0047764
0.00501311
0.00498306
0.00476852
0.00488464
0.00508139
0.00633305
0.00620602
0.00497247
0.00518381
0.0049911
0.00500933
0.00542985
0.00503862
0.00500058
0.00560014
0.00505623
0.00495601
0.00512229
0.00522904
0.00495087
0.00549837
0.00521371
0.00532012
0.0050756
0.004694
0.00554918
0.00531696
0.00598451
0.00512001
0.00590837
0.00596204
0.00596393
0.00515703
0.00516741
0.00571214
0.00615834
0.00528488
0.00527826
0.00740066
0.00537637
0.00734464
0.00499909
0.0120261
0.00563317
0.00484134
0.00497296
0.00660495
0.00612081
0.00486287
0.00587852
0.00529033
0.0050451
0.00530203
0.00535447
0.00519192
0.00559254
0.00494632
0.00498736
0.00528829
0.00546478
0.00544498
0.00556387
0.00483092
0.00516198
0.00516787
0.00555928
0.00496273
0.0056218
0.00477964
0.00504873
0.00597582
0.00574811
0.00508089
0.00621874
0.00531537
0.00535763
0.00579378
0.00536536
0.00567056
0.00576836
0.00541564
0.00561719
0.00499416
0.00526279
0.00542872
0.00608336
0.00545081
0.00489658
0.00511469
0.00503303
0.00511772
0.00530838
0.00569832
0.0066939
0.00469664
0.00516462
0.00550465
0.00519555
0.00580081
0.00683169
0.00547569
0.00510979
0.00506948
0.00576966
0.00605972
0.00477122
0.00494561
0.00599081
0.00664373
0.00550046
0.00492036
0.00555282
0.00537318
0.00526052
0.00557879
0.00486806
0.0054357
0.00527239
0.00518603
0.00559318
0.00574361
0.00469957
0.00531592
0.00521823
0.00509261
0.00494164
0.0049317
0.00508768
0.00508639
0.00617467
0.00559113
0.00524939
0.00503894
0.00547579
0.00469766
0.00517456
0.00521137
0.00505077
0.00504754
0.00562863
0.00526357
0.00532549
0.00522443
0.00552502
0.0052405
0.00575783
0.00608917
0.00590152
0.00575009
0.00505498
0.00550454
0.00543029
0.0052743
0.00487215
0.00495242
0.00562124
0.00548605
0.00535616
0.00597329
0.00526628
0.00565823
0.0051005
0.00555074
0.00488037
0.00620074
0.00565168
0.00521863
0.00550617
0.00558095
0.00546517
0.0053985