/*--------------------------------*- C++ -*----------------------------------*\
| =========                 |                                                 |
| \\      /  F ield         | OpenFOAM: The Open Source CFD Toolbox           |
|  \\    /   O peration     | Version:  3.0.1                                 |
|   \\  /    A nd           | Web:      www.OpenFOAM.org                      |
|    \\/     M anipulation  |                                                 |
\*---------------------------------------------------------------------------*/
FoamFile
{
    version     2.0;
    format      ascii;
    class       volVectorField;
    location    "0.368642";
    object      U;
}
// * * * * * * * * * * * * * * * * * * * * * * * * * * * * * * * * * * * * * //

dimensions      [0 1 -1 0 0 0 0];

internalField   nonuniform List<vector> 
21246
(
(-1.74721 -1.96537 -1.07359e-18)
(-1.00555 -1.72566 0)
(0.0754305 -1.41355 0)
(0.819471 -1.09368 0)
(1.30538 -0.819611 0)
(1.63094 -0.588366 -2.70856e-18)
(1.85724 -0.397983 1.32033e-18)
(2.02178 -0.244767 6.89413e-19)
(2.14539 -0.123776 -1.38985e-18)
(2.23694 -0.0299842 5.57945e-19)
(2.29754 0.0390148 3.08156e-19)
(-1.64024 1.18367 2.03223e-18)
(-0.833527 0.618763 0)
(-0.333197 0.284974 0)
(0.244708 -0.012527 2.82418e-18)
(0.773752 -0.157529 -2.99695e-18)
(1.21535 -0.187152 3.05158e-18)
(1.55673 -0.145139 -5.98347e-19)
(1.8114 -0.0756896 1.30442e-19)
(1.99851 -0.00385046 -2.59451e-19)
(2.13403 0.0585632 -1.28533e-19)
(2.22522 0.106199 -1.67138e-19)
(-0.734126 2.20028 -9.94613e-18)
(0.223625 1.47896 1.58107e-17)
(0.142085 1.34254 -1.3747e-17)
(0.41505 0.918713 1.05717e-17)
(0.724755 0.597279 -4.91694e-18)
(1.08011 0.362505 -2.91965e-19)
(1.40215 0.237595 -1.47919e-18)
(1.67638 0.18611 1.35313e-18)
(1.89492 0.177208 1.51981e-19)
(2.06152 0.187333 1.71553e-19)
(2.17873 0.201714 -9.87957e-20)
(0.180185 2.40102 -6.59761e-20)
(1.21843 1.76958 1.86165e-19)
(0.850003 1.90687 0)
(0.946143 1.49489 0)
(1.02294 1.17755 -2.6567e-18)
(1.21748 0.863983 4.42796e-18)
(1.43454 0.636385 -1.35901e-18)
(1.6578 0.483925 6.40185e-19)
(1.85895 0.392932 -8.0324e-19)
(2.0254 0.342384 -5.97309e-19)
(2.14983 0.314751 6.18812e-19)
(0.883046 2.23721 7.31311e-20)
(1.89856 1.79192 0)
(1.49438 2.08804 0)
(1.55059 1.72409 -1.55866e-19)
(1.45786 1.51176 -1.38832e-19)
(1.51809 1.21081 -1.49196e-18)
(1.61611 0.957521 -1.23318e-18)
(1.7554 0.753602 1.30635e-18)
(1.90602 0.606052 0)
(2.04829 0.505455 2.39943e-19)
(2.16491 0.440915 -5.4097e-19)
(1.37252 1.92628 -6.89584e-20)
(2.34324 1.68229 0)
(1.96715 2.04117 -2.42414e-19)
(2.05298 1.73744 4.11514e-19)
(1.88317 1.63465 -1.01159e-18)
(1.86418 1.38691 4.26415e-19)
(1.87038 1.16098 0)
(1.92876 0.952627 3.50876e-19)
(2.01727 0.782555 0)
(2.11804 0.652643 -1.49048e-18)
(2.20827 0.561452 5.12937e-19)
(1.65821 1.59764 2.50789e-18)
(2.63515 1.5154 -1.74496e-18)
(2.30529 1.87978 0)
(2.40622 1.65179 -1.7758e-20)
(2.23113 1.61796 4.34612e-19)
(2.17902 1.42968 -1.64695e-19)
(2.13067 1.25315 0)
(2.13042 1.0687 0)
(2.16453 0.903567 0)
(2.2222 0.765632 4.5944e-19)
(2.28291 0.661173 0)
(1.80109 1.34161 2.12561e-18)
(2.79202 1.35835 -2.07314e-18)
(2.54238 1.69346 0)
(2.64614 1.52132 1.75802e-19)
(2.48873 1.53062 -1.76798e-19)
(2.43107 1.39102 -3.81364e-19)
(2.35833 1.26359 4.20014e-19)
(2.32387 1.11302 -6.3111e-19)
(2.31897 0.968525 9.24523e-19)
(2.3405 0.838084 -8.97255e-20)
(2.3704 0.733443 -3.63009e-20)
(1.88888 1.14766 1.56455e-18)
(2.88187 1.21099 0)
(2.70145 1.52172 0)
(2.80803 1.38162 0)
(2.67148 1.41688 1.1409e-19)
(2.6196 1.31149 0)
(2.54005 1.22418 1.05879e-19)
(2.4897 1.1062 3.13802e-19)
(2.46119 0.987568 3.46442e-19)
(2.45719 0.872785 -9.49061e-19)
(2.46404 0.776372 -5.47875e-19)
(1.92898 0.961238 1.03686e-18)
(2.94342 1.05254 -1.96111e-18)
(2.80882 1.36061 2.10194e-18)
(2.91844 1.24198 -7.7352e-19)
(2.79868 1.29747 5.55145e-20)
(2.75582 1.21532 -1.06151e-19)
(2.67752 1.15932 -1.22647e-19)
(2.62234 1.06852 -6.02281e-19)
(2.58191 0.975134 -7.26887e-20)
(2.56301 0.878869 -2.99119e-19)
(2.55578 0.79594 8.09407e-19)
(1.89473 0.7689 -2.11464e-19)
(2.95969 0.895989 9.886e-19)
(2.86799 1.21184 -9.4152e-19)
(2.98738 1.10791 4.1608e-19)
(2.88262 1.18186 -3.1379e-19)
(2.85066 1.11545 2.39415e-20)
(2.77736 1.08438 -1.85527e-20)
(2.72345 1.01497 -2.13528e-19)
(2.67851 0.944242 -2.70655e-20)
(2.65232 0.866013 0)
(2.63719 0.7974 -3.33727e-20)
(1.8195 0.611754 1.06087e-18)
(2.93385 0.77879 0)
(2.88636 1.09037 -1.88716e-19)
(3.02107 0.99057 2.57123e-20)
(2.93146 1.07787 -8.71324e-20)
(2.9122 1.02007 0)
(2.846 1.0088 0)
(2.79701 0.955337 0)
(2.75213 0.904041 2.11576e-20)
(2.72344 0.841982 -3.71889e-19)
(2.70426 0.787745 -3.4335e-19)
(1.75449 0.492862 -6.5196e-19)
(2.8975 0.683125 0)
(2.88583 0.991101 5.0452e-19)
(3.03441 0.890069 -2.43094e-19)
(2.95547 0.988897 8.64933e-20)
(2.94885 0.933325 2.25442e-21)
(2.8898 0.938436 1.12037e-19)
(2.84754 0.895927 -2.55374e-19)
(2.80552 0.8612 1.31132e-19)
(2.77806 0.812561 1.85862e-19)
(2.75858 0.77168 -2.4135e-19)
(1.6806 0.379387 -3.62662e-20)
(2.84276 0.583669 2.0835e-19)
(2.87519 0.893621 -2.35196e-19)
(3.0323 0.802895 0)
(2.96437 0.90978 6.20349e-21)
(2.96744 0.856444 1.98028e-20)
(2.91509 0.875116 0)
(2.8798 0.840539 0)
(2.84202 0.820437 1.63605e-19)
(2.81809 0.782867 3.24477e-19)
(2.80144 0.753844 1.51324e-19)
(1.58162 0.28574 2.41823e-19)
(2.76605 0.506717 9.53131e-20)
(2.84942 0.810914 -6.2354e-20)
(3.01593 0.730399 -3.53448e-20)
(2.96192 0.838655 4.41894e-20)
(2.97143 0.789912 -5.921e-20)
(2.92611 0.817989 0)
(2.89698 0.791194 -5.32112e-20)
(2.86459 0.783337 9.68556e-20)
(2.84549 0.756108 0)
(2.83366 0.737522 4.09522e-19)
(1.49461 0.212106 -7.19231e-20)
(2.6832 0.44422 8.35309e-21)
(2.81582 0.736924 9.75311e-21)
(2.98886 0.669188 9.86271e-20)
(2.9504 0.773552 3.39147e-20)
(2.96314 0.732609 -8.63181e-20)
(2.92535 0.766866 -1.52154e-19)
(2.9016 0.749023 1.40241e-19)
(2.87561 0.751533 1.17745e-19)
(2.86242 0.734065 1.38513e-20)
(2.85726 0.723475 -3.00678e-19)
(1.40524 0.14192 4.02628e-21)
(2.58456 0.375731 8.5992e-21)
(2.77179 0.658066 -9.56015e-20)
(2.95018 0.611778 7.47696e-20)
(2.92961 0.710008 8.38869e-21)
(2.943 0.682317 -9.57391e-21)
(2.91302 0.72151 1.75491e-20)
(2.89527 0.714712 -1.31063e-19)
(2.8768 0.726445 1.431e-19)
(2.87088 0.718645 0)
(2.87371 0.714785 2.09711e-19)
(1.28638 0.0876576 2.2757e-19)
(2.45581 0.319249 -2.38495e-20)
(2.70634 0.582589 6.72638e-20)
(2.89347 0.556612 -1.78452e-19)
(2.89348 0.647661 -7.84651e-20)
(2.90961 0.637227 -7.06677e-20)
(2.88843 0.682952 0)
(2.87839 0.689768 0)
(2.86964 0.70947 -2.38658e-19)
(2.87271 0.710854 4.99494e-20)
(2.8845 0.712041 1.12659e-19)
(1.14174 0.0585475 -4.29766e-19)
(2.29096 0.28457 3.37371e-20)
(2.60848 0.513353 2.13746e-19)
(2.8067 0.501085 -1.84058e-20)
(2.83266 0.589331 8.0972e-20)
(2.85784 0.600392 2.56084e-19)
(2.85044 0.652987 1.43373e-19)
(2.85153 0.675303 -2.18129e-19)
(2.85567 0.702216 -1.5699e-20)
(2.86975 0.711302 -2.22432e-19)
(2.89159 0.715258 -1.48366e-19)
(0.963527 0.0622581 2.50507e-19)
(2.07108 0.276851 -3.4747e-19)
(2.45219 0.452564 1.55088e-19)
(2.66678 0.451223 2.67601e-20)
(2.73326 0.545142 -2.66988e-19)
(2.77994 0.57785 -3.24401e-19)
(2.79644 0.636363 -1.47768e-19)
(2.8156 0.672763 2.8135e-19)
(2.83642 0.705291 1.17209e-19)
(2.86344 0.719936 2.25001e-19)
(2.89607 0.725373 3.11456e-19)
(0.718486 0.105784 6.23363e-19)
(1.7658 0.285766 -1.07244e-18)
(2.19694 0.412717 -9.02442e-19)
(2.45204 0.428226 2.65528e-19)
(2.57414 0.541516 0)
(2.66345 0.584751 2.1656e-19)
(2.72098 0.640811 -3.9441e-19)
(2.76909 0.683085 0)
(2.81126 0.717335 0)
(2.85313 0.734843 -2.31936e-19)
(2.89687 0.740742 -6.09995e-19)
(0.481834 0.142562 5.53078e-19)
(1.40578 0.278282 1.02086e-18)
(1.86642 0.39731 7.30139e-19)
(2.16477 0.45951 3.73454e-19)
(2.34375 0.593582 8.08151e-20)
(2.4954 0.641744 6.97941e-19)
(2.61278 0.679377 2.83389e-19)
(2.70275 0.708493 7.66512e-19)
(2.77252 0.735068 -2.15097e-19)
(2.83247 0.751635 5.16063e-19)
(2.88936 0.759555 6.44887e-19)
(0.0950089 0.200424 -4.99275e-18)
(0.983862 0.158028 -7.68647e-19)
(1.43112 0.395456 1.15667e-18)
(1.76736 0.513937 -4.27668e-19)
(2.02746 0.680948 0)
(2.26141 0.749076 -4.78121e-19)
(2.44941 0.758247 2.07859e-19)
(2.59014 0.751584 -6.92919e-19)
(2.69549 0.753667 4.12878e-19)
(2.78062 0.760127 -5.67324e-19)
(2.85745 0.767434 -6.36016e-19)
(0.523682 -0.642066 1.18179e-17)
(0.924543 -0.1269 0)
(1.22544 0.128559 -2.0765e-18)
(1.52031 0.413012 0)
(1.80343 0.681325 1.566e-18)
(2.06208 0.780006 -2.05618e-18)
(2.27211 0.774715 0)
(2.42704 0.746812 0)
(2.546 0.733741 -1.00257e-18)
(2.64821 0.733822 3.40436e-19)
(2.75633 0.753159 0)
(2.38097 -5.10911 4.67239e-18)
(2.12431 -3.62753 0)
(2.01152 -2.78757 -5.21262e-18)
(1.98492 -1.9775 5.53402e-19)
(2.02888 -1.38885 3.72929e-18)
(2.11036 -0.955632 0)
(2.19404 -0.641763 -2.74107e-18)
(2.26408 -0.408704 8.71492e-19)
(2.31768 -0.233514 1.57935e-18)
(2.35751 -0.102957 1.3714e-18)
(2.38306 -0.0102628 -8.25149e-20)
(3.98013 -4.56757 3.43182e-18)
(3.8557 -2.08555 3.91507e-19)
(3.62506 -2.60139 2.35073e-19)
(3.20018 -2.07431 -1.77776e-19)
(2.86353 -1.62388 -1.97462e-18)
(2.65811 -1.1718 6.43038e-19)
(2.5561 -0.801195 1.12984e-18)
(2.51354 -0.513463 -9.20443e-19)
(2.49506 -0.297722 -5.00483e-19)
(2.48558 -0.13947 -4.36274e-19)
(2.47466 -0.028914 3.89367e-19)
(4.34724 -3.17721 -2.38109e-18)
(4.5278 -0.302618 -4.24197e-18)
(4.63862 -1.74167 7.56115e-19)
(4.16469 -1.45339 7.93189e-19)
(3.6995 -1.35727 -6.79679e-19)
(3.29656 -1.08509 0)
(3.01066 -0.795651 3.90163e-19)
(2.82817 -0.526371 1.23597e-19)
(2.71484 -0.304057 7.93885e-19)
(2.63881 -0.13593 -2.36658e-19)
(2.58176 -0.0171093 -3.7661e-19)
(4.02672 -1.88973 -8.56739e-18)
(4.57275 0.855707 1.82382e-17)
(5.00714 -0.73905 -5.35605e-18)
(4.65059 -0.531546 4.54336e-19)
(4.26871 -0.75713 1.40805e-18)
(3.82398 -0.701127 0)
(3.44344 -0.574253 -5.49907e-20)
(3.15262 -0.399838 4.10999e-20)
(2.94965 -0.2267 0)
(2.80722 -0.0784537 -7.74631e-20)
(2.70234 0.0300212 -4.92583e-20)
(3.49368 -0.984069 -4.46217e-18)
(4.33102 1.44396 0)
(4.91942 0.096024 -4.79638e-18)
(4.71185 0.315873 2.35379e-18)
(4.49539 -0.079015 -2.55409e-18)
(4.11795 -0.167705 2.29455e-18)
(3.74455 -0.19911 1.88815e-19)
(3.414 -0.148018 -1.423e-19)
(3.1538 -0.0590161 -2.82956e-19)
(2.96048 0.0392205 7.52212e-20)
(2.81489 0.119228 0)
(2.98916 -0.379657 -9.55039e-18)
(4.00601 1.74336 8.53977e-19)
(4.63093 0.684879 -6.24583e-19)
(4.5287 0.94185 0)
(4.45863 0.507198 2.81001e-18)
(4.18095 0.362566 -4.20504e-18)
(3.87576 0.223606 8.16752e-19)
(3.5652 0.172547 1.07367e-19)
(3.29239 0.172957 5.02672e-19)
(3.07204 0.207905 2.29024e-19)
(2.89932 0.252905 -2.00301e-19)
(2.55304 0.0277473 -8.0068e-18)
(3.68869 1.9191 5.65966e-18)
(4.302 1.08484 -3.75777e-18)
(4.25439 1.36921 9.31054e-18)
(4.28149 0.950925 -4.441e-18)
(4.08687 0.807333 -1.76784e-18)
(3.86356 0.613221 3.25063e-19)
(3.60193 0.497973 6.78715e-19)
(3.35056 0.428205 -4.33046e-19)
(3.12766 0.398806 1.00965e-19)
(2.94328 0.392508 2.31002e-19)
(2.19586 0.309331 -7.95137e-18)
(3.41067 2.01866 5.61446e-18)
(3.99386 1.361 0)
(3.96934 1.65824 0)
(4.05449 1.26896 -1.26731e-19)
(3.91115 1.15159 -3.28325e-19)
(3.75846 0.935299 2.04015e-18)
(3.54818 0.788964 -2.61523e-19)
(3.33286 0.672423 -6.84797e-19)
(3.12617 0.591701 2.84144e-19)
(2.94285 0.531183 -2.12077e-19)
(1.91084 0.509792 -6.33622e-18)
(3.16639 2.08048 8.96413e-18)
(3.72055 1.5568 -7.44515e-18)
(3.6988 1.86021 5.03867e-18)
(3.82208 1.49435 -3.01747e-18)
(3.70109 1.41157 3.1906e-19)
(3.604 1.18664 2.89149e-19)
(3.43474 1.03071 7.08822e-19)
(3.2574 0.88531 -2.06809e-18)
(3.0755 0.770025 0)
(2.90499 0.684537 -7.39718e-20)
(1.66077 0.665689 6.082e-18)
(2.95625 2.13132 1.59801e-18)
(3.47223 1.69735 -7.18166e-18)
(3.44703 2.01062 5.02824e-18)
(3.5994 1.65389 -8.9731e-19)
(3.47937 1.6094 -2.23166e-18)
(3.42813 1.37635 2.54567e-18)
(3.28622 1.22363 1.87082e-18)
(3.14352 1.05971 -9.15947e-19)
(2.98677 0.918969 -8.63096e-19)
(2.83172 0.809803 4.13421e-19)
(1.42595 0.755388 6.72719e-18)
(2.74817 2.18123 -5.07431e-18)
(3.2194 1.81182 2.25015e-18)
(3.22102 2.12593 -1.03618e-18)
(3.38249 1.76598 -3.02971e-18)
(3.25517 1.76292 2.37972e-18)
(3.24504 1.51514 0)
(3.11811 1.374 -8.52589e-19)
(3.00646 1.19638 1.42374e-18)
(2.87144 1.03832 0)
(2.7285 0.907835 0)
(1.21075 0.798159 -1.30575e-18)
(2.52815 2.20986 -7.047e-18)
(2.97792 1.89327 1.07226e-17)
(3.01544 2.2044 -1.17672e-18)
(3.1589 1.85353 1.12406e-18)
(3.03797 1.87566 1.63094e-18)
(3.05876 1.61267 -1.479e-18)
(2.9404 1.4868 7.84785e-19)
(2.85649 1.2977 2.22393e-18)
(2.74098 1.12858 5.39302e-19)
(2.61122 0.986229 1.50499e-18)
(1.01496 0.826997 0)
(2.30346 2.21689 6.36954e-18)
(2.75055 1.95106 -6.34605e-18)
(2.80939 2.24686 1.85611e-18)
(2.93181 1.92356 -1.37667e-18)
(2.83353 1.94754 -5.25876e-18)
(2.86706 1.68007 3.39095e-19)
(2.76098 1.56276 8.84637e-20)
(2.69903 1.36597 9.69592e-19)
(2.60319 1.18901 -1.2714e-18)
(2.49302 1.02373 -1.30103e-18)
(0.8143 0.842182 -8.16541e-18)
(2.06149 2.2028 1.18692e-17)
(2.51883 1.99287 -4.56306e-18)
(2.59871 2.26069 -3.06541e-18)
(2.70769 1.97217 -8.41506e-19)
(2.63815 1.98429 3.22257e-18)
(2.67128 1.72424 -2.32791e-18)
(2.58398 1.60513 1.30313e-18)
(2.53907 1.40466 -1.12979e-18)
(2.46238 1.22326 -1.1722e-18)
(2.37236 1.03432 6.97855e-19)
(0.606688 0.829285 0)
(1.81269 2.16119 0)
(2.28358 2.0109 0)
(2.38619 2.25034 -1.39658e-18)
(2.48839 1.99826 3.21563e-18)
(2.44572 1.98856 1.46893e-18)
(2.47396 1.74533 0)
(2.4107 1.61651 -1.10228e-18)
(2.38076 1.41593 2.61596e-20)
(2.32359 1.23314 -5.24335e-19)
(2.25534 1.03273 0)
(0.400675 0.798422 -3.48322e-18)
(1.55527 2.09367 1.1011e-18)
(2.04185 2.00421 4.17112e-18)
(2.17008 2.21492 -3.94991e-18)
(2.26967 2.00254 -7.88537e-19)
(2.25104 1.96471 -1.03307e-18)
(2.27789 1.74037 0)
(2.24186 1.5982 0)
(2.22849 1.40057 6.8258e-19)
(2.19373 1.2178 0)
(2.15242 1.01554 2.91097e-20)
(0.187664 0.74157 -7.17907e-19)
(1.27941 1.99471 -5.22686e-18)
(1.78516 1.96876 1.38748e-19)
(1.94317 2.15262 4.24518e-18)
(2.04514 1.98111 -1.1128e-19)
(2.05162 1.91433 -6.69274e-19)
(2.08456 1.7065 2.92425e-18)
(2.07871 1.55094 -2.33898e-19)
(2.08628 1.35889 -4.30763e-20)
(2.07686 1.17866 3.07401e-19)
(2.0618 0.981933 9.445e-19)
(-0.0388503 0.631052 7.62523e-19)
(0.98135 1.84167 -3.85801e-18)
(1.50888 1.88867 1.96655e-18)
(1.69791 2.05514 -3.62072e-19)
(1.80866 1.92561 -1.12297e-18)
(1.84401 1.83439 -1.2426e-18)
(1.89437 1.63903 7.53388e-19)
(1.92338 1.47431 -6.13842e-19)
(1.95801 1.29169 -1.68429e-19)
(1.97602 1.11956 1.88824e-19)
(1.9878 0.935391 -6.40192e-19)
(-0.275276 0.442022 -4.20808e-18)
(0.665827 1.60658 3.20433e-18)
(1.21205 1.73687 0)
(1.42567 1.90549 6.17673e-19)
(1.55311 1.81968 3.55033e-19)
(1.62362 1.71304 7.10062e-19)
(1.70689 1.53087 -1.23661e-18)
(1.77903 1.36701 2.80746e-19)
(1.8475 1.20046 -3.34715e-19)
(1.89566 1.04368 6.93398e-20)
(1.93251 0.880962 2.28713e-19)
(-0.50911 0.176559 -1.46746e-18)
(0.335118 1.27707 2.95217e-19)
(0.886946 1.48292 1.07333e-18)
(1.11575 1.67149 -1.06833e-18)
(1.26727 1.63283 -8.7612e-20)
(1.3849 1.52425 1.60911e-19)
(1.52287 1.36869 3.42e-20)
(1.64748 1.22601 -4.23456e-20)
(1.75459 1.08692 2.12198e-20)
(1.83425 0.954424 0)
(1.89531 0.818763 2.41301e-20)
(-0.771194 -0.138594 -6.9615e-20)
(-0.0486036 0.9022 3.27837e-20)
(0.503106 1.13152 1.10725e-19)
(0.750093 1.3276 -1.01017e-19)
(0.937665 1.33202 3.58207e-19)
(1.12662 1.24122 -3.09646e-19)
(1.34334 1.13984 0)
(1.52212 1.05111 3.40314e-19)
(1.66726 0.956665 -2.24297e-19)
(1.7794 0.857319 0)
(1.87129 0.750584 -9.66029e-21)
(-1.10599 -0.571796 3.5568e-18)
(-0.547226 0.493107 -2.39643e-18)
(0.0235905 0.639378 2.16985e-19)
(0.3007 0.798657 0)
(0.547494 0.835475 1.24253e-20)
(0.837725 0.797189 -3.08049e-19)
(1.14789 0.778161 5.90968e-19)
(1.36706 0.78457 -3.32242e-19)
(1.53799 0.768899 -1.25038e-19)
(1.67937 0.726653 6.17342e-20)
(1.80514 0.664678 3.96174e-20)
(-1.66349 -0.86791 5.35002e-18)
(-1.20434 0.0684103 0)
(-0.680813 0.0966733 -2.82426e-19)
(-0.332075 0.216944 0)
(0.0235074 0.303953 8.13049e-19)
(0.402925 0.41748 2.09543e-19)
(0.799334 0.479799 -1.09877e-18)
(1.06306 0.534271 2.643e-19)
(1.26588 0.555161 -1.24108e-20)
(1.44999 0.548548 8.85872e-21)
(1.6537 0.527672 -1.07533e-19)
(-0.398468 -0.52045 0)
(-0.923747 0.142944 8.12682e-18)
(-0.292786 -0.170382 -5.39118e-18)
(0.257124 -0.221913 0)
(0.752268 -0.118357 -9.27486e-19)
(1.14446 0.0935798 2.06897e-18)
(1.43521 0.25824 1.0848e-19)
(1.64777 0.365657 -7.63341e-20)
(1.8378 0.432253 3.0314e-19)
(2.01711 0.478191 -4.13403e-19)
(2.20435 0.525967 1.95546e-19)
(4.65317 2.57701 0)
(3.43937 1.74564 -7.60832e-21)
(3.0655 1.55468 5.02567e-19)
(2.63646 1.23195 -3.92396e-19)
(2.29881 0.946947 4.65505e-19)
(2.05444 0.708825 -8.24812e-20)
(1.8772 0.518758 -2.15008e-19)
(1.74704 0.369776 6.83642e-20)
(1.65152 0.253646 -8.48461e-20)
(1.58066 0.164225 2.62106e-20)
(1.52983 0.102905 0)
(4.32526 1.16195 -1.0939e-17)
(2.84014 -0.0881199 9.42784e-18)
(3.29253 0.293649 -1.66885e-18)
(3.05525 0.373702 2.97483e-18)
(2.70204 0.382106 -6.94513e-19)
(2.3843 0.346636 1.29843e-19)
(2.12119 0.277629 1.28668e-19)
(1.92022 0.200221 1.03427e-19)
(1.77187 0.128558 -7.30347e-20)
(1.66274 0.0689478 -6.18338e-21)
(1.58429 0.0276677 0)
(2.84099 0.566747 -1.10896e-18)
(1.79214 -0.84959 1.31281e-18)
(2.78981 -0.589808 5.70383e-18)
(2.83906 -0.476042 -4.54653e-18)
(2.70478 -0.305512 -5.65304e-19)
(2.48762 -0.155252 1.20128e-18)
(2.24741 -0.0731098 7.80035e-20)
(2.03047 -0.042582 -5.66783e-19)
(1.85504 -0.043014 1.29788e-19)
(1.72058 -0.0552481 4.19966e-19)
(1.62333 -0.0625495 0)
(1.52667 0.701294 -7.60064e-18)
(1.04311 -0.765176 3.15981e-18)
(2.08701 -0.899711 -2.61947e-18)
(2.27573 -0.962956 0)
(2.38475 -0.828481 1.45459e-18)
(2.33836 -0.617441 -2.36291e-18)
(2.19956 -0.445171 -1.39738e-18)
(2.03285 -0.321123 1.81969e-18)
(1.87329 -0.245248 -9.53129e-19)
(1.73836 -0.200035 -2.28539e-19)
(1.63298 -0.161876 0)
(0.691362 1.12338 -3.14747e-18)
(0.58966 -0.316074 5.6957e-18)
(1.45995 -0.792531 -4.80446e-18)
(1.69704 -1.06545 6.6144e-18)
(1.94562 -1.06535 -4.12786e-19)
(2.03493 -0.914979 1.60199e-18)
(2.01097 -0.733424 -1.10614e-19)
(1.92678 -0.569192 0)
(1.81614 -0.44219 0)
(1.70529 -0.350284 -7.20516e-19)
(1.6095 -0.273531 9.48147e-21)
(0.189932 1.60444 -1.14944e-18)
(0.304425 0.203283 0)
(0.985629 -0.491894 -2.69382e-18)
(1.23752 -0.926487 2.06753e-18)
(1.53443 -1.07082 -1.38951e-18)
(1.69596 -1.02485 1.66505e-18)
(1.75928 -0.895953 -1.21231e-18)
(1.75293 -0.739206 -1.41893e-18)
(1.70049 -0.597833 0)
(1.62789 -0.481646 0)
(1.55604 -0.379704 -1.20664e-20)
(-0.0971907 2.11565 2.13697e-18)
(0.127665 0.726112 -7.47753e-19)
(0.648201 -0.115715 6.84186e-20)
(0.90456 -0.672458 -7.89369e-20)
(1.20417 -0.940367 1.15299e-18)
(1.39563 -0.997883 -9.06363e-20)
(1.50906 -0.940033 -2.80948e-20)
(1.55853 -0.824751 1.38353e-18)
(1.55685 -0.696227 -7.99837e-20)
(1.52255 -0.577288 -6.0443e-19)
(1.48016 -0.464049 0)
(-0.217573 2.62881 0)
(0.0304562 1.23913 -5.69753e-19)
(0.422221 0.293683 1.02022e-18)
(0.675502 -0.365642 -1.43999e-18)
(0.959475 -0.739584 5.61151e-19)
(1.15839 -0.890106 -1.54155e-18)
(1.29541 -0.902871 -1.04593e-18)
(1.37724 -0.837359 0)
(1.41137 -0.738852 1.68407e-18)
(1.40898 -0.634298 -1.12502e-18)
(1.39154 -0.524358 1.06981e-18)
(-0.235842 3.09911 0)
(-0.0255734 1.73497 7.98416e-20)
(0.281597 0.71606 0)
(0.525526 -0.0333413 -1.11699e-18)
(0.786859 -0.50203 1.78865e-18)
(0.982648 -0.737517 0)
(1.12781 -0.816946 0)
(1.22559 -0.801432 0)
(1.28125 -0.737479 0)
(1.30107 -0.654586 -5.2971e-19)
(1.30554 -0.55729 -6.78307e-19)
(-0.184338 3.52923 0)
(-0.051068 2.21484 4.67711e-19)
(0.197707 1.14728 0)
(0.426088 0.317762 2.86834e-19)
(0.664764 -0.240193 -5.61785e-19)
(0.85452 -0.557627 0)
(1.00128 -0.702074 -3.78541e-19)
(1.10614 -0.73568 0)
(1.17385 -0.707163 3.63236e-19)
(1.20753 -0.648903 2.38033e-19)
(1.22719 -0.569439 1.44216e-19)
(-0.0889516 3.93712 0)
(-0.0488962 2.68576 -9.09132e-20)
(0.15669 1.58712 7.06936e-20)
(0.359735 0.686941 -6.04621e-20)
(0.576311 0.0430077 3.49582e-19)
(0.759478 -0.356572 1.17597e-19)
(0.905967 -0.567282 6.195e-19)
(1.01448 -0.65071 -2.50688e-19)
(1.08948 -0.658159 -1.67673e-19)
(1.13265 -0.625398 -9.47716e-20)
(1.16286 -0.566084 -1.50761e-19)
(0.0251604 4.29958 0)
(-0.0350847 3.12365 6.94483e-20)
(0.139315 2.02224 2.68501e-19)
(0.315548 1.06688 -3.81336e-19)
(0.510807 0.344071 5.70021e-20)
(0.686597 -0.136124 5.41304e-20)
(0.832438 -0.415062 -1.60306e-19)
(0.943913 -0.550619 8.78347e-20)
(1.02437 -0.595643 1.27448e-19)
(1.07467 -0.589181 1.15499e-19)
(1.11289 -0.550034 0)
(0.124997 4.54333 0)
(-0.0208855 3.49841 -2.98756e-19)
(0.128994 2.44157 3.4095e-19)
(0.279894 1.45735 0)
(0.456197 0.667275 -2.38684e-19)
(0.625185 0.1088 1.959e-19)
(0.771211 -0.241463 -2.37162e-21)
(0.886707 -0.433707 -6.28406e-20)
(0.973032 -0.520161 -6.914e-20)
(1.03016 -0.542564 7.81301e-20)
(1.07401 -0.525527 1.29218e-19)
(0.214548 4.67985 0)
(0.00442222 3.81858 -1.51971e-19)
(0.127492 2.85676 -3.40109e-19)
(0.251711 1.87338 1.3129e-20)
(0.408414 1.02729 4.81141e-19)
(0.569448 0.391198 0)
(0.715497 -0.0358803 -3.84851e-19)
(0.835991 -0.292453 5.63422e-19)
(0.929731 -0.427365 -1.35905e-19)
(0.995736 -0.483938 0)
(1.04774 -0.492612 -1.28143e-19)
(0.293976 4.74553 -8.33933e-19)
(0.0504404 4.07796 7.78214e-19)
(0.146146 3.2525 -2.23628e-19)
(0.240414 2.30842 0)
(0.373454 1.42558 -2.366e-19)
(0.521634 0.717129 -3.22851e-19)
(0.664233 0.210316 1.43197e-20)
(0.788296 -0.117748 -1.50459e-19)
(0.889929 -0.309402 0)
(0.966633 -0.407504 0)
(1.02915 -0.446839 6.42228e-19)
(0.37006 4.76318 -8.11159e-19)
(0.121529 4.26626 1.47481e-18)
(0.190593 3.5984 -4.36889e-19)
(0.251673 2.74253 -3.0193e-19)
(0.354578 1.85812 8.61785e-19)
(0.482756 1.09188 -3.25755e-19)
(0.615984 0.507292 4.36632e-19)
(0.74021 0.102774 3.28535e-19)
(0.849088 -0.153969 4.18753e-19)
(0.938146 -0.302775 0)
(1.01397 -0.380415 -4.25257e-19)
(0.451112 4.76925 -8.29145e-19)
(0.210689 4.40079 -8.65208e-19)
(0.259047 3.8795 4.3397e-19)
(0.288881 3.15121 3.09533e-19)
(0.35532 2.31357 -1.29036e-20)
(0.454023 1.5196 0)
(0.569698 0.868221 -2.12798e-20)
(0.688901 0.386505 2.84633e-19)
(0.803119 0.0572224 -2.51019e-19)
(0.905107 -0.153094 -3.00741e-20)
(0.996987 -0.280322 -5.37476e-19)
(0.528539 4.7739 0)
(0.302681 4.49843 1.15744e-18)
(0.34066 4.09694 -8.80959e-19)
(0.347919 3.50945 0)
(0.377425 2.76666 4.08202e-19)
(0.439107 1.99162 -1.23749e-18)
(0.528308 1.30099 1.25251e-20)
(0.635722 0.751586 1.09455e-18)
(0.751652 0.34683 -4.03235e-19)
(0.865678 0.0644483 0)
(0.974483 -0.125951 0)
(0.60492 4.78142 0)
(0.392548 4.57387 -5.92246e-19)
(0.424931 4.26545 1.36174e-18)
(0.416926 3.81028 -6.27211e-19)
(0.414699 3.19465 1.61973e-20)
(0.438936 2.49243 6.06446e-19)
(0.497197 1.8081 -4.53086e-19)
(0.587228 1.21576 -5.71279e-19)
(0.699791 0.741513 0)
(0.821723 0.380496 4.11584e-19)
(0.947352 0.11319 0)
(0.684928 4.79341 4.65241e-19)
(0.476952 4.6355 -2.54798e-20)
(0.49919 4.39824 -2.38927e-18)
(0.475787 4.06205 7.09809e-19)
(0.451327 3.59039 4.87155e-19)
(0.449528 3.0085 0)
(0.483896 2.38555 0)
(0.556993 1.79048 -5.01835e-19)
(0.661188 1.26593 3.68891e-19)
(0.782549 0.829247 -7.94623e-19)
(0.916609 0.477988 2.1916e-19)
(0.767452 4.79174 -1.03231e-18)
(0.541078 4.66993 2.16651e-18)
(0.535742 4.49643 -2.63424e-18)
(0.497477 4.2809 7.79588e-19)
(0.47109 3.96433 0)
(0.471263 3.53554 3.48122e-19)
(0.504081 3.02197 0)
(0.570054 2.4719 4.93609e-19)
(0.663102 1.93156 -3.59282e-19)
(0.771126 1.43777 3.86915e-19)
(0.88971 1.01171 -3.65379e-20)
(0.720065 4.69458 5.99193e-19)
(0.504572 4.62973 -4.17135e-19)
(0.489463 4.54885 5.88442e-19)
(0.474723 4.46024 1.61944e-18)
(0.487645 4.30779 -1.21845e-18)
(0.526555 4.03316 -3.84901e-19)
(0.582292 3.65456 0)
(0.653076 3.19766 0)
(0.736088 2.69305 0)
(0.824295 2.18194 0)
(0.923626 1.69439 -6.52426e-21)
(0.608813 4.70611 0)
(0.565451 4.59907 2.47242e-18)
(0.587199 4.54407 -1.44884e-18)
(0.635106 4.49716 1.87401e-18)
(0.716908 4.41377 -1.38497e-18)
(0.813732 4.26381 -7.78242e-19)
(0.904212 4.04656 5.59105e-19)
(0.984439 3.75143 -5.64369e-19)
(1.04216 3.37457 4.00595e-19)
(1.06415 2.94001 0)
(1.08496 2.43092 -2.11441e-20)
(0.615217 2.9962 -3.92313e-18)
(0.627911 2.94661 2.59934e-18)
(0.778429 2.85057 0)
(0.917309 2.76992 0)
(1.03078 2.69727 1.21376e-18)
(1.11649 2.64438 -8.6411e-19)
(1.18398 2.61942 0)
(1.24993 2.62523 0)
(1.32967 2.65626 0)
(1.4084 2.63075 4.11173e-21)
(1.43723 2.43354 0)
(1.81154 3.96757 0)
(1.41232 3.23752 -2.88101e-18)
(1.58806 2.33487 -6.3258e-19)
(1.67276 1.69655 4.1495e-18)
(1.67698 1.24813 -2.37313e-18)
(1.64423 0.920355 7.81684e-19)
(1.59661 0.675737 -3.25061e-19)
(1.5492 0.489256 2.51506e-19)
(1.50922 0.346098 -8.83384e-20)
(1.47839 0.236846 1.36659e-19)
(1.45566 0.158661 -3.22368e-20)
(-1.77387 1.95473 -8.22661e-18)
(-0.415261 2.28777 0)
(0.233299 2.19573 5.2914e-18)
(0.73835 1.83175 -7.47405e-18)
(1.03677 1.44543 2.4606e-18)
(1.20925 1.10503 1.03921e-18)
(1.29603 0.824347 3.57014e-19)
(1.33608 0.601789 -4.5671e-19)
(1.35426 0.428813 0)
(1.36437 0.29696 7.96679e-20)
(1.37021 0.20379 2.33212e-20)
(-2.14899 1.07775 2.98449e-18)
(-1.09492 1.15728 0)
(-0.759511 1.38274 0)
(-0.181116 1.44812 0)
(0.336227 1.35247 1.19646e-18)
(0.713597 1.13263 5.8214e-19)
(0.953549 0.882923 -9.81045e-19)
(1.09127 0.658005 -1.18178e-18)
(1.1739 0.475764 5.70374e-19)
(1.22781 0.334433 2.48653e-19)
(1.2634 0.232838 1.00695e-19)
(-1.97319 0.385928 6.69706e-19)
(-0.968678 0.356382 -2.03721e-18)
(-0.989045 0.659615 -1.59137e-19)
(-0.605012 0.844843 2.14044e-18)
(-0.205291 0.929467 9.03281e-19)
(0.187876 0.897599 -8.34156e-19)
(0.520696 0.781317 -1.54059e-18)
(0.775627 0.627099 1.13875e-18)
(0.951712 0.47195 4.49106e-19)
(1.07152 0.337792 -5.7315e-19)
(1.1485 0.237435 0)
(-1.60834 -0.0808441 2.92172e-19)
(-0.715538 -0.202349 -3.87207e-19)
(-0.91498 0.0757569 0)
(-0.647176 0.293005 -1.29168e-18)
(-0.372879 0.464364 0)
(-0.0568778 0.552619 0)
(0.249217 0.552608 0)
(0.515774 0.486305 8.0342e-19)
(0.728671 0.38951 -5.95368e-19)
(0.889672 0.290822 4.68702e-19)
(1.00271 0.211494 -3.42058e-19)
(-1.23016 -0.363387 -7.82477e-20)
(-0.461728 -0.550963 6.07112e-20)
(-0.733693 -0.333703 0)
(-0.538561 -0.136256 4.17269e-19)
(-0.37266 0.0501543 3.793e-19)
(-0.141738 0.191884 0)
(0.108566 0.271551 0)
(0.353989 0.287516 6.12407e-19)
(0.570801 0.257096 3.82561e-19)
(0.747944 0.205769 -7.07123e-19)
(0.877839 0.158784 4.69203e-19)
(-0.889296 -0.51722 -3.28812e-20)
(-0.236177 -0.753365 -1.27265e-19)
(-0.526017 -0.596677 5.44821e-20)
(-0.365924 -0.43119 -2.41368e-19)
(-0.279998 -0.261527 6.64216e-20)
(-0.119485 -0.109191 0)
(0.0696971 0.00627751 0)
(0.272614 0.0742452 -9.55782e-19)
(0.467115 0.0964539 2.81745e-19)
(0.638414 0.0876776 2.03498e-19)
(0.769723 0.0704207 -5.14514e-20)
(-0.602366 -0.601435 7.94507e-20)
(-0.0576241 -0.869442 0)
(-0.333288 -0.763213 -1.80825e-19)
(-0.182929 -0.622851 -6.32509e-20)
(-0.152859 -0.481001 -6.32236e-20)
(-0.0385334 -0.335731 1.54551e-20)
(0.0976389 -0.210138 0)
(0.255062 -0.116351 2.87709e-19)
(0.416086 -0.0591022 1.62152e-19)
(0.567274 -0.0329812 -1.21252e-19)
(0.689341 -0.0228018 0)
(-0.356881 -0.656209 0)
(0.0863959 -0.946872 0)
(-0.162078 -0.867095 8.37557e-20)
(-0.0112657 -0.75324 0)
(-0.0221824 -0.629652 -1.79375e-19)
(0.0685259 -0.498767 3.75274e-20)
(0.162747 -0.375207 5.4867e-21)
(0.280417 -0.271507 4.09812e-20)
(0.407585 -0.195311 5.26864e-20)
(0.53288 -0.147599 -1.31408e-20)
(0.635877 -0.120975 0)
(-0.148685 -0.688253 -1.98406e-19)
(0.225133 -1.01287 0)
(-0.0062992 -0.931592 1.59888e-19)
(0.138014 -0.845554 0)
(0.112866 -0.731171 1.08588e-19)
(0.181309 -0.613774 0)
(0.246065 -0.496836 0)
(0.332342 -0.391268 5.72303e-20)
(0.428651 -0.306035 -1.59116e-20)
(0.527143 -0.246146 -2.02212e-20)
(0.609005 -0.20814 1.27381e-20)
(0.00637269 -0.693226 4.8981e-19)
(0.359352 -1.05334 -6.95911e-20)
(0.151711 -0.974713 0)
(0.273487 -0.90443 0)
(0.243569 -0.800744 9.68076e-21)
(0.295068 -0.693613 1.6339e-20)
(0.338313 -0.583708 -1.85464e-20)
(0.40031 -0.479933 -5.63756e-20)
(0.470625 -0.391026 -5.3674e-20)
(0.545087 -0.323757 2.34336e-20)
(0.606164 -0.277046 -1.75198e-20)
(0.134769 -0.680395 1.00361e-19)
(0.481699 -1.06291 8.64299e-20)
(0.294035 -1.00036 -1.97522e-19)
(0.400278 -0.938604 1.55616e-19)
(0.367828 -0.844581 0)
(0.407259 -0.745962 0)
(0.434691 -0.642789 0)
(0.478183 -0.542331 -1.43172e-20)
(0.527631 -0.45262 5.32154e-20)
(0.581701 -0.380805 0)
(0.626316 -0.328503 0)
(0.252824 -0.659924 0)
(0.599822 -1.05856 -3.08041e-19)
(0.422407 -1.01067 2.29538e-19)
(0.51998 -0.95434 -1.5953e-19)
(0.485395 -0.867953 0)
(0.516334 -0.776274 1.5333e-19)
(0.532056 -0.679293 -1.02492e-19)
(0.561754 -0.582798 1.47893e-19)
(0.595362 -0.494082 0)
(0.633988 -0.42017 0)
(0.662423 -0.364087 0)
(0.371104 -0.622899 -2.20629e-19)
(0.717377 -1.03493 0)
(0.545648 -1.00629 2.06889e-19)
(0.633532 -0.954823 -1.89078e-19)
(0.597748 -0.875043 -2.19824e-19)
(0.621622 -0.789172 3.46977e-19)
(0.628579 -0.697818 3.25127e-19)
(0.647831 -0.60563 -1.33621e-19)
(0.669391 -0.51913 0)
(0.697625 -0.445201 0)
(0.719525 -0.387803 0)
(0.479207 -0.568568 -2.24962e-19)
(0.820331 -0.995046 0)
(0.661153 -0.987992 2.35167e-19)
(0.739093 -0.941561 3.41865e-19)
(0.705957 -0.867846 -4.89928e-19)
(0.722786 -0.786888 -9.65733e-21)
(0.723819 -0.700556 -4.6766e-19)
(0.734723 -0.612997 0)
(0.74725 -0.530082 0)
(0.767288 -0.458328 1.21297e-19)
(0.787618 -0.403037 -9.08388e-20)
(0.581886 -0.510487 4.57731e-19)
(0.913854 -0.944227 0)
(0.770705 -0.95816 0)
(0.838035 -0.916924 -1.01588e-18)
(0.809648 -0.848587 1.99441e-18)
(0.819789 -0.771864 -3.70185e-19)
(0.816614 -0.690051 0)
(0.820527 -0.607337 6.42477e-19)
(0.826052 -0.529101 0)
(0.839138 -0.461369 0)
(0.861643 -0.409625 0)
(0.682225 -0.445973 4.7122e-19)
(1.00383 -0.880242 0)
(0.877524 -0.916129 4.82135e-19)
(0.932625 -0.881325 3.36136e-19)
(0.909157 -0.818143 -5.09391e-19)
(0.912688 -0.745251 0)
(0.905841 -0.667717 0)
(0.903425 -0.590132 -3.39271e-19)
(0.902966 -0.51755 1.72799e-19)
(0.909547 -0.455613 2.60373e-19)
(0.927532 -0.409993 -3.47556e-19)
(0.776619 -0.370642 -3.05755e-21)
(1.08813 -0.800691 0)
(0.980152 -0.85969 5.10664e-19)
(1.02324 -0.833481 -7.5796e-19)
(1.00409 -0.775969 -5.48111e-19)
(1.00102 -0.707108 0)