/*--------------------------------*- C++ -*----------------------------------*\
| =========                 |                                                 |
| \\      /  F ield         | OpenFOAM: The Open Source CFD Toolbox           |
|  \\    /   O peration     | Version:  3.0.1                                 |
|   \\  /    A nd           | Web:      www.OpenFOAM.org                      |
|    \\/     M anipulation  |                                                 |
\*---------------------------------------------------------------------------*/
FoamFile
{
    version     2.0;
    format      ascii;
    class       volScalarField;
    location    "0";
    object      yPlus;
}
// * * * * * * * * * * * * * * * * * * * * * * * * * * * * * * * * * * * * * //

dimensions      [0 0 0 0 0 0 0];

internalField   uniform 0;

boundaryField
{
    FrontAndBack
    {
        type            empty;
    }
    patch1
    {
        type            calculated;
        value           nonuniform List<scalar> 
98
(
0.979967
0.973555
0.973736
0.98146
0.996639
1.01745
1.0346
1.04487
1.05105
1.05812
1.06682
1.07582
1.08498
1.09633
1.1102
1.12188
1.13064
1.14154
1.15521
1.17102
1.1821
1.18828
1.19942
1.20864
1.21253
1.22108
1.22746
1.22837
1.2304
1.23017
1.22779
1.22305
1.21612
1.20701
1.19245
1.17883
1.16285
1.1417
1.11801
1.0841
1.04463
1.00267
0.954042
0.898458
0.838833
0.770619
0.689992
0.875245
1.03516
0.983184
0.983682
0.976006
0.9624
0.946323
0.924175
0.904603
0.888727
0.877907
0.87904
0.888489
0.905256
0.931328
0.957454
0.978943
1.00845
1.04136
1.07067
1.09554
1.11903
1.14398
1.16339
1.18366
1.2011
1.2122
1.22006
1.2245
1.22537
1.21919
1.20919
1.19529
1.17418
1.14914
1.12018
1.08728
1.04735
0.996855
0.942583
0.884802
0.820287
0.748773
0.670459
0.588918
0.500905
0.406353
0.3091
0.247088
0.769253
0.982223
)
;
    }
    patch2
    {
        type            calculated;
        value           nonuniform List<scalar> 
98
(
0.98032
0.975049
0.974725
0.981769
0.999156
1.01698
1.0309
1.04245
1.04936
1.05703
1.06701
1.07512
1.08111
1.09436
1.10737
1.11873
1.13278
1.14499
1.15514
1.16723
1.17676
1.18503
1.19631
1.20442
1.21381
1.22163
1.22328
1.22425
1.22836
1.231
1.22798
1.22354
1.21792
1.20864
1.19779
1.18328
1.1626
1.13823
1.11009
1.0805
1.04717
1.00288
0.954175
0.900853
0.836291
0.76694
0.696784
0.805018
1.01445
0.982898
0.983613
0.979338
0.967634
0.948414
0.927827
0.907051
0.889089
0.88325
0.884523
0.889014
0.90662
0.932597
0.953402
0.977957
1.01071
1.03943
1.06668
1.09483
1.12046
1.14307
1.16392
1.18399
1.20163
1.21375
1.22157
1.22628
1.22773
1.22442
1.2131
1.19828
1.17844
1.15358
1.12505
1.09005
1.04708
0.997796
0.945102
0.886311
0.822728
0.750355
0.673366
0.592143
0.502296
0.405678
0.306107
0.217931
0.688108
0.952668
)
;
    }
    patch3
    {
        type            calculated;
        value           nonuniform List<scalar> 
98
(
0.983963
0.976798
0.972003
0.983974
1.00186
1.01828
1.03284
1.04164
1.05155
1.05797
1.06203
1.07202
1.08631
1.0979
1.10838
1.11983
1.13176
1.14373
1.15538
1.16634
1.17637
1.18624
1.19662
1.20847
1.21547
1.21797
1.22318
1.22818
1.22991
1.23102
1.22884
1.22451
1.22018
1.20945
1.19339
1.18064
1.16489
1.14038
1.11442
1.08458
1.04758
1.00556
0.957738
0.903582
0.843664
0.774041
0.696257
0.768279
1.01125
0.988208
0.985275
0.976334
0.964412
0.947057
0.928419
0.906769
0.888662
0.880565
0.883218
0.891459
0.904086
0.927576
0.953626
0.977592
1.00913
1.03781
1.0667
1.09493
1.12067
1.146
1.16598
1.186
1.19916
1.21081
1.22255
1.2249
1.22432
1.22065
1.21184
1.19784
1.17868
1.15339
1.12288
1.08805
1.04732
0.998764
0.942339
0.885655
0.822568
0.750003
0.672984
0.591402
0.50114
0.407088
0.309409
0.219222
0.619735
0.951426
)
;
    }
    Shaft
    {
        type            calculated;
        value           nonuniform List<scalar> 
18
(
12.2052
12.1534
12.1161
12.0936
12.0861
12.0936
12.1161
12.1534
12.2052
12.2052
12.1534
12.1161
12.0936
12.0861
12.0936
12.1161
12.1534
12.2052
)
;
    }
    Inlet
    {
        type            calculated;
        value           uniform 0;
    }
    Lat-Wall
    {
        type            calculated;
        value           nonuniform List<scalar> 
68
(
1066.43
1411.41
1006.05
1534.66
1359.66
1372.68
1530.32
1160.34
1451.83
1286.01
1330.77
1483.32
1364.23
1361.45
1169.55
1397.45
1392.04
1182.88
1210.56
1264.27
1148.58
1306.85
1348.75
1154.75
1006.05
1226.84
1089.5
1203.05
1188.25
1187.58
721.534
721.534
1074.65
1087.22
1124.7
1038.25
643.853
604.051
1177.65
852.881
871.396
1218.66
1066.43
952.654
1022.11
1114.64
931.367
900.286
1028.86
916.564
752.169
937.896
929.086
933.066
1095.49
929.399
942.011
797.292
894.696
925.33
722.071
688.306
776.631
711.74
844.026
656.018
805.432
807.489
)
;
    }
    Outlet
    {
        type            calculated;
        value           uniform 0;
    }
    AMI-St
    {
        type            cyclicAMI;
        value           uniform 0;
    }
    AMI-Rt
    {
        type            cyclicAMI;
        value           uniform 0;
    }
}


// ************************************************************************* //
