/*--------------------------------*- C++ -*----------------------------------*\
| =========                 |                                                 |
| \\      /  F ield         | OpenFOAM: The Open Source CFD Toolbox           |
|  \\    /   O peration     | Version:  3.0.1                                 |
|   \\  /    A nd           | Web:      www.OpenFOAM.org                      |
|    \\/     M anipulation  |                                                 |
\*---------------------------------------------------------------------------*/
FoamFile
{
    version     2.0;
    format      ascii;
    class       volScalarField;
    location    "0.141585";
    object      nut;
}
// * * * * * * * * * * * * * * * * * * * * * * * * * * * * * * * * * * * * * //

dimensions      [0 2 -1 0 0 0 0];

internalField   nonuniform List<scalar> 
21246
(
5.95067e-05
0.000314155
0.000382296
0.000413962
0.000441889
0.000467636
0.000485799
0.000490528
0.000472189
0.000423739
0.000361292
3.80758e-05
0.0002551
0.000364272
0.000412455
0.000441541
0.000464172
0.000478602
0.00048121
0.000464599
0.00042005
0.000358222
3.18833e-05
0.000214504
0.000362386
0.000442705
0.000473733
0.000489472
0.000498705
0.000496622
0.00047642
0.000432661
0.000369933
3.11278e-05
0.000180606
0.000323012
0.000426418
0.000476154
0.000498273
0.00050717
0.000504706
0.000487111
0.000445624
0.000381379
3.19743e-05
0.000164467
0.000297051
0.000399967
0.000456639
0.00048913
0.000506236
0.000509266
0.000493656
0.000451246
0.000384141
3.29925e-05
0.000151711
0.00027607
0.000373926
0.00043152
0.000470268
0.000496129
0.000507314
0.000496893
0.000457557
0.000393002
3.41209e-05
0.000141349
0.000257952
0.00034899
0.000405749
0.000447836
0.000480368
0.000499438
0.00049542
0.000459703
0.000396057
3.53665e-05
0.000133145
0.000242708
0.00032724
0.000382099
0.000425559
0.000462584
0.000488011
0.000490221
0.000460029
0.000403113
3.6492e-05
0.000126207
0.00022974
0.000308823
0.000361547
0.000405354
0.000445348
0.000475876
0.000484107
0.000459502
0.000405855
3.73749e-05
0.000119635
0.000218126
0.000293058
0.000343982
0.000387798
0.000429889
0.000464538
0.000477982
0.000457682
0.000404846
3.81546e-05
0.000113439
0.00020758
0.000279345
0.000328885
0.000372663
0.00041638
0.000454422
0.000472128
0.000455279
0.000406416
3.8788e-05
0.000107957
0.000198211
0.000267361
0.000315804
0.000359584
0.000404695
0.00044574
0.000467265
0.000453607
0.000407165
3.91491e-05
0.000102741
0.000189616
0.000256778
0.000304488
0.000348408
0.000394836
0.000438726
0.000463907
0.000453077
0.000407713
3.93058e-05
9.73254e-05
0.000181232
0.000247179
0.000294648
0.000338933
0.000386709
0.000433452
0.000462232
0.000453758
0.000409623
3.91364e-05
9.20905e-05
0.000173157
0.000238307
0.000285886
0.000330745
0.000379924
0.000429629
0.000462242
0.000456062
0.00041209
3.86021e-05
8.62074e-05
0.000164452
0.000229455
0.000277704
0.00032336
0.000373935
0.00042672
0.000463737
0.000460337
0.000416666
3.77341e-05
7.8349e-05
0.000152055
0.000216552
0.000264725
0.000309511
0.000359245
0.000413849
0.000456869
0.000460613
0.000421662
3.63298e-05
6.97911e-05
0.000136947
0.000199918
0.00024708
0.000288647
0.000333061
0.00038367
0.000429329
0.000444038
0.000419941
3.43616e-05
6.07076e-05
0.00011916
0.000178972
0.000224556
0.000261694
0.000297599
0.000337937
0.000378782
0.000402318
0.000399957
3.17895e-05
5.12735e-05
9.91343e-05
0.000153391
0.000196747
0.000229584
0.000256537
0.000283346
0.000311345
0.000333434
0.000347017
2.85276e-05
4.17957e-05
7.81349e-05
0.000123946
0.000163669
0.000192981
0.000213178
0.000228292
0.000241391
0.000252111
0.000263369
2.45203e-05
3.28347e-05
5.82572e-05
9.32859e-05
0.000126913
0.000152749
0.000169142
0.000177748
0.000181064
0.000180786
0.00018023
1.9633e-05
2.42592e-05
4.045e-05
6.43354e-05
8.94983e-05
0.000110509
0.000124576
0.00013138
0.000131971
0.000127819
0.000121156
1.38228e-05
2.25579e-05
3.41775e-05
4.77545e-05
6.18363e-05
7.42045e-05
8.331e-05
8.84183e-05
8.94209e-05
8.66781e-05
8.11072e-05
5.58772e-05
0.00028693
0.000329223
0.00043415
0.000481563
0.00051107
0.000524983
0.000528625
0.000503819
0.00044646
0.000376887
4.14409e-05
0.000177367
0.000205863
0.000265705
0.00035587
0.000494568
0.000550781
0.000565697
0.000543768
0.000481688
0.000400005
3.83598e-05
0.000129356
0.000173117
0.000217613
0.000286642
0.000424594
0.000563836
0.000602186
0.000587109
0.000525497
0.000436322
3.78156e-05
0.000111835
0.000157023
0.000195414
0.00025569
0.000382205
0.000572396
0.000639852
0.00063574
0.000579794
0.000489498
3.7163e-05
0.000110955
0.000149729
0.000182804
0.000237655
0.000359651
0.000574163
0.000673958
0.000685191
0.000636026
0.000539534
3.62003e-05
0.000118708
0.000148633
0.000175599
0.000224923
0.000342393
0.000559774
0.000699482
0.000731161
0.000692319
0.000594301
3.58031e-05
0.000130002
0.00015202
0.000172144
0.000215184
0.000326279
0.000536153
0.000710185
0.000770277
0.000742721
0.000637511
3.64365e-05
0.000144074
0.000159177
0.00017183
0.000208127
0.000311812
0.000509642
0.000698151
0.000793549
0.000786382
0.000675948
3.77456e-05
0.000159695
0.000169324
0.000174004
0.000203096
0.000298443
0.000481587
0.000671224
0.00078588
0.00080245
0.000708171
3.92649e-05
0.000175597
0.000181765
0.00017825
0.000199618
0.000285636
0.000452423
0.000634856
0.000756098
0.000784448
0.000703544
4.04832e-05
0.000189385
0.000195662
0.000184277
0.000197208
0.000272487
0.000421358
0.000591245
0.000710919
0.000741669
0.000670549
4.15068e-05
0.000201743
0.000210612
0.000191983
0.000196122
0.000259883
0.000390261
0.00054413
0.000656849
0.00068438
0.00061674
4.2188e-05
0.000213366
0.000225873
0.000201179
0.000196377
0.00024785
0.000359312
0.000495079
0.000597592
0.000620481
0.000553591
4.21783e-05
0.000221013
0.00024003
0.000211825
0.000198069
0.000236422
0.000328634
0.000445059
0.000535602
0.000554736
0.000490312
4.15714e-05
0.000225754
0.000252532
0.000223649
0.000201559
0.000226577
0.000299767
0.000396372
0.000473833
0.000490352
0.000432421
4.0347e-05
0.000227707
0.000262586
0.000236102
0.000206986
0.000218852
0.000273533
0.000350345
0.000414121
0.000428888
0.000380398
3.84321e-05
0.000225658
0.000269134
0.000248322
0.000214375
0.000213885
0.000250917
0.000308392
0.000358025
0.000370966
0.000333482
3.58621e-05
0.000219853
0.000271287
0.000258932
0.000223405
0.000212404
0.000233328
0.000272363
0.000307494
0.000317307
0.000290073
3.27595e-05
0.000210089
0.000268251
0.000266074
0.000233197
0.000214981
0.000222177
0.000244197
0.000264667
0.00026927
0.000249189
2.97319e-05
0.000197955
0.00026016
0.000268262
0.000242927
0.000222517
0.000219353
0.000226233
0.000232262
0.000229336
0.000212111
2.54256e-05
0.000169644
0.000238496
0.000261194
0.000249023
0.000233251
0.000224189
0.000218593
0.000211269
0.000199455
0.00018046
2.21261e-05
0.00014556
0.000203573
0.000227816
0.000228424
0.00021813
0.000207943
0.000196521
0.000177172
0.000153547
0.000126641
1.50624e-05
0.000102332
0.000120382
0.000110464
9.8258e-05
8.57543e-05
7.39612e-05
6.26467e-05
5.37886e-05
4.64575e-05
4.01131e-05
9.78004e-06
1.09483e-05
1.17378e-05
1.32043e-05
1.535e-05
1.79729e-05
2.08318e-05
2.36072e-05
2.59713e-05
2.76196e-05
2.83275e-05
3.4355e-05
0.000113269
0.000110016
0.000117679
0.000108032
8.81612e-05
6.9561e-05
5.81684e-05
5.08249e-05
4.51576e-05
4.01754e-05
2.87809e-05
9.63561e-05
8.02636e-05
0.000115909
0.000115774
9.42017e-05
7.11473e-05
5.69553e-05
4.83404e-05
4.19694e-05
3.64419e-05
2.83225e-05
7.97368e-05
7.35365e-05
9.17359e-05
0.000116222
0.000101652
7.5142e-05
5.77011e-05
4.75643e-05
4.05341e-05
3.48183e-05
2.96341e-05
6.97164e-05
7.13487e-05
8.27081e-05
0.00010543
0.00010793
8.02947e-05
5.97844e-05
4.80596e-05
4.03852e-05
3.45183e-05
3.09864e-05
6.5362e-05
7.00435e-05
7.75252e-05
9.74264e-05
0.000112318
8.59513e-05
6.28167e-05
4.95181e-05
4.12268e-05
3.53549e-05
3.16912e-05
6.40305e-05
6.91382e-05
7.34873e-05
8.91273e-05
0.000109202
9.17798e-05
6.66162e-05
5.17297e-05
4.27872e-05
3.68243e-05
3.18514e-05
6.46456e-05
6.89247e-05
7.06456e-05
8.13986e-05
0.000100069
9.47785e-05
7.12805e-05
5.45686e-05
4.48992e-05
3.87777e-05
3.15935e-05
6.70758e-05
6.98102e-05
6.92414e-05
7.55483e-05
8.98426e-05
9.28515e-05
7.58829e-05
5.83237e-05
4.75222e-05
4.11408e-05
3.08594e-05
7.05939e-05
7.19119e-05
6.90847e-05
7.13864e-05
8.06501e-05
8.68443e-05
7.84563e-05
6.25354e-05
5.07846e-05
4.39487e-05
2.96912e-05
7.46449e-05
7.52789e-05
7.00872e-05
6.85883e-05
7.29378e-05
7.84513e-05
7.72683e-05
6.63848e-05
5.45668e-05
4.71683e-05
2.83069e-05
7.96024e-05
8.02242e-05
7.25494e-05
6.7449e-05
6.74694e-05
7.03303e-05
7.23911e-05
6.82988e-05
5.85681e-05
5.08081e-05
2.69112e-05
8.61866e-05
8.72339e-05
7.68039e-05
6.81608e-05
6.44513e-05
6.42426e-05
6.60893e-05
6.7065e-05
6.19279e-05
5.47985e-05
2.57657e-05
9.44518e-05
9.6732e-05
8.323e-05
7.07579e-05
6.35077e-05
6.02965e-05
6.02533e-05
6.29572e-05
6.32464e-05
5.87372e-05
2.52057e-05
0.000104328
0.00010923
9.25282e-05
7.56239e-05
6.45784e-05
5.83661e-05
5.58717e-05
5.76e-05
6.14073e-05
6.15541e-05
2.54802e-05
0.000117662
0.000125985
0.000105763
8.34516e-05
6.79843e-05
5.85855e-05
5.35236e-05
5.29845e-05
5.7062e-05
6.1728e-05
2.63598e-05
0.000134105
0.000147806
0.000124558
9.55276e-05
7.43865e-05
6.1141e-05
5.32948e-05
5.01078e-05
5.21697e-05
5.85288e-05
2.68383e-05
0.000150491
0.000173627
0.000150608
0.000114094
8.53331e-05
6.68435e-05
5.55306e-05
4.94481e-05
4.85413e-05
5.33315e-05
2.63127e-05
0.000164
0.000200293
0.000183883
0.000141688
0.000103366
7.74723e-05
6.13074e-05
5.17021e-05
4.74383e-05
4.88236e-05
2.48331e-05
0.000171693
0.000222985
0.000220485
0.000179566
0.000132032
9.63339e-05
7.3041e-05
5.84646e-05
5.01481e-05
4.73909e-05
2.25574e-05
0.000172271
0.000237792
0.000253277
0.000224824
0.000174505
0.000128711
9.56481e-05
7.35501e-05
5.94655e-05
5.16296e-05
1.96056e-05
0.000162974
0.000242238
0.000276466
0.000270145
0.000230713
0.000181066
0.000137767
0.000105131
8.2163e-05
6.69649e-05
1.70465e-05
0.000147843
0.0002352
0.000285408
0.000302548
0.000287584
0.000250197
0.00020553
0.000164185
0.000130586
0.000105041
1.30854e-05
0.000116311
0.0001736
0.000221244
0.000253262
0.000271149
0.000272111
0.000256086
0.000229108
0.000199149
0.000170073
1.01491e-05
4.35713e-05
6.43798e-05
8.99464e-05
0.000117337
0.00014613
0.000173368
0.00019183
0.000200542
0.000200869
0.000193427
2.87466e-05
0.000103865
0.000107562
0.000110289
0.000104738
8.83042e-05
7.26141e-05
6.23726e-05
5.54643e-05
4.99728e-05
4.49716e-05
1.95536e-05
8.68123e-05
0.000110348
0.000120055
0.000115052
9.91457e-05
8.23887e-05
7.10194e-05
6.36944e-05
5.82196e-05
5.34493e-05
1.97495e-05
7.81523e-05
0.000108717
0.000137653
0.000134405
0.000117518
9.71342e-05
8.25649e-05
7.3977e-05
6.83109e-05
6.38553e-05
2.207e-05
7.26926e-05
0.000105167
0.000147941
0.000154106
0.000141519
0.000119887
0.000101111
8.86165e-05
8.07172e-05
7.52722e-05
2.49834e-05
6.76805e-05
0.000104508
0.000152006
0.000161664
0.000152302
0.00013178
0.000113161
0.000100808
9.31077e-05
8.78995e-05
2.78066e-05
6.38815e-05
0.000104398
0.0001521
0.0001647
0.000159603
0.000141395
0.00012387
0.000112234
0.00010549
0.000101641
3.04151e-05
6.1162e-05
0.000104171
0.000150645
0.000165769
0.000164717
0.000148987
0.000133124
0.000122536
0.000116737
0.000113921
3.28523e-05
5.92456e-05
0.000103783
0.000148909
0.000166354
0.000168677
0.000155299
0.000141076
0.000131378
0.000126173
0.000123636
3.49528e-05
5.78461e-05
0.000103268
0.000147461
0.000167231
0.000172099
0.000160997
0.000148236
0.000139439
0.000135175
0.000134043
3.66985e-05
5.66954e-05
0.000102764
0.000146344
0.000168529
0.000175469
0.000166452
0.000154854
0.000146786
0.000143323
0.000143023
3.80725e-05
5.55984e-05
0.000102073
0.000145624
0.000170075
0.000179041
0.000171896
0.000161125
0.000153497
0.000150566
0.000150689
3.91692e-05
5.44977e-05
0.00010118
0.000145112
0.00017173
0.000182816
0.000177426
0.000167208
0.000159711
0.000157136
0.000158044
3.99163e-05
5.32536e-05
9.99806e-05
0.000144599
0.0001734
0.000186794
0.000183174
0.000173279
0.00016555
0.000163063
0.000165062
4.02155e-05
5.04646e-05
9.63092e-05
0.000141916
0.000173223
0.00018967
0.000188711
0.000179459
0.000171194
0.000168276
0.000170691
4.00016e-05
4.71773e-05
9.00657e-05
0.000135673
0.000168715
0.000188243
0.00019146
0.000184745
0.000176751
0.0001732
0.000175329
3.92414e-05
4.35573e-05
8.14763e-05
0.000125674
0.000159706
0.000181756
0.000189847
0.00018764
0.000181599
0.000177829
0.000179101
3.79293e-05
3.97342e-05
7.11255e-05
0.000111909
0.000145957
0.000169684
0.000182228
0.000185638
0.000183798
0.000181401
0.000182015
3.5974e-05
3.59634e-05
6.02044e-05
9.53425e-05
0.000127795
0.000152107
0.000167707
0.000176102
0.000179755
0.000181181
0.00018294
3.33293e-05
3.22667e-05
4.96963e-05
7.75337e-05
0.000106209
0.000129599
0.000146473
0.000157838
0.000165801
0.000172
0.00017747
2.99561e-05
2.85281e-05
4.01172e-05
6.01501e-05
8.29809e-05
0.000103514
0.000119782
0.000131921
0.000141472
0.00015009
0.000158796
2.58134e-05
2.45555e-05
3.16646e-05
4.45887e-05
6.05442e-05
7.63481e-05
9.0093e-05
0.000101211
0.000110269
0.000118401
0.000126745
2.09036e-05
2.01305e-05
2.41667e-05
3.15113e-05
4.10197e-05
5.12135e-05
6.0923e-05
6.95048e-05
7.68935e-05
8.34764e-05
8.99046e-05
1.52557e-05
1.47125e-05
1.67543e-05
2.02588e-05
2.48402e-05
3.00101e-05
3.53134e-05
4.04377e-05
4.52439e-05
4.97867e-05
5.43157e-05
9.2084e-06
9.62558e-06
1.15568e-05
1.40132e-05
1.68893e-05
2.00481e-05
2.34782e-05
2.87275e-05
3.61566e-05
4.62055e-05
5.90713e-05
2.79016e-05
0.000127155
0.000221401
0.000323246
0.000389892
0.000395591
0.000356171
0.000344419
0.000401026
0.000504207
0.000608513
1.9694e-05
7.65628e-05
0.000150674
0.00023772
0.000311868
0.000343329
0.000329102
0.000320603
0.000385129
0.000471229
0.000539062
1.45302e-05
6.30326e-05
0.000118175
0.000187624
0.000255427
0.000296649
0.000300849
0.000297069
0.000340577
0.000434823
0.000478339
1.192e-05
6.35672e-05
0.000104875
0.000160086
0.000218152
0.000260074
0.00027507
0.000278478
0.000306985
0.000382676
0.000434015
1.2604e-05
6.31942e-05
0.00010026
0.000146166
0.000194599
0.000233273
0.000253759
0.000263793
0.000286263
0.000341682
0.000391131
1.28541e-05
6.43903e-05
9.91308e-05
0.000138219
0.00018013
0.000214713
0.000237703
0.00025285
0.000274287
0.000317269
0.000358918
1.28586e-05
6.47105e-05
0.000100288
0.00013461
0.000171406
0.000203211
0.000227395
0.000246603
0.000269762
0.000306879
0.000340845
1.29565e-05
6.43622e-05
0.000102236
0.000135039
0.000168204
0.000198712
0.000224021
0.000247081
0.000273375
0.000307681
0.000334153
1.30079e-05
6.3506e-05
0.000104974
0.000139137
0.000171453
0.000201998
0.000229318
0.000256252
0.000285188
0.000316087
0.000334827
1.29653e-05
6.23264e-05
0.000108224
0.00014618
0.000180998
0.000213161
0.000243478
0.000273269
0.00030194
0.000326929
0.000338418
1.29163e-05
6.11231e-05
0.000111553
0.000154528
0.000193574
0.000229257
0.000262459
0.000292584
0.000317498
0.00033562
0.000341947
1.2916e-05
6.01885e-05
0.00011403
0.000161401
0.00020517
0.000244562
0.000279284
0.000307503
0.000327744
0.000341092
0.000345792
1.28684e-05
5.93556e-05
0.000115334
0.000165735
0.000213002
0.000254897
0.000289919
0.000316075
0.000333337
0.000344725
0.000349954
1.27432e-05
5.82662e-05
0.000115396
0.000167663
0.000217048
0.000260398
0.00029556
0.000320819
0.000337044
0.000348126
0.000354508
1.25066e-05
5.76255e-05
0.000115284
0.000168551
0.000219191
0.000263584
0.000299312
0.000324811
0.000341098
0.000352323
0.000359704
1.21444e-05
5.70172e-05
0.000114783
0.000168625
0.000220242
0.000265802
0.000302719
0.000329276
0.000346073
0.00035707
0.000364404
1.16556e-05
5.57602e-05
0.000113082
0.000167245
0.000219894
0.000267079
0.000305939
0.000334228
0.000351653
0.000361714
0.000367908
1.09789e-05
5.40053e-05
0.000110197
0.000164249
0.000218008
0.000267368
0.000308923
0.00033946
0.000357345
0.000365419
0.000368753
1.01072e-05
5.15677e-05
0.000105867
0.00015946
0.000214541
0.000266506
0.000311124
0.000343931
0.000361635
0.000366135
0.000363737
9.0328e-06
4.84351e-05
0.000100361
0.00015348
0.000209079
0.000261268
0.000307035
0.000341867
0.000359676
0.000360341
0.000350875
7.70033e-06
4.55274e-05
9.84588e-05
0.000145802
0.000185027
0.00021208
0.000254815
0.000304702
0.000332754
0.00033769
0.000325805
7.82418e-06
4.94511e-05
6.64439e-05
6.44897e-05
8.32824e-05
0.00011021
0.000141294
0.000181829
0.000236305
0.000270417
0.00027583
6.03798e-06
1.68319e-05
3.19203e-05
5.72775e-05
9.00019e-05
0.000122941
0.000146346
0.000153573
0.00015342
0.0001687
0.000190466
9.73926e-06
2.55051e-05
5.53679e-05
9.9862e-05
0.000151168
0.000197004
0.000225842
0.000230135
0.000205072
0.000164676
0.000144673
2.64079e-05
0.000196907
0.000330043
0.000420873
0.000455691
0.000431001
0.000372
0.000347446
0.000408734
0.000538015
0.000678993
1.60351e-05
0.000133153
0.000281461
0.000399362
0.000467805
0.000471913
0.00041585
0.000364548
0.000411334
0.0005637
0.000754921
1.3329e-05
8.05148e-05
0.000211279
0.000344681
0.000449273
0.000498834
0.00046926
0.00039131
0.000398645
0.00056236
0.000811278
1.42089e-05
6.47555e-05
0.000168969
0.000296046
0.00041635
0.000502182
0.00051619
0.000434204
0.000364885
0.000505411
0.000794982
1.6045e-05
6.97847e-05
0.000164787
0.000275591
0.000391081
0.000491993
0.000544936
0.00050613
0.000381269
0.00035987
0.000616878
1.80052e-05
8.02359e-05
0.000177127
0.000279538
0.000384087
0.000484157
0.000557749
0.000562294
0.00046294
0.000345171
0.000442328
1.99578e-05
9.28027e-05
0.000195061
0.000293516
0.000387825
0.000479512
0.000559929
0.0005968
0.000534091
0.000395515
0.000350313
2.19186e-05
0.000105794
0.000214426
0.000310843
0.000396258
0.000475756
0.000552161
0.000608322
0.000584859
0.000456629
0.000341592
2.37354e-05
0.000119252
0.000234272
0.000329068
0.000406557
0.000472428
0.000537317
0.000600815
0.000613079
0.000510139
0.000371541
2.53606e-05
0.000132916
0.000253373
0.000346209
0.000416462
0.000469141
0.000519228
0.000580131
0.000618997
0.000548866
0.000405965
2.6771e-05
0.000144411
0.000270497
0.00036107
0.000424268
0.000465212
0.000501086
0.000552719
0.000606304
0.000573047
0.000434787
2.80369e-05
0.000155313
0.000284398
0.000372223
0.000428344
0.000459749
0.000484744
0.000523306
0.00057579
0.000582282
0.000457685
2.90406e-05
0.000165269
0.000296978
0.000381347
0.000429866
0.000452204
0.000468108
0.000496248
0.000536378
0.000557317
0.000478642
2.97707e-05
0.000174578
0.000308194
0.000388623
0.000429376
0.000442717
0.00044971
0.000468149
0.000497152
0.000517133
0.000484648
3.01547e-05
0.000182939
0.00031823
0.000394703
0.000427649
0.000431973
0.000429868
0.000438906
0.000458437
0.000475404
0.000467898
3.02013e-05
0.000191025
0.00032838
0.00040118
0.000426343
0.000421533
0.000409843
0.000409065
0.00041892
0.000431194
0.000432777
2.98966e-05
0.000199195
0.000339901
0.00041023
0.000428209
0.000414297
0.000392071
0.000379593
0.000379506
0.00038738
0.000390341
2.91434e-05
0.000207734
0.000354601
0.000425727
0.000438681
0.000415819
0.000383027
0.000360145
0.000351297
0.00034995
0.000347965
2.78255e-05
0.000216971
0.000371163
0.000445174
0.00045612
0.000428883
0.000391479
0.000362692
0.000346898
0.000339326
0.000334051
2.50864e-05
0.00021394
0.000368363
0.000451267
0.000471316
0.000446597
0.000404558
0.000369462
0.000350048
0.00034293
0.000342116
2.12636e-05
0.000194385
0.000347759
0.000441879
0.000475373
0.000458159
0.000414674
0.000372733
0.000346171
0.000333984
0.00033103
1.70293e-05
0.000163174
0.000307002
0.00041102
0.000459099
0.000454981
0.000417311
0.000372081
0.000336211
0.000309063
0.000274591
1.23587e-05
0.000113191
0.000250763
0.000358468
0.0004184
0.000430295
0.00040676
0.000364858
0.000324129
0.000281593
0.000223755
8.31227e-06
9.8498e-05
0.000195666
0.000291568
0.000346629
0.000370029
0.000361395
0.000333676
0.000295828
0.000242891
0.000184438
1.82554e-05
1.86542e-05
1.88028e-05
1.9041e-05
1.90287e-05
1.87781e-05
1.81468e-05
1.72689e-05
1.57902e-05
0.00012729
0.000149848
0.000171708
0.00017114
0.000154512
0.000132046
0.000106186
7.13118e-05
4.52693e-05
0.000245654
0.000289154
0.000329495
0.00033826
0.000309812
0.000266817
0.000215497
0.00014859
9.18653e-05
0.000358352
0.000410757
0.000458563
0.000475415
0.000440116
0.00038795
0.000316963
0.000221153
0.000134168
1.73431e-05
1.61206e-05
1.42893e-05
1.08802e-05
7.48147e-06
7.00724e-06
6.79274e-06
7.68458e-06
1.29458e-05
0.000101561
7.04636e-05
4.50174e-05
2.98738e-05
2.48256e-05
2.93917e-05
2.76342e-05
2.40752e-05
2.92633e-05
0.000201598
0.000142551
9.05917e-05
5.39486e-05
3.6913e-05
4.1395e-05
3.89085e-05
3.68908e-05
5.41513e-05
0.000298626
0.000211451
0.000131272
7.57959e-05
4.89845e-05
5.27908e-05
5.28512e-05
5.13695e-05
7.79543e-05
0.000195566
0.000229702
0.000229757
0.000206607
0.000225533
0.000229383
0.000174306
0.000229441
0.000229403
0.00023224
0.000236032
0.000229484
0.00022347
0.000236983
0.00012377
0.00022866
0.000236891
0.000213233
0.000228646
0.000228437
0.000229315
9.31205e-05
0.000229968
0.000242019
0.000229322
0.000236657
0.000223783
0.000156824
0.000364063
0.00013553
0.000238467
0.000239776
0.000238821
0.000229422
0.000242536
0.000229658
0.000243816
0.00022931
0.000238893
0.000229409
2.21747e-05
0.000229458
0.000242764
0.000229942
0.00035359
0.000128825
0.0002534
0.000315719
0.000237593
0.000229079
0.000134886
0.000229401
0.000237022
0.000242929
0.000229061
0.000229143
9.17648e-05
0.000229413
0.000358693
0.000240187
3.01382e-05
0.000236852
0.000239714
0.000156359
4.34765e-05
0.000228432
0.000154714
0.000229794
0.000229703
0.000231803
0.000223986
0.000232171
0.000141115
0.000240926
0.000245522
0.000230942
3.42979e-05
0.000229677
0.000141381
0.000192175
0.00024335
0.000150637
0.000229271
0.000229785
0.000260853
0.000151684
0.000418929
0.000236749
0.000101239
0.000246109
0.000229472
0.000229409
2.71355e-05
0.0002316
0.000205704
0.000318976
0.000246087
0.000247427
0.000104658
0.000234856
0.000259805
0.000365328
0.000229187
0.000252171
9.58165e-05
0.000229481
0.000230623
0.000229865
0.000243089
0.000230342
0.000229367
0.000229509
0.000230103
0.000121547
0.00025274
0.000229001
0.000229379
0.00022879
0.000229303
0.000228563
9.73794e-05
0.000239143
0.000253104
0.00023534
0.000120716
0.00024383
0.000241104
0.000227676
0.000237994
0.000240547
0.000229339
0.000240503
0.00032821
0.000231295
0.000229766
0.0002546
3.83227e-05
0.000125061
0.000144954
0.000240945
0.000242433
0.000230464
0.00037563
0.000166109
0.000229344
0.000104671
0.000164099
0.000229602
0.000233985
0.000228937
0.000228859
0.000229259
8.88628e-05
0.000237371
0.000163112
0.000243319
0.000225695
4.69672e-05
0.000212397
0.000228724
0.000229511
8.5807e-05
0.000231753
0.000229081
0.000151352
0.000244722
8.5658e-05
0.000244663
0.000250735
4.24295e-05
0.000238667
0.000212972
0.00025313
0.000229162
0.000238064
0.000224912
0.000210994
6.84407e-05
0.000347614
0.000202996
0.000229358
7.41251e-05
0.000229952
0.000133063
0.000229281
0.000134338
0.00022911
0.00022873
0.000229641
0.000182738
0.000242826
0.000238762
0.000228415
2.1269e-05
0.000229739
0.00022891
0.000229334
0.000105994
0.000241077
0.00023
6.48145e-05
0.00022912
0.000242286
0.000239317
0.000229822
0.000236808
0.000231027
0.000237959
0.000229215
0.000228636
0.000245539
0.000228982
0.000174375
0.000239236
0.00022931
0.000237034
0.000229352
0.000252392
0.000228993
0.000250071
0.000240253
0.000118203
0.000246646
0.000251721
0.000234249
0.000229419
0.000123886
0.000244494
0.000242203
0.000195682
5.13275e-05
0.000228371
0.00022892
0.000240442
7.85689e-05
0.000317185
0.000236348
0.000229898
0.000229514
0.000229474
0.000253393
0.000162241
0.000252773
1.89484e-05
0.000232833
8.72573e-05
0.000229363
0.000240528
0.000499671
0.00024166
0.000240402
0.000245726
0.000249988
0.000228536
0.000233784
0.000229369
0.0002292
0.000229252
0.000120201
0.000229253
0.000171152
0.000234129
0.000228098
0.000229573
0.000229363
0.000254038
0.000230646
0.000233378
0.000164361
0.000192664
0.000157667
0.000228918
0.000229117
0.000253546
0.000228994
0.000228832
0.000236383
0.000229132
0.00023595
9.52775e-05
0.000233404
0.000229701
0.000243525
0.000239542
0.000234482
0.000228954
0.000292286
0.000229635
0.000236039
0.000242506
0.000229764
0.000180363
0.000249362
0.000240886
0.000230007
0.000229272
0.000250989
0.000229538
0.000241272
0.000236566
0.00022928
6.21682e-05
0.000240073
0.000139413
0.000229146
0.000229299
0.000229672
0.000243653
7.47343e-05
0.000229071
8.95518e-05
0.000229532
0.000222855
0.000238778
5.26841e-05
0.000230362
0.000246305
9.28395e-05
0.000228233
0.000234475
0.000229022
0.000242898
0.000228893
0.000223535
0.000152351
0.000236029
0.000229203
0.000244338
0.000228038
0.000238573
0.000231979
0.00024978
2.63825e-05
0.000229945
0.000216452
0.00038261
0.000219321
0.000229626
0.000229199
0.000247126
7.52889e-05
0.000245934
0.000229091
0.000245903
0.000153248
0.000243659
0.000247263
0.000229003
0.000243402
0.000240367
0.000112346
0.000246205
0.00019207
0.000229168
0.000122985
0.000230036
0.000240609
0.000205718
0.000229941
0.000239238
0.000148735
0.00023786
0.000229381
0.000229328
0.000229311
8.70707e-05
0.000219152
0.0002415
0.000165661
0.000253484
0.000229127
0.000103296
0.000440811
0.000234603
0.000136442
0.000229732
0.000161907
0.000243536
0.000228907
0.000228867
0.000245351
0.00022885
8.03565e-05
0.000229391
0.000238415
0.000212649
6.27505e-05
0.000233714
0.000165664
8.13578e-05
0.000229256
9.1526e-05
0.000231011
0.000246936
0.000208367
4.18255e-05
0.000229287
0.000228787
0.000229817
0.000249734
0.000123887
0.000228945
0.000229995
0.000242429
0.000239398
2.7576e-05
0.000107373
0.00024451
0.000229129
0.000242866
0.000238843
0.000228604
0.000241355
0.000241076
0.000112554
0.000221114
0.00024286
0.000247938
0.000228846
8.68307e-05
0.000168107
0.000203607
0.000213398
0.000242839
0.000233685
0.000230115
0.000239347
7.8077e-05
0.000228832
6.89382e-05
0.000229264
8.445e-05
0.00023534
0.000227949
0.000235411
0.00024074
0.000203802
0.000151115
0.000235566
0.000230036
0.000252276
0.000405275
0.000247052
6.13344e-05
0.000232821
0.000241882
0.000237887
3.6321e-05
0.000228668
6.72759e-05
0.000229256
0.000229732
0.00022931
7.77807e-05
0.000142628
0.000186223
0.000238671
5.80549e-05
8.59286e-05
0.000229634
0.000228658
0.000240933
0.000225408
0.000235134
0.000237121
3.96706e-05
4.27494e-05
2.96836e-05
2.93526e-05
0.00023176
0.000217792
6.06188e-05
0.000229191
3.05802e-05
0.000235012
0.000229613
0.00022895
8.05625e-05
6.83408e-05
0.000228987
0.000229145
0.000229408
0.000167336
6.21372e-05
0.000229883
0.000147982
0.000230163
0.00015487
0.0002407
0.000228639
6.24979e-05
0.000228908
0.000234459
0.000229401
0.000239581
0.000193004
0.000228419
0.0002239
0.000168717
0.00023296
0.000242656
0.000244447
0.000229411
0.000229427
0.00052561
0.000241974
7.02078e-05
0.000232249
0.000337011
0.000229758
0.000190376
0.000114797
8.10298e-05
0.000244258
0.00025878
0.000215892
0.000250243
0.00022415
0.000229171
0.000202196
0.000228275
0.00022969
0.000229074
0.00022957
0.000233721
0.000245509
0.000229354
0.000228697
0.000226362
0.000229295
0.000100237
0.000224491
0.000243873
0.000214573
9.11613e-05
0.000229995
0.000229245
0.00022989
2.03822e-05
6.84346e-05
0.000229316
0.000229305
0.000235295
0.000229783
0.000249806
0.000229728
0.000237735
0.000234968
6.06219e-05
0.000239111
0.000180489
0.000149277
0.00018655
0.000229211
0.000230521
0.000233558
0.000229714
0.00024088
3.47844e-05
0.000223502
0.000240052
0.000109417
0.000218332
0.000229325
0.000229312
0.000229684
0.000238039
0.000236664
9.44848e-05
0.000229443
0.00022929
0.000241471
0.000230109
0.000241642
0.000238487
0.000244348
0.000218678
0.000229286
9.82373e-05
0.000229202
0.00024938
0.000229287
0.000245507
0.000206066
0.000236821
5.36036e-05
0.000245448
0.000229889
0.00022999
0.000240816
0.000228958
0.000204703
0.000155467
0.000249289
0.000238419
7.50378e-05
0.000246941
0.000230284
0.000229347
0.000229252
0.000361333
0.00025367
0.000135913
0.000228415
0.000229349
9.50544e-05
0.000229362
0.000233282
0.000236296
0.000232406
0.000243966
0.000249834
0.000248703
0.000164724
0.000223416
0.000245351
0.000228521
0.000247931
0.000230725
0.000229267
0.000473369
0.000245776
0.000228942
0.000228866
3.91428e-05
0.000229178
0.000228626
0.000151975
0.000229733
0.000234163
0.000250052
0.000240067
0.000170292
0.000237571
0.000212419
8.05528e-05
0.00024331
0.000107529
0.00024975
0.000206464
8.09815e-05
0.00020557
0.000162482
0.000229761
0.00023013
0.000152529
0.000234338
0.000229286
0.000243266
0.000235339
0.000242672
0.000520397
0.000212798
0.000241075
0.000229172
0.000225518
0.000229507
0.000228794
0.000234484
0.000203357
0.000230959
0.000233022
0.000230939
0.000229654
0.00017006
6.1544e-05
0.000201521
0.000230962
0.000229894
0.000188499
0.000241171
0.000233418
0.000286737
0.000230765
0.000236859
0.000242816
0.000229243
0.000242385
0.000229914
0.000238811
0.000145521
0.000243744
0.000470807
0.000227761
0.000260006
0.00022982
0.000123969
0.000224955
8.02201e-05
0.000241163
0.000228965
0.000222398
0.000229805
0.000174726
0.000229686
0.00017156
0.000229492
0.000229437
0.000228957
0.000222107
0.000247901
0.000229543
0.000180775
0.000229197
0.000244373
0.000211975
0.000229602
0.000151488
1.82506e-05
0.00023952
0.000216012
0.00024866
0.000244967
0.000248576
0.000238735
0.000182327
0.000229215
0.000242639
0.000229342
0.000231869
8.35898e-05
0.000221075
5.73929e-05
0.000237024
0.000229947
0.000234207
0.000228562
0.000254541
0.000229619
0.00023985
0.000242625
0.000237725
0.000231265
0.000148457
0.000239957
0.000238678
0.000239706
0.000248335
6.48021e-05
8.38295e-05
0.00022941
0.000237972
0.000104599
0.000229491
0.000111224
0.000160303
0.000240969
0.000239329
0.000229319
0.000233528
0.000233166
0.00017789
0.00023409
0.000233246
0.000229578
0.000238821
0.000232986
0.000240343
0.000241809
0.000245991
0.000243046
0.000228722
0.00020606
0.000174984
0.00022919
0.000237097
0.000197705
0.000242305
0.00025055
4.85909e-05
0.000246192
0.000253198
0.000239179
0.00025401
0.000228776
0.000260855
0.000229149
0.000246922
2.97233e-05
0.000230045
0.000229291
0.000258461
0.000237022
0.000243361
0.000247313
0.000229575
0.000243476
0.00025322
0.000229506
0.000229607
0.000229826
0.000229336
0.000232782
0.000213959
9.12813e-05
0.000106889