# Force coefficients
# liftDir    : (0.000000e+00 1.000000e+00 0.000000e+00)
# dragDir    : (1.000000e+00 0.000000e+00 0.000000e+00)
# pitchAxis  : (0.000000e+00 0.000000e+00 1.000000e+00)
# magUInf    : 2.800000e+00
# lRef       : 3.200000e-02
# Aref       : 3.200000e-02
# CofR       : (0.000000e+00 0.000000e+00 0.000000e+00)
# Time       	Cm           	Cd           	Cl           	Cl(f)        	Cl(r)        	Cm	Cd	Cl	Cl(f)	Cl(r)
1.418253e-07	3.193503e-03	9.783800e-03	-5.626800e-03	3.801028e-04	-6.006902e-03
7.542174e-06	5.663056e-04	7.346790e-03	-3.916148e-03	-1.391768e-03	-2.524379e-03
1.079125e-04	1.593627e-03	4.965638e-03	-1.864370e-03	6.614422e-04	-2.525812e-03
1.087004e-03	2.824014e-03	4.765737e-03	-8.604760e-04	2.393776e-03	-3.254252e-03
