/*--------------------------------*- C++ -*----------------------------------*\
| =========                 |                                                 |
| \\      /  F ield         | OpenFOAM: The Open Source CFD Toolbox           |
|  \\    /   O peration     | Version:  3.0.1                                 |
|   \\  /    A nd           | Web:      www.OpenFOAM.org                      |
|    \\/     M anipulation  |                                                 |
\*---------------------------------------------------------------------------*/
FoamFile
{
    version     2.0;
    format      ascii;
    class       volScalarField;
    location    "0";
    object      yPlus;
}
// * * * * * * * * * * * * * * * * * * * * * * * * * * * * * * * * * * * * * //

dimensions      [0 0 0 0 0 0 0];

internalField   uniform 0;

boundaryField
{
    FrontAndBack
    {
        type            empty;
    }
    patch1
    {
        type            calculated;
        value           nonuniform List<scalar> 
148
(
0.37034
0.363041
0.35174
0.343832
0.339243
0.334544
0.334455
0.331732
0.333945
0.342905
0.354572
0.366525
0.371519
0.376814
0.386194
0.390208
0.39609
0.40374
0.403761
0.406855
0.414617
0.417701
0.419558
0.421585
0.423895
0.427269
0.430762
0.437592
0.438263
0.438913
0.443053
0.447343
0.448398
0.449546
0.454111
0.455387
0.456751
0.458142
0.4596
0.461126
0.462697
0.46433
0.466064
0.467862
0.466369
0.464954
0.466984
0.465915
0.461644
0.460718
0.46004
0.456273
0.455828
0.452417
0.449197
0.449376
0.443513
0.437408
0.431851
0.426427
0.421199
0.412882
0.401588
0.391499
0.384707
0.370716
0.353503
0.339578
0.321368
0.296583
0.329875
0.387047
0.395574
0.390472
0.372875
0.376502
0.375393
0.371366
0.365539
0.365919
0.365603
0.360512
0.354962
0.351577
0.350972
0.351888
0.356987
0.359729
0.358654
0.35734
0.36198
0.365601
0.366915
0.372304
0.378114
0.385175
0.392993
0.397948
0.400246
0.406192
0.412447
0.415603
0.419013
0.429319
0.436346
0.440175
0.444099
0.448129
0.452184
0.452923
0.457017
0.4611
0.461887
0.462632
0.463306
0.463969
0.464574
0.461789
0.458994
0.459459
0.456503
0.450112
0.443686
0.437196
0.434005
0.430752
0.42078
0.410696
0.403938
0.390499
0.380218
0.370119
0.353176
0.339566
0.32609
0.309135
0.288877
0.268639
0.248331
0.228048
0.204553
0.177638
0.150778
0.145238
0.29057
0.358381
0.379961
0.373115
)
;
    }
    patch2
    {
        type            calculated;
        value           nonuniform List<scalar> 
148
(
0.366552
0.361619
0.353664
0.347393
0.340917
0.335143
0.334004
0.335361
0.339831
0.34812
0.356566
0.363984
0.374884
0.383853
0.389938
0.39281
0.394444
0.39956
0.404967
0.410562
0.416004
0.42148
0.423139
0.424794
0.430583
0.429251
0.431271
0.437687
0.440046
0.444385
0.446994
0.446714
0.448212
0.452724
0.452693
0.452631
0.455973
0.45948
0.45954
0.459593
0.464316
0.466329
0.463741
0.461231
0.463495
0.465857
0.463568
0.463561
0.463661
0.461685
0.45978
0.457974
0.456134
0.452108
0.450603
0.451638
0.448099
0.442347
0.436749
0.431291
0.423742
0.411648
0.404394
0.39514
0.381298
0.367106
0.353472
0.33784
0.318933
0.300559
0.353742
0.390061
0.397499
0.390306
0.369618
0.374449
0.375301
0.376037
0.371598
0.369372
0.362273
0.354879
0.35695
0.357972
0.353794
0.351206
0.353248
0.355153
0.35535
0.357086
0.363183
0.367691
0.368253
0.37242
0.379713
0.382391
0.388389
0.397699
0.403621
0.40815
0.414259
0.421056
0.425084
0.427708
0.430504
0.436487
0.444024
0.448639
0.451883
0.452138
0.456902
0.461624
0.461931
0.462218
0.462496
0.462714
0.459852
0.459995
0.460047
0.455612
0.45554
0.455404
0.447687
0.441353
0.435087
0.425689
0.42072
0.414187
0.403097
0.390476
0.379244
0.368004
0.353683
0.337963
0.323615
0.309307
0.289082
0.270191
0.25135
0.229612
0.207842
0.181848
0.156446
0.175312
0.316002
0.363439
0.375365
0.366538
)
;
    }
    patch3
    {
        type            calculated;
        value           nonuniform List<scalar> 
148
(
0.3698
0.361187
0.356587
0.350007
0.34154
0.334155
0.331444
0.332839
0.342102
0.348739
0.35466
0.366157
0.37412
0.381453
0.387348
0.392595
0.400476
0.406853
0.407423
0.409136
0.415531
0.419954
0.421933
0.424112
0.426604
0.429135
0.434234
0.439472
0.439739
0.440002
0.441033
0.444201
0.446588
0.44996
0.45343
0.45126
0.452041
0.455861
0.461338
0.46385
0.461884
0.459965
0.462526
0.463786
0.46076
0.462245
0.463798
0.462299
0.464047
0.465863
0.463596
0.460456
0.458475
0.456637
0.450835
0.44926
0.448625
0.443246
0.43402
0.424977
0.419369
0.411351
0.402831
0.393809
0.381642
0.370161
0.358755
0.340295
0.321738
0.302
0.349561
0.392918
0.396753
0.387663
0.375434
0.377128
0.376656
0.37306
0.368636
0.368499
0.365425
0.36105
0.361096
0.356169
0.354752
0.359255
0.358608
0.355903
0.357878
0.361028
0.365469
0.367067
0.36651
0.373273
0.38086
0.386086
0.390613
0.395621
0.4011
0.406972
0.413209
0.418002
0.423027
0.428207
0.43171
0.437196
0.440006
0.445735
0.454225
0.455377
0.456555
0.460482
0.461685
0.462867
0.464032
0.460472
0.461573
0.462581
0.461616
0.459789
0.455101
0.453096
0.446353
0.437619
0.433504
0.429328
0.422329
0.412475
0.4044
0.396231
0.384344
0.369712
0.356709
0.343806
0.328021
0.310421
0.291004
0.270678
0.249102
0.230419
0.208414
0.17898
0.151352
0.158719
0.300289
0.35879
0.375163
0.366357
)
;
    }
    Shaft
    {
        type            calculated;
        value           nonuniform List<scalar> 
18
(
12.2052
12.1534
12.1161
12.0936
12.0861
12.0936
12.1161
12.1534
12.2052
12.2052
12.1534
12.1161
12.0936
12.0861
12.0936
12.1161
12.1534
12.2052
)
;
    }
    Inlet
    {
        type            calculated;
        value           uniform 0;
    }
    Lat-Wall
    {
        type            calculated;
        value           nonuniform List<scalar> 
108
(
740.407
760.487
723.189
935.929
895.769
826.093
998.315
738.797
833.83
1076.13
694.881
649.533
808.741
818.714
836.558
814.421
730.613
714.603
783.608
875.957
928.684
896.574
686.383
838.704
694.881
936.689
896.663
570.555
760.487
649.533
840.359
714.603
666.348
928.371
686.383
730.613
751.856
711.696
675.069
893.846
852.076
808.786
787.454
746.713
656.152
853.597
842.014
858.113
657.896
773.903
740.407
720.819
738.797
990.399
567.067
681.643
710.22
521.675
514.653
753.197
686.249
801.899
721.087
639.292
404.862
783.16
383.262
771.891
732.402
695.194
597.209
627.62
635.491
587.639
674.935
555.171
625.384
569.974
606.377
583.793
602.71
479.905
673.191
570.689
671.894
569.392
625.07
621.18
648.549
583.435
646.894
711.517
647.029
482.409
758.564
483.17
571.807
604.901
435.854
593.095
543.096
681.375
578.247
546.763
613.175
512.149
543.454
504.636
)
;
    }
    Outlet
    {
        type            calculated;
        value           uniform 0;
    }
    AMI-St
    {
        type            cyclicAMI;
        value           uniform 0;
    }
    AMI-Rt
    {
        type            cyclicAMI;
        value           uniform 0;
    }
}


// ************************************************************************* //
