/*--------------------------------*- C++ -*----------------------------------*\
| =========                 |                                                 |
| \\      /  F ield         | OpenFOAM: The Open Source CFD Toolbox           |
|  \\    /   O peration     | Version:  3.0.1                                 |
|   \\  /    A nd           | Web:      www.OpenFOAM.org                      |
|    \\/     M anipulation  |                                                 |
\*---------------------------------------------------------------------------*/
FoamFile
{
    version     2.0;
    format      ascii;
    class       volScalarField;
    location    "0.0602309";
    object      epsilon;
}
// * * * * * * * * * * * * * * * * * * * * * * * * * * * * * * * * * * * * * //

dimensions      [0 2 -3 0 0 0 0];

internalField   nonuniform List<scalar> 
21246
(
168.572
143.031
99.4637
81.5924
64.5605
39.61
18.1959
7.37052
2.85808
1.1494
0.544817
151.054
110.999
83.2231
69.5423
56.1068
36.0813
16.5832
5.8474
2.08001
0.785207
0.355266
97.4245
79.3825
63.2519
54.2554
44.5596
29.6494
14.1434
4.82367
1.57037
0.556159
0.234616
63.9476
55.5509
45.8267
40.0688
33.2109
22.3976
10.935
3.81419
1.18659
0.403678
0.162979
51.1872
38.1196
32.6418
28.7718
23.7343
15.949
7.86806
2.84452
0.894937
0.300879
0.119696
41.6902
26.7017
23.1495
20.3018
16.5834
10.985
5.4537
2.05811
0.68023
0.232969
0.0936601
33.8664
19.4374
16.6171
14.2826
11.4628
7.51393
3.76764
1.49698
0.528683
0.190869
0.0784031
28.2565
14.8041
12.2565
10.2464
8.03827
5.23157
2.68198
1.13193
0.430967
0.165625
0.070131
24.1429
11.8404
9.47605
7.70198
5.90628
3.83209
2.03704
0.917674
0.375878
0.15284
0.0664082
21.1122
9.97251
7.7947
6.19388
4.66281
3.05299
1.69338
0.810997
0.352685
0.149268
0.0658971
18.8723
8.83494
6.80663
5.33931
4.00098
2.66389
1.53811
0.774167
0.351279
0.152201
0.0674548
17.2615
8.12468
6.22546
4.87216
3.67134
2.4954
1.49082
0.778877
0.3637
0.159665
0.0708111
16.1452
7.68466
5.88522
4.62599
3.52565
2.44875
1.50572
0.809689
0.386027
0.170894
0.0757602
15.3336
7.44549
5.70157
4.50941
3.48251
2.4708
1.55924
0.860063
0.41774
0.186248
0.0822263
14.7666
7.29756
5.5979
4.45723
3.48888
2.52722
1.63577
0.925789
0.459008
0.20663
0.0910147
14.4232
7.22808
5.55193
4.44831
3.52886
2.61084
1.73613
1.01177
0.514567
0.23485
0.103184
14.2224
7.24888
5.57086
4.48603
3.60704
2.7309
1.87341
1.13136
0.594636
0.276908
0.121395
14.1974
7.34131
5.65086
4.57354
3.73333
2.90354
2.06824
1.3057
0.716118
0.343025
0.150525
14.3394
7.5149
5.80844
4.73461
3.94151
3.17113
2.36654
1.5774
0.91199
0.453758
0.200094
14.6484
7.78108
6.08186
5.03117
4.31822
3.63477
2.8689
2.03375
1.24826
0.651321
0.292063
15.0329
8.07049
6.57208
5.64979
5.11077
4.56491
3.82308
2.87199
1.86524
1.02461
0.47511
16.1583
9.16202
7.93849
7.44938
7.42774
7.07604
6.11706
4.6849
3.12362
1.78266
0.860802
19.6369
21.6259
28.0123
30.5641
29.2298
24.3376
17.171
10.6573
6.45437
3.5863
1.76526
338.461
208.046
140.66
103.894
80.1604
62.6522
47.9957
33.155
18.9655
9.56674
4.43735
200.551
116.917
93.1973
81.3615
65.504
44.058
23.6835
10.6288
4.37261
1.80917
0.851123
166.096
63.5101
58.1789
62.1698
62.2974
53.3489
35.5757
18.0576
7.74211
3.17805
1.42997
140.524
47.7717
39.0332
42.705
48.6058
51.4939
45.4447
29.0704
13.9176
5.86517
2.55615
134.201
47.2391
33.817
32.5235
35.6221
40.4594
42.6866
36.3681
23.6288
11.6696
4.80019
128.089
46.6551
32.3007
28.4364
28.4796
31.3651
35.6209
36.4753
28.873
17.6462
8.4303
124.197
45.9569
31.7603
26.6971
24.7937
25.4262
28.6816
32.5817
30.9377
22.1105
12.3598
122.08
45.5138
31.7996
26.0251
22.879
21.7779
23.2603
27.3121
29.7504
24.7207
15.8606
121.224
45.7644
32.4168
26.0362
22.0092
19.7118
19.6555
22.5462
26.7
25.4881
18.3507
122.347
46.6608
33.5349
26.5245
21.7978
18.7098
17.6498
19.2775
23.7562
25.1081
19.6385
125.547
48.2134
35.1271
27.3946
22.0293
18.4106
16.834
17.6071
21.4556
25.1719
20.4958
131.488
51.0915
37.1602
28.618
22.5917
18.586
16.8091
17.167
20.1517
26.1094
22.1933
139.341
54.6656
39.7708
30.2737
23.4398
19.0402
17.1639
17.4285
19.6569
24.4081
26.6266
149.525
59.1727
43.0427
32.4162
24.5837
19.6191
17.4957
17.559
19.2811
22.5433
26.916
162.369
64.889
47.2496
35.2001
26.0756
20.2831
17.6929
17.3593
18.4768
20.5929
23.1824
178.226
72.2858
52.7736
38.9312
28.0753
21.0634
17.7191
16.7882
17.2015
18.3338
19.7074
199.376
81.9319
60.1895
44.1781
31.0319
22.2494
17.7654
16.041
15.7722
16.2286
16.9677
228.056
94.6572
70.7559
52.5659
36.5019
24.9209
18.3443
15.1502
13.829
13.5793
14.034
266.655
110.75
84.5475
64.7666
46.3507
31.8165
22.6662
17.8634
15.5565
14.5828
14.3061
279.07
120.896
94.3083
74.2978
55.1117
39.308
28.8586
23.1081
20.383
19.4297
19.3596
286.925
122.583
98.2686
80.6098
62.3145
45.7726
33.9423
27.1303
23.9786
23.4234
24.8156
303.839
125.206
100.71
84.0317
66.6327
50.0622
37.4301
29.6372
25.5151
24.0687
22.6892
336.202
130.72
103.204
84.8836
67.8017
51.712
39.176
31.1485
26.4662
23.9206
18.5402
415.139
156.813
107.851
83.4257
65.4415
51.0781
40.3092
32.9842
28.0133
22.6909
15.1486
894.769
187.101
116.781
80.1774
62.9496
50.9401
41.9244
34.8023
27.2641
18.0142
10.2459
2578.05
845.978
288.078
81.2444
22.0347
6.07885
1.70911
0.49453
0.154635
0.0583899
0.0295252
1573.86
478.059
193.338
66.2703
20.8542
6.39188
1.91135
0.564515
0.173255
0.0618385
0.0294347
1080.46
341.514
150.005
66.4597
25.2078
8.37038
2.56632
0.754537
0.223125
0.0736451
0.0321446
845.503
278.231
122.972
59.3357
24.6742
8.9389
2.89873
0.868806
0.25405
0.081735
0.0350253
696.22
227.114
101.669
50.4364
21.4444
8.09676
2.75637
0.869559
0.265505
0.0869361
0.0366389
593.921
186.139
84.674
42.5431
18.2832
7.06461
2.48574
0.818483
0.261545
0.0886497
0.0381307
518.911
156.286
71.5937
35.8177
15.4913
6.05905
2.18067
0.743822
0.248465
0.087855
0.0386109
460.602
133.636
61.2866
30.4407
13.1919
5.18792
1.8942
0.663609
0.230019
0.0845633
0.0391368
416.954
116.383
53.2293
26.2655
11.3781
4.48187
1.65036
0.589725
0.211101
0.0808782
0.0390888
385.374
103.526
47.1112
23.1314
10.0092
3.93989
1.45666
0.527728
0.194006
0.077166
0.0384057
360.948
93.6702
42.3774
20.7528
8.97626
3.52945
1.307
0.478039
0.179427
0.0734838
0.0378321
341.445
85.6691
38.531
18.867
8.17321
3.2142
1.19175
0.439112
0.167692
0.0704652
0.0373449
328.261
79.4047
35.4974
17.4215
7.57439
2.98359
1.1077
0.410497
0.159013
0.0682715
0.0369785
321.196
74.9813
33.2793
16.4111
7.17792
2.83629
1.05424
0.3922
0.153535
0.0669092
0.0368184
318.782
71.7405
31.5882
15.7021
6.93515
2.75778
1.02772
0.383513
0.151276
0.0665317
0.0369787
321.245
70.3663
30.5751
15.3519
6.88618
2.76532
1.03268
0.386046
0.152897
0.0674073
0.0375926
328.224
71.9957
30.6108
15.474
7.13173
2.94584
1.12032
0.420194
0.165503
0.072017
0.0393395
342.036
75.8078
31.6322
16.0697
7.67962
3.31723
1.31203
0.501424
0.196747
0.0836773
0.0435914
364.984
82.5149
34.0029
17.3266
8.62609
3.95103
1.66093
0.663046
0.263619
0.109838
0.0532555
401.499
93.4141
38.3543
19.5928
10.1674
4.98308
2.26909
0.974476
0.406278
0.170494
0.0773519
460.637
110.782
45.7483
23.4871
12.6749
6.66671
3.32851
1.57756
0.718373
0.319928
0.144195
563.038
137.579
57.7246
30.0184
16.8344
9.49419
5.2185
2.76807
1.41714
0.703644
0.342288
753.106
181.749
77.6895
41.2993
24.1552
14.5758
8.78872
5.21394
3.02255
1.70862
0.942475
1164.39
186.313
91.957
56.1827
36.6341
24.3624
16.205
10.6779
6.93585
4.42844
2.77591
2994.52
2086.17
429.008
142.876
40.6088
10.1319
2.52159
0.65953
0.190182
0.0663055
0.0311206
3868.12
2594.21
937.079
326.04
87.4713
19.2229
4.63184
1.12787
0.289912
0.0883183
0.0378519
3298.67
2236
1055.87
426.469
141.017
30.9953
7.68212
1.90923
0.471479
0.130572
0.049653
2256.8
1846.45
1003.98
444.367
164.538
42.2398
10.9445
2.91018
0.737417
0.197842
0.0707706
1423.85
1588.95
918.941
427.654
168.522
48.8496
13.7132
3.96837
1.06906
0.290406
0.101242
909.767
1424.96
842.6
404.856
165.386
52.589
15.7923
4.95143
1.43504
0.402569
0.135167
623.993
1298.21
782.51
384.504
160.731
54.7492
17.7487
5.82476
1.80694
0.531908
0.180433
467.863
1195.94
733.576
365.793
155.419
55.9908
19.4536
6.74866
2.176
0.672484
0.231983
384.499
1107.82
693.497
349.301
150.413
56.9349
21.0214
7.71004
2.63768
0.843819
0.289446
338.909
1026.44
660.165
335.469
146.337
57.988
22.6353
8.76014
3.17714
1.06575
0.372435
310.685
942.549
633.533
325.839
144.213
59.674
24.5206
9.99147
3.83679
1.3577
0.483714
291.153
865.415
611.435
318.759
143.41
61.8476
26.6985
11.4459
4.65545
1.7479
0.634926
279.472
800.744
591.157
313.951
144.242
64.7443
29.3171
13.2201
5.69705
2.27983
0.85538
269.339
735.071
571.26
312.779
147.496
68.7846
32.6116
15.462
7.06235
3.01873
1.19691
260.931
672.768
550.284
313.713
152.62
73.9303
36.6868
18.3029
8.87219
4.0605
1.72681
255.832
613.846
527.627
316.278
159.847
80.5233
41.8198
21.9777
11.3235
5.5672
2.55843
252.621
555.645
502.453
319.686
169.291
88.9405
48.3958
26.8292
14.7127
7.79047
3.89589
251.807
501.144
473.713
322.079
180.43
99.4517
56.8794
33.3341
19.474
11.1103
6.05435
254.941
449.889
439.815
320.341
191.97
112.25
67.9618
42.244
26.3026
16.1333
9.58122
273.271
412.977
401.35
312.418
203.114
128.348
83.2934
55.1464
36.515
23.9612
15.3496
320.52
357.451
347.994
289.659
209.797
147.57
104.324
73.7538
51.6754
35.921
24.5036
552.891
334.761
275.308
240.198
185.483
141.315
107.198
80.5819
59.9303
44.1906
31.8629
643.56
401.286
384.067
281.774
212.362
160.767
119.928
87.115
61.4249
42.2405
28.2322
1604.37
866.885
491.759
299.4
190.568
123.675
80.6026
52.3372
33.7122
21.4818
13.4869
1003.7
495.646
104.673
29.2261
7.52493
2.24966
0.973329
0.641209
0.548867
0.533034
0.550802
1289.57
720.826
226.586
64.2332
12.5511
3.24643
1.19861
0.698185
0.569757
0.54833
0.569949
1247.7
686.909
291.242
101.087
26.5426
5.3182
1.50225
0.767897
0.59049
0.561157
0.590459
988.751
616.613
314.624
126.869
40.7655
9.79017
2.10491
0.842493
0.606341
0.567473
0.602915
691.279
559.542
324.762
148.713
55.6049
16.049
3.68433
1.03012
0.617114
0.565169
0.6037
434.646
506.109
330.581
171.326
73.1462
24.9099
6.70702
1.67336
0.684801
0.555383
0.593858
240.729
449.414
334.445
194.436
93.3959
36.7616
11.7298
3.16322
0.969217
0.57247
0.574477
140.538
424.431
345.62
218.046
115.089
51.0707
18.9127
5.87556
1.70775
0.697685
0.565472
161.754
417.694
366.881
243.935
137.892
67.2218
28.1252
10.0472
3.16648
1.06853
0.610596
182.459
379.104
395.328
278.808
165.062
85.8864
39.4143
15.8294
5.58797
1.86506
0.791141
158.312
251.363
389.675
320.127
200.126
108.739
53.1224
23.2988
9.12216
3.25901
1.21901
126.42
158.787
320.823
347.278
242.444
137.775
70.1277
32.6633
13.8674
5.37852
2.0124
102.569
106.203
220.216
331.018
283.11
174.508
92.3367
44.7699
20.1293
8.38106
3.29209
86.9766
76.8189
145.986
269.223
302.054
215.758
121.574
61.1031
28.5987
12.5635
5.21589
79.7449
61.6736
104.131
193.585
281.384
249.159
156.442
82.7191
40.1318
18.3817
8.01982
81.0732
56.0192
80.7134
135.817
229.465
257.058
189.616
108.979
55.4546
26.4635
12.0809
90.8188
57.0788
68.9291
101.749
169.99
232.419
208.741
135.658
74.1565
37.2773
17.8671
111.014
64.4892
65.4752
82.2921
123.888
191.342
208.107
157.251
94.5521
50.8039
25.8021
146.902
79.0983
69.8563
75.8815
98.9916
149.812
198.249
175.818
116.965
67.5274
36.3767
205.731
102.543
82.8109
82.5153
96.7247
127.758
175.052
195.885
147.257
89.6073
50.6413
304.314
141.932
110.594
102.947
108.241
125.607
155.249
187.952
185.383
117.666
67.5586
471.301
243.936
206.83
185.284
159.538
139.101
127.738
126.669
130.711
113.704
71.7732
1375.88
702.527
690.772
665.428
625.525
552.089
441.789
330.109
231.851
148.85
88.7951
1217.38
808.579
635.902
540.614
458.306
369.969
276.998
195.146
132.419
87.9594
57.8472
896.381
251.99
78.5171
19.7102
5.2633
1.78008
0.870614
0.608537
0.529413
0.51391
0.527256
757.956
203.309
63.1461
19.311
5.66176
1.95194
0.914355
0.610262
0.516916
0.495279
0.504598
727.59
221.816
61.417
22.1084
7.4452
2.51913
1.04729
0.633859
0.5116
0.481738
0.489363
639.685
202.599
56.4171
22.9585
8.49504
3.09698
1.23814
0.672878
0.506055
0.462556
0.466897
552.111
169.452
50.5906
21.555
8.22146
3.13891
1.27738
0.659212
0.467568
0.417471
0.424003
482.034
139.807
44.8839
19.67
7.69744
3.04625
1.24913
0.631498
0.431515
0.375882
0.379237
427.356
117.029
39.8886
17.7626
7.04187
2.86723
1.19811
0.604828
0.402042
0.340119
0.337731
383.123
99.6232
35.6259
15.9917
6.40223
2.66336
1.13377
0.575796
0.374959
0.306243
0.293885
349.722
86.3307
32.0372
14.4631
5.85711
2.47005
1.07
0.548029
0.35174
0.278593
0.258998
324.958
76.585
29.1538
13.2026
5.41498
2.30479
1.01389
0.524501
0.333983
0.258172
0.232803
308.183
69.4276
26.8936
12.2394
5.07794
2.17675
0.970079
0.507174
0.322377
0.245331
0.215695
296.485
63.9124
25.0372
11.4879
4.82229
2.08237
0.939581
0.497341
0.317887
0.241134
0.209546
290.383
59.7624
23.5699
10.9326
4.64579
2.02338
0.924409
0.496498
0.32138
0.246323
0.216839
289.734
57.3474
22.5255
10.5848
4.55938
2.00592
0.927951
0.506388
0.333579
0.260921
0.235418
292.578
56.9558
22.059
10.4894
4.6094
2.05423
0.961485
0.531245
0.355475
0.284207
0.265199
299.719
58.5975
22.2833
10.6753
4.84205
2.20717
1.0519
0.585031
0.394335
0.319639
0.305182
312.17
62.7668
23.4607
11.251
5.30391
2.49899
1.22164
0.6814
0.45704
0.370013
0.355637
332.183
69.6926
25.886
12.3822
6.07449
2.98701
1.51163
0.84753
0.55954
0.444172
0.420304
363.331
80.2415
30.1054
14.3981
7.32894
3.7837
2.00064
1.13811
0.737235
0.563729
0.511495
412.222
96.483
37.163
17.9378
9.44347
5.12405
2.84936
1.66628
1.06875
0.781872
0.664064
492.876
122.351
49.035
24.2261
13.2079
7.5255
4.41239
2.68451
1.73636
1.23079
0.975935
638.528
166.345
69.7308
35.7704
20.3142
12.1532
7.5092
4.78263
3.17446
2.23692
1.69895
945.8
259.838
113.324
60.3099
35.6475
22.3164
14.4736
9.65367
6.64004
4.75391
3.57057
1906.68
470.197
220.659
127.311
80.4105
52.792
35.2802
24.0156
16.7636
12.1019
9.08603
11.1471
23.3336
60.9813
84.6121
99.3039
109.016
112.901
117.107
119.668
10.4719
28.3587
36.7219
38.3366
37.5263
37.0608
36.4854
37.5481
38.3455
11.9911
26.7987
28.0463
24.028
20.2011
18.674
18.3096
19.3967
20.328
13.3472
22.7021
19.7564
14.8961
11.9556
10.3708
9.54974
10.2795
10.9804
9.96283
8.01015
19.7467
60.2343
90.7019
110.148
122.238
127.567
125.306
5.50411
9.07137
23.7746
35.1319
39.3396
39.1147
38.5575
38.9288
38.3488
5.91979
9.91109
20.7733
26.4447
24.7499
20.9059
19.4079
20.1037
20.3071
6.69753
9.57336
17.1669
19.0128
15.4186
11.9832
10.8168
10.9582
11.0351
0.00906923
0.00829336
0.00834746
0.00775549
0.00961622
0.00774649
0.417593
0.00808058
0.00780813
0.00870966
0.00993731
0.00811635
0.00843074
0.00791618
0.0147247
0.0082617
0.00800051
0.00774601
0.00839239
0.00985729
0.00868385
0.120678
0.0085194
0.00849386
0.00792384
0.00789245
0.00846405
0.384147
1.20602
0.00853629
0.00808818
0.00882789
0.00839497
0.00806428
0.00901526
0.0082625
0.00847339
0.00790681
0.00844972
0.00779357
0.580802
0.00809554
0.00817321
0.00849388
0.091481
0.621453
0.00897471
0.385004
0.00894579
0.00939865
0.00847579
0.00776907
0.00870421
0.00818341
0.00968316
0.00875561
0.0887133
0.00777982
1.14385
0.00846125
0.085285
0.00859229
0.00997986
0.00841533
1.43409
0.00965815
0.00835137
0.0110351
0.00829588
0.00872142
0.00782895
0.0100584
0.00827851
0.0100966
0.00944833
0.0103964
0.0829762
0.00827597
0.0474507
0.0723672
0.00844356
0.00843331
0.00793364
0.00837981
0.00875148
0.00828745
1.45478
0.00828186
0.0113442
0.00887362
0.0080898
0.00775894
0.86303
0.0100943
0.0769787
0.537019
0.00938359
0.00880747
0.0105367
0.0101606
0.00929696
0.398518
0.00914578
0.00808725
0.00909539
0.00811359
0.00794494
0.00845235
0.00864837
0.00883
0.00796927
0.00814673
0.0109255
0.00782108
0.00788697
0.00772933
0.00798087
0.00997649
0.00792786
0.00978585
0.00794027
0.0101573
0.00992241
0.00789964
0.820308
0.00914732
0.00835108
0.0078291
0.00834712
0.00826577
0.00780065
0.00848129
0.376912
0.0102702
0.00834011
0.00929885
0.0383731
0.00849558
0.00862726
0.00893038
0.00817229
0.00879376
0.227831
0.00941262
0.00810616
0.00865644
0.0104943
0.0110564
0.00907178
0.0150699
0.00989181
0.0077
0.00865849
0.0100446
0.00777111
0.00865425
0.00819875
0.0139555
0.00803712
0.00787471
0.00793986
0.00903928
0.0101487
0.00773594
0.00823568
0.00899207
0.0156804
0.00958673
0.00930755
1.4363
0.00829547
0.00781262
0.0100005
0.00834272
0.0088042
0.00814362
0.00830908
0.00888503
0.0976024
0.00823527
0.0109272
0.0778052
0.00850049
0.00943673
0.00793822
0.00791614
0.0101222
0.0105525
0.00824832
0.0475375
0.00869753
0.00787598
0.00922243
0.528179
0.00832438
0.00770796
0.00812129
0.00988264
0.00830834
0.00856733
0.00950645
0.00969795
0.00860851
0.00790324
0.00838739
0.00828477
0.0100927
0.00838326
0.00860701
0.00810372
0.00899804
0.00767336
0.00948616
0.00893523
0.00791451
0.00841936
0.00797501
0.00872921
0.0105542
0.00806948
0.00827615
0.00784583
0.00927586
0.00789794
0.00790572
0.00774938
0.00952562
0.0092618
0.00845513
0.00931502
0.0128634
0.00944816
0.00997922
0.0102281
0.00879984
0.676101
0.00821534
0.00845291
0.00813597
0.00809473
0.00872198
0.00791388
0.00805139
0.35225
0.00986417
0.00915957
0.0080034
0.00805014
0.296286
0.00803
0.00802387
0.00891954
0.0103394
0.00888655
0.00866746
0.00796039
0.00917062
0.00785949
0.00892904
0.0100978
0.00875288
0.00973946
0.00826863
0.00819271
0.00796404
0.00869478
0.00877132
0.00980573
0.0170447
0.00817659
0.0101861
0.00894288
0.00999828
0.00894813
0.00771248
0.00945854
0.00796392
0.00776686
0.00896917
0.00905487
0.0100038
0.0082753
0.00843684
0.0082002
0.00858831
0.00773687
0.370062
0.00823532
0.00890811
0.00820011
0.00833911
0.294496
0.00971918
0.00832833
0.00856546
0.00839247
0.00926267
0.00815753
0.00899445
0.00800764
0.00777784
0.00851908
0.00898366
0.00858185
0.00938532
0.00883649
0.00827732
0.0092572
0.0653675
0.00879182
0.714928
0.00815922
0.00858735
0.00835486
0.204274
0.00900597
0.00798066
0.00988128
0.00895659
0.00979356
0.0105059
0.00870345
0.0078688
0.00765629
0.00936974
0.00897232
0.00779447
0.00792708
0.00949951
0.00850233
0.00989718
0.010341
0.0688453
0.00846828
0.00827209
0.2793
0.00817204
0.00823518
0.00784642
0.00876876
0.012836
0.00886095
0.0100825
0.00916165
0.00987091
0.00922936
0.00831544
0.00777622
0.00855693
0.00830427
0.718592
0.00866834
0.00823224
0.0100816
0.0107601
0.00860266
0.00823828
0.00861294
0.00849831
0.00837676
0.00941861
0.00789628
0.00800103
0.00798816
0.00962521
0.0137952
0.00786134
0.00847538
0.660443
0.00986451
0.00774808
0.0102352
0.265594
0.00813258
0.00994586
0.00830917
0.00969556
0.00901848
0.00784043
0.0152545
0.00844239
0.00782859
0.00911583
0.00772429
0.00784514
0.00840522
0.00830859
0.0079282
0.00793846
0.0181395
0.00772188
0.468053
0.00796642
0.0102695
0.00838346
1.3964
0.00787551
0.0153939
0.00835776
0.00847077
0.00886
0.00771485
0.00851118
0.00822301
0.00821323
0.835441
0.0879176
0.00939199
0.00963541
0.00869584
0.00930527
0.00856219
0.00836636
0.00837693
0.0088019
0.00856061
0.00876409
0.0105357
0.00814614
0.188983
0.00900288
0.00835157
0.532442
0.00835162
0.00818471
0.00877951
0.0100508
0.0218158
0.0129376
1.53747
0.00789816
0.00903526
0.00805035
0.00865248
0.0112254
0.00818138
0.00856507
0.00862988
0.00790848
0.00860004
0.00801895
1.31642
0.00806703
0.00836485
0.00879903
0.00833528
0.00834746
0.0141379
0.00806451
0.009183
0.00775525
0.00833479
0.00793516
0.0623522
0.0110641
0.671784
0.00829591
0.00949864
0.0199335
0.00825492
0.00815726
0.00833524
0.00805322
0.0086778
0.00926492
0.115954
0.0916205
0.0902243
0.0916647
0.010014
0.00803821
0.00855869
0.0143526
0.0827008
0.0090464
0.00822546
0.00863166
0.0350197
0.00931778
0.0100464
0.00778806
0.0089327
0.00859841
0.0732292
0.00845135
0.00839946
0.0119358
0.00994839
0.00824293
0.0080542
0.0100481
0.00776336
0.00900141
0.00773799
0.0082827
0.00811578
0.00963892
0.00784196
0.00963094
0.00988372
0.00786708
0.0079532
0.00805962
0.00806457
0.280846
0.00820198
0.00819832
0.0097735
0.47402
0.00835625
0.00890994
0.0135783
0.0200589
0.00885842
0.00938709
0.00836083
0.00867604
0.00780203
0.0077949
0.00806546
0.00881784
0.0082694
0.00770928
0.00817813
0.00881659
0.00843142
0.00798684
0.00789648
0.00899
0.00775746
1.18929
0.00952843
0.00921828
0.00779421
0.0129864
0.00856332
0.00786074
0.00841163
0.483506
0.0093601
0.00795051
0.00791367
0.00789428
0.00834335
0.00803688
0.00830595
0.00859942
0.0089124
0.022706
0.00842045
0.00855661
0.480301
0.00889103
0.00982548
0.00874052
0.00890042
0.00829904
0.00816693
0.0113705
0.00943526
0.00818345
0.0375517
1.1013
0.00791791
0.00881602
0.00827626
0.0083608
0.00824112
0.0145578
0.00807601
0.00780511
0.00817536
0.0107081
0.00830784
0.00823341
0.00924551
0.0109419
0.00790528
0.0155908
0.00781683
0.00878313
0.00868057
0.00960762
0.00836158
0.00879397
0.323104
0.00922613
0.00841732
0.00854668
0.0991496
0.00770339
0.00794538
0.0077933
0.00859549
0.00843719
0.0125569
0.00811586
0.00891116
0.00776564
0.00790401
0.429213
0.00855359
0.0100694
0.00990751
0.00794804
0.0654669
0.0100559
0.00972653
0.00907508
0.00964639
0.00817658
0.00901877
0.00860512
0.0176071
0.00856588
0.0103739
0.00903448
0.00882384
0.0103105
0.00779996
0.290004
0.00862081
0.00767563
0.00771115
0.0347714
0.00920037
0.0082036
0.019472
0.00831164
0.00886325
0.00811322
0.00832009
0.00891052
0.00823389
0.00827264
0.0786185
0.00903865
0.0197084
0.00882767
0.0078549
0.0166128
0.00850417
0.00825954
0.00836287
0.0101325
0.00965465
0.0083327
0.0137887
0.00933761
0.00809191
0.00815915
0.316824
0.00807158
0.00959218
0.00773601
0.011213
0.00811856
0.015582
0.00897991
0.00827784
0.00966689
0.00957346
0.00903348
0.00824991
0.00786
0.0464315
0.00956569
0.0101815
0.0100516
0.00877372
0.00827816
0.00989858
0.243195
0.0107528
0.00873699
0.0089859
0.00787965
0.00811552
0.00849538
0.0084007
0.00783618
0.00820742
0.334583
0.00801086
0.00854311
0.00841662
0.00980372
0.00804476
0.074756
0.00825861
0.00781361
0.00854972
0.00840301
0.00850897
0.0115359
0.00827039
0.00812406
0.00771305
0.00773864
0.00851507
0.00900717
0.0081608
0.00859074
0.00786134
0.0093332
0.00798988
0.00845662
0.00779732
0.273978
0.00836946
0.0089037
0.00827731
0.00802606
0.00910519
0.00832872
0.475383
0.00784203
0.00799725
0.00791282
0.00988311
0.811675
0.0134724
0.010251
0.00792386
0.0106768
0.00887841
0.00956577
0.00859693
0.0082362
0.00858305
0.00828982
0.008561
0.00877027
0.0104573
0.00835902
0.00847222
0.0101551
0.00818404
0.0092268
0.00921701
0.00802728
0.00789736
0.0309106
0.00811121
1.0055
0.00901173
0.00978556
0.00888607
0.0077558
0.00904983
0.00894819
0.00854197
0.00997462
0.00811039
0.008184
0.00840493
0.00956515
0.00831546
0.00821589
0.00863644
0.00845902
0.0103601
0.00863514
0.507057
0.00782454
0.00817815
0.00850048
0.00833876
0.0104585
0.0155995
0.0096663
0.00788687
0.00840073
0.00994497
0.0175317
0.00876778
0.00772574
0.00845634
0.0390985
0.00860606
0.00789424
0.00911361
0.0130975
0.00880192
0.00814811
0.00818888
0.00799001
0.00984895
0.00813473
0.00821578
0.00837901
0.00788365
0.0100017
0.00828612
0.395468
0.0100764
0.00792023
0.0110851
0.00774984
0.00793318
0.00819553
0.00836287
0.00827409
0.00948959
0.0082015
0.529273
0.00847623
0.0234293
0.0085802
0.00788705
0.00775585
0.0078312
0.864902
0.00946278
0.0081508
0.0093592
0.00895556
0.00813613
0.00791106
0.00813625
0.00976391
0.625969
0.00845144
0.00814622
0.00812565
0.00839401
0.00902852
0.00790126
0.00842802
0.018004
0.00773741
0.00886525
0.00835729
0.00829192
0.00922166
0.00962073
0.00886472
0.00824042
0.00902534
0.00796932
1.18212
0.614614
0.00825398
0.0080912
0.00892116
0.00853057
0.0107118
0.00985464
0.00789949
0.00770674
0.00774687
0.00992483
0.00854852
0.00870266
0.00770882
0.0078444
0.00770931
0.00860166
0.00863502
0.00774509
0.00940477
0.00792992
0.00814358
0.00972453
1.15725
0.00807642
0.00970036
0.0131875
0.28565
0.0112537
0.007962
0.00841006
0.975645
0.00992717
0.00914411
0.00849721
0.00783505
0.00846201
0.00808407
0.00895886
0.00930949
0.00799246
0.00826928
0.00892835
0.00833922
0.00902711
0.00837732
0.00820672
0.0081411
0.0309391
0.00784508
0.0101928
0.00968486
0.00831164
0.00879978
1.14962
0.00916202
0.00910227
0.0086135
0.00835439
0.00837202
0.0937581
0.0085101
0.00813687
0.00819351
0.00830638
0.00811114
0.00771767
0.0101949
0.0108439
0.00812706
0.00919392
0.00815456
0.00810781
0.00893758
0.00797832
0.0100129
0.00804184
0.00827212
0.0480784
0.00846144
0.0103793
0.00833592
0.00912605
0.00961855
0.00850105
0.00779237
0.00830218
0.00792655
1.59744
0.00804924
0.0142982
0.00821303
0.00789592
0.00840899
0.0285815
0.00801604
0.00924462
0.00839664
0.00770481
0.0130253
0.00791502
0.0091726
0.0083034
0.00943408
0.00830267
0.00805665
0.00845285
0.00775477
0.00879022
0.00776978
0.0105157
0.00780467
0.00965712
0.00972628
0.0114157
0.145427
0.0094139
0.00945697
0.848869
0.00874907
0.0199072
0.00832383
0.00929864
0.0084384
0.00827693
0.0205598
0.00877081
0.00827963
0.00841332
0.00849718
0.00833983
0.00894551
0.00826012
0.00807635
0.00887509
0.0101381
0.00939965
0.00812962
0.573653
0.00896961
0.772574
0.00812731
0.0159234
0.00780135
0.00841876
0.00855628
0.00814199
0.00855524
0.0082455
0.00872616
0.00815231
0.00991653
0.00942005
0.00891506
0.00841315
0.0081457
0.00780174
0.00838575
0.015164
0.0089412
0.886135
0.00834915
0.00925084
0.00831316
0.00827566
0.00802015
0.00983713
0.0224811
0.00924526
0.00833655
0.00786666
0.0102962
0.00823361
0.00810044
0.00895817
0.00856779
0.00923988
0.0087552
0.00831607
0.00784636
0.00841601
0.008154
0.00801964
0.710015
0.0095854
0.00857935
0.00839659
0.00813415
0.00875618
0.00892107
0.61653
0.00947212
0.00830056
0.00857221
0.0102293
0.00796379
0.00899425
0.00796069
0.00774041
0.0082638
0.0095022
0.00826707
0.105568
1.38612
0.0349589
0.00894537
0.00938099
0.00856738
0.00838702
0.00805192
0.00853493
0.00896211
0.100757
0.00800132
0.0088905
0.00891532
0.00796497
0.00811816
0.00822441
0.0086258
0.301287
0.00909342
0.0104465
0.240051
0.00891867
0.00880379
0.00877695
0.00837549
0.0364478
0.00843378
0.0198196
0.264635
0.0082584
0.00797398
0.516642
0.00890786
0.0083274
0.0082476
0.0100047
0.00765258
0.00797523
0.00792563
0.00852596
0.00907903
0.127914
0.00777107
0.0109319
0.00921762
0.00818298
0.00833333
0.00766074
0.00942998
0.00808011
0.0086652
0.00951167
0.0206833
0.318418
0.00918994
0.226231
0.032837
0.00890666
0.00788346
0.00906524
0.00771785
0.00804005
0.00834724
0.00778901
0.00824152
0.00791253
0.00809638
0.00987824
0.00892243
0.010407
0.307919
0.0110397
0.00815386
0.00914413
0.0109413
0.00835189
0.00813421
0.525576
0.00777789
0.00834761
0.00815148
0.00831521
0.00811001
0.0314796
0.00901151
0.00951471
0.00787763
0.0092739
0.0087412
0.00846981
0.00872774
0.00832316
0.00856645
0.00910593
0.00841085
0.0111796
0.008605
0.00797143
0.00931386
0.00832627
0.00813655
0.0107342
0.23241
0.00998238
0.023856
0.0307734
0.00819659
0.00915117
0.00985429
0.00999868
1.4441
0.0251537
0.436749
0.00997903
0.00815364
0.00792902
0.0167984
0.0087641
0.00885642
0.51588
0.00785806
0.00816606
0.0104568
0.00814098
0.00851636
0.0412292
0.00830856
0.00843467
0.0225932
0.00836079
0.0086987
0.00978018
0.00862887
0.017643
0.00871021
0.00847227
0.0148352
0.00877054
0.00881349
0.00813448
0.0081939
0.0167349
0.00891598
0.00932139
0.00849598
0.00779734
0.00843544
0.00810361
0.0248977
0.00804708
0.581897
0.00797566
0.0083602
0.00804422
0.00851859
0.00912271
0.00818781
0.00806689
0.00770627
0.00950775
0.314178
0.00766323
0.00792612
0.00864351
0.00833617
0.00814265
0.00859552
0.00792896
0.00773648
0.00929103
0.0104266
0.00814667
0.00889802
0.0983348
0.00790774
0.00925076
0.0110942
0.00828259
0.0245227
0.00801416
0.00815858
0.00787926
0.00834215
0.00793664
0.0105031
0.0093007
0.0208591
0.00830202
0.00824536
0.00827335
0.00894163
0.00802001
0.0103112
0.008555
0.00944754
0.0159287
0.00815065
0.00903321
0.00805453
0.00883568
0.00892321
0.00794694
0.00924935
0.00903942
0.0253627
0.0084361
0.00859361
0.00822312
0.00827663
0.00847916
0.00872286
0.00769883
0.0341363
0.00837657
0.240701
0.00794072
0.00850548
0.00915381
0.00835773
0.00795681
0.133534
0.00795262
0.00949989
0.00898723
0.00894481
0.00794447
0.00907205
0.00788018
0.00829768
0.0215481
0.70193
0.00789903
0.0109576
0.0083303
0.00961355
0.0108066
0.00811108
0.00948549
0.00839315
0.0101201
0.177542
0.00772242
0.00845721
0.33383
0.00823917
0.00967859
0.00773958
0.00774384
0.00882403
0.00857961
0.0107059
0.00928641
0.00832485
0.00879737
0.00802989
0.0087252
0.00817859
0.00837988
0.00772233
0.0228932
0.0083771
0.00831873
0.10689
0.00859837
0.00998567
0.00783852
0.00826314
0.0088689
0.0082641
0.011108
0.00810074
0.00807343
0.00841275
0.00834405
0.0092358
0.00775081
0.00908462
0.00848011
0.00781102
0.00788471
0.00885746
0.00958266
0.00967234
0.00802166
0.00883127
0.00985371
0.0085513
0.00789618
0.00800006
0.0103072
0.00844701
0.00855233
0.00900523
0.00844656
0.00819309
0.00792256
0.0230384
0.0078863
0.0085417
0.00843697
0.00796158
0.00909238
0.00792474
0.0121742
0.00795008
0.0321271
0.00958256
0.0163879
0.0086134
0.00960987
0.00995486
0.0100906
0.794006
0.00830207
0.00777899
0.00860004
0.00865474
0.00831564
0.00840293
0.0107086
0.00930709
0.00776397
0.0081151
0.00822432
0.00899334
0.00882
0.0088691
0.0082831
0.0078947
0.00870889
0.00932608
0.00825855
0.0148641
0.00797949
0.00913192
0.00896985
0.043413
0.00830439
0.00941826
0.0090035
0.0321512
0.00820098
0.0100392
0.0290792
0.0107185
0.00884678
0.0108755
0.00871702
0.00968924
0.00779514
0.00861625
0.266273
0.0084344
0.00830061
0.00896245
0.00899862
0.00990329
0.00915939
0.00770297
0.00835782
0.00822208
0.015283
0.00812592
0.0078087
0.00845415
0.0097557
0.00867181
0.00769611
0.0101985
0.0327937
0.0158596
0.00797143
0.00845517
0.00998566
0.536905
0.00988876
0.00980317
0.667876
0.00942574
0.0111698
0.00939339
0.00991454
0.00886137
0.00880832
0.00884828
0.00784904
0.0103617
0.0110607
0.00773179
0.00835942
0.00808213
0.00939307
0.00844821
0.00780711
0.00929807
0.00859308
0.00855828
0.00915344
0.00787081
0.00955397
0.00826496
0.00802773
0.0107796
0.00795289
0.0092475
0.00914472
0.00775452
0.00836513
0.00843726
0.0083305
0.00780183
0.00883117
0.00828251
0.00889927
0.00776472
0.00796959
0.0209639
0.00879598
0.00833726
0.432433
0.00911599
0.00825063
0.00883345
0.00892443
0.00809956
0.00921377
0.00794423
0.00788406
0.00881603
0.00823922
0.00910108
0.00927837
0.00809392
0.0281041
0.00785552
0.0087216
0.0527466
0.105305
0.00841655
0.00808632