/*--------------------------------*- C++ -*----------------------------------*\
| =========                 |                                                 |
| \\      /  F ield         | OpenFOAM: The Open Source CFD Toolbox           |
|  \\    /   O peration     | Version:  3.0.1                                 |
|   \\  /    A nd           | Web:      www.OpenFOAM.org                      |
|    \\/     M anipulation  |                                                 |
\*---------------------------------------------------------------------------*/
FoamFile
{
    version     2.0;
    format      ascii;
    class       volScalarField;
    location    "0.307563";
    object      k;
}
// * * * * * * * * * * * * * * * * * * * * * * * * * * * * * * * * * * * * * //

dimensions      [0 2 -2 0 0 0 0];

internalField   nonuniform List<scalar> 
21246
(
0.666221
1.13232
1.02359
0.897748
0.708244
0.503693
0.336999
0.225055
0.156106
0.113806
0.091397
0.555474
0.849218
0.894651
0.843905
0.722624
0.552266
0.377013
0.23416
0.154004
0.108106
0.085082
0.396711
0.617331
0.744123
0.756975
0.693347
0.568746
0.412876
0.263811
0.163137
0.105452
0.0781474
0.23334
0.477973
0.614787
0.663526
0.64236
0.558708
0.43137
0.291032
0.179955
0.110077
0.0741656
0.125347
0.406327
0.523209
0.580815
0.584344
0.532082
0.433233
0.309538
0.197441
0.118654
0.0740424
0.100492
0.358718
0.463118
0.514168
0.526922
0.495749
0.421497
0.317158
0.211148
0.128299
0.0765759
0.0893675
0.306554
0.415934
0.460064
0.473545
0.454527
0.399339
0.313727
0.218022
0.135911
0.0799127
0.0772177
0.236302
0.358289
0.409623
0.423763
0.411272
0.369828
0.300509
0.216811
0.13921
0.0820912
0.064539
0.183162
0.285786
0.356277
0.375528
0.367344
0.335742
0.279783
0.208024
0.137283
0.0818731
0.0537576
0.146416
0.223749
0.294822
0.326797
0.323241
0.299219
0.25403
0.193226
0.130424
0.0789156
0.0448268
0.118352
0.176476
0.235289
0.275966
0.279421
0.261736
0.22535
0.174295
0.119777
0.0734971
0.0382274
0.0972493
0.140985
0.186539
0.225946
0.236817
0.224742
0.195739
0.153343
0.107023
0.0667511
0.0332618
0.0809961
0.114537
0.148998
0.182413
0.197133
0.190082
0.167471
0.132864
0.0943004
0.0600923
0.0290827
0.0682916
0.0950882
0.121126
0.147975
0.162601
0.159762
0.142886
0.115315
0.0837012
0.0547559
0.0259711
0.0587364
0.0812872
0.10124
0.122293
0.135122
0.135502
0.12386
0.102542
0.076723
0.051848
0.0237673
0.051561
0.071691
0.0874298
0.103782
0.115131
0.118159
0.111423
0.0955677
0.0741891
0.0518466
0.0221369
0.0462397
0.0647666
0.0776351
0.0911221
0.102031
0.107923
0.106034
0.0948841
0.076541
0.0549492
0.0206625
0.0425845
0.0597126
0.0708945
0.0834724
0.0958964
0.105902
0.109139
0.101952
0.0851048
0.0624298
0.0193117
0.0402953
0.0559003
0.0668962
0.0816116
0.0991412
0.115949
0.124796
0.120065
0.102317
0.0759496
0.0181125
0.0403177
0.0551804
0.0689435
0.089121
0.115286
0.138065
0.15022
0.14777
0.128837
0.0971178
0.0244607
0.051281
0.0609699
0.0750254
0.10146
0.135518
0.157874
0.1712
0.173288
0.159363
0.124862
0.034886
0.0558909
0.0638946
0.0960332
0.135504
0.163931
0.183914
0.194776
0.197168
0.188827
0.160785
0.0371506
0.07793
0.113116
0.154977
0.186952
0.206719
0.213838
0.211629
0.205743
0.199334
0.183514
0.128971
0.17045
0.212342
0.238893
0.249789
0.245661
0.230889
0.212883
0.198354
0.19105
0.185935
0.718964
1.10296
1.04949
0.886118
0.684704
0.492656
0.34125
0.236639
0.167729
0.122943
0.0973883
0.486958
0.81391
0.904402
0.864652
0.732541
0.560375
0.400102
0.278841
0.1952
0.138755
0.103724
0.271395
0.57385
0.732409
0.803032
0.765289
0.638208
0.478302
0.338504
0.235572
0.163303
0.115633
0.106817
0.317946
0.507014
0.659926
0.728277
0.683633
0.555321
0.409593
0.288967
0.198589
0.134402
0.0553553
0.146836
0.286638
0.455836
0.601658
0.659692
0.605887
0.484726
0.358042
0.25173
0.170345
0.0512475
0.113593
0.184926
0.292329
0.43048
0.544431
0.575055
0.513182
0.410395
0.307566
0.216676
0.0541009
0.113498
0.165377
0.234013
0.332445
0.446084
0.514166
0.494197
0.416744
0.330764
0.249759
0.0579054
0.117745
0.163441
0.217664
0.290253
0.383415
0.465339
0.474245
0.411733
0.338334
0.270557
0.0620439
0.123268
0.16579
0.212601
0.270469
0.346667
0.425264
0.455956
0.405527
0.333542
0.280148
0.0663109
0.129779
0.170322
0.211342
0.258041
0.320771
0.392642
0.435086
0.402477
0.325672
0.2759
0.0706216
0.137122
0.176068
0.211364
0.248494
0.298927
0.362235
0.41119
0.39598
0.322136
0.263397
0.0751123
0.145574
0.183383
0.212608
0.241399
0.279595
0.332197
0.383077
0.384513
0.318904
0.250436
0.0795571
0.153703
0.190635
0.215363
0.23644
0.262672
0.302618
0.350707
0.366706
0.31442
0.240918
0.0840763
0.161775
0.198351
0.219002
0.233032
0.248745
0.275435
0.315613
0.34208
0.306776
0.233367
0.0889111
0.169881
0.206564
0.223256
0.230714
0.237302
0.252333
0.281361
0.310628
0.293866
0.228654
0.0942764
0.17887
0.215816
0.228444
0.229157
0.227273
0.232912
0.251542
0.275609
0.273703
0.227134
0.100053
0.189316
0.227164
0.236046
0.230003
0.219643
0.216887
0.22708
0.243923
0.24804
0.222414
0.106465
0.202265
0.242581
0.248985
0.235657
0.215913
0.205069
0.207902
0.218322
0.223763
0.213714
0.113727
0.219216
0.264511
0.268935
0.247455
0.218515
0.198854
0.193962
0.19825
0.202348
0.198922
0.121058
0.239689
0.289603
0.292732
0.266602
0.229086
0.199553
0.186013
0.183764
0.184573
0.18268
0.124135
0.256613
0.310718
0.317546
0.289483
0.245032
0.206455
0.18468
0.176316
0.173506
0.170648
0.128654
0.26738
0.325969
0.333817
0.305555
0.258733
0.215421
0.1882
0.175743
0.171331
0.170543
0.136303
0.277396
0.323522
0.329737
0.304544
0.262736
0.221693
0.193349
0.17892
0.173996
0.176085
0.195209
0.284916
0.307287
0.302158
0.281896
0.25231
0.221642
0.197732
0.183319
0.17871
0.181163
1.25997
1.76187
1.25865
0.789648
0.459015
0.258836
0.144653
0.0804327
0.0447085
0.0251802
0.0149902
0.857459
1.20532
1.00667
0.693002
0.43183
0.255649
0.146331
0.0816882
0.0448908
0.0248109
0.0145084
0.603719
0.996926
0.903528
0.68232
0.449262
0.274322
0.159833
0.0900757
0.0495755
0.0271208
0.0155756
0.48832
0.797731
0.794581
0.666643
0.475549
0.301496
0.178735
0.101775
0.0562179
0.0306668
0.0173764
0.426398
0.660238
0.667746
0.589277
0.445546
0.298314
0.183006
0.105767
0.058289
0.0313683
0.0173708
0.390509
0.570492
0.581787
0.517668
0.396006
0.271942
0.171895
0.102277
0.0580711
0.0320314
0.0181836
0.365427
0.504355
0.514281
0.457858
0.353698
0.246403
0.159052
0.0971105
0.0566348
0.0320003
0.0184012
0.34693
0.453069
0.460046
0.408111
0.316386
0.222325
0.145704
0.0908675
0.0543288
0.0315341
0.018928
0.332616
0.412195
0.416226
0.367663
0.285235
0.201538
0.133626
0.0848673
0.0519736
0.0309997
0.0190463
0.320772
0.378498
0.380611
0.335317
0.260285
0.184667
0.123558
0.0796528
0.049775
0.0303318
0.0188102
0.310785
0.350126
0.351208
0.309212
0.24035
0.171194
0.115414
0.0753045
0.0477999
0.0295902
0.0187527
0.302643
0.326217
0.326596
0.287669
0.224126
0.160343
0.108874
0.0717895
0.0461857
0.0290071
0.0186564
0.296185
0.305838
0.306005
0.270087
0.211201
0.151885
0.103871
0.0691615
0.0450448
0.0286667
0.0186113
0.291177
0.288294
0.288829
0.25612
0.201416
0.145759
0.100407
0.0674569
0.0444012
0.0285408
0.0187431
0.287452
0.273202
0.274261
0.244839
0.194046
0.14154
0.0982893
0.0666229
0.044277
0.0286883
0.0189217
0.285207
0.259988
0.261934
0.236009
0.188996
0.139239
0.0975743
0.0667347
0.0447527
0.0291716
0.0192842
0.284459
0.248257
0.251318
0.229547
0.186457
0.139066
0.0984611
0.0679508
0.0459511
0.030068
0.0198691
0.284888
0.237934
0.241474
0.223834
0.185472
0.140929
0.101194
0.0705334
0.0480943
0.0316026
0.020907
0.286704
0.228727
0.232223
0.218696
0.185536
0.144351
0.10558
0.0744829
0.0512462
0.0339671
0.0224877
0.290347
0.22041
0.223268
0.213779
0.186283
0.14911
0.111678
0.0800703
0.0557286
0.0374325
0.0248824
0.296587
0.212899
0.214202
0.208502
0.186991
0.154635
0.119368
0.0876527
0.0621448
0.0425737
0.0286455
0.307301
0.205651
0.204706
0.201988
0.186444
0.159811
0.128114
0.0974507
0.0712691
0.0503523
0.0347004
0.322198
0.198225
0.193357
0.193812
0.184086
0.163796
0.137206
0.109339
0.0837034
0.0618821
0.0444423
0.3355
0.195541
0.193157
0.188232
0.180521
0.165783
0.145316
0.122109
0.0989191
0.0775373
0.05905
1.24637
2.04799
1.41855
0.979811
0.625286
0.350666
0.18716
0.0991731
0.0532534
0.029014
0.0166749
1.12957
1.62757
1.39914
1.07625
0.768226
0.472742
0.255004
0.135168
0.0703476
0.0365398
0.0201228
0.865811
1.27274
1.27682
1.06748
0.818493
0.552674
0.325353
0.178998
0.0943827
0.0483317
0.0257784
0.545888
1.09273
1.16003
1.02401
0.822289
0.590673
0.376624
0.222985
0.122994
0.0642305
0.0344768
0.393423
1.18721
1.14351
1.00037
0.815276
0.606656
0.409187
0.260268
0.154171
0.0836797
0.0457239
0.46712
1.31751
1.19981
1.00974
0.813224
0.613779
0.429894
0.288311
0.1842
0.106205
0.0582644
0.53584
1.54566
1.3573
1.06865
0.826058
0.619272
0.443313
0.309413
0.209085
0.130083
0.0747944
0.567241
1.61751
1.58036
1.19034
0.862838
0.627949
0.452214
0.324939
0.229531
0.151868
0.0927099
0.561262
1.53523
1.75076
1.35748
0.927881
0.643999
0.4593
0.336325
0.246312
0.171429
0.110335
0.550255
1.44956
1.84671
1.54644
1.02098
0.670205
0.466842
0.344956
0.260145
0.18883
0.12722
0.539552
1.37867
1.8708
1.72597
1.13773
0.708582
0.47697
0.352282
0.271845
0.204524
0.143296
0.528921
1.3198
1.84711
1.86042
1.26469
0.757002
0.490157
0.359138
0.281997
0.218941
0.158399
0.517733
1.26563
1.79655
1.93879
1.38883
0.812989
0.506942
0.366556
0.291311
0.232466
0.173077
0.50541
1.2022
1.72477
1.96165
1.49731
0.873676
0.527776
0.375648
0.300687
0.245483
0.188547
0.495594
1.13011
1.63188
1.93213
1.5761
0.932005
0.551748
0.38716
0.311119
0.258682
0.204662
0.486325
1.06403
1.51253
1.84484
1.61211
0.97997
0.576463
0.40194
0.324087
0.273446
0.221777
0.476417
0.996165
1.37832
1.6802
1.59874
1.00921
0.600785
0.421352
0.341618
0.29174
0.241445
0.466302
0.925022
1.23365
1.46494
1.49673
1.01856
0.624172
0.448319
0.367077
0.316152
0.264872
0.458323
0.853936
1.08092
1.23869
1.28311
1.02102
0.655758
0.491181
0.408287
0.352386
0.297453
0.457236
0.790257
0.932436
1.0203
1.06123
0.983619
0.724691
0.565878
0.476165
0.408243
0.340866
0.477654
0.759783
0.837983
0.876737
0.916498
0.915292
0.794029
0.636809
0.532474
0.451504
0.368406
0.593929
0.947864
0.987023
0.970306
0.918105
0.851902
0.702863
0.559013
0.447379
0.350188
0.261971
0.406885
0.836354
0.920487
0.717995
0.563509
0.446474
0.348835
0.271725
0.210357
0.161785
0.123
0.357884
0.284889
0.237621
0.208767
0.189888
0.173838
0.156967
0.138171
0.117956
0.0975467
0.0781426
0.329728
0.394996
0.147682
0.0710154
0.0339805
0.019754
0.01451
0.0123228
0.0111837
0.0104283
0.00980925
0.372673
0.523017
0.187283
0.0916752
0.0415506
0.0221931
0.0149915
0.0121499
0.0107525
0.00986747
0.00917925
0.405703
0.498835
0.220082
0.11027
0.0476579
0.0249312
0.015726
0.0121642
0.010483
0.00946301
0.00868226
0.419955
0.457602
0.233408
0.119817
0.0520713
0.0274326
0.0165128
0.0122851
0.0103378
0.00920365
0.00836851
0.415765
0.436696
0.239163
0.124062
0.056264
0.0295777
0.017297
0.0124887
0.0102942
0.0090646
0.00821039
0.397329
0.429999
0.245505
0.129178
0.061412
0.0319987
0.0181596
0.0127827
0.0103449
0.00902328
0.00815119
0.368491
0.432573
0.254777
0.136752
0.0675475
0.0350733
0.0195605
0.0131943
0.0104861
0.00906273
0.00815722
0.332838
0.442991
0.266917
0.146256
0.0745411
0.0387765
0.0214131
0.0139355
0.0107718
0.00917527
0.00823013
0.29476
0.457908
0.283409
0.158198
0.0827243
0.0433686
0.0238133
0.0149958
0.0112205
0.00939495
0.00837032
0.257473
0.473769
0.30629
0.174196
0.0930313
0.0493229
0.0270009
0.0165011
0.0118909
0.00972466
0.00857642
0.222596
0.49265
0.335591
0.194609
0.105765
0.0568162
0.0311402
0.0185693
0.012859
0.0102016
0.00886057
0.193039
0.518311
0.37164
0.219349
0.120788
0.0657458
0.0362673
0.0212889
0.0142053
0.0108774
0.00924921
0.172631
0.548106
0.416218
0.250289
0.139145
0.0765698
0.0426327
0.0248386
0.0160589
0.0118355
0.00978338
0.1626
0.577283
0.470332
0.290231
0.162759
0.090239
0.0506952
0.0294968
0.0186106
0.0132001
0.0105375
0.163761
0.612102
0.534857
0.340488
0.192602
0.107276
0.0607414
0.0354733
0.0220508
0.0151213
0.0116187
0.176199
0.6489
0.608925
0.404431
0.231646
0.129369
0.073633
0.0432398
0.0266953
0.0178307
0.0131815
0.193336
0.673071
0.68428
0.484775
0.284657
0.159704
0.0911158
0.0537373
0.033101
0.0217011
0.0154821
0.205802
0.679464
0.747725
0.578704
0.355511
0.20212
0.115699
0.0684584
0.0421782
0.027331
0.0189383
0.212719
0.666247
0.783663
0.67447
0.446259
0.262118
0.151854
0.090346
0.0557624
0.035886
0.0243158
0.213715
0.634851
0.779896
0.747936
0.55049
0.345166
0.206766
0.125029
0.0776616
0.0498355
0.0332282
0.207855
0.571281
0.729058
0.772862
0.649744
0.453816
0.291332
0.183207
0.115988
0.0747877
0.0494142
0.222591
0.520037
0.661402
0.758486
0.723812
0.579802
0.415318
0.281227
0.18629
0.123175
0.0819673
0.208942
0.433902
0.516704
0.585087
0.611066
0.576167
0.491107
0.383493
0.282401
0.201896
0.141518
0.254634
0.515353
0.52293
0.556494
0.562742
0.538127
0.486739
0.411922
0.332664
0.260658
0.198218
0.262056
0.274391
0.127172
0.0565133
0.0294292
0.0188371
0.0146561
0.012807
0.0118349
0.011215
0.010735
0.230283
0.225709
0.109391
0.0606709
0.0328634
0.0207857
0.0158643
0.0137286
0.0126867
0.0120998
0.0117045
0.249579
0.243917
0.107147
0.0708254
0.0399199
0.0250674
0.0182237
0.0152237
0.0138491
0.0131816
0.0128405
0.266554
0.233784
0.102706
0.0749539
0.044456
0.0294238
0.0216225
0.0179132
0.0161354
0.0152577
0.0148178
0.278776
0.20782
0.100462
0.0768838
0.0464279
0.0313394
0.0228854
0.0188496
0.0169945
0.0162183
0.0159924
0.287518
0.183944
0.0981898
0.075574
0.0463366
0.0320176
0.0234356
0.0193549
0.0174997
0.0168038
0.016731
0.294266
0.165628
0.0957395
0.0730498
0.045425
0.0320724
0.0235577
0.0195734
0.0177715
0.0171811
0.0173006
0.299063
0.151788
0.0931525
0.0703529
0.0444737
0.0318978
0.023537
0.0196859
0.0179431
0.0174444
0.0177409
0.303295
0.141384
0.090909
0.0681962
0.0439289
0.0317114
0.0235445
0.0197818
0.0180598
0.017582
0.0179071
0.307743
0.133888
0.0892104
0.0666385
0.0438529
0.0317006
0.0236659
0.0199171
0.0181731
0.0176751
0.0179959
0.312978
0.12875
0.0882796
0.0659557
0.0442391
0.0319856
0.023954
0.0201298
0.0183121
0.0177428
0.0179383
0.318852
0.125123
0.0878186
0.0659914
0.0450621
0.0325933
0.0244347
0.0204473
0.0185047
0.0178347
0.0179158
0.325664
0.122862
0.0879084
0.0667303
0.0463997
0.0335885
0.0251586
0.0209058
0.0187783
0.017979
0.0179637
0.331392
0.123344
0.0886726
0.0681426
0.0484411
0.0351356
0.0262843
0.0216012
0.0191945
0.0182142
0.0181034
0.336123
0.125088
0.0897775
0.0698869
0.0510691
0.0372845
0.0279566
0.0226751
0.019867
0.0186181
0.0183585
0.340035
0.128176
0.0912909
0.0719742
0.0542356
0.0401385
0.0302965
0.0242799
0.0209149
0.0192721
0.0187695
0.343275
0.132814
0.0933829
0.0744383
0.0579098
0.0437946
0.0334604
0.0266262
0.0225327
0.0203298
0.0194342
0.345929
0.138778
0.0961695
0.0772737
0.062003
0.0482728
0.0375982
0.0299644
0.0250039
0.022052
0.0205576
0.34812
0.146022
0.0998722
0.0805407
0.0664326
0.0535179
0.0428217
0.0345644
0.0287062
0.024847
0.0225369
0.350046
0.154691
0.104854
0.0844199
0.0711497
0.0593721
0.0491201
0.0406258
0.0340539
0.0292732
0.026006
0.352018
0.164707
0.11152
0.089232
0.0761768
0.0655633
0.0562205
0.0480709
0.0412706
0.0358602
0.0317488
0.354796
0.175472
0.119985
0.0953646
0.0816262
0.0716976
0.0634051
0.0561323
0.0497942
0.044411
0.0399855
0.358873
0.188181
0.131124
0.103611
0.0879896
0.0775631
0.0696445
0.0631788
0.0577414
0.0531428
0.0492569
0.378172
0.203173
0.156266
0.132902
0.118893
0.10872
0.100407
0.0970818
0.0967786
0.0979821
0.0986421
0.0146278
0.0159398
0.0195791
0.0462001
0.0770601
0.0970575
0.111204
0.123376
0.130355
0.0260577
0.0238201
0.0428614
0.073184
0.103656
0.136004
0.165438
0.188137
0.206361
0.0330251
0.0293382
0.0536126
0.0916196
0.123553
0.148055
0.166929
0.185746
0.205442
0.038961
0.035471
0.0602809
0.0959078
0.120839
0.137696
0.152091
0.166545
0.180766
0.0174457
0.0538571
0.0851498
0.10443
0.116717
0.126135
0.130484
0.131103
0.131196
0.0442589
0.0701694
0.0998016
0.128645
0.156065
0.178896
0.197844
0.212985
0.220865
0.0535764
0.0857356
0.115899
0.138842
0.158157
0.177958
0.199722
0.217514
0.220869
0.0584073
0.0886429
0.11352
0.130765
0.146007
0.15973
0.175055
0.192406
0.192331
0.00442726
0.004601
0.00461627
0.0192911
0.0430833
0.00438829
0.0125607
0.00454045
0.00438183
0.00424263
0.0431086
0.00455134
0.00387867
0.0035721
0.00448373
0.0043018
0.00363132
0.0190765
0.00429088
0.00424658
0.00411273
0.00493686
0.00466666
0.00626951
0.00449363
0.00356636
0.00390046
0.0122713
0.0873445
0.0379996
0.0036885
0.00409636
0.00345406
0.00453425
0.00425362
0.00459228
0.0058965
0.00448904
0.00335651
0.00439716
0.00727266
0.00454351
0.00619863
0.00465962
0.0629757
0.0134227
0.00378027
0.0213583
0.00428632
0.00432314
0.0352356
0.00440194
0.00711417
0.00631233
0.00431983
0.00411957
0.00476347
0.00440775
0.0872088
0.00735564
0.00544108
0.0063467
0.0515974
0.0267604
0.00890482
0.00425779
0.0209367
0.00425857
0.00460176
0.00423251
0.00345171
0.00433166
0.00778535
0.00472062
0.0220252
0.00429542
0.00414819
0.00459675
0.0111438
0.0731814
0.00703841
0.0227762
0.00449538
0.0046257
0.00435842
0.00771607
0.103921
0.00516935
0.00457833
0.00459846
0.0045423
0.00441704
0.00783059
0.00437469
0.0723626
0.0275233
0.0179449
0.00393294
0.00447315
0.0044269
0.00468621
0.0221888
0.00416827
0.00400569
0.00589273
0.0045502
0.0033706
0.00464645
0.00361859
0.00418698
0.00450527
0.0045586
0.0043085
0.0117287
0.00711876
0.00442437
0.00438557
0.0043137
0.00449296
0.0041402
0.00900295
0.00460004
0.00517191
0.00359896
0.0125727
0.00407056
0.00952244
0.0033637
0.00347328
0.00355991
0.00445201
0.00760732
0.0213806
0.00430321
0.00461511
0.00453623
0.00397947
0.0145199
0.0397192
0.00445487
0.00588901
0.00411608
0.029791
0.00402208
0.00437754
0.003074
0.00442051
0.0042635
0.00432785
0.00423515
0.00426365
0.00441754
0.0030567
0.00460093
0.0173134
0.00389895
0.00755623
0.00370804
0.00349479
0.00435879
0.00361031
0.00389251
0.0043251
0.00443429
0.0232477
0.00399191
0.00586367
0.00439863
0.00411935
0.00865448
0.00355535
0.00340106
0.00439575
0.00405341
0.00408686
0.00395353
0.00349023
0.00300015
0.0634907
0.00392088
0.00426341
0.00477248
0.00465927
0.0111161
0.0044971
0.0250037
0.0042382
0.00429785
0.00458756
0.013968
0.00365736
0.00351634
0.00427134
0.00697559
0.00460986
0.00439997
0.00435444
0.00435796
0.00358168
0.00467917
0.00317235
0.0043161
0.00383055
0.00374511
0.00462808
0.00504176
0.00435273
0.00346878
0.00434328
0.00433845
0.00461089
0.00439502
0.0040078
0.00421523
0.00448929
0.0104497
0.00450893
0.00434723
0.00425707
0.00348202
0.00319228
0.00925807
0.0187016
0.00724316
0.00356469
0.0044124
0.00794664
0.00390352
0.00359926
0.0322128
0.00392055
0.0042554
0.00425549
0.00461028
0.00302542
0.0778667
0.010822
0.0046461
0.00455684
0.00454434
0.00441965
0.0376823
0.00399573
0.00593217
0.00451862
0.0036646
0.00451625
0.00373662
0.0351822
0.010719
0.0037426
0.00466049
0.00507907
0.00429543
0.00394146
0.00436411
0.00414008
0.00447519
0.00334872
0.00423172
0.00367104
0.00452203
0.00432593
0.00457255
0.00450355
0.00342937
0.00411843
0.00433859
0.0055731
0.00369865
0.0179973
0.00431016
0.00430913
0.0036063
0.00438683
0.00432703
0.00361751
0.0044452
0.00427259
0.00531261
0.00438208
0.00459948
0.0070053
0.00944329
0.00394173
0.00439485
0.0783533
0.00458713
0.00424399
0.0053187
0.00461704
0.0130382
0.00450413
0.00332083
0.0046782
0.00435246
0.00409859
0.00456247
0.00425277
0.00360403
0.00444418
0.00679696
0.00435917
0.0391864
0.00415062
0.004185
0.00459747
0.00418697
0.00466161
0.00435256
0.00812741
0.00456384
0.00409
0.00347467
0.00483287
0.00410165
0.00371674
0.00653772
0.00412904
0.00453293
0.00423803
0.00589121
0.00435698
0.0034041
0.0151841
0.00424013
0.00445158
0.00365315
0.00423939
0.0169903
0.00424952
0.0525242
0.00374887
0.0046515
0.00377674
0.0430079
0.00734707
0.00458513
0.00447127
0.00392196
0.00397828
0.00468395
0.00430371
0.00403932
0.0167191
0.0041843
0.00739427
0.00437928
0.00606888
0.010924
0.00916181
0.00389
0.0037167
0.00416754
0.00416622
0.00468917
0.00316389
0.0039931
0.00466074
0.0166815
0.00384253
0.0035662
0.00451658
0.0045115
0.00431176
0.00510635
0.00339656
0.00337788
0.0111702
0.00490632
0.0044389
0.0101424
0.0400564
0.00355162
0.00407724
0.00460821
0.00390232
0.00423988
0.00437447
0.00424166
0.00623117
0.00438455
0.00308015
0.00441843
0.00352423
0.0169584
0.00725161
0.00354911
0.0367526
0.00402143
0.00442748
0.00590617
0.00343128
0.00474019
0.0162428
0.00904845
0.00447727
0.00427777
0.00462298
0.00702009
0.00333826
0.00441121
0.00466311
0.00519995
0.00341643
0.00822085
0.00831967
0.0037119
0.00431456
0.00595168
0.00429676
0.00427608
0.00380876
0.00378279
0.0036957
0.00406809
0.00368135
0.0049435
0.00349759
0.00531965
0.0273493
0.00352525
0.0133117
0.00353758
0.00397278
0.00416876
0.00468718
0.00490588
0.00495846
0.0102091
0.00448464
0.00308203
0.00343351
0.00410285
0.00442258
0.0030455
0.0140157
0.0368611
0.0036049
0.00468853
0.0039338
0.102002
0.0198294
0.00731271
0.00420523
0.0034013
0.00689048
0.00342816
0.00434119
0.00291534
0.00443879
0.00461271
0.00449743
0.0044101
0.0044059
0.0118661
0.00355761
0.00313388
0.00502519
0.00458929
0.00433619
0.00982028
0.00351745
0.00393258
0.00426977
0.00800068
0.00762121
0.00545505
0.00546768
0.00425641
0.00392328
0.00575543
0.00421295
0.0053786
0.00423597
0.00458367
0.00432098
0.0055784
0.0029065
0.00424545
0.0044522
0.00412911
0.0346761
0.00462868
0.00464745
0.0031858
0.0319661
0.00404477
0.0031005
0.00433879
0.00344918
0.00439748
0.00423028
0.0044082
0.00349448
0.0035447
0.00426135
0.00341796
0.0039944
0.00431998
0.00367441
0.00363985
0.00453417
0.00453388
0.0414388
0.0030347
0.00765982
0.00425071
0.0201345
0.00461909
0.0127474
0.00457387
0.00385899
0.00396669
0.0047252
0.0132285
0.00634643
0.00342179
0.00445196
0.00357455
0.00411878
0.00459768
0.00442528
0.0045694
0.00420002
0.00612403
0.00451145
0.00435282
0.00816666
0.00443665
0.0101014
0.00418484
0.00400251
0.00345178
0.00455939
0.00467806
0.00447634
0.00463777
0.00666028
0.0029662
0.00450047
0.00448996
0.00359727
0.00461786
0.0166724
0.00460723
0.0144857
0.00423078
0.00407712
0.00333232
0.00362517
0.0145705
0.013129
0.00416025
0.00411464
0.00431022
0.00460519
0.0030369
0.00323901
0.0042343
0.00375718
0.0273876
0.0267371
0.00449213
0.0043268
0.00459819
0.00712271
0.0118339
0.0043738
0.0045392
0.00437859
0.00922768
0.00430979
0.00340364
0.00350375
0.0037384
0.0297925
0.00443232
0.00466459
0.00446377
0.00620878
0.0043395
0.0214489
0.00350604
0.00408871
0.00503608
0.00404221
0.00463976
0.00467391
0.0726399
0.00440948
0.00351185
0.0282432
0.00661238
0.00816367
0.0039509
0.00366078
0.00421732
0.00443775
0.00448657
0.0273033
0.00334511
0.00409314
0.00424871
0.00450083
0.00708288
0.00422477
0.00446603
0.00425104
0.00430544
0.0034675
0.00352489
0.00651449
0.00565395
0.00400331
0.00511053
0.0042886
0.00506249
0.00428301
0.00445214
0.0346824
0.00521638
0.00438332
0.00438995
0.00394814
0.00415512
0.00433042
0.00563753
0.00460807
0.00419713
0.00352815
0.00332473
0.00380218
0.00358291
0.00350491
0.00562964
0.00481015
0.00497025
0.00444351
0.00347933
0.00493995
0.00866094
0.00371102
0.00462098
0.00416968
0.0144098
0.00392813
0.00420718
0.00443998
0.00343097
0.00592434
0.0342575
0.00354317
0.00462433
0.00442536
0.00518012
0.00455004
0.00428847
0.00426378
0.00367318
0.00425941
0.00425602
0.00419176
0.00459082
0.0340076
0.00628076
0.0303759
0.00428235
0.00421538
0.00398643
0.00432059
0.00448226
0.0176845
0.00431093
0.0252721
0.00603725
0.00443087
0.00298847
0.00465905
0.00346767
0.0330151
0.0034569
0.0302599
0.00361808
0.00425903
0.00463617
0.00391462
0.00352061
0.0044167
0.00946232
0.00437091
0.00407356
0.00463228
0.00372282
0.00419659
0.0032575
0.00455362
0.00440688
0.00440385
0.00391098
0.00523329
0.00456234
0.00361451
0.00437328
0.00386131
0.00349924
0.00407496
0.0300866
0.00522124
0.00328111
0.00406475
0.00371831
0.00370449
0.00441641
0.00350708
0.0126947
0.00446768
0.00353215
0.00448804
0.00424287
0.00754257
0.00476915
0.00345761
0.00357454
0.00431248
0.00419695
0.00413204
0.00526068
0.00458399
0.0111804
0.00454328
0.014745
0.00415563
0.00396207
0.00599828
0.00857344
0.00456852
0.00361284
0.00281529
0.00601105
0.00452333
0.00356111
0.0263537
0.00454865
0.0100968
0.00377042
0.00478535
0.0246899
0.00438643
0.00422215
0.00421456
0.00364757
0.00439428
0.0035429
0.00457115
0.00346619
0.00431482
0.00333213
0.00305632
0.0050313
0.00356658
0.00428585
0.013099
0.0145264
0.00446343
0.00357696
0.00383736
0.00399104
0.00509046
0.00375794
0.00442828
0.00701706
0.00333602
0.004933
0.00427971
0.00434918
0.00441562
0.00902941
0.0035934
0.00468991
0.00448236
0.00455125
0.0320821
0.00549137
0.00365095
0.00457356
0.00353146
0.00462047
0.00455517
0.00457814
0.0046269
0.00447877
0.00442869
0.00349128
0.00567171
0.00879558
0.00340366
0.00445872
0.00442975
0.00449454
0.00374507
0.00684165
0.00459604
0.00410547
0.00362711
0.0191355
0.00499662
0.00469068
0.00390634
0.00776537
0.00443343
0.00446211
0.0121154
0.00421767
0.00456196
0.00445604
0.00375016
0.00397194
0.00387152
0.00455577
0.00407215
0.00641649
0.00825549
0.0045605
0.00342217
0.00371588
0.00530873
0.00730577
0.00463966
0.00427281
0.0193017
0.00338987
0.0038292
0.00460033
0.00419048
0.00473464
0.00433458
0.00458881
0.0127226
0.00347647
0.00958178
0.0161893
0.00483041
0.00454394
0.0459154
0.00466915
0.00430413
0.00510855
0.00448404
0.00441581
0.00441959
0.00637023
0.00724179
0.00396362
0.00441291
0.00853982
0.00442418
0.00468785
0.00433026
0.00438556
0.00446053
0.00449361
0.00455848
0.0043154
0.0698965
0.00438245
0.00425441
0.00466165
0.0208751
0.00425024
0.00450521
0.0173469
0.0621612
0.00421538
0.00447357
0.00333574
0.00746025
0.00465152
0.00454021
0.00423661
0.00400424
0.00396824
0.00459734
0.00789005
0.00332945
0.004769
0.0033821
0.00457711
0.00354843
0.00564069
0.00444284
0.00458359
0.00425941
0.00460721
0.00392665
0.0108584
0.00416804
0.00409262
0.0128823
0.00423436
0.00392587
0.00581914
0.00466367
0.00455657
0.00348683
0.00332966
0.00355121
0.00440278
0.0244861
0.00430898
0.00355734
0.00430859
0.00354042
0.00343869
0.00506359
0.00373121
0.00420211
0.00452779
0.0137924
0.0044311
0.0097173
0.00427896
0.00337448
0.00431572
0.00420831
0.0129341
0.00438063
0.00460444
0.00349241
0.0098721
0.0337687
0.00344446
0.00351189
0.00357138
0.00996318
0.0332608
0.00451966
0.00436449
0.0110722
0.00439922
0.00536712
0.00449109
0.00433477
0.00338644
0.00371185
0.00460331
0.0036171
0.00464813
0.00441061
0.00369799
0.0224678
0.0042466
0.00445831
0.00431212
0.00453234
0.00465873
0.00504854
0.00453515
0.00418677
0.008243
0.00402923
0.00403117
0.00460949
0.00374494
0.00342802
0.00459967
0.00478616
0.00408133
0.00675736
0.0190053
0.00395865
0.00368271
0.00409662
0.00434633
0.0033111
0.00386584
0.00421951
0.003802
0.00455407
0.0719839
0.00375744
0.0228152
0.00455281
0.00470668
0.0298148
0.042693
0.00363877
0.00344614
0.00467578
0.00339929
0.0359077
0.00456055
0.00402143
0.0155543
0.00394251
0.00695912
0.00369431
0.00445172
0.00432369
0.00432079
0.00422016
0.00766886
0.00321921
0.00400138
0.0129242
0.00459922
0.00331869
0.00373953
0.0052482
0.00429587
0.00345032
0.00439069
0.00406242
0.00358268
0.00454425
0.00467421
0.00467846
0.0221578
0.00413689
0.00461106
0.00363079
0.00404501
0.00357658
0.00452103
0.00883232
0.00416227
0.00407343
0.00385125
0.00455494
0.00431299
0.00446134
0.0151178
0.00424179
0.00613991
0.00398594
0.00459385
0.00450403
0.00417501
0.0045034
0.0043772
0.0074419
0.0220505
0.00559745
0.0612463
0.0106649
0.0347489
0.00420091
0.00448112
0.00675812
0.0046278
0.00353862
0.00761095
0.00428447
0.00533982
0.00383788
0.0202192
0.00419095
0.00354426
0.00454958
0.0132284
0.00469635
0.0398955
0.00404284
0.00483062
0.005475
0.00451376
0.00419697
0.00419273
0.00379501
0.0044428
0.00506064
0.00557926
0.0303259
0.00354637
0.0101502
0.0143681
0.00395864
0.0046126
0.00371313
0.00444253
0.00345589
0.00350133
0.0207508
0.00389084
0.0036371
0.0609296
0.00437478
0.00426832
0.00429866
0.00457047
0.00329035
0.00341014
0.00425298
0.00351886
0.0327664
0.00425724
0.0571976
0.00838995
0.00446204
0.00593962
0.00373584
0.00360623
0.00346161
0.00487529
0.00442474
0.0045266
0.0138516
0.00437271
0.00458702
0.00359884
0.00454332
0.00439516
0.0193353
0.00464095
0.0357237
0.00420064
0.00744167
0.00428426
0.00428826
0.00613246
0.00355141
0.0142274
0.00444677
0.00323524
0.00709276
0.00346772
0.00300085
0.00527963
0.00364417
0.00423951
0.0387691
0.00402135
0.0040596
0.0043156
0.00303164
0.00379224
0.00428561
0.00433369
0.0182502
0.00425755
0.00468913
0.00450679
0.00406171
0.0033388
0.00356177
0.00320907
0.0705278
0.00478665
0.00586967
0.00555615
0.0045751
0.00288715
0.00424422
0.00421286
0.0852857
0.00455073
0.0216341
0.0301095
0.00456163
0.00449409
0.00479833
0.0412501
0.00519819
0.0243657
0.00349505
0.0045661
0.00426548
0.0035458
0.00682378
0.00662126
0.00340731
0.00434122
0.0062564
0.00640174
0.00873131
0.00416615
0.00795314
0.0281764
0.00404604
0.0038041
0.00429867
0.00437927
0.0398567
0.00358443
0.00370751
0.004599
0.00463917
0.00411872
0.0406845
0.0281779
0.00333548
0.0318955
0.00460153
0.00437788
0.0150739
0.0294698
0.00461986
0.00337514
0.00363752
0.00411715
0.0086513
0.00453438
0.00442407
0.00426365
0.00558479
0.00338708
0.00435601
0.00645913
0.00461307
0.0045578
0.00468819
0.00362308
0.00442924
0.00402433
0.0042174
0.00455774
0.0422502
0.00467465
0.00376437
0.0028017
0.00448617
0.00344187
0.00542526
0.00452001
0.00456272
0.0044805
0.00343983
0.00449625
0.00427074
0.00440884
0.00351548
0.00679081
0.00354608
0.00339161
0.00428658
0.0284803
0.00420107
0.00467578
0.00419481
0.00458641
0.00350175
0.00413914
0.00354337
0.00412245
0.00419943
0.00449953
0.00362845
0.00569696
0.00546727
0.00518446
0.00468828
0.00309288
0.0109396
0.00348937
0.00335934
0.00439746
0.0054879
0.00875915
0.00599014
0.00354159
0.00356018
0.00283186
0.00350211
0.00450238
0.071444
0.00341022
0.0041454
0.00426407
0.00440783
0.0035362
0.00604714
0.0282364
0.00339462
0.0588193
0.0376519
0.00448519
0.00425892
0.00660298
0.0217167
0.00400214
0.00454834
0.00417936
0.0046291
0.00447062
0.00483024
0.00440264
0.00465056
0.0147808
0.00769119
0.00431716
0.00442787
0.00439412
0.00416468