/*--------------------------------*- C++ -*----------------------------------*\
| =========                 |                                                 |
| \\      /  F ield         | OpenFOAM: The Open Source CFD Toolbox           |
|  \\    /   O peration     | Version:  3.0.1                                 |
|   \\  /    A nd           | Web:      www.OpenFOAM.org                      |
|    \\/     M anipulation  |                                                 |
\*---------------------------------------------------------------------------*/
FoamFile
{
    version     2.0;
    format      ascii;
    class       volVectorField;
    location    "0.973101";
    object      U;
}
// * * * * * * * * * * * * * * * * * * * * * * * * * * * * * * * * * * * * * //

dimensions      [0 1 -1 0 0 0 0];

internalField   nonuniform List<vector> 
21246
(
(1.76693 -6.35505 3.86479e-19)
(1.45274 -4.75609 -4.76042e-18)
(2.11556 -3.62222 0)
(2.47483 -2.83126 0)
(2.64948 -2.24331 6.90638e-19)
(2.73104 -1.78457 1.9475e-18)
(2.7611 -1.42058 -9.18498e-19)
(2.76387 -1.12884 0)
(2.75079 -0.893702 -2.66358e-19)
(2.72688 -0.706216 0)
(2.69093 -0.560847 0)
(-1.56689 -1.82016 -2.59509e-18)
(-0.534271 -2.76356 0)
(0.313662 -2.84945 0)
(1.12923 -2.60814 -1.38591e-18)
(1.68713 -2.24519 1.8112e-18)
(2.04503 -1.86536 -8.73583e-19)
(2.26166 -1.51518 0)
(2.3871 -1.2123 0)
(2.46168 -0.960196 3.10477e-18)
(2.50535 -0.756095 -1.27237e-18)
(2.5249 -0.597704 9.51342e-19)
(-1.54474 -0.386455 -8.35733e-18)
(-0.861849 -1.02995 0)
(-0.505141 -1.37357 1.08371e-18)
(0.0972148 -1.61296 2.9945e-18)
(0.718662 -1.67526 -3.05761e-18)
(1.25226 -1.57444 0)
(1.66219 -1.37637 7.86864e-19)
(1.95646 -1.14702 -1.72326e-18)
(2.15631 -0.926399 -2.60273e-18)
(2.28888 -0.73462 3.19883e-20)
(2.36969 -0.581616 5.58799e-19)
(-1.01519 0.362674 -6.66797e-19)
(-0.372047 -0.165194 0)
(-0.359392 -0.420272 2.85127e-18)
(-0.00266508 -0.746624 -4.33137e-18)
(0.411939 -0.954837 0)
(0.864461 -1.04463 -6.6721e-19)
(1.27817 -1.02186 1.65039e-18)
(1.6204 -0.922927 9.43961e-19)
(1.88352 -0.788147 1.03763e-18)
(2.07589 -0.648774 1.22326e-18)
(2.20587 -0.525369 -1.10216e-18)
(-0.446114 0.773219 5.24265e-18)
(0.117564 0.389417 -3.52218e-18)
(-0.0191047 0.250023 -3.04839e-18)
(0.216821 -0.0665106 5.47643e-18)
(0.444113 -0.309384 -1.8323e-18)
(0.759099 -0.495952 0)
(1.09454 -0.59541 -1.75788e-18)
(1.41243 -0.613075 1.20911e-18)
(1.68717 -0.571856 -8.10875e-19)
(1.90879 -0.498741 -4.45638e-19)
(2.07074 -0.416116 -3.23104e-19)
(0.0766133 0.925412 0)
(0.563782 0.698986 4.11799e-20)
(0.346832 0.640099 -6.54245e-20)
(0.519599 0.378136 4.14762e-19)
(0.634288 0.16374 8.70971e-20)
(0.836409 -0.0423751 0)
(1.07609 -0.196432 1.68974e-18)
(1.33172 -0.288901 -1.20034e-18)
(1.57819 -0.323372 4.75062e-19)
(1.79572 -0.314874 -4.92631e-19)
(1.96529 -0.281286 3.99785e-19)
(0.443037 0.960247 0)
(0.910719 0.862008 4.53352e-18)
(0.703103 0.842065 -3.66853e-18)
(0.816359 0.64562 1.04596e-19)
(0.867638 0.475166 -8.37946e-20)
(0.992481 0.287843 0)
(1.15609 0.124303 -9.53292e-20)
(1.34832 -0.00153176 1.25774e-18)
(1.54992 -0.0815927 -4.9857e-19)
(1.74305 -0.120202 -9.30588e-19)
(1.9053 -0.125312 6.07365e-19)
(0.692529 0.961612 -4.16321e-18)
(1.15312 0.940192 6.90883e-18)
(0.991217 0.949103 -2.32935e-18)
(1.0756 0.801292 2.85058e-18)
(1.09604 0.671013 -4.5408e-18)
(1.17348 0.512187 -3.34337e-20)
(1.2817 0.360756 3.14384e-18)
(1.42045 0.229549 -2.13319e-18)
(1.57766 0.128706 -3.43321e-19)
(1.73849 0.0603611 0)
(1.87584 0.0237933 6.15593e-19)
(0.889111 0.961524 -2.17167e-20)
(1.34113 0.981079 2.05773e-19)
(1.21567 1.00936 -3.52847e-20)
(1.28883 0.892023 -2.44785e-18)
(1.29683 0.792692 2.1505e-18)
(1.34813 0.661592 0)
(1.42046 0.529936 2.75678e-18)
(1.51967 0.406229 -1.66114e-18)
(1.63948 0.300421 0)
(1.76975 0.217531 8.31457e-19)
(1.88598 0.162173 -1.22584e-18)
(1.05287 0.933789 -3.53065e-18)
(1.5084 0.986368 2.91684e-18)
(1.40021 1.03769 1.99153e-18)
(1.4656 0.942407 -3.67964e-18)
(1.46698 0.867725 1.47704e-18)
(1.5038 0.760161 -5.84901e-19)
(1.55417 0.648774 0)
(1.62664 0.537775 -1.4618e-18)
(1.71834 0.436064 2.16302e-18)
(1.82386 0.349402 1.54321e-18)
(1.9239 0.287116 -1.15065e-18)
(1.16328 0.866394 0)
(1.63597 0.966416 -2.53121e-18)
(1.5457 1.04319 4.03392e-18)
(1.60966 0.966451 -1.61488e-18)
(1.60857 0.913068 0)
(1.63799 0.825126 -1.63687e-18)
(1.67533 0.732117 3.43645e-18)
(1.73053 0.634964 -1.32565e-18)
(1.80219 0.54146 -1.05946e-18)
(1.88818 0.456578 7.40845e-19)
(1.96932 0.392094 0)
(1.22825 0.804743 -2.86876e-18)
(1.71498 0.956505 -2.67539e-18)
(1.65193 1.04485 1.86904e-18)
(1.72201 0.979298 -7.56014e-19)
(1.72356 0.94198 -1.26201e-18)
(1.7513 0.869185 -1.03181e-18)
(1.78191 0.791675 7.94754e-19)
(1.82666 0.707376 -3.50461e-20)
(1.88477 0.62319 8.74123e-19)
(1.95646 0.542755 -1.98612e-18)
(2.02465 0.479372 -9.47985e-19)
(1.28473 0.766601 0)
(1.78062 0.956035 2.27943e-18)
(1.7383 1.04843 -2.23922e-18)
(1.81314 0.989298 7.46992e-19)
(1.81789 0.963652 1.18e-18)
(1.8468 0.901662 -1.17636e-20)
(1.87458 0.836531 2.21401e-18)
(1.9136 0.763134 -2.31212e-18)
(1.96307 0.687933 2.90252e-20)
(2.02534 0.613033 1.29282e-18)
(2.08529 0.553763 0)
(1.32492 0.718658 2.74169e-18)
(1.84165 0.941866 -1.87191e-18)
(1.81391 1.04825 2.19946e-18)
(1.89163 0.996703 -1.38324e-18)
(1.8981 0.981881 5.46298e-19)
(1.92895 0.927946 -9.03338e-19)
(1.95569 0.87284 6.68496e-19)
(1.99185 0.808347 -2.13312e-18)
(2.0359 0.741275 8.44841e-19)
(2.09223 0.671787 1.1382e-18)
(2.14535 0.617209 -8.2973e-19)
(1.33887 0.673536 2.71943e-18)
(1.87747 0.935336 -2.72727e-19)
(1.87322 1.0516 4.20305e-19)
(1.95751 1.00516 1.7025e-18)
(1.96724 0.998876 -1.61866e-18)
(2.00109 0.950708 0)
(2.0278 0.903872 -6.69077e-19)
(2.06283 0.846568 0)
(2.10346 0.786768 7.70493e-19)
(2.15612 0.722068 -1.13586e-18)
(2.20551 0.671868 4.14452e-20)
(1.3581 0.643528 2.40249e-18)
(1.90692 0.936194 2.13922e-18)
(1.9268 1.05673 -3.78998e-18)
(2.01493 1.01557 1.30969e-18)
(2.02918 1.01447 -1.03743e-18)
(2.06562 0.971374 -8.06265e-19)
(2.0931 0.931102 1.85157e-18)
(2.12788 0.879901 -9.37431e-19)
(2.16655 0.826691 7.12214e-19)
(2.21694 0.766437 0)
(2.26523 0.719616 -8.46434e-21)
(1.37879 0.610305 3.43637e-19)
(1.93352 0.924826 0)
(1.97873 1.05462 -1.65221e-18)
(2.0674 1.0247 9.62199e-19)
(2.08668 1.02769 0)
(2.12464 0.990117 0)
(2.15325 0.955118 -6.07821e-19)
(2.1881 0.909442 0)
(2.22597 0.862169 3.24457e-19)
(2.27461 0.807064 4.73508e-19)
(2.32354 0.762828 -4.40543e-20)
(1.38257 0.57569 -2.76836e-18)
(1.94342 0.910785 2.13421e-18)
(2.02095 1.05006 0)
(2.11337 1.03287 0)
(2.13978 1.03846 -2.4153e-19)
(2.17893 1.00659 -1.84992e-19)
(2.20883 0.976144 0)
(2.24375 0.936027 0)
(2.28168 0.894364 -3.25193e-19)
(2.32924 0.844787 -4.72873e-19)
(2.3792 0.802499 -3.4715e-20)
(1.38387 0.544611 2.87574e-18)
(1.94289 0.895671 -2.16984e-18)
(2.05548 1.04288 3.39654e-18)
(2.15394 1.03889 -1.28528e-18)
(2.18867 1.04589 1.22028e-18)
(2.22849 1.01996 -5.56017e-19)
(2.25952 0.994173 1.17229e-18)
(2.29459 0.960345 -8.35833e-19)
(2.33346 0.924502 -5.94705e-19)
(2.38108 0.880694 4.43277e-19)
(2.43341 0.839253 0)
(1.38911 0.514237 -2.95158e-18)
(1.93623 0.873379 2.34421e-18)
(2.08429 1.02652 -5.41394e-20)
(2.18983 1.03689 0)
(2.23243 1.04624 -9.72426e-19)
(2.27192 1.02808 7.4071e-19)
(2.30378 1.00888 -6.8015e-19)
(2.33965 0.983154 4.08149e-19)
(2.38073 0.954078 0)
(2.42985 0.916784 0)
(2.48513 0.87672 0)
(1.39499 0.480801 -1.66051e-18)
(1.9201 0.83681 -2.19106e-19)
(2.10176 0.992171 0)
(2.21484 1.0181 0)
(2.2646 1.03405 0)
(2.30408 1.02838 0)
(2.33801 1.02012 -4.72811e-19)
(2.37697 1.00536 2.10109e-19)
(2.42248 0.984391 2.76175e-19)
(2.47507 0.953847 -3.93804e-19)
(2.53316 0.916254 0)
(1.41879 0.432366 -3.51751e-18)
(1.89095 0.777626 2.7561e-18)
(2.09853 0.926932 2.30561e-19)
(2.217 0.971505 0)
(2.27399 1.00365 5.28452e-19)
(2.31699 1.01884 -3.93095e-19)
(2.35755 1.0279 0)
(2.40424 1.02733 5.96996e-19)
(2.45738 1.01575 -4.22657e-21)
(2.51575 0.991836 -1.66167e-19)
(2.57814 0.955843 -1.25139e-19)
(1.29235 0.410985 0)
(1.80885 0.665346 1.09271e-18)
(2.00925 0.835392 -1.85922e-18)
(2.13938 0.905249 3.69234e-19)
(2.21813 0.962788 5.92021e-19)
(2.28283 1.00396 -4.32227e-19)
(2.34623 1.03292 -5.96292e-19)
(2.41255 1.04675 -4.22733e-19)
(2.48014 1.04483 -8.05047e-19)
(2.54823 1.02895 5.79378e-19)
(2.61671 0.995349 -4.75939e-19)
(2.28597 -0.251184 0)
(1.96936 0.515223 -1.74501e-18)
(2.1216 0.569018 2.39004e-18)
(2.16444 0.722399 -5.75222e-19)
(2.1955 0.85852 -7.1283e-19)
(2.24429 0.958029 0)
(2.31277 1.02312 2.2286e-20)
(2.39215 1.05647 0)
(2.47288 1.06596 4.29073e-20)
(2.55224 1.0606 3.80501e-19)
(2.63191 1.04415 -2.64598e-19)
(5.57066 -6.29489 9.72291e-19)
(4.86029 -3.65811 -5.63815e-19)
(4.50262 -3.58081 1.26059e-19)
(4.04234 -2.8671 1.46336e-19)
(3.6792 -2.25163 -2.56545e-19)
(3.43033 -1.75288 -3.82654e-19)
(3.25443 -1.36519 -5.01698e-19)
(3.12029 -1.06287 6.09845e-19)
(3.01169 -0.825702 -6.27204e-19)
(2.9209 -0.641211 6.67373e-19)
(2.83964 -0.501998 -4.96085e-19)
(5.83484 -4.12464 -1.44105e-17)
(5.28964 -0.930182 9.61863e-18)
(5.74233 -2.01156 0)
(5.30491 -1.98245 -1.73243e-19)
(4.71142 -1.75836 5.01165e-19)
(4.19753 -1.48259 0)
(3.79943 -1.18743 0)
(3.50477 -0.923548 -1.76137e-19)
(3.28363 -0.706481 5.80851e-20)
(3.11216 -0.533089 -1.88044e-19)
(2.97444 -0.402495 -1.59667e-19)
(4.50893 -2.11466 4.51741e-18)
(4.6428 0.834461 0)
(5.87282 -0.36377 -1.77254e-18)
(5.78049 -0.568383 0)
(5.34274 -0.768446 -4.94134e-19)
(4.80333 -0.829731 0)
(4.29415 -0.762804 7.15559e-19)
(3.87637 -0.633548 4.55364e-20)
(3.55237 -0.492662 1.03959e-21)
(3.30362 -0.365524 -4.89284e-20)
(3.11326 -0.267814 0)
(2.95758 -1.05661 1.53014e-17)
(3.76709 1.50107 0)
(5.35334 0.803844 1.48358e-17)
(5.54555 0.729388 -3.05343e-18)
(5.43754 0.31468 -6.29077e-18)
(5.05142 0.0235114 3.73807e-19)
(4.58585 -0.139851 -4.57819e-19)
(4.14024 -0.190076 -2.11664e-19)
(3.76268 -0.172494 2.45729e-19)
(3.4614 -0.12454 -3.3397e-19)
(3.22915 -0.0767541 1.96253e-20)
(1.73814 -0.691893 -2.78093e-17)
(2.95267 1.5633 2.03728e-17)
(4.59877 1.44425 -1.32831e-17)
(4.96321 1.59858 2.18362e-18)
(5.12997 1.18539 6.69263e-18)
(4.94254 0.829295 -3.52619e-19)
(4.61573 0.526869 0)
(4.2322 0.329107 1.06913e-18)
(3.86569 0.219527 -1.42583e-18)
(3.55042 0.171766 1.2654e-18)
(3.29668 0.154138 -3.77341e-19)
(0.881674 -0.626529 -3.87391e-19)
(2.30375 1.43825 0)
(3.87661 1.74276 1.86996e-18)
(4.32058 2.07485 0)
(4.63957 1.76092 0)
(4.60701 1.44733 0)
(4.43164 1.10487 0)
(4.15255 0.827987 1.76111e-18)
(3.84466 0.62528 -2.61048e-18)
(3.55238 0.493523 6.71993e-19)
(3.29818 0.421654 7.38085e-19)
(0.277331 -0.677322 0)
(1.8024 1.28297 1.71196e-18)
(3.26415 1.87026 -1.1619e-17)
(3.74509 2.313 -1.15666e-18)
(4.12421 2.1037 6.7313e-18)
(4.18353 1.86543 0)
(4.1256 1.54191 -1.05491e-18)
(3.94855 1.24482 0)
(3.7172 0.992982 -1.49255e-18)
(3.47221 0.79975 0)
(3.2435 0.671943 -3.82783e-19)
(-0.158349 -0.77434 1.68385e-17)
(1.41156 1.13873 -1.24071e-17)
(2.75913 1.91487 -1.10545e-17)
(3.25933 2.42383 8.53107e-18)
(3.65084 2.29806 9.58669e-19)
(3.75541 2.13023 2.4717e-18)
(3.774 1.84634 -3.48484e-18)
(3.67622 1.56213 1.2649e-18)
(3.51685 1.29584 1.46e-18)
(3.32681 1.06944 8.82572e-19)
(3.13688 0.8926 8.45357e-19)
(-0.472139 -0.87327 -1.46196e-17)
(1.08931 1.01176 7.98603e-18)
(2.33039 1.91061 2.09063e-18)
(2.84585 2.46431 2.77813e-18)
(3.23023 2.40168 8.15376e-18)
(3.35437 2.29024 -4.29352e-19)
(3.41935 2.04704 -4.17742e-18)
(3.37707 1.78838 -1.23898e-18)
(3.27691 1.5265 1.49292e-18)
(3.13921 1.28892 9.00893e-19)
(2.98592 1.09997 0)
(-0.704002 -0.95315 1.28732e-17)
(0.808533 0.905269 -1.75382e-17)
(1.95604 1.87903 -1.41598e-18)
(2.48248 2.45901 6.20206e-20)
(2.85446 2.44745 3.70769e-18)
(2.9867 2.37951 -5.33904e-20)
(3.07994 2.17161 0)
(3.07536 1.94049 0)
(3.0208 1.69135 -2.79513e-18)
(2.92836 1.45271 -7.5337e-19)
(2.81429 1.25774 8.85435e-19)
(-0.904384 -1.0205 0)
(0.533257 0.798506 0)
(1.61062 1.81979 -4.45469e-18)
(2.15109 2.41823 6.75115e-18)
(2.51011 2.45236 -1.70762e-18)
(2.6491 2.41551 -4.42893e-18)
(2.75905 2.23809 3.43146e-18)
(2.78165 2.03276 -1.9561e-18)
(2.76215 1.80003 -9.59832e-19)
(2.70753 1.56791 1.86797e-18)
(2.62974 1.37131 -7.63838e-20)
(-1.08915 -1.09356 0)
(0.275523 0.687838 0)
(1.29444 1.73639 -5.44132e-18)
(1.84201 2.35056 8.16695e-18)
(2.19125 2.42509 -3.07901e-18)
(2.3377 2.41146 0)
(2.45826 2.26008 -2.68334e-18)
(2.50173 2.07653 2.07087e-18)
(2.50979 1.86011 -3.89925e-20)
(2.48741 1.63831 -2.20242e-18)
(2.44306 1.4463 1.09459e-18)
(-1.24494 -1.1635 1.03685e-17)
(0.0345325 0.575054 -6.8229e-18)
(0.9965 1.62958 -3.68836e-18)
(1.54872 2.25692 7.29673e-18)
(1.89125 2.36939 -3.98792e-18)
(2.04704 2.37435 0)
(2.17561 2.2456 0)
(2.23695 2.08014 0)
(2.26822 1.87888 2.13267e-18)
(2.27433 1.6688 -1.95664e-18)
(2.26513 1.47904 1.73697e-18)
(-1.38366 -1.23493 -2.14427e-18)
(-0.20706 0.447305 -9.10319e-18)
(0.703656 1.49512 2.34183e-18)
(1.26107 2.13417 0)
(1.60228 2.28549 -2.07751e-18)
(1.77107 2.30741 1.72722e-18)
(1.90788 2.19914 0)
(1.98633 2.04883 -3.67438e-21)
(2.03898 1.86137 1.03583e-18)
(2.07057 1.66382 -1.39633e-20)
(2.09428 1.47654 -7.74497e-19)
(-1.51283 -1.31556 4.85263e-18)
(-0.444937 0.306311 6.06404e-18)
(0.418328 1.33546 -3.05482e-18)
(0.977505 1.98322 0)
(1.3213 2.17316 1.10166e-18)
(1.50596 2.21193 6.81555e-19)
(1.65264 2.12269 -1.90068e-18)
(1.74876 1.98555 -2.49589e-18)
(1.82264 1.81097 1.70519e-19)
(1.87819 1.62676 6.24151e-19)
(1.93072 1.4482 -1.10632e-18)
(-1.63168 -1.39794 4.10628e-19)
(-0.681519 0.152893 -1.24626e-18)
(0.135532 1.15019 -3.06039e-18)
(0.692809 1.80201 3.26332e-18)
(1.04246 2.02982 4.09485e-19)
(1.24599 2.08719 -4.71448e-19)
(1.40602 2.01601 1.75289e-18)
(1.52206 1.89109 9.30837e-19)
(1.61925 1.72937 -2.06446e-21)
(1.70065 1.55872 4.25441e-19)
(1.78585 1.39017 3.86756e-19)
(-1.74542 -1.48621 5.71241e-18)
(-0.922403 -0.0180537 -1.95898e-18)
(-0.152421 0.935439 -2.49004e-19)
(0.398653 1.58639 -3.54761e-19)
(0.757769 1.85027 -2.48765e-19)
(0.984066 1.92848 0)
(1.16222 1.8759 -1.39027e-19)
(1.30303 1.76379 -7.12295e-19)
(1.42758 1.61654 2.62419e-20)
(1.53669 1.46151 5.50696e-19)
(1.65264 1.30515 -1.76057e-19)
(-1.85847 -1.58919 1.97062e-19)
(-1.16987 -0.211692 2.69737e-19)
(-0.449916 0.686591 2.50014e-18)
(0.0883915 1.32977 -5.0754e-19)
(0.457582 1.62652 -2.73286e-18)
(0.710077 1.72677 1.62248e-18)
(0.914277 1.69446 -4.10846e-19)
(1.08751 1.59856 0)
(1.24557 1.47045 -1.67283e-19)
(1.38556 1.33613 1.96792e-19)
(1.53648 1.19844 -7.35978e-20)
(-1.97315 -1.71166 -1.5163e-19)
(-1.42674 -0.431487 3.85223e-21)
(-0.763426 0.398869 1.32181e-19)
(-0.247464 1.02283 1.73866e-19)
(0.129078 1.34427 -2.29369e-21)
(0.411531 1.46625 -6.18755e-19)
(0.652741 1.4574 4.36895e-19)
(0.869298 1.3854 0)
(1.06916 1.28557 -5.23887e-20)
(1.24532 1.1805 4.0323e-20)
(1.43239 1.07213 0)
(-2.09326 -1.85657 1.69515e-19)
(-1.69979 -0.677604 3.3913e-19)
(-1.10438 0.0670378 -1.48025e-19)
(-0.624222 0.651686 6.74775e-20)
(-0.245215 0.980624 -1.68854e-19)
(0.0723955 1.12087 4.73758e-19)
(0.364229 1.14191 -1.44059e-19)
(0.636629 1.10841 -6.29129e-23)
(0.886722 1.05245 1.32642e-20)
(1.10434 0.989462 9.49846e-20)
(1.32293 0.921705 -2.82273e-21)
(-2.22482 -2.03198 0)
(-1.99826 -0.981248 -3.8879e-19)
(-1.49455 -0.327588 0)
(-1.06192 0.183989 -2.88086e-19)
(-0.682373 0.489206 -8.60997e-20)
(-0.321233 0.63871 -6.19533e-20)
(0.0347203 0.698556 1.88518e-19)
(0.372294 0.722753 -7.95706e-21)
(0.676632 0.729761 -2.77622e-19)
(0.937777 0.724191 -1.81813e-19)
(1.1962 0.711543 5.58525e-20)
(-2.40955 -2.388 -1.39854e-18)
(-2.43595 -1.20699 3.46254e-19)
(-1.95667 -0.766373 6.35286e-19)
(-1.58573 -0.395488 2.12802e-20)
(-1.21008 -0.151274 -2.59134e-20)
(-0.807283 0.00635899 1.91075e-20)
(-0.394177 0.12765 -2.2156e-19)
(-0.00390431 0.237073 -3.00759e-19)
(0.341 0.329816 4.93987e-19)
(0.638946 0.398223 1.41919e-19)
(0.957403 0.447002 0)
(-3.19559 -1.85164 1.97742e-18)
(-2.54438 -1.69862 -3.97898e-19)
(-2.34694 -1.40106 -2.78111e-19)
(-1.96006 -1.20914 2.61404e-20)
(-1.4085 -0.98859 -1.07594e-19)
(-0.841538 -0.752582 1.65653e-19)
(-0.294665 -0.501416 -6.35496e-20)
(0.204919 -0.255221 3.28592e-19)
(0.645726 -0.0342811 9.56267e-19)
(1.03472 0.150721 1.75615e-20)
(1.42665 0.336069 -6.50989e-19)
(0.305035 -0.156925 0)
(-0.426698 0.193041 1.2408e-18)
(0.200882 0.0734898 -8.38931e-19)
(0.736683 0.0987642 0)
(1.14665 0.189563 7.15784e-19)
(1.48643 0.324386 3.17652e-20)
(1.76572 0.475975 4.19207e-20)
(1.99171 0.615194 4.23436e-20)
(2.17543 0.728305 3.01534e-19)
(2.33004 0.814936 3.34882e-19)
(2.47646 0.898494 8.31114e-19)
(4.00636 4.12008 2.0126e-19)
(3.06415 2.74794 1.98029e-19)
(2.76769 2.44374 -5.13701e-20)
(2.43476 1.94658 -3.65146e-19)
(2.18485 1.5274 0)
(2.01673 1.19429 -2.73861e-19)
(1.89729 0.936426 0)
(1.8143 0.737768 0)
(1.75632 0.585397 1.12281e-19)
(1.71729 0.469159 -7.52471e-20)
(1.69167 0.388032 3.60598e-20)
(4.17503 2.50377 7.68477e-18)
(3.12721 0.575621 -3.05579e-19)
(3.49543 1.22796 -2.20163e-18)
(3.19009 1.19696 2.42324e-18)
(2.81235 1.08098 -6.41506e-19)
(2.48914 0.933069 6.75848e-20)
(2.23517 0.769889 -5.08494e-20)
(2.05201 0.621551 2.3965e-20)
(1.9232 0.498653 0)
(1.83389 0.402027 0)
(1.77475 0.334035 1.02531e-20)
(2.87459 1.30469 1.61401e-17)
(2.35151 -0.632994 -2.14827e-17)
(3.32764 0.108143 6.99469e-18)
(3.28604 0.209369 3.93872e-19)
(3.07611 0.353717 0)
(2.78237 0.438684 1.40813e-19)
(2.4921 0.443225 2.50237e-19)
(2.25011 0.403376 -4.25932e-19)
(2.0659 0.347136 2.58809e-19)
(1.93217 0.293583 -1.29747e-19)
(1.84064 0.257314 9.01416e-21)
(1.50699 0.920291 7.9461e-18)
(1.57113 -0.857482 -5.24115e-19)
(2.73021 -0.516314 -1.42041e-17)
(2.88768 -0.543415 4.85003e-18)
(2.94742 -0.330139 2.94622e-18)
(2.79847 -0.116358 -1.84871e-18)
(2.57589 0.0243217 6.93982e-20)
(2.3478 0.103957 6.75017e-19)
(2.14977 0.13601 -4.61477e-19)
(1.99306 0.144861 0)
(1.87587 0.154552 -2.40296e-19)
(0.521336 0.995965 -1.31328e-17)
(0.946657 -0.612096 9.62605e-18)
(2.04859 -0.696456 6.26034e-18)
(2.33036 -0.912466 -4.81857e-18)
(2.58524 -0.774314 -6.66504e-19)
(2.58863 -0.564568 -3.06829e-18)
(2.47921 -0.366623 2.32449e-18)
(2.31849 -0.208987 6.03166e-19)
(2.14992 -0.10146 3.39603e-19)
(1.99952 -0.031177 0)
(1.8768 0.0255355 0)
(-0.152457 1.24501 -4.99448e-18)
(0.465487 -0.238569 -1.00149e-18)
(1.44917 -0.628209 0)
(1.80444 -0.992661 0)
(2.15779 -0.976935 -1.30453e-18)
(2.26726 -0.840426 0)
(2.26462 -0.653785 -8.71223e-19)
(2.18473 -0.470806 4.03733e-19)
(2.06935 -0.321447 -1.34641e-19)
(1.94831 -0.207002 1.8866e-19)
(1.83906 -0.111584 5.55546e-19)
(-0.62974 1.59112 9.36759e-19)
(0.0930757 0.17017 7.04761e-19)
(0.960316 -0.438624 0)
(1.36419 -0.912377 0)
(1.7572 -1.01493 1.25916e-18)
(1.92929 -0.963494 0)
(2.00227 -0.823567 -2.107e-18)
(1.99284 -0.655093 -1.87466e-18)
(1.93224 -0.49362 1.65475e-18)
(1.84965 -0.358497 -9.9244e-19)
(1.76496 -0.236727 0)
(-0.943303 1.99323 -9.04048e-19)
(-0.189464 0.5898 -1.26088e-18)
(0.571842 -0.181169 -4.63286e-18)
(1.00934 -0.745843 1.14387e-19)
(1.41468 -0.953636 1.11106e-18)
(1.62221 -0.981986 4.29407e-18)
(1.74152 -0.896386 -4.61936e-20)
(1.78165 -0.760335 1.19302e-18)
(1.76806 -0.610845 -9.02745e-19)
(1.72281 -0.47254 0)
(1.66376 -0.341733 5.9488e-19)
(-1.14735 2.38197 0)
(-0.423373 1.00156 5.63208e-19)
(0.266312 0.116629 8.56666e-19)
(0.726398 -0.528997 -1.78097e-18)
(1.13131 -0.831674 8.53183e-19)
(1.35983 -0.93324 -1.3428e-18)
(1.50604 -0.901651 0)
(1.57795 -0.803066 0)
(1.59819 -0.675434 0)
(1.58373 -0.546654 -8.92609e-19)
(1.55072 -0.416487 -4.65913e-19)
(-1.28068 2.75757 -2.34318e-18)
(-0.621963 1.4051 0)
(0.0162839 0.441613 -6.18584e-19)
(0.490884 -0.278307 -5.39763e-19)
(0.893444 -0.66962 0)
(1.13815 -0.840703 0)
(1.30138 -0.861758 -1.48148e-18)
(1.39383 -0.80133 1.63971e-18)
(1.43738 -0.699442 -6.78476e-19)
(1.44576 -0.586517 0)
(1.4346 -0.465112 0)
(-1.35492 3.14043 1.54581e-18)
(-0.786111 1.81268 3.50978e-19)
(-0.191947 0.79141 6.08336e-19)
(0.288752 -0.000250848 -4.00064e-19)
(0.68981 -0.477306 -6.01918e-19)
(0.949194 -0.717542 0)
(1.12529 -0.790985 -1.20843e-20)
(1.23226 -0.768461 8.98227e-19)
(1.29231 -0.693337 -6.16664e-19)
(1.31827 -0.598315 -3.28925e-19)
(1.3245 -0.489921 5.84648e-19)
(-1.38298 3.50367 2.45635e-18)
(-0.918183 2.2073 -3.47232e-19)
(-0.359301 1.15013 2.29973e-19)
(0.117614 0.294007 3.95411e-19)
(0.515747 -0.263627 -2.32179e-19)
(0.787003 -0.572194 4.53204e-19)
(0.973619 -0.698117 -3.38433e-19)
(1.09179 -0.713294 3.58289e-19)
(1.16399 -0.665042 -6.04026e-19)
(1.20289 -0.588594 3.58298e-19)
(1.2233 -0.493208 -4.62895e-19)
(-1.37943 3.81089 -1.78003e-18)
(-1.02445 2.57005 1.17554e-18)
(-0.496563 1.50502 -2.39774e-20)
(-0.0324139 0.597634 0)
(0.361137 -0.0332155 -2.58652e-19)
(0.6425 -0.408686 3.81325e-19)
(0.839233 -0.587628 -2.23661e-19)
(0.967858 -0.640992 3.82075e-19)
(1.05053 -0.619891 2.36351e-19)
(1.09985 -0.56271 -3.90951e-20)
(1.13048 -0.483136 2.22874e-20)
(-1.35566 4.07633 8.95003e-20)
(-1.10941 2.91148 -6.30271e-20)
(-0.617129 1.86266 5.66759e-19)
(-0.173694 0.917705 -5.20744e-19)
(0.213675 0.219435 0)
(0.504473 -0.223485 6.1457e-19)
(0.713033 -0.458182 -5.78628e-19)
(0.854027 -0.552284 0)
(0.948397 -0.559958 -2.34644e-19)
(1.00921 -0.522913 0)
(1.05199 -0.459793 -2.04219e-19)
(-1.32493 4.30393 6.08002e-19)
(-1.17634 3.22179 -9.02256e-19)
(-0.723693 2.21519 1.44595e-18)
(-0.307546 1.25099 -1.13572e-18)
(0.0708398 0.495309 3.99713e-19)
(0.368972 -0.0131221 0)
(0.589958 -0.305935 4.945e-19)
(0.745367 -0.444438 -2.95189e-19)
(0.853745 -0.484073 3.47746e-22)
(0.927617 -0.469463 -1.20694e-19)
(0.982279 -0.424028 -6.73092e-20)
(-1.28446 4.45553 0)
(-1.22409 3.48669 -4.56118e-19)
(-0.819201 2.55792 2.65072e-19)
(-0.436512 1.59972 1.18335e-19)
(-0.0708752 0.799939 -8.49309e-20)
(0.231734 0.229614 -1.20315e-19)
(0.465051 -0.123403 8.35946e-20)
(0.63688 -0.311054 0)
(0.762393 -0.387743 7.53527e-20)
(0.85256 -0.399987 0)
(0.921712 -0.375853 6.4415e-20)
(-1.22597 4.55506 6.43722e-19)
(-1.24737 3.71915 0)
(-0.899811 2.89695 2.43259e-19)
(-0.559472 1.97351 -2.49843e-19)
(-0.213552 1.145 -6.97961e-20)
(0.0888732 0.517084 1.22407e-19)
(0.333322 0.101508 6.235e-20)
(0.523345 -0.141343 0)
(0.669742 -0.262547 -7.60646e-20)
(0.780399 -0.308987 0)
(0.868679 -0.312094 3.89483e-20)
(-1.16475 4.61028 0)
(-1.24265 3.91502 -2.07178e-19)
(-0.956876 3.21955 1.22253e-20)
(-0.668885 2.36598 -1.1494e-19)
(-0.353819 1.53372 1.61729e-19)
(-0.0596923 0.85887 1.96657e-19)
(0.192384 0.382063 -1.50242e-19)
(0.40111 0.0788748 1.61448e-19)
(0.571741 -0.0958425 1.99755e-19)
(0.707266 -0.186745 -3.3475e-20)
(0.817957 -0.226519 -3.52725e-20)
(-1.09727 4.64334 0)
(-1.21114 4.07541 2.18274e-19)
(-0.986143 3.5094 -1.33394e-19)
(-0.759556 2.76176 0)
(-0.489844 1.96497 0)
(-0.215205 1.26649 -1.59992e-19)
(0.0395708 0.736611 -3.33148e-20)
(0.266682 0.370091 -2.9437e-19)
(0.463928 0.131699 -1.22638e-19)
(0.627982 -0.0168194 -5.97692e-20)
(0.766571 -0.105686 0)
(-1.02651 4.67133 2.6439e-20)
(-1.16363 4.20588 6.50374e-19)
(-0.994802 3.75684 3.81789e-19)
(-0.832947 3.14143 -5.43214e-20)
(-0.620684 2.43161 -6.4112e-20)
(-0.376622 1.75208 -3.10464e-20)
(-0.124669 1.18925 -1.21685e-19)
(0.118795 0.760611 -5.80421e-20)
(0.342171 0.448572 9.88101e-20)
(0.534386 0.227478 0)
(0.704436 0.0750929 0)
(-0.947079 4.70225 0)
(-1.12041 4.30729 9.07189e-20)
(-1.00286 3.96108 -2.14239e-19)
(-0.901468 3.49509 -3.92367e-19)
(-0.743595 2.92549 1.19985e-19)
(-0.531771 2.32377 -3.62943e-19)
(-0.287403 1.76396 1.91837e-19)
(-0.0355313 1.28375 2.69892e-19)
(0.205099 0.892484 -1.62429e-19)
(0.418131 0.588319 1.52396e-20)
(0.610267 0.359005 6.0324e-21)
(-0.951379 4.56382 0)
(-1.11071 4.32905 -4.79903e-19)
(-1.04972 4.11805 3.31563e-19)
(-0.975048 3.82023 4.41066e-19)
(-0.836961 3.4281 0)
(-0.641313 2.95873 7.42777e-19)
(-0.409086 2.45147 -1.60256e-19)
(-0.167065 1.95231 0)
(0.0661511 1.50008 -5.97379e-20)
(0.280814 1.12043 -1.46116e-20)
(0.499926 0.805436 2.88534e-20)
(-0.928367 4.79937 -4.2177e-19)
(-1.02541 4.47172 2.29336e-19)
(-0.951669 4.3161 0)
(-0.850323 4.12766 -3.68598e-19)
(-0.708385 3.88517 4.2366e-19)
(-0.540402 3.55458 -2.51591e-19)
(-0.363143 3.14446 0)
(-0.188365 2.69092 4.67344e-20)
(-0.0214842 2.24192 -3.31887e-20)
(0.130048 1.8387 -1.69594e-20)
(0.327115 1.44478 2.12022e-20)
(-0.470232 2.89426 0)
(-0.603468 3.02125 -5.29041e-19)
(-0.411026 3.03457 1.55979e-19)
(-0.273909 3.06981 0)
(-0.157028 3.09524 -2.40742e-19)
(-0.061892 3.09829 0)
(0.0201232 3.05863 0)
(0.114318 2.9102 -5.6138e-20)
(0.210636 2.68691 3.92669e-20)
(0.298376 2.42285 -2.61159e-20)
(0.413458 2.05264 0)
(0.559725 4.49965 0)
(0.415649 3.58966 0)
(0.948771 2.70676 0)
(1.26788 2.07964 1.01988e-18)
(1.4362 1.61518 0)
(1.51726 1.2653 9.26063e-19)
(1.55055 1.00006 -5.0272e-19)
(1.56734 0.790727 1.36821e-19)
(1.57742 0.628331 -4.5757e-19)
(1.58674 0.503604 0)
(1.59551 0.414033 2.35047e-19)
(-2.32403 1.12193 -5.81798e-19)
(-1.08263 1.95843 -2.36962e-18)
(-0.388178 2.0819 4.60711e-18)
(0.259633 1.8806 -2.94484e-18)
(0.702512 1.59135 0)
(0.997486 1.3005 6.8895e-19)
(1.18683 1.04339 -2.06543e-18)
(1.3063 0.828439 1.28443e-18)
(1.3865 0.655638 4.9709e-19)
(1.4441 0.520826 4.38636e-19)
(1.48524 0.423539 -5.51069e-19)
(-2.38586 0.063882 -8.98596e-19)
(-1.36163 0.522821 8.63396e-19)
(-1.10976 0.876456 5.85548e-19)
(-0.535751 1.16477 1.49473e-18)
(0.0200663 1.25202 0)
(0.483595 1.15631 -7.15047e-19)
(0.818221 0.981726 8.13901e-19)
(1.03577 0.799505 0)
(1.18314 0.639912 8.74431e-20)
(1.28707 0.510243 -6.40499e-19)
(1.35888 0.413102 0)
(-1.94841 -0.577385 0)
(-0.940457 -0.240023 -7.90763e-19)
(-1.08922 0.0559936 -6.90655e-19)
(-0.752767 0.384872 -1.29781e-18)
(-0.381068 0.616227 -5.48082e-19)
(0.0287152 0.727771 1.82755e-18)
(0.408295 0.723391 -5.21035e-19)
(0.72383 0.656104 0)
(0.954191 0.557164 -1.19218e-18)
(1.12091 0.457812 2.46436e-19)
(1.23251 0.375436 -2.19279e-19)
(-1.40885 -0.922464 -7.29963e-20)
(-0.48231 -0.716027 7.04091e-19)
(-0.799915 -0.509901 -5.30042e-19)
(-0.590015 -0.189424 0)
(-0.375952 0.080812 0)
(-0.0923788 0.284133 -6.71318e-19)
(0.218199 0.393649 -3.72498e-19)
(0.516203 0.419121 -7.53009e-19)
(0.760487 0.393942 3.59154e-19)
(0.953545 0.346119 3.3326e-19)
(1.08994 0.297803 -3.97133e-19)
(-0.927856 -1.08001 -7.98906e-20)
(-0.102275 -0.983805 1.49683e-19)
(-0.465344 -0.864775 -6.25239e-19)
(-0.321379 -0.588322 2.67689e-19)
(-0.22694 -0.343444 2.7946e-19)
(-0.0418292 -0.117924 -1.04006e-19)
(0.1876 0.0551002 3.57542e-19)
(0.429111 0.157624 -2.85787e-19)
(0.65429 0.203472 3.62505e-19)
(0.845714 0.211528 7.16875e-19)
(0.985196 0.204042 1.98279e-19)
(-0.531747 -1.12267 -3.86747e-19)
(0.195932 -1.11577 2.43015e-19)
(-0.156544 -1.06416 -1.42949e-20)
(-0.0352624 -0.82848 1.99965e-19)
(-0.0183581 -0.631274 0)
(0.0953612 -0.416257 0)
(0.250296 -0.230699 2.66532e-19)
(0.433132 -0.0897153 5.47866e-19)
(0.618163 0.00297746 -2.17534e-19)
(0.788933 0.0552075 -2.91549e-19)
(0.919911 0.0816721 4.35916e-19)
(-0.213409 -1.11549 0)
(0.41423 -1.17901 -2.31311e-19)
(0.102684 -1.17316 2.45775e-19)
(0.22401 -0.964592 0)
(0.190799 -0.814205 1.31243e-19)
(0.266483 -0.621446 -8.04197e-20)
(0.362605 -0.443109 0)
(0.491261 -0.290907 1.5075e-20)
(0.634064 -0.172964 1.03816e-19)
(0.775109 -0.0898218 -4.37483e-20)
(0.888782 -0.0351552 -5.86727e-20)
(0.056375 -1.0923 -1.73691e-18)
(0.583368 -1.22112 1.08585e-18)
(0.310611 -1.22233 -3.80861e-19)
(0.451689 -1.04577 -8.97877e-20)
(0.381177 -0.926494 7.86772e-20)
(0.43721 -0.756781 -1.88124e-20)
(0.493506 -0.594422 -6.74385e-21)
(0.58073 -0.443567 -4.07553e-20)
(0.685975 -0.315749 1.76541e-20)
(0.797881 -0.216861 5.65959e-20)
(0.892433 -0.147555 8.32532e-20)
(0.271145 -1.06321 -9.81128e-19)
(0.755072 -1.24942 8.10864e-19)
(0.494922 -1.23705 -5.08993e-19)
(0.629175 -1.09884 2.3093e-19)
(0.557357 -0.991897 -1.01526e-20)
(0.596132 -0.842772 0)
(0.625386 -0.697288 6.57564e-21)
(0.682057 -0.554454 -4.42176e-20)
(0.755761 -0.426947 1.67901e-20)
(0.839896 -0.322515 -5.33279e-20)
(0.913161 -0.244541 -7.46574e-21)
(0.424177 -1.02623 -1.49905e-19)
(0.908147 -1.25135 -8.35861e-20)
(0.670857 -1.23829 -3.53307e-19)
(0.784214 -1.12119 4.41856e-19)
(0.714365 -1.02609 -1.1174e-19)
(0.740128 -0.893634 4.38693e-20)
(0.750085 -0.763151 4.86378e-21)
(0.783648 -0.630497 -5.51434e-20)
(0.831135 -0.508412 -1.87888e-20)
(0.890762 -0.404373 0)
(0.942741 -0.322926 2.89008e-20)
(0.545049 -0.980064 -1.06203e-18)
(1.0364 -1.22807 0)
(0.822263 -1.2262 -1.07806e-18)
(0.922641 -1.12167 8.48634e-19)
(0.853379 -1.03728 3.75714e-19)
(0.869306 -0.918063 3.02934e-20)
(0.864537 -0.800483 1.33919e-19)
(0.879839 -0.678097 -1.01961e-19)
(0.905119 -0.563612 -2.60942e-20)
(0.942505 -0.463633 -2.57825e-20)
(0.975046 -0.384262 -1.24409e-20)
(0.652311 -0.928052 3.94189e-19)
(1.15494 -1.19218 7.07331e-19)
(0.952161 -1.20247 1.17311e-18)
(1.04626 -1.1056 -9.24267e-19)
(0.975749 -1.03049 -2.63896e-19)
(0.984259 -0.921613 1.58366e-19)
(0.967335 -0.815181 -4.36586e-19)
(0.967593 -0.702451 3.71831e-20)
(0.973559 -0.59649 2.60008e-19)
(0.99083 -0.502908 -1.56179e-19)
(1.00138 -0.430533 0)
(0.752082 -0.856659 1.24056e-18)
(1.26575 -1.13611 -2.96153e-19)
(1.06949 -1.16532 3.34964e-19)
(1.15694 -1.07559 0)
(1.08413 -1.00886 3.15746e-19)
(1.08603 -0.90862 0)
(1.05834 -0.811998 4.49425e-19)
(1.04555 -0.708133 -3.45392e-19)
(1.034 -0.610605 0)
(1.03306 -0.524121 3.14776e-19)
(1.02649 -0.458899 -1.18338e-19)
(0.83416 -0.769523 -6.61546e-19)
(1.35383 -1.06757 4.3663e-19)
(1.17335 -1.11566 -1.04042e-18)
(1.25211 -1.03361 -8.84055e-19)
(1.18123 -0.972887 3.78243e-19)
(1.17459 -0.880727 -3.84583e-20)
(1.13833 -0.792192 1.8912e-19)
(1.11319 -0.697058 -8.04967e-20)
(1.08616 -0.608223 -4.25573e-19)
(1.0671 -0.529406 1.94544e-19)
(1.04473 -0.470888 -1.4524e-19)
(0.908491 -0.678255 -2.6276e-18)
(1.42627 -0.989535 9.95577e-19)
(1.26621 -1.05489 -3.45028e-19)
(1.33398 -0.981383 9.06323e-19)
(1.26743 -0.924673 -9.24344e-20)
(1.25099 -0.840068 -7.96014e-20)
(1.20742 -0.758334 -3.11503e-19)
(1.17028 -0.671757 0)
(1.12955 -0.591435 -6.49578e-21)
(1.09369 -0.520519 0)
(1.05712 -0.467127 -1.19858e-19)
(0.977099 -0.578597 -1.0369e-18)
(1.48806 -0.896983 -4.69546e-19)
(1.35091 -0.980697 3.54186e-19)
(1.40502 -0.918205 0)
(1.34331 -0.864749 3.276e-19)
(1.31601 -0.787442 1.25318e-18)