/*--------------------------------*- C++ -*----------------------------------*\
| =========                 |                                                 |
| \\      /  F ield         | OpenFOAM: The Open Source CFD Toolbox           |
|  \\    /   O peration     | Version:  3.0.1                                 |
|   \\  /    A nd           | Web:      www.OpenFOAM.org                      |
|    \\/     M anipulation  |                                                 |
\*---------------------------------------------------------------------------*/
FoamFile
{
    version     2.0;
    format      ascii;
    class       volScalarField;
    location    "0.844398";
    object      p;
}
// * * * * * * * * * * * * * * * * * * * * * * * * * * * * * * * * * * * * * //

dimensions      [0 2 -2 0 0 0 0];

internalField   nonuniform List<scalar> 
21246
(
24.522
20.6026
16.9086
13.7458
11.2049
9.22686
7.65043
6.37314
5.33311
4.51467
3.94801
14.4038
16.5205
15.9677
14.4856
12.3926
10.3437
8.52564
7.01694
5.80054
4.85665
4.20189
2.21696
7.91181
9.65303
10.8404
10.4907
9.59105
8.34345
7.07143
5.92535
4.98336
4.31043
-4.51757
0.830365
2.68024
5.57481
6.77429
7.27003
7.00201
6.35098
5.5556
4.79364
4.18211
-7.11748
-3.18873
-2.23103
1.22466
2.83416
4.29015
4.92047
5.00295
4.72323
4.29226
3.89386
-7.97137
-4.94998
-4.75845
-1.68789
-0.124064
1.64582
2.75899
3.3998
3.60832
3.54541
3.3957
-7.83946
-5.69715
-5.46845
-3.28992
-1.96504
-0.257931
0.982828
1.91744
2.46513
2.71625
2.80735
-7.00753
-5.77999
-5.38906
-3.86679
-2.8547
-1.38922
-0.235039
0.776039
1.48978
1.94088
2.22163
-6.17802
-5.34506
-5.0227
-3.86397
-3.10576
-1.90259
-0.920986
0.0379544
0.785743
1.33609
1.73105
-5.5766
-4.8194
-4.53211
-3.57653
-2.99311
-1.99979
-1.19586
-0.341537
0.361013
0.930928
1.3804
-4.74467
-4.12225
-3.89791
-3.1028
-2.65828
-1.82973
-1.18534
-0.446306
0.173137
0.70705
1.14818
-3.58626
-3.1975
-3.09599
-2.47201
-2.16208
-1.47782
-0.977955
-0.350614
0.17173
0.647182
1.04334
-2.66539
-2.35533
-2.29324
-1.78791
-1.57785
-1.01223
-0.638162
-0.112867
0.308624
0.715065
1.05805
-2.01528
-1.66933
-1.58243
-1.13363
-0.977647
-0.496418
-0.220844
0.215806
0.540653
0.871129
1.13937
-1.16435
-0.905908
-0.871713
-0.492627
-0.380533
0.0348061
0.233997
0.596642
0.833419
1.08806
1.27315
-0.442397
-0.220926
-0.207044
0.126156
0.203075
0.571159
0.709162
1.00107
1.16405
1.33522
1.44873
0.0720401
0.335223
0.380646
0.702672
0.761041
1.1001
1.21172
1.41634
1.50931
1.59806
1.63226
0.681434
0.931898
0.973091
1.27793
1.35097
1.61439
1.70863
1.83847
1.85695
1.85839
1.81205
1.2955
1.52883
1.56175
1.83774
1.95311
2.16073
2.21491
2.25875
2.19337
2.10034
1.97268
1.88566
2.1128
2.14808
2.43971
2.57031
2.72324
2.72174
2.66186
2.49843
2.3068
2.09977
2.51853
2.76437
2.78898
3.14783
3.24109
3.30149
3.20665
3.01813
2.74482
2.45973
2.18442
3.31274
3.56826
3.64092
4.02506
3.993
3.88026
3.62526
3.28169
2.90008
2.5431
2.22371
3.9044
4.60921
4.77459
5.09015
4.80258
4.40279
3.919
3.41481
2.95176
2.56411
2.26518
6.21076
6.37893
6.40689
6.20068
5.46393
4.67225
3.92791
3.29517
2.80612
2.43656
2.16189
16.7424
15.9317
14.0668
12.0587
10.0694
8.3479
6.91944
5.75569
4.81591
4.08295
3.57322
-3.13242
5.11835
7.55088
8.59494
8.18354
7.20179
6.09404
5.08318
4.23743
3.57936
3.13518
-16.7218
-6.79083
-2.7936
1.45066
3.57023
4.36778
4.26936
3.83101
3.3186
2.86734
2.55579
-22.1387
-14.6888
-11.552
-6.04703
-2.40342
0.109388
1.40499
1.84324
1.92561
1.84274
1.78953
-22.8137
-18.0525
-16.3147
-11.3105
-7.59744
-4.26003
-1.94411
-0.553595
0.203359
0.596567
0.859007
-21.8356
-18.6336
-17.8421
-13.926
-10.9333
-7.59714
-4.91947
-2.91441
-1.59487
-0.735112
-0.138241
-20.5097
-18.1171
-17.7544
-14.7065
-12.5384
-9.59205
-7.04288
-4.83528
-3.19205
-1.9779
-1.11754
-19.054
-17.207
-17.052
-14.5265
-13.024
-10.4897
-8.28725
-6.14931
-4.3848
-2.9799
-1.91914
-17.7729
-16.2049
-16.183
-13.9044
-12.9183
-10.6499
-8.84071
-6.85613
-5.13236
-3.67961
-2.51959
-16.719
-15.2368
-15.2968
-13.0939
-12.5164
-10.3593
-8.92364
-7.08639
-5.50324
-4.0613
-2.92273
-15.7372
-14.4955
-14.2618
-12.3612
-11.8458
-9.82775
-8.67546
-6.96069
-5.54003
-4.16397
-3.0505
-14.5618
-13.5936
-13.1061
-11.6489
-10.9476
-9.17633
-8.17236
-6.57718
-5.3147
-4.02942
-2.98144
-13.4593
-12.5372
-12.0028
-10.7295
-9.94711
-8.44825
-7.46312
-6.01221
-4.88688
-3.71738
-2.77858
-12.4469
-11.472
-10.9113
-9.70663
-8.92328
-7.58251
-6.60874
-5.31229
-4.30387
-3.2673
-2.41581
-11.2565
-10.3027
-9.76002
-8.61664
-7.83299
-6.59548
-5.6561
-4.50127
-3.59962
-2.70712
-1.95624
-10.0458
-9.08788
-8.54998
-7.45389
-6.66014
-5.50776
-4.61073
-3.59185
-2.80149
-2.06899
-1.4711
-8.84512
-7.84938
-7.28676
-6.21983
-5.40132
-4.323
-3.4737
-2.59485
-1.93321
-1.37523
-0.948859
-7.55599
-6.5281
-5.93612
-4.89524
-4.04374
-3.03463
-2.24873
-1.52495
-1.0187
-0.646188
-0.383295
-6.14684
-5.08822
-4.46347
-3.44915
-2.56628
-1.63526
-0.945286
-0.40717
-0.0919737
0.0798868
0.163448
-4.58795
-3.48352
-2.82512
-1.84103
-0.946478
-0.130821
0.407717
0.711749
0.79911
0.765995
0.683561
-2.80485
-1.62404
-0.949219
-0.014044
0.829376
1.45856
1.74437
1.7567
1.59721
1.37338
1.14623
-0.80966
0.534789
1.23908
2.07673
2.73027
3.01331
2.90756
2.59512
2.21616
1.85238
1.54262
1.55333
3.01888
3.81331
4.42033
4.62367
4.41808
3.83467
3.22765
2.69089
2.23537
1.86753
3.3105
5.57192
6.17532
5.97543
5.45669
4.69363
3.87259
3.19228
2.67193
2.2856
2.0755
-0.6051
2.08428
2.7567
2.72666
2.41646
2.04113
1.68375
1.36112
1.07184
0.825386
0.67045
-15.5895
-7.45918
-4.12973
-1.86108
-0.505079
0.130273
0.370904
0.415365
0.367293
0.286437
0.232863
-17.7028
-12.4906
-9.93133
-6.80127
-4.22455
-2.48594
-1.42436
-0.828033
-0.513868
-0.34995
-0.238977
-14.8081
-13.0037
-11.937
-9.47272
-7.01453
-4.91662
-3.31043
-2.21416
-1.51358
-1.07306
-0.778244
-11.6241
-11.2921
-11.0971
-9.73653
-8.09012
-6.32684
-4.70461
-3.40349
-2.4503
-1.78237
-1.29652
-9.33311
-9.36602
-9.40343
-8.75741
-7.84352
-6.63736
-5.33948
-4.14045
-3.14164
-2.36681
-1.76378
-7.59109
-7.73885
-7.79409
-7.4894
-7.00816
-6.25647
-5.34015
-4.38972
-3.5042
-2.74715
-2.10972
-6.22296
-6.36914
-6.4101
-6.28137
-6.03851
-5.58833
-4.97872
-4.28098
-3.56803
-2.90897
-2.30865
-5.25229
-5.28684
-5.29961
-5.25153
-5.13289
-4.86808
-4.47304
-3.97934
-3.43137
-2.88847
-2.36132
-4.61191
-4.53254
-4.50871
-4.46978
-4.39179
-4.22223
-3.9587
-3.60892
-3.19422
-2.75858
-2.30617
-4.20921
-4.0233
-3.98076
-3.91327
-3.83038
-3.69741
-3.50251
-3.24234
-2.92369
-2.57706
-2.20566
-3.97391
-3.71949
-3.62175
-3.51617
-3.41185
-3.28472
-3.11986
-2.90999
-2.65417
-2.37151
-2.06242
-3.82123
-3.53483
-3.39438
-3.24574
-3.10801
-2.968
-2.80946
-2.62259
-2.40242
-2.15994
-1.89183
-3.689
-3.39133
-3.22772
-3.05186
-2.88742
-2.73082
-2.56666
-2.38428
-2.17823
-1.95652
-1.72133
-3.56501
-3.26827
-3.09213
-2.90071
-2.71917
-2.54998
-2.37779
-2.19018
-1.98287
-1.7649
-1.54427
-3.47108
-3.18327
-3.00437
-2.80803
-2.61438
-2.4321
-2.24515
-2.04044
-1.81572
-1.58418
-1.36121
-3.41588
-3.14165
-2.96689
-2.77519
-2.57776
-2.38098
-2.17128
-1.93498
-1.67505
-1.41223
-1.16655
-3.39156
-3.13431
-2.96799
-2.7856
-2.58959
-2.37969
-2.14004
-1.8599
-1.55188
-1.24944
-0.98407
-3.38931
-3.15357
-3.00042
-2.83051
-2.63673
-2.40945
-2.13006
-1.79585
-1.43386
-1.09188
-0.8056
-3.40224
-3.1909
-3.05574
-2.89866
-2.70162
-2.44593
-2.11483
-1.72127
-1.31266
-0.942909
-0.637856
-3.4056
-3.23007
-3.11988
-2.97403
-2.76237
-2.46403
-2.07658
-1.63068
-1.19301
-0.819248
-0.512525
-3.34228
-3.25782
-3.18611
-3.03462
-2.78814
-2.44742
-2.01855
-1.53992
-1.09773
-0.750887
-0.50904
-3.39167
-3.40763
-3.30883
-3.10028
-2.82236
-2.47768
-2.06051
-1.60182
-1.16241
-0.80621
-0.53345
-3.66774
-3.29311
-3.00865
-2.77449
-2.52365
-2.20623
-1.79707
-1.34615
-0.978063
-0.809288
-0.825384
15.3832
10.9946
7.89254
5.85388
4.45091
3.46551
2.73669
2.15897
1.68479
1.30274
1.04389
12.3232
12.1021
10.4458
8.44569
6.58762
5.07452
3.91783
3.00538
2.29297
1.74391
1.38589
7.95778
9.27663
9.2789
8.60484
7.36673
5.94784
4.65064
3.58354
2.7361
2.0777
1.62774
4.01935
6.08848
6.78816
7.05647
6.68206
5.86393
4.86539
3.87152
2.99666
2.2854
1.80135
1.21443
3.20137
4.05121
4.87679
5.22767
5.05684
4.51447
3.74338
2.99295
2.33331
1.87849
-0.641205
1.0247
1.73698
2.71555
3.35784
3.68132
3.63014
3.21111
2.7053
2.18463
1.80783
-1.84728
-0.476028
0.0410675
0.995472
1.71443
2.22707
2.47092
2.41856
2.16736
1.83026
1.56943
-2.60061
-1.47927
-1.1533
-0.276748
0.382371
0.964632
1.35022
1.52659
1.49877
1.34556
1.19744
-3.18388
-2.18588
-2.03603
-1.18854
-0.65938
-0.0688017
0.383153
0.680141
0.811493
0.817147
0.794212
-3.69372
-2.79699
-2.66218
-1.93485
-1.43886
-0.887029
-0.421033
-0.0599746
0.172316
0.294153
0.368212
-4.08135
-3.41055
-3.12592
-2.52573
-2.05666
-1.53451
-1.07268
-0.680105
-0.384664
-0.186987
-0.0408008
-4.34539
-3.78962
-3.50659
-2.97602
-2.53746
-2.04392
-1.59245
-1.18589
-0.851187
-0.597991
-0.402649
-4.57783
-4.06185
-3.79948
-3.31457
-2.90224
-2.43524
-1.99696
-1.58664
-1.22924
-0.935713
-0.688109
-4.80053
-4.28196
-4.02325
-3.56586
-3.17196
-2.72664
-2.30129
-1.89321
-1.52571
-1.21289
-0.937071
-4.87794
-4.40403
-4.16964
-3.74019
-3.36204
-2.9349
-2.52074
-2.11792
-1.74778
-1.42551
-1.13926
-4.91571
-4.47409
-4.25498
-3.84976
-3.4833
-3.07167
-2.66658
-2.26994
-1.90127
-1.57546
-1.28957
-4.94219
-4.51356
-4.29464
-3.9059
-3.54431
-3.14379
-2.74532
-2.35514
-1.99164
-1.66833
-1.39146
-4.91153
-4.50118
-4.28256
-3.90859
-3.5474
-3.1538
-2.76008
-2.37713
-2.02271
-1.70936
-1.4415
-4.82869
-4.43699
-4.21635
-3.85487
-3.49072
-3.10098
-2.71196
-2.3382
-1.99674
-1.70055
-1.45484
-4.70409
-4.32556
-4.09548
-3.74109
-3.37086
-2.98395
-2.60242
-2.24137
-1.91586
-1.63912
-1.4121
-4.53015
-4.15716
-3.90914
-3.55731
-3.18285
-2.80404
-2.43738
-2.09354
-1.78533
-1.52924
-1.3289
-4.27808
-3.90434
-3.62929
-3.2831
-2.92009
-2.56568
-2.2252
-1.90103
-1.60718
-1.36716
-1.19481
-3.99267
-3.56589
-3.26821
-2.96053
-2.64583
-2.33789
-2.02792
-1.71488
-1.42246
-1.18074
-1.01467
-3.20768
-2.85182
-2.6211
-2.42088
-2.21031
-1.97521
-1.70125
-1.40749
-1.13777
-0.905544
-0.757643
1.34714
1.18394
1.10298
1.0649
1.04236
1.02616
1.00319
0.968243
0.923291
0.879658
0.869228
1.98151
1.8033
1.6025
1.4644
1.36869
1.29414
1.22763
1.16123
1.0916
1.0283
1.00086
1.74148
1.78724
1.72369
1.6386
1.55574
1.47474
1.39236
1.30747
1.2225
1.15262
1.1202
1.41684
1.54948
1.59568
1.60164
1.57801
1.53317
1.47351
1.40545
1.33493
1.26841
1.22007
1.15985
1.33182
1.41546
1.47671
1.51548
1.52889
1.51526
1.47663
1.41847
1.35152
1.30244
0.9597
1.14481
1.23682
1.33413
1.41689
1.47343
1.49763
1.48871
1.44996
1.39275
1.34806
0.787833
0.987142
1.05838
1.17081
1.27706
1.36401
1.42222
1.44633
1.43479
1.39217
1.36164
0.682558
0.830898
0.914529
1.02605
1.13745
1.23878
1.31932
1.37165
1.39493
1.35148
1.35627
0.5964
0.726894
0.808277
0.910239
1.01806
1.12213
1.212
1.2782
1.3141
1.31514
1.32471
0.520169
0.646892
0.724113
0.819023
0.921234
1.02276
1.11468
1.188
1.23523
1.25622
1.27785
0.46762
0.587686
0.658852
0.747155
0.843062
0.939745
1.02977
1.10528
1.15902
1.19113
1.22599
0.445154
0.552198
0.613665
0.693429
0.781323
0.871156
0.956528
1.03065
1.08703
1.12588
1.16807
0.426593
0.52551
0.579984
0.652088
0.731657
0.813516
0.892341
0.9625
1.01835
1.06018
1.11181
0.403983
0.50052
0.550635
0.616349
0.687957
0.761445
0.832593
0.89705
0.950274
0.99228
1.0476
0.403246
0.487574
0.527933
0.584567
0.64665
0.710527
0.772704
0.83009
0.879671
0.921653
0.978958
0.399617
0.472592
0.504037
0.551071
0.602434
0.65529
0.707125
0.756336
0.801744
0.843592
0.904277
0.379945
0.446626
0.471372
0.508763
0.548292
0.588679
0.628995
0.669605
0.711625
0.755374
0.820252
0.364586
0.41766
0.430257
0.453758
0.477989
0.503352
0.531025
0.56367
0.605091
0.655677
0.731561
0.340302
0.375569
0.371796
0.376491
0.380921
0.388319
0.403471
0.431682
0.477955
0.541618
0.634675
0.292484
0.306924
0.283241
0.264393
0.244594
0.231755
0.23615
0.266641
0.32753
0.413079
0.524804
0.211593
0.198244
0.147941
0.100286
0.0524066
0.0201882
0.0216987
0.066712
0.156086
0.276159
0.417577
0.0944573
0.0180805
-0.0593996
-0.141025
-0.217436
-0.260041
-0.242309
-0.164133
-0.0277375
0.140339
0.320822
-0.29435
-0.276982
-0.397065
-0.50531
-0.591471
-0.620639
-0.564259
-0.414994
-0.210346
0.0148999
0.235109
0.564363
-0.260653
-0.602796
-0.839257
-0.974184
-0.978169
-0.850779
-0.627061
-0.356811
-0.0797963
0.174745
-1.01568
0.0369884
0.44972
0.571219
0.673502
0.750583
0.773329
0.764581
0.742154
0.710887
0.709889
-0.823055
-0.365744
-0.129433
-0.014155
0.123008
0.271261
0.390752
0.471097
0.500774
0.497273
0.517115
-0.56837
-0.506342
-0.432317
-0.391275
-0.354917
-0.272331
-0.140524
0.00977587
0.136912
0.212611
0.276854
-1.09992
-0.94361
-0.822045
-0.779772
-0.807175
-0.830148
-0.769783
-0.615175
-0.411398
-0.226399
-0.060316
-1.72745
-1.61442
-1.46294
-1.36703
-1.38771
-1.47661
-1.51215
-1.41362
-1.16986
-0.870591
-0.566628
-2.40414
-2.37645
-2.27555
-2.20186
-2.19801
-2.31065
-2.42568
-2.39396
-2.16292
-1.7624
-1.27103
-3.05947
-3.14602
-3.12955
-3.15743
-3.23038
-3.36762
-3.55861
-3.62163
-3.418
-2.94431
-2.29669
-3.67418
-3.87667
-3.95322
-4.11475
-4.33495
-4.60363
-4.89937
-5.06877
-4.91405
-4.3727
-3.53022
-4.21247
-4.52632
-4.69337
-4.99991
-5.39065
-5.86088
-6.32713
-6.66026
-6.5832
-5.99476
-4.9573
-4.60957
-5.05164
-5.29316
-5.73785
-6.29166
-6.958
-7.67407
-8.21872
-8.27778
-7.67004
-6.44022
-4.80649
-5.41233
-5.69765
-6.26614
-6.96639
-7.81216
-8.75469
-9.5346
-9.80424
-9.19622
-7.81123
-4.90081
-5.52099
-5.89951
-6.55064
-7.35295
-8.32577
-9.41756
-10.433
-10.9134
-10.3282
-8.88325
-4.80815
-5.40688
-5.87373
-6.55946
-7.42564
-8.46675
-9.62351
-10.7683
-11.3245
-10.8107
-9.22686
-4.46871
-5.04362
-5.55743
-6.25849
-7.14443
-8.20025
-9.35921
-10.46
-10.999
-10.5589
-8.99226
-3.92977
-4.43921
-4.94955
-5.6288
-6.4899
-7.511
-8.60156
-9.56119
-10.029
-9.5951
-8.15316
-3.18017
-3.60934
-4.09007
-4.72909
-5.54256
-6.4934
-7.46124
-8.23779
-8.54754
-8.07012
-6.80137
-2.23765
-2.6062
-3.06526
-3.67698
-4.45001
-5.32514
-6.1521
-6.71155
-6.77598
-6.20129
-5.07963
-1.21416
-1.57996
-2.06173
-2.68116
-3.43016
-4.22738
-4.89884
-5.21816
-5.00549
-4.26479
-3.25369
-0.375609
-0.829155
-1.38968
-2.03211
-2.74384
-3.44328
-3.94743
-4.02434
-3.54365
-2.63804
-1.66178
-0.0741652
-0.639526
-1.26509
-1.89928
-2.5543
-3.15641
-3.5069
-3.3549
-2.63659
-1.60966
-0.513421
-0.323779
-0.913165
-1.52793
-2.14815
-2.77615
-3.29416
-3.46968
-3.05657
-2.08999
-0.968653
0.159041
-0.907813
-1.50401
-2.11293
-2.68004
-3.22564
-3.51459
-3.21743
-2.4696
-1.54008
-0.610566
0.191447
-1.53274
-2.50531
-2.95172
-3.13894
-3.10192
-2.82271
-2.30776
-1.64894
-0.974125
-0.358804
0.127949
-4.02808
-3.17697
-2.57887
-2.23021
-1.99463
-1.71612
-1.35749
-0.951491
-0.543537
-0.168401
0.139034
0.953161
1.12992
0.845048
0.012199
-0.908443
-1.45185
-1.47321
-1.09724
-0.750091
0.835519
0.977192
0.737278
0.0597892
-0.615653
-1.04858
-1.10663
-0.872054
-0.671778
0.722881
0.84547
0.641995
0.0675403
-0.552608
-0.950249
-0.99896
-0.797685
-0.61783
0.623657
0.740077
0.558365
0.0613403
-0.44026
-0.773234
-0.844867
-0.692201
-0.544439
0.434218
-0.500592
-1.42893
-1.73404
-1.31611
-0.71971
-0.467919
-0.513484
-0.584922
0.411618
-0.300452
-0.932429
-1.22563
-0.961083
-0.619928
-0.477227
-0.516175
-0.576956
0.361751
-0.239734
-0.896918
-1.08279
-0.865397
-0.565832
-0.462418
-0.497301
-0.544476
0.31945
-0.166776
-0.629265
-0.879996
-0.745345
-0.515699
-0.446604
-0.464454
-0.499801
1.52488
1.54824
1.54337
-0.136467
-0.156105
1.46459
-0.446489
1.36635
1.45986
1.82457
-0.175353
1.36871
-0.0919944
-0.0343241
1.52207
1.11125
-0.0469065
-0.135554
1.11046
1.56345
0.994821
-0.269637
1.22252
-0.0943349
1.57095
-0.0338725
-0.0815967
-0.429899
0.359082
-0.170091
-0.0486043
1.03786
-0.00933839
1.18421
1.0603
1.54535
-0.0902202
1.57057
-0.00780742
1.3638
0.0812773
1.18855
-0.0386644
1.22596
-0.277235
-0.259278
-0.117257
-0.691582
1.38393
1.36181
-0.173403
1.36704
-0.0108055
-0.0411413
1.35244
0.991659
-0.256623
1.35338
0.437143
-0.0503302
0.455909
-0.0065831
-0.197951
-0.186795
-0.00742288
1.55914
-0.133097
1.39238
1.54327
1.80692
-0.0615001
1.87591
-0.160337
1.90128
-0.0854278
1.81113
-0.209476
1.19941
-0.275951
-0.4266
-0.140519
-0.187584
1.54206
1.54366
0.360775
-0.155551
-0.0620678
0.00430103
-0.240027
-0.0677691
1.5391
1.3502
0.0685552
1.67898
-0.373886
-0.81265
-0.0870967
0.0363601
-0.209784
1.89674
0.618185
-0.656047
1.62465
0.601306
-0.201473
1.4998
-0.00756063
1.54126
-0.0336933
0.813647
1.23505
1.18614
1.70614
-0.15673
-0.103092
1.53876
1.34619
1.17067
1.39296
1.51345
-0.16388
1.94175
0.559547
-0.0497211
-0.222006
-0.0170199
-0.0446538
-0.00763066
-0.00523474
-0.0237921
1.29148
-0.0521227
-0.657608
1.83059
1.51933
0.295027
-0.202808
-0.184962
-0.124174
1.49354
-0.00390819
0.966108
-0.31281
1.27996
1.33692
-0.17391
0.0855868
1.38821
1.9233
1.19452
1.24659
1.48382
-0.174415
1.9032
-0.148725
-0.0453382
-0.14714
-0.228736
-0.0410771
1.58001
0.0097061
-0.213029
1.84916
1.57439
-0.10615
-0.0714392
-0.254109
1.13921
0.0468927
-0.0112985
-0.01435
-0.0171952
0.0776046
0.876614
1.06479
1.00184
-0.000781221
-0.183797
-0.298113
1.03427
1.37199
-0.258981
1.52673
-0.161099
1.46212
-0.162431
1.2455
1.15755
1.56285
-0.274611
-0.0367445
-0.0558652
1.51864
0.0891574
1.54006
1.59508
1.49107
-0.217105
-0.0251495
1.53953
-0.138996
1.40079
-0.0582438
-0.0569629
1.52113
0.00353573
1.66309
-0.0032934
1.3935
1.52513
-0.0913417
1.14629
0.781016
1.14274
1.20447
-0.0432852
1.54413
-0.0953013
1.2764
-0.103496
0.000155889
-0.157873
-0.0872535
-0.110824
-0.0431621
1.32442
-0.126538
-0.0651401
-0.0313615
-0.204899
-0.220145
1.51294
1.24953
1.98618
-0.170226
-0.554876
-0.106404
1.52975
1.30158
1.30377
-0.0687554
-0.135619
0.557881
0.0801947
1.51902
-0.235883
1.17828
-0.0705701
-0.616997
-0.100402
-0.0680068
-0.0977248
0.982773
1.60449
0.399474
1.484
1.03571
1.57252
-0.161327
1.24037
-0.00088015
0.117855
1.51517
1.21336
1.23264
-0.114705
0.947659
1.36628
0.0963333
0.172521
-0.201253
1.27654
1.41748
-0.117806
1.59726
1.16773
-0.0575051
1.54343
1.47596
-0.209211
1.8994
1.41232
-0.134102
-0.0825502
0.439593
1.5995
-0.127997
1.32778
1.38518
-0.0114638
1.28374
-0.413841
1.05583
-0.0360237
1.53949
1.39118
0.0376859
1.23386
1.11758
-0.0643612
1.43064
-0.183736
1.30538
-0.160972
1.04766
0.781191
1.20939
0.00152695
-0.243227
1.25555
-0.376715
1.49627
0.717184
0.000344242
-0.307118
1.42404
-0.0839388
-0.218452
1.45238
1.74297
1.23221
-0.0537943
1.15186
-0.0632438
-0.211278
1.07626
1.18377
-0.0632517
1.50721
-0.0747805
1.30158
-0.193534
-0.163188
1.46828
-0.0975946
-0.631059
-0.160609
1.21375
1.5386
0.0574233
-0.0109902
-0.0614781
1.40811
-0.0712352
-0.206125
-0.010812
-0.0845279
1.17246
-0.103008
-0.0641077
-0.403841
0.0307432
0.204682
1.05867
-0.0288048
1.53973
-8.04065e-05
1.21577
1.21757
-0.0868948
0.178559
-0.0416457
1.5426
1.53964
1.66054
-0.246175
-0.01616
-0.0469246
-0.452842
0.67807
1.55005
-0.180944
-0.635323
-0.0150197
-0.0261284
1.27923
0.378089
1.03134
1.60987
1.19512
-0.0771449
1.60493
-0.171979
1.31513
-0.0545387
-0.0517569
-0.170832
-0.0420796
-0.132034
-0.257125
1.48449
-0.322302
-0.0166741
2.19854
-0.0546255
-0.00847669
1.20793
1.21001
1.40873
-0.0990743
-0.16822
1.53869
1.4661
0.0154293
0.00243171
0.0315108
-0.300808
-0.0394477
1.39074
-0.0487055
1.16416
1.10508
-0.0566589
-0.0540968
-0.168836
0.655891
-0.0404275
1.94445
-0.00491679
-0.313628
-0.133224
-0.00562371
-0.473267
-0.0134833
0.982255
0.8427
1.89263
-0.00981595
0.132927
-0.051416
1.17089
-0.209992
-0.0543089
1.42295
0.211874
-0.00349146
-0.120249
-0.142697
-0.0512003
1.16599
0.38064
-0.203003
-0.113665
-0.175447
1.14846
-0.0257809
-0.0235104
-0.138468
1.60528
-0.226581
1.47805
1.54385
1.54168
-0.289136
0.0712415
-0.453859
-0.0119417
-0.193571
-0.00103753
1.5603
1.61246
-0.0602142
-0.0164972
0.370725
1.14765
-0.0072504
0.00160751
1.53563
1.15206
1.31246
0.971365
-0.185056
1.16385
0.428299
1.15721
1.28425
1.27114
1.52152
-0.20079
1.24275
1.55934
1.01391
-0.185034
-0.246888
1.21558
-0.16235
-0.198214
1.31135
0.00142642
1.56342
-0.0893621
1.6006
1.15257
1.31984
-0.00365715
-0.0413897
1.52597
-0.0516611
0.728014
1.3677
-0.0344662
-0.0646535
1.4524
1.55157
-0.576323
0.020317
-0.162522
1.27711
-0.592153
1.16429
-0.105087
-0.0367606
-0.259815
-0.0679208
0.627686
-0.0862294
-0.0814495
-0.0487826
1.16967
0.032201
1.43623
1.41768
1.56925
1.28079
1.10139
-0.0981905
1.36779
1.56549
-0.109595
1.43348
-0.198626
0.378555
-0.0133981
-0.0595066
-0.251303
1.555
1.56009
1.41404
0.0542116
-0.191821
1.17626
1.56928
-0.0484268
1.46203
-0.11516
1.46261
-0.0804882
1.45441
-0.258459
-0.00655206
-0.00557964
-0.347455
-0.0973282
1.0475
0.925678
1.88891
1.26746
-0.0138698
-0.195705
1.48796
-0.0534325
-0.142639
-0.890291
1.56702
1.50993
1.49717
-0.0277666
-0.0896578
-0.0111857
1.47368
1.2977
-0.0856502
1.66907
-0.0346622
-0.0120596
-0.0469574
-0.232489
1.23213
-0.00369274
1.56456
-0.0793925
1.58604
-0.0834602
-0.000658277
1.12088
-0.299757
-0.0877764
1.36888
1.19693
-0.34099
1.57523
-0.00474381
-0.14898
-0.109626
-0.0449802
0.00208386
-0.093901
1.77519
1.38015
1.45864
-0.768247
-0.0991045
-0.0273844
1.54798
1.5624
-0.2963
1.23481
1.68235
1.12799
1.88648
-0.069439
-0.0732727
-0.113189
0.118417
0.547964
1.01272
1.59864
-0.102184
1.81965
1.4301
-0.644042
-0.0567547
1.14129
1.59507
-0.181378
1.6119
1.60487
0.428873
1.49831
1.02271
-0.106325
-0.0492641
0.265886
-0.00625245
-0.00571111
-0.299215
-0.0712701
0.324725
-0.0934259
-0.0217156
-0.253285
-0.155366
-0.0458691
1.16616
1.11162
-0.214718
0.531883
1.1597
0.882023
-0.0561038
-0.0325732
-0.599146
0.0523069
0.41138
1.18953
0.903778
1.5608
1.20797
1.61864
-0.10617
1.80672
1.24395
1.15914
1.26365
-0.14274
-0.0158024
-0.208224
1.83164
1.2358
1.21857
0.0289826
1.74048
-0.330479
1.75575
-0.0965706
-0.0183094
1.21433
0.0028921
1.55853
-0.0129285
-0.152758
-0.0657379
-0.663166
0.0234115
0.410802
1.54117
-0.0071629
-0.0182086
-0.288799
-0.0487588
1.16436
0.689148
1.543
0.16519
1.15705
-0.130931
1.47924
1.39719
1.59863
-0.0743948
-0.0757571
1.5591
-0.00218748
1.56333
-0.05882
-0.0430271
0.88511
-0.150914
0.0566079
-0.0244198
0.468913
-0.0908032
-0.0942474
-0.090418
-0.00170099
-0.45296
1.16933
-0.0690358
1.2795
1.27874
-0.368519
0.136634
-0.0975033
-0.0305982
1.66253
1.02016
1.49594
-0.10638
1.56068
-0.00424323
-0.0056806
-0.0733942
0.903753
0.328834
-0.0277246
-0.0433589
2.03516
-0.0987336
-0.148391
-0.209843
1.24487
-0.0438496
-0.175737
1.54358
-0.263812
-0.0063148
1.8061
-0.0957449
1.30014
1.15984
1.58736
-0.00844148
1.93157
-0.0164276
1.5067
-0.0181274
1.89962
-0.0447621
0.0166414
-0.053946
-0.0227804
1.14814
-0.11946
-0.410595
1.55755
-0.0149786
0.408001
0.0241325
0.934445
-0.218513
1.14403
-0.113344
-0.0166903
0.936311
1.19224
0.321316
1.18768
-0.084016
-0.0737451
1.54187
1.38692
0.650726
-0.202957
-0.0693613
-0.0938035
1.36052
-0.0601438
0.951613
1.17952
1.56315
1.48329
1.27712
1.50078
-0.00325935
-0.316959
-0.171297
-0.0195728
0.173676
1.59042
1.31558
0.265623
-0.073768
1.53122
0.25152
-0.0410773
-0.559081
-0.104092
0.240101
0.842454
-0.125305
1.59025
1.29088
-0.233799
1.4852
1.36736
0.843766
-0.0109685
0.34779
0.375712
1.54506
-0.00397663
0.0281397
-0.154618
1.35556
-0.011807
-0.0159097
-0.0715288
-0.130187
1.55238
1.18667
-0.133468
-0.0822244
0.0036614
1.54361
1.16669
1.76289
1.5879
1.3447
-0.0676838
-0.0613486
-0.221026
-0.521392
0.00743212
1.44588
-0.203558
1.55826
1.75847
0.536001
1.3117
1.54289
1.36756
-0.216536
-0.0253842
-0.0553957
1.54639
-0.125859
1.58671
1.5015
1.52005
1.59732
0.90361
1.21767
1.52767
1.5774
-0.73911
1.1878
1.58447
0.161881
-0.336834
1.30503
1.53942
-0.182062
-0.742989
1.22539
0.292586
-0.0730321
-0.132824
1.26687
1.56338
1.06949
1.24602
0.0098951
1.32322
-0.11068
-0.0423636
-0.0625907
-0.00199855
1.23277
-0.0425978
1.50551
1.21782
2.00062
1.25524
1.20255
0.0263651
-0.205598
0.466523
-0.0895305
-0.0567556
-0.0231271
0.514882
-0.306918
1.19741
1.23497
-0.00317279
-0.00204766
-0.0463452
1.39203
-0.240289
1.6927
-0.105962
1.63289
-0.00381777
-0.0244046
-0.211309
-0.0655901
1.58478
1.56317
-0.0759855
-0.191865
-0.0171894
0.217659
-0.0751095
0.951681
1.04033
-0.0724678
1.56864
1.5213
-0.00526441
-0.053085
-0.170044
-0.10466
-0.0139346
-0.0395078
-0.043448
-0.391248
1.54958
0.966725
-0.052807
1.57312
1.00182
1.50885
-0.0942626
-0.0429248
-0.0398571
1.55676
-0.0546199
1.4467
1.3605
-0.0425009
-0.148071
1.23466
1.53812
1.58391
0.159815
0.144831
-0.305049
0.668293
1.63769
0.0658196
-0.102252
-0.267859
1.5464
-0.0474635
-0.0116546
1.44216
-0.0120884
1.27885
-0.069796
-0.0832435
0.517041
-0.111513
1.38423
1.61788
-0.128937
-0.0622179
1.23579
-0.0480717
1.539
-0.577654
-0.00602848
-0.842592
1.55614
-0.0052075
-0.151245
-0.14933
-0.00581203
-0.0257556
1.54019
-0.00564931
-0.19348
1.20494
0.75128
-0.0722869
-0.148295
-0.0608836
-0.0824811
1.38921
1.61682
-0.21019
1.15237
0.031764
-0.0297867
-0.00827977
-0.0974042
1.34719
-0.118019
-0.200891
-0.00781784
-0.0904783
-0.015867
1.6063
-0.0280844
-0.00605716
1.56058
1.63032
1.51437
-0.0919827
0.913494
1.43874
-0.0299383
0.0214617
-0.0165782
1.23813
-0.400011
-0.0254664
0.919002
-0.0967481
1.17503
1.85739
1.45954
-0.502904
1.21288
-0.0147008
0.542309
-0.207468
1.2181
1.02749
1.54455
1.55952
-0.167379
-0.093931
0.02302
-0.280635
-0.0653441
-0.345544
1.7117
0.821083
-0.184523
1.55253
-0.0156265
-0.020156
1.23846
0.335515
-0.0106774
-0.0745812
1.15465
-0.0383296
1.54971
-0.0774763
1.25148
-0.557733
0.0270786
1.9718
-0.310757
-0.085087
1.08673
-0.0947627
-0.0128759
0.19982
-0.0879135
0.860877
-0.32135
-0.0201706
-0.164461
-0.334382
-0.0758686
1.48799
-0.0900896
1.4637
-0.0687051
-0.0376047
-0.16217
0.79941
-0.0790965
-0.266654
1.57788
1.38345
1.11891
1.24817
-0.0333661
-0.0625212
1.79682
-0.0350147
-0.10611
1.23805
-0.218368
-0.369331
0.246658
0.212862
-0.0445516
-0.0975445
-0.0167138
-0.0269407
1.5729
1.56886
-0.110036
1.59818
1.52796
-0.0805967
1.5403
1.54256
-0.0794542
2.04271
-0.679802
-0.030121
-0.152185
1.61235
-0.00634231
-0.0256611
-0.0446456
-0.420804
1.554
-0.0260795
-0.100801
-0.027123
0.00149485
1.10837
-0.0331452
1.48339
-0.15173
-0.0602088
1.30853
1.6106
-0.185459
0.355268
-0.107006
-0.222177
-0.077892
1.68014
1.51768
1.57152
0.276481
0.00125365
-0.0165894
-0.153262
-0.14932
2.16347
0.817709
1.50019
1.48315
-0.218826
1.58558
1.23304
0.141615
0.199945
-0.616598
-0.208194
1.24587
1.15275
-0.00741705
-0.178631
-0.0593514
-0.464144
-0.0670046
1.48827
1.28159
-0.0477067
-0.0607029
-0.0158704
-0.0389675
1.61956
-0.0317136
-0.0180442
-0.144432
1.09654
-0.0946085
-0.271257
1.23732
0.0436024
1.21183
1.81015
-0.184997
-0.0238897
-0.0833715
0.970506
1.46825
0.341315
-0.15179
-0.147454
-0.0670614
-0.16991
0.122052
1.35285
-0.509428
-0.161668
1.55969
-0.00499708
-0.0270378
1.48447
-0.0892063
1.56132
1.57291
1.84054
0.0471341
-0.00205233
1.16015
-0.0773737
1.55729
1.20891
1.54259
-0.0581406
1.16862
-0.0771586
0.010835
1.56641
-0.226858
-0.296563
-0.0585086
-0.214634
0.179597
-0.0608562
-0.00168785
1.37223
1.21952
1.51287
-0.0169364
1.53935
1.22954
0.153352
-0.191711
-0.0749573
-0.0128743
0.0149872
1.32109
-0.163818
0.00568396
1.16413
0.380157
1.1334
-0.00571216
1.45742
-0.0177499
0.997055
1.70782
1.42574
-0.19053
-0.0331504
1.34781
-0.0823222
1.15932
-0.0229357
-0.0646372
-0.150875
-0.0684044
1.58007
1.51787
-0.0325287
0.159749
-0.0383866
-0.0138178
-0.193797
-0.0102465
1.56666
-0.285301
-0.019409
1.56492
-0.155238
-0.13568
0.0365917
-0.205871
-0.15846
-0.00348217
-0.276226
0.103087
1.16872
1.36307
-0.0239543
-0.0964058
0.372918
1.20141
0.0871893
1.537
1.95124
-0.325854
1.5495
1.35661
-0.427198
-0.172218
1.41712
1.53486
1.44913
1.07157
1.2494
1.68092
-0.0468866
0.462179
1.14639
1.48555
-0.181184
1.27181
-0.0252533
1.55542
1.0919
1.36354
-0.017134
-0.312465
-0.0751433
1.5947
1.2163
-0.0331351
-0.0330536
1.55818
0.133418
-0.0703161
1.53717
0.144425
-0.0302176
-0.232538
-0.0584546
-0.136357
1.34979
-0.145805
1.47145
1.00396
1.73239
0.990636
1.56957
-0.0722027
1.70214
-0.188495
1.53873
1.5695
-0.182619
1.22645
1.55374
-0.139411
-0.0742502
-0.160722
1.60729
0.986
1.47817
-0.0555462
-0.0319838
-0.127818
1.1137
-0.0711505
0.032866
1.24763
1.14969
1.22502
0.903725
-0.128793
1.74588
0.435413
1.84616
-0.369525
0.0053425
-0.0433579
-0.0665484
1.28877
0.447787
1.53413
0.213204
-0.268539
1.58099
1.56779
-0.0232568
1.05664
1.15116
1.73292
-0.0671785
1.56974
-0.168064
-0.242883
-0.0263127
-0.0415584
1.15592
-0.00884428
1.42744
-0.46666
-0.070721
0.704136
-0.0734722
1.53566
1.22316
1.56083
1.12863
0.413299
0.985084
1.69122
-0.0355058
-0.142271
1.27302
0.930902
-0.37252
0.427273
1.5463
0.398682
1.75928
2.16346
-0.0763759
1.59221
-0.0133756
-0.0268569
1.00176
1.53124
-0.05074
-0.180129
1.61261
-0.0255512
1.58603
1.88278
-0.0379638
1.0116
-0.0474419
1.55899
1.66011
-0.370518
0.926358
1.22215
0.0615053
1.04051
1.29419
1.18153
1.23662
0.950524
0.474059
-0.0858597
-0.0711885
-0.223258
1.2892
1.44066
-0.144489
-0.00366997
1.03756
0.86429
0.124604
1.65853
-0.0554436
1.35701
-0.0858743
1.48334
1.6329
-0.00718838
-0.0834046
-0.046693
1.56042
1.5986
1.58936
1.52573
1.32713
-0.100689
-0.0749595
-0.149489
-0.0684662
-0.0194848
1.00181
1.27494
1.29167
-0.266399
1.76023
-0.0173838
-0.469206
1.10944
-0.0993833
-0.135494
1.15266
1.54074
0.577175
-0.0558163
-0.0648328
1.14105
-0.0541651
-0.0375741
-0.163381
-0.0143874
-0.032327
1.23871
-0.098687
0.134952
-0.292613
-0.0970382
-0.110655
-0.0144864
1.56196
1.72952
-0.116516
1.56185
-0.028274
-0.0557462
-0.0141567
-0.051639
-0.0829591
-0.0796306
0.262201
-0.0829723
1.47326
-0.07699
-0.026815
0.384077
0.174186
-0.180418
1.55836
-0.300028
1.47965
-0.0112452
-0.523217
-0.0666605
-0.0906186
-0.115489
-0.0602279
1.53646
1.76305
1.2457
1.64306
1.59914
0.884411
1.25623
-0.0901211
1.63899
-0.0705869
-0.123963
1.13765
1.54584
0.126163
0.0880688
1.51758
0.70337
1.22045
1.92194
0.547649
-0.0165863
1.55884
1.11695
1.08492
1.17441
1.78008
1.53523
0.25054
-0.172389
1.45966
0.419405
1.52689
1.14885
1.37343
1.54421
-0.0580551
1.53789
1.32843
1.12433
1.53359
-0.0170687
1.31012
-0.014126
-0.178628
-0.441329
-0.0169915
-0.0564264
0.00887667
-0.0280063
-0.0372653
-0.0597129
-0.0236447
1.1908
-0.0713191
0.850378
1.41595
1.55571