# Forces     
# CofR       : (0.000000e+00 0.000000e+00 0.000000e+00)
# Time       forces(pressure viscous porous) moment(pressure viscous porous)
1.292046e-04	((4.352655e+00 -1.984703e+00 -4.652639e-18) (4.605652e-03 -1.464330e-02 1.148990e-17) (0.000000e+00 0.000000e+00 0.000000e+00)) ((4.961757e-03 1.088164e-02 2.019427e-02) (3.660826e-05 1.151413e-05 -1.019608e-03) (0.000000e+00 0.000000e+00 0.000000e+00))
7.609288e-04	((3.384353e+00 -1.271954e+00 -2.172087e-18) (2.105206e-03 -1.404923e-02 3.364505e-17) (0.000000e+00 0.000000e+00 0.000000e+00)) ((3.179884e-03 8.460882e-03 1.833203e-02) (3.512307e-05 5.263016e-06 -1.129971e-03) (0.000000e+00 0.000000e+00 0.000000e+00))
1.685274e-03	((3.177671e+00 -9.852848e-01 -1.422487e-18) (1.267453e-03 -1.364804e-02 2.854305e-17) (0.000000e+00 0.000000e+00 0.000000e+00)) ((2.463212e-03 7.944177e-03 1.688070e-02) (3.412011e-05 3.168633e-06 -1.140533e-03) (0.000000e+00 0.000000e+00 0.000000e+00))
2.932034e-03	((3.243474e+00 -7.892404e-01 4.305457e-19) (1.628967e-03 -1.371107e-02 2.266609e-17) (0.000000e+00 0.000000e+00 0.000000e+00)) ((1.973101e-03 8.108685e-03 1.521698e-02) (3.427768e-05 4.072417e-06 -1.153468e-03) (0.000000e+00 0.000000e+00 0.000000e+00))
4.514687e-03	((3.441414e+00 -5.944553e-01 5.654114e-19) (2.880299e-03 -1.336040e-02 6.400581e-17) (0.000000e+00 0.000000e+00 0.000000e+00)) ((1.486138e-03 8.603535e-03 1.170333e-02) (3.340100e-05 7.200748e-06 -1.119130e-03) (0.000000e+00 0.000000e+00 0.000000e+00))
6.196203e-03	((3.654171e+00 -3.895885e-01 3.278477e-19) (4.629119e-03 -1.223770e-02 -4.114156e-17) (0.000000e+00 0.000000e+00 0.000000e+00)) ((9.739713e-04 9.135426e-03 6.112828e-03) (3.059426e-05 1.157280e-05 -1.027824e-03) (0.000000e+00 0.000000e+00 0.000000e+00))
7.866899e-03	((3.809096e+00 -1.727082e-01 -7.672317e-19) (6.296659e-03 -1.129969e-02 2.004231e-17) (0.000000e+00 0.000000e+00 0.000000e+00)) ((4.317706e-04 9.522740e-03 -8.721617e-04) (2.824922e-05 1.574165e-05 -9.740879e-04) (0.000000e+00 0.000000e+00 0.000000e+00))
9.532322e-03	((3.862610e+00 5.773205e-02 2.010244e-18) (7.631957e-03 -1.092607e-02 1.229817e-17) (0.000000e+00 0.000000e+00 0.000000e+00)) ((-1.443301e-04 9.656526e-03 -8.339726e-03) (2.731518e-05 1.907989e-05 -9.871179e-04) (0.000000e+00 0.000000e+00 0.000000e+00))
1.114979e-02	((3.804702e+00 2.816219e-01 -8.826691e-19) (8.740648e-03 -1.111582e-02 7.987217e-17) (0.000000e+00 0.000000e+00 0.000000e+00)) ((-7.040547e-04 9.511756e-03 -1.548884e-02) (2.778955e-05 2.185162e-05 -1.058396e-03) (0.000000e+00 0.000000e+00 0.000000e+00))
1.267475e-02	((3.629173e+00 4.762411e-01 -1.233620e-18) (9.792240e-03 -1.177946e-02 4.022437e-17) (0.000000e+00 0.000000e+00 0.000000e+00)) ((-1.190603e-03 9.072933e-03 -2.168692e-02) (2.944864e-05 2.448060e-05 -1.176666e-03) (0.000000e+00 0.000000e+00 0.000000e+00))
1.411903e-02	((3.351764e+00 6.256865e-01 -1.673860e-18) (1.092032e-02 -1.271028e-02 1.849647e-17) (0.000000e+00 0.000000e+00 0.000000e+00)) ((-1.564216e-03 8.379411e-03 -2.681068e-02) (3.177570e-05 2.730080e-05 -1.324020e-03) (0.000000e+00 0.000000e+00 0.000000e+00))
1.549345e-02	((3.014636e+00 7.256651e-01 5.843387e-19) (1.219643e-02 -1.383244e-02 -4.923472e-17) (0.000000e+00 0.000000e+00 0.000000e+00)) ((-1.814163e-03 7.536589e-03 -3.076356e-02) (3.458109e-05 3.049108e-05 -1.495117e-03) (0.000000e+00 0.000000e+00 0.000000e+00))
1.681006e-02	((2.645715e+00 7.774174e-01 -4.462639e-19) (1.360305e-02 -1.499671e-02 -5.324991e-17) (0.000000e+00 0.000000e+00 0.000000e+00)) ((-1.943543e-03 6.614288e-03 -3.352944e-02) (3.749178e-05 3.400763e-05 -1.676759e-03) (0.000000e+00 0.000000e+00 0.000000e+00))
1.808100e-02	((2.278835e+00 7.912483e-01 1.703253e-18) (1.511437e-02 -1.602387e-02 1.479026e-17) (0.000000e+00 0.000000e+00 0.000000e+00)) ((-1.978121e-03 5.697089e-03 -3.510393e-02) (4.005968e-05 3.778592e-05 -1.853616e-03) (0.000000e+00 0.000000e+00 0.000000e+00))
1.931350e-02	((1.928943e+00 7.725944e-01 -1.279797e-18) (1.662625e-02 -1.673198e-02 1.178411e-16) (0.000000e+00 0.000000e+00 0.000000e+00)) ((-1.931486e-03 4.822357e-03 -3.573190e-02) (4.182996e-05 4.156563e-05 -2.007836e-03) (0.000000e+00 0.000000e+00 0.000000e+00))
2.050924e-02	((1.628006e+00 7.442388e-01 4.154543e-18) (1.801514e-02 -1.701436e-02 3.542510e-17) (0.000000e+00 0.000000e+00 0.000000e+00)) ((-1.860597e-03 4.070014e-03 -3.535059e-02) (4.253589e-05 4.503785e-05 -2.126269e-03) (0.000000e+00 0.000000e+00 0.000000e+00))
2.166967e-02	((1.379368e+00 7.137398e-01 -5.067571e-19) (1.918463e-02 -1.686334e-02 -5.852512e-17) (0.000000e+00 0.000000e+00 0.000000e+00)) ((-1.784349e-03 3.448420e-03 -3.434658e-02) (4.215835e-05 4.796156e-05 -2.203493e-03) (0.000000e+00 0.000000e+00 0.000000e+00))
2.279976e-02	((1.181204e+00 6.863936e-01 -3.724940e-19) (2.007465e-02 -1.632320e-02 -7.469575e-17) (0.000000e+00 0.000000e+00 0.000000e+00)) ((-1.715984e-03 2.953010e-03 -3.312842e-02) (4.080800e-05 5.018663e-05 -2.239480e-03) (0.000000e+00 0.000000e+00 0.000000e+00))
2.390299e-02	((1.020857e+00 6.588413e-01 1.604919e-18) (2.073860e-02 -1.550244e-02 1.181686e-16) (0.000000e+00 0.000000e+00 0.000000e+00)) ((-1.647103e-03 2.552143e-03 -3.202727e-02) (3.875610e-05 5.184651e-05 -2.245427e-03) (0.000000e+00 0.000000e+00 0.000000e+00))
2.498309e-02	((8.865069e-01 6.271272e-01 1.210776e-18) (2.135733e-02 -1.457747e-02 3.229006e-17) (0.000000e+00 0.000000e+00 0.000000e+00)) ((-1.567818e-03 2.216267e-03 -3.121685e-02) (3.644368e-05 5.339333e-05 -2.245997e-03) (0.000000e+00 0.000000e+00 0.000000e+00))
2.604431e-02	((7.644436e-01 5.848465e-01 -5.787696e-19) (2.212573e-02 -1.367956e-02 2.428758e-17) (0.000000e+00 0.000000e+00 0.000000e+00)) ((-1.462116e-03 1.911109e-03 -3.056713e-02) (3.419890e-05 5.531432e-05 -2.263671e-03) (0.000000e+00 0.000000e+00 0.000000e+00))
2.709183e-02	((6.557988e-01 5.331705e-01 -4.812522e-19) (2.308472e-02 -1.284856e-02 3.218636e-17) (0.000000e+00 0.000000e+00 0.000000e+00)) ((-1.332926e-03 1.639497e-03 -3.013686e-02) (3.212141e-05 5.771179e-05 -2.303758e-03) (0.000000e+00 0.000000e+00 0.000000e+00))
2.812912e-02	((5.632014e-01 4.817810e-01 1.286953e-18) (2.422645e-02 -1.205138e-02 8.077011e-18) (0.000000e+00 0.000000e+00 0.000000e+00)) ((-1.204452e-03 1.408004e-03 -2.966493e-02) (3.012846e-05 6.056611e-05 -2.364081e-03) (0.000000e+00 0.000000e+00 0.000000e+00))
2.915873e-02	((4.854403e-01 4.313695e-01 1.728467e-18) (2.550273e-02 -1.125229e-02 2.780754e-17) (0.000000e+00 0.000000e+00 0.000000e+00)) ((-1.078424e-03 1.213601e-03 -2.922232e-02) (2.813072e-05 6.375683e-05 -2.439538e-03) (0.000000e+00 0.000000e+00 0.000000e+00))
3.018325e-02	((4.195066e-01 3.796274e-01 1.571527e-18) (2.686292e-02 -1.040646e-02 -4.637743e-17) (0.000000e+00 0.000000e+00 0.000000e+00)) ((-9.490686e-04 1.048767e-03 -2.885210e-02) (2.601614e-05 6.715729e-05 -2.525003e-03) (0.000000e+00 0.000000e+00 0.000000e+00))
3.120590e-02	((3.666641e-01 3.305191e-01 -8.477379e-19) (2.822306e-02 -9.500368e-03 2.348149e-17) (0.000000e+00 0.000000e+00 0.000000e+00)) ((-8.262979e-04 9.166601e-04 -2.861865e-02) (2.375092e-05 7.055766e-05 -2.613620e-03) (0.000000e+00 0.000000e+00 0.000000e+00))
3.223044e-02	((3.225626e-01 2.809678e-01 2.192239e-19) (2.959586e-02 -8.518194e-03 2.120871e-17) (0.000000e+00 0.000000e+00 0.000000e+00)) ((-7.024196e-04 8.064066e-04 -2.842211e-02) (2.129548e-05 7.398965e-05 -2.706443e-03) (0.000000e+00 0.000000e+00 0.000000e+00))
3.326151e-02	((2.853659e-01 2.289670e-01 -4.289344e-19) (3.099665e-02 -7.460337e-03 3.209686e-17) (0.000000e+00 0.000000e+00 0.000000e+00)) ((-5.724175e-04 7.134148e-04 -2.825527e-02) (1.865084e-05 7.749162e-05 -2.805231e-03) (0.000000e+00 0.000000e+00 0.000000e+00))
3.430458e-02	((2.558382e-01 1.740242e-01 5.419715e-19) (3.239175e-02 -6.314932e-03 2.859844e-17) (0.000000e+00 0.000000e+00 0.000000e+00)) ((-4.350605e-04 6.395956e-04 -2.816668e-02) (1.578733e-05 8.097936e-05 -2.907040e-03) (0.000000e+00 0.000000e+00 0.000000e+00))
3.536627e-02	((2.313440e-01 1.083499e-01 1.781261e-19) (3.373439e-02 -5.048377e-03 2.027445e-17) (0.000000e+00 0.000000e+00 0.000000e+00)) ((-2.708747e-04 5.783600e-04 -2.800484e-02) (1.262094e-05 8.433598e-05 -3.007736e-03) (0.000000e+00 0.000000e+00 0.000000e+00))
3.645396e-02	((2.150360e-01 3.368842e-02 1.518870e-19) (3.500764e-02 -3.648284e-03 2.923784e-17) (0.000000e+00 0.000000e+00 0.000000e+00)) ((-8.422105e-05 5.375900e-04 -2.781834e-02) (9.120711e-06 8.751910e-05 -3.106380e-03) (0.000000e+00 0.000000e+00 0.000000e+00))
3.757587e-02	((2.070803e-01 -5.935184e-02 -8.701791e-19) (3.619686e-02 -2.102853e-03 9.367069e-18) (0.000000e+00 0.000000e+00 0.000000e+00)) ((1.483796e-04 5.177007e-04 -2.747961e-02) (5.257131e-06 9.049216e-05 -3.202408e-03) (0.000000e+00 0.000000e+00 0.000000e+00))
3.874217e-02	((2.115133e-01 -1.757963e-01 -3.793096e-19) (3.730939e-02 -4.099657e-04 2.644497e-17) (0.000000e+00 0.000000e+00 0.000000e+00)) ((4.394908e-04 5.287832e-04 -2.694197e-02) (1.024914e-06 9.327349e-05 -3.297422e-03) (0.000000e+00 0.000000e+00 0.000000e+00))
3.996515e-02	((2.328805e-01 -3.273899e-01 -8.718434e-19) (3.836896e-02 1.447027e-03 3.277470e-17) (0.000000e+00 0.000000e+00 0.000000e+00)) ((8.184747e-04 5.822011e-04 -2.608274e-02) (-3.617568e-06 9.592239e-05 -3.394410e-03) (0.000000e+00 0.000000e+00 0.000000e+00))
4.125635e-02	((2.801391e-01 -5.294395e-01 1.944022e-19) (3.945103e-02 3.491930e-03 -5.193344e-17) (0.000000e+00 0.000000e+00 0.000000e+00)) ((1.323599e-03 7.003478e-04 -2.478047e-02) (-8.729825e-06 9.862759e-05 -3.500950e-03) (0.000000e+00 0.000000e+00 0.000000e+00))
4.263834e-02	((3.676271e-01 -7.864047e-01 1.533704e-18) (4.055510e-02 5.698408e-03 4.010731e-17) (0.000000e+00 0.000000e+00 0.000000e+00)) ((1.966012e-03 9.190677e-04 -2.294287e-02) (-1.424602e-05 1.013878e-04 -3.616431e-03) (0.000000e+00 0.000000e+00 0.000000e+00))
4.413838e-02	((5.212694e-01 -1.120127e+00 8.838457e-19) (4.161279e-02 8.163379e-03 8.975923e-17) (0.000000e+00 0.000000e+00 0.000000e+00)) ((2.800317e-03 1.303173e-03 -2.069444e-02) (-2.040845e-05 1.040320e-04 -3.736657e-03) (0.000000e+00 0.000000e+00 0.000000e+00))
4.579455e-02	((7.689698e-01 -1.514636e+00 1.319697e-18) (4.220205e-02 1.095767e-02 2.100573e-17) (0.000000e+00 0.000000e+00 0.000000e+00)) ((3.786591e-03 1.922424e-03 -1.778298e-02) (-2.739418e-05 1.055051e-04 -3.829583e-03) (0.000000e+00 0.000000e+00 0.000000e+00))
4.767492e-02	((1.122134e+00 -1.949209e+00 -1.949198e-18) (4.183618e-02 1.395189e-02 1.447370e-17) (0.000000e+00 0.000000e+00 0.000000e+00)) ((4.873022e-03 2.805336e-03 -1.191566e-02) (-3.487972e-05 1.045904e-04 -3.854159e-03) (0.000000e+00 0.000000e+00 0.000000e+00))
4.956809e-02	((1.573947e+00 -2.343450e+00 -9.016691e-19) (4.006700e-02 1.645005e-02 -3.230060e-17) (0.000000e+00 0.000000e+00 0.000000e+00)) ((5.858625e-03 3.934868e-03 -5.902587e-03) (-4.112512e-05 1.001675e-04 -3.762170e-03) (0.000000e+00 0.000000e+00 0.000000e+00))
5.133957e-02	((2.080382e+00 -2.655394e+00 -1.143713e-18) (3.752018e-02 1.822469e-02 2.346067e-17) (0.000000e+00 0.000000e+00 0.000000e+00)) ((6.638484e-03 5.200955e-03 -4.190579e-04) (-4.556172e-05 9.380044e-05 -3.596988e-03) (0.000000e+00 0.000000e+00 0.000000e+00))
5.301117e-02	((2.567502e+00 -2.849289e+00 -4.321524e-19) (3.449570e-02 1.913846e-02 2.885875e-17) (0.000000e+00 0.000000e+00 0.000000e+00)) ((7.123223e-03 6.418756e-03 6.495277e-03) (-4.784615e-05 8.623924e-05 -3.372755e-03) (0.000000e+00 0.000000e+00 0.000000e+00))
5.459282e-02	((3.034550e+00 -2.939566e+00 1.137598e-18) (3.141996e-02 1.957412e-02 1.287604e-17) (0.000000e+00 0.000000e+00 0.000000e+00)) ((7.348915e-03 7.586374e-03 1.303617e-02) (-4.893530e-05 7.854991e-05 -3.136041e-03) (0.000000e+00 0.000000e+00 0.000000e+00))
5.609256e-02	((3.471184e+00 -2.943860e+00 5.958452e-19) (2.816928e-02 1.938978e-02 2.533378e-17) (0.000000e+00 0.000000e+00 0.000000e+00)) ((7.359650e-03 8.677959e-03 1.901366e-02) (-4.847444e-05 7.042320e-05 -2.867503e-03) (0.000000e+00 0.000000e+00 0.000000e+00))
5.752403e-02	((3.861507e+00 -2.866388e+00 5.577277e-18) (2.494164e-02 1.862250e-02 2.968803e-17) (0.000000e+00 0.000000e+00 0.000000e+00)) ((7.165970e-03 9.653768e-03 2.416828e-02) (-4.655625e-05 6.235410e-05 -2.577296e-03) (0.000000e+00 0.000000e+00 0.000000e+00))
5.889984e-02	((4.206965e+00 -2.724064e+00 7.228190e-19) (2.192875e-02 1.744207e-02 3.833702e-17) (0.000000e+00 0.000000e+00 0.000000e+00)) ((6.810159e-03 1.051741e-02 2.828025e-02) (-4.360517e-05 5.482187e-05 -2.283297e-03) (0.000000e+00 0.000000e+00 0.000000e+00))
6.023094e-02	((4.496271e+00 -2.523055e+00 -1.577329e-18) (1.921416e-02 1.601168e-02 2.231513e-17) (0.000000e+00 0.000000e+00 0.000000e+00)) ((6.307639e-03 1.124068e-02 3.135888e-02) (-4.002920e-05 4.803540e-05 -1.997555e-03) (0.000000e+00 0.000000e+00 0.000000e+00))
6.152586e-02	((4.729137e+00 -2.274327e+00 2.059603e-18) (1.676778e-02 1.441057e-02 -4.854732e-17) (0.000000e+00 0.000000e+00 0.000000e+00)) ((5.685817e-03 1.182284e-02 3.326111e-02) (-3.602643e-05 4.191945e-05 -1.722102e-03) (0.000000e+00 0.000000e+00 0.000000e+00))
6.278761e-02	((4.907072e+00 -1.989901e+00 1.825986e-18) (1.462026e-02 1.264415e-02 2.293747e-17) (0.000000e+00 0.000000e+00 0.000000e+00)) ((4.974752e-03 1.226768e-02 3.400126e-02) (-3.161038e-05 3.655065e-05 -1.454935e-03) (0.000000e+00 0.000000e+00 0.000000e+00))
6.401642e-02	((5.023922e+00 -1.678638e+00 1.790825e-19) (1.279255e-02 1.077444e-02 3.054226e-17) (0.000000e+00 0.000000e+00 0.000000e+00)) ((4.196596e-03 1.255980e-02 3.365132e-02) (-2.693610e-05 3.198138e-05 -1.198641e-03) (0.000000e+00 0.000000e+00 0.000000e+00))
6.521776e-02	((5.080584e+00 -1.349897e+00 -2.999288e-19) (1.127117e-02 8.917682e-03 1.124866e-16) (0.000000e+00 0.000000e+00 0.000000e+00)) ((3.374742e-03 1.270146e-02 3.230823e-02) (-2.229421e-05 2.817794e-05 -9.598900e-04) (0.000000e+00 0.000000e+00 0.000000e+00))
6.639595e-02	((5.075442e+00 -1.013738e+00 1.284563e-19) (1.004782e-02 7.207309e-03 -6.687657e-17) (0.000000e+00 0.000000e+00 0.000000e+00)) ((2.534344e-03 1.268860e-02 3.021614e-02) (-1.801827e-05 2.511955e-05 -7.470964e-04) (0.000000e+00 0.000000e+00 0.000000e+00))
6.755483e-02	((5.014096e+00 -6.797836e-01 -1.201300e-18) (9.078708e-03 5.719151e-03 1.192820e-16) (0.000000e+00 0.000000e+00 0.000000e+00)) ((1.699459e-03 1.253524e-02 2.759607e-02) (-1.429788e-05 2.269677e-05 -5.637273e-04) (0.000000e+00 0.000000e+00 0.000000e+00))
6.869918e-02	((4.894368e+00 -3.548364e-01 -2.149796e-19) (8.287166e-03 4.447228e-03 4.088305e-17) (0.000000e+00 0.000000e+00 0.000000e+00)) ((8.870909e-04 1.223592e-02 2.460276e-02) (-1.111807e-05 2.071791e-05 -4.071789e-04) (0.000000e+00 0.000000e+00 0.000000e+00))
6.983514e-02	((4.712655e+00 -4.767514e-02 1.919029e-19) (7.635186e-03 3.400652e-03 1.163738e-16) (0.000000e+00 0.000000e+00 0.000000e+00)) ((1.191879e-04 1.178164e-02 2.148533e-02) (-8.501631e-06 1.908796e-05 -2.766943e-04) (0.000000e+00 0.000000e+00 0.000000e+00))
7.096705e-02	((4.482370e+00 2.341292e-01 -1.115734e-18) (7.087609e-03 2.587549e-03 3.362695e-17) (0.000000e+00 0.000000e+00 0.000000e+00)) ((-5.853230e-04 1.120593e-02 1.836748e-02) (-6.468872e-06 1.771902e-05 -1.716814e-04) (0.000000e+00 0.000000e+00 0.000000e+00))
7.209901e-02	((4.206622e+00 4.836764e-01 1.913785e-18) (6.592422e-03 1.977682e-03 3.353496e-17) (0.000000e+00 0.000000e+00 0.000000e+00)) ((-1.209191e-03 1.051655e-02 1.542736e-02) (-4.944205e-06 1.648106e-05 -8.917347e-05) (0.000000e+00 0.000000e+00 0.000000e+00))
7.323437e-02	((3.892288e+00 6.961689e-01 -5.645945e-19) (6.120624e-03 1.553464e-03 3.153161e-17) (0.000000e+00 0.000000e+00 0.000000e+00)) ((-1.740422e-03 9.730720e-03 1.266496e-02) (-3.883660e-06 1.530156e-05 -2.731161e-05) (0.000000e+00 0.000000e+00 0.000000e+00))
7.437748e-02	((3.549467e+00 8.686515e-01 -1.445665e-18) (5.664223e-03 1.262829e-03 1.097772e-16) (0.000000e+00 0.000000e+00 0.000000e+00)) ((-2.171629e-03 8.873667e-03 1.012793e-02) (-3.157073e-06 1.416056e-05 1.850408e-05) (0.000000e+00 0.000000e+00 0.000000e+00))
7.553428e-02	((3.186895e+00 9.990776e-01 -4.520371e-19) (5.209714e-03 1.082592e-03 1.987539e-17) (0.000000e+00 0.000000e+00 0.000000e+00)) ((-2.497694e-03 7.967239e-03 7.849064e-03) (-2.706481e-06 1.302428e-05 5.030238e-05) (0.000000e+00 0.000000e+00 0.000000e+00))
7.671238e-02	((2.813466e+00 1.087736e+00 -7.647908e-19) (4.748239e-03 9.717826e-04 4.364382e-17) (0.000000e+00 0.000000e+00 0.000000e+00)) ((-2.719340e-03 7.033665e-03 5.786013e-03) (-2.429456e-06 1.187060e-05 7.147344e-05) (0.000000e+00 0.000000e+00 0.000000e+00))
7.792150e-02	((2.432480e+00 1.133157e+00 8.653379e-19) (4.283285e-03 8.934725e-04 1.070208e-17) (0.000000e+00 0.000000e+00 0.000000e+00)) ((-2.832893e-03 6.081201e-03 3.961230e-03) (-2.233681e-06 1.070821e-05 8.524218e-05) (0.000000e+00 0.000000e+00 0.000000e+00))
7.917459e-02	((2.050028e+00 1.135498e+00 2.304441e-19) (3.801741e-03 8.092661e-04 9.005907e-17) (0.000000e+00 0.000000e+00 0.000000e+00)) ((-2.838744e-03 5.125071e-03 2.345312e-03) (-2.023165e-06 9.504352e-06 9.408845e-05) (0.000000e+00 0.000000e+00 0.000000e+00))
8.048783e-02	((1.669721e+00 1.094109e+00 -2.227280e-19) (3.309484e-03 6.775535e-04 1.570358e-17) (0.000000e+00 0.000000e+00 0.000000e+00)) ((-2.735272e-03 4.174302e-03 8.865055e-04) (-1.693884e-06 8.273710e-06 1.008795e-04) (0.000000e+00 0.000000e+00 0.000000e+00))
8.188399e-02	((1.299859e+00 1.009558e+00 8.196268e-19) (2.821575e-03 5.087149e-04 -3.686577e-18) (0.000000e+00 0.000000e+00 0.000000e+00)) ((-2.523896e-03 3.249648e-03 -3.784773e-04) (-1.271787e-06 7.053938e-06 1.050236e-04) (0.000000e+00 0.000000e+00 0.000000e+00))
8.338972e-02	((9.450421e-01 8.773217e-01 1.946483e-19) (2.345318e-03 3.404731e-04 1.877427e-17) (0.000000e+00 0.000000e+00 0.000000e+00)) ((-2.193304e-03 2.362605e-03 -1.334667e-03) (-8.511828e-07 5.863294e-06 1.039524e-04) (0.000000e+00 0.000000e+00 0.000000e+00))
8.503856e-02	((6.156308e-01 6.982509e-01 2.738514e-19) (1.896842e-03 1.299946e-04 1.816550e-17) (0.000000e+00 0.000000e+00 0.000000e+00)) ((-1.745627e-03 1.539077e-03 -2.005901e-03) (-3.249866e-07 4.742106e-06 1.013591e-04) (0.000000e+00 0.000000e+00 0.000000e+00))
8.690431e-02	((3.257115e-01 4.762127e-01 3.769749e-19) (1.507310e-03 -1.659718e-04 9.011842e-18) (0.000000e+00 0.000000e+00 0.000000e+00)) ((-1.190532e-03 8.142788e-04 -2.318903e-03) (4.149295e-07 3.768276e-06 1.007811e-04) (0.000000e+00 0.000000e+00 0.000000e+00))
8.885935e-02	((1.147061e-01 2.429510e-01 1.150490e-19) (1.243152e-03 -5.229279e-04 1.094584e-17) (0.000000e+00 0.000000e+00 0.000000e+00)) ((-6.073774e-04 2.867653e-04 -2.027388e-03) (1.307320e-06 3.107880e-06 1.037633e-04) (0.000000e+00 0.000000e+00 0.000000e+00))
9.070246e-02	((-1.064678e-02 3.292557e-02 8.301412e-20) (1.154900e-03 -8.894011e-04 1.136008e-17) (0.000000e+00 0.000000e+00 0.000000e+00)) ((-8.231392e-05 -2.661696e-05 -1.204974e-03) (2.223503e-06 2.887250e-06 1.122798e-04) (0.000000e+00 0.000000e+00 0.000000e+00))
9.243607e-02	((-6.429181e-02 -1.329662e-01 -3.753749e-20) (1.216195e-03 -1.249348e-03 1.191120e-17) (0.000000e+00 0.000000e+00 0.000000e+00)) ((3.324155e-04 -1.607295e-04 1.348674e-04) (3.123370e-06 3.040488e-06 1.260409e-04) (0.000000e+00 0.000000e+00 0.000000e+00))
9.407365e-02	((-7.225478e-02 -2.731260e-01 -1.449491e-19) (1.376552e-03 -1.565147e-03 1.855736e-17) (0.000000e+00 0.000000e+00 0.000000e+00)) ((6.828151e-04 -1.806369e-04 1.943445e-03) (3.912867e-06 3.441380e-06 1.413136e-04) (0.000000e+00 0.000000e+00 0.000000e+00))
9.562495e-02	((-4.991064e-02 -4.006378e-01 -1.606825e-19) (1.657041e-03 -1.799264e-03 1.419968e-17) (0.000000e+00 0.000000e+00 0.000000e+00)) ((1.001595e-03 -1.247766e-04 4.253654e-03) (4.498159e-06 4.142601e-06 1.600237e-04) (0.000000e+00 0.000000e+00 0.000000e+00))
9.710101e-02	((-5.258539e-03 -5.185635e-01 -1.984513e-19) (2.001631e-03 -1.947193e-03 -3.328972e-17) (0.000000e+00 0.000000e+00 0.000000e+00)) ((1.296409e-03 -1.314635e-05 6.747318e-03) (4.867982e-06 5.004077e-06 1.799136e-04) (0.000000e+00 0.000000e+00 0.000000e+00))
9.851477e-02	((5.424247e-02 -6.214791e-01 -2.547129e-20) (2.350817e-03 -2.011707e-03 5.380952e-18) (0.000000e+00 0.000000e+00 0.000000e+00)) ((1.553698e-03 1.356062e-04 9.034016e-03) (5.029267e-06 5.877043e-06 1.980184e-04) (0.000000e+00 0.000000e+00 0.000000e+00))
9.987902e-02	((1.232193e-01 -7.144267e-01 5.791328e-19) (2.662017e-03 -1.988413e-03 1.385118e-17) (0.000000e+00 0.000000e+00 0.000000e+00)) ((1.786067e-03 3.080482e-04 1.086437e-02) (4.971032e-06 6.655042e-06 2.119658e-04) (0.000000e+00 0.000000e+00 0.000000e+00))
1.012034e-01	((1.966118e-01 -7.901844e-01 3.197508e-19) (2.913413e-03 -1.906018e-03 2.377528e-18) (0.000000e+00 0.000000e+00 0.000000e+00)) ((1.975461e-03 4.915296e-04 1.202401e-02) (4.765046e-06 7.283534e-06 2.208466e-04) (0.000000e+00 0.000000e+00 0.000000e+00))
1.024954e-01	((2.699745e-01 -8.477048e-01 6.828170e-19) (3.092739e-03 -1.796775e-03 -3.434784e-17) (0.000000e+00 0.000000e+00 0.000000e+00)) ((2.119262e-03 6.749362e-04 1.236600e-02) (4.491937e-06 7.731848e-06 2.239015e-04) (0.000000e+00 0.000000e+00 0.000000e+00))
1.037546e-01	((3.395914e-01 -8.874682e-01 1.258756e-19) (3.190684e-03 -1.681235e-03 5.184861e-17) (0.000000e+00 0.000000e+00 0.000000e+00)) ((2.218671e-03 8.489784e-04 1.187594e-02) (4.203087e-06 7.976711e-06 2.202261e-04) (0.000000e+00 0.000000e+00 0.000000e+00))
1.049847e-01	((4.014531e-01 -9.075632e-01 1.274900e-19) (3.197184e-03 -1.583042e-03 1.236203e-17) (0.000000e+00 0.000000e+00 0.000000e+00)) ((2.268908e-03 1.003633e-03 1.056135e-02) (3.957604e-06 7.992960e-06 2.085854e-04) (0.000000e+00 0.000000e+00 0.000000e+00))
1.061914e-01	((4.529563e-01 -9.093463e-01 8.918719e-19) (3.105039e-03 -1.525467e-03 -2.718038e-17) (0.000000e+00 0.000000e+00 0.000000e+00)) ((2.273366e-03 1.132391e-03 8.510013e-03) (3.813667e-06 7.762597e-06 1.877201e-04) (0.000000e+00 0.000000e+00 0.000000e+00))
1.073786e-01	((4.932973e-01 -8.966458e-01 1.143760e-18) (2.913331e-03 -1.536879e-03 1.465312e-17) (0.000000e+00 0.000000e+00 0.000000e+00)) ((2.241614e-03 1.233243e-03 5.861054e-03) (3.842197e-06 7.283328e-06 1.564615e-04) (0.000000e+00 0.000000e+00 0.000000e+00))
1.085507e-01	((5.218028e-01 -8.696521e-01 3.319529e-19) (2.628060e-03 -1.640419e-03 5.963793e-17) (0.000000e+00 0.000000e+00 0.000000e+00)) ((2.174130e-03 1.304507e-03 2.838594e-03) (4.101048e-06 6.570149e-06 1.141694e-04) (0.000000e+00 0.000000e+00 0.000000e+00))
1.097134e-01	((5.415944e-01 -8.361501e-01 5.868959e-20) (2.261771e-03 -1.854155e-03 4.858675e-18) (0.000000e+00 0.000000e+00 0.000000e+00)) ((2.090375e-03 1.353986e-03 -3.823616e-04) (4.635387e-06 5.654428e-06 6.063659e-05) (0.000000e+00 0.000000e+00 0.000000e+00))
1.108726e-01	((5.581484e-01 -8.020296e-01 -1.246936e-18) (1.834349e-03 -2.186212e-03 5.210976e-18) (0.000000e+00 0.000000e+00 0.000000e+00)) ((2.005074e-03 1.395371e-03 -3.566637e-03) (5.465531e-06 4.585872e-06 -3.482161e-06) (0.000000e+00 0.000000e+00 0.000000e+00))
1.120328e-01	((5.743355e-01 -7.675674e-01 -2.805744e-19) (1.361088e-03 -2.650997e-03 -3.343167e-17) (0.000000e+00 0.000000e+00 0.000000e+00)) ((1.918919e-03 1.435839e-03 -6.496890e-03) (6.627491e-06 3.402721e-06 -7.822650e-05) (0.000000e+00 0.000000e+00 0.000000e+00))
1.131987e-01	((5.995882e-01 -7.408936e-01 8.957554e-19) (8.404873e-04 -3.280144e-03 1.947017e-17) (0.000000e+00 0.000000e+00 0.000000e+00)) ((1.852234e-03 1.498970e-03 -9.085678e-03) (8.200361e-06 2.101218e-06 -1.658345e-04) (0.000000e+00 0.000000e+00 0.000000e+00))
1.143740e-01	((6.363898e-01 -7.181708e-01 9.308048e-19) (2.621668e-04 -4.084513e-03 -2.938380e-17) (0.000000e+00 0.000000e+00 0.000000e+00)) ((1.795427e-03 1.590974e-03 -1.113175e-02) (1.021128e-05 6.554170e-07 -2.680490e-04) (0.000000e+00 0.000000e+00 0.000000e+00))
1.155648e-01	((6.911483e-01 -7.019838e-01 -1.248251e-19) (-3.343660e-04 -5.119940e-03 6.846781e-17) (0.000000e+00 0.000000e+00 0.000000e+00)) ((1.754960e-03 1.727871e-03 -1.268308e-02) (1.279985e-05 -8.359149e-07 -3.869286e-04) (0.000000e+00 0.000000e+00 0.000000e+00))
1.167794e-01	((7.595713e-01 -6.836211e-01 -7.567749e-19) (-8.835096e-04 -6.422323e-03 1.226325e-17) (0.000000e+00 0.000000e+00 0.000000e+00)) ((1.709053e-03 1.898928e-03 -1.375060e-02) (1.605581e-05 -2.208774e-06 -5.228890e-04) (0.000000e+00 0.000000e+00 0.000000e+00))
1.180281e-01	((8.329958e-01 -6.550567e-01 4.171249e-19) (-1.323041e-03 -7.970507e-03 -3.891997e-17) (0.000000e+00 0.000000e+00 0.000000e+00)) ((1.637642e-03 2.082489e-03 -1.444604e-02) (1.992627e-05 -3.307603e-06 -6.733965e-04) (0.000000e+00 0.000000e+00 0.000000e+00))
1.193254e-01	((8.968227e-01 -6.095156e-01 -1.413293e-18) (-1.590738e-03 -9.719181e-03 -4.583516e-17) (0.000000e+00 0.000000e+00 0.000000e+00)) ((1.523789e-03 2.242057e-03 -1.496109e-02) (2.429795e-05 -3.976846e-06 -8.347075e-04) (0.000000e+00 0.000000e+00 0.000000e+00))
1.206907e-01	((9.370962e-01 -5.463506e-01 1.330539e-18) (-1.614813e-03 -1.162550e-02 6.743263e-17) (0.000000e+00 0.000000e+00 0.000000e+00)) ((1.365876e-03 2.342740e-03 -1.562095e-02) (2.906374e-05 -4.037033e-06 -1.003841e-03) (0.000000e+00 0.000000e+00 0.000000e+00))
1.221499e-01	((9.365158e-01 -4.644731e-01 9.236077e-20) (-1.310049e-03 -1.357753e-02 3.545840e-17) (0.000000e+00 0.000000e+00 0.000000e+00)) ((1.161183e-03 2.341290e-03 -1.651665e-02) (3.394382e-05 -3.275123e-06 -1.173179e-03) (0.000000e+00 0.000000e+00 0.000000e+00))
1.237328e-01	((8.967180e-01 -3.722107e-01 -3.807979e-19) (-6.060702e-04 -1.538494e-02 1.668900e-17) (0.000000e+00 0.000000e+00 0.000000e+00)) ((9.305268e-04 2.241795e-03 -1.755045e-02) (3.846236e-05 -1.515175e-06 -1.329856e-03) (0.000000e+00 0.000000e+00 0.000000e+00))
1.254930e-01	((8.378118e-01 -2.764803e-01 5.035985e-19) (4.945221e-04 -1.688142e-02 -1.624784e-17) (0.000000e+00 0.000000e+00 0.000000e+00)) ((6.912008e-04 2.094529e-03 -1.833271e-02) (4.220355e-05 1.236305e-06 -1.464604e-03) (0.000000e+00 0.000000e+00 0.000000e+00))
1.274318e-01	((7.971344e-01 -1.839041e-01 7.186583e-20) (1.979262e-03 -1.800028e-02 1.586111e-17) (0.000000e+00 0.000000e+00 0.000000e+00)) ((4.597601e-04 1.992836e-03 -1.868884e-02) (4.500071e-05 4.948154e-06 -1.575739e-03) (0.000000e+00 0.000000e+00 0.000000e+00))
1.293675e-01	((8.000928e-01 -9.640747e-02 7.917342e-19) (3.727768e-03 -1.869203e-02 9.930166e-18) (0.000000e+00 0.000000e+00 0.000000e+00)) ((2.410187e-04 2.000232e-03 -1.866966e-02) (4.673007e-05 9.319419e-06 -1.661787e-03) (0.000000e+00 0.000000e+00 0.000000e+00))
1.311819e-01	((8.318086e-01 -9.001428e-03 -4.718497e-19) (5.561533e-03 -1.901454e-02 2.146142e-17) (0.000000e+00 0.000000e+00 0.000000e+00)) ((2.250357e-05 2.079522e-03 -1.850539e-02) (4.753636e-05 1.390383e-05 -1.728939e-03) (0.000000e+00 0.000000e+00 0.000000e+00))
1.328915e-01	((8.694018e-01 8.134067e-02 2.617464e-19) (7.397316e-03 -1.905588e-02 2.145149e-17) (0.000000e+00 0.000000e+00 0.000000e+00)) ((-2.033517e-04 2.173504e-03 -1.834975e-02) (4.763970e-05 1.849329e-05 -1.784931e-03) (0.000000e+00 0.000000e+00 0.000000e+00))
1.345095e-01	((8.987862e-01 1.712295e-01 7.779664e-19) (9.178496e-03 -1.888184e-02 1.445425e-17) (0.000000e+00 0.000000e+00 0.000000e+00)) ((-4.280737e-04 2.246966e-03 -1.835745e-02) (4.720460e-05 2.294624e-05 -1.834102e-03) (0.000000e+00 0.000000e+00 0.000000e+00))
1.360432e-01	((9.176575e-01 2.606542e-01 -8.375957e-19) (1.087593e-02 -1.854128e-02 1.863044e-17) (0.000000e+00 0.000000e+00 0.000000e+00)) ((-6.516356e-04 2.294144e-03 -1.835290e-02) (4.635320e-05 2.718982e-05 -1.878724e-03) (0.000000e+00 0.000000e+00 0.000000e+00))
1.375053e-01	((9.247055e-01 3.458362e-01 4.999012e-19) (1.248504e-02 -1.807006e-02 -3.618745e-17) (0.000000e+00 0.000000e+00 0.000000e+00)) ((-8.645905e-04 2.311764e-03 -1.850685e-02) (4.517515e-05 3.121261e-05 -1.920410e-03) (0.000000e+00 0.000000e+00 0.000000e+00))
1.389086e-01	((9.264639e-01 4.315442e-01 1.867492e-18) (1.400866e-02 -1.748497e-02 1.834714e-17) (0.000000e+00 0.000000e+00 0.000000e+00)) ((-1.078860e-03 2.316160e-03 -1.862837e-02) (4.371242e-05 3.502165e-05 -1.959649e-03) (0.000000e+00 0.000000e+00 0.000000e+00))
1.402655e-01	((9.208059e-01 5.149173e-01 1.758800e-18) (1.544850e-02 -1.679438e-02 -4.005375e-17) (0.000000e+00 0.000000e+00 0.000000e+00)) ((-1.287293e-03 2.302015e-03 -1.887031e-02) (4.198596e-05 3.862125e-05 -1.996491e-03) (0.000000e+00 0.000000e+00 0.000000e+00))
1.415853e-01	((9.077170e-01 5.961790e-01 -2.592719e-19) (1.680022e-02 -1.600286e-02 1.807632e-17) (0.000000e+00 0.000000e+00 0.000000e+00)) ((-1.490448e-03 2.269292e-03 -1.915703e-02) (4.000714e-05 4.200056e-05 -2.030525e-03) (0.000000e+00 0.000000e+00 0.000000e+00))
1.428737e-01	((8.875665e-01 6.742311e-01 7.964372e-19) (1.806522e-02 -1.511586e-02 9.125425e-17) (0.000000e+00 0.000000e+00 0.000000e+00)) ((-1.685578e-03 2.218916e-03 -1.950841e-02) (3.778965e-05 4.516304e-05 -2.061854e-03) (0.000000e+00 0.000000e+00 0.000000e+00))
1.441304e-01	((8.568154e-01 7.427492e-01 2.819439e-19) (1.925381e-02 -1.415924e-02 8.986743e-17) (0.000000e+00 0.000000e+00 0.000000e+00)) ((-1.856873e-03 2.142039e-03 -1.998881e-02) (3.539809e-05 4.813452e-05 -2.092500e-03) (0.000000e+00 0.000000e+00 0.000000e+00))
1.453603e-01	((8.170118e-01 8.010475e-01 8.179448e-19) (2.038489e-02 -1.315360e-02 1.561234e-17) (0.000000e+00 0.000000e+00 0.000000e+00)) ((-2.002619e-03 2.042530e-03 -2.056066e-02) (3.288401e-05 5.096221e-05 -2.124674e-03) (0.000000e+00 0.000000e+00 0.000000e+00))
1.465684e-01	((7.709141e-01 8.497659e-01 4.936687e-19) (2.148477e-02 -1.211323e-02 1.963753e-17) (0.000000e+00 0.000000e+00 0.000000e+00)) ((-2.124415e-03 1.927285e-03 -2.122564e-02) (3.028306e-05 5.371193e-05 -2.160791e-03) (0.000000e+00 0.000000e+00 0.000000e+00))
1.477587e-01	((7.181498e-01 8.857036e-01 -3.807249e-19) (2.256292e-02 -1.104417e-02 2.358517e-17) (0.000000e+00 0.000000e+00 0.000000e+00)) ((-2.214259e-03 1.795374e-03 -2.198570e-02) (2.761042e-05 5.640731e-05 -2.201675e-03) (0.000000e+00 0.000000e+00 0.000000e+00))