/*--------------------------------*- C++ -*----------------------------------*\
| =========                 |                                                 |
| \\      /  F ield         | OpenFOAM: The Open Source CFD Toolbox           |
|  \\    /   O peration     | Version:  3.0.1                                 |
|   \\  /    A nd           | Web:      www.OpenFOAM.org                      |
|    \\/     M anipulation  |                                                 |
\*---------------------------------------------------------------------------*/
FoamFile
{
    version     2.0;
    format      ascii;
    class       volScalarField;
    location    "0.800728";
    object      nut;
}
// * * * * * * * * * * * * * * * * * * * * * * * * * * * * * * * * * * * * * //

dimensions      [0 2 -1 0 0 0 0];

internalField   nonuniform List<scalar> 
21246
(
4.19083e-05
0.00021262
0.000268492
0.000320017
0.00034803
0.000349613
0.000314085
0.000262383
0.000220851
0.000190648
0.000166327
3.35861e-05
0.000140794
0.000181068
0.000250753
0.000331199
0.00036282
0.000334768
0.000274827
0.000222427
0.000184927
0.000155839
3.13497e-05
0.000103608
0.000149037
0.000200066
0.000268509
0.000351642
0.000355367
0.000294916
0.000231138
0.000184925
0.000150558
3.09834e-05
8.54537e-05
0.000132974
0.000175953
0.000229844
0.000304577
0.000362757
0.000319099
0.000246937
0.000191951
0.000153316
3.05306e-05
7.76974e-05
0.000122615
0.000161048
0.000205401
0.000262673
0.00033341
0.00033998
0.000269179
0.000205774
0.000162823
2.93275e-05
7.50057e-05
0.000115612
0.000150509
0.000187376
0.000229497
0.000285497
0.000328355
0.000294099
0.000225981
0.000177049
2.75268e-05
7.52557e-05
0.000111661
0.00014329
0.000174237
0.000205213
0.000243223
0.000287198
0.000300242
0.000252503
0.000196639
2.53239e-05
7.79175e-05
0.000111013
0.000139394
0.000165568
0.000188999
0.000213685
0.00024496
0.000277273
0.000270712
0.000222945
2.29929e-05
8.35656e-05
0.000114353
0.00013892
0.000160756
0.000178871
0.000194886
0.000213845
0.000242289
0.000265988
0.00024772
2.18187e-05
9.48929e-05
0.00012357
0.000143036
0.000159961
0.000173556
0.000183806
0.000194013
0.000212077
0.000241752
0.000257635
2.28564e-05
0.0001152
0.000142412
0.000154983
0.000165111
0.000173422
0.000178995
0.000183284
0.000192312
0.000214725
0.000246496
2.38024e-05
0.000141496
0.000172465
0.000178572
0.000179365
0.000180046
0.000180171
0.000179662
0.000182077
0.000195181
0.000224858
2.32917e-05
0.000162246
0.000206286
0.000213345
0.000205358
0.000195794
0.000188179
0.000182188
0.000179191
0.000184495
0.000205485
2.16666e-05
0.000171327
0.000232875
0.000251384
0.000242163
0.000222754
0.00020498
0.000191516
0.000182773
0.000181589
0.000193711
1.95734e-05
0.000171473
0.000248283
0.000282154
0.000282918
0.000259891
0.000231974
0.000209079
0.000193312
0.00018597
0.000190553
1.74568e-05
0.000164516
0.000252094
0.000298667
0.000316448
0.000300822
0.000267703
0.000235473
0.00021157
0.000197763
0.000195833
1.55282e-05
0.000151724
0.00024474
0.000299349
0.000333528
0.000335048
0.000306405
0.000268903
0.000237542
0.000217329
0.000209698
1.38747e-05
0.000135705
0.000228952
0.000287452
0.000332304
0.000353515
0.000339204
0.000304225
0.00026915
0.000244149
0.000232285
1.25423e-05
0.000119838
0.000208742
0.000268038
0.000316998
0.000353434
0.000358496
0.000334411
0.000301891
0.000275932
0.000262249
1.1375e-05
0.000106604
0.000189978
0.000245959
0.000293689
0.000339343
0.000361958
0.000353297
0.000329364
0.000307457
0.000295793
1.01382e-05
9.51378e-05
0.000172171
0.000226794
0.000271836
0.000317799
0.000353022
0.000357485
0.000344178
0.000329881
0.000323558
8.95034e-06
7.6055e-05
0.000137074
0.000190403
0.000241452
0.00029059
0.000333229
0.000345763
0.00034042
0.000332824
0.000331348
9.36235e-06
6.96479e-05
0.000105117
0.000136765
0.00016161
0.000197059
0.00025261
0.000293296
0.000310924
0.000314878
0.00031523
8.52651e-06
1.33946e-05
1.80871e-05
2.39211e-05
3.17068e-05
4.42494e-05
6.64258e-05
0.000107928
0.000167321
0.000223852
0.000264904
3.66014e-05
0.000209447
0.000273429
0.00030663
0.000332572
0.00033611
0.000305485
0.000261878
0.000226766
0.000201589
0.000182293
2.35908e-05
0.00015595
0.000248551
0.000306994
0.000339154
0.000346838
0.000319861
0.00027577
0.000238834
0.000212924
0.000194086
2.2555e-05
0.000127715
0.00022251
0.000314384
0.000362822
0.000374057
0.000347162
0.000298243
0.000255584
0.000226576
0.000206993
2.42324e-05
0.000116798
0.000210424
0.000316412
0.000380967
0.000402773
0.000380647
0.000328422
0.000277286
0.00024155
0.000218251
2.66595e-05
0.000111271
0.000206557
0.000315277
0.000387134
0.000420994
0.00041001
0.000361145
0.000305792
0.00026336
0.000233309
2.90129e-05
0.000108295
0.000205735
0.000313812
0.000390299
0.000433215
0.000431062
0.000386337
0.000329533
0.000283552
0.000249629
3.11498e-05
0.00010671
0.000206
0.000312378
0.000391753
0.000441933
0.000448489
0.000409911
0.000354372
0.000307267
0.000271652
3.3132e-05
0.00010611
0.000206907
0.000311628
0.000393041
0.00044912
0.000463502
0.000431624
0.000378692
0.000331449
0.000294693
3.47692e-05
0.000105946
0.000207925
0.000311529
0.000394767
0.000455601
0.000476602
0.000451141
0.000401473
0.000354777
0.000317374
3.60392e-05
0.00010578
0.000208811
0.000311739
0.000396893
0.000461452
0.000487947
0.000468208
0.000421999
0.000376114
0.000337881
3.69051e-05
0.000105014
0.000208907
0.000311649
0.000398881
0.000466545
0.000497537
0.000482633
0.000439673
0.000394438
0.000353803
3.74741e-05
0.000103839
0.000208207
0.000311152
0.000400357
0.000470704
0.000505391
0.000494483
0.000454578
0.000410378
0.000367337
3.76738e-05
0.000101932
0.00020641
0.000309772
0.000400889
0.00047377
0.00051176
0.000504389
0.000467634
0.000425641
0.000382268
3.75045e-05
9.77415e-05
0.000201689
0.000305657
0.000398911
0.000474871
0.000516475
0.000513014
0.000480167
0.000442379
0.000402393
3.68978e-05
9.23053e-05
0.000193599
0.00029678
0.000390299
0.000467294
0.00051281
0.000516525
0.000491639
0.000461124
0.000428177
3.58318e-05
8.55049e-05
0.000181847
0.000282912
0.000375427
0.000452368
0.000501756
0.000515091
0.000502245
0.000482378
0.000459225
3.43034e-05
7.73989e-05
0.000166195
0.00026356
0.000354179
0.000430756
0.000484354
0.000508914
0.000511138
0.000505128
0.000494956
3.22475e-05
6.83975e-05
0.00014721
0.000238691
0.000326379
0.000402467
0.000460463
0.000496576
0.000515056
0.00052495
0.000529779
2.96154e-05
5.8776e-05
0.000125539
0.000208387
0.000291469
0.000366435
0.00042828
0.000474769
0.000508419
0.0005342
0.000554434
2.63912e-05
4.87149e-05
0.000101988
0.00017307
0.00024883
0.000320865
0.000384693
0.000438672
0.000484071
0.000523163
0.000556675
2.25575e-05
3.84336e-05
7.7703e-05
0.000134061
0.000198685
0.000264244
0.000326319
0.000383031
0.000434584
0.000481965
0.000524919
1.81246e-05
2.83137e-05
5.42806e-05
9.39654e-05
0.000143169
0.000196946
0.000251377
0.000304089
0.000354406
0.000403229
0.000451791
1.31447e-05
1.81092e-05
3.22051e-05
5.5141e-05
8.60015e-05
0.000122622
0.000162372
0.000203133
0.000244437
0.000288077
0.000338425
7.92372e-06
1.06512e-05
1.80583e-05
2.92169e-05
4.44143e-05
6.35981e-05
8.62194e-05
0.00011156
0.000139117
0.00017101
0.00021335
3.42054e-05
0.000221758
0.000340341
0.000405762
0.000436831
0.000454742
0.00047418
0.000493263
0.000501608
0.000488965
0.000453314
2.47008e-05
0.000194372
0.000335549
0.000414984
0.000448915
0.000461939
0.000471229
0.000480642
0.000483386
0.000469685
0.000434626
2.07578e-05
0.000173499
0.000315798
0.000408901
0.000452912
0.000468508
0.00047514
0.000480554
0.000481278
0.000468764
0.000435054
2.00925e-05
0.000162765
0.000301966
0.000401913
0.000454658
0.000474854
0.000482219
0.00048716
0.0004875
0.000474192
0.00044057
2.01312e-05
0.000151956
0.000289878
0.000395802
0.000456042
0.000479984
0.000485555
0.000484862
0.000477803
0.00046064
0.00042851
2.05871e-05
0.000146275
0.000278679
0.000384399
0.000449885
0.00047926
0.000486967
0.00048738
0.000483811
0.000471295
0.000442781
2.1236e-05
0.000143891
0.000272282
0.000374219
0.000439492
0.000472382
0.000484704
0.000488909
0.000488082
0.000477188
0.00044844
2.20954e-05
0.000142072
0.000267513
0.000365813
0.000430045
0.000464546
0.000480255
0.000488232
0.000491272
0.000485094
0.000462041
2.2882e-05
0.000140657
0.00026348
0.000358663
0.000421321
0.000456512
0.000474854
0.000486452
0.000493388
0.000490356
0.000467121
2.34706e-05
0.000138505
0.000259158
0.000352076
0.000413529
0.000449251
0.000469741
0.000484338
0.000494076
0.000491967
0.000466138
2.39568e-05
0.000135993
0.000254729
0.000346033
0.000406779
0.000443131
0.000465452
0.000482416
0.000494228
0.000493776
0.000472436
2.43912e-05
0.000133863
0.000250921
0.000340899
0.00040119
0.00043825
0.000462236
0.00048122
0.000494806
0.000495743
0.000474981
2.46473e-05
0.000131515
0.000247235
0.000336365
0.00039665
0.00043469
0.000460387
0.000481299
0.000496507
0.000498107
0.000475135
2.46989e-05
0.000128281
0.000242879
0.000331893
0.000392899
0.000432419
0.000460032
0.000482862
0.000499528
0.000501825
0.00048051
2.45615e-05
0.000124858
0.000238419
0.000327673
0.000389879
0.000431302
0.000461069
0.000485852
0.000503801
0.000506045
0.000481626
2.41936e-05
0.000120851
0.000233443
0.000323372
0.000387375
0.000431245
0.000463498
0.000490343
0.000509507
0.000511469
0.000484906
2.35978e-05
0.000115552
0.000227045
0.000318279
0.000384934
0.00043202
0.000467242
0.000496354
0.000516795
0.000518507
0.000490246
2.26758e-05
0.000109126
0.000219064
0.000311923
0.000381966
0.000433073
0.00047186
0.000503589
0.000525642
0.000527403
0.000495682
2.14368e-05
0.000100116
0.000207104
0.000301719
0.000375907
0.000432096
0.000475859
0.000510743
0.00053509
0.000538176
0.000505567
1.9844e-05
8.8475e-05
0.000190418
0.000286197
0.000364328
0.000424764
0.000471108
0.000507039
0.000531882
0.000536162
0.000506531
1.78418e-05
7.42441e-05
0.000168238
0.00026393
0.000345593
0.000409615
0.000456697
0.000489597
0.00050921
0.000509935
0.000484303
1.54076e-05
5.88955e-05
0.000142345
0.00023475
0.000318356
0.000385075
0.000432089
0.000460273
0.000471405
0.000464229
0.000437911
1.23609e-05
4.45185e-05
0.00011325
0.000198903
0.000280862
0.000347703
0.00039407
0.000418885
0.000423694
0.000409935
0.000380754
9.1223e-06
4.32513e-05
9.87327e-05
0.000161567
0.000222222
0.000276539
0.000317806
0.000342004
0.000348203
0.000337432
0.00031351
3.01368e-05
0.000107886
0.000181252
0.000253749
0.000318584
0.0003825
0.000455879
0.00051042
0.000544125
0.000532234
0.000492553
1.97737e-05
5.36626e-05
0.00010034
0.000151021
0.000200441
0.000242976
0.000281897
0.000353488
0.000518559
0.000584753
0.000546621
1.47048e-05
5.07993e-05
7.60797e-05
0.000108358
0.000144278
0.000177687
0.00020457
0.000235131
0.000310709
0.000537386
0.000603165
1.68823e-05
7.60735e-05
9.31158e-05
0.000105799
0.000124634
0.000146443
0.000165734
0.000182257
0.000210621
0.000299918
0.000533404
1.98285e-05
9.11238e-05
0.000164222
0.00015727
0.000146899
0.00014591
0.000150864
0.000157093
0.00016693
0.00019862
0.00030984
2.28956e-05
9.71565e-05
0.000208794
0.000268239
0.000234114
0.000193649
0.0001677
0.000154327
0.00014932
0.000156557
0.000201755
2.59692e-05
0.000102567
0.000232768
0.000349952
0.000373864
0.000307234
0.000234491
0.000183526
0.000154079
0.000141922
0.000155118
2.90411e-05
0.000109266
0.000247338
0.000394125
0.00049242
0.000463751
0.000360962
0.000258277
0.000187831
0.000148717
0.000138007
3.18769e-05
0.000118201
0.000260298
0.000415523
0.000544815
0.000603765
0.000519937
0.000377878
0.000255516
0.000177831
0.000140808
3.43767e-05
0.000129311
0.000273975
0.000425694
0.000560753
0.000660237
0.000649312
0.000514166
0.000350069
0.000227822
0.000159371
3.64746e-05
0.000142853
0.000288674
0.000428794
0.000553046
0.000662714
0.000721342
0.000630317
0.000450743
0.00029011
0.000189096
3.82815e-05
0.000155528
0.00030205
0.000427144
0.000531636
0.000632487
0.000720153
0.000696386
0.000531603
0.000349411
0.000222378
3.97219e-05
0.000169135
0.000314555
0.000423431
0.000504439
0.000585308
0.000678615
0.000711047
0.000576328
0.000390539
0.000249431
4.08251e-05
0.000181109
0.000323535
0.000417674
0.000476282
0.000532472
0.00061117
0.000676335
0.000581726
0.000404837
0.000264023
4.14933e-05
0.000190765
0.000328976
0.000409615
0.000449208
0.00048257
0.000532455
0.000583693
0.000557905
0.000390547
0.000263754
4.16705e-05
0.000199942
0.000333135
0.000400515
0.000422519
0.000434414
0.000457299
0.000482701
0.00047928
0.000374585
0.00025403
4.13493e-05
0.000209161
0.000337754
0.000393018
0.000400072
0.00039459
0.000397001
0.000402903
0.000396085
0.000344105
0.000253546
4.04252e-05
0.000219017
0.000344977
0.000390419
0.000386768
0.000370997
0.00036294
0.000359501
0.00035021
0.000322514
0.000266695
3.88653e-05
0.000230654
0.000357302
0.000395544
0.000384637
0.000364388
0.000354837
0.000353685
0.000352681
0.000342188
0.000316564
3.66428e-05
0.000248728
0.000376812
0.000406059
0.000383852
0.00035334
0.000334979
0.000323211
0.000318238
0.000312094
0.000303153
3.09144e-05
0.000229816
0.000344927
0.00037235
0.000344658
0.00029859
0.000247047
0.000216762
0.000199124
0.000188184
0.000168103
2.41219e-05
0.00019037
0.000287249
0.000313777
0.000267452
0.000186893
0.00014516
0.000123785
0.000112203
0.000105588
9.83987e-05
1.54072e-05
9.13076e-05
0.000117722
0.000108763
8.76316e-05
7.75421e-05
7.62335e-05
8.06789e-05
8.7827e-05
9.44061e-05
9.74305e-05
7.12507e-06
9.69265e-06
1.5188e-05
2.42688e-05
3.86947e-05
5.95868e-05
8.56771e-05
0.000112911
0.00013596
0.000150408
0.000154735
2.52315e-05
6.46419e-05
6.32075e-05
6.49011e-05
6.38858e-05
5.84382e-05
5.48598e-05
5.41926e-05
5.56533e-05
5.90015e-05
6.47467e-05
2.22344e-05
6.44104e-05
5.76979e-05
6.70283e-05
6.68202e-05
6.16399e-05
5.76786e-05
5.69974e-05
5.9065e-05
6.3679e-05
7.14083e-05
2.31209e-05
6.60385e-05
5.21134e-05
6.87208e-05
6.82237e-05
6.39737e-05
5.98185e-05
5.91601e-05
6.18569e-05
6.80468e-05
7.92115e-05
2.58086e-05
6.19951e-05
4.96166e-05
6.85766e-05
6.76727e-05
6.51232e-05
6.07857e-05
6.0428e-05
6.37e-05
7.13601e-05
8.574e-05
2.89327e-05
5.69271e-05
4.82179e-05
6.63477e-05
6.61954e-05
6.51996e-05
6.06625e-05
6.07772e-05
6.44672e-05
7.3191e-05
8.96553e-05
3.18443e-05
5.31481e-05
4.69797e-05
6.33094e-05
6.45956e-05
6.43235e-05
5.97777e-05
6.02925e-05
6.41527e-05
7.34183e-05
9.08093e-05
3.45104e-05
5.03033e-05
4.57319e-05
6.0388e-05
6.31248e-05
6.27466e-05
5.85061e-05
5.91454e-05
6.29637e-05
7.24076e-05
9.05889e-05
3.69699e-05
4.88757e-05
4.45361e-05
5.78848e-05
6.17637e-05
6.08789e-05
5.70313e-05
5.75376e-05
6.11312e-05
7.03211e-05
8.78201e-05
3.90064e-05
4.82956e-05
4.34791e-05
5.58683e-05
6.04732e-05
5.9047e-05
5.54648e-05
5.56599e-05
5.88693e-05
6.74891e-05
8.41459e-05
4.04929e-05
4.79778e-05
4.22531e-05
5.43093e-05
5.93643e-05
5.7418e-05
5.39005e-05
5.36589e-05
5.6334e-05
6.41363e-05
7.95652e-05
4.15614e-05
4.79252e-05
4.01343e-05
5.13612e-05
5.77919e-05
5.59745e-05
5.24161e-05
5.16354e-05
5.36655e-05
6.04522e-05
7.41753e-05
4.21871e-05
4.85775e-05
3.84141e-05
4.7614e-05
5.48316e-05
5.41992e-05
5.09076e-05
4.9619e-05
5.09677e-05
5.65845e-05
6.83598e-05
4.22465e-05
4.96333e-05
3.71438e-05
4.32171e-05
5.02381e-05
5.15924e-05
4.91817e-05
4.76043e-05
4.83382e-05
5.26639e-05
6.22477e-05
4.17924e-05
5.08581e-05
3.65047e-05
3.85721e-05
4.40297e-05
4.73691e-05
4.67838e-05
4.54837e-05
4.57856e-05
4.89038e-05
5.6358e-05
4.07609e-05
5.26065e-05
3.69021e-05
3.51397e-05
3.79893e-05
4.16986e-05
4.3129e-05
4.28949e-05
4.31906e-05
4.53525e-05
5.08845e-05
3.91697e-05
5.46972e-05
3.82803e-05
3.30895e-05
3.29873e-05
3.53971e-05
3.78236e-05
3.91132e-05
4.01031e-05
4.18359e-05
4.58399e-05
3.7112e-05
5.68656e-05
4.07048e-05
3.25484e-05
2.95845e-05
2.97395e-05
3.14685e-05
3.35453e-05
3.56358e-05
3.7736e-05
4.09133e-05
3.44583e-05
5.92105e-05
4.4237e-05
3.37594e-05
2.824e-05
2.59945e-05
2.58938e-05
2.71394e-05
2.93906e-05
3.20758e-05
3.52421e-05
3.12772e-05
6.15008e-05
4.89218e-05
3.68818e-05
2.91018e-05
2.46201e-05
2.2458e-05
2.19249e-05
2.28378e-05
2.49151e-05
2.79003e-05
2.76401e-05
6.33441e-05
5.47416e-05
4.22128e-05
3.25189e-05
2.59377e-05
2.17787e-05
1.93434e-05
1.83483e-05
1.86297e-05
2.01117e-05
2.3606e-05
6.4083e-05
6.14291e-05
5.01454e-05
3.92362e-05
3.07051e-05
2.45271e-05
2.01775e-05
1.72984e-05
1.56392e-05
1.50705e-05
1.92713e-05
6.31257e-05
6.8269e-05
6.09544e-05
5.04778e-05
4.06024e-05
3.24114e-05
2.59374e-05
2.09936e-05
1.73472e-05
1.48013e-05
1.45447e-05
5.69964e-05
7.19599e-05
7.26188e-05
6.63919e-05
5.76571e-05
4.86379e-05
4.03233e-05
3.31e-05
2.70644e-05
2.21594e-05
9.8799e-06
5.24284e-05
6.63536e-05
7.26884e-05
7.3912e-05
7.16112e-05
6.7049e-05
6.11769e-05
5.47155e-05
4.81765e-05
4.18362e-05
2.30731e-05
6.62391e-05
6.46317e-05
6.4889e-05
6.27856e-05
5.63257e-05
5.21235e-05
5.08544e-05
5.13537e-05
5.30267e-05
5.57986e-05
1.90549e-05
5.81454e-05
5.43617e-05
6.39351e-05
6.15293e-05
5.48092e-05
5.01564e-05
4.83737e-05
4.8389e-05
4.95126e-05
5.15193e-05
2.01698e-05
5.69402e-05
4.6793e-05
6.46377e-05
6.17469e-05
5.4333e-05
4.87464e-05
4.62594e-05
4.56687e-05
4.61236e-05
4.72744e-05
2.32282e-05
5.16966e-05
4.37502e-05
6.42493e-05
6.12562e-05
5.41654e-05
4.83246e-05
4.56883e-05
4.49519e-05
4.52051e-05
4.59654e-05
2.68207e-05
4.58578e-05
4.24901e-05
6.25019e-05
6.0374e-05
5.41503e-05
4.85736e-05
4.62337e-05
4.58462e-05
4.65048e-05
4.76534e-05
3.02314e-05
4.14679e-05
4.16347e-05
6.03081e-05
5.95649e-05
5.42126e-05
4.91597e-05
4.73885e-05
4.76623e-05
4.9228e-05
5.16441e-05
3.33469e-05
3.84655e-05
4.08685e-05
5.83608e-05
5.89474e-05
5.43449e-05
4.99001e-05
4.88092e-05
4.98081e-05
5.23408e-05
5.60005e-05
3.61998e-05
3.6356e-05
4.01577e-05
5.68125e-05
5.84926e-05
5.4553e-05
5.07154e-05
5.02967e-05
5.20452e-05
5.57639e-05
6.1617e-05
3.86296e-05
3.48628e-05
3.95145e-05
5.56662e-05
5.82341e-05
5.47735e-05
5.15554e-05
5.16851e-05
5.40988e-05
5.89429e-05
6.70162e-05
4.06544e-05
3.38007e-05
3.89533e-05
5.48574e-05
5.81923e-05
5.49787e-05
5.23464e-05
5.28411e-05
5.57192e-05
6.13496e-05
7.10651e-05
4.22865e-05
3.31563e-05
3.84574e-05
5.42856e-05
5.83247e-05
5.52185e-05
5.30191e-05
5.36755e-05
5.67452e-05
6.26248e-05
7.26064e-05
4.35437e-05
3.27115e-05
3.79833e-05
5.38429e-05
5.85722e-05
5.54749e-05
5.35583e-05
5.41659e-05
5.71556e-05
6.28136e-05
7.23544e-05
4.42602e-05
3.20976e-05
3.65837e-05
5.25091e-05
5.84921e-05
5.56866e-05
5.40173e-05
5.44188e-05
5.71368e-05
6.22714e-05
7.08824e-05
4.44566e-05
3.11835e-05
3.37448e-05
4.93337e-05
5.74485e-05
5.57221e-05
5.43883e-05
5.45071e-05
5.68034e-05
6.12287e-05
6.86774e-05
4.40739e-05
3.02804e-05
3.05986e-05
4.46533e-05
5.50592e-05
5.52926e-05
5.45689e-05
5.44453e-05
5.62182e-05
5.98266e-05
6.60199e-05
4.30768e-05
2.93887e-05
2.75645e-05
3.88168e-05
5.0749e-05
5.37958e-05
5.42845e-05
5.41838e-05
5.54339e-05
5.82001e-05
6.31645e-05
4.14557e-05
2.85066e-05
2.49191e-05
3.25775e-05
4.42109e-05
5.02511e-05
5.28413e-05
5.34242e-05
5.43994e-05
5.64315e-05
6.02862e-05
3.91212e-05
2.7633e-05
2.28695e-05
2.69742e-05
3.62318e-05
4.38577e-05
4.89357e-05
5.12315e-05
5.26568e-05
5.43614e-05
5.73599e-05
3.6021e-05
2.66601e-05
2.14005e-05
2.26028e-05
2.84216e-05
3.51599e-05
4.14023e-05
4.57868e-05
4.86973e-05
5.09902e-05
5.37752e-05
3.21194e-05
2.53821e-05
2.03541e-05
1.95616e-05
2.21574e-05
2.63277e-05
3.12554e-05
3.60008e-05
4.01337e-05
4.36718e-05
4.71512e-05
2.73711e-05
2.34949e-05
1.94436e-05
1.76333e-05
1.79385e-05
1.95021e-05
2.18894e-05
2.47326e-05
2.77972e-05
3.0976e-05
3.43765e-05
2.17867e-05
2.05606e-05
1.81322e-05
1.62935e-05
1.54334e-05
1.52948e-05
1.56687e-05
1.63973e-05
1.73813e-05
1.85755e-05
2.00151e-05
1.54557e-05
1.61196e-05
1.56114e-05
1.46377e-05
1.37428e-05
1.30328e-05
1.2501e-05
1.21169e-05
1.18506e-05
1.17516e-05
1.24833e-05
7.5972e-06
1.44357e-05
1.71598e-05
1.98367e-05
2.25808e-05
2.53601e-05
2.81475e-05
3.08696e-05
3.34737e-05
3.58609e-05
3.72808e-05
1.3721e-05
1.06384e-05
7.18749e-06
6.62333e-06
6.80822e-06
8.11242e-06
1.2475e-05
1.49439e-05
1.63948e-05
3.69034e-05
2.82703e-05
2.46483e-05
2.55093e-05
2.55106e-05
2.91115e-05
3.62725e-05
5.30877e-05
7.72161e-05
7.39924e-05
5.36173e-05
4.38657e-05
4.13083e-05
4.01541e-05
4.982e-05
7.10812e-05
0.000108362
0.000153352
0.000109434
8.04415e-05
6.51236e-05
5.73251e-05
5.50603e-05
7.13742e-05
0.000105257
0.000158747
0.00021948
1.52632e-05
1.59861e-05
1.63796e-05
1.65016e-05
1.64614e-05
1.66548e-05
1.75768e-05
1.75539e-05
1.72154e-05
5.36582e-05
7.48646e-05
9.43816e-05
0.000108016
0.000118389
0.00013085
0.000133679
0.000121741
0.000106667
0.000108481
0.000146927
0.000175628
0.000196754
0.000208691
0.000220821
0.000230002
0.000215631
0.000196166
0.000156211
0.000203217
0.000232159
0.000253493
0.000261688
0.000268524
0.000283249
0.000277591
0.000267973
0.000195836
0.000229744
0.000229797
7.47633e-05
0.00041512
0.000229163
8.45051e-05
0.000229741
0.000229176
0.000233952
0.000400889
0.000229748
0.000122805
0.000186338
0.000123915
0.000228757
0.000163461
7.5138e-05
0.000228764
0.000228674
0.000229542
3.10966e-05
0.00022995
0.000253127
0.000229278
0.000190228
0.000130951
8.35918e-05
0.000289751
0.000557838
0.0001452
0.000235791
0.000111466
0.000229507
0.000241229
0.000229692
0.000239404
0.000229266
9.42957e-05
0.000229066
1.97132e-05
0.000229543
0.000119276
0.000229929
0.000462739
4.4301e-05
5.13279e-05
8.10786e-05
0.000239757
0.000229799
0.000554989
0.000229085
0.000537962
0.000118764
0.000229666
0.00022934
3.17526e-05
0.000229085
0.000314298
0.000149906
3.37844e-05
0.000466144
0.000497446
0.000162141
2.69772e-05
0.000228682
0.000658964
0.000232932
0.000229735
0.00023345
0.000189547
0.000233046
6.06005e-05
0.000240548
0.000178056
0.000231311
1.94155e-05
0.000229734
0.000137083
0.000395826
0.000618044
0.000138188
0.000229277
0.000229804
0.000247548
6.13407e-05
0.000427671
0.000346398
4.46718e-05
0.000262311
0.000229488
0.000229127
2.31637e-05
0.000234197
0.000399709
0.000133917
0.000136343
0.0002347
4.33024e-05
0.000235032
0.000251783
8.48767e-05
0.00023007
0.000236451
4.94172e-05
0.000229563
0.0001815
0.000229873
0.000110086
0.000234628
0.00022951
0.000229591
0.000231
7.01592e-05
7.8465e-05
0.000228993
0.000229047
0.000228972
0.000229613
0.00022913
6.79478e-05
0.000239128
0.000246136
0.000190244
4.28625e-05
0.000192497
0.000810989
0.00017621
0.00014637
0.000121953
0.00022929
0.000145562
7.93328e-05
0.000231724
0.000229769
0.000230884
1.99013e-05
0.000105035
0.000547634
0.000244717
0.000125334
0.000231111
0.000241288
0.00016793
0.000229056
3.89985e-05
0.000114061
0.000232304
0.00023512
0.000229556
0.000229827
0.000229247
4.05331e-05
0.000238351
7.44951e-05
6.15858e-05
6.88652e-05
2.97155e-05
0.000169435
0.000228896
0.000217275
4.81547e-05
0.000232524
0.000229017
0.000678966
0.000113107
5.60456e-05
0.000239395
0.000229967
2.7735e-05
0.000143297
0.000158589
0.000225089
0.000229537
0.000235045
0.000220248
0.000155213
3.93321e-05
0.000464109
0.000199625
0.000231787
2.55035e-05
0.000229946
0.000139326
0.000229583
0.000107211
0.000230299
0.000228981
0.000229715
0.000172209
0.000110232
0.000196794
0.000228621
2.0179e-05
0.000229769
0.000228994
0.000229476
4.35294e-05
0.000118421
0.000230001
3.49594e-05
0.000230189
0.000110631
0.000142034
0.000229824
0.000345274
0.000233691
0.000146382
0.000229484
0.00022873
0.000302067
0.00022896
0.000175288
0.000238927
0.000229375
0.000346688
0.000229404
5.02746e-05
0.000230321
8.32893e-05
7.28868e-05
6.61811e-05
0.000132209
7.75492e-05
0.000193185
0.000229102
0.000113504
0.000113531
0.000112371
0.000310916
3.27077e-05
0.000228585
0.000229989
0.000239277
3.93565e-05
0.000313391
0.000663827
0.0002299
0.00022975
0.000229732
5.07286e-05
0.00019461
0.00023657
2.03773e-05
0.00024114
4.89619e-05
0.000229436
0.000143801
0.000152083
0.000814029
0.000143818
0.000303549
0.00023962
0.000228883
0.000233823
0.000229354
0.000229291
0.000229218
4.6764e-05
0.000230423
0.000123605
0.00019109
0.000228213
0.000229687
0.000229488
5.09462e-05
0.000231436
0.000245574
0.00015954
0.000179772
0.000215101
0.000229461
0.000230234
5.09142e-05
0.000229177
0.000228949
0.000186228
0.000229282
0.000238341
4.87212e-05
0.000234376
0.000229735
0.000619773
0.000624718
0.000233457
0.00022912
0.000500644
0.000229774
0.000237959
0.000121644
0.000229811
9.66945e-05
0.000237363
7.95341e-05
0.000230011
0.000229387
0.000229433
0.000229688
0.000240676
0.000188985
0.000229359
5.97053e-05
0.000242828
0.000554801
0.000229257
0.000234919
0.000229746
0.00023493
2.65571e-05
0.000229058
5.2322e-05
0.000229583
0.000233841
0.000115125
2.22218e-05
0.000231624
0.000173416
6.42803e-05
0.000228722
0.000237206
0.000229959
0.000486276
0.000228901
0.000192289
0.000114683
0.000234426
0.000229192
0.00020839
0.000228283
0.000696907
0.000237786
0.00049273
1.83431e-05
0.000229887
9.99089e-05
0.000210104
6.71322e-05
0.000229722
0.000229347
0.000238931
5.13139e-05
0.00029108
0.000230398
0.000109655
0.000197208
0.000236488
9.49847e-05
0.000228954
0.000206076
0.000876688
5.68154e-05
0.00023562
0.000179809
0.000229282
0.000105995
0.000230036
7.09946e-05
0.000206764
0.000229929
0.000745935
0.000136128
0.000184374
0.000229425
0.000229343
0.000229661
5.02495e-05
0.000167354
5.9232e-05
7.01806e-05
0.000245492
0.000229261
0.000140369
0.000179559
0.000192241
0.00011305
0.000229805
0.000152599
0.000241022
0.000229143
0.00022952
0.000520016
0.00022902
3.73331e-05
0.000229104
0.000196727
0.000689126
5.96564e-05
0.000192864
0.000194879
4.65473e-05
0.000229288
4.71335e-05
0.000186268
0.000244019
0.000693412
2.5577e-05
0.000229321
0.00022936
0.000229784
8.55053e-05
4.67523e-05
0.000228946
0.000229936
0.000124642
9.38776e-05
1.70278e-05
0.000103988
0.000133387
0.000230167
0.000487
0.000239169
0.000228752
0.000117092
0.000119217
4.93674e-05
0.00023384
0.000110257
0.00024447
0.000182842
5.07235e-05
0.000306603
0.00015063
8.86403e-05
0.000110427
0.000227217
0.000234058
0.00023942
7.42544e-05
0.000235005
3.16769e-05
0.000229307
3.76172e-05
0.000207609
0.000228627
0.000244496
6.53837e-05
0.00029245
0.000513363
0.000189657
0.000230034
0.000236546
0.000402766
9.034e-05
5.95683e-05
0.000233663
7.80941e-05
0.000224624
2.65094e-05
0.000228963
3.97667e-05
0.000229336
0.000229756
0.00022939
5.1528e-05
9.54886e-05
7.21393e-05
0.000145342
3.28181e-05
8.17336e-05
0.000229703
0.000228982
0.000838527
0.000182325
0.000233878
0.000239424
4.13503e-05
4.53179e-05
2.96836e-05
2.93526e-05
0.000237056
0.000211766
5.26878e-05
0.000229645
3.33913e-05
0.000235917
0.000229771
0.000229345
8.0568e-05
3.57294e-05
0.000230098
0.000229085
0.000229544
0.000261647
2.26083e-05
0.000229885
4.15506e-05
0.000356326
0.000156594
6.45474e-05
0.000228826
3.54006e-05
0.000229019
0.000236004
0.000229074
0.000128111
0.000149443
0.000228663
0.000193827
0.000168895
0.000243508
0.000223847
0.000208424
0.000229645
0.000229457
0.000213455
7.2608e-05
5.69031e-05
0.000238332
8.59589e-05
0.000229768
0.000452303
0.000104815
4.49019e-05
0.000107718
0.000251313
0.000656956
7.36408e-05
0.000193598
0.000229174
0.000184428
0.000228824
0.000229727
0.000229206
0.000229753
0.000233186
0.000498729
0.000229678
0.000228852
0.000160524
0.00022932
4.4855e-05
0.000246155
0.000201369
0.000176331
4.62769e-05
0.00023001
0.000229279
0.00022982
2.08001e-05
3.58929e-05
0.000229377
0.000229242
0.000190108
0.000229752
8.46006e-05
0.000229715
0.0008598
0.000236919
3.18167e-05
8.94736e-05
0.000131707
4.94696e-05
0.000480272
0.000229302
0.000231507
0.000234932
0.000229808
6.55064e-05
2.54284e-05
0.000223912
0.000129403
0.000218584
0.000126209
0.000229295
0.00023016
0.000229679
0.00022063
0.000707693
8.40129e-05
0.0002296
0.000229032
0.000628119
0.000231456
9.50269e-05
0.00014062
0.000151236
0.0003022
0.000229153
8.87156e-05
0.000229247
7.40966e-05
0.000229581
0.000183474
0.000150736
0.000234712
2.34813e-05
0.000129994
0.000229837
0.00022998
0.000412549
0.000228954
0.000183628
9.93892e-05
8.01483e-05
0.000208877
5.16521e-05
0.000155553
0.000231196
0.000229283
0.000229544
0.000122092
5.18289e-05
0.000113097
0.000228661
0.000229329
8.9263e-05
0.000230465
0.000236809
0.000236048
0.000233171
0.000108091
5.4367e-05
8.06584e-05
0.000159967
0.000233582
0.000230724
0.000228856
0.000150997
0.000231232
0.000229414
0.000147007
0.000389297
0.000228927
0.000228964
2.03697e-05
0.000230219
0.00022895
0.000147689
0.000229718
0.000233367
9.70912e-05
8.31344e-05
0.000158672
0.000178071
0.000160053
7.0366e-05
0.000346844
6.63712e-05
0.000104813
0.000180211
5.19692e-05
7.15995e-05
0.000128867
0.000229773
0.000230199
0.00011382
0.000230113
0.000229679
0.000237235
0.000207713
0.00012066
0.000158289
0.000193036
0.000214862
0.000229095
0.000199257
0.000229514
0.000229276
0.000236677
7.9266e-05
0.000231405
0.000241099
0.000231202
0.000229789
0.000118181
6.22594e-05
0.000297501
0.000231553
0.000231159
0.000189913
0.000149136
0.000236004
0.000170702
0.000231217
0.000184269
0.000457861
0.000229131
6.94571e-05
0.000229938
0.000116123
0.000130239
0.000104923
0.000122711
0.000215457
0.000246516
0.000229831
9.98953e-05
0.000182502
4.83994e-05
0.000786646
0.000228933
0.000233629
0.00022982
0.00016111
0.000230003
4.3965e-05
0.000229597
0.000229118
0.000229092
0.000130927
6.63972e-05
0.000229567
0.000130087
0.000229267
0.00011265
0.000169576
0.000231088
0.000109265
2.05908e-05
7.88428e-05
0.000237084
0.000199747
0.000139724
0.000121169
0.000124718
8.50712e-05
0.000229242
0.000147302
0.000229492
0.00023691
4.81342e-05
0.000242512
3.51377e-05
0.000186274
0.000231137
0.000233469
0.000229163
5.55687e-05
0.000229687
0.0010389
0.000111528
0.000838208
0.000233176
0.000138816
0.000151271
0.000203539
0.000239211
0.000124529
3.68968e-05
6.10743e-05
0.000229595
0.000184412
0.000219581
0.000229507
4.85857e-05
0.000119605
0.000242
0.000183282
0.00022903
0.000235449
0.000235197
0.000131317
0.000235038
0.000191772
0.000229607
0.000116071
0.0002337
8.30068e-05
7.20489e-05
0.00033978
0.000110096
0.000228985
0.000262101
5.30713e-05
0.000229135
0.000189308
0.000188035
8.2007e-05
0.000239045
2.96168e-05
0.000239259
7.91496e-05
8.94672e-05
0.000251357
0.000229253
0.000247533
0.000229054
9.60244e-05
2.01513e-05
0.000230049
0.000229567
0.000251803
0.000357353
0.000473358
0.000155543
0.000229757
0.000144592
0.000237903
0.000229576
0.000229676
0.00022979
0.000229441
0.000240556
0.000159959
4.70434e-05