/*--------------------------------*- C++ -*----------------------------------*\
| =========                 |                                                 |
| \\      /  F ield         | OpenFOAM: The Open Source CFD Toolbox           |
|  \\    /   O peration     | Version:  3.0.1                                 |
|   \\  /    A nd           | Web:      www.OpenFOAM.org                      |
|    \\/     M anipulation  |                                                 |
\*---------------------------------------------------------------------------*/
FoamFile
{
    version     2.0;
    format      ascii;
    class       surfaceVectorField;
    location    "0.800728";
    object      Uf;
}
// * * * * * * * * * * * * * * * * * * * * * * * * * * * * * * * * * * * * * //

dimensions      [0 1 -1 0 0 0 0];

internalField   nonuniform List<vector> 
32369
(
(4.25291 0.768836 7.52124e-20)
(5.04747 0.358556 -4.04791e-18)
(4.7876 2.09813 -9.8703e-19)
(3.69803 0.924094 -3.94955e-20)
(3.40664 -0.0871952 4.39079e-19)
(3.52077 1.76019 -1.25372e-18)
(3.24378 0.771204 -6.05541e-20)
(3.4057 0.0898658 -7.36777e-19)
(3.01954 1.3894 1.0192e-18)
(2.79571 0.597408 -1.48414e-20)
(3.07653 0.125597 1.39402e-19)
(2.6192 1.03011 -1.2904e-20)
(2.43132 0.439311 -5.2785e-20)
(2.68451 0.138888 0)
(2.3164 0.749406 0)
(2.15084 0.301518 1.09483e-19)
(2.36208 0.118342 3.1468e-20)
(2.08472 0.529629 2.64548e-20)
(1.93477 0.18683 7.82694e-20)
(2.10203 0.0728651 1.85377e-19)
(1.89926 0.358444 1.91575e-19)
(1.76645 0.0923676 -1.81816e-19)
(1.89558 0.0181081 -1.70065e-19)
(1.74792 0.22412 -7.74687e-20)
(1.63439 0.0139209 1.08161e-19)
(1.73286 -0.0373313 -1.65258e-20)
(1.6246 0.11659 -1.07699e-19)
(1.5304 -0.0519654 7.4345e-20)
(1.60559 -0.0888115 1.29613e-19)
(1.52534 0.0296184 1.53486e-19)
(1.51125 -0.12822 -1.08402e-19)
(1.44695 -0.0344648 -1.09303e-19)
(1.43999 -0.106527 -7.72905e-20)
(2.81583 -0.419057 -4.2976e-18)
(3.21244 0.213237 -4.39998e-18)
(3.1461 -0.356944 9.12885e-20)
(2.08919 -0.725862 2.14213e-19)
(3.14736 -0.29142 -2.67569e-19)
(2.85439 -0.730579 -3.60197e-19)
(2.94663 -0.181865 3.93795e-19)
(2.89063 -0.648962 1.61593e-19)
(2.64776 -0.0983207 7.23636e-20)
(2.70392 -0.50541 8.70289e-19)
(2.3504 -0.0677261 9.01868e-20)
(2.46309 -0.360661 1.83838e-19)
(2.0927 -0.0723113 -2.2244e-20)
(2.21512 -0.270844 -2.13348e-19)
(1.88435 -0.0960371 -2.78579e-20)
(1.99428 -0.226998 -1.67833e-19)
(1.72102 -0.127386 0)
(1.81044 -0.214815 7.8402e-20)
(1.59427 -0.158975 0)
(1.6633 -0.219562 0)
(1.55301 -0.224994 6.21117e-20)
(1.48991 -0.180819 4.0763e-20)
(1.65867 -0.318244 -7.68686e-19)
(1.89138 0.602577 -1.72735e-18)
(2.08819 -0.814022 -3.38379e-19)
(1.15042 -0.513241 7.32879e-19)
(2.40011 -0.916196 -1.49377e-19)
(2.01094 -0.876632 0)
(2.54406 -0.823322 5.80863e-19)
(2.25529 -0.990361 -8.90611e-19)
(2.49952 -0.655265 8.52463e-19)
(2.33942 -0.933267 6.10866e-19)
(2.33685 -0.495632 -2.75331e-19)
(2.29749 -0.770976 -3.79812e-19)
(2.13586 -0.386478 -3.00578e-19)
(2.16124 -0.610025 4.64417e-20)
(1.9401 -0.322797 -1.19155e-19)
(1.99431 -0.488386 -2.55155e-19)
(1.77102 -0.292363 8.57835e-20)
(1.83067 -0.409179 7.60609e-20)
(1.63292 -0.28171 5.44759e-20)
(1.68814 -0.362457 1.00724e-19)
(1.5788 -0.328603 5.41293e-20)
(1.5154 -0.271803 3.94236e-20)
(1.06351 0.295191 -2.4778e-19)
(1.14374 1.23364 -1.58111e-19)
(1.35076 -0.572365 9.54738e-19)
(0.768373 0.0340751 2.96953e-19)
(1.69601 -0.958042 -6.9559e-19)
(1.3877 -0.604448 5.16653e-19)
(1.97179 -1.06403 -1.21623e-18)
(1.64741 -0.941312 -2.50767e-19)
(2.11318 -0.99556 -7.01499e-19)
(1.86598 -1.05602 -3.92392e-19)
(2.11916 -0.837229 6.16511e-20)
(1.97685 -0.990289 5.1595e-21)
(2.03329 -0.67618 3.93576e-19)
(1.96992 -0.85 2.63857e-19)
(1.90419 -0.550981 -1.94456e-19)
(1.89341 -0.705889 -1.73133e-19)
(1.76641 -0.463921 8.83376e-20)
(1.78388 -0.587984 0)
(1.63953 -0.405153 5.73686e-20)
(1.66935 -0.500911 1.52444e-19)
(1.57183 -0.428304 -1.38766e-19)
(1.52556 -0.345527 -5.42923e-20)
(0.798709 1.00585 2.97749e-19)
(0.788532 1.91826 6.13712e-19)
(0.967933 -0.0351721 -1.45276e-20)
(0.656624 0.654502 1.94852e-19)
(1.23731 -0.646039 9.35577e-19)
(1.03684 -0.167083 -3.4822e-19)
(1.50237 -0.966486 4.54914e-19)
(1.24427 -0.675891 5.44824e-19)
(1.70803 -1.0632 2.84863e-19)
(1.47931 -0.952744 0)
(1.82032 -1.00038 2.2267e-19)
(1.6519 -1.01763 -3.38604e-19)
(1.83913 -0.868061 -1.8529e-19)
(1.73098 -0.954759 -1.57004e-19)
(1.79081 -0.7301 0)
(1.73555 -0.840086 0)
(1.70644 -0.614908 7.1483e-21)
(1.68812 -0.720738 -1.20802e-19)
(1.60961 -0.52346 -4.73876e-20)
(1.61344 -0.617384 9.76054e-20)
(1.54159 -0.525262 -1.86452e-19)
(1.50656 -0.432754 -3.03159e-19)
(0.700777 1.67606 5.52761e-19)
(0.695478 2.58573 -7.9671e-19)
(0.783992 0.556857 4.62436e-20)
(0.654983 1.27997 6.13697e-19)
(0.976562 -0.199094 -7.21831e-19)
(0.85783 0.338564 -7.42912e-19)
(1.195 -0.684813 1.502e-19)
(1.01402 -0.305634 -3.29232e-19)
(1.39815 -0.936189 -5.35373e-19)
(1.22069 -0.722196 -1.84584e-19)
(1.54903 -0.995864 -6.78471e-19)
(1.39963 -0.914288 -1.91664e-19)
(1.62941 -0.940052 -1.66959e-20)
(1.51689 -0.946385 3.64448e-19)
(1.64474 -0.834987 -1.06592e-19)
(1.57263 -0.889267 0)
(1.61289 -0.722791 -7.54892e-20)
(1.5749 -0.796184 -5.37767e-20)
(1.5529 -0.620908 3.01796e-21)
(1.53853 -0.699588 3.93786e-20)
(1.49615 -0.60231 1.13742e-19)
(1.47651 -0.513539 9.0315e-20)
(0.723602 2.30729 -8.74941e-19)
(0.7895 3.19383 -6.53352e-19)
(0.732239 1.14532 0)
(0.721629 1.88863 -7.81427e-19)
(0.855754 0.284571 -3.79394e-19)
(0.796717 0.875595 6.54232e-19)
(1.01929 -0.327502 -6.32469e-19)
(0.905968 0.109429 -2.9456e-19)
(1.19502 -0.707698 1.10468e-19)
(1.06892 -0.42608 1.29316e-20)
(1.34751 -0.883423 6.69558e-19)
(1.22942 -0.734174 4.62897e-19)
(1.45297 -0.915246 3.5451e-19)
(1.35498 -0.861984 2.40966e-19)
(1.50589 -0.865745 5.80099e-20)
(1.43548 -0.872545 2.17567e-19)
(1.51295 -0.78233 3.38559e-20)
(1.46976 -0.820947 2.61242e-20)
(1.48601 -0.688904 1.60912e-19)
(1.46293 -0.746068 -5.88237e-20)
(1.44712 -0.657484 1.97817e-19)
(1.43553 -0.576494 2.77703e-19)
(0.839641 2.89396 -5.45264e-19)
(0.994298 3.70839 1.51126e-19)
(0.78435 1.71253 -2.84555e-19)
(0.831646 2.45969 -1.43733e-18)
(0.834019 0.771031 8.31234e-19)
(0.825422 1.39555 5.83588e-19)
(0.941789 0.054494 2.94219e-19)
(0.881377 0.537067 8.59139e-19)
(1.07971 -0.434531 2.97407e-19)
(0.995791 -0.100573 -1.01513e-19)
(1.21588 -0.71371 5.41846e-20)
(1.12723 -0.512029 -1.74292e-20)
(1.32465 -0.830567 1.11195e-19)
(1.24508 -0.730977 -2.26175e-19)
(1.39461 -0.842089 2.03968e-19)
(1.33309 -0.811317 2.08624e-19)
(1.42559 -0.797649 -5.20956e-20)
(1.385 -0.807416 -3.06225e-20)
(1.42394 -0.726684 -4.68662e-20)
(1.39835 -0.761882 -2.07203e-20)
(1.40309 -0.693599 -9.60196e-20)
(1.3952 -0.621044 -2.92128e-20)
(1.00319 3.42128 -5.81623e-19)
(1.22586 4.12837 -4.84171e-20)
(0.889546 2.24758 -8.3201e-19)
(0.957663 2.97732 -6.55779e-19)
(0.874081 1.24631 5.68258e-19)
(0.902033 1.89077 -1.26965e-20)
(0.927875 0.443159 5.70713e-19)
(0.90452 0.965786 7.39207e-19)
(1.02605 -0.141034 -4.18419e-19)
(0.971932 0.241924 -2.8069e-19)
(1.13852 -0.513652 -2.66522e-19)
(1.07211 -0.263528 -1.09237e-19)
(1.23968 -0.710996 -1.57076e-19)
(1.17536 -0.569421 -3.89015e-19)
(1.31453 -0.783898 9.861e-21)
(1.26188 -0.719842 1.92846e-19)
(1.35846 -0.781935 -4.2608e-22)
(1.3223 -0.766591 -4.13971e-22)
(1.3739 -0.739185 -5.88858e-20)
(1.34927 -0.754368 7.74628e-20)
(1.36872 -0.709936 -2.11134e-19)
(1.3662 -0.658731 -3.98835e-20)
(1.1659 3.86357 -6.36892e-20)
(1.42262 4.44395 -1.15453e-19)
(1.0035 2.74427 5.38992e-20)
(1.07797 3.44194 -6.12227e-19)
(0.937611 1.71592 6.60734e-20)
(0.996157 2.38009 5.2284e-19)
(0.94598 0.843858 0)
(0.950453 1.41198 2.92219e-19)
(1.00736 0.173252 1.06094e-20)
(0.976077 0.6104 -2.22576e-19)
(1.09539 -0.288471 -2.02437e-19)
(1.04614 0.0144762 3.25516e-19)
(1.18522 -0.565357 -9.23931e-20)
(1.13234 -0.378575 -5.93305e-19)
(1.25961 -0.701085 2.04071e-19)
(1.21333 -0.601934 1.10813e-19)
(1.31072 -0.744097 6.88087e-20)
(1.27752 -0.703174 -7.98592e-21)
(1.33816 -0.732637 -4.93891e-20)
(1.31468 -0.727907 -5.79421e-20)
(1.3447 -0.711263 2.56009e-21)
(1.34415 -0.684982 -3.48768e-20)
(1.29374 4.18327 -6.044e-19)
(1.56393 4.61515 -5.73602e-19)
(1.11085 3.19607 -3.17596e-19)
(1.18954 3.83789 -6.49964e-19)
(1.01309 2.18903 7.67078e-19)
(1.10089 2.86345 7.52107e-19)
(0.98332 1.26806 1.30405e-19)
(1.01644 1.88099 1.57684e-19)
(1.0104 0.517758 3.50427e-20)
(1.00328 1.0125 -5.21698e-19)
(1.07379 -0.0322283 3.36266e-20)
(1.04229 0.329108 1.8553e-19)
(1.15041 -0.391266 -4.61342e-19)
(1.10843 -0.15295 -2.29328e-19)
(1.22172 -0.594059 -8.8554e-20)
(1.18046 -0.454161 3.0497e-19)
(1.27743 -0.686183 -1.29372e-19)
(1.24518 -0.615576 2.04978e-19)
(1.31498 -0.709243 -1.27667e-20)
(1.29086 -0.68197 -1.45561e-19)
(1.33025 -0.694584 1.59755e-19)
(1.33564 -0.691 1.00489e-19)
(1.3956 4.38261 -4.11184e-19)
(1.66701 4.65359 -4.58953e-19)
(1.22506 3.59365 1.52191e-19)
(1.30745 4.13556 4.71207e-19)
(1.10781 2.65935 2.01174e-19)
(1.22053 3.30559 9.88825e-20)
(1.04313 1.71517 -4.18497e-19)
(1.10649 2.35443 2.79074e-23)
(1.03522 0.89556 -4.59462e-19)
(1.05486 1.44274 -5.88489e-19)
(1.071 0.259932 -3.65976e-20)
(1.05934 0.681375 1.42429e-20)
(1.1305 -0.183502 4.80261e-19)
(1.10053 0.111636 3.18339e-19)
(1.19529 -0.458352 6.09637e-19)
(1.15886 -0.271005 -1.83466e-19)
(1.25332 -0.60499 2.27851e-19)
(1.22033 -0.498446 1.84189e-20)
(1.30007 -0.666428 0)
(1.2728 -0.612236 1.5212e-20)
(1.32183 -0.656929 9.45226e-20)
(1.33454 -0.680318 0)
(1.50452 4.4965 5.46846e-19)
(1.75959 4.63984 -2.53287e-19)
(1.35498 3.91057 4.61257e-19)
(1.43488 4.32389 4.97503e-19)
(1.22552 3.09935 -9.33693e-20)
(1.35623 3.67172 -1.08161e-18)
(1.1287 2.17434 -1.08872e-19)
(1.22214 2.81039 1.18777e-18)
(1.08324 1.30649 -1.90446e-19)
(1.13216 1.89377 6.02265e-20)
(1.08636 0.592673 3.32819e-19)
(1.09728 1.07266 1.28218e-19)
(1.12293 0.0647654 -2.90659e-19)
(1.10707 0.420827 -4.1133e-21)
(1.17618 -0.286461 -7.92459e-19)
(1.14541 -0.0446296 -3.10147e-19)
(1.23352 -0.493582 -1.90263e-19)
(1.19881 -0.342989 -5.64369e-19)
(1.28837 -0.598365 1.00983e-19)
(1.25544 -0.510548 1.52887e-20)
(1.31499 -0.592125 9.50124e-20)
(1.33701 -0.64509 -6.12914e-19)
(1.61545 4.55541 -3.82522e-19)
(1.84854 4.62182 -1.65442e-19)
(1.49398 4.13379 -8.02023e-19)
(1.56043 4.4389 3.91864e-19)
(1.3624 3.47669 -1.43207e-20)
(1.49838 3.94661 -8.93879e-19)
(1.23952 2.62633 1.48636e-18)
(1.35799 3.22158 8.06198e-19)
(1.1559 1.74647 3.94292e-19)
(1.23612 2.35175 5.60489e-19)
(1.12043 0.97053 -1.87443e-19)
(1.15868 1.50034 -2.76782e-19)
(1.12667 0.362239 1.18118e-20)
(1.1296 0.779545 -1.92828e-19)
(1.16179 -0.0677555 -5.26006e-20)
(1.1399 0.23431 2.6141e-19)
(1.21389 -0.340979 -4.21486e-19)
(1.17868 -0.137714 -1.93354e-19)
(1.27514 -0.495257 0)
(1.23534 -0.364769 -3.20054e-19)
(1.30593 -0.489126 3.04937e-19)
(1.3384 -0.580111 -2.40678e-19)
(1.71624 4.58447 7.93813e-19)
(1.93331 4.60382 -5.06291e-19)
(1.62336 4.28076 4.35391e-19)
(1.67241 4.50691 3.8867e-19)
(1.50375 3.77152 -2.23491e-19)
(1.63401 4.13549 -1.87863e-19)
(1.37003 3.03791 -1.00656e-19)
(1.5017 3.56112 -5.11084e-19)
(1.25235 2.19371 -1.25578e-20)
(1.35866 2.78452 2.01064e-19)
(1.17481 1.38559 -2.92291e-19)
(1.24194 1.94683 -2.62018e-19)
(1.14315 0.711068 8.18331e-21)
(1.16904 1.18357 1.94349e-19)
(1.1522 0.20635 1.70007e-19)
(1.1435 0.571094 0)
(1.19306 -0.135095 -6.89783e-20)
(1.1604 0.128699 2.82455e-20)
(1.25778 -0.344091 -7.96108e-20)
(1.2117 -0.160396 2.3823e-20)
(1.29231 -0.333591 4.16536e-20)
(1.33562 -0.471062 2.75802e-19)
(1.80992 4.59666 -7.73287e-19)
(2.01709 4.58216 -1.40186e-18)
(1.74022 4.37443 -1.71111e-19)
(1.7728 4.54607 -2.29546e-19)
(1.64047 3.98956 -4.4906e-19)
(1.75963 4.26201 5.97427e-19)
(1.50844 3.3894 -2.97301e-19)
(1.64395 3.8249 -5.542e-19)
(1.36704 2.62488 0)
(1.49288 3.17219 0)
(1.24864 1.82606 1.72649e-19)
(1.34405 2.39409 5.51653e-19)
(1.17398 1.11116 2.13787e-19)
(1.22698 1.62612 -2.2068e-19)
(1.14945 0.544242 -1.49875e-19)
(1.1599 0.969313 0)
(1.17229 0.13772 1.34633e-19)
(1.14783 0.467263 -3.35987e-19)
(1.23617 -0.128415 1.49322e-19)
(1.18703 0.118663 3.37262e-19)
(1.27471 -0.104788 -1.57899e-19)
(1.33181 -0.298902 -1.95597e-19)
(1.9002 4.59888 -7.44002e-19)
(2.09692 4.55594 -1.2815e-19)
(1.84916 4.43522 2.53509e-19)
(1.86477 4.56644 -2.21081e-19)
(1.77027 4.14912 6.16657e-19)
(1.8734 4.34611 9.856e-19)
(1.64786 3.67767 -3.14197e-19)
(1.77585 4.02372 5.84711e-19)
(1.49384 3.02308 4.9468e-19)
(1.62915 3.50457 -4.41818e-19)
(1.34111 2.27728 2.60299e-19)
(1.46092 2.82426 2.49905e-19)
(1.22279 1.55836 -4.60001e-19)
(1.30615 2.09455 -2.30077e-19)
(1.15932 0.951497 -1.56202e-19)
(1.1967 1.42605 -3.74695e-20)
(1.15703 0.490164 -2.08695e-19)
(1.15036 0.883684 -5.21891e-20)
(1.21235 0.169254 4.66201e-20)
(1.16926 0.483651 -3.79043e-20)
(1.24949 0.210953 2.02593e-19)
(1.31142 -0.04501 -2.89591e-19)
(1.98243 4.58947 6.23385e-19)
(2.16925 4.52529 7.67575e-19)
(1.94504 4.46915 1.81944e-19)
(1.9471 4.56749 7.58561e-19)
(1.8833 4.26129 1.00925e-18)
(1.96821 4.39552 2.0163e-19)
(1.77525 3.90603 5.72547e-19)
(1.88627 4.16759 8.73344e-19)
(1.62185 3.37586 -7.59689e-19)
(1.75441 3.77877 -8.84545e-19)
(1.44835 2.71991 -1.69431e-19)
(1.58426 3.22034 4.97286e-19)
(1.29403 2.03802 1.66802e-19)
(1.4074 2.56852 3.94854e-19)
(1.19222 1.42245 5.50562e-20)
(1.2639 1.92641 2.2168e-19)
(1.15908 0.925316 9.73043e-20)
(1.18213 1.3705 -2.2138e-19)
(1.19729 0.557386 6.93646e-20)
(1.17406 0.934894 9.05464e-20)
(1.23768 0.621158 -6.29413e-21)
(1.29583 0.298331 8.98764e-20)
(2.05555 4.56793 1.15037e-18)
(2.23065 4.48618 -1.51346e-18)
(2.02448 4.47687 8.31469e-19)
(2.01756 4.54648 1.90711e-18)
(1.97255 4.33243 0)
(2.03611 4.41243 9.30559e-19)
(1.88021 4.08205 -3.96325e-19)
(1.967 4.26412 -1.56082e-18)
(1.74081 3.68015 2.20937e-19)
(1.86037 4.00166 6.71468e-19)
(1.56649 3.13884 1.08905e-18)
(1.71029 3.57465 2.82912e-19)
(1.39307 2.53028 4.70951e-19)
(1.53482 3.0265 2.15798e-19)
(1.26098 1.94061 -4.12576e-20)
(1.37404 2.4436 -2.21105e-21)
(1.19582 1.43268 -2.72693e-19)
(1.26219 1.9037 -1.95998e-21)
(1.20773 1.03466 3.11179e-20)
(1.22056 1.45503 2.26934e-21)
(1.25995 1.1172 -2.55693e-20)
(1.29138 0.734937 -8.16226e-20)
(2.11475 4.52966 -3.90609e-19)
(2.27461 4.42915 -1.68991e-18)
(2.07946 4.45669 2.1029e-18)
(2.06594 4.49906 1.23035e-18)
(2.02881 4.36405 -3.92553e-19)
(2.06538 4.40361 9.14648e-19)
(1.95577 4.21235 -7.16042e-19)
(2.00882 4.32452 -1.34906e-18)
(1.84667 3.94133 7.5056e-19)
(1.94333 4.17432 1.10558e-18)
(1.69783 3.52199 -5.82652e-19)
(1.84531 3.8845 -8.68798e-19)
(1.53031 3.00776 -2.34202e-19)
(1.69951 3.44008 1.38054e-19)
(1.38431 2.4705 3.01435e-20)
(1.54391 2.93439 -5.2944e-19)
(1.2891 1.9786 2.89348e-19)
(1.40914 2.4335 5.41318e-19)
(1.26691 1.57505 -5.16538e-20)
(1.32808 1.99764 -7.48024e-20)
(1.32891 1.66169 -3.92493e-20)
(1.31429 1.25791 -2.11712e-19)
(2.14954 4.46269 7.97238e-20)
(2.28543 4.35047 1.14757e-18)
(2.09544 4.41429 9.83577e-20)
(2.05337 4.42105 -4.99779e-20)
(2.04203 4.37429 1.67014e-19)
(2.03703 4.38887 0)
(1.99802 4.30586 2.08349e-19)
(2.01856 4.37357 1.01869e-18)
(1.94837 4.15409 -3.04997e-19)
(2.02004 4.29762 -7.6851e-19)
(1.85937 3.85636 -2.27713e-19)
(2.0056 4.11514 -7.25162e-19)
(1.724 3.4287 -8.31529e-20)
(1.92343 3.75827 7.61981e-19)
(1.5804 2.95264 -1.41992e-19)
(1.78887 3.32537 -4.29624e-19)
(1.45574 2.4979 2.49589e-19)
(1.63252 2.87406 1.92898e-19)
(1.38897 2.11706 -3.33814e-20)
(1.50456 2.47263 -1.48114e-20)
(1.45372 2.16359 -3.02961e-20)
(1.40955 1.82765 -1.00434e-19)
(2.04032 4.33599 1.15243e-18)
(2.04132 4.31791 9.85332e-19)
(1.99245 4.35797 -1.11964e-19)
(1.95621 4.33137 -9.81477e-20)
(1.99467 4.39243 7.33691e-19)
(2.00209 4.35193 0)
(2.02868 4.38115 1.8332e-19)
(2.07007 4.34867 8.06893e-19)
(2.07117 4.29096 -1.18751e-18)
(2.15401 4.26897 -7.51336e-19)
(2.07022 4.07219 2.03656e-19)
(2.22404 4.10882 -1.27029e-20)
(1.99382 3.71099 5.21066e-19)
(2.21752 3.8426 7.93857e-20)
(1.8563 3.28744 -1.82481e-19)
(2.10281 3.48313 8.48339e-21)
(1.69798 2.88154 -4.88955e-20)
(1.91688 3.094 0)
(1.58485 2.54232 -2.28083e-20)
(1.73977 2.74772 -4.55171e-20)
(1.65259 2.46646 1.29391e-19)
(1.53546 2.26165 1.00275e-19)
(2.08355 4.30397 -1.07685e-19)
(1.57519 3.26403 1.99563e-18)
(2.12175 4.34918 0)
(1.80866 3.26954 2.55323e-18)
(2.20964 4.3449 0)
(1.96822 3.20345 -1.78432e-18)
(2.31841 4.28429 0)
(2.09855 3.13585 1.03342e-18)
(2.40908 4.15269 3.29986e-19)
(2.22586 3.0776 -1.36134e-18)
(2.44173 3.95089 -2.22775e-19)
(2.33179 3.05159 4.94011e-19)
(2.37157 3.66525 -4.25785e-19)
(2.38236 3.03276 -2.6136e-19)
(2.19434 3.31275 1.89668e-19)
(2.33311 2.96265 2.36121e-19)
(1.97622 2.9758 6.46093e-21)
(2.15581 2.80112 -4.79948e-20)
(1.80808 2.69839 7.04799e-21)
(1.95155 2.58906 7.26364e-21)
(1.83088 2.36196 -2.36447e-19)
(1.77807 2.47499 1.02731e-20)
(1.42005 2.36184 4.48794e-18)
(1.91465 0.790348 -4.10991e-19)
(1.60464 2.22407 1.59306e-18)
(1.81408 0.911734 2.4284e-18)
(1.72493 2.11172 -1.04098e-18)
(1.77614 0.896323 -2.22536e-18)
(1.82946 2.05146 -9.11463e-20)
(1.79073 0.896802 1.05193e-18)
(1.948 2.0858 -1.4465e-18)
(1.80046 0.957929 -1.55269e-18)
(2.08831 2.21013 2.15487e-19)
(1.80879 1.09545 9.95207e-19)
(2.21838 2.36329 3.468e-19)
(1.82303 1.2699 -5.15928e-19)
(2.25805 2.45362 8.55418e-20)
(1.84458 1.44321 2.27243e-19)
(2.16714 2.41653 -5.32091e-20)
(1.84007 1.54721 -4.67139e-20)
(2.03482 2.28486 -2.05581e-19)
(1.80016 1.57745 0)
(1.77423 1.52434 1.71068e-20)
(1.95995 2.10607 1.44431e-19)
(2.70572 3.55654 -1.0663e-18)
(0.737541 3.05986 3.54145e-19)
(2.47476 2.43845 -5.62474e-19)
(1.40968 2.75027 -9.97496e-19)
(2.33959 1.69843 1.12104e-18)
(1.78249 2.19107 8.17258e-19)
(2.18729 1.19051 0)
(1.88921 1.63773 -1.38707e-20)
(2.02961 0.837297 5.30072e-20)
(1.87297 1.2008 -8.92822e-19)
(1.87931 0.585152 6.58561e-20)
(1.80046 0.863457 2.10125e-19)
(1.74374 0.397896 6.15798e-20)
(1.70317 0.605912 6.63756e-19)
(1.62707 0.253967 3.99284e-21)
(1.60396 0.409016 -1.7148e-19)
(1.52992 0.140179 -7.41304e-20)
(1.51424 0.256938 -8.27338e-20)
(1.45099 0.0477926 2.44805e-20)
(1.43786 0.138369 2.15448e-20)
(1.37792 0.0503741 2.09562e-21)
(1.38379 -0.0252347 0)
(-0.0525973 2.72001 2.39925e-19)
(-1.13946 2.4286 -2.29934e-18)
(0.749641 2.63321 -1.19229e-19)
(-0.00679441 2.23802 1.94343e-18)
(1.24469 2.1622 -1.59393e-19)
(0.46494 2.14297 -1.39073e-19)
(1.49211 1.65629 -7.33726e-19)
(0.960816 1.84303 1.68608e-18)
(1.58781 1.22658 -8.11457e-19)
(1.26196 1.48368 -2.01567e-18)
(1.59095 0.886179 6.7102e-19)
(1.40145 1.12918 3.06088e-19)
(1.546 0.622219 4.86209e-19)
(1.43325 0.824115 6.04974e-19)
(1.4833 0.419956 -3.0259e-19)
(1.41337 0.579335 -2.67324e-19)
(1.41955 0.264877 -3.73138e-21)
(1.37392 0.38791 -2.13469e-19)
(1.36302 0.144469 1.83721e-21)
(1.33038 0.239374 1.53575e-19)
(1.28873 0.130274 6.70667e-20)
(1.30823 0.0459522 -4.80948e-19)
(-0.749126 1.86648 -1.78139e-18)
(-1.40561 1.75072 -8.59943e-19)
(-0.333184 1.95845 2.00095e-18)
(-0.57033 1.49737 6.06838e-19)
(0.177392 1.93253 1.42322e-18)
(-0.276952 1.66842 -1.83944e-18)
(0.672305 1.74184 4.78446e-19)
(0.170142 1.634 3.25415e-18)
(1.02308 1.42732 -1.1797e-18)
(0.579837 1.47149 -1.17016e-18)
(1.21473 1.09016 1.80149e-19)
(0.888699 1.22499 -2.95562e-19)
(1.28809 0.795843 -5.34163e-21)
(1.07626 0.957903 1.15329e-18)
(1.29827 0.560124 -1.88883e-19)
(1.16447 0.709889 -5.32622e-19)
(1.28175 0.374759 -1.1216e-19)
(1.19302 0.498819 -3.34032e-19)
(1.25772 0.229674 2.26582e-19)
(1.19405 0.329095 2.79125e-19)
(1.18163 0.204036 -9.43038e-20)
(1.22793 0.113934 -6.79556e-20)
(-0.81096 1.19072 1.42644e-18)
(-1.28245 1.17572 9.2478e-19)
(-0.635045 1.32471 -2.81062e-18)
(-0.605305 0.881107 -4.61143e-19)
(-0.316036 1.43105 -4.46721e-19)
(-0.555187 1.13459 -3.36941e-18)
(0.054641 1.4446 1.8218e-18)
(-0.216424 1.21942 1.97262e-18)
(0.419307 1.33186 -3.9482e-19)
(0.121349 1.2176 0)
(0.721489 1.13222 5.84168e-19)
(0.442147 1.11849 -7.5446e-19)
(0.928889 0.896321 7.67508e-19)
(0.697508 0.951068 1.77491e-18)
(1.04465 0.666638 -6.95161e-19)
(0.869755 0.75508 -6.07099e-19)
(1.09868 0.467797 -3.09925e-20)
(0.971282 0.561943 -3.04989e-19)
(1.11919 0.305895 4.91476e-20)
(1.02737 0.39263 -1.31843e-19)
(1.04811 0.261642 -3.06556e-20)
(1.11366 0.167797 5.96417e-19)
(-0.729098 0.696766 1.26997e-19)
(-1.07123 0.741138 -3.7743e-19)
(-0.644064 0.77765 -1.02742e-18)
(-0.507056 0.42762 6.57764e-19)
(-0.447905 0.926729 -1.50245e-18)
(-0.580628 0.673872 -2.14294e-18)
(-0.188716 1.03388 4.31964e-19)
(-0.336354 0.794055 1.02005e-18)
(0.102938 1.05172 -2.4728e-19)
(-0.0951715 0.869917 0)
(0.383089 0.979962 2.57719e-19)
(0.172586 0.873209 -6.40356e-19)
(0.614512 0.841603 5.54455e-19)
(0.420085 0.806633 1.65271e-18)
(0.780949 0.67228 -2.56004e-19)
(0.618191 0.689783 -1.55494e-19)
(0.887781 0.503795 -4.08884e-19)
(0.761626 0.547713 3.96221e-20)
(0.954078 0.350392 -2.73078e-19)
(0.855365 0.40502 -4.04992e-19)
(0.905448 0.286487 -3.40094e-20)
(0.990183 0.214631 7.69433e-20)
(-0.591467 0.3572 4.51159e-20)
(-0.83835 0.438011 -4.96073e-20)
(-0.557058 0.379315 -4.72067e-19)
(-0.373705 0.120994 2.89832e-20)
(-0.437527 0.518432 -2.58549e-19)
(-0.499509 0.330306 -4.70132e-19)
(-0.259927 0.646258 6.65803e-19)
(-0.321072 0.441517 5.28775e-19)
(-0.0441484 0.724107 -3.22951e-19)
(-0.154599 0.545114 0)
(0.187689 0.737019 5.62253e-19)
(0.0498008 0.600372 3.73154e-20)
(0.40489 0.685578 9.88815e-19)
(0.25857 0.601392 5.49581e-19)
(0.583772 0.587814 1.03051e-19)
(0.446444 0.552006 2.2762e-21)
(0.714877 0.468387 6.25396e-20)
(0.601292 0.467109 -1.35025e-19)
(0.804541 0.345088 -2.89193e-19)
(0.712724 0.3659 -1.47883e-19)
(0.778145 0.274996 -1.39447e-19)
(0.86031 0.225524 5.55025e-20)
(-0.432245 0.131218 -7.26378e-20)
(-0.609166 0.235701 -6.43106e-20)
(-0.427123 0.104221 8.72893e-20)
(-0.240402 -0.0823547 -3.91077e-20)
(-0.351678 0.218231 1.3392e-19)
(-0.384492 0.0829312 6.98916e-20)
(-0.232325 0.339054 -8.19123e-20)
(-0.23992 0.174266 4.12249e-21)
(-0.076943 0.432711 3.57003e-19)
(-0.12957 0.279437 -1.5179e-19)
(0.102667 0.486916 5.80129e-20)
(0.0237867 0.35439 3.51289e-19)
(0.286348 0.492587 -2.94727e-19)
(0.190054 0.392686 -3.96803e-19)
(0.452197 0.455356 -1.63596e-19)
(0.353843 0.39081 -1.12466e-19)
(0.587566 0.387176 -3.7254e-19)
(0.499611 0.353075 -1.44749e-19)
(0.68852 0.303779 0)
(0.613708 0.292438 -1.22911e-19)
(0.686395 0.230928 0)
(0.758665 0.217197 0)
(-0.288074 -0.0224178 -5.6344e-20)
(-0.414612 0.0803635 6.99781e-20)
(-0.29506 -0.0861217 -5.35565e-20)
(-0.123377 -0.225451 -9.7862e-20)
(-0.241755 0.00180056 1.31366e-19)
(-0.268101 -0.0997262 3.56914e-20)
(-0.157404 0.107065 -8.74532e-20)
(-0.133277 -0.0254984 1.63308e-19)
(-0.0433287 0.19738 -1.85975e-19)
(-0.0643131 0.0710255 -2.18379e-19)
(0.0938956 0.267033 -1.88918e-20)
(0.0547974 0.149276 -8.11197e-20)
(0.242048 0.304133 -1.87547e-19)
(0.185934 0.205252 9.41669e-21)
(0.38585 0.306525 -1.05984e-19)
(0.322737 0.231722 -2.108e-19)
(0.5117 0.277959 5.07356e-20)
(0.451489 0.227728 1.03921e-19)
(0.611898 0.227885 -1.36588e-19)
(0.559103 0.19923 -3.88635e-20)
(0.632237 0.162771 6.36819e-20)
(0.684815 0.165975 2.07179e-19)
(-0.160499 -0.141721 3.05832e-20)
(-0.241228 -0.0442193 -1.41744e-19)
(-0.168694 -0.228741 -1.50589e-19)
(-0.0178163 -0.344361 -2.71496e-19)
(-0.131478 -0.157993 1.45298e-19)
(-0.150169 -0.234875 -1.4048e-20)
(-0.0626309 -0.0704615 8.0131e-20)
(-0.0255235 -0.183271 2.82082e-19)
(0.0237932 0.0127195 -1.25575e-19)
(0.0208524 -0.0915261 -6.5917e-20)
(0.13065 0.085245 -5.71302e-20)
(0.116788 -0.017311 -5.93837e-20)
(0.249952 0.136958 1.04601e-20)
(0.221533 0.045275 3.65101e-20)
(0.371343 0.163113 -3.54769e-20)
(0.334826 0.0872896 -2.8828e-20)
(0.483007 0.163336 -1.34301e-20)
(0.44616 0.10577 9.83072e-21)
(0.57609 0.143282 1.16414e-19)
(0.545323 0.101743 3.32051e-20)
(0.61812 0.0866717 9.21249e-20)
(0.648446 0.114534 1.93477e-20)
(-0.0462064 -0.241973 -4.24115e-19)
(-0.0910177 -0.129888 -4.83944e-19)
(-0.0506076 -0.346785 -2.88401e-19)
(0.0811517 -0.455741 -1.34881e-19)
(-0.019562 -0.283464 1.46824e-19)
(-0.0279839 -0.344562 -8.80873e-20)
(0.0366207 -0.210373 2.18717e-19)
(0.0808712 -0.306514 1.35104e-19)
(0.107398 -0.133771 0)
(0.115272 -0.222665 0)
(0.193652 -0.0633028 2.65689e-20)
(0.194884 -0.152427 9.51146e-20)
(0.291289 -0.00577744 7.18891e-21)
(0.280558 -0.0883457 -8.31457e-20)
(0.3936 0.0337039 -2.974e-21)
(0.375346 -0.038499 -4.73595e-21)
(0.491743 0.0524959 3.48813e-20)
(0.471628 -0.00651631 5.46895e-20)
(0.577994 0.0519565 2.36801e-20)
(0.562549 0.00524428 -3.50782e-21)
(0.635239 0.00211707 1.20741e-20)
(0.650561 0.0391609 -4.64553e-20)
(0.089711 -0.324216 -2.13275e-19)
(0.0315425 -0.186203 -2.55063e-19)
(0.0658625 -0.442029 8.09506e-20)
(0.193257 -0.518513 7.3782e-20)
(0.0950289 -0.385349 -5.74178e-20)
(0.0941498 -0.43684 7.06408e-20)
(0.140638 -0.322898 -7.05641e-20)
(0.185687 -0.402139 -6.41337e-20)
(0.199105 -0.25176 8.5344e-20)
(0.214445 -0.32705 2.20759e-19)
(0.270417 -0.184405 1.07323e-20)
(0.281504 -0.261549 -2.15631e-19)
(0.351989 -0.125401 -9.87151e-20)
(0.352614 -0.198687 -4.50078e-21)
(0.439326 -0.0793614 5.76716e-20)
(0.432818 -0.145625 -3.81247e-20)
(0.526334 -0.050226 4.48542e-20)
(0.51633 -0.106561 2.94192e-20)
(0.607109 -0.0398846 -2.22356e-20)
(0.599429 -0.085988 -4.92612e-20)
(0.673165 -0.0836587 1.97415e-20)
(0.680168 -0.0435871 -3.09912e-21)
(0.200096 -0.377494 0)
(0.141528 -0.232974 5.62546e-19)
(0.179268 -0.512781 6.37335e-20)
(0.297034 -0.575834 -2.14228e-19)
(0.204784 -0.466768 7.80847e-20)
(0.208868 -0.508605 -7.718e-20)
(0.244146 -0.411778 1.98502e-19)
(0.288727 -0.477804 0)
(0.294134 -0.346302 -4.73332e-20)
(0.313956 -0.409801 4.29044e-19)
(0.354303 -0.282666 -2.52871e-19)
(0.371509 -0.348555 -3.64953e-19)
(0.423133 -0.224292 6.00102e-20)
(0.431132 -0.287886 1.08171e-19)
(0.498061 -0.175732 -7.39393e-20)
(0.499032 -0.234416 1.30071e-23)
(0.575178 -0.141561 -2.97708e-20)
(0.570915 -0.192508 0)
(0.650226 -0.125214 -4.73095e-20)
(0.645564 -0.167465 1.93834e-20)
(0.715301 -0.161285 -1.45044e-20)
(0.72279 -0.121393 1.47919e-19)
(0.308688 -0.421279 3.43245e-19)
(0.251171 -0.271117 5.64182e-19)
(0.286673 -0.568703 -3.6878e-19)
(0.40422 -0.620942 -2.1486e-19)
(0.310606 -0.531241 -1.62332e-19)
(0.318349 -0.566204 -1.12309e-19)
(0.34559 -0.481563 1.8627e-19)
(0.390128 -0.537296 -2.92756e-20)
(0.389122 -0.420804 1.76898e-19)
(0.411895 -0.474513 1.31748e-19)
(0.440389 -0.360689 -5.81054e-20)
(0.461557 -0.416466 -1.04273e-19)
(0.498478 -0.303956 5.92173e-20)
(0.511325 -0.357938 -3.86275e-20)
(0.561956 -0.255264 7.35146e-20)
(0.567915 -0.305192 -2.16548e-20)
(0.628852 -0.219979 4.71562e-20)
(0.627867 -0.263053 3.41127e-20)
(0.698433 -0.203716 2.19143e-20)
(0.692009 -0.23871 5.30751e-20)
(0.751927 -0.233837 -2.27593e-20)
(0.768202 -0.214171 -5.96734e-21)
(0.424483 -0.449731 0)
(0.364271 -0.275807 0)
(0.395957 -0.610063 3.22034e-20)
(0.511832 -0.642291 0)
(0.414934 -0.58077 1.31247e-20)
(0.425498 -0.606356 8.84744e-20)
(0.445003 -0.535353 -9.98569e-20)
(0.489481 -0.580819 3.44175e-22)
(0.482489 -0.478105 -1.28684e-19)
(0.508079 -0.522878 -7.53183e-20)
(0.525745 -0.420582 -9.08134e-20)
(0.550185 -0.467157 4.69724e-20)
(0.573735 -0.365377 -1.2162e-19)
(0.590767 -0.410147 -1.64206e-19)
(0.625546 -0.317508 -7.09437e-20)
(0.635907 -0.358188 -8.03479e-20)
(0.680302 -0.283347 3.7928e-20)
(0.682531 -0.316832 1.72641e-19)
(0.738908 -0.269221 1.50717e-20)
(0.733649 -0.294943 -5.01505e-20)
(0.781886 -0.296759 4.1166e-20)
(0.804775 -0.278183 -1.60106e-19)
(0.529891 -0.45876 0)
(0.472438 -0.280981 -3.67216e-19)
(0.500541 -0.634483 4.69186e-20)
(0.612277 -0.653009 2.51752e-19)
(0.516429 -0.61497 8.38422e-20)
(0.529321 -0.633172 1.68502e-19)
(0.542324 -0.573599 3.23656e-20)
(0.585827 -0.610012 -2.3008e-19)
(0.574219 -0.519205 8.76812e-20)
(0.602459 -0.555976 1.84997e-19)
(0.609665 -0.463369 -3.03504e-21)
(0.63697 -0.501407 4.52144e-20)
(0.647373 -0.409101 -1.33343e-19)
(0.668507 -0.444877 3.34545e-21)
(0.686429 -0.362193 1.30935e-19)
(0.701385 -0.393056 -1.12824e-19)
(0.726774 -0.330273 1.15288e-19)
(0.732896 -0.352778 2.19046e-19)
(0.770581 -0.321493 -3.26146e-20)
(0.767336 -0.334438 -7.8541e-20)
(0.801752 -0.345309 4.17311e-20)
(0.823369 -0.340726 1.95554e-20)
(0.631845 -0.458934 -9.18808e-20)
(0.580076 -0.279425 -6.78428e-19)
(0.601448 -0.64609 3.81082e-19)
(0.711064 -0.651699 5.74798e-22)
(0.6149 -0.63573 -1.22178e-19)
(0.632357 -0.647681 3.56979e-19)
(0.637217 -0.597722 -1.2508e-19)
(0.680462 -0.626215 -2.58402e-19)
(0.663966 -0.545039 1.55432e-19)
(0.695291 -0.574738 2.78172e-19)
(0.6916 -0.489477 5.73989e-20)
(0.722049 -0.519693 -1.25258e-19)
(0.718446 -0.434945 3.63117e-20)
(0.744143 -0.462065 8.32651e-20)
(0.743313 -0.388396 -6.37331e-20)
(0.763605 -0.409119 -1.21162e-19)
(0.766791 -0.359027 6.67748e-20)
(0.778234 -0.369534 8.12713e-20)
(0.79226 -0.357064 -1.75498e-20)
(0.79276 -0.355373 -1.46295e-19)
(0.810023 -0.377694 -6.24473e-20)
(0.828786 -0.382686 -3.51931e-20)
(0.736219 -0.449206 -5.65892e-19)
(0.686807 -0.261527 7.2123e-20)
(0.703256 -0.644799 -9.79038e-20)
(0.809999 -0.633188 -2.46774e-19)
(0.713069 -0.643418 2.65184e-19)
(0.735983 -0.647048 3.75203e-20)
(0.731193 -0.608145 8.37068e-20)
(0.774917 -0.628264 -1.39489e-19)
(0.75241 -0.55584 3.7379e-20)
(0.787545 -0.578563 2.00933e-19)
(0.771767 -0.498842 -1.21293e-19)
(0.80621 -0.521537 7.26999e-20)
(0.786807 -0.4424 -5.10973e-20)
(0.818024 -0.460964 -4.60777e-20)
(0.795925 -0.395037 5.68136e-22)
(0.822744 -0.405238 0)
(0.800395 -0.368027 -1.04473e-19)
(0.818872 -0.36548 4.40606e-20)
(0.80559 -0.374262 -2.01133e-19)
(0.811606 -0.35621 -3.04844e-20)
(0.809561 -0.390956 1.70269e-19)
(0.822171 -0.422243 1.50494e-19)
(0.839386 -0.424794 4.15984e-19)
(0.792476 -0.232608 7.85236e-19)
(0.805351 -0.627745 -1.79938e-19)
(0.908959 -0.598628 0)
(0.811731 -0.636285 -3.45718e-19)
(0.840524 -0.630246 1.20035e-19)
(0.825498 -0.60371 -5.98583e-20)
(0.870466 -0.61475 -2.17882e-19)
(0.840713 -0.55067 2.48162e-19)
(0.88046 -0.565951 3.23413e-19)
(0.851091 -0.490473 1.60252e-19)
(0.890701 -0.505462 -4.31854e-20)
(0.853185 -0.430255 0)
(0.891198 -0.439994 2.74907e-20)
(0.845095 -0.380584 3.87007e-20)
(0.879911 -0.379669 0)
(0.829011 -0.355396 1.26896e-19)
(0.856372 -0.338468 4.3557e-20)