/*--------------------------------*- C++ -*----------------------------------*\
| =========                 |                                                 |
| \\      /  F ield         | OpenFOAM: The Open Source CFD Toolbox           |
|  \\    /   O peration     | Version:  3.0.1                                 |
|   \\  /    A nd           | Web:      www.OpenFOAM.org                      |
|    \\/     M anipulation  |                                                 |
\*---------------------------------------------------------------------------*/
FoamFile
{
    version     2.0;
    format      ascii;
    class       volScalarField;
    location    "0.756369";
    object      k;
}
// * * * * * * * * * * * * * * * * * * * * * * * * * * * * * * * * * * * * * //

dimensions      [0 2 -2 0 0 0 0];

internalField   nonuniform List<scalar> 
21246
(
0.684221
0.984708
0.808527
0.594431
0.399555
0.250659
0.152643
0.0922311
0.0552371
0.0328159
0.0198199
0.522324
0.768237
0.712554
0.551905
0.380626
0.243928
0.150143
0.0905245
0.0538706
0.0318389
0.0191556
0.38695
0.651826
0.642468
0.533004
0.385664
0.253876
0.157696
0.0947181
0.055696
0.0324752
0.0194285
0.313781
0.568824
0.588834
0.512481
0.387059
0.262646
0.16612
0.100877
0.0596741
0.03478
0.0205868
0.264661
0.469203
0.512209
0.477859
0.38342
0.27194
0.176116
0.107866
0.0637527
0.0367062
0.0211155
0.238918
0.406866
0.447524
0.427565
0.35645
0.262932
0.175653
0.109693
0.0656409
0.0383301
0.0226465
0.223676
0.365752
0.402955
0.386334
0.324824
0.243572
0.166582
0.106793
0.0653953
0.0387767
0.0229605
0.213866
0.335696
0.368498
0.352825
0.298171
0.225987
0.15697
0.102509
0.0640055
0.038729
0.0237385
0.206539
0.311976
0.34058
0.325071
0.275132
0.209883
0.147489
0.0978653
0.0622804
0.0384297
0.0238953
0.200166
0.292007
0.317483
0.302411
0.256197
0.196371
0.13925
0.0936098
0.0605107
0.0378794
0.0236063
0.194576
0.274888
0.298195
0.2839
0.24089
0.185442
0.132498
0.0900063
0.0588906
0.0373077
0.0237539
0.190306
0.260529
0.282113
0.268621
0.228408
0.176632
0.127095
0.0871322
0.0576176
0.0369216
0.0237816
0.186973
0.248246
0.268662
0.256174
0.218527
0.169873
0.123096
0.0851149
0.056838
0.0367877
0.0237858
0.183959
0.237391
0.257349
0.246319
0.211201
0.165224
0.120605
0.0840564
0.0565892
0.0368881
0.0240718
0.1818
0.228057
0.247867
0.238516
0.205929
0.162373
0.119485
0.0839194
0.0568791
0.0372261
0.0241937
0.180394
0.219809
0.239953
0.232639
0.202715
0.161415
0.119871
0.08483
0.0578069
0.0378945
0.024525
0.179478
0.212184
0.233315
0.228661
0.201769
0.16267
0.122071
0.0870305
0.0595501
0.0390059
0.0251052
0.179359
0.205139
0.227734
0.226373
0.203021
0.166269
0.12633
0.0907726
0.0623184
0.0407211
0.0259756
0.180385
0.198583
0.222557
0.224955
0.206096
0.172409
0.133156
0.096557
0.0664693
0.0433491
0.0274783
0.182752
0.192129
0.217548
0.223954
0.21014
0.180124
0.141904
0.104211
0.0722711
0.047319
0.0299235
0.186862
0.185725
0.212336
0.22298
0.214618
0.188866
0.152295
0.113873
0.0800792
0.0531652
0.0339225
0.194452
0.178264
0.206929
0.221186
0.218241
0.197309
0.163516
0.125536
0.0905486
0.0618094
0.0404539
0.204249
0.171185
0.198955
0.218364
0.220475
0.204511
0.174761
0.139038
0.104298
0.0743637
0.0508875
0.227481
0.18052
0.208013
0.212126
0.21383
0.203357
0.181048
0.151566
0.12032
0.0911916
0.0665862
0.643185
0.911869
0.805474
0.653183
0.490561
0.317987
0.192577
0.114901
0.0672044
0.0390735
0.0233388
0.517434
0.676823
0.717025
0.651607
0.537834
0.392889
0.257032
0.152312
0.089172
0.0515457
0.0296303
0.286352
0.560863
0.631977
0.616419
0.546351
0.434781
0.309241
0.19636
0.117045
0.0689488
0.0395177
0.267259
0.575188
0.634955
0.607569
0.548929
0.458351
0.347293
0.236124
0.147444
0.0901233
0.0543676
0.29661
0.625006
0.781737
0.70259
0.595058
0.489537
0.380085
0.271219
0.177832
0.111918
0.0724037
0.307623
0.608652
0.933922
0.953186
0.759275
0.575037
0.429133
0.308053
0.208304
0.134838
0.0891593
0.316265
0.585
0.918706
1.1966
1.06133
0.767081
0.528466
0.361527
0.242703
0.159093
0.106085
0.325069
0.565458
0.881931
1.23519
1.35891
1.06757
0.709488
0.452486
0.289493
0.18657
0.124183
0.333727
0.546066
0.835982
1.18795
1.50413
1.39934
0.975835
0.598131
0.359117
0.221125
0.143755
0.342645
0.528663
0.787266
1.11096
1.46479
1.60504
1.25905
0.788098
0.454601
0.265533
0.165911
0.352037
0.516429
0.741486
1.0206
1.3558
1.6396
1.47754
0.983839
0.564653
0.317606
0.190589
0.362374
0.51018
0.702255
0.927265
1.21789
1.53769
1.56805
1.13099
0.663069
0.367802
0.215145
0.374108
0.512581
0.672383
0.841856
1.07314
1.37665
1.53521
1.19447
0.721696
0.403128
0.23487
0.387395
0.52162
0.65093
0.77071
0.937154
1.18382
1.39625
1.16556
0.724463
0.414015
0.246334
0.403068
0.538087
0.638163
0.713847
0.81858
0.979786
1.16837
1.07377
0.672397
0.398936
0.249594
0.419747
0.560396
0.630085
0.662406
0.71079
0.79635
0.893368
0.905378
0.607957
0.368131
0.247228
0.438662
0.591801
0.630855
0.619727
0.616733
0.644471
0.685182
0.691665
0.544867
0.346235
0.244818
0.4619
0.638112
0.649955
0.598699
0.554672
0.545798
0.557109
0.556394
0.491498
0.357063
0.255329
0.493269
0.709023
0.703332
0.617457
0.542196
0.513715
0.516313
0.520078
0.492674
0.413383
0.29444
0.539648
0.825341
0.827266
0.713487
0.607537
0.564268
0.567958
0.579199
0.566275
0.507354
0.357467
0.606306
1.00084
1.04642
0.932847
0.795862
0.718704
0.654334
0.613399
0.567407
0.471666
0.335795
0.623663
1.08899
1.1584
1.07378
0.85197
0.581305
0.473839
0.387442
0.316186
0.250485
0.191282
0.444402
0.717462
0.701741
0.554563
0.41893
0.324826
0.264547
0.220119
0.183429
0.150408
0.119792
0.273491
0.218283
0.200243
0.193442
0.192176
0.189914
0.181718
0.165629
0.143046
0.117113
0.0912932
0.228582
0.222691
0.101182
0.0473956
0.02549
0.017304
0.0141261
0.0126545
0.0118106
0.0111949
0.0106422
0.274828
0.346238
0.0976292
0.0558977
0.0282862
0.0183339
0.0141452
0.0122483
0.0112164
0.0105388
0.0100198
0.318741
0.388892
0.100822
0.0651245
0.029972
0.0194771
0.0143914
0.0120898
0.0108159
0.00996736
0.00924387
0.356111
0.364799
0.105575
0.0689473
0.0303274
0.0204122
0.0145851
0.0120057
0.0105463
0.00957099
0.00876802
0.383369
0.336262
0.107565
0.0677036
0.0303556
0.0209306
0.0146238
0.0119399
0.010354
0.009308
0.00848616
0.400513
0.320721
0.108421
0.0650961
0.0304817
0.0210883
0.014564
0.0118686
0.0102002
0.00912336
0.00830968
0.408136
0.316251
0.110284
0.0629638
0.030795
0.0210302
0.0144807
0.011789
0.0100683
0.00897736
0.00815746
0.406974
0.317582
0.113631
0.0620736
0.0312781
0.0208786
0.0144274
0.0117047
0.00995217
0.0088576
0.00805275
0.398571
0.322459
0.118707
0.0629291
0.0321862
0.0207668
0.0144428
0.0116254
0.00985487
0.00875572
0.00795429
0.384335
0.330214
0.128215
0.0658146
0.0338775
0.0210881
0.0146416
0.0115982
0.00978616
0.00866974
0.00786448
0.364624
0.341685
0.141468
0.0708471
0.0364258
0.0218914
0.0150373
0.0116656
0.00978097
0.00861555
0.0077975
0.340318
0.357429
0.157081
0.077653
0.0397924
0.0232205
0.0156448
0.011848
0.00983149
0.00859122
0.0077458
0.313326
0.376343
0.176518
0.0869947
0.0444462
0.0252875
0.0165757
0.012208
0.00996211
0.00861014
0.00771635
0.284942
0.397352
0.201857
0.10041
0.0512404
0.0284967
0.0180453
0.0128493
0.0102234
0.00869692
0.00772192
0.256232
0.423298
0.232719
0.118185
0.0605668
0.0331396
0.0202702
0.0138932
0.0106868
0.00888895
0.00778366
0.229688
0.45442
0.271518
0.142368
0.073751
0.0399749
0.0236979
0.0155844
0.0114898
0.00925994
0.00794094
0.208004
0.489391
0.321713
0.176689
0.0933349
0.0505106
0.0291956
0.0184078
0.0129026
0.00995628
0.00827361
0.194611
0.532181
0.386627
0.225235
0.12263
0.066988
0.0381915
0.0232359
0.0154419
0.0112737
0.00894834
0.193074
0.582601
0.470364
0.295174
0.167923
0.0938456
0.0535877
0.0319056
0.0202385
0.0138879
0.0103564
0.202856
0.632317
0.571011
0.395222
0.240007
0.139793
0.081528
0.0485201
0.0299442
0.0194649
0.0135142
0.215292
0.661853
0.670151
0.526322
0.352931
0.220661
0.135022
0.0826045
0.0511577
0.0324165
0.0212811
0.225853
0.657823
0.735173
0.664522
0.510867
0.3573
0.238155
0.155181
0.100203
0.0646925
0.0420264
0.207542
0.602421
0.693739
0.704475
0.634461
0.518242
0.394194
0.285907
0.201187
0.139036
0.0946018
0.278192
0.596847
0.660548
0.672314
0.61816
0.541852
0.45589
0.370083
0.291269
0.223656
0.167426
0.189216
0.200305
0.0990031
0.0450109
0.0245172
0.0173405
0.0147075
0.0135477
0.0129172
0.0124754
0.0120698
0.21587
0.213635
0.0794112
0.0455302
0.027478
0.0197285
0.0164721
0.0151369
0.0145566
0.0142936
0.0141635
0.244235
0.228603
0.071228
0.0484958
0.0294936
0.0218033
0.0184856
0.0171456
0.0166283
0.0164511
0.0164004
0.267897
0.20699
0.0674685
0.0500009
0.0299816
0.0225758
0.019299
0.0181809
0.0180448
0.018389
0.0189817
0.285122
0.176293
0.0648238
0.0488193
0.029515
0.0227827
0.0196276
0.0187035
0.0188554
0.0196333
0.0208366
0.29765
0.151401
0.0621617
0.0463228
0.0287263
0.0227041
0.0196719
0.0188826
0.0192103
0.0203039
0.0220496
0.30745
0.133357
0.0594691
0.0436402
0.0279042
0.0224896
0.0195415
0.0188316
0.0191932
0.0203689
0.0222852
0.314424
0.120011
0.0567806
0.0411985
0.0271261
0.0221589
0.0193162
0.0186311
0.0189303
0.0200303
0.0218893
0.320407
0.109927
0.0543172
0.0391338
0.0264904
0.0217558
0.0190441
0.0183271
0.0185029
0.0194008
0.02091
0.326657
0.102453
0.0522214
0.0374856
0.026033
0.0213604
0.0187506
0.0179649
0.0179933
0.0186577
0.0197753
0.334205
0.0973314
0.0506386
0.0362965
0.0257341
0.0210332
0.0184694
0.0175902
0.0174718
0.0179304
0.018759
0.342312
0.0937446
0.0494082
0.035468
0.025577
0.0207901
0.0182283
0.0172415
0.0169899
0.0172915
0.0179504
0.350026
0.0925586
0.0486354
0.035001
0.0256196
0.0206617
0.018067
0.0169495
0.0165793
0.0167642
0.0173708
0.356631
0.0943467
0.0487919
0.034902
0.0259724
0.0207417
0.0180632
0.0167715
0.0162909
0.0163823
0.016984
0.362204
0.0977965
0.0496317
0.035136
0.0265802
0.0210662
0.0182401
0.0167414
0.0161396
0.016142
0.0167369
0.366908
0.103089
0.0513887
0.0358053
0.0274553
0.0216967
0.0186475
0.0169084
0.0161501
0.0160463
0.0165884
0.370852
0.110635
0.0544342
0.0371014
0.0286552
0.0227009
0.0193585
0.0173416
0.01637
0.016115
0.0165303
0.37407
0.120265
0.0591063
0.0392855
0.0302904
0.0241429
0.0204612
0.018132
0.0168813
0.0164062
0.0166022
0.376589
0.132017
0.0658855
0.0427974
0.032619
0.0261369
0.0220695
0.0193977
0.0178089
0.0170336
0.0169206
0.378435
0.146081
0.0755242
0.0483883
0.0361852
0.0289618
0.0243754
0.0213043
0.0193306
0.0181896
0.0176917
0.379581
0.162526
0.0888883
0.0572285
0.0420114
0.0332856
0.0278033
0.0241434
0.021696
0.0201321
0.0192205
0.379933
0.1811
0.106958
0.0709878
0.0518586
0.040544
0.0333637
0.0285779
0.0253303
0.0231541
0.0217472
0.378802
0.204947
0.132906
0.093038
0.0692262
0.0540361
0.043867
0.0368361
0.0318939
0.0284125
0.0259497
0.332613
0.252798
0.198505
0.161689
0.141312
0.129628
0.123124
0.118811
0.114957
0.110577
0.104811
0.793127
1.2274
0.805643
0.549043
0.344118
0.209949
0.131885
0.0889762
0.0657362
0.0523178
0.0436534
0.748223
1.09187
0.832038
0.610545
0.40353
0.24982
0.154993
0.100897
0.0717587
0.0557016
0.0458091
0.651869
0.871544
0.791893
0.624672
0.445963
0.288888
0.17818
0.11482
0.07966
0.0604908
0.0492238
0.52738
0.716289
0.728868
0.614157
0.465526
0.318654
0.203506
0.128856
0.0884884
0.066343
0.0537171
0.399179
0.617154
0.666975
0.596813
0.476502
0.342277
0.226873
0.1464
0.0988203
0.0731033
0.0591951
0.284742
0.543493
0.612882
0.578378
0.484507
0.364208
0.250847
0.165584
0.111996
0.0818486
0.0655059
0.191359
0.48244
0.567927
0.55956
0.48934
0.384384
0.275765
0.187261
0.127562
0.0923757
0.0732691
0.132628
0.448038
0.540557
0.544045
0.491238
0.401437
0.300079
0.210755
0.145759
0.105084
0.0822948
0.12715
0.444304
0.538545
0.539529
0.494358
0.416046
0.322764
0.234935
0.166215
0.120178
0.0930028
0.126724
0.433912
0.552566
0.55289
0.506
0.431851
0.344431
0.259104
0.188297
0.137574
0.105679
0.109537
0.368776
0.543569
0.576088
0.529753
0.452903
0.366674
0.282981
0.211186
0.156824
0.12036
0.0889823
0.285193
0.488365
0.581327
0.557465
0.479554
0.390707
0.306618
0.234151
0.177246
0.136856
0.0722671
0.220817
0.401845
0.543773
0.569756
0.505322
0.415488
0.329871
0.256694
0.198215
0.154732
0.0597084
0.170516
0.308086
0.464116
0.547595
0.517327
0.435729
0.35085
0.277804
0.218881
0.173323
0.0515934
0.13708
0.231402
0.369181
0.489535
0.504404
0.443463
0.365352
0.295249
0.237716
0.191536
0.0467059
0.117441
0.18088
0.282522
0.408549
0.464039
0.432466
0.368786
0.306211
0.25281
0.20745
0.0428811
0.103964
0.148386
0.217017
0.319529
0.401142
0.400742
0.357602
0.307593
0.261487
0.21853
0.0394134
0.093531
0.124937
0.173279
0.2438
0.323375
0.351789
0.330976
0.297169
0.261015
0.222467
0.0366301
0.085517
0.107309
0.142266
0.190011
0.248866
0.291679
0.292191
0.27543
0.251467
0.219002
0.0350342
0.0801527
0.0950053
0.12048
0.152583
0.192529
0.231267
0.247734
0.245522
0.234636
0.211121
0.034228
0.0754794
0.0861668
0.105233
0.127369
0.153935
0.182697
0.20282
0.20855
0.207103
0.193253
0.0328769
0.0712812
0.0782942
0.0944507
0.111586
0.1305
0.148844
0.162776
0.168533
0.169305
0.161936
0.0339868
0.0690351
0.0769535
0.0944597
0.108781
0.121519
0.13128
0.137709
0.140668
0.142448
0.141444
0.0705998
0.0758974
0.0669489
0.0760646
0.0917806
0.107165
0.119734
0.129586
0.137618
0.144342
0.148568
0.755747
0.972262
0.73655
0.473419
0.292331
0.182811
0.119105
0.0831182
0.0628494
0.0506087
0.0422508
0.526948
0.755982
0.625092
0.448995
0.294392
0.189503
0.124346
0.0862845
0.06466
0.0517351
0.0430629
0.462147
0.658726
0.567192
0.452206
0.31752
0.2083
0.135789
0.0927764
0.0684815
0.0542439
0.0448366
0.42236
0.582663
0.511015
0.433413
0.323644
0.222284
0.148219
0.101251
0.0739557
0.0581951
0.0481107
0.394169
0.514446
0.466522
0.405193
0.310876
0.221527
0.15297
0.107437
0.0797609
0.0631477
0.0525126
0.371771
0.459607
0.431384
0.381221
0.298715
0.217697
0.153383
0.109718
0.0826962
0.0663627
0.0560882
0.352899
0.417162
0.403614
0.361462
0.288554
0.215243
0.155118
0.112863
0.0856905
0.0686917
0.0580422
0.336895
0.38438
0.381898
0.346598
0.281939
0.215493
0.15915
0.117904
0.089884
0.0713158
0.0593172
0.32307
0.358832
0.365282
0.336671
0.279638
0.219583
0.166701
0.126109
0.0966929
0.0756983
0.0612677
0.310689
0.338357
0.352824
0.330729
0.281664
0.227833
0.178418
0.13855
0.107495
0.0832351
0.0649452
0.2991
0.321168
0.342986
0.327804
0.287386
0.239911
0.194518
0.155973
0.123645
0.0959739
0.0733429
0.287692
0.305635
0.334174
0.326609
0.295157
0.254714
0.214341
0.178293
0.145772
0.115199
0.0875034
0.276086
0.29028
0.325062
0.325466
0.303256
0.270633
0.236418
0.204391
0.17336
0.141228
0.109146
0.263896
0.274604
0.313663
0.321718
0.308909
0.284917
0.257968
0.231436
0.203882
0.172635
0.137966
0.250548
0.258068
0.299457
0.314178
0.310185
0.294947
0.275731
0.255509
0.232735
0.204404
0.169617
0.235743
0.240173
0.281946
0.301984
0.305741
0.298764
0.287145
0.273475
0.256243
0.232279
0.19971
0.219269
0.220659
0.260945
0.284678
0.294754
0.295048
0.290399
0.283012
0.271533
0.252749
0.22449
0.201124
0.199671
0.236857
0.262533
0.27729
0.283563
0.284932
0.283179
0.277168
0.263765
0.240796
0.181758
0.177685
0.210604
0.236603
0.254462
0.265361
0.271663
0.274649
0.273409
0.265163
0.247783
0.16212
0.155426
0.183472
0.208543
0.228178
0.24246
0.252579
0.259247
0.261746
0.258089
0.246067
0.14354
0.133743
0.156775
0.180111
0.200453
0.216948
0.2297
0.238864
0.24397
0.243941
0.236906
0.127589
0.113343
0.131369
0.152326
0.172347
0.189803
0.203918
0.214423
0.22113
0.223666
0.220779
0.115729
0.0940531
0.106583
0.12437
0.143178
0.160768
0.175492
0.18666
0.194371
0.198806
0.198903
0.114234
0.0790175
0.0898183
0.107104
0.12641
0.143636
0.156369
0.164737
0.170075
0.173494
0.174546
0.0795251
0.0968075
0.108507
0.117988
0.121644
0.11641
0.114237
0.113782
0.111542
0.110542
0.137699
0.161921
0.180167
0.193499
0.197158
0.181348
0.167483
0.154406
0.133652
0.151667
0.164583
0.178316
0.193133
0.196125
0.180087
0.1651
0.152166
0.13364
0.143429
0.151767
0.15875
0.168719
0.168013
0.151702
0.140218
0.133728
0.0525271
0.0229866
0.0172246
0.0161839
0.0186083
0.0451641
0.0752357
0.0933766
0.104222
0.0825586
0.0512985
0.0269262
0.0272767
0.0400361
0.0644402
0.0902046
0.114504
0.136809
0.106301
0.0686456
0.0353621
0.0350849
0.0527776
0.0816894
0.107925
0.126705
0.140615
0.114212
0.079218
0.0431791
0.0415277
0.0616684
0.0887995
0.109801
0.121747
0.129769
0.00442748
0.00460126
0.00461679
0.00233104
0.0466264
0.00438362
0.0113916
0.00454885
0.0043761
0.00425311
0.0458252
0.00455908
0.00372376
0.00329285
0.00448398
0.00430371
0.00329282
0.0023399
0.00429324
0.00424904
0.00411287
0.00489837
0.00466578
0.017391
0.00449243
0.00330445
0.00377802
0.0109795
0.063599
0.0488401
0.00337689
0.00410656
0.00298019
0.00453636
0.00427703
0.004592
0.0161696
0.00448754
0.00290269
0.00438984
0.00584738
0.00454563
0.00702662
0.00465888
0.0604686
0.0119404
0.00334699
0.0190274
0.0042995
0.00434162
0.0488434
0.00439576
0.0138973
0.00710951
0.00433292
0.00411971
0.00478373
0.00440146
0.0655452
0.0060543
0.00504823
0.0124136
0.0531795
0.00816396
0.00743617
0.00426105
0.0511218
0.00435044
0.00460158
0.0042452
0.00329521
0.00431438
0.00315877
0.00458478
0.00850946
0.00427782
0.00415812
0.00459829
0.00938145
0.0735179
0.0414286
0.00651926
0.00449546
0.00462627
0.00438335
0.00317846
0.0838947
0.011241
0.00318079
0.0162793
0.00454288
0.00441226
0.00665984
0.00439523
0.0724546
0.0325186
0.00523772
0.00398314
0.00351146
0.00438039
0.00466995
0.0177719
0.0041717
0.00402457
0.00287108
0.00455329
0.00303854
0.00464666
0.00417823
0.00416213
0.00450913
0.00456068
0.00430933
0.00229739
0.00434783
0.00442338
0.00437736
0.0043175
0.00450061
0.00414126
0.00232358
0.00451637
0.0051123
0.00325069
0.0107517
0.00416185
0.0648377
0.0030367
0.00319432
0.00347776
0.00445217
0.00593966
0.017882
0.00428407
0.00461396
0.00457685
0.00392122
0.00438953
0.0497697
0.00447056
0.00723745
0.00411369
0.0241546
0.00402533
0.00437001
0.00328639
0.00446454
0.00433591
0.00431566
0.00425008
0.00428775
0.00441863
0.00355909
0.00449941
0.00235883
0.00390955
0.00388955
0.00367304
0.00320555
0.00436129
0.00364096
0.00430526
0.00430494
0.00443087
0.053028
0.00548888
0.00361614
0.00424172
0.00425414
0.00737062
0.00308459
0.00309076
0.00447398
0.00405776
0.00409608
0.00396342
0.00317278
0.00359062
0.0614354
0.00392942
0.00432922
0.00471685
0.00465997
0.0129218
0.00450473
0.00395781
0.00426776
0.00430347
0.00458916
0.0126153
0.00403829
0.0034136
0.00427397
0.00583657
0.00460975
0.0043996
0.00435501
0.00358705
0.00355488
0.00467917
0.0032558
0.00434145
0.00395496
0.00347438
0.0046275
0.0115255
0.00438324
0.00318726
0.00434864
0.00433929
0.0188319
0.00439451
0.00401433
0.00423208
0.00449135
0.0112679
0.00451069
0.00380456
0.00429074
0.00316543
0.00281991
0.00223534
0.00529279
0.00434567
0.00321004
0.00440638
0.00952313
0.00529053
0.00383084
0.0232817
0.00383756
0.00425791
0.00428188
0.00450753
0.00350881
0.0710801
0.0466309
0.00464651
0.0045633
0.0045512
0.00383575
0.00951383
0.00401562
0.00557774
0.00465251
0.00474577
0.00451818
0.00358471
0.0286691
0.0583345
0.00357076
0.0190212
0.0051947
0.00430209
0.0039543
0.00436136
0.00413904
0.00447336
0.00313341
0.00426151
0.00340521
0.00455129
0.00432685
0.00457555
0.00450689
0.00310044
0.00411363
0.00485859
0.00559304
0.00372349
0.0214734
0.00432289
0.00433445
0.00321957
0.00439091
0.00432924
0.00331301
0.00444775
0.00428041
0.00318311
0.00435227
0.00459993
0.0415013
0.043486
0.00395519
0.00439749
0.0842495
0.0045912
0.00425213
0.00684289
0.00461805
0.0114244
0.00426233
0.00295695
0.004679
0.0043537
0.00423831
0.00456638
0.00427316
0.00334489
0.00444702
0.00247761
0.00438333
0.0492558
0.00415051
0.00416447
0.00459946
0.0144846
0.0047091
0.00435115
0.0074265
0.00456546
0.00409512
0.00297784
0.00462238
0.0041092
0.00368695
0.0032504
0.00413021
0.00449356
0.00426125
0.0328429
0.0043568
0.00339143
0.00555345
0.00418849
0.00445192
0.00370829
0.00424162
0.0394889
0.00445191
0.0537572
0.0039531
0.0046493
0.00354103
0.0426861
0.00350602
0.00458772
0.00447398
0.0039712
0.004061
0.0182632
0.00433628
0.00546947
0.0195499
0.0145427
0.00465862
0.0043779
0.0141143
0.0695077
0.00871078
0.00391388
0.00374083
0.00416837
0.0039416
0.00468916
0.0028352
0.00399911
0.00466006
0.0451498
0.00386189
0.00333082
0.00451823
0.00451188
0.0043121
0.00332518
0.00308022
0.00332464
0.0107567
0.00464203
0.00444102
0.0127033
0.0351666
0.00320455
0.00388044
0.00461006
0.0039176
0.00425895
0.00437942
0.00425745
0.0343978
0.00438673
0.00314873
0.00441324
0.00340161
0.0496325
0.00239111
0.00319513
0.009489
0.0034069
0.0044289
0.0053999
0.00309529
0.00460356
0.0502597
0.00739714
0.00447871
0.00429148
0.00462063
0.00610405
0.00310911
0.00441026
0.0046614
0.00689383
0.00280297
0.00641773
0.00783005
0.00660685
0.00433901
0.0329522
0.00424406
0.00427906
0.00370535
0.0036459
0.00411897
0.0040779
0.00406235
0.00472368
0.00314854
0.00480011
0.0318493
0.00322045
0.0127091
0.00399667
0.0039845
0.00414837
0.00454882
0.00480575
0.0044825
0.00860401
0.00448606
0.00315099
0.00342843
0.00410551
0.00424717
0.00305382
0.0245602
0.0481444
0.00326189
0.00468841
0.00396082
0.0835799
0.0028502
0.0024274
0.00420496
0.00429336
0.00785165
0.00357157
0.0043468
0.00394975
0.00444123
0.00461342
0.00449952
0.00413407
0.00447175
0.0113408
0.00309728
0.00326666
0.00493088
0.00459103
0.00434276
0.0673885
0.00320592
0.00394603
0.0042534
0.00813239
0.00764714
0.00545505
0.00546768
0.00443129
0.00393475
0.00311645
0.00422416
0.00498394
0.00422405
0.00458807
0.00432989
0.00557888
0.0035806
0.00427307
0.00444983
0.00412771
0.0170335
0.00448431
0.00464723
0.00332924
0.031233
0.00404797
0.00327486
0.00434176
0.00344747
0.00439789
0.00423229
0.00440163
0.00333567
0.00326909
0.00426449
0.00339735
0.00400204
0.00476544
0.00374776
0.00369757
0.00454136
0.00453446
0.0353094
0.00355387
0.00288255
0.00446352
0.0163829
0.00461932
0.0358899
0.00435128
0.00344496
0.00491162
0.00470762
0.0472239
0.005427
0.00338612
0.00445252
0.0036058
0.00412036
0.00459814
0.00442708
0.00457435
0.00417305
0.03315
0.00451968
0.00435494
0.0119036
0.00443851
0.00907666
0.00430027
0.0119592
0.00331444
0.00319762
0.00467883
0.00447612
0.00463415
0.00589446
0.00364225
0.00450217
0.00448811
0.00324209
0.00461544
0.00274964
0.00460565
0.0487709
0.00423651
0.00393575
0.00294629
0.00334686
0.0134781
0.0377682
0.00416011
0.00410949
0.00430532
0.00460774
0.0030342
0.00346303
0.00423647
0.00350281
0.0331452
0.0350419
0.00449123
0.0043419
0.00459654
0.0078714
0.0494024
0.00421776
0.00454433
0.00437169
0.0435031
0.00432521
0.00305892
0.00324957
0.00791705
0.033123
0.00443014
0.00452429
0.0044632
0.005565
0.00434073
0.00832723
0.00319523
0.00409707
0.00483507
0.00684716
0.00463699
0.00467343
0.0713798
0.00440723
0.00354364
0.00339875
0.00577947
0.00729729
0.00403102
0.00359462
0.00421754
0.00443787
0.00449358
0.0284114
0.00300848
0.00389988
0.0042516
0.00450042
0.00651006
0.00425297
0.00447444
0.00421197
0.00429336
0.00318435
0.00313042
0.00574894
0.00567576
0.00401614
0.00524883
0.00429475
0.00964304
0.00426692
0.00445624
0.029028
0.0254686
0.0043829
0.00439019
0.00393266
0.00416182
0.00433688
0.00565199
0.00460603
0.00416429
0.00325698
0.00296002
0.00382101
0.00313369
0.0031902
0.00539598
0.0227232
0.00487602
0.00605302
0.003541
0.00348674
0.00472677
0.00349106
0.00462129
0.00416646
0.0056282
0.00393899
0.00421723
0.00428765
0.00343686
0.0070784
0.0282626
0.00361273
0.00545451
0.00442409
0.00523037
0.0045499
0.0042998
0.00427124
0.003374
0.00424834
0.00452352
0.00419415
0.00459452
0.00440558
0.00620123
0.0224563
0.00427038
0.00424893
0.00399163
0.00691194
0.00445154
0.0154833
0.00429716
0.00901842
0.0327079
0.00442906
0.00317745
0.00465989
0.00300539
0.00525876
0.00316111
0.0248102
0.0036485
0.00427691
0.00463649
0.00371593
0.00321546
0.00408159
0.0617745
0.0043698
0.00408107
0.00463272
0.00374646
0.00420419
0.00318409
0.00455722
0.00440056
0.00440525
0.00379965
0.00486733
0.00456223
0.0033355
0.00437487
0.00512271
0.00321614
0.00407883
0.00391477
0.00540611
0.00292457
0.00408924
0.00372829
0.00359055
0.00713736
0.00301131
0.0118353
0.00446875
0.00334837
0.00449218
0.00442704
0.00690221
0.00435676
0.00348674
0.0032879
0.00432315
0.0041635
0.00413363
0.00424805
0.00458563
0.0699541
0.00625994
0.0474818
0.00413563
0.00397705
0.0071213
0.00718834
0.00448863
0.00345043
0.00369495
0.00289382
0.00452793
0.00333866
0.0326066
0.00454909
0.00922174
0.00351649
0.00466615
0.00890674
0.00437941
0.00424156
0.00422232
0.00337353
0.00436632
0.00320552
0.00457161
0.00301508
0.00430211
0.00296733
0.00357206
0.0220107
0.00410642
0.0042918
0.0216002
0.0121114
0.00446152
0.00320709
0.00385374
0.00495395
0.00518738
0.00373336
0.0042435
0.00432923
0.00295668
0.00500001
0.00429095
0.0043752
0.00441371
0.00390439
0.00377603
0.00469052
0.00448913
0.0045456
0.0320872
0.0313115
0.00358376
0.00457893
0.00335501
0.00433021
0.00455701
0.00457946
0.00462441
0.00448208
0.00462166
0.00317221
0.00517773
0.0108481
0.00307813
0.00422601
0.00442799
0.00450036
0.00376821
0.0304214
0.00459514
0.00406932
0.00352468
0.0161275
0.0185345
0.00465337
0.00391989
0.00379257
0.00443129
0.00446366
0.010325
0.0042195
0.00456868
0.00430747
0.00848912
0.00399886
0.00390342
0.00455588
0.00409591
0.0064517
0.00374173
0.00456727
0.0030842
0.00526951
0.00485053
0.00408149
0.00464059
0.00428472
0.00234216
0.0030228
0.0046324
0.00460114
0.00419166
0.0046002
0.00433715
0.00459276
0.00633479
0.00344405
0.00881486
0.0150183
0.00654741
0.00455036
0.0510963
0.00466965
0.00429309
0.00518106
0.0044889
0.00441795
0.0044159
0.00305583
0.0116403
0.00392748
0.00441499
0.00314334
0.00442417
0.00468821
0.00434267
0.00438701
0.00428547
0.00449618
0.00455922
0.00435052
0.0643939
0.00437996
0.00425761
0.00435268
0.0178565
0.00429813
0.00450736
0.00500369
0.0614858
0.00426378
0.00451234
0.00297702
0.00333348
0.0046504
0.00454001
0.00418519
0.00400808
0.00734649
0.00459969
0.0117347
0.00296896
0.0227273
0.00299681
0.00458065
0.00325794
0.0056413
0.00444195
0.00449961
0.0044852
0.0046086
0.00396587
0.00946264
0.00426278
0.00557102
0.0591506
0.00507659
0.00393782
0.00559203
0.00466318
0.00456091
0.00315016
0.00278213
0.0032914
0.00439662
0.0272985
0.0043085
0.00329475
0.00431647
0.00314802
0.00312435
0.00328471
0.0035298
0.00419822
0.00452748
0.0489109
0.00457533
0.0720695
0.00418729
0.0030245
0.00421718
0.004211
0.0666942
0.00438258
0.00460333
0.00352411
0.00842533
0.00810011
0.00354562
0.00325885
0.00332231
0.0109505
0.0439049
0.00451995
0.00423362
0.0728511
0.0043979
0.00546265
0.00449642
0.0135856
0.003015
0.00616692
0.00460504
0.00342674
0.00464504
0.00440548
0.00406002
0.00258833
0.00426998
0.00446083
0.00434338
0.00457014
0.00437021
0.00458953
0.00446357
0.00418257
0.00635584
0.00364471
0.00386674
0.00461053
0.00793614
0.00299135
0.00459941
0.0046653
0.00408803
0.00666329
0.0490587
0.00397027
0.00338994
0.00410322
0.00434839
0.0030783
0.00432541
0.00425328
0.00903463
0.00455431
0.0687753
0.00853201
0.0302668
0.00455277
0.00456178
0.00397261
0.0438741
0.00336394
0.00313178
0.00467578
0.00305903
0.0198693
0.00456334
0.00402829
0.00850502
0.00393885
0.0297046
0.0036639
0.00445439
0.00433118
0.00410681
0.00422619
0.00673947
0.00293428
0.0119266
0.0496443
0.00460172
0.00302566
0.00386184
0.0051426
0.0134593
0.00433083
0.00439313
0.00406477
0.0031403
0.00454484
0.00465935
0.00467891
0.00661617
0.00412257
0.00460922
0.00371484
0.00608956
0.00321542
0.00452548
0.0082691
0.00411759
0.00407659
0.00399916
0.00455649
0.00431175
0.00447974
0.0144103
0.00444012
0.00820082
0.00399838
0.00347226
0.00450711
0.00417847
0.00450354
0.00437729
0.00340355
0.0198486
0.0076298
0.0546368
0.00914588
0.0452242
0.00420492
0.00433508
0.00251293
0.00462894
0.00325255
0.0117456
0.0043049
0.00483487
0.00388578
0.0362239
0.00419163
0.00318999
0.0045505
0.0496282
0.00469519
0.0347141
0.00416845
0.00465521
0.0049416
0.00978136
0.00417321
0.00537289
0.00535889
0.0044104
0.0183444
0.00558629
0.0239016
0.00346352
0.00240474
0.0124134
0.00461219
0.00461049
0.00371788
0.00472943
0.00344334
0.00331672
0.00328305
0.00390592
0.00322165
0.0533934
0.0043756
0.00433027
0.00421312
0.00457461
0.00293631
0.00340467
0.00424177
0.00332207
0.042644
0.00454481
0.0563372
0.00752884
0.00449768
0.00492074
0.0038887
0.00323099
0.003174
0.0233111
0.00442175
0.00452624
0.0499157
0.00437519
0.00458634
0.00355633
0.004544
0.00452233
0.0384627
0.00454123
0.033126
0.00397575
0.00390767
0.00429021
0.00430353
0.00702723
0.00324918
0.0118385
0.00444492
0.00294869
0.00532624
0.00306685
0.00304477
0.00528019
0.00516104
0.00424149
0.00863847
0.0131709
0.00406666
0.00432257
0.00350212
0.00381072
0.00467392
0.00353688
0.0491001
0.00425612
0.00468962
0.00450539
0.00404327
0.00279638
0.00321355
0.00339259
0.0806585
0.00466121
0.0058782
0.00555677
0.00457614
0.00393153
0.00424639
0.00425644
0.0600905
0.0045328
0.0174878
0.0241678
0.00456616
0.00449527
0.00465689
0.0319287
0.0288081
0.0219469
0.00335103
0.00456765
0.004297
0.00326701
0.0386134
0.00655948
0.00306707
0.00434214
0.0061622
0.00786254
0.00550483
0.00416153
0.0130745
0.0282895
0.00405191
0.00382621
0.00430828
0.0043632
0.0308853
0.0032022
0.00369956
0.00460033
0.00468324
0.00411586
0.0486731
0.00333652
0.00297585
0.00813202
0.00631789
0.0043713
0.0145397
0.00556155
0.00462187
0.00303876
0.00374207
0.00412789
0.0521764
0.00453468
0.0044255
0.00425667
0.00548949
0.00309546
0.0043557
0.00544756
0.00461485
0.00456098
0.00468819
0.00329354
0.00442872
0.00679841
0.00422311
0.00455854
0.0492845
0.00426702
0.00351224
0.00355083
0.00425049
0.0035174
0.00536149
0.00452853
0.00456624
0.00448537
0.00304013
0.00449653
0.00428976
0.0044168
0.00365545
0.00653904
0.00313581
0.00558805
0.00430351
0.00565381
0.00419704
0.00467568
0.00434967
0.00458674
0.00315673
0.00414009
0.00326177
0.00412138
0.0042112
0.00450776
0.00451045
0.030069
0.00546833
0.0148279
0.00468828
0.00290926
0.06783
0.0031834
0.00300763
0.00439632
0.00548855
0.0105734
0.00496308
0.00318577
0.00495028
0.00377705
0.00302877
0.00450118
0.068508
0.00308471
0.00415021
0.0041029
0.00402667
0.00361107
0.00279536
0.00447652
0.00305351
0.0557907
0.0221125
0.00448664
0.00432916
0.00828763
0.0206253
0.00401634
0.00455121
0.00426913
0.00462953
0.00442421
0.00456559
0.00440141
0.00464789
0.0129976
0.00239987