/*--------------------------------*- C++ -*----------------------------------*\
| =========                 |                                                 |
| \\      /  F ield         | OpenFOAM: The Open Source CFD Toolbox           |
|  \\    /   O peration     | Version:  3.0.1                                 |
|   \\  /    A nd           | Web:      www.OpenFOAM.org                      |
|    \\/     M anipulation  |                                                 |
\*---------------------------------------------------------------------------*/
FoamFile
{
    version     2.0;
    format      ascii;
    class       surfaceScalarField;
    location    "0.782842";
    object      phi;
}
// * * * * * * * * * * * * * * * * * * * * * * * * * * * * * * * * * * * * * //

dimensions      [0 3 -1 0 0 0 0];

internalField   nonuniform List<scalar> 
32369
(
2.50896e-06
7.95882e-06
-1.04678e-05
3.64881e-06
8.83015e-06
-9.97e-06
3.05219e-06
1.17377e-05
-1.11411e-05
1.31738e-06
1.45712e-05
-1.28364e-05
-1.26367e-06
1.72758e-05
-1.46948e-05
-4.51721e-06
1.99923e-05
-1.67387e-05
-8.23394e-06
2.30402e-05
-1.93235e-05
-1.22851e-05
2.68598e-05
-2.28086e-05
-1.68485e-05
3.22178e-05
-2.76544e-05
-2.21731e-05
3.97117e-05
-3.43871e-05
5.00921e-05
-4.37092e-05
-2.85559e-05
3.63847e-06
4.32035e-06
5.74048e-06
6.72814e-06
7.01014e-06
1.0468e-05
7.30833e-06
1.4273e-05
6.41655e-06
1.81676e-05
4.26297e-06
2.21459e-05
1.08344e-06
2.62198e-05
-2.76777e-06
3.0711e-05
-7.12764e-06
3.65777e-05
-1.2121e-05
4.4705e-05
5.60561e-05
-1.8085e-05
2.46037e-06
1.85999e-06
4.30677e-06
4.88174e-06
6.0435e-06
8.73129e-06
7.32914e-06
1.29874e-05
7.83525e-06
1.76615e-05
7.25048e-06
2.27306e-05
5.55803e-06
2.79122e-05
2.94869e-06
3.33203e-05
-2.42225e-07
3.97686e-05
-3.88181e-06
4.83446e-05
6.02476e-05
-8.07329e-06
1.43435e-06
4.25634e-07
2.93869e-06
3.37741e-06
4.61934e-06
7.05063e-06
6.18907e-06
1.14176e-05
7.33785e-06
1.65127e-05
7.86037e-06
2.22081e-05
7.54415e-06
2.82284e-05
6.38657e-06
3.44779e-05
4.63155e-06
4.15236e-05
2.54299e-06
5.04332e-05
6.25355e-05
2.55083e-07
6.4216e-07
-2.16526e-07
1.81269e-06
2.20687e-06
3.26132e-06
5.602e-06
4.79015e-06
9.88881e-06
6.23328e-06
1.50696e-05
7.39859e-06
2.10428e-05
8.07058e-06
2.75564e-05
8.13573e-06
3.44127e-05
7.72707e-06
4.19323e-05
7.08972e-06
5.10705e-05
6.3172e-05
6.45316e-06
4.77638e-08
-2.64289e-07
8.47749e-07
1.40689e-06
2.03673e-06
4.41302e-06
3.4506e-06
8.47495e-06
4.97002e-06
1.35502e-05
6.46278e-06
1.955e-05
7.76219e-06
2.6257e-05
8.74067e-06
3.34343e-05
9.41781e-06
4.12551e-05
9.96439e-06
5.05239e-05
6.2516e-05
1.06204e-05
-2.13331e-07
-5.09579e-08
1.15675e-07
1.07788e-06
9.81555e-07
3.54714e-06
2.18625e-06
7.27026e-06
3.6383e-06
1.20981e-05
5.25566e-06
1.79327e-05
6.92532e-06
2.45874e-05
8.52888e-06
3.18307e-05
1.00222e-05
3.97618e-05
1.14917e-05
4.90544e-05
6.08974e-05
1.31104e-05
-2.96525e-07
2.45568e-07
-3.55827e-07
1.13718e-06
1.18487e-07
3.07283e-06
1.0718e-06
6.31695e-06
2.34748e-06
1.08225e-05
3.94661e-06
1.63335e-05
5.80135e-06
2.27326e-05
7.81286e-06
2.98192e-05
9.90237e-06
3.76723e-05
1.21036e-05
4.68531e-05
5.84429e-05
1.45581e-05
-3.06013e-07
5.51581e-07
-5.00506e-07
1.33168e-06
-3.86041e-07
2.95836e-06
2.61675e-07
5.66923e-06
1.33713e-06
9.74701e-06
2.8393e-06
1.48314e-05
4.75128e-06
2.08207e-05
6.99419e-06
2.75763e-05
9.48236e-06
3.51841e-05
1.21572e-05
4.41783e-05
5.55155e-05
1.50846e-05
-2.72569e-07
8.2415e-07
-4.97443e-07
1.55655e-06
-5.37931e-07
2.99885e-06
-1.48024e-07
5.27933e-06
7.48109e-07
8.85087e-06
2.1377e-06
1.34418e-05
4.0334e-06
1.8925e-05
6.37851e-06
2.52312e-05
9.07243e-06
3.24902e-05
1.20526e-05
4.11981e-05
5.2235e-05
1.53331e-05
-2.13797e-07
1.03795e-06
-4.1902e-07
1.76177e-06
-4.96739e-07
3.07657e-06
-2.55766e-07
5.03835e-06
4.84999e-07
8.11011e-06
1.77239e-06
1.21544e-05
3.62589e-06
1.70715e-05
5.99859e-06
2.28585e-05
8.79899e-06
2.96898e-05
1.19486e-05
3.80485e-05
4.86912e-05
1.54924e-05
-1.5637e-07
1.19432e-06
-3.23887e-07
1.92929e-06
-3.78445e-07
3.13113e-06
-1.88363e-07
4.84827e-06
4.60669e-07
7.46108e-06
1.67452e-06
1.09405e-05
3.47757e-06
1.52684e-05
5.84438e-06
2.04917e-05
8.69524e-06
2.6839e-05
1.19542e-05
3.47895e-05
4.50776e-05
1.55678e-05
-8.38112e-08
1.27813e-06
-1.81983e-07
2.02746e-06
-1.59449e-07
3.10859e-06
6.61433e-08
4.62268e-06
7.06261e-07
6.82096e-06
1.88103e-06
9.76575e-06
3.64149e-06
1.3508e-05
5.97832e-06
1.81548e-05
8.84754e-06
2.39697e-05
1.21895e-05
3.14476e-05
4.13036e-05
1.59635e-05
1.03747e-08
1.26775e-06
8.03913e-09
2.0298e-06
1.38307e-07
2.97832e-06
4.56393e-07
4.30459e-06
1.14107e-06
6.13629e-06
2.3146e-06
8.59221e-06
4.05324e-06
1.17693e-05
6.37566e-06
1.58324e-05
9.25735e-06
2.10881e-05
1.26471e-05
2.80578e-05
3.74689e-05
1.64819e-05
8.2975e-08
1.18478e-06
1.6074e-07
1.95203e-06
3.94794e-07
2.74427e-06
8.12645e-07
3.88674e-06
1.55882e-06
5.39011e-06
2.75771e-06
7.39332e-06
4.50358e-06
1.00234e-05
6.84918e-06
1.34868e-05
9.79306e-06
1.81442e-05
1.32815e-05
2.45694e-05
3.34966e-05
1.72537e-05
1.50674e-07
1.03411e-06
3.04272e-07
1.79843e-06
6.28071e-07
2.42047e-06
1.13659e-06
3.37822e-06
1.94744e-06
4.57926e-06
3.19076e-06
6.15e-06
4.98612e-06
8.22809e-06
7.41233e-06
1.10606e-05
1.04798e-05
1.50767e-05
1.415e-05
2.08991e-05
2.92783e-05
1.83684e-05
2.1689e-07
8.17215e-07
4.35434e-07
1.57989e-06
8.20517e-07
2.03539e-06
1.38804e-06
2.8107e-06
2.24888e-06
3.71842e-06
3.54988e-06
4.849e-06
5.44467e-06
6.33331e-06
8.03567e-06
8.46961e-06
1.13302e-05
1.17822e-05
1.52337e-05
1.69957e-05
2.49299e-05
1.95821e-05
2.49457e-07
5.67758e-07
4.90154e-07
1.33919e-06
8.86832e-07
1.63871e-06
1.45423e-06
2.2433e-06
2.32429e-06
2.84836e-06
3.69437e-06
3.47892e-06
5.76845e-06
4.25922e-06
8.64735e-06
5.59072e-06
1.22906e-05
8.13892e-06
1.65449e-05
1.27413e-05
2.02052e-05
2.12696e-05
2.46693e-07
3.21065e-07
4.64023e-07
1.12186e-06
7.91575e-07
1.31116e-06
1.25537e-06
1.77951e-06
2.08095e-06
2.02278e-06
3.55824e-06
2.00163e-06
5.9541e-06
1.86336e-06
9.30148e-06
2.24333e-06
1.34431e-05
3.99733e-06
1.81688e-05
8.01562e-06
1.50793e-05
2.32947e-05
1.96737e-07
1.24328e-07
2.71041e-07
1.04756e-06
3.02485e-07
1.27971e-06
4.85074e-07
1.59692e-06
1.31714e-06
1.19071e-06
3.22587e-06
9.29016e-08
6.24519e-06
-1.15596e-06
1.0197e-05
-1.70851e-06
1.48921e-05
-6.97781e-07
2.00925e-05
2.81531e-06
9.58543e-06
2.55864e-05
-1.76958e-07
3.01287e-07
-5.30778e-07
1.40138e-06
-8.3134e-07
1.58028e-06
-1.0526e-07
8.70836e-07
1.95057e-06
-8.65113e-07
5.07198e-06
-3.02852e-06
8.75047e-06
-4.83445e-06
1.29105e-05
-5.86853e-06
1.75515e-05
-5.33879e-06
2.26749e-05
-2.30811e-06
3.90304e-06
2.83573e-05
-1.15455e-06
1.45584e-06
-9.42701e-07
1.18953e-06
4.75651e-07
1.61923e-07
3.23783e-06
-1.89134e-06
6.38178e-06
-4.00906e-06
9.53259e-06
-6.17933e-06
1.29121e-05
-8.21391e-06
1.67149e-05
-9.67136e-06
2.11254e-05
-9.74927e-06
2.61088e-05
-7.29153e-06
-1.53778e-06
3.15496e-05
5.0385e-07
9.5199e-07
2.99174e-06
-1.29836e-06
5.81065e-06
-2.65699e-06
8.38591e-06
-4.46659e-06
1.08499e-05
-6.47303e-06
1.32524e-05
-8.58181e-06
1.57559e-05
-1.07174e-05
1.87096e-05
-1.26251e-05
2.26176e-05
-1.36573e-05
2.78083e-05
-1.24822e-05
-7.6735e-06
3.3944e-05
5.51474e-06
-4.56275e-06
7.92497e-06
-3.70859e-06
1.00651e-05
-4.79709e-06
1.17853e-05
-6.18681e-06
1.31248e-05
-7.81259e-06
1.42671e-05
-9.72407e-06
1.54427e-05
-1.1893e-05
1.7017e-05
-1.41994e-05
1.95981e-05
-1.62384e-05
2.40922e-05
-1.69762e-05
-1.46546e-05
3.10733e-05
-4.72067e-06
-5.74711e-06
-7.66999e-06
-7.02068e-06
-1.00784e-05
-8.73261e-06
-1.23873e-05
-1.05276e-05
-1.47754e-05
-1.23067e-05
-1.73784e-05
-1.41357e-05
-2.03948e-05
-1.6307e-05
-2.39715e-05
-1.9232e-05
-2.82615e-05
-2.33644e-05
-3.34187e-05
-2.92299e-05
-3.75347e-05
-3.95932e-05
-3.20876e-06
-2.53835e-06
-6.09474e-06
-4.13471e-06
-8.81805e-06
-6.0093e-06
-1.1463e-05
-7.8826e-06
-1.41563e-05
-9.61341e-06
-1.71185e-05
-1.11736e-05
-2.06191e-05
-1.28064e-05
-2.48864e-05
-1.49647e-05
-3.01236e-05
-1.81272e-05
-3.65599e-05
-2.27935e-05
-2.95965e-05
-4.44981e-05
-9.31469e-07
-1.60688e-06
-2.51352e-06
-2.55265e-06
-4.62461e-06
-3.89821e-06
-7.13427e-06
-5.37294e-06
-1.00064e-05
-6.74127e-06
-1.33635e-05
-7.81651e-06
-1.7434e-05
-8.73579e-06
-2.24333e-05
-9.96546e-06
-2.8557e-05
-1.20035e-05
-3.6046e-05
-1.53046e-05
-2.04589e-05
-4.51836e-05
3.57714e-08
-1.64265e-06
-4.62126e-07
-2.05475e-06
-1.5437e-06
-2.81663e-06
-3.25996e-06
-3.65668e-06
-5.60921e-06
-4.39202e-06
-8.71382e-06
-4.7119e-06
-1.28426e-05
-4.60696e-06
-1.82048e-05
-4.60326e-06
-2.48601e-05
-5.34825e-06
-3.29789e-05
-7.18579e-06
-1.03344e-05
-4.31034e-05
2.21533e-07
-1.86419e-06
2.48055e-07
-2.08128e-06
-1.53306e-08
-2.55325e-06
-7.68773e-07
-2.90324e-06
-2.10981e-06
-3.05099e-06
-4.2206e-06
-2.60111e-06
-7.52596e-06
-1.3016e-06
-1.25621e-05
4.32855e-07
-1.93182e-05
1.40783e-06
-2.76357e-05
1.13177e-06
-4.16252e-07
-3.75539e-05
2.32246e-07
-2.09643e-06
4.08514e-07
-2.25754e-06
5.07792e-07
-2.65253e-06
3.68121e-07
-2.76357e-06
-1.3542e-07
-2.54745e-06
-1.13585e-06
-1.60068e-06
-2.98033e-06
5.42882e-07
-6.57235e-06
4.02487e-06
-1.26424e-05
7.47792e-06
-2.08286e-05
9.31793e-06
9.61892e-06
-3.08638e-05
2.22375e-07
-2.31881e-06
4.61407e-07
-2.49657e-06
7.03342e-07
-2.89446e-06
8.45855e-07
-2.90608e-06
7.88403e-07
-2.49e-06
4.06333e-07
-1.21861e-06
-5.44688e-07
1.4939e-06
-2.64198e-06
6.12216e-06
-7.09112e-06
1.19271e-05
-1.43123e-05
1.65391e-05
1.88968e-05
-2.35902e-05
2.1684e-07
-2.53565e-06
4.93595e-07
-2.77333e-06
8.0167e-07
-3.20254e-06
1.09027e-06
-3.19469e-06
1.31731e-06
-2.71703e-06
1.37753e-06
-1.27884e-06
1.0839e-06
1.78754e-06
1.05889e-07
7.10017e-06
-2.58976e-06
1.46227e-05
-8.26264e-06
2.2212e-05
2.72494e-05
-1.66152e-05
2.0827e-07
-2.74392e-06
4.86543e-07
-3.0516e-06
8.10255e-07
-3.52625e-06
1.15782e-06
-3.54225e-06
1.5343e-06
-3.09351e-06
1.90362e-06
-1.64815e-06
2.14029e-06
1.55086e-06
1.94329e-06
7.29718e-06
6.81361e-07
1.58846e-05
-2.99868e-06
2.5892e-05
3.4005e-05
-9.75428e-06
1.60394e-07
-2.90431e-06
4.29676e-07
-3.32088e-06
7.42039e-07
-3.83861e-06
1.07909e-06
-3.8793e-06
1.49173e-06
-3.50616e-06
1.99918e-06
-2.1556e-06
2.58006e-06
9.69985e-07
3.00691e-06
6.87033e-06
2.78788e-06
1.61037e-05
8.8039e-07
2.77995e-05
3.90065e-05
-4.12114e-06
1.19371e-07
-3.02368e-06
4.2139e-07
-3.6229e-06
5.60835e-07
-3.97806e-06
8.49412e-07
-4.16788e-06
1.21072e-06
-3.86746e-06
1.70031e-06
-2.64519e-06
2.4087e-06
2.61596e-07
3.26047e-06
6.01857e-06
3.8554e-06
1.55087e-05
3.41025e-06
2.82447e-05
4.17092e-05
7.07589e-07
7.06803e-08
-3.09436e-06
2.08527e-07
-3.76075e-06
3.51603e-07
-4.12113e-06
5.2463e-07
-4.34091e-06
7.38538e-07
-4.08137e-06
1.05877e-06
-2.96543e-06
1.63618e-06
-3.15812e-07
2.63572e-06
5.01903e-06
3.80811e-06
1.43363e-05
4.48799e-06
2.75648e-05
4.21183e-05
4.07887e-06
4.47992e-09
-3.09884e-06
5.57643e-08
-3.81203e-06
8.92591e-08
-4.15463e-06
1.0377e-07
-4.35542e-06
1.27845e-07
-4.10545e-06
1.94138e-07
-3.03172e-06
4.25369e-07
-5.47043e-07
1.13682e-06
4.30758e-06
2.57759e-06
1.28956e-05
4.18893e-06
2.59534e-05
4.17353e-05
4.57195e-06
-9.03629e-08
-3.00848e-06
-1.59269e-07
-3.74313e-06
-2.71278e-07
-4.04262e-06
-4.3318e-07
-4.19352e-06
-6.38043e-07
-3.90058e-06
-8.63594e-07
-2.80617e-06
-1.0295e-06
-3.81136e-07
-8.71294e-07
4.14937e-06
1.7116e-07
1.18531e-05
2.201e-06
2.39236e-05
3.97537e-05
4.18261e-06
-1.76734e-07
-2.83175e-06
-3.80764e-07
-3.5391e-06
-6.66077e-07
-3.7573e-06
-1.04789e-06
-3.8117e-06
-1.53354e-06
-3.41493e-06
-2.11097e-06
-2.22874e-06
-2.72644e-06
2.34334e-07
-3.13918e-06
4.56211e-06
-2.78102e-06
1.1495e-05
-9.66286e-07
2.21089e-05
3.70495e-05
1.73786e-06
-2.6979e-07
-2.56196e-06
-6.28283e-07
-3.1806e-06
-1.10907e-06
-3.27652e-06
-1.74639e-06
-3.17438e-06
-2.5638e-06
-2.59753e-06
-3.5682e-06
-1.22435e-06
-4.69699e-06
1.36312e-06
-5.63608e-06
5.5012e-06
-5.88612e-06
1.1745e-05
-4.72125e-06
2.0944e-05
3.36341e-05
-1.30584e-06
-3.72373e-07
-2.18958e-06
-9.0213e-07
-2.65085e-06
-1.60284e-06
-2.5758e-06
-2.53722e-06
-2.24e-06
-3.75034e-06
-1.38441e-06
-5.27006e-06
2.95376e-07
-6.89918e-06
2.99224e-06
-8.32509e-06
6.92711e-06
-9.20815e-06
1.26281e-05
-8.97601e-06
2.07119e-05
3.17279e-05
-7.06981e-06
-4.79393e-07
-1.71019e-06
-1.18875e-06
-1.94149e-06
-2.13657e-06
-1.62799e-06
-3.42002e-06
-9.56555e-07
-5.08345e-06
2.79023e-07
-6.99169e-06
2.20362e-06
-8.94233e-06
4.94288e-06
-1.08273e-05
8.81211e-06
-1.23515e-05
1.41522e-05
-1.29305e-05
2.12909e-05
3.03314e-05
-1.1534e-05
-5.91126e-07
-1.11906e-06
-1.47077e-06
-1.06184e-06
-2.6569e-06
-4.41857e-07
-4.19918e-06
5.85723e-07
-6.05626e-06
2.13611e-06
-8.14014e-06
4.2875e-06
-1.04334e-05
7.2361e-06
-1.28016e-05
1.11803e-05
-1.49787e-05
1.63293e-05
-1.65483e-05
2.28605e-05
3.07551e-05
-1.6972e-05
-6.55169e-07
-4.63895e-07
-1.62636e-06
-9.06514e-08
-2.85429e-06
7.86074e-07
-4.39116e-06
2.12259e-06
-6.27092e-06
4.01587e-06
-8.51139e-06
6.52797e-06
-1.10182e-05
9.74288e-06
-1.36354e-05
1.37976e-05
-1.61466e-05
1.88405e-05
-1.83063e-05
2.50202e-05
3.21121e-05
-1.96633e-05
-6.37717e-07
1.73822e-07
-1.52468e-06
7.96308e-07
-2.65425e-06
1.91565e-06
-4.12827e-06
3.5966e-06
-5.97611e-06
5.86372e-06
-8.12169e-06
8.67355e-06
-1.04206e-05
1.20418e-05
-1.27299e-05
1.61068e-05
-1.48761e-05
2.09867e-05
-1.66014e-05
2.67454e-05
3.32088e-05
-1.76981e-05
-5.87866e-07
7.61688e-07
-1.38446e-06
1.5929e-06
-2.47156e-06
3.00275e-06
-3.85616e-06
4.9812e-06
-5.41928e-06
7.42684e-06
-7.00822e-06
1.02625e-05
-8.48063e-06
1.35142e-05
-9.68027e-06
1.73065e-05
-1.03841e-05
2.16905e-05
-1.00364e-05
2.63978e-05
3.04895e-05
-7.3171e-06
-8.15244e-07
1.57693e-06
-1.7257e-06
2.50336e-06
-2.87796e-06
4.15501e-06
-3.98169e-06
6.08493e-06
-4.84204e-06
8.28718e-06
-5.34376e-06
1.07642e-05
-5.40549e-06
1.35759e-05
-4.88471e-06
1.67857e-05
-3.44182e-06
2.02476e-05
-2.63336e-07
2.32193e-05
2.4082e-05
6.14411e-06
-2.98582e-06
-4.19105e-06
-4.83313e-06
-4.93502e-06
-4.46042e-06
-3.42028e-06
-1.73738e-06
8.4892e-07
4.85813e-06
1.11012e-05
2.05286e-05
-1.30357e-05
-9.32385e-06
2.23596e-05
-2.10938e-05
-1.11734e-05
1.92315e-05
-2.79143e-05
-1.35253e-05
2.03458e-05
-3.38649e-05
-1.56135e-05
2.15641e-05
-3.9391e-05
-1.73439e-05
2.287e-05
-4.49031e-05
-1.87656e-05
2.42777e-05
-5.08418e-05
-1.98707e-05
2.58093e-05
-5.75769e-05
-2.06292e-05
2.73643e-05
-6.54158e-05
-2.09538e-05
2.87927e-05
-7.46843e-05
-2.06581e-05
2.99266e-05
-1.93945e-05
3.05143e-05
-8.58041e-05
-9.08036e-06
-2.43486e-07
-1.67735e-05
-3.48032e-06
-2.38308e-05
-6.46805e-06
-3.03793e-05
-9.06499e-06
-3.65675e-05
-1.11557e-05
-4.27217e-05
-1.26113e-05
-4.9248e-05
-1.33444e-05
-5.65804e-05
-1.32968e-05
-6.51477e-05
-1.23866e-05
-7.53864e-05
-1.04194e-05
-7.0766e-06
-8.77042e-05
-4.2126e-06
3.96912e-06
-9.53909e-06
1.84617e-06
-1.59053e-05
-1.01814e-07
-2.25843e-05
-2.38606e-06
-2.94183e-05
-4.32161e-06
-3.6475e-05
-5.55464e-06
-4.39893e-05
-5.83003e-06
-5.22757e-05
-5.01039e-06
-6.16997e-05
-2.96258e-06
-7.26684e-05
5.49228e-07
5.97873e-06
-8.57237e-05
-1.5801e-06
5.54922e-06
-4.66184e-06
4.92791e-06
-9.35501e-06
4.59135e-06
-1.52406e-05
3.49951e-06
-2.20139e-05
2.45174e-06
-2.94172e-05
1.84862e-06
-3.73914e-05
2.14415e-06
-4.61282e-05
3.72645e-06
-5.59955e-05
6.90473e-06
-6.74367e-05
1.19904e-05
1.94113e-05
-8.08692e-05
-1.41485e-06
6.96407e-06
-3.62201e-06
7.13507e-06
-6.82282e-06
7.79216e-06
-1.12499e-05
7.92655e-06
-1.69271e-05
8.12894e-06
-2.37403e-05
8.66188e-06
-3.15667e-05
9.97049e-06
-4.03786e-05
1.25384e-05
-5.03098e-05
1.68359e-05
-6.16449e-05
2.33255e-05
3.26006e-05
-7.48343e-05
-1.22624e-06
8.19031e-06
-3.23277e-06
9.14161e-06
-5.82092e-06
1.03803e-05
-9.38664e-06
1.14923e-05
-1.40771e-05
1.28194e-05
-1.99472e-05
1.4532e-05
-2.69925e-05
1.70158e-05
-3.52032e-05
2.07491e-05
-4.46436e-05
2.62763e-05
-5.55061e-05
3.4188e-05
4.5246e-05
-6.81514e-05
-1.10985e-06
9.30016e-06
-2.78792e-06
1.08197e-05
-5.04476e-06
1.26371e-05
-8.07243e-06
1.45199e-05
-1.20323e-05
1.67793e-05
-1.70686e-05
1.95683e-05
-2.32688e-05
2.32159e-05
-3.06882e-05
2.81686e-05
-3.94044e-05
3.49926e-05
-4.95524e-05
4.4336e-05
5.69976e-05
-6.13041e-05
-1.06269e-06
1.03628e-05
-2.59259e-06
1.23496e-05
-4.57008e-06
1.46146e-05
-7.18864e-06
1.71385e-05
-1.05908e-05
2.01815e-05
-1.49352e-05
2.39127e-05
-2.03498e-05
2.86305e-05
-2.69445e-05
3.47632e-05
-3.48233e-05
4.28714e-05
-4.41371e-05
5.36497e-05
6.79829e-05
-5.51224e-05
-9.86405e-07
1.13493e-05
-2.37756e-06
1.37407e-05
-4.14946e-06
1.63865e-05
-6.44828e-06
1.94373e-05
-9.4113e-06
2.31445e-05
-1.31856e-05
2.76869e-05
-1.79163e-05
3.33613e-05
-2.37413e-05
4.05882e-05
-3.07922e-05
4.99223e-05
-3.92411e-05
6.20987e-05
7.80696e-05
-4.93278e-05
-7.93256e-07
1.21425e-05
-1.98559e-06
1.49331e-05
-3.53874e-06
1.79397e-05
-5.55695e-06
2.14555e-05
-8.1478e-06
2.57354e-05
-1.14524e-05
3.09916e-05
-1.56067e-05
3.75156e-05
-2.07601e-05
4.57415e-05
-2.70633e-05
5.62256e-05
-3.4691e-05
6.97264e-05
8.72103e-05
-4.38317e-05
-6.24453e-07
1.2767e-05
-1.63928e-06
1.59479e-05
-2.97384e-06
1.92743e-05
-4.71629e-06
2.3198e-05
-6.96884e-06
2.79879e-05
-9.84306e-06
3.38658e-05
-1.34751e-05
4.11476e-05
-1.8001e-05
5.02674e-05
-2.35808e-05
6.18053e-05
-3.03817e-05
7.65273e-05
9.54274e-05
-3.85988e-05
-5.94501e-07
1.33615e-05
-1.49097e-06
1.68444e-05
-2.63656e-06
2.04198e-05
-4.12772e-06
2.46891e-05
-6.04686e-06
2.9907e-05
-8.501e-06
3.63199e-05
-1.16151e-05
4.42617e-05
-1.55168e-05
5.41691e-05
-2.03567e-05
6.66452e-05
-2.63048e-05
8.24755e-05
0.000102686
-3.35637e-05
-4.85216e-07
1.38467e-05
-1.23028e-06
1.75894e-05
-2.18397e-06
2.13735e-05
-3.42311e-06
2.59283e-05
-5.02065e-06
3.15046e-05
-7.07089e-06
3.83702e-05
-9.68302e-06
4.68738e-05
-1.29807e-05
5.74668e-05
-1.71007e-05
7.07652e-05
-2.22155e-05
8.75903e-05
0.000109011
-2.85403e-05
-2.66934e-07
1.41136e-05
-7.71655e-07
1.80941e-05
-1.47932e-06
2.20812e-05
-2.44232e-06
2.68913e-05
-3.70807e-06
3.27703e-05
-5.35657e-06
4.00187e-05
-7.47818e-06
4.89954e-05
-1.01785e-05
6.01671e-05
-1.35788e-05
7.41655e-05
-1.78208e-05
9.18323e-05
0.000114251
-2.30609e-05
-1.79534e-07
1.42931e-05
-5.1943e-07
1.8434e-05
-9.98438e-07
2.25602e-05
-1.66332e-06
2.75562e-05
-2.55696e-06
3.3664e-05
-3.75087e-06
4.12126e-05
-5.31533e-06
5.05599e-05
-7.33914e-06
6.21909e-05
-9.9136e-06
7.67399e-05
-1.31618e-05
9.50805e-05
0.000118325
-1.72355e-05
-4.87984e-08
1.43419e-05
-1.75677e-07
1.85609e-05
-3.88449e-07
2.2773e-05
-7.19969e-07
2.78877e-05
-1.21004e-06
3.4154e-05
-1.90352e-06
4.19061e-05
-2.85889e-06
5.15153e-05
-4.13591e-06
6.34679e-05
-5.79012e-06
7.83941e-05
-7.91201e-06
9.72024e-05
0.000121027
-1.06137e-05
2.0934e-07
1.41326e-05
3.952e-07
1.83751e-05
5.18464e-07
2.26497e-05
5.678e-07
2.78383e-05
5.39976e-07
3.41819e-05
3.95956e-07
4.20501e-05
1.17259e-07
5.1794e-05
-3.23891e-07
6.39091e-05
-9.55226e-07
7.90255e-05
-1.81032e-06
9.80575e-05
0.000122113
-2.89643e-06
4.03089e-07
1.37295e-05
8.89683e-07
1.78885e-05
1.37672e-06
2.21627e-05
1.87613e-06
2.73389e-05
2.38276e-06
3.36752e-05
2.89303e-06
4.15398e-05
3.41901e-06
5.1268e-05
3.98073e-06
6.33474e-05
4.59849e-06
7.84077e-05
5.29351e-06
9.73625e-05
0.000121363
6.04304e-06
6.3748e-07
1.3092e-05
1.47731e-06
1.70486e-05
2.38269e-06
2.12573e-05
3.38366e-06
2.6338e-05
4.50172e-06
3.25572e-05
5.7766e-06
4.02649e-05
7.26419e-06
4.97804e-05
9.03298e-06
6.15786e-05
1.11579e-05
7.62827e-05
1.37079e-05
9.48125e-05
0.000118343
1.67278e-05
9.19214e-07
1.21728e-05
2.16055e-06
1.58073e-05
3.54499e-06
1.98729e-05
5.12647e-06
2.47565e-05
6.95931e-06
3.07243e-05
9.14112e-06
3.80831e-05
1.17787e-05
4.71428e-05
1.5e-05
5.83572e-05
1.8936e-05
7.23468e-05
2.37409e-05
9.00075e-05
0.000112489
2.95947e-05
1.22975e-06
1.09431e-05
2.89528e-06
1.41418e-05
4.80447e-06
1.79637e-05
7.0336e-06
2.25273e-05
9.69736e-06
2.80606e-05
1.29532e-05
3.48273e-05
1.69712e-05
4.31249e-05
2.1933e-05
5.33953e-05
2.8021e-05
6.62588e-05
3.54771e-05
8.25515e-05
0.00010337
4.45962e-05
1.42593e-06
9.51714e-06
3.5114e-06
1.20563e-05
5.95982e-06
1.55152e-05
8.90519e-06
1.9582e-05
1.25384e-05
2.44274e-05
1.70675e-05
3.02981e-05
2.27035e-05
3.74889e-05
2.96583e-05
4.64405e-05
3.8187e-05
5.77301e-05
4.86281e-05
7.21103e-05
9.06248e-05
6.13736e-05
1.48889e-06
8.02825e-06
4.05341e-06
9.49178e-06
6.88916e-06
1.26795e-05
1.05821e-05
1.5889e-05
1.5293e-05
1.97165e-05
2.1229e-05
2.43622e-05
2.85975e-05
3.01203e-05
3.76602e-05
3.73778e-05
4.87695e-05
4.66208e-05
6.23976e-05
5.84822e-05
7.38912e-05
7.91312e-05
-2.11465e-06
1.01429e-05
7.19498e-07
6.65763e-06
5.16104e-06
8.23794e-06
1.04721e-05
1.0578e-05
1.68745e-05
1.33141e-05
2.45752e-05
1.66614e-05
3.37976e-05
2.0898e-05
4.4936e-05
2.62394e-05
5.85074e-05
3.30494e-05
7.51537e-05
4.18359e-05
5.33691e-05
9.56758e-05
2.99415e-06
1.93654e-05
3.78815e-06
1.84375e-05
-2.43402e-07
2.43774e-05
-7.18066e-06
2.85013e-05
-1.52992e-05
3.09885e-05
-2.36803e-05
3.26589e-05
-3.24301e-05
3.45591e-05
-4.18813e-05
3.68155e-05
-5.23117e-05
3.92231e-05
-6.3996e-05
4.16109e-05
4.37715e-05
-7.72531e-05
7.85405e-06
1.15114e-05
1.10478e-05
1.52438e-05
1.11462e-05
2.4279e-05
8.19576e-06
3.14518e-05
2.03885e-06
3.71454e-05
-6.48164e-06
4.11794e-05
-1.61149e-05
4.41923e-05
-2.6707e-05
4.74076e-05
-3.84135e-05
5.09297e-05
-5.14853e-05
5.46826e-05
5.85611e-05
-6.62749e-05
5.03349e-06
6.4779e-06
7.75254e-06
1.25247e-05
9.87644e-06
2.21551e-05
9.99097e-06
3.13372e-05
7.09302e-06
4.00433e-05
1.10118e-06
4.71712e-05
-6.98558e-06
5.22791e-05
-1.64953e-05
5.69174e-05
-2.73446e-05
6.1779e-05
-3.95916e-05
6.69296e-05
7.23251e-05
-5.33555e-05
3.89984e-06
2.57806e-06
5.74878e-06
1.06758e-05
7.80185e-06
2.0102e-05
8.82644e-06
3.03126e-05
7.85805e-06
4.10117e-05
4.39237e-06
5.06369e-05
-1.43072e-06
5.81022e-05
-8.97582e-06
6.44625e-05
-1.80271e-05
7.08302e-05
-2.84965e-05
7.73991e-05
8.42897e-05
-4.04612e-05
2.63282e-06
-5.47637e-08
4.67983e-06
8.62876e-06
6.66917e-06
1.81127e-05
7.82721e-06
2.91546e-05
7.70159e-06
4.11373e-05
5.84429e-06
5.24942e-05
2.04576e-06
6.19007e-05
-3.46802e-06
6.99762e-05
-1.04441e-05
7.78063e-05
-1.87813e-05
8.57363e-05
9.39506e-05
-2.84422e-05
2.00664e-06
-2.0614e-06
4.15594e-06
6.47946e-06
6.16609e-06
1.61025e-05
7.47677e-06
2.78439e-05
7.83492e-06
4.07792e-05
6.94178e-06
5.33873e-05
4.58118e-06
6.42613e-05
7.88401e-07
7.3769e-05
-4.29041e-06
8.28851e-05
-1.05704e-05
9.20163e-05
0.000101235
-1.78553e-05
1.2992e-06
-3.3606e-06
3.40627e-06
4.37239e-06
5.60159e-06
1.39072e-05
7.22468e-06
2.62208e-05
8.05559e-06
3.99483e-05
7.90508e-06
5.35378e-05
6.62484e-06
6.55416e-05
4.23103e-06
7.61628e-05
7.70714e-07
8.63454e-05
-3.72469e-06
9.65117e-05
0.000106791
-9.2802e-06
7.73611e-07
-4.13421e-06
2.62892e-06
2.51708e-06
4.80575e-06
1.17304e-05
6.68347e-06
2.43431e-05
7.96195e-06
3.86698e-05
8.47918e-06
5.30206e-05
8.13596e-06
6.58848e-05
6.96191e-06
7.73369e-05
4.98809e-06
8.83192e-05
2.24484e-06
9.92549e-05
0.000110103
-1.06682e-06
4.95725e-07
-4.62993e-06
2.00805e-06
1.00476e-06
4.09474e-06
9.64369e-06
6.13571e-06
2.23021e-05
7.7907e-06
3.70148e-05
8.90145e-06
5.19098e-05
9.39456e-06
6.53917e-05
9.29084e-06
7.74406e-05
8.64955e-06
8.89605e-05
7.43218e-06
0.000100472
0.000111842
5.69327e-06
3.42223e-07
-4.97215e-06
1.57638e-06
-2.29405e-07
3.50552e-06
7.71455e-06
5.65036e-06
2.01573e-05
7.62404e-06
3.50411e-05
9.27641e-06
5.02575e-05
1.05258e-05
6.41423e-05
1.14025e-05
7.65639e-05
1.19755e-05
8.83875e-05
1.22796e-05
0.000100168
0.000111834
1.22873e-05
2.74325e-07
-5.24648e-06
1.33482e-06
-1.2899e-06
3.09071e-06
5.95866e-06
5.3265e-06
1.79215e-05
7.61372e-06
3.27539e-05
9.7665e-06
4.81047e-05
1.172e-05
6.21888e-05
1.34876e-05
7.47963e-05
1.51809e-05
8.66941e-05
1.68831e-05
9.8466e-05
0.000110053
1.8664e-05
2.47681e-07
-5.49416e-06
1.06357e-06
-2.10579e-06
2.60385e-06
4.41839e-06
4.85798e-06
1.56674e-05
7.40572e-06
3.02062e-05
1.00412e-05
4.54693e-05
1.26877e-05
5.95422e-05
1.53613e-05
7.21228e-05
1.81706e-05
8.38849e-05
2.12411e-05
9.53954e-05
0.000106553
2.47406e-05
1.83083e-07
-5.67724e-06
7.9808e-07
-2.72079e-06
2.17675e-06
3.03972e-06
4.42175e-06
1.34224e-05
7.19825e-06
2.74297e-05
1.03016e-05
4.23659e-05
1.36345e-05
5.62094e-05
1.71932e-05
6.85641e-05
2.1104e-05
7.9974e-05
2.54784e-05
9.10211e-05
0.000101643
3.03893e-05
9.56009e-08
-5.77284e-06
6.04845e-07
-3.23003e-06
1.84387e-06
1.80069e-06
4.06062e-06
1.12056e-05
7.0586e-06
2.44317e-05
1.06064e-05
3.88181e-05
1.46077e-05
5.22081e-05
1.90553e-05
6.41166e-05
2.40652e-05
7.49641e-05
2.98093e-05
8.5277e-05
9.50747e-05
3.63771e-05
-3.12829e-09
-5.76972e-06
3.80415e-07
-3.61357e-06
1.44814e-06
7.32968e-07
3.57213e-06
9.08163e-06
6.72018e-06
2.12836e-05
1.0676e-05
3.48622e-05
1.53436e-05
4.75405e-05
2.07255e-05
5.87347e-05
2.69242e-05
6.87653e-05
3.41108e-05
7.80904e-05
8.68127e-05
4.23729e-05
-1.04807e-07
-5.66491e-06
1.29328e-07
-3.84771e-06
1.03976e-06
-1.7746e-07
3.03111e-06
7.09027e-06
6.25622e-06
1.80585e-05
1.06033e-05
3.05151e-05
1.59311e-05
4.22127e-05
2.22708e-05
5.23949e-05
2.97167e-05
6.13195e-05
3.84319e-05
6.93752e-05
7.64996e-05
4.87449e-05
-2.26612e-07
-5.4383e-06
-1.77893e-07
-3.89643e-06
5.7475e-07
-9.30103e-07
2.40163e-06
5.26339e-06
5.63332e-06
1.48268e-05
1.02736e-05
2.58748e-05
1.62712e-05
3.6215e-05
2.35987e-05
4.50675e-05
3.23404e-05
5.25778e-05
4.25864e-05
5.91292e-05
6.43234e-05
5.47626e-05
-3.56341e-07
-5.08196e-06
-5.25578e-07
-3.72719e-06
-7.7472e-08
-1.37821e-06
1.54934e-06
3.63658e-06
4.67326e-06
1.17029e-05
9.5255e-06
2.10226e-05
1.61326e-05
2.9608e-05
2.44675e-05
3.67326e-05
3.4515e-05
4.25303e-05
4.62286e-05
4.74157e-05
5.08362e-05
5.97158e-05
-5.27321e-07
-4.55464e-06
-9.68257e-07
-3.28625e-06
-9.62755e-07
-1.38371e-06
2.3292e-07
2.4409e-06
3.20599e-06
8.72986e-06
8.18242e-06
1.60461e-05
1.53515e-05
2.24389e-05
2.4635e-05
2.74491e-05
3.58702e-05
3.1295e-05
4.90913e-05
3.41946e-05
3.54714e-05
6.44561e-05
-8.0913e-07
-3.74551e-06
-1.64514e-06
-2.45024e-06
-2.19456e-06
-8.34293e-07
-1.70342e-06
1.94976e-06
9.67629e-07
6.05881e-06
6.05857e-06
1.09552e-05
1.36986e-05
1.47988e-05
2.37227e-05
1.7425e-05
3.59056e-05
1.91121e-05
5.01431e-05
1.99571e-05
1.9129e-05
6.64855e-05
-1.09503e-06
-2.65048e-06
-2.64736e-06
-8.97917e-07
-3.96606e-06
4.84407e-07
-4.15803e-06
2.14173e-06
-1.99473e-06
3.89552e-06
3.03729e-06
5.92318e-06
1.08008e-05
7.03527e-06
2.10231e-05
7.20271e-06
3.33942e-05
6.74102e-06
4.79398e-05
5.41153e-06
1.87194e-06
6.51968e-05
-3.62031e-06
9.69837e-07
-5.42539e-06
9.07157e-07
-6.72384e-06
1.78287e-06
-6.48043e-06
1.89832e-06
-3.99983e-06
1.41491e-06
1.65706e-06
2.66301e-07
1.03799e-05
-1.68754e-06
2.14384e-05
-3.85578e-06
3.48631e-05
-6.68372e-06
5.10793e-05
-1.08047e-05
-1.68751e-05
6.98264e-05
-5.60525e-07
1.53036e-06
6.45933e-07
-2.99301e-07
3.9496e-06
-1.5208e-06
9.49736e-06
-3.64944e-06
1.69881e-05
-6.07578e-06
2.61827e-05
-8.92832e-06
3.66474e-05
-1.21522e-05
4.88085e-05
-1.60169e-05
6.31395e-05
-2.10147e-05
7.99286e-05
-2.75938e-05
-3.63553e-05
9.94087e-05
1.16733e-05
1.80316e-05
2.47487e-05
3.16773e-05
3.89156e-05
4.66487e-05
5.53945e-05
6.5617e-05
7.76517e-05
9.18939e-05
0.000108908
-4.88462e-06
1.91473e-05
-1.42627e-05
-9.51513e-06
1.75791e-05
-1.29486e-05
-1.63834e-05
2.09438e-05
-1.40756e-05
-2.35627e-05
2.27367e-05
-1.55574e-05
-3.08756e-05
2.49721e-05
-1.76591e-05
-3.84793e-05
2.80788e-05
-2.04751e-05
-4.67033e-05
3.23383e-05
-2.41143e-05
-5.59296e-05
3.80229e-05
-2.87966e-05
-6.65706e-05
4.55007e-05
-3.48597e-05
-7.91491e-05
5.53467e-05
-4.27681e-05
6.83501e-05
-5.31298e-05
-9.43694e-05
2.75283e-06
1.63944e-05
3.07925e-06
1.72527e-05
-3.74446e-07
2.43975e-05
-5.6489e-06
2.80112e-05
-1.2451e-05
3.17742e-05
-2.02722e-05
3.59e-05
-2.90301e-05
4.10962e-05
-3.89355e-05
4.79282e-05
-5.03762e-05
5.69414e-05
-6.38067e-05
6.87772e-05
8.44706e-05
-7.99272e-05
2.50396e-06
1.38905e-05
3.044e-06
1.67126e-05
2.29279e-06
2.51487e-05
-6.44214e-09
3.03104e-05
-4.4471e-06
3.62149e-05
-1.05358e-05
4.19887e-05
-1.80184e-05
4.85788e-05
-2.68188e-05
5.67286e-05
-3.70999e-05
6.72226e-05
-4.92545e-05
8.09317e-05
9.90508e-05
-6.38347e-05
1.78824e-06
1.21022e-05
1.87526e-06
1.66256e-05
1.99044e-06
2.50335e-05
1.08083e-06
3.122e-05
-1.40636e-06
3.87021e-05
-5.35601e-06
4.59384e-05
-1.08181e-05
5.40408e-05
-1.76952e-05
6.36057e-05
-2.60049e-05
7.55323e-05
-3.59075e-05
9.08343e-05
0.000110855
-4.77121e-05
1.39561e-06
1.07066e-05
1.47261e-06
1.65486e-05
1.74943e-06
2.47567e-05
1.2883e-06
3.16811e-05
-2.77416e-08
4.00181e-05
-2.36832e-06
4.8279e-05
-5.9552e-06
5.76277e-05
-1.08098e-05
6.84603e-05
-1.69405e-05
8.1663e-05
-2.44034e-05
9.82973e-05
0.000119763
-3.33111e-05
1.27407e-06
9.43255e-06
1.67706e-06
1.61456e-05
2.18414e-06
2.42496e-05
2.01821e-06
3.18471e-05
1.35891e-06
4.06774e-05
-7.26507e-09
4.96451e-05
-2.22694e-06
5.98474e-05
-5.42132e-06
7.16547e-05
-9.63604e-06
8.58777e-05
-1.48914e-05
0.000103553
0.000126036
-2.11649e-05
1.23079e-06
8.20176e-06
1.95032e-06
1.54261e-05
2.70777e-06
2.34922e-05
2.88395e-06
3.16709e-05
2.71294e-06
4.08484e-05
2.0217e-06
5.03364e-05
7.43332e-07
6.11257e-05
-1.19218e-06
7.35902e-05
-3.85932e-06
8.85449e-05
-7.2898e-06
0.000106983
0.000130238
-1.14909e-05
1.06155e-06
7.14021e-06
2.00901e-06
1.44786e-05
2.97077e-06
2.25304e-05
3.47752e-06
3.11641e-05
3.73057e-06
4.05953e-05
3.58042e-06
5.04865e-05
3.05251e-06
6.16537e-05
2.09219e-06
7.45505e-05
6.71134e-07
8.99659e-05
-1.19351e-06
0.000108848
0.000132458
-3.41391e-06
1.00886e-06
6.13135e-06
2.1299e-06
1.33576e-05
3.26214e-06
2.13982e-05
4.07592e-06
3.03504e-05
4.68824e-06
3.9983e-05
4.99377e-06
5.0181e-05
5.05761e-06
6.15898e-05
4.86736e-06
7.47408e-05
4.4295e-06
9.04038e-05
3.76965e-06
0.000109508
0.000133235
2.99285e-06
1.10173e-06
5.02962e-06
2.43289e-06
1.20265e-05
3.79365e-06
2.00374e-05
4.93163e-06
2.92124e-05
5.88247e-06
3.90322e-05
6.5817e-06
4.94818e-05
7.11505e-06
6.10565e-05
7.51586e-06
7.434e-05
7.81652e-06
9.01031e-05
8.0712e-06
0.000109253
0.000132988
8.31823e-06
1.11072e-06
3.91889e-06
2.56787e-06
1.05693e-05
4.13875e-06
1.84665e-05
5.60046e-06
2.77507e-05
6.89827e-06
3.77344e-05
7.98605e-06
4.8394e-05
8.95924e-06
6.00833e-05
9.88573e-06
7.34135e-05
1.08404e-05
8.91484e-05
1.19032e-05
0.00010819
0.000131657
1.32336e-05
9.89465e-07
2.92943e-06
2.44318e-06
9.11559e-06
4.12606e-06
1.67837e-05
5.83935e-06
2.60374e-05
7.46384e-06
3.61099e-05
8.95933e-06
4.68985e-05
1.04032e-05
5.86395e-05
1.18738e-05
7.19428e-05
1.34747e-05