/*--------------------------------*- C++ -*----------------------------------*\
| =========                 |                                                 |
| \\      /  F ield         | OpenFOAM: The Open Source CFD Toolbox           |
|  \\    /   O peration     | Version:  3.0.1                                 |
|   \\  /    A nd           | Web:      www.OpenFOAM.org                      |
|    \\/     M anipulation  |                                                 |
\*---------------------------------------------------------------------------*/
FoamFile
{
    version     2.0;
    format      ascii;
    class       volVectorField;
    location    "0.228014";
    object      U;
}
// * * * * * * * * * * * * * * * * * * * * * * * * * * * * * * * * * * * * * //

dimensions      [0 1 -1 0 0 0 0];

internalField   nonuniform List<vector> 
21246
(
(1.58306 5.88297 2.3029e-19)
(1.62569 4.04682 -2.09112e-19)
(1.61625 3.4646 0)
(1.66698 2.73206 4.8551e-19)
(1.74339 2.17039 0)
(1.84285 1.74666 5.21882e-19)
(1.94176 1.43185 -6.46518e-19)
(2.03662 1.19364 0)
(2.13136 1.01019 8.65492e-20)
(2.22981 0.867329 7.70664e-21)
(2.32714 0.765614 7.72835e-20)
(2.99546 4.75995 -1.49369e-18)
(3.31042 2.09479 1.18473e-18)
(3.17286 3.07444 -8.37632e-19)
(2.8851 2.62326 -4.6523e-20)
(2.62666 2.25392 0)
(2.46009 1.86836 1.62427e-19)
(2.38132 1.53727 1.72816e-20)
(2.36482 1.27151 -7.82887e-20)
(2.39219 1.06372 -8.88887e-20)
(2.45365 0.903926 -1.02981e-19)
(2.53692 0.794556 1.34961e-20)
(2.78278 2.9063 2.20942e-18)
(3.5803 0.390537 -2.18561e-18)
(3.90466 2.03093 2.3707e-18)
(3.70733 1.81786 1.27556e-18)
(3.38985 1.83486 1.41396e-18)
(3.07936 1.66282 -1.27709e-19)
(2.85154 1.44959 -7.82304e-19)
(2.71639 1.23474 3.66626e-19)
(2.66087 1.04657 0)
(2.6712 0.894611 6.77706e-20)
(2.73316 0.791921 1.52618e-19)
(1.88829 1.63615 8.55949e-18)
(3.126 -0.412448 -5.43091e-18)
(3.89179 1.05327 2.33547e-18)
(3.932 0.844882 -9.7295e-19)
(3.79114 1.17752 -1.3359e-18)
(3.50019 1.2007 2.17535e-19)
(3.23024 1.15979 7.0353e-19)
(3.02645 1.05752 -4.02577e-19)
(2.90587 0.936824 -5.47192e-19)
(2.86548 0.823073 -5.36411e-19)
(2.89446 0.742101 1.63384e-19)
(0.954612 0.997522 0)
(2.43004 -0.640333 -4.89317e-18)
(3.45644 0.384626 3.69992e-18)
(3.73166 0.105791 0)
(3.82138 0.547382 0)
(3.64162 0.66388 8.81743e-19)
(3.42791 0.764489 -3.05697e-19)
(3.22631 0.778207 0)
(3.08277 0.746094 5.3675e-19)
(3.0119 0.692901 3.0739e-19)
(3.01156 0.652582 0)
(0.145921 0.719893 0)
(1.73378 -0.623049 0)
(2.88714 -0.00843572 0)
(3.34025 -0.332694 -1.55811e-18)
(3.60814 0.0706468 1.23056e-18)
(3.55846 0.197106 -4.60595e-19)
(3.44167 0.375455 0)
(3.29016 0.467402 3.66181e-19)
(3.16427 0.512681 0)
(3.08979 0.521888 2.57111e-19)
(3.0755 0.527033 7.99909e-21)
(-0.573161 0.657992 -4.51709e-18)
(1.09109 -0.488322 -3.38275e-18)
(2.3142 -0.211132 7.57673e-18)
(2.90262 -0.554785 -4.37579e-18)
(3.28821 -0.244796 3.48693e-19)
(3.3474 -0.144222 0)
(3.32627 0.0527785 0)
(3.23782 0.183648 -1.04485e-18)
(3.1517 0.278624 9.28664e-19)
(3.09452 0.335386 -3.13692e-19)
(3.08402 0.379806 -1.83169e-19)
(-1.2025 0.767743 0)
(0.515484 -0.274437 -1.6202e-19)
(1.77457 -0.276956 -4.17911e-18)
(2.47653 -0.637803 3.05952e-18)
(2.94403 -0.433223 2.23438e-18)
(3.08708 -0.367296 -1.72267e-18)
(3.1388 -0.184369 0)
(3.10965 -0.0470699 0)
(3.06706 0.0722932 -8.58924e-19)
(3.03542 0.160499 6.40563e-19)
(3.03808 0.230468 3.21656e-19)
(-1.72299 0.971489 -2.7444e-18)
(-0.00876191 -0.0215943 4.75363e-18)
(1.27323 -0.242427 0)
(2.07497 -0.626955 4.89243e-19)
(2.60755 -0.528607 0)
(2.81935 -0.499425 -3.37579e-19)
(2.92426 -0.345983 4.78309e-19)
(2.94129 -0.218053 -1.27739e-18)
(2.93567 -0.0935652 5.32518e-19)
(2.92925 0.00900968 0)
(2.94523 0.0946294 0)
(-2.1711 1.21767 -3.49597e-19)
(-0.510606 0.250908 0)
(0.79352 -0.134276 0)
(1.687 -0.551692 1.9308e-18)
(2.28184 -0.557568 -2.12689e-18)
(2.55817 -0.566277 3.29601e-19)
(2.70548 -0.449436 -4.67641e-19)
(2.75802 -0.338181 -5.86881e-19)
(2.7802 -0.21954 -3.6934e-19)
(2.79427 -0.113652 0)
(2.82247 -0.0229457 -6.72046e-19)
(-2.57663 1.51988 0)
(-0.989968 0.550873 0)
(0.32865 0.035197 2.54118e-18)
(1.304 -0.429297 -3.87356e-18)
(1.96357 -0.535842 1.87583e-18)
(2.30495 -0.586516 -1.0517e-18)
(2.49128 -0.509677 1.55002e-18)
(2.57298 -0.41864 -4.73255e-19)
(2.61555 -0.311348 1.5775e-18)
(2.64471 -0.207162 0)
(2.67987 -0.117895 6.63354e-19)
(-2.92031 1.85125 4.39704e-18)
(-1.43046 0.861368 -2.22897e-20)
(-0.109403 0.248541 -4.42646e-18)
(0.931661 -0.272286 1.69251e-18)
(1.65427 -0.474242 -6.02018e-19)
(2.05926 -0.57254 -1.84298e-18)
(2.28394 -0.537819 2.02001e-18)
(2.39151 -0.469277 -9.3242e-20)
(2.44932 -0.376356 -6.4068e-19)
(2.48809 -0.278168 2.19684e-18)
(2.5253 -0.191255 -6.37846e-19)
(-3.18399 2.15535 -3.99118e-18)
(-1.82867 1.15749 6.70265e-19)
(-0.52239 0.484933 1.97513e-18)
(0.565947 -0.0927819 7.65548e-19)
(1.34744 -0.383766 3.10526e-20)
(1.81497 -0.534129 -3.27134e-18)
(2.07989 -0.542956 1.25234e-18)
(2.21327 -0.498344 -9.52641e-20)
(2.2845 -0.420736 5.69103e-19)
(2.33041 -0.330642 -8.47044e-20)
(2.36905 -0.247941 -5.73341e-19)
(-3.38897 2.43261 -3.31324e-18)
(-2.19452 1.44577 -6.24807e-19)
(-0.92529 0.741351 -4.31888e-19)
(0.190852 0.108428 7.09644e-19)
(1.02762 -0.267782 2.37083e-20)
(1.55908 -0.475366 1.55202e-18)
(1.86972 -0.530093 0)
(2.03296 -0.511119 -8.14758e-19)
(2.11963 -0.448859 -5.06509e-20)
(2.17321 -0.366473 -1.45098e-18)
(2.21338 -0.286309 5.11314e-19)
(-3.55346 2.681 0)
(-2.51972 1.71757 -5.42241e-19)
(-1.31135 1.00898 2.09459e-18)
(-0.190174 0.328813 -3.38177e-20)
(0.692882 -0.126424 -1.43037e-18)
(1.28548 -0.395256 6.46922e-19)
(1.64565 -0.498952 4.62985e-19)
(1.84397 -0.508569 -1.30504e-18)
(1.95052 -0.462602 1.45584e-18)
(2.01364 -0.388851 -1.26819e-18)
(2.05568 -0.311595 1.72167e-21)
(-3.66868 2.8909 0)
(-2.79728 1.96364 2.92948e-19)
(-1.679 1.28002 1.95229e-18)
(-0.578947 0.56818 -2.34847e-18)
(0.33707 0.042663 8.8052e-19)
(0.985622 -0.289613 -6.53364e-19)
(1.398 -0.44574 -4.65868e-19)
(1.63742 -0.487998 1.23208e-18)
(1.77103 -0.46059 -3.82753e-19)
(1.84989 -0.396729 5.91499e-19)
(1.90081 -0.322117 3.88299e-19)
(-3.72088 3.04911 2.927e-18)
(-3.02512 2.18892 2.55744e-18)
(-2.02902 1.55754 -4.47391e-19)
(-0.980994 0.83497 -1.14191e-18)
(-0.0493464 0.248432 0)
(0.647854 -0.149314 1.10551e-18)
(1.11421 -0.362143 -8.39729e-19)
(1.40194 -0.442446 5.11519e-19)
(1.57258 -0.437897 2.02625e-21)
(1.67629 -0.38743 -4.41482e-19)
(1.74407 -0.317784 3.27988e-19)
(-3.7406 3.17114 -1.7378e-19)
(-3.20351 2.39756 -2.60645e-19)
(-2.34923 1.83804 0)
(-1.3873 1.13015 -1.0442e-18)
(-0.465825 0.497164 9.73688e-19)
(0.266845 0.0357626 -2.51939e-19)
(0.784574 -0.236274 6.77895e-19)
(1.12642 -0.360227 -2.95073e-19)
(1.34536 -0.385171 1.36131e-19)
(1.48607 -0.354574 0)
(1.57922 -0.298319 1.09798e-19)
(-3.73815 3.27579 -2.57597e-18)
(-3.33558 2.59086 1.20878e-19)
(-2.62859 2.11175 -1.75189e-19)
(-1.78753 1.44784 -1.00654e-18)
(-0.912563 0.79278 5.68048e-19)
(-0.166147 0.278048 2.61786e-19)
(0.396462 -0.050946 -7.38218e-19)
(0.797681 -0.223358 3.11044e-19)
(1.07721 -0.287363 -1.38511e-19)
(1.26978 -0.286887 0)
(1.40423 -0.252214 -1.10454e-19)
(-3.72035 3.37099 -2.8971e-18)
(-3.43176 2.76359 3.98022e-18)
(-2.86597 2.3664 -1.30025e-18)
(-2.17433 1.77448 -9.79465e-19)
(-1.39095 1.13713 7.34723e-19)
(-0.66135 0.595624 0)
(-0.063439 0.219768 1.22133e-19)
(0.401707 -0.0048545 -7.48771e-20)
(0.753098 -0.120642 -1.91047e-20)
(1.01097 -0.166699 0)
(1.20078 -0.166772 0)
(-3.6792 3.45635 -2.78201e-18)
(-3.50734 2.91629 2.14401e-18)
(-3.07646 2.58852 0)
(-2.55299 2.09613 9.5538e-19)
(-1.90156 1.53536 -7.85885e-19)
(-1.22266 1.0168 -3.52769e-19)
(-0.602538 0.614611 3.36088e-19)
(-0.0740538 0.33262 -1.77801e-20)
(0.355438 0.146874 7.61527e-20)
(0.686842 0.0328171 5.11248e-21)
(0.940647 -0.0237686 -4.49609e-20)
(-3.60962 3.31687 3.0673e-18)
(-3.54108 2.9287 0)
(-3.29642 2.72023 -1.6085e-18)
(-2.93885 2.39483 1.06913e-18)
(-2.42423 1.98962 2.09567e-19)
(-1.82157 1.56471 0)
(-1.20136 1.1699 -4.86546e-20)
(-0.625397 0.830718 0)
(-0.129574 0.560535 0)
(0.271466 0.361951 7.22511e-21)
(0.613823 0.240451 2.70849e-21)
(-3.79928 3.57981 -3.65536e-18)
(-3.61767 3.19103 -2.38273e-18)
(-3.43131 3.05407 1.96984e-18)
(-3.15785 2.88188 0)
(-2.7624 2.63556 -1.47204e-19)
(-2.27883 2.31088 -8.47025e-20)
(-1.73738 1.92399 3.75806e-20)
(-1.19585 1.52249 1.45089e-21)
(-0.70268 1.15821 2.93654e-21)
(-0.293258 0.860859 -2.54389e-20)
(0.128333 0.629222 -2.86101e-21)
(-1.72568 1.847 -6.69442e-20)
(-2.10781 1.898 0)
(-1.94542 2.08764 0)
(-1.87765 2.22907 -1.1756e-19)
(-1.81414 2.34076 -1.60779e-19)
(-1.71947 2.38912 4.57265e-20)
(-1.5685 2.34209 2.52983e-20)
(-1.30103 2.15606 6.6123e-22)
(-0.984661 1.89644 -1.62933e-20)
(-0.676378 1.61351 8.49106e-21)
(-0.297889 1.27084 -6.04365e-20)
(-1.97912 3.67133 1.25691e-18)
(-1.351 2.7737 0)
(-0.180307 2.3192 1.32871e-19)
(0.529416 1.985 -9.78739e-20)
(0.991667 1.69567 0)
(1.32078 1.44518 3.24998e-19)
(1.55586 1.23547 -4.22119e-19)
(1.73274 1.06248 4.11667e-19)
(1.87515 0.921957 1.80048e-19)
(1.99561 0.809449 -1.21282e-19)
(2.0957 0.723404 0)
(-2.11548 -1.3401 -1.02158e-18)
(-1.47208 0.1463 5.46687e-18)
(-0.966074 0.795769 -4.3421e-18)
(-0.243904 1.12648 4.96351e-19)
(0.365203 1.18441 0)
(0.832612 1.13084 3.55258e-19)
(1.18187 1.03089 0)
(1.44192 0.918691 -3.51481e-19)
(1.64129 0.814337 0)
(1.79747 0.72501 -1.06025e-19)
(1.91583 0.652503 7.66902e-20)
(-1.42838 -2.25449 8.87248e-18)
(-0.684996 -1.07925 4.05263e-19)
(-0.807076 -0.720449 -8.98709e-20)
(-0.469675 -0.106878 -4.75615e-18)
(-0.0570007 0.359058 0)
(0.416675 0.618903 -3.65834e-19)
(0.833296 0.714916 0)
(1.16349 0.717912 1.26599e-19)
(1.41611 0.679837 0)
(1.60475 0.629373 -3.16195e-20)
(1.73736 0.579345 2.27313e-20)
(-0.594495 -2.47214 -9.5347e-21)
(0.25578 -1.41506 4.45684e-18)
(-0.233617 -1.37042 -3.33006e-18)
(-0.142112 -0.823812 -3.79616e-20)
(-0.0129267 -0.386019 -2.11998e-18)
(0.257599 -0.0148058 2.56879e-19)
(0.575221 0.23394 9.76197e-19)
(0.878723 0.372978 -6.1325e-20)
(1.14563 0.435438 -3.51396e-20)
(1.36285 0.453369 -3.88497e-20)
(1.52153 0.4484 0)
(0.106242 -2.35589 4.04204e-20)
(0.966794 -1.49314 0)
(0.386572 -1.64289 0)
(0.38252 -1.17513 1.91332e-19)
(0.332476 -0.824203 1.98272e-19)
(0.435203 -0.44795 -3.80961e-20)
(0.620279 -0.152239 1.69926e-18)
(0.843518 0.0587095 -1.07777e-18)
(1.06614 0.190956 -2.17539e-19)
(1.2626 0.265298 -1.0691e-19)
(1.41189 0.300192 0)
(0.613958 -2.11935 -2.89392e-20)
(1.43751 -1.44289 0)
(0.895365 -1.68602 0)
(0.872634 -1.29359 -4.55348e-20)
(0.732018 -1.064 -8.46264e-19)
(0.726983 -0.73673 -6.11551e-20)
(0.793561 -0.453734 2.19458e-19)
(0.921591 -0.21722 9.77598e-19)
(1.0749 -0.0433199 -5.70139e-20)
(1.22601 0.0737007 -3.49928e-19)
(1.34563 0.141892 3.5829e-19)
(0.964975 -1.84855 0)
(1.73689 -1.33437 0)
(1.26956 -1.61334 0)
(1.25495 -1.2699 5.48391e-20)
(1.08287 -1.15076 -2.63451e-19)
(1.03026 -0.87685 0)
(1.01315 -0.638542 -6.34989e-19)
(1.06054 -0.41121 3.69515e-19)
(1.14287 -0.225465 -1.5161e-19)
(1.23891 -0.0854741 -2.27977e-19)
(1.31773 0.00710341 -2.22759e-19)
(1.21481 -1.59528 1.28539e-18)
(1.92127 -1.22875 0)
(1.53831 -1.49799 0)
(1.54017 -1.18693 -2.11056e-19)
(1.35059 -1.14676 2.09135e-19)
(1.29442 -0.912673 -2.18034e-19)
(1.22838 -0.726277 1.74136e-19)
(1.2195 -0.525719 -1.81051e-19)
(1.24368 -0.349425 2.60784e-19)
(1.28963 -0.205727 0)
(1.33071 -0.104303 3.86896e-19)
(1.41055 -1.37045 1.00267e-18)
(2.05705 -1.13972 0)
(1.71841 -1.37469 -1.00696e-18)
(1.76425 -1.08711 7.88275e-19)
(1.55808 -1.08939 -2.56086e-19)
(1.50393 -0.892412 5.15943e-19)
(1.41505 -0.747626 -9.86349e-20)
(1.37213 -0.576502 -2.94605e-20)
(1.35454 -0.419136 3.06422e-20)
(1.36052 -0.281974 0)
(1.36942 -0.178425 0)
(1.55287 -1.18528 4.75528e-19)
(2.19209 -1.03874 9.97158e-19)
(1.8569 -1.24409 3.44764e-19)
(1.92421 -0.998047 2.85585e-19)
(1.72684 -1.00599 -9.72336e-19)
(1.67039 -0.840637 -2.86758e-19)
(1.56986 -0.727098 5.16186e-19)
(1.50689 -0.582089 -1.29055e-19)
(1.4612 -0.445998 -3.00991e-20)
(1.43764 -0.321236 0)
(1.4211 -0.224157 0)
(1.63545 -1.03699 0)
(2.29942 -0.925737 -1.85393e-18)
(1.98307 -1.11255 1.49424e-18)
(2.04521 -0.90007 8.88963e-19)
(1.86062 -0.912696 -3.19157e-19)
(1.80309 -0.770468 0)
(1.6961 -0.680803 3.43259e-19)
(1.62095 -0.557533 -5.14143e-19)
(1.55659 -0.441942 -8.17429e-20)
(1.51248 -0.331741 6.13726e-20)
(1.47935 -0.242601 3.72669e-20)
(1.68298 -0.905715 -1.36585e-18)
(2.37055 -0.809312 5.67833e-19)
(2.08241 -0.989176 -3.57118e-19)
(2.14027 -0.796045 4.57698e-19)
(1.96532 -0.814753 2.00232e-19)
(1.90801 -0.689075 -4.7482e-19)
(1.79729 -0.618531 0)
(1.71461 -0.513198 1.82171e-19)
(1.63754 -0.416664 -1.95125e-19)
(1.57881 -0.321634 1.46022e-19)
(1.53434 -0.240301 -1.68432e-19)
(1.71721 -0.78102 2.84422e-18)
(2.42761 -0.689919 -5.88537e-19)
(2.1571 -0.873221 0)
(2.21515 -0.688714 -2.62471e-19)
(2.0456 -0.715244 0)
(1.98966 -0.600673 0)
(1.87605 -0.546534 0)
(1.78865 -0.4561 5.86405e-21)
(1.70258 -0.377252 5.80455e-20)
(1.63294 -0.298257 3.89352e-19)
(1.57571 -0.234292 0)
(1.73691 -0.644831 -1.85277e-18)
(2.46374 -0.560203 2.56848e-19)
(2.21657 -0.753835 -1.45662e-18)
(2.27048 -0.58106 2.4211e-18)
(2.10714 -0.612773 -7.94454e-19)
(2.05077 -0.508891 -4.54637e-19)
(1.93532 -0.468144 9.43034e-20)
(1.84425 -0.391189 7.99833e-19)
(1.75134 -0.328815 -7.23134e-19)
(1.67378 -0.265262 -2.34738e-19)
(1.608 -0.215803 0)
(1.73208 -0.507671 3.72314e-19)
(2.47324 -0.436209 -2.75577e-21)
(2.25946 -0.633787 1.27589e-18)
(2.30582 -0.475906 -1.42169e-18)
(2.15296 -0.506352 0)
(2.09221 -0.416032 0)
(1.9769 -0.384297 -3.22305e-19)
(1.88176 -0.321444 0)
(1.78374 -0.274077 3.41211e-19)
(1.69953 -0.226654 -2.8102e-20)
(1.627 -0.193392 0)
(1.71975 -0.373339 0)
(2.46351 -0.315642 -2.60228e-19)
(2.28831 -0.5124 1.95732e-19)
(2.32434 -0.372788 2.69964e-19)
(2.1841 -0.397572 0)
(2.11633 -0.322573 0)
(2.00204 -0.297184 0)
(1.90242 -0.249109 -2.75281e-19)
(1.80042 -0.215879 4.10072e-19)
(1.71059 -0.184796 0)
(1.63308 -0.165725 -4.29525e-20)
(1.6992 -0.236086 7.25974e-20)
(2.43623 -0.190133 1.10703e-18)
(2.30377 -0.385358 1.18915e-20)
(2.32802 -0.268925 0)
(2.20086 -0.286603 0)
(2.1244 -0.228056 0)
(2.01105 -0.208401 -2.95533e-19)
(1.90691 -0.17574 3.06081e-19)
(1.80193 -0.156603 -1.45603e-19)
(1.70776 -0.142078 0)
(1.62469 -0.140796 3.78921e-20)
(1.66253 -0.0964727 -9.31513e-20)
(2.38684 -0.0595476 -1.02241e-18)
(2.30135 -0.252159 8.82119e-19)
(2.31587 -0.161958 -6.42409e-20)
(2.20168 -0.173445 -6.82146e-19)
(2.11634 -0.131922 5.24501e-19)
(2.00345 -0.119376 0)
(1.89555 -0.102848 0)
(1.78896 -0.0984402 -4.57995e-20)
(1.69256 -0.0996702 0)
(1.60634 -0.113974 5.09192e-21)
(1.61042 0.0444956 -1.3886e-18)
(2.31352 0.0771918 1.13493e-18)
(2.27653 -0.111221 -8.32518e-19)
(2.28486 -0.0493191 8.82146e-19)
(2.18329 -0.0578123 0)
(2.09053 -0.0341424 0)
(1.97813 -0.0317653 -1.3081e-19)
(1.86851 -0.0323692 -7.76114e-20)
(1.76254 -0.043704 1.1227e-19)
(1.66651 -0.060504 1.19935e-19)
(1.58093 -0.0906086 -9.81094e-21)
(1.54234 0.188666 0)
(2.21318 0.225305 0)
(2.2228 0.0421997 0)
(2.22889 0.0731028 -2.87159e-20)
(2.14012 0.0613793 -6.71615e-19)
(2.04361 0.0648353 3.77876e-19)
(1.93363 0.0525215 -5.81374e-21)
(1.82618 0.0335081 1.6603e-20)
(1.72427 0.00578922 -1.23131e-20)
(1.6316 -0.0261565 -1.09048e-19)
(1.54973 -0.0688716 -6.96772e-20)
(1.44923 0.336442 1.74079e-18)
(2.07624 0.389826 8.1318e-19)
(2.12662 0.212735 -1.16321e-18)
(2.1349 0.20896 4.24995e-20)
(2.0613 0.184736 3.34437e-19)
(1.96871 0.163711 -4.59813e-20)
(1.86687 0.131533 1.7106e-19)
(1.76797 0.093112 -2.20198e-20)
(1.6747 0.0493087 -3.94247e-20)
(1.5891 0.00322569 1.66835e-19)
(1.51402 -0.0517961 5.06414e-20)
(1.33279 0.497067 0)
(1.89318 0.577806 -7.85312e-19)
(1.97249 0.406796 1.22225e-18)
(1.98828 0.363745 2.54522e-19)
(1.93618 0.316223 0)
(1.86023 0.266118 -1.89502e-19)
(1.77704 0.21023 -1.26058e-19)
(1.69492 0.152304 -7.60524e-20)
(1.61612 0.0935617 1.37186e-20)
(1.54262 0.0347831 -1.77047e-19)
(1.47798 -0.0296312 0)
(1.06933 0.59454 0)
(1.57581 0.758905 0)
(1.68232 0.588668 -5.87314e-20)
(1.71918 0.504006 3.73007e-19)
(1.70502 0.432205 2.27495e-20)
(1.6682 0.359485 -6.16236e-20)
(1.6217 0.286264 -1.07198e-19)
(1.56876 0.214168 1.23079e-19)
(1.51072 0.140696 9.59285e-20)
(1.45185 0.0669658 5.90762e-20)
(1.39899 0.00313044 8.26542e-21)
(1.11008 0.931536 -3.48505e-20)
(1.359 1.18177 1.25008e-18)
(1.40593 0.998777 -3.71815e-19)
(1.40903 0.862512 -5.08719e-20)
(1.38916 0.744971 9.08291e-20)
(1.36169 0.638719 0)
(1.33344 0.555751 0)
(1.26619 0.524559 -2.64327e-20)
(1.16819 0.530676 4.08728e-21)
(1.05252 0.553663 -5.18733e-20)
(0.92763 0.576404 3.22536e-20)
(5.21007 -1.30837 1.74759e-19)
(4.07095 -0.873248 0)
(4.24093 -0.764662 0)
(4.17794 -0.687455 -1.23153e-19)
(3.96056 -0.589145 2.23573e-19)
(3.71204 -0.485824 -9.85265e-20)
(3.46805 -0.398928 0)
(3.25668 -0.348018 4.22899e-20)
(3.08216 -0.338234 -7.66933e-20)
(2.93572 -0.362591 -2.46613e-20)
(2.82334 -0.406992 3.93902e-20)
(3.75466 -0.314683 0)
(2.81523 -0.309595 0)
(3.25634 -0.70642 0)
(3.48128 -0.868832 0)
(3.52665 -0.890278 0)
(3.48056 -0.82371 0)
(3.36774 -0.704762 -7.79636e-20)
(3.2145 -0.580763 -8.79897e-20)
(3.07806 -0.514523 5.091e-20)
(2.95963 -0.499647 6.51714e-20)
(2.86904 -0.52476 -1.178e-20)
(3.2828 1.17897 0)
(2.72017 0.532789 0)
(2.81615 -0.155072 -2.858e-18)
(2.9444 -0.570306 3.91462e-18)
(3.04839 -0.813935 -2.38534e-18)
(3.11889 -0.909329 1.71037e-19)
(3.13338 -0.87608 5.57951e-19)
(3.0874 -0.764556 -1.09685e-19)
(3.01574 -0.658288 2.10264e-19)
(2.93857 -0.603275 -9.52187e-20)
(2.88534 -0.60755 -5.58022e-20)
(3.5501 2.23587 -5.42853e-18)
(3.03404 1.30688 3.94107e-18)
(2.80836 0.529445 0)
(2.7377 -0.0561713 1.98276e-18)
(2.74811 -0.487847 -1.40047e-18)
(2.80286 -0.757901 2.29909e-20)
(2.86269 -0.862129 -2.68461e-20)
(2.89418 -0.830019 5.19386e-19)
(2.89671 -0.739345 -6.01051e-19)
(2.8773 -0.66536 2.37304e-19)
(2.86517 -0.647273 -5.38296e-20)
(4.22283 2.77467 -2.87117e-19)
(3.46949 1.92304 -3.43195e-18)
(3.01898 1.13659 2.84639e-18)
(2.75667 0.468556 1.64124e-18)
(2.63072 -0.0745597 -1.00849e-18)
(2.60364 -0.471671 0)
(2.63799 -0.701977 9.80524e-19)
(2.69495 -0.771451 3.33555e-20)
(2.74958 -0.735227 -5.3657e-19)
(2.78668 -0.67159 3.1884e-20)
(2.81813 -0.643095 2.26546e-19)
(4.40909 2.78048 4.72495e-18)
(3.77223 2.30526 -3.1734e-18)
(3.2674 1.59953 2.26771e-18)
(2.87665 0.92989 -1.71268e-18)
(2.62699 0.342221 -6.00002e-19)
(2.50339 -0.127621 -4.09109e-19)
(2.48069 -0.45055 0)
(2.52568 -0.613906 1.8276e-19)
(2.60431 -0.647013 -4.35131e-19)
(2.68466 -0.615995 -2.47655e-19)
(2.7567 -0.591571 0)
(4.484 2.74529 -4.01941e-18)
(4.01581 2.52502 2.56693e-18)
(3.51486 1.94365 1.84342e-18)
(3.04042 1.32671 -1.59604e-18)
(2.69213 0.738292 2.8922e-19)
(2.47882 0.234466 4.01182e-19)
(2.38984 -0.1479 1.00433e-18)
(2.40199 -0.385262 -1.09671e-18)
(2.4822 -0.486742 8.31885e-19)
(2.58952 -0.501625 -5.71194e-19)
(2.69586 -0.497699 0)
(4.49937 2.64145 0)
(4.15887 2.58138 2.93548e-18)
(3.72125 2.1709 -1.50647e-18)
(3.21506 1.64873 1.08043e-18)
(2.79983 1.09411 -5.68788e-19)
(2.51323 0.589695 0)
(2.3616 0.178188 0)
(2.3333 -0.110467 0)
(2.40076 -0.271505 -4.23326e-19)
(2.5204 -0.337496 2.67667e-19)
(2.65152 -0.366251 3.0916e-19)
(4.48158 2.51251 -3.80849e-19)
(4.18882 2.53897 2.35401e-18)
(3.87091 2.29473 -2.28586e-18)
(3.37874 1.88827 2.15538e-20)
(2.93223 1.39287 -5.05968e-19)
(2.59529 0.917171 6.76933e-19)
(2.39321 0.503345 4.46824e-19)
(2.32599 0.185648 -6.87479e-19)
(2.37329 -0.0215988 8.18125e-19)
(2.49225 -0.136398 0)
(2.63666 -0.204749 0)
(4.44102 2.37808 3.45699e-19)
(4.18312 2.46676 -1.10477e-18)
(3.93442 2.30298 0)
(3.53156 2.0453 -1.18907e-18)
(3.07905 1.62614 9.22694e-19)
(2.7172 1.20045 -6.68193e-19)
(2.48184 0.805861 4.61487e-19)
(2.38325 0.478719 -1.43309e-20)
(2.40833 0.239312 -4.56656e-19)
(2.51669 0.081436 -7.35077e-19)
(2.65985 -0.0280154 -2.90031e-19)
(4.38671 2.24487 3.23271e-19)
(4.15918 2.38305 9.84472e-19)
(3.96084 2.25514 -3.98752e-19)
(3.63989 2.10537 1.39494e-18)
(3.23643 1.79525 -8.46924e-19)
(2.87047 1.4233 -5.67228e-19)
(2.62115 1.06453 4.29316e-19)
(2.50271 0.743979 5.67888e-19)
(2.50734 0.485918 0)
(2.59842 0.293267 8.91367e-19)
(2.72974 0.144451 2.87722e-19)
(4.32365 2.11714 -6.1776e-19)
(4.12177 2.29317 -6.83523e-19)
(3.96624 2.17903 -6.76877e-19)
(3.71131 2.09362 8.09647e-19)
(3.38574 1.88497 0)
(3.04011 1.57631 -5.16601e-19)
(2.79897 1.2621 4.39956e-20)
(2.67481 0.959838 9.96426e-19)
(2.66332 0.695308 -3.49026e-19)
(2.73258 0.47856 -4.24303e-19)
(2.84149 0.298046 -2.39353e-19)
(4.26674 1.99641 1.45942e-18)
(4.08481 2.20002 -4.32138e-19)
(3.96459 2.08571 -9.71031e-19)
(3.76455 2.03951 -1.93528e-19)
(3.51024 1.89786 4.85502e-20)
(3.2172 1.65974 5.1782e-19)
(3.00229 1.39119 -6.76083e-19)
(2.88481 1.1141 -1.8011e-19)
(2.86257 0.852071 1.77819e-19)
(2.90878 0.620268 1.69865e-19)
(2.98817 0.417027 -9.80764e-20)
(4.22542 1.88194 0)
(4.05985 2.10962 2.09447e-19)
(3.96755 1.9841 -1.52457e-19)
(3.81172 1.96185 7.73525e-19)
(3.61872 1.85903 -6.85633e-19)
(3.39167 1.67893 -4.4213e-19)
(3.21774 1.45402 3.36006e-19)
(3.11627 1.20404 0)
(3.08843 0.950871 1.3899e-19)
(3.1127 0.711991 0)
(3.16231 0.491485 -1.90362e-19)
(4.19579 1.77786 0)
(4.04472 2.02223 7.83354e-19)
(3.97647 1.88034 1.25234e-19)
(3.8561 1.87167 -3.43521e-19)
(3.71563 1.78748 -7.83265e-20)
(3.55739 1.64833 0)
(3.43013 1.45942 0)
(3.35238 1.23539 -2.29767e-19)
(3.3249 0.993614 4.24866e-19)
(3.33044 0.752897 -1.70034e-19)
(3.34999 0.520872 -4.40993e-20)
(4.18149 1.68506 1.04074e-18)
(4.04339 1.93794 -8.20252e-19)
(3.99535 1.7814 5.87167e-19)
(3.90317 1.77722 -4.4938e-19)
(3.80948 1.70243 8.84965e-20)
(3.71029 1.5875 0)
(3.63087 1.42533 -2.72379e-19)
(3.58249 1.22178 7.9439e-20)
(3.5616 0.989004 6.27727e-20)
(3.55307 0.746382 -4.2882e-21)
(3.54427 0.504295 4.40078e-20)
(4.1852 1.60309 2.05999e-18)
(4.05888 1.85567 -9.11293e-19)
(4.02589 1.69302 -9.38689e-21)
(3.95816 1.68727 0)
(3.90211 1.61955 -9.79907e-21)
(3.85235 1.51918 0)
(3.82035 1.37374 0)
(3.80601 1.18046 2.61524e-19)
(3.7969 0.948082 -1.69693e-20)
(3.77651 0.698962 -1.31739e-19)
(3.73735 0.444674 8.66666e-21)
(4.20328 1.52956 -1.01296e-18)
(4.08351 1.77934 1.4031e-19)
(4.06204 1.61618 2.55746e-20)
(4.01489 1.61195 2.80643e-20)
(3.99138 1.55475 3.33312e-19)
(3.989 1.4658 2.2403e-19)
(4.00837 1.3259 -2.84838e-19)
(4.03353 1.12601 9.31831e-21)
(4.03846 0.876904 0)
(4.0027 0.608774 -1.09044e-19)
(3.92388 0.339677 -1.03587e-20)
(4.22962 1.46298 2.46999e-18)
(4.11122 1.70974 -8.86257e-19)
(4.09614 1.55497 -6.43235e-19)
(4.06782 1.56547 2.4323e-19)
(4.07908 1.52993 0)
(4.1305 1.45177 -1.21231e-19)
(4.20614 1.29916 3.46438e-19)
(4.27187 1.0644 2.64238e-20)
(4.28935 0.772081 0)
(4.23316 0.46915 2.4384e-19)
(4.106 0.185662 0)
(4.26638 1.40138 1.42868e-18)
(4.12494 1.65316 -4.79687e-19)
(4.10143 1.53418 3.60447e-19)
(4.09324 1.58217 2.6283e-19)
(4.14638 1.57252 0)
(4.27305 1.47013 0)
(4.44762 1.22463 -4.01959e-19)
(4.56061 0.888405 -3.3544e-20)
(4.56082 0.548236 6.59591e-20)
(4.45388 0.242883 -6.92443e-20)
(4.2646 -0.0360043 2.03095e-20)
(4.24629 1.39359 -1.06546e-18)
(4.05335 1.62417 1.05366e-18)
(4.03345 1.58466 -7.83076e-19)
(4.08979 1.61577 6.03374e-19)
(4.27121 1.50962 0)
(4.53759 1.09878 4.55438e-19)
(4.69614 0.711533 -4.45188e-19)
(4.74522 0.353517 1.23539e-19)
(4.69695 0.033381 -4.68691e-19)
(4.55493 -0.227052 3.15784e-19)
(4.33306 -0.395216 1.95282e-19)
(3.94315 1.43824 0)
(3.83942 1.58988 3.32644e-19)
(3.97481 1.46424 -4.92277e-19)
(4.22053 1.21869 -7.63923e-19)
(4.45052 0.767904 6.26954e-20)
(4.61085 0.387648 -6.27416e-19)
(4.69702 0.0523337 2.25126e-20)
(4.71297 -0.247894 -2.23165e-19)
(4.65022 -0.506098 2.21409e-19)
(4.48896 -0.703907 -4.53759e-19)
(4.22805 -0.830838 0)
(3.41544 1.63074 2.25555e-18)
(3.95759 0.975142 -8.32129e-19)
(4.16191 0.811746 8.70905e-21)
(4.34109 0.41466 0)
(4.47308 0.0748636 -5.05164e-19)
(4.56839 -0.213584 3.64274e-19)
(4.62862 -0.46514 0)
(4.64995 -0.686104 5.27346e-19)
(4.61508 -0.878538 3.04293e-19)
(4.48714 -1.02752 0)
(4.21319 -1.11054 0)
(4.12447 0.455957 1.83876e-18)
(4.20682 0.520552 -1.44847e-19)
(4.2888 0.0666085 9.16296e-19)
(4.34787 -0.201323 4.10429e-19)
(4.41323 -0.406174 -1.05526e-20)
(4.48381 -0.58635 -3.22335e-20)
(4.55158 -0.75181 4.56084e-19)
(4.60419 -0.909889 -3.23938e-19)
(4.62055 -1.06487 3.42367e-19)
(4.563 -1.19709 -2.41478e-19)
(4.36515 -1.27339 0)
(6.03053 0.33127 0)
(5.43558 0.498929 1.46984e-19)
(4.93605 0.247925 -1.11285e-19)
(4.51267 0.0705824 0)
(4.12975 -0.0197565 0)
(3.78779 -0.0557291 -1.8524e-20)
(3.49418 -0.0723888 -2.79839e-20)
(3.25105 -0.0945204 6.41741e-20)
(3.05058 -0.136079 -3.25323e-20)
(2.88355 -0.199445 0)
(2.75341 -0.274761 -1.4355e-20)
(4.79319 2.21333 0)
(4.84509 1.79788 4.72802e-20)
(4.76106 1.367 8.63685e-19)
(4.54022 0.96967 9.44327e-20)
(4.22808 0.665825 3.9086e-20)
(3.88079 0.458017 0)
(3.5499 0.318063 2.10055e-19)
(3.26444 0.211226 -2.89475e-19)
(3.02745 0.11117 1.20144e-19)
(2.83039 0.00519498 0)
(2.67528 -0.0986075 -9.47882e-20)
(3.93739 2.74481 5.85378e-19)
(4.22085 2.3707 -2.05701e-20)
(4.33969 2.06233 -4.07631e-19)
(4.3099 1.69242 0)
(4.1318 1.32675 -2.82563e-19)
(3.85042 1.01315 -2.01657e-19)
(3.53288 0.763987 -5.96851e-20)
(3.23421 0.565714 3.08193e-19)
(2.97738 0.396646 0)
(2.76242 0.241568 0)
(2.58946 0.1065 2.05056e-19)
(3.64893 2.77287 -1.18996e-18)
(3.8126 2.57842 1.44814e-18)
(3.93146 2.42339 -4.31351e-19)
(3.97441 2.17321 0)
(3.89136 1.85811 0)
(3.68656 1.52804 0)
(3.41101 1.21844 4.99119e-19)
(3.12665 0.943562 -2.93633e-19)
(2.87061 0.701751 0)
(2.65235 0.485857 1.17248e-19)
(2.47641 0.305948 7.32792e-20)
(3.72798 2.63953 0)
(3.71012 2.5899 0)
(3.70925 2.54161 0)
(3.70239 2.41958 -7.39861e-19)
(3.62883 2.2135 3.78724e-19)
(3.45925 1.94489 2.40864e-19)
(3.21624 1.64053 -3.36284e-19)
(2.95392 1.32511 -4.92231e-20)
(2.71366 1.02053 3.60037e-20)
(2.50482 0.745823 1.41468e-19)
(2.329 0.527665 -1.55629e-19)
(3.8092 2.51231 8.58926e-19)
(3.74059 2.52386 6.7677e-19)
(3.66792 2.50694 -5.09344e-19)
(3.5792 2.46713 -1.72799e-19)
(3.45129 2.36618 3.839e-21)
(3.25247 2.20559 1.9711e-19)
(2.98465 1.98678 -1.57141e-19)
(2.70056 1.70141 0)
(2.45733 1.36858 0)
(2.26612 1.03874 -1.70977e-19)
(2.11984 0.765068 -5.46704e-20)
(3.88928 2.41208 -2.22072e-21)
(3.78997 2.46586 4.66517e-19)
(3.6974 2.43478 3.80733e-20)
(3.5617 2.40894 -2.89718e-20)
(3.38513 2.34639 2.12191e-19)
(3.13949 2.23775 -1.9218e-19)
(2.8226 2.0838 0)
(2.47959 1.86571 3.34846e-20)
(2.19696 1.56562 -4.38443e-20)
(2.00672 1.22997 0)
(1.87689 0.944806 7.65006e-20)
(3.97437 2.33921 5.12397e-21)
(3.84772 2.42432 -3.71035e-21)
(3.7528 2.3769 -3.58825e-20)
(3.5886 2.35136 3.68926e-19)
(3.37725 2.29571 -2.63096e-19)
(3.10035 2.20643 3.53996e-20)
(2.73465 2.08038 -5.95954e-21)
(2.31649 1.91329 -2.40564e-20)
(1.95446 1.66656 4.84924e-20)
(1.73547 1.34638 -6.72277e-21)
(1.62049 1.05644 2.1232e-20)
(4.05925 2.28743 -4.81584e-21)
(3.91433 2.38813 -1.4244e-19)
(3.82679 2.32356 1.31921e-19)
(3.6461 2.29889 -6.75403e-21)
(3.41333 2.23995 0)
(3.10932 2.15082 -4.03911e-21)
(2.71843 2.02899 5.77528e-21)
(2.24742 1.87756 2.28012e-20)
(1.78035 1.67244 -1.37512e-20)
(1.48358 1.37958 -8.03717e-21)
(1.35745 1.0934 0)
(4.13666 2.24879 0)
(3.98802 2.35264 -1.24723e-20)
(3.91013 2.26862 -3.75497e-20)
(3.71912 2.2467 1.54468e-20)
(3.48019 2.17826 2.123e-20)
(3.16226 2.08247 -4.5538e-20)
(2.74981 1.95247 4.4312e-20)
(2.24518 1.78922 1.60816e-19)
(1.70838 1.59861 -5.59533e-20)
(1.29212 1.33187 -1.30153e-19)
(1.11192 1.05781 5.51148e-20)
(4.2146 2.1991 0)
(4.07458 2.31334 0)
(3.98905 2.21151 4.88191e-20)
(3.79749 2.19136 1.67734e-20)
(3.56419 2.1082 -2.07569e-20)
(3.24619 1.99993 -4.92864e-20)
(2.82702 1.85606 -2.13701e-19)
(2.30185 1.67244 -3.04779e-19)
(1.7138 1.4623 2.30051e-19)
(1.2043 1.2092 8.34287e-20)
(0.928321 0.949991 9.81331e-20)
(4.30287 2.12739 0)
(4.15325 2.28065 0)
(4.06109 2.15889 -4.77431e-20)
(3.88385 2.12177 0)
(3.65759 2.02731 1.50584e-19)
(3.34925 1.90231 9.25798e-20)
(2.93926 1.73744 1.68033e-19)
(2.41314 1.52887 4.15602e-19)
(1.79752 1.29017 0)
(1.21506 1.02114 0)
(0.84295 0.774993 3.19326e-19)
(4.38496 2.06201 0)
(4.22164 2.2382 0)
(4.13709 2.10278 0)
(3.96851 2.04446 -6.23658e-19)
(3.75098 1.93624 1.68289e-19)
(3.46039 1.78901 3.50912e-19)
(3.07442 1.59673 -5.87719e-19)
(2.57147 1.35741 5.18997e-19)
(1.95716 1.08747 -3.65685e-19)
(1.33427 0.788185 0)
(0.861922 0.541524 -3.1675e-19)
(4.45778 2.00228 -4.23875e-19)
(4.28507 2.18424 2.64146e-19)
(4.20724 2.04003 -5.64328e-19)
(4.04679 1.9589 1.40243e-19)
(3.84138 1.83227 3.99482e-19)
(3.57166 1.65923 6.25772e-20)
(3.21969 1.4348 -3.14075e-19)
(2.76397 1.16097 -1.20696e-18)
(2.18682 0.857221 4.43602e-19)
(1.55233 0.535314 0)
(1.0122 0.244454 0)
(4.52079 1.94635 -7.16985e-19)
(4.34437 2.11828 3.27294e-19)
(4.27016 1.96775 0)
(4.11982 1.86292 0)
(3.92797 1.71264 2.68234e-19)
(3.68096 1.50874 -1.42446e-18)
(3.36673 1.25089 1.54358e-18)
(2.97182 0.947378 2.82395e-21)
(2.47006 0.613773 5.06268e-19)
(1.8665 0.269304 0)
(1.30827 -0.0901768 0)
(4.57075 1.88991 4.58762e-19)
(4.39383 2.03897 -2.20762e-19)
(4.32196 1.88178 0)
(4.1843 1.75085 0)
(4.01017 1.5703 3.34633e-19)
(3.79116 1.33197 -5.30456e-19)
(3.51979 1.04525 1.69327e-18)
(3.18687 0.71975 -2.09553e-18)
(2.77286 0.366204 1.12675e-18)
(2.25763 0.00580112 -1.30659e-18)
(1.74235 -0.429435 0)
(4.60348 1.82908 -5.31484e-19)
(4.42918 1.94354 -1.66551e-20)
(4.35974 1.77667 6.51062e-19)
(4.23749 1.61447 -2.78713e-19)
(4.08736 1.39572 -2.37808e-19)
(3.90456 1.1295 -1.0149e-18)
(3.68458 0.825177 0)
(3.41857 0.487789 -7.6941e-19)
(3.09065 0.12398 5.73115e-19)
(2.68008 -0.250179 8.84065e-19)
(2.26348 -0.69032 -6.3471e-19)
(4.6128 1.7578 -1.53966e-19)
(4.44409 1.82499 1.21794e-18)
(4.3772 1.64195 3.04038e-19)
(4.27344 1.43986 4.53534e-19)
(4.1532 1.19412 3.91312e-19)
(4.01578 0.913776 6.36721e-19)
(3.85534 0.598551 -8.71763e-19)
(3.66305 0.252107 0)
(3.42637 -0.118726 -6.01177e-19)
(3.13154 -0.505047 4.43174e-19)
(2.82525 -0.930598 1.25229e-18)
(4.59102 1.66873 -1.93422e-18)
(4.42828 1.67819 1.22322e-18)
(4.36124 1.47164 -9.9157e-19)
(4.27649 1.24616 -2.70767e-19)
(4.1928 0.988804 -6.57801e-20)
(4.10827 0.69579 5.2834e-19)
(4.01621 0.369931 0)