/*--------------------------------*- C++ -*----------------------------------*\
| =========                 |                                                 |
| \\      /  F ield         | OpenFOAM: The Open Source CFD Toolbox           |
|  \\    /   O peration     | Version:  3.0.1                                 |
|   \\  /    A nd           | Web:      www.OpenFOAM.org                      |
|    \\/     M anipulation  |                                                 |
\*---------------------------------------------------------------------------*/
FoamFile
{
    version     2.0;
    format      ascii;
    class       volScalarField;
    location    "0.981281";
    object      k;
}
// * * * * * * * * * * * * * * * * * * * * * * * * * * * * * * * * * * * * * //

dimensions      [0 2 -2 0 0 0 0];

internalField   nonuniform List<scalar> 
21246
(
1.29283
1.7623
1.1849
0.696574
0.388933
0.214043
0.117253
0.0639881
0.0349531
0.0196074
0.011989
0.85523
1.18545
0.928803
0.610416
0.368678
0.213761
0.120157
0.0657466
0.0355012
0.0195521
0.0117057
0.614199
0.958695
0.845681
0.626454
0.402802
0.241785
0.138738
0.0765585
0.0410403
0.022022
0.0127598
0.508939
0.76005
0.714688
0.588774
0.415032
0.263055
0.154573
0.0860093
0.046054
0.0243503
0.0137768
0.457238
0.64631
0.616373
0.526461
0.386245
0.253631
0.152819
0.0866349
0.0470478
0.025118
0.0140931
0.422879
0.55895
0.54031
0.466273
0.345261
0.23142
0.143558
0.0840123
0.0469374
0.0256194
0.0146762
0.398184
0.493151
0.478304
0.41207
0.307325
0.208793
0.132312
0.0795527
0.0457443
0.0256158
0.0148856
0.379493
0.441767
0.427648
0.366545
0.274068
0.187715
0.120822
0.0742736
0.0438274
0.0252125
0.0152574
0.364936
0.400889
0.386475
0.329498
0.246429
0.169619
0.110443
0.0691594
0.0418165
0.0247371
0.0153727
0.353296
0.367521
0.353082
0.299992
0.224347
0.154943
0.101768
0.0646909
0.0399423
0.024197
0.0152459
0.343752
0.339707
0.325586
0.276276
0.206756
0.143223
0.0947342
0.0609551
0.038273
0.0236098
0.0152268
0.335885
0.316346
0.302545
0.256759
0.19249
0.133805
0.0890767
0.0579235
0.0368996
0.0231426
0.0151997
0.329829
0.296535
0.283328
0.240933
0.181197
0.126487
0.0847312
0.0556247
0.0359006
0.0228522
0.015205
0.325672
0.279737
0.267469
0.228538
0.172755
0.121215
0.0817023
0.0541014
0.0353107
0.0227258
0.0152903
0.322783
0.265411
0.254066
0.218634
0.166498
0.117625
0.079822
0.0533023
0.035144
0.0228108
0.0154303
0.321506
0.25302
0.242796
0.211039
0.162359
0.115727
0.0791414
0.0532885
0.0354648
0.0231646
0.0157109
0.321396
0.242501
0.232877
0.205173
0.16037
0.115848
0.0799959
0.0543047
0.0364422
0.0238751
0.0161775
0.322312
0.233453
0.223784
0.200076
0.15965
0.117513
0.0822668
0.0563703
0.038153
0.02517
0.0170524
0.324491
0.225673
0.215366
0.19556
0.160002
0.120685
0.086093
0.0596938
0.0407538
0.0271551
0.0183905
0.328393
0.219074
0.207404
0.191302
0.161066
0.125219
0.0916353
0.0646427
0.0446433
0.0301288
0.0204342
0.3348
0.213678
0.199612
0.186803
0.162208
0.130692
0.0989346
0.0716974
0.0504976
0.0347029
0.0237096
0.345492
0.208931
0.19171
0.181383
0.162436
0.136228
0.107656
0.0811985
0.059153
0.04188
0.0291478
0.360459
0.204161
0.182766
0.174499
0.161016
0.140878
0.117037
0.0929932
0.0712005
0.0527988
0.0381715
0.373986
0.199607
0.180588
0.171473
0.16073
0.145425
0.126572
0.106216
0.0862206
0.0678636
0.0519725
1.31149
2.33896
1.38311
0.910419
0.551629
0.294381
0.151456
0.0788045
0.0414417
0.0224521
0.0133125
1.23826
1.9478
1.46435
1.04867
0.71313
0.402098
0.211856
0.108945
0.0553374
0.0284941
0.0158177
1.03663
1.52379
1.37519
1.06442
0.776246
0.491553
0.275132
0.147149
0.0748409
0.0374078
0.0199206
0.773829
1.30585
1.26532
1.02705
0.781325
0.533722
0.329151
0.186618
0.0981715
0.0495337
0.0266244
0.531049
1.2673
1.19624
0.98606
0.76455
0.547075
0.36666
0.222588
0.123071
0.0639666
0.0347875
0.382505
1.30088
1.17788
0.962074
0.74565
0.547275
0.387875
0.254184
0.147786
0.080028
0.0448876
0.363111
1.37519
1.20145
0.957294
0.731256
0.542569
0.399434
0.278037
0.172571
0.0967998
0.054674
0.395715
1.45836
1.25333
0.968591
0.721966
0.536045
0.405175
0.295256
0.194174
0.115072
0.0659666
0.424975
1.52192
1.32524
0.995649
0.718838
0.529739
0.407631
0.307892
0.212333
0.132076
0.0788982
0.44407
1.54826
1.40524
1.0376
0.722945
0.525146
0.408476
0.317448
0.227848
0.147861
0.0906359
0.452179
1.52691
1.47958
1.09269
0.735969
0.523942
0.409121
0.325092
0.241452
0.162628
0.102077
0.45436
1.48412
1.54029
1.15426
0.7566
0.526308
0.410171
0.331471
0.253616
0.176651
0.113035
0.452946
1.44013
1.57758
1.21635
0.784792
0.533208
0.412555
0.337329
0.264873
0.190494
0.124405
0.445514
1.37666
1.58257
1.27492
0.821185
0.545989
0.417363
0.34346
0.275747
0.204537
0.137018
0.436006
1.30821
1.56163
1.32338
0.863016
0.564726
0.4253
0.350534
0.286674
0.218994
0.151508
0.427342
1.23888
1.51922
1.35566
0.907659
0.589662
0.437555
0.359675
0.298412
0.234463
0.167942
0.421503
1.15736
1.45738
1.36583
0.950451
0.620632
0.455444
0.372445
0.312083
0.25155
0.186964
0.412693
1.06576
1.37222
1.34678
0.983623
0.65562
0.480705
0.39129
0.329562
0.271202
0.208902
0.402257
0.967496
1.24587
1.2906
0.996298
0.691974
0.516227
0.420814
0.35472
0.29579
0.234558
0.39099
0.865972
1.07925
1.16942
0.986564
0.731872
0.570072
0.470115
0.395138
0.330214
0.26669
0.374424
0.728582
0.871875
0.960189
0.933667
0.770236
0.638029
0.534859
0.446181
0.36968
0.298305
0.42377
0.706498
0.741432
0.770349
0.752752
0.67577
0.583123
0.490565
0.401315
0.320403
0.244912
0.346088
0.722562
0.776223
0.626323
0.517603
0.415195
0.327633
0.257352
0.200175
0.154302
0.117374
0.381818
0.299289
0.239265
0.203036
0.179077
0.159431
0.140801
0.122158
0.103564
0.0855825
0.0687875
0.402211
0.516681
0.200048
0.0990064
0.0462924
0.024801
0.0168598
0.0138134
0.0124352
0.0116797
0.0111723
0.441827
0.632056
0.261803
0.126345
0.0588507
0.0290941
0.0179031
0.0138461
0.0121355
0.0112347
0.0106231
0.464811
0.581914
0.296988
0.15251
0.0694996
0.0341009
0.019478
0.0141585
0.0120173
0.0109485
0.0102594
0.463803
0.5243
0.30769
0.164166
0.0780882
0.0387671
0.0212652
0.0146557
0.0120449
0.0108009
0.0100499
0.442996
0.492901
0.309283
0.169221
0.0848731
0.0429483
0.0231063
0.0152945
0.0121996
0.0107731
0.00997778
0.409466
0.47765
0.310968
0.174757
0.0914449
0.047661
0.0251305
0.0160723
0.012474
0.0108505
0.00999655
0.368546
0.472383
0.315237
0.182291
0.0986958
0.0525368
0.0279335
0.017153
0.0128645
0.0110196
0.0100861
0.324572
0.475046
0.322323
0.191228
0.106459
0.0577975
0.031158
0.0186574
0.0134854
0.0112922
0.0102451
0.282062
0.481281
0.333585
0.202096
0.115066
0.0637131
0.0348892
0.0205736
0.0143473
0.011702
0.0104853
0.243447
0.488018
0.350317
0.216342
0.12543
0.0707787
0.0393791
0.0230182
0.0155198
0.0122676
0.0108152
0.209507
0.497234
0.372333
0.234093
0.137703
0.0790539
0.0447222
0.0260715
0.0170715
0.013033
0.0112453
0.182148
0.512334
0.399871
0.255101
0.151556
0.0882986
0.0508328
0.0297534
0.0190562
0.0140505
0.0118046
0.163736
0.530506
0.433928
0.280818
0.167888
0.098887
0.0578837
0.0341905
0.0215793
0.0153946
0.0125394
0.154024
0.546889
0.474469
0.313366
0.188298
0.11164
0.0662564
0.0396005
0.0248042
0.0171838
0.0135163
0.153002
0.5675
0.521819
0.353357
0.213353
0.12686
0.0760874
0.0460851
0.0288607
0.0195482
0.0148436
0.160264
0.588884
0.574574
0.403001
0.245319
0.145919
0.0880811
0.0540119
0.0340011
0.022693
0.0166675
0.172626
0.602969
0.627456
0.464129
0.287823
0.171396
0.103691
0.0641602
0.0406915
0.0269515
0.0192381
0.182369
0.604936
0.671498
0.534572
0.343668
0.206271
0.124953
0.0777618
0.0496861
0.032844
0.0229531
0.188278
0.593136
0.696257
0.606604
0.414761
0.255103
0.155661
0.0973399
0.0625674
0.0413982
0.0285202
0.189316
0.566269
0.69137
0.663003
0.497243
0.323011
0.202134
0.127867
0.0827155
0.0548261
0.0374265
0.184911
0.514478
0.64924
0.682971
0.578184
0.413655
0.274631
0.179179
0.117579
0.0783108
0.0531827
0.196576
0.466277
0.591454
0.673179
0.640922
0.521122
0.382444
0.266373
0.181704
0.123633
0.0845259
0.183305
0.389549
0.464606
0.528999
0.549671
0.5216
0.450571
0.358702
0.270266
0.197975
0.142099
0.237995
0.480441
0.483935
0.515979
0.524501
0.505919
0.462147
0.396157
0.325116
0.259672
0.20171
0.32707
0.349053
0.170272
0.077637
0.0391802
0.0231884
0.0168455
0.0142038
0.0129548
0.0122691
0.0118208
0.26769
0.282266
0.14751
0.0823124
0.0435641
0.0257822
0.0183024
0.0151799
0.0137763
0.0130788
0.0126992
0.282223
0.297303
0.147843
0.0976754
0.0544823
0.0318993
0.0211784
0.0166813
0.014793
0.0139673
0.0136219
0.29431
0.28364
0.141842
0.103815
0.0618189
0.037984
0.0251011
0.0190034
0.016252
0.0150588
0.0146093
0.301895
0.252342
0.137185
0.104747
0.0633504
0.0397826
0.0264616
0.0200901
0.0172025
0.0159561
0.0155358
0.306302
0.223415
0.132196
0.101526
0.0622963
0.0403274
0.0272429
0.0208574
0.0179187
0.01669
0.0163688
0.30902
0.200841
0.127199
0.0971013
0.0603964
0.0402416
0.027597
0.0214077
0.0185058
0.0172817
0.0169672
0.310201
0.183532
0.122324
0.0927086
0.0585886
0.0399518
0.0277803
0.0218339
0.0189798
0.0177499
0.0173994
0.311123
0.17024
0.118139
0.0891574
0.057384
0.0396845
0.0279757
0.0222272
0.0194264
0.0182264
0.017919
0.312516
0.160337
0.114752
0.0864524
0.0568488
0.039643
0.0282751
0.0226296
0.0198539
0.0186843
0.0184174
0.314787
0.153125
0.112381
0.0848941
0.0569454
0.0399603
0.0287435
0.0230771
0.0202675
0.0190949
0.0188251
0.317797
0.147635
0.110632
0.0842346
0.0575934
0.0406566
0.0294108
0.0236001
0.0206836
0.0194708
0.0192277
0.321951
0.143542
0.109548
0.0844255
0.0588532
0.0418038
0.0303407
0.0242448
0.0211283
0.0198166
0.0195968
0.325444
0.141956
0.109158
0.0854003
0.0609108
0.0435845
0.0317091
0.0251249
0.0216688
0.0201567
0.0198731
0.328157
0.141599
0.109016
0.086653
0.0635689
0.0460119
0.0336885
0.0264286
0.0224678
0.0206161
0.0201449
0.33026
0.14246
0.109169
0.0881634
0.0667483
0.0491697
0.0363957
0.0283241
0.0236744
0.0213122
0.0204995
0.331882
0.144703
0.109732
0.0899218
0.0703792
0.0531325
0.0399809
0.0310352
0.0255163
0.0224433
0.0210955
0.333096
0.148134
0.110782
0.0918743
0.0743195
0.0578795
0.0445767
0.0348205
0.0283106
0.0243272
0.0222226
0.33401
0.152717
0.112486
0.0940114
0.0784117
0.0632984
0.0502587
0.0399449
0.0324639
0.0274315
0.0243573
0.334804
0.15854
0.11515
0.0964174
0.0825051
0.0691407
0.0569466
0.0465766
0.0383959
0.0323599
0.02821
0.33576
0.165589
0.119086
0.0992846
0.0864602
0.0749735
0.0642246
0.0545255
0.0462665
0.0396243
0.0345863
0.337589
0.173354
0.124418
0.102845
0.0901517
0.0801305
0.0710932
0.0627648
0.0552912
0.0488587
0.0435901
0.340781
0.182807
0.131772
0.107606
0.0936913
0.0839354
0.0760151
0.0691364
0.0630763
0.057793
0.0532786
0.358602
0.194922
0.152745
0.132412
0.120395
0.111498
0.104004
0.100779
0.100319
0.101324
0.102146
0.460509
0.824828
0.799746
0.752357
0.642726
0.461983
0.305261
0.204716
0.144062
0.103385
0.0746799
0.376603
0.598198
0.667165
0.670657
0.6148
0.484663
0.330975
0.20606
0.133413
0.0913272
0.0639719
0.252349
0.44288
0.541109
0.57534
0.556887
0.472678
0.344748
0.218722
0.133418
0.0831901
0.0551273
0.142204
0.361243
0.445032
0.487974
0.490513
0.439132
0.340131
0.225685
0.136035
0.0804033
0.0496404
0.0884737
0.314953
0.377768
0.415882
0.426722
0.396052
0.321639
0.22374
0.137114
0.078982
0.0459157
0.0783354
0.258899
0.324513
0.356534
0.368985
0.350449
0.294781
0.213626
0.134514
0.0772311
0.0431927
0.0712097
0.203505
0.272996
0.305366
0.317461
0.30577
0.263668
0.197329
0.127732
0.074039
0.0407015
0.0626829
0.161934
0.2217
0.257687
0.27135
0.263587
0.231114
0.177077
0.117404
0.0691324
0.0379565
0.0547472
0.129898
0.17843
0.212598
0.229693
0.224712
0.199205
0.155167
0.104976
0.0630243
0.0350039
0.0477318
0.105297
0.14422
0.173734
0.192025
0.189774
0.169595
0.133778
0.0922358
0.0566726
0.0321948
0.041959
0.0868662
0.118351
0.142508
0.159776
0.159495
0.143628
0.114698
0.0807586
0.0510287
0.0298398
0.0376211
0.0736177
0.099782
0.119101
0.133942
0.134772
0.122449
0.0992744
0.0716717
0.0467697
0.0282912
0.0343508
0.0641396
0.086976
0.102497
0.11457
0.116098
0.106724
0.0882359
0.0655605
0.0442525
0.0276811
0.0320487
0.0573021
0.0781648
0.0909916
0.101067
0.103143
0.096242
0.08145
0.0623723
0.0434821
0.0279803
0.0302478
0.0526263
0.0723069
0.0835081
0.0923783
0.0949958
0.0901538
0.0782392
0.0617253
0.0443452
0.0292786
0.0286508
0.0494588
0.0685549
0.0789097
0.0872719
0.0906035
0.0876163
0.0780479
0.0633811
0.0467893
0.0315465
0.0270929
0.0471899
0.066083
0.07616
0.0846531
0.0891423
0.0881751
0.0807698
0.0674727
0.0510331
0.0349441
0.0254971
0.0455947
0.0643778
0.074552
0.0839921
0.0905941
0.0923378
0.0872305
0.0748742
0.0578379
0.0401036
0.0238474
0.0444752
0.0629674
0.0738651
0.0858846
0.0964605
0.102247
0.0996992
0.0875912
0.0686145
0.047733
0.0220552
0.0432917
0.0619602
0.0758776
0.0940241
0.11186
0.123218
0.12243
0.108408
0.0854206
0.0593495
0.0217571
0.050489
0.0669992
0.0836245
0.112079
0.137944
0.152938
0.153829
0.138021
0.108672
0.0759607
0.036832
0.0586292
0.0731395
0.115818
0.154308
0.181982
0.196854
0.195744
0.176055
0.139328
0.0967592
0.0388471
0.105029
0.148054
0.191187
0.225177
0.244536
0.248566
0.239881
0.219285
0.180571
0.126712
0.174609
0.220821
0.266658
0.295466
0.305126
0.296516
0.275617
0.250635
0.228391
0.202033
0.157771
0.489625
0.839476
0.843962
0.765094
0.624489
0.459913
0.320778
0.226633
0.165464
0.121193
0.0874384
0.290343
0.533344
0.670853
0.711397
0.654337
0.526681
0.385324
0.276516
0.203482
0.149737
0.107089
0.131284
0.292289
0.461997
0.593614
0.642274
0.586069
0.46107
0.339103
0.252681
0.188598
0.136887
0.0804658
0.154564
0.279004
0.425809
0.549773
0.588381
0.519168
0.402313
0.308005
0.235124
0.17303
0.0798827
0.126491
0.193739
0.294945
0.421924
0.522122
0.529365
0.442641
0.354721
0.285416
0.219826
0.0837562
0.130004
0.179761
0.24412
0.334175
0.439603
0.502886
0.456002
0.361682
0.305558
0.255168
0.0883179
0.137089
0.181061
0.230796
0.297156
0.38454
0.464469
0.463891
0.366778
0.299951
0.270336
0.0932467
0.145349
0.18645
0.227568
0.278378
0.349968
0.431244
0.463415
0.389542
0.293598
0.26716
0.0983599
0.154424
0.194031
0.228524
0.266872
0.323091
0.398064
0.450942
0.408391
0.302108
0.255553
0.103518
0.164173
0.202952
0.231414
0.259169
0.3006
0.364336
0.427745
0.415833
0.317414
0.244544
0.108757
0.174411
0.21257
0.2351
0.254082
0.282053
0.331802
0.396766
0.410976
0.330774
0.240464
0.114302
0.185079
0.223027
0.239718
0.251179
0.267793
0.303279
0.362837
0.396689
0.337409
0.241454
0.120397
0.195772
0.233201
0.245366
0.249815
0.257303
0.279604
0.325266
0.373851
0.338328
0.243973
0.126994
0.207157
0.243814
0.251417
0.249114
0.249212
0.262699
0.293975
0.335324
0.330225
0.244977
0.133507
0.219393
0.255605
0.258493
0.248995
0.241301
0.246339
0.266073
0.295408
0.304144
0.251322
0.140434
0.233475
0.269767
0.26784
0.250434
0.234108
0.230411
0.240669
0.261034
0.273031
0.251401
0.148077
0.250489
0.287915
0.281506
0.255547
0.229715
0.217043
0.220126
0.233266
0.243965
0.237345
0.15667
0.271916
0.312759
0.303342
0.268472
0.231228
0.208276
0.204133
0.211019
0.219144
0.21994
0.166495
0.299715
0.348467
0.339815
0.296204
0.243618
0.208046
0.193788
0.192521
0.195331
0.195628
0.175864
0.332799
0.392574
0.385819
0.334326
0.270009
0.220956
0.195016
0.184839
0.181129
0.177054
0.176998
0.356926
0.423681
0.423525
0.372809
0.301167
0.241271
0.206297
0.190816
0.185685
0.184599
0.178788
0.365363
0.437433
0.441495
0.393953
0.322164
0.258361
0.218391
0.19954
0.193927
0.196756
0.186997
0.365594
0.423848
0.426548
0.385821
0.324443
0.266803
0.227192
0.205845
0.196448
0.189131
0.253687
0.363415
0.388078
0.378256
0.34849
0.307153
0.265301
0.230815
0.210088
0.195776
0.171365
0.104652
0.112557
0.119433
0.120407
0.11983
0.117289
0.110603
0.100952
0.0869632
0.154095
0.173556
0.195348
0.200034
0.18572
0.169804
0.149317
0.124753
0.0988484
0.147176
0.168165
0.193307
0.201872
0.18824
0.169244
0.146996
0.128037
0.109413
0.129133
0.145542
0.16754
0.176507
0.164811
0.149508
0.131882
0.115408
0.101306
0.0932536
0.078489
0.0576759
0.0252167
0.016612
0.015059
0.0120592
0.0303013
0.0650621
0.129647
0.101901
0.0746519
0.0527843
0.0288812
0.0244491
0.0294466
0.0504411
0.073327
0.131423
0.114272
0.0905161
0.0644177
0.0358192
0.030475
0.0371635
0.0593327
0.0855492
0.117817
0.104976
0.0894886
0.0685362
0.0428987
0.0374722
0.0427005
0.0624078
0.0842866
0.00442748
0.00460082
0.00461624
0.00211558
0.0465615
0.00439065
0.011591
0.00453914
0.00438343
0.00424234
0.0464232
0.0045498
0.00371657
0.00329468
0.00448381
0.0043022
0.00330949
0.00209905
0.00429121
0.00424752
0.00411892
0.00449218
0.00466636
0.0185643
0.00449431
0.00330604
0.00376707
0.0112274
0.0902281
0.0486755
0.0034027
0.00410604
0.00298808
0.00453411
0.00426253
0.00459193
0.0172859
0.00448966
0.00291433
0.00440056
0.00718695
0.0045433
0.00674957
0.00465921
0.0616727
0.0132413
0.00331564
0.0209334
0.00429779
0.0043162
0.0489132
0.00440557
0.00765454
0.00681001
0.00431375
0.00412539
0.00434625
0.00441171
0.0886252
0.00357466
0.00559432
0.00579445
0.0522324
0.00793646
0.00856483
0.00425832
0.052129
0.00425153
0.00460155
0.00423105
0.00329715
0.00431377
0.003118
0.00466511
0.00450482
0.00428632
0.00464942
0.00459619
0.00934645
0.0732935
0.0451459
0.00636224
0.00449577
0.00462556
0.00437502
0.00313721
0.104687
0.00512492
0.00319515
0.0181964
0.00454195
0.00442121
0.00745835
0.0043324
0.0723865
0.0267942
0.00272644
0.00396842
0.00352182
0.00441569
0.00469972
0.020951
0.00416508
0.00402774
0.0028277
0.00454892
0.00304796
0.00464634
0.00435942
0.00419807
0.00450563
0.00455827
0.00429527
0.00223537
0.0041661
0.00442453
0.0043875
0.00431288
0.00449316
0.00413993
0.00227208
0.00455809
0.00483737
0.0032578
0.0122963
0.00414609
0.0600296
0.00304536
0.00322371
0.00354385
0.00445471
0.00357474
0.0206987
0.00429252
0.00461469
0.00454872
0.00429494
0.00430599
0.0497804
0.00447103
0.00702517
0.00412569
0.0239339
0.00402443
0.00437845
0.00327403
0.00447189
0.00425577
0.004324
0.00423785
0.00426244
0.00441948
0.00354287
0.00453749
0.00224507
0.00375873
0.00378569
0.0037968
0.00320808
0.00435691
0.00364095
0.00428718
0.0043076
0.00443419
0.0532932
0.00584221
0.00364018
0.00450026
0.00410885
0.00822912
0.00308273
0.00309715
0.00435291
0.00406047
0.00409619
0.00396482
0.00316469
0.00358893
0.0622281
0.0039306
0.00425868
0.00459412
0.00465973
0.0139597
0.00449678
0.00382181
0.00424086
0.00429719
0.00458759
0.0125506
0.00418874
0.00341738
0.00427124
0.00676649
0.00460976
0.00439776
0.00435056
0.00358865
0.00363065
0.00467915
0.00317016
0.00430705
0.00407125
0.00350517
0.00462803
0.00519543
0.00431265
0.00321631
0.00433859
0.00433805
0.0212478
0.00439576
0.00401485
0.00422328
0.00448999
0.0041461
0.00450887
0.00376219
0.00425577
0.00316289
0.00289937
0.00217885
0.00278015
0.00416976
0.00321612
0.00441644
0.00981295
0.0056101
0.00395496
0.0228565
0.00389109
0.0042556
0.0042552
0.00460415
0.00350262
0.0649545
0.0496607
0.00464642
0.00455563
0.0045434
0.00378706
0.00844875
0.00401887
0.00558525
0.00434796
0.00477573
0.00451628
0.00359836
0.0330392
0.0582262
0.00358505
0.0214549
0.00511586
0.0042949
0.00396135
0.00436215
0.00414642
0.00447552
0.00314748
0.00423586
0.00339308
0.00457182
0.00432555
0.00457194
0.00450399
0.00311489
0.00412919
0.00429611
0.00559396
0.00372451
0.0220067
0.00430636
0.00429989
0.00320325
0.00438521
0.0043263
0.00332037
0.00444454
0.00428497
0.00313194
0.00436043
0.00459732
0.0453518
0.0465684
0.003961
0.00439255
0.0766515
0.00458526
0.004255
0.00683221
0.00461555
0.0114589
0.004616
0.00296676
0.00467824
0.00434851
0.00409484
0.00456177
0.00426142
0.00334828
0.00444638
0.00244802
0.00437054
0.0490967
0.00415677
0.00419356
0.00459672
0.0157437
0.00441393
0.00435133
0.0075438
0.00456234
0.00409948
0.00298352
0.00525551
0.00410656
0.00368319
0.00320848
0.0041298
0.00444938
0.00424054
0.0357072
0.00435726
0.00339297
0.00547947
0.00427772
0.0044527
0.00370679
0.00423966
0.02957
0.00425906
0.0527537
0.00413578
0.00465171
0.00354583
0.0414652
0.00341172
0.00458442
0.00447084
0.00394807
0.00405531
0.020479
0.00429516
0.00569802
0.0208274
0.0158771
0.0043309
0.00438
0.0145945
0.0643031
0.00874254
0.00393083
0.00374179
0.00417389
0.00394508
0.00468916
0.00293361
0.00399792
0.00466035
0.036664
0.00386318
0.00333422
0.00451642
0.00451178
0.00430796
0.00335093
0.00308663
0.00326963
0.0103907
0.00482605
0.00443819
0.0119149
0.0387036
0.00319939
0.00387838
0.00460677
0.00391787
0.00424971
0.00437227
0.00424348
0.0379418
0.00438194
0.00317976
0.00442231
0.00340509
0.0499045
0.00235574
0.00320124
0.00827263
0.00344243
0.00442909
0.00518801
0.00310327
0.00477398
0.0513801
0.00879911
0.00447832
0.00427656
0.00462137
0.00577168
0.00312676
0.00441122
0.00466366
0.00697024
0.00282758
0.00882032
0.00784392
0.00721601
0.0043063
0.0356635
0.00436174
0.00427653
0.00377972
0.00371142
0.00409829
0.00407863
0.00421371
0.00490902
0.00314129
0.00477257
0.0313204
0.00321343
0.0123191
0.00414465
0.00398527
0.00418078
0.00463462
0.00481906
0.00515419
0.0100454
0.00448512
0.00317761
0.00343034
0.00410381
0.00459585
0.00314935
0.0259383
0.0488645
0.0032691
0.00468851
0.00396402
0.103754
0.00214396
0.00239373
0.00423008
0.00439256
0.00358283
0.00355387
0.00433893
0.00402159
0.00444049
0.00461258
0.00449738
0.00412233
0.00445351
0.0108073
0.00309563
0.00318428
0.00492088
0.00458932
0.00433408
0.0623051
0.00320212
0.00395236
0.00432711
0.00816766
0.00764564
0.00545505
0.00546768
0.00425936
0.00393558
0.00308114
0.00421888
0.00551401
0.00427387
0.00458214
0.0043175
0.00557829
0.0036223
0.00424679
0.00445283
0.0041355
0.0165933
0.00468218
0.00464693
0.00330915
0.0310344
0.00404659
0.00332073
0.0043375
0.0034661
0.00439508
0.00426617
0.00441189
0.00338617
0.00327084
0.00426135
0.00339832
0.00400257
0.00428555
0.00374877
0.00369594
0.00453292
0.0045342
0.0368087
0.00380033
0.00285916
0.00426336
0.0184123
0.00461892
0.0373163
0.00435338
0.00346827
0.00516971
0.00474195
0.0492838
0.00515168
0.00338701
0.00445287
0.00360682
0.00411959
0.00459552
0.00442373
0.00456818
0.00422544
0.0365442
0.00451104
0.00435143
0.0125213
0.00443919
0.009455
0.00422991
0.0128832
0.00331608
0.00322579
0.00467782
0.00447628
0.00463679
0.00632073
0.0036705
0.00450072
0.00449099
0.00324924
0.00461659
0.00215919
0.00460567
0.039263
0.004242
0.00405703
0.00295544
0.00333731
0.0143543
0.0393589
0.0041668
0.00412533
0.00430645
0.00460375
0.00314134
0.00337886
0.00423449
0.00354412
0.0262061
0.023572
0.00449275
0.00431568
0.00459678
0.00359564
0.052127
0.00422701
0.00453794
0.00437959
0.0467363
0.00429361
0.00307003
0.00328336
0.00874147
0.0348991
0.00443481
0.00451391
0.00446329
0.00526578
0.00433467
0.00437711
0.00318716
0.00409773
0.00545781
0.00740169
0.00463853
0.00467376
0.0712585
0.00440851
0.00354529
0.00320042
0.00546009
0.00325434
0.00403009
0.00358727
0.00421223
0.00444099
0.00448649
0.0269975
0.00303296
0.00389805
0.00424925
0.00450135
0.00652949
0.00423061
0.00439238
0.00429562
0.00429731
0.0031966
0.0031094
0.00542946
0.00567701
0.00401985
0.00514692
0.0042883
0.00993851
0.00427209
0.00445381
0.0334547
0.0284837
0.00438395
0.00438791
0.00419934
0.00415224
0.00432846
0.005651
0.00460698
0.00422107
0.0032526
0.00297059
0.00382179
0.00312326
0.00318354
0.00539648
0.0250479
0.00496811
0.00631016
0.00354192
0.0035246
0.00463188
0.0034919
0.00462079
0.00418025
0.0055571
0.00394442
0.00421408
0.00447483
0.00343887
0.00690421
0.0313791
0.00361347
0.00440122
0.00442696
0.00522646
0.00455017
0.00428692
0.00427462
0.00338184
0.00425518
0.00427459
0.00420847
0.0045894
0.00396416
0.00621858
0.0220898
0.00427115
0.00422619
0.00399069
0.00763986
0.00440948
0.0153448
0.00430088
0.00568557
0.033622
0.00443306
0.00345707
0.00465868
0.00301043
0.00501311
0.00317276
0.0288988
0.00364888
0.00427534
0.00463606
0.00372329
0.0032121
0.00407002
0.0592491
0.00437139
0.00408388
0.00463215
0.00374756
0.0042068
0.00315603
0.00455207
0.00441093
0.0044015
0.00378429
0.00462373
0.00456231
0.00332391
0.00437312
0.00541779
0.0032184
0.00408401
0.00369382
0.00488874
0.00293087
0.00408654
0.00373864
0.00358349
0.00729785
0.00301322
0.0118296
0.00446824
0.00335921
0.00448897
0.00425742
0.00703147
0.00505858
0.00350719
0.00328951
0.0042967
0.00422063
0.00413183
0.00415624
0.00458403
0.0594021
0.00643496
0.0380799
0.00417032
0.00397752
0.00543228
0.00322872
0.00456521
0.0034382
0.00377048
0.00285897
0.00452321
0.0033423
0.0248296
0.00454819
0.00936439
0.00350609
0.00468152
0.0055013
0.00438829
0.00425506
0.00422362
0.00336532
0.00437413
0.00320074
0.00456975
0.00302076
0.00430921
0.00297798
0.00378164
0.0245418
0.00427707
0.0042855
0.0229555
0.0139399
0.00446422
0.00320176
0.00385462
0.0048886
0.00513093
0.00385591
0.00453802
0.00414172
0.00296634
0.00496703
0.00427877
0.00436742
0.00441718
0.00317493
0.0037851
0.00468979
0.00448299
0.0045633
0.0318907
0.0346822
0.00357611
0.00457158
0.00336683
0.00472053
0.00455488
0.0045782
0.00462638
0.00448014
0.0043335
0.00316495
0.00501309
0.0103816
0.00308503
0.00458026
0.00442821
0.00449506
0.00376902
0.0330135
0.0045955
0.00413506
0.00352542
0.0171983
0.0206734
0.00468296
0.00392031
0.0035645
0.00443209
0.00446433
0.0116532
0.00421804
0.00456015
0.0044797
0.00914589
0.00400334
0.00390572
0.00455538
0.0040963
0.00593664
0.00368707
0.00455881
0.00309594
0.0055646
0.00460908
0.0039096
0.00463938
0.00427217
0.00207333
0.00301628
0.00456105
0.00460022
0.00420631
0.00459398
0.00432884
0.00458681
0.00258826
0.00344529
0.0089751
0.0143109
0.006683
0.00454237
0.0519569
0.00466879
0.00429409
0.00476616
0.00448502
0.00441591
0.00442362
0.00301653
0.00517946
0.00377054
0.00441279
0.0028871
0.00442254
0.00468832
0.00431968
0.00438309
0.00450923
0.00449432
0.00455761
0.00429037
0.0618693
0.00438327
0.00425541
0.00495125
0.0176469
0.00424964
0.00450514
0.00489715
0.0529413
0.00423129
0.00449306
0.00298159
0.00314051
0.00465071
0.0045403
0.00427132
0.00400698
0.00836831
0.00459545
0.0124164
0.00297861
0.0251993
0.00300925
0.00457625
0.00326524
0.00564072
0.00444493
0.00456876
0.00427031
0.00460654
0.00396592
0.0102321
0.00417299
0.00568858
0.0491891
0.00494213
0.00394335
0.00558896
0.00466343
0.00455585
0.00314272
0.00281221
0.00329806
0.00440667
0.0293052
0.0042982
0.00327697
0.00430771
0.00313824
0.00312922
0.00323884
0.00354673
0.00420355
0.00452811
0.0467779
0.0042025
0.0643911
0.00438081
0.00303634
0.00435211
0.00420977
0.0567106
0.00438045
0.00460375
0.00352596
0.00956533
0.00772847
0.00358022
0.00329257
0.00332553
0.00410467
0.0335394
0.00452009
0.00441369
0.0653106
0.00439799
0.00541276
0.00449073
0.0152449
0.00302673
0.00668975
0.00460322
0.00342693
0.00464785
0.00441455
0.00420535
0.00244895
0.00424762
0.00445772
0.00429076
0.00457861
0.00476124
0.0045807
0.00447467
0.00418542
0.00870601
0.00361877
0.00400824
0.00460934
0.00877416
0.00300075
0.00459757
0.00467702
0.0040882
0.00633186
0.0502377
0.00397574
0.00339858
0.00410174
0.0043437
0.00307985
0.00450227
0.0042283
0.0100636
0.00455353
0.0593733
0.00915561
0.0218339
0.00455272
0.00455156
0.00377313
0.0431922
0.00335544
0.00313642
0.00467573
0.00307093
0.0193687
0.00456008
0.00402861
0.0031577
0.00392247
0.0322058
0.00368916
0.00445423
0.00432192
0.00416522
0.00425071
0.00721211
0.00293054
0.0127793
0.0517841
0.00459724
0.00301871
0.00389068
0.00513613
0.0150976
0.00440194
0.00438819
0.00406568
0.00313064
0.00454464
0.00469787
0.00467885
0.00363444
0.00415026
0.00460915
0.00371527
0.00668825
0.00321083
0.00452099
0.00842935
0.00414122
0.00407853
0.00399333
0.00455466
0.00431748
0.00447641
0.013548
0.00427216
0.00375977
0.00400374
0.00347463
0.00450445
0.00417753
0.00450382
0.00437598
0.003377
0.0120909
0.00736858
0.0559608
0.0104167
0.034059
0.00419663
0.00449256
0.00248534
0.00462758
0.00324926
0.00516204
0.00429329
0.00548461
0.00388672
0.0298273
0.00420844
0.00319764
0.00454975
0.0490442
0.00469641
0.0348239
0.00406918
0.00480617
0.00487776
0.010532
0.00422028
0.00555326
0.0056083
0.0044487
0.020322
0.00558616
0.0241069
0.00352931
0.00235111
0.0140431
0.00470201
0.00461164
0.00372549
0.00431861
0.00344373
0.00331685
0.00317636
0.00390572
0.00319339
0.0549456
0.00437304
0.00426183
0.00435968
0.00456949
0.00294301
0.00340605
0.00424619
0.00332196
0.0438886
0.00427858
0.0575974
0.00727216
0.00448599
0.00611342
0.00385797
0.003218
0.00317933
0.0254709
0.00442434
0.00452736
0.0516174
0.0043704
0.00458621
0.00355708
0.00454335
0.00430838
0.031901
0.00464577
0.0351485
0.00397928
0.00380117
0.00428432
0.00430399
0.00536877
0.00325637
0.0134946
0.00444729
0.0029444
0.00508586
0.00307584
0.00324846
0.00527964
0.0055103
0.00423957
0.00803344
0.0148455
0.00406427
0.00431423
0.00349007
0.00381155
0.00469813
0.00350629
0.0503892
0.00425942
0.00468935
0.00450782
0.00408956
0.0028208
0.00320874
0.00334344
0.0693451
0.00483616
0.00587781
0.00555617
0.00457345
0.00399939
0.0042456
0.00422689
0.0966993
0.00454726
0.020045
0.0238301
0.00456079
0.00449419
0.00464786
0.0312922
0.03242
0.021096
0.00335375
0.00456456
0.00426316
0.00327422
0.0406495
0.00657907
0.00307767
0.00433864
0.00616281
0.00460786
0.00540048
0.00417661
0.0138233
0.0280779
0.00405314
0.00383196
0.00429683
0.00439257
0.0303141
0.00320236
0.00372739
0.00460039
0.00465225
0.00416272
0.0482452
0.00313376
0.00298348
0.00781316
0.00496219
0.0043789
0.0135877
0.00533126
0.00461973
0.00304878
0.00362511
0.0041202
0.0550575
0.0045349
0.00442267
0.00425564
0.00522339
0.00310256
0.00435621
0.00517532
0.00461292
0.00455731
0.00468819
0.00330177
0.00443036
0.00733517
0.00426651
0.00455806
0.0496361
0.00425987
0.00354314
0.00361307
0.00458801
0.00351974
0.00535385
0.00451929
0.00456209
0.00448021
0.00304938
0.00449653
0.00426916
0.00445224
0.00364496
0.00622117
0.0031402
0.00682767
0.00429733
0.00544436
0.00424535
0.00467574
0.00422351
0.0045864
0.00314994
0.00414002
0.00325871
0.00412879
0.00419767
0.0044992
0.00454174
0.0313693
0.00546796
0.0161681
0.00468828
0.00300502
0.063112
0.00319653
0.00300025
0.00439607
0.00548778
0.00401828
0.00611345
0.00319186
0.00523492
0.0038269
0.0030313
0.0045034
0.0680766
0.00309134
0.00414337
0.0040792
0.00399741
0.00361198
0.00276297
0.00428797
0.00306549
0.0553673
0.0459588
0.0044855
0.00425499
0.00364797
0.0124948
0.00401643
0.00454799
0.00415629
0.00462934
0.00445267
0.00519298
0.00440238
0.00464971
0.0131938
0.00236212
0.00430847