/*--------------------------------*- C++ -*----------------------------------*\
| =========                 |                                                 |
| \\      /  F ield         | OpenFOAM: The Open Source CFD Toolbox           |
|  \\    /   O peration     | Version:  3.0.1                                 |
|   \\  /    A nd           | Web:      www.OpenFOAM.org                      |
|    \\/     M anipulation  |                                                 |
\*---------------------------------------------------------------------------*/
FoamFile
{
    version     2.0;
    format      ascii;
    class       volVectorField;
    location    "0.920647";
    object      U;
}
// * * * * * * * * * * * * * * * * * * * * * * * * * * * * * * * * * * * * * //

dimensions      [0 1 -1 0 0 0 0];

internalField   nonuniform List<vector> 
21246
(
(5.07089 1.303 -6.06795e-19)
(3.72668 0.892161 -4.77735e-20)
(3.38259 0.854604 3.36389e-19)
(2.92306 0.689851 0)
(2.53027 0.52695 4.8225e-19)
(2.22655 0.378148 -7.53288e-19)
(1.99301 0.250931 1.99984e-19)
(1.8117 0.145197 -1.79969e-19)
(1.66996 0.0570634 3.09986e-20)
(1.55931 -0.0163391 0)
(1.47664 -0.0704102 1.29548e-19)
(4.21082 0.165461 6.3386e-18)
(2.63033 -0.52386 -1.6622e-18)
(3.1519 -0.322594 1.43063e-18)
(3.03438 -0.203722 0)
(2.72899 -0.107994 4.36746e-20)
(2.43287 -0.0559284 0)
(2.16483 -0.0484837 1.80401e-19)
(1.94283 -0.0679813 -7.95066e-20)
(1.76685 -0.100149 6.29352e-20)
(1.62997 -0.135347 -6.08905e-21)
(1.52845 -0.16238 0)
(2.60755 0.165941 0)
(1.50501 -0.798153 0)
(2.40826 -0.900989 -2.0702e-18)
(2.57255 -0.859224 2.36328e-18)
(2.53354 -0.715493 0)
(2.39161 -0.535757 0)
(2.19656 -0.40656 0)
(1.99705 -0.326509 0)
(1.8191 -0.286586 0)
(1.67285 -0.271302 -7.53372e-20)
(1.56357 -0.262022 5.92471e-20)
(1.46295 0.790209 1.75574e-19)
(0.912463 -0.382651 -1.3033e-19)
(1.68855 -0.874053 1.2854e-18)
(1.93698 -1.06064 -1.56963e-18)
(2.09981 -1.04654 -8.37524e-19)
(2.14102 -0.895936 2.12049e-18)
(2.0684 -0.722293 -3.77726e-20)
(1.94517 -0.581091 0)
(1.80628 -0.479896 0)
(1.67652 -0.413294 -3.71143e-19)
(1.5723 -0.360095 -1.42859e-19)
(0.870519 1.5244 0)
(0.669323 0.259046 7.20818e-19)
(1.19199 -0.490284 -2.45776e-18)
(1.4246 -0.90229 1.58535e-19)
(1.66106 -1.07379 0)
(1.80844 -1.04475 -5.64007e-19)
(1.84689 -0.918501 -6.16931e-19)
(1.81044 -0.771684 0)
(1.73136 -0.644872 0)
(1.63649 -0.545663 6.2912e-19)
(1.55094 -0.460953 -2.85478e-19)
(0.635376 2.208 2.05119e-18)
(0.596209 0.901428 -6.95588e-19)
(0.904425 0.013881 1.03884e-18)
(1.0958 -0.563442 7.26573e-19)
(1.32792 -0.898872 0)
(1.50981 -1.00934 0)
(1.6117 -0.975638 0)
(1.64403 -0.874887 6.72352e-19)
(1.62183 -0.756099 8.0589e-20)
(1.56664 -0.649347 -4.33593e-19)
(1.5086 -0.550603 2.82844e-19)
(0.631161 2.84323 6.43938e-19)
(0.619103 1.51811 -9.88733e-19)
(0.770129 0.544047 7.40879e-19)
(0.9162 -0.157886 0)
(1.11325 -0.624814 -3.70972e-19)
(1.29005 -0.861382 0)
(1.41598 -0.927628 0)
(1.48726 -0.892725 -1.01649e-18)
(1.50734 -0.810669 2.08386e-19)
(1.48691 -0.71777 -2.46929e-19)
(1.4582 -0.618025 -6.37187e-20)
(0.777081 3.41728 1.66902e-19)
(0.700523 2.10953 -1.57802e-18)
(0.747414 1.07197 4.55402e-19)
(0.844834 0.265985 6.55342e-19)
(0.996002 -0.310322 3.73465e-20)
(1.14939 -0.656617 2.3649e-20)
(1.27562 -0.817063 -1.55562e-19)
(1.36282 -0.851958 5.63353e-19)
(1.40774 -0.815857 0)
(1.41216 -0.74966 0)
(1.4067 -0.665218 -1.51574e-19)
(0.997396 3.91095 1.9531e-18)
(0.811483 2.66578 0)
(0.795868 1.58146 1.33693e-19)
(0.842339 0.691103 -1.5809e-19)
(0.945812 0.0205327 -3.26073e-20)
(1.0694 -0.423405 5.65424e-19)
(1.18443 -0.671478 -5.79956e-19)
(1.27407 -0.775207 2.11644e-19)
(1.33139 -0.787932 -9.11902e-20)
(1.35209 -0.753194 1.3169e-19)
(1.3645 -0.691063 7.36436e-20)
(1.22489 4.30795 1.66886e-18)
(0.933738 3.17273 0)
(0.877648 2.07416 -8.54083e-19)
(0.872701 1.12322 -3.09489e-20)
(0.932582 0.369209 9.89496e-19)
(1.02697 -0.166515 1.15268e-19)
(1.12724 -0.500017 -3.88897e-19)
(1.21361 -0.673312 1.8826e-19)
(1.27669 -0.737151 -3.14201e-20)
(1.30833 -0.736662 7.80968e-20)
(1.33267 -0.700308 9.4442e-20)
(1.39928 4.55896 1.41934e-19)
(1.04493 3.60952 0)
(0.969321 2.557 0)
(0.919631 1.57359 -5.7492e-19)
(0.94114 0.745715 4.37959e-19)
(1.00759 0.120795 -8.3154e-20)
(1.09161 -0.299727 -5.63562e-19)
(1.17222 -0.546531 3.38215e-19)
(1.23799 -0.665853 3.23898e-21)
(1.27864 -0.703241 -6.2006e-20)
(1.31203 -0.69491 -3.70643e-19)
(1.51043 4.65203 1.05706e-18)
(1.14342 3.96563 -1.07691e-18)
(1.06761 3.02575 -1.83903e-19)
(0.985619 2.04123 -2.65366e-19)
(0.971131 1.15288 -9.68559e-19)
(1.00795 0.443467 5.91719e-19)
(1.07241 -0.0651389 2.01731e-19)
(1.14398 -0.390168 -2.8505e-19)
(1.20969 -0.570746 2.96159e-21)
(1.25823 -0.651018 -3.87719e-19)
(1.30053 -0.672665 2.07065e-19)
(1.6074 4.66755 -1.17866e-18)
(1.2617 4.22418 1.03833e-18)
(1.18668 3.44893 -5.19164e-19)
(1.07738 2.51291 1.05594e-18)
(1.02529 1.59003 5.60001e-19)
(1.02794 0.80607 -5.26719e-19)
(1.06744 0.210592 1.99995e-19)
(1.12498 -0.196587 0)
(1.18693 -0.444673 3.63259e-19)
(1.24165 -0.574086 -7.23817e-21)
(1.29313 -0.62904 1.74717e-19)
(1.70325 4.65677 0)
(1.39237 4.38492 2.41916e-19)
(1.32412 3.79005 0)
(1.19657 2.9634 -2.57113e-19)
(1.10668 2.05013 -1.07764e-18)
(1.06928 1.21213 1.04372e-18)
(1.07643 0.535697 -3.84164e-19)
(1.113 0.0446373 -5.1214e-19)
(1.16597 -0.276589 -3.49223e-19)
(1.22417 -0.462354 -2.24762e-19)
(1.28647 -0.556553 4.57787e-19)
(1.78851 4.64056 0)
(1.51115 4.47964 -2.4317e-19)
(1.46203 4.03367 0)
(1.33186 3.35574 9.87399e-19)
(1.21257 2.5064 -7.50743e-19)
(1.13365 1.65012 -5.15411e-19)
(1.10121 0.910137 0)
(1.10854 0.340664 9.96029e-19)
(1.14575 -0.0551734 -1.35872e-20)
(1.203 -0.302695 -8.48312e-19)
(1.2761 -0.442582 3.10102e-19)
(1.87252 4.62278 3.42976e-19)
(1.61774 4.53645 0)
(1.59164 4.19837 0)
(1.4727 3.67109 0)
(1.33624 2.93072 -3.73624e-19)
(1.21958 2.10376 1.05268e-18)
(1.14319 1.33087 0)
(1.11351 0.698206 -4.74905e-19)
(1.12746 0.232396 3.56321e-19)
(1.17805 -0.0790507 4.33332e-19)
(1.26131 -0.2704 -2.40413e-19)
(1.95828 4.60279 -1.75622e-18)
(1.7165 4.57197 1.98661e-18)
(1.71391 4.31219 -7.73897e-20)
(1.61195 3.91482 -1.11846e-18)
(1.47038 3.30592 3.83113e-19)
(1.32455 2.55466 -1.09151e-18)
(1.205 1.7906 3.80193e-19)
(1.13301 1.12111 9.8362e-19)
(1.1165 0.598087 -6.55506e-19)
(1.15235 0.226117 2.23143e-19)
(1.23816 -0.019025 4.55402e-19)
(2.03764 4.57851 1.80001e-18)
(1.80501 4.58931 -1.10654e-18)
(1.82258 4.38807 0)
(1.73681 4.0976 5.80277e-19)
(1.60215 3.62319 -7.94504e-19)
(1.44144 2.98187 6.08708e-20)
(1.28826 2.27178 1.1839e-18)
(1.17564 1.60253 -1.0762e-18)
(1.12397 1.04475 6.13316e-19)
(1.1375 0.622142 -2.17509e-19)
(1.21067 0.328827 -4.1053e-19)
(2.10974 4.54929 -3.91578e-19)
(1.88389 4.587 -2.87026e-19)
(1.90971 4.43099 0)
(1.83669 4.23018 -9.20923e-19)
(1.71827 3.885 -4.06767e-19)
(1.562 3.37352 6.38392e-19)
(1.39403 2.75528 7.7674e-19)
(1.25284 2.12532 -5.75393e-19)
(1.16718 1.56196 -3.27632e-19)
(1.15114 1.10702 3.16716e-19)
(1.20634 0.770599 -3.73361e-19)
(2.17103 4.50977 0)
(1.94701 4.55927 3.08396e-19)
(1.96296 4.43973 0)
(1.90085 4.31889 3.31068e-19)
(1.81207 4.10336 -4.7177e-19)
(1.68386 3.72602 0)
(1.52894 3.2199 0)
(1.37994 2.65926 7.58681e-19)
(1.26774 2.1197 2.36534e-19)
(1.2152 1.65724 -3.84813e-19)
(1.23728 1.30253 1.86354e-19)
(2.20969 4.44379 -2.36823e-19)
(1.9806 4.50294 -1.73647e-19)
(1.96761 4.42828 -1.98511e-18)
(1.92079 4.37913 7.7371e-20)
(1.88209 4.27263 1.07595e-18)
(1.82451 4.04314 4.87819e-19)
(1.71237 3.63503 -4.88164e-19)
(1.57839 3.15376 -7.77487e-19)
(1.44672 2.65668 3.4594e-20)
(1.35017 2.2122 -1.35586e-19)
(1.3232 1.86636 2.82844e-19)
(2.04771 4.32512 4.63173e-18)
(1.86448 4.40097 -2.99457e-18)
(1.88353 4.4195 -2.19076e-18)
(1.9052 4.43993 1.64487e-18)
(1.95473 4.39452 0)
(1.99848 4.25087 1.43886e-19)
(1.9709 3.93033 0)
(1.86527 3.51544 3.34593e-20)
(1.71329 3.06605 -2.95754e-19)
(1.56659 2.6582 2.11268e-19)
(1.4871 2.34637 1.07815e-19)
(1.86595 4.38377 -1.90028e-19)
(2.02336 4.33611 -4.17125e-18)
(2.07706 4.36528 2.08158e-19)
(2.18239 4.35264 2.31879e-18)
(2.30901 4.2673 -1.3087e-18)
(2.39429 4.09038 9.03211e-19)
(2.38914 3.87717 0)
(2.26221 3.5574 -3.61937e-19)
(2.04677 3.1813 2.69951e-20)
(1.82785 2.83889 5.65366e-20)
(1.69389 2.54291 0)
(1.489 2.28427 -3.79088e-18)
(1.44545 2.33696 -1.92648e-18)
(1.61104 2.17561 6.28024e-18)
(1.73317 2.04236 -2.3453e-18)
(1.82709 1.99557 -1.2015e-18)
(1.94325 2.08915 9.64976e-19)
(2.0859 2.25739 0)
(2.213 2.43873 -1.80612e-19)
(2.20952 2.49732 2.6233e-19)
(2.06992 2.39261 1.08145e-19)
(1.9309 2.21494 2.41975e-19)
(2.9712 3.40678 -6.17975e-18)
(2.42859 2.89155 -2.09842e-19)
(2.32182 2.03538 -2.56074e-19)
(2.1966 1.42009 1.42353e-19)
(2.05117 1.00127 2.41345e-19)
(1.90588 0.704879 -1.88985e-19)
(1.77032 0.48788 1.02978e-19)
(1.6514 0.323427 -5.54167e-20)
(1.55162 0.194791 1.00027e-19)
(1.47047 0.0927356 0)
(1.40778 0.0166479 0)
(-0.73799 2.75522 4.69353e-19)
(0.50543 2.64491 3.02009e-20)
(1.04667 2.34768 -2.01213e-20)
(1.36807 1.85127 -1.72739e-19)
(1.51636 1.4007 -1.70473e-18)
(1.55815 1.02791 1.28922e-18)
(1.53545 0.73337 -1.37256e-19)
(1.48439 0.505667 1.28017e-20)
(1.42643 0.330327 0)
(1.37252 0.194325 1.16475e-19)
(1.32679 0.0959268 -6.91568e-20)
(-1.40233 2.03733 4.53699e-18)
(-0.51041 1.81344 4.19577e-18)
(-0.0984733 1.91313 -5.25959e-18)
(0.449055 1.80665 0)
(0.865826 1.54675 -2.70472e-19)
(1.11953 1.21976 0)
(1.23588 0.910025 7.1281e-19)
(1.27175 0.651893 -5.38273e-19)
(1.26983 0.446462 0)
(1.25373 0.285981 -1.56269e-19)
(1.23317 0.168581 7.58454e-20)
(-1.44022 1.36668 -2.14962e-18)
(-0.641875 1.10393 -3.48641e-19)
(-0.533802 1.35124 -3.7193e-18)
(-0.144395 1.41119 3.40746e-18)
(0.23451 1.35884 -1.18114e-18)
(0.570718 1.20062 1.42712e-18)
(0.822814 0.982565 -1.49089e-18)
(0.978135 0.751031 1.10148e-18)
(1.0595 0.539802 0)
(1.09791 0.364362 1.46269e-19)
(1.10831 0.234383 -8.42806e-20)
(-1.251 0.851928 -1.14412e-18)
(-0.581786 0.558472 1.08053e-18)
(-0.62828 0.825452 -2.70292e-18)
(-0.349984 0.94945 3.10913e-18)
(-0.0591353 1.01493 -1.04749e-18)
(0.238566 0.987333 -1.59228e-18)
(0.496685 0.881399 0)
(0.692443 0.728122 8.25649e-19)
(0.827368 0.559457 -1.26893e-19)
(0.914268 0.400975 2.06071e-19)
(0.962238 0.273452 -4.08389e-19)
(-1.00401 0.495587 2.94113e-19)
(-0.460032 0.187502 1.36822e-19)
(-0.584479 0.420458 1.12432e-18)
(-0.380644 0.545874 -8.97438e-19)
(-0.176561 0.654797 5.90917e-19)
(0.0586942 0.702951 -1.87548e-19)
(0.289381 0.684913 0)
(0.488658 0.610671 6.7193e-19)
(0.645351 0.500821 0)
(0.756015 0.379923 5.18369e-19)
(0.821314 0.275191 -6.83024e-20)
(-0.753195 0.259645 0)
(-0.316312 -0.0555749 -9.18004e-20)
(-0.471449 0.130941 -1.32271e-19)
(-0.313252 0.238843 1.5803e-19)
(-0.180776 0.353488 1.76755e-19)
(-0.00501283 0.431764 1.16671e-19)
(0.182204 0.464834 6.50358e-20)
(0.360988 0.450166 -6.46866e-19)
(0.516085 0.396238 3.47686e-19)
(0.634686 0.320352 -2.58199e-19)
(0.710357 0.248118 0)
(-0.531858 0.0975787 1.84809e-19)
(-0.187836 -0.215641 -1.93903e-19)
(-0.345435 -0.0740758 4.65828e-20)
(-0.207919 0.0125903 0)
(-0.124539 0.118466 -1.68253e-19)
(0.00704665 0.203571 -2.57448e-19)
(0.153557 0.260689 6.49935e-19)
(0.304113 0.282778 -3.54056e-19)
(0.443474 0.269934 4.72974e-19)
(0.557467 0.230853 2.78983e-19)
(0.633864 0.184813 0)
(-0.338924 -0.0299902 4.96799e-19)
(-0.075029 -0.334629 -7.58622e-19)
(-0.22261 -0.223296 2.65526e-19)
(-0.0916733 -0.157954 0)
(-0.0418498 -0.0611207 -6.79002e-20)
(0.0622222 0.0198686 6.84554e-20)
(0.176785 0.086198 -4.06627e-19)
(0.300317 0.128399 1.52474e-19)
(0.420237 0.14324 -2.01153e-19)
(0.524671 0.133299 -2.7361e-19)
(0.599408 0.112747 -1.05655e-19)
(-0.166752 -0.130702 2.48582e-19)
(0.0326783 -0.44242 2.28915e-19)
(-0.101121 -0.337415 -1.63498e-19)
(0.0211833 -0.291508 0)
(0.0543945 -0.202099 4.1258e-19)
(0.13906 -0.126815 -1.45355e-19)
(0.230912 -0.0586303 -5.87677e-21)
(0.33264 -0.00649695 2.88896e-21)
(0.43506 0.0253903 3.14148e-20)
(0.529488 0.0354922 0)
(0.601326 0.0318651 1.73117e-19)
(-0.0341234 -0.195381 -1.18845e-18)
(0.141316 -0.528287 1.37337e-18)
(0.0305248 -0.433333 -9.2704e-19)
(0.129731 -0.395836 5.01915e-19)
(0.156707 -0.315059 6.38977e-20)
(0.227274 -0.244833 0)
(0.302558 -0.17776 -5.58359e-20)
(0.387703 -0.121486 -1.90162e-19)
(0.47594 -0.0802771 6.15783e-20)
(0.561952 -0.058349 -8.59752e-21)
(0.634571 -0.0537768 4.25032e-20)
(0.081737 -0.239886 3.17966e-20)
(0.248486 -0.585344 4.02233e-19)
(0.151966 -0.510442 -1.42074e-19)
(0.236739 -0.477395 -1.62666e-19)
(0.260328 -0.404801 7.48797e-21)
(0.320547 -0.339541 -1.70003e-19)
(0.383445 -0.274934 -1.20627e-19)
(0.455637 -0.217785 2.15102e-19)
(0.53198 -0.172311 -1.70519e-19)
(0.61008 -0.143915 7.61275e-20)
(0.683753 -0.134525 -1.30801e-19)
(0.191855 -0.276827 5.5311e-19)
(0.355241 -0.630734 -1.21605e-18)
(0.265205 -0.571285 7.57781e-19)
(0.341618 -0.541276 0)
(0.362613 -0.475215 0)
(0.414903 -0.414281 -1.00086e-19)
(0.467956 -0.352551 -2.61299e-20)
(0.5292 -0.296292 -8.27782e-20)
(0.594715 -0.249946 2.18501e-20)
(0.663879 -0.219785 6.06498e-20)
(0.728174 -0.209108 1.5065e-19)
(0.306164 -0.297491 3.9407e-20)
(0.46759 -0.662084 -4.22117e-19)
(0.376177 -0.617751 2.91303e-19)
(0.444905 -0.590434 0)
(0.462616 -0.529491 -4.12659e-20)
(0.508016 -0.47173 -1.00724e-19)
(0.552354 -0.412404 2.86527e-19)
(0.603239 -0.357505 2.52e-19)
(0.657215 -0.311875 -3.37101e-19)
(0.716058 -0.283373 7.99905e-20)
(0.771899 -0.275353 0)
(0.416641 -0.299936 5.79784e-19)
(0.571521 -0.675809 -4.53346e-19)
(0.483028 -0.64912 4.14172e-20)
(0.544667 -0.624797 0)
(0.560725 -0.5686 4.12148e-20)
(0.599154 -0.513104 3.06557e-20)
(0.635334 -0.455435 1.49932e-19)
(0.675424 -0.401641 -2.41492e-19)
(0.716308 -0.35736 7.50159e-20)
(0.761446 -0.331973 0)
(0.804633 -0.331411 0)
(0.523713 -0.296912 6.50011e-19)
(0.670186 -0.677623 -5.33677e-19)
(0.586949 -0.667916 0)
(0.641302 -0.646203 0)
(0.656502 -0.593776 1.74536e-19)
(0.688014 -0.539194 -1.66553e-19)
(0.716008 -0.481867 0)
(0.744371 -0.428177 -9.24811e-20)
(0.770385 -0.385094 1.94545e-19)
(0.798164 -0.363425 -2.69381e-20)
(0.827663 -0.372393 1.43358e-20)
(0.63097 -0.286486 0)
(0.769448 -0.667103 0)
(0.691216 -0.674364 0)
(0.736792 -0.655174 1.26611e-20)
(0.750756 -0.605393 7.58771e-21)
(0.775004 -0.550188 6.43316e-20)
(0.79414 -0.491497 -2.81785e-19)
(0.809467 -0.43636 1.54699e-19)
(0.818754 -0.393628 -1.59406e-19)
(0.826094 -0.375902 -2.23212e-19)
(0.835038 -0.396031 0)
(0.736607 -0.263381 -3.78614e-19)
(0.868082 -0.64104 0)
(0.795515 -0.666245 0)
(0.832135 -0.650441 -4.21632e-19)
(0.844383 -0.602514 2.59572e-19)
(0.860984 -0.545237 3.75938e-20)
(0.870214 -0.483285 2.38347e-19)
(0.871021 -0.424865 -2.99036e-19)
(0.861754 -0.381161 0)
(0.846973 -0.36727 2.24666e-19)
(0.836466 -0.398109 -1.45233e-19)
(0.840427 -0.228618 1.19891e-18)
(0.96635 -0.598553 -6.01056e-19)
(0.900501 -0.641652 0)
(0.928631 -0.629999 0)
(0.938628 -0.58317 -4.26069e-19)
(0.947184 -0.522471 0)
(0.945303 -0.45537 1.92257e-19)
(0.930199 -0.391748 1.25149e-19)
(0.901076 -0.345459 0)
(0.864027 -0.334669 -2.33505e-19)
(0.832423 -0.37654 1.72024e-19)
(0.944099 -0.182041 0)
(1.06728 -0.537503 0)
(1.00898 -0.597357 1.10876e-19)
(1.02886 -0.590306 -6.4656e-19)
(1.03562 -0.543918 3.94523e-19)
(1.0355 -0.47877 0)
(1.0213 -0.404952 0)
(0.989319 -0.334365 2.64497e-19)
(0.940042 -0.283656 -1.96893e-19)
(0.882735 -0.274243 0)
(0.833833 -0.326054 3.50333e-19)
(1.04683 -0.118412 0)
(1.17271 -0.451918 0)
(1.12298 -0.526097 -5.23379e-19)
(1.13489 -0.524013 7.30465e-19)
(1.13727 -0.478165 0)
(1.12799 -0.408551 -3.05521e-19)
(1.10088 -0.327289 2.28038e-19)
(1.05221 -0.248345 0)
(0.984383 -0.190974 7.20656e-19)
(0.911695 -0.179484 2.34268e-19)
(0.850794 -0.238843 -1.10163e-18)
(1.15894 -0.0412919 -5.89226e-19)
(1.28878 -0.338022 4.23945e-19)
(1.24887 -0.420849 7.14404e-19)
(1.25285 -0.423973 -1.00619e-19)
(1.2497 -0.379818 0)
(1.23149 -0.306628 6.46097e-19)
(1.19235 -0.217703 4.14589e-19)
(1.12931 -0.128744 0)
(1.04729 -0.0607758 -3.8227e-19)
(0.967927 -0.0401251 -2.84374e-20)
(0.912087 -0.0996189 3.78682e-19)
(1.20509 0.117007 7.71626e-19)
(1.37727 -0.14309 -5.28804e-19)
(1.34486 -0.234454 6.15126e-19)
(1.34286 -0.247629 -4.19093e-19)
(1.34092 -0.210293 -2.21266e-19)
(1.32346 -0.137519 -1.42046e-18)
(1.28332 -0.0431514 4.28149e-19)
(1.2186 0.0570903 -2.57186e-19)
(1.13551 0.143591 3.63987e-19)
(1.06421 0.187469 -7.93498e-19)
(1.04709 0.150414 0)
(1.56184 0.0630978 -2.25501e-18)
(1.71293 -0.0021493 -1.59835e-19)
(1.66439 -0.0588652 -7.68551e-19)
(1.64432 -0.054852 -9.51519e-19)
(1.62406 -0.00203615 1.89248e-18)
(1.58362 0.0930693 -3.99808e-19)
(1.52228 0.220533 -9.03068e-19)
(1.45713 0.372417 7.17294e-19)
(1.42116 0.557385 -1.65016e-19)
(1.43639 0.756165 -3.77389e-19)
(1.49086 0.865503 -4.50929e-19)
(6.32407 -1.38734 0)
(5.76131 -1.38943 0)
(5.45767 -1.1787 4.13089e-19)
(5.22753 -0.975985 -1.38338e-19)
(4.9996 -0.802639 7.15975e-20)
(4.77587 -0.659943 0)
(4.56822 -0.546247 0)
(4.37563 -0.457046 -1.13915e-19)
(4.19439 -0.386853 0)
(4.02531 -0.333135 1.32989e-19)
(3.87288 -0.304736 2.47056e-19)
(4.98081 -2.60611 -6.13167e-19)
(5.01651 -2.30901 5.94724e-19)
(5.01653 -1.94469 -4.22258e-19)
(4.9501 -1.59722 2.84538e-19)
(4.82783 -1.30373 1.60219e-19)
(4.67009 -1.06661 0)
(4.49816 -0.879483 -3.57137e-19)
(4.32564 -0.733181 0)
(4.15814 -0.618969 0)
(3.99878 -0.531843 -2.38776e-19)
(3.85248 -0.475563 3.34179e-19)
(3.91268 -2.87279 -2.48675e-18)
(4.25493 -2.61876 1.40412e-18)
(4.43508 -2.36631 2.03642e-19)
(4.52757 -2.05384 -2.71406e-19)
(4.53383 -1.73996 -1.86089e-19)
(4.47164 -1.45415 -1.42664e-19)
(4.36411 -1.2104 6.9196e-19)
(4.23268 -1.0106 0)
(4.09246 -0.849627 -2.074e-19)
(3.95313 -0.721529 3.90793e-19)
(3.82087 -0.630032 -6.10054e-19)
(3.20436 -2.75758 -1.54284e-18)
(3.58105 -2.62528 2.58617e-18)
(3.85911 -2.50254 -9.55527e-19)
(4.05598 -2.28738 -1.69484e-19)
(4.16263 -2.0246 -1.23209e-19)
(4.19167 -1.75084 0)
(4.15982 -1.49236 -4.49472e-19)
(4.08697 -1.26342 3.27468e-19)
(3.98866 -1.06982 8.94502e-20)
(3.87298 -0.91641 -2.77047e-19)
(3.75579 -0.798588 2.15147e-19)
(2.91967 -2.63555 -3.03406e-18)
(3.17029 -2.53415 2.27931e-18)
(3.36349 -2.49213 -1.74486e-18)
(3.58231 -2.37023 1.67041e-19)
(3.75897 -2.18283 2.07937e-18)
(3.86283 -1.95246 -7.32032e-19)
(3.89553 -1.70981 0)
(3.87376 -1.47777 3.41924e-19)
(3.81708 -1.26645 -2.84897e-19)
(3.7423 -1.07813 -2.14066e-20)
(3.65332 -0.930132 0)
(2.75899 -2.50496 -6.81016e-20)
(2.95251 -2.4201 1.97715e-18)
(3.07716 -2.41309 0)
(3.24175 -2.33885 1.95095e-20)
(3.39536 -2.21205 0)
(3.519 -2.03536 8.7994e-20)
(3.5991 -1.82716 0)
(3.63282 -1.60899 9.29294e-20)
(3.62614 -1.39812 -5.93981e-19)
(3.5904 -1.20548 2.95702e-19)
(3.535 -1.04608 1.11462e-19)
(2.64263 -2.38006 1.36869e-19)
(2.77757 -2.30471 0)
(2.8678 -2.30981 0)
(3.00369 -2.25087 0)
(3.13292 -2.16103 0)
(3.24872 -2.02724 -8.48278e-20)
(3.33858 -1.85823 0)
(3.39594 -1.66952 -8.04463e-19)
(3.42084 -1.47669 1.16079e-18)
(3.41782 -1.29272 -2.83314e-19)
(3.38931 -1.13333 3.69833e-19)
(2.51977 -2.29689 -2.13146e-18)
(2.62712 -2.20518 1.62991e-18)
(2.70315 -2.20252 -1.09626e-18)
(2.80883 -2.15598 0)
(2.91676 -2.08298 8.07527e-19)
(3.01985 -1.97609 -1.87167e-18)
(3.10906 -1.83844 9.53468e-19)
(3.17792 -1.67907 3.46412e-19)
(3.22393 -1.50899 -9.94781e-19)
(3.24716 -1.3408 3.66458e-19)
(3.24572 -1.19398 -2.45576e-19)
(2.40579 -2.22138 -2.18553e-19)
(2.50195 -2.11823 0)
(2.56141 -2.10752 -1.47717e-19)
(2.6485 -2.06445 0)
(2.73953 -1.99959 3.55675e-19)
(2.8295 -1.90829 0)
(2.91278 -1.79189 0)
(2.98469 -1.65571 -9.93995e-19)
(3.04201 -1.50668 9.8243e-19)
(3.08231 -1.3543 0)
(3.10031 -1.21655 -4.84754e-19)
(2.30858 -2.14884 4.09018e-19)
(2.39339 -2.03679 0)
(2.43797 -2.02113 0)
(2.51131 -1.97863 -2.04288e-19)
(2.58912 -1.91791 3.32594e-19)
(2.66788 -1.83561 -5.24276e-19)
(2.74425 -1.7327 8.21576e-19)
(2.81504 -1.61283 -6.76684e-21)
(2.87733 -1.48027 -4.61454e-19)
(2.92732 -1.34148 3.11882e-19)
(2.95603 -1.21111 4.77738e-19)
(2.22627 -2.08688 1.34303e-18)
(2.29536 -1.96419 -1.18506e-18)
(2.32712 -1.94244 -2.35825e-19)
(2.38935 -1.89823 9.82524e-19)
(2.45659 -1.83882 -1.23572e-18)
(2.52634 -1.76137 4.84251e-19)
(2.59655 -1.66682 0)
(2.6651 -1.55816 -1.14148e-18)
(2.72976 -1.43837 8.75707e-19)
(2.78676 -1.31266 -6.38671e-19)
(2.8251 -1.19793 4.43033e-19)
(2.1447 -2.03218 -1.73019e-19)
(2.19738 -1.89999 0)
(2.22145 -1.86998 4.49604e-19)
(2.27609 -1.82182 3.7602e-19)
(2.33566 -1.76133 -2.66425e-19)
(2.39875 -1.68572 -8.89957e-19)
(2.46431 -1.59597 1.05035e-18)
(2.53101 -1.4948 5.39352e-19)
(2.5973 -1.38452 3.90837e-19)
(2.65976 -1.26898 1.07908e-20)
(2.70663 -1.16228 -8.69921e-19)
(2.05959 -1.97361 1.69634e-19)
(2.09956 -1.83506 1.07567e-18)
(2.11863 -1.79819 -1.05206e-18)
(2.16787 -1.74611 -3.33346e-19)
(2.22203 -1.68356 1.08249e-18)
(2.28065 -1.60788 8.63761e-19)
(2.34337 -1.52035 -9.89561e-19)
(2.40943 -1.42367 -1.01386e-18)
(2.47772 -1.31968 -9.2416e-21)
(2.54502 -1.21047 5.79221e-19)
(2.5978 -1.10595 -8.00928e-19)
(1.97987 -1.91593 0)
(2.007 -1.76845 0)
(2.01932 -1.72517 -6.06427e-19)
(2.0633 -1.66907 6.24472e-19)
(2.11322 -1.6037 2.57077e-19)
(2.16905 -1.52658 1.8913e-19)
(2.23072 -1.4394 0)
(2.29764 -1.34516 0)
(2.36874 -1.24575 3.42039e-19)
(2.44085 -1.14256 2.85624e-19)
(2.49862 -1.04635 -3.7474e-19)
(1.89933 -1.86103 1.48208e-19)
(1.91134 -1.70343 -9.64253e-19)
(1.91957 -1.65096 5.56761e-19)
(1.96024 -1.58904 5.94386e-19)
(2.00766 -1.51945 -4.63033e-19)
(2.06254 -1.43951 -1.88127e-19)
(2.1251 -1.35134 5.56924e-19)
(2.1948 -1.25836 -8.45033e-19)
(2.27025 -1.16274 3.1782e-19)
(2.34812 -1.06518 4.8347e-19)
(2.41232 -0.973505 3.26741e-19)
(1.81511 -1.79694 -2.20238e-19)
(1.81286 -1.63222 0)
(1.81909 -1.5709 0)
(1.8578 -1.50286 1.3276e-19)
(1.90428 -1.42816 1.02771e-19)
(1.96016 -1.34437 0)
(2.02592 -1.25428 1.19755e-19)
(2.10074 -1.16208 3.80002e-19)
(2.18246 -1.07041 -4.20385e-19)
(2.26742 -0.979102 0)
(2.33807 -0.893688 -1.6585e-20)
(1.73387 -1.72633 1.15945e-18)
(1.71686 -1.55343 5.265e-20)
(1.71958 -1.48301 -6.70874e-19)
(1.75604 -1.40815 -1.34506e-19)
(1.80265 -1.32726 2.88387e-19)
(1.86165 -1.23855 -6.00744e-19)
(1.9334 -1.14604 1.07803e-19)
(2.01621 -1.05505 0)
(2.10633 -0.968708 -1.15378e-19)
(2.19926 -0.88585 5.11148e-22)
(2.27577 -0.809301 1.37497e-19)
(1.65399 -1.65313 -5.01209e-19)
(1.61878 -1.46986 3.58802e-19)
(1.61854 -1.38695 0)
(1.65411 -1.30254 0)
(1.70307 -1.21327 3.46884e-19)
(1.7683 -1.1185 -2.66571e-19)
(1.84966 -1.02386 -2.15997e-20)
(1.94377 -0.935833 0)
(2.04438 -0.857697 0)
(2.1459 -0.786502 1.61312e-19)
(2.22836 -0.720653 -1.19167e-19)
(1.57354 -1.56834 -5.13683e-19)
(1.517 -1.37632 -2.18783e-20)
(1.51565 -1.27779 -5.45384e-19)
(1.55241 -1.1813 8.17571e-19)
(1.60719 -1.08176 -5.94498e-19)
(1.68299 -0.980486 2.21003e-19)
(1.77897 -0.884906 2.21185e-20)
(1.88764 -0.803755 9.06176e-20)
(1.99984 -0.738522 -8.55061e-20)
(2.10939 -0.683243 0)
(2.19692 -0.631259 0)
(1.49351 -1.46585 0)
(1.41228 -1.26615 5.98653e-20)
(1.41346 -1.14771 0)
(1.45549 -1.03634 -3.1398e-20)
(1.52204 -0.925325 0)
(1.61504 -0.819159 0)
(1.7297 -0.728223 0)
(1.85476 -0.660404 1.05102e-19)
(1.97736 -0.614175 -6.00279e-20)
(2.09097 -0.579719 0)
(2.18045 -0.544746 -2.2526e-20)
(1.41459 -1.34436 -3.49386e-19)
(1.30758 -1.12889 2.53922e-19)
(1.31718 -0.987192 0)
(1.3727 -0.859195 3.36366e-20)
(1.45953 -0.738446 4.11792e-20)
(1.57686 -0.633523 -3.49756e-20)
(1.71356 -0.556382 -1.17388e-21)
(1.85344 -0.511249 -1.26532e-20)
(1.98155 -0.491001 0)
(2.09248 -0.481587 -5.76926e-20)
(2.17859 -0.466896 -1.2008e-19)
(1.35929 -1.13199 9.7682e-21)
(1.19917 -0.952822 1.86495e-19)
(1.2461 -0.782536 -2.08661e-20)
(1.3251 -0.641813 5.68978e-20)
(1.44133 -0.520189 4.10839e-20)
(1.58746 -0.429951 -2.63263e-20)
(1.74393 -0.380251 1.24654e-21)
(1.8908 -0.367718 1.32068e-20)
(2.01491 -0.378523 6.68607e-23)
(2.11432 -0.395581 1.48177e-19)
(2.19039 -0.402294 8.15321e-20)
(1.22009 -1.14726 3.22585e-19)
(1.17596 -0.767347 5.81064e-21)
(1.21771 -0.559678 9.68355e-21)
(1.34024 -0.402639 -4.77057e-20)
(1.49588 -0.293216 2.1498e-19)
(1.66716 -0.234877 1.342e-19)
(1.83051 -0.224633 9.39813e-21)
(1.96923 -0.248861 -1.28533e-19)
(2.07652 -0.289509 8.53392e-20)
(2.15471 -0.329451 -7.88895e-20)
(2.21067 -0.353247 9.97346e-20)
(1.76813 -0.0174138 6.10381e-19)
(1.18727 -0.214553 -5.30739e-19)
(1.4648 -0.0713189 8.17361e-19)
(1.60667 -0.0264822 0)
(1.74706 -0.0156472 2.44635e-19)
(1.88733 -0.0379329 -2.81747e-19)
(2.00867 -0.0898268 6.82241e-20)
(2.10419 -0.157339 9.24662e-20)
(2.17205 -0.227624 -5.74034e-20)
(2.21479 -0.287997 1.0319e-20)
(2.24155 -0.326309 1.63901e-20)
(5.71259 -0.644496 -6.04281e-19)
(4.90052 -0.506905 5.01527e-19)
(5.1176 -0.493679 -3.87275e-19)
(5.23749 -0.455882 -2.63599e-20)
(5.14092 -0.383568 -7.8681e-20)
(4.93017 -0.309269 1.08379e-19)
(4.68555 -0.2506 -8.19856e-20)
(4.45755 -0.20386 1.18544e-19)
(4.24703 -0.163659 0)
(4.05547 -0.138742 -1.34032e-19)
(3.88406 -0.136244 0)
(4.43973 -1.54434 -6.99452e-19)
(4.15841 -1.02105 -5.77419e-19)
(4.51679 -0.599797 7.40971e-19)
(4.83251 -0.343201 -3.26185e-19)
(4.96268 -0.163869 8.6184e-20)
(4.93897 -0.0345864 -1.5565e-20)
(4.79629 0.0411118 0)
(4.56792 0.0740034 0)
(4.30105 0.0826904 2.94358e-20)
(4.08149 0.0808016 5.15879e-20)
(3.89324 0.0629167 -3.71472e-20)
(4.1776 -4.31732 -2.63502e-20)
(4.14302 -2.41489 1.75257e-18)
(4.26033 -1.36946 8.94644e-19)
(4.48934 -0.713169 -3.20549e-19)
(4.69243 -0.258692 0)
(4.79502 0.0588065 0)
(4.77058 0.256569 -6.17685e-21)
(4.62033 0.349729 -1.75514e-19)
(4.37328 0.362029 -6.5074e-20)
(4.09056 0.327568 2.6388e-20)
(3.88035 0.277923 -3.09961e-20)
(4.56434 -4.19652 -2.23095e-18)
(4.32136 -3.80716 -1.54788e-19)
(4.21444 -2.46619 0)
(4.31786 -1.43071 1.67631e-19)
(4.4852 -0.656073 -2.29776e-19)
(4.61853 -0.0793599 4.82065e-19)
(4.66108 0.319896 -2.21682e-19)
(4.58392 0.553122 1.19244e-19)
(4.38855 0.637962 -1.4967e-19)
(4.10873 0.610337 9.9554e-21)
(3.84023 0.521729 3.02207e-20)
(4.75103 -4.38638 4.17466e-18)
(4.60227 -4.11284 -2.81184e-19)
(4.4383 -3.54561 -2.18135e-18)
(4.3308 -2.34458 1.798e-19)
(4.39093 -1.27794 -1.42481e-18)
(4.4867 -0.42432 6.288e-19)
(4.53459 0.216584 7.97544e-20)
(4.49021 0.644416 0)
(4.33636 0.863524 9.93234e-20)
(4.08011 0.898177 0)
(3.78288 0.803791 0)
(4.94558 -4.62663 -4.14305e-18)
(4.88268 -4.33942 3.13606e-18)
(4.72125 -3.92364 7.90828e-20)
(4.55503 -3.20293 0)
(4.43755 -2.03287 -1.6413e-20)
(4.42828 -0.937488 0)
(4.42638 -0.0434126 5.99318e-19)
(4.36878 0.610514 -5.02146e-19)
(4.22518 1.00821 6.40402e-20)
(3.98747 1.15612 0)
(3.70233 1.0992 0)
(5.11826 -4.87989 -2.17652e-18)
(5.13774 -4.58626 -2.24553e-19)
(4.99101 -4.21688 -7.25735e-20)
(4.81694 -3.64277 0)
(4.61434 -2.7409 8.58346e-20)
(4.45963 -1.5502 1.16332e-18)
(4.35571 -0.439705 -1.34728e-18)
(4.23784 0.448388 -1.19101e-18)
(4.06672 1.05165 -3.74884e-19)
(3.82465 1.35167 8.84145e-19)
(3.55835 1.38261 9.01148e-20)
(5.27095 -5.11695 2.5592e-18)
(5.35261 -4.82974 3.77511e-18)
(5.2112 -4.5026 -5.5115e-18)
(5.04356 -3.98128 1.56368e-18)
(4.82168 -3.24934 1.75953e-18)
(4.55757 -2.14455 -1.36169e-18)
(4.32786 -0.922599 4.74939e-19)
(4.10728 0.167582 -8.74636e-19)
(3.86941 0.980564 -1.39842e-19)
(3.59855 1.45308 -1.72879e-18)
(3.32973 1.595 1.19212e-19)
(5.40799 -5.32989 -8.8661e-19)
(5.53029 -5.05364 3.78441e-18)
(5.38088 -4.77412 7.4496e-20)
(5.21552 -4.29176 6.44604e-19)
(4.97916 -3.63203 8.7927e-20)
(4.67412 -2.71273 -4.83744e-18)
(4.32405 -1.45381 2.47856e-18)
(3.97301 -0.218879 -2.05403e-18)
(3.63227 0.784003 3.48409e-18)
(3.29924 1.4323 7.81821e-19)
(3.03404 1.71094 -9.66799e-19)
(5.52506 -5.50648 5.76789e-19)
(5.66955 -5.24766 0)
(5.49937 -5.02048 8.08163e-19)
(5.33155 -4.58415 -1.3361e-18)
(5.08285 -3.98898 1.12041e-18)
(4.73794 -3.16498 1.89667e-18)
(4.30477 -1.98422 2.99742e-18)
(3.82821 -0.682144 1.24457e-18)
(3.36336 0.463175 1.82901e-18)
(2.94328 1.27036 -1.15015e-18)
(2.65455 1.69443 -2.61079e-18)
(5.60358 -5.6363 0)
(5.76247 -5.41099 4.08691e-18)
(5.56353 -5.23256 -3.96864e-18)
(5.38589 -4.8501 2.68849e-18)
(5.11804 -4.33259 -1.09277e-18)
(4.74732 -3.60295 -1.84939e-18)
(4.24317 -2.57277 1.72111e-18)
(3.66113 -1.22726 1.48235e-19)
(3.0639 0.0112125 -1.67159e-18)
(2.54675 0.945603 2.66783e-18)
(2.20143 1.49908 1.41e-18)
(5.62855 -5.75053 0)
(5.78665 -5.55514 1.01191e-18)
(5.57548 -5.40267 0)
(5.37855 -5.08472 -2.77473e-18)
(5.08719 -4.65233 2.49455e-18)
(4.69333 -4.02716 -1.96103e-18)
(4.13866 -3.12945 -5.30926e-18)
(3.4702 -1.83468 2.78594e-18)
(2.74799 -0.563052 2.02571e-18)
(2.13859 0.455239 -2.75393e-18)
(1.76104 1.10957 0)
(5.628 -5.82703 2.38287e-18)
(5.75535 -5.65257 2.11487e-18)
(5.53212 -5.53285 -3.21988e-18)
(5.3036 -5.28518 -1.54062e-18)
(4.98414 -4.93869 -2.22162e-19)
(4.56214 -4.43335 2.00592e-18)
(3.98177 -3.7019 -1.80121e-18)
(3.23964 -2.53686 -2.98893e-18)
(2.43022 -1.25406 -4.26202e-18)
(1.72661 -0.210993 2.43138e-19)
(1.35025 0.541647 1.74618e-18)
(5.58771 -5.84654 4.1925e-18)
(5.65731 -5.70893 1.23938e-18)
(5.42476 -5.62473 2.27014e-19)
(5.16068 -5.44272 2.36006e-19)
(4.80957 -5.18054 -2.27548e-18)
(4.35673 -4.80199 0)
(3.77317 -4.26221 1.80581e-18)
(2.97033 -3.33696 2.02613e-20)
(2.13405 -2.03147 4.36042e-18)
(1.38066 -1.00168 -1.56278e-18)
(0.967723 -0.181872 -3.4224e-18)
(5.49075 -5.81786 4.51095e-18)
(5.48977 -5.73023 -7.14444e-18)
(5.24437 -5.68225 2.89283e-18)
(4.9472 -5.5674 0)
(4.56512 -5.38861 -2.34659e-18)
(4.08554 -5.11616 1.84634e-18)
(3.49346 -4.71163 0)
(2.77752 -4.09146 2.59064e-18)
(1.98152 -2.99455 1.94731e-18)
(1.14338 -1.84294 0)
(0.706764 -1.01286 1.76342e-18)
(5.33126 -5.73566 2.49206e-18)
(5.25179 -5.70185 -3.68509e-19)
(4.98633 -5.69804 -3.42556e-18)
(4.66156 -5.65885 2.21166e-18)
(4.26241 -5.57564 -9.34143e-19)
(3.78557 -5.41778 0)
(3.22754 -5.1425 0)
(2.58057 -4.677 -4.96721e-18)
(1.86682 -3.88882 1.52269e-18)
(1.14094 -2.86077 -1.0549e-18)
(0.626076 -1.90717 -3.37071e-19)
(5.08704 -5.58971 -3.31945e-18)
(4.92952 -5.61026 1.92597e-19)
(4.63936 -5.66238 2.8534e-18)
(4.29597 -5.71114 0)
(3.89957 -5.73791 1.35117e-18)
(3.45712 -5.70702 0)
(2.97514 -5.57019 5.78384e-19)
(2.44995 -5.25984 9.01146e-19)
(1.87441 -4.69613 -2.28108e-18)
(1.28236 -3.82416 2.72531e-18)
(0.792973 -2.88936 -1.22745e-18)
(4.72452 -5.37807 -1.9896e-19)