/*--------------------------------*- C++ -*----------------------------------*\
| =========                 |                                                 |
| \\      /  F ield         | OpenFOAM: The Open Source CFD Toolbox           |
|  \\    /   O peration     | Version:  3.0.1                                 |
|   \\  /    A nd           | Web:      www.OpenFOAM.org                      |
|    \\/     M anipulation  |                                                 |
\*---------------------------------------------------------------------------*/
FoamFile
{
    version     2.0;
    format      ascii;
    class       surfaceVectorField;
    location    "0.493611";
    object      Uf;
}
// * * * * * * * * * * * * * * * * * * * * * * * * * * * * * * * * * * * * * //

dimensions      [0 1 -1 0 0 0 0];

internalField   nonuniform List<vector> 
32369
(
(0.530534 -5.4174 -5.23154e-18)
(-0.788245 -2.71977 -6.98824e-18)
(3.86865 -6.89573 -4.27147e-18)
(1.33826 -3.80375 -6.94715e-19)
(-0.0393672 -3.00298 -6.77296e-19)
(3.11035 -4.41032 -1.63668e-18)
(1.91693 -2.91574 1.86339e-18)
(0.839351 -2.81274 1.65505e-18)
(2.90938 -3.43611 1.1337e-18)
(2.24516 -2.2922 9.68399e-19)
(1.47115 -2.43273 -2.67324e-19)
(2.8357 -2.62518 -7.87136e-19)
(2.42573 -1.81696 3.0062e-19)
(1.87694 -2.01922 2.06365e-18)
(2.80402 -2.04584 1.56192e-18)
(2.52261 -1.43944 -1.24802e-18)
(2.13473 -1.63027 -7.25213e-19)
(2.78719 -1.59744 -1.23686e-18)
(2.5735 -1.13501 4.01881e-19)
(2.2963 -1.29489 3.43231e-19)
(2.7686 -1.24742 1.19502e-19)
(2.59672 -0.889124 -4.02254e-19)
(2.39761 -1.01748 0)
(2.74467 -0.969699 -1.36779e-19)
(2.60216 -0.691306 -3.10582e-19)
(2.46086 -0.792073 -5.85323e-19)
(2.71699 -0.74864 -4.47079e-19)
(2.59642 -0.532792 -2.0451e-20)
(2.49764 -0.611979 5.88134e-19)
(2.68713 -0.574663 4.18347e-20)
(2.51065 -0.472592 6.12882e-19)
(2.65291 -0.442922 2.17369e-19)
(2.57176 -0.389342 3.51485e-20)
(-1.28548 -1.40574 -2.03775e-18)
(-1.59037 -0.203494 2.03128e-18)
(-0.510355 -2.13758 9.59828e-19)
(-0.808394 -1.12717 -5.80085e-18)
(0.337193 -2.22198 2.40116e-19)
(-0.277063 -1.48161 3.01621e-18)
(1.0441 -2.04558 9.99196e-19)
(0.41144 -1.62435 2.55035e-19)
(1.55973 -1.75941 1.52909e-18)
(1.0022 -1.58543 -8.17327e-20)
(1.90283 -1.45049 8.46312e-19)
(1.46334 -1.42414 1.37288e-18)
(2.12193 -1.16349 0)
(1.7969 -1.20376 -4.98753e-19)
(2.26205 -0.916053 -2.7666e-20)
(2.02924 -0.975891 -4.97445e-19)
(2.35423 -0.711264 2.42919e-19)
(2.18902 -0.768819 -3.06042e-20)
(2.41726 -0.546128 1.2045e-18)
(2.29724 -0.593713 3.64941e-19)
(2.36414 -0.457012 4.46313e-19)
(2.45287 -0.404245 -4.02189e-19)
(-0.973451 -0.129698 -3.38036e-19)
(-1.17927 0.709847 1.01426e-18)
(-0.742221 -0.625384 -3.96633e-18)
(-0.484979 -0.0297822 -6.27258e-18)
(-0.273582 -0.962541 3.15613e-18)
(-0.37669 -0.332853 3.65112e-18)
(0.281357 -1.16604 -8.71134e-19)
(0.0589412 -0.66098 -3.28623e-19)
(0.835332 -1.21581 -5.36402e-19)
(0.526289 -0.858847 -1.44289e-18)
(1.31038 -1.13989 2.55656e-19)
(0.990077 -0.92748 -5.33876e-20)
(1.67675 -0.989669 -9.72459e-19)
(1.38784 -0.884879 -7.69339e-20)
(1.93979 -0.814898 -5.40837e-19)
(1.70297 -0.7766 1.43058e-19)
(2.12197 -0.647479 0)
(1.93923 -0.643118 -1.00562e-19)
(2.24645 -0.503779 -4.37937e-19)
(2.11014 -0.5123 0)
(2.22416 -0.399054 5.96065e-20)
(2.33112 -0.376709 1.74227e-19)
(-0.35907 0.57344 -4.18718e-18)
(-0.532538 1.09077 -2.6623e-18)
(-0.296959 0.254366 9.16506e-19)
(0.0991898 0.591941 -1.65899e-18)
(-0.0882694 -0.0740444 7.2188e-19)
(-0.0399899 0.4362 4.17046e-18)
(0.202921 -0.365585 -7.80441e-19)
(0.226267 0.065749 -4.4959e-18)
(0.592469 -0.568331 -1.12711e-18)
(0.488958 -0.175119 8.50161e-20)
(1.00106 -0.665431 -3.63097e-19)
(0.831609 -0.367122 -5.88534e-19)
(1.37315 -0.665992 1.08251e-18)
(1.1752 -0.46512 1.34475e-18)
(1.67831 -0.602421 6.66556e-19)
(1.4875 -0.481076 6.7149e-19)
(1.91198 -0.50894 -1.10696e-19)
(1.74828 -0.44151 -2.84725e-19)
(2.08435 -0.411715 4.94479e-19)
(1.95356 -0.375109 0)
(2.10189 -0.304593 3.6427e-19)
(2.20775 -0.318884 -1.13015e-18)
(0.195581 0.947959 -4.50647e-19)
(0.0592894 1.24623 3.0007e-18)
(0.219455 0.778109 1.26031e-18)
(0.628302 0.898658 -6.16645e-18)
(0.285834 0.530283 -8.56486e-20)
(0.3812 0.859691 5.05906e-18)
(0.434562 0.249383 -4.0203e-18)
(0.558848 0.563416 -3.99958e-18)
(0.660948 0.00435025 6.96997e-19)
(0.677586 0.32871 4.77441e-19)
(0.93957 -0.17914 9.97385e-19)
(0.894253 0.0977772 7.67713e-20)
(1.24075 -0.28733 1.0087e-18)
(1.143 -0.0619164 9.01574e-19)
(1.52431 -0.324592 -1.63908e-19)
(1.40111 -0.160065 0)
(1.76693 -0.310824 -2.05479e-19)
(1.64219 -0.199806 6.22323e-21)
(1.96257 -0.269504 -1.92165e-19)
(1.85013 -0.197504 -5.06723e-19)
(2.01026 -0.170905 1.14992e-19)
(2.11821 -0.209176 -1.38281e-18)
(0.644667 1.10862 -5.30439e-19)
(0.516965 1.23549 9.99783e-19)
(0.697775 1.03698 -3.14936e-18)
(1.04588 1.07786 -4.70949e-18)
(0.696921 0.858925 2.21726e-18)
(0.777322 1.06608 3.55804e-18)
(0.750515 0.64243 1.30998e-19)
(0.905098 0.83688 -2.44087e-18)
(0.866064 0.419574 0)
(0.939545 0.65296 -5.94375e-20)
(1.04259 0.215965 0)
(1.06448 0.443786 1.04514e-18)
(1.25515 0.0592366 0)
(1.22836 0.264142 -1.53922e-19)
(1.48079 -0.0415054 1.60293e-19)
(1.41939 0.126891 0)
(1.69601 -0.0912695 -2.4593e-19)
(1.61733 0.03753 1.79453e-19)
(1.88538 -0.104454 -2.81217e-19)
(1.80382 -0.00970145 2.11807e-19)
(1.95759 -0.0233324 6.34629e-21)
(2.04536 -0.0925152 2.62043e-19)
(0.994075 1.13152 -1.94366e-18)
(0.819888 1.17311 -1.71352e-18)
(1.06198 1.1566 1.47872e-18)
(1.34301 1.11406 1.64048e-19)
(1.04285 1.02742 -2.25085e-19)
(1.11449 1.15959 1.43616e-18)
(1.06187 0.868044 -2.79887e-18)
(1.20534 0.984416 -2.54956e-18)
(1.11466 0.684106 8.67696e-19)
(1.20175 0.846319 1.40561e-19)
(1.21338 0.498759 1.0164e-18)
(1.26981 0.670054 8.3752e-19)
(1.35321 0.334708 -1.69964e-19)
(1.36971 0.503007 5.93857e-21)
(1.51932 0.206347 0)
(1.50209 0.357625 0)
(1.69377 0.118475 6.27118e-19)
(1.65331 0.245105 0)
(1.86066 0.066765 5.06883e-19)
(1.80776 0.167106 4.74795e-19)
(1.94116 0.121592 -8.65958e-19)
(2.00982 0.0473458 -2.80704e-19)
(1.23097 1.10985 1.91241e-19)
(1.03476 1.1332 -1.11079e-19)
(1.34028 1.18732 -1.32958e-20)
(1.55167 1.1255 -1.09744e-19)
(1.32308 1.10214 -2.3862e-19)
(1.3748 1.18732 -9.83974e-20)
(1.32847 0.987644 1.78753e-19)
(1.44963 1.05411 0)
(1.35012 0.843195 4.89091e-20)
(1.43192 0.953272 -7.22312e-19)
(1.40318 0.686671 -7.99421e-20)
(1.46901 0.80945 3.76518e-19)
(1.49045 0.535159 1.64968e-19)
(1.52758 0.665513 1.48772e-19)
(1.60598 0.402743 0)
(1.61586 0.528903 0)
(1.73827 0.297869 -1.91424e-19)
(1.72625 0.411466 0)
(1.87392 0.221187 -7.25054e-19)
(1.84775 0.318546 -2.14908e-19)
(1.95617 0.255325 -2.43715e-20)
(2.00253 0.167987 1.36715e-18)
(1.4069 1.08529 -4.46243e-19)
(1.20905 1.09355 -1.27981e-18)
(1.54548 1.19036 -2.09276e-19)
(1.72495 1.12144 9.04377e-19)
(1.5407 1.13049 1.44071e-19)
(1.57997 1.19326 1.01222e-18)
(1.54433 1.04562 -8.30985e-19)
(1.64633 1.08314 -6.90307e-19)
(1.55282 0.932633 -5.37035e-19)
(1.62383 1.00894 -1.21966e-18)
(1.58143 0.804278 6.29576e-19)
(1.64513 0.891785 -7.05935e-19)
(1.63539 0.672475 0)
(1.67894 0.771355 1.62071e-18)
(1.71396 0.548502 0)
(1.73737 0.649901 -1.26472e-18)
(1.8113 0.440984 0)
(1.81663 0.537979 4.8198e-19)
(1.91825 0.353228 4.62052e-19)
(1.91053 0.441584 -6.8505e-19)
(1.99908 0.370141 4.96693e-19)
(2.02554 0.282614 -8.22734e-19)
(1.55819 1.03016 -6.08234e-19)
(1.32472 0.99968 -1.13424e-18)
(1.71544 1.16717 2.11151e-18)
(1.8606 1.07731 9.60861e-19)
(1.7156 1.13 4.90565e-19)
(1.74027 1.17437 1.0709e-18)
(1.71865 1.06763 -1.02417e-18)
(1.80402 1.08451 -5.33462e-19)
(1.72124 0.979139 -1.46442e-18)
(1.78065 1.03312 -1.27494e-20)
(1.73703 0.874875 5.12492e-20)
(1.79452 0.937785 -2.39139e-18)
(1.77117 0.763188 6.55063e-19)
(1.81423 0.838517 2.32903e-18)
(1.82521 0.65259 -9.5246e-19)
(1.85372 0.733341 -1.2657e-18)
(1.89708 0.550686 -7.44055e-20)
(1.91114 0.631679 9.09338e-19)
(1.98205 0.462242 -7.79153e-19)
(1.98421 0.538895 -1.00724e-18)
(2.05553 0.466638 7.08562e-23)
(2.07603 0.392512 -2.54046e-21)
(1.65378 0.952741 -2.12489e-19)
(1.37923 0.887704 9.24595e-20)
(1.84408 1.1243 -9.15868e-20)
(1.94499 1.02486 4.95613e-19)
(1.85282 1.1099 3.48888e-19)
(1.85527 1.14332 1.97866e-19)
(1.85826 1.06732 4.32057e-19)
(1.9249 1.06981 3.31286e-19)
(1.85931 0.999305 -6.78993e-19)
(1.90539 1.03829 -7.07361e-19)
(1.86892 0.915309 -5.84127e-19)
(1.91808 0.960839 -3.02665e-19)
(1.89174 0.821873 7.82695e-19)
(1.93086 0.87997 4.78182e-20)
(1.93018 0.725574 3.81124e-19)
(1.95923 0.790082 5.0724e-19)
(1.98408 0.632866 1.6407e-19)
(2.00201 0.699943 4.87549e-20)
(2.05052 0.548383 -3.55458e-19)
(2.05966 0.613399 -3.22976e-19)
(2.11656 0.544428 4.51255e-19)
(2.12343 0.472429 -1.51187e-18)
(1.69513 0.898107 4.97047e-19)
(1.4279 0.822801 -2.19605e-18)
(1.92826 1.08955 8.2196e-19)
(2.00798 0.999894 1.82067e-18)
(1.95294 1.08798 1.43762e-19)
(1.94325 1.12165 7.1858e-19)
(1.96616 1.05824 -7.571e-19)
(2.01893 1.0545 -7.04314e-19)
(1.97029 1.00542 -3.84581e-19)
(2.00432 1.03648 -5.84389e-20)
(1.97871 0.93747 3.17348e-19)
(2.01921 0.971607 4.51849e-19)
(1.996 0.859508 -2.77988e-19)
(2.02957 0.905617 -5.21584e-20)
(2.02517 0.776496 2.24284e-19)
(2.05223 0.828878 -4.21231e-19)
(2.06725 0.693661 -4.21861e-19)
(2.08592 0.749961 1.06527e-18)
(2.12113 0.614954 3.92652e-19)
(2.13326 0.670875 -5.45216e-19)
(2.18013 0.606644 8.30833e-19)
(2.18232 0.542156 -7.6661e-19)
(1.73285 0.858247 -1.77726e-18)
(1.46906 0.766762 -1.36862e-18)
(1.99522 1.06497 1.83185e-18)
(2.06366 0.974987 2.47331e-19)
(2.03075 1.07086 1.31161e-19)
(2.01744 1.10345 -3.33386e-19)
(2.05115 1.04883 -5.46166e-20)
(2.09674 1.04088 -3.1022e-19)
(2.05958 1.00627 7.2796e-19)
(2.08517 1.03357 1.40372e-18)
(2.0695 0.950183 1.35184e-19)
(2.1031 0.977063 -7.31978e-19)
(2.08499 0.884544 -1.53244e-19)
(2.11311 0.922801 3.78747e-20)
(2.1093 0.812938 2.62574e-19)
(2.13335 0.856682 -4.14739e-20)
(2.14426 0.73956 1.09535e-18)
(2.16176 0.78787 1.11131e-18)
(2.19038 0.667602 -2.60608e-19)
(2.20307 0.716213 -1.04031e-18)
(2.24376 0.658423 2.60415e-20)
(2.24913 0.602866 -5.42934e-19)
(1.76495 0.801523 5.09008e-19)
(1.45501 0.68471 1.0438e-18)
(2.05168 1.03362 -1.86162e-18)
(2.0875 0.93699 -8.36083e-19)
(2.09611 1.05307 -7.58926e-19)
(2.07163 1.08191 -8.82936e-19)
(2.12181 1.0395 1.02231e-18)
(2.15899 1.02716 1.3247e-19)
(2.13356 1.00543 2.08873e-19)
(2.15188 1.03012 8.9947e-19)
(2.14567 0.958589 -9.13023e-19)
(2.17376 0.980114 -3.59009e-19)
(2.16118 0.902751 1.64756e-19)
(2.18451 0.935654 -2.97853e-19)
(2.18333 0.840648 6.8801e-19)
(2.20428 0.878075 5.96979e-20)
(2.21429 0.775809 -8.29656e-19)
(2.22975 0.818186 -3.56173e-20)
(2.25518 0.71069 -8.73404e-19)
(2.26764 0.753015 9.38064e-19)
(2.30467 0.701529 -7.20504e-19)
(2.305 0.64766 9.79467e-19)
(1.76347 0.762667 1.4594e-19)
(1.45866 0.633952 -9.94273e-19)
(2.08715 1.00956 1.5418e-19)
(2.10685 0.917196 8.7451e-19)
(2.14766 1.03857 -1.90039e-19)
(2.11794 1.06694 -5.22724e-19)
(2.18039 1.03154 -2.05415e-20)
(2.21023 1.0176 -1.40856e-20)
(2.19603 1.00428 4.85299e-19)
(2.20848 1.02694 4.40016e-19)
(2.21077 0.964984 2.52321e-19)
(2.23404 0.982274 -1.67955e-19)
(2.22717 0.917249 -4.42021e-19)
(2.24635 0.945815 5.48913e-19)
(2.2487 0.863165 -6.55543e-19)
(2.26675 0.895509 -8.5136e-19)
(2.27772 0.805763 1.64985e-18)
(2.29096 0.843641 9.54465e-21)
(2.31584 0.746863 1.31141e-18)
(2.32718 0.784392 1.00027e-18)
(2.36252 0.737735 -3.56612e-19)
(2.36276 0.689392 -6.49539e-19)
(1.76505 0.733873 -5.58721e-19)
(1.47288 0.590673 -1.05416e-18)
(2.11577 0.991598 3.37795e-19)
(2.12389 0.896033 8.18196e-19)
(2.19098 1.02811 -4.9284e-19)
(2.16177 1.05051 -6.08502e-19)
(2.23019 1.02575 4.47602e-19)
(2.25506 1.01037 3.3787e-19)
(2.24983 1.00332 -1.50671e-19)
(2.25887 1.02339 4.27661e-19)
(2.26737 0.97008 5.48323e-20)
(2.28659 0.984269 -3.31822e-19)
(2.28515 0.929154 2.98286e-19)
(2.30074 0.95408 6.53921e-19)
(2.30706 0.882264 -2.79422e-19)
(2.32211 0.910445 -1.94264e-19)
(2.33554 0.831633 -7.50513e-19)
(2.3464 0.865833 -6.06888e-19)
(2.3726 0.778546 -5.02525e-19)
(2.38204 0.812681 -2.37657e-19)
(2.4193 0.770229 3.00803e-19)
(2.4203 0.724348 8.21419e-19)
(1.77035 0.691161 2.72984e-20)
(1.45041 0.536831 1.59586e-21)
(2.13944 0.964243 1.61965e-20)
(2.11588 0.863319 3.12817e-22)
(2.2291 1.01431 3.3055e-20)
(2.19285 1.02746 6.59823e-19)
(2.27404 1.01925 3.0868e-19)
(2.29077 1.00214 -5.47095e-19)
(2.29721 1.00189 3.47976e-19)
(2.30296 1.01813 4.2798e-19)
(2.31715 0.974341 1.6357e-19)
(2.33232 0.985701 -4.91365e-19)
(2.33642 0.939532 2.55941e-19)
(2.34863 0.960985 7.6417e-19)
(2.35933 0.899326 -4.78751e-19)
(2.37112 0.924035 -4.37825e-21)
(2.38838 0.855057 -1.3084e-19)
(2.3966 0.886147 -2.94521e-19)
(2.42553 0.80781 5.12095e-19)
(2.43238 0.839369 2.20062e-19)
(2.47126 0.799745 6.5586e-19)
(2.47087 0.758507 -6.81932e-19)
(1.75358 0.653422 -2.87189e-20)
(1.43449 0.491259 -6.9664e-20)
(2.14723 0.935132 5.77118e-19)
(2.09931 0.831825 -8.928e-19)
(2.25773 0.998528 2.74565e-19)
(2.21502 1.00271 1.35117e-18)
(2.311 1.0113 -5.28138e-19)
(2.31882 0.993032 -1.03911e-18)
(2.33846 0.999235 -2.93795e-19)
(2.34083 1.0108 4.33422e-19)
(2.36065 0.977523 -1.78403e-20)
(2.37127 0.985979 -3.28428e-19)
(2.38147 0.948949 5.92031e-19)
(2.38991 0.966839 3.79911e-19)
(2.40591 0.91549 2.1341e-19)
(2.4139 0.937249 1.92837e-19)
(2.43646 0.877451 0)
(2.44174 0.905948 0)
(2.47474 0.835403 3.14141e-19)
(2.47891 0.865544 0)
(2.52053 0.827844 2.96121e-19)
(2.52088 0.789523 -2.06526e-19)
(1.72926 0.618222 -8.45659e-19)
(1.42057 0.448341 -1.33514e-18)
(2.14314 0.904248 -2.58659e-19)
(2.07424 0.796134 7.65814e-20)
(2.27696 0.980235 3.56278e-19)
(2.22899 0.971419 7.22729e-19)
(2.34061 1.00088 -2.00349e-19)
(2.33977 0.978849 -5.57709e-19)
(2.37295 0.994453 4.78823e-19)
(2.37174 0.998945 4.31299e-19)
(2.3972 0.979428 0)
(2.40214 0.983762 -8.35697e-20)
(2.41997 0.958071 0)
(2.42349 0.97202 0)
(2.44687 0.93192 0)
(2.4501 0.951204 1.79986e-19)
(2.48024 0.900123 0)
(2.48197 0.926813 -1.34235e-19)
(2.52115 0.862589 -5.50777e-20)
(2.52243 0.89276 -8.97884e-20)
(2.56896 0.856353 -6.68686e-20)
(2.5689 0.817801 -4.67215e-20)
(1.70292 0.579409 -5.99443e-19)
(1.40477 0.404472 -1.30427e-18)
(2.12936 0.863871 1.06337e-18)
(2.03629 0.748712 1.12408e-18)
(2.28646 0.952285 -5.45831e-20)
(2.22894 0.924873 5.92914e-21)
(2.36088 0.982812 0)
(2.34734 0.951521 0)
(2.39784 0.985756 -7.44499e-20)
(2.3884 0.978552 -5.84908e-19)
(2.42488 0.979708 -9.25454e-20)
(2.42133 0.977655 3.58466e-19)
(2.4508 0.967694 1.60432e-19)
(2.4469 0.977003 1.28191e-19)
(2.48192 0.949996 7.75989e-20)
(2.47873 0.967097 2.70531e-19)
(2.51994 0.924644 -2.29949e-19)
(2.51718 0.950215 -3.90668e-19)
(2.56493 0.891641 -1.02349e-19)
(2.56279 0.92226 -4.44427e-20)
(2.61337 0.887282 -4.32886e-21)
(2.61262 0.850881 1.37358e-19)
(1.66941 0.531891 1.17786e-19)
(1.38568 0.353892 0)
(2.09955 0.805443 1.90559e-19)
(1.98314 0.681176 -8.03007e-19)
(2.27808 0.905009 5.59743e-20)
(2.20412 0.852575 7.27195e-19)
(2.36345 0.949197 -5.18679e-19)
(2.32763 0.902405 3.46369e-19)
(2.40681 0.967432 -2.67915e-19)
(2.37905 0.946242 -7.02008e-19)
(2.43898 0.977328 6.00906e-19)
(2.41865 0.967373 4.35351e-19)
(2.47149 0.978701 2.22385e-19)
(2.45511 0.982657 -5.55443e-21)
(2.51022 0.970865 -1.29218e-19)
(2.49797 0.985692 9.13745e-20)
(2.55538 0.952049 -2.43492e-19)
(2.54668 0.976661 1.8475e-19)
(2.60575 0.922958 5.16509e-20)
(2.59969 0.954071 1.18243e-21)
(2.655 0.920307 0)
(2.65836 0.884801 0)
(1.63301 0.467009 -7.98835e-19)
(1.38455 0.277799 9.82685e-19)
(2.04578 0.716047 -4.15073e-19)
(1.89885 0.569109 -1.56315e-18)
(2.2367 0.828488 1.04442e-18)
(2.12651 0.747486 5.20762e-19)
(2.33214 0.896539 2.69522e-19)
(2.25096 0.831277 3.35072e-19)
(2.3873 0.940801 -1.41661e-19)
(2.3228 0.904392 3.41555e-19)
(2.43237 0.972962 -1.20975e-19)
(2.38258 0.953712 -5.68218e-20)
(2.47874 0.991238 -1.50623e-19)
(2.44094 0.988257 -1.73238e-19)
(2.53027 0.994196 3.93619e-19)
(2.50326 1.00458 1.41945e-21)
(2.58559 0.981751 4.53733e-19)
(2.56711 1.00324 3.03363e-19)
(2.64319 0.95608 -5.05552e-20)
(2.63059 0.986015 -2.95638e-19)
(2.69343 0.952768 1.15471e-19)
(2.69366 0.919434 0)
(1.51072 0.349456 3.9588e-19)
(1.39093 0.113599 2.74213e-18)
(1.90137 0.604622 -8.55901e-19)
(1.74423 0.493593 -1.77117e-18)
(2.09718 0.741696 -3.64113e-20)
(1.95547 0.629197 3.94319e-19)
(2.21877 0.837978 4.06947e-19)
(2.10254 0.745962 0)
(2.30619 0.911705 4.6597e-19)
(2.20727 0.854297 1.85898e-19)
(2.38394 0.967888 -9.67387e-20)
(2.30145 0.934021 -5.49136e-20)
(2.45998 1.00223 -4.22666e-20)
(2.39377 0.987536 -3.7214e-20)
(2.53436 1.01468 -1.25827e-19)
(2.48318 1.01521 2.02843e-19)
(2.60535 1.0087 -3.77504e-19)
(2.56618 1.02116 -1.41015e-19)
(2.67367 0.988517 -1.67194e-19)
(2.64312 1.01109 -8.62892e-20)
(2.71701 0.986748 1.14685e-19)
(2.73322 0.959634 3.00416e-19)
(1.89169 0.124641 4.33189e-19)
(1.78541 -1.04794 1.06691e-18)
(1.98477 0.331192 -2.15936e-19)
(0.786288 -0.00421655 -2.5e-18)
(2.07313 0.554055 8.18022e-19)
(1.02688 0.158777 3.61158e-19)
(2.14905 0.72128 -3.2875e-19)
(1.34698 0.290921 0)
(2.22391 0.851496 -4.17955e-19)
(1.59466 0.450773 -1.08214e-20)
(2.31058 0.945872 0)
(1.82023 0.594247 0)
(2.40583 1.00041 1.76099e-19)
(2.02978 0.709767 0)
(2.50033 1.02316 2.2421e-19)
(2.21132 0.796775 -1.79475e-19)
(2.58869 1.02519 1.40907e-19)
(2.36337 0.856922 2.41215e-19)
(2.67149 1.01448 1.79497e-19)
(2.49257 0.895344 3.22136e-20)
(2.61315 0.925877 1.94673e-19)
(2.74308 1.00504 0)
(4.76304 -4.4861 2.14914e-19)
(6.01335 -5.70406 -7.36042e-19)
(4.10728 -4.06329 -2.73153e-19)
(5.35228 -2.67068 1.56953e-18)
(3.77691 -3.28882 -1.17764e-18)
(5.02816 -2.97053 -2.37933e-18)
(3.44205 -2.54035 -6.59377e-19)
(4.40756 -2.45792 -9.14985e-20)
(3.21713 -1.93912 2.62007e-19)
(3.88353 -1.9769 -1.87539e-19)
(3.06983 -1.48091 -2.02362e-20)
(3.51844 -1.55447 2.60021e-19)
(2.96588 -1.13332 -5.36927e-19)
(3.27409 -1.20434 -3.51071e-19)
(2.8845 -0.866573 -1.49621e-19)
(3.10313 -0.921229 -2.51694e-20)
(2.81672 -0.659995 -1.9062e-19)
(2.97597 -0.696767 -6.24216e-20)
(2.75771 -0.500419 2.32194e-19)
(2.87585 -0.520836 -3.82611e-20)
(2.79164 -0.3898 4.62691e-19)
(2.69362 -0.369419 5.23817e-20)
(4.92977 -1.7756 3.53063e-18)
(4.91147 -3.25741 7.34462e-19)
(5.40376 -2.21753 1.93039e-18)
(5.15715 -0.310132 -4.65009e-18)
(5.19418 -2.25022 -1.47987e-18)
(5.87258 -1.55035 1.96905e-18)
(4.65832 -2.0776 4.4363e-19)
(5.43891 -1.52169 -6.4874e-19)
(4.13526 -1.74695 -1.35568e-19)
(4.83608 -1.43603 1.41857e-18)
(3.71927 -1.38402 0)
(4.26449 -1.23985 -1.87371e-19)
(3.41902 -1.05859 1.24492e-19)
(3.81619 -1.00524 -1.74837e-19)
(3.20313 -0.793396 1.03301e-19)
(3.48689 -0.776926 1.36371e-19)
(3.0418 -0.587207 1.00601e-19)
(3.24586 -0.579426 -5.86183e-20)
(2.91561 -0.430328 9.95627e-20)
(3.06578 -0.418913 1.03781e-19)
(2.92584 -0.299105 -6.4153e-20)
(2.79315 -0.303947 -4.88343e-20)
(4.21012 -0.274886 -5.54857e-18)
(3.62853 -1.68161 -9.66102e-18)
(5.36906 -0.266814 -3.76743e-18)
(4.33056 1.10727 -3.38288e-18)
(5.60345 -0.588665 2.2297e-18)
(5.66553 -0.092024 3.31246e-18)
(5.32831 -0.91649 -7.26743e-19)
(5.58301 -0.18697 2.09039e-18)
(4.83269 -1.01766 1.6528e-18)
(5.26716 -0.479803 -1.3844e-18)
(4.31313 -0.946793 -2.13489e-19)
(4.7595 -0.580757 8.20112e-19)
(3.87245 -0.785137 -1.90409e-19)
(4.25683 -0.565016 -9.18006e-19)
(3.53171 -0.604313 -1.67666e-21)
(3.83193 -0.475283 -1.05461e-21)
(3.27615 -0.440458 -3.00207e-20)
(3.50063 -0.361695 9.31754e-20)
(3.08433 -0.305598 -3.90609e-20)
(3.24957 -0.251822 -3.47184e-20)
(3.05989 -0.164571 0)
(2.91786 -0.194425 0)
(3.34825 0.349627 -8.14765e-18)
(2.53889 -0.889874 -2.21862e-17)
(4.77677 0.880278 1.44403e-18)
(3.53213 1.62548 1.15311e-17)
(5.34839 0.693166 3.30233e-18)
(5.04771 0.89455 -6.50404e-18)
(5.37718 0.283045 1.63696e-18)
(5.20456 0.929536 8.64041e-18)
(5.08906 -0.052414 -2.22298e-18)
(5.20179 0.483592 -3.57124e-19)
(4.65029 -0.251774 6.12813e-19)
(4.87922 0.209464 4.94203e-19)
(4.19643 -0.308029 -8.2563e-19)
(4.46578 0.0292723 -1.77952e-18)
(3.79811 -0.27502 8.10967e-20)
(4.04769 -0.0427246 7.9914e-21)
(3.47836 -0.203957 1.02204e-19)
(3.68373 -0.0471239 3.3221e-20)
(3.23221 -0.12727 0)
(3.39037 -0.0164487 0)
(3.16382 0.020071 4.5139e-21)
(3.00457 -0.0584621 -8.54659e-20)
(2.55986 0.516589 -4.99974e-18)
(1.68076 -0.550071 -1.96465e-17)
(4.06005 1.39548 5.48853e-18)
(2.93231 1.7049 1.02202e-17)
(4.8042 1.45519 -1.56988e-18)
(4.40668 1.44726 -1.19313e-17)
(5.03822 1.17667 7.61036e-18)
(4.66947 1.64584 5.46419e-18)
(4.959 0.80911 2.0333e-18)
(4.85709 1.22238 7.88426e-18)
(4.68002 0.480652 -1.41622e-18)
(4.70509 0.914905 -2.39743e-18)
(4.31256 0.262957 -1.14648e-18)
(4.43333 0.628945 -1.02177e-18)
(3.93692 0.149425 -7.70883e-20)
(4.0926 0.436902 9.81159e-19)
(3.60391 0.108755 -1.08059e-19)
(3.75566 0.322136 -8.2863e-19)
(3.33172 0.107191 3.97124e-21)
(3.45987 0.266402 0)
(3.21825 0.247073 1.39327e-19)
(3.07947 0.115038 3.22622e-21)
(1.91333 0.542079 -6.47517e-18)
(1.02047 -0.419941 -5.31219e-18)
(3.41143 1.60955 -4.87873e-18)
(2.45885 1.66245 0)
(4.21359 1.85492 -4.7837e-18)
(3.83284 1.74449 -6.46661e-18)
(4.55424 1.73121 5.41582e-18)
(4.14745 2.05219 1.42939e-18)
(4.61449 1.42858 4.11947e-18)
(4.42316 1.713 5.48286e-18)
(4.4825 1.09049 -2.10937e-18)
(4.38293 1.44583 -1.91236e-18)
(4.2332 0.801984 8.76949e-19)
(4.23562 1.13303 1.39922e-20)
(3.92997 0.59095 5.41053e-19)
(3.99036 0.881494 9.68001e-19)
(3.6287 0.455917 -8.102e-19)
(3.71432 0.690979 -9.81959e-19)
(3.36288 0.376036 1.17556e-19)
(3.44712 0.562213 4.69905e-19)
(3.21427 0.489127 1.32288e-19)
(3.09146 0.317768 -1.86758e-19)
(1.40159 0.519415 6.50326e-19)
(0.499995 -0.392277 4.02598e-20)
(2.87096 1.69617 -8.75114e-19)
(2.05155 1.59262 7.31676e-19)
(3.68059 2.06462 -2.76446e-19)
(3.32674 1.90413 -4.7783e-18)
(4.06509 2.05525 9.91199e-19)
(3.67885 2.27521 2.6329e-18)
(4.19994 1.83073 0)
(3.98951 2.02008 0)
(4.17019 1.53431 0)
(4.01317 1.8117 -7.62092e-19)
(4.02387 1.23917 0)
(3.95532 1.51382 -1.86543e-18)
(3.80428 0.984559 -2.26862e-19)
(3.79246 1.2479 2.57671e-18)
(3.55824 0.788656 6.60432e-20)
(3.58375 1.01851 -4.81803e-20)
(3.32322 0.647841 5.21819e-19)
(3.36125 0.839231 -4.04339e-20)
(3.14982 0.712483 0)
(3.08335 0.531381 -9.4534e-19)
(1.00561 0.471286 4.91921e-20)
(0.118639 -0.406979 3.16339e-19)
(2.43436 1.72283 -2.62934e-18)
(1.71382 1.51955 -5.98304e-19)
(3.22599 2.17502 -2.31018e-18)
(2.89034 1.98546 -4.80964e-18)
(3.62216 2.24389 1.96087e-18)
(3.26644 2.39402 6.05387e-18)
(3.79092 2.0831 -6.82672e-19)
(3.58512 2.20717 -1.90965e-19)
(3.82258 1.8372 -2.5132e-18)
(3.6432 2.05319 -1.53799e-18)
(3.75039 1.56358 2.81751e-19)
(3.64505 1.78457 -1.87224e-18)
(3.6031 1.30157 3.06449e-18)
(3.54464 1.5282 2.58108e-18)
(3.41602 1.07678 -1.86428e-19)
(3.39598 1.28587 -5.6892e-19)
(3.21994 0.899749 -5.6494e-19)
(3.22405 1.08049 3.88959e-19)
(3.05129 0.923867 0)
(3.00053 0.752899 0)
(0.688342 0.423439 -2.38557e-19)
(-0.166789 -0.431731 -3.94656e-18)
(2.07076 1.71608 -2.34436e-18)
(1.41996 1.44899 4.00024e-18)
(2.83644 2.22703 2.78442e-18)
(2.51161 2.01886 -8.79755e-19)
(3.23054 2.35141 4.67489e-18)
(2.9019 2.45141 3.62152e-18)
(3.41176 2.23876 -1.05903e-18)
(3.2163 2.31619 -1.09321e-18)
(3.4781 2.03746 -8.88721e-19)
(3.29138 2.20677 -8.0505e-19)
(3.45521 1.79247 0)
(3.33247 1.96844 8.61435e-19)
(3.36344 1.54024 -6.69038e-19)
(3.27694 1.7312 2.2093e-18)
(3.22934 1.30736 -3.84523e-20)
(3.17731 1.49003 -2.29366e-18)
(3.07967 1.10856 9.96468e-19)
(3.0495 1.2731 -8.90585e-19)
(2.91305 1.10643 0)
(2.89077 0.927792 -7.86029e-19)
(0.423577 0.384974 -5.90625e-19)
(-0.387106 -0.451178 -4.15874e-18)
(1.75295 1.69067 6.00226e-18)
(1.1493 1.37976 6.41604e-18)
(2.49363 2.24284 -5.21158e-19)
(2.17172 2.02136 8.99792e-19)
(2.88153 2.40712 -1.56066e-18)
(2.57305 2.46815 1.56247e-18)
(3.06541 2.33022 -9.99154e-19)
(2.87932 2.37334 -1.76891e-18)
(3.15103 2.16511 7.71363e-19)
(2.96282 2.29772 1.12965e-18)
(3.16056 1.94718 2.93039e-18)
(3.02949 2.08611 7.76615e-19)
(3.10972 1.71054 1.08583e-18)
(3.006 1.86993 1.06541e-18)
(3.01857 1.48035 -3.27547e-18)
(2.94549 1.63704 -1.4727e-19)
(2.90963 1.27511 -1.9524e-18)
(2.85681 1.41758 -8.56063e-19)
(2.75084 1.24207 0)
(2.76148 1.07303 -1.18769e-20)
(0.179859 0.343116 1.74904e-18)
(-0.597841 -0.493893 8.55956e-18)
(1.45323 1.64483 1.86185e-18)
(0.880286 1.29474 -6.63275e-18)
(2.17439 2.22877 2.93456e-18)
(1.85077 1.99374 3.70636e-18)
(2.55975 2.4235 1.78818e-18)
(2.26555 2.44974 4.26066e-18)
(2.74548 2.37536 5.24094e-20)
(2.56691 2.39231 -2.43533e-18)
(2.84318 2.2389 1.19032e-18)
(2.65709 2.34107 1.62045e-20)
(2.87514 2.04433 -1.07384e-18)
(2.74066 2.15272 -8.46086e-19)
(2.85519 1.82451 -1.70081e-20)
(2.74125 1.95573 -1.119e-18)
(2.799 1.60199 2.28706e-18)
(2.71179 1.73401 6.99585e-19)
(2.72447 1.39743 9.55901e-19)
(2.65723 1.51848 8.61238e-19)
(2.5847 1.34226 -4.35931e-19)
(2.60672 1.1931 -6.16126e-19)
(-0.0442094 0.286525 1.64882e-18)
(-0.770045 -0.53242 7.27898e-18)
(1.17333 1.57816 -5.82567e-18)
(0.627679 1.20437 -7.7811e-18)
(1.87814 2.18539 4.98213e-18)
(1.54761 1.93736 2.8903e-18)
(2.26036 2.40837 8.80679e-19)
(1.98023 2.40479 2.01246e-18)
(2.44803 2.3843 -2.72865e-18)
(2.27377 2.38089 -1.57016e-18)
(2.55427 2.27007 -1.91802e-18)
(2.37117 2.34634 -1.11627e-18)
(2.60264 2.09483 -8.4936e-19)
(2.4664 2.17819 -1.98228e-18)
(2.60678 1.89055 -5.81492e-19)
(2.48685 1.99716 9.3767e-19)
(2.57967 1.67782 -7.2397e-19)
(2.483 1.78718 -1.16298e-18)
(2.53618 1.47832 -3.87899e-19)
(2.45839 1.57887 3.86919e-19)
(2.41867 1.40255 3.72356e-19)
(2.45848 1.27777 7.37052e-20)
(-0.252522 0.229218 -6.97966e-19)
(-0.921259 -0.568626 4.23272e-18)
(0.905452 1.49731 -9.46558e-20)
(0.381042 1.1081 -4.02457e-18)
(1.59044 2.12311 0)
(1.26039 1.86015 -1.67223e-18)
(1.97553 2.36744 0)
(1.70488 2.33074 1.71311e-18)
(2.16771 2.36288 0)
(1.99215 2.34146 0)
(2.28191 2.26644 -1.08739e-18)
(2.10118 2.31947 -1.5677e-18)
(2.34381 2.10715 -4.73686e-19)
(2.20569 2.16918 -2.34372e-21)
(2.36837 1.91638 5.86114e-19)
(2.24415 2.00084 9.40915e-19)
(2.36677 1.71361 -2.2401e-19)
(2.26272 1.80191 -6.94652e-20)
(2.35131 1.52027 1.14427e-18)
(2.26468 1.60226 5.30977e-20)
(2.25653 1.42212 1.1284e-18)
(2.30676 1.3151 -9.2044e-19)
(-0.45852 0.16162 1.52884e-18)
(-1.07524 -0.633239 8.67146e-18)
(0.639438 1.39419 -5.85756e-18)
(0.127937 0.987777 -6.80008e-18)
(1.31007 2.03137 -2.33197e-19)
(0.974329 1.75161 -2.21684e-18)
(1.69973 2.29664 1.8919e-18)
(1.43241 2.22878 1.71501e-18)
(1.89892 2.31316 -1.40598e-18)
(1.71884 2.27605 0)
(2.02249 2.23231 -7.00741e-19)
(1.84336 2.26347 1.20305e-19)
(2.0975 2.08637 1.3479e-18)
(1.95675 2.12934 1.66993e-19)
(2.14103 1.90711 3.94699e-19)
(2.01309 1.97112 0)
(2.16304 1.71381 2.02398e-19)
(2.05285 1.78233 4.43576e-19)
(2.17298 1.52651 -8.4639e-20)
(2.07884 1.59234 -7.86109e-19)
(2.1003 1.41199 3.04787e-19)
(2.16741 1.33657 1.89162e-19)
(-0.658342 0.0756424 1.39662e-18)
(-1.2138 -0.698553 2.0546e-18)
(0.379099 1.2688 -3.62212e-18)
(-0.121004 0.855488 -2.5453e-18)
(1.03335 1.91331 -5.98495e-19)
(0.692207 1.61808 -7.54352e-19)
(1.4289 2.19866 0)
(1.16018 2.09972 0)
(1.63871 2.23665 1.51562e-18)
(1.4502 2.18332 -8.58533e-19)
(1.77361 2.16959 9.7791e-19)
(1.59324 2.17916 1.4412e-18)
(1.86258 2.03513 -1.16609e-18)
(1.71728 2.05989 -9.74324e-19)
(1.92511 1.86593 0)
(1.79287 1.91016 0)
(1.97002 1.68212 -4.00944e-19)
(1.85467 1.73127 0)
(2.00413 1.50306 -4.7204e-19)
(1.90488 1.55209 7.52691e-20)
(1.95775 1.3796 -4.62927e-19)
(2.02414 1.32897 1.10267e-20)
(-0.854919 -0.0207249 -1.69792e-18)
(-1.347 -0.771196 1.41945e-18)
(0.119272 1.12264 1.33091e-19)
(-0.37339 0.707071 -2.36158e-18)
(0.755296 1.76787 -2.33501e-19)
(0.406346 1.45749 7.5786e-21)
(1.15743 2.0721 -7.69063e-19)
(0.881498 1.94099 0)
(1.38261 2.13159 -1.15509e-18)
(1.17963 2.0586 -1.31273e-19)
(1.53134 2.07831 -2.2659e-19)
(1.34566 2.06594 -8.08129e-19)
(1.63681 1.95414 8.8049e-20)
(1.4837 1.96011 4.54511e-19)
(1.72032 1.79429 0)
(1.5819 1.81819 -4.56453e-19)
(1.78945 1.62044 4.69948e-19)
(1.66854 1.64989 2.80943e-19)
(1.84977 1.45061 1.30587e-19)
(1.7444 1.48204 3.46777e-19)
(1.82682 1.31524 -4.80879e-19)
(1.91199 1.29944 2.37545e-19)
(-1.0552 -0.130342 6.50972e-19)
(-1.48193 -0.863521 1.65228e-18)
(-0.147934 0.952554 -2.71711e-18)
(-0.635358 0.534165 -6.00595e-19)
(0.467787 1.59173 2.41714e-19)
(0.109082 1.26327 -2.63302e-18)
(0.876799 1.91348 6.48702e-19)
(0.588366 1.74681 1.03704e-18)
(1.12006 1.996 2.80621e-19)
(0.899538 1.89785 7.21866e-19)
(1.28939 1.95581 -2.85127e-19)
(1.09233 1.91625 -5.57199e-19)
(1.41702 1.84162 5.49091e-21)
(1.25106 1.82506 1.51952e-19)
(1.52579 1.69185 -2.81109e-19)
(1.37788 1.69281 5.71956e-20)
(1.62199 1.5296 1.59403e-19)
(1.49402 1.53785 8.92576e-20)
(1.70877 1.37073 -1.91671e-19)
(1.59775 1.38446 -1.72861e-19)
(1.71083 1.22925 -3.06204e-20)
(1.78967 1.22064 0)
(-1.26265 -0.260982 1.6956e-19)
(-1.61956 -0.974839 -1.47243e-18)
(-0.42627 0.752902 -1.93765e-19)
(-0.908991 0.334647 3.65725e-18)
(0.164993 1.3789 -2.13938e-18)
(-0.205112 1.0309 -4.14564e-18)
(0.579795 1.7153 1.14088e-18)
(0.272492 1.50887 2.88863e-19)
(0.845862 1.81995 0)
(0.598705 1.68903 8.95597e-20)
(1.04164 1.79432 -1.96586e-19)
(0.823641 1.72067 3.38419e-19)
(1.19934 1.69251 2.05716e-19)
(1.01333 1.646 -2.19929e-19)
(1.33989 1.55636 4.28455e-19)
(1.17759 1.52867 5.05277e-19)
(1.4671 1.41023 -2.14592e-19)
(1.32974 1.39349 -1.97851e-19)
(1.58114 1.26794 -2.72771e-20)
(1.46509 1.26137 -1.49177e-21)
(1.61098 1.12769 -5.17387e-20)
(1.68797 1.15375 4.6142e-19)
(-1.48086 -0.41652 1.47964e-18)
(-1.76366 -1.10928 -1.24918e-18)
(-0.72074 0.518511 8.07939e-19)
(-1.20001 0.104534 1.70802e-18)
(-0.161436 1.12135 -2.11702e-18)
(-0.545982 0.754185 -1.27151e-18)
(0.255024 1.46604 -7.07971e-19)
(-0.0789308 1.21515 -1.21243e-19)
(0.547201 1.59054 4.21724e-19)
(0.262661 1.4146 -5.75336e-19)
(0.779002 1.58145 3.73971e-19)
(0.526981 1.4599 4.43984e-19)
(0.978087 1.49756 -5.18834e-21)
(0.761479 1.40735 9.67721e-20)
(1.1593 1.3827 -1.05049e-20)
(0.974378 1.31592 1.23955e-20)
(1.3231 1.26073 -6.36712e-21)
(1.17015 1.21171 2.70441e-20)
(1.46856 1.14244 -1.61586e-20)
(1.3417 1.10983 2.60516e-21)
(1.51837 1.00613 1.19248e-20)
(1.5976 1.04198 7.92698e-20)
(-1.71652 -0.601603 -1.28259e-18)
(-1.92004 -1.27658 -2.23226e-18)