/*--------------------------------*- C++ -*----------------------------------*\
| =========                 |                                                 |
| \\      /  F ield         | OpenFOAM: The Open Source CFD Toolbox           |
|  \\    /   O peration     | Version:  3.0.1                                 |
|   \\  /    A nd           | Web:      www.OpenFOAM.org                      |
|    \\/     M anipulation  |                                                 |
\*---------------------------------------------------------------------------*/
FoamFile
{
    version     2.0;
    format      ascii;
    class       volScalarField;
    location    "0.178211";
    object      nut;
}
// * * * * * * * * * * * * * * * * * * * * * * * * * * * * * * * * * * * * * //

dimensions      [0 2 -1 0 0 0 0];

internalField   nonuniform List<scalar> 
21246
(
2.17081e-05
9.36675e-05
0.00015153
0.000214974
0.000262133
0.000296666
0.000332793
0.000383734
0.000447281
0.000512369
0.000554563
1.57713e-05
6.53347e-05
0.00011697
0.000177523
0.000231856
0.000277066
0.000324228
0.000380098
0.000430557
0.000472939
0.00048728
1.31223e-05
5.59663e-05
0.000102892
0.000157385
0.000210931
0.000259506
0.000307819
0.000363086
0.000411846
0.000439096
0.000430957
1.22755e-05
5.62114e-05
0.000100085
0.000149301
0.000199736
0.000248014
0.00029552
0.000346915
0.000393807
0.000414125
0.000398644
1.25073e-05
5.78298e-05
0.000101464
0.000147897
0.000195888
0.00024271
0.000289073
0.000336541
0.000378374
0.000396429
0.000380518
1.2791e-05
5.91325e-05
0.000105209
0.000150385
0.000197303
0.000243435
0.000288556
0.000331748
0.000367039
0.000382731
0.000369664
1.30408e-05
5.99455e-05
0.000109614
0.000156104
0.000203338
0.000249399
0.00029247
0.000330185
0.000358704
0.000372038
0.00036211
1.33836e-05
6.11081e-05
0.00011405
0.000163511
0.00021231
0.000257762
0.000297487
0.000329244
0.000352303
0.000364455
0.000357563
1.36824e-05
6.19869e-05
0.0001181
0.000170875
0.000220943
0.000264937
0.000300948
0.000327975
0.000347827
0.000360168
0.000356667
1.38893e-05
6.28562e-05
0.000121778
0.000176546
0.00022702
0.000269659
0.000302898
0.000327144
0.000345648
0.000359075
0.000358843
1.4083e-05
6.34977e-05
0.000124533
0.000180637
0.000231351
0.000273208
0.000304954
0.000327901
0.000346056
0.000360766
0.000363108
1.424e-05
6.46987e-05
0.000127365
0.000184479
0.000235454
0.000277037
0.000308196
0.000330685
0.000348917
0.000364829
0.000369478
1.42999e-05
6.58715e-05
0.000129896
0.000187978
0.000239411
0.00028117
0.000312353
0.000334887
0.000353426
0.000370415
0.000377124
1.42575e-05
6.61933e-05
0.000131259
0.000190423
0.000242645
0.000285037
0.000316743
0.0003397
0.000358675
0.000376621
0.000385062
1.40843e-05
6.64238e-05
0.000132112
0.000192186
0.00024531
0.000288615
0.00032122
0.000344925
0.00036444
0.00038317
0.000393351
1.37654e-05
6.61019e-05
0.000131939
0.000192743
0.000246857
0.000291375
0.000325276
0.000350028
0.000370085
0.00038928
0.000400862
1.33084e-05
6.45237e-05
0.000129794
0.000191121
0.000246394
0.000292517
0.000328188
0.000354278
0.000374697
0.000393707
0.000406562
1.26368e-05
6.19668e-05
0.00012577
0.000187073
0.000243451
0.000291505
0.000329399
0.000357039
0.00037738
0.000395054
0.000407994
1.1737e-05
5.8194e-05
0.000119387
0.000179852
0.000237089
0.000287265
0.00032774
0.000357038
0.000376638
0.000391257
0.000401824
1.05906e-05
5.3033e-05
0.000110203
0.000168557
0.000225784
0.000277661
0.00032071
0.000351775
0.00037027
0.000380308
0.000385843
9.14347e-06
4.59164e-05
9.78627e-05
0.000151395
0.000205301
0.000256538
0.00030158
0.000335351
0.000354297
0.000360417
0.000359266
7.50567e-06
4.32182e-05
8.24619e-05
0.000118856
0.000158833
0.000204548
0.00025183
0.000293005
0.000319342
0.000328348
0.000323888
5.68841e-06
1.62777e-05
2.91817e-05
4.81352e-05
7.13266e-05
9.96457e-05
0.000143608
0.000197926
0.000244646
0.000272584
0.000279162
8.91128e-06
2.23315e-05
4.69007e-05
8.20822e-05
0.00011483
0.000131025
0.000124843
0.000119349
0.000142966
0.000181308
0.000211098
2.06461e-05
0.000119187
0.000196704
0.000250877
0.000276659
0.000286846
0.000313487
0.000374115
0.00045766
0.000551844
0.000627602
1.34327e-05
7.60026e-05
0.000160611
0.000231372
0.000271435
0.000279431
0.000288263
0.000348562
0.000452065
0.000579753
0.000703371
1.26577e-05
5.13258e-05
0.000128688
0.000212513
0.000273201
0.000289901
0.000267273
0.000290456
0.000401451
0.000568651
0.000761652
1.41941e-05
5.02287e-05
0.000121222
0.000207732
0.000284643
0.000325618
0.000306112
0.000250633
0.000263434
0.00042376
0.000710025
1.63308e-05
5.8278e-05
0.00013195
0.000219111
0.000304227
0.000367382
0.000377785
0.000316494
0.000254462
0.000268131
0.000491844
1.85588e-05
7.00015e-05
0.000151053
0.000239719
0.000327131
0.000403554
0.000443607
0.000409131
0.000318179
0.000254332
0.000303938
2.07544e-05
8.37225e-05
0.000173739
0.000263683
0.000349009
0.000429204
0.000490072
0.000493631
0.000406795
0.000301035
0.000254606
2.29379e-05
9.82215e-05
0.000197357
0.000287861
0.000368084
0.000443605
0.000512754
0.000548587
0.000491316
0.000371595
0.000273639
2.49526e-05
0.000113491
0.00022123
0.000311353
0.000384723
0.000449669
0.000515147
0.00057071
0.000553488
0.000443214
0.000316378
2.67502e-05
0.000129303
0.000244158
0.000332912
0.000398832
0.000450757
0.00050492
0.000567671
0.000590225
0.000502311
0.000365103
2.82999e-05
0.000143763
0.000264736
0.000351622
0.000409963
0.000449183
0.000489617
0.00054924
0.000600122
0.000544203
0.000408127
2.97077e-05
0.000155984
0.000282709
0.000366139
0.000416963
0.00044567
0.00047399
0.000522901
0.00058728
0.0005714
0.000440107
3.08522e-05
0.000167654
0.000297758
0.000377655
0.000420725
0.000440465
0.000459569
0.000495736
0.000548182
0.000576582
0.000458023
3.17007e-05
0.000178725
0.000311257
0.000386926
0.000421909
0.000432632
0.000442478
0.000466752
0.000502313
0.000526657
0.000475999
3.21696e-05
0.000188768
0.000323295
0.000394555
0.000421294
0.000422784
0.000422876
0.000435868
0.000459181
0.000479276
0.000469048
3.22615e-05
0.000198348
0.000334948
0.000401909
0.000420405
0.000412643
0.000402797
0.000405072
0.000418135
0.000432739
0.000434436
3.19546e-05
0.000207637
0.000347232
0.00041086
0.000421701
0.000405046
0.000385031
0.000375589
0.000376173
0.0003801
0.000381661
3.11628e-05
0.00021679
0.000361816
0.000425212
0.000430874
0.000406753
0.000377453
0.000357251
0.000347766
0.000344695
0.000341042
2.98054e-05
0.000227623
0.000380272
0.00044735
0.000452901
0.000424819
0.000390329
0.000365855
0.000353497
0.000348122
0.000343683
2.6534e-05
0.000222927
0.000373722
0.00044888
0.000462902
0.000436725
0.000397952
0.000368688
0.00035586
0.000356092
0.000362409
2.20441e-05
0.000198068
0.000345375
0.000430684
0.000458244
0.000439839
0.000398016
0.000356525
0.000326837
0.000306213
0.000286663
1.71937e-05
0.000161481
0.000296025
0.000388804
0.000431029
0.0004269
0.000391902
0.000345234
0.00029665
0.000245009
0.000187433
1.21276e-05
0.000109637
0.000231093
0.000324506
0.000377052
0.000384349
0.000358406
0.000314196
0.000256745
0.000192622
0.000151546
7.73763e-06
8.742e-05
0.000168145
0.000249781
0.000291548
0.000297888
0.000276779
0.00023152
0.000178652
0.00015252
0.000147276
5.63782e-05
0.000280795
0.000331147
0.000361534
0.000401299
0.000439584
0.000464566
0.000467457
0.000438066
0.000381656
0.000327431
3.51353e-05
0.000234872
0.000330215
0.000372203
0.000410716
0.000446898
0.000468324
0.000469321
0.000440775
0.000383484
0.000326386
3.07038e-05
0.000180658
0.000304974
0.000388227
0.000431405
0.00045561
0.000466195
0.000463502
0.000441841
0.000391248
0.000330904
3.08602e-05
0.000158245
0.000276806
0.000372785
0.000424836
0.000453879
0.000468976
0.00047083
0.000451908
0.00040284
0.000340814
3.21409e-05
0.000142611
0.000254268
0.000349051
0.000404487
0.000442864
0.000467803
0.000476861
0.000460628
0.000411248
0.000346507
3.34899e-05
0.000130311
0.000235441
0.000325091
0.00038111
0.000425796
0.000459173
0.000476046
0.000464532
0.000417392
0.000353635
3.48829e-05
0.000120562
0.000219406
0.000302681
0.000358213
0.000406114
0.000445617
0.000469648
0.000463817
0.000420048
0.000357223
3.63471e-05
0.000112936
0.000205958
0.00028329
0.000337449
0.000386556
0.000429943
0.000459467
0.000459001
0.000419856
0.0003623
3.7661e-05
0.000106626
0.000194555
0.000266926
0.000319385
0.0003686
0.000414335
0.000448102
0.000452747
0.000418757
0.000365092
3.87355e-05
0.000100819
0.000184446
0.000253023
0.000303909
0.000352837
0.000400089
0.00043721
0.000446365
0.000416781
0.000365272
3.96966e-05
9.54691e-05
0.000175349
0.000241016
0.000290572
0.000339107
0.000387429
0.000427301
0.000440245
0.000414229
0.000366266
4.04825e-05
9.07896e-05
0.000167274
0.000230558
0.00027898
0.000327114
0.000376265
0.000418541
0.000434867
0.000412019
0.000366696
4.09729e-05
8.63845e-05
0.000159882
0.000221375
0.000268946
0.000316775
0.000366645
0.000411158
0.000430645
0.000410539
0.000366972
4.12517e-05
8.19024e-05
0.000152724
0.000213131
0.000260246
0.000307958
0.000358515
0.000405219
0.000427773
0.000409959
0.000367982
4.11496e-05
7.71945e-05
0.000145727
0.0002055
0.000252463
0.000300225
0.000351435
0.000400355
0.000426149
0.000410531
0.000369768
4.0608e-05
7.17531e-05
0.000136683
0.000195823
0.000242361
0.000289449
0.000340602
0.000392059
0.000423047
0.000411666
0.000372932
3.96868e-05
6.49002e-05
0.000124116
0.000181846
0.000226872
0.00027054
0.000317503
0.000367718
0.000404369
0.000403786
0.000373911
3.81806e-05
5.78089e-05
0.000109421
0.000164128
0.000206779
0.000245177
0.000284259
0.000327663
0.00036631
0.00038009
0.000367616
3.60594e-05
5.05551e-05
9.30735e-05
0.000142577
0.000182168
0.000214791
0.000244353
0.000276154
0.000309017
0.00033266
0.000342374
3.32859e-05
4.32492e-05
7.59515e-05
0.000117808
0.000153289
0.000180622
0.000201608
0.000220849
0.000241272
0.00026211
0.000284418
2.97884e-05
3.60206e-05
5.92517e-05
9.15777e-05
0.000121362
0.000144002
0.00015897
0.000168888
0.000176984
0.000186028
0.000201026
2.54971e-05
2.90333e-05
4.42668e-05
6.66751e-05
8.91777e-05
0.000107044
0.0001183
0.000123569
0.000124795
0.000124425
0.00012611
2.03154e-05
2.20579e-05
3.1253e-05
4.50175e-05
5.98195e-05
7.2495e-05
8.1029e-05
8.48845e-05
8.46422e-05
8.15769e-05
7.75676e-05
1.44412e-05
2.08547e-05
2.61185e-05
3.30141e-05
4.02683e-05
4.66783e-05
5.13484e-05
5.37601e-05
5.37855e-05
5.16869e-05
4.81163e-05
5.41459e-05
0.000276262
0.000303745
0.000393371
0.000439649
0.000468171
0.000493067
0.00049319
0.000456911
0.000393177
0.0003337
4.06125e-05
0.00018071
0.000189386
0.000260105
0.000405556
0.000472973
0.000509847
0.000517602
0.000486353
0.000420201
0.000353507
3.85433e-05
0.000135305
0.00016282
0.0002143
0.000340041
0.000469764
0.000531279
0.000546947
0.000520569
0.000453806
0.000377135
3.94551e-05
0.000115777
0.000150405
0.000195827
0.000314316
0.000468093
0.000554377
0.00058052
0.000557398
0.000489079
0.000403671
4.0609e-05
0.000110391
0.000143765
0.000185836
0.000305588
0.000466118
0.000571683
0.00061121
0.000591925
0.000519743
0.000424497
4.1235e-05
0.000112335
0.000140596
0.000179373
0.000299529
0.000461738
0.000580884
0.000633977
0.000619128
0.000538851
0.000425294
4.15803e-05
0.000117586
0.000139717
0.000174773
0.000292449
0.000455026
0.000583199
0.000647804
0.000637388
0.000547667
0.000413454
4.2006e-05
0.000124788
0.000140673
0.00017183
0.000284634
0.0004467
0.000580664
0.000654018
0.000647029
0.00054714
0.000392741
4.23783e-05
0.000132766
0.000142909
0.000169808
0.000275576
0.000432437
0.000572196
0.000654492
0.000650112
0.000539396
0.000363714
4.2666e-05
0.000140806
0.000146011
0.000168173
0.000264707
0.000412953
0.000552248
0.000637729
0.000637266
0.000522939
0.000336332
4.27389e-05
0.000147651
0.000149602
0.00016627
0.000251072
0.000387459
0.000521691
0.000605553
0.000604301
0.00048954
0.00030925
4.26379e-05
0.000153992
0.000153687
0.000164466
0.000236521
0.000358517
0.000483798
0.00056275
0.000558593
0.000447586
0.000284075
4.22376e-05
0.000159697
0.000157987
0.000162714
0.000221391
0.000327028
0.00044026
0.000512351
0.000505709
0.000403383
0.000261444
4.14681e-05
0.000163538
0.000162127
0.000160976
0.000205844
0.000293632
0.000392352
0.000456612
0.00044952
0.000360228
0.000241216
4.02526e-05
0.000165892
0.000166008
0.000159664
0.000191273
0.00026083
0.000343185
0.000398715
0.000393185
0.000319544
0.000222334
3.85438e-05
0.000166212
0.000169332
0.000158881
0.000178147
0.000229844
0.000294916
0.0003409
0.000338143
0.000281209
0.000203782
3.63006e-05
0.000163888
0.000171643
0.000158695
0.000166977
0.000201982
0.000249759
0.00028544
0.000285253
0.000244245
0.000184849
3.34313e-05
0.000158775
0.000172402
0.000159073
0.000158335
0.000178538
0.00021003
0.000234903
0.00023571
0.000207954
0.000164468
2.99063e-05
0.000150529
0.000170789
0.000159631
0.000152569
0.000160557
0.000177672
0.000191793
0.000191353
0.000172804
0.000142397
2.58267e-05
0.000139769
0.000165977
0.000159696
0.000149812
0.000148848
0.000154174
0.000158345
0.000154668
0.000140953
0.000119654
2.07733e-05
0.000122154
0.000156283
0.000157706
0.000149396
0.000143539
0.000140252
0.000136078
0.000128124
0.000115627
9.93029e-05
1.85198e-05
0.000117608
0.000148438
0.000152032
0.000145616
0.000137526
0.00012906
0.000119622
0.000108669
9.55394e-05
7.93089e-05
1.31697e-05
8.44021e-05
0.000108128
9.68036e-05
8.50043e-05
7.43152e-05
6.45497e-05
5.53718e-05
4.66151e-05
3.87097e-05
3.21605e-05
9.89463e-06
1.1252e-05
1.14446e-05
1.21647e-05
1.32931e-05
1.46614e-05
1.61005e-05
1.74109e-05
1.83949e-05
1.88955e-05
1.88292e-05
3.71214e-05
0.000142238
0.000147049
0.000163871
0.000161049
0.000141277
0.000112833
9.22172e-05
7.88513e-05
6.84719e-05
5.88877e-05
3.06965e-05
0.000112143
0.000103931
0.000144765
0.000166441
0.000149465
0.000115767
8.97571e-05
7.37451e-05
6.21251e-05
5.21346e-05
2.97532e-05
8.93642e-05
9.23074e-05
0.000113888
0.000151881
0.000157117
0.000122285
9.06115e-05
7.14321e-05
5.83702e-05
4.77037e-05
3.06488e-05
7.6569e-05
8.73098e-05
0.00010193
0.000134012
0.000161491
0.000130139
9.37169e-05
7.13267e-05
5.69727e-05
4.6186e-05
3.15849e-05
7.08546e-05
8.39869e-05
9.48745e-05
0.000121989
0.000158409
0.000137863
9.82821e-05
7.28323e-05
5.72423e-05
4.64575e-05
3.18771e-05
6.87229e-05
8.14919e-05
8.94833e-05
0.000111095
0.000146546
0.000143169
0.00010387
7.5495e-05
5.86079e-05
4.75995e-05
3.16612e-05
6.88351e-05
8.00079e-05
8.55474e-05
0.000101498
0.000130695
0.00014045
0.000110168
7.90589e-05
6.07376e-05
4.92907e-05
3.10862e-05
7.08946e-05
7.99214e-05
8.32234e-05
9.41312e-05
0.000115972
0.000131053
0.000113977
8.39544e-05
6.36772e-05
5.1466e-05
3.01236e-05
7.40539e-05
8.12498e-05
8.22626e-05
8.86474e-05
0.000103601
0.000118278
0.000113055
8.88526e-05
6.74467e-05
5.42302e-05
2.88141e-05
7.77675e-05
8.39429e-05
8.25279e-05
8.46416e-05
9.33993e-05
0.000104542
0.00010659
9.2072e-05
7.17786e-05
5.74955e-05
2.73727e-05
8.24228e-05
8.83117e-05
8.43306e-05
8.24155e-05
8.58872e-05
9.25079e-05
9.6546e-05
9.1525e-05
7.5986e-05
6.1268e-05
2.59995e-05
8.87399e-05
9.4872e-05
8.80437e-05
8.22042e-05
8.12113e-05
8.35747e-05
8.62904e-05
8.67234e-05
7.86243e-05
6.53822e-05
2.49657e-05
9.687e-05
0.000104031
9.40531e-05
8.40512e-05
7.89169e-05
7.74577e-05
7.75981e-05
7.91854e-05
7.79713e-05
6.91192e-05
2.45986e-05
0.000106786
0.000116305
0.000103082
8.83598e-05
7.89132e-05
7.38378e-05
7.11229e-05
7.1226e-05
7.34152e-05
7.09407e-05
2.51255e-05
0.000120443
0.000133127
0.000116362
9.59461e-05
8.1584e-05
7.28039e-05
6.725e-05
6.48658e-05
6.66834e-05
6.91774e-05
2.61331e-05
0.00013726
0.0001553
0.000135703
0.0001083
8.77061e-05
7.45452e-05
6.59478e-05
6.08582e-05
6.02654e-05
6.38516e-05
2.64127e-05
0.000153588
0.000181339
0.000162757
0.000127932
9.9086e-05
8.00164e-05
6.75902e-05
5.95472e-05
5.58929e-05
5.734e-05
2.57045e-05
0.000166098
0.000207441
0.000196821
0.000157397
0.00011864
9.13493e-05
7.34896e-05
6.17108e-05
5.46812e-05
5.25937e-05
2.41014e-05
0.000172465
0.000228826
0.000232908
0.000197118
0.000150018
0.00011235
8.657e-05
6.9321e-05
5.80554e-05
5.18612e-05
2.17909e-05
0.000171919
0.000242004
0.000263692
0.000242658
0.000195634
0.000148627
0.000112535
8.70158e-05
6.94594e-05
5.80092e-05
1.89167e-05
0.000160895
0.000245007
0.000284556
0.000286159
0.000253703
0.000205987
0.000160626
0.000124207
9.70334e-05
7.76456e-05
1.65401e-05
0.000145526
0.000236727
0.000290711
0.000315272
0.000308519
0.00027716
0.000234253
0.000191147
0.000153965
0.000124083
1.30203e-05
0.000116363
0.000175146
0.000222735
0.000256759
0.000278171
0.000285338
0.00027623
0.000253992
0.000225873
0.000196509
9.91776e-06
3.69735e-05
5.57393e-05
7.87659e-05
0.000104486
0.000132911
0.000162507
0.000186994
0.000203024
0.000210167
0.000207879
3.14255e-05
0.00013306
0.000146127
0.000154396
0.000155941
0.000140457
0.000117223
9.95277e-05
8.77101e-05
7.85663e-05
7.00965e-05
2.09043e-05
0.000107478
0.000145176
0.000164757
0.000167317
0.000153666
0.00013066
0.000111685
9.92661e-05
9.03135e-05
8.25227e-05
2.07288e-05
9.28583e-05
0.000139063
0.000183972
0.000191082
0.000176947
0.000150662
0.000127238
0.000112425
0.000102721
9.50204e-05
2.28458e-05
8.48831e-05
0.000132361
0.00019349
0.000213228
0.000206279
0.000180772
0.000152602
0.000132894
0.00012067
0.000112212
2.56009e-05
7.86904e-05
0.0001297
0.000194853
0.000218551
0.000216327
0.000193709
0.00016678
0.000147086
0.000134859
0.000126576
2.82625e-05
7.41326e-05
0.000127968
0.000192111
0.000218532
0.000221385
0.000201892
0.000176155
0.000156745
0.000144782
0.000137131
3.07113e-05
7.0822e-05
0.000126354
0.000187986
0.000216202
0.000223267
0.000207004
0.000183438
0.000165147
0.000154209
0.000148018
3.29948e-05
6.84227e-05
0.000124776
0.000183867
0.000213521
0.000224012
0.000210726
0.000189569
0.000172825
0.000163406
0.00015919
3.49442e-05
6.66058e-05
0.000123176
0.000180201
0.000211394
0.000224459
0.000213983
0.000195042
0.000179739
0.000171755
0.000169352
3.65462e-05
6.50357e-05
0.000121664
0.000177085
0.000210058
0.000225094
0.000217181
0.000200058
0.000185894
0.000179091
0.000178272
3.7785e-05
6.34876e-05
0.000119959
0.000174542
0.000209229
0.000226175
0.000220544
0.000204738
0.000191189
0.000184956
0.000184665
3.87595e-05
6.19266e-05
0.000118078
0.000172351
0.000208702
0.000227657
0.000224135
0.000209214
0.000195716
0.000189498
0.000189511
3.93917e-05
6.01872e-05
0.000115886
0.000170252
0.000208328
0.000229521
0.000228092
0.000213725
0.000199691
0.000192838
0.000192675
3.9625e-05
5.6899e-05
0.000111533
0.000166429
0.000206709
0.000230932
0.000232395
0.000218632
0.00020353
0.000195364
0.000194122
3.93697e-05
5.29949e-05
0.000104393
0.000158795
0.000200176
0.000227039
0.00023288
0.000222404
0.000207603
0.000198015
0.000195017
3.85917e-05
4.86168e-05
9.46424e-05
0.00014715
0.000188736
0.000217371
0.000228119
0.000223322
0.000211299
0.00020124
0.000196412
3.72796e-05
4.39308e-05
8.27292e-05
0.000131361
0.000172238
0.000201718
0.000216805
0.000218799
0.000212492
0.000204466
0.000198917
3.53492e-05
3.9278e-05
6.99108e-05
0.000112321
0.000151035
0.000180397
0.000198461
0.000206415
0.000207339
0.000204733
0.0002015
3.27485e-05
3.47395e-05
5.73098e-05
9.15292e-05
0.000125974
0.000153967
0.00017342
0.000185246
0.000192119
0.000196349
0.000199123
2.94393e-05
3.02241e-05
4.56534e-05
7.08004e-05
9.87252e-05
0.000123536
0.000142651
0.000156175
0.000166133
0.000174817
0.000183567
2.53727e-05
2.55845e-05
3.52998e-05
5.18843e-05
7.18685e-05
9.1407e-05
0.00010811
0.000121319
0.000131932
0.000141641
0.000152131
2.05559e-05
2.0634e-05
2.62459e-05
3.58493e-05
4.80412e-05
6.0997e-05
7.32399e-05
8.40085e-05
9.33667e-05
0.000102031
0.000111121
1.50201e-05
1.48411e-05
1.76381e-05
2.22574e-05
2.82322e-05
3.49543e-05
4.18402e-05
4.85028e-05
5.48218e-05
6.09588e-05
6.73853e-05
9.08761e-06
9.52864e-06
1.1636e-05
1.43612e-05
1.76102e-05
2.12596e-05
2.51106e-05
3.05282e-05
3.82403e-05
4.89096e-05
6.31749e-05
7.03319e-06
7.96285e-06
1.17389e-05
1.33842e-05
1.42759e-05
1.48775e-05
1.53841e-05
1.59338e-05
1.61123e-05
2.67786e-05
2.34383e-05
2.70846e-05
4.19381e-05
6.45005e-05
8.85973e-05
0.000108053
0.000130812
0.00014385
3.80682e-05
3.57694e-05
4.93045e-05
8.06114e-05
0.000122717
0.000160806
0.000196574
0.000240888
0.000269934
5.00304e-05
4.74043e-05
6.75743e-05
0.000111469
0.000172594
0.000229706
0.000279013
0.000337776
0.0003757
6.66234e-06
5.8052e-06
9.46383e-06
1.28617e-05
1.44361e-05
1.52288e-05
1.56993e-05
1.60343e-05
1.6178e-05
3.12875e-05
2.08679e-05
2.04022e-05
2.61115e-05
3.92355e-05
6.18678e-05
8.99004e-05
0.00011268
0.000132052
4.39269e-05
3.01917e-05
3.27829e-05
4.75998e-05
7.75723e-05
0.000124182
0.000174513
0.00021989
0.000255403
5.85197e-05
4.11338e-05
4.47086e-05
6.57724e-05
0.000109293
0.00017954
0.000253451
0.00031698
0.000362693
0.000195722
0.000229697
0.000229746
8.67242e-05
0.000161995
0.000229368
0.000304193
0.00022945
0.000229359
0.000232421
0.00014781
0.000229485
0.000192346
0.000238949
0.000123854
0.000228673
0.000237231
8.88862e-05
0.000228661
0.00022851
0.000229475
4.75944e-05
0.000229956
0.000197528
0.000229334
0.000238437
0.000195926
0.000314132
0.000347487
0.000231829
0.00023912
0.000233177
0.000240391
0.000229435
0.000237357
0.000229656
0.000203928
0.000229318
0.000241468
0.00022939
1.57347e-05
0.000229468
0.000251636
0.00022993
0.000291098
6.38861e-05
0.000204529
0.000135449
0.000237006
0.000229045
0.000218279
0.000229401
0.000239872
0.00025136
0.000229014
0.000229287
4.52888e-05
0.000229425
0.000340317
0.000246312
2.72543e-05
0.000240062
0.000232378
0.000210157
2.20041e-05
0.000228497
0.000148014
0.000230342
0.000229695
0.000231977
0.000216136
0.000231714
6.44187e-05
0.000237613
0.000182108
0.000230604
2.57759e-05
0.000229674
0.000412872
0.000466964
0.000218283
0.000197916
0.000229286
0.000229785
0.000246519
6.28218e-05
0.000357875
0.000240502
8.04771e-05
0.000231321
0.00022949
0.000229451
1.69624e-05
0.000231271
0.000465919
0.000162165
0.000199759
0.000228148
7.92219e-05
0.000233663
0.000247334
0.000146377
0.000229252
0.000235285
9.05358e-05
0.000229487
0.000223492
0.000229865
0.000242362
0.000235515
0.000229412
0.000229514
0.000229958
7.97258e-05
0.000110379
0.000229006
0.000229313
0.000228786
0.000229361
0.000228647
8.19148e-05
0.000237246
0.00024799
0.00023542
5.55285e-05
0.000225671
0.000242691
0.000218419
0.000237179
0.000239925
0.000229412
0.000245426
0.000138517
0.000230892
0.000229744
0.000239661
2.57375e-05
0.000159122
0.000246992
0.00024148
0.000251623
0.000231169
0.000389729
0.000166073
0.00022926
5.86992e-05
0.000153047
0.000230064
0.000233792
0.000229137
0.000229005
0.000229323
5.72751e-05
0.000235433
8.21944e-05
0.000252413
6.53901e-05
6.386e-05
0.00020316
0.000228717
0.000224731
8.1552e-05
0.000231306
0.000229064
0.000147211
0.000246385
8.74755e-05
0.000247857
0.000226039
2.14768e-05
0.00023866
0.000199569
0.00023188
0.000229186
0.000232657
0.00021766
0.000194722
5.51481e-05
0.000307236
0.00019663
0.000229739
3.63704e-05
0.00022994
0.000101115
0.000229312
0.000148086
0.000229412
0.000228744
0.00022965
0.000473718
0.000242219
0.000242427
0.000228458
1.53599e-05
0.000229726
0.000228882
0.000229249
7.76556e-05
0.000240441
0.00023
4.97511e-05
0.000229126
0.000243288
0.000241226
0.000229799
0.000240157
0.000230899
0.000237127
0.000229126
0.000228649
0.000230051
0.000228985
0.000173861
0.000235794
0.000229349
0.000244624
0.000229366
0.000130597
0.000229217
0.000199404
0.000240806
7.48102e-05
0.000194812
0.000102696
0.000233689
0.000229437
0.000115526
0.00024535
0.000241466
0.000295127
7.65186e-05
0.000228422
0.000229112
0.000237861
5.5792e-05
0.000268883
0.00014119
0.000229882
0.000229519
0.000229488
0.0001357
0.000156515
0.000236061
1.57074e-05
0.000233666
7.57822e-05
0.000229381
0.000243462
0.000261074
0.000217124
0.000243428
0.000228087
0.00024635
0.000228588
0.000231165
0.000229285
0.000229346
0.00022925
8.02214e-05
0.0002296
0.000153931
0.000222199
0.000228117
0.000229575
0.000229405
0.000180952
0.000231612
0.000235003
0.000165297
0.000183455
9.09522e-05
0.000228901
0.000229141
0.000201665
0.000228997
0.000228816
0.000237083
0.000229159
0.000236147
9.11064e-05
0.000232658
0.00022967
0.0002153
0.000148808
0.000231399
0.000228944
0.000244508
0.00022962
0.00023563
0.000250579
0.000229742
0.000370954
0.000251621
0.00024927
0.000230007
0.000229173
0.000226057
0.000229544
0.000237043
0.000237453
0.00022938
9.58322e-05
0.000239285
0.000239824
0.000229291
0.000235547
0.000229667
0.000244477
3.55343e-05
0.000229001
0.000172904
0.000229533
0.00023341
0.000239774
3.52342e-05
0.000230418
0.000235469
9.15151e-05
0.000228328
0.000233098
0.000229277
0.000240455
0.000228884
0.000211132
0.000170733
0.00023702
0.00022923
0.000242418
0.000228098
0.000227823
0.000233084
0.000219754
2.25162e-05
0.000229912
0.000174567
0.000290697
6.35726e-05
0.000229624
0.000229212
0.000226788
7.23604e-05
0.000227692
0.000229148
0.000245292
9.28755e-05
0.000244551
0.000210859
0.000228991
0.000190786
0.00024177
0.000157475
0.000232645
0.000182649
0.000229325
0.000117946
0.000230036
0.00024081
0.000204744
0.00022993
0.000222609
0.00014115
0.000242095
0.000229397
0.000229342
0.000229265
8.182e-05
0.000207907
0.000251466
0.000163145
0.000250265
0.00022915
0.000103943
0.000281997
0.000229394
0.000128877
0.000229714
0.000151699
0.000237197
0.000228901
0.000229042
0.000194909
0.000228829
5.55556e-05
0.000229418
0.000242229
0.000129331
8.89507e-05
0.000232777
0.000154221
8.58235e-05
0.000229325
0.00011315
0.000226724
0.000245603
0.000129712
2.18669e-05
0.000229328
0.000228852
0.000229778
0.000209506
8.15104e-05
0.000228949
0.000229968
0.000250003
0.000238919
1.96857e-05
0.000309929
0.000244642
0.000229123
0.000241158
0.000240901
0.000228628
0.000242476
0.000241902
6.07186e-05
0.000233173
0.000242353
0.000242325
0.000219421
9.89364e-05
0.000134714
0.00018686
0.000248752
0.000241931
0.000224721
0.000234785
0.000236007
7.68598e-05
0.000205281
3.21231e-05
0.000229288
5.65084e-05
0.000232532
0.000228046
0.000231817
0.000243636
0.000150215
0.000240478
0.000235775
0.000230035
0.000241537
0.00034722
0.000147056
9.11671e-05
0.000233445
0.000247454
0.000247467
3.51389e-05
0.000228671
5.73036e-05
0.00022933
0.000229733
0.000229318
9.07998e-05
0.000131393
0.00014404
0.000238737
4.68652e-05
8.38842e-05
0.000229643
0.00022867
0.000242553
0.000215119
0.000230835
0.000238932
3.99566e-05
4.31366e-05
2.96836e-05
2.93526e-05
0.000232794
0.000208767
0.00010208
0.000229442
2.79949e-05
0.000236132
0.000229604
0.00022891
8.05632e-05
5.51397e-05
0.000229234
0.000229149
0.000229547
0.00024536
3.25566e-05
0.000229873
6.65307e-05
0.000367525
0.000154956
0.000246106
0.000228648
5.84309e-05
0.000228881
0.000235474
0.000229401
0.00023895
0.000181732
0.000228471
0.000214769
0.00016727
0.000234496
0.000244411
0.000242477
0.000229418
0.000229445
0.000328997
0.000243768
8.48976e-05
0.000233388
0.000133465
0.000229756
0.00015524
0.000112411
8.69768e-05
0.000246482
0.000247358
0.000134729
0.000213991
0.000215288
0.000229192
0.000192948
0.00022837
0.000229662
0.000229084
0.000229568
0.0002344
0.000194271
0.000229393
0.000228698
0.000132612
0.000229394
4.40733e-05
0.000242176
0.000244293
0.000203735
8.15791e-05
0.000229997
0.000229242
0.000229844
1.5283e-05
5.64507e-05
0.000229338
0.000229326
0.000235367
0.000229749
0.000148181
0.000229699
0.000240338
0.00023502
6.03252e-05
0.000244678
0.000163109
7.3703e-05
0.000154862
0.000229365
0.000231703
0.000233495
0.000229699
0.00024322
3.464e-05
0.000223597
0.000241004
9.74081e-05
0.000122929
0.000229334
0.000229272
0.000229663
0.000247571
0.000136852
9.1001e-05
0.000229448
0.000229215
0.000151418
0.000230049
0.000248982
0.000237872
0.000244747
9.67276e-05
0.000229314
9.44374e-05
0.000229193
0.000224858
0.000229214
0.000186207
0.000189092
0.000232455
3.8125e-05
0.000246035
0.000229849
0.000229984
0.000468529
0.000228936
0.00019368
0.000119364
0.000218424
0.000246621
7.28418e-05
0.000231536
0.000230254
0.00022944
0.000229295
0.00017249
0.000178359
0.00012863
0.000228481
0.000229364
0.000221065
0.000229738
0.000232598
0.000237642
0.000232032
0.000247037
0.000234172
0.000223322
0.000165535
0.000232372
0.00024164
0.000228578
0.000206748
0.000230413
0.000229364
0.000250588
0.000211218
0.000228943
0.000228842
2.55973e-05
0.000229286
0.000228641
0.000151959
0.000229707
0.000235026
0.000211635
0.00024788
0.000160101
0.000235468
0.000196982
0.000127908
0.000244187
9.31204e-05
0.000193571
0.000196307
8.44061e-05
6.0733e-05
0.00015265
0.000229759
0.000230356
0.000171958
0.000229013
0.000229546
0.000243835
0.000232275
0.000251886
0.000265434
0.000208089
0.000242056
0.000229186
0.000217776
0.000229532
0.000228831
0.000234946
0.000150325
0.000230777
0.000234337
0.000231329
0.000229645
0.000131999
6.1912e-05
0.000306507
0.000230715
0.000230409
0.00018781
0.000245102
0.000232408
0.000480304
0.000230457
0.000160127
0.000243822
0.000229266
0.000241732
0.000229913
0.0002406
0.000159315
0.000247599
0.000214867
0.000222831
0.000244686
0.00022982
0.000115354
0.000214785
8.88247e-05
0.00024235
0.000228951
0.000233067
0.000229806
0.000165989
0.000229987
8.01434e-05
0.000229493
0.000229457
0.000228943
0.00019416
0.000239557
0.000229562
0.000162726
0.000229181
0.000244911
0.000202734
0.000230795
0.000134723
1.6813e-05
0.000246713
0.000235116
0.000240798
0.000222134
0.000222268
0.000239363
0.000279326
0.000229236
0.000246923
0.000229411
0.000232954
0.000153398
0.000193259
5.6643e-05
0.000238823
0.000229872
0.000235198
0.000228647
0.00014372
0.00022963
0.000240981
0.000249246
0.000239793
0.000234006
0.000139895
0.00024989
0.000246214
0.000238022
0.00022121
5.26465e-05
9.41199e-05
0.000229443
0.000242368
9.55912e-05
0.000229509
5.354e-05
0.00014536
0.000236557
0.00016372
0.000229261
0.000234413
0.000233549
0.000161236
0.000233372
0.000227064
0.000229575
0.00024091
0.000232617
0.000248306
0.000244245
0.000217518
0.000242183
0.000228748
0.000147197
7.60767e-05
0.000229201
0.000234306
0.000185885
0.000250733
0.000245952
5.88473e-05
0.000249554
0.000117998
0.000245043
0.000250457
0.000228831
0.000247211
0.000229153
0.000209541
2.68429e-05
0.000230048
0.000229366
0.000246336
0.000373909
0.000234326
0.000232178
0.000229563
0.000246539
0.000253203
0.000229512
0.00022962
0.000229792
0.000229412
0.000233546
0.000198575
0.000107257
0.000113638