/*--------------------------------*- C++ -*----------------------------------*\
| =========                 |                                                 |
| \\      /  F ield         | OpenFOAM: The Open Source CFD Toolbox           |
|  \\    /   O peration     | Version:  3.0.1                                 |
|   \\  /    A nd           | Web:      www.OpenFOAM.org                      |
|    \\/     M anipulation  |                                                 |
\*---------------------------------------------------------------------------*/
FoamFile
{
    version     2.0;
    format      ascii;
    class       volScalarField;
    location    "0.178211";
    object      p;
}
// * * * * * * * * * * * * * * * * * * * * * * * * * * * * * * * * * * * * * //

dimensions      [0 2 -2 0 0 0 0];

internalField   nonuniform List<scalar> 
21246
(
-5.85825
-3.11057
-1.96984
-1.33871
-0.877644
-0.596915
-0.458734
-0.398557
-0.381903
-0.38533
-0.377518
-5.78893
-4.32993
-3.47284
-2.61375
-1.8511
-1.32774
-1.0067
-0.813172
-0.706728
-0.647678
-0.603999
-4.99786
-4.64139
-4.21403
-3.52145
-2.76854
-2.117
-1.63097
-1.29826
-1.07789
-0.934276
-0.830169
-4.50166
-4.41224
-4.22465
-3.80704
-3.25729
-2.67578
-2.15749
-1.74762
-1.44366
-1.22373
-1.05949
-4.15775
-4.09579
-3.99515
-3.75493
-3.3983
-2.95636
-2.50059
-2.09037
-1.75145
-1.48375
-1.27123
-3.92677
-3.84095
-3.76735
-3.60122
-3.35869
-3.03666
-2.67109
-2.30614
-1.97364
-1.68907
-1.44815
-3.77881
-3.65562
-3.59604
-3.45093
-3.26312
-3.01666
-2.72538
-2.41488
-2.11018
-1.83033
-1.57945
-3.65742
-3.52654
-3.46962
-3.32349
-3.16243
-2.95752
-2.71544
-2.4496
-2.1763
-1.91202
-1.66374
-3.56337
-3.42926
-3.35784
-3.21309
-3.06787
-2.8848
-2.67236
-2.43767
-2.19057
-1.94335
-1.70358
-3.48811
-3.34236
-3.25932
-3.12575
-2.98133
-2.80775
-2.6119
-2.39684
-2.16863
-1.93622
-1.70667
-3.41661
-3.2613
-3.17499
-3.04207
-2.8956
-2.72731
-2.54022
-2.33642
-2.1204
-1.89908
-1.67848
-3.3414
-3.17925
-3.09182
-2.95682
-2.80851
-2.64179
-2.45819
-2.25999
-2.05111
-1.83739
-1.62352
-3.26974
-3.09841
-3.00744
-2.86911
-2.71745
-2.54916
-2.36538
-2.16884
-1.96355
-1.75584
-1.54852
-3.19892
-3.01711
-2.92052
-2.77762
-2.62066
-2.44817
-2.26132
-2.06359
-1.85965
-1.6554
-1.45271
-3.11695
-2.92706
-2.82642
-2.67825
-2.51476
-2.33613
-2.14403
-1.94305
-1.73906
-1.53864
-1.34211
-3.02713
-2.82834
-2.72252
-2.56798
-2.39659
-2.20999
-2.01085
-1.80549
-1.60156
-1.40665
-1.21895
-2.9292
-2.72031
-2.60741
-2.44532
-2.26412
-2.06731
-1.85935
-1.6493
-1.44717
-1.26085
-1.08581
-2.81696
-2.59856
-2.47874
-2.30784
-2.11438
-1.90446
-1.68599
-1.47246
-1.27666
-1.10553
-0.950075
-2.69009
-2.4624
-2.33478
-2.15277
-1.94292
-1.71578
-1.48598
-1.27342
-1.09259
-0.945751
-0.815519
-2.54794
-2.31217
-2.17475
-1.97662
-1.74267
-1.49301
-1.25426
-1.05354
-0.902107
-0.790978
-0.694416
-2.39361
-2.15036
-1.99661
-1.77022
-1.49825
-1.22384
-0.98854
-0.82174
-0.720379
-0.656804
-0.597042
-2.21036
-1.95972
-1.78836
-1.4985
-1.17908
-0.892721
-0.696106
-0.600399
-0.572013
-0.561325
-0.531032
-2.04588
-1.92741
-1.5433
-1.16023
-0.809078
-0.547862
-0.42843
-0.439331
-0.495893
-0.530098
-0.520338
-2.73415
-0.953595
-0.851404
-0.63872
-0.444719
-0.354313
-0.34923
-0.410979
-0.507745
-0.561501
-0.550303
-2.07449
-1.66695
-1.14099
-0.694038
-0.362621
-0.160741
-0.0842252
-0.0853488
-0.120098
-0.162188
-0.183244
-0.590962
-0.655718
-0.524158
-0.282455
-0.0152855
0.185118
0.259274
0.220274
0.128665
0.031771
-0.0222244
-0.207573
-0.297066
-0.257542
-0.143867
0.0396589
0.233539
0.368084
0.387347
0.284142
0.148179
0.0622008
-0.156625
-0.278019
-0.277771
-0.240662
-0.142207
-0.00190343
0.137857
0.233012
0.252709
0.170582
0.0794543
-0.228869
-0.39535
-0.43352
-0.46918
-0.463216
-0.413836
-0.33261
-0.229517
-0.107946
-0.0428657
-0.0529698
-0.333893
-0.562453
-0.647785
-0.763677
-0.858431
-0.922592
-0.946374
-0.904163
-0.774018
-0.575607
-0.407044
-0.431123
-0.730686
-0.871435
-1.07608
-1.27903
-1.47351
-1.63907
-1.72456
-1.66925
-1.43458
-1.08835
-0.529785
-0.886104
-1.07777
-1.37079
-1.68147
-2.01302
-2.34239
-2.60655
-2.69654
-2.51037
-2.06652
-0.602648
-1.016
-1.24719
-1.62205
-2.03176
-2.49524
-2.99229
-3.45995
-3.74201
-3.67849
-3.24484
-0.605846
-1.11447
-1.35342
-1.80294
-2.29916
-2.87859
-3.52616
-4.1855
-4.68386
-4.79899
-4.38951
-0.553917
-1.13212
-1.35787
-1.89292
-2.46136
-3.13418
-3.9004
-4.70827
-5.41606
-5.72898
-5.39353
-0.457528
-1.0089
-1.33427
-1.86296
-2.49031
-3.2343
-4.08643
-4.99659
-5.86474
-6.30408
-6.11855
-0.281327
-0.80199
-1.17871
-1.71129
-2.36648
-3.15175
-4.05653
-5.03246
-5.96188
-6.51674
-6.40496
-0.00770214
-0.497414
-0.896201
-1.42455
-2.081
-2.87324
-3.78738
-4.77027
-5.70387
-6.3382
-6.35833
0.332866
-0.10989
-0.505787
-1.01478
-1.65193
-2.42581
-3.31721
-4.2618
-5.1393
-5.77573
-5.94339
0.740804
0.350197
-0.0301531
-0.511196
-1.11752
-1.85846
-2.70928
-3.5952
-4.39607
-4.99046
-5.2571
1.19942
0.852791
0.489065
0.0366571
-0.532162
-1.22584
-2.01481
-2.81865
-3.52998
-4.06695
-4.32968
1.64568
1.32337
0.966473
0.537634
0.0139175
-0.611765
-1.31092
-2.01897
-2.6406
-3.0806
-3.29592
1.99114
1.67925
1.33302
0.948366
0.491782
-0.0563711
-0.672166
-1.28996
-1.8077
-2.12185
-2.20079
2.20425
1.91764
1.5967
1.24997
0.838327
0.341712
-0.217051
-0.765693
-1.18574
-1.35058
-1.26638
2.29594
2.01719
1.69112
1.31937
0.887593
0.403616
-0.101664
-0.57003
-0.903817
-0.996755
-0.884649
2.18983
1.8573
1.47703
1.05221
0.6076
0.162425
-0.263966
-0.647354
-0.931623
-1.03663
-0.908643
1.80445
1.37644
0.915917
0.498658
0.127982
-0.195661
-0.486258
-0.739413
-0.911902
-0.930485
-0.774182
1.12837
0.461933
0.103783
-0.161557
-0.341008
-0.481711
-0.611477
-0.715942
-0.763466
-0.732677
-0.647361
21.7191
14.0965
10.1305
7.87865
6.41415
5.42076
4.66963
4.04913
3.51729
3.08234
2.80748
24.8463
22.2386
18.0332
14.4988
11.6186
9.37542
7.65798
6.3347
5.30566
4.53403
4.01632
20.2096
20.5078
19.4549
17.4087
14.9517
12.4796
10.2945
8.50152
7.07633
5.965
5.18096
16.6628
18.0048
17.9829
17.2988
15.8882
14.0464
12.0688
10.1956
8.55275
7.18827
6.16085
13.5522
15.136
15.4241
15.6615
15.1959
14.146
12.6928
11.0789
9.49685
8.07885
6.95949
11.0642
12.6372
12.9226
13.5071
13.5945
13.1973
12.3416
11.1713
9.85742
8.56179
7.46216
9.46077
10.5681
10.9881
11.5862
11.8836
11.8607
11.4544
10.71
9.73225
8.65976
7.66684
8.49314
9.22381
9.56239
10.0801
10.4132
10.5481
10.4034
9.97021
9.29071
8.46437
7.66068
7.73287
8.29714
8.53471
8.94733
9.24292
9.42276
9.40459
9.16053
8.69659
8.07261
7.43372
7.00412
7.53049
7.72834
8.07315
8.32069
8.49564
8.52925
8.39338
8.07599
7.60558
7.09588
6.54468
6.9793
7.11825
7.39944
7.59409
7.74226
7.78659
7.70455
7.47741
7.11497
6.71401
6.41339
6.67084
6.70989
6.90482
7.03107
7.13579
7.16544
7.10272
6.92797
6.64122
6.32193
6.21854
6.3898
6.38443
6.51608
6.58142
6.64008
6.64295
6.57922
6.431
6.19289
5.93306
5.9012
6.07381
6.07032
6.169
6.19257
6.21396
6.18907
6.11503
5.97728
5.76543
5.54209
5.79904
5.87119
5.81199
5.86032
5.84147
5.82904
5.77779
5.69051
5.55614
5.36084
5.15891
5.6358
5.64419
5.55442
5.56329
5.50803
5.46529
5.39024
5.28986
5.1561
4.97251
4.78624
5.32832
5.34019
5.26083
5.25082
5.17249
5.10667
5.01362
4.90316
4.76875
4.59312
4.41023
5.11772
5.08161
4.97528
4.93131
4.82969
4.74459
4.64049
4.52562
4.39273
4.22624
4.05105
4.89761
4.80759
4.66978
4.59093
4.47063
4.3738
4.2687
4.1573
4.0294
3.87236
3.70473
4.59678
4.45853
4.30276
4.20518
4.08487
3.99478
3.90389
3.80398
3.68186
3.52901
3.35279
4.21786
4.03106
3.86799
3.77534
3.68411
3.62676
3.56442
3.47762
3.35559
3.20076
3.01986
3.77372
3.52691
3.38881
3.34355
3.31966
3.31576
3.28124
3.19366
3.05692
2.89044
2.70722
3.03266
2.9785
2.89951
2.96304
3.04784
3.09659
3.06522
2.94794
2.77939
2.59111
2.37795
4.01851
2.84459
3.04896
3.17248
3.18576
3.14322
2.97678
2.74556
2.51703
2.30614
2.07223
-20.5163
-6.08608
-1.45957
0.699243
1.5985
1.8738
1.90506
1.84207
1.72617
1.60869
1.5724
-48.7925
-27.8074
-18.6158
-11.2647
-6.1231
-3.25967
-1.71038
-0.85088
-0.348752
-0.0248159
0.255499
-50.5269
-39.7624
-32.9387
-23.8231
-15.8415
-10.1814
-6.51566
-4.24499
-2.8237
-1.88501
-1.1898
-44.4413
-41.4878
-38.3454
-31.1976
-23.5686
-16.8442
-11.6539
-8.02074
-5.57364
-3.92269
-2.71747
-38.4047
-38.2583
-37.2618
-32.9691
-27.3667
-21.2827
-15.8153
-11.4605
-8.23465
-5.93792
-4.28223
-33.8335
-34.416
-34.0376
-31.5727
-27.867
-23.1087
-18.2739
-13.9405
-10.398
-7.67348
-5.67067
-30.4393
-31.1082
-30.7933
-29.1963
-26.6587
-23.0898
-19.1515
-15.2745
-11.8221
-8.94262
-6.66358
-27.6977
-28.2983
-27.9384
-26.7653
-24.8654
-22.116
-18.957
-15.6441
-12.5032
-9.7161
-7.35598
-25.3931
-25.8771
-25.4614
-24.5126
-22.9597
-20.7314
-18.148
-15.3413
-12.5689
-9.99534
-7.68724
-23.3784
-23.7408
-23.2728
-22.4446
-21.0903
-19.2001
-17.0165
-14.6108
-12.1837
-9.87729
-7.7068
-21.5748
-21.8002
-21.3089
-20.5447
-19.3025
-17.6351
-15.7313
-13.6303
-11.4914
-9.44088
-7.49191
-19.8548
-19.9347
-19.4738
-18.7449
-17.5764
-16.0682
-14.3682
-12.5028
-10.5999
-8.76577
-7.02543
-18.1985
-18.1727
-17.7432
-17.0138
-15.8965
-14.507
-12.9591
-11.279
-9.5736
-7.93031
-6.35945
-16.6216
-16.5141
-16.0761
-15.3456
-14.2625
-12.9597
-11.5238
-9.98996
-8.45251
-6.98999
-5.59271
-15.0785
-14.8946
-14.4364
-13.7036
-12.6686
-11.4235
-10.071
-8.65421
-7.2607
-5.96478
-4.75893
-13.5865
-13.319
-12.8405
-12.1075
-11.1054
-9.88841
-8.60201
-7.27933
-6.01315
-4.87555
-3.87481
-12.1462
-11.7947
-11.2956
-10.5562
-9.55738
-8.37553
-7.119
-5.867
-4.71856
-3.73516
-2.90003
-10.743
-10.3105
-9.7922
-9.0463
-8.04184
-6.85535
-5.60455
-4.41428
-3.38654
-2.56394
-1.87892
-9.37632
-8.86923
-8.33102
-7.56927
-6.53495
-5.30661
-4.04556
-2.92436
-2.04119
-1.40827
-0.918463
-8.04129
-7.4741
-6.90643
-6.1018
-4.99851
-3.69149
-2.41765
-1.41462
-0.717408
-0.298069
0.00497792
-6.81578
-6.16736
-5.54047
-4.66447
-3.38878
-1.99334
-0.784483
0.0341675
0.460165
0.639314
0.788631
-5.40682
-4.64587
-3.91573
-2.75931
-1.36488
0.00801102
1.03262
1.55952
1.70091
1.5808
1.48831
-3.71655
-3.60872
-2.56432
-1.22978
0.245055
1.39167
1.96471
2.05731
1.96036
1.83706
1.82757
-6.40684
-0.591961
0.770744
1.83478
2.63349
2.92295
2.82387
2.56999
2.32012
2.10954
1.89529
-2.61204
1.42143
2.36162
2.4067
2.05294
1.60454
1.17205
0.781643
0.43636
0.149347
-0.0164185
-22.8153
-11.3364
-7.09266
-3.87022
-1.9621
-1.04642
-0.668299
-0.558384
-0.573978
-0.637583
-0.66904
-25.8136
-18.4877
-15.1613
-10.6264
-7.06309
-4.64586
-3.15399
-2.29541
-1.81804
-1.54588
-1.35939
-22.1903
-19.5933
-18.1415
-14.4201
-11.0012
-8.03964
-5.77991
-4.22865
-3.21906
-2.56575
-2.11779
-18.172
-17.5921
-17.2571
-15.0545
-12.694
-10.1075
-7.77457
-5.91257
-4.53955
-3.5668
-2.86314
-15.1803
-15.1451
-15.1271
-13.9691
-12.5771
-10.7003
-8.76555
-6.99956
-5.53321
-4.39652
-3.52307
-12.8575
-13.0117
-13.0318
-12.4012
-11.5928
-10.322
-8.88475
-7.42596
-6.08364
-4.94458
-4.00405
-10.9289
-11.1639
-11.1837
-10.8372
-10.3559
-9.50186
-8.47182
-7.33967
-6.21659
-5.19128
-4.2943
-9.44238
-9.58609
-9.59717
-9.41623
-9.12491
-8.54757
-7.8129
-6.95158
-6.04522
-5.168
-4.35789
-8.31473
-8.34674
-8.33133
-8.21895
-8.02164
-7.61704
-7.08342
-6.42647
-5.70225
-4.96794
-4.25013
-7.39185
-7.34763
-7.31503
-7.22979
-7.07822
-6.7778
-6.37459
-5.8636
-5.28198
-4.67485
-4.07165
-6.65584
-6.52226
-6.47565
-6.40224
-6.27698
-6.04165
-5.72207
-5.31167
-4.83549
-4.32667
-3.80959
-6.12325
-5.90392
-5.83684
-5.74949
-5.62348
-5.41719
-5.14242
-4.79426
-4.39059
-3.95593
-3.50781
-5.74335
-5.46648
-5.37569
-5.26004
-5.11274
-4.90441
-4.64099
-4.32201
-3.96233
-3.5817
-3.19436
-5.44008
-5.12432
-5.00535
-4.85631
-4.6836
-4.46373
-4.19686
-3.88742
-3.5516
-3.20861
-2.86591
-5.17578
-4.83702
-4.68895
-4.50564
-4.30632
-4.06952
-3.79046
-3.47745
-3.15126
-2.83458
-2.53556
-4.91765
-4.57143
-4.40061
-4.19255
-3.9683
-3.71145
-3.4115
-3.08239
-2.75412
-2.45521
-2.19249
-4.65497
-4.31007
-4.12424
-3.90069
-3.65606
-3.37516
-3.04526
-2.68973
-2.35234
-2.06848
-1.84202
-4.40181
-4.0673
-3.87396
-3.64183
-3.37449
-3.05594
-2.68016
-2.28871
-1.94097
-1.67577
-1.49071
-4.16842
-3.84984
-3.65554
-3.41537
-3.11404
-2.73647
-2.30006
-1.87295
-1.52592
-1.28712
-1.13506
-3.94289
-3.65195
-3.45931
-3.19597
-2.83705
-2.38171
-1.88894
-1.45164
-1.13161
-0.929622
-0.79115
-3.65419
-3.45637
-3.2499
-2.92711
-2.48057
-1.95461
-1.45154
-1.06369
-0.812384
-0.655021
-0.52561
-3.58008
-3.37149
-3.04462
-2.58077
-2.04187
-1.5111
-1.0818
-0.803627
-0.632928
-0.481273
-0.191961
-3.19483
-2.52073
-2.01098
-1.55614
-1.1622
-0.868565
-0.720406
-0.687176
-0.686286
-0.681902
-0.601838
19.2383
13.3384
9.34637
6.67351
4.87093
3.59747
2.65127
1.90956
1.31014
0.841321
0.527591
15.3014
15.0514
12.8651
10.2519
7.777
5.80668
4.2784
3.09185
2.17447
1.49147
1.04848
9.72403
11.489
11.4217
10.6016
8.95842
7.03536
5.32527
3.91707
2.80799
1.97312
1.42749
4.72955
7.47569
8.27419
8.61077
8.14367
7.03152
5.68958
4.38778
3.23133
2.30893
1.71136
1.20136
3.82108
4.83283
5.93254
6.32199
6.09983
5.32038
4.33946
3.32812
2.45256
1.85027
-1.13525
1.0521
1.88559
3.22992
4.03571
4.38609
4.23672
3.73926
3.03284
2.32475
1.78667
-2.64842
-0.8449
-0.283417
1.05783
1.93457
2.5957
2.84708
2.74117
2.38838
1.92132
1.5368
-3.57761
-2.08408
-1.81108
-0.501271
0.229432
1.01122
1.48604
1.67004
1.59385
1.35901
1.13495
-4.29239
-2.93206
-2.91571
-1.67154
-1.03788
-0.272516
0.286896
0.642639
0.775412
0.73907
0.646288
-4.88996
-3.75402
-3.53642
-2.63083
-2.01196
-1.28408
-0.704153
-0.258766
0.0122725
0.131822
0.176482
-5.34641
-4.48177
-4.11024
-3.33504
-2.75504
-2.07119
-1.49488
-1.0058
-0.651111
-0.428357
-0.275801
-5.63982
-4.91339
-4.56213
-3.85998
-3.31544
-2.67196
-2.10859
-1.60009
-1.19495
-0.902536
-0.683746
-5.88563
-5.20487
-4.88181
-4.23466
-3.72211
-3.11241
-2.5651
-2.05088
-1.61728
-1.27656
-1.01147
-6.11457
-5.42151
-5.10238
-4.48643
-3.99644
-3.41271
-2.88091
-2.36925
-1.9233
-1.5559
-1.25561
-6.14255
-5.5019
-5.21435
-4.62819
-4.15612
-3.59288
-3.07389
-2.56889
-2.12077
-1.74267
-1.43303
-6.11248
-5.50555
-5.23686
-4.67593
-4.21431
-3.66807
-3.15779
-2.6609
-2.21736
-1.84005
-1.53095
-6.06216
-5.46065
-5.18905
-4.64352
-4.18095
-3.64623
-3.14068
-2.65333
-2.22033
-1.85401
-1.5619
-5.92823
-5.33835
-5.0615
-4.52925
-4.05725
-3.52885
-3.02619
-2.5517
-2.13677
-1.79158
-1.51623
-5.7133
-5.13593
-4.84815
-4.32614
-3.83821
-3.31269
-2.81565
-2.36158
-1.97552
-1.6641
-1.42365
-5.43369
-4.8587
-4.54526
-4.02526
-3.5159
-2.99367
-2.51226
-2.09237
-1.74945
-1.48385
-1.28686
-5.07445
-4.4891
-4.13319
-3.60783
-3.08013
-2.57245
-2.12764
-1.76167
-1.47643
-1.265
-1.11577
-4.59333
-3.98487
-3.56811
-3.04174
-2.52153
-2.05929
-1.68345
-1.39249
-1.17481
-1.01794
-0.92119
-4.04946
-3.32577
-2.85486
-2.37688
-1.92116
-1.54535
-1.26274
-1.04923
-0.886554
-0.776506
-0.743956
-2.72161
-2.11476
-1.75202
-1.44785
-1.17656
-0.973999
-0.827583
-0.692941
-0.553183
-0.418792
-0.462295
-1.33074
-1.47908
-2.03469
-2.65769
-2.61364
-1.87451
-0.753939
0.0426305
0.450981
-1.33956
-1.45477
-1.72821
-2.13077
-2.05189
-1.49801
-0.691904
-0.0734601
0.267482
-1.31937
-1.39518
-1.66886
-2.01253
-1.96622
-1.43458
-0.701663
-0.19064
0.0966935
-1.28451
-1.31132
-1.56752
-1.80157
-1.7116
-1.31661
-0.722119
-0.283128
-0.055992
-1.36698
-1.45884
-1.68126
-2.23379
-2.69034
-2.48545
-1.57704
-0.397723
0.426344
-1.36753
-1.44063
-1.56356
-1.88834
-2.17183
-1.95037
-1.3056
-0.414092
0.246688
-1.35028
-1.40762
-1.52123
-1.81331
-2.05918
-1.90502
-1.24339
-0.473888
0.0811318
-1.30499
-1.34891
-1.45953
-1.6867
-1.84162
-1.625
-1.16424
-0.55788
-0.0747313
1.84672
1.98901
1.9845
0.00760993
-0.307394
1.75753
-1.15229
1.41617
1.74173
2.3413
-0.31391
1.42426
-0.341606
-0.0166753
1.84039
0.625505
-0.0198211
0.0105503
0.624891
1.92937
0.271583
-1.00285
0.954553
-0.00457888
2.06226
-0.0178517
-0.340476
-1.14216
-1.65203
-0.142519
-0.0184845
0.662167
-0.00158623
0.839302
0.606879
1.98637
-0.00479965
2.06361
-0.000648633
1.39199
-1.3668
0.849033
0.0309352
0.965063
-0.958605
-1.66558
-0.0324868
-1.18478
1.13401
1.37632
-0.151297
1.40378
0.00575363
0.0327653
1.34464
0.283369
-0.978329
1.35805
-1.6088
0.0386665
-0.392048
0.00517497
-0.292357
-0.252498
-1.69984
1.92028
0.0440758
1.4957
1.98088
2.32591
-0.0929431
3.11916
-0.190319
4.01888
0.0717888
2.93344
-0.979565
0.883421
-0.668499
-1.23104
0.0226501
-0.250241
1.90907
1.91719
-0.294085
-0.165892
-1.27081
0.00557302
-0.538458
0.0148955
1.97542
1.34472
-1.47178
2.81062
-1.32042
-1.11218
0.0769104
-0.540437
-0.504624
3.32941
-0.0701318
-1.17633
1.97367
0.0927026
-0.3756
1.86078
-0.00374069
1.90556
-0.00171654
-0.262994
0.991509
0.842258
2.741
-0.137675
0.0583237
1.89832
1.33112
0.759686
1.49654
1.72073
-0.207286
3.86425
-0.850966
-0.0294737
-1.68894
-0.57286
0.00607104
-0.00314362
-0.000370152
-0.00393985
1.14893
0.0427532
-1.18462
2.96711
1.91586
-0.418452
-0.898019
-0.256036
-0.169442
1.26978
0.0276553
0.106549
-1.11894
1.24968
1.29811
-0.307844
-0.579808
1.46853
2.69865
0.770065
0.951095
1.82661
-0.304167
3.80992
-0.0746518
0.0162998
-0.0559654
-0.578694
-0.0426435
2.02622
-0.387912
-0.411598
3.07066
2.02315
0.0524655
-0.00679931
-0.575094
-0.0196305
-0.621135
-1.65899
-0.00362037
-0.0110096
-0.624128
0.116781
0.718688
0.701476
-0.00291499
-0.319298
-1.02536
0.780284
1.41348
-0.987701
1.93196
-0.377022
1.73407
-0.147353
0.943562
0.725305
2.01081
-0.64151
-0.00351655
-0.0518046
1.82098
-1.31993
1.97118
2.1101
1.86658
-0.501554
-0.00369427
1.89308
-0.457093
1.52459
-0.0104043
-0.0347107
1.92327
0.00420141
2.72837
-0.00144497
1.49899
1.84528
0.0151193
0.727796
0.03225
0.761279
0.889519
0.0311884
1.99563
-0.048569
1.05901
-0.158867
0.00100274
-0.166543
0.0839911
0.0450757
-0.0253394
1.26406
-0.364184
-0.00426083
-0.00215625
-0.259996
-0.556572
1.80008
0.9639
3.79943
-0.32161
-0.837984
0.0514272
1.93802
1.19528
1.20612
-0.0358537
0.0268066
0.0417345
-1.27098
1.98957
-0.444731
0.822232
-0.051331
-1.1025
0.0340761
-0.047354
0.0156127
0.31708
2.08724
-0.389932
1.83747
0.361103
2.07399
-0.352846
0.916886
-0.00254273
-0.527089
1.82384
0.925792
0.975494
-0.0858589
0.0586109
1.38477
-0.358935
-0.400235
-0.435691
1.07205
1.58504
-0.0299565
2.18955
0.759909
-0.0429381
2.01527
1.34296
-0.390265
3.24793
1.56752
0.0247763
0.0452456
-0.357195
2.17226
-0.869281
1.2848
1.1669
0.0212792
1.14382
-1.16107
-0.261628
-0.00197823
1.96374
1.48538
-0.598602
0.98015
0.697275
-0.0563692
1.62449
-0.282685
0.967146
-0.155853
0.39607
-0.298726
0.915144
0.00301991
-0.961789
1.01191
-1.12364
1.84582
-0.276393
0.000998875
-1.07845
1.40463
-0.236656
-0.404725
1.60928
3.29176
0.87707
0.014952
0.733856
-0.167565
-0.290077
0.0703209
0.829598
-0.217607
1.78007
0.0402947
1.18104
-0.326067
-0.925922
1.74967
-0.296187
-1.05562
-0.0608632
0.926364
1.99074
-0.541979
-0.679325
0.0178822
1.54411
-0.0221401
-0.446025
0.00369861
0.0742056
0.786861
-0.0354535
0.0116066
-1.14756
-0.515782
-0.390499
0.432104
-0.0293885
1.89232
0.000262506
1.10144
0.939129
0.0421217
-0.373766
-0.0244442
1.9893
1.90472
2.46379
-0.547587
-0.0107595
0.0118541
-1.17962
-0.774273
2.03551
-0.484093
-1.0877
-0.00703963
-0.0253139
1.12678
-0.315161
0.578403
2.21019
0.780327
0.0312395
2.14095
-0.352465
1.22572
-0.0606747
0.0842811
-0.24588
-0.0282082
0.0506109
-0.605937
1.81943
-1.02716
-0.00971438
3.27177
0.0756593
-1.64034
0.894526
0.848222
1.5522
0.035911
-0.345829
1.89651
1.74278
0.0250515
-0.000546014
-1.39707
-0.858077
0.00393486
1.48843
0.013396
0.192858
0.605097
-0.0126289
-0.012911
-0.283984
-0.316115
-0.00359356
4.2943
-0.00422722
-0.928967
-0.303241
-0.00715216
-1.15799
0.000610525
0.654872
-0.195989
3.87336
-0.00882021
-0.700833
-1.83059
0.804375
-0.368175
-0.0807463
1.52478
-0.641531
0.00480047
-0.124414
-0.181498
-0.0319832
0.786953
-0.136375
-1.10594
0.0746191
-0.266016
0.41906
0.00892609
0.0255079
-0.730766
2.11619
-0.448776
1.79732
1.91777
1.9932
-0.769172
-0.618698
-1.18637
-0.00311051
-0.495807
-0.0035968
1.98545
2.13826
0.00842514
-0.0150869
-0.404322
0.311054
-0.00574065
-0.00298004
1.88442
0.748065
1.21517
0.662138
-0.298483
0.682424
-0.443437
0.3378
1.1501
1.05587
1.83831
-0.496017
0.933573
1.96799
0.299671
-0.266104
-0.965364
0.932479
-0.278241
-0.277253
1.30418
0.00842003
1.95912
-0.508004
2.12607
0.388764
1.24458
-0.00127626
-0.0446944
1.84426
-0.0855629
-0.0324995
1.39124
-0.242397
-0.208123
1.7014
1.94178
-1.18347
0.00637137
-0.254544
1.12002
-1.19126
0.782364
-0.00686946
-0.0453987
-0.601861
-0.0097067
-0.0693218
0.0583097
0.0254377
-0.0897127
0.793956
-0.357794
1.56521
1.58391
2.09586
1.13267
0.197292
0.0287064
1.41194
1.97063
-0.14202
1.64308
-1.55066
-0.575283
0.00122083
-0.0950283
-0.549607
1.99803
2.05026
1.56789
-1.37006
-0.497578
0.81849
2.01443
-0.0257831
1.7299
0.0858323
1.73183
0.0218713
1.32294
-0.703746
0.00301293
-0.00719087
-1.53869
0.00133374
0.402412
0.0232464
2.59353
1.09351
0.00382885
-0.629182
1.73839
-0.0151876
-0.754573
-1.08846
2.05547
1.96105
1.84189
0.0275584
0.0586997
-0.00979987
1.77255
1.15986
0.0455336
2.6603
-0.00674056
-0.0043414
0.0028575
-0.463227
0.965718
-0.00585478
2.06729
0.0275056
2.21566
0.0726951
-0.00311383
0.80475
-1.10019
0.000681689
1.42048
0.877539
-1.39162
2.01876
-0.319215
-0.0589512
0.0301624
0.0330144
-0.647889
-0.211496
2.38207
1.45255
1.72455
-1.12608
-0.0902629
-0.0287012
1.89115
2.04401
-0.802042
0.883458
2.92453
0.207434
2.90449
-0.0449419
-0.0128767
0.0307091
-0.352753
-0.336265
0.324264
2.06229
-0.0325586
2.88038
1.62099
-1.10183
0.0273989
0.713166
2.09157
-0.865005
1.91891
2.10705
0.00628087
1.84463
0.0211655
-0.160453
-0.00306976
-0.374737
-0.00484727
-0.00676453
-0.799045
0.00726107
-0.58812
-0.0967865
-0.180664
-0.573027
-0.105283
-0.0648797
0.788221
0.440173
-0.297868
-0.278079
0.656238
-0.385025
-0.0911938
0.0271559
-1.1266
-0.228493
-0.735611
0.846481
0.204871
2.02604
0.84213
1.70928
-0.289833
2.62384
1.03448
0.564394
1.07996
-0.0057396
-0.0153472
-0.25641
2.87897
0.896923
1.11455
0.0107446
3.20486
-1.21293
2.87918
0.0958173
0.00445689
0.916834
0.000967142
1.98251
-0.00191474
-0.0805031
-0.0391845
-1.12922
-0.390175
-0.222627
1.90458
-0.00586999
-0.0134847
-0.773601
0.0123258
0.767343
-0.280457
1.91344
-0.385246
0.621512
-0.256701
1.7883
1.50964
2.16391
-0.346503
0.0209908
2.02148
-0.00312486
2.11029
-0.00254209
-0.0451909
0.0252211
-0.0555359
-1.24983
6.36903e-05
-0.456921
-0.265905
-0.240935
-0.0486101
0.000264986
-1.1485
0.792802
-0.0627193
1.12703
1.11366
-1.12315
-0.718819
-0.520862
-0.0120541
2.60424
0.0177035
1.68029
-0.02214
1.99049
0.00434695
0.0159413
0.0245647
-0.111262
-0.335705
0.0303785
0.0365451
3.55549
-0.194358
-0.402967
-0.360098
1.01842
-0.0272511
-0.76009
1.98736
-1.46275
-0.00748088
3.86845
0.0939981
1.16772
0.506557
1.65683
-0.00877225
3.28626
-0.0106469
1.87442
-0.00258028
2.89234
-0.00772362
0.00680596
0.0247553
-0.000192925
0.703911
-0.137311
-1.42707
1.96511
-0.00891462
-0.312278
0.0189632
0.263598
-0.607442
-0.0736624
0.040941
0.00181485
0.290053
0.804393
-0.329431
0.838655
0.0742307
-0.858809
1.9699
1.48251
-0.00737133
-0.3018
0.0178808
-0.201882
1.39189
-0.0530783
-0.436469
0.823817
2.01377
1.80309
1.11779
1.90039
-0.00424993
-1.00309
-0.443416
-0.0104268
-0.656901
2.12401
1.23991
-0.377542
0.0268502
1.94261
-0.547739
-0.0718273
-1.19163
0.0210089
-0.7044
0.495742
0.0534511
2.12011
1.14864
-1.61198
1.72519
1.41586
-0.439327
0.00177214
-0.184655
-0.119497
1.99004
-0.183282
-1.34214
-0.169271
1.37166
-0.00481746
0.00830594
0.0203066
0.0251503
1.94872
0.783911
0.0352169
-0.0193863
0.0165329
1.91512
0.584795
3.53733
2.23136
1.33936
0.0594839
-0.163536
-1.48359
-1.17684
0.018513
1.67987
-0.256152
1.98266
2.85838
-0.820711
1.22636
2.0233
1.40881
-0.415155
0.0139012
0.0169984
2.03631
0.057003
2.13443
1.85413
1.9978
2.11348
-0.39853
0.935557
1.93937
2.27731
-1.02412
0.833429
2.00588
-0.704147
-1.22888
1.16974
1.98406
-0.238552
-1.00403
0.884842
-0.389917
-0.0186884
0.0288359
1.08964
2.03233
0.0617531
1.18435
0.00331762
1.26823
-0.139997
-0.00253188
0.00833943
-0.000136792
0.975428
-0.0196427
1.78763
0.930566
3.70015
1.08101
0.894832
-0.523799
-1.61487
-0.545085
-0.0505892
0.0120913
0.0177429
-0.297359
-0.842471
0.878939
0.994089
-0.00501466
9.13136e-05
-0.0278172
1.48872
-0.455291
2.68383
-0.198243
2.21435
-0.00366836
-0.0165118
-0.376469
-0.0550776
1.96494
2.03521
0.0654573
-0.880309
0.00575535
-0.640499
-0.032339
-0.232036
0.475621
0.0148145
2.11818
1.92147
-0.31446
-1.80408
-0.168894
-0.711021
-0.00346875
-0.020582
0.0286005
-0.755534
1.93746
-0.251334
0.00859468
2.00878
0.287491
1.89028
0.0116781
-0.00173673
0.00341707
1.97445
-0.0833465
1.68092
1.38599
-0.00372082
-0.0529704
0.890585
1.99305
2.29203
-0.497379
-0.658804
-0.875925
-0.650533
2.05212
-1.42218
-0.0629413
-0.665502
1.93064
0.00331663
-0.00115444
1.66436
-0.0107546
1.11399
0.0435061
0.0484055
-0.311656
-0.300865
1.34338
2.29134
-0.186861
-0.00420429
0.897237
0.00464107
1.97205
-0.863786
0.00170223
-1.12604
2.0155
-0.00749071
-0.0595607
-0.106506
-0.00685421
-0.0180551
1.89929
-0.00237314
-0.274126
0.898611
0.000792122
0.0575709
-0.200866
0.0275699
-0.10839
1.47622
2.15597
-0.555223
0.429274
-1.51007
0.00484299
0.000503024
0.0583019
1.34908
-0.186616
-0.504385
-0.00852796
0.00924076
0.0099245
2.1722
-0.145927
-0.00282427
1.98502
1.51216
1.89391
0.0874092
-0.0697848
1.65228
-0.239226
0.0117988
-0.00897142
1.00266
-1.13072
-0.470004
0.222116
-0.200925
0.812687
2.34036
1.20704
-1.17378
0.914264
0.0191055
-0.32334
-0.496525
0.934149
0.433948
1.91729
1.9605
-0.273426
0.0774481
0.0252908
-0.969349
-1.84762
-0.763982
2.1618
-0.501279
-0.28092
1.95226
-0.0120093
0.0160772
0.885088
-0.61596
-0.30502
0.100795
0.523807
-0.0208121
1.93818
0.0579018
1.04145
-1.20862
-0.571559
4.17919
-0.950607
-0.00141033
0.184107
-0.101062
0.00948749
-0.821257
0.0180784
0.530041
-1.21327
-0.00328288
-0.196765
-1.53533
-0.0379651
1.81597
-0.25285
1.73607
-0.187581
-0.040277
-0.146346
0.430978
-0.00902787
-0.977422
2.01524
1.45911
0.0591391
1.03261
0.0012569
-0.176116
2.5667
-0.0349253
-0.183213
1.02415
-0.489256
-1.0594
-0.429427
-0.91336
-0.834943
-0.0379394
-0.0125815
0.00984689
2.01455
2.02024
0.0584794
2.10617
1.93489
-0.156403
1.90182
2.08126
0.0914881
3.73793
-1.08487
-0.0317688
-0.0445289
2.10598
-0.176356
0.03433
-0.0268307
-1.38789
1.94451
0.00648014
0.0582713
-0.00611331
0.00211115
0.641736
0.00199286
1.73112
-0.0668871
0.00531152
1.235
2.11468
-0.323929
-0.341617
-0.251732
-0.42523
0.055707
2.34331
1.90361
2.03655
-0.525484
0.000221808
-0.0105048
-0.539871
-0.832067
2.66584
0.462236
1.77312
1.80213
-0.435296
1.99865
0.889353
-1.77431
-0.76642
-1.18066
-0.272238
1.02004
0.752202
-0.00881159
-0.231983
0.0230164
-1.31436
-0.0878425
1.81766
1.07807
-0.0225156
0.0124406
-0.0160403
-0.00969491
2.30759
-0.0483477
0.0362926
-0.0993798
0.405569
-0.0863328
-0.403655
1.07672
-0.504482
0.863767
2.05663
-0.256759
-0.0120208
-0.120703
0.342372
1.12935
-0.535968
-0.112201
-0.053414
-0.0192257
-0.182715
-0.714422
1.35026
-1.1725
-0.129661
1.99829
-0.00184653
0.0147571
1.54642
0.0330517
1.98692
2.10701
2.70804
-1.25289
-0.00139233
0.749566
0.028762
1.97741
0.913381
1.89214
-0.0331592
0.789836
-0.000627794
-0.56277
2.00957
-0.269566
-0.833517
-0.0302538
-0.435484
-0.63422
-0.134597
-0.00338405
1.43271
0.941857
1.90761
-0.00261145
1.8985
0.907947
-0.446481
-0.80126
0.0467784
-0.00305058
0.00275661
1.01485
-0.148102
-0.553826
0.78128
-0.594537
0.70293
-0.0043899
1.62491
-0.0146324
0.273593
2.0755
1.61939
-0.429704
0.00443042
1.39161
-0.0010897
0.756437
0.00071376
0.0123966
-0.321529
-0.00701511
2.03536
1.82831
0.0345114
-1.02234
-0.0231576
-0.000218263
-0.386632
-0.00158853
2.00744
-1.41226
-0.0117473
1.82143
-0.191834
-0.14799
-0.235481
-0.354976
-0.137339
-0.00200854
-0.494526
-1.10548
0.78701
1.38875
0.0338712
0.0723362
-0.312835
0.887153
-0.610759
1.95898
3.56487
-1.0693
1.92851
1.38012
-1.20966
-0.252003
1.58451
1.88013
1.69656
0.240082
1.03551
2.72538
-0.581038
0.0181789
0.733872
1.81486
-0.287455
1.1007
0.0282502
2.05771
0.595166
1.40337
-0.172266
-0.944262
0.0877704
2.01707
0.923199
-0.00320935
0.000200024
1.97534
-0.660732
-0.0727367
2.03289
-0.3473
-0.0314741
-0.441336
-0.239452
-0.214282
1.35822
-0.0357898
1.76971
0.3202
3.42673
0.376275
2.02932
0.0907856
3.00149
-0.266492
1.98705
2.02533
-0.341127
0.967049
1.99683
-0.312201
0.0493707
-0.258653
2.17028
0.376488
1.7899
0.0402777
-0.00329083
0.0657741
0.61069
-0.240179
-0.643614
1.00927
0.738231
0.910486
0.228294
-0.0348543
3.43964
-0.824726
3.58312
-1.2596
0.00940397
-0.0386338
0.0237087
1.19944
-0.343644
1.95252
-0.164826
-0.447195
2.03609
2.01332
0.033939
0.00281048
0.484768
2.20887
-0.165055
2.06517
-0.302575
-0.445294
-0.0245599
-0.0536925
0.761506
-0.579847
1.20338
-1.06986
-0.0362337
-0.61742
0.0176366
1.87904
0.955036
1.91872
0.685144
-0.0138757
0.141255
2.7257
-0.0020257
-0.421706
1.07938
0.247786
-1.06619
-0.0116086
1.92555
-0.279883
2.36161
2.77453
-0.0308392
2.09971
0.0252096
-0.00536007
0.397144
1.95186
-0.0584394
-0.308635
2.01476
0.000376993
2.13921
3.31348
-0.0637357
0.419741
-0.0340688
1.98505
2.71656
-1.46988
-0.468317
0.899186
-1.07278
0.354795
1.13086
0.789613
0.937896
0.523688
-0.443825
-0.0503248
-0.221872
-0.414786
1.10079
1.6677
-0.308217
-0.00124443
0.465298
-0.022083
-0.261546
2.44223
0.0107895
1.38081
-0.0466107
1.83194
2.05498
-0.00648924
-0.0842164
-0.0651328
2.0404
2.05564
1.83239
1.85802
1.28281
0.0350776
0.0651295
-0.0442469
-0.374377
0.0353805
-0.040839
1.08783
1.13794
-0.418999
1.90747
-0.00404878
-1.32298
0.0765345
0.0350476
-0.189028
0.478768
1.90697
-0.596064
-0.362824
-0.0874643
0.373286
-0.0878808
0.00127188
-0.417041
-0.00516784
-0.0377428
0.994489
-0.00748845
-0.715347
-1.38232
-0.188976
-0.243599
-0.00501291
2.00908
2.13167
-0.291631
2.04724
-0.0304872
-0.030887
0.0021904
-0.0960949
-0.00303133
-0.582237
-0.630663
0.033919
1.78443
0.0641175
0.000602957
-0.563744
-0.53434
-0.267392
1.98497
-0.571563
1.80316
0.00737285
-1.24854
-0.219378
-0.925973
0.0425353
0.0233619
2.04159
3.45205
0.986984
2.24725
2.14322
0.494389
1.00508
-0.539901
2.63083
0.0526542
-0.204245
0.713639
1.92799
-0.494613
-0.818408
1.91156
-0.0562673
0.940867
4.20701
-0.619825
-0.614261
2.00421
0.655545
0.583792
0.812087
3.72579
1.96503
-0.14118
-0.268359
1.72295