/*--------------------------------*- C++ -*----------------------------------*\
| =========                 |                                                 |
| \\      /  F ield         | OpenFOAM: The Open Source CFD Toolbox           |
|  \\    /   O peration     | Version:  3.0.1                                 |
|   \\  /    A nd           | Web:      www.OpenFOAM.org                      |
|    \\/     M anipulation  |                                                 |
\*---------------------------------------------------------------------------*/
FoamFile
{
    version     2.0;
    format      ascii;
    class       volVectorField;
    location    "0.438243";
    object      U;
}
// * * * * * * * * * * * * * * * * * * * * * * * * * * * * * * * * * * * * * //

dimensions      [0 1 -1 0 0 0 0];

internalField   nonuniform List<vector> 
21246
(
(5.44482 0.263179 -2.77249e-18)
(3.99263 0.150284 8.07481e-19)
(3.77743 0.240751 -3.01445e-19)
(3.36261 0.199666 1.58412e-19)
(2.9633 0.139773 9.57954e-20)
(2.63043 0.0721266 3.18465e-20)
(2.36011 0.0077608 2.26292e-19)
(2.13703 -0.0496773 -1.07803e-19)
(1.95026 -0.100977 -4.189e-20)
(1.79294 -0.146711 -2.94213e-20)
(1.66419 -0.179977 4.12581e-20)
(4.08007 -0.452055 0)
(2.54995 -0.800308 0)
(3.1456 -0.745252 1.38441e-18)
(3.17348 -0.646257 -1.31254e-18)
(2.9624 -0.515022 8.6232e-19)
(2.70934 -0.405467 -2.33228e-19)
(2.45707 -0.33807 1.7473e-19)
(2.22694 -0.304002 1.18455e-19)
(2.02615 -0.293091 -8.80261e-20)
(1.85567 -0.296462 2.28645e-20)
(1.71837 -0.301167 -2.63524e-19)
(2.44252 0.157862 0)
(1.48445 -0.614535 4.08551e-19)
(2.26243 -0.979559 -2.43815e-19)
(2.52717 -1.06006 -4.68623e-19)
(2.59339 -0.99369 1.08772e-19)
(2.54516 -0.845309 0)
(2.40217 -0.68985 3.10775e-19)
(2.22948 -0.576485 -4.00875e-19)
(2.05304 -0.500853 1.2552e-19)
(1.8903 -0.457013 -7.48262e-20)
(1.75818 -0.430318 -3.70916e-20)
(1.57251 1.19322 -5.11359e-19)
(1.127 0.101628 0)
(1.62514 -0.623152 -1.06219e-18)
(1.89234 -0.977472 -3.75266e-20)
(2.09789 -1.11578 -7.72414e-19)
(2.21448 -1.0807 0)
(2.21378 -0.950318 3.89264e-19)
(2.13349 -0.806716 -1.75855e-19)
(2.01661 -0.693159 -1.60682e-19)
(1.88818 -0.611674 9.61292e-20)
(1.77707 -0.551525 1.38775e-19)
(1.2854 2.14589 3.93522e-18)
(1.09456 0.888176 5.79629e-19)
(1.31925 -0.0102251 2.87503e-18)
(1.49776 -0.591492 -1.33159e-18)
(1.70464 -0.944241 1.61162e-20)
(1.87955 -1.07854 3.15547e-19)
(1.97059 -1.05223 -5.99208e-19)
(1.98103 -0.950888 3.40146e-19)
(1.93194 -0.836377 -2.54752e-19)
(1.84893 -0.741154 -3.03274e-19)
(1.76887 -0.663863 0)
(1.38052 2.90467 -1.55868e-19)
(1.216 1.60591 1.47149e-18)
(1.23733 0.628134 -1.34247e-18)
(1.32189 -0.0995774 1.9577e-18)
(1.47184 -0.616861 -2.00785e-18)
(1.63372 -0.910366 8.41373e-19)
(1.75614 -1.01162 0)
(1.82072 -0.990527 0)
(1.82874 -0.91533 2.4861e-19)
(1.79151 -0.832114 2.98778e-19)
(1.74714 -0.754978 4.57064e-20)
(1.67652 3.52395 2.17199e-19)
(1.40806 2.2747 0)
(1.29954 1.24189 -1.70506e-19)
(1.29466 0.40565 -1.22906e-18)
(1.37136 -0.233026 7.00216e-19)
(1.48887 -0.65666 -2.542e-19)
(1.60403 -0.878168 0)
(1.68883 -0.948191 0)
(1.73173 -0.930035 0)
(1.73097 -0.876889 0)
(1.72225 -0.817083 5.59697e-20)
(2.05033 4.04295 -3.99837e-21)
(1.63259 2.88979 4.32531e-20)
(1.44374 1.815 0)
(1.35424 0.898828 1.64142e-18)
(1.35705 0.165492 -1.20727e-18)
(1.42174 -0.364548 7.35787e-19)
(1.51125 -0.691868 -1.22488e-18)
(1.59487 -0.850625 5.46247e-19)
(1.65449 -0.895553 0)
(1.67888 -0.880811 1.67614e-19)
(1.69441 -0.846355 9.09382e-20)
(2.29465 4.33085 -1.70848e-19)
(1.82405 3.39573 1.18504e-19)
(1.60958 2.33657 -2.38285e-19)
(1.45017 1.38144 1.25087e-18)
(1.38974 0.573707 -1.08426e-18)
(1.40402 -0.0478363 -4.70993e-19)
(1.46143 -0.470154 3.07548e-19)
(1.53284 -0.713515 9.14832e-20)
(1.59774 -0.82323 0)
(1.63978 -0.851217 3.33587e-19)
(1.67333 -0.845588 -5.32929e-19)
(2.42887 4.39887 1.82913e-18)
(1.99556 3.77273 -1.57658e-19)
(1.78608 2.82394 2.34918e-19)
(1.5706 1.87238 5.05293e-19)
(1.45495 1.00503 2.43225e-19)
(1.41976 0.300109 -1.87221e-19)
(1.44091 -0.212205 2.69073e-19)
(1.4933 -0.53911 -1.25949e-18)
(1.55604 -0.715857 5.35177e-19)
(1.61067 -0.790403 -3.24453e-19)
(1.66019 -0.815075 4.10806e-20)
(2.55871 4.4047 0)
(2.17613 4.05797 0)
(1.98257 3.2842 0)
(1.73048 2.36807 -6.48142e-19)
(1.55745 1.46172 -2.40974e-19)
(1.46696 0.684054 0)
(1.44475 0.0864626 -4.8875e-19)
(1.47051 -0.323403 1.37703e-18)
(1.52414 -0.569809 -9.71722e-19)
(1.58676 -0.695222 3.47161e-19)
(1.65236 -0.752338 -4.10851e-19)
(2.65831 4.37612 -3.93091e-19)
(2.33898 4.21492 0)
(2.17652 3.63343 -4.28941e-19)
(1.91253 2.82371 3.17441e-19)
(1.6907 1.92337 -4.56462e-19)
(1.54279 1.09582 0)
(1.47065 0.424516 1.41217e-18)
(1.46169 -0.0633421 -1.04431e-18)
(1.49874 -0.379265 0)
(1.5637 -0.558677 6.11246e-19)
(1.64509 -0.651793 3.88449e-19)
(2.74813 4.33893 3.86293e-19)
(2.46347 4.27878 -2.24058e-18)
(2.3476 3.85624 2.16309e-18)
(2.09789 3.20321 0)
(1.84414 2.36518 1.34668e-18)
(1.64182 1.52389 -1.72729e-20)
(1.51539 0.799262 0)
(1.46461 0.244311 -6.30813e-19)
(1.47808 -0.137063 4.75214e-19)
(1.53985 -0.371468 -1.16845e-18)
(1.63488 -0.504051 -3.16484e-19)
(2.83387 4.29688 -2.98886e-18)
(2.57137 4.3078 2.33892e-18)
(2.49982 3.99187 0)
(2.27623 3.49703 -1.23232e-18)
(2.00884 2.76695 4.39295e-20)
(1.76074 1.95462 1.89545e-20)
(1.57838 1.20634 0)
(1.48003 0.602205 -6.21962e-19)
(1.46344 0.164571 3.31926e-20)
(1.5162 -0.122526 0)
(1.62442 -0.298688 7.05089e-19)
(2.90476 4.24698 1.15547e-18)
(2.65712 4.30896 0)
(2.62332 4.06548 0)
(2.42989 3.70562 -6.40626e-19)
(2.16783 3.10614 0)
(1.89051 2.3651 6.72862e-19)
(1.65826 1.63014 -9.13872e-19)
(1.51124 1.00361 6.87763e-19)
(1.46045 0.526391 4.35801e-19)
(1.4987 0.194786 -5.34188e-19)
(1.61281 -0.0230693 0)
(2.96552 4.18967 3.90555e-18)
(2.72594 4.28382 2.5694e-18)
(2.71317 4.0898 -6.47601e-20)
(2.55125 3.83945 1.24489e-18)
(2.30996 3.3752 -9.77131e-19)
(2.02201 2.73586 -1.36741e-18)
(1.75322 2.05234 1.40547e-18)
(1.5626 1.43582 -1.96233e-18)
(1.4781 0.942261 1.24804e-18)
(1.49938 0.579349 4.65143e-19)
(1.61893 0.320029 -2.75514e-19)
(3.01697 4.12239 2.31688e-18)
(2.78329 4.23719 -3.99899e-19)
(2.77787 4.07617 -6.50038e-20)
(2.64439 3.90878 -7.26591e-19)
(2.43321 3.5755 -1.46416e-18)
(2.15149 3.0547 1.0702e-18)
(1.86364 2.45233 -1.42402e-18)
(1.64108 1.87891 7.42641e-19)
(1.52791 1.39669 4.60107e-19)
(1.53185 1.02165 -5.18313e-19)
(1.65058 0.732086 0)
(3.05464 4.044 6.17316e-19)
(2.82376 4.17255 0)
(2.8198 4.03304 0)
(2.70319 3.91504 1.674e-18)
(2.53166 3.6989 -2.01677e-18)
(2.27692 3.31075 4.49382e-21)
(1.98713 2.80583 -4.89786e-19)
(1.7502 2.30408 0)
(1.62052 1.86026 3.83091e-19)
(1.61253 1.49358 -2.82873e-19)
(1.72134 1.19477 -2.70998e-19)
(3.08142 3.95536 -3.06637e-21)
(2.84903 4.0913 0)
(2.84315 3.96753 0)
(2.73961 3.88318 -3.52807e-19)
(2.59696 3.73832 1.50398e-18)
(2.39369 3.48673 -7.44437e-19)
(2.1223 3.0928 5.06211e-19)
(1.89015 2.67776 0)
(1.76095 2.29502 0)
(1.75249 1.95667 0)
(1.8655 1.65059 2.74162e-19)
(3.09276 3.85542 -2.31676e-19)
(2.85679 3.99246 -2.57445e-18)
(2.84654 3.88293 2.03398e-18)
(2.75806 3.82462 0)
(2.64506 3.72519 0)
(2.4864 3.55942 3.75623e-19)
(2.26691 3.29221 0)
(2.05614 2.96427 0)
(1.94588 2.65653 1.11976e-19)
(1.95054 2.36401 -2.40946e-19)
(2.07769 2.06883 5.19773e-19)
(3.07543 3.74304 -3.95934e-18)
(2.84266 3.8765 5.84512e-18)
(2.83395 3.7876 -2.18312e-18)
(2.76923 3.744 0)
(2.68855 3.66719 -1.07973e-18)
(2.57073 3.54534 1.56139e-18)
(2.40265 3.36321 -4.10492e-20)
(2.23541 3.12286 -3.78078e-19)
(2.15915 2.88787 -5.96538e-19)
(2.19292 2.64626 3.25478e-19)
(2.34784 2.36375 -5.85884e-20)
(3.02536 3.61627 -4.57366e-18)
(2.81129 3.7631 6.59647e-18)
(2.83333 3.68199 -2.43887e-18)
(2.79864 3.63402 0)
(2.74695 3.54484 2.96388e-19)
(2.65157 3.4189 -8.13548e-19)
(2.52134 3.26874 5.92714e-19)
(2.40398 3.09013 0)
(2.36838 2.90155 -2.29974e-19)
(2.44425 2.69053 1.88407e-19)
(2.63771 2.42271 -2.6642e-20)
(2.9063 3.58171 -8.26857e-20)
(2.88946 3.62657 -4.11907e-18)
(2.88602 3.53331 -2.78283e-18)
(2.85402 3.41663 2.03062e-18)
(2.80239 3.2747 -3.40738e-19)
(2.70754 3.1221 -4.5416e-19)
(2.59227 2.96549 -3.15966e-19)
(2.50753 2.7964 2.2517e-19)
(2.51038 2.60351 -2.00245e-20)
(2.63037 2.36697 1.42112e-20)
(2.85275 2.03144 -3.49508e-19)
(2.36624 2.20422 -7.43884e-18)
(2.32101 2.66984 5.15053e-18)
(2.55866 2.55635 -3.96755e-19)
(2.67612 2.50976 1.08436e-18)
(2.71781 2.47465 -7.63442e-19)
(2.69257 2.40187 -2.62339e-19)
(2.62229 2.28411 -5.19516e-19)
(2.56197 2.12398 -3.29961e-20)
(2.57157 1.923 8.05307e-19)
(2.68065 1.67581 -1.34948e-20)
(2.88129 1.37116 -3.07237e-20)
(4.11884 2.75437 6.87289e-19)
(3.48718 2.43874 -2.08127e-19)
(3.18545 1.66609 2.10223e-19)
(2.90753 1.10917 -7.00511e-19)
(2.6467 0.739607 -9.59404e-20)
(2.4108 0.487942 -5.13838e-19)
(2.2017 0.309794 -1.06001e-19)
(2.01776 0.178294 3.05882e-19)
(1.85728 0.0768509 1.46137e-20)
(1.71817 -0.00284047 -1.77432e-19)
(1.59854 -0.0606775 5.46703e-20)
(0.63079 3.20627 -4.15283e-19)
(1.64861 2.80146 -3.14387e-18)
(2.0348 2.34346 2.25521e-18)
(2.20307 1.7841 4.5944e-19)
(2.22522 1.30403 4.36291e-20)
(2.15552 0.922613 1.91916e-19)
(2.0381 0.633679 2.39574e-19)
(1.90271 0.418924 -1.47043e-19)
(1.76802 0.258265 4.65661e-20)
(1.64325 0.136905 1.03599e-19)
(1.53215 0.0510143 0)
(-0.408322 2.59783 -1.88134e-19)
(0.339073 2.2923 0)
(0.852768 2.26776 0)
(1.35236 2.00422 2.40345e-18)
(1.65517 1.62478 -2.1271e-18)
(1.77321 1.23721 1.00543e-18)
(1.78154 0.905375 -6.33873e-19)
(1.72618 0.639828 2.57709e-19)
(1.64031 0.433636 -1.88885e-19)
(1.54535 0.275512 -3.41761e-20)
(1.45248 0.161718 1.58008e-20)
(-0.669296 1.97164 -8.3933e-20)
(-0.0326283 1.67069 -9.90335e-20)
(0.200955 1.8373 0)
(0.599551 1.79071 2.23743e-18)
(0.972822 1.62544 -3.07948e-18)
(1.2719 1.36805 1.01933e-18)
(1.43578 1.07796 0)
(1.49155 0.806018 0)
(1.47797 0.577186 0)
(1.42648 0.395805 0)
(1.35456 0.266115 0)
(-0.649299 1.44571 1.42626e-18)
(-0.129184 1.14986 7.73947e-19)
(-0.0421119 1.37017 -1.96385e-18)
(0.25738 1.4245 0)
(0.563754 1.40001 8.15632e-19)
(0.846081 1.28144 1.40968e-20)
(1.0615 1.09546 -8.33265e-19)
(1.19581 0.882246 0)
(1.25867 0.674251 -1.4216e-19)
(1.26906 0.490996 4.00625e-19)
(1.23929 0.348354 -2.22606e-19)
(-0.537819 1.05061 1.3019e-20)
(-0.124909 0.763375 -1.88402e-19)
(-0.121492 0.974105 1.74997e-19)
(0.103122 1.05494 0)
(0.339946 1.09824 2.4286e-19)
(0.586364 1.07057 0)
(0.803582 0.975577 -5.74248e-19)
(0.966467 0.834074 6.07775e-19)
(1.06949 0.672503 1.21235e-19)
(1.11885 0.515624 -4.7578e-20)
(1.11928 0.387341 2.77936e-19)
(-0.388655 0.765403 -1.19707e-20)
(-0.0682613 0.48649 -3.43339e-19)
(-0.111704 0.668653 3.26094e-19)
(0.0618795 0.745363 -5.431e-19)
(0.23554 0.813464 -7.74898e-20)
(0.433714 0.83332 5.35009e-19)
(0.626611 0.800244 -2.46585e-19)
(0.790864 0.720084 0)
(0.914871 0.608599 4.55069e-19)
(0.992801 0.486965 -3.34854e-19)
(1.0219 0.381819 -1.76283e-19)
(-0.24243 0.559324 2.23045e-19)
(-0.000690039 0.292776 -8.9324e-20)
(-0.064042 0.441029 -2.2796e-20)
(0.0811066 0.50394 0)
(0.206359 0.57655 -2.3376e-19)
(0.362068 0.616307 -4.1065e-19)
(0.523298 0.618454 1.05987e-18)
(0.673987 0.580431 -4.70739e-19)
(0.800933 0.508725 -2.15307e-19)
(0.892975 0.418428 0)
(0.942213 0.333528 8.69844e-20)
(-0.105951 0.395954 0)
(0.0701128 0.147156 -1.50458e-19)
(-0.00193078 0.269642 -3.86934e-20)
(0.129202 0.317354 9.83204e-20)
(0.217566 0.389233 -3.1803e-20)
(0.341148 0.434898 -1.09885e-19)
(0.472809 0.454787 -1.3385e-20)
(0.603821 0.442767 1.93996e-19)
(0.722535 0.399676 -3.27352e-20)
(0.819604 0.334863 2.43223e-20)
(0.883614 0.270176 -4.37724e-20)
(0.0291125 0.266348 5.55566e-19)
(0.139878 0.0225504 4.04496e-19)
(0.0710213 0.139114 -8.81863e-20)
(0.18842 0.171526 -4.46066e-19)
(0.25041 0.242884 0)
(0.349553 0.289423 -1.26292e-19)
(0.455135 0.317849 2.37848e-20)
(0.56444 0.320326 -7.92034e-20)
(0.669888 0.294892 -4.53254e-20)
(0.765325 0.245659 -5.91364e-20)
(0.836415 0.190933 2.97641e-20)
(0.138636 0.187338 1.95728e-19)
(0.219016 -0.0744931 0)
(0.163937 0.0321788 -6.21504e-19)
(0.25075 0.0624042 4.85875e-19)
(0.297855 0.129863 0)
(0.374834 0.176645 -2.39777e-19)
(0.456317 0.209039 -5.72854e-20)
(0.543332 0.21873 -7.22065e-20)
(0.631842 0.202423 7.60302e-20)
(0.719363 0.160193 0)
(0.792052 0.106102 1.50002e-19)
(0.242687 0.138198 -4.04154e-19)
(0.307587 -0.134775 0)
(0.253489 -0.0462071 9.75675e-19)
(0.319485 -0.0153465 -5.94814e-19)
(0.353546 0.0478635 -2.07963e-19)
(0.410057 0.0940869 4.34277e-19)
(0.468628 0.127698 -1.76965e-19)
(0.532562 0.139744 1.572e-19)
(0.600706 0.126247 0)
(0.67527 0.0847635 -3.89608e-19)
(0.745696 0.0265399 3.65746e-20)
(0.348399 0.105549 2.1039e-19)
(0.401618 -0.174654 1.62551e-19)
(0.342647 -0.0983689 4.19301e-19)
(0.393226 -0.0663108 -6.85514e-19)
(0.414475 -0.00575441 2.06607e-19)
(0.451792 0.0399393 0)
(0.48824 0.07311 0)
(0.528227 0.0838658 0)
(0.572886 0.0677088 0)
(0.628686 0.0212935 2.18556e-19)
(0.683052 -0.0444989 1.70739e-19)
(0.466674 0.0942104 1.22004e-19)
(0.506489 -0.190114 -8.23777e-19)
(0.438646 -0.12647 6.28381e-19)
(0.472256 -0.092192 0)
(0.48073 -0.0336062 0)
(0.499323 0.0118685 1.57072e-19)
(0.514515 0.0433186 1.12881e-19)
(0.530448 0.0499177 -5.32377e-19)
(0.549903 0.0263928 2.60526e-19)
(0.584001 -0.0310102 -2.59542e-20)
(0.625079 -0.112893 -1.20386e-19)
(0.590057 0.111076 8.84518e-19)
(0.61199 -0.176949 7.1163e-19)
(0.537893 -0.128256 -5.65099e-19)
(0.555745 -0.093316 8.69487e-19)
(0.552284 -0.0370104 -5.98803e-19)
(0.553176 0.00787681 5.95667e-19)
(0.548481 0.0361905 -4.47054e-19)
(0.54163 0.0358304 0)
(0.536862 5.321e-06 2.84166e-19)
(0.547338 -0.0741824 8.35546e-20)
(0.576058 -0.181938 0)
(0.716405 0.144988 0)
(0.720658 -0.140783 4.92797e-20)
(0.642153 -0.106325 1.78996e-19)
(0.645177 -0.0713636 -1.58259e-19)
(0.630607 -0.0174235 0)
(0.615433 0.0262321 -4.43328e-19)
(0.592794 0.050145 4.2689e-19)
(0.565642 0.0405383 0)
(0.539783 -0.0114795 8.96253e-20)
(0.528936 -0.107718 -4.67344e-20)
(0.549893 -0.244924 0)
(0.849687 0.197385 0)
(0.838599 -0.0817983 -2.46811e-20)
(0.756121 -0.0612707 -3.8217e-20)
(0.744733 -0.0271747 5.0522e-19)
(0.71967 0.0242089 -3.0486e-19)
(0.690448 0.0658668 3.17785e-20)
(0.652559 0.0842434 2.67716e-19)
(0.608956 0.0634869 -3.03894e-19)
(0.567261 -0.00772752 -4.00389e-20)
(0.541515 -0.131341 7.01825e-20)
(0.553992 -0.303413 -3.40054e-19)
(0.990254 0.27274 2.42135e-18)
(0.966537 0.00298542 -1.06123e-18)
(0.881892 0.00903377 0)
(0.858301 0.04037 0)
(0.824619 0.0884737 -4.46872e-20)
(0.784447 0.12723 -3.27088e-20)
(0.735157 0.13919 0)
(0.68045 0.106044 3.48672e-20)
(0.629818 0.0141093 1.71889e-19)
(0.597437 -0.13907 -7.71959e-20)
(0.613951 -0.345284 3.48944e-19)
(1.13783 0.368407 -1.50342e-18)
(1.10555 0.112893 1.21129e-19)
(1.02248 0.105307 1.83584e-19)
(0.990828 0.132747 5.28541e-19)
(0.951952 0.177324 -7.94259e-19)
(0.905194 0.212857 -2.86757e-19)
(0.84976 0.218261 4.29398e-21)
(0.791114 0.172642 4.08988e-19)
(0.741476 0.0603783 -1.38577e-19)
(0.716908 -0.12166 -4.13925e-19)
(0.743754 -0.36033 -2.26003e-19)
(1.29324 0.480701 1.86468e-19)
(1.2585 0.246681 0)
(1.18224 0.228398 5.94473e-19)
(1.14805 0.252548 -2.04017e-20)
(1.10857 0.294693 -5.22927e-21)
(1.06058 0.327919 4.77309e-19)
(1.00542 0.327872 1.77571e-19)
(0.951462 0.271433 -3.85899e-19)
(0.913996 0.141944 -5.47084e-19)
(0.910433 -0.0641953 1.64963e-19)
(0.961424 -0.331018 -7.62563e-19)
(1.45589 0.608789 0)
(1.42737 0.40413 -9.26988e-19)
(1.36389 0.380651 9.29455e-19)
(1.33355 0.404443 0)
(1.29861 0.447034 -2.40462e-19)
(1.25494 0.48034 -1.73106e-19)
(1.20692 0.477454 0)
(1.167 0.414143 9.91812e-19)
(1.15391 0.274476 1.03457e-18)
(1.18619 0.0563678 1.3529e-18)
(1.26363 -0.223562 1.30803e-18)
(1.62636 0.745608 1.57338e-18)
(1.61132 0.584069 -1.53287e-18)
(1.56711 0.564727 1.07197e-18)
(1.54628 0.593967 1.81672e-19)
(1.51986 0.641447 -1.39836e-19)
(1.48521 0.678256 -3.952e-19)
(1.45069 0.676198 0)
(1.43376 0.611878 -4.12123e-19)
(1.4572 0.472404 -9.75115e-19)
(1.54344 0.259187 -2.0101e-18)
(1.66446 -0.0241593 3.60848e-19)
(1.77592 0.92686 4.3164e-18)
(1.80502 0.803999 4.77238e-19)
(1.78091 0.797273 -7.06203e-19)
(1.77328 0.835037 -4.69769e-19)
(1.75965 0.889004 -6.43294e-19)
(1.73846 0.931103 4.57872e-19)
(1.72182 0.93333 1.34571e-18)
(1.73188 0.874864 5.19302e-19)
(1.79383 0.747287 -1.83493e-18)
(1.9284 0.554012 -3.55932e-20)
(2.09308 0.281018 7.55155e-19)
(2.10328 0.894429 3.33622e-18)
(2.09138 0.980164 -2.90951e-18)
(2.06152 1.02634 -9.28768e-19)
(2.04625 1.10622 3.05451e-19)
(2.03176 1.1981 1.22709e-18)
(2.01943 1.26926 -2.85891e-19)
(2.0238 1.2897 -9.0987e-21)
(2.06453 1.24104 -5.6891e-19)
(2.15947 1.12 1.68782e-20)
(2.32886 0.951389 5.89819e-19)
(2.54159 0.723712 0)
(7.18285 -2.36521 0)
(6.33103 -2.21902 -2.00237e-19)
(5.93234 -1.82349 -8.9761e-20)
(5.62765 -1.48876 -9.24874e-20)
(5.3247 -1.21065 -3.92992e-20)
(5.03515 -0.988634 -4.52819e-20)
(4.7729 -0.817925 3.50968e-20)
(4.53275 -0.685243 2.62589e-20)
(4.3125 -0.579675 -9.19025e-20)
(4.1118 -0.495344 1.72621e-19)
(3.93238 -0.440521 -6.9069e-20)
(4.93081 -3.70948 3.08495e-19)
(5.03808 -3.33503 0)
(5.1292 -2.80933 0)
(5.11302 -2.30923 -4.02115e-19)
(5.00263 -1.88112 2.42276e-19)
(4.83148 -1.5317 2.04319e-19)
(4.63425 -1.25503 1.74054e-19)
(4.43233 -1.03897 -5.50545e-21)
(4.23627 -0.869929 -5.8715e-20)
(4.05124 -0.738416 -1.31842e-19)
(3.88156 -0.645894 0)
(3.42498 -3.74767 5.21836e-18)
(3.90588 -3.5306 -7.33577e-18)
(4.21538 -3.2304 4.78918e-18)
(4.4183 -2.82632 -1.79107e-18)
(4.50118 -2.40352 -1.14804e-18)
(4.48173 -2.00782 7.22303e-19)
(4.39106 -1.66416 -1.76409e-19)
(4.2599 -1.37994 0)
(4.11096 -1.15065 3.3459e-19)
(3.95889 -0.967995 -7.21684e-20)
(3.8127 -0.832109 -4.27077e-20)
(2.46131 -3.3334 4.92237e-18)
(3.014 -3.32639 3.56552e-18)
(3.41743 -3.23867 -2.63217e-18)
(3.72285 -2.99971 1.05101e-19)
(3.92827 -2.67841 0)
(4.03298 -2.32522 0)
(4.05234 -1.98009 0)
(4.01094 -1.66843 -3.94645e-19)
(3.93115 -1.40081 2.56102e-19)
(3.82825 -1.17986 -2.92094e-19)
(3.70795 -1.01329 3.53951e-19)
(2.13963 -3.08562 4.34222e-18)
(2.469 -3.06149 -6.71195e-18)
(2.7505 -3.06255 2.75715e-18)
(3.08824 -2.96789 0)
(3.37175 -2.76899 0)
(3.56745 -2.49251 0)
(3.67217 -2.18457 1.19239e-18)
(3.70062 -1.88302 -8.42523e-19)
(3.67702 -1.60659 2.9215e-19)
(3.62323 -1.36174 0)
(3.55223 -1.15729 5.14119e-19)
(1.98492 -2.86428 1.94728e-18)
(2.22667 -2.83883 -2.34602e-18)
(2.39743 -2.8669 -5.58827e-19)
(2.62842 -2.81895 2.10497e-18)
(2.86251 -2.6988 -1.29509e-18)
(3.07429 -2.5065 4.667e-19)
(3.24054 -2.2621 0)
(3.34763 -1.99494 0)
(3.39915 -1.72892 -2.86162e-19)
(3.40618 -1.48267 -4.13329e-19)
(3.37866 -1.27506 -2.34234e-19)
(1.87106 -2.66551 0)
(2.05432 -2.623 2.31023e-18)
(2.17884 -2.6515 -3.30717e-18)
(2.36317 -2.62166 1.17018e-18)
(2.55592 -2.54335 5.91482e-19)
(2.74403 -2.40721 -4.49755e-19)
(2.90844 -2.22036 -6.50983e-19)
(3.03653 -2.00105 0)
(3.12359 -1.76884 0)
(3.17094 -1.54248 -2.17168e-20)
(3.17928 -1.34224 -2.68833e-19)
(1.75359 -2.50162 0)
(1.9053 -2.43541 -2.85745e-19)
(2.00706 -2.4502 -2.65454e-20)
(2.15388 -2.42529 -3.48092e-19)
(2.313 -2.36531 -5.6847e-19)
(2.47595 -2.26267 4.13413e-19)
(2.63046 -2.119 1.5316e-20)
(2.7654 -1.94361 0)
(2.87352 -1.74911 -1.94715e-20)
(2.95061 -1.5515 7.92708e-19)
(2.98985 -1.37441 -6.03777e-19)
(1.6486 -2.35233 3.26225e-19)
(1.78293 -2.27082 2.14599e-18)
(1.8666 -2.27336 -3.73602e-18)
(1.98959 -2.24706 3.22324e-19)
(2.12414 -2.19447 1.53428e-18)
(2.26545 -2.11008 -1.18333e-18)
(2.40613 -1.9942 1.75054e-18)
(2.53808 -1.85161 -8.7328e-19)
(2.65447 -1.68936 6.08613e-19)
(2.74885 -1.51857 8.25946e-19)
(2.8104 -1.35999 0)
(1.56457 -2.2158 -3.13248e-19)
(1.68313 -2.12088 4.83407e-19)
(1.75027 -2.11483 3.6773e-19)
(1.85559 -2.08608 0)
(1.97178 -2.03651 4.80386e-19)
(2.09592 -1.9621 0)
(2.2235 -1.86327 0)
(2.34884 -1.74295 -7.82146e-19)
(2.46635 -1.6049 0)
(2.56897 -1.45591 -1.59924e-18)
(2.64232 -1.31141 5.46884e-19)
(1.4973 -2.09994 -2.73533e-19)
(1.59658 -1.98822 -4.44197e-19)
(1.64985 -1.97224 -3.5742e-19)
(1.74147 -1.93918 -1.364e-18)
(1.84361 -1.88965 1.71284e-18)
(1.95456 -1.82032 -3.41906e-19)
(2.07138 -1.73188 0)
(2.19003 -1.62667 1.4988e-18)
(2.30627 -1.50692 -1.07725e-18)
(2.41351 -1.37767 1.16724e-18)
(2.49391 -1.25599 -5.38959e-19)
(1.43014 -1.99633 2.65767e-19)
(1.50951 -1.86916 4.10966e-19)
(1.556 -1.84178 -3.12499e-19)
(1.63904 -1.80266 -9.96923e-19)
(1.7315 -1.75085 7.88489e-19)
(1.83309 -1.68329 -6.10895e-19)
(1.94201 -1.60092 0)
(2.05536 -1.50592 -6.77784e-19)
(2.17003 -1.39985 5.07116e-19)
(2.28034 -1.286 1.05868e-18)
(2.36836 -1.17769 -5.14465e-19)
(1.36077 -1.88973 -1.09234e-18)
(1.42419 -1.75199 5.69765e-19)
(1.46696 -1.71568 -2.90062e-19)
(1.54417 -1.67123 1.17708e-18)
(1.63014 -1.61646 -1.08248e-18)
(1.72563 -1.54877 -2.68136e-19)
(1.82959 -1.4696 8.63162e-19)
(1.93988 -1.38123 -6.43157e-19)
(2.05412 -1.28478 -4.77406e-19)
(2.16748 -1.18145 0)
(2.26145 -1.07919 -4.50345e-19)
(1.29887 -1.78792 1.03197e-18)
(1.34704 -1.63654 -1.42583e-18)
(1.38386 -1.59147 5.57204e-19)
(1.45542 -1.54167 -1.07601e-18)
(1.53659 -1.48336 1.69553e-18)
(1.62846 -1.41427 2.40886e-19)
(1.73016 -1.33642 1.987e-19)
(1.8397 -1.25249 0)
(1.95484 -1.16363 0)
(2.07116 -1.07015 0)
(2.16787 -0.980275 0)
(1.23635 -1.69175 0)
(1.26674 -1.52479 0)
(1.30153 -1.46832 -6.25219e-20)
(1.37042 -1.41154 2.08793e-19)
(1.44937 -1.34846 0)
(1.54024 -1.27681 2.20399e-19)
(1.64235 -1.19913 -5.44267e-19)
(1.75368 -1.11862 0)
(1.87161 -1.03666 0)
(1.99187 -0.952639 1.26782e-19)
(2.09404 -0.871121 -1.80731e-19)
(1.17296 -1.58602 0)
(1.18549 -1.40709 -6.27803e-19)
(1.22071 -1.34034 5.51603e-19)
(1.28874 -1.27668 0)
(1.36764 -1.20824 -3.33413e-20)
(1.46016 -1.13333 -2.49675e-20)
(1.56563 -1.05537 -3.10966e-19)
(1.68155 -0.978307 2.09594e-19)
(1.80429 -0.903802 -3.6489e-19)
(1.92958 -0.830044 9.02406e-20)
(2.0362 -0.758455 3.45444e-19)
(1.11549 -1.47589 7.4212e-19)
(1.10968 -1.28298 -5.93228e-19)
(1.14402 -1.20536 -4.40534e-19)
(1.21102 -1.13407 6.35975e-19)
(1.29147 -1.05939 -2.24406e-19)
(1.38845 -0.980621 6.82817e-20)
(1.50068 -0.902659 -3.0099e-19)
(1.62425 -0.830364 2.31569e-19)
(1.75362 -0.765396 3.87712e-20)
(1.88409 -0.704439 7.40084e-20)
(1.99354 -0.645267 0)
(1.05979 -1.36561 -6.92905e-19)
(1.03229 -1.15532 6.17717e-19)
(1.06832 -1.06269 0)
(1.13675 -0.980869 3.33885e-19)
(1.22204 -0.898009 -1.28478e-19)
(1.32759 -0.814962 -4.38784e-20)
(1.45063 -0.738526 3.17735e-20)
(1.5849 -0.674114 1.51347e-19)
(1.72217 -0.622429 -1.17897e-19)
(1.85737 -0.577772 3.82699e-20)
(1.96899 -0.532872 -4.62145e-22)
(1.00555 -1.24375 7.4051e-19)
(0.953237 -1.01686 -1.05444e-18)
(0.994762 -0.906045 3.68529e-19)
(1.06793 -0.811303 -2.43996e-19)
(1.16283 -0.719142 8.64228e-20)
(1.28226 -0.632889 -1.00695e-19)
(1.4205 -0.561476 0)
(1.56799 -0.51029 -7.25592e-20)
(1.71283 -0.477327 0)
(1.85056 -0.453174 1.12045e-19)
(1.9624 -0.425098 0)
(0.956341 -1.10303 5.04331e-19)
(0.875329 -0.86063 -3.59896e-19)
(0.927748 -0.727452 1.56022e-19)
(1.01158 -0.617415 -2.06927e-19)
(1.12393 -0.516299 0)
(1.26435 -0.431451 8.53054e-20)
(1.42199 -0.372961 1.38058e-20)
(1.58185 -0.343528 4.89663e-20)
(1.72984 -0.335582 0)
(1.86326 -0.335429 -1.38234e-19)
(1.97112 -0.325967 4.33512e-20)
(0.911651 -0.947152 0)
(0.804652 -0.675553 -9.75693e-20)
(0.875501 -0.51601 2.05823e-19)
(0.981151 -0.390401 -1.98394e-20)
(1.12131 -0.286078 -2.66508e-20)
(1.28952 -0.213775 -3.6015e-21)
(1.46629 -0.181169 0)
(1.63244 -0.183494 -7.58156e-20)
(1.77513 -0.205926 -9.48756e-21)
(1.89514 -0.231263 1.20464e-20)
(1.99154 -0.241618 4.58293e-20)
(0.909626 -0.693739 -1.41302e-19)
(0.728946 -0.445624 1.04772e-19)
(0.862493 -0.257591 6.09295e-20)
(1.00617 -0.12538 0)
(1.18377 -0.0349022 0)
(1.37884 0.00499636 1.45795e-19)
(1.56467 -0.0037182 1.64601e-19)
(1.72295 -0.0454844 -1.15096e-20)
(1.84736 -0.0994051 8.39986e-20)
(1.94401 -0.147686 -3.93765e-21)
(2.02179 -0.176097 0)
(0.795824 -0.637378 2.49602e-19)
(0.789359 -0.192096 0)
(0.922061 0.0205075 1.65059e-19)
(1.12413 0.144256 0)
(1.33963 0.195372 -1.11082e-19)
(1.54508 0.183037 3.82247e-21)
(1.71699 0.125833 -2.41612e-19)
(1.8474 0.0479458 0)
(1.93969 -0.0296814 -4.3277e-20)
(2.00419 -0.0924516 0)
(2.05408 -0.129759 -5.60443e-20)
(1.82611 0.591754 1.53576e-19)
(0.998462 0.444905 2.46477e-19)
(1.44442 0.51549 -4.68234e-19)
(1.60011 0.479692 -3.25765e-19)
(1.74191 0.409713 5.22663e-19)
(1.86371 0.311224 0)
(1.9536 0.19934 0)
(2.01561 0.0918521 0)
(2.05341 -0.000823368 0)
(2.07317 -0.0702666 0)
(2.08763 -0.109598 -3.84679e-20)
(6.58162 -0.991693 1.13053e-18)
(5.33852 -0.535174 2.21166e-19)
(5.65199 -0.633057 1.36932e-18)
(5.77673 -0.669307 -8.9967e-19)
(5.59392 -0.603662 -2.66996e-19)
(5.26514 -0.513794 2.40065e-19)
(4.94103 -0.437028 2.81984e-19)
(4.64996 -0.364946 -1.01371e-19)
(4.39447 -0.304991 0)
(4.16557 -0.262559 5.12608e-20)
(3.96409 -0.243548 5.74825e-20)
(4.41435 -1.6941 -1.27473e-20)
(3.92986 -0.893924 0)
(4.63233 -0.465735 0)
(5.1444 -0.268976 4.48821e-19)
(5.33736 -0.140454 3.74428e-19)
(5.29529 -0.0576432 9.48854e-20)
(5.09532 -0.0229402 -1.28823e-19)
(4.77978 -0.00921076 -2.36002e-19)
(4.4689 -0.00348395 1.31538e-19)
(4.20939 -0.00115715 -9.51025e-20)
(3.99053 -0.0151292 0)
(3.0762 -4.29168 -4.42019e-18)
(3.47567 -2.39117 0)
(3.98009 -1.21462 0)
(4.47258 -0.51487 -5.56942e-19)
(4.84822 -0.0659161 -8.27151e-19)
(5.04317 0.210833 3.94772e-19)
(5.03793 0.342556 5.08127e-19)
(4.83942 0.371194 4.33433e-20)
(4.53352 0.337877 -4.35545e-19)
(4.22099 0.288484 -1.56087e-19)
(3.98483 0.232464 2.81102e-19)
(3.50797 -5.34487 -4.96435e-18)
(3.41464 -4.17774 -7.4456e-19)
(3.63846 -2.49126 0)
(4.00879 -1.27652 6.99209e-19)
(4.39441 -0.406426 0)
(4.68955 0.18652 0)
(4.82409 0.538065 -8.28413e-19)
(4.7607 0.688556 1.30717e-19)
(4.53181 0.688261 4.15349e-19)
(4.22089 0.609772 -3.544e-19)
(3.93513 0.502847 0)
(3.66699 -5.47057 8.94211e-19)
(3.53868 -4.96854 -2.75025e-18)
(3.50895 -3.75681 4.60334e-18)
(3.729 -2.25074 -1.4728e-18)
(4.0481 -1.02523 0)
(4.34895 -0.0980753 3.38048e-19)
(4.54631 0.532997 2.63207e-19)
(4.57926 0.884945 -3.32789e-20)
(4.43734 0.994969 -1.32445e-19)
(4.16579 0.937968 4.57121e-19)
(3.85831 0.801762 7.0464e-20)
(3.80793 -5.71123 -3.47791e-18)
(3.73674 -5.2976 6.34695e-19)
(3.62247 -4.63186 -4.81929e-19)
(3.62305 -3.26381 0)
(3.82203 -1.81034 -2.84353e-19)
(4.06895 -0.579919 -4.12655e-19)
(4.26459 0.345829 -1.07724e-18)
(4.3397 0.943656 3.27429e-19)
(4.26065 1.22386 2.52029e-19)
(4.03903 1.24524 -7.36157e-21)
(3.76059 1.10119 -2.54876e-19)
(3.94328 -5.97945 2.38755e-21)
(3.93738 -5.57778 -5.14538e-18)
(3.81408 -5.04098 2.04076e-18)
(3.71938 -4.17163 2.95741e-18)
(3.7302 -2.68721 3.43802e-19)
(3.86358 -1.21382 -1.41066e-18)
(4.00401 0.000581251 5.6449e-19)
(4.07033 0.865601 -7.79763e-19)
(4.0175 1.35545 -3.8984e-19)
(3.83268 1.50431 6.60925e-19)
(3.60642 1.39967 -2.18086e-19)
(4.06104 -6.25538 -3.21236e-18)
(4.1139 -5.87249 0)
(3.99586 -5.37777 3.6622e-18)
(3.86898 -4.64157 -2.81707e-18)
(3.75062 -3.46128 -3.97142e-19)
(3.73635 -1.91672 1.09467e-19)
(3.77481 -0.467937 9.64177e-19)
(3.78603 0.660734 -9.88774e-19)
(3.72025 1.37887 3.47737e-19)
(3.55375 1.6863 -5.78154e-19)
(3.35922 1.65477 2.6745e-19)
(4.16894 -6.51918 3.23304e-19)
(4.26229 -6.16127 0)
(4.13678 -5.7061 -2.79382e-19)
(4.0094 -5.02938 3.05283e-18)
(3.84039 -4.06484 -2.25657e-18)
(3.68223 -2.60472 -2.03924e-18)
(3.58086 -1.02086 1.87348e-18)
(3.4916 0.339975 -4.62574e-19)
(3.37245 1.28602 -1.73772e-18)
(3.19424 1.76708 7.36243e-19)
(3.0463 1.84043 5.10153e-19)
(4.26975 -6.75194 -4.01437e-19)
(4.38882 -6.42285 0)
(4.23995 -6.01314 -3.68368e-18)
(4.1051 -5.37598 3.27848e-18)
(3.90049 -4.4965 -2.05274e-18)
(3.6481 -3.21265 3.32913e-18)
(3.40753 -1.60029 0)
(3.18496 -0.0756038 7.28966e-19)
(2.97861 1.07549 -1.01624e-18)
(2.76622 1.72929 5.01655e-19)
(2.64119 1.92761 -1.9434e-19)
(4.34845 -6.93202 8.29244e-19)
(4.48462 -6.65016 4.68716e-18)
(4.29857 -6.29078 -9.56969e-19)
(4.14845 -5.70115 -3.37101e-18)
(3.91628 -4.89325 -6.84738e-19)
(3.59235 -3.76097 -1.12774e-18)
(3.23196 -2.18642 -1.92813e-18)
(2.86285 -0.571777 -1.29957e-18)
(2.54349 0.739817 1.79072e-18)
(2.27988 1.54856 1.27226e-18)
(2.14933 1.86801 2.84977e-18)
(4.37705 -7.09054 -8.308e-18)
(4.51784 -6.85376 1.12468e-17)
(4.31341 -6.52357 -2.09051e-18)
(4.13863 -5.99368 -3.60821e-18)
(3.87151 -5.26443 2.84937e-18)
(3.48904 -4.23934 0)
(3.03118 -2.76001 -4.10791e-18)
(2.51905 -1.12956 3.12664e-18)
(2.07588 0.279414 2.14562e-18)
(1.75448 1.21023 1.1278e-18)
(1.63053 1.63169 -3.27063e-18)
(4.38848 -7.21109 8.08323e-19)
(4.51095 -6.99569 0)
(4.2866 -6.70052 -1.06649e-18)
(4.06466 -6.24437 -3.66165e-18)
(3.75254 -5.60541 4.38749e-18)
(3.31951 -4.70173 0)
(2.76661 -3.37865 6.21525e-18)
(2.14933 -1.74783 -6.18058e-18)
(1.58882 -0.302663 0)
(1.20475 0.705553 -2.73884e-18)
(1.12498 1.23441 0)
(4.3794 -7.26617 2.40797e-18)
(4.44882 -7.08026 5.31149e-18)
(4.20702 -6.82777 -3.13237e-18)
(3.9353 -6.44046 5.41014e-18)
(3.56811 -5.89757 -4.40247e-18)
(3.0831 -5.13295 -5.15295e-18)
(2.45083 -4.0086 4.04348e-18)
(1.76889 -2.42816 0)
(1.1219 -0.999337 2.03464e-18)
(0.694536 0.0526927 1.05026e-18)
(0.622324 0.66425 -3.16232e-18)
(4.33325 -7.2618 1.54307e-18)
(4.32215 -7.11449 -1.21566e-18)
(4.06162 -6.8964 -1.04926e-18)
(3.73951 -6.57101 -1.74791e-18)
(3.32174 -6.11938 2.9651e-18)
(2.79633 -5.49875 -2.33867e-18)
(2.14772 -4.64356 0)
(1.41697 -3.19919 0)
(0.718316 -1.76378 0)
(0.284612 -0.722301 4.9641e-18)
(0.205203 -0.0613792 -2.90518e-18)
(4.24518 -7.19369 -7.69208e-19)
(4.13998 -7.08927 2.36566e-18)
(3.85236 -6.91089 9.18466e-19)
(3.48455 -6.65398 0)
(3.02442 -6.29537 0)
(2.46925 -5.79804 -4.55545e-18)
(1.82121 -5.10141 3.56015e-18)
(1.1385 -4.05208 2.6586e-18)
(0.463839 -2.68965 -2.56955e-19)
(0.020581 -1.57443 -2.05136e-18)
(-0.0417713 -0.884592 -5.07944e-20)
(4.0982 -7.04466 3.44121e-18)
(3.89412 -6.9859 -1.16538e-18)
(3.57072 -6.85836 -9.43201e-19)
(3.16292 -6.68498 -3.01361e-18)
(2.67893 -6.4408 2.37095e-18)
(2.13417 -6.08746 0)
(1.54523 -5.56346 0)
(0.932503 -4.77184 -4.42009e-18)
(0.358966 -3.662 -1.45068e-18)
(-0.0639543 -2.53492 3.68598e-18)
(-0.0708112 -1.76666 -8.70755e-19)
(3.86339 -6.80208 -1.25918e-18)
(3.56511 -6.78982 -4.45279e-19)
(3.19979 -6.73097 7.21061e-19)
(2.76325 -6.66405 0)