/*--------------------------------*- C++ -*----------------------------------*\
| =========                 |                                                 |
| \\      /  F ield         | OpenFOAM: The Open Source CFD Toolbox           |
|  \\    /   O peration     | Version:  3.0.1                                 |
|   \\  /    A nd           | Web:      www.OpenFOAM.org                      |
|    \\/     M anipulation  |                                                 |
\*---------------------------------------------------------------------------*/
FoamFile
{
    version     2.0;
    format      ascii;
    class       surfaceScalarField;
    location    "0.797693";
    object      phi;
}
// * * * * * * * * * * * * * * * * * * * * * * * * * * * * * * * * * * * * * //

dimensions      [0 3 -1 0 0 0 0];

internalField   nonuniform List<scalar> 
32369
(
-2.20034e-06
1.44487e-05
-1.22483e-05
-4.54274e-06
1.37733e-05
-1.14309e-05
-8.56167e-06
1.66122e-05
-1.25932e-05
-1.34873e-05
1.90823e-05
-1.41567e-05
-1.87428e-05
2.1439e-05
-1.61835e-05
-2.4342e-05
2.43743e-05
-1.87751e-05
-3.04452e-05
2.81397e-05
-2.20365e-05
-3.72874e-05
3.29802e-05
-2.61379e-05
-4.51388e-05
3.92039e-05
-3.13525e-05
-5.4325e-05
4.72456e-05
-3.80593e-05
5.76985e-05
-4.67343e-05
-6.52892e-05
3.26117e-06
1.11875e-05
4.21054e-06
1.28239e-05
2.87824e-06
1.79445e-05
-8.47501e-08
2.20453e-05
-4.46348e-06
2.58177e-05
-9.9215e-06
2.98324e-05
-1.6252e-05
3.44702e-05
-2.35295e-05
4.02576e-05
-3.19647e-05
4.76391e-05
-4.18506e-05
5.71314e-05
6.94192e-05
-5.35713e-05
2.56185e-06
8.62566e-06
3.73429e-06
1.16515e-05
4.25434e-06
1.74244e-05
3.58423e-06
2.27154e-05
1.29052e-06
2.81114e-05
-2.54176e-06
3.36646e-05
-7.66015e-06
3.95886e-05
-1.39336e-05
4.65311e-05
-2.14204e-05
5.51259e-05
-3.03171e-05
6.60281e-05
8.00696e-05
-4.09675e-05
2.08217e-06
6.54349e-06
2.93756e-06
1.07961e-05
3.90225e-06
1.64597e-05
4.26071e-06
2.23569e-05
3.51518e-06
2.8857e-05
1.44525e-06
3.57346e-05
-1.97338e-06
4.30072e-05
-6.6544e-06
5.12122e-05
-1.25472e-05
6.10187e-05
-1.9744e-05
7.3225e-05
8.8668e-05
-2.83424e-05
1.6297e-06
4.91379e-06
2.77009e-06
9.65569e-06
3.88954e-06
1.53403e-05
4.65606e-06
2.15904e-05
4.77795e-06
2.87351e-05
3.98602e-06
3.65265e-05
2.08127e-06
4.4912e-05
-9.7557e-07
5.4269e-05
-5.17744e-06
6.52205e-05
-1.05406e-05
7.85881e-05
9.53491e-05
-1.72217e-05
1.42529e-06
3.4885e-06
2.82385e-06
8.25713e-06
4.26888e-06
1.38953e-05
5.41018e-06
2.04491e-05
6.11752e-06
2.80277e-05
6.18342e-06
3.64606e-05
5.40729e-06
4.56881e-05
3.69635e-06
5.59799e-05
1.00583e-06
6.79111e-05
-2.69742e-06
8.22913e-05
0.000100168
-7.51614e-06
1.33926e-06
2.14923e-06
2.9583e-06
6.6381e-06
4.63368e-06
1.22199e-05
6.13644e-06
1.89463e-05
7.34445e-06
2.68197e-05
8.08705e-06
3.5718e-05
8.19376e-06
4.55814e-05
7.56535e-06
5.66083e-05
6.15349e-06
6.93229e-05
3.93379e-06
8.4511e-05
0.000103249
8.52477e-07
1.20018e-06
9.49057e-07
2.89817e-06
4.9401e-06
4.72039e-06
1.03977e-05
6.52541e-06
1.71413e-05
8.17595e-06
2.51692e-05
9.51134e-06
3.43826e-05
1.03802e-05
4.47125e-05
1.06895e-05
5.6299e-05
1.04008e-05
6.96116e-05
9.5312e-06
8.53806e-05
0.000104787
7.99288e-06
9.53901e-07
-4.84432e-09
2.5381e-06
3.3559e-06
4.48217e-06
8.45358e-06
6.59014e-06
1.50333e-05
8.67126e-06
2.30881e-05
1.05629e-05
3.2491e-05
1.21272e-05
4.31482e-05
1.32772e-05
5.5149e-05
1.40114e-05
6.88774e-05
1.43205e-05
8.50715e-05
0.000104867
1.42409e-05
4.98996e-07
-5.0384e-07
1.88137e-06
1.97352e-06
3.98683e-06
6.34813e-06
6.40223e-06
1.26179e-05
8.90732e-06
2.0583e-05
1.13385e-05
3.00598e-05
1.35554e-05
4.09313e-05
1.54821e-05
5.32223e-05
1.7107e-05
6.72525e-05
1.85006e-05
8.36779e-05
0.000103615
1.97531e-05
2.25408e-07
-7.29248e-07
1.31855e-06
8.8038e-07
3.28686e-06
4.37982e-06
5.83844e-06
1.00664e-05
8.67645e-06
1.7745e-05
1.15889e-05
2.71474e-05
1.44241e-05
3.80961e-05
1.70914e-05
5.05551e-05
1.95877e-05
6.47562e-05
2.19958e-05
8.12698e-05
0.000101053
2.45576e-05
1.34881e-07
-8.64129e-07
8.45411e-07
1.6985e-07
2.4718e-06
2.75343e-06
4.92892e-06
7.60924e-06
7.92913e-06
1.47448e-05
1.12085e-05
2.3868e-05
1.45827e-05
3.47219e-05
1.79524e-05
4.71853e-05
2.13105e-05
6.13981e-05
2.47789e-05
7.78014e-05
9.72381e-05
2.85936e-05
1.30724e-07
-9.94853e-07
5.80406e-07
-2.79832e-07
1.79148e-06
1.54235e-06
3.97626e-06
5.42446e-06
6.95977e-06
1.17613e-05
1.0457e-05
2.03708e-05
1.42471e-05
3.09318e-05
1.82079e-05
4.32245e-05
2.236e-05
5.7246e-05
2.68421e-05
7.33193e-05
9.2157e-05
3.19232e-05
1.13021e-07
-1.10787e-06
4.16483e-07
-5.83294e-07
1.29829e-06
6.60551e-07
3.10954e-06
3.61321e-06
5.8862e-06
8.9846e-06
9.41863e-06
1.68383e-05
1.34742e-05
2.68762e-05
1.79127e-05
3.8786e-05
2.27321e-05
5.24266e-05
2.80867e-05
6.79647e-05
8.59653e-05
3.42784e-05
8.14738e-08
-1.18935e-06
2.5686e-07
-7.5868e-07
8.57447e-07
5.99636e-08
2.22417e-06
2.24649e-06
4.60018e-06
6.60859e-06
7.93255e-06
1.3506e-05
1.2032e-05
2.27768e-05
1.67719e-05
3.40461e-05
2.21508e-05
4.70478e-05
2.8294e-05
6.18215e-05
7.86987e-05
3.55606e-05
4.12301e-08
-1.23058e-06
1.06332e-07
-8.23782e-07
4.64037e-07
-2.97741e-07
1.41066e-06
1.29987e-06
3.30407e-06
4.71517e-06
6.25233e-06
1.05577e-05
1.01839e-05
1.88453e-05
1.50042e-05
2.92258e-05
2.07278e-05
4.13242e-05
2.7538e-05
5.50113e-05
7.04226e-05
3.5814e-05
-1.1061e-08
-1.21952e-06
-4.05143e-08
-7.94329e-07
1.02882e-07
-4.41137e-07
6.69959e-07
7.32788e-07
2.06603e-06
3.3191e-06
4.52574e-06
8.09801e-06
8.09705e-06
1.52739e-05
1.27858e-05
2.4537e-05
1.86341e-05
3.5476e-05
2.58075e-05
4.78379e-05
6.16979e-05
3.45323e-05
-6.39386e-08
-1.15558e-06
-1.85729e-07
-6.72539e-07
-2.20086e-07
-4.06779e-07
-4.65271e-10
5.13167e-07
8.76486e-07
2.44215e-06
2.78854e-06
6.18595e-06
5.85116e-06
1.22113e-05
1.01827e-05
2.02054e-05
1.59017e-05
2.97569e-05
2.3167e-05
4.05726e-05
5.25692e-05
3.22957e-05
-1.20367e-07
-1.03521e-06
-3.263e-07
-4.66606e-07
-5.002e-07
-2.32879e-07
-5.32061e-07
5.45027e-07
-1.08661e-07
2.01875e-06
1.255e-06
4.82229e-06
3.77343e-06
9.69291e-06
7.62222e-06
1.63566e-05
1.30026e-05
2.43765e-05
2.01388e-05
3.34364e-05
4.3273e-05
2.94351e-05
-1.85085e-07
-8.50126e-07
-4.70792e-07
-1.809e-07
-7.54878e-07
5.12074e-08
-9.25133e-07
7.15283e-07
-7.58137e-07
1.85175e-06
1.50539e-07
3.91361e-06
2.1804e-06
7.66305e-06
5.51516e-06
1.30219e-05
1.03947e-05
1.9497e-05
1.70915e-05
2.67396e-05
3.4322e-05
2.60425e-05
-2.76188e-07
-5.73938e-07
-6.37399e-07
1.80312e-07
-9.76309e-07
3.90118e-07
-1.14726e-06
8.86233e-07
-9.76728e-07
1.68122e-06
-2.32977e-07
3.16986e-06
1.47627e-06
5.9538e-06
4.38609e-06
1.0112e-05
8.70932e-06
1.51737e-05
1.47956e-05
2.06534e-05
2.59129e-05
2.32046e-05
-5.29298e-07
-4.46398e-08
-8.96786e-07
5.47799e-07
-1.09785e-06
5.91182e-07
-1.00213e-06
7.90515e-07
-5.01406e-07
1.1805e-06
5.00325e-07
2.16813e-06
2.23319e-06
4.22094e-06
4.96614e-06
7.37909e-06
8.97023e-06
1.11696e-05
1.46836e-05
1.494e-05
1.80048e-05
2.25917e-05
-7.61555e-07
7.16916e-07
-7.38968e-07
5.25212e-07
-3.81218e-07
2.33431e-07
3.32438e-07
7.68583e-08
1.40604e-06
1.06899e-07
2.89419e-06
6.79979e-07
4.99509e-06
2.12003e-06
8.05631e-06
4.31787e-06
1.24803e-05
6.74561e-06
1.87769e-05
8.64344e-06
9.07443e-06
2.77073e-05
2.42816e-06
-1.71124e-06
4.08132e-06
-1.12795e-06
5.45198e-06
-1.13723e-06
6.73002e-06
-1.20118e-06
7.88009e-06
-1.04318e-06
9.22312e-06
-6.63053e-07
1.14015e-05
-5.83676e-08
1.49795e-05
7.39878e-07
2.02739e-05
1.45127e-06
2.75377e-05
1.37955e-06
-1.47419e-07
3.67596e-05
-1.05978e-05
-1.65053e-06
-1.77455e-05
-4.28322e-06
-2.35714e-05
-6.76728e-06
-2.86507e-05
-9.07736e-06
-3.34413e-05
-1.13929e-05
-3.83637e-05
-1.38527e-05
-4.37591e-05
-1.66412e-05
-4.99064e-05
-1.99906e-05
-5.70595e-05
-2.41994e-05
-6.54643e-05
-2.96545e-05
-3.68564e-05
-7.53422e-05
-5.51045e-06
3.85992e-06
-1.11142e-05
1.32052e-06
-1.72901e-05
-5.91395e-07
-2.32181e-05
-3.14929e-06
-2.90029e-05
-5.60821e-06
-3.49319e-05
-7.92366e-06
-4.13344e-05
-1.02386e-05
-4.85372e-05
-1.27879e-05
-5.68684e-05
-1.58682e-05
-6.66621e-05
-1.98608e-05
-2.5242e-05
-7.82764e-05
-2.25003e-06
6.10995e-06
-5.70821e-06
4.7787e-06
-1.05785e-05
4.2789e-06
-1.64609e-05
2.73306e-06
-2.28783e-05
8.0922e-07
-2.95966e-05
-1.20539e-06
-3.67625e-05
-3.07264e-06
-4.46975e-05
-4.85289e-06
-5.3764e-05
-6.80171e-06
-6.43126e-05
-9.31226e-06
-1.28427e-05
-7.67119e-05
-1.3877e-06
7.49766e-06
-3.68503e-06
7.07602e-06
-7.10439e-06
7.69827e-06
-1.17208e-05
7.34944e-06
-1.74665e-05
6.55494e-06
-2.41227e-05
5.45077e-06
-3.1545e-05
4.34966e-06
-3.97772e-05
3.37936e-06
-4.90264e-05
2.4475e-06
-5.96339e-05
1.29525e-06
-4.28464e-07
-7.20481e-05
-1.20143e-06
8.69909e-06
-3.15878e-06
9.03337e-06
-5.83388e-06
1.03734e-05
-9.39899e-06
1.09146e-05
-1.40371e-05
1.11931e-05
-1.97767e-05
1.11903e-05
-2.65454e-05
1.11184e-05
-3.43172e-05
1.11512e-05
-4.3209e-05
1.13393e-05
-5.34359e-05
1.15222e-05
1.14379e-05
-6.53023e-05
-1.05743e-06
9.75652e-06
-2.80856e-06
1.07845e-05
-5.03735e-06
1.26022e-05
-7.95717e-06
1.38344e-05
-1.1781e-05
1.50169e-05
-1.66317e-05
1.6041e-05
-2.25468e-05
1.70335e-05
-2.95349e-05
1.81392e-05
-3.76258e-05
1.94302e-05
-4.6971e-05
2.08674e-05
2.22742e-05
-5.78073e-05
-9.23237e-07
1.06798e-05
-2.44873e-06
1.231e-05
-4.34619e-06
1.44996e-05
-6.80097e-06
1.62892e-05
-9.99747e-06
1.82134e-05
-1.40701e-05
2.01137e-05
-1.91219e-05
2.20852e-05
-2.52025e-05
2.42198e-05
-3.23515e-05
2.65792e-05
-4.06676e-05
2.91835e-05
3.18767e-05
-5.02701e-05
-8.35422e-07
1.15152e-05
-2.17292e-06
1.36475e-05
-3.80539e-06
1.61321e-05
-5.87043e-06
1.83542e-05
-8.54233e-06
2.08853e-05
-1.19396e-05
2.3511e-05
-1.61827e-05
2.63284e-05
-2.13487e-05
2.93858e-05
-2.75255e-05
3.2756e-05
-3.47816e-05
3.64396e-05
4.02979e-05
-4.32029e-05
-7.28327e-07
1.22435e-05
-1.87454e-06
1.47937e-05
-3.22205e-06
1.74796e-05
-4.96144e-06
2.00936e-05
-7.16187e-06
2.30857e-05
-9.95765e-06
2.63067e-05
-1.3458e-05
2.98288e-05
-1.77682e-05
3.3696e-05
-2.29707e-05
3.79585e-05
-2.91279e-05
4.25968e-05
4.74547e-05
-3.62846e-05
-5.72086e-07
1.28156e-05
-1.54891e-06
1.57705e-05
-2.60015e-06
1.85308e-05
-4.01073e-06
2.15042e-05
-5.77456e-06
2.48496e-05
-8.00622e-06
2.85384e-05
-1.08114e-05
3.26339e-05
-1.4299e-05
3.71837e-05
-1.85619e-05
4.22214e-05
-2.37044e-05
4.77392e-05
5.36056e-05
-2.98553e-05
-4.04088e-07
1.32197e-05
-1.0567e-06
1.64231e-05
-1.85711e-06
1.93312e-05
-2.90487e-06
2.25519e-05
-4.22698e-06
2.61717e-05
-5.91455e-06
3.0226e-05
-8.05643e-06
3.47758e-05
-1.07476e-05
3.98748e-05
-1.41002e-05
4.5574e-05
-1.82385e-05
5.18776e-05
5.86625e-05
-2.32955e-05
-2.41041e-07
1.34607e-05
-6.77154e-07
1.68592e-05
-1.18964e-06
1.98437e-05
-1.87575e-06
2.3238e-05
-2.74157e-06
2.70375e-05
-3.85885e-06
3.13432e-05
-5.29715e-06
3.62141e-05
-7.15091e-06
4.17286e-05
-9.52963e-06
4.79527e-05
-1.25729e-05
5.49209e-05
6.25655e-05
-1.64759e-05
-5.80263e-08
1.35187e-05
-2.33526e-07
1.70347e-05
-4.54325e-07
2.00645e-05
-7.55744e-07
2.35394e-05
-1.15114e-06
2.74329e-05
-1.68045e-06
3.18726e-05
-2.39477e-06
3.69284e-05
-3.36388e-06
4.26977e-05
-4.70486e-06
4.92937e-05
-6.57655e-06
5.67926e-05
6.51229e-05
-9.13396e-06
2.03503e-07
1.33152e-05
3.21613e-07
1.69166e-05
4.28747e-07
1.99574e-05
5.22987e-07
2.34452e-05
6.12842e-07
2.7343e-05
6.86209e-07
3.17992e-05
7.25929e-07
3.68887e-05
6.74971e-07
4.27487e-05
4.41098e-07
4.95276e-05
-1.43662e-07
5.73773e-05
6.63205e-05
-1.34127e-06
3.78739e-07
1.29365e-05
7.68665e-07
1.65267e-05
1.21652e-06
1.95096e-05
1.73073e-06
2.2931e-05
2.33731e-06
2.67365e-05
3.05532e-06
3.10812e-05
3.88997e-06
3.6054e-05
4.82059e-06
4.1818e-05
5.77242e-06
4.85757e-05
6.61201e-06
5.65377e-05
6.58454e-05
7.08716e-06
5.85067e-07
1.23514e-05
1.26439e-06
1.58474e-05
2.06394e-06
1.871e-05
3.01084e-06
2.19841e-05
4.15001e-06
2.55973e-05
5.52669e-06
2.97045e-05
7.17783e-06
3.44029e-05
9.11408e-06
3.98818e-05
1.12974e-05
4.63924e-05
1.36015e-05
5.42336e-05
6.36502e-05
1.57967e-05
8.15487e-07
1.1536e-05
1.81225e-06
1.48506e-05
2.97775e-06
1.75445e-05
4.37208e-06
2.05898e-05
6.05225e-06
2.39171e-05
8.09343e-06
2.76633e-05
1.05625e-05
3.19339e-05
1.351e-05
3.69343e-05
1.69175e-05
4.29849e-05
2.06929e-05
5.04582e-05
5.97585e-05
2.45846e-05
1.03957e-06
1.04964e-05
2.3432e-06
1.3547e-05
3.88294e-06
1.60048e-05
5.72905e-06
1.87436e-05
7.95155e-06
2.16946e-05
1.06521e-05
2.49627e-05
1.39284e-05
2.86576e-05
1.78562e-05
3.30065e-05
2.24688e-05
3.83723e-05
2.77093e-05
4.52177e-05
5.3974e-05
3.34938e-05
1.25393e-06
9.24245e-06
2.85591e-06
1.1945e-05
4.75827e-06
1.41024e-05
7.04222e-06
1.64597e-05
9.78981e-06
1.8947e-05
1.31178e-05
2.16347e-05
1.71475e-05
2.46279e-05
2.19878e-05
2.81662e-05
2.76906e-05
3.26695e-05
3.42278e-05
3.86805e-05
4.67433e-05
4.14586e-05
1.45858e-06
7.78387e-06
3.33521e-06
1.00684e-05
5.57244e-06
1.18652e-05
8.2536e-06
1.37785e-05
1.1471e-05
1.57296e-05
1.53512e-05
1.77546e-05
2.00279e-05
1.99512e-05
2.56227e-05
2.25714e-05
3.22254e-05
2.60667e-05
3.9866e-05
3.10399e-05
3.8022e-05
4.85873e-05
1.63323e-06
6.15064e-06
3.73122e-06
7.97038e-06
6.23996e-06
9.35644e-06
9.24647e-06
1.0772e-05
1.28355e-05
1.21405e-05
1.71336e-05
1.34566e-05
2.22711e-05
1.48136e-05
2.83756e-05
1.64669e-05
3.55603e-05
1.8882e-05
4.39092e-05
2.26911e-05
2.82672e-05
5.36639e-05
1.72495e-06
4.42569e-06
3.95573e-06
5.73961e-06
6.64909e-06
6.66308e-06
9.86599e-06
7.55512e-06
1.36786e-05
8.32791e-06
1.81831e-05
8.95216e-06
2.34995e-05
9.49716e-06
2.97535e-05
1.02129e-05
3.70562e-05
1.15793e-05
4.54993e-05
1.42479e-05
1.86964e-05
5.50702e-05
1.77556e-06
2.65013e-06
4.06491e-06
3.45026e-06
6.80396e-06
3.92402e-06
1.00347e-05
4.32436e-06
1.3807e-05
4.55564e-06
1.82016e-05
4.55754e-06
2.33188e-05
4.38001e-06
2.92905e-05
4.24114e-06
3.62491e-05
4.62077e-06
4.44117e-05
6.08527e-06
8.9514e-06
5.41567e-05
9.38889e-07
3.26119e-06
6.04799e-06
9.17117e-06
1.26836e-05
1.65781e-05
2.08998e-05
2.58808e-05
3.19528e-05
3.94177e-05
4.82216e-05
-5.10982e-06
-6.9004e-06
1.20102e-05
-8.19959e-06
-7.92308e-06
1.10129e-05
-1.07873e-05
-9.4572e-06
1.20449e-05
-1.3575e-05
-1.11467e-05
1.39344e-05
-1.65498e-05
-1.28267e-05
1.58015e-05
-1.96536e-05
-1.43974e-05
1.75012e-05
-2.30531e-05
-1.58153e-05
1.92148e-05
-2.69378e-05
-1.7013e-05
2.08977e-05
-3.14643e-05
-1.78487e-05
2.23751e-05
-3.68289e-05
-1.80855e-05
2.34501e-05
-1.73073e-05
2.37985e-05
-4.33201e-05
-4.67231e-06
-2.22809e-06
-8.51702e-06
-4.07837e-06
-1.19726e-05
-6.00158e-06
-1.52038e-05
-7.91552e-06
-1.83489e-05
-9.68165e-06
-2.15647e-05
-1.11816e-05
-2.50483e-05
-1.23317e-05
-2.90267e-05
-1.30346e-05
-3.37373e-05
-1.3138e-05
-3.94419e-05
-1.23809e-05
-1.0363e-05
-4.63862e-05
-2.56504e-06
3.36943e-07
-5.45347e-06
-1.18993e-06
-8.67934e-06
-2.77571e-06
-1.21337e-05
-4.46116e-06
-1.57435e-05
-6.07187e-06
-1.95239e-05
-7.40113e-06
-2.35979e-05
-8.25778e-06
-2.81519e-05
-8.48056e-06
-3.3413e-05
-7.87694e-06
-3.9634e-05
-6.15985e-06
-2.87392e-06
-4.71231e-05
-1.39661e-06
1.73355e-06
-3.45317e-06
8.66635e-07
-6.15536e-06
-7.35163e-08
-9.32808e-06
-1.28844e-06
-1.2906e-05
-2.49397e-06
-1.68751e-05
-3.43203e-06
-2.12837e-05
-3.84919e-06
-2.62364e-05
-3.52781e-06
-3.18798e-05
-2.23354e-06
-3.84069e-05
3.67202e-07
4.8191e-06
-4.60999e-05
-7.53949e-07
2.4875e-06
-2.13195e-06
2.24464e-06
-4.2291e-06
2.02363e-06
-6.99434e-06
1.4768e-06
-1.0371e-05
8.82665e-07
-1.429e-05
4.87037e-07
-1.8709e-05
5.69745e-07
-2.3699e-05
1.46224e-06
-2.94449e-05
3.51235e-06
-3.61842e-05
7.10653e-06
1.27694e-05
-4.41345e-05
-6.67688e-07
3.15519e-06
-1.71262e-06
3.28957e-06
-3.23781e-06
3.54882e-06
-5.39181e-06
3.6308e-06
-8.25016e-06
3.74101e-06
-1.18189e-05
4.05574e-06
-1.61026e-05
4.85346e-06
-2.1111e-05
6.47064e-06
-2.69011e-05
9.30243e-06
-3.36078e-05
1.38132e-05
2.06467e-05
-4.14851e-05
-6.43021e-07
3.79821e-06
-1.65073e-06
4.29728e-06
-2.97531e-06
4.8734e-06
-4.80315e-06
5.45864e-06
-7.24557e-06
6.18344e-06
-1.03901e-05
7.2003e-06
-1.42882e-05
8.75149e-06
-1.89783e-05
1.11608e-05
-2.45166e-05
1.48407e-05
-3.09964e-05
2.02931e-05
2.81705e-05
-3.85202e-05
-6.57654e-07
4.45586e-06
-1.56913e-06
5.20876e-06
-2.79605e-06
6.10033e-06
-4.43774e-06
7.10032e-06
-6.60392e-06
8.34961e-06
-9.4057e-06
1.00021e-05
-1.29325e-05
1.22783e-05
-1.72586e-05
1.54869e-05
-2.24574e-05
2.00395e-05
-2.86382e-05
2.64738e-05
3.55076e-05
-3.59753e-05
-6.30148e-07
5.08601e-06
-1.50609e-06
6.0847e-06
-2.64838e-06
7.24262e-06
-4.15266e-06
8.6046e-06
-6.11942e-06
1.03164e-05
-8.6542e-06
1.25369e-05
-1.18605e-05
1.54846e-05
-1.58374e-05
1.94637e-05
-2.06823e-05
2.48844e-05
-2.65189e-05
3.23105e-05
4.25115e-05
-3.35229e-05
-5.52625e-07
5.63864e-06
-1.35424e-06
6.88632e-06
-2.41106e-06
8.29943e-06
-3.79748e-06
9.99102e-06
-5.59987e-06
1.21188e-05
-7.92137e-06
1.48584e-05
-1.08644e-05
1.84276e-05
-1.45396e-05
2.31389e-05
-1.90627e-05
2.94075e-05
-2.4564e-05
3.78117e-05
4.9112e-05
-3.11645e-05
-4.79215e-07
6.11785e-06
-1.21032e-06
7.61743e-06
-2.17993e-06
9.26904e-06
-3.45202e-06
1.12631e-05
-5.10933e-06
1.37761e-05
-7.24155e-06
1.69906e-05
-9.95292e-06
2.1139e-05
-1.3351e-05
2.6537e-05
-1.75595e-05
3.3616e-05
-2.27112e-05
4.29635e-05
5.53686e-05
-2.89678e-05
-4.76523e-07
6.59437e-06
-1.16334e-06
8.30425e-06
-2.05633e-06
1.0162e-05
-3.22449e-06
1.24313e-05
-4.74121e-06
1.52928e-05
-6.69266e-06
1.8942e-05
-9.17937e-06
2.36257e-05
-1.23066e-05
2.96642e-05
-1.61965e-05
3.7506e-05
-2.09887e-05
4.77556e-05
6.12315e-05
-2.68516e-05
-4.38137e-07
7.03251e-06
-1.06228e-06
8.92839e-06
-1.87508e-06
1.09748e-05
-2.93682e-06
1.3493e-05
-4.31632e-06
1.66723e-05
-6.09454e-06
2.07203e-05
-8.36511e-06
2.58963e-05
-1.12342e-05
3.25333e-05
-1.48218e-05
4.10936e-05
-1.92803e-05
5.22141e-05
6.67436e-05
-2.47924e-05
-3.25158e-07
7.35767e-06
-8.45451e-07
9.44868e-06
-1.55116e-06
1.16805e-05
-2.49206e-06
1.44339e-05
-3.72665e-06
1.79069e-05
-5.3301e-06
2.23237e-05
-7.38872e-06
2.79549e-05
-1e-05
3.51446e-05
-1.32754e-05
4.4369e-05
-1.73429e-05
5.62817e-05
7.17578e-05
-2.23571e-05
-2.95797e-07
7.65347e-06
-7.37481e-07
9.89037e-06
-1.33758e-06
1.22806e-05
-2.14365e-06
1.524e-05
-3.21153e-06
1.89748e-05
-4.61327e-06
2.37254e-05
-6.42482e-06
2.97665e-05
-8.73414e-06
3.74539e-05
-1.16334e-05
4.72683e-05
-1.52385e-05
5.98867e-05
7.62041e-05
-1.96848e-05
-2.35762e-07
7.88923e-06
-5.78121e-07
1.02327e-05
-1.05027e-06
1.27528e-05
-1.69727e-06
1.5887e-05
-2.57696e-06
1.98545e-05
-3.74786e-06
2.48963e-05
-5.28093e-06
3.12995e-05
-7.24424e-06
3.94172e-05
-9.70192e-06
4.97259e-05
-1.2745e-05
6.29298e-05
7.99551e-05
-1.6496e-05
-9.53091e-08
7.98454e-06
-2.78894e-07
1.04163e-05
-5.80085e-07
1.3054e-05
-1.03742e-06
1.63443e-05
-1.69184e-06
2.05089e-05
-2.60244e-06
2.58069e-05
-3.81538e-06
3.25125e-05
-5.37312e-06
4.09749e-05
-7.31241e-06
5.16652e-05
-9.67529e-06
6.52927e-05
8.28061e-05
-1.25263e-05
1.15626e-08
7.97298e-06
-6.53425e-09
1.04344e-05
-1.12126e-07
1.31596e-05
-3.34915e-07
1.65671e-05
-7.19846e-07
2.08938e-05
-1.30863e-06
2.63957e-05
-2.12423e-06
3.33281e-05
-3.17023e-06
4.20209e-05
-4.43598e-06
5.2931e-05
-5.91758e-06
6.67743e-05
8.45428e-05
-7.65419e-06
1.44511e-07
7.82846e-06
3.32383e-07
1.02465e-05
4.63711e-07
1.30282e-05
5.13337e-07
1.65175e-05
4.47619e-07
2.09595e-05
2.49455e-07
2.65939e-05
-6.95894e-08
3.36471e-05
-4.62048e-07
4.24134e-05
-8.55808e-07
5.33247e-05
-1.21182e-06
6.71303e-05
8.48485e-05
-1.51754e-06
3.13364e-07
7.5151e-06
7.48715e-07
9.81118e-06
1.15399e-06
1.2623e-05
1.51724e-06
1.61542e-05
1.82403e-06
2.06527e-05
2.102e-06
2.63159e-05
2.41769e-06
3.33314e-05
2.87803e-06
4.19531e-05
3.59856e-06
5.26042e-05
4.70736e-06
6.60215e-05
8.32508e-05
6.30501e-06
5.24178e-07
6.99092e-06
1.22656e-06
9.1088e-06
1.90957e-06
1.194e-05
2.61164e-06
1.54522e-05
3.35363e-06
1.99107e-05
4.22096e-06
2.54486e-05
5.35544e-06
3.21969e-05
6.92102e-06
4.03875e-05
9.07397e-06
5.04513e-05
1.19958e-05
6.30997e-05
7.93645e-05
1.58821e-05
7.29548e-07
6.26138e-06
1.57506e-06
8.26329e-06
2.54112e-06
1.09739e-05
3.59998e-06
1.43933e-05
4.86285e-06
1.86479e-05
6.49604e-06
2.38154e-05
8.69411e-06
2.99989e-05
1.16406e-05
3.7441e-05
1.55271e-05
4.65648e-05
2.05992e-05
5.80276e-05
7.28068e-05
2.71569e-05
3.8932e-07
5.87206e-06
1.6661e-06
6.98651e-06
2.76962e-06
9.87037e-06
4.1811e-06
1.29818e-05
6.10265e-06
1.67263e-05
8.729e-06
2.11891e-05
1.22365e-05
2.64914e-05
1.67938e-05
3.28836e-05
2.2634e-05
4.07246e-05
3.00866e-05
5.0575e-05
6.33124e-05
3.9581e-05
-2.18591e-06
8.05797e-06
-1.30872e-06
6.10931e-06
4.95038e-07
8.06662e-06
2.95378e-06
1.05231e-05
6.18928e-06
1.34908e-05
1.03091e-05
1.70692e-05
1.54522e-05
2.13483e-05
2.17762e-05
2.65596e-05
2.96363e-05
3.28644e-05
3.94795e-05
4.07319e-05
5.09021e-05
5.18898e-05
4.87618e-06
7.13403e-06
7.19298e-06
8.69606e-06
6.90458e-06
1.23333e-05
4.92608e-06
1.59129e-05
1.59424e-06
1.91334e-05
-2.89474e-06
2.19902e-05
-8.19654e-06
2.45166e-05
-1.40233e-05
2.67245e-05
-2.04299e-05
2.87817e-05
-2.76009e-05
3.06211e-05
3.18092e-05
-3.56117e-05
5.532e-06
1.60203e-06
9.22654e-06
5.00152e-06
1.15485e-05
1.00113e-05
1.24425e-05
1.50189e-05
1.15148e-05
2.00611e-05
8.52498e-06
2.498e-05
3.61658e-06
2.9425e-05
-2.76017e-06
3.31012e-05
-1.00614e-05
3.6083e-05
-1.81277e-05
3.86874e-05
4.09948e-05
-2.73133e-05
3.43844e-06
-1.83641e-06
7.33251e-06
1.10745e-06
1.08694e-05
6.47445e-06
1.35297e-05
1.23585e-05
1.46948e-05
1.88961e-05
1.39307e-05
2.5744e-05
1.09802e-05
3.23756e-05
5.8625e-06
3.82189e-05
-9.76124e-07
4.29216e-05
-8.88405e-06
4.65953e-05
4.96426e-05
-1.75319e-05
1.57708e-06
-3.41349e-06
4.91748e-06
-2.23296e-06
9.32834e-06
2.0636e-06
1.31328e-05
8.55404e-06
1.58901e-05
1.61388e-05
1.70805e-05
2.45536e-05
1.62151e-05
3.32409e-05
1.29931e-05
4.14409e-05
7.52928e-06
4.83854e-05
3.77482e-07
5.37471e-05
5.77438e-05
-7.72371e-06
1.05172e-06
-4.46521e-06
2.98004e-06
-4.16128e-06
6.99352e-06
-1.94988e-06
1.1771e-05
3.77659e-06
1.59407e-05
1.19692e-05
1.88543e-05
2.164e-05
1.99393e-05
3.21559e-05
1.87196e-05
4.26606e-05
1.50007e-05
5.21043e-05
9.11878e-06
5.96291e-05
6.50332e-05
1.82934e-06
1.20174e-06
-5.66695e-06
2.65421e-06
-5.61375e-06
5.36582e-06
-4.66149e-06
1.00384e-05
-8.95963e-07
1.51799e-05
6.82765e-06
1.95736e-05
1.72462e-05
2.24216e-05
2.93079e-05
2.31105e-05
4.19718e-05
2.12396e-05
5.39752e-05
1.68374e-05
6.40313e-05
7.12699e-05
1.06008e-05
1.29784e-06
-6.96479e-06
2.86852e-06
-7.18444e-06
4.95419e-06
-6.74716e-06
8.62787e-06
-4.56964e-06
1.39479e-05
1.5076e-06
1.93656e-05
1.18285e-05
2.37131e-05
2.49604e-05
2.61418e-05
3.9543e-05
2.60881e-05
5.40289e-05
2.33431e-05
6.67762e-05
7.65027e-05
1.81103e-05
1.29801e-06
-8.2628e-06
2.96788e-06
-8.85431e-06
5.08184e-06
-8.86112e-06
7.94529e-06
-7.43309e-06
1.26208e-05
-3.16788e-06
1.83716e-05
6.07766e-06
2.37991e-05
1.95329e-05
2.77189e-05
3.56233e-05
2.93785e-05
5.23692e-05
2.84909e-05
6.76639e-05
7.94871e-05
2.55064e-05
1.19974e-06
-9.46254e-06
2.8255e-06
-1.04801e-05
4.90422e-06
-1.09398e-05
7.58402e-06
-1.01129e-05
1.1459e-05
-7.04283e-06
1.69877e-05
5.48917e-07
2.28756e-05
1.3645e-05
2.7867e-05
3.06318e-05
3.09828e-05
4.92535e-05
3.16941e-05
6.69525e-05
8.12113e-05
2.99699e-05
1.0782e-06
-1.05407e-05
2.5242e-06
-1.19261e-05
4.40171e-06
-1.28173e-05
6.86254e-06
-1.25737e-05
1.01878e-05
-1.03681e-05
1.50979e-05
-4.36119e-06
2.09638e-05
7.77918e-06
2.65774e-05
2.50182e-05
3.08345e-05
4.49965e-05
3.31563e-05
6.46307e-05
8.08714e-05
3.34961e-05
7.38884e-07
-1.12796e-05
1.95445e-06
-1.31416e-05
3.51184e-06
-1.43747e-05
5.61627e-06
-1.46781e-05
8.52384e-06
-1.32757e-05
1.26862e-05
-8.52349e-06
1.81771e-05
2.28827e-06
2.39047e-05
1.92906e-05
2.88983e-05
4.00029e-05
3.26152e-05
6.09138e-05
7.85534e-05
3.49332e-05
5.67234e-07
-1.18469e-05
1.41634e-06
-1.39907e-05
2.45409e-06
-1.54125e-05
3.98496e-06
-1.6209e-05
6.22916e-06
-1.55199e-05
9.55183e-06
-1.18462e-05
1.43689e-05
-2.52883e-06
1.97593e-05
1.39002e-05
2.51326e-05
3.46295e-05
2.99999e-05
5.60465e-05
7.37032e-05
3.48501e-05
2.69799e-07
-1.21167e-05
6.42626e-07
-1.43636e-05
1.17668e-06
-1.59465e-05
1.97258e-06
-1.70049e-05
3.26112e-06
-1.68084e-05
5.47275e-06
-1.40578e-05
9.3079e-06
-6.36398e-06
1.42355e-05
8.97261e-06
1.97245e-05
2.91405e-05
2.53185e-05
5.04526e-05
6.80942e-05
3.09275e-05
-1.07317e-07
-1.20093e-05
-2.29949e-07
-1.42409e-05
-3.14429e-07
-1.58621e-05
-3.13854e-07
-1.70055e-05
-6.50207e-08
-1.70573e-05
8.36341e-07
-1.49592e-05
3.38995e-06
-8.91759e-06
8.08549e-06
4.27707e-06
1.33046e-05
2.39214e-05
1.96528e-05
4.41044e-05
6.0741e-05
2.7006e-05
-4.54186e-07
-1.15551e-05
-1.09128e-06
-1.36038e-05
-1.83996e-06
-1.51134e-05
-2.6824e-06
-1.6163e-05
-3.50855e-06
-1.62311e-05
-3.95866e-06
-1.4509e-05
-3.14869e-06
-9.72756e-06
4.31554e-07
6.96828e-07
6.25407e-06
1.80989e-05
1.33473e-05
3.70111e-05
5.19002e-05
2.21882e-05
-8.4359e-07
-1.07116e-05
-2.04319e-06
-1.24042e-05
-3.49738e-06
-1.36592e-05
-5.20019e-06
-1.44602e-05
-7.02337e-06
-1.44079e-05
-8.61541e-06
-1.2917e-05
-9.28681e-06
-9.05616e-06
-7.31462e-06
-1.27536e-06
-1.38882e-06
1.21731e-05
6.81472e-06
2.88076e-05
4.11855e-05
1.75295e-05
-1.28584e-06
-9.42572e-06
-3.06719e-06
-1.06229e-05
-5.25726e-06
-1.14691e-05
-7.83699e-06
-1.18805e-05
-1.06348e-05
-1.16101e-05
-1.32256e-05
-1.03262e-05
-1.47954e-05
-7.48641e-06
-1.38969e-05
-2.17382e-06
-8.80304e-06
7.07923e-06
3.19168e-07
1.96854e-05
2.87766e-05
1.2728e-05
-1.74617e-06
-7.67956e-06
-4.12109e-06
-8.24797e-06
-7.06494e-06
-8.52528e-06
-1.05221e-05
-8.42329e-06
-1.4239e-05
-7.89326e-06
-1.76851e-05
-6.88009e-06
-1.99483e-05
-5.22323e-06
-1.97178e-05
-2.40429e-06
-1.54211e-05
2.78256e-06
-6.34989e-06
1.06141e-05
1.64023e-05
6.02441e-06
-2.27499e-06
-5.40457e-06
-5.28452e-06
-5.23843e-06
-8.99623e-06
-4.81358e-06
-1.32656e-05
-4.15396e-06
-1.77373e-05
-3.42155e-06
-2.17883e-05
-2.82908e-06
-2.44883e-05
-2.52322e-06
-2.46278e-05
-2.26475e-06
-2.0777e-05
-1.06826e-06
-1.20095e-05
1.84662e-06
2.97544e-06
1.41737e-06
-2.99435e-06
-2.41022e-06
-6.70983e-06
-1.52295e-06
-1.10137e-05
-5.09681e-07
-1.55696e-05
4.0194e-07
-1.9894e-05
9.02792e-07
-2.33461e-05
6.23045e-07
-2.49675e-05
-9.01826e-07
-2.40257e-05
-3.2065e-06
-1.98124e-05
-5.28162e-06
-1.14612e-05
-6.50452e-06
-9.51556e-06
1.02977e-06
-3.06788e-06
6.57656e-07
-6.07664e-06
1.48581e-06
-8.99443e-06
2.40812e-06
-1.15998e-05
3.00735e-06
-1.32947e-05
2.59765e-06
-1.28152e-05
1.43512e-07
-9.6179e-06
-4.09909e-06
-4.1702e-06
-8.65421e-06
3.5192e-06
-1.2971e-05
1.36398e-05
-1.66251e-05
-2.09594e-05
2.50836e-05
-2.55413e-06
3.21178e-06
-3.34465e-06
2.27633e-06
-3.28605e-06
2.34952e-06
-1.56875e-06
1.29005e-06
2.73047e-06
-1.70157e-06
9.37794e-06
-6.50396e-06
1.61379e-05
-1.08591e-05
2.31902e-05
-1.57065e-05
3.10318e-05
-2.08127e-05
4.06489e-05
-2.62421e-05
-3.25564e-05
5.2246e-05
1.26563e-06
1.94615e-06
3.96634e-06
-4.24372e-07
8.63776e-06
-2.3219e-06
1.49972e-05
-5.06943e-06
2.18838e-05
-8.58812e-06
2.79828e-05
-1.2603e-05
3.41281e-05
-1.70043e-05
4.03633e-05
-2.19417e-05
4.72468e-05
-2.76962e-05
5.5539e-05
-3.45343e-05
-4.32174e-05
6.62e-05
1.00041e-05
1.56891e-05
2.14338e-05
2.68874e-05
3.17901e-05
3.62563e-05
4.06003e-05
4.52183e-05
5.03865e-05
5.65841e-05
6.42688e-05
-1.16778e-05
1.71137e-05
-5.4359e-06
-2.0352e-05
1.51215e-05
-6.44722e-06
-2.91162e-05
1.6289e-05
-7.52483e-06
-3.75129e-05
1.69598e-05
-8.56318e-06
-4.61123e-05
1.8483e-05
-9.88348e-06
-5.51344e-05
2.08298e-05
-1.18077e-05
-6.49218e-05
2.41679e-05
-1.43805e-05
-7.59051e-05
2.87002e-05
-1.77169e-05
-8.85382e-05
3.467e-05
-2.20369e-05
-0.000103319
4.24358e-05
-2.7655e-05
5.25502e-05
-3.5006e-05
-0.000120863
-1.58943e-06
1.87031e-05
-4.21758e-06
1.77496e-05
-1.08262e-05
2.28977e-05
-1.84707e-05
2.46043e-05
-2.73375e-05
2.73497e-05
-3.69897e-05
3.04821e-05
-4.77301e-05
3.49083e-05
-5.98183e-05
4.07884e-05
-7.37109e-05
4.85626e-05
-8.99317e-05
5.86566e-05
7.17008e-05
-0.000109082
3.77693e-07
1.83254e-05
-9.99024e-07
1.91263e-05
-4.76298e-06
2.66616e-05
-9.76345e-06
2.96048e-05
-1.69192e-05
3.45055e-05
-2.55428e-05
3.91057e-05
-3.56104e-05
4.49758e-05
-4.71584e-05
5.23363e-05
-6.0526e-05
6.19303e-05
-7.6159e-05
7.42896e-05
9.02112e-05
-9.46694e-05
3.21375e-07
1.8004e-05
-1.19937e-06
2.06471e-05
-3.3181e-06
2.87804e-05
-6.56751e-06
3.28542e-05
-1.17759e-05
3.97139e-05
-1.84706e-05
4.58004e-05
-2.68462e-05
5.33515e-05
-3.68539e-05
6.23439e-05
-4.86733e-05
7.37497e-05
-6.25749e-05
8.81912e-05
0.0001066
-7.89634e-05
2.34172e-07
1.77699e-05
-1.36161e-06
2.22429e-05
-2.86069e-06
3.02795e-05
-5.24554e-06
3.5239e-05
-8.93979e-06
4.34081e-05
-1.37829e-05
5.06435e-05
-2.03426e-05
5.99112e-05
-2.84514e-05
7.04528e-05
-3.83186e-05
8.36169e-05
-5.01235e-05
9.99961e-05
0.000120738
-6.42615e-05
3.73649e-07
1.73962e-05
-8.74395e-07
2.34909e-05
-1.98513e-06
3.13902e-05
-3.89361e-06
3.71475e-05
-6.59644e-06
4.6111e-05
-1.01511e-05
5.41982e-05
-1.51626e-05
6.49226e-05
-2.14427e-05
7.67329e-05
-2.93854e-05
9.15596e-05
-3.90574e-05
0.000109668
0.000132402
-5.07222e-05
5.13872e-07
1.68824e-05
-3.3894e-07
2.43437e-05
-1.03238e-06
3.20836e-05
-2.54326e-06
3.86584e-05
-4.5118e-06
4.80795e-05
-7.14172e-06
5.68281e-05
-1.08474e-05
6.86283e-05
-1.56472e-05
8.15327e-05
-2.18587e-05
9.77711e-05
-2.95711e-05
0.000117381
0.00014189
-3.90589e-05
4.44626e-07
1.64377e-05
-9.58452e-08
2.48842e-05
-3.93848e-07
3.23816e-05
-1.59134e-06
3.98559e-05
-2.86297e-06
4.93511e-05
-4.81418e-06
5.87793e-05
-7.4108e-06
7.12249e-05
-1.09516e-05
8.50735e-05
-1.55755e-05
0.000102395
-2.14141e-05
0.000123219
0.000149204
-2.8728e-05
4.10465e-07
1.60273e-05
2.8047e-07
2.50142e-05
2.16804e-07
3.24453e-05
-6.15845e-07
4.06885e-05
-1.28706e-06
5.00223e-05
-2.67781e-06
6.01701e-05
-4.38074e-06
7.29278e-05
-6.84415e-06
8.75369e-05
-1.00314e-05
0.000105582
-1.42671e-05
0.000127455
0.000154592
-1.96553e-05
6.97123e-07
1.53301e-05
9.86244e-07
2.47251e-05
1.21201e-06
3.22195e-05
8.47766e-07
4.10528e-05
6.01061e-07
5.0269e-05
-2.16407e-07
6.09875e-05
-1.16558e-06
7.3877e-05
-2.69276e-06
8.90641e-05
-4.78709e-06
0.000107677
-7.66077e-06
0.000130329
0.000158433
-1.15014e-05
8.9858e-07
1.44316e-05
1.56362e-06
2.406e-05
2.11296e-06
3.16702e-05
2.23013e-06
4.09356e-05
2.40669e-06
5.00925e-05
2.15467e-06
6.12395e-05
1.88702e-06
7.41447e-05
1.19476e-06
8.97563e-05
1.79511e-07
0.000108692
-1.39449e-06
0.000131903
0.000160648
-3.61004e-06
9.00144e-07
1.35314e-05
1.79503e-06
2.31651e-05
2.61023e-06
3.0855e-05
3.18391e-06
4.03619e-05
3.79482e-06
4.94816e-05
4.148e-06
6.08864e-05
4.57871e-06