/*--------------------------------*- C++ -*----------------------------------*\
| =========                 |                                                 |
| \\      /  F ield         | OpenFOAM: The Open Source CFD Toolbox           |
|  \\    /   O peration     | Version:  3.0.1                                 |
|   \\  /    A nd           | Web:      www.OpenFOAM.org                      |
|    \\/     M anipulation  |                                                 |
\*---------------------------------------------------------------------------*/
FoamFile
{
    version     2.0;
    format      ascii;
    class       surfaceVectorField;
    location    "0.657798";
    object      Uf;
}
// * * * * * * * * * * * * * * * * * * * * * * * * * * * * * * * * * * * * * //

dimensions      [0 1 -1 0 0 0 0];

internalField   nonuniform List<vector> 
32369
(
(3.91426 -1.54971 2.87847e-19)
(4.33349 -1.24759 -2.8299e-18)
(5.46973 -2.23168 -1.81914e-18)
(4.1593 -1.48299 7.16459e-19)
(3.49331 -1.00889 4.0339e-18)
(4.78009 -1.54102 6.18999e-19)
(4.18451 -1.38337 -2.12413e-21)
(3.66426 -1.27068 -2.70251e-19)
(4.661 -1.29344 3.10566e-21)
(4.12767 -1.19242 4.10966e-20)
(3.75905 -1.27433 -1.1317e-18)
(4.50009 -1.09236 0)
(4.0269 -0.936887 8.51183e-20)
(3.76436 -1.11947 3.85739e-19)
(4.29288 -0.857779 1.81059e-20)
(3.89623 -0.684916 -3.92728e-20)
(3.73237 -0.886975 7.01468e-20)
(4.08371 -0.612876 7.71833e-21)
(3.75464 -0.495096 -6.48496e-21)
(3.68007 -0.670565 -1.79189e-19)
(3.8969 -0.428799 -5.143e-21)
(3.62366 -0.364624 4.62056e-21)
(3.59949 -0.492853 7.26149e-20)
(3.72793 -0.300935 -1.35021e-20)
(3.50128 -0.282684 -1.20236e-20)
(3.50896 -0.377678 2.16325e-21)
(3.57583 -0.220488 -8.66289e-21)
(3.38931 -0.241295 -1.9834e-21)
(3.4164 -0.307571 -2.9002e-20)
(3.43954 -0.17847 -2.83885e-20)
(3.33521 -0.280326 1.72277e-20)
(3.3278 -0.171457 8.60429e-21)
(3.2871 -0.237182 2.57688e-22)
(3.43538 -0.470971 4.03303e-18)
(3.979 -0.195673 -9.45667e-19)
(3.32588 -0.894311 3.99732e-18)
(3.18247 -0.313053 2.05121e-18)
(3.37937 -1.09276 -1.21976e-18)
(3.16458 -0.793738 1.32003e-18)
(3.47512 -1.14215 -8.68381e-19)
(3.21946 -0.984843 -1.09475e-18)
(3.54735 -1.06022 4.06446e-19)
(3.28312 -1.02472 -2.09783e-19)
(3.57955 -0.885499 9.43655e-20)
(3.35876 -0.930571 -9.44286e-20)
(3.56225 -0.681854 -2.40693e-19)
(3.41366 -0.78791 6.31632e-20)
(3.51161 -0.515259 7.30924e-20)
(3.42997 -0.616245 -1.23981e-20)
(3.44398 -0.406609 -2.34358e-20)
(3.4113 -0.484026 5.88108e-20)
(3.37141 -0.344402 -2.92451e-20)
(3.36894 -0.397313 -6.95492e-20)
(3.32176 -0.355873 -2.96187e-20)
(3.29822 -0.327287 2.37151e-20)
(3.533 0.102188 -7.04228e-19)
(3.93741 0.323037 -2.4645e-19)
(3.10636 -0.314834 3.89131e-19)
(3.24204 0.115964 -5.83614e-19)
(3.00099 -0.621271 1.26059e-18)
(3.02711 -0.297582 2.67343e-18)
(3.03406 -0.818886 -6.53769e-19)
(2.95397 -0.554757 -8.61078e-19)
(3.12315 -0.896971 -6.77939e-19)
(2.96921 -0.72379 -4.51782e-19)
(3.22545 -0.84847 -5.43072e-20)
(3.05095 -0.777916 -2.85061e-19)
(3.31331 -0.728107 1.6565e-19)
(3.15829 -0.730726 6.33344e-19)
(3.35484 -0.58965 -3.19833e-20)
(3.24651 -0.627605 -5.15294e-19)
(3.35503 -0.47887 8.9192e-20)
(3.29344 -0.52158 6.03111e-20)
(3.32847 -0.408948 -6.61404e-20)
(3.30234 -0.441168 1.3583e-19)
(3.29204 -0.399259 -1.1029e-19)
(3.28386 -0.38493 7.13474e-20)
(3.6481 0.359221 -1.05714e-19)
(3.93183 0.49023 3.68528e-21)
(3.15534 0.0677736 1.22732e-18)
(3.35159 0.337569 -2.05381e-19)
(2.93044 -0.202604 3.87802e-19)
(3.05906 0.0450949 1.14065e-18)
(2.85713 -0.432635 -8.47702e-19)
(2.89772 -0.184158 -1.40236e-18)
(2.88597 -0.593625 -8.88354e-20)
(2.84485 -0.389739 4.86352e-19)
(2.98479 -0.659131 2.42844e-19)
(2.8877 -0.522589 -2.48893e-19)
(3.10443 -0.638021 1.46386e-19)
(2.99068 -0.567047 3.85999e-19)
(3.2006 -0.567606 -4.8626e-19)
(3.1031 -0.54382 -3.09379e-19)
(3.2553 -0.489922 1.48031e-19)
(3.18824 -0.490837 7.14915e-20)
(3.27335 -0.43131 1.50147e-19)
(3.2353 -0.43774 2.57357e-19)
(3.25609 -0.407473 -2.41381e-19)
(3.26374 -0.405354 -1.60354e-19)
(3.67916 0.454953 -4.02033e-20)
(3.87984 0.485912 -1.41757e-19)
(3.25919 0.283544 -3.54159e-19)
(3.43655 0.434679 1.19865e-19)
(2.9984 0.0840198 -5.71172e-19)
(3.15447 0.243611 0)
(2.85795 -0.119829 -1.96411e-19)
(2.96178 0.0729117 -9.27537e-19)
(2.82297 -0.299115 4.10951e-19)
(2.86303 -0.116219 7.00532e-19)
(2.87911 -0.422272 -1.52748e-19)
(2.85987 -0.27163 -2.77175e-19)
(2.98512 -0.476186 8.39208e-20)
(2.92976 -0.370167 -1.69432e-19)
(3.09363 -0.474698 2.01239e-19)
(3.03015 -0.411094 2.20245e-19)
(3.17512 -0.446006 1.79213e-19)
(3.12257 -0.412937 -1.85855e-20)
(3.22282 -0.414993 -4.63996e-20)
(3.18749 -0.397215 -1.3918e-20)
(3.22746 -0.387566 -1.67355e-19)
(3.2417 -0.398406 -1.20781e-20)
(3.67553 0.470647 -4.70708e-21)
(3.82028 0.439219 1.17471e-19)
(3.35311 0.380146 4.63826e-19)
(3.49535 0.464999 -6.55202e-20)
(3.11437 0.251025 -2.60851e-19)
(3.25915 0.334288 1.845e-19)
(2.95404 0.0928252 -1.08845e-19)
(3.07732 0.224579 -1.59543e-19)
(2.87893 -0.0693886 1.20037e-19)
(2.96099 0.0695713 3.1628e-20)
(2.89036 -0.208093 -3.04623e-19)
(2.9246 -0.0767481 2.76423e-19)
(2.96103 -0.303309 -6.59214e-20)
(2.95706 -0.195468 -5.26984e-19)
(3.05256 -0.352984 2.8235e-20)
(3.02844 -0.274597 3.65718e-19)
(3.13442 -0.369932 -2.31506e-19)
(3.10657 -0.318239 -1.24695e-19)
(3.19283 -0.371488 -8.78263e-20)
(3.17036 -0.337351 8.37429e-20)
(3.21542 -0.350925 9.76246e-20)
(3.22626 -0.37277 0)
(3.6734 0.448551 8.0705e-20)
(3.78953 0.397081 3.37076e-19)
(3.42618 0.406154 -3.89163e-19)
(3.53441 0.453441 -3.7441e-19)
(3.23129 0.328246 3.19702e-19)
(3.35161 0.355777 2.50931e-20)
(3.08548 0.214381 -2.38736e-20)
(3.2034 0.296325 1.81955e-21)
(2.99594 0.0811853 1.40062e-19)
(3.09144 0.174453 1.77395e-19)
(2.97582 -0.0498925 9.06646e-20)
(3.03837 0.0494705 2.59082e-19)
(3.00986 -0.15956 -1.73269e-19)
(3.04084 -0.0683035 -3.57258e-19)
(3.07201 -0.238164 2.66027e-19)
(3.08062 -0.163472 1.14106e-19)
(3.13731 -0.287791 1.49691e-19)
(3.13471 -0.23207 -9.234e-21)
(3.19028 -0.317307 2.7366e-19)
(3.18483 -0.276821 6.8145e-20)
(3.22314 -0.310005 1.98518e-19)
(3.22545 -0.337209 2.45625e-19)
(3.67293 0.418433 -4.15027e-20)
(3.76746 0.337886 -1.41666e-19)
(3.48378 0.397181 -2.23094e-20)
(3.56937 0.420548 1.09612e-19)
(3.3369 0.345032 -2.87863e-19)
(3.43666 0.34281 -7.7016e-20)
(3.2184 0.264561 1.76399e-19)
(3.32183 0.311403 -1.25717e-19)
(3.13247 0.159979 2.65169e-19)
(3.22583 0.215232 4.34943e-19)
(3.09573 0.0459428 -1.43351e-19)
(3.16903 0.113481 -1.92138e-20)
(3.1013 -0.0616702 -9.99566e-20)
(3.15183 0.00682721 -9.98562e-21)
(3.13385 -0.151292 -1.32654e-19)
(3.16481 -0.0898662 -2.26379e-19)
(3.17593 -0.219212 -9.38517e-20)
(3.19359 -0.169221 1.43712e-19)
(3.21427 -0.268159 -2.06134e-20)
(3.22475 -0.22878 -1.82818e-19)
(3.24986 -0.274199 5.17756e-20)
(3.24125 -0.304763 -1.81737e-19)
(3.68367 0.373294 0)
(3.76443 0.274571 0)
(3.53967 0.357578 7.22965e-20)
(3.6112 0.382978 0)
(3.43108 0.321106 8.85838e-20)
(3.51176 0.307288 1.50905e-19)
(3.33874 0.264931 6.88335e-20)
(3.42344 0.28627 -1.00336e-19)
(3.26562 0.183439 1.90496e-19)
(3.34964 0.211065 4.46219e-20)
(3.22336 0.0877068 1.10099e-19)
(3.29713 0.129123 5.82162e-20)
(3.2101 -0.0101454 -1.17269e-19)
(3.26904 0.0362859 6.87873e-20)
(3.21826 -0.0994829 -1.05627e-21)
(3.26214 -0.0544102 -1.14232e-19)
(3.23715 -0.174163 8.25092e-20)
(3.26862 -0.135035 7.49802e-20)
(3.25691 -0.232794 -1.4333e-19)
(3.27978 -0.200764 -8.33256e-20)
(3.28847 -0.252953 1.18189e-19)
(3.26821 -0.278262 2.30416e-20)
(3.70966 0.327622 0)
(3.78414 0.212253 0)
(3.59641 0.312966 6.34682e-20)
(3.66092 0.339867 2.09507e-20)
(3.51435 0.283047 -1.63909e-20)
(3.58144 0.257619 5.4392e-20)
(3.44477 0.236222 -1.4938e-19)
(3.51686 0.240042 -5.7548e-20)
(3.38662 0.169227 -8.92699e-20)
(3.46076 0.179187 1.23621e-20)
(3.34465 0.0887503 1.04915e-20)
(3.41399 0.110514 9.70333e-21)
(3.31998 0.00247335 8.45241e-20)
(3.3805 0.0301713 5.80722e-20)
(3.30984 -0.0810766 -5.88489e-20)
(3.35981 -0.0518343 0)
(3.30858 -0.155391 -7.33078e-20)
(3.34833 -0.128546 3.22707e-20)
(3.30979 -0.217227 1.45001e-19)
(3.34139 -0.194521 3.86636e-20)
(3.33382 -0.247932 5.49284e-20)
(3.30726 -0.266682 1.36112e-19)
(3.75068 0.275991 1.89111e-20)
(3.82003 0.146915 -4.15171e-22)
(3.65701 0.259327 1.23162e-20)
(3.71865 0.287068 2.1065e-20)
(3.59268 0.229232 2.57884e-20)
(3.65092 0.198671 1.26782e-20)
(3.54004 0.186817 9.9604e-20)
(3.60161 0.181177 2.65907e-20)
(3.49338 0.129716 1.11918e-19)
(3.55738 0.128558 1.75826e-20)
(3.45347 0.0608063 5.23817e-20)
(3.51633 0.0682269 6.16693e-20)
(3.42209 -0.0149396 -2.03236e-20)
(3.48061 -0.00201925 -1.83966e-20)
(3.39871 -0.0908404 8.58054e-20)
(3.45047 -0.0752932 -1.06369e-20)
(3.38107 -0.160985 1.41261e-19)
(3.42502 -0.145895 7.30969e-20)
(3.36593 -0.221588 -4.75785e-20)
(3.40273 -0.208539 3.87431e-20)
(3.3809 -0.259865 -7.99362e-20)
(3.34792 -0.271782 -3.94302e-19)
(3.79872 0.214274 -4.5789e-22)
(3.85686 0.0770515 -8.33105e-24)
(3.71852 0.196605 2.62639e-20)
(3.77573 0.226137 7.49902e-20)
(3.66567 0.166006 9.10778e-21)
(3.71613 0.132571 -2.89112e-20)
(3.62417 0.125609 -5.52201e-20)
(3.6771 0.11409 -2.31411e-20)
(3.58538 0.0740251 -3.81783e-20)
(3.64104 0.0657163 -3.35867e-20)
(3.54778 0.0128061 -7.89878e-22)
(3.60447 0.0103969 -4.22795e-20)
(3.51231 -0.0544924 -9.51881e-21)
(3.56754 -0.0525234 6.21462e-20)
(3.47926 -0.122833 -3.21233e-20)
(3.53059 -0.11841 -7.71332e-22)
(3.44854 -0.187161 -2.52082e-20)
(3.49411 -0.182641 -3.67525e-20)
(3.41926 -0.243392 2.23723e-20)
(3.45855 -0.240307 4.87193e-21)
(3.42309 -0.288637 2.52096e-20)
(3.38612 -0.28926 1.82068e-20)
(3.84759 0.149303 6.81713e-20)
(3.89742 0.00589373 -2.55883e-21)
(3.77776 0.129379 4.89444e-20)
(3.83282 0.162092 1.43215e-19)
(3.7328 0.0971486 -6.4842e-20)
(3.77784 0.0633522 -9.56728e-21)
(3.69825 0.0568659 -3.04442e-22)
(3.74515 0.0423741 -8.43224e-20)
(3.66456 0.00796668 -3.67734e-20)
(3.71404 -0.00432389 -5.58899e-20)
(3.62854 -0.0484288 9.66899e-21)
(3.68011 -0.0572147 1.69337e-21)
(3.58995 -0.109638 7.78089e-20)
(3.64194 -0.115598 3.31418e-20)
(3.54931 -0.171664 -1.39527e-21)
(3.59941 -0.176079 4.66102e-20)
(3.50779 -0.230207 -1.13761e-20)
(3.55373 -0.234779 -4.16365e-20)
(3.46624 -0.281611 5.42231e-21)
(3.50688 -0.286896 4.89651e-21)
(3.45996 -0.331179 0)
(3.42043 -0.323905 1.77016e-19)
(3.90072 0.0836904 1.96985e-20)
(3.94808 -0.068954 -2.97598e-21)
(3.83676 0.0602598 1.59391e-19)
(3.89283 0.0946786 6.80747e-20)
(3.79611 0.0256493 -3.38064e-20)
(3.83758 -0.0085706 -4.57138e-21)
(3.76514 -0.0159212 -1.43127e-19)
(3.80802 -0.0324885 -8.39253e-20)
(3.73401 -0.0643111 -2.34986e-20)
(3.77913 -0.0791192 -5.6603e-20)
(3.69821 -0.11846 2.1587e-20)
(3.74596 -0.13161 1.93921e-19)
(3.65638 -0.176019 -2.1185e-23)
(3.70579 -0.187979 -1.3746e-19)
(3.6089 -0.233489 1.6671e-20)
(3.65778 -0.245196 7.04099e-21)
(3.55769 -0.286858 -3.06851e-20)
(3.60334 -0.299549 -2.77434e-20)
(3.50498 -0.332366 0)
(3.54564 -0.34591 0)
(3.48647 -0.385143 6.60333e-20)
(3.44755 -0.366863 -1.40523e-20)
(3.95484 0.0121485 0)
(3.99493 -0.146252 -1.85283e-19)
(3.89392 -0.0123374 -4.87899e-20)
(3.94958 0.0243718 7.6877e-20)
(3.85515 -0.0489048 -5.97439e-20)
(3.89414 -0.0833979 -5.42384e-20)
(3.8257 -0.0921532 0)
(3.86617 -0.11012 0)
(3.79531 -0.141428 1.34901e-19)
(3.83801 -0.157928 -1.01449e-19)
(3.75848 -0.195413 6.97414e-20)
(3.80423 -0.211801 2.23223e-19)
(3.71278 -0.251588 -1.46513e-19)
(3.76099 -0.268505 -1.61434e-19)
(3.65823 -0.306271 -3.31251e-20)
(3.70666 -0.324561 9.88434e-20)
(3.59727 -0.355233 0)
(3.64277 -0.375691 -7.28191e-21)
(3.53329 -0.39455 5.89413e-20)
(3.57377 -0.416043 -2.84036e-20)
(3.50253 -0.448018 -3.71221e-21)
(3.46332 -0.420962 -8.12555e-20)
(4.0068 -0.061118 -5.03218e-20)
(4.04029 -0.224853 -5.58304e-19)
(3.94823 -0.0870735 8.45768e-20)
(4.00477 -0.0472758 3.54296e-19)
(3.9108 -0.125827 0)
(3.94864 -0.159807 0)
(3.88171 -0.171443 -9.10901e-20)
(3.92121 -0.190205 0)
(3.85089 -0.223026 -4.79278e-20)
(3.89289 -0.240627 -1.01676e-19)
(3.81181 -0.278933 3.11871e-20)
(3.8574 -0.297995 -5.76594e-20)
(3.76095 -0.335995 5.63964e-20)
(3.80961 -0.357647 4.50207e-20)
(3.69795 -0.389535 1.39028e-19)
(3.74703 -0.414631 1.29733e-19)
(3.626 -0.434409 -2.84617e-20)
(3.67158 -0.463143 -7.33616e-21)
(3.55015 -0.466499 -9.03597e-20)
(3.58988 -0.496423 4.87685e-20)
(3.5064 -0.518323 -2.24379e-20)
(3.46995 -0.482947 -4.76191e-20)
(4.05991 -0.134895 -6.97561e-20)
(4.08948 -0.307617 -3.71274e-19)
(4.00229 -0.163319 3.0582e-19)
(4.06166 -0.121312 7.504e-20)
(3.9655 -0.204812 0)
(4.00297 -0.238162 2.03632e-19)
(3.93593 -0.253921 0)
(3.97554 -0.273181 -1.8073e-21)
(3.90375 -0.309742 -1.1618e-19)
(3.94666 -0.328095 -1.92946e-19)
(3.86097 -0.370207 -5.31939e-20)
(3.90837 -0.39198 -6.23585e-20)
(3.80266 -0.430713 1.0937e-19)
(3.85363 -0.457931 8.82026e-21)
(3.72829 -0.484415 0)
(3.77911 -0.517821 0)
(3.64272 -0.52445 6.92089e-20)
(3.68823 -0.563179 0)
(3.55361 -0.546434 1.25672e-19)
(3.59105 -0.586689 -7.18795e-20)
(3.49348 -0.595874 2.71289e-20)
(3.46558 -0.549325 3.00341e-20)
(4.11383 -0.212121 -1.79779e-19)
(4.13774 -0.392675 -1.86335e-19)
(4.05644 -0.241869 -1.42697e-19)
(4.11865 -0.196972 -1.9845e-19)
(4.0201 -0.286308 2.22417e-19)
(4.05816 -0.31849 2.97156e-19)
(3.99029 -0.34021 -1.78706e-19)
(4.03179 -0.359239 2.65611e-19)
(3.95638 -0.403139 -1.50569e-19)
(4.00303 -0.422104 -3.77311e-19)
(3.90792 -0.472047 -9.97493e-21)
(3.96046 -0.497693 2.95121e-19)
(3.83819 -0.539138 -1.0005e-19)
(3.89419 -0.574511 -2.59639e-20)
(3.7476 -0.593574 0)
(3.80126 -0.638519 -4.80694e-20)
(3.64449 -0.626494 -1.23329e-19)
(3.68931 -0.677872 4.17328e-20)
(3.54033 -0.634989 -1.62726e-19)
(3.5742 -0.6866 -1.35816e-19)
(3.46442 -0.677598 4.58129e-20)
(3.44054 -0.621478 8.07985e-20)
(4.16876 -0.291595 -9.67598e-20)
(4.18661 -0.48025 3.1054e-19)
(4.11172 -0.322169 8.97602e-20)
(4.17713 -0.272695 1.25422e-19)
(4.07771 -0.369978 3.45495e-19)
(4.1176 -0.398594 -2.0723e-19)
(4.0495 -0.431378 1.24298e-19)
(4.09602 -0.448142 3.92547e-19)
(4.01364 -0.506954 3.85631e-21)
(4.06893 -0.526878 -1.97224e-19)
(3.9553 -0.59057 3.15391e-19)
(4.01805 -0.623583 1.2855e-19)
(3.86663 -0.66759 3.18424e-20)
(3.93074 -0.716678 1.67845e-19)
(3.75213 -0.721046 -1.62473e-20)
(3.80853 -0.783007 -6.95918e-20)
(3.62701 -0.741228 6.00111e-20)
(3.66838 -0.808858 1.50294e-21)
(3.5078 -0.729852 1.68374e-20)
(3.53421 -0.794231 -1.54686e-20)
(3.41549 -0.758624 3.45013e-21)
(3.40379 -0.694957 4.19894e-20)
(4.22546 -0.371393 5.34959e-19)
(4.23718 -0.56758 5.22056e-19)
(4.17193 -0.402056 -1.7015e-20)
(4.24257 -0.342554 -2.31343e-19)
(4.14619 -0.454604 -2.2541e-19)
(4.19218 -0.471591 8.29117e-21)
(4.12381 -0.530382 1.17311e-19)
(4.18259 -0.541288 1.23156e-19)
(4.08347 -0.63015 -1.04537e-19)
(4.15631 -0.655194 -3.21285e-21)
(4.00475 -0.737743 -3.34193e-20)
(4.08398 -0.787777 -1.48798e-19)
(3.88315 -0.82584 1.16679e-19)
(3.9567 -0.899272 1.35478e-19)
(3.73395 -0.871093 -2.25022e-20)
(3.78957 -0.958014 -2.13535e-20)
(3.58313 -0.867629 -4.52682e-20)
(3.61495 -0.95532 -4.45236e-20)
(3.45143 -0.826842 -3.3141e-20)
(3.46421 -0.904845 1.21576e-20)
(3.34419 -0.836085 -4.39472e-20)
(3.34797 -0.76728 -5.35079e-20)
(4.29857 -0.456625 -3.1677e-19)
(4.31092 -0.646028 -6.75002e-20)
(4.24987 -0.473923 -2.44423e-19)
(4.32552 -0.371499 -1.93615e-19)
(4.24116 -0.531236 3.39211e-19)
(4.29134 -0.530856 2.36542e-19)
(4.22664 -0.641089 0)
(4.30517 -0.667539 -5.89187e-20)
(4.16856 -0.788865 -3.19958e-20)
(4.25593 -0.859251 0)
(4.04795 -0.932602 -1.12359e-20)
(4.13327 -1.03556 3.53545e-20)
(3.87364 -1.02596 3.58457e-20)
(3.9453 -1.14441 -7.75599e-20)
(3.67923 -1.04584 -3.33294e-21)
(3.7226 -1.16639 -3.40795e-21)
(3.50338 -1.00154 -3.3848e-20)
(3.5149 -1.11073 -5.88032e-20)
(3.36687 -0.921375 7.96038e-21)
(3.35883 -1.00983 5.38165e-21)
(3.2516 -0.903991 3.07456e-20)
(3.26997 -0.833935 -1.78721e-20)
(4.35629 -0.433964 2.30252e-21)
(4.30686 -0.490716 -2.70175e-19)
(4.33131 -0.470891 -1.03616e-20)
(4.32386 -0.470843 -3.02992e-19)
(4.38401 -0.628991 -1.75185e-19)
(4.35172 -0.755602 1.64269e-19)
(4.35848 -0.849281 -6.46053e-20)
(4.3181 -1.0237 -4.85455e-20)
(4.23791 -1.06723 3.46913e-20)
(4.20654 -1.2626 8.01331e-20)
(4.03831 -1.22007 1.27432e-20)
(4.02553 -1.41355 -4.33006e-20)
(3.79786 -1.27665 -4.1581e-20)
(3.79445 -1.45879 -1.09299e-20)
(3.56377 -1.23749 -1.59383e-20)
(3.55417 -1.39725 6.45612e-20)
(3.37729 -1.13094 -2.1372e-20)
(3.34826 -1.25821 -1.47509e-20)
(3.2526 -1.00173 5.00234e-21)
(3.21316 -1.09422 -6.83523e-21)
(3.14061 -0.94788 3.83284e-20)
(3.18252 -0.889256 7.52081e-21)
(4.27667 -0.53121 -4.10295e-19)
(3.91914 -0.551377 -2.91691e-19)
(4.44258 -0.878223 1.76141e-19)
(4.1718 -1.12215 1.67464e-19)
(4.3474 -1.15497 3.54758e-19)
(4.07589 -1.37783 2.56267e-19)
(4.20089 -1.39465 1.43208e-19)
(3.96709 -1.58244 6.37974e-20)
(4.01404 -1.56002 2.58108e-20)
(3.84246 -1.7187 7.68085e-20)
(3.78969 -1.62339 -1.25527e-19)
(3.68396 -1.7657 -7.90984e-20)
(3.55027 -1.57474 1.82776e-19)
(3.48982 -1.71381 2.50098e-20)
(3.33937 -1.43081 -1.23293e-19)
(3.2847 -1.55989 -3.37126e-22)
(3.19199 -1.24057 -1.2149e-21)
(3.12176 -1.34245 -5.27548e-22)
(3.10868 -1.06021 -2.93893e-21)
(3.04015 -1.13055 0)
(3.02268 -0.965033 -2.93172e-21)
(3.06767 -0.923394 -2.69986e-21)
(3.91287 -1.25286 8.63535e-19)
(3.52347 -2.52777 -5.66749e-19)
(3.82951 -1.50235 5.57461e-19)
(3.58178 -1.80212 9.16263e-19)
(3.74255 -1.7 0)
(3.52718 -1.86685 -1.70933e-19)
(3.64073 -1.83592 0)
(3.50407 -1.92762 -2.06708e-20)
(3.52966 -1.89059 0)
(3.47606 -1.93846 1.32776e-20)
(3.39759 -1.85471 1.97306e-21)
(3.42124 -1.90422 1.58968e-20)
(3.23251 -1.71849 5.07646e-20)
(3.32841 -1.81273 8.09215e-21)
(3.06733 -1.49332 -8.81283e-22)
(3.19516 -1.62677 -1.33567e-20)
(2.97078 -1.24626 6.0737e-22)
(3.0555 -1.35811 2.50794e-20)
(2.95206 -1.04918 3.33151e-22)
(2.96483 -1.10695 -1.02722e-20)
(2.95024 -0.947075 1.19964e-20)
(2.9588 -0.928199 2.47293e-22)
(5.87538 -1.53082 6.9027e-22)
(6.31761 -0.954083 0)
(5.37185 -1.25157 2.66842e-21)
(5.94661 -0.857535 -4.28209e-20)
(5.01403 -1.04878 2.24288e-21)
(5.55811 -0.809567 1.74039e-21)
(4.68499 -0.831947 -2.269e-20)
(5.1668 -0.69445 0)
(4.38414 -0.607343 2.32192e-20)
(4.78102 -0.52868 -1.16342e-19)
(4.12434 -0.409856 3.936e-20)
(4.42206 -0.341108 2.576e-19)
(3.89784 -0.267682 -1.5044e-20)
(4.11167 -0.187066 7.52753e-20)
(3.70325 -0.175888 -2.94682e-20)
(3.85537 -0.0906304 -1.34009e-19)
(3.53429 -0.12439 -3.58503e-20)
(3.63887 -0.0387025 -1.27592e-20)
(3.38481 -0.109373 -3.49821e-20)
(3.45417 -0.0194997 2.08436e-20)
(3.30618 -0.0299856 -2.02745e-20)
(3.25173 -0.133325 -3.39641e-20)
(6.3736 -0.291515 3.34383e-20)
(6.44555 -0.0185445 0)
(6.02498 -0.437707 4.14969e-20)
(6.296 -0.089313 1.92923e-20)
(5.64361 -0.477655 0)
(6.01091 -0.218886 0)
(5.22868 -0.412987 -7.54492e-20)
(5.64224 -0.231188 0)
(4.81274 -0.273157 5.32907e-20)
(5.21784 -0.156347 1.6076e-20)
(4.42736 -0.116447 2.10705e-19)
(4.77356 -0.0184982 1.65667e-19)
(4.09284 -0.00571188 -7.78962e-20)
(4.35273 0.113912 6.82484e-20)
(3.814 0.0499541 -8.46462e-20)
(3.99791 0.179661 -8.37607e-20)
(3.58129 0.0703766 6.70641e-20)
(3.70689 0.19159 -1.61641e-19)
(3.38283 0.0622204 4.21477e-20)
(3.46538 0.177155 1.16039e-19)
(3.27436 0.148384 -8.72049e-21)
(3.20601 0.0230765 -2.16441e-20)
(6.43479 0.255069 -3.62165e-20)
(6.42452 0.312992 -7.10803e-20)
(6.27766 0.126503 -4.50173e-20)
(6.38245 0.350282 6.46548e-20)
(6.00924 0.038384 0)
(6.20228 0.227183 -1.4262e-19)
(5.63782 0.025667 4.31536e-20)
(5.91882 0.189357 5.87434e-20)
(5.1979 0.101817 5.40534e-20)
(5.53706 0.219587 2.89216e-20)
(4.73238 0.234954 0)
(5.08051 0.330014 -5.70227e-20)
(4.29721 0.336155 0)
(4.59372 0.472318 0)
(3.92657 0.351183 -1.51218e-19)
(4.14207 0.539253 -1.34917e-19)
(3.62104 0.317371 -1.26167e-19)
(3.76261 0.501186 -2.17501e-19)
(3.37046 0.268551 3.85363e-20)
(3.45764 0.421674 1.23245e-20)
(3.22287 0.348306 -3.95998e-20)
(3.15593 0.211771 2.18403e-20)
(6.41336 0.470786 1.0213e-19)
(6.41014 0.412078 -1.25004e-19)
(6.32851 0.417732 -1.17156e-20)
(6.39842 0.537801 1.01632e-19)
(6.14773 0.374007 -8.77608e-20)
(6.26806 0.459064 -1.854e-19)
(5.85665 0.365742 5.52488e-20)
(6.04305 0.454422 4.14261e-20)
(5.46654 0.42201 -6.09823e-20)
(5.71425 0.489265 -2.12781e-19)
(4.99737 0.552854 -6.2589e-20)
(5.28447 0.592587 1.89627e-19)
(4.49425 0.700885 -1.18359e-19)
(4.77828 0.763368 0)
(4.027 0.744842 -6.91149e-20)
(4.26287 0.911954 2.2066e-19)
(3.6431 0.653304 1.00543e-19)
(3.79976 0.904101 5.81019e-21)
(3.33362 0.519607 -5.9186e-20)
(3.41527 0.750118 1.00749e-19)
(3.14008 0.607078 -1.56502e-19)
(3.05771 0.40863 -2.32456e-20)
(6.41797 0.546901 -3.50219e-20)
(6.42549 0.434244 -3.17956e-20)
(6.35089 0.537542 -4.11033e-20)
(6.41998 0.612499 -2.12184e-20)
(6.19765 0.537848 -8.07269e-20)
(6.30615 0.55588 -5.35533e-20)
(5.94401 0.561523 -1.88476e-19)
(6.10581 0.582991 -3.94506e-20)
(5.58792 0.630783 -1.05244e-20)
(5.80643 0.63569 -1.2962e-19)
(5.13517 0.763466 2.30426e-19)
(5.397 0.742512 9.60365e-20)
(4.62419 0.944033 2.16601e-19)
(4.88567 0.917076 -7.27588e-21)
(4.10324 1.08634 1.76143e-19)
(4.32415 1.125 2.55876e-19)
(3.62647 1.07003 -4.23754e-21)
(3.78382 1.23623 -8.31286e-20)
(3.251 0.886434 -9.22699e-20)
(3.31698 1.12243 9.98057e-20)
(3.00208 0.897792 -2.254e-20)
(2.96371 0.682124 -3.85055e-21)
(6.44153 0.573257 -1.90641e-20)
(6.45373 0.427016 -3.22183e-21)
(6.3845 0.582896 -3.9654e-20)
(6.45106 0.639501 -4.2079e-21)
(6.24196 0.604334 -1.51985e-20)
(6.34504 0.585665 2.02832e-20)
(6.0049 0.647096 1.62181e-20)
(6.15566 0.630845 3.59541e-20)
(5.66519 0.729277 -4.0874e-20)
(5.87217 0.693196 5.40118e-20)
(5.21203 0.867763 -9.28366e-20)
(5.47389 0.803197 -3.54528e-20)
(4.66155 1.05914 3.01677e-21)
(4.94992 0.977403 9.11976e-20)
(4.0767 1.24186 1.38752e-20)
(4.32809 1.20605 -6.1574e-20)
(3.53876 1.31904 0)
(3.70767 1.3891 7.71733e-21)
(3.1063 1.19761 -1.51672e-20)
(3.16936 1.39762 -4.66494e-20)
(2.7816 1.18229 -3.82178e-20)
(2.8006 0.925086 -1.54026e-20)
(6.4687 0.571916 1.8196e-20)
(6.47877 0.408205 -3.26503e-21)
(6.42022 0.589577 6.05774e-20)
(6.48088 0.636082 2.84426e-20)
(6.28411 0.618208 6.06459e-20)
(6.38195 0.574809 1.50525e-20)
(6.0575 0.666754 4.60484e-20)
(6.20023 0.628277 7.17625e-21)
(5.72941 0.75181 2.98577e-20)
(5.92903 0.688897 2.31077e-20)
(5.27736 0.890324 7.08058e-20)
(5.54154 0.793832 7.40484e-21)
(4.6975 1.08753 9.52314e-20)
(5.01207 0.960381 3.10389e-20)
(4.04161 1.30241 7.59668e-20)
(4.34525 1.19713 6.22051e-20)
(3.41375 1.4422 -3.2714e-20)
(3.6347 1.41974 1.23358e-19)
(2.90159 1.40943 -7.893e-20)
(2.99871 1.52204 -2.73913e-19)
(2.53128 1.41336 -1.58804e-19)
(2.54063 1.16381 1.78795e-19)
(6.49583 0.545335 9.63115e-21)
(6.50469 0.37855 5.21845e-21)
(6.45266 0.566543 2.59284e-21)
(6.50712 0.609109 7.5767e-21)
(6.32171 0.59476 -3.13484e-20)
(6.4124 0.534256 -1.22122e-20)
(6.10418 0.640119 -1.58619e-20)
(6.23692 0.590765 -1.46158e-20)
(5.788 0.718149 2.24758e-21)
(5.97757 0.639971 7.79385e-21)
(5.34206 0.84636 -5.57445e-20)
(5.60386 0.729888 -8.31891e-21)
(4.74535 1.03715 -1.28152e-19)
(5.07939 0.877054 -4.09279e-20)
(4.03109 1.26759 2.99494e-20)
(4.38402 1.10105 1.42735e-19)
(3.30459 1.45143 1.01363e-19)
(3.59338 1.3518 9.87598e-20)
(2.68972 1.49948 -9.43188e-20)
(2.84994 1.50588 -1.01633e-19)
(2.27551 1.50824 -2.02842e-19)
(2.24072 1.3369 -2.08456e-19)
(6.51942 0.50559 2.87867e-21)
(6.52822 0.344145 -8.07853e-22)
(6.47797 0.523565 -5.25822e-21)
(6.52404 0.568117 -2.95826e-21)
(6.35077 0.544501 7.17844e-21)
(6.43209 0.471547 -1.89765e-21)
(6.14152 0.579684 1.45428e-20)
(6.26287 0.527516 1.11587e-20)
(5.83859 0.641743 9.28225e-21)
(6.01492 0.557058 1.09273e-20)
(5.40585 0.747882 2.65424e-20)
(5.65782 0.622419 -3.48813e-20)
(4.80706 0.916297 2.10532e-19)
(5.14963 0.737749 2.21292e-20)
(4.05057 1.14231 1.22491e-19)
(4.44783 0.925433 1.45084e-19)
(3.23733 1.3504 -1.68461e-19)
(3.59407 1.1872 1.00728e-20)
(2.51797 1.4612 9.51656e-20)
(2.75614 1.36896 -1.43939e-19)
(2.07819 1.42203 1.55503e-20)
(2.01534 1.40531 4.76941e-20)
(6.53282 0.452208 -1.53361e-20)
(6.53124 0.30092 -4.6377e-21)
(6.49348 0.46435 3.06363e-21)
(6.52955 0.511082 2.79271e-21)
(6.36686 0.475406 -1.8623e-21)
(6.44323 0.39374 0)
(6.16563 0.493691 7.93811e-21)
(6.27326 0.444233 6.7769e-21)
(5.87665 0.531523 -2.80726e-20)
(6.03622 0.447256 1.09967e-20)
(5.46363 0.604521 -5.02633e-20)
(5.69756 0.479413 9.69521e-21)
(4.88055 0.734275 -9.80096e-20)
(5.21577 0.550645 -2.20711e-20)
(4.10487 0.93417 -1.27098e-20)
(4.535 0.680484 -1.10027e-19)
(3.22195 1.14525 -1.06037e-20)
(3.64326 0.928485 5.30874e-20)
(2.40561 1.28299 -1.7913e-19)
(2.7189 1.12107 -1.71623e-19)
(1.94558 1.19746 4.81973e-20)
(1.79978 1.29338 -9.9428e-19)
(6.53054 0.403285 0)
(6.51416 0.233937 -6.92151e-22)
(6.49207 0.412079 0)
(6.5357 0.43948 -1.03956e-20)
(6.36115 0.389419 7.97858e-21)
(6.41036 0.317457 7.31344e-21)
(6.17153 0.385809 9.80535e-21)
(6.26469 0.33706 7.58049e-22)
(5.89672 0.392886 5.31405e-20)
(6.03822 0.314097 0)
(5.50703 0.423073 4.58945e-20)
(5.71761 0.3072 6.56869e-20)
(4.95633 0.497474 -2.44902e-20)
(5.2675 0.324744 -2.1775e-20)
(4.19164 0.64782 -1.08064e-19)
(4.63769 0.38049 1.18731e-20)
(3.26336 0.845816 -1.04609e-19)
(3.75019 0.557833 -1.30448e-19)
(2.36426 0.984829 1.97798e-19)
(2.74716 0.770732 6.5733e-20)
(1.90572 0.852832 1.806e-19)
(1.67609 1.04526 -1.45882e-19)
(6.50903 0.33846 -5.69914e-20)
(6.48638 0.157921 3.55041e-21)
(6.47007 0.317076 2.15982e-20)
(6.49018 0.358218 -2.36089e-20)
(6.33697 0.289581 2.44784e-22)
(6.38155 0.231587 2.08771e-20)
(6.15749 0.258789 -9.6295e-21)
(6.23289 0.208528 -5.40285e-20)
(5.89624 0.230201 3.98142e-21)
(6.01652 0.159338 3.54599e-20)
(5.52968 0.210504 7.26067e-21)
(5.71114 0.111064 -1.03279e-19)
(5.0194 0.215305 1.25411e-20)
(5.29024 0.072543 1.38537e-19)
(4.29708 0.278104 6.3796e-21)
(4.72 0.0553044 1.13194e-19)
(3.36046 0.437649 3.9874e-20)
(3.91546 0.103423 -4.71507e-20)
(2.40951 0.586117 6.22636e-20)
(2.87587 0.323278 -8.82533e-21)
(1.99477 0.412112 4.76245e-20)
(1.66797 0.69999 0)
(6.46109 0.264636 -6.3078e-21)
(6.43615 0.0901465 -3.10144e-21)
(6.41995 0.225417 2.38372e-20)
(6.42245 0.260943 -1.31949e-20)
(6.2928 0.173101 -2.55902e-20)
(6.32306 0.129247 2.33091e-20)
(6.11725 0.112917 -1.92168e-20)
(6.17831 0.0664357 -7.53401e-20)
(5.86688 0.0473732 -5.74302e-20)
(5.97319 -0.0158418 -1.31323e-20)
(5.52043 -0.0191187 -3.90754e-21)
(5.68566 -0.106198 1.39159e-19)
(5.05333 -0.0771516 2.47209e-19)
(5.29333 -0.197199 8.09232e-20)
(4.43121 -0.108771 9.08424e-20)
(4.77005 -0.278472 3.44685e-20)
(3.55584 -0.0439471 -1.00294e-19)
(4.08752 -0.33542 4.70502e-20)
(2.55135 0.107132 -1.33797e-20)
(3.12501 -0.203962 -6.51903e-20)
(2.14603 -0.114107 -2.31361e-19)
(1.69582 0.171142 3.64486e-20)
(6.38287 0.1851 -1.02078e-20)
(6.34581 0.0206463 -2.33373e-20)
(6.34035 0.121713 8.5822e-21)
(6.32255 0.150455 -3.84101e-21)
(6.22098 0.0409698 -1.6389e-20)
(6.23158 0.00993331 -1.55031e-21)
(6.05467 -0.0522589 -7.67773e-20)
(6.09669 -0.0903235 3.22383e-21)
(5.82046 -0.157001 1.65186e-19)
(5.90761 -0.210139 3.67957e-20)
(5.49818 -0.269544 2.38679e-19)
(5.64458 -0.343896 8.61783e-20)
(5.0668 -0.38118 -1.16394e-19)
(5.28924 -0.48454 -1.43197e-19)
(4.49914 -0.474402 2.39203e-20)
(4.82321 -0.62109 -2.3235e-19)
(3.7526 -0.527539 9.48448e-20)
(4.22024 -0.735641 1.52352e-19)
(2.82854 -0.464729 -2.48696e-19)
(3.40791 -0.744014 -2.53853e-19)
(2.47811 -0.686916 5.11489e-19)
(1.89336 -0.346504 1.86562e-19)
(6.27259 0.0927894 -1.89012e-20)
(6.2234 -0.052783 -3.16177e-20)
(6.22817 0.00470599 -1.28474e-20)
(6.18892 0.0286972 5.80806e-21)
(6.11806 -0.105554 1.643e-20)
(6.10447 -0.124743 -2.56404e-20)
(5.96573 -0.2341 1.09932e-19)
(5.98277 -0.261769 3.7937e-20)
(5.75388 -0.379992 -4.30289e-20)
(5.81522 -0.421294 5.87746e-20)
(5.46509 -0.539329 -2.66632e-19)
(5.58446 -0.599219 -1.43105e-19)
(5.08245 -0.703191 -2.38439e-19)
(5.27549 -0.787723 3.94209e-20)
(4.58437 -0.856393 -5.94018e-20)
(4.87379 -0.972608 3.1153e-20)
(3.94145 -0.977148 -8.03183e-20)
(4.35632 -1.13188 -4.93309e-19)
(3.14484 -1.00404 4.15565e-19)
(3.69041 -1.22287 -6.70999e-19)
(2.89061 -1.23693 3.17645e-19)
(2.25313 -0.927988 5.49303e-19)
(6.12482 -0.00827737 -8.92275e-21)
(6.06115 -0.130942 -1.07139e-19)
(6.07694 -0.123795 2.69526e-20)
(6.01397 -0.102542 6.02295e-20)
(5.97749 -0.265712 -1.15606e-20)
(5.93603 -0.27366 -1.82139e-21)
(5.84409 -0.431187 -1.5269e-20)
(5.83156 -0.448111 -1.44482e-20)
(5.66245 -0.618422 -2.25824e-20)
(5.69297 -0.648785 -8.94188e-20)
(5.41799 -0.822009 1.22747e-19)
(5.50485 -0.870355 1.7189e-19)
(5.09761 -1.03134 2.53471e-19)
(5.25418 -1.10287 9.98231e-20)
(4.68493 -1.22921 -3.05716e-19)
(4.9299 -1.32941 1.6034e-19)
(4.15866 -1.39154 -9.73301e-19)
(4.51544 -1.53236 -2.11058e-19)
(3.5089 -1.47675 -7.80884e-19)
(3.98679 -1.67054 2.77583e-19)
(3.363 -1.73975 -4.85724e-19)
(2.68949 -1.45126 -2.43692e-19)
(5.93017 -0.119438 -6.85312e-20)
(5.84803 -0.220055 -5.76865e-21)
(5.87928 -0.265038 6.61411e-20)
(5.7885 -0.245677 -5.32185e-20)
(5.7935 -0.440963 -4.7164e-21)
(5.71838 -0.439014 3.36592e-21)
(5.68573 -0.645062 -6.1874e-20)
(5.63583 -0.651823 2.14394e-20)
(5.54413 -0.874388 5.77359e-20)
(5.53462 -0.89474 -5.14417e-20)
(5.35497 -1.12129 1.28375e-19)
(5.40129 -1.15896 1.15759e-19)
(5.10651 -1.37483 0)
(5.22102 -1.43274 -9.77905e-20)
(4.78894 -1.61853 2.23431e-19)
(4.98305 -1.69722 2.20559e-19)
(4.38792 -1.8194 7.78039e-19)
(4.6801 -1.92416 4.35903e-19)
(3.888 -1.94078 4.715e-19)
(4.29287 -2.08502 -3.73033e-20)
(3.81718 -2.20684 -1.2816e-19)
(3.22857 -2.00882 8.15876e-19)
(5.68118 -0.244792 -1.06024e-19)
(5.57593 -0.329253 3.05789e-19)
(5.62931 -0.421654 -1.44837e-19)
(5.50348 -0.405495 -1.38607e-19)
(5.56165 -0.63235 4.87299e-20)
(5.44147 -0.622914 -1.1188e-19)
(5.48774 -0.875167 5.60421e-20)
(5.38176 -0.870526 -8.19427e-21)
(5.39734 -1.14676 -1.09857e-20)
(5.31805 -1.14803 1.19382e-20)
(5.27487 -1.43669 -8.72038e-20)
(5.24272 -1.44201 -3.00665e-20)
(5.10909 -1.72629 6.65302e-20)
(5.14109 -1.73632 -7.34914e-20)
(4.89515 -1.98673 4.09512e-19)
(5.00305 -2.00934 -1.95771e-20)
(4.61964 -2.19504 -2.80209e-19)
(4.81437 -2.23705 1.85121e-19)
(4.26436 -2.3433 -5.28206e-19)
(4.55685 -2.41474 -4.76033e-19)
(4.23065 -2.55764 0)
(3.73829 -2.45472 -5.60465e-20)