/*--------------------------------*- C++ -*----------------------------------*\
| =========                 |                                                 |
| \\      /  F ield         | OpenFOAM: The Open Source CFD Toolbox           |
|  \\    /   O peration     | Version:  3.0.1                                 |
|   \\  /    A nd           | Web:      www.OpenFOAM.org                      |
|    \\/     M anipulation  |                                                 |
\*---------------------------------------------------------------------------*/
FoamFile
{
    version     2.0;
    format      ascii;
    class       volScalarField;
    location    "0.956101";
    object      p;
}
// * * * * * * * * * * * * * * * * * * * * * * * * * * * * * * * * * * * * * //

dimensions      [0 2 -2 0 0 0 0];

internalField   nonuniform List<scalar> 
21246
(
17.2531
16.0872
14.1784
12.0949
9.97057
8.12737
6.63518
5.43939
4.47038
3.70932
3.23871
-7.20987
2.39361
5.10532
6.88961
6.96462
6.28811
5.43319
4.58377
3.81777
3.18542
2.78052
-20.2461
-9.85863
-6.32789
-1.25229
1.33267
2.78891
3.10403
3.04824
2.76031
2.43687
2.21472
-22.9555
-16.3192
-14.1834
-8.22912
-4.765
-1.7519
-0.0632217
0.864886
1.2548
1.38811
1.44016
-21.3826
-17.7668
-17.0646
-12.0877
-9.22778
-5.66455
-3.26766
-1.53653
-0.492541
0.141388
0.56344
-19.0617
-16.8551
-16.8439
-13.1744
-11.4138
-8.04887
-5.71815
-3.59648
-2.1465
-1.11776
-0.383538
-16.6816
-15.2372
-15.4373
-12.6783
-11.8327
-8.95692
-7.11138
-4.97138
-3.41902
-2.16807
-1.21496
-14.2133
-13.3858
-13.6271
-11.5031
-11.2249
-8.84598
-7.5576
-5.62064
-4.18156
-2.89155
-1.86268
-11.978
-11.6194
-11.6477
-10.145
-10.0655
-8.17911
-7.31966
-5.67985
-4.44788
-3.23571
-2.23903
-10.2067
-9.90752
-9.80803
-8.78736
-8.66247
-7.27057
-6.65444
-5.32661
-4.33622
-3.26899
-2.34052
-8.4318
-8.19705
-8.10776
-7.39685
-7.25105
-6.23521
-5.77282
-4.73005
-3.9582
-3.06392
-2.27829
-6.59319
-6.46628
-6.45727
-5.97609
-5.88258
-5.1435
-4.80782
-4.00497
-3.41457
-2.68694
-2.04741
-5.14032
-4.99858
-4.99045
-4.6627
-4.60512
-4.07302
-3.83759
-3.2325
-2.78822
-2.21178
-1.69795
-4.02641
-3.82568
-3.78561
-3.53236
-3.4779
-3.08851
-2.91994
-2.47066
-2.14045
-1.69883
-1.31283
-2.97486
-2.76512
-2.73641
-2.54087
-2.4954
-2.20876
-2.08389
-1.75279
-1.50856
-1.17827
-0.889754
-2.13427
-1.90015
-1.8675
-1.70713
-1.66098
-1.44368
-1.34139
-1.09481
-0.912372
-0.67306
-0.471481
-1.52187
-1.2564
-1.20174
-1.05196
-0.984342
-0.800247
-0.695885
-0.501521
-0.360275
-0.193775
-0.0613754
-1.01631
-0.739558
-0.671584
-0.528911
-0.435131
-0.258558
-0.133188
0.0354719
0.149581
0.254739
0.319437
-0.627327
-0.348404
-0.260345
-0.119705
0.0125437
0.207186
0.368536
0.530039
0.622628
0.671655
0.666536
-0.338916
-0.0639391
0.0496925
0.209234
0.393788
0.62927
0.834444
0.994785
1.06232
1.05912
1.00098
-0.107543
0.164725
0.309193
0.507121
0.758607
1.04869
1.28728
1.43213
1.46157
1.40964
1.3168
0.13387
0.382584
0.582285
0.841946
1.16918
1.49808
1.723
1.81277
1.78448
1.68496
1.55359
0.252918
0.659726
0.927868
1.28313
1.67446
1.97932
2.12162
2.11841
2.03529
1.93919
2.00013
1.19117
1.35373
1.70732
2.09142
2.30474
2.36175
2.27727
2.09931
1.8938
1.70616
1.75429
27.5813
23.0814
18.3594
14.3034
11.2248
9.03437
7.35811
6.01303
4.91695
4.05484
3.46865
14.8195
17.3544
16.9002
15.3856
12.8229
10.3571
8.23471
6.54791
5.25094
4.29421
3.6658
2.32908
8.52467
10.5546
11.7438
11.2327
9.78033
8.1609
6.62843
5.33909
4.36331
3.70708
-5.53228
0.466895
2.99643
6.02738
7.43205
7.60599
6.94611
5.96727
4.94928
4.09631
3.52503
-9.32409
-4.81289
-2.8743
0.633228
2.87528
4.32146
4.72717
4.55595
4.06206
3.52401
3.11939
-10.8667
-7.56728
-6.37414
-3.19946
-0.991308
1.01382
2.15959
2.70665
2.78194
2.63352
2.4586
-11.3619
-8.79806
-8.14222
-5.44167
-3.70685
-1.58094
-0.151645
0.849681
1.38055
1.60434
1.68146
-11.2768
-9.21854
-8.96581
-6.54212
-5.40885
-3.34143
-1.93189
-0.727339
0.0893285
0.603952
0.909513
-11.1237
-9.28117
-9.33721
-7.06675
-6.2723
-4.4905
-3.17255
-1.91692
-0.962662
-0.26549
0.222171
-11.0004
-9.40874
-9.24135
-7.50731
-6.66053
-5.14545
-3.95789
-2.73502
-1.74171
-0.945627
-0.354047
-10.8056
-9.56577
-9.06416
-7.69019
-6.83959
-5.48124
-4.40383
-3.24181
-2.26355
-1.42711
-0.767285
-10.396
-9.37127
-8.83876
-7.63435
-6.83014
-5.5883
-4.59843
-3.49978
-2.5626
-1.72717
-1.0544
-9.99654
-9.01985
-8.51292
-7.40419
-6.65124
-5.50039
-4.58716
-3.55085
-2.6691
-1.86178
-1.20437
-9.64092
-8.61595
-8.11399
-7.05326
-6.33551
-5.25576
-4.40405
-3.43015
-2.6092
-1.84939
-1.21989
-9.04755
-8.07152
-7.61412
-6.60032
-5.90511
-4.88713
-4.07935
-3.16785
-2.40737
-1.70536
-1.12102
-8.41157
-7.45765
-7.02788
-6.05242
-5.36741
-4.40478
-3.62927
-2.78115
-2.08391
-1.44989
-0.926267
-7.77976
-6.80631
-6.37014
-5.41873
-4.72498
-3.81119
-3.06293
-2.28637
-1.65157
-1.10174
-0.660833
-7.05224
-6.06716
-5.61616
-4.68752
-3.97148
-3.10334
-2.38469
-1.68997
-1.13324
-0.680967
-0.323962
-6.22243
-5.22502
-4.74497
-3.83808
-3.0945
-2.27586
-1.60478
-1.00599
-0.551547
-0.214323
0.0337315
-5.30172
-4.27198
-3.73614
-2.84811
-2.08488
-1.33409
-0.735978
-0.260659
0.0651979
0.273763
0.405148
-4.24808
-3.15869
-2.54748
-1.69322
-0.946097
-0.29671
0.181361
0.503844
0.681416
0.755421
0.768403
-2.97886
-1.80199
-1.13364
-0.374599
0.280322
0.775063
1.09005
1.24133
1.26669
1.21468
1.12603
-1.47282
-0.219762
0.392424
0.935256
1.40789
1.72575
1.8638
1.85532
1.74737
1.59162
1.45112
0.547492
1.54029
1.90876
2.18613
2.43513
2.55672
2.52372
2.41351
2.2327
1.98627
1.68474
-4.31069
-0.400017
0.990376
1.48738
1.59212
1.52602
1.39247
1.23415
1.06144
0.89419
0.810058
-16.1441
-8.39156
-5.23424
-2.92237
-1.29227
-0.380757
0.0815219
0.291381
0.360378
0.356221
0.361197
-15.4452
-11.6748
-9.61188
-6.98676
-4.5701
-2.80315
-1.63128
-0.912718
-0.500668
-0.269862
-0.102153
-11.4486
-10.8056
-10.1791
-8.52613
-6.55871
-4.73929
-3.25234
-2.16151
-1.42926
-0.958378
-0.630853
-8.49985
-8.63213
-8.64682
-7.99194
-6.90224
-5.58488
-4.26337
-3.12352
-2.24087
-1.6066
-1.12195
-6.6905
-6.92235
-6.99145
-6.7828
-6.29302
-5.52173
-4.57928
-3.62832
-2.78755
-2.11122
-1.55648
-5.62166
-5.70428
-5.73863
-5.67898
-5.46937
-5.0479
-4.44187
-3.74183
-3.04243
-2.42125
-1.8697
-5.06177
-4.95396
-4.93315
-4.89109
-4.76999
-4.51938
-4.12724
-3.6292
-3.08161
-2.55274
-2.0443
-4.84186
-4.58478
-4.51967
-4.41643
-4.28443
-4.09119
-3.80625
-3.43367
-3.00113
-2.55908
-2.12011
-4.72154
-4.40651
-4.32072
-4.14596
-3.9805
-3.79513
-3.55101
-3.24021
-2.87506
-2.49031
-2.10558
-4.62203
-4.30324
-4.1575
-3.96517
-3.78693
-3.59928
-3.36804
-3.08108
-2.74435
-2.38399
-2.02709
-4.568
-4.24797
-4.07747
-3.86849
-3.67426
-3.47772
-3.24651
-2.96198
-2.62575
-2.26063
-1.89844
-4.55952
-4.24037
-4.06287
-3.84581
-3.63716
-3.42758
-3.18569
-2.88626
-2.52753
-2.1336
-1.74389
-4.57178
-4.25778
-4.08279
-3.86686
-3.65035
-3.43224
-3.17498
-2.84898
-2.45026
-2.00613
-1.56271
-4.58879
-4.28126
-4.11186
-3.89749
-3.67754
-3.45184
-3.18048
-2.8256
-2.38164
-1.87865
-1.36488
-4.59523
-4.29628
-4.13202
-3.91917
-3.69702
-3.46328
-3.17977
-2.79464
-2.3107
-1.75314
-1.18028
-4.58191
-4.29295
-4.13077
-3.9205
-3.69247
-3.44829
-3.15006
-2.75127
-2.23517
-1.6365
-1.00464
-4.54389
-4.26431
-4.10411
-3.89534
-3.66053
-3.4006
-3.09199
-2.68506
-2.16062
-1.55015
-0.903678
-4.47817
-4.20991
-4.05187
-3.84458
-3.60474
-3.33212
-3.01632
-2.61617
-2.11247
-1.52799
-0.911258
-4.38622
-4.13583
-3.98102
-3.77591
-3.53302
-3.25754
-2.94396
-2.57478
-2.12839
-1.61515
-1.05037
-4.27429
-4.05162
-3.90319
-3.70182
-3.45689
-3.18474
-2.89566
-2.58858
-2.24636
-1.85759
-1.39903
-4.1573
-3.97962
-3.83521
-3.6239
-3.3723
-3.11383
-2.87873
-2.67852
-2.49395
-2.28494
-1.99387
-4.11171
-3.95126
-3.73808
-3.48878
-3.23735
-3.02778
-2.9004
-2.85901
-2.86843
-2.87398
-2.82034
-4.10333
-3.45272
-3.30407
-3.1471
-3.01008
-2.96335
-3.02965
-3.18055
-3.36492
-3.52044
-3.55341
13.6514
9.24571
6.37247
4.6726
3.61706
2.919
2.41435
2.01183
1.66564
1.37586
1.18245
12.6703
11.8986
9.86547
7.81362
6.05998
4.68647
3.66515
2.90544
2.31382
1.84724
1.55003
8.98796
9.78901
9.51827
8.54182
7.16146
5.78314
4.5922
3.62943
2.85956
2.248
1.82581
5.78834
7.18158
7.57389
7.48782
6.9016
5.99565
4.97319
4.01134
3.18004
2.5027
2.0334
3.47296
4.86297
5.45651
5.87737
5.87983
5.46786
4.79321
4.0256
3.27641
2.6236
2.15727
1.79803
3.00078
3.54278
4.14315
4.48602
4.50001
4.20991
3.71847
3.13014
2.56477
2.13181
0.577558
1.59281
2.01794
2.63014
3.08653
3.3326
3.33122
3.1085
2.7308
2.30531
1.94731
-0.265587
0.564776
0.859228
1.42615
1.87878
2.21571
2.38139
2.357
2.17732
1.90177
1.63488
-0.960073
-0.220309
-0.0498433
0.487146
0.887968
1.24452
1.4893
1.59646
1.56483
1.43265
1.28461
-1.56913
-0.881386
-0.776726
-0.276482
0.0762378
0.424998
0.702356
0.882936
0.952874
0.931912
0.88357
-2.05117
-1.56079
-1.33204
-0.929204
-0.597514
-0.263285
0.0221431
0.240958
0.376695
0.434436
0.471632
-2.42276
-2.02113
-1.80428
-1.45832
-1.15318
-0.840526
-0.560504
-0.324623
-0.14777
-0.0331711
0.0657598
-2.75482
-2.3891
-2.19466
-1.88628
-1.60772
-1.32053
-1.05509
-0.817893
-0.619661
-0.466127
-0.311232
-3.06345
-2.7066
-2.51771
-2.23441
-1.97875
-1.71761
-1.47295
-1.24749
-1.04647
-0.876897
-0.702233
-3.23627
-2.92045
-2.76152
-2.51004
-2.27867
-2.04438
-1.82423
-1.6199
-1.43224
-1.26478
-1.0938
-3.37707
-3.10008
-2.95463
-2.72925
-2.51982
-2.31192
-2.11871
-1.94242
-1.78103
-1.62987
-1.47481
-3.49994
-3.24686
-3.10813
-2.90369
-2.7132
-2.53055
-2.36666
-2.22532
-2.10307
-1.9868
-1.86838
-3.57538
-3.35114
-3.2215
-3.03825
-2.8663
-2.70854
-2.57694
-2.47821
-2.40843
-2.34603
-2.26684
-3.61379
-3.42088
-3.30168
-3.13897
-2.98468
-2.85177
-2.75571
-2.70753
-2.70284
-2.71354
-2.70926
-3.62943
-3.4668
-3.3567
-3.21129
-3.07254
-2.96296
-2.90504
-2.91361
-2.98105
-3.06338
-3.06873
-3.62565
-3.49075
-3.38766
-3.25438
-3.12766
-3.04042
-3.02266
-3.09202
-3.23678
-3.40775
-3.51546
-3.59674
-3.48775
-3.38581
-3.25765
-3.1411
-3.0772
-3.10088
-3.22908
-3.44365
-3.68854
-3.88812
-3.5784
-3.45197
-3.33601
-3.211
-3.10898
-3.0711
-3.13191
-3.30209
-3.55205
-3.80376
-3.92468
-3.32429
-3.23661
-3.14712
-3.06969
-3.01723
-3.02266
-3.11469
-3.29622
-3.53187
-3.75127
-3.86336
1.57599
0.853688
0.803533
0.928088
1.12138
1.34572
1.51626
1.61618
1.65856
1.66894
1.72118
7.16539
5.71073
4.51016
3.72326
3.23506
2.94012
2.75028
2.60322
2.46663
2.34338
2.27836
7.58278
7.1839
6.43488
5.66081
4.96437
4.3863
3.92487
3.55316
3.23913
2.96971
2.78855
7.02943
7.04269
6.78475
6.37289
5.87492
5.33985
4.81278
4.32646
3.89145
3.51913
3.2622
6.57624
6.70098
6.64498
6.47963
6.18938
5.79354
5.3345
4.86947
4.42262
4.0241
3.72749
6.23911
6.42016
6.43019
6.38006
6.24113
5.99267
5.66642
5.2765
4.85433
4.43951
4.09769
5.93666
6.13007
6.16614
6.20056
6.16762
6.03867
5.80854
5.48962
5.10834
4.70681
4.35125
5.66707
5.81227
5.87183
5.92816
5.94501
5.89165
5.74742
5.50931
5.19182
4.83644
4.52212
5.41384
5.53709
5.59102
5.64741
5.6801
5.66303
5.57366
5.39993
5.14405
4.83668
4.55446
5.16455
5.28155
5.3297
5.38127
5.41569
5.41238
5.35177
5.21998
5.01244
4.74875
4.49573
4.94952
5.05123
5.08815
5.13033
5.15899
5.15739
5.10932
5.00193
4.82807
4.60178
4.38933
4.78389
4.85368
4.86963
4.89508
4.91067
4.90212
4.85571
4.76032
4.60864
4.41074
4.21995
4.60766
4.65574
4.65605
4.66502
4.6647
4.64402
4.59208
4.50018
4.36196
4.18585
4.03021
4.40396
4.44308
4.43363
4.42805
4.41131
4.3759
4.314
4.21998
4.08938
3.92823
3.7954
4.2345
4.24173
4.2087
4.18129
4.14372
4.08995
4.01448
3.91494
3.79005
3.64422
3.52666
4.03923
4.01716
3.9622
3.91155
3.85029
3.77503
3.68349
3.57727
3.4588
3.33111
3.23799
3.78909
3.74787
3.67678
3.60308
3.5159
3.41683
3.30865
3.19796
3.09114
2.9891
2.92568
3.53299
3.45414
3.35326
3.2462
3.12579
2.99944
2.87646
2.76867
2.6851
2.62305
2.60405
3.23882
3.10889
2.96782
2.81618
2.65409
2.49923
2.37037
2.28244
2.24103
2.23514
2.27363
2.86905
2.67545
2.48496
2.27778
2.06846
1.89128
1.77568
1.7361
1.76537
1.83514
1.93213
2.39469
2.11638
1.85513
1.58087
1.32821
1.15513
1.09586
1.14836
1.2814
1.44851
1.61912
1.83251
1.3305
0.989269
0.65488
0.397147
0.292954
0.36035
0.559281
0.826513
1.10357
1.35429
0.434945
0.172715
-0.217796
-0.548107
-0.705315
-0.626572
-0.349959
0.0348998
0.445174
0.825986
1.14313
1.39276
-0.891473
-1.49237
-1.74418
-1.67327
-1.3367
-0.846885
-0.313637
0.197637
0.649371
1.00892
-12.8631
-5.71531
-2.88213
-1.66987
-0.686814
0.0189773
0.429394
0.702988
0.887888
0.996598
1.12082
-12.6022
-8.9371
-6.87023
-5.15467
-3.4228
-2.04845
-1.09816
-0.449344
-0.0303286
0.244105
0.482511
-8.32655
-8.4738
-8.13374
-7.13333
-5.73269
-4.26875
-2.95898
-1.91597
-1.16058
-0.634268
-0.226324
-8.05533
-8.06429
-8.01157
-7.71141
-7.02745
-5.98734
-4.73909
-3.5055
-2.46634
-1.66928
-1.03104
-8.4694
-8.37115
-8.22641
-8.09504
-7.82451
-7.23745
-6.28172
-5.08372
-3.87401
-2.82667
-1.95376
-9.01739
-8.9526
-8.80312
-8.65563
-8.56143
-8.30639
-7.67922
-6.64498
-5.37345
-4.10828
-2.94617
-9.66456
-9.68183
-9.59859
-9.50703
-9.48497
-9.4322
-9.08076
-8.24831
-6.98566
-5.5507
-4.13274
-10.3707
-10.4885
-10.4982
-10.5554
-10.61
-10.699
-10.5674
-9.93465
-8.71082
-7.11098
-5.38757
-11.0798
-11.3013
-11.3968
-11.6004
-11.8578
-12.094
-12.1581
-11.7061
-10.5252
-8.77454
-6.73684
-11.7079
-12.0547
-12.2431
-12.6096
-13.0769
-13.5249
-13.8031
-13.5055
-12.3481
-10.4437
-8.09989
-12.1078
-12.6916
-12.9515
-13.4745
-14.1298
-14.8433
-15.3444
-15.196
-14.0642
-11.9602
-9.31319
-12.4478
-13.0986
-13.4196
-14.0899
-14.9106
-15.842
-16.5294
-16.5449
-15.4047
-13.1108
-10.2225
-12.5665
-13.1964
-13.6615
-14.3844
-15.294
-16.3385
-17.1962
-17.3707
-16.158
-13.6714
-10.4264
-12.3848
-13.0005
-13.5496
-14.3054
-15.242
-16.2814
-17.1863
-17.3667
-16.0816
-13.4986
-10.0795
-11.9363
-12.4715
-13.0307
-13.7654
-14.66
-15.6207
-16.4093
-16.4056
-15.0764
-12.5159
-9.13665
-11.1509
-11.5563
-12.0618
-12.7234
-13.5242
-14.3458
-14.9037
-14.6777
-13.263
-10.7528
-7.63284
-9.98558
-10.249
-10.6707
-11.2446
-11.932
-12.5679
-12.8456
-12.3958
-10.9091
-8.45873
-5.56082
-8.44779
-8.60398
-8.9691
-9.50225
-10.1173
-10.5854
-10.5856
-9.86121
-8.28016
-6.00484
-3.47073
-6.63093
-6.80317
-7.23079
-7.8268
-8.43174
-8.75217
-8.46677
-7.41329
-5.68417
-3.60244
-1.46655
-4.93446
-5.31982
-5.94981
-6.65086
-7.22584
-7.37335
-6.76518
-5.34983
-3.47731
-1.59353
0.14566
-4.15748
-4.85904
-5.72962
-6.50801
-7.01936
-6.94359
-5.9521
-4.16946
-2.22471
-0.412334
1.17788
-4.35788
-5.46196
-6.54364
-7.3369
-7.73504
-7.02968
-5.07434
-3.11507
-1.37095
0.0961402
1.25386
-6.06693
-8.21663
-8.29034
-7.72795
-6.62675
-5.13628
-3.34421
-1.82937
-0.612239
0.358124
1.0607
-11.2126
-7.00383
-5.55978
-4.50294
-3.46148
-2.44352
-1.4797
-0.673958
0.00722137
0.570925
0.975528
1.4286
1.17849
0.414847
-0.455777
-0.925641
-0.88247
-0.520529
-0.270953
-0.16859
1.26811
1.06903
0.462326
-0.157232
-0.542653
-0.551659
-0.346177
-0.230049
-0.172858
1.12711
0.966501
0.464538
-0.119352
-0.452158
-0.461546
-0.287988
-0.182175
-0.150309
0.999177
0.873835
0.465977
-0.00105983
-0.286803
-0.327967
-0.206548
-0.117342
-0.108399
1.23519
0.690562
-0.263068
-1.18227
-1.5238
-1.22427
-0.571308
-0.210373
-0.199673
1.1055
0.65026
-0.0802345
-0.707121
-1.03115
-0.850148
-0.412999
-0.207642
-0.204361
0.982825
0.588539
-0.0335243
-0.701771
-0.906703
-0.749847
-0.369622
-0.194117
-0.190858
0.887305
0.556834
0.0275679
-0.401402
-0.698104
-0.611701
-0.318416
-0.169542
-0.145795
1.48334
1.82154
1.82714
-0.0784922
-0.0827937
2.0924
-0.162383
2.04582
2.10168
1.5163
-0.0938163
2.04296
-0.0365886
-0.0294999
1.47803
1.8411
-0.010078
-0.0767465
1.84393
1.478
1.66109
-0.053005
1.96707
-0.048886
1.79337
-0.0278101
-0.0282812
-0.156614
-0.0128947
-0.112684
-0.0111046
0.66684
-0.0245013
1.93106
0.573844
1.84038
-0.0430372
1.80289
-0.025438
2.13042
0.285398
1.93529
-0.0678291
1.9702
-0.248084
0.134355
-0.069705
-0.0839222
0.806443
2.23276
-0.117784
2.12289
-0.00262304
-0.0625645
2.23073
1.65749
-0.0552005
2.11734
-0.07554
-0.0414354
0.33926
-0.00356988
-0.120102
-0.114149
0.237381
1.4788
-0.103327
2.36715
1.84045
1.51386
-0.00792444
1.80996
-0.0884738
1.9593
-0.0483168
1.81739
-0.0360118
1.94573
-0.160898
-0.180893
-0.056482
-0.113647
1.53964
1.5553
0.283591
-0.0838524
-0.928487
-0.00307327
-0.126991
-0.00952086
1.88237
2.11195
0.272718
2.04955
-0.157864
-0.241492
-0.0480665
0.147923
-0.10039
1.84645
0.381468
-0.136008
1.39329
0.429692
-0.112321
1.94828
-0.00185153
1.54275
-0.00692625
1.26433
1.99413
1.93147
1.9327
-0.0905605
-0.0409592
1.51908
2.14219
1.96379
2.06086
1.30077
-0.0949092
1.92124
0.806673
-0.00981099
0.140802
0.0785211
-0.00132629
-0.00188321
-0.00146183
-0.00436363
2.06151
-0.039638
-0.0975081
1.80811
1.89775
0.251856
-0.00528741
-0.109849
-0.0602808
0.837258
-0.0428047
1.59715
-0.215863
1.05349
2.14435
-0.102629
0.128305
2.36701
1.64022
2.10909
2.20194
2.03933
-0.100237
1.92357
-0.0870273
-0.0637609
-0.0776192
-0.10658
-0.00426625
1.59679
0.125472
-0.127795
1.81527
1.62877
-0.0698086
-0.0205457
-0.129949
1.8446
0.140323
0.220451
-0.0223897
-0.00381047
0.172682
1.4388
0.698334
0.733646
-0.00180872
-0.110399
-0.273303
0.781338
2.34504
-0.0441268
1.87511
-0.0729091
2.0219
-0.0978126
2.25989
1.94929
1.70773
-0.162328
-0.00575498
-0.0324741
1.43194
0.259956
1.84951
1.69341
2.10593
-0.116951
-0.00440861
1.5296
-0.05978
2.2352
-0.0137722
-0.0130685
1.8876
0.000874359
2.05876
-0.000310837
2.19104
1.46653
-0.0285898
1.89037
1.27723
0.642025
1.96073
-0.0227715
1.89335
-0.0331642
2.28194
-0.0500795
-0.0137688
-0.090517
-0.0480109
-0.0472075
-0.00859263
2.10546
-0.0361037
-0.0167645
-0.00601125
-0.126836
-0.0918869
1.41469
2.22277
1.88507
-0.0973767
-0.775906
-0.0704209
1.87198
2.03383
2.03562
-0.00658111
-0.0877521
0.405198
0.204545
2.21913
-0.154463
1.92436
-0.0199591
-0.38632
-0.0144529
-0.0183065
-0.0368214
0.221843
1.59249
0.670654
2.10405
1.74612
1.80459
-0.096253
2.27918
-0.00182492
0.14591
1.44881
1.96266
1.99126
-0.0585147
1.56662
2.50732
0.24374
0.351891
-0.0970874
2.17674
2.23233
-0.0716901
1.88489
1.95405
-0.0126437
1.93335
0.942969
-0.121616
1.82267
2.0233
-0.0520954
-0.0382246
0.729509
1.81461
-0.729468
2.03585
0.83989
-0.0677457
2.01462
-0.180977
1.50988
-0.0387569
1.84089
2.18402
0.134438
1.98495
0.603338
-0.0161242
2.07191
-0.106996
0.668396
-0.100982
1.77348
1.21372
1.95632
0.0235178
-0.0426616
2.0985
-0.0872813
1.95412
1.12582
-0.0136936
-0.096593
1.06866
-0.0344187
-0.121162
1.25682
2.02152
2.21571
0.0214349
1.90887
0.0071142
-0.123228
1.82872
1.93823
-0.0201734
1.40367
-0.00630323
2.65774
-0.111819
-0.00733679
1.97202
-0.041554
-0.506374
-0.0907476
1.96204
1.92633
0.177871
0.0829863
-0.00114198
2.24653
-0.0213704
-0.114636
0.0165786
-0.0397679
1.9388
-0.0566054
-0.000390249
-0.0790263
0.147197
0.395594
1.81586
-0.00413672
1.52877
-0.011642
0.957931
1.96179
-0.0163762
0.359982
-0.0314989
1.8902
1.53662
1.9075
-0.124801
-0.0027227
-0.0718604
-0.0979507
0.966009
1.9221
-0.100898
-0.458056
-0.0168444
-0.0174754
2.01371
0.647878
0.57737
1.81205
2.09615
-0.0141097
1.71565
-0.10245
2.09904
-0.0321662
-0.0234882
-0.0969092
-0.00819243
-0.0848377
-0.121369
2.03399
-0.0915748
-0.00190401
1.7717
-0.0259849
0.237612
1.96681
2.0826
2.0202
-0.0585808
-0.103568
1.51448
1.9733
-0.041098
-0.00256286
0.347304
-0.163494
0.00201038
2.23877
0.0236534
2.15114
1.83677
-0.0132339
-0.0121685
-0.0936025
1.04305
-0.00728113
1.93448
-0.00693655
-0.116116
-0.0613564
-0.00658505
-0.151023
-0.00149638
0.707824
1.32052
1.94733
-0.00226434
0.264758
0.215709
1.91856
-0.142932
-0.0259076
1.20957
0.416531
-0.0330623
-0.0630598
-0.0795811
-0.0106565
1.90322
0.302859
-0.971974
-0.0637966
-0.100579
2.24725
-0.0762235
-0.0257381
-0.0164369
1.64964
-0.146964
2.03482
1.55582
1.90466
-0.124702
0.125089
-0.0869507
-0.0208525
-0.109352
-0.0021016
1.64753
1.66406
-0.00778539
-0.0159408
0.62867
2.3543
-0.00391663
0.00012496
1.52071
1.8848
2.61123
0.718951
-0.106928
2.07826
0.339347
2.25178
2.01722
2.16104
1.47731
-0.114374
2.23887
1.58302
1.70859
-0.113065
-0.0331236
1.9607
-0.0926046
-0.105564
1.09423
-0.0396214
1.53814
-0.00985908
1.71259
2.33001
2.10608
-0.000336942
-0.00454233
1.43635
-0.024694
1.19028
2.51757
0.0038856
-0.0217662
2.01303
1.57782
-0.404002
-0.011818
-0.0882323
2.68427
-0.109665
1.90154
-0.0656422
-0.00228985
-0.122629
-0.0178963
0.37494
-0.0537107
-0.0452958
-0.0227586
1.91949
0.155854
1.22714
2.01929
1.89485
2.01825
1.93539
-0.0343622
2.05757
1.55033
-0.0492888
2.06811
0.103735
0.630606
-0.00187915
-0.00549117
-0.130392
1.7703
1.86925
2.01674
0.212969
-0.102692
1.92387
1.65204
-0.00941888
1.98365
-0.0621231
1.98548
-0.0028581
0.943981
-0.124325
-0.024158
-0.00642372
0.109036
-0.058821
1.79241
1.5212
1.6067
2.00584
-0.0404448
-0.109108
1.37604
-0.0121311
-0.305126
-0.0939214
1.82504
2.12325
1.94585
-0.0271257
-0.0540344
-0.00274782
1.98651
2.12472
-0.0405446
2.01025
-0.0255686
-0.00158307
-0.0126176
-0.131499
2.01226
-0.00396979
1.86288
-0.0453584
2.0073
-0.0461541
-0.00169171
0.735942
-0.0941596
-0.03467
2.02975
1.94121
-0.158416
1.61282
0.102291
-0.0902816
-0.0754359
-0.0443961
0.0920268
-0.0446929
1.56453
2.09228
2.02786
-0.265023
-0.0431909
-0.0175523
1.45938
1.83038
-0.156687
2.27665
2.06677
2.08952
1.72275
-0.041797
-0.0407364
-0.0860503
0.272246
0.885972
0.158096
1.57619
-0.0557831
1.78162
2.06694
-0.379707
0.00327863
1.88276
1.66924
0.012459
1.37194
1.63539
0.33968
1.94168
1.6931
-0.0549853
-0.0561104
0.486742
-0.00915354
-0.00642048
-0.143454
-0.0228548
0.286602
-0.0381754
0.00848051
-0.127309
-0.0831145
-0.0024946
1.90402
1.97447
-0.124108
0.875073
2.07407
1.29196
-0.0262965
-0.0730551
-0.360106
0.0690922
0.629027
1.95472
0.268184
1.78539
2.06987
1.18595
-0.0471276
1.66356
2.78096
2.22057
2.00458
-0.08863
-0.000281899
-0.126669
1.76983
2.37007
0.970909
-0.0256261
2.02048
-0.197706
1.8906
-0.0604497
0.00676045
1.99038
-0.00499436
1.6535
-0.0255508
-0.0928192
-0.0393728
-0.319557
0.144373
0.314373
1.54182
-0.00176391
-0.0173539
-0.121806
0.0207091
1.92724
1.09479
1.5516
0.339955
2.10323
-0.0616511
1.9795
2.11516
1.8046
-0.0201873
-0.0610512
1.79155
-0.00313874
1.96993
-0.0118514
-0.00494326
1.43896
-0.091011
0.176866
-0.038231
0.759432
-0.0107982
-0.0427698
-0.0396378
-0.014898
-0.149178
1.91493
-0.0381572
2.03707
2.66163
-0.0844688
0.324183
-0.0147616
-0.0275984
2.00567
1.66531
1.27978
-0.0453349
1.65584
0.0140568
-0.0663838
0.00234053
1.43258
0.57308
-0.0553633
-0.0373152
1.83227
-0.0465037
-0.0640966
-0.119975
2.00058
-0.0314992
-0.339116
1.86387
0.0604453
-0.0063841
2.02269
-0.0583158
2.11817
2.44332
1.16135
-0.00817877
1.81657
-0.0180082
1.93649
-0.0299588
1.71107
-0.0472598
-0.0194196
0.00643633
-0.0040305
1.9324
-0.0594864
0.0629183
1.58462
-0.0186241
0.694791
-0.0243765
0.265071
-0.0971361
1.76206
-0.0488131
-0.032636
0.320269
2.04596
0.261012
1.95541
-0.0404442
0.0455649
1.8316
2.06427
0.399778
-0.105258
0.00741177
-0.0443097
2.04135
-0.0272419
1.30015
1.92329
1.71285
1.95597
2.03925
2.2497
-0.00479404
-0.0969918
-0.0787444
-0.0032127
0.344199
1.78326
2.0545
0.480071
-0.0280611
1.88206
0.451185
-0.0194041
-0.109915
-0.0509565
0.240366
0.627489
-0.0634861
1.77238
2.05564
0.117689
1.36479
2.04239
1.23137
-0.00251633
0.280509
0.299682
1.85542
0.0221082
0.163582
-0.082211
2.04488
-0.00223288
-0.0741761
-0.050634
-0.0642014
1.59717
2.0436
-0.0768049
-0.0498017
-0.0432893
1.55284
2.201
2.02352
2.01387
2.03744
-0.040009
0.00763535
0.0837068
-0.135306
-0.0507922
2.01442
-0.141908
1.65448
1.87724
0.771139
2.05659
1.96169
2.10796
-0.118108
-0.00897391
-0.0688406
1.95404
-0.0671099
1.84237
1.92521
2.11167
1.68384
1.30764
1.97861
1.90069
2.10799
-0.646909
1.9662
1.5196
0.362735
-0.209218
2.3511
1.90253
-0.10833
-0.617355
2.47497
0.249951
-0.050926
-0.0681185
2.00281
1.7978
1.7892
1.01202
-0.00739429
2.03456
-0.0513237
-0.0424194
-0.00916694
-0.0154437
1.98259
-0.0331277
1.4325
1.9899
1.86217
2.7199
1.9482
0.137775
0.120639
0.743935
-0.0390557
0.00524118
-0.0678852
0.842588
-0.143421
1.94199
1.98422
-0.0045366
-0.0123135
-0.0326935
2.12107
-0.138556
1.9426
-0.0518916
1.68186
-0.00537354
-0.00433437
-0.126197
-0.0173253
1.45618
1.803
-0.0341641
-0.00674432
0.0108738
0.43004
-0.0467277
1.43258
1.71946
0.00482725
1.96335
1.89793
0.100182
0.203451
-0.105493
0.011281
-0.00228726
-0.0316277
-0.0243346
-0.497241
1.57019
1.44076
-0.000432708
1.60161
0.145603
1.97005
-0.034295
-0.0501768
0.0016105
1.62909
-0.00463646
1.99265
2.11482
-0.0068882
-0.0880443
2.19942
1.93414
2.10027
0.172462
0.280945
-0.119301
0.973525
1.46185
0.37148
-0.0413374
-0.1365
1.57023
-0.00921847
-0.0266069
2.00383
-0.00300826
0.91044
-0.0648563
-0.0486623
0.844081
-0.0534974
1.03241
1.91766
-0.0651241
-0.0143804
2.33822
-0.00499608
1.87866
-0.726414
0.000659731
-0.0684102
1.81336
-0.00514424
-0.0914296
-0.0958616
-0.00521236
-0.00442668
1.53625
-0.00156032
-0.121568
1.95398
1.23094
-0.0402595
-0.0757191
-0.0161189
-0.0237164
2.08725
1.66426
-0.0746914
2.3106
0.224818
-0.0492511
-0.00210703
-0.0618217
2.03519
-0.0557606
-0.100464
-0.0064869
-0.031184
-0.0669892
1.76805
0.000499156
-0.00905391
1.63103
1.06398
1.90199
-0.0524747
1.46135
2.00609
0.00707401
-0.0371719
-0.0200206
1.99433
-0.090027
0.0272357
1.51208
-0.0246143
1.91756
1.51131
0.786955
-0.144887
2.80926
-0.0240163
0.876585
-0.103172
1.97629
1.69886
1.54776
1.55237
-0.0927711
-0.059031
-0.0246307
-0.233986
0.179283
-0.448701
1.47289
1.1866
-0.106764
1.601
-0.0122511
-0.0114063
0.673456
0.328058
0.0265902
-0.0413779
2.21472
-0.0066905
1.57443
-0.0364861
1.99028
-0.373913
0.123744
1.92787
-0.107725
-0.0330612
1.89415
-0.0386391
-0.0717147
0.236
-0.0357409
0.656191
-0.212598
-0.00360282
-0.0959853
0.102837
-0.0259668
1.95123
-0.011884
2.29738
0.00413554
-0.0238412
-0.0966061
0.591836
-0.0432559
-0.210903
1.59354
2.3301
1.88781
1.99499
-0.0430647
0.0101361
1.6475
-0.0221107
-0.0422399
2.83375
-0.113868
-0.139186
0.222055
0.328023
0.0515488
-0.048242
-0.00317052
0.0257508
1.61775
1.6842
-0.0791128
1.67518
1.89008
-0.0148011
1.53668
2.21845
-0.0497176
1.85879
-0.429018
-0.00418038
-0.0841383
1.59611
0.0197927
-0.0451952
-0.0353537
0.0415119
1.5636
-0.0435742
-0.0474722
-0.0354584
-0.0092187
1.8244
-0.00188057
1.37413
-0.0929226
-0.0172418
1.00569
1.628
-0.112298
0.609015
-0.0313692
-0.137527
-0.0453567
1.68043
1.89486
1.70357
0.488555
-0.0108217
-0.0189933
-0.064899
-0.650925
1.66674
0.627297
1.42048
1.96875
-0.140016
1.50829
2.44363
0.141912
0.219814
-0.13613
-0.12281
1.99471
1.8896
-0.00662249
-0.109207
0.0171288
-0.265813
-0.0117655
1.96274
2.26341
-0.0359215
0.00940894
-0.000425829
-0.0272901
1.92527
-0.0153526
-0.0344037
-0.0714826
1.93709
-0.0418474
-0.168716
0.920424
0.167496
2.06391
1.39267
-0.114294
-0.0268073
-0.0237813
1.59982
0.675908
0.583643
-0.0971407
-0.0891025
-0.0445562
-0.103663
0.353672
2.14978
-0.163797
-0.0967936
1.68164
-0.00100581
-0.053678
1.14772
-0.00350213
1.63039
1.88371
1.68008
0.147682
3.01082e-05
1.9235
-0.0386424
1.63625
1.95886
1.52844
-0.0139308
1.92217
-0.0245862
0.0711919
1.67949
-0.169234
-0.118916
-0.0132662
-0.138757
0.338442
-0.0247229
-0.00250284
2.05381
1.96921
1.96405
-0.028077
1.53089
2.15244
0.164079
-0.0571783
-0.0595977
-0.0218223
-0.000396355
0.731227
-0.0982102
0.0679788
1.90083
0.63051
1.86042
-0.00695449
1.27485
-0.0136417
1.67676
1.41386
2.03771
-0.104862
-0.00785692
1.1536
-0.0340359
1.89231
-0.0403132
0.00293668
-0.0901774
-0.0511542
1.62163
1.46761
-0.0219596
0.291273
-0.0065743
-0.00253757
-0.117439
-0.0226742
1.64925
-0.177337
-0.00267931
1.32728
-0.0827027
-0.0640676
0.0577184
-0.117175
-0.0955335
-0.000778685
-0.157902
0.150447
1.91101
2.3665
-0.0205931
-0.0649029
0.638798
1.9506
0.196534
1.85408
1.87198
-0.10478
1.53929
2.03054
-0.195661
-0.0984634
2.21679
1.5074
2.09927
1.86958
1.98909
1.99968
0.0403258
0.361149
1.87741
1.97893
-0.106922
2.0151
-0.0318769
1.92037
1.79802
2.03121
0.0116941
-0.169889
-0.0466649
1.51097
1.98371
-0.0357834
-0.0051443
1.6286
0.257103
-0.0177284
2.066
0.149451
-0.0195616
-0.158202
0.0232793
-0.073319
2.02985
-0.0891465
2.0152
1.68344
2.04637
0.34545
1.69886
-0.043281
2.03823
-0.112037
1.91119
1.6883
-0.0835243
1.96975
1.77641
-0.0588731
-0.0172309
-0.0870004
1.75439
1.6261
2.00828
-0.0253105
-0.00540915
-0.0799962
0.471258
-0.0256342
0.116173
2.04375
1.88111
2.77166
1.48881
-0.0672847
2.03436
0.653837
1.94817
-0.0239463
-0.0345213
-0.0285238
-0.0795976
0.995785
0.743421
1.86073
0.18625
-0.196933
1.60619
1.68077
-0.0392612
1.72242
2.17413
1.48706
-0.0269184
1.82674
-0.0931998
-0.170721
-0.0173963
-0.00488597
1.89322
0.0824005
0.820398
-0.215056
-0.0417226
1.02258
0.00132054
1.51571
1.97211
1.46243
1.8518
0.328031
1.64398
1.97929
-0.00583339
-0.0581753
2.09254
1.5335
-0.148092
0.336257
1.56519
0.305194
1.56315
1.68033
-0.0262046
1.69667
-0.0417075
-0.0345203
1.65324
1.89523
-0.0275728
-0.101969
1.45951
-0.0054221
1.84975
1.86829
-0.022207
1.67007
-0.0328945
1.65854
2.07264
0.0733853
1.26838
2.58496
-0.770052
1.77623
2.36768
2.83274
2.56627
0.601387
0.775391
-0.0372679
0.00504813
-0.124162
2.36171
2.10027
-0.083689
-0.000742207
1.7161
1.39372
0.126258
1.89547
0.0019479
2.02862
-0.0358949
2.0932
1.47226
-0.00747843
-0.0449164
-0.00420163
1.84016
1.56291
1.31505
1.4828
2.02942
-0.0580515
-0.0364798
-0.0917352
-0.0125307
-0.0305217
1.60183
2.08701
2.13832
-0.161746
1.31392
-0.027565
-0.276356
1.88157
-0.0184729
-0.0682461
2.36011
1.54126
0.875487
0.0406206
-0.0103672
2.1916
-0.00313174
-0.00504962
-0.0770147
-0.00292187
-0.019003
2.01144
-0.0504875
0.375315
-0.168431
-0.0266294
-0.0530525
-0.00290344
1.71249
1.4358
-0.0441652
1.84752
-0.0172619
-0.0136808
-0.0360013
-0.0212996
-0.0315034
0.000186246
0.2481
-0.0335323
2.02261
-0.0480791
-0.0411693
0.641971
0.333875
-0.104541
1.65362
-0.214467
2.01564
0.0266514
-0.320325
0.0095899
0.293725
-0.0513011
0.0290278
2.07453
2.01418
2.09289
1.69343
1.76516
0.619586
2.5187
-0.0176789
2.1181
-0.016348
-0.0608928
1.87438
1.56436
0.15165
0.137027
1.92006
1.14858
1.97245
1.95511
0.834165
0.0624243
1.7268
1.83534
1.78801
1.91406
2.02477
1.89271
0.212986
-0.0976263
2.02104
0.322253
1.88222
1.88073
0.67454
1.91724
-0.0231042
1.45582
2.02899
2.06786
1.49579
-0.00332475
2.32659
-0.00269109
-0.101162
-0.0728308
-0.0454459
-0.0262185
-0.0249766
-0.00586462
-0.0603586
0.0126621
0.0173122