/*--------------------------------*- C++ -*----------------------------------*\
| =========                 |                                                 |
| \\      /  F ield         | OpenFOAM: The Open Source CFD Toolbox           |
|  \\    /   O peration     | Version:  3.0.1                                 |
|   \\  /    A nd           | Web:      www.OpenFOAM.org                      |
|    \\/     M anipulation  |                                                 |
\*---------------------------------------------------------------------------*/
FoamFile
{
    version     2.0;
    format      ascii;
    class       surfaceScalarField;
    location    "0.903887";
    object      phi;
}
// * * * * * * * * * * * * * * * * * * * * * * * * * * * * * * * * * * * * * //

dimensions      [0 3 -1 0 0 0 0];

internalField   nonuniform List<scalar> 
32369
(
1.98679e-06
8.85661e-06
-1.08434e-05
2.85433e-06
9.44407e-06
-1.03116e-05
1.99935e-06
1.24214e-05
-1.15664e-05
-3.5722e-10
1.5373e-05
-1.33733e-05
-2.81241e-06
1.82344e-05
-1.54223e-05
-6.26199e-06
2.12586e-05
-1.7809e-05
-1.01939e-05
2.47115e-05
-2.07796e-05
-1.45299e-05
2.90385e-05
-2.47025e-05
-1.94906e-05
3.4995e-05
-3.00342e-05
-2.53379e-05
4.31326e-05
-3.72853e-05
5.42067e-05
-4.70934e-05
-3.24512e-05
3.55495e-06
5.30166e-06
5.74169e-06
7.25732e-06
6.91423e-06
1.12488e-05
7.06148e-06
1.52257e-05
5.97011e-06
1.93258e-05
3.61905e-06
2.36096e-05
2.16692e-07
2.81138e-05
-3.91456e-06
3.31698e-05
-8.65285e-06
3.97332e-05
-1.41746e-05
4.86544e-05
6.0901e-05
-2.08689e-05
2.83594e-06
2.46572e-06
4.63366e-06
5.45961e-06
6.35225e-06
9.53024e-06
7.6326e-06
1.39454e-05
8.04032e-06
1.8918e-05
7.32212e-06
2.43278e-05
5.45908e-06
2.99769e-05
2.6263e-06
3.60026e-05
-8.5089e-07
4.32104e-05
-4.88245e-06
5.2686e-05
6.5652e-05
-9.63339e-06
1.75348e-06
7.12241e-07
3.4302e-06
3.78288e-06
5.25541e-06
7.70503e-06
6.86428e-06
1.23365e-05
8.01771e-06
1.77646e-05
8.49566e-06
2.38499e-05
8.08488e-06
3.03877e-05
6.76896e-06
3.73185e-05
4.82291e-06
4.51565e-05
2.50542e-06
5.50035e-05
6.82266e-05
-6.91825e-08
9.87492e-07
-2.75251e-07
2.42577e-06
2.34461e-06
4.09782e-06
6.03298e-06
5.7803e-06
1.0654e-05
7.32166e-06
1.62233e-05
8.51408e-06
2.26575e-05
9.15293e-06
2.97488e-05
9.14411e-06
3.73273e-05
8.61734e-06
4.56832e-05
7.86664e-06
5.57542e-05
6.89516e-05
7.14159e-06
3.42279e-07
-6.1753e-07
1.46423e-06
1.22266e-06
2.95342e-06
4.54379e-06
4.61911e-06
8.98832e-06
6.32381e-06
1.45186e-05
7.92903e-06
2.10522e-05
9.27038e-06
2.84075e-05
1.02304e-05
3.63673e-05
1.0856e-05
4.50576e-05
1.13742e-05
5.5236e-05
6.82499e-05
1.20759e-05
-2.33338e-08
-5.94196e-07
6.20223e-07
5.79102e-07
1.81543e-06
3.34858e-06
3.33737e-06
7.46637e-06
5.05452e-06
1.28014e-05
6.8628e-06
1.9244e-05
8.64633e-06
2.66239e-05
1.02976e-05
3.4716e-05
1.18103e-05
4.35449e-05
1.33347e-05
5.37116e-05
6.64752e-05
1.51094e-05
-2.0071e-07
-3.93486e-07
-4.71411e-08
4.25533e-07
7.65879e-07
2.53556e-06
2.03617e-06
6.19608e-06
3.61553e-06
1.1222e-05
5.45918e-06
1.74003e-05
7.48834e-06
2.45948e-05
9.61826e-06
3.25861e-05
1.18126e-05
4.13505e-05
1.4167e-05
5.13572e-05
6.37505e-05
1.68917e-05
-2.5987e-07
-1.33615e-07
-3.63028e-07
5.28691e-07
-9.97562e-10
2.17353e-06
9.43648e-07
5.25143e-06
2.29951e-06
9.86619e-06
4.06051e-06
1.56393e-05
6.18525e-06
2.247e-05
8.61307e-06
3.01583e-05
1.13009e-05
3.86627e-05
1.4236e-05
4.84221e-05
6.04474e-05
1.75391e-05
-2.72657e-07
1.39042e-07
-4.79336e-07
7.35369e-07
-4.40608e-07
2.13481e-06
1.79177e-07
4.63165e-06
1.32281e-06
8.72255e-06
2.94726e-06
1.40148e-05
5.07028e-06
2.0347e-05
7.65764e-06
2.75709e-05
1.06428e-05
3.56775e-05
1.39922e-05
4.50727e-05
5.6686e-05
1.77537e-05
-2.50862e-07
3.89904e-07
-4.91213e-07
9.75721e-07
-5.81751e-07
2.22534e-06
-2.58321e-07
4.30822e-06
6.59085e-07
7.80515e-06
2.13068e-06
1.25432e-05
4.20879e-06
1.82689e-05
6.86963e-06
2.49101e-05
1.0044e-05
3.25031e-05
1.36607e-05
4.1456e-05
5.25613e-05
1.77854e-05
-2.18535e-07
6.08439e-07
-4.61857e-07
1.21904e-06
-5.93374e-07
2.35686e-06
-4.32633e-07
4.14748e-06
2.79169e-07
7.09335e-06
1.62131e-06
1.12011e-05
3.63721e-06
1.6253e-05
6.32663e-06
2.22207e-05
9.61762e-06
2.92122e-05
1.34257e-05
3.76479e-05
4.82956e-05
1.76914e-05
-1.64472e-07
7.72911e-07
-3.64625e-07
1.41919e-06
-4.61146e-07
2.45338e-06
-3.32673e-07
4.019e-06
2.66933e-07
6.49374e-06
1.52084e-06
9.9472e-06
3.4839e-06
1.429e-05
6.16348e-06
1.95411e-05
9.51485e-06
2.58608e-05
1.34621e-05
3.37007e-05
4.38032e-05
1.79545e-05
-8.0697e-08
8.53608e-07
-2.01296e-07
1.53979e-06
-2.10576e-07
2.46266e-06
-3.12637e-08
3.83969e-06
5.69427e-07
5.89305e-06
1.78747e-06
8.72916e-06
3.71342e-06
1.2364e-05
6.38073e-06
1.68738e-05
9.75989e-06
2.24816e-05
1.37837e-05
2.96769e-05
3.92055e-05
1.83814e-05
-8.37322e-09
8.61981e-07
-5.23404e-08
1.58376e-06
4.16573e-08
2.36866e-06
3.10439e-07
3.57091e-06
9.64021e-07
5.23947e-06
2.18268e-06
7.5105e-06
4.09297e-06
1.04537e-05
6.76648e-06
1.42003e-05
1.02034e-05
1.90447e-05
1.43371e-05
2.55431e-05
3.44391e-05
1.91035e-05
6.23137e-08
7.99668e-07
1.01032e-07
1.54504e-06
2.96689e-07
2.17301e-06
6.72365e-07
3.19523e-06
1.39504e-06
4.5168e-06
2.64217e-06
6.26336e-06
4.57365e-06
8.52223e-06
7.29787e-06
1.14761e-05
1.08395e-05
1.55031e-05
1.51691e-05
2.12135e-05
2.93745e-05
2.02337e-05
1.35378e-07
6.6429e-07
2.51668e-07
1.42875e-06
5.25887e-07
1.89879e-06
9.79842e-07
2.74128e-06
1.75666e-06
3.73998e-06
3.04306e-06
4.97696e-06
5.0391e-06
6.52619e-06
7.89334e-06
8.62182e-06
1.16467e-05
1.17497e-05
1.62106e-05
1.66496e-05
2.41952e-05
2.13899e-05
1.77155e-07
4.87135e-07
3.29571e-07
1.27634e-06
6.29278e-07
1.59908e-06
1.09115e-06
2.27941e-06
1.86515e-06
2.96598e-06
3.18472e-06
3.6574e-06
5.31569e-06
4.39521e-06
8.42667e-06
5.51084e-06
1.25291e-05
7.64735e-06
1.74829e-05
1.16958e-05
1.85515e-05
2.31266e-05
1.81508e-07
3.05626e-07
3.22989e-07
1.13486e-06
5.54502e-07
1.36757e-06
8.95204e-07
1.93871e-06
1.57333e-06
2.28785e-06
2.9298e-06
2.30092e-06
5.32825e-06
1.99676e-06
8.89726e-06
1.94184e-06
1.35376e-05
3.00701e-06
1.90217e-05
6.21162e-06
1.24443e-05
2.51289e-05
1.26561e-07
1.79065e-07
1.17341e-07
1.14408e-06
3.73087e-08
1.4476e-06
7.74479e-08
1.89857e-06
7.07715e-07
1.65759e-06
2.52772e-06
4.80917e-07
5.62735e-06
-1.10286e-06
9.81315e-06
-2.24396e-06
1.49201e-05
-2.09993e-06
2.08614e-05
2.70309e-07
5.925e-06
2.73807e-05
-2.6903e-07
4.48095e-07
-6.35225e-07
1.51027e-06
-9.73566e-07
1.78594e-06
-3.40111e-07
1.26511e-06
1.73518e-06
-4.17705e-07
5.02093e-06
-2.80483e-06
8.8554e-06
-4.93733e-06
1.32123e-05
-6.60092e-06
1.82365e-05
-7.12406e-06
2.39342e-05
-5.42745e-06
-4.87796e-07
3.0347e-05
-1.02323e-06
1.47132e-06
-8.39818e-07
1.32686e-06
5.08056e-07
4.38067e-07
3.25553e-06
-1.48236e-06
6.53445e-06
-3.69662e-06
9.73344e-06
-6.00382e-06
1.31633e-05
-8.36719e-06
1.70675e-05
-1.05052e-05
2.1765e-05
-1.18215e-05
2.74674e-05
-1.11298e-05
-7.0178e-06
3.39974e-05
4.68314e-07
1.00301e-06
2.79254e-06
-9.97367e-07
5.58186e-06
-2.35126e-06
8.246e-06
-4.1465e-06
1.07269e-05
-6.17757e-06
1.31353e-05
-8.41214e-06
1.56223e-05
-1.08542e-05
1.84981e-05
-1.3381e-05
2.22994e-05
-1.56228e-05
2.76795e-05
-1.65099e-05
-1.41805e-05
3.48422e-05
5.05476e-06
-4.05175e-06
7.45508e-06
-3.39769e-06
9.58545e-06
-4.48162e-06
1.13312e-05
-5.8923e-06
1.27275e-05
-7.57382e-06
1.39287e-05
-9.6133e-06
1.51162e-05
-1.20418e-05
1.65732e-05
-1.48381e-05
1.88155e-05
-1.7865e-05
2.26915e-05
-2.0386e-05
-2.09228e-05
2.94339e-05
-5.53784e-06
-5.30556e-06
-9.06024e-06
-6.78921e-06
-1.19497e-05
-8.6769e-06
-1.46316e-05
-1.06914e-05
-1.73098e-05
-1.27441e-05
-2.02024e-05
-1.49164e-05
-2.35038e-05
-1.74782e-05
-2.73877e-05
-2.08186e-05
-3.20346e-05
-2.53873e-05
-3.76176e-05
-3.17023e-05
-4.0403e-05
-4.4308e-05
-3.66323e-06
-1.64233e-06
-7.01884e-06
-3.43359e-06
-1.02513e-05
-5.44449e-06
-1.34028e-05
-7.53989e-06
-1.65735e-05
-9.57339e-06
-1.99738e-05
-1.1516e-05
-2.38757e-05
-1.35763e-05
-2.85383e-05
-1.6156e-05
-3.42027e-05
-1.9723e-05
-4.11177e-05
-2.47874e-05
-3.19278e-05
-4.95929e-05
-1.22854e-06
-4.13792e-07
-3.14827e-06
-1.51386e-06
-5.72664e-06
-2.86612e-06
-8.78429e-06
-4.48224e-06
-1.22403e-05
-6.11737e-06
-1.61584e-05
-7.59791e-06
-2.07192e-05
-9.0156e-06
-2.61606e-05
-1.07145e-05
-3.27378e-05
-1.31457e-05
-4.07209e-05
-1.68043e-05
-2.2281e-05
-5.03677e-05
9.37235e-09
-4.23165e-07
-7.39437e-07
-7.65051e-07
-2.2473e-06
-1.35825e-06
-4.53478e-06
-2.19476e-06
-7.57651e-06
-3.07565e-06
-1.14123e-05
-3.76213e-06
-1.61692e-05
-4.25864e-06
-2.20048e-05
-4.87902e-06
-2.90784e-05
-6.07214e-06
-3.76657e-05
-8.21699e-06
-1.16713e-05
-4.82754e-05
2.31404e-07
-6.54569e-07
1.74137e-07
-7.07784e-07
-3.24961e-07
-8.59156e-07
-1.50916e-06
-1.01056e-06
-3.52012e-06
-1.06469e-06
-6.52629e-06
-7.55963e-07
-1.07968e-05
1.18327e-08
-1.65101e-05
8.34356e-07
-2.36727e-05
1.09046e-06
-3.23669e-05
4.77214e-07
-1.30238e-06
-4.27359e-05
2.18133e-07
-8.72702e-07
3.30941e-07
-8.20592e-07
3.29014e-07
-8.57228e-07
-1.5607e-08
-6.65938e-07
-8.95251e-07
-1.85049e-07
-2.5315e-06
8.8029e-07
-5.38718e-06
2.86751e-06
-1.00732e-05
5.52035e-06
-1.67977e-05
7.815e-06
-2.53452e-05
9.02466e-06
9.13455e-06
-3.57821e-05
1.9782e-07
-1.07052e-06
3.64671e-07
-9.87443e-07
5.1921e-07
-1.01177e-06
5.15843e-07
-6.62572e-07
2.08839e-07
1.21956e-07
-5.95315e-07
1.68444e-06
-2.22133e-06
4.49353e-06
-5.40989e-06
8.70891e-06
-1.0893e-05
1.32981e-05
-1.8572e-05
1.67037e-05
1.87192e-05
-2.81566e-05
1.91603e-07
-1.26212e-06
4.09135e-07
-1.20498e-06
6.54056e-07
-1.25669e-06
8.42954e-07
-8.5147e-07
8.84408e-07
8.05016e-08
6.34769e-07
1.93408e-06
-1.04755e-07
5.23305e-06
-1.88335e-06
1.04875e-05
-5.73047e-06
1.71452e-05
-1.22155e-05
2.31887e-05
2.7305e-05
-2.08014e-05
1.9132e-07
-1.45344e-06
4.33007e-07
-1.44666e-06
7.26262e-07
-1.54994e-06
1.02371e-06
-1.14892e-06
1.30161e-06
-1.97395e-07
1.46047e-06
1.77523e-06
1.33036e-06
5.36316e-06
6.03836e-07
1.1214e-05
-1.59911e-06
1.93482e-05
-6.37882e-06
2.79684e-05
3.45315e-05
-1.36053e-05
1.61806e-07
-1.61525e-06
4.23174e-07
-1.70803e-06
7.35269e-07
-1.86204e-06
1.06965e-06
-1.4833e-06
1.46638e-06
-5.94125e-07
1.88869e-06
1.35291e-06
2.22561e-06
5.02625e-06
2.23476e-06
1.12049e-05
1.34075e-06
2.02422e-05
-1.60775e-06
3.09169e-05
4.03765e-05
-7.45273e-06
1.40315e-07
-1.75557e-06
4.56449e-07
-2.02416e-06
6.51261e-07
-2.05685e-06
9.85976e-07
-1.81802e-06
1.40875e-06
-1.0169e-06
1.94199e-06
8.19672e-07
2.56809e-06
4.40014e-06
3.12988e-06
1.06431e-05
3.20134e-06
2.01707e-05
1.90457e-06
3.22137e-05
4.41865e-05
-1.90542e-06
1.0951e-07
-1.86508e-06
3.11564e-07
-2.22622e-06
5.21442e-07
-2.26673e-06
7.99873e-07
-2.09645e-06
1.143e-06
-1.36002e-06
1.62724e-06
3.35426e-07
2.32416e-06
3.70323e-06
3.21337e-06
9.75387e-06
3.99655e-06
1.93875e-05
4.01149e-06
3.21987e-05
4.57448e-05
2.45312e-06
6.23965e-08
-1.92747e-06
2.074e-07
-2.37122e-06
3.52525e-07
-2.41185e-06
5.09844e-07
-2.25377e-06
7.21464e-07
-1.57164e-06
1.03219e-06
2.46952e-08
1.56087e-06
3.17455e-06
2.47324e-06
8.84151e-06
3.75074e-06
1.811e-05
4.78292e-06
3.11666e-05
4.61405e-05
4.38728e-06
-8.90201e-10
-1.92658e-06
5.9257e-08
-2.43137e-06
1.00298e-07
-2.45289e-06
1.29999e-07
-2.28347e-06
1.61904e-07
-1.60355e-06
2.2737e-07
-4.07701e-08
4.23624e-07
2.9783e-06
1.01432e-06
8.25081e-06
2.30203e-06
1.68223e-05
4.05633e-06
2.94122e-05
4.49401e-05
5.25668e-06
-6.43132e-08
-1.86227e-06
-1.08526e-07
-2.38716e-06
-1.99734e-07
-2.36168e-06
-3.42751e-07
-2.14045e-06
-5.39562e-07
-1.40674e-06
-7.87562e-07
2.0723e-07
-1.01053e-06
3.20126e-06
-9.1402e-07
8.1543e-06
1.2304e-08
1.5896e-05
2.04569e-06
2.73789e-05
4.28172e-05
4.16861e-06
-1.36709e-07
-1.72556e-06
-3.08999e-07
-2.21487e-06
-5.61424e-07
-2.10926e-06
-9.21007e-07
-1.78087e-06
-1.41127e-06
-9.16474e-07
-2.04811e-06
8.44072e-07
-2.70026e-06
3.85341e-06
-3.07142e-06
8.52546e-06
-2.70842e-06
1.5533e-05
-1.00781e-06
2.56783e-05
3.9504e-05
2.30537e-06
-2.20653e-07
-1.50491e-06
-5.43874e-07
-1.89165e-06
-9.90608e-07
-1.66253e-06
-1.62075e-06
-1.15073e-06
-2.49189e-06
-4.53278e-08
-3.54959e-06
1.90177e-06
-4.59912e-06
4.90294e-06
-5.42055e-06
9.34689e-06
-5.6631e-06
1.57755e-05
-4.81945e-06
2.48346e-05
3.71951e-05
-2.51053e-06
-3.14912e-07
-1.18999e-06
-8.07239e-07
-1.39932e-06
-1.48615e-06
-9.83616e-07
-2.44591e-06
-1.90961e-07
-3.67082e-06
1.17958e-06
-5.03233e-06
3.26328e-06
-6.42726e-06
6.29787e-06
-7.70557e-06
1.06252e-05
-8.55392e-06
1.66239e-05
-8.40412e-06
2.46848e-05
3.5058e-05
-6.26702e-06
-4.17429e-07
-7.72565e-07
-1.07635e-06
-7.40403e-07
-1.98105e-06
-7.8916e-08
-3.15432e-06
9.82316e-07
-4.55478e-06
2.58003e-06
-6.15729e-06
4.86579e-06
-7.90739e-06
8.04798e-06
-9.64787e-06
1.23657e-05
-1.11112e-05
1.80872e-05
-1.18871e-05
2.54607e-05
3.45788e-05
-1.14079e-05
-4.873e-07
-2.85265e-07
-1.25313e-06
2.54275e-08
-2.21916e-06
8.87115e-07
-3.42954e-06
2.1927e-06
-4.94236e-06
4.09285e-06
-6.75078e-06
6.6742e-06
-8.75374e-06
1.00509e-05
-1.07873e-05
1.43992e-05
-1.26392e-05
1.99391e-05
-1.40196e-05
2.68412e-05
3.50711e-05
-1.45119e-05
-4.9277e-07
2.07505e-07
-1.21687e-06
7.49524e-07
-2.1415e-06
1.81175e-06
-3.37555e-06
3.42675e-06
-4.94046e-06
5.65775e-06
-6.75801e-06
8.49176e-06
-8.69216e-06
1.19851e-05
-1.05952e-05
1.63022e-05
-1.23042e-05
2.16481e-05
-1.36243e-05
2.81612e-05
3.57815e-05
-1.43346e-05
-4.66867e-07
6.74372e-07
-1.15099e-06
1.43365e-06
-2.09437e-06
2.75513e-06
-3.31955e-06
4.65193e-06
-4.71915e-06
7.05735e-06
-6.15114e-06
9.92375e-06
-7.47713e-06
1.33111e-05
-8.56846e-06
1.73936e-05
-9.26667e-06
2.23463e-05
-9.23789e-06
2.81325e-05
3.45271e-05
-7.98356e-06
-6.84757e-07
1.35913e-06
-1.49138e-06
2.24027e-06
-2.54833e-06
3.81208e-06
-3.59731e-06
5.70091e-06
-4.44647e-06
7.90651e-06
-4.98255e-06
1.04598e-05
-5.13181e-06
1.34603e-05
-4.7709e-06
1.70327e-05
-3.69084e-06
2.12663e-05
-1.291e-06
2.57326e-05
2.95488e-05
3.68728e-06
-2.69262e-06
-3.85004e-06
-4.51958e-06
-4.71097e-06
-4.37828e-06
-3.53175e-06
-2.11317e-06
8.14514e-08
3.48273e-06
8.82939e-06
1.74554e-05
-1.23044e-05
-9.73208e-06
2.20365e-05
-1.98428e-05
-1.15718e-05
1.91102e-05
-2.62038e-05
-1.39484e-05
2.03094e-05
-3.1924e-05
-1.6123e-05
2.18432e-05
-3.7196e-05
-1.79847e-05
2.32567e-05
-4.2486e-05
-1.95432e-05
2.48333e-05
-4.81658e-05
-2.0813e-05
2.64927e-05
-5.45994e-05
-2.17665e-05
2.82001e-05
-6.20817e-05
-2.23116e-05
2.97939e-05
-7.09232e-05
-2.22612e-05
3.11028e-05
-2.12646e-05
3.18792e-05
-8.15378e-05
-8.82744e-06
-9.04644e-07
-1.62284e-05
-4.17092e-06
-2.30167e-05
-7.16009e-06
-2.92903e-05
-9.8494e-06
-3.52033e-05
-1.20718e-05
-4.10649e-05
-1.36816e-05
-4.72751e-05
-1.46028e-05
-5.42513e-05
-1.47902e-05
-6.2398e-05
-1.41649e-05
-7.21342e-05
-1.2525e-05
-9.52512e-06
-8.38738e-05
-4.13228e-06
3.22763e-06
-9.38868e-06
1.08549e-06
-1.55e-05
-1.04881e-06
-2.19087e-05
-3.4407e-06
-2.84646e-05
-5.51584e-06
-3.52358e-05
-6.9104e-06
-4.24497e-05
-7.38888e-06
-5.04134e-05
-6.82658e-06
-5.94771e-05
-5.10109e-06
-7.00081e-05
-1.99397e-06
2.94121e-06
-8.24744e-05
-1.65267e-06
4.88031e-06
-4.80236e-06
4.23517e-06
-9.4719e-06
3.62074e-06
-1.52511e-05
2.33846e-06
-2.18447e-05
1.07781e-06
-2.89791e-05
2.23939e-07
-3.65985e-05
2.30511e-07
-4.49121e-05
1.48702e-06
-5.43046e-05
4.29146e-06
-6.52419e-05
8.94327e-06
1.58574e-05
-7.81581e-05
-1.337e-06
6.21731e-06
-3.40519e-06
6.30336e-06
-6.52337e-06
6.73892e-06
-1.08555e-05
6.6706e-06
-1.64024e-05
6.62471e-06
-2.30534e-05
6.87495e-06
-3.06835e-05
7.86057e-06
-3.92557e-05
1.00592e-05
-4.88961e-05
1.39319e-05
-5.98834e-05
1.99306e-05
2.8634e-05
-7.266e-05
-1.21472e-06
7.43202e-06
-3.1482e-06
8.23684e-06
-5.6578e-06
9.24853e-06
-9.12821e-06
1.0141e-05
-1.37044e-05
1.12009e-05
-1.94391e-05
1.26096e-05
-2.63241e-05
1.47456e-05
-3.43437e-05
1.80788e-05
-4.35546e-05
2.31428e-05
-5.41405e-05
3.05165e-05
4.09478e-05
-6.64543e-05
-1.09459e-06
8.52662e-06
-2.72248e-06
9.86473e-06
-4.92744e-06
1.14535e-05
-7.88555e-06
1.30991e-05
-1.17609e-05
1.50763e-05
-1.66971e-05
1.75458e-05
-2.27776e-05
2.0826e-05
-3.00524e-05
2.53537e-05
-3.85927e-05
3.1683e-05
-4.85251e-05
4.04489e-05
5.24304e-05
-6.00077e-05
-1.04545e-06
9.57207e-06
-2.53735e-06
1.13566e-05
-4.47773e-06
1.33939e-05
-7.04922e-06
1.56706e-05
-1.03952e-05
1.84223e-05
-1.46718e-05
2.18223e-05
-2.00044e-05
2.61587e-05
-2.64991e-05
3.18483e-05
-3.42551e-05
3.94391e-05
-4.34182e-05
4.9612e-05
6.32364e-05
-5.42242e-05
-9.74199e-07
1.05463e-05
-2.33866e-06
1.27211e-05
-4.08512e-06
1.51403e-05
-6.35396e-06
1.79395e-05
-9.28297e-06
2.13514e-05
-1.30171e-05
2.55565e-05
-1.76993e-05
3.08409e-05
-2.34645e-05
3.76136e-05
-3.04419e-05
4.64165e-05
-3.87993e-05
5.79694e-05
7.32094e-05
-4.87723e-05
-7.93792e-07
1.13401e-05
-1.9746e-06
1.39019e-05
-3.51604e-06
1.66818e-05
-5.52011e-06
1.99435e-05
-8.09613e-06
2.39274e-05
-1.13837e-05
2.88441e-05
-1.5518e-05
3.49751e-05
-2.06463e-05
4.27419e-05
-2.69181e-05
5.26883e-05
-3.45048e-05
6.5556e-05
8.22906e-05
-4.3586e-05
-6.34789e-07
1.19748e-05
-1.64919e-06
1.49163e-05
-2.9859e-06
1.80185e-05
-4.73076e-06
2.16884e-05
-6.98709e-06
2.61837e-05
-9.867e-06
3.1724e-05
-1.35061e-05
3.86142e-05
-1.80402e-05
4.7276e-05
-2.36279e-05
5.8276e-05
-3.04351e-05
7.23633e-05
9.05131e-05
-3.86576e-05
-6.08442e-07
1.25833e-05
-1.5125e-06
1.58204e-05
-2.67081e-06
1.91768e-05
-4.17815e-06
2.31957e-05
-6.11967e-06
2.81252e-05
-8.60248e-06
3.42068e-05
-1.1752e-05
4.17636e-05
-1.56963e-05
5.12204e-05
-2.05859e-05
6.31656e-05
-2.65911e-05
7.83685e-05
9.7835e-05
-3.3913e-05
-5.13574e-07
1.30969e-05
-1.26782e-06
1.65746e-05
-2.24563e-06
2.01546e-05
-3.51629e-06
2.44664e-05
-5.15459e-06
2.97635e-05
-7.25608e-06
3.63083e-05
-9.93141e-06
4.4439e-05
-1.33056e-05
5.45946e-05
-1.75169e-05
6.73769e-05
-2.27399e-05
8.35915e-05
0.000104288
-2.9193e-05
-2.95054e-07
1.33919e-05
-8.38021e-07
1.71176e-05
-1.58365e-06
2.09002e-05
-2.5922e-06
2.54749e-05
-3.91671e-06
3.1088e-05
-5.6385e-06
3.80301e-05
-7.85055e-06
4.6651e-05
-1.06604e-05
5.74044e-05
-1.41911e-05
7.09076e-05
-1.8585e-05
8.79853e-05
0.000109702
-2.39985e-05
-2.1349e-07
1.36054e-05
-5.94767e-07
1.74988e-05
-1.12653e-06
2.1432e-05
-1.85521e-06
2.62036e-05
-2.82899e-06
3.20618e-05
-4.12179e-06
3.93229e-05
-5.80781e-06
4.83371e-05
-7.97856e-06
5.95752e-05
-1.0728e-05
7.36571e-05
-1.41815e-05
9.14388e-05
0.000114017
-1.84967e-05
-9.0986e-08
1.36964e-05
-2.69848e-07
1.76777e-05
-5.48481e-07
2.17106e-05
-9.61458e-07
2.66166e-05
-1.55361e-06
3.2654e-05
-2.37298e-06
4.01423e-05
-3.48336e-06
4.94474e-05
-4.94787e-06
6.10397e-05
-6.82446e-06
7.55337e-05
-9.20576e-06
9.38201e-05
0.00011702
-1.22093e-05
1.54622e-07
1.35418e-05
2.73539e-07
1.75588e-05
3.15472e-07
2.16687e-05
2.64858e-07
2.66672e-05
1.10816e-07
3.2808e-05
-1.90336e-07
4.04434e-05
-6.62e-07
4.99191e-05
-1.33324e-06
6.17109e-05
-2.2343e-06
7.64347e-05
-3.40159e-06
9.49874e-05
0.000118465
-4.846e-06
3.41279e-07
1.32005e-05
7.47796e-07
1.71523e-05
1.13666e-06
2.12798e-05
1.51414e-06
2.62897e-05
1.86783e-06
3.24543e-05
2.188e-06
4.01232e-05
2.48162e-06
4.96255e-05
2.76563e-06
6.14269e-05
3.05916e-06
7.61412e-05
3.37874e-06
9.46678e-05
0.000118149
3.69483e-06
5.67283e-07
1.26332e-05
1.31334e-06
1.64062e-05
2.10217e-06
2.0491e-05
2.95704e-06
2.54349e-05
3.89123e-06
3.15201e-05
4.93704e-06
3.90774e-05
6.14665e-06
4.84159e-05
7.58677e-06
5.99868e-05
9.33175e-06
7.43962e-05
1.14457e-05
9.25539e-05
0.000115632
1.39625e-05
8.39415e-07
1.17938e-05
1.97268e-06
1.5273e-05
3.21961e-06
1.92441e-05
4.62652e-06
2.40279e-05
6.23906e-06
2.99076e-05
8.14738e-06
3.71691e-05
1.04578e-05
4.61055e-05
1.32991e-05
5.71455e-05
1.68007e-05
7.08946e-05
2.11105e-05
8.82441e-05
0.000110346
2.63965e-05
1.1393e-06
1.06545e-05
2.68186e-06
1.37304e-05
4.42909e-06
1.74968e-05
6.44936e-06
2.20077e-05
8.8498e-06
2.75071e-05
1.17844e-05
3.42345e-05
1.54274e-05
4.24625e-05
1.99623e-05
5.26106e-05
2.55674e-05
6.52895e-05
3.24725e-05
8.13389e-05
0.000101857
4.0961e-05
1.32194e-06
9.33256e-06
3.26834e-06
1.1784e-05
5.52563e-06
1.52395e-05
8.21924e-06
1.93141e-05
1.15412e-05
2.41852e-05
1.57053e-05
3.00704e-05
2.09289e-05
3.72388e-05
2.74229e-05
4.61166e-05
3.54321e-05
5.72804e-05
4.52791e-05
7.14919e-05
8.98068e-05
5.73297e-05
1.36814e-06
7.96442e-06
3.77164e-06
9.38049e-06
6.3558e-06
1.26554e-05
9.74712e-06
1.59227e-05
1.41117e-05
1.98206e-05
1.9662e-05
2.45201e-05
2.66082e-05
3.02926e-05
3.51989e-05
3.75259e-05
4.57682e-05
4.67111e-05
5.8763e-05
5.84971e-05
7.38159e-05
7.4754e-05
-2.31929e-06
1.02837e-05
2.29312e-07
6.83189e-06
4.37837e-06
8.50632e-06
9.38709e-06
1.0914e-05
1.54555e-05
1.37522e-05
2.28001e-05
1.71755e-05
3.16301e-05
2.14627e-05
4.23236e-05
2.68324e-05
5.53677e-05
3.3667e-05
7.13787e-05
4.24861e-05
5.40639e-05
9.11307e-05
3.71875e-06
1.83178e-05
4.99739e-06
1.78316e-05
1.5493e-06
2.37575e-05
-4.84423e-06
2.82367e-05
-1.26025e-05
3.1015e-05
-2.08144e-05
3.30452e-05
-2.93032e-05
3.49815e-05
-3.84645e-05
3.73613e-05
-4.8565e-05
3.98944e-05
-5.98545e-05
4.23923e-05
4.46614e-05
-7.26366e-05
8.07631e-06
1.02415e-05
1.15659e-05
1.4342e-05
1.21492e-05
2.31742e-05
9.86121e-06
3.05247e-05
4.33299e-06
3.65432e-05
-3.76518e-06
4.11434e-05
-1.31629e-05
4.43792e-05
-2.3406e-05
4.76044e-05
-3.47377e-05
5.12261e-05
-4.73759e-05
5.50305e-05
5.89387e-05
-6.16533e-05
5.12111e-06
5.12036e-06
8.18217e-06
1.1281e-05
1.0774e-05
2.05824e-05
1.14501e-05
2.98485e-05
9.15157e-06
3.88418e-05
3.72701e-06
4.65679e-05
-4.08796e-06
5.21942e-05
-1.32884e-05
5.68049e-05
-2.37563e-05
6.16939e-05
-3.55726e-05
6.68468e-05
7.21865e-05
-4.88203e-05
4.22367e-06
8.96693e-07
6.54331e-06
8.96132e-06
9.00028e-06
1.81254e-05
1.04732e-05
2.83756e-05
1.00139e-05
3.93011e-05
7.0459e-06
4.95359e-05
1.54473e-06
5.76954e-05
-5.79556e-06
6.41452e-05
-1.45198e-05
7.04182e-05
-2.46061e-05
7.69331e-05
8.36868e-05
-3.61064e-05
3.01454e-06
-2.11785e-06
5.69564e-06
6.28023e-06
8.1443e-06
1.56767e-05
9.75804e-06
2.67619e-05
1.00886e-05
3.89705e-05
8.64965e-06
5.09749e-05
5.14221e-06
6.12028e-05
-2.23704e-07
6.95111e-05
-7.00442e-06
7.71989e-05
-1.50346e-05
8.49633e-05
9.29459e-05
-2.42937e-05
1.97758e-06
-4.09543e-06
4.6744e-06
3.58341e-06
7.39005e-06
1.29611e-05
9.34535e-06
2.48066e-05
1.0265e-05
3.80509e-05
9.81856e-06
5.14213e-05
7.74023e-06
6.32812e-05
4.08374e-06
7.31676e-05
-8.94579e-07
8.21772e-05
-6.99526e-06
9.10639e-05
9.9916e-05
-1.39654e-05
1.05812e-06
-5.15355e-06
3.57276e-06
1.06877e-06
6.39631e-06
1.01375e-05
8.77393e-06
2.2429e-05
1.02794e-05
3.65454e-05
1.06597e-05
5.10409e-05
9.71409e-06
6.42268e-05
7.45838e-06
7.54233e-05
4.08451e-06
8.55511e-05
-3.14856e-07
9.54633e-05
0.000105301
-5.69977e-06
5.84724e-07
-5.73828e-06
2.61923e-06
-9.65738e-07
5.34468e-06
7.41209e-06
7.92757e-06
1.98461e-05
9.89191e-06
3.45811e-05
1.09758e-05
4.9957e-05
1.10142e-05
6.41884e-05
1.00088e-05
7.64287e-05
8.1095e-06
8.74504e-05
5.46295e-06
9.81099e-05
0.00010848
2.28385e-06
4.42463e-07
-6.18074e-06
1.92436e-06
-2.44763e-06
4.41072e-06
4.92573e-06
7.08673e-06
1.71701e-05
9.38955e-06
3.22782e-05
1.1055e-05
4.82915e-05
1.19472e-05
6.32963e-05
1.2045e-05
7.6331e-05
1.14842e-05
8.80111e-05
1.03376e-05
9.92565e-05
0.000110162
8.65549e-06
4.05883e-07
-6.58662e-06
1.49411e-06
-3.53586e-06
3.62111e-06
2.79873e-06
6.28613e-06
1.45051e-05
8.84668e-06
2.97177e-05
1.10162e-05
4.6122e-05
1.26599e-05
6.16526e-05
1.37629e-05
7.52279e-05
1.4435e-05
8.7339e-05
1.48083e-05
9.88831e-05
0.000110056
1.49148e-05
3.30654e-07
-6.91728e-06
1.24796e-06
-4.45316e-06
3.01881e-06
1.02788e-06
5.61791e-06
1.1906e-05
8.40087e-06
2.69347e-05
1.10156e-05
4.35072e-05
1.33449e-05
5.93233e-05
1.53574e-05
7.32154e-05
1.71749e-05
8.55215e-05
1.8955e-05
9.7103e-05
0.000108185
2.08254e-05
2.83809e-07
-7.20108e-06
9.8648e-07
-5.15583e-06
2.42355e-06
-4.09194e-07
4.85097e-06
9.47856e-06
7.75607e-06
2.40296e-05
1.07581e-05
4.05052e-05
1.37339e-05
5.63475e-05
1.66549e-05
7.02944e-05
1.96121e-05
8.25643e-05
2.27797e-05
9.39355e-05
0.000104577
2.63879e-05
1.76497e-07
-7.37758e-06
7.0168e-07
-5.68102e-06
1.89346e-06
-1.60098e-06
4.11613e-06
7.25589e-06
7.08604e-06
2.10597e-05
1.04364e-05
3.71549e-05
1.40325e-05
5.27514e-05
1.78287e-05
6.64982e-05
2.1908e-05
7.8485e-05
2.63984e-05
8.94451e-05
9.95654e-05
3.14101e-05
3.64881e-08
-7.41407e-06
4.28212e-07
-6.07274e-06
1.41298e-06
-2.58575e-06
3.43753e-06
5.23134e-06
6.4566e-06
1.80406e-05
1.01054e-05
3.3506e-05
1.42901e-05
4.85668e-05
1.89546e-05
6.18337e-05
2.41529e-05
7.32866e-05
3.00471e-05
8.35509e-05
9.28691e-05
3.67434e-05
-8.6963e-08
-7.32711e-06
1.1707e-07
-6.27677e-06
8.81817e-07
-3.35049e-06
2.65598e-06
3.45718e-06
5.61924e-06
1.50774e-05
9.55671e-06
2.95685e-05
1.42598e-05
4.38637e-05
1.98249e-05
5.62686e-05
2.62231e-05
6.68884e-05
3.35913e-05
7.61828e-05
8.44422e-05
4.20182e-05
-2.04972e-07
-7.12213e-06
-2.28e-07
-6.25375e-06
2.83366e-07
-3.86186e-06
1.81597e-06
1.92457e-06
4.65452e-06
1.22388e-05
8.76895e-06
2.54541e-05
1.41137e-05
3.85189e-05
2.05162e-05
4.98661e-05
2.81553e-05
5.92492e-05
3.70752e-05
6.72629e-05
7.39061e-05
4.76114e-05
-3.44602e-07
-6.77753e-06
-6.01461e-07
-5.99689e-06
-4.23594e-07
-4.03973e-06
8.49762e-07
6.51218e-07
3.51598e-06
9.57262e-06
7.7291e-06
2.1241e-05
1.3528e-05
3.27201e-05
2.09316e-05
4.24626e-05
2.98482e-05
5.03325e-05
4.02863e-05
5.68248e-05
6.14744e-05
5.27179e-05
-5.15453e-07
-6.26208e-06
-1.03281e-06
-5.47953e-06
-1.22928e-06
-3.84326e-06
-4.67304e-07
-1.1076e-07
2.04277e-06
7.06254e-06
6.29289e-06
1.69909e-05
1.25594e-05
2.64535e-05
2.08138e-05
3.42082e-05
3.09233e-05
4.0223e-05
4.28715e-05
4.48766e-05
4.78617e-05
5.64843e-05
-7.46597e-07
-5.51548e-06
-1.59368e-06
-4.63245e-06
-2.22551e-06
-3.21143e-06
-2.12045e-06
-2.15816e-07
-5.20336e-08
4.99413e-06
4.3194e-06
1.26194e-05
1.09852e-05
1.97877e-05
2.00736e-05
2.51199e-05
3.13671e-05
2.89295e-05
4.46802e-05
3.15635e-05
3.24214e-05
6.01205e-05
-1.09404e-06
-4.42144e-06
-2.39686e-06
-3.32962e-06
-3.61006e-06
-1.99823e-06
-4.14518e-06
3.19305e-07
-2.76821e-06
3.61716e-06
1.58524e-06
8.26598e-06
8.5662e-06
1.28067e-05
1.82677e-05
1.54184e-05
3.03222e-05
1.6875e-05
4.43932e-05
1.74925e-05
1.63449e-05
6.04697e-05
-1.51731e-06
-2.90413e-06
-3.59393e-06
-1.25301e-06
-5.6382e-06
4.60396e-08
-6.78006e-06
1.46117e-06
-5.93041e-06
2.7675e-06
-2.08933e-06
4.4249e-06
5.04196e-06
5.67545e-06
1.49646e-05
5.49576e-06
2.70473e-05
4.79222e-06
4.12828e-05
3.25697e-06
-7.34882e-07
5.83626e-05
-4.1166e-06
1.21247e-06
-6.34619e-06
9.76585e-07
-8.07281e-06
1.77266e-06
-8.28584e-06
1.6742e-06
-6.34185e-06
8.23509e-07
-1.05969e-06
-8.57256e-07
7.95458e-06
-3.33882e-06
1.90912e-05
-5.64082e-06
3.24667e-05
-8.58327e-06
4.86226e-05
-1.2899e-05
-1.91477e-05
6.70355e-05
-3.69019e-07
1.58149e-06
1.04965e-06
-4.42082e-07
4.59808e-06
-1.77578e-06
1.03824e-05
-4.11012e-06
1.79862e-05
-6.78031e-06
2.69703e-05
-9.84137e-06
3.68816e-05
-1.32501e-05
4.84728e-05
-1.7232e-05
6.22312e-05
-2.23417e-05
7.83829e-05
-2.90507e-05
-3.80064e-05
9.72416e-05
1.18652e-05
1.8255e-05
2.49855e-05
3.17895e-05
3.87613e-05
4.60955e-05
5.4308e-05
6.39084e-05
7.52336e-05
8.8669e-05
0.000104727
-5.30403e-06
1.93507e-05
-1.40467e-05
-1.02106e-05
1.77337e-05
-1.28271e-05
-1.73524e-05
2.10725e-05
-1.39307e-05
-2.4717e-05
2.27696e-05
-1.5405e-05
-3.22206e-05
2.49997e-05
-1.74961e-05
-4.0035e-05
2.8121e-05
-2.03066e-05
-4.85106e-05
3.24232e-05
-2.39475e-05
-5.80469e-05
3.81765e-05
-2.86403e-05
-6.90863e-05
4.57632e-05
-3.47237e-05
-8.2163e-05
5.57434e-05
-4.26667e-05
6.89769e-05
-5.30884e-05
-9.80516e-05
2.56372e-06
1.6787e-05
2.75991e-06
1.75375e-05
-9.51069e-07
2.47835e-05
-6.44141e-06
2.82599e-05
-1.34787e-05
3.2037e-05
-2.15409e-05
3.61833e-05
-3.05763e-05
4.14585e-05
-4.08188e-05
4.84191e-05
-5.26713e-05
5.76157e-05
-6.66759e-05
6.9748e-05
8.58153e-05
-8.35143e-05
2.44193e-06
1.4345e-05
2.89002e-06
1.70894e-05
1.96713e-06
2.57064e-05
-5.15912e-07
3.0743e-05
-5.19036e-06
3.67114e-05
-1.15224e-05
4.25153e-05
-1.92867e-05
4.92228e-05
-2.84264e-05
5.75589e-05
-3.91422e-05
6.83314e-05
-5.18364e-05
8.24422e-05
0.000101117
-6.71382e-05
1.75758e-06
1.25875e-05
1.76237e-06
1.70846e-05
1.77553e-06
2.56932e-05
7.24047e-07
3.17945e-05
-1.95237e-06
3.93878e-05
-6.1102e-06
4.66732e-05
-1.18261e-05
5.49387e-05
-1.90101e-05
6.47428e-05
-2.77062e-05
7.70276e-05
-3.81099e-05
9.28458e-05
0.000113587
-5.058e-05
1.38687e-06
1.12006e-05
1.38543e-06
1.7086e-05
1.59353e-06
2.54851e-05
1.01495e-06
3.2373e-05
-4.38125e-07
4.08409e-05
-2.94047e-06
4.91755e-05
-6.73252e-06
5.87308e-05
-1.18388e-05
6.98491e-05
-1.82893e-05
8.3478e-05
-2.61659e-05
0.000100722
0.000123045
-3.56242e-05
1.28389e-06
9.91671e-06
1.63009e-06
1.67398e-05
2.08854e-06
2.50267e-05
1.81938e-06
3.26422e-05
1.05977e-06
4.16005e-05
-4.29035e-07
5.06643e-05
-2.8029e-06
6.11046e-05
-6.18576e-06
7.3232e-05
-1.0643e-05
8.79353e-05
-1.62112e-05
0.000106291
0.000129733
-2.28985e-05
1.26002e-06
8.65669e-06
1.94592e-06
1.60539e-05
2.67237e-06
2.43003e-05
2.76475e-06
3.25498e-05
2.51751e-06
4.18478e-05
1.72957e-06
5.14523e-05
3.43398e-07
6.24908e-05
-1.72202e-06
7.52974e-05
-4.55832e-06
9.07716e-05
-8.2032e-06
0.000109935
0.000134227
-1.2697e-05
1.10382e-06
7.55287e-06
2.03332e-06
1.51244e-05
2.98225e-06
2.33513e-05
3.42973e-06
3.21023e-05
3.62855e-06
4.16489e-05
3.40555e-06
5.16753e-05
2.80461e-06
6.30917e-05
1.75992e-06
7.63421e-05
2.40032e-07
9.22915e-05
-1.74418e-06
0.00011192
0.000136603
-4.12032e-06
1.04436e-06
6.50851e-06
2.1808e-06
1.3988e-05
3.31687e-06
2.22152e-05
4.09669e-06
3.13225e-05
4.67408e-06
4.10715e-05
4.92966e-06
5.14197e-05
4.94956e-06
6.30718e-05
4.71352e-06
7.65781e-05
4.23268e-06
9.27723e-05
3.5334e-06
0.000112619
0.000137419
2.71739e-06
1.15133e-06
5.35718e-06
2.51773e-06
1.26216e-05
3.89979e-06
2.08332e-05
5.02819e-06
3.01941e-05
5.96077e-06
4.0139e-05
6.63025e-06
5.07502e-05
7.14263e-06
6.25595e-05
7.5293e-06
7.61914e-05
7.83185e-06
9.24698e-05
8.11179e-06
0.000112339
0.000137113
8.41806e-06
1.16866e-06
4.18852e-06
2.67952e-06
1.11107e-05
4.29026e-06
1.92224e-05
5.76619e-06
2.87182e-05
7.06318e-06
3.8842e-05
8.14032e-06
4.96731e-05
9.11151e-06
6.15883e-05
1.00497e-05
7.52533e-05
1.10428e-05
9.14767e-05
1.21839e-05
0.000111198
0.000135639
1.36575e-05
1.04489e-06
3.14363e-06
2.56568e-06
9.58993e-06
4.30529e-06
1.74828e-05
6.05608e-06
2.69674e-05
7.69909e-06
3.7199e-05
9.2037e-06
4.81684e-05
1.06635e-05
6.01285e-05
1.21677e-05
7.3749e-05
1.3836e-05
8.98083e-05