/*--------------------------------*- C++ -*----------------------------------*\
| =========                 |                                                 |
| \\      /  F ield         | OpenFOAM: The Open Source CFD Toolbox           |
|  \\    /   O peration     | Version:  3.0.1                                 |
|   \\  /    A nd           | Web:      www.OpenFOAM.org                      |
|    \\/     M anipulation  |                                                 |
\*---------------------------------------------------------------------------*/
FoamFile
{
    version     2.0;
    format      ascii;
    class       volScalarField;
    location    "0.0078669";
    object      epsilon;
}
// * * * * * * * * * * * * * * * * * * * * * * * * * * * * * * * * * * * * * //

dimensions      [0 2 -3 0 0 0 0];

internalField   nonuniform List<scalar> 
21246
(
1241.38
413.189
123.71
25.103
5.11319
1.15058
0.289086
0.0858496
0.0339336
0.0189836
0.0139258
1011.83
256.347
69.4948
18.8608
5.03215
1.32954
0.349734
0.0993189
0.0362514
0.0192386
0.0138873
977.372
251.767
61.9635
19.1943
5.60181
1.59136
0.430374
0.120361
0.0411564
0.0202609
0.0139667
903.555
231.963
56.1213
18.7597
5.62959
1.6947
0.474694
0.134681
0.0450484
0.0213073
0.0143485
824.777
201.629
50.8704
17.5892
5.29506
1.67471
0.48491
0.141546
0.0476879
0.0222284
0.0147322
759.554
173.914
46.2351
16.1392
4.89411
1.59
0.472714
0.142047
0.0487338
0.0227131
0.0149572
702.409
153.147
42.4392
14.7202
4.52512
1.48609
0.449974
0.138543
0.0485213
0.0228136
0.0149974
647.603
136.783
39.076
13.4725
4.20301
1.38423
0.424382
0.133132
0.0475158
0.0226252
0.0150135
602.892
124
36.2038
12.4627
3.94363
1.29851
0.401457
0.127627
0.0462711
0.0223462
0.0149924
571.455
114.924
34.0934
11.7579
3.7694
1.23939
0.3851
0.123388
0.0451847
0.022065
0.0149095
546.466
108.672
32.5991
11.3035
3.67328
1.20705
0.376374
0.121018
0.0444972
0.0218561
0.0148563
523.559
103.968
31.4268
11.0058
3.63519
1.19767
0.375055
0.120763
0.0443587
0.021781
0.0148228
506.291
101.307
30.7016
10.9022
3.67017
1.21638
0.382973
0.123243
0.0449792
0.0219115
0.0148533
492.521
103.066
31.3599
11.269
3.87612
1.29447
0.409263
0.130601
0.0467857
0.0223501
0.0149873
482.639
105.34
32.6427
11.9782
4.26451
1.4584
0.471099
0.150992
0.0527991
0.0239703
0.0154429
477.688
108.869
34.8082
13.147
4.90112
1.74592
0.587172
0.192457
0.0662418
0.0279584
0.016589
477.238
115.38
38.5403
15.0821
5.93436
2.2377
0.79846
0.273926
0.0949179
0.0372643
0.0194241
484.006
123.75
43.6126
17.8695
7.48293
3.03013
1.16857
0.43101
0.156095
0.0592977
0.0268309
499.951
134.764
50.4486
21.8414
9.79887
4.30768
1.82225
0.739153
0.290571
0.113956
0.0476255
528.989
149.867
59.8138
27.5488
13.313
6.39948
2.99773
1.35733
0.595266
0.255226
0.10937
579.256
171.517
72.956
35.9212
18.7689
9.8987
5.15374
2.62134
1.29912
0.628282
0.297684
667.876
203.193
92.109
48.721
27.5578
15.9208
9.18814
5.23521
2.93072
1.60944
0.865664
830.422
254.624
122.494
69.5075
42.4586
26.7011
16.9191
10.6778
6.67407
4.11881
2.50112
1251.1
301.384
172.506
110.762
73.891
50.0043
34.0268
23.1553
15.6992
10.5734
7.04314
1748.65
659.067
142.241
34.5081
7.29652
1.59064
0.368493
0.100122
0.0366317
0.0195792
0.0140859
2471.58
1320.37
193.516
51.7358
11.7659
2.73557
0.608716
0.146596
0.0458302
0.0216782
0.0146622
2545.05
1408.7
244.484
64.851
15.6008
4.04346
0.949762
0.223
0.0622652
0.0256664
0.0158472
2218.57
1183.62
248.791
68.2176
17.5624
5.07884
1.29771
0.3142
0.0832216
0.0309479
0.0178411
1823.5
948.64
231.23
64.6492
18.0338
5.67629
1.58017
0.407307
0.107198
0.0369887
0.0198945
1493.51
775.728
207.33
59.0033
17.6983
5.90675
1.77302
0.488851
0.132043
0.044063
0.0226475
1235.07
652.42
184.596
53.5957
17.0348
5.91916
1.89209
0.554629
0.155873
0.0513359
0.0250845
1032.97
557.941
164.105
48.8237
16.2654
5.8279
1.96426
0.607748
0.178431
0.0590828
0.0281627
880.296
484.279
146.636
44.8308
15.5438
5.71759
2.01789
0.654988
0.200554
0.0670794
0.0320115
764.556
426.294
132.216
41.6084
14.9601
5.63941
2.07574
0.703887
0.224455
0.0757299
0.0359119
676.227
382.9
121.111
39.2899
14.6062
5.6348
2.16008
0.762877
0.253186
0.0860606
0.0405203
606.21
346.403
113.267
38.2372
14.6785
5.81684
2.32919
0.863743
0.301689
0.104293
0.0470734
551.62
315.894
108.076
38.2594
15.2198
6.22699
2.60712
1.02136
0.378754
0.135738
0.0582529
508.628
291.47
105.886
39.6234
16.3904
6.9557
3.04167
1.26352
0.499942
0.189055
0.0780393
474.908
271.7
105.244
41.9387
18.1783
8.06914
3.69248
1.63051
0.690826
0.279115
0.115014
449.219
256.07
106.208
45.3203
20.7527
9.72034
4.67526
2.19907
1.00011
0.435562
0.185711
430.313
244.28
108.973
49.9953
24.3659
12.1428
6.17984
3.10447
1.51902
0.716828
0.326267
417.904
236.168
113.503
56.1329
29.2913
15.6442
8.4923
4.57554
2.41535
1.23931
0.612954
412.098
231.78
120.082
64.0855
35.9394
20.6738
12.0553
6.99945
4.00163
2.23931
1.21655
413.198
231.541
129.348
74.5603
45.0296
27.9517
17.5737
11.0295
6.84844
4.19058
2.51412
422.46
235.508
142.187
88.8433
57.9317
38.7851
26.2645
17.788
11.975
7.99727
5.27877
439.721
245.485
160.595
109.372
77.2359
55.5552
40.192
29.0644
20.9583
15.0641
10.7525
463.081
229.603
156.508
115.182
87.4121
67.7649
52.9321
41.2513
31.9478
24.5234
18.5289
1506.41
676.435
371.375
229.957
153.33
105.856
74.0595
52.0675
36.5833
25.5776
17.6809
2090.65
1260.32
491.678
190.101
60.3069
18.7882
5.56204
1.59483
0.481428
0.157322
0.0630235
2310.53
1398.65
733.815
347.736
145.86
52.2458
14.8132
2.81972
0.727448
0.213935
0.0760122
1653.1
1198.72
790.317
442.682
220.434
94.8213
33.125
8.29057
1.56597
0.328106
0.102476
729.421
1036.4
780.141
490.679
273.61
133.62
54.9576
17.5325
4.10098
0.754498
0.153275
431.544
1050.54
805.85
529.832
314.636
166.885
76.9031
29.1215
8.52009
1.88173
0.355603
474.465
907.414
814.449
559.843
346.152
194.219
97.0654
41.5529
14.4634
3.92907
0.855331
480.929
683.448
827.196
599.452
374.725
215.966
113.846
53.2125
21.0934
6.79662
1.76439
398.102
474.46
737.589
626.466
399.759
231.882
125.888
62.577
27.3555
10.0854
3.06342
331.996
334.604
554.137
617.36
416.827
241.313
132.553
68.7427
32.4036
13.307
4.60613
281.394
253.085
408.469
554.743
415.833
242.385
133.673
71.4908
35.8092
16.066
6.20181
243.443
201.078
303.601
456.107
391.945
233.214
129.169
70.9247
37.4447
18.1167
7.65851
213.849
167.843
232.203
340.731
350.311
215.267
119.97
67.6554
37.5048
19.3882
8.85544
185.508
141.252
185.415
251.539
290.387
194.279
108.678
62.9181
36.5185
19.9955
9.74384
156.494
116.8
147.4
192.078
223.867
173.95
97.8564
57.8696
35.0275
20.1294
10.3175
126.769
94.721
115.996
147.389
170.782
149.371
89.1348
53.1344
33.3143
19.8953
10.6141
99.4558
75.441
90.0312
113.273
131.142
123.269
81.3837
48.9098
31.5261
19.3793
10.6544
74.7685
58.4987
68.2638
86.274
100.577
99.3857
72.5727
44.9044
29.6014
18.5861
10.4551
54.5028
44.3266
50.3625
64.5724
76.1511
78.3737
62.1463
40.5436
27.2929
17.4406
10.0621
39.7329
33.1871
36.56
47.1785
56.3372
60.1225
50.7226
35.3695
24.3769
15.9148
9.52943
30.3628
25.2652
26.0653
33.4769
40.472
44.4893
39.3739
29.3383
20.7625
13.973
8.88901
25.4692
20.0792
18.504
23.2292
28.3643
31.6492
29.1721
22.952
16.6954
11.6999
8.09937
28.3637
18.6639
14.7795
17.5663
21.2028
23.3442
22.1971
18.4045
14.0747
10.5894
8.24155
54.7428
39.039
35.9987
36.3425
36.9941
37.2767
35.1777
30.8071
25.4369
20.4778
16.5727
527.215
316.298
196.559
137.613
103.054
78.9125
60.5363
46.164
34.7356
25.4794
18.0568
2249.07
648.642
271.896
103.126
35.436
11.5622
3.69959
1.17781
0.382392
0.1337
0.0557252
1824.71
447.574
200.227
84.3094
31.9017
11.1587
3.71146
1.19925
0.389856
0.136554
0.0574131
1212.98
415.494
180.791
81.1171
32.5704
11.8342
4.01093
1.30247
0.419911
0.145677
0.0618103
892.215
344.567
161.637
77.4673
32.4242
12.1172
4.19041
1.38202
0.448966
0.155319
0.0656438
666.341
261.708
126.553
67.4529
30.8932
12.1038
4.25684
1.42058
0.467254
0.163521
0.0706499
527.044
203.161
100.406
54.4461
26.2562
11.2064
4.28791
1.5109
0.50294
0.171675
0.0726897
436.191
163.148
82.8338
45.5429
22.102
9.70765
3.9583
1.51191
0.540899
0.190515
0.0803123
373.738
135.314
70.5785
39.4831
19.4217
8.67449
3.5849
1.40163
0.522135
0.193027
0.0838016
330.664
115.589
61.8842
35.1437
17.5021
7.91293
3.30507
1.31073
0.497221
0.186546
0.081137
301.001
102.093
55.6967
31.9876
16.1536
7.354
3.07664
1.22297
0.468304
0.179426
0.0811088
280.161
92.6008
51.2482
29.8056
15.2784
6.99432
2.91781
1.15419
0.443654
0.173352
0.08191
265.123
85.5694
47.9009
28.2689
14.7376
6.79852
2.82829
1.1107
0.427408
0.169999
0.082198
254.989
80.3318
45.3953
27.2287
14.4687
6.74954
2.80767
1.09485
0.420854
0.169494
0.0846444
248.465
76.5325
43.5803
26.6084
14.451
6.84675
2.85948
1.10869
0.424214
0.171433
0.0879586
245.423
73.7951
42.2289
26.2784
14.6321
7.08045
2.98725
1.15608
0.439774
0.17653
0.0904615
246.141
72.8265
41.4835
26.2634
15.0783
7.52672
3.23686
1.25065
0.47484
0.18877
0.0936862
250.806
73.6107
41.3584
26.486
15.7307
8.21036
3.6989
1.48607
0.572787
0.225513
0.104189
260.702
76.2123
41.9897
27.0217
16.5961
9.12885
4.39406
1.88896
0.76507
0.307387
0.134274
277.946
81.1579
43.687
28.0541
17.7491
10.3127
5.35504
2.50919
1.09988
0.469282
0.203645
306.73
89.7109
47.1137
29.9629
19.3931
11.8642
6.6533
3.42225
1.65113
0.770705
0.355121
356.051
104.367
53.4873
33.4807
21.971
14.0473
8.46237
4.7688
2.54229
1.31307
0.663447
447.734
129.972
65.175
40.0706
26.4584
17.5249
11.2438
6.89266
4.04189
2.29974
1.28242
644.854
182.059
88.6792
53.6377
35.5706
24.2719
16.4585
10.8872
6.97148
4.33224
2.62971
1269.03
218.929
121.613
80.6797
57.6258
42.2331
30.8928
22.1245
15.3057
10.15
6.469
703.581
235.244
105.328
46.4622
18.6356
6.90928
2.45356
0.862115
0.310136
0.121275
0.0565086
499.436
143.151
73.0091
36.188
16.1717
6.53114
2.44573
0.876904
0.312267
0.1184
0.0538711
306.517
112.458
61.4717
33.6381
16.3402
6.97899
2.69704
0.98011
0.349031
0.130114
0.0572996
218.631
91.2647
54.5964
32.3319
16.8226
7.54212
3.00154
1.11142
0.397618
0.143888
0.0590932
165.348
72.4021
45.9255
29.6598
16.7952
8.02196
3.28415
1.21193
0.422075
0.147155
0.0584638
140.083
60.4961
39.3156
26.262
15.5947
7.78443
3.23871
1.18429
0.412491
0.146388
0.0595936
122.946
52.0904
34.3292
23.2995
14.101
7.21585
3.06294
1.12528
0.391259
0.140484
0.0582497
111.117
46.1487
30.328
20.6577
12.6719
6.59561
2.83927
1.0466
0.362885
0.131264
0.0569658
101.568
41.3678
26.9615
18.3446
11.3332
5.96955
2.60036
0.963798
0.335221
0.122979
0.0548671
93.3544
37.3801
24.1016
16.3478
10.1394
5.38841
2.37096
0.884575
0.309774
0.115669
0.0526186
85.8909
33.8792
21.5965
14.5893
9.07037
4.85583
2.15637
0.810373
0.285987
0.108497
0.0511158
79.6116
30.7054
19.3233
12.9898
8.08782
4.35943
1.95475
0.741415
0.264223
0.101917
0.0494541
74.3924
27.8642
17.2745
11.5497
7.20208
3.91072
1.77321
0.680896
0.245951
0.0966257
0.0484335
69.6483
25.385
15.4706
10.2877
6.43141
3.52416
1.6204
0.63255
0.232572
0.0931143
0.048156
65.9091
23.1813
13.8614
9.17142
5.75902
3.19529
1.49743
0.598193
0.225131
0.0918774
0.0481095
63.1373
21.2713
12.4589
8.21047
5.19471
2.93358
1.41157
0.581923
0.225357
0.0933901
0.0489772
61.0762
19.717
11.2952
7.42482
4.75385
2.75231
1.37365
0.590569
0.236313
0.0985051
0.0509959
60.4273
18.6535
10.4085
6.82684
4.44186
2.65764
1.39425
0.634493
0.26416
0.109549
0.0549106
61.5541
18.2116
9.85226
6.42505
4.26259
2.66655
1.49833
0.73972
0.326664
0.134358
0.0632719
65.1011
18.5869
9.71821
6.26538
4.2337
2.78121
1.6932
0.926236
0.448758
0.190929
0.0830754
72.4982
20.1755
10.1553
6.42463
4.3994
3.03033
2.00179
1.22201
0.66616
0.311415
0.132739
87.4425
23.2866
11.4043
7.06746
4.87132
3.48847
2.47393
1.67026
1.03081
0.553727
0.25627
115.714
30.0344
14.3919
8.76283
6.01901
4.38402
3.24888
2.36408
1.6258
1.01194
0.548553
200.579
35.621
19.8267
12.6452
8.7518
6.37546
4.79913
3.63913
2.69293
1.88019
1.18717
736.76
429.147
187.357
84.4837
32.9478
11.6532
3.68342
1.19088
0.404981
0.150634
0.0668209
806.369
472.909
258.108
134.674
65.1157
26.5456
6.99779
2.01121
0.641824
0.219942
0.0882059
513.492
388.093
260.189
155.688
85.7958
41.086
14.0527
3.51142
1.04619
0.333704
0.119976
200.377
333.42
243.767
158.909
95.0384
50.5373
21.0745
6.04203
1.6602
0.509947
0.176127
149.199
347.606
238.289
157.667
97.8752
55.4672
26.2675
9.17086
2.50473
0.764002
0.253155
158.861
326.324
231.792
154.506
97.0902
57.1607
29.5523
12.0055
3.74428
1.12008
0.361043
165.525
275.138
223.783
150.401
93.9928
56.5321
31.1789
14.2617
5.16057
1.63587
0.521689
157.262
215.491
209.281
144.959
89.0509
54.178
31.461
15.8668
6.52812
2.31524
0.752505
143.81
173.138
183.578
137.745
83.1055
50.8263
30.8787
16.934
7.77188
3.07913
1.07765
132.913
144.489
157.279
125.871
77.7953
47.3238
29.8916
17.6437
8.88311
3.87969
1.47773
120.552
122.115
133.302
111.532
72.4513
44.687
28.9061
18.1574
9.87502
4.68363
1.91646
111.802
103.603
112.051
97.2144
66.8771
42.5603
28.1297
18.5175
10.7039
5.42843
2.34233
102.947
88.3062
94.1346
84.0714
61.182
40.5935
27.4774
18.673
11.2916
6.03842
2.73249
93.2394
75.1624
79.0694
72.3518
55.4748
38.5613
26.6594
18.5046
11.5366
6.42954
3.07869
83.97
63.7202
66.1677
61.8119
49.6474
36.0107
25.4666
17.8511
11.3416
6.55739
3.41118
74.9373
53.6756
54.9865
52.2667
43.6713
32.7456
23.7002
16.631
10.7076
6.51454
3.79011
66.25
44.8436
45.239
43.6092
37.4376
28.9442
21.3145
14.911
9.77744
6.48537
4.43938
58.6619
37.2496
36.8026
35.6718
31.2177
24.8211
18.4748
12.9281
8.78882
6.54644
5.22216
53.5298
31.1415
29.5766
28.5433
25.3741
20.6298
15.5228
11.0294
7.9739
6.65731
5.91409
51.4742
26.7869
23.717
22.4878
20.1945
16.7568
12.9043
9.6294
7.70825
7.34303
7.88285
52.4074
24.0022
19.4027
17.7229
15.9284
13.5596
11.1129
9.48638
9.29544
10.7818
11.6343
56.6144
23.9173
17.2289
14.7844
13.3566
12.3767
12.1812
13.1268
14.3777
14.0826
11.3881
74.0177
28.2953
19.3985
18.4504
18.5145
18.1921
17.3103
15.5842
13.0103
10.0279
7.21068
268.568
128.778
75.4237
48.7193
33.266
23.2715
16.3384
11.3924
7.85709
5.32497
3.47623
206.318
194.396
203.12
216.877
225.484
223.452
198.992
140.594
58.1552
69.3112
65.6059
62.7715
66.0554
70.8034
80.0684
87.5161
82.5983
62.5569
32.1291
30.1901
28.082
28.5765
31.0846
40.9386
56.1479
64.3107
55.8414
13.2382
11.8577
10.6291
11.5633
14.125
20.7876
33.2986
45.4734
47.5136
208.413
215.469
213.745
201.471
166.597
102.403
46.0917
61.3379
47.6353
69.7445
73.3724
77.5431
84.2958
85.9787
77.1139
63.3884
37.4474
43.1893
31.3263
31.5971
35.7199
48.4708
61.6772
65.6846
55.1186
39.6379
43.6524
12.5028
13.0055
16.4524
25.2259
39.0078
50.5834
48.4861
42.9195
44.2813
0.00910395
0.0153377
0.0168218
0.0101342
0.0109889
0.0113611
0.0104143
0.0102542
0.0107636
0.0115945
0.0100443
0.0106218
0.00940872
0.0103633
0.00956325
0.00951924
0.0124919
0.00989556
0.00947935
0.0097928
0.0111157
0.00963108
0.0103183
0.0107889
0.0121112
0.00995405
0.00946722
0.0103312
0.0122049
0.00984466
0.0119456
0.00995104
0.0114837
0.0104738
0.0105544
0.0144245
0.0108452
0.0114075
0.0111883
0.0100756
0.00945248
0.0104391
0.00922355
0.0112125
0.00949899
0.0106586
0.0102743
0.0106639
0.00988327
0.0110151
0.0101136
0.0102741
0.0103995
0.00917287
0.010531
0.0107197
0.00965355
0.0103242
0.0116154
0.00935586
0.0102162
0.0106804
0.00962125
0.00988682
0.00936765
0.00986767
0.0108161
0.011332
0.0155393
0.0119111
0.010851
0.00959112
0.00974886
0.0102239
0.013838
0.0090267
0.00999354
0.013943
0.00906077
0.0111681
0.010347
0.0101759
0.00950321
0.0150796
0.0102981
0.00957272
0.0445757
0.0139103
0.00926487
0.0119399
0.014725
0.0106123
0.00971774
0.0100582
0.0108402
0.0133585
0.00974866
0.0102644
0.00933757
0.0105393
0.0101862
0.0104837
0.0105308
0.00883426
0.0105858
0.0105573
0.011753
0.0143242
0.0102942
0.0116604
0.0115626
0.0106059
0.0132241
0.0110657
0.0113596
0.0093152
0.00992567
0.00973708
0.0109039
0.0100563
0.00971971
0.0102871
0.0105916
0.01046
0.0103414
0.00980285
0.0162432
0.0110909
0.0110035
0.00981539
0.00965884
0.00940079
0.0103894
0.00913611
0.019134
0.0116698
0.0105306
0.00964447
0.00948006
0.00978714
0.0091013
0.00989228
0.0102225
0.0094995
0.0096422
0.0095044
0.0133961
0.0106528
0.0143885
0.0103266
0.00926211
0.0127503
0.00940036
0.0106143
0.0115226
0.00948699
0.00912873
0.0097732
0.00906705
0.0113057
0.00873828
0.0112124
0.00938345
0.012767
0.00946007
0.00996718
0.00970635
0.0168996
0.0108111
0.00943733
0.0111496
0.010256
0.0165523
0.00958629
0.0099365
0.00905412
0.00974014
0.00951454
0.00949231
0.0091538
0.0121123
0.0104024
0.0107957
0.01069
0.0110599
0.0103539
0.00965474
0.00984925
0.0131906
0.00947034
0.0107284
0.0109392
0.0107401
0.00950823
0.0166601
0.0112752
0.0108971
0.00976202
0.00950031
0.00942536
0.00906736
0.0103755
0.009533
0.0099842
0.0181993
0.013433
0.0101799
0.010705
0.0121791
0.0092691
0.0117961
0.0099935
0.00959926
0.00962711
0.0103898
0.011318
0.0113899
0.00996834
0.00991823
0.00966651
0.0110369
0.0109809
0.0101227
0.0115605
0.0112835
0.0102557
0.0116309
0.0101015
0.00969417
0.00931366
0.00950347
0.0107022
0.0092821
0.0106118
0.0095694
0.0158496
0.00923908
0.0121403
0.0105502
0.0102356
0.00981807
0.0109973
0.00886755
0.00963756
0.009877
0.011243
0.0104723
0.0094956
0.0112154
0.00982181
0.00940977
0.0119592
0.0110702
0.00924321
0.0106304
0.0114352
0.00956584
0.0110196
0.00970685
0.00978708
0.00957328
0.0105262
0.00913753
0.01527
0.0111847
0.0104315
0.00966875
0.0129364
0.0146139
0.00893717
0.00985449
0.00975115
0.0100395
0.0101193
0.0107496
0.00980454
0.0101481
0.00914075
0.0103209
0.0105375
0.0101264
0.0216552
0.0105034
0.00944073
0.0103809
0.0112269
0.0111955
0.0124078
0.00991869
0.00912611
0.0141248
0.0099064
0.0130855
0.00956531
0.0101702
0.0123633
0.0106038
0.0129649
0.0100867
0.00923746
0.0101324
0.00912812
0.010521
0.00964625
0.00939357
0.0116328
0.0143173
0.00946071
0.0104224
0.0113781
0.0105095
0.0107942
0.00992356
0.0111782
0.0103668
0.00978831
0.00898591
0.00892898
0.00935078
0.0129265
0.0101571
0.0103847
0.00961764
0.00920837
0.0103417
0.0158475
0.0104371
0.00902309
0.011073
0.00895664
0.0100996
0.00937892
0.00993222
0.0110616
0.0103501
0.0124356
0.00902113
0.0159529
0.00923657
0.00980976
0.011883
0.0116546
0.0100968
0.0102025
0.00950827
0.009356
0.00923811
0.00949857
0.0120361
0.016537
0.0101719
0.0112791
0.00911372
0.00974956
0.00891812
0.00892737
0.0114681
0.00922855
0.0108056
0.00882017
0.00917275
0.00968407
0.0120337
0.00985004
0.0143144
0.00996051
0.0109257
0.0099514
0.0104714
0.0109388
0.00937477
0.0143235
0.0115185
0.0107232
0.0100802
0.0155511
0.00950258
0.0110652
0.0106536
0.010446
0.0116055
0.0103035
0.0129114
0.00940763
0.0110442
0.00892776
0.00918104
0.0114236
0.0105365
0.0110641
0.0119097
0.0100434
0.00974465
0.0114465
0.00892958
0.00931023
0.0102435
0.0105711
0.0210165
0.0103084
0.0102338
0.00954924
0.0101444
0.00924837
0.0109989
0.00957889
0.00922423
0.0103135
0.0111086
0.0101674
0.0131528
0.00948665
0.00933579
0.00940339
0.0108769
0.00988101
0.0107188
0.0100985
0.0112947
0.00968626
0.0135398
0.00966569
0.0105591
0.00991917
0.00919022
0.0117371
0.010531
0.0128123
0.011545
0.00952424
0.0111527
0.0135026
0.0094723
0.00910527
0.0134899
0.00938467
0.00912589
0.00980258
0.0106096
0.00915769
0.00993266
0.0328831
0.00934928
0.0092262
0.00942924
0.0099271
0.0105264
0.0125899
0.00993149
0.0125135
0.0112831
0.0148918
0.0101327
0.00954032
0.0153388
0.0104033
0.0120332
0.00923417
0.0107378
0.0135513
0.0108263
0.0174421
0.00893815
0.0107646
0.0109679
0.0913544
0.0722766
0.0917214
0.0930432
0.0101431
0.00909733
0.00917016
0.010895
0.0103746
0.00940169
0.0121423
0.0100815
0.0311997
0.0152896
0.00929164
0.0121912
0.0103973
0.00972345
0.0103956
0.0128472
0.011521
0.00977999
0.00899595
0.00928613
0.0105997
0.00974824
0.0107233
0.00940774
0.00975685
0.0118831
0.00879872
0.0116579
0.00931771
0.00920659
0.013454
0.0101351
0.00911106
0.0112681
0.0135501
0.0106722
0.00982143
0.00921824
0.010157
0.0103203
0.0153304
0.0106412
0.00927317
0.0109635
0.0097232
0.0108434
0.00903212
0.0119735
0.00914609
0.010956
0.00899012
0.00920356
0.0193492
0.0105837
0.0120996
0.0121376
0.0113014
0.0101955
0.011016
0.00971415
0.0100431
0.00995373
0.0112705
0.0106142
0.0100571
0.00992323
0.01539
0.0104314
0.0195384
0.0095809
0.014872
0.0109312
0.00990335
0.0103952
0.0144422
0.00974923
0.0141346
0.0104405
0.0102963
0.00973855
0.00934448
0.00914189
0.0110824
0.0103367
0.00955682
0.00954391
0.0143315
0.0261039
0.00951976
0.0119532
0.0119914
0.00961375
0.0100066
0.0156489
0.0101761
0.0110868
0.0134461
0.0101936
0.00928095
0.0119447
0.0122035
0.0141306
0.00935291
0.010479
0.00982606
0.01099
0.0109145
0.00932287
0.0120658
0.00942986
0.0106813
0.011611
0.0100901
0.0127467
0.00962576
0.00997377
0.0111156
0.0104774
0.0202314
0.00985642
0.0108254
0.0116842
0.00973539
0.0191783
0.010797
0.00963122
0.011628
0.00970784
0.0104646
0.0116042
0.011643
0.0121414
0.00999073
0.0101664
0.0111701
0.0098101
0.011792
0.0098891
0.0108332
0.0100514
0.0101602
0.00990658
0.00907052
0.0104507
0.0147608
0.0100603
0.0101163
0.00972161
0.0138991
0.00913934
0.0103441
0.0110758
0.0123839
0.00971613
0.0103076
0.0107753
0.0106423
0.00941391
0.0143596
0.0146832
0.0133548
0.00976047
0.00961365
0.00977147
0.013061
0.0103214
0.0117147
0.00958831
0.00989148
0.0102903
0.00883615
0.0104498
0.010413
0.00939139
0.0151894
0.0110529
0.010142
0.00966627
0.0113981
0.0107737
0.00977535
0.00916622
0.0117603
0.00888944
0.0105442
0.0100257
0.0129133
0.0113508
0.0102269
0.00997323
0.0102784
0.0103979
0.011245
0.0117503
0.0198095
0.0158837
0.0272746
0.00930515
0.00943936
0.0106378
0.00991401
0.00973082
0.0124393
0.0101941
0.0113916
0.0101068
0.0105827
0.011651
0.00973843
0.0125327
0.0115438
0.011235
0.00960398
0.0106664
0.00867523
0.00950564
0.015385
0.01109
0.0089223
0.00949995
0.018157
0.00964364
0.00986562
0.0152224
0.00900017
0.0109806
0.0105975
0.0116887
0.00990492
0.0102547
0.00962642
0.0109672
0.0115661
0.00927346
0.0136137
0.00978702
0.00896281
0.0110643
0.0182108
0.00978128
0.00919587
0.0114139
0.00927474
0.00939058
0.0151783
0.0103761
0.0105392
0.0113192
0.0102661
0.0096281
0.00996659
0.0101849
0.0117065
0.00969452
0.0103779
0.010549
0.0123204
0.00993235
0.00986646
0.0135632
0.0108596
0.00941475
0.0100816
0.0106514
0.00950414
0.00951464
0.00970263
0.0102667
0.0104609
0.0131964
0.00904224
0.0123555
0.00961099
0.00990958
0.0133463
0.0100789
0.00952713
0.0119024
0.0113051
0.0131233
0.00956751
0.0102396
0.00905744
0.0103888
0.00975314
0.0115594
0.0120818
0.0102534
0.00960499
0.00976577
0.0121297
0.00950408
0.0100392
0.00912704
0.0116476
0.0125125
0.0126847
0.00942744
0.0102131
0.0121437
0.0101627
0.0163711
0.0110736
0.00932026
0.0151805
0.0098247
0.0102491
0.00999336
0.00877727
0.0104063
0.00916543
0.0112771
0.0102971
0.0101834
0.0122084
0.0102016
0.014387
0.0106075
0.0109977
0.0100261
0.0120783
0.0127502
0.00956512
0.0100206
0.0102092
0.00990453
0.0126516
0.0101598
0.0136447
0.00990332
0.0108253
0.00962774
0.0106694
0.0163318
0.00965665
0.00932891
0.0104517
0.0124625
0.0112067
0.00964204
0.0103545
0.00913092
0.00966166
0.010226
0.0118838
0.0113986
0.0109715
0.0105599
0.00944202
0.0100215
0.0124774
0.00894123
0.0105328
0.0102029
0.0116305
0.0107858
0.0102448
0.0110331
0.0116844
0.0144543
0.00982528
0.00968096
0.00935206
0.00998874
0.0140666
0.0118709
0.0131765
0.00986916
0.0131231
0.0120954
0.00911411
0.0101002
0.0106348
0.00918888
0.0119396
0.0098795
0.0108416
0.0103068
0.0105889
0.0102829
0.0107708
0.0109952
0.00914851
0.0110901
0.00964485
0.0107602
0.0102769
0.0126679
0.0095363
0.0107796
0.0110351
0.0104435
0.0111118
0.0150573
0.00929125
0.0466873
0.0104003
0.0097281
0.0117641
0.00992729
0.0109283
0.0105076
0.00987915
0.0304396
0.0114305
0.0106847
0.0102605
0.0123117
0.0384347
0.011793
0.0176388
0.00992029
0.00922625
0.0131213
0.0106647
0.00960043
0.00956378
0.00946014
0.0142648
0.00970454
0.0250542
0.0116314
0.0110387
0.010495
0.0142189
0.0105471
0.00989861
0.0106957
0.0121284
0.0106575
0.00965513
0.00947188
0.0110894
0.0113646
0.0145284
0.0106515
0.0127469
0.00992662
0.0099318
0.00911686
0.0134208
0.00970743
0.0106469
0.0125034
0.0111753
0.0104361
0.00953715
0.00955601
0.0118955
0.0101865
0.0103316
0.0140482
0.0131664
0.0101345
0.0116268
0.0104142
0.0117167
0.0130926
0.0197219
0.0100385
0.00973321
0.0129884
0.0123903
0.0103606
0.00996687
0.0118149
0.0122222
0.0130991
0.0122081
0.0163618
0.0117868
0.0105542
0.0103025
0.0120283
0.00945413
0.00984361
0.0142701
0.00931963
0.0128096
0.0106644
0.0106532
0.0127221
0.00991131
0.00915074
0.00929814
0.0103732
0.0120406
0.0096086
0.0113083
0.0109747
0.00950017
0.0100362
0.00960696
0.0153479
0.0105755
0.0118256
0.0144973
0.0120818
0.00940947
0.00890742
0.0106718
0.00956329
0.0100722
0.00965274
0.011033
0.0105257
0.00981801
0.0107894
0.00987056
0.0153584
0.0139733
0.0106657
0.0130352
0.0124864
0.00913986
0.0147534
0.0105487
0.00910302
0.0106475
0.010079
0.0102736
0.00955388
0.0111084
0.0095086
0.0112389
0.0100568
0.0109231
0.00904665
0.0118957
0.0107904
0.00947486
0.0094482
0.00989492
0.00920891
0.0114395
0.00909467
0.0147234
0.0100477
0.0105492
0.0100623
0.012018
0.00994358
0.00983609
0.00937759
0.0120586
0.0116122
0.0149884
0.00960501
0.0142086
0.010303
0.015638
0.0102464
0.00967237
0.0128538
0.0121152
0.0103452
0.00939131
0.00911398
0.00901959
0.00985887
0.0109258
0.00986832
0.0106787
0.0118826
0.0128075
0.00970295
0.00930802
0.011024
0.00980705
0.00982669
0.01134
0.00908223
0.0110337
0.0109045
0.0100406
0.00975427
0.011505
0.00946997
0.0112089
0.00907069
0.0155302
0.0092755
0.0112133
0.00957199
0.0106611
0.0112838
0.0101684
0.0113544
0.0116094
0.0139001
0.0103115
0.0100256
0.0109141
0.00987643
0.0100991
0.00970986
0.0103563
0.0133816
0.0107892
0.0101537
0.0108183
0.0120066
0.0149212
0.0100661
0.0101799
0.00966164
0.011377
0.00968787
0.0132011
0.00915189
0.0110906
0.00990654
0.00961571
0.0100103
0.00978319
0.0092222
0.00994084
0.0114583
0.0107975
0.0136994
0.0201606
0.0094374
0.00925777
0.0108991
0.0100371
0.0111202
0.011879
0.0106561
0.0112983
0.0102694
0.010831
0.0102564
0.0101461
0.00944045
0.00976226
0.012027
0.0100385
0.00891092
0.0104345
0.018038
0.0095124
0.0113519
0.00949016
0.00987977
0.0107646
0.0118709
0.00883472
0.00916679
0.00931008
0.00906812
0.0093346
0.00970159
0.0117077
0.012343
0.00928087
0.0095968
0.0105142
0.00976609
0.0251436
0.00986922
0.0109053
0.0104533
0.00909409
0.00899847
0.00937243
0.00942974
0.00920576
0.0120741
0.0102126
0.010465
0.00901648
0.0090361
0.00950577
0.00970879
0.0141799
0.0117323
0.011016
0.0111833
0.0111965
0.0188639
0.0227347
0.0111873
0.0124355
0.00966821
0.0105501
0.0151689
0.0108085
0.0104879
0.00934174
0.016477
0.0108942
0.00915523
0.00984107
0.0127727
0.0114604
0.00954667
0.0112636
0.00991387
0.00984761
0.0106797
0.0388164
0.0100549
0.0111222
0.0152591
0.0100299
0.0097438
0.0111404
0.0129844
0.0118641
0.00920159
0.0105499
0.0101226
0.0107504
0.00961533
0.0143607
0.00892892
0.0116089
0.0103621
0.010818
0.00946863
0.0189855
0.0104467
0.0132465
0.0112297
0.00979869
0.0104291
0.0131402
0.016936
0.011523
0.00940652
0.00979661
0.00978206
0.0116627
0.0112449
0.0106699
0.00968752
0.00968364
0.00959898
0.0120271
0.0156392
0.0139805
0.00933237
0.0109949
0.0104308
0.010272
0.0113567
0.012806
0.0114768
0.0095858
0.0100345
0.01119
0.0127834
0.00905238
0.0118517
0.0101247
0.0140504
0.0100868
0.00956749
0.00984464
0.00997066
0.0103308
0.0126181
0.00896276
0.0135178
0.0105327
0.0098017
0.0137427
0.0111573
0.00992121
0.0105272
0.012004
0.0113402
0.00928602
0.00927379
0.0108961
0.0093508
0.0106875
0.0112935
0.0104792
0.0188933
0.0102173
0.00943107
0.0105655
0.0146169
0.0107219
0.0101237
0.0112766
0.0284502
0.0121019
0.0109563
0.0114788
0.0110749
0.0112274
0.0113384
0.010197
0.0103802
0.0100572
0.0111114
0.00975947
0.0102335
0.00891357
0.00925687
0.0105443
0.0106776
0.00977896
0.0127803
0.0112542
0.0120461
0.0111087
0.010673
0.0091989
0.0105392
0.0120166
0.0163729
0.0111594
0.0101098
0.0103243
0.032309
0.00963176
0.00912046
0.0102088
0.00937436
0.0101218
0.011528
0.0248331
0.0104391
0.00967371
0.0107752
0.0100527
0.0126776
0.0106869
0.0127908
0.00972493
0.00947744
0.0116151
0.0301026
0.0090725
0.00922749
0.0118975
0.00953485
0.0112302
0.00936447
0.00988542
0.0131147
0.0118237
0.0105869
0.00997774
0.00904565
0.0103187
0.0111439
0.0100741
0.0150463
0.0132506
0.0175057
0.0108448
0.0103738
0.0118852
0.0136473
0.00965994
0.0105519
0.0110553
0.00956988
0.009721
0.00967521
0.00962378
0.0131607
0.0140618
0.00934358
0.00944614
0.00995569
0.0096131
0.0182542
0.010778
0.0101209
0.00979208
0.0112295
0.010363
0.00891226
0.0130411
0.00942994
0.0443969
0.0112278
0.0108063
0.00978742
0.0126715
0.0106505
0.0117962
0.00952082
0.00949764
0.00943733
0.00949712
0.00899949
0.0102709
0.0133087
0.00880283
0.0113876
0.0104004
0.0118982
0.00885297
0.0187341
0.0108932
0.009691
0.00874228
0.0102509
0.00945352
0.01099
0.0096038
0.00962298
0.0107946
0.00972046
0.00983519
0.0101509
0.01029
0.0117063
0.0123146
0.0447276
0.0150344
0.00991476
0.024702
0.0101283
0.0103347
0.0134574
0.0104558
0.0102865
0.00961891
0.00916258
0.0109803
0.0100326
0.0135918
0.0102271
0.010063
0.0115021
0.0105449
0.0115757
0.00954444
0.0107055
0.0101534
0.0154391
0.010132
0.00898183
0.0105858
0.0100723
0.0123734
0.0102275
0.0281352
0.0101601
0.00941508
0.0144938
0.010346
0.01158
0.0106732
0.0123234
0.0117659
0.0101112
0.0110813
0.0125085
0.0120355
0.00979263
0.0105063
0.010151
0.0101293
0.0087661
0.0100673
0.0098867
0.0107697
0.0114964
0.0106311
0.0120491
0.00905035
0.0143209
0.0108413
0.0155801
0.0117352
0.0119932
0.0108663
0.00996733
0.00977948
0.00949425
0.0100562
0.00941563
0.0103025
0.00954359
0.0147556
0.0106788
0.00937143
0.0216678
0.0098898
0.0087839
0.0117909
0.00950757
0.0139709
0.0121785
0.0114612
0.0132785
0.0123979
0.0130869
0.00911204
0.00910144
0.00965261
0.010689
0.0102214
0.00914888
0.00988509
0.00918641
0.0093916
0.00982548
0.0144775
0.0112278
0.0208037
0.0101114
0.0106138
0.0120524
0.0103563
0.00885514
0.00936588
0.0110213
0.0141273
0.00961637
0.00995307
0.0101909
0.0103415
0.0109766
0.0102816
0.0109142
0.0106438
0.00960951
0.0121909
0.00992174
0.0106626
0.00883107
0.0092743
0.012701
0.0086998
0.00904833
0.0158051
0.0102876
0.0102383
0.014122
0.0133931
0.00978299
0.0108035
0.0106084
0.00957541
0.00982936
0.0132232
0.0115344
0.0102576
0.00917122
0.00919321
0.0109535
0.00919895
0.00941407
0.00958439