/*--------------------------------*- C++ -*----------------------------------*\
| =========                 |                                                 |
| \\      /  F ield         | OpenFOAM: The Open Source CFD Toolbox           |
|  \\    /   O peration     | Version:  3.0.1                                 |
|   \\  /    A nd           | Web:      www.OpenFOAM.org                      |
|    \\/     M anipulation  |                                                 |
\*---------------------------------------------------------------------------*/
FoamFile
{
    version     2.0;
    format      ascii;
    class       surfaceVectorField;
    location    "0.324862";
    object      Uf;
}
// * * * * * * * * * * * * * * * * * * * * * * * * * * * * * * * * * * * * * //

dimensions      [0 1 -1 0 0 0 0];

internalField   nonuniform List<vector> 
32369
(
(4.13578 1.19563 3.39635e-20)
(5.05825 0.837698 3.11399e-19)
(4.47084 2.55502 3.38031e-19)
(3.54249 1.25608 8.93498e-19)
(3.43089 0.192461 -3.53332e-19)
(3.24415 2.05864 9.44293e-19)
(3.08298 1.03322 4.05855e-19)
(3.36646 0.363301 1.74037e-18)
(2.76996 1.61145 -6.5258e-19)
(2.64822 0.800091 0)
(2.99687 0.363006 -9.26865e-19)
(2.4127 1.20222 -3.75269e-20)
(2.3064 0.595986 1.07417e-19)
(2.59509 0.330853 0)
(2.15089 0.885915 -2.31761e-19)
(2.0514 0.424623 4.74271e-20)
(2.27775 0.271173 1.84506e-19)
(1.95549 0.639592 2.977e-19)
(1.86072 0.28583 -1.49014e-19)
(2.03145 0.194583 -2.02979e-19)
(1.80241 0.448327 -1.1049e-19)
(1.71662 0.174213 -2.6324e-20)
(1.84318 0.116601 -5.53535e-21)
(1.68031 0.299357 -7.71926e-20)
(1.60728 0.0839592 5.29551e-20)
(1.70014 0.0446602 -4.15445e-20)
(1.58345 0.181361 4.47307e-20)
(1.52465 0.0108042 -2.97909e-21)
(1.59245 -0.0178319 -7.42168e-20)
(1.5085 0.0874085 1.81388e-21)
(1.51541 -0.063897 5.05247e-20)
(1.45149 0.0191988 3.66682e-21)
(1.45567 -0.048215 1.12262e-20)
(2.87641 -0.221347 0)
(3.30209 0.434366 -3.0721e-18)
(3.19034 -0.114451 9.06367e-19)
(2.17596 -0.653307 3.81017e-18)
(3.15581 -0.0465566 7.34831e-19)
(2.94718 -0.55432 -2.0824e-18)
(2.91394 0.0438401 -9.39686e-19)
(2.9332 -0.453974 2.18386e-19)
(2.59318 0.0915771 6.04458e-20)
(2.70484 -0.316402 7.19842e-19)
(2.29141 0.0861654 7.72307e-20)
(2.4372 -0.19465 -4.77277e-19)
(2.04098 0.0509833 -2.05669e-19)
(2.17958 -0.132012 -1.27042e-19)
(1.84639 0.00397627 -1.73237e-20)
(1.96109 -0.112951 -1.09856e-19)
(1.69939 -0.0437981 -1.59529e-19)
(1.78724 -0.120345 7.86305e-20)
(1.58952 -0.0859386 -4.94114e-20)
(1.65344 -0.138864 -1.62173e-19)
(1.55611 -0.153152 5.28963e-20)
(1.50164 -0.114898 1.39232e-19)
(1.71936 -0.320416 9.27908e-19)
(1.92831 0.619745 -2.22492e-18)
(2.19752 -0.75275 2.14768e-18)
(1.17984 -0.618508 4.13191e-18)
(2.49689 -0.801376 -2.06261e-18)
(2.13138 -0.850274 -4.52427e-19)
(2.60328 -0.667605 1.69465e-18)
(2.34694 -0.907133 2.97657e-19)
(2.518 -0.489341 4.75843e-19)
(2.39895 -0.809502 6.76021e-19)
(2.32814 -0.343276 -5.8159e-19)
(2.32164 -0.633036 8.68498e-20)
(2.11461 -0.255192 -1.39578e-19)
(2.16097 -0.480041 -4.52881e-19)
(1.91835 -0.212902 7.66478e-21)
(1.9828 -0.373301 -9.8631e-20)
(1.75651 -0.199856 2.04346e-19)
(1.81836 -0.310126 2.03654e-19)
(1.62946 -0.201307 -9.93882e-20)
(1.68182 -0.276263 -8.81962e-20)
(1.57974 -0.250794 0)
(1.52406 -0.19949 2.67021e-19)
(1.02542 0.164352 8.9053e-19)
(1.11039 1.08586 7.53199e-19)
(1.41065 -0.662735 2.75129e-18)
(0.700061 -0.157005 1.08362e-18)
(1.78875 -0.977488 1.62581e-18)
(1.45827 -0.695054 1.26671e-18)
(2.05843 -1.01379 -7.09835e-19)
(1.72045 -0.96866 -1.23523e-18)
(2.17141 -0.896891 5.25945e-19)
(1.93512 -1.01757 0)
(2.1465 -0.718874 3.11201e-19)
(2.0216 -0.90629 5.84778e-19)
(2.03894 -0.559647 -3.58863e-19)
(1.98978 -0.749606 -4.41701e-19)
(1.89851 -0.444474 1.7151e-19)
(1.89658 -0.605093 6.44987e-19)
(1.759 -0.36971 0)
(1.77932 -0.493732 -3.6719e-19)
(1.63642 -0.321236 0)
(1.66469 -0.414737 -3.37739e-19)
(1.56919 -0.348556 2.47653e-19)
(1.52801 -0.269651 0)
(0.679287 0.802838 1.0827e-18)
(0.62859 1.68887 -4.57816e-19)
(0.947719 -0.213779 -1.83921e-19)
(0.521573 0.396021 -2.86808e-20)
(1.27763 -0.763401 -1.28493e-18)
(1.03689 -0.340212 -7.37212e-19)
(1.56464 -1.00989 -5.48881e-19)
(1.26919 -0.787367 -4.92387e-19)
(1.76449 -1.04025 0)
(1.52387 -0.989332 2.83569e-19)
(1.85673 -0.932335 0)
(1.68806 -0.99109 -2.36497e-19)
(1.85564 -0.780128 4.33731e-19)
(1.75043 -0.891737 -2.83875e-19)
(1.79308 -0.638818 2.92455e-19)
(1.74058 -0.761939 1.64981e-19)
(1.70215 -0.526613 -7.02106e-19)
(1.68362 -0.63779 -7.03214e-19)
(1.60466 -0.44057 -1.85232e-19)
(1.60618 -0.535865 -7.8635e-20)
(1.53321 -0.445682 2.43821e-19)
(1.50336 -0.355786 2.00713e-19)
(0.479078 1.41334 -1.61082e-18)
(0.403026 2.30415 -1.05262e-18)
(0.681706 0.313939 -4.9266e-19)
(0.432786 0.985872 1.80026e-19)
(0.950959 -0.386126 2.0463e-20)
(0.77804 0.102159 -4.44523e-19)
(1.20976 -0.799327 2.51719e-19)
(0.980485 -0.482688 3.31347e-19)
(1.42619 -0.976601 8.1815e-20)
(1.22416 -0.819578 2.80485e-19)
(1.57141 -0.977086 -5.37791e-19)
(1.41004 -0.937795 1.95752e-19)
(1.63944 -0.885517 -5.95116e-19)
(1.5208 -0.919327 -5.08181e-19)
(1.64336 -0.762942 -6.54052e-19)
(1.56751 -0.83418 -2.69021e-19)
(1.6042 -0.644453 -1.97967e-19)
(1.56199 -0.72671 -4.32368e-20)
(1.54208 -0.541983 2.80616e-19)
(1.5228 -0.624279 1.13085e-19)
(1.47765 -0.524111 1.39361e-19)
(1.46504 -0.43586 0)
(0.407371 2.00804 5.88918e-19)
(0.370917 2.9011 -6.58827e-19)
(0.539449 0.855028 2.93821e-19)
(0.421303 1.56953 6.37215e-19)
(0.752415 0.0450153 -2.13549e-19)
(0.63202 0.590844 -2.37813e-19)
(0.97537 -0.496163 3.64887e-19)
(0.806711 -0.113786 1.37401e-19)
(1.18169 -0.797907 3.33933e-19)
(1.02327 -0.570651 1.46707e-19)
(1.34249 -0.905201 2.12067e-19)
(1.20572 -0.798731 3.41845e-19)
(1.44481 -0.890249 -2.19382e-19)
(1.3355 -0.865498 -2.33468e-19)
(1.49137 -0.813245 2.89973e-19)
(1.41322 -0.837778 3.57236e-19)
(1.49308 -0.714524 2.14318e-19)
(1.44275 -0.763573 9.93837e-20)
(1.46364 -0.613778 -2.93593e-20)
(1.43397 -0.676715 -1.97284e-20)
(1.41471 -0.580572 5.10804e-20)
(1.41046 -0.495884 7.72492e-19)
(0.432637 2.5808 -7.71782e-19)
(0.473662 3.42533 -1.22731e-18)
(0.503508 1.39444 1.93384e-19)
(0.463167 2.12516 0)
(0.656555 0.495227 8.03451e-20)
(0.580721 1.0845 2.92478e-19)
(0.837747 -0.153872 -6.11342e-20)
(0.72073 0.280546 -1.75526e-19)
(1.02133 -0.563392 1.32387e-19)
(0.901642 -0.281058 -1.50281e-19)
(1.17855 -0.768026 -4.17594e-20)
(1.06813 -0.610148 3.50075e-20)
(1.29304 -0.829322 2.61244e-19)
(1.20007 -0.760359 -5.83737e-20)
(1.36203 -0.805145 1.64251e-19)
(1.29141 -0.793659 3.0188e-19)
(1.39043 -0.73919 -1.102e-19)
(1.34169 -0.760021 1.23162e-19)
(1.38679 -0.655593 4.98056e-20)
(1.35383 -0.697524 9.95266e-20)
(1.35486 -0.615984 -8.64487e-20)
(1.35546 -0.538216 6.87225e-19)
(0.518936 3.10421 -5.78167e-19)
(0.641462 3.87687 -5.89712e-19)
(0.536977 1.91437 6.90914e-20)
(0.533737 2.64587 -3.88611e-19)
(0.633384 0.946017 8.47683e-20)
(0.592744 1.5657 4.27693e-21)
(0.77167 0.204315 -2.57312e-19)
(0.692669 0.682826 6.38744e-21)
(0.926691 -0.301662 -2.5786e-19)
(0.835773 0.0293219 -5.18433e-19)
(1.07061 -0.595913 2.63049e-20)
(0.981299 -0.392933 7.59568e-20)
(1.18501 -0.73029 -5.65857e-20)
(1.10708 -0.623752 1.28731e-19)
(1.26339 -0.759955 2.67182e-19)
(1.20217 -0.718754 -5.97083e-20)
(1.30677 -0.730799 3.18591e-19)
(1.26352 -0.728788 2.51784e-19)
(1.32022 -0.670746 -1.83171e-20)
(1.28934 -0.695 -4.39118e-20)
(1.30524 -0.632823 2.95538e-20)
(1.30878 -0.571739 6.6987e-19)
(0.635104 3.57982 -4.82365e-19)
(0.821631 4.26773 -1.39003e-19)
(0.602318 2.41387 -4.96632e-19)
(0.616889 3.13432 -3.47016e-19)
(0.647958 1.39739 -7.77202e-20)
(0.637101 2.04223 -7.58821e-20)
(0.746543 0.576318 -2.00753e-19)
(0.694094 1.09972 -4.61999e-20)
(0.873295 -0.0192707 -2.47347e-19)
(0.801953 0.362299 -2.3216e-19)
(1.00137 -0.399867 1.7363e-19)
(0.926607 -0.150209 9.42636e-21)
(1.11097 -0.60667 1.45893e-19)
(1.04366 -0.462095 1.80051e-19)
(1.19254 -0.691207 -1.02861e-19)
(1.13854 -0.62109 -5.97542e-20)
(1.2443 -0.70086 -7.2212e-20)
(1.20609 -0.677671 3.30955e-20)
(1.2692 -0.667581 -2.53392e-21)
(1.24157 -0.675406 -3.19267e-20)
(1.26803 -0.637651 9.89495e-20)
(1.27042 -0.595071 -1.07637e-18)
(0.753747 3.98956 -2.92247e-20)
(0.973209 4.55489 -9.39363e-19)
(0.672948 2.88638 4.75783e-20)
(0.693745 3.56495 6.16419e-19)
(0.679117 1.85333 -4.76514e-20)
(0.692582 2.51841 1.19848e-19)
(0.742838 0.968113 -5.85257e-20)
(0.711902 1.53769 -8.01814e-21)
(0.843054 0.288144 0)
(0.788047 0.724395 -3.88821e-19)
(0.955449 -0.178594 0)
(0.892266 0.123348 2.93452e-19)
(1.05926 -0.460425 0)
(0.999401 -0.272371 0)
(1.14209 -0.603251 6.79634e-20)
(1.09249 -0.500296 1.00048e-19)
(1.19972 -0.654672 8.08248e-20)
(1.16424 -0.608195 -6.55849e-20)
(1.2339 -0.650824 5.67437e-20)
(1.20807 -0.640767 -2.55482e-19)
(1.24293 -0.628503 2.0153e-19)
(1.24851 -0.604126 -1.87761e-19)
(0.844722 4.2746 -2.45243e-19)
(1.08672 4.69694 -8.77259e-19)
(0.744501 3.30863 7.35586e-19)
(0.767298 3.92511 1.76686e-19)
(0.721416 2.30917 1.74245e-19)
(0.755411 2.97366 5.98501e-19)
(0.754298 1.3809 -2.98391e-19)
(0.745056 1.99026 4.66665e-20)
(0.829282 0.624486 -1.71857e-19)
(0.791236 1.11698 -3.85105e-19)
(0.925419 0.072578 3.25187e-19)
(0.873606 0.432277 -1.56771e-19)
(1.02215 -0.287727 8.95316e-20)
(0.968489 -0.0491529 2.72681e-19)
(1.1051 -0.494047 -1.56963e-20)
(1.05784 -0.351618 -1.85846e-19)
(1.16779 -0.591885 -3.80566e-19)
(1.13233 -0.517156 4.05891e-19)
(1.21052 -0.6205 -1.60338e-19)
(1.18412 -0.589743 -5.14099e-20)
(1.22686 -0.605495 1.32464e-19)
(1.23647 -0.603342 -8.96566e-19)
(0.926321 4.45045 -3.5615e-19)
(1.18122 4.72958 1.74755e-18)
(0.821787 3.67598 -8.69982e-20)
(0.86011 4.19415 -1.21083e-18)
(0.777932 2.75841 5.2567e-19)
(0.838878 3.39298 3.62103e-19)
(0.782368 1.81698 5.85426e-21)
(0.80021 2.45238 0)
(0.831016 0.996448 -3.98522e-19)
(0.813848 1.54309 3.64357e-19)
(0.908175 0.361617 -2.61458e-19)
(0.86992 0.78332 -2.82491e-19)
(0.994911 -0.0807669 4.68105e-20)
(0.947996 0.215731 5.19817e-19)
(1.07599 -0.357024 1.72336e-19)
(1.03006 -0.166753 -4.73685e-19)
(1.1429 -0.507843 7.82292e-19)
(1.10513 -0.397335 2.85446e-19)
(1.19403 -0.57383 2.17649e-19)
(1.16448 -0.517124 3.66689e-19)
(1.21591 -0.566213 -2.45337e-19)
(1.23006 -0.588108 -1.02859e-18)
(1.02585 4.56299 9.55788e-19)
(1.26935 4.72811 9.05381e-19)
(0.926649 3.97683 -1.00263e-18)
(0.970087 4.37748 -6.24656e-19)
(0.862096 3.18526 -1.28463e-19)
(0.943917 3.74559 3.4923e-19)
(0.83495 2.27321 3.23427e-19)
(0.881762 2.9027 -3.27603e-19)
(0.851966 1.40995 5.51913e-19)
(0.860785 1.99711 1.20542e-19)
(0.904091 0.69824 4.10401e-19)
(0.884345 1.18036 3.31484e-19)
(0.975369 0.171353 1.08036e-19)
(0.938581 0.530957 -4.97415e-21)
(1.0507 -0.181555 -4.42727e-19)
(1.00741 0.0650773 -5.23402e-19)
(1.12009 -0.393469 -1.4071e-19)
(1.07918 -0.23762 2.26277e-19)
(1.17988 -0.504054 -3.12044e-20)
(1.14469 -0.412881 4.94963e-19)
(1.20694 -0.501588 2.01517e-19)
(1.22855 -0.554301 -5.33027e-19)
(1.12379 4.6241 -5.25616e-19)
(1.35196 4.71796 -6.27107e-19)
(1.04001 4.19342 5.39514e-19)
(1.07921 4.49135 6.51855e-19)
(0.966306 3.55086 2.19098e-19)
(1.05845 4.01069 -4.39484e-21)
(0.912686 2.71937 -5.77599e-19)
(0.983176 3.30438 -3.32418e-19)
(0.895479 1.85156 -1.22457e-19)
(0.930919 2.45326 -9.47046e-19)
(0.915953 1.08137 -4.07293e-20)
(0.918124 1.6138 8.5489e-19)
(0.964358 0.474941 -5.80231e-19)
(0.941271 0.898604 2.17174e-19)
(1.02789 0.0426263 6.74354e-20)
(0.989618 0.353062 -6.91798e-19)
(1.0963 -0.237133 8.35645e-19)
(1.05269 -0.0251484 4.87546e-19)
(1.16419 -0.400009 7.60717e-19)
(1.12149 -0.26306 -3.01875e-19)
(1.19553 -0.399142 4.51706e-19)
(1.22694 -0.491119 -1.12407e-19)
(1.21744 4.65712 6.52457e-19)
(1.4344 4.70546 8.74551e-19)
(1.15155 4.33924 1.75759e-19)
(1.18332 4.56382 1.13569e-19)
(1.08005 3.83943 -5.18435e-19)
(1.17471 4.20028 2.15619e-19)
(1.00949 3.12691 -6.33584e-19)
(1.09802 3.64002 -2.56635e-20)
(0.959997 2.30293 -1.69377e-19)
(1.0217 2.88882 1.1604e-20)
(0.944652 1.50698 1.19121e-18)
(0.972481 2.07255 3.35078e-19)
(0.962768 0.836234 2.09618e-19)
(0.958339 1.31992 2.1671e-19)
(1.00737 0.327923 -4.01732e-19)
(0.978476 0.707548 -3.56411e-19)
(1.06984 -0.0235045 -5.73193e-19)
(1.02625 0.255704 -1.92894e-20)
(1.14386 -0.245683 -7.03104e-19)
(1.09349 -0.0494061 -4.9002e-19)
(1.17821 -0.239127 1.84549e-19)
(1.22407 -0.381666 0)
(1.31048 4.67975 1.62953e-19)
(1.51624 4.69317 1.33715e-18)
(1.26129 4.44224 2.38143e-19)
(1.28213 4.61424 -6.75329e-19)
(1.19883 4.06202 7.28661e-19)
(1.28727 4.33657 9.26279e-19)
(1.12129 3.48195 6.323e-19)
(1.21796 3.90946 -3.708e-19)
(1.04555 2.74504 4.83609e-19)
(1.12801 3.28567 4.64443e-19)
(0.992243 1.96721 -6.3506e-19)
(1.04688 2.53908 -7.29162e-19)
(0.973973 1.26 -2.84194e-19)
(0.994297 1.7905 -4.80114e-19)
(0.992209 0.687771 -1.43923e-20)
(0.980333 1.1359 3.64595e-19)
(1.04203 0.265749 1.09409e-19)
(1.00567 0.620192 -1.62161e-20)
(1.1165 -0.0208352 3.28955e-19)
(1.06396 0.246894 1.48371e-19)
(1.14962 -0.00406189 1.74307e-19)
(1.20542 -0.206456 1.26227e-19)
(1.3983 4.69217 4.62499e-19)
(1.59389 4.67908 2.13728e-18)
(1.36238 4.51469 -1.48082e-19)
(1.3718 4.64637 -3.6668e-19)
(1.31231 4.23104 -5.05392e-20)
(1.38923 4.43346 -2.93623e-20)
(1.2366 3.77918 -6.31758e-19)
(1.32863 4.11937 3.49948e-20)
(1.14433 3.1582 -6.09098e-19)
(1.23543 3.63132 6.53245e-21)
(1.05911 2.44394 -5.9978e-19)
(1.13497 2.99338 -1.50603e-18)
(1.00377 1.74071 8.52537e-20)
(1.0515 2.29591 6.05454e-19)
(0.990776 1.12893 4.05738e-19)
(1.00481 1.63591 3.50216e-20)
(1.02073 0.645748 0)
(1.00308 1.07656 3.59436e-20)
(1.08822 0.293105 -1.24661e-20)
(1.0445 0.641714 4.23381e-19)
(1.12282 0.328352 -3.84221e-20)
(1.18256 0.0477641 4.44884e-19)
(1.47989 4.69548 1.34158e-18)
(1.66289 4.65826 1.38254e-19)
(1.45262 4.56245 -1.76675e-19)
(1.45231 4.65837 7.76845e-19)
(1.41132 4.35737 4.94292e-20)
(1.47201 4.49762 -1.70023e-18)
(1.34031 4.02351 6.79627e-19)
(1.41478 4.28257 8.43629e-19)
(1.24307 3.53403 -7.22077e-19)
(1.32819 3.93047 2.74761e-19)
(1.14024 2.92243 -5.30702e-19)
(1.22878 3.42684 -7.38744e-19)
(1.05813 2.26755 6.24705e-19)
(1.13435 2.82178 8.35949e-19)
(1.01654 1.65009 -3.20716e-19)
(1.06679 2.19658 -3.33109e-19)
(1.02179 1.12419 4.21286e-19)
(1.03886 1.62147 -3.90724e-19)
(1.07116 0.71306 4.56486e-19)
(1.05355 1.13975 1.60793e-19)
(1.11214 0.7715 -1.76856e-19)
(1.15879 0.40861 -1.772e-19)
(1.55251 4.68415 -5.00462e-19)
(1.71998 4.62136 -1.15049e-18)
(1.52487 4.58191 -3.88248e-19)
(1.51674 4.64205 -9.52628e-19)
(1.48133 4.44646 -1.17198e-18)
(1.51401 4.52893 1.16631e-18)
(1.41404 4.22707 4.93607e-19)
(1.45725 4.40702 -5.13513e-19)
(1.32743 3.87776 3.7343e-19)
(1.3957 4.1955 0)
(1.23305 3.39457 4.63269e-19)
(1.32821 3.84209 1.2929e-18)
(1.14722 2.82476 -1.15235e-21)
(1.25443 3.34999 -1.65827e-18)
(1.08973 2.23609 -3.80641e-19)
(1.18854 2.79102 4.09152e-19)
(1.06867 1.6928 -7.13001e-19)
(1.14047 2.22786 -7.37338e-20)
(1.08841 1.23982 -4.30603e-19)
(1.11884 1.72168 -1.11597e-19)
(1.13699 1.31879 1.85841e-19)
(1.14513 0.885405 -1.21789e-19)
(1.60903 4.64282 -1.37958e-18)
(1.76007 4.55963 -1.07508e-19)
(1.55506 4.56828 1.55477e-19)
(1.51505 4.58283 4.45932e-19)
(1.49445 4.50005 1.98067e-18)
(1.47998 4.53865 2.47509e-18)
(1.44405 4.39914 -1.05087e-18)
(1.44892 4.50854 -2.01687e-18)
(1.40129 4.20173 7.77177e-19)
(1.44874 4.41981 -7.17635e-19)
(1.35133 3.85746 -5.78178e-19)
(1.45445 4.2122 1.40093e-18)
(1.29367 3.38516 -1.40574e-18)
(1.44054 3.83565 -1.54192e-18)
(1.24005 2.84736 7.59113e-19)
(1.40098 3.35666 4.08313e-19)
(1.19321 2.31065 5.03894e-19)
(1.33975 2.82618 2.03372e-19)
(1.16574 1.84099 4.26951e-19)
(1.26994 2.31742 1.38659e-19)
(1.22037 1.89873 3.53419e-19)
(1.18756 1.48613 -6.56777e-19)
(1.51268 4.511 1.68154e-18)
(1.5373 4.48488 1.64275e-18)
(1.44071 4.51639 2.45795e-18)
(1.40012 4.4703 1.96053e-18)
(1.41591 4.54534 -1.01337e-18)
(1.4188 4.49009 -4.46505e-20)
(1.43318 4.53858 -1.81692e-18)
(1.47362 4.50673 -2.32262e-18)
(1.47735 4.45441 -2.79896e-19)
(1.56074 4.47231 -6.25316e-19)
(1.51758 4.23864 6.62748e-19)
(1.65926 4.34405 1.15727e-18)
(1.52707 3.86867 9.05922e-20)
(1.72706 4.08735 8.24289e-20)
(1.49644 3.39004 -1.04631e-19)
(1.73069 3.72266 -1.24026e-20)
(1.42526 2.87847 -1.31874e-19)
(1.65957 3.2614 1.24055e-19)
(1.34192 2.4139 3.9397e-20)
(1.53376 2.79089 -1.73928e-19)
(1.42611 2.3795 -4.88108e-20)
(1.26843 2.02078 3.28523e-20)
(1.50247 4.43805 1.82017e-18)
(1.14196 3.44567 1.65084e-18)
(1.49781 4.47416 -1.69715e-19)
(1.32827 3.41495 -3.36019e-19)
(1.57186 4.49307 -1.12585e-18)
(1.48806 3.34688 2.08765e-18)
(1.6972 4.48491 -1.17134e-18)
(1.61418 3.27448 -2.68068e-18)
(1.84342 4.42447 8.18919e-19)
(1.74454 3.20371 7.05022e-20)
(1.96591 4.27946 7.87601e-19)
(1.87648 3.13474 6.12198e-19)
(2.0171 4.0265 1.02614e-19)
(1.97994 3.09479 -2.4246e-19)
(1.96347 3.65436 1.98609e-19)
(2.03875 3.05121 1.70541e-19)
(1.81098 3.20766 2.42136e-19)
(2.00589 2.94852 3.43702e-19)
(1.61995 2.7997 -2.35628e-19)
(1.84059 2.7347 -1.6005e-19)
(1.64387 2.4507 -4.69458e-20)
(1.52682 2.50657 -4.43885e-19)
(1.12034 2.5545 -1.9306e-19)
(1.64715 0.949715 -1.47207e-20)
(1.31858 2.38957 1.56655e-18)
(1.6373 0.994599 -2.03319e-19)
(1.45545 2.22928 1.07699e-18)
(1.62042 0.936323 2.64487e-18)
(1.55937 2.09029 -1.59331e-18)
(1.64366 0.884967 -5.66609e-19)
(1.63756 2.00903 0)
(1.66586 0.862151 -4.73409e-19)
(1.71587 2.03553 -2.81754e-19)
(1.66851 0.894679 0)
(1.82548 2.17279 -2.4534e-19)
(1.65563 1.00997 -3.08023e-19)
(1.95002 2.35843 1.8419e-19)
(1.64959 1.18052 4.94512e-19)
(1.99658 2.47117 1.43331e-19)
(1.66798 1.35814 -2.91664e-19)
(1.90505 2.42527 1.12426e-20)
(1.66838 1.46414 9.9473e-21)
(1.61381 1.50075 -2.38225e-19)
(1.79026 2.27623 4.31809e-19)
(2.16611 3.76326 1.13092e-18)
(0.250187 2.96682 -4.32315e-18)
(2.0744 2.58984 6.72117e-19)
(0.942303 2.73945 1.13855e-18)
(2.03676 1.8266 -1.09261e-18)
(1.41311 2.22972 -8.42726e-19)
(1.95741 1.30343 -2.40341e-19)
(1.60597 1.69861 -1.86503e-20)
(1.85496 0.934332 -1.35664e-19)
(1.65114 1.26607 -2.0123e-19)
(1.7483 0.667268 1.70514e-19)
(1.63061 0.925499 1.61335e-19)
(1.64951 0.467189 -4.43282e-20)
(1.57756 0.661094 3.46036e-19)
(1.56469 0.314055 -1.90867e-20)
(1.51775 0.458214 -4.01471e-19)
(1.49567 0.193423 -1.4273e-21)
(1.46063 0.301989 1.02121e-19)
(1.4424 0.0975106 4.97557e-21)
(1.4142 0.180305 -3.17688e-20)
(1.37965 0.0922612 3.4678e-20)
(1.39916 0.0228628 -6.08558e-20)
(-0.509099 2.48656 -3.98144e-18)
(-1.5691 2.08867 -2.87571e-18)
(0.321857 2.52478 4.14136e-20)
(-0.401936 2.03417 6.38017e-20)
(0.8861 2.13206 -4.01977e-21)
(0.109418 2.00695 -3.65944e-20)
(1.21123 1.66452 4.90359e-20)
(0.645734 1.77105 4.17982e-20)
(1.36881 1.25204 0)
(1.00447 1.45857 0)
(1.42425 0.919306 3.28213e-19)
(1.20034 1.12955 -7.92883e-19)
(1.42374 0.65886 1.05451e-19)
(1.28482 0.834499 7.56857e-19)
(1.40131 0.454145 -3.20929e-19)
(1.30579 0.594272 -9.65817e-20)
(1.37272 0.297041 8.36754e-20)
(1.30525 0.406336 9.94179e-20)
(1.34713 0.175719 -2.68826e-20)
(1.29661 0.26022 -5.49172e-20)
(1.28489 0.154957 -1.96098e-19)
(1.32227 0.0779547 8.2893e-20)
(-1.05378 1.57422 4.04583e-19)
(-1.74839 1.38729 1.28078e-18)
(-0.663014 1.73427 0)
(-0.824846 1.21716 -8.94113e-19)
(-0.148659 1.75792 0)
(-0.584594 1.42867 0)
(0.369838 1.63299 0)
(-0.111091 1.45458 1.39949e-18)
(0.77307 1.37233 -6.78903e-19)
(0.321992 1.35162 -2.45793e-18)
(1.02329 1.06674 -5.12293e-19)
(0.670557 1.15096 1.35016e-19)
(1.15008 0.786373 6.30883e-19)
(0.905209 0.914017 3.56255e-19)
(1.20333 0.55834 2.88545e-19)
(1.03992 0.68444 -1.20752e-19)
(1.22532 0.379565 -1.95736e-20)
(1.11223 0.48549 0)
(1.23581 0.240305 -1.84479e-19)
(1.15181 0.324187 6.14144e-20)
(1.1735 0.206594 -3.08932e-19)
(1.24 0.131864 -7.43591e-20)
(-1.02607 0.877125 1.33195e-18)
(-1.54259 0.826205 1.36159e-18)
(-0.868297 1.03578 -9.68275e-19)
(-0.769743 0.574932 -6.90421e-19)
(-0.567171 1.18585 1.22441e-18)
(-0.78106 0.850452 -4.10041e-19)
(-0.202671 1.25256 -8.56636e-19)
(-0.429838 0.985332 1.36913e-18)
(0.181616 1.19176 -1.76366e-18)
(-0.100714 1.0281 -1.21251e-18)
(0.515936 1.03605 9.70071e-19)
(0.239778 0.977752 3.35654e-19)
(0.765834 0.832478 -3.77671e-19)
(0.524883 0.85054 0)
(0.928882 0.625699 -4.75103e-19)
(0.736265 0.682759 -3.70003e-20)
(1.0275 0.441996 9.64832e-20)
(0.880346 0.510702 0)
(1.08848 0.290507 6.26633e-20)
(0.975617 0.357096 8.91172e-20)
(1.03325 0.238024 -1.29549e-19)
(1.12533 0.163426 1.19237e-19)
(-0.878372 0.388035 1.41597e-18)
(-1.26121 0.419337 4.73252e-19)
(-0.809621 0.474737 -5.12322e-19)
(-0.601243 0.128315 1.11524e-19)
(-0.63532 0.652955 -4.52505e-19)
(-0.738458 0.383653 -5.07717e-19)
(-0.380777 0.794456 9.85927e-19)
(-0.502337 0.531051 1.57515e-19)
(-0.0903614 0.858722 6.33082e-19)
(-0.263932 0.646633 1.52844e-18)
(0.205411 0.830366 -5.88835e-19)
(0.00410586 0.689708 -8.53195e-19)
(0.463862 0.728817 3.49801e-19)
(0.26605 0.662305 0)
(0.664965 0.588464 4.38911e-19)
(0.491328 0.577429 1.86362e-19)
(0.810999 0.441134 -1.70857e-20)
(0.668499 0.461206 -1.67045e-19)
(0.916665 0.304419 4.05361e-20)
(0.79794 0.339956 1.78919e-19)
(0.884324 0.237629 6.75495e-20)
(0.99514 0.185593 -2.18961e-20)
(-0.689975 0.0674925 1.53809e-20)
(-0.977808 0.147149 1.07901e-19)
(-0.664028 0.0832892 1.05396e-19)
(-0.422763 -0.161306 -1.89209e-19)
(-0.563244 0.241658 -7.20668e-20)
(-0.608829 0.0485545 -1.58417e-19)
(-0.402741 0.396365 5.51573e-19)
(-0.436547 0.179416 2.2605e-19)
(-0.195177 0.506749 1.23261e-19)
(-0.280555 0.313573 3.70392e-19)
(0.0397956 0.556657 -3.59262e-19)
(-0.0832424 0.398576 -3.23795e-19)
(0.270605 0.540872 -1.58935e-19)
(0.129161 0.434486 0)
(0.473267 0.473473 -3.46684e-19)
(0.33185 0.415679 -3.78551e-19)
(0.635614 0.37868 8.19497e-21)
(0.510709 0.357326 1.97197e-19)
(0.761061 0.274989 3.29592e-19)
(0.650791 0.27924 3.55872e-19)
(0.747944 0.205917 -7.23506e-20)
(0.859409 0.174693 -1.49798e-20)
(-0.496495 -0.133202 -3.13574e-20)
(-0.711208 -0.021484 4.53208e-20)
(-0.494468 -0.174101 -1.58602e-19)
(-0.260524 -0.342766 2.19547e-20)
(-0.436002 -0.0469991 -4.66059e-21)
(-0.45842 -0.18154 1.64661e-20)
(-0.335178 0.0931178 8.31544e-21)
(-0.315407 -0.0734027 1.13663e-19)
(-0.18933 0.210243 -5.84206e-20)
(-0.223514 0.050866 -1.41745e-19)
(-0.014186 0.294163 0)
(-0.0781687 0.150311 6.09402e-21)
(0.174945 0.330501 -1.77689e-19)
(0.0834625 0.216543 0)
(0.352554 0.322978 1.02498e-19)
(0.254783 0.244553 -2.9985e-19)
(0.508525 0.279792 4.68522e-19)
(0.414105 0.231468 3.86711e-19)
(0.637462 0.216825 4.9616e-20)
(0.547919 0.193027 1.37582e-19)
(0.644522 0.148722 -6.99399e-20)
(0.744574 0.149541 -1.97167e-19)
(-0.328194 -0.261476 1.28017e-19)
(-0.48746 -0.146637 -9.04485e-20)
(-0.334361 -0.342905 1.64141e-19)
(-0.123886 -0.463552 3.92654e-19)
(-0.295394 -0.245276 1.02456e-19)
(-0.315742 -0.344915 -3.04521e-19)
(-0.227399 -0.125863 -4.79509e-21)
(-0.179257 -0.254705 9.91895e-20)
(-0.126011 -0.0171324 -9.92479e-20)
(-0.131385 -0.145378 1.55934e-19)
(0.00257992 0.0758475 6.76956e-21)
(-0.0217611 -0.0472256 -1.48219e-19)
(0.147556 0.139789 -8.91708e-20)
(0.101688 0.0322484 3.68201e-20)
(0.296837 0.168141 4.78525e-21)
(0.237876 0.0836036 -9.27993e-20)
(0.434408 0.162558 8.40471e-20)
(0.371874 0.103033 7.99379e-20)
(0.553521 0.131986 5.86153e-20)
(0.490709 0.0952461 -7.47913e-21)
(0.5789 0.0750493 4.72008e-20)
(0.65453 0.0883061 5.84227e-22)
(-0.18205 -0.356547 2.51841e-19)
(-0.29068 -0.242739 7.22647e-20)
(-0.186494 -0.463118 6.68263e-20)
(-0.00325898 -0.561482 1.85434e-19)
(-0.162434 -0.385125 -2.68506e-19)
(-0.17755 -0.458885 -3.07925e-20)
(-0.107241 -0.286377 2.50192e-19)
(-0.0489968 -0.394116 5.4179e-20)
(-0.034731 -0.188345 1.29935e-19)
(-0.0240738 -0.291126 1.34461e-19)
(0.061234 -0.0966361 -1.49381e-19)
(0.0617715 -0.201123 4.18819e-20)
(0.173782 -0.0228319 4.75298e-20)
(0.156219 -0.118939 2.08152e-19)
(0.293552 0.0262249 -2.4395e-20)
(0.264148 -0.0552369 -4.4625e-20)
(0.408854 0.0476465 -4.41057e-20)
(0.374149 -0.0153624 -6.52629e-20)
(0.511261 0.0455877 -2.49731e-20)
(0.476453 0.000102616 3.61075e-20)
(0.554755 0.000593757 3.29609e-20)
(0.600199 0.0335428 -4.53253e-20)
(-0.05204 -0.434477 9.84099e-20)
(-0.123759 -0.302942 3.4871e-19)
(-0.0505318 -0.559151 1.22523e-19)
(0.110238 -0.653248 -6.19589e-19)
(-0.0322661 -0.489792 3.70121e-19)
(-0.0382163 -0.546124 1.80569e-19)
(0.0113109 -0.407819 -8.91072e-20)
(0.0754251 -0.498095 3.5414e-19)
(0.0689767 -0.318671 6.18919e-20)
(0.0888018 -0.404937 -1.2799e-19)
(0.143282 -0.232112 3.65699e-19)
(0.158596 -0.321039 8.1732e-20)
(0.231531 -0.155683 1.5158e-19)
(0.232601 -0.240321 -3.50941e-21)
(0.327783 -0.0958683 -1.1988e-19)
(0.319203 -0.171334 1.72137e-20)
(0.423245 -0.0572467 -3.85527e-20)
(0.409807 -0.119474 -6.05509e-20)
(0.510249 -0.0401158 1.14006e-19)
(0.497721 -0.0885016 -6.61503e-20)
(0.568683 -0.0754289 1.23331e-19)
(0.588092 -0.0351168 3.62924e-20)
(0.0967315 -0.492206 -3.5846e-19)
(0.0109927 -0.335738 2.68779e-19)
(0.0800288 -0.632794 -7.46221e-19)
(0.232188 -0.694345 -5.78943e-19)
(0.098014 -0.570763 1.87663e-19)
(0.0987859 -0.617512 -3.33433e-19)
(0.132169 -0.501488 3.93303e-19)
(0.194809 -0.574723 7.58545e-19)
(0.177869 -0.41949 -1.37751e-19)
(0.204227 -0.491586 -5.04659e-19)
(0.237311 -0.338492 -2.71767e-19)
(0.26203 -0.414481 -2.02047e-20)
(0.308345 -0.26293 -1.30363e-19)
(0.321456 -0.337125 -1.7337e-19)
(0.387255 -0.198381 9.92097e-20)
(0.392462 -0.267024 6.96709e-20)
(0.467757 -0.150208 -8.57282e-20)
(0.468213 -0.209137 -1.21855e-19)
(0.54325 -0.121656 -9.48966e-20)
(0.545021 -0.168715 1.60761e-21)
(0.61352 -0.148893 1.11079e-20)
(0.612822 -0.106621 2.26173e-20)
(0.216443 -0.524369 4.62272e-20)
(0.13 -0.362163 2.58909e-20)
(0.205322 -0.683117 -2.4328e-19)
(0.344754 -0.731847 6.73148e-22)
(0.221051 -0.632692 1.84479e-19)
(0.226228 -0.66952 -1.59241e-19)
(0.250212 -0.572156 3.86161e-20)
(0.310477 -0.632428 2.62444e-19)
(0.28853 -0.49724 -4.39712e-19)
(0.318358 -0.557453 -2.66497e-19)
(0.337589 -0.421878 9.56095e-20)
(0.367816 -0.486357 2.05771e-20)
(0.396238 -0.348891 8.23036e-22)
(0.416787 -0.413185 9.09763e-20)
(0.462292 -0.283185 -1.22758e-19)
(0.47627 -0.344377 -3.43044e-20)
(0.53158 -0.23015 -5.61235e-20)
(0.540718 -0.284448 -6.30981e-20)
(0.599225 -0.19441 9.43214e-20)
(0.60865 -0.239081 1.19526e-19)
(0.673549 -0.212811 -4.31192e-20)
(0.662989 -0.16784 1.53855e-19)
(0.332665 -0.54809 -1.737e-20)
(0.246802 -0.381492 -9.59112e-20)
(0.322405 -0.720021 9.96427e-20)
(0.459103 -0.75771 8.73289e-20)
(0.338389 -0.679161 -9.77357e-20)
(0.346675 -0.709267 2.35992e-22)
(0.364567 -0.625084 2.28842e-20)
(0.423008 -0.675374 -1.42235e-19)
(0.398024 -0.556251 1.72712e-19)
(0.429671 -0.606903 2.11104e-19)
(0.43982 -0.486175 5.49241e-21)
(0.472941 -0.540757 -1.42611e-19)
(0.489304 -0.416613 6.80331e-20)
(0.514079 -0.471676 2.13517e-19)
(0.545493 -0.352085 2.8719e-20)
(0.564509 -0.405376 2.96873e-20)
(0.606182 -0.297988 8.31626e-20)
(0.619617 -0.346197 2.23445e-20)
(0.669766 -0.260509 0)
(0.679565 -0.301058 0)
(0.738105 -0.274324 -3.91237e-20)
(0.733757 -0.244598 -3.2371e-19)
(0.454045 -0.556954 -1.1099e-20)
(0.362661 -0.367695 -1.76995e-20)
(0.439578 -0.7431 -3.53415e-21)
(0.571021 -0.760718 8.81866e-20)
(0.45262 -0.7122 -2.98246e-20)
(0.462809 -0.733443 9.2194e-20)
(0.475571 -0.663766 0)
(0.531847 -0.704248 4.47859e-21)
(0.505 -0.600068 -6.75989e-20)
(0.538108 -0.642149 1.82652e-19)
(0.541058 -0.534507 2.65987e-20)
(0.575942 -0.580225 -1.20607e-19)
(0.583137 -0.468389 1.95118e-19)
(0.610723 -0.51485 -1.09619e-20)
(0.630833 -0.406222 2.55149e-20)
(0.653083 -0.451378 8.28709e-20)
(0.683084 -0.353631 -5.86302e-20)
(0.699068 -0.394172 -6.74175e-20)
(0.7395 -0.31713 -3.48541e-20)
(0.750551 -0.350905 7.43411e-20)
(0.802844 -0.32785 -3.93094e-20)
(0.801546 -0.297973 7.32463e-19)
(0.562385 -0.549205 1.18439e-19)
(0.473057 -0.357246 2.25064e-19)
(0.549976 -0.751444 1.60086e-19)
(0.674411 -0.755611 -1.69454e-20)
(0.562336 -0.732088 1.35381e-19)
(0.573986 -0.74651 1.18987e-19)
(0.583089 -0.689137 1.64994e-19)
(0.636101 -0.72116 -4.01063e-20)
(0.609349 -0.630062 1.60094e-19)
(0.643541 -0.664672 8.69816e-20)
(0.640407 -0.568318 -1.71033e-19)
(0.676151 -0.606037 -4.51048e-20)
(0.675691 -0.505439 -1.33097e-19)
(0.705331 -0.543661 -5.65125e-21)
(0.714903 -0.446051 8.49825e-21)
(0.739567 -0.482701 1.33165e-20)
(0.75782 -0.396279 5.02077e-20)
(0.775567 -0.427972 -1.45421e-20)
(0.805436 -0.36379 8.27952e-20)
(0.816099 -0.387987 -1.94436e-19)
(0.859268 -0.371049 3.32565e-21)
(0.861006 -0.353064 -8.58392e-19)
(0.665841 -0.534826 1.15382e-19)
(0.581656 -0.342218 2.15509e-19)
(0.654988 -0.749284 -9.38552e-20)
(0.774524 -0.740665 -2.51574e-19)
(0.66743 -0.74098 -3.93527e-20)
(0.682791 -0.749488 -2.53916e-19)
(0.686748 -0.703009 -1.32085e-19)
(0.737091 -0.727648 -3.81913e-20)
(0.710476 -0.64771 -1.05136e-19)
(0.745983 -0.675714 -3.65115e-19)
(0.736888 -0.58869 1.15315e-19)
(0.773283 -0.619135 0)
(0.76531 -0.528156 1.37861e-19)
(0.796828 -0.558571 -1.34143e-19)
(0.79524 -0.47117 -6.33611e-21)
(0.822196 -0.499211 -2.71858e-19)
(0.826882 -0.42451 -2.39767e-19)
(0.846702 -0.446624 6.4735e-20)
(0.861791 -0.39712 -3.00205e-19)
(0.87313 -0.410043 -3.21815e-20)
(0.901301 -0.399826 -1.57672e-19)
(0.903947 -0.393485 7.35191e-20)
(0.770332 -0.512338 -1.50112e-19)
(0.686932 -0.31293 1.27996e-19)
(0.759182 -0.736215 -4.11153e-19)
(0.8725 -0.710532 -7.29912e-20)
(0.770522 -0.739165 -2.74133e-19)
(0.790133 -0.739506 1.28866e-20)
(0.787834 -0.705932 -2.35331e-19)
(0.835969 -0.722639 1.97261e-19)
(0.808664 -0.653517 -2.98138e-19)
(0.845863 -0.674894 7.1949e-20)
(0.830065 -0.595963 -2.35108e-19)
(0.867473 -0.619398 4.31088e-19)
(0.850877 -0.536543 -5.29333e-19)
(0.884602 -0.559313 -6.49363e-20)
(0.870097 -0.480988 -2.39013e-19)
(0.899816 -0.500248 -8.18245e-20)
(0.888051 -0.436993 2.82192e-19)
(0.910824 -0.448859 6.49747e-20)
(0.907329 -0.415134 1.20729e-19)
(0.920114 -0.415703 7.55805e-20)
(0.928945 -0.413646 -4.25126e-20)
(0.934828 -0.42972 3.45981e-20)
(0.871567 -0.477499 2.4632e-19)
(0.789378 -0.275036 -1.4322e-19)
(0.861466 -0.709601 3.38087e-19)
(0.96822 -0.66657 6.77555e-20)
(0.871954 -0.725008 4.61984e-19)
(0.895934 -0.71563 3.47704e-19)
(0.887036 -0.696899 5.14719e-19)
(0.933386 -0.704808 -1.63453e-19)
(0.904337 -0.646799 7.59326e-19)
(0.943518 -0.660926 6.98617e-19)