/*--------------------------------*- C++ -*----------------------------------*\
| =========                 |                                                 |
| \\      /  F ield         | OpenFOAM: The Open Source CFD Toolbox           |
|  \\    /   O peration     | Version:  3.0.1                                 |
|   \\  /    A nd           | Web:      www.OpenFOAM.org                      |
|    \\/     M anipulation  |                                                 |
\*---------------------------------------------------------------------------*/
FoamFile
{
    version     2.0;
    format      ascii;
    class       surfaceScalarField;
    location    "0.359836";
    object      phi;
}
// * * * * * * * * * * * * * * * * * * * * * * * * * * * * * * * * * * * * * //

dimensions      [0 3 -1 0 0 0 0];

internalField   nonuniform List<scalar> 
32369
(
-1.18916e-05
1.68027e-05
-4.91103e-06
-2.06894e-05
1.47686e-05
-5.9708e-06
-2.94466e-05
1.58026e-05
-7.04543e-06
-3.77905e-05
1.64358e-05
-8.09186e-06
-4.63263e-05
1.79267e-05
-9.39094e-06
-5.53164e-05
2.02047e-05
-1.12145e-05
-6.50872e-05
2.34755e-05
-1.37047e-05
-7.6054e-05
2.79162e-05
-1.69494e-05
-8.86704e-05
3.37697e-05
-2.11534e-05
-0.00010344
4.14013e-05
-2.66319e-05
5.13555e-05
-3.38099e-05
-0.000120985
-1.75871e-06
1.85614e-05
-4.53425e-06
1.75441e-05
-1.12149e-05
2.24833e-05
-1.89064e-05
2.41272e-05
-2.77519e-05
2.67723e-05
-3.74069e-05
2.98597e-05
-4.81394e-05
3.4208e-05
-6.02142e-05
3.9991e-05
-7.41099e-05
4.76654e-05
-9.0334e-05
5.76254e-05
7.0518e-05
-0.000109496
2.73415e-07
1.8288e-05
-1.18003e-06
1.89976e-05
-5.04211e-06
2.63453e-05
-1.0138e-05
2.92231e-05
-1.73467e-05
3.3981e-05
-2.59851e-05
3.84981e-05
-3.60994e-05
4.43223e-05
-4.76787e-05
5.15704e-05
-6.10754e-05
6.10621e-05
-7.67433e-05
7.32932e-05
8.90627e-05
-9.5288e-05
2.5586e-07
1.80321e-05
-1.32343e-06
2.05769e-05
-3.53569e-06
2.85576e-05
-6.87082e-06
3.25582e-05
-1.21682e-05
3.92784e-05
-1.89646e-05
4.52944e-05
-2.73715e-05
5.27292e-05
-3.74305e-05
6.16294e-05
-4.93001e-05
7.29317e-05
-6.32632e-05
8.72564e-05
0.000105517
-7.97179e-05
1.7535e-07
1.78567e-05
-1.4742e-06
2.22264e-05
-3.04485e-06
3.01282e-05
-5.49248e-06
3.50058e-05
-9.27447e-06
4.30604e-05
-1.41832e-05
5.02031e-05
-2.08411e-05
5.93871e-05
-2.90393e-05
6.98276e-05
-3.89961e-05
8.28885e-05
-5.08677e-05
9.9128e-05
0.000119737
-6.50874e-05
3.19439e-07
1.75373e-05
-9.79096e-07
2.35249e-05
-2.1607e-06
3.13098e-05
-4.12041e-06
3.69656e-05
-6.90826e-06
4.58483e-05
-1.05305e-05
5.38254e-05
-1.56517e-05
6.45082e-05
-2.20277e-05
7.62036e-05
-3.00755e-05
9.09364e-05
-3.9852e-05
0.000108904
0.000131534
-5.1649e-05
4.68803e-07
1.70685e-05
-4.72439e-07
2.44662e-05
-1.20393e-06
3.20413e-05
-2.77854e-06
3.85402e-05
-4.82029e-06
4.789e-05
-7.52651e-06
5.65316e-05
-1.1374e-05
6.83557e-05
-1.62262e-05
8.10558e-05
-2.2564e-05
9.72742e-05
-3.03971e-05
0.000116738
0.000141119
-3.9982e-05
3.85087e-07
1.66834e-05
-2.01777e-07
2.50531e-05
-5.58393e-07
3.23979e-05
-1.8521e-06
3.98339e-05
-3.15968e-06
4.91976e-05
-5.21693e-06
5.85888e-05
-7.87612e-06
7.10149e-05
-1.15132e-05
8.46928e-05
-1.62887e-05
0.00010205
-2.2239e-05
0.000122688
0.00014857
-2.969e-05
3.63311e-07
1.63201e-05
1.76911e-07
2.52395e-05
3.82143e-08
3.25366e-05
-8.24235e-07
4.06963e-05
-1.57487e-06
4.99482e-05
-3.0589e-06
6.00729e-05
-4.78559e-06
7.27416e-05
-7.41727e-06
8.73245e-05
-1.0712e-05
0.000105344
-1.50978e-05
0.000127074
0.000154163
-2.06907e-05
6.46767e-07
1.56733e-05
8.66682e-07
2.50195e-05
1.02734e-06
3.2376e-05
6.00845e-07
4.11228e-05
2.93864e-07
5.02552e-05
-5.95216e-07
6.09619e-05
-1.63408e-06
7.37805e-05
-3.27667e-06
8.89671e-05
-5.45736e-06
0.000107525
-8.50173e-06
0.000130118
0.000158148
-1.24873e-05
8.45659e-07
1.48277e-05
1.44088e-06
2.44243e-05
1.90598e-06
3.19109e-05
1.96101e-06
4.10678e-05
2.07589e-06
5.01403e-05
1.7598e-06
6.1278e-05
1.41884e-06
7.41214e-05
6.29896e-07
8.97561e-05
-5.0008e-07
0.000108655
-2.25376e-06
0.000131872
0.000160496
-4.60175e-06
8.48514e-07
1.39792e-05
1.67379e-06
2.3599e-05
2.41623e-06
3.11684e-05
2.91702e-06
4.0567e-05
3.46743e-06
4.95899e-05
3.75734e-06
6.09881e-05
4.11041e-06
7.37684e-05
4.21275e-06
8.96537e-05
4.16386e-06
0.000108704
3.75945e-06
0.000132276
0.000161278
2.97753e-06
9.34459e-07
1.30447e-05
2.05215e-06
2.24813e-05
3.1121e-06
3.01085e-05
4.07788e-06
3.96012e-05
5.054e-06
4.86138e-05
5.95398e-06
6.00881e-05
6.95909e-06
7.27632e-05
7.90586e-06
8.87069e-05
8.90706e-06
0.000107703
9.83035e-06
0.000131353
0.00016053
1.05789e-05
1.1807e-06
1.1864e-05
2.66465e-06
2.09974e-05
4.13211e-06
2.8641e-05
5.58471e-06
3.81486e-05
7.02432e-06
4.71742e-05
8.53624e-06
5.85762e-05
1.02008e-05
7.10987e-05
1.20101e-05
8.68976e-05
1.40071e-05
0.000105706
1.61753e-05
0.000129185
0.000158242
1.84634e-05
1.1957e-06
1.06683e-05
2.88417e-06
1.93089e-05
4.69171e-06
2.68335e-05
6.65139e-06
3.61889e-05
8.64505e-06
4.51805e-05
1.08511e-05
5.63702e-05
1.32624e-05
6.86874e-05
1.60249e-05
8.4135e-05
1.91626e-05
0.000102568
2.26966e-05
0.000125651
0.000154219
2.67191e-05
1.24302e-06
9.42529e-06
3.14794e-06
1.7404e-05
5.31331e-06
2.46681e-05
7.81113e-06
3.36911e-05
1.04031e-05
4.25886e-05
1.33383e-05
5.3435e-05
1.65825e-05
6.54432e-05
2.03538e-05
8.03638e-05
2.46747e-05
9.82473e-05
2.97575e-05
0.000120568
0.000148316
3.56605e-05
1.3902e-06
8.03509e-06
3.54814e-06
1.52461e-05
6.11611e-06
2.21001e-05
9.16575e-06
3.06415e-05
1.24349e-05
3.93194e-05
1.61623e-05
4.97076e-05
2.03143e-05
6.12913e-05
2.51736e-05
7.55045e-05
3.0825e-05
9.25959e-05
3.74745e-05
0.000113918
0.000140589
4.52012e-05
1.41263e-06
6.62246e-06
3.71207e-06
1.29466e-05
6.62288e-06
1.91893e-05
1.02152e-05
2.70491e-05
1.4211e-05
3.53236e-05
1.88284e-05
4.50901e-05
2.4049e-05
5.60707e-05
3.01618e-05
6.93916e-05
3.72941e-05
8.54636e-05
4.57101e-05
0.000105502
0.00013059
5.57091e-05
1.39884e-06
5.22362e-06
3.77787e-06
1.05676e-05
6.98127e-06
1.59859e-05
1.10708e-05
2.29596e-05
1.58231e-05
3.05713e-05
2.14161e-05
3.94971e-05
2.78437e-05
4.96432e-05
3.53838e-05
6.18514e-05
4.42274e-05
7.662e-05
5.47312e-05
9.49985e-05
0.000118088
6.72337e-05
1.33834e-06
3.88529e-06
3.71805e-06
8.18789e-06
7.09038e-06
1.26136e-05
1.16149e-05
1.84351e-05
1.71097e-05
2.50765e-05
2.37197e-05
3.28871e-05
3.14626e-05
4.19002e-05
4.05949e-05
5.27192e-05
5.13353e-05
6.58795e-05
6.4084e-05
8.22498e-05
0.000102851
7.93205e-05
1.23352e-06
2.65177e-06
3.4839e-06
5.93751e-06
6.88131e-06
9.2162e-06
1.16595e-05
1.3657e-05
1.77675e-05
1.89685e-05
2.53276e-05
2.5327e-05
3.4389e-05
3.28389e-05
4.51554e-05
4.19528e-05
5.78976e-05
5.31373e-05
7.30529e-05
6.70945e-05
8.46869e-05
9.12175e-05
9.80265e-07
1.6715e-06
3.02459e-06
3.89318e-06
6.236e-06
6.00479e-06
1.09804e-05
8.91262e-06
1.73938e-05
1.2555e-05
2.56121e-05
1.71087e-05
3.57004e-05
2.27506e-05
4.78804e-05
2.97728e-05
6.24648e-05
3.8553e-05
7.99641e-05
4.95952e-05
6.33034e-05
0.000101348
9.28719e-07
7.42784e-07
2.53223e-06
2.28967e-06
5.29113e-06
3.2459e-06
9.6139e-06
4.58984e-06
1.57191e-05
6.44976e-06
2.38039e-05
9.02396e-06
3.4079e-05
1.24755e-05
4.68155e-05
1.70363e-05
6.23739e-05
2.29946e-05
8.12199e-05
3.07492e-05
4.08151e-05
0.000103708
-4.8326e-07
1.22604e-06
1.57607e-06
2.3034e-07
4.821e-06
9.65219e-10
8.89695e-06
5.13889e-07
1.41866e-05
1.16011e-06
2.11292e-05
2.08141e-06
3.01243e-05
3.48036e-06
4.1661e-05
5.49956e-06
5.62681e-05
8.38741e-06
7.44921e-05
1.25253e-05
1.85765e-05
9.67306e-05
-1.32541e-05
8.34306e-06
-2.4592e-05
5.36708e-06
-3.49953e-05
3.35786e-06
-4.42167e-05
1.12958e-06
-5.29361e-05
-6.71557e-07
-6.18709e-05
-2.27972e-06
-7.1444e-05
-4.13161e-06
-8.23074e-05
-6.08604e-06
-9.48924e-05
-8.56836e-06
-0.000109581
-1.19437e-05
-1.66146e-05
-0.000126776
-4.43542e-06
1.27785e-05
-9.93963e-06
1.08713e-05
-1.85282e-05
1.19464e-05
-2.80948e-05
1.06961e-05
-3.81376e-05
9.3713e-06
-4.87375e-05
8.32011e-06
-6.0279e-05
7.40994e-06
-7.30889e-05
6.72381e-06
-8.76501e-05
5.99291e-06
-0.000104483
4.8895e-06
3.03989e-06
-0.000124138
-1.78912e-06
1.45676e-05
-4.99388e-06
1.4076e-05
-1.08044e-05
1.7757e-05
-1.82687e-05
1.81604e-05
-2.75696e-05
1.86723e-05
-3.79841e-05
1.87346e-05
-4.97141e-05
1.91399e-05
-6.28908e-05
1.99005e-05
-7.78988e-05
2.10008e-05
-9.52181e-05
2.22089e-05
2.3153e-05
-0.000115331
-1.22417e-06
1.57918e-05
-4.01359e-06
1.68655e-05
-8.10363e-06
2.1847e-05
-1.36271e-05
2.36839e-05
-2.10442e-05
2.60893e-05
-3.01986e-05
2.7889e-05
-4.09304e-05
2.98717e-05
-5.32268e-05
3.2197e-05
-6.73033e-05
3.50773e-05
-8.35283e-05
3.84339e-05
4.20764e-05
-0.000102452
-1.17945e-06
1.69712e-05
-3.90073e-06
1.95868e-05
-7.07386e-06
2.50201e-05
-1.13482e-05
2.79582e-05
-1.71754e-05
3.19165e-05
-2.4611e-05
3.53246e-05
-3.37036e-05
3.89643e-05
-4.44459e-05
4.29393e-05
-5.69346e-05
4.7566e-05
-7.13899e-05
5.28893e-05
5.87851e-05
-8.80987e-05
-1.07133e-06
1.80426e-05
-3.56115e-06
2.20766e-05
-6.2216e-06
2.76806e-05
-9.70568e-06
3.14423e-05
-1.43452e-05
3.6556e-05
-2.02178e-05
4.11973e-05
-2.76144e-05
4.63609e-05
-3.65457e-05
5.18706e-05
-4.70589e-05
5.80792e-05
-5.92057e-05
6.50361e-05
7.26647e-05
-7.30853e-05
-8.98108e-07
1.89407e-05
-3.02496e-06
2.42034e-05
-5.25407e-06
2.99097e-05
-8.12505e-06
3.43132e-05
-1.18761e-05
4.03071e-05
-1.65114e-05
4.58326e-05
-2.24047e-05
5.22542e-05
-2.95921e-05
5.9058e-05
-3.81138e-05
6.66008e-05
-4.79896e-05
7.49118e-05
8.39007e-05
-5.92255e-05
-8.51278e-07
1.97919e-05
-2.63108e-06
2.59832e-05
-4.47842e-06
3.1757e-05
-6.82373e-06
3.66586e-05
-9.71644e-06
4.31998e-05
-1.34049e-05
4.9521e-05
-1.79907e-05
5.684e-05
-2.35754e-05
6.46428e-05
-3.02461e-05
7.32715e-05
-3.80211e-05
8.26869e-05
9.27952e-05
-4.69156e-05
-7.23585e-07
2.05155e-05
-2.22401e-06
2.74836e-05
-3.55103e-06
3.3084e-05
-5.5894e-06
3.86969e-05
-7.73684e-06
4.53473e-05
-1.05292e-05
5.23134e-05
-1.39579e-05
6.02686e-05
-1.81498e-05
6.88347e-05
-2.31807e-05
7.83024e-05
-2.90927e-05
8.85988e-05
9.97443e-05
-3.60419e-05
-5.15609e-07
2.10311e-05
-1.67056e-06
2.86386e-05
-2.66366e-06
3.40771e-05
-4.10789e-06
4.01412e-05
-5.6881e-06
4.69275e-05
-7.70697e-06
5.43323e-05
-1.0115e-05
6.26766e-05
-1.30734e-05
7.17931e-05
-1.66354e-05
8.18644e-05
-2.08706e-05
9.28341e-05
0.000104699
-2.5825e-05
-2.22719e-07
2.12539e-05
-8.84085e-07
2.93e-05
-1.51558e-06
3.47086e-05
-2.46414e-06
4.10897e-05
-3.42234e-06
4.78857e-05
-4.71004e-06
5.562e-05
-6.21662e-06
6.41832e-05
-8.07195e-06
7.36484e-05
-1.03241e-05
8.41165e-05
-1.30401e-05
9.55501e-05
0.000108014
-1.63553e-05
-3.02237e-08
2.12841e-05
-3.68417e-07
2.96382e-05
-5.75859e-07
3.49161e-05
-1.02031e-06
4.15342e-05
-1.37436e-06
4.82397e-05
-1.91405e-06
5.61597e-05
-2.50304e-06
6.47722e-05
-3.27236e-06
7.44177e-05
-4.22454e-06
8.50687e-05
-5.42959e-06
9.67552e-05
0.000109547
-6.96217e-06
2.00257e-07
2.10838e-05
2.60642e-07
2.95778e-05
4.40199e-07
3.47365e-05
5.25278e-07
4.14491e-05
7.71885e-07
4.79931e-05
9.7038e-07
5.59612e-05
1.27096e-06
6.44716e-05
1.57506e-06
7.41136e-05
1.90509e-06
8.47387e-05
2.20967e-06
9.64506e-05
0.000109269
2.48694e-06
5.70565e-07
2.05133e-05
1.07622e-06
2.90721e-05
1.68595e-06
3.41268e-05
2.3136e-06
4.08215e-05
3.1492e-06
4.71575e-05
4.08887e-06
5.50215e-05
5.2689e-06
6.32916e-05
6.62673e-06
7.27558e-05
8.23128e-06
8.31341e-05
1.00643e-05
9.46175e-05
0.000107159
1.21743e-05
7.79244e-07
1.9734e-05
1.6838e-06
2.81676e-05
2.74376e-06
3.30668e-05
3.95095e-06
3.96143e-05
5.41816e-06
4.56903e-05
7.16332e-06
5.32764e-05
9.26563e-06
6.11893e-05
1.17489e-05
7.02725e-05
1.46977e-05
8.01854e-05
1.81568e-05
9.11584e-05
0.000103088
2.2228e-05
1.04229e-06
1.86917e-05
2.37186e-06
2.6838e-05
3.90249e-06
3.15362e-05
5.71292e-06
3.78038e-05
7.84698e-06
4.35562e-05
1.04312e-05
5.06922e-05
1.35012e-05
5.81193e-05
1.71529e-05
6.66207e-05
2.14924e-05
7.58459e-05
2.66049e-05
8.60459e-05
9.70275e-05
3.26655e-05
1.3544e-06
1.73373e-05
3.15767e-06
2.50347e-05
5.19803e-06
2.94958e-05
7.65423e-06
3.53476e-05
1.05017e-05
4.07088e-05
1.39666e-05
4.72273e-05
1.80605e-05
5.40253e-05
2.29411e-05
6.17402e-05
2.87003e-05
7.00867e-05
3.55252e-05
7.92209e-05
8.8881e-05
4.36717e-05
1.65958e-06
1.56777e-05
3.93308e-06
2.27612e-05
6.53328e-06
2.68956e-05
9.68483e-06
3.21961e-05
1.33189e-05
3.70747e-05
1.77228e-05
4.28234e-05
2.29099e-05
4.88382e-05
2.90803e-05
5.55698e-05
3.63514e-05
6.28157e-05
4.4927e-05
7.06453e-05
7.87488e-05
5.50592e-05
1.97083e-06
1.37069e-05
4.72537e-06
2.00067e-05
7.9251e-06
2.36959e-05
1.18249e-05
2.82963e-05
1.63345e-05
3.2565e-05
2.17476e-05
3.74104e-05
2.81101e-05
4.24757e-05
3.56332e-05
4.80467e-05
4.44525e-05
5.39964e-05
5.48252e-05
6.02726e-05
6.65197e-05
6.70542e-05
2.30702e-06
1.13999e-05
5.55178e-06
1.67619e-05
9.39754e-06
1.98502e-05
1.40951e-05
2.35987e-05
1.95522e-05
2.71079e-05
2.6037e-05
3.09256e-05
3.36179e-05
3.48947e-05
4.25113e-05
3.91533e-05
5.29061e-05
4.36016e-05
6.50754e-05
4.81033e-05
5.22699e-05
7.93253e-05
2.66281e-06
8.73709e-06
6.40069e-06
1.3024e-05
1.09133e-05
1.53376e-05
1.64282e-05
1.80838e-05
2.28494e-05
2.06868e-05
3.04032e-05
2.33718e-05
3.91966e-05
2.61013e-05
4.944e-05
2.89098e-05
6.1363e-05
3.16787e-05
7.52631e-05
3.42032e-05
3.60491e-05
9.14839e-05
3.04076e-06
5.69632e-06
7.28103e-06
8.78378e-06
1.24019e-05
1.02167e-05
1.86173e-05
1.18683e-05
2.58905e-05
1.34136e-05
3.4389e-05
1.48733e-05
4.42582e-05
1.62321e-05
5.5717e-05
1.74511e-05
6.90143e-05
1.83813e-05
8.44678e-05
1.87497e-05
1.80491e-05
0.000102468
3.8696e-06
1.82673e-06
8.43741e-06
4.21596e-06
1.37967e-05
4.8574e-06
2.03034e-05
5.36164e-06
2.80114e-05
5.70557e-06
3.70602e-05
5.82458e-06
4.76091e-05
5.68316e-06
5.99005e-05
5.15972e-06
7.41743e-05
4.10752e-06
9.06411e-05
2.28289e-06
-6.42981e-07
0.000109333
3.05277e-06
7.49908e-06
1.23574e-05
1.8233e-05
2.50986e-05
3.30046e-05
4.21682e-05
5.28274e-05
6.53224e-05
8.01305e-05
9.8064e-05
-2.22861e-06
1.44913e-05
-1.22627e-05
-4.59462e-06
1.38064e-05
-1.14404e-05
-8.63859e-06
1.66439e-05
-1.25999e-05
-1.35878e-05
1.91079e-05
-1.41587e-05
-1.8861e-05
2.1459e-05
-1.61859e-05
-2.44797e-05
2.43993e-05
-1.87805e-05
-3.06034e-05
2.81675e-05
-2.20438e-05
-3.74655e-05
3.30158e-05
-2.61536e-05
-4.53367e-05
3.92551e-05
-3.1384e-05
-5.45263e-05
4.73174e-05
-3.81277e-05
5.78098e-05
-4.68667e-05
-6.54695e-05
3.25392e-06
1.12374e-05
4.19689e-06
1.28634e-05
2.84585e-06
1.79949e-05
-1.40863e-07
2.20946e-05
-4.54516e-06
2.58633e-05
-1.0024e-05
2.98781e-05
-1.63771e-05
3.45205e-05
-2.36816e-05
4.03204e-05
-3.21381e-05
4.77116e-05
-4.20564e-05
5.72357e-05
6.95505e-05
-5.37971e-05
2.56276e-06
8.67467e-06
3.72738e-06
1.16988e-05
4.23595e-06
1.74864e-05
3.54712e-06
2.27835e-05
1.23037e-06
2.81801e-05
-2.6231e-06
3.37316e-05
-7.76374e-06
3.96612e-05
-1.40628e-05
4.66194e-05
-2.15777e-05
5.52265e-05
-3.05004e-05
6.61585e-05
8.02497e-05
-4.11997e-05
2.07724e-06
6.59743e-06
2.93275e-06
1.08433e-05
3.88912e-06
1.653e-05
4.23377e-06
2.24388e-05
3.46827e-06
2.89456e-05
1.37521e-06
3.58246e-05
-2.06784e-06
4.31042e-05
-6.76702e-06
5.13186e-05
-1.26886e-05
6.11481e-05
-1.9912e-05
7.33819e-05
8.8875e-05
-2.85373e-05
1.63319e-06
4.96424e-06
2.76187e-06
9.71458e-06
3.87076e-06
1.54211e-05
4.62729e-06
2.16823e-05
4.73736e-06
2.88355e-05
3.92518e-06
3.66368e-05
2.00108e-06
4.50283e-05
-1.08017e-06
5.43998e-05
-5.30357e-06
6.53715e-05
-1.07018e-05
7.878e-05
9.55724e-05
-1.73992e-05
1.42923e-06
3.53501e-06
2.81967e-06
8.32415e-06
4.25815e-06
1.39826e-05
5.38713e-06
2.05533e-05
6.08053e-06
2.81421e-05
6.13084e-06
3.65865e-05
5.33757e-06
4.58216e-05
3.60668e-06
5.61307e-05
8.91777e-07
6.80864e-05
-2.83899e-06
8.25108e-05
0.000100405
-7.67129e-06
1.34278e-06
2.19223e-06
2.95879e-06
6.70814e-06
4.62833e-06
1.23131e-05
6.12545e-06
1.90562e-05
7.31791e-06
2.69496e-05
8.04588e-06
3.58585e-05
8.13309e-06
4.57344e-05
7.48544e-06
5.67784e-05
6.05691e-06
6.95149e-05
3.81368e-06
8.4754e-05
0.000103517
7.01155e-07
1.20735e-06
9.84881e-07
2.90694e-06
5.00856e-06
4.72923e-06
1.04908e-05
6.52364e-06
1.72618e-05
8.16567e-06
2.53076e-05
9.48492e-06
3.45393e-05
1.03358e-05
4.48835e-05
1.0624e-05
5.64901e-05
1.03184e-05
6.98206e-05
9.40864e-06
8.56638e-05
0.0001051
7.82612e-06
9.65778e-07
1.91027e-08
2.5558e-06
3.41853e-06
4.50063e-06
8.54596e-06
6.60422e-06
1.51582e-05
8.67418e-06
2.32377e-05
1.05535e-05
3.266e-05
1.21e-05
4.3337e-05
1.32283e-05
5.53618e-05
1.3927e-05
6.91218e-05
1.4218e-05
8.53728e-05
0.000105195
1.41224e-05
5.09328e-07
-4.90225e-07
1.90389e-06
2.02397e-06
4.01228e-06
6.43757e-06
6.42776e-06
1.27427e-05
8.93019e-06
2.07352e-05
1.135e-05
3.02402e-05
1.35565e-05
4.11304e-05
1.54589e-05
5.34594e-05
1.70554e-05
6.75253e-05
1.84136e-05
8.40147e-05
0.000104006
1.96026e-05
2.25445e-07
-7.1567e-07
1.32853e-06
9.20889e-07
3.30927e-06
4.45683e-06
5.87087e-06
1.01811e-05
8.71236e-06
1.78937e-05
1.16273e-05
2.73253e-05
1.44531e-05
3.83046e-05
1.71043e-05
5.08083e-05
1.95737e-05
6.50559e-05
2.19612e-05
8.16273e-05
0.000101539
2.44286e-05
1.30656e-07
-8.46326e-07
8.46715e-07
2.04831e-07
2.48902e-06
2.81452e-06
4.96375e-06
7.70638e-06
7.979e-06
1.48785e-05
1.12685e-05
2.40358e-05
1.46438e-05
3.49293e-05
1.80056e-05
4.74465e-05
2.13473e-05
6.17142e-05
2.47855e-05
7.81891e-05
9.77801e-05
2.85443e-05
1.28023e-07
-9.74348e-07
5.81543e-07
-2.4869e-07
1.80558e-06
1.59049e-06
4.01245e-06
5.4995e-06
7.02103e-06
1.18699e-05
1.05429e-05
2.05139e-05
1.43546e-05
3.11176e-05
1.83332e-05
4.34679e-05
2.2474e-05
5.75733e-05
2.69172e-05
7.3746e-05
9.27594e-05
3.19379e-05
1.14408e-07
-1.08876e-06
4.23112e-07
-5.57394e-07
1.31544e-06
6.98163e-07
3.14922e-06
3.66572e-06
5.96141e-06
9.05772e-06
9.53332e-06
1.6942e-05
1.36236e-05
2.70273e-05
1.80879e-05
3.90036e-05
2.2917e-05
5.27442e-05
2.82495e-05
6.84135e-05
8.65853e-05
3.44236e-05
8.62132e-08
-1.17497e-06
2.70326e-07
-7.41507e-07
8.84303e-07
8.41856e-08
2.27511e-06
2.27491e-06
4.68935e-06
6.64348e-06
8.07056e-06
1.35608e-05
1.22233e-05
2.28746e-05
1.70032e-05
3.42237e-05
2.24042e-05
4.73433e-05
2.85674e-05
6.22503e-05
7.93435e-05
3.58091e-05
4.93582e-08
-1.22433e-06
1.27067e-07
-8.19216e-07
5.0387e-07
-2.92618e-07
1.47661e-06
1.30217e-06
3.40826e-06
4.71183e-06
6.41033e-06
1.05587e-05
1.04028e-05
1.88821e-05
1.52776e-05
2.93489e-05
2.10564e-05
4.15645e-05
2.78742e-05
5.54324e-05
7.10987e-05
3.61191e-05
-1.40158e-09
-1.22293e-06
-1.64827e-08
-8.04135e-07
1.494e-07
-4.585e-07
7.47553e-07
7.04018e-07
2.17912e-06
3.28026e-06
4.69029e-06
8.04754e-06
8.32975e-06
1.52426e-05
1.30926e-05
2.45861e-05
1.898e-05
3.56771e-05
2.61742e-05
4.82383e-05
6.23407e-05
3.49321e-05
-5.36476e-08
-1.16928e-06
-1.61398e-07
-6.96384e-07
-1.76361e-07
-4.43537e-07
7.13343e-08
4.56323e-07
9.84547e-07
2.36705e-06
2.93953e-06
6.09256e-06
6.06339e-06
1.21188e-05
1.04605e-05
2.01889e-05
1.62459e-05
2.98916e-05
2.35722e-05
4.0912e-05
5.31978e-05
3.27151e-05
-1.11939e-07
-1.05734e-06
-3.06181e-07
-5.02143e-07
-4.67077e-07
-2.8264e-07
-4.83933e-07
4.73178e-07
-3.47304e-08
1.91784e-06
1.36513e-06
4.6927e-06
3.9359e-06
9.54799e-06
7.84884e-06
1.6276e-05
1.32935e-05
2.4447e-05
2.04734e-05
3.37321e-05
4.38648e-05
2.98064e-05
-1.8106e-07
-8.7628e-07
-4.61136e-07
-2.22067e-07
-7.44062e-07
2.86042e-10
-9.13516e-07
6.42632e-07
-7.40367e-07
1.7447e-06
1.93786e-07
3.75854e-06
2.26837e-06
7.4734e-06
5.65727e-06
1.28871e-05
1.05958e-05
1.95085e-05
1.73367e-05
2.69912e-05
3.48939e-05
2.63076e-05
-2.75813e-07
-6.00467e-07
-6.46254e-07
1.48374e-07
-1.00208e-06
3.56109e-07
-1.19013e-06
8.30689e-07
-1.02909e-06
1.58365e-06
-2.72978e-07
3.00243e-06
1.46872e-06
5.73171e-06
4.42885e-06
9.92697e-06
8.8021e-06
1.51352e-05
1.49111e-05
2.08822e-05
2.65281e-05
2.3277e-05
-5.70696e-07
-2.97705e-08
-9.61211e-07
5.38889e-07
-1.18975e-06
5.84648e-07
-1.12017e-06
7.61105e-07
-6.35394e-07
1.09888e-06
3.76273e-07
1.99077e-06
2.13993e-06
3.96805e-06
4.91453e-06
7.15237e-06
8.95e-06
1.10997e-05
1.46655e-05
1.51667e-05
1.86716e-05
2.25219e-05
-8.03282e-07
7.73511e-07
-8.07475e-07
5.43082e-07
-4.77045e-07
2.54217e-07
2.14638e-07
6.94211e-08
1.27986e-06
3.36598e-08
2.7724e-06
4.9822e-07
4.88605e-06
1.85441e-06
7.95453e-06
4.08388e-06
1.23813e-05
6.67294e-06
1.86846e-05
8.8634e-06
9.72198e-06
2.76342e-05
2.53014e-06
-1.75662e-06
4.27189e-06
-1.19867e-06
5.73521e-06
-1.2091e-06
7.09456e-06
-1.28993e-06
8.28497e-06
-1.15675e-06
9.57773e-06
-7.94548e-07
1.16341e-05
-2.01936e-07
1.511e-05
6.0794e-07
2.03779e-05
1.40509e-06
2.77298e-05
1.51149e-06
2.02475e-07
3.72493e-05
-1.06327e-05
-1.62999e-06
-1.78062e-05
-4.26692e-06
-2.36519e-05
-6.75424e-06
-2.87478e-05
-9.06283e-06
-3.35546e-05
-1.13791e-05
-3.84984e-05
-1.38367e-05
-4.39193e-05
-1.6623e-05
-5.00984e-05
-1.99745e-05
-5.72914e-05
-2.41911e-05
-6.57596e-05
-2.96595e-05
-3.69116e-05
-7.57146e-05
-5.52475e-06
3.89477e-06
-1.11373e-05
1.34565e-06
-1.73312e-05
-5.60403e-07
-2.3277e-05
-3.11703e-06
-2.90803e-05
-5.57573e-06
-3.50278e-05
-7.88913e-06
-4.1451e-05
-1.01998e-05
-4.86798e-05
-1.27457e-05
-5.70438e-05
-1.58271e-05
-6.68684e-05
-1.98349e-05
-2.52321e-05
-7.85479e-05
-2.25387e-06
6.14864e-06
-5.72508e-06
4.81686e-06
-1.06067e-05
4.32117e-06
-1.65048e-05
2.78115e-06
-2.29431e-05
8.62548e-07
-2.96847e-05
-1.14759e-06
-3.68738e-05
-3.01065e-06
-4.48314e-05
-4.78803e-06
-5.39152e-05
-6.74334e-06
-6.44868e-05
-9.26326e-06
-1.28229e-05
-7.6896e-05
-1.3948e-06
7.54344e-06
-3.70529e-06
7.12735e-06
-7.13876e-06
7.75464e-06
-1.1774e-05
7.41642e-06
-1.75463e-05
6.63484e-06
-2.42386e-05
5.54469e-06
-3.17062e-05
4.45697e-06
-3.99942e-05
3.49995e-06
-4.93192e-05
2.5817e-06
-6.00107e-05
1.42819e-06
-3.33626e-07
-7.25e-05
-1.20565e-06
8.7491e-06
-3.1733e-06
9.095e-06
-5.85955e-06
1.04409e-05
-9.44012e-06
1.0997e-05
-1.40967e-05
1.12914e-05
-1.98607e-05
1.13087e-05
-2.66587e-05
1.1255e-05
-3.44676e-05
1.13088e-05
-4.34088e-05
1.15229e-05
-5.36974e-05
1.17168e-05
1.16488e-05
-6.56798e-05
-1.06346e-06
9.81255e-06
-2.81659e-06
1.08481e-05
-5.05906e-06
1.26834e-05
-7.99353e-06
1.39315e-05
-1.18329e-05
1.51308e-05
-1.67021e-05
1.61779e-05
-2.26408e-05
1.71936e-05
-2.96614e-05
1.83294e-05
-3.77747e-05
1.96362e-05
-4.71613e-05
2.11034e-05
2.25173e-05
-5.80298e-05
-9.23564e-07
1.07361e-05
-2.46026e-06
1.23848e-05
-4.36905e-06
1.45921e-05
-6.834e-06
1.63964e-05
-1.00439e-05
1.83407e-05
-1.41323e-05
2.02663e-05
-1.92005e-05
2.22619e-05
-2.52952e-05
2.44241e-05
-3.24713e-05
2.68123e-05
-4.08296e-05
2.94617e-05
3.22328e-05
-5.0545e-05
-8.45337e-07
1.15815e-05
-2.18742e-06
1.37269e-05
-3.83018e-06
1.62349e-05
-5.90558e-06
1.84718e-05
-8.59122e-06
2.10263e-05
-1.19997e-05
2.36747e-05
-1.62514e-05
2.65136e-05
-2.14216e-05
2.95943e-05
-2.75947e-05
3.29854e-05
-3.48101e-05
3.66771e-05
4.05606e-05
-4.31379e-05
-7.31757e-07
1.23132e-05
-1.89767e-06
1.48928e-05
-3.25122e-06
1.75884e-05
-5.00437e-06
2.0225e-05
-7.21844e-06
2.32404e-05
-1.00287e-05
2.6485e-05
-1.35435e-05
3.00284e-05
-1.78694e-05
3.39202e-05
-2.3094e-05
3.821e-05
-2.93169e-05
4.29001e-05
4.79021e-05
-3.66584e-05
-5.79935e-07
1.28931e-05
-1.56599e-06
1.58789e-05
-2.63693e-06
1.86594e-05
-4.06028e-06
2.16483e-05
-5.84263e-06
2.50227e-05
-8.09105e-06
2.87334e-05
-1.0922e-05
3.28594e-05
-1.44351e-05
3.74333e-05
-1.87394e-05
4.25143e-05
-2.39354e-05
4.80961e-05
5.40165e-05
-3.00499e-05
-4.1546e-07
1.33086e-05
-1.0752e-06
1.65386e-05
-1.88969e-06
1.94739e-05
-2.95837e-06
2.2717e-05
-4.30425e-06
2.63686e-05
-6.02002e-06
3.04492e-05
-8.18887e-06
3.50282e-05
-1.09166e-05
4.0161e-05
-1.43048e-05
4.59025e-05
-1.84602e-05
5.22514e-05
5.90313e-05
-2.34749e-05
-2.53249e-07
1.35619e-05
-7.01504e-07
1.69869e-05
-1.23046e-06
2.00028e-05
-1.93854e-06
2.34251e-05
-2.82949e-06
2.72596e-05
-3.98074e-06
3.16004e-05
-5.45941e-06
3.65069e-05
-7.35245e-06
4.2054e-05
-9.7708e-06
4.83208e-05
-1.28415e-05
5.53221e-05
6.28583e-05
-1.66685e-05
-6.42882e-08
1.36261e-05
-2.62265e-07
1.71849e-05
-4.99976e-07
2.02405e-05
-8.26838e-07
2.37519e-05
-1.25419e-06
2.76869e-05
-1.82228e-06
3.21685e-05
-2.57927e-06
3.72638e-05
-3.6027e-06
4.30775e-05
-4.99066e-06
4.97088e-05
-6.9167e-06
5.72482e-05
6.55704e-05
-9.62882e-06
1.88715e-07
1.34374e-05
2.94381e-07
1.70792e-05
3.81526e-07
2.01534e-05
4.46876e-07
2.36866e-05
5.04929e-07
2.76289e-05
5.34803e-07
3.21386e-05
5.20601e-07
3.72781e-05
4.13618e-07
4.31845e-05
1.2025e-07
5.00022e-05
-5.07855e-07
5.78763e-05
6.67724e-05
-1.70982e-06
3.70501e-07
1.30669e-05
7.40568e-07
1.67091e-05
1.1676e-06
1.97264e-05
1.65366e-06
2.32005e-05
2.22329e-06
2.70592e-05
2.89553e-06
3.14664e-05
3.67411e-06
3.64995e-05
4.54647e-06
4.23121e-05
5.44314e-06
4.91055e-05
6.23967e-06
5.70797e-05
6.63175e-05
6.69457e-06
5.72433e-07
1.24945e-05
1.23816e-06
1.60434e-05
2.01397e-06
1.89506e-05
2.93258e-06
2.22819e-05
4.0351e-06
2.59567e-05
5.36732e-06
3.01342e-05
6.96543e-06
3.49014e-05
8.84522e-06
4.04323e-05
1.09734e-05
4.69773e-05
1.32438e-05
5.48093e-05
6.41659e-05
1.53953e-05
8.06134e-07
1.16884e-05
1.78565e-06
1.50639e-05
2.9325e-06
1.78037e-05
4.3025e-06
2.09119e-05
5.94967e-06
2.43096e-05
7.94822e-06
2.81356e-05
1.03719e-05
3.24777e-05
1.32693e-05
3.75349e-05
1.66372e-05
4.36094e-05
2.03926e-05
5.10539e-05
6.01893e-05
2.43693e-05
1.03236e-06
1.0656e-05
2.3263e-06
1.37699e-05
3.84931e-06
1.62807e-05
5.67615e-06
1.90851e-05
7.87069e-06
2.2115e-05
1.05424e-05
2.54639e-05
1.37824e-05
2.92377e-05
1.76772e-05
3.36401e-05
2.22633e-05
3.90233e-05
2.74837e-05
4.58335e-05
5.45284e-05
3.31446e-05
1.25049e-06
9.40552e-06
2.84643e-06
1.2174e-05
4.74388e-06
1.43832e-05
7.01525e-06
1.68137e-05
9.75012e-06
1.93801e-05
1.30631e-05
2.2151e-05
1.70792e-05
2.52216e-05
2.19119e-05
2.88074e-05
2.76269e-05
3.33083e-05
3.42379e-05
3.92225e-05
4.69235e-05
4.18428e-05
1.4633e-06
7.94221e-06
3.34807e-06
1.02892e-05
5.58797e-06
1.21433e-05
8.27504e-06
1.41266e-05
1.14986e-05
1.61566e-05
1.53865e-05
1.82631e-05
2.00789e-05
2.05291e-05
2.56979e-05
2.31883e-05
3.23379e-05
2.66684e-05
3.9974e-05
3.15864e-05
3.84853e-05
4.84123e-05
1.65086e-06
6.29135e-06
3.76587e-06
8.17423e-06
6.29734e-06
9.61188e-06
9.3304e-06
1.10936e-05
1.29516e-05
1.25353e-05
1.72902e-05
1.39245e-05
2.24779e-05
1.53415e-05
2.86527e-05
1.70135e-05
3.59247e-05
1.93964e-05
4.43795e-05
2.31316e-05
2.87904e-05
5.40743e-05
1.75057e-06
4.54078e-06
4.01806e-06
5.90674e-06
6.75374e-06
6.87619e-06
1.00243e-05
7.82296e-06
1.39002e-05
8.65953e-06
1.84849e-05
9.33981e-06
2.39036e-05
9.92278e-06
3.02915e-05
1.06255e-05
3.77965e-05
1.18914e-05
4.66219e-05
1.43063e-05
1.81771e-05
5.72351e-05
1.82422e-06
2.71657e-06
4.16507e-06
3.56588e-06
6.96875e-06
4.07251e-06
1.02763e-05
4.51541e-06
1.41425e-05
4.79332e-06
1.86472e-05
4.83511e-06
2.38975e-05
4.67251e-06
3.00212e-05
4.50177e-06
3.7142e-05
4.77065e-06
4.53575e-05
6.09081e-06
8.95641e-06
5.45782e-05
9.59942e-07
3.32716e-06
6.19056e-06
9.41604e-06
1.30526e-05
1.70932e-05
2.15637e-05
2.66735e-05
3.28492e-05
4.04515e-05
4.96104e-05
-4.92835e-06
-6.71243e-06
1.16408e-05
-7.91459e-06
-7.70758e-06
1.06938e-05
-1.04174e-05
-9.20152e-06
1.17044e-05
-1.31257e-05
-1.08554e-05
1.35637e-05
-1.60284e-05
-1.25066e-05
1.54093e-05
-1.9074e-05
-1.40505e-05
1.70961e-05
-2.24133e-05
-1.54459e-05
1.87852e-05
-2.62381e-05
-1.66214e-05
2.04463e-05
-3.07006e-05
-1.74318e-05
2.18943e-05
-3.5998e-05
-1.76409e-05
2.29383e-05
-1.68398e-05
2.32248e-05
-4.2383e-05
-4.5435e-06
-2.16893e-06
-8.28048e-06
-3.97059e-06
-1.16396e-05
-5.84239e-06
-1.47852e-05
-7.70978e-06
-1.78561e-05
-9.43567e-06
-2.10013e-05
-1.09054e-05
-2.44178e-05
-1.20294e-05
-2.83264e-05
-1.27129e-05
-3.29603e-05
-1.27979e-05
-3.85844e-05
-1.20169e-05
-9.96353e-06
-4.54607e-05
-2.50444e-06
3.35512e-07
-5.31888e-06
-1.15616e-06
-8.46084e-06
-2.70043e-06
-1.18277e-05
-4.34291e-06
-1.53493e-05
-5.9141e-06
-1.90444e-05
-7.21021e-06
-2.30309e-05
-8.04294e-06
-2.74919e-05
-8.2519e-06
-3.26524e-05
-7.6373e-06
-3.87568e-05
-5.91247e-06
-2.62409e-06
-4.60963e-05
-1.36758e-06
1.70309e-06
-3.37711e-06
8.53371e-07
-6.01515e-06
-6.23779e-08
-9.11286e-06
-1.24521e-06
-1.2609e-05
-2.41799e-06
-1.64917e-05
-3.32746e-06
-2.08095e-05
-3.72517e-06
-2.56691e-05
-3.39225e-06
-3.12126e-05
-2.09387e-06
-3.76328e-05
5.07757e-07
4.96085e-06
-4.52177e-05
-7.39009e-07
2.4421e-06
-2.08754e-06
2.20191e-06
-4.13773e-06
1.98781e-06
-6.84109e-06
1.45815e-06
-1.01415e-05
8.82412e-07
-1.39713e-05
5.02339e-07
-1.8299e-05
6.02524e-07
-2.31904e-05
1.4992e-06
-2.88285e-05
3.54419e-06
-3.54389e-05
7.11818e-06
1.27419e-05
-4.322e-05
-6.52688e-07
3.09479e-06
-1.67462e-06
3.22383e-06
-3.16904e-06
3.48224e-06
-5.27635e-06
3.56546e-06
-8.07269e-06
3.67875e-06
-1.1571e-05
4.00068e-06
-1.57641e-05
4.79564e-06
-2.06719e-05
6.40692e-06
-2.63502e-05
9.22247e-06
-3.29347e-05
1.37027e-05
2.04909e-05
-4.06836e-05
-6.26904e-07
3.72169e-06
-1.61472e-06
4.21165e-06
-2.91079e-06
4.77831e-06
-4.70107e-06
5.35574e-06
-7.09476e-06
6.07244e-06
-1.01731e-05
7.07906e-06
-1.39947e-05
8.61717e-06
-1.85952e-05
1.10075e-05
-2.40296e-05
1.46568e-05
-3.0394e-05
2.00671e-05
2.78881e-05
-3.77912e-05
-6.44005e-07
4.3657e-06
-1.53619e-06
5.10383e-06
-2.73878e-06
5.9809e-06
-4.34719e-06
6.96414e-06
-6.47075e-06
8.196e-06
-9.21877e-06
9.82708e-06
-1.26796e-05
1.2078e-05
-1.69278e-05
1.52558e-05
-2.20383e-05
1.97673e-05
-2.81203e-05
2.61491e-05
3.51188e-05
-3.5351e-05
-6.17622e-07
4.98332e-06
-1.47653e-06
5.96274e-06
-2.59676e-06
7.10114e-06
-4.0725e-06
8.43988e-06
-6.00307e-06
1.01266e-05
-8.49272e-06
1.23167e-05
-1.16451e-05
1.52304e-05
-1.5556e-05
1.91666e-05
-2.03262e-05
2.45376e-05
-2.60821e-05
3.19049e-05
4.20326e-05
-3.29958e-05
-5.42201e-07
5.52552e-06
-1.32871e-06
6.74924e-06
-2.366e-06
8.13843e-06
-3.72849e-06
9.80237e-06
-5.50112e-06
1.18992e-05
-7.78391e-06
1.45995e-05
-1.06812e-05
1.81276e-05
-1.43001e-05
2.27855e-05
-1.87607e-05
2.89982e-05
-2.4191e-05
3.73352e-05
4.85562e-05
-3.07147e-05
-4.71101e-07
5.99662e-06
-1.19012e-06
7.46825e-06
-2.14311e-06
9.09143e-06
-3.39488e-06
1.10541e-05
-5.02476e-06
1.35291e-05
-7.1256e-06
1.67004e-05
-9.79809e-06
2.08001e-05
-1.31517e-05
2.61391e-05
-1.73055e-05
3.3152e-05
-2.23935e-05
4.24233e-05
5.47516e-05
-2.85889e-05
-4.66809e-07
6.46343e-06
-1.14301e-06
8.14445e-06
-2.02398e-06
9.9724e-06
-3.17444e-06
1.22046e-05
-4.67063e-06
1.50253e-05
-6.59711e-06
1.86268e-05
-9.04961e-06
2.32526e-05
-1.21384e-05
2.9228e-05
-1.59814e-05
3.6995e-05
-2.07117e-05
4.71536e-05
6.04837e-05
-2.64439e-05
-4.32785e-07
6.89622e-06
-1.04799e-06
8.75966e-06