/*--------------------------------*- C++ -*----------------------------------*\
| =========                 |                                                 |
| \\      /  F ield         | OpenFOAM: The Open Source CFD Toolbox           |
|  \\    /   O peration     | Version:  3.0.1                                 |
|   \\  /    A nd           | Web:      www.OpenFOAM.org                      |
|    \\/     M anipulation  |                                                 |
\*---------------------------------------------------------------------------*/
FoamFile
{
    version     2.0;
    format      ascii;
    class       volScalarField;
    location    "0.623089";
    object      epsilon;
}
// * * * * * * * * * * * * * * * * * * * * * * * * * * * * * * * * * * * * * //

dimensions      [0 2 -3 0 0 0 0];

internalField   nonuniform List<scalar> 
21246
(
2520.48
854.776
310.408
99.9294
29.9884
8.81075
2.59082
0.768803
0.236588
0.0813132
0.0350669
1702.65
482.102
201.127
76.7551
26.6878
8.75779
2.74586
0.828488
0.249553
0.082092
0.033817
1062.19
363.075
169.939
76.9675
29.8844
10.534
3.45667
1.06824
0.31984
0.100463
0.0388884
755.658
272.891
133.836
69.2474
31.1595
12.1596
4.20357
1.32827
0.397183
0.120177
0.0440105
596.901
215.523
107.997
58.6214
27.898
11.4972
4.14
1.34734
0.412127
0.126955
0.0459972
496.582
173.096
88.8187
49.0572
23.5636
9.94694
3.72264
1.26945
0.406522
0.12992
0.0485603
426.77
143.655
74.1888
40.9499
19.8254
8.48895
3.25901
1.15314
0.386058
0.12889
0.0494537
374.599
121.702
62.8208
34.4868
16.7265
7.21285
2.81697
1.02599
0.356797
0.124143
0.0507648
336.147
105.226
54.0479
29.4861
14.2832
6.17713
2.44039
0.909562
0.327577
0.119107
0.0510433
307.985
92.9561
47.4041
25.727
12.4357
5.38199
2.14204
0.812674
0.301539
0.114033
0.0502742
285.952
83.5035
42.2692
22.867
11.0389
4.77883
1.91178
0.735228
0.279306
0.108766
0.0497668
268.791
75.8788
38.1432
20.6108
9.95471
4.31545
1.73451
0.674695
0.261456
0.104538
0.0493506
256.988
69.879
34.8908
18.8715
9.1377
3.97241
1.60415
0.630141
0.248471
0.101717
0.0491989
249.777
65.5036
32.4601
17.6148
8.57151
3.74243
1.51851
0.601474
0.240513
0.100135
0.0493489
246.612
62.199
30.5785
16.6942
8.19247
3.60321
1.471
0.587249
0.237585
0.10011
0.0498717
248.102
59.9257
29.2248
16.1023
8.00126
3.55785
1.46424
0.588929
0.240458
0.102015
0.0510408
253.65
60.062
28.7211
15.9538
8.08884
3.66554
1.52592
0.616629
0.25198
0.106674
0.0531217
264.931
62.1175
29.0084
16.2012
8.45441
3.96363
1.69657
0.696018
0.286004
0.120275
0.0585298
283.821
66.574
30.35
16.97
9.15997
4.5022
2.01804
0.854689
0.356208
0.149683
0.0700345
314.04
74.4821
33.2386
18.5032
10.332
5.37236
2.56617
1.14822
0.496101
0.211944
0.0956447
363.435
87.7093
38.4772
21.2304
12.206
6.73369
3.47303
1.68298
0.779248
0.350539
0.158625
449.694
108.142
47.1383
25.8167
15.1954
8.87483
4.97577
2.66032
1.3628
0.673992
0.32589
610.4
141.96
61.5497
33.6339
20.258
12.4874
7.60479
4.51107
2.59656
1.45078
0.788813
934.662
147.104
69.0194
42.6358
28.2855
19.0713
12.7698
8.4104
5.42911
3.43056
2.12364
2782.64
1838.1
572.028
173.944
56.6881
15.2367
3.96815
1.0748
0.309161
0.100328
0.0410663
3372.84
2139.06
957.085
383.321
141.175
32.7511
7.3807
1.9002
0.507636
0.149384
0.0545393
2586.21
1806.94
1023.73
487.408
207.597
64.3563
12.8896
3.24753
0.855649
0.235358
0.0789178
1489.25
1518.91
976.145
514.956
240.447
87.6982
21.6058
5.03303
1.358
0.372706
0.124647
730.733
1375.1
919.248
514.936
253.745
101.922
29.9825
7.22914
1.98553
0.563853
0.191258
404.552
1312.18
888.247
512.904
260.075
110.935
36.8864
10.0544
2.71711
0.80692
0.285943
383.616
1270.88
874.43
512.961
263.957
117.198
42.6423
12.9961
3.76759
1.10091
0.389504
410.807
1210.79
864.671
513.141
265.554
121.243
47.3075
15.8839
4.98509
1.5367
0.530415
429.635
1122.41
856.796
515.619
266.292
123.838
51.1302
18.6839
6.35132
2.08425
0.739439
435.104
1010.81
845.786
521.351
267.551
125.767
54.4004
21.4258
7.87294
2.76302
1.00062
429.173
885.189
826.853
530.262
270.871
128.027
57.5553
24.2279
9.58923
3.60297
1.34811
419.149
772.47
799.948
538.55
275.403
130.563
60.6304
27.0997
11.5169
4.63798
1.80495
409.309
688.317
761.778
543.694
281.266
133.831
63.9087
30.1564
13.718
5.93073
2.42931
396.719
611.354
711.317
544.577
288.824
138.426
67.7631
33.5872
16.297
7.56657
3.30058
387.157
545.819
655.445
539.056
296.648
144.147
72.286
37.5016
19.3564
9.64661
4.52906
385.34
490.043
598.155
525.596
303.595
150.913
77.7472
42.1475
23.0886
12.351
6.2574
389.705
437.944
540.591
502.776
307.761
158.419
84.3534
47.854
27.7867
15.9407
8.73529
396.321
389.375
476.564
469.478
306.184
165.582
92.2853
55.0726
33.8895
20.807
12.3176
409.654
343.885
402.504
421.809
295.513
171.216
101.976
64.7315
42.2617
27.6588
17.5853
435.705
303.364
322.292
346.779
277.661
176.458
115.527
79.0035
54.6673
37.8196
25.5965
478.272
256.026
237.43
251.73
243.405
182.336
132.483
97.1039
70.3027
50.6503
35.7112
716.325
279.665
212.73
200.817
185.106
154.977
122.54
96.1444
73.0258
54.2121
38.5979
709.252
472.033
476.324
339.363
257.484
192.063
139.423
98.1272
67.0069
44.6743
29.0277
1367.49
748.837
429.283
263.323
168.418
109.441
71.1338
45.9019
29.2943
18.4518
11.4318
424.671
229.961
36.415
8.5548
2.12521
0.781279
0.465744
0.374861
0.347094
0.343182
0.35073
610.409
394.942
84.8269
13.8972
3.14996
0.996368
0.51284
0.385105
0.348108
0.342068
0.349579
685.544
398.914
117.433
25.6897
4.33515
1.25458
0.573624
0.39838
0.348344
0.33826
0.343873
651.959
366.998
128.786
32.9194
6.01574
1.50933
0.637707
0.412981
0.348326
0.333398
0.337179
568.877
343.425
131.711
37.1788
7.68594
1.76157
0.699691
0.428564
0.348815
0.328438
0.330152
475.519
327.053
134.107
41.6504
9.74365
2.21817
0.767927
0.4457
0.350537
0.324309
0.323822
383.63
314.817
137.414
46.8972
12.3937
2.93021
0.908616
0.471282
0.353895
0.321297
0.318397
300.16
304.999
140.949
52.3382
15.4576
3.93034
1.14068
0.518813
0.362744
0.319792
0.313832
231.985
295.79
145.583
58.1935
18.979
5.28007
1.50982
0.602329
0.380355
0.321348
0.310373
179.231
286.178
152.33
65.2507
23.2854
7.1375
2.09832
0.75263
0.414686
0.327363
0.308765
138.595
277.497
160.473
73.2784
28.3108
9.53163
2.9727
1.0091
0.479668
0.341433
0.309499
109.407
271.354
169.497
81.7345
33.7036
12.3397
4.14516
1.40724
0.594496
0.370206
0.314338
91.7016
265.886
179.837
91.119
39.6602
15.609
5.66453
1.99693
0.788868
0.425743
0.327157
83.0704
258.348
191.325
102.185
46.6363
19.5187
7.6225
2.84717
1.10715
0.529385
0.35569
82.5747
251.987
203.486
114.667
54.5369
24.013
10.0163
3.99832
1.59536
0.711304
0.414566
89.9854
245.083
215.401
129.117
63.9206
29.3606
12.9641
5.52945
2.31906
1.01749
0.52888
103.153
234.933
224.787
145.879
75.7321
36.1548
16.7545
7.59518
3.38161
1.51982
0.74295
116.537
219.688
227.933
163.596
90.4184
44.9748
21.7613
10.4193
4.93211
2.3253
1.13031
129.631
201.311
221.945
179.234
108.068
56.7314
28.7166
14.4615
7.25615
3.62266
1.81847
142.037
181.104
205.102
186.985
126.951
72.3208
38.8386
20.6297
10.9405
5.78615
3.05349
154.058
156.801
177.386
180.927
142.97
92.2266
54.1516
30.7531
17.2701
9.65393
5.37455
199.49
141.134
151.427
168.59
154.061
115.995
77.098
47.956
28.8804
17.1494
10.0841
228.978
127.934
127.21
131.456
128.951
114.714
91.4708
66.2179
44.8883
29.3822
18.6572
486.463
516.295
381.619
315.759
253.386
193.167
140.254
97.4526
66.4285
45.0054
29.9872
337.025
116.151
27.23
5.64534
1.58075
0.683715
0.445523
0.369597
0.345198
0.342339
0.351133
333.484
88.6543
19.6873
5.84224
1.77343
0.749551
0.463099
0.370887
0.340276
0.334526
0.341904
367.11
108.807
19.8777
7.09689
2.34673
0.959447
0.524556
0.384745
0.337214
0.324484
0.328444
357.344
106.231
18.8188
7.37781
2.59205
1.1053
0.585967
0.403148
0.336981
0.316447
0.317434
332.189
90.2611
17.6577
7.27824
2.58151
1.11951
0.587964
0.399129
0.328877
0.305297
0.304472
307.231
74.9723
16.3816
6.81379
2.4406
1.0915
0.57644
0.389641
0.317541
0.291886
0.289215
285.845
63.2786
15.1724
6.27396
2.26935
1.0468
0.556993
0.378295
0.306862
0.279519
0.273935
266.61
54.5396
14.0598
5.76721
2.11799
1.00095
0.536929
0.367627
0.297767
0.269781
0.262753
252.019
48.0427
13.1531
5.36691
2.01082
0.961324
0.520738
0.359051
0.290781
0.262479
0.253827
242.122
43.4445
12.4426
5.06502
1.94759
0.934215
0.510161
0.352984
0.285682
0.257427
0.248475
236.721
40.3538
11.983
4.88702
1.92511
0.923438
0.506261
0.349759
0.282205
0.25373
0.244521
234.447
38.2128
11.682
4.80608
1.93812
0.928993
0.509263
0.349612
0.280263
0.250979
0.241747
236.043
36.9048
11.556
4.82133
1.99125
0.953503
0.520515
0.353181
0.280029
0.248907
0.239346
239.332
38.1025
11.9013
5.00742
2.12269
1.01268
0.547078
0.363212
0.282638
0.247818
0.236807
244.583
40.5621
12.7055
5.37884
2.36138
1.12778
0.602618
0.386642
0.291736
0.249806
0.235166
252.478
44.4458
14.1182
6.00619
2.73893
1.32359
0.70202
0.432524
0.31204
0.257382
0.235902
263.742
50.1771
16.3873
7.02528
3.3235
1.64508
0.874132
0.519055
0.354063
0.276446
0.242438
280.08
57.9022
19.7681
8.63012
4.23066
2.16862
1.17182
0.681995
0.440719
0.321116
0.263504
303.937
68.265
24.6737
11.138
5.67266
3.03849
1.69746
0.994366
0.62297
0.425813
0.322083
339.747
82.7252
31.9004
15.1014
8.04686
4.53762
2.65959
1.61203
1.01712
0.676259
0.480742
396.503
104.16
42.8941
21.5058
12.0908
7.22716
4.49372
2.87738
1.89477
1.28801
0.910989
494.931
138.283
60.6574
32.3081
19.2497
12.2392
8.11384
5.54327
3.88458
2.7916
2.06428
690.938
208.902
96.7603
54.094
33.7884
22.6063
15.831
11.4728
8.56043
6.56119
5.15971
1267.25
356.558
184.556
116.56
81.5987
60.2579
45.7382
35.9999
29.1541
24.0981
20.0257
566.799
335.859
183.549
116.467
73.7301
38.0831
16.8788
6.93984
3.01495
1.49884
0.910322
521.712
308.969
196.693
129.674
85.5407
49.3527
23.0508
8.11223
2.84641
1.26084
0.723582
297.649
235.112
175.391
125.443
87.5486
55.2529
28.8777
11.2459
3.47967
1.13696
0.571039
118.711
171.345
143.245
110.708
81.8367
55.3803
31.8458
14.0428
4.60678
1.30311
0.491021
53.0306
124.567
112.698
92.3947
71.7781
51.3991
31.8584
15.5843
5.67148
1.61852
0.488385
40.3049
81.6665
85.1052
73.9196
60.0492
45.0847
29.6444
15.7128
6.28986
1.9222
0.532659
33.1254
50.1196
61.2482
57.0556
48.3533
37.7956
26.0295
14.6448
6.3168
2.07878
0.577397
25.7807
31.8349
41.3898
42.458
37.6965
30.4821
21.7454
12.7606
5.81014
2.03578
0.586028
19.9638
21.1716
27.432
30.3133
28.5553
23.7632
17.3916
10.4928
4.96067
1.82726
0.550416
15.5618
14.6367
18.4234
21.0462
20.9882
17.9595
13.381
8.21646
3.99135
1.53306
0.485592
12.3385
10.5143
12.6877
14.4934
15.014
13.1733
9.94174
6.18107
3.07483
1.23073
0.411822
10.1335
7.90159
9.06851
10.0858
10.5771
9.44052
7.19743
4.53446
2.32012
0.974677
0.348488
8.62311
6.24817
6.82144
7.24599
7.49809
6.74237
5.19441
3.34109
1.77899
0.794248
0.306567
7.63781
5.24247
5.46435
5.49947
5.52341
4.96237
3.87815
2.57763
1.44843
0.694236
0.289075
6.98738
4.64614
4.68049
4.49179
4.36485
3.90682
3.11516
2.16269
1.29353
0.666472
0.297505
6.50735
4.29675
4.25719
3.95612
3.75451
3.36505
2.75577
2.00914
1.27844
0.702225
0.33124
6.1114
4.0993
4.04951
3.70209
3.48274
3.16155
2.68087
2.05697
1.3856
0.803123
0.3947
5.79364
3.99171
3.95482
3.59978
3.42084
3.20742
2.85531
2.31505
1.64388
0.997748
0.508061
5.5509
3.94683
3.90055
3.58242
3.55722
3.57309
3.42799
2.95188
2.19051
1.37367
0.714092
5.36017
3.89847
3.82107
3.70249
4.23623
4.99837
5.56999
4.9707
3.56798
2.21133
1.14322
6.15886
4.56764
4.06585
5.13421
9.70278
13.8688
14.5768
12.7041
8.93507
4.81775
2.26851
15.8505
7.12956
8.861
22.6196
27.9261
28.1474
25.8312
22.1092
17.2439
11.1788
5.40031
22.0113
55.6651
58.0372
54.6428
47.5486
39.3055
31.5546
25.2395
20.3737
15.5948
9.77501
294.662
173.268
114.398
77.7919
54.1411
38.0518
27.187
20.2874
16.442
14.0413
10.8879
676.709
230.084
142.293
97.3551
62.7373
35.2429
17.2359
7.82151
3.65037
1.88614
1.1447
416.299
131.377
101.187
85.7752
66.1088
42.9492
23.0888
10.8684
5.06234
2.55631
1.47127
126.839
60.2691
61.2595
67.5473
65.4493
51.3827
31.4999
15.689
7.31461
3.60803
2.00661
50.1267
25.7482
30.8143
42.9128
53.4912
53.369
39.8653
22.2372
10.7001
5.18834
2.75866
43.2648
19.9988
18.7543
24.9215
35.978
45.3304
43.5622
29.4406
15.5195
7.61655
3.94037
41.9309
19.6057
16.5655
18.3317
24.2601
33.6649
39.9746
33.6929
19.9397
10.3275
5.42784
41.6329
19.7339
16.1168
16.4131
19.5337
25.9572
33.4584
33.6833
22.5737
12.1934
6.75564
41.8694
20.0537
16.0821
15.5727
17.141
21.5586
28.3279
31.9725
25.0599
14.0559
7.89682
42.6858
20.4899
16.2677
15.1476
15.6177
18.4651
24.0579
29.1707
26.0507
16.1984
9.11698
43.9774
21.0242
16.63
14.9332
14.5571
16.1441
20.4026
25.902
25.6384
17.7548
10.3358
45.7887
21.8495
17.1773
14.8348
13.8156
14.4144
17.3906
22.5385
24.3191
18.483
11.2435
48.1408
22.9077
17.8003
14.8993
13.3515
13.2052
15.0998
19.4709
22.5386
18.5156
11.7385
51.3239
24.164
18.5665
15.1536
13.0979
12.4027
13.4114
16.5671
20.4674
18.1796
11.9563
55.4708
25.6974
19.5127
15.553
12.9912
11.8769
12.3687
14.4064
17.5593
17.4154
11.9171
60.3441
27.6103
20.7537
16.1541
13.0029
11.412
11.413
12.6661
14.7951
15.6218
12.2257
66.5494
30.1015
22.4407
17.0758
13.2019
11.0339
10.513
11.1798
12.6097
13.5748
12.3122
74.7116
33.465
24.8222
18.5397
13.7612
10.8894
9.83761
10.0662
10.9883
11.8104
11.5505
85.8535
38.1769
28.3656
21.0183
15.067
11.2121
9.44914
9.23982
9.77262
10.4142
10.6252
101.632
44.9681
33.9693
25.601
18.068
12.4138
9.58189
8.70733
8.75156
9.07641
9.2845
122.958
54.6712
42.6784
32.574
22.5779
14.9377
10.6767
8.90089
8.34574
8.22268
8.07605
144.944
66.7846
51.8332
39.7711
27.8122
18.2235
12.5157
9.9174
8.97327
8.75025
8.76769
182.837
80.9205
61.3408
45.5722
31.7307
20.9134
14.2983
11.1421
9.97447
9.83526
10.3894
270.531
114.306
68.3425
47.3709
32.6574
22.1324
15.5524
12.1903
10.8301
10.5767
10.7815
730.383
124.203
70.485
44.3834
31.359
22.5261
16.686
13.2238
11.7353
11.2135
10.2238
59.4143
66.9256
73.624
74.227
73.9172
71.7221
65.7548
57.2387
45.8039
19.6373
20.787
22.5129
22.5671
21.3112
20.5224
19.4484
19.0618
18.534
9.37179
10.1161
11.4921
11.8446
11.0665
10.219
9.38442
9.61525
10.9279
4.97662
5.31066
6.21998
6.54541
6.05735
5.58133
5.1887
5.28535
6.37781
49.7784
38.261
23.7779
6.63802
3.71781
3.2172
2.26935
10.0052
30.0245
19.2969
18.0267
15.2334
9.7218
2.90103
1.88211
4.07928
10.3397
16.204
10.0119
11.4115
11.779
8.94612
3.15945
2.04707
4.13102
8.62813
11.4322
5.47115
6.71447
8.19255
7.5275
3.50592
2.2803
3.81578
6.74231
7.6395
0.00901637
0.00829365
0.00834736
0.00803359
0.453773
0.00756377
0.13277
0.0080819
0.00753742
0.0069285
0.4568
0.00811823
0.0101953
0.00508395
0.0146106
0.00728307
0.00585848
0.00846262
0.00724619
0.00710311
0.00664595
0.0608054
0.00852142
0.12194
0.00792622
0.00503564
0.00984166
0.124864
1.64643
0.386899
0.00690112
0.00642904
0.00699573
0.0080647
0.00678271
0.00826312
0.111243
0.00791001
0.00788534
0.00759718
0.232707
0.0080961
0.0722461
0.00849621
0.773384
0.280451
0.0161771
0.371892
0.00692607
0.00731403
0.391061
0.00761522
0.202207
0.0696544
0.00730667
0.00667324
0.0579008
0.00763623
1.62731
0.0764081
0.125634
0.190372
0.503355
0.0371741
0.242433
0.00714016
0.401388
0.00707408
0.00829622
0.00690918
0.00516228
0.00716954
0.0174913
0.00800664
0.0352353
0.00712881
0.0805612
0.00827764
0.0577288
1.0173
0.236717
0.0279827
0.00793386
0.00838006
0.00696025
0.0177012
2.58973
0.157013
0.0204388
0.104411
0.00809068
0.0076699
0.229314
0.00725536
0.990455
0.494222
0.0344569
0.00596755
0.0256755
0.0074081
0.00787932
0.361023
0.00678813
0.00616579
0.0151374
0.00811516
0.00469805
0.00845258
0.0126715
0.00671167
0.00796605
0.00814769
0.00719423
0.00723232
0.0309092
0.00769257
0.00755174
0.00731467
0.00792461
0.0067311
0.00762936
0.00773201
0.00825349
0.00497872
0.265816
0.00723801
0.185279
0.00485906
0.00579665
0.00811334
0.00778885
0.0769835
0.365214
0.00713523
0.00834121
0.00807749
0.0686583
0.016463
0.408256
0.00734599
0.0864504
0.0066173
0.220202
0.00868095
0.00752119
0.0244619
0.0163096
0.00709424
0.0071367
0.00705821
0.00714239
0.00766897
0.0271505
0.00769962
0.00711001
0.0174825
0.0238677
0.0429669
0.00551301
0.007467
0.00548987
0.0339539
0.00716399
0.00772244
0.410505
0.0249121
0.0210918
0.00744556
0.0064128
0.23023
0.00577469
0.00560644
0.00749665
0.00646109
0.00641866
0.00641732
0.0057575
0.0287531
0.792037
0.00695866
0.00711214
0.0690761
0.00849847
0.117039
0.00793751
0.0135005
0.00706316
0.00726342
0.00824827
0.0838212
0.012136
0.00523054
0.00718479
0.214942
0.00832454
0.00760114
0.00742367
0.0265188
0.00876985
0.00856738
0.026176
0.00728076
0.012437
0.0075857
0.00838759
0.161064
0.00721426
0.00575767
0.00738633
0.00740562
0.11886
0.00759385
0.00827108
0.00671683
0.00791274
0.11824
0.00797699
0.0216057
0.00711571
0.0107119
0.0115727
0.00747677
0.0316756
0.0303748
0.00479753
0.00765242
0.0765769
0.0220374
0.0104868
0.161724
0.0420927
0.00713311
0.00711643
0.00783249
0.0274498
1.59824
0.360276
0.00845183
0.00813797
0.00809589
0.0215585
0.0316012
0.00613537
0.166051
0.00727278
0.040891
0.00800353
0.00805615
0.501462
0.296248
0.00799398
0.122474
0.00973927
0.0072615
0.00603189
0.00746321
0.00674217
0.00786192
0.0191655
0.00704215
0.00828707
0.00989351
0.00737966
0.00819425
0.00796034
0.0152019
0.00661509
0.00710989
0.0176468
0.00694422
0.215934
0.00728737
0.00725654
0.0155273
0.00755673
0.00735904
0.00528864
0.00775835
0.00692695
0.0186532
0.00727223
0.00828026
0.242146
0.331414
0.00604154
0.00758255
1.59083
0.00823942
0.00683913
0.0859915
0.00834382
0.117802
0.00769296
0.00892809
0.00856401
0.00741861
0.00635626
0.00815909
0.00679099
0.00532814
0.00776235
0.0095084
0.00707961
0.394989
0.00677834
0.00669433
0.00827962
0.045985
0.0654774
0.00743624
0.0895484
0.00816125
0.00645849
0.00679242
0.0874815
0.00655396
0.00701287
0.0147999
0.00671025
0.00751814
0.00706479
0.148712
0.00746339
0.00538099
0.0245313
0.00696011
0.00778522
0.00591943
0.00708879
0.216593
0.00703363
0.514793
0.0727545
0.00846898
0.0112975
0.646713
0.0209261
0.00823708
0.00784796
0.00587409
0.0301198
0.118638
0.00724176
0.0258081
0.196112
0.0475893
0.0498504
0.00753826
0.0919978
0.228933
0.115978
0.00587843
0.00700596
0.00683497
0.0133296
0.00860271
0.0125505
0.00695747
0.00850047
0.240945
0.00986627
0.0052533
0.00800281
0.00798862
0.0072756
0.0199419
0.00525087
0.0147371
0.146326
0.00819412
0.00773628
0.109246
0.58841
0.00472164
0.0120073
0.00831336
0.00905003
0.00674405
0.00751441
0.00707921
0.232463
0.00754869
0.024247
0.00767377
0.00519227
0.338756
0.00912785
0.00476907
0.0297652
0.0232054
0.00770227
0.0538848
0.00469456
0.00818368
0.371267
0.25558
0.00787246
0.00719204
0.00836284
0.0303512
0.0188871
0.00764802
0.00851084
0.0948663
0.00798582
0.292909
0.0541153
0.0256936
0.00727821
0.145513
0.00715518
0.00719776
0.0103101
0.00974283
0.0293336
0.00639752
0.0123643
0.00860024
0.00481484
0.0420389
0.275938
0.00613339
0.157553
0.0108653
0.00628439
0.00667925
0.00794399
0.0282958
0.0130158
0.257285
0.00789694
0.0240232
0.00507874
0.0066297
0.00812208
0.0159786
0.194421
0.411314
0.00502809
0.00860029
0.00596876
2.60133
0.0166224
0.00935363
0.00690476
0.0312944
0.088337
0.0435309
0.00740723
0.0356907
0.00774207
0.00833505
0.00793769
0.0311806
0.0191716
0.16125
0.00572537
0.0279345
0.0262633
0.00825475
0.00739116
0.19854
0.0050409
0.00600354
0.00709334
0.143579
0.114408
0.0902243
0.0916647
0.00704106
0.0065756
0.0171956
0.00698696
0.122942
0.00698153
0.00822909
0.00732414
0.0347622
0.0332331
0.00708658
0.00778626
0.00669776
0.101724
0.0734509
0.00845367
0.0231971
0.25173
0.00941123
0.0172596
0.00740336
0.0276101
0.00759198
0.00697254
0.00763677
0.00690539
0.00649768
0.00715084
0.00538097
0.00853061
0.00708857
0.00564606
0.00588631
0.00806072
0.00806478
0.52571
0.0286483
0.0148395
0.00703911
0.317573
0.00835692
0.280109
0.0163305
0.0247149
0.0207674
0.0080312
0.363049
0.0259671
0.00535087
0.00778679
0.00634754
0.00667426
0.00827424
0.00768722
0.00818075
0.00685902
0.227278
0.00798566
0.00744911
0.0850454
0.00773685
0.200533
0.00664735
0.0357951
0.00561261
0.0201014
0.00856275
0.00786492
0.00841614
0.196217
0.0341962
0.00795013
0.00791534
0.00495588
0.00834701
0.0196456
0.00830961
0.236798
0.00682664
0.0469442
0.00818734
0.00755349
0.293637
0.294611
0.00680977
0.00659947
0.00709238
0.00830313
0.0161196
0.0400493
0.00721092
0.0083273
0.449483
0.547497
0.00792064
0.00730188
0.00827924
0.0862681
0.369606
0.0193831
0.00807738
0.00752676
0.328373
0.00719073
0.00809995
0.0062629
0.0305211
0.357264
0.00772006
0.0203938
0.00782051
0.0263029
0.00736963
0.0387042
0.00601645
0.00643241
0.0914562
0.0340224
0.00842242
0.00854782
0.979778
0.00763705
0.00615768
0.00993777
0.0279605
0.0792957
0.0299378
0.00742917
0.00690383
0.00774139
0.00790241
0.467014
0.0144765
0.0121327
0.00710988
0.00795036
0.0437971
0.00702155
0.00738569
0.00701376
0.00710789
0.00783349
0.0135845
0.0279399
0.0181252
0.0062215
0.0103381
0.00723939
0.0577739
0.00708699
0.00778851
0.516076
0.174432
0.00755423
0.00756874
0.0664186
0.00674561
0.00737299
0.019455
0.0083143
0.00682308
0.00974103
0.00863144
0.00828488
0.00484409
0.00566524
0.0386333
0.0890492
0.0324823
0.0320389
0.00627726
0.0213651
0.0296107
0.00854166
0.00836359
0.00682466
0.0254952
0.00607777
0.00696784
0.00735347
0.00510329
0.078007
0.471877
0.00608469
0.00712324
0.00769612
0.0128833
0.00811891
0.0072266
0.00694552
0.0129362
0.0070247
0.00705199
0.00689581
0.00825369
0.0122968
0.0556876
0.157925
0.00707691
0.00699078
0.00754975
0.146666
0.00742759
0.128945
0.0071875
0.0282775
0.100648
0.00771525
0.0250517
0.00849574
0.00674433
0.0189938
0.00790737
0.45847
0.00556008
0.00666751
0.00841686
0.0127331
0.00507071
0.0323172
0.199585
0.00750972
0.00641752
0.00840322
0.00784464
0.00693065
0.0204023
0.00812597
0.00763307
0.00761312
0.00993105
0.0222105
0.00816105
0.00756363
0.0075086
0.0204547
0.00553966
0.00648973
0.0119745
0.134366
0.00896345
0.00634631
0.00629195
0.0082318
0.0385106
0.00636995
0.142209
0.00783919
0.00655974
0.00790866
0.00703181
0.083718
0.0119215
0.0290752
0.00506998
0.00720706
0.00681519
0.00670424
0.0228403
0.00823625
0.228651
0.0732077
0.236111
0.0066729
0.0102568
0.107517
0.077886
0.00772585
0.00855057
0.0340496
0.0124146
0.00802661
0.00527827
0.415623
0.00811226
0.185322
0.00916945
0.00806466
0.0288605
0.00755631
0.00696638
0.00682539
0.00772008
0.00729544
0.00474971
0.0081861
0.00676398
0.00712805
0.00864285
0.0273979
0.149246
0.0118075
0.00722416
0.169727
0.276986
0.00782489
0.00476555
0.0071079
0.0317628
0.00976641
0.0447524
0.00752731
0.0311633
0.00820928
0.00878041
0.0071998
0.00693462
0.00766267
0.0480681
0.0558953
0.00860489
0.00788951
0.00742047
0.26517
0.165237
0.00739175
0.00819257
0.00672381
0.00792517
0.00813572
0.00821578
0.00838111
0.00787794
0.00723176
0.00559463
0.0504944
0.0896788
0.0049116
0.00808317
0.00770215
0.00792987
0.00671483
0.229786
0.00827514
0.00638057
0.0076429
0.291666
0.128978
0.0375547
0.00778973
0.0307202
0.00771529
0.00782258
0.248671
0.00714936
0.00815353
0.00736167
0.0260296
0.00602812
0.00593515
0.00813699
0.0106152
0.166047
0.0221488
0.00814883
0.00463885
0.0580728
0.0220266
0.0280142
0.0084284
0.00717753
0.00878091
0.0125029
0.0277796
0.00829223
0.00689825
0.00787667
0.0073489
0.00824471
0.0588553
0.00625369
0.185283
0.221699
0.0807039
0.00809303
0.467146
0.00853103
0.007173
0.0080691
0.00789496
0.00765863
0.00767902
0.0144067
0.174099
0.0173873
0.00764801
0.0254317
0.00768332
0.00859907
0.00731472
0.00755286
0.00743582
0.00792723
0.00814476
0.00719162
1.87766
0.00754738
0.00712813
0.0109715
0.156544
0.00709011
0.00796414
0.019721
1.48746
0.00698159
0.00774853
0.0101021
0.0217282
0.00846581
0.00808499
0.00693896
0.00860497
0.125618
0.00827422
0.0833165
0.00896613
0.091816
0.00774326
0.0082089
0.00599295
0.0288522
0.00775602
0.0077458
0.00705019
0.00831378
0.0059681
0.221498
0.0065565
0.0263321
0.231446
0.0302199
0.00605306
0.0412914
0.00851159
0.00813862
0.00508543
0.00864553
0.00589138
0.00761852
0.287415
0.00721257
0.0102682
0.00730131
0.00458893
0.00547507
0.0197579
0.00768401
0.00694589
0.00804274
0.265818
0.0618952
0.189387
0.00697338
0.00927571
0.00708269
0.00776867
0.244011
0.00753551
0.00830366
0.00609748
0.241582
0.0343523
0.0409501
0.00631543
0.00522978
0.126173
0.548347
0.00801653
0.00722566
0.224565
0.00760239
0.0204323
0.00791622
0.0809701
0.00782442
0.0239038
0.00830266
0.0073303
0.00845522
0.00764683
0.012487
0.00740503
0.00709131
0.00780312
0.00719887
0.00990532
0.00963945
0.0388671
0.00733103
0.00686916
0.287313
0.0206157
0.0453505
0.00832412
0.0309427
0.00718197
0.00828146
0.0267576
0.00646563
0.0593239
0.381182
0.00610636
0.0130772
0.00653544
0.00740803
0.0168166
0.0153665
0.00700533
0.0368541
0.00813053
1.35546
0.0255851
0.439149
0.00812774
0.0207247
0.0125361
0.323683
0.00767453
0.00549694
0.00855537
0.00458999
0.124461
0.00815359
0.00890382
0.0675688
0.0263229
0.224622
0.00797942
0.00778872
0.00735062
0.0446363
0.00694817
0.21631
0.0104303
0.0343194
0.369541
0.00828037
0.0152959
0.0324541
0.0292707
0.0787549
0.0305124
0.00756925
0.0114741
0.00486362
0.00810055
0.00789949
0.00856572
0.029654
0.00663561
0.00832108
0.00555441
0.0986805
0.00478698
0.00801887
0.10619
0.0141394
0.00689427
0.0107003
0.00813509
0.00708637
0.00735413
0.200416
0.00703789
0.0982371
0.00617362
0.0247788
0.00796221
0.00694863
0.00796125
0.00752981
0.0197011
0.0617096
0.116133
0.66555
0.249632
0.586856
0.00685438
0.00738701
0.00974357
0.0083872
0.0058689
0.169128
0.00689104
0.133839
0.00610422
0.124887
0.00688755
0.00486631
0.00811831
0.289427
0.00862696
0.487966
0.00636189
0.00832908
0.0450356
0.0586591
0.00684441
0.0255215
0.0564904
0.055867
0.127673
0.0199396
0.228785
0.00801032
0.00778823
0.285989
0.0184834
0.00833007
0.00627826
0.00718725
0.00503163
0.0053054
0.0105179
0.00773056
0.0146974
0.660363
0.00752007
0.00712378
0.00713601
0.00818539
0.00916004
0.00542019
0.00700176
0.00561147
0.375944
0.00705614
0.627871
0.0713938
0.00772799
0.194174
0.0501744
0.0157265
0.0068701
0.0869937
0.00768961
0.0080404
0.367664
0.00751102
0.00824298
0.00572017
0.00809671
0.0071805
0.14495
0.00791911
0.557189
0.0135345
0.0240882
0.00722558
0.0124237
0.105598
0.00596079
0.265693
0.00776812
0.010451
0.0429125
0.00681287
0.0199014
0.0304093
0.0180083
0.00747178
0.0334805
0.0539344
0.00644628
0.00732557
0.0270408
0.00695056
0.018783
0.0245587
0.381935
0.00712563
0.00860304
0.00797278
0.00628707
0.0083771
0.00472399
0.0374052
1.4349
0.00829647
0.0240128
0.0280436
0.00819917
0.0350603
0.00709487
0.00697809
1.72184
0.0402918
0.342776
0.175468
0.00815555
0.00792863
0.0218256
0.235011
0.171736
0.238706
0.00493319
0.00816836
0.00714197
0.00601731
0.154375
0.0476084
0.00812842
0.00738854
0.0279011
0.0973665
0.0349055
0.00680685
0.0909119
0.229158
0.00638795
0.00559817
0.00725906
0.00722711
0.229093
0.00528725
0.00830628
0.0151207
0.00775624
0.00647904
0.374309
0.00963151
0.00979814
0.0358132
0.0116858
0.00752272
0.188737
0.0207708
0.00835996
0.00461012
0.0170327
0.00660636
0.277541
0.00806705
0.00768373
0.00701677
0.150144
0.00636537
0.00745962
0.0260809
0.00833624
0.00814393
0.00859551
0.00523258
0.00770948
0.0332818
0.0190316
0.00814655
0.457839
0.035165
0.00793972
0.0316951
0.00814255
0.00517447
0.0320709
0.00801402
0.00816014
0.00788011
0.00706765
0.00793656
0.00716599
0.00807126
0.0531672
0.055404
0.00591915
0.11804
0.00691403
0.0217408
0.0187835
0.00855528
0.00664371
0.0159047
0.00484374
0.00674728
0.00590496
0.00667431
0.00682622
0.00794546
0.0386534
0.0955175
0.0240704
0.100142
0.00859361
0.0137383
0.231067
0.01616
0.01149
0.00759597
0.0336931
0.116223
0.194519
0.00474587
0.0145013
0.0328085
0.00640072
0.00795802
0.934522
0.00492971
0.00672629
0.027107
0.0255987
0.00584339
0.0121998
0.0154219
0.00457529
0.578818
0.774122
0.00789841
0.00709583
0.0953413
0.0693487
0.0104508
0.00811203
0.00655033
0.00839224
0.00748104
0.0847465
0.00761789
0.00846147
0.137478
0.00923339
0.00728555
0.00770519
0.00758535
0.00676798
0.00858163
0.00720784
0.0100414
0.00704131
0.00879517
0.00803097
0.0300628
0.00818114
0.0839013
0.0076983
0.02094
0.00838234
0.00770895
0.059073
0.215181
0.00705712
0.00781071
0.00728252
0.0169692
0.00826412
0.00931886
0.00813456
0.0074053
0.00622087
0.00734591
0.0312644
0.00512297
0.0594283
0.00848424
0.00935217
0.00788307
0.00670354
0.0083771
0.00831992
0.00802226
0.127941
0.00742685
0.0171094
0.00789902
0.00800077
0.470957
0.00844982
0.00855169
0.139528
0.233786
0.0161865
0.00754944
0.019903
0.00788543
0.103672
0.00999049
0.0129489
0.00736392
0.0062323
0.0259218
0.00764531
0.0321273
0.00702289
0.0153447
0.0228055
0.00793244
0.00795615
0.00758307
0.143541
0.0151628
0.00493999
0.0273839
0.00642564
0.00597565
0.00840237
0.0104288
0.0300469
0.00751835
0.00811498
0.0524622
0.00695873
0.00687745
0.00687861
0.00544155
0.00789854
0.0279211
0.0301558
0.00691264
0.0178247
0.00797974
0.007065
0.00703272
1.01306
0.00918027
0.00737638
0.128808
0.0321514
0.00820302
0.00706429
0.0289706
0.0105746
0.00663164
0.00720339
0.0128938
0.0380162
0.00755407
0.0069384
0.0747428
0.00715036
0.00830079
0.00733256
0.00691533
0.00816231
0.0240559
0.00763914
0.0334002
0.00614804
0.0134064
0.0081271
0.00501023
0.02831
0.00691308
0.0158888
0.00764953
0.00732158
0.0393275
0.0136557
0.0054649
0.00845525
0.00726229
0.274645
0.00798102
0.0069909
2.00164
0.00675243
0.00706276
0.00703304
0.0069919
0.00646128
0.00632843
0.0141734
0.00514261
0.0163898
0.00706354
0.00760489
0.0151684
0.0045961
0.00748364
0.00646938
0.00563548
0.0072961
0.233724
0.00856014
0.0257991
0.00748702
0.00689161
0.00583631
0.00700825
0.0125013
0.00795589
0.0072099
0.0067128
0.00756677
0.00837052
0.0296194
0.0514177
0.0115684
0.0106424
0.0455027
0.00681767
0.00757792
0.00746446
0.224227
0.00730872
0.00642212
0.328693
0.00704921
0.248128
0.153841
0.00694244
0.00809996
0.00688611
0.00534098
0.00493014
0.00690708
0.00798176
0.0183085
0.0374231
0.00465893
0.0348173
0.00781391
0.0709724
0.0138789
0.955312
0.0106103
0.0113705
0.00478739
0.00828549
0.00687461
0.0241623
0.00790375
0.0110813
0.00520349
0.0136642
0.00524148
0.0597311
0.0190035
0.0240758
0.270059
0.00780212
0.3733
0.00924234
0.00651813
0.00600351
0.00917719
0.00840228
0.600193
0.00781303
0.15683
0.299864
0.00506143
0.206532
0.035489
0.225731
0.00737972
0.00762998
0.0074079
0.00726007
0.00765336
0.00621206
0.00699874
0.021666
0.00735278