/*--------------------------------*- C++ -*----------------------------------*\
| =========                 |                                                 |
| \\      /  F ield         | OpenFOAM: The Open Source CFD Toolbox           |
|  \\    /   O peration     | Version:  3.0.1                                 |
|   \\  /    A nd           | Web:      www.OpenFOAM.org                      |
|    \\/     M anipulation  |                                                 |
\*---------------------------------------------------------------------------*/
FoamFile
{
    version     2.0;
    format      ascii;
    class       volScalarField;
    location    "0.623089";
    object      nut;
}
// * * * * * * * * * * * * * * * * * * * * * * * * * * * * * * * * * * * * * //

dimensions      [0 2 -1 0 0 0 0];

internalField   nonuniform List<scalar> 
21246
(
6.0068e-05
0.000331188
0.000417028
0.000453974
0.000475154
0.000491582
0.00050337
0.000506441
0.000492127
0.000449892
0.000386615
3.9449e-05
0.000266429
0.00039563
0.000453078
0.000479019
0.000492789
0.000498334
0.000495845
0.000480602
0.000442094
0.000382099
3.21213e-05
0.000232627
0.000387974
0.000471185
0.000504263
0.000518274
0.000522168
0.000516793
0.000498265
0.000457653
0.000395254
3.06701e-05
0.000193101
0.000352896
0.000466191
0.000517444
0.000533608
0.000533491
0.000524626
0.000505981
0.00047045
0.000409381
3.11851e-05
0.000176289
0.000324367
0.000440217
0.000501844
0.000526752
0.000532063
0.00052673
0.00050925
0.000471805
0.000408165
3.19872e-05
0.000164142
0.000302915
0.000412042
0.000473937
0.000506405
0.000522048
0.000525676
0.000513816
0.000479606
0.000419396
3.2943e-05
0.000153962
0.000284008
0.000385288
0.000446323
0.000483374
0.000507014
0.00051919
0.000513923
0.000483137
0.000423461
3.40475e-05
0.000145839
0.000267973
0.000361837
0.000420685
0.000460018
0.000489394
0.000508858
0.000510521
0.000486001
0.000433672
3.5049e-05
0.000138896
0.000254265
0.000341849
0.000398224
0.000438655
0.000472217
0.00049788
0.000506402
0.000487788
0.000437823
3.58084e-05
0.000132116
0.000241842
0.000324621
0.000378976
0.000420124
0.00045693
0.000487753
0.000502093
0.000487495
0.000436912
3.64665e-05
0.000125609
0.000230496
0.000309587
0.000362454
0.000404245
0.000443731
0.000478833
0.000497829
0.000486576
0.000440335
3.70006e-05
0.000119824
0.000220451
0.000296503
0.000348219
0.000390642
0.000432472
0.000471333
0.000494469
0.00048641
0.00044221
3.72823e-05
0.000114277
0.000211255
0.000284971
0.000335959
0.000379112
0.000423133
0.000465528
0.000492657
0.000487522
0.000443807
3.7357e-05
0.000108425
0.000202243
0.000274485
0.000325312
0.000369399
0.000415583
0.000461463
0.000492493
0.000489861
0.00044763
3.71336e-05
0.000102726
0.000193602
0.000264844
0.000315882
0.000361066
0.000409417
0.000458848
0.000493973
0.000493794
0.000451131
3.65876e-05
9.68329e-05
0.000184896
0.000255606
0.000307255
0.000353703
0.000404213
0.000457339
0.000497091
0.000499815
0.000457063
3.57509e-05
8.86488e-05
0.00017303
0.000243746
0.000296309
0.000343767
0.000396096
0.000453521
0.000500018
0.000507449
0.000465517
3.44198e-05
7.93421e-05
0.000158145
0.000228147
0.000280712
0.000326774
0.000376428
0.000432713
0.000483167
0.000499752
0.000469079
3.25676e-05
6.90805e-05
0.000139931
0.000207994
0.000259975
0.000303022
0.000346081
0.000394635
0.000442381
0.000467017
0.00045563
3.01551e-05
5.80831e-05
0.000118415
0.000182448
0.000233309
0.000272928
0.000307656
0.000343631
0.000380324
0.000405321
0.000411493
2.70993e-05
4.68158e-05
9.46473e-05
0.000151517
0.00020006
0.000236724
0.0002642
0.000287332
0.00030856
0.000324024
0.000333353
2.33464e-05
3.61993e-05
7.11431e-05
0.000117351
0.000160917
0.000194675
0.000217557
0.000232024
0.000240763
0.000244133
0.000244243
1.87459e-05
2.62497e-05
4.93863e-05
8.32515e-05
0.000118414
0.000147589
0.000167601
0.000178571
0.000181975
0.000179112
0.000172061
1.3181e-05
2.42469e-05
4.30251e-05
6.32155e-05
8.41469e-05
0.000102507
0.000116172
0.000124301
0.000126897
0.000124377
0.000117773
5.56197e-05
0.000262797
0.000308279
0.000439095
0.000501641
0.000537989
0.000549203
0.000549759
0.000530508
0.000479945
0.000409567
4.05271e-05
0.000154846
0.000202388
0.000262361
0.000332946
0.000464565
0.000575838
0.000593302
0.000576176
0.000520179
0.000436741
3.64199e-05
0.000111918
0.000165422
0.00021157
0.000267029
0.000351864
0.000554847
0.000632811
0.000624783
0.0005693
0.000479538
3.42105e-05
9.80864e-05
0.000146402
0.000186176
0.000233402
0.000302884
0.000471486
0.000655058
0.000676367
0.000630689
0.000543971
3.1244e-05
0.00010278
0.000139259
0.000171963
0.000212226
0.000273246
0.000417274
0.000649358
0.000726419
0.000696011
0.000608057
2.95183e-05
0.000116588
0.000141263
0.000165215
0.000197715
0.000251158
0.000377554
0.000606678
0.000765117
0.000762392
0.000679546
3.31671e-05
0.000137258
0.000151501
0.000164842
0.000188277
0.000233823
0.000345372
0.000556382
0.000755128
0.000820171
0.000744159
3.76768e-05
0.000163703
0.000169426
0.000170531
0.000183557
0.000220905
0.000319732
0.000510265
0.000718552
0.000833245
0.000805
4.15394e-05
0.000192415
0.00019418
0.000181922
0.00018299
0.000211666
0.000299026
0.000469765
0.000671411
0.000810017
0.000827493
4.44403e-05
0.000219238
0.000223768
0.000198655
0.000186226
0.00020551
0.000282011
0.000434149
0.000621469
0.00076521
0.000809529
4.62809e-05
0.000240441
0.000255051
0.000220093
0.000193093
0.000201941
0.000267437
0.000401733
0.000571273
0.000708782
0.000764608
4.74333e-05
0.000257535
0.000285757
0.000245053
0.000203482
0.000201076
0.000255476
0.000372799
0.000523437
0.000648478
0.000702101
4.78948e-05
0.000270419
0.000313107
0.000272028
0.000217235
0.000202872
0.000245789
0.000346669
0.000478257
0.000588467
0.000632452
4.75885e-05
0.000277433
0.000334697
0.000299457
0.000234229
0.000207401
0.000238171
0.000322741
0.00043549
0.000530416
0.000564156
4.66756e-05
0.00028018
0.000350691
0.000325522
0.000253874
0.000214856
0.000233071
0.000301546
0.00039581
0.000475606
0.000501181
4.53114e-05
0.000277935
0.000360896
0.000348331
0.000275323
0.000225327
0.000230815
0.00028336
0.000359489
0.000424619
0.0004436
4.33254e-05
0.000269367
0.00036465
0.000365897
0.000297138
0.000238761
0.00023201
0.0002689
0.000327132
0.000377874
0.000391544
4.05122e-05
0.000256386
0.000358867
0.000376034
0.000317068
0.000254715
0.000237513
0.000259548
0.000300113
0.000336226
0.000344727
3.69212e-05
0.000238567
0.000342559
0.000375227
0.000332292
0.000272637
0.00024868
0.000257362
0.000280557
0.00030149
0.000303244
3.26448e-05
0.000216738
0.000317743
0.000357434
0.000341391
0.000293215
0.00026813
0.00026547
0.000271549
0.000276229
0.000269194
2.76232e-05
0.000184996
0.000282634
0.000324399
0.000334429
0.000313012
0.000292197
0.000280001
0.000269629
0.000258087
0.000239855
2.38045e-05
0.000165755
0.000238773
0.000271647
0.000283858
0.000282366
0.000262156
0.000234868
0.000206165
0.00017652
0.00014427
1.54338e-05
0.000101364
0.000116697
0.000105801
9.4888e-05
8.16755e-05
7.02464e-05
6.16125e-05
5.45639e-05
4.86246e-05
4.33275e-05
9.4474e-06
1.06272e-05
1.1944e-05
1.41278e-05
1.731e-05
2.12469e-05
2.56287e-05
3.00007e-05
3.38526e-05
3.67278e-05
3.82899e-05
3.30146e-05
9.94984e-05
9.28083e-05
9.63743e-05
8.49826e-05
6.74363e-05
5.33044e-05
4.49447e-05
3.95097e-05
3.52782e-05
3.153e-05
2.78736e-05
8.78908e-05
6.83346e-05
9.70992e-05
9.20757e-05
7.20568e-05
5.41964e-05
4.37705e-05
3.73901e-05
3.26282e-05
2.84766e-05
2.76535e-05
7.42171e-05
6.40118e-05
7.68064e-05
9.27809e-05
7.79432e-05
5.68403e-05
4.39991e-05
3.64995e-05
3.1222e-05
2.68829e-05
2.91569e-05
6.57471e-05
6.29786e-05
6.95874e-05
8.4315e-05
8.32376e-05
6.03935e-05
4.51873e-05
3.65101e-05
3.07159e-05
2.62015e-05
3.06887e-05
6.23389e-05
6.24963e-05
6.5563e-05
7.81464e-05
8.70558e-05
6.44693e-05
4.71071e-05
3.72246e-05
3.09076e-05
2.62978e-05
3.15544e-05
6.17264e-05
6.23448e-05
6.2563e-05
7.18075e-05
8.50643e-05
6.89286e-05
4.96987e-05
3.85411e-05
3.16397e-05
2.68444e-05
3.18474e-05
6.29854e-05
6.28501e-05
6.0673e-05
6.60551e-05
7.83459e-05
7.16734e-05
5.31561e-05
4.04161e-05
3.28268e-05
2.77215e-05
3.16964e-05
6.60337e-05
6.43998e-05
6.00874e-05
6.19351e-05
7.0911e-05
7.09474e-05
5.68137e-05
4.31194e-05
3.45153e-05
2.89491e-05
3.10565e-05
7.01998e-05
6.71508e-05
6.06615e-05
5.92638e-05
6.44328e-05
6.7289e-05
5.92919e-05
4.63436e-05
3.67697e-05
3.05908e-05
2.99917e-05
7.49127e-05
7.1198e-05
6.23597e-05
5.77646e-05
5.9166e-05
6.18799e-05
5.93142e-05
4.95659e-05
3.95558e-05
3.26471e-05
2.87409e-05
8.05307e-05
7.68077e-05
6.54323e-05
5.76611e-05
5.56428e-05
5.66096e-05
5.67978e-05
5.17392e-05
4.27116e-05
3.51552e-05
2.75204e-05
8.77752e-05
8.43745e-05
7.01256e-05
5.90885e-05
5.40043e-05
5.27599e-05
5.31843e-05
5.19905e-05
4.57202e-05
3.81038e-05
2.65447e-05
9.64181e-05
9.42045e-05
7.67458e-05
6.20716e-05
5.39454e-05
5.03946e-05
4.96959e-05
5.02971e-05
4.77116e-05
4.13e-05
2.59838e-05
0.00010584
0.000106491
8.58194e-05
6.69094e-05
5.54144e-05
4.94224e-05
4.70056e-05
4.74693e-05
4.78455e-05
4.41613e-05
2.58956e-05
0.000117225
0.000121785
9.79195e-05
7.40189e-05
5.86215e-05
4.9973e-05
4.56057e-05
4.47646e-05
4.61671e-05
4.57573e-05
2.62157e-05
0.000130145
0.000140188
0.000113875
8.41358e-05
6.39405e-05
5.21421e-05
4.55957e-05
4.29391e-05
4.36137e-05
4.53134e-05
2.66192e-05
0.000142533
0.000160827
0.00013452
9.84908e-05
7.2223e-05
5.63627e-05
4.71728e-05
4.24034e-05
4.13323e-05
4.30849e-05
2.63127e-05
0.000153432
0.000182082
0.000159943
0.000118427
8.47555e-05
6.35294e-05
5.08908e-05
4.361e-05
4.02926e-05
4.04372e-05
2.5212e-05
0.000160902
0.000201221
0.000188645
0.000145152
0.000103503
7.52944e-05
5.78961e-05
4.73203e-05
4.13008e-05
3.89503e-05
2.32664e-05
0.000162983
0.000214679
0.000216385
0.000178299
0.00013091
9.45276e-05
7.05549e-05
5.52404e-05
4.56221e-05
4.01272e-05
2.04668e-05
0.000155032
0.00021866
0.000237352
0.000214512
0.000169005
0.000125811
9.35268e-05
7.11865e-05
5.61317e-05
4.62672e-05
1.79015e-05
0.000141713
0.000212445
0.000247318
0.000244939
0.000213871
0.000172082
0.000133235
0.000102224
7.91811e-05
6.25801e-05
1.35909e-05
0.000109056
0.000155818
0.000195055
0.000214625
0.00021658
0.000201752
0.000175617
0.000146134
0.000119018
9.59463e-05
1.06461e-05
4.06696e-05
5.5769e-05
7.6518e-05
9.83609e-05
0.000119768
0.000137323
0.000144776
0.000142475
0.000133505
0.000120245
2.7384e-05
8.9911e-05
8.99691e-05
8.98339e-05
8.22075e-05
6.76955e-05
5.57961e-05
4.83177e-05
4.3244e-05
3.91735e-05
3.54258e-05
1.86825e-05
7.69556e-05
9.29574e-05
9.75449e-05
9.04342e-05
7.60664e-05
6.3233e-05
5.50063e-05
4.97137e-05
4.5729e-05
4.22203e-05
1.89985e-05
7.00768e-05
9.24241e-05
0.00011289
0.000106107
9.02424e-05
7.43251e-05
6.39227e-05
5.78893e-05
5.39189e-05
5.07986e-05
2.13476e-05
6.55571e-05
8.9929e-05
0.000122541
0.000123162
0.000110248
9.26257e-05
7.8773e-05
6.99349e-05
6.44501e-05
6.07346e-05
2.42736e-05
6.11121e-05
8.99367e-05
0.000126928
0.000130272
0.000119592
0.000102405
8.85893e-05
7.99902e-05
7.49133e-05
7.17336e-05
2.71191e-05
5.76997e-05
9.03484e-05
0.00012779
0.00013362
0.000126181
0.000110531
9.75171e-05
8.95997e-05
8.55186e-05
8.37898e-05
2.97629e-05
5.5284e-05
9.06138e-05
0.000127275
0.000135414
0.000131236
0.00011736
0.00010557
9.85157e-05
9.53381e-05
9.47037e-05
3.22413e-05
5.36131e-05
9.06999e-05
0.000126499
0.000136908
0.000135543
0.00012342
0.000112845
0.000106458
0.000103724
0.000103223
3.43925e-05
5.24296e-05
9.06769e-05
0.000126005
0.000138733
0.000139531
0.000129173
0.000119671
0.000113944
0.000111923
0.000112545
3.6197e-05
5.15046e-05
9.06757e-05
0.000125828
0.000140975
0.000143577
0.000134859
0.000126191
0.000120991
0.000119578
0.000120848
3.7638e-05
5.06606e-05
9.05427e-05
0.000126056
0.000143501
0.000147894
0.000140637
0.000132519
0.000127605
0.00012654
0.000127919
3.88059e-05
4.98259e-05
9.02436e-05
0.00012651
0.000146195
0.00015249
0.00014659
0.000138775
0.00013388
0.000133001
0.000134835
3.96281e-05
4.88725e-05
8.96856e-05
0.000127007
0.000148989
0.000157387
0.00015285
0.000145124
0.000139937
0.000139027
0.00014155
3.99929e-05
4.64344e-05
8.67103e-05
0.000125457
0.000150125
0.000161405
0.000159063
0.000151694
0.000145985
0.00014467
0.000147399
3.98389e-05
4.35399e-05
8.12534e-05
0.000120579
0.000147421
0.000161871
0.00016322
0.000157783
0.000152184
0.000150335
0.000152822
3.91319e-05
4.03589e-05
7.35629e-05
0.000112108
0.000140561
0.000157877
0.000163768
0.000162084
0.000158043
0.000156074
0.000158015
3.7865e-05
3.70194e-05
6.42547e-05
0.000100017
0.000129186
0.000148706
0.000158959
0.000162221
0.000161794
0.000161177
0.000162948
3.59464e-05
3.37455e-05
5.44967e-05
8.52763e-05
0.000113527
0.000134233
0.000147663
0.000155486
0.000159933
0.000162914
0.000166281
3.33296e-05
3.05346e-05
4.52026e-05
6.94377e-05
9.4559e-05
0.000114918
0.000129836
0.000140428
0.000148677
0.000155981
0.000163127
2.99757e-05
2.72536e-05
3.68058e-05
5.40898e-05
7.40623e-05
9.20971e-05
0.000106626
0.000117887
0.000127323
0.000136439
0.000146211
2.58444e-05
2.3694e-05
2.94221e-05
4.04667e-05
5.43501e-05
6.8227e-05
8.04794e-05
9.0651e-05
9.9259e-05
0.000107286
0.000115722
2.09397e-05
1.96211e-05
2.28299e-05
2.90656e-05
3.73003e-05
4.62158e-05
5.48004e-05
6.24984e-05
6.92317e-05
7.52718e-05
8.10616e-05
1.52903e-05
1.44862e-05
1.61431e-05
1.91328e-05
2.31042e-05
2.76165e-05
3.22691e-05
3.6781e-05
4.09987e-05
4.48891e-05
4.85005e-05
9.23476e-06
9.66308e-06
1.14187e-05
1.35305e-05
1.59195e-05
1.84312e-05
2.10519e-05
2.50492e-05
3.06164e-05
3.77325e-05
4.6039e-05
3.68975e-05
0.000197147
0.000335992
0.000463511
0.000527107
0.000527986
0.000523788
0.000573226
0.000649115
0.000667371
0.000574155
2.6845e-05
0.000113273
0.000219805
0.000333643
0.000420539
0.000452004
0.000453775
0.000501496
0.000599286
0.000631624
0.000542009
2.12527e-05
8.14322e-05
0.000162704
0.000255695
0.00034058
0.000387801
0.00039662
0.000412813
0.000498563
0.000593208
0.000521174
1.67474e-05
7.36236e-05
0.000134907
0.000209784
0.000285312
0.000337402
0.000353888
0.000356688
0.000398507
0.00049431
0.000502751
1.40365e-05
7.72033e-05
0.000124163
0.000183724
0.000248313
0.000298726
0.000319933
0.000320224
0.000334807
0.000392863
0.000443086
1.38963e-05
8.13745e-05
0.000122354
0.000170052
0.000223795
0.000269255
0.000292044
0.000293472
0.000295654
0.000323218
0.000367959
1.41262e-05
8.13919e-05
0.000122171
0.000162987
0.000207432
0.000246745
0.000268914
0.000272135
0.000269772
0.000280044
0.00030751
1.40153e-05
8.07456e-05
0.000119222
0.000157679
0.000195886
0.000229267
0.000249742
0.000254519
0.000251337
0.000253252
0.000267354
1.37278e-05
7.77464e-05
0.000115898
0.000150835
0.000186595
0.000215291
0.000234008
0.000240125
0.000237917
0.000236792
0.000243678
1.32825e-05
7.34332e-05
0.000111762
0.000144459
0.000177939
0.000204163
0.000221797
0.000229412
0.000229331
0.000228437
0.000232827
1.28207e-05
6.89193e-05
0.000107871
0.00013962
0.000171472
0.000196585
0.000214242
0.000223971
0.000227087
0.000228455
0.000232652
1.24218e-05
6.50359e-05
0.00010542
0.000137728
0.000169139
0.000194287
0.000213371
0.000226201
0.000233337
0.000237632
0.000241968
1.20253e-05
6.14791e-05
0.000104351
0.000139161
0.000171432
0.000198525
0.000220721
0.000237622
0.000248714
0.000254728
0.000257248
1.16653e-05
5.74768e-05
0.000103392
0.000141465
0.000176941
0.000208097
0.000234858
0.000256021
0.000269587
0.000274744
0.000272968
1.12985e-05
5.38222e-05
0.000101557
0.00014285
0.000182668
0.000218848
0.000250437
0.000274972
0.000289174
0.00029196
0.000285831
1.08481e-05
5.0669e-05
9.89005e-05
0.000142235
0.000185645
0.000226215
0.000261865
0.000288948
0.000303416
0.000304385
0.000295113
1.02987e-05
4.7796e-05
9.54981e-05
0.000139634
0.000185345
0.000229341
0.000268606
0.000298478
0.000314114
0.000314364
0.000302521
9.59645e-06
4.54674e-05
9.20291e-05
0.000136267
0.00018389
0.000231438
0.000274795
0.000308106
0.000325418
0.000324958
0.000309948
8.74721e-06
4.35922e-05
8.87137e-05
0.000133599
0.00018429
0.000235702
0.0002819
0.000317514
0.000336244
0.000334459
0.000314664
7.73856e-06
4.19086e-05
8.76328e-05
0.000136826
0.000186977
0.000229319
0.000255221
0.000288229
0.00031972
0.000325234
0.000307171
6.99199e-06
5.09237e-05
9.7265e-05
0.00011964
0.000116499
0.000125647
0.000148794
0.000176044
0.00020718
0.000242864
0.000255295
7.67076e-06
4.30464e-05
5.32122e-05
5.28424e-05
7.65495e-05
0.000106214
0.000136852
0.000161289
0.000172933
0.000173573
0.000175381
6.21168e-06
1.72225e-05
3.2948e-05
5.87104e-05
9.37502e-05
0.000133929
0.000172855
0.00020298
0.000215686
0.000201608
0.00016796
8.94681e-06
2.44294e-05
5.41312e-05
9.76963e-05
0.000149587
0.000200807
0.000242676
0.000269364
0.0002783
0.000264001
0.00022114
3.51094e-05
0.000296721
0.000480416
0.000569887
0.000584031
0.00056314
0.000561573
0.000616065
0.000696475
0.000715066
0.00061271
2.04747e-05
0.000215732
0.00043368
0.000564357
0.000610182
0.000603753
0.000600795
0.000655219
0.000751883
0.000792726
0.000696406
1.3539e-05
0.000145765
0.000347979
0.000507726
0.000599518
0.000625784
0.0006286
0.000680912
0.000799182
0.000882793
0.000817549
1.10478e-05
9.03859e-05
0.000250963
0.000415879
0.000544223
0.000611759
0.000630769
0.000677747
0.000813158
0.000952483
0.000941955
1.21987e-05
7.08823e-05
0.000184951
0.000334154
0.000474001
0.000569588
0.000602195
0.000627282
0.000758019
0.000968907
0.00107513
1.38388e-05
7.51656e-05
0.000173453
0.000295694
0.000427369
0.000538118
0.000585652
0.000571339
0.000622471
0.000842744
0.0010771
1.55215e-05
8.2601e-05
0.000179072
0.000290398
0.000411259
0.000523354
0.0005913
0.000579561
0.000552172
0.000698223
0.000990308
1.72412e-05
9.10717e-05
0.000189222
0.000295558
0.000408362
0.000518933
0.000599498
0.00060716
0.000545274
0.000574942
0.000842686
1.8859e-05
0.000100383
0.000201803
0.000305117
0.000410136
0.000515276
0.00060224
0.000629835
0.00057252
0.000512185
0.000674521
2.03166e-05
0.0001104
0.000215377
0.0003164
0.000413505
0.000509237
0.000595736
0.000640141
0.000602052
0.000507159
0.000537345
2.15725e-05
0.000119762
0.000228278
0.000327858
0.000417305
0.000500602
0.000579449
0.000635383
0.000620811
0.000524976
0.000468394
2.26882e-05
0.000128548
0.000242195
0.000338632
0.000420685
0.000490387
0.000556042
0.000616143
0.000624526
0.000544125
0.000445175
2.36078e-05
0.000136176
0.000253605
0.000348241
0.000423048
0.000479384
0.000528414
0.000583187
0.000612521
0.000555979
0.000442252
2.43388e-05
0.000143181
0.000263412
0.000355672
0.000423397
0.00046842
0.000503216
0.000543586
0.000579385
0.000554327
0.00044483
2.47571e-05
0.000149188
0.00027168
0.000361208
0.000421719
0.000456048
0.000478245
0.000504852
0.000534362
0.000530126
0.000453216
2.48609e-05
0.000154608
0.0002792
0.000365841
0.000419004
0.000442783
0.000452652
0.000467306
0.000488905
0.000493521
0.000453308
2.46379e-05
0.000159639
0.000286673
0.000370894
0.000417064
0.000430644
0.000428392
0.000433503
0.000447275
0.000453621
0.000433955
2.40126e-05
0.00016441
0.000294955
0.000378084
0.000418224
0.000421745
0.000409927
0.000405695
0.000411382
0.000415967
0.000408057
2.29185e-05
0.000169073
0.000304404
0.000387054
0.00042039
0.000418369
0.000400301
0.000386245
0.000382143
0.000380784
0.000373513
2.11661e-05
0.00017117
0.000306337
0.000388938
0.000424011
0.000421577
0.000398852
0.000376369
0.000363542
0.000356063
0.000346977
1.83209e-05
0.000161895
0.000294419
0.00038401
0.000426626
0.000426687
0.00040083
0.000371744
0.000352466
0.000341519
0.000334116
1.49011e-05
0.000141006
0.000266797
0.000365638
0.000418341
0.000425114
0.000400879
0.000368718
0.000344628
0.000329986
0.000321264
1.11058e-05
0.000100946
0.000226129
0.000330051
0.00039155
0.000408522
0.000393413
0.000364841
0.00033871
0.000318368
0.000297414
7.64138e-06
9.20511e-05
0.000184787
0.00027838
0.000334036
0.000360914
0.000363598
0.000349073
0.000327277
0.000303248
0.000268071
1.69936e-05
1.75982e-05
1.81002e-05
1.8086e-05
1.80546e-05
1.7897e-05
1.74385e-05
1.6723e-05
1.56288e-05
0.000111592
0.00013435
0.000156841
0.000165729
0.000151789
0.000132455
0.000108873
7.82489e-05
5.09334e-05
0.000214791
0.000259487
0.000301479
0.000321692
0.00030082
0.000265501
0.000219416
0.000162876
0.000105318
0.000313623
0.000371985
0.000419377
0.000445616
0.000421461
0.000379601
0.000319584
0.000241541
0.000154816
1.60093e-05
1.45594e-05
1.23377e-05
7.99246e-06
6.63873e-06
6.33447e-06
5.64333e-06
9.45549e-06
1.36075e-05
7.96927e-05
5.23246e-05
3.29123e-05
2.52993e-05
2.4328e-05
2.88009e-05
2.06339e-05
2.37582e-05
3.2279e-05
0.000160104
0.000105481
6.30834e-05
4.09588e-05
3.4716e-05
4.11498e-05
3.20025e-05
3.99162e-05
6.23495e-05
0.00023696
0.000152884
8.9687e-05
5.56898e-05
4.52071e-05
5.55645e-05
4.5233e-05
5.64332e-05
9.03405e-05
0.000195668
0.000229706
0.000229759
9.36623e-05
0.000420736
0.000229361
9.20197e-05
0.000229452
0.000229417
0.000233805
0.000415677
0.000229501
0.000122535
0.000193577
0.000123842
0.000228717
0.000167848
9.68858e-05
0.000228709
0.000228585
0.000229697
3.02838e-05
0.000229982
0.000258439
0.000229347
0.000196372
0.00013034
9.19556e-05
0.000446181
0.000558348
0.000149569
0.000235921
0.000123018
0.000229423
0.000240997
0.000229666
0.000244486
0.000229343
0.000105441
0.000229375
2.00155e-05
0.000229461
0.000182706
0.000229959
0.00044308
5.59206e-05
5.21535e-05
0.000105381
0.000239923
0.000229303
0.000555808
0.000229348
0.000892515
0.000172493
0.000229269
0.000229479
2.96873e-05
0.000229351
0.000436423
0.000393383
2.22726e-05
0.000873048
0.000482534
0.000166526
2.73471e-05
0.00022856
0.000677599
0.00022995
0.000229708
0.000233217
0.000189242
0.000233866
6.43375e-05
0.000245611
0.000320405
0.000232109
2.38648e-05
0.000229689
0.000140475
0.000475214
0.000612198
0.000141998
0.000229276
0.000229787
0.00024727
6.5201e-05
0.000377416
0.000789339
4.61196e-05
0.000271063
0.00022948
0.000229323
2.201e-05
0.000233327
0.000476384
0.00012984
0.000293756
0.00023722
4.44418e-05
0.000237182
0.00025217
0.000109667
0.000230054
0.000236562
4.94299e-05
0.000229498
0.000180819
0.000229867
0.000110292
0.000236297
0.000229347
0.000229515
0.00023097
7.52692e-05
9.08047e-05
0.000229038
0.000229407
0.000228875
0.000229273
0.000229175
7.22147e-05
0.000242485
0.000259033
0.000192389
5.10612e-05
0.000213104
0.000594437
0.000174367
0.000159641
0.000129119
0.000229268
0.000374621
0.000105207
0.000232597
0.000229779
0.000230354
2.41423e-05
0.000107659
0.000549502
0.000244798
0.000214838
0.000231429
0.000242137
0.000167898
0.000229401
3.79776e-05
0.000110311
0.000229775
0.000235893
0.00022896
0.000228934
0.000229191
3.9688e-05
0.000241712
8.27926e-05
5.9436e-05
7.31956e-05
3.02753e-05
0.000168505
0.00022882
0.000217063
4.92293e-05
0.000233384
0.000229156
0.000689187
0.000114241
5.80091e-05
0.000243703
0.000237183
2.66455e-05
0.000153838
0.000156048
0.000228329
0.000229609
0.000235174
0.000220351
0.00015458
3.88931e-05
0.000440419
0.00019973
0.000229501
2.78583e-05
0.00022994
0.000143847
0.000229277
0.00011395
0.000229114
0.000228812
0.00022964
0.000177503
0.000111102
0.000201787
0.000228529
1.92889e-05
0.000229744
0.000229024
0.000229508
4.47363e-05
0.000123911
0.000230001
3.44959e-05
0.000229389
0.000112582
0.000144266
0.000229828
0.000803126
0.000232452
0.000160108
0.000229408
0.000228709
0.000308683
0.000228999
0.000175357
0.000238913
0.000229289
0.000667431
0.00022937
4.76084e-05
0.000229066
8.45824e-05
7.89347e-05
7.12036e-05
0.000276392
8.80295e-05
0.000194966
0.000229355
0.000109012
0.000113105
0.000115377
0.000320109
3.26496e-05
0.000228499
0.000228977
0.000243971
3.87089e-05
0.000246132
0.000700695
0.000229892
0.000229529
0.000229482
4.7912e-05
0.000197033
0.000236679
1.71401e-05
0.000235089
5.05157e-05
0.00022936
0.000143437
0.000197079
0.000789378
0.000143481
0.000312347
0.000241498
0.000228626
0.000234043
0.000229493
0.000229446
0.000229299
4.63932e-05
0.000229238
0.00012323
0.000189877
0.000228192
0.000229584
0.000229344
5.26966e-05
0.000231891
0.000233602
0.000159528
0.000179651
0.000194545
0.000229066
0.000229392
5.23506e-05
0.000229042
0.000228913
0.000187631
0.000229159
0.000238448
4.90837e-05
0.000235679
0.000229745
0.000618418
0.000661106
0.000233628
0.000229038
0.000333574
0.000229669
0.000238159
0.000207693
0.000229801
0.000101996
0.000248174
9.2044e-05
0.000229999
0.00022945
0.000237553
0.000229549
0.000240586
0.000189258
0.000229194
6.16432e-05
0.000242739
0.00055574
0.000229362
0.000236427
0.000229688
0.000187606
2.71379e-05
0.000229176
5.78731e-05
0.000229553
0.000234148
0.000125857
2.8284e-05
0.000231529
0.000174719
6.41298e-05
0.00022875
0.000238083
0.000229033
0.000439139
0.000228943
0.000192096
0.000115238
0.000236262
0.000229188
0.000208992
0.000228208
0.000825639
0.000231856
0.000481636
2.08774e-05
0.000229953
0.000100636
0.000238469
7.2518e-05
0.00022964
0.000229231
0.000238642
4.91769e-05
0.0003006
0.000229343
0.00010888
0.000191186
0.000191123
0.000163331
0.000229038
0.000205551
0.00069003
5.97229e-05
0.000236254
0.00017973
0.000229333
0.000105787
0.000230037
7.67002e-05
0.000206714
0.000229957
0.000837322
0.000136058
0.0001922
0.000229397
0.00022933
0.00022962
5.19783e-05
0.0001652
6.23356e-05
6.69643e-05
0.000257788
0.000229158
0.000113499
0.000228908
0.000194293
0.000112398
0.000229765
0.000152588
0.000240914
0.000228982
0.000228898
0.000540846
0.000228959
3.68871e-05
0.000229325
0.000201835
0.000684961
6.20061e-05
0.000194506
0.000195822
4.68646e-05
0.000229197
4.5547e-05
0.000186985
0.000250522
0.000706637
2.73258e-05
0.000229262
0.00022887
0.00022986
7.30514e-05
4.64675e-05
0.000228991
0.000229995
0.000228636
9.92938e-05
2.3586e-05
0.000104686
0.000124692
0.000229386
0.000435186
0.000238627
0.000228673
0.000119806
0.000122295
4.76802e-05
0.00023397
0.000111004
0.000253451
0.000182513
4.95158e-05
0.000308502
0.000149728
8.74349e-05
0.000113414
0.000227328
0.000235471
0.000244455
7.4204e-05
0.000182942
3.52711e-05
0.000229254
3.71396e-05
0.000208204
0.000228622
0.000232599
7.06096e-05
0.000300048
0.000517399
0.000191741
0.000230038
0.000236639
0.000368245
0.000168639
6.18819e-05
0.000232993
8.49e-05
0.000548024
2.61514e-05
0.000228767
4.05884e-05
0.000229194
0.000229733
0.000229334
4.99658e-05
9.31055e-05
6.59088e-05
0.000156162
3.25868e-05
8.15222e-05
0.000229632
0.00022875
0.000621999
0.000181498
0.000234089
0.000236969
4.12835e-05
4.51001e-05
2.96835e-05
2.93526e-05
0.000231704
0.000211876
5.30507e-05
0.000229196
2.21217e-05
0.000235089
0.000229642
0.000229096
8.05635e-05
3.53639e-05
0.000229014
0.000229183
0.000229757
0.000268929
2.70905e-05
0.0002299
4.01194e-05
0.000366998
0.000156582
6.81635e-05
0.000228728
3.9248e-05
0.000229022
0.000234564
0.000229356
0.00014076
0.000148609
0.00022855
0.000192673
0.000168979
0.000233077
0.000223796
0.000208956
0.000229424
0.000229426
0.000235402
8.54686e-05
5.93661e-05
0.000232112
9.69498e-05
0.000229763
0.000459602
0.000104727
4.45583e-05
0.000108632
0.000251845
0.000686637
6.21736e-05
0.000192449
0.000229162
0.000184226
0.000228848
0.000229732
0.000229129
0.00022959
0.000234039
0.000519341
0.000229341
0.000228788
0.000158517
0.000229203
4.04323e-05
0.000241699
0.000160571
0.000176032
4.77028e-05
0.000229994
0.000229292
0.000229927
1.85313e-05
3.53002e-05
0.000229309
0.00022932
0.000192393
0.000229817
0.000152168
0.000229762
0.000857336
0.00023713
3.16364e-05
0.000102615
0.000131023
6.27228e-05
0.0004912
0.000229401
0.000232008
0.000235427
0.000229746
7.08624e-05
2.55884e-05
0.000223797
0.000132996
0.000139667
9.18312e-05
0.00022935
0.000229672
0.000229713
0.00053025
0.000737947
8.37682e-05
0.000229458
0.000229349
0.000663827
0.000230911
0.000107978
0.000151878
0.000137794
0.000297436
0.000229254
8.85148e-05
0.000229263
6.25129e-05
0.000229518
0.00033974
0.000150037
0.000234852
2.91618e-05
0.000131024
0.000229929
0.000229998
0.000467696
0.000229051
0.000183434
0.000107319
6.77148e-05
0.000498277
4.88664e-05
0.000156786
0.000231379
0.000229247
0.00022924
0.0001393
5.37758e-05
0.000112436
0.000228557
0.000229368
8.99431e-05
0.000229323
0.00023595
0.000236331
0.000233978
0.000119367
5.78832e-05
6.85113e-05
0.000159956
0.00023366
0.000230277
0.000228618
0.000150786
0.000231952
0.000229194
0.00019527
0.00040541
0.000228966
0.000228973
2.39177e-05
0.000230072
0.000228718
0.000147662
0.000229759
0.000234813
9.85939e-05
9.64739e-05
0.000158584
0.000182749
0.000159137
6.93009e-05
0.000295499
6.84659e-05
0.000108319
0.000179489
5.35529e-05
7.19386e-05
0.000128541
0.000229766
0.000230346
0.000114561
0.000230294
0.000229293
0.000244958
0.000208231
0.000185946
0.00018981
0.000192623
0.000246221
0.000229164
0.000190469
0.000229506
0.000228887
0.000236674
7.99407e-05
0.000232066
0.000232833
0.000230985
0.000229682
0.000128017
6.22505e-05
0.000307545
0.000232166
0.000229793
0.000189813
0.000382431
0.000236556
0.000168554
0.000231784
0.000270218
0.000346213
0.00022922
8.30102e-05
0.000229918
0.000128404
0.000138621
0.000116773
0.000164274
0.000215269
0.000246509
0.000229822
9.93514e-05
0.000181656
4.69208e-05
0.000615989
0.000229008
0.000233844
0.000229808
0.000161009
0.000229697
4.23581e-05
0.000229512
0.000229363
0.00022905
0.000130328
5.8659e-05
0.000229544
0.00012962
0.000229228
0.000111625
0.000168709
0.000231242
0.000116114
1.62328e-05
9.14265e-05
0.000236666
0.000199341
0.000141224
0.000120821
0.000135464
8.93194e-05
0.000229207
0.000156694
0.000229299
0.000231702
5.37825e-05
0.000191385
3.81344e-05
0.000193512
0.000230723
0.000235042
0.000229194
5.04567e-05
0.000229618
0.00074652
0.000165726
0.000857811
0.000234473
0.000138767
0.000394778
0.000476669
0.00024305
0.000125398
3.72653e-05
6.06719e-05
0.000229403
0.000192208
0.00013578
0.0002295
4.29886e-05
0.000119088
0.00024613
0.000275838
0.00022935
0.000233569
0.000235143
0.000130504
0.000236372
0.000193058
0.0002296
0.000128793
0.000234582
9.64473e-05
8.28196e-05
0.000353353
0.000111399
0.000228802
0.000267703
6.31087e-05
0.000229217
0.000193934
0.000188052
8.18616e-05
0.00024222
2.99183e-05
0.000245064
9.33442e-05
0.000102849
0.000252542
0.000228858
0.000247304
0.000229151
0.000201036
2.29409e-05
0.00023004
0.000229247
0.000252436
0.000368062
0.000453968
0.000156615
0.000229607
0.000153312
0.000252272
0.000229511
0.000229605
0.000229847
0.000229283
0.000234401
0.00015919
4.53359e-05