/*--------------------------------*- C++ -*----------------------------------*\
| =========                 |                                                 |
| \\      /  F ield         | OpenFOAM: The Open Source CFD Toolbox           |
|  \\    /   O peration     | Version:  3.0.1                                 |
|   \\  /    A nd           | Web:      www.OpenFOAM.org                      |
|    \\/     M anipulation  |                                                 |
\*---------------------------------------------------------------------------*/
FoamFile
{
    version     2.0;
    format      ascii;
    class       volScalarField;
    location    "0.938759";
    object      k;
}
// * * * * * * * * * * * * * * * * * * * * * * * * * * * * * * * * * * * * * //

dimensions      [0 2 -2 0 0 0 0];

internalField   nonuniform List<scalar> 
21246
(
0.45908
0.611156
0.252492
0.127923
0.0602746
0.0309784
0.0196294
0.0153211
0.0134447
0.0124482
0.0117936
0.493738
0.713894
0.322094
0.16032
0.0776286
0.0375286
0.0214403
0.0156151
0.0132847
0.0121311
0.0114135
0.506918
0.643205
0.355882
0.189726
0.0924364
0.0450093
0.0240816
0.0163058
0.0133495
0.0119893
0.0112117
0.493371
0.570882
0.362082
0.201895
0.103455
0.0517726
0.0270546
0.0172712
0.0136021
0.0120086
0.0111898
0.460415
0.528776
0.358449
0.206313
0.111069
0.0578106
0.0300564
0.0184317
0.0140148
0.0121597
0.0112849
0.416933
0.504666
0.354734
0.210712
0.117932
0.0638162
0.0333226
0.0197576
0.0145638
0.0124195
0.011458
0.368795
0.491616
0.353534
0.216742
0.125159
0.069608
0.0372412
0.0215173
0.0152341
0.0127682
0.0117037
0.320302
0.487101
0.355299
0.223819
0.132625
0.0754966
0.0413971
0.0237204
0.0161951
0.0132233
0.0120076
0.275562
0.486305
0.361319
0.232563
0.140686
0.0818265
0.0459167
0.0263302
0.017435
0.0138259
0.0123867
0.23624
0.48655
0.37249
0.244295
0.150271
0.0891362
0.0511021
0.0294631
0.0190242
0.0145993
0.0128499
0.20254
0.48969
0.388683
0.25913
0.161483
0.0974678
0.0570366
0.0331919
0.0210265
0.0155939
0.0134077
0.175802
0.498666
0.410229
0.276848
0.173979
0.106536
0.063604
0.0375136
0.0234881
0.0168678
0.0140966
0.157768
0.510905
0.437816
0.29882
0.188655
0.116733
0.070979
0.0425515
0.0265137
0.0185029
0.0149699
0.147845
0.521742
0.471139
0.326963
0.207056
0.128874
0.0795444
0.0485281
0.0302831
0.0206346
0.0161075
0.146055
0.537153
0.510623
0.361855
0.229709
0.143249
0.0894225
0.0555204
0.0349151
0.0234061
0.0176396
0.152269
0.554369
0.555056
0.405464
0.258792
0.161232
0.101324
0.0638997
0.0406644
0.0270357
0.0197395
0.163206
0.565323
0.599596
0.459407
0.2977
0.185349
0.116717
0.0744566
0.0480034
0.0318833
0.0226929
0.171784
0.56565
0.636391
0.521772
0.349162
0.218559
0.137667
0.0884481
0.057702
0.0384835
0.0269262
0.176457
0.552669
0.655263
0.584983
0.41487
0.265412
0.168068
0.10851
0.0714181
0.0479192
0.0332149
0.176334
0.525009
0.646301
0.632434
0.49058
0.330898
0.214501
0.139931
0.0927929
0.062596
0.043188
0.171466
0.476426
0.604093
0.645428
0.56324
0.418079
0.287347
0.193202
0.130019
0.0883316
0.0608632
0.180995
0.430655
0.549131
0.631193
0.616005
0.518143
0.393665
0.282944
0.19836
0.138186
0.0963588
0.169151
0.365313
0.437654
0.500712
0.525602
0.509106
0.45214
0.371182
0.288317
0.217424
0.160299
0.224779
0.453178
0.464232
0.501502
0.517818
0.508503
0.473439
0.413803
0.346626
0.282953
0.224896
0.380511
0.417026
0.215209
0.100557
0.0502847
0.028376
0.0193528
0.0156114
0.0138886
0.0129677
0.0123881
0.302738
0.336029
0.188084
0.106329
0.0560997
0.0318868
0.021211
0.0167122
0.0146852
0.0136534
0.0130532
0.310534
0.343178
0.186669
0.125089
0.0711132
0.0405062
0.0252406
0.0187066
0.0159169
0.0146139
0.0139544
0.316962
0.322852
0.177869
0.132385
0.0809995
0.0490384
0.0309106
0.0219332
0.0178443
0.015967
0.0150919
0.31978
0.28628
0.170211
0.132036
0.0823268
0.051156
0.0326641
0.0233549
0.0189705
0.0168967
0.0159039
0.320119
0.252979
0.162162
0.126763
0.0802568
0.0514403
0.0334924
0.0242336
0.0198
0.0177031
0.0167342
0.31931
0.226854
0.154378
0.120232
0.077009
0.0507012
0.0336241
0.0247644
0.0204686
0.018456
0.0175925
0.317554
0.206628
0.147038
0.113913
0.0738549
0.0497017
0.0335017
0.0251221
0.0210414
0.0191933
0.0185101
0.315899
0.190915
0.140734
0.108617
0.0714562
0.0487946
0.0333878
0.0254068
0.021502
0.0197773
0.0191998
0.314993
0.17896
0.135495
0.104418
0.0699679
0.0482178
0.0334218
0.0256963
0.0218972
0.0202601
0.019803
0.315161
0.169955
0.131517
0.101634
0.0693231
0.048133
0.0336946
0.0260526
0.0222667
0.0206704
0.0203247
0.316249
0.162871
0.128337
0.0999518
0.0693906
0.0485455
0.0342392
0.0265156
0.0226404
0.0210156
0.0207149
0.318514
0.157319
0.125969
0.0992884
0.0702124
0.0495277
0.0351225
0.0271396
0.023053
0.0213086
0.0209835
0.320605
0.154146
0.124382
0.0995552
0.0719612
0.0512675
0.0365282
0.0280472
0.023579
0.0215967
0.0211605
0.322134
0.152208
0.123056
0.100106
0.074351
0.0537297
0.0386446
0.029471
0.0244291
0.0220517
0.0213756
0.323253
0.15154
0.122016
0.100905
0.0772876
0.0569815
0.0415854
0.0315893
0.0257741
0.0228135
0.021744
0.324072
0.152189
0.12135
0.101916
0.0806764
0.061077
0.0454957
0.0346395
0.0278723
0.0241132
0.022453
0.324641
0.154015
0.121102
0.103052
0.0843398
0.0659685
0.0504932
0.0388903
0.0310709
0.0263078
0.023823
0.325052
0.156973
0.12141
0.104262
0.0880724
0.0714986
0.056624
0.0446024
0.0357997
0.0299051
0.0263724
0.325464
0.161124
0.122514
0.105562
0.0916429
0.0773438
0.0637383
0.0519007
0.0424683
0.0355273
0.0308406
0.32612
0.166439
0.12469
0.107051
0.0947933
0.0829432
0.0712886
0.0604781
0.0511504
0.0436412
0.0380186
0.327689
0.172513
0.12803
0.108849
0.0972194
0.0874099
0.0780312
0.0690551
0.0608279
0.0536862
0.0478512
0.330643
0.180126
0.133008
0.111253
0.0987508
0.0897115
0.0820105
0.0750196
0.0686507
0.0629653
0.0580796
0.347901
0.190724
0.151431
0.13328
0.122991
0.115522
0.109091
0.106706
0.106978
0.108917
0.111039
0.315182
0.594993
0.589034
0.572827
0.503367
0.362126
0.234101
0.155967
0.109826
0.0790833
0.0570279
0.258496
0.428004
0.481264
0.496417
0.465137
0.366338
0.245142
0.149868
0.095786
0.0646469
0.044587
0.176142
0.31943
0.386328
0.416059
0.408442
0.344848
0.245429
0.151159
0.0890937
0.0546585
0.0353671
0.111356
0.261718
0.314763
0.345597
0.349703
0.30968
0.232469
0.147698
0.0848338
0.04876
0.0292315
0.0821714
0.219849
0.261757
0.288354
0.296415
0.270468
0.211027
0.138559
0.0798661
0.0443772
0.0253242
0.0744053
0.176504
0.217837
0.241798
0.250319
0.232305
0.1859
0.125486
0.0735936
0.040638
0.0226239
0.0660136
0.142503
0.179874
0.202128
0.210782
0.197178
0.160204
0.110568
0.0664102
0.037184
0.0206851
0.0590474
0.116431
0.148439
0.168108
0.176983
0.165954
0.136063
0.0957709
0.0592053
0.0340759
0.0192597
0.0530951
0.0965524
0.123671
0.140519
0.148715
0.139549
0.115301
0.0828746
0.0529664
0.0315778
0.0183206
0.0480659
0.0819003
0.10541
0.119557
0.126394
0.118828
0.0992051
0.073053
0.0483851
0.02993
0.017895
0.0440484
0.0716819
0.0928675
0.104608
0.110081
0.10398
0.0880297
0.066556
0.0456373
0.0292007
0.0179294
0.041197
0.0650319
0.0846191
0.0946238
0.0992123
0.0943648
0.0811892
0.0629946
0.0445423
0.0293263
0.0184238
0.0391023
0.0606873
0.0793657
0.088435
0.092639
0.0888871
0.077771
0.0617906
0.0448365
0.0302103
0.0193426
0.0373527
0.0577688
0.0761077
0.0848499
0.0890898
0.0863509
0.0768162
0.0623478
0.0462397
0.0317455
0.0206121
0.0357882
0.0559823
0.0742705
0.0829755
0.0875027
0.0857178
0.0774844
0.0641377
0.048508
0.0338649
0.0222778
0.0343462
0.0548362
0.0732345
0.0820862
0.0870901
0.0863041
0.0793081
0.0669489
0.0516238
0.0366164
0.0243486
0.0329111
0.0538622
0.0724823
0.0816524
0.0873611
0.087795
0.0822128
0.07092
0.0558348
0.0402488
0.0270053
0.0313925
0.0529586
0.0718131
0.0814267
0.0882079
0.0903459
0.086611
0.0766097
0.0617003
0.0452237
0.0305961
0.0297175
0.051968
0.0710555
0.0814633
0.0901622
0.0949747
0.0938077
0.0853146
0.0702693
0.0522347
0.035432
0.0278145
0.0506009
0.0702456
0.0825495
0.0949665
0.104097
0.10625
0.0991227
0.0831667
0.0624132
0.042294
0.0252752
0.0499341
0.0722223
0.0885294
0.107169
0.1222
0.127411
0.119941
0.101576
0.0767991
0.0520279
0.0354842
0.0614961
0.077842
0.107106
0.13846
0.158303
0.162495
0.14998
0.124661
0.0948372
0.0648678
0.0349252
0.105864
0.147827
0.191104
0.225014
0.241962
0.237761
0.210607
0.164161
0.11659
0.0799195
0.187688
0.237284
0.285873
0.319894
0.333723
0.327035
0.303791
0.270904
0.224065
0.160127
0.103476
0.329984
0.607446
0.631233
0.596413
0.499553
0.368678
0.254068
0.179718
0.133648
0.100355
0.0731774
0.19241
0.356466
0.478739
0.542089
0.524187
0.431641
0.313395
0.224986
0.171238
0.132888
0.101553
0.11044
0.192143
0.316898
0.436976
0.505427
0.483402
0.381089
0.277263
0.214697
0.171373
0.136395
0.0993423
0.136051
0.214906
0.32238
0.429322
0.483789
0.434307
0.325527
0.259233
0.2142
0.174947
0.103368
0.137036
0.189725
0.260869
0.351625
0.43838
0.458657
0.364037
0.275549
0.244177
0.213275
0.108675
0.145774
0.19069
0.243988
0.313203
0.395514
0.45196
0.415555
0.298483
0.241499
0.232029
0.114455
0.156392
0.197906
0.240774
0.293747
0.364835
0.436098
0.443759
0.346684
0.245276
0.229746
0.120455
0.167676
0.207557
0.242625
0.282144
0.339401
0.412107
0.452602
0.38857
0.271891
0.21866
0.126585
0.179612
0.218786
0.247052
0.274739
0.317068
0.382221
0.441763
0.415233
0.303721
0.219696
0.132773
0.192179
0.231083
0.252777
0.270211
0.298153
0.350438
0.416481
0.424431
0.331086
0.230467
0.139155
0.20527
0.24392
0.259101
0.267963
0.283551
0.321449
0.384902
0.418347
0.348159
0.242533
0.146084
0.218838
0.257373
0.266264
0.267547
0.273518
0.298827
0.35337
0.404533
0.355455
0.253104
0.153978
0.233075
0.270472
0.274211
0.268385
0.267214
0.283069
0.321746
0.375546
0.360977
0.258897
0.162111
0.248414
0.284666
0.282855
0.269451
0.261094
0.269497
0.296795
0.334728
0.34726
0.264635
0.170314
0.265422
0.300902
0.293232
0.271365
0.254675
0.254792
0.271511
0.29658
0.312455
0.272833
0.179238
0.285405
0.320752
0.306988
0.275501
0.249183
0.24072
0.24872
0.265346
0.280799
0.270919
0.189289
0.309806
0.346534
0.327056
0.284783
0.247042
0.229104
0.228987
0.239961
0.252585
0.252753
0.200782
0.340612
0.382329
0.359585
0.306325
0.254277
0.223112
0.213281
0.216917
0.223624
0.224365
0.213831
0.380121
0.434028
0.414328
0.352793
0.283369
0.234094
0.211
0.204141
0.203432
0.201468
0.223761
0.420636
0.490117
0.478405
0.411481
0.329153
0.265479
0.229892
0.21463
0.20978
0.207793
0.216132
0.435183
0.515717
0.516913
0.457315
0.37098
0.296366
0.250299
0.228386
0.221336
0.222163
0.211881
0.428377
0.514981
0.524968
0.474186
0.392464
0.315734
0.263172
0.233808
0.217596
0.196525
0.212347
0.410208
0.485332
0.494818
0.454495
0.388333
0.321542
0.269894
0.23455
0.206434
0.160098
0.275907
0.404307
0.436555
0.431509
0.403418
0.359992
0.30877
0.267263
0.231628
0.187725
0.131222
1.24428
1.65008
1.06598
0.595631
0.323273
0.175522
0.09492
0.0511229
0.0276674
0.0156763
0.00999894
0.784044
1.11067
0.842714
0.529764
0.310193
0.176763
0.098145
0.0533056
0.0286897
0.0158963
0.00985029
0.591626
0.866599
0.755055
0.55852
0.355489
0.207896
0.116306
0.0628965
0.0332711
0.0178537
0.0106038
0.512342
0.71441
0.64257
0.51593
0.354568
0.21981
0.12708
0.0694539
0.0364768
0.0192756
0.011267
0.469827
0.613897
0.558585
0.460081
0.324204
0.208215
0.124266
0.0699935
0.0377298
0.020147
0.0116446
0.440083
0.532665
0.490735
0.408614
0.291156
0.190827
0.117032
0.0679863
0.037743
0.0206216
0.0121106
0.418107
0.470626
0.435623
0.36207
0.259845
0.172501
0.10799
0.0644701
0.0368763
0.0206849
0.0123101
0.400965
0.421966
0.390491
0.32297
0.232558
0.155589
0.0988706
0.0603467
0.0354386
0.0204196
0.0126204
0.387536
0.38324
0.353767
0.291245
0.209969
0.141131
0.0906449
0.0563195
0.0338797
0.0200792
0.0127598
0.377116
0.351785
0.324043
0.266055
0.191964
0.129412
0.0837488
0.0527647
0.0323991
0.0196761
0.0126999
0.368786
0.325693
0.299553
0.245823
0.177619
0.120042
0.0781315
0.0497706
0.0310728
0.0192329
0.0126637
0.361794
0.303757
0.278898
0.229103
0.165938
0.11248
0.073591
0.0473232
0.0299646
0.0188477
0.0125751
0.356527
0.285187
0.261626
0.21554
0.156701
0.106614
0.0700973
0.0454536
0.0291346
0.0185722
0.0125402
0.353481
0.269634
0.247447
0.205022
0.149884
0.102441
0.0676729
0.0442003
0.028623
0.0184318
0.0125817
0.351574
0.256459
0.235456
0.196683
0.144921
0.0996689
0.0661951
0.0435384
0.0284562
0.0184732
0.0127055
0.350916
0.245286
0.225363
0.19043
0.141799
0.0983411
0.065721
0.0435259
0.0286954
0.0187412
0.0129552
0.351146
0.236171
0.216348
0.185309
0.140427
0.0987525
0.0666086
0.0444217
0.029512
0.0193712
0.0133945
0.35224
0.228544
0.208206
0.180923
0.14023
0.100587
0.068794
0.0462674
0.0309605
0.0204657
0.0141464
0.354435
0.222347
0.200852
0.177132
0.141041
0.103848
0.0724646
0.0493211
0.033261
0.0221809
0.0152956
0.358181
0.217575
0.194171
0.173701
0.142587
0.108465
0.0778507
0.0540095
0.0368491
0.0248355
0.0170805
0.364217
0.214304
0.188021
0.17027
0.144367
0.114146
0.0850857
0.0608612
0.0424272
0.0290633
0.0200182
0.374205
0.212023
0.182209
0.166364
0.145619
0.120221
0.0939618
0.0702716
0.0508433
0.0358758
0.0250482
0.388289
0.209824
0.176052
0.161466
0.145588
0.125724
0.103699
0.0820548
0.0626435
0.0463818
0.0335708
0.404981
0.205289
0.175041
0.161232
0.148014
0.132197
0.114247
0.0955501
0.0774573
0.0609523
0.0467077
1.29844
2.49603
1.22961
0.81455
0.465758
0.240704
0.122203
0.0628025
0.0326736
0.0178449
0.0110082
1.26792
2.16806
1.41903
0.966978
0.609658
0.332683
0.17196
0.086999
0.0434814
0.0224047
0.0128901
1.12074
1.71525
1.3799
1.00073
0.686719
0.409697
0.227155
0.118323
0.0587294
0.0291144
0.0159438
0.912259
1.45227
1.28495
0.971099
0.700199
0.457848
0.275368
0.151572
0.0771188
0.0381499
0.0207745
0.710287
1.34682
1.20512
0.925857
0.685542
0.480006
0.310972
0.182195
0.0968394
0.0488172
0.0262275
0.555694
1.32361
1.15449
0.887193
0.663485
0.485916
0.335466
0.207746
0.115975
0.0602185
0.0323615
0.457466
1.32462
1.12882
0.859353
0.641923
0.48372
0.351663
0.228309
0.133387
0.071686
0.0391379
0.402935
1.33967
1.12074
0.839634
0.622108
0.477438
0.360093
0.24576
0.14919
0.0826696
0.0450172
0.37665
1.35728
1.12511
0.826844
0.604917
0.469515
0.363959
0.258484
0.163661
0.0938129
0.0510064
0.365155
1.3683
1.13766
0.820442
0.590945
0.461385
0.365229
0.267969
0.175995
0.103872
0.0573138
0.357789
1.35818
1.15577
0.82155
0.581505
0.454235
0.365258
0.275463
0.186958
0.113327
0.0635109
0.352676
1.33974
1.17663
0.827994
0.576003
0.448256
0.364567
0.281566
0.196996
0.122698
0.0694091
0.350582
1.32135
1.19603
0.839289
0.575143
0.444173
0.36383
0.286889
0.206565
0.132475
0.0759177
0.345783
1.28452
1.20889
0.857008
0.580662
0.443056
0.363779
0.291996
0.21612
0.143077
0.0839225
0.33998
1.23871
1.21317
0.878675
0.59184
0.445274
0.364919
0.297229
0.225935
0.154778
0.0940457
0.333375
1.18626
1.20707
0.902572
0.609357
0.451978
0.368188
0.30321
0.236408
0.168041
0.106629
0.324189
1.12205
1.18781
0.926
0.633262
0.464492
0.374947
0.310874
0.247997
0.183098
0.122183
0.313267
1.05084
1.15287
0.943645
0.661846
0.483893
0.387027
0.321693
0.261458
0.200154
0.140792
0.302095
0.972324
1.09934
0.947602
0.691238
0.511078
0.407314
0.33838
0.278441
0.219767
0.162437
0.301421
0.909998
1.02893
0.931918
0.718423
0.549195
0.441908
0.36691
0.303241
0.244097
0.187612
0.304392
0.774997
0.909586
0.876478
0.73061
0.595521
0.493128
0.410893
0.338714
0.274391
0.215301
0.363861
0.694092
0.736972
0.73889
0.650878
0.555583
0.473852
0.40096
0.329792
0.264255
0.203692
0.320171
0.660857
0.707436
0.578612
0.47177
0.382938
0.306858
0.24015
0.186099
0.142797
0.108012
0.401989
0.314105
0.24447
0.201914
0.173272
0.150705
0.130723
0.111938
0.0940973
0.077375
0.06204
0.0907833
0.0827626
0.0688794
0.0456124
0.0173096
0.0130217
0.0155465
0.018124
0.0340384
0.111877
0.0909492
0.0713693
0.0527266
0.0388834
0.025239
0.0242911
0.0360076
0.0543461
0.109467
0.0950871
0.079977
0.0611367
0.0437338
0.0313821
0.0302514
0.0431988
0.0658503
0.0979005
0.0853835
0.0746812
0.0615342
0.0469739
0.0373452
0.0369088
0.0484379
0.0678239
0.0966535
0.0989134
0.0984931
0.0961137
0.0951739
0.0908984
0.0830509
0.0738026
0.0598351
0.131397
0.147025
0.158491
0.162784
0.148961
0.13463
0.116692
0.0944372
0.0725363
0.127101
0.146569
0.159567
0.160168
0.144909
0.127624
0.111979
0.0992292
0.0842671
0.112255
0.12785
0.138841
0.13832
0.125097
0.11034
0.0977903
0.0874207
0.0789813
0.00442767
0.0046006
0.004616
0.00211073
0.046419
0.00439132
0.0113699
0.0045388
0.0043832
0.00423747
0.0462961
0.00454928
0.00371819
0.00328586
0.00448389
0.004302
0.00331099
0.00209357
0.00429097
0.00424827
0.00411958
0.00434281
0.00466599
0.0186294
0.00449468
0.00329845
0.00376563
0.0110188
0.0872972
0.0486355
0.00340478
0.00410405
0.00297141
0.0045342
0.00426021
0.00459166
0.0173531
0.00448988
0.00289296
0.00440157
0.00719444
0.00454331
0.00664147
0.00465876
0.0618313
0.0144631
0.00326897
0.0228622
0.00429671
0.00431217
0.0488446
0.00440705
0.00940946
0.00669844
0.00430976
0.00412615
0.00424282
0.00441353
0.0854359
0.00382561
0.00580897
0.00734041
0.0523789
0.00792624
0.00871616
0.00425891
0.0521103
0.0042564
0.00460126
0.00422654
0.00329636
0.00429169
0.00310179
0.0045723
0.00427446
0.00427191
0.00455333
0.00459588
0.00926351
0.0731071
0.0462115
0.0063459
0.0044961
0.00462551
0.00437253
0.00312154
0.110985
0.00657126
0.00312951
0.0184315
0.00454212
0.00442365
0.00726321
0.00430125
0.0719729
0.029247
0.00263286
0.00397996
0.00346118
0.00438205
0.00469445
0.0217517
0.00416067
0.00402706
0.00282967
0.00454864
0.0030497
0.00464629
0.00439693
0.00419473
0.00450636
0.00455817
0.00428323
0.00225322
0.00417897
0.00442447
0.004387
0.00431182
0.00449402
0.00413823
0.00228961
0.00450525
0.00465171
0.00325804
0.0131728
0.00418
0.0604845
0.00304679
0.00323018
0.00355834
0.00445696
0.00381629
0.0222631
0.00427586
0.00461407
0.00454473
0.00409706
0.00428369
0.0496888
0.00446937
0.00688082
0.00412714
0.02413
0.00402417
0.00437714
0.00330599
0.00443866
0.00425895
0.00431042
0.00424054
0.004263
0.00442132
0.00353922
0.00445399
0.0022501
0.0036308
0.00375398
0.00382915
0.00320777
0.00435573
0.00364084
0.00422175
0.00428516
0.00443349
0.0533007
0.00586734
0.00358062
0.00456774
0.0040957
0.00821881
0.00307256
0.00309783
0.00428516
0.00406064
0.00409455
0.00396423
0.00316507
0.00358039
0.0623451
0.0039301
0.00426136
0.00435509
0.00465985
0.0142085
0.00449706
0.00384824
0.00424491
0.0042964
0.00458769
0.0124322
0.00421959
0.00341524
0.00427131
0.00653954
0.00460943
0.00439598
0.0043471
0.00352285
0.00364707
0.00467914
0.00314592
0.00430272
0.00408094
0.00350708
0.00462758
0.00671554
0.00428862
0.00322258
0.00433467
0.00433775
0.0216441
0.00439588
0.00401485
0.00422093
0.00449081
0.00410296
0.00450907
0.00374335
0.00425731
0.00322693
0.00289661
0.00219369
0.00268746
0.00417012
0.00321645
0.00441838
0.0100016
0.00564525
0.00398141
0.0228357
0.00393732
0.00425584
0.00425669
0.00454875
0.00350471
0.0594999
0.0501642
0.00464634
0.00455521
0.00454322
0.00376356
0.00853032
0.00401809
0.00510981
0.00431188
0.00469179
0.00451651
0.00359486
0.0328864
0.0588737
0.00358247
0.021834
0.00514006
0.00429513
0.00396032
0.00435956
0.00414798
0.00447539
0.00317764
0.00424106
0.00339387
0.00456047
0.00432525
0.00457169
0.00450473
0.00311825
0.00413086
0.00431594
0.00559408
0.00372457
0.0225491
0.00430373
0.0042957
0.00316559
0.00438448
0.00432516
0.00332019
0.00444437
0.00428578
0.00312763
0.00432812
0.00459592
0.0464208
0.0470485
0.0039603
0.00439117
0.0764584
0.00458428
0.0042544
0.00666256
0.00461452
0.011344
0.00467445
0.00291205
0.00467838
0.00434478
0.00408948
0.00456155
0.00425885
0.00334687
0.00444875
0.00244818
0.00436857
0.0490407
0.0041585
0.00418881
0.00459629
0.0160845
0.00420683
0.00434916
0.00728392
0.00456181
0.00409822
0.00297141
0.00507771
0.00410681
0.00369704
0.00320326
0.00412914
0.00437432
0.00424393
0.0366016
0.00435679
0.00339309
0.00551719
0.00429599
0.0044535
0.00371303
0.00423984
0.0276964
0.00427953
0.05281
0.00410643
0.0046512
0.0035602
0.0432888
0.00339168
0.00458407
0.00447062
0.0039547
0.00398199
0.0207879
0.00429179
0.00571948
0.0213255
0.0162329
0.00441416
0.00437976
0.0145898
0.0645581
0.00845196
0.00393897
0.00374183
0.0041762
0.00394482
0.00468915
0.00293283
0.00399771
0.00465995
0.0353038
0.00386324
0.0033255
0.00451663
0.00451207
0.00430423
0.00329737
0.00308731
0.00317747
0.0100131
0.00469715
0.00443793
0.0119636
0.0397795
0.00319691
0.00387957
0.00460585
0.00391771
0.00424752
0.00437111
0.00424557
0.0386112
0.0043802
0.00322322
0.00442433
0.003402
0.0501439
0.00235764
0.00320168
0.0083213
0.00349321
0.00443074
0.0051247
0.0031047
0.0047562
0.0516359
0.00908038
0.00447932
0.00427611
0.00461995
0.00567195
0.00315976
0.00441105
0.00466342
0.00679724
0.00284024
0.0098154
0.00795975
0.00734513
0.00430199
0.0365392
0.00440233
0.00427637
0.00378507
0.00371684
0.00409673
0.00407798
0.00424407
0.00480392
0.00314145
0.0048507
0.0311444
0.00321415
0.0119902
0.00417181
0.00398435
0.00417893
0.00452972
0.00482011
0.00516361
0.0106061
0.00448563
0.00322192
0.00342964
0.00410298
0.00466429
0.00311231
0.025802
0.0487847
0.0032693
0.00468847
0.00396268
0.109701
0.00213716
0.0023956
0.00424227
0.00423989
0.00395952
0.00342112
0.00433778
0.0040118
0.0044422
0.00461255
0.00449745
0.00428252
0.00441621
0.0103309
0.0030843
0.00315816
0.00491991
0.00458946
0.00433318
0.0626845
0.00320186
0.00395103
0.00436293
0.00817006
0.00764123
0.00545505
0.00546768
0.0042769
0.00393487
0.00314192
0.00422331
0.00569342
0.00429521
0.00458135
0.00431468
0.00557827
0.00368517
0.00424962
0.00445292
0.00413621
0.0166471
0.00442473
0.00464648
0.00335013
0.0307676
0.0040465
0.00325084
0.00433679
0.00337705
0.00439327
0.00428598
0.00441335
0.003396
0.00327044
0.0042615
0.00339697
0.00400264
0.00430665
0.0037512
0.0037027
0.00453267
0.00453456
0.0359286
0.00371785
0.00286937
0.00428536
0.0184009
0.0046188
0.0373311
0.00435286
0.00355152
0.00518765
0.00473877
0.0495487
0.00504322
0.00338563
0.00445349
0.00360696
0.0041188
0.00459416
0.00442292
0.00456763
0.00423671
0.0371494
0.00451138
0.00435055
0.0126038
0.00444173
0.00932726
0.00426059
0.0131195
0.00331556
0.00318181
0.00467782
0.00447597
0.00463548
0.00589537
0.00374143
0.0045011
0.0044916
0.00324955
0.0046154
0.00216386
0.00460448
0.0375371
0.00424301
0.00409614
0.00291383
0.00333853
0.0158396
0.0393798
0.00416893
0.00412682
0.00429524
0.00460287
0.00310979
0.00330807
0.00423462
0.00354689
0.0244598
0.0248907
0.00449305
0.00430953
0.00459575
0.00395891
0.052679
0.00422778
0.00453765
0.00437841
0.0472762
0.00428263
0.00303103
0.00329116
0.00892
0.0354679
0.00443617
0.00451403
0.00446261
0.00513674
0.00433063
0.0041248
0.00318765
0.00409625
0.0052907
0.00745032
0.00463724
0.00467356
0.070887
0.00440734
0.00354563
0.00322527
0.00534866
0.00354026
0.00395335
0.00361015
0.00420476
0.00444378
0.00448696
0.0294022
0.00305288
0.00389924
0.00424976
0.00450174
0.00664431
0.00423682
0.00433948
0.00432121
0.0042817
0.00318477
0.00305109
0.00531482
0.00567706
0.00402023
0.00517517
0.00428865
0.00992025
0.00425673
0.00445586
0.0341141
0.0289546
0.00438395
0.00438632
0.00399012
0.00414849
0.00432766
0.00565084
0.00460599
0.00423
0.00330939
0.00291782
0.00382185
0.00312216
0.00318416
0.00557346
0.0256964
0.00497851
0.00627153
0.00354146
0.00349838
0.00458294
0.00349146
0.00462066
0.00418399
0.00559153
0.00394408
0.00421891
0.00446666
0.00343844
0.00675871
0.0306121
0.00361373
0.00435341
0.00442767
0.00526595
0.00455057
0.00428599
0.00427577
0.0034066
0.00424596
0.00430144
0.00421729
0.00458862
0.00398359
0.00621936
0.0220228
0.00425745
0.00423615
0.00399062
0.00756828
0.00434538
0.0155921
0.00428698
0.00553474
0.0342528
0.0044342
0.00342843
0.00465857
0.0029907
0.00507076
0.00315646
0.0293688
0.00364874
0.00427297
0.00463601
0.00372408
0.00321171
0.00421226
0.0601892
0.00437099
0.00408299
0.00463211
0.00374764
0.00421305
0.00322414
0.00455158
0.00441291
0.00439996
0.00378005
0.00448939
0.00456253
0.0033249
0.0043727
0.00545642
0.00321804
0.0040845
0.00372901
0.00448038
0.00287916
0.00409106
0.00374091
0.0036066
0.00727574
0.00300204
0.0115794
0.00446873
0.00336112
0.00449031
0.00427895
0.00677864
0.00516875
0.00341632
0.00328062
0.00428545
0.00422893
0.00413012
0.00412811
0.00458418
0.0572333
0.006221
0.036217
0.00417128
0.00397757
0.00577533
0.00349592
0.00452405
0.00347852
0.00379744
0.00288046
0.00452358
0.00333406
0.0231316
0.00454831
0.00907898
0.00350742
0.00456685
0.00531662
0.00438783
0.00427385
0.00422437
0.00336668
0.00434435
0.0031988
0.00456915
0.00299907
0.00429497
0.00292535
0.00369186
0.0248808
0.00431086
0.00428497
0.0229109
0.0148408
0.00446453
0.00319715
0.00385414
0.004694
0.00515643
0.00388981
0.00461055
0.00416253
0.00292308
0.0049825
0.00427831
0.00436539
0.00441769
0.00326057
0.003742
0.00468989
0.00448424
0.0045588
0.0316173
0.0355155
0.00360027
0.00457063
0.0033725
0.00474524
0.00455479
0.00457838
0.00462548
0.00448179
0.00431096
0.00316542
0.00498735
0.0104655
0.00308593
0.00459943
0.0044267
0.00449617
0.00376895
0.0331589
0.00459501
0.00412997
0.00352489
0.0167483
0.0208437
0.00467782
0.00391976
0.00358827
0.00443069
0.00446643
0.012182
0.00421818
0.00455943
0.0044634
0.0092909
0.00400197
0.0039048
0.00455545
0.00409621
0.00547543
0.00366094
0.00455813
0.00309864
0.00534998
0.00448087
0.00391064
0.00463929
0.00427202
0.00206702
0.00296969
0.00438474
0.0046002
0.00421486
0.00444879
0.00432439
0.00458573
0.00264408
0.00344531
0.00874573
0.0135739
0.00648091
0.00454187
0.052165
0.00466866
0.00428149
0.00459568
0.00448649
0.00441646
0.00442618
0.00299221
0.00577849
0.00364236
0.00441307
0.00291341
0.0044213
0.00468866
0.00431352
0.00438134
0.00451027
0.00449523
0.00455744
0.00427899
0.0540707
0.00438288
0.00425631
0.00508382
0.0178956
0.00425302
0.00450529
0.00487121
0.0475732
0.00424504
0.00449041
0.00293619
0.00315747
0.00464994
0.00454072
0.00428672
0.00400676
0.00864126
0.00459429
0.0124718
0.00292438
0.0258777
0.00296821
0.00457586
0.00324757
0.00564083
0.00444625
0.00451874
0.00429355
0.00460614
0.00397814
0.010327
0.00417947
0.00567505
0.0476437
0.00474968
0.00394294
0.00577814
0.00466316
0.00455562
0.00314304
0.00281513
0.00328433
0.00440843
0.0298043
0.00428797
0.00333273
0.00430769
0.00313796
0.00312946
0.00324537
0.00354567
0.0042032
0.00452865
0.0467887
0.00402674
0.0640475
0.00441583
0.00301266
0.00435797
0.00421003
0.0551306
0.00438028
0.0046031
0.00352631
0.00989337
0.00772095
0.00345907
0.00330047
0.00331635
0.00413155
0.0339424
0.00452052
0.00442669
0.0648629
0.00439679
0.00547647
0.00449077
0.0154898
0.00298232
0.00679874
0.00460326
0.0034264
0.00464698
0.00441662
0.0042332
0.00245626
0.0042499
0.00445746
0.00428102
0.00456918
0.00473849
0.00468803
0.00441147
0.00418211
0.00957458
0.00359988
0.00404693
0.00460932
0.00895636
0.0029752
0.00459624
0.00467787
0.00408795
0.00632372
0.0502338
0.00397537
0.00342036
0.00410172
0.00434123
0.00314959
0.00451859
0.00423701
0.0102865
0.00455355
0.0556955
0.0092903
0.0238785
0.00455299
0.00455198
0.00381385
0.0432175
0.00335668
0.0031366
0.00467571
0.00307361
0.0194427
0.00455993
0.00402861
0.00306622
0.00393836
0.0323258
0.00368398
0.00445684
0.00432135
0.00421377
0.00426683
0.00689182
0.00286638
0.0130011
0.0522162
0.00459605
0.00309516
0.00387326
0.00513578
0.0153532
0.00424343
0.0043866
0.00406548
0.00312878
0.0045451
0.00469489
0.00467908
0.00348631
0.00415197
0.00460768
0.00371763
0.00652096
0.00320577
0.00452141
0.00816375
0.00408421
0.00407881
0.00399748
0.00455457
0.00431228
0.00447389
0.0129294
0.00429926
0.00427302
0.00400397
0.00340488
0.00450515
0.00417808
0.0045042
0.00437497
0.00339881
0.0115545
0.00726658
0.0559914
0.0109555
0.0337419
0.00419035
0.00446506
0.00248744
0.00462754
0.0032498
0.00554464
0.00429055
0.00560109
0.00388818
0.029325
0.00421718
0.00319856
0.00455002
0.0492989
0.00469623
0.0338787
0.00408309
0.00471743
0.00491874
0.0105878
0.00422949
0.00551861
0.00538391
0.00442883
0.020455
0.00558611
0.0243378
0.00354347
0.00236852
0.0152865
0.00470385
0.00461066
0.00372721
0.00430966
0.00344398
0.00331563
0.00319712
0.00390519
0.00313512
0.0550191
0.00437173
0.00426337
0.00439536
0.00456904
0.00288582
0.00340621
0.00423445
0.0033212
0.0440729
0.00430738
0.0575872
0.00720632
0.0044839
0.00618997
0.00380746
0.0031864
0.00317974
0.026099
0.00442348
0.00452811
0.0519826
0.00436892
0.00458572
0.00355785
0.00454346
0.00428941
0.0313427
0.00460997
0.0369921
0.00397903
0.00377399
0.00428488
0.00430396
0.00569109
0.00323784
0.0141124
0.00444739
0.00287812
0.00511145
0.00304475
0.00323056
0.00527963
0.00558253
0.00423961
0.00805829
0.0152353
0.00406428
0.00431386
0.00349301
0.00381129
0.00470338
0.00345768
0.0504179
0.00425995
0.00468959
0.00450858
0.00408694
0.00282091
0.00320537
0.003281
0.0691689
0.00484193
0.00587769
0.00555624
0.00457266
0.00397653
0.00424664
0.00423915
0.0976672
0.00453591
0.0202646
0.0237011
0.00456046
0.00449435
0.00464828
0.0313518
0.0331867
0.0211675
0.00335215
0.00456393
0.00426363
0.00325765
0.0416446
0.00658007
0.0030409
0.00433592
0.00616226
0.00509167
0.00537689
0.00417995
0.0137392
0.0277639
0.0040528
0.00383401
0.00429547
0.00438976
0.0303518
0.00318952
0.00372316
0.00460051
0.00464739
0.00417503
0.0482435
0.00315633
0.00294503
0.007802
0.00529183
0.00437783
0.0130463
0.00534203
0.00461974
0.00305077
0.00350298
0.00411997
0.0562788
0.00453546
0.00442187
0.00424325
0.00475183
0.0031035
0.00435567
0.00507275
0.00461292
0.00455718
0.00468819
0.00330188
0.00443088
0.00738507
0.00420909
0.0045585
0.049989
0.00438506
0.00354494
0.00362611
0.00459039
0.00352126
0.00535231
0.00451938
0.00456187
0.00448028
0.00301503
0.00449679
0.00426902
0.00444245
0.00347241
0.00621832
0.00311989
0.0067717
0.00429541
0.00544825
0.00418549
0.00467569
0.00424958
0.00458642
0.00315003
0.00413961
0.00325922
0.0041293
0.00419308
0.00449957
0.00447283
0.031998
0.00546807
0.0162521
0.00468828
0.00298783
0.0633914
0.00323169
0.00293594
0.00439477
0.00548776
0.00421025
0.00611217
0.00319239
0.00529057
0.00380047
0.00301609
0.00450414
0.0679896
0.00309216
0.00414021
0.00410084
0.00401592
0.00361238
0.00278491
0.00431893
0.00306819
0.0551851
0.0468573
0.00448587
0.00425899
0.00402932
0.0118156
0.00401639
0.00454795
0.00412419
0.0046292
0.00441842
0.00498733
0.00440194