/*--------------------------------*- C++ -*----------------------------------*\
| =========                 |                                                 |
| \\      /  F ield         | OpenFOAM: The Open Source CFD Toolbox           |
|  \\    /   O peration     | Version:  3.0.1                                 |
|   \\  /    A nd           | Web:      www.OpenFOAM.org                      |
|    \\/     M anipulation  |                                                 |
\*---------------------------------------------------------------------------*/
FoamFile
{
    version     2.0;
    format      ascii;
    class       volScalarField;
    location    "0.938759";
    object      nut;
}
// * * * * * * * * * * * * * * * * * * * * * * * * * * * * * * * * * * * * * //

dimensions      [0 2 -1 0 0 0 0];

internalField   nonuniform List<scalar> 
21246
(
3.56347e-05
0.000124265
0.000121706
0.000131153
0.000122857
0.000102103
7.95716e-05
6.4873e-05
5.53912e-05
4.80591e-05
4.14977e-05
2.97262e-05
0.000102365
8.78139e-05
0.000120014
0.000130318
0.000109738
8.21269e-05
6.36328e-05
5.24077e-05
4.42447e-05
3.73645e-05
2.90874e-05
8.34588e-05
8.00813e-05
9.50725e-05
0.000122012
0.000117904
8.7497e-05
6.46994e-05
5.13382e-05
4.22291e-05
3.497e-05
3.02306e-05
7.2525e-05
7.71363e-05
8.61236e-05
0.000108935
0.000124055
9.4173e-05
6.73935e-05
5.17705e-05
4.17468e-05
3.43504e-05
3.1396e-05
6.78845e-05
7.5275e-05
8.10904e-05
0.00010034
0.000124954
0.000101242
7.12723e-05
5.33601e-05
4.23949e-05
3.49024e-05
3.19042e-05
6.65009e-05
7.39793e-05
7.73547e-05
9.24019e-05
0.00011809
0.000107487
7.61334e-05
5.58737e-05
4.38527e-05
3.60704e-05
3.1875e-05
6.72033e-05
7.35168e-05
7.48185e-05
8.53977e-05
0.000107099
0.000108562
8.20331e-05
5.91843e-05
4.59403e-05
3.76802e-05
3.14693e-05
6.97971e-05
7.42682e-05
7.36531e-05
8.01874e-05
9.65427e-05
0.000104357
8.69203e-05
6.36812e-05
4.87358e-05
3.97095e-05
3.06569e-05
7.34557e-05
7.63001e-05
7.36529e-05
7.65007e-05
8.76172e-05
9.69511e-05
8.89221e-05
6.85695e-05
5.22573e-05
4.22552e-05
2.94894e-05
7.76405e-05
7.95995e-05
7.47192e-05
7.39732e-05
8.02069e-05
8.80599e-05
8.69426e-05
7.28083e-05
5.63888e-05
4.52854e-05
2.82037e-05
8.26978e-05
8.44226e-05
7.71101e-05
7.28629e-05
7.47962e-05
7.9816e-05
8.17632e-05
7.48847e-05
6.0776e-05
4.88185e-05
2.69823e-05
8.93011e-05
9.11778e-05
8.11078e-05
7.33662e-05
7.15707e-05
7.35391e-05
7.55839e-05
7.39928e-05
6.45766e-05
5.28085e-05
2.60016e-05
9.72127e-05
0.000100086
8.69775e-05
7.54758e-05
7.01394e-05
6.91416e-05
6.98007e-05
7.05474e-05
6.65927e-05
5.69338e-05
2.53951e-05
0.000105772
0.000111237
9.51742e-05
7.94475e-05
7.03847e-05
6.64274e-05
6.5081e-05
6.57603e-05
6.58592e-05
6.0353e-05
2.52139e-05
0.000116192
0.000125181
0.000106265
8.57155e-05
7.25379e-05
6.55351e-05
6.19771e-05
6.12303e-05
6.26943e-05
6.18172e-05
2.54249e-05
0.00012816
0.000142037
0.000121013
9.49793e-05
7.69412e-05
6.6509e-05
6.05517e-05
5.78239e-05
5.84575e-05
6.03986e-05
2.57287e-05
0.00013978
0.000161071
0.000140214
0.000108421
8.4423e-05
6.9752e-05
6.0974e-05
5.59825e-05
5.46095e-05
5.65997e-05
2.53793e-05
0.000150214
0.000180956
0.00016407
0.000127419
9.63173e-05
7.62041e-05
6.38309e-05
5.61976e-05
5.23243e-05
5.23271e-05
2.42588e-05
0.000157406
0.000199065
0.000191192
0.000153218
0.000114693
8.76391e-05
7.03712e-05
5.93025e-05
5.25082e-05
4.95736e-05
2.23222e-05
0.000159196
0.000211836
0.000217505
0.000185478
0.000142161
0.000107227
8.32653e-05
6.72544e-05
5.6619e-05
5.0141e-05
1.95898e-05
0.000151578
0.000215752
0.000237592
0.000220891
0.000180846
0.000140007
0.000107855
8.45733e-05
6.81459e-05
5.68542e-05
1.70659e-05
0.0001383
0.00020979
0.000247283
0.000250331
0.000225843
0.000188382
0.000150936
0.000119361
9.48066e-05
7.63469e-05
1.29629e-05
0.000106804
0.000154157
0.000195108
0.000217395
0.000224381
0.000215369
0.000193855
0.000166811
0.000140238
0.000116353
1.03091e-05
3.99688e-05
5.58724e-05
7.76499e-05
0.000101058
0.000124832
0.00014571
0.000157173
0.000158991
0.000153574
0.000142777
2.98769e-05
0.000114057
0.000119448
0.000122397
0.000118211
0.000101299
8.25561e-05
6.96158e-05
6.09812e-05
5.42989e-05
4.83545e-05
2.00601e-05
9.48828e-05
0.000121096
0.000132122
0.00012864
0.000112667
9.30956e-05
7.86952e-05
6.92167e-05
6.21475e-05
5.60026e-05
2.00803e-05
8.37733e-05
0.000118869
0.000151553
0.000150389
0.000133309
0.000110261
9.23943e-05
8.12532e-05
7.36548e-05
6.75472e-05
2.2288e-05
7.7352e-05
0.000114869
0.000163328
0.000173527
0.000162534
0.000138954
0.000116055
0.000100418
9.04893e-05
8.34895e-05
2.51062e-05
7.19811e-05
0.000113865
0.000166848
0.000180673
0.000173079
0.0001507
0.000128007
0.000112107
0.000101888
9.46688e-05
2.78305e-05
6.79556e-05
0.000113305
0.00016603
0.000182581
0.00017918
0.000159092
0.000137327
0.000121832
0.000112117
0.000105696
3.03498e-05
6.50485e-05
0.00011262
0.000163616
0.000182219
0.000182633
0.000165152
0.000145175
0.000130808
0.000122255
0.00011734
3.27018e-05
6.29659e-05
0.000111809
0.000160979
0.000181394
0.000185036
0.000170105
0.000152139
0.000139201
0.000132175
0.000129148
3.47173e-05
6.1411e-05
0.000110894
0.000158672
0.00018099
0.000187127
0.000174662
0.000158467
0.000146687
0.000140687
0.000138446
3.63866e-05
6.00954e-05
0.000110012
0.000156802
0.000181237
0.000189396
0.000179221
0.000164433
0.000153483
0.000148286
0.000147033
3.76876e-05
5.88135e-05
0.000108953
0.000155444
0.000181943
0.00019212
0.000184038
0.000170272
0.000159787
0.000155168
0.000154931
3.87161e-05
5.75175e-05
0.000107709
0.000154396
0.000182937
0.000195277
0.000189199
0.000176146
0.000165731
0.000161348
0.000161838
3.94008e-05
5.60593e-05
0.000106167
0.00015343
0.000184102
0.000198859
0.000194832
0.000182259
0.000171465
0.000166837
0.000167724
3.96639e-05
5.30282e-05
0.000102268
0.000150495
0.000183689
0.000201632
0.000200567
0.000188813
0.000177276
0.000171801
0.000172341
3.94267e-05
4.9478e-05
9.57298e-05
0.000143926
0.000178786
0.00019974
0.000203116
0.000194447
0.000183304
0.000176885
0.000176425
3.86579e-05
4.55123e-05
8.67221e-05
0.000133509
0.000169259
0.000192534
0.000200873
0.000197412
0.000188806
0.000182189
0.000180456
3.73477e-05
4.13252e-05
7.57702e-05
0.000119181
0.000154911
0.000179656
0.000192355
0.000195014
0.0001915
0.000186845
0.000184635
3.54177e-05
3.71793e-05
6.41043e-05
0.000101844
0.00013603
0.000161276
0.000176945
0.000184765
0.000187445
0.000187606
0.000187518
3.28045e-05
3.31224e-05
5.27358e-05
8.29913e-05
0.000113482
0.000137904
0.000154946
0.000165847
0.000173117
0.000178753
0.00018369
2.94787e-05
2.90595e-05
4.23022e-05
6.43565e-05
8.89726e-05
0.000110703
0.000127429
0.000139401
0.000148467
0.000156705
0.000165446
2.54053e-05
2.482e-05
3.30675e-05
4.74881e-05
6.49655e-05
8.1997e-05
9.64811e-05
0.000107832
0.000116757
0.000124628
0.000132882
2.05738e-05
2.01929e-05
2.49328e-05
3.32351e-05
4.38137e-05
5.50028e-05
6.54785e-05
7.45207e-05
8.20574e-05
8.85149e-05
9.46572e-05
1.50183e-05
1.46508e-05
1.70452e-05
2.10427e-05
2.62013e-05
3.19577e-05
3.7777e-05
4.32798e-05
4.82656e-05
5.27074e-05
5.67526e-05
9.07155e-06
9.59897e-06
1.16141e-05
1.412e-05
1.70071e-05
2.00955e-05
2.33355e-05
2.80514e-05
3.44659e-05
4.27737e-05
5.28947e-05
2.99002e-05
0.000151068
0.000246881
0.000335247
0.00037806
0.000377275
0.000382469
0.000445082
0.000549457
0.000637732
0.000640468
2.17658e-05
9.15189e-05
0.00017039
0.000252851
0.000312373
0.000331821
0.000339361
0.000399245
0.000498711
0.000570466
0.000564731
1.73171e-05
6.88801e-05
0.000132232
0.000202004
0.000261735
0.000292713
0.000304324
0.000339657
0.000431103
0.000513671
0.000503296
1.44432e-05
6.38859e-05
0.000113824
0.000171899
0.000226584
0.000261926
0.000278745
0.0003017
0.000362766
0.000447485
0.000458927
1.32631e-05
6.49064e-05
0.000106611
0.000155095
0.000203199
0.000238698
0.000259269
0.000278081
0.000317476
0.00038345
0.000412978
1.34941e-05
6.42485e-05
0.000103015
0.000145715
0.000187802
0.000221648
0.00024435
0.000262468
0.00029048
0.000338121
0.000370962
1.35007e-05
6.36967e-05
0.000100642
0.000139459
0.000177811
0.000209697
0.000233566
0.000252493
0.000275796
0.000311816
0.000340777
1.3515e-05
6.26728e-05
9.94062e-05
0.000135233
0.000172015
0.0002025
0.00022738
0.000248134
0.000270635
0.000300232
0.000323107
1.34457e-05
6.10853e-05
9.90589e-05
0.000134067
0.000170126
0.000200504
0.000226964
0.000250305
0.000273556
0.000298723
0.000315157
1.32773e-05
5.93025e-05
9.98598e-05
0.000136262
0.000172779
0.000204402
0.000233234
0.000259061
0.00028223
0.000302426
0.000312731
1.31128e-05
5.77815e-05
0.000102008
0.000141226
0.000179419
0.00021368
0.000244992
0.000271786
0.000292555
0.000306962
0.000312248
1.30099e-05
5.67455e-05
0.00010451
0.000146982
0.000188076
0.000225275
0.000258038
0.000283687
0.000300599
0.000310245
0.000313142
1.28859e-05
5.56113e-05
0.000106124
0.000151598
0.000195516
0.000234901
0.000267881
0.00029158
0.00030543
0.000312653
0.000315472
1.26983e-05
5.41591e-05
0.000106354
0.000153994
0.000199947
0.000240661
0.000273564
0.000296152
0.00030874
0.000315409
0.000319078
1.24101e-05
5.31764e-05
0.000106169
0.000155042
0.000202262
0.000243924
0.000277219
0.000299943
0.000312618
0.000319557
0.000324275
1.20024e-05
5.23489e-05
0.000105588
0.000155141
0.000203325
0.000246089
0.000280516
0.000304372
0.000317812
0.000324935
0.000329849
1.14792e-05
5.10851e-05
0.000104005
0.000153933
0.000203132
0.000247486
0.000283867
0.000309616
0.000324076
0.000330848
0.000334846
1.07751e-05
4.94649e-05
0.000101449
0.000151355
0.000201676
0.000248205
0.000287295
0.000315448
0.000330829
0.000336351
0.000337846
9.88167e-06
4.72875e-05
9.76462e-05
0.000147247
0.000198957
0.000248062
0.000290138
0.000320649
0.000336346
0.000339195
0.000335677
8.79357e-06
4.44586e-05
9.28053e-05
0.000142196
0.000194447
0.000243298
0.000285936
0.000318468
0.000335014
0.000335286
0.000325996
7.46098e-06
4.21168e-05
9.22307e-05
0.000135235
0.000167044
0.000189357
0.000227502
0.000275561
0.000305252
0.00031229
0.000303131
7.56005e-06
4.58921e-05
6.14494e-05
5.93267e-05
7.98402e-05
0.000106084
0.000132906
0.000162586
0.000204946
0.000239854
0.000251321
5.90546e-06
1.71284e-05
3.30191e-05
5.90809e-05
9.30368e-05
0.000127981
0.000153561
0.000160467
0.000152005
0.000153461
0.000169207
9.4118e-06
2.54498e-05
5.61377e-05
0.000101536
0.000153834
0.000201472
0.000232395
0.000239095
0.000215681
0.00017102
0.00014142
2.81906e-05
0.000220365
0.000345508
0.000408577
0.000416904
0.000397135
0.000400098
0.000473143
0.000603014
0.000716925
0.000716601
1.61728e-05
0.000150628
0.000298516
0.000394497
0.000432204
0.000424265
0.000418473
0.000487746
0.000645663
0.000813564
0.000868442
1.20079e-05
8.81977e-05
0.000223929
0.000345715
0.000423141
0.000442522
0.000429205
0.000476404
0.000647934
0.000873036
0.00100899
1.2441e-05
6.04268e-05
0.000165601
0.000291407
0.000395751
0.000448124
0.000435664
0.000437606
0.000594897
0.000862282
0.00108378
1.42193e-05
6.28217e-05
0.00015115
0.000261939
0.000373383
0.00045364
0.000462838
0.000397959
0.000432976
0.000697633
0.00104365
1.61484e-05
7.11178e-05
0.000159315
0.000262536
0.000370559
0.000462951
0.000503205
0.000456789
0.000381851
0.000502284
0.000876103
1.80875e-05
8.15972e-05
0.000173897
0.000274214
0.000377773
0.000474748
0.000536988
0.000520489
0.000425135
0.000394298
0.000669367
2.00447e-05
9.28857e-05
0.000190842
0.000289765
0.0003878
0.000483326
0.000559057
0.000572937
0.000490562
0.000387453
0.000480487
2.18703e-05
0.000105006
0.00020915
0.000306997
0.000398244
0.000486468
0.000566082
0.00060597
0.000549871
0.000426694
0.000389083
2.3505e-05
0.000117739
0.000227664
0.00032423
0.000408107
0.00048473
0.00055869
0.000614274
0.000590495
0.000474394
0.000374896
2.49146e-05
0.000129655
0.000244877
0.000340291
0.000416835
0.000479993
0.000541701
0.000602585
0.000609947
0.000514395
0.00038856
2.61782e-05
0.000140375
0.000261696
0.000354111
0.000423385
0.00047362
0.000520661
0.000578582
0.000611481
0.000541156
0.000409797
2.72525e-05
0.000149894
0.000274953
0.000365108
0.000427029
0.000466085
0.00049935
0.000544422
0.000590645
0.000556537
0.000427352
2.80559e-05
0.000158832
0.000286688
0.000373704
0.000427919
0.000456663
0.000478666
0.000511041
0.000547643
0.000545665
0.000442789
2.85158e-05
0.000166754
0.000296879
0.000380404
0.000426729
0.000445314
0.000456304
0.00047649
0.000501582
0.000509253
0.000454276
2.86317e-05
0.000174241
0.000306578
0.000386557
0.000424915
0.000433482
0.000433669
0.000442916
0.000459086
0.000470268
0.000449383
2.83917e-05
0.000181582
0.000316862
0.000394
0.00042479
0.000423655
0.000412858
0.000410947
0.000420355
0.000430048
0.000422868
2.77007e-05
0.000189119
0.000329329
0.000405906
0.000430858
0.000420977
0.000398672
0.00038626
0.000386281
0.000388475
0.000381441
2.64635e-05
0.000197109
0.000344804
0.00042354
0.000443608
0.00042651
0.000397819
0.000376652
0.000367027
0.000362404
0.000354904
2.43227e-05
0.000199524
0.000347976
0.000429623
0.000453637
0.000436558
0.000402655
0.000373702
0.000357396
0.000350089
0.000346105
2.05983e-05
0.000186113
0.000331853
0.000422568
0.000457125
0.000444483
0.000406847
0.000369256
0.000343694
0.000328539
0.000318742
1.64937e-05
0.00015807
0.000295108
0.000395551
0.000442877
0.000440447
0.00040613
0.00036414
0.00032948
0.000301565
0.000266679
1.20129e-05
0.000110702
0.000243204
0.00034775
0.000405941
0.000417592
0.000395581
0.000357669
0.000316136
0.000274627
0.000218578
8.07211e-06
9.67465e-05
0.000191516
0.000285533
0.000339443
0.000362345
0.000356372
0.000329683
0.000291906
0.000241093
0.00018251
5.88682e-05
0.000310085
0.000377008
0.000408548
0.000436907
0.000463278
0.000482107
0.000487445
0.000469253
0.000420326
0.000358276
3.76134e-05
0.000251844
0.000359259
0.00040727
0.000436881
0.000460193
0.000475425
0.000478824
0.000462507
0.000417425
0.000355666
3.15154e-05
0.000210851
0.000357224
0.000437695
0.00046916
0.000484917
0.000494385
0.000492751
0.000473144
0.000429278
0.000366578
3.084e-05
0.000178342
0.000318927
0.000421124
0.000470408
0.000492518
0.000502047
0.000500597
0.000483587
0.00044183
0.000377554
3.17217e-05
0.00016242
0.000293396
0.000395066
0.000451037
0.000483715
0.000501736
0.000505789
0.00049062
0.000447911
0.000380764
3.27569e-05
0.000149801
0.000272703
0.000369562
0.000426721
0.00046581
0.000492521
0.000504562
0.000494411
0.000454512
0.000389592
3.38977e-05
0.000139525
0.000254848
0.000345144
0.000401739
0.000444327
0.000477748
0.000497643
0.000493788
0.000457343
0.000393198
3.51444e-05
0.000131403
0.000239828
0.000323846
0.000378786
0.000422922
0.000460956
0.000487311
0.000489754
0.000458831
0.000401298
3.62752e-05
0.000124542
0.000227056
0.000305806
0.000358811
0.00040346
0.000444609
0.000476212
0.000484794
0.000459495
0.000405158
3.71716e-05
0.000118045
0.000215611
0.000290348
0.000341711
0.000386516
0.000429907
0.000465774
0.000479662
0.000458575
0.000404755
3.79603e-05
0.000111929
0.000205217
0.000276885
0.000326986
0.000371879
0.000417033
0.000456444
0.00047469
0.000456891
0.000406162
3.85996e-05
0.000106517
0.000195973
0.000265102
0.000314197
0.000359202
0.000405877
0.000448417
0.00047047
0.000455364
0.000405614
3.89723e-05
0.00010137
0.000187479
0.000254673
0.000303109
0.000348345
0.000396447
0.000441927
0.000467544
0.000454816
0.000406395
3.91418e-05
9.60278e-05
0.000179187
0.000245193
0.000293433
0.000339106
0.000388644
0.000437039
0.000466177
0.000455621
0.000408905
3.89845e-05
9.08658e-05
0.00017119
0.000236407
0.000284779
0.000331077
0.000382094
0.000433524
0.000466504
0.000458286
0.000412202
3.84658e-05
8.50639e-05
0.000162521
0.000227545
0.000276623
0.000323755
0.000376224
0.00043083
0.000468346
0.000463064
0.000417705
3.76014e-05
7.72346e-05
0.000150143
0.000214609
0.000263482
0.000309666
0.000361218
0.00041767
0.000461459
0.000463764
0.000423505
3.6205e-05
6.8821e-05
0.000135081
0.000197915
0.000245639
0.000288421
0.000334499
0.000386941
0.000433737
0.000447729
0.000422696
3.42495e-05
5.98711e-05
0.000117394
0.000176918
0.000222886
0.000261007
0.000298354
0.000340417
0.000382719
0.000406494
0.000403766
3.16876e-05
5.05844e-05
9.7554e-05
0.000151326
0.000194823
0.00022838
0.000256499
0.000284796
0.000314364
0.000337557
0.000351709
2.84389e-05
4.12802e-05
7.68126e-05
0.000121967
0.000161554
0.000191281
0.000212327
0.000228624
0.000243112
0.000255225
0.000267814
2.44427e-05
3.24606e-05
5.7227e-05
9.15497e-05
0.000124785
0.000150684
0.000167579
0.000177017
0.000181379
0.000182266
0.00018299
1.95662e-05
2.40126e-05
3.97136e-05
6.29519e-05
8.75783e-05
0.000108371
0.000122591
0.000129854
0.000131119
0.000127763
0.000121972
1.37882e-05
2.23543e-05
3.3429e-05
4.65475e-05
6.02249e-05
7.23402e-05
8.1393e-05
8.66551e-05
8.79792e-05
8.5675e-05
8.06059e-05
5.53631e-05
0.000287088
0.000329648
0.000430917
0.000477658
0.0005071
0.0005229
0.000528285
0.000504128
0.000446321
0.000376916
4.1117e-05
0.000178086
0.000204759
0.000264633
0.000358248
0.00049444
0.000549363
0.000566627
0.000545665
0.000483172
0.000401564
3.81425e-05
0.000130002
0.000172564
0.000217078
0.00028893
0.000434915
0.000565945
0.000604528
0.000589974
0.000528068
0.000438876
3.77289e-05
0.000112196
0.000156797
0.000195287
0.000258583
0.00039567
0.000578014
0.000643658
0.000639149
0.00058217
0.000490705
3.72541e-05
0.000110824
0.000149497
0.000182873
0.000241208
0.000375297
0.000584962
0.000679076
0.000689133
0.000637641
0.000538982
3.64456e-05
0.000117993
0.000148095
0.000175642
0.000228991
0.000359477
0.000577935
0.000706213
0.000734866
0.000690603
0.000583841
3.6088e-05
0.000128568
0.000150872
0.000171931
0.000219505
0.000343978
0.000559177
0.000722382
0.000773467
0.000739216
0.000629143
3.66318e-05
0.000141729
0.000157148
0.000171145
0.000212472
0.000329543
0.000535142
0.000715541
0.000800323
0.000780488
0.000660063
3.77679e-05
0.000156301
0.000166189
0.000172641
0.000207212
0.000315652
0.000507886
0.000692444
0.000796431
0.000800713
0.00068386
3.90985e-05
0.000171146
0.000177345
0.000176013
0.000203256
0.00030179
0.00047829
0.000658203
0.000769412
0.000785204
0.000680192
4.01234e-05
0.000183994
0.000189856
0.000180952
0.000200066
0.000287065
0.000445743
0.000615113
0.000725856
0.000743864
0.000650958
4.09157e-05
0.000195553
0.000203372
0.000187396
0.000197972
0.000272549
0.000412398
0.000567213
0.000672299
0.000687716
0.000602043
4.14339e-05
0.0002064
0.000217214
0.000195197
0.000197002
0.000258374
0.000378682
0.000516375
0.000612593
0.00062457
0.000543398
4.13331e-05
0.00021361
0.000230146
0.000204333
0.000197221
0.000244576
0.000344833
0.000463812
0.000549426
0.00055911
0.000483959
4.06789e-05
0.000218132
0.000241667
0.000214607
0.000199071
0.000232274
0.000312621
0.00041205
0.000485917
0.000494628
0.000428681
3.94497e-05
0.000219984
0.00025104
0.000225561
0.000202695
0.000222014
0.000282958
0.000362596
0.000424015
0.000432739
0.000378339
3.75492e-05
0.000217909
0.000257218
0.000236452
0.00020817
0.000214439
0.000256877
0.000316989
0.000365342
0.000374006
0.000332339
3.49837e-05
0.00021216
0.000259276
0.000246049
0.000215299
0.000210323
0.000235851
0.000277236
0.000311917
0.000319103
0.000289179
3.1837e-05
0.000202401
0.000256366
0.000252629
0.000223383
0.000210295
0.000221306
0.000245332
0.000265964
0.000269329
0.000247909
2.86676e-05
0.00019218
0.000248736
0.000254903
0.000231807
0.000215281
0.000215059
0.000223622
0.000230254
0.000227176
0.00020965
2.4743e-05
0.000166048
0.000230258
0.000249032
0.00023744
0.000223841
0.000216652
0.000212411
0.000206045
0.000194885
0.000176499
2.17486e-05
0.000142443
0.000197778
0.000220463
0.000219606
0.00020992
0.000200406
0.00018995
0.000172299
0.00015004
0.00012405
1.48137e-05
0.000100636
0.000119413
0.000109463
9.71819e-05
8.49712e-05
7.34656e-05
6.22877e-05
5.33793e-05
4.6016e-05
3.96682e-05
9.73291e-06
1.09547e-05
1.17007e-05
1.3119e-05
1.5202e-05
1.77579e-05
2.05568e-05
2.32928e-05
2.5647e-05
2.73218e-05
2.80954e-05
1.5772e-05
1.49913e-05
1.36416e-05
1.11096e-05
6.85667e-06
5.88145e-06
6.44409e-06
6.96806e-06
9.53899e-06
7.83257e-05
5.01958e-05
3.21011e-05
2.2525e-05
2.02781e-05
2.2423e-05
2.82895e-05
2.27245e-05
2.46844e-05
0.000160839
0.000102479
6.21475e-05
3.94279e-05
3.04373e-05
3.26626e-05
4.08746e-05
3.26228e-05
4.15969e-05
0.000237882
0.000150824
8.80695e-05
5.51273e-05
4.2041e-05
4.58597e-05
5.3798e-05
4.25203e-05
5.61883e-05
1.62856e-05
1.64077e-05
1.63244e-05
1.61001e-05
1.59859e-05
1.56222e-05
1.4949e-05
1.41174e-05
1.27391e-05
0.000107276
0.000128787
0.000143618
0.000146268
0.000126946
0.000105962
8.4524e-05
5.57874e-05
3.48869e-05
0.000212996
0.000253933
0.000277603
0.000273552
0.000239269
0.000197413
0.000157291
0.00010766
6.67854e-05
0.000312203
0.000363794
0.000389053
0.000378796
0.000337263
0.000279623
0.000222697
0.00015043
9.21526e-05
0.000195739
0.000229699
0.000229752
7.36243e-05
0.000422711
0.000229387
9.04109e-05
0.000229441
0.000229414
0.000233646
0.000418552
0.000229484
0.000119437
0.000187525
0.000123877
0.000228712
0.000159559
7.37041e-05
0.000228703
0.00022861
0.000229729
2.87393e-05
0.000229971
0.000257902
0.000229356
0.000191213
0.000126943
8.98567e-05
0.000401134
0.000556156
0.000141531
0.000235884
0.000114453
0.000229426
0.00024095
0.000229657
0.000244561
0.000229348
9.65168e-05
0.000229415
1.92081e-05
0.000229462
0.000105016
0.000229945
0.000445517
5.78424e-05
5.14316e-05
0.000110042
0.000239915
0.000229172
0.000554106
0.000229404
0.000293975
0.00010488
0.000229138
0.000229513
2.85598e-05
0.000229417
0.000389121
9.3333e-05
2.50296e-05
0.000243866
0.000485424
0.00016184
2.64817e-05
0.00022858
0.000658739
0.000230117
0.000229699
0.000233066
0.00018982
0.000233111
6.05544e-05
0.000242572
0.000133306
0.000231616
2.35662e-05
0.00022968
0.000137448
0.000470209
0.000687137
0.000137946
0.000229287
0.000229785
0.000247259
6.12918e-05
0.000362401
0.000182109
4.51089e-05
0.000280344
0.000229483
0.000229409
2.0558e-05
0.000232235
0.000466531
0.000146024
9.68139e-05
0.000236889
4.37469e-05
0.000236077
0.000252841
0.000108492
0.000229903
0.00023661
4.89431e-05
0.000229486
0.000181659
0.000229866
0.000110245
0.00023619
0.000229373
0.000229512
0.000230553
7.01746e-05
7.60264e-05
0.000229035
0.000229396
0.000228841
0.000229301
0.000229117
6.77958e-05
0.000240679
0.000252498
0.000188429
5.19147e-05
0.000207639
0.000913895
0.000176913
0.000140938
0.00011761
0.000229344
9.25572e-05
0.000107808
0.000232029
0.000229759
0.000230104
2.26826e-05
0.000104701
0.000548601
0.00024478
0.000108177
0.000231491
0.000241092
0.000167876
0.000229366
3.87924e-05
0.000106106
0.000229886
0.000235447
0.000229058
0.000228959
0.000229252
4.04044e-05
0.000238897
7.46171e-05
5.89161e-05
6.78766e-05
3.07176e-05
0.000170342
0.000228778
0.000217238
4.82688e-05
0.000232619
0.000229131
0.000675698
0.000116747
5.65974e-05
0.000246046
0.000237927
2.54204e-05
0.000146255
0.000159774
0.000232305
0.000229626
0.000235147
0.000220374
0.000154743
3.93682e-05
0.000440877
0.000199775
0.000229595
2.58431e-05
0.000229945
0.000151706
0.000229285
0.000106857
0.00022926
0.000228788
0.000229643
0.000172799
0.000109214
0.000197996
0.00022853
1.80505e-05
0.000229734
0.000228961
0.000229395
4.38742e-05
0.000114665
0.00023
3.34402e-05
0.000229246
0.000109897
0.00013898
0.000229814
0.000189615
0.000231591
0.00014104
0.00022928
0.000228697
0.000327291
0.000229005
0.000175403
0.00023886
0.000229318
0.000138549
0.000229374
5.04971e-05
0.000229125
8.29029e-05
7.43602e-05
6.61521e-05
9.73842e-05
7.52013e-05
0.000191727
0.000229426
0.000114993
0.000116853
0.000110443
0.000310216
3.32127e-05
0.000228506
0.000229034
0.000242206
3.93063e-05
0.00023909
0.000681756
0.000229891
0.000229516
0.000229476
5.08964e-05
0.000194679
0.000236726
1.58984e-05
0.000233695
4.96067e-05
0.000229368
0.00013993
0.000189105
0.000862724
0.00013989
0.000327871
0.000246817
0.000228632
0.000234033
0.00022941
0.000229507
0.000229292
4.60582e-05
0.000229425
0.000123303
0.000186114
0.00022818
0.000229576
0.00022937
5.17722e-05
0.000231962
0.000234239
0.000159546
0.000179766
0.00020612
0.000228982
0.000229252
5.11687e-05
0.000229015
0.000228877
0.000183775
0.000229152
0.000238503
4.83362e-05
0.00023459
0.0002297
0.000687379
0.000644157
0.000233628
0.000228988
0.000308127
0.000229638
0.000238165
0.000104358
0.000229768
9.97516e-05
0.000250234
8.05733e-05
0.000230004
0.00022933
0.000237903
0.000229542
0.000240528
0.000186629
0.000229273
5.95733e-05
0.000242702
0.000553813
0.000229429
0.000236267
0.000229675
0.000282591
2.53445e-05
0.000229108
5.55874e-05
0.000229534
0.000234114
0.000118198
2.75175e-05
0.000231552
0.00017269
6.38227e-05
0.000228728
0.000235491
0.000229156
0.00056633
0.00022893
0.000192539
0.000114454
0.000236921
0.000229216
0.000208025
0.000228214
0.000518197
0.000232577
0.000483452
2.1058e-05
0.000229938
9.86554e-05
0.000248666
6.6414e-05
0.000229629
0.000229222
0.00023878
4.66818e-05
0.000312068
0.000229231
0.000109824
0.000203089
0.00028399
8.54288e-05
0.000229033
0.0002064
0.00095426
5.8764e-05
0.000235965
0.000179841
0.000229421
0.000106151
0.000230036
7.21542e-05
0.000206731
0.000229944
0.000616865
0.000136128
0.000185551
0.000229401
0.000229339
0.000229492
5.08275e-05
0.000168389
5.76174e-05
6.6e-05
0.000253374
0.000229147
0.000115765
0.000229912
0.000192596
0.000112933
0.000229736
0.000152617
0.000240873
0.00022894
0.000228975
0.000557781
0.000228898
3.74082e-05
0.000229397
0.000197872
0.000689384
5.93482e-05
0.000191424
0.000193393
4.7337e-05
0.000229252
4.46399e-05
0.000185502
0.000250046
0.000695721
2.67466e-05
0.000229297
0.000228859
0.000229816
8.25923e-05
4.6197e-05
0.000228983
0.000229989
0.000106371
9.71049e-05
2.46708e-05
0.000104878
0.000144373
0.000229243
0.00056814
0.000240062
0.00022867
0.000115396
0.000116969
4.94561e-05
0.00023396
0.000109238
0.00025
0.000182408
4.99761e-05
0.000310623
0.000150133
8.66587e-05
0.000110763
0.000227344
0.000235418
0.000241067
7.43311e-05
0.000177238
3.53225e-05
0.000229272
3.76981e-05
0.000208044
0.000228595
0.000225255
6.39718e-05
0.000304252
0.000520066
0.000187807
0.000230037
0.00023669
0.000352469
8.02776e-05
5.93106e-05
0.00023344
6.97471e-05
0.000105142
2.4853e-05
0.000228726
4.07285e-05
0.00022925
0.000229732
0.000229334
5.14683e-05
8.9254e-05
6.42784e-05
0.000148181
3.16353e-05
8.1712e-05
0.000229637
0.000228717
0.000935718
0.000182019
0.000234068
0.000238243
4.14218e-05
4.53067e-05
2.96835e-05
2.93526e-05
0.000232318
0.000211913
5.2483e-05
0.000229356
2.52354e-05
0.000235856
0.000229617
0.000229006
8.05632e-05
3.62761e-05
0.000229118
0.000229184
0.000229791
0.000261362
2.5109e-05
0.000229886
4.13064e-05
0.000356651
0.00015656
6.17318e-05
0.000228702
3.73495e-05
0.000228958
0.000235282
0.000229411
0.000123472
0.000150197
0.000228555
0.00019385
0.000169037
0.000233772
0.000223349
0.00020804
0.000229414
0.000229438
0.000223738
6.68395e-05
5.67574e-05
0.000232886
9.28205e-05
0.00022976
0.000455528
0.000104895
4.55203e-05
0.000109881
0.00025266
0.000664764
7.17234e-05
0.000193615
0.000229184
0.000184447
0.000228822
0.000229689
0.000229099
0.000229573
0.000234451
0.000532174
0.000229353
0.000228756
0.000163383
0.000229288
3.89033e-05
0.000242812
0.000239572
0.000176677
4.68915e-05
0.000229994
0.000229279
0.000229887
1.70052e-05
3.62795e-05
0.000229323
0.000229338
0.000188224
0.000229779
7.53373e-05
0.000229724
0.000680956
0.00023719
3.21737e-05
9.12476e-05
0.000131265
6.5503e-05
0.000485158
0.000229482
0.000232072
0.000235056
0.000229718
6.41749e-05
2.48945e-05
0.000223796
0.000126695
0.000131966
0.000108286
0.000229357
0.000229461
0.000229681
0.000104233
0.000723446
8.41632e-05
0.000229447
0.000229316
0.000650584
0.000230521
9.60707e-05
0.00013501
0.000168854
0.000311718
0.000229303
8.86772e-05
0.000229238
7.1797e-05
0.00022938
0.000131562
0.000150281
0.000234828
2.86725e-05
0.000136436
0.000229889
0.000229992
0.000455851
0.00022901
0.000183716
9.96092e-05
7.74508e-05
0.000100391
4.64078e-05
0.000154246
0.000231124
0.000229342
0.000229255
0.000150595
5.28392e-05
0.00011298
0.000228574
0.000229378
9.02219e-05
0.000229546
0.000234098
0.000237243
0.000233452
0.000109478
5.44111e-05
7.76085e-05
0.000159975
0.000233696
0.000240351
0.000228628
0.00015122
0.000231425
0.000229262
0.00019258
0.000416708
0.000228968
0.000228916
2.23403e-05
0.000229944
0.000228688
0.000147681
0.000229728
0.000235143
9.6447e-05
8.44567e-05
0.000158653
0.000179489
0.000159483
7.07667e-05
0.000414918
7.66812e-05
0.000108922
0.000180254
5.27406e-05
7.08573e-05
0.000129189
0.000229762
0.000230488
0.000113556
0.00023031
0.000229468
0.000244716
0.000208122
0.000105159
0.00017867
0.000193131
0.000243816
0.000229191
0.000209498
0.000229518
0.000228859
0.000236737
7.85403e-05
0.000231752
0.00023378
0.000231306
0.000229659
0.000117695
6.22999e-05
0.000297074
0.000231694
0.000230148
0.00018983
0.000121975
0.000234344
0.000169148
0.00023131
0.000155409
0.000552547
0.000229261
6.63253e-05
0.000229914
0.000118799
0.000130693
0.000106216
0.00016037
0.000215435
0.000246498
0.000229821
0.000100158
0.000182204
4.82036e-05
0.000898158
0.000228997
0.000233825
0.000229806
0.000161121
0.000229923
4.33946e-05
0.000229495
0.000229435
0.000228995
0.000126605
6.43197e-05
0.00022955
0.000129671
0.000229214
0.000115494
0.000170477
0.000231273
0.000109206
1.56676e-05
8.02347e-05
0.000236858
0.000197009
0.000138621
0.000121094
0.000127579
8.83487e-05
0.000229225
0.000149174
0.000229345
0.000232461
5.13733e-05
0.000177095
3.64934e-05
0.000187471
0.000230328
0.000235349
0.000229136
5.57068e-05
0.000229623
0.000946352
9.52141e-05
0.000656865
0.000234523
0.000138806
0.000111083
9.89727e-05
0.000241743
0.000122946
3.78579e-05
6.08135e-05
0.000229415
0.000185608
0.000131236
0.000229501
4.13083e-05
0.000119325
0.000242232
0.000152466
0.000229341
0.000234249
0.000235191
0.000130893
0.000235367
0.000191934
0.000229579
0.000118774
0.000234103
8.43232e-05
6.62336e-05
0.000361864
0.00011061
0.000228787
0.000273197
6.39429e-05
0.000229225
0.000190295
0.000188069
7.30328e-05
0.000246355
3.04062e-05
0.000247585
7.65104e-05
9.12441e-05
0.000254002
0.000228846
0.000247238
0.000229171
7.92909e-05
2.2508e-05
0.000230043
0.000229288
0.000252518
0.000357469
0.000538867
0.000154153
0.000229576
0.000146459
0.000253211
0.000229509
0.000229611
0.00022982
0.00022934
0.00023354
0.000159442