/*--------------------------------*- C++ -*----------------------------------*\
| =========                 |                                                 |
| \\      /  F ield         | OpenFOAM: The Open Source CFD Toolbox           |
|  \\    /   O peration     | Version:  3.0.1                                 |
|   \\  /    A nd           | Web:      www.OpenFOAM.org                      |
|    \\/     M anipulation  |                                                 |
\*---------------------------------------------------------------------------*/
FoamFile
{
    version     2.0;
    format      ascii;
    class       surfaceScalarField;
    location    "0.264082";
    object      phi;
}
// * * * * * * * * * * * * * * * * * * * * * * * * * * * * * * * * * * * * * //

dimensions      [0 3 -1 0 0 0 0];

internalField   nonuniform List<scalar> 
32369
(
-1.34394e-05
-9.02013e-06
2.24596e-05
-2.17474e-05
-1.09398e-05
1.92477e-05
-2.8784e-05
-1.32701e-05
2.03067e-05
-3.48778e-05
-1.53145e-05
2.14083e-05
-4.05239e-05
-1.69816e-05
2.26277e-05
-4.61536e-05
-1.83262e-05
2.39558e-05
-5.2234e-05
-1.93471e-05
2.54275e-05
-5.9133e-05
-2.00063e-05
2.69052e-05
-6.71696e-05
-2.02179e-05
2.82546e-05
-7.66744e-05
-1.97983e-05
2.93031e-05
-1.84056e-05
2.97789e-05
-8.80477e-05
-9.12179e-06
1.0166e-07
-1.7011e-05
-3.05065e-06
-2.42432e-05
-6.03787e-06
-3.09312e-05
-8.6265e-06
-3.72698e-05
-1.06431e-05
-4.35869e-05
-1.2009e-05
-5.0297e-05
-1.26371e-05
-5.78389e-05
-1.24644e-05
-6.66541e-05
-1.14027e-05
-7.71953e-05
-9.2571e-06
-5.72633e-06
-8.98746e-05
-4.18281e-06
4.28447e-06
-9.50437e-06
2.27091e-06
-1.5992e-05
4.49752e-07
-2.28743e-05
-1.74423e-06
-2.98912e-05
-3.62611e-06
-3.71178e-05
-4.78238e-06
-4.47997e-05
-4.95524e-06
-5.32644e-05
-3.99967e-06
-6.28884e-05
-1.77861e-06
-7.41092e-05
1.96367e-06
7.67063e-06
-8.75062e-05
-1.60509e-06
5.88956e-06
-4.65579e-06
5.32161e-06
-9.31699e-06
5.11095e-06
-1.52335e-05
4.17226e-06
-2.21049e-05
3.24529e-06
-2.96599e-05
2.77264e-06
-3.78328e-05
3.21762e-06
-4.68067e-05
4.97429e-06
-5.69413e-05
8.35595e-06
-6.86533e-05
1.36757e-05
2.13866e-05
-8.23693e-05
-1.46174e-06
7.3513e-06
-3.73352e-06
7.59339e-06
-6.99123e-06
8.36866e-06
-1.14532e-05
8.63419e-06
-1.71903e-05
8.98238e-06
-2.40869e-05
9.66923e-06
-3.20244e-05
1.11551e-05
-4.09758e-05
1.39257e-05
-5.1074e-05
1.84542e-05
-6.26029e-05
2.52046e-05
3.48175e-05
-7.60338e-05
-1.24393e-06
8.59523e-06
-3.28764e-06
9.6371e-06
-5.92403e-06
1.10051e-05
-9.53242e-06
1.22426e-05
-1.42745e-05
1.37245e-05
-2.02136e-05
1.56083e-05
-2.73427e-05
1.82842e-05
-3.56556e-05
2.22385e-05
-4.52222e-05
2.80208e-05
-5.6238e-05
3.62204e-05
4.76548e-05
-6.90753e-05
-1.12377e-06
9.71899e-06
-2.83004e-06
1.13434e-05
-5.11335e-06
1.32884e-05
-8.17989e-06
1.53091e-05
-1.21798e-05
1.77244e-05
-1.72642e-05
2.06928e-05
-2.35247e-05
2.45448e-05
-3.10203e-05
2.97341e-05
-3.98322e-05
3.68327e-05
-5.00934e-05
4.64816e-05
5.95336e-05
-6.19721e-05
-1.07602e-06
1.0795e-05
-2.62592e-06
1.28933e-05
-4.62655e-06
1.5289e-05
-7.26522e-06
1.79478e-05
-1.06974e-05
2.11565e-05
-1.50746e-05
2.507e-05
-2.05292e-05
2.99993e-05
-2.71708e-05
3.63757e-05
-3.5116e-05
4.47779e-05
-4.44916e-05
5.58572e-05
7.05928e-05
-5.55508e-05
-9.93674e-07
1.17887e-05
-2.39981e-06
1.42994e-05
-4.18596e-06
1.70751e-05
-6.50109e-06
2.02629e-05
-9.4781e-06
2.41335e-05
-1.32712e-05
2.88631e-05
-1.80246e-05
3.47527e-05
-2.38757e-05
4.22269e-05
-3.09497e-05
5.18518e-05
-3.9451e-05
6.43585e-05
8.07493e-05
-4.96074e-05
-7.92962e-07
1.25817e-05
-1.99405e-06
1.55005e-05
-3.55101e-06
1.86321e-05
-5.57628e-06
2.22882e-05
-8.17561e-06
2.67329e-05
-1.14844e-05
3.21719e-05
-1.56484e-05
3.89167e-05
-2.08054e-05
4.73839e-05
-2.71191e-05
5.81656e-05
-3.47651e-05
7.20045e-05
8.99113e-05
-4.39271e-05
-6.22659e-07
1.32043e-05
-1.63669e-06
1.65145e-05
-2.96618e-06
1.99616e-05
-4.7082e-06
2.40302e-05
-6.95576e-06
2.89804e-05
-9.82735e-06
3.50435e-05
-1.34499e-05
4.25393e-05
-1.79669e-05
5.19008e-05
-2.35364e-05
6.37351e-05
-3.03505e-05
7.88186e-05
9.80946e-05
-3.85338e-05
-5.83614e-07
1.37879e-05
-1.4764e-06
1.74073e-05
-2.61818e-06
2.11034e-05
-4.09965e-06
2.55117e-05
-6.0039e-06
3.08847e-05
-8.44131e-06
3.74809e-05
-1.1531e-05
4.56289e-05
-1.54036e-05
5.57735e-05
-2.02165e-05
6.8548e-05
-2.61415e-05
8.47435e-05
0.000105332
-3.33793e-05
-4.80216e-07
1.42681e-05
-1.21254e-06
1.81396e-05
-2.15206e-06
2.20429e-05
-3.3713e-06
2.67309e-05
-4.94403e-06
3.24574e-05
-6.96455e-06
3.95014e-05
-9.5447e-06
4.82091e-05
-1.281e-05
5.90387e-05
-1.68752e-05
7.26133e-05
-2.19162e-05
8.97845e-05
0.000111587
-2.81712e-05
-2.41745e-07
1.45099e-05
-7.31092e-07
1.8629e-05
-1.4203e-06
2.27321e-05
-2.35632e-06
2.76669e-05
-3.59177e-06
3.36928e-05
-5.20094e-06
4.11106e-05
-7.27018e-06
5.02783e-05
-9.91141e-06
6.168e-05
-1.32398e-05
7.59417e-05
-1.73886e-05
9.39333e-05
0.000116752
-2.25529e-05
-1.58702e-07
1.46686e-05
-4.77678e-07
1.8948e-05
-9.24596e-07
2.3179e-05
-1.55746e-06
2.82998e-05
-2.40844e-06
3.45438e-05
-3.54423e-06
4.22464e-05
-5.04576e-06
5.17798e-05
-6.98647e-06
6.36207e-05
-9.45965e-06
7.84148e-05
-1.26113e-05
9.7085e-05
0.000120675
-1.65351e-05
-2.41628e-08
1.46928e-05
-1.22763e-07
1.90466e-05
-3.00369e-07
2.33566e-05
-5.85769e-07
2.85852e-05
-1.02045e-06
3.49785e-05
-1.64698e-06
4.28729e-05
-2.51647e-06
5.26493e-05
-3.69107e-06
6.47953e-05
-5.24065e-06
7.99644e-05
-7.20131e-06
9.90456e-05
0.000123174
-9.70014e-06
2.37676e-07
1.44551e-05
4.62043e-07
1.88222e-05
6.28224e-07
2.31904e-05
7.3309e-07
2.84803e-05
7.75359e-07
3.49362e-05
7.16766e-07
4.29315e-05
5.40137e-07
5.2826e-05
2.22853e-07
6.51126e-05
-2.49579e-07
8.04368e-05
-9.20394e-07
9.97165e-05
0.000124106
-1.85235e-06
4.38012e-07
1.40171e-05
9.6724e-07
1.8293e-05
1.50841e-06
2.26493e-05
2.07075e-06
2.7918e-05
2.65864e-06
3.43483e-05
3.26985e-06
4.23203e-05
3.92242e-06
5.21734e-05
4.63322e-06
6.44018e-05
5.42253e-06
7.96475e-05
6.29458e-06
9.88444e-05
0.000123108
7.29238e-06
6.74424e-07
1.33426e-05
1.56338e-06
1.7404e-05
2.53524e-06
2.16774e-05
3.61509e-06
2.68381e-05
4.83286e-06
3.31306e-05
6.22999e-06
4.09232e-05
7.86473e-06
5.05386e-05
9.80551e-06
6.2461e-05
1.2132e-05
7.73211e-05
1.4931e-05
9.60454e-05
0.000119821
1.82187e-05
9.613e-07
1.23813e-05
2.26524e-06
1.61001e-05
3.72148e-06
2.02212e-05
5.39519e-06
2.51644e-05
7.34607e-06
3.11797e-05
9.67052e-06
3.85987e-05
1.24782e-05
4.7731e-05
1.59045e-05
5.90347e-05
2.00722e-05
7.31534e-05
2.51405e-05
9.09771e-05
0.000113676
3.1285e-05
1.28086e-06
1.11005e-05
3.01231e-06
1.43686e-05
5.00312e-06
1.82304e-05
7.34578e-06
2.28218e-05
1.01491e-05
2.83764e-05
1.3573e-05
3.51748e-05
1.77915e-05
4.35125e-05
2.29764e-05
5.38498e-05
2.93197e-05
6.68101e-05
3.70658e-05
8.3231e-05
0.00010421
4.65324e-05
1.47981e-06
9.62067e-06
3.63864e-06
1.22098e-05
6.19217e-06
1.56768e-05
9.27202e-06
1.97419e-05
1.30639e-05
2.45845e-05
1.77863e-05
3.04524e-05
2.36405e-05
3.76583e-05
3.08363e-05
4.6654e-05
3.96449e-05
5.80015e-05
5.0407e-05
7.24689e-05
9.10987e-05
6.35179e-05
1.55226e-06
8.06841e-06
4.20091e-06
9.56115e-06
7.17063e-06
1.27071e-05
1.10198e-05
1.58927e-05
1.59104e-05
1.96939e-05
2.20508e-05
2.4312e-05
2.96386e-05
3.00705e-05
3.89556e-05
3.7337e-05
5.03547e-05
4.66024e-05
6.43196e-05
5.8504e-05
7.39784e-05
8.14398e-05
-2.01513e-06
1.00835e-05
9.65328e-07
6.58069e-06
5.55618e-06
8.11626e-06
1.10234e-05
1.04255e-05
1.76022e-05
1.31151e-05
2.54939e-05
1.64203e-05
3.49256e-05
2.06388e-05
4.63046e-05
2.5958e-05
6.01705e-05
3.27364e-05
7.7181e-05
4.14935e-05
5.3027e-05
9.81323e-05
2.58849e-06
1.98711e-05
3.11908e-06
1.87171e-05
-1.20324e-06
2.4629e-05
-8.39968e-06
2.86047e-05
-1.66899e-05
3.0918e-05
-2.51591e-05
3.24251e-05
-3.40456e-05
3.4314e-05
-4.36418e-05
3.65015e-05
-5.42331e-05
3.88458e-05
-6.61169e-05
4.11869e-05
4.32727e-05
-7.96106e-05
7.72177e-06
1.21493e-05
1.07673e-05
1.56716e-05
1.06019e-05
2.47944e-05
7.33511e-06
3.18716e-05
8.64762e-07
3.73883e-05
-7.85333e-06
4.11432e-05
-1.76288e-05
4.40895e-05
-2.8415e-05
4.72876e-05
-4.0334e-05
5.07649e-05
-5.36114e-05
5.44643e-05
5.82504e-05
-6.85891e-05
4.95242e-06
7.1969e-06
7.50828e-06
1.31157e-05
9.40814e-06
2.28946e-05
9.25057e-06
3.20291e-05
6.06398e-06
4.05749e-05
-1.88065e-07
4.73952e-05
-8.43066e-06
5.23321e-05
-1.81341e-05
5.69911e-05
-2.92221e-05
6.18528e-05
-4.17859e-05
6.70281e-05
7.25456e-05
-5.60811e-05
3.76508e-06
3.43182e-06
5.40858e-06
1.14722e-05
7.25386e-06
2.10493e-05
8.05278e-06
3.12302e-05
6.83101e-06
4.17967e-05
3.12684e-06
5.10994e-05
-2.85404e-06
5.8313e-05
-1.05534e-05
6.46905e-05
-1.98213e-05
7.11206e-05
-3.0568e-05
7.77749e-05
8.48735e-05
-4.28959e-05
2.45813e-06
9.73692e-07
4.23491e-06
9.69545e-06
6.00387e-06
1.92803e-05
6.94579e-06
3.02883e-05
6.605e-06
4.21375e-05
4.55336e-06
5.3151e-05
6.12241e-07
6.22541e-05
-4.99968e-06
7.03024e-05
-1.21374e-05
7.82583e-05
-2.07347e-05
8.63722e-05
9.48559e-05
-3.07171e-05
1.84847e-06
-8.74774e-07
3.75144e-06
7.79247e-06
5.51842e-06
1.75133e-05
6.57926e-06
2.92275e-05
6.71043e-06
4.20063e-05
5.63596e-06
5.42255e-05
3.15922e-06
6.47308e-05
-7.12455e-07
7.41741e-05
-5.89472e-06
8.34406e-05
-1.23238e-05
9.28013e-05
0.000102503
-1.99714e-05
1.37871e-06
-2.25348e-06
3.25581e-06
5.91537e-06
5.14043e-06
1.56287e-05
6.45057e-06
2.79173e-05
7.01072e-06
4.14461e-05
6.65501e-06
5.45812e-05
5.25583e-06
6.613e-05
2.78914e-06
7.66408e-05
-7.22542e-07
8.69523e-05
-5.26927e-06
9.7348e-05
0.000107864
-1.06301e-05
8.67329e-07
-3.12081e-06
2.5888e-06
4.1939e-06
4.50523e-06
1.37123e-05
6.06784e-06
2.63547e-05
7.06157e-06
4.04524e-05
7.35396e-06
5.42888e-05
6.87517e-06
6.66088e-05
5.62532e-06
7.78906e-05
3.595e-06
8.89826e-05
7.35445e-07
0.000100208
0.000111595
-2.99487e-06
5.62169e-07
-3.68298e-06
2.0258e-06
2.73027e-06
3.90575e-06
1.18323e-05
5.66595e-06
2.45945e-05
7.04991e-06
3.90684e-05
7.94225e-06
5.33965e-05
8.28844e-06
6.62626e-05
8.10881e-06
7.80703e-05
7.42366e-06
8.96678e-05
6.24554e-06
0.000101386
0.000113226
4.61404e-06
3.77567e-07
-4.06055e-06
1.6049e-06
1.50294e-06
3.40386e-06
1.00334e-05
5.31827e-06
2.26801e-05
7.05504e-06
3.73317e-05
8.49858e-06
5.1953e-05
9.60627e-06
6.51549e-05
1.03983e-05
7.72782e-05
1.09314e-05
8.91347e-05
1.121e-05
0.000101107
0.000113139
1.12968e-05
2.93624e-07
-4.35417e-06
1.38642e-06
4.1014e-07
3.08419e-06
8.33561e-06
5.14441e-06
2.06199e-05
7.22944e-06
3.52466e-05
9.20415e-06
4.99782e-05
1.10097e-05
6.33494e-05
1.26939e-05
7.5594e-05
1.43318e-05
8.74968e-05
1.59795e-05
9.94594e-05
0.000111532
1.75863e-05
2.47797e-07
-4.60197e-06
1.13625e-06
-4.78309e-07
2.67678e-06
6.79508e-06
4.82106e-06
1.84756e-05
7.21366e-06
3.2854e-05
9.70376e-06
4.74881e-05
1.22249e-05
6.08283e-05
1.48076e-05
7.30112e-05
1.7563e-05
8.47414e-05
2.05872e-05
9.64352e-05
0.00010815
2.39698e-05
1.82995e-07
-4.78496e-06
8.69507e-07
-1.16482e-06
2.31503e-06
5.34955e-06
4.53233e-06
1.62583e-05
7.21982e-06
3.01665e-05
1.02188e-05
4.44892e-05
1.34378e-05
5.76093e-05
1.69197e-05
6.95293e-05
2.07776e-05
8.08835e-05
2.51366e-05
9.20763e-05
0.000103134
3.01519e-05
1.24233e-07
-4.9092e-06
7.13648e-07
-1.75424e-06
2.06585e-06
3.99735e-06
4.33464e-06
1.39895e-05
7.29977e-06
2.72014e-05
1.07959e-05
4.09931e-05
1.47175e-05
5.36876e-05
1.90873e-05
6.51596e-05
2.40542e-05
7.59165e-05
2.97678e-05
8.63627e-05
9.65142e-05
3.63881e-05
5.42652e-08
-4.96346e-06
5.20231e-07
-2.2202e-06
1.73543e-06
2.78215e-06
3.98792e-06
1.1737e-05
7.19974e-06
2.39896e-05
1.11463e-05
3.70465e-05
1.57765e-05
4.90575e-05
2.10958e-05
5.98403e-05
2.72428e-05
6.97695e-05
3.43982e-05
7.92073e-05
8.82322e-05
4.26802e-05
-3.15198e-08
-4.93194e-06
3.20566e-07
-2.57229e-06
1.39656e-06
1.70616e-06
3.59383e-06
9.53975e-06
6.9673e-06
2.06161e-05
1.13939e-05
3.26198e-05
1.67066e-05
4.37448e-05
2.30018e-05
5.35451e-05
3.04007e-05
6.23705e-05
3.90677e-05
7.05403e-05
7.78831e-05
4.94168e-05
-1.4797e-07
-4.78397e-06
7.32985e-08
-2.79356e-06
1.02234e-06
7.57115e-07
3.12003e-06
7.44206e-06
6.58847e-06
1.71477e-05
1.1373e-05
2.78353e-05
1.74288e-05
3.7689e-05
2.47285e-05
4.62455e-05
3.34089e-05
5.36901e-05
4.35888e-05
6.03605e-05
6.59223e-05
5.55496e-05
-2.67791e-07
-4.51618e-06
-2.50261e-07
-2.81109e-06
5.15682e-07
-8.82764e-09
2.42551e-06
5.53223e-06
5.8617e-06
1.37115e-05
1.09488e-05
2.27482e-05
1.76611e-05
3.09767e-05
2.60144e-05
3.78922e-05
3.60405e-05
4.3664e-05
4.77508e-05
4.86502e-05
5.21694e-05
6.15037e-05
-4.28165e-07
-4.08802e-06
-6.69e-07
-2.57025e-06
-2.87031e-07
-3.90796e-07
1.34623e-06
3.89898e-06
4.62902e-06
1.04287e-05
9.90283e-06
1.74744e-05
1.72639e-05
2.36156e-05
2.66189e-05
2.85371e-05
3.78646e-05
3.24182e-05
5.10691e-05
3.54458e-05
3.69097e-05
6.63287e-05
-6.87143e-07
-3.40087e-06
-1.28505e-06
-1.97235e-06
-1.48386e-06
-1.91982e-07
-4.4559e-07
2.86071e-06
2.65956e-06
7.32356e-06
8.05805e-06
1.20759e-05
1.59514e-05
1.57223e-05
2.61139e-05
1.83747e-05
3.83677e-05
2.01644e-05
5.2703e-05
2.11104e-05
2.04107e-05
6.9202e-05
-8.99264e-07
-2.50161e-06
-2.19694e-06
-6.7467e-07
-3.15555e-06
7.66626e-07
-2.8642e-06
2.56936e-06
-1.22278e-07
4.58164e-06
5.34604e-06
6.60756e-06
1.33753e-05
7.693e-06
2.37645e-05
7.98544e-06
3.62787e-05
7.65029e-06
5.09539e-05
6.43524e-06
3.17431e-06
6.81903e-05
-3.35613e-06
8.54523e-07
-4.92632e-06
8.95517e-07
-5.96774e-06
1.80805e-06
-5.42854e-06
2.03016e-06
-2.54778e-06
1.70088e-06
3.30978e-06
7.49996e-07
1.19013e-05
-8.98495e-07
2.29025e-05
-3.01576e-06
3.63178e-05
-5.76503e-06
5.25385e-05
-9.78545e-06
-1.58779e-05
7.15907e-05
-6.49516e-07
1.50404e-06
4.6949e-07
-2.23488e-07
3.67519e-06
-1.39765e-06
9.1292e-06
-3.42385e-06
1.65718e-05
-5.74167e-06
2.57999e-05
-8.47815e-06
3.65372e-05
-1.16358e-05
4.89513e-05
-1.54298e-05
6.35163e-05
-2.033e-05
8.04988e-05
-2.6768e-05
-3.51837e-05
9.98046e-05
1.15876e-05
1.79448e-05
2.46634e-05
3.16651e-05
3.90385e-05
4.69807e-05
5.59836e-05
6.65119e-05
7.89183e-05
9.36439e-05
0.000111487
-4.67816e-06
1.91462e-05
-1.4468e-05
-9.13561e-06
1.76227e-05
-1.31652e-05
-1.58635e-05
2.10526e-05
-1.43247e-05
-2.29799e-05
2.29429e-05
-1.58266e-05
-3.02295e-05
2.52075e-05
-1.79579e-05
-3.77673e-05
2.8343e-05
-2.08052e-05
-4.59067e-05
3.26232e-05
-2.44838e-05
-5.5015e-05
3.83175e-05
-2.92092e-05
-6.54932e-05
4.57892e-05
-3.53111e-05
-7.78092e-05
5.55806e-05
-4.32646e-05
6.84912e-05
-5.36715e-05
-9.26289e-05
2.89637e-06
1.62498e-05
3.32042e-06
1.71986e-05
2.18646e-08
2.43512e-05
-5.13446e-06
2.80992e-05
-1.18365e-05
3.19096e-05
-1.95653e-05
3.60718e-05
-2.82158e-05
4.12737e-05
-3.79797e-05
4.80814e-05
-4.92211e-05
5.70307e-05
-6.24158e-05
6.87753e-05
8.42678e-05
-7.81924e-05
2.57045e-06
1.36793e-05
3.18984e-06
1.65792e-05
2.56656e-06
2.49745e-05
3.79863e-07
3.02859e-05
-3.94035e-06
3.62298e-05
-9.91554e-06
4.20469e-05
-1.72735e-05
4.86317e-05
-2.59364e-05
5.67443e-05
-3.60457e-05
6.714e-05
-4.79563e-05
8.06859e-05
9.85368e-05
-6.22253e-05
1.84238e-06
1.18369e-05
2.00476e-06
1.64169e-05
2.20285e-06
2.47764e-05
1.39251e-06
3.10963e-05
-9.8409e-07
3.86064e-05
-4.82547e-06
4.58883e-05
-1.01665e-05
5.39728e-05
-1.69064e-05
6.34842e-05
-2.50521e-05
7.52857e-05
-3.47533e-05
9.0387e-05
0.000110099
-4.63152e-05
1.44004e-06
1.03969e-05
1.59141e-06
1.62655e-05
1.93461e-06
2.44332e-05
1.56775e-06
3.14631e-05
3.47478e-07
3.98267e-05
-1.90254e-06
4.81383e-05
-5.38422e-06
5.74545e-05
-1.01231e-05
6.82231e-05
-1.61206e-05
8.12832e-05
-2.34217e-05
9.7688e-05
0.000118804
-3.21268e-05
1.31377e-06
9.08314e-06
1.78856e-06
1.57907e-05
2.36057e-06
2.38612e-05
2.28138e-06
3.15423e-05
1.70097e-06
4.04071e-05
4.17016e-07
4.94223e-05
-1.72411e-06
5.95956e-05
-4.82182e-06
7.13208e-05
-8.93367e-06
8.53951e-05
-1.40725e-05
0.000102827
0.000124951
-2.02192e-05
1.25308e-06
7.83006e-06
2.0381e-06
1.50057e-05
2.86608e-06
2.30332e-05
3.12973e-06
3.12787e-05
3.03198e-06
4.05048e-05
2.41035e-06
5.00439e-05
1.20162e-06
6.08043e-05
-6.66951e-07
7.31894e-05
-3.2573e-06
8.79854e-05
-6.61126e-06
0.000106181
0.000129059
-1.07197e-05
1.08345e-06
6.74662e-06
2.09624e-06
1.39929e-05
3.12178e-06
2.20076e-05
3.70995e-06
3.06905e-05
4.03309e-06
4.01817e-05
3.94871e-06
5.01283e-05
3.47578e-06
6.12773e-05
2.56382e-06
7.41013e-05
1.18828e-06
8.9361e-05
-6.41439e-07
0.000108011
0.00013126
-2.84219e-06
1.03286e-06
5.71376e-06
2.21021e-06
1.28155e-05
3.40344e-06
2.08144e-05
4.29613e-06
2.97978e-05
4.97361e-06
3.95042e-05
5.34242e-06
4.97595e-05
5.45336e-06
6.11663e-05
5.29741e-06
7.42573e-05
4.88667e-06
8.97717e-05
4.23615e-06
0.000108661
0.000132049
3.44731e-06
1.12189e-06
4.59186e-06
2.49767e-06
1.14397e-05
3.91343e-06
1.93987e-05
5.12707e-06
2.85842e-05
6.1495e-06
3.84818e-05
6.90396e-06
4.9005e-05
7.48133e-06
6.05889e-05
7.90674e-06
7.38319e-05
8.22205e-06
8.94564e-05
8.46815e-06
0.000108415
0.000131847
8.66961e-06
1.11788e-06
3.47399e-06
2.60972e-06
9.94791e-06
4.23367e-06
1.77747e-05
5.76822e-06
2.70496e-05
7.13118e-06
3.71188e-05
8.28292e-06
4.78533e-05
9.29599e-06
5.95759e-05
1.02471e-05
7.28807e-05
1.11989e-05
8.85046e-05
1.22393e-05
0.000107375
0.000130568
1.35183e-05
9.96112e-07
2.47787e-06
2.47086e-06
8.47316e-06
4.19828e-06
1.60473e-05
5.97175e-06
2.52762e-05
7.66868e-06
3.54219e-05
9.22678e-06
4.62952e-05
1.07061e-05
5.80966e-05
1.21996e-05
7.13872e-05
1.37974e-05
8.69068e-05
1.55942e-05
0.000105578
0.000128462
1.77005e-05
8.88262e-07
1.58961e-06
2.31211e-06
7.04931e-06
4.13564e-06
1.42238e-05
6.14719e-06
2.32646e-05
8.17461e-06
3.33945e-05
1.01466e-05
4.43232e-05
1.21e-05
5.61432e-05
1.41259e-05
6.93613e-05
1.63387e-05
8.46941e-05
1.88564e-05
0.00010306
0.000125572
2.17457e-05
8.25926e-07
7.63686e-07
2.20317e-06
5.67207e-06
4.12208e-06
1.23048e-05
6.3708e-06
2.10159e-05
8.74796e-06
3.10173e-05
1.11517e-05
4.19195e-05
1.35958e-05
5.36991e-05
1.61686e-05
6.67884e-05
1.89964e-05
8.18663e-05
2.22207e-05
9.98356e-05
0.000121765
2.60279e-05
6.58543e-07
1.05143e-07
1.87927e-06
4.45134e-06
3.78451e-06
1.03996e-05
6.19136e-06
1.8609e-05
8.88581e-06
2.83229e-05
1.17465e-05
3.90588e-05
1.47536e-05
5.0692e-05
1.79766e-05
6.35654e-05
2.15464e-05
7.82965e-05
2.56114e-05
9.57706e-05
0.000117083
3.0294e-05
4.89144e-07
-3.84001e-07
1.53034e-06
3.41014e-06
3.3878e-06
8.54215e-06
5.92822e-06
1.60686e-05
8.93532e-06
2.53158e-05
1.22708e-05
3.57233e-05
1.58873e-05
4.70754e-05
1.98381e-05
5.96146e-05
2.42466e-05
7.38881e-05
2.92625e-05
9.07547e-05
0.000111286
3.5059e-05
3.36772e-07
-7.20773e-07
1.24294e-06
2.50397e-06
3.03625e-06
6.74883e-06
5.68326e-06
1.34216e-05
8.99651e-06
2.20025e-05
1.28176e-05
3.19022e-05
1.70948e-05
4.27982e-05
2.1862e-05
5.48474e-05
2.72161e-05
6.8534e-05
3.32989e-05
8.46719e-05
0.000104284
4.03015e-05
2.03796e-07
-9.24569e-07
9.45332e-07
1.76244e-06
2.57863e-06
5.11553e-06
5.2226e-06
1.07776e-05
8.76408e-06
1.8461e-05
1.30628e-05
2.76035e-05
1.80638e-05
3.77972e-05
2.37769e-05
4.91344e-05
3.02712e-05
6.20397e-05
3.76778e-05
7.72653e-05
9.5821e-05
4.61405e-05
1.02579e-07
-1.02715e-06
6.92877e-07
1.17214e-06
2.11019e-06
3.69822e-06
4.62996e-06
8.25787e-06
8.3001e-06
1.47909e-05
1.30537e-05
2.285e-05
1.88169e-05
3.20339e-05
2.56003e-05
4.2351e-05
3.34125e-05
5.42275e-05
4.23601e-05
6.83177e-05
8.55031e-05
5.2678e-05
1.09687e-08
-1.03812e-06
4.49654e-07
7.33455e-07
1.58646e-06
2.56141e-06
3.84525e-06
5.99908e-06
7.50448e-06
1.11316e-05
1.26369e-05
1.77175e-05
1.92005e-05
2.54704e-05
2.71161e-05
3.44354e-05
3.63659e-05
4.49776e-05
4.70569e-05
5.76267e-05
7.30997e-05
5.94603e-05
-5.42332e-08
-9.83883e-07
1.12269e-07
5.66952e-07
8.55456e-07
1.81823e-06
2.73756e-06
4.11697e-06
6.25528e-06
7.61392e-06
1.16522e-05
1.23206e-05
1.88864e-05
1.82362e-05
2.78387e-05
2.54831e-05
3.85082e-05
3.43082e-05
5.09814e-05
4.51535e-05
5.84851e-05
6.5596e-05
-6.32401e-07
-3.51482e-07
-8.12562e-07
7.47113e-07
-3.91692e-07
1.39736e-06
1.22276e-06
2.50253e-06
4.58807e-06
4.24861e-06
1.00203e-05
6.88838e-06
1.75637e-05
1.06928e-05
2.71383e-05
1.59084e-05
3.87984e-05
2.26481e-05
5.28096e-05
3.11422e-05
4.1457e-05
6.98378e-05
-8.98679e-07
5.47197e-07
-1.04108e-06
8.8951e-07
-4.45332e-07
8.01614e-07
1.13901e-06
9.18184e-07
4.07381e-06
1.31381e-06
8.73383e-06
2.22836e-06
1.54315e-05
3.99511e-06
2.4356e-05
6.98388e-06
3.57968e-05
1.12074e-05
4.99789e-05
1.69601e-05
2.46406e-05
6.67953e-05
1.78391e-06
-1.23671e-06
3.92746e-06
-1.25403e-06
6.00427e-06
-1.2752e-06
8.07991e-06
-1.15746e-06
1.03192e-05
-9.25427e-07
1.31156e-05
-5.68134e-07
1.71668e-05
-5.59938e-08
2.34372e-05
7.1343e-07
3.25233e-05
2.12126e-06
4.49292e-05
4.5542e-06
8.67565e-06
6.08942e-05
-1.4186e-05
-2.81955e-07
-2.42729e-05
-3.07836e-06
-3.23996e-05
-6.19808e-06
-3.93318e-05
-8.89431e-06
-4.59361e-05
-1.13535e-05
-5.27534e-05
-1.3988e-05
-6.02371e-05
-1.7e-05
-6.87757e-05
-2.06706e-05
-7.87281e-05
-2.53587e-05
-9.0472e-05
-3.15207e-05
-3.97744e-05
-0.000104369
-7.44568e-06
7.16372e-06
-1.42531e-05
3.72907e-06
-2.23845e-05
1.93336e-06
-3.05273e-05
-7.51515e-07
-3.84377e-05
-3.44318e-06
-4.65457e-05
-5.87998e-06
-5.53441e-05
-8.20164e-06
-6.53086e-05
-1.07062e-05
-7.68716e-05
-1.37956e-05
-9.04518e-05
-1.79405e-05
-2.36064e-05
-0.00010662
-2.64979e-06
9.81351e-06
-6.85949e-06
7.93877e-06
-1.32724e-05
8.34628e-06
-2.08868e-05
6.86285e-06
-2.95104e-05
5.18046e-06
-3.87923e-05
3.40189e-06
-4.87083e-05
1.71442e-06
-5.96045e-05
1.90002e-07
-7.19663e-05
-1.43386e-06
-8.63465e-05
-3.56029e-06
-6.71434e-06
-0.000103239
-1.67416e-06
1.14877e-05
-4.67578e-06
1.09404e-05
-9.13742e-06
1.28079e-05
-1.50352e-05
1.27606e-05
-2.24469e-05
1.25922e-05
-3.11133e-05
1.20683e-05
-4.10063e-05
1.16074e-05
-5.21658e-05
1.13495e-05
-6.48248e-05
1.12252e-05
-7.93669e-05
1.09817e-05
1.02298e-05
-9.6311e-05
-1.46248e-06
1.29502e-05
-4.08414e-06
1.35621e-05
-7.5658e-06
1.62896e-05
-1.22056e-05
1.74004e-05
-1.83156e-05
1.87022e-05
-2.58494e-05
1.96021e-05
-3.47693e-05
2.05273e-05
-4.5138e-05
2.17182e-05
-5.70772e-05
2.31643e-05
-7.08441e-05
2.47486e-05
2.62406e-05
-8.68548e-05
-1.29185e-06
1.4242e-05
-3.6444e-06
1.59146e-05
-6.51951e-06
1.91647e-05
-1.02852e-05
2.11661e-05
-1.5296e-05
2.3713e-05
-2.16245e-05
2.59306e-05
-2.93941e-05
2.82968e-05
-3.85853e-05
3.09094e-05
-4.93185e-05
3.38976e-05
-6.17998e-05
3.72299e-05
4.0744e-05
-7.63032e-05
-1.09568e-06
1.53377e-05
-3.16735e-06
1.79863e-05
-5.61426e-06
2.16116e-05
-8.73197e-06
2.42838e-05
-1.28898e-05
2.78708e-05
-1.81396e-05
3.11804e-05
-2.46829e-05
3.48402e-05
-3.25962e-05
3.88227e-05
-4.19746e-05
4.3276e-05
-5.29895e-05
4.82447e-05
5.36283e-05
-6.58738e-05
-1.02121e-06
1.63589e-05
-2.81122e-06
1.97763e-05
-4.88746e-06
2.36878e-05
-7.60957e-06
2.70059e-05
-1.09604e-05
3.12217e-05
-1.52593e-05
3.54793e-05
-2.06543e-05
4.02351e-05
-2.72587e-05
4.54271e-05
-3.51921e-05
5.12095e-05
-4.45659e-05
5.76185e-05
6.45882e-05
-5.55259e-05
-8.76259e-07
1.72351e-05
-2.471e-06
2.1371e-05
-4.03081e-06
2.52476e-05
-6.3177e-06
2.92928e-05
-9.08653e-06
3.39905e-05
-1.25977e-05
3.89905e-05
-1.69686e-05
4.4606e-05
-2.23473e-05
5.08058e-05
-2.88595e-05
5.77217e-05
-3.66527e-05
6.54118e-05
7.38602e-05
-4.59247e-05
-6.93453e-07
1.79286e-05
-1.94507e-06
2.26226e-05
-3.31824e-06
2.66208e-05
-5.09477e-06
3.10693e-05
-7.25248e-06
3.61482e-05
-1.00076e-05
4.17456e-05
-1.34405e-05
4.80389e-05
-1.7671e-05
5.50363e-05
-2.28256e-05
6.28762e-05
-2.90343e-05
7.16205e-05
8.12344e-05
-3.64085e-05
-4.64994e-07
1.83936e-05
-1.31176e-06
2.34694e-05
-2.28704e-06
2.75961e-05
-3.63272e-06
3.2415e-05
-5.24255e-06
3.77581e-05
-7.30325e-06
4.38063e-05
-9.85977e-06
5.05954e-05
-1.30266e-05
5.82032e-05
-1.68866e-05
6.67362e-05
-2.15417e-05
7.62756e-05
8.68117e-05
-2.71191e-05
-2.62486e-07
1.86561e-05
-8.40104e-07
2.4047e-05
-1.45774e-06
2.82137e-05
-2.33436e-06
3.32916e-05
-3.38003e-06
3.88037e-05
-4.73761e-06
4.51639e-05
-6.42711e-06
5.22849e-05
-8.52426e-06
6.03003e-05
-1.10904e-05
6.93024e-05
-1.41872e-05
7.93724e-05
9.04769e-05
-1.78524e-05
-2.61301e-08
1.86822e-05
-2.86388e-07
2.43073e-05
-5.46982e-07
2.84743e-05
-9.55231e-07
3.36999e-05
-1.44013e-06
3.92886e-05
-2.09992e-06
4.58237e-05
-2.9288e-06
5.31138e-05
-3.98214e-06
6.13537e-05
-5.26812e-06
7.05884e-05
-6.82844e-06
8.09327e-05
9.23216e-05
-8.67309e-06
3.03666e-07
1.83785e-05
4.31791e-07
2.41792e-05
5.61423e-07
2.83447e-05
6.25878e-07
3.36354e-05
7.07909e-07
3.92066e-05
7.37709e-07
4.57939e-05
7.52282e-07
5.30992e-05
7.32943e-07
6.1373e-05
6.986e-07
7.06227e-05
6.74278e-07
8.0957e-05
9.23215e-05
6.74397e-07
5.14653e-07
1.78639e-05
9.79222e-07
2.37146e-05
1.51734e-06
2.78066e-05
2.09156e-06
3.30612e-05
2.76419e-06
3.8534e-05
3.53293e-06
4.50251e-05
4.43172e-06
5.22004e-05
5.49272e-06
6.0312e-05
6.76335e-06
6.93521e-05
8.31393e-06
7.94064e-05
9.03936e-05
1.02418e-05
7.57668e-07
1.71062e-05
1.60009e-06
2.28722e-05
2.55633e-06
2.68503e-05
3.65746e-06
3.19601e-05
4.94927e-06
3.72422e-05
6.48258e-06
4.34918e-05
8.3016e-06
5.03814e-05
1.04704e-05
5.81432e-05
1.30754e-05
6.67471e-05
1.6228e-05
7.62538e-05
8.65552e-05
2.00663e-05
1.05534e-06
1.60509e-05
2.30389e-06
2.16236e-05
3.71753e-06
2.54367e-05
5.383e-06
3.02946e-05
7.32728e-06
3.52979e-05
9.65534e-06
4.11638e-05
1.2431e-05
4.76058e-05
1.57537e-05
5.48205e-05
1.9731e-05
6.27698e-05
2.45136e-05
7.14712e-05
8.07743e-05
3.02945e-05
1.34203e-06
1.47089e-05
3.01558e-06
1.99501e-05
4.9193e-06
2.3533e-05
7.18661e-06
2.80273e-05
9.83074e-06
3.26538e-05
1.3016e-05
3.79785e-05
1.68057e-05
4.38161e-05
2.13388e-05
5.02874e-05
2.67548e-05
5.73538e-05
3.32373e-05
6.49886e-05
7.2968e-05
4.10435e-05
1.63453e-06
1.30743e-05
3.73845e-06
1.78461e-05
6.17084e-06
2.11006e-05
9.07684e-06
2.51213e-05
1.24892e-05
2.92414e-05
1.65804e-05
3.38874e-05
2.1452e-05
3.89445e-05
2.72628e-05
4.44766e-05
3.41716e-05
5.04451e-05
4.24027e-05
5.67575e-05
6.31582e-05
5.22126e-05
1.94804e-06
1.11263e-05
4.50344e-06
1.52908e-05
7.48355e-06
1.81205e-05
1.10746e-05
2.15302e-05
1.53025e-05
2.50134e-05
2.03536e-05
2.88363e-05
2.63549e-05
3.29432e-05
3.34718e-05
3.73597e-05
4.19089e-05
4.2008e-05
5.19119e-05
4.67545e-05
5.12548e-05
6.38153e-05
2.27011e-06
8.85618e-06
5.25092e-06
1.23099e-05
8.7993e-06
1.45721e-05
1.30972e-05
1.72324e-05
1.81728e-05
1.99379e-05
2.42079e-05
2.28012e-05
3.13362e-05
2.58149e-05
3.97491e-05
2.89468e-05
4.96728e-05
3.20843e-05
6.14026e-05
3.50247e-05
3.74008e-05
7.52565e-05
2.51278e-06
6.3434e-06
5.90063e-06
8.92209e-06
9.99624e-06
1.04765e-05
1.49712e-05
1.22575e-05
2.08632e-05
1.40458e-05
2.78183e-05
1.58461e-05
3.5989e-05
1.76442e-05
4.55728e-05
1.93629e-05
5.6841e-05
2.08161e-05
7.00976e-05
2.17682e-05
2.1812e-05
8.56864e-05
3.00153e-06
3.34187e-06
6.72807e-06
5.19555e-06
1.12189e-05
5.98562e-06
1.66612e-05
6.81516e-06
2.31191e-05
7.58788e-06
3.0709e-05
8.25619e-06
3.95976e-05
8.7556e-06
5.0039e-05
8.92157e-06
6.22901e-05
8.56499e-06
7.66363e-05
7.42193e-06
5.32404e-06
9.31243e-05
2.10515e-06
6.04666e-06
1.07571e-05
1.64148e-05
2.30772e-05
3.07653e-05
3.94649e-05
4.90999e-05
5.97862e-05
7.17623e-05
8.5762e-05
2.97769e-06
7.23926e-06
-1.0217e-05
4.40137e-06
8.31563e-06
-9.73931e-06
4.04278e-06
1.12128e-05
-1.08542e-05
2.55814e-06
1.39738e-05
-1.24891e-05
1.94944e-07
1.65921e-05
-1.42289e-05
-2.90734e-06
1.91194e-05
-1.60171e-05
-6.49956e-06
2.18455e-05
-1.82533e-05
-1.03932e-05
2.52384e-05
-2.13448e-05
-1.47058e-05
3.00465e-05
-2.57338e-05
-1.96976e-05
3.69176e-05
-3.19258e-05
4.65386e-05
-4.05962e-05
-2.564e-05
3.64941e-06
3.58985e-06
5.82064e-06
6.1444e-06
7.19009e-06
9.84338e-06
7.64815e-06
1.35157e-05
6.95379e-06
1.72864e-05
4.98549e-06
2.10877e-05
1.96337e-06
2.48676e-05
-1.73494e-06
2.89367e-05
-5.88322e-06
3.41947e-05
-1.05826e-05
4.16169e-05
5.21106e-05
-1.61545e-05
2.25451e-06
1.33534e-06
4.04909e-06
4.34982e-06
5.83352e-06
8.05895e-06
7.20203e-06
1.21472e-05
7.80817e-06
1.66803e-05
7.36634e-06
2.15295e-05
5.81664e-06
2.64173e-05
3.34647e-06
3.14069e-05
3.02084e-07
3.72391e-05
-3.16701e-06
4.5086e-05
5.61085e-05
-7.16491e-06
1.17303e-06
1.62311e-07
2.56048e-06
2.96236e-06
4.17212e-06
6.44732e-06
5.70719e-06
1.06121e-05
6.89919e-06
1.54883e-05
7.50209e-06
2.09266e-05
7.28857e-06
2.66309e-05
6.23647e-06
3.2459e-05
4.5597e-06
3.89159e-05
2.53892e-06
4.71068e-05
5.83447e-05
3.02765e-07
3.45034e-07
-1.82723e-07
1.33327e-06
1.97413e-06
2.63853e-06
5.14206e-06
4.073e-06
9.17764e-06
5.47795e-06
1.40833e-05
6.65131e-06
1.97533e-05
7.37435e-06
2.59078e-05
7.51674e-06
3.23166e-05
7.15624e-06
3.92764e-05
6.50833e-06
4.77547e-05
5.90527e-05
5.80036e-06
-1.74711e-07
-8.01092e-09
3.69401e-07
1.43002e-06
1.37648e-06
4.13498e-06
2.63151e-06
7.92261e-06
4.04009e-06
1.26747e-05
5.47509e-06
1.83183e-05
6.77012e-06
2.46128e-05
7.77278e-06
3.1314e-05
8.45838e-06
3.85908e-05
8.94852e-06
4.72645e-05
5.85405e-05
9.46065e-06
-2.99332e-07
2.91321e-07
-2.13014e-07
1.3437e-06
4.03822e-07
3.51814e-06
1.42444e-06
6.90199e-06
2.7071e-06
1.13921e-05
4.20775e-06
1.68176e-05
5.80965e-06
2.30109e-05
7.37966e-06
2.9744e-05
8.82872e-06
3.71417e-05
1.019e-05
4.59032e-05
5.71391e-05
1.15914e-05
-3.34715e-07
6.26036e-07
-5.03382e-07
1.51237e-06
-2.69412e-07
3.28417e-06
4.67342e-07
6.16523e-06
1.56325e-06
1.02962e-05
3.00507e-06
1.53758e-05
4.7426e-06
2.12734e-05
6.65768e-06
2.78289e-05
8.6354e-06
3.5164e-05
1.06552e-05
4.38835e-05
5.49667e-05
1.28276e-05
-3.17576e-07
9.43613e-07
-5.54733e-07
1.74952e-06
-5.65414e-07
3.29486e-06
-1.23819e-07
5.72364e-06
7.80055e-07
9.39231e-06
2.11704e-06
1.40388e-05
3.87718e-06
1.95132e-05
5.96539e-06
2.57407e-05
8.26029e-06
3.28691e-05
1.06962e-05
4.14475e-05
5.23626e-05
1.33003e-05
-2.5659e-07
1.2002e-06
-4.79145e-07
1.97208e-06
-5.59151e-07
3.37486e-06
-2.96895e-07
5.46138e-06
4.44981e-07
8.65043e-06
1.68081e-06
1.2803e-05
3.40605e-06
1.7788e-05
5.54699e-06
2.35997e-05
7.9886e-06
3.04275e-05
1.06573e-05
3.87788e-05
4.94792e-05
1.35407e-05
-1.77077e-07
1.37728e-06
-3.49614e-07
2.14462e-06
-4.14253e-07
3.4395e-06
-2.16674e-07
5.2638e-06
4.17604e-07
8.01616e-06
1.57064e-06
1.16499e-05
3.242e-06
1.61166e-05
5.37576e-06
2.1466e-05
7.87769e-06
2.79256e-05
1.06729e-05
3.59836e-05
4.63979e-05
1.37542e-05
-1.08994e-07
1.48627e-06
-2.23449e-07
2.25907e-06
-2.29974e-07
3.44603e-06
-2.7099e-08
5.06093e-06
5.71222e-07
7.41783e-06
1.6704e-06
1.05508e-05
3.29094e-06
1.44961e-05
5.39746e-06
1.93594e-05
7.91894e-06
2.54041e-05
1.07875e-05
3.3115e-05
4.32403e-05
1.39452e-05
-3.17736e-08
1.51805e-06
-6.73732e-08
2.29467e-06
2.18548e-08
3.3568e-06
2.91222e-07
4.79156e-06
9.14836e-07
6.79422e-06