/*--------------------------------*- C++ -*----------------------------------*\
| =========                 |                                                 |
| \\      /  F ield         | OpenFOAM: The Open Source CFD Toolbox           |
|  \\    /   O peration     | Version:  3.0.1                                 |
|   \\  /    A nd           | Web:      www.OpenFOAM.org                      |
|    \\/     M anipulation  |                                                 |
\*---------------------------------------------------------------------------*/
FoamFile
{
    version     2.0;
    format      ascii;
    class       volScalarField;
    location    "0.997464";
    object      p;
}
// * * * * * * * * * * * * * * * * * * * * * * * * * * * * * * * * * * * * * //

dimensions      [0 2 -2 0 0 0 0];

internalField   nonuniform List<scalar> 
21246
(
1.0852
0.537622
0.505204
0.605505
0.752421
0.920729
1.05
1.12014
1.14396
1.14324
1.18187
5.54496
4.40384
3.44649
2.82361
2.43879
2.20385
2.04904
1.9251
1.80726
1.70046
1.64561
5.86236
5.55941
4.96957
4.35993
3.81294
3.35821
2.99197
2.69248
2.43478
2.21173
2.06519
5.38722
5.41794
5.22507
4.90831
4.52384
4.10867
3.69579
3.30896
2.95816
2.65794
2.45308
4.99584
5.12066
5.0918
4.97531
4.75957
4.46015
4.10902
3.74443
3.3911
3.07118
2.83121
4.70552
4.87894
4.90365
4.88175
4.78838
4.61769
4.36636
4.06699
3.73608
3.40425
3.12832
4.44487
4.6352
4.67061
4.72257
4.71723
4.63639
4.47071
4.22988
3.93364
3.61591
3.33306
4.21987
4.36126
4.42438
4.48954
4.52476
4.50428
4.40924
4.23495
3.99166
3.71313
3.46694
4.01095
4.13174
4.19007
4.25376
4.30072
4.3087
4.25764
4.13581
3.94338
3.70503
3.48632
3.80665
3.92177
3.97439
4.03293
4.08004
4.0979
4.06919
3.98098
3.82805
3.62632
3.43325
3.63224
3.73435
3.77694
3.82677
3.86792
3.8858
3.86603
3.79673
3.67059
3.49936
3.34266
3.5014
3.57613
3.60035
3.63531
3.66444
3.67514
3.65527
3.59451
3.48536
3.33585
3.19955
3.36254
3.41857
3.42893
3.44926
3.46397
3.46318
3.43714
3.37774
3.27868
3.14634
3.03122
3.20063
3.24893
3.25042
3.25772
3.25756
3.243
3.20691
3.14386
3.04928
2.92759
2.82801
3.06882
3.08931
3.07001
3.05798
3.03902
3.00744
2.9581
2.88838
2.79658
2.68643
2.60104
2.91503
2.90979
2.87106
2.83832
2.79791
2.74644
2.68157
2.6042
2.51609
2.42044
2.35758
2.71336
2.69186
2.63833
2.5847
2.52064
2.447
2.36582
2.28258
2.2029
2.1284
2.09146
2.50694
2.45277
2.37207
2.28823
2.19378
2.09455
1.99822
1.91519
1.85401
1.81347
1.81463
2.26568
2.16735
2.05035
1.92619
1.79359
1.66746
1.5634
1.49472
1.46866
1.47728
1.53046
1.95895
1.80409
1.64174
1.46702
1.29067
1.14203
1.04682
1.01781
1.05175
1.12612
1.22921
1.55897
1.32745
1.10032
0.865152
0.64817
0.498063
0.44709
0.496698
0.622599
0.785303
0.957883
1.0725
0.644744
0.349354
0.060436
-0.167516
-0.265111
-0.21075
-0.0339254
0.212434
0.476295
0.723908
-0.167779
-0.370922
-0.701058
-0.993908
-1.1465
-1.09417
-0.860513
-0.518415
-0.140503
0.221621
0.534746
0.807853
-1.20688
-1.79391
-2.05982
-2.03322
-1.76247
-1.33958
-0.858614
-0.381354
0.0519602
0.410107
-10.2981
-4.67676
-2.42183
-1.48547
-0.722866
-0.161956
0.163776
0.368092
0.507378
0.584347
0.679023
-9.7801
-7.05161
-5.48482
-4.21176
-2.90982
-1.84732
-1.10156
-0.587647
-0.255864
-0.0447799
0.144321
-6.53459
-6.67511
-6.43325
-5.71879
-4.71761
-3.63959
-2.64264
-1.82245
-1.21445
-0.791871
-0.463853
-6.53597
-6.47018
-6.39293
-6.18625
-5.74798
-5.03753
-4.13064
-3.18522
-2.35284
-1.70281
-1.17143
-7.03632
-6.91152
-6.74434
-6.63009
-6.47103
-6.11448
-5.46605
-4.57976
-3.62323
-2.76106
-2.01919
-7.66465
-7.58756
-7.4335
-7.29254
-7.24513
-7.12608
-6.74599
-6.01505
-5.02445
-3.97988
-3.01952
-8.36629
-8.3801
-8.29713
-8.22326
-8.19905
-8.23524
-8.08695
-7.54212
-6.57537
-5.36812
-4.16182
-9.1091
-9.23034
-9.23802
-9.30058
-9.39322
-9.54654
-9.5733
-9.20219
-8.28582
-6.94135
-5.41195
-9.84009
-10.0738
-10.1761
-10.3982
-10.6972
-10.9833
-11.188
-10.982
-10.1191
-8.66676
-6.90375
-10.4696
-10.8341
-11.0297
-11.4115
-11.9014
-12.4362
-12.8622
-12.8101
-11.9991
-10.3873
-8.31516
-10.864
-11.4564
-11.725
-12.2657
-12.949
-13.7386
-14.3651
-14.4999
-13.7287
-11.9662
-9.60471
-11.1796
-11.8275
-12.1712
-12.8466
-13.677
-14.6391
-15.5152
-15.8719
-15.112
-13.1994
-10.5854
-11.2732
-11.9038
-12.3769
-13.1044
-14.0205
-15.0905
-16.1489
-16.6124
-15.8589
-13.7993
-10.8342
-11.0666
-11.6808
-12.2306
-12.9896
-13.9383
-15.0202
-16.0652
-16.4769
-15.7868
-13.6464
-10.524
-10.593
-11.129
-11.6862
-12.4263
-13.3435
-14.358
-15.2479
-15.5684
-14.7964
-12.6469
-9.6092
-9.79547
-10.2103
-10.718
-11.3916
-12.2224
-13.106
-13.8049
-13.9546
-12.9952
-10.8751
-8.08035
-8.64002
-8.93016
-9.36791
-9.96982
-10.708
-11.4386
-11.8962
-11.7605
-10.6785
-8.61659
-6.0183
-7.15473
-7.36503
-7.77134
-8.35407
-9.04365
-9.64097
-9.84989
-9.40046
-8.14701
-6.19784
-3.91944
-5.48661
-5.74312
-6.23489
-6.8898
-7.57359
-8.03792
-7.9716
-7.17438
-5.7115
-3.83735
-1.93188
-4.10468
-4.57844
-5.26725
-6.01541
-6.67721
-6.99279
-6.62877
-5.47855
-3.81237
-2.01823
-0.327414
-3.69319
-4.42627
-5.29091
-6.08932
-6.69083
-6.80843
-6.07882
-4.54691
-2.75219
-1.01279
0.506956
-4.10426
-5.13172
-6.15369
-6.95835
-7.42339
-6.93205
-5.31303
-3.5657
-1.9496
-0.558862
0.461862
-5.66311
-7.57552
-7.76326
-7.36213
-6.49235
-5.2369
-3.69946
-2.3339
-1.19954
-0.278582
0.384085
-10.2548
-6.72389
-5.51135
-4.58243
-3.69885
-2.8254
-1.9774
-1.23601
-0.587134
-0.042072
0.366846
18.9683
17.0141
14.7034
12.4317
10.2206
8.27922
6.68095
5.40446
4.38516
3.59239
3.07892
-3.34545
4.90563
6.99782
8.11799
7.74814
6.84911
5.78945
4.78643
3.91152
3.19963
2.7167
-16.9827
-7.01102
-3.7753
0.639297
2.73326
3.72077
3.77443
3.48964
3.03673
2.59386
2.28701
-20.8002
-13.9312
-11.848
-6.25256
-3.08897
-0.458287
0.805469
1.50015
1.68662
1.66369
1.5969
-20.0745
-16.0562
-15.3576
-10.4052
-7.67984
-4.30386
-2.2968
-0.781204
0.0460546
0.509099
0.793861
-18.3215
-15.7008
-15.759
-11.8846
-10.2362
-6.80017
-4.80608
-2.82779
-1.56916
-0.69904
-0.10294
-16.3407
-14.4751
-14.84
-11.7159
-11.0979
-7.86608
-6.42347
-4.25133
-2.87185
-1.74561
-0.916765
-14.0884
-13.0404
-13.3054
-10.8261
-10.8634
-7.96656
-7.11537
-4.96516
-3.72615
-2.50414
-1.57332
-12.0165
-11.5064
-11.5052
-9.78428
-9.89234
-7.56554
-7.08945
-5.10546
-4.12996
-2.90066
-1.98046
-10.3621
-9.92631
-9.80558
-8.66528
-8.61447
-6.92019
-6.48446
-4.93723
-4.14849
-2.97365
-2.13481
-8.66703
-8.32424
-8.20726
-7.41972
-7.26714
-6.08703
-5.66633
-4.50356
-3.80996
-2.85355
-2.12407
-6.86282
-6.66622
-6.62686
-6.09122
-5.94078
-5.09964
-4.76956
-3.86739
-3.31718
-2.54558
-1.94203
-5.4041
-5.22632
-5.20142
-4.80767
-4.68151
-4.07629
-3.83673
-3.14599
-2.72998
-2.11724
-1.63188
-4.28547
-4.04945
-3.99362
-3.65407
-3.55625
-3.10315
-2.92741
-2.4091
-2.10143
-1.63328
-1.27078
-3.14423
-2.92491
-2.8958
-2.60552
-2.54588
-2.20229
-2.07479
-1.6935
-1.47225
-1.12996
-0.867665
-2.19446
-1.95921
-1.9196
-1.70892
-1.65359
-1.38804
-1.2931
-1.01942
-0.867073
-0.633707
-0.463335
-1.47642
-1.20471
-1.1401
-0.951685
-0.881659
-0.670247
-0.590382
-0.397737
-0.300107
-0.16025
-0.0697653
-0.832847
-0.551028
-0.479833
-0.305566
-0.219899
-0.0433128
0.0357597
0.170238
0.222639
0.280045
0.292118
-0.299348
-0.016125
0.06291
0.234479
0.338372
0.502419
0.593333
0.687839
0.699315
0.681829
0.615387
0.115595
0.395668
0.500776
0.660348
0.806135
0.983887
1.09391
1.15822
1.12818
1.04454
0.915057
0.439793
0.713202
0.848119
1.0311
1.22766
1.42743
1.54923
1.57838
1.50097
1.36197
1.1873
0.732778
0.991405
1.1781
1.40217
1.64373
1.8428
1.9539
1.92364
1.78923
1.60928
1.39351
0.911294
1.31454
1.55465
1.83042
2.10508
2.29194
2.28853
2.1722
1.99937
1.85082
1.75811
1.84645
1.97859
2.2431
2.48848
2.60119
2.55145
2.35101
2.07218
1.77967
1.50785
1.53011
26.0658
22.3454
18.0001
14.167
11.0953
8.76311
7.06255
5.74297
4.6724
3.82404
3.23314
12.42
15.7329
15.5921
14.3293
12.1056
9.89447
7.87228
6.20657
4.90951
3.94039
3.29835
-0.656418
6.21493
8.59875
10.2453
10.1444
8.9053
7.48611
6.07175
4.84577
3.88798
3.23704
-8.43908
-2.09115
0.629217
4.08292
5.86473
6.39527
5.98499
5.20187
4.31886
3.54289
2.99831
-11.9027
-7.27294
-5.27579
-1.46942
1.06597
2.84431
3.518
3.57825
3.25685
2.83404
2.50913
-13.108
-9.78517
-8.58745
-5.23973
-2.84041
-0.57683
0.810343
1.58702
1.84961
1.85017
1.7937
-13.3267
-10.7721
-10.112
-7.32156
-5.46072
-3.15837
-1.53338
-0.330875
0.379017
0.758689
0.974451
-13.0162
-10.9834
-10.7059
-8.2421
-7.01532
-4.82446
-3.26911
-1.89939
-0.924626
-0.266538
0.158472
-12.6669
-10.8601
-10.8891
-8.55499
-7.7635
-5.8297
-4.41898
-3.03054
-1.94634
-1.11425
-0.530472
-12.3823
-10.7946
-10.6592
-8.81809
-7.97365
-6.35394
-5.094
-3.75897
-2.66252
-1.74812
-1.03082
-12.0428
-10.8019
-10.2961
-8.8687
-7.99014
-6.55345
-5.41831
-4.16045
-3.10143
-2.17505
-1.40516
-11.492
-10.4684
-9.91328
-8.6721
-7.83441
-6.52507
-5.48707
-4.30674
-3.30698
-2.40392
-1.64421
-10.96
-9.98089
-9.44773
-8.30323
-7.51686
-6.30643
-5.35188
-4.24625
-3.31732
-2.46038
-1.72239
-10.4791
-9.44875
-8.91747
-7.8214
-7.06933
-5.93683
-5.04973
-4.01795
-3.16562
-2.37452
-1.69249
-9.76473
-8.77881
-8.28993
-7.2423
-6.51232
-5.44814
-4.61112
-3.65214
-2.87937
-2.15867
-1.5538
-9.01205
-8.04242
-7.57903
-6.57068
-5.85099
-4.84872
-4.0526
-3.17639
-2.46663
-1.83224
-1.31541
-8.26461
-7.27013
-6.79778
-5.81345
-5.08511
-4.13756
-3.37529
-2.58887
-1.95627
-1.41993
-0.995187
-7.4209
-6.40864
-5.91862
-4.95643
-4.20641
-3.31174
-2.58992
-1.90095
-1.36581
-0.943479
-0.623191
-6.47462
-5.44032
-4.91731
-3.97619
-3.20176
-2.37012
-1.70387
-1.13163
-0.719727
-0.428003
-0.218578
-5.42671
-4.35056
-3.76856
-2.84689
-2.05873
-1.31095
-0.738939
-0.31422
-0.0524318
0.0931696
0.164455
-4.23476
-3.0864
-2.4264
-1.54344
-0.784086
-0.166884
0.259236
0.503936
0.596194
0.595461
0.552676
-2.81378
-1.56037
-0.849962
-0.0824792
0.553582
0.994636
1.22039
1.26454
1.18735
1.05545
0.917331
-1.10697
0.212287
0.839691
1.35808
1.77533
2.00166
2.01728
1.87859
1.65922
1.42765
1.24837
0.937458
2.0045
2.37055
2.58262
2.74145
2.7463
2.57729
2.32458
2.02796
1.70106
1.39516
-3.60381
-0.0577899
1.14468
1.5084
1.51043
1.3621
1.17056
0.969607
0.765775
0.578576
0.478759
-16.1619
-8.36991
-5.19148
-2.90193
-1.34957
-0.519372
-0.119584
0.0419684
0.0743953
0.0432571
0.0360853
-16.142
-12.0581
-9.88494
-7.15542
-4.71323
-2.96657
-1.83109
-1.15464
-0.777861
-0.575075
-0.430012
-12.3891
-11.5038
-10.7738
-8.95369
-6.87714
-5.00539
-3.50079
-2.42051
-1.70925
-1.25863
-0.950786
-9.36599
-9.41884
-9.38223
-8.59129
-7.37852
-5.96923
-4.59049
-3.42449
-2.53876
-1.90828
-1.43653
-7.38528
-7.61682
-7.68463
-7.40434
-6.83044
-5.97609
-4.9667
-3.97254
-3.10804
-2.42197
-1.86906
-6.11543
-6.258
-6.30541
-6.22246
-5.97346
-5.50151
-4.84532
-4.10521
-3.37809
-2.74187
-2.17938
-5.35655
-5.32795
-5.32735
-5.30004
-5.18263
-4.9183
-4.50417
-3.98378
-3.41728
-2.87606
-2.35367
-5.00667
-4.80518
-4.75894
-4.69541
-4.59264
-4.41235
-4.13135
-3.75858
-3.32351
-2.87955
-2.4303
-4.85519
-4.5725
-4.48453
-4.34818
-4.21032
-4.04519
-3.81954
-3.52638
-3.17661
-2.80526
-2.42029
-4.74342
-4.43367
-4.29821
-4.12181
-3.95995
-3.79168
-3.58489
-3.32788
-3.02321
-2.69395
-2.35449
-4.64614
-4.33172
-4.16892
-3.96794
-3.79025
-3.61551
-3.41452
-3.17109
-2.88316
-2.56815
-2.24814
-4.59944
-4.28566
-4.1088
-3.90008
-3.70445
-3.51703
-3.31055
-3.06269
-2.76765
-2.44081
-2.11187
-4.59829
-4.28888
-4.10943
-3.8978
-3.69099
-3.49231
-3.27281
-3.00575
-2.68234
-2.31828
-1.94276
-4.61877
-4.31457
-4.13955
-3.92842
-3.7153
-3.50968
-3.27594
-2.98399
-2.6208
-2.20585
-1.77495
-4.64564
-4.34974
-4.18179
-3.97443
-3.76048
-3.5458
-3.29872
-2.97967
-2.57246
-2.10097
-1.6121
-4.66807
-4.38463
-4.22305
-4.01946
-3.80476
-3.58152
-3.31835
-2.9734
-2.52571
-2.001
-1.44034
-4.6767
-4.40514
-4.24858
-4.04836
-3.82831
-3.59186
-3.31092
-2.94473
-2.47255
-1.9171
-1.32589
-4.66181
-4.40287
-4.25096
-4.05378
-3.8261
-3.56904
-3.26845
-2.88913
-2.4165
-1.86922
-1.29487
-4.61758
-4.3767
-4.23083
-4.0366
-3.79872
-3.51792
-3.19648
-2.81644
-2.37761
-1.88706
-1.35922
-4.54249
-4.33696
-4.20106
-4.00692
-3.75213
-3.44537
-3.1032
-2.74478
-2.38452
-2.00912
-1.59184
-4.44864
-4.3161
-4.18855
-3.97537
-3.68485
-3.34135
-2.99071
-2.69286
-2.46668
-2.27185
-2.05075
-4.52711
-4.43174
-4.20773
-3.90934
-3.54972
-3.16715
-2.85102
-2.67763
-2.63715
-2.66424
-2.70213
-4.7118
-3.91682
-3.63963
-3.35108
-3.0361
-2.785
-2.6815
-2.75026
-2.94078
-3.1825
-3.4112
13.7131
9.32309
6.41113
4.63661
3.50238
2.7383
2.18029
1.73561
1.35799
1.04697
0.836726
12.1449
11.5354
9.60109
7.58489
5.83108
4.44366
3.39301
2.6025
1.98732
1.51231
1.20553
8.30713
9.20384
9.0312
8.15372
6.8236
5.44922
4.24869
3.27482
2.49496
1.87797
1.48644
5.01408
6.54297
7.00199
6.98823
6.45125
5.57835
4.58225
3.62677
2.79151
2.1117
1.66367
2.61024
4.10877
4.75848
5.26631
5.34427
4.99302
4.35414
3.60466
2.86101
2.21418
1.75711
0.91082
2.19139
2.76931
3.44664
3.85904
3.93682
3.69791
3.24439
2.67676
2.13009
1.70203
-0.290668
0.781342
1.22905
1.90196
2.41328
2.7157
2.7658
2.58578
2.24248
1.84213
1.50032
-1.11149
-0.233629
0.0751414
0.694596
1.18997
1.57549
1.7867
1.80683
1.66466
1.42245
1.18627
-1.77216
-0.984477
-0.818213
-0.231549
0.197613
0.598112
0.884303
1.03143
1.03662
0.93557
0.79986
-2.37956
-1.656
-1.52336
-0.996752
-0.607052
-0.219432
0.0967318
0.315371
0.421751
0.43297
0.404494
-2.85738
-2.33204
-2.08186
-1.64137
-1.27505
-0.902375
-0.578089
-0.321188
-0.149323
-0.0602998
-0.00638007
-3.21963
-2.78393
-2.54952
-2.16448
-1.8247
-1.47199
-1.15109
-0.875375
-0.661427
-0.515887
-0.4028
-3.54479
-3.14587
-2.93416
-2.58732
-2.27236
-1.94179
-1.63144
-1.3503
-1.11178
-0.923433
-0.759841
-3.86959
-3.4642
-3.25572
-2.9311
-2.63528
-2.32516
-2.02906
-1.75272
-1.50517
-1.29383
-1.09515
-4.03715
-3.68168
-3.49935
-3.20098
-2.92391
-2.63367
-2.35368
-2.08895
-1.84558
-1.62882
-1.42158
-4.17644
-3.85218
-3.68412
-3.40837
-3.14757
-2.87587
-2.61259
-2.36402
-2.13528
-1.92852
-1.73262
-4.29719
-3.98961
-3.82445
-3.56482
-3.31521
-3.0588
-2.81176
-2.58313
-2.37902
-2.19825
-2.03495
-4.3622
-4.07705
-3.91661
-3.6722
-3.4308
-3.18659
-2.95551
-2.75122
-2.58287
-2.44736
-2.33637
-4.3804
-4.11945
-3.96346
-3.73246
-3.49631
-3.26112
-3.04619
-2.87193
-2.75164
-2.67898
-2.63032
-4.36679
-4.12676
-3.97098
-3.74833
-3.51262
-3.28266
-3.08491
-2.94798
-2.88937
-2.89795
-2.91346
-4.32012
-4.09814
-3.93809
-3.71698
-3.47665
-3.24978
-3.0727
-2.98239
-3.00008
-3.11191
-3.24641
-4.22935
-4.02516
-3.85146
-3.62432
-3.37933
-3.15958
-3.01029
-2.97454
-3.07468
-3.28709
-3.5155
-4.15513
-3.90865
-3.70601
-3.47566
-3.23527
-3.03085
-2.91316
-2.92786
-3.09931
-3.39748
-3.72694
-3.67124
-3.48841
-3.31865
-3.1432
-2.96565
-2.82294
-2.76111
-2.8229
-3.03971
-3.37012
-3.66761
-1.43905
-1.90106
-1.69427
-0.840899
0.173579
0.779704
1.0355
0.933579
0.202148
-1.10816
-1.41129
-1.20448
-0.596963
0.175024
0.663227
0.884063
0.794493
0.201853
-1.02571
-1.27787
-1.13308
-0.530407
0.135758
0.55099
0.745632
0.673791
0.174241
-0.909583
-1.08283
-0.919867
-0.456748
0.0933828
0.457858
0.624355
0.571965
0.134604
-0.841803
-0.60867
-0.580328
-0.603902
-0.718495
-0.999255
-1.3535
-1.32006
-0.773018
-0.74296
-0.608398
-0.587929
-0.605383
-0.656171
-0.792807
-1.0011
-0.926611
-0.48855
-0.697834
-0.598299
-0.570658
-0.571261
-0.60125
-0.725456
-0.905789
-0.843396
-0.434141
-0.650916
-0.588027
-0.539765
-0.541404
-0.527995
-0.622519
-0.761251
-0.684015
-0.345846
1.07694
1.3365
1.33965
-0.198474
-0.283957
1.52896
-0.466868
1.49663
1.53503
1.12476
-0.298564
1.49462
-0.21609
-0.0753152
1.07248
1.34418
-0.0670368
-0.195068
1.34606
1.07508
1.20822
-0.327679
1.43926
-0.157739
1.31691
-0.0754336
-0.209818
-0.456951
-0.153997
-0.260556
-0.0680753
0.40818
-0.0356934
1.41214
0.343214
1.3504
-0.151094
1.32413
-0.0359605
1.55641
-0.0261923
1.41571
-0.0803774
1.44159
-0.486979
-0.190761
-0.157992
-0.447131
0.51408
1.62471
-0.263691
1.55121
-0.00545563
-0.0781148
1.62389
1.20305
-0.327581
1.54779
-0.207512
-0.0694908
0.105957
-0.00485785
-0.321929
-0.285016
-0.0527403
1.07549
-0.216339
1.69335
1.35018
1.12149
-0.118894
1.36874
-0.227528
1.49168
-0.125762
1.3654
-0.302247
1.42338
-0.39899
-0.488058
-0.117148
-0.285422
1.12111
1.13328
0.0390974
-0.22117
-1.19883
-0.00383599
-0.357643
-0.0882531
1.38173
1.54453
-0.0187783
1.51972
-0.449055
-0.63344
-0.115664
-0.120938
-0.327214
1.40035
0.155051
-0.491049
1.00962
0.1826
-0.301894
1.42813
-0.00851799
1.12364
-0.0335
0.875575
1.45943
1.41276
1.43768
-0.232569
-0.136525
1.10475
1.5649
1.44192
1.50821
0.931839
-0.242227
1.46696
0.43442
-0.0782287
-0.177555
-0.18342
-0.0166714
-0.00854512
-0.004874
-0.0260103
1.5104
-0.0702717
-0.45406
1.36102
1.39158
0.00575946
-0.279761
-0.280546
-0.215485
0.50507
-0.0510542
1.16574
-0.470178
0.724111
1.56685
-0.251395
-0.121517
1.69795
1.23855
1.55981
1.61999
1.4926
-0.248647
1.4627
-0.219747
-0.086888
-0.197691
-0.367048
-0.0736066
1.16802
-0.111096
-0.311188
1.36888
1.19194
-0.186161
-0.0974471
-0.368111
1.4875
-0.136435
-0.0654652
-0.0360006
-0.0232031
-0.110154
1.01412
0.433407
0.455762
-0.00260945
-0.262212
-0.512748
0.494858
1.68916
-0.318771
1.37524
-0.285713
1.48102
-0.24627
1.66224
1.43064
1.25106
-0.399954
-0.0393935
-0.112546
1.03583
-0.033969
1.35687
1.24311
1.5378
-0.331914
-0.0274473
1.11383
-0.26194
1.62162
-0.0763588
-0.0913256
1.38376
0.000252211
1.52313
-0.0022975
1.59466
1.06355
-0.100612
1.38141
0.871827
0.393504
1.43555
-0.049321
1.39042
-0.142979
1.67021
-0.177198
-0.0149924
-0.232603
-0.119585
-0.145441
-0.0674591
1.53974
-0.25023
-0.0793453
-0.0317622
-0.317407
-0.351359
1.02219
1.63396
1.44421
-0.248156
-1.10601
-0.161598
1.37333
1.48924
1.49009
-0.113478
-0.213579
0.159034
-0.0683326
1.58851
-0.337682
1.40703
-0.12167
-0.730054
-0.0745795
-0.116494
-0.111044
0.128373
1.16689
0.333726
1.53657
1.27818
1.32546
-0.262623
1.67868
-0.00275932
-0.102369
1.0485
1.43599
1.45826
-0.168963
1.14059
1.71009
-0.00796672
0.0703493
-0.32471
1.59575
1.61878
-0.161724
1.38892
1.43335
-0.0961472
1.41962
0.617687
-0.309083
1.3819
1.48141
-0.114664
-0.129426
0.387103
1.33588
-0.893756
1.49026
0.541589
-0.0690426
1.47463
-0.473634
1.1539
-0.0779161
1.35049
1.59116
-0.140565
1.45359
0.36599
-0.111187
1.51594
-0.269068
0.404333
-0.252362
1.2993
0.827645
1.43107
0.0127174
-0.3149
1.54039
-0.38161
1.43265
0.742979
-0.0238747
-0.36878
0.738308
-0.185751
-0.326046
0.893898
1.51255
1.63668
-0.0196982
1.3967
-0.144598
-0.319231
1.41343
1.41853
-0.175397
1.01366
-0.0597256
1.85951
-0.316577
-0.27053
1.44512
-0.206876
-0.851607
-0.213265
1.43562
1.41434
-0.0952729
-0.173219
-0.0789733
1.62882
-0.118149
-0.33717
0.00286015
-0.0985756
1.42012
-0.171097
-0.0266624
-0.380734
-0.115938
0.107659
1.33193
-0.048363
1.1133
-0.0122606
0.645104
1.43526
-0.0723313
0.0812773
-0.0875849
1.38792
1.1184
1.41316
-0.361714
-0.0237388
-0.0911928
-0.410077
0.592213
1.41181
-0.329417
-0.80459
-0.0384527
-0.0632276
1.47431
0.323578
0.34322
1.33495
1.54856
-0.0911531
1.26156
-0.262715
1.53644
-0.109378
-0.122416
-0.252321
-0.0647456
-0.20837
-0.372283
1.48959
-0.37242
-0.0259543
1.38159
-0.126125
-0.0563419
1.44073
1.53385
1.47938
-0.115434
-0.266965
1.10121
1.44599
-0.0401896
-0.00200422
0.00896305
-0.415938
-0.0311492
1.62451
-0.0145504
1.73788
1.34116
-0.0761029
-0.0718961
-0.238214
0.665206
-0.0440005
1.4768
-0.0137587
-0.390352
-0.255777
-0.0142453
-0.464292
-0.00976243
0.43498
0.926257
1.48041
-0.0144036
-0.0345204
-0.075808
1.4022
-0.301588
-0.124042
0.856366
0.0855944
-0.0361284
-0.206827
-0.235598
-0.0820396
1.39099
0.0624841
-1.22859
-0.154598
-0.257827
1.73476
-0.0781887
-0.0424857
-0.273235
1.21097
-0.327647
1.48989
1.13368
1.39848
-0.388869
-0.127025
-0.399454
-0.0358417
-0.317393
-0.00290822
1.20516
1.22305
-0.0275256
-0.0394733
0.297037
1.88388
-0.00761365
-0.00195614
1.10639
1.37679
1.83335
0.442483
-0.268087
1.53866
0.100652
1.77228
1.47586
1.58491
1.07194
-0.309562
1.64788
1.1556
1.2489
-0.286585
-0.30828
1.43455
-0.236374
-0.31501
0.75994
-0.044132
1.12169
-0.250409
1.25878
1.82501
1.54084
-0.00374402
-0.0739093
1.039
-0.122304
0.795877
1.7276
-0.165803
-0.173333
1.47436
1.15131
-0.731003
-0.0114581
-0.237643
1.88524
-0.452443
1.38967
-0.18431
-0.0691877
-0.376555
-0.0956629
0.152875
-0.153732
-0.102523
-0.117467
1.40371
-0.0811907
0.869487
1.47857
1.39325
1.47743
1.49209
-0.112749
1.50596
1.1311
-0.197977
1.51237
-0.194613
0.277733
-0.00765094
-0.117202
-0.368694
1.29817
1.37336
1.47707
-0.0710405
-0.303266
1.40641
1.20931
-0.0745977
1.4535
-0.151706
1.45485
-0.0377451
0.62361
-0.390634
-0.0457497
-0.0138896
-0.213923
-0.176172
1.31355
1.10014
1.20675
1.468
-0.0430017
-0.359689
0.990187
-0.0724309
-0.551811
-0.492045
1.34083
1.54808
1.42697
-0.0461171
-0.145163
-0.0161042
1.45557
1.55577
-0.129614
1.48928
-0.0782936
-0.0137903
-0.0390548
-0.357974
1.47461
-0.00971828
1.36875
-0.0997888
1.47712
-0.120506
-0.00332625
0.465741
-0.363505
-0.107333
1.48591
1.41985
-0.442149
1.17989
-0.113793
-0.225188
-0.129063
-0.0674098
-0.162687
-0.188058
1.16121
1.52992
1.48497
-0.647458
-0.155406
-0.0666154
1.05926
1.34428
-0.408842
1.68091
1.53429
1.64956
1.3006
-0.120706
-0.11237
-0.13455
0.0155575
0.523652
0.10479
1.15389
-0.170083
1.33859
1.51268
-0.73091
-0.0768895
1.37564
1.22519
-0.260895
0.992898
1.2001
0.104722
1.42393
1.27778
-0.181771
-0.0898921
0.183868
-0.0150723
-0.0149143
-0.402207
-0.0491975
0.0338001
-0.1709
-0.140009
-0.367967
-0.211576
-0.0883645
1.39151
1.47836
-0.323428
0.516683
1.53816
0.916561
-0.128411
-0.0809564
-0.698071
-0.118182
0.26936
1.43085
0.160851
1.3099
1.52446
0.825071
-0.206122
1.24368
1.94716
1.6745
1.46722
-0.217577
-0.0287711
-0.321137
1.33108
1.74559
0.655849
-0.0208007
1.51085
-0.460052
1.41366
-0.151682
-0.00409816
1.45787
-0.00349435
1.20949
-0.0405303
-0.235489
-0.115485
-0.677047
-0.0963226
0.0706265
1.12296
-0.01079
-0.0432675
-0.388182
-0.00739471
1.41087
0.713007
1.13048
0.0635334
1.56652
-0.205395
1.45077
1.54537
1.32823
-0.207635
-0.105083
1.31447
-0.00484957
1.4478
-0.0685983
-0.0773806
1.02221
-0.229316
-0.0876618
-0.0638414
0.404519
-0.196195
-0.192967
-0.153128
-0.0255051
-0.456939
1.4003
-0.125935
1.49115
1.88064
-0.376491
0.00307491
-0.259795
-0.070641
1.48517
1.25144
0.914225
-0.143486
1.21139
0.0067342
-0.0655344
-0.0347866
1.03004
0.260962
-0.0659621
-0.0639468
1.40993
-0.181749
-0.251075
-0.311722
1.46456
-0.091095
-0.587782
1.36804
-0.240213
-0.0151199
1.52273
-0.147208
1.55127
1.88556
0.806956
-0.0202905
1.38195
-0.0405093
1.42036
-0.0472567
1.29297
-0.0852599
-0.0194601
-0.0745608
-0.0202082
1.4171
-0.205858
-0.261863
1.15658
-0.0391965
0.361969
-0.0278935
0.151764
-0.359089
1.41889
-0.141237
-0.0563018
0.178945
1.5059
0.0161344
1.43166
-0.100721
-0.215682
1.3436
1.50982
0.172258
-0.320026
-0.0447738
-0.185102
1.49421
-0.118043
0.939707
1.40651
1.25495
1.43336
1.49286
1.6021
-0.00848575
-0.37577
-0.306537
-0.0267086
0.0300951
1.31133
1.50389
0.178759
-0.126383
1.38125
0.131833
-0.105189
-0.445891
-0.140308
-0.0148735
0.358849
-0.152147
1.30297
1.5061
-0.195439
0.981503
1.49479
0.856441
-0.00693256
0.0401398
0.060444
1.36175
-0.132641
-0.101473
-0.219583
1.49721
-0.0135157
-0.072096
-0.0983518
-0.167468
1.1662
1.50486
-0.192062
-0.124357
-0.0488029
1.13149
1.65698
1.51882
1.4818
1.4914
-0.0864887
-0.139835
-0.212691
-0.460627
-0.0503537
1.47518
-0.320534
1.21016
1.40388
0.403184
1.50548
1.44033
1.54082
-0.324542
-0.0187641
-0.0950435
1.43488
-0.156527
1.3557
1.41167
1.54128
1.236
0.936676
1.44825
1.39469
1.54235
-1.08243
1.44031
1.10833
0.0357133
-0.472384
1.70769
1.39677
-0.277739
-1.0151
1.8165
0.00384556
-0.116072
-0.172682
1.46609
1.31987
1.37443
0.688885
-0.00218137
1.48956
-0.197899
-0.0848173
-0.0390699
-0.0403369
1.45198
-0.0870095
1.03627
1.45713
1.42833
1.89981
1.42494
-0.127495
-0.18721
0.384387
-0.152055
-0.0178696
-0.075997
0.488246
-0.405721
1.42046
1.45175
-0.00830399
-0.0141104
-0.0931469
1.54981
-0.363649
1.4432
-0.187356
1.23839
-0.0107275
-0.0390994
-0.307367
-0.112535
1.05858
1.32374
-0.113735
-0.276627
0.00030023
0.0978322
-0.122991
1.05011
1.24472
-0.0255741
1.44405
1.39193
-0.112149
-0.0912246
-0.259171
-0.244201
-0.0164318
-0.0840452
-0.0474749
-0.773321
1.14507
1.06283
-0.019723
1.17113
0.114775
1.44514
-0.106331
-0.0839963
-0.032806
1.19052
-0.106254
1.4596
1.54539
-0.047024
-0.220475
1.62342
1.41998
1.53886
-0.0751306
-0.0206008
-0.390271
0.603061
1.06731
-0.000802399
-0.15249
-0.40158
1.14474
-0.0386905
-0.0428166
1.46772
-0.0175837
0.608632
-0.0964016
-0.162382
0.488753
-0.215527
0.706681
1.41552
-0.199015
-0.0773478
1.72294
-0.0362341
1.37901
-1.05817
-0.00200852
-0.459485
1.33089
-0.0131513
-0.230784
-0.238451
-0.0152175
-0.0419046
1.11873
-0.00522782
-0.297974
1.42967
0.830939
-0.0907641
-0.21405
-0.116193
-0.154346
1.52726
1.22334
-0.335917
1.79096
-0.0602505
-0.0712708
-0.00511686
-0.157203
1.48963
-0.189515
-0.317388
-0.0190568
-0.100517
-0.0694958
1.30141
-0.132209
-0.0166905
1.19243
0.666045
1.39488
-0.131531
1.0539
1.46949
-0.160319
-0.0334999
-0.0427226
1.45938
-0.389334
-0.207365
1.0741
-0.190522
1.40194
1.12264
0.468814
-0.465083
2.01088
-0.0359837
0.516595
-0.32233
1.44681
1.22949
1.12756
1.13189
-0.241549
-0.140928
-0.0258296
-0.476284
-0.12196
-0.719856
1.08113
0.813181
-0.271612
1.16899
-0.0393554
-0.0200763
0.417608
0.0669061
-0.167059
-0.127753
1.67775
-0.0566718
1.14839
-0.117918
1.45665
-0.697688
-0.14647
1.47667
-0.383312
-0.12807
1.45185
-0.170199
-0.0704478
-0.0235072
-0.127157
0.385394
-0.47187
-0.0212319
-0.244161
-0.21734
-0.128272
1.43019
-0.192921
1.61625
-0.15559
-0.0851415
-0.245067
0.327528
-0.117335
-0.455552
1.16563
1.67789
1.49249
1.45997
-0.074655
-0.146559
1.22995
-0.081371
-0.204246
1.97035
-0.347726
-0.424395
-0.0243485
0.0422378
-0.205879
-0.143305
-0.0240836
0.000167159
1.18341
1.23389
-0.17543
1.22983
1.38696
-0.162457
1.11887
1.60021
-0.133429
1.43254
-0.790792
-0.0513839
-0.200967
1.1706
-0.131643
-0.0594258
-0.0876039
-0.282045
1.14055
-0.0676795
-0.115996
-0.0635804
-0.00836399
1.32835
-0.0284823
0.988231
-0.235318
-0.0472567
0.686173
1.19526
-0.261161
0.289586
-0.211261
-0.323793
-0.156535
1.2426
1.38971
1.24875
0.165984
-0.0130439
-0.041912
-0.314515
-0.841709
1.29536
0.361385
1.02653
1.44298
-0.316821
1.09988
1.79799
0.00957766
-0.0370746
-0.483339
-0.322479
1.46037
1.38015
-0.0177456
-0.282711
-0.0463696
-0.568398
-0.128085
1.43875
1.65669
-0.0936033
-0.0241746
-0.0265927
-0.0835959
1.42119
-0.0860075
-0.0456589
-0.199477
1.44821
-0.178343
-0.391542
0.617166
-0.0968405
1.51839
1.01037
-0.290294
-0.0550668
-0.15746
1.14534
0.353637
0.242938
-0.240439
-0.22243
-0.111671
-0.260397
-0.0116018
1.5703
-0.485043
-0.248067
1.23066
-0.00445467
-0.0723631
0.803491
-0.0637313
1.19198
1.38514
1.26112
-0.113932
-0.00283096
1.40881
-0.10027
1.19605
1.43302
1.1139
-0.0917587
1.40577
-0.0940772
-0.176421
1.23018
-0.347758
-0.388553
-0.0941653
-0.312633
0.0291629
-0.146884
-0.00413458
1.50264
1.44114
1.4406
-0.0543996
1.1143
1.58392
-0.0793937
-0.317218
-0.0953118
-0.0464617
0.00308055
0.458228
-0.251463
-0.178458
1.3892
0.275572
1.35714
-0.0155213
0.909135
-0.0438593
1.22127
1.03123
1.49071
-0.298338
-0.0196296
0.808989
-0.133899
1.3841
-0.0436181
-0.02499
-0.249326
-0.108234
1.18708
1.06407
-0.0404269
-0.000368731
-0.0582031
-0.010824
-0.285211
-0.0370936
1.20686
-0.441248
-0.0283066
0.953885
-0.220087
-0.197112
-0.126802
-0.305975
-0.242161
-0.00255858
-0.392072
-0.0796744
1.39773
1.70082
-0.0370005
-0.143835
0.317152
1.42721
-0.0877992
1.36026
1.42911
-0.379614
1.12129
1.48652
-0.491056
-0.252298
1.60943
1.09592
1.534
1.41235
1.45577
1.48331
-0.218183
0.120948
1.37089
1.4502
-0.252962
1.47563
-0.0478625
1.41082
1.30822
1.48692
-0.135865
-0.426917
-0.13751
1.10286
1.45286
-0.07388
-0.0290169
1.19051
-0.0392568
-0.128453
1.514
-0.0835546
-0.0719815
-0.328141
-0.155361
-0.23991
1.48592
-0.219976
1.47606
1.22322
1.53829
0.195485
1.24496
-0.132656
1.51647
-0.285682
1.40301
1.23697
-0.295919
1.44106
1.30258
-0.258381
-0.0833691
-0.233515
1.29108
1.1666
1.4715
-0.0592217
-0.0339673
-0.193609
0.272383
-0.182595
-0.138805
1.49799
1.37435
2.00104
1.05162
-0.168992
1.52589
0.279697
1.47319
-0.326126
-0.0414429
-0.0916398
-0.103631
0.678857
0.400755
1.36501
-0.0281098
-0.362796
1.17507
1.23134
-0.058692
1.31844
1.65155
1.09415
-0.157347
1.3424
-0.24262
-0.340323
-0.0636017
-0.0752472
1.38289
-0.182458
0.510674
-0.532268
-0.119946
0.651137
-0.0502927
1.1029
1.4431
1.06239
1.35113
0.0935175
1.20648
1.47027
-0.0361203
-0.278658
1.53384
1.09168
-0.432529
0.0985943
1.14114
0.0598955
1.15844
1.30464
-0.128754
1.24548
-0.0556376
-0.0630946
1.19025
1.39082
-0.111577
-0.25452
1.06328
-0.0218615
1.361
1.41603
-0.090199
1.2038
-0.0944529
1.21337
1.53281
-0.248001
0.906288
1.88469
-0.895222
1.30491
1.72082
2.07348
1.86756
0.351156
0.419006
-0.133902
-0.165039
-0.332148
1.72114
1.53448
-0.240919
-0.00234966
1.24249
0.983512
-0.0879078
1.40397
-0.0188996
1.48515
-0.144992
1.52945
1.07524
-0.0180346
-0.149378
-0.0881673
1.35146
1.14359
0.94463
1.07562
1.48553
-0.119238
-0.0904181
-0.227271
-0.211325
-0.0522124
1.19652
1.52961
1.56576
-0.387532
0.931892
-0.0508096
-0.580271
1.47641
-0.0727831
-0.227951
1.81803
1.12219
0.507063
-0.176896
-0.123871
1.69573
-0.107078
-0.0346622
-0.270467
-0.0168243
-0.0787728
1.47295
-0.150062
-0.0048527
-0.435089
-0.188665
-0.198962
-0.0167296
1.25462
1.0505
-0.194489
1.35724
-0.0695678
-0.08667
-0.0394501
-0.133598
-0.129037
-0.2525
-0.00612861
-0.125917
1.48073
-0.14659
-0.0678646
0.289845
0.0369662
-0.26614
1.20936
-0.452747
1.47619
0.0117586
-0.636104
-0.159163
-0.0489753
-0.14096
-0.0224552
1.51909
1.51086
1.53558
1.24856
1.29864
0.357387
1.82714
-0.259002
1.56056
-0.0844263
-0.197057
1.36792
1.14016
-0.0941848
-0.135416
1.40835
0.759857
1.44403
1.49123
0.46731
-0.189005
1.26512
1.33807
1.29949
1.39912
1.5232
1.38919
-0.00597189
-0.250841
1.48062
0.0784969
1.38079
1.37346
0.394857
1.40809
-0.141978
1.05566
1.48525
1.57347
1.08624
-0.025027
1.69187
-0.0126257
-0.256053
-0.38458
-0.0606667
-0.0623114
-0.0314939
-0.034032
-0.0806198
-0.0292524
0.00111532
1.45892
-0.104544
0.969139
1.49687
1.38095
0.130226
-0.0324134
-0.0201637
1.13341
-0.224354
1.51529
-0.0671646
-0.0716223
1.40654
0.496624
1.50637
0.277101
1.23075