/*--------------------------------*- C++ -*----------------------------------*\
| =========                 |                                                 |
| \\      /  F ield         | OpenFOAM: The Open Source CFD Toolbox           |
|  \\    /   O peration     | Version:  3.0.1                                 |
|   \\  /    A nd           | Web:      www.OpenFOAM.org                      |
|    \\/     M anipulation  |                                                 |
\*---------------------------------------------------------------------------*/
FoamFile
{
    version     2.0;
    format      ascii;
    class       volScalarField;
    location    "0.00293203";
    object      epsilon;
}
// * * * * * * * * * * * * * * * * * * * * * * * * * * * * * * * * * * * * * //

dimensions      [0 2 -3 0 0 0 0];

internalField   nonuniform List<scalar> 
21246
(
674.11
181.145
60.9432
13.9845
2.92942
0.626116
0.149568
0.0460547
0.0211987
0.0139597
0.0114175
794.478
232.811
52.0392
14.8226
3.68711
0.881691
0.210574
0.0593289
0.0241316
0.0147163
0.0116259
817.51
258.098
46.9392
15.7283
4.2894
1.17371
0.288204
0.0772176
0.0280992
0.0157309
0.011927
795.669
231.284
43.3179
15.6199
4.3087
1.34336
0.347658
0.0936202
0.0318416
0.0166943
0.0123308
776.486
199.654
40.9378
14.7666
4.09877
1.41832
0.384767
0.107302
0.0353999
0.0176952
0.012738
777.285
180.216
40.5935
14.137
3.97803
1.43074
0.40622
0.117954
0.0384538
0.0185478
0.0130377
786.202
172.476
42.446
14.1727
4.03888
1.42564
0.420195
0.125893
0.0409109
0.019278
0.0133312
787.78
171.733
46.041
15.0053
4.27609
1.43208
0.431326
0.131469
0.0427081
0.0198488
0.0136313
787.248
174.725
50.9575
16.5976
4.68672
1.46551
0.442297
0.135223
0.0438928
0.0202308
0.0138407
788.113
180.614
57.0288
18.8789
5.26861
1.53163
0.454586
0.137689
0.0445174
0.0204188
0.0139647
781.307
187.112
63.3719
21.5352
5.95383
1.61729
0.46621
0.138782
0.0446065
0.0204167
0.014058
762.371
190.747
68.525
24.0064
6.60393
1.69577
0.472719
0.137984
0.0441549
0.020237
0.014047
738.725
190.381
71.8941
25.979
7.12798
1.75008
0.472186
0.135251
0.0432412
0.0198932
0.0139179
710.385
188.201
73.8669
27.6087
7.75804
1.87559
0.488787
0.136948
0.043604
0.0198221
0.0137486
678.469
180.316
72.8932
28.1772
8.24051
2.02901
0.519701
0.143138
0.0453895
0.0201672
0.0136233
645.329
168.791
69.5632
27.7752
8.57139
2.21004
0.568932
0.155322
0.0488887
0.0210302
0.0136264
611.086
157.149
65.1319
26.816
8.83435
2.44047
0.646959
0.17699
0.0549922
0.0226688
0.0138832
579.563
145.155
59.8323
25.3276
8.95704
2.69264
0.754814
0.211195
0.0649511
0.025464
0.0145415
553.103
134.72
54.6415
23.663
8.99014
2.96621
0.899004
0.263659
0.0813056
0.0302573
0.0158516
535.598
127.941
50.6512
22.2701
9.06076
3.29257
1.0951
0.344338
0.108806
0.0387804
0.0183535
534.351
127.312
49.1362
21.782
9.41151
3.7554
1.38064
0.47363
0.157283
0.054958
0.0234112
563.911
135.813
51.9513
23.2299
10.5786
4.60409
1.87302
0.709104
0.253777
0.0902041
0.0353648
658.657
169.223
66.2464
30.2985
14.507
6.84778
3.08908
1.31198
0.525027
0.202085
0.0784992
983.666
231.822
103.02
52.6104
27.8646
14.7169
7.61315
3.82718
1.86817
0.889179
0.414011
911.217
241.984
62.9531
15.0382
3.09066
0.649864
0.1523
0.0462816
0.0213033
0.0141649
0.0117584
1273.84
484.493
65.7755
18.9456
4.42027
1.06072
0.246042
0.0658787
0.0256539
0.0154322
0.0123794
1295.16
546.098
70.1265
22.4541
5.47153
1.4814
0.359912
0.0921229
0.0317366
0.0176477
0.0136956
1164.5
448.895
68.4658
22.6594
5.76097
1.7829
0.465192
0.119702
0.0386677
0.0198449
0.014753
1022.1
346.306
62.5852
20.5763
5.60316
1.92229
0.540764
0.144947
0.0453208
0.0217788
0.015548
916.574
277.422
56.7128
18.2268
5.33755
1.94865
0.587216
0.16599
0.0513221
0.0235414
0.0161897
844.915
236.004
52.9265
16.6362
5.14165
1.92682
0.612389
0.181569
0.0560247
0.0248259
0.0166914
791.597
211.152
51.2703
15.949
5.07516
1.90019
0.624452
0.192409
0.0595651
0.0258422
0.0172717
754.477
196.718
51.5402
16.0797
5.16214
1.89112
0.631898
0.200003
0.0622302
0.026624
0.017825
728.47
188.02
53.2766
16.8206
5.39856
1.89889
0.641638
0.205058
0.064434
0.0271863
0.0181294
709.814
183.37
55.9241
18.0404
5.74445
1.92487
0.654769
0.208581
0.0664152
0.0276289
0.0184106
691.191
179.266
58.5193
19.394
6.1127
1.95844
0.666117
0.211424
0.0683378
0.027947
0.0185465
672.392
174.69
60.7166
20.8858
6.60351
2.05707
0.69545
0.223044
0.0737518
0.0294901
0.0187802
651.528
170.753
62.5146
22.4471
7.27475
2.2504
0.753469
0.24583
0.0832833
0.0326674
0.0193503
628.722
164.839
62.8571
23.636
7.9961
2.52149
0.842591
0.280643
0.0973856
0.0378217
0.020522
604.82
157.846
61.9092
24.3692
8.71251
2.86727
0.970857
0.331316
0.117659
0.0456607
0.0226935
580.515
150.869
60.1625
24.7079
9.39909
3.28663
1.14969
0.404852
0.14736
0.0574811
0.026645
557.772
144.593
58.0661
24.7511
10.0343
3.77188
1.38987
0.51133
0.192101
0.0758467
0.0334296
539.399
140.154
56.358
24.773
10.6758
4.33899
1.71186
0.667995
0.262651
0.106328
0.0457291
529.548
139.362
56.1129
25.2996
11.5335
5.07271
2.16631
0.909445
0.380767
0.161502
0.0702635
536.359
145.034
58.9923
27.292
13.1182
6.23655
2.9008
1.32429
0.600045
0.273482
0.125237
578.107
165.132
69.2581
33.3171
16.9716
8.73641
4.44427
2.21972
1.09792
0.546204
0.271957
710.78
210.472
95.349
49.5024
27.2978
15.4394
8.79248
5.05202
2.9875
1.82834
1.13842
1373.99
538.184
265.649
143.937
81.3235
46.5387
26.5861
15.0806
8.51469
4.8263
2.73364
2624.79
1583.73
653.54
270.581
88.181
24.7288
6.11563
1.43385
0.375184
0.124681
0.0659651
2869.98
1735.37
929.562
462.687
203.525
73.7557
19.4859
2.87511
0.583061
0.159334
0.0718469
2082.32
1477.11
962.877
556.289
289.146
128.205
44.0112
9.60817
1.34236
0.227081
0.0791435
1117.13
1276.84
906.347
575.865
332.647
168.176
69.1641
19.9498
3.60157
0.473613
0.0943084
615.081
1183.06
833.17
558.984
346.021
191.37
89.0405
30.7603
6.9899
1.06621
0.16002
523.354
1023.12
746.292
524.429
340.634
200.965
101.931
39.6217
10.5484
1.92114
0.292
554.946
769.054
650.713
480.79
323.198
199.723
107.329
44.8789
13.227
2.76139
0.464386
487.206
559.275
538.408
428.981
297.106
189.287
105.111
45.6704
14.325
3.30495
0.617261
400.977
403.752
417.514
362.53
265.097
171.124
96.0708
42.323
13.7959
3.43536
0.702752
306.041
285.267
308.614
286.821
224.279
147.129
81.9523
36.102
12.0942
3.20279
0.711859
219.671
195.004
218.081
213.152
176.039
118.262
64.7811
28.423
9.76177
2.73085
0.652248
150.908
128.122
146.972
148.603
127.463
86.8941
47.0104
20.6242
7.28682
2.15321
0.552881
100.018
80.5848
94.307
97.1332
84.8898
57.8055
31.252
13.8473
5.07885
1.59625
0.4455
64.3003
48.5079
57.6217
59.494
51.7299
35.0739
19.1256
8.68781
3.36356
1.14446
0.350147
40.5024
28.1716
33.6047
34.0817
29.0033
19.6138
10.9038
5.20697
2.19405
0.832243
0.284643
25.4388
16.0486
18.7383
18.3465
15.195
10.3299
6.02518
3.18148
1.54049
0.675594
0.258352
16.5893
9.20909
10.0407
9.41856
7.66179
5.41661
3.5519
2.27399
1.35817
0.700656
0.287206
12.186
5.54188
5.3554
4.83455
4.02919
3.23269
2.6887
2.28738
1.72235
1.02139
0.438465
10.8395
3.85875
3.14544
2.8067
2.64276
2.76029
3.14894
3.40793
2.94631
1.88933
0.833127
11.6638
3.43815
2.37431
2.25362
2.72871
3.87513
5.4468
6.47606
5.85852
3.89071
1.76631
13.8871
3.72068
2.45286
2.84397
4.38024
7.00909
9.92248
11.577
10.7361
7.73561
3.95246
17.5482
5.03903
4.35989
6.15357
9.64728
14.3638
19.2683
22.7768
22.4929
17.3388
10.0467
30.0305
10.8045
13.5515
16.7791
20.8833
24.6369
26.8879
27.4315
25.9633
21.5081
14.0967
174.746
91.6049
55.2901
37.5389
27.6343
21.1175
16.6839
14.0637
12.7305
11.2445
8.27348
2824.4
823.117
354.147
139.042
47.3142
14.0671
3.80772
1.01123
0.290232
0.105453
0.056493
2360.61
583.7
273.34
119.207
44.3668
13.9933
3.85914
1.01063
0.282024
0.0988463
0.0516274
1597.55
535.507
257.8
122.141
48.7854
15.953
4.36865
1.09965
0.290278
0.0954223
0.0474925
1218.07
466.882
245.115
123.755
52.5646
17.9316
4.92308
1.19521
0.300573
0.0938885
0.0453302
898.209
349.231
193.493
111.713
53.2092
19.389
5.41963
1.27391
0.30374
0.0899963
0.0415234
685.387
261.391
145.055
86.0482
45.3371
18.9922
5.85656
1.37899
0.309165
0.0867393
0.0392461
530.391
196.09
108.245
64.3199
34.3021
14.9648
4.9506
1.26052
0.297176
0.085179
0.0392163
411.333
146.091
79.7654
47.4268
25.4281
11.1725
3.72267
0.974825
0.248819
0.0787361
0.0374824
318.806
107.606
57.976
34.3129
18.3934
8.14845
2.76368
0.752374
0.206268
0.072166
0.03888
246.66
78.841
41.547
24.3621
13.0494
5.8093
2.00418
0.568564
0.165791
0.0627544
0.0382707
189.837
57.2123
29.3833
17.0881
9.15691
4.10289
1.44702
0.431464
0.13415
0.0530243
0.033584
145.189
41.0034
20.4969
11.8634
6.38641
2.89898
1.0568
0.336413
0.113588
0.0471275
0.0286058
110.945
29.131
14.165
8.1969
4.46236
2.07364
0.792833
0.273464
0.101626
0.0456242
0.0290168
84.939
20.6316
9.75159
5.6757
3.15512
1.52234
0.620574
0.234037
0.0949948
0.0452931
0.0297478
65.6749
14.6254
6.7238
3.96515
2.27836
1.16177
0.514116
0.213132
0.0930127
0.045589
0.0290518
51.8181
10.5221
4.69335
2.82412
1.7009
0.935425
0.458165
0.209546
0.0966868
0.0475626
0.0283439
42.2706
7.97204
3.40594
2.0832
1.33138
0.807597
0.448307
0.228352
0.109612
0.0528668
0.0291381
36.2213
6.48437
2.62485
1.6171
1.10376
0.749988
0.480513
0.27726
0.140454
0.0653683
0.0341939
33.2449
5.80812
2.21567
1.35596
0.987585
0.757214
0.564954
0.374774
0.204746
0.09283
0.044026
33.5526
5.9246
2.13672
1.27422
0.979222
0.844178
0.732159
0.563012
0.34178
0.156988
0.0661884
38.7103
7.1756
2.48229
1.41092
1.11389
1.05651
1.0449
0.924557
0.638422
0.319377
0.124912
54.4174
10.799
3.69582
1.96433
1.51438
1.4979
1.61586
1.60305
1.26792
0.734134
0.309237
104.123
22.7411
8.00176
3.89328
2.68355
2.49767
2.72127
2.89135
2.56955
1.73212
0.844482
352.772
50.678
19.8723
9.86894
5.75618
4.41258
4.40259
4.77055
4.70432
3.73676
2.20237
1538.22
509.204
216.085
86.8048
30.1866
9.05862
2.42866
0.621385
0.169084
0.0629151
0.0400464
1110.46
309.958
151.738
69.8723
27.7547
9.27759
2.63207
0.67315
0.173873
0.0570987
0.031732
692.691
241.861
128.36
66.7099
29.6747
10.78
3.17585
0.805653
0.202946
0.0632346
0.0314729
470.78
177.115
104.412
61.1022
30.4502
12.1202
3.7424
0.933329
0.223839
0.0674624
0.0324419
331.54
123.193
72.5959
45.9023
26.0923
11.9568
4.13469
1.07198
0.242464
0.0659482
0.0295008
246.541
87.2286
50.7355
32.5663
19.3857
9.57611
3.57377
0.975103
0.228066
0.0636097
0.028128
182.506
61.3574
35.0815
22.6846
13.8144
7.07548
2.7574
0.788473
0.196545
0.0600417
0.0284799
133.428
42.4022
23.7269
15.3599
9.48891
4.96487
1.98773
0.593426
0.160182
0.0545406
0.0293952
96.3671
28.7067
15.7029
10.1715
6.3416
3.36105
1.3737
0.431241
0.128573
0.0488843
0.028286
68.778
19.1261
10.2279
6.64529
4.18061
2.24017
0.936868
0.31347
0.104861
0.0442173
0.0259615
48.5103
12.5582
6.59026
4.31748
2.75062
1.49605
0.646234
0.233914
0.0880586
0.0406796
0.0248743
34.3236
8.19348
4.2461
2.82318
1.83199
1.01946
0.46078
0.182259
0.0763948
0.0380213
0.0243208
24.8442
5.41502
2.7856
1.89368
1.2622
0.726548
0.347783
0.150427
0.0688322
0.0360939
0.0237582
18.5973
3.70444
1.89904
1.33209
0.92231
0.555906
0.283943
0.133041
0.0648638
0.0350056
0.023298
14.7287
2.68115
1.38042
1.00774
0.732393
0.466784
0.254576
0.127126
0.0644855
0.0351793
0.0232318
12.5445
2.10348
1.09803
0.840586
0.647229
0.439132
0.254322
0.13242
0.0680736
0.0367297
0.0235834
11.504
1.81725
0.970897
0.785356
0.646676
0.470108
0.287421
0.152304
0.0768301
0.0398872
0.0244746
11.4971
1.76119
0.968964
0.829554
0.734579
0.576392
0.372638
0.197478
0.0943299
0.0456516
0.0266704
12.6218
1.96872
1.10577
0.989745
0.939794
0.801832
0.557257
0.296271
0.129967
0.0561852
0.0302812
15.2985
2.52304
1.43457
1.31966
1.32771
1.22337
0.920916
0.51417
0.214037
0.0795562
0.0363088
20.7354
3.70445
2.09521
1.93717
2.01911
1.97389
1.6058
0.975992
0.418398
0.141345
0.0511603
32.4202
6.17415
3.45384
3.07664
3.20981
3.23778
2.80793
1.88948
0.905879
0.318875
0.0981141
59.5686
12.6239
6.36802
5.35185
5.31052
5.31664
4.80002
3.5548
1.97946
0.809754
0.26099
164.69
20.3267
13.7627
10.1079
9.11401
8.65595
7.81484
6.1949
4.01275
2.02736
0.793048
1614.38
959.049
398.654
164.908
56.3359
15.7379
3.66254
0.860951
0.21603
0.0725839
0.0432494
1798.66
1070
558.432
277.189
123.988
41.2433
7.62711
1.55016
0.346912
0.0935142
0.0447179
1235.39
881.193
554.901
317.744
165.89
69.1533
16.7174
2.89714
0.601577
0.137872
0.0546659
690.193
739.873
500.825
312.708
179.96
86.2174
26.4407
4.82776
0.984595
0.201764
0.0652639
458.594
662.793
439.248
289.469
177.588
92.9011
32.7816
7.18219
1.47739
0.283714
0.0732377
464.268
529.805
381.084
262.474
167.455
92.2992
35.4587
9.15444
2.01229
0.384517
0.0900335
432.155
408.264
321.135
233.493
154.169
87.4444
35.1675
10.2651
2.49838
0.481964
0.108667
368.51
309.5
260.393
199.211
135.914
78.7508
32.886
10.3574
2.75946
0.575893
0.128332
298.445
229.68
202.456
161.418
113.254
66.5262
28.574
9.52809
2.73866
0.625842
0.147282
231.171
165.656
150.516
123.521
88.3834
52.1981
22.7258
8.02212
2.46862
0.619443
0.156189
173.093
115.996
107.034
89.2103
64.2939
37.743
16.4874
6.21362
2.05255
0.572591
0.154019
125.897
78.4672
72.7516
60.6774
43.3718
24.814
11.1048
4.47075
1.60649
0.508683
0.149936
89.4499
51.203
47.3272
38.8535
26.9771
15.0304
7.03527
3.07568
1.23934
0.458162
0.152749
62.2565
32.2923
29.5267
23.3704
15.5772
8.64675
4.34258
2.15964
1.02752
0.454302
0.167912
42.5419
19.8011
17.6432
13.306
8.59574
4.93702
2.85045
1.76599
1.05809
0.566855
0.231957
28.818
12.0576
10.1922
7.3485
4.78748
3.13467
2.36722
2.00064
1.53395
0.964792
0.411679
20.0596
7.49027
5.85016
4.1852
3.07114
2.68956
2.89985
3.20114
2.85651
1.95111
0.884991
15.4714
5.03999
3.62686
2.8466
2.76134
3.4751
4.87849
6.09442
5.81537
4.33532
2.36131
14.5775
4.19569
2.90062
2.78709
3.68592
5.84439
8.9932
11.2505
10.6046
8.42333
5.02096
17.5987
4.88774
3.40277
3.85216
5.89191
9.6531
13.9148
16.1477
16.5919
13.8577
9.00863
25.8851
7.65868
5.2699
6.16845
9.30561
14.035
19.1026
24.01
24.8778
21.0039
13.9514
44.1149
13.2944
9.25722
11.0737
15.7762
22.121
28.199
29.3495
27.035
22.1525
14.91
90.4809
32.0855
25.4494
29.557
33.3484
34.2779
30.7903
25.7493
20.6122
15.3882
9.88604
277.535
146.144
91.566
61.5175
43.0439
30.7407
22.3155
16.2858
11.4785
7.3637
4.01652
364.515
378.926
390.21
387.547
367.083
329.223
265.069
184.109
130.369
112.9
110.522
112.587
116.127
120.837
126.83
123.758
108.795
96.3033
54.3123
52.3664
50.2631
50.0721
54.7771
68.2278
81.985
86.5894
85.9663
24.0301
23.0315
22.0682
23.1733
26.7809
34.9285
48.2188
59.5072
69.755
397.843
394.513
385.557
358.176
317.939
255.633
177.233
116.754
122.541
119.443
120.052
122.93
124.141
127.385
122.756
107.393
90.0687
93.4254
55.3823
53.7911
53.4573
56.5989
68.6278
81.1344
85.9755
81.2756
85.91
23.7835
23.7706
24.609
27.1693
35.0804
46.8013
58.3218
65.0697
74.4225
0.0100641
0.0119843
0.0106403
0.00960963
0.0131192
0.00985956
0.00989408
0.0107462
0.00940141
0.0104383
0.0125246
0.0103114
0.00966132
0.0100661
0.00958915
0.00974291
0.0116808
0.00951697
0.00962731
0.0103021
0.010799
0.00964385
0.0184282
0.0110102
0.0104667
0.00981758
0.00953321
0.00974182
0.00996608
0.0102587
0.0112065
0.0094677
0.0123587
0.0126295
0.0120856
0.0114887
0.0102988
0.00983395
0.0180985
0.00958062
0.00977004
0.0118658
0.00902806
0.0191588
0.0103561
0.010246
0.00954151
0.0103788
0.00969531
0.0146438
0.00999816
0.00955922
0.012749
0.00920114
0.0125404
0.0107484
0.0100287
0.0100033
0.0100413
0.00937774
0.0115302
0.0150004
0.0110965
0.00946334
0.00982471
0.00987285
0.0112325
0.012668
0.0118128
0.0105729
0.0104228
0.0107602
0.00946247
0.0103673
0.0104116
0.00938183
0.0106498
0.0101305
0.00898086
0.0102799
0.0101563
0.0101341
0.00897835
0.0121844
0.0101057
0.00930923
0.0112243
0.0127782
0.00914184
0.00997513
0.0108353
0.00998272
0.0111172
0.0114048
0.0097601
0.00993082
0.00950066
0.0113658
0.00934659
0.01353
0.00962508
0.0111687
0.00982423
0.00894659
0.0095742
0.0105304
0.0112948
0.0145884
0.00980712
0.0110298
0.0122517
0.0101791
0.0164777
0.0113873
0.010464
0.0102585
0.0101277
0.00980998
0.0125515
0.00909382
0.0122056
0.0104274
0.0107405
0.0101365
0.00957028
0.00999235
0.0123457
0.0134678
0.0101917
0.010749
0.00961013
0.00943968
0.0110568
0.00944078
0.0187453
0.00990816
0.0118038
0.00966656
0.010845
0.0117725
0.00919551
0.0092963
0.010434
0.0109209
0.00963629
0.0090564
0.0108986
0.0123089
0.012639
0.0117706
0.00945077
0.0151475
0.00968479
0.0102163
0.0106594
0.0089891
0.00947197
0.00913528
0.00918319
0.0139797
0.00901913
0.0127397
0.0105419
0.0122632
0.0113403
0.011924
0.00934355
0.0116543
0.0108249
0.00980113
0.00958125
0.00963423
0.016497
0.00959775
0.00966637
0.00941513
0.00918346
0.00972762
0.00985602
0.00931403
0.010812
0.0102404
0.0152634
0.0101437
0.0142103
0.00962134
0.0100703
0.0110424
0.00963068
0.00901317
0.0107413
0.0114877
0.0107973
0.00969002
0.0132825
0.0106096
0.0110401
0.0100782
0.010861
0.018371
0.00902936
0.0100146
0.0100051
0.00971753
0.0267904
0.0156001
0.0109638
0.0110361
0.0112049
0.00900073
0.0109791
0.00926317
0.00901114
0.0106141
0.00986737
0.0135349
0.0106067
0.0101537
0.0099937
0.0105765
0.0111066
0.0109619
0.00946
0.0107738
0.012446
0.00960082
0.0116089
0.00966526
0.00920889
0.00964612
0.0100319
0.0099417
0.00954007
0.0098891
0.00948328
0.0102295
0.00935365
0.0137693
0.00933319
0.00939978
0.0106401
0.0103152
0.0091221
0.0100882
0.0129076
0.0120338
0.0120522
0.00956707
0.0162904
0.0092717
0.00973029
0.0113482
0.0153357
0.00945614
0.0114327
0.0102358
0.0103626
0.0107554
0.0119619
0.00989413
0.00915216
0.0109228
0.00924113
0.011208
0.0128828
0.010744
0.00943036
0.0123942
0.0146566
0.00906861
0.00885767
0.00922513
0.00969452
0.0098608
0.0113468
0.0094688
0.0113559
0.00973151
0.0101532
0.0102177
0.0107976
0.0151413
0.0103005
0.00922338
0.0116638
0.0105631
0.011327
0.0132971
0.00977723
0.00982362
0.0120084
0.00983955
0.0106327
0.0101082
0.0243237
0.0111406
0.0105932
0.0104452
0.0111797
0.00984981
0.00950508
0.00931341
0.0101612
0.0102416
0.00964618
0.010718
0.0107643
0.0109647
0.00949235
0.0114926
0.0108296
0.0103509
0.00966285
0.0112301
0.00966879
0.0102105
0.00917147
0.00891695
0.00905184
0.0132896
0.0111109
0.010225
0.00936268
0.00904535
0.0108365
0.0286264
0.0101561
0.00937663
0.00973985
0.00972046
0.0126886
0.00990725
0.0103305
0.0123742
0.0113184
0.0100987
0.00956904
0.0129052
0.00919803
0.01069
0.0116415
0.0107307
0.00973024
0.00989493
0.00932439
0.0102217
0.0102913
0.00988023
0.0125007
0.0174539
0.0112366
0.012771
0.00873943
0.00957475
0.00932345
0.0129332
0.0123202
0.00886252
0.0187344
0.0094288
0.00952298
0.0100229
0.0102079
0.00925528
0.0142066
0.0092927
0.0100415
0.0111051
0.0104378
0.0106239
0.00951671
0.0111883
0.0105457
0.00959065
0.00989677
0.0118615
0.00951441
0.0117429
0.0105539
0.0104523
0.0155427
0.00996332
0.0141478
0.0115908
0.0109768
0.00908352
0.00919696
0.011754
0.0100492
0.010171
0.0158238
0.00958312
0.0104999
0.013067
0.00873331
0.00950108
0.00970683
0.0107569
0.022245
0.00935816
0.0129153
0.00998568
0.0133329
0.00972578
0.0100944
0.00940442
0.00922648
0.0130138
0.0111121
0.0103956
0.0202707
0.0098181
0.00935284
0.00955593
0.0111757
0.0102637
0.0108874
0.0117683
0.0100128
0.0097192
0.0125393
0.00949577
0.0105536
0.0107217
0.00916705
0.0120607
0.0103488
0.0110356
0.0149368
0.0112354
0.0109926
0.0124846
0.00887998
0.009076
0.014821
0.0103083
0.00919551
0.0109766
0.0097679
0.014985
0.0105701
0.011121
0.00945955
0.00917826
0.00879979
0.0106222
0.012468
0.0126459
0.0094977
0.0130244
0.0164864
0.0104836
0.00968277
0.00966795
0.012755
0.0106201
0.00980887
0.00904124
0.00979264
0.0117762
0.0101418
0.013155
0.00914767
0.0102839
0.0170826
0.0839053
0.0684895
0.0900734
0.0907773
0.0107285
0.00907344
0.00962895
0.01341
0.0113469
0.0109165
0.0109749
0.00936833
0.0287635
0.0128253
0.00961274
0.0114804
0.0124336
0.0103861
0.0115271
0.0192512
0.0197963
0.0095111
0.00910025
0.00911812
0.0098272
0.010291
0.0094537
0.0095415
0.011713
0.00997127
0.00882617
0.0129871
0.00922227
0.00925155
0.0114665
0.0102451
0.00960362
0.0102562
0.0121954
0.0126339
0.00966778
0.0105236
0.0145032
0.0111532
0.0149435
0.0106205
0.00892031
0.0110279
0.0106453
0.00969769
0.00909805
0.0109051
0.00918653
0.0109975
0.00956473
0.00911719
0.012912
0.0108514
0.0113288
0.0194504
0.016283
0.0108817
0.0104875
0.0128367
0.00969489
0.0126142
0.0107525
0.014402
0.0100886
0.00909154
0.0655659
0.0114956
0.0269311
0.0102221
0.0146722
0.0112869
0.0102693
0.010831
0.0120497
0.00939087
0.0111696
0.0111933
0.0101196
0.00940905
0.0097906
0.00915569
0.0120352
0.010983
0.00957468
0.01038
0.0109494
0.0106854
0.0100634
0.0105317
0.0115195
0.00991015
0.0102593
0.0100249
0.0121025
0.010398
0.00998703
0.0119694
0.00921229
0.0138875
0.0130955
0.0123254
0.00960507
0.00998657
0.00934624
0.0121026
0.0153129
0.00889829
0.0147972
0.0107005
0.013204
0.0106027
0.00941475
0.0103219
0.00969675
0.0101612
0.00961196
0.00968896
0.0146352
0.0199827
0.00950205
0.0102784
0.0106275
0.0151657
0.00966168
0.0103015
0.0114434
0.0111866
0.01053
0.0103108
0.0133355
0.0101726
0.0114474
0.0100945
0.0123622
0.01077
0.0101176
0.009776
0.0121599
0.0133628
0.00975115
0.00929587
0.00888473
0.00936275
0.0141758
0.00984512
0.0128562
0.00903054
0.0165007
0.0105861
0.00946882
0.0137029
0.017892
0.00906434
0.00974588
0.0117112
0.0103818
0.00902594
0.0117375
0.00995134
0.0114606
0.0106708
0.00945863
0.0102692
0.012487
0.0102959
0.0131522
0.010409
0.0128545
0.0116212
0.00899927
0.00984724
0.00915416
0.00902803
0.0149528
0.0110903
0.0104573
0.00919786
0.0127478
0.0121657
0.00910207
0.00927988
0.0172591
0.00877869
0.014058
0.0100093
0.011444
0.0118793
0.0112515
0.00984118
0.0104848
0.017501
0.0152025
0.0105595
0.0106607
0.0144953
0.0209059
0.00938848
0.0115979
0.00951512
0.00929716
0.00985105
0.0145341
0.0119484
0.0173532
0.0139712
0.0103888
0.011303
0.0094666
0.0188158
0.0105886
0.0203293
0.00939182
0.0126274
0.00872771
0.00958672
0.0125983
0.0113846
0.0091408
0.00956294
0.0159714
0.00971529
0.0101831
0.0123797
0.00903132
0.00987081
0.0132376
0.0149866
0.0107394
0.0101746
0.00920382
0.0113028
0.0120748
0.00931026
0.01069
0.00993134
0.00935442
0.0143074
0.0283521
0.0100225
0.00911737
0.0119019
0.00920238
0.00965542
0.0179525
0.00983106
0.0101813
0.0115481
0.00975957
0.00962629
0.0123765
0.0112516
0.0105023
0.00999235
0.009931
0.0100471
0.0106987
0.00965435
0.00981795
0.0123415
0.00956253
0.00932264
0.0115973
0.0130641
0.0100518
0.0101873
0.00968343
0.0101316
0.0117628
0.0133527
0.00911145
0.0100339
0.0102409
0.0104155
0.0120244
0.0116908
0.0104565
0.00978991
0.0190672
0.0142143
0.00950928
0.0114272
0.00935334
0.0100591
0.0091897
0.0121449
0.0108237
0.010986
0.00983108
0.0100294
0.0117985
0.00986914
0.0106258
0.00916744
0.0107619
0.01084
0.0102987
0.00889462
0.0114086
0.0134924
0.00924362
0.0108265
0.0101668
0.00963148
0.0171256
0.00985526
0.00954818
0.00982977
0.00917551
0.0111105
0.0174777
0.0120605
0.00978678
0.00959354
0.0124592
0.0119674
0.00996659
0.0102222
0.0102982
0.00986957
0.00927588
0.0121381
0.00980107
0.0117141
0.00980801
0.00938477
0.010749
0.010807
0.0104564
0.010614
0.0092609
0.00983923
0.0104544
0.0189146
0.00886609
0.00994016
0.0108565
0.0122841
0.00987238
0.01031
0.0099569
0.0100831
0.00975626
0.00947536
0.0107229
0.0102961
0.0120021
0.0117038
0.00981751
0.0101268
0.0114047
0.00931518
0.0121291
0.0101992
0.0104142
0.009506
0.0111122
0.0111867
0.0113005
0.0204855
0.00983001
0.00922157
0.00920611
0.0106499
0.00965138
0.0114192
0.0110003
0.00941166
0.00984818
0.0118149
0.00943064
0.0139866
0.0110838
0.00933286
0.0103792
0.0114885
0.0204602
0.0113964
0.0108964
0.00942799
0.0190532
0.00995884
0.00957014
0.0103258
0.00909356
0.0157447
0.00970176
0.0113427
0.0183433
0.0110759
0.0122449
0.00943166
0.010798
0.0105745
0.00994122
0.0120689
0.010219
0.00981614
0.010906
0.0109529
0.011191
0.00973554
0.0097534
0.012783
0.0120856
0.00963542
0.010536
0.0129739
0.0269762
0.0138946
0.0195048
0.0103276
0.00923073
0.0163781
0.0153636
0.0096825
0.0103332
0.00982916
0.010757
0.00970846
0.0232202
0.0119609
0.00978066
0.0155549
0.00969023
0.0104681
0.0107056
0.0130349
0.0119576
0.00964734
0.0111363
0.0093656
0.014071
0.0199759
0.0119202
0.00987533
0.0123235
0.00992057
0.011101
0.00880072
0.0149279
0.00964231
0.0102415
0.0105939
0.0126678
0.0103996
0.0101098
0.0102165
0.0141898
0.0112956
0.00923263
0.0137468
0.018675
0.0109091
0.0115814
0.0113414
0.0117577
0.0117781
0.0158355
0.0102132
0.0122694
0.00979353
0.0127657
0.0130893
0.0114449
0.0129838
0.0126151
0.0107306
0.00938429
0.0150134
0.011237
0.0137766
0.0101939
0.0115844
0.00952283
0.0118027
0.0111353
0.00914487
0.0142802
0.00956383
0.0110328
0.0103713
0.0111778
0.0093684
0.00982719
0.0112651
0.0119536
0.00950809
0.00977438
0.0109788
0.00963718
0.00969159
0.0092262
0.0114617
0.0136352
0.0110683
0.0132529
0.0125771
0.0107026
0.0089383
0.0105507
0.00996269
0.010978
0.00968737
0.0115937
0.00910055
0.0103814
0.00980704
0.0103036
0.0117823
0.00997517
0.014724
0.00965002
0.0107771
0.00978235
0.0306223
0.010681
0.00925657
0.012596
0.0195388
0.0132349
0.0102901
0.00976313
0.00885395
0.0112194
0.00931885
0.0103078
0.00956646
0.0105045
0.0107647
0.00959178
0.00904276
0.011265
0.00900801
0.0172578
0.00962604
0.00981535
0.00920677
0.0114532
0.00967048
0.0118984
0.0103073
0.00987191
0.00897172
0.0147868
0.012484
0.0111736
0.0170628
0.0105503
0.0122979
0.0126476
0.0100535
0.0108224
0.0116861
0.0101895
0.011219
0.0090738
0.00941176
0.00879723
0.0107725
0.0105689
0.013625
0.0112139
0.0165397
0.0158238
0.00963257
0.00933637
0.0113813
0.00965236
0.00877429
0.0111709
0.00967818
0.0105091
0.0109187
0.0116263
0.0102748
0.0140465
0.00925107
0.0116282
0.00938904
0.0219254
0.00953211
0.0107764
0.010472
0.0110742
0.0111939
0.00942033
0.0101562
0.0109207
0.013701
0.0113309
0.116259
0.0132398
0.00953369
0.0110984
0.00936057
0.00993233
0.018404
0.0139602
0.0110496
0.00932281
0.0127445
0.0121271
0.0107058
0.0114847
0.0104562
0.0117974
0.0103378
0.0108743
0.00892006
0.0114526
0.0105405
0.00934633
0.00993995
0.0100528
0.00880762
0.010669
0.0117186
0.0106284
0.0138648
0.0130275
0.00930872
0.0093427
0.0186904
0.00951873
0.00965816
0.0149228
0.0103686
0.0113229
0.0102597
0.0115865
0.00972403
0.0102846
0.0100715
0.0101731
0.0104755
0.00936104
0.00968353
0.0116342
0.0161002
0.0094722
0.0104963
0.00954352
0.00993317
0.0101695
0.00994813
0.00904174
0.0105735
0.0094206
0.00914491
0.0101516
0.0108338
0.0104028
0.0109788
0.00912061
0.00921838
0.0157994
0.0100161
0.0191053
0.01022
0.0135869
0.0111909
0.00938567
0.00902292
0.0102908
0.00920166
0.00938401
0.0122991
0.0111191
0.0100563
0.0090543
0.0142733
0.00935875
0.00905831
0.0117122
0.0109263
0.00994156
0.0124554
0.00966016
0.0179777
0.0176022
0.0142543
0.0118809
0.00942045
0.00974574
0.00996905
0.00945776
0.0107817
0.00959339
0.012883
0.0110948
0.00920872
0.0118257
0.00999736
0.0101286
0.010111
0.0138412
0.00970066
0.00933066
0.0100855
0.0406662
0.00946219
0.0125373
0.011847
0.0105616
0.00896808
0.0105532
0.0144459
0.00993835
0.00985137
0.0112687
0.0111555
0.0131304
0.0109796
0.0203409
0.00925584
0.0101555
0.00922716
0.0103385
0.00935788
0.0128637
0.010234
0.0108948
0.0105284
0.0107568
0.0106436
0.0101867
0.0165422
0.0117126
0.0103927
0.00967157
0.00956974
0.012271
0.0105015
0.0158521
0.00992459
0.0110159
0.00962981
0.0117723
0.0103909
0.0099182
0.0170205
0.0110632
0.0102754
0.00933712
0.0108829
0.00970415
0.0159786
0.00940164
0.00970113
0.0110435
0.01111
0.00922093
0.0103398
0.0111405
0.0100844
0.0102891
0.0108615
0.00956307
0.0106685
0.010124
0.0138171
0.00897633
0.0149622
0.0101279
0.00981886
0.0106943
0.0102719
0.0174931
0.0114774
0.00990073
0.0107007
0.00932738
0.00946374
0.0119408
0.0104106
0.0113211
0.0117674
0.00984627
0.0148209
0.0111984
0.0181183
0.0127356
0.0209627
0.0112711
0.0121296
0.00993186
0.0218
0.0126134
0.0108442
0.0112966
0.0109566
0.00974896
0.0100191
0.00930334
0.0104182
0.0102456
0.0102003
0.00963616
0.0133449
0.00888009
0.00903793
0.0110078
0.0165291
0.00954657
0.0117579
0.011085
0.0101384
0.0127858
0.0106253
0.00909444
0.0102627
0.0100352
0.0137426
0.0109533
0.00975702
0.00982826
0.0379593
0.00943245
0.00915435
0.00997504
0.00944944
0.00972341
0.0112355
0.220799
0.0110316
0.00948042
0.00939042
0.00987239
0.0111255
0.0114175
0.010335
0.0106116
0.0114244
0.00949353
0.0144279
0.00933236
0.00947707
0.0126893
0.00903626
0.0102079
0.009443
0.00979002
0.0111278
0.0107234
0.0100406
0.00959433
0.00969504
0.00976917
0.010322
0.0102577
0.0145866
0.0163988
0.0138543
0.0107135
0.0113386
0.0108147
0.0214781
0.00947827
0.00957217
0.013822
0.0100181
0.00941929
0.00913561
0.010219
0.0172251
0.0393436
0.00895621
0.00918176
0.0110933
0.00990541
0.0170529
0.00994929
0.0112787
0.00932481
0.010111
0.00939585
0.00892632
0.0119888
0.00956804
0.0302108
0.0140954
0.00914226
0.00993996
0.0113482
0.0101506
0.00985378
0.00924083
0.00978979
0.00950258
0.00913179
0.00908135
0.0121801
0.0128379
0.00904348
0.0116731
0.010632
0.00957625
0.00928555
0.0166793
0.0102966
0.00968101
0.00896809
0.0133793
0.00998046
0.0126573
0.00962745
0.00901502
0.0117407
0.0100897
0.0119487
0.00955147
0.00987945
0.0100382
0.012675
0.0302873
0.0109082
0.0112637
0.0166262
0.00950062
0.00907366
0.0136854
0.0102503
0.00989815
0.0110138
0.00922142
0.0105688
0.00896636
0.0110867
0.0126202
0.011178
0.0100585
0.0102286
0.0105376
0.0102493
0.0145297
0.00987841
0.0110388
0.0103319
0.00964955
0.012682
0.0117678
0.0103991
0.0133478
0.0269561
0.0105174
0.00972366
0.0154583
0.0111131
0.0113824
0.0105251
0.0131707
0.00989212
0.0109399
0.0111574
0.0128707
0.0137161
0.00909072
0.0120869
0.00981951
0.00949305
0.00877135
0.0135197
0.010151
0.0105948
0.0148649
0.0107929
0.0123369
0.00954969
0.0157054
0.00970264
0.0625802
0.0108058
0.0103489
0.0114798
0.0103956
0.0113207
0.00936424
0.0106802
0.00927473
0.010123
0.00911151
0.0106026
0.0095351
0.0103534
0.021389
0.0103997
0.0092661
0.0106946
0.010782
0.0101425
0.0110345
0.0204205
0.0136776
0.0112443
0.0158917
0.00965187
0.00940106
0.0091361
0.0100028
0.0108911
0.00919944
0.00959677
0.00885142
0.00928408
0.0102182
0.011272
0.00958998
0.0159646
0.0100516
0.0109543
0.0138574
0.0101637
0.00872571
0.00960913
0.00898559
0.0102364
0.0099993
0.00913565
0.0121763
0.0105246
0.0101257
0.0109537
0.0111548
0.0103562
0.00940258
0.0111483
0.00938194
0.0119635
0.00879142
0.00916375