/*--------------------------------*- C++ -*----------------------------------*\
| =========                 |                                                 |
| \\      /  F ield         | OpenFOAM: The Open Source CFD Toolbox           |
|  \\    /   O peration     | Version:  3.0.1                                 |
|   \\  /    A nd           | Web:      www.OpenFOAM.org                      |
|    \\/     M anipulation  |                                                 |
\*---------------------------------------------------------------------------*/
FoamFile
{
    version     2.0;
    format      ascii;
    class       surfaceScalarField;
    location    "0.00293203";
    object      phi;
}
// * * * * * * * * * * * * * * * * * * * * * * * * * * * * * * * * * * * * * //

dimensions      [0 3 -1 0 0 0 0];

internalField   nonuniform List<scalar> 
32369
(
-1.3476e-05
1.07047e-05
2.77135e-06
-2.41613e-05
8.634e-06
2.05127e-06
-3.36176e-05
8.13048e-06
1.32584e-06
-4.2183e-05
8.13319e-06
4.32175e-07
-5.05631e-05
8.91129e-06
-5.31142e-07
-5.9199e-05
1.02908e-05
-1.65496e-06
-6.8565e-05
1.24382e-05
-3.07222e-06
-7.91771e-05
1.5578e-05
-4.96586e-06
-9.14795e-05
1.98572e-05
-7.55481e-06
-0.000105944
2.55918e-05
-1.11269e-05
3.32741e-05
-1.60706e-05
-0.000123148
-4.14108e-06
1.48458e-05
-9.2991e-06
1.3792e-05
-1.69933e-05
1.58247e-05
-2.53607e-05
1.65006e-05
-3.4307e-05
1.78576e-05
-4.38478e-05
1.98316e-05
-5.43483e-05
2.29387e-05
-6.61609e-05
2.73906e-05
-7.97866e-05
3.34829e-05
-9.57679e-05
4.15732e-05
5.22336e-05
-0.000114727
-1.23029e-06
1.6076e-05
-4.0473e-06
1.6609e-05
-9.16937e-06
2.09468e-05
-1.56259e-05
2.29571e-05
-2.35826e-05
2.58143e-05
-3.27134e-05
2.89625e-05
-4.30693e-05
3.32945e-05
-5.48165e-05
3.91378e-05
-6.83181e-05
4.69846e-05
-8.40771e-05
5.73321e-05
7.08843e-05
-0.000102728
-8.02785e-07
1.68788e-05
-3.11093e-06
1.89172e-05
-6.53322e-06
2.43691e-05
-1.10512e-05
2.74751e-05
-1.73719e-05
3.2135e-05
-2.51026e-05
3.66932e-05
-3.43004e-05
4.24924e-05
-4.49974e-05
4.98347e-05
-5.7388e-05
5.93752e-05
-7.18349e-05
7.1779e-05
8.784e-05
-8.87906e-05
-7.7723e-07
1.76561e-05
-2.93498e-06
2.10749e-05
-5.4954e-06
2.69295e-05
-9.01153e-06
3.09912e-05
-1.37586e-05
3.68821e-05
-1.98655e-05
4.28e-05
-2.7495e-05
5.01219e-05
-3.66562e-05
5.89959e-05
-4.74776e-05
7.01966e-05
-6.01781e-05
8.44796e-05
0.000102877
-7.52147e-05
-5.37485e-07
1.81935e-05
-2.46811e-06
2.30056e-05
-4.36572e-06
2.88271e-05
-7.2515e-06
3.3877e-05
-1.09578e-05
4.05884e-05
-1.58092e-05
4.76514e-05
-2.19758e-05
5.62886e-05
-2.95685e-05
6.65885e-05
-3.87184e-05
7.93465e-05
-4.95994e-05
9.53606e-05
0.0001158
-6.25229e-05
-3.83176e-07
1.85767e-05
-1.91875e-06
2.45411e-05
-3.50129e-06
3.04096e-05
-5.85665e-06
3.62324e-05
-8.76106e-06
4.34928e-05
-1.26121e-05
5.15025e-05
-1.75393e-05
6.12158e-05
-2.37123e-05
7.27615e-05
-3.12837e-05
8.69178e-05
-4.04133e-05
0.00010449
0.000126692
-5.13047e-05
-5.14777e-07
1.90915e-05
-1.66114e-06
2.56875e-05
-2.96635e-06
3.17148e-05
-4.88669e-06
3.81527e-05
-7.18723e-06
4.57933e-05
-1.02234e-05
5.45386e-05
-1.40975e-05
6.50899e-05
-1.89999e-05
7.76639e-05
-2.50926e-05
9.30105e-05
-3.24867e-05
0.000111884
0.000135633
-4.14286e-05
-4.64015e-07
1.95555e-05
-1.40887e-06
2.66323e-05
-2.44488e-06
3.27509e-05
-3.96932e-06
3.96771e-05
-5.77367e-06
4.75977e-05
-8.13594e-06
5.69009e-05
-1.1132e-05
6.80859e-05
-1.49472e-05
8.14791e-05
-1.96984e-05
9.77617e-05
-2.56014e-05
0.000117787
0.000142838
-3.28055e-05
-1.89948e-07
1.97455e-05
-7.92517e-07
2.72349e-05
-1.55311e-06
3.35114e-05
-2.69725e-06
4.08213e-05
-4.07376e-06
4.89742e-05
-5.87154e-06
5.86987e-05
-8.14927e-06
7.03636e-05
-1.10528e-05
8.43827e-05
-1.4717e-05
0.000101426
-1.92875e-05
0.000122358
0.000148488
-2.49374e-05
-2.98975e-09
1.97484e-05
-3.17495e-07
2.75494e-05
-7.90297e-07
3.39843e-05
-1.55048e-06
4.15815e-05
-2.50159e-06
4.99253e-05
-3.7641e-06
5.99612e-05
-5.36162e-06
7.19612e-05
-7.42662e-06
8.64477e-05
-1.00597e-05
0.000104059
-1.34082e-05
0.000125706
0.000152581
-1.75012e-05
-5.81825e-08
1.98066e-05
-2.30234e-07
2.77215e-05
-4.70793e-07
3.42248e-05
-8.73516e-07
4.19842e-05
-1.3773e-06
5.04291e-05
-2.06996e-06
6.06538e-05
-2.96635e-06
7.28576e-05
-4.16108e-06
8.76424e-05
-5.7337e-06
0.000105632
-7.77689e-06
0.000127749
0.000155176
-1.03722e-05
-3.01539e-09
1.98096e-05
2.73891e-08
2.76911e-05
3.67841e-08
3.42154e-05
-1.94299e-09
4.20229e-05
-7.13259e-08
5.04985e-05
-2.11446e-07
6.0794e-05
-4.31038e-07
7.30771e-05
-8.03938e-07
8.80153e-05
-1.33103e-06
0.000106159
-2.0896e-06
0.000128508
0.000156308
-3.22119e-06
2.67508e-07
1.95421e-05
5.95343e-07
2.73632e-05
9.21202e-07
3.38896e-05
1.27337e-06
4.16707e-05
1.64989e-06
5.01219e-05
2.05887e-06
6.0385e-05
2.51969e-06
7.26163e-05
2.99112e-06
8.75439e-05
3.46278e-06
0.000105687
3.91048e-06
0.00012806
0.000155976
4.24226e-06
2.86165e-07
1.9256e-05
7.85129e-07
2.68643e-05
1.40967e-06
3.3265e-05
2.17414e-06
4.09063e-05
3.07221e-06
4.92239e-05
4.12914e-06
5.93281e-05
5.35669e-06
7.13888e-05
6.77836e-06
8.61222e-05
8.39992e-06
0.000104065
1.0182e-05
0.000126278
0.000153963
1.21945e-05
3.97139e-07
1.88588e-05
1.13098e-06
2.61304e-05
2.08473e-06
3.23113e-05
3.30947e-06
3.96815e-05
4.76307e-06
4.77702e-05
6.50985e-06
5.75813e-05
8.58462e-06
6.9314e-05
1.10217e-05
8.36852e-05
1.3841e-05
0.000101246
1.71439e-05
0.000122975
0.000150153
2.0954e-05
7.04143e-07
1.81547e-05
1.80283e-06
2.50317e-05
3.17803e-06
3.09361e-05
4.90294e-06
3.79566e-05
6.97716e-06
4.5696e-05
9.47164e-06
5.50868e-05
1.24528e-05
6.63328e-05
1.59891e-05
8.01489e-05
2.01453e-05
9.70899e-05
2.49948e-05
0.000118126
0.000144556
3.0592e-05
9.2961e-07
1.72251e-05
2.36578e-06
2.35956e-05
4.19852e-06
2.91033e-05
6.50852e-06
3.56466e-05
9.30709e-06
4.28975e-05
1.2671e-05
5.17228e-05
1.66991e-05
6.23048e-05
2.14888e-05
7.53592e-05
2.71198e-05
9.14589e-05
3.37139e-05
0.000111532
0.000136748
4.1522e-05
1.22099e-06
1.60041e-05
3.06615e-06
2.17504e-05
5.41971e-06
2.67498e-05
8.37921e-06
3.26871e-05
1.19824e-05
3.92943e-05
1.6361e-05
4.73442e-05
2.15855e-05
5.70803e-05
2.7786e-05
6.91586e-05
3.50977e-05
8.41472e-05
4.37412e-05
0.000102888
0.000126503
5.39863e-05
1.59582e-06
1.44083e-05
3.92898e-06
1.94172e-05
6.87977e-06
2.3799e-05
1.06149e-05
2.8952e-05
1.51584e-05
3.47508e-05
2.06601e-05
4.18425e-05
2.72045e-05
5.05359e-05
3.49651e-05
6.1398e-05
4.41218e-05
7.49906e-05
5.49672e-05
9.20429e-05
0.000113577
6.78924e-05
2.0481e-06
1.23602e-05
4.92601e-06
1.65393e-05
8.61694e-06
2.01081e-05
1.32191e-05
2.43499e-05
1.8816e-05
2.91539e-05
2.55421e-05
3.51164e-05
3.35086e-05
4.25694e-05
4.2919e-05
5.19876e-05
5.40571e-05
6.38526e-05
6.73089e-05
7.8791e-05
9.76817e-05
8.32046e-05
2.46174e-06
9.89843e-06
5.98366e-06
1.30174e-05
1.05031e-05
1.55886e-05
1.61326e-05
1.87204e-05
2.28562e-05
2.24302e-05
3.08205e-05
2.71521e-05
4.01935e-05
3.31963e-05
5.12644e-05
4.09167e-05
6.44249e-05
5.0692e-05
8.01653e-05
6.30507e-05
7.87437e-05
9.91032e-05
3.17292e-06
6.72552e-06
7.46621e-06
8.7241e-06
1.28584e-05
1.01965e-05
1.93775e-05
1.22013e-05
2.70181e-05
1.47897e-05
3.59898e-05
1.81804e-05
4.65752e-05
2.26109e-05
5.91654e-05
2.83265e-05
7.42211e-05
3.56364e-05
9.23131e-05
4.49587e-05
5.69207e-05
0.000114136
2.38555e-06
4.33996e-06
8.51641e-06
2.59324e-06
1.53212e-05
3.39162e-06
2.27247e-05
4.79784e-06
3.10813e-05
6.43307e-06
4.076e-05
8.50172e-06
5.21738e-05
1.11971e-05
6.58351e-05
1.46651e-05
8.23198e-05
1.91517e-05
0.000102251
2.50276e-05
3.27529e-05
0.000126419
-1.21742e-05
1.49456e-05
-2.13469e-05
1.12239e-05
-3.0591e-05
1.05699e-05
-3.94347e-05
9.27588e-06
-4.83582e-05
8.39237e-06
-5.77078e-05
7.69471e-06
-6.78906e-05
7.11057e-06
-7.93283e-05
6.47181e-06
-9.24446e-05
5.56154e-06
-0.000107659
4.08691e-06
1.69233e-06
-0.000125421
-2.3005e-06
1.72461e-05
-5.75466e-06
1.46781e-05
-1.32554e-05
1.80706e-05
-2.20384e-05
1.80589e-05
-3.19174e-05
1.82714e-05
-4.25999e-05
1.83772e-05
-5.44108e-05
1.89215e-05
-6.75858e-05
1.96467e-05
-8.25874e-05
2.05631e-05
-9.98983e-05
2.13978e-05
2.18518e-05
-0.000120058
-3.56578e-07
1.76027e-05
-2.51862e-06
1.68401e-05
-7.29785e-06
2.28498e-05
-1.37657e-05
2.45268e-05
-2.23194e-05
2.6825e-05
-3.25484e-05
2.86063e-05
-4.4104e-05
3.0477e-05
-5.72806e-05
3.28234e-05
-7.23633e-05
3.56458e-05
-8.97984e-05
3.88329e-05
4.21404e-05
-0.000110087
-3.57511e-07
1.79602e-05
-2.68925e-06
1.91718e-05
-5.88972e-06
2.60503e-05
-1.05074e-05
2.91445e-05
-1.71294e-05
3.3447e-05
-2.55834e-05
3.70603e-05
-3.58872e-05
4.07808e-05
-4.79739e-05
4.49101e-05
-6.1963e-05
4.96349e-05
-7.82095e-05
5.50795e-05
6.11489e-05
-9.7218e-05
-5.53678e-07
1.85139e-05
-3.09047e-06
2.17086e-05
-5.65347e-06
2.86133e-05
-9.25289e-06
3.27439e-05
-1.43141e-05
3.85082e-05
-2.09796e-05
4.37258e-05
-2.94845e-05
4.92856e-05
-3.97853e-05
5.5211e-05
-5.2008e-05
6.18576e-05
-6.63585e-05
6.943e-05
7.79375e-05
-8.31471e-05
-5.81104e-07
1.9095e-05
-2.91561e-06
2.40431e-05
-5.14088e-06
3.08386e-05
-8.17636e-06
3.57794e-05
-1.21572e-05
4.24889e-05
-1.73747e-05
4.89434e-05
-2.41601e-05
5.60711e-05
-3.26064e-05
6.36573e-05
-4.28686e-05
7.21197e-05
-5.50784e-05
8.16398e-05
9.24235e-05
-6.95644e-05
-5.02256e-07
1.95972e-05
-2.44009e-06
2.5981e-05
-4.31159e-06
3.27101e-05
-6.88475e-06
3.83525e-05
-1.00951e-05
4.56993e-05
-1.4197e-05
5.30453e-05
-1.9528e-05
6.14021e-05
-2.62685e-05
7.03978e-05
-3.45732e-05
8.04244e-05
-4.4602e-05
9.16687e-05
0.000104359
-5.65377e-05
-5.44171e-07
2.01414e-05
-2.10969e-06
2.75465e-05
-3.64473e-06
3.42451e-05
-5.73324e-06
4.04411e-05
-8.26973e-06
4.82358e-05
-1.14264e-05
5.62019e-05
-1.55312e-05
6.55069e-05
-2.06872e-05
7.55537e-05
-2.71239e-05
8.68611e-05
-3.49893e-05
9.95341e-05
0.000113886
-4.45157e-05
-5.01587e-07
2.0643e-05
-1.69417e-06
2.87391e-05
-2.87774e-06
3.54287e-05
-4.503e-06
4.20663e-05
-6.40302e-06
5.01358e-05
-8.72464e-06
5.85235e-05
-1.17261e-05
6.85084e-05
-1.54825e-05
7.93101e-05
-2.01909e-05
9.15695e-05
-2.59477e-05
0.000105291
0.000120903
-3.29651e-05
-3.61283e-07
2.10043e-05
-1.27846e-06
2.96562e-05
-1.96526e-06
3.61155e-05
-3.26421e-06
4.33653e-05
-4.40829e-06
5.12799e-05
-6.062e-06
6.01773e-05
-7.97707e-06
7.04235e-05
-1.0479e-05
8.18121e-05
-1.3571e-05
9.46615e-05
-1.73716e-05
0.000109091
0.000125494
-2.19626e-05
-1.44182e-07
2.11485e-05
-5.22909e-07
3.0035e-05
-9.26051e-07
3.65186e-05
-1.60249e-06
4.40417e-05
-2.2249e-06
5.19023e-05
-3.12831e-06
6.10807e-05
-4.10075e-06
7.13959e-05
-5.41067e-06
8.3122e-05
-7.02227e-06
9.62731e-05
-9.02911e-06
0.000111098
0.000127962
-1.14968e-05
-3.15373e-08
2.118e-05
-9.90437e-08
3.01025e-05
-1.06515e-07
3.65261e-05
-2.41313e-07
4.41765e-05
-2.68402e-07
5.19294e-05
-3.37295e-07
6.11496e-05
-3.65105e-07
7.14237e-05
-4.64177e-07
8.3221e-05
-5.93029e-07
9.6402e-05
-7.63607e-07
0.000111269
0.000128221
-1.02282e-06
1.36819e-07
2.10432e-05
4.18996e-07
2.98203e-05
7.9864e-07
3.61465e-05
1.22186e-06
4.37533e-05
1.82333e-06
5.13279e-05
2.55065e-06
6.04222e-05
3.47456e-06
7.04998e-05
4.58884e-06
8.21068e-05
5.92567e-06
9.50651e-05
7.52888e-06
0.000109666
0.000126282
9.46799e-06
4.57505e-07
2.05857e-05
1.12613e-06
2.91517e-05
1.93567e-06
3.53369e-05
2.93042e-06
4.27585e-05
4.16127e-06
5.00971e-05
5.6924e-06
5.88911e-05
7.58744e-06
6.86048e-05
9.89755e-06
7.97967e-05
1.26868e-05
9.22758e-05
1.60355e-05
0.000106317
0.000122231
2.00867e-05
6.29309e-07
1.99564e-05
1.62303e-06
2.81579e-05
2.8825e-06
3.40775e-05
4.4663e-06
4.11747e-05
6.38761e-06
4.81758e-05
8.7807e-06
5.6498e-05
1.17158e-05
6.56697e-05
1.5301e-05
7.62115e-05
1.9605e-05
8.79718e-05
2.47563e-05
0.000101166
0.000116076
3.09107e-05
8.72458e-07
1.90839e-05
2.21679e-06
2.68136e-05
3.94686e-06
3.23474e-05
6.13411e-06
3.89875e-05
8.78872e-06
4.55211e-05
1.20837e-05
5.32031e-05
1.61066e-05
6.16467e-05
2.10016e-05
7.13165e-05
2.6878e-05
8.20954e-05
3.38724e-05
9.41713e-05
0.000107689
4.22596e-05
1.18605e-06
1.78979e-05
2.938e-06
2.50617e-05
5.17204e-06
3.01134e-05
7.99871e-06
3.61608e-05
1.14274e-05
4.20924e-05
1.56776e-05
4.89529e-05
2.08395e-05
5.64848e-05
2.71054e-05
6.50506e-05
3.45798e-05
7.46211e-05
4.34657e-05
8.52854e-05
9.70811e-05
5.40737e-05
1.5167e-06
1.63812e-05
3.6881e-06
2.28903e-05
6.46566e-06
2.73358e-05
9.97563e-06
3.26508e-05
1.42381e-05
3.78299e-05
1.95046e-05
4.36864e-05
2.5889e-05
5.01004e-05
3.35745e-05
5.73651e-05
4.27142e-05
6.54814e-05
5.35023e-05
7.44973e-05
8.43387e-05
6.62446e-05
1.87945e-06
1.45017e-05
4.50299e-06
2.02667e-05
7.85407e-06
2.39847e-05
1.20992e-05
2.84057e-05
1.72733e-05
3.26558e-05
2.3629e-05
3.73308e-05
3.12885e-05
4.24409e-05
4.04419e-05
4.82118e-05
5.12531e-05
5.46702e-05
6.39857e-05
6.17647e-05
6.93058e-05
7.90187e-05
2.2945e-06
1.22072e-05
5.406e-06
1.71552e-05
9.37729e-06
2.00134e-05
1.44224e-05
2.33606e-05
2.05814e-05
2.64968e-05
2.80774e-05
2.98348e-05
3.70241e-05
3.34941e-05
4.76018e-05
3.76341e-05
6.0044e-05
4.22279e-05
7.46765e-05
4.71322e-05
5.20388e-05
9.19435e-05
2.74071e-06
9.46648e-06
6.3779e-06
1.3518e-05
1.10287e-05
1.53626e-05
1.69521e-05
1.74372e-05
2.41416e-05
1.93073e-05
3.27499e-05
2.12265e-05
4.28869e-05
2.33572e-05
5.47547e-05
2.57663e-05
6.86596e-05
2.8323e-05
8.50054e-05
3.07863e-05
3.27787e-05
0.000104265
3.29697e-06
6.16952e-06
7.4973e-06
9.3177e-06
1.29496e-05
9.91028e-06
1.97912e-05
1.05957e-05
2.79295e-05
1.1169e-05
3.74435e-05
1.17124e-05
4.84885e-05
1.23122e-05
6.13402e-05
1.29146e-05
7.63816e-05
1.32817e-05
9.41072e-05
1.30606e-05
1.17942e-05
0.000115092
3.40221e-06
2.76731e-06
8.68774e-06
4.03216e-06
1.49876e-05
3.61038e-06
2.24363e-05
3.147e-06
3.10636e-05
2.54175e-06
4.10178e-05
1.75816e-06
5.25769e-05
7.53177e-07
6.61535e-05
-6.62041e-07
8.21962e-05
-2.76099e-06
0.000101169
-5.91235e-06
-1.05374e-05
0.000123501
7.10727e-06
1.37327e-05
2.07347e-05
2.86795e-05
3.76543e-05
4.79142e-05
5.98645e-05
7.38676e-05
9.02584e-05
0.000109374
0.000131589
4.38385e-06
1.82917e-05
-2.26755e-05
6.49882e-06
1.90537e-05
-2.11686e-05
4.71795e-06
2.50965e-05
-2.33156e-05
5.44125e-07
3.08241e-05
-2.66503e-05
-4.88397e-06
3.57129e-05
-3.02848e-05
-1.10093e-05
4.06887e-05
-3.45634e-05
-1.74993e-05
4.61764e-05
-3.96863e-05
-2.42037e-05
5.26517e-05
-4.59472e-05
-3.15759e-05
6.11599e-05
-5.37877e-05
-3.98597e-05
7.19295e-05
-6.36456e-05
8.56829e-05
-7.61159e-05
-4.94268e-05
7.94119e-06
1.03505e-05
1.22549e-05
1.474e-05
1.41645e-05
2.31869e-05
1.40998e-05
3.08888e-05
1.15553e-05
3.82575e-05
6.73187e-06
4.55121e-05
2.87247e-07
5.2621e-05
-6.99016e-06
5.99291e-05
-1.48966e-05
6.90663e-05
-2.37213e-05
8.07542e-05
9.57078e-05
-3.37462e-05
5.28526e-06
5.0652e-06
8.54882e-06
1.14764e-05
1.19252e-05
1.98104e-05
1.42454e-05
2.85686e-05
1.45866e-05
3.79163e-05
1.26506e-05
4.7448e-05
8.62207e-06
5.66495e-05
3.02918e-06
6.5522e-05
-3.43075e-06
7.55262e-05
-1.07472e-05
8.80707e-05
0.000104136
-1.91757e-05
3.36701e-06
1.69819e-06
5.91e-06
8.93342e-06
8.91937e-06
1.68011e-05
1.16321e-05
2.58559e-05
1.3377e-05
3.61714e-05
1.36295e-05
4.71955e-05
1.21007e-05
5.81784e-05
8.92236e-06
6.87003e-05
4.66935e-06
7.97792e-05
-3.41075e-07
9.30811e-05
0.000109811
-6.01591e-06
1.57571e-06
1.2248e-07
3.66633e-06
6.84281e-06
6.2738e-06
1.41936e-05
8.83708e-06
2.32926e-05
1.10521e-05
3.39563e-05
1.25097e-05
4.57379e-05
1.28063e-05
5.78818e-05
1.18049e-05
6.97017e-05
9.81661e-06
8.17675e-05
7.16949e-06
9.57282e-05
0.000112989
3.99198e-06
2.05765e-07
-8.32854e-08
1.73946e-06
5.30911e-06
3.94527e-06
1.19878e-05
6.26776e-06
2.09701e-05
8.59875e-06
3.16254e-05
1.0646e-05
4.36906e-05
1.20863e-05
5.64415e-05
1.2734e-05
6.9054e-05
1.26728e-05
8.18286e-05
1.21245e-05
9.62765e-05
0.000113791
1.13225e-05
-6.55813e-07
5.72528e-07
1.32994e-07
4.5203e-06
1.72031e-06
1.04005e-05
3.74451e-06
1.89459e-05
5.99201e-06
2.93779e-05
8.28893e-06
4.13937e-05
1.044e-05
5.42904e-05
1.22901e-05
6.7204e-05
1.37876e-05
8.03311e-05
1.49927e-05
9.50714e-05
0.000112802
1.59813e-05
-8.46106e-07
1.41863e-06
-1.01928e-06
4.69348e-06
-2.88523e-07
9.66972e-06
1.28733e-06
1.73701e-05
3.31542e-06
2.73498e-05
5.63497e-06
3.90741e-05
8.24045e-06
5.16849e-05
1.09987e-05
6.44457e-05
1.37548e-05
7.7575e-05
1.64723e-05
9.23539e-05
0.000109995
1.92798e-05
-1.00216e-06
2.42079e-06
-1.63831e-06
5.32964e-06
-1.63238e-06
9.66379e-06
-6.75146e-07
1.64129e-05
1.0491e-06
2.56255e-05
3.30905e-06
3.68142e-05
6.19435e-06
4.87996e-05
9.60534e-06
6.10347e-05
1.33064e-05
7.3874e-05
1.71661e-05
8.84941e-05
0.000105954
2.12062e-05
-1.01158e-06
3.43238e-06
-1.81612e-06
6.13418e-06
-2.20061e-06
1.00483e-05
-1.7814e-06
1.59937e-05
-3.84114e-07
2.42282e-05
1.81602e-06
3.4614e-05
4.88994e-06
4.57257e-05
8.72352e-06
5.72012e-05
1.30419e-05
6.95556e-05
1.77064e-05
8.38296e-05
0.000101004
2.2657e-05
-9.56143e-07
4.38852e-06
-1.79527e-06
6.97331e-06
-2.32385e-06
1.05768e-05
-2.18163e-06
1.58514e-05
-1.10027e-06
2.31469e-05
1.07156e-06
3.24422e-05
4.28601e-06
4.25113e-05
8.3904e-06
5.30968e-05
1.31218e-05
6.48242e-05
1.83883e-05
7.85631e-05
9.51461e-05
2.42461e-05
-9.00821e-07
5.28934e-06
-1.69661e-06
7.7691e-06
-2.221e-06
1.11012e-05
-2.1583e-06
1.57887e-05
-1.19506e-06
2.21836e-05
9.48056e-07
3.02991e-05
4.26558e-06
3.91938e-05
8.53829e-06
4.8824e-05
1.356e-05
5.98025e-05
1.92629e-05
7.28602e-05
8.87978e-05
2.56111e-05
-7.41954e-07
6.03129e-06
-1.37862e-06
8.40576e-06
-1.75448e-06
1.14771e-05
-1.58905e-06
1.56233e-05
-5.83121e-07
2.11777e-05
1.61031e-06
2.81056e-05
4.97057e-06
3.58335e-05
9.29994e-06
4.44947e-05
1.44899e-05
5.46126e-05
2.05445e-05
6.68056e-05
8.18392e-05
2.75031e-05
-4.77795e-07
6.50909e-06
-8.5082e-07
8.77879e-06
-9.65325e-07
1.15916e-05
-5.81251e-07
1.52392e-05
5.90988e-07
2.00055e-05
2.86476e-06
2.58319e-05
6.21068e-06
3.24876e-05
1.05368e-05
4.01686e-05
1.58314e-05
4.9318e-05
2.21519e-05
6.0485e-05
7.43681e-05
2.96231e-05
-2.71956e-07
6.78105e-06
-4.02021e-07
8.90885e-06
-2.43705e-07
1.14333e-05
3.93675e-07
1.46019e-05
1.77099e-06
1.86281e-05
4.11335e-06
2.34895e-05
7.44617e-06
2.91548e-05
1.1785e-05
3.58298e-05
1.72229e-05
4.388e-05
2.38821e-05
5.38258e-05
6.63974e-05
3.18529e-05
-4.73048e-08
6.82835e-06
7.76014e-08
8.78395e-06
5.17887e-07
1.0993e-05
1.4117e-06
1.37081e-05
2.96411e-06
1.70757e-05
5.34514e-06
2.11085e-05
8.64274e-06
2.58572e-05
1.29909e-05
3.14816e-05
1.86102e-05
3.82607e-05
2.57084e-05
4.67276e-05
5.7626e-05
3.44797e-05
2.23556e-07
6.60479e-06
6.19023e-07
8.38848e-06
1.32225e-06
1.02898e-05
2.42765e-06
1.26027e-05
4.0958e-06
1.54076e-05
6.45882e-06
1.87455e-05
9.67765e-06
2.26383e-05
1.40221e-05
2.71371e-05
1.98685e-05
3.24144e-05
2.7491e-05
3.91051e-05
4.81744e-05
3.69427e-05
4.23843e-07
6.18095e-06
1.03936e-06
7.77296e-06
1.94011e-06
9.38903e-06
3.19176e-06
1.1351e-05
4.89712e-06
1.37022e-05
7.1889e-06
1.64537e-05
1.03087e-05
1.95186e-05
1.46827e-05
2.2763e-05
2.08495e-05
2.62476e-05
2.92115e-05
3.07431e-05
3.75495e-05
3.98363e-05
5.94815e-07
5.58614e-06
1.39051e-06
6.97727e-06
2.4224e-06
8.35713e-06
3.73251e-06
1.00409e-05
5.39843e-06
1.20363e-05
7.5744e-06
1.42777e-05
1.0587e-05
1.6506e-05
1.50147e-05
1.83353e-05
2.15999e-05
1.96624e-05
3.08533e-05
2.14897e-05
2.56517e-05
4.27511e-05
7.40996e-07
4.84514e-06
1.6595e-06
6.05877e-06
2.74331e-06
7.27332e-06
4.03276e-06
8.75143e-06
5.59285e-06
1.04762e-05
7.57526e-06
1.22953e-05
1.03774e-05
1.37039e-05
1.48015e-05
1.39111e-05
2.19065e-05
1.25574e-05
3.23761e-05
1.10201e-05
1.22922e-05
4.57357e-05
8.31044e-07
4.01409e-06
1.71263e-06
5.17718e-06
2.72017e-06
6.26579e-06
3.90949e-06
7.56211e-06
5.2851e-06
9.1006e-06
6.97011e-06
1.06103e-05
9.61979e-06
1.10542e-05
1.45469e-05
8.98402e-06
2.30188e-05
4.08552e-06
3.4994e-05
-9.55111e-07
-2.1819e-06
4.94681e-05
5.69584e-07
3.44451e-06
1.34631e-06
4.40045e-06
2.49621e-06
5.11589e-06
4.09929e-06
5.95903e-06
6.2271e-06
6.9728e-06
9.5244e-06
7.31299e-06
1.51053e-05
5.47329e-06
2.38169e-05
2.72492e-07
3.45647e-05
-6.66228e-06
4.60414e-05
-1.24319e-05
-1.45691e-05
5.84286e-05
4.24257e-07
3.02025e-06
2.14984e-06
2.67488e-06
4.89857e-06
2.36715e-06
8.84474e-06
2.01287e-06
1.48404e-05
9.77106e-07
2.36052e-05
-1.45181e-06
3.43953e-05
-5.31682e-06
4.49765e-05
-1.03087e-05
5.3962e-05
-1.56478e-05
6.21237e-05
-2.05935e-05
-2.32416e-05
7.07961e-05
7.16466e-06
-4.1444e-06
1.26126e-05
-2.77309e-06
1.83076e-05
-3.32786e-06
2.52597e-05
-4.93916e-06
3.33309e-05
-7.09414e-06
4.17665e-05
-9.88737e-06
4.99133e-05
-1.34637e-05
5.73852e-05
-1.77806e-05
6.41693e-05
-2.24319e-05
7.03957e-05
-2.68199e-05
-3.00014e-05
7.71555e-05
-1.15828e-05
-1.10927e-05
-1.8837e-05
-1.39145e-05
-2.4368e-05
-1.77846e-05
-2.91895e-05
-2.18288e-05
-3.34653e-05
-2.6009e-05
-3.76472e-05
-3.03815e-05
-4.2045e-05
-3.52885e-05
-4.69076e-05
-4.10846e-05
-5.24796e-05
-4.82156e-05
-5.89796e-05
-5.71457e-05
-6.85619e-05
-6.65337e-05
-8.46451e-06
-2.62819e-06
-1.57497e-05
-6.62922e-06
-2.24992e-05
-1.10351e-05
-2.85957e-05
-1.57323e-05
-3.42074e-05
-2.03973e-05
-3.95366e-05
-2.50523e-05
-4.49898e-05
-2.98354e-05
-5.09632e-05
-3.51113e-05
-5.7795e-05
-4.13837e-05
-6.57363e-05
-4.92044e-05
-5.91646e-05
-7.51336e-05
-4.13248e-06
1.50428e-06
-9.30612e-06
-1.45558e-06
-1.54257e-05
-4.9156e-06
-2.20542e-05
-9.10369e-06
-2.87859e-05
-1.36657e-05
-3.55712e-05
-1.82669e-05
-4.25397e-05
-2.28669e-05
-5.00121e-05
-2.76389e-05
-5.83519e-05
-3.30439e-05
-6.79111e-05
-3.96452e-05
-4.80623e-05
-7.90134e-05
-2.16409e-06
3.66838e-06
-5.6394e-06
2.01973e-06
-1.05511e-05
-3.89485e-09
-1.65451e-05
-3.10971e-06
-2.33414e-05
-6.8694e-06
-3.07064e-05
-1.09019e-05
-3.85699e-05
-1.50033e-05
-4.70577e-05
-1.91512e-05
-5.6449e-05
-2.36525e-05
-6.70839e-05
-2.90103e-05
-3.57442e-05
-7.9402e-05
-1.44689e-06
5.11527e-06
-3.86083e-06
4.43367e-06
-7.58907e-06
3.72434e-06
-1.26461e-05
1.9473e-06
-1.8914e-05
-6.01513e-07
-2.61075e-05
-3.70841e-06
-3.41187e-05
-6.9921e-06
-4.2989e-05
-1.02809e-05
-5.2864e-05
-1.37775e-05
-6.40289e-05
-1.78454e-05
-2.29257e-05
-7.68474e-05
-1.30821e-06
6.42348e-06
-3.25691e-06
6.38238e-06
-6.02805e-06
6.49547e-06
-1.00044e-05
5.92371e-06
-1.53365e-05
4.73054e-06
-2.19829e-05
2.93797e-06
-2.97779e-05
8.02958e-07
-3.85734e-05
-1.48548e-06
-4.84343e-05
-3.91656e-06
-5.96081e-05
-6.67165e-06
-1.00965e-05
-7.24372e-05
-1.19794e-06
7.62142e-06
-2.95767e-06
8.1421e-06
-5.31954e-06
8.85734e-06
-8.53093e-06
9.13509e-06
-1.28572e-05
9.05678e-06
-1.84727e-05
8.55348e-06
-2.54312e-05
7.76147e-06
-3.36649e-05
6.74823e-06
-4.3154e-05
5.57251e-06
-5.39864e-05
4.1608e-06
2.27477e-06
-6.63577e-05
-1.15012e-06
8.77154e-06
-2.76622e-06
9.75821e-06
-4.89865e-06
1.09898e-05
-7.69657e-06
1.1933e-05
-1.13959e-05
1.27561e-05
-1.62181e-05
1.33757e-05
-2.22729e-05
1.38163e-05
-2.96413e-05
1.41166e-05
-3.83871e-05
1.43183e-05
-4.85985e-05
1.43722e-05
1.40444e-05
-6.03681e-05
-1.06721e-06
9.83875e-06
-2.63059e-06
1.13216e-05
-4.49711e-06
1.28563e-05
-6.97711e-06
1.4413e-05
-1.02268e-05
1.60057e-05
-1.44287e-05
1.75777e-05
-1.97363e-05
1.91239e-05
-2.62718e-05
2.06521e-05
-3.41298e-05
2.21762e-05
-4.34032e-05
2.36456e-05
2.48364e-05
-5.41952e-05
-9.98704e-07
1.08375e-05
-2.33084e-06
1.26537e-05
-4.0388e-06
1.45642e-05
-6.24719e-06
1.66214e-05
-9.10432e-06
1.88629e-05
-1.27668e-05
2.12401e-05
-1.73874e-05
2.37445e-05
-2.30855e-05
2.63503e-05
-2.9975e-05
2.90657e-05
-3.81582e-05
3.18289e-05
3.43201e-05
-4.76419e-05
-8.33282e-07
1.16707e-05
-1.98232e-06
1.38028e-05
-3.45668e-06
1.60386e-05
-5.37715e-06
1.85419e-05
-7.85962e-06
2.13453e-05
-1.10346e-05
2.44151e-05
-1.50262e-05
2.77362e-05
-1.99565e-05
3.12805e-05
-2.5923e-05
3.50322e-05
-3.30359e-05
3.89417e-05
4.28388e-05
-4.15546e-05
-7.21301e-07
1.2392e-05
-1.69635e-06
1.47778e-05
-2.94012e-06
1.72824e-05
-4.56292e-06
2.01647e-05
-6.6574e-06
2.34398e-05
-9.34044e-06
2.70981e-05
-1.27213e-05
3.1117e-05
-1.69058e-05
3.54651e-05
-2.19912e-05
4.01175e-05
-2.80417e-05
4.49923e-05
4.99062e-05
-3.51092e-05
-5.72196e-07
1.29642e-05
-1.35084e-06
1.55565e-05
-2.34745e-06
1.8279e-05
-3.6535e-06
2.14707e-05
-5.35669e-06
2.5143e-05
-7.54848e-06
2.92899e-05
-1.0328e-05
3.38965e-05
-1.37996e-05
3.89367e-05
-1.80555e-05
4.43735e-05
-2.32181e-05
5.01548e-05
5.61329e-05
-2.94448e-05
-3.4436e-07
1.33086e-05
-8.72869e-07
1.6085e-05
-1.58968e-06
1.89958e-05
-2.56214e-06
2.24432e-05
-3.85504e-06
2.64359e-05
-5.55481e-06
3.09897e-05
-7.74272e-06
3.60844e-05
-1.05094e-05
4.17034e-05
-1.39395e-05
4.78036e-05
-1.81095e-05
5.43248e-05
6.11149e-05
-2.30915e-05
-1.74072e-07
1.34827e-05
-4.68816e-07
1.63797e-05
-8.82121e-07
1.94091e-05
-1.48493e-06
2.3046e-05
-2.33539e-06
2.72864e-05
-3.50222e-06
3.21565e-05
-5.0657e-06
3.76479e-05
-7.09341e-06
4.37311e-05
-9.65242e-06
5.03626e-05
-1.27804e-05
5.74528e-05
6.48058e-05
-1.64712e-05
2.94654e-08
1.34532e-05
9.32964e-09
1.63999e-05
-7.57901e-08
1.94942e-05
-2.79453e-07
2.32497e-05
-6.48425e-07
2.76553e-05
-1.24848e-06
3.27566e-05
-2.15091e-06
3.85504e-05
-3.41623e-06
4.49964e-05
-5.07412e-06
5.20205e-05
-7.11371e-06
5.94924e-05
6.71968e-05
-9.50474e-06
2.87166e-07
1.3166e-05
5.76674e-07
1.61103e-05
8.59311e-07
1.92116e-05
1.10138e-06
2.30076e-05
1.26018e-06
2.74965e-05
1.27578e-06
3.2741e-05
1.08693e-06
3.87392e-05
6.34971e-07
4.54484e-05
-9.27111e-08
5.27482e-05
-1.04953e-06
6.04492e-05
6.81926e-05
-2.04532e-06
5.57517e-07
1.26085e-05
1.18859e-06
1.54793e-05
1.87495e-06
1.85252e-05
2.60536e-06
2.22772e-05
3.34127e-06
2.67606e-05
4.04095e-06
3.20413e-05
4.6302e-06
3.815e-05
5.06539e-06
4.50132e-05
5.35645e-06
5.24571e-05
5.54985e-06
6.02558e-05
6.80047e-05
5.73775e-06
8.52402e-07
1.17561e-05
1.85186e-06
1.44798e-05
2.98727e-06
1.73898e-05
4.25359e-06
2.10109e-05
5.63859e-06
2.53756e-05
7.09153e-06
3.05883e-05
8.553e-06
3.66885e-05
9.97964e-06
4.35865e-05
1.13994e-05
5.10374e-05
1.29576e-05
5.86976e-05
6.60566e-05
1.49056e-05
1.18487e-06
1.05712e-05
2.60037e-06
1.30643e-05
4.222e-06
1.57682e-05
6.08536e-06
1.91475e-05
8.18499e-06
2.3276e-05
1.04806e-05
2.82927e-05
1.29145e-05
3.42546e-05
1.54442e-05
4.10569e-05
1.81178e-05
4.83637e-05
2.10635e-05
5.5752e-05
6.27642e-05
2.43559e-05
1.54148e-06
9.02976e-06
3.39437e-06
1.12114e-05
5.55016e-06
1.36124e-05
8.06471e-06
1.66329e-05
1.09481e-05
2.03926e-05
1.41719e-05
2.50689e-05
1.76751e-05
3.07514e-05
2.14404e-05
3.72916e-05
2.55236e-05
4.42805e-05
3.01285e-05
5.11471e-05
5.73495e-05
3.55432e-05
1.83751e-06
7.19225e-06
4.13949e-06
8.90944e-06
6.86646e-06
1.08854e-05
1.00901e-05
1.34093e-05
1.38156e-05
1.6667e-05
1.80123e-05
2.08722e-05
2.26599e-05
2.61038e-05
2.77664e-05
3.21852e-05
3.33954e-05
3.86515e-05
3.97023e-05
4.48402e-05
5.00755e-05
4.69762e-05
2.10798e-06
5.08427e-06
4.92451e-06
6.09291e-06
8.26764e-06
7.5423e-06
1.21789e-05
9.49806e-06
1.66484e-05
1.21975e-05
2.17248e-05
1.57959e-05
2.74788e-05
2.03498e-05
3.39536e-05
2.57103e-05
4.11903e-05
3.14148e-05
4.9237e-05
3.67935e-05
4.10698e-05
5.82428e-05
9.39867e-07
4.25969e-06
8.47412e-06
1.3033e-05
1.81364e-05
2.40449e-05
3.09311e-05
3.88608e-05
4.78437e-05
5.78172e-05
6.88857e-05
-7.99264e-06
-7.66002e-06
1.56527e-05
-1.27593e-05
-8.95411e-06
1.37207e-05
-1.67127e-05
-1.0634e-05
1.45874e-05
-2.03544e-05
-1.22355e-05
1.58772e-05
-2.36397e-05
-1.35677e-05
1.6853e-05
-2.68299e-05
-1.45642e-05
1.77543e-05
-3.0174e-05
-1.52132e-05
1.85573e-05
-3.3948e-05
-1.55059e-05
1.92799e-05
-3.83338e-05
-1.53623e-05
1.97481e-05
-4.3504e-05
-1.45928e-05
1.9763e-05
-1.28815e-05
1.90415e-05
-4.96641e-05
-5.81075e-06
-1.84927e-06
-1.07224e-05
-4.04244e-06
-1.51712e-05
-6.18517e-06
-1.9212e-05
-8.19474e-06
-2.29224e-05
-9.85735e-06
-2.64875e-05
-1.09991e-05
-3.01838e-05
-1.15169e-05
-3.43157e-05
-1.1374e-05
-3.91569e-05
-1.0521e-05
-4.49545e-05
-8.79532e-06
-5.86769e-06
-5.19682e-05
-2.75836e-06
9.09083e-07
-6.22235e-06
-5.78442e-07
-1.0157e-05
-2.25056e-06
-1.43213e-05
-4.03037e-06
-1.8573e-05
-5.60568e-06
-2.28622e-05
-6.70992e-06
-2.73051e-05
-7.07398e-06
-3.2138e-05
-6.54106e-06
-3.7646e-05
-5.01301e-06
-4.40777e-05
-2.36365e-06
1.75788e-06
-5.17032e-05
-1.28698e-06
2.19606e-06
-3.48026e-06
1.61484e-06
-6.54831e-06
8.1749e-07
-1.02947e-05
-2.83998e-07
-1.4485e-05
-1.41541e-06
-1.89954e-05
-2.19948e-06
-2.37969e-05
-2.27243e-06
-2.89864e-05
-1.35161e-06
-3.47789e-05
7.79497e-07
-4.15425e-05
4.39989e-06
9.86789e-06
-4.96525e-05
-8.69638e-07
3.0657e-06
-2.26073e-06
3.00594e-06
-4.40519e-06
2.96195e-06
-7.35755e-06
2.66836e-06
-1.10561e-05
2.28311e-06
-1.53827e-05
2.12719e-06
-2.02568e-05
2.6016e-06
-2.56997e-05
4.0913e-06
-3.18178e-05
6.89758e-06
-3.87544e-05
1.13366e-05
1.79112e-05
-4.67978e-05
-8.49149e-07
3.91485e-06
-2.06181e-06
4.2186e-06
-3.73987e-06
4.64001e-06
-6.04645e-06
4.97494e-06
-9.1052e-06
5.34186e-06
-1.29456e-05
5.96759e-06
-1.75374e-05
7.19342e-06
-2.28478e-05
9.40167e-06
-2.88872e-05
1.2937e-05
-3.57474e-05
1.81967e-05
2.57929e-05
-4.36291e-05
-7.66632e-07
4.68148e-06
-1.88746e-06
5.33942e-06
-3.36275e-06
6.11531e-06
-5.3392e-06
6.95139e-06
-7.95939e-06
7.96205e-06
-1.13184e-05
9.32656e-06
-1.54658e-05
1.13409e-05
-2.04094e-05
1.43453e-05
-2.61706e-05
1.86982e-05
-3.28266e-05
2.48528e-05
3.34349e-05
-4.04686e-05
-7.61322e-07
5.4428e-06
-1.78796e-06
6.36606e-06
-3.13531e-06
7.46266e-06
-4.91078e-06
8.72685e-06
-7.23312e-06
1.02844e-05
-1.02201e-05
1.23135e-05
-1.39557e-05
1.50765e-05
-1.8494e-05
1.88836e-05
-2.3887e-05
2.40912e-05
-3.02379e-05
3.12037e-05
4.09342e-05
-3.77373e-05
-7.36618e-07
6.17942e-06
-1.70845e-06
7.33789e-06
-2.95712e-06
8.71133e-06
-4.58133e-06
1.03511e-05
-6.6893e-06
1.23924e-05
-9.39021e-06
1.50144e-05
-1.27818e-05
1.84681e-05
-1.69403e-05
2.30421e-05
-2.19482e-05
2.90991e-05
-2.79266e-05
3.71821e-05
4.80708e-05
-3.50633e-05
-6.46213e-07
6.82563e-06
-1.52928e-06
8.22096e-06
-2.68023e-06
9.86228e-06
-4.17853e-06
1.18494e-05
-6.11403e-06
1.43279e-05
-8.58922e-06
1.74896e-05
-1.17017e-05
2.15806e-05
-1.5544e-05
2.68845e-05
-2.02251e-05
3.37802e-05
-2.58525e-05
4.28094e-05
5.47276e-05
-3.25092e-05
-5.63562e-07
7.3892e-06
-1.3658e-06
9.02319e-06
-2.42098e-06
1.09175e-05
-3.79768e-06
1.32261e-05
-5.57904e-06
1.61092e-05
-7.85826e-06
1.97689e-05
-1.07301e-05
2.44524e-05
-1.42981e-05
3.04525e-05
-1.86812e-05
3.81633e-05
-2.40055e-05
4.81337e-05
6.11409e-05
-3.04188e-05
-5.61162e-07
7.95036e-06
-1.31375e-06
9.77578e-06
-2.28746e-06
1.18912e-05
-3.5523e-06
1.44909e-05
-5.18848e-06
1.77454e-05
-7.2795e-06
2.18599e-05
-9.91742e-06
2.70903e-05
-1.32146e-05
3.37496e-05
-1.72957e-05
4.22444e-05
-2.22943e-05
5.31323e-05