/*--------------------------------*- C++ -*----------------------------------*\
| =========                 |                                                 |
| \\      /  F ield         | OpenFOAM: The Open Source CFD Toolbox           |
|  \\    /   O peration     | Version:  3.0.1                                 |
|   \\  /    A nd           | Web:      www.OpenFOAM.org                      |
|    \\/     M anipulation  |                                                 |
\*---------------------------------------------------------------------------*/
FoamFile
{
    version     2.0;
    format      ascii;
    class       volScalarField;
    location    "0.387276";
    object      k;
}
// * * * * * * * * * * * * * * * * * * * * * * * * * * * * * * * * * * * * * //

dimensions      [0 2 -2 0 0 0 0];

internalField   nonuniform List<scalar> 
21246
(
1.25721
1.75795
1.256
0.787889
0.457706
0.257794
0.143823
0.0797894
0.0442346
0.0248499
0.0147614
0.85614
1.20363
1.00556
0.692418
0.431519
0.255437
0.146159
0.0815338
0.0447556
0.0247081
0.0144624
0.602808
0.995662
0.902611
0.681858
0.449142
0.274389
0.159999
0.0902802
0.0497717
0.0272693
0.015676
0.487572
0.796871
0.793899
0.666036
0.475069
0.301121
0.178441
0.101556
0.0560601
0.0305551
0.0173012
0.425729
0.659523
0.667202
0.588887
0.445318
0.298186
0.182939
0.105739
0.0582778
0.0313716
0.0173934
0.389908
0.569892
0.581291
0.517299
0.395793
0.271821
0.171843
0.10227
0.0580873
0.0320582
0.0182198
0.364846
0.503826
0.513842
0.457516
0.353486
0.24627
0.15897
0.0970677
0.0566205
0.0320079
0.0184309
0.346385
0.452594
0.459645
0.407808
0.316178
0.222178
0.145595
0.0907915
0.0542815
0.0315123
0.0189249
0.332085
0.411767
0.41587
0.367384
0.285045
0.201392
0.133506
0.0847729
0.0519066
0.0309511
0.019012
0.32025
0.37811
0.380294
0.335068
0.260106
0.184528
0.123439
0.0795586
0.0497083
0.0302872
0.0187849
0.310277
0.349775
0.350925
0.308992
0.240191
0.171065
0.115307
0.0752228
0.0477513
0.0295716
0.0187669
0.302137
0.325895
0.326337
0.287468
0.223984
0.160228
0.108783
0.0717286
0.0461643
0.0290298
0.0187371
0.295686
0.305541
0.305764
0.269905
0.211074
0.151785
0.103793
0.0691143
0.0450476
0.0287287
0.0187455
0.290678
0.288018
0.28861
0.255957
0.201301
0.14567
0.100341
0.0674246
0.0444229
0.0286279
0.0189041
0.286953
0.272944
0.27406
0.244687
0.19394
0.141463
0.0982317
0.0666009
0.0443104
0.0287842
0.0190751
0.284707
0.259746
0.261747
0.23587
0.188901
0.139168
0.0975246
0.0667191
0.0447878
0.0292685
0.0194237
0.283952
0.248026
0.251142
0.229416
0.186368
0.139005
0.0984177
0.0679381
0.0459878
0.0301648
0.019997
0.284375
0.237712
0.241309
0.223711
0.185388
0.140871
0.101153
0.0705213
0.0481272
0.0316924
0.0210231
0.286182
0.228507
0.232066
0.218578
0.185457
0.1443
0.105545
0.0744723
0.051274
0.0340469
0.0225947
0.289808
0.220193
0.223115
0.213664
0.186205
0.149061
0.111645
0.0800579
0.0557503
0.0375005
0.0249777
0.29603
0.212684
0.21405
0.208389
0.186912
0.154585
0.119336
0.0876407
0.0621604
0.0426283
0.0287278
0.306715
0.205422
0.204554
0.201873
0.186362
0.159756
0.12808
0.0974375
0.0712791
0.0503949
0.034771
0.321572
0.197984
0.193201
0.19369
0.183994
0.163732
0.137167
0.109321
0.0837098
0.0619161
0.0445011
0.334908
0.195321
0.193005
0.188117
0.180431
0.165719
0.145276
0.122093
0.0989261
0.0775686
0.0591066
1.2435
2.04229
1.41533
0.977332
0.623076
0.348967
0.185979
0.0984232
0.0528486
0.0289116
0.0168114
1.12678
1.62286
1.39563
1.07347
0.765798
0.470836
0.2539
0.134911
0.0706758
0.0370861
0.0203034
0.863344
1.26893
1.27347
1.06469
0.816017
0.550612
0.324194
0.179082
0.0950448
0.0488058
0.0257683
0.543739
1.08934
1.15686
1.02132
0.819899
0.5886
0.375332
0.223115
0.123738
0.0646235
0.0347708
0.392888
1.18385
1.14053
0.997811
0.812996
0.604643
0.407837
0.260269
0.154753
0.0837344
0.0463002
0.466431
1.31397
1.19685
1.00726
0.811042
0.611844
0.428535
0.288171
0.184536
0.106084
0.0605802
0.535054
1.54245
1.35487
1.06639
0.824
0.617421
0.441967
0.30916
0.209258
0.129618
0.0761365
0.566072
1.61279
1.57766
1.18833
0.860939
0.626193
0.450896
0.324598
0.229588
0.151095
0.0939993
0.559943
1.53014
1.74741
1.35559
0.926152
0.642334
0.458019
0.335914
0.246265
0.170375
0.111719
0.548982
1.4448
1.84275
1.54451
1.01941
0.668638
0.465589
0.34449
0.260051
0.187721
0.127928
0.538316
1.37431
1.86614
1.72364
1.13619
0.707055
0.475743
0.351755
0.271697
0.203403
0.143502
0.527685
1.3157
1.8421
1.85736
1.26299
0.755444
0.488923
0.358559
0.281779
0.217726
0.158179
0.516494
1.26153
1.79141
1.93499
1.38678
0.811337
0.505694
0.365931
0.29105
0.231229
0.172562
0.50423
1.19836
1.71956
1.95716
1.49476
0.871813
0.526468
0.374992
0.300415
0.244407
0.187495
0.494461
1.12645
1.62653
1.92699
1.57293
0.929823
0.550334
0.386475
0.310852
0.257855
0.203516
0.48528
1.06064
1.50737
1.8389
1.60834
0.977422
0.57494
0.401226
0.323827
0.272939
0.22078
0.475328
0.993071
1.37357
1.67402
1.59437
1.00635
0.599145
0.42061
0.341329
0.291393
0.240629
0.465273
0.922219
1.22944
1.45941
1.4915
1.01574
0.622494
0.447626
0.366898
0.316079
0.264794
0.457336
0.851503
1.07735
1.23408
1.27799
1.01812
0.654221
0.490646
0.408216
0.353065
0.297105
0.456264
0.788205
0.929645
1.0168
1.05728
0.980491
0.723619
0.565651
0.476467
0.408815
0.342529
0.476694
0.758179
0.836002
0.8744
0.913767
0.912686
0.792864
0.636492
0.532577
0.45075
0.369212
0.592805
0.946319
0.985714
0.969058
0.916938
0.850877
0.702718
0.559184
0.447912
0.350339
0.262232
0.406473
0.835527
0.919478
0.717573
0.563363
0.446481
0.348988
0.271924
0.210593
0.162024
0.123386
0.357255
0.284454
0.237323
0.208569
0.189753
0.17375
0.156916
0.138155
0.117973
0.0976056
0.078227
0.328558
0.393585
0.147158
0.0707605
0.0339079
0.019763
0.0145431
0.012366
0.0112414
0.0105127
0.00993827
0.371366
0.521609
0.186359
0.0912199
0.0413624
0.022162
0.015023
0.0122115
0.0108416
0.00998542
0.00931849
0.40437
0.497646
0.218927
0.109633
0.0473828
0.0248828
0.0157728
0.0122524
0.0106034
0.00961346
0.00885595
0.418698
0.456426
0.232089
0.119023
0.0516921
0.0273724
0.0165777
0.0123984
0.0104812
0.00937013
0.00853907
0.414683
0.4354
0.237591
0.123044
0.0557435
0.0294958
0.0173731
0.012621
0.010453
0.00923983
0.00837983
0.396497
0.428526
0.243647
0.127891
0.0607169
0.0318361
0.0182335
0.0129271
0.0105141
0.00920446
0.0083217
0.367977
0.430879
0.252512
0.135112
0.0666161
0.0347875
0.0195937
0.0133393
0.0106618
0.00924836
0.00832868
0.332704
0.441013
0.264188
0.144187
0.0733051
0.0383091
0.0213761
0.0140618
0.0109458
0.00936366
0.00840466
0.295025
0.455584
0.280072
0.155581
0.0811012
0.0426502
0.0236585
0.0150802
0.0113848
0.00958193
0.0085474
0.258104
0.471125
0.302182
0.170869
0.0909039
0.0482706
0.026664
0.0165084
0.0120293
0.00990368
0.00875283
0.223509
0.489577
0.330505
0.190383
0.102999
0.0553256
0.0305445
0.0184506
0.0129466
0.0103614
0.00903046
0.194023
0.514678
0.365218
0.213953
0.117198
0.0637091
0.0353281
0.0209825
0.0142055
0.0110005
0.00940173
0.173289
0.543462
0.408021
0.243319
0.134494
0.0738403
0.0412436
0.0242676
0.0159208
0.011892
0.00990697
0.16238
0.571172
0.459791
0.281145
0.15668
0.086604
0.0487234
0.0285631
0.018266
0.0131478
0.010608
0.162024
0.604208
0.521299
0.328492
0.184573
0.102447
0.0580178
0.0340599
0.0214128
0.014902
0.0115995
0.171773
0.637962
0.591552
0.388483
0.220905
0.122917
0.0699172
0.0411928
0.0256517
0.0173635
0.0130183
0.187875
0.662159
0.664215
0.464039
0.270115
0.150938
0.0860212
0.0508249
0.031497
0.0208737
0.015096
0.200392
0.669752
0.726937
0.553012
0.335934
0.190049
0.108635
0.0643332
0.0397884
0.0259841
0.0182153
0.208067
0.659285
0.765369
0.645991
0.421047
0.245556
0.141926
0.0844412
0.0522255
0.0337758
0.0230827
0.209935
0.630531
0.766649
0.72134
0.521112
0.323316
0.192835
0.11645
0.0723644
0.0465483
0.0312
0.204881
0.571815
0.721945
0.752453
0.620191
0.427199
0.272249
0.170627
0.10788
0.069579
0.0460755
0.218885
0.518299
0.657427
0.745956
0.698151
0.551329
0.391215
0.263431
0.173932
0.114784
0.0763314
0.203681
0.428149
0.510507
0.580161
0.600094
0.560342
0.472638
0.366024
0.267967
0.190744
0.133142
0.254587
0.525147
0.52772
0.557986
0.559418
0.530574
0.475787
0.400294
0.322025
0.25176
0.19104
0.261176
0.27358
0.126833
0.0564261
0.0294524
0.0188963
0.0147102
0.0128456
0.0118555
0.0112173
0.0107202
0.228827
0.224091
0.108588
0.0603617
0.0328338
0.0208562
0.0159499
0.0138098
0.012758
0.0121589
0.0117521
0.248048
0.242346
0.106351
0.0704658
0.0398051
0.0250188
0.0181898
0.0152093
0.0138534
0.0131969
0.0128574
0.264966
0.232369
0.101862
0.0742653
0.0437048
0.028611
0.0208225
0.0171649
0.0154341
0.0145821
0.0141475
0.277153
0.206316
0.0991229
0.0753651
0.044998
0.030108
0.0219369
0.0181087
0.0163609
0.0156128
0.0153576
0.285872
0.182334
0.0964022
0.0735298
0.0445575
0.0306268
0.0225076
0.0187527
0.0171072
0.0165558
0.0166029
0.29262
0.163887
0.0936216
0.0707231
0.0435177
0.0306874
0.0227486
0.0191599
0.0176297
0.0172484
0.0175612
0.297404
0.149935
0.0908075
0.0678892
0.042549
0.0305828
0.0228526
0.0194172
0.0179425
0.0176166
0.0179988
0.301631
0.139421
0.0884064
0.0656654
0.0420157
0.0304758
0.0229628
0.0196153
0.0181439
0.0178112
0.01821
0.30611
0.131831
0.0865866
0.0640707
0.0419436
0.0305264
0.0231549
0.0198143
0.0183008
0.017923
0.0182926
0.311404
0.126624
0.085552
0.0633465
0.0423157
0.0308393
0.0234793
0.020057
0.0184521
0.0179835
0.0182192
0.317325
0.122945
0.0850094
0.0633269
0.0430982
0.0314395
0.0239631
0.0203759
0.018632
0.0180488
0.01818
0.324221
0.120659
0.0850242
0.0639931
0.0443628
0.0323876
0.0246572
0.0208101
0.0188721
0.0181483
0.0181831
0.330037
0.121125
0.0857372
0.0653202
0.0462982
0.0338421
0.0257131
0.0214529
0.0192352
0.0183198
0.0182485
0.334854
0.122899
0.0868107
0.0669876
0.0488009
0.0358574
0.0272691
0.022437
0.019831
0.0186442
0.0184128
0.338849
0.126021
0.0883273
0.0690084
0.0518287
0.0385375
0.0294417
0.0239085
0.0207742
0.019204
0.0187215
0.342161
0.130716
0.0904533
0.0714197
0.0553542
0.0419825
0.0323833
0.0260676
0.0222487
0.0201454
0.0192715
0.344879
0.136773
0.0933172
0.0742327
0.0593024
0.0462198
0.036244
0.0291548
0.0245218
0.0217165
0.0202687
0.347123
0.144158
0.0971426
0.0775215
0.0636076
0.0512107
0.0411409
0.0334302
0.0279513
0.0243012
0.0220863
0.349087
0.152969
0.102319
0.0814881
0.0682532
0.0568287
0.0470852
0.0390992
0.0329343
0.0284282
0.0253214
0.351072
0.163189
0.109237
0.0864867
0.0733063
0.062854
0.0538556
0.0461155
0.0397006
0.0346034
0.0307194
0.353827
0.174204
0.118068
0.0929463
0.0789469
0.0689853
0.0608351
0.0538094
0.0477589
0.0426612
0.0384963
0.35783
0.187247
0.129701
0.101728
0.0857674
0.075147
0.0671696
0.060746
0.0554118
0.0509467
0.0471965
0.376908
0.20304
0.155821
0.132024
0.1175
0.106782
0.0983546
0.0948538
0.0943273
0.0951797
0.09542
0.675659
1.14547
1.02803
0.894685
0.700833
0.495354
0.329596
0.218945
0.15142
0.111031
0.0909788
0.564909
0.861331
0.901866
0.845345
0.719153
0.546127
0.370321
0.22895
0.150127
0.105828
0.0849275
0.405334
0.626987
0.752408
0.761287
0.693196
0.565249
0.407969
0.259426
0.159802
0.103538
0.0780725
0.240598
0.485021
0.622672
0.669166
0.644548
0.557608
0.428364
0.287799
0.17742
0.108517
0.0738966
0.1282
0.40959
0.528798
0.586285
0.587842
0.53288
0.43202
0.307631
0.195833
0.117643
0.0738108
0.100813
0.361141
0.466967
0.518849
0.530829
0.497788
0.421771
0.31655
0.210524
0.127951
0.0765925
0.0900807
0.310572
0.419534
0.464097
0.47739
0.457243
0.400693
0.31422
0.218321
0.136247
0.0802969
0.0779785
0.240802
0.363047
0.413571
0.427469
0.414291
0.37187
0.301832
0.217878
0.140152
0.0828527
0.0652187
0.186083
0.290947
0.360582
0.379166
0.370469
0.338172
0.281663
0.209644
0.138671
0.0829443
0.0543414
0.148624
0.227725
0.299559
0.330455
0.326386
0.301849
0.256246
0.195194
0.132092
0.0801785
0.0453028
0.120067
0.179477
0.239403
0.279819
0.28254
0.264451
0.227736
0.176431
0.121561
0.0748422
0.0385829
0.0985887
0.143265
0.189839
0.229588
0.239867
0.227453
0.198167
0.155504
0.108789
0.0680826
0.0335195
0.0820271
0.116229
0.151518
0.185495
0.19999
0.192673
0.169813
0.134927
0.0959683
0.0613053
0.0292641
0.0690563
0.0962883
0.122956
0.15037
0.16507
0.16208
0.144992
0.117137
0.0851568
0.0557831
0.0260828
0.0592793
0.0820872
0.102491
0.124033
0.13706
0.137404
0.125604
0.104034
0.0779096
0.0526725
0.0238152
0.0519259
0.0721845
0.0882448
0.10496
0.116513
0.119578
0.112748
0.0967035
0.075101
0.0524858
0.0221499
0.0464425
0.0650532
0.0781224
0.0918419
0.102919
0.108874
0.106945
0.0956747
0.0771791
0.0553996
0.0206613
0.0426781
0.0598475
0.0711445
0.0838507
0.0963757
0.106432
0.109659
0.102406
0.0854666
0.0626917
0.019304
0.0403177
0.0559396
0.066975
0.0817207
0.0992527
0.116038
0.124869
0.120124
0.102365
0.0759944
0.0180965
0.0402416
0.0550918
0.0688262
0.0890181
0.114978
0.137536
0.149495
0.147032
0.128315
0.0968318
0.02432
0.0510885
0.0607895
0.0747696
0.10082
0.133901
0.155585
0.168378
0.170271
0.156784
0.123382
0.0347258
0.0556752
0.0635522
0.0946746
0.1332
0.160917
0.18019
0.190369
0.192148
0.18364
0.156579
0.0368468
0.0764781
0.110922
0.15204
0.183383
0.202625
0.209243
0.206446
0.199752
0.192551
0.176644
0.1259
0.166753
0.208007
0.234205
0.244917
0.240683
0.225727
0.207308
0.1919
0.183507
0.176945
0.728612
1.11052
1.05096
0.881011
0.675932
0.483204
0.332637
0.229249
0.161902
0.119325
0.0965033
0.497645
0.826896
0.910559
0.863148
0.725284
0.550631
0.390263
0.26985
0.187649
0.133566
0.101778
0.281418
0.593637
0.746498
0.808815
0.762785
0.630279
0.468356
0.328423
0.226279
0.156027
0.111754
0.116803
0.334921
0.525757
0.673704
0.733484
0.680505
0.547273
0.399667
0.27864
0.189344
0.128075
0.0572696
0.153776
0.297473
0.469133
0.612201
0.663092
0.602322
0.476997
0.348197
0.24157
0.161971
0.0505438
0.114898
0.189498
0.300094
0.439047
0.550087
0.575179
0.508765
0.403184
0.299232
0.209355
0.0529898
0.113587
0.167131
0.238291
0.33914
0.452091
0.516022
0.492316
0.413396
0.326568
0.245689
0.0566715
0.117539
0.164406
0.220453
0.295104
0.388937
0.468133
0.472986
0.410215
0.337344
0.268576
0.0607407
0.122836
0.166302
0.214845
0.274755
0.352086
0.429092
0.455682
0.404142
0.335012
0.281735
0.0649446
0.129104
0.17042
0.213128
0.262041
0.326528
0.397826
0.436595
0.401407
0.326885
0.279295
0.0691941
0.136193
0.17574
0.212585
0.251956
0.304774
0.368728
0.414866
0.396035
0.322581
0.267993
0.0736305
0.144455
0.18265
0.21319
0.244052
0.284943
0.339346
0.388747
0.386219
0.319389
0.255224
0.0779834
0.152369
0.1895
0.21534
0.23818
0.266967
0.30948
0.357691
0.370154
0.315597
0.245019
0.0823689
0.16018
0.196808
0.218431
0.233912
0.251719
0.281064
0.322917
0.34724
0.30894
0.236897
0.0869988
0.167973
0.204595
0.222182
0.230899
0.239117
0.256332
0.28785
0.317279
0.297301
0.231628
0.0921667
0.17652
0.213378
0.226859
0.228779
0.228334
0.235717
0.256526
0.282335
0.278448
0.229704
0.0977493
0.186459
0.224125
0.233828
0.229045
0.220133
0.218917
0.230822
0.24932
0.253035
0.225027
0.103931
0.198756
0.238775
0.24598
0.233982
0.215847
0.20645
0.210643
0.222297
0.227814
0.216254
0.110931
0.214862
0.259648
0.264662
0.2447
0.217453
0.199264
0.195616
0.200944
0.205429
0.201085
0.118074
0.234442
0.283592
0.28731
0.262573
0.226706
0.198628
0.186197
0.184665
0.185555
0.182365
0.121043
0.250677
0.304058
0.311222
0.284319
0.241314
0.203954
0.18293
0.174765
0.171511
0.16741
0.12554
0.261295
0.319039
0.327078
0.299731
0.254009
0.211501
0.184554
0.171717
0.166177
0.163346
0.133006
0.271316
0.316888
0.323236
0.298692
0.257564
0.216887
0.188435
0.173313
0.166891
0.166576
0.190878
0.279109
0.301214
0.296306
0.27638
0.247052
0.216393
0.192177
0.176818
0.170901
0.170846
0.110741
0.122217
0.128696
0.128625
0.130023
0.129719
0.125519
0.11647
0.104566
0.163666
0.18571
0.204639
0.218601
0.211045
0.196822
0.178831
0.156678
0.129934
0.162984
0.181856
0.204795
0.220782
0.21465
0.199369
0.178812
0.158012
0.139212
0.147234
0.160845
0.18067
0.194027
0.187866
0.175722
0.159818
0.143472
0.129214
0.096403
0.0757197
0.0436526
0.0193439
0.0159148
0.0148124
0.0177589
0.0546065
0.0857821
0.133433
0.101267
0.0713656
0.0424068
0.0242391
0.0263861
0.045428
0.0709694
0.1007
0.144995
0.121228
0.0895321
0.0529025
0.0300183
0.0337982
0.0546517
0.0863076
0.116515
0.134281
0.117966
0.0935708
0.0597052
0.0363717
0.0405852
0.0600262
0.0902779
0.11349
0.00442727
0.00460101
0.00461628
0.00635032
0.0403498
0.0043886
0.0122041
0.00454053
0.00438219
0.00424527
0.040241
0.00455142
0.00376112
0.00335799
0.00448374
0.00430222
0.00331619
0.00622976
0.00429133
0.00424678
0.00411495
0.00480706
0.00466668
0.0146437
0.00449362
0.00335721
0.0038067
0.0119169
0.0890427
0.050407
0.00337286
0.00410428
0.00327364
0.00453429
0.00426209
0.00459229
0.0135398
0.00448903
0.0032668
0.00439749
0.007093
0.00454355
0.00849756
0.00465966
0.0616431
0.0128398
0.003041
0.0202191
0.00429336
0.00432382
0.0494182
0.00440224
0.018645
0.00838883
0.00432046
0.00412158
0.00462092
0.00440804
0.0884743
0.0117444
0.00540018
0.0187419
0.0487362
0.0176664
0.0085587
0.00425796
0.0579451
0.0042599
0.00460177
0.00423492
0.00327249
0.00433371
0.00406611
0.00472473
0.0172052
0.00429688
0.00445313
0.0045968
0.0118441
0.0729961
0.0179675
0.0152763
0.00449538
0.0046257
0.004369
0.00401633
0.101643
0.0174308
0.00367173
0.0104591
0.00454231
0.0044173
0.00757829
0.00437685
0.0722093
0.026449
0.0133788
0.00394586
0.00390433
0.00442954
0.00469649
0.0208852
0.00416949
0.00402111
0.00385306
0.00455024
0.00317053
0.00464645
0.00352339
0.00419246
0.00450537
0.00455864
0.00430967
0.00533607
0.00497526
0.00442438
0.00438598
0.00431419
0.00449302
0.00414114
0.00515239
0.0046038
0.00521175
0.00327449
0.0120349
0.00409034
0.0102295
0.00315979
0.00334133
0.00341317
0.00445217
0.0115174
0.0202075
0.00430481
0.00461513
0.00454512
0.00428569
0.0106577
0.0500384
0.00446284
0.00885296
0.0041194
0.0290515
0.00402384
0.00437798
0.00296155
0.00445633
0.0042647
0.00433062
0.00423598
0.00426437
0.00441768
0.00308296
0.00460455
0.00584574
0.00350558
0.00373706
0.00393728
0.00321944
0.00435882
0.00361724
0.00449728
0.00432699
0.00443429
0.0616575
0.00440281
0.00439437
0.00440703
0.00413511
0.00831499
0.00325288
0.00318344
0.00442065
0.00405635
0.00409422
0.00396164
0.00313574
0.0032671
0.0623033
0.00392786
0.00426444
0.00486637
0.00465927
0.0111065
0.00449714
0.00879073
0.00423909
0.00429838
0.00458756
0.0175948
0.00351731
0.00349521
0.00427146
0.00680882
0.00460987
0.00439998
0.00435493
0.00394228
0.00342982
0.00467917
0.00319549
0.00431683
0.00359102
0.00341983
0.00462809
0.017303
0.00435472
0.00334239
0.00434386
0.00433849
0.01067
0.00439523
0.00401072
0.00422275
0.00448938
0.0227256
0.00450893
0.00278568
0.00425788
0.00334357
0.00326584
0.00549221
0.0122839
0.00468822
0.00324885
0.00441269
0.00806533
0.00407205
0.00346836
0.0362902
0.00413312
0.00425555
0.00425626
0.00461391
0.00315823
0.0752583
0.039966
0.00464611
0.00455692
0.00454442
0.00280008
0.0177555
0.00401202
0.005851
0.00452411
0.00502761
0.0045163
0.00348512
0.033396
0.0237252
0.00347628
0.0111097
0.00509725
0.00429555
0.00395011
0.00436456
0.00414184
0.00447518
0.00311956
0.00423269
0.00336449
0.00454825
0.00432597
0.00457261
0.00450365
0.00298533
0.00412201
0.00434202
0.00558087
0.00370703
0.0180288
0.00431077
0.00430986
0.00301887
0.00438693
0.00432749
0.00331106
0.00444523
0.00427846
0.00396542
0.00438455
0.00459957
0.0185437
0.0358707
0.00394999
0.0043949
0.0789182
0.00458722
0.0042501
0.0084352
0.00461713
0.0124827
0.00451277
0.00342423
0.0046782
0.00435304
0.0041137
0.00456253
0.00426114
0.00332869
0.00444428
0.00566461
0.00436737
0.0506153
0.00415226
0.0041904
0.00459753
0.00446016
0.00470202
0.00435304
0.00796053
0.00456389
0.00409529
0.00324974
0.00514354
0.00410466
0.00374171
0.00453498
0.00412991
0.00453595
0.00423887
0.00972395
0.00435732
0.00335998
0.00947595
0.00424529
0.0044517
0.00372961
0.00423957
0.0288635
0.00425163
0.0493339
0.00396001
0.00465152
0.00359232
0.0411451
0.00386439
0.00458518
0.00447128
0.0039341
0.00405114
0.0112816
0.00430445
0.00462582
0.0166467
0.00453539
0.00883321
0.00437959
0.0117707
0.0129114
0.00905134
0.00390284
0.00372493
0.00416904
0.00397259
0.00468917
0.00330466
0.00399655
0.00466077
0.0291824
0.0038493
0.00343594
0.00451659
0.0045115
0.00431229
0.00401722
0.00316459
0.00343286
0.0108778
0.0049225
0.00443893
0.0102737
0.038114
0.00316481
0.00384977
0.00460829
0.0039079
0.00424871
0.00437456
0.00424244
0.0206412
0.00438457
0.00304922
0.00441871
0.00348108
0.0529303
0.00531161
0.00324064
0.0181497
0.00399743
0.0044276
0.00559563
0.00319161
0.0047476
0.0530054
0.00870526
0.00447738
0.00427841
0.00462305
0.00383037
0.00309994
0.00441122
0.00466313
0.00863831
0.00312754
0.00808102
0.00930212
0.00397557
0.00431528
0.00949685
0.004303
0.00427658
0.00350956
0.00348059
0.00304175
0.00407359
0.00352685
0.00494661
0.00309838
0.00528215
0.0256413
0.00317209
0.0129181
0.00349217
0.00398205
0.00417405
0.00469048
0.00484011
0.00500579
0.00984977
0.00448472
0.00303467
0.00344181
0.00410407
0.00444626
0.0035387
0.020559
0.045601
0.00328102
0.00468854
0.00395621
0.100085
0.00851295
0.00541692
0.00420851
0.00481562
0.0155269
0.00358793
0.00434125
0.00416988
0.00443887
0.00461271
0.00449743
0.00476638
0.00444467
0.0114085
0.0032613
0.00321305
0.00481473
0.00458929
0.00433625
0.0107741
0.00314411
0.0039414
0.00427488
0.00800811
0.00740171
0.00545505
0.00546768
0.00425847
0.00393232
0.00527524
0.00421399
0.00533972
0.00424027
0.00458376
0.00432158
0.0055784
0.00376947
0.00424627
0.0044522
0.00413121
0.0286802
0.00485166
0.00464749
0.00285798
0.0425933
0.00404613
0.00364796
0.00433883
0.00348169
0.0043975
0.00423433
0.00440852
0.00339424
0.00328208
0.00426149
0.00339024
0.00399769
0.00432345
0.00375125
0.00372064
0.00453423
0.00453388
0.0391725
0.00446011
0.00518616
0.00425299
0.0189219
0.00461911
0.0336467
0.00435202
0.0039417
0.00413378
0.00473672
0.0463536
0.00343122
0.00337786
0.00445208
0.00358313
0.0041198
0.00459776
0.00442532
0.00456948
0.00420406
0.0205237
0.00451152
0.00435285
0.00977591
0.00443676
0.00968847
0.00419222
0.00412484
0.0032919
0.00377327
0.00467806
0.00447633
0.00463783
0.00651741
0.00382883
0.00450053
0.00448996
0.0032721
0.00461791
0.00819553
0.00460728
0.020446
0.00423621
0.00418538
0.00335863
0.00329924
0.0138838
0.0362263
0.00416184
0.00411828
0.00431299
0.00460528
0.00353942
0.00339719
0.00423447
0.00343554
0.0278172
0.0262026
0.00449213
0.00432752
0.00459824
0.0153792
0.0439326
0.00428104
0.00453925
0.00437903
0.0346146
0.00431105
0.00347936
0.00335439
0.00412121
0.0290719
0.00443254
0.00443116
0.00446377
0.00355535
0.00433997
0.018721
0.00315569
0.00409563
0.00532775
0.00500065
0.00463982
0.00467393
0.0719157
0.00440948
0.00351913
0.0067091
0.00369509
0.0159127
0.00402521
0.00367587
0.00421888
0.00443791
0.0044866
0.0260683
0.00297988
0.00387321
0.00424889
0.00450083
0.00791169
0.00422579
0.00446889
0.00425623
0.00430756
0.00352385
0.0031859
0.00378578
0.00566223
0.00401011
0.0051278
0.00428872
0.00789887
0.00428447
0.00445223
0.0330313
0.0155042
0.00438355
0.00438997
0.00423909
0.00415647
0.00433048
0.00564717
0.00460811
0.00420179
0.00343872
0.00341606
0.0038088
0.00316291
0.00313916
0.00642694
0.00624447
0.00498002
0.0052715
0.00352822
0.00422728
0.0035362
0.00348587
0.00462099
0.00417172
0.00918183
0.00393454
0.0042083
0.00444785
0.00345055
0.00852234
0.0325129
0.00359432
0.00461575
0.00442557
0.00519498
0.00455004
0.00428908
0.00426835
0.00342587
0.00426095
0.00425846
0.00419375
0.0045909
0.00856101
0.00615104
0.0356326
0.00428392
0.00421664
0.00398939
0.00873787
0.00448508
0.0180934
0.0043123
0.0164305
0.00634697
0.00443108
0.00409911
0.00465905
0.0032887
0.0121155
0.00351869
0.0287794
0.00362573
0.00426963
0.00463617
0.00380681
0.00315511
0.00461744
0.0114257
0.00437123
0.00407897
0.00463228
0.00373079
0.00419799
0.00289355
0.00455368
0.00440715
0.00440388
0.00382125
0.00348886
0.00456235
0.00329371
0.00437352
0.00394177
0.00322694
0.00407873
0.00766322
0.00519482
0.00337178
0.00407232
0.00368416
0.00366779
0.00593752
0.00324808
0.0123858
0.00446777
0.00358225
0.00448814
0.00424502
0.00742321
0.00480787
0.0035176
0.00335088
0.00431363
0.00420175
0.00413304
0.00281252
0.00458399
0.0121122
0.00753697
0.0210772
0.00416049
0.00396746
0.0100835
0.0156368
0.00457219
0.00357423
0.00388266
0.00487827
0.00452341
0.00344687
0.0266734
0.00454866
0.00969042
0.00346568
0.00479429
0.0158934
0.00438684
0.00422547
0.00421861
0.00332295
0.00439695
0.00315835
0.00457119
0.00330247
0.00431711
0.00342433
0.00439668
0.0141196
0.00350629
0.00428642
0.0178462
0.0137804
0.00446343
0.00320082
0.0038438
0.00489596
0.0051089
0.00396357
0.00443667
0.00526858
0.0033711
0.00495043
0.00428034
0.00436028
0.00441585
0.00971974
0.00372599
0.00468991
0.00448242
0.00456025
0.0436056
0.0115803
0.00366985
0.00457365
0.00358832
0.00463152
0.00455521
0.00457814
0.00462693
0.00447888
0.00443256
0.00312776
0.00540121
0.00890114
0.00316397
0.00448454
0.00442976
0.00449463
0.00375324
0.0252936
0.00459606
0.00411869
0.00352865
0.0180378
0.0134428
0.00471135
0.00391664
0.00624493
0.00443343
0.00446225
0.0115998
0.0042179
0.00456205
0.00446352
0.00385596
0.00399483
0.00389706
0.00455579
0.00409617
0.00628291
0.00376274
0.00456059
0.0032247
0.00646688
0.00343181
0.00463728
0.00463966
0.00427347
0.00643436
0.00321394
0.0045445
0.00460033
0.00419238
0.00473672
0.0043351
0.0045889
0.0159961
0.00341731
0.0092322
0.015378
0.00796392
0.00454401
0.0481943
0.00466915
0.00430545
0.00514084
0.00448413
0.0044159
0.00441981
0.00403488
0.0202195
0.00348244
0.00441301
0.00750939
0.0044242
0.00468786
0.00433096
0.00438558
0.00446885
0.00449371
0.00455851
0.00431672
0.0700118
0.00438277
0.00425461
0.00469494
0.0206618
0.00425113
0.00450522
0.0129145
0.0617442
0.00421699
0.00448517
0.00339066
0.00563107
0.00465157
0.00454021
0.0042419
0.00400628
0.00834841
0.00459743
0.00972437
0.0034317
0.00639925
0.00339369
0.00457718
0.00348038
0.00564069
0.00444303
0.00458728
0.00426184
0.00460725
0.00393959
0.0103794
0.00417306
0.00478128
0.016005
0.00473772
0.00393288
0.00662454
0.00466369
0.00455665
0.00310285
0.00315677
0.0034955
0.00440307
0.0238385
0.00430999
0.00342505
0.00430874
0.00311659
0.00318386
0.00421745
0.00344915
0.0042026
0.0045278
0.0420571
0.00446628
0.00966126
0.00429534
0.00343805
0.00432263
0.00420898
0.0158847
0.00438083
0.00460447
0.00349897
0.00951931
0.019158
0.00358651
0.00335277
0.0034248
0.0225698
0.0336942
0.00451966
0.00437192
0.0122461
0.00439923
0.00537471
0.00449111
0.00814452
0.00342331
0.00392185
0.00460331
0.00341626
0.00464817
0.00441087
0.00353343
0.00601557
0.00424738
0.00445833
0.00431331
0.00455689
0.00469405
0.00512075
0.00454104
0.00418761
0.00807721
0.00281774
0.00416467
0.00460949
0.00414817
0.00331657
0.00459974
0.00470286
0.00408583
0.00828429
0.0543117
0.00396579
0.00344045
0.0040998
0.00434663
0.00288365
0.0037148
0.00422066
0.00442174
0.00455409
0.0692847
0.0038392
0.0221593
0.00455282
0.00446707
0.00794895
0.0534649
0.00331453
0.00318808
0.00467578
0.00321732
0.031465
0.00456061
0.00402438
0.0216141
0.00269533
0.0250502
0.00356843
0.00445184
0.00432378
0.00445794
0.00422375
0.0074209
0.00336083
0.00406179
0.0476504
0.00459932
0.00294813
0.00419188
0.00501954
0.00786282
0.00476358
0.00439072
0.00407781
0.00316972
0.00454425
0.00468377
0.00467846
0.0144984
0.00414124
0.00461113
0.00371424
0.00805003
0.00321108
0.00452112
0.00875791
0.00415463
0.00407549
0.00383005
0.00455498
0.00431664
0.00446947
0.0144953
0.00424432
0.015835
0.00399317
0.00386356
0.00450411
0.00417602
0.0045034
0.00437722
0.00495089
0.0282994
0.00932067
0.0590219
0.0102599
0.0350952
0.00420257
0.00448845
0.00576954
0.0046278
0.0031956
0.0205826
0.00429229
0.00530564
0.00388723
0.0406805
0.00419311
0.00324606
0.00454958
0.0422127
0.00469637
0.0376516
0.00405823
0.00483802
0.0053275
0.00779784
0.00420115
0.00475884
0.00641425
0.0044781
0.013754
0.00558416
0.0286152
0.003414
0.00510935
0.0136741
0.00410721
0.00461264
0.00367262
0.00444716
0.00340715
0.00329213
0.00662997
0.00390188
0.0031271
0.05851
0.0043748
0.00426932
0.00430529
0.00457054
0.00339667
0.00337321
0.00425447
0.0032951
0.0373706
0.00425978
0.0545321
0.00806122
0.00447454
0.00587624
0.00384226
0.00301071
0.00326335
0.00609325
0.00442475
0.00452659
0.0495582
0.00437273
0.00458705
0.00350562
0.00454332
0.00439848
0.0430097
0.00464521
0.0340553
0.00399992
0.00380078
0.00428441
0.00430889
0.0100504
0.00346969
0.0135022
0.00444677
0.00337205
0.00630724
0.00338161
0.00376452
0.00527968
0.00368298
0.00423966
0.0184344
0.00502582
0.00406278
0.00431569
0.00310557
0.00379918
0.00432644
0.00394263
0.0537119
0.00425799
0.00468913
0.00450678
0.00407359
0.00316427
0.00318385
0.0033509
0.0710739
0.00479925
0.00587555
0.00555616
0.00457516
0.00412892
0.00424445
0.00421432
0.0884949
0.00457774
0.0204013
0.0373257
0.00456171
0.00449415
0.00455851
0.045882
0.0128712
0.0224768
0.00332296
0.00456615
0.00426625
0.00348981
0.00974533
0.00650403
0.00348161
0.00434155
0.00608704
0.0124481
0.00323256
0.00416836
0.0109498
0.0400052
0.00405078
0.00381425
0.00429926
0.00438432
0.0452235
0.00331023
0.00359671
0.00459959
0.00464928
0.00412903
0.0552387
0.00655126
0.00340087
0.0197408
0.00463446
0.00437831
0.014469
0.0137232
0.00461986
0.00318109
0.00354736
0.00411968
0.0199035
0.00453438
0.00442411
0.00426538
0.0055284
0.00321534
0.00435635
0.00335736
0.00461307
0.00455786
0.00468819
0.00330459
0.00442942
0.00491869
0.00425582
0.00455774
0.0424642
0.00479282
0.00344269
0.00364715
0.00451266
0.00352699
0.00522196
0.00452009
0.00456278
0.00448052
0.00338266
0.00449625
0.00427142
0.00443248
0.00372385
0.00795175
0.00334423
0.00792481
0.00429396
0.0147146
0.00423627
0.00467578
0.00420059
0.00458642
0.00310335
0.0041399
0.00320636
0.00412467
0.00420176
0.00449958
0.00482663
0.00617495
0.00546764
0.0120068
0.00468828
0.0033874
0.0134276
0.00320032
0.00333125
0.00439747
0.0054879
0.0208184
0.00592132
0.00323804
0.0035617
0.00385399
0.00327221
0.00450238
0.0698378
0.00316609
0.00414664
0.00270016
0.00263142
0.00359305
0.00495297
0.0102538
0.0032165
0.0562542
0.0398561
0.00448527
0.00426002
0.0163436
0.0302087
0.00400726
0.0045484
0.00419638
0.00462911
0.00447379
0.00513621
0.00440265
0.00465061
0.0141922
0.00541339
0.00431784
0.00442788
0.00439442
0.00416788
0.00468378