/*--------------------------------*- C++ -*----------------------------------*\
| =========                 |                                                 |
| \\      /  F ield         | OpenFOAM: The Open Source CFD Toolbox           |
|  \\    /   O peration     | Version:  3.0.1                                 |
|   \\  /    A nd           | Web:      www.OpenFOAM.org                      |
|    \\/     M anipulation  |                                                 |
\*---------------------------------------------------------------------------*/
FoamFile
{
    version     2.0;
    format      ascii;
    class       surfaceScalarField;
    location    "0.387276";
    object      phi;
}
// * * * * * * * * * * * * * * * * * * * * * * * * * * * * * * * * * * * * * //

dimensions      [0 3 -1 0 0 0 0];

internalField   nonuniform List<scalar> 
32369
(
-1.16069e-05
-9.95738e-06
2.15643e-05
-1.86713e-05
-1.17682e-05
1.88326e-05
-2.46193e-05
-1.41379e-05
2.00859e-05
-3.01168e-05
-1.63693e-05
2.18668e-05
-3.51828e-05
-1.83128e-05
2.33789e-05
-4.0272e-05
-1.9982e-05
2.50712e-05
-4.57262e-05
-2.1386e-05
2.68402e-05
-5.19015e-05
-2.24928e-05
2.86681e-05
-5.90837e-05
-2.32097e-05
3.03919e-05
-6.75512e-05
-2.33615e-05
3.18291e-05
-2.26037e-05
3.27131e-05
-7.76607e-05
-8.54464e-06
-1.41274e-06
-1.5662e-05
-4.6508e-06
-2.21858e-05
-7.61412e-06
-2.82045e-05
-1.03506e-05
-3.3863e-05
-1.26543e-05
-3.9477e-05
-1.4368e-05
-4.54258e-05
-1.54373e-05
-5.21053e-05
-1.58132e-05
-5.99068e-05
-1.54082e-05
-6.9242e-05
-1.40264e-05
-1.12966e-05
-8.0549e-05
-4.04878e-06
2.63604e-06
-9.20559e-06
5.06014e-07
-1.50764e-05
-1.74334e-06
-2.12345e-05
-4.19248e-06
-2.75386e-05
-6.35021e-06
-3.40678e-05
-7.83882e-06
-4.10007e-05
-8.50444e-06
-4.86394e-05
-8.17452e-06
-5.73608e-05
-6.68679e-06
-6.75089e-05
-3.87827e-06
6.78532e-07
-7.94841e-05
-1.72101e-06
4.35705e-06
-4.90622e-06
3.69123e-06
-9.52403e-06
2.87447e-06
-1.51742e-05
1.45772e-06
-2.15601e-05
3.56954e-08
-2.84025e-05
-9.96439e-07
-3.57359e-05
-1.17107e-06
-4.37434e-05
-1.6705e-07
-5.27452e-05
2.31503e-06
-6.32306e-05
6.60714e-06
1.31241e-05
-7.56761e-05
-1.25451e-06
5.61155e-06
-3.2079e-06
5.64462e-06
-6.25026e-06
5.91683e-06
-1.05036e-05
5.71104e-06
-1.59509e-05
5.48301e-06
-2.24346e-05
5.48725e-06
-2.98332e-05
6.22753e-06
-3.8159e-05
8.1588e-06
-4.75337e-05
1.16897e-05
-5.82072e-05
1.72807e-05
2.55356e-05
-7.06187e-05
-1.19342e-06
6.80497e-06
-3.04754e-06
7.49874e-06
-5.48196e-06
8.35126e-06
-8.85077e-06
9.07984e-06
-1.33049e-05
9.9371e-06
-1.89198e-05
1.11022e-05
-2.56544e-05
1.2962e-05
-3.34794e-05
1.59839e-05
-4.24663e-05
2.06766e-05
-5.27888e-05
2.76032e-05
3.75429e-05
-6.47962e-05
-1.07403e-06
7.879e-06
-2.65624e-06
9.08095e-06
-4.80167e-06
1.04967e-05
-7.686e-06
1.19642e-05
-1.14691e-05
1.37202e-05
-1.63027e-05
1.59358e-05
-2.2262e-05
1.89214e-05
-2.93872e-05
2.3109e-05
-3.77482e-05
2.90376e-05
-4.74609e-05
3.73159e-05
4.87476e-05
-5.86656e-05
-1.02788e-06
8.90687e-06
-2.48163e-06
1.05347e-05
-4.38376e-06
1.23988e-05
-6.89864e-06
1.4479e-05
-1.01811e-05
1.70027e-05
-1.438e-05
2.01347e-05
-1.962e-05
2.41614e-05
-2.59993e-05
2.94884e-05
-3.3622e-05
3.66603e-05
-4.26086e-05
4.63025e-05
5.93429e-05
-5.32039e-05
-9.602e-07
9.86707e-06
-2.2977e-06
1.18722e-05
-4.01499e-06
1.41161e-05
-6.24801e-06
1.67121e-05
-9.13084e-06
1.98855e-05
-1.28121e-05
2.38159e-05
-1.74306e-05
2.87799e-05
-2.31165e-05
3.51743e-05
-2.99896e-05
4.35334e-05
-3.82402e-05
5.45531e-05
6.9194e-05
-4.80914e-05
-7.90932e-07
1.0658e-05
-1.95962e-06
1.30409e-05
-3.48193e-06
1.56384e-05
-5.464e-06
1.86941e-05
-8.01567e-06
2.24372e-05
-1.12697e-05
2.70699e-05
-1.53677e-05
3.28779e-05
-2.04448e-05
4.02515e-05
-2.66593e-05
4.97479e-05
-3.41803e-05
6.20741e-05
7.81868e-05
-4.3173e-05
-6.43388e-07
1.13014e-05
-1.65239e-06
1.40499e-05
-2.98187e-06
1.69679e-05
-4.71999e-06
2.04322e-05
-6.96653e-06
2.46837e-05
-9.83819e-06
2.99416e-05
-1.34619e-05
3.65016e-05
-1.79793e-05
4.47689e-05
-2.35456e-05
5.53142e-05
-3.0348e-05
6.88765e-05
8.63588e-05
-3.85199e-05
-6.13738e-07
1.19151e-05
-1.52129e-06
1.49575e-05
-2.68737e-06
1.8134e-05
-4.20139e-06
2.19463e-05
-6.14911e-06
2.66315e-05
-8.64253e-06
3.2435e-05
-1.18021e-05
3.96612e-05
-1.57592e-05
4.8726e-05
-2.06705e-05
6.02254e-05
-2.67073e-05
7.49133e-05
9.37209e-05
-3.40695e-05
-5.27855e-07
1.2443e-05
-1.2972e-06
1.57268e-05
-2.28997e-06
1.91267e-05
-3.57651e-06
2.32328e-05
-5.23723e-06
2.82922e-05
-7.36877e-06
3.45665e-05
-1.00859e-05
4.23783e-05
-1.35166e-05
5.21567e-05
-1.77826e-05
6.44914e-05
-2.30643e-05
8.01949e-05
0.000100257
-2.95999e-05
-3.15775e-07
1.27588e-05
-8.78795e-07
1.62898e-05
-1.65661e-06
1.99046e-05
-2.69696e-06
2.42732e-05
-4.06466e-06
2.96599e-05
-5.83876e-06
3.63406e-05
-8.11185e-06
4.46514e-05
-1.09996e-05
5.50445e-05
-1.46222e-05
6.81139e-05
-1.91154e-05
8.46882e-05
0.000105818
-2.46766e-05
-2.46639e-07
1.30054e-05
-6.55243e-07
1.66984e-05
-1.21988e-06
2.04692e-05
-1.99883e-06
2.50521e-05
-3.03398e-06
3.0695e-05
-4.39746e-06
3.77041e-05
-6.17764e-06
4.64316e-05
-8.45558e-06
5.73225e-05
-1.13312e-05
7.09895e-05
-1.49549e-05
8.83119e-05
0.000110306
-1.94428e-05
-1.22964e-07
1.31284e-05
-3.44395e-07
1.69199e-05
-6.74525e-07
2.07993e-05
-1.14812e-06
2.55257e-05
-1.81914e-06
3.1366e-05
-2.73858e-06
3.86236e-05
-3.968e-06
4.7661e-05
-5.57644e-06
5.89309e-05
-7.64003e-06
7.30531e-05
-1.02058e-05
9.08776e-05
0.00011351
-1.34103e-05
1.07017e-07
1.30213e-05
1.74662e-07
1.68522e-05
1.50726e-07
2.08233e-05
2.15849e-08
2.56548e-05
-2.31353e-07
3.1619e-05
-6.55792e-07
3.9048e-05
-1.28086e-06
4.8286e-05
-2.13633e-06
5.97864e-05
-3.24119e-06
7.41579e-05
-4.64209e-06
9.22785e-05
0.000115275
-6.40703e-06
2.91786e-07
1.27296e-05
6.31932e-07
1.65121e-05
9.41959e-07
2.05132e-05
1.218e-06
2.53788e-05
1.44725e-06
3.13897e-05
1.61287e-06
3.88824e-05
1.71988e-06
4.8179e-05
1.7789e-06
5.97274e-05
1.80706e-06
7.41298e-05
1.80051e-06
9.22851e-05
0.000115293
1.78273e-06
5.08093e-07
1.22215e-05
1.17505e-06
1.58451e-05
1.87126e-06
1.9817e-05
2.60649e-06
2.46436e-05
3.39115e-06
3.06051e-05
4.24901e-06
3.80245e-05
5.22881e-06
4.71992e-05
6.3953e-06
5.85609e-05
7.82541e-06
7.26996e-05
9.59443e-06
9.05161e-05
0.000113191
1.16961e-05
7.71515e-07
1.145e-05
1.81827e-06
1.47984e-05
2.94898e-06
1.86863e-05
4.20996e-06
2.33826e-05
5.64031e-06
2.91747e-05
7.31931e-06
3.63455e-05
9.35414e-06
4.51644e-05
1.18807e-05
5.60343e-05
1.50194e-05
6.95609e-05
1.89137e-05
8.66218e-05
0.000108392
2.37132e-05
1.06501e-06
1.03849e-05
2.50347e-06
1.33599e-05
4.10999e-06
1.70798e-05
5.95749e-06
2.15351e-05
8.13742e-06
2.69948e-05
1.08019e-05
3.36811e-05
1.41315e-05
4.18348e-05
1.83025e-05
5.18633e-05
2.34954e-05
6.4368e-05
2.99291e-05
8.01881e-05
0.000100434
3.78869e-05
1.23286e-06
9.15209e-06
3.05851e-06
1.15342e-05
5.15696e-06
1.49813e-05
7.6396e-06
1.90524e-05
1.06948e-05
2.39396e-05
1.45521e-05
2.98238e-05
1.94268e-05
3.696e-05
2.55231e-05
4.5767e-05
3.3086e-05
5.68051e-05
4.24221e-05
7.08519e-05
8.89822e-05
5.3874e-05
1.26536e-06
7.88673e-06
3.52399e-06
9.27561e-06
5.89803e-06
1.26073e-05
9.0322e-06
1.59183e-05
1.31017e-05
1.98701e-05
1.83288e-05
2.45967e-05
2.49107e-05
3.03781e-05
3.30955e-05
3.75822e-05
4.31909e-05
4.67098e-05
5.56346e-05
5.84082e-05
7.36208e-05
7.0996e-05
-2.49205e-06
1.03788e-05
-1.85177e-07
6.96874e-06
3.71125e-06
8.71088e-06
8.4576e-06
1.11719e-05
1.42433e-05
1.40844e-05
2.12914e-05
1.75486e-05
2.97845e-05
2.1885e-05
4.0071e-05
2.72957e-05
5.26465e-05
3.41344e-05
6.8111e-05
4.29436e-05
5.45361e-05
8.71958e-05
4.27293e-06
1.72914e-05
5.92621e-06
1.71793e-05
2.97225e-06
2.30399e-05
-2.93552e-06
2.77746e-05
-1.03233e-05
3.07667e-05
-1.83445e-05
3.30924e-05
-2.65866e-05
3.50823e-05
-3.54694e-05
3.75509e-05
-4.524e-05
4.01625e-05
-5.61464e-05
4.27355e-05
4.50347e-05
-6.8468e-05
8.1871e-06
9.10425e-06
1.19026e-05
1.34638e-05
1.28715e-05
2.2071e-05
1.1154e-05
2.9492e-05
6.18938e-06
3.57313e-05
-1.48498e-06
4.07667e-05
-1.06401e-05
4.42375e-05
-2.05759e-05
4.74867e-05
-3.15583e-05
5.11449e-05
-4.37585e-05
5.49357e-05
5.87513e-05
-5.74751e-05
5.03123e-06
4.07303e-06
8.39088e-06
1.01041e-05
1.13994e-05
1.90625e-05
1.25659e-05
2.83255e-05
1.08104e-05
3.74868e-05
5.9337e-06
4.56434e-05
-1.57001e-06
5.17412e-05
-1.05355e-05
5.64522e-05
-2.06855e-05
6.12949e-05
-3.21926e-05
6.64427e-05
7.1785e-05
-4.52262e-05
4.39545e-06
-3.22418e-07
7.14766e-06
7.35194e-06
9.95445e-06
1.62557e-05
1.18156e-05
2.64644e-05
1.18109e-05
3.74915e-05
9.31958e-06
4.81348e-05
4.17833e-06
5.68824e-05
-2.99185e-06
6.36223e-05
-1.1502e-05
6.98051e-05
-2.13072e-05
7.62479e-05
8.29807e-05
-3.25029e-05
3.2274e-06
-3.54982e-06
6.38565e-06
4.19369e-06
9.27133e-06
1.337e-05
1.13408e-05
2.43949e-05
1.2125e-05
3.67073e-05
1.11142e-05
4.91456e-05
7.91922e-06
6.00774e-05
2.70682e-06
6.88347e-05
-3.96914e-06
7.64811e-05
-1.18533e-05
8.41321e-05
9.20384e-05
-2.09111e-05
1.66955e-06
-5.21937e-06
4.86175e-06
1.00149e-06
8.17963e-06
1.00521e-05
1.08006e-05
2.1774e-05
1.23163e-05
3.51915e-05
1.23672e-05
4.90947e-05
1.06219e-05
6.18227e-05
7.10997e-06
7.23466e-05
2.18546e-06
8.14056e-05
-3.80338e-06
9.01209e-05
9.89925e-05
-1.07574e-05
8.19567e-07
-6.03894e-06
3.50818e-06
-1.68712e-06
6.91445e-06
6.64585e-06
9.98052e-06
1.87079e-05
1.21608e-05
3.30113e-05
1.31146e-05
4.81409e-05
1.25644e-05
6.2373e-05
1.04845e-05
7.44265e-05
7.1592e-06
8.47308e-05
2.84654e-06
9.44336e-05
0.000103924
-2.08518e-06
6.1047e-07
-6.64941e-06
2.47755e-06
-3.5542e-06
5.63074e-06
3.49266e-06
8.88688e-06
1.54517e-05
1.15417e-05
3.03565e-05
1.32257e-05
4.64568e-05
1.36995e-05
6.18992e-05
1.29078e-05
7.52182e-05
1.10491e-05
8.65896e-05
8.33781e-06
9.71449e-05
0.000107462
4.79969e-06
5.73218e-07
-7.22262e-06
1.8501e-06
-4.83108e-06
4.52822e-06
8.14535e-07
7.77659e-06
1.22034e-05
1.07431e-05
2.739e-05
1.30044e-05
4.41955e-05
1.4343e-05
6.05605e-05
1.4692e-05
7.48692e-05
1.42063e-05
8.70753e-05
1.31441e-05
9.82071e-05
0.000108878
1.17288e-05
5.09025e-07
-7.73165e-06
1.5085e-06
-5.83055e-06
3.63567e-06
-1.31264e-06
6.70516e-06
9.13389e-06
9.85415e-06
2.42411e-05
1.25696e-05
4.148e-05
1.46506e-05
5.84796e-05
1.60197e-05
7.35e-05
1.67976e-05
8.62974e-05
1.71866e-05
9.78181e-05
0.000108693
1.73711e-05
3.98293e-07
-8.12994e-06
1.28719e-06
-6.71945e-06
2.92523e-06
-2.95067e-06
5.73736e-06
6.32176e-06
8.99127e-06
2.09871e-05
1.20883e-05
3.83829e-05
1.48104e-05
5.57575e-05
1.71016e-05
7.12088e-05
1.90438e-05
8.43552e-05
2.08508e-05
9.60111e-05
0.000106922
2.26219e-05
3.40926e-07
-8.47087e-06
1.04378e-06
-7.4223e-06
2.28105e-06
-4.18794e-06
4.72117e-06
3.88164e-06
7.92867e-06
1.77796e-05
1.12973e-05
3.50143e-05
1.46049e-05
5.24499e-05
1.77844e-05
6.80293e-05
2.08983e-05
8.12414e-05
2.41419e-05
9.27675e-05
0.000103303
2.77613e-05
2.11852e-07
-8.68272e-06
7.17066e-07
-7.92752e-06
1.70366e-06
-5.17453e-06
3.75551e-06
1.82978e-06
6.83345e-06
1.47017e-05
1.04021e-05
3.14456e-05
1.42284e-05
4.86236e-05
1.82614e-05
6.39962e-05
2.2521e-05
7.69818e-05
2.71531e-05
8.81354e-05
9.80521e-05
3.24037e-05
2.83834e-08
-8.7111e-06
3.38083e-07
-8.23722e-06
1.10682e-06
-5.94327e-06
2.8469e-06
8.9704e-08
5.76313e-06
1.17855e-05
9.45629e-06
2.77525e-05
1.37634e-05
4.43165e-05
1.86067e-05
5.91529e-05
2.401e-05
7.15785e-05
3.00777e-05
8.20677e-05
9.11372e-05
3.69926e-05
-1.19485e-07
-8.59162e-06
-6.52162e-08
-8.29148e-06
4.19522e-07
-6.42801e-06
1.83561e-06
-1.32639e-06
4.49465e-06
9.12644e-06
8.30094e-06
2.39462e-05
1.29847e-05
3.96327e-05
1.86437e-05
5.3494e-05
2.52409e-05
6.49813e-05
3.28294e-05
7.44791e-05
8.2462e-05
4.15047e-05
-2.70281e-07
-8.32134e-06
-4.83661e-07
-8.0781e-06
-3.56051e-07
-6.55562e-06
6.75847e-07
-2.35828e-06
3.07346e-06
6.72883e-06
6.82571e-06
2.01939e-05
1.19799e-05
3.44785e-05
1.8456e-05
4.70179e-05
2.62818e-05
5.71555e-05
3.54412e-05
6.53198e-05
7.15318e-05
4.63713e-05
-4.47281e-07
-7.87406e-06
-9.3287e-07
-7.59251e-06
-1.18555e-06
-6.30294e-06
-7.03985e-07
-2.83985e-06
1.4568e-06
4.56804e-06
5.1747e-06
1.6476e-05
1.06534e-05
2.89998e-05
1.79701e-05
3.97012e-05
2.70106e-05
4.8115e-05
3.76617e-05
5.46686e-05
5.91295e-05
5.0064e-05
-6.67303e-07
-7.20675e-06
-1.46134e-06
-6.79847e-06
-2.11094e-06
-5.65335e-06
-2.21618e-06
-2.73461e-06
-6.42486e-07
2.99435e-06
3.16726e-06
1.26663e-05
8.96313e-06
2.3204e-05
1.70403e-05
3.16241e-05
2.72708e-05
3.78844e-05
3.9419e-05
4.25205e-05
4.50308e-05
5.35177e-05
-9.52927e-07
-6.25383e-06
-2.13369e-06
-5.61771e-06
-3.26978e-06
-4.51726e-06
-3.93205e-06
-2.07234e-06
-3.14313e-06
2.20543e-06
5.35374e-07
8.9878e-06
6.70301e-06
1.70363e-05
1.54885e-05
2.28386e-05
2.67132e-05
2.66597e-05
4.00362e-05
2.91975e-05
2.98807e-05
5.51863e-05
-1.33929e-06
-4.91453e-06
-3.01732e-06
-3.93968e-06
-4.77757e-06
-2.757e-06
-6.10615e-06
-7.43761e-07
-5.9278e-06
2.02707e-06
-2.77246e-06
5.83246e-06
3.69817e-06
1.05657e-05
1.3002e-05
1.35347e-05
2.48467e-05
1.4815e-05
3.87797e-05
1.52645e-05
1.39137e-05
5.47468e-05
-1.93307e-06
-2.98146e-06
-4.4893e-06
-1.38346e-06
-7.12308e-06
-1.23222e-07
-9.00232e-06
1.13548e-06
-9.13139e-06
2.15614e-06
-6.58529e-06
3.28636e-06
-2.54673e-07
4.23508e-06
9.40075e-06
3.8793e-06
2.11727e-05
3.04301e-06
3.51105e-05
1.32666e-06
-2.70178e-06
5.1726e-05
-4.42112e-06
1.43965e-06
-6.87752e-06
1.07295e-06
-8.77652e-06
1.77578e-06
-9.13834e-06
1.4973e-06
-7.27396e-06
2.91767e-07
-2.09156e-06
-1.89604e-06
6.7538e-06
-4.61027e-06
1.78519e-05
-7.21879e-06
3.11633e-05
-1.02685e-05
4.72461e-05
-1.47561e-05
-2.12688e-05
6.58131e-05
-1.78042e-07
1.61769e-06
1.45583e-06
-5.60922e-07
5.22581e-06
-1.9942e-06
1.12101e-05
-4.48696e-06
1.88657e-05
-7.3639e-06
2.75101e-05
-1.05404e-05
3.70123e-05
-1.41125e-05
4.80485e-05
-1.8255e-05
6.12221e-05
-2.3442e-05
7.66558e-05
-3.01897e-05
-3.90664e-05
9.44534e-05
1.19965e-05
1.84043e-05
2.5121e-05
3.18059e-05
3.85264e-05
4.55346e-05
5.33071e-05
6.23478e-05
7.30401e-05
8.5794e-05
0.000101264
-5.74191e-06
1.95146e-05
-1.37727e-05
-1.09235e-05
1.78787e-05
-1.26971e-05
-1.83314e-05
2.11819e-05
-1.37741e-05
-2.58785e-05
2.27967e-05
-1.52495e-05
-3.35661e-05
2.50242e-05
-1.73367e-05
-4.15853e-05
2.81602e-05
-2.0141e-05
-5.0298e-05
3.24986e-05
-2.37859e-05
-6.01057e-05
3.82955e-05
-2.84878e-05
-7.14815e-05
4.59592e-05
-3.45833e-05
-8.4934e-05
5.6002e-05
-4.25495e-05
6.93029e-05
-5.29979e-05
-0.000101239
2.3554e-06
1.71592e-05
2.41657e-06
1.78175e-05
-1.54275e-06
2.51412e-05
-7.24153e-06
2.84955e-05
-1.45078e-05
3.22904e-05
-2.28029e-05
3.64554e-05
-3.21017e-05
4.17974e-05
-4.26619e-05
4.88557e-05
-5.48513e-05
5.81486e-05
-6.92838e-05
7.04345e-05
8.66561e-05
-8.66371e-05
2.36138e-06
1.47979e-05
2.71844e-06
1.74605e-05
1.62604e-06
2.62336e-05
-1.03948e-06
3.1161e-05
-5.94132e-06
3.71923e-05
-1.25066e-05
4.30207e-05
-2.05338e-05
4.98246e-05
-2.99811e-05
5.8303e-05
-4.10888e-05
6.92563e-05
-5.42598e-05
8.36055e-05
0.00010259
-7.01934e-05
1.71219e-06
1.30857e-05
1.63658e-06
1.75361e-05
1.5389e-06
2.63313e-05
3.50889e-07
3.2349e-05
-2.51683e-06
4.006e-05
-6.87632e-06
4.73802e-05
-1.28363e-05
5.57846e-05
-2.03088e-05
6.57755e-05
-2.9367e-05
7.83144e-05
-4.02509e-05
9.44894e-05
0.000115721
-5.33826e-05
1.36332e-06
1.17224e-05
1.27561e-06
1.76238e-05
1.40394e-06
2.6203e-05
7.155e-07
3.30375e-05
-8.70332e-07
4.16458e-05
-3.53277e-06
5.00426e-05
-7.5297e-06
5.97815e-05
-1.28868e-05
7.11326e-05
-1.9661e-05
8.50887e-05
-2.79621e-05
0.00010279
0.000125747
-3.79874e-05
1.28311e-06
1.04393e-05
1.56325e-06
1.73436e-05
1.96376e-06
2.58025e-05
1.58828e-06
3.3413e-05
7.28912e-07
4.25052e-05
-8.79112e-07
5.16506e-05
-3.41611e-06
6.23185e-05
-6.99093e-06
7.47075e-05
-1.17104e-05
8.98081e-05
-1.76284e-05
0.000108709
0.000132921
-2.48027e-05
1.27395e-06
9.16531e-06
1.91364e-06
1.67039e-05
2.60606e-06
2.51101e-05
2.60939e-06
3.34096e-05
2.28604e-06
4.28285e-05
1.39691e-06
5.25397e-05
-1.00948e-07
6.38163e-05
-2.30988e-06
7.69164e-05
-5.34123e-06
9.28395e-05
-9.2503e-06
0.000112618
0.000137783
-1.41125e-05
1.1372e-06
8.0281e-06
2.04663e-06
1.57945e-05
2.97013e-06
2.41866e-05
3.34599e-06
3.30338e-05
3.48859e-06
4.26859e-05
3.18808e-06
5.28403e-05
2.50634e-06
6.44981e-05
1.35916e-06
7.80636e-05
-2.9088e-07
9.44895e-05
-2.45522e-06
0.000114782
0.000140428
-5.09977e-06
1.08301e-06
6.94509e-06
2.21714e-06
1.46604e-05
3.34828e-06
2.30554e-05
4.08311e-06
3.22989e-05
4.61814e-06
4.21509e-05
4.81979e-06
5.26386e-05
4.7896e-06
6.45283e-05
4.48843e-06
7.83647e-05
3.93521e-06
9.50427e-05
3.14125e-06
0.000115576
0.000141379
2.1899e-06
1.20233e-06
5.74276e-06
2.59252e-06
1.32702e-05
3.98372e-06
2.16642e-05
5.09053e-06
3.11921e-05
6.00051e-06
4.12409e-05
6.62838e-06
5.20107e-05
7.11579e-06
6.40409e-05
7.47022e-06
7.80103e-05
7.75041e-06
9.47625e-05
8.0073e-06
0.000115319
0.000141106
8.28067e-06
1.23353e-06
4.50923e-06
2.79409e-06
1.17096e-05
4.42821e-06
2.00301e-05
5.90596e-06
2.97144e-05
7.18664e-06
3.99602e-05
8.24855e-06
5.09488e-05
9.21038e-06
6.3079e-05
1.01497e-05
7.7071e-05
1.11523e-05
9.37599e-05
1.23297e-05
0.000114142
0.000139557
1.38788e-05
1.10311e-06
3.40612e-06
2.68528e-06
1.01275e-05
4.47788e-06
1.82375e-05
6.25055e-06
2.79417e-05
7.90472e-06
3.83061e-05
9.41098e-06
4.94426e-05
1.0873e-05
6.1617e-05
1.2402e-05
7.5542e-05
1.41175e-05
9.20444e-05
1.61432e-05
0.000112116
0.000137065
1.86349e-05
1.00847e-06
2.39765e-06
2.58108e-06
8.55487e-06
4.50657e-06
1.6312e-05
6.56805e-06
2.58802e-05
8.59317e-06
3.62809e-05
1.055e-05
4.74858e-05
1.25154e-05
5.96516e-05
1.46122e-05
7.34452e-05
1.69908e-05
8.96658e-05
1.98092e-05
0.000109298
0.000133663
2.32105e-05
9.61491e-07
1.43616e-06
2.52018e-06
6.99618e-06
4.58523e-06
1.4247e-05
6.93416e-06
2.35313e-05
9.35354e-06
3.38616e-05
1.17792e-05
4.50601e-05
1.4262e-05
5.71688e-05
1.6932e-05
7.07751e-05
1.99581e-05
8.66398e-05
2.35291e-05
0.000105726
0.000129275
2.79177e-05
7.87498e-07
6.48662e-07
2.19784e-06
5.58584e-06
4.28662e-06
1.21582e-05
6.84506e-06
2.09729e-05
9.63406e-06
3.10726e-05
1.25618e-05
4.21323e-05
1.56414e-05
5.40893e-05
1.89881e-05
6.74284e-05
2.27794e-05
8.28485e-05
2.72122e-05
0.000101294
0.000124003
3.24837e-05
5.96613e-07
5.2049e-08
1.84511e-06
4.33735e-06
3.91844e-06
1.00848e-05
6.65681e-06
1.82345e-05
9.8082e-06
2.79212e-05
1.3258e-05
3.86826e-05
1.6985e-05
5.03623e-05
2.1086e-05
6.33274e-05
2.57327e-05
7.82018e-05
3.11267e-05
9.58996e-05
0.000117597
3.7533e-05
4.74185e-07
-4.22136e-07
1.5599e-06
3.25163e-06
3.58429e-06
8.06047e-06
6.46885e-06
1.53499e-05
9.97973e-06
2.44103e-05
1.39685e-05
3.46938e-05
1.83994e-05
4.59314e-05
2.33459e-05
5.83809e-05
2.89509e-05
7.25968e-05
3.54066e-05
8.94439e-05
0.000110028
4.29761e-05
2.98687e-07
-7.20823e-07
1.21123e-06
2.33908e-06
3.09506e-06
6.17664e-06
6.02355e-06
1.24215e-05
9.8217e-06
2.06121e-05
1.43497e-05
3.01658e-05
1.95564e-05
4.07247e-05
2.54871e-05
5.24502e-05
3.22503e-05
6.58336e-05
4.00235e-05
8.16707e-05
0.000101043
4.90087e-05
1.74095e-07
-8.94919e-07
9.14999e-07
1.59818e-06
2.58323e-06
4.50841e-06
5.42201e-06
9.58267e-06
9.4073e-06
1.66269e-05
1.44482e-05
2.5125e-05
2.0491e-05
3.46819e-05
2.75413e-05
4.53998e-05
3.56509e-05
5.7724e-05
4.49689e-05
7.23527e-05
9.02246e-05
5.57868e-05
7.34326e-08
-9.68351e-07
6.42694e-07
1.02892e-06
2.02148e-06
3.12962e-06
4.61756e-06
6.98659e-06
8.64979e-06
1.25946e-05
1.41506e-05
1.96241e-05
2.10519e-05
2.77806e-05
2.93037e-05
3.7148e-05
3.88925e-05
4.81352e-05
4.9978e-05
6.12672e-05
7.73437e-05
6.28589e-05
2.15092e-09
-9.70502e-07
2.93452e-07
7.37614e-07
1.27239e-06
2.15068e-06
3.47189e-06
4.78709e-06
7.40278e-06
8.66374e-06
1.32405e-05
1.37864e-05
2.09072e-05
2.01138e-05
3.02825e-05
2.77727e-05
4.13716e-05
3.70461e-05
5.4279e-05
4.83598e-05
6.22312e-05
6.93915e-05
-5.51394e-07
-4.19109e-07
-6.1771e-07
8.0393e-07
-1.26056e-08
1.54558e-06
1.89301e-06
2.88147e-06
5.67419e-06
4.88256e-06
1.16063e-05
7.85435e-06
1.96659e-05
1.20543e-05
2.97596e-05
1.76789e-05
4.19753e-05
2.48304e-05
5.65504e-05
3.37848e-05
4.45612e-05
7.42205e-05
-8.04708e-07
3.85599e-07
-9.2918e-07
9.28403e-07
-2.51019e-07
8.67415e-07
1.55735e-06
1.0731e-06
4.85315e-06
1.58676e-06
1.00119e-05
2.69561e-06
1.73092e-05
4.75691e-06
2.69115e-05
8.07668e-06
3.9114e-05
1.26279e-05
5.41331e-05
1.87656e-05
2.69098e-05
7.17845e-05
1.45911e-06
-1.07351e-06
3.58762e-06
-1.2001e-06
5.67445e-06
-1.21942e-06
7.79455e-06
-1.047e-06
1.01716e-05
-7.90251e-07
1.32896e-05
-4.22392e-07
1.79251e-05
1.21427e-07
2.49935e-05
1.00822e-06
3.50158e-05
2.6056e-06
4.84548e-05
5.32661e-06
9.85189e-06
6.55127e-05
-1.45736e-05
8.00826e-07
-2.52905e-05
-1.98015e-06
-3.39229e-05
-5.14174e-06
-4.13119e-05
-7.86052e-06
-4.83744e-05
-1.02742e-05
-5.57215e-05
-1.27938e-05
-6.38197e-05
-1.56878e-05
-7.30839e-05
-1.92235e-05
-8.39174e-05
-2.37499e-05
-9.67568e-05
-2.97101e-05
-3.77223e-05
-0.000112032
-7.27086e-06
8.07169e-06
-1.41356e-05
4.8846e-06
-2.2629e-05
3.35164e-06
-3.1268e-05
7.78508e-07
-3.9715e-05
-1.8272e-06
-4.83581e-05
-4.1507e-06
-5.7737e-05
-6.30895e-06
-6.83747e-05
-8.58587e-06
-8.07424e-05
-1.13821e-05
-9.53176e-05
-1.51349e-05
-2.03032e-05
-0.000112737
-2.68631e-06
1.0758e-05
-6.71643e-06
8.91472e-06
-1.31328e-05
9.76797e-06
-2.09453e-05
8.59107e-06
-2.97899e-05
7.01735e-06
-3.95304e-05
5.58988e-06
-5.00217e-05
4.18229e-06
-6.1589e-05
2.98142e-06
-7.47109e-05
1.73982e-06
-8.99232e-05
7.73741e-08
-2.47571e-06
-0.000107751
-1.68889e-06
1.24469e-05
-4.72529e-06
1.19511e-05
-9.25012e-06
1.42928e-05
-1.51294e-05
1.44703e-05
-2.27583e-05
1.46463e-05
-3.15845e-05
1.4416e-05
-4.17364e-05
1.43342e-05
-5.3241e-05
1.44861e-05
-6.63635e-05
1.48623e-05
-8.15121e-05
1.5226e-05
1.52091e-05
-9.91969e-05
-1.46952e-06
1.39164e-05
-4.14914e-06
1.46307e-05
-7.64246e-06
1.77861e-05
-1.22848e-05
1.91126e-05
-1.84608e-05
2.08223e-05
-2.61209e-05
2.20762e-05
-3.52438e-05
2.34571e-05
-4.58518e-05
2.50941e-05
-5.80966e-05
2.7107e-05
-7.22539e-05
2.93834e-05
3.16872e-05
-8.8732e-05
-1.28934e-06
1.52057e-05
-3.69981e-06
1.70412e-05
-6.58169e-06
2.0668e-05
-1.03486e-05
2.28795e-05
-1.53906e-05
2.58642e-05
-2.17535e-05
2.84391e-05
-2.95864e-05
3.129e-05
-3.89132e-05
3.44209e-05
-4.98269e-05
3.80208e-05
-6.25423e-05
4.20988e-05
4.64724e-05
-7.73275e-05
-1.08377e-06
1.62895e-05
-3.19975e-06
1.91572e-05
-5.64201e-06
2.31103e-05
-8.75362e-06
2.59912e-05
-1.29014e-05
3.0012e-05
-1.81456e-05
3.36833e-05
-2.46893e-05
3.78337e-05
-3.26165e-05
4.2348e-05
-4.20187e-05
4.7423e-05
-5.30452e-05
5.31253e-05
5.93814e-05
-6.59542e-05
-1.00897e-06
1.72985e-05
-2.83065e-06
2.09789e-05
-4.88344e-06
2.51631e-05
-7.60921e-06
2.87169e-05
-1.09194e-05
3.33222e-05
-1.51766e-05
3.79404e-05
-2.05165e-05
4.31737e-05
-2.70505e-05
4.8882e-05
-3.4892e-05
5.52644e-05
-4.41351e-05
6.23685e-05
7.01686e-05
-5.49223e-05
-8.59771e-07
1.81583e-05
-2.46958e-06
2.25887e-05
-3.99738e-06
2.66909e-05
-6.27269e-06
3.09922e-05
-8.98571e-06
3.60353e-05
-1.24356e-05
4.13904e-05
-1.67133e-05
4.74513e-05
-2.19662e-05
5.41349e-05
-2.83041e-05
6.16024e-05
-3.58439e-05
6.99083e-05
7.90426e-05
-4.4718e-05
-6.6957e-07
1.88278e-05
-1.92713e-06
2.38462e-05
-3.25803e-06
2.80218e-05
-5.00635e-06
3.27406e-05
-7.09597e-06
3.81249e-05
-9.77351e-06
4.40679e-05
-1.30895e-05
5.07673e-05
-1.71629e-05
5.82083e-05
-2.21023e-05
6.65418e-05
-2.80103e-05
7.58163e-05
8.5999e-05
-3.49668e-05
-4.31429e-07
1.92593e-05
-1.26519e-06
2.468e-05
-2.19309e-06
2.89497e-05
-3.50059e-06
3.40481e-05
-5.02972e-06
3.9654e-05
-6.99952e-06
4.60377e-05
-9.42444e-06
5.31922e-05
-1.24203e-05
6.12041e-05
-1.60546e-05
7.01761e-05
-2.04124e-05
8.01742e-05
9.1193e-05
-2.56063e-05
-2.2417e-07
1.94834e-05
-7.80344e-07
2.52362e-05
-1.34044e-06
2.95097e-05
-2.16783e-06
3.48754e-05
-3.12327e-06
4.06095e-05
-4.37826e-06
4.72927e-05
-5.9242e-06
5.47381e-05
-7.84094e-06
6.31209e-05
-1.01787e-05
7.25138e-05
-1.29925e-05
8.29879e-05
9.45049e-05
-1.63044e-05
1.82213e-08
1.94652e-05
-2.08121e-07
2.54625e-05
-4.05037e-07
2.97067e-05
-7.52664e-07
3.52231e-05
-1.13764e-06
4.09944e-05
-1.68444e-06
4.78395e-05
-2.35829e-06
5.5412e-05
-3.22257e-06
6.39852e-05
-4.27526e-06
7.35665e-05
-5.56046e-06
8.42731e-05
9.60311e-05
-7.08672e-06
3.58024e-07
1.91072e-05
5.35447e-07
2.52851e-05
7.33936e-07
2.95082e-05
8.72208e-07
3.50848e-05
1.06188e-06
4.08048e-05
1.21656e-06
4.76848e-05
1.39697e-06
5.52316e-05
1.57843e-06
6.38037e-05
1.78966e-06
7.33553e-05
2.05453e-06
8.40083e-05
9.57026e-05
2.38305e-06
5.7291e-07
1.85343e-05
1.09971e-06
2.47583e-05
1.7132e-06
2.88947e-05
2.37664e-06
3.44214e-05
3.16493e-06
4.00165e-05
4.07511e-06
4.67746e-05
5.15342e-06
5.41533e-05
6.43376e-06
6.25234e-05
7.97234e-06
7.18167e-05
9.84225e-06
8.21383e-05
9.33992e-05
1.21457e-05
8.21098e-07
1.77132e-05
1.73984e-06
2.38396e-05
2.77872e-06
2.78558e-05
3.98497e-06
3.32151e-05
5.4022e-06
3.85993e-05
7.09538e-06
4.50814e-05
9.11009e-06
5.21386e-05
1.15206e-05
6.01129e-05
1.44211e-05
6.89162e-05
1.79327e-05
7.86267e-05
8.9122e-05
2.22099e-05
1.12544e-06
1.65877e-05
2.4649e-06
2.25001e-05
3.97081e-06
2.63499e-05
5.75823e-06
3.14277e-05
7.83995e-06
3.65175e-05
1.0347e-05
4.25744e-05
1.33366e-05
4.9149e-05
1.69247e-05
5.65247e-05
2.1226e-05
6.46149e-05
2.64055e-05
7.34472e-05
8.28515e-05
3.2676e-05
1.41733e-06
1.51704e-05
3.19606e-06
2.07214e-05
5.20408e-06
2.43419e-05
7.61081e-06
2.9021e-05
1.04076e-05
3.37208e-05
1.37916e-05
3.91904e-05
1.78151e-05
4.51255e-05
2.26361e-05
5.17037e-05
2.84006e-05
5.88504e-05
3.53071e-05
6.65408e-05
7.45351e-05
4.36235e-05
1.71459e-06
1.34558e-05
3.9366e-06
1.84993e-05
6.48773e-06
2.17907e-05
9.55104e-06
2.59576e-05
1.31349e-05
3.01369e-05
1.74441e-05
3.48812e-05
2.25696e-05
3.99999e-05
2.86871e-05
4.55863e-05
3.59599e-05
5.15776e-05
4.46262e-05
5.78745e-05
6.42143e-05
5.4947e-05
2.03307e-06
1.14228e-05
4.71837e-06
1.5814e-05
7.8331e-06
1.8676e-05
1.16001e-05
2.21906e-05
1.60207e-05
2.57163e-05
2.13078e-05
2.95941e-05
2.7581e-05
3.37267e-05
3.50161e-05
3.81513e-05
4.38239e-05
4.27697e-05
5.42628e-05
4.74356e-05
5.18041e-05
6.6673e-05
2.36029e-06
9.06246e-06
5.48027e-06
1.26941e-05
9.18063e-06
1.49757e-05
1.36728e-05
1.76985e-05
1.89624e-05
2.04267e-05
2.52489e-05
2.33076e-05
3.26616e-05
2.63141e-05
4.1399e-05
2.94138e-05
5.16986e-05
3.24701e-05
6.38485e-05
3.52857e-05
3.74868e-05
7.81658e-05
2.60674e-06
6.45572e-06
6.14417e-06
9.15663e-06
1.04074e-05
1.07124e-05
1.55895e-05
1.25163e-05
2.17105e-05
1.43057e-05
2.89233e-05
1.60947e-05
3.73763e-05
1.78612e-05
4.72903e-05
1.94997e-05
5.89179e-05
2.08425e-05
7.25699e-05
2.16337e-05
2.14656e-05
8.85912e-05
3.12317e-06
3.33255e-06
7.00217e-06
5.27764e-06
1.1661e-05
6.05362e-06
1.73075e-05
6.86978e-06
2.39938e-05
7.61942e-06
3.1835e-05
8.25353e-06
4.10151e-05
8.68109e-06
5.17593e-05
8.75555e-06
6.43549e-05
8.24692e-06
7.90574e-05
6.93116e-06
4.59542e-06
9.59276e-05
2.25904e-06
6.33657e-06
1.11708e-05
1.69936e-05
2.38227e-05
3.16539e-05
4.04564e-05
5.02202e-05
6.10727e-05
7.33304e-05
8.77778e-05
1.60989e-06
9.51821e-06
-1.11281e-05
2.24762e-06
9.93551e-06
-1.05732e-05
1.1741e-06
1.29621e-05
-1.18885e-05
-1.03879e-06
1.59832e-05
-1.37703e-05
-4.03732e-06
1.89749e-05
-1.59764e-05
-7.65794e-06
2.22076e-05
-1.8587e-05
-1.17776e-05
2.59341e-05
-2.18145e-05
-1.63623e-05
3.05995e-05
-2.60147e-05
-2.16551e-05
3.69083e-05
-3.16156e-05
-2.7934e-05
4.53669e-05
-3.9088e-05
5.67092e-05
-4.89872e-05
-3.56559e-05
3.67747e-06
5.84075e-06
5.84351e-06
7.76947e-06
6.87767e-06
1.19279e-05
6.85895e-06
1.60019e-05
5.59023e-06
2.02436e-05
3.05854e-06
2.47393e-05
-5.45892e-07
2.95385e-05
-4.93801e-06
3.49916e-05
-1.00266e-05
4.1997e-05
-1.6042e-05
5.13823e-05
6.40765e-05
-2.34093e-05
2.94655e-06
2.8942e-06
4.78847e-06
5.92755e-06
6.5037e-06
1.02127e-05
7.78278e-06
1.47229e-05
8.11409e-06
1.99123e-05
7.28838e-06
2.5565e-05
5.27392e-06
3.1553e-05
2.23898e-06
3.80265e-05
-1.52809e-06
4.5764e-05
-5.98436e-06
5.58385e-05
6.94776e-05
-1.13855e-05
1.88455e-06
1.00965e-06
3.65956e-06
4.15254e-06
5.62046e-06
8.25177e-06
7.27375e-06
1.30696e-05
8.41279e-06
1.87733e-05
8.87108e-06
2.51068e-05
8.38063e-06
3.20434e-05
6.93789e-06
3.94693e-05
4.78775e-06
4.79142e-05
2.1789e-06
5.84474e-05
7.24754e-05
-8.18826e-07
1.19682e-06
-1.87169e-07
2.81578e-06
2.53357e-06
4.63938e-06
6.42817e-06
6.42792e-06
1.1281e-05
8.06858e-06
1.71326e-05
9.27364e-06
2.39017e-05
9.8907e-06
3.14263e-05
9.81088e-06
3.95491e-05
9.16578e-06
4.85593e-05
8.23644e-06
5.93767e-05
7.34226e-05
7.28917e-06
5.80854e-07
-7.68023e-07
1.93225e-06
1.18218e-06
3.63804e-06
4.72237e-06
5.48463e-06
9.43445e-06
7.3297e-06
1.52876e-05
9.01893e-06
2.22125e-05
1.03991e-05
3.00462e-05
1.13397e-05
3.86085e-05
1.19006e-05
4.79983e-05
1.23304e-05
5.8947e-05
7.27929e-05
1.29601e-05
1.41989e-07
-9.10011e-07
1.03731e-06
2.86859e-07
2.49853e-06
3.26116e-06
4.27823e-06
7.65474e-06
6.20238e-06
1.33634e-05
8.16278e-06
2.02521e-05
1.00367e-05
2.81723e-05
1.17226e-05
3.69227e-05
1.32263e-05
4.64946e-05
1.47305e-05
5.74428e-05
7.10081e-05
1.65153e-05
-8.54183e-08
-8.24593e-07
2.79971e-07
-7.85299e-08
1.3672e-06
2.17393e-06
2.90807e-06
6.11388e-06
4.74616e-06
1.15253e-05
6.79444e-06
1.82038e-05
8.96748e-06
2.59992e-05
1.1182e-05
3.47081e-05
1.34233e-05
4.42533e-05
1.58176e-05
5.50485e-05
6.81771e-05
1.86486e-05
-1.82042e-07
-6.4255e-07
-1.76708e-07
-8.38641e-08
4.22768e-07
1.57445e-06
1.63854e-06
4.8981e-06
3.26088e-06
9.90299e-06
5.2551e-06
1.62096e-05
7.55928e-06
2.3695e-05
1.01155e-05
3.21519e-05
1.28978e-05
4.1471e-05
1.59618e-05
5.19845e-05
6.46627e-05
1.94761e-05
-2.34718e-07
-4.07832e-07
-3.92234e-07
7.36524e-08
-2.2186e-07
1.40408e-06
6.19242e-07
4.057e-06
2.00691e-06
8.51533e-06
3.85976e-06
1.43567e-05
6.17582e-06
2.1379e-05
8.9237e-06
2.9404e-05
1.20674e-05
3.83273e-05
1.56174e-05
4.84346e-05
6.06235e-05
1.96566e-05
-2.54926e-07
-1.52906e-07
-4.89561e-07
3.08287e-07
-5.51885e-07
1.4664e-06
-9.39689e-08
3.59908e-06
1.01571e-06
7.40565e-06
2.66892e-06
1.27035e-05
4.92655e-06
1.91213e-05
7.77126e-06
2.65593e-05
1.11673e-05
3.49312e-05
1.50786e-05
4.45234e-05
5.61426e-05
1.95595e-05
-2.49819e-07
9.6913e-08
-5.27519e-07
5.85987e-07
-6.91516e-07
1.6304e-06
-5.21978e-07
3.42954e-06
3.03183e-07
6.58049e-06
1.76561e-06
1.12411e-05
3.92605e-06
1.69609e-05
6.81314e-06
2.36722e-05
1.03828e-05
3.13616e-05
1.45645e-05
4.03416e-05
5.14121e-05
1.9295e-05
-2.1839e-07
3.15303e-07
-4.85455e-07
8.53052e-07
-6.61511e-07
1.80645e-06
-5.99998e-07
3.36803e-06
-8.6763e-09
5.98917e-06