/*--------------------------------*- C++ -*----------------------------------*\
| =========                 |                                                 |
| \\      /  F ield         | OpenFOAM: The Open Source CFD Toolbox           |
|  \\    /   O peration     | Version:  3.0.1                                 |
|   \\  /    A nd           | Web:      www.OpenFOAM.org                      |
|    \\/     M anipulation  |                                                 |
\*---------------------------------------------------------------------------*/
FoamFile
{
    version     2.0;
    format      ascii;
    class       volScalarField;
    location    "0";
    object      yPlus;
}
// * * * * * * * * * * * * * * * * * * * * * * * * * * * * * * * * * * * * * //

dimensions      [0 0 0 0 0 0 0];

internalField   uniform 0;

boundaryField
{
    FrontAndBack
    {
        type            empty;
    }
    patch1
    {
        type            calculated;
        value           nonuniform List<scalar> 
98
(
0.979967
0.973555
0.973736
0.98146
0.996639
1.01745
1.0346
1.04487
1.05105
1.05812
1.06682
1.07582
1.08498
1.09633
1.1102
1.12188
1.13064
1.14154
1.15521
1.17102
1.1821
1.18828
1.19942
1.20864
1.21253
1.22108
1.22746
1.22837
1.2304
1.23017
1.22779
1.22305
1.21612
1.20701
1.19245
1.17883
1.16285
1.1417
1.11801
1.0841
1.04463
1.00267
0.954042
0.898458
0.838833
0.770619
0.689992
0.875245
1.03516
0.983184
0.983682
0.976006
0.9624
0.946323
0.924175
0.904603
0.888727
0.877907
0.87904
0.888489
0.905256
0.931328
0.957454
0.978943
1.00845
1.04136
1.07067
1.09554
1.11903
1.14398
1.16339
1.18366
1.2011
1.2122
1.22006
1.2245
1.22537
1.21919
1.20919
1.19529
1.17418
1.14914
1.12018
1.08728
1.04735
0.996855
0.942583
0.884802
0.820287
0.748773
0.670459
0.588918
0.500905
0.406353
0.3091
0.247088
0.769253
0.982223
)
;
    }
    patch2
    {
        type            calculated;
        value           nonuniform List<scalar> 
98
(
0.98032
0.975049
0.97196
0.97894
0.999156
1.01894
1.03247
1.04564
1.05264
1.05734
1.06707
1.07529
1.08445
1.09704
1.10587
1.11786
1.13173
1.14504
1.15766
1.16857
1.17978
1.18802
1.19796
1.20783
1.21556
1.22164
1.2252
1.22818
1.23037
1.23099
1.22798
1.22391
1.21825
1.20864
1.19535
1.17847
1.16022
1.13833
1.11492
1.0855
1.0474
1.00756
0.958959
0.903364
0.84108
0.769045
0.696973
0.804808
1.01445
0.982898
0.983613
0.979338
0.967634
0.948414
0.927827
0.907051
0.889089
0.88325
0.884523
0.889014
0.90662
0.932597
0.953402
0.977957
1.01071
1.03943
1.06668
1.09483
1.12046
1.14307
1.16392
1.18399
1.20163
1.21375
1.22157
1.22628
1.22773
1.22442
1.2131
1.19828
1.17844
1.15358
1.12505
1.09005
1.04708
0.997796
0.945102
0.886311
0.822728
0.750355
0.673366
0.592143
0.502296
0.405678
0.306107
0.217931
0.688108
0.952668
)
;
    }
    patch3
    {
        type            calculated;
        value           nonuniform List<scalar> 
98
(
0.983963
0.976798
0.972003
0.983974
1.00186
1.01828
1.03284
1.04164
1.05155
1.05797
1.06203
1.07202
1.08631
1.0979
1.10838
1.11983
1.13176
1.14373
1.15538
1.16634
1.17637
1.18624
1.19662
1.20847
1.21547
1.21797
1.22318
1.22818
1.22991
1.23102
1.22884
1.22451
1.22018
1.20945
1.19339
1.18064
1.16489
1.14038
1.11442
1.08458
1.04758
1.00556
0.957738
0.903582
0.843664
0.774041
0.696257
0.768279
1.01125
0.988208
0.985275
0.976334
0.964412
0.947057
0.928419
0.906769
0.888662
0.880565
0.883218
0.891459
0.904086
0.927576
0.953626
0.977592
1.00913
1.03781
1.0667
1.09493
1.12067
1.146
1.16598
1.186
1.19916
1.21081
1.22255
1.2249
1.22432
1.22065
1.21184
1.19784
1.17868
1.15339
1.12288
1.08805
1.04732
0.998764
0.942339
0.885655
0.822568
0.750003
0.672984
0.591402
0.50114
0.407088
0.309409
0.219222
0.619735
0.951426
)
;
    }
    Shaft
    {
        type            calculated;
        value           nonuniform List<scalar> 
18
(
12.2052
12.1534
12.1161
12.0936
12.0861
12.0936
12.1161
12.1534
12.2052
12.2052
12.1534
12.1161
12.0936
12.0861
12.0936
12.1161
12.1534
12.2052
)
;
    }
    Inlet
    {
        type            calculated;
        value           uniform 0;
    }
    Lat-Wall
    {
        type            calculated;
        value           nonuniform List<scalar> 
78
(
1279.12
1088.83
1088.83
1204.17
1185.61
899.391
1070.36
987.85
1295.67
1102.69
1173.89
1067.54
966.697
966.697
946.349
804.582
1323.53
844.652
844.652
1025.01
1025.01
1168.66
946.349
1074.34
1128.1
1112.89
1193.57
1313.29
786.023
941.34
1160.03
1227.87
899.391
834.814
630.526
949.166
1048.94
574.669
1180.11
894.785
974.165
915.088
530.351
530.351
875.242
875.242
1057.88
862.004
679.586
679.586
948.138
1041.96
941.25
1012.13
901.672
780.388
825.422
832.578
889.731
737.053
770.37
871.664
677.484
934.453
611.967
856.414
709.817
863.435
589.249
627.977
693.271
693.271
732.894
732.894
777.973
868.847
709.549
827.077
)
;
    }
    Outlet
    {
        type            calculated;
        value           uniform 0;
    }
    AMI-St
    {
        type            cyclicAMI;
        value           uniform 0;
    }
    AMI-Rt
    {
        type            cyclicAMI;
        value           uniform 0;
    }
}


// ************************************************************************* //
