/*--------------------------------*- C++ -*----------------------------------*\
| =========                 |                                                 |
| \\      /  F ield         | OpenFOAM: The Open Source CFD Toolbox           |
|  \\    /   O peration     | Version:  3.0.1                                 |
|   \\  /    A nd           | Web:      www.OpenFOAM.org                      |
|    \\/     M anipulation  |                                                 |
\*---------------------------------------------------------------------------*/
FoamFile
{
    version     2.0;
    format      ascii;
    class       volScalarField;
    location    "0.125493";
    object      p;
}
// * * * * * * * * * * * * * * * * * * * * * * * * * * * * * * * * * * * * * //

dimensions      [0 2 -2 0 0 0 0];

internalField   nonuniform List<scalar> 
21246
(
23.1679
19.5959
16.1544
13.1852
10.6887
8.66961
7.03649
5.75096
4.72921
3.91099
3.34311
11.6579
14.7609
14.4655
13.2484
11.3384
9.46434
7.76747
6.29684
5.07861
4.14479
3.50274
-1.35302
5.35588
7.32237
8.9724
8.96508
8.2925
7.22277
6.08062
5.02069
4.13999
3.51104
-7.99503
-2.03953
-0.139464
3.28793
4.80827
5.62147
5.59077
5.12869
4.47429
3.81744
3.28214
-10.1678
-5.95433
-5.06968
-1.1763
0.602247
2.40882
3.28873
3.59277
3.48766
3.19386
2.89879
-10.6173
-7.44669
-7.40629
-3.93627
-2.4101
-0.315001
1.00594
1.86637
2.25889
2.34947
2.32055
-10.1753
-7.90163
-7.88828
-5.37951
-4.1045
-2.16647
-0.786496
0.338492
1.05552
1.45912
1.67716
-9.08347
-7.78422
-7.4759
-5.82309
-4.82164
-3.18927
-1.94745
-0.780992
0.0735192
0.662723
1.06231
-8.01855
-7.17341
-6.87579
-5.64883
-4.90085
-3.57526
-2.53876
-1.45436
-0.596292
0.0730493
0.57394
-7.22873
-6.47695
-6.19925
-5.19438
-4.62491
-3.5385
-2.70288
-1.74682
-0.961142
-0.291553
0.248681
-6.23331
-5.62502
-5.39929
-4.57023
-4.1396
-3.23642
-2.57752
-1.75461
-1.07512
-0.458598
0.0551706
-4.93311
-4.55676
-4.44821
-3.80677
-3.50562
-2.75976
-2.25775
-1.55926
-0.996564
-0.451998
0.000892715
-3.89014
-3.58857
-3.51906
-3.00129
-2.7963
-2.18073
-1.8113
-1.22345
-0.777767
-0.3133
0.072
-3.13308
-2.79335
-2.6981
-2.23938
-2.08582
-1.56308
-1.29867
-0.799543
-0.464569
-0.0866006
0.211574
-2.19328
-1.9341
-1.88881
-1.50065
-1.39043
-0.940136
-0.765783
-0.324201
-0.0935392
0.195797
0.4096
-1.39119
-1.1625
-1.1347
-0.791186
-0.714203
-0.32116
-0.179756
0.133945
0.305541
0.508711
0.641759
-0.80135
-0.527552
-0.465455
-0.130939
-0.0526114
0.265056
0.39333
0.617863
0.718862
0.83209
0.88059
-0.135982
0.13228
0.194092
0.500148
0.598149
0.858007
0.959143
1.10485
1.13019
1.14804
1.11149
0.512326
0.774613
0.838415
1.11866
1.24846
1.46229
1.52691
1.58372
1.52328
1.44019
1.31761
1.10614
1.37513
1.46118
1.75081
1.90256
2.0724
2.08711
2.03865
1.87826
1.69179
1.48812
1.69071
1.97954
2.09917
2.43155
2.58887
2.69145
2.61971
2.44077
2.16809
1.88439
1.61163
2.35843
2.64179
2.8418
3.21377
3.32654
3.29616
3.07539
2.74058
2.35728
1.99912
1.68125
2.74179
3.46336
3.81635
4.1239
4.06062
3.79792
3.37577
2.89094
2.42918
2.04313
1.76
4.90858
5.12245
5.19536
5.01846
4.54724
3.94203
3.30751
2.73051
2.26267
1.90607
1.65574
17.8063
16.5533
14.3298
12.0691
9.9167
8.0651
6.54298
5.31925
4.34218
3.58241
3.05262
-0.272185
7.15352
8.89897
9.37692
8.56667
7.28534
5.97261
4.8412
3.91012
3.19407
2.71082
-14.1605
-4.48244
-0.867828
2.85811
4.50816
4.94861
4.42327
3.81259
3.15744
2.60466
2.22348
-20.3021
-12.7246
-9.69459
-4.49034
-1.21221
0.936692
1.84825
2.04516
1.92046
1.69436
1.54384
-21.5693
-16.5918
-14.8429
-9.93677
-6.4285
-3.35579
-1.33093
-0.244011
0.310954
0.54148
0.685996
-20.981
-17.5938
-16.7774
-12.8556
-9.95546
-6.78096
-4.31182
-2.55424
-1.42351
-0.733498
-0.261109
-19.9054
-17.3715
-17.0012
-13.9182
-11.7946
-8.93387
-6.52946
-4.49833
-3.01251
-1.95837
-1.22018
-18.6242
-16.6719
-16.5249
-13.957
-12.4917
-9.9897
-7.89512
-5.86589
-4.2539
-2.97333
-2.03217
-17.4839
-15.8331
-15.8292
-13.5
-12.5642
-10.2835
-8.58061
-6.64494
-5.07282
-3.69352
-2.64531
-16.5472
-15.0098
-15.0726
-12.8293
-12.3026
-10.1089
-8.78559
-6.96491
-5.49402
-4.10464
-3.09131
-15.6611
-14.3865
-14.1338
-12.2441
-11.7104
-9.70073
-8.63407
-6.93476
-5.59376
-4.27167
-3.24155
-14.5642
-13.5716
-13.0692
-11.6345
-10.8822
-9.19118
-8.19167
-6.63898
-5.42842
-4.19054
-3.2095
-13.5351
-12.5948
-12.0523
-10.7888
-9.99228
-8.52187
-7.5564
-6.14841
-5.05559
-3.92609
-3.04027
-12.5911
-11.6009
-11.0345
-9.83575
-9.05017
-7.71325
-6.77362
-5.5077
-4.52365
-3.52269
-2.71453
-11.4558
-10.4915
-9.94562
-8.80797
-8.02551
-6.80257
-5.87397
-4.74776
-3.86822
-3.00693
-2.293
-10.2944
-9.32916
-8.78983
-7.70011
-6.90897
-5.77577
-4.88212
-3.88813
-3.11704
-2.40904
-1.8378
-9.14258
-8.13929
-7.57546
-6.51455
-5.69968
-4.64055
-3.79661
-2.93924
-2.29315
-1.75197
-1.34231
-7.9047
-6.86621
-6.27071
-5.23337
-4.3868
-3.39656
-2.6203
-1.91476
-1.41976
-1.05647
-0.801459
-6.56287
-5.48531
-4.84689
-3.82839
-2.95028
-2.03976
-1.36325
-0.839325
-0.529917
-0.359802
-0.275596
-5.11049
-3.97462
-3.27241
-2.26684
-1.37189
-0.578613
-0.0550656
0.241528
0.32987
0.301431
0.225983
-3.4931
-2.27127
-1.48878
-0.50965
0.340515
0.956112
1.23751
1.25467
1.10321
0.888328
0.671361
-1.66765
-0.305879
0.560564
1.44737
2.11746
2.42253
2.36138
2.07291
1.70518
1.35052
1.04925
0.499322
1.99139
2.90782
3.53273
3.80533
3.67002
3.23454
2.69055
2.17185
1.7302
1.37662
2.35222
4.36841
4.98011
4.8844
4.53047
3.95827
3.28088
2.64894
2.13051
1.74253
1.53517
-3.96592
-0.148978
1.18277
1.54942
1.52106
1.33039
1.0943
0.850384
0.609464
0.392064
0.265522
-18.217
-9.57876
-5.91379
-3.37651
-1.67185
-0.77452
-0.35346
-0.193923
-0.170178
-0.207846
-0.22824
-18.3955
-13.7147
-11.2275
-8.17386
-5.43875
-3.5058
-2.26242
-1.53057
-1.12554
-0.904456
-0.748915
-14.2698
-13.156
-12.3317
-10.2704
-7.91184
-5.81322
-4.14113
-2.95108
-2.17133
-1.67469
-1.33409
-10.8162
-10.8538
-10.8343
-9.92354
-8.53129
-6.93794
-5.39027
-4.09163
-3.1106
-2.41034
-1.88645
-8.56552
-8.82401
-8.93447
-8.61691
-7.9588
-6.98809
-5.8461
-4.73001
-3.76548
-2.99964
-2.38208
-7.16084
-7.32471
-7.40019
-7.31635
-7.03248
-6.49319
-5.74452
-4.90667
-4.08943
-3.37591
-2.74693
-6.36926
-6.341
-6.3498
-6.32152
-6.18805
-5.87945
-5.39809
-4.80109
-4.15836
-3.54756
-2.96412
-6.0436
-5.82803
-5.7778
-5.70662
-5.57995
-5.35631
-5.01653
-4.57885
-4.07933
-3.57517
-3.06927
-5.88632
-5.60498
-5.50447
-5.35584
-5.18868
-4.97672
-4.69319
-4.34068
-3.93604
-3.51619
-3.08402
-5.72287
-5.42777
-5.28244
-5.09892
-4.91014
-4.69617
-4.43379
-4.12331
-3.77441
-3.41145
-3.04132
-5.56126
-5.26966
-5.09565
-4.89146
-4.68697
-4.46898
-4.21781
-3.9305
-3.6132
-3.28284
-2.95119
-5.44768
-5.15923
-4.97184
-4.75256
-4.52917
-4.29981
-4.04968
-3.77126
-3.46638
-3.14815
-2.83225
-5.3795
-5.09341
-4.90246
-4.67598
-4.43847
-4.19708
-3.9411
-3.65996
-3.35126
-3.02439
-2.69871
-5.3421
-5.05835
-4.8693
-4.64096
-4.39514
-4.14626
-3.88498
-3.59695
-3.27451
-2.92412
-2.56615
-5.32772
-5.0499
-4.8673
-4.64435
-4.39905
-4.14704
-3.88261
-3.58401
-3.24058
-2.856
-2.45491
-5.33268
-5.0668
-4.89371
-4.68151
-4.44408
-4.1946
-3.92485
-3.61401
-3.24608
-2.8223
-2.36005
-5.35019
-5.1009
-4.9398
-4.74051
-4.51356
-4.26568
-3.98875
-3.66306
-3.27338
-2.82087
-2.32772
-5.36997
-5.14136
-4.99384
-4.81033
-4.59288
-4.34136
-4.04976
-3.70503
-3.30088
-2.84113
-2.35321
-5.38207
-5.17898
-5.04831
-4.88228
-4.67165
-4.40903
-4.09019
-3.71982
-3.31105
-2.87578
-2.42316
-5.3743
-5.21276
-5.10986
-4.96306
-4.75014
-4.46187
-4.10232
-3.69925
-3.29618
-2.92375
-2.56639
-5.32763
-5.27002
-5.21147
-5.06666
-4.82631
-4.4913
-4.07905
-3.63986
-3.25884
-2.99753
-2.8217
-5.49884
-5.54615
-5.42798
-5.21199
-4.90944
-4.50467
-4.02241
-3.54924
-3.21176
-3.09603
-3.12696
-6.08692
-5.34213
-5.04192
-4.7744
-4.41351
-3.96142
-3.49027
-3.12865
-3.03141
-3.20785
-3.54564
15.018
10.2374
7.04101
5.06755
3.78401
2.90546
2.25463
1.73235
1.29148
0.929896
0.685606
13.3766
12.712
10.5908
8.3556
6.39367
4.82339
3.62673
2.71576
2.00205
1.44556
1.08652
9.0451
10.0514
9.91858
8.97483
7.49669
5.94712
4.58346
3.46976
2.5736
1.86921
1.38664
5.28376
7.03145
7.58521
7.62603
7.05601
6.08903
4.96316
3.86559
2.907
2.13052
1.6
2.51051
4.25196
5.02267
5.64747
5.77638
5.41411
4.70938
3.83325
2.98092
2.2395
1.72356
0.53594
2.03736
2.72316
3.53359
4.04535
4.17804
3.93942
3.4131
2.77405
2.14818
1.69086
-0.855821
0.405549
0.930026
1.74472
2.36137
2.74802
2.8361
2.64843
2.2667
1.81635
1.46203
-1.80834
-0.763969
-0.415307
0.349502
0.937508
1.4135
1.68584
1.73458
1.58371
1.31761
1.07052
-2.57612
-1.63649
-1.46571
-0.714896
-0.21809
0.274894
0.632271
0.823496
0.845391
0.747498
0.632239
-3.24952
-2.42094
-2.23298
-1.62029
-1.14835
-0.671188
-0.284255
-0.0129294
0.125408
0.154792
0.145346
-3.79294
-3.17379
-2.88407
-2.35654
-1.91746
-1.46118
-1.06629
-0.751181
-0.536942
-0.418253
-0.340722
-4.22012
-3.70188
-3.42983
-2.95943
-2.55212
-2.11943
-1.72716
-1.388
-1.12336
-0.937964
-0.79884
-4.60738
-4.12828
-3.88011
-3.45251
-3.07292
-2.66343
-2.27954
-1.92927
-1.63172
-1.39267
-1.18231
-4.97598
-4.4993
-4.2584
-3.85729
-3.49889
-3.10979
-2.73675
-2.38397
-2.06782
-1.79839
-1.54727
-5.19854
-4.76875
-4.55584
-4.1829
-3.844
-3.47345
-3.11173
-2.76191
-2.43742
-2.1498
-1.87849
-5.37748
-4.98361
-4.7896
-4.44185
-4.11881
-3.76481
-3.41363
-3.06974
-2.74469
-2.44851
-2.17047
-5.54158
-5.16606
-4.97643
-4.64693
-4.33346
-3.99208
-3.64947
-3.31294
-2.99399
-2.70037
-2.43352
-5.64785
-5.29703
-5.11245
-4.80013
-4.49209
-4.15914
-3.82288
-3.49496
-3.18909
-2.91267
-2.6681
-5.70327
-5.37902
-5.19827
-4.90127
-4.59486
-4.26598
-3.93415
-3.61655
-3.33095
-3.08686
-2.88799
-5.72082
-5.41989
-5.23742
-4.95019
-4.64007
-4.31031
-3.98144
-3.67651
-3.41831
-3.21815
-3.06472
-5.69719
-5.41521
-5.22455
-4.94006
-4.62179
-4.28842
-3.96296
-3.67403
-3.45148
-3.31314
-3.24833
-5.61138
-5.34565
-5.13629
-4.84897
-4.52601
-4.19376
-3.87559
-3.60643
-3.42646
-3.36284
-3.41382
-5.52539
-5.21574
-4.97767
-4.69976
-4.38939
-4.06589
-3.75278
-3.49717
-3.34994
-3.34249
-3.44758
-4.93668
-4.69081
-4.48372
-4.26911
-4.02535
-3.74969
-3.47629
-3.27245
-3.1812
-3.24503
-3.46346
0.722337
0.542436
0.507692
0.511201
0.520262
0.532713
0.533163
0.508467
0.465724
0.419684
0.41425
2.24035
1.8692
1.51696
1.28734
1.13793
1.03096
0.942569
0.857223
0.768789
0.687927
0.646699
2.20839
2.16117
1.97697
1.78066
1.59978
1.43935
1.29551
1.16101
1.02979
0.911999
0.846502
1.88619
1.97763
1.9628
1.8874
1.78176
1.6579
1.52025
1.37474
1.2322
1.10905
1.03023
1.6243
1.76744
1.81386
1.82596
1.80439
1.74415
1.65182
1.53868
1.41415
1.28976
1.19968
1.42378
1.59408
1.66465
1.7267
1.76055
1.75854
1.7181
1.64189
1.53541
1.41329
1.31608
1.23984
1.43206
1.48822
1.58076
1.65522
1.69768
1.69981
1.6595
1.58027
1.47331
1.37672
1.11259
1.25262
1.33085
1.42615
1.5153
1.58374
1.61844
1.61168
1.56281
1.48467
1.41795
1.00051
1.12366
1.19831
1.28753
1.37756
1.45549
1.50823
1.52533
1.50184
1.44727
1.40026
0.89552
1.01496
1.08462
1.16754
1.25357
1.33204
1.39165
1.42213
1.41644
1.38011
1.34728
0.81344
0.92489
0.987334
1.06307
1.1427
1.21715
1.27699
1.31308
1.31797
1.2953
1.27928
0.762437
0.857588
0.908013
0.973455
1.04369
1.11063
1.16616
1.20236
1.21236
1.19886
1.19052
0.711411
0.795516
0.836734
0.892321
0.952114
1.0094
1.05751
1.08996
1.10081
1.09263
1.09829
0.650533
0.730227
0.765204
0.812016
0.861252
0.907792
0.946482
0.972538
0.981333
0.974775
0.98703
0.611679
0.674561
0.696231
0.730485
0.766774
0.800584
0.827869
0.845602
0.85113
0.846163
0.861113
0.563565
0.610387
0.619464
0.640174
0.661703
0.680772
0.694839
0.703014
0.705031
0.702507
0.724438
0.489233
0.525858
0.524937
0.531748
0.536852
0.539282
0.538861
0.537553
0.537912
0.541329
0.572481
0.413565
0.430866
0.412407
0.399437
0.38355
0.366342
0.35063
0.341982
0.345628
0.362569
0.411387
0.318387
0.310722
0.268314
0.228861
0.186612
0.14756
0.118665
0.10884
0.124545
0.164328
0.240534
0.184625
0.144592
0.0727557
0.00079702
-0.0724903
-0.134231
-0.170084
-0.167657
-0.126647
-0.0520711
0.0554176
-0.00492278
-0.091121
-0.201117
-0.310065
-0.41545
-0.494273
-0.522594
-0.484148
-0.405075
-0.27906
-0.126322
-0.265635
-0.450272
-0.59213
-0.735483
-0.86763
-0.948484
-0.948999
-0.869692
-0.702677
-0.504092
-0.295792
-0.932653
-0.985435
-1.14072
-1.31018
-1.44749
-1.49057
-1.41425
-1.23313
-0.982518
-0.709948
-0.446751
-0.0313367
-1.16797
-1.62393
-1.91086
-2.04811
-2.01969
-1.8398
-1.55485
-1.21862
-0.878999
-0.570266
-3.12148
-1.26786
-0.532311
-0.304823
-0.112571
0.0531418
0.138388
0.155818
0.153364
0.13231
0.142362
-2.62733
-1.91535
-1.48713
-1.23059
-0.959932
-0.689006
-0.475585
-0.323393
-0.236533
-0.210411
-0.164072
-2.0668
-2.00424
-1.88589
-1.77107
-1.64601
-1.46879
-1.24011
-0.996668
-0.790338
-0.649099
-0.530699
-2.63028
-2.43381
-2.28353
-2.21018
-2.20464
-2.18921
-2.0638
-1.82799
-1.53829
-1.26636
-1.01001
-3.32097
-3.1677
-2.97491
-2.84499
-2.84935
-2.93033
-2.95455
-2.80728
-2.49511
-2.10604
-1.69983
-4.07331
-4.01507
-3.88006
-3.77158
-3.74558
-3.86593
-4.00112
-3.96967
-3.68607
-3.2001
-2.59888
-4.80257
-4.86909
-4.8316
-4.83939
-4.89694
-5.03822
-5.26333
-5.35303
-5.13002
-4.58262
-3.82192
-5.48283
-5.67612
-5.74437
-5.90257
-6.12642
-6.4123
-6.74618
-6.96284
-6.81185
-6.20392
-5.2321
-6.07206
-6.38609
-6.55667
-6.87591
-7.29031
-7.80036
-8.32358
-8.72365
-8.66512
-8.01327
-6.82605
-6.49805
-6.94742
-7.20321
-7.67433
-8.26926
-8.99683
-9.79745
-10.4205
-10.522
-9.85359
-8.45134
-6.6898
-7.31542
-7.62418
-8.22856
-8.9823
-9.90272
-10.9413
-11.8313
-12.1748
-11.4999
-9.91321
-6.7589
-7.39994
-7.80843
-8.50179
-9.36559
-10.4212
-11.6194
-12.7623
-13.3105
-12.6727
-11.0156
-6.61058
-7.22837
-7.72794
-8.45966
-9.39115
-10.5178
-11.7771
-13.0331
-13.6267
-13.1047
-11.2758
-6.17998
-6.77192
-7.3184
-8.06534
-9.01591
-10.154
-11.4
-12.5638
-13.165
-12.7128
-10.8758
-5.52482
-6.04593
-6.58581
-7.30817
-8.22988
-9.32555
-10.4905
-11.5051
-12.0036
-11.4659
-9.82459
-4.63683
-5.07509
-5.58418
-6.26659
-7.14076
-8.16295
-9.1938
-9.99672
-10.2666
-9.66489
-8.22782
-3.54571
-3.92988
-4.42412
-5.08718
-5.92825
-6.87733
-7.75767
-8.31128
-8.28055
-7.55342
-6.2635
-2.4026
-2.80205
-3.33596
-4.02259
-4.85351
-5.73271
-6.45217
-6.7409
-6.39445
-5.44483
-4.25235
-1.54437
-2.056
-2.69146
-3.41977
-4.22939
-5.02385
-5.5777
-5.59699
-4.94299
-3.79993
-2.5879
-1.33248
-1.97762
-2.69264
-3.42231
-4.18175
-4.88917
-5.28782
-5.02875
-4.08424
-2.79226
-1.41555
-1.71733
-2.3969
-3.10635
-3.82785
-4.56454
-5.18377
-5.36717
-4.75859
-3.48352
-2.1055
-0.714563
-2.46022
-3.16856
-3.87316
-4.52225
-5.13912
-5.41976
-4.96608
-4.01411
-2.81776
-1.67449
-0.696583
-3.31285
-4.48988
-4.91585
-5.00719
-4.84881
-4.42706
-3.75743
-2.92993
-2.0792
-1.32076
-0.728031
-6.32489
-4.84151
-4.03794
-3.65226
-3.3526
-2.97125
-2.51154
-2.00297
-1.49436
-1.03353
-0.660056
0.675645
0.729478
0.101543
-0.971754
-1.95653
-2.41221
-2.26713
-1.73673
-1.33886
0.528409
0.560905
0.0435482
-0.813629
-1.50959
-1.9165
-1.85416
-1.51256
-1.27268
0.390893
0.419232
-0.0194964
-0.757185
-1.45868
-1.77899
-1.72966
-1.43552
-1.21824
0.264702
0.299467
-0.0804021
-0.708669
-1.23123
-1.55752
-1.55242
-1.32445
-1.14427
0.25321
-0.663908
-1.82721
-2.42763
-2.16827
-1.42082
-0.99784
-1.05788
-1.16039
0.165856
-0.536965
-1.34152
-1.83069
-1.68647
-1.22613
-1.0203
-1.06302
-1.1547
0.0773363
-0.505848
-1.2689
-1.67753
-1.55374
-1.15346
-0.992924
-1.0409
-1.12336
0.00633779
-0.469501
-1.07899
-1.42956
-1.38565
-1.08495
-0.949368
-0.998488
-1.07664
0.97643
0.995828
0.991821
0.153649
0.0039007
0.937229
-0.668581
0.875683
0.933884
1.20499
-0.0180498
0.877198
-0.0282595
0.0500466
0.974296
0.700109
0.0343619
0.151189
0.699481
1.00362
0.61148
-0.513869
0.780214
0.0919143
1.0108
0.0507058
-0.0246882
-0.64031
-0.403088
0.145028
0.0346031
0.620887
0.0204956
0.753256
0.635794
0.993802
0.0892721
1.01066
0.0210073
0.875119
-0.142076
0.75672
0.0467581
0.782579
-0.32167
-0.512624
0.0936714
-1.10345
0.856705
0.872782
0.141741
0.877244
0.00390359
0.0494714
0.867475
0.607133
-0.526766
0.869276
-0.322098
0.0495128
0.217453
0.00375092
0.0075221
0.166109
-0.236384
1.00058
0.134184
0.870913
0.992308
1.1906
0.0491279
1.22908
0.164008
1.2394
0.089397
1.18198
-0.333861
0.764229
-0.251664
-0.469039
0.0405355
0.183106
0.988995
0.990461
0.1322
0.160385
-0.789974
0.00389392
-0.284703
0.0592794
0.989733
0.867591
-0.165003
1.07499
-0.418111
-1.42358
0.0842266
-0.115846
-0.248123
1.24145
0.317642
-1.0971
1.04827
0.316599
-0.20146
0.962979
0.00340505
0.988885
0.0167096
0.418555
0.789716
0.754865
1.10197
0.199886
0.119131
0.986031
0.864635
0.751034
0.894215
0.965954
0.194155
1.27034
0.067324
0.0403499
-0.46794
-0.150199
0.00755263
0.00367588
0.00209696
0.0131671
0.830606
0.0525119
-1.05481
1.19669
0.97622
0.0801851
-0.401499
0.155211
0.146985
0.918288
0.041268
0.589406
-0.329766
0.795688
0.85902
0.0542798
-0.0807511
0.872746
1.27886
0.784142
0.814698
0.950504
0.0690848
1.24102
0.179872
0.0527445
0.137341
-0.306183
0.0358099
1.01619
-0.0307566
-0.214966
1.2091
1.01256
0.137
0.0538998
-0.253544
0.869622
-0.164495
-0.251115
0.019116
0.010147
-0.156128
0.499433
0.639516
0.596579
0.000350315
0.0210642
-0.320611
0.620891
0.867849
-0.486681
0.981281
-0.0495152
0.938461
0.220218
0.817225
0.741593
1.00499
-0.253249
0.0211128
0.0706706
0.970502
-0.129946
0.990216
1.02752
0.952344
-0.274277
0.0141019
0.988232
-0.14289
0.892184
0.0409888
0.0460645
0.977039
0.0020483
1.0632
0.000706815
0.890673
0.975862
0.0523375
0.726171
0.418738
0.691063
0.769127
0.0356472
0.993218
0.112366
0.830248
0.0904275
0.00704649
0.194932
0.0885489
0.121238
0.033952
0.850788
-0.032199
0.0422777
0.0162035
0.102249
-0.276578
0.96638
0.816544
1.30288
0.0365231
-1.33153
0.0870475
0.983567
0.835102
0.836106
0.111941
0.173154
0.288039
-0.130381
0.929729
-0.243817
0.748982
0.0613233
-1.3051
0.0425318
0.0588448
0.0547255
0.597079
1.03385
0.0983153
0.948386
0.648794
1.01183
-0.00751363
0.817213
0.000427174
-0.055602
0.968139
0.77406
0.78903
0.102485
0.574967
0.794052
0.00898786
0.0113227
-0.126234
0.827228
0.901307
0.0941661
1.02941
0.74729
0.0475542
0.991814
0.922347
-0.22269
1.24432
0.906535
0.0429635
0.0809961
0.122415
1.03067
-0.493418
0.851588
0.858019
0.0334916
0.822202
-0.573133
0.688041
0.0543572
0.990044
0.890504
-0.150723
0.789566
0.67481
0.0535492
0.917959
0.115898
0.797147
0.149095
0.659312
0.383951
0.770992
0.0063917
-0.489805
0.811759
-0.585049
0.961176
0.327109
0.0186547
-0.465102
0.897088
0.0615347
-0.216819
0.920825
1.12104
0.812346
0.0252765
0.732213
0.0485665
0.0293648
0.754402
0.754278
0.0668727
0.962314
0.0443685
0.794477
-0.0304475
-0.294851
0.942905
0.0156671
-1.49559
0.145831
0.774384
0.988992
-0.109237
-0.179492
0.0584613
0.8957
0.0682921
-0.126717
0.00798047
0.084692
0.748209
0.0899817
0.0146077
-0.599821
-0.104985
0.0259486
0.670567
0.0216012
0.988533
0.00533063
0.749071
0.77669
0.0454667
0.0258325
0.0577135
0.992059
0.987125
1.07258
-0.244524
0.0113449
0.0459863
-0.719637
0.194334
0.996512
-0.135457
-1.50966
0.0247568
0.0415507
0.819657
0.119932
0.615703
1.03803
0.782237
0.0598696
1.03482
-0.00752248
0.845741
0.0633556
0.110027
0.167269
0.0310574
0.171114
-0.281393
0.95224
-0.521432
0.0138331
1.48369
0.108408
-0.237616
0.772344
0.786783
0.904236
0.0830053
0.00802502
0.985897
0.941473
0.0325348
0.00158639
-0.242637
-0.321675
0.0216463
0.88649
0.0229135
0.926474
0.695917
0.0407226
0.0383191
0.117121
0.269178
0.0231846
1.26965
0.00761156
-0.476027
0.010256
0.00693155
-0.74348
0.00536266
0.583407
0.450136
1.23336
0.00538138
-0.200215
-0.352579
0.743445
-0.0200991
0.0758978
0.89969
-0.142845
0.014866
0.113103
0.137129
0.0416575
0.739754
0.171089
-0.885194
0.111763
0.149879
0.834267
0.0226493
0.0333615
-0.321116
1.03478
-0.180312
0.948084
0.990589
0.990949
-0.379785
-0.0957661
-0.734271
0.0214476
-0.174163
-1.32832e-05
1.00292
1.04034
0.0096493
0.0232046
0.0786522
0.916439
-0.000696807
0.00352753
0.984798
0.729367
0.804625
0.576498
0.0501862
0.764233
0.190448
0.877125
0.821826
0.823646
0.973717
-0.260555
0.815094
1.00134
0.631891
0.161052
-0.467204
0.775461
0.0846055
-0.0113139
0.818833
0.0233332
1.00416
-0.19063
1.03176
0.870304
0.848582
0.00171536
0.0350975
0.975438
0.0730735
0.373141
0.803208
0.0523104
0.070203
0.932057
0.996266
-1.11918
0.010729
0.160889
0.787261
-0.991985
0.738497
0.115252
0.033037
-0.277954
0.0539986
0.32671
0.103141
0.0812531
0.0657652
0.743418
-0.00624366
0.908856
0.909871
1.00966
0.820618
0.775844
0.060308
0.877934
1.00548
0.0930212
0.91878
-0.457125
-0.0129588
0.00308578
0.0490068
-0.247457
1.00023
1.00376
0.907737
-0.162337
-0.254957
0.74743
1.00912
0.0392234
0.938868
0.114235
0.939217
0.0232687
0.909838
-0.400771
0.036204
0.00668375
-0.599032
0.115606
0.661183
0.551004
1.25283
0.811107
0.0125386
-0.296071
0.947668
0.0382383
-0.349053
-1.30855
1.00892
0.960789
0.962079
0.0357774
0.0890278
0.00594033
0.946051
0.836356
0.0782885
1.07264
0.0659758
0.00674448
0.0169747
-0.145715
0.790431
0.00465347
1.0063
0.0825657
1.01836
0.0870875
0.00125418
0.679507
-0.430716
0.0513512
0.878127
0.762212
-0.427253
1.01302
0.0015806
0.189436
0.0800704
0.0415299
-0.168874
0.0677517
1.1633
0.885741
0.935972
-1.44033
0.103802
0.0431298
0.992128
1.00545
-0.318004
0.81706
1.07293
0.850607
1.24168
0.0764146
0.0833325
0.0762654
0.0193298
0.193687
0.622079
1.0296
0.0909267
1.18945
0.917898
-1.38649
0.0630397
0.722465
1.02766
-0.387831
1.03922
1.03455
0.226094
0.962808
0.670596
0.0871456
0.0491308
0.0503449
0.00719101
0.00816467
-0.359782
0.016416
0.0910992
0.081091
0.0688396
-0.243657
0.142294
0.0398314
0.739806
0.74169
0.00621381
0.200942
0.763696
0.458224
0.0757222
0.0423663
-1.21099
0.0640671
-0.0512094
0.758801
0.545897
1.00408
0.784677
1.03852
0.0410361
1.18402
0.765931
0.797735
0.808788
0.179284
0.0162423
0.075544
1.19903
0.819194
0.751614
0.0128668
1.12015
-0.352351
1.13964
0.111326
0.00646431
0.777318
0.00185861
1.00169
0.0232404
0.223787
0.0761386
-1.34794
-0.0279426
0.170957
0.988845
0.00444936
0.0266063
-0.389483
0.0145346
0.741601
0.304494
0.99007
0.0146122
0.770191
0.0785908
0.949565
0.896004
1.02998
-0.0320761
0.0718437
1.00301
0.00119563
1.00409
0.0378644
0.0372467
0.504996
0.196052
-0.146069
0.0428989
0.0976593
0.0192539
0.0540939
0.0768729
0.0187961
-0.7004
0.742978
0.0776938
0.820211
0.796696
-0.565296
-0.225388
-0.197808
0.0488266
1.06906
0.660078
0.95281
0.106218
1.00311
0.00257494
0.0281366
0.0254309
0.518115
0.0895665
0.0397549
0.0443092
1.3425
0.0810071
-0.17529
-0.161122
0.796786
0.0601461
-0.364876
0.992753
-0.484875
0.00757522
1.17121
0.108479
0.837798
0.853674
1.01466
0.0112258
1.26898
0.024808
0.968417
0.0255946
1.25251
0.0515648
0.012895
0.0628488
0.0101894
0.733783
0.108158
-0.682705
1.00009
0.0240977
0.131902
0.0356626
0.563751
-0.320222
0.853721
0.111638
0.0382726
0.560695
0.772172
0.104408
0.75791
0.084903
-0.221219
0.991576
0.889391
0.341887
-0.0459709
0.0341353
0.0715958
0.872886
0.0870452
0.500994
0.750032
1.00522
0.952475
0.818932
0.914186
0.00359553
-0.511659
-0.109447
0.0132461
-0.150749
1.02472
0.844465
0.0463262
0.0856729
0.984687
-0.0515644
0.0647083
-0.938718
0.0729415
0.0204721
0.488194
0.111847
1.02437
0.829936
-0.476819
0.945772
0.877108
0.412309
0.0030048
0.14575
0.173956
0.993612
0.0710892
-0.173375
0.155026
0.870327
0.00619694
0.0193974
0.073989
0.124754
0.997151
0.769083
0.148787
0.0828847
0.0353095
0.990488
0.799631
1.13492
1.01894
0.862577
0.0618585
0.0445165
-0.465984
-0.827529
0.0297588
0.927827
0.0857418
1.00145
1.1419
0.0514598
0.842098
0.99132
0.877633
-0.228441
0.0134025
0.0557377
0.993295
0.112177
1.02216
0.964807
0.967878
1.02898
0.482175
0.77802
0.981864
1.00164
-1.74191
0.759064
1.0189
-0.200832
-0.345352
0.840209
0.989679
0.184825
-1.76087
0.812139
0.0819938
0.0744326
0.127376
0.810993
1.00606
0.734803
0.770891
0.0021594
0.848936
0.0889862
0.0574599
0.01862
0.0405694
0.788923
0.0584344
0.96176
0.779241
1.31431
0.766007
0.766072
-0.107037
-0.451782
0.0637666
0.0775739
0.0124314
0.0389468
0.18408
-0.379929
0.762579
0.788839
0.00344081
0.00641105
0.0624754
0.893053
-0.142471
1.09252
0.0772493
1.05459
0.00595768
0.019587
-0.22375
0.0533718
1.0189
1.00601
0.076566
-0.435255
0.0041294
-0.139482
0.0799917
0.559635
0.64002
0.0163495
1.00857
0.977629
0.000581675
-0.322007
0.213262
-0.293518
0.00839506
0.0570808
0.0328127
-0.42258
0.994594
0.573077
0.00980453
1.01139
0.623047
0.969523
0.0520219
0.0473662
0.0225346
0.999973
0.0447712
0.92868
0.873029
0.0257035
0.181442
0.81176
0.988476
1.0078
-0.0208095
-0.168559
-0.440037
0.210351
1.05899
-0.165921
0.109795
-0.381688
0.9923
0.0189129
0.0266812
0.925627
0.00634764
0.792235
0.063035
0.127479
0.180154
0.0287445
0.867452
1.04302
0.101852
0.0430576
0.818102
0.0199315
0.989665
-1.36285
0.0017527
-1.24242
1.00113
0.00650306
0.19445
0.181534
0.00921669
0.0211062
0.98834
0.00161731
0.133376
0.768352
0.393364
0.0618997
0.126822
0.08961
0.0664809
0.892308
1.0431
-0.260342
0.848755
-0.195181
0.043288
0.00148006
0.095222
0.863947
0.0989135
-0.273648
0.01098
0.0492834
0.0246273
1.03581
0.074684
0.00963236
1.00276
1.00999
0.973269
0.0953652
0.529853
0.923723
0.0479123
0.0177617
0.0266478
0.791524
-0.589744
-0.10965
0.535606
0.0553658
0.746527
1.23322
0.894729
-0.814591
0.782161
0.0265707
0.189514
-0.262986
0.77843
0.630177
0.990843
1.0012
0.154864
0.0908575
0.0332881
-0.325433
-0.315431
-0.403424
1.11542
0.378647
0.103548
0.997109
0.0267943
0.0157449
0.756236
0.114737
0.0125521
0.0982489
0.802004
0.0289462
0.994763
0.0756896
0.800354
-1.00154
-0.14666
1.28747
-0.483201
0.071449
0.752756
0.0783303
0.0215551
-0.0153523
0.0747459
0.502203
-0.318052
0.0105869
0.196992
-0.580074
0.0691401
0.955636
0.0261511
0.877632
0.0451436
0.0538228
0.222895
0.457596
0.0860238
-0.299156
1.01483
0.874067
0.825021
0.798115
0.0495503
0.0485683
1.17701
0.0531919
0.120397
0.75346
-0.178932
-0.530192
0.0479992
-0.0025688
-0.19301
0.0982117
0.0107115
0.0153654
1.01135
1.00912
0.0993701
1.02967
0.982407
0.0567384
0.987961
0.957514
0.0939275
1.34525
-1.51555
0.022878
0.134228
1.03969
0.0722695
0.0430331
0.0532294
-0.685214
0.997628
0.0466145
0.0930052
0.0389918
0.00304185
0.694456
0.0174655
0.944266
0.224239
0.0193723
0.814671
1.03879
0.058132
0.0943943
0.0318627
-0.219941
0.12438
1.08917
0.975456
1.01105
-0.0280284
0.00775364
0.0258837
-0.23288
-0.491508
1.5142
0.473755
0.957632
0.952511
-0.16596
1.01974
0.820114
-0.664153
-0.0122901
-1.04366
0.0360992
0.797283
0.729714
0.00934391
0.151329
0.0441613
-0.618403
0.0582452
0.955666
0.832452
0.061249
0.0194596
0.0144619
0.0684106
1.04388
0.0594188
0.0382796
0.139475
0.727084
0.102695
-0.131216
0.763953
-0.0893787
0.785265
1.20007
0.136706
0.0325178
0.0638651
0.580173
0.882647
-0.00868356
0.179703
0.183199
0.0757197
0.217804
-0.27941
0.868911
-0.792081
0.220781
1.00229
0.00181029
0.0468543
0.941921
0.0416049
1.00329
1.01192
1.20971
-0.151207
0.00155314
0.739174
0.0854383
1.00044
0.770836
0.991689
0.0472953
0.743002
0.0480038
-0.129195
1.00746
0.0798429
-0.415894
0.0497536
-0.13961
-0.136285
0.0760104
0.0010395
0.880003
0.778684
0.971762
0.0396758
0.987102
0.801606
-0.010838
-0.373419
0.0659525
0.0345246
0.00230942
0.812847
0.216494
-0.136395
0.73845
-0.0171381
0.714479
0.00921466
0.924906
0.0292944
0.61651
1.11305
0.913703
-0.224172
0.00713021
0.845263
0.0803736
0.73648
0.00996875
0.0159937
0.00185179
0.0714578
1.01657
0.970819
0.0333057
-0.0561954
0.0293593
0.0049968
-0.100303
0.0230187
1.00722
-0.323385
0.0143498
1.00356
0.126114
0.126925
0.0566179
-0.173513
0.19273
0.000448272
-0.24003
-0.417876
0.742638
0.860157
0.0336898
0.0866215
0.116299
0.765926
-0.146512
0.98838
1.28121
-0.498111
0.994032
0.870281
-0.585263
0.171027
0.902324
0.983545
0.928049
0.718383
0.798922
1.08063
-0.163681
0.241705
0.724896
0.953523
0.109255
0.815236
0.037554
0.999923
0.682025
0.874669
0.0721413
-0.346898
0.100371
1.02654
0.778179
0.0536067
0.0152414
1.0012
-0.16397
0.0597097
0.984197
0.0161398
0.046737
-0.125885
0.0271416
0.0669549
0.865711
0.182206
0.944271
0.618697
1.10279
0.595943
1.00962
0.100712
1.09065
0.141969
0.98893
1.00957
-0.0574117
0.782684
0.999289
-0.00116368
0.0575316
0.159502
1.03648
0.592994
0.949057
0.0431902
0.017896
0.148658
0.672292
0.0533674
-0.148561
0.802138
0.728042
0.802061
0.523547
0.106844
1.12032
-0.0500149
1.2
-0.605039
0.0285611
0.0580788
0.0566403
0.800895
0.131465
0.986363
0.116764
-0.0869415
1.01693
1.00847
0.0534902
0.713884
0.802767
1.13171
0.0686393
1.01083
0.0639836
-0.104166
0.0425352
0.0318136
0.732005
-0.159162
0.879132
-0.448412
0.0802428
0.250383
0.0340706
0.9853
0.780989
1.00146
0.711505
0.217861
0.611603
1.08912
0.0191345
-0.0940034
0.820473
0.545968
-0.52801
0.219891
0.992459
0.159702
1.15047
1.49686
0.0726101
1.02558
0.048557
0.0396441
0.606968
0.98451
0.0713514
0.0861447
1.03971
0.0104146
1.02132
1.23256
0.0466555
0.615087
0.0600374
1.00206
1.06015
-0.623503
0.480495
0.805464
-0.500683
0.658392
0.835391
0.796666
0.810342
0.55847
0.107834
0.0956606
0.0320354
-0.209163
0.836381
0.922668
0.0274432
0.000689737
0.638322
0.484373
0.0511795
1.07127
0.0112263
0.870514
0.0746806
0.948491
1.05517
0.0104526
0.0878105
0.0377634
1.00395
1.02951
1.02187
0.976188
0.850893
0.0859825
0.0801879
0.200287
-0.0528146
0.0561789
0.633211
0.821299
0.833358
-0.142108
1.15627
0.0330793
-0.61831
0.804255
0.0405872
0.100104
0.840273
0.988111
0.140884
-0.0327434
0.0553697
0.829575
0.0446543
0.0193224
-0.212426
0.00792199
0.0494607
0.793693
0.078057
-0.306949
-0.348495
0.0611505
0.0628652
0.00785471
1.00443
1.13001
0.0463561
1.00529
0.0461398
0.0436812
0.0121684
0.0883955
0.0743859
-0.173861
0.043868
0.0782985
0.944204
0.104265
0.0434678
-0.00690397
-0.0745632
0.144794
1.00132
-0.247864
0.948948
0.00771203
-0.890097
0.0295906
-0.506369
0.111728
0.0323607
0.982546
1.13559
0.804713
1.062
1.03104
0.513927
0.815515
-0.172591
1.03894
0.060598
0.0962991
0.718231
0.991775
-0.0410402
-0.270122
0.974758
0.353348
0.779965
1.25343
0.109022
-0.166766
1.00223
0.702029
0.675929
0.74578
1.14916
0.987062
0.133803
0.172171
0.937242
0.180664
0.981592
0.726777
0.83872
0.992966
0.0665968
0.984628
0.851777
0.779443
0.982003
0.0113947
0.843784
0.00628737
0.0805914
-0.696266
0.0487309
0.0465462
0.0345544
0.0172139
0.0447796
0.0264832
0.00850232
0.764461
0.0594034
0.47793
0.908769