/*--------------------------------*- C++ -*----------------------------------*\
| =========                 |                                                 |
| \\      /  F ield         | OpenFOAM: The Open Source CFD Toolbox           |
|  \\    /   O peration     | Version:  3.0.1                                 |
|   \\  /    A nd           | Web:      www.OpenFOAM.org                      |
|    \\/     M anipulation  |                                                 |
\*---------------------------------------------------------------------------*/
FoamFile
{
    version     2.0;
    format      ascii;
    class       volScalarField;
    location    "0.755058";
    object      nut;
}
// * * * * * * * * * * * * * * * * * * * * * * * * * * * * * * * * * * * * * //

dimensions      [0 2 -1 0 0 0 0];

internalField   nonuniform List<scalar> 
21246
(
4.58608e-05
0.000290296
0.000418565
0.000477137
0.000495462
0.000503983
0.000514208
0.000522976
0.000519772
0.000496116
0.000448612
3.20031e-05
0.000246105
0.000407211
0.000483917
0.000507229
0.000510158
0.000511103
0.000512668
0.000507998
0.000487007
0.000443111
2.64656e-05
0.000216704
0.000383549
0.000480071
0.000515682
0.00052091
0.000518379
0.000515175
0.000507635
0.000487452
0.000445929
2.50587e-05
0.000201539
0.000365563
0.000472704
0.00051987
0.000530344
0.000528423
0.000524524
0.000516411
0.000496106
0.000453861
2.46853e-05
0.00018249
0.000345944
0.000464353
0.000523279
0.000539085
0.000535671
0.000526916
0.000512624
0.000487825
0.00044722
2.50299e-05
0.000172146
0.000325166
0.000443289
0.000511172
0.000536687
0.000538964
0.00053384
0.000524087
0.000504815
0.000468044
2.56981e-05
0.000166396
0.000312264
0.000424281
0.00049155
0.000522083
0.000531994
0.000533656
0.000528196
0.000510126
0.000471416
2.65859e-05
0.000162008
0.000302145
0.000408516
0.00047418
0.000507404
0.000522572
0.000529985
0.000529889
0.000517278
0.000484522
2.74121e-05
0.000158115
0.000293373
0.00039483
0.000458351
0.000492944
0.000512169
0.000524939
0.000530252
0.000521483
0.000488578
2.80133e-05
0.000153642
0.000284794
0.000382559
0.000444443
0.000480093
0.000502615
0.000519846
0.000529245
0.000521799
0.00048559
2.85106e-05
0.000148952
0.000276546
0.000371572
0.000432444
0.000469177
0.000494509
0.000515379
0.000528058
0.000523082
0.000492364
2.8936e-05
0.000144828
0.000269324
0.000362081
0.000422274
0.00046013
0.000487998
0.000512076
0.000527804
0.00052532
0.000495826
2.91585e-05
0.000140657
0.000262579
0.000353699
0.000413719
0.000452921
0.000483279
0.000510417
0.000529079
0.000528337
0.000496714
2.91662e-05
0.000135696
0.000255442
0.000345816
0.000406433
0.000447409
0.000480363
0.00051048
0.000531819
0.000532617
0.000502768
2.89498e-05
0.000130674
0.000248432
0.000338512
0.000400216
0.00044332
0.000479012
0.000512073
0.000535846
0.000537289
0.000503763
2.84712e-05
0.000125161
0.000241115
0.000331403
0.00039479
0.000440479
0.000479135
0.000515189
0.000541325
0.000543205
0.000507238
2.77559e-05
0.000118434
0.000232518
0.000323712
0.000389629
0.000438565
0.000480529
0.000519741
0.000548422
0.000550968
0.000513439
2.668e-05
0.000110086
0.00022167
0.000314632
0.000383967
0.000436806
0.000482418
0.000525014
0.000556794
0.000560883
0.000521253
2.52323e-05
9.94002e-05
0.000206867
0.000300884
0.000373836
0.000430713
0.00047974
0.000525695
0.000561807
0.000570061
0.000532527
2.33752e-05
8.62778e-05
0.00018713
0.000281494
0.000357664
0.000417356
0.000466573
0.000510257
0.00054453
0.000554297
0.00052454
2.10341e-05
7.12754e-05
0.000161921
0.000255017
0.000333927
0.00039566
0.000442871
0.000479657
0.000505425
0.000511023
0.000488704
1.81887e-05
5.44657e-05
0.000132572
0.00022133
0.000301529
0.000364577
0.000409199
0.000437897
0.000452299
0.000449325
0.000427811
1.46538e-05
4.02003e-05
0.0001023
0.00018315
0.000260601
0.000322197
0.000363918
0.000386693
0.000392786
0.000382899
0.000359384
1.06247e-05
4.05089e-05
9.09513e-05
0.000149824
0.000204676
0.000251942
0.000286382
0.00030604
0.000311277
0.000303117
0.000284318
4.10717e-05
0.000154482
0.000235148
0.000310927
0.000379967
0.00046903
0.000523419
0.000565056
0.000564545
0.000535471
0.000485001
2.7896e-05
8.11201e-05
0.00014071
0.000196768
0.000247579
0.000285919
0.000325538
0.000456207
0.000596278
0.000593066
0.00052781
2.0508e-05
6.35343e-05
0.000105097
0.000146992
0.000186937
0.00021705
0.000238984
0.000281716
0.000433426
0.000623448
0.000587196
2.15222e-05
7.8646e-05
0.000101528
0.000126729
0.000155206
0.000179728
0.000196297
0.000213216
0.000270676
0.000459946
0.000640766
2.55032e-05
0.000135038
0.000147085
0.000143912
0.000150298
0.000162148
0.000172325
0.000179888
0.000201342
0.000287293
0.000511555
2.86463e-05
0.000163313
0.000260921
0.0002251
0.00018807
0.000170327
0.000164566
0.000162903
0.000168649
0.000205772
0.000336661
3.16188e-05
0.000177656
0.000326734
0.000357598
0.000283687
0.000217451
0.000179281
0.000160096
0.000153339
0.000167049
0.000236811
3.44877e-05
0.000188151
0.00037307
0.000481366
0.000430876
0.000318019
0.000227736
0.000175907
0.000151091
0.000148691
0.000185563
3.7019e-05
0.00019497
0.000398805
0.000548674
0.000585196
0.000465028
0.00031736
0.000216078
0.000162678
0.000143036
0.000158934
3.91731e-05
0.000200031
0.000413901
0.000585694
0.0006789
0.000614216
0.000439443
0.000282108
0.000189215
0.00014766
0.000146516
4.09171e-05
0.000205308
0.000420837
0.000597363
0.000715414
0.000723646
0.000565719
0.000365187
0.000228301
0.000160732
0.000143472
4.23893e-05
0.000207642
0.000419969
0.000590229
0.000714635
0.000771989
0.000664159
0.000446696
0.000272016
0.000178803
0.00014666
4.35208e-05
0.000211999
0.000416234
0.000570415
0.000685708
0.000761219
0.000712442
0.000505518
0.00030887
0.000196767
0.000153249
4.43054e-05
0.000215732
0.00040813
0.000541965
0.000637357
0.000713092
0.000710785
0.000529067
0.000328966
0.000209793
0.000161046
4.47272e-05
0.000216493
0.000396075
0.000508506
0.000577731
0.000636084
0.000660217
0.000515057
0.000327362
0.000215459
0.000169199
4.45908e-05
0.000216355
0.000382413
0.000474433
0.0005168
0.000545755
0.000555209
0.000482691
0.000310622
0.000215541
0.000178383
4.38878e-05
0.000215338
0.000367722
0.000441709
0.000460477
0.00046395
0.000457217
0.000416826
0.000301756
0.000217434
0.000191377
4.25682e-05
0.000214419
0.000354898
0.00041544
0.000418543
0.000406891
0.000393339
0.000366906
0.000300868
0.000236374
0.000215776
4.06258e-05
0.000215638
0.000348433
0.000401556
0.000399995
0.000386474
0.000377193
0.000363183
0.000329634
0.000288946
0.000261822
3.81146e-05
0.000222111
0.000354522
0.000405335
0.000406051
0.00039654
0.000394922
0.000394652
0.00038673
0.000367198
0.000318795
3.503e-05
0.000234506
0.000356834
0.000386544
0.000369562
0.000342728
0.000308717
0.000292022
0.000284197
0.000264908
0.000217275
2.91889e-05
0.000212163
0.000303605
0.000321104
0.00027638
0.000180175
0.000151969
0.000134699
0.000122694
0.000110634
9.79075e-05
1.76855e-05
9.70564e-05
0.000119866
0.00010406
8.39956e-05
7.2639e-05
6.90359e-05
6.95063e-05
7.17631e-05
7.37804e-05
7.40712e-05
8.20794e-06
1.02309e-05
1.45717e-05
2.15012e-05
3.23831e-05
4.76795e-05
6.62947e-05
8.54993e-05
0.000102068
0.000113357
0.000118287
2.50271e-05
5.37104e-05
4.89232e-05
4.77382e-05
4.18863e-05
3.61633e-05
3.31266e-05
3.17433e-05
3.11814e-05
3.10901e-05
3.13894e-05
2.20033e-05
6.07596e-05
4.53396e-05
5.0102e-05
4.32445e-05
3.68066e-05
3.29507e-05
3.1172e-05
3.04892e-05
3.04813e-05
3.10422e-05
2.28589e-05
6.01954e-05
4.16387e-05
5.22766e-05
4.37838e-05
3.75106e-05
3.29418e-05
3.08268e-05
3.0035e-05
3.0155e-05
3.12247e-05
2.54097e-05
5.60349e-05
4.07481e-05
5.2556e-05
4.34672e-05
3.79596e-05
3.28225e-05
3.04992e-05
2.96285e-05
2.98944e-05
3.14903e-05
2.82728e-05
5.26263e-05
4.00753e-05
5.10869e-05
4.30757e-05
3.80554e-05
3.2535e-05
3.01128e-05
2.91616e-05
2.94991e-05
3.13019e-05
3.07634e-05
5.08732e-05
3.94847e-05
4.93556e-05
4.28856e-05
3.7866e-05
3.21361e-05
2.96619e-05
2.86157e-05
2.89389e-05
3.07545e-05
3.28734e-05
5.02156e-05
3.81901e-05
4.7447e-05
4.28861e-05
3.75352e-05
3.17351e-05
2.9172e-05
2.80069e-05
2.82571e-05
3.00675e-05
3.4631e-05
5.07168e-05
3.70756e-05
4.46661e-05
4.28036e-05
3.7187e-05
3.14001e-05
2.86685e-05
2.73633e-05
2.74794e-05
2.91078e-05
3.58252e-05
5.21312e-05
3.6438e-05
4.1179e-05
4.13256e-05
3.68418e-05
3.11844e-05
2.81846e-05
2.67213e-05
2.66484e-05
2.80401e-05
3.63623e-05
5.39596e-05
3.64614e-05
3.72178e-05
3.77975e-05
3.57824e-05
3.10458e-05
2.77973e-05
2.61317e-05
2.58027e-05
2.68753e-05
3.63688e-05
5.64404e-05
3.75992e-05
3.40786e-05
3.32886e-05
3.33075e-05
3.05666e-05
2.74655e-05
2.56268e-05
2.50087e-05
2.56854e-05
3.58511e-05
5.99729e-05
3.9954e-05
3.25428e-05
2.95202e-05
2.97152e-05
2.91963e-05
2.70045e-05
2.51866e-05
2.43041e-05
2.45825e-05
3.47599e-05
6.43812e-05
4.36187e-05
3.25409e-05
2.69988e-05
2.59027e-05
2.65568e-05
2.59763e-05
2.46859e-05
2.36854e-05
2.35981e-05
3.32291e-05
6.94013e-05
4.88839e-05
3.42316e-05
2.59782e-05
2.28448e-05
2.30272e-05
2.38075e-05
2.37431e-05
2.30475e-05
2.27342e-05
3.13422e-05
7.56968e-05
5.60011e-05
3.78577e-05
2.6723e-05
2.13356e-05
1.99463e-05
2.06997e-05
2.18337e-05
2.20593e-05
2.18917e-05
2.93555e-05
8.34248e-05
6.55207e-05
4.38559e-05
2.94135e-05
2.15361e-05
1.81726e-05
1.77028e-05
1.89259e-05
2.01921e-05
2.07396e-05
2.76522e-05
9.24442e-05
7.8235e-05
5.31716e-05
3.46725e-05
2.37446e-05
1.81048e-05
1.58556e-05
1.5958e-05
1.73176e-05
1.87228e-05
2.64019e-05
0.000103513
9.51648e-05
6.71489e-05
4.36046e-05
2.86656e-05
2.01871e-05
1.58157e-05
1.41939e-05
1.44506e-05
1.57833e-05
2.5548e-05
0.000116146
0.000116995
8.78639e-05
5.82957e-05
3.78237e-05
2.53752e-05
1.82161e-05
1.44651e-05
1.29888e-05
1.31111e-05
2.4478e-05
0.000128008
0.000142244
0.000117095
8.20383e-05
5.42569e-05
3.59359e-05
2.45822e-05
1.78224e-05
1.40557e-05
1.23212e-05
2.23238e-05
0.000134282
0.000165586
0.000153232
0.000118071
8.30014e-05
5.66083e-05
3.86614e-05
2.69713e-05
1.95725e-05
1.50901e-05
1.92468e-05
0.000135897
0.00018183
0.000188385
0.00016451
0.000128725
9.49393e-05
6.81468e-05
4.8514e-05
3.47196e-05
2.52801e-05
1.43784e-05
0.000117164
0.000168079
0.000192233
0.000193169
0.000175195
0.000147062
0.000117186
9.0333e-05
6.83971e-05
5.12093e-05
1.14002e-05
8.6917e-05
0.000120876
0.00014649
0.000159461
0.000160796
0.000153189
0.000139137
0.000121538
0.000103041
8.51144e-05
2.07842e-05
5.17703e-05
4.71737e-05
4.68261e-05
4.13146e-05
3.62772e-05
3.38065e-05
3.27429e-05
3.23409e-05
3.22755e-05
3.24254e-05
1.64661e-05
4.38908e-05
4.75426e-05
4.96128e-05
4.38658e-05
3.85685e-05
3.5673e-05
3.44671e-05
3.41183e-05
3.42118e-05
3.45324e-05
1.72529e-05
4.15552e-05
4.2614e-05
5.12267e-05
4.6011e-05
4.09872e-05
3.81263e-05
3.69312e-05
3.66253e-05
3.6799e-05
3.72668e-05
1.98335e-05
3.80239e-05
4.0515e-05
5.20648e-05
4.67046e-05
4.20082e-05
3.93072e-05
3.8481e-05
3.87607e-05
3.96784e-05
4.09889e-05
2.29476e-05
3.42397e-05
3.97441e-05
5.15421e-05
4.66148e-05
4.25168e-05
4.003e-05
3.95383e-05
4.02893e-05
4.18893e-05
4.41575e-05
2.60013e-05
3.13342e-05
3.92901e-05
5.03509e-05
4.62564e-05
4.27987e-05
4.05416e-05
4.03572e-05
4.15168e-05
4.37649e-05
4.70545e-05
2.88853e-05
2.92853e-05
3.88346e-05
4.90665e-05
4.58852e-05
4.30118e-05
4.09843e-05
4.11137e-05
4.26322e-05
4.54338e-05
4.95799e-05
3.1607e-05
2.78147e-05
3.83416e-05
4.79352e-05
4.56058e-05
4.31976e-05
4.14543e-05
4.18982e-05
4.37479e-05
4.70052e-05
5.17732e-05
3.40201e-05
2.67304e-05
3.78491e-05
4.70611e-05
4.55321e-05
4.34108e-05
4.201e-05
4.27683e-05
4.4986e-05
4.87767e-05
5.44048e-05
3.61144e-05
2.59307e-05
3.7435e-05
4.64517e-05
4.56812e-05
4.37342e-05
4.26796e-05
4.37568e-05
4.64048e-05
5.08573e-05
5.75039e-05
3.78934e-05
2.53587e-05
3.70945e-05
4.61304e-05
4.60316e-05
4.42208e-05
4.34758e-05
4.48653e-05
4.79791e-05
5.31321e-05
6.05146e-05
3.94085e-05
2.49257e-05
3.6799e-05
4.60371e-05
4.65756e-05
4.48828e-05
4.4405e-05
4.60811e-05
4.96579e-05
5.55494e-05
6.41202e-05
4.05048e-05
2.43355e-05
3.6331e-05
4.60323e-05
4.7345e-05
4.57233e-05
4.5474e-05
4.73681e-05
5.13498e-05
5.78937e-05
6.76156e-05
4.11149e-05
2.33094e-05
3.38103e-05
4.49211e-05
4.77706e-05
4.66484e-05
4.67249e-05
4.87873e-05
5.31226e-05
6.01881e-05
7.07737e-05
4.11782e-05
2.2382e-05
3.02546e-05
4.24108e-05
4.75061e-05
4.74837e-05
4.80782e-05
5.03102e-05
5.49144e-05
6.23121e-05
7.33565e-05
4.06502e-05
2.16338e-05
2.62862e-05
3.8136e-05
4.58457e-05
4.7772e-05
4.92991e-05
5.18275e-05
5.6616e-05
6.41268e-05
7.51654e-05
3.95152e-05
2.10976e-05
2.25839e-05
3.23508e-05
4.18934e-05
4.65461e-05
4.97502e-05
5.29927e-05
5.80097e-05
6.54647e-05
7.608e-05
3.76689e-05
2.07549e-05
1.9685e-05
2.62754e-05
3.55293e-05
4.25324e-05
4.8068e-05
5.28073e-05
5.84509e-05
6.59212e-05
7.59074e-05
3.50534e-05
2.04655e-05
1.76778e-05
2.11103e-05
2.80625e-05
3.53646e-05
4.2532e-05
4.91861e-05
5.6124e-05
6.41074e-05
7.37415e-05
3.16183e-05
2.00089e-05
1.63845e-05
1.73523e-05
2.13534e-05
2.67786e-05
3.32307e-05
4.02986e-05
4.80534e-05
5.6699e-05
6.64157e-05
2.73121e-05
1.90696e-05
1.54923e-05
1.49088e-05
1.64721e-05
1.93648e-05
2.33688e-05
2.83791e-05
3.44476e-05
4.16582e-05
4.99772e-05
2.21291e-05
1.72301e-05
1.45005e-05
1.33043e-05
1.33686e-05
1.43206e-05
1.60112e-05
1.83913e-05
2.14887e-05
2.5354e-05
2.99769e-05
1.61085e-05
1.38883e-05
1.25126e-05
1.15674e-05
1.11095e-05
1.10756e-05
1.14182e-05
1.21117e-05
1.31479e-05
1.4524e-05
1.62045e-05
9.19135e-06
1.07629e-05
1.2013e-05
1.30522e-05
1.40209e-05
1.58678e-05
1.8897e-05
2.29817e-05
2.78837e-05
3.32294e-05
3.8491e-05
4.71897e-05
0.000280764
0.000406788
0.000533445
0.00062599
0.000689857
0.000695368
0.000639716
0.000558382
0.000478697
0.000404231
3.6697e-05
0.000161826
0.000249793
0.000361006
0.000493983
0.000640736
0.000709741
0.000673368
0.000586399
0.000495736
0.000409927
3.28074e-05
0.000113279
0.000193267
0.000276336
0.000372532
0.000494466
0.000654517
0.000693872
0.000620743
0.000521919
0.000422634
3.07586e-05
9.10607e-05
0.000161901
0.000230934
0.000305875
0.000393746
0.000520248
0.000652695
0.000648959
0.000556503
0.000451267
2.83582e-05
8.25126e-05
0.00014271
0.000202063
0.00026354
0.000328906
0.000415214
0.000538422
0.000629006
0.000591464
0.000493164
2.50559e-05
7.96817e-05
0.000130924
0.000182372
0.000233986
0.000284469
0.000342514
0.000428063
0.00053864
0.000590473
0.000537294
2.13594e-05
8.08402e-05
0.000125398
0.000169637
0.00021346
0.000254067
0.000294676
0.000349054
0.000433759
0.000528688
0.000553465
1.96581e-05
9.0734e-05
0.000129289
0.000165084
0.000201292
0.000234546
0.000264632
0.000299299
0.000353917
0.000439375
0.000519595
2.07805e-05
0.000113573
0.000146587
0.000171745
0.000198545
0.000224367
0.000247022
0.000269802
0.00030308
0.000362543
0.000449429
2.08241e-05
0.000138599
0.000174375
0.000191363
0.000207075
0.000223658
0.000239165
0.000253947
0.000273743
0.000310763
0.000377824
1.94536e-05
0.000149962
0.000200849
0.000219885
0.000227174
0.000233284
0.000240549
0.000248546
0.000259581
0.000281199
0.000325376
1.79571e-05
0.000150678
0.000220072
0.000247756
0.000254496
0.000252239
0.000250713
0.000251948
0.000256543
0.000268109
0.000294598
1.65399e-05
0.00014538
0.000226834
0.000264474
0.000279967
0.000276015
0.000267593
0.000262473
0.00026186
0.000266735
0.000280928
1.53882e-05
0.000135861
0.000218804
0.000266485
0.000294824
0.0002977
0.000287242
0.00027772
0.00027321
0.000273599
0.000279276
1.45034e-05
0.000126987
0.000203695
0.000256605
0.000295592
0.000311066
0.000304686
0.000294342
0.000287985
0.000285597
0.000285208
1.36546e-05
0.000120279
0.000190278
0.000239183
0.000282751
0.000312224
0.000315206
0.000308392
0.000302925
0.000299386
0.000294051
1.27068e-05
0.000113613
0.000178168
0.000222031
0.000262049
0.000298954
0.000315533
0.000316116
0.000314443
0.000311325
0.00030183
1.16077e-05
0.000106084
0.000166387
0.000206968
0.000241671
0.00027619
0.000304699
0.000315856
0.000320755
0.000320189
0.000308761
1.04582e-05
9.74736e-05
0.000155561
0.000195316
0.000225382
0.000255132
0.000286708
0.000311139
0.000325751
0.00033248
0.000323949
9.40964e-06
8.82333e-05
0.000145731
0.000187114
0.000214965
0.000240816
0.000271257
0.000306412
0.000331587
0.000348801
0.000347995
8.368e-06
7.71862e-05
0.000132782
0.000176154
0.000203864
0.000227116
0.000254375
0.00028654
0.000309089
0.000322235
0.00031821
7.00665e-06
6.31549e-05
0.000110423
0.000151364
0.000177642
0.000197496
0.000216574
0.000234629
0.000246285
0.000254947
0.000260278
5.55236e-06
4.37282e-05
7.33074e-05
0.000104745
0.000128175
0.000147239
0.000164714
0.000182948
0.000205417
0.000238201
0.000276891
5.04329e-06
9.36647e-06
1.58238e-05
3.32042e-05
6.04328e-05
9.48682e-05
0.000135813
0.000185069
0.000243417
0.000304025
0.00035129
4.27207e-05
0.000296826
0.000449118
0.000544596
0.000620376
0.000671564
0.000671332
0.000618815
0.000545754
0.00047407
0.000406283
2.68139e-05
0.000219658
0.000390127
0.00051671
0.000606254
0.000664898
0.000672829
0.000627075
0.000557183
0.000487294
0.000421825
2.46911e-05
0.000172843
0.000339064
0.000494276
0.000600568
0.000664983
0.000680751
0.000642951
0.000576451
0.000507203
0.000441361
2.58397e-05
0.000155937
0.000309529
0.00047063
0.000586997
0.000658983
0.000684315
0.000657894
0.000597939
0.000532049
0.00046851
2.79363e-05
0.000148943
0.000297039
0.000453519
0.000569535
0.000638856
0.000661977
0.000646672
0.000605771
0.000552986
0.000497232
3.00136e-05
0.00014602
0.000293028
0.000445295
0.000559028
0.00062416
0.000640691
0.000622864
0.000588785
0.000549296
0.000507979
3.18745e-05
0.000144818
0.0002925
0.000441994
0.000555199
0.000619036
0.000630694
0.000607461
0.000572162
0.000535805
0.000499659
3.35764e-05
0.000144759
0.000294054
0.000442509
0.00055701
0.000622138
0.000632192
0.000604722
0.000564192
0.000522933
0.000483104
3.48863e-05
0.000144803
0.000296024
0.00044494
0.000562462
0.000631622
0.000644298
0.000616633
0.000571788
0.000521872
0.000470708
3.57328e-05
0.000144385
0.000296811
0.000446746
0.00056865
0.00064422
0.000663749
0.000641251
0.000597004
0.000540576
0.000474951
3.60476e-05
0.000141737
0.000294275
0.000444824
0.000571737
0.00065534
0.000685227
0.000673099
0.000636522
0.000582478
0.000512507
3.59034e-05
0.000136733
0.000287146
0.000436984
0.00056786
0.000659884
0.000702135
0.00070395
0.000680897
0.000638256
0.000573264
3.52288e-05
0.000128326
0.000272916
0.000419214
0.000551376
0.000650773
0.000706366
0.000724304
0.00071786
0.000692523
0.000645186
3.40179e-05
0.000117301
0.000252251
0.000392069
0.000522353
0.000626552
0.000694036
0.000727469
0.000736815
0.00072792
0.000700571
3.22221e-05
0.000105612
0.000228376
0.000359243
0.000484779
0.000590733
0.000667127
0.000713685
0.000736634
0.000741024
0.000728719
2.98607e-05
9.37867e-05
0.000203209
0.000323567
0.000442279
0.000547086
0.000628884
0.000685329
0.000719217
0.000733838
0.000732146
2.70275e-05
8.23398e-05
0.000178543
0.000287876
0.000398546
0.000499918
0.00058386
0.000646801
0.000688802
0.000710904
0.000716489
2.38302e-05
7.18522e-05
0.000156041
0.000254798
0.000357042
0.000453489
0.000537037
0.000603522
0.000650929
0.000678112
0.00068777
2.0455e-05
6.23229e-05
0.00013611
0.00022527
0.000319365
0.000410277
0.000491942
0.000559868
0.000610484
0.000641021
0.000652349
1.70835e-05
5.31064e-05
0.000117566
0.000197887
0.000284292
0.000369704
0.000448946
0.000517261
0.000569736
0.000602676
0.00061462
1.38049e-05
4.32746e-05
9.80987e-05
0.000169298
0.000247894
0.000327765
0.000404524
0.000473213
0.000527576
0.000562713
0.000576011
1.06253e-05
3.23907e-05
7.58038e-05
0.000135649
0.000204594
0.000277713
0.00035169
0.000421723
0.000479852
0.000518461
0.000533952
7.48053e-06
2.03922e-05
4.95616e-05
9.36559e-05
0.000148765
0.000212298
0.000282536
0.000355301
0.000420809
0.000466974
0.000486785
4.51342e-06
1.07566e-05
2.65971e-05
5.36964e-05
9.27875e-05
0.000143856
0.000206523
0.000277757
0.000348396
0.000404121
0.000433066
1.51262e-05
1.64155e-05
1.72585e-05
1.78813e-05
1.8169e-05
1.77021e-05
1.76886e-05
1.76964e-05
1.75224e-05
5.89075e-05
8.35227e-05
0.000110058
0.000128478
0.000144823
0.000151537
0.000138573
0.000124191
0.000107456
0.000120792
0.000167661
0.000209396
0.000239347
0.00026498
0.000272149
0.000252873
0.000231287
0.000204823
0.000178734
0.000243264
0.000293048
0.000323523
0.000345969
0.000349083
0.000325961
0.000306139
0.000281237
1.28665e-05
8.36961e-06
6.86857e-06
6.54187e-06
6.65398e-06
1.00192e-05
1.37961e-05
1.57456e-05
1.68698e-05
3.89412e-05
2.97086e-05
2.52615e-05
2.64943e-05
2.39348e-05
2.85154e-05
3.72242e-05
5.51324e-05
8.04722e-05
7.7049e-05
5.12922e-05
3.83138e-05
4.01144e-05
4.11408e-05
5.20747e-05
7.40009e-05
0.000113063
0.000162471
0.000115276
7.30297e-05
5.12764e-05
5.39411e-05
5.95528e-05
7.62975e-05
0.000110171
0.000166903
0.00023462
0.000195688
0.00022971
0.000229765
8.09989e-05
0.000420941
0.00022918
8.66946e-05
0.000229706
0.000229236
0.000234127
0.000407164
0.000229749
0.00012192
0.000188069
0.000123843
0.000228758
0.000163785
8.19823e-05
0.000228765
0.000228612
0.000229522
3.33922e-05
0.000229971
0.000244911
0.000229298
0.000191694
0.000130685
8.70592e-05
0.000420599
0.000556588
0.000145799
0.000235999
0.000115973
0.000229479
0.000241495
0.000229663
0.000231835
0.000229289
9.75352e-05
0.000229084
2.08748e-05
0.00022952
0.000113544
0.000229956
0.000454237
4.88688e-05
5.20923e-05
8.02961e-05
0.000240005
0.000230072
0.000553052
0.000229079
0.000395409
0.000113874
0.000229854
0.00022931
3.3215e-05
0.000229067
0.000433861
0.000164987
2.78451e-05
0.000342249
0.000494696
0.000165677
2.92543e-05
0.000228623
0.000648561
0.000232784
0.000229703
0.000233645
0.000189404
0.000234028
6.12732e-05
0.000243731
0.000218115
0.000231969
1.94981e-05
0.000229747
0.000139156
0.000406341
0.000627904
0.000141117
0.000229261
0.000229805
0.000247497
6.21309e-05
0.000406131
0.000268411
4.56349e-05
0.000253175
0.000229517
0.00022907
2.44295e-05
0.000235351
0.0004196
0.000113682
0.000163162
0.000236089
4.39974e-05
0.000236374
0.000252136
9.60093e-05
0.000230284
0.000236528
4.96026e-05
0.000229627
0.000181501
0.000229876
0.000109548
0.000235379
0.000229425
0.000229577
0.000231452
7.13806e-05
8.12159e-05
0.000229005
0.000229147
0.000229008
0.000229453
0.000229232
6.85461e-05
0.000241633
0.000253922
0.000190583
4.90432e-05
0.000204917
0.000955503
0.0001765
0.000143166
0.000120016
0.000229183
0.000163137
8.46571e-05
0.000232472
0.000229756
0.000231469
2.21444e-05
0.000107073
0.000547053
0.000244745
0.000115994
0.000231085
0.000242175
0.00016801
0.000229189
3.84599e-05
0.000116319
0.000232067
0.000235732
0.000229245
0.000229599
0.000229173
4.06164e-05
0.000240875
7.79436e-05
6.18232e-05
7.02998e-05
2.91392e-05
0.000169403
0.000228953
0.000217184
4.93207e-05
0.000233445
0.000229073
0.00067332
0.000112586
5.7255e-05
0.000236054
0.00022939
2.93002e-05
0.000148438
0.000159064
0.000218573
0.00022954
0.000235225
0.000220353
0.000153726
3.94878e-05
0.000457325
0.000199714
0.000231462
2.88972e-05
0.000229943
0.000132369
0.000229478
0.000109099
0.000229778
0.000228986
0.00022967
0.000175109
0.000109694
0.000196864
0.000228599
2.09941e-05
0.000229737
0.000229097
0.000229688
4.4369e-05
0.000116889
0.000230001
3.57128e-05
0.000230416
0.000111297
0.00014284
0.000229807
0.000273022
0.000234686
0.000143132
0.00022974
0.000228745
0.000291835
0.000228959
0.000175266
0.000239249
0.000229313
0.000325743
0.000229427
5.10003e-05
0.000229994
8.02451e-05
7.39958e-05
6.7182e-05
0.000161805
8.00096e-05
0.000193347
0.000229076
0.000105578
0.000113421
0.000111311
0.00031381
3.20263e-05
0.000228555
0.000229666
0.000241533
3.93252e-05
0.000308267
0.000643257
0.000229888
0.000229731
0.000229683
5.15237e-05
0.00021138
0.00023665
2.03134e-05
0.000244775
5.02839e-05
0.000229404
0.000145072
0.000169432
0.000854946
0.000144907
0.000292562
0.000230392
0.000228814
0.000233863
0.00022952
0.000229216
0.000229247
4.56311e-05
0.000229861
0.000122575
0.000191622
0.000228228
0.000229679
0.00022941
5.08301e-05
0.000231449
0.000250503
0.00015953
0.000179727
0.000196272
0.00022954
0.000230424
5.15048e-05
0.000229222
0.000229
0.000186664
0.000229252
0.000238296
4.91257e-05
0.000235603
0.000229834
0.000626812
0.000603787
0.000233483
0.000229197
0.000490776
0.00022984
0.000238092
0.000108775
0.00022988
0.00010092
0.000238299
8.10091e-05
0.000230021
0.00022965
0.000229688
0.000229669
0.000241012
0.000189372
0.000229198
6.04836e-05
0.00024315
0.000554
0.000229158
0.000235721
0.000229764
0.000259329
2.95013e-05
0.000229189
5.54866e-05
0.000229655
0.000234081
0.000120017
2.30006e-05
0.0002316
0.000171185
6.43892e-05
0.000228767
0.000239724
0.000229536
0.000514802
0.00022893
0.000192142
0.000114848
0.000233581
0.000229156
0.000207074
0.000228258
0.000695478
0.000237172
0.000492399
1.77181e-05
0.000229887
9.81688e-05
0.000199146
6.88447e-05
0.000229728
0.000229317
0.000238858
5.32136e-05
0.000280461
0.000230546
0.000108767
0.000182429
0.000259453
9.98731e-05
0.000228978
0.000202282
0.000999336
5.69558e-05
0.000236666
0.000179776
0.000229141
0.000105998
0.000230037
7.14138e-05
0.000206799
0.000229954
0.000757041
0.000136084
0.000185672
0.000229454
0.000229325
0.000229767
5.12621e-05
0.000167684
5.90248e-05
6.84107e-05
0.000253
0.000229244
0.000130835
0.00018323
0.000193456
0.000112879
0.000229863
0.000152609
0.000241257
0.000229199
0.000229234
0.00050519
0.000229115
3.65107e-05
0.000229066
0.000197005
0.000686189
6.02762e-05
0.000192945
0.000213196
4.61675e-05
0.000229194
4.76505e-05
0.000185909
0.000246078
0.000682311
2.84286e-05
0.000229261
0.000229268
0.00022986
8.85016e-05
4.55746e-05
0.000228964
0.000229933
0.000109599
9.89718e-05
2.13472e-05
0.000103625
0.000134486
0.000230351
0.000518604
0.000234654
0.000228742
0.000117927
0.00011997
4.98265e-05
0.000234
0.000109854
0.000248741
0.000182206
4.92856e-05
0.000313398
0.000149365
8.70198e-05
0.000109805
0.000227337
0.000234625
0.000242365
7.42478e-05
0.000218121
3.61552e-05
0.00022927
3.68055e-05
0.000207368
0.000228679
0.000241992
6.28644e-05
0.000289238
0.000511407
0.000190022
0.000230036
0.000236634
0.00039011
0.000104071
6.02309e-05
0.00023196
6.99225e-05
0.000218006
2.73606e-05
0.000228996
4.01897e-05
0.000229209
0.000229754
0.000229396
4.98916e-05
9.87365e-05
7.02733e-05
0.000150241
3.36455e-05
8.17193e-05
0.000229671
0.000228997
0.000980228
0.000182038
0.000233934
0.000234099
4.13262e-05
4.53236e-05
2.96836e-05
2.93526e-05
0.000236486
0.000211879
5.25215e-05
0.00022927
2.70887e-05
0.000233212
0.000229805
0.000229461
8.05674e-05
3.51951e-05
0.000229674
0.000229099
0.000229527
0.000265441
2.58936e-05
0.000229914
4.08626e-05
0.000360587
0.000156672
6.14786e-05
0.000228852
3.71425e-05
0.000229123
0.000233086
0.000229073
0.000125121
0.000149421
0.000228629
0.000193806
0.000168861
0.000247896
0.000223297
0.000207068
0.000229654
0.000229428
0.000232255
6.42817e-05
5.71219e-05
0.000237521
9.5864e-05
0.000229775
0.000442126
0.000104794
4.40938e-05
0.000107517
0.000251503
0.000639281
7.63274e-05
0.000193577
0.000229142
0.000184309
0.000228877
0.000229826
0.000229238
0.000229755
0.000232414
0.000482887
0.000229555
0.000228894
0.000155114
0.000229173
4.53632e-05
0.000243307
0.000222488
0.000176192
4.70355e-05
0.000230024
0.000229294
0.000229869
2.12321e-05
3.52527e-05
0.000229341
0.000229237
0.000190425
0.000229798
9.7202e-05
0.000229776
0.000847348
0.000236974
3.08163e-05
9.18992e-05
0.000130552
5.08897e-05
0.000469434
0.000229178
0.000231566
0.000235464
0.000229861
6.28777e-05
2.58955e-05
0.000223889
0.000130251
0.000209401
0.000107661
0.000229313
0.000230502
0.00022972
0.00022008
0.000689092
8.40702e-05
0.000229641
0.000229147
0.000607808
0.00023193
9.60597e-05
0.000137808
0.000154614
0.000284984
0.000229116
8.86406e-05
0.000229269
7.67038e-05
0.000229732
0.000217389
0.000149327
0.000234882
2.38174e-05
0.00012869
0.000229903
0.000229992
0.000437353
0.000229028
0.000183492
0.000103686
8.30501e-05
0.000216651
5.30862e-05
0.000152743
0.000231599
0.000229147
0.000229417
0.000107911
5.13496e-05
0.000112935
0.000228609
0.000229347
8.88735e-05
0.000229836
0.000238705
0.000233578
0.00023398
0.000107957
5.51453e-05
8.33031e-05
0.000159957
0.000233569
0.000217098
0.000228784
0.000149121
0.000231908
0.000229244
0.000156604
0.000374298
0.000228932
0.000229055
2.28609e-05
0.000230379
0.000228956
0.000147692
0.000229741
0.000233139
9.37827e-05
8.49174e-05
0.000158634
0.000181999
0.000158738
6.88597e-05
0.000373444
6.04503e-05
0.000104972
0.000180283
5.27022e-05
7.25179e-05
0.000128805
0.00022978
0.00022988
0.000113897
0.000230145
0.000229302
0.000239961
0.000207413
0.000112199
0.000177902
0.000193054
0.000236951
0.000229076
0.000182645
0.000229495
0.000229236
0.000236546
7.75308e-05
0.000231959
0.000239333
0.000230405
0.000229824
0.000126807
6.22219e-05
0.000300628
0.000232256
0.000230267
0.000189935
0.000115587
0.000238084
0.000168316
0.00023178
0.000221814
0.000529043
0.0002291
6.29048e-05
0.000229952
0.000120269
0.000134385
0.000104946
0.000135305
0.000215377
0.00024656
0.000229834
0.000100013
0.000182246
4.68508e-05
0.000911101
0.000228964
0.000233813
0.000229823
0.000161061
0.000229515
4.2596e-05
0.000229668
0.000229079
0.000229179
0.000131252
6.83561e-05
0.000229538
0.00012879
0.000229295
0.000112611
0.000169524
0.000231106
0.000113193
1.98633e-05
8.07566e-05
0.000236696
0.000201752
0.000137102
0.000120883
0.000129581
8.53102e-05
0.000229211
0.00014667
0.000229363
0.000236397
5.16268e-05
0.000234224
3.63399e-05
0.000188083
0.000231582
0.000233384
0.000229263
5.68438e-05
0.00022965
0.00109258
9.67058e-05
0.000822631
0.000233525
0.000138798
0.00015218
0.000216663
0.000241122
0.000121151
3.68672e-05
6.08876e-05
0.000229518
0.00018557
0.0002039
0.00022953
4.81186e-05
0.000118863
0.000246291
0.000220917
0.000229115
0.000232667
0.000235074
0.000130324
0.000236309
0.000192591
0.000229663
0.000120125
0.000234491
8.46849e-05
6.42025e-05
0.000326868
0.000109544
0.000228973
0.000257479
5.98296e-05
0.000229139
0.000191685
0.000188066
7.58965e-05
0.000230489
2.88815e-05
0.000236453
8.20277e-05
9.18308e-05
0.000248364
0.000229184
0.000247437
0.000229048
0.000107367
2.05861e-05
0.000230062
0.00022939
0.000252289
0.00036145
0.000482787
0.000152642
0.000229814
0.000143628
0.000241631
0.000229564
0.000229626
0.000229799
0.000229312