/*--------------------------------*- C++ -*----------------------------------*\
| =========                 |                                                 |
| \\      /  F ield         | OpenFOAM: The Open Source CFD Toolbox           |
|  \\    /   O peration     | Version:  3.0.1                                 |
|   \\  /    A nd           | Web:      www.OpenFOAM.org                      |
|    \\/     M anipulation  |                                                 |
\*---------------------------------------------------------------------------*/
FoamFile
{
    version     2.0;
    format      ascii;
    class       volScalarField;
    location    "0.424741";
    object      p;
}
// * * * * * * * * * * * * * * * * * * * * * * * * * * * * * * * * * * * * * //

dimensions      [0 2 -2 0 0 0 0];

internalField   nonuniform List<scalar> 
21246
(
-10.2168
-5.58824
-3.56944
-2.46389
-1.66157
-1.13893
-0.83279
-0.646864
-0.546328
-0.487414
-0.413975
-11.7809
-8.28832
-6.49424
-4.95721
-3.553
-2.52216
-1.8468
-1.41748
-1.15538
-0.984964
-0.852492
-8.735
-8.19783
-7.56992
-6.47926
-5.15151
-3.93205
-2.96632
-2.27872
-1.81135
-1.49671
-1.27277
-7.30551
-7.37353
-7.19874
-6.66468
-5.82412
-4.81908
-3.83339
-3.01859
-2.40782
-1.97448
-1.65669
-6.67856
-6.69943
-6.62697
-6.36899
-5.86624
-5.13892
-4.30563
-3.51273
-2.85845
-2.35056
-1.96676
-6.2432
-6.20611
-6.15482
-5.99516
-5.66433
-5.13709
-4.46209
-3.75196
-3.11268
-2.58748
-2.1691
-5.82359
-5.75631
-5.71361
-5.59346
-5.35179
-4.95187
-4.4078
-3.79487
-3.20627
-2.69624
-2.26943
-5.4271
-5.33228
-5.28435
-5.16817
-4.97412
-4.65666
-4.21338
-3.69281
-3.16948
-2.69735
-2.29237
-5.0728
-4.94964
-4.87881
-4.74913
-4.57516
-4.30574
-3.93465
-3.49299
-3.03673
-2.61119
-2.23131
-4.76493
-4.61513
-4.52435
-4.38083
-4.19996
-3.95176
-3.62627
-3.24491
-2.84834
-2.47161
-2.12649
-4.51123
-4.33565
-4.22873
-4.0681
-3.87245
-3.62951
-3.3293
-2.98994
-2.64032
-2.3061
-1.99749
-4.3055
-4.10694
-3.98966
-3.81116
-3.6033
-3.35599
-3.06782
-2.75483
-2.43768
-2.13444
-1.84934
-4.1403
-3.92445
-3.80261
-3.61084
-3.39225
-3.13791
-2.8541
-2.55395
-2.25509
-1.97229
-1.71057
-4.01118
-3.78353
-3.66053
-3.4594
-3.23273
-2.97316
-2.688
-2.39016
-2.09681
-1.82227
-1.57185
-3.91038
-3.67469
-3.55194
-3.34534
-3.11431
-2.85072
-2.56039
-2.25679
-1.95844
-1.68305
-1.43645
-3.83201
-3.59203
-3.47012
-3.26241
-3.02866
-2.76017
-2.46041
-2.14369
-1.83201
-1.54944
-1.30533
-3.77451
-3.53433
-3.41378
-3.20802
-2.97154
-2.69522
-2.37972
-2.0415
-1.7094
-1.41411
-1.16513
-3.73573
-3.5002
-3.38354
-3.18237
-2.94281
-2.65357
-2.31274
-1.94301
-1.58453
-1.27741
-1.03482
-3.71543
-3.49168
-3.38278
-3.19023
-2.94612
-2.63405
-2.25187
-1.8387
-1.45159
-1.13865
-0.909018
-3.71595
-3.5128
-3.41784
-3.23694
-2.98286
-2.63688
-2.21242
-1.74585
-1.31582
-0.997018
-0.792887
-3.73105
-3.57353
-3.51739
-3.36119
-3.11809
-2.73849
-2.23774
-1.71776
-1.24627
-0.89643
-0.704092
-3.76265
-3.76014
-3.76756
-3.60713
-3.24448
-2.7744
-2.25731
-1.7481
-1.28999
-0.92583
-0.702395
-4.01847
-4.32927
-3.90015
-3.52524
-3.10403
-2.6425
-2.19117
-1.77023
-1.38743
-1.06277
-0.821996
-5.40058
-3.50832
-3.34448
-3.00322
-2.66184
-2.3518
-2.06545
-1.79019
-1.51788
-1.25518
-1.02694
0.887688
-0.295804
-0.697196
-0.63924
-0.417991
-0.198256
-0.0598571
-0.00635715
-0.0124349
-0.0315865
-0.00752214
3.88211
2.9925
2.07572
1.45802
1.12828
0.959539
0.833149
0.690872
0.530557
0.393448
0.356051
3.74359
3.61253
3.22639
2.74477
2.31494
1.96894
1.66439
1.35795
1.04614
0.774054
0.648717
3.20859
3.23839
3.18906
3.01532
2.7696
2.49729
2.19423
1.83798
1.44093
1.07282
0.891318
2.69378
2.70768
2.72393
2.69041
2.60345
2.47137
2.27904
1.98894
1.60537
1.2027
0.95433
2.19714
2.17091
2.17422
2.15323
2.11132
2.04943
1.96202
1.81646
1.55704
1.20656
0.963184
1.72138
1.64464
1.61934
1.56823
1.50873
1.45054
1.40621
1.35996
1.23451
0.993879
0.781027
1.26438
1.13344
1.07469
0.975863
0.867805
0.761826
0.682051
0.646275
0.621595
0.514042
0.388963
0.829378
0.640462
0.550015
0.394281
0.225959
0.0500175
-0.110494
-0.210671
-0.212874
-0.195452
-0.200834
0.42667
0.163794
0.0581201
-0.162662
-0.395246
-0.649095
-0.901505
-1.10043
-1.17035
-1.08445
-0.947824
0.0522688
-0.286022
-0.384057
-0.68122
-0.975438
-1.30768
-1.65447
-1.95989
-2.13111
-2.07249
-1.83529
-0.294654
-0.659177
-0.818107
-1.14393
-1.4956
-1.89998
-2.33436
-2.744
-3.02276
-3.02988
-2.76375
-0.605059
-0.985954
-1.19875
-1.54407
-1.94676
-2.40908
-2.91367
-3.40901
-3.78484
-3.87053
-3.56854
-0.867219
-1.25596
-1.50877
-1.87319
-2.30983
-2.8139
-3.36868
-3.92348
-4.36444
-4.51194
-4.27192
-1.07605
-1.46093
-1.73743
-2.11155
-2.56436
-3.08929
-3.6712
-4.25836
-4.73436
-4.92384
-4.73481
-1.22499
-1.59177
-1.8778
-2.2487
-2.69922
-3.2229
-3.8029
-4.38795
-4.86649
-5.0847
-4.95848
-1.3058
-1.64058
-1.92231
-2.27613
-2.70566
-3.20761
-3.76206
-4.31315
-4.7589
-4.9686
-4.84195
-1.3136
-1.60457
-1.86878
-2.19269
-2.58555
-3.04724
-3.55545
-4.05246
-4.4469
-4.635
-4.55492
-1.25132
-1.49204
-1.7289
-2.01323
-2.35881
-2.7663
-3.21455
-3.64658
-3.97669
-4.11668
-4.00593
-1.13477
-1.32357
-1.52487
-1.76721
-2.0663
-2.42497
-2.81133
-3.16608
-3.41504
-3.48731
-3.31901
-0.974182
-1.11229
-1.28713
-1.5135
-1.80026
-2.12547
-2.44189
-2.69751
-2.83818
-2.81323
-2.57935
-0.783084
-0.911617
-1.1037
-1.37718
-1.68666
-1.9734
-2.19362
-2.32553
-2.35142
-2.25068
-2.0008
-0.728092
-0.838968
-1.15964
-1.52312
-1.82264
-2.00467
-2.07902
-2.07284
-1.99411
-1.83113
-1.60221
-0.32223
-1.12225
-1.63801
-1.96118
-2.08772
-2.07996
-1.99791
-1.87486
-1.71707
-1.51542
-1.29659
10.3738
5.32226
3.12956
2.33512
2.18176
2.24319
2.31514
2.32956
2.28383
2.20667
2.19492
20.8505
16.8163
13.1033
10.1985
8.06242
6.5849
5.56514
4.82081
4.2362
3.77178
3.45844
19.0134
18.5162
16.568
14.3393
12.1192
10.1241
8.45533
7.11503
6.05045
5.21776
4.65783
16.7299
17.0851
16.6161
15.547
14.003
12.2365
10.5004
8.95055
7.64023
6.57739
5.80127
15.0831
15.7484
15.679
15.2843
14.4353
13.2339
11.8225
10.3626
8.97742
7.75661
6.81241
13.628
14.3915
14.4213
14.459
14.1244
13.4034
12.361
11.1246
9.8276
8.59417
7.57447
12.3959
12.985
13.1642
13.3241
13.2533
12.885
12.2038
11.2675
10.1754
9.05034
8.04717
11.4721
11.8825
12.0508
12.2292
12.2644
12.093
11.6688
10.9981
10.1342
9.18156
8.30998
10.698
11.0177
11.138
11.2886
11.3472
11.2643
10.9908
10.5094
9.83772
9.04682
8.289
9.96011
10.2555
10.3538
10.4796
10.5338
10.4849
10.2917
9.93164
9.40329
8.74881
8.09301
9.37967
9.62005
9.68322
9.77871
9.81473
9.77221
9.61823
9.33152
8.9028
8.35798
7.81389
9.00281
9.13321
9.13266
9.17857
9.17973
9.12388
8.98264
8.73745
8.37665
7.91459
7.45055
8.59556
8.66579
8.63175
8.6381
8.60349
8.52554
8.3814
8.15687
7.84124
7.44144
7.04502
8.10615
8.17235
8.13407
8.11667
8.05428
7.95474
7.80124
7.5853
7.299
6.94272
6.59318
7.78549
7.76718
7.67642
7.61581
7.51889
7.39443
7.22761
7.01428
6.75044
6.43302
6.12756
7.40014
7.32617
7.20406
7.10742
6.97698
6.82686
6.64578
6.4338
6.19073
5.90951
5.64408
6.90273
6.81303
6.68441
6.56281
6.40418
6.23167
6.04032
5.83405
5.61534
5.37307
5.14369
6.45999
6.31109
6.14484
5.9823
5.78962
5.59491
5.39888
5.20821
5.02411
4.83075
4.65749
5.98519
5.76354
5.55157
5.34137
5.11332
4.90279
4.71642
4.55909
4.42459
4.28859
4.16673
5.40856
5.10766
4.85187
4.59831
4.34658
4.14253
3.99576
3.89987
3.8329
3.76039
3.67402
4.70543
4.30625
4.00383
3.71947
3.47431
3.32212
3.2616
3.26036
3.27591
3.27066
3.22759
3.84434
3.2972
2.97087
2.69565
2.5231
2.49675
2.57567
2.69107
2.7887
2.84071
2.83873
2.43041
2.06245
1.70637
1.54941
1.58337
1.77306
2.02076
2.2414
2.39598
2.47652
2.4726
3.07811
0.85086
0.825155
0.92397
1.16992
1.50152
1.797
2.0122
2.14897
2.21293
2.18414
-35.3721
-15.8339
-8.64867
-4.98127
-2.74709
-1.36494
-0.479962
0.0728559
0.433524
0.667684
0.893187
-50.8894
-32.9229
-24.2094
-16.8515
-10.7471
-6.70405
-4.23077
-2.70459
-1.7082
-1.01267
-0.455695
-43.7889
-38.7624
-34.1319
-27.0311
-19.4492
-13.3556
-9.03607
-6.12411
-4.21394
-2.89591
-1.91094
-35.4092
-36.1339
-35.1432
-31.0624
-25.1173
-18.9612
-13.7159
-9.73035
-6.89713
-4.91156
-3.43587
-30.7695
-32.3501
-32.4098
-30.6789
-27.077
-22.1707
-17.1341
-12.809
-9.39265
-6.85048
-4.96814
-28.7661
-29.7638
-29.8412
-29.0597
-26.9186
-23.3238
-19.0379
-14.9243
-11.3674
-8.49335
-6.29906
-27.4416
-28.1722
-28.1628
-27.6512
-26.1518
-23.3991
-19.8283
-16.12
-12.6888
-9.72059
-7.25812
-26.0026
-26.6766
-26.7195
-26.3903
-25.2417
-23.0062
-19.9647
-16.6459
-13.4291
-10.5347
-7.99549
-24.5869
-25.2104
-25.3063
-25.1224
-24.223
-22.3499
-19.7002
-16.7086
-13.7145
-10.9404
-8.38401
-23.2397
-23.8513
-23.9457
-23.836
-23.1134
-21.5059
-19.1547
-16.4325
-13.648
-11.029
-8.54515
-21.9822
-22.5774
-22.6598
-22.6017
-21.9818
-20.5513
-18.414
-15.8996
-13.2937
-10.8231
-8.48285
-20.8006
-21.3031
-21.4107
-21.3646
-20.805
-19.5008
-17.5197
-15.1622
-12.6995
-10.3492
-8.14481
-19.6451
-20.0401
-20.1711
-20.1062
-19.5842
-18.3677
-16.4964
-14.2518
-11.901
-9.65133
-7.53584
-18.49
-18.7937
-18.9137
-18.8315
-18.3345
-17.1692
-15.3645
-13.1927
-10.9263
-8.78008
-6.79156
-17.3443
-17.5493
-17.6353
-17.5305
-17.0312
-15.8999
-14.1204
-11.9893
-9.78416
-7.73243
-5.89875
-16.197
-16.3057
-16.3392
-16.1983
-15.6723
-14.5424
-12.7675
-10.6346
-8.47394
-6.51703
-4.85983
-15.0306
-15.0491
-15.0248
-14.8231
-14.2531
-13.0825
-11.2753
-9.12054
-6.99396
-5.14441
-3.6195
-13.8327
-13.762
-13.6738
-13.3943
-12.7457
-11.4969
-9.6118
-7.42785
-5.35167
-3.65268
-2.24093
-12.5927
-12.4175
-12.2516
-11.8885
-11.1057
-9.73761
-7.75248
-5.56117
-3.59719
-2.12293
-0.969488
-11.2865
-10.9853
-10.7246
-10.2476
-9.30582
-7.75488
-5.6975
-3.56732
-1.81272
-0.6158
0.279499
-9.7575
-9.41705
-9.07923
-8.44646
-7.28127
-5.55242
-3.49796
-1.51338
-0.0725846
0.766267
1.32482
-7.39725
-7.37962
-7.29844
-6.49099
-5.06835
-3.36348
-1.55461
0.101218
1.07652
1.54881
1.9263
-6.95336
-8.11356
-7.04069
-5.5136
-3.52387
-1.49066
0.134246
1.17864
1.67316
1.90994
2.04049
-12.1326
-5.13485
-2.78498
-1.39301
-0.0888848
0.868204
1.4614
1.78741
1.94597
2.01757
1.98046
-1.03869
3.29081
3.96018
3.79864
3.22866
2.59634
2.00803
1.49039
1.03714
0.664683
0.500861
-25.1407
-11.6568
-7.10718
-3.41218
-1.37538
-0.443241
-0.108629
-0.0579632
-0.136399
-0.265743
-0.308157
-29.6659
-20.677
-16.9411
-11.4304
-7.3941
-4.6715
-3.03375
-2.1126
-1.61675
-1.35008
-1.14866
-25.9982
-22.5972
-20.9119
-16.1972
-12.2479
-8.78421
-6.20166
-4.44666
-3.31625
-2.59211
-2.07751
-21.4612
-20.5784
-20.1805
-17.2827
-14.5265
-11.4102
-8.6882
-6.53123
-4.95448
-3.84611
-3.04141
-17.9582
-17.8113
-17.7896
-16.2196
-14.5968
-12.2859
-10.0046
-7.92443
-6.21727
-4.90403
-3.90247
-15.2253
-15.3279
-15.3548
-14.4765
-13.5388
-11.9526
-10.2562
-8.52074
-6.94212
-5.61264
-4.52379
-12.9287
-13.173
-13.195
-12.6902
-12.1261
-11.0446
-9.82891
-8.47704
-7.15009
-5.94536
-4.91014
-11.1319
-11.3172
-11.3301
-11.0479
-10.6963
-9.94985
-9.07713
-8.0435
-6.97096
-5.93529
-4.99704
-9.76974
-9.83446
-9.8202
-9.64363
-9.39826
-8.86437
-8.22179
-7.42561
-6.56473
-5.69259
-4.86386
-8.6346
-8.61876
-8.5959
-8.46642
-8.27314
-7.87071
-7.37661
-6.74883
-6.05093
-5.32162
-4.62635
-7.70211
-7.60236
-7.55753
-7.45933
-7.30202
-6.98567
-6.58763
-6.07598
-5.49697
-4.8743
-4.26349
-7.00453
-6.80934
-6.74463
-6.64389
-6.49338
-6.22146
-5.8771
-5.43883
-4.94188
-4.40224
-3.87273
-6.48287
-6.21767
-6.13409
-6.01518
-5.84602
-5.58208
-5.25452
-4.8529
-4.40676
-3.92939
-3.46251
-6.04986
-5.73131
-5.62595
-5.48072
-5.29389
-5.02781
-4.70006
-4.31209
-3.89371
-3.46016
-3.03602
-5.6779
-5.32556
-5.19509
-5.02031
-4.81122
-4.53265
-4.19217
-3.80168
-3.39556
-2.99584
-2.62576
-5.35063
-4.97441
-4.82153
-4.61943
-4.38317
-4.08149
-3.715
-3.30741
-2.90275
-2.53053
-2.20475
-5.03176
-4.64587
-4.46861
-4.24045
-3.97609
-3.64519
-3.24293
-2.80947
-2.40289
-2.05944
-1.78046
-4.70936
-4.32213
-4.12587
-3.87654
-3.579
-3.20502
-2.75237
-2.28981
-1.88809
-1.58439
-1.37345
-4.38995
-4.00737
-3.79813
-3.52618
-3.17869
-2.73407
-2.22125
-1.7363
-1.36014
-1.11167
-0.962216
-4.06022
-3.70102
-3.47911
-3.16585
-2.73467
-2.19313
-1.62727
-1.15446
-0.83961
-0.658082
-0.554532
-3.64899
-3.39212
-3.12974
-2.72412
-2.1692
-1.54171
-0.981738
-0.595499
-0.378927
-0.281014
-0.216264
-3.5223
-3.20085
-2.75992
-2.16246
-1.48787
-0.863517
-0.410648
-0.168954
-0.0441637
0.0482575
0.282347
-2.8816
-1.98236
-1.4015
-0.842803
-0.386065
-0.0963041
0.00215288
-0.0116287
-0.0408531
-0.0451267
0.0746912
22.8009
16.1716
11.6405
8.56233
6.3724
4.81408
3.65583
2.75162
2.02056
1.44892
1.09385
17.2853
17.3657
15.1383
12.2033
9.43385
7.17123
5.40911
4.04176
2.97514
2.17477
1.67393
10.6206
12.9925
12.9602
12.2282
10.4943
8.42993
6.51272
4.90359
3.62779
2.6784
2.07202
4.79376
8.23778
9.20159
9.825
9.39098
8.21879
6.77425
5.33945
4.06212
3.05011
2.4005
0.773055
3.95347
5.08457
6.56806
7.13968
6.95689
6.21835
5.20976
4.11937
3.17034
2.51711
-1.76926
0.829619
1.7071
3.43757
4.42908
4.95692
4.86604
4.36897
3.67617
2.94976
2.38658
-3.33075
-1.21751
-0.678405
1.02045
1.9984
2.88871
3.25476
3.22516
2.89763
2.4388
2.0465
-4.23498
-2.49641
-2.2981
-0.637017
0.100506
1.09842
1.6957
1.98414
1.9745
1.77998
1.56981
-4.91785
-3.35216
-3.41107
-1.89888
-1.23194
-0.297303
0.367131
0.830506
1.04579
1.07076
1.01594
-5.48324
-4.18061
-3.98847
-2.90483
-2.23451
-1.36547
-0.694988
-0.147795
0.20733
0.396498
0.491971
-5.89208
-4.9126
-4.51919
-3.61079
-2.98147
-2.17477
-1.51763
-0.933582
-0.497628
-0.202733
0.00773773
-6.12325
-5.30755
-4.92811
-4.11232
-3.5227
-2.77082
-2.13511
-1.53856
-1.05712
-0.694466
-0.419226
-6.31004
-5.54504
-5.19645
-4.44697
-3.89299
-3.18525
-2.57323
-1.97805
-1.47468
-1.069
-0.75562
-6.48554
-5.70307
-5.35953
-4.64805
-4.11882
-3.44472
-2.85406
-2.26751
-1.75822
-1.33125
-0.98874
-6.44087
-5.71733
-5.40829
-4.73225
-4.22161
-3.57434
-2.99983
-2.42478
-1.91879
-1.48619
-1.13938
-6.33831
-5.65174
-5.36313
-4.71708
-4.21606
-3.59142
-3.02701
-2.4649
-1.96805
-1.54159
-1.19985
-6.21934
-5.53738
-5.24477
-4.61795
-4.11327
-3.50503
-2.94548
-2.39767
-1.91574
-1.50654
-1.18336
-6.01284
-5.34284
-5.04318
-4.43345
-3.91521
-3.31732
-2.76027
-2.23007
-1.77106
-1.39064
-1.08848
-5.72188
-5.0653
-4.752
-4.15616
-3.61698
-3.02511
-2.47355
-1.96891
-1.54488
-1.20676
-0.942623
-5.36482
-4.71097
-4.36754
-3.77648
-3.21025
-2.62387
-2.08896
-1.62478
-1.25223
-0.971327
-0.763334
-4.92591
-4.2614
-3.86904
-3.27401
-2.68395
-2.114
-1.61901
-1.21694
-0.913851
-0.695228
-0.546751
-4.35959
-3.67122
-3.20838
-2.61266
-2.02645
-1.50541
-1.0865
-0.771282
-0.541619
-0.389384
-0.305292
-3.74221
-2.91537
-2.39051
-1.8475
-1.32714
-0.901021
-0.587253
-0.359064
-0.199293
-0.115375
-0.11436
-2.21394
-1.5389
-1.13711
-0.779007
-0.457707
-0.22587
-0.0517846
0.113988
0.269072
0.36563
0.27318
-0.988049
-0.972169
-1.11955
-1.56818
-2.2271
-2.27484
-1.6849
-0.647342
0.174937
-0.989041
-0.984527
-1.10682
-1.3139
-1.75416
-1.75245
-1.28816
-0.558559
0.0697912
-0.973221
-0.969843
-1.06847
-1.26497
-1.64477
-1.65791
-1.24236
-0.562248
-0.0429396
-0.935675
-0.941816
-1.01683
-1.17777
-1.45689
-1.42699
-1.1041
-0.567457
-0.140785
-1.03897
-1.24752
-1.73525
-2.09626
-1.82554
-0.91395
0.119668
0.721744
0.674186
-1.02332
-1.12509
-1.40536
-1.62601
-1.36224
-0.740307
0.0587171
0.53117
0.488348
-0.989402
-1.08181
-1.3311
-1.5167
-1.34547
-0.700858
-0.0238294
0.355791
0.316888
-0.93116
-1.01707
-1.21351
-1.33209
-1.10889
-0.64264
-0.106123
0.188106
0.177097
1.81511
2.33582
2.34457
-0.779949
-0.843662
2.56532
-0.884021
2.13233
2.56515
1.85359
-0.858879
2.13649
-0.699432
-0.265112
1.80596
1.23115
-0.154818
-0.80128
1.23265
1.83312
0.791074
-0.953649
1.62957
-0.227175
2.35111
-0.266278
-0.694545
-0.886694
-1.70837
-0.627949
-0.155415
0.319727
-0.0900464
1.49462
0.241083
2.36082
-0.227492
2.36558
-0.0882236
2.20454
-1.67691
1.50591
-0.171289
1.64177
-0.913407
-0.888042
-0.716329
-0.833192
0.799331
2.29918
-0.616571
2.20846
-0.000109243
-0.195384
2.2601
0.803364
-0.960581
2.15214
-1.73991
-0.206804
-1.31969
0.00321747
-0.874692
-0.82038
-1.43835
1.8318
-0.288759
2.71741
2.35714
1.86372
-0.299723
2.71995
-0.85148
3.53081
-0.410172
2.75014
-0.992245
1.54663
-0.87001
-0.882753
-0.298286
-0.815172
1.92089
1.94622
-0.642033
-0.862963
-1.53018
0.0155245
-0.823587
-0.193681
2.41234
2.13069
-1.50848
3.75048
-0.962776
-0.853584
-0.438798
-0.636397
-0.790203
2.8714
-0.548783
-0.855032
1.69147
-0.254853
-0.746918
2.41362
-0.024301
1.92288
-0.0866516
0.178671
1.68366
1.49697
3.09487
-0.743635
-0.801422
1.88931
2.14983
1.42371
2.22618
1.50266
-0.736481
3.21805
-0.418117
-0.181654
-0.922601
-0.678975
-0.099819
-0.0249669
-0.0139786
-0.0660669
1.8823
-0.223628
-0.840551
2.71406
2.38521
-0.750394
-0.953123
-0.795238
-0.636842
0.927002
-0.107252
0.612096
-0.904114
1.01838
2.11484
-0.755801
-0.820074
2.64565
2.10133
1.48749
1.74157
2.54322
-0.746489
3.31277
-0.754348
-0.258308
-0.951114
-0.862703
-0.180214
2.05059
-0.558637
-0.745564
2.75541
2.09667
-0.275085
-0.200102
-0.839915
0.560196
-0.690869
-1.4026
-0.0897957
-0.0597765
-0.704653
0.548506
0.384281
0.397354
-0.0105504
-0.729205
-0.956426
0.489411
2.50594
-0.971067
2.3652
-0.74677
2.40609
-0.730127
1.75789
1.38162
2.19979
-0.869649
-0.101022
-0.437203
1.73485
-1.61073
2.36173
2.23396
2.73319
-0.788309
-0.0687282
1.89733
-0.749925
2.5172
-0.172258
-0.203567
2.37882
0.0223251
3.72661
-0.0110583
2.41374
1.79228
-0.217437
1.36071
0.391287
0.413759
1.55926
-0.105731
2.44604
-0.820565
1.91944
-0.708746
-0.0194341
-0.753417
-0.448891
-0.838489
-0.154143
2.04217
-0.713123
-0.17739
-0.0832525
-0.874636
-0.840555
1.70172
1.7678
2.97132
-0.730001
-0.961233
-0.166137
2.36436
1.90773
1.92088
-0.789705
-0.551436
-0.302672
-1.48014
4.03443
-0.77495
1.47401
-0.266479
-0.860653
-0.257368
-0.255877
-0.218627
-0.0812954
2.06462
-0.304732
2.69036
0.914414
2.37642
-0.742828
1.72966
-0.00963921
-0.78209
1.76247
1.59869
1.66367
-0.777129
0.559957
3.02482
-0.47418
-0.449497
-0.778551
1.87594
2.60367
-0.711298
2.58838
1.42097
-0.219422
2.5343
0.996259
-0.748928
2.76709
2.24368
-0.290534
-0.165155
-0.243194
2.45729
-1.22828
1.99514
0.833533
-0.0707572
1.84422
-0.885548
0.322157
-0.285835
2.34217
2.38236
-0.68032
1.66436
0.342449
-0.249916
2.37332
-0.727547
0.635045
-0.642845
0.961539
0.12448
1.5845
-0.0422035
-0.967156
1.76117
-0.91004
2.40619
0.0672485
-0.0662651
-1.02945
1.10489
-0.670099
-0.798206
1.41413
3.99807
1.65188
-0.189438
1.37464
-0.414883
-0.841057
0.64582
1.48713
-0.641496
1.67728
-0.206698
2.38417
-0.870059
-0.963524
2.34063
-0.689045
-0.876715
-0.947224
1.5987
2.49752
-0.622572
-0.85825
-0.190803
2.56167
-0.23032
-0.778093
-0.0588216
-0.515501
1.44278
-0.278168
-0.139693
-0.899976
-0.616553
-0.421716
1.01931
-0.119774
1.89538
-0.0181456
0.840337
1.61108
-0.22397
-0.426209
-0.321586
2.43586
1.91601
2.83142
-0.832015
-0.0582534
-0.204962
-0.888351
-0.207295
2.53284
-0.767658
-0.879631
-0.119626
-0.220196
1.82669
-0.234374
0.210561
2.47808
1.49563
-0.202492
2.27961
-0.736208
1.993
-0.430556
-0.138737
-0.722466
-0.151849
-0.551516
-0.849979
2.52017
-0.911133
-0.0590358
2.20607
-0.126968
-1.48996
1.56652
1.56993
2.22431
-0.587283
-0.749564
1.88198
2.33603
-0.0378985
-0.0071631
-2.05448
-0.874564
-0.117885
2.47009
-0.175496
0.785552
1.20807
-0.17164
-0.164495
-0.815792
-0.013605
-0.108194
3.36996
-0.0412226
-0.894725
-0.762048
-0.0485458
-0.879664
-0.0384766
0.34247
0.251076
3.44896
-0.0361495
-0.787165
-1.23613
1.45431
-0.776033
-0.480941
1.31611
-0.71598
-0.0281348
-0.488439
-0.641585
-0.187503
1.42659
-0.454464
-1.44658
-0.65846
-0.722365
1.07412
-0.0475885
-0.0907436
-0.906648
2.1665
-0.77081
2.4987
1.94712
2.46305
-0.878081
-0.84457
-0.888245
-0.0965947
-0.804629
-0.0122815
2.10372
2.19605
-0.119064
-0.135596
-0.336043
0.933365
-0.0190218
-0.018562
1.88295
1.37791
2.42568
0.359585
-0.70515
1.37887
-1.37435
0.967349
1.85366
1.84775
1.80395
-0.764772
1.73598
2.00786
0.838392
-0.842626
-0.961951
1.60386
-0.781573
-0.862309
1.08447
-0.0482879
1.93651
-0.77629
2.26746
1.03574
2.02046
-0.0107671
-0.182219
1.75177
-0.47087
0.290047
2.9769
-0.63254
-0.637518
2.35941
1.98697
-0.857644
0.00659821
-0.736473
2.2608
-0.856624
1.42124
-0.267365
-0.173653
-0.856403
-0.199795
-0.573326
-0.148629
-0.569816
-0.460517
1.44267
-0.524546
1.35879
2.25388
2.53616
1.83628
0.787139
-0.22603
2.13873
1.95972
-0.487148
2.39203
-1.00759
-0.541467
-0.0305787
-0.300822
-0.838709
2.27331
2.4557
2.23379
-1.533
-0.762432
1.47084
2.12532
-0.173821
2.33947
-0.684777
2.3443
-0.168955
0.981522
-0.915619
-0.14238
-0.0480313
-0.843687
-0.253302
0.9794
0.511304
2.04001
1.78998
-0.026173
-0.897479
1.62785
-0.165892
-0.835232
-0.813105
2.39052
2.92272
2.38712
-0.111951
-0.148551
-0.0408121
2.38772
1.94246
-0.167129
3.34328
-0.363627
-0.0365213
-0.10203
-0.821099
1.6658
-0.0348079
2.46059
-0.556732
2.88447
-0.417694
-0.0142642
0.475006
-1.03742
-0.206769
2.11467
1.53833
-0.977536
2.07099
-0.519911
-0.691482
-0.572898
-0.145114
-0.835341
-0.671174
2.01243
2.22318
2.40764
-0.86679
-0.761622
-0.233566
1.7956
2.39121
-0.871576
1.68248
4.14539
0.81102
2.40772
-0.509615
-0.574574
-0.532543
-0.457018
-0.139725
-0.0471604
2.02939
-0.277099
2.62401
2.36077
-0.868976
-0.183723
1.34176
2.18501
-0.93191
1.64232
2.13975
-0.309802
2.38315
0.574775
-0.698857
-0.261999
-0.359624
-0.044275
-0.0515929
-0.871749
-0.145118
-1.14412
-0.3796
-0.574283
-0.839708
-0.942922
-0.226259
1.42854
1.06416
-0.837978
-0.090017
1.34522
0.157577
-0.498533
-0.138652
-0.862948
-0.586822
-0.655197
1.51392
-0.252558
2.3147
1.55723
1.31854
-0.697483
2.26875
2.12012
1.26032
1.77578
-0.651619
-0.0716699
-0.878798
2.57798
1.73356
0.859905
0.0306681
3.8833
-0.895977
2.99584
-0.447581
-0.0580538
1.60473
-0.00483019
2.11072
-0.100926
-0.697175
-0.498423
-0.877133
-0.551188
-0.572291
1.9209
-0.0256381
-0.143637
-0.884287
-0.141296
1.4179
0.0457642
1.93898
-0.444758
1.31
-0.740687
2.39106
2.31492
2.43511
-0.692372
-0.450526
2.31973
-0.0149894
2.69592
-0.164712
-0.188305
0.468752
-0.693957
-1.33312
-0.209144
-0.329811
-0.567699
-0.680002
-0.288382
-0.0708597
-0.883604
1.43871
-0.525317
1.84617
2.22574
-0.918941
-0.811075
-0.786509
-0.242899
3.26409
0.561729
1.46228
-0.819533
2.11854
0.00587664
-0.0463409
-0.158696
0.369232
-0.287306
-0.115864
-0.148673
2.66012
-0.688127
-0.693245
-0.776738
1.71328
-0.340154
-0.822923
2.39535
-0.964515
-0.0513921
4.17787
-0.469351
1.94523
1.19603
1.28462
-0.0689008
2.7101
-0.132102
2.40331
-0.114151
2.35747
-0.290642
-0.000219311
-0.183395
-0.0585668
1.35242
-0.498998
-0.861309
2.00925
-0.12548
-0.206996
-0.0809617
-0.168782
-0.865064
0.51111
-0.813136
-0.162276
-0.144777
1.50709
-0.663995
1.50587
-0.500028
-0.966935
2.33453
2.21983
-0.466001
-0.86439
-0.20737
-0.669196
2.10143
-0.539047
0.144327
1.47429
2.20858
2.36846
1.83842
3.89265
-0.0270038
-0.908341
-0.74999
-0.0689702
-0.73399
2.37537
1.96971
-0.368802
-0.16836
2.3819
-0.564296
-0.407136
-0.863009
-0.211289
-1.12893
0.18696
-0.809397
2.35682
1.87754
-0.943701
1.60565
2.12587
0.095353
-0.0325305
-0.501823
-0.437581
2.3854
-0.568018
-1.34953
-0.87382
2.08481
-0.0377807
-0.0324698
-0.483454
-0.881252
2.01647
1.48307
-0.766815
-0.574482
-0.0943985
1.94119
1.27992
4.19868
2.92107
2.04781
-0.254735
-0.402268
-0.989762
-0.872849
-0.0406012
2.34083
-0.802724
2.11248
2.9392
-0.452709
1.95819
2.59453
2.1969
-0.790582
-0.0429291
-0.286391
2.59323
-0.781242
2.47565
2.36745
2.93928
2.22121
0.162725
1.61802
2.40901
3.37281
-0.926496
1.5056
1.9245
-0.796955
-0.905726
2.11971
2.45145
-0.796763
-0.914768
1.7501
-0.715039
-0.489542
-0.86498
1.78344
2.33458
0.630705
0.942587
-0.00695087
1.97779
-0.475594
-0.309892
-0.14816
-0.185343
1.65783
-0.331955
1.72152
1.61905
2.84829
2.2127
1.55962
-0.634623
-0.984835
-0.415616
-0.288994
-0.112401
-0.125745
-0.128266
-0.874885
1.54018
1.67964
-0.0291769
-0.0226374
-0.3705
2.29811
-0.815633
3.08943
-0.701059
2.2586
-0.033665
-0.0896369
-0.739783
-0.24974
1.80782
2.34434
-0.187744
-0.92504
-0.0322997
-0.685905
-0.530589
0.301331
1.0262
-0.168526
2.68337
2.38996
-0.512789
-1.18032
-0.756966
-0.892126
-0.0398874
-0.31254
-0.116452
-0.728768
1.97575
0.297061
-0.112032
2.0503
-0.0893075
2.47442
-0.217002
-0.23408
-0.121343
2.07519
-0.271675
2.3072
2.18155
-0.117871
-0.732622
1.66247
2.51381
3.33824
-0.766418
-0.737348
-0.891811
-0.195388
1.82096
-1.89936
-0.804651
-0.912249
1.97386
-0.111488
-0.114232
2.30817
-0.0439063
0.809296
-0.316954
-0.208858
-0.140743
-0.70335
1.04628
2.73234
-0.797598
-0.179035
1.72385
-0.120558
2.40336
-0.931536
-0.0239889
-0.802542
2.34509
-0.047049
-0.69108
-0.630214
-0.0548705
-0.0961395
1.91039
-0.016286
-0.861433
1.5663
0.34135
-0.279196
-0.876144
-0.152514
-0.367647
2.23767
2.20573
-0.828084
1.08972
-1.47808
-0.202919
-0.0180409
-0.162745
2.05489
-0.77116
-0.774947
-0.0648275
-0.211073
-0.0500736
2.38048
-0.535988
-0.0462823
2.08261
1.12307
2.36958
-0.456828
0.411826
2.29874
-0.625447
0.00951823
-0.13586
1.69514
-0.900511
-0.754274
0.681704
-0.505805
1.46045
1.80324
0.870075
-0.878997
1.87251
-0.0538302
-0.13533
-0.781679
1.61418
0.972981
1.93558
1.96083
-0.745975
-0.332124
-0.0421707
-0.892579
-1.14201
-0.765945
1.82552
0.0487947
-0.729478
2.02447
-0.13492
-0.0384375
0.546584
-1.52269
-0.65336
-0.260064
1.2068
-0.135069
1.98183
-0.179383
1.72834
-0.852675
-0.667897
3.26415
-0.898621
-0.222376
0.768283
-0.37741
-0.0367339
-1.20033
-0.198146
0.233163
-0.909471
-0.0560296
-0.737495
-0.866396
-0.253558
2.37292
-0.551614
3.70111
-0.447148
-0.319294
-0.731702
0.117922
-0.605399
-0.885325
2.03958
2.56885
0.639064
1.72376
-0.247871
-0.426626
2.22404
-0.296303
-0.619731
2.11692
-0.807899
-0.892926
-0.736526
-1.70726
-0.982407
-0.71847
-0.0614918
-0.120346
2.07674
2.17225
-0.178644
2.20204
2.3876
-0.426185
1.91292
3.93766
-0.243347
2.76588
-0.881526
-0.12685
-0.95775
2.07496
-0.561567
-0.136951
-0.32662
-0.86734
1.96855
-0.221695
-0.651695
-0.197428
0.00038769
1.24339
-0.0914254
1.62385
-0.686937
-0.129178
0.959458
2.12863
-0.755986
-0.276432
-0.57961
-0.765148
-0.187165
2.29425
2.36784
2.20876
-0.524879
-0.0260654
-0.137356
-0.824668
-1.08693
1.79396
0.166148
1.69971
2.3869
-0.754609
1.9026
1.744
-1.56263
-1.15008
-0.858596
-0.889771
1.71019
1.38563
-0.0609464
-0.824949
-0.212374
-0.885978
-0.312986
2.39277
1.93368
-0.353975
-0.176538
-0.0718078
-0.385195
2.76338
-0.324585
-0.104853
-0.934863
1.01828
-0.398886
-0.924243
0.788741
-0.600233
1.57994
1.54465
-0.850818
-0.175424
-0.381567
0.840049
0.815172
-0.514418
-0.625067
-0.692942
-0.486891
-0.765662
-0.905402
2.17773
-0.875501
-0.733927
2.15961
-0.017147
-0.198002
1.24551
-0.241436
2.08254
2.5268
2.29629
-1.43337
-0.00885991
1.39665
-0.592711
2.08616
1.58441
1.89154
-0.205555
1.43995
-0.195262
-0.807206
2.15944
-0.838407
-0.89261
-0.208997
-0.758757
-0.709038
-0.567625
-0.0148765
2.15672
1.61785
2.48351
-0.190327
1.90375
1.67001
-0.716982
-0.961644
-0.367092
-0.1552
0.00265003
0.681468
-0.745084
-0.798976
1.41953
-0.561858
1.32173
-0.0480295
1.4425
-0.152205
0.800966
1.69929
2.32102
-0.737163
-0.0692291
1.19523
-0.205327
1.38674
-0.0344241
-0.149985
-0.73144
-0.459843
2.09117
1.78721
-0.0926426
-1.74838
-0.138623
-0.0347111
-0.723436
-0.0991323
2.11846
-1.00628
-0.0709357
1.56398
-0.88965
-0.894083
-0.595523
-0.762899
-0.71979
-0.0108915
-0.879137
-1.22391
1.42907
2.49793
-0.0775469
-0.313979
-0.235673
1.55273
-0.679408
2.35682
2.93169
-1.02579
1.9286
2.07786
-0.886592
-0.725105
2.57382
1.86309
2.50318
0.824392
1.72201
3.36004
-0.703632
-0.298884
1.36017
2.4183
-0.809717
1.80244
-0.122444
2.55081
1.18223
2.10059
-0.563373
-0.878753
-0.202501
1.90983
1.60665
-0.279382
-0.0856071
2.07349
-0.737499
-0.294661
2.83422
-0.640429
-0.257642
-0.77411
-0.493219
-0.592165
2.0572
-0.688388
2.43373
0.850869
4.72352
-0.0317019
2.19835
-0.232434
3.90543
-0.80156
2.46955
2.18124
-0.851404
1.64342
2.28112
-0.746083
-0.212825
-0.777049
2.35791
0.886475
2.44135
-0.164134
-0.0881583
-0.611916
0.248401
-0.656059
-0.82629
1.72943
1.36528
1.84684
0.678965
-0.847794
4.34192
-0.679969
3.44695
-0.920296
-0.0755227
-0.350158
-0.288418
0.927795
-0.215857
2.36148
-0.495375
-0.815753
2.07012
2.16296
-0.213947
0.564693
1.15081
1.84887
-0.60329
2.39996
-0.73088
-0.793888
-0.223506
-0.189613
1.39691
-0.681014
0.8651
-0.796609
-0.53032
-0.135758
-0.210278
1.87178
1.6331
1.80702
1.29781
-0.332441
0.66199
3.2557
-0.0944549
-0.710985
1.83231
0.716632
-0.88985
-0.328854
1.96289
-0.656759
2.01804
1.87371
-0.24799
2.23272
-0.181878
-0.196142
0.918137
2.41141
-0.427328
-0.71166
1.81823
-0.0620831
2.49311
2.95185
-0.336772
0.948759
-0.368749
2.11876
3.80893
-0.872857
0.123166
1.80086
-1.59854
0.921141
2.07278
1.64369
1.85638
0.166353
-0.296356
-0.696279
-0.488744
-0.809548
2.02139
2.47236
-0.732202
-0.0129022
1.01381
0.406346
-0.58512
2.78729
-0.110724
2.07617
-0.274964
2.65891
1.84221
-0.0592181
-0.593579
-0.222991
2.40313
2.00601
1.53807
1.82306
1.9871
-0.617265
-0.479895
-0.684125
-0.703966
-0.231056
0.495139
1.83777
1.92847
-0.905633
1.4254
-0.155845
-0.88455
0.656711
-0.241052
-0.580108
1.15849
1.92274
-0.291714
-0.59929
-0.305338
1.01387
-0.278198
-0.09794
-0.712995
-0.0452444
-0.274535
1.69651
-0.221495
-1.02869
-1.01739
-0.492597
-0.706325
-0.0448565
2.20505
1.73683
-0.686356
2.41893
-0.248393
-0.19437
-0.0347806
-0.511689
-0.223757
-0.725687
-1.05672
-0.180886
2.4655
-0.14075
-0.208539
-0.502194
-0.57064
-0.730822
2.11355
-0.853403
2.47143
-0.0633241
-0.874455
-0.479366
-1.02265
-0.810069
-0.219496
2.87398
4.03264
1.73287
2.28917
2.35792
0.163867
1.95187
-0.813923
4.25314
-0.217133
-0.769414
1.34016
1.96476
-0.749281
-0.930218
2.41533
0.246572
1.61816
3.51749
-0.34785
-0.832549
2.22183
1.26056
1.16733
1.45787
4.29288
2.41913
-0.468139
-0.717385
2.39201
-0.532093
2.3741
1.36868
0.715979
2.49584
-0.556149
1.78513
1.99111
1.02269
1.84941
-0.062939
2.12311
-0.0360416
-0.696992
-0.891954
-0.186139
-0.184481
-0.0426178
-0.084223
-0.202349
-0.188433
-0.0794579
1.50521
-0.320744
0.552414
2.28412
2.46657
-1.12086
-0.121657
-0.0513979
1.952
-0.759941
3.83282
-0.147817
-0.162716
1.44855
-0.235892
2.30016
-0.0565614
2.18781
-0.880815
2.28535
1.90902
-0.305553
-0.0428821
-0.411201
-0.782808
-0.232647
-0.761526
-0.0619397
-0.512534
2.06067
-0.731755
-0.0308517
-0.208145
-0.203049