/*--------------------------------*- C++ -*----------------------------------*\
| =========                 |                                                 |
| \\      /  F ield         | OpenFOAM: The Open Source CFD Toolbox           |
|  \\    /   O peration     | Version:  3.0.1                                 |
|   \\  /    A nd           | Web:      www.OpenFOAM.org                      |
|    \\/     M anipulation  |                                                 |
\*---------------------------------------------------------------------------*/
FoamFile
{
    version     2.0;
    format      ascii;
    class       surfaceScalarField;
    location    "0.886377";
    object      phi;
}
// * * * * * * * * * * * * * * * * * * * * * * * * * * * * * * * * * * * * * //

dimensions      [0 3 -1 0 0 0 0];

internalField   nonuniform List<scalar> 
32369
(
-1.77823e-06
-9.04909e-07
2.68314e-06
-3.03534e-06
-1.37364e-06
2.63075e-06
-4.26052e-06
-1.81243e-06
3.03761e-06
-5.65099e-06
-2.32766e-06
3.71813e-06
-7.2625e-06
-2.82995e-06
4.44146e-06
-9.12951e-06
-3.23016e-06
5.09717e-06
-1.1308e-05
-3.4209e-06
5.59939e-06
-1.38798e-05
-3.2578e-06
5.82961e-06
-1.69504e-05
-2.52898e-06
5.5996e-06
-2.06493e-05
-9.02966e-07
4.60182e-06
2.08737e-06
2.39457e-06
-2.51312e-05
-1.62366e-06
7.18749e-07
-3.06817e-06
7.08762e-08
-4.4858e-06
-3.94803e-07
-5.95688e-06
-8.56574e-07
-7.56158e-06
-1.22525e-06
-9.37942e-06
-1.41233e-06
-1.14995e-05
-1.30079e-06
-1.403e-05
-7.27286e-07
-1.70971e-05
5.38056e-07
-2.08508e-05
2.85072e-06
6.7053e-06
-2.54687e-05
-8.32488e-07
1.55124e-06
-1.88169e-06
1.12008e-06
-3.20349e-06
9.26987e-07
-4.7229e-06
6.62836e-07
-6.41965e-06
4.715e-07
-8.32506e-06
4.93088e-07
-1.05148e-05
8.88968e-07
-1.30949e-05
1.85279e-06
-1.62075e-05
3.65065e-06
-2.00013e-05
6.64448e-06
1.13641e-05
-2.466e-05
-4.30409e-07
1.98165e-06
-1.13736e-06
1.82704e-06
-2.16939e-06
1.95902e-06
-3.4965e-06
1.98994e-06
-5.10512e-06
2.08013e-06
-6.99817e-06
2.38614e-06
-9.21446e-06
3.10526e-06
-1.18295e-05
4.46784e-06
-1.49415e-05
6.76261e-06
-1.86758e-05
1.03788e-05
1.5846e-05
-2.31577e-05
-3.41214e-07
2.32286e-06
-9.01309e-07
2.38713e-06
-1.71267e-06
2.77038e-06
-2.80425e-06
3.08152e-06
-4.21609e-06
3.49196e-06
-5.97043e-06
4.14048e-06
-8.09404e-06
5.22886e-06
-1.06319e-05
7.0057e-06
-1.36543e-05
9.78504e-06
-1.72516e-05
1.3976e-05
2.01641e-05
-2.15697e-05
-2.94031e-07
2.61689e-06
-7.6919e-07
2.86229e-06
-1.45706e-06
3.45825e-06
-2.37685e-06
4.0013e-06
-3.5981e-06
4.71322e-06
-5.1699e-06
5.71228e-06
-7.13068e-06
7.18964e-06
-9.5219e-06
9.39693e-06
-1.23994e-05
1.26626e-05
-1.58396e-05
1.74162e-05
2.42927e-05
-1.99682e-05
-2.21271e-07
2.83816e-06
-7.09258e-07
3.35028e-06
-1.30424e-06
4.05323e-06
-2.10191e-06
4.79897e-06
-3.17467e-06
5.78598e-06
-4.57727e-06
7.11488e-06
-6.36169e-06
8.97406e-06
-8.57863e-06
1.16139e-05
-1.12855e-05
1.53694e-05
-1.45514e-05
2.06822e-05
2.81814e-05
-1.84401e-05
-2.89791e-07
3.12795e-06
-6.9353e-07
3.75402e-06
-1.21322e-06
4.57293e-06
-1.94341e-06
5.52916e-06
-2.91213e-06
6.75471e-06
-4.17865e-06
8.3814e-06
-5.80389e-06
1.05993e-05
-7.84604e-06
1.3656e-05
-1.03672e-05
1.78905e-05
-1.34338e-05
2.37488e-05
3.18698e-05
-1.71222e-05
-2.71492e-07
3.39944e-06
-6.60157e-07
4.14268e-06
-1.16805e-06
5.08082e-06
-1.83558e-06
6.19669e-06
-2.7178e-06
7.63693e-06
-3.87555e-06
9.53915e-06
-5.36951e-06
1.20933e-05
-7.26441e-06
1.55509e-05
-9.62365e-06
2.02498e-05
-1.25171e-05
2.66423e-05
3.54499e-05
-1.60972e-05
-2.22506e-07
3.62195e-06
-5.74313e-07
4.49449e-06
-1.04008e-06
5.54659e-06
-1.66225e-06
6.81886e-06
-2.48242e-06
8.45709e-06
-3.55612e-06
1.06129e-05
-4.94564e-06
1.34828e-05
-6.71482e-06
1.73201e-05
-8.94163e-06
2.24766e-05
-1.17267e-05
2.94274e-05
3.88718e-05
-1.51486e-05
-1.81398e-07
3.80335e-06
-4.99091e-07
4.81218e-06
-9.27118e-07
5.97462e-06
-1.50148e-06
7.39322e-06
-2.264e-06
9.21961e-06
-3.26555e-06
1.16144e-05
-4.56415e-06
1.47814e-05
-6.22803e-06
1.8984e-05
-8.33706e-06
2.45856e-05
-1.09906e-05
3.20809e-05
4.21267e-05
-1.42454e-05
-1.84254e-07
3.9876e-06
-4.88629e-07
5.11655e-06
-8.88108e-07
6.3741e-06
-1.42186e-06
7.92697e-06
-2.12822e-06
9.92597e-06
-3.05757e-06
1.25438e-05
-4.26719e-06
1.5991e-05
-5.82329e-06
2.05401e-05
-7.80906e-06
2.65714e-05
-1.03231e-05
3.45949e-05
4.52943e-05
-1.34907e-05
-1.69651e-07
4.15725e-06
-4.47947e-07
5.39485e-06
-8.13752e-07
6.7399e-06
-1.30281e-06
8.41603e-06
-1.95331e-06
1.05765e-05
-2.8117e-06
1.34021e-05
-3.93562e-06
1.71149e-05
-5.3934e-06
2.19978e-05
-7.25746e-06
2.84354e-05
-9.63407e-06
3.69715e-05
4.83319e-05
-1.26717e-05
-1.07137e-07
4.26439e-06
-3.35627e-07
5.62334e-06
-6.51703e-07
7.05598e-06
-1.0863e-06
8.85062e-06
-1.6737e-06
1.11639e-05
-2.45645e-06
1.41849e-05
-3.48679e-06
1.81453e-05
-4.83162e-06
2.33427e-05
-6.56746e-06
3.01713e-05
-8.78582e-06
3.91898e-05
5.11518e-05
-1.16056e-05
-9.80664e-08
4.36246e-06
-2.93246e-07
5.81852e-06
-5.58905e-07
7.32164e-06
-9.31811e-07
9.22353e-06
-1.44032e-06
1.16724e-05
-2.12578e-06
1.48704e-05
-3.04145e-06
1.90609e-05
-4.24307e-06
2.45443e-05
-5.80064e-06
3.17289e-05
-7.81512e-06
4.12043e-05
5.37171e-05
-1.03805e-05
-7.11239e-08
4.43358e-06
-2.18129e-07
5.96553e-06
-4.21493e-07
7.525e-06
-7.1261e-07
9.51465e-06
-1.12474e-06
1.20845e-05
-1.69347e-06
1.54391e-05
-2.46452e-06
1.9832e-05
-3.49101e-06
2.55708e-05
-4.83367e-06
3.30715e-05
-6.54343e-06
4.29141e-05
5.58864e-05
-8.71266e-06
4.03547e-09
4.42955e-06
-5.9527e-08
6.02909e-06
-1.71445e-07
7.63692e-06
-3.58986e-07
9.70219e-06
-6.44724e-07
1.23702e-05
-1.06653e-06
1.58609e-05
-1.66156e-06
2.0427e-05
-2.46869e-06
2.63779e-05
-3.52086e-06
3.41237e-05
-4.86288e-06
4.42561e-05
5.75845e-05
-6.56099e-06
5.90898e-08
4.37046e-06
8.4394e-08
6.00378e-06
8.3247e-08
7.63807e-06
3.05433e-08
9.75489e-06
-9.58015e-08
1.24966e-05
-3.25851e-07
1.60909e-05
-6.87083e-07
2.07882e-05
-1.20137e-06
2.68922e-05
-1.87802e-06
3.48003e-05
-2.72877e-06
4.51068e-05
5.86043e-05
-3.74862e-06
1.29909e-07
4.24055e-06
2.69644e-07
5.86405e-06
4.09086e-07
7.49863e-06
5.27244e-07
9.63673e-06
6.06638e-07
1.24172e-05
6.24477e-07
1.60731e-05
5.66279e-07
2.08464e-05
4.36273e-07
2.70222e-05
2.66887e-07
3.49697e-05
1.02813e-07
4.52709e-05
5.87594e-05
-5.22199e-08
2.23207e-07
4.01734e-06
5.10444e-07
5.57681e-06
8.26133e-07
7.18294e-06
1.16122e-06
9.30165e-06
1.49783e-06
1.20806e-05
1.82351e-06
1.57474e-05
2.14762e-06
2.05223e-05
2.52008e-06
2.66498e-05
3.01809e-06
3.44717e-05
3.74356e-06
4.45454e-05
5.77062e-05
4.79674e-06
3.42194e-07
3.67515e-06
8.01949e-07
5.11706e-06
1.33829e-06
6.6466e-06
1.93865e-06
8.70128e-06
2.58427e-06
1.1435e-05
3.28378e-06
1.50479e-05
4.09293e-06
1.97132e-05
5.10957e-06
2.56331e-05
6.46724e-06
3.3114e-05
8.32949e-06
4.26832e-05
5.51518e-05
1.08839e-05
4.20223e-07
3.25492e-06
1.10499e-06
4.43229e-06
1.92154e-06
5.83005e-06
2.81811e-06
7.80472e-06
3.80513e-06
1.04479e-05
4.94331e-06
1.39097e-05
6.35183e-06
1.83046e-05
8.17163e-06
2.38133e-05
1.05892e-05
3.06965e-05
1.38221e-05
3.94503e-05
5.08552e-05
1.81187e-05
7.86559e-07
2.46836e-06
1.76436e-06
3.45449e-06
2.68661e-06
4.9078e-06
3.75718e-06
6.73415e-06
5.05136e-06
9.15376e-06
6.64892e-06
1.23122e-05
8.76122e-06
1.61923e-05
1.15273e-05
2.10472e-05
1.51615e-05
2.70623e-05
1.99372e-05
3.46746e-05
4.45921e-05
2.62003e-05
3.0929e-08
2.43744e-06
8.64103e-07
2.62131e-06
2.16666e-06
3.60525e-06
3.66225e-06
5.23856e-06
5.52054e-06
7.29547e-06
7.88071e-06
9.95202e-06
1.08585e-05
1.32146e-05
1.47079e-05
1.71979e-05
1.96522e-05
2.21179e-05
2.60085e-05
2.83183e-05
3.63906e-05
3.42099e-05
1.5511e-06
1.13204e-06
2.21514e-06
1.9667e-06
2.04747e-06
3.20527e-06
1.21724e-06
4.54836e-06
-2.86035e-07
5.94474e-06
-2.50104e-06
7.31218e-06
-5.35497e-06
8.45332e-06
-8.77698e-06
9.25162e-06
-1.27547e-05
9.57732e-06
-1.73603e-05
9.2074e-06
7.64086e-06
-2.26066e-05
2.02529e-06
-8.93244e-07
3.88563e-06
1.06359e-07
4.98973e-06
2.10118e-06
5.4444e-06
4.0937e-06
5.09622e-06
6.29291e-06
3.76361e-06
8.6448e-06
1.26049e-06
1.09564e-05
-2.42238e-06
1.29345e-05
-7.01345e-06
1.41684e-05
-1.22883e-05
1.44823e-05
1.37618e-05
-1.84093e-05
1.07284e-06
-1.96608e-06
2.98096e-06
-1.80176e-06
5.34422e-06
-2.62088e-07
7.10554e-06
2.33238e-06
8.02626e-06
5.3722e-06
7.93763e-06
8.73342e-06
6.57811e-06
1.2316e-05
3.7002e-06
1.58124e-05
-7.92812e-07
1.86614e-05
-6.54327e-06
2.02327e-05
2.03202e-05
-1.31016e-05
9.81484e-07
-2.94757e-06
2.2347e-06
-3.05498e-06
4.47622e-06
-2.5036e-06
7.25413e-06
-4.45533e-07
9.57584e-06
3.05049e-06
1.09447e-05
7.36453e-06
1.10127e-05
1.2248e-05
9.44326e-06
1.73818e-05
5.93134e-06
2.21733e-05
4.22648e-07
2.57414e-05
2.72423e-05
-6.49943e-06
1.1711e-06
-4.11867e-06
2.45047e-06
-4.33435e-06
4.17695e-06
-4.23009e-06
6.84919e-06
-3.11777e-06
1.00752e-05
-1.75498e-07
1.28171e-05
4.6226e-06
1.44377e-05
1.06274e-05
1.44243e-05
1.73953e-05
1.23206e-05
2.4277e-05
7.82075e-06
3.02412e-05
3.40218e-05
1.04123e-06
1.20117e-06
-5.31983e-06
2.60745e-06
-5.74063e-06
4.39982e-06
-6.02246e-06
6.7179e-06
-5.43585e-06
1.00016e-05
-3.45918e-06
1.36868e-05
9.37383e-07
1.67007e-05
7.61351e-06
1.8297e-05
1.57989e-05
1.78338e-05
2.47403e-05
1.47975e-05
3.32775e-05
3.98928e-05
8.9265e-06
1.10051e-06
-6.42034e-06
2.50547e-06
-7.14559e-06
4.32722e-06
-7.84422e-06
6.64294e-06
-7.75157e-06
9.67914e-06
-6.49537e-06
1.36922e-05
-3.07568e-06
1.77496e-05
3.55612e-06
2.08115e-05
1.2737e-05
2.20156e-05
2.35362e-05
2.06702e-05
3.46229e-05
4.41644e-05
1.63986e-05
9.76395e-07
-7.39673e-06
2.2897e-06
-8.4589e-06
3.99436e-06
-9.54888e-06
6.19727e-06
-9.95447e-06
9.08305e-06
-9.38115e-06
1.29547e-05
-6.94735e-06
1.76484e-05
-1.13757e-06
2.18213e-05
8.56415e-06
2.4531e-05
2.08264e-05
2.49021e-05
3.42518e-05
4.68836e-05
2.21829e-05
8.23543e-07
-8.22028e-06
1.96276e-06
-9.59811e-06
3.43215e-06
-1.10183e-05
5.37471e-06
-1.1897e-05
7.98477e-06
-1.19912e-05
1.14898e-05
-1.04524e-05
1.62028e-05
-5.85059e-06
2.1169e-05
3.59793e-06
2.51398e-05
1.68557e-05
2.72736e-05
3.21179e-05
4.70633e-05
2.7094e-05
6.33442e-07
-8.85372e-06
1.5368e-06
-1.05015e-05
2.68635e-06
-1.21678e-05
4.2384e-06
-1.34491e-05
6.39454e-06
-1.41473e-05
9.43073e-06
-1.34886e-05
1.36985e-05
-1.01184e-05
1.89781e-05
-1.68168e-06
2.36738e-05
1.216e-05
2.70489e-05
2.87428e-05
4.57433e-05
2.8369e-05
3.48565e-07
-9.20228e-06
1.00194e-06
-1.11548e-05
1.72354e-06
-1.28894e-05
2.77112e-06
-1.44967e-05
4.29987e-06
-1.56761e-05
6.57762e-06
-1.57663e-05
9.97945e-06
-1.35202e-05
1.4884e-05
-6.58619e-06
2.00567e-05
6.98731e-06
2.44884e-05
2.43111e-05
4.25343e-05
2.76974e-05
1.48568e-07
-9.35085e-06
3.9326e-07
-1.13995e-05
6.95014e-07
-1.31912e-05
1.17853e-06
-1.49802e-05
1.94846e-06
-1.6446e-05
3.25097e-06
-1.70688e-05
5.54683e-06
-1.58161e-05
9.53448e-06
-1.05738e-05
1.47682e-05
1.75362e-06
1.97044e-05
1.93749e-05
3.72466e-05
2.4992e-05
-1.11629e-07
-9.23922e-06
-2.57418e-07
-1.12537e-05
-4.20702e-07
-1.30279e-05
-5.72799e-07
-1.48281e-05
-6.34141e-07
-1.63847e-05
-4.49088e-07
-1.72539e-05
3.70701e-07
-1.66359e-05
2.85344e-06
-1.30566e-05
7.81242e-06
-3.20536e-06
1.28146e-05
1.43727e-05
3.20094e-05
1.80519e-05
-4.56136e-07
-8.78309e-06
-1.03079e-06
-1.06791e-05
-1.72515e-06
-1.23335e-05
-2.53809e-06
-1.40151e-05
-3.4299e-06
-1.54929e-05
-4.29924e-06
-1.63845e-05
-4.86948e-06
-1.60656e-05
-4.51173e-06
-1.34143e-05
-1.22395e-06
-6.49314e-06
4.93636e-06
8.21235e-06
2.62148e-05
1.07309e-05
-7.59699e-07
-8.02339e-06
-1.77136e-06
-9.66743e-06
-3.02697e-06
-1.10779e-05
-4.53952e-06
-1.25026e-05
-6.28084e-06
-1.37516e-05
-8.14003e-06
-1.45253e-05
-9.83827e-06
-1.43674e-05
-1.07586e-05
-1.2494e-05
-9.68493e-06
-7.56684e-06
-4.37911e-06
2.90652e-06
1.88323e-05
3.00335e-06
-1.08189e-06
-6.9415e-06
-2.53991e-06
-8.20941e-06
-4.36609e-06
-9.25176e-06
-6.58049e-06
-1.02882e-05
-9.15237e-06
-1.11797e-05
-1.19451e-05
-1.17326e-05
-1.46382e-05
-1.16743e-05
-1.6589e-05
-1.05432e-05
-1.66983e-05
-7.45749e-06
-1.29863e-05
-8.05543e-07
1.06353e-05
-4.7892e-06
-1.42773e-06
-5.51377e-06
-3.33531e-06
-6.30183e-06
-5.71902e-06
-6.86806e-06
-8.60236e-06
-7.40484e-06
-1.19388e-05
-7.84329e-06
-1.55767e-05
-8.09465e-06
-1.91894e-05
-8.06157e-06
-2.21791e-05
-7.55346e-06
-2.35026e-05
-6.13401e-06
-2.13245e-05
-2.9837e-06
3.57588e-06
-1.42651e-05
-1.79525e-06
-3.71852e-06
-4.12651e-06
-3.97057e-06
-7.00864e-06
-3.98592e-06
-1.04436e-05
-3.96985e-06
-1.43567e-05
-3.93027e-06
-1.85769e-05
-3.87437e-06
-2.27739e-05
-3.86463e-06
-2.63606e-05
-3.96676e-06
-2.83811e-05
-4.11345e-06
-2.75356e-05
-3.82927e-06
-2.29044e-06
-2.16692e-05
-2.1609e-06
-1.55762e-06
-4.79723e-06
-1.33424e-06
-7.94293e-06
-8.40227e-07
-1.15693e-05
-3.43513e-07
-1.55419e-05
4.23304e-08
-1.96351e-05
2.18869e-07
-2.35169e-05
1.71656e-08
-2.66148e-05
-8.68865e-07
-2.81522e-05
-2.57606e-06
-2.7481e-05
-4.5005e-06
-6.53776e-06
-2.32336e-05
-2.08113e-06
5.23512e-07
-4.21165e-06
7.96286e-07
-6.5534e-06
1.50152e-06
-9.14196e-06
2.24504e-06
-1.19265e-05
2.82685e-06
-1.4687e-05
2.9794e-06
-1.69917e-05
2.32188e-06
-1.77759e-05
-8.47355e-08
-1.63951e-05
-3.95678e-06
-1.35194e-05
-7.3762e-06
-1.04903e-05
-9.56692e-06
-1.28099e-06
1.8045e-06
-2.4456e-06
1.9609e-06
-3.65159e-06
2.70751e-06
-4.81683e-06
3.41028e-06
-5.73628e-06
3.7463e-06
-5.89784e-06
3.14095e-06
-4.25579e-06
6.79834e-07
-3.49116e-07
-3.99141e-06
4.36834e-06
-8.67423e-06
9.71027e-06
-1.27181e-05
-1.66289e-05
1.58489e-05
-5.59365e-07
2.36386e-06
-7.06401e-07
2.10793e-06
-5.7852e-07
2.57963e-06
3.12118e-07
2.51964e-06
2.51443e-06
1.54399e-06
6.65406e-06
-9.98681e-07
1.22234e-05
-4.88948e-06
1.74114e-05
-9.17939e-06
2.25939e-05
-1.38568e-05
2.88654e-05
-1.89895e-05
-2.52004e-05
3.74369e-05
5.29147e-07
1.83472e-06
1.84498e-06
7.92104e-07
4.3251e-06
9.95104e-08
8.11241e-06
-1.26767e-06
1.3051e-05
-3.39457e-06
1.82935e-05
-6.24123e-06
2.30661e-05
-9.66206e-06
2.75962e-05
-1.37095e-05
3.22301e-05
-1.84907e-05
3.75107e-05
-2.42701e-05
-3.16265e-05
4.39368e-05
4.27215e-06
7.68557e-06
1.13903e-05
1.53612e-05
1.92621e-05
2.29729e-05
2.65254e-05
3.00138e-05
3.3641e-05
3.76892e-05
4.24533e-05
-1.2941e-05
6.10335e-06
6.83766e-06
-2.37799e-05
5.00551e-06
5.83341e-06
-3.32925e-05
4.36879e-06
5.14374e-06
-4.16067e-05
3.98138e-06
4.33282e-06
-4.94309e-05
4.2012e-06
3.623e-06
-5.74231e-05
5.10306e-06
2.88921e-06
-6.61482e-05
6.74182e-06
1.98327e-06
-7.60528e-05
9.16482e-06
7.39783e-07
-8.75313e-05
1.25142e-05
-1.03573e-06
-0.000101009
1.70734e-05
-3.59558e-06
2.32724e-05
-7.27473e-06
-0.000117007
-5.26855e-06
1.13719e-05
-1.10818e-05
1.08188e-05
-1.85644e-05
1.18514e-05
-2.66767e-05
1.20937e-05
-3.52857e-05
1.28102e-05
-4.43784e-05
1.41957e-05
-5.42418e-05
1.66052e-05
-6.53108e-05
2.02338e-05
-7.80811e-05
2.52846e-05
-9.30773e-05
3.20696e-05
4.10548e-05
-0.00011086
-2.17935e-06
1.35513e-05
-5.4439e-06
1.40833e-05
-1.07367e-05
1.71442e-05
-1.73483e-05
1.87053e-05
-2.52381e-05
2.07e-05
-3.41423e-05
2.30999e-05
-4.41319e-05
2.65948e-05
-5.54045e-05
3.15065e-05
-6.83422e-05
3.82222e-05
-8.34454e-05
4.71728e-05
5.89604e-05
-0.000101351
-1.32023e-06
1.48715e-05
-3.84546e-06
1.66085e-05
-7.67252e-06
2.09713e-05
-1.25798e-05
2.36126e-05
-1.90174e-05
2.71375e-05
-2.6826e-05
3.09086e-05
-3.59721e-05
3.57408e-05
-4.65163e-05
4.20507e-05
-5.86905e-05
5.03964e-05
-7.28632e-05
6.13455e-05
7.55839e-05
-8.94867e-05
-1.10849e-06
1.598e-05
-3.34239e-06
1.88425e-05
-6.2062e-06
2.38351e-05
-1.00091e-05
2.74155e-05
-1.51246e-05
3.2253e-05
-2.15732e-05
3.73572e-05
-2.9429e-05
4.35967e-05
-3.87525e-05
5.13742e-05
-4.96953e-05
6.13392e-05
-6.25312e-05
7.41813e-05
9.07602e-05
-7.77075e-05
-8.12069e-07
1.6792e-05
-2.84885e-06
2.08792e-05
-5.05642e-06
2.60426e-05
-8.17674e-06
3.05358e-05
-1.22482e-05
3.63245e-05
-1.74728e-05
4.25818e-05
-2.40194e-05
5.01433e-05
-3.19911e-05
5.93459e-05
-4.15303e-05
7.08784e-05
-5.28433e-05
8.54943e-05
0.000104176
-6.62591e-05
-6.50337e-07
1.74424e-05
-2.28864e-06
2.25175e-05
-4.16585e-06
2.79199e-05
-6.72432e-06
3.30943e-05
-9.99161e-06
3.95918e-05
-1.42333e-05
4.68234e-05
-1.96219e-05
5.5532e-05
-2.63019e-05
6.60259e-05
-3.44374e-05
7.90139e-05
-4.42266e-05
9.52835e-05
0.000115853
-5.59033e-05
-6.97083e-07
1.81395e-05
-2.04582e-06
2.38663e-05
-3.56377e-06
2.94378e-05
-5.68982e-06
3.52203e-05
-8.34046e-06
4.22424e-05
-1.1779e-05
5.0262e-05
-1.6158e-05
5.99109e-05
-2.16492e-05
7.15172e-05
-2.84214e-05
8.57861e-05
-3.66539e-05
0.000103516
0.00012579
-4.65913e-05
-5.923e-07
1.87318e-05
-1.74132e-06
2.50153e-05
-3.00562e-06
3.07021e-05
-4.72982e-06
3.69445e-05
-6.86839e-06
4.4381e-05
-9.63059e-06
5.30242e-05
-1.31518e-05
6.34321e-05
-1.75979e-05
7.59633e-05
-2.31312e-05
9.13194e-05
-2.99423e-05
0.000110327
0.000134087
-3.82393e-05
-2.73619e-07
1.90054e-05
-1.09155e-06
2.58332e-05
-2.06788e-06
3.16784e-05
-3.43029e-06
3.83069e-05
-5.11434e-06
4.6065e-05
-7.31231e-06
5.52221e-05
-1.01145e-05
6.62343e-05
-1.36775e-05
7.95263e-05
-1.81557e-05
9.57976e-05
-2.37315e-05
0.000115903
0.000140992
-3.0636e-05
-1.5696e-08
1.90211e-05
-5.54007e-07
2.63715e-05
-1.22538e-06
3.23498e-05
-2.21815e-06
3.92997e-05
-3.4688e-06
4.73157e-05
-5.12053e-06
5.68739e-05
-7.25177e-06
6.83656e-05
-9.98283e-06
8.22573e-05
-1.3463e-05
9.92778e-05
-1.78435e-05
0.000120283
0.00014647
-2.33217e-05
-5.93982e-09
1.9027e-05
-3.65997e-07
2.67316e-05
-7.70998e-07
3.27548e-05
-1.4199e-06
3.99486e-05
-2.21632e-06
4.81121e-05
-3.30906e-06
5.79666e-05
-4.74175e-06
6.97983e-05
-6.61796e-06
8.41335e-05
-9.05593e-06
0.000101716
-1.21922e-05
0.00012342
0.000150438
-1.61603e-05
1.17354e-07
1.89097e-05
1.49958e-08
2.6834e-05
-1.1469e-07
3.28845e-05
-4.16846e-07
4.02508e-05
-7.72287e-07
4.84675e-05
-1.32084e-06
5.85152e-05
-2.06504e-06
7.05425e-05
-3.10696e-06
8.51755e-05
-4.52466e-06
0.000103133
-6.43131e-06
0.000125326
0.00015298
-8.97373e-06
4.33756e-07
1.84759e-05
6.90284e-07
2.65774e-05
9.05068e-07
3.26697e-05
9.91563e-07
4.01643e-05
1.08919e-06
4.83699e-05
1.08565e-06
5.85187e-05
1.01729e-06
7.06108e-05
8.00012e-07
8.53927e-05
3.87812e-07
0.000103546
-3.11672e-07
0.000126026
0.000154059
-1.39076e-06
4.9812e-07
1.79778e-05
1.00349e-06
2.60721e-05
1.5382e-06
3.2135e-05
2.05451e-06
3.9648e-05
2.66381e-06
4.77606e-05
3.29572e-06
5.78868e-05
4.00417e-06
6.99024e-05
4.72931e-06
8.46676e-05
5.46792e-06
0.000102807
6.16225e-06
0.000125331
0.000153457
6.76513e-06
6.34421e-07
1.73434e-05
1.43961e-06
2.52669e-05
2.33231e-06
3.12423e-05
3.32134e-06
3.86589e-05
4.47606e-06
4.66059e-05
5.80864e-06
5.65542e-05
7.3593e-06
6.83517e-05
9.11233e-06
8.29146e-05
1.11053e-05
0.000100814
1.33091e-05
0.000123128
0.000151048
1.57174e-05
9.45038e-07
1.63983e-05
2.15954e-06
2.40524e-05
3.48777e-06
2.99141e-05
5.0045e-06
3.71422e-05
6.77407e-06
4.48363e-05
8.8662e-06
5.44621e-05
1.13476e-05
6.58703e-05
1.42293e-05
8.00329e-05
1.75691e-05
9.74743e-05
2.14019e-05
0.000119295
0.000146647
2.58032e-05
1.14805e-06
1.52503e-05
2.72204e-06
2.24784e-05
4.50138e-06
2.81347e-05
6.63964e-06
3.50039e-05
9.16184e-06
4.23141e-05
1.2149e-05
5.14749e-05
1.5696e-05
6.23233e-05
1.98853e-05
7.58435e-05
2.47969e-05
9.25627e-05
3.05482e-05
0.000113544
0.00013994
3.72551e-05
1.39123e-06
1.3859e-05
3.34394e-06
2.05257e-05
5.61726e-06
2.58614e-05
8.44504e-06
3.21762e-05
1.18029e-05
3.89562e-05
1.58607e-05
4.74171e-05
2.06616e-05
5.75225e-05
2.63486e-05
7.01565e-05
3.30531e-05
8.58582e-05
4.09668e-05
0.00010563
0.000130582
5.03243e-05
1.69709e-06
1.2162e-05
4.05633e-06
1.81664e-05
6.90154e-06
2.30162e-05
1.05333e-05
2.85444e-05
1.4884e-05
3.46055e-05
2.0132e-05
4.21691e-05
2.63337e-05
5.13208e-05
3.36908e-05
6.27994e-05
4.2406e-05
7.7143e-05
5.27779e-05
9.5258e-05
0.000118198
6.51622e-05
2.11368e-06
1.00483e-05
4.94315e-06
1.53369e-05
8.48178e-06
1.94776e-05
1.28724e-05
2.41538e-05
1.82859e-05
2.91921e-05
2.48318e-05
3.56231e-05
3.25676e-05
4.3585e-05
4.1756e-05
5.3611e-05
5.26875e-05
6.62115e-05
6.578e-05
8.21655e-05
0.00010245
8.15279e-05
2.48087e-06
7.56741e-06
5.77793e-06
1.20399e-05
9.91832e-06
1.53372e-05
1.52006e-05
1.88716e-05
2.1724e-05
2.26686e-05
2.9579e-05
2.77681e-05
3.8897e-05
3.42671e-05
4.99872e-05
4.25207e-05
6.32497e-05
5.29491e-05
7.92129e-05
6.62023e-05
8.31166e-05
9.85464e-05
2.49491e-06
5.0725e-06
6.11609e-06
8.4187e-06
1.1019e-05
1.04343e-05
1.71961e-05
1.26944e-05
2.46507e-05
1.5214e-05
3.36338e-05
1.8785e-05
4.43782e-05
2.35227e-05
5.72578e-05
2.96411e-05
7.27431e-05
3.74638e-05
9.14409e-05
4.75046e-05
6.04599e-05
0.000114098
-2.5803e-07
5.33053e-06
5.17599e-06
2.98469e-06
1.15909e-05
4.01934e-06
1.86911e-05
5.59426e-06
2.69512e-05
6.95393e-06
3.66885e-05
9.04769e-06
4.82248e-05
1.19865e-05
6.21357e-05
1.57301e-05
7.90596e-05
2.05399e-05
9.97062e-05
2.6858e-05
3.51363e-05
0.00012503
-9.56437e-06
1.6402e-05
-1.71955e-05
1.34645e-05
-2.59415e-05
1.38898e-05
-3.4592e-05
1.29833e-05
-4.33835e-05
1.24145e-05
-5.25246e-05
1.20303e-05
-6.24138e-05
1.18725e-05
-7.34147e-05
1.17407e-05
-8.59147e-05
1.14642e-05
-0.000100304
1.07938e-05
9.40398e-06
-0.000116983
-9.06968e-07
1.7309e-05
-2.86852e-06
1.54261e-05
-9.33871e-06
2.036e-05
-1.74198e-05
2.10643e-05
-2.6823e-05
2.18177e-05
-3.71361e-05
2.23434e-05
-4.83875e-05
2.31239e-05
-6.09548e-05
2.4308e-05
-7.51618e-05
2.56712e-05
-9.14618e-05
2.70938e-05
2.82852e-05
-0.000110343
3.14331e-07
1.69947e-05
-1.05174e-06
1.67921e-05
-4.86782e-06
2.41761e-05
-1.03517e-05
2.65482e-05
-1.80836e-05
2.95496e-05
-2.75036e-05
3.17634e-05
-3.84326e-05
3.40529e-05
-5.07378e-05
3.66132e-05
-6.47709e-05
3.97043e-05
-8.08567e-05
4.31796e-05
4.67904e-05
-9.93619e-05
1.13352e-07
1.68813e-05
-1.8301e-06
1.87356e-05
-4.33984e-06
2.66858e-05
-8.12866e-06
3.03371e-05
-1.38921e-05
3.5313e-05
-2.14853e-05
3.93566e-05
-3.08623e-05
4.343e-05
-4.19563e-05
4.77072e-05
-5.48123e-05
5.25603e-05
-6.96543e-05
5.80216e-05
6.4028e-05
-8.68919e-05
-1.72816e-07
1.70541e-05
-2.45066e-06
2.10134e-05
-4.53402e-06
2.87692e-05
-7.52399e-06
3.3327e-05
-1.18388e-05
3.96277e-05
-1.76548e-05
4.51727e-05
-2.52069e-05
5.0982e-05
-3.45207e-05
5.7021e-05
-4.55676e-05
6.36072e-05
-5.85196e-05
7.09735e-05
7.91214e-05
-7.36129e-05
-2.9807e-07
1.73522e-05
-2.39891e-06
2.31143e-05
-4.24611e-06
3.06164e-05
-6.8148e-06
3.58957e-05
-1.01893e-05
4.30022e-05
-1.46711e-05
4.96545e-05
-2.05824e-05
5.68932e-05
-2.80452e-05
6.44839e-05
-3.71682e-05
7.27302e-05
-4.80222e-05
8.18275e-05
9.18415e-05
-6.07423e-05
-2.92219e-07
1.76444e-05
-2.03199e-06
2.4854e-05
-3.58365e-06
3.2168e-05
-5.76117e-06
3.80732e-05
-8.46631e-06
4.57074e-05
-1.19564e-05
5.31446e-05
-1.65333e-05
6.14701e-05
-2.23672e-05
7.03178e-05
-2.96218e-05
7.99848e-05
-3.83646e-05
9.05704e-05
0.000102232
-4.87548e-05
-3.71097e-07
1.80155e-05
-1.77285e-06
2.62558e-05
-3.03336e-06
3.34285e-05
-4.78274e-06
3.98226e-05
-6.8807e-06
4.78053e-05
-9.52021e-06
5.57841e-05
-1.29577e-05
6.49076e-05
-1.73194e-05
7.46794e-05
-2.2793e-05
8.54584e-05
-2.94644e-05
9.72418e-05
0.000110004
-3.72368e-05
-3.29088e-07
1.83446e-05
-1.39459e-06
2.73213e-05
-2.3546e-06
3.43886e-05
-3.66193e-06
4.113e-05
-5.18995e-06
4.93334e-05
-7.06073e-06
5.76549e-05
-9.48849e-06
6.73354e-05
-1.25415e-05
7.77324e-05
-1.6372e-05
8.9289e-05
-2.10141e-05
0.000101884
0.000115294
-2.63042e-05
-1.69075e-07
1.85137e-05
-9.96298e-07
2.81485e-05
-1.5302e-06
3.49225e-05
-2.43064e-06
4.20304e-05
-3.37883e-06
5.02815e-05
-4.52105e-06
5.87971e-05
-6.01282e-06
6.88272e-05
-7.85635e-06
7.9576e-05
-1.01857e-05
9.16183e-05
-1.29656e-05
0.000104664
0.000118416
-1.60875e-05
7.77774e-08
1.84359e-05
-2.46875e-07
2.84732e-05
-3.84536e-07
3.50601e-05
-9.53857e-07
4.25997e-05
-1.24057e-06
5.05683e-05
-1.73554e-06
5.92921e-05
-2.32758e-06
6.94192e-05
-3.07679e-06
8.03252e-05
-4.02782e-06
9.25693e-05
-5.12131e-06
0.000105757
0.000119561
-6.266e-06
1.92926e-07
1.8243e-05
2.32068e-07
2.8434e-05
4.18731e-07
3.48735e-05
4.43932e-07
4.25745e-05
7.49119e-07
5.02631e-05
9.12766e-07
5.91284e-05
1.25314e-06
6.90788e-05
1.59735e-06
7.9981e-05
2.01879e-06
9.21479e-05
2.56503e-06
0.000105211
0.000118706
3.41979e-06
3.88605e-07
1.78544e-05
7.93762e-07
2.80289e-05
1.38855e-06
3.42787e-05
1.95818e-06
4.20049e-05
2.8466e-06
4.93747e-05
3.71552e-06
5.82595e-05
4.97843e-06
6.78159e-05
6.3965e-06
7.85629e-05
8.17164e-06
9.03727e-05
1.03188e-05
0.000103064
0.000115874
1.31502e-05
7.03733e-07
1.71506e-05
1.56113e-06
2.71715e-05
2.57551e-06
3.32643e-05
3.69144e-06
4.0889e-05
5.15212e-06
4.7914e-05
6.80186e-06
5.66097e-05
8.95336e-06
6.56644e-05
1.14656e-05
7.60507e-05
1.45508e-05
8.72875e-05
1.825e-05
9.93647e-05
0.000111411
2.27135e-05
8.89e-07
1.62616e-05
2.11657e-06
2.59439e-05
3.56984e-06
3.1811e-05
5.27975e-06
3.91791e-05
7.35329e-06
4.58404e-05
9.85352e-06
5.41095e-05
1.29436e-05
6.25744e-05
1.6631e-05
7.23632e-05
2.10892e-05
8.28293e-05
2.63895e-05
9.40645e-05
0.000105186
3.26141e-05
1.11268e-06
1.5149e-05
2.74749e-06
2.43091e-05
4.66105e-06
2.98975e-05
6.9864e-06
3.68537e-05
9.73571e-06
4.30911e-05
1.31114e-05
5.07339e-05
1.71896e-05
5.84961e-05
2.20986e-05
6.74543e-05
2.79681e-05
7.69598e-05
3.49233e-05
8.71092e-05
9.70198e-05
4.30899e-05
1.40461e-06
1.37444e-05
3.46546e-06
2.22482e-05
5.8823e-06
2.74806e-05
8.86055e-06
3.38755e-05
1.23372e-05
3.96145e-05
1.66291e-05
4.64419e-05
2.17627e-05
5.33625e-05
2.79533e-05
6.12637e-05
3.52858e-05
6.96273e-05
4.39338e-05
7.84611e-05
8.69679e-05
5.39856e-05
1.70846e-06
1.20359e-05
4.19302e-06
1.97637e-05
7.12877e-06
2.45449e-05
1.07864e-05
3.02178e-05
1.50615e-05
3.53394e-05
2.03396e-05
4.11639e-05
2.66241e-05
4.70779e-05
3.41555e-05
5.37323e-05
4.30132e-05
6.07697e-05
5.33936e-05
6.80807e-05
7.49288e-05
6.54327e-05
2.05642e-06
9.97947e-06
4.92422e-06
1.68959e-05
8.38608e-06
2.1083e-05
1.27263e-05
2.58775e-05
1.78795e-05
3.01863e-05
2.42266e-05
3.48167e-05
3.17628e-05
3.95418e-05
4.06905e-05
4.48046e-05
5.11038e-05
5.03564e-05
6.32264e-05
5.59581e-05
6.10424e-05
7.71128e-05
2.4547e-06
7.52477e-06
5.6559e-06
1.36947e-05
9.64165e-06
1.70973e-05
1.46756e-05
2.08435e-05
2.07518e-05
2.41101e-05
2.82406e-05
2.7328e-05
3.70665e-05
3.07158e-05
4.73726e-05
3.44985e-05
5.93432e-05
3.83858e-05
7.32345e-05
4.20668e-05
4.49218e-05
8.93552e-05
2.70509e-06
4.81968e-06
6.17626e-06
1.02235e-05
1.0706e-05
1.25675e-05
1.64775e-05
1.50721e-05
2.34912e-05
1.70965e-05
3.20471e-05
1.87721e-05
4.20484e-05
2.07145e-05
5.36411e-05
2.29058e-05
6.70721e-05
2.49548e-05
8.26532e-05
2.64856e-05
2.69115e-05
0.000100663
2.59741e-06
2.22227e-06
6.25083e-06
6.57008e-06
1.13759e-05
7.44245e-06
1.79663e-05
8.48163e-06
2.5871e-05
9.19173e-06
3.5062e-05
9.58107e-06
4.58214e-05
9.95504e-06
5.83453e-05
1.0382e-05
7.29151e-05
1.03849e-05
8.98397e-05
9.56105e-06
7.32668e-06
0.000109425
1.88908e-06
3.3319e-07
5.51099e-06
2.94817e-06
1.07554e-05
2.19804e-06
1.7681e-05
1.55601e-06
2.60293e-05
8.43397e-07
3.53007e-05
3.09736e-07
4.61942e-05
-9.38501e-07
5.91032e-05
-2.52695e-06
7.42736e-05
-4.7855e-06
9.20632e-05
-8.22853e-06
-1.35508e-05
0.000112941
5.66372e-06
1.15966e-05
1.7814e-05
2.49642e-05
3.27616e-05
4.2119e-05
5.31669e-05
6.63701e-05
8.21245e-05
0.000100754
0.000122339
-3.74592e-06
1.57527e-05
-1.20067e-05
-7.40598e-06
1.47086e-05
-1.10485e-05
-1.26705e-05
1.72407e-05
-1.19762e-05
-1.84085e-05
1.91043e-05
-1.33662e-05
-2.4266e-05
2.11616e-05
-1.5304e-05
-3.03614e-05
2.39711e-05
-1.78758e-05
-3.6921e-05
2.77427e-05
-2.11831e-05
-4.42158e-05
3.27282e-05
-2.54334e-05
-5.25322e-05
3.92483e-05
-3.0932e-05
-6.21878e-05
4.77297e-05
-3.80741e-05
5.87781e-05
-4.7407e-05
-7.35589e-05
2.4331e-06
1.33196e-05
2.92706e-06
1.42146e-05
4.85239e-07
1.96825e-05
-3.64631e-06
2.32358e-05
-8.99668e-06
2.65119e-05
-1.51993e-05
3.01738e-05
-2.21604e-05
3.47038e-05
-2.9993e-05
4.05608e-05
-3.89383e-05
4.81936e-05
-4.93136e-05
5.81049e-05
7.09503e-05
-6.14857e-05
2.21095e-06
1.11086e-05
2.87161e-06
1.3554e-05
2.46946e-06
2.00847e-05
7.92178e-07
2.49131e-05
-2.55393e-06
2.9858e-05
-7.29126e-06
3.49111e-05
-1.31804e-05
4.0593e-05
-2.01194e-05
4.74998e-05
-2.81788e-05
5.6253e-05
-3.7563e-05
6.74892e-05
8.19496e-05
-4.85624e-05
1.58123e-06
9.52737e-06
1.86985e-06
1.32653e-05
2.11085e-06
1.98437e-05
1.60048e-06
2.54235e-05
-1.34879e-07
3.15934e-05
-3.13921e-06
3.79154e-05
-7.38368e-06
4.48375e-05
-1.27832e-05
5.28993e-05
-1.93054e-05
6.27753e-05
-2.70038e-05
7.51876e-05
9.09228e-05
-3.5977e-05
1.26412e-06
8.26326e-06
1.5468e-06
1.29827e-05
1.9267e-06
1.94638e-05
1.81493e-06
2.55352e-05
9.89735e-07
3.24186e-05
-7.24787e-07
3.96299e-05
-3.46626e-06
4.75789e-05
-7.27361e-06
5.67066e-05
-1.21295e-05
6.76312e-05
-1.80553e-05
8.11134e-05
9.80077e-05
-2.51403e-05
1.14563e-06
7.11763e-06
1.70335e-06
1.24249e-05
2.30382e-06
1.88633e-05
2.47112e-06
2.53679e-05
2.17239e-06
3.27173e-05
1.2597e-06
4.05426e-05
-4.01193e-07
4.92398e-05
-2.91182e-06
5.92173e-05
-6.3203e-06
7.10396e-05
-1.06535e-05
8.54466e-05
0.0001033
-1.59456e-05
1.09157e-06
6.02606e-06
1.91465e-06
1.16019e-05
2.75771e-06
1.80203e-05
3.23762e-06
2.4888e-05
3.35996e-06
3.2595e-05
3.02414e-06
4.08784e-05
2.13093e-06
5.0133e-05
6.04578e-07
6.07436e-05
-1.62369e-06
7.32679e-05
-4.61908e-06
8.8442e-05
0.000107097
-8.41612e-06
9.73667e-07
5.05239e-06
1.99387e-06
1.05817e-05
3.03723e-06
1.69769e-05
3.80868e-06
2.41166e-05
4.31232e-06
3.20913e-05
4.45242e-06
4.07383e-05
4.18695e-06
5.03985e-05
3.45612e-06
6.14744e-05
2.19937e-06
7.45246e-05
3.68323e-07
9.02731e-05
0.000109548
-2.08262e-06
9.66584e-07
4.08581e-06
2.12926e-06
9.41897e-06
3.34685e-06
1.57593e-05
4.39632e-06
2.30671e-05
5.24315e-06
3.12445e-05
5.80349e-06
4.0178e-05
6.05574e-06
5.01463e-05
5.97365e-06
6.15565e-05
5.51783e-06
7.49805e-05
4.64037e-06
9.11505e-05
0.000110878
3.31054e-06
1.01902e-06
3.06679e-06
2.3635e-06
8.07449e-06
3.80003e-06
1.43228e-05
5.15281e-06
2.17143e-05
6.34718e-06
3.00501e-05
7.30327e-06
3.92219e-05
8.00746e-06
4.94421e-05
8.46162e-06
6.11024e-05
8.64721e-06
7.47949e-05
8.54019e-06
9.12575e-05
0.000111356
8.06154e-06
1.01722e-06
2.04957e-06
2.4243e-06
6.66742e-06
4.05008e-06
1.2697e-05
5.70028e-06
2.00641e-05
7.255e-06
2.84954e-05
8.62286e-06
3.7854e-05
9.7897e-06
4.82752e-05
1.07676e-05
6.01245e-05
1.15702e-05
7.39923e-05
1.219e-05
9.06378e-05
0.000110938
1.26082e-05
8.87112e-07
1.16245e-06
2.22609e-06
5.32844e-06
3.93467e-06
1.09884e-05
5.81706e-06
1.81818e-05
7.71593e-06
2.65966e-05
9.52603e-06
3.6044e-05
1.12106e-05
4.65907e-05
1.27694e-05
5.85656e-05
1.42357e-05
7.2526e-05
1.56363e-05