/*--------------------------------*- C++ -*----------------------------------*\
| =========                 |                                                 |
| \\      /  F ield         | OpenFOAM: The Open Source CFD Toolbox           |
|  \\    /   O peration     | Version:  3.0.1                                 |
|   \\  /    A nd           | Web:      www.OpenFOAM.org                      |
|    \\/     M anipulation  |                                                 |
\*---------------------------------------------------------------------------*/
FoamFile
{
    version     2.0;
    format      ascii;
    class       volScalarField;
    location    "0.902659";
    object      epsilon;
}
// * * * * * * * * * * * * * * * * * * * * * * * * * * * * * * * * * * * * * //

dimensions      [0 2 -3 0 0 0 0];

internalField   nonuniform List<scalar> 
21246
(
641.247
364.487
192.812
118.717
72.1663
37.1234
16.6345
6.99618
3.13244
1.62187
1.04875
594.172
342.391
212.617
136.226
86.8853
49.1863
22.8832
8.12607
2.99328
1.38996
0.857958
346.264
262.534
193.104
135.139
91.7558
56.7084
29.3921
11.5167
3.67749
1.27191
0.690367
138.911
190
159.42
121.745
88.1111
58.4973
33.3701
14.8369
5.00591
1.48251
0.600436
58.5396
138.525
126.964
103.589
79.2075
55.8048
34.3913
17.0297
6.39686
1.90808
0.610037
41.7179
93.0119
97.2479
84.4003
67.7419
50.2027
32.9321
17.7566
7.38172
2.3695
0.691043
34.9387
56.7192
71.2985
66.186
55.592
43.0445
29.705
17.1016
7.71201
2.68214
0.78457
26.7001
35.2795
48.4774
50.0245
44.0358
35.4201
25.4583
15.3896
7.37276
2.74368
0.833368
20.4628
23.184
31.8397
36.0904
33.8412
28.1357
20.8799
13.0663
6.53256
2.56195
0.813352
15.7971
15.883
21.1266
25.0817
25.1922
21.6542
16.4711
10.5508
5.43245
2.21771
0.736256
12.3686
11.2826
14.3467
17.1572
18.1655
16.1502
12.5214
8.14722
4.28741
1.81138
0.628328
10.0194
8.35424
10.0666
11.7816
12.8024
11.6974
9.20845
6.06707
3.26044
1.42824
0.521273
8.38984
6.47818
7.39079
8.28156
8.97177
8.32835
6.64306
4.44536
2.45706
1.12684
0.438123
7.26588
5.30061
5.75692
6.08889
6.418
5.98241
4.83665
3.31791
1.91239
0.931207
0.388805
6.58816
4.5968
4.78935
4.78378
4.85352
4.50257
3.70084
2.63409
1.60592
0.839034
0.377456
6.10402
4.17717
4.24779
4.06116
3.9844
3.6808
3.09573
2.3096
1.50035
0.840559
0.403636
5.70684
3.93319
3.96596
3.69539
3.56126
3.31452
2.88309
2.26941
1.56892
0.934342
0.471189
5.38871
3.79592
3.82333
3.52637
3.41667
3.28128
3.00431
2.51047
1.83838
1.15133
0.603813
5.14886
3.73037
3.72852
3.46067
3.5116
3.63708
3.62607
3.23608
2.47567
1.60125
0.857323
4.96206
3.68526
3.61203
3.54852
4.22626
5.2532
6.29356
5.89905
4.31516
2.68543
1.41515
6.31774
4.49196
3.92698
5.11957
10.1921
14.9464
15.9612
14.4857
11.0061
6.40592
3.02725
15.5488
6.9757
8.59404
22.0355
27.5861
27.9439
25.8344
22.5262
18.4207
13.1344
7.07135
21.9106
51.5945
54.5404
51.9507
45.3563
37.479
30.0225
24.0075
19.6708
15.9165
11.1091
273.614
161.386
107.123
72.8927
50.6486
35.4951
25.2848
18.8577
15.3528
13.5201
11.2891
769.865
247.763
148.533
98.2741
61.6621
34.23
16.8229
7.78054
3.72454
1.99108
1.27413
489.85
148.584
108.371
87.9152
65.4977
41.6309
22.2859
10.6366
5.05785
2.6183
1.56508
150.111
70.9537
67.9771
71.2676
66.1441
50.1618
30.2207
15.1408
7.17277
3.59973
2.04549
46.1074
27.1469
33.9306
46.5501
55.8133
53.2817
38.439
21.2728
10.3301
5.07678
2.74173
36.9593
18.3932
18.5188
26.2604
38.1313
46.6803
42.9342
28.3303
14.9032
7.37881
3.89798
35.8977
17.8025
15.5744
17.974
24.8346
34.8528
40.0521
32.7465
19.4587
10.1735
5.4088
35.8176
17.9643
15.0855
15.7996
19.3804
26.2649
33.6612
32.7512
21.7522
11.9367
6.55172
36.2231
18.3174
15.0492
14.9482
16.9078
21.6966
28.531
31.493
23.8936
13.5931
7.58946
37.1356
18.7828
15.2289
14.5278
15.3678
18.5808
24.3661
28.9375
25.1247
15.3988
8.55245
38.4528
19.3307
15.5763
14.3143
14.2865
16.228
20.7731
25.908
24.9095
17.013
9.51188
40.2053
20.1439
16.101
14.2036
13.5084
14.4266
17.7081
22.7035
23.7919
17.777
10.486
42.4013
21.1604
16.6897
14.2365
13.0012
13.1158
15.2586
19.6429
22.1204
17.823
11.0648
45.237
22.3065
17.4018
14.4525
12.7016
12.2037
13.3853
16.7417
20.1432
17.4417
11.3399
49.0664
23.7355
18.2729
14.7996
12.562
11.6315
12.2163
14.3712
17.4958
16.721
11.3119
53.5802
25.475
19.3931
15.3224
12.5329
11.1445
11.227
12.5598
14.7416
15.2179
11.4833
59.2834
27.7116
20.9008
16.1229
12.6657
10.7309
10.2977
11.0567
12.5162
13.2984
11.6496
66.7218
30.7138
23.0174
17.3979
13.1148
10.523
9.59962
9.90717
10.8567
11.5922
11.1046
76.8321
34.9166
26.1608
19.5739
14.2506
10.7448
9.16764
9.05082
9.61315
10.2165
10.3177
91.1432
40.996
31.1456
23.6392
16.8312
11.747
9.23575
8.51662
8.63385
8.97472
9.15247
110.592
49.77
38.9214
29.6982
20.702
13.8688
10.0971
8.5827
8.1783
8.16459
8.1654
132.195
61.2337
47.3887
36.212
25.3219
16.7126
11.6475
9.39233
8.62316
8.48991
8.57138
167.414
74.7925
56.5126
41.655
28.9077
19.128
13.2294
10.4723
9.51255
9.47421
10.0819
249.945
107.387
63.4052
43.5475
29.8958
20.301
14.3894
11.4364
10.317
10.2139
10.8871
684.294
116.397
65.622
41.0459
28.896
20.7654
15.4726
12.449
11.1616
10.8896
10.6549
2525.99
856.573
315.642
104.11
31.9168
9.52615
2.83328
0.848842
0.26288
0.0900328
0.0381996
1717.12
483.203
205.148
79.772
28.2015
9.39068
2.97704
0.906736
0.274715
0.0900544
0.0364887
1068.71
367.766
173.764
79.0358
31.011
11.0544
3.66007
1.14016
0.343387
0.107717
0.0411884
748.69
273.431
136.868
71.7473
32.6633
12.8312
4.45605
1.41882
0.429057
0.131347
0.0476322
586.52
214.757
109.844
60.6121
29.3117
12.2134
4.43386
1.45324
0.447073
0.137843
0.0493742
486.209
172.07
90.1732
50.6056
24.6938
10.5497
3.98517
1.36949
0.441032
0.140968
0.0520832
416.882
142.67
75.2056
42.1985
20.7732
9.0107
3.49389
1.24583
0.419305
0.139947
0.0530583
365.365
120.793
63.6114
35.5056
17.5205
7.65983
3.02308
1.10972
0.387927
0.134954
0.0546358
327.471
104.381
54.6713
30.3324
14.9534
6.56106
2.62086
0.984742
0.356501
0.129681
0.0550777
299.565
92.1487
47.9008
26.4413
13.012
5.71657
2.30171
0.880492
0.328378
0.124189
0.0542202
277.733
82.71
42.6677
23.4793
11.5422
5.07523
2.05493
0.796984
0.304234
0.118381
0.0535682
260.709
75.0832
38.4646
21.141
10.3994
4.58121
1.86449
0.731551
0.284797
0.113665
0.0529256
248.962
69.0839
35.1524
19.3355
9.53589
4.21423
1.72418
0.683436
0.270684
0.11051
0.0525886
241.626
64.6713
32.6632
18.0226
8.93326
3.96653
1.63145
0.652332
0.262019
0.108751
0.0526947
238.254
61.3384
30.7334
17.0566
8.52546
3.81411
1.57932
0.636765
0.258828
0.10875
0.0532888
239.395
59.0197
29.3379
16.4255
8.31138
3.75997
1.57029
0.63821
0.261937
0.110857
0.0546154
244.627
58.9424
28.7582
16.2357
8.37502
3.8573
1.6284
0.663451
0.273539
0.115805
0.0568819
255.44
60.7246
28.9464
16.4343
8.71634
4.14788
1.79871
0.744737
0.308093
0.129672
0.0625306
273.683
64.8699
30.1583
17.1411
9.3929
4.67841
2.12092
0.906239
0.380051
0.159944
0.0744561
302.985
72.3626
32.8519
18.5843
10.5238
5.53558
2.6685
1.20247
0.522185
0.223525
0.100712
350.85
84.9621
37.8022
21.1704
12.3273
6.8673
3.56612
1.73566
0.805909
0.362924
0.164196
434.761
104.546
46.0439
25.5162
15.1792
8.93537
5.03267
2.69604
1.38156
0.682645
0.329561
591.128
136.954
59.73
32.8947
19.9673
12.3766
7.55762
4.48496
2.57826
1.43703
0.778837
905.738
142.412
66.4339
41.182
27.4467
18.5733
12.461
8.20757
5.29024
3.3338
2.05622
2768.34
1798.9
595.095
180.256
60.0339
16.5349
4.3359
1.18508
0.343192
0.110408
0.0438245
3316.06
2076.97
961.182
393.244
148.696
37.3567
8.11835
2.06607
0.551246
0.159355
0.0581629
2483.18
1750.62
1020.29
497.974
217.757
71.461
15.0134
3.53292
0.92513
0.253546
0.085291
1369.67
1473.21
973.245
527.585
253.042
96.7946
25.3787
5.512
1.47118
0.406185
0.134809
620.37
1336.86
921.182
531.452
269.275
112.869
34.9686
8.36731
2.17463
0.622789
0.209595
397.318
1328.47
906.034
534.87
278.692
123.619
43.0218
11.8584
3.08384
0.89874
0.300023
434.415
1291.31
900.59
539.277
285.125
131.304
49.7909
15.4478
4.38296
1.26395
0.425816
468.78
1224.79
898.416
544.394
288.99
136.384
55.2345
18.9253
5.88567
1.80203
0.601905
485.092
1113.73
895.781
552.992
292.18
139.761
59.591
22.2294
7.55042
2.48387
0.847423
483.208
974.158
884.32
565.39
296.268
142.347
63.1972
25.3794
9.36671
3.31414
1.17838
469.073
831.934
859.096
580.171
302.743
145.277
66.5535
28.5063
11.372
4.32429
1.61412
452.195
723.64
821.766
592.332
310.485
148.489
69.7292
31.6109
13.5725
5.5513
2.1794
437.259
643.463
772.09
598.428
319.283
152.42
73.0377
34.8221
16.0187
7.0483
2.92854
422.321
571.952
711.296
596.726
328.999
157.653
76.894
38.3419
18.8118
8.88977
3.96061
412.565
510.556
647.992
585.698
337.753
163.779
81.363
42.2852
22.0489
11.1753
5.36674
411.053
456.372
585.195
564.485
343.785
170.5
86.6565
46.9028
25.9253
14.0853
7.29218
411.594
407.347
520.059
532.226
344.655
177.157
92.9165
52.5216
30.7388
17.8917
9.99802
415.094
361.89
448.733
487.973
336.938
182.257
100.176
59.5888
36.9343
22.9759
13.8149
426.943
321.803
372.669
419.849
318.922
184.56
108.846
69.0793
45.4392
30.0619
19.4045
454.858
286.495
297.105
324.396
290.447
186.613
121.317
83.3169
58.0917
40.5771
27.6326
509.607
250.688
222.928
233.719
238.438
191.918
137.118
100.674
73.2487
53.2002
37.6635
776.195
289.834
217.738
202.307
187.062
164.643
129.638
101.092
76.528
56.6339
40.0929
726.782
484.362
496.132
351.714
266.152
198.665
143.106
100.099
67.9068
44.9684
28.9949
1337.64
731.791
420.294
258.211
165.312
107.438
69.8348
45.033
28.6908
18.0203
11.1267
405.584
221.258
34.5134
8.09366
2.03067
0.766623
0.466968
0.379442
0.35231
0.348136
0.354936
587.438
384.285
79.811
13.171
2.98456
0.969489
0.511825
0.3889
0.352363
0.345194
0.350224
665.895
389.929
111.726
24.1329
3.98338
1.20733
0.567308
0.40017
0.351279
0.340056
0.343087
639.609
359.74
123.175
30.985
5.45267
1.43889
0.624357
0.412039
0.349754
0.334014
0.334935
563.447
337.88
126.585
35.1024
6.98428
1.65305
0.678805
0.424619
0.348715
0.328173
0.327314
475.263
323.249
129.609
39.5234
8.94597
2.05548
0.735885
0.43873
0.348961
0.323348
0.320786
386.615
312.74
133.715
44.835
11.5298
2.71196
0.861015
0.459969
0.350928
0.31975
0.315295
304.678
304.574
138.071
50.4418
14.5722
3.66299
1.07494
0.502403
0.358074
0.317655
0.310786
236.745
296.955
143.571
56.5576
18.1215
4.97842
1.42541
0.579808
0.373731
0.318553
0.307365
183.576
288.746
151.278
63.9732
22.5124
6.82142
1.99766
0.723395
0.40582
0.323823
0.305685
142.224
281.326
160.415
72.441
27.6814
9.23387
2.86376
0.974186
0.468524
0.337097
0.306316
112.326
276.24
170.482
81.4235
33.2864
12.0971
4.0423
1.37055
0.581909
0.365192
0.31116
94.0748
271.754
181.907
91.4132
39.5097
15.4611
5.58758
1.96525
0.776916
0.420708
0.323947
85.1759
264.975
194.547
103.172
46.8177
19.5076
7.59353
2.83041
1.0995
0.525619
0.352901
84.7017
259.2
207.862
116.435
55.1135
24.1798
10.06
4.00899
1.59765
0.711031
0.41304
92.3182
252.558
220.868
131.744
64.9572
29.7467
13.1058
5.5818
2.3386
1.0241
0.530052
105.958
242.431
231.188
149.438
77.318
36.8113
17.0247
7.707
3.4276
1.53795
0.74897
119.822
226.854
234.898
168.083
92.6235
45.9593
22.1925
10.6094
5.01564
2.36097
1.14405
133.407
208.015
229.065
184.515
110.943
58.1018
29.3471
14.7527
7.39058
3.68315
1.84359
146.284
187.269
211.956
192.783
130.495
74.1287
39.7124
21.049
11.1418
5.88015
3.09404
158.668
162.122
183.462
186.77
147.08
94.5157
55.3166
31.3305
17.554
9.789
5.43286
205.746
145.962
156.635
174.232
158.648
118.893
78.6738
48.7531
29.2683
17.3325
10.1633
235.417
131.476
130.852
135.36
132.715
117.716
93.4429
67.3213
45.4364
29.6258
18.7757
496.654
530.535
391.939
323.642
258.654
196.168
141.681
98.0138
66.5413
44.8755
29.795
319.777
112.487
25.8452
5.32285
1.51203
0.670837
0.445787
0.373239
0.349721
0.346828
0.355009
321.042
85.4664
18.5192
5.53327
1.69692
0.733108
0.462998
0.375018
0.345607
0.340109
0.347067
356.961
105.667
18.6764
6.68334
2.21709
0.934548
0.528062
0.394374
0.348049
0.33553
0.339579
350.232
103.596
17.7019
6.90209
2.41871
1.05855
0.579825
0.407985
0.34423
0.323884
0.324631
327.519
88.2209
16.7414
6.89486
2.45039
1.08836
0.583865
0.401265
0.332505
0.309508
0.308935
304.43
73.4104
15.6585
6.52175
2.34532
1.07083
0.574292
0.391931
0.3211
0.296252
0.294278
284.378
62.092
14.6044
6.05048
2.19907
1.03223
0.555143
0.379652
0.309604
0.283908
0.280732
266.173
53.6352
13.6132
5.59413
2.06473
0.989887
0.534926
0.368095
0.299475
0.272705
0.26669
252.388
47.3645
12.7993
5.23104
1.96964
0.95245
0.518436
0.358633
0.291311
0.263859
0.256015
243.092
42.9427
12.1627
4.95752
1.9155
0.926893
0.507694
0.35195
0.285344
0.257562
0.248873
238.204
39.9908
11.7633
4.80148
1.89992
0.917498
0.503835
0.348447
0.281435
0.253205
0.24383
236.408
37.964
11.5111
4.73886
1.9188
0.924407
0.507105
0.348308
0.27945
0.250326
0.240573
238.445
36.7597
11.4278
4.76982
1.97729
0.95038
0.518815
0.352108
0.27946
0.248511
0.238167
242.083
38.1093
11.8161
4.97177
2.1145
1.01144
0.546227
0.362604
0.282549
0.248027
0.236327
247.66
40.6942
12.6702
5.35897
2.35935
1.12887
0.602936
0.386698
0.292229
0.250707
0.235563
255.878
44.7327
14.135
6.00457
2.74418
1.328
0.704129
0.433547
0.313202
0.258943
0.237144
267.513
50.6444
16.4722
7.04968
3.33938
1.65464
0.879172
0.521682
0.356114
0.278641
0.244348
284.244
58.5683
19.9365
8.68995
4.26283
2.18691
1.18191
0.68747
0.444265
0.324065
0.265854
308.586
69.1443
24.9532
11.2498
5.73177
3.07209
1.71686
1.00546
0.629591
0.430226
0.324965
345.019
83.9181
32.3178
15.2915
8.15009
4.59832
2.69658
1.6344
1.03069
0.68446
0.485339
402.754
105.747
43.5283
21.8155
12.268
7.3372
4.5645
2.92348
1.92447
1.30657
0.9215
502.751
140.444
61.5892
32.8068
19.5534
12.438
8.24969
5.63804
3.95067
2.83646
2.0924
701.413
212.12
98.2925
54.957
34.3361
22.9807
16.1009
11.6743
8.7143
6.68012
5.25443
1284.56
362.294
187.683
118.603
83.0571
61.3241
46.5641
36.648
29.6644
24.5086
20.3531
3.06936
3.64976
5.92206
22.907
37.7868
49.9031
59.9766
68.836
75.6261
1.89916
2.48381
9.15557
15.0348
17.9151
19.2189
20.1547
21.6792
22.9887
2.06424
2.6747
8.53092
11.671
11.4113
10.1744
9.82471
10.6669
11.7399
2.22278
2.98592
7.30971
8.22032
6.87728
5.65231
5.33545
5.80234
6.45788
2.18976
11.4671
31.787
47.8449
59.191
67.6069
73.226
75.4051
76.0529
4.44344
10.7915
16.8013
19.1353
19.4623
19.8832
21.0492
22.0229
23.3773
4.40003
9.04439
11.7024
11.0815
9.69
9.50581
10.5157
11.5689
12.2768
3.91227
6.83917
7.72106
6.45117
5.41855
5.18222
5.70045
6.43549
6.77702
0.00901681
0.00829379
0.00834745
0.00544696
0.464157
0.00756306
0.128779
0.00808244
0.00753721
0.00693185
0.46682
0.00811888
0.0103357
0.0051838
0.0146113
0.00728333
0.00618055
0.00535728
0.0072465
0.00710283
0.00664581
0.0604044
0.00852165
0.12188
0.0079259
0.00512386
0.00996741
0.121741
1.6615
0.382884
0.00737226
0.00643189
0.00700729
0.00806477
0.00678584
0.00826335
0.111536
0.00790975
0.00789334
0.00759607
0.228825
0.00809621
0.0380365
0.0084965
0.764744
0.276272
0.0183906
0.37039
0.0069273
0.00731763
0.387838
0.0076139
0.0446976
0.0386964
0.00730999
0.00667303
0.057888
0.00763472
1.64054
0.0154907
0.118702
0.032986
0.50803
0.0347333
0.238966
0.00714002
0.37431
0.00707576
0.0082964
0.00691259
0.00515094
0.00718214
0.0144404
0.0080545
0.0112619
0.0071362
0.0766767
0.00827794
0.0556493
1.00604
0.281745
0.0261535
0.00793366
0.00838012
0.00697298
0.0144996
2.55739
0.0261247
0.01954
0.110789
0.00809077
0.00766816
0.22595
0.00727793
0.977474
0.497949
0.00631268
0.00596579
0.0248701
0.00742106
0.00788938
0.356589
0.0067911
0.00616891
0.0150521
0.00811566
0.00461072
0.00845263
0.0155597
0.00671363
0.00796587
0.00814786
0.00720219
0.00648327
0.0212603
0.00769255
0.00755151
0.00731555
0.00792439
0.00673233
0.00695782
0.00776186
0.00843493
0.00507179
0.260652
0.00721522
0.341769
0.00472986
0.00657958
0.00955975
0.00778758
0.015617
0.362328
0.00714375
0.00834156
0.00813375
0.0656893
0.0157309
0.406163
0.00734652
0.0396954
0.00661683
0.217459
0.00868059
0.00752151
0.0251277
0.0165649
0.0070966
0.00714334
0.00705746
0.00714322
0.00766802
0.0277685
0.00774703
0.00606615
0.019881
0.0191487
0.0440813
0.00543936
0.00746791
0.00549325
0.0338783
0.00717653
0.00772265
0.381599
0.0268494
0.020075
0.00741038
0.00645142
0.226762
0.00583732
0.00541898
0.00762215
0.00646157
0.00642118
0.00641919
0.00580901
0.0291589
0.782138
0.0069599
0.00711366
0.0673031
0.00849826
0.119224
0.00793754
0.012511
0.00706216
0.00726421
0.00824825
0.0796755
0.0145124
0.00530975
0.00718492
0.211261
0.00832468
0.0076023
0.00742608
0.025884
0.0103076
0.00856739
0.0270102
0.00728514
0.0137035
0.00798904
0.00838775
0.0265521
0.00723423
0.00654232
0.00738915
0.00740586
0.130205
0.00759375
0.00827113
0.00671967
0.00791242
0.0126293
0.00797695
0.0246036
0.00711641
0.0111665
0.0103925
0.0065296
0.00645707
0.0214164
0.004856
0.00765086
0.0776748
0.0247135
0.0127324
0.152251
0.0428849
0.00713314
0.0071168
0.00784816
0.0279624
1.62527
0.336708
0.00845174
0.00813851
0.00809629
0.0246643
0.0328571
0.00613851
0.163411
0.00733553
0.0402596
0.00800353
0.0083127
0.493888
0.357976
0.00826051
0.132511
0.00969264
0.00726172
0.00603334
0.00746477
0.00674138
0.00786184
0.0196614
0.00704051
0.00837985
0.0100944
0.0073799
0.00819456
0.00796011
0.0166345
0.00661446
0.00711584
0.0176531
0.00694448
0.217774
0.00728964
0.00726096
0.0173526
0.00755748
0.00735989
0.00540483
0.00775865
0.00692708
0.0187194
0.00728887
0.00828141
0.284524
0.313361
0.00604296
0.00758366
1.597
0.00824035
0.00683995
0.0388696
0.00834465
0.117722
0.00765294
0.00944081
0.00856394
0.00742114
0.00638563
0.00815943
0.00679415
0.00540519
0.00776119
0.00902434
0.00708157
0.391288
0.00677746
0.00669735
0.00828002
0.0795668
0.0642645
0.00743748
0.0864329
0.00816191
0.00646047
0.00678677
0.0831348
0.00655467
0.00706704
0.014692
0.0067109
0.00756655
0.00706395
0.210609
0.00746368
0.00538124
0.0239339
0.00694893
0.00778478
0.0059361
0.00708884
0.127287
0.00702687
0.519971
0.0699403
0.00846907
0.0114867
0.640518
0.0160136
0.00823745
0.00784816
0.00587532
0.0298893
0.126399
0.00724574
0.0268713
0.198635
0.0808334
0.0217258
0.00753831
0.093061
0.375921
0.110637
0.00587725
0.00700603
0.00683376
0.0132053
0.00860271
0.0109953
0.00695816
0.00850073
0.179136
0.00986721
0.00536663
0.0080028
0.00798847
0.00727813
0.0189609
0.00510425
0.0157554
0.140422
0.0082392
0.00773661
0.110182
0.579539
0.00477397
0.0119988
0.00831413
0.00904981
0.00674721
0.00751543
0.00707881
0.242852
0.00754997
0.0247953
0.00767224
0.00527153
0.330414
0.00842082
0.00481862
0.0313679
0.0224463
0.00770147
0.0549763
0.0046758
0.00817655
0.348287
0.252195
0.00787199
0.00719301
0.00836382
0.0346155
0.0193691
0.00764807
0.00851073
0.0399165
0.00761266
0.285595
0.0531657
0.0331844
0.00728234
0.208834
0.00713161
0.00719805
0.0112152
0.0106528
0.0306063
0.00639926
0.0147008
0.00865729
0.00485949
0.0435014
0.285743
0.00617933
0.15196
0.0138591
0.00628685
0.00668042
0.00799323
0.0281621
0.0128756
0.252593
0.00789675
0.0245769
0.00509483
0.00663057
0.00801421
0.0138757
0.198297
0.413348
0.00512468
0.00860032
0.00597213
2.5569
0.00508873
0.00868861
0.00689722
0.023325
0.014948
0.0429618
0.00740826
0.0350936
0.00774121
0.0083351
0.00793766
0.0314765
0.0193814
0.155046
0.00580202
0.0288459
0.0266112
0.00825471
0.00739209
0.359135
0.00506673
0.00600519
0.0070723
0.145045
0.115845
0.0902243
0.0916647
0.00703692
0.00657752
0.0167783
0.006985
0.116771
0.00696899
0.00822985
0.00732634
0.0347624
0.0329789
0.0070862
0.00778604
0.00669742
0.0950143
0.0706878
0.008454
0.0241661
0.239409
0.0094106
0.0155651
0.00740398
0.0282518
0.00759321
0.00696064
0.00763545
0.00826637
0.00641234
0.00715095
0.00536155
0.0085307
0.00709166
0.00565497
0.00590254
0.00806118
0.0080646
0.523153
0.0190558
0.0129301
0.00703112
0.31269
0.00835702
0.276265
0.0162625
0.0241228
0.0222557
0.00803846
0.336295
0.0313436
0.00533253
0.00778645
0.00634867
0.00667503
0.00827537
0.00768797
0.00818134
0.00685223
0.235667
0.00798576
0.0074498
0.0872445
0.00773555
0.194328
0.00663367
0.062176
0.00559895
0.0191403
0.00856282
0.007865
0.00841688
0.192976
0.033991
0.00795003
0.00791487
0.00504998
0.00834781
0.00568568
0.0083105
0.187747
0.00682677
0.047855
0.00842099
0.0076228
0.290834
0.288906
0.00680862
0.00659895
0.00709844
0.00830389
0.013827
0.0406429
0.00721093
0.00895162
0.469223
0.541668
0.00792036
0.00730741
0.00828004
0.0151269
0.349898
0.0191442
0.00807786
0.00752703
0.313291
0.00719934
0.00855553
0.0071345
0.0417073
0.361613
0.00771911
0.0206428
0.00782084
0.0323837
0.00737251
0.0107543
0.00606808
0.0064347
0.0868999
0.0370885
0.00842324
0.00854794
0.964582
0.00763767
0.0061583
0.0092766
0.0327258
0.0126984
0.0297634
0.00754272
0.00690836
0.00773984
0.00790235
0.467275
0.0156228
0.0121167
0.00710976
0.00795009
0.0428026
0.00701921
0.00742396
0.006999
0.00711562
0.00828636
0.0151756
0.0322712
0.0181323
0.00622232
0.0102612
0.00723952
0.0587825
0.0070952
0.00778759
0.507725
0.183328
0.00755421
0.0075698
0.0638228
0.00674844
0.00737385
0.0194602
0.00831498
0.00681765
0.0101159
0.00906532
0.00828488
0.00489309
0.00570932
0.0385273
0.140263
0.0326419
0.0328878
0.00626144
0.0203679
0.0269547
0.00849343
0.0083637
0.00682233
0.0248417
0.00607916
0.00696555
0.00734949
0.00511876
0.0394573
0.465914
0.00608508
0.00720019
0.0076956
0.0127113
0.0081188
0.00722776
0.00694534
0.0132097
0.00702933
0.00704113
0.0068904
0.00825442
0.0118673
0.0558973
0.148102
0.00708496
0.00698625
0.00754998
0.0456015
0.00746984
0.128644
0.00719503
0.0164038
0.183357
0.00771444
0.0164775
0.00849589
0.00682513
0.0176706
0.00838501
0.451173
0.00556332
0.00667252
0.00841691
0.0124881
0.00509391
0.0328793
0.348566
0.00750991
0.0064193
0.00840327
0.00784457
0.00692727
0.0212459
0.00812662
0.00763149
0.00761428
0.0100665
0.0275662
0.00816104
0.00764745
0.0075089
0.0232813
0.00546948
0.00649015
0.0113347
0.132701
0.00933038
0.00634471
0.00635291
0.00836758
0.0394532
0.00640666
0.137298
0.00783899
0.00680841
0.00790816
0.00702334
0.0809338
0.0116014
0.0296329
0.0051689
0.00721567
0.00681004
0.0067055
0.0270185
0.00823621
0.300683
0.0371591
0.180203
0.00667222
0.0102566
0.0294175
0.0126198
0.00773932
0.00877808
0.033572
0.0123781
0.00802664
0.00539259
0.437867
0.00811241
0.179154
0.0092574
0.00811774
0.0154858
0.00755609
0.00695495
0.00682549
0.00777863
0.00731115
0.00479604
0.00818676
0.00686097
0.00713478
0.00911319
0.0188943
0.156174
0.014852
0.00722483
0.173582
0.272844
0.00782457
0.00483426
0.00710864
0.0269889
0.00972355
0.0458651
0.00748434
0.0209531
0.00846739
0.00876035
0.00720069
0.00694738
0.00766222
0.01289
0.0542214
0.00860489
0.00788908
0.00742717
0.2517
0.210181
0.00750769
0.00819351
0.00698053
0.00790162
0.00813588
0.00821573
0.00838157
0.00787724
0.00726926
0.00564148
0.0518378
0.090493
0.00480669
0.00802085
0.00770303
0.00792953
0.00671538
0.225466
0.00827549
0.00637853
0.00757289
0.286442
0.131468
0.0377999
0.00779097
0.0162741
0.00771608
0.0078215
0.243114
0.00714937
0.00815433
0.00736258
0.0416047
0.00603096
0.00593887
0.00813713
0.0105955
0.163612
0.0192739
0.00814959
0.00473766
0.0313959
0.0276136
0.0193782
0.00842851
0.00717828
0.00521619
0.0136933
0.0247394
0.00829227
0.00689308
0.00796835
0.00735219
0.00824571
0.00741084
0.00624919
0.179068
0.215874
0.0386768
0.00809368
0.469105
0.00853118
0.0071802
0.00826244
0.00789441
0.00765855
0.00767727
0.0142415
0.022872
0.0200308
0.00764807
0.0111242
0.00768418
0.00859881
0.00732008
0.0075541
0.0074259
0.00792689
0.00814512
0.0072032
1.82832
0.00754745
0.00712781
0.0106556
0.156499
0.00709021
0.0079641
0.0184741
1.47821
0.00697488
0.00779795
0.0108546
0.0130928
0.00846633
0.00808489
0.00692937
0.00860468
0.0530541
0.00827521
0.0854202
0.00951015
0.142355
0.0079914
0.00820933
0.00621507
0.0288521
0.00775518
0.00776527
0.00704224
0.00831414
0.00596458
0.215479
0.0065577
0.0270741
0.243639
0.0275503
0.00605453
0.041518
0.00851176
0.00813898
0.00513284
0.00825122
0.00609864
0.00761705
0.29172
0.00721926
0.0106129
0.0073017
0.00463882
0.00534136
0.0197342
0.00797046
0.00694594
0.00804253
0.275541
0.061072
0.360004
0.00694435
0.00987287
0.00707561
0.00776858
0.293328
0.00753573
0.00830411
0.0060984
0.236776
0.0323287
0.0402083
0.00718429
0.00534159
0.0129177
0.573752
0.0080163
0.00721335
0.369798
0.00760309
0.0193831
0.00791631
0.0890762
0.00817003
0.0301782
0.00830268
0.00729105
0.00845559
0.00764525
0.0146612
0.00657866
0.00709112
0.0078034
0.00720879
0.0100917
0.0096216
0.0400977
0.0073707
0.00687103
0.281331
0.0232903
0.0462859
0.00832418
0.0420555
0.00727657
0.00828257
0.0265886
0.00646682
0.0357335
0.356676
0.00610762
0.0133524
0.00653625
0.0074097
0.0177718
0.0170692
0.00700163
0.0498966
0.00813074
1.38663
0.0413289
0.444646
0.00812774
0.0209723
0.0117916
0.31131
0.00773584
0.00536558
0.0085554
0.00465155
0.117116
0.00815383
0.0089039
0.00799694
0.0284127
0.220874
0.0081473
0.00778742
0.00735138
0.0450485
0.00693827
0.213108
0.0109368
0.0611171
0.347952
0.0082814
0.0160282
0.0316985
0.0296002
0.0875243
0.0233924
0.00757047
0.0114238
0.00491566
0.00810033
0.0078989
0.0085655
0.00873804
0.00663483
0.00832218
0.00556161
0.0398103
0.00485753
0.00801887
0.101563
0.014594
0.00689442
0.0109605
0.00813524
0.00708919
0.00735529
0.194712
0.00702424
0.0165053
0.0061745
0.0240567
0.007962
0.00694857
0.00796103
0.00753047
0.0177814
0.0414536
0.04142
0.65841
0.244199
0.613228
0.00685848
0.00739393
0.00930713
0.00838728
0.00587972
0.0210499
0.00689376
0.128524
0.00612857
0.153928
0.00688208
0.00497135
0.0081182
0.298892
0.008627
0.487406
0.00637534
0.00834782
0.0466111
0.0604512
0.00683873
0.0261997
0.0317284
0.0561194
0.129506
0.0199429
0.226634
0.00946934
0.00718718
0.282235
0.0191718
0.0083307
0.00634382
0.00722392
0.00503971
0.00529463
0.00983861
0.00773182
0.0165537
0.652015
0.00752096
0.00712607
0.00711532
0.00818587
0.00964549
0.00542078
0.00700775
0.00558993
0.381481
0.00704397
0.631861
0.072712
0.00778221
0.188695
0.0490052
0.017578
0.00664458
0.141286
0.00768997
0.00803998
0.347615
0.00751213
0.00824342
0.00578404
0.00809667
0.00721339
0.165369
0.00792838
0.550544
0.0134335
0.0191682
0.00722555
0.0123974
0.0291331
0.00617677
0.261234
0.00776793
0.0110211
0.027739
0.00703088
0.0148249
0.0304096
0.0227899
0.00747175
0.0327371
0.0786442
0.00644725
0.00732616
0.0276131
0.00695154
0.0192738
0.0242414
0.355715
0.00712528
0.00860289
0.00797227
0.00628549
0.00808519
0.00478213
0.0381675
1.44893
0.00827314
0.0240173
0.0280436
0.00819995
0.0344563
0.00709442
0.00697219
1.71358
0.040512
0.337847
0.165268
0.00815596
0.00792862
0.0220739
0.222716
0.201073
0.2379
0.00494408
0.00816906
0.00714318
0.00624648
0.235968
0.0478093
0.00860424
0.00739028
0.0279963
0.0237723
0.0353873
0.00680477
0.0929396
0.21614
0.00638927
0.00560154
0.0072604
0.00722781
0.216377
0.00540305
0.00848554
0.0151209
0.00775902
0.00647012
0.364118
0.00895889
0.0104518
0.0332037
0.0109766
0.00752293
0.182967
0.0194636
0.00835999
0.00455713
0.0185527
0.00660745
0.348361
0.00806676
0.00768442
0.00702351
0.147992
0.00611307
0.00745994
0.0318005
0.00833628
0.00814418
0.00859551
0.00535314
0.00770914
0.0364772
0.0193685
0.00814635
0.464924
0.0360549
0.00833196
0.0314782
0.00809866
0.00518427
0.0324856
0.00801427
0.00816045
0.00788017
0.00729996
0.00793641
0.00716706
0.00817958
0.0518635
0.0352061
0.00606976
0.0428526
0.00691582
0.0201693
0.0191736
0.00855531
0.00663485
0.015904
0.00488751
0.00674775
0.0059121
0.00667414
0.00682964
0.00794549
0.0380067
0.172239
0.0240707
0.101222
0.00859361
0.0121124
0.367508
0.0165707
0.0125645
0.00759675
0.0336933
0.0141669
0.189359
0.004794
0.0203595
0.0324632
0.00646539
0.00795752
0.917958
0.00482656
0.00672863
0.0293993
0.0281665
0.00584399
0.0121317
0.0144121
0.00463475
0.579315
0.768353
0.00789831
0.00709686
0.0148601
0.0421502
0.0104504
0.00811221
0.00659657
0.0083922
0.00749711
0.08056
0.0076181
0.00846209
0.136785
0.00839568
0.00728982
0.00770509
0.00758435
0.00676522
0.0085818
0.00721783
0.00999785
0.00704335
0.00879493
0.00803128
0.0312311
0.00818171
0.0178576
0.00769872
0.0209403
0.00838329
0.00767843
0.0584836
0.239873
0.00705657
0.00780997
0.0076034
0.0219897
0.00826411
0.00935999
0.00834546
0.00740786
0.00623129
0.00730502
0.0310364
0.00513019
0.0613014
0.0084848
0.00864895
0.00788298
0.00670326
0.00852177
0.00831016
0.00802181
0.158609
0.00746548
0.0163232
0.00789908
0.00800028
0.480979
0.00845021
0.00855174
0.143484
0.200992
0.0139297
0.00755068
0.0199032
0.00788541
0.0104362
0.01181
0.0106965
0.00736632
0.00625373
0.0259527
0.00764449
0.0321273
0.00701025
0.0153449
0.0267714
0.00801183
0.00819557
0.00761413
0.137682
0.0146546
0.00498822
0.0303276
0.00642665
0.00597742
0.0084024
0.0104302
0.030179
0.00751932
0.00811472
0.0385184
0.00694882
0.00687178
0.00688326
0.00546478
0.00789835
0.0282583
0.0302867
0.00688402
0.0177721
0.00797977
0.00706677
0.00703324
1.01801
0.00974366
0.00740924
0.169503
0.0321514
0.00820342
0.00706398
0.0289708
0.0105767
0.0066312
0.00721424
0.0157458
0.038422
0.00755393
0.00693849
0.0764542
0.00715193
0.00830083
0.00735203
0.00691975
0.00814603
0.0249433
0.0076401
0.0316816
0.00633063
0.0134066
0.00812739
0.00502986
0.0280531
0.00691372
0.021317
0.00765044
0.00733367
0.0394849
0.0136555
0.00560347
0.00845536
0.00728671
0.270219
0.00795883
0.0069817
1.99865
0.00675154
0.00706172
0.00701802
0.00698375
0.00646466
0.00632803
0.0155744
0.00516224
0.0162307
0.00706242
0.00760357
0.0155517
0.00454246
0.00748366
0.00646976
0.00564206
0.00729845
0.265559
0.00856026
0.0265802
0.007488
0.00689308
0.00587536
0.0072774
0.012425
0.0079557
0.00720988
0.00671523
0.00756685
0.00837147
0.0341137
0.0221893
0.0110181
0.0108207
0.0376943
0.00681255
0.00757748
0.00746567
0.210776
0.00730854
0.00658196
0.329269
0.00703294
0.213686
0.158167
0.00693309
0.0080999
0.00691603
0.00534956
0.00493758
0.00689915
0.00794557
0.0230334
0.0369094
0.00476773
0.0349752
0.00781299
0.0726152
0.0126812
0.940259
0.0108721
0.0116734
0.00499379
0.00828548
0.00687856
0.0248177
0.00790362
0.0110514
0.00532628
0.012161
0.0052294
0.0613832
0.0188877
0.0242447
0.261933
0.00780172
0.347477
0.00968133
0.00651113
0.0060076
0.00869733
0.00840237
0.602803
0.00781271
0.286863
0.299708
0.00507251
0.193843
0.0246933
0.301201
0.00738254
0.00768911
0.0074094
0.00726019
0.00765443
0.00621503
0.00699263
0.0222373
0.00740794
0.205189
0.0162356
0.00764272
0.00818001
0.0100582
0.117684