/*--------------------------------*- C++ -*----------------------------------*\
| =========                 |                                                 |
| \\      /  F ield         | OpenFOAM: The Open Source CFD Toolbox           |
|  \\    /   O peration     | Version:  3.0.1                                 |
|   \\  /    A nd           | Web:      www.OpenFOAM.org                      |
|    \\/     M anipulation  |                                                 |
\*---------------------------------------------------------------------------*/
FoamFile
{
    version     2.0;
    format      ascii;
    class       volScalarField;
    location    "0.902659";
    object      k;
}
// * * * * * * * * * * * * * * * * * * * * * * * * * * * * * * * * * * * * * //

dimensions      [0 2 -2 0 0 0 0];

internalField   nonuniform List<scalar> 
21246
(
0.52318
0.91995
0.875092
0.80732
0.672301
0.483362
0.322836
0.217129
0.151862
0.108548
0.0799358
0.430034
0.673706
0.739932
0.730466
0.656012
0.513539
0.352652
0.220397
0.143398
0.0982242
0.0703831
0.29326
0.495923
0.604299
0.634756
0.604646
0.509054
0.372445
0.238045
0.146208
0.0917244
0.0621255
0.165131
0.397967
0.497648
0.543805
0.540849
0.481009
0.373791
0.250587
0.152819
0.091206
0.0573877
0.0971766
0.347102
0.424397
0.467913
0.477154
0.441138
0.360048
0.253847
0.158222
0.0925173
0.054795
0.0808947
0.296207
0.369026
0.405687
0.418167
0.396636
0.336119
0.247738
0.15953
0.093514
0.0533328
0.0747873
0.233021
0.317941
0.352061
0.364572
0.351333
0.305984
0.233748
0.155531
0.0925109
0.0519026
0.0649101
0.183394
0.260012
0.30234
0.31561
0.307155
0.272656
0.213991
0.146439
0.0887639
0.0496893
0.0561099
0.146027
0.207816
0.251888
0.270366
0.265145
0.238523
0.190877
0.133563
0.0825386
0.0465479
0.0484153
0.117402
0.166016
0.205069
0.227729
0.226014
0.205407
0.166698
0.11874
0.0747989
0.0428592
0.0420054
0.0956602
0.133862
0.165916
0.188882
0.190479
0.174709
0.143392
0.10382
0.0668015
0.0391192
0.0371329
0.0797105
0.110185
0.13548
0.156092
0.159631
0.147829
0.122744
0.0905137
0.0597384
0.0360032
0.0333442
0.0680023
0.0933409
0.113194
0.130346
0.134616
0.126091
0.106297
0.0802143
0.0545567
0.0339974
0.0304427
0.0592758
0.0817068
0.0974889
0.111271
0.115885
0.110115
0.0947681
0.073557
0.051702
0.0332612
0.0284827
0.0531574
0.0737067
0.0867286
0.0981892
0.103024
0.0995877
0.0879081
0.0704012
0.0511626
0.0339318
0.0268384
0.0488827
0.0683239
0.079708
0.0898452
0.095091
0.0937704
0.085171
0.070464
0.0528572
0.0359891
0.0252692
0.0458097
0.0646631
0.0752403
0.0849686
0.0911824
0.0921751
0.0864081
0.0738405
0.0570065
0.0395846
0.023689
0.0436966
0.0621337
0.0724747
0.0828921
0.0912981
0.0954592
0.0926655
0.0816574
0.0645792
0.0455236
0.0220975
0.0423261
0.0601413
0.0710706
0.0842353
0.0972028
0.106315
0.106776
0.0963402
0.0773881
0.0548096
0.0203991
0.0413595
0.0591292
0.0733172
0.0932275
0.114546
0.130126
0.133222
0.1212
0.0977259
0.0692507
0.0222609
0.0511269
0.0647898
0.0807865
0.111785
0.141311
0.159498
0.164866
0.153847
0.12537
0.0894198
0.0362766
0.0576483
0.0709007
0.113793
0.15327
0.182275
0.200242
0.204945
0.193587
0.162559
0.116165
0.0388364
0.099084
0.140734
0.183545
0.217002
0.236577
0.242011
0.236869
0.22454
0.199457
0.153203
0.16279
0.207764
0.252625
0.280246
0.289729
0.282132
0.263283
0.241532
0.223823
0.207914
0.177857
0.559715
0.924967
0.915175
0.812223
0.652807
0.479346
0.335829
0.236932
0.171121
0.124265
0.0910266
0.343034
0.613942
0.745441
0.766488
0.688086
0.546939
0.399909
0.286289
0.207573
0.150099
0.107065
0.154881
0.355693
0.534449
0.658338
0.68682
0.611156
0.476911
0.349859
0.256215
0.186384
0.132452
0.0743056
0.175521
0.323173
0.483129
0.601658
0.62251
0.539521
0.416842
0.313285
0.231862
0.165292
0.0689115
0.122302
0.201177
0.322381
0.460649
0.558641
0.555437
0.46771
0.370664
0.286853
0.212779
0.0723493
0.122208
0.174516
0.246251
0.348814
0.463242
0.519203
0.472895
0.388613
0.320595
0.254468
0.0766031
0.127947
0.173064
0.22658
0.299586
0.393616
0.473404
0.465994
0.38311
0.321127
0.273122
0.0812729
0.135088
0.176792
0.221265
0.277782
0.35521
0.437056
0.462461
0.389296
0.312339
0.276551
0.0861514
0.143135
0.183006
0.220903
0.264804
0.327346
0.404688
0.449881
0.402252
0.308406
0.267006
0.0910764
0.15194
0.190731
0.222776
0.255934
0.304148
0.372266
0.429276
0.408089
0.315457
0.251883
0.0960358
0.161315
0.199299
0.225539
0.249672
0.284329
0.339772
0.401202
0.404547
0.323877
0.242251
0.101192
0.171226
0.208889
0.229316
0.245735
0.26824
0.309428
0.368456
0.391586
0.328194
0.238461
0.106642
0.181047
0.218257
0.234252
0.243526
0.255741
0.282691
0.33204
0.370718
0.327447
0.238017
0.112832
0.191237
0.228023
0.239717
0.242417
0.246802
0.263282
0.297291
0.337459
0.320329
0.236938
0.118992
0.202151
0.238616
0.245898
0.241775
0.238447
0.245986
0.267869
0.298272
0.300236
0.23979
0.125495
0.214547
0.251149
0.253916
0.242347
0.230582
0.229126
0.241896
0.263236
0.271593
0.241917
0.132592
0.229386
0.267036
0.265577
0.246033
0.225127
0.215313
0.220601
0.234695
0.243697
0.23216
0.140528
0.248035
0.288684
0.284329
0.256679
0.22498
0.205783
0.20396
0.211897
0.219471
0.217858
0.149573
0.272342
0.319797
0.315777
0.279329
0.234128
0.203933
0.192951
0.193626
0.197177
0.197086
0.158394
0.301685
0.358388
0.354513
0.310859
0.255181
0.212747
0.191195
0.18395
0.182275
0.180294
0.161505
0.325721
0.38776
0.38888
0.344696
0.281746
0.229193
0.199095
0.186495
0.182739
0.182019
0.164029
0.336736
0.403526
0.407376
0.364979
0.301054
0.244529
0.209795
0.194369
0.190773
0.19476
0.173243
0.341831
0.394208
0.396569
0.359744
0.30442
0.252869
0.218346
0.201134
0.195633
0.197631
0.238325
0.341377
0.364227
0.354848
0.32743
0.289802
0.252346
0.223264
0.206177
0.198014
0.187549
1.29842
1.78442
1.22109
0.732635
0.41445
0.22977
0.126611
0.0694878
0.0381558
0.0213967
0.0129412
0.868154
1.20169
0.958498
0.64016
0.390829
0.228256
0.129018
0.0709815
0.038494
0.0211891
0.0125709
0.618017
0.981651
0.871355
0.647519
0.419169
0.25313
0.145895
0.0809268
0.043627
0.0234693
0.0135077
0.504365
0.773335
0.741252
0.615679
0.436693
0.277238
0.163117
0.0912551
0.0493153
0.0263491
0.014838
0.44951
0.654063
0.635755
0.549903
0.407683
0.268956
0.162544
0.0924899
0.0504278
0.0269772
0.0150495
0.414218
0.565548
0.556801
0.486096
0.363653
0.245148
0.152676
0.0897001
0.0503119
0.0275128
0.0156756
0.389098
0.499117
0.492552
0.429403
0.323861
0.221495
0.140961
0.0850623
0.0490823
0.0275245
0.0159008
0.370216
0.447232
0.440168
0.38187
0.288907
0.199333
0.128886
0.0795178
0.0470836
0.0271339
0.0163465
0.355524
0.405905
0.397621
0.343208
0.2598
0.180237
0.117938
0.0741333
0.0449852
0.0266706
0.0165021
0.343637
0.372069
0.363081
0.31237
0.236518
0.16472
0.10877
0.0694161
0.0430121
0.0261008
0.016353
0.333808
0.343779
0.334617
0.287544
0.21793
0.152308
0.101322
0.0654618
0.0412376
0.0254616
0.0163141
0.325726
0.32
0.31078
0.26709
0.202822
0.142303
0.0953172
0.0622453
0.0397718
0.0249422
0.0162382
0.319465
0.299807
0.290891
0.250466
0.190821
0.134503
0.0907006
0.0598122
0.0387096
0.024618
0.0162023
0.314948
0.282605
0.274399
0.237356
0.181784
0.128849
0.0874704
0.0581984
0.0380856
0.0244796
0.0162873
0.311745
0.26792
0.26046
0.226841
0.175026
0.124955
0.0854533
0.0573561
0.0379181
0.0245815
0.016446
0.310133
0.255172
0.248729
0.21871
0.170468
0.122833
0.0847025
0.0573504
0.0382765
0.0249751
0.0167648
0.309869
0.244188
0.238477
0.212523
0.168225
0.122843
0.0855609
0.0583565
0.0392736
0.025733
0.0172731
0.310686
0.234675
0.229055
0.207118
0.16727
0.124433
0.0878867
0.060575
0.041114
0.0270974
0.0182072
0.312815
0.226407
0.220296
0.202309
0.167401
0.127548
0.0917815
0.064048
0.0438721
0.0291975
0.019626
0.316711
0.219238
0.211949
0.197756
0.168253
0.132021
0.0973829
0.0691245
0.0479132
0.0323146
0.021782
0.323154
0.213151
0.203683
0.192924
0.169154
0.137389
0.104688
0.0762542
0.0538884
0.0370402
0.0252029
0.333957
0.207615
0.195192
0.187063
0.169038
0.142705
0.11331
0.0857531
0.0626173
0.0443564
0.0308048
0.349042
0.202008
0.185413
0.17964
0.167205
0.147046
0.122504
0.0974839
0.0746979
0.0553909
0.0399962
0.362296
0.197907
0.18346
0.175754
0.16589
0.150782
0.131552
0.110488
0.0896838
0.070541
0.0539537
1.30632
2.26937
1.42376
0.940686
0.582313
0.315633
0.163776
0.0854965
0.0451881
0.0243991
0.0142038
1.21802
1.86155
1.46734
1.07104
0.740135
0.42716
0.227125
0.117083
0.0595749
0.0305297
0.0170026
0.995439
1.45272
1.36214
1.07961
0.799821
0.516266
0.293281
0.157453
0.0803677
0.0403481
0.0215742
0.711372
1.25097
1.24836
1.03966
0.803913
0.557549
0.348733
0.198965
0.10548
0.0537079
0.0286927
0.450866
1.22484
1.1838
1.00095
0.78892
0.571103
0.383464
0.23752
0.132567
0.0698793
0.0378798
0.362523
1.31855
1.18805
0.984556
0.773756
0.572331
0.403146
0.269094
0.160142
0.087741
0.0476417
0.408838
1.42696
1.2375
0.991172
0.764396
0.568969
0.413915
0.291622
0.186791
0.107336
0.059643
0.452794
1.5341
1.32246
1.02001
0.762123
0.564008
0.419097
0.307621
0.208743
0.127853
0.0735268
0.482568
1.59405
1.43033
1.07205
0.769045
0.559843
0.421107
0.319124
0.226833
0.146797
0.0877907
0.49664
1.59372
1.53916
1.14502
0.786752
0.558363
0.421745
0.327643
0.241993
0.163915
0.101947
0.497956
1.53939
1.62775
1.23339
0.81684
0.561655
0.422653
0.33443
0.255151
0.179619
0.115653
0.4939
1.47718
1.68658
1.32572
0.857049
0.569909
0.424563
0.340188
0.266857
0.194425
0.128759
0.487297
1.42182
1.70879
1.41149
0.906063
0.584055
0.428563
0.345762
0.277629
0.208734
0.141912
0.477154
1.35583
1.69218
1.48257
0.96253
0.605407
0.435959
0.352101
0.288067
0.222829
0.156368
0.467205
1.28434
1.64952
1.53161
1.02139
0.633253
0.447428
0.360058
0.298791
0.237105
0.172042
0.459326
1.20325
1.58614
1.55264
1.07696
0.666821
0.464014
0.370944
0.310814
0.252384
0.189116
0.448759
1.11725
1.49478
1.5398
1.12128
0.704185
0.486727
0.386528
0.325605
0.269692
0.208567
0.435219
1.02526
1.36882
1.48662
1.14309
0.740858
0.516505
0.409428
0.345445
0.290296
0.230727
0.421233
0.931628
1.21423
1.36352
1.13416
0.772675
0.55588
0.444706
0.375102
0.317289
0.257926
0.409128
0.83672
1.04136
1.15863
1.08778
0.806277
0.61406
0.502439
0.422938
0.356857
0.291796
0.39972
0.72372
0.851607
0.935457
0.963649
0.844204
0.684734
0.572026
0.477889
0.398648
0.323761
0.459426
0.745682
0.777493
0.799486
0.78688
0.739648
0.620399
0.516042
0.419729
0.333744
0.253301
0.354636
0.741802
0.804238
0.64155
0.525819
0.419073
0.331548
0.26083
0.202869
0.156292
0.118747
0.373304
0.293611
0.237415
0.203577
0.181356
0.162832
0.144845
0.126278
0.107323
0.0887285
0.0712576
0.382665
0.482975
0.183696
0.0903783
0.042351
0.0231221
0.0160636
0.0133059
0.0120061
0.0112377
0.0106563
0.423739
0.603294
0.240244
0.116258
0.0534817
0.0268447
0.016915
0.0132503
0.0116354
0.0107261
0.0100671
0.450042
0.560722
0.275643
0.141
0.0627411
0.0311516
0.0181921
0.0134359
0.01144
0.010373
0.0096241
0.453643
0.50803
0.287749
0.152371
0.0703669
0.0351782
0.0196335
0.0137816
0.011387
0.010172
0.00937814
0.437581
0.480049
0.291157
0.157537
0.0768063
0.0387271
0.0211268
0.0142566
0.0114577
0.0100968
0.00928147
0.408154
0.467674
0.294779
0.163324
0.0833133
0.0429684
0.022753
0.0148656
0.0116454
0.010127
0.0092773
0.370347
0.465021
0.30111
0.171302
0.0906215
0.0475466
0.0252038
0.0157326
0.0119481
0.0102478
0.00934116
0.328359
0.470249
0.310222
0.180866
0.0985698
0.0526389
0.0281547
0.0170319
0.0124648
0.0104659
0.00947084
0.286782
0.479216
0.323551
0.192541
0.107489
0.0585084
0.0316906
0.0187603
0.0132175
0.0108192
0.00967774
0.248333
0.488617
0.342571
0.207817
0.118304
0.0656379
0.0360598
0.021046
0.0142826
0.0113268
0.00997183
0.214056
0.500579
0.36706
0.226837
0.131186
0.0741109
0.0413665
0.0239835
0.0157387
0.0120368
0.0103688
0.186141
0.518348
0.397323
0.249394
0.145846
0.0836925
0.0475408
0.0276081
0.0176528
0.0130064
0.0109024
0.167273
0.539413
0.434475
0.27699
0.16318
0.094764
0.0547641
0.0320529
0.0201385
0.0143201
0.0116159
0.157468
0.558658
0.478615
0.31185
0.184852
0.108161
0.0634162
0.0375412
0.0233641
0.0160994
0.012586
0.156769
0.582108
0.530004
0.354653
0.211472
0.124205
0.073645
0.0441821
0.0274674
0.0184784
0.013922
0.164685
0.605957
0.587088
0.407674
0.245374
0.144292
0.0861602
0.0523451
0.032703
0.0216647
0.015772
0.177806
0.621694
0.644155
0.472763
0.290306
0.171063
0.10244
0.0628204
0.0395393
0.0259925
0.018385
0.18801
0.624156
0.691425
0.547456
0.349057
0.207549
0.12454
0.0768414
0.0487332
0.0319816
0.0221547
0.194231
0.612127
0.718055
0.623432
0.423437
0.258313
0.156266
0.0969373
0.0618654
0.0406537
0.0277828
0.19542
0.584553
0.713515
0.68272
0.509255
0.328395
0.203929
0.128059
0.0822929
0.0541992
0.036735
0.190872
0.530488
0.669856
0.703761
0.593022
0.421305
0.277678
0.179942
0.117363
0.0777089
0.0524407
0.203333
0.481223
0.609931
0.69365
0.657967
0.531366
0.387044
0.267677
0.181428
0.12273
0.0834339
0.189399
0.400307
0.477124
0.542699
0.563405
0.532316
0.456856
0.361016
0.27
0.1964
0.140201
0.243213
0.493816
0.496304
0.527415
0.533632
0.511754
0.464521
0.395687
0.322544
0.255671
0.197233
0.309116
0.326878
0.156185
0.0707301
0.0359313
0.0216856
0.0160859
0.0137325
0.0125984
0.0119557
0.0115114
0.256495
0.264262
0.134673
0.0751745
0.0399262
0.0240015
0.0174151
0.0146535
0.0133969
0.0127619
0.0123961
0.273132
0.281302
0.134939
0.0890081
0.0494962
0.0295422
0.0201646
0.0161934
0.0144919
0.0137427
0.013412
0.28715
0.269779
0.129762
0.094712
0.0563882
0.0354758
0.0242282
0.0188732
0.0164186
0.0153313
0.0149374
0.296452
0.240598
0.126646
0.0969215
0.0587636
0.0376409
0.0255781
0.0197825
0.0171616
0.0160731
0.0157717
0.302364
0.213477
0.12318
0.0949554
0.0584019
0.0383683
0.0262679
0.0203543
0.0176183
0.0164796
0.0161921
0.306384
0.192402
0.119467
0.0915058
0.0570079
0.0383867
0.0265143
0.0207002
0.0179605
0.016822
0.0165763
0.308689
0.176314
0.115651
0.0878701
0.0555791
0.0381685
0.0266244
0.0209983
0.0183015
0.0171829
0.0169627
0.310595
0.164049
0.112324
0.0849132
0.0546691
0.0379644
0.0267796
0.0213131
0.0186593
0.0175605
0.0173433
0.312848
0.155006
0.109661
0.082691
0.0543709
0.0379856
0.0270695
0.021682
0.0190478
0.0179706
0.0177804
0.315908
0.148523
0.107904
0.0815272
0.0546621
0.0383693
0.0275513
0.022131
0.0194648
0.0183816
0.0181636
0.319677
0.143672
0.106685
0.0812082
0.055484
0.0391351
0.0282486
0.0226793
0.0199153
0.0187955
0.0185735
0.324519
0.140158
0.106075
0.0816981
0.056905
0.0403541
0.0292174
0.0233628
0.0204134
0.0192066
0.0189946
0.32856
0.139194
0.106119
0.0829382
0.0591129
0.0422068
0.0306319
0.0242884
0.0210179
0.0196334
0.0193759
0.331751
0.139414
0.106399
0.0844486
0.0619205
0.0447131
0.0326616
0.0256372
0.0218783
0.0201782
0.019761
0.334264
0.140858
0.106961
0.0862153
0.06525
0.0479597
0.0354258
0.027576
0.023136
0.0209451
0.0202169
0.336233
0.143691
0.107934
0.088237
0.0690374
0.052022
0.039076
0.0303303
0.0250157
0.0221241
0.020885
0.337732
0.147703
0.109399
0.09046
0.0731427
0.0568823
0.0437465
0.0341598
0.0278343
0.0240256
0.0220363
0.338869
0.152848
0.111535
0.0928838
0.0774157
0.0624299
0.0495166
0.039335
0.0320016
0.0271169
0.024145
0.339831
0.159256
0.114648
0.0956048
0.0817116
0.0684184
0.0563084
0.0460264
0.0379465
0.0320105
0.0279285
0.340904
0.166861
0.119083
0.0988296
0.085907
0.0744254
0.0637118
0.0540564
0.0458438
0.0392415
0.0342159
0.342809
0.175139
0.124932
0.10281
0.0899022
0.0798039
0.0707445
0.0624106
0.0549301
0.0484747
0.0431499
0.34601
0.185093
0.132879
0.108094
0.0938579
0.0839304
0.0759165
0.0689793
0.06287
0.0575337
0.0529607
0.363891
0.197767
0.154708
0.133838
0.121441
0.112216
0.104541
0.101157
0.10054
0.101345
0.10187
0.0146701
0.0164151
0.0225265
0.0556192
0.0777342
0.0936804
0.106058
0.116536
0.12442
0.024309
0.0259069
0.0499555
0.0733092
0.10152
0.130656
0.157274
0.179988
0.200381
0.0301784
0.0320636
0.0609201
0.0891592
0.115381
0.135177
0.153204
0.176236
0.199148
0.0361765
0.0386217
0.0656531
0.0894742
0.108019
0.122358
0.136492
0.155681
0.174423
0.0117369
0.0355
0.0696333
0.0912377
0.10505
0.114815
0.121202
0.123814
0.124834
0.0319096
0.0539006
0.0790887
0.105275
0.131864
0.156669
0.17759
0.194583
0.209186
0.0395839
0.0646728
0.0921549
0.115586
0.134564
0.153785
0.177294
0.198128
0.209694
0.0440356
0.0665122
0.0904411
0.10795
0.123217
0.137836
0.155806
0.17449
0.182131
0.00442742
0.00460091
0.00461629
0.0021049
0.0470412
0.00439015
0.0113049
0.00453943
0.00438323
0.00424396
0.0468686
0.00455015
0.00375472
0.00328748
0.00448379
0.00430225
0.00331522
0.00208855
0.00429129
0.00424732
0.00411841
0.0045137
0.00466648
0.0187404
0.00449414
0.0032993
0.00380032
0.0110355
0.0915903
0.0486528
0.00341083
0.00410648
0.00300974
0.00453413
0.00426311
0.00459206
0.0174565
0.00448953
0.00293994
0.0043998
0.00718642
0.00454334
0.00666372
0.00465936
0.0613328
0.0131231
0.00322326
0.0208366
0.00429747
0.00431826
0.048887
0.00440468
0.0141335
0.00671348
0.00431567
0.00412486
0.00439619
0.0044107
0.0900165
0.00411636
0.00557813
0.0112477
0.0524675
0.00789046
0.00854536
0.00425821
0.0524942
0.00425206
0.00460165
0.00423275
0.00329653
0.00432156
0.00311351
0.00469382
0.00403345
0.00429091
0.00439078
0.00459635
0.00920022
0.07257
0.0464233
0.00632376
0.00449565
0.00462559
0.00437299
0.003139
0.103832
0.00861366
0.00311422
0.0186994
0.004542
0.00442006
0.00746969
0.00434645
0.0717047
0.0264501
0.00260392
0.00396647
0.00345684
0.0044239
0.00470186
0.0208432
0.00416679
0.00402722
0.00287997
0.0045492
0.00305053
0.00464637
0.00436354
0.00419869
0.00450546
0.00455835
0.00430016
0.00224135
0.00424617
0.00442454
0.00438728
0.00431331
0.00449299
0.00414059
0.00228772
0.00457655
0.00494683
0.00325978
0.0121567
0.00413944
0.0581413
0.00304773
0.00322378
0.003544
0.00445386
0.00410901
0.0206095
0.00429782
0.00461488
0.00454115
0.00410929
0.00427676
0.0497719
0.00447024
0.0069152
0.00412485
0.0241324
0.00402457
0.00437857
0.0032844
0.00439979
0.00425677
0.00432779
0.00423713
0.00426274
0.00441884
0.00352541
0.00456684
0.00223466
0.0036205
0.00380397
0.00392021
0.00320824
0.00435749
0.00364167
0.0042778
0.0043154
0.00443436
0.053638
0.00591774
0.00353613
0.00447549
0.00411646
0.00821385
0.00309628
0.00309913
0.00437392
0.00406021
0.00409652
0.00396486
0.00316274
0.00356696
0.0618343
0.00393066
0.00425925
0.00452015
0.00465961
0.0138852
0.00449679
0.00385704
0.00423993
0.00429755
0.00458757
0.0123422
0.00420048
0.00341087
0.00427132
0.00676922
0.00460984
0.0043985
0.00435197
0.00354251
0.00363213
0.00467916
0.00323998
0.00430956
0.00409854
0.0035103
0.00462812
0.00892254
0.00432496
0.00321607
0.00434022
0.00433822
0.0218567
0.00439564
0.00401474
0.00422386
0.00448974
0.0046899
0.00450885
0.00369318
0.00425594
0.00317834
0.00296256
0.00218478
0.00263141
0.00423874
0.00321838
0.0044154
0.00974122
0.00568307
0.0039562
0.0229394
0.0040111
0.00425561
0.00425519
0.00461429
0.00349027
0.0667932
0.0506942
0.00464636
0.00455592
0.0045436
0.00371243
0.00838005
0.00401828
0.00558771
0.00438461
0.00470254
0.00451625
0.00359789
0.0327945
0.0584147
0.00358486
0.0220861
0.0051077
0.004295
0.00396119
0.00436305
0.00414556
0.00447551
0.00322077
0.00423449
0.00339012
0.00453481
0.00432571
0.0045721
0.0045038
0.0030596
0.0041282
0.0042983
0.00559414
0.00372493
0.0217919
0.00430762
0.00430244
0.00312031
0.00438566
0.00432672
0.00332123
0.00444472
0.00428403
0.00319213
0.00437083
0.00459796
0.0466773
0.0475541
0.00396083
0.00439324
0.0779848
0.00458577
0.00425451
0.00673229
0.00461601
0.0115874
0.00458918
0.00292186
0.00467819
0.00434997
0.00410026
0.00456194
0.00426208
0.00334775
0.00444561
0.00244659
0.00437057
0.0490807
0.00415587
0.00419489
0.00459693
0.015607
0.0043792
0.00435201
0.00733739
0.00456271
0.0041
0.00300854
0.00496868
0.00410645
0.00370112
0.00324062
0.00413007
0.00447965
0.00423974
0.0362624
0.00435735
0.00339282
0.00550687
0.00426973
0.00445238
0.00371327
0.00423967
0.0268457
0.00425383
0.0530503
0.00393232
0.00465176
0.00359739
0.0407555
0.00343998
0.00458461
0.00447098
0.00394745
0.00393094
0.0210596
0.00429742
0.00573064
0.0206466
0.015782
0.00457755
0.00437996
0.0146464
0.0625275
0.00834477
0.00392972
0.00374218
0.00417279
0.00394613
0.00468916
0.00300065
0.00399802
0.0046605
0.0349018
0.00386345
0.00332417
0.00451642
0.00451169
0.00430947
0.00325198
0.00308843
0.00320666
0.00996029
0.00486317
0.00443839
0.0118855
0.0381298
0.00319972
0.00387984
0.0046072
0.00391806
0.00425023
0.00437289
0.004243
0.0389118
0.00438274
0.00322627
0.00442128
0.00339828
0.0503515
0.00236136
0.00320372
0.00815502
0.00338639
0.00442855
0.0053308
0.00310598
0.00476998
0.0520034
0.00878129
0.00447798
0.004277
0.00462193
0.00560485
0.00319977
0.00441128
0.00466359
0.00689954
0.00288489
0.00865937
0.00780029
0.00726698
0.00430868
0.036144
0.00434562
0.00427659
0.00379759
0.00372798
0.00411511
0.00407894
0.00422973
0.00494385
0.00314107
0.00497102
0.0317523
0.00321218
0.0118801
0.0041239
0.00398539
0.00418087
0.00466504
0.00482259
0.00512477
0.00993473
0.00448496
0.00322228
0.00342786
0.00410417
0.00456325
0.00317781
0.0258601
0.0488331
0.00327089
0.00468852
0.00396323
0.102695
0.00211502
0.00239777
0.00422467
0.00427391
0.00442594
0.00344174
0.00433956
0.00394894
0.00443992
0.00461261
0.00449738
0.00420922
0.00437231
0.0104083
0.0031067
0.0032554
0.00491487
0.00458929
0.00433465
0.0603653
0.00320209
0.00395236
0.00431271
0.00817056
0.00763504
0.00545505
0.00546768
0.00425578
0.00393567
0.00312867
0.00421735
0.00550104
0.00426507
0.00458256
0.00431873
0.00557831
0.00359348
0.00424629
0.00445273
0.00413489
0.0165759
0.00453594
0.00464711
0.0033098
0.0308359
0.00404669
0.00330343
0.00433789
0.00341484
0.00439587
0.00425781
0.00441099
0.00338002
0.00327079
0.0042614
0.00339709
0.00400244
0.00428583
0.00375238
0.00370193
0.00453318
0.00453409
0.0370636
0.00379573
0.00285462
0.00425733
0.0183174
0.00461898
0.0374661
0.00435351
0.0034401
0.00521998
0.00474327
0.0500233
0.00496377
0.00338588
0.00445262
0.00360733
0.00411992
0.00459616
0.00442419
0.0045685
0.00422043
0.0374537
0.00451106
0.00435187
0.0124785
0.00443833
0.0092772
0.00421913
0.0126859
0.00331551
0.00313285
0.00467785
0.00447636
0.00463721
0.00632925
0.00364837
0.00450062
0.00449073
0.00325152
0.00461704
0.00216873
0.00460618
0.0382021
0.00424114
0.004181
0.00295002
0.00333579
0.0142891
0.0395495
0.00416573
0.00412441
0.00430984
0.00460417
0.00317641
0.00335379
0.00423453
0.00355538
0.027311
0.0232571
0.0044926
0.00431896
0.00459723
0.00441281
0.0531944
0.00423037
0.00453821
0.00437967
0.0477765
0.00429885
0.00302424
0.00328438
0.00879285
0.0347464
0.00443414
0.00450976
0.00446352
0.00504819
0.0043364
0.003931
0.00318525
0.00409799
0.00515081
0.00753272
0.004639
0.00467383
0.0706319
0.00440892
0.00354562
0.00319083
0.00527384
0.00393952
0.00390326
0.00360685
0.00421488
0.00443995
0.00448643
0.0266484
0.0029902
0.00389966
0.00424915
0.00450121
0.00647886
0.00422879
0.00441624
0.00428527
0.00430197
0.00316203
0.003019
0.0052447
0.0056772
0.00401937
0.00513946
0.00428835
0.00997341
0.00427721
0.00445319
0.0330184
0.0292797
0.00438388
0.00438859
0.00403926
0.00415383
0.00432899
0.00565081
0.00460737
0.00421688
0.00326909
0.00293678
0.00382202
0.00313216
0.00318254
0.00544351
0.0252398
0.00495348
0.0062981
0.00354052
0.00342291
0.00460133
0.00349148
0.00462085
0.00417837
0.00559394
0.00394426
0.00421233
0.00447213
0.00343646
0.00679457
0.0313155
0.00361274
0.00444824
0.00442657
0.00521735
0.0045501
0.0042875
0.00427365
0.00344358
0.00425794
0.00426662
0.00420461
0.00458979
0.00391901
0.00622065
0.0221537
0.00427607
0.00422291
0.00399075
0.00804585
0.00443593
0.0155145
0.00430556
0.00523835
0.03309
0.00443249
0.00351602
0.00465877
0.00302482
0.00506027
0.00313524
0.0285829
0.00364964
0.00427436
0.00463608
0.00372668
0.00321208
0.00418413
0.0583758
0.00437143
0.00408423
0.00463218
0.00374795
0.00420431
0.00318566
0.00455243
0.00440989
0.00440222
0.00381566
0.00441917
0.0045623
0.00332145
0.00437326
0.00548127
0.00321844
0.00408362
0.00369479
0.00487702
0.00291322
0.00408443
0.00373723
0.00361186
0.00731208
0.00303444
0.0114477
0.00446807
0.00334306
0.0044886
0.00425116
0.00685051
0.00500328
0.00344054
0.00328264
0.00430196
0.00421662
0.00413249
0.00406007
0.004584
0.0561339
0.00629022
0.0367091
0.00416921
0.00397768
0.00617694
0.00388265
0.00457328
0.00346066
0.00371075
0.00289163
0.00452319
0.0033321
0.0260038
0.00454827
0.00915561
0.00350434
0.00471801
0.00504982
0.00438808
0.00424709
0.00422293
0.00336442
0.00438381
0.00320091
0.00457012
0.00303216
0.00431319
0.00294002
0.00376171
0.0252072
0.00426621
0.00428578
0.0228711
0.0138586
0.00446405
0.00320259
0.00385486
0.00468816
0.00512165
0.00397413
0.00450951
0.00422907
0.00295714
0.00496013
0.00427916
0.00436454
0.00441684
0.00339658
0.00364102
0.00468979
0.00448269
0.0045648
0.0316367
0.0354313
0.00359465
0.0045721
0.0033517
0.00470344
0.00455495
0.00457817
0.00462664
0.00447964
0.00435555
0.00316351
0.00517612
0.0103384
0.00308708
0.00456202
0.00442879
0.00449481
0.00376937
0.0336326
0.0045957
0.00413351
0.00352583
0.0170767
0.0212163
0.00465147
0.00392034
0.00366596
0.0044326
0.0044636
0.0115147
0.00421807
0.0045606
0.00448034
0.00902812
0.00400214
0.00390509
0.00455546
0.00409589
0.00592386
0.00366605
0.00455923
0.00309906
0.00542486
0.00440565
0.00397621
0.00463944
0.00427247
0.00206202
0.00293597
0.00438348
0.00460024
0.00420262
0.00465099
0.00433081
0.00458735
0.00284902
0.00344502
0.00877145
0.0140224
0.00655956
0.00454273
0.051912
0.00466888
0.00429854
0.00487881
0.00448462
0.00441583
0.00442247
0.0030385
0.00809174
0.00362718
0.0044128
0.00298041
0.00442309
0.00468816
0.00432286
0.00438387
0.0045026
0.00449406
0.00455781
0.00429733
0.062355
0.00438324
0.00425517
0.00489328
0.0178939
0.00424937
0.00450513
0.00487097
0.0537913
0.0042265
0.00448457
0.00291553
0.00321168
0.004651
0.00454023
0.00426436
0.00400711
0.00972449
0.004596
0.0123698
0.00293044
0.0254666
0.00299648
0.00457648
0.00324527
0.00564071
0.00444435
0.0045809
0.0042642
0.00460674
0.00396367
0.010082
0.0041727
0.00569933
0.0476674
0.00472935
0.00394321
0.00567968
0.00466352
0.00455602
0.00314172
0.00286758
0.00327976
0.00440569
0.0291775
0.00430232
0.00330683
0.00430792
0.00314067
0.00313056
0.0033004
0.00354742
0.00420353
0.00452798
0.0464212
0.00418894
0.061221
0.00436188
0.00298568
0.00434688
0.00420962
0.0538875
0.00438055
0.00460401
0.00352626
0.00946976
0.00772137
0.0034466
0.00329406
0.00331577
0.00483328
0.034296
0.00451995
0.00440511
0.0625199
0.00439846
0.00540959
0.00449079
0.0156685
0.00300017
0.00673679
0.00460323
0.00342627
0.00464806
0.0044135
0.00422375
0.0024334
0.00424726
0.0044579
0.00429671
0.00454386
0.00475173
0.00476023
0.00450052
0.00418651
0.00859256
0.00354865
0.0041375
0.00460937
0.00883479
0.00301211
0.00459819
0.00468027
0.00408813
0.00639644
0.0506169
0.00397553
0.00346026
0.00410167
0.0043447
0.00308149
0.00454282
0.00422557
0.0101567
0.00455364
0.0608779
0.00901251
0.0216185
0.00455272
0.00454792
0.00378691
0.0431035
0.00335426
0.0031377
0.00467575
0.003074
0.0193818
0.0045602
0.0040285
0.00329864
0.00392162
0.0327713
0.00368646
0.00445337
0.00432238
0.00427593
0.00424373
0.00722173
0.00290322
0.0125376
0.052673
0.00459781
0.00303168
0.00383243
0.00513213
0.0155049
0.00427166
0.00438894
0.00406539
0.00313898
0.0045445
0.00469624
0.00467873
0.00334487
0.00414912
0.00460977
0.00371771
0.00674037
0.0032109
0.00452094
0.00807994
0.00409851
0.00407824
0.00399546
0.00455473
0.00431857
0.00447601
0.0131998
0.00426259
0.00488911
0.00400324
0.00342051
0.00450427
0.00417725
0.00450369
0.00437641
0.00336654
0.0105244
0.00738786
0.0559574
0.0102746
0.0351094
0.00419898
0.00449723
0.002483
0.00462763
0.00324951
0.00743667
0.00429383
0.00545784
0.00389271
0.0284626
0.00420452
0.00320094
0.00454968
0.0492447
0.00469643
0.0352021
0.00406839
0.00482197
0.00507657
0.01066
0.00421597
0.00554584
0.00544662
0.00440304
0.0207994
0.00558618
0.0243634
0.00352784
0.00236909
0.0139543
0.00471109
0.00461201
0.00372447
0.00433948
0.00344359
0.00331623
0.00319916
0.00390575
0.00309909
0.0549083
0.00437362
0.00426289
0.00434528
0.00456975
0.00290884
0.00340596
0.00424987
0.00332189
0.0438339
0.00426975
0.0578277
0.00748522
0.00447486
0.00607932
0.00373451
0.00313845
0.00318127
0.0255417
0.00442459
0.00452712
0.0523845
0.00437111
0.00458646
0.00355624
0.00454333
0.0043277
0.0304651
0.00465121
0.0345001
0.00398012
0.00382834
0.00428427
0.00430375
0.00608345
0.00323688
0.0134088
0.00444721
0.00291114
0.00519327
0.00306709
0.00330616
0.00527964
0.005524
0.00423964
0.00801919
0.0150187
0.00406429
0.00431458
0.00347669
0.0038118
0.00470715
0.00351577
0.0508314
0.00425912
0.00468925
0.00450752
0.00408801
0.0028724
0.00320881
0.00332824
0.0707129
0.00482374
0.00587783
0.00555617
0.00457389
0.00392388
0.00424527
0.00422267
0.0962659
0.00450647
0.0199439
0.0238553
0.004561
0.00449415
0.00464454
0.0313699
0.0332925
0.0210649
0.00335279
0.00456495
0.00426368
0.00325398
0.0409879
0.00658134
0.00303149
0.00433969
0.00616191
0.00563223
0.00535005
0.00417488
0.0137806
0.0277385
0.00405313
0.00383226
0.00429752
0.00439207
0.0304031
0.0031999
0.00372452
0.00460029
0.00465288
0.00415572
0.0481553
0.00312142
0.00292236
0.00780928
0.00486219
0.00437896
0.0131859
0.00535743
0.00461975
0.00305152
0.00350886
0.00412039
0.0562927
0.00453472
0.00442309
0.00425973
0.00522282
0.00310513
0.00435633
0.00498728
0.00461294
0.00455743
0.00468819
0.00330336
0.0044301
0.00746235
0.0041779
0.00455795
0.0496913
0.00440928
0.0035475
0.00357199
0.00457499
0.00351804
0.00534736
0.0045194
0.00456224
0.00448026
0.00303868
0.00449644
0.00426963
0.00442969
0.00354129
0.00629412
0.00313754
0.00725906
0.00429732
0.00547116
0.00415797
0.00467576
0.00421597
0.00458641
0.00314981
0.0041402
0.00325907
0.00412828
0.00419945
0.00449919
0.00447165
0.0309708
0.00546797
0.0164132
0.00468828
0.00305734
0.0615506
0.00326705
0.00291998
0.00439658
0.00548781
0.00485343
0.00608335
0.00319452
0.00519136
0.00376918
0.00304724
0.00450311
0.0675131
0.00309334
0.00414467
0.00408222
0.00398707
0.00361128
0.00279531
0.0043204
0.00306856
0.0556819
0.0454563
0.0044854
0.0042552
0.00451136
0.0107972
0.0040166
0.00454807
0.00416803
0.00462932
0.0044626
0.00492483
0.00440253
0.00465005
0.0132524
0.00237117
0.00431095
0.0044281
0.00439633
0.00417671