/*--------------------------------*- C++ -*----------------------------------*\
| =========                 |                                                 |
| \\      /  F ield         | OpenFOAM: The Open Source CFD Toolbox           |
|  \\    /   O peration     | Version:  3.0.1                                 |
|   \\  /    A nd           | Web:      www.OpenFOAM.org                      |
|    \\/     M anipulation  |                                                 |
\*---------------------------------------------------------------------------*/
FoamFile
{
    version     2.0;
    format      ascii;
    class       volScalarField;
    location    "0.902659";
    object      nut;
}
// * * * * * * * * * * * * * * * * * * * * * * * * * * * * * * * * * * * * * //

dimensions      [0 2 -1 0 0 0 0];

internalField   nonuniform List<scalar> 
21246
(
3.84167e-05
0.000208972
0.000357451
0.000494108
0.000563683
0.000566423
0.00056389
0.000606481
0.000662606
0.000653835
0.000548345
2.80115e-05
0.000119306
0.000231754
0.000352518
0.000445779
0.000482554
0.000489122
0.000537991
0.000618275
0.000624707
0.000519653
2.23533e-05
8.43113e-05
0.000170198
0.000268333
0.000358601
0.000411267
0.000424751
0.000442827
0.000523162
0.000595328
0.000503156
1.76669e-05
7.50212e-05
0.000139812
0.000218614
0.000298788
0.00035597
0.000376828
0.000380904
0.00041987
0.000505
0.000493645
1.45183e-05
7.82756e-05
0.000127676
0.000190222
0.000258699
0.000313848
0.000339245
0.000340549
0.000352217
0.000403731
0.000442963
1.41176e-05
8.48973e-05
0.000126031
0.000175501
0.000232319
0.000282032
0.000308752
0.000311077
0.00031029
0.000332154
0.000370447
1.44076e-05
8.61591e-05
0.000127602
0.000168543
0.000215178
0.000258084
0.000283667
0.000287542
0.000282297
0.000287175
0.000309021
1.42022e-05
8.58007e-05
0.000125513
0.000164456
0.000203582
0.000239722
0.000262811
0.000267798
0.000261775
0.000258453
0.000266644
1.3847e-05
8.27794e-05
0.000122076
0.000158221
0.000194402
0.000224881
0.000245232
0.000250956
0.000245772
0.000239324
0.000239753
1.33546e-05
7.81022e-05
0.000117412
0.000150899
0.000185273
0.000212309
0.000230542
0.000237038
0.000233583
0.000227053
0.000224544
1.2839e-05
7.29955e-05
0.00011241
0.000144402
0.000176756
0.000202189
0.000219392
0.000227135
0.000226263
0.00022172
0.000219197
1.23857e-05
6.84489e-05
0.000108543
0.000140213
0.000171284
0.000196058
0.000213586
0.000223493
0.000226149
0.000224878
0.0002238
1.19269e-05
6.42446e-05
0.000106095
0.000139245
0.000170436
0.00019583
0.000215399
0.000228756
0.000235685
0.000237727
0.000237432
1.14795e-05
5.96585e-05
0.000104368
0.00014048
0.000173623
0.000202031
0.000225626
0.000243614
0.000254633
0.000258351
0.000256086
1.10826e-05
5.53241e-05
0.000102089
0.000141513
0.000178778
0.000212159
0.000241187
0.00026404
0.000277766
0.000280781
0.00027453
1.06204e-05
5.14839e-05
9.89064e-05
0.000140798
0.000182334
0.000221095
0.00025563
0.000282677
0.000297841
0.000299145
0.000288798
1.007e-05
4.8019e-05
9.48871e-05
0.000137874
0.000182455
0.000225758
0.000265223
0.0002961
0.000312773
0.00031303
0.000299296
9.37243e-06
4.52711e-05
9.08773e-05
0.000134056
0.000180995
0.000228624
0.000272981
0.000307839
0.000326436
0.000326007
0.000308897
8.53529e-06
4.32224e-05
8.73074e-05
0.00013136
0.000181855
0.000233802
0.000280542
0.000317082
0.000337415
0.000336614
0.000315364
7.54751e-06
4.17758e-05
8.71155e-05
0.000136335
0.000185086
0.000224789
0.000242143
0.000270776
0.000306375
0.000320072
0.000304993
7.0594e-06
5.23727e-05
9.62049e-05
0.000114733
0.000110342
0.000120243
0.000143446
0.000168876
0.000193547
0.000220824
0.000237718
7.61726e-06
4.28773e-05
5.26437e-05
5.28872e-05
7.66422e-05
0.000107006
0.000139687
0.000167815
0.000183101
0.000181074
0.000171747
6.19534e-06
1.71256e-05
3.2683e-05
5.8363e-05
9.34399e-05
0.000134399
0.000175577
0.000210334
0.000230679
0.000224955
0.000190152
8.71679e-06
2.40723e-05
5.36183e-05
9.69703e-05
0.000149163
0.000201827
0.000246734
0.000278423
0.000293675
0.00028776
0.000252187
3.66237e-05
0.000310784
0.000507491
0.000604162
0.000622004
0.000604136
0.000603364
0.000649352
0.000707578
0.00069799
0.00058528
2.16199e-05
0.00022831
0.000461482
0.000601435
0.000650583
0.000646702
0.000645856
0.0006935
0.000766689
0.000774419
0.000659176
1.43822e-05
0.000160479
0.000378174
0.000547328
0.000641855
0.000670153
0.00067735
0.00072758
0.000823689
0.000868535
0.000771906
1.07774e-05
0.000102137
0.000277026
0.000451283
0.000583721
0.000654571
0.000681532
0.000735125
0.0008551
0.000953048
0.000896848
1.15638e-05
7.31908e-05
0.000196692
0.000356188
0.000500841
0.000601692
0.000646708
0.000694936
0.000829704
0.00100363
0.00104535
1.31234e-05
7.55022e-05
0.000175996
0.000303636
0.000440934
0.000554142
0.000605749
0.000614621
0.000698493
0.00090925
0.00107748
1.47448e-05
8.20143e-05
0.000178689
0.000292442
0.000416797
0.000530898
0.000599209
0.000596728
0.000607275
0.00077752
0.00102471
1.64115e-05
8.96633e-05
0.00018692
0.000294768
0.000410738
0.000523385
0.000602559
0.000611193
0.000570849
0.000645915
0.000906947
1.79877e-05
9.81691e-05
0.000197925
0.000302304
0.000410655
0.00051903
0.000604919
0.000629473
0.000579611
0.000555908
0.000750228
1.94145e-05
0.000107483
0.000210194
0.000312039
0.000412641
0.000513036
0.000600409
0.000640151
0.000601711
0.000526431
0.000600307
2.06455e-05
0.000116265
0.000222024
0.000322318
0.000415316
0.000504338
0.000586738
0.00063808
0.000619085
0.000531061
0.00050369
2.17346e-05
0.000124697
0.000235302
0.000332437
0.000418017
0.000493737
0.000564738
0.000622026
0.000623886
0.000543905
0.000462521
2.26257e-05
0.000132249
0.000246368
0.000341718
0.000420218
0.000482337
0.000537326
0.000592682
0.000614044
0.000553267
0.000449623
2.33518e-05
0.000138671
0.000256089
0.000349456
0.000421029
0.000471308
0.000510677
0.000553495
0.000585801
0.000552294
0.000446657
2.37835e-05
0.000144372
0.000264237
0.000355162
0.000419771
0.000459161
0.000485062
0.000514166
0.000543154
0.000533108
0.000450646
2.39091e-05
0.000149494
0.000271608
0.000359897
0.000417338
0.000445921
0.000458829
0.000476293
0.000498267
0.000499209
0.000452131
2.37143e-05
0.000154185
0.000278821
0.000364859
0.000415399
0.000433469
0.000434639
0.000442089
0.000456618
0.000461079
0.000436831
2.31326e-05
0.000158575
0.000286706
0.000371713
0.000416095
0.000423967
0.000415724
0.000413659
0.000420365
0.000424318
0.000414004
2.20913e-05
0.000162829
0.000295525
0.000379638
0.000417214
0.000419973
0.000405271
0.00039343
0.000390811
0.000389883
0.000381959
2.04172e-05
0.000164582
0.000297004
0.00038087
0.000420106
0.00042257
0.000403435
0.000383328
0.000372373
0.000366238
0.000358283
1.77581e-05
0.000155935
0.000285557
0.000375856
0.000422296
0.000427478
0.000405893
0.00037983
0.000363004
0.000354
0.000347876
1.44641e-05
0.000136447
0.000259322
0.000358563
0.00041473
0.000426444
0.000406782
0.00037826
0.000357437
0.000345728
0.000338609
1.08071e-05
9.79296e-05
0.000220581
0.000325026
0.0003896
0.000410838
0.000399936
0.000375184
0.000352906
0.000337239
0.000322881
7.47032e-06
9.01097e-05
0.000181944
0.000276095
0.00033392
0.000364003
0.0003704
0.000360368
0.000342764
0.000324058
0.000297114
6.00673e-05
0.000334557
0.000425152
0.000464009
0.000484359
0.000498782
0.000509209
0.000511957
0.000498433
0.000457654
0.000394578
3.95034e-05
0.000268966
0.000403048
0.000462348
0.000487464
0.000499332
0.000503222
0.000500094
0.000485452
0.000448705
0.00038978
3.21651e-05
0.000235822
0.000393254
0.000477445
0.000509922
0.00052167
0.000523401
0.000516965
0.00049885
0.00046021
0.000398684
3.05796e-05
0.000196848
0.000361305
0.000475494
0.000525455
0.000539115
0.000537391
0.000528239
0.000510142
0.000475724
0.000415998
3.10054e-05
0.000179281
0.000331165
0.00044901
0.000510324
0.000533047
0.000536292
0.000529779
0.000511923
0.000475175
0.000412842
3.17597e-05
0.000167293
0.000309432
0.00042023
0.000481981
0.000512697
0.000526423
0.000528774
0.000516551
0.00048327
0.000424612
3.26849e-05
0.00015715
0.000290333
0.000393257
0.00045442
0.00049002
0.000511839
0.000522706
0.000517086
0.000487213
0.000428869
3.37619e-05
0.000149027
0.000274123
0.000369637
0.000428759
0.000466855
0.000494546
0.000512809
0.000514318
0.000491002
0.000440166
3.47381e-05
0.000142059
0.000260269
0.000349502
0.000406238
0.000445609
0.000477649
0.000502281
0.000510883
0.000493666
0.000444986
3.54773e-05
0.000135207
0.000247689
0.000332122
0.000386924
0.00042717
0.000462608
0.000492535
0.000507049
0.000493708
0.000443893
3.61085e-05
0.000128601
0.000236177
0.000316932
0.00037033
0.000411369
0.000449623
0.000483915
0.000503062
0.000492872
0.000447159
3.66261e-05
0.000122743
0.000225989
0.000303691
0.000356011
0.000397825
0.000438557
0.000476663
0.00049987
0.000492586
0.000448385
3.6894e-05
0.000117098
0.000216645
0.000292
0.000343665
0.000386354
0.00042942
0.000471112
0.000498216
0.000493567
0.000449268
3.69469e-05
0.000111145
0.000207467
0.000281336
0.000332922
0.000376701
0.000422077
0.000467301
0.000498231
0.00049593
0.000453077
3.67113e-05
0.000105322
0.000198661
0.000271515
0.000323393
0.000368428
0.000416132
0.000464968
0.000499947
0.000500068
0.000456803
3.61595e-05
9.92915e-05
0.000189787
0.000262097
0.000314671
0.00036115
0.000411202
0.000463822
0.000503396
0.0005064
0.000463153
3.53259e-05
9.10469e-05
0.000177982
0.000250369
0.000304114
0.000352094
0.000404606
0.000461969
0.000507487
0.000514632
0.000472072
3.40092e-05
8.16226e-05
0.000163127
0.000234923
0.000288896
0.000335962
0.000386481
0.000443431
0.000493787
0.000509628
0.000477129
3.21787e-05
7.1118e-05
0.000144827
0.000214899
0.00026851
0.00031296
0.000357461
0.000407391
0.000455804
0.000479696
0.000465591
2.97953e-05
5.97806e-05
0.000123068
0.000189389
0.000242099
0.000283379
0.000319846
0.000357629
0.000395666
0.00042045
0.000423991
2.67879e-05
4.81272e-05
9.87717e-05
0.000158229
0.000208901
0.000247378
0.000276595
0.000301513
0.0003243
0.000340231
0.00034816
2.30873e-05
3.71065e-05
7.4472e-05
0.000123425
0.00016942
0.000205121
0.000229603
0.00024548
0.000255424
0.000259394
0.000259145
1.85489e-05
2.68167e-05
5.18003e-05
8.82924e-05
0.000126016
0.000157234
0.000178714
0.0001907
0.000194775
0.000192156
0.000184856
1.30427e-05
2.47523e-05
4.55967e-05
6.75062e-05
9.02386e-05
0.000110167
0.000124992
0.000133863
0.000136834
0.000134334
0.000127414
5.54779e-05
0.00025766
0.000306568
0.000441816
0.000508345
0.000542255
0.000556752
0.000555125
0.000535492
0.000485279
0.000414317
4.0265e-05
0.000150162
0.000201604
0.000262538
0.000331562
0.000439598
0.000571878
0.00059715
0.00057946
0.000526408
0.000447328
3.59139e-05
0.000108496
0.000163669
0.000210654
0.000264396
0.000335676
0.000515622
0.000631552
0.000628353
0.000577873
0.000491144
3.32521e-05
9.56039e-05
0.000144111
0.000184388
0.000229863
0.000289039
0.00043128
0.000646381
0.00068064
0.000639138
0.000549627
2.94908e-05
0.000100999
0.000136916
0.000169669
0.000208023
0.000260075
0.000378455
0.000606813
0.000727318
0.000705666
0.000616137
2.97698e-05
0.000117783
0.000140206
0.000163108
0.000193342
0.00023848
0.000340001
0.00054957
0.000748449
0.000770927
0.000680868
3.4629e-05
0.000141918
0.00015304
0.000163957
0.000184435
0.000221893
0.000309682
0.000495469
0.000716455
0.000820363
0.000751863
3.93618e-05
0.000172938
0.000175199
0.000172002
0.000180888
0.000209919
0.000286194
0.00045002
0.000666302
0.000816404
0.000808362
4.32052e-05
0.000205336
0.000205549
0.000187049
0.000182178
0.000201831
0.000267822
0.000412319
0.000613316
0.000780818
0.000818539
4.59401e-05
0.000234659
0.0002411
0.0002087
0.000188033
0.000197118
0.000253305
0.000380681
0.000562681
0.000729637
0.000793793
4.75756e-05
0.000256361
0.000277573
0.000235986
0.000198354
0.000195427
0.000241568
0.000353112
0.000515229
0.000671477
0.000745793
4.85506e-05
0.000271386
0.000311537
0.000267042
0.000212918
0.00019686
0.000232655
0.000329492
0.000472214
0.000612847
0.000684637
4.88755e-05
0.000282752
0.000340372
0.00029963
0.000231411
0.000201422
0.000226321
0.000308988
0.000433056
0.000556348
0.000618914
4.85195e-05
0.000289264
0.000362314
0.000331511
0.000253441
0.000209235
0.000222455
0.000291007
0.000397007
0.000502684
0.000555619
4.76173e-05
0.000290774
0.000377911
0.000360469
0.000277988
0.000220363
0.000221443
0.00027593
0.00036441
0.000452756
0.000496365
4.61942e-05
0.000285521
0.000386925
0.000384356
0.000303638
0.000234712
0.000223616
0.000264034
0.000335367
0.000407007
0.000441409
4.40351e-05
0.000275789
0.000386675
0.000400935
0.00032831
0.000251917
0.000229467
0.000256016
0.000310411
0.00036587
0.000391579
4.10688e-05
0.000261419
0.000375789
0.000407614
0.000349023
0.000271037
0.000239677
0.000253182
0.000290784
0.000330104
0.000346811
3.7404e-05
0.000242738
0.000356058
0.000398541
0.000362999
0.000291139
0.0002555
0.000257657
0.000278683
0.000301395
0.000308553
3.31196e-05
0.000219931
0.000328502
0.000372438
0.000366652
0.000313523
0.000279732
0.000272694
0.000277129
0.000282456
0.000277319
2.82175e-05
0.00018804
0.00029279
0.000336975
0.000350514
0.000334211
0.000307745
0.000292521
0.000280606
0.000268849
0.000250479
2.44738e-05
0.000172663
0.000249862
0.00028435
0.000297903
0.000299053
0.00026721
0.00023708
0.000207186
0.000177009
0.000144028
1.55741e-05
0.000102247
0.000117332
0.000105321
9.34943e-05
7.95609e-05
6.91319e-05
6.11685e-05
5.4546e-05
4.8889e-05
4.37693e-05
9.37627e-06
1.06023e-05
1.207e-05
1.44452e-05
1.79061e-05
2.22107e-05
2.70382e-05
3.18687e-05
3.61314e-05
3.93193e-05
4.10713e-05
3.24937e-05
9.48841e-05
8.79938e-05
9.08294e-05
7.94931e-05
6.27645e-05
4.97326e-05
4.1994e-05
3.68234e-05
3.26471e-05
2.87941e-05
2.75091e-05
8.52406e-05
6.50856e-05
9.2357e-05
8.62527e-05
6.68987e-05
5.03112e-05
4.06307e-05
3.4579e-05
2.99958e-05
2.6044e-05
2.73743e-05
7.25693e-05
6.12042e-05
7.41436e-05
8.89396e-05
7.23395e-05
5.25039e-05
4.06007e-05
3.35309e-05
2.84774e-05
2.42974e-05
2.89572e-05
6.45705e-05
6.04988e-05
6.7437e-05
8.17278e-05
7.74038e-05
5.55657e-05
4.14864e-05
3.33657e-05
2.78797e-05
2.36328e-05
3.05849e-05
6.13834e-05
6.02721e-05
6.36314e-05
7.60177e-05
8.16555e-05
5.91785e-05
4.30798e-05
3.38816e-05
2.79578e-05
2.36871e-05
3.1547e-05
6.08964e-05
6.03393e-05
6.07416e-05
6.98303e-05
8.08404e-05
6.33156e-05
4.53325e-05
3.49762e-05
2.85452e-05
2.41474e-05
3.19287e-05
6.22307e-05
6.10258e-05
5.8905e-05
6.41037e-05
7.50238e-05
6.63994e-05
4.84303e-05
3.66116e-05
2.95593e-05
2.49073e-05
3.18493e-05
6.53438e-05
6.27317e-05
5.83666e-05
6.00076e-05
6.80801e-05
6.63684e-05
5.19657e-05
3.90519e-05
3.10343e-05
2.59752e-05
3.12656e-05
6.96008e-05
6.56239e-05
5.89925e-05
5.73816e-05
6.18852e-05
6.34111e-05
5.46305e-05
4.20707e-05
3.30711e-05
2.74243e-05
3.0234e-05
7.44157e-05
6.9818e-05
6.07586e-05
5.59528e-05
5.68429e-05
5.85825e-05
5.51067e-05
4.52399e-05
3.56573e-05
2.92764e-05
2.8995e-05
8.01638e-05
7.55913e-05
6.39273e-05
5.59536e-05
5.35331e-05
5.37779e-05
5.31406e-05
4.75828e-05
3.8682e-05
3.15884e-05
2.77616e-05
8.75384e-05
8.33399e-05
6.87486e-05
5.75127e-05
5.21116e-05
5.03207e-05
5.00518e-05
4.81963e-05
4.16907e-05
3.43799e-05
2.67683e-05
9.63628e-05
9.33949e-05
7.55375e-05
6.06555e-05
5.22742e-05
4.8307e-05
4.705e-05
4.69808e-05
4.38684e-05
3.74866e-05
2.62005e-05
0.000106006
0.000105972
8.48341e-05
6.5687e-05
5.39739e-05
4.76649e-05
4.48136e-05
4.46833e-05
4.43806e-05
4.03983e-05
2.61138e-05
0.000117656
0.000121625
9.72222e-05
7.30282e-05
5.74208e-05
4.85214e-05
4.38228e-05
4.25008e-05
4.32196e-05
4.2233e-05
2.64401e-05
0.000130847
0.000140448
0.000113537
8.34202e-05
6.29924e-05
5.0979e-05
4.41795e-05
4.11587e-05
4.12485e-05
4.22377e-05
2.68536e-05
0.000143486
0.000161531
0.000134607
9.81009e-05
7.1544e-05
5.5476e-05
4.60849e-05
4.10498e-05
3.95362e-05
4.06168e-05
2.65501e-05
0.000154555
0.00018317
0.000160479
0.00011839
8.43551e-05
6.29011e-05
5.0089e-05
4.26154e-05
3.89899e-05
3.86126e-05
2.54508e-05
0.000162118
0.000202581
0.000189579
0.000145452
0.000103359
7.48871e-05
5.73261e-05
4.66078e-05
4.03854e-05
3.76817e-05
2.34956e-05
0.000164219
0.000216173
0.0002176
0.000178862
0.000130933
9.42488e-05
7.01185e-05
5.4703e-05
4.49615e-05
3.92533e-05
2.06652e-05
0.000156225
0.00022012
0.000238663
0.000215195
0.000169018
0.00012545
9.30118e-05
7.06197e-05
5.55195e-05
4.55565e-05
1.80853e-05
0.000142789
0.000213755
0.000248539
0.000245594
0.000213733
0.00017137
0.000132271
0.000101217
7.82141e-05
6.16445e-05
1.37139e-05
0.000109694
0.000156575
0.000195826
0.00021526
0.000216643
0.000201027
0.000174238
0.0001444
0.00011718
9.42214e-05
1.07192e-05
4.13674e-05
5.65613e-05
7.73539e-05
9.9085e-05
0.000120153
0.00013707
0.000143767
0.000140712
0.000131098
0.000117506
2.68929e-05
8.54893e-05
8.49453e-05
8.45876e-05
7.68472e-05
6.3091e-05
5.224e-05
4.54731e-05
4.08461e-05
3.70918e-05
3.3594e-05
1.84433e-05
7.35387e-05
8.81421e-05
9.19184e-05
8.45469e-05
7.07215e-05
5.89545e-05
5.15315e-05
4.67375e-05
4.30977e-05
3.98471e-05
1.8809e-05
6.73982e-05
8.77453e-05
0.000106686
9.94494e-05
8.40478e-05
6.93009e-05
5.98425e-05
5.43063e-05
5.06587e-05
4.76748e-05
2.11887e-05
6.32288e-05
8.56091e-05
0.000116969
0.000118314
0.000107003
9.1115e-05
7.85764e-05
7.04797e-05
6.53147e-05
6.18587e-05
2.41499e-05
5.90545e-05
8.62248e-05
0.000122619
0.000126831
0.000117163
0.000100848
8.77751e-05
7.97183e-05
7.5122e-05
7.24655e-05
2.70281e-05
5.58709e-05
8.72119e-05
0.000124428
0.000130887
0.000123728
0.000108134
9.51359e-05
8.70019e-05
8.25041e-05
8.01842e-05
2.97084e-05
5.3657e-05
8.79535e-05
0.000124552
0.000133007
0.000128477
0.000113972
0.00010158
9.37715e-05
8.97055e-05
8.80902e-05
3.22197e-05
5.21635e-05
8.84258e-05
0.00012422
0.000134649
0.000132455
0.000119263
0.000107808
0.000100659
9.74418e-05
9.71009e-05
3.44005e-05
5.11374e-05
8.87167e-05
0.000124052
0.000136565
0.000136193
0.000124496
0.000113995
0.000107567
0.000105183
0.00010574
3.62359e-05
5.03557e-05
8.89841e-05
0.000124135
0.000138897
0.000140104
0.000129897
0.000120216
0.000114436
0.000112845
0.000114327
3.77064e-05
4.96446e-05
8.90814e-05
0.000124587
0.000141541
0.000144413
0.000135593
0.000126505
0.000121162
0.000120098
0.000121775
3.89048e-05
4.89341e-05
8.89889e-05
0.000125247
0.000144393
0.000149112
0.000141624
0.000132904
0.000127735
0.000127012
0.000129057
3.97498e-05
4.80956e-05
8.86153e-05
0.00012594
0.000147391
0.000154213
0.000148085
0.000139513
0.0001342
0.000133598
0.00013634
4.01336e-05
4.57564e-05
8.57736e-05
0.00012452
0.00014873
0.000158514
0.000154603
0.000146422
0.000140711
0.000139873
0.000142972
3.99955e-05
4.29852e-05
8.04148e-05
0.000119769
0.000146258
0.000159393
0.000159238
0.000152972
0.000147416
0.000146164
0.000149194
3.92997e-05
3.99193e-05
7.2844e-05
0.000111411
0.000139634
0.000155882
0.000160409
0.000157859
0.000153814
0.000152477
0.000155117
3.80346e-05
3.66919e-05
6.36511e-05
9.93974e-05
0.000128453
0.000147201
0.000156311
0.000158705
0.000158154
0.000158098
0.000160657
3.61156e-05
3.35242e-05
5.40286e-05
8.47498e-05
0.00011295
0.000133158
0.000145729
0.000152764
0.000156949
0.000160309
0.00016439
3.34912e-05
3.04091e-05
4.48683e-05
6.90203e-05
9.41049e-05
0.000114181
0.000128532
0.000138495
0.000146396
0.000153824
0.000161459
3.01248e-05
2.72007e-05
3.66045e-05
5.37962e-05
7.37306e-05
9.16197e-05
0.000105822
0.000116654
0.000125735
0.000134735
0.000144642
2.59698e-05
2.36966e-05
2.93202e-05
4.0295e-05
5.41408e-05
6.79446e-05
8.00367e-05
8.99572e-05
9.82858e-05
0.000106072
0.000114341
2.10375e-05
1.96565e-05
2.28078e-05
2.89968e-05
3.72015e-05
4.60828e-05
5.45996e-05
6.21772e-05
6.87373e-05
7.45583e-05
8.00865e-05
1.53619e-05
1.45359e-05
1.61672e-05
1.91347e-05
2.30904e-05
2.75878e-05
3.22155e-05
3.66816e-05
4.08223e-05
4.45967e-05
4.80424e-05
9.27747e-06
9.716e-06
1.14775e-05
1.35927e-05
1.59808e-05
1.84807e-05
2.11235e-05
2.51297e-05
3.06681e-05
3.77163e-05
4.58887e-05
6.31046e-06
6.64454e-06
7.71183e-06
1.21541e-05
1.43922e-05
1.58275e-05
1.68789e-05
1.7756e-05
1.84225e-05
2.80038e-05
2.43196e-05
2.45315e-05
3.21708e-05
5.17761e-05
7.99418e-05
0.000110453
0.00013449
0.000157196
3.97078e-05
3.45934e-05
3.91533e-05
6.13008e-05
0.000104997
0.000161636
0.000215011
0.000262056
0.000304038
5.29905e-05
4.49602e-05
5.30705e-05
8.76496e-05
0.000152696
0.000238387
0.000314256
0.000375931
0.000423992
5.66175e-06
9.89107e-06
1.37286e-05
1.56587e-05
1.67796e-05
1.75488e-05
1.80551e-05
1.8297e-05
1.84412e-05
2.06237e-05
2.42296e-05
3.35065e-05
5.2126e-05
8.04082e-05
0.000111103
0.000134849
0.000154731
0.000168467
3.20496e-05
4.16205e-05
6.53135e-05
0.000108506
0.000168181
0.000223913
0.000269026
0.000305382
0.000322351
4.46088e-05
5.82159e-05
9.53448e-05
0.000162573
0.000252173
0.000329955
0.000383268
0.000425797
0.000440527
0.000195655
0.000229708
0.00022976
7.32071e-05
0.000429076
0.000229352
8.93154e-05
0.000229458
0.000229414
0.000233849
0.000423504
0.000229508
0.00012276
0.000187638
0.000123835
0.00022872
0.000160045
7.32807e-05
0.000228713
0.000228581
0.000229696
3.03556e-05
0.000229985
0.000259339
0.000229344
0.0001912
0.000130407
9.0031e-05
0.000454404
0.000556405
0.000142024
0.000235962
0.000116346
0.000229424
0.000241042
0.000229668
0.000245892
0.000229341
9.85505e-05
0.000229361
2.03125e-05
0.000229462
0.000105069
0.000229962
0.000442702
5.61017e-05
5.08436e-05
0.000105496
0.000239941
0.000229345
0.000554598
0.000229332
0.000402213
0.000104826
0.000229309
0.000229476
3.00475e-05
0.000229332
0.00044453
9.84465e-05
2.35919e-05
0.000345177
0.000487679
0.000161325
2.75022e-05
0.000228558
0.000662571
0.000229968
0.00022971
0.000233263
0.000189876
0.000234029
6.04175e-05
0.000246182
0.000130011
0.000232207
2.26288e-05
0.000229693
0.000136892
0.000471134
0.000688425
0.000137614
0.000229274
0.000229787
0.000246821
6.11603e-05
0.000379411
0.000255604
4.46702e-05
0.000284054
0.000229481
0.000229302
2.22247e-05
0.000233617
0.000473405
0.000126448
9.6668e-05
0.000237347
4.32438e-05
0.000237349
0.000252196
0.000109648
0.000230094
0.000236616
4.95929e-05
0.000229503
0.000181645
0.000229868
0.000110134
0.000236327
0.000229344
0.000229517
0.000231072
6.97375e-05
7.63251e-05
0.000229038
0.000229404
0.000228885
0.00022927
0.000229193
6.76979e-05
0.000242858
0.000261105
0.000188564
5.10282e-05
0.000213735
0.000890182
0.000176745
0.000142159
0.000118245
0.000229252
9.73013e-05
0.000105506
0.000232709
0.000229783
0.000228183
2.31357e-05
0.000104645
0.000548923
0.000244806
0.000108421
0.000231424
0.000241027
0.000167932
0.000229405
3.86368e-05
0.000105176
0.000229801
0.000235979
0.000228948
0.000228942
0.00022918
4.02819e-05
0.000242292
7.40889e-05
5.93394e-05
6.80109e-05
3.13767e-05
0.000170306
0.000228832
0.000217278
4.86141e-05
0.000233545
0.000229159
0.000678547
0.000117387
5.60588e-05
0.000243267
0.000236393
2.67772e-05
0.000147812
0.000159516
0.000225895
0.000229616
0.000235211
0.000220403
0.000154977
3.92706e-05
0.000439965
0.000199789
0.000229517
2.73221e-05
0.000229938
0.00014554
0.000229277
0.000107018
0.000229099
0.000228821
0.000229639
0.00017207
0.000109421
0.000197196
0.000228531
1.95209e-05
0.000229745
0.000229038
0.000229538
4.36349e-05
0.000115189
0.000230001
3.49783e-05
0.000229441
0.000110324
0.000138815
0.000229829
0.000269848
0.00023271
0.000142286
0.000229441
0.000228713
0.000330204
0.000228998
0.000175385
0.000238954
0.000229285
0.000156744
0.00022937
4.98935e-05
0.000229072
8.14192e-05
7.60075e-05
6.57915e-05
9.65127e-05
7.55039e-05
0.000191972
0.000229336
0.000109948
0.000117618
0.000110634
0.000311062
3.37649e-05
0.000228499
0.000228979
0.000244166
3.9209e-05
0.000247048
0.000686918
0.000229891
0.000229535
0.000229486
5.02909e-05
0.000192357
0.000236734
1.7196e-05
0.00023587
4.94354e-05
0.000229359
0.000140151
0.000195982
0.000857895
0.000140017
0.000331307
0.000242243
0.000228628
0.000234066
0.000229512
0.000229435
0.000229299
4.74839e-05
0.000229214
0.000123434
0.000183349
0.000228196
0.000229587
0.000229341
5.0648e-05
0.000231884
0.000233674
0.000159547
0.00017982
0.000196257
0.000229093
0.000229444
5.04979e-05
0.000229052
0.000228923
0.000183678
0.000229163
0.00023845
4.89905e-05
0.00023589
0.000229757
0.000689184
0.000649493
0.000233649
0.000229052
0.000342735
0.000229679
0.000238171
0.000104944
0.000229809
0.00010265
0.000247677
8.13866e-05
0.000229999
0.00022948
0.000236953
0.000229553
0.00024063
0.00018661
0.00022918
5.96964e-05
0.000242767
0.000554073
0.00022935
0.000236472
0.000229693
0.000275517
2.68572e-05
0.000229191
5.60591e-05
0.00022956
0.000234178
0.00012003
2.67265e-05
0.000231539
0.00017445
6.4331e-05
0.000228759
0.00023869
0.00022902
0.000561927
0.000228946
0.000192522
0.000114035
0.000236116
0.000229182
0.000209052
0.000228209
0.000509576
0.000231761
0.000487123
1.98981e-05
0.000229954
0.000101396
0.000233391
6.65067e-05
0.000229644
0.000229234
0.000238696
4.65285e-05
0.00031579
0.00022939
0.000109992
0.000193146
0.000277316
8.68026e-05
0.000229039
0.000207461
0.000936025
5.66465e-05
0.000236479
0.000179896
0.000229317
0.00010613
0.000230037
7.36999e-05
0.000206746
0.000229959
0.000612005
0.000136144
0.000185313
0.000229397
0.000229328
0.000229653
5.01972e-05
0.000168185
5.87379e-05
6.35844e-05
0.000258343
0.000229162
0.000115389
0.000225781
0.000193013
0.00011291
0.000229773
0.000152667
0.000240959
0.000228995
0.000228891
0.000561129
0.000228975
3.7781e-05
0.000229306
0.000197163
0.000690573
5.95955e-05
0.000191702
0.000190813
4.59802e-05
0.000229188
4.65212e-05
0.000185688
0.000250441
0.000698824
2.75184e-05
0.000229257
0.000228881
0.000229871
8.1677e-05
4.75742e-05
0.000228992
0.000229994
0.000107332
9.83931e-05
2.36301e-05
0.000102999
0.000143225
0.000229436
0.000563008
0.000238319
0.000228677
0.000115731
0.000117415
4.97961e-05
0.000233996
0.000109528
0.000254092
0.000182729
5.11247e-05
0.000317555
0.00015028
8.35898e-05
0.000110439
0.00022738
0.000235489
0.000245037
7.43256e-05
0.000183578
3.51668e-05
0.000229251
3.80226e-05
0.000207567
0.000228635
0.000233847
6.55e-05
0.000303521
0.000519224
0.000187892
0.000230038
0.000236707
0.000371217
7.91159e-05
5.95535e-05
0.000232892
7.0481e-05
0.000117943
2.48151e-05
0.00022878
3.99923e-05
0.000229184
0.000229734
0.000229335
5.06592e-05
8.87728e-05
6.28841e-05
0.000149714
3.30649e-05
8.16964e-05
0.000229632
0.000228762
0.000913187
0.00018213
0.000234115
0.000236691
4.14231e-05
4.52884e-05
2.96835e-05
2.93526e-05
0.000231643
0.000211942
5.25065e-05
0.000229169
2.33237e-05
0.000234923
0.00022965
0.000229122
8.05636e-05
3.524e-05
0.000229007
0.000229181
0.000229754
0.000260261
2.61959e-05
0.000229904
4.07982e-05
0.00035745
0.000156612
6.30986e-05
0.000228736
3.71482e-05
0.000229037
0.000234405
0.00022934
0.000124384
0.000150152
0.000228551
0.000193716
0.000169008
0.000233112
0.000224091
0.000208959
0.000229429
0.000229424
0.000236325
6.80466e-05
5.67203e-05
0.000232002
9.6573e-05
0.000229764
0.000457293
0.00010489
4.41526e-05
0.000110189
0.000251898
0.000669681
7.07482e-05
0.000193487
0.000229157
0.000184472
0.000228858
0.000229744
0.000229139
0.000229596
0.00023395
0.000535714
0.000229342
0.000228797
0.000160631
0.000229187
3.98603e-05
0.00024151
0.000232949
0.000176701
4.61503e-05
0.000229995
0.000229295
0.000229935
1.86829e-05
3.52433e-05
0.000229308
0.000229315
0.000188419
0.000229825
7.4451e-05
0.000229772
0.000699592
0.000237133
3.28758e-05
9.30099e-05
0.000131379
6.31837e-05
0.000487269
0.000229386
0.000232002
0.000235506
0.000229754
6.56731e-05
2.49074e-05
0.0002238
0.00012709
0.000143067
8.98712e-05
0.000229347
0.00022974
0.000229722
0.000115857
0.000727834
8.41322e-05
0.000229464
0.000229352
0.000655728
0.000231023
9.62117e-05
0.000136077
0.000166836
0.000300481
0.000229242
8.86709e-05
0.000229268
7.08252e-05
0.000229554
0.00012932
0.00015048
0.000234885
2.74773e-05
0.000137691
0.000229938
0.000229999
0.000465484
0.000229059
0.000183724
9.87784e-05
7.64903e-05
0.000109997
4.60697e-05
0.000155228
0.00023144
0.000229228
0.000229239
0.000136777
5.15093e-05
0.000112956
0.000228555
0.000229366
8.82611e-05
0.000229291
0.000236435
0.000236136
0.00023408
0.000108595
5.40533e-05
7.67128e-05
0.000159977
0.000233672
0.000231676
0.000228619
0.000152294
0.000232059
0.000229183
0.000193253
0.000420869
0.000228966
0.000228986
2.30076e-05
0.00023011
0.000228729
0.000147679
0.000229767
0.000234742
9.50804e-05
8.56252e-05
0.000158687
0.000180446
0.000159664
6.92201e-05
0.000408763
6.76531e-05
0.000108549
0.000180178
5.17711e-05
7.06926e-05
0.000129175
0.000229767
0.000230316
0.00011337
0.000230319
0.000229262
0.000244914
0.000207635
0.000105303
0.000189433
0.000193041
0.000247329
0.000229158
0.000192731
0.000229505
0.0002289
0.000236672
8.07924e-05
0.000232128
0.000232685
0.000230914
0.00022969
0.000116478
6.2305e-05
0.000298246
0.000232271
0.000229732
0.000189848
0.000127764
0.000237083
0.000168394
0.000231883
0.000150552
0.000537452
0.00022921
6.75234e-05
0.00022992
0.000120651
0.000130418
0.000105507
0.000162972
0.000215481
0.000246431
0.000229822
0.00010009
0.000182291
4.79214e-05
0.000879879
0.00022901
0.00023387
0.000229808
0.000161161
0.000229652
4.29898e-05
0.00022952
0.000229344
0.000229065
0.000130168
6.37599e-05
0.000229544
0.000129832
0.000229233
0.000116144
0.000170446
0.000231248
0.000108395
1.61316e-05
8.18635e-05
0.000236643
0.000197865
0.000140315
0.000121967
0.00012935
8.5905e-05
0.000229204
0.000147736
0.000229292
0.000231587
5.21865e-05
0.000194197
3.5952e-05
0.000187625
0.000230833
0.000234975
0.000229211
5.49095e-05
0.000229617
0.000943158
9.58317e-05
0.000673019
0.000234466
0.000138834
0.00011673
0.000107509
0.000243218
0.000122789
3.69138e-05
6.07958e-05
0.000229403
0.000185302
0.000138987
0.000229502
4.21105e-05
0.000119389
0.000246789
0.000148204
0.000229347
0.000233417
0.000235145
0.000130967
0.000236571
0.000192268
0.000229607
0.000120604
0.000234671
8.53639e-05
6.74035e-05
0.000366171
0.000110291
0.00022881
0.000271213
6.33533e-05
0.000229213
0.000190948
0.000188136
7.32928e-05
0.000242794
3.09916e-05
0.000244539
7.68216e-05
9.29475e-05
0.00025276
0.000228868
0.000246774
0.000229146
8.05516e-05
2.20049e-05
0.00023004
0.000229242
0.000252501
0.000357884
0.000537555
0.000154899
0.000229617
0.000144839
0.000251975
0.000229512
0.000229605
0.000229852
0.000229274
0.000234876
0.000159657
4.65164e-05