/*--------------------------------*- C++ -*----------------------------------*\
| =========                 |                                                 |
| \\      /  F ield         | OpenFOAM: The Open Source CFD Toolbox           |
|  \\    /   O peration     | Version:  3.0.1                                 |
|   \\  /    A nd           | Web:      www.OpenFOAM.org                      |
|    \\/     M anipulation  |                                                 |
\*---------------------------------------------------------------------------*/
FoamFile
{
    version     2.0;
    format      ascii;
    class       volVectorField;
    location    "0.902659";
    object      U;
}
// * * * * * * * * * * * * * * * * * * * * * * * * * * * * * * * * * * * * * //

dimensions      [0 1 -1 0 0 0 0];

internalField   nonuniform List<vector> 
21246
(
(5.11196 -1.65417 0)
(4.04356 -1.15296 -2.30167e-19)
(4.24342 -1.07855 1.89442e-19)
(4.2281 -0.989636 4.28894e-20)
(4.04348 -0.844284 -2.44303e-20)
(3.80653 -0.671227 0)
(3.5793 -0.52363 3.15979e-20)
(3.37896 -0.424725 -2.79507e-20)
(3.21278 -0.379553 -3.13532e-20)
(3.07435 -0.379355 5.80817e-21)
(2.97082 -0.413489 -1.65097e-20)
(3.85095 -0.438665 0)
(2.95638 -0.412388 3.62984e-18)
(3.28735 -0.861472 -2.7342e-18)
(3.48656 -1.05221 -1.11942e-18)
(3.53823 -1.07191 1.44306e-18)
(3.50761 -0.977668 -4.17416e-19)
(3.42169 -0.817036 -2.71688e-20)
(3.29761 -0.648154 4.09778e-20)
(3.17919 -0.54481 4.52649e-22)
(3.07595 -0.505363 2.33444e-20)
(2.99651 -0.516968 0)
(3.5979 1.0627 -1.78444e-19)
(2.95778 0.388302 -3.331e-20)
(2.91664 -0.282511 -2.45201e-18)
(2.974 -0.69327 3.63089e-18)
(3.04491 -0.931892 -1.0917e-18)
(3.10879 -1.01355 -5.46679e-19)
(3.14133 -0.953843 4.85917e-19)
(3.1284 -0.80832 -6.83125e-20)
(3.08833 -0.671778 4.86799e-20)
(3.03564 -0.592516 -9.1799e-21)
(2.99547 -0.581081 0)
(3.96396 1.91688 1.76873e-19)
(3.30116 1.04015 3.72034e-18)
(2.94258 0.351771 -2.9168e-18)
(2.78654 -0.180941 2.26004e-19)
(2.74665 -0.57872 1.25797e-18)
(2.7794 -0.821592 -8.27323e-19)
(2.84532 -0.89799 -3.18915e-19)
(2.9066 -0.837658 5.06559e-20)
(2.94665 -0.724568 -1.44577e-19)
(2.95879 -0.63365 1.74405e-19)
(2.96266 -0.601083 -9.59805e-20)
(4.42086 2.18007 2.21396e-18)
(3.65062 1.48542 -2.02675e-18)
(3.12854 0.859913 2.07042e-18)
(2.80138 0.301425 -3.22502e-18)
(2.62793 -0.16529 9.49079e-19)
(2.57615 -0.508977 3.82756e-19)
(2.61343 -0.699735 1.0739e-18)
(2.69768 -0.738878 -6.39182e-19)
(2.79091 -0.684687 -1.45269e-19)
(2.86221 -0.613814 0)
(2.91258 -0.579288 -3.26042e-19)
(4.4984 2.11 0)
(3.87522 1.73862 -2.50874e-18)
(3.32986 1.21972 2.4431e-18)
(2.90469 0.703029 -1.93465e-18)
(2.62626 0.231474 6.1221e-19)
(2.48663 -0.155966 -1.77243e-18)
(2.46949 -0.420955 1.70137e-19)
(2.54162 -0.545488 6.60728e-19)
(2.65778 -0.561789 -3.567e-19)
(2.77004 -0.532832 0)
(2.85954 -0.514152 2.53389e-19)
(4.48609 2.008 0)
(4.04254 1.86131 0)
(3.51554 1.46021 0)
(3.0458 1.02028 -3.39074e-19)
(2.69868 0.581831 1.50527e-18)
(2.48815 0.191108 -7.38473e-19)
(2.41444 -0.111606 4.51356e-19)
(2.45703 -0.297902 -5.75088e-19)
(2.57243 -0.379636 3.50757e-19)
(2.70437 -0.4016 0)
(2.81993 -0.413468 -2.4385e-19)
(4.44363 1.88011 -3.55993e-19)
(4.09321 1.85133 8.43614e-19)
(3.67877 1.60219 -2.53011e-18)
(3.19822 1.25289 1.60862e-18)
(2.81804 0.867627 0)
(2.56087 0.501551 -6.13976e-19)
(2.44121 0.190748 -1.66602e-18)
(2.4502 -0.032585 1.17266e-18)
(2.54985 -0.166607 0)
(2.68298 -0.239029 3.86577e-19)
(2.80868 -0.287657 -5.46129e-20)
(4.37928 1.7503 -1.28063e-18)
(4.08817 1.79759 2.56385e-19)
(3.76915 1.63941 -7.36523e-19)
(3.35427 1.40545 5.66517e-19)
(2.96417 1.07887 7.89203e-19)
(2.68675 0.755489 -5.45772e-19)
(2.5381 0.458091 8.57978e-20)
(2.51754 0.218952 5.55376e-19)
(2.59352 0.0484726 0)
(2.7129 -0.0663787 3.86847e-19)
(2.83424 -0.151563 0)
(4.31216 1.62774 -5.82289e-19)
(4.06565 1.72907 0)
(3.81712 1.61208 0)
(3.48373 1.47089 1.20744e-18)
(3.12401 1.21902 -3.97924e-19)
(2.84957 0.943672 0)
(2.68969 0.672293 0)
(2.64713 0.432792 2.20868e-19)
(2.69672 0.240568 2.74996e-19)
(2.79257 0.093674 -2.47517e-19)
(2.89622 -0.0223982 -4.66384e-19)
(4.25351 1.51415 -1.54069e-20)
(4.04195 1.65644 0)
(3.84789 1.55295 0)
(3.58568 1.47161 -2.32317e-19)
(3.28402 1.28973 -3.39261e-19)
(3.03331 1.06292 -4.37376e-19)
(2.87776 0.823021 6.30323e-19)
(2.82151 0.593357 -2.18366e-19)
(2.8456 0.391842 -6.05529e-21)
(2.91332 0.223992 -1.84851e-19)
(2.99234 0.0845251 1.93853e-20)
(4.20605 1.40955 2.38397e-19)
(4.02237 1.58161 -1.77024e-19)
(3.87141 1.47557 -6.69012e-19)
(3.66958 1.4306 4.16796e-19)
(3.4316 1.29787 -5.63474e-19)
(3.2223 1.11617 4.31373e-19)
(3.08302 0.907909 -2.95084e-19)
(3.02091 0.694116 0)
(3.02283 0.493192 4.73727e-19)
(3.06145 0.315253 -3.0328e-19)
(3.11202 0.161047 2.94353e-19)
(4.17375 1.31178 0)
(4.01384 1.50704 1.74294e-19)
(3.89721 1.38881 5.044e-19)
(3.74356 1.36387 -4.79574e-19)
(3.56634 1.26046 3.89228e-19)
(3.40537 1.11391 -1.98057e-19)
(3.28924 0.933884 -2.39919e-19)
(3.22754 0.738299 1.81447e-19)
(3.21204 0.543911 1.02259e-19)
(3.22384 0.363032 5.9393e-20)
(3.24494 0.201558 -1.72301e-20)
(4.16146 1.22144 0)
(4.02371 1.43389 3.96754e-20)
(3.93256 1.30054 1.2425e-19)
(3.81738 1.28219 4.74157e-20)
(3.69367 1.19503 1.11394e-19)
(3.57662 1.07132 2.30668e-20)
(3.48581 0.913969 9.43001e-20)
(3.42904 0.735325 -1.6676e-19)
(3.40128 0.549666 -1.01716e-19)
(3.38996 0.370209 -7.36338e-20)
(3.38398 0.205152 1.133e-19)
(4.16671 1.14074 -1.36005e-20)
(4.0491 1.35807 -3.64799e-19)
(3.97927 1.21429 0)
(3.89528 1.19393 -2.83544e-19)
(3.81233 1.11382 2.30815e-20)
(3.73272 1.00334 -2.27095e-20)
(3.66687 0.861703 2.21983e-19)
(3.61849 0.695913 -1.24452e-20)
(3.58333 0.517507 -4.90419e-20)
(3.55252 0.340456 1.55858e-20)
(3.52033 0.173518 -3.28759e-20)
(4.18964 1.06535 0)
(4.08886 1.28382 -7.59906e-20)
(4.0372 1.1315 -2.79538e-19)
(3.97733 1.10609 9.08396e-20)
(3.92499 1.02847 1.113e-19)
(3.87624 0.924173 -8.89453e-20)
(3.83391 0.790562 -5.71278e-20)
(3.7962 0.630727 6.40509e-20)
(3.75669 0.454447 0)
(3.70831 0.277242 5.56106e-20)
(3.65029 0.110133 -5.86669e-20)
(4.23074 0.992922 5.3144e-19)
(4.14319 1.2131 2.30232e-19)
(4.10535 1.05498 3.9429e-19)
(4.06426 1.02453 6.96889e-20)
(4.03568 0.948318 -7.05101e-21)
(4.01369 0.84541 2.34791e-19)
(3.99441 0.711479 -7.62221e-20)
(3.96846 0.547562 -8.20506e-20)
(3.92451 0.364943 0)
(3.85648 0.183918 -3.89394e-20)
(3.76892 0.0166981 7.68002e-20)
(4.28568 0.92282 -5.32888e-19)
(4.20569 1.1469 1.7026e-19)
(4.17771 0.986242 -1.17903e-19)
(4.15247 0.955511 0)
(4.14672 0.882472 -1.45637e-19)
(4.1536 0.776938 -1.32876e-19)
(4.1604 0.631387 9.78656e-20)
(4.14583 0.448689 0)
(4.09222 0.24753 0)
(3.99629 0.0565343 2.8872e-20)
(3.87007 -0.110863 -4.42594e-20)
(4.34783 0.854911 0)
(4.2694 1.08609 -3.3274e-21)
(4.24879 0.929653 1.21641e-19)
(4.24204 0.909427 5.2614e-21)
(4.26817 0.843774 -3.26441e-20)
(4.31337 0.728122 2.1711e-20)
(4.34816 0.551699 0)
(4.33985 0.327437 -4.80046e-20)
(4.26552 0.0924444 3.55221e-20)
(4.12736 -0.111709 5.10127e-20)
(3.95325 -0.26881 3.32768e-20)
(4.41104 0.789098 0)
(4.32671 1.03366 1.78419e-19)
(4.30435 0.909747 -5.34704e-19)
(4.32224 0.924832 3.88333e-19)
(4.3917 0.863692 0)
(4.48864 0.702235 1.52536e-19)
(4.56753 0.43481 -1.13651e-19)
(4.54993 0.141736 0)
(4.4302 -0.122037 0)
(4.2361 -0.332129 -2.41917e-20)
(4.00516 -0.466574 0)
(4.48166 0.747097 0)
(4.3023 1.04949 0)
(4.2917 0.983886 6.78381e-19)
(4.38304 0.989003 -2.7538e-20)
(4.60229 0.755501 0)
(4.76033 0.375286 -5.4222e-19)
(4.78665 0.02493 1.22584e-19)
(4.70237 -0.281902 0)
(4.52156 -0.517088 0)
(4.27512 -0.647863 -8.44818e-21)
(4.00149 -0.70709 -2.08259e-20)
(4.1892 0.910808 -1.63172e-19)
(4.12881 1.07897 -2.22711e-20)
(4.31588 0.898476 -2.68756e-19)
(4.58363 0.508534 -1.32054e-19)
(4.72408 0.100613 -5.06367e-19)
(4.77163 -0.259949 3.97394e-19)
(4.73757 -0.570411 0)
(4.62172 -0.816143 2.27513e-19)
(4.41902 -0.978339 0)
(4.14947 -1.03944 -1.22902e-19)
(3.88025 -0.993201 5.95747e-20)
(3.6808 1.21185 5.02116e-19)
(4.25053 0.333204 2.82592e-19)
(4.44466 0.140515 0)
(4.54893 -0.251366 -2.85141e-19)
(4.59902 -0.585424 3.55945e-19)
(4.60683 -0.858485 0)
(4.56925 -1.07749 0)
(4.47556 -1.24025 -3.2204e-20)
(4.30255 -1.33506 -2.81773e-19)
(4.02899 -1.33462 0)
(3.71325 -1.22554 5.51401e-20)
(4.25612 -0.290553 0)
(4.34426 -0.152371 8.33625e-20)
(4.36096 -0.62771 1.38044e-19)
(4.38136 -0.877119 -1.00929e-19)
(4.40747 -1.06786 -6.07848e-19)
(4.4298 -1.22395 4.36045e-19)
(4.43559 -1.35095 3.35038e-19)
(4.40618 -1.4512 -1.55747e-19)
(4.31126 -1.51284 -7.70828e-20)
(4.10823 -1.49645 -3.97044e-20)
(3.77431 -1.36325 -1.18929e-20)
(6.25032 -0.414669 -7.34835e-19)
(5.66238 -0.152424 1.70705e-19)
(5.1542 -0.263036 -3.67601e-20)
(4.71695 -0.321766 7.52191e-20)
(4.31719 -0.310539 -2.91576e-20)
(3.96119 -0.260471 8.28427e-20)
(3.66017 -0.208922 0)
(3.41326 -0.180012 0)
(3.21062 -0.184036 2.06335e-20)
(3.04339 -0.220833 0)
(2.91523 -0.283859 8.22699e-20)
(5.57618 1.50318 0)
(5.487 1.18267 0)
(5.28261 0.822747 4.88113e-19)
(4.95927 0.525056 -4.54679e-19)
(4.5647 0.327398 5.97308e-20)
(4.15609 0.218818 -9.03886e-20)
(3.78356 0.159976 0)
(3.47198 0.113401 1.61044e-19)
(3.21839 0.0567008 1.52585e-19)
(3.0116 -0.0178001 -1.10797e-19)
(2.85406 -0.10471 -1.65204e-19)
(5.02466 2.15233 -4.79247e-19)
(5.13017 1.87484 0)
(5.11146 1.57958 0)
(4.94349 1.26744 -2.54514e-19)
(4.63932 0.986731 1.9097e-19)
(4.25174 0.767786 4.41237e-19)
(3.85212 0.602554 2.99538e-19)
(3.49675 0.467498 -8.03962e-19)
(3.20246 0.343068 2.63551e-19)
(2.96144 0.21828 0)
(2.77556 0.0987055 3.44949e-19)
(4.81768 2.23312 -7.92882e-19)
(4.86181 2.16342 5.77736e-19)
(4.87174 1.99677 0)
(4.7816 1.78325 0)
(4.56174 1.53984 5.88291e-19)
(4.22473 1.30323 -1.45206e-19)
(3.83088 1.08171 -7.10543e-19)
(3.45523 0.869192 9.13302e-19)
(3.13712 0.668549 -2.58424e-19)
(2.87362 0.481723 1.90637e-19)
(2.66609 0.321768 1.1545e-19)
(4.79831 2.15003 -2.83551e-19)
(4.76789 2.20053 4.63685e-19)
(4.72758 2.13414 -6.35643e-22)
(4.62786 2.03626 4.06346e-20)
(4.43878 1.8917 -4.29547e-19)
(4.13546 1.72392 0)
(3.74815 1.53477 3.67093e-19)
(3.35574 1.29847 -2.40051e-19)
(3.02408 1.03244 1.39693e-19)
(2.75594 0.777247 -4.46776e-19)
(2.53927 0.571768 -2.22837e-19)
(4.81683 2.07559 -7.88709e-19)
(4.75446 2.17559 7.14389e-19)
(4.68178 2.12918 -2.68097e-19)
(4.54965 2.09673 1.6127e-19)
(4.35099 2.02862 7.4601e-20)
(4.04847 1.93599 -4.94098e-20)
(3.64754 1.83507 -5.11885e-21)
(3.19864 1.68652 -5.40722e-19)
(2.81652 1.41468 3.4679e-19)
(2.54128 1.09849 0)
(2.341 0.835628 2.19406e-19)
(4.85504 2.01234 9.88455e-20)
(4.77324 2.14668 0)
(4.69153 2.09441 0)
(4.53202 2.0813 1.89513e-19)
(4.3073 2.04102 -3.34833e-19)
(3.99404 1.98056 3.00398e-19)
(3.57186 1.90967 3.72076e-20)
(3.0638 1.82194 1.95701e-19)
(2.60039 1.6321 -1.62453e-19)
(2.29247 1.31842 0)
(2.10504 1.02862 -8.09545e-20)
(4.9059 1.95692 -5.31145e-19)
(4.80976 2.1127 3.74693e-19)
(4.72873 2.05016 -2.88361e-19)
(4.55509 2.04575 -6.0965e-20)
(4.31273 2.01387 2.8182e-20)
(3.97516 1.96609 -1.30077e-19)
(3.52793 1.90429 -1.66412e-19)
(2.98626 1.83629 7.99595e-20)
(2.42266 1.7222 -1.16367e-19)
(2.02419 1.45883 3.79874e-22)
(1.82006 1.15667 5.67388e-20)
(4.96234 1.91104 0)
(4.85553 2.07498 0)
(4.78052 1.99732 0)
(4.59844 1.99846 0)
(4.35106 1.96362 -2.77653e-20)
(4.00338 1.91666 0)
(3.5331 1.85654 0)
(2.95091 1.78177 2.95371e-22)
(2.32559 1.69362 -2.9008e-22)
(1.80749 1.50232 0)
(1.54585 1.21225 2.23054e-20)
(5.01447 1.8711 2.2683e-19)
(4.90855 2.03314 -5.22974e-20)
(4.83888 1.93505 -1.06508e-19)
(4.65092 1.94207 0)
(4.40683 1.89591 6.95429e-22)
(4.06164 1.83914 0)
(3.58505 1.77 2.04769e-20)
(2.97519 1.68375 -4.95606e-20)
(2.28947 1.58211 3.70077e-20)
(1.67679 1.43239 2.21062e-20)
(1.30099 1.18404 -1.62336e-20)
(5.06504 1.81498 0)
(4.97201 1.98219 1.22657e-20)
(4.88887 1.86738 -1.59774e-21)
(4.70464 1.87554 -3.10981e-20)
(4.46992 1.81205 2.41633e-20)
(4.13635 1.73819 7.58649e-20)
(3.67102 1.6482 -2.01261e-20)
(3.05339 1.54195 1.4928e-19)
(2.3279 1.4185 1.25254e-19)
(1.6302 1.26827 0)
(1.1414 1.0505 -1.18394e-19)
(5.12279 1.73324 5.93747e-20)
(5.02507 1.9336 0)
(4.93095 1.80412 1.5637e-21)
(4.76168 1.78711 0)
(4.53461 1.71156 0)
(4.21745 1.61588 -1.88305e-19)
(3.7786 1.49545 0)
(3.17852 1.35612 -1.47709e-19)
(2.43764 1.20498 -4.7265e-19)
(1.68096 1.03903 0)
(1.10513 0.819466 -2.32911e-19)
(5.17283 1.66013 7.07351e-21)
(5.06307 1.87105 7.20502e-20)
(4.97541 1.73311 4.07594e-20)
(4.81282 1.68864 1.78971e-19)
(4.59438 1.59648 -2.11398e-19)
(4.29655 1.47391 -1.80396e-19)
(3.8943 1.31849 -5.45993e-20)
(3.34469 1.13292 -2.97032e-19)
(2.62116 0.939477 7.4489e-19)
(1.83025 0.749219 -6.63266e-19)
(1.18035 0.5366 1.36047e-19)
(5.20838 1.59328 0)
(5.09133 1.79207 1.03401e-19)
(5.00849 1.65107 -1.18624e-19)
(4.85288 1.57775 0)
(4.64522 1.46299 5.26067e-19)
(4.3655 1.31071 -2.76876e-19)
(3.99493 1.11843 0)
(3.51097 0.88532 5.06487e-19)
(2.87372 0.640068 -4.70967e-19)
(2.0838 0.419062 1.00316e-18)
(1.37657 0.170555 0)
(5.22975 1.5249 3.5086e-20)
(5.10969 1.69903 2.67643e-19)
(5.02997 1.55433 -1.50445e-19)
(4.88456 1.45288 0)
(4.69134 1.31107 -1.69546e-19)
(4.43383 1.12667 -3.91373e-19)
(4.09726 0.894838 -8.51911e-20)
(3.66948 0.617048 1.79396e-18)
(3.12475 0.326899 -4.74395e-19)
(2.43602 0.0658555 0)
(1.72472 -0.240099 0)
(5.2326 1.45353 1.24137e-19)
(5.1112 1.59245 -2.57268e-19)
(5.03383 1.44113 -4.42658e-19)
(4.90112 1.31041 -9.60849e-20)
(4.72679 1.13751 3.43565e-19)
(4.49795 0.917229 0)
(4.207 0.641336 4.11707e-21)
(3.84401 0.333048 4.4989e-20)
(3.39006 0.0182092 -4.71382e-19)
(2.81855 -0.28281 -3.96044e-19)
(2.20334 -0.616446 0)
(5.21117 1.37582 3.16803e-19)
(5.08981 1.46993 -7.07812e-20)
(5.01511 1.30785 4.63967e-19)
(4.89779 1.14479 -5.59542e-19)
(4.74765 0.935206 -4.39709e-19)
(4.55602 0.67042 -7.60467e-20)
(4.32133 0.354422 -7.86836e-19)
(4.03299 0.0333028 1.80059e-18)
(3.67521 -0.296157 3.75352e-20)
(3.22778 -0.626319 0)
(2.73273 -0.97249 -5.47143e-19)
(5.15899 1.28614 1.48314e-19)
(5.03877 1.32677 0)
(4.96713 1.14793 0)
(4.86777 0.947164 2.05992e-19)
(4.74828 0.692071 1.81385e-19)
(4.60533 0.384475 7.92138e-19)
(4.4361 0.0697444 1.12433e-19)
(4.22942 -0.258474 -1.13043e-18)
(3.96921 -0.596787 0)
(3.6442 -0.93587 -7.31862e-19)
(3.28907 -1.28058 5.92766e-19)
(5.06859 1.17791 -1.49565e-19)
(4.9482 1.15805 0)
(4.87641 0.954995 -8.77632e-20)
(4.78951 0.710798 0)
(4.70284 0.423624 2.02013e-19)
(4.62014 0.12171 -4.47348e-19)
(4.52606 -0.200205 0)
(4.40756 -0.537897 0)
(4.25118 -0.88202 0)
(4.05067 -1.22312 0)
(3.82682 -1.55796 4.97496e-19)
(4.93228 1.04893 -4.86716e-20)
(4.80103 0.96584 0)
(4.71206 0.732619 -2.86351e-19)
(4.64099 0.470397 2.88691e-19)
(4.59895 0.179177 -4.14155e-19)
(4.57725 -0.135342 4.17222e-19)
(4.56193 -0.464511 5.62473e-19)
(4.53447 -0.79978 5.44229e-20)
(4.47929 -1.13373 -3.45535e-19)
(4.3901 -1.46002 0)
(4.27181 -1.7714 0)
(4.71377 0.887796 -1.63066e-19)
(4.56297 0.737429 1.32941e-19)
(4.48593 0.502303 2.98714e-20)
(4.44076 0.219677 0)
(4.44098 -0.0943534 7.56951e-20)
(4.48186 -0.416121 0)
(4.54022 -0.732572 0)
(4.58922 -1.04177 -3.97737e-19)
(4.61033 -1.34411 4.23654e-19)
(4.59481 -1.63671 0)
(4.54355 -1.91458 0)
(4.41611 0.656819 2.64132e-20)
(4.29649 0.501232 -8.85702e-20)
(4.23395 0.216804 -3.42786e-20)
(4.22231 -0.10045 9.04927e-21)
(4.27637 -0.422933 9.07639e-21)
(4.37486 -0.721375 0)
(4.48347 -0.992529 -2.24194e-19)
(4.57228 -1.24608 -1.80219e-19)
(4.62313 -1.48822 1.05238e-19)
(4.62828 -1.71379 0)
(4.59891 -1.91104 0)
(4.1429 0.551425 -9.9667e-20)
(4.05161 0.133254 2.04665e-19)
(4.018 -0.175432 -1.04287e-19)
(4.07637 -0.50004 3.83214e-19)
(4.18615 -0.783606 -2.66717e-19)
(4.31476 -1.01923 0)
(4.43087 -1.21863 -5.46596e-20)
(4.51431 -1.40005 1.57003e-19)
(4.55246 -1.56862 -8.57536e-21)
(4.52763 -1.7053 -1.34398e-20)
(4.44221 -1.76347 -7.71238e-21)
(3.99919 -0.567136 0)
(3.92826 -0.461322 3.11399e-19)
(4.03168 -0.76093 -4.26289e-19)
(4.14124 -0.978393 -5.60699e-19)
(4.25085 -1.15155 4.44522e-19)
(4.34594 -1.28761 -1.82781e-19)
(4.41484 -1.40284 6.52451e-20)
(4.448 -1.50985 0)
(4.42604 -1.60035 8.59629e-20)
(4.31774 -1.62878 -6.27625e-20)
(4.09762 -1.53644 -2.4761e-21)
(6.17377 -6.68216 0)
(5.08352 -5.42623 0)
(5.01433 -4.20038 -1.01044e-18)
(4.88716 -3.29003 7.81014e-19)
(4.68844 -2.61545 0)
(4.45883 -2.10775 -3.65264e-20)
(4.22657 -1.71697 0)
(4.00621 -1.41064 0)
(3.80419 -1.16634 -6.54074e-19)
(3.6233 -0.970378 5.81608e-19)
(3.46012 -0.820148 -2.1534e-19)
(1.63422 -5.6622 8.76613e-19)
(2.23836 -5.2134 0)
(2.93026 -4.58118 -4.31455e-18)
(3.40933 -3.88669 3.33134e-18)
(3.66514 -3.23122 -1.67122e-18)
(3.75503 -2.65102 1.29782e-18)
(3.73429 -2.16181 9.51201e-19)
(3.6511 -1.76275 0)
(3.53985 -1.44286 2.74676e-19)
(3.42052 -1.18934 0)
(3.30015 -0.995393 0)
(-0.391728 -3.32873 -4.64373e-18)
(0.690055 -4.04869 2.57096e-18)
(1.43662 -4.12644 -1.66637e-18)
(2.10714 -3.82948 4.05391e-18)
(2.60775 -3.3981 -3.08728e-18)
(2.94044 -2.91768 0)
(3.12895 -2.44727 -9.77388e-19)
(3.21011 -2.02443 -8.29929e-19)
(3.2197 -1.66512 -1.96142e-18)
(3.18494 -1.37064 6.61798e-19)
(3.12006 -1.14054 -8.94511e-19)
(-0.64865 -2.4757 1.54738e-18)
(-0.0610182 -2.83865 0)
(0.377545 -3.13696 4.62447e-20)
(1.01458 -3.29068 3.4917e-18)
(1.61249 -3.19126 1.37264e-18)
(2.09739 -2.91152 -2.3605e-18)
(2.44099 -2.54671 -1.51187e-18)
(2.65959 -2.16768 -1.55555e-19)
(2.78668 -1.81431 2.15822e-18)
(2.85374 -1.50494 -8.09524e-19)
(2.87801 -1.24923 8.80381e-19)
(-0.518437 -1.9102 1.23189e-18)
(-0.0766471 -2.17012 0)
(0.102459 -2.40851 3.08441e-18)
(0.500039 -2.57813 -2.30969e-18)
(0.953006 -2.62343 0)
(1.41697 -2.53661 -1.16412e-18)
(1.8284 -2.34032 1.48271e-18)
(2.15308 -2.07542 2.02907e-18)
(2.38629 -1.78597 1.38884e-18)
(2.54081 -1.50678 -1.61609e-18)
(2.62639 -1.26296 1.2035e-19)
(-0.325307 -1.47114 -3.84525e-18)
(0.00878226 -1.63353 4.27972e-19)
(0.0824669 -1.82772 -1.27975e-18)
(0.377046 -1.99289 0)
(0.704838 -2.09004 0)
(1.0755 -2.09649 1.11956e-18)
(1.44428 -2.01162 -1.50918e-18)
(1.77425 -1.85361 1.17188e-18)
(2.04505 -1.65107 -2.79056e-18)
(2.25104 -1.43406 9.40426e-19)
(2.3879 -1.23075 0)
(-0.167961 -1.14681 1.48464e-18)
(0.12031 -1.22135 -1.4471e-18)
(0.158144 -1.3717 1.50948e-18)
(0.365861 -1.50907 -2.82662e-19)
(0.607498 -1.61174 4.37973e-20)
(0.896653 -1.66148 0)
(1.20615 -1.64778 7.28434e-19)
(1.50772 -1.57233 -1.59389e-18)
(1.77884 -1.44793 1.40205e-18)
(2.00454 -1.29433 2.83462e-20)
(2.16959 -1.13319 0)
(-0.0439451 -0.903791 4.24948e-19)
(0.221384 -0.918428 6.80142e-19)
(0.251942 -1.0239 0)
(0.411381 -1.13288 0)
(0.596833 -1.22393 0)
(0.824381 -1.28596 0)
(1.07823 -1.30799 -8.49206e-19)
(1.34006 -1.28492 1.28845e-19)
(1.59188 -1.21955 1.01576e-18)
(1.81613 -1.12298 -1.18029e-18)
(1.98712 -1.01317 0)
(0.064742 -0.699935 0)
(0.314404 -0.678263 0)
(0.342641 -0.751425 -2.18954e-19)
(0.476076 -0.837855 -7.16846e-19)
(0.626346 -0.91405 5.57025e-19)
(0.810949 -0.974547 0)
(1.02065 -1.01087 3.4927e-19)
(1.24454 -1.01665 -4.53887e-19)
(1.47031 -0.989794 -5.89078e-19)
(1.68283 -0.934345 1.59976e-19)
(1.85541 -0.861169 -1.62452e-19)
(0.173169 -0.536786 1.68068e-20)
(0.412651 -0.483059 -1.02567e-18)
(0.432429 -0.530335 1.87275e-19)
(0.547078 -0.598998 -3.91155e-20)
(0.672887 -0.661355 0)
(0.827565 -0.71561 0)
(1.00456 -0.755594 3.03427e-19)
(1.19733 -0.775636 4.4433e-19)
(1.3979 -0.77179 1.88104e-19)
(1.59484 -0.743353 -6.00717e-20)
(1.76311 -0.692934 -3.89426e-20)
(0.269241 -0.424849 1.46233e-19)
(0.499722 -0.328554 0)
(0.51479 -0.349876 1.52511e-18)
(0.61712 -0.401656 -1.13564e-18)
(0.725906 -0.450527 0)
(0.859707 -0.496773 0)
(1.01302 -0.5354 2.61377e-19)
(1.18167 -0.561764 0)
(1.36057 -0.571709 -3.7102e-20)
(1.54085 -0.563068 -1.99205e-19)
(1.69346 -0.536689 2.75281e-19)
(0.340128 -0.331345 -1.4223e-19)
(0.55789 -0.192672 -1.76425e-18)
(0.580696 -0.194729 1.04437e-18)
(0.679399 -0.232754 -2.64275e-19)
(0.778818 -0.269794 8.4689e-19)
(0.89939 -0.307918 -6.154e-21)
(1.03635 -0.34304 -2.56371e-19)
(1.18722 -0.371487 -2.3419e-20)
(1.34879 -0.389591 -5.4971e-19)
(1.51492 -0.394525 1.97909e-19)
(1.65914 -0.383743 -8.03688e-19)
(0.403328 -0.228492 2.36046e-18)
(0.608656 -0.060586 -3.97318e-19)
(0.639677 -0.0518307 -9.61019e-19)
(0.736281 -0.0805146 -7.49898e-19)
(0.829968 -0.108527 1.17133e-18)
(0.942364 -0.13986 -1.791e-18)
(1.06854 -0.171187 2.31021e-18)
(1.20703 -0.199866 -3.21286e-20)
(1.35587 -0.222779 4.88887e-19)
(1.51159 -0.23637 7.67306e-22)
(1.65115 -0.233269 1.01186e-18)
(0.465512 -0.144534 -2.52788e-19)
(0.666481 0.0553704 1.99187e-20)
(0.699055 0.0785847 0)
(0.7915 0.0597279 0)
(0.880568 0.0397832 -3.79168e-19)
(0.987723 0.0141382 3.74833e-20)
(1.10696 -0.0138629 0)
(1.23708 -0.042373 -6.56284e-19)
(1.37639 -0.0685936 1.80236e-18)
(1.52326 -0.0888683 -1.32479e-18)
(1.65328 -0.094153 9.14164e-19)
(0.50926 -0.0730483 0)
(0.705127 0.165956 3.78229e-19)
(0.748338 0.202686 5.56732e-19)
(0.84261 0.19228 0)
(0.930852 0.179191 6.65065e-19)
(1.0359 0.158209 1.55729e-18)
(1.15126 0.132733 -7.81698e-19)
(1.27605 0.104019 -5.59931e-19)
(1.40837 0.0746733 -3.12942e-20)
(1.54846 0.0482443 6.66549e-19)
(1.67426 0.036319 -1.31385e-18)
(0.555652 0.009062 -1.3829e-18)
(0.742942 0.280866 0)
(0.796845 0.326107 -5.61787e-19)
(0.893623 0.321709 -1.67351e-18)
(0.98275 0.313873 1.35652e-20)
(1.08799 0.296112 -7.70865e-20)
(1.20182 0.271821 -1.45056e-18)
(1.32349 0.241751 1.1048e-18)
(1.45042 0.208721 -8.2557e-19)
(1.58479 0.176081 0)
(1.70606 0.158285 0)
(0.608285 0.0874854 -8.73808e-19)
(0.788474 0.388494 0)
(0.851209 0.445537 0)
(0.948344 0.448782 7.61749e-19)
(1.03889 0.445831 1.82525e-18)
(1.14563 0.430164 -1.87684e-18)
(1.25945 0.405445 0)
(1.37958 0.372205 3.345e-20)
(1.50171 0.334347 -7.43358e-19)
(1.63001 0.294813 0)
(1.7449 0.270645 -7.15657e-19)
(0.654336 0.159215 2.77254e-20)
(0.827756 0.491837 6.19859e-19)
(0.905942 0.562957 -4.68956e-19)
(1.00715 0.574861 6.9237e-19)
(1.10276 0.575697 -2.77617e-18)
(1.21308 0.560221 6.1393e-20)
(1.32819 0.532545 0)
(1.44629 0.494089 9.58134e-19)
(1.56301 0.450204 6.51344e-19)
(1.68405 0.403512 -4.52179e-19)
(1.79251 0.372775 -6.31536e-19)
(0.703437 0.235249 2.10533e-18)
(0.866447 0.597888 -9.45278e-19)
(0.965194 0.682625 4.91498e-20)
(1.07425 0.702378 1.36726e-18)
(1.17834 0.704336 -5.07659e-19)
(1.29373 0.68554 5.94015e-20)
(1.40988 0.651226 2.19232e-18)
(1.52436 0.604981 -1.63905e-18)
(1.63383 0.554219 6.04482e-19)
(1.74531 0.501616 9.08448e-19)
(1.84882 0.464528 6.50099e-19)
(0.764533 0.318315 -1.64633e-18)
(0.913731 0.707974 1.48873e-18)
(1.03789 0.805051 -2.92405e-20)
(1.15826 0.830441 1.25252e-18)
(1.27262 0.829088 3.81064e-19)
(1.39212 0.801816 -6.95122e-19)
(1.50608 0.756814 -5.35777e-19)
(1.61263 0.701214 0)
(1.71122 0.64428 5.00204e-19)
(1.80975 0.588838 3.65567e-19)
(1.90649 0.547057 -5.26958e-19)
(0.841716 0.407139 0)
(0.977251 0.821081 -2.5339e-19)
(1.13274 0.926474 -6.17429e-19)
(1.26862 0.952105 0)
(1.39248 0.940532 3.51254e-19)
(1.51091 0.898884 -3.39769e-19)
(1.6154 0.840877 0)
(1.70733 0.777503 0)
(1.79071 0.717883 1.89349e-19)
(1.87389 0.66378 -7.23726e-19)
(1.96 0.620889 5.33822e-19)
(0.979427 0.507487 0)
(1.06598 0.935684 3.98423e-19)
(1.26837 1.03461 2.00912e-19)
(1.41879 1.05009 -9.9771e-20)
(1.54304 1.01942 -7.54892e-19)
(1.64779 0.960192 2.21439e-19)
(1.73145 0.892563 -7.7636e-19)
(1.80157 0.828414 -1.80753e-20)
(1.86647 0.773157 2.98744e-19)
(1.93417 0.725943 0)
(2.01045 0.684447 0)
(0.950892 0.555669 1.27248e-18)
(1.21111 0.990683 -1.05497e-18)
(1.4057 1.09718 0)
(1.57142 1.0854 8.61223e-19)
(1.68797 1.03209 -1.02464e-18)
(1.76908 0.964256 4.06577e-19)
(1.82757 0.901328 -3.53141e-19)
(1.877 0.849785 5.44441e-19)
(1.92657 0.809102 -7.30065e-19)
(1.98232 0.776753 5.994e-19)
(2.05075 0.743163 -9.43954e-20)
(2.66417 0.62813 1.56505e-18)
(1.73786 1.16212 -1.71875e-18)
(2.05608 0.97519 4.50734e-19)
(2.02846 0.958307 7.03697e-19)
(1.9887 0.923785 -4.97518e-19)
(1.95744 0.887353 -4.67793e-19)
(1.94409 0.859889 2.47078e-19)
(1.95186 0.839679 -9.0283e-21)
(1.97801 0.824196 1.10399e-19)
(2.0189 0.813807 -9.17503e-20)
(2.07603 0.798942 -5.90903e-22)
(8.25961 -4.3992 0)
(6.54486 -1.90921 2.63566e-18)
(6.70112 -2.43961 -2.18575e-18)
(6.25218 -2.28538 2.86033e-20)
(5.63873 -1.91757 0)
(5.10185 -1.5746 7.0649e-20)
(4.67617 -1.29327 -4.45892e-20)
(4.33103 -1.06788 6.28941e-21)
(4.04276 -0.883994 0)
(3.79875 -0.734989 4.83262e-21)
(3.59121 -0.622103 0)
(6.03937 -2.40351 0)
(4.93473 0.0918512 0)
(6.17648 -0.446625 -5.85018e-19)
(6.4939 -0.739628 4.39862e-18)
(6.22575 -0.788136 -2.7278e-18)
(5.66081 -0.782048 0)
(5.10601 -0.728514 0)
(4.65119 -0.643641 1.00055e-20)
(4.27276 -0.548346 -6.05396e-20)
(3.96243 -0.463013 5.42164e-20)
(3.71296 -0.402957 1.60664e-20)
(2.90016 -1.88883 -1.917e-18)
(3.30887 0.312382 0)
(4.95667 0.567389 -9.66709e-19)
(5.76933 0.541267 -3.97765e-19)
(6.02493 0.431032 8.13324e-19)
(5.82815 0.229584 0)
(5.33689 0.0249588 0)
(4.85732 -0.0811376 9.05419e-19)
(4.43597 -0.122016 -2.31153e-19)
(4.07794 -0.130116 -3.50492e-19)
(3.78679 -0.136784 -1.57252e-19)
(0.641936 -2.60898 -1.02297e-17)
(2.10641 -0.559748 2.26805e-18)
(3.64911 0.596837 -1.56327e-18)
(4.68825 1.13417 0)
(5.33818 1.28421 1.57855e-18)
(5.51753 1.13141 2.62936e-18)
(5.26937 0.824738 -1.99719e-18)
(4.86361 0.548741 0)
(4.47321 0.370236 0)
(4.11251 0.255558 -7.35564e-19)
(3.80647 0.17515 1.608e-19)
(-0.448566 -3.93024 -1.52388e-18)
(1.33304 -1.63427 -2.15845e-18)
(2.582 0.0934295 1.49357e-19)
(3.67341 1.15165 4.24047e-18)
(4.51601 1.68011 9.17932e-20)
(4.9449 1.74218 0)
(4.9323 1.48695 -2.06128e-18)
(4.67884 1.1437 0)
(4.36347 0.863981 0)
(4.0435 0.655467 -1.05449e-18)
(3.74407 0.506974 2.00309e-18)
(-0.841025 -5.21815 0)
(0.738773 -2.60238 0)
(1.79268 -0.556277 -2.68407e-18)
(2.8571 0.884132 0)
(3.749 1.75488 -2.5745e-18)
(4.3016 2.07116 0)
(4.45542 1.94734 5.69599e-18)
(4.35108 1.62808 -2.82559e-18)
(4.13221 1.30149 -1.2111e-18)
(3.87689 1.02815 8.97957e-19)
(3.62114 0.80949 -7.03364e-19)
(-0.97542 -5.60524 4.13498e-18)
(0.295027 -3.27517 3.10003e-18)
(1.18738 -1.15273 -2.25377e-18)
(2.19684 0.53014 -3.28067e-18)
(3.07692 1.66434 2.46275e-18)
(3.67859 2.20699 0)
(3.93491 2.23231 0)
(3.94292 1.97732 0)
(3.8204 1.65792 0)
(3.63238 1.35276 3.2446e-18)
(3.43826 1.07491 -1.09765e-18)
(-1.06309 -5.86822 0)
(-0.0439075 -3.81637 -2.96499e-18)
(0.700396 -1.70645 4.22328e-18)
(1.64459 0.147354 3.02697e-18)
(2.48976 1.48967 -2.27245e-18)
(3.10206 2.22237 0)
(3.41718 2.38769 -1.85807e-18)
(3.50395 2.21007 1.41375e-18)
(3.45972 1.91875 0)
(3.33981 1.61537 -1.71738e-18)
(3.20295 1.30881 -8.84099e-19)
(-1.08633 -6.02847 0)
(-0.301112 -4.25489 -1.34602e-18)
(0.305645 -2.22262 -5.99411e-20)
(1.17337 -0.253891 -1.38721e-18)
(1.97083 1.2582 0)
(2.57231 2.15266 0)
(2.91863 2.44478 0)
(3.05974 2.34705 0)
(3.0768 2.09445 -1.38687e-18)
(3.01413 1.80689 2.34073e-19)
(2.94945 1.4851 6.05841e-19)
(-1.09142 -6.12479 0)
(-0.487044 -4.58816 -1.21958e-18)
(-0.0141132 -2.68319 1.72831e-18)
(0.767812 -0.658254 5.24247e-18)
(1.50825 0.987132 -1.94245e-18)
(2.08538 2.01818 2.72781e-18)
(2.44473 2.42331 -1.70941e-18)
(2.62322 2.40356 1.30394e-18)
(2.68891 2.19468 0)
(2.67551 1.93042 8.05849e-19)
(2.66747 1.61877 -6.03401e-19)
(-1.11675 -6.18965 0)
(-0.635627 -4.84933 0)
(-0.272635 -3.09135 -5.18445e-20)
(0.413371 -1.06336 -2.49704e-18)
(1.08796 0.681509 -1.03689e-19)
(1.63238 1.82802 -3.85304e-18)
(1.99393 2.33471 0)
(2.19898 2.39008 -1.04659e-18)
(2.3043 2.22715 1.86595e-19)
(2.33527 1.98845 9.85745e-19)
(2.36716 1.70067 9.85165e-19)
(-1.17207 -6.24511 0)
(-0.771397 -5.04741 -2.44581e-18)
(-0.481957 -3.4363 3.80675e-18)
(0.0993185 -1.45435 -1.65853e-20)
(0.703254 0.353992 -8.53693e-19)
(1.20963 1.59357 6.46938e-19)
(1.56535 2.1888 7.6068e-19)
(1.78912 2.31455 -5.8008e-19)
(1.92708 2.1982 -7.48372e-20)
(1.99848 1.98645 -4.64761e-19)
(2.06661 1.72229 -9.76279e-19)
(-1.22412 -6.29759 -1.35192e-19)
(-0.884731 -5.19166 4.67827e-19)
(-0.653785 -3.7222 -5.67045e-19)
(-0.182529 -1.82753 -8.02465e-19)
(0.348166 0.00824322 8.00098e-19)
(0.811945 1.31879 5.75219e-19)
(1.156 1.98985 0)
(1.3932 2.181 4.58346e-19)
(1.5594 2.11164 -6.46643e-19)
(1.66727 1.93067 -3.39409e-19)
(1.78307 1.69132 -1.41452e-19)
(-1.2649 -6.34367 -1.95906e-18)
(-0.993133 -5.31604 8.33178e-19)
(-0.806992 -3.97931 -1.73964e-19)
(-0.435633 -2.19173 -2.61434e-19)
(0.0174875 -0.360963 7.16375e-19)
(0.432929 1.0007 -6.66686e-19)
(0.761299 1.73658 0)
(1.00927 1.98915 5.29621e-19)
(1.20285 1.9676 1.03495e-19)
(1.34791 1.82156 -3.47232e-19)
(1.4992 1.61619 1.13966e-19)
(-1.30093 -6.37499 -5.19667e-21)
(-1.1067 -5.42657 7.80482e-19)
(-0.952671 -4.20786 0)
(-0.665161 -2.54046 0)
(-0.291099 -0.748522 0)
(0.0703781 0.641494 8.20928e-19)
(0.378447 1.42864 -1.74423e-19)
(0.63596 1.73642 -2.04501e-19)
(0.857678 1.76297 1.49569e-19)
(1.04303 1.65574 -2.45886e-19)
(1.22501 1.49103 1.23348e-20)
(-1.32728 -6.3872 4.48653e-19)
(-1.21613 -5.52486 0)
(-1.09568 -4.41312 0)
(-0.878797 -2.8729 -8.53358e-19)
(-0.583663 -1.15278 7.83107e-20)
(-0.279647 0.237446 -5.25598e-19)
(0.00354429 1.05967 -5.01761e-21)
(0.270392 1.41493 0)
(0.523559 1.49017 0)
(0.754455 1.42771 1.65067e-19)
(0.98296 1.30706 -2.66153e-19)
(-1.34628 -6.38205 1.28248e-18)
(-1.31523 -5.59556 -6.97916e-19)
(-1.23691 -4.60866 -1.3786e-19)
(-1.08481 -3.19493 1.01309e-18)
(-0.869564 -1.57657 -1.9391e-20)
(-0.624843 -0.219231 1.94162e-19)
(-0.36672 0.61674 -1.46017e-19)
(-0.0892222 1.01084 -5.77947e-19)
(0.200353 1.13672 0)
(0.478563 1.12838 -4.89078e-19)
(0.768118 1.05666 3.53882e-19)
(-1.36435 -6.35663 -8.99436e-19)
(-1.41273 -5.64211 1.65531e-19)
(-1.38181 -4.78531 -1.05323e-18)
(-1.29841 -3.51529 -5.00233e-20)
(-1.15825 -2.02508 -1.04976e-18)
(-0.973275 -0.738631 0)
(-0.73567 0.0817431 0)
(-0.441017 0.504451 1.05303e-18)
(-0.109341 0.686201 1.08774e-19)
(0.213697 0.746685 7.29597e-19)
(0.570605 0.748384 3.62324e-20)
(-1.38504 -6.3066 0)
(-1.52031 -5.65639 0)
(-1.53577 -4.90086 1.28276e-18)
(-1.53954 -3.86392 -1.88161e-19)
(-1.46879 -2.50676 6.54873e-19)
(-1.32977 -1.3399 -3.61997e-19)
(-1.10017 -0.570492 0)
(-0.777591 -0.130257 -3.09216e-19)
(-0.398468 0.118124 -9.93016e-19)
(-0.0286876 0.266062 -1.07893e-19)
(0.367042 0.362132 -1.8015e-19)
(-1.40356 -6.22302 -1.60266e-18)
(-1.65089 -5.62425 0)