/*--------------------------------*- C++ -*----------------------------------*\
| =========                 |                                                 |
| \\      /  F ield         | OpenFOAM: The Open Source CFD Toolbox           |
|  \\    /   O peration     | Version:  3.0.1                                 |
|   \\  /    A nd           | Web:      www.OpenFOAM.org                      |
|    \\/     M anipulation  |                                                 |
\*---------------------------------------------------------------------------*/
FoamFile
{
    version     2.0;
    format      ascii;
    class       volVectorField;
    location    "0.77625";
    object      U;
}
// * * * * * * * * * * * * * * * * * * * * * * * * * * * * * * * * * * * * * //

dimensions      [0 1 -1 0 0 0 0];

internalField   nonuniform List<vector> 
21246
(
(4.63221 -2.01206 -5.37693e-19)
(3.84356 -1.40325 -1.44459e-18)
(4.03962 -1.40579 1.92299e-19)
(4.08839 -1.26652 1.59731e-19)
(4.02575 -1.01689 3.56605e-20)
(3.92775 -0.75113 1.99553e-20)
(3.81916 -0.547201 -2.40698e-20)
(3.70311 -0.398948 0)
(3.58828 -0.299071 2.05685e-20)
(3.47937 -0.239902 -2.91612e-20)
(3.38738 -0.217662 -4.92279e-21)
(3.95574 -0.93812 -2.16259e-18)
(3.20121 -0.672738 -2.81923e-19)
(3.33073 -1.04834 9.72825e-19)
(3.4429 -1.13559 -1.48333e-18)
(3.51716 -1.06186 6.93891e-19)
(3.57153 -0.901964 -1.99424e-19)
(3.58898 -0.707587 1.15315e-19)
(3.56241 -0.540241 -6.34684e-20)
(3.51006 -0.421734 2.565e-21)
(3.44418 -0.344481 -4.93344e-21)
(3.37923 -0.308359 -5.27545e-21)
(3.82851 -0.14135 0)
(3.13247 -0.204961 -1.14889e-18)
(3.04058 -0.60303 3.31391e-18)
(3.05547 -0.781146 -1.25904e-18)
(3.12723 -0.854348 -5.3072e-19)
(3.23444 -0.828953 5.56141e-19)
(3.3338 -0.726062 -1.49769e-19)
(3.39265 -0.59847 1.05834e-19)
(3.40606 -0.4882 -4.44026e-20)
(3.38821 -0.409365 8.50093e-20)
(3.35735 -0.368934 -9.18276e-20)
(3.8122 0.148503 -2.17474e-18)
(3.21708 0.0723071 1.2872e-18)
(3.01175 -0.226212 -8.86437e-19)
(2.92907 -0.408408 1.39873e-18)
(2.9414 -0.555272 -8.30133e-19)
(3.02692 -0.627917 -3.82033e-19)
(3.1417 -0.621084 5.52669e-19)
(3.24118 -0.564293 -1.03112e-19)
(3.30242 -0.492749 2.69541e-19)
(3.32515 -0.431361 -5.37529e-20)
(3.32445 -0.396575 -1.3061e-20)
(3.7572 0.204842 -7.38208e-19)
(3.31835 0.206619 2.61985e-19)
(3.09836 0.00996324 8.04957e-19)
(2.96549 -0.135 -5.61052e-19)
(2.92266 -0.289687 0)
(2.96097 -0.404257 1.9159e-19)
(3.05003 -0.462111 -5.83254e-19)
(3.14868 -0.47004 -3.53234e-19)
(3.22676 -0.448202 4.3987e-20)
(3.27343 -0.417111 -1.82768e-19)
(3.29503 -0.397795 1.32868e-19)
(3.70382 0.194325 3.30398e-19)
(3.39456 0.254562 -2.47971e-19)
(3.206 0.121297 -3.6959e-19)
(3.07331 0.0287074 -2.30322e-19)
(3.00207 -0.103281 7.14632e-19)
(2.99953 -0.22132 -2.16502e-20)
(3.05004 -0.309271 0)
(3.12419 -0.359889 3.44924e-19)
(3.1947 -0.379523 -3.9678e-19)
(3.24585 -0.380213 -1.23089e-19)
(3.2767 -0.380012 0)
(3.67772 0.177775 -2.77037e-19)
(3.452 0.260963 0)
(3.30246 0.15306 3.11048e-19)
(3.1942 0.105878 -6.90697e-19)
(3.11959 0.00225844 3.44821e-19)
(3.09328 -0.10157 0)
(3.1105 -0.194992 -2.98463e-19)
(3.15416 -0.265834 1.76066e-19)
(3.20438 -0.311904 -3.45489e-19)
(3.24619 -0.33735 4.22228e-19)
(3.27484 -0.355874 1.68935e-19)
(3.67329 0.14278 1.9935e-19)
(3.49866 0.230467 -2.35191e-19)
(3.38803 0.14414 1.41116e-19)
(3.30665 0.126481 -3.1588e-19)
(3.24082 0.0436115 2.94413e-19)
(3.20518 -0.0415347 -2.24374e-19)
(3.2 -0.127753 5.6356e-19)
(3.21709 -0.203079 -2.04973e-19)
(3.24416 -0.261554 -2.39998e-19)
(3.26987 -0.302021 -1.41489e-20)
(3.28813 -0.331826 -2.45024e-19)
(3.68287 0.0887578 2.25309e-21)
(3.54614 0.192791 3.72669e-19)
(3.46705 0.118109 1.77941e-19)
(3.40443 0.107167 1.49633e-19)
(3.35123 0.0398792 -1.36776e-19)
(3.31483 -0.0277437 1.04659e-19)
(3.29667 -0.10255 0)
(3.29391 -0.173884 -1.80846e-19)
(3.30017 -0.234899 3.5315e-19)
(3.3084 -0.281846 1.46155e-19)
(3.31321 -0.31784 -1.7471e-19)
(3.70697 0.0313465 -1.07629e-19)
(3.59999 0.154124 -8.24267e-20)
(3.53746 0.0760147 -1.26076e-19)
(3.48888 0.0637816 0)
(3.44779 0.0103334 1.29641e-19)
(3.41383 -0.045271 0)
(3.38856 -0.109542 0)
(3.37184 -0.173736 2.63703e-19)
(3.36128 -0.231901 -3.09033e-21)
(3.35341 -0.279642 7.09992e-20)
(3.34435 -0.317849 -8.64923e-20)
(3.74523 -0.0292192 1.7691e-19)
(3.659 0.105752 -1.39677e-19)
(3.60265 0.0232612 0)
(3.56481 0.00960615 0)
(3.53159 -0.0355217 -1.26802e-19)
(3.49974 -0.0841924 0)
(3.47024 -0.139809 -2.99655e-20)
(3.44373 -0.196424 -6.3691e-20)
(3.42011 -0.249414 -9.60563e-20)
(3.3986 -0.294494 -1.01922e-19)
(3.37708 -0.330279 1.0906e-19)
(3.78836 -0.0969784 -1.66514e-19)
(3.71665 0.0467843 1.31655e-19)
(3.66298 -0.0384039 2.68546e-20)
(3.63183 -0.0526432 -1.56325e-19)
(3.60274 -0.0931844 1.21235e-19)
(3.57218 -0.137362 -8.02892e-20)
(3.53978 -0.186378 5.99424e-20)
(3.50611 -0.236286 -3.99238e-20)
(3.47234 -0.283539 -1.18945e-20)
(3.43942 -0.324144 8.87534e-21)
(3.40684 -0.357253 0)
(3.82834 -0.167515 3.53117e-20)
(3.76942 -0.0164478 -2.86817e-19)
(3.71736 -0.104637 -2.64757e-20)
(3.68997 -0.120081 -2.22486e-19)
(3.66299 -0.158232 3.28573e-19)
(3.63273 -0.199715 3.4076e-20)
(3.59769 -0.244207 1.04559e-19)
(3.55817 -0.28885 -6.81783e-20)
(3.51596 -0.330881 5.13249e-20)
(3.4733 -0.366465 0)
(3.43059 -0.395982 -6.78924e-20)
(3.86988 -0.239481 -4.88275e-19)
(3.82084 -0.0813751 2.76142e-19)
(3.76773 -0.172746 0)
(3.74157 -0.190645 -3.47984e-19)
(3.71495 -0.227991 2.12237e-19)
(3.68375 -0.268409 -7.53834e-20)
(3.64565 -0.310316 -2.00578e-19)
(3.60055 -0.351254 6.25929e-20)
(3.55055 -0.388719 -4.71207e-20)
(3.49896 -0.418747 0)
(3.44676 -0.443336 6.73399e-20)
(3.91151 -0.316132 -2.51549e-19)
(3.86877 -0.150495 6.42329e-19)
(3.81326 -0.244662 -9.29248e-21)
(3.78698 -0.264316 5.42794e-19)
(3.75954 -0.301835 7.14499e-20)
(3.72642 -0.342477 -1.31651e-20)
(3.68459 -0.383471 9.65359e-20)
(3.6335 -0.42211 1.1534e-19)
(3.57547 -0.45564 2.15306e-19)
(3.5148 -0.479689 -5.2818e-20)
(3.45254 -0.498761 0)
(3.94845 -0.394443 1.69684e-19)
(3.91223 -0.221445 3.57495e-19)
(3.85457 -0.318953 -3.86871e-19)
(3.82751 -0.340807 -7.8224e-21)
(3.79855 -0.379665 -1.51731e-20)
(3.76258 -0.421982 -6.31077e-19)
(3.71589 -0.463728 1.83512e-19)
(3.65751 -0.501286 8.77028e-20)
(3.59018 -0.531104 -2.08041e-20)
(3.51968 -0.548208 7.07479e-20)
(3.44779 -0.558081 -1.27172e-20)
(3.98421 -0.474412 -1.73835e-19)
(3.95491 -0.293537 4.69231e-19)
(3.89428 -0.39483 -3.75699e-19)
(3.8656 -0.420454 -1.29931e-19)
(3.83438 -0.462218 -1.6654e-19)
(3.79438 -0.508184 -3.17332e-19)
(3.74089 -0.552604 1.66718e-19)
(3.6727 -0.589986 -2.04146e-19)
(3.59365 -0.615352 -1.23801e-19)
(3.51195 -0.623504 -5.57001e-20)
(3.43009 -0.62225 -3.67878e-20)
(4.02014 -0.558253 0)
(3.99718 -0.368059 0)
(3.9331 -0.473749 -1.76915e-19)
(3.90268 -0.504154 -2.28828e-19)
(3.86878 -0.551078 1.70546e-19)
(3.8231 -0.603602 2.2576e-19)
(3.75953 -0.653031 0)
(3.67738 -0.69048 0)
(3.58315 -0.70919 0)
(3.48879 -0.704983 0)
(3.39684 -0.690407 -5.624e-20)
(4.05599 -0.645845 -1.63922e-19)
(4.0402 -0.444701 0)
(3.97357 -0.555904 0)
(3.94228 -0.593439 2.3859e-19)
(3.90533 -0.649767 -1.38327e-19)
(3.85061 -0.713536 0)
(3.77074 -0.770365 0)
(3.66792 -0.806131 1.00277e-19)
(3.55443 -0.813058 5.37628e-20)
(3.44731 -0.790636 -3.95772e-20)
(3.34993 -0.755118 0)
(4.09277 -0.736913 1.78187e-19)
(4.08715 -0.522372 4.43465e-19)
(4.02123 -0.641341 -3.39481e-19)
(3.9915 -0.691627 3.95452e-19)
(3.94975 -0.766076 -1.54282e-19)
(3.87777 -0.847911 0)
(3.76986 -0.912665 0)
(3.63678 -0.940318 -1.60868e-19)
(3.50064 -0.925736 0)
(3.38307 -0.877174 0)
(3.285 -0.816844 -3.25117e-21)
(4.14084 -0.840835 -1.70194e-19)
(4.15087 -0.605785 0)
(4.09048 -0.730473 -2.93645e-19)
(4.06464 -0.809866 5.77254e-19)
(4.00826 -0.91736 -7.3133e-20)
(3.90001 -1.02408 -1.96099e-19)
(3.74493 -1.08995 9.70719e-20)
(3.57101 -1.094 6.01501e-20)
(3.41284 -1.04243 6.66065e-21)
(3.29238 -0.958398 -9.64307e-21)
(3.20382 -0.870352 4.16896e-21)
(4.20662 -0.929894 2.9153e-19)
(4.22269 -0.583928 4.52297e-19)
(4.19047 -0.823164 -4.09912e-19)
(4.16801 -0.964301 3.66357e-19)
(4.06392 -1.13523 -2.16847e-19)
(3.88783 -1.25946 -4.49126e-20)
(3.66759 -1.30438 -3.05231e-20)
(3.45109 -1.25883 0)
(3.28219 -1.15065 -1.67801e-21)
(3.17447 -1.02324 -2.12716e-20)
(3.10835 -0.908548 2.94286e-20)
(4.16059 -0.499995 -1.14957e-19)
(4.32646 -1.06584 0)
(4.26666 -1.21243 8.4272e-20)
(4.11767 -1.42099 -8.2795e-20)
(3.92714 -1.56563 0)
(3.69979 -1.61619 0)
(3.4628 -1.55813 0)
(3.24993 -1.41876 0)
(3.10461 -1.23657 0)
(3.03401 -1.06324 -2.47581e-20)
(3.01051 -0.926128 6.16486e-21)
(3.67103 -1.69152 0)
(3.82813 -1.35307 1.81944e-19)
(3.64296 -1.72627 -1.30752e-19)
(3.52605 -1.85664 -4.86528e-21)
(3.41596 -1.89179 3.49724e-21)
(3.28037 -1.84617 -6.27352e-20)
(3.11545 -1.6976 8.68825e-20)
(2.96737 -1.45867 -5.43687e-20)
(2.89424 -1.21983 1.67014e-20)
(2.88812 -1.03615 7.70583e-21)
(2.91297 -0.912211 5.62311e-21)
(5.91766 -1.81863 0)
(5.43324 -1.41232 -1.09327e-19)
(5.06802 -1.19574 9.08964e-20)
(4.75277 -0.962554 1.14692e-20)
(4.46754 -0.715382 0)
(4.21669 -0.492142 2.26377e-21)
(4.00113 -0.324838 9.97511e-20)
(3.81257 -0.211717 -5.05599e-20)
(3.64438 -0.139676 0)
(3.49553 -0.102905 -2.12051e-20)
(3.37206 -0.100005 4.90039e-21)
(6.38498 -0.619726 6.16831e-20)
(6.11371 -0.628777 4.09931e-21)
(5.76023 -0.660463 -6.9439e-20)
(5.36883 -0.580858 -6.1493e-20)
(4.96464 -0.419782 -3.09064e-19)
(4.5773 -0.224598 2.31696e-19)
(4.23929 -0.0729346 3.50238e-19)
(3.96059 0.0117366 -4.8118e-20)
(3.72225 0.0545949 -3.1644e-19)
(3.5184 0.0693682 1.28048e-19)
(3.35535 0.0593599 0)
(6.46164 -0.136606 4.97723e-19)
(6.37374 -0.120001 -1.18568e-19)
(6.13851 -0.213527 -2.29735e-19)
(5.8107 -0.200419 1.58221e-19)
(5.4061 -0.103615 1.75578e-19)
(4.95225 0.0741664 1.42592e-19)
(4.50071 0.251136 0)
(4.12002 0.319583 -2.92627e-19)
(3.8016 0.307731 2.09761e-19)
(3.53368 0.278142 2.26107e-19)
(3.32351 0.242151 -1.60707e-19)
(6.47347 0.0201289 0)
(6.44294 0.129957 4.44401e-19)
(6.28553 0.0653506 -1.45783e-19)
(6.03335 0.0855606 -1.02901e-19)
(5.68571 0.164208 -3.05047e-20)
(5.2591 0.32142 1.31372e-19)
(4.78983 0.533959 -3.76229e-19)
(4.31378 0.702224 3.00506e-19)
(3.8676 0.697656 -2.20802e-20)
(3.52304 0.572663 1.05739e-19)
(3.26766 0.465072 1.57193e-19)
(6.50923 0.0623078 1.8931e-19)
(6.49747 0.231557 -1.43589e-19)
(6.36728 0.191346 -1.07817e-19)
(6.15018 0.239167 0)
(5.83602 0.329099 -3.41711e-19)
(5.42359 0.485752 4.64794e-20)
(4.931 0.71158 1.65945e-19)
(4.41635 0.947614 0)
(3.93285 1.06848 0)
(3.46857 0.961642 -2.38996e-19)
(3.16883 0.774134 0)
(6.55462 0.06501 6.6239e-20)
(6.55449 0.275083 -3.73277e-20)
(6.43736 0.238431 -1.04857e-19)
(6.23726 0.303073 -4.30474e-20)
(5.9422 0.400463 0)
(5.5386 0.558131 4.78196e-20)
(5.0264 0.789639 9.71315e-20)
(4.44251 1.06198 -1.3294e-19)
(3.87946 1.26601 6.97534e-20)
(3.38713 1.28531 -1.4626e-19)
(2.99475 1.06735 1.05316e-19)
(6.59676 0.0509228 5.79845e-20)
(6.60551 0.284951 8.37576e-20)
(6.49749 0.240588 2.40324e-20)
(6.30848 0.31253 4.03436e-20)
(6.02763 0.40764 0)
(5.63309 0.559749 5.43619e-20)
(5.10789 0.786944 5.94287e-20)
(4.46854 1.08535 0)
(3.80928 1.34518 0)
(3.22891 1.46456 -1.96517e-21)
(2.77892 1.35273 -2.98046e-20)
(6.63413 0.023338 -4.15919e-20)
(6.64642 0.265639 0)
(6.54553 0.208738 -1.50867e-21)
(6.36552 0.282507 -1.14447e-20)
(6.09803 0.366086 0)
(5.71603 0.502934 8.24202e-20)
(5.18867 0.712759 -3.15065e-19)
(4.50952 1.01245 1.18297e-19)
(3.76057 1.31772 0)
(3.06679 1.5055 -2.5778e-19)
(2.53522 1.52643 2.31983e-20)
(6.66522 -0.00840315 9.62594e-21)
(6.67544 0.229597 5.51145e-21)
(6.5792 0.152227 1.12222e-20)
(6.40635 0.224172 0)
(6.15148 0.287971 6.33924e-20)
(5.78557 0.399768 -4.89354e-20)
(5.26878 0.578697 2.72205e-19)
(4.56888 0.84905 2.1849e-19)
(3.74319 1.18384 2.49672e-19)
(2.94449 1.42086 -1.60286e-19)
(2.30026 1.50435 1.56724e-19)
(6.67902 -0.0402883 -7.97092e-21)
(6.69232 0.180723 1.97073e-20)
(6.59491 0.0773474 0)
(6.42825 0.144851 -3.74621e-20)
(6.18498 0.181542 2.91697e-20)
(5.83723 0.259246 0)
(5.3428 0.394136 -2.65633e-19)
(4.64922 0.610858 -7.45317e-19)
(3.76724 0.94849 -4.50253e-19)
(2.87163 1.20906 2.8927e-19)
(2.12679 1.33423 -2.63452e-19)
(6.66946 -0.0911111 -4.38867e-21)
(6.69572 0.11254 -3.02144e-20)
(6.58214 -0.00320348 0)
(6.42647 0.0481523 0)
(6.19455 0.0517437 0)
(5.86496 0.0875935 0)
(5.39976 0.166318 1.65068e-19)
(4.74226 0.30754 4.93263e-19)
(3.83656 0.613512 2.67245e-19)
(2.85635 0.883526 0)
(2.02501 1.02353 4.26785e-19)
(6.64261 -0.169321 3.88237e-21)
(6.66856 0.0396787 7.85935e-21)
(6.54767 -0.0802384 1.74056e-21)
(6.40015 -0.0772265 -4.76258e-21)
(6.17893 -0.0996659 9.59119e-22)
(5.86634 -0.109174 -5.13243e-21)
(5.42975 -0.0940062 0)
(4.82409 -0.0374998 -2.81653e-19)
(3.95032 0.129308 1.85934e-19)
(2.90883 0.452675 -1.9215e-19)
(2.02899 0.600433 -7.1001e-20)
(6.59363 -0.235222 0)
(6.60155 -0.0503341 -1.21089e-20)
(6.49244 -0.174534 7.75544e-21)
(6.34453 -0.214551 2.19332e-20)
(6.13149 -0.27031 5.54991e-21)
(5.83226 -0.325087 -2.81121e-20)
(5.42376 -0.368946 2.17393e-20)
(4.87765 -0.387233 0)
(4.15015 -0.368907 1.54918e-19)
(3.05778 -0.0788416 -1.73331e-20)
(2.1222 0.0811274 1.26976e-20)
(6.50942 -0.296507 -9.89032e-21)
(6.5024 -0.151785 6.93959e-21)
(6.40232 -0.285331 0)
(6.26049 -0.366139 -4.40451e-20)
(6.06034 -0.461347 0)
(5.781 -0.562335 0)
(5.40177 -0.660151 -1.08775e-19)
(4.89994 -0.743386 8.33847e-20)
(4.24207 -0.796739 3.39183e-19)
(3.35979 -0.690075 -1.34783e-19)
(2.33948 -0.515122 -3.94495e-19)
(6.387 -0.362219 2.5979e-20)
(6.36745 -0.26528 7.3584e-22)
(6.27464 -0.411911 -1.73889e-20)
(6.14364 -0.532146 4.06359e-20)
(5.96196 -0.669738 0)
(5.71096 -0.818825 1.4036e-19)
(5.37353 -0.970723 1.96545e-19)
(4.93122 -1.11216 -1.50381e-19)
(4.3551 -1.22043 -3.3169e-19)
(3.60298 -1.23689 2.61863e-19)
(2.71603 -1.1426 9.28237e-19)
(6.22297 -0.431334 -7.90132e-20)
(6.18938 -0.387209 4.02664e-20)
(6.10312 -0.551701 0)
(5.98702 -0.711601 3.74812e-20)
(5.83088 -0.892753 -2.74691e-20)
(5.61852 -1.08885 -4.12807e-20)
(5.33604 -1.28939 -1.65443e-19)
(4.96895 -1.47692 4.50571e-19)
(4.49479 -1.62532 -5.33671e-19)
(3.88667 -1.70158 1.50212e-18)
(3.15872 -1.68268 -1.06564e-18)
(6.00625 -0.50828 2.06179e-19)
(5.95944 -0.518156 0)
(5.88128 -0.705321 0)
(5.78579 -0.905454 -2.36587e-21)
(5.66457 -1.13056 -6.20561e-21)
(5.50259 -1.37183 -1.02433e-19)
(5.28639 -1.6163 2.53674e-19)
(5.00318 -1.84563 -1.92731e-19)
(4.63972 -2.03953 0)
(4.18211 -2.16871 -4.52353e-19)
(3.62477 -2.22218 -2.75989e-19)
(5.72862 -0.601766 5.83712e-21)
(5.67148 -0.661374 5.71797e-20)
(5.60504 -0.87339 2.15608e-21)
(5.53764 -1.11143 -6.74776e-20)
(5.46236 -1.37715 6.47283e-20)
(5.36348 -1.65917 -1.97772e-20)
(5.22474 -1.94258 7.87792e-20)
(5.03624 -2.20804 5.82767e-20)
(4.79329 -2.41806 4.65469e-19)
(4.47193 -2.55312 -7.03412e-19)
(4.07049 -2.64477 0)
(5.38879 -0.717915 0)
(5.32253 -0.816311 2.46964e-19)
(5.26635 -1.05026 -1.25144e-19)
(5.21876 -1.31884 1.40542e-19)
(5.17255 -1.61238 -1.08055e-19)
(5.12738 -1.9122 5.60731e-21)
(5.07058 -2.19976 1.76133e-20)
(4.98883 -2.45157 1.87511e-19)
(4.86067 -2.65777 -2.64563e-19)
(4.66874 -2.80904 -1.69512e-19)
(4.39852 -2.92498 2.61603e-19)
(4.95889 -0.83198 0)
(4.84606 -0.938123 9.90021e-22)
(4.76825 -1.15907 -2.04549e-19)
(4.72939 -1.41352 0)
(4.7312 -1.68695 1.44435e-19)
(4.74806 -1.96572 0)
(4.76203 -2.23469 -3.65256e-20)
(4.75627 -2.47429 1.06978e-20)
(4.71239 -2.66235 1.15954e-19)
(4.60461 -2.77931 1.89414e-19)
(4.40515 -2.84095 0)
(4.42023 -0.949005 -2.75115e-19)
(4.34703 -1.02779 0)
(4.28532 -1.2253 2.24775e-19)
(4.24887 -1.46281 1.38092e-19)
(4.24914 -1.71836 2.82797e-19)
(4.28147 -1.96886 -3.36798e-19)
(4.32803 -2.19247 1.88414e-19)
(4.36387 -2.3662 -4.18626e-20)
(4.35981 -2.46234 -1.06366e-19)
(4.27328 -2.4454 7.58368e-20)
(4.04493 -2.29367 -3.57524e-21)
(4.01405 -1.06872 3.31698e-19)
(3.90194 -1.12218 3.87495e-19)
(3.81706 -1.32437 -5.39217e-19)
(3.77328 -1.55211 1.07382e-19)
(3.7745 -1.77754 -3.72027e-19)
(3.80999 -1.97198 0)
(3.85709 -2.11489 5.30513e-20)
(3.888 -2.17959 -4.52868e-20)
(3.86874 -2.11408 4.00348e-20)
(3.74037 -1.85418 -8.07231e-20)
(3.47723 -1.49938 3.08434e-20)
(3.60951 -1.25263 3.94639e-19)
(3.47649 -1.31117 7.99673e-19)
(3.408 -1.50246 -5.58358e-19)
(3.38809 -1.70968 2.12978e-19)
(3.3999 -1.87615 -1.1503e-19)
(3.42435 -1.98354 -7.13274e-20)
(3.43736 -2.0082 5.13407e-20)
(3.41409 -1.91249 0)
(3.32315 -1.63983 -4.31872e-20)
(3.16937 -1.25817 1.95309e-20)
(3.04431 -1.0034 -1.00651e-20)
(3.18437 -1.88831 4.37439e-19)
(3.20305 -1.5669 -5.77852e-19)
(3.1944 -1.77522 3.94967e-19)
(3.20284 -1.88294 1.09335e-19)
(3.20418 -1.93347 -1.2835e-19)
(3.18154 -1.90611 1.60703e-21)
(3.12633 -1.79078 0)
(3.03448 -1.56376 0)
(2.92453 -1.25392 0)
(2.88006 -1.01937 1.41349e-22)
(2.88054 -0.89728 1.01459e-21)
(2.95718 -6.84151 -9.79598e-19)
(2.40941 -5.32355 -3.91586e-18)
(2.89247 -4.08127 3.14704e-18)
(3.13209 -3.18466 -2.51254e-18)
(3.20983 -2.52842 0)
(3.20789 -2.02383 -1.02452e-18)
(3.16206 -1.62651 5.11368e-19)
(3.09706 -1.30935 1.27546e-18)
(3.02787 -1.05442 -6.98739e-19)
(2.95983 -0.849896 8.93765e-19)
(2.88977 -0.691209 7.28717e-19)
(-1.05423 -3.3273 -3.36696e-18)
(0.0317487 -3.82124 1.6338e-18)
(0.939442 -3.62044 1.93302e-18)
(1.68576 -3.15731 1.26567e-18)
(2.17298 -2.67927 1.64661e-18)
(2.47141 -2.22445 -9.44324e-19)
(2.63766 -1.81731 2.65652e-18)
(2.71733 -1.47057 0)
(2.74393 -1.18417 1.11125e-18)
(2.73727 -0.952612 1.70345e-19)
(2.71533 -0.770853 -1.52695e-18)
(-1.50714 -1.40092 2.35885e-18)
(-0.807759 -1.88904 0)
(-0.298787 -2.26884 -2.15927e-18)
(0.420825 -2.46733 -1.38714e-18)
(1.08334 -2.38744 -6.52685e-19)
(1.60086 -2.14198 6.93231e-19)
(1.97018 -1.83036 -3.11332e-18)
(2.21715 -1.51659 0)
(2.37667 -1.23295 -1.11168e-18)
(2.47897 -0.991652 -7.05373e-19)
(2.53163 -0.799801 0)
(-1.14133 -0.550841 0)
(-0.554667 -0.962037 0)
(-0.425516 -1.24806 0)
(0.0083506 -1.52535 1.41728e-18)
(0.504619 -1.66344 -5.10468e-18)
(1.00817 -1.66261 -1.63306e-19)
(1.44692 -1.54551 3.6614e-18)
(1.79199 -1.35916 -5.37711e-19)
(2.04444 -1.14985 2.60124e-18)
(2.2205 -0.950069 -4.98393e-19)
(2.33267 -0.779334 5.53344e-19)
(-0.692966 -0.00935029 0)
(-0.187024 -0.313363 0)
(-0.225556 -0.509279 3.28905e-18)
(0.0582426 -0.79273 -5.03108e-18)
(0.375255 -0.99967 3.85177e-18)
(0.757857 -1.11964 6.59666e-19)
(1.14279 -1.14039 -1.99195e-18)
(1.48947 -1.07855 -1.62487e-19)
(1.77602 -0.964285 -1.30283e-18)
(1.99826 -0.828258 -1.15419e-18)
(2.15408 -0.694369 -6.55669e-19)
(-0.247549 0.287721 0)
(0.18338 0.110577 -3.79661e-18)
(0.0571291 -0.0124558 -3.83685e-19)
(0.260017 -0.255249 -5.14685e-20)
(0.450745 -0.457624 1.62881e-18)
(0.717378 -0.62292 -1.25428e-18)
(1.01675 -0.723021 2.12428e-18)
(1.31745 -0.753202 -1.20683e-18)
(1.59278 -0.724837 0)
(1.82638 -0.658369 4.83013e-19)
(2.00283 -0.575402 9.43308e-19)
(0.084502 0.437277 0)
(0.489703 0.369285 -2.38036e-18)
(0.360144 0.291879 4.61031e-18)
(0.495535 0.106223 -1.707e-18)
(0.612313 -0.0644664 0)
(0.794348 -0.229007 2.0299e-18)
(1.01449 -0.358555 -1.99995e-18)
(1.25539 -0.439844 5.66313e-19)
(1.49548 -0.471048 9.33675e-20)
(1.7157 -0.460707 4.43776e-19)
(1.89469 -0.42059 -1.13856e-20)
(0.323432 0.52593 0)
(0.716863 0.525548 -4.59706e-18)
(0.61603 0.486161 3.77477e-18)
(0.717514 0.34435 0)
(0.793231 0.20828 -2.65293e-18)
(0.92079 0.0625574 1.89048e-18)
(1.08154 -0.0679275 0)
(1.26818 -0.169322 -7.41407e-19)
(1.46687 -0.234304 9.97282e-19)
(1.66016 -0.263785 -8.8394e-19)
(1.81975 -0.26376 1.02771e-18)
(0.518594 0.597101 -6.96387e-20)
(0.901592 0.633572 1.89985e-18)
(0.824308 0.619761 -3.03111e-18)
(0.910446 0.506679 5.08573e-18)
(0.964799 0.398492 -1.25554e-18)
(1.05882 0.274251 0)
(1.17834 0.154906 1.21913e-18)
(1.32244 0.0510088 -1.16654e-18)
(1.48329 -0.0290444 -3.3983e-19)
(1.6489 -0.0822663 0)
(1.79274 -0.108448 -9.44034e-19)
(0.68897 0.632564 -2.22339e-18)
(1.07139 0.700284 2.65446e-19)
(1.0027 0.711884 2.04894e-18)
(1.07794 0.620254 5.44527e-19)
(1.11879 0.534804 -2.30381e-18)
(1.19188 0.43024 -1.60545e-20)
(1.28396 0.325127 -1.09008e-18)
(1.39753 0.226643 4.05999e-20)
(1.52852 0.142553 2.41766e-18)
(1.66951 0.0778054 -2.56084e-18)
(1.79893 0.0393546 2.41224e-18)
(0.816383 0.621069 4.74493e-19)
(1.20746 0.734329 -7.96427e-19)
(1.1493 0.7727 2.88685e-18)
(1.22008 0.699964 -2.04218e-18)
(1.25314 0.6346 -7.894e-19)
(1.31356 0.547494 -1.29143e-18)
(1.38779 0.456749 1.95646e-18)
(1.48005 0.367058 0)
(1.58829 0.285168 0)
(1.70814 0.21603 8.24449e-19)
(1.81692 0.168963 -5.68157e-20)
(0.902459 0.606491 3.26009e-18)
(1.29789 0.768298 -2.52838e-18)
(1.26112 0.821062 0)
(1.33543 0.760994 -2.38103e-18)
(1.36695 0.711304 2.25716e-18)
(1.42146 0.638409 -5.70307e-19)
(1.48497 0.560562 8.68608e-19)
(1.56311 0.480243 -1.38912e-18)
(1.65493 0.403111 9.93473e-19)
(1.75862 0.333319 0)
(1.85393 0.282225 -5.92762e-20)
(0.978825 0.610343 -3.54236e-18)
(1.3749 0.806779 -3.4834e-20)
(1.35523 0.865555 4.43026e-18)
(1.43235 0.813393 -8.37529e-19)
(1.46408 0.77514 -6.67043e-19)
(1.51644 0.712843 5.3709e-19)
(1.57394 0.645616 0)
(1.64326 0.573782 -1.26643e-18)
(1.72387 0.502181 -2.13712e-20)
(1.81633 0.434039 0)
(1.90304 0.383497 0)
(1.04104 0.600476 -3.35972e-18)
(1.45036 0.830936 2.6288e-18)
(1.44057 0.902707 -2.11137e-18)
(1.51841 0.859323 4.19047e-18)
(1.54982 0.831292 -6.35971e-19)
(1.60152 0.777201 -1.05458e-18)
(1.65562 0.71857 0)
(1.71955 0.653838 0)
(1.79244 0.587605 -1.48415e-20)
(1.87697 0.52182 -5.95652e-19)
(1.95495 0.472787 -9.05655e-19)
(1.0786 0.588265 0)
(1.50255 0.857955 0)
(1.51049 0.940297 4.95631e-19)
(1.59366 0.90271 0)
(1.6267 0.882841 -6.08362e-19)
(1.67945 0.83488 1.92835e-18)
(1.73184 0.783187 -1.48698e-18)
(1.79257 0.72416 0)
(1.85999 0.662724 -8.57292e-19)
(1.93886 0.599093 1.25062e-18)
(2.01169 0.551645 5.52817e-20)
(1.12063 0.589699 0)
(1.54903 0.890344 3.07441e-19)
(1.57538 0.97813 -4.98842e-19)
(1.66227 0.945383 1.53038e-18)
(1.69795 0.931339 -5.85588e-19)
(1.75232 0.888076 -1.82661e-18)
(1.80402 0.841861 1.40789e-18)
(1.86284 0.787346 0)
(1.92617 0.730257 2.29175e-18)
(2.00112 0.668221 -2.25515e-18)
(2.07081 0.622021 5.48561e-20)
(1.16549 0.587411 0)
(1.5958 0.911016 -3.0365e-18)
(1.64093 1.00864 1.44168e-18)
(1.72809 0.985289 0)
(1.76708 0.976017 -1.12873e-18)
(1.82264 0.937163 2.59945e-18)
(1.87429 0.894976 -2.33235e-20)
(1.93172 0.844028 -9.93708e-19)
(1.99212 0.790729 -7.51404e-19)
(2.06306 0.731298 5.82992e-19)
(2.13083 0.685862 1.52978e-18)
(1.19617 0.581102 2.947e-18)
(1.62911 0.927791 3.08146e-19)
(1.69963 1.03612 4.73608e-19)
(1.79013 1.02321 -3.46119e-19)
(1.83482 1.01708 2.63228e-19)
(1.89166 0.982012 0)
(1.94345 0.942639 0)
(1.99931 0.894718 4.45351e-19)
(2.05727 0.844801 0)
(2.12435 0.788555 3.53871e-20)
(2.19077 0.743471 -6.89044e-19)
(1.22596 0.57743 -2.98897e-18)
(1.65547 0.9438 -2.38637e-18)
(1.75462 1.0617 1.85034e-18)
(1.85079 1.05887 3.58591e-19)
(1.90262 1.05387 5.16042e-19)
(1.96027 1.0216 -7.97353e-19)
(2.01158 0.984228 0)
(2.06516 0.939495 -4.51372e-19)
(2.12078 0.893177 0)
(2.18447 0.84093 1.37613e-18)
(2.25093 0.795457 -2.49687e-20)
(1.26227 0.574806 -3.2675e-18)
(1.68119 0.954604 -7.26292e-20)
(1.81061 1.0803 0)
(1.91353 1.08728 -1.34396e-18)
(1.97183 1.08241 1.23134e-18)
(2.0283 1.05279 0)
(2.07745 1.01814 1.11338e-18)
(2.12783 0.978167 -8.36274e-19)
(2.18125 0.936875 0)
(2.24215 0.890377 -4.20571e-19)
(2.30874 0.845552 5.32993e-19)
(1.30385 0.569238 0)
(1.70633 0.953695 7.4719e-21)
(1.86641 1.08352 -1.78284e-18)
(1.97676 1.09929 1.35162e-18)
(2.03927 1.09537 1.24039e-19)
(2.09188 1.07072 -8.87869e-20)
(2.13713 1.04233 6.57771e-20)
(2.18433 1.01065 0)
(2.23655 0.976866 0)
(2.29608 0.937581 0)
(2.36199 0.895443 7.33936e-20)
(1.37456 0.551153 0)
(1.73164 0.9333 2.30387e-19)
(1.92054 1.05662 1.80943e-18)
(2.03537 1.08042 1.46989e-19)
(2.09706 1.08275 -1.0625e-18)
(2.1434 1.07018 -6.39314e-19)
(2.18479 1.05532 7.375e-19)
(2.23098 1.03715 -1.88914e-19)
(2.28435 1.01391 -2.65742e-19)
(2.34487 0.982906 0)
(2.41187 0.942821 0)
(1.28983 0.543878 4.00695e-18)
(1.73142 0.852899 -5.86236e-18)
(1.91198 0.992624 3.83908e-18)
(2.0312 1.02631 -3.00394e-18)
(2.10064 1.04278 1.0391e-18)
(2.15141 1.0524 3.86935e-19)
(2.20137 1.05859 -8.47003e-19)
(2.2575 1.05788 2.03769e-19)
(2.31901 1.04734 3.49363e-19)
(2.38475 1.02691 -4.78521e-20)
(2.45459 0.990177 -2.37174e-19)
(2.52688 0.00457746 -6.83476e-18)
(2.01427 0.7534 4.57025e-19)
(2.18783 0.7177 -2.15306e-19)
(2.18491 0.822613 -5.50618e-19)
(2.16637 0.920407 1.25591e-18)
(2.172 0.992757 0)
(2.2075 1.0435 -2.93931e-19)
(2.26494 1.06911 6.05907e-19)
(2.33213 1.07395 -6.77781e-19)
(2.4033 1.06623 0)
(2.47759 1.04627 -2.11821e-19)
(6.57455 -6.09915 0)
(5.57135 -3.27145 1.10086e-18)
(5.30839 -3.50215 1.22484e-21)
(4.77408 -2.89319 2.91287e-21)
(4.29426 -2.31751 0)
(3.94079 -1.84071 1.48487e-19)
(3.67784 -1.45961 -3.59758e-19)
(3.47206 -1.15992 -4.95942e-19)
(3.30397 -0.921661 -3.77536e-19)
(3.16379 -0.731671 -3.52062e-19)
(3.0437 -0.587712 7.70067e-19)
(6.17617 -3.67268 -1.7447e-17)
(5.41329 -0.512837 -1.25527e-18)
(6.1308 -1.57734 4.48506e-18)
(5.90104 -1.71314 -3.89186e-18)
(5.2667 -1.57106 1.07441e-18)
(4.70071 -1.39032 -2.95797e-19)
(4.23025 -1.15666 0)
(3.86661 -0.931124 2.23903e-19)
(3.58572 -0.736231 6.72294e-20)
(3.36549 -0.579074 0)
(3.19047 -0.464884 -2.33802e-19)
(4.24368 -1.8052 3.62477e-17)
(4.3707 0.977847 -2.6247e-17)
(5.84519 0.107701 -1.36616e-18)
(6.06284 -0.168248 0)
(5.73893 -0.398664 -3.19525e-18)
(5.21179 -0.575517 2.689e-18)
(4.67873 -0.60088 0)
(4.21501 -0.54212 -9.63534e-20)
(3.8405 -0.449415 3.95213e-21)
(3.54607 -0.356979 4.65427e-20)
(3.31512 -0.285054 -4.87071e-20)
(2.35984 -1.06474 -1.76792e-17)
(3.29214 1.30625 3.4731e-19)
(5.01067 1.12757 4.7978e-19)
(5.55103 1.08674 0)
(5.61807 0.750752 -4.74689e-18)
(5.31049 0.368611 3.57255e-18)
(4.87261 0.120507 0)
(4.41852 -0.012107 6.21123e-19)
(4.01248 -0.0596051 -5.88682e-19)
(3.67695 -0.0604804 0)
(3.40971 -0.0475804 1.65555e-19)
(0.996504 -0.996614 -2.78588e-17)
(2.38202 1.0987 1.97024e-17)
(4.06528 1.55113 -4.54341e-19)
(4.78477 1.83438 1.00182e-17)
(5.13034 1.58689 -5.17684e-18)
(5.05012 1.19016 0)
(4.78433 0.832994 -1.04314e-18)
(4.42617 0.562725 -2.35943e-18)
(4.05715 0.385868 1.33215e-18)
(3.72375 0.283546 4.71687e-19)
(3.44192 0.231977 -3.46084e-19)
(0.118719 -1.18671 1.01458e-17)
(1.71193 0.777766 1.67063e-17)
(3.24389 1.64831 -1.38493e-17)
(4.03304 2.18419 -1.10753e-18)
(4.51677 2.08773 -1.43181e-18)
(4.59388 1.77555 0)
(4.49136 1.41153 -1.01606e-19)
(4.25811 1.08244 -3.14448e-19)
(3.96878 0.821555 3.5101e-18)
(3.67645 0.63266 3.74015e-19)
(3.41341 0.508681 -1.55641e-18)
(-0.442044 -1.43481 -8.53067e-18)
(1.20334 0.476878 -7.15019e-18)
(2.57942 1.60853 1.69554e-18)
(3.38992 2.31176 7.81756e-18)
(3.91981 2.35188 -4.94512e-18)
(4.08488 2.1421 3.77163e-18)
(4.09834 1.8231 5.00166e-18)
(3.97521 1.49414 -4.23769e-18)
(3.77467 1.19901 -7.01721e-19)
(3.5428 0.957213 0)
(3.31823 0.769225 -9.39356e-19)
(-0.819694 -1.67476 6.32549e-18)
(0.79853 0.22167 0)
(2.04372 1.51692 -8.89375e-18)
(2.86019 2.33056 3.54662e-18)
(3.38994 2.47486 7.17059e-18)
(3.59726 2.35306 -3.09492e-18)
(3.6811 2.09153 5.87036e-18)
(3.63853 1.79129 -5.49846e-18)
(3.51604 1.49547 -1.5604e-18)
(3.34733 1.23219 1.81254e-18)
(3.16573 1.0073 6.98976e-20)
(-1.07949 -1.87594 1.89422e-18)
(0.459468 0.00793002 -2.56318e-18)
(1.59937 1.40286 0)
(2.41507 2.29134 -3.04561e-18)
(2.92749 2.51389 -2.17986e-18)
(3.15167 2.46218 2.11417e-19)
(3.27648 2.25464 -1.98738e-18)
(3.28856 1.99048 2.67052e-18)
(3.22714 1.71108 1.8829e-18)
(3.11433 1.44769 -2.35084e-18)
(2.98656 1.19545 1.20572e-18)
(-1.26487 -2.03191 -7.92167e-18)
(0.164123 -0.170145 2.4772e-18)
(1.21777 1.27786 0)
(2.02794 2.21658 0)
(2.51892 2.49995 1.77878e-18)
(2.75012 2.5016 7.64755e-18)
(2.89685 2.33949 -4.97702e-19)
(2.94549 2.11284 -4.91976e-18)
(2.93115 1.85651 -1.32879e-18)
(2.86478 1.60609 4.31236e-18)
(2.78618 1.34711 -1.09462e-18)
(-1.42284 -2.15611 1.49063e-18)
(-0.118288 -0.340746 0)
(0.872875 1.13248 0)
(1.67388 2.11 4.4651e-18)
(2.14724 2.44656 -6.77146e-18)
(2.38428 2.49143 0)
(2.54409 2.36779 1.52692e-18)
(2.61821 2.17421 0)
(2.63953 1.94117 -1.29237e-18)
(2.61157 1.70547 -4.77822e-18)
(2.57057 1.45795 1.4065e-19)
(-1.58182 -2.26698 6.37156e-18)
(-0.38273 -0.504008 0)
(0.563606 0.972827 1.3346e-18)
(1.34462 1.97882 3.99769e-18)
(1.80438 2.36148 -1.5238e-18)
(2.04793 2.44288 -1.98533e-18)
(2.2167 2.35238 2.54789e-18)
(2.30988 2.18752 -3.05845e-19)
(2.35872 1.97684 -7.5898e-20)
(2.36288 1.75551 1.57187e-18)
(2.35535 1.51915 0)
(-1.71944 -2.36707 -1.21878e-18)
(-0.61999 -0.657362 -3.38702e-18)
(0.279002 0.799621 6.1863e-18)
(1.03066 1.82383 6.72094e-19)
(1.48222 2.2471 -6.57294e-18)
(1.73428 2.36153 4.82245e-18)
(1.91083 2.30062 -1.35124e-18)
(2.01996 2.1608 0)
(2.09149 1.97124 0)
(2.12321 1.76551 1.20844e-18)
(2.15248 1.53751 -8.91284e-19)
(-1.83255 -2.46652 -8.45724e-18)
(-0.845531 -0.817263 3.11604e-18)
(0.00195796 0.601693 1.07994e-18)
(0.723105 1.63738 -9.44761e-20)
(1.17211 2.10207 1.25809e-18)
(1.43592 2.24914 1.46319e-18)
(1.62151 2.21626 -2.2583e-18)
(1.74632 2.09885 0)
(1.83885 1.92893 7.03912e-21)
(1.89642 1.73957 6.54748e-19)
(1.95446 1.52837 -1.21493e-19)
(-1.9293 -2.56929 -3.86975e-18)
(-1.06064 -0.982036 0)
(-0.267276 0.385653 2.93473e-18)
(0.423751 1.42148 -4.56963e-18)
(0.872101 1.92565 0)
(1.14771 2.106 -7.81213e-19)
(1.34476 2.10049 1.96735e-18)
(1.48662 2.00385 -1.29e-18)
(1.60051 1.85249 2.17632e-20)
(1.68464 1.6795 4.33202e-19)
(1.76645 1.49145 -3.25085e-19)
(-2.0155 -2.6648 3.34304e-18)
(-1.26976 -1.15102 0)
(-0.531206 0.150351 0)
(0.127698 1.17493 7.14943e-19)
(0.574289 1.71392 1.98622e-18)
(0.863056 1.92913 -1.36003e-18)
(1.07529 1.95124 5.82715e-19)
(1.23719 1.87492 -1.17563e-18)
(1.37498 1.74215 1.42121e-19)
(1.48878 1.58613 0)
(1.6026 1.41829 0)
(-2.09665 -2.75865 -3.00196e-18)
(-1.47763 -1.3299 4.67549e-18)
(-0.795522 -0.109011 -1.72919e-18)
(-0.173389 0.892496 -1.71669e-20)
(0.270209 1.46106 -1.74702e-18)
(0.574015 1.71192 1.17552e-18)
(0.805301 1.76265 1.83256e-19)
(0.992717 1.70779 3.90456e-19)
(1.15936 1.59555 -2.17655e-19)
(1.30508 1.45968 -1.65105e-19)
(1.45374 1.31067 0)
(-2.17615 -2.85919 -2.9939e-18)
(-1.68616 -1.52277 1.0499e-19)