/*--------------------------------*- C++ -*----------------------------------*\
| =========                 |                                                 |
| \\      /  F ield         | OpenFOAM: The Open Source CFD Toolbox           |
|  \\    /   O peration     | Version:  3.0.1                                 |
|   \\  /    A nd           | Web:      www.OpenFOAM.org                      |
|    \\/     M anipulation  |                                                 |
\*---------------------------------------------------------------------------*/
FoamFile
{
    version     2.0;
    format      ascii;
    class       surfaceScalarField;
    location    "0.104985";
    object      phi;
}
// * * * * * * * * * * * * * * * * * * * * * * * * * * * * * * * * * * * * * //

dimensions      [0 3 -1 0 0 0 0];

internalField   nonuniform List<scalar> 
32369
(
-5.35866e-06
1.84008e-05
-1.30421e-05
-1.02251e-05
1.69578e-05
-1.20914e-05
-1.71295e-05
2.00594e-05
-1.31549e-05
-2.42603e-05
2.17185e-05
-1.45878e-05
-3.1521e-05
2.39031e-05
-1.66424e-05
-3.90811e-05
2.6946e-05
-1.93859e-05
-4.72752e-05
3.11451e-05
-2.2951e-05
-5.64821e-05
3.67519e-05
-2.7545e-05
-6.7113e-05
4.41293e-05
-3.34984e-05
-7.96816e-05
5.38382e-05
-4.12696e-05
6.66971e-05
-5.1459e-05
-9.49198e-05
2.34425e-06
1.60565e-05
2.45262e-06
1.68495e-05
-1.13607e-06
2.36481e-05
-6.47656e-06
2.7059e-05
-1.32747e-05
3.07012e-05
-2.10657e-05
3.47371e-05
-2.9788e-05
3.98674e-05
-3.96602e-05
4.66241e-05
-5.10899e-05
5.5559e-05
-6.45652e-05
6.73135e-05
8.29154e-05
-8.07835e-05
2.32939e-06
1.37271e-05
2.76136e-06
1.64175e-05
1.86523e-06
2.45442e-05
-5.78564e-07
2.95028e-05
-5.09347e-06
3.52161e-05
-1.12228e-05
4.08664e-05
-1.87237e-05
4.73682e-05
-2.75513e-05
5.54518e-05
-3.78822e-05
6.58898e-05
-5.0115e-05
7.95464e-05
9.76398e-05
-6.48394e-05
1.7211e-06
1.2006e-05
1.77701e-06
1.63616e-05
1.81695e-06
2.45043e-05
8.01568e-07
3.05182e-05
-1.77246e-06
3.77901e-05
-5.80851e-06
4.49025e-05
-1.13412e-05
5.29009e-05
-1.82994e-05
6.241e-05
-2.66983e-05
7.42888e-05
-3.67319e-05
8.95799e-05
0.000109627
-4.87195e-05
1.40188e-06
1.06041e-05
1.5036e-06
1.62599e-05
1.77768e-06
2.42302e-05
1.27475e-06
3.10211e-05
-9.88007e-08
3.91637e-05
-2.5282e-06
4.73319e-05
-6.21683e-06
5.65895e-05
-1.11839e-05
6.73771e-05
-1.74561e-05
8.0561e-05
-2.50686e-05
9.71924e-05
0.000118721
-3.4162e-05
1.34419e-06
9.25994e-06
1.83265e-06
1.57714e-05
2.39183e-06
2.3671e-05
2.25179e-06
3.11611e-05
1.58076e-06
3.98347e-05
1.4922e-07
4.87634e-05
-2.17401e-06
5.89128e-05
-5.4963e-06
7.06993e-05
-9.87513e-06
8.49399e-05
-1.53273e-05
0.000102645
0.000125241
-2.18471e-05
1.35197e-06
7.90797e-06
2.21351e-06
1.49099e-05
3.10015e-06
2.27844e-05
3.36758e-06
3.08937e-05
3.24202e-06
3.99603e-05
2.52248e-06
4.94829e-05
1.16779e-06
6.02674e-05
-9.03787e-07
7.27709e-05
-3.75714e-06
8.77932e-05
-7.41832e-06
0.000106306
0.000129677
-1.18546e-05
1.23984e-06
6.66814e-06
2.39863e-06
1.37511e-05
3.55092e-06
2.16321e-05
4.24012e-06
3.02045e-05
4.59379e-06
3.96066e-05
4.47257e-06
4.96042e-05
3.89239e-06
6.08476e-05
2.80806e-06
7.38553e-05
1.18657e-06
8.94147e-05
-9.28055e-07
0.00010842
0.000132218
-3.46898e-06
1.21726e-06
5.45087e-06
2.62188e-06
1.23465e-05
4.03219e-06
2.02217e-05
5.11063e-06
2.91261e-05
5.90611e-06
3.88111e-05
6.30686e-06
4.92034e-05
6.36227e-06
6.07922e-05
6.07042e-06
7.41471e-05
5.45994e-06
9.00252e-05
4.50076e-06
0.00010938
0.000133397
3.32145e-06
1.34759e-06
4.10328e-06
3.00213e-06
1.06919e-05
4.7099e-06
1.8514e-05
6.20145e-06
2.76345e-05
7.42897e-06
3.75836e-05
8.30955e-06
4.83228e-05
8.89658e-06
6.02052e-05
9.24435e-06
7.37993e-05
9.38363e-06
8.98859e-05
9.35757e-06
0.000109406
0.000133527
9.22739e-06
1.35533e-06
2.74795e-06
3.18182e-06
8.86545e-06
5.14515e-06
1.65507e-05
7.03956e-06
2.57401e-05
8.71739e-06
3.59058e-05
1.00946e-05
4.69456e-05
1.12214e-05
5.90785e-05
1.21651e-05
7.28556e-05
1.2996e-05
8.9055e-05
1.37716e-05
0.00010863
0.000132576
1.47227e-05
1.20823e-06
1.53972e-06
2.9611e-06
7.11258e-06
5.10089e-06
1.44109e-05
7.3318e-06
2.35092e-05
9.46119e-06
3.37764e-05
1.13804e-05
4.50263e-05
1.31002e-05
5.73587e-05
1.46952e-05
7.12605e-05
1.62507e-05
8.74995e-05
1.78693e-05
0.000107012
0.000130776
1.96695e-05
9.88545e-07
5.51173e-07
2.6502e-06
5.45092e-06
4.88988e-06
1.21712e-05
7.43169e-06
2.09674e-05
1.00215e-05
3.11866e-05
1.2511e-05
4.25368e-05
1.48601e-05
5.50096e-05
1.71189e-05
6.90017e-05
1.94243e-05
8.51941e-05
2.18955e-05
0.00010454
0.000128082
2.45898e-05
6.92961e-07
-1.41788e-07
2.18698e-06
3.95691e-06
4.51988e-06
9.83828e-06
7.38187e-06
1.81054e-05
1.04564e-05
2.8112e-05
1.35543e-05
3.9439e-05
1.65975e-05
5.19664e-05
1.96071e-05
6.59921e-05
2.26926e-05
8.21086e-05
2.60155e-05
0.000101218
0.000124396
2.97015e-05
3.42531e-07
-4.84319e-07
1.53794e-06
2.76149e-06
3.77485e-06
7.60137e-06
6.8159e-06
1.50643e-05
1.03163e-05
2.46116e-05
1.40314e-05
3.57239e-05
1.78248e-05
4.8173e-05
2.17006e-05
6.21163e-05
2.57498e-05
7.80593e-05
3.00953e-05
9.68722e-05
0.00011954
3.49505e-05
1.62927e-07
-6.47246e-07
1.06093e-06
1.86349e-06
3.04357e-06
5.61874e-06
6.11079e-06
1.19971e-05
9.94289e-06
2.07795e-05
1.42338e-05
3.1433e-05
1.88079e-05
4.35989e-05
2.36215e-05
5.73026e-05
2.8734e-05
7.29469e-05
3.43474e-05
9.12588e-05
0.000113259
4.06284e-05
1.33418e-07
-7.80664e-07
8.26569e-07
1.17034e-06
2.48529e-06
3.96002e-06
5.39119e-06
9.09122e-06
9.39901e-06
1.67717e-05
1.41857e-05
2.66463e-05
1.95255e-05
3.82591e-05
2.53472e-05
5.14809e-05
3.17027e-05
6.65914e-05
3.87152e-05
8.42463e-05
0.000105453
4.65212e-05
1.24902e-07
-9.05566e-07
6.64931e-07
6.30311e-07
1.97661e-06
2.64834e-06
4.5124e-06
6.55544e-06
8.41343e-06
1.28706e-05
1.35001e-05
2.15597e-05
1.95452e-05
3.2214e-05
2.64343e-05
4.45919e-05
3.41717e-05
5.88539e-05
4.28414e-05
7.55766e-05
9.56125e-05
5.26822e-05
9.9418e-08
-1.00498e-06
5.16948e-07
2.12782e-07
1.5101e-06
1.65519e-06
3.55793e-06
4.5076e-06
7.07499e-06
9.35358e-06
1.21815e-05
1.64532e-05
1.87661e-05
2.56294e-05
2.66989e-05
3.6659e-05
3.59375e-05
4.96153e-05
4.65424e-05
6.49717e-05
8.34489e-05
5.8706e-05
3.43297e-08
-1.03931e-06
2.78349e-07
-3.12377e-08
9.04821e-07
1.02872e-06
2.37549e-06
3.03693e-06
5.28971e-06
6.43936e-06
1.01044e-05
1.16385e-05
1.69471e-05
1.87867e-05
2.57446e-05
2.78616e-05
3.64094e-05
3.89505e-05
4.89347e-05
5.24464e-05
6.87894e-05
6.35942e-05
-9.28529e-08
-9.46461e-07
-2.16277e-07
9.21861e-08
-1.23546e-07
9.35988e-07
6.99914e-07
2.21347e-06
2.94789e-06
4.19139e-06
7.21836e-06
7.368e-06
1.39039e-05
1.21011e-05
2.30863e-05
1.86791e-05
3.47099e-05
2.7327e-05
4.8842e-05
3.83144e-05
5.2042e-05
6.55893e-05
-8.16009e-07
-1.30452e-07
-1.41719e-06
6.93366e-07
-1.69479e-06
1.21359e-06
-1.25942e-06
1.7781e-06
4.19921e-07
2.51205e-06
3.96301e-06
3.82491e-06
9.88839e-06
6.17577e-06
1.8565e-05
1.00025e-05
3.01931e-05
1.56988e-05
4.49036e-05
2.36039e-05
3.34998e-05
6.34458e-05
-1.19219e-06
1.06174e-06
-1.58269e-06
1.08387e-06
-1.39258e-06
1.02348e-06
-6.10926e-07
9.9644e-07
8.78475e-07
1.02265e-06
3.43942e-06
1.26396e-06
7.6487e-06
1.96649e-06
1.42104e-05
3.44077e-06
2.37102e-05
6.1991e-06
3.63214e-05
1.09927e-05
1.8218e-05
5.16033e-05
2.18042e-06
-1.11869e-06
4.74454e-06
-1.48024e-06
7.32181e-06
-1.5538e-06
9.92848e-06
-1.61023e-06
1.25783e-05
-1.62713e-06
1.52935e-05
-1.45124e-06
1.82483e-05
-9.88305e-07
2.19565e-05
-2.6742e-07
2.74436e-05
7.11975e-07
3.61779e-05
2.2584e-06
5.1136e-06
4.92822e-05
-1.38278e-05
7.85718e-07
-2.40328e-05
-1.88646e-06
-3.22899e-05
-4.89782e-06
-3.93098e-05
-7.56782e-06
-4.60276e-05
-9.92462e-06
-5.29997e-05
-1.24138e-05
-6.06587e-05
-1.52921e-05
-6.9383e-05
-1.88207e-05
-7.95302e-05
-2.33512e-05
-9.14674e-05
-2.93324e-05
-3.73476e-05
-0.000105579
-6.95692e-06
7.74264e-06
-1.35473e-05
4.70397e-06
-2.16479e-05
3.2027e-06
-2.99578e-05
7.42079e-07
-3.80719e-05
-1.81046e-06
-4.63762e-05
-4.10949e-06
-5.53742e-05
-6.29414e-06
-6.55581e-05
-8.63683e-06
-7.73692e-05
-1.15401e-05
-9.12592e-05
-1.54424e-05
-2.08509e-05
-0.000107756
-2.61288e-06
1.03555e-05
-6.53394e-06
8.62503e-06
-1.27236e-05
9.39234e-06
-2.02523e-05
8.27082e-06
-2.8833e-05
6.77018e-06
-3.82154e-05
5.27295e-06
-4.83453e-05
3.8358e-06
-5.95174e-05
2.53524e-06
-7.22039e-05
1.14647e-06
-8.69105e-05
-7.35803e-07
-3.63103e-06
-0.00010413
-1.65644e-06
1.2012e-05
-4.60932e-06
1.15779e-05
-8.99643e-06
1.37794e-05
-1.47099e-05
1.39843e-05
-2.20392e-05
1.40994e-05
-3.06088e-05
1.38426e-05
-4.04518e-05
1.36788e-05
-5.16027e-05
1.36861e-05
-6.43244e-05
1.38682e-05
-7.90353e-05
1.39751e-05
1.36309e-05
-9.62972e-05
-1.45057e-06
1.34625e-05
-4.06765e-06
1.4195e-05
-7.48614e-06
1.71979e-05
-1.20204e-05
1.85186e-05
-1.80315e-05
2.01105e-05
-2.54862e-05
2.12973e-05
-3.43579e-05
2.25505e-05
-4.46827e-05
2.4011e-05
-5.66066e-05
2.57921e-05
-7.04315e-05
2.78e-05
2.97109e-05
-8.65115e-05
-1.28555e-06
1.47481e-05
-3.64626e-06
1.65557e-05
-6.48511e-06
2.00368e-05
-1.0188e-05
2.22215e-05
-1.51296e-05
2.50522e-05
-2.13655e-05
2.75331e-05
-2.90403e-05
3.02252e-05
-3.8191e-05
3.31618e-05
-4.89175e-05
3.65185e-05
-6.13934e-05
4.0276e-05
4.42706e-05
-7.59531e-05
-1.09349e-06
1.58416e-05
-3.16889e-06
1.86311e-05
-5.58977e-06
2.24577e-05
-8.66829e-06
2.53e-05
-1.27614e-05
2.91453e-05
-1.79523e-05
3.2724e-05
-2.44261e-05
3.66991e-05
-3.22794e-05
4.1015e-05
-4.16e-05
4.58391e-05
-5.25364e-05
5.12124e-05
5.70308e-05
-6.52966e-05
-1.01754e-06
1.68591e-05
-2.82067e-06
2.04342e-05
-4.87597e-06
2.4513e-05
-7.5806e-06
2.80046e-05
-1.08908e-05
3.24555e-05
-1.51395e-05
3.69727e-05
-2.04764e-05
4.2036e-05
-2.70234e-05
4.75619e-05
-3.48972e-05
5.3713e-05
-4.42305e-05
6.05457e-05
6.79909e-05
-5.51906e-05
-8.77519e-07
1.77366e-05
-2.47391e-06
2.20306e-05
-4.0216e-06
2.60606e-05
-6.2996e-06
3.02826e-05
-9.042e-06
3.51979e-05
-1.25182e-05
4.04488e-05
-1.68454e-05
4.63632e-05
-2.21728e-05
5.28893e-05
-2.86264e-05
6.01666e-05
-3.63204e-05
6.82397e-05
7.70631e-05
-4.53927e-05
-6.93601e-07
1.84302e-05
-1.94847e-06
2.32855e-05
-3.31034e-06
2.74225e-05
-5.07915e-06
3.20514e-05
-7.21565e-06
3.73344e-05
-9.95435e-06
4.31875e-05
-1.33517e-05
4.97606e-05
-1.75466e-05
5.70842e-05
-2.26451e-05
6.52652e-05
-2.87753e-05
7.43699e-05
8.43727e-05
-3.60849e-05
-4.61815e-07
1.8892e-05
-1.30905e-06
2.41327e-05
-2.2756e-06
2.83891e-05
-3.61554e-06
3.33914e-05
-5.21035e-06
3.89292e-05
-7.2535e-06
4.52307e-05
-9.79429e-06
5.23014e-05
-1.29334e-05
6.02233e-05
-1.6765e-05
6.90968e-05
-2.139e-05
7.89949e-05
8.99159e-05
-2.69333e-05
-2.54981e-07
1.9147e-05
-8.33965e-07
2.47117e-05
-1.44413e-06
2.89992e-05
-2.31351e-06
3.42607e-05
-3.35109e-06
3.99668e-05
-4.69504e-06
4.65746e-05
-6.3659e-06
5.39722e-05
-8.45005e-06
6.23074e-05
-1.10004e-05
7.16472e-05
-1.4084e-05
8.20785e-05
9.36334e-05
-1.78015e-05
-2.65946e-08
1.91736e-05
-2.72286e-07
2.49574e-05
-5.28459e-07
2.92554e-05
-9.27714e-07
3.466e-05
-1.39964e-06
4.04387e-05
-2.04719e-06
4.72222e-05
-2.86706e-06
5.47921e-05
-3.90146e-06
6.33418e-05
-5.18058e-06
7.29263e-05
-6.73419e-06
8.36321e-05
9.54512e-05
-8.55191e-06
3.16517e-07
1.88571e-05
4.51239e-07
2.48227e-05
5.90144e-07
2.91165e-05
6.6916e-07
3.4581e-05
7.59968e-07
4.03479e-05
8.05398e-07
4.71768e-05
8.37593e-07
5.47599e-05
8.32205e-07
6.33472e-05
8.17467e-07
7.2941e-05
8.08878e-07
8.36407e-05
9.54524e-05
8.07653e-07
5.20988e-07
1.83361e-05
1.00393e-06
2.43397e-05
1.55399e-06
2.85664e-05
2.14443e-06
3.39905e-05
2.83368e-06
3.96587e-05
3.62129e-06
4.63891e-05
4.54309e-06
5.38381e-05
5.62435e-06
6.2266e-05
6.91755e-06
7.16478e-05
8.50607e-06
8.20522e-05
9.34676e-05
1.04909e-05
7.73285e-07
1.75628e-05
1.62987e-06
2.34832e-05
2.60669e-06
2.75896e-05
3.72984e-06
3.28674e-05
5.04375e-06
3.83448e-05
6.60031e-06
4.48326e-05
8.44264e-06
5.19958e-05
1.0635e-05
6.00736e-05
1.32758e-05
6.9007e-05
1.64742e-05
7.88537e-05
8.95416e-05
2.04002e-05
1.06947e-06
1.64934e-05
2.34681e-06
2.22058e-05
3.78309e-06
2.61533e-05
5.47488e-06
3.11756e-05
7.4465e-06
3.63731e-05
9.80608e-06
4.2473e-05
1.26056e-05
4.91963e-05
1.59559e-05
5.67233e-05
1.99608e-05
6.50021e-05
2.47966e-05
7.4018e-05
8.36281e-05
3.07101e-05
1.36174e-06
1.51316e-05
3.06379e-06
2.05038e-05
5.00109e-06
2.4216e-05
7.30272e-06
2.8874e-05
9.98402e-06
3.36918e-05
1.31981e-05
3.92589e-05
1.70166e-05
4.53778e-05
2.15693e-05
5.21706e-05
2.70063e-05
5.9565e-05
3.35124e-05
6.75119e-05
7.57936e-05
4.13469e-05
1.66103e-06
1.34706e-05
3.80483e-06
1.836e-05
6.27432e-06
2.17466e-05
9.22781e-06
2.59205e-05
1.26814e-05
3.02383e-05
1.68077e-05
3.51325e-05
2.17016e-05
4.04839e-05
2.75226e-05
4.63496e-05
3.44256e-05
5.26621e-05
4.26321e-05
5.93053e-05
6.59944e-05
5.24313e-05
1.98184e-06
1.14887e-05
4.58044e-06
1.57614e-05
7.61661e-06
1.87104e-05
1.12616e-05
2.22755e-05
1.55394e-05
2.59605e-05
2.06288e-05
3.00431e-05
2.6647e-05
3.44657e-05
3.37607e-05
3.92359e-05
4.21615e-05
4.42613e-05
5.20928e-05
4.9374e-05
5.42355e-05
6.38517e-05
2.31111e-06
9.17764e-06
5.35647e-06
1.2716e-05
8.97272e-06
1.50941e-05
1.33392e-05
1.79091e-05
1.8473e-05
2.08267e-05
2.4547e-05
2.39691e-05
3.1694e-05
2.73187e-05
4.0091e-05
3.0839e-05
4.99563e-05
3.4396e-05
6.1554e-05
3.77763e-05
4.05942e-05
7.51954e-05
2.57591e-06
6.60173e-06
6.04396e-06
9.24796e-06
1.02281e-05
1.091e-05
1.52841e-05
1.2853e-05
2.12433e-05
1.48674e-05
2.824e-05
1.69725e-05
3.64326e-05
1.9126e-05
4.60173e-05
2.12543e-05
5.72197e-05
2.31935e-05
7.03163e-05
2.46797e-05
2.53058e-05
8.56047e-05
3.09014e-06
3.51159e-06
6.92242e-06
5.41567e-06
1.15204e-05
6.31209e-06
1.70657e-05
7.30767e-06
2.36024e-05
8.33077e-06
3.1266e-05
9.30888e-06
4.02332e-05
1.01588e-05
5.0697e-05
1.07905e-05
6.28983e-05
1.09922e-05
7.70968e-05
1.04812e-05
8.94903e-06
9.34535e-05
2.3929e-06
6.32833e-06
1.10866e-05
1.67841e-05
2.34877e-05
3.13453e-05
4.05158e-05
5.10389e-05
6.27431e-05
7.54827e-05
8.95454e-05
4.74092e-06
5.40206e-06
-1.0143e-05
7.41983e-06
6.98803e-06
-9.66693e-06
8.0024e-06
1.01785e-05
-1.07611e-05
7.54818e-06
1.30383e-05
-1.25841e-05
6.18417e-06
1.57658e-05
-1.44018e-05
3.80927e-06
1.84305e-05
-1.60556e-05
4.48077e-07
2.09433e-05
-1.75821e-05
-3.58542e-06
2.33061e-05
-1.92726e-05
-7.89367e-06
2.65938e-05
-2.22855e-05
-1.2516e-05
3.18429e-05
-2.72205e-05
3.97414e-05
-3.44313e-05
-1.78261e-05
4.50664e-06
8.95421e-07
7.04646e-06
4.4482e-06
9.08902e-06
8.13599e-06
1.03216e-05
1.18058e-05
1.04717e-05
1.56157e-05
9.37384e-06
1.95284e-05
6.97532e-06
2.33418e-05
3.38163e-06
2.68998e-05
-8.6449e-07
3.08399e-05
-5.43729e-06
3.64157e-05
4.48371e-05
-1.0533e-05
1.72216e-06
-8.26742e-07
4.03593e-06
2.13444e-06
6.40109e-06
5.77083e-06
8.36693e-06
9.83992e-06
9.61285e-06
1.43698e-05
9.92692e-06
1.92143e-05
9.05647e-06
2.42123e-05
6.94398e-06
2.90123e-05
3.82805e-06
3.39558e-05
1.7509e-07
4.00686e-05
4.89151e-05
-3.90292e-06
3.37446e-07
-1.16419e-06
1.80134e-06
6.7054e-07
3.7111e-06
3.86107e-06
5.66517e-06
7.88585e-06
7.38161e-06
1.26533e-05
8.53992e-06
1.8056e-05
8.89721e-06
2.3855e-05
8.21666e-06
2.96929e-05
6.61298e-06
3.55595e-05
4.37447e-06
4.23071e-05
5.14936e-05
1.79594e-06
-3.64809e-07
-7.99379e-07
1.80424e-07
1.25308e-07
1.53594e-06
2.50555e-06
3.17869e-06
6.2431e-06
4.88519e-06
1.09468e-05
6.43077e-06
1.65104e-05
7.56693e-06
2.27188e-05
8.05337e-06
2.92064e-05
7.81145e-06
3.58014e-05
6.97468e-06
4.31439e-05
5.26954e-05
5.7729e-06
-4.26099e-07
-3.73281e-07
-5.52129e-07
2.51338e-07
6.83146e-08
1.88511e-06
1.29078e-06
5.02064e-06
2.77031e-06
9.46731e-06
4.35545e-06
1.49253e-05
5.87635e-06
2.11979e-05
7.12329e-06
2.79595e-05
7.92679e-06
3.49979e-05
8.2695e-06
4.28012e-05
5.2665e-05
8.29993e-06
-4.18307e-07
4.5026e-08
-7.43611e-07
5.76642e-07
-7.24482e-07
1.86598e-06
-2.60388e-08
4.3222e-06
1.15953e-06
8.28174e-06
2.60374e-06
1.34811e-05
4.23716e-06
1.95645e-05
5.90845e-06
2.62882e-05
7.42141e-06
3.3485e-05
8.64706e-06
4.15755e-05
5.1704e-05
9.60805e-06
-3.99587e-07
4.44613e-07
-7.73494e-07
9.50549e-07
-9.97294e-07
2.08978e-06
-7.82593e-07
4.10749e-06
3.25512e-08
7.4666e-06
1.28652e-06
1.22271e-05
2.8882e-06
1.79628e-05
4.76e-06
2.44164e-05
6.70488e-06
3.15401e-05
8.54673e-06
3.97337e-05
4.99956e-05
1.02551e-05
-3.46139e-07
7.90752e-07
-7.02516e-07
1.30693e-06
-9.97502e-07
2.38476e-06
-1.01757e-06
4.12756e-06
-5.27765e-07
6.9768e-06
5.21774e-07
1.11776e-05
2.0393e-06
1.64453e-05
3.96549e-06
2.24902e-05
6.12237e-06
2.93832e-05
8.31619e-06
3.75398e-05
4.78515e-05
1.04603e-05
-2.59903e-07
1.05066e-06
-5.45896e-07
1.59292e-06
-7.98248e-07
2.63712e-06
-8.58761e-07
4.18807e-06
-5.34923e-07
6.65296e-06
3.31889e-07
1.03108e-05
1.75613e-06
1.5021e-05
3.64998e-06
2.05964e-05
5.86172e-06
2.71715e-05
8.22225e-06
3.51793e-05
4.54464e-05
1.06274e-05
-1.62495e-07
1.21315e-06
-3.59684e-07
1.79011e-06
-5.24598e-07
2.80203e-06
-5.44953e-07
4.20843e-06
-2.59673e-07
6.36768e-06
5.15738e-07
9.53535e-06
1.8546e-06
1.36822e-05
3.68551e-06
1.87655e-05
5.8837e-06
2.49733e-05
8.3154e-06
3.27476e-05
4.28514e-05
1.09104e-05
-8.31094e-08
1.29626e-06
-1.99057e-07
1.90606e-06
-2.58711e-07
2.86168e-06
-1.99378e-07
4.14909e-06
1.18576e-07
6.04972e-06
8.76284e-07
8.77764e-06
2.15855e-06
1.23999e-05
3.93066e-06
1.69933e-05
6.10371e-06
2.28002e-05
8.56844e-06
3.02829e-05
4.01885e-05
1.12313e-05
-4.6719e-09
1.30093e-06
-3.37946e-08
1.93518e-06
2.09814e-08
2.80691e-06
1.86175e-07
3.9839e-06
5.87334e-07
5.64857e-06
1.37462e-06
7.99035e-06
2.63371e-06
1.11408e-05
4.36782e-06
1.52592e-05
6.52819e-06
2.06399e-05
9.04301e-06
2.77681e-05
3.73797e-05
1.18518e-05
8.22941e-08
1.21864e-06
1.44771e-07
1.8727e-06
3.06605e-07
2.64507e-06
5.85539e-07
3.70497e-06
1.08547e-06
5.14864e-06
1.92602e-06
7.1498e-06
3.19713e-06
9.8697e-06
4.93282e-06
1.35235e-05
7.11752e-06
1.84552e-05
9.69462e-06
2.5191e-05
3.44759e-05
1.25984e-05
1.3949e-07
1.07915e-06
2.64502e-07
1.74769e-06
5.11519e-07
2.39806e-06
8.83369e-07
3.33312e-06
1.46869e-06
4.56332e-06
2.37269e-06
6.2458e-06
3.69216e-06
8.55023e-06
5.48734e-06
1.17284e-05
7.76711e-06
1.61754e-05
1.04857e-05
2.24724e-05
3.13951e-05
1.35665e-05
1.85545e-07
8.93603e-07
3.59363e-07
1.57387e-06
6.68791e-07
2.08863e-06
1.10924e-06
2.89267e-06
1.76204e-06
3.91052e-06
2.73438e-06
5.27345e-06
4.13874e-06
7.14587e-06
6.05925e-06
9.80784e-06
8.51698e-06
1.37177e-05
1.1458e-05
1.95313e-05
2.80485e-05
1.48046e-05
2.26518e-07
6.67085e-07
4.36021e-07
1.36437e-06
7.77593e-07
1.74706e-06
1.25216e-06
2.4181e-06
1.9458e-06
3.21688e-06
2.98585e-06
4.2334e-06
4.51953e-06
5.6122e-06
6.65085e-06
7.67652e-06
9.38466e-06
1.09839e-05
1.26159e-05
1.63001e-05
2.44724e-05
1.61919e-05
2.36219e-07
4.30866e-07
4.42296e-07
1.15829e-06
7.70144e-07
1.41921e-06
1.22317e-06
1.96508e-06
1.91246e-06
2.52758e-06
3.02332e-06
3.12254e-06
4.759e-06
3.87652e-06
7.22783e-06
5.20769e-06
1.03817e-05
7.82996e-06
1.40482e-05
1.26336e-05
2.04653e-05
1.80553e-05
2.11883e-07
2.18984e-07
3.72476e-07
9.97698e-07
6.11127e-07
1.18056e-06
9.50057e-07
1.62615e-06
1.57294e-06
1.9047e-06
2.78873e-06
1.90674e-06
4.87031e-06
1.79494e-06
7.86847e-06
2.20954e-06
1.16044e-05
4.09401e-06
1.58157e-05
8.42231e-06
1.59911e-05
2.02899e-05
1.44687e-07
7.42965e-08
1.55435e-07
9.86951e-07
9.87005e-08
1.23729e-06
1.77869e-07
1.54698e-06
7.16091e-07
1.36648e-06
2.30747e-06
3.15359e-07
5.05228e-06
-9.49864e-07
8.7717e-06
-1.50988e-06
1.31875e-05
-3.21834e-07
1.79745e-05
3.63538e-06
1.10699e-05
2.28957e-05
-2.58597e-07
3.32894e-07
-7.25333e-07
1.45369e-06
-1.17352e-06
1.68548e-06
-8.30128e-07
1.20359e-06
8.60966e-07
-3.24612e-07
3.87421e-06
-2.69789e-06
7.54878e-06
-4.62443e-06
1.15998e-05
-5.56092e-06
1.59922e-05
-4.71422e-06
2.08072e-05
-1.17961e-06
5.82636e-06
2.60507e-05
-1.36441e-06
1.6973e-06
-1.36414e-06
1.45342e-06
-1.51719e-07
4.73062e-07
2.61832e-06
-1.56645e-06
6.26167e-06
-3.96796e-06
9.80367e-06
-6.23989e-06
1.3385e-05
-8.20572e-06
1.70927e-05
-9.26865e-06
2.09895e-05
-8.61099e-06
2.51576e-05
-5.34774e-06
1.15385e-06
2.98301e-05
5.28514e-07
1.16878e-06
3.2657e-06
-1.28377e-06
6.61576e-06
-2.87699e-06
9.92265e-06
-4.87333e-06
1.30077e-05
-7.05304e-06
1.59755e-05
-9.20767e-06
1.89355e-05
-1.11657e-05
2.21569e-05
-1.24901e-05
2.59098e-05
-1.23639e-05
3.00998e-05
-9.53767e-06
-3.31936e-06
3.4573e-05
7.02979e-06
-5.86101e-06
1.0234e-05
-4.488e-06
1.28862e-05
-5.5292e-06
1.5157e-05
-7.14407e-06
1.701e-05
-8.90606e-06
1.86301e-05
-1.08278e-05
2.02908e-05
-1.28264e-05
2.239e-05
-1.45893e-05
2.55228e-05
-1.54967e-05
3.02108e-05
-1.42256e-05
-9.23907e-06
3.61305e-05
-2.41626e-06
-7.72672e-06
-3.418e-06
-8.66519e-06
-4.04131e-06
-1.01378e-05
-4.92347e-06
-1.17019e-05
-6.1092e-06
-1.32161e-05
-7.7105e-06
-1.44543e-05
-9.90804e-06
-1.53846e-05
-1.27547e-05
-1.6426e-05
-1.63672e-05
-1.8673e-05
-2.06878e-05
-2.28999e-05
-2.94012e-05
-2.57179e-05
-2.3714e-06
-5.35532e-06
-4.20357e-06
-6.83301e-06
-5.50686e-06
-8.83453e-06
-6.51926e-06
-1.06895e-05
-7.45501e-06
-1.22803e-05
-8.58076e-06
-1.33286e-05
-1.03003e-05
-1.3665e-05
-1.31009e-05
-1.36254e-05
-1.7246e-05
-1.45279e-05
-2.25198e-05
-1.7626e-05
-2.29072e-05
-2.90137e-05
-7.85111e-07
-4.57021e-06
-1.85528e-06
-5.76285e-06
-2.98133e-06
-7.70848e-06
-4.08448e-06
-9.58639e-06
-5.12661e-06
-1.12382e-05
-6.23778e-06
-1.22174e-05
-7.79935e-06
-1.21034e-05
-1.05384e-05
-1.08863e-05
-1.51659e-05
-9.9004e-06
-2.14425e-05
-1.13494e-05
-1.54165e-05
-2.89333e-05
-3.99725e-08
-4.53024e-06
-3.58049e-07
-5.44477e-06
-9.38066e-07
-7.12846e-06
-1.72772e-06
-8.79674e-06
-2.61611e-06
-1.03498e-05
-3.57296e-06
-1.12605e-05
-4.78918e-06
-1.08872e-05
-6.9516e-06
-8.72391e-06
-1.1337e-05
-5.51496e-06
-1.83295e-05
-4.35694e-06
-6.76645e-06
-2.69796e-05
1.70003e-07
-4.70024e-06
2.42502e-07
-5.51727e-06
1.22208e-07
-7.00817e-06
-2.4125e-07
-8.43328e-06
-7.94891e-07
-9.79617e-06
-1.46434e-06
-1.05911e-05
-2.26905e-06
-1.00825e-05
-3.56282e-06
-7.43014e-06
-6.61684e-06
-2.46095e-06
-1.31304e-05
2.15665e-06
2.54455e-06
-2.24414e-05
1.98687e-07
-4.89893e-06
3.92973e-07
-5.71156e-06
4.94132e-07
-7.10933e-06
4.31857e-07
-8.37101e-06
1.97963e-07
-9.56228e-06
-1.76918e-07
-1.02162e-05
-6.68914e-07
-9.59052e-06
-1.44569e-06
-6.65337e-06
-3.38481e-06
-5.21826e-07
-8.38376e-06
7.1556e-06
1.14885e-05
-1.73277e-05
1.6329e-07
-5.06222e-06
3.79693e-07
-5.92796e-06
5.50002e-07
-7.27963e-06
6.26545e-07
-8.44755e-06
5.89784e-07
-9.52552e-06
4.41762e-07
-1.00682e-05
2.18494e-07
-9.36725e-06
-1.59229e-07
-6.27564e-06
-1.25258e-06
5.71521e-07
-4.5304e-06
1.04334e-05
1.88951e-05
-1.1937e-05
1.40885e-07
-5.2031e-06
3.40275e-07
-6.12735e-06
5.04639e-07
-7.444e-06
6.07078e-07
-8.54999e-06
6.34155e-07
-9.55259e-06
5.83937e-07
-1.0018e-05
5.08062e-07
-9.29137e-06
4.44058e-07
-6.21164e-06
7.93724e-08
9.36207e-07
-1.64118e-06
1.2154e-05
2.37006e-05
-6.44668e-06
1.07936e-07
-5.31104e-06
2.47228e-07
-6.26664e-06
3.50107e-07
-7.54688e-06
4.06279e-07
-8.60616e-06
3.95817e-07
-9.54213e-06
3.15373e-07
-9.93752e-06
2.2149e-07
-9.19749e-06
2.72876e-07
-6.26303e-06
4.95525e-07
7.13559e-07
-7.98937e-08
1.27294e-05
2.67041e-05
-3.08348e-06
1.93056e-09
-5.31297e-06
1.12129e-07
-6.37684e-06
1.19704e-07
-7.55445e-06
5.67516e-08
-8.54321e-06
-7.02845e-08
-9.4151e-06
-2.78414e-07
-9.72939e-06
-5.24651e-07
-8.95125e-06
-6.29796e-07
-6.15788e-06
-2.09386e-07
2.93149e-07
2.25566e-07
1.22944e-05
2.80205e-05
-1.09078e-06
-7.72932e-08
-5.23568e-06
-9.38064e-08
-6.36033e-06
-2.9809e-07
-7.35017e-06
-4.62812e-07
-8.37848e-06
-7.53348e-07
-9.12456e-06
-1.14878e-06
-9.33396e-06
-1.61458e-06
-8.48546e-06
-2.00582e-06
-5.76665e-06
-1.83091e-06
1.1824e-07
-8.38951e-07
1.13025e-05
2.75653e-05
-3.83722e-07
-1.57703e-07
-5.07797e-06
-3.46559e-07
-6.17147e-06
-6.08463e-07
-7.08827e-06
-1.01133e-06
-7.97562e-06
-1.52751e-06
-8.60838e-06
-2.18065e-06
-8.68082e-06
-2.93982e-06
-7.72629e-06
-3.66592e-06
-5.04054e-06
-3.99844e-06
4.5076e-07
-3.03751e-06
1.03415e-05
2.57483e-05
-1.22053e-06
-2.62089e-07
-4.81588e-06
-5.8484e-07
-5.84872e-06
-1.03374e-06
-6.63936e-06
-1.6351e-06
-7.37426e-06
-2.40818e-06
-7.83531e-06
-3.36395e-06
-7.72505e-06
-4.46767e-06
-6.62256e-06
-5.57354e-06
-3.93468e-06
-6.36394e-06
1.24116e-06
-6.17332e-06
1.01509e-05
2.41468e-05
-4.57187e-06
-3.93428e-07
-4.42246e-06
-8.79664e-07
-5.36248e-06
-1.52114e-06
-5.99789e-06
-2.35274e-06
-6.54266e-06
-3.40552e-06
-6.78253e-06
-4.69156e-06
-6.439e-06
-6.18019e-06
-5.13393e-06
-7.73966e-06
-2.37521e-06
-9.06158e-06
2.56308e-06
-9.50501e-06
1.05944e-05
2.25402e-05
-7.89841e-06
-4.99281e-07
-3.92318e-06
-1.14957e-06
-4.71219e-06
-2.00292e-06
-5.14454e-06
-3.10042e-06
-5.44515e-06
-4.47922e-06
-5.40373e-06
-6.15842e-06
-4.7598e-06
-8.11701e-06
-3.17534e-06
-1.02702e-05
-2.21983e-07
-1.22462e-05
4.53901e-06
-1.33288e-05
1.1677e-05
2.20394e-05
-1.28279e-05
-6.14035e-07
-3.30914e-06
-1.45257e-06
-3.87366e-06
-2.54725e-06
-4.04986e-06
-3.9601e-06
-4.0323e-06
-5.7454e-06
-3.61843e-06
-7.93197e-06
-2.57324e-06
-1.05493e-05
-5.57999e-07
-1.33939e-05
2.62261e-06
-1.59955e-05
7.14064e-06
-1.78525e-05
1.35339e-05
2.25721e-05
-1.83852e-05
-7.5414e-07
-2.555e-06
-1.80378e-06
-2.82402e-06
-3.18112e-06
-2.67253e-06
-4.97283e-06
-2.24059e-06
-7.27479e-06
-1.31646e-06
-1.0103e-05
2.54934e-07
-1.32822e-05
2.6212e-06
-1.65303e-05
5.87073e-06
-1.96595e-05
1.02698e-05
-2.234e-05
1.62144e-05
2.40866e-05
-2.38545e-05
-9.20401e-07
-1.6346e-06
-2.19344e-06
-1.55098e-06
-3.87807e-06
-9.87899e-07
-6.05948e-06
-5.91786e-08
-8.7178e-06
1.34186e-06
-1.1781e-05
3.31816e-06
-1.5138e-05
5.97813e-06
-1.87876e-05
9.52034e-06
-2.25944e-05
1.40767e-05
-2.61788e-05
1.97987e-05
2.69534e-05
-2.90455e-05
-1.03367e-06
-6.00925e-07
-2.41466e-06
-1.69992e-07
-4.12934e-06
7.26777e-07
-6.24735e-06
2.05883e-06
-8.80385e-06
3.89836e-06
-1.18407e-05
6.35501e-06
-1.53636e-05
9.50103e-06
-1.92631e-05
1.34198e-05
-2.33449e-05
1.81586e-05
-2.72624e-05
2.37162e-05
3.00465e-05
-3.03555e-05
-9.69795e-07
3.68871e-07
-2.18064e-06
1.04085e-06
-3.65953e-06
2.20567e-06
-5.53171e-06
3.93101e-06
-7.91343e-06
6.28008e-06
-1.08003e-05
9.24183e-06
-1.41083e-05
1.28091e-05
-1.76948e-05
1.70062e-05
-2.13702e-05
2.1834e-05
-2.48283e-05
2.71743e-05
3.27914e-05
-2.75732e-05
-7.57186e-07
1.12606e-06
-1.67493e-06
1.95859e-06
-2.89527e-06
3.42601e-06
-4.51119e-06
5.54693e-06
-6.53437e-06
8.30326e-06
-8.86783e-06
1.15753e-05
-1.13633e-05
1.53046e-05
-1.38377e-05
1.94807e-05
-1.60697e-05
2.4066e-05
-1.76383e-05
2.87429e-05
3.25683e-05
-1.74153e-05
-5.85169e-07
1.71123e-06
-1.31865e-06
2.69207e-06
-2.33493e-06
4.44229e-06
-3.61287e-06
6.82487e-06
-5.00533e-06
9.69571e-06
-6.34095e-06
1.29109e-05
-7.43862e-06
1.64022e-05
-8.10986e-06
2.01519e-05
-8.05232e-06
2.40084e-05
-6.53202e-06
2.72226e-05
2.79366e-05
-1.90025e-06
-7.80736e-07
2.49196e-06
-1.57876e-06
3.49009e-06
-2.53552e-06
5.39906e-06
-3.30872e-06
7.59807e-06
-3.70035e-06
1.00873e-05
-3.56972e-06
1.27803e-05
-2.81981e-06
1.56523e-05
-1.23789e-06
1.857e-05
1.6635e-06
2.11071e-05
6.91828e-06
2.19679e-05
1.86631e-05
1.61917e-05
-3.36904e-06
-4.36695e-06
-4.49709e-06
-4.04309e-06
-2.86181e-06
-9.09275e-07
1.91663e-06
5.8973e-06
1.15076e-05
1.92499e-05
2.86739e-05
-1.31459e-05
-9.56776e-06
2.27136e-05
-2.12629e-05
-1.14517e-05
1.95688e-05
-2.81384e-05
-1.386e-05
2.07354e-05
-3.41616e-05
-1.6021e-05
2.20442e-05
-3.97776e-05
-1.78195e-05
2.34355e-05
-4.53805e-05
-1.93175e-05
2.49204e-05
-5.14126e-05
-2.05118e-05
2.65439e-05
-5.82572e-05
-2.13668e-05
2.82114e-05
-6.62291e-05
-2.17948e-05
2.97666e-05
-7.5667e-05
-2.16151e-05
3.10531e-05
-2.04808e-05
3.17957e-05
-8.69819e-05
-9.22185e-06
-3.45909e-07
-1.70171e-05
-3.65646e-06
-2.41707e-05
-6.70635e-06
-3.08119e-05
-9.37976e-06
-3.70869e-05
-1.15445e-05
-4.33277e-05
-1.30766e-05
-4.99575e-05
-1.38821e-05
-5.74111e-05
-1.39131e-05
-6.61218e-05
-1.30841e-05
-7.65444e-05
-1.11926e-05
-7.90554e-06
-8.91196e-05
-4.28786e-06
3.94195e-06
-9.71194e-06
1.76762e-06
-1.61602e-05
-2.58142e-07
-2.29296e-05
-2.61027e-06
-2.98546e-05
-4.61953e-06
-3.70138e-05
-5.91748e-06
-4.46432e-05
-6.25268e-06
-5.30645e-05
-5.49181e-06
-6.26551e-05
-3.49353e-06
-7.38099e-05
-3.77241e-08
5.34193e-06
-8.70574e-05
-1.62338e-06
5.56532e-06
-4.77907e-06
4.92332e-06
-9.5735e-06
4.53629e-06
-1.55578e-05
3.37406e-06
-2.24362e-05
2.2588e-06
-2.99447e-05
1.59108e-06
-3.80244e-05
1.82696e-06
-4.68761e-05
3.35997e-06
-5.68776e-05
6.50795e-06
-6.84951e-05
1.15797e-05
1.90048e-05
-8.21579e-05
-1.43095e-06
6.99627e-06
-3.6595e-06
7.15187e-06
-6.90066e-06
7.77745e-06
-1.14025e-05
7.87587e-06
-1.71733e-05
8.02962e-06
-2.4095e-05
8.51277e-06
-3.20454e-05
9.77733e-06
-4.09977e-05
1.23124e-05
-5.10866e-05
1.65968e-05
-6.26022e-05
2.30954e-05
3.24141e-05
-7.60115e-05
-1.24355e-06
8.23982e-06
-3.27045e-06
9.17878e-06
-5.89509e-06
1.04021e-05
-9.51305e-06
1.14938e-05
-1.4275e-05
1.27916e-05
-2.02391e-05
1.44769e-05
-2.73934e-05
1.69316e-05
-3.57334e-05
2.06524e-05
-4.53199e-05
2.61833e-05
-5.63497e-05
3.41252e-05
4.52479e-05
-6.91835e-05
-1.12643e-06
9.36625e-06
-2.82445e-06
1.08768e-05
-5.11252e-06
1.26902e-05
-8.18205e-06
1.45634e-05
-1.22012e-05
1.68107e-05
-1.73109e-05
1.95866e-05
-2.3607e-05
2.32277e-05
-3.11402e-05
2.81856e-05
-3.99853e-05
3.50283e-05
-5.02801e-05
4.442e-05
5.71671e-05
-6.21993e-05
-1.07602e-06
1.04423e-05
-2.62732e-06
1.24281e-05
-4.63241e-06
1.46953e-05
-7.28603e-06
1.7217e-05
-1.0737e-05
2.02616e-05
-1.51449e-05
2.39946e-05
-2.06387e-05
2.87215e-05
-2.73292e-05
3.48761e-05
-3.53227e-05
4.30217e-05
-4.47683e-05
5.38656e-05
6.83056e-05
-5.59068e-05
-9.99744e-07
1.1442e-05
-2.40887e-06
1.38372e-05
-4.20457e-06
1.6491e-05
-6.53474e-06
1.95471e-05
-9.53925e-06
2.32661e-05
-1.3368e-05
2.78233e-05
-1.81686e-05
3.35221e-05
-2.40748e-05
4.07823e-05
-3.12252e-05
5.01722e-05
-3.97949e-05
6.24353e-05
7.85332e-05
-5.00224e-05
-8.0487e-07
1.22469e-05
-2.0121e-06
1.50445e-05
-3.58485e-06
1.80637e-05
-5.63157e-06
2.15939e-05
-8.26053e-06
2.58951e-05
-1.16099e-05
3.11727e-05
-1.58235e-05
3.77357e-05
-2.10453e-05
4.60041e-05
-2.74361e-05
5.65631e-05
-3.51654e-05
7.01646e-05
8.77913e-05
-4.44236e-05
-6.35152e-07
1.2882e-05
-1.66484e-06
1.60741e-05
-3.01652e-06
1.94154e-05
-4.78321e-06
2.33605e-05
-7.06338e-06
2.81753e-05
-9.97889e-06
3.40882e-05
-1.36606e-05
4.14174e-05
-1.82506e-05
5.0594e-05
-2.39027e-05
6.22151e-05
-3.07936e-05
7.70555e-05
9.61322e-05
-3.91346e-05
-6.00262e-07
1.34823e-05
-1.50858e-06
1.69825e-05
-2.67298e-06
2.05798e-05
-4.18373e-06
2.48713e-05
-6.13193e-06
3.01235e-05
-8.62273e-06
3.6579e-05