/*--------------------------------*- C++ -*----------------------------------*\
| =========                 |                                                 |
| \\      /  F ield         | OpenFOAM: The Open Source CFD Toolbox           |
|  \\    /   O peration     | Version:  3.0.1                                 |
|   \\  /    A nd           | Web:      www.OpenFOAM.org                      |
|    \\/     M anipulation  |                                                 |
\*---------------------------------------------------------------------------*/
FoamFile
{
    version     2.0;
    format      ascii;
    class       surfaceVectorField;
    location    "0.104985";
    object      Uf;
}
// * * * * * * * * * * * * * * * * * * * * * * * * * * * * * * * * * * * * * //

dimensions      [0 1 -1 0 0 0 0];

internalField   nonuniform List<vector> 
32369
(
(2.27442 4.25416 6.06351e-19)
(3.42715 5.02234 1.65026e-18)
(0.918886 5.19538 3.68042e-19)
(1.86485 3.58168 2.16425e-19)
(3.00673 2.77695 -6.95883e-19)
(0.766359 3.65125 1.43203e-18)
(1.82309 2.85604 1.92919e-19)
(2.77861 2.88337 0)
(1.01415 2.84256 0)
(1.78209 2.22222 5.49902e-19)
(2.47286 2.33362 1.82885e-19)
(1.21879 2.20317 1.00302e-19)
(1.78818 1.73054 2.48853e-19)
(2.23824 1.88427 1.39928e-19)
(1.38909 1.7389 3.3704e-19)
(1.81926 1.36294 -1.24121e-19)
(2.10691 1.50689 -1.04695e-19)
(1.53214 1.38867 -3.01367e-19)
(1.86129 1.08721 -9.68669e-20)
(2.04938 1.20653 3.80108e-20)
(1.64723 1.1209 -2.12237e-19)
(1.90907 0.877278 -1.91676e-19)
(2.03617 0.970761 -1.32146e-19)
(1.74124 0.912358 1.94749e-20)
(1.9629 0.715664 -7.71592e-20)
(2.05149 0.785798 -7.75021e-20)
(1.82367 0.74795 -7.90219e-20)
(2.02652 0.588868 1.06716e-22)
(2.09025 0.641711 -2.16678e-20)
(1.90082 0.618344 -4.72351e-20)
(2.14732 0.540061 1.17844e-19)
(1.96984 0.52047 2.52534e-19)
(2.11325 0.485773 1.98615e-20)
(3.16488 2.09908 -4.08191e-19)
(2.94469 3.06034 -4.17309e-19)
(3.22979 2.4322 1.09219e-19)
(3.27736 0.837777 9.23667e-20)
(3.07648 2.33611 -1.00428e-20)
(3.63647 1.98535 8.15299e-19)
(2.76176 2.08619 -1.92874e-19)
(3.36891 1.7764 -9.61312e-19)
(2.49787 1.74683 -1.86193e-19)
(3.01633 1.6293 -5.04219e-19)
(2.31799 1.41497 3.21034e-20)
(2.70186 1.39939 0)
(2.21663 1.13291 -4.08412e-20)
(2.48041 1.164 4.19147e-20)
(2.17253 0.908067 -2.98835e-20)
(2.34757 0.952287 -3.12992e-20)
(2.16975 0.733313 -1.96995e-20)
(2.28323 0.774873 0)
(2.20021 0.600444 -5.95207e-21)
(2.27054 0.631479 -2.19307e-20)
(2.30122 0.529627 3.88898e-20)
(2.26784 0.50168 2.00005e-20)
(2.72341 0.752658 0)
(2.00311 1.73471 -4.21847e-18)
(3.4418 0.933773 6.88899e-19)
(2.73481 -0.313478 0)
(3.56259 1.18284 -4.59868e-19)
(3.57145 0.921503 -8.4004e-19)
(3.38212 1.3472 -8.43659e-19)
(3.56622 0.842013 5.61036e-19)
(3.08298 1.32951 1.98311e-19)
(3.40613 1.01661 1.75116e-19)
(2.79615 1.20054 5.96871e-21)
(3.11486 1.01101 0)
(2.57922 1.02466 9.83431e-21)
(2.83903 0.930642 1.96456e-19)
(2.44173 0.84909 -5.53372e-21)
(2.6303 0.812083 2.97052e-20)
(2.37347 0.696339 0)
(2.49852 0.686812 8.87084e-20)
(2.36539 0.571604 1.25993e-20)
(2.4373 0.573358 -6.46399e-20)
(2.43993 0.490169 -7.40449e-20)
(2.42604 0.476256 1.08181e-19)
(1.92221 0.229284 -4.52565e-18)
(1.06474 1.104 -6.39001e-18)
(2.9943 0.0627785 -1.36975e-18)
(2.03961 -0.63687 -2.01267e-18)
(3.41892 0.27528 1.49559e-19)
(3.08899 0.211046 2.17138e-18)
(3.49628 0.528474 1.56713e-18)
(3.31913 0.068156 1.23271e-18)
(3.34259 0.700307 0)
(3.40713 0.376471 1.25707e-18)
(3.09302 0.774767 1.6625e-19)
(3.24284 0.507383 -1.5798e-18)
(2.85231 0.754992 2.38136e-19)
(3.02424 0.572036 9.82724e-19)
(2.66591 0.681217 1.32575e-19)
(2.81567 0.568712 -2.52586e-19)
(2.54868 0.588782 4.34731e-20)
(2.65778 0.5241 4.04388e-20)
(2.50104 0.499925 -1.67024e-19)
(2.56472 0.463422 -3.50203e-20)
(2.53957 0.414215 -2.37463e-20)
(2.52645 0.427575 -9.66062e-20)
(1.11066 0.148792 -4.13379e-18)
(0.228196 0.892571 -2.40825e-18)
(2.32922 -0.262246 1.48152e-19)
(1.3961 -0.553617 -2.02617e-18)
(2.96872 -0.22582 3.77155e-18)
(2.52433 -0.136263 5.89113e-18)
(3.26559 -0.0677281 9.75812e-19)
(2.91159 -0.377125 -2.18003e-18)
(3.29046 0.137691 -1.93511e-19)
(3.17552 -0.0966189 1.14089e-18)
(3.15538 0.311828 -1.11104e-18)
(3.14599 0.060913 -2.23808e-18)
(2.97041 0.408896 5.82226e-19)
(3.02892 0.205735 1.70612e-18)
(2.79447 0.438296 -4.09877e-19)
(2.87296 0.287472 -8.75755e-19)
(2.66331 0.422798 -6.52026e-20)
(2.73154 0.31849 8.83387e-20)
(2.59174 0.386983 1.70254e-19)
(2.63299 0.316495 8.5215e-20)
(2.59152 0.309518 8.46545e-20)
(2.58585 0.351128 4.86113e-19)
(0.388391 0.251466 -4.35899e-20)
(-0.523458 0.920785 -1.03507e-19)
(1.66068 -0.306194 2.08791e-18)
(0.792829 -0.32143 6.37221e-23)
(2.43581 -0.430214 3.41754e-19)
(1.95381 -0.254565 2.45891e-18)
(2.88325 -0.396862 -2.29803e-18)
(2.47246 -0.563664 -2.00754e-18)
(3.05336 -0.241975 -6.92517e-19)
(2.85356 -0.37799 -7.71921e-20)
(3.04061 -0.0623551 1.6675e-19)
(2.93418 -0.253445 -7.32988e-19)
(2.94056 0.0850879 5.74744e-19)
(2.9109 -0.0908056 9.9036e-19)
(2.81299 0.181323 -5.07432e-19)
(2.82238 0.0309768 -5.86891e-19)
(2.70028 0.230155 2.36815e-19)
(2.72029 0.112116 1.9136e-19)
(2.62628 0.247558 -1.40876e-20)
(2.63688 0.156508 1.16083e-19)
(2.59203 0.187072 -4.79908e-20)
(2.60288 0.253952 -4.16827e-19)
(-0.247842 0.475971 -7.17976e-20)
(-1.18417 1.12632 2.49367e-21)
(1.04704 -0.195561 1.15158e-19)
(0.231792 -0.00841928 4.66492e-20)
(1.91473 -0.458151 7.84602e-20)
(1.40056 -0.220884 7.11161e-20)
(2.46753 -0.53554 0)
(2.03978 -0.585339 0)
(2.74455 -0.453207 -4.21443e-20)
(2.5082 -0.51127 2.15836e-19)
(2.83228 -0.310446 -5.22688e-20)
(2.67927 -0.438332 -3.55295e-19)
(2.81402 -0.163413 0)
(2.733 -0.295908 0)
(2.74434 -0.041133 0)
(2.70506 -0.16859 0)
(2.66568 0.0458015 7.77542e-20)
(2.6462 -0.0651496 -1.60549e-19)
(2.60552 0.100544 9.74185e-20)
(2.58869 0.00705381 -2.1165e-19)
(2.55432 0.0629919 -2.41264e-19)
(2.57848 0.135283 -4.56602e-20)
(-0.807014 0.78621 1.09617e-19)
(-1.69926 1.44044 -1.72269e-19)
(0.499631 0.0194813 0)
(-0.274541 0.353356 0)
(1.43449 -0.368074 0)
(0.888746 -0.0757725 3.14324e-19)
(2.06924 -0.546835 1.93167e-19)
(1.63148 -0.498138 0)
(2.42902 -0.542179 -3.66831e-20)
(2.17024 -0.536907 -8.67246e-21)
(2.5937 -0.45026 -3.40833e-19)
(2.41874 -0.522567 -1.0636e-18)
(2.64092 -0.326963 0)
(2.53454 -0.417956 8.31011e-19)
(2.62372 -0.207269 -1.42496e-19)
(2.55724 -0.305811 -7.64722e-19)
(2.58163 -0.107498 -4.49657e-19)
(2.53659 -0.200904 -3.07843e-19)
(2.54203 -0.0303341 -5.65791e-19)
(2.50344 -0.116915 2.01042e-19)
(2.47781 -0.0468308 -3.67482e-19)
(2.52296 0.0323524 4.60883e-19)
(-1.28533 1.14099 -3.00282e-19)
(-2.11202 1.79991 -2.01766e-18)
(0.0110976 0.306634 2.83018e-19)
(-0.738889 0.734562 -1.72815e-19)
(0.996877 -0.192799 3.47235e-19)
(0.42162 0.148463 7.60025e-21)
(1.70141 -0.468813 -1.876e-19)
(1.25107 -0.337349 -8.52411e-19)
(2.13163 -0.544595 -9.32351e-19)
(1.85161 -0.485992 7.82044e-19)
(2.35872 -0.509458 -1.10227e-19)
(2.16995 -0.534186 -1.50266e-18)
(2.45706 -0.42069 2.38865e-19)
(2.33778 -0.475954 1.4965e-18)
(2.48143 -0.31775 -9.42562e-19)
(2.40194 -0.389477 -1.45722e-18)
(2.47034 -0.221249 2.83002e-19)
(2.41285 -0.29575 2.21556e-19)
(2.4493 -0.138472 4.02694e-19)
(2.40107 -0.212506 7.40143e-20)
(2.38475 -0.137498 4.57879e-19)
(2.44044 -0.0687352 -1.0479e-19)
(-1.70781 1.52134 -2.03813e-18)
(-2.48273 2.20767 -3.42803e-18)
(-0.443583 0.641881 -4.67413e-19)
(-1.18367 1.13582 -1.0331e-20)
(0.582876 0.0430345 -1.10555e-18)
(-0.0211319 0.434353 -3.08548e-19)
(1.35323 -0.327815 -9.35748e-20)
(0.882518 -0.123881 -6.82639e-19)
(1.85179 -0.486288 4.17165e-19)
(1.54561 -0.379722 1.29358e-18)
(2.13702 -0.511611 -2.00565e-19)
(1.93327 -0.494837 -4.94762e-19)
(2.27944 -0.462987 7.29696e-20)
(2.15045 -0.487787 6.66456e-19)
(2.33725 -0.384155 -4.68011e-19)
(2.25109 -0.432441 -3.04957e-19)
(2.35068 -0.299738 3.11392e-20)
(2.28812 -0.356714 3.83591e-20)
(2.34505 -0.220818 4.54083e-20)
(2.29426 -0.281614 1.82512e-19)
(2.28866 -0.210227 5.4151e-19)
(2.33245 -0.148285 -2.95796e-19)
(-2.09936 1.92614 -1.73351e-18)
(-2.78364 2.62872 -1.72216e-18)
(-0.87427 1.01252 1.87636e-19)
(-1.6031 1.55188 1.28388e-18)
(0.181056 0.324499 1.55023e-19)
(-0.440426 0.764278 -1.04765e-18)
(1.01276 -0.140097 4.58898e-19)
(0.51708 0.127957 -3.01034e-19)
(1.58062 -0.384068 5.29095e-19)
(1.24279 -0.231138 -1.78038e-19)
(1.92557 -0.47356 2.45057e-19)
(1.70118 -0.41811 -1.19382e-19)
(2.11162 -0.468835 3.67046e-19)
(1.97013 -0.46619 1.06203e-18)
(2.19958 -0.418005 1.67689e-19)
(2.10713 -0.445712 -3.49818e-19)
(2.23336 -0.350075 1.80699e-19)
(2.16797 -0.391641 4.38333e-19)
(2.24078 -0.278756 6.45455e-19)
(2.18858 -0.328141 2.06172e-19)
(2.18829 -0.261136 4.58387e-19)
(2.23774 -0.205339 -9.43895e-21)
(-2.44617 2.33365 1.00563e-18)
(-3.00783 2.99795 0)
(-1.27741 1.39116 3.08559e-19)
(-1.96921 1.92944 1.11913e-18)
(-0.206574 0.632708 -1.58576e-18)
(-0.840039 1.11031 -8.60466e-19)
(0.677001 0.0807143 -9.55761e-19)
(0.152074 0.403138 -1.82511e-19)
(1.31148 -0.249128 -8.27357e-19)
(0.936063 -0.0513855 -4.80533e-19)
(1.71773 -0.405942 5.7155e-19)
(1.46439 -0.312794 6.01778e-19)
(1.94999 -0.448428 4.85951e-19)
(1.78916 -0.419219 5.79931e-19)
(2.06886 -0.428328 -1.59971e-19)
(1.96615 -0.437027 -7.6487e-19)
(2.12173 -0.379483 4.97747e-19)
(2.05239 -0.407302 5.068e-19)
(2.1391 -0.319526 4.89251e-21)
(2.08767 -0.358501 -1.03657e-18)
(2.09509 -0.299616 4.75038e-19)
(2.13808 -0.255031 -1.2496e-19)
(-2.72212 2.6805 0)
(-3.16554 3.29452 0)
(-1.64262 1.75496 1.82143e-19)
(-2.30401 2.27014 0)
(-0.588885 0.954208 4.96834e-19)
(-1.23194 1.45585 2.02834e-19)
(0.333032 0.325185 3.3607e-19)
(-0.226224 0.69863 4.37144e-19)
(1.03071 -0.0875491 8.48498e-19)
(0.609128 0.158803 0)
(1.501 -0.313875 6.13407e-19)
(1.20762 -0.179515 6.54043e-19)
(1.78506 -0.407218 -5.40004e-19)
(1.59466 -0.348746 -4.89132e-19)
(1.93967 -0.420908 -2.23558e-19)
(1.81903 -0.409618 -2.9686e-19)
(2.01443 -0.393356 -8.56658e-19)
(1.93648 -0.407448 -2.62437e-20)
(2.04373 -0.346724 -7.21512e-19)
(1.99021 -0.375374 -3.44936e-19)
(2.0092 -0.327456 -3.68518e-19)
(2.04332 -0.289031 4.04461e-19)
(-2.92819 2.95207 0)
(-3.25122 3.50836 -6.74258e-19)
(-1.98676 2.09231 0)
(-2.59285 2.58106 0)
(-0.981822 1.28715 1.18635e-19)
(-1.62155 1.81699 1.72208e-19)
(-0.0373856 0.598896 1.45584e-19)
(-0.629124 1.03047 5.07323e-19)
(0.719758 0.106496 -2.77947e-19)
(0.249154 0.411833 -7.58133e-19)
(1.25849 -0.193488 -3.42941e-19)
(0.91724 -0.0082402 -2.78619e-20)
(1.60277 -0.343929 -2.65864e-19)
(1.37307 -0.24835 0)
(1.80189 -0.396602 -1.25681e-19)
(1.65388 -0.360391 -2.9846e-19)
(1.90557 -0.393399 5.24413e-19)
(1.81126 -0.391364 5.97779e-19)
(1.9524 -0.36106 1.29518e-20)
(1.89011 -0.378573 1.69046e-19)
(1.92381 -0.340262 -3.4307e-19)
(1.96846 -0.314008 3.66089e-19)
(-3.06348 3.15593 -7.41465e-19)
(-3.2595 3.6313 -5.93621e-19)
(-2.29076 2.41002 1.55072e-19)
(-2.80187 2.8488 9.16376e-19)
(-1.37281 1.63931 5.26686e-19)
(-1.97489 2.17651 -4.02516e-20)
(-0.429603 0.911233 -2.52063e-19)
(-1.03769 1.39384 -1.43328e-20)
(0.37721 0.342769 -5.91229e-19)
(-0.138511 0.710692 -7.60292e-19)
(0.983251 -0.0362892 3.13517e-19)
(0.590379 0.20741 -2.22733e-19)
(1.39291 -0.252259 0)
(1.11566 -0.110841 2.66692e-20)
(1.64498 -0.351628 3.32185e-19)
(1.45921 -0.283181 3.95539e-19)
(1.78632 -0.377957 2.87704e-19)
(1.66555 -0.354842 2.18854e-20)
(1.8574 -0.36291 -1.3864e-19)
(1.77887 -0.366531 9.60328e-20)
(1.83639 -0.342902 1.63549e-19)
(1.88582 -0.32673 3.9013e-19)
(-3.129 3.31972 9.13024e-19)
(-3.22583 3.71105 -6.43436e-19)
(-2.52697 2.70552 9.96281e-19)
(-2.92488 3.07462 9.15081e-19)
(-1.73686 2.00441 -5.91417e-19)
(-2.26347 2.51568 -1.22177e-19)
(-0.834538 1.26421 -4.29859e-19)
(-1.43178 1.77928 -5.73489e-19)
(0.00135987 0.628681 -4.54648e-19)
(-0.550143 1.05794 0)
(0.667742 0.166877 -5.4385e-19)
(0.220901 0.47537 -5.08591e-19)
(1.14405 -0.123358 3.87544e-19)
(0.810643 0.0732646 2.78872e-19)
(1.45597 -0.278603 1.23555e-19)
(1.22033 -0.168297 2.12951e-20)
(1.6448 -0.341879 -1.80967e-19)
(1.48459 -0.289453 -3.56093e-19)
(1.75055 -0.349098 3.92934e-19)
(1.64386 -0.332647 2.26693e-19)
(1.73637 -0.327657 8.30184e-22)
(1.80564 -0.328041 1.04594e-19)
(-3.14607 3.46118 -7.96251e-19)
(-3.18477 3.78651 -1.32967e-18)
(-2.68624 2.96954 7.45804e-20)
(-2.98621 3.2695 9.39729e-19)
(-2.04667 2.36412 -7.47463e-20)
(-2.47591 2.82129 -6.55777e-19)
(-1.23549 1.65106 -2.04286e-19)
(-1.78742 2.17045 -1.2324e-19)
(-0.408443 0.96927 0)
(-0.974452 1.44967 -4.36574e-20)
(0.30101 0.426671 2.25853e-19)
(-0.195257 0.80429 0)
(0.840433 0.0553536 -6.95964e-20)
(0.444603 0.31848 3.78479e-19)
(1.21764 -0.165165 -4.22884e-19)
(0.919431 0.000767222 -1.70914e-19)
(1.46485 -0.274563 -1.23399e-20)
(1.24958 -0.179488 -1.91705e-19)
(1.61816 -0.311657 -1.44079e-19)
(1.46784 -0.264059 -1.10408e-19)
(1.60934 -0.286809 -1.45644e-19)
(1.71074 -0.312582 -9.85176e-20)
(-3.1411 3.58558 1.75448e-19)
(-3.14819 3.86458 -6.45538e-19)
(-2.78515 3.19437 5.42205e-19)
(-3.01386 3.43726 8.93279e-19)
(-2.288 2.69409 -7.57412e-19)
(-2.62176 3.08166 -7.77644e-19)
(-1.60708 2.04738 2.96995e-20)
(-2.08477 2.53586 5.56938e-19)
(-0.83984 1.35712 -4.82523e-20)
(-1.39039 1.86317 -3.74999e-19)
(-0.120723 0.750941 1.15622e-19)
(-0.653078 1.1927 0)
(0.468374 0.299851 3.32669e-19)
(0.00822661 0.639625 1.00247e-19)
(0.91162 0.00742051 5.0963e-20)
(0.539358 0.246704 2.1271e-19)
(1.22712 -0.158254 -3.01298e-19)
(0.940027 -0.000674578 -1.5958e-19)
(1.44241 -0.236063 -1.09435e-19)
(1.22972 -0.139145 -1.03229e-19)
(1.43645 -0.202283 -3.90853e-20)
(1.5864 -0.264892 -3.73515e-19)
(-3.13011 3.70345 -8.59546e-20)
(-3.11574 3.94408 -7.41735e-19)
(-2.84806 3.38723 -8.09399e-20)
(-3.02925 3.58454 -5.07011e-19)
(-2.47078 2.98285 3.93573e-19)
(-2.72867 3.29765 7.17343e-19)
(-1.93621 2.42754 2.66962e-19)
(-2.33267 2.85565 4.90821e-19)
(-1.27898 1.77635 -3.63135e-19)
(-1.78788 2.27343 8.21309e-20)
(-0.597695 1.14535 -2.93385e-20)
(-1.14459 1.63548 -2.70795e-19)
(0.0156942 0.631714 -3.64751e-20)
(-0.502172 1.05513 -4.24826e-20)
(0.519163 0.267355 3.08359e-20)
(0.0668361 0.601127 1.3274e-19)
(0.909496 0.0351706 3.46955e-20)
(0.536264 0.282257 -5.46072e-20)
(1.19959 -0.0977034 -3.97127e-20)
(0.90496 0.0751464 6.07198e-22)
(1.19213 -0.044501 -4.5166e-20)
(1.41243 -0.1699 3.54519e-19)
(-3.11864 3.81739 -9.69605e-19)
(-3.07643 4.01546 -1.45019e-18)
(-2.89694 3.55176 -1.53411e-20)
(-3.03928 3.70103 1.19804e-19)
(-2.6239 3.22415 8.35255e-19)
(-2.8275 3.4609 8.48655e-19)
(-2.23659 2.77142 3.64509e-19)
(-2.56492 3.11912 0)
(-1.72192 2.20856 1.99367e-19)
(-2.17512 2.66539 3.6059e-19)
(-1.1244 1.61265 -3.09283e-19)
(-1.65802 2.12939 -1.46962e-19)
(-0.520651 1.07608 1.06599e-19)
(-1.07403 1.58395 6.11806e-20)
(0.0276783 0.65173 6.28321e-20)
(-0.495841 1.1005 8.20632e-20)
(0.491316 0.345449 -9.58944e-20)
(0.0283346 0.714047 -5.81442e-20)
(0.862035 0.140993 3.75191e-22)
(0.47114 0.424359 5.70538e-21)
(0.838642 0.23059 -1.10107e-20)
(1.15498 0.00572917 -3.94279e-21)
(-3.09242 3.89736 -1.29618e-19)
(-3.01504 4.0531 -6.34018e-19)
(-2.94479 3.66114 7.21812e-19)
(-3.04751 3.73215 1.1807e-18)
(-2.78504 3.40155 1.10252e-19)
(-2.93872 3.53886 -7.03632e-19)
(-2.54252 3.06964 -4.49063e-20)
(-2.79658 3.32392 0)
(-2.17207 2.64833 5.2781e-20)
(-2.54686 3.04949 3.40815e-19)
(-1.68212 2.15976 1.99177e-19)
(-2.14992 2.67448 -1.84826e-19)
(-1.12133 1.6592 3.73926e-20)
(-1.65187 2.23113 -4.16058e-20)
(-0.556555 1.20263 -2.97192e-20)
(-1.10494 1.76679 -4.7427e-20)
(-0.0410282 0.822957 3.02621e-20)
(-0.563989 1.33147 1.02259e-20)
(0.402254 0.532326 -3.69032e-21)
(-0.0740022 0.961448 1.26611e-20)
(0.363578 0.668723 -1.00113e-20)
(0.763355 0.350297 -5.63855e-21)
(-3.05926 3.79945 6.63899e-19)
(-3.07727 3.87575 7.00855e-21)
(-3.01831 3.61704 5.79931e-20)
(-3.05698 3.6264 5.9022e-19)
(-2.96505 3.47467 -8.62651e-19)
(-2.98554 3.53408 -4.13193e-19)
(-2.83645 3.32291 3.44073e-19)
(-2.88749 3.46899 -7.03365e-19)
(-2.58298 3.09891 1.58116e-19)
(-2.71157 3.38092 6.51464e-19)
(-2.19404 2.77038 -3.75935e-19)
(-2.41562 3.19572 -2.27889e-19)
(-1.70633 2.36594 -8.69388e-20)
(-2.03675 2.90821 -5.71288e-20)
(-1.17277 1.92495 -1.4084e-20)
(-1.59172 2.5341 2.91363e-20)
(-0.648228 1.49835 -2.38713e-20)
(-1.11844 2.11547 -2.96193e-20)
(-0.17091 1.13063 9.08872e-21)
(-0.66637 1.70692 -8.99721e-21)
(-0.188658 1.35181 4.22408e-19)
(0.264814 0.802353 -2.1008e-19)
(-3.04028 3.81614 -1.50849e-19)
(-2.31937 2.97663 1.7036e-18)
(-2.98673 3.66506 4.68208e-19)
(-2.19491 3.00299 -1.17613e-18)
(-2.90903 3.62013 -1.33185e-19)
(-2.04992 3.03826 1.10702e-18)
(-2.77553 3.60452 -6.15866e-19)
(-1.92293 3.06827 -5.25354e-19)
(-2.57428 3.55133 1.68869e-19)
(-1.78887 3.08157 -6.42283e-19)
(-2.29922 3.40708 7.50402e-20)
(-1.64032 3.05406 5.69052e-20)
(-1.95704 3.15069 4.78299e-20)
(-1.48415 2.97602 1.96098e-20)
(-1.56599 2.7906 2.69981e-21)
(-1.30724 2.83497 -2.38626e-19)
(-1.15976 2.36964 3.67924e-20)
(-1.09356 2.61149 1.80113e-19)
(-0.786055 1.95159 1.698e-20)
(-0.859396 2.30799 1.10907e-19)
(-0.524961 1.91534 -1.50884e-20)
(-0.443641 1.72416 3.62899e-19)
(-1.62473 2.22804 5.34561e-19)
(0.382338 1.43937 1.93649e-19)
(-1.41454 2.30942 -1.00367e-18)
(0.392196 1.53376 -3.81519e-19)
(-1.23653 2.37673 4.44936e-19)
(0.405282 1.48308 -2.77035e-19)
(-1.09651 2.43181 -1.05229e-19)
(0.410208 1.45383 5.12087e-19)
(-0.999831 2.4789 -3.61798e-19)
(0.411199 1.43979 -2.06826e-19)
(-0.947698 2.53092 1.56536e-20)
(0.390693 1.42999 1.3237e-20)
(-0.920936 2.58792 -4.18405e-21)
(0.35036 1.42741 -1.38598e-19)
(-0.883833 2.61819 -6.79516e-23)
(0.314097 1.43849 1.1017e-19)
(-0.800591 2.56998 2.44467e-20)
(0.307814 1.45363 -3.60313e-20)
(-0.657154 2.39881 -3.51816e-19)
(0.335554 1.44696 1.28883e-19)
(0.402279 1.37262 -1.10647e-19)
(-0.428858 2.19748 5.68603e-20)
(-1.68145 3.57343 1.41479e-19)
(-2.11705 0.960237 -3.59751e-18)
(-0.484863 2.6962 1.73862e-19)
(-1.34142 1.50064 2.09271e-18)
(0.319547 2.16371 -1.952e-19)
(-0.470217 1.71355 0)
(0.824738 1.76781 -2.41203e-19)
(0.217896 1.64207 3.33274e-19)
(1.15469 1.446 -1.43327e-19)
(0.699751 1.4322 0)
(1.37776 1.18442 -3.63193e-19)
(1.04411 1.21028 -5.12217e-19)
(1.53648 0.972848 -1.72092e-19)
(1.2907 1.00831 -3.61744e-19)
(1.65735 0.802619 1.19356e-19)
(1.47122 0.834845 6.8474e-20)
(1.75685 0.666762 -4.27275e-20)
(1.61052 0.691395 -2.39596e-19)
(1.84556 0.558659 6.18772e-20)
(1.72279 0.576659 -8.13191e-20)
(1.81269 0.491285 3.23112e-19)
(1.92914 0.474188 1.81316e-19)
(-1.86836 -0.135522 -2.29987e-18)
(-2.18932 -1.43192 -7.60422e-18)
(-1.42196 0.725748 2.00896e-18)
(-1.31574 -0.298628 3.39424e-18)
(-0.68646 1.12872 4.16185e-19)
(-1.02475 0.225333 1.41323e-18)
(0.0166217 1.22147 5.19345e-19)
(-0.436763 0.637152 -1.15325e-18)
(0.554687 1.13877 -2.99119e-19)
(0.107178 0.854629 -2.9062e-19)
(0.938816 1.00009 -5.14549e-19)
(0.570141 0.881106 -4.39311e-20)
(1.21094 0.851461 -1.32918e-19)
(0.929738 0.809543 -4.66634e-19)
(1.40974 0.71406 -1.23257e-19)
(1.19628 0.702388 2.89019e-19)
(1.56178 0.597032 -3.46039e-19)
(1.39648 0.595104 6.10597e-20)
(1.68513 0.500833 -1.06275e-19)
(1.54796 0.502039 -5.75341e-20)
(1.65814 0.427234 8.24072e-20)
(1.79233 0.416615 -1.71187e-19)
(-1.20542 -1.14481 -4.56327e-18)
(-1.52621 -2.0023 -3.86923e-18)
(-1.18331 -0.689026 2.95648e-18)
(-0.609627 -1.11537 -1.29457e-18)
(-0.882216 -0.188656 4.34987e-20)
(-0.829811 -0.834047 2.89232e-18)
(-0.453571 0.261746 -1.89536e-18)
(-0.529859 -0.314391 -2.85762e-18)
(0.0419958 0.549959 1.24278e-19)
(-0.184133 0.0990641 1.44512e-18)
(0.512202 0.655797 1.80564e-19)
(0.220728 0.340184 2.11373e-19)
(0.889679 0.645897 -1.04561e-19)
(0.602373 0.455921 -1.07851e-19)
(1.16981 0.58363 5.80067e-19)
(0.918171 0.477544 3.85105e-19)
(1.37495 0.507246 3.76243e-19)
(1.16779 0.448481 2.90291e-19)
(1.52916 0.435554 1.12782e-19)
(1.35898 0.401139 1.11388e-19)
(1.49537 0.355676 2.35313e-20)
(1.64716 0.370483 6.04252e-20)
(-0.433418 -1.53517 -9.29626e-19)
(-0.782711 -2.09839 2.8404e-19)
(-0.505564 -1.29438 -4.79376e-19)
(0.149977 -1.42941 -2.78169e-18)
(-0.494898 -0.897658 5.01078e-19)
(-0.323438 -1.3661 6.75806e-19)
(-0.363395 -0.480389 2.85345e-19)
(-0.200321 -0.902346 1.44765e-19)
(-0.0860744 -0.117122 1.58681e-18)
(-0.0781807 -0.514543 1.07722e-18)
(0.249347 0.134996 -6.64808e-20)
(0.167137 -0.177256 1.06449e-19)
(0.590353 0.275797 3.30383e-19)
(0.455115 0.0484741 1.48074e-19)
(0.88985 0.330878 7.43684e-20)
(0.739097 0.179083 -2.51741e-20)
(1.1345 0.333781 -5.63049e-21)
(0.98978 0.235068 -3.64756e-19)
(1.32889 0.312905 -3.5538e-21)
(1.19595 0.246707 3.26639e-20)
(1.34585 0.235079 -7.68385e-21)
(1.48754 0.276898 2.46102e-19)
(0.178487 -1.67231 2.31667e-21)
(-0.173136 -2.03678 -3.52278e-20)
(0.141091 -1.57073 -7.8025e-19)
(0.725467 -1.51395 -2.14864e-20)
(0.040056 -1.27811 -1.67802e-20)
(0.203028 -1.58549 -8.62044e-19)
(0.0174834 -0.933002 9.20246e-19)
(0.256048 -1.20671 1.13846e-18)
(0.116809 -0.585139 -3.99926e-19)
(0.234121 -0.908701 -3.16767e-19)
(0.308654 -0.2863 2.36749e-19)
(0.343459 -0.582463 3.46391e-19)
(0.550982 -0.0706269 -2.65709e-19)
(0.516795 -0.316758 -4.3134e-20)
(0.799319 0.0639171 -4.90361e-19)
(0.725334 -0.122662 -2.21882e-19)
(1.02409 0.134553 -3.89459e-19)
(0.932473 4.85146e-05 -8.58063e-20)
(1.21465 0.164661 -1.79147e-20)
(1.11649 0.0672668 -2.38774e-19)
(1.25567 0.0991531 1.73852e-20)
(1.36828 0.170743 3.31218e-19)
(0.624062 -1.66107 -5.82256e-20)
(0.286565 -1.89382 8.7565e-20)
(0.641377 -1.64955 8.10543e-19)
(1.11889 -1.49984 -5.95573e-20)
(0.515804 -1.44251 -3.18218e-19)
(0.635452 -1.63775 1.34048e-20)
(0.430954 -1.18367 2.41598e-20)
(0.67379 -1.31789 -3.56752e-19)
(0.430283 -0.895508 3.55934e-19)
(0.576757 -1.11843 3.75511e-19)
(0.502984 -0.61268 7.92793e-21)
(0.603481 -0.833932 -6.68782e-20)
(0.643192 -0.373971 -5.13109e-20)
(0.67852 -0.583221 -2.7065e-19)
(0.816746 -0.193724 1.26798e-19)
(0.806113 -0.369715 2.33297e-19)
(0.993953 -0.0718581 4.32656e-20)
(0.953101 -0.210013 1.72505e-19)
(1.15464 0.00305071 -2.61242e-19)
(1.09664 -0.101342 -4.27578e-20)
(1.20849 -0.0361596 -6.72598e-20)
(1.29214 0.0464054 -7.16224e-19)
(0.941626 -1.5707 8.94489e-20)
(0.625253 -1.70636 1.22475e-20)
(1.00623 -1.61979 -4.20404e-20)
(1.38088 -1.4434 6.69996e-19)
(0.889302 -1.47177 1.93262e-20)
(0.967648 -1.61315 -3.72696e-19)
(0.788438 -1.28329 -7.39962e-20)
(1.00922 -1.31915 7.01215e-20)
(0.743251 -1.06067 3.3371e-20)
(0.876049 -1.20777 7.46084e-20)
(0.744407 -0.816397 -3.2319e-19)
(0.869859 -0.96604 -1.13034e-19)
(0.804323 -0.58879 2.83245e-20)
(0.876937 -0.750188 -3.06632e-19)
(0.904793 -0.395556 2.69373e-19)
(0.938248 -0.544463 4.0663e-19)
(1.02472 -0.246279 6.18777e-20)
(1.0268 -0.373435 -1.20425e-19)
(1.14441 -0.138544 1.37279e-19)
(1.12561 -0.242311 -8.04602e-20)
(1.20621 -0.153396 1.884e-19)
(1.24911 -0.057768 0)
(1.16577 -1.46668 5.51948e-19)
(0.892411 -1.54207 -2.58299e-19)
(1.26845 -1.54938 9.51824e-19)
(1.56229 -1.3825 7.11698e-19)
(1.17048 -1.44098 -3.92214e-19)
(1.21665 -1.55786 -1.53889e-19)
(1.08516 -1.28663 2.84327e-20)
(1.2816 -1.29208 -4.88552e-19)
(1.01785 -1.11915 -1.68563e-20)
(1.11827 -1.21873 1.94614e-21)
(0.980819 -0.920722 -9.6454e-20)
(1.10419 -1.01497 -3.8595e-22)
(0.987243 -0.720613 8.60969e-20)
(1.07233 -0.837626 -2.68661e-20)
(1.03076 -0.536005 4.37608e-21)
(1.08763 -0.65239 8.30874e-20)
(1.09998 -0.380329 -2.3977e-19)
(1.12913 -0.487115 -7.7721e-20)
(1.18087 -0.257481 -5.25925e-20)
(1.1883 -0.350156 -2.11488e-19)
(1.23988 -0.24934 1.25097e-19)
(1.25715 -0.158135 4.66975e-20)
(1.34098 -1.37283 -2.01797e-19)
(1.10199 -1.39053 -1.14253e-18)
(1.47279 -1.46187 2.05332e-19)
(1.72666 -1.33639 1.42986e-19)
(1.37612 -1.39056 -3.76066e-19)
(1.39534 -1.45853 1.14916e-18)
(1.30662 -1.26663 -5.69156e-19)
(1.49475 -1.2473 -4.32901e-19)
(1.23606 -1.12394 1.50786e-20)
(1.32477 -1.19763 8.42298e-20)
(1.18637 -0.959969 1.8669e-20)
(1.30174 -1.02054 -1.64937e-19)
(1.1623 -0.788144 -2.2939e-20)
(1.24778 -0.872121 0)
(1.16664 -0.621161 -2.85544e-20)
(1.23325 -0.708536 -1.29555e-19)
(1.19547 -0.471514 -3.45485e-20)
(1.23987 -0.556604 0)
(1.23936 -0.345693 -4.43133e-20)
(1.26627 -0.422704 -5.36691e-21)
(1.29147 -0.31851 -6.4379e-21)
(1.28051 -0.231616 -5.51503e-20)
(1.48984 -1.28473 -6.8634e-19)
(1.24928 -1.25924 -2.55732e-18)
(1.63221 -1.38777 6.37571e-19)
(1.8745 -1.26422 1.50515e-18)
(1.55535 -1.30911 1.04075e-18)
(1.56649 -1.3814 6.80107e-19)
(1.49438 -1.21676 1.77133e-19)
(1.65326 -1.18472 9.21258e-20)
(1.41779 -1.09614 -1.46858e-19)
(1.49668 -1.14755 4.12058e-19)
(1.3602 -0.958876 -2.01809e-19)
(1.46714 -0.996013 -4.00687e-19)
(1.31784 -0.811124 -9.27284e-20)
(1.40003 -0.871268 2.085e-19)
(1.29633 -0.66326 -1.15295e-19)
(1.3658 -0.727421 -1.62401e-19)
(1.29559 -0.525558 2.98091e-20)
(1.34719 -0.591203 8.90403e-20)
(1.31173 -0.404652 3.64965e-20)
(1.34835 -0.466405 9.86785e-20)
(1.35359 -0.366955 3.38976e-20)
(1.32975 -0.288441 6.90117e-21)
(1.62417 -1.16644 -1.34049e-19)
(1.34289 -1.13905 -1.59725e-18)
(1.77806 -1.29613 1.33054e-18)
(1.97991 -1.16373 1.09551e-18)
(1.70017 -1.23009 -2.12542e-19)
(1.70692 -1.28397 -9.37999e-19)
(1.64587 -1.15201 2.88203e-19)
(1.78536 -1.11463 7.64462e-20)
(1.56926 -1.04775 1.59637e-19)
(1.6385 -1.08378 3.48558e-19)
(1.50677 -0.931334 -5.48406e-20)
(1.6048 -0.951292 2.49543e-19)
(1.45218 -0.803773 1.76868e-19)
(1.52956 -0.845991 2.09327e-19)
(1.41305 -0.673993 1.58559e-20)
(1.48202 -0.719703 1.37846e-19)
(1.39113 -0.55043 1.42654e-19)
(1.44491 -0.599664 1.20368e-19)
(1.38626 -0.439373 7.22337e-20)
(1.42678 -0.486992 2.07655e-19)
(1.41783 -0.394503 -4.25658e-20)
(1.38553 -0.331404 1.51502e-19)
(1.712 -1.06147 -2.30218e-19)
(1.41839 -1.03269 1.95073e-19)
(1.89058 -1.20113 -9.52313e-19)
(2.07236 -1.07006 -1.31186e-18)
(1.82242 -1.14382 -5.72631e-19)
(1.82077 -1.18867 2.92576e-19)
(1.7704 -1.07761 6.91434e-21)
(1.89453 -1.0342 7.68203e-20)
(1.69462 -0.986286 4.49556e-19)
(1.75493 -1.01114 2.2547e-20)
(1.62926 -0.885982 5.12642e-19)
(1.71874 -0.89269 9.63438e-19)
(1.56621 -0.77529 1.7466e-19)
(1.63781 -0.803491 -3.73122e-19)
(1.5144 -0.662019 2.4288e-19)
(1.5809 -0.692512 2.20823e-19)
(1.47651 -0.553145 1.64885e-19)
(1.52977 -0.588293 -8.79344e-20)
(1.45415 -0.454782 1.50826e-19)
(1.49559 -0.489049 1.15356e-20)
(1.47254 -0.408275 -1.63019e-19)
(1.43246 -0.354075 -3.50883e-19)
(1.78715 -0.954442 -7.37842e-19)
(1.48493 -0.923016 -7.71308e-19)
(1.98268 -1.10581 -4.95756e-19)
(2.15133 -0.966799 -1.05879e-18)
(1.92251 -1.05484 1.14374e-18)
(1.91678 -1.09342 1.24823e-18)
(1.87318 -0.99669 -1.12975e-20)
(1.98524 -0.948049 2.62363e-19)
(1.79779 -0.915654 4.39144e-19)
(1.8505 -0.931856 -6.3056e-19)
(1.7304 -0.828249 2.77145e-19)
(1.8122 -0.824469 5.33074e-19)
(1.66098 -0.73179 -3.88116e-19)
(1.72676 -0.748782 -7.13916e-19)
(1.59951 -0.633438 -7.23438e-20)
(1.66265 -0.651127 5.97037e-20)
(1.54889 -0.539132 -2.53291e-19)
(1.60033 -0.561781 -1.34396e-19)
(1.51287 -0.454294 -2.30942e-19)
(1.5532 -0.476702 -2.40154e-19)
(1.51504 -0.409196 -1.01146e-19)
(1.48448 -0.377876 9.84008e-20)
(1.84874 -0.831319 -1.08231e-18)
(1.51434 -0.79016 -9.83483e-19)
(2.05822 -1.00045 1.88263e-19)
(2.20096 -0.850846 9.56646e-19)
(2.00567 -0.96055 4.66561e-19)
(1.99448 -0.991393 -8.70813e-19)
(1.95759 -0.910429 -1.72619e-19)
(2.05682 -0.857889 4.11919e-19)
(1.88236 -0.838073 -6.05797e-19)
(1.92939 -0.845942 -6.22268e-19)
(1.81297 -0.761664 -2.67529e-19)
(1.88726 -0.749504 3.30852e-20)
(1.73828 -0.677489 -3.30502e-19)
(1.79884 -0.684491 1.47094e-20)
(1.66888 -0.592594 2.61955e-20)
(1.72822 -0.599176 -2.34229e-19)
(1.60745 -0.512173 -9.39735e-20)
(1.65656 -0.523328 1.38312e-19)
(1.55851 -0.441574 -1.25572e-19)
(1.59797 -0.4517 -8.32866e-20)
(1.5502 -0.397677 3.36263e-19)
(1.51326 -0.373453 -4.06235e-19)
(1.88239 -0.709867 8.60828e-19)
(1.54393 -0.665573 -1.54044e-18)
(2.11251 -0.892193 3.60117e-19)
(2.23287 -0.738152 1.32655e-18)
(2.07163 -0.862417 -1.0567e-18)
(2.05776 -0.885917 -1.98683e-19)
(2.02485 -0.819337 1.60501e-19)
(2.11092 -0.765759 -2.79057e-19)
(1.95033 -0.754257 0)
(1.99364 -0.753875 4.50145e-19)
(1.87847 -0.68731 3.17885e-19)
(1.94539 -0.669139 -4.17169e-19)
(1.79928 -0.613976 1.39248e-19)
(1.85554 -0.612044 7.58958e-19)
(1.72301 -0.541458 -1.67145e-19)
(1.77852 -0.538844 -2.72561e-19)
(1.65244 -0.473978 1.84003e-19)
(1.69915 -0.475271 1.51352e-19)
(1.59275 -0.416925 3.12901e-19)
(1.63022 -0.4169 -1.17153e-21)
(1.5721 -0.373717 2.307e-19)
(1.53905 -0.369515 1.01477e-20)
(1.90392 -0.588509 -8.93927e-19)
(1.56695 -0.538866 -2.18088e-18)
(2.15048 -0.781868 9.16102e-19)
(2.24921 -0.621575 1.44433e-18)
(2.12241 -0.761646 5.82485e-19)
(2.10911 -0.774809 1.80623e-18)
(2.07715 -0.724568 -1.46354e-19)
(2.15077 -0.670806 -1.14454e-18)
(2.00341 -0.665567 1.23693e-19)
(2.04446 -0.656685 1.49182e-19)
(1.9287 -0.606849 -1.19246e-19)
(1.98843 -0.583808 2.4631e-19)
(1.84539 -0.543386 4.46874e-19)
(1.89763 -0.533126 3.57625e-19)
(1.76288 -0.482494 0)
(1.81433 -0.471857 -5.08542e-19)
(1.68428 -0.427268 -1.0495e-20)
(1.72853 -0.419773 9.80077e-20)
(1.61497 -0.382649 -9.28355e-20)
(1.65077 -0.374157 -1.18284e-20)
(1.58321 -0.342551 -2.5695e-19)
(1.55256 -0.349046 2.38561e-19)
(1.91598 -0.45953 7.34112e-19)
(1.5716 -0.405012 -1.52918e-18)
(2.17478 -0.663737 2.01648e-18)
(2.24504 -0.495688 2.31557e-18)
(2.16002 -0.655338 2.29274e-19)
(2.14526 -0.654778 -2.59301e-20)
(2.1162 -0.624969 -1.06104e-18)
(2.17648 -0.57051 -6.09998e-19)
(2.04273 -0.57212 2.92965e-19)
(2.08148 -0.554132 4.64622e-20)
(1.96466 -0.521013 7.07115e-19)
(2.01725 -0.493312 7.34015e-19)
(1.87736 -0.467145 -5.07582e-19)
(1.92535 -0.448988 -4.32309e-20)
(1.78927 -0.417491 -4.88584e-19)
(1.83631 -0.399695 -7.36609e-19)
(1.70389 -0.374065 1.09077e-19)
(1.74536 -0.358915 3.50957e-19)
(1.62623 -0.340703 -1.09746e-19)
(1.66076 -0.325215 0)
(1.58321 -0.305054 -1.793e-19)
(1.55698 -0.321769 -4.06794e-19)
(1.9111 -0.324402 6.54047e-19)
(1.56446 -0.267729 -2.56832e-18)
(2.18156 -0.536709 5.20353e-19)
(2.2215 -0.361177 3.71842e-18)
(2.18257 -0.541614 -8.09021e-19)
(2.16389 -0.524888 -9.92695e-19)
(2.14139 -0.519044 3.67537e-19)
(2.187 -0.462698 -5.34646e-19)
(2.06806 -0.473391 4.46046e-19)
(2.10298 -0.445684 7.31094e-19)
(1.9864 -0.430181 8.11467e-20)
(2.03128 -0.397396 -4.98513e-19)
(1.89538 -0.386442 -2.02563e-19)
(1.93817 -0.360783 2.11919e-19)