/*--------------------------------*- C++ -*----------------------------------*\
| =========                 |                                                 |
| \\      /  F ield         | OpenFOAM: The Open Source CFD Toolbox           |
|  \\    /   O peration     | Version:  3.0.1                                 |
|   \\  /    A nd           | Web:      www.OpenFOAM.org                      |
|    \\/     M anipulation  |                                                 |
\*---------------------------------------------------------------------------*/
FoamFile
{
    version     2.0;
    format      ascii;
    class       volScalarField;
    location    "0.617845";
    object      nut;
}
// * * * * * * * * * * * * * * * * * * * * * * * * * * * * * * * * * * * * * //

dimensions      [0 2 -1 0 0 0 0];

internalField   nonuniform List<scalar> 
21246
(
5.72566e-05
0.000292538
0.000348648
0.00037948
0.000415741
0.000449706
0.000472584
0.000477247
0.000452422
0.000397053
0.000339022
3.58679e-05
0.000241561
0.000339817
0.000384857
0.000421116
0.000452002
0.000470584
0.000472999
0.000449884
0.000395532
0.000335423
3.08085e-05
0.000188955
0.000322789
0.000406536
0.00044598
0.000465758
0.000474779
0.000472428
0.000452179
0.000405149
0.000342999
3.07514e-05
0.000165122
0.0002922
0.000390162
0.000439812
0.000464853
0.000477752
0.000479367
0.000462204
0.000416137
0.000352603
3.19067e-05
0.000149349
0.000268344
0.00036518
0.000419394
0.000454555
0.000477285
0.000485704
0.000471054
0.000424373
0.000357989
3.31555e-05
0.000136815
0.000248615
0.000340618
0.000396054
0.000437898
0.000469119
0.000485249
0.000475279
0.000430791
0.000365648
3.4462e-05
0.000126877
0.000231814
0.000317467
0.000372801
0.000418292
0.000455888
0.000479302
0.000475065
0.000433779
0.000369398
3.58567e-05
0.000119034
0.00021769
0.00029741
0.000351551
0.0003986
0.000440389
0.000469585
0.000470861
0.000434231
0.000375383
3.7115e-05
0.000112498
0.000205693
0.000280409
0.000332954
0.000380445
0.000424911
0.000458632
0.000465214
0.000433718
0.000378519
3.8131e-05
0.000106422
0.000195007
0.000265885
0.000316976
0.000364496
0.000410785
0.000448138
0.000459439
0.000432265
0.000378817
3.90426e-05
0.000100786
0.000185354
0.000253276
0.000303177
0.000350623
0.000398313
0.0004387
0.000453955
0.000430227
0.000380359
3.9787e-05
9.58445e-05
0.000176787
0.000242259
0.000291162
0.000338524
0.000387388
0.000430482
0.000449294
0.000428671
0.00038138
4.02444e-05
9.11937e-05
0.000168955
0.000232557
0.000280736
0.000328101
0.000378038
0.000423692
0.000445889
0.000427985
0.000382276
4.04986e-05
8.64413e-05
0.000161377
0.000223815
0.000271663
0.000319203
0.000370208
0.000418426
0.00044397
0.000428328
0.000384004
4.03983e-05
8.18054e-05
0.000154074
0.000215751
0.000263551
0.000311416
0.000363482
0.000414358
0.000443513
0.000430054
0.000386507
3.98739e-05
7.62182e-05
0.000145254
0.000206404
0.000254189
0.00030218
0.000355271
0.000409601
0.000443779
0.000433278
0.000390708
3.8987e-05
6.9071e-05
0.000132883
0.000192907
0.000239536
0.00028476
0.000334518
0.000388467
0.00042881
0.000428453
0.000393611
3.75291e-05
6.15377e-05
0.000118172
0.000175693
0.000220282
0.000260649
0.000302933
0.000350547
0.000393129
0.000406937
0.000389524
3.54733e-05
5.37428e-05
0.000101444
0.000154474
0.000196397
0.000231155
0.000263751
0.000299557
0.000336324
0.000360411
0.000366265
3.27802e-05
4.57965e-05
8.34016e-05
0.000129484
0.000167869
0.000197471
0.000220979
0.00024333
0.00026694
0.000288811
0.000309196
2.93645e-05
3.7867e-05
6.53044e-05
0.000102142
0.00013545
0.000160644
0.0001777
0.000189638
0.000199665
0.000209627
0.000224244
2.51727e-05
3.02571e-05
4.87239e-05
7.52218e-05
0.000101502
0.000122252
0.00013551
0.000142138
0.000144241
0.000144105
0.00014549
2.00897e-05
2.27636e-05
3.41286e-05
5.10304e-05
6.9157e-05
8.46822e-05
9.52685e-05
0.00010036
0.000100624
9.74058e-05
9.27641e-05
1.42409e-05
2.14082e-05
2.84303e-05
3.73709e-05
4.67842e-05
5.51537e-05
6.13815e-05
6.48465e-05
6.53806e-05
6.32476e-05
5.91801e-05
5.45423e-05
0.000287634
0.000316036
0.000409443
0.000459108
0.000483803
0.0005073
0.000510335
0.000478208
0.000414887
0.000350665
4.08403e-05
0.000183436
0.0001972
0.000262515
0.000415244
0.000493499
0.000530631
0.000541543
0.000513342
0.000446181
0.000370743
3.85e-05
0.000135413
0.000168373
0.00021673
0.000329884
0.000483948
0.000554142
0.000575532
0.000552067
0.000484707
0.000400636
3.90225e-05
0.000115608
0.000154389
0.000196723
0.000297519
0.000474831
0.000577002
0.000612598
0.000594357
0.000528371
0.000438956
3.97034e-05
0.000110872
0.000147039
0.000185284
0.000282792
0.000466555
0.000593104
0.000646167
0.000635017
0.000568077
0.000467582
3.98759e-05
0.000114134
0.000143958
0.000177882
0.000273169
0.000457874
0.000601155
0.000671762
0.000669864
0.000601898
0.00049134
3.99384e-05
0.000120775
0.000143743
0.000172907
0.000264624
0.000446559
0.000602755
0.000688556
0.000696107
0.000624461
0.000496221
4.02637e-05
0.000129472
0.000145855
0.000170009
0.000257322
0.000431841
0.000598792
0.000697817
0.000713784
0.000637033
0.000488221
4.07068e-05
0.000139077
0.000149676
0.000168518
0.000250199
0.000414373
0.000583296
0.000695238
0.000723375
0.000641111
0.000474897
4.11881e-05
0.000148811
0.00015474
0.000167987
0.000242502
0.000394029
0.000558636
0.000674598
0.000707283
0.000625246
0.000452501
4.14917e-05
0.000157217
0.000160597
0.00016794
0.000233231
0.000369752
0.000525355
0.000639069
0.000670813
0.000587901
0.00042088
4.1624e-05
0.000164972
0.000167168
0.000168548
0.000223527
0.000343657
0.000486506
0.000593506
0.000621476
0.000538439
0.000383932
4.14684e-05
0.000172165
0.000174089
0.000169722
0.000213568
0.000316163
0.000443332
0.000540888
0.000564522
0.000484818
0.000346276
4.09065e-05
0.000177126
0.000180783
0.000171379
0.000203416
0.000287577
0.00039688
0.000483299
0.00050354
0.00043177
0.000310681
3.98633e-05
0.000180375
0.000187015
0.000173669
0.000194173
0.000259923
0.000350026
0.000423968
0.000441784
0.000381523
0.000279064
3.82892e-05
0.000181283
0.000192328
0.000176505
0.000186175
0.00023412
0.000304629
0.00036513
0.000381084
0.00033429
0.000250892
3.61298e-05
0.000179147
0.000196049
0.000179719
0.000179818
0.000211197
0.000262594
0.000309058
0.000322808
0.000289295
0.000224833
3.33202e-05
0.000173904
0.000197462
0.000182965
0.000175513
0.000192281
0.000225967
0.000258288
0.000268622
0.000246047
0.000198998
2.98251e-05
0.000165223
0.000195602
0.000185496
0.000173408
0.000178303
0.000196492
0.00021523
0.000220542
0.000205104
0.00017225
2.58406e-05
0.0001545
0.000189954
0.000186505
0.000173548
0.000170134
0.000175691
0.000182115
0.000181106
0.000168546
0.000145415
2.1189e-05
0.000136273
0.000178383
0.000183838
0.000174804
0.000167689
0.000164156
0.000160335
0.00015258
0.00013944
0.000121109
1.97357e-05
0.00012505
0.000166122
0.000174775
0.000168371
0.000159777
0.000150849
0.000140848
0.00012902
0.000112853
9.3351e-05
1.38504e-05
9.14694e-05
0.000116393
0.000103485
9.06849e-05
7.91197e-05
6.86504e-05
5.8847e-05
4.94619e-05
4.16763e-05
3.51574e-05
9.86559e-06
1.12592e-05
1.16279e-05
1.25792e-05
1.40343e-05
1.58182e-05
1.77449e-05
1.95768e-05
2.10637e-05
2.19909e-05
2.22151e-05
3.64163e-05
0.000135581
0.000137367
0.000151102
0.000145902
0.000125516
9.92405e-05
8.10408e-05
6.95087e-05
6.08586e-05
5.32807e-05
3.02007e-05
0.000108216
9.75456e-05
0.000133146
0.000151841
0.000133659
0.000102337
7.95308e-05
6.58165e-05
5.59974e-05
4.754e-05
2.9361e-05
8.68544e-05
8.74771e-05
0.000105455
0.000138486
0.000141578
0.000108731
8.08867e-05
6.44908e-05
5.3508e-05
4.47112e-05
3.03281e-05
7.4776e-05
8.32487e-05
9.50321e-05
0.000122759
0.000146696
0.000116427
8.41868e-05
6.49656e-05
5.27952e-05
4.36805e-05
3.13233e-05
6.94922e-05
8.04835e-05
8.90175e-05
0.000112559
0.000144981
0.000124158
8.87926e-05
6.67946e-05
5.34305e-05
4.41262e-05
3.16816e-05
6.76691e-05
7.84581e-05
8.44682e-05
0.00010335
0.00013542
0.000130034
9.43692e-05
6.96479e-05
5.50127e-05
4.53414e-05
3.15406e-05
6.80248e-05
7.73796e-05
8.12319e-05
9.52293e-05
0.000122123
0.000129204
0.000100734
7.33356e-05
5.7297e-05
4.70704e-05
3.10576e-05
7.02863e-05
7.76034e-05
7.9454e-05
8.90498e-05
0.000109667
0.00012256
0.000105278
7.8247e-05
6.03467e-05
4.92995e-05
3.02013e-05
7.35897e-05
7.91482e-05
7.89044e-05
8.44893e-05
9.91194e-05
0.000112711
0.000106116
8.3335e-05
6.41609e-05
5.21061e-05
2.9019e-05
7.74153e-05
8.19488e-05
7.94364e-05
8.11486e-05
9.0241e-05
0.000101487
0.000102313
8.73306e-05
6.85545e-05
5.54064e-05
2.77214e-05
8.20611e-05
8.62495e-05
8.13068e-05
7.93017e-05
8.3565e-05
9.11819e-05
9.50227e-05
8.85401e-05
7.30519e-05
5.92105e-05
2.64805e-05
8.81854e-05
9.2456e-05
8.48089e-05
7.9171e-05
7.93018e-05
8.3223e-05
8.68186e-05
8.62168e-05
7.66162e-05
6.34287e-05
2.54497e-05
9.55435e-05
0.000100754
9.01841e-05
8.07282e-05
7.70241e-05
7.74737e-05
7.92515e-05
8.10054e-05
7.78319e-05
6.76213e-05
2.47718e-05
0.00010358
0.000111233
9.78586e-05
8.42058e-05
7.65794e-05
7.3687e-05
7.30591e-05
7.44489e-05
7.56839e-05
7.0705e-05
2.45568e-05
0.000113642
0.000124546
0.000108446
9.00665e-05
7.8211e-05
7.19961e-05
6.88312e-05
6.84143e-05
7.07869e-05
7.11655e-05
2.48107e-05
0.000125649
0.000141018
0.000122813
9.90569e-05
8.22722e-05
7.2417e-05
6.65982e-05
6.38628e-05
6.49164e-05
6.80997e-05
2.51335e-05
0.000137689
0.000160117
0.000141963
0.000112502
8.96707e-05
7.53771e-05
6.65153e-05
6.12444e-05
5.9823e-05
6.24989e-05
2.47726e-05
0.000148674
0.000180517
0.000166316
0.000132068
0.000101979
8.1966e-05
6.92433e-05
6.10775e-05
5.67793e-05
5.68239e-05
2.36029e-05
0.000156075
0.000199176
0.000194328
0.000159228
0.000121666
9.4319e-05
7.62953e-05
6.43569e-05
5.67886e-05
5.33822e-05
2.16256e-05
0.000157663
0.000212314
0.000221469
0.000193475
0.000151781
0.000116312
9.10211e-05
7.3584e-05
6.16931e-05
5.42548e-05
1.89318e-05
0.000150284
0.00021678
0.00024232
0.000230914
0.000194435
0.000153854
0.00012007
9.46369e-05
7.61846e-05
6.32368e-05
1.64597e-05
0.000136939
0.000211318
0.00025255
0.000261281
0.000242645
0.000208243
0.00017074
0.000137269
0.000110213
8.93035e-05
1.25242e-05
0.000106566
0.000155903
0.000199047
0.000224683
0.000236851
0.000233644
0.000216589
0.000191651
0.000165256
0.000140258
1.00119e-05
3.98617e-05
5.71021e-05
8.0175e-05
0.000105302
0.000131615
0.000156069
0.000171762
0.000177952
0.000176377
0.000168297
3.07142e-05
0.000125991
0.000136152
0.000142069
0.000141086
0.00012476
0.000102938
8.68389e-05
7.60713e-05
6.77241e-05
6.01055e-05
2.04534e-05
0.000102844
0.000136044
0.000152135
0.000152337
0.000137804
0.000115985
9.86048e-05
8.71947e-05
7.88619e-05
7.15764e-05
2.03388e-05
8.93476e-05
0.0001314
0.000171174
0.000174935
0.000159726
0.000134767
0.000113499
0.000100187
9.15103e-05
8.47185e-05
2.24607e-05
8.1871e-05
0.000125453
0.000180633
0.000195252
0.000185343
0.00015996
0.000133756
0.00011592
0.000104868
9.71981e-05
2.52004e-05
7.59009e-05
0.000122971
0.000181835
0.000199974
0.000194639
0.000172258
0.000147487
0.000129725
0.000118643
0.000111065
2.7854e-05
7.14775e-05
0.000121367
0.000179346
0.00020029
0.000200129
0.000181028
0.000157787
0.000140917
0.000130931
0.000125079
3.02967e-05
6.82695e-05
0.000119912
0.000175721
0.000198785
0.00020299
0.000187116
0.000165973
0.000150181
0.000141113
0.000136414
3.25797e-05
6.59534e-05
0.000118531
0.000172194
0.00019705
0.000204789
0.00019166
0.000172449
0.000157583
0.00014913
0.000144968
3.45353e-05
6.42186e-05
0.000117166
0.000169158
0.000195892
0.00020632
0.000195709
0.000178206
0.000164202
0.000156577
0.000153845
3.61458e-05
6.27425e-05
0.000115915
0.000166694
0.000195525
0.000208025
0.000199719
0.000183567
0.000170163
0.000163096
0.000161089
3.73954e-05
6.13051e-05
0.00011452
0.000164819
0.000195671
0.000210182
0.000203967
0.000188765
0.000175573
0.000168656
0.000166765
3.83793e-05
5.98619e-05
0.000112964
0.000163298
0.000196121
0.000212767
0.000208555
0.000193998
0.000180627
0.000173537
0.000171849
3.90266e-05
5.82537e-05
0.000111117
0.00016187
0.000196726
0.000215764
0.000213632
0.000199516
0.000185546
0.000177871
0.000176141
3.92649e-05
5.50973e-05
0.000107013
0.000158582
0.000195862
0.000218057
0.000218948
0.000205626
0.000190666
0.000181894
0.000179427
3.90135e-05
5.13394e-05
0.000100216
0.000151545
0.000190213
0.000215189
0.000220568
0.00021062
0.000196175
0.000186348
0.00018266
3.82398e-05
4.71544e-05
9.08652e-05
0.00014056
0.000179727
0.000206627
0.000216962
0.000212714
0.00020129
0.000191427
0.000186519
3.69372e-05
4.26896e-05
7.94667e-05
0.000125549
0.000164254
0.000192132
0.000206762
0.000209195
0.000203642
0.000196251
0.000191257
3.50156e-05
3.82573e-05
6.72239e-05
0.000107381
0.000144132
0.000172011
0.000189485
0.000197605
0.00019917
0.000197452
0.000195348
3.24287e-05
3.39228e-05
5.52246e-05
8.75639e-05
0.000120249
0.00014684
0.000165527
0.000177137
0.000184197
0.00018904
0.000193041
2.91376e-05
2.96004e-05
4.41256e-05
6.78523e-05
9.42736e-05
0.00011777
0.00013595
0.000148863
0.000158403
0.000166884
0.000175973
2.51016e-05
2.51264e-05
3.42717e-05
4.98913e-05
6.87281e-05
8.71254e-05
0.000102819
0.000115135
0.000124837
0.000133521
0.000142955
2.0323e-05
2.03161e-05
2.5607e-05
3.465e-05
4.61019e-05
5.82127e-05
6.95675e-05
7.93942e-05
8.76556e-05
9.49299e-05
0.000102219
1.48303e-05
1.46423e-05
1.73039e-05
2.16622e-05
2.72589e-05
3.34972e-05
3.98051e-05
4.57763e-05
5.12193e-05
5.61804e-05
6.09663e-05
8.953e-06
9.49761e-06
1.16021e-05
1.42735e-05
1.73963e-05
2.07981e-05
2.4384e-05
2.95922e-05
3.67324e-05
4.62051e-05
5.81607e-05
2.50355e-05
0.00012085
0.0001903
0.000257486
0.000296103
0.000313307
0.000339087
0.000399217
0.000484184
0.000571161
0.000615539
1.83344e-05
7.83141e-05
0.000139162
0.000203921
0.000253815
0.000283736
0.000317838
0.000384407
0.000452532
0.00051355
0.000533705
1.50383e-05
6.13784e-05
0.000113879
0.00017096
0.00022186
0.000258969
0.000293851
0.000349738
0.00042235
0.000466505
0.000464331
1.34304e-05
5.80701e-05
0.000103146
0.000153218
0.000201455
0.000241096
0.000276563
0.00032286
0.000386528
0.000430834
0.0004205
1.31411e-05
5.7918e-05
9.95297e-05
0.000144835
0.000189644
0.000229284
0.000265214
0.000306266
0.000358921
0.000399544
0.000392581
1.32189e-05
5.81054e-05
9.84886e-05
0.00014098
0.000183704
0.00022266
0.000259061
0.000297724
0.000341927
0.000375813
0.00037211
1.32744e-05
5.80376e-05
9.93841e-05
0.00014023
0.000182622
0.000221438
0.000258631
0.000296003
0.000333373
0.000359916
0.000357347
1.34324e-05
5.82185e-05
0.000101625
0.000143065
0.000186439
0.000226046
0.000263934
0.000299239
0.000329774
0.000349454
0.000346852
1.3557e-05
5.81894e-05
0.000104872
0.000149202
0.000194082
0.000234868
0.000272304
0.000303748
0.000327564
0.00034222
0.000340388
1.36028e-05
5.82445e-05
0.000108831
0.000156185
0.000202505
0.000243979
0.000279479
0.000306345
0.000325116
0.000337364
0.000337475
1.36653e-05
5.81599e-05
0.000111827
0.000161658
0.000209183
0.000250569
0.00028375
0.000307196
0.000323303
0.000335099
0.000337454
1.37214e-05
5.8483e-05
0.000114355
0.000165864
0.000214061
0.000255042
0.000286631
0.000308348
0.000323497
0.000335785
0.000340563
1.37016e-05
5.89417e-05
0.000116387
0.000169094
0.000217782
0.00025863
0.000289622
0.000310839
0.000325873
0.000338856
0.000345678
1.35945e-05
5.89167e-05
0.000117468
0.000171268
0.000220634
0.000261877
0.000293103
0.000314551
0.000329815
0.000343393
0.000351887
1.33684e-05
5.90368e-05
0.000118289
0.00017296
0.000223127
0.000265154
0.000297159
0.000319295
0.000334934
0.000348852
0.000358705
1.30102e-05
5.88416e-05
0.000118372
0.000173737
0.000224828
0.000267995
0.000301251
0.000324445
0.00034049
0.000354289
0.000364935
1.25205e-05
5.76371e-05
0.000116808
0.000172664
0.000224838
0.000269573
0.000304614
0.000329239
0.00034561
0.000358663
0.000369583
1.18321e-05
5.56566e-05
0.000113646
0.000169472
0.0002227
0.000269348
0.000306673
0.000333047
0.000349501
0.000360848
0.000370738
1.09326e-05
5.26469e-05
0.000108475
0.00016357
0.000217661
0.000266408
0.000306334
0.000334591
0.000350706
0.000359024
0.000365419
9.80576e-06
4.8551e-05
0.000101102
0.000154464
0.000208506
0.000258569
0.000300707
0.000330781
0.00034648
0.000351039
0.000351889
8.38403e-06
4.25916e-05
9.19852e-05
0.000140899
0.000189259
0.000235715
0.000278764
0.000312236
0.0003302
0.000333314
0.000328862
7.20337e-06
4.56549e-05
7.69273e-05
9.21953e-05
0.000114633
0.000151407
0.000203504
0.000252651
0.00028421
0.000296884
0.000294572
5.60166e-06
1.52e-05
2.94396e-05
5.12503e-05
7.67768e-05
9.90253e-05
0.000115414
0.000140357
0.000182806
0.000221038
0.000240567
9.09331e-06
2.39862e-05
5.19155e-05
9.28506e-05
0.00013658
0.00016874
0.00017664
0.000156791
0.000134684
0.000141204
0.000164673
2.35798e-05
0.000162575
0.000252859
0.000303424
0.000316677
0.000313582
0.000335297
0.000406845
0.000516207
0.00063555
0.000706097
1.40519e-05
0.000105507
0.000210512
0.000285784
0.000320325
0.00032103
0.000330658
0.000402526
0.000535243
0.000696993
0.000815276
1.19591e-05
6.25885e-05
0.000158751
0.000253081
0.000315882
0.000331
0.000320234
0.000370084
0.000519166
0.000732097
0.000926559
1.31833e-05
5.24715e-05
0.000132173
0.000229451
0.000313169
0.000352782
0.000325693
0.000298603
0.000420151
0.00068238
0.000976352
1.51781e-05
5.83203e-05
0.000135473
0.000229555
0.000321383
0.000384387
0.00038393
0.000315699
0.000290263
0.000461446
0.000834402
1.72903e-05
6.82977e-05
0.000149943
0.000243545
0.000338127
0.000416889
0.000447227
0.000395997
0.000311044
0.00031542
0.000601696
1.93884e-05
8.02482e-05
0.000168782
0.00026278
0.000356532
0.000443142
0.000498138
0.000476891
0.00038177
0.000301213
0.000395786
2.14852e-05
9.30002e-05
0.000189136
0.00028327
0.000372971
0.000459436
0.000530066
0.000546028
0.000464031
0.000346582
0.000312592
2.34274e-05
0.000106589
0.000210334
0.000303946
0.000387202
0.000466228
0.000540666
0.000584624
0.000534416
0.000409751
0.00031393
2.51626e-05
0.000120759
0.000231262
0.000323578
0.000399261
0.000466148
0.000533999
0.000593616
0.000581799
0.000470298
0.000343959
2.66575e-05
0.000134089
0.000250425
0.000341231
0.000409129
0.000462293
0.00051741
0.000581795
0.000604455
0.000517483
0.000379783
2.80028e-05
0.000145883
0.000268389
0.000355862
0.000415985
0.000456532
0.000497644
0.000557281
0.000607319
0.0005487
0.000411543
2.91257e-05
0.000156546
0.000282736
0.00036725
0.000419651
0.000449796
0.00047867
0.000524389
0.000580662
0.000566382
0.000433942
2.99637e-05
0.000166639
0.000295526
0.000376293
0.000420612
0.000440819
0.000459021
0.000491623
0.000533772
0.000546824
0.000451048
3.04387e-05
0.000175752
0.000306809
0.000383591
0.000419738
0.000430025
0.000437287
0.000456923
0.000484901
0.000499823
0.000458013
3.05464e-05
0.000184391
0.000317568
0.000390406
0.000418485
0.000419039
0.000415377
0.000422901
0.000439436
0.000452598
0.000440279
3.02633e-05
0.000192761
0.000328681
0.000398327
0.000418967
0.000410468
0.000396258
0.000392086
0.000396877
0.00040508
0.00040161
2.94886e-05
0.000201026
0.000341467
0.000410095
0.000425042
0.000408841
0.000384734
0.000369382
0.000365637
0.000366683
0.00036279
2.81239e-05
0.00021017
0.000358003
0.000429159
0.000440734
0.000418473
0.000388104
0.000366204
0.000355166
0.000349327
0.000341855
2.55913e-05
0.000210411
0.000357954
0.000432934
0.000449157
0.000426653
0.000391467
0.000364236
0.000350838
0.000347199
0.000346508
2.13375e-05
0.000192376
0.000336369
0.000420608
0.000448049
0.000430328
0.000390571
0.000352914
0.000328067
0.000314843
0.000309927
1.67988e-05
0.000159797
0.000293462
0.000386431
0.000427417
0.00042135
0.000385147
0.000341382
0.000302481
0.000263601
0.000217122
1.20171e-05
0.000110112
0.000235258
0.000330958
0.000383173
0.000391562
0.000365601
0.000322332
0.00027469
0.000218075
0.000164439
7.85659e-06
9.17889e-05
0.000178245
0.00026317
0.00031131
0.000325332
0.0003087
0.000272551
0.000220285
0.000168956
0.00014505
1.54308e-05
1.56675e-05
1.53907e-05
1.53912e-05
1.53897e-05
1.5235e-05
1.49303e-05
1.43642e-05
1.31304e-05
0.000100802
0.000118392
0.000132952
0.000123717
0.000107838
8.80045e-05
6.37104e-05
4.15683e-05
2.81043e-05
0.000179433
0.000211575
0.000242985
0.000237715
0.00020923
0.000170608
0.000127752
8.30557e-05
5.31485e-05
0.000250843
0.000293113
0.000338247
0.000339065
0.000300396
0.000246904
0.000183585
0.000117956
7.42319e-05
1.4892e-05
1.41767e-05
1.30273e-05
1.07986e-05
7.26904e-06
6.55758e-06
6.19144e-06
6.36371e-06
1.05344e-05
8.34853e-05
5.87825e-05
3.8374e-05
2.60408e-05
2.37438e-05
2.68233e-05
2.54994e-05
2.00748e-05
2.07521e-05
0.000148817
0.00011058
7.34151e-05
4.65754e-05
3.58662e-05
3.96209e-05
3.74403e-05
2.99723e-05
3.56412e-05
0.0002066
0.000152059
0.000100224
6.41326e-05
4.81938e-05
5.3207e-05
5.25344e-05
4.26411e-05
5.01678e-05
0.000195797
0.000229697
0.000229747
9.66462e-05
0.000411667
0.000229385
9.30745e-05
0.000229445
0.000229392
0.000233496
0.000407907
0.000229483
0.000123127
0.000193379
0.000123905
0.000228709
0.000168679
0.000100043
0.0002287
0.000228629
0.000229732
2.89243e-05
0.000229962
0.000258895
0.000229356
0.000196251
0.000130721
9.16924e-05
0.000361687
0.00055825
0.000150388
0.000235794
0.000121309
0.000229433
0.000240862
0.000229656
0.000244858
0.000229343
0.000103884
0.000229412
1.78613e-05
0.000229467
0.000203823
0.000229936
0.000449275
5.47859e-05
5.24414e-05
0.000106004
0.000239826
0.000229119
0.000555691
0.000229415
0.000901494
0.000192794
0.000229081
0.000229519
2.88407e-05
0.000229435
0.000350356
0.000414978
2.22867e-05
0.000880349
0.000480081
0.000165911
2.4772e-05
0.000228598
0.000677323
0.00023039
0.000229696
0.000232941
0.000189154
0.000232575
6.44198e-05
0.000240018
0.000338526
0.000231231
2.46568e-05
0.000229676
0.000140559
0.000470024
0.000592059
0.000141647
0.000229293
0.000229785
0.000247471
6.53e-05
0.000347734
0.000788956
4.61768e-05
0.000264855
0.000229493
0.000229447
1.94242e-05
0.000231788
0.000463664
0.000146973
0.000312752
0.000236268
4.45355e-05
0.000235021
0.000251411
0.000105023
0.000229794
0.000236538
4.92879e-05
0.000229488
0.000180741
0.000229865
0.000110851
0.000236045
0.000229401
0.000229514
0.000230335
7.53293e-05
9.34523e-05
0.000229029
0.000229358
0.000228824
0.000229337
0.000229067
7.2214e-05
0.00023918
0.000248408
0.000192829
4.90124e-05
0.00020297
0.000567493
0.000174193
0.000161363
0.000130764
0.000229397
0.000397281
0.00010381
0.000231586
0.000229747
0.000230481
2.30578e-05
0.000107659
0.00054865
0.000244651
0.000237602
0.000231511
0.000240158
0.000167821
0.000229313
3.78041e-05
0.000109367
0.00023011
0.000235024
0.000229155
0.000229021
0.000229298
3.95439e-05
0.0002371
8.34982e-05
6.00221e-05
7.38263e-05
3.03788e-05
0.000168279
0.000228758
0.000217043
4.91001e-05
0.000232094
0.000229106
0.000688065
0.000113636
5.80477e-05
0.000247603
0.000237943
2.40279e-05
0.000152329
0.000155786
0.000236565
0.000229622
0.000235067
0.000220291
0.000154693
3.87072e-05
0.000444203
0.00019969
0.000229777
2.58275e-05
0.000229941
0.000150751
0.000229301
0.000113729
0.000229414
0.000228781
0.000229649
0.000177507
0.000111639
0.000201914
0.000228537
1.70456e-05
0.000229727
0.000228924
0.000229327
4.47808e-05
0.000125339
0.00023
3.40586e-05
0.000229211
0.00011282
0.000145368
0.000229802
0.000802219
0.00023131
0.000161799
0.000229204
0.000228691
0.000300488
0.000229004
0.000175383
0.000238769
0.000229343
0.000698619
0.000229377
4.76509e-05
0.000229228
8.52191e-05
7.78366e-05
7.13253e-05
0.000294385
9.02788e-05
0.0001952
0.000229448
0.000115754
0.000112007
0.000116449
0.000318831
3.23632e-05
0.000228516
0.000229122
0.000240201
3.85244e-05
0.000249008
0.000693943
0.000229884
0.000229517
0.000229483
4.79677e-05
0.000196262
0.000236652
1.57289e-05
0.00023396
5.04705e-05
0.000229379
0.000143877
0.000186796
0.000769977
0.000144074
0.000304204
0.000243306
0.000228652
0.000233985
0.000229351
0.00022953
0.000229279
4.66413e-05
0.000229604
0.000123309
0.000191225
0.000228174
0.000229576
0.000229396
5.30694e-05
0.000231981
0.000235158
0.000159529
0.000179602
0.000208957
0.000228947
0.000229226
5.26402e-05
0.000229009
0.000228854
0.000188394
0.000229158
0.000238466
4.89472e-05
0.000233783
0.000229678
0.000598442
0.000653894
0.000233587
0.000228967
0.000291069
0.000229625
0.000238082
0.000228217
0.000229751
9.97599e-05
0.000251373
9.17214e-05
0.000230006
0.000229251
0.000237497
0.000229544
0.000240433
0.000189827
0.000229341
6.17042e-05
0.000242598
0.000555303
0.000229457
0.000236094
0.00022967
0.000179758
2.53148e-05
0.000229053
5.72412e-05
0.000229533
0.000234077
0.000124135
2.87422e-05
0.000231545
0.0001746
6.39559e-05
0.000228706
0.000234168
0.000229283
0.000419578
0.000228916
0.000192093
0.00011508
0.00023728
0.000229233
0.000208947
0.000228221
0.000832065
0.000233198
0.00047725
2.20621e-05
0.00022992
0.000101104
0.000250545
7.30598e-05
0.000229626
0.00022922
0.000238715
4.8287e-05
0.000293375
0.000229225
0.000109037
0.000204101
0.000183086
0.000176551
0.00022902
0.000205185
0.000661413
6.19448e-05
0.000235427
0.000179676
0.000229464
0.00010576
0.000230036
7.5806e-05
0.000206691
0.000229935
0.000836268
0.00013605
0.000192148
0.000229406
0.000229346
0.000229428
5.20504e-05
0.000164962
6.23218e-05
7.0087e-05
0.000250237
0.00022915
0.000116753
0.00022913
0.000194088
0.000112429
0.000229721
0.000152527
0.000240784
0.000228925
0.000229058
0.000528821
0.000228867
3.68883e-05
0.000229425
0.000201927
0.000683824
6.20796e-05
0.000194699
0.000196125
4.7124e-05
0.000229299
4.53884e-05
0.000187107
0.000248657
0.000704518
2.47763e-05
0.000229324
0.000228877
0.000229789
7.49848e-05
4.66641e-05
0.000228976
0.000229975
0.000249424
9.76785e-05
2.2695e-05
0.000104733
0.000122782
0.000229202
0.000415672
0.000241018
0.000228671
0.000120329
0.000122854
4.73887e-05
0.000233938
0.000111419
0.000246146
0.000182564
4.96756e-05
0.000298012
0.000149865
9.12569e-05
0.000114438
0.000227259
0.000235319
0.000238324
7.41922e-05
0.000186559
3.29664e-05
0.000229287
3.70743e-05
0.000208286
0.000228566
0.000225723
7.07383e-05
0.00030031
0.000517339
0.000192237
0.000230036
0.000236603
0.000337055
0.000179448
6.19472e-05
0.000233695
9.01142e-05
0.00056758
2.61166e-05
0.000228714
4.06895e-05
0.0002293
0.000229733
0.000229332
4.99485e-05
9.123e-05
6.80809e-05
0.000154721
3.20813e-05
8.15296e-05
0.000229642
0.000228712
0.000593801
0.000181571
0.000234011
0.000239096
4.12672e-05
4.51034e-05
2.96836e-05
2.93526e-05
0.000232895
0.000211813
5.3092e-05
0.00022948
2.26181e-05
0.000236352
0.000229608
0.00022896
8.05634e-05
3.56646e-05
0.000229239
0.000229177
0.000229787
0.000267558
2.52212e-05
0.000229878
4.01218e-05
0.000366992
0.00015651
6.88321e-05
0.000228693
3.9551e-05
0.000228922
0.00023573
0.00022942
0.000142629
0.000148429
0.000228564
0.000192668
0.000169017
0.000234635
0.000223888
0.000208863
0.000229417
0.000229447
0.000221085
8.93146e-05
5.94916e-05
0.000233525
9.06824e-05
0.000229757
0.000460968
0.000104714
4.48126e-05
0.000108566
0.000250909
0.000683278
6.31255e-05
0.000192445
0.000229197
0.000184219
0.000228795
0.000229669
0.000229092
0.000229569
0.000234676
0.000508528
0.000229376
0.000228741
0.000162088
0.000229356
3.86491e-05
0.000243713
0.000154938
0.000175955
4.78166e-05
0.000229995
0.000229266
0.000229858
1.64045e-05
3.55971e-05
0.000229336
0.000229345
0.000192803
0.000229757
0.00016109
0.000229705
0.000845093
0.000237164
3.22125e-05
0.00010143
0.000131146
6.20883e-05
0.000492518
0.000229518
0.000232085
0.000234712
0.000229705
7.10095e-05
2.59966e-05
0.000223802
0.000133666
0.000128308
0.000112837
0.000229356
0.000229393
0.000229667
0.00055072
0.000732502
8.37435e-05
0.000229448
0.000229267
0.000655649
0.000230366
0.000108009
0.000153723
0.000134818
0.000312822
0.000229324
8.85269e-05
0.000229219
6.35474e-05
0.000229314
0.000359023
0.000150154
0.000234753
3.01836e-05
0.000129213
0.000229862
0.000229987
0.000452633
0.000228979
0.000183431
0.00010739
6.93057e-05
0.000521729
4.83873e-05
0.000156615
0.000230924
0.00022941
0.000229278
0.000149218
5.42161e-05
0.000112466
0.00022859
0.000229381
9.01062e-05
0.000229744
0.000233325
0.000237835
0.000232979
0.000119708
5.82156e-05
7.03323e-05
0.000159956
0.000233688
0.000235533
0.000228649
0.00014982
0.000231041
0.000229325
0.000190879
0.000396108
0.000228964
0.000228883
2.26139e-05
0.00022986
0.000228685
0.000147662
0.000229712
0.00023531
9.92024e-05
9.58572e-05
0.000158553
0.000181922
0.000159285
6.93674e-05
0.00028117
7.3795e-05
0.000108355
0.000179463
5.37051e-05
7.2231e-05
0.000128471
0.00022976
0.000230549
0.000114367
0.000230269
0.000229595
0.000244148
0.000208321
0.000206879
0.000176508
0.0001926
0.000242614
0.0002292
0.00020167
0.000229532
0.000228861
0.000236709
8.01032e-05
0.000231465
0.00023452
0.000231482
0.000229649
0.000128978
6.22442e-05
0.000306336
0.000231357
0.000230427
0.000189793
0.000383329
0.000233291
0.000168912
0.000230974
0.000283724
0.000328606
0.000229278
8.53026e-05
0.000229913
0.000126845
0.000137835
0.00011707
0.000158025
0.000215243
0.00024653
0.00022982
9.93056e-05
0.000181733
4.68111e-05
0.000587825
0.000228982
0.000233795
0.000229806
0.000160976
0.000230067
4.22928e-05
0.000229493
0.00022946
0.000228969
0.000130468
5.94087e-05
0.000229561
0.000129727
0.000229205
0.000110612
0.000168488
0.000231275
0.000115986
1.61755e-05
9.04323e-05
0.000236981
0.000197554
0.00014104
0.000119826
0.000133846
9.20126e-05
0.000229237
0.000157121
0.00022939
0.000233069
5.27124e-05
0.000179402
3.88385e-05
0.000193293
0.00023017
0.000235493
0.000229086
5.05081e-05
0.000229629
0.000727812
0.000182677
0.000845674
0.000234488
0.000138739
0.000411612
0.000501726
0.000240247
0.000125537
3.74654e-05
6.06188e-05
0.000229434
0.000192177
0.000131732
0.000229511
4.18834e-05
0.00011917
0.000238905
0.000289556
0.000229306
0.000234662
0.000235166
0.000130628
0.000234585
0.000192936
0.000229576
0.000127252
0.000233635
9.59182e-05
8.65481e-05
0.00034572
0.000112232
0.000228786
0.000269675
6.07913e-05
0.000229225
0.000193468
0.000187966
8.7088e-05
0.000242712
3.03262e-05
0.000249197
9.64596e-05
0.000101709
0.000252159
0.00022886
0.000247576
0.000229173
0.000216334
2.28278e-05
0.000230046
0.000229335
0.00025203
0.000368479
0.000436683
0.00015647
0.000229566
0.000153831
0.000253249
0.000229512
0.000229619
0.0002298
0.000229391
0.000233812
0.000159317
4.55147e-05
0.000109318