/*--------------------------------*- C++ -*----------------------------------*\
| =========                 |                                                 |
| \\      /  F ield         | OpenFOAM: The Open Source CFD Toolbox           |
|  \\    /   O peration     | Version:  3.0.1                                 |
|   \\  /    A nd           | Web:      www.OpenFOAM.org                      |
|    \\/     M anipulation  |                                                 |
\*---------------------------------------------------------------------------*/
FoamFile
{
    version     2.0;
    format      ascii;
    class       surfaceScalarField;
    location    "0.535104";
    object      phi;
}
// * * * * * * * * * * * * * * * * * * * * * * * * * * * * * * * * * * * * * //

dimensions      [0 3 -1 0 0 0 0];

internalField   nonuniform List<scalar> 
32369
(
1.00893e-06
4.44449e-06
-5.45342e-06
1.56279e-06
4.57013e-06
-5.12399e-06
1.05322e-06
5.97412e-06
-5.46454e-06
-4.10689e-08
6.82842e-06
-5.73413e-06
-1.67244e-06
7.60416e-06
-5.97279e-06
-3.62585e-06
8.3436e-06
-6.39019e-06
-5.86189e-06
9.38991e-06
-7.15386e-06
-8.41979e-06
1.10439e-05
-8.48605e-06
-1.13851e-05
1.36079e-05
-1.06426e-05
-1.48856e-05
1.7494e-05
-1.39935e-05
2.32786e-05
-1.90639e-05
-1.91003e-05
1.21716e-06
3.22733e-06
1.80168e-06
3.98562e-06
1.95495e-06
5.82084e-06
1.58233e-06
7.20104e-06
6.65461e-07
8.52102e-06
-8.12034e-07
9.8211e-06
-2.74658e-06
1.13245e-05
-5.09293e-06
1.33903e-05
-7.89484e-06
1.64098e-05
-1.12555e-05
2.08547e-05
2.73603e-05
-1.53372e-05
4.1464e-07
2.81269e-06
6.90238e-07
3.71002e-06
1.02532e-06
5.48576e-06
1.14412e-06
7.08224e-06
8.44459e-07
8.82068e-06
3.60245e-08
1.06295e-05
-1.27954e-06
1.264e-05
-3.07171e-06
1.51825e-05
-5.33522e-06
1.86733e-05
-8.11771e-06
2.36372e-05
3.07825e-05
-1.154e-05
5.85366e-09
2.80684e-06
2.05072e-08
3.69536e-06
2.12324e-07
5.29394e-06
3.97477e-07
6.89709e-06
4.09908e-07
8.80825e-06
9.85742e-08
1.09409e-05
-6.34065e-07
1.33727e-05
-1.81348e-06
1.63619e-05
-3.44076e-06
2.03006e-05
-5.53218e-06
2.57286e-05
3.33674e-05
-8.11702e-06
-1.42317e-07
2.94915e-06
-2.35617e-07
3.78866e-06
-1.90367e-07
5.24869e-06
-7.60616e-08
6.78278e-06
1.73858e-08
8.7148e-06
-3.66985e-08
1.09949e-05
-3.65296e-07
1.37013e-05
-1.04139e-06
1.7038e-05
-2.10171e-06
2.13609e-05
-3.55162e-06
2.71785e-05
3.52133e-05
-5.39757e-06
-1.22567e-07
3.07172e-06
-2.1865e-07
3.88475e-06
-2.45544e-07
5.27559e-06
-1.899e-07
6.72714e-06
-1.02419e-07
8.62732e-06
-6.16397e-08
1.09542e-05
-1.70178e-07
1.38098e-05
-5.16824e-07
1.73846e-05
-1.16214e-06
2.20062e-05
-2.1331e-06
2.81495e-05
3.65265e-05
-3.4463e-06
-3.83474e-08
3.11007e-06
-1.41936e-07
3.98834e-06
-1.76241e-07
5.30989e-06
-1.40352e-07
6.69125e-06
-6.63381e-08
8.55331e-06
5.87664e-09
1.0882e-05
4.40716e-09
1.38113e-05
-1.51198e-07
1.75402e-05
-5.28952e-07
2.2384e-05
-1.16983e-06
2.87903e-05
3.74453e-05
-2.08861e-06
-6.01658e-08
3.17023e-06
-1.48983e-07
4.07715e-06
-1.21911e-07
5.28282e-06
-7.9879e-08
6.64922e-06
-9.93116e-09
8.48336e-06
7.69021e-08
1.07951e-05
1.29922e-07
1.37582e-05
8.45376e-08
1.75856e-05
-1.23277e-07
2.25918e-05
-5.33526e-07
2.92006e-05
3.81007e-05
-1.18897e-06
-2.66849e-08
3.19692e-06
-3.82531e-08
4.08872e-06
-7.61312e-09
5.25218e-06
1.30798e-08
6.62852e-06
8.61001e-08
8.41034e-06
1.81754e-07
1.06995e-05
2.61635e-07
1.36784e-05
2.75848e-07
1.75714e-05
1.76176e-07
2.26914e-05
-1.03556e-07
2.94803e-05
3.86043e-05
-6.07092e-07
3.36447e-08
3.16327e-06
5.71086e-08
4.06526e-06
1.01634e-07
5.20765e-06
1.65079e-07
6.56508e-06
2.58158e-07
8.31726e-06
3.62679e-07
1.05949e-05
4.55429e-07
1.35856e-05
5.0077e-07
1.75261e-05
4.49118e-07
2.27431e-05
2.48821e-07
2.96806e-05
3.89986e-05
-1.45476e-07
7.90412e-08
3.08423e-06
1.35937e-07
4.00836e-06
2.14274e-07
5.12932e-06
3.03883e-07
6.47547e-06
4.13273e-07
8.20787e-06
5.32435e-07
1.04758e-05
6.43144e-07
1.34749e-05
7.13084e-07
1.74561e-05
6.98711e-07
2.27575e-05
5.3869e-07
2.98406e-05
3.9331e-05
2.06293e-07
8.597e-08
2.99826e-06
1.52762e-07
3.94157e-06
2.5001e-07
5.03207e-06
3.62585e-07
6.3629e-06
4.94847e-07
8.07561e-06
6.37936e-07
1.03327e-05
7.76181e-07
1.33367e-05
8.81891e-07
1.73504e-05
9.11798e-07
2.27276e-05
8.19416e-07
2.9933e-05
3.96193e-05
5.31137e-07
1.04374e-07
2.89389e-06
1.88884e-07
3.85706e-06
3.08485e-07
4.91247e-06
4.46546e-07
6.22483e-06
6.05131e-07
7.91702e-06
7.78571e-07
1.01593e-05
9.51147e-07
1.31641e-05
1.09578e-06
1.72058e-05
1.18264e-06
2.26407e-05
1.15873e-06
2.99569e-05
3.98228e-05
9.55132e-07
1.50765e-07
2.74312e-06
2.67664e-07
3.74016e-06
4.18406e-07
4.76173e-06
5.88918e-07
6.05432e-06
7.82539e-07
7.7234e-06
9.96388e-07
9.94541e-06
1.2186e-06
1.29419e-05
1.42204e-06
1.70023e-05
1.56798e-06
2.24948e-05
1.60187e-06
2.9923e-05
3.99871e-05
1.43757e-06
1.56669e-07
2.58646e-06
2.88777e-07
3.60805e-06
4.68755e-07
4.58175e-06
6.75476e-07
5.8476e-06
9.16781e-07
7.4821e-06
1.19122e-06
9.67097e-06
1.48515e-06
1.26479e-05
1.77601e-06
1.67115e-05
2.02341e-06
2.22474e-05
2.15958e-06
2.97869e-05
4.00161e-05
2.13061e-06
1.72546e-07
2.41391e-06
3.28539e-07
3.45206e-06
5.43813e-07
4.36648e-06
8.00586e-07
5.59083e-06
1.10496e-06
7.17772e-06
1.46042e-06
9.31552e-06
1.85664e-06
1.22517e-05
2.26567e-06
1.63024e-05
2.64206e-06
2.1871e-05
2.94531e-06
2.94836e-05
3.98487e-05
3.11271e-06
2.15076e-07
2.19883e-06
4.13967e-07
3.25317e-06
6.80628e-07
4.09981e-06
1.00376e-06
5.2677e-06
1.39815e-06
6.78333e-06
1.86718e-06
8.84648e-06
2.40076e-06
1.17181e-05
2.96803e-06
1.57352e-05
3.52657e-06
2.13124e-05
4.02461e-06
2.89856e-05
3.946e-05
4.41333e-06
2.43525e-07
1.95531e-06
4.83386e-07
3.01331e-06
8.12797e-07
3.7704e-06
1.22632e-06
4.85417e-06
1.74329e-06
6.26636e-06
2.37123e-06
8.21855e-06
3.09458e-06
1.09948e-05
3.87328e-06
1.49565e-05
4.66424e-06
2.05215e-05
5.43629e-06
2.82135e-05
3.86913e-05
6.20499e-06
2.79651e-07
1.67566e-06
5.72664e-07
2.72029e-06
9.84684e-07
3.35838e-06
1.52244e-06
4.31642e-06
2.21242e-06
5.57638e-06
3.05914e-06
7.37183e-06
4.02982e-06
1.00241e-05
5.0742e-06
1.39121e-05
6.16365e-06
1.9432e-05
7.31599e-06
2.70612e-05
3.74466e-05
8.56072e-06
3.26018e-07
1.34964e-06
6.88459e-07
2.35785e-06
1.2131e-06
2.83374e-06
1.93094e-06
3.59858e-06
2.86687e-06
4.64046e-06
4.00259e-06
6.2361e-06
5.27506e-06
8.75164e-06
6.63203e-06
1.25551e-05
8.07698e-06
1.79871e-05
9.69313e-06
2.5445e-05
3.55287e-05
1.1611e-05
3.90094e-07
9.59545e-07
8.35031e-07
1.91291e-06
1.52495e-06
2.14382e-06
2.51495e-06
2.60858e-06
3.78947e-06
3.36594e-06
5.27324e-06
4.75234e-06
6.87563e-06
7.14924e-06
8.5644e-06
1.08664e-05
1.04184e-05
1.61331e-05
1.26164e-05
2.3247e-05
3.27412e-05
1.54039e-05
4.18285e-07
5.4126e-07
9.64509e-07
1.36669e-06
1.96891e-06
1.13942e-06
3.38557e-06
1.19191e-06
5.07051e-06
1.681e-06
6.89937e-06
2.92349e-06
8.79354e-06
5.25507e-06
1.07963e-05
8.86357e-06
1.30938e-05
1.38356e-05
1.59605e-05
2.03803e-05
2.90182e-05
1.96835e-05
7.40263e-08
4.67234e-07
1.44879e-06
-8.06905e-09
3.08789e-06
-4.99687e-07
4.90118e-06
-6.21377e-07
6.85977e-06
-2.77592e-07
8.8597e-06
9.23556e-07
1.0892e-05
3.22277e-06
1.31258e-05
6.62972e-06
1.58662e-05
1.10952e-05
1.94693e-05
1.67772e-05
2.41628e-05
2.43248e-05
3.67668e-06
-3.20945e-06
5.28527e-06
-1.61666e-06
6.6259e-06
-1.84032e-06
7.95701e-06
-1.95249e-06
9.2661e-06
-1.58668e-06
1.07698e-05
-5.80152e-07
1.26622e-05
1.33034e-06
1.50465e-05
4.24548e-06
1.82313e-05
7.9104e-06
2.25475e-05
1.2461e-05
1.82855e-05
2.84248e-05
-1.52668e-06
-3.92674e-06
-2.28588e-06
-4.3648e-06
-3.02539e-06
-4.72503e-06
-3.9091e-06
-4.85042e-06
-5.10353e-06
-4.77836e-06
-6.75278e-06
-4.74094e-06
-8.85219e-06
-5.05445e-06
-1.14291e-05
-5.90915e-06
-1.4547e-05
-7.52464e-06
-1.82759e-05
-1.02647e-05
-1.46686e-05
-2.26711e-05
-6.87591e-07
-3.23915e-06
-1.25412e-06
-3.79827e-06
-1.61712e-06
-4.36203e-06
-1.96515e-06
-4.50238e-06
-2.59522e-06
-4.14829e-06
-3.89475e-06
-3.44141e-06
-6.07596e-06
-2.87324e-06
-9.14825e-06
-2.83687e-06
-1.29473e-05
-3.7256e-06
-1.75111e-05
-5.70085e-06
-9.15918e-06
-2.30206e-05
1.98013e-07
-3.43716e-06
2.78883e-07
-3.87914e-06
4.05489e-07
-4.48864e-06
5.69522e-07
-4.66642e-06
6.55761e-07
-4.23453e-06
2.1112e-07
-2.99677e-06
-1.44862e-06
-1.2135e-06
-4.6102e-06
3.24709e-07
-9.13425e-06
7.98452e-07
-1.46438e-05
-1.91295e-07
-2.78912e-06
-2.10139e-05
5.48261e-07
-3.98542e-06
1.06865e-06
-4.39952e-06
1.6564e-06
-5.07639e-06
2.28605e-06
-5.29607e-06
2.92838e-06
-4.87686e-06
3.35949e-06
-3.42788e-06
2.93735e-06
-7.91356e-07
8.7544e-07
2.38662e-06
-3.44384e-06
5.11773e-06
-9.72448e-06
6.08934e-06
4.74553e-06
-1.72591e-05
6.75454e-07
-4.66087e-06
1.42319e-06
-5.14726e-06
2.30364e-06
-5.95684e-06
3.2888e-06
-6.28122e-06
4.376e-06
-5.96406e-06
5.45627e-06
-4.50816e-06
6.05646e-06
-1.39154e-06
5.30937e-06
3.1337e-06
2.40936e-06
8.01774e-06
-3.29524e-06
1.17939e-05
1.26377e-05
-1.11874e-05
6.80764e-07
-5.34164e-06
1.50931e-06
-5.97581e-06
2.52083e-06
-6.96836e-06
3.7095e-06
-7.4699e-06
5.11109e-06
-7.36564e-06
6.68724e-06
-6.08431e-06
8.16459e-06
-2.86888e-06
8.66842e-06
2.62987e-06
7.27611e-06
9.41005e-06
3.02121e-06
1.60488e-05
2.04344e-05
-4.77549e-06
6.04238e-07
-5.94588e-06
1.41889e-06
-6.79046e-06
2.43262e-06
-7.98208e-06
3.67519e-06
-8.71247e-06
5.22174e-06
-8.91218e-06
7.10182e-06
-7.9644e-06
9.20542e-06
-4.97248e-06
1.08268e-05
1.0085e-06
1.08878e-05
9.34904e-06
8.35931e-06
1.85773e-05
2.65269e-05
2.26679e-06
5.27713e-07
-6.47359e-06
1.27656e-06
-7.53931e-06
2.20247e-06
-8.90799e-06
3.36489e-06
-9.87489e-06
4.87135e-06
-1.04186e-05
6.82139e-06
-9.91444e-06
9.24641e-06
-7.39751e-06
1.17429e-05
-1.48801e-06
1.30867e-05
8.00528e-06
1.22699e-05
1.93942e-05
3.06802e-05
8.11662e-06
4.32166e-07
-6.90576e-06
1.05327e-06
-8.16042e-06
1.81464e-06
-9.66936e-06
2.79936e-06
-1.08596e-05
4.11469e-06
-1.1734e-05
5.902e-06
-1.17018e-05
8.30489e-06
-9.8004e-06
1.12593e-05
-4.44238e-06
1.36727e-05
5.59186e-06
1.45216e-05
1.85452e-05
3.21719e-05
1.30299e-05
2.82996e-07
-7.18875e-06
7.4437e-07
-8.62179e-06
1.30495e-06
-1.02299e-05
2.02736e-06
-1.1582e-05
3.02124e-06
-1.27278e-05
4.44757e-06
-1.31281e-05
6.5503e-06
-1.19031e-05
9.54181e-06
-7.43389e-06
1.26536e-05
2.48004e-06
1.46022e-05
1.65966e-05
3.20335e-05
1.47406e-05
1.15552e-07
-7.3043e-06
4.45393e-07
-8.95164e-06
6.29066e-07
-1.04136e-05
1.01592e-06
-1.19689e-05
1.59076e-06
-1.33027e-05
2.48626e-06
-1.40236e-05
3.97847e-06
-1.33953e-05
6.55147e-06
-1.00069e-05
1.0037e-05
-1.00549e-06
1.27504e-05
1.38833e-05
3.02081e-05
1.45757e-05
-3.59908e-08
-7.26831e-06
-5.84966e-08
-8.92913e-06
-6.47285e-08
-1.04074e-05
-6.33855e-08
-1.19702e-05
2.51203e-09
-1.33686e-05
2.2136e-07
-1.42424e-05
8.12022e-07
-1.3986e-05
2.27332e-06
-1.14682e-05
5.51085e-06
-4.24302e-06
9.08192e-06
1.03122e-05
2.65651e-05
1.2725e-05
-2.24241e-07
-7.04407e-06
-5.04902e-07
-8.64847e-06
-8.52066e-07
-1.00602e-05
-1.27416e-06
-1.15481e-05
-1.74026e-06
-1.29025e-05
-2.18922e-06
-1.37935e-05
-2.48766e-06
-1.36876e-05
-2.2803e-06
-1.16755e-05
-2.08337e-07
-6.31499e-06
4.12518e-06
5.97871e-06
2.33879e-05
7.30237e-06
-4.70359e-07
-6.57371e-06
-1.05093e-06
-8.0679e-06
-1.77156e-06
-9.33958e-06
-2.64865e-06
-1.0671e-05
-3.67183e-06
-1.18793e-05
-4.7928e-06
-1.26725e-05
-5.87738e-06
-1.2603e-05
-6.58649e-06
-1.09664e-05
-6.32821e-06
-6.57327e-06
-3.19738e-06
2.84789e-06
1.82749e-05
1.91559e-06
-6.75275e-07
-5.89844e-06
-1.55716e-06
-7.18601e-06
-2.66509e-06
-8.23165e-06
-4.02538e-06
-9.31075e-06
-5.63952e-06
-1.02652e-05
-7.46226e-06
-1.08498e-05
-9.35272e-06
-1.07125e-05
-1.09983e-05
-9.32088e-06
-1.17929e-05
-5.77864e-06
-1.02391e-05
1.29405e-06
1.32746e-05
-5.23875e-06
-8.88917e-07
-5.00952e-06
-2.07613e-06
-5.9988e-06
-3.57361e-06
-6.73417e-06
-5.41767e-06
-7.46669e-06
-7.61498e-06
-8.06785e-06
-1.01142e-05
-8.3506e-06
-1.27648e-05
-8.06183e-06
-1.52319e-05
-6.85382e-06
-1.68466e-05
-4.16394e-06
-1.64339e-05
8.81353e-07
9.1063e-06
-1.22656e-05
-1.11588e-06
-3.89364e-06
-2.60522e-06
-4.50945e-06
-4.47606e-06
-4.86333e-06
-6.77787e-06
-5.16488e-06
-9.51608e-06
-5.32964e-06
-1.26329e-05
-5.23374e-06
-1.59778e-05
-4.71693e-06
-1.92407e-05
-3.59092e-06
-2.18143e-05
-1.59035e-06
-2.26169e-05
1.68396e-06
7.09094e-06
-2.06016e-05
-1.35003e-06
-2.54362e-06
-3.10548e-06
-2.754e-06
-5.28764e-06
-2.68117e-06
-7.95592e-06
-2.49659e-06
-1.11187e-05
-2.16685e-06
-1.47116e-05
-1.64081e-06
-1.85937e-05
-8.34859e-07
-2.2474e-05
2.89327e-07
-2.57972e-05
1.73284e-06
-2.77511e-05
3.63795e-06
6.57283e-06
-2.7233e-05
-1.58118e-06
-9.62439e-07
-3.49612e-06
-8.39054e-07
-5.81484e-06
-3.62459e-07
-8.58402e-06
2.72586e-07
-1.18023e-05
1.05146e-06
-1.54346e-05
1.99141e-06
-1.9362e-05
3.09258e-06
-2.33236e-05
4.25091e-06
-2.68685e-05
5.27772e-06
-2.93072e-05
6.0767e-06
7.16575e-06
-2.99001e-05
-1.34507e-06
3.82626e-07
-2.8926e-06
7.08482e-07
-4.71301e-06
1.45795e-06
-6.8815e-06
2.44107e-06
-9.44631e-06
3.61628e-06
-1.23869e-05
4.932e-06
-1.5568e-05
6.2737e-06
-1.8682e-05
7.36489e-06
-2.12117e-05
7.8074e-06
-2.25829e-05
7.4479e-06
6.37602e-06
-2.17932e-05
-9.20162e-07
1.30279e-06
-1.9051e-06
1.69342e-06
-3.0637e-06
2.61656e-06
-4.42923e-06
3.80659e-06
-5.99396e-06
5.18101e-06
-7.65429e-06
6.59234e-06
-9.20414e-06
7.82355e-06
-1.01789e-05
8.33967e-06
-9.60618e-06
7.23467e-06
-6.28809e-06
4.12982e-06
3.02807e-08
5.76526e-08
-5.0948e-07
1.81227e-06
-9.83656e-07
2.16759e-06
-1.4917e-06
3.12461e-06
-1.95009e-06
4.26498e-06
-2.24946e-06
5.48037e-06
-2.16547e-06
6.50834e-06
-1.29494e-06
6.95303e-06
1.17857e-06
5.86615e-06
6.03924e-06
2.374e-06
1.28513e-05
-2.68228e-06
-7.82881e-06
2.07104e-05
-4.48063e-07
2.26033e-06
-4.6507e-07
2.1846e-06
-3.09791e-07
2.96933e-06
2.44997e-07
3.71019e-06
1.45134e-06
4.27403e-06
3.62771e-06
4.33198e-06
7.25333e-06
3.32741e-06
1.25101e-05
6.09365e-07
1.8389e-05
-3.50484e-06
2.39111e-05
-8.20445e-06
-1.36229e-05
2.97053e-05
-9.49113e-07
-3.81174e-07
7.47838e-07
2.50553e-06
5.19289e-06
8.94471e-06
1.36025e-05
1.84573e-05
2.28629e-05
2.71194e-05
3.1782e-05
-1.62477e-05
-2.10369e-06
1.83514e-05
-2.64509e-05
-4.64405e-06
1.48472e-05
-3.46381e-05
-6.59722e-06
1.47844e-05
-4.15328e-05
-7.85761e-06
1.47523e-05
-4.80616e-05
-8.46144e-06
1.49903e-05
-5.48224e-05
-8.60148e-06
1.53623e-05
-6.22765e-05
-8.29134e-06
1.57454e-05
-7.08084e-05
-7.47606e-06
1.6008e-05
-8.0738e-05
-6.06362e-06
1.59933e-05
-9.24312e-05
-3.81176e-06
1.5505e-05
-3.34085e-07
1.42317e-05
-0.000106329
-7.48781e-06
5.38412e-06
-1.55565e-05
3.42466e-06
-2.40469e-05
1.89315e-06
-3.21582e-05
2.5373e-07
-3.98002e-05
-8.19427e-07
-4.74328e-05
-9.68943e-07
-5.56062e-05
-1.17919e-07
-6.48634e-05
1.78109e-06
-7.57493e-05
4.82236e-06
-8.87731e-05
9.21199e-06
1.53128e-05
-0.00010442
-3.03993e-06
8.42405e-06
-7.25976e-06
7.64449e-06
-1.33289e-05
7.96226e-06
-2.06051e-05
7.53001e-06
-2.87285e-05
7.30397e-06
-3.74233e-05
7.72583e-06
-4.67779e-05
9.23666e-06
-5.70939e-05
1.20971e-05
-6.88148e-05
1.65433e-05
-8.24572e-05
2.28544e-05
3.14869e-05
-9.86313e-05
-2.01042e-06
1.04345e-05
-5.07085e-06
1.07049e-05
-9.39253e-06
1.22839e-05
-1.50457e-05
1.31832e-05
-2.20554e-05
1.43137e-05
-3.01901e-05
1.58605e-05
-3.93327e-05
1.83793e-05
-4.95659e-05
2.23302e-05
-6.11623e-05
2.81397e-05
-7.45426e-05
3.62346e-05
4.71465e-05
-9.02022e-05
-1.53649e-06
1.1971e-05
-4.04868e-06
1.32171e-05
-7.51454e-06
1.57498e-05
-1.19574e-05
1.7626e-05
-1.76864e-05
2.00427e-05
-2.47174e-05
2.28915e-05
-3.30018e-05
2.66637e-05
-4.25514e-05
3.18799e-05
-5.35097e-05
3.9098e-05
-6.61692e-05
4.88942e-05
6.19756e-05
-8.09983e-05
-1.20979e-06
1.31808e-05
-3.44057e-06
1.54479e-05
-6.15574e-06
1.8465e-05
-9.8285e-06
2.12988e-05
-1.4561e-05
2.47752e-05
-2.04718e-05
2.88022e-05
-2.76714e-05
3.38633e-05
-3.62246e-05
4.04331e-05
-4.62293e-05
4.91026e-05
-5.78936e-05
6.05585e-05
7.56641e-05
-7.15821e-05
-1.09888e-06
1.42796e-05
-2.87699e-06
1.7226e-05
-5.15331e-06
2.07413e-05
-8.2049e-06
2.43504e-05
-1.21377e-05
2.8708e-05
-1.71373e-05
3.38018e-05
-2.33252e-05
4.00513e-05
-3.08083e-05
4.79161e-05
-3.97245e-05
5.80189e-05
-5.02535e-05
7.10875e-05
8.80289e-05
-6.26183e-05
-1.03927e-06
1.53189e-05
-2.62494e-06
1.88117e-05
-4.56148e-06
2.26778e-05
-7.12515e-06
2.6914e-05
-1.04136e-05
3.19965e-05
-1.46103e-05
3.79985e-05
-1.9862e-05
4.5303e-05
-2.6312e-05
5.43661e-05
-3.41001e-05
6.58069e-05
-4.33986e-05
8.0386e-05
9.90783e-05
-5.4448e-05
-9.31527e-07
1.62504e-05
-2.32225e-06
2.02024e-05
-4.0102e-06
2.43658e-05
-6.18785e-06
2.90917e-05
-8.95971e-06
3.47683e-05
-1.24847e-05
4.15235e-05
-1.69193e-05
4.97376e-05
-2.24194e-05
5.98663e-05
-2.91322e-05
7.25197e-05
-3.72423e-05
8.84961e-05
0.000108817
-4.69805e-05
-6.56498e-07
1.69069e-05
-1.76579e-06
2.13117e-05
-3.17432e-06
2.57743e-05
-5.00671e-06
3.09241e-05
-7.33481e-06
3.70964e-05
-1.03066e-05
4.44953e-05
-1.40536e-05
5.34846e-05
-1.87327e-05
6.45454e-05
-2.44998e-05
7.82867e-05
-3.15402e-05
9.55365e-05
0.000117355
-4.00785e-05
-4.25665e-07
1.73326e-05
-1.29476e-06
2.21808e-05
-2.42053e-06
2.69001e-05
-3.90579e-06
3.24093e-05
-5.82077e-06
3.90114e-05
-8.27142e-06
4.69459e-05
-1.13861e-05
5.65993e-05
-1.52948e-05
6.8454e-05
-2.0158e-05
8.315e-05
-2.61412e-05
0.00010152
0.000124658
-3.34438e-05
-3.92853e-07
1.77254e-05
-1.10992e-06
2.28978e-05
-1.99149e-06
2.77816e-05
-3.15672e-06
3.35746e-05
-4.65191e-06
4.05066e-05
-6.58033e-06
4.88743e-05
-9.05128e-06
5.90703e-05
-1.21795e-05
7.15823e-05
-1.61072e-05
8.70777e-05
-2.09965e-05
0.000106409
0.000130685
-2.70241e-05
-2.51325e-07
1.79768e-05
-7.61498e-07
2.3408e-05
-1.39569e-06
2.84158e-05
-2.2422e-06
3.44211e-05
-3.33345e-06
4.15978e-05
-4.75625e-06
5.02971e-05
-6.59793e-06
6.0912e-05
-8.96569e-06
7.39501e-05
-1.19771e-05
9.00891e-05
-1.57813e-05
0.000110213
0.000135462
-2.05583e-05
5.72857e-08
1.79195e-05
-1.46282e-07
2.36116e-05
-4.69536e-07
2.87391e-05
-9.70836e-07
3.49224e-05
-1.64578e-06
4.22728e-05
-2.56608e-06
5.12174e-05
-3.79182e-06
6.21377e-05
-5.40825e-06
7.55665e-05
-7.51415e-06
9.2195e-05
-1.02347e-05
0.000112934
0.000138934
-1.37064e-05
1.42692e-07
1.77768e-05
1.64625e-07
2.35897e-05
1.37445e-07
2.87663e-05
1.70104e-08
3.50428e-05
-1.85064e-07
4.24748e-05
-5.29754e-07
5.15621e-05
-1.04988e-06
6.26578e-05
-1.81194e-06
7.63286e-05
-2.8794e-06
9.32625e-05
-4.34881e-06
0.000114403
0.000140899
-6.31392e-06
2.95329e-07
1.74815e-05
5.90801e-07
2.32942e-05
8.97209e-07
2.84599e-05
1.19786e-06
3.47422e-05
1.50482e-06
4.21679e-05
1.7924e-06
5.12746e-05
2.04189e-06
6.24083e-05
2.21819e-06
7.61523e-05
2.29381e-06
9.31869e-05
2.20362e-06
0.000114493
0.000141236
1.86644e-06
6.09063e-07
1.68724e-05
1.2914e-06
2.26118e-05
2.00967e-06
2.77416e-05
2.78393e-06
3.39679e-05
3.66394e-06
4.12879e-05
4.63934e-06
5.02992e-05
5.7339e-06
6.13138e-05
6.94598e-06
7.49402e-05
8.27083e-06
9.1862e-05
9.70137e-06
0.000113063
0.000139693
1.12447e-05
8.29151e-07
1.60433e-05
1.87474e-06
2.15663e-05
3.03828e-06
2.6578e-05
4.37299e-06
3.26332e-05
5.91777e-06
3.97431e-05
7.71201e-06
4.85049e-05
9.80108e-06
5.92247e-05
1.22296e-05
7.25117e-05
1.50407e-05
8.90509e-05
1.82951e-05
0.000109808
0.000135957
2.20313e-05
1.09366e-06
1.49496e-05
2.55593e-06
2.0104e-05
4.22792e-06
2.49061e-05
6.18732e-06
3.06738e-05
8.49446e-06
3.7436e-05
1.12385e-05
4.57609e-05
1.44946e-05
5.59686e-05
1.83504e-05
6.86559e-05
2.29012e-05
8.45002e-05
2.82628e-05
0.000104447
0.00012966
3.456e-05
1.40772e-06
1.35419e-05
3.33491e-06
1.81768e-05
5.59009e-06
2.26509e-05
8.27799e-06
2.79859e-05
1.14783e-05
3.42357e-05
1.533e-05
4.19092e-05
1.99399e-05
5.13587e-05
2.5448e-05
6.31477e-05
3.20144e-05
7.79338e-05
3.98474e-05
9.66135e-05
0.000120299
4.92078e-05
1.75442e-06
1.17875e-05
4.1717e-06
1.57595e-05
7.07569e-06
1.97469e-05
1.05911e-05
2.44705e-05
1.48259e-05
3.00009e-05
1.99449e-05
3.67901e-05
2.61024e-05
4.52012e-05
3.35001e-05
5.57501e-05
4.23666e-05
6.90672e-05
5.30187e-05
8.59614e-05
0.000107473
6.5845e-05
2.03066e-06
9.7568e-06
4.93574e-06
1.28544e-05
8.53655e-06
1.61461e-05
1.29792e-05
2.00278e-05
1.83688e-05
2.46114e-05
2.48885e-05
3.02704e-05
3.2745e-05
3.73447e-05
4.21927e-05
4.63024e-05
5.35634e-05
5.76965e-05
6.7293e-05
7.22319e-05
9.08861e-05
8.38797e-05
2.18696e-06
7.56984e-06
5.71631e-06
9.32507e-06
1.00242e-05
1.18382e-05
1.53599e-05
1.4692e-05
2.18644e-05
1.81069e-05
2.97544e-05
2.23805e-05
3.92739e-05
2.78252e-05
5.07618e-05
3.48146e-05
6.46626e-05
4.37957e-05
8.15472e-05
5.53473e-05
7.03266e-05
0.000102107
-1.65819e-07
7.73566e-06
4.38379e-06
4.77546e-06
1.00952e-05
6.12675e-06
1.6664e-05
8.12333e-06
2.44577e-05
1.03131e-05
3.37134e-05
1.31248e-05
4.47378e-05
1.68008e-05
5.80088e-05
2.15436e-05
7.41226e-05
2.76818e-05
9.37947e-05
3.56752e-05
4.61586e-05
0.000117963
-2.85341e-06
2.12048e-05
-6.43132e-06
1.84251e-05
-1.38352e-05
2.21883e-05
-2.24252e-05
2.33423e-05
-3.11977e-05
2.37628e-05
-4.02811e-05
2.44457e-05
-4.99478e-05
2.54121e-05
-6.05358e-05
2.6596e-05
-7.24035e-05
2.7861e-05
-8.59061e-05
2.90075e-05
2.97485e-05
-0.000101423
4.33377e-06
1.6871e-05
5.2716e-06
1.74873e-05
1.67765e-06
2.57822e-05
-4.76254e-06
2.97825e-05
-1.32655e-05
3.22659e-05
-2.31141e-05
3.42942e-05
-3.3996e-05
3.62941e-05
-4.59946e-05
3.85946e-05
-5.93923e-05
4.12586e-05
-7.4524e-05
4.41392e-05
4.71088e-05
-9.18843e-05
3.05493e-06
1.38161e-05
3.62139e-06
1.69209e-05
2.55894e-06
2.68447e-05
-5.28799e-07
3.28702e-05
-6.3668e-06
3.81039e-05
-1.44067e-05
4.23341e-05
-2.41899e-05
4.60772e-05
-3.54671e-05
4.98718e-05
-4.82477e-05
5.40392e-05
-6.27905e-05
5.8682e-05
6.36692e-05
-7.93509e-05
1.81965e-06
1.19965e-05
1.45203e-06
1.72885e-05
9.06126e-07
2.73906e-05
-7.53458e-07
3.45298e-05
-4.42347e-06
4.17739e-05
-1.00992e-05
4.80098e-05
-1.7781e-05
5.37591e-05
-2.72503e-05
5.93411e-05
-3.83924e-05
6.51813e-05
-5.12634e-05
7.15529e-05
7.85261e-05
-6.61203e-05
1.09673e-06
1.08997e-05
3.92e-07
1.79932e-05
-3.05145e-07
2.80877e-05
-1.66237e-06
3.5887e-05
-4.11498e-06
4.42265e-05
-7.97075e-06
5.18656e-05
-1.35539e-05
5.93422e-05
-2.08851e-05
6.66723e-05
-2.99222e-05
7.42184e-05
-4.06275e-05
8.22582e-05
9.10255e-05
-5.31269e-05
7.10315e-07
1.01894e-05
1.20921e-07
1.85826e-05
-5.54076e-07
2.87627e-05
-1.81266e-06
3.71456e-05
-3.63197e-06
4.60458e-05
-6.35034e-06
5.45839e-05
-1.03269e-05
6.33187e-05
-1.57464e-05
7.20918e-05
-2.2682e-05
8.1154e-05
-3.11399e-05
9.07162e-05
0.000100979
-4.10931e-05
4.98979e-07
9.69043e-06
1.4088e-07
1.89407e-05
-3.35698e-07
2.92393e-05
-1.37548e-06
3.81854e-05
-2.74097e-06
4.74113e-05
-4.68399e-06
5.6527e-05
-7.48216e-06
6.61169e-05
-1.13565e-05
7.59662e-05
-1.64541e-05
8.62517e-05
-2.28649e-05
9.7127e-05
0.000108776
-3.0662e-05
2.93329e-07
9.3971e-06
8.84485e-08
1.91456e-05
-1.93573e-07
2.95213e-05
-9.33383e-07
3.89252e-05
-1.83939e-06
4.83173e-05
-3.11828e-06
5.78058e-05
-4.94505e-06
6.79437e-05
-7.50919e-06
7.85303e-05
-1.09803e-05
8.97228e-05
-1.54223e-05
0.000101569
0.000114208
-2.0854e-05
2.00774e-07
9.19633e-06
1.45278e-07
1.92011e-05
8.43638e-08
2.95822e-05
-3.11716e-07
3.93213e-05
-7.59836e-07
4.87654e-05
-1.42963e-06
5.84756e-05
-2.40335e-06
6.89174e-05
-3.84159e-06
7.99685e-05
-5.87241e-06
9.17536e-05
-8.62253e-06
0.000104319
0.000117672
-1.20871e-05
1.52926e-07
9.0434e-06
2.94672e-07
1.90593e-05
4.86096e-07
2.93908e-05
4.70146e-07
3.93372e-05
4.78263e-07
4.87573e-05
4.0701e-07
5.85469e-05
2.23421e-07
6.9101e-05
-1.81317e-07
8.03733e-05
-9.04189e-07
9.24765e-05
-2.0259e-06
0.000105441
0.000119305
-3.65926e-06
2.91117e-07
8.75228e-06
6.915e-07
1.86589e-05
1.17078e-06
2.89115e-05
1.57574e-06
3.89323e-05
2.05771e-06
4.82753e-05
2.55752e-06
5.80471e-05
3.11834e-06
6.85402e-05
3.65e-06
7.98416e-05
4.12921e-06
9.19973e-05
4.52133e-06
0.000105049
0.000118999
4.82761e-06
3.09861e-07
8.44242e-06
8.67138e-07
1.81017e-05
1.65855e-06
2.81201e-05
2.49786e-06
3.8093e-05
3.48986e-06
4.72833e-05
4.61328e-06
5.69237e-05
5.93995e-06
6.72135e-05
7.44123e-06
7.83403e-05
9.12254e-06
9.0316e-05
1.09847e-05
0.000103186
0.00011687
1.31143e-05
3.49786e-07
8.09264e-06
1.10105e-06
1.73504e-05
2.21357e-06
2.70076e-05
3.52229e-06
3.67842e-05
5.04126e-06
4.57643e-05
6.81103e-06
5.51539e-05
8.92053e-06
6.5104e-05
1.13818e-05
7.5879e-05
1.42555e-05
8.74423e-05
1.75577e-05
9.98842e-05
0.000113036
2.13912e-05
4.90882e-07
7.60176e-06
1.49126e-06
1.635e-05
2.95777e-06
2.55411e-05
4.74903e-06
3.4993e-05
6.82704e-06
4.36863e-05
9.256e-06
5.27249e-05
1.2151e-05
6.22091e-05
1.55831e-05
7.24469e-05
1.96314e-05
8.33939e-05
2.43791e-05
9.51366e-05
0.000107518
2.98972e-05
5.57875e-07
7.04388e-06
1.73639e-06
1.51715e-05
3.53777e-06
2.37397e-05
5.81857e-06
3.27122e-05
8.47932e-06
4.10256e-05
1.1629e-05
4.95753e-05
1.5375e-05
5.84631e-05
1.9849e-05
6.79729e-05
2.51571e-05
7.80858e-05
3.14167e-05
8.8877e-05
0.000100218
3.87169e-05
6.46602e-07
6.39728e-06
2.02162e-06
1.37965e-05
4.1558e-06
2.16055e-05
6.9325e-06
2.99355e-05
1.02215e-05
3.77366e-05
1.41186e-05
4.56782e-05
1.87702e-05
5.38115e-05
2.43337e-05
6.24094e-05
3.09542e-05
7.14653e-05
3.87966e-05
8.10346e-05
9.08905e-05
4.81239e-05
7.75795e-07
5.62148e-06
2.34776e-06
1.22245e-05
4.81716e-06
1.91361e-05
8.09297e-06
2.66597e-05
1.20206e-05
3.3809e-05
1.67176e-05
4.09812e-05
2.23328e-05
4.81962e-05
2.90527e-05
5.56895e-05
3.70425e-05
6.34755e-05
4.6504e-05
7.15731e-05
7.96433e-05
5.77512e-05
8.95494e-07
4.72599e-06
2.64337e-06
1.04767e-05
5.41332e-06
1.63662e-05
9.16249e-06
2.29105e-05
1.37442e-05
2.92273e-05
1.92881e-05
3.54373e-05
2.59332e-05
4.15511e-05
3.38763e-05
4.77463e-05
4.32943e-05
5.40575e-05
5.43926e-05
6.04748e-05
6.65987e-05
6.74373e-05
1.00802e-06
3.71797e-06
2.88547e-06
8.5992e-06
5.89507e-06
1.33566e-05
1.0052e-05
1.87535e-05
1.52802e-05
2.39991e-05
2.16929e-05
2.90246e-05
2.94299e-05
3.38141e-05
3.86587e-05
3.85174e-05
4.95378e-05
4.31784e-05
6.23105e-05
4.77021e-05
5.16231e-05
7.72861e-05
1.09074e-06
2.62723e-06
3.03317e-06
6.65678e-06
6.16686e-06
1.02229e-05
1.06293e-05
1.42911e-05
1.64382e-05
1.81902e-05
2.37055e-05
2.17573e-05
3.25322e-05
2.49874e-05
4.30102e-05
2.80395e-05
5.53088e-05
3.08797e-05
6.96698e-05
3.33412e-05
3.47969e-05
8.64959e-05
1.16348e-06
1.46375e-06
2.96424e-06
4.85601e-06
6.04108e-06
7.14604e-06
1.06655e-05
9.66671e-06
1.69494e-05
1.19063e-05
2.49489e-05
1.37579e-05
3.46793e-05
1.5257e-05
4.62028e-05
1.6516e-05
5.96749e-05
1.74076e-05
7.53904e-05
1.76258e-05
1.64422e-05
9.37451e-05
4.04415e-07
1.05933e-06
2.17212e-06
3.08831e-06
5.09764e-06
4.22052e-06
9.76266e-06
5.00169e-06
1.62292e-05
5.43972e-06
2.44618e-05
5.52529e-06
3.44967e-05
5.2221e-06
4.63552e-05
4.65746e-06
6.03236e-05
3.4392e-06
7.6793e-05
1.15641e-06
-3.09998e-06
9.63352e-05
-4.57513e-07
1.51685e-06
1.44327e-06
1.18752e-06
5.12754e-06
5.36258e-07
1.06327e-05
-5.03454e-07
1.80228e-05
-1.95036e-06
2.71836e-05
-3.63556e-06
3.81492e-05
-5.74347e-06
5.13372e-05
-8.53058e-06
6.71261e-05
-1.23497e-05
8.59255e-05
-1.76429e-05
-2.49081e-05
0.000107734
9.25251e-06
1.52155e-05
2.18785e-05
2.94984e-05
3.78612e-05
4.73504e-05
5.84077e-05
7.14207e-05
8.67528e-05
0.000104785
0.000126036
-3.92669e-06
1.73039e-05
-1.33772e-05
-7.71276e-06
1.60743e-05
-1.22883e-05
-1.34451e-05
1.90849e-05
-1.33525e-05
-1.9705e-05
2.10652e-05
-1.48053e-05
-2.60963e-05
2.32241e-05
-1.68328e-05
-3.27053e-05
2.61794e-05
-1.95704e-05
-3.98016e-05
3.01516e-05
-2.30553e-05
-4.76845e-05
3.54201e-05
-2.75372e-05
-5.66685e-05
4.23167e-05
-3.33327e-05
-6.70996e-05
5.1302e-05
-4.08708e-05
6.30443e-05
-5.07293e-05
-7.94146e-05
2.78659e-06
1.45173e-05
3.33287e-06
1.5528e-05
6.61253e-07
2.17565e-05
-3.78258e-06
2.5509e-05
-9.59558e-06
2.90372e-05
-1.63368e-05
3.29206e-05
-2.38765e-05
3.76913e-05
-3.23317e-05
4.38753e-05
-4.19632e-05
5.19481e-05
-5.31172e-05
6.2456e-05
7.61364e-05
-6.62093e-05
2.39255e-06
1.21248e-05
3.06888e-06
1.48517e-05
2.65161e-06
2.21738e-05
8.6885e-07
2.72918e-05
-2.77424e-06
3.26802e-05
-7.90884e-06
3.80552e-05
-1.42745e-05
4.4057e-05
-2.17429e-05
5.13437e-05
-3.03816e-05
6.05868e-05
-4.04064e-05
7.24808e-05
8.78634e-05
-5.21334e-05
1.66926e-06
1.04555e-05
1.89674e-06
1.46242e-05
2.13747e-06
2.1933e-05
1.55803e-06
2.78712e-05
-3.6075e-07
3.4599e-05
-3.61078e-06
4.13052e-05
-8.18585e-06
4.8632e-05
-1.39745e-05
5.71323e-05
-2.09264e-05
6.75388e-05
-2.90842e-05
8.06386e-05
9.73305e-05
-3.85513e-05
1.26895e-06
9.18656e-06
1.4624e-06
1.44308e-05
1.79722e-06
2.15982e-05
1.58552e-06
2.80829e-05
6.3173e-07
3.55528e-05
-1.23839e-06
4.31754e-05
-4.19294e-06
5.15866e-05
-8.25679e-06
6.11962e-05
-1.33954e-05
7.26774e-05
-1.96114e-05
8.68546e-05
0.000104681
-2.69619e-05
1.12269e-06
8.06387e-06
1.56556e-06
1.39879e-05
2.07919e-06
2.10846e-05
2.10642e-06
2.80557e-05
1.67982e-06
3.59794e-05
6.37605e-07
4.42176e-05
-1.16949e-06
5.33937e-05
-3.84881e-06
6.38755e-05
-7.4257e-06
7.62543e-05
-1.1916e-05
9.13449e-05
0.000110074
-1.73094e-05
1.04896e-06
7.0149e-06
1.73729e-06
1.32996e-05
2.45309e-06
2.03688e-05
2.754e-06
2.77548e-05
2.72559e-06
3.60078e-05
2.25379e-06
4.46894e-05
1.23592e-06
5.44116e-05
-4.05435e-07
6.55169e-05
-2.7317e-06
7.85805e-05
-5.79836e-06
9.44116e-05
0.000113894
-9.6179e-06
8.82581e-07
6.13232e-06
1.75008e-06
1.24321e-05
2.62775e-06
1.94911e-05
3.18548e-06
2.7197e-05
3.50629e-06
3.5687e-05
3.48829e-06
4.47074e-05
3.101e-06
5.47988e-05
2.27666e-06
6.63412e-05
9.60469e-07
7.98967e-05
-8.75761e-07
9.62478e-05
0.000116261
-3.24269e-06
8.60774e-07
5.27155e-06
1.84628e-06
1.14466e-05
2.85563e-06
1.84818e-05
3.65203e-06
2.64006e-05
4.27173e-06
3.50673e-05
4.63614e-06
4.4343e-05
4.74785e-06
5.46871e-05
4.57224e-06
6.65168e-05
4.06883e-06
8.04001e-05
3.20103e-06
9.71156e-05
0.000117493
1.96933e-06
9.32224e-07
4.33932e-06
2.09002e-06
1.02888e-05
3.29944e-06
1.72723e-05
4.36473e-06
2.53354e-05
5.27685e-06
3.41552e-05
5.97884e-06
4.3641e-05
6.49538e-06
5.41706e-05
6.82643e-06
6.61858e-05
6.94708e-06
8.02795e-05
6.83535e-06
9.72273e-05
0.000117912
6.41576e-06
9.44762e-07
3.39456e-06
2.21265e-06
9.02089e-06
3.60008e-06
1.58849e-05
4.93488e-06
2.40005e-05
6.15154e-06
3.29385e-05
7.19507e-06
4.25975e-05
8.10385e-06
5.32618e-05
8.90216e-06
6.53874e-05
9.59945e-06
7.95822e-05
1.01893e-05
9.66375e-05
0.000117427
1.06746e-05
8.57316e-07
2.53725e-06
2.11271e-06
7.76549e-06
3.59738e-06
1.44002e-05
5.14747e-06
2.24505e-05
6.65361e-06
3.14324e-05
8.06162e-06
4.11894e-05
9.40068e-06
5.19227e-05
1.07003e-05
6.40878e-05
1.19958e-05
7.82867e-05
1.33081e-05
9.53252e-05
0.000116109
1.46264e-05
7.82775e-07