/*--------------------------------*- C++ -*----------------------------------*\
| =========                 |                                                 |
| \\      /  F ield         | OpenFOAM: The Open Source CFD Toolbox           |
|  \\    /   O peration     | Version:  3.0.1                                 |
|   \\  /    A nd           | Web:      www.OpenFOAM.org                      |
|    \\/     M anipulation  |                                                 |
\*---------------------------------------------------------------------------*/
FoamFile
{
    version     2.0;
    format      ascii;
    class       volScalarField;
    location    "0.810016";
    object      epsilon;
}
// * * * * * * * * * * * * * * * * * * * * * * * * * * * * * * * * * * * * * //

dimensions      [0 2 -3 0 0 0 0];

internalField   nonuniform List<scalar> 
21246
(
621.792
272.742
57.0098
14.3793
3.51285
1.01752
0.442842
0.293337
0.24874
0.238701
0.245678
817.099
444.11
116.261
24.1453
5.57522
1.48125
0.553029
0.330255
0.272593
0.264315
0.278828
832.048
439.286
150.217
39.6692
8.50136
2.05998
0.703558
0.378406
0.299394
0.290966
0.315193
718.029
388.486
157.877
48.1116
11.605
2.62594
0.86488
0.431621
0.326479
0.314639
0.343515
573.166
343.653
155.25
52.3923
14.1041
3.29819
1.01914
0.484431
0.352239
0.33445
0.36325
442.926
307.242
150.88
56.1468
16.7612
4.20999
1.21562
0.534904
0.37523
0.350387
0.377487
333.681
277.281
146.626
60.0673
19.8576
5.42387
1.53039
0.607193
0.395428
0.362734
0.389203
245.762
251.942
142.491
63.7278
23.2212
6.96105
1.99364
0.719643
0.423239
0.37242
0.397105
179.772
229.755
139.413
67.4747
26.9167
8.8982
2.6737
0.90365
0.467221
0.383656
0.401771
131.586
209.977
137.894
71.8667
31.2355
11.4071
3.68785
1.21709
0.547431
0.401755
0.405673
96.2069
192.761
137.553
76.7226
36.053
14.485
5.11603
1.72976
0.697087
0.437996
0.411844
72.1472
179.202
138.37
81.7541
41.0509
17.968
6.9624
2.50277
0.961494
0.512985
0.427492
60.0346
169.46
140.797
87.4595
46.4323
21.8944
9.27562
3.61485
1.40553
0.662437
0.467677
59.419
161.99
144.95
94.6442
52.7077
26.4687
12.1576
5.16661
2.11948
0.945164
0.562174
67.6879
155.582
150.397
103.866
60.3015
31.8445
15.6667
7.23015
3.19481
1.44068
0.762521
77.5797
144.257
153.642
115.45
70.3553
38.7422
20.1395
9.98809
4.77046
2.26303
1.15239
82.251
125.858
148.57
126.81
83.5594
48.263
26.2896
13.8384
7.09449
3.59361
1.8665
82.6771
104.937
133.05
131.774
97.9353
60.8971
34.9687
19.4207
10.5942
5.7283
3.1215
80.842
85.6571
110.796
124.889
107.977
75.2702
46.7709
27.6599
16.0258
9.21436
5.3099
78.0407
69.2998
87.0271
106.685
107.609
87.2503
60.9887
39.3949
24.5108
15.0138
9.15834
76.3899
56.5419
66.2431
84.3158
96.8499
92.466
74.9472
54.4579
37.1163
24.4625
15.8551
97.2731
54.6059
56.3273
68.6339
83.5393
89.1207
82.559
68.0817
51.7314
37.3819
25.9998
146.356
71.0073
68.3179
69.6789
72.286
72.9175
69.9189
62.8949
52.9852
42.5287
32.0382
274.03
255.138
222.806
207.513
190.492
167.974
139.635
108.194
79.0813
56.3327
39.2547
541.899
149.982
42.1012
9.82276
2.51173
0.82584
0.398599
0.273367
0.23057
0.215849
0.213646
485.984
120.562
32.949
10.1493
2.89702
0.959672
0.435068
0.279584
0.226125
0.206136
0.2001
484.832
138.871
33.8873
12.198
4.02348
1.36484
0.550851
0.309839
0.231113
0.20152
0.190307
437.726
132.427
31.6656
12.4239
4.53487
1.68972
0.699168
0.364913
0.250409
0.206971
0.189684
383.752
111.865
28.764
11.8781
4.47115
1.73558
0.744049
0.398009
0.271445
0.220195
0.197986
338.35
92.3206
25.776
10.8843
4.18821
1.70251
0.76084
0.417732
0.287775
0.233624
0.209706
302.04
77.1658
23.127
9.85999
3.84865
1.62517
0.75439
0.429445
0.303151
0.249448
0.225521
272.136
65.6931
20.8451
8.953
3.53455
1.54003
0.737728
0.435756
0.317018
0.266749
0.245308
249.502
57.0982
19.0206
8.20265
3.28871
1.46818
0.721582
0.439453
0.32827
0.282122
0.263501
233.132
50.8181
17.5753
7.62823
3.12552
1.41726
0.711503
0.443485
0.33808
0.295892
0.281318
222.04
46.413
16.5471
7.24608
3.03794
1.39453
0.711304
0.449934
0.347435
0.308188
0.297726
214.586
43.1743
15.7888
7.01462
3.01396
1.40038
0.72286
0.460515
0.357507
0.319408
0.311793
210.926
40.9159
15.2957
6.92734
3.05782
1.43953
0.749523
0.477568
0.369913
0.330524
0.324396
209.501
40.8341
15.2968
7.05311
3.21029
1.53296
0.802155
0.506406
0.387611
0.343576
0.336949
210.15
41.8343
15.7301
7.38576
3.49882
1.71007
0.903303
0.5608
0.418704
0.363848
0.353035
213.288
44.0729
16.6902
7.97295
3.9485
1.99647
1.07296
0.655259
0.472367
0.396988
0.376094
219.389
47.7656
18.35
8.91125
4.61358
2.43557
1.34565
0.815735
0.566331
0.454315
0.413343
229.625
53.0356
20.8714
10.3316
5.57914
3.09353
1.77661
1.08673
0.733971
0.559501
0.481639
245.915
60.3514
24.5653
12.4602
6.99995
4.08484
2.45965
1.54614
1.03836
0.761622
0.618669
271.544
70.7958
30.0177
15.7042
9.16525
5.62166
3.56411
2.33573
1.59917
1.16075
0.90768
313.254
86.5122
38.3429
20.8128
12.6261
8.11971
5.41962
3.7294
2.6513
1.96112
1.52848
386.962
112.069
51.8795
29.3162
18.5027
12.4423
8.71593
6.29798
4.68277
3.59057
2.85981
535.683
165.127
79.2271
46.1783
30.0819
20.9704
15.2895
11.5288
8.9507
7.15127
5.90649
979.545
283.314
147.272
94.2845
67.4723
51.5958
41.021
33.7393
28.5235
24.3879
20.7806
60.6727
25.0959
15.5902
10.0263
5.84407
3.07357
1.49056
0.689844
0.315029
0.145066
0.0710924
72.9361
26.5882
14.0978
8.38429
4.70676
2.41648
1.15474
0.531052
0.241658
0.111562
0.0550455
67.8462
26.0304
13.7575
8.13264
4.58602
2.3656
1.12538
0.509453
0.225847
0.100397
0.0465807
58.7031
23.7327
13.2981
8.12034
4.71752
2.49663
1.20249
0.540936
0.23444
0.100801
0.0450738
50.9565
21.1992
12.6671
8.07919
4.875
2.66648
1.31098
0.590899
0.252269
0.105705
0.0460259
44.98
19.0208
11.9966
7.97483
4.99001
2.81867
1.4171
0.64341
0.2728
0.112561
0.0482564
39.9219
17.1489
11.3165
7.79963
5.03758
2.92798
1.50393
0.690098
0.292728
0.120125
0.0509579
36.4023
15.6658
10.6472
7.55092
5.0089
2.98345
1.5628
0.725997
0.309626
0.127267
0.054531
33.7075
14.549
10.0386
7.26801
4.92678
2.99426
1.59578
0.750907
0.323162
0.133873
0.0580093
31.5259
13.6898
9.52989
7.00153
4.8273
2.98227
1.6131
0.768476
0.334226
0.139961
0.0611685
29.6625
13.0091
9.10649
6.76274
4.72558
2.95955
1.62162
0.781643
0.34364
0.145463
0.0645406
28.2897
12.4536
8.73903
6.5435
4.62243
2.92928
1.62413
0.791863
0.351988
0.150605
0.0675973
27.3545
12.0205
8.43416
6.35712
4.53299
2.90352
1.62799
0.802638
0.36071
0.155958
0.0705974
26.5962
11.7186
8.20781
6.22137
4.47554
2.89688
1.64222
0.818427
0.37158
0.162069
0.0741312
26.259
11.5228
8.03989
6.12573
4.44671
2.91075
1.66986
0.841644
0.385948
0.16957
0.0779002
26.3347
11.4507
7.93798
6.07931
4.45786
2.95638
1.7194
0.877272
0.406161
0.17938
0.0825686
26.7346
11.5552
7.93816
6.1053
4.53208
3.05561
1.80626
0.933561
0.435988
0.192802
0.0886013
27.6276
11.8148
8.03342
6.19802
4.66615
3.2154
1.94915
1.02845
0.484651
0.213276
0.0967784
29.1492
12.2897
8.25812
6.38233
4.88139
3.45517
2.16415
1.17662
0.564751
0.248807
0.110479
31.5306
13.0783
8.67429
6.70209
5.21316
3.80643
2.48255
1.40682
0.69678
0.310926
0.135257
35.2001
14.3915
9.4066
7.24857
5.72902
4.31997
2.94703
1.7583
0.913618
0.422007
0.18368
41.3559
16.5568
10.7722
8.25798
6.57885
5.08427
3.6164
2.28346
1.26589
0.623377
0.282797
50.9484
22.0212
14.0102
10.3726
8.1015
6.27724
4.59404
3.06224
1.83152
0.98743
0.489178
91.4813
38.8289
22.8127
15.7121
11.4756
8.53636
6.23816
4.32702
2.79303
1.67065
0.934038
28.1084
24.4171
21.1736
16.0214
10.3579
5.72103
2.82461
1.27245
0.553339
0.239456
0.111406
41.8098
28.1317
28.0167
23.4056
17.605
11.9335
6.68143
2.90986
1.1876
0.480963
0.215329
70.0882
36.3386
34.889
33.0022
25.9698
18.9145
12.5085
7.02467
2.94358
1.05033
0.412708
89.4275
43.9972
38.6754
41.0479
37.6666
28.5274
19.6991
12.3145
6.61588
2.74806
0.901541
101.636
48.4938
39.8447
42.3402
46.658
41.6358
30.5081
19.8078
11.5564
5.84769
2.2878
109.498
50.2301
38.8991
39.7356
45.5726
50.3964
43.3805
30.4358
18.6171
10.1355
4.77321
114.81
50.2979
37.1875
36.0082
40.1829
48.2608
51.4489
41.8211
27.7799
15.9719
8.1539
118.481
49.8842
35.7374
32.726
34.4792
41.3777
50.6037
49.5869
37.0713
22.9194
12.3734
122.022
49.5033
34.8897
30.3388
29.8869
34.4408
44.3464
51.3032
43.8743
29.611
17.1109
126.024
49.4901
34.7691
28.8656
26.688
29.0484
37.3301
48.1219
47.259
34.7433
21.4002
131.101
50.2717
35.425
28.2113
24.7714
25.5106
31.7893
43.6523
48.1221
37.912
24.5369
137.615
52.368
36.7894
28.3433
23.9309
23.5811
28.0652
38.8869
47.4358
39.3051
26.4103
146.832
55.7441
38.9242
29.2152
23.9282
22.8707
25.9785
33.958
45.5015
39.9027
26.6123
158.535
60.4112
41.8875
30.6906
24.3736
22.6292
24.7648
30.2114
38.2318
40.6572
25.6197
172.981
66.749
46.001
32.866
25.0652
22.2083
23.0679
26.4801
31.4675
35.1129
26.0357
191.943
75.283
51.6861
36.0281
26.2021
21.8545
21.2955
22.9396
25.6966
27.9136
25.6402
217.381
86.8145
59.679
40.7834
28.2721
22.0564
20.0511
20.2798
21.6143
23.1148
23.2701
252.808
102.554
71.4427
48.5809
32.5049
23.8193
20.2124
19.2137
19.4099
19.9239
20.0043
303.418
124.935
91.2273
64.1817
43.2947
30.8684
25.06
22.8805
22.3077
22.0271
21.1655
330.257
144.405
115.371
90.302
66.4198
49.4129
40.4269
37.0613
36.475
34.7655
33.4697
314.811
138.957
115.056
95.3261
75.6673
59.2492
48.6783
42.3544
33.9596
26.366
19.5729
309.794
134.207
111.243
95.0786
78.7473
63.2938
50.7477
37.549
25.9666
17.7656
11.5322
359.702
133.834
106.071
87.3077
70.8553
53.3935
36.991
24.5949
16.0219
10.2313
6.33085
390.74
141.287
85.6813
57.2667
37.9375
25.4676
17.042
11.277
7.2954
4.54227
2.69151
988.061
349.067
93.4125
17.7891
3.65433
0.842126
0.218993
0.0703469
0.0309883
0.0187035
0.01409
665.716
163.08
47.3135
14.6126
4.17307
1.13021
0.301269
0.0880289
0.0338922
0.0186531
0.0134951
650.288
164.17
43.5126
15.3222
4.83396
1.40698
0.385848
0.111105
0.0396578
0.0198764
0.0134879
608.964
153.637
38.9292
14.7083
4.79085
1.4953
0.432862
0.128736
0.0452826
0.0216088
0.01408
563.24
133.788
34.4953
13.3765
4.36757
1.4553
0.445191
0.139465
0.0502488
0.0236441
0.0149379
525.884
114.641
30.5772
11.8628
3.88468
1.34735
0.431455
0.142478
0.0533634
0.0252622
0.015746
493.182
100.275
27.387
10.4168
3.43952
1.21883
0.404049
0.13975
0.0545844
0.0263498
0.0163565
461.554
89.001
24.6424
9.17064
3.05218
1.09257
0.371459
0.133551
0.0543031
0.0269119
0.0169641
436.043
80.2996
22.3405
8.16426
2.73277
0.981901
0.339906
0.12613
0.0532187
0.0271943
0.0174815
419.648
74.1788
20.6028
7.41321
2.48879
0.893934
0.313223
0.119144
0.0518994
0.0273064
0.0178232
407.832
69.9645
19.297
6.85648
2.3064
0.826727
0.292095
0.113295
0.0506791
0.0273446
0.0181104
396.963
66.797
18.2277
6.42133
2.16619
0.775466
0.275917
0.108792
0.0497623
0.0274165
0.0183315
390.42
64.7152
17.4413
6.11144
2.06955
0.740688
0.265085
0.105966
0.0493583
0.0276503
0.0186265
386.294
66.3323
17.431
6.02475
2.03425
0.725141
0.260542
0.105245
0.0496922
0.0281689
0.0190472
384.527
68.5383
17.9106
6.13793
2.09504
0.746844
0.269264
0.108973
0.051611
0.0293163
0.0197843
386.165
71.9306
19.0887
6.52567
2.27208
0.817027
0.297591
0.120055
0.0563848
0.0316728
0.0210729
391.37
78.1763
21.5367
7.40033
2.64595
0.96834
0.358714
0.143855
0.0661152
0.0361018
0.0233157
402.589
86.0851
25.1585
8.87844
3.30004
1.24841
0.476407
0.191483
0.0856401
0.0446716
0.0274754
421.913
96.5937
30.3726
11.2657
4.42558
1.76541
0.707425
0.2909
0.12793
0.0631688
0.0361418
453.38
111.07
37.9014
15.0707
6.37373
2.74135
1.18224
0.513615
0.229718
0.109509
0.0578205
504.934
131.834
48.9364
21.1361
9.7742
4.62324
2.19712
1.04324
0.497973
0.242697
0.123747
593.599
162.306
65.4634
30.9529
15.784
8.29884
4.40463
2.33583
1.23502
0.653534
0.349348
755.704
211.694
92.3837
47.7914
26.8234
15.6172
9.2266
5.46586
3.22922
1.90077
1.11743
1172.76
246.679
132.2
79.8301
50.2625
32.2239
20.8293
13.4874
8.71713
5.61391
3.60314
1341.88
599.075
108.649
25.5046
5.27888
1.12759
0.266118
0.0809848
0.03569
0.0219571
0.0166595
1897.69
1164.59
184.666
40.5747
8.8812
2.01121
0.446564
0.119174
0.0468807
0.0274231
0.0204496
1949.1
1203.72
235.461
52.0066
11.8375
3.00689
0.696328
0.179252
0.0657187
0.0372702
0.0279847
1694.1
1020.23
223.917
54.5323
13.1547
3.76151
0.941472
0.249143
0.0902746
0.0513896
0.0398117
1385.64
830.957
199.941
50.6604
13.2431
4.13113
1.11987
0.314454
0.118075
0.069673
0.0564176
1126.59
690.803
174.571
45.0643
12.672
4.17539
1.21468
0.365335
0.146447
0.0930726
0.0826948
925.291
590.093
152.444
39.8414
11.8415
4.03123
1.24446
0.400297
0.1734
0.118985
0.111883
771.118
511.683
133.477
35.3205
10.9432
3.80516
1.2347
0.422826
0.198645
0.147372
0.148948
655.995
449.183
117.763
31.5758
10.1018
3.56889
1.2086
0.438198
0.222382
0.177641
0.193905
569.047
399.08
105.026
28.5494
9.38129
3.36033
1.18212
0.45122
0.245092
0.208097
0.244384
502.527
360.728
95.4824
26.3914
8.83634
3.20305
1.16748
0.465685
0.267419
0.236284
0.288845
449.918
327.589
89.032
25.2859
8.61618
3.16749
1.20011
0.498361
0.295861
0.265232
0.328796
408.96
299.021
85.1112
25.1312
8.74299
3.26773
1.28637
0.553232
0.332398
0.29614
0.365163
376.549
275.011
84.0129
26.1655
9.3295
3.55528
1.44723
0.640327
0.381378
0.330536
0.396581
350.894
255.063
84.2862
28.0531
10.388
4.07475
1.71174
0.775814
0.451179
0.371773
0.424499
331.096
238.66
85.9121
30.8973
12.0603
4.93407
2.14545
0.995189
0.560275
0.428681
0.452474
316.228
225.567
89.0723
34.9206
14.5781
6.3163
2.87078
1.37097
0.749233
0.52259
0.49275
306.081
215.797
93.7744
40.3002
18.2116
8.491
4.09906
2.04602
1.10737
0.706006
0.574831
300.545
209.369
100.31
47.4223
23.3833
11.8773
6.19411
3.29996
1.8321
1.10979
0.783208
299.626
206.543
109.321
57.0404
30.8497
17.1883
9.79506
5.66699
3.34418
2.04876
1.34406
303.548
206.8
121.599
70.4854
42.0783
25.8023
16.1186
10.1879
6.50935
4.2254
2.81355
309.862
214.421
139.579
90.5591
60.1717
40.6064
27.6429
18.9278
13.03
9.03304
6.32014
310.794
184.347
127.482
92.2545
68.3551
52.2432
40.0159
30.4306
22.9008
17.0372
12.5194
1410.19
644.353
348.905
210.44
135.356
89.3235
59.5152
39.7026
26.3877
17.4237
11.4123
37.6316
29.397
16.1442
4.64937
3.1209
3.56454
5.14571
16.2915
32.0258
14.2897
14.0545
10.8874
6.36383
2.90878
2.22077
7.222
14.4787
16.8417
8.15621
9.65525
8.79438
5.74733
3.03629
2.50817
7.48266
12.8748
11.9155
4.66914
6.3129
6.67294
5.07169
3.05811
2.88405
7.35305
10.2704
7.85168
41.0028
41.7801
40.9274
39.2693
37.7572
44.0515
45.0945
43.6645
39.8659
12.7539
12.3402
12.2656
12.4303
13.1741
14.7556
15.3839
15.5217
16.2338
6.28496
5.87374
6.13788
6.48826
6.7731
7.40964
7.5697
7.74429
9.21985
3.31615
2.88746
2.94621
3.2169
3.27784
3.52121
3.7674
4.17325
5.3129
0.00900731
0.00829568
0.00834791
0.00557979
0.459361
0.00755682
0.133135
0.00808827
0.00752333
0.00689116
0.458072
0.00812151
0.0102833
0.00520087
0.0145988
0.00728414
0.00600429
0.00554463
0.00724755
0.00711225
0.00664845
0.060113
0.00851788
0.118915
0.00792397
0.00513424
0.00993002
0.124541
2.13808
0.386365
0.00711261
0.00641244
0.00722166
0.00806948
0.00677233
0.00826576
0.10849
0.00790607
0.0081618
0.00758718
0.165587
0.00810005
0.04275
0.0084924
0.744279
0.3979
0.0186363
0.521838
0.00689738
0.00730298
0.390462
0.00761037
0.0829412
0.0435038
0.00729506
0.00667679
0.0584756
0.0076339
2.05418
0.015801
0.0862332
0.061134
0.519477
0.0349178
0.211023
0.00714948
0.375065
0.00720161
0.00829762
0.00687879
0.00515873
0.00701575
0.0146619
0.00728027
0.0177355
0.00701796
0.0839368
0.00827705
0.0560666
1.10363
0.24187
0.0262231
0.00793654
0.0083803
0.00696871
0.0146434
3.1311
0.0375501
0.0194939
0.100279
0.00809313
0.00767547
0.166055
0.00717072
1.08202
0.705795
0.0100388
0.00616396
0.0247242
0.00710358
0.00775667
0.402331
0.00676107
0.00616246
0.0149301
0.00811601
0.00460243
0.00845246
0.0142365
0.00663237
0.00797985
0.00815023
0.00714528
0.00653559
0.0220122
0.00769068
0.00753041
0.00731232
0.00794683
0.00671833
0.00700271
0.00723439
0.00699221
0.00501524
0.331726
0.00848582
0.290125
0.0047345
0.00628876
0.00895411
0.00780589
0.0157789
0.472209
0.00700786
0.00833891
0.00816437
0.065423
0.0158207
0.406251
0.00730138
0.0458087
0.00662494
0.211175
0.00868361
0.00749573
0.0251806
0.0168025
0.00720161
0.00700813
0.00710186
0.00717936
0.00768369
0.0277723
0.00719543
0.00612436
0.0218004
0.0196442
0.0421743
0.00546757
0.00746286
0.00549139
0.0333704
0.00701596
0.00771204
0.385706
0.0248745
0.0202073
0.00807121
0.00660546
0.18929
0.00594554
0.00544882
0.00671293
0.00646221
0.006404
0.00641221
0.00579649
0.0290663
0.770296
0.00695355
0.00720618
0.0647085
0.00849667
0.116014
0.0079505
0.0124061
0.00713481
0.00726558
0.00825317
0.0800707
0.013396
0.00531155
0.00718928
0.143452
0.00832458
0.00758957
0.00740139
0.0256027
0.00964824
0.00856732
0.0268805
0.00728079
0.0128618
0.00770596
0.0083847
0.0370437
0.00717283
0.00625638
0.00736213
0.00740472
0.116283
0.00759331
0.00827291
0.00669812
0.00792341
0.04222
0.00797661
0.02469
0.00717164
0.0112435
0.0111895
0.0065996
0.00968366
0.0223439
0.00481883
0.00765124
0.077673
0.0227472
0.0117372
0.151262
0.0413721
0.00713849
0.00716417
0.00723124
0.0279127
0.97478
0.323708
0.00844979
0.00814247
0.00810397
0.0247893
0.0326226
0.00613165
0.108163
0.00739002
0.0396934
0.00800909
0.00813756
0.50531
0.323556
0.0080719
0.118676
0.00999024
0.00727387
0.00602114
0.00744061
0.00675024
0.00785556
0.0196249
0.00712135
0.00835633
0.0100332
0.00737908
0.0081964
0.0079734
0.0166977
0.00661923
0.00750303
0.0176526
0.006946
0.221356
0.00728391
0.0072608
0.0175412
0.00755682
0.00735373
0.00532278
0.00776439
0.00691301
0.0185591
0.00704886
0.00827302
0.244942
0.299627
0.00603318
0.00757793
1.31152
0.00823595
0.00681223
0.0455267
0.00833778
0.116001
0.00790465
0.00967325
0.00856394
0.00739055
0.00666146
0.00816302
0.00677465
0.00534639
0.00778895
0.00910668
0.00704824
0.393702
0.00678862
0.00660686
0.00827863
0.0634093
0.0622486
0.00741703
0.087391
0.00816078
0.00643935
0.00698139
0.0856674
0.00655741
0.0071167
0.0145471
0.00670519
0.00720129
0.00712378
0.174085
0.00745924
0.00538393
0.0240128
0.00708775
0.00779098
0.0059612
0.00709318
0.188562
0.00728692
0.529623
0.0803842
0.00846211
0.0114578
0.78136
0.016315
0.00823758
0.00785036
0.00597055
0.0308783
0.114124
0.00725576
0.0259504
0.197329
0.0645269
0.0221147
0.00753339
0.0923756
0.331987
0.112984
0.00596047
0.00700856
0.00685048
0.0132363
0.00860266
0.0119261
0.00695711
0.00849696
0.221951
0.00986602
0.00538291
0.00800314
0.00799171
0.00726399
0.0190854
0.00512625
0.0170147
0.138958
0.00696361
0.00774085
0.112459
0.661559
0.00477906
0.01195
0.00830855
0.00905514
0.00673415
0.00751294
0.00711909
0.221254
0.00754055
0.0247645
0.0076758
0.00527459
0.330022
0.00849204
0.00478411
0.0316279
0.0230105
0.00771917
0.0534778
0.004655
0.00761022
0.34681
0.23096
0.00788278
0.00720874
0.00835298
0.0362778
0.0193326
0.00764545
0.00850488
0.046941
0.00787788
0.379434
0.0542191
0.0291342
0.00727728
0.172501
0.0075896
0.00720062
0.010635
0.0101092
0.0302913
0.00638557
0.0135761
0.00742377
0.00485338
0.0428734
0.281942
0.00615696
0.155353
0.0126351
0.00627752
0.00662126
0.0072288
0.0281349
0.00955454
0.281022
0.00790348
0.0245394
0.00508717
0.00662498
0.00882061
0.0156264
0.192222
0.408978
0.0050648
0.00859985
0.00596415
2.50014
0.00567565
0.0087752
0.00702481
0.0286656
0.0202416
0.0405446
0.00740782
0.0350695
0.00776214
0.00833563
0.0079368
0.0321619
0.0202185
0.147604
0.00590335
0.0286345
0.0266178
0.00825876
0.0073945
0.307949
0.00505351
0.00599175
0.00750809
0.144375
0.116026
0.0902244
0.0916647
0.00727434
0.00657094
0.017237
0.00703585
0.0809784
0.00721581
0.00822768
0.00731414
0.034765
0.0336321
0.00714593
0.00778248
0.00669693
0.0955741
0.068075
0.0084503
0.0243507
0.238809
0.00941937
0.0178133
0.00740284
0.0272998
0.00758113
0.00718696
0.00763145
0.0077655
0.00644578
0.00715687
0.0053548
0.00853334
0.00745675
0.0056566
0.00592986
0.00806372
0.00806923
0.50281
0.0230981
0.0132628
0.00729916
0.304047
0.00835631
0.27374
0.0162906
0.02481
0.0208084
0.0079142
0.330555
0.0328655
0.00532546
0.00779156
0.0063478
0.00666809
0.00826702
0.0076877
0.00818243
0.00694877
0.215901
0.00800216
0.00744627
0.086242
0.00776163
0.176378
0.00697675
0.0500236
0.00560864
0.0192768
0.00856275
0.00786025
0.00840513
0.126939
0.0347565
0.00795653
0.00791615
0.00499382
0.0083399
0.00628762
0.00830359
0.24817
0.00681545
0.0465658
0.00868629
0.00758688
0.443619
0.285421
0.00682251
0.00659907
0.00698855
0.00829917
0.0155483
0.0395069
0.00721443
0.00858619
0.257333
0.670669
0.00791778
0.00728849
0.00827569
0.0200651
0.337731
0.0191619
0.00807845
0.00750405
0.29763
0.007165
0.00871917
0.00679162
0.0356451
0.355211
0.00772399
0.0206231
0.00781491
0.0344159
0.0073539
0.0183667
0.00605273
0.00641808
0.0892929
0.0339619
0.00841209
0.00854587
1.08082
0.0076261
0.00615874
0.0093109
0.0344607
0.0179338
0.0301747
0.00759461
0.00684674
0.00776306
0.0079184
0.665353
0.0156716
0.0120666
0.00711811
0.00794931
0.0437581
0.00710536
0.00723166
0.00727157
0.0069664
0.00837464
0.0154745
0.0341061
0.0181304
0.00621893
0.0104996
0.00725198
0.0582111
0.00697979
0.00781575
0.566307
0.166297
0.00755303
0.00755889
0.0621887
0.00672827
0.00737713
0.01946
0.00831006
0.00687729
0.0101674
0.00931238
0.00828718
0.00493102
0.00568846
0.0394838
0.11263
0.0282092
0.0317597
0.00626319
0.0206629
0.0275891
0.00851762
0.00836296
0.00684829
0.0248434
0.00607147
0.00701623
0.00701938
0.00511056
0.0453387
0.445414
0.00608636
0.00809134
0.00769748
0.0123372
0.00812546
0.00723622
0.0069364
0.0132045
0.00693172
0.00736533
0.00696313
0.00825166
0.011908
0.0557769
0.146579
0.00697567
0.00710166
0.00754998
0.0514891
0.00717609
0.128988
0.0070946
0.0210971
0.147609
0.00771824
0.0192502
0.00849545
0.00699721
0.0173002
0.00848862
0.495908
0.00556068
0.00666397
0.00841682
0.0125129
0.00507936
0.0332886
0.286962
0.00750442
0.00640263
0.00840334
0.00784574
0.00698306
0.0214846
0.00812537
0.00763266
0.00760633
0.0100483
0.0294511
0.00816716
0.00761814
0.00750544
0.0214277
0.005498
0.0064917
0.0113681
0.0974861
0.0096589
0.00638203
0.00638627
0.00843166
0.0390634
0.00655213
0.142487
0.00784444
0.00683053
0.00792924
0.00727432
0.0815346
0.0127128
0.0282672
0.00518594
0.00717744
0.00685527
0.00669168
0.0272591
0.00824083
0.366646
0.0451269
0.24099
0.00664075
0.010261
0.0275676
0.017539
0.00724339
0.00883004
0.033843
0.0123658
0.00803878
0.00540914
0.263292
0.00811604
0.158111
0.00922034
0.00732572
0.0204465
0.00753746
0.00715737
0.00682157
0.00773913
0.00706608
0.00479625
0.00818591
0.00703561
0.00698075
0.00935654
0.0229594
0.142226
0.0135342
0.00722885
0.168686
0.328697
0.00782325
0.00485319
0.00710881
0.0327728
0.0100407
0.0442128
0.00813651
0.0215764
0.00873536
0.00894612
0.00721331
0.00695088
0.00766142
0.0132738
0.0634274
0.00860508
0.0079149
0.00735143
0.252107
0.178522
0.0075564
0.00819057
0.00699665
0.00761791
0.00813794
0.00822177
0.00837461
0.00789924
0.00737489
0.00562634
0.0505316
0.0911981
0.00481672
0.0075795
0.00769081
0.00795206
0.00671761
0.213474
0.00827529
0.00627879
0.00755458
0.259631
0.120576
0.0353686
0.00778914
0.0172206
0.00770383
0.00784237
0.271197
0.00715187
0.00815406
0.00696474
0.0345206
0.00602363
0.00593321
0.00814103
0.0105969
0.124507
0.0196884
0.00815034
0.00467264
0.0395824
0.0293144
0.0201434
0.00842848
0.00719443
0.00543404
0.013925
0.0297478
0.00829316
0.00696379
0.00727378
0.0073332
0.00824053
0.0125665
0.00625543
0.15837
0.194243
0.0463547
0.00809404
0.468346
0.00853058
0.00709335
0.00703583
0.00791861
0.00766714
0.00768804
0.0140505
0.0598044
0.0218589
0.00765469
0.0117832
0.00767747
0.00859847
0.00729825
0.0075438
0.00712872
0.00794012
0.00814708
0.00719618
0.873128
0.00753936
0.00714018
0.0134091
0.155389
0.00717199
0.00796376
0.0184629
0.857306
0.00712057
0.00783177
0.0110649
0.0134105
0.00845946
0.00809069
0.00703373
0.00860599
0.0536053
0.00826841
0.0837613
0.0097455
0.114282
0.00820391
0.00821025
0.00627712
0.0288577
0.00776254
0.00725398
0.00732836
0.00831225
0.00614284
0.20875
0.00668095
0.0267365
0.301528
0.0328438
0.00604617
0.0423406
0.0085092
0.00814325
0.00512143
0.00860931
0.00614818
0.00761567
0.284288
0.00717036
0.0106994
0.00731419
0.0046497
0.0053701
0.0196398
0.00775866
0.00693613
0.00804693
0.278257
0.0595924
0.325468
0.00709445
0.0100062
0.00696846
0.00776792
0.330587
0.00753499
0.00830255
0.00609851
0.238109
0.0323278
0.0385525
0.00683684
0.00535758
0.0427495
0.510767
0.00802077
0.00711925
0.345672
0.00759274
0.016995
0.00792199
0.079683
0.0083692
0.0268119
0.00830526
0.00731514
0.00844661
0.00764867
0.0135947
0.0066344
0.00714242
0.0078072
0.00720207
0.0101034
0.0075654
0.0398308
0.00678563
0.00683918
0.331204
0.0233567
0.0445611
0.00832515
0.0359666
0.00748217
0.00827485
0.0265798
0.00646107
0.0381719
0.355994
0.00609909
0.013327
0.00653422
0.00740078
0.0179584
0.0158851
0.00711131
0.0424901
0.00813362
0.992129
0.034328
0.652434
0.00813363
0.0209429
0.0117551
0.314894
0.00769984
0.00539528
0.00855523
0.00459787
0.117846
0.00815677
0.00890573
0.0195903
0.0282115
0.209479
0.00809393
0.00781662
0.00735795
0.0435529
0.00711341
0.155269
0.0114216
0.0490511
0.340508
0.00827462
0.0162359
0.0317502
0.029584
0.0781867
0.0287425
0.00756255
0.0114231
0.0049548
0.00810677
0.00778675
0.00856472
0.013036
0.00662161
0.00831261
0.00556666
0.0469866
0.00487599
0.00803106
0.104729
0.014007
0.00689566
0.0106839
0.00813687
0.00701961
0.00730829
0.18146
0.00733572
0.0223796
0.00616983
0.0238049
0.0079744
0.00695491
0.0079645
0.00752345
0.0183724
0.0564846
0.0477366
0.621149
0.27789
0.497792
0.00680906
0.00692086
0.00940208
0.0083878
0.00585184
0.060063
0.00686151
0.0871296
0.00614333
0.170281
0.00695269
0.00490839
0.0081227
0.294354
0.00862383
0.462088
0.00696184
0.00736174
0.0456267
0.0574939
0.00691372
0.0254392
0.0400872
0.0492921
0.119688
0.0199399
0.217373
0.00886998
0.00721864
0.389601
0.0187556
0.00832485
0.00632539
0.00744213
0.00503409
0.00527946
0.00986709
0.00773193
0.0168565
0.61584
0.0075127
0.0072064
0.00742321
0.00818719
0.00993605
0.00542267
0.00690521
0.0055701
0.379028
0.00739114
0.609334
0.0704764
0.00781414
0.131032
0.057044
0.0177391
0.00668483
0.113201
0.00767914
0.00804703
0.342383
0.00750493
0.00824393
0.00573375
0.00809888
0.00729768
0.185333
0.00734468
0.681253
0.0134592
0.0196031
0.00723942
0.0123984
0.027414
0.00623863
0.288969
0.0077654
0.0115006
0.0291731
0.00719048
0.0169368
0.0304069
0.0204377
0.00747397
0.0331696
0.064375
0.00644859
0.00733362
0.0276051
0.00695008
0.0193501
0.0239488
0.354499
0.00712946
0.00860297
0.00797593
0.00622622
0.00840611
0.00479124
0.0373001
1.1397
0.00791538
0.0240134
0.0280485
0.00819742
0.0343178
0.00710614
0.00710457
2.43945
0.0394229
0.344024
0.163534
0.00815932
0.00793183
0.0220438
0.222734
0.174523
0.247798
0.00494427
0.0081673
0.00718711
0.00630813
0.192658
0.0476952
0.00876502
0.00737916
0.0279713
0.024069
0.035973
0.00682692
0.0895322
0.216445
0.0063825
0.00560619
0.00726282
0.00715323
0.21561
0.00545701
0.00841524
0.0151214
0.00771818
0.00653791
0.370346
0.00898476
0.0106293
0.0330349
0.0457782
0.0074995
0.177174
0.019331
0.00836183
0.00453833
0.020618
0.00661437
0.296891
0.00807337
0.00768295
0.0069219
0.101288
0.00614235
0.0074548
0.0332013
0.00833807
0.00814782
0.00859552
0.00527346
0.00771126
0.0334222
0.0183394
0.00815356
0.470467
0.0361139
0.00804639
0.0315318
0.00732454
0.0051784
0.0325049
0.00802745
0.00816364
0.00788764
0.00745968
0.00793915
0.00719297
0.0080897
0.0491333
0.0374996
0.00616363
0.0467596
0.00688781
0.0199569
0.0179467
0.00855483
0.00698381
0.0158914
0.0048797
0.00674408
0.00588279
0.00667357
0.00680037
0.00796082
0.0376138
0.137939
0.0240737
0.0960909
0.00859361
0.0133163
0.324704
0.0165509
0.012878
0.00758589
0.0336971
0.0373493
0.127544
0.00475908
0.0178373
0.0322315
0.00661826
0.00796151
1.01883
0.0048375
0.00670961
0.0291755
0.0279945
0.00584517
0.0121294
0.0143295
0.00458152
0.571265
1.14131
0.00790361
0.00720465
0.0220586
0.0615595
0.0104561
0.00811665
0.00639616
0.00839099
0.00715441
0.0819556
0.00761306
0.00845227
0.137217
0.00847039
0.00728112
0.00770483
0.00758033
0.00680414
0.0085772
0.00715672
0.0130107
0.00703999
0.00879544
0.00803321
0.0309085
0.00818357
0.0195656
0.00770327
0.0209389
0.00837311
0.00768007
0.059533
0.24825
0.00706482
0.00782069
0.00775445
0.0195895
0.00826778
0.00716202
0.00823644
0.00738718
0.00621156
0.0072684
0.0309987
0.00512352
0.0627952
0.00847498
0.00876334
0.00789982
0.00670709
0.00741234
0.00845172
0.00802816
0.170798
0.00719691
0.0164133
0.00789839
0.00800597
0.468931
0.00844565
0.00855164
0.136436
0.230058
0.0143209
0.00754302
0.019908
0.00789865
0.0313896
0.0109981
0.0111797
0.00737635
0.00628059
0.0269629
0.00763953
0.0321269
0.00727676
0.0153457
0.0269596
0.00731024
0.00810585
0.00716914
0.128173
0.0162843
0.00498754
0.0341863
0.00642645
0.00596925
0.00840092
0.0104292
0.0301798
0.00751089
0.00812244
0.0440761
0.00703799
0.00694711
0.00683253
0.00546501
0.00789356
0.028135
0.0303629
0.0068492
0.0177961
0.00798257
0.00841645
0.00700914
1.03287
0.0098569
0.006809
0.141166
0.032151
0.00820455
0.00706994
0.0289641
0.010579
0.00663668
0.00715786
0.014417
0.0365696
0.00753718
0.00693942
0.0740283
0.00714718
0.00830192
0.00730909
0.00685575
0.00776694
0.0243628
0.00762645
0.0370632
0.00643325
0.0134009
0.00812969
0.00502469
0.0284316
0.00689101
0.0188278
0.00764517
0.00708237
0.0394526
0.0136491
0.00562702
0.0084554
0.0071871
0.33313
0.00753569
0.00717578
2.00592
0.00675747
0.00716236
0.00731491
0.00716925
0.006445
0.00634714
0.0156991
0.00513271
0.0160518
0.00716047
0.00760424
0.0155544
0.00452301
0.00748405
0.00647119
0.00564195
0.00728762
0.322704
0.00855318
0.0262114
0.00746759
0.00686396
0.00585227
0.00727152
0.0124647
0.00795482
0.00722342
0.00670496
0.00756537
0.00836209
0.0355126
0.0226439
0.0111363
0.0109647
0.0432011
0.00684473
0.0075642
0.00743922
0.211377
0.00725382
0.00672063
0.334799
0.00727353
0.246167
0.160239
0.00709001
0.00810269
0.00672638
0.00536439
0.00493668
0.00703887
0.00796891
0.0206758
0.0374487
0.00469981
0.0349407
0.00782721
0.069463
0.0895142
1.05487
0.0105662
0.0117784
0.00489354
0.00828931
0.00684643
0.0248473
0.00790058
0.0110074
0.0052478
0.0133927
0.00522518
0.0586751
0.0244298
0.0240412
0.248702
0.00782305
0.343253
0.00999552
0.00667275
0.00596418
0.00875457
0.008403
0.596539
0.00783096
0.235546