/*--------------------------------*- C++ -*----------------------------------*\
| =========                 |                                                 |
| \\      /  F ield         | OpenFOAM: The Open Source CFD Toolbox           |
|  \\    /   O peration     | Version:  3.0.1                                 |
|   \\  /    A nd           | Web:      www.OpenFOAM.org                      |
|    \\/     M anipulation  |                                                 |
\*---------------------------------------------------------------------------*/
FoamFile
{
    version     2.0;
    format      ascii;
    class       volScalarField;
    location    "0.945026";
    object      epsilon;
}
// * * * * * * * * * * * * * * * * * * * * * * * * * * * * * * * * * * * * * //

dimensions      [0 2 -3 0 0 0 0];

internalField   nonuniform List<scalar> 
21246
(
316.587
176.187
27.0283
6.28101
1.70423
0.740836
0.495052
0.416327
0.388368
0.379994
0.380543
473.85
323.452
57.5424
10.0212
2.35906
0.889694
0.528698
0.420439
0.382307
0.368409
0.36371
558.551
335.269
84.3489
17.0025
2.96961
1.05324
0.566861
0.425162
0.375285
0.35531
0.344751
559.647
312.767
94.964
21.8508
3.59362
1.20039
0.601548
0.429125
0.368262
0.343125
0.328317
514.013
297.798
99.1465
24.8362
4.36552
1.3234
0.631255
0.432918
0.362208
0.333141
0.316723
450.841
290.065
103.592
28.4057
5.62241
1.49943
0.660793
0.437828
0.357943
0.325575
0.308552
380.161
286.453
109.496
33.1036
7.48086
1.85782
0.72233
0.445225
0.3558
0.320164
0.302459
309.127
285.19
116.032
38.3957
9.86195
2.44952
0.839246
0.466629
0.357524
0.316634
0.298425
246.305
284.612
123.917
44.4745
12.8367
3.36391
1.05156
0.509924
0.365217
0.315891
0.295924
194.446
283.292
134.45
52.1298
16.7449
4.77154
1.43609
0.598323
0.383782
0.318388
0.294879
152.058
282.467
146.965
61.2311
21.6032
6.76375
2.07446
0.767898
0.423802
0.326521
0.295558
120.01
283.877
160.784
71.2408
27.133
9.28952
3.01512
1.05973
0.502587
0.345501
0.299201
99.6699
285.473
176.55
82.7195
33.5521
12.4304
4.33416
1.53156
0.64887
0.38587
0.308989
89.5532
284.199
194.362
96.5849
41.3688
16.3946
6.14838
2.26405
0.908724
0.467803
0.331951
89.1581
283.606
213.693
112.637
50.5363
21.172
8.49406
3.31827
1.33436
0.621778
0.381785
98.1241
280.966
233.5
131.636
61.7335
27.0813
11.5188
4.79301
1.99951
0.894965
0.483169
114.366
273.066
250.858
154.201
76.1222
34.811
15.5596
6.86826
3.01873
1.36291
0.680365
131.139
257.243
260.392
178.752
94.3632
45.0834
21.0633
9.80754
4.56073
2.13874
1.04681
147.3
236.435
257.762
201.475
116.692
59.0101
28.8804
14.135
6.94341
3.42422
1.7137
162.381
212.855
240.617
214.899
141.113
77.6751
40.4099
20.867
10.813
5.62162
2.93521
176.189
183.928
209.015
210.986
162.472
101.6
57.8966
32.009
17.5593
9.62289
5.27096
228.959
164.976
178.242
198.127
177.745
130.359
84.2823
51.0966
30.0612
17.4745
10.0746
260.796
145.703
145.688
151.787
148.705
130.598
101.997
72.1379
47.7804
30.5767
18.9982
530.755
574.322
425.088
349.678
276.636
207.354
148.146
101.676
68.5322
45.8714
30.1356
243.248
94.2245
20.9635
4.2491
1.32072
0.666474
0.479472
0.414881
0.392098
0.387569
0.393088
267.616
72.7152
14.7154
4.49501
1.49265
0.726163
0.500485
0.422156
0.394387
0.388403
0.394229
306.239
91.2271
14.2486
5.25089
1.85528
0.884206
0.559882
0.444145
0.401247
0.388731
0.391766
308.255
89.3644
13.4465
5.39683
1.94342
0.950549
0.587915
0.450331
0.39587
0.377061
0.376951
294.442
75.9686
12.7644
5.3893
1.95602
0.97246
0.589635
0.443044
0.384689
0.364609
0.36388
278.676
63.2126
12.0258
5.10259
1.87212
0.954569
0.575323
0.43034
0.371928
0.352218
0.352462
264.474
53.5474
11.3068
4.73968
1.75964
0.919285
0.55226
0.413538
0.356389
0.337076
0.337914
250.969
46.3704
10.6192
4.38936
1.65757
0.880394
0.528275
0.396382
0.340379
0.320628
0.320551
240.902
41.0945
10.0544
4.11299
1.587
0.845242
0.50787
0.380971
0.325448
0.304656
0.303035
234.701
37.4156
9.62503
3.90852
1.54795
0.819909
0.492897
0.368346
0.312401
0.29002
0.286131
232.586
35.0343
9.38025
3.79749
1.53857
0.807998
0.484299
0.359116
0.301711
0.27744
0.271354
233.325
33.4775
9.25443
3.76218
1.55618
0.809689
0.48227
0.353563
0.293613
0.267135
0.258664
237.579
32.743
9.26881
3.80366
1.60588
0.827261
0.487904
0.352242
0.288368
0.259168
0.248287
243.115
34.6366
9.75343
3.99708
1.72406
0.874752
0.507864
0.357757
0.287183
0.254121
0.241125
250.477
37.7423
10.699
4.36191
1.93389
0.96854
0.55219
0.375249
0.292735
0.253383
0.237061
260.413
42.3651
12.2747
4.97834
2.26969
1.13242
0.634103
0.412547
0.308971
0.258899
0.236849
273.767
48.8709
14.7549
5.99501
2.8032
1.41017
0.780011
0.485776
0.345015
0.275651
0.243002
292.28
57.4876
18.4102
7.62505
3.65958
1.87989
1.04058
0.627856
0.421466
0.31609
0.262867
318.727
68.9159
23.6983
10.2135
5.06874
2.69242
1.51837
0.909007
0.58611
0.411988
0.317534
357.787
84.7139
31.4474
14.3476
7.45402
4.14656
2.428
1.48506
0.952514
0.64575
0.466753
418.934
107.924
43.2213
21.0729
11.5979
6.83611
4.22512
2.70824
1.79518
1.23242
0.879798
524.399
144.75
62.2413
32.4749
19.026
11.9501
7.8652
5.3585
3.75939
2.71134
2.01108
733.392
220.747
101.035
55.6547
34.2941
22.6877
15.7583
11.3626
8.45607
6.47476
5.0888
1344.95
380.651
195.979
122.713
85.0497
62.1201
46.7636
36.5966
29.503
24.2711
20.0061
954.723
474.986
221.371
118.759
63.5131
31.598
14.3702
6.40569
3.13804
1.82914
1.36595
911.514
481.887
271.766
154.991
87.137
45.1857
20.0534
7.3357
3.13724
1.68614
1.24423
578.435
381.402
262.884
168.501
102.959
57.9723
28.2606
10.9741
3.83017
1.62456
1.09352
255.839
271.759
224.599
162.681
108.559
66.2779
35.6205
15.6213
5.59665
1.93826
0.990135
92.0163
192.204
182.633
146.416
105.927
69.6793
40.7739
20.0455
7.97833
2.7022
1.05273
57.6708
134.231
145.266
126.124
97.6137
68.5445
43.1679
23.3672
10.397
3.78695
1.30817
46.2755
87.5218
111.908
104.586
85.7279
63.6927
42.7191
25.0335
12.2687
4.90454
1.69597
35.6345
51.498
80.9284
83.2647
72.1426
56.2787
39.8283
24.9098
13.2095
5.74809
2.08614
26.0379
31.4574
53.0032
63.4669
58.4544
47.6287
35.2983
23.2856
13.1426
6.12791
2.35222
19.0624
20.9838
33.6385
45.4665
45.6896
38.8401
29.9836
20.6579
12.2308
6.01047
2.42497
14.0568
14.598
21.9495
30.7983
34.303
30.6055
24.5113
17.4893
10.7267
5.47737
2.29601
10.7779
10.5346
14.7909
20.535
24.61
23.3018
19.3068
14.1651
8.90879
4.67674
2.02222
8.58651
7.84476
10.2724
13.7845
17.0865
17.1187
14.6623
11.0074
7.05766
3.78904
1.68766
6.93945
6.0365
7.39615
9.41938
11.6925
12.1627
10.7602
8.25693
5.39876
2.97114
1.36651
5.84029
4.85737
5.6021
6.66169
8.04086
8.47654
7.71343
6.07071
4.08005
2.32681
1.11959
5.15067
4.10758
4.51574
4.98131
5.70074
5.97714
5.56768
4.53629
3.18509
1.91638
0.979252
4.72048
3.64719
3.86976
3.98712
4.31401
4.47023
4.27827
3.66804
2.74414
1.76948
0.963663
4.4167
3.3723
3.4838
3.41919
3.58063
3.75031
3.77688
3.48057
2.80907
1.94314
1.1212
4.22061
3.22231
3.21615
3.09529
3.32967
3.77216
4.23125
4.28243
3.68009
2.6501
1.57226
4.14107
3.24331
3.02443
3.06399
3.8256
5.34802
7.25403
8.16161
7.18281
4.94071
2.8289
6.97013
4.24958
3.46671
4.39667
7.5894
13.5878
16.0895
16.0881
14.4967
11.388
6.82471
14.2715
6.12514
6.39002
14.4927
21.5674
23.1925
22.1569
19.926
17.4403
14.8663
11.3345
19.9084
30.2448
35.7926
38.0568
34.9965
29.7334
24.052
19.0904
15.4834
13.2823
11.4305
185.141
113.026
78.4696
54.9612
38.9348
27.5937
19.642
14.4155
11.3551
9.95515
9.36601
1158.47
318.867
169.487
97.5827
54.7693
28.6816
14.0525
6.77828
3.47971
2.05363
1.49328
871.737
234.583
137.78
92.4837
59.6541
34.6025
17.9419
8.74718
4.36809
2.43409
1.63326
378.84
153.467
105.572
84.8523
64.6573
42.6614
23.893
11.8968
5.77574
3.00993
1.83776
96.0383
62.729
63.2454
66.4429
62.7713
49.1376
31.0091
16.368
7.9359
3.92347
2.17241
28.4588
20.7989
27.6689
40.5492
50.6692
50.0508
37.9693
22.5862
11.4496
5.53574
2.86309
20.6415
13.7646
15.2665
21.8835
32.5044
40.6032
39.0145
28.1281
16.0837
8.12681
4.02481
20.301
13.355
13.0512
15.9128
22.4448
31.0371
34.7511
28.9005
18.2707
9.82516
5.10648
20.8571
13.7091
12.7749
14.3004
18.1911
24.7042
30.5148
28.6973
19.8381
11.3088
6.19027
21.8341
14.1725
12.8262
13.7149
16.2102
20.9408
26.5551
27.7663
21.0191
12.5345
7.17328
23.0883
14.6723
13.0303
13.3994
14.9229
18.3683
23.2557
25.9408
21.8407
13.6364
8.01214
24.5992
15.4042
13.4205
13.1521
13.8794
16.2898
20.3503
23.6796
21.669
14.707
8.71392
26.3923
16.3223
13.8607
12.9783
13.0561
14.53
17.6956
21.1698
20.7836
15.1711
9.37474
28.418
17.2441
14.3632
12.9845
12.4515
13.0654
15.288
18.5321
19.3692
15.1594
9.76715
30.7769
18.259
14.9677
13.1073
12.0245
11.9319
13.2474
15.9249
17.5893
14.7926
9.866
33.7133
19.4604
15.7102
13.3418
11.744
11.0739
11.6445
13.5596
15.5269
14.108
9.84971
37.5648
20.9226
16.6428
13.7165
11.5846
10.4098
10.4334
11.6381
13.3255
13.0403
9.9445
42.4772
22.771
17.898
14.3531
11.6386
9.93856
9.50095
10.1765
11.3736
11.6551
10.0161
49.088
25.2995
19.7756
15.6231
12.1724
9.78751
8.85875
9.09057
9.85298
10.2583
9.59089
58.3777
29.0142
22.9036
17.9578
13.4055
10.1241
8.56673
8.33378
8.71902
9.06243
8.89306
71.2876
34.6914
27.5972
21.3593
15.5506
11.1237
8.72316
7.9247
7.90552
8.03167
7.91711
85.9471
42.218
33.2275
25.6837
18.4236
12.6885
9.32433
7.89902
7.47088
7.35687
7.20926
112.398
52.3615
40.4325
29.9198
21.0451
14.2717
10.147
8.19451
7.44466
7.18695
7.09353
168.153
78.8984
46.928
32.2167
22.276
15.3089
10.9332
8.67302
7.7072
7.38439
7.45058
492.337
88.446
50.1461
31.4092
22.1423
15.9329
11.813
9.41532
8.21701
7.86656
8.00945
2410.74
812.851
317.707
114.772
37.6077
11.7487
3.61473
1.11138
0.349691
0.118813
0.0481487
1682.14
469.473
213.543
88.4239
32.9865
11.4329
3.74293
1.17625
0.364871
0.119297
0.046634
1029.47
364.673
179.066
84.378
34.5898
12.7475
4.33611
1.39403
0.435629
0.13964
0.0524004
711.253
268.862
145.922
79.6932
37.3367
14.8045
5.2211
1.71213
0.53827
0.170572
0.0616526
540.417
207.268
114.087
66.0428
33.4697
14.5072
5.46263
1.85302
0.582777
0.180919
0.0631401
443.864
164.851
92.6017
54.4357
27.9294
12.4805
4.8973
1.73592
0.572954
0.184918
0.0668467
378.374
136.437
76.8252
45.2855
23.5178
10.6815
4.3018
1.58072
0.543863
0.182852
0.067736
330.554
115.534
64.8377
38.095
19.8621
9.10093
3.73045
1.40991
0.503118
0.176215
0.069954
295.528
99.8893
55.6733
32.5561
16.9754
7.81417
3.24326
1.25458
0.463482
0.169595
0.0703415
269.408
88.1772
48.7416
28.3859
14.7894
6.8253
2.85786
1.1258
0.428251
0.162575
0.0689047
248.773
79.0811
43.3804
25.2048
13.1322
6.07412
2.56047
1.02299
0.398079
0.155158
0.0677476
232.844
71.7191
39.0795
22.6905
11.8397
5.49405
2.331
0.942616
0.373742
0.148937
0.0662981
221.636
65.8933
35.6799
20.7376
10.857
5.06146
2.1617
0.883605
0.356017
0.144549
0.0657448
214.17
61.5586
33.1033
19.3011
10.1625
4.76675
2.04977
0.845667
0.345187
0.142133
0.0660289
210.342
58.2263
31.0928
18.2297
9.68258
4.58182
1.98666
0.82715
0.341423
0.142147
0.0667201
210.489
55.8391
29.6109
17.5031
9.41239
4.50833
1.9748
0.829804
0.345799
0.144988
0.0683873
214.556
55.1408
28.8372
17.21
9.39989
4.56958
2.02637
0.859124
0.36063
0.151424
0.0712478
223.691
56.1248
28.7544
17.2808
9.68901
4.84815
2.19838
0.943267
0.397734
0.166339
0.0774766
239.476
59.2372
29.5716
17.8126
10.2955
5.36989
2.53098
1.11487
0.476247
0.199944
0.0908976
265.18
65.3211
31.6829
18.9948
11.3172
6.20501
3.08868
1.42474
0.627879
0.268957
0.119661
307.61
75.9093
35.741
21.1548
12.9203
7.46438
3.97363
1.96339
0.918854
0.413722
0.186026
382.601
92.4492
42.576
24.7538
15.3647
9.32687
5.34826
2.88681
1.48034
0.728306
0.349286
522.691
119.91
53.8351
30.75
19.3168
12.2645
7.58025
4.50956
2.58226
1.42781
0.766081
804.626
125.856
58.9031
36.9975
25.2026
17.3527
11.7491
7.74853
4.97142
3.10611
1.89578
2575.76
1582.77
601.595
216.181
69.9208
20.3637
5.48351
1.54172
0.455723
0.146677
0.0565047
2957.62
1784.52
905.923
411.941
168.544
53.1772
10.6686
2.65162
0.740049
0.220439
0.0774772
2014.71
1494.71
946.817
507.426
242.114
93.7489
24.2933
4.69497
1.23575
0.351275
0.115591
925.423
1239.77
905.447
542.209
285.049
125.393
40.6085
8.90817
1.99564
0.559696
0.1851
492.959
1281.36
915.674
568.575
314.087
149.055
55.669
14.9818
3.27854
0.863544
0.284023
575.752
1248.55
927.599
590.724
335.997
167.464
68.9276
21.7271
5.44371
1.33306
0.426545
647.861
1202.77
961.608
618.435
354.842
182.086
80.2418
28.5565
8.20531
2.15606
0.652016
656.956
1023.91
995.055
659.376
374.629
193.844
89.3776
34.9035
11.3276
3.28722
1.00062
609.316
830.545
972.591
705.014
397.82
204.25
96.6666
40.5238
14.5974
4.69435
1.49943
563.724
685.712
903.44
746.107
424.853
214.539
102.618
45.3871
17.8713
6.33805
2.16859
528.553
583.389
811.882
772.13
454.541
225.75
107.94
49.6785
21.1139
8.20573
3.03472
500.231
513.002
728.18
773.187
482.005
237.09
112.642
53.4092
24.2571
10.2746
4.10163
477.77
458.478
651.374
750.695
503.649
247.992
116.948
56.7584
27.3308
12.5508
5.41111
459.211
410.016
580.642
709.986
516.433
257.929
121.096
59.981
30.4405
15.0729
7.04889
449.449
368.819
514.59
655.074
516.979
264.883
124.835
63.1689
33.6872
17.9026
9.09387
446.184
336.498
448.749
586.622
502.664
266.808
127.48
66.4496
37.2848
21.2243
11.6625
448.127
308.466
385.748
496.318
473.93
261.877
128.857
70.0457
41.538
25.305
14.9889
457.667
283.267
325.836
396.839
417.17
250.739
128.917
74.5045
47.0257
30.6274
19.4482
481.215
262.484
268.755
305.675
326.079
239.326
130.136
81.5226
55.1201
38.2349
25.7489
532.975
250.683
218.741
227.087
240.286
217.8
140.264
94.6602
68.1375
49.5137
34.8441
659
263.658
193.237
182.052
190.206
190.13
152.914
107.479
79.5015
59.5768
43.2237
1127.76
395.291
289.79
250.26
221.266
205.959
165.11
122.351
90.5363
65.4123
44.9988
883.337
540.12
574.865
405.307
302.034
221.854
155.425
105.777
70.0223
45.3426
28.6466
1249.72
678.469
391.905
241.978
155.205
101.013
65.6378
42.2053
26.7345
16.6539
10.1787
74.9662
66.287
55.6032
40.2924
19.713
3.68433
2.88049
3.26436
4.4426
22.4454
21.2321
21.153
19.4355
13.9304
6.99146
2.34597
1.86008
6.2833
11.129
10.7356
11.878
12.9784
11.0838
6.26346
2.56151
1.99705
6.30254
6.25392
6.11344
6.87538
8.38119
8.30213
5.40423
2.64351
2.25053
5.9367
80.1646
79.9048
77.1729
78.143
71.8357
61.7571
50.3042
35.3152
15.9151
23.2785
24.2673
24.7854
24.0975
23.3124
21.9838
21.3307
19.0632
14.1932
11.9971
12.9148
13.1876
12.2403
11.5926
11.4131
12.4561
13.3576
12.1569
6.68472
7.36619
7.41043
6.71681
6.53426
6.64816
7.31073
8.63423
9.29739
0.00901797
0.00829404
0.00834741
0.00544894
0.464653
0.00755972
0.126423
0.00808533
0.00753521
0.0069393
0.467235
0.00812218
0.010421
0.00518091
0.0146133
0.00728409
0.00618176
0.00535402
0.0072475
0.00710209
0.00664316
0.0599691
0.00852222
0.12002
0.00792464
0.00511933
0.0100337
0.119143
1.5576
0.383452
0.00737188
0.00643621
0.00694801
0.00806528
0.00679496
0.00826393
0.109821
0.00790854
0.00781056
0.00759094
0.228126
0.00809683
0.037852
0.00849732
0.756785
0.268123
0.0187868
0.362312
0.0069274
0.00733253
0.388303
0.00760839
0.0254363
0.0385585
0.00732283
0.00667028
0.0570875
0.00762865
1.55111
0.0138614
0.114041
0.0186825
0.505991
0.0349635
0.23771
0.00713989
0.371256
0.00709716
0.00829666
0.00692162
0.00515179
0.00721496
0.014333
0.0081382
0.0125396
0.00715304
0.075328
0.00827915
0.0564038
1.02689
0.278844
0.0262963
0.00793305
0.00838041
0.00696515
0.0143309
2.36906
0.0205444
0.0196467
0.109043
0.00809155
0.00766178
0.229897
0.00735428
0.988372
0.524663
0.00649635
0.00594878
0.0246969
0.00743976
0.00787357
0.349663
0.00679942
0.00616903
0.0146575
0.0081183
0.00460749
0.00845285
0.0157198
0.00671159
0.00796584
0.00814869
0.00722705
0.00650788
0.0205999
0.00769228
0.00754898
0.00731863
0.00792451
0.00673523
0.00695202
0.00783619
0.00904063
0.005071
0.254759
0.00706741
0.361331
0.00472164
0.0066696
0.009673
0.00778365
0.0139067
0.353384
0.00716329
0.00834217
0.00804264
0.0645811
0.0157902
0.407248
0.00734079
0.0394612
0.00661234
0.221628
0.00867993
0.00752086
0.0254562
0.0158519
0.00711806
0.00715512
0.00705655
0.00714876
0.00766532
0.0279692
0.00784648
0.00611143
0.0202606
0.0186809
0.0427172
0.0054367
0.00747132
0.00549312
0.0331975
0.00720771
0.00772259
0.378447
0.0266153
0.0205134
0.00727321
0.00660337
0.227594
0.00581194
0.0054047
0.00803743
0.00646045
0.00642452
0.00641982
0.00582661
0.0294428
0.772898
0.00696069
0.0071283
0.0672835
0.00849739
0.118971
0.00793844
0.0124463
0.00706221
0.00726727
0.00824825
0.0808803
0.0146101
0.0053022
0.00718566
0.214366
0.00832472
0.00760606
0.00743412
0.0254778
0.0104156
0.00856742
0.0265304
0.00730422
0.0136685
0.00797512
0.00838768
0.0206222
0.00730854
0.00663473
0.00739909
0.00740674
0.128287
0.00759314
0.00827181
0.00672695
0.00791174
0.0108424
0.00797717
0.0250719
0.00712292
0.0112973
0.0101384
0.00654602
0.0067357
0.0207511
0.00485508
0.00764467
0.07789
0.0245929
0.0128764
0.151238
0.0422514
0.00713348
0.00712107
0.00785646
0.028243
1.73549
0.331104
0.00845109
0.00814118
0.00809847
0.0251455
0.0336547
0.0061384
0.170063
0.00767276
0.0399715
0.00800379
0.00828657
0.481828
0.361282
0.0082369
0.130421
0.00956357
0.00726336
0.0060312
0.00746917
0.00673685
0.00786107
0.019645
0.00703851
0.00840803
0.00984073
0.00738077
0.00819596
0.00795989
0.0169848
0.00660894
0.00722729
0.0176519
0.00694368
0.2148
0.00729851
0.00728034
0.0177164
0.00756077
0.00736263
0.00540289
0.00776001
0.00692233
0.0181178
0.00732666
0.00828558
0.281235
0.308306
0.00604079
0.00758788
1.52408
0.00824418
0.00683805
0.0383547
0.00834765
0.114848
0.00749985
0.00948893
0.00856395
0.00742969
0.00650955
0.00816105
0.00680323
0.00540346
0.00775806
0.00905595
0.00708542
0.392093
0.00677284
0.006699
0.00828166
0.0825357
0.0642061
0.00744087
0.0849147
0.0081649
0.00646208
0.00672534
0.0822559
0.0065548
0.00713882
0.0144399
0.00671205
0.00770916
0.00706382
0.212575
0.00746428
0.00538232
0.0238984
0.00690541
0.00778336
0.00597433
0.00708915
0.134951
0.00702657
0.518617
0.0691316
0.00846846
0.0116047
0.6507
0.0155759
0.00823901
0.00784895
0.00587385
0.0287481
0.124398
0.00726423
0.0265893
0.196257
0.0836275
0.0203647
0.00753796
0.0923794
0.394237
0.110266
0.00584875
0.00700542
0.00682838
0.0131933
0.00860273
0.0107088
0.00695872
0.00850148
0.183034
0.00986647
0.00536136
0.00800324
0.00798807
0.0072858
0.0193775
0.00509368
0.0158412
0.141151
0.00837317
0.00773802
0.109791
0.570517
0.00477551
0.0119928
0.00831705
0.00904921
0.00675551
0.00751969
0.00707917
0.239416
0.00755461
0.0249498
0.00766638
0.00526316
0.327759
0.00843108
0.00481768
0.0322684
0.0232833
0.00769927
0.0527685
0.00467629
0.00813635
0.344371
0.248992
0.00787074
0.00719772
0.00836677
0.035169
0.019382
0.00764806
0.00850954
0.0391532
0.00746166
0.264484
0.0543856
0.0334497
0.00729972
0.211213
0.00704833
0.00719904
0.0111946
0.0106415
0.030474
0.00640025
0.0147779
0.00868618
0.00486877
0.0419604
0.288886
0.00619249
0.1513
0.0141477
0.0062884
0.00667684
0.00806382
0.028127
0.0124301
0.246781
0.00789633
0.0247786
0.00509062
0.00663227
0.00763549
0.0136282
0.19818
0.414287
0.00512388
0.00860036
0.00597138
2.33552
0.00512473
0.00871017
0.00686816
0.0232862
0.0131287
0.0424209
0.00741256
0.0355916
0.00773873
0.00833538
0.00793778
0.0318932
0.018442
0.157001
0.0057809
0.0283054
0.0266654
0.00825472
0.00739621
0.379099
0.0050681
0.00600388
0.00699782
0.145021
0.116009
0.0902243
0.0916647
0.00704789
0.00657863
0.0168731
0.00697938
0.112494
0.00692267
0.00823308
0.00733445
0.0347632
0.033507
0.00708806
0.00778482
0.00669393
0.0954429
0.0704629
0.00845505
0.0244713
0.238143
0.00940977
0.0154371
0.00740648
0.0279957
0.00759736
0.00691671
0.00762988
0.00841794
0.00640921
0.00715164
0.005358
0.00853166
0.00718654
0.00567784
0.00593812
0.00806385
0.00806411
0.516624
0.0186301
0.0130891
0.00702617
0.311119
0.00835738
0.274076
0.0162569
0.024984
0.022081
0.00801542
0.331964
0.0320496
0.00532856
0.00778539
0.00634846
0.00667647
0.00827955
0.00769088
0.00818398
0.00682472
0.232307
0.00798701
0.0074524
0.0863249
0.00773184
0.196968
0.0065887
0.0648283
0.0056
0.0195588
0.00856336
0.00786497
0.00841854
0.199314
0.0345255
0.00794997
0.00791303
0.00504918
0.00835005
0.00558296
0.00831336
0.187456
0.00682292
0.0460655
0.00839317
0.00764146
0.283318
0.286482
0.00680319
0.00659371
0.00711088
0.00830687
0.013558
0.0399136
0.00721109
0.00894472
0.490781
0.658425
0.00791919
0.00732938
0.00828261
0.013237
0.344093
0.0191104
0.00808049
0.00752624
0.308093
0.00723055
0.00861749
0.00722114
0.0422624
0.358007
0.00771556
0.0206828
0.0078215
0.0332338
0.00738195
0.0118348
0.00608536
0.00643749
0.086154
0.0367363
0.00842546
0.00854824
0.964678
0.00763919
0.00615804
0.00939895
0.0333732
0.0109907
0.0286729
0.00760515
0.00692038
0.00773505
0.00790281
0.473582
0.0159373
0.0121096
0.00710965
0.00794916
0.0441058
0.00701454
0.00755499
0.00694489
0.00713277
0.0083607
0.0154564
0.0328848
0.0181311
0.00621888
0.0100936
0.00724078
0.0584458
0.00711503
0.00778532
0.495755
0.180395
0.00755387
0.0075733
0.0629367
0.00675679
0.0073777
0.0194622
0.00831688
0.00679435
0.010215
0.00909115
0.00828398
0.0048868
0.00572101
0.0393717
0.143173
0.0321107
0.0327956
0.00626242
0.021014
0.0267359
0.00849287
0.00836411
0.00681184
0.0247398
0.00607726
0.00695858
0.00731035
0.00511521
0.0391651
0.456148
0.00608568
0.00763134
0.00769351
0.012277
0.00811868
0.00723281
0.00693985
0.0133328
0.0070392
0.00702815
0.00687013
0.00825743
0.0121499
0.0558753
0.146924
0.00710638
0.00697453
0.00754989
0.0420729
0.0075942
0.129784
0.00721348
0.0179226
0.191227
0.00771138
0.0159303
0.00849664
0.00678287
0.0176629
0.00846405
0.441155
0.00556313
0.00667382
0.00841715
0.0124594
0.00509415
0.03291
0.363244
0.00751002
0.00642026
0.00840353
0.0078439
0.0069157
0.0215916
0.00812978
0.0076252
0.00761847
0.0101153
0.0283604
0.00816114
0.00767311
0.0075099
0.0232061
0.00546741
0.00648834
0.0114501
0.138744
0.00932385
0.006334
0.00631478
0.00845811
0.039295
0.00635963
0.135607
0.00783845
0.00682768
0.00790723
0.00701399
0.0794574
0.0105704
0.0293944
0.00516611
0.00724559
0.00678742
0.0067085
0.0276225
0.00823623
0.314314
0.0366867
0.181153
0.00666369
0.0102556
0.0266131
0.0108667
0.00774476
0.0088506
0.03424
0.0122436
0.00802733
0.00538731
0.469515
0.0081134
0.182407
0.00927844
0.00833264
0.0168804
0.00755378
0.00691346
0.00682148
0.00779256
0.00734796
0.00479748
0.00818948
0.00682354
0.00714822
0.00915154
0.018548
0.153697
0.0150949
0.00722752
0.172967
0.268174
0.00782313
0.00483458
0.00710835
0.0273032
0.00958318
0.0442197
0.00733943
0.0202998
0.00844735
0.00870762
0.00720481
0.00693821
0.00766022
0.0119424
0.0537681
0.00860521
0.0078885
0.00743236
0.250612
0.210172
0.00756556
0.00819758
0.00700413
0.00775838
0.00813664
0.00821566
0.00838232
0.00787561
0.0074552
0.00565577
0.0496169
0.090345
0.00479977
0.00780946
0.00770553
0.00792922
0.00671517
0.222215
0.00827636
0.00636386
0.00756512
0.287663
0.129115
0.0379344
0.00779239
0.0155826
0.00771819
0.00781839
0.240761
0.00714941
0.00815812
0.00733875
0.0431512
0.00602909
0.0059383
0.00813797
0.0105953
0.170417
0.0192177
0.00815315
0.00475367
0.0309641
0.0284322
0.0187588
0.00842909
0.00718206
0.00521134
0.0139391
0.0250292
0.00829253
0.00687387
0.0081914
0.00736337
0.00824977
0.00650603
0.00625064
0.181666
0.218942
0.0380958
0.00809696
0.467128
0.0085319
0.00719895
0.00886531
0.00789337
0.00765888
0.00767108
0.0139504
0.0152615
0.0204449
0.00764878
0.0105744
0.00768701
0.00859801
0.00734089
0.00755846
0.00736629
0.00792618
0.00814687
0.00725185
1.91436
0.00754692
0.00712699
0.00962391
0.15756
0.00709649
0.00796431
0.0185117
1.60755
0.00695655
0.00772394
0.0109972
0.012625
0.0084679
0.00808487
0.00689068
0.0086041
0.045891
0.008279
0.0846352
0.00956973
0.144924
0.00797965
0.00821125
0.00622595
0.0288521
0.00775228
0.00778936
0.00704223
0.00831556
0.00593646
0.217057
0.00656836
0.0269236
0.248334
0.0279839
0.00605262
0.0420458
0.00851223
0.00814072
0.00514544
0.00809042
0.00610665
0.00761106
0.288893
0.0072394
0.0107262
0.00730402
0.00464403
0.00533229
0.0192061
0.00794996
0.0069447
0.00804209
0.277529
0.0608644
0.384964
0.00681895
0.00999589
0.00703624
0.00776841
0.306991
0.00753671
0.00830526
0.00609825
0.2341
0.0323575
0.0394702
0.00726677
0.0053363
0.0107911
0.618274
0.00801561
0.0071548
0.391592
0.00760514
0.0186898
0.00791711
0.0878113
0.00818546
0.0303709
0.00830292
0.00729255
0.00845589
0.00763922
0.0147193
0.00665376
0.00709317
0.00780453
0.00725049
0.0098235
0.00954581
0.0390545
0.00746878
0.00687509
0.26278
0.0237534
0.0447112
0.00832451
0.042564
0.00723156
0.00828659
0.0265539
0.00646721
0.0350153
0.353726
0.00610533
0.0134631
0.00653634
0.00741489
0.0180633
0.0170105
0.00699284
0.0504143
0.00813186
1.52288
0.0429696
0.484709
0.008128
0.0210101
0.0118707
0.311925
0.00775133
0.00535684
0.00855548
0.00466576
0.11743
0.00815499
0.00890492
0.00731311
0.0285556
0.217711
0.00811646
0.0077838
0.00735503
0.0446531
0.00690119
0.21839
0.0109354
0.0639533
0.342896
0.00828538
0.0162937
0.0316988
0.0296396
0.0863682
0.0234109
0.00757498
0.0114231
0.00490957
0.00809972
0.00788252
0.0085648
0.00942914
0.00662714
0.00832573
0.00558261
0.0380687
0.00485776
0.00801947
0.100591
0.0146009
0.00689386
0.0108962
0.00813595
0.00709089
0.00735171
0.196914
0.00698819
0.0142362
0.0061708
0.0237531
0.00796177
0.00694801
0.00796037
0.00753264
0.0181232
0.0480366
0.040597
0.659495
0.240278
0.651251
0.00686981
0.00738736
0.00934773
0.00838772
0.00587953
0.0149819
0.0069007
0.123533
0.00614102
0.160143
0.00686104
0.00497286
0.00811798
0.298253
0.00862685
0.482963
0.00643516
0.00840949
0.0446558
0.0595821
0.00681497
0.0261364
0.0314044
0.0572436
0.12728
0.0199436
0.229423
0.00959311
0.00717222
0.27477
0.0190385
0.00833234
0.00630653
0.00748732
0.00504093
0.00528712
0.00981095
0.00773298
0.0168737
0.651651
0.00752404
0.00714359
0.00703903
0.00818803
0.00966989
0.00542192
0.00702139
0.00558197
0.380381
0.00702703
0.63393
0.070207
0.00770545
0.183344
0.0486908
0.017955
0.00662583
0.144932
0.00769047
0.00803871
0.343164
0.00751625
0.0082449
0.00578175
0.00809668
0.00738587
0.171776
0.00792307
0.547242
0.0134234
0.018661
0.00722622
0.0123972
0.0263226
0.00618629
0.258678
0.00776695
0.0110364
0.0269115
0.00702692
0.0144017
0.0304109
0.023022
0.00747173
0.0329442
0.0797316
0.00644789
0.00732912
0.0278824
0.00695079
0.0191784
0.0236529
0.3525
0.00712333
0.00860257
0.00797046
0.00627261
0.00793976
0.00478301
0.0373918
1.39697
0.00822992
0.0240186
0.0280439
0.00820319
0.034919
0.00709303
0.00695618
1.5191
0.0408939
0.333819
0.163819
0.00815788
0.00792877
0.0221087
0.222763
0.199313
0.233812
0.00494219
0.00817211
0.00715104
0.00625899
0.240096
0.0477924
0.00867354
0.00739535
0.0279999
0.0206251
0.0355548
0.006795
0.092862
0.216218
0.00638955
0.00559734
0.00726579
0.0072176
0.216167
0.00540135
0.00845423
0.0151216
0.00776522
0.00642918
0.364221
0.0090852
0.010582
0.0332013
0.00907715
0.00752209
0.183995
0.0193795
0.00836029
0.00455787
0.0188195
0.00660948
0.346943
0.00806593
0.007687
0.00703993
0.154605
0.0060903
0.00746064
0.0325482
0.00833664
0.00814539
0.00859551
0.00535162
0.00770779
0.036162
0.0188756
0.00814585
0.462146
0.0355739
0.00831531
0.0318951
0.00795143
0.00518672
0.0325427
0.00801609
0.00816194
0.00788081
0.00729303
0.007936
0.00717282
0.00808808
0.0513237
0.0344393
0.00606325
0.0389455
0.0069179
0.0200581
0.0187653
0.00855539
0.00661319
0.0159006
0.00489573
0.00674844
0.00591079
0.00667111
0.00683892
0.00794649
0.0377377
0.179231
0.0240708
0.0994612
0.00859361
0.0118401
0.383948
0.0166806
0.0127397
0.00759906
0.0336944
0.0120458
0.185803
0.0047933
0.0209213
0.0328082
0.00642664
0.00795577
0.906864
0.00481975
0.00673528
0.0295764
0.0284368
0.00584509
0.0119946
0.0143763
0.00464921
0.583457
0.665075
0.00789817
0.00711078
0.0132129
0.0487453
0.0104501
0.00811317
0.00676968
0.00839163
0.00753036
0.0797784
0.00761853
0.00846361
0.133711
0.00839564
0.00730786
0.00770465
0.00758012
0.00675269
0.00858201
0.00724839
0.00952873
0.00704378
0.00879406
0.0080333
0.0310758
0.00818432
0.01573
0.00770057
0.0209418
0.00838626
0.00767829
0.0595138
0.243328
0.00705449
0.00780769
0.00762452
0.0222872
0.00826423
0.00946582
0.00831579
0.00741617
0.00622744
0.0072961
0.0314475
0.00512965
0.0609351
0.00848602
0.00879507
0.00788336
0.00670032
0.00892203
0.00830261
0.00802038
0.165092
0.0075685
0.01641
0.00789939
0.00799865
0.481447
0.00845145
0.00855222
0.144745
0.206552
0.0140742
0.00755537
0.0199033
0.00788598
0.00904122
0.0119132
0.0110776
0.00738076
0.00630539
0.0248036
0.00764076
0.0321274
0.00697595
0.015346
0.0273537
0.00819976
0.00933668
0.00767711
0.139627
0.0145599
0.00498105
0.0310547
0.00642719
0.00597614
0.00840215
0.0104307
0.0305342
0.00752273
0.00811399
0.0388399
0.0069082
0.00684957
0.00689638
0.00547374
0.0078973
0.0282956
0.0306192
0.00687659
0.0177672
0.00798004
0.00703192
0.00702975
1.07424
0.0098619
0.0074836
0.169445
0.0321515
0.00820516
0.00706276
0.0289714
0.010577
0.00662686
0.00724995
0.0158839
0.0392099
0.00755199
0.00693788
0.0739311
0.007153
0.00830109
0.00734275
0.0069311
0.0080977
0.0247285
0.00764293
0.0322683
0.00632869
0.0134077
0.0081289
0.00502295
0.0281873
0.00691381
0.0217308
0.00765371
0.00735727
0.0394916
0.0136556
0.00560036
0.00845604
0.00736588
0.265103
0.00782852
0.00695652
1.8706
0.00674631
0.0070644
0.00697166
0.0069629
0.00647066
0.00632113
0.0159056
0.00515916
0.0159528
0.00706426
0.00759834
0.015684
0.0045435
0.00748372
0.00646746
0.00564113
0.0073055
0.274625
0.00855993
0.0264054
0.0074904
0.00689571
0.00588519
0.0073088
0.0124234
0.00795517
0.00721056
0.00672257
0.00756702
0.00837466
0.0346297
0.0208333
0.0111764
0.0107945
0.0382372
0.0067896
0.00757466
0.00746851
0.211452
0.00729633
0.00656819
0.326325
0.00697231
0.217391
0.156522
0.00689818
0.00809986
0.007018
0.00535561
0.00493653
0.00686862
0.00794727
0.023233
0.0376848
0.0047837
0.0349819
0.00781019
0.0715086
0.0103894
0.936843
0.0108133
0.0118162
0.00501887
0.0082855
0.00688946
0.0251611
0.00790301
0.0110434
0.00532482
0.0119052
0.00522869
0.0604891
0.0173398
0.0239034
0.258144
0.00780116
0.342899
0.00968564
0.00648512
0.00602117
0.00870863
0.00840297
0.598396
0.00781219
0.301733
0.298094
0.00507271
0.141242
0.0239558
0.300605
0.00739189
0.00784895
0.00741396
0.00726136
0.00765781
0.0062172
0.00697931
0.0221534
0.00761788
0.21166
0.0164988
0.00764211
0.00818011
0.00983584
0.103187