/*--------------------------------*- C++ -*----------------------------------*\
| =========                 |                                                 |
| \\      /  F ield         | OpenFOAM: The Open Source CFD Toolbox           |
|  \\    /   O peration     | Version:  3.0.1                                 |
|   \\  /    A nd           | Web:      www.OpenFOAM.org                      |
|    \\/     M anipulation  |                                                 |
\*---------------------------------------------------------------------------*/
FoamFile
{
    version     2.0;
    format      ascii;
    class       volScalarField;
    location    "0.945026";
    object      nut;
}
// * * * * * * * * * * * * * * * * * * * * * * * * * * * * * * * * * * * * * //

dimensions      [0 2 -1 0 0 0 0];

internalField   nonuniform List<scalar> 
21246
(
2.99161e-05
7.68722e-05
6.96595e-05
6.91523e-05
5.84891e-05
4.59385e-05
3.75703e-05
3.26203e-05
2.91714e-05
2.62953e-05
2.36165e-05
2.56015e-05
7.38831e-05
5.26798e-05
7.23951e-05
6.32028e-05
4.83308e-05
3.76732e-05
3.15592e-05
2.75428e-05
2.4381e-05
2.16265e-05
2.58174e-05
6.50466e-05
4.97406e-05
6.18043e-05
6.6084e-05
5.15718e-05
3.87118e-05
3.13324e-05
2.67008e-05
2.32373e-05
2.03399e-05
2.76972e-05
5.87558e-05
4.97094e-05
5.67692e-05
6.50329e-05
5.47939e-05
4.01952e-05
3.16372e-05
2.64207e-05
2.27012e-05
1.97642e-05
2.9658e-05
5.62415e-05
4.99516e-05
5.34404e-05
6.22943e-05
5.77314e-05
4.19527e-05
3.23386e-05
2.65616e-05
2.26061e-05
1.96523e-05
3.09957e-05
5.60094e-05
5.03416e-05
5.0512e-05
5.74654e-05
5.93388e-05
4.40618e-05
3.34105e-05
2.70597e-05
2.28472e-05
1.98248e-05
3.17504e-05
5.74052e-05
5.12268e-05
4.84296e-05
5.20544e-05
5.72319e-05
4.64857e-05
3.48781e-05
2.78874e-05
2.33697e-05
2.02097e-05
3.20158e-05
6.0469e-05
5.29852e-05
4.75939e-05
4.78901e-05
5.27043e-05
4.76627e-05
3.6915e-05
2.91669e-05
2.41582e-05
2.08151e-05
3.16991e-05
6.47256e-05
5.58348e-05
4.79066e-05
4.51088e-05
4.76589e-05
4.67008e-05
3.88613e-05
3.08532e-05
2.5314e-05
2.16783e-05
3.08347e-05
6.9614e-05
5.99907e-05
4.93802e-05
4.35342e-05
4.31351e-05
4.35796e-05
3.97788e-05
3.27954e-05
2.68176e-05
2.28037e-05
2.96655e-05
7.54842e-05
6.57508e-05
5.22901e-05
4.34198e-05
4.00895e-05
3.97443e-05
3.8876e-05
3.44802e-05
2.86489e-05
2.42292e-05
2.83981e-05
8.30469e-05
7.34963e-05
5.68682e-05
4.48677e-05
3.88246e-05
3.67463e-05
3.66348e-05
3.51556e-05
3.05944e-05
2.59844e-05
2.72964e-05
9.21393e-05
8.36466e-05
6.34606e-05
4.79041e-05
3.91047e-05
3.5009e-05
3.41236e-05
3.44019e-05
3.21463e-05
2.80112e-05
2.66363e-05
0.000102281
9.66003e-05
7.26989e-05
5.28657e-05
4.09186e-05
3.46044e-05
3.21968e-05
3.25778e-05
3.26094e-05
3.00112e-05
2.65468e-05
0.000114777
0.00011306
8.52495e-05
6.01934e-05
4.44723e-05
3.56752e-05
3.14441e-05
3.07431e-05
3.17677e-05
3.13676e-05
2.69548e-05
0.000129195
0.000133351
0.000102153
7.07255e-05
5.01847e-05
3.83512e-05
3.20352e-05
2.96902e-05
3.02306e-05
3.14424e-05
2.75215e-05
0.000143422
0.000156691
0.000124555
8.58745e-05
5.89877e-05
4.31058e-05
3.42017e-05
2.98719e-05
2.89618e-05
3.02898e-05
2.73474e-05
0.000156078
0.000181095
0.000152707
0.000107208
7.22716e-05
5.08619e-05
3.8497e-05
3.17341e-05
2.88385e-05
2.89136e-05
2.62948e-05
0.000164979
0.000203249
0.000184998
0.000136171
9.21548e-05
6.33206e-05
4.60689e-05
3.60239e-05
3.06105e-05
2.85844e-05
2.43207e-05
0.00016797
0.000219076
0.000216575
0.00017243
0.000121211
8.33911e-05
5.92481e-05
4.43918e-05
3.54763e-05
3.06144e-05
2.13921e-05
0.000160555
0.000224444
0.000240602
0.000212148
0.000161464
0.000115603
8.25563e-05
6.04705e-05
4.61303e-05
3.70957e-05
1.87288e-05
0.000146909
0.000218787
0.000252435
0.000245744
0.000209118
0.000163218
0.000122436
9.10468e-05
6.84864e-05
5.27574e-05
1.41796e-05
0.000112988
0.000161003
0.000200204
0.000218256
0.000216551
0.000197043
0.000166998
0.00013519
0.000107154
8.41741e-05
1.09562e-05
4.36498e-05
5.93221e-05
8.0424e-05
0.000101835
0.00012183
0.000136715
0.000140835
0.00013519
0.000123431
0.000108237
2.45532e-05
6.93336e-05
6.67054e-05
6.49117e-05
5.67964e-05
4.64615e-05
3.9431e-05
3.50844e-05
3.19945e-05
2.94095e-05
2.69922e-05
1.73738e-05
6.11572e-05
7.06674e-05
7.11332e-05
6.30625e-05
5.21591e-05
4.42944e-05
3.94532e-05
3.61702e-05
3.3531e-05
3.10779e-05
1.78882e-05
5.71288e-05
7.02227e-05
8.35426e-05
7.537e-05
6.27004e-05
5.26202e-05
4.64491e-05
4.26622e-05
4.00055e-05
3.78078e-05
2.03217e-05
5.37358e-05
6.86702e-05
9.16023e-05
8.95975e-05
8.0291e-05
7.00853e-05
6.27387e-05
5.78616e-05
5.43168e-05
5.12858e-05
2.33182e-05
5.00132e-05
6.93644e-05
9.66175e-05
9.69551e-05
8.86814e-05
7.77663e-05
6.99383e-05
6.51984e-05
6.23805e-05
6.05021e-05
2.62464e-05
4.71249e-05
7.04128e-05
9.8567e-05
0.000100722
9.40205e-05
8.33889e-05
7.59984e-05
7.20158e-05
7.04355e-05
7.03231e-05
2.90006e-05
4.51188e-05
7.12518e-05
9.91e-05
0.000102887
9.78862e-05
8.78579e-05
8.12086e-05
7.80839e-05
7.77475e-05
7.94114e-05
3.15964e-05
4.37667e-05
7.18445e-05
9.92088e-05
0.000104617
0.000101094
9.18177e-05
8.59551e-05
8.36367e-05
8.44159e-05
8.76814e-05
3.38733e-05
4.28528e-05
7.22783e-05
9.94351e-05
0.000106557
0.000104094
9.56732e-05
9.04474e-05
8.86723e-05
8.9964e-05
9.33771e-05
3.58192e-05
4.22047e-05
7.27111e-05
9.98718e-05
0.000108833
0.000107254
9.96578e-05
9.48789e-05
9.34446e-05
9.50329e-05
9.86587e-05
3.7412e-05
4.16789e-05
7.30465e-05
0.00010065
0.000111405
0.000110794
0.000103921
9.94005e-05
9.8156e-05
9.99919e-05
0.000104058
3.87339e-05
4.11973e-05
7.32605e-05
0.000101657
0.000114235
0.000114759
0.000108546
0.000104119
0.000102919
0.000104931
0.000109348
3.97026e-05
4.06084e-05
7.32836e-05
0.000102767
0.000117321
0.000119207
0.000113645
0.000109143
0.000107807
0.00010988
0.000114707
4.01928e-05
3.87218e-05
7.08508e-05
0.000101916
0.000119061
0.000123256
0.000119025
0.000114565
0.000112952
0.000114901
0.000119993
4.01471e-05
3.65666e-05
6.61948e-05
9.81807e-05
0.000117913
0.000125243
0.000123666
0.000120125
0.00011849
0.000120219
0.000125381
3.95292e-05
3.4245e-05
5.96576e-05
9.1197e-05
0.000113267
0.00012405
0.000126282
0.000125
0.000124128
0.000125809
0.000130861
3.8326e-05
3.18909e-05
5.19375e-05
8.09688e-05
0.000104511
0.000118514
0.000125043
0.000127363
0.00012868
0.000131162
0.000136276
3.64557e-05
2.96285e-05
4.41606e-05
6.85855e-05
9.17401e-05
0.000107966
0.000118205
0.00012453
0.000129351
0.000134214
0.000140424
3.38522e-05
2.73993e-05
3.70279e-05
5.56307e-05
7.60269e-05
9.26342e-05
0.000105
0.000114247
0.000122297
0.000130389
0.000139246
3.04846e-05
2.50352e-05
3.07948e-05
4.35342e-05
5.9314e-05
7.40339e-05
8.63686e-05
9.65051e-05
0.000105708
0.000115228
0.000125871
2.63176e-05
2.22961e-05
2.53851e-05
3.31637e-05
4.37398e-05
5.47951e-05
6.50357e-05
7.40661e-05
8.23005e-05
9.05003e-05
9.94152e-05
2.13418e-05
1.88909e-05
2.04559e-05
2.46435e-05
3.06808e-05
3.75505e-05
4.44904e-05
5.10704e-05
5.72071e-05
6.30728e-05
6.89678e-05
1.55934e-05
1.42638e-05
1.50966e-05
1.70459e-05
1.98652e-05
2.32364e-05
2.68769e-05
3.05847e-05
3.42419e-05
3.77977e-05
4.12409e-05
9.42068e-06
9.7168e-06
1.11887e-05
1.2921e-05
1.48639e-05
1.68926e-05
1.91578e-05
2.28379e-05
2.80148e-05
3.45835e-05
4.19357e-05
4.37292e-05
0.000252779
0.000431026
0.000601763
0.000686216
0.000688536
0.000672302
0.000665902
0.000645606
0.000588685
0.000526113
3.22193e-05
0.000141531
0.000271741
0.000414393
0.000529187
0.000585437
0.000604064
0.000633639
0.000631258
0.000574375
0.000503396
2.64443e-05
9.50342e-05
0.000196548
0.000310857
0.000418074
0.000490066
0.000520627
0.000541477
0.00058254
0.000566993
0.000480252
2.16404e-05
7.98858e-05
0.000158236
0.000249934
0.000344322
0.00041854
0.000456362
0.000467687
0.000491851
0.000521589
0.000468897
1.69189e-05
7.92948e-05
0.000139633
0.000213411
0.000294475
0.000364867
0.000406764
0.000417104
0.000421539
0.000441866
0.000438706
1.57119e-05
8.80654e-05
0.000135904
0.0001936
0.000260976
0.000324675
0.000367479
0.000380087
0.000375448
0.000375844
0.000382435
1.58512e-05
0.000101565
0.000142201
0.000186259
0.000240353
0.000295499
0.000336319
0.000350986
0.000343933
0.000331836
0.000327695
1.56619e-05
0.000106519
0.000149338
0.000185975
0.000229033
0.000275069
0.000311731
0.000326865
0.000319903
0.000302098
0.000287006
1.50591e-05
0.000103726
0.000149428
0.000186726
0.00022273
0.000260439
0.000291836
0.000305853
0.000299397
0.000279639
0.000258031
1.42809e-05
9.87289e-05
0.000144941
0.000182487
0.000217205
0.000248539
0.000274695
0.000286669
0.000280516
0.000260656
0.000236349
1.3461e-05
9.23619e-05
0.000137878
0.000173526
0.000209187
0.000237162
0.000258933
0.000268736
0.000262807
0.000243937
0.00021943
1.27433e-05
8.59654e-05
0.000130051
0.000164172
0.000197946
0.000225465
0.000244197
0.000252401
0.000247055
0.000230138
0.000207496
1.2067e-05
7.95768e-05
0.000122714
0.000155642
0.000186993
0.000214239
0.000231564
0.000239356
0.000235572
0.00022172
0.000202505
1.1357e-05
7.29321e-05
0.000116228
0.000149277
0.000179496
0.000205898
0.000223648
0.000232894
0.00023225
0.000222665
0.000207358
1.06901e-05
6.64262e-05
0.000110673
0.000145582
0.000176727
0.000203434
0.000223862
0.00023713
0.000241602
0.000237059
0.000224994
1.00642e-05
5.99151e-05
0.000105318
0.000143126
0.000177166
0.000207474
0.000233715
0.00025417
0.000265576
0.000265571
0.000253732
9.4724e-06
5.36198e-05
9.9091e-05
0.000138995
0.00017774
0.000214871
0.000250239
0.000280476
0.00029916
0.000301382
0.000285387
8.78994e-06
4.86326e-05
9.25543e-05
0.000133439
0.00017696
0.000222504
0.000268279
0.000307858
0.000331933
0.000334111
0.000312334
8.00608e-06
4.51182e-05
8.71234e-05
0.000129631
0.000178832
0.000231574
0.000280808
0.000320797
0.000345679
0.000349296
0.000325816
7.12529e-06
4.39556e-05
8.85712e-05
0.000136183
0.000182454
0.000216161
0.000228798
0.000241436
0.000265631
0.000294043
0.000293456
7.28365e-06
5.33985e-05
9.33256e-05
0.000111701
0.00011774
0.000117413
0.000135648
0.000159476
0.000180825
0.000194149
0.000199044
7.39497e-06
4.43599e-05
5.54739e-05
5.45735e-05
7.42226e-05
0.000102011
0.000134684
0.000167657
0.000195018
0.00020805
0.000197094
5.98515e-06
1.68339e-05
3.06269e-05
5.51039e-05
8.79991e-05
0.000127365
0.00016884
0.000207589
0.000238985
0.000256587
0.000248053
7.61561e-06
2.21823e-05
5.01265e-05
9.1389e-05
0.000142031
0.000194823
0.000241993
0.000278311
0.000300637
0.000308162
0.000297721
4.18028e-05
0.000349745
0.000585133
0.000708416
0.000739469
0.000721726
0.000700404
0.000691285
0.000671101
0.000616536
0.000554912
2.60929e-05
0.000265536
0.000541348
0.00071718
0.000779431
0.000772926
0.000750851
0.000739475
0.000719297
0.000659485
0.000579635
1.95899e-05
0.000214401
0.000481972
0.000691758
0.000796622
0.000817915
0.000805133
0.000796151
0.000779573
0.000715371
0.000609941
1.44304e-05
0.000170971
0.00040979
0.000625414
0.000768531
0.000832044
0.000845623
0.000850984
0.000848766
0.000791169
0.000663593
1.09885e-05
0.000108813
0.00029969
0.000503565
0.000675082
0.000788126
0.000846533
0.000885166
0.000918617
0.000895775
0.000768568
1.09783e-05
8.7856e-05
0.000219144
0.000383461
0.000546879
0.000677712
0.000763247
0.0008265
0.00090153
0.000951136
0.000883492
1.21972e-05
8.76213e-05
0.000196977
0.000331047
0.000474351
0.000601942
0.000691161
0.000754795
0.000842366
0.000951208
0.000975757
1.36183e-05
9.16736e-05
0.000194857
0.000315494
0.000444106
0.000561814
0.000647711
0.000696588
0.000762587
0.000894104
0.00100348
1.5021e-05
9.71179e-05
0.00019906
0.000313868
0.000434834
0.000546776
0.000627795
0.000664927
0.000692102
0.000800088
0.000964941
1.63239e-05
0.000103871
0.000206061
0.000317262
0.000432748
0.000541435
0.000621557
0.000654724
0.000651368
0.000699365
0.000870149
1.74716e-05
0.000110305
0.000213005
0.000322023
0.000432106
0.000536897
0.000617184
0.000652556
0.000637291
0.000625589
0.000744395
1.85079e-05
0.000117303
0.000222854
0.000328008
0.000431502
0.000529517
0.000607827
0.000647554
0.000633461
0.000588725
0.00062762
1.93313e-05
0.000123655
0.000231489
0.000334096
0.00043058
0.000518303
0.000590286
0.000633376
0.000627797
0.000572532
0.000550617
1.9942e-05
0.000129082
0.000239505
0.0003401
0.000429294
0.000504397
0.000564786
0.000607677
0.000613661
0.000563616
0.000505034
2.03228e-05
0.000133102
0.000246298
0.000345096
0.00042747
0.00048966
0.00053524
0.000572323
0.000588223
0.000552628
0.000480262
2.04739e-05
0.000136515
0.00025232
0.000349048
0.000424533
0.00047457
0.000505702
0.000532827
0.00055201
0.000533717
0.000468802
2.03425e-05
0.000139594
0.000257788
0.000352478
0.000420934
0.000459599
0.00047813
0.000495004
0.000511103
0.000505116
0.000461021
1.98649e-05
0.000142296
0.000263555
0.00035622
0.00041699
0.000446076
0.000454296
0.000461352
0.000471462
0.000470047
0.000443379
1.89917e-05
0.000144461
0.000267735
0.000356305
0.000411819
0.000435476
0.000435987
0.00043346
0.000436036
0.000434315
0.000417981
1.75954e-05
0.000143328
0.000263873
0.000351862
0.000407317
0.000429241
0.000424349
0.000412733
0.000406677
0.000400749
0.00038653
1.5337e-05
0.000134312
0.00025171
0.000343012
0.000402663
0.000425895
0.000418075
0.000399121
0.000385143
0.00037478
0.000362304
1.26265e-05
0.000117714
0.000227968
0.000325749
0.000392496
0.000420181
0.000413196
0.00039048
0.000370673
0.000356443
0.000344124
9.42822e-06
8.42743e-05
0.000194486
0.000296653
0.000369575
0.000403719
0.000403428
0.000383483
0.000361696
0.00034467
0.000329066
6.66638e-06
8.01997e-05
0.000165499
0.000257257
0.00031976
0.000357652
0.000371686
0.000366683
0.000351295
0.000335264
0.00031801
5.90428e-05
0.000342448
0.000447195
0.000487172
0.000502106
0.00051045
0.000517109
0.000518565
0.000507595
0.000472435
0.000411725
3.91835e-05
0.000277472
0.000425724
0.000487685
0.000508022
0.000514048
0.000514639
0.000510412
0.000496845
0.000464471
0.000408321
3.172e-05
0.000244179
0.000408764
0.000495187
0.00052424
0.000530823
0.000530463
0.000525037
0.000510085
0.000477117
0.000419798
3.00366e-05
0.000212054
0.000387717
0.000499846
0.000543159
0.000550657
0.000548368
0.000541511
0.000524716
0.000491697
0.000436059
3.01504e-05
0.000188474
0.000350258
0.000471257
0.000531727
0.000550057
0.000549749
0.000541264
0.00052282
0.000488046
0.000429841
3.07937e-05
0.000176941
0.00032759
0.00044125
0.000503317
0.000531107
0.000540801
0.000540177
0.000527723
0.000497772
0.000444302
3.1631e-05
0.000167103
0.000308572
0.000414947
0.000476829
0.000509458
0.000526953
0.000534485
0.000528303
0.000501792
0.000448612
3.26345e-05
0.00015925
0.000292601
0.000391945
0.000451818
0.000486875
0.000510119
0.000525025
0.000526264
0.000506986
0.000461571
3.35542e-05
0.000152469
0.000278972
0.000372274
0.000429768
0.000466134
0.000493817
0.000515316
0.000523941
0.000510592
0.000465911
3.42339e-05
0.00014565
0.000266486
0.000355204
0.000410865
0.00044825
0.000479504
0.000506478
0.000520965
0.000510645
0.000463094
3.48024e-05
0.000138984
0.00025498
0.000340232
0.000394668
0.000433063
0.000467325
0.000498758
0.000517678
0.00050981
0.000465486
3.52613e-05
0.000133051
0.000244794
0.000327171
0.000380742
0.000420173
0.000457109
0.000492366
0.00051495
0.000509
0.000464635
3.54824e-05
0.000127301
0.000235406
0.000315605
0.000368779
0.000409389
0.00044885
0.000487624
0.000513627
0.000509734
0.000467103
3.5489e-05
0.000121095
0.000226071
0.000304976
0.000358394
0.000400454
0.000442434
0.000484624
0.000513998
0.000512371
0.00047274
3.52171e-05
0.000114985
0.000217051
0.000295132
0.000349206
0.00039294
0.000437502
0.000483196
0.000516197
0.000516907
0.000476756
3.46451e-05
0.000108597
0.00020791
0.00028564
0.000340833
0.000386522
0.000433781
0.00048319
0.000520333
0.000523738
0.000483585
3.38108e-05
0.00010028
0.000196551
0.00027484
0.000332222
0.000380448
0.000430491
0.00048381
0.000525871
0.00053276
0.000493169
3.25286e-05
9.04991e-05
0.000181987
0.000260274
0.000318913
0.000368253
0.000419102
0.00047474
0.000522373
0.00053606
0.000502543
3.07727e-05
7.92391e-05
0.000163665
0.000241046
0.000300321
0.000348797
0.00039622
0.00044785
0.000495466
0.000515837
0.000496268
2.84992e-05
6.67298e-05
0.000141204
0.000215988
0.000275388
0.000322036
0.000363187
0.000404943
0.000444632
0.000466491
0.000462337
2.56337e-05
5.35745e-05
0.000115207
0.000184465
0.000243021
0.000287838
0.000322447
0.000352092
0.000377995
0.000392984
0.000394958
2.21222e-05
4.1042e-05
8.83206e-05
0.000147931
0.000203128
0.000245984
0.000275891
0.000295946
0.0003087
0.000312789
0.000309391
1.77983e-05
2.93949e-05
6.23098e-05
0.000109617
0.00015747
0.000196461
0.000223202
0.000238445
0.000244156
0.00024127
0.000231782
1.25378e-05
2.72551e-05
5.68298e-05
8.5947e-05
0.000116071
0.000142235
0.000161508
0.000173049
0.000177124
0.000174236
0.000165616
5.40843e-05
0.000237965
0.000300097
0.000398117
0.000500518
0.000538861
0.000567646
0.000563974
0.000547063
0.000503777
0.000436046
3.8702e-05
0.000133353
0.000193918
0.000252146
0.000313669
0.000375193
0.000542569
0.000612867
0.000597805
0.000548361
0.000468039
3.34252e-05
9.72866e-05
0.000154491
0.00020136
0.000247897
0.000291182
0.000388364
0.000610249
0.000649479
0.000602228
0.000516415
2.90546e-05
8.63834e-05
0.000133293
0.000173343
0.000212444
0.000248717
0.000311697
0.000500374
0.000685046
0.000666229
0.000585003
2.78951e-05
9.84505e-05
0.000127851
0.0001576
0.000189394
0.000220652
0.00026851
0.000405958
0.000655749
0.000730034
0.000653434
3.36698e-05
0.000124302
0.000138715
0.000154338
0.000175981
0.000200909
0.000239352
0.000343564
0.000563783
0.000758419
0.000726444
3.937e-05
0.000176846
0.000170429
0.00016466
0.00017166
0.00018793
0.000218562
0.000300949
0.000481435
0.000703097
0.000783165
4.36718e-05
0.000228933
0.000223001
0.000190954
0.000176945
0.000181262
0.000204068
0.000271412
0.000419952
0.000628591
0.000772337
4.6181e-05
0.000254814
0.000280248
0.000231602
0.000192097
0.000180575
0.000194479
0.000250284
0.000374881
0.000560232
0.000724051
4.79802e-05
0.000275147
0.000336134
0.000283473
0.000217067
0.000185747
0.000189045
0.000234924
0.000341239
0.000502915
0.000662461
4.91943e-05
0.000292377
0.000384658
0.00034115
0.000251234
0.000196772
0.000187343
0.00022368
0.000315172
0.00045545
0.000600503
4.99498e-05
0.000304649
0.000418677
0.000396229
0.000292192
0.000213283
0.000189288
0.000216072
0.000295039
0.000416687
0.000542678
5.01038e-05
0.00031341
0.000443075
0.000443873
0.000336916
0.000234656
0.000194714
0.00021164
0.00027933
0.000384669
0.000490918
4.96708e-05
0.000316154
0.000458295
0.00048128
0.000381924
0.000260143
0.000203534
0.000210161
0.000267093
0.000357591
0.000446303
4.87835e-05
0.000310478
0.000463276
0.00050707
0.000423069
0.000288068
0.000215584
0.000211828
0.000258273
0.000334759
0.000408129
4.73111e-05
0.000301582
0.000456701
0.000517622
0.000455936
0.000316268
0.000230414
0.000216943
0.000253086
0.000316017
0.000374895
4.51896e-05
0.000288332
0.000441354
0.000508796
0.000476829
0.000342154
0.00024779
0.000226166
0.000252229
0.00030173
0.000346531
4.23632e-05
0.000270624
0.000418681
0.000484359
0.000477481
0.000364429
0.000267795
0.000240886
0.000257263
0.000293089
0.000323538
3.88919e-05
0.000248733
0.000389676
0.000449933
0.000451443
0.000384872
0.000293445
0.000264541
0.000271386
0.000292566
0.000307332
3.49105e-05
0.000222728
0.000356033
0.000411017
0.000419911
0.000395454
0.000332501
0.000302551
0.00029853
0.000302496
0.000300033
3.07435e-05
0.000195054
0.000324371
0.000377601
0.000395476
0.000394048
0.000367116
0.000337533
0.000319963
0.000306859
0.000283259
2.77234e-05
0.000201573
0.000298263
0.000334462
0.000339644
0.000315041
0.000266942
0.000228445
0.000197887
0.000167707
0.000136796
1.66547e-05
0.000115135
0.000131009
0.000113246
9.38248e-05
8.02738e-05
6.99922e-05
6.24557e-05
5.65822e-05
5.17326e-05
4.73262e-05
9.17133e-06
1.07081e-05
1.28984e-05
1.61353e-05
2.08267e-05
2.68353e-05
3.36938e-05
4.0634e-05
4.67922e-05
5.14304e-05
5.4047e-05
1.8354e-05
1.75234e-05
1.64741e-05
1.47909e-05
1.17175e-05
6.75071e-06
6.11337e-06
6.3977e-06
7.11677e-06
0.000124094
9.78952e-05
6.54689e-05
4.21158e-05
2.8503e-05
2.27148e-05
2.40763e-05
2.52028e-05
2.3492e-05
0.000248033
0.000200227
0.000136899
8.54378e-05
5.30171e-05
3.6656e-05
3.52181e-05
3.58928e-05
3.63005e-05
0.000356196
0.000297472
0.000206286
0.000126975
7.75665e-05
5.22888e-05
4.81953e-05
4.64055e-05
4.92451e-05
1.87583e-05
1.86253e-05
1.83398e-05
1.83501e-05
1.78305e-05
1.69671e-05
1.58767e-05
1.41466e-05
1.08186e-05
0.000147147
0.000161527
0.000164252
0.000147482
0.000126787
0.000105857
7.34707e-05
4.73618e-05
3.12906e-05
0.00029009
0.000313014
0.000309716
0.000283727
0.000248162
0.000209721
0.000150263
9.63388e-05
5.72816e-05
0.000405346
0.000429395
0.000420062
0.000395964
0.000359066
0.000308841
0.00022191
0.000140691
8.11289e-05
0.000195619
0.000229711
0.00022976
7.36813e-05
0.000431044
0.000229314
8.76887e-05
0.000229489
0.000229392
0.000233947
0.000423398
0.000229545
0.000118539
0.000187638
0.000123816
0.000228729
0.000159699
7.37662e-05
0.000228724
0.000228571
0.000229662
3.0328e-05
0.000229991
0.000256654
0.000229332
0.000191353
0.000126445
8.84751e-05
0.00047817
0.000557445
0.000141671
0.000236023
0.000114274
0.000229429
0.000241167
0.000229675
0.000243236
0.00022933
9.63391e-05
0.000229299
2.19821e-05
0.000229469
0.000105189
0.000229971
0.00044077
5.87462e-05
5.17232e-05
0.000106123
0.000239943
0.000229522
0.000555598
0.000229265
0.000280836
0.000105063
0.000229464
0.000229441
2.97448e-05
0.000229259
0.000471864
9.27675e-05
2.48901e-05
0.000232108
0.000490251
0.000161989
2.99001e-05
0.000228556
0.00065867
0.000230229
0.000229714
0.000233382
0.000189849
0.00023445
6.05708e-05
0.000247188
0.00013412
0.000232431
2.20014e-05
0.000229705
0.000137829
0.000462523
0.000685886
0.000138087
0.000229266
0.00022979
0.000247503
6.13116e-05
0.000392292
0.000173899
4.53486e-05
0.000280403
0.000229491
0.000229225
2.44177e-05
0.000234595
0.000469504
0.000118691
9.71164e-05
0.000237492
4.39329e-05
0.000237608
0.000253607
0.00011319
0.000230206
0.000236616
4.88493e-05
0.000229533
0.000181612
0.00022987
0.000110079
0.000236308
0.000229341
0.000229525
0.000231391
7.01513e-05
7.60049e-05
0.000229035
0.000229374
0.000228922
0.000229272
0.000229233
6.77123e-05
0.000243767
0.000266091
0.000188333
5.41407e-05
0.000216319
0.000915141
0.000176894
0.000140621
0.000117455
0.000229205
9.20374e-05
0.000107698
0.000232968
0.000229789
0.000232125
2.33757e-05
0.000104813
0.00055039
0.000244732
0.000108383
0.000231365
0.000243764
0.000167969
0.000229395
3.8876e-05
0.000111364
0.000230059
0.000236132
0.000228929
0.000229003
0.00022915
4.04872e-05
0.000243493
7.46751e-05
5.90649e-05
6.79189e-05
3.00606e-05
0.000170332
0.000228874
0.000217271
4.83948e-05
0.000233947
0.000229161
0.000675676
0.000116446
5.68722e-05
0.000241502
0.000234182
2.92109e-05
0.000146124
0.000159778
0.00021991
0.000229601
0.000235258
0.000220417
0.000154746
3.95194e-05
0.000439638
0.000199792
0.000229692
2.77115e-05
0.000229929
0.000141188
0.000229289
0.000106701
0.000229089
0.000228857
0.000229639
0.000173428
0.000109236
0.000198215
0.000228539
2.13212e-05
0.000229746
0.000229086
0.000229638
4.40393e-05
0.000114563
0.000230001
3.38801e-05
0.000229671
0.000109962
0.00013851
0.000229829
0.000180492
0.000233661
0.000140722
0.000229561
0.000228724
0.00032654
0.000228989
0.000175355
0.000239054
0.000229275
0.000137483
0.000229375
5.06846e-05
0.000229143
8.252e-05
7.39864e-05
6.61327e-05
9.77454e-05
7.51942e-05
0.00019178
0.000229261
0.000106917
0.000117084
0.000110316
0.00031007
3.30334e-05
0.000228503
0.000229024
0.000244283
3.94304e-05
0.000262308
0.000680477
0.000229884
0.000229565
0.000229511
5.10856e-05
0.00019476
0.000236732
1.87671e-05
0.00023999
4.98199e-05
0.000229361
0.000140372
0.000197109
0.000862676
0.000140152
0.000327296
0.00024684
0.000228648
0.000234037
0.000229569
0.000229375
0.000229294
4.5323e-05
0.000229177
0.000123307
0.000188468
0.000228207
0.000229602
0.000229337
5.20282e-05
0.000231811
0.000235089
0.000159543
0.000179822
0.000190753
0.000229198
0.000229679
5.15012e-05
0.000229095
0.000228955
0.000183477
0.000229181
0.000238385
4.82815e-05
0.00023637
0.000229803
0.000686031
0.00064299
0.000233621
0.000229106
0.000380734
0.000229721
0.000238146
0.000104559
0.000229842
0.000101009
0.000245735
8.06158e-05
0.000229999
0.000229581
0.000235141
0.00022957
0.000240754
0.000186509
0.000229143
5.95976e-05
0.000242819
0.00055532
0.000229288
0.000236505
0.00022971
0.000282903
2.72431e-05
0.00022923
5.54451e-05
0.000229594
0.000234205
0.000117999
2.5942e-05
0.000231537
0.000172143
6.37096e-05
0.000228774
0.000240459
0.000229008
0.000565738
0.000228953
0.000192516
0.000114363
0.000235538
0.000229164
0.000207629
0.000228213
0.000522416
0.000231729
0.000489806
1.93813e-05
0.000229948
9.74282e-05
0.000223564
6.64507e-05
0.000229661
0.000229246
0.000238707
4.98301e-05
0.000311846
0.000229614
0.000109499
0.000186781
0.000284219
8.52866e-05
0.000229034
0.000207084
0.000955477
5.61349e-05
0.000236804
0.000179894
0.000229245
0.000106152
0.000230037
7.17733e-05
0.000206762
0.000229967
0.000620089
0.000136137
0.000185817
0.000229404
0.000229322
0.000229752
5.10927e-05
0.000168386
5.7661e-05
6.36972e-05
0.000259561
0.000229182
0.000115878
0.000220796
0.000192612
0.000112939
0.000229805
0.000152675
0.000241073
0.000229049
0.000228888
0.000555894
0.000229034
3.70785e-05
0.000229235
0.000198127
0.000688917
5.93182e-05
0.000191515
0.000193564
4.74586e-05
0.000229165
4.48574e-05
0.000185467
0.000249975
0.000695138
2.97726e-05
0.00022924
0.000228935
0.000229903
8.28517e-05
4.54808e-05
0.000228992
0.000229982
0.000106552
9.6708e-05
2.43634e-05
0.000105128
0.000143863
0.000229647
0.000567642
0.000237214
0.000228688
0.000115384
0.000117085
4.93522e-05
0.000234013
0.000109341
0.000254497
0.000182411
4.9271e-05
0.000321606
0.000150147
8.26845e-05
0.000110493
0.000227401
0.000235447
0.000245887
7.43309e-05
0.000183875
3.77461e-05
0.000229244
3.74467e-05
0.000208052
0.00022866
0.00023556
6.37057e-05
0.000303305
0.000520375
0.000187656
0.000230039
0.000236695
0.000384075
8.0455e-05
5.92946e-05
0.000232499
6.97501e-05
0.00010381
2.53821e-05
0.000228834
4.08227e-05
0.000229157
0.000229736
0.000229339
5.13374e-05
9.5338e-05
6.37988e-05
0.000148065
3.21091e-05
8.17143e-05
0.000229632
0.000228813
0.000937015
0.000182048
0.000234098
0.000235698
4.14207e-05
4.53096e-05
2.96836e-05
2.93526e-05
0.000231754
0.000211956
5.24234e-05
0.000229089
2.4715e-05
0.0002343
0.000229685
0.000229218
8.05642e-05
3.61445e-05
0.00022902
0.000229168
0.000229708
0.000261452
2.64867e-05
0.000229915
4.12894e-05
0.000356119
0.000156645
6.15743e-05
0.000228768
3.65843e-05
0.00022909
0.000233812
0.000229273
0.000123154
0.000150191
0.000228559
0.000193868
0.000168969
0.000234312
0.000223041
0.000207722
0.00022946
0.000229418
0.000239532
6.66625e-05
5.67393e-05
0.000231912
0.000101162
0.000229768
0.000454505
0.000104895
4.55415e-05
0.000109411
0.000253436
0.000664206
7.19884e-05
0.000193634
0.000229143
0.000184456
0.000228878
0.00022979
0.000229176
0.000229625
0.000233583
0.000530462
0.000229355
0.000228829
0.000159652
0.000229144
4.27601e-05
0.000240865
0.000239978
0.000176686
4.71452e-05
0.000230001
0.000229298
0.000229953
2.05094e-05
3.61515e-05
0.000229305
0.000229294
0.000188188
0.00022985
7.5473e-05
0.000229803
0.000682651
0.000237079
3.11325e-05
9.11717e-05
0.000131277
6.53703e-05
0.000483721
0.000229313
0.000231933
0.000235668
0.000229786
6.38924e-05
2.44732e-05
0.000223813
0.000126749
0.000156256
8.55281e-05
0.000229337
0.000230012
0.000229751
0.000103024
0.000722159
8.41653e-05
0.000229495
0.000229342
0.000649225
0.000231429
9.63225e-05
0.00013474
0.000168292
0.000291722
0.000229199
8.86791e-05
0.00022928
7.20755e-05
0.000229674
0.000132325
0.000150287
0.000234925
2.6553e-05
0.000136485
0.000229962
0.000230002
0.000466133
0.000229079
0.000183709
9.96384e-05
7.77255e-05
9.94825e-05
4.91365e-05
0.000154066
0.0002316
0.00022917
0.000229246
0.000130704
5.30022e-05
0.000112986
0.000228553
0.000229358
9.05191e-05
0.000229218
0.000238094
0.000235414
0.000234306
0.000109946
5.46803e-05
7.78812e-05
0.000159973
0.000233625
0.000237114
0.000228634
0.000152373
0.000232321
0.000229156
0.000191929
0.000415785
0.000228961
0.00022903
2.33756e-05
0.000230222
0.000228776
0.000147683
0.000229788
0.000234429
9.60632e-05
8.44461e-05
0.000158688
0.0001794
0.000159499
7.07563e-05
0.000414735
7.16152e-05
0.000108413
0.000180261
5.30077e-05
7.09426e-05
0.000129185
0.000229771
0.000230174
0.000113442
0.00023029
0.000229164
0.00024443
0.000208113
0.000105365
0.000192347
0.000193134
0.000252438
0.000229131
0.000201052
0.000229503
0.000228959
0.000236597
7.76182e-05
0.000232263
0.000232484
0.000230641
0.000229722
0.000117799
6.22989e-05
0.000296941
0.00023255
0.000229566
0.000189868
0.000121776
0.000238627
0.000169379
0.000232128
0.000156163
0.000552853
0.000229172
6.60545e-05
0.000229927
0.000118663
0.000130519
0.000106692
0.000164239
0.000215473
0.000246592
0.000229825
0.000100164
0.000182234
4.79988e-05
0.0008985
0.000229011
0.000233887
0.000229811
0.000161157
0.000229494
4.33777e-05
0.000229556
0.000229269
0.000229118
0.000126479
6.45584e-05
0.000229545
0.000129678
0.000229248
0.000115766
0.00017046
0.000231225
0.000109179
1.72019e-05
8.01825e-05
0.000236485
0.000199346
0.00013823
0.000122284
0.00012741
8.44887e-05
0.000229196
0.000149439
0.000229278
0.000231442
5.17151e-05
0.000200082
3.55385e-05
0.000187569
0.000231217
0.000234674
0.000229252
5.5851e-05
0.000229616
0.000948429
9.54111e-05
0.000659095
0.000234355
0.000138837
0.000110339
9.81906e-05
0.000243296
0.000122774
3.7845e-05
6.07195e-05
0.00022941
0.000185898
0.000151282
0.000229513
4.45919e-05
0.000119333
0.000249332
0.000153269
0.000229318
0.000232857
0.000235088
0.000130907
0.000237034
0.000191955
0.000229638
0.000118646
0.000234852
8.43258e-05
6.60718e-05
0.000361577
0.00011033
0.000228841
0.00027035
6.67399e-05
0.000229197
0.000190293
0.000188148
7.31776e-05
0.000247473
2.94869e-05
0.000242676
7.6479e-05
9.11722e-05
0.000254924
0.000228915
0.000247402
0.00022912
7.92005e-05
2.25739e-05
0.000230043
0.000229234
0.000252929
0.000356872
0.000537782
0.000154014
0.000229661
0.000146625
0.000250155
0.00022952
0.000229603
0.000229861
0.000229251