# Force coefficients
# liftDir    : (0.000000e+00 1.000000e+00 0.000000e+00)
# dragDir    : (1.000000e+00 0.000000e+00 0.000000e+00)
# pitchAxis  : (0.000000e+00 0.000000e+00 1.000000e+00)
# magUInf    : 2.800000e+00
# lRef       : 3.200000e-02
# Aref       : 3.200000e-02
# CofR       : (0.000000e+00 0.000000e+00 0.000000e+00)
# Time       	Cm           	Cd           	Cl           	Cl(f)        	Cl(r)        	Cm	Cd	Cl	Cl(f)	Cl(r)
1.418253e-07	-6.009196e-02	-1.068808e+00	4.829844e-01	1.814002e-01	3.015841e-01
8.819300e-06	-1.221108e-01	5.936967e-01	-4.927302e-01	-3.684759e-01	-1.242543e-01
