/*--------------------------------*- C++ -*----------------------------------*\
| =========                 |                                                 |
| \\      /  F ield         | OpenFOAM: The Open Source CFD Toolbox           |
|  \\    /   O peration     | Version:  3.0.1                                 |
|   \\  /    A nd           | Web:      www.OpenFOAM.org                      |
|    \\/     M anipulation  |                                                 |
\*---------------------------------------------------------------------------*/
FoamFile
{
    version     2.0;
    format      ascii;
    class       surfaceScalarField;
    location    "0.224363";
    object      phi;
}
// * * * * * * * * * * * * * * * * * * * * * * * * * * * * * * * * * * * * * //

dimensions      [0 3 -1 0 0 0 0];

internalField   nonuniform List<scalar> 
32369
(
-4.74785e-06
1.91749e-05
-1.44271e-05
-9.26795e-06
1.7637e-05
-1.31169e-05
-1.60524e-05
2.10499e-05
-1.42655e-05
-2.3194e-05
2.29061e-05
-1.57644e-05
-3.04723e-05
2.51643e-05
-1.78861e-05
-3.80358e-05
2.82839e-05
-2.07204e-05
-4.62058e-05
3.25565e-05
-2.43865e-05
-5.53563e-05
3.82438e-05
-2.90933e-05
-6.58947e-05
4.57102e-05
-3.51718e-05
-7.83229e-05
5.55108e-05
-4.30826e-05
6.84589e-05
-5.34204e-05
-9.33614e-05
2.8563e-06
1.63186e-05
3.25039e-06
1.72429e-05
-1.05995e-07
2.44063e-05
-5.30977e-06
2.81099e-05
-1.20541e-05
3.19087e-05
-1.98279e-05
3.60578e-05
-2.85298e-05
4.12584e-05
-3.8356e-05
4.807e-05
-4.96988e-05
5.7053e-05
-6.30363e-05
6.88483e-05
8.44803e-05
-7.90578e-05
2.55431e-06
1.37643e-05
3.15336e-06
1.66438e-05
2.48584e-06
2.50738e-05
2.56122e-07
3.03396e-05
-4.11252e-06
3.62773e-05
-1.01425e-05
4.20878e-05
-1.75624e-05
4.86782e-05
-2.63018e-05
5.68095e-05
-3.65149e-05
6.72661e-05
-4.85851e-05
8.09184e-05
9.89831e-05
-6.30878e-05
1.83365e-06
1.19307e-05
1.96911e-06
1.65084e-05
2.14075e-06
2.49021e-05
1.29522e-06
3.11851e-05
-1.12507e-06
3.86976e-05
-5.013e-06
4.59757e-05
-1.04109e-05
5.40761e-05
-1.72329e-05
6.36315e-05
-2.54743e-05
7.55075e-05
-3.53117e-05
9.07559e-05
0.000110722
-4.70502e-05
1.43331e-06
1.04974e-05
1.56443e-06
1.63773e-05
1.89411e-06
2.45725e-05
1.49377e-06
3.15854e-05
2.32087e-07
3.99593e-05
-2.05676e-06
4.82645e-05
-5.59241e-06
5.76117e-05
-1.03934e-05
6.84326e-05
-1.64773e-05
8.15913e-05
-2.38688e-05
9.81474e-05
0.000119557
-3.2704e-05
1.31073e-06
9.18663e-06
1.77418e-06
1.59138e-05
2.32911e-06
2.40175e-05
2.22581e-06
3.16887e-05
1.61646e-06
4.05686e-05
2.94079e-07
4.95869e-05
-1.8917e-06
5.97975e-05
-5.04257e-06
7.15834e-05
-9.21739e-06
8.57662e-05
-1.44283e-05
0.000103358
0.000125794
-2.06659e-05
1.25979e-06
7.92685e-06
2.03548e-06
1.51381e-05
2.85611e-06
2.31969e-05
3.09023e-06
3.14546e-05
2.97267e-06
4.06862e-05
2.31909e-06
5.02405e-05
1.07648e-06
6.10401e-05
-8.34311e-07
7.34942e-05
-3.48058e-06
8.84124e-05
-6.88686e-06
0.000106765
0.000129937
-1.10296e-05
1.08978e-06
6.83707e-06
2.10049e-06
1.41274e-05
3.1172e-06
2.21802e-05
3.6956e-06
3.08762e-05
3.99574e-06
4.0386e-05
3.88763e-06
5.03486e-05
3.38629e-06
6.15415e-05
2.44361e-06
7.44369e-05
1.02533e-06
8.98307e-05
-8.18403e-07
0.000108608
0.000132138
-3.01942e-06
1.04119e-06
5.79588e-06
2.22209e-06
1.29465e-05
3.41642e-06
2.09859e-05
4.29883e-06
2.99938e-05
4.96693e-06
3.97179e-05
5.31526e-06
5.00003e-05
5.40478e-06
6.14519e-05
5.2258e-06
7.46159e-05
4.8058e-06
9.02507e-05
4.11922e-06
0.000109295
0.00013296
3.29788e-06
1.13381e-06
4.66208e-06
2.51549e-06
1.15648e-05
3.94472e-06
1.95566e-05
5.15495e-06
2.87836e-05
6.16642e-06
3.87065e-05
6.91103e-06
4.92557e-05
7.46748e-06
6.08955e-05
7.88245e-06
7.42009e-05
8.18487e-06
8.99483e-05
8.42055e-06
0.000109059
0.000132737
8.64291e-06
1.13351e-06
3.52857e-06
2.64429e-06
1.0054e-05
4.27704e-06
1.79239e-05
5.81586e-06
2.72448e-05
7.17866e-06
3.73437e-05
8.31766e-06
4.81167e-05
9.32392e-06
5.98892e-05
1.02655e-05
7.32594e-05
1.12121e-05
8.90017e-05
1.22273e-05
0.000108044
0.000131396
1.35684e-05
1.01279e-06
2.51578e-06
2.50609e-06
8.56074e-06
4.24836e-06
1.61816e-05
6.03304e-06
2.54601e-05
7.7362e-06
3.56405e-05
9.29414e-06
4.65587e-05
1.07732e-05
5.84102e-05
1.22649e-05
7.17677e-05
1.38576e-05
8.7409e-05
1.56539e-05
0.000106248
0.00012927
1.77804e-05
9.02874e-07
1.6129e-06
2.34725e-06
7.11636e-06
4.19095e-06
1.43379e-05
6.22212e-06
2.34289e-05
8.26344e-06
3.35992e-05
1.02418e-05
4.45804e-05
1.21921e-05
5.64598e-05
1.42042e-05
6.97556e-05
1.6426e-05
8.51871e-05
1.8972e-05
0.000103702
0.000126348
2.18936e-05
8.40073e-07
7.72829e-07
2.23951e-06
5.71692e-06
4.1828e-06
1.23946e-05
6.45721e-06
2.11545e-05
8.85076e-06
3.12057e-05
1.12669e-05
4.21643e-05
1.3722e-05
5.40047e-05
1.62998e-05
6.71778e-05
1.91345e-05
8.23525e-05
2.23869e-05
0.000100449
0.000122536
2.61986e-05
6.68132e-07
1.04698e-07
1.90766e-06
4.47739e-06
3.8405e-06
1.04618e-05
6.27408e-06
1.87209e-05
8.99425e-06
2.84855e-05
1.18799e-05
3.92787e-05
1.49003e-05
5.09842e-05
1.81415e-05
6.39366e-05
2.17331e-05
7.87609e-05
2.57978e-05
9.63845e-05
0.000117809
3.05252e-05
4.94662e-07
-3.89964e-07
1.5503e-06
3.42175e-06
3.43296e-06
8.57914e-06
6.00741e-06
1.61465e-05
9.04605e-06
2.54468e-05
1.24103e-05
3.59144e-05
1.60549e-05
4.73396e-05
2.00308e-05
5.99608e-05
2.44472e-05
7.43445e-05
2.9512e-05
9.13197e-05
0.000111936
3.53846e-05
3.34631e-07
-7.24595e-07
1.2526e-06
2.50379e-06
3.06871e-06
6.76303e-06
5.75019e-06
1.3465e-05
9.10289e-06
2.20941e-05
1.29625e-05
3.20548e-05
1.72741e-05
4.30279e-05
2.20756e-05
5.51593e-05
2.74773e-05
6.89427e-05
3.36177e-05
8.51793e-05
0.000104924
4.06303e-05
2.0147e-07
-9.26066e-07
9.49945e-07
1.75531e-06
2.60065e-06
5.11233e-06
5.27409e-06
1.07915e-05
8.85442e-06
1.85138e-05
1.31928e-05
2.77164e-05
1.82423e-05
3.79784e-05
2.40009e-05
4.94007e-05
3.05406e-05
6.2403e-05
3.7973e-05
7.77469e-05
9.63899e-05
4.65067e-05
1.01138e-07
-1.0272e-06
6.95097e-07
1.16135e-06
2.12294e-06
3.6845e-06
4.66605e-06
8.24842e-06
8.37404e-06
1.48058e-05
1.31766e-05
2.29138e-05
1.89868e-05
3.21683e-05
2.58215e-05
4.2566e-05
3.36945e-05
5.45301e-05
4.27226e-05
6.87188e-05
8.60067e-05
5.31058e-05
1.06558e-08
-1.03786e-06
4.5098e-07
7.21029e-07
1.58972e-06
2.54576e-06
3.85939e-06
5.97875e-06
7.54471e-06
1.11205e-05
1.27158e-05
1.77428e-05
1.93307e-05
2.55533e-05
2.73209e-05
3.45759e-05
3.66403e-05
4.52106e-05
4.7411e-05
5.79482e-05
7.35349e-05
5.98828e-05
-5.50173e-08
-9.82843e-07
1.08172e-07
5.57839e-07
8.44693e-07
1.80924e-06
2.72684e-06
4.0966e-06
6.25557e-06
7.59176e-06
1.1682e-05
1.23164e-05
1.89682e-05
1.82671e-05
2.79783e-05
2.55657e-05
3.87432e-05
3.44457e-05
5.13113e-05
4.53801e-05
5.88192e-05
6.6027e-05
-6.39111e-07
-3.43731e-07
-8.28065e-07
7.46793e-07
-4.17373e-07
1.39855e-06
1.1869e-06
2.49232e-06
4.5468e-06
4.23186e-06
9.99301e-06
6.87017e-06
1.75766e-05
1.06835e-05
2.72197e-05
1.59226e-05
3.8965e-05
2.27005e-05
5.30861e-05
3.12589e-05
4.16558e-05
7.02495e-05
-9.06403e-07
5.62672e-07
-1.05278e-06
8.93169e-07
-4.61967e-07
8.07733e-07
1.11113e-06
9.19224e-07
4.03309e-06
1.3099e-06
8.68682e-06
2.21644e-06
1.53965e-05
3.97389e-06
2.43614e-05
6.95771e-06
3.58656e-05
1.11963e-05
5.01439e-05
1.69807e-05
2.47026e-05
6.7097e-05
1.80526e-06
-1.24259e-06
3.96469e-06
-1.26626e-06
6.05863e-06
-1.28621e-06
8.14843e-06
-1.17057e-06
1.03992e-05
-9.40912e-07
1.31997e-05
-5.83994e-07
1.7241e-05
-6.74666e-08
2.34917e-05
7.07005e-07
3.25773e-05
2.11068e-06
4.49954e-05
4.56258e-06
8.71894e-06
6.09791e-05
-1.42262e-05
-2.00859e-07
-2.43529e-05
-2.99021e-06
-3.25086e-05
-6.10972e-06
-3.94648e-05
-8.80824e-06
-4.60941e-05
-1.12568e-05
-5.29321e-05
-1.38824e-05
-6.04331e-05
-1.68855e-05
-6.89831e-05
-2.05433e-05
-7.89366e-05
-2.52183e-05
-9.0649e-05
-3.13701e-05
-3.95784e-05
-0.000104491
-7.47056e-06
7.2697e-06
-1.42826e-05
3.8218e-06
-2.24218e-05
2.02952e-06
-3.06082e-05
-6.218e-07
-3.8557e-05
-3.30801e-06
-4.67024e-05
-5.73698e-06
-5.55411e-05
-8.04682e-06
-6.55492e-05
-1.05352e-05
-7.71613e-05
-1.36062e-05
-9.0811e-05
-1.77204e-05
-2.33695e-05
-0.00010702
-2.64293e-06
9.91263e-06
-6.84508e-06
8.02395e-06
-1.32849e-05
8.46933e-06
-2.09235e-05
7.01676e-06
-2.95733e-05
5.34187e-06
-3.88962e-05
3.58594e-06
-4.88651e-05
1.92208e-06
-5.98223e-05
4.21918e-07
-7.22664e-05
-1.16213e-06
-8.67363e-05
-3.25048e-06
-6.38393e-06
-0.000103722
-1.66294e-06
1.15756e-05
-4.65655e-06
1.10176e-05
-9.10995e-06
1.29227e-05
-1.4978e-05
1.28848e-05
-2.23672e-05
1.2731e-05
-3.10036e-05
1.22224e-05
-4.08698e-05
1.17883e-05
-5.20107e-05
1.15628e-05
-6.46589e-05
1.14861e-05
-7.9216e-05
1.13067e-05
1.06444e-05
-9.62443e-05
-1.45339e-06
1.3029e-05
-4.07392e-06
1.36381e-05
-7.54457e-06
1.63934e-05
-1.21672e-05
1.75075e-05
-1.82642e-05
1.8828e-05
-2.57872e-05
1.97453e-05
-3.47042e-05
2.07053e-05
-4.50651e-05
2.19237e-05
-5.70031e-05
2.34241e-05
-7.07773e-05
2.50809e-05
2.66317e-05
-8.67647e-05
-1.28761e-06
1.43166e-05
-3.64247e-06
1.5993e-05
-6.51012e-06
1.9261e-05
-1.02654e-05
2.12628e-05
-1.52716e-05
2.38342e-05
-2.15991e-05
2.60728e-05
-2.93708e-05
2.84771e-05
-3.8579e-05
3.11318e-05
-4.93414e-05
3.41865e-05
-6.18574e-05
3.75968e-05
4.11887e-05
-7.64144e-05
-1.09636e-06
1.54129e-05
-3.16728e-06
1.80639e-05
-5.61011e-06
2.17039e-05
-8.72802e-06
2.43807e-05
-1.2887e-05
2.79932e-05
-1.81424e-05
3.13282e-05
-2.46992e-05
3.50338e-05
-3.26344e-05
3.9067e-05
-4.20337e-05
4.35858e-05
-5.30572e-05
4.86204e-05
5.4048e-05
-6.59165e-05
-1.01805e-06
1.6431e-05
-2.81712e-06
1.98629e-05
-4.89064e-06
2.37774e-05
-7.61761e-06
2.71076e-05
-1.09712e-05
3.13469e-05
-1.52833e-05
3.56402e-05
-2.06966e-05
4.04472e-05
-2.73297e-05
4.57002e-05
-3.52995e-05
5.15555e-05
-4.47439e-05
5.80649e-05
6.51476e-05
-5.58435e-05
-8.78075e-07
1.73091e-05
-2.47258e-06
2.14574e-05
-4.03607e-06
2.53409e-05
-6.33045e-06
2.9402e-05
-9.10872e-06
3.41251e-05
-1.26314e-05
3.91629e-05
-1.7021e-05
4.48368e-05
-2.24231e-05
5.11022e-05
-2.89648e-05
5.80972e-05
-3.6767e-05
6.58671e-05
7.43563e-05
-4.59758e-05
-6.96032e-07
1.80051e-05
-1.94954e-06
2.27109e-05
-3.32454e-06
2.67159e-05
-5.10848e-06
3.1186e-05
-7.27312e-06
3.62898e-05
-1.00472e-05
4.1937e-05
-1.34922e-05
4.82818e-05
-1.77446e-05
5.53546e-05
-2.29118e-05
6.32645e-05
-2.91271e-05
7.20824e-05
8.17832e-05
-3.6554e-05
-4.66287e-07
1.84714e-05
-1.31735e-06
2.3562e-05
-2.29519e-06
2.76937e-05
-3.64762e-06
3.25384e-05
-5.26527e-06
3.79074e-05
-7.33568e-06
4.40074e-05
-9.91141e-06
5.08576e-05
-1.30909e-05
5.85341e-05
-1.69677e-05
6.71413e-05
-2.16411e-05
7.67557e-05
8.73741e-05
-2.7232e-05
-2.59813e-07
1.87312e-05
-8.43989e-07
2.41462e-05
-1.46502e-06
2.83147e-05
-2.3463e-06
3.34197e-05
-3.40255e-06
3.89637e-05
-4.76819e-06
4.5373e-05
-6.4654e-06
5.25548e-05
-8.57765e-06
6.06463e-05
-1.11557e-05
6.97194e-05
-1.42613e-05
7.98613e-05
9.11024e-05
-1.79896e-05
-3.19889e-08
1.87632e-05
-2.8594e-07
2.44001e-05
-5.52555e-07
2.85814e-05
-9.64616e-07
3.38317e-05
-1.45296e-06
3.9452e-05
-2.119e-06
4.60391e-05
-2.95947e-06
5.33952e-05
-4.01469e-06
6.17016e-05
-5.31243e-06
7.10171e-05
-6.87536e-06
8.14243e-05
9.29062e-05
-8.67911e-06
3.07977e-07
1.84552e-05
4.30629e-07
2.42775e-05
5.5805e-07
2.84539e-05
6.22375e-07
3.37674e-05
6.97806e-07
3.93766e-05
7.25945e-07
4.60109e-05
7.40726e-07
5.33805e-05
7.18205e-07
6.17241e-05
6.86448e-07
7.10489e-05
6.60436e-07
8.14503e-05
9.29147e-05
6.51917e-07
5.12476e-07
1.79427e-05
9.80535e-07
2.38094e-05
1.51705e-06
2.79174e-05
2.09013e-06
3.31943e-05
2.76326e-06
3.87034e-05
3.53291e-06
4.52413e-05
4.43838e-06
5.2475e-05
5.50319e-06
6.06593e-05
6.77747e-06
6.97746e-05
8.33559e-06
7.98921e-05
9.09757e-05
1.02746e-05
7.63532e-07
1.71792e-05
1.60232e-06
2.29706e-05
2.56254e-06
2.69572e-05
3.66526e-06
3.20916e-05
4.96098e-06
3.74077e-05
6.49877e-06
4.37035e-05
8.32566e-06
5.06481e-05
1.05036e-05
5.84813e-05
1.31257e-05
6.71524e-05
1.62865e-05
7.67314e-05
8.71326e-05
2.01295e-05
1.05721e-06
1.6122e-05
2.31305e-06
2.17148e-05
3.72849e-06
2.55418e-05
5.39612e-06
3.0424e-05
7.34658e-06
3.54573e-05
9.68706e-06
4.1363e-05
1.24736e-05
4.78616e-05
1.58153e-05
5.51396e-05
1.98103e-05
6.31574e-05
2.46183e-05
7.19235e-05
8.12991e-05
3.04517e-05
1.34657e-06
1.47754e-05
3.02325e-06
2.00381e-05
4.93419e-06
2.36308e-05
7.20716e-06
2.8151e-05
9.86355e-06
3.28009e-05
1.30589e-05
3.81676e-05
1.68695e-05
4.4051e-05
2.14256e-05
5.05835e-05
2.6872e-05
5.7711e-05
3.33802e-05
6.54153e-05
7.35028e-05
4.11766e-05
1.64194e-06
1.31335e-05
3.75541e-06
1.79247e-05
6.19167e-06
2.11946e-05
9.11082e-06
2.52319e-05
1.2535e-05
2.93766e-05
1.6644e-05
3.40587e-05
2.15383e-05
3.91567e-05
2.73806e-05
4.47413e-05
3.43246e-05
5.0767e-05
4.25904e-05
5.71495e-05
6.36314e-05
5.24618e-05
1.95686e-06
1.11766e-05
4.51785e-06
1.53637e-05
7.51144e-06
1.8201e-05
1.11145e-05
2.16288e-05
1.53584e-05
2.51327e-05
2.04327e-05
2.89844e-05
2.64618e-05
3.31276e-05
3.36174e-05
3.75857e-05
4.20962e-05
4.22882e-05
5.21504e-05
4.70952e-05
5.16933e-05
6.40886e-05
2.27767e-06
8.89894e-06
5.27333e-06
1.2368e-05
8.83395e-06
1.46404e-05
1.31486e-05
1.73141e-05
1.82446e-05
2.00368e-05
2.43062e-05
2.29228e-05
3.14721e-05
2.59617e-05
3.9926e-05
2.91318e-05
4.99031e-05
3.23111e-05
6.16878e-05
3.53105e-05
3.77706e-05
7.56105e-05
2.52474e-06
6.37421e-06
5.92521e-06
8.96752e-06
1.00388e-05
1.05268e-05
1.50331e-05
1.23199e-05
2.09519e-05
1.41179e-05
2.79368e-05
1.59379e-05
3.61433e-05
1.77553e-05
4.57807e-05
1.94944e-05
5.71082e-05
2.09835e-05
7.04409e-05
2.19778e-05
2.20863e-05
8.61252e-05
3.0146e-06
3.35961e-06
6.75918e-06
5.22293e-06
1.12672e-05
6.01876e-06
1.67343e-05
6.85269e-06
2.32194e-05
7.63287e-06
3.08471e-05
8.31018e-06
3.97803e-05
8.82207e-06
5.02745e-05
9.00027e-06
6.25928e-05
8.66519e-06
7.70217e-05
7.54897e-06
5.4839e-06
9.36241e-05
2.11702e-06
6.0737e-06
1.08062e-05
1.64884e-05
2.31803e-05
3.09065e-05
3.96611e-05
4.93684e-05
6.01443e-05
7.22558e-05
8.64586e-05
3.08158e-06
7.17125e-06
-1.02528e-05
4.56109e-06
8.29539e-06
-9.7749e-06
4.24229e-06
1.12142e-05
-1.08954e-05
2.79455e-06
1.39951e-05
-1.25474e-05
4.60019e-07
1.66402e-05
-1.43056e-05
-2.64259e-06
1.92057e-05
-1.61031e-05
-6.26427e-06
2.19344e-05
-1.83127e-05
-1.01989e-05
2.53152e-05
-2.13806e-05
-1.4544e-05
3.01005e-05
-2.57553e-05
-1.95641e-05
3.69792e-05
-3.19591e-05
4.66279e-05
-4.06942e-05
-2.54977e-05
3.70515e-06
3.4661e-06
5.91334e-06
6.08719e-06
7.32487e-06
9.80269e-06
7.82425e-06
1.34957e-05
7.16594e-06
1.72985e-05
5.22532e-06
2.11463e-05
2.19599e-06
2.49637e-05
-1.53655e-06
2.90477e-05
-5.72388e-06
3.42878e-05
-1.04531e-05
4.17084e-05
5.22062e-05
-1.60315e-05
2.2651e-06
1.201e-06
4.10105e-06
4.25125e-06
5.93015e-06
7.97359e-06
7.33689e-06
1.2089e-05
7.98041e-06
1.6655e-05
7.57086e-06
2.15559e-05
6.03475e-06
2.64998e-05
3.54687e-06
3.15356e-05
4.61279e-07
3.73734e-05
-3.03543e-06
4.52051e-05
5.62297e-05
-7.05886e-06
1.16072e-06
4.02822e-08
2.58931e-06
2.82266e-06
4.23923e-06
6.32367e-06
5.81056e-06
1.05176e-05
7.03591e-06
1.54296e-05
7.67139e-06
2.09204e-05
7.47941e-06
2.66918e-05
6.42801e-06
3.2587e-05
4.73104e-06
3.90703e-05
2.67723e-06
4.72589e-05
5.84895e-05
4.17361e-07
3.29115e-07
-2.88833e-07
1.3345e-06
1.81727e-06
2.66988e-06
4.9883e-06
4.14036e-06
9.04716e-06
5.57959e-06
1.39904e-05
6.78414e-06
1.97158e-05
7.53112e-06
2.59448e-05
7.68315e-06
3.2435e-05
7.3133e-06
3.94402e-05
6.64787e-06
4.79243e-05
5.92083e-05
5.92906e-06
-1.94704e-07
-9.41291e-08
3.46966e-07
1.2756e-06
1.37757e-06
3.95769e-06
2.66154e-06
7.7632e-06
4.0999e-06
1.2552e-05
5.56393e-06
1.82518e-05
6.88167e-06
2.46271e-05
7.90365e-06
3.1413e-05
8.59405e-06
3.87498e-05
9.08092e-06
4.74375e-05
5.87036e-05
9.58564e-06
-3.03134e-07
2.09005e-07
-2.36956e-07
1.20942e-06
3.81916e-07
3.33882e-06
1.42232e-06
6.7228e-06
2.72639e-06
1.12479e-05
4.24827e-06
1.67299e-05
5.87257e-06
2.30028e-05
7.46363e-06
2.98219e-05
8.93058e-06
3.72829e-05
1.03047e-05
4.60633e-05
5.72869e-05
1.17215e-05
-3.384e-07
5.47405e-07
-5.20799e-07
1.39182e-06
-3.02182e-07
3.1202e-06
4.37478e-07
5.98314e-06
1.54776e-06
1.01377e-05
3.00231e-06
1.52754e-05
4.7567e-06
2.12484e-05
6.6936e-06
2.7885e-05
8.6967e-06
3.52797e-05
1.07401e-05
4.40199e-05
5.50973e-05
1.29297e-05
-3.22553e-07
8.69958e-07
-5.71726e-07
1.641e-06
-6.01246e-07
3.14972e-06
-1.73271e-07
5.55517e-06
7.34431e-07
9.22996e-06
2.07634e-06
1.39335e-05
3.84902e-06
1.94757e-05
5.95914e-06
2.57749e-05
8.2858e-06
3.29531e-05
1.07546e-05
4.15512e-05
5.24619e-05
1.339e-05
-2.63689e-07
1.13365e-06
-4.98731e-07
1.87604e-06
-5.97687e-07
3.24868e-06
-3.55362e-07
5.31284e-06
3.78253e-07
8.49635e-06
1.61095e-06
1.27008e-05
3.34582e-06
1.77408e-05
5.50828e-06
2.36125e-05
7.98436e-06
3.0477e-05
1.0692e-05
3.88435e-05
4.95398e-05
1.3614e-05
-1.84881e-07
1.31853e-06
-3.69729e-07
2.06089e-06
-4.52685e-07
3.33164e-06
-2.75689e-07
5.13584e-06
3.37905e-07
7.88275e-06
1.48535e-06
1.15533e-05
3.16277e-06
1.60634e-05
5.31819e-06
2.1457e-05
7.85117e-06
2.7944e-05
1.0686e-05
3.60087e-05
4.64095e-05
1.38163e-05
-1.1676e-07
1.43529e-06
-2.43177e-07
2.1873e-06
-2.66344e-07
3.3548e-06
-8.45374e-08
4.95404e-06
4.90849e-07
7.30737e-06
1.58088e-06
1.04633e-05
3.20409e-06
1.44402e-05
5.32954e-06
1.93316e-05
7.88031e-06
2.53933e-05
1.07806e-05
3.31084e-05
4.32183e-05
1.39718e-05
-3.85201e-08
1.47381e-06
-8.52506e-08
2.23403e-06
-1.24735e-08
3.28203e-06
2.36899e-07
4.70466e-06
8.3905e-07
6.70522e-06
1.90851e-06
9.39382e-06
3.4929e-06
1.28558e-05
5.58407e-06
1.72404e-05
8.13434e-06
2.2843e-05
1.10892e-05
3.01536e-05
3.98972e-05
1.44103e-05
5.72199e-08
1.41659e-06
1.08594e-07
2.18266e-06
2.90465e-07
3.10015e-06
6.42503e-07
4.35263e-06
1.30489e-06
6.04283e-06
2.38695e-06
8.31176e-06
3.95637e-06
1.12864e-05
6.03254e-06
1.51642e-05
8.5964e-06
2.02791e-05
1.15938e-05
2.71562e-05
3.65113e-05
1.49797e-05
1.2504e-07
1.29155e-06
2.52012e-07
2.05569e-06
5.299e-07
2.82227e-06
9.76482e-07
3.90604e-06
1.70482e-06
5.31449e-06
2.82173e-06
7.19485e-06
4.41203e-06
9.69612e-06
6.52153e-06
1.30547e-05
9.14914e-06
1.76515e-05
1.2256e-05
2.40493e-05
3.30002e-05
1.57671e-05
1.85659e-07
1.10589e-06
3.78137e-07
1.86321e-06
7.33884e-07
2.46652e-06
1.25895e-06
3.38098e-06
2.05011e-06
4.52333e-06
3.21924e-06
6.02572e-06
4.87085e-06
8.04451e-06
7.07548e-06
1.08501e-05
9.84411e-06
1.48829e-05
1.31214e-05
2.0772e-05
2.92783e-05
1.68433e-05
2.43612e-07
8.62278e-07
4.89672e-07
1.61715e-06
8.94791e-07
2.0614e-06
1.46856e-06
2.80721e-06
2.30688e-06
3.68501e-06
3.53966e-06
4.79293e-06
5.3033e-06
6.28087e-06
7.68481e-06
8.4686e-06
1.06796e-05
1.18881e-05
1.41891e-05
1.72625e-05
2.53899e-05
1.80776e-05
2.68107e-07
5.94171e-07
5.27313e-07
1.35794e-06
9.36077e-07
1.65264e-06
1.50646e-06
2.23683e-06
2.35755e-06
2.83392e-06
3.66996e-06
3.48051e-06
5.62317e-06
4.32767e-06
8.30113e-06
5.79063e-06
1.16516e-05
8.53758e-06
1.5521e-05
1.33931e-05
2.11474e-05
1.97635e-05
2.59563e-07
3.34608e-07
4.89266e-07
1.12824e-06
8.28908e-07
1.31299e-06
1.30698e-06
1.75876e-06
2.12858e-06
2.01232e-06
3.56775e-06
2.04134e-06
5.85045e-06
2.04497e-06
8.99547e-06
2.64561e-06
1.28407e-05
4.69232e-06
1.71631e-05
9.07075e-06
1.65125e-05
2.1798e-05
2.10701e-07
1.23907e-07
3.075e-07
1.03144e-06
3.73961e-07
1.24653e-06
6.03501e-07
1.52922e-06
1.42137e-06
1.19445e-06
3.24171e-06
2.21008e-07
6.12711e-06
-8.40429e-07
9.91323e-06
-1.14051e-06
1.4346e-05
2.59533e-07
1.91453e-05
4.2715e-06
1.15101e-05
2.41476e-05
-1.39698e-07
2.63606e-07
-4.90637e-07
1.38238e-06
-7.984e-07
1.5543e-06
-1.70125e-07
9.00947e-07
1.73084e-06
-7.0652e-07
4.73713e-06
-2.78528e-06
8.35406e-06
-4.45735e-06
1.23938e-05
-5.18025e-06
1.68159e-05
-4.16259e-06
2.16601e-05
-5.72701e-07
6.2281e-06
2.69421e-05
-1.22516e-06
1.48877e-06
-1.06292e-06
1.22014e-06
2.76986e-07
2.1439e-07
2.99401e-06
-1.81608e-06
6.22751e-06
-3.94002e-06
9.47591e-06
-6.03368e-06
1.28898e-05
-7.87124e-06
1.66128e-05
-8.90324e-06
2.07325e-05
-8.28235e-06
2.52017e-05
-5.04183e-06
1.29524e-06
3.01345e-05
4.90015e-07
9.98751e-07
3.05172e-06
-1.34157e-06
5.98956e-06
-2.72344e-06
8.74791e-06
-4.57443e-06
1.1382e-05
-6.57409e-06
1.39528e-05
-8.60451e-06
1.66081e-05
-1.05266e-05
1.96813e-05
-1.19764e-05
2.35488e-05
-1.21498e-05
2.82172e-05
-9.71024e-06
-3.85345e-06
3.33659e-05
5.97916e-06
-4.9804e-06
8.58058e-06
-3.94299e-06
1.08651e-05
-5.00793e-06
1.27137e-05
-6.42306e-06
1.41867e-05
-8.04708e-06
1.54686e-05
-9.88642e-06
1.68128e-05
-1.18708e-05
1.86188e-05
-1.37824e-05
2.15032e-05
-1.50342e-05
2.61704e-05
-1.43775e-05
-1.02647e-05
3.25817e-05
-3.99623e-06
-6.25659e-06
-6.39461e-06
-7.37653e-06
-8.3298e-06
-8.96024e-06
-1.02771e-05
-1.06001e-05
-1.23957e-05
-1.2187e-05
-1.47711e-05
-1.37276e-05
-1.7571e-05
-1.55128e-05
-2.09378e-05
-1.80138e-05
-2.49862e-05
-2.17069e-05
-2.98629e-05
-2.70824e-05
-3.4885e-05
-3.56721e-05
-2.86357e-06
-3.39303e-06
-5.36203e-06
-4.87806e-06
-7.62841e-06
-6.69386e-06
-9.78785e-06
-8.44066e-06
-1.20074e-05
-9.9675e-06
-1.45327e-05
-1.12023e-05
-1.76614e-05
-1.23841e-05
-2.16114e-05
-1.40638e-05
-2.65214e-05
-1.6797e-05
-3.25879e-05
-2.10159e-05
-2.72443e-05
-4.02286e-05
-7.98157e-07
-2.59487e-06
-2.13938e-06
-3.53684e-06
-3.86107e-06
-4.97216e-06
-5.86985e-06
-6.43188e-06
-8.15406e-06
-7.68329e-06
-1.08935e-05
-8.46286e-06
-1.44262e-05
-8.85133e-06
-1.90198e-05
-9.47026e-06
-2.47645e-05
-1.10522e-05
-3.18178e-05
-1.39626e-05
-1.86372e-05
-4.0425e-05
3.7236e-08
-2.63211e-06
-3.39803e-07
-3.1598e-06
-1.15998e-06
-4.15198e-06
-2.45722e-06
-5.13464e-06
-4.21309e-06
-5.92741e-06
-6.55529e-06
-6.12067e-06
-9.8961e-06
-5.51052e-06
-1.47089e-05
-4.65746e-06
-2.10245e-05
-4.73661e-06
-2.87359e-05
-6.25124e-06
-9.14744e-06
-3.82256e-05
2.17894e-07
-2.85e-06
2.92707e-07
-3.23461e-06
1.4177e-07
-4.00104e-06
-3.80914e-07
-4.61196e-06
-1.31748e-06
-4.99084e-06
-2.74454e-06
-4.69362e-06
-5.05003e-06
-3.20502e-06
-9.08105e-06
-6.26451e-07
-1.53846e-05
1.56696e-06
-2.34994e-05
1.86353e-06
5.66482e-07
-3.32133e-05
2.45083e-07
-3.09508e-06
4.61666e-07
-3.4512e-06
6.10579e-07
-4.14996e-06
5.67796e-07
-4.56918e-06
2.56223e-07
-4.67927e-06
-3.999e-07
-4.03749e-06
-1.59091e-06
-2.01402e-06
-4.06694e-06
1.84959e-06
-9.12822e-06
6.62824e-06
-1.69862e-05
9.72151e-06
1.04104e-05
-2.68301e-05
2.30675e-07
-3.32576e-06
5.01801e-07
-3.72232e-06
7.72331e-07
-4.42049e-06
9.6775e-07
-4.76459e-06
1.02771e-06
-4.73923e-06
8.60259e-07
-3.87004e-06
3.17423e-07
-1.47118e-06
-1.02415e-06
3.19116e-06
-4.2995e-06
9.90359e-06
-1.0822e-05
1.6244e-05
1.95352e-05
-1.99468e-05
2.19712e-07
-3.54547e-06
5.09307e-07
-4.01192e-06
8.20707e-07
-4.73189e-06
1.11828e-06
-5.06217e-06
1.38821e-06
-5.00916e-06
1.57747e-06
-4.0593e-06
1.55982e-06
-1.45354e-06
1.0399e-06
3.71108e-06
-7.06813e-07
1.16503e-05
-5.22675e-06
2.07639e-05
2.7118e-05
-1.28095e-05
1.99051e-07
-3.74452e-06
4.68139e-07
-4.28101e-06
7.64524e-07
-5.02827e-06
1.07908e-06
-5.37672e-06
1.42462e-06
-5.3547e-06
1.80515e-06
-4.43983e-06
2.18748e-06
-1.83587e-06
2.33657e-06
3.562e-06
1.68953e-06
1.22973e-05
-9.46869e-07
2.34003e-05
3.31893e-05
-7.01817e-06
1.30467e-07
-3.87499e-06
3.70844e-07
-4.52138e-06
6.25653e-07
-5.28308e-06
8.86866e-07
-5.63794e-06
1.20081e-06
-5.66864e-06
1.6045e-06
-4.84353e-06
2.1679e-06
-2.39927e-06
2.81094e-06
2.91896e-06
3.04342e-06
1.20649e-05
2.01143e-06
2.44323e-05
3.69655e-05
-1.76484e-06
7.38044e-08
-3.94879e-06
3.09037e-07
-4.75662e-06
3.56119e-07
-5.33016e-06
5.33158e-07
-5.81498e-06
7.35601e-07
-5.87108e-06
1.02308e-06
-5.13101e-06
1.52668e-06
-2.90287e-06
2.38974e-06
2.0559e-06
3.28901e-06
1.11656e-05
3.4996e-06
2.42217e-05
3.85709e-05
1.89425e-06
9.82109e-09
-3.95861e-06
5.20641e-08
-4.79886e-06
8.71485e-08
-5.36525e-06
9.95275e-08
-5.82735e-06
1.08843e-07
-5.8804e-06
1.40543e-07
-5.16271e-06
3.25212e-07
-3.08754e-06
1.01488e-06
1.36624e-06
2.34252e-06
9.83794e-06
3.55664e-06
2.30076e-05
3.8011e-05
4.11647e-06
-7.80646e-08
-3.88055e-06
-1.45045e-07
-4.73188e-06
-2.58416e-07
-5.25188e-06
-4.30384e-07
-5.65539e-06
-6.48025e-07
-5.66275e-06
-8.89842e-07
-4.92089e-06
-1.07747e-06
-2.89991e-06
-9.30511e-07
1.21928e-06
1.78507e-07
8.72892e-06
2.17858e-06
2.10075e-05
3.69183e-05
3.27131e-06
-1.95087e-07
-3.68546e-06
-4.07708e-07
-4.51926e-06
-6.96292e-07
-4.96329e-06
-1.07714e-06
-5.27453e-06
-1.55546e-06
-5.18444e-06
-2.11485e-06
-4.3615e-06
-2.68083e-06
-2.33393e-06
-3.04105e-06
1.57949e-06
-2.63366e-06
8.32153e-06
-7.75268e-07
1.91491e-05
3.42363e-05
1.90672e-06
-2.94277e-07
-3.39118e-06
-6.5694e-07
-4.1566e-06
-1.1385e-06
-4.48173e-06
-1.76112e-06
-4.65192e-06
-2.53961e-06
-4.40595e-06
-3.46806e-06
-3.43305e-06
-4.48195e-06
-1.32004e-06
-5.36918e-06
2.46672e-06
-5.59453e-06
8.54689e-06
-4.37171e-06
1.79263e-05
3.13786e-05
-1.51396e-06
-3.94985e-07
-2.9962e-06
-9.24195e-07
-3.62738e-06
-1.61371e-06
-3.79222e-06
-2.50365e-06
-3.76197e-06
-3.61753e-06
-3.29207e-06
-4.95586e-06
-2.09472e-06
-6.4774e-06
2.01496e-07
-7.90003e-06
3.88935e-06
-8.69899e-06
9.34585e-06
-8.15055e-06
1.73779e-05
2.87461e-05
-5.51807e-06
-5.0696e-07
-2.48924e-06
-1.21549e-06
-2.91886e-06
-2.13839e-06
-2.86932e-06
-3.33845e-06
-2.56191e-06
-4.85493e-06
-1.7756e-06
-6.71555e-06
-2.34097e-07
-8.74108e-06
2.22703e-06
-1.05977e-05
5.746e-06
-1.19582e-05
1.07064e-05
-1.22083e-05
1.7628e-05
2.69134e-05
-1.03756e-05
-6.28448e-07
-1.86079e-06
-1.53225e-06
-2.01506e-06
-2.72307e-06
-1.67849e-06
-4.3034e-06
-9.81578e-07
-6.30287e-06
2.23864e-07
-8.5878e-06
2.05083e-06
-1.09592e-05
4.59838e-06
-1.33085e-05
8.09536e-06
-1.54085e-05
1.28063e-05
-1.67737e-05
1.89932e-05
2.69764e-05
-1.68366e-05
-7.50006e-07
-1.11078e-06
-1.82603e-06
-9.39033e-07
-3.24413e-06
-2.60397e-07
-5.03749e-06
8.11784e-07
-7.18669e-06
2.37307e-06
-9.61948e-06
4.48362e-06
-1.23218e-05
7.30067e-06
-1.5181e-05
1.09545e-05
-1.79448e-05
1.55701e-05
-2.02062e-05
2.12546e-05
2.8161e-05
-2.13908e-05
-8.07979e-07
-3.02806e-07
-1.9135e-06
1.66492e-07
-3.28606e-06
1.11216e-06
-4.99749e-06
2.52322e-06
-7.11274e-06
4.48831e-06
-9.65752e-06
7.02841e-06
-1.2541e-05
1.01841e-05
-1.56203e-05
1.40339e-05
-1.86987e-05
1.86485e-05
-2.15036e-05
2.40595e-05
3.02354e-05
-2.35781e-05
-7.25572e-07
4.22766e-07
-1.66886e-06
1.10978e-06
-2.87394e-06
2.31723e-06
-4.45721e-06
4.1065e-06
-6.44458e-06
6.47568e-06
-8.76087e-06
9.3447e-06
-1.12638e-05
1.26871e-05
-1.38069e-05
1.65769e-05
-1.6199e-05
2.10406e-05
-1.80538e-05
2.59144e-05
3.06206e-05
-1.8439e-05
-6.1633e-07
1.0391e-06
-1.42227e-06
1.91572e-06
-2.52898e-06
3.42394e-06
-3.92724e-06
5.50475e-06
-5.49399e-06
8.04243e-06
-7.07606e-06
1.09268e-05
-8.52891e-06
1.41399e-05
-9.68502e-06
1.7733e-05
-1.02953e-05
2.16508e-05
-9.80137e-06
2.54205e-05
2.77482e-05
-6.92895e-06
-8.30557e-07
1.86965e-06
-1.72788e-06
2.81305e-06
-2.83414e-06
4.5302e-06
-3.84716e-06
6.51777e-06
-4.57171e-06
8.76698e-06
-4.88965e-06
1.12447e-05
-4.71489e-06
1.39652e-05
-3.88473e-06
1.69029e-05
-1.95135e-06
1.97175e-05
2.14885e-06
2.13203e-05
1.9482e-05
1.0415e-05
-3.11075e-06
-4.24069e-06
-4.71842e-06
-4.62371e-06
-3.90381e-06
-2.54551e-06
-4.5117e-07
2.66935e-06
7.35261e-06
1.42954e-05
2.35127e-05
-1.335e-05
-9.14296e-06
2.2493e-05
-2.16134e-05
-1.10335e-05
1.92969e-05
-2.86106e-05
-1.33794e-05
2.03766e-05
-3.46811e-05
-1.54457e-05
2.15162e-05
-4.0315e-05
-1.71351e-05
2.2769e-05
-4.59318e-05
-1.85071e-05
2.41239e-05
-5.19927e-05
-1.95604e-05
2.56213e-05
-5.88703e-05
-2.02561e-05
2.71337e-05
-6.68793e-05
-2.05058e-05
2.85147e-05
-7.63561e-05
-2.01282e-05
2.9605e-05
-1.87806e-05
3.01248e-05
-8.77004e-05
-9.15138e-06
8.412e-09
-1.69995e-05
-3.18537e-06
-2.42004e-05
-6.17845e-06
-3.08691e-05
-8.77711e-06
-3.71849e-05
-1.08193e-05
-4.34727e-05
-1.22192e-05
-5.01536e-05
-1.28795e-05
-5.76644e-05
-1.27452e-05
-6.64429e-05
-1.17273e-05
-7.69433e-05
-9.6278e-06
-6.1475e-06
-8.95764e-05
-4.20863e-06
4.21704e-06
-9.54809e-06
2.1541e-06
-1.60176e-05
2.91005e-07
-2.28595e-05
-1.93517e-06
-2.98412e-05
-3.83755e-06
-3.70406e-05
-5.01989e-06
-4.46978e-05
-5.22225e-06
-5.31352e-05
-4.30788e-06
-6.2733e-05
-2.1295e-06
-7.39143e-05
1.55355e-06
7.19079e-06
-8.72526e-05
-1.59701e-06
5.81405e-06
-4.66653e-06
5.22362e-06
-9.35156e-06
4.97603e-06
-1.52769e-05
3.99021e-06
-2.21391e-05
3.02464e-06
-2.96726e-05
2.5136e-06
-3.78121e-05
2.91719e-06
-4.67459e-05
4.62597e-06
-5.68365e-05
7.96109e-06
-6.85088e-05
1.32259e-05
2.08669e-05
-8.21849e-05
-1.45078e-06
7.26483e-06
-3.71067e-06
7.48351e-06
-6.96178e-06
8.22714e-06
-1.14264e-05
8.45487e-06
-1.71616e-05
8.75977e-06
-2.40533e-05
9.40529e-06
-3.19797e-05
1.08437e-05
-4.09157e-05
1.35619e-05
-5.09931e-05
1.80385e-05
-6.25041e-05
2.4737e-05
3.42692e-05
-7.59065e-05
-1.2407e-06
8.50554e-06
-3.28013e-06
9.52293e-06
-5.90739e-06
1.08544e-05
-9.51418e-06
1.20617e-05
-1.42545e-05
1.35001e-05
-2.01905e-05
1.53413e-05
-2.73129e-05
1.7966e-05
-3.56201e-05
2.18692e-05
-4.5175e-05
2.75934e-05
-5.6177e-05
3.5739e-05
4.70754e-05
-6.89832e-05
-1.12221e-06
9.62774e-06
-2.82204e-06
1.12228e-05
-5.1067e-06
1.31391e-05
-8.1674e-06
1.51224e-05
-1.21684e-05
1.75011e-05
-1.72504e-05
2.04233e-05
-2.35113e-05
2.42269e-05
-3.10045e-05
2.93624e-05
-3.98078e-05
3.63967e-05
-5.00628e-05
4.5994e-05
5.89615e-05
-6.19489e-05
-1.07265e-06
1.07004e-05
-2.62323e-06
1.27733e-05
-4.62056e-06
1.51364e-05
-7.2615e-06
1.77633e-05
-1.06921e-05
2.09317e-05
-1.50711e-05
2.48023e-05
-2.05273e-05
2.96831e-05
-2.71731e-05
3.60082e-05
-3.5117e-05
4.43406e-05
-4.45095e-05
5.53865e-05
7.00427e-05
-5.55907e-05
-9.946e-07
1.1695e-05
-2.40005e-06
1.41788e-05
-4.18598e-06
1.69223e-05
-6.5007e-06
2.0078e-05
-9.48209e-06
2.39131e-05
-1.32793e-05
2.85996e-05
-1.80398e-05
3.44435e-05
-2.38974e-05
4.18658e-05
-3.0992e-05
5.14352e-05
-3.94994e-05
6.38939e-05
8.02012e-05
-4.96579e-05
-7.95682e-07
1.24907e-05
-1.99495e-06
1.5378e-05
-3.55491e-06
1.84823e-05
-5.58335e-06
2.21065e-05
-8.18649e-06
2.65162e-05
-1.15018e-05
3.19149e-05
-1.56726e-05
3.86143e-05
-2.08428e-05
4.7036e-05
-2.71739e-05
5.77663e-05
-3.48368e-05
7.15568e-05
8.93908e-05
-4.40264e-05
-6.2129e-07
1.3112e-05
-1.64383e-06
1.64006e-05
-2.98025e-06
1.98187e-05
-4.72399e-06
2.38502e-05
-6.97397e-06
2.87662e-05
-9.85177e-06
3.47927e-05
-1.34872e-05
4.22498e-05
-1.80218e-05
5.15706e-05
-2.36097e-05
6.33542e-05
-3.04292e-05
7.83762e-05
9.76515e-05
-3.86899e-05
-5.90244e-07
1.37022e-05
-1.48116e-06
1.72915e-05
-2.62506e-06
2.09626e-05
-4.1119e-06
2.53371e-05
-6.02855e-06
3.06828e-05
-8.47855e-06
3.72427e-05
-1.15807e-05
4.53519e-05
-1.54753e-05