/*--------------------------------*- C++ -*----------------------------------*\
| =========                 |                                                 |
| \\      /  F ield         | OpenFOAM: The Open Source CFD Toolbox           |
|  \\    /   O peration     | Version:  3.0.1                                 |
|   \\  /    A nd           | Web:      www.OpenFOAM.org                      |
|    \\/     M anipulation  |                                                 |
\*---------------------------------------------------------------------------*/
FoamFile
{
    version     2.0;
    format      ascii;
    class       volScalarField;
    location    "0.837636";
    object      epsilon;
}
// * * * * * * * * * * * * * * * * * * * * * * * * * * * * * * * * * * * * * //

dimensions      [0 2 -3 0 0 0 0];

internalField   nonuniform List<scalar> 
21246
(
187.344
72.6217
17.1592
3.81274
1.20416
0.619601
0.439346
0.359963
0.310848
0.269899
0.228273
309.946
156.623
17.0857
4.94206
1.44589
0.686257
0.438555
0.33366
0.272927
0.226642
0.185094
402.587
203.063
19.0514
6.39901
1.62521
0.766037
0.453056
0.32406
0.251049
0.197968
0.15144
454.512
192.675
21.2308
7.18004
1.68404
0.833209
0.468788
0.322522
0.239469
0.181227
0.132377
476.697
173.07
22.3174
7.15759
1.70113
0.880308
0.478951
0.324381
0.234425
0.172971
0.123618
482.071
161.969
22.8586
6.85686
1.71934
0.905636
0.484122
0.328091
0.233161
0.170026
0.1208
472.964
158.756
23.338
6.57315
1.74953
0.916273
0.488194
0.332615
0.234189
0.170159
0.11988
451.378
158.449
23.8543
6.37463
1.79207
0.918942
0.493625
0.337168
0.237091
0.172685
0.122554
423.839
159.33
25.5874
6.44411
1.85155
0.920412
0.502565
0.342392
0.241817
0.176883
0.126273
393.924
162.79
29.9429
7.24125
2.02499
0.942417
0.517426
0.349406
0.248326
0.182605
0.131408
360.321
168.254
36.3224
8.85795
2.41118
1.01235
0.547887
0.361445
0.257818
0.190148
0.138369
324.508
174.699
43.3998
11.1718
3.0504
1.15463
0.596531
0.379785
0.270179
0.20001
0.147424
289.774
181.952
51.7897
14.4871
4.11235
1.43508
0.682008
0.410151
0.28683
0.212052
0.158089
256.474
190.257
62.4807
19.3241
5.88797
1.98411
0.850686
0.466946
0.312085
0.227669
0.170749
225.187
200.078
74.5376
25.526
8.49847
2.93286
1.17407
0.578357
0.355811
0.250126
0.186464
197.338
211.575
88.8705
33.5982
12.2801
4.50605
1.78155
0.805334
0.443155
0.288802
0.208594
173.544
224.32
106.909
44.6387
17.8757
7.09223
2.90295
1.27037
0.632746
0.369232
0.247457
155.994
239.908
129.413
59.5738
26.0233
11.2038
4.87874
2.18393
1.04312
0.552081
0.33166
147.713
259.179
158.253
80.4591
38.2356
17.8276
8.33681
3.93917
1.91242
0.974535
0.53574
153.169
281.87
195.123
110.521
57.3653
28.9649
14.5768
7.35707
3.75029
1.94668
1.04301
176.156
304.231
238.619
153.351
88.328
48.7261
26.5202
14.3783
7.7991
4.24523
2.33011
221.961
319.56
280.272
208.39
137.06
84.5639
50.5749
29.7632
17.3562
10.062
5.80497
266.948
322.625
292.504
246.868
189.963
135.923
92.2903
60.5177
38.7406
24.4043
15.1104
527.713
293.284
254.888
217.857
178.813
142.134
109.266
81.4238
58.9865
41.7389
28.7614
161.24
64.1012
17.1983
3.7235
1.16942
0.633134
0.478058
0.414942
0.379719
0.353174
0.327616
274.343
103.533
13.0682
3.7489
1.39274
0.769379
0.56057
0.479085
0.439642
0.415367
0.395561
339.102
129.205
12.0132
4.20181
1.57949
0.931564
0.703869
0.618152
0.58232
0.56309
0.547414
356.409
116.183
11.5006
4.43726
1.65763
1.01644
0.783002
0.707498
0.691497
0.701226
0.722543
349.216
93.8275
10.8816
4.31467
1.65317
1.05998
0.828119
0.758186
0.752165
0.777579
0.819218
335.493
75.8156
10.1454
4.01246
1.617
1.07898
0.851482
0.786759
0.790134
0.836019
0.916904
321.296
63.1016
9.41641
3.69026
1.57402
1.0845
0.860201
0.79914
0.804736
0.856968
0.949653
306.232
53.9345
8.72043
3.40405
1.53046
1.07883
0.859599
0.798852
0.799085
0.843077
0.921625
294.47
47.1967
8.11666
3.16663
1.49491
1.06426
0.853024
0.788386
0.778497
0.806819
0.862697
287.32
42.3188
7.62502
2.98506
1.47173
1.04633
0.841911
0.770282
0.747859
0.757364
0.786801
285.636
39.0877
7.2784
2.85919
1.45918
1.03034
0.828283
0.747475
0.711764
0.702505
0.706066
287.052
36.9042
7.03147
2.77574
1.45556
1.01721
0.814087
0.722708
0.674145
0.648202
0.631238
290.442
36.7936
7.0318
2.75716
1.4704
1.01061
0.802638
0.698804
0.638364
0.598445
0.566718
295.411
39.423
7.69743
2.87181
1.5281
1.02042
0.798879
0.679255
0.607123
0.55546
0.513699
302.545
43.3818
8.91498
3.14836
1.63708
1.0535
0.80585
0.666981
0.582439
0.520733
0.471991
312.662
49.0804
10.8922
3.69284
1.83514
1.12659
0.831187
0.666696
0.567132
0.495776
0.441465
326.644
57.0104
13.9602
4.69583
2.20699
1.27655
0.892237
0.687338
0.566268
0.483177
0.422826
346.355
67.5
18.4444
6.42911
2.91066
1.58303
1.02971
0.749746
0.591179
0.48903
0.418552
374.703
81.4446
24.9272
9.32598
4.23839
2.22003
1.34338
0.909893
0.673824
0.531689
0.439634
416.426
100.78
34.5346
14.1529
6.7356
3.55781
2.07573
1.32151
0.910847
0.67217
0.525437
480.801
129.293
49.5491
22.4212
11.4749
6.37421
3.78852
2.38563
1.58564
1.11031
0.81817
588.149
175.84
75.3952
37.6996
20.9097
12.4294
7.7844
5.08361
3.44526
2.41997
1.76386
791.208
276.289
133.208
73.0549
43.6186
27.6061
18.2287
12.4388
8.729
6.28943
4.67188
958.228
499.432
288.1
181.454
123.637
89.3053
67.2209
52.0298
40.9467
32.4771
25.6539
1129.89
456.037
133.177
45.4851
14.4509
4.75927
1.86673
0.965266
0.644292
0.508485
0.446322
1316.24
633.593
232.033
81.8974
22.9912
7.0419
2.50478
1.16422
0.724612
0.558417
0.493048
1145.92
584.416
274.398
113.423
39.0009
11.1479
3.40484
1.43194
0.831508
0.621649
0.553733
825.683
496.35
278.133
131.588
52.7273
17.2903
4.97391
1.77031
0.954596
0.691246
0.615488
534.443
414.281
266.918
142.834
64.9029
24.3326
7.66753
2.4467
1.10784
0.765534
0.672356
323.402
342.636
249.816
150.755
76.9715
32.7238
11.6332
3.78227
1.46056
0.865534
0.727473
182.35
279.283
230.658
155.456
88.44
42.3083
17.0594
6.04083
2.19126
1.07835
0.803059
98.5423
227.85
211.905
156.698
98.0296
52.188
23.7133
9.38724
3.51247
1.51887
0.946371
69.9015
192.075
196.414
155.472
105.242
61.4967
31.1213
13.8042
5.60485
2.34593
1.23929
71.4126
160.108
182.037
153.356
110.748
69.9079
38.8125
19.1157
8.55893
3.72267
1.80112
64.0741
116.936
162.224
150.874
115.504
77.4195
46.314
24.9457
12.2833
5.74151
2.75908
49.2663
73.4152
130.438
143.367
118.812
83.9591
53.2398
30.8319
16.5096
8.36346
4.19827
35.7706
43.6995
91.7114
125.11
117.715
88.8393
59.2887
36.4024
20.9172
11.4356
6.11854
25.8917
26.8301
57.8765
96.7113
108.487
90.1389
63.7029
41.184
25.1197
14.7022
8.41183
19.566
17.1926
34.3912
66.447
90.7881
85.7256
65.1358
44.3898
28.5763
17.7835
10.8602
16.0713
12.2096
20.7887
42.1764
68.6916
75.2387
62.5487
45.2628
30.7545
20.2834
13.1592
14.2031
9.63575
13.6593
25.9038
47.3702
60.5404
55.8197
43.3094
31.1977
21.8059
14.9737
13.2278
8.21985
9.8858
16.3548
30.2202
44.6996
46.056
38.6026
29.6564
21.9971
15.9704
12.8782
7.42604
7.68242
11.2827
18.8818
30.124
35.1283
31.9022
26.2644
20.7341
15.8313
13.2197
7.10603
6.31625
8.27387
12.4587
19.1066
24.7617
24.4017
21.5118
18.0923
14.5183
14.2489
7.04836
5.52464
6.49208
8.80179
12.4549
16.4762
17.377
16.2181
14.469
12.2233
16.4404
7.57082
5.59935
6.02618
7.31793
9.31248
11.3796
12.0619
11.6014
10.7615
9.49667
24.4214
14.7681
11.9071
10.7764
10.6051
10.7794
10.7055
10.1442
9.30362
8.51333
7.57112
139.311
96.7107
60.5472
44.1234
34.0863
25.5908
18.5516
13.6981
10.5853
8.56979
7.18397
1108.75
272.551
101.246
32.9618
10.5209
3.69926
1.58512
0.876144
0.602234
0.475316
0.407739
871.253
223.589
83.4085
31.4415
11.0212
4.03217
1.71659
0.921433
0.615346
0.473714
0.394888
744.345
221.689
80.3509
33.695
13.177
4.95598
2.02788
1.02684
0.657129
0.494806
0.407424
603.856
195.71
72.5448
32.9456
14.136
5.73394
2.40347
1.18306
0.724219
0.528429
0.428011
491.432
161.584
63.821
30.2498
13.4677
5.75858
2.54874
1.29928
0.805114
0.586781
0.473213
409.452
132.758
55.8709
27.4679
12.6839
5.64565
2.58143
1.34401
0.843866
0.62427
0.515768
348.968
110.944
49.3194
24.9919
11.9095
5.50951
2.61605
1.40012
0.889532
0.66005
0.548488
302.72
94.5474
44.0301
22.9583
11.2736
5.41979
2.67908
1.47953
0.95134
0.703832
0.582318
268.435
82.3118
39.9148
21.4155
10.8586
5.43542
2.80582
1.60466
1.04526
0.765505
0.621163
242.9
73.1344
36.8212
20.3327
10.695
5.59035
3.02481
1.79826
1.18919
0.857842
0.671269
223.79
66.4872
34.5881
19.686
10.8032
5.91695
3.36964
2.09333
1.41495
1.00997
0.75817
208.823
61.3964
32.9343
19.4017
11.1546
6.43018
3.87206
2.52992
1.76682
1.26382
0.910147
197.515
57.5168
31.7971
19.4544
11.7542
7.15548
4.56901
3.1546
2.30117
1.68054
1.18984
188.808
55.4495
31.2753
19.8655
12.6416
8.14272
5.5115
4.01966
3.08089
2.34085
1.68147
182.187
54.3603
31.1529
20.5066
13.7511
9.37774
6.71121
5.13901
4.11715
3.27075
2.44731
177.458
54.1087
31.4069
21.3407
15.0264
10.8118
8.13112
6.48367
5.3836
4.44972
3.47734
174.366
54.6599
32.0239
22.3351
16.4055
12.3707
9.69818
7.98126
6.80407
5.79702
4.71655
173.142
55.8244
32.9315
23.4251
17.7984
13.9446
11.2968
9.51289
8.25169
7.17585
6.03629
174.157
57.5414
34.0723
24.5463
19.1101
15.4084
12.7851
10.9288
9.56825
8.41674
7.24551
178.387
59.986
35.4729
25.666
20.2657
16.6464
14.0227
12.0771
10.5932
9.35468
8.17053
188.228
63.6744
37.2814
26.8251
21.2426
17.588
14.9092
12.8445
11.2126
9.87125
8.69874
209.729
69.8559
39.9988
28.2722
22.1705
18.2927
15.4626
13.2297
11.4187
9.95478
8.7736
260.021
83.4441
45.6959
31.118
23.7701
19.3323
16.2003
13.692
11.5403
9.7652
8.44882
431.805
104.497
58.7388
41.5358
33.1184
27.8428
23.2111
18.4282
14.0424
10.6033
8.33526
780.323
251.555
118.448
57.3069
25.6715
10.2909
3.83969
1.40955
0.520938
0.1972
0.0808802
663.995
186.301
96.7312
49.478
22.9128
9.5704
3.69708
1.36662
0.498332
0.185343
0.0750183
445.343
154.546
84.7692
46.9788
23.2515
10.1609
4.01241
1.48082
0.527849
0.189817
0.0751928
312.035
127.161
75.2623
44.4157
23.3455
10.7159
4.37872
1.65248
0.596773
0.21435
0.0830333
227.182
96.0699
60.7548
39.6748
22.8909
11.3135
4.84765
1.8779
0.684962
0.242092
0.0880538
183.347
77.0705
49.6956
33.5501
20.4407
10.745
4.84753
1.93469
0.714321
0.255787
0.096835
156.936
64.4978
42.0995
28.7735
17.782
9.56561
4.46278
1.8529
0.709352
0.26051
0.0992698
139.166
55.9339
36.4935
25.0264
15.6229
8.53207
4.0662
1.73388
0.68343
0.258611
0.104182
126.25
49.6089
32.1917
22.0604
13.8278
7.62026
3.68755
1.60757
0.651734
0.254508
0.105276
116.297
44.8197
28.8878
19.7661
12.4148
6.88236
3.36813
1.49406
0.619845
0.247978
0.103199
108.186
41.0402
26.3027
17.9832
11.3172
6.30489
3.11297
1.39942
0.590515
0.240169
0.102182
102.18
37.9769
24.2227
16.5603
10.4476
5.8502
2.91212
1.32394
0.566229
0.233411
0.100385
98.0527
35.5538
22.5727
15.4476
9.78158
5.51005
2.76514
1.26995
0.549599
0.229437
0.100541
95.0067
33.7385
21.3211
14.6294
9.31524
5.28567
2.67493
1.23983
0.541936
0.22867
0.102331
93.5951
32.3638
20.3626
14.0307
9.00408
5.1577
2.63579
1.23298
0.543589
0.231171
0.103488
93.7843
31.4092
19.6823
13.646
8.8514
5.13302
2.65367
1.25299
0.556236
0.237399
0.105951
95.2649
30.9343
19.3082
13.5035
8.88675
5.23594
2.7441
1.30759
0.583012
0.248409
0.109997
98.9572
31.0013
19.247
13.6085
9.12665
5.48871
2.92537
1.40737
0.628964
0.266341
0.116166
105.806
32.0406
19.6622
14.0311
9.64045
5.96483
3.24995
1.57433
0.704316
0.295696
0.126848
117.19
34.3932
20.7039
14.8259
10.4399
6.68323
3.76701
1.8734
0.847945
0.356684
0.150399
136.042
38.898
22.6948
16.1507
11.6004
7.6929
4.52562
2.35237
1.10558
0.480178
0.203627
170.367
46.5198
26.0436
18.1468
13.1706
9.02297
5.57811
3.08789
1.55468
0.725402
0.324335
233.192
56.0384
30.5228
21.0677
15.3602
10.8281
7.06032
4.22089
2.33427
1.21032
0.599303
403.968
63.4024
38.3253
24.4345
18.3083
13.5297
9.47043
6.21645
3.84166
2.254
1.27252
763.696
408.884
210.153
106.122
50.4301
18.8567
6.15479
2.0774
0.716927
0.259382
0.102205
713.855
425.275
277.205
166.058
91.7381
43.9619
17.4328
5.07364
1.25714
0.405277
0.149678
295.782
372.134
290.876
201.081
126.489
70.6608
33.8092
12.7671
3.46284
0.734162
0.243492
255.294
273.443
286.667
222.048
153.448
95.1289
51.818
23.6242
8.31508
2.10315
0.453013
264.925
203.711
269.872
248.029
181.996
119.615
70.649
36.4206
15.5074
5.05808
1.24846
258.18
171.492
224.023
275.595
225.988
153.04
93.3816
51.4091
24.6583
9.7039
2.99983
251.583
152.449
179.926
254.369
273.359
202.601
126.054
70.9017
36.0741
15.9589
5.8617
247.64
138.546
151.05
210.777
280.65
255.217
170.555
97.6184
50.7642
23.8679
9.82239
247.084
127.156
129.079
173.529
246.305
283.425
218.385
131.514
69.5155
33.6102
14.7829
249.502
118.142
112.103
143.757
204.157
271.613
252.745
166.595
90.9777
44.8521
20.4916
254.814
111.134
99.5134
119.914
166.353
235.278
261.391
193.167
111.05
56.1248
26.3946
262.724
108.061
91.2255
101.643
135.132
195.604
245.889
204.365
124.444
64.9251
31.4774
274.499
107.389
86.1926
88.8078
111.083
158.394
213.952
199.285
127.605
68.9266
34.581
290.809
110.012
84.2136
80.6038
93.5977
127.152
178.389
183.343
120.605
67.2832
35.2479
313.23
116.948
84.9113
75.761
81.7469
102.156
135.569
160.197
106.084
60.7255
33.7848
342.696
127.505
87.6556
72.1248
71.227
81.7114
99.3552
114.373
93.2474
52.5036
31.144
382.856
143.356
93.653
70.5609
62.7127
65.2176
72.7621
79.3121
74.8037
48.0906
28.1144
440.724
167.374
105.295
73.161
58.6077
55.6839
58.2788
61.7092
60.8197
46.2044
27.6367
529.829
204.629
127.552
84.0678
62.1774
55.2156
55.4975
57.5627
56.9695
48.8514
30.6118
677.409
267.837
175.387
116.147
83.4177
72.2109
72.839
75.1885
72.374
61.1338
39.5886
877.013
370.981
278.849
205.871
156.051
136.949
126.138
115.408
98.699
73.5724
47.3977
1055.88
436.33
350.166
283.819
207.707
154.835
120.644
90.2618
65.1391
45.1005
29.6248
915.187
433.165
326.736
233.568
165.03
114.663
79.2382
53.823
35.732
23.1239
14.4454
756.969
378.317
218.28
135.729
87.836
57.6993
37.7727
24.2703
15.1649
9.15573
5.32623
62.5964
62.4711
61.3436
57.0202
50.2445
39.3439
23.0089
6.88639
3.55479
20.2134
19.2578
18.8134
18.272
18.5963
17.9986
14.2236
7.69676
3.15994
11.0829
10.3773
9.76675
9.63676
10.6692
12.0605
11.2978
7.14887
3.32858
6.17495
5.85763
5.54054
5.74415
6.63347
8.11377
8.68112
6.24652
3.29139
66.6338
69.4228
65.9687
57.9384
47.7936
33.5273
13.951
4.9531
3.55693
22.1513
22.661
22.3251
21.7494
21.5317
19.577
14.7232
5.68013
2.25738
12.1054
12.2229
11.6646
11.8356
13.5312
14.7393
13.6355
6.43688
2.50086
6.89281
7.21508
6.88152
7.12496
8.53427
10.366
11.2024
6.71147
2.7742
0.0090126
0.00829575
0.00834983
0.00548592
0.47104
0.00754584
0.13034
0.00810777
0.00751745
0.00695157
0.469557
0.00814213
0.0102389
0.00518133
0.0146078
0.00728706
0.00606994
0.00542437
0.00725144
0.00710882
0.00663361
0.0624763
0.00851917
0.120187
0.00792122
0.00511663
0.00984524
0.120425
0.924179
0.388079
0.00721496
0.00642754
0.00718269
0.00807121
0.00681228
0.00826394
0.109581
0.00790429
0.00810203
0.00757032
0.146364
0.0081027
0.041744
0.00849444
0.711715
0.30884
0.0185995
0.446535
0.00692796
0.00736845
0.392823
0.00759132
0.0897865
0.0423559
0.00734774
0.00666199
0.0599147
0.00761161
0.910916
0.015676
0.075951
0.0692183
0.517802
0.0346997
0.174715
0.00714865
0.377788
0.00731786
0.00829708
0.0069396
0.00515455
0.00714411
0.0148728
0.00771432
0.0133785
0.00709062
0.0793043
0.00828271
0.0567555
1.23565
0.256909
0.0261394
0.00793377
0.0083819
0.00697871
0.0148494
1.41384
0.0415967
0.0199355
0.105842
0.00809201
0.00764955
0.164415
0.00736945
1.17262
0.833093
0.00782357
0.00609756
0.0250224
0.00728666
0.00774807
0.323035
0.00679855
0.00616104
0.0146807
0.0081247
0.00461198
0.00845332
0.0145215
0.00661529
0.00797737
0.00815427
0.00721435
0.00649822
0.0219181
0.00768963
0.00752401
0.00732523
0.00794768
0.00673213
0.00695715
0.00756028
0.00903716
0.00504167
0.239941
0.00802469
0.288064
0.00474206
0.00634743
0.00907587
0.00778557
0.0159183
0.377277
0.00709465
0.00833951
0.0080873
0.0611475
0.0158134
0.410358
0.00734985
0.0447364
0.00659181
0.216357
0.00868072
0.00749677
0.0252843
0.0150402
0.00729361
0.00710254
0.00709616
0.00720997
0.00766854
0.0279106
0.00752712
0.00609136
0.0207121
0.0196097
0.041102
0.00545998
0.00747619
0.00549456
0.0332174
0.00713155
0.00771269
0.386844
0.0257258
0.0206941
0.00690336
0.00715063
0.170141
0.00592838
0.00545064
0.00810746
0.0064563
0.00641625
0.00641479
0.00577909
0.0293135
0.730824
0.00695743
0.00729182
0.0668032
0.0084995
0.113466
0.00796046
0.0122671
0.00714194
0.00727886
0.00825376
0.0813083
0.0136683
0.00530417
0.00719221
0.144661
0.00832534
0.00760262
0.00742801
0.025753
0.00978442
0.0085674
0.0265466
0.00735773
0.0132376
0.00782573
0.00838679
0.0419165
0.00735223
0.0063139
0.00740372
0.0074084
0.122802
0.00759118
0.00827549
0.00673189
0.00791808
0.0291472
0.00798112
0.0246624
0.00720895
0.0112096
0.0110914
0.00657893
0.0076837
0.0221663
0.00483381
0.00762845
0.0770327
0.0236609
0.0119436
0.149598
0.0411301
0.00713978
0.00718964
0.00753823
0.0281082
1.42246
0.333613
0.00845271
0.00815823
0.00811726
0.0247427
0.0318465
0.0061303
0.136968
0.00789847
0.0399704
0.00800934
0.00817382
0.453217
0.332431
0.00811606
0.125456
0.0105071
0.00728104
0.00601835
0.0074559
0.00672808
0.00785572
0.0193034
0.00711896
0.00832767
0.00956707
0.00738273
0.0082038
0.00796989
0.0167724
0.00658076
0.00837727
0.0176528
0.00694374
0.208983
0.00732556
0.00733455
0.0175725
0.00756928
0.00736516
0.00536115
0.00776672
0.00692088
0.0181655
0.00721827
0.00828385
0.260258
0.309312
0.00603107
0.00759236
1.24848
0.00825283
0.00683261
0.0447141
0.00834812
0.112694
0.00684608
0.00957704
0.00856585
0.00742375
0.00711516
0.0081715
0.00681257
0.00536829
0.00776801
0.00910348
0.00710632
0.396279
0.00676742
0.00661259
0.00828618
0.0669027
0.0649377
0.00743238
0.0861745
0.00816697
0.00644611
0.00695025
0.0826754
0.00656216
0.00715612
0.014418
0.00671067
0.00754133
0.00712623
0.184369
0.00746189
0.00538371
0.0237897
0.00677148
0.00778464
0.0059857
0.00709439
0.165116
0.00752644
0.53179
0.0792706
0.00846269
0.0114806
0.813666
0.0163432
0.00824545
0.00785646
0.00595762
0.0272334
0.120473
0.00733743
0.0261312
0.187131
0.0681752
0.0227579
0.00753285
0.0936947
0.329451
0.117305
0.00585112
0.0070069
0.00682687
0.0132366
0.0086027
0.01183
0.00696001
0.00849886
0.20507
0.00986412
0.00535981
0.00800677
0.00798962
0.00728186
0.0195748
0.00512775
0.0163922
0.150241
0.00755361
0.00774329
0.109936
0.617026
0.00477215
0.0119566
0.00832008
0.00905288
0.00676203
0.00753041
0.00712078
0.23112
0.00755767
0.0244779
0.00765279
0.0052641
0.332102
0.00850183
0.00479675
0.0306307
0.0233148
0.00770389
0.0529376
0.00466413
0.00772746
0.350906
0.178795
0.00787536
0.00723094
0.0083581
0.0350998
0.0190401
0.00764535
0.00850513
0.0463717
0.00787491
0.185181
0.0541249
0.0301475
0.0073526
0.18242
0.0069723
0.00720447
0.010892
0.0103409
0.0300771
0.00639526
0.013874
0.00800789
0.0048445
0.0415054
0.297454
0.00614361
0.162806
0.0128755
0.00628338
0.00659498
0.00763978
0.0281787
0.0077637
0.197062
0.00790056
0.0243276
0.00509179
0.00663321
0.00674989
0.0151826
0.195095
0.413261
0.00509374
0.00859994
0.00596283
1.48147
0.00535006
0.00878233
0.00688735
0.0270944
0.017464
0.0400449
0.00742557
0.0353288
0.00774691
0.00833734
0.00794305
0.0314099
0.0178177
0.163713
0.00588567
0.0283524
0.026567
0.00826018
0.00741204
0.305646
0.00504924
0.00599115
0.00703457
0.144666
0.115879
0.0902244
0.0916648
0.00747904
0.0065754
0.0169687
0.00701019
0.0760583
0.00692715
0.00824336
0.00735129
0.034768
0.0333583
0.00716146
0.0077786
0.00668142
0.0945629
0.0678757
0.00845349
0.0243513
0.236801
0.00941474
0.0170394
0.00741316
0.028152
0.0075958
0.00696247
0.00761177
0.00786203
0.00643672
0.0071596
0.00535975
0.00853701
0.00815593
0.00566834
0.00595094
0.00808215
0.00806633
0.490297
0.0224573
0.013439
0.00755922
0.266829
0.00835773
0.275882
0.0162876
0.0249536
0.0213745
0.00788461
0.337196
0.0317675
0.00532987
0.00778712
0.00634841
0.00667533
0.00827758
0.00769423
0.00819657
0.00675499
0.225229
0.00801091
0.00745662
0.0846299
0.00773886
0.167519
0.00688377
0.0524524
0.00560444
0.019782
0.00856504
0.00786408
0.00840729
0.146327
0.0344526
0.00795494
0.00790854
0.00501872
0.0083422
0.00609424
0.00830732
0.22546
0.0068156
0.0444969
0.00860129
0.00756856
0.373269
0.287429
0.00679856
0.00656365
0.00707771
0.00831187
0.0151505
0.0400674
0.00721502
0.00874222
0.447082
0.976242
0.00791649
0.00735503
0.00827683
0.0174179
0.347275
0.0191866
0.00809264
0.00750436
0.307875
0.00725215
0.00866231
0.0068617
0.0371433
0.343291
0.00770993
0.0205859
0.0078195
0.0330074
0.00737918
0.0136551
0.00603537
0.00642896
0.0873485
0.0354604
0.00841604
0.00854653
1.09304
0.00763179
0.00615755
0.00919174
0.0332363
0.0151996
0.0267841
0.00760646
0.00690668
0.00773722
0.00792352
0.690203
0.0157344
0.0120746
0.0071173
0.00794775
0.0438767
0.00709239
0.00751927
0.00687142
0.00707886
0.0083667
0.0153957
0.0328447
0.0181309
0.0062166
0.0113436
0.00725726
0.0593517
0.00705608
0.0077988
0.503382
0.174854
0.00755192
0.00757168
0.0592016
0.00676438
0.00739342
0.0194639
0.00831072
0.00669808
0.0101426
0.00921429
0.00828416
0.00492624
0.00567688
0.0388851
0.11979
0.0332285
0.0325547
0.00626498
0.0211545
0.0276207
0.00851049
0.00836466
0.0068016
0.0246264
0.00606843
0.00698634
0.00685914
0.00511605
0.044293
0.415682
0.0060857
0.0117539
0.00769002
0.0132399
0.00811881
0.00725918
0.00694364
0.0131949
0.00699498
0.0077236
0.00688388
0.00826587
0.0116393
0.0558483
0.145261
0.00705644
0.00706975
0.00754973
0.0545044
0.00745848
0.129036
0.00716209
0.0175407
0.152944
0.00770664
0.0191887
0.00849852
0.00696197
0.0171249
0.00847406
0.433321
0.00556368
0.00667496
0.00841792
0.0125289
0.0050758
0.032359
0.291928
0.00750536
0.00640996
0.00840465
0.00784385
0.00693873
0.0214596
0.00813708
0.00760839
0.00761963
0.00992443
0.0281669
0.00816148
0.00759252
0.00751194
0.0222384
0.00549009
0.00647943
0.0111885
0.132544
0.00953514
0.00636495
0.00626411
0.00846123
0.0397937
0.00652975
0.143413
0.00784162
0.00682751
0.00792035
0.00746411
0.0799435
0.00714624
0.0292225
0.00516704
0.00725652
0.00668661
0.00670648
0.0270369
0.00824159
0.326576
0.0439413
0.219141
0.00658805
0.0102573
0.0293526
0.0149401
0.0074931
0.0088166
0.0339281
0.0122017
0.00804071
0.00538618
0.445134
0.0081139
0.161558
0.00919978
0.00788827
0.0168033
0.00753239
0.00700373
0.00682782
0.00772545
0.00724269
0.00479009
0.00818902
0.00699772
0.00709266
0.00925736
0.022156
0.149617
0.0137951
0.00724013
0.169179
0.245418
0.00781834
0.0048442
0.0071087
0.0305959
0.0104691
0.0426801
0.00688669
0.0215413
0.00864667
0.00902899
0.00723146
0.00695468
0.00765471
0.0139104
0.062795
0.00860649
0.0079095
0.0073588
0.25026
0.188925
0.00756317
0.00820984
0.00699997
0.00693164
0.00814156
0.00822055
0.00837534
0.00788652
0.00785031
0.00561232
0.0496991
0.0899344
0.00481993
0.0066112
0.007699
0.00794713
0.00671762
0.220707
0.00827418
0.00622205
0.00756533
0.248963
0.126574
0.0423982
0.00779497
0.0172112
0.00771079
0.00782428
0.205083
0.0071522
0.00817453
0.00689406
0.0360043
0.00601949
0.00593213
0.00813785
0.0105988
0.156421
0.0198915
0.00817005
0.00469116
0.0382126
0.0281058
0.0200078
0.00843138
0.0072106
0.00529748
0.0139181
0.0277684
0.00829484
0.00688425
0.00775781
0.00736296
0.00825785
0.0099075
0.0062523
0.159486
0.214572
0.045381
0.00811255
0.46162
0.00853287
0.00715537
0.0092269
0.00790872
0.00766382
0.00766208
0.013964
0.0576791
0.0207927
0.00765338
0.0118341
0.00768524
0.00859879
0.00735972
0.00755975
0.00685604
0.00793413
0.00814775
0.00731864
1.41028
0.00753858
0.00713606
0.00715135
0.1556
0.00722044
0.00796956
0.0184614
1.3523
0.00709338
0.00775259
0.0110265
0.0134099
0.00846337
0.00808445
0.00675033
0.00860359
0.0595159
0.00828275
0.082634
0.00964874
0.121767
0.00813679
0.00822022
0.00623773
0.0288574
0.0077503
0.0075227
0.00761794
0.00831848
0.00603293
0.179835
0.00678247
0.0271194
0.270864
0.0306626
0.00604359
0.0414385
0.00851038
0.00815238
0.00510959
0.00856348
0.00611328
0.00759425
0.274173
0.0072258
0.0106721
0.0073248
0.00464323
0.00536717
0.0192414
0.00782207
0.00693265
0.00804102
0.275308
0.0620892
0.313114
0.00655688
0.0100109
0.00674408
0.00776748
0.304105
0.00753996
0.00830246
0.00609731
0.183291
0.0319508
0.0365757
0.00690778
0.00533474
0.0311454
0.650452
0.00801702
0.00677739
0.333842
0.00760008
0.0207637
0.00793205
0.0842513
0.00829236
0.0276707
0.00830808
0.00730626
0.00844716
0.00762566
0.0138988
0.00658
0.00715511
0.00781135
0.0073106
0.00961303
0.00721202
0.038477
0.0072036
0.00685755
0.178366
0.0233869
0.0429142
0.00832741
0.0374863
0.00743627
0.00828298
0.0266165
0.00646581
0.0379104
0.359181
0.00609659
0.0133042
0.00654038
0.00741776
0.0178755
0.0164231
0.00708832
0.0444173
0.00813155
1.36343
0.0357537
0.861837
0.00812807
0.0209086
0.0115877
0.312336
0.00768445
0.00539165
0.00855544
0.00461455
0.116384
0.00816245
0.0089098
0.0141539
0.028055
0.216
0.00815788
0.00779354
0.00737379
0.0434339
0.00694858
0.164151
0.0112147
0.0513296
0.347759
0.00828937
0.0161632
0.0319317
0.0295494
0.0825692
0.0270686
0.00757876
0.0114293
0.00494899
0.00810226
0.00782368
0.00856597
0.0102718
0.00656951
0.00831822
0.00557929
0.0479226
0.00486641
0.00803241
0.105382
0.0144847
0.00689277
0.0107213
0.00814001
0.00706966
0.00736837
0.201387
0.00754603
0.0194766
0.00616509
0.0240504
0.00797107
0.00695177
0.00796133
0.00753147
0.018549
0.0444342
0.0475473
0.618952
0.203116
0.661249
0.00686623
0.00694439
0.00939012
0.00839074
0.00584982
0.0549922
0.00691151
0.0820267
0.00610982
0.15529
0.00687067
0.00492793
0.00812115
0.29615
0.00862344
0.461035
0.00719996
0.00784853
0.0443884
0.0582952
0.00675107
0.0261119
0.038476
0.063399
0.124871
0.0199424
0.218844
0.00898924
0.00716302
0.294647
0.0188549
0.00832594
0.00622206
0.00806934
0.00504103
0.0052799
0.00974007
0.00773629
0.0167764
0.606897
0.00752434
0.00729529
0.00683104
0.00819868
0.00981581
0.00542277
0.00697671
0.00557263
0.37595
0.00777341
0.625847
0.0698918
0.00771447
0.111771
0.0573513
0.0177848
0.00668613
0.120046
0.0076815
0.00803861
0.348214
0.0075206
0.00824286
0.00580283
0.00809883
0.00763772
0.16924
0.00761142
0.645935
0.0134597
0.0195669
0.00724239
0.0124013
0.029446
0.00619935
0.221428
0.00776216
0.0112908
0.0291843
0.00713945
0.016764
0.0304122
0.0209681
0.00747391
0.0324409
0.0682331
0.00645317
0.00734681
0.0277853
0.00694849
0.0191097
0.0238208
0.358355
0.00711932
0.00860368
0.0079672
0.00617974
0.0083588
0.00478355
0.0376667
1.20728
0.00783791
0.0240176
0.0280494
0.00820382
0.0346752
0.00709938
0.00708002
1.10978
0.0474075
0.290248
0.162044
0.00816994
0.007932
0.0220127
0.221707
0.184403
0.247777
0.0049367
0.00817411
0.007231
0.00626913
0.202464
0.0477582
0.00871279
0.0073951
0.0279734
0.0237474
0.0358678
0.00677948
0.0912181
0.216653
0.00638557
0.00559187
0.00728711
0.00715777
0.214788
0.00543744
0.008508
0.0151243
0.00784243
0.00639977
0.367543
0.00887481
0.0106143
0.0327837
0.0262829
0.00750056
0.195048
0.0191046
0.00836612
0.00454948
0.019542
0.00662693
0.314151
0.00806764
0.00768926
0.00700408
0.134463
0.00615087
0.00745784
0.0321513
0.00834177
0.008154
0.00859551
0.00531193
0.00770624
0.0349046
0.0173298
0.00814917
0.462524
0.0349501
0.0081619
0.0315385
0.00666895
0.00518412
0.0324527
0.00804029
0.00817133
0.00789484
0.00740742
0.00793723
0.00722033
0.00792141
0.0485014
0.0372343
0.00613626
0.051285
0.00692807
0.0197884
0.0172654
0.00855504
0.00700288
0.0158789
0.00487143
0.0067473
0.00588172
0.00665877
0.00685525
0.0079703
0.0377889
0.143811
0.0240746
0.0978115
0.00859361
0.0130891
0.323953
0.0164373
0.0127647
0.00759433
0.0337012
0.027366
0.114702
0.00477095
0.0183281
0.0325631
0.0065901
0.00795325
0.940443
0.00484008
0.00673908
0.0290234
0.0278813
0.00584431
0.0119618
0.0141349
0.00459799
0.592617
0.244079
0.0079023
0.00728667
0.0183952
0.0479766
0.010455
0.00812109
0.00701489
0.0083935
0.00737076
0.0788179
0.0076147
0.00845491
0.132139
0.00847907
0.0073516
0.00770314
0.00756549
0.00671797
0.00857747
0.00725034
0.0116111
0.00704151
0.00879189
0.0080473
0.0307187
0.00819769
0.0183947
0.00770576
0.0209456
0.00837975
0.00768287
0.0590354
0.240638
0.00705571
0.00780945
0.00769306
0.0201022
0.00826956
0.00745632
0.00824929
0.00740961
0.00620675
0.00727566
0.0310998
0.00512128
0.0625374
0.00847694
0.00861769
0.00790339
0.00669242
0.00810426
0.00849442
0.00801939
0.158162
0.00745939
0.0164234
0.00790508
0.00799699
0.480479
0.00844923
0.00855427
0.140862
0.216274
0.0145187
0.00756021
0.019908
0.00790387
0.0219655
0.0111769
0.0105453
0.00744294
0.00631585
0.0235878
0.00762732
0.0321273
0.00741704
0.0153502
0.0267789
0.00775704
0.0173711
0.00746139
0.143236
0.0156638
0.00497653
0.0321516
0.00643019
0.00596876
0.00840376
0.0104307
0.0300967
0.0075238
0.00811639
0.0420672
0.00674322
0.00685018
0.00689648
0.00546983
0.00789329
0.0283065
0.0301825
0.00685427
0.0177943
0.00798331
0.00839152
0.00702918
1.17202
0.00987174
0.00714828
0.150374
0.0321515
0.00821337
0.00706516
0.0289673
0.0105794
0.0066063
0.00724265
0.0147171
0.0394636
0.00753283
0.00693632
0.0735333
0.00715127
0.00830373
0.00734451
0.00691131
0.00774439
0.0245146
0.00763626
0.0347131
0.00639833
0.0134065
0.0081298
0.005023
0.0281735
0.0068949
0.0193329
0.00765432
0.00724293
0.0394523
0.0136503
0.00560109
0.00845916
0.00737914
0.244777
0.00697217
0.00717529
1.40969
0.00673342
0.00720212
0.00739672
0.00717189
0.00646534
0.00634205
0.0157748
0.00513435
0.0159443
0.00718241
0.00758508
0.0154878
0.00453439
0.00748435
0.00645681
0.00563921
0.00730314
0.289861
0.00855269
0.026484
0.00747609
0.00687658
0.00584213
0.00728199
0.0124536
0.00795505
0.00722593
0.00673892
0.00756594
0.00837071
0.0344827
0.0233556
0.0109327
0.0106896
0.040881
0.00667649
0.00755647
0.00745247
0.212324
0.00724309
0.00668314
0.343959
0.00681324
0.231293
0.155972
0.00696062
0.00810227
0.00712629
0.00539267
0.00493039
0.00687013
0.00796009
0.0212268
0.0373917
0.00471884
0.0349387
0.00781247
0.0702993
0.16641
1.02248
0.0106547
0.0117758
0.00491829
0.00829141
0.00690572
0.0249104
0.0079023
0.011016
0.00528529
0.0131309
0.00522998
0.0593695
0.0192932
0.0265873
0.257396
0.00781714
0.349126
0.00986806
0.00662754
0.00601881
0.0087516
0.00840738
0.584165
0.0078263
0.237595
0.312051
0.00506425
0.0722066
0.0256789
0.265697
0.00738921
0.00762963
0.00740981
0.00727976
0.00765326
0.00621181
0.00716638
0.0217644