/*--------------------------------*- C++ -*----------------------------------*\
| =========                 |                                                 |
| \\      /  F ield         | OpenFOAM: The Open Source CFD Toolbox           |
|  \\    /   O peration     | Version:  3.0.1                                 |
|   \\  /    A nd           | Web:      www.OpenFOAM.org                      |
|    \\/     M anipulation  |                                                 |
\*---------------------------------------------------------------------------*/
FoamFile
{
    version     2.0;
    format      ascii;
    class       volScalarField;
    location    "0.764428";
    object      epsilon;
}
// * * * * * * * * * * * * * * * * * * * * * * * * * * * * * * * * * * * * * //

dimensions      [0 2 -3 0 0 0 0];

internalField   nonuniform List<scalar> 
21246
(
237.009
73.2818
38.3067
21.1394
10.9786
5.15972
2.22454
0.923337
0.380928
0.159639
0.0719728
230.561
67.8153
35.6587
19.6356
10.0785
4.71294
2.03777
0.840678
0.340515
0.139409
0.0611581
166.67
62.5253
34.539
19.89
10.5684
5.03965
2.18631
0.89362
0.356466
0.143415
0.0613415
130.447
53.6556
32.1118
19.8978
11.2293
5.57954
2.47647
1.01989
0.403955
0.158094
0.064887
105.209
45.1536
28.3077
18.6986
11.3138
5.99999
2.78626
1.16153
0.449784
0.169155
0.0667141
90.1229
38.5567
24.9015
17.0224
10.6908
5.90199
2.83369
1.20976
0.476929
0.181037
0.0717893
78.5383
33.3453
22.0969
15.4786
9.95043
5.63979
2.78133
1.21617
0.489575
0.189289
0.0756198
71.1685
29.7216
19.87
14.0712
9.18918
5.30297
2.66879
1.19174
0.489587
0.193291
0.0803139
65.4849
27.0214
18.0821
12.8764
8.49293
4.96264
2.53636
1.1535
0.483879
0.195546
0.0831226
61.0062
24.9558
16.6722
11.9124
7.91015
4.66392
2.41205
1.11379
0.476013
0.196348
0.0843105
57.2828
23.3078
15.5453
11.1381
7.43562
4.41594
2.30571
1.07789
0.46758
0.195898
0.0862674
54.5841
21.9633
14.6175
10.499
7.04261
4.21033
2.21736
1.04789
0.460475
0.195715
0.0875904
52.8044
20.9056
13.8722
9.99003
6.73468
4.05351
2.15261
1.02747
0.456905
0.196795
0.0888812
51.4521
20.1325
13.3139
9.61993
6.52411
3.95641
2.11898
1.02076
0.458397
0.199318
0.0912677
50.9556
19.5799
12.8965
9.35665
6.39303
3.9127
2.1158
1.02867
0.4658
0.203686
0.0930751
51.2767
19.2422
12.6197
9.20569
6.35063
3.93178
2.15031
1.05534
0.481012
0.210735
0.0957389
52.136
19.1527
12.5075
9.19011
6.42117
4.03444
2.23634
1.10813
0.507375
0.221683
0.0997101
54.116
19.376
12.5691
9.31831
6.61786
4.23804
2.38888
1.19629
0.549376
0.238416
0.105318
57.7465
20.0645
12.89
9.63003
6.98168
4.59002
2.64272
1.33718
0.616034
0.265102
0.114792
63.6763
21.4095
13.542
10.1481
7.51255
5.09579
3.03465
1.57903
0.737056
0.316862
0.134459
73.3572
23.785
14.656
10.9431
8.25131
5.7884
3.59894
1.95802
0.948168
0.418498
0.17769
90.6513
27.2564
16.426
12.11
9.24363
6.69571
4.37294
2.52939
1.30749
0.61546
0.273286
120.493
35.1336
19.7192
14.0567
10.6926
7.93364
5.44437
3.38533
1.91279
0.994453
0.485451
213.544
40.256
24.3031
17.0803
12.9983
9.8545
7.12068
4.80267
3.01316
1.76809
0.982878
212.032
108.051
62.2458
35.9109
19.7839
9.19343
3.69076
1.46717
0.572173
0.232577
0.102658
158.38
108.96
80.5445
55.0235
34.7505
19.6513
9.56876
3.73824
1.12555
0.401894
0.166197
110.711
109.926
93.9891
71.2231
49.936
31.9716
18.1792
8.74808
3.29848
0.867538
0.301842
121.386
77.3887
94.4236
85.719
65.1625
45.0925
28.3359
15.7129
7.30233
2.59096
0.696792
133.007
74.9488
82.6999
99.186
86.5633
62.8329
41.292
24.6725
13.0203
5.71592
1.96895
143.81
75.1163
72.269
91.6628
105.577
87.8557
60.5341
37.3718
20.934
10.3536
4.28872
153.103
74.5925
64.6866
76.623
100.138
108.272
85.2627
55.6319
32.2531
16.8787
7.79851
160.253
73.319
58.7754
64.3368
82.3675
106.612
104.993
77.0366
47.2739
25.739
12.645
166.772
71.8821
54.393
54.9818
66.3084
89.5337
109.01
94.5201
63.5824
36.4784
18.7171
173.289
70.6972
51.5722
48.3333
53.9914
71.3847
97.1512
102.145
76.9171
47.1722
25.3813
180.586
70.1899
50.2835
44.0155
45.483
57.3471
81.6861
100.031
84.4413
55.4874
31.3842
189.139
71.6297
50.4896
41.6797
40.2178
47.7208
67.3248
91.1406
86.14
59.8836
35.5459
200.375
74.5764
51.9915
41.0215
37.4755
41.922
56.3866
80.8347
83.9581
60.2062
36.9408
215.529
80.0067
54.8481
41.7202
36.5209
38.8002
48.4207
66.6753
80.9301
57.4917
35.7586
234.087
87.6613
59.1625
43.3093
36.0097
36.142
42.1179
52.7003
64.0996
54.9388
32.7881
258.277
98.2386
65.4642
46.0337
35.884
33.3834
35.8712
41.2545
47.2168
47.6888
31.6476
290.48
112.81
74.6838
50.5939
36.8206
31.5627
31.3384
33.6417
36.7055
37.5757
29.7141
335.191
132.984
88.5657
58.5338
40.1467
31.9752
29.6388
29.8983
30.9128
31.1274
28.8267
401.22
161.684
111.369
74.1724
49.3916
37.6132
33.8463
33.547
33.7732
32.8987
30.811
504.059
202.91
151.443
110.285
78.5759
61.4112
55.4191
54.3213
51.4668
45.7205
40.4421
498.211
227.856
182.342
142.181
108.328
89.6894
79.4313
67.3289
52.5381
41.7368
30.6211
526.297
225.675
188.171
156.525
120.209
92.5344
70.2726
51.7232
36.7438
25.6182
16.9749
523.711
233.026
174.056
129.613
93.2624
66.1778
46.1536
31.6892
21.3092
13.9211
8.74292
429.449
203.593
117.411
74.4043
49.197
33.1111
22.2921
14.7714
9.49288
5.84808
3.43091
228.856
72.8721
20.5675
4.06665
0.903819
0.273812
0.126388
0.080208
0.0600498
0.0481823
0.0393758
341.797
114.121
18.8595
4.61391
1.1365
0.346364
0.14489
0.0829433
0.0578549
0.0445551
0.0357529
417.575
148.032
18.4003
5.45299
1.39582
0.446801
0.174038
0.0905727
0.0573481
0.0400952
0.0286724
451.475
142.26
18.1298
5.90194
1.46629
0.516626
0.198283
0.0990221
0.0587231
0.0384419
0.0262227
461.686
123.844
17.5255
5.79854
1.42325
0.555266
0.213429
0.106655
0.0613437
0.0387261
0.0257758
465.181
107.932
16.7985
5.43839
1.36291
0.565049
0.220727
0.112582
0.0641586
0.0398367
0.0262206
462.855
96.5585
16.0765
5.01189
1.31121
0.557228
0.223373
0.116899
0.0667834
0.0412706
0.0268434
452.688
88.3748
15.3477
4.61876
1.26535
0.541758
0.223941
0.120121
0.0692404
0.0430131
0.0281837
441.833
82.3978
14.6917
4.30851
1.22872
0.526556
0.224492
0.123034
0.0717748
0.0449982
0.0295333
435.883
79.0885
14.2927
4.10673
1.21019
0.517306
0.226721
0.126464
0.0746944
0.0473026
0.0310026
427.24
80.0889
14.1587
3.99547
1.21025
0.515172
0.231366
0.130941
0.0782801
0.050108
0.0329454
415.751
81.6872
14.3334
3.94962
1.2251
0.519338
0.238683
0.136793
0.0827941
0.0536172
0.0353147
404.395
84.4493
15.3298
4.11941
1.28657
0.537651
0.251327
0.144908
0.0886734
0.058131
0.0384838
393.214
89.8508
17.7228
4.66628
1.45244
0.58632
0.275547
0.157766
0.0973529
0.0643822
0.0429915
382.711
95.3537
20.7427
5.55576
1.73955
0.676699
0.314998
0.177044
0.109551
0.0728359
0.0491725
373.992
101.556
24.6505
6.95018
2.23107
0.843962
0.382496
0.207847
0.127404
0.0845903
0.0577035
366.852
109.766
30.1478
9.20288
3.10227
1.16735
0.511268
0.263636
0.156337
0.102144
0.0698951
363.162
119.257
36.9977
12.4727
4.5433
1.77154
0.766911
0.37577
0.210598
0.13203
0.0889252
364.039
130.666
45.6893
17.1748
6.89531
2.89089
1.29092
0.62164
0.330032
0.194089
0.124628
371.491
144.792
56.9732
23.9644
10.6923
4.93576
2.36745
1.18115
0.621241
0.348533
0.210048
389.242
162.834
71.9881
33.9512
16.8782
8.65244
4.55482
2.44924
1.34963
0.766061
0.451282
425.97
185.719
92.2007
48.9457
27.1786
15.4842
8.99156
5.28915
3.14738
1.89588
1.15913
493.466
212.963
119.229
71.8714
44.8061
28.3667
18.1504
11.6899
7.56603
4.91978
3.21484
683.337
262.294
166.603
113.591
78.7663
54.678
38.0093
26.4502
18.4214
12.8464
8.96318
308.442
96.607
19.9064
4.10488
0.908717
0.286683
0.141105
0.0951389
0.0751673
0.0635686
0.0550205
530.362
255.614
20.7946
5.30983
1.2209
0.40967
0.203805
0.140404
0.11397
0.0987101
0.0866537
641.256
338.955
24.9409
6.93841
1.52346
0.539701
0.263689
0.178925
0.145219
0.127549
0.114275
656.279
300.409
27.3482
7.63564
1.65988
0.650434
0.326835
0.230019
0.197434
0.187331
0.185872
625.05
238.948
26.9269
7.32594
1.682
0.725593
0.383621
0.282508
0.251783
0.246899
0.25066
581.752
191.193
25.0912
6.61785
1.65615
0.769526
0.432607
0.335245
0.311619
0.321451
0.350425
538.401
157.899
22.9472
5.9125
1.61656
0.794463
0.474682
0.386518
0.373242
0.400482
0.454652
495.481
133.915
20.8221
5.31316
1.57618
0.810943
0.51208
0.436098
0.435211
0.485085
0.58222
459.473
116.497
18.9531
4.84446
1.54599
0.826725
0.546999
0.483838
0.495283
0.570607
0.724141
431.795
103.674
17.4482
4.49032
1.5359
0.844161
0.581284
0.52872
0.54975
0.64441
0.831305
411.213
95.8259
16.3681
4.25633
1.55305
0.864409
0.616623
0.569277
0.595724
0.699458
0.898194
393.184
90.8661
15.7568
4.15821
1.59231
0.889855
0.654384
0.604361
0.632679
0.734653
0.931521
378.764
88.2356
16.1561
4.30631
1.69797
0.937937
0.70143
0.638735
0.665638
0.758614
0.93952
367.564
88.4638
17.8173
4.80225
1.90008
1.02258
0.759795
0.675631
0.694349
0.771921
0.922757
359.67
90.2166
20.2569
5.66546
2.23121
1.15996
0.835936
0.719501
0.720375
0.776295
0.888496
355.514
93.7163
23.6457
7.04444
2.77595
1.3896
0.947642
0.778914
0.748489
0.775951
0.845044
355.364
99.4878
28.2838
9.17851
3.69003
1.79347
1.13605
0.873659
0.790035
0.778849
0.80305
360.396
107.757
34.4454
12.3605
5.21314
2.52565
1.49134
1.05243
0.872978
0.802454
0.776343
371.995
119.278
42.6936
17.0596
7.73559
3.87602
2.20863
1.4367
1.07188
0.892738
0.795069
392.523
135.519
54.2016
24.1453
11.9528
6.38941
3.69905
2.31999
1.58855
1.18558
0.948036
426.383
158.766
70.9901
35.2955
19.2195
11.1561
6.82947
4.37829
2.93871
2.06639
1.51765
481.097
193.287
97.2836
54.248
32.6608
20.6864
13.5892
9.18385
6.36352
4.51335
3.26992
570.785
239.827
137.167
86.5804
57.8672
40.0032
28.2257
20.2777
15.0008
11.4119
8.92198
876.28
382.074
224.222
148.145
103.95
75.342
55.5996
41.4118
30.828
22.9101
16.9777
651.097
266.189
61.8174
16.5993
4.33867
1.32361
0.578032
0.370755
0.303333
0.282347
0.283814
835.669
426.563
120.612
27.9711
6.83961
1.91305
0.727576
0.421194
0.33436
0.313978
0.323317
828.001
422.218
154.854
45.1381
10.8335
2.66403
0.927013
0.486067
0.369224
0.347211
0.367704
692.424
372.407
163.945
55.618
15.3594
3.57083
1.14563
0.55763
0.404402
0.377124
0.403784
533.171
327.8
163.444
62.5455
19.5623
4.97576
1.39106
0.631881
0.438298
0.402477
0.430137
394.577
290.295
160.818
69.2675
24.4602
6.96555
1.90565
0.729563
0.471162
0.423368
0.449572
281.576
258.443
157.656
76.1766
30.3321
9.79249
2.81086
0.945293
0.51961
0.441207
0.465493
193.732
231.02
154.478
82.8553
36.8994
13.5198
4.26582
1.36731
0.620916
0.466648
0.476831
130.604
207.166
152.27
89.5186
44.1048
18.216
6.45096
2.13763
0.839162
0.521316
0.491379
88.6909
186.721
151.482
96.5521
52.0489
23.9877
9.56823
3.44888
1.28531
0.649903
0.523795
66.3123
172.035
152.436
103.916
60.469
30.6534
13.6593
5.46481
2.10297
0.930732
0.606135
64.2302
163.091
155.656
112.174
69.2901
37.9405
18.6035
8.25711
3.43138
1.47248
0.797172
72.0902
150.822
159.19
122.262
79.3511
46.1214
24.4465
11.9005
5.40706
2.40951
1.18793
72.8476
126.6
155.612
132.932
91.5177
55.8843
31.4685
16.5313
8.16984
3.89121
1.90199
65.5347
95.9504
138.068
138.357
104.537
67.433
39.9096
22.2689
11.8259
6.05118
3.07791
54.9539
68.4035
109.511
131.649
114.267
79.9373
49.9238
29.3256
16.5274
9.02963
4.86075
43.8372
47.019
79.1255
111.57
114.693
90.3221
60.7675
37.7126
22.4104
12.9647
7.3914
34.4265
31.6854
53.4595
84.2676
102.697
93.7973
69.9801
46.622
29.311
17.8829
10.7612
27.8268
21.6405
34.4539
57.3996
81.1785
87.3182
74.2675
54.328
36.5535
23.564
14.9142
24.6304
16.0065
21.8756
36.3942
57.7734
73.0815
71.9805
58.8622
42.8592
29.2765
19.4559
26.3672
14.5648
16.4709
24.5607
39.1765
57.0004
64.2999
58.7237
46.2688
33.3565
23.1313
39.5763
21.5655
21.2134
25.7738
33.2184
44.1276
54.1729
53.1328
44.4183
33.3315
23.8382
139.849
71.9679
70.4145
66.3827
59.5447
51.7838
44.8062
38.6961
33.123
26.7477
19.8097
260.844
184.905
150.737
132.228
117.841
103.378
87.6293
71.5268
56.1113
40.6645
26.6324
582.232
153.884
45.8454
11.546
3.12968
1.0683
0.515553
0.343799
0.280136
0.253932
0.244345
511.208
125.695
36.3227
11.7332
3.54839
1.22671
0.563164
0.354634
0.276979
0.243174
0.227168
498.159
142.46
37.5103
13.7777
4.76484
1.69375
0.710317
0.401227
0.292136
0.246505
0.224451
442.256
135.648
35.4761
14.0146
5.32617
2.06885
0.8948
0.481546
0.329687
0.26642
0.23674
383.055
115.377
32.6883
13.5661
5.33049
2.13807
0.952893
0.528341
0.365887
0.295505
0.26128
334.605
96.1557
29.8094
12.7467
5.14089
2.13919
0.982222
0.556273
0.390155
0.317983
0.28373
296.407
81.268
27.2791
11.9213
4.90947
2.10604
0.996587
0.5772
0.411807
0.341025
0.309629
265.412
69.9993
25.1186
11.2126
4.71724
2.08338
1.01131
0.597124
0.432443
0.363509
0.335408
241.993
61.6206
23.404
10.679
4.60812
2.09121
1.0368
0.621423
0.454827
0.386344
0.360735
224.82
55.4386
22.1206
10.3347
4.59589
2.13645
1.07994
0.654255
0.481529
0.411039
0.385961
212.64
51.1493
21.2587
10.1833
4.68405
2.2285
1.14593
0.698669
0.514332
0.438599
0.410614
203.814
47.9767
20.6587
10.1887
4.85698
2.36784
1.23759
0.757076
0.555114
0.470869
0.438546
198.437
45.7404
20.3173
10.3497
5.12105
2.56261
1.36075
0.833085
0.606162
0.50932
0.470909
195.414
45.2646
20.4121
10.7337
5.52364
2.84308
1.53227
0.934521
0.672048
0.557586
0.508514
194.517
45.717
20.8464
11.3002
6.08057
3.24524
1.7879
1.0893
0.77047
0.627666
0.56243
196.082
47.1963
21.6882
12.0802
6.80878
3.79618
2.15732
1.3228
0.921918
0.73729
0.650886
200.507
49.9573
23.0863
13.1477
7.75107
4.53798
2.68513
1.67694
1.1625
0.917596
0.805586
208.853
54.0853
25.1795
14.5959
8.96585
5.52506
3.43152
2.21365
1.55034
1.22133
1.07815
222.76
60.0045
28.239
16.604
10.5662
6.84542
4.48369
3.02419
2.1761
1.73461
1.55027
245.241
68.7394
32.799
19.5159
12.7757
8.65727
5.97881
4.24394
3.17704
2.59265
2.35103
282.608
82.1919
39.8732
23.982
16.0382
11.2734
8.16113
6.09096
4.76422
4.00284
3.67196
349.468
104.35
51.4865
31.3314
21.2804
15.3556
11.5256
8.96675
7.29516
6.30168
5.82824
486.417
150.662
74.9797
45.8043
31.3096
22.9046
17.5684
14.0473
11.7686
10.4483
9.85378
904.202
252.325
130.157
83.1747
59.132
44.842
35.8654
30.3778
27.3422
25.7913
24.0307
13.2026
33.8392
47.0302
54.9154
59.97
59.0822
51.6238
48.9105
48.9321
14.8511
19.5974
20.7695
20.2025
20.5173
19.7731
18.038
15.7336
14.7314
13.9281
14.8235
12.8921
10.8923
10.6617
10.628
9.72586
8.22387
7.53856
11.6472
10.3638
7.99255
6.49849
5.96886
5.83856
5.16175
4.10288
3.82908
4.71182
3.64205
3.74005
7.79917
21.2429
34.3029
42.5344
46.6422
48.6516
5.02859
2.277
3.49734
7.55765
12.5452
15.4296
15.651
14.8118
14.8561
5.86142
2.47857
3.56565
6.79228
9.83965
10.3633
8.9411
7.63098
7.40969
6.21956
2.71787
3.54549
6.01357
7.47067
6.7947
5.31687
4.35226
3.95436
0.0090079
0.00829822
0.00835104
0.0059602
0.462526
0.00754808
0.137227
0.00810117
0.00751607
0.00692267
0.460708
0.00813306
0.010143
0.00519851
0.0146006
0.00728617
0.00595777
0.00593852
0.00725021
0.00711314
0.0066407
0.0640199
0.00851781
0.113043
0.0079207
0.00513459
0.00976603
0.127694
1.5152
0.386026
0.00703957
0.00641522
0.00699182
0.00807215
0.00678676
0.00826734
0.103179
0.00790326
0.00789791
0.00757441
0.137009
0.00810299
0.0398281
0.00849253
0.724394
0.376635
0.0192484
0.518856
0.00689876
0.00732933
0.388609
0.00759733
0.0442245
0.0406511
0.00731879
0.00666959
0.0621794
0.00761952
1.39411
0.0189565
0.0721962
0.0384307
0.52065
0.0359508
0.179467
0.00715185
0.364372
0.00727455
0.00829984
0.00690902
0.00515975
0.00706128
0.0146597
0.00745008
0.0288114
0.00704032
0.0843079
0.00827974
0.056679
1.17269
0.241304
0.0269288
0.00793567
0.00838114
0.00698449
0.0146441
1.50069
0.0383203
0.0198557
0.0941647
0.00809086
0.00766079
0.146765
0.00725887
1.14747
0.791458
0.0148735
0.00617375
0.0252079
0.00717053
0.00775701
0.373968
0.00677653
0.00616214
0.0150261
0.00811766
0.00457995
0.00845279
0.0142232
0.00658334
0.00798285
0.00815346
0.00717412
0.00662666
0.0211759
0.00768966
0.00752088
0.00731892
0.00795632
0.00672318
0.00707307
0.00735369
0.00761543
0.00499368
0.299975
0.00850636
0.376481
0.00470627
0.00636492
0.00899229
0.00779815
0.0184914
0.452097
0.00703581
0.00834091
0.00821384
0.0648012
0.016126
0.405777
0.00731397
0.0416359
0.00660691
0.210938
0.00868266
0.00748937
0.0251412
0.0163068
0.00726654
0.00704375
0.00711267
0.00720731
0.00767741
0.0279811
0.00732168
0.00636145
0.022562
0.0195135
0.0417214
0.00546337
0.00746873
0.00549207
0.0338356
0.00705623
0.00771005
0.377612
0.024026
0.0204057
0.00764789
0.0069278
0.164641
0.00582128
0.00541311
0.0072308
0.00645812
0.00640586
0.00641265
0.00587349
0.029207
0.74734
0.00695453
0.00726885
0.067689
0.00849785
0.112635
0.00796213
0.0128324
0.00716141
0.00727372
0.00825617
0.0813274
0.0133048
0.00533204
0.00719219
0.125684
0.00832726
0.00759342
0.0074088
0.0261042
0.00965623
0.00856734
0.0269333
0.00731679
0.0126206
0.00760271
0.00838715
0.0394701
0.00725439
0.00633863
0.0073755
0.00740643
0.109339
0.00759209
0.00827492
0.00670519
0.00792326
0.0380981
0.00797726
0.0253703
0.0072077
0.0112447
0.00999594
0.00666999
0.0150967
0.0215191
0.00480087
0.0076368
0.0763691
0.0221343
0.0117611
0.154917
0.0409436
0.00714073
0.00719313
0.00734649
0.0280226
1.19063
0.305645
0.00845177
0.00815268
0.00811454
0.025527
0.0372689
0.00613146
0.109137
0.00759288
0.0402453
0.00801099
0.00799565
0.493415
0.347926
0.00793605
0.111296
0.0104316
0.0072817
0.0060156
0.0074426
0.00674046
0.00785394
0.0193258
0.00714363
0.00848398
0.00989748
0.00738089
0.00820129
0.00797548
0.0169237
0.00659558
0.00779252
0.0176495
0.00694487
0.213757
0.00730514
0.00729717
0.0180089
0.00756218
0.00735875
0.00529033
0.00776825
0.00691508
0.0186661
0.00711233
0.00827534
0.242891
0.283047
0.00602839
0.0075836
1.08928
0.00824234
0.00681539
0.0400328
0.00834063
0.118218
0.00722021
0.00976513
0.00856421
0.00739877
0.00696347
0.00816919
0.00678462
0.00531458
0.00778428
0.00911693
0.00706024
0.393642
0.0067804
0.00656974
0.00828214
0.0700173
0.0660015
0.00742048
0.0906158
0.00816111
0.00643057
0.00674493
0.0857451
0.00656139
0.00713468
0.0147903
0.00670707
0.00733737
0.00714368
0.182935
0.00745974
0.00538684
0.024165
0.00695791
0.00778864
0.0059681
0.00709512
0.204961
0.00741576
0.532775
0.0829496
0.00846255
0.0113832
0.831747
0.016173
0.00824192
0.00785602
0.00598807
0.0299247
0.107048
0.00729755
0.0250309
0.18974
0.0706302
0.0197315
0.00753201
0.089694
0.416459
0.117771
0.00591774
0.00700805
0.00684238
0.0132008
0.00860266
0.0104971
0.0069588
0.00849707
0.242863
0.00986409
0.00538877
0.00800303
0.00799139
0.00727318
0.0192701
0.00509834
0.017132
0.144813
0.00695511
0.00774404
0.109627
0.670857
0.00477895
0.0119913
0.00831243
0.00905508
0.00674383
0.00752107
0.00713314
0.210525
0.00754704
0.024372
0.00766214
0.00529228
0.323722
0.00851889
0.00476587
0.0367141
0.0225399
0.00771433
0.0555342
0.00463721
0.00757249
0.334709
0.193118
0.00788112
0.00722658
0.00835351
0.0379726
0.0190393
0.00764475
0.00850482
0.0404698
0.0073002
0.293456
0.0531301
0.0289189
0.00731378
0.182615
0.00751891
0.00720369
0.0104657
0.00996144
0.0306424
0.006382
0.0134553
0.00764611
0.00488669
0.0425899
0.286564
0.00622924
0.162782
0.0129061
0.00627928
0.00657605
0.00739362
0.0280133
0.00738937
0.242128
0.00790354
0.0241801
0.00509975
0.00662862
0.00761411
0.0138899
0.186186
0.405263
0.00504228
0.00859981
0.00596498
1.25331
0.00681017
0.008787
0.00703038
0.0249458
0.024342
0.0409786
0.00741743
0.0348739
0.00775922
0.00833668
0.00793957
0.0309081
0.0197222
0.153363
0.00579475
0.028782
0.0267558
0.00826132
0.00740476
0.397149
0.00507488
0.00598704
0.00756166
0.144041
0.116142
0.0902244
0.0916648
0.00738966
0.00657266
0.0167043
0.00703686
0.069887
0.00719938
0.00823496
0.00733117
0.0347675
0.0329748
0.00717318
0.0077794
0.0066884
0.0978526
0.0693585
0.00845088
0.0243831
0.243621
0.00941899
0.0163094
0.00740816
0.028408
0.00758585
0.00720649
0.00761799
0.00791584
0.00644137
0.00716022
0.00535847
0.0085363
0.0077014
0.00564735
0.005938
0.00807324
0.00806901
0.50224
0.0187168
0.0130615
0.00743326
0.281459
0.00835683
0.264921
0.0162681
0.0241591
0.0201707
0.00791353
0.315541
0.0347338
0.00532954
0.00779018
0.00634839
0.00667065
0.00826902
0.00769118
0.00819062
0.00688333
0.204866
0.00801412
0.00745092
0.0831007
0.00775473
0.161524
0.00702715
0.055662
0.00561155
0.0194315
0.00856322
0.00786191
0.00840517
0.119789
0.0340854
0.00795747
0.00791156
0.00497202
0.0083405
0.00685535
0.00830428
0.260705
0.00680978
0.0459022
0.00859568
0.00769393
0.434825
0.276022
0.00681356
0.0065745
0.00702406
0.00830388
0.0137156
0.041266
0.00721571
0.00847774
0.339957
0.817133
0.00791539
0.00731594
0.00827602
0.0243194
0.319892
0.0190621
0.008084
0.00749839
0.281209
0.00720413
0.00879371
0.00684247
0.0358815
0.34619
0.00771641
0.0207573
0.00781725
0.0364327
0.00736493
0.0281356
0.0061324
0.0064193
0.089681
0.0326706
0.00841228
0.0085458
1.1237
0.00762657
0.00615948
0.00987056
0.0362662
0.0212828
0.0291476
0.00762042
0.00686864
0.00775313
0.00792852
0.714638
0.0157915
0.012106
0.00712016
0.00794678
0.0427674
0.00712352
0.00735826
0.00719238
0.0070054
0.00845187
0.0159513
0.0358051
0.0181263
0.00621522
0.0110874
0.00725884
0.0566367
0.00700419
0.00781434
0.561084
0.156128
0.00755222
0.00756302
0.0620086
0.00674523
0.00738703
0.0194647
0.00831095
0.00678865
0.0101846
0.00935172
0.0082858
0.00487376
0.00575223
0.0380903
0.120177
0.0316756
0.0310986
0.00625923
0.0206178
0.0278
0.00851791
0.0083636
0.00683554
0.0250321
0.00606632
0.00701425
0.00676449
0.00512321
0.0411755
0.435401
0.00608492
0.00989036
0.00769341
0.0131075
0.0081232
0.00725224
0.00694588
0.0131187
0.00694896
0.00756981
0.00695121
0.00825804
0.0133903
0.0556399
0.150377
0.00700052
0.00711724
0.00754989
0.0391285
0.0072906
0.127669
0.00711778
0.0311469
0.173722
0.00771197
0.0152477
0.00849648
0.0068379
0.0182499
0.00857059
0.482155
0.00556103
0.00667149
0.0084173
0.0124391
0.00509958
0.0321179
0.357311
0.00750371
0.00639676
0.00840397
0.00784495
0.00697658
0.0213761
0.00812831
0.00761789
0.00761106
0.00986654
0.0313056
0.00816621
0.00774364
0.0075076
0.0209118
0.0054953
0.00648275
0.012013
0.106616
0.00963304
0.00638275
0.0063042
0.00845427
0.0382161
0.00637221
0.148109
0.00784415
0.00687996
0.00793068
0.0073752
0.0843389
0.00878766
0.0293836
0.00518244
0.0072126
0.00676187
0.00669715
0.0283746
0.00824332
0.4146
0.0381731
0.253942
0.00658999
0.0102598
0.0290378
0.0207893
0.00732719
0.00885565
0.0333447
0.0124071
0.00804434
0.00541716
0.353436
0.00811401
0.150358
0.00933465
0.00754775
0.0307871
0.0075295
0.0071986
0.00683005
0.00783356
0.00713094
0.00480127
0.00818587
0.00688809
0.00701872
0.00941748
0.0189116
0.133502
0.0136861
0.00723662
0.162611
0.29616
0.00781998
0.0048374
0.00710814
0.0303092
0.0104742
0.0438183
0.00763038
0.0207547
0.00865959
0.00908757
0.00722789
0.00696435
0.00765723
0.0126113
0.0662884
0.00860501
0.0079214
0.00734244
0.257097
0.179145
0.00758202
0.00819869
0.00704934
0.00695541
0.00814077
0.00822412
0.00837561
0.00789815
0.00756384
0.00569304
0.0520423
0.0890491
0.00479324
0.00680112
0.00769289
0.00795719
0.00671759
0.201684
0.00827652
0.0062198
0.00755716
0.245795
0.112526
0.0401544
0.00779267
0.0159982
0.00770513
0.00783704
0.239639
0.00715279
0.00816384
0.00675305
0.0372689
0.00602337
0.00593451
0.00813932
0.0105921
0.129197
0.0197468
0.00816056
0.00467023
0.0321167
0.0312712
0.0194755
0.00842974
0.00720876
0.0058513
0.0142551
0.0278367
0.00829439
0.00695157
0.00746998
0.007346
0.00824676
0.0173972
0.00626068
0.148717
0.198127
0.0395419
0.00810237
0.461522
0.00853122
0.00711447
0.00777946
0.00792073
0.00766606
0.00767421
0.0143751
0.037053
0.0227605
0.00765467
0.010928
0.00768033
0.0085977
0.00732246
0.00754962
0.00679513
0.0079405
0.00814619
0.00725468
1.03201
0.00753704
0.00714174
0.00950454
0.154364
0.0072188
0.00796566
0.0189409
1.07779
0.0071462
0.007855
0.0112573
0.0130602
0.00845984
0.00808754
0.00689792
0.00860481
0.0394984
0.00827303
0.0807668
0.00985054
0.120859
0.00814006
0.00821608
0.0062889
0.028859
0.00775673
0.00734595
0.00748882
0.00831484
0.00612391
0.186043
0.00676623
0.0260766
0.330948
0.0312827
0.00604098
0.0408493
0.00850924
0.00815019
0.0051748
0.00800875
0.00616493
0.0076017
0.275489
0.00719383
0.0107088
0.00732455
0.00464715
0.00534756
0.0196281
0.00763308
0.0069324
0.00804291
0.287579
0.0635268
0.431038
0.00684039
0.0101272
0.00675396
0.00776755
0.392381
0.00753649
0.00830413
0.0060991
0.204805
0.0339999
0.0380328
0.00687938
0.00536101
0.0359919
0.600249
0.00801986
0.00681965
0.440732
0.00759424
0.0186527
0.00793058
0.0751473
0.00837354
0.0265183
0.00830787
0.00732161
0.00844681
0.00763483
0.0134424
0.00695508
0.00716581
0.00781221
0.00725363
0.00998635
0.00680589
0.0390931
0.00685519
0.00684283
0.249179
0.0239361
0.0438019
0.00832667
0.0361009
0.00731599
0.00827602
0.0264625
0.00646223
0.035801
0.345308
0.00609395
0.0132276
0.00653785
0.00741089
0.0179075
0.0155404
0.00713119
0.0424711
0.00813159
1.18037
0.0373085
0.76306
0.00813166
0.0210793
0.0123561
0.318422
0.0077959
0.00537367
0.00855528
0.00459572
0.120458
0.00816112
0.00890872
0.0270072
0.0285367
0.198121
0.00800513
0.00781098
0.0073687
0.042978
0.00713364
0.14266
0.0114347
0.0552081
0.324327
0.00827915
0.0161603
0.0319088
0.0296913
0.0739066
0.0252847
0.00756875
0.0114145
0.00489898
0.00810634
0.00781835
0.0085647
0.0203944
0.00657768
0.00831327
0.00556196
0.0366647
0.00486176
0.00803613
0.108522
0.0142831
0.0068942
0.0105164
0.00813919
0.00704332
0.00733045
0.187966
0.0075181
0.0263817
0.00616468
0.0243139
0.00797635
0.00695493
0.00796355
0.00752601
0.0180246
0.088431
0.0424626
0.613819
0.244735
0.593658
0.00683173
0.00675544
0.00939511
0.00838936
0.00588812
0.0380498
0.00687014
0.074632
0.00610126
0.200509
0.00693961
0.00488727
0.00812336
0.296713
0.00862322
0.463576
0.00721392
0.00753948
0.0459758
0.0548946
0.00686067
0.0249672
0.0329198
0.0563084
0.112155
0.0199423
0.214394
0.00892747
0.00730109
0.363495
0.018257
0.0083257
0.00624105
0.00766762
0.00503642
0.00528792
0.0101187
0.00773533
0.0174097
0.603944
0.00751686
0.00726762
0.00719832
0.00819423
0.00999469
0.00542574
0.00692886
0.00558085
0.370714
0.00761892
0.616097
0.0728298
0.00781884
0.104354
0.0602437
0.0181894
0.00664149
0.122749
0.00767802
0.00804372
0.328306
0.00751136
0.00824442
0.00573656
0.00809955
0.00744579
0.214536
0.00742257
0.702157
0.0134281
0.0194285
0.00724552
0.0123922
0.0284757
0.00624617
0.25648
0.00776292
0.0115518
0.0272625
0.00713324
0.0139925
0.0304092
0.0203836
0.00747452
0.0355484
0.0655994
0.0064522
0.00734329
0.0277411
0.00694794
0.0190103
0.0242561
0.342921
0.00712616
0.00860256
0.00797101
0.00618522
0.00788793
0.00478624
0.0388531
1.04549
0.00778138
0.024017
0.0280503
0.00819832
0.0342329
0.00710588
0.00712768
2.15689
0.0448225
0.317462
0.167765
0.00816686
0.00793278
0.0221683
0.226906
0.168715
0.254801
0.00493371
0.00816813
0.00722433
0.00632475
0.212699
0.0475838
0.00884736
0.00738876
0.0279935
0.0276031
0.0365454
0.00681156
0.0871872
0.221712
0.00638286
0.00559853
0.00727769
0.00715741
0.219723
0.00542166
0.00833279
0.0151233
0.00777179
0.00648661
0.371071
0.00956238
0.0107843
0.0345779
0.0573447
0.00749331
0.186123
0.0202298
0.0083649
0.00452119
0.0209152
0.00662546
0.308387
0.008072
0.00768598
0.00695082
0.106662
0.00609107
0.00745541
0.0351666
0.00834072
0.00815277
0.00859552
0.00524364
0.00770878
0.0322146
0.01785
0.00815377
0.462722
0.0350804
0.00793176
0.0311753
0.0066789
0.00518692
0.0326222
0.00804051
0.00816925
0.00789574
0.00741105
0.00793876
0.00721693
0.00802233
0.0498582
0.0350796
0.00610588
0.032862
0.00690001
0.0208394
0.0175662
0.00855483
0.00709286
0.0158807
0.00491184
0.00674524
0.0059177
0.00666582
0.00682906
0.00797272
0.0380468
0.159945
0.0240751
0.0907351
0.00859361
0.0118287
0.401918
0.016379
0.0132025
0.00758785
0.0337005
0.0340457
0.104162
0.0047404
0.0185669
0.0322337
0.00646015
0.00795724
1.00461
0.00481447
0.00672287
0.0295304
0.0284139
0.00584279
0.0121435
0.014949
0.0045805
0.584321
0.600453
0.00790421
0.00726828
0.0261578
0.0926023
0.0104568
0.00812087
0.00667311
0.00839349
0.00723206
0.0818593
0.00761274
0.00845216
0.139184
0.00848847
0.00731307
0.00770385
0.00756948
0.00677374
0.00857668
0.00719882
0.0128755
0.00704142
0.00879342
0.00803983
0.0312927
0.00819202
0.0232436
0.00770579
0.0209423
0.00837403
0.00767343
0.0580955
0.26602
0.00706225
0.00781639
0.00776183
0.0196945
0.00827036
0.00679032
0.00809688
0.00739532
0.00621025
0.00729265
0.0307236
0.00512054
0.0618544
0.00847471
0.00944605
0.00790907
0.0067002
0.00768158
0.00850238
0.0080242
0.20228
0.00731273
0.0166804
0.00790254
0.0080016
0.470967
0.00844625
0.0085523
0.135725
0.250775
0.0141868
0.00754981
0.0199094
0.00790747
0.0313146
0.0109663
0.0139399
0.00739649
0.00628668
0.0261199
0.00763069
0.0321269
0.00739059
0.0153486
0.0279789
0.00749535
0.0110941
0.0072848
0.132416
0.0154367
0.00499415
0.0348348
0.00642882
0.00596537
0.00840336
0.0104309
0.0298073
0.00751567
0.00812157
0.0420341
0.00688154
0.00693197
0.00685955
0.00547694
0.00789177
0.0285225
0.0299239
0.00687553
0.0177735
0.00798377
0.00867716
0.0070128
1.06965
0.00996392
0.00682218
0.140137
0.0321512
0.00820991
0.00706926
0.0289641
0.0105812
0.00662019
0.00719484
0.0143668
0.0371728
0.00753034
0.00693776
0.0760926
0.0071495
0.00830324
0.00734149
0.00687444
0.00766786
0.0236165
0.00762862
0.0360704
0.00638809
0.0134026
0.00812843
0.00503519
0.0279842
0.00688812
0.0191945
0.00764859
0.00714019
0.0394857
0.0136477
0.00563821
0.00845693
0.00727721
0.299863
0.00690735
0.00722624
1.33999
0.0067462
0.00720885
0.00745746
0.00721698
0.00645115
0.00634932
0.0159981
0.00512288
0.0163836
0.00719978
0.0075919
0.0154242
0.00450636
0.00748438
0.00646036
0.00564287
0.00729725
0.365281
0.00855225
0.0255211
0.00746667
0.0068651
0.00591302
0.00732632
0.0124599
0.00795323
0.00722912
0.00672295
0.00756528
0.00836366
0.0371704
0.0201208
0.011887
0.0107443
0.0420685
0.00673932
0.0075561
0.00743975
0.216285
0.00724698
0.00663948
0.3449
0.00711277
0.274244
0.154551
0.00711596
0.00810336
0.00688887
0.00538269
0.00492782
0.00703223
0.00797569
0.0205653
0.0367791
0.00469639
0.0349783
0.00782164
0.0661779
0.181849
1.07461
0.0104196
0.011768
0.00489759
0.00829268
0.00687665
0.0247132
0.00790037
0.0110389
0.00521858
0.0119767
0.00522769
0.0560076
0.0228251
0.0267779
0.235354
0.00782683
0.328227
0.0100233
0.0066954
0.00598215
0.00880413
0.00840523