/*--------------------------------*- C++ -*----------------------------------*\
| =========                 |                                                 |
| \\      /  F ield         | OpenFOAM: The Open Source CFD Toolbox           |
|  \\    /   O peration     | Version:  3.0.1                                 |
|   \\  /    A nd           | Web:      www.OpenFOAM.org                      |
|    \\/     M anipulation  |                                                 |
\*---------------------------------------------------------------------------*/
FoamFile
{
    version     2.0;
    format      ascii;
    class       volVectorField;
    location    "0.524521";
    object      U;
}
// * * * * * * * * * * * * * * * * * * * * * * * * * * * * * * * * * * * * * //

dimensions      [0 1 -1 0 0 0 0];

internalField   nonuniform List<vector> 
21246
(
(5.76243 -1.09187 0)
(5.3633 -1.1112 1.10497e-19)
(5.13384 -0.962109 -1.55297e-19)
(4.95656 -0.803478 -2.17376e-20)
(4.77881 -0.664124 0)
(4.59935 -0.546708 1.03406e-19)
(4.42751 -0.450565 0)
(4.26387 -0.374113 0)
(4.10639 -0.314587 -9.15302e-20)
(3.95686 -0.271692 -1.03398e-19)
(3.82134 -0.25392 1.24573e-19)
(4.81928 -2.09072 0)
(4.8349 -1.83038 -1.48879e-19)
(4.8187 -1.55511 1.74724e-19)
(4.75375 -1.28685 0)
(4.64826 -1.05824 2.29676e-19)
(4.51587 -0.871637 1.82575e-19)
(4.37129 -0.722367 1.22243e-19)
(4.2241 -0.604042 0)
(4.07871 -0.51085 0)
(3.93853 -0.440653 0)
(3.80972 -0.398544 0)
(3.95991 -2.38914 -1.04201e-18)
(4.26424 -2.12519 1.03002e-18)
(4.39404 -1.91551 1.37872e-19)
(4.44999 -1.66445 0)
(4.43816 -1.41563 -3.76564e-19)
(4.37425 -1.19007 -1.64096e-19)
(4.27607 -0.997227 -2.26239e-19)
(4.15932 -0.837811 0)
(4.03509 -0.707626 1.09661e-19)
(3.90969 -0.60556 8.55355e-20)
(3.78828 -0.539722 0)
(3.45784 -2.36439 1.85327e-18)
(3.71686 -2.1904 -8.92588e-19)
(3.93186 -2.07534 -5.43358e-19)
(4.08967 -1.8909 3.06961e-19)
(4.16697 -1.67098 -4.31542e-21)
(4.17507 -1.44673 9.93394e-20)
(4.1339 -1.23769 7.3783e-20)
(4.05773 -1.0558 0)
(3.95829 -0.905569 3.17732e-20)
(3.84953 -0.781665 -2.72508e-19)
(3.74241 -0.683423 6.229e-20)
(3.22292 -2.28774 -9.81032e-20)
(3.42185 -2.15366 6.07294e-19)
(3.56087 -2.11188 -6.34536e-19)
(3.71235 -1.99964 9.36243e-20)
(3.83659 -1.8384 -1.3612e-19)
(3.90729 -1.64573 3.1052e-19)
(3.9202 -1.44502 -2.99358e-19)
(3.89008 -1.25152 -2.11135e-19)
(3.83151 -1.07398 7.58207e-20)
(3.75277 -0.922138 0)
(3.66441 -0.804442 0)
(3.07609 -2.19449 -6.04771e-19)
(3.23766 -2.08002 1.4673e-18)
(3.33273 -2.06889 -7.13561e-19)
(3.45771 -1.99516 0)
(3.57047 -1.88144 0)
(3.65422 -1.73001 -2.95997e-19)
(3.6993 -1.55526 2.99662e-19)
(3.70584 -1.37416 -1.04807e-19)
(3.6811 -1.19948 1.55977e-19)
(3.63391 -1.04119 0)
(3.5728 -0.91242 8.99871e-21)
(2.97181 -2.10506 -4.42958e-19)
(3.08316 -2.00772 0)
(3.14872 -2.01313 6.79086e-19)
(3.25283 -1.9539 -1.0871e-18)
(3.34978 -1.86913 3.81658e-19)
(3.43105 -1.75086 0)
(3.48748 -1.60581 2.78015e-19)
(3.51558 -1.44642 -5.67399e-19)
(3.5172 -1.28467 3.04804e-19)
(3.49661 -1.13076 2.55087e-19)
(3.4569 -0.999031 -2.30433e-19)
(2.86484 -2.06007 0)
(2.94891 -1.95441 0)
(3.00461 -1.95115 -5.66623e-19)
(3.08672 -1.90358 4.38288e-19)
(3.16715 -1.83429 4.51306e-19)
(3.23972 -1.73768 -2.31982e-19)
(3.29756 -1.61655 1.21386e-19)
(3.33674 -1.47874 4.40632e-20)
(3.35658 -1.33333 0)
(3.35827 -1.19016 3.48327e-19)
(3.34155 -1.06654 6.25704e-20)
(2.762 -2.02179 1.25339e-18)
(2.83731 -1.90798 -4.98337e-19)
(2.87991 -1.89783 -4.79627e-19)
(2.94658 -1.85418 -3.7733e-20)
(3.01365 -1.79244 3.18259e-19)
(3.07664 -1.70863 -2.06389e-19)
(3.13119 -1.604 -2.25948e-19)
(3.17434 -1.48349 -9.11554e-20)
(3.20465 -1.35321 2.56085e-19)
(3.22129 -1.22091 -8.2728e-21)
(3.22105 -1.10242 -1.32079e-19)
(2.67217 -1.98327 0)
(2.73889 -1.86279 0)
(2.76857 -1.84923 0)
(2.82361 -1.80695 0)
(2.88006 -1.74912 3.03169e-19)
(2.93453 -1.67276 -1.05091e-19)
(2.98442 -1.5787 -3.04361e-19)
(3.02784 -1.47044 1.58652e-19)
(3.06335 -1.35198 -4.9285e-19)
(3.08879 -1.22882 3.5361e-19)
(3.09759 -1.11428 2.63895e-19)
(2.59503 -1.95179 0)
(2.64861 -1.82323 0)
(2.66652 -1.80517 0)
(2.71193 -1.76205 -3.11098e-19)
(2.75961 -1.70563 9.74177e-20)
(2.80693 -1.63322 -2.41833e-19)
(2.85235 -1.54562 3.44516e-19)
(2.89479 -1.44568 -1.24453e-19)
(2.9332 -1.3363 -2.21013e-19)
(2.96539 -1.2221 1.52414e-19)
(2.98367 -1.11854 4.84021e-19)
(2.5178 -1.92581 -3.75434e-19)
(2.5574 -1.79012 3.25712e-19)
(2.56765 -1.76523 0)
(2.60618 -1.71895 0)
(2.64724 -1.66167 -4.64314e-19)
(2.68907 -1.59059 1.83467e-19)
(2.73096 -1.50645 0)
(2.77247 -1.4118 2.69109e-19)
(2.81303 -1.30897 1.90997e-19)
(2.85057 -1.20148 -2.44e-20)
(2.87629 -1.10264 -2.35296e-19)
(2.43577 -1.89587 -4.5707e-20)
(2.46486 -1.7554 7.76459e-20)
(2.46978 -1.72476 0)
(2.50326 -1.67517 0)
(2.53944 -1.61604 1.06573e-19)
(2.5774 -1.54456 0)
(2.61704 -1.46161 0)
(2.65839 -1.36973 0)
(2.70117 -1.2708 -3.5893e-19)
(2.74324 -1.16686 -9.16158e-21)
(2.77356 -1.06789 -2.05517e-19)
(2.35731 -1.86562 -3.43837e-19)
(2.37555 -1.718 1.88903e-19)
(2.37355 -1.68219 5.89408e-20)
(2.40203 -1.62918 -2.21382e-19)
(2.43419 -1.56748 3.61364e-19)
(2.46951 -1.49431 -1.46363e-19)
(2.50822 -1.4109 0)
(2.55048 -1.31999 0)
(2.59606 -1.22351 1.68707e-19)
(2.64272 -1.123 0)
(2.67809 -1.02966 -1.76892e-19)
(2.2773 -1.83712 -6.19012e-19)
(2.28255 -1.68146 2.48435e-19)
(2.27565 -1.63783 -5.87714e-20)
(2.30056 -1.57969 0)
(2.32999 -1.51409 -9.17919e-20)
(2.36407 -1.43797 1.29465e-19)
(2.40334 -1.35279 0)
(2.44805 -1.2617 -1.64061e-19)
(2.49772 -1.16689 -1.4054e-19)
(2.54994 -1.06939 3.22617e-19)
(2.59111 -0.978196 1.39855e-20)
(2.19205 -1.80029 -5.43726e-19)
(2.18557 -1.6391 2.29745e-19)
(2.17555 -1.58775 -4.6446e-20)
(2.19797 -1.52412 2.12086e-19)
(2.22584 -1.45377 -2.91321e-19)
(2.26017 -1.37364 -1.25883e-19)
(2.30181 -1.28572 2.66683e-19)
(2.35092 -1.1938 7.83078e-20)
(2.40642 -1.10063 2.34006e-19)
(2.46556 -1.0067 -1.93233e-19)
(2.51327 -0.919473 2.68736e-19)
(2.10775 -1.75697 -3.29823e-20)
(2.0893 -1.58926 0)
(2.07469 -1.53021 4.71688e-20)
(2.09423 -1.46058 7.51008e-20)
(2.12124 -1.3845 -3.38261e-20)
(2.1574 -1.29924 -9.12602e-20)
(2.20365 -1.20782 -8.47228e-20)
(2.25964 -1.11505 -6.72404e-20)
(2.32304 -1.02444 0)
(2.3903 -0.935905 -8.17126e-20)
(2.4446 -0.855075 -1.30326e-19)
(2.02328 -1.71032 1.75755e-20)
(1.9902 -1.53498 -1.62829e-19)
(1.97109 -1.46522 0)
(1.9885 -1.38716 3.17965e-20)
(2.01615 -1.30333 -9.57961e-21)
(2.05648 -1.21165 0)
(2.11031 -1.11646 0)
(2.17619 -1.02383 0)
(2.24975 -0.937855 0)
(2.32631 -0.85738 0)
(2.38745 -0.784732 0)
(1.93715 -1.65228 -6.1476e-21)
(1.88682 -1.47167 1.18584e-19)
(1.86423 -1.38865 -9.87314e-20)
(1.88074 -1.30003 0)
(1.91151 -1.2066 -1.71191e-20)
(1.95934 -1.10759 2.56371e-22)
(2.02482 -1.00888 0)
(2.10397 -0.918827 3.92041e-20)
(2.18949 -0.841202 -2.92972e-20)
(2.2758 -0.772516 0)
(2.34393 -0.710747 0)
(1.85035 -1.5777 1.32592e-19)
(1.77975 -1.39351 -6.53749e-20)
(1.75558 -1.29389 0)
(1.77398 -1.19234 -1.63848e-20)
(1.81218 -1.08773 1.07442e-20)
(1.87272 -0.981603 -2.32361e-20)
(1.95404 -0.882785 6.4906e-21)
(2.04895 -0.800291 0)
(2.14673 -0.736201 0)
(2.2405 -0.684101 1.58512e-20)
(2.31353 -0.636367 -1.1603e-20)
(1.76325 -1.48493 7.844e-20)
(1.67078 -1.29156 -5.12171e-20)
(1.64923 -1.17292 -2.41932e-20)
(1.6752 -1.05685 3.65188e-21)
(1.7268 -0.941349 4.19318e-20)
(1.80606 -0.831308 3.4597e-20)
(1.90742 -0.738436 1.2963e-19)
(2.01889 -0.670813 -5.00697e-20)
(2.12657 -0.626757 0)
(2.2231 -0.596074 0)
(2.29736 -0.566378 1.4296e-21)
(1.69034 -1.3103 -1.09109e-20)
(1.55866 -1.15546 -1.22063e-19)
(1.56024 -1.01401 3.3908e-19)
(1.59971 -0.885803 -1.28466e-19)
(1.67152 -0.763609 -4.55897e-20)
(1.77465 -0.658034 -3.71363e-20)
(1.89705 -0.581551 -1.42809e-19)
(2.0214 -0.538091 0)
(2.13279 -0.520281 0)
(2.22538 -0.514207 0)
(2.29568 -0.505 0)
(1.54902 -1.37782 5.3679e-19)
(1.50142 -1.04338 -4.68312e-20)
(1.49485 -0.855425 -1.18913e-19)
(1.56375 -0.696648 1.79292e-19)
(1.66724 -0.569369 -2.82054e-19)
(1.79775 -0.478735 0)
(1.93576 -0.429839 -1.71283e-19)
(2.06295 -0.417476 6.24584e-20)
(2.16762 -0.428199 -1.08413e-19)
(2.24731 -0.446004 1.74486e-19)
(2.30448 -0.45533 -3.68528e-20)
(1.88286 -0.401312 -2.4901e-19)
(1.43612 -0.581072 2.3629e-19)
(1.60311 -0.422238 -2.73141e-19)
(1.69769 -0.351397 -2.2279e-19)
(1.8149 -0.294597 3.38908e-19)
(1.94133 -0.268961 3.23759e-20)
(2.06145 -0.276108 6.92285e-19)
(2.16293 -0.308105 0)
(2.23998 -0.352236 -1.72778e-19)
(2.29255 -0.394787 3.90505e-20)
(2.32728 -0.422765 -6.83007e-20)
(5.30782 -0.600071 0)
(4.75142 -0.550451 -1.38601e-19)
(4.89912 -0.503691 1.21136e-19)
(4.98545 -0.434529 2.39443e-20)
(4.9104 -0.348307 0)
(4.74085 -0.265397 0)
(4.53746 -0.203202 5.9458e-20)
(4.34102 -0.157847 -1.17137e-19)
(4.15517 -0.120509 1.32058e-19)
(3.98398 -0.09897 -6.46612e-20)
(3.83078 -0.101355 -3.76368e-20)
(4.49248 -1.62625 -2.04794e-19)
(4.28975 -1.10352 -9.54614e-19)
(4.51719 -0.690149 0)
(4.73541 -0.417496 -1.1165e-19)
(4.82073 -0.219998 8.44559e-20)
(4.78489 -0.0694014 3.40936e-21)
(4.65405 0.0292643 -1.77391e-20)
(4.45184 0.0799193 -1.02369e-20)
(4.20959 0.0964471 6.08194e-20)
(4.00613 0.0947708 -3.17411e-20)
(3.82534 0.0727673 3.68816e-20)
(4.71255 -3.62943 0)
(4.47663 -2.38874 0)
(4.46279 -1.4315 0)
(4.57907 -0.80303 -3.75462e-19)
(4.69088 -0.356645 3.18871e-20)
(4.73151 -0.0305928 1.82765e-19)
(4.67615 0.190173 -1.39915e-19)
(4.5244 0.312366 -1.08752e-19)
(4.29137 0.347984 -1.46213e-20)
(4.01983 0.324314 3.39109e-20)
(3.81445 0.281813 7.25142e-20)
(5.00302 -3.54757 2.75969e-18)
(4.78814 -3.30041 -3.99063e-18)
(4.60467 -2.43458 1.42887e-18)
(4.56617 -1.47495 9.69528e-19)
(4.62104 -0.740895 -1.29443e-20)
(4.66486 -0.18258 -5.09811e-19)
(4.64229 0.222557 4.4941e-19)
(4.53099 0.481233 -2.25842e-19)
(4.32785 0.598692 -8.69524e-20)
(4.05137 0.595398 -3.25084e-20)
(3.78389 0.517295 -3.24062e-20)
(5.21382 -3.75025 0)
(5.09117 -3.536 0)
(4.92301 -3.12728 -5.93272e-20)
(4.7336 -2.28364 0)
(4.65411 -1.31929 -6.37923e-20)
(4.63779 -0.514718 7.03159e-19)
(4.59905 0.109894 -4.84216e-19)
(4.49405 0.55027 6.66932e-20)
(4.3076 0.801928 8.27905e-20)
(4.03969 0.872613 0)
(3.75053 0.803487 0)
(5.42295 -3.9834 -1.7684e-18)
(5.38498 -3.73773 -2.60272e-18)
(5.22851 -3.41285 2.03437e-18)
(5.04549 -2.87936 1.24724e-18)
(4.82395 -1.96961 -1.05174e-18)
(4.68831 -0.989236 -4.62343e-20)
(4.57968 -0.143878 1.63292e-18)
(4.43829 0.50353 -9.34347e-19)
(4.23776 0.92614 -3.75087e-19)
(3.96924 1.11496 0)
(3.65302 1.09549 0)
(5.60927 -4.21142 -4.11423e-18)
(5.64974 -3.94793 2.94366e-18)
(5.50471 -3.65915 0)
(5.32227 -3.19528 -2.0416e-18)
(5.09558 -2.5297 1.36483e-18)
(4.82622 -1.52805 0)
(4.6019 -0.517233 -3.60844e-19)
(4.37847 0.335344 0)
(4.1262 0.9489 3.62883e-19)
(3.83442 1.28812 0)
(3.51637 1.36047 -1.39311e-18)
(5.77133 -4.41772 2.36876e-19)
(5.86795 -4.15066 -3.25776e-18)
(5.72765 -3.90551 -4.76874e-20)
(5.55258 -3.47673 2.97479e-18)
(5.3095 -2.88623 7.62008e-19)
(5 -2.04597 -5.55649e-19)
(4.65702 -0.964884 0)
(4.3193 0.0519529 -8.94262e-19)
(3.97946 0.854326 0)
(3.63191 1.36106 -1.37055e-18)
(3.30273 1.56299 1.55685e-18)
(5.91176 -4.59707 -4.91263e-18)
(6.04174 -4.33383 3.81708e-18)
(5.89314 -4.13714 -7.24174e-19)
(5.72259 -3.74862 -5.17112e-19)
(5.47476 -3.21751 3.75801e-18)
(5.13848 -2.48399 -3.88987e-18)
(4.71492 -1.43685 -3.99977e-18)
(4.25908 -0.32424 -1.31581e-18)
(3.80574 0.634851 2.8135e-18)
(3.38024 1.30589 -3.18118e-18)
(2.99988 1.63566 -1.38567e-18)
(6.02462 -4.74018 -1.65876e-18)
(6.17119 -4.49069 -4.1156e-18)
(6.0035 -4.3446 6.55315e-18)
(5.83207 -4.00136 1.6693e-19)
(5.5757 -3.53594 -2.93052e-18)
(5.22096 -2.88486 5.25021e-18)
(4.74587 -1.9745 -1.48075e-18)
(4.18527 -0.795003 4.51617e-18)
(3.60243 0.280209 1.40838e-19)
(3.07741 1.0917 2.13772e-18)
(2.64353 1.55198 -1.11701e-21)
(6.09169 -4.84392 4.57137e-18)
(6.24936 -4.62378 -2.60129e-18)
(6.05754 -4.52149 0)
(5.88035 -4.22927 -1.31222e-18)
(5.61266 -3.83936 2.30483e-18)
(5.24451 -3.27982 1.58109e-19)
(4.73106 -2.48566 0)
(4.08944 -1.33437 0)
(3.37994 -0.199257 -1.88037e-18)
(2.74573 0.714374 0)
(2.24866 1.29339 -1.86415e-18)
(6.10475 -4.9372 0)
(6.25866 -4.74248 2.89045e-18)
(6.05721 -4.66296 -2.98391e-18)
(5.86452 -4.43432 1.29192e-18)
(5.58005 -4.1259 1.15574e-18)
(5.19516 -3.6739 -1.94669e-18)
(4.6655 -3.01391 -1.7665e-18)
(3.95347 -2.00788 0)
(3.14904 -0.808178 0)
(2.41316 0.165259 0)
(1.87342 0.835095 1.86005e-18)
(6.08832 -4.9946 0)
(6.20786 -4.82378 3.74806e-18)
(5.99868 -4.77542 -2.94594e-18)
(5.78169 -4.61384 2.77775e-18)
(5.47755 -4.38369 -4.50152e-18)
(5.07204 -4.04268 4.3119e-18)
(4.53306 -3.52857 -1.60355e-18)
(3.78591 -2.7266 -3.10754e-18)
(2.92573 -1.53389 1.80543e-20)
(2.09921 -0.553685 1.70245e-18)
(1.54294 0.195503 -1.85921e-18)
(6.02486 -5.00197 4.80729e-19)
(6.08714 -4.87459 0)
(5.87306 -4.85855 6.9333e-19)
(5.62791 -4.76127 2.65953e-18)
(5.30194 -4.60895 -3.33254e-18)
(4.88048 -4.37205 3.77331e-18)
(4.3449 -4.01253 -1.67855e-18)
(3.65093 -3.48102 0)
(2.72778 -2.33334 -3.99781e-20)
(1.85565 -1.37502 -1.43985e-18)
(1.26889 -0.584175 -1.80623e-18)
(5.89769 -4.97052 -4.85825e-19)
(5.8976 -4.89809 3.24178e-18)
(5.67452 -4.91858 -4.4768e-19)
(5.40671 -4.88912 -2.73619e-18)
(5.06358 -4.81889 0)
(4.63331 -4.68208 -1.03992e-18)
(4.10271 -4.44681 1.66405e-18)
(3.45064 -4.05774 0)
(2.67022 -3.36152 -2.4524e-19)
(1.77158 -2.291 3.16416e-18)
(1.10839 -1.43678 1.64678e-18)
(5.70116 -4.895 0)
(5.63306 -4.88025 0)
(5.39533 -4.94538 2.43603e-18)
(5.11071 -4.99104 7.87256e-19)
(4.76306 -5.01317 2.29223e-19)
(4.34726 -4.98467 -1.6331e-18)
(3.85863 -4.86886 0)
(3.28359 -4.60932 1.07914e-18)
(2.60461 -4.1237 -2.83236e-18)
(1.86915 -3.26561 -1.1491e-18)
(1.18325 -2.36416 0)
(5.4128 -4.76966 5.89952e-20)
(5.27895 -4.81118 -1.05301e-18)
(5.02461 -4.93191 2.02851e-18)
(4.73379 -5.06219 -1.59153e-18)
(4.40179 -5.18555 0)
(4.03041 -5.26914 7.01836e-19)
(3.62272 -5.27145 -2.36709e-18)
(3.17323 -5.13725 -2.09129e-18)
(2.66334 -4.797 2.33118e-18)
(2.07377 -4.1513 1.15368e-18)
(1.46394 -3.36318 0)
(5.00271 -4.59901 -2.01425e-18)
(4.81476 -4.68986 2.58079e-18)
(4.54931 -4.87863 -1.36014e-18)
(4.27197 -5.10325 1.50955e-18)
(3.98562 -5.33176 -1.17978e-18)
(3.69446 -5.52177 0)
(3.40331 -5.62798 0)
(3.10642 -5.59733 0)
(2.77652 -5.37288 -1.05849e-18)
(2.37032 -4.90726 1.84382e-19)
(1.86642 -4.21865 1.23652e-19)
(4.45102 -4.40401 -6.36294e-19)
(4.23081 -4.52466 0)
(3.97064 -4.78441 1.34058e-18)
(3.73623 -5.09723 2.56325e-19)
(3.53103 -5.41037 -2.24667e-18)
(3.35582 -5.6677 9.44638e-19)
(3.21384 -5.8191 0)
(3.09453 -5.81623 1.4906e-19)
(2.95757 -5.62968 0)
(2.75056 -5.25801 -3.78894e-20)
(2.45606 -4.73384 0)
(3.7893 -4.21932 -4.0486e-20)
(3.52214 -4.27826 -7.96473e-20)
(3.28913 -4.51082 0)
(3.13918 -4.8053 -1.58134e-19)
(3.07107 -5.09766 -9.33581e-19)
(3.07041 -5.32102 9.44668e-19)
(3.12125 -5.39847 4.016e-19)
(3.18661 -5.24252 -4.59239e-19)
(3.19995 -4.92804 -3.07907e-19)
(3.09465 -4.53186 -2.99701e-19)
(2.86463 -3.98547 8.53725e-20)
(2.74244 -3.63642 0)
(2.72045 -3.67308 9.12105e-20)
(2.63162 -3.87651 0)
(2.60207 -4.09753 1.77551e-19)
(2.64888 -4.27922 3.90334e-19)
(2.78594 -4.31932 -5.56344e-19)
(3.0094 -4.04991 4.25533e-19)
(3.21478 -3.65225 -3.13887e-19)
(3.26064 -3.21413 3.29168e-19)
(3.12722 -2.91183 2.79722e-19)
(2.82591 -2.41933 -1.2572e-19)
(2.17997 -3.36863 -1.30098e-18)
(2.11817 -3.27255 -1.36524e-18)
(2.0975 -3.31846 1.67287e-18)
(2.17412 -3.35261 -1.11032e-18)
(2.37388 -3.24447 8.42353e-19)
(2.58947 -2.69437 -3.26143e-19)
(2.80278 -2.21469 2.45987e-19)
(2.94889 -1.88533 -2.1512e-19)
(2.97404 -1.632 -2.48207e-19)
(2.87824 -1.42854 -1.17261e-19)
(2.67089 -1.19447 1.45716e-19)
(1.40048 -3.29806 2.85446e-18)
(1.81144 -2.53059 -1.26842e-19)
(1.85409 -2.36289 -4.37065e-18)
(1.97758 -2.02226 1.30793e-18)
(2.14333 -1.52528 7.56135e-19)
(2.33164 -1.15098 0)
(2.4844 -0.899806 2.98751e-19)
(2.57634 -0.745272 -2.13798e-19)
(2.60249 -0.661467 1.35356e-19)
(2.56585 -0.62207 1.96736e-19)
(2.48185 -0.583364 1.2258e-19)
(1.57799 -1.35144 0)
(1.44843 -1.38501 3.67843e-18)
(1.6031 -1.06998 -1.94019e-18)
(1.77284 -0.756211 5.03354e-19)
(1.92413 -0.523636 -1.17419e-18)
(2.05836 -0.384351 0)
(2.17302 -0.321617 -4.111e-19)
(2.26281 -0.315308 2.22823e-19)
(2.32374 -0.343944 -1.58196e-19)
(2.35349 -0.385759 0)
(2.35763 -0.416781 -7.67407e-21)
(-1.90942 1.55917 5.01819e-18)
(-1.11197 0.565533 -1.59209e-18)
(-0.146257 0.221853 4.3e-19)
(0.568947 0.108491 -3.35232e-20)
(1.07439 0.121116 2.634e-20)
(1.44413 0.1726 -8.60709e-19)
(1.71577 0.233838 6.17511e-19)
(1.91944 0.289833 1.35059e-19)
(2.07452 0.335882 -2.66599e-19)
(2.19083 0.370393 8.54001e-19)
(2.27054 0.391148 -9.64929e-19)
(-1.01911 3.29882 -4.3722e-19)
(-0.0855783 2.03519 0)
(0.0592515 1.68651 -5.11277e-19)
(0.489247 1.19149 0)
(0.899051 0.874458 1.96033e-19)
(1.28001 0.676425 -5.42727e-19)
(1.58625 0.5741 -1.11803e-18)
(1.82686 0.52334 1.76042e-18)
(2.01081 0.498599 -5.91501e-19)
(2.14895 0.484573 -7.89089e-20)
(2.24531 0.472436 3.79388e-19)
(0.180573 3.72558 -3.07988e-20)
(1.46518 2.32951 2.89364e-20)
(0.916248 2.52634 0)
(1.05694 1.96553 0)
(1.17733 1.57363 -1.99182e-19)
(1.39969 1.21829 2.05685e-19)
(1.62628 0.972538 1.17946e-19)
(1.83824 0.807282 1.33036e-18)
(2.01853 0.700282 -1.36768e-18)
(2.16357 0.629714 6.5428e-19)
(2.27018 0.582687 -6.15298e-20)
(1.13802 3.35192 -3.14972e-18)
(2.58612 2.14172 8.1721e-19)
(1.81627 2.76094 -7.74926e-19)
(1.85189 2.2289 -3.9521e-20)
(1.72099 1.97941 0)
(1.76026 1.60259 -1.9938e-19)
(1.84329 1.30706 -2.78896e-19)
(1.9676 1.07127 1.45224e-18)
(2.09814 0.89977 -7.11791e-19)
(2.21646 0.777572 0)
(2.30817 0.691541 0)
(1.73454 2.76382 -4.81973e-18)
(3.17583 1.85696 3.95195e-18)
(2.49449 2.61662 -1.09559e-18)
(2.54546 2.13365 -1.34069e-18)
(2.27595 2.09664 0)
(2.21309 1.76341 0)
(2.16573 1.50632 1.70965e-19)
(2.18993 1.25973 -3.37677e-19)
(2.24869 1.06064 9.0666e-19)
(2.3222 0.906139 -1.34111e-18)
(2.3888 0.792761 9.60609e-20)
(2.06876 2.17333 0)
(3.46122 1.55951 0)
(2.91097 2.31699 0)
(3.03346 1.88261 0)
(2.71626 2.00963 -4.72744e-19)
(2.62592 1.73875 3.64718e-19)
(2.49876 1.56315 2.50776e-19)
(2.44808 1.34753 1.33392e-20)
(2.43894 1.15796 -2.64029e-19)
(2.4609 0.997332 9.02638e-19)
(2.49056 0.873876 6.02466e-20)
(2.20442 1.64346 2.59246e-18)
(3.59642 1.27723 -2.12881e-18)
(3.13837 1.97548 -3.12819e-18)
(3.32951 1.607 6.94867e-19)
(3.024 1.81442 4.28739e-19)
(2.94054 1.6073 1.44307e-18)
(2.78176 1.51282 -5.53625e-19)
(2.69089 1.34354 -4.24022e-20)
(2.63373 1.18635 0)
(2.61253 1.03985 -6.68755e-19)
(2.60823 0.919939 3.07539e-19)
(2.20743 1.24522 1.66625e-18)
(3.62878 1.03455 -2.67105e-20)
(3.26005 1.65341 2.18793e-18)
(3.48116 1.35797 -4.6454e-19)
(3.21832 1.58717 -3.39073e-19)
(3.15465 1.42997 -1.49143e-19)
(2.99352 1.39971 -3.74463e-19)
(2.88935 1.27507 4.14641e-20)
(2.8057 1.1587 0)
(2.75569 1.03734 0)
(2.7253 0.93248 1.53703e-19)
(2.16023 0.956164 -4.25078e-18)
(3.60028 0.828723 -5.0479e-19)
(3.31899 1.3851 1.46261e-18)
(3.54837 1.13355 0)
(3.32718 1.36947 1.76741e-18)
(3.2861 1.24391 -1.59118e-18)
(3.13639 1.25999 3.66224e-19)
(3.03505 1.17083 2.7843e-19)
(2.94175 1.09375 -4.38471e-19)
(2.87663 0.999978 -6.95436e-21)
(2.82954 0.915888 -2.3795e-19)
(2.06615 0.705473 6.52846e-19)
(3.54122 0.623744 -3.96942e-19)
(3.32921 1.1535 -6.80911e-19)
(3.56717 0.929682 -1.62251e-18)
(3.377 1.17437 2.2922e-18)
(3.35692 1.06606 -8.35216e-19)
(3.22263 1.11706 -7.23317e-19)
(3.13193 1.05299 5.55628e-19)
(3.0398 1.01005 1.5491e-19)
(2.97087 0.941485 3.33513e-20)
(2.91701 0.880027 -4.25077e-20)
(1.90934 0.474592 2.08452e-18)
(3.42671 0.434082 3.87522e-19)
(3.29167 0.953244 5.02845e-19)
(3.54902 0.747996 -1.41152e-18)
(3.38315 1.00475 5.52006e-19)
(3.38373 0.903715 0)
(3.26518 0.983621 7.2136e-19)
(3.18829 0.935395 -2.65581e-19)
(3.10323 0.921833 1.95962e-19)
(3.03754 0.874148 -6.99722e-20)
(2.98504 0.832738 1.74005e-20)
(1.71762 0.296219 0)
(3.27681 0.29834 0)
(3.21971 0.792823 -4.93548e-19)
(3.49966 0.598383 -5.82638e-19)
(3.35595 0.863487 6.56976e-19)
(3.37783 0.761451 2.43199e-19)
(3.27423 0.866426 -7.14035e-20)
(3.21233 0.825681 -5.48181e-19)
(3.13758 0.83785 4.71699e-20)
(3.07867 0.805884 2.78409e-20)
(3.03092 0.783661 3.56444e-20)
(1.54494 0.16145 -1.22578e-18)
(3.11902 0.193998 -5.14463e-20)
(3.13613 0.658306 2.06139e-19)
(3.42817 0.482262 5.12418e-19)
(3.30947 0.743436 1.17513e-19)
(3.34712 0.64357 -4.85032e-19)
(3.25923 0.766129 0)
(3.21136 0.728419 0)
(3.14902 0.763344 0)
(3.09876 0.741556 1.71101e-20)
(3.05928 0.736728 -4.3998e-21)
(1.36513 0.0394265 5.1046e-19)
(2.93878 0.092462 7.77066e-19)
(3.04168 0.530527 -7.47306e-19)
(3.33959 0.390013 3.36299e-19)
(3.25242 0.636621 -9.13211e-20)
(3.29749 0.550453 -3.17968e-19)
(3.22753 0.679241 2.73744e-19)
(3.19144 0.647618 -1.27169e-19)
(3.14184 0.699033 -3.04167e-20)
(3.10255 0.686081 6.1797e-21)
(3.07345 0.695674 0)
(1.1624 -0.0546093 0)
(2.73894 0.017769 0)
(2.93023 0.424033 3.99222e-19)
(3.2368 0.318845 -2.70714e-19)
(3.18607 0.543782 -9.33773e-20)
(3.23512 0.477882 1.14475e-19)
(3.18154 0.606262 0)
(3.15877 0.583289 0)
(3.12042 0.645744 1.50267e-21)
(3.09367 0.642028 -1.89498e-20)
(3.07535 0.66209 5.81492e-21)
(0.974539 -0.127997 0)
(2.53192 -0.0415216 0)
(2.80553 0.330587 -4.71087e-21)
(3.12036 0.26418 -7.30036e-20)
(3.10795 0.464051 -2.17002e-20)
(3.16437 0.419733 2.89271e-20)
(3.12489 0.545974 1.911e-20)
(3.11494 0.53668 0)
(3.08879 0.603061 -1.97014e-20)
(3.07482 0.610003 2.40657e-21)
(3.06842 0.63648 5.52313e-20)
(0.786758 -0.195902 0)
(2.303 -0.104955 1.35492e-20)
(2.65949 0.235576 7.71755e-21)
(2.98723 0.213506 9.51041e-21)
(3.01464 0.3958 1.87105e-20)
(3.08155 0.377081 -1.89439e-22)
(3.06009 0.494659 2.33468e-21)
(3.06085 0.504805 0)
(3.049 0.571978 1.96696e-20)
(3.04852 0.589992 -1.20728e-19)
(3.05514 0.620541 5.16786e-20)
(0.57901 -0.247253 0)
(2.0461 -0.158774 -3.30617e-20)
(2.48219 0.149993 6.75562e-21)
(2.83106 0.165759 0)
(2.90326 0.333492 -1.54078e-20)
(2.98169 0.346135 0)
(2.98365 0.45511 0)
(2.9975 0.486106 0)
(3.00228 0.553231 -4.64329e-20)
(3.01665 0.581356 1.55294e-19)
(3.03719 0.61385 -9.00774e-20)
(0.364561 -0.283805 7.67693e-20)
(1.76236 -0.204282 -5.536e-20)
(2.26703 0.0718164 -2.90264e-20)
(2.64003 0.119795 -1.56921e-19)
(2.76376 0.27597 0)
(2.86065 0.322274 -1.70348e-19)
(2.89145 0.427835 -2.65469e-19)
(2.92382 0.479243 0)
(2.94881 0.546721 -1.2379e-19)
(2.98001 0.58285 -2.97948e-19)
(3.01526 0.615322 -1.15046e-19)
(0.14445 -0.308968 -4.4001e-19)
(1.4461 -0.24653 9.28144e-20)
(2.00239 -0.00568773 1.31202e-19)
(2.39934 0.071054 -2.80013e-19)
(2.57943 0.223197 -2.67641e-19)
(2.70691 0.302722 1.77308e-19)
(2.77554 0.411499 2.7411e-19)
(2.83563 0.481663 0)
(2.88642 0.550305 -6.52757e-19)
(2.93728 0.591651 1.07738e-18)
(2.98827 0.623416 -2.57636e-19)
(-0.0953485 -0.318247 -1.99378e-19)
(1.08412 -0.286502 0)
(1.667 -0.0822111 -7.08389e-20)
(2.08497 0.0191867 4.49326e-19)
(2.32497 0.176871 3.18987e-19)
(2.49945 0.287164 -6.38116e-19)
(2.62024 0.403612 -4.54899e-19)
(2.72173 0.488394 0)
(2.8066 0.557924 3.56885e-19)
(2.88153 0.601743 -4.64128e-19)
(2.94987 0.632338 0)
(-0.332429 -0.334584 0)
(0.665373 -0.317844 -3.03965e-19)
(1.23391 -0.148814 -4.8187e-19)
(1.66541 -0.0257491 -3.90878e-19)
(1.96745 0.144894 0)
(2.20643 0.278453 6.93068e-19)
(2.39594 0.399814 4.8742e-19)
(2.55412 0.490638 0)
(2.6833 0.558241 4.07478e-19)
(2.78913 0.602312 2.04452e-19)
(2.881 0.638859 -3.65903e-19)
(-0.726217 -0.265298 -6.86577e-19)
(0.127525 -0.384951 1.55536e-19)
(0.653001 -0.181981 7.38051e-19)
(1.0974 -0.0292997 4.59062e-19)
(1.46421 0.142741 7.77244e-19)
(1.78099 0.273644 0)
(2.05012 0.380868 0)
(2.27538 0.461321 7.40039e-19)
(2.45759 0.520286 -1.0043e-18)
(2.60161 0.560084 5.53493e-19)
(2.73157 0.604731 -3.98663e-19)
(-0.751747 -0.715639 1.73798e-18)
(-0.271872 -0.484922 -8.35761e-19)
(0.0899978 -0.192211 5.83346e-19)
(0.463023 0.0222595 0)
(0.823115 0.202755 -1.4431e-18)
(1.1636 0.322535 0)
(1.47343 0.395039 0)
(1.74415 0.438624 0)
(1.97318 0.465562 9.85809e-19)
(2.16229 0.481534 -3.31316e-19)
(2.35854 0.516727 0)
(1.42495 -4.48562 0)
(0.965255 -2.85067 0)
(1.01998 -1.82612 7.00014e-19)
(1.22114 -1.0686 0)
(1.46189 -0.593778 0)
(1.68959 -0.280447 7.72648e-20)
(1.87945 -0.0674341 0)
(2.03031 0.0819906 0)
(2.1487 0.188519 0)
(2.23947 0.263003 -1.64029e-18)
(2.30338 0.310246 1.46269e-18)
(2.99079 -4.57212 -4.14733e-20)
(2.75648 -2.34269 1.82133e-18)
(2.37199 -2.39754 -2.119e-18)
(2.12089 -1.72325 0)
(2.00652 -1.18585 -2.78058e-18)
(2.01555 -0.724394 3.08749e-18)
(2.08746 -0.381682 2.14498e-18)
(2.16857 -0.132664 3.30579e-19)
(2.24365 0.043297 -9.59228e-19)
(2.3039 0.166638 -4.64376e-19)
(2.34404 0.248229 -6.7171e-19)
(3.80435 -3.69456 -1.67617e-18)
(3.90178 -1.0022 -1.2456e-19)
(3.5395 -2.11004 -1.10864e-20)
(3.11357 -1.61944 -5.84293e-20)
(2.76092 -1.31811 0)
(2.53176 -0.926382 0)
(2.42369 -0.571717 6.22639e-19)
(2.3913 -0.277594 1.25679e-18)
(2.3915 -0.0623123 -6.78619e-19)
(2.40416 0.0934443 -7.6238e-19)
(2.41333 0.199501 5.5193e-19)
(3.96194 -2.56205 -2.3695e-18)
(4.3886 0.0865713 0)
(4.24042 -1.43958 1.84784e-18)
(3.83908 -1.05659 -1.27356e-19)
(3.4408 -1.06369 -5.55971e-19)
(3.08607 -0.836402 -1.88105e-19)
(2.83015 -0.577507 -4.52628e-19)
(2.67602 -0.32274 -5.3459e-19)
(2.58553 -0.108294 1.39779e-19)
(2.53487 0.0573342 2.85419e-19)
(2.50114 0.173985 0)
(3.77361 -1.60396 -6.83577e-18)
(4.44628 0.739235 2.57761e-18)
(4.49081 -0.725203 -3.39066e-18)
(4.19536 -0.377304 0)
(3.87748 -0.608157 5.17233e-19)
(3.51238 -0.529102 4.17267e-19)
(3.1964 -0.41069 9.41957e-20)
(2.95867 -0.243651 -2.75486e-19)
(2.79081 -0.0740421 0)
(2.67727 0.0704501 -6.30231e-21)
(2.59777 0.179332 -6.931e-20)
(3.47319 -0.895366 7.15968e-18)
(4.30687 1.12812 -3.85341e-18)
(4.46424 -0.139263 3.90782e-18)
(4.26681 0.210086 0)
(4.06326 -0.128975 -1.62185e-19)
(3.74921 -0.135765 -9.54072e-19)
(3.44638 -0.139533 0)
(3.17723 -0.0678227 1.15637e-19)
(2.96411 0.0307836 -8.68463e-20)
(2.80139 0.128001 6.14185e-21)
(2.67919 0.204677 6.79219e-20)
(3.15017 -0.379144 1.80962e-18)
(4.10769 1.3811 2.99104e-18)
(4.32063 0.300741 -3.6867e-18)
(4.18264 0.657619 0)
(4.07601 0.281719 -8.65561e-20)
(3.82121 0.245546 -4.7213e-19)
(3.56707 0.159556 0)
(3.30525 0.155739 0)
(3.07937 0.181285 3.14233e-19)
(2.88904 0.22276 0)
(2.73599 0.254906 1.47305e-19)
(2.85457 0.0009331 -7.23211e-18)
(3.91017 1.53882 5.17561e-18)
(4.14571 0.629115 -3.38047e-18)
(4.03465 0.9864 0)
(3.99854 0.604034 2.15994e-18)
(3.78305 0.573087 -6.43082e-19)
(3.58594 0.435668 -3.05897e-19)
(3.34612 0.3841 0)
(3.12903 0.347701 -5.06906e-19)
(2.92624 0.335348 0)
(2.74592 0.320316 -1.4535e-19)
(2.60362 0.287855 0)
(3.73025 1.64707 -2.53e-19)
(3.97056 0.881355 0)
(3.86837 1.23247 0)
(3.88207 0.851008 -9.35185e-20)
(3.68182 0.842222 0)
(3.53873 0.668235 2.97959e-19)
(3.31796 0.59435 0)
(3.12 0.507321 -1.8082e-19)
(2.91176 0.448039 3.16404e-19)
(2.70695 0.378786 5.47517e-20)
(2.37719 0.516602 5.00939e-18)
(3.57346 1.74062 -3.81174e-18)
(3.79242 1.08467 -2.66843e-18)
(3.71108 1.42504 3.99493e-18)
(3.74171 1.04264 -1.38976e-18)
(3.5533 1.06285 1.75079e-18)
(3.44923 0.855172 -1.36029e-18)
(3.24458 0.778637 6.93531e-19)
(3.06441 0.650218 -5.30322e-19)
(2.85627 0.558636 -3.09245e-20)
(2.63513 0.446059 0)
(2.15039 0.670551 4.83259e-18)
(3.41177 1.83907 3.34637e-18)
(3.60136 1.25583 -2.02951e-18)
(3.56678 1.58405 0)
(3.57943 1.20102 0)
(3.41946 1.24064 -2.54207e-18)
(3.33047 1.00536 1.30809e-18)
(3.14264 0.935146 -6.92166e-19)
(2.97689 0.774489 -7.66999e-19)
(2.77454 0.660139 -3.81567e-19)
(2.55189 0.528601 6.20098e-19)
(1.93717 0.766299 1.0663e-18)
(3.22984 1.91891 0)
(3.41538 1.38864 5.321e-19)
(3.41696 1.71304 3.29159e-18)
(3.4102 1.33351 -2.705e-19)
(3.28013 1.38222 -9.7952e-19)
(3.19346 1.12951 0)
(3.02191 1.06333 1.33043e-18)
(2.87101 0.878162 3.1515e-19)
(2.67773 0.747224 2.10138e-20)
(2.46185 0.596052 -5.91823e-19)
(1.74504 0.844372 -5.00524e-18)
(3.03441 1.97648 5.80689e-18)
(3.23669 1.50402 -3.395e-18)
(3.25358 1.80595 0)
(3.24079 1.44737 -1.08505e-18)
(3.12931 1.48687 -2.89859e-18)
(3.04455 1.23364 1.12915e-18)
(2.88952 1.15963 1.21946e-18)
(2.75012 0.961559 -1.79966e-18)
(2.57027 0.816374 9.4812e-19)
(2.36857 0.636781 -2.85468e-19)
(1.54777 0.911958 2.8955e-18)
(2.81739 2.01838 -2.58325e-18)
(3.05132 1.60851 -1.74992e-18)
(3.08236 1.87096 4.33911e-18)
(3.06788 1.54584 2.04338e-18)
(2.97102 1.56127 1.52073e-19)
(2.88906 1.31665 0)
(2.74973 1.22753 -1.09892e-18)
(2.62138 1.02467 -6.86931e-19)
(2.45829 0.868051 0)
(2.27546 0.673727 6.57845e-20)
(1.34201 0.954565 4.43734e-18)
(2.5885 2.03501 -1.14219e-18)
(2.85819 1.69155 3.45357e-18)
(2.90461 1.91234 -4.05427e-18)
(2.89058 1.62523 -9.68353e-19)
(2.80804 1.61146 1.52476e-19)
(2.72812 1.37866 8.83922e-19)
(2.60597 1.26924 1.71337e-19)
(2.49036 1.06649 1.15311e-19)
(2.34711 0.900288 4.25601e-19)
(2.18875 0.704935 -3.86527e-20)
(1.13983 0.984267 3.11138e-18)
(2.34793 2.03215 -3.30306e-18)
(2.65416 1.75449 -1.40207e-18)
(2.71773 1.93225 3.53397e-18)
(2.70743 1.68341 -3.16212e-18)
(2.63835 1.63836 1.14917e-18)
(2.56372 1.41897 -6.05891e-19)
(2.46116 1.28639 9.26405e-19)
(2.36143 1.08613 9.03517e-19)
(2.24137 0.912326 8.6115e-19)
(2.11234 0.719697 -4.04316e-19)
(0.933554 1.00261 -2.86161e-18)
(2.08574 2.01298 -8.152e-19)
(2.4309 1.79874 3.03664e-18)
(2.51609 1.93273 1.01147e-19)
(2.51468 1.71921 8.52897e-19)
(2.46048 1.64131 7.80206e-19)
(2.39769 1.43388 9.32857e-21)
(2.3177 1.27973 1.10626e-18)
(2.23844 1.08293 -5.46729e-19)
(2.14451 0.905363 -2.5752e-19)
(2.04442 0.72062 0)
(0.715297 1.00016 2.76679e-18)
(1.79604 1.97198 -9.68457e-19)
(2.17993 1.81796 0)
(2.29227 1.91142 -9.17376e-19)
(2.30729 1.72823 6.13817e-19)
(2.27346 1.61837 0)
(2.23098 1.41878 0)
(2.17858 1.24821 -2.29952e-19)
(2.1256 1.05641 1.669e-19)
(2.06073 0.880488 0)
(1.98992 0.706343 4.49064e-20)
(0.482308 0.972051 2.49876e-18)
(1.47219 1.90396 0)
(1.89091 1.80394 -4.37218e-19)
(2.03615 1.8609 2.53106e-19)
(2.07761 1.70126 0)
(2.07514 1.56496 0)
(2.06477 1.36907 0)
(2.04787 1.19002 -3.17552e-19)
(2.0278 1.00722 -1.48641e-19)
(1.99449 0.840639 8.82639e-20)
(1.95049 0.684901 4.22067e-20)
(0.228467 0.910182 2.27397e-19)
(1.10214 1.8005 -2.26068e-18)
(1.54753 1.74466 2.19972e-18)
(1.73224 1.76867 -1.48367e-19)
(1.81608 1.62403 0)