/*--------------------------------*- C++ -*----------------------------------*\
| =========                 |                                                 |
| \\      /  F ield         | OpenFOAM: The Open Source CFD Toolbox           |
|  \\    /   O peration     | Version:  3.0.1                                 |
|   \\  /    A nd           | Web:      www.OpenFOAM.org                      |
|    \\/     M anipulation  |                                                 |
\*---------------------------------------------------------------------------*/
FoamFile
{
    version     2.0;
    format      ascii;
    class       volScalarField;
    location    "0.142874";
    object      epsilon;
}
// * * * * * * * * * * * * * * * * * * * * * * * * * * * * * * * * * * * * * //

dimensions      [0 2 -3 0 0 0 0];

internalField   nonuniform List<scalar> 
21246
(
2524.87
851.495
300.583
91.4196
26.2568
7.48898
2.15402
0.630447
0.193081
0.0672946
0.0301906
1631.62
474.766
194.817
71.0498
23.6838
7.51774
2.30101
0.685188
0.206499
0.0690232
0.0294374
1075.83
355.595
163.59
73.5533
27.8585
9.47015
3.01731
0.912446
0.269913
0.0852798
0.0338143
790.321
276.112
129.644
64.8629
28.2364
10.7558
3.65963
1.13361
0.33046
0.0993209
0.0375818
633.714
220.207
105.218
54.8219
24.9848
9.99563
3.53021
1.13242
0.342721
0.105807
0.0395508
531.536
177.92
86.799
46.0501
21.2024
8.66755
3.17017
1.06366
0.337326
0.108218
0.0416438
459.476
148.127
72.7784
38.5533
17.8556
7.38508
2.7657
0.96256
0.319472
0.107198
0.0423256
404.918
125.8
61.8359
32.5575
15.0882
6.27278
2.38609
0.854316
0.294549
0.102946
0.0431533
364.553
108.999
53.364
27.9133
12.912
5.37578
2.06542
0.755936
0.269707
0.0984155
0.0432031
335.218
96.4895
46.9437
24.4256
11.2711
4.69015
1.8125
0.674312
0.247595
0.0939158
0.0424454
312.361
86.876
41.9792
21.7762
10.0343
4.17208
1.61791
0.609143
0.22874
0.0893265
0.0418495
294.45
79.1116
37.973
19.6825
9.07527
3.7753
1.4685
0.558247
0.213578
0.0856009
0.0413896
282.207
73.0099
34.8141
18.0727
8.35649
3.4835
1.35909
0.520769
0.202442
0.0829953
0.0410957
275.106
68.6156
32.472
16.9235
7.86659
3.29117
1.28794
0.496609
0.195464
0.0814188
0.0410187
272.293
65.3255
30.6657
16.0921
7.5473
3.179
1.2495
0.484549
0.192633
0.0811126
0.0412872
274.424
63.2929
29.3933
15.5775
7.40222
3.15106
1.2465
0.485951
0.194618
0.0823956
0.0421031
280.675
63.9818
29.0821
15.525
7.5456
3.28218
1.31524
0.514862
0.206318
0.0868945
0.0439577
293.105
66.6969
29.6292
15.8924
7.9717
3.60011
1.48782
0.591685
0.237626
0.0991956
0.0486994
313.757
71.9935
31.3317
16.8256
8.75393
4.16198
1.80974
0.745525
0.303518
0.126041
0.0589708
346.647
81.0383
34.7426
18.6056
10.0421
5.0734
2.36494
1.03571
0.438891
0.184953
0.0827959
400.223
95.8852
40.763
21.7304
12.119
6.52587
3.30519
1.57946
0.722692
0.321948
0.144378
493.361
118.746
50.622
26.9899
15.4955
8.8791
4.91603
2.6088
1.33037
0.656063
0.316355
666.683
156.531
67.0507
36.0186
21.3229
12.9718
7.83822
4.63434
2.66726
1.49309
0.814143
1020.46
160.795
76.4506
46.8854
30.8015
20.5952
13.7211
9.02139
5.82909
3.69423
2.2961
2847.39
1952.99
512.607
161.336
49.984
12.8688
3.28561
0.874186
0.248694
0.0813147
0.0343764
3551.13
2321.16
953.583
362.952
121.83
25.6664
6.09668
1.54428
0.404537
0.118902
0.0445766
2861.8
1975.29
1043.42
467.436
183.695
49.3515
10.405
2.64609
0.678434
0.184339
0.0629502
1791.11
1656
996.534
492.03
212.729
68.6874
15.6427
4.05484
1.0742
0.28823
0.0970951
1003.21
1474.57
929.598
485.579
221.691
79.8322
21.0926
5.57404
1.56547
0.43178
0.145503
585.72
1359.69
878.865
475.117
223.492
86.2343
25.9344
7.18324
2.1131
0.613179
0.214396
404.454
1267.49
844.381
467
223.402
90.3941
29.9773
9.08594
2.71683
0.822238
0.287768
346.424
1200.35
819.046
459.409
221.767
92.9912
33.3362
10.9787
3.5061
1.07862
0.379792
342.106
1129.69
798.649
452.811
219.426
94.6816
36.2457
12.8803
4.40093
1.42537
0.511836
344.473
1046.78
779.945
447.978
217.251
96.0159
38.9269
14.8404
5.42006
1.86592
0.672789
343.379
948.808
761.126
446.298
216.653
97.757
41.7053
16.965
6.61059
2.42379
0.888768
341.495
854.291
740.917
445.691
217.056
99.8024
44.5828
19.2766
8.0079
3.1309
1.17914
340.52
774.532
716.106
445.206
218.887
102.541
47.7717
21.878
9.68368
4.0475
1.59211
335.43
695.385
683.315
445.646
223.239
106.556
51.577
24.9361
11.7478
5.2589
2.19297
330.656
623.457
644.437
444.942
229.061
111.766
56.0963
28.5621
14.3156
6.87136
3.08059
327.796
561.03
601.165
441.568
236.252
118.373
61.607
32.9886
17.5817
9.06365
4.39078
327.357
504.375
554.407
433.922
244.028
126.598
68.4735
38.554
21.8393
12.097
6.35928
336.614
452.564
504.943
419.586
250.549
136.128
77.0594
45.7362
27.5255
16.3615
9.33139
360.176
403.209
451.693
394.732
252.748
146.352
87.9504
55.3623
35.3906
22.5023
13.8625
398.64
358.405
384.889
358.368
248.472
157.667
102.924
69.3316
47.0037
31.7148
20.9378
428.935
287.175
288.158
291.448
234.924
168.779
122.283
88.3025
62.9413
44.5445
30.8831
639.239
285.375
224.338
213.213
187.217
144.655
113.232
88.0234
66.6265
49.4608
35.4575
703.016
453.849
444.403
320.215
241.462
179.961
132.188
94.1544
65.0439
43.8308
28.7553
1467.02
802.692
457.855
279.465
177.993
115.355
74.8811
48.3312
30.8998
19.5227
12.143
435.651
223.421
36.8472
8.57247
2.12003
0.774691
0.461375
0.372562
0.346523
0.344382
0.354134
620.524
386.643
81.4391
13.8342
3.13225
0.991391
0.510316
0.385061
0.350159
0.346368
0.356817
691.493
392.141
113.037
24.7366
4.21518
1.25489
0.57517
0.401812
0.353774
0.346176
0.355243
653.851
359.483
123.824
31.4655
5.67997
1.51501
0.645015
0.421068
0.357975
0.345544
0.353121
568.714
333.851
126.231
35.3201
7.15277
1.75226
0.71271
0.441898
0.363309
0.345373
0.350883
475.077
315.23
127.991
39.3758
9.02434
2.14657
0.780743
0.463934
0.370041
0.346421
0.349878
383.873
300.899
130.563
44.2089
11.4741
2.777
0.909079
0.49082
0.378074
0.348735
0.350713
301.207
289.13
133.313
49.2846
14.3569
3.68335
1.11867
0.537244
0.390196
0.352076
0.352717
233.344
278.375
137.123
54.829
17.7419
4.94518
1.45806
0.615875
0.409675
0.357868
0.355611
180.194
267.746
142.993
61.6031
21.9684
6.74045
2.01717
0.758502
0.444252
0.367254
0.359907
138.489
258.243
150.314
69.4143
27.0019
9.1307
2.88022
1.00996
0.508929
0.383812
0.365699
107.664
251.269
158.664
77.7997
32.5364
12.0296
4.08504
1.41742
0.626769
0.415123
0.374707
88.1747
245.575
168.561
87.2732
38.7813
15.5069
5.70551
2.04746
0.835342
0.476083
0.391427
78.6643
239.365
180.088
98.6109
46.1992
19.758
7.85738
2.99014
1.1921
0.594284
0.425947
79.5138
236.064
193.213
111.775
54.7823
24.7619
10.5623
4.30828
1.76061
0.81087
0.498447
90.6097
232.659
207.04
127.587
65.2574
30.8675
13.9796
6.10938
2.62923
1.18868
0.644628
105.912
222.549
217.795
146.467
78.8716
38.8589
18.4953
8.60117
3.93601
1.82514
0.927144
118.83
204.572
220.019
166.417
96.3568
49.6482
24.6866
12.118
5.89367
2.86927
1.45025
128.604
181.311
209.054
181.756
117.153
64.4065
33.619
17.3512
8.92964
4.59722
2.39982
136.21
157.258
185.602
184.253
137.187
83.6259
46.8676
25.6327
13.9471
7.59341
4.15873
143.554
134.159
154.706
170.11
149.634
105.992
66.3725
39.3662
22.8618
13.1969
7.62358
181.799
120.785
129.658
150.671
152.037
127.084
92.011
61.0785
38.7246
24.0711
14.8091
210.52
116.725
117.067
123.033
125.69
118.627
101.292
78.5005
56.6653
39.366
26.4211
444.649
472.784
383.712
336.825
284.684
227.818
171.716
122.646
85.6129
59.5216
40.8156
350.252
117.995
27.8691
5.76622
1.59576
0.680156
0.440899
0.365948
0.34267
0.341049
0.351478
351.721
91.1741
20.4253
6.10859
1.83389
0.755936
0.460327
0.366789
0.336332
0.331151
0.339437
385.117
112.378
20.9847
7.53264
2.44992
0.984101
0.527798
0.381951
0.333076
0.320094
0.324323
373.504
109.975
19.9338
7.81994
2.74056
1.15123
0.596928
0.403784
0.334121
0.312181
0.312813
346.274
93.6903
18.7044
7.71522
2.75022
1.18043
0.607803
0.404671
0.328826
0.302526
0.300176
319.567
78.017
17.3521
7.23613
2.61498
1.16188
0.604387
0.401399
0.322119
0.292424
0.286963
296.747
65.971
16.0697
6.67313
2.44089
1.12241
0.590991
0.395511
0.316289
0.284477
0.275694
276.304
56.933
14.8892
6.14097
2.28315
1.07843
0.574781
0.389061
0.311489
0.27911
0.268903
260.757
50.1923
13.9248
5.71805
2.17002
1.03912
0.561072
0.383729
0.308253
0.276147
0.265203
250.111
45.4044
13.1661
5.39722
2.10229
1.01197
0.552262
0.380164
0.306219
0.27478
0.264216
244.131
42.1731
12.6706
5.20574
2.07718
1.00151
0.549854
0.378922
0.305158
0.274013
0.263772
241.378
39.9221
12.3413
5.11556
2.08925
1.00794
0.554306
0.380416
0.305106
0.273542
0.263876
242.603
38.5314
12.1952
5.12584
2.14336
1.03416
0.56718
0.385442
0.306352
0.273189
0.263848
245.582
39.7087
12.5384
5.31439
2.27925
1.09676
0.596043
0.397009
0.310179
0.273302
0.262906
250.592
42.1694
13.3536
5.69524
2.52623
1.21763
0.655215
0.422522
0.320558
0.276255
0.262337
258.317
46.0775
14.7925
6.34045
2.91677
1.42216
0.760012
0.471366
0.342431
0.284703
0.263713
269.488
51.8639
17.1068
7.38878
3.52101
1.75656
0.940087
0.562293
0.386665
0.304762
0.27058
285.826
59.6774
20.556
9.03815
4.45761
2.29935
1.24978
0.73206
0.476807
0.350929
0.29191
309.8
70.1737
25.5616
11.6133
5.94475
3.19917
1.79454
1.05576
0.665144
0.458425
0.351225
345.879
84.84
32.9404
15.6828
8.39235
4.74842
2.78982
1.69411
1.07117
0.714917
0.512287
403.118
106.612
44.1819
22.267
12.5656
7.52988
4.68763
3.00168
1.97506
1.34158
0.949938
502.315
141.422
62.4347
33.4226
19.9836
12.7323
8.44628
5.76593
4.03209
2.88843
2.12893
699.528
213.672
99.7086
56.0448
35.1386
23.5645
16.5192
11.9692
8.91661
6.81599
5.34717
1278
374.471
195.135
123.93
87.3325
65.0803
50.1576
40.2813
33.3623
28.2561
24.114
321.755
232.247
153.234
116.492
92.5435
65.3958
33.3823
11.8525
4.02403
1.51275
0.660423
270.475
188.772
141.411
111.363
90.2092
67.3952
39.0774
15.2134
4.01505
1.22539
0.477859
118.115
142.624
115.15
94.9122
79.4768
62.3648
39.7541
17.6517
4.99762
1.16291
0.360096
48.5696
107.405
88.3803
75.3796
65.2626
53.3068
36.2307
17.7152
5.60747
1.27245
0.311705
42.5473
64.727
63.9422
57.1576
51.1149
43.065
30.4979
15.8681
5.49549
1.32769
0.295249
34.1592
39.137
43.6043
42.1015
38.8258
33.402
24.198
13.0462
4.80977
1.25269
0.279977
26.2224
25.2856
29.0385
29.9899
28.7869
25.0427
18.2721
10.0063
3.84478
1.07253
0.25301
20.771
17.2245
19.502
20.8142
20.767
18.1665
13.1849
7.24013
2.86589
0.852731
0.217295
16.8521
12.3123
13.4226
14.3621
14.6065
12.7759
9.16153
5.0235
2.04743
0.652418
0.18257
13.9577
9.25969
9.62666
10.0593
10.1667
8.81164
6.24414
3.43775
1.45726
0.502872
0.156529
11.8166
7.36782
7.3123
7.31623
7.18201
6.12074
4.30802
2.41342
1.08145
0.408744
0.14143
10.3654
6.22393
5.93774
5.6497
5.32847
4.45254
3.14038
1.81886
0.872778
0.361584
0.137443
9.45153
5.5671
5.15331
4.70235
4.27514
3.52127
2.51545
1.52208
0.78244
0.350248
0.142655
8.78173
5.20133
4.7365
4.2055
3.73428
3.06414
2.23489
1.41403
0.770424
0.365201
0.155378
8.27571
4.99039
4.52784
3.96491
3.48716
2.87813
2.15101
1.41687
0.809055
0.400657
0.176129
7.90157
4.87531
4.43623
3.86534
3.40016
2.84197
2.1812
1.49197
0.888061
0.45644
0.205692
7.59888
4.82636
4.41633
3.84695
3.40599
2.90103
2.297
1.63533
1.01527
0.541326
0.249337
7.37489
4.8211
4.4371
3.87667
3.48336
3.05662
2.52216
1.88183
1.22301
0.677777
0.319762
7.22273
4.85763
4.48233
3.95683
3.67991
3.40456
2.97957
2.34834
1.5972
0.915567
0.439219
7.1398
4.87979
4.53564
4.16602
4.23666
4.37116
4.14157
3.4051
2.36997
1.38098
0.666758
7.22973
5.27884
4.76624
5.17752
7.35209
9.76109
9.61101
7.31414
4.45863
2.45015
1.15564
17.7944
7.957
9.24699
21.2692
27.186
27.3935
24.2359
18.6624
11.6795
5.67135
2.43422
22.8048
66.918
68.8183
64.9999
57.3749
48.2385
39.0523
30.498
21.9228
12.8611
5.80788
389.494
230.47
151.314
103.922
73.7712
53.1254
38.6945
29.299
22.981
16.9319
9.9803
379.335
174.993
125.316
104.538
84.3979
58.6344
31.8658
13.3827
5.05689
2.04712
0.941137
247.244
85.6118
77.391
79.3541
76.327
63.1252
40.8087
19.2971
7.5143
3.06518
1.43722
125.224
43.6704
42.9934
51.8948
60.4046
61.6564
49.7438
28.0743
11.5866
4.74236
2.28479
95.9953
32.0728
27.2935
31.9154
40.8525
49.7654
50.8768
37.038
17.6533
7.45425
3.52581
86.4219
30.3849
22.9684
23.021
27.529
35.5984
43.1246
40.8255
25.2473
11.6713
5.4782
80.6624
29.4956
21.6552
19.8628
21.3165
26.1537
33.5939
37.8277
30.0152
15.3032
7.2669
77.1493
28.9604
21.1656
18.4897
18.2527
20.6829
26.3679
32.7212
30.9959
18.9497
9.12873
74.9532
28.8498
21.13
17.8726
16.604
17.405
21.1873
27.4324
29.6363
21.2025
11.3154
74.164
29.0371
21.3951
17.6404
15.6681
15.3923
17.6332
22.8562
26.9276
21.7998
13.2777
74.5791
29.4985
21.9041
17.6352
15.1318
14.1554
15.3189
19.353
23.9866
21.5554
14.0948
76.3109
30.5679
22.6201
17.7914
14.8435
13.4179
13.9111
16.8296
21.6302
21.0778
14.2306
79.2534
32.0446
23.5801
18.1747
14.7321
12.988
13.1024
15.0525
18.772
20.4879
14.18
83.3513
33.8888
24.7749
18.7578
14.7396
12.633
12.4178
13.7683
16.2892
18.3319
14.4294
88.635
36.233
26.3421
19.5781
14.8865
12.3247
11.7299
12.5397
14.183
15.7464
14.4636
95.2767
39.3368
28.4705
20.7774
15.2344
12.0854
11.0697
11.4335
12.5007
13.7406
13.8536
104.332
43.5107
31.425
22.5784
15.9292
12.0013
10.4834
10.4241
11.066
12.048
12.5283
116.86
49.2343
35.6858
25.4417
17.3239
12.3123
10.1291
9.60222
9.96714
10.7169
11.2673
134.515
57.2971
42.2139
30.4617
20.3114
13.5363
10.0608
8.85058
8.79184
9.18363
9.59593
159.43
68.7479
52.5962
39.8637
27.3485
17.4416
11.9249
9.53223
8.66856
8.43088
8.34788
184.031
81.9863
64.7988
50.2477
35.3073
23.0459
15.5951
12.092
10.7473
10.4083
10.4893
207.409
93.302
74.4502
59.445
42.9995
28.5578
19.2659
14.7645
13.1451
13.0993
14.0435
256.428
108.387
84.5448
65.8474
47.7498
32.1934
21.8603
16.5438
14.415
13.9943
14.2684
362.586
145.508
92.3365
67.1341
48.1229
33.3616
23.3046
17.6714
15.0326
13.9902
11.998
947.816
164.312
96.3561
62.8006
45.7
33.3662
24.1048
19.0216
16.2612
13.997
10.3124
76.4461
83.7726
89.6605
92.5085
92.2381
89.1274
80.7749
69.3912
53.5886
24.9134
25.8239
27.74
27.8547
26.6829
25.9011
24.5984
24.3975
23.3235
11.9442
12.7623
14.3222
14.6383
13.8016
12.8497
12.0343
12.8148
14.5121
6.31417
6.72452
7.80464
8.10111
7.55628
7.03037
6.70948
7.13365
8.78487
65.237
52.3265
35.4644
13.1422
4.99613
4.21139
3.69736
7.97046
32.0606
24.4701
23.3028
20.3588
14.4022
5.89143
2.26998
3.57023
11.5805
19.2331
12.3905
13.9839
14.8285
12.6434
6.04064
2.38791
3.96566
9.78067
14.313
6.77942
8.01799
9.7759
9.95397
5.84395
2.71165
3.96535
7.94046
10.039
0.00902054
0.00829365
0.0083476
0.0162559
0.146808
0.00756585
0.457143
0.00808107
0.00753774
0.00681862
0.161126
0.00811711
0.00850859
0.00623695
0.0146185
0.00727845
0.00622299
0.0152171
0.0072412
0.00709012
0.00661941
0.223495
0.00852057
0.00797544
0.00792418
0.00623305
0.00845079
0.402038
1.42052
0.0342182
0.00631008
0.00688847
0.00630952
0.00806439
0.00713862
0.00826293
0.00780755
0.00790744
0.00631425
0.0075997
0.258765
0.00809572
0.00664304
0.00849519
0.615274
0.683346
0.00756005
1.02368
0.00684341
0.00730078
0.0296949
0.00761858
0.00620616
0.0066535
0.00729505
0.00664835
0.220095
0.00764002
1.43172
0.00644661
0.105969
0.00619213
0.161942
0.091543
0.416966
0.00712866
0.0164184
0.0070567
0.00829624
0.00680957
0.0065346
0.00706383
0.0176882
0.00774231
0.00765277
0.00705639
0.102357
0.00827674
0.119396
0.340164
0.00664052
0.0881618
0.00793305
0.00837988
0.00827333
0.0169261
2.96871
0.00618219
0.108049
0.00690938
0.00809007
0.00767467
0.298872
0.00715504
0.328868
1.13018
0.00714152
0.00724282
0.116304
0.00727093
0.00900323
1.09668
0.00672662
0.00769327
0.08991
0.00811412
0.00611413
0.00845242
0.00662791
0.00691818
0.00796647
0.00814713
0.0071412
0.0289657
0.00859648
0.00768937
0.00755107
0.00730904
0.00792593
0.0066856
0.0318943
0.00753326
0.00869109
0.00617502
0.67143
0.00753876
0.00647088
0.00614686
0.00626839
0.00644647
0.00779221
0.00646983
1.05663
0.0070549
0.00834096
0.00883675
0.101365
0.0710207
0.0380989
0.00716331
0.00662769
0.00660136
0.796332
0.00874689
0.00751878
0.0176448
0.0131476
0.00707702
0.00700883
0.00705388
0.00713593
0.0076726
0.0199301
0.00744919
0.0235371
0.00667657
0.0114724
0.0934528
0.0066102
0.00745983
0.00683234
0.0935948
0.00706299
0.00771696
0.0185982
0.00674671
0.0920527
0.00745892
0.00828386
0.401549
0.00630576
0.0064394
0.00951223
0.00643406
0.00677373
0.00695274
0.00660251
0.0248948
0.605095
0.00745287
0.0070982
0.196716
0.00849955
0.0519857
0.00793748
0.0494294
0.00705881
0.00725758
0.00824828
0.16688
0.00660459
0.00635238
0.00717465
0.236957
0.00832469
0.00759333
0.00741458
0.116934
0.00648235
0.00856735
0.0225614
0.00726434
0.00655927
0.00637728
0.00838779
0.00618632
0.00712939
0.00626678
0.00737607
0.00739944
0.00683812
0.00759223
0.00840945
0.00688483
0.00791325
0.00621268
0.00797562
0.00850346
0.00710842
0.00788207
0.00641916
0.026665
0.00726908
0.00885548
0.00613098
0.00765604
0.0362643
0.00672472
0.00656268
0.119598
0.0930135
0.00712162
0.00711053
0.00762192
0.0219594
2.87488
0.00816855
0.00845255
0.00813683
0.00809517
0.00838198
0.0314451
0.0077028
0.173974
0.0071198
0.0980475
0.00800333
0.00648329
1.20941
0.00653038
0.00646989
0.0068644
0.00972386
0.00725371
0.00794021
0.0074572
0.00672293
0.00785852
0.014698
0.00703817
0.00808609
0.00942529
0.00737355
0.00819339
0.00796083
0.00797088
0.00660752
0.00707099
0.0192623
0.00822694
0.114132
0.0072787
0.00723978
0.00760884
0.00755346
0.00735375
0.00624578
0.00775606
0.0067784
0.0945408
0.00713311
0.00827787
0.0066565
0.00786075
0.007696
0.00757677
1.49215
0.00823729
0.00673785
0.00664176
0.00834153
0.390705
0.00775485
0.00647278
0.00856453
0.00740925
0.00814665
0.0081582
0.00705002
0.00628677
0.00776656
0.0475405
0.00704518
0.0363718
0.00676086
0.00696988
0.00827841
0.00667195
0.1982
0.00743054
0.282548
0.00816008
0.00706045
0.00630664
0.155242
0.00646903
0.00727993
0.0713337
0.00667038
0.00731583
0.00706063
0.00660397
0.00745977
0.00676658
0.0986339
0.00693912
0.00778549
0.0069046
0.00707577
0.00632473
0.00702333
0.174879
0.076899
0.00846907
0.00904005
1.57432
0.0120931
0.00823605
0.00784554
0.00731194
0.0247794
0.00689599
0.00722591
0.0068993
0.0955683
0.00667213
0.00699927
0.00753564
0.00801131
0.00641537
0.444949
0.00696971
0.0083167
0.00682054
0.012432
0.00860268
0.00644884
0.00702873
0.00849952
0.0063736
0.0111016
0.00626127
0.00800158
0.00798805
0.0072569
0.0960433
0.00628867
0.00653325
0.584138
0.00844952
0.00773384
0.0558856
1.34154
0.00627715
0.0112098
0.00831128
0.010482
0.00720314
0.00750912
0.0070747
0.00688837
0.00754126
0.0210646
0.00767738
0.00632549
0.0108322
0.0379002
0.00612022
0.0292149
0.105197
0.00770514
0.17746
0.00609556
0.00792616
0.0109849
0.41915
0.0078732
0.007186
0.00836063
0.00717398
0.0144421
0.00764428
0.0085114
0.00663869
0.00634908
0.351561
0.113973
0.00673594
0.00726301
0.00660177
0.00713562
0.00719222
0.00649258
0.00647401
0.0171333
0.00721045
0.00660505
0.00830045
0.00627852
0.142401
0.0825188
0.00682467
0.59317
0.00661988
0.00697707
0.0068456
0.00765826
0.0250266
0.0132949
0.54656
0.00789698
0.0201969
0.00646565
0.00658337
0.0104226
0.0064703
0.0123226
0.0350009
0.00618823
0.00860019
0.00751636
2.90477
0.00902046
0.0400649
0.00688391
0.00658267
0.00627682
0.0504942
0.00739994
0.0707218
0.00774518
0.00833486
0.00793593
0.120743
0.0151327
0.656969
0.00630667
0.0248236
0.0222892
0.00825477
0.00738405
0.00645833
0.00636659
0.00795562
0.00707326
0.127443
0.0974672
0.0902243
0.0916647
0.00702792
0.00725186
0.0543071
0.0069825
0.103113
0.00695879
0.00822719
0.00731571
0.0347611
0.0753841
0.00708164
0.00778311
0.00667314
0.100097
0.170554
0.00845259
0.0141813
0.158195
0.00948176
0.00647354
0.00739623
0.0244762
0.00758419
0.00694937
0.00763944
0.00638405
0.00724312
0.00713924
0.00676431
0.00879349
0.00705735
0.00679729
0.00688959
0.00805989
0.00806455
1.19258
0.00657811
0.0270865
0.00702884
1.01703
0.00835658
0.011529
0.0156098
0.11048
0.00671185
0.0090919
0.00990066
0.00721397
0.00672526
0.0077867
0.00758145
0.00663032
0.0082719
0.00768313
0.00817934
0.00683431
0.00692882
0.00798604
0.00744208
0.0104348
0.00774153
0.592198
0.00907125
0.00669323
0.00683202
0.101372
0.00856279
0.00786157
0.00841439
0.215749
0.0764552
0.00795008
0.00791366
0.00616409
0.00834549
0.00853068
0.00830798
0.00624358
0.00669735
0.134516
0.00633296
0.00765168
0.714695
0.0118432
0.00679391
0.00660156
0.00696479
0.00830106
0.00648127
0.0480459
0.00720238
0.00640559
0.335277
1.16053
0.00791867
0.00728071
0.00827793
0.00628827
0.00823143
0.0171498
0.00807643
0.00752404
0.00766266
0.00714202
0.00653124
0.00630388
0.00672501
0.183423
0.00772128
0.0174985
0.00781622
0.00713898
0.00735675
0.00746458
0.00673516
0.00669469
0.163698
0.00680249
0.00842026
0.00854734
0.37041
0.00763045
0.00740824
0.0329652
0.00713339
0.00631736
0.0246455
0.00730768
0.00682876
0.00774649
0.00790276
1.09569
0.00803028
0.0113669
0.00709729
0.00794875
0.0991102
0.00701845
0.00723554
0.00699108
0.00700705
0.00671187
0.00717791
0.00708551
0.0198076
0.00761688
0.00992818
0.00723076
0.00762194
0.00701087
0.00779201
1.20298
0.00692755
0.00755215
0.00756131
0.103117
0.00668127
0.00736598
0.0211325
0.00831324
0.00680693
0.00766747
0.00640908
0.00964818
0.0062691
0.00659436
0.103959
0.00664122
0.0257488
0.00752734
0.00755637
0.0950866
0.0125047
0.0089284
0.00836322
0.00680708
0.0993269
0.00683282
0.00696298
0.00745785
0.00648761
0.00664282
1.23088
0.00716766
0.00825836
0.00769595
0.0116205
0.00811863
0.00722026
0.00679096
0.00979541
0.00695147
0.00704168
0.00688592
0.00825174
0.0287538
0.0504958
0.125022
0.00699994
0.00698903
0.00762881
0.00654193
0.00724891
0.578603
0.00712584
0.00959223
0.00660405
0.00771594
0.00660684
0.00849537
0.00630938
0.0465952
0.00669278
1.20603
0.00687448
0.00812741
0.00841669
0.0114142
0.00637729
0.129811
0.00647591
0.00750666
0.00708192
0.00840306
0.00910532
0.00692442
0.0125801
0.00812479
0.00763753
0.00760669
0.00849302
0.00702312
0.00816088
0.00762381
0.00750718
0.00671617
0.00664493
0.00650395
0.0386241
0.139112
0.00636596
0.00885685
0.00720635
0.00758473
0.00735092
0.00630509
0.505341
0.0078391
0.00660306
0.0079103
0.0070239
0.256039
0.0126151
0.0268977
0.00623669
0.00715989
0.00680617
0.00665693
0.00812123
0.00823617
0.00638635
0.00665522
0.00624463
0.00673908
0.0117717
0.00643049
0.00633721
0.00751835
0.00752136
0.067909
0.0674996
0.00802661
0.00627071
0.291931
0.00811156
0.608187
0.00874915
0.00777984
0.00911039
0.00755498
0.00694875
0.00668565
0.00779184
0.00715332
0.00628335
0.00818497
0.00631027
0.0070246
0.00643069
0.00656589
0.00695746
0.00663016
0.0072182
0.0123897
0.776366
0.00782245
0.00627906
0.00830415
0.00661666
0.00987395
0.102464
0.00755007
0.00838223
0.00633844
0.00922712
0.0071938
0.00823627
0.007662
0.00700907
0.053081
0.00860518
0.00789151
0.00857264
0.170064
0.00663883
0.00728758
0.00819061
0.00666592
0.00805634
0.00813516
0.00821576
0.00838048
0.00788005
0.00712378
0.00653918
0.170251
0.0448208
0.00616796
0.0106139
0.00769568
0.00793136
0.00804433
0.00791268
0.0082748
0.00965725
0.00845225
0.954633
0.00711655
0.0304062
0.00882344
0.00819176
0.00770899
0.00782561
0.670968
0.00713893
0.00815199
0.00749601
0.00672798
0.00756493
0.00739256
0.00813651
0.0116701
0.211431
0.015955
0.00814737
0.00610379
0.00662981
0.00707336
0.00921606
0.00842808
0.00717151
0.0143211
0.00716618
0.00659567
0.00829201
0.00688943
0.00751853
0.00733433
0.0082425
0.00651062
0.00746827
0.565536
0.798428
0.00665368
0.00809189
0.0760481
0.00853062
0.00711276
0.00859696
0.00789702
0.00765879
0.00768413
0.0776472
0.00615977
0.00670549
0.00764737
0.00843592
0.00767797
0.00860022
0.0072939
0.00754495
0.00752099
0.00792794
0.00814403
0.00714395
3.33402
0.00754475
0.00711581
0.0119689
0.756572
0.0070829
0.00796266
0.0747305
3.04822
0.00697978
0.00860911
0.00682513
0.00976919
0.00846412
0.00808434
0.00691863
0.008684
0.00639204
0.00827177
0.00988623
0.00649827
0.00664296
0.00633682
0.00820771
0.00632842
0.0288488
0.00775713
0.00754098
0.00703804
0.00831267
0.00715906
0.627129
0.00855421
0.00709613
0.00630354
0.00663429
0.0070235
0.109483
0.00851094
0.00813765
0.00635366
0.00635528
0.00634171
0.00762261
0.139298
0.00716836
0.0079786
0.00729388
0.00624112
0.00643219
0.0904995
0.00643336
0.00691846
0.00804205
0.00720838
0.183309
0.00645803
0.00997562
0.00686453
0.00712093
0.00777259
0.00632794
0.00753451
0.00830314
0.00733877
0.532394
0.0669074
0.0418238
0.00630609
0.00625377
0.00619916
0.294955
0.00801608
0.00726463
0.00640657
0.00759571
0.0159425
0.00791505
0.00684286
0.00636856
0.00673687
0.00830259
0.00813721
0.00845453
0.00765111
0.00660196
0.0264261
0.00708655
0.00780067
0.00715735
0.00946609
0.011291
0.137386
0.0077143
0.0068239
0.347558
0.00848657
0.124081
0.0083239
0.00672653
0.00631255
0.00827927
0.0236908
0.00644509
0.00672376
0.0150673
0.0072796
0.00987797
0.00645435
0.00739972
0.0096267
0.00663685
0.00700309
0.00672494
0.00812995
2.73544
0.00673112
0.970089
0.00812742
0.0178201
0.0404911
0.0442774
0.00774651
0.0064541
0.00855529
0.00611062
0.10484
0.00815286
0.00911077
0.00654228
0.0122908
0.00803388
0.0066964
0.0077933
0.00734344
0.111225
0.00692652
0.291969
0.00640604
0.00669477
0.00894303
0.00827801
0.00935057
0.118199
0.0249914
0.00682781
0.0065805
0.00756293
0.0124602
0.00627663
0.00810037
0.00761572
0.00856669
0.00780394
0.00667958
0.00831883
0.00674546
0.00663459
0.00627473
0.00801887
0.378853
0.0119076
0.00688372
0.00748245
0.00813455
0.0069356
0.00718467
0.723172
0.00703051
0.00624263
0.00762124
0.116432
0.00796263
0.00693904
0.00796053
0.00752299
0.0257416
0.00779724
0.00657544
0.686131
0.581993
0.363048
0.00677261
0.00755198
0.050337
0.008387
0.00674279
0.00615871
0.00693247
0.112621
0.00709179
0.00840439
0.00687573
0.00611496
0.00811814
0.00735766
0.0086266
1.18295
0.00769722
0.00802867
0.151567
0.00712841
0.00681797
0.00730125
0.00662944
0.0451816
0.00718489
0.0218901
0.924459
0.00644515
0.034808
0.737271
0.00683441
0.00832904
0.00718759
0.00709053
0.00663054
0.00651895
0.0453318
0.00882565
0.00729859
0.737325
0.00751277
0.0071084
0.00712612
0.00818411
0.00641822
0.00680817
0.00692291
0.0066979
0.0359296
0.00704584
0.351554
0.181665
0.00855563
0.177489
0.0457174
0.00768987
0.007099
0.00663911
0.00768383
0.00804006
0.00948353
0.00750385
0.00824233
0.00673576
0.00809643
0.00708349
0.00802658
0.0077312
1.28676
0.0127001
0.011047
0.00721732
0.0134706
0.00644442
0.00631649
0.781054
0.00776517
0.00642365
0.00731575
0.00631745
0.00657132
0.0304103
0.00670561
0.00746849
0.0517276
0.0066913
0.00640207
0.00731843
0.0209324
0.00820794
0.00943666
0.102138
0.0141775
0.00710798
0.00860382
0.00797178
0.00951666
0.00634323
0.00627016
0.041784
1.28798
0.00801452
0.0265256
0.0280375
0.0081978
0.0678808
0.0070812
0.00697679
1.40761
0.0329196
1.07045
0.132119
0.00815451
0.00792824
0.0187699
0.0912898
0.00671019
1.28476
0.00637573
0.00816708
0.00713414
0.00634183
0.00657391
0.0436289
0.00655932
0.00737932
0.0257044
0.00633376
0.011715
0.00678719
0.00904976
0.186615
0.00643878
0.00684202
0.00725245
0.00703528
0.0966484
0.00628529
0.00675328
0.0151292
0.00757939
0.00973032
0.0390786
0.0313913
0.0068366
0.0698342
0.0119702
0.00752068
0.735238
0.059165
0.00836001
0.00610294
0.00658856
0.00651766
0.00656616
0.0080668
0.0076799
0.00693254
0.156581
0.0067224
0.00745606
0.00728224
0.00833612
0.0081432
0.00859551
0.00622323
0.00770896
0.00679816
0.0153414
0.00814653
0.0771067
0.134475
0.00640655
0.0533307
0.0106549
0.00655504
0.0271473
0.00801393
0.00815926
0.00787883
0.00632229
0.00793584
0.00715967
0.00849072
0.0773375
0.00675642
0.00630263
0.0065785
0.00688032
0.0613407
0.0151617
0.00855516
0.00879859
0.0159102
0.00629474
0.00671152
0.0067714
0.00664805
0.00672474
0.00794582
0.102569
0.00661448
0.0240631
0.00740994
0.0085936
0.00644523
0.0064145
0.0117197
0.00684686
0.00758921
0.0336905
0.00620493
0.179447
0.00610937
0.00670852
0.0520723
0.006308
0.00795694
0.473083
0.00617684
0.00666633
0.0120957
0.0108146
0.00698277
0.0699211
0.0497606
0.00611314
0.324095
0.547921
0.00789822
0.00708207
0.00625995
0.00758051
0.0120212
0.00811146
0.00873846
0.00839291
0.0073277
0.161219
0.00761323
0.00845972
0.537978
0.0351879
0.0072699
0.00770265
0.00758838
0.00674506
0.00858088
0.00714825
0.00815499
0.00825413
0.00879621
0.00803012
0.0181264
0.00817975
0.00633377
0.00769584
0.020946
0.00837998
0.00895524
0.129277
0.00918578
0.00704066
0.00781191
0.00636838
0.00670135
0.00826404
0.0110015
0.00654439
0.00739558
0.00752503
0.0077812
0.0512257
0.00671768
0.0126106
0.00848259
0.029313
0.00788328
0.00668008
0.00785715
0.0088033
0.00802176
0.00889671
0.00725713
0.0731943
0.00789685
0.00800019
0.178164
0.00844852
0.00855178
0.0530032
0.00660831
0.0230678
0.00754291
0.0198913
0.00788532
0.00627269
0.00653589
0.0171779
0.00765191
0.00704125
0.0206489
0.00764576
0.0321272
0.00701789
0.0153724
0.00823725
0.00760066
0.00869718
0.00739334
0.578021
0.00643923
0.0062571
0.00678319
0.0064149
0.00713566
0.00840282
0.0112861
0.0389753
0.00751093
0.00811494
0.00671242
0.00694146
0.00686266
0.00678823
0.00665786
0.00789579
0.0240371
0.0407718
0.00744189
0.0170686
0.00797936
0.00761517
0.00689339
0.257197
0.00689171
0.00769945
0.00666496
0.0321512
0.00820191
0.00704859
0.0289712
0.0116215
0.00661049
0.00714377
0.00662778
0.0199832
0.00755243
0.00692857
0.184916
0.00834422
0.00830063
0.00854959
0.00684402
0.00788069
0.0069344
0.0076317
0.00669981
0.00630287
0.0134202
0.00812636
0.00638445
0.0360749
0.00687656
0.00670374
0.00764448
0.00720304
0.0362035
0.0136731
0.00629881
0.00845503
0.00715755
0.748771
0.00813549
0.00698937
1.87462
0.00673263
0.00705696
0.00702557
0.00699049
0.00711815
0.00855749
0.00761497
0.00677471
0.0722539
0.00705829
0.007609
0.0109516
0.00610429
0.00748354
0.00652096
0.0069185
0.00728002
0.00632379
0.00855962
0.00704784
0.00748312
0.00685044
0.00668049
0.00681315
0.0124053
0.00795392
0.00720035
0.00664044
0.00756273
0.00836801
0.0072469
0.006942
0.036468
0.00902299
0.00674403
0.00681987
0.00757725
0.00745883
0.20018
0.00710076
0.00630976
1.32005
0.00703435
0.00636388
0.0171522
0.00692287
0.00809965
0.00770649
0.00681393
0.00637079
0.00688483
0.00868138
0.0067057
0.0746771
0.00610208
0.0314376
0.00781583
0.00727541
0.0123279
0.383295
0.00740363
0.00865349
0.00612215
0.00828559
0.00676908
0.0179054
0.00790131
0.0105464
0.00621136
0.00643316
0.00668339
0.00718067
0.0109589
0.0199971