/*--------------------------------*- C++ -*----------------------------------*\
| =========                 |                                                 |
| \\      /  F ield         | OpenFOAM: The Open Source CFD Toolbox           |
|  \\    /   O peration     | Version:  3.0.1                                 |
|   \\  /    A nd           | Web:      www.OpenFOAM.org                      |
|    \\/     M anipulation  |                                                 |
\*---------------------------------------------------------------------------*/
FoamFile
{
    version     2.0;
    format      ascii;
    class       volScalarField;
    location    "0.577905";
    object      epsilon;
}
// * * * * * * * * * * * * * * * * * * * * * * * * * * * * * * * * * * * * * //

dimensions      [0 2 -3 0 0 0 0];

internalField   nonuniform List<scalar> 
21246
(
580.362
284.34
52.5639
12.7885
3.02246
0.905697
0.430949
0.306579
0.270209
0.264364
0.274115
788.871
463.81
114.975
22.3192
4.80196
1.27415
0.511837
0.330031
0.282899
0.277615
0.291992
831.548
458.567
151.375
38.0838
7.44707
1.74726
0.625354
0.361798
0.29685
0.289826
0.309136
741.848
411.936
160.939
46.8173
10.3627
2.22831
0.752949
0.398873
0.311447
0.299716
0.32015
610.248
373.075
160.023
51.302
12.7547
2.80117
0.881232
0.438675
0.326682
0.307829
0.32578
484.558
342.416
157.671
55.348
15.308
3.59924
1.03987
0.479942
0.342214
0.315046
0.329433
374.565
317.428
155.644
59.6668
18.2648
4.65569
1.29696
0.537517
0.357885
0.321684
0.333092
283.386
296.319
153.69
63.7311
21.4197
5.96497
1.66431
0.625102
0.380154
0.328221
0.336031
213.822
277.376
152.845
67.8961
24.8263
7.57576
2.18415
0.759824
0.413377
0.337019
0.338501
162.554
259.979
153.813
72.8765
28.8215
9.64176
2.93944
0.976596
0.468015
0.350254
0.341579
124.405
244.833
156.067
78.466
33.3076
12.1642
3.98394
1.31593
0.560746
0.37275
0.346007
97.4629
232.866
159.248
84.2026
37.9382
14.9914
5.31201
1.8104
0.713191
0.412977
0.354246
80.8244
222.586
163.593
90.5421
42.9123
18.1707
6.96566
2.50936
0.958118
0.485622
0.371262
72.0496
211.857
168.868
98.0872
48.6326
21.864
9.0283
3.48259
1.34539
0.616467
0.407118
70.6473
203.55
174.866
106.632
54.9951
26.0012
11.4836
4.76498
1.92414
0.84138
0.480475
76.7491
196.191
180.923
116.624
62.4963
30.8316
14.4381
6.43317
2.76485
1.21392
0.623228
87.4323
186.176
184.987
128.319
71.9488
36.8967
18.1661
8.63822
3.97607
1.81727
0.89047
97.7254
171.982
183.972
140.543
83.7789
44.763
23.0377
11.6051
5.71471
2.77112
1.37029
106.623
154.526
174.911
150.125
97.8249
55.2734
29.7969
15.8195
8.29099
4.2892
2.21664
114.084
135.813
157.011
151.682
111.854
69.0442
39.6601
22.2663
12.3719
6.81352
3.73032
121.926
116.999
132.646
141.573
121.582
85.789
54.3779
32.8619
19.4372
11.372
6.6081
155.217
105.018
112.031
127.424
124.984
102.966
74.5483
49.9095
32.0072
20.1094
12.4651
180.144
101.28
100.488
104.008
104.276
97.2832
82.7806
64.3479
46.7711
32.74
22.1382
403.747
417.571
322.234
276.481
232.133
186.024
141.456
101.954
71.7461
50.1841
34.6177
485.253
145.974
38.7857
8.51666
2.16718
0.754499
0.399903
0.294734
0.259706
0.250426
0.253748
445.003
114.451
29.4979
8.72895
2.47685
0.867596
0.431718
0.30125
0.256767
0.242585
0.24238
456.829
133.013
29.6644
10.4975
3.42643
1.20766
0.529549
0.326915
0.259997
0.236559
0.230979
421.315
126.525
27.6319
10.788
3.85957
1.47391
0.648667
0.368731
0.272149
0.236511
0.224879
375.737
106.606
25.2685
10.4052
3.79454
1.4927
0.667977
0.38358
0.280059
0.240371
0.226275
336.206
87.9884
22.837
9.57478
3.54332
1.45042
0.665403
0.385967
0.28282
0.242853
0.229104
304.183
73.732
20.6557
8.69774
3.2525
1.37628
0.645834
0.382058
0.282609
0.243739
0.23113
277.36
63.0262
18.7488
7.90771
2.99135
1.30131
0.622236
0.375686
0.281287
0.244463
0.233528
257.128
55.0143
17.2207
7.26573
2.79303
1.23805
0.602116
0.36972
0.279337
0.243937
0.233954
242.786
49.2632
16.0099
6.77086
2.66301
1.19296
0.588635
0.36569
0.277834
0.243267
0.233926
233.684
45.2726
15.1602
6.44836
2.59435
1.17091
0.583739
0.364682
0.277489
0.243145
0.234366
228.208
42.3969
14.5414
6.25778
2.57645
1.17121
0.587862
0.367256
0.278698
0.243727
0.234732
226.707
40.4711
14.1574
6.19319
2.61261
1.19682
0.602628
0.374309
0.281878
0.245127
0.235461
227.674
40.8047
14.2422
6.31852
2.73723
1.26279
0.634582
0.388244
0.287904
0.247858
0.237102
230.823
42.363
14.7857
6.64279
2.98557
1.39748
0.703366
0.41958
0.30232
0.254756
0.240986
236.702
45.3629
15.9148
7.22554
3.38594
1.62573
0.825591
0.478959
0.330804
0.268892
0.248723
245.943
50.0907
17.8525
8.18632
4.00037
1.99218
1.03248
0.58734
0.386032
0.297385
0.264093
259.973
56.7219
20.8203
9.69568
4.93272
2.5705
1.37875
0.784194
0.494446
0.356876
0.297078
281.112
65.8351
25.2134
12.0441
6.37675
3.4966
1.96642
1.14626
0.712018
0.486298
0.37411
313.316
78.7388
31.7511
15.7427
8.69724
5.0338
2.99561
1.82934
1.1595
0.77745
0.563871
364.658
98.0109
41.7786
21.712
12.5829
7.70618
4.87731
3.16339
2.10523
1.44846
1.04344
454.142
129.036
58.078
31.7903
19.4007
12.5852
8.47766
5.86516
4.15327
3.01436
2.25318
632.695
193.266
91.151
52.0186
33.1272
22.5404
16.0069
11.7314
8.83071
6.81672
5.39944
1158.61
331.871
173.316
110.801
78.6771
59.0993
45.67
36.6144
30.1842
25.4342
21.6068
169.987
136.851
85.4472
62.2487
41.884
20.0653
8.06512
3.04508
1.18037
0.498286
0.245115
160.948
112.093
76.9307
57.0988
39.9835
21.3955
8.39663
2.57778
0.889419
0.345603
0.159235
104.794
80.8027
60.8886
47.0645
34.234
19.7643
8.23775
2.50383
0.718518
0.254747
0.108258
62.6129
56.4607
44.8678
35.9654
26.9456
16.2697
7.15513
2.27434
0.63041
0.198565
0.0792807
44.4177
38.102
31.9706
26.2752
20.0387
12.3793
5.65287
1.90125
0.545366
0.167864
0.0630209
34.7797
25.6498
22.4665
18.7485
14.3761
8.96566
4.21752
1.50876
0.464457
0.147776
0.054742
27.7686
17.8817
15.8253
13.2409
10.1383
6.35281
3.08512
1.18396
0.398759
0.135437
0.0509949
22.9719
13.1265
11.4065
9.45812
7.21632
4.55585
2.30578
0.958599
0.35561
0.129968
0.0502274
19.5219
10.2294
8.64944
7.06351
5.37612
3.45018
1.83998
0.8312
0.33675
0.130979
0.0518511
17.0206
8.49489
7.03166
5.67485
4.32594
2.85395
1.61044
0.783198
0.339566
0.137875
0.0555013
15.2403
7.52143
6.13591
4.92783
3.78656
2.57995
1.53142
0.788315
0.358098
0.149316
0.060606
13.9245
6.94168
5.63713
4.53829
3.53221
2.48057
1.53326
0.822606
0.385884
0.163869
0.0670679
12.9813
6.59011
5.35436
4.33796
3.42468
2.46842
1.57543
0.872515
0.419686
0.181016
0.0748425
12.2693
6.39161
5.19887
4.23877
3.39084
2.499
1.63873
0.932924
0.459259
0.201236
0.0839128
11.7466
6.26369
5.10611
4.18598
3.38863
2.54701
1.71226
1.00135
0.505239
0.225515
0.0951631
11.4006
6.19793
5.05964
4.1664
3.41024
2.61235
1.80125
1.08442
0.562814
0.256742
0.109583
11.1626
6.2011
5.06772
4.18777
3.46589
2.70962
1.92226
1.19697
0.642391
0.300646
0.129651
11.052
6.26175
5.13138
4.25773
3.57139
2.8612
2.10025
1.36147
0.760233
0.366627
0.159946
11.0519
6.38672
5.26809
4.40488
3.76987
3.11996
2.38802
1.62184
0.946858
0.472127
0.207898
11.1495
6.57737
5.51903
4.70623
4.17568
3.61646
2.90466
2.06843
1.26154
0.651196
0.290602
11.1641
6.75342
6.01452
5.43848
5.18571
4.75633
3.96524
2.91018
1.82774
0.971081
0.442136
13.1207
8.01889
8.087
9.41455
10.587
9.52978
7.09852
4.84151
2.97033
1.58368
0.73432
16.2031
39.2279
42.4546
40.9492
36.029
28.9563
20.2847
11.5365
5.98753
2.94954
1.35285
306.453
182.971
121.363
86.0064
63.6817
48.109
36.1127
24.7782
13.7195
6.51696
2.87991
197.123
102.513
75.9133
59.5163
40.8732
22.6635
10.2771
4.2438
1.75815
0.778952
0.391885
132.411
53.0747
51.4522
52.8163
46.5219
31.9771
16.4459
7.11002
2.99553
1.33173
0.690884
89.9968
33.7366
33.1569
40.5787
45.5895
40.77
25.6577
12.1041
5.26804
2.31195
1.18442
84.5143
31.7983
25.859
29.5917
36.6547
41.2238
34.8796
19.5785
9.31353
4.11614
2.01194
82.1252
32.1207
24.2492
24.8986
29.5829
35.8442
37.2434
28.0591
15.4802
7.1371
3.41773
80.9555
32.2487
23.6413
22.6416
25.2065
30.74
35.8044
32.6135
21.3282
10.924
5.14098
80.6412
32.2545
23.3659
21.3016
22.2128
26.3015
32.4196
34.2702
26.1032
15.263
7.54359
80.7822
32.4171
23.3777
20.4672
20.0452
22.5575
28.1993
33.077
29.0844
18.9522
10.3461
81.8087
32.7548
23.665
20.005
18.5202
19.6166
24.0679
30.1028
30.0435
21.6681
12.8673
83.7379
33.3419
24.2487
19.835
17.5133
17.4874
20.6088
26.7252
29.6097
23.2965
14.7634
86.7828
34.4909
25.1552
19.9139
16.937
16.1141
18.0918
23.5151
28.0986
23.8573
15.8248
91.0818
36.2791
26.3032
20.3123
16.7393
15.3837
16.5635
20.8439
26.5941
23.9318
16.3818
97.1717
38.6812
27.7953
21.0237
16.8349
15.1052
15.7959
18.7543
23.8119
24.5069
16.4273
104.65
41.6925
29.7402
22.0265
17.0802
14.8594
15.08
17.1643
20.5349
22.9616
16.6842
113.769
45.647
32.3614
23.4718
17.5344
14.619
14.2297
15.4818
17.6192
19.4616
17.3089
125.692
50.8931
35.9446
25.5853
18.3439
14.5037
13.4397
14.0296
15.4371
16.9226
16.9087
141.622
57.9742
41.002
28.8378
19.8656
14.7509
12.8751
12.8745
13.7279
14.8898
15.3841
163.588
67.7257
48.5334
34.3387
23.0789
15.9866
12.7647
11.8195
12.0361
12.6941
13.0952
194.307
81.3196
60.5268
44.6263
30.7631
20.7913
15.1837
12.7253
11.9418
11.8671
11.8919
224.456
96.4975
75.7416
58.9758
42.1012
28.8436
20.9453
17.2182
15.8869
15.7599
15.979
235.16
104.054
83.2097
67.0305
50.0943
35.4073
25.6832
20.603
18.4749
17.9016
17.8472
266.762
112.089
88.5272
70.8929
53.8977
39.0633
28.6292
22.5949
19.4749
16.9745
12.2923
346.304
137.515
92.5618
70.069
52.9576
39.4481
29.485
23.4878
19.4667
14.3745
8.66332
792.27
154.975
94.9211
64.461
48.6201
37.3132
29.4971
23.6278
17.4162
10.5714
5.70062
2151.33
698.781
227.377
60.3839
15.5469
4.12172
1.11885
0.313937
0.0970121
0.0375372
0.019872
1260.32
381.924
155.582
51.9347
15.6096
4.60767
1.3247
0.373701
0.110248
0.0392244
0.0194675
933.979
289.307
119.21
50.9033
18.8492
6.13686
1.82773
0.515249
0.145441
0.0467066
0.0210509
760.031
241.71
99.98
46.3785
18.5197
6.43731
1.99676
0.574736
0.162904
0.0519311
0.0228779
638.589
199.247
83.4409
39.8171
16.2058
5.88294
1.924
0.585107
0.173568
0.056355
0.0243998
553.175
164.636
70.0935
33.804
13.8669
5.16378
1.75374
0.559472
0.174418
0.0586727
0.0257852
489.293
139.26
59.7453
28.6163
11.8038
4.45623
1.55337
0.515549
0.168674
0.0592727
0.0265503
438.711
119.844
51.499
24.4386
10.0961
3.8349
1.35949
0.465096
0.158526
0.0580604
0.0273317
400.526
104.999
45.0037
21.1779
8.74142
3.32619
1.19113
0.416846
0.147228
0.0563554
0.0277434
373.299
93.9708
40.0678
18.7296
7.71687
2.93375
1.05609
0.37562
0.13669
0.0544851
0.0276563
352.449
85.5546
36.2454
16.8726
6.9439
2.63571
0.951146
0.342245
0.127577
0.0525413
0.0275239
335.773
78.7274
33.1255
15.4001
6.34272
2.40645
0.869979
0.315912
0.12014
0.0508777
0.0273204
324.796
73.3961
30.6679
14.2765
5.89729
2.23975
0.810863
0.296524
0.114625
0.0496594
0.0272253
319.816
69.7472
28.9002
13.5079
5.60949
2.13547
0.773866
0.284306
0.11124
0.0489827
0.0272989
319.045
67.2568
27.5794
12.9863
5.44268
2.08361
0.756714
0.27899
0.110127
0.0490203
0.0276662
322.497
66.6903
26.9219
12.7871
5.44892
2.11151
0.770034
0.283656
0.112054
0.0500309
0.0284287
330.292
69.1099
27.2986
13.0294
5.7146
2.27872
0.847339
0.313826
0.123328
0.0542913
0.0301856
344.689
73.5455
28.6533
13.7324
6.25507
2.61089
1.01025
0.381555
0.149349
0.0641438
0.0339576
367.93
80.8361
31.3589
15.0948
7.17531
3.1798
1.30866
0.5164
0.20465
0.0858538
0.0421944
404.452
92.2942
36.0792
17.4919
8.68961
4.12625
1.84109
0.781822
0.324621
0.136672
0.0625843
463.244
110.224
43.9095
21.5863
11.2073
5.72533
2.80465
1.31474
0.595684
0.265296
0.120097
564.24
137.828
56.4892
28.4853
15.5015
8.53389
4.61201
2.42038
1.2317
0.610053
0.296893
751.404
183.319
77.5707
40.5273
23.2546
13.793
8.20637
4.82193
2.77696
1.56315
0.860278
1182.36
188.62
94.9948
57.3727
36.8732
24.2089
15.9336
10.4097
6.71582
4.26439
2.66136
2599.8
1712.33
336.417
107.095
28.4593
6.93598
1.68482
0.430814
0.123408
0.0443836
0.0222565
3414.75
2268.05
759.663
243.497
54.6365
13.1563
3.20001
0.768413
0.197925
0.0623534
0.0276943
3021.13
1998.68
867.523
321.04
90.0976
20.7073
5.39028
1.33078
0.328938
0.0934894
0.0374853
2181.1
1651.82
823.453
331.419
105.603
26.8339
7.69048
2.04889
0.517944
0.141791
0.0546928
1468.57
1410.91
746.106
312.281
106.05
30.5169
9.60183
2.7982
0.749315
0.206121
0.0761645
997.718
1252.69
674.489
288.365
101.594
32.1715
10.9622
3.47201
0.994056
0.281169
0.102827
710.136
1135.1
616.426
267.29
96.8799
32.7606
11.8604
4.02816
1.22759
0.36051
0.134204
535.244
1041.74
568.409
248.578
92.1281
33.1006
12.4686
4.47454
1.43812
0.437719
0.162591
430.271
962.586
529.174
232.781
88.1356
33.276
13.1282
4.91701
1.63037
0.510272
0.191493
365.826
891.509
497.059
220.074
85.2887
33.6144
13.8197
5.40007
1.87683
0.59988
0.225276
323.832
821.879
472.709
211.558
84.1868
34.4558
14.6903
5.98661
2.18767
0.722064
0.270382
294.273
760.222
452.791
205.406
84.2158
35.7426
15.7739
6.70747
2.58515
0.893212
0.330203
273.942
707.231
435.761
201.638
85.497
37.6263
17.1821
7.62707
3.10801
1.13799
0.420987
258.49
655.151
421.397
201.039
88.4786
40.3815
19.0856
8.84809
3.81879
1.495
0.567292
246.631
605.966
407.957
202.383
92.7532
44.0053
21.5888
10.4733
4.79838
2.02052
0.807859
237.57
557.936
395.079
205.643
98.5618
48.7525
24.9158
12.684
6.18362
2.8146
1.20713
229.939
509.643
382.062
210.75
106.215
54.9603
29.3844
15.7546
8.19229
4.04158
1.88506
223.584
462.487
367.907
217.001
115.78
62.9854
35.4077
20.0771
11.1622
5.97582
3.0505
218.212
416.654
351.072
223.098
127.173
73.3032
43.6001
26.2596
15.6374
9.08151
5.08441
217.598
376.609
331.227
227.929
140.562
86.9253
55.1728
35.4176
22.5848
14.1743
8.66981
211.726
328.813
302.419
226.564
154.5
104.81
71.877
49.3106
33.5028
22.5182
14.8674
393.471
348.037
276.14
210.411
155.158
113.803
83.2075
60.4784
43.65
31.4294
22.3542
493.403
312.88
281.943
212.227
162.393
123.796
93.0058
68.2771
48.8152
33.9891
22.9798
1550.64
814.612
456.783
276.731
175.468
113.509
73.8298
47.9098
30.8613
19.6633
12.3403
39.8288
35.1716
25.8036
11.8558
2.64843
2.87712
3.64098
4.99332
16.3166
12.7377
13.5012
12.8376
9.36574
5.26662
2.23126
2.12177
7.63839
11.9825
6.06052
7.71323
8.84729
7.60117
4.65873
2.37769
2.36948
7.20719
9.93232
3.20092
4.3232
5.71661
5.80652
4.14609
2.48583
2.76583
6.54201
7.40904
41.9608
42.6823
42.1921
41.0228
42.6434
40.9283
37.735
33.5565
27.0399
11.8859
12.1596
12.5264
13.3805
13.5921
13.4147
12.9594
13.1124
13.1738
5.45213
5.95376
6.49144
6.91406
6.82826
6.49754
6.25168
7.06196
8.77297
2.81173
3.02432
3.34205
3.56857
3.47972
3.3054
3.27197
3.85134
5.34351
0.00901198
0.00829282
0.00834624
0.0133737
0.452216
0.00756576
0.131159
0.00808102
0.00753506
0.00690386
0.453771
0.00811646
0.0101312
0.00512158
0.0146044
0.00728261
0.00550672
0.014486
0.00724557
0.00710667
0.00664936
0.0594526
0.00851949
0.108491
0.00792757
0.0050577
0.00981496
0.123838
1.74479
0.392005
0.00634182
0.00641787
0.00721172
0.00806556
0.0067707
0.00826229
0.0987346
0.00791049
0.00822071
0.00760008
0.231993
0.00809657
0.0966144
0.00849398
0.774877
0.349672
0.0173371
0.458027
0.00691628
0.00729754
0.395918
0.00762061
0.212952
0.0995011
0.00729028
0.00667707
0.057289
0.00764332
1.73708
0.0889176
0.115773
0.169786
0.510887
0.0351111
0.257118
0.00714314
0.388591
0.00710724
0.00829507
0.00688748
0.00519814
0.00706744
0.0196832
0.00753779
0.0998761
0.00705991
0.0806153
0.00827631
0.0571868
1.03847
0.155996
0.026743
0.00793546
0.00837991
0.00695088
0.0198272
3.42318
0.0962118
0.0200356
0.0740426
0.00809199
0.00768039
0.220006
0.00713315
1.01466
0.560965
0.0877163
0.00604988
0.0253481
0.00723152
0.00781245
0.40561
0.00676773
0.00616118
0.0155247
0.0081146
0.00467338
0.00845239
0.0103943
0.0066945
0.00797045
0.00814751
0.00714388
0.00811108
0.0439418
0.00769206
0.00754742
0.0073105
0.00793022
0.00672259
0.00824102
0.00746429
0.00740421
0.00488063
0.317528
0.0077944
0.147661
0.00485337
0.00536303
0.00710027
0.00779994
0.0874195
0.437893
0.00705546
0.00833829
0.00807486
0.0666584
0.0166086
0.411928
0.00733056
0.0993335
0.00662441
0.220563
0.00868289
0.00751315
0.02397
0.0167194
0.00711868
0.0070666
0.00707331
0.00714843
0.00767826
0.0262826
0.00732585
0.00943112
0.0269168
0.029995
0.0430537
0.0056021
0.00746193
0.00548806
0.0337252
0.00706156
0.00771843
0.398635
0.0205129
0.0205796
0.00776347
0.00633527
0.234794
0.00587808
0.00565098
0.00684301
0.00646259
0.00640902
0.00641313
0.00584026
0.0278698
0.797866
0.00695489
0.0071326
0.065868
0.00849854
0.116312
0.00793967
0.0131069
0.00708615
0.00726079
0.00824907
0.0827923
0.0100613
0.00521979
0.00718529
0.199452
0.00832299
0.00759296
0.00740815
0.0262709
0.00760785
0.00856733
0.0261971
0.00726461
0.0105755
0.00700393
0.0083852
0.0916123
0.007125
0.00533376
0.00736872
0.00740424
0.0795317
0.00759432
0.00827093
0.00670429
0.00791728
0.213711
0.00797792
0.0223522
0.00712746
0.0107008
0.0116775
0.00857516
0.0791196
0.0433296
0.00474267
0.00766008
0.0761276
0.0175152
0.00882421
0.154886
0.0421617
0.00713433
0.00712714
0.00751677
0.0266444
1.15383
0.28151
0.00845098
0.00813669
0.00809589
0.0225018
0.0358023
0.00613058
0.134991
0.00718106
0.0397613
0.00800503
0.00762848
0.522923
0.219831
0.00755865
0.0823448
0.0097173
0.00726357
0.00602713
0.00745079
0.00674944
0.00786064
0.0191043
0.00707038
0.00841866
0.0100263
0.00737839
0.00819344
0.00796481
0.0154485
0.00662285
0.0072312
0.0176441
0.00694488
0.219062
0.0072769
0.00724152
0.0163143
0.00755418
0.0073542
0.00513911
0.00775832
0.00692607
0.0193752
0.00712039
0.00827412
0.159322
0.256123
0.00603813
0.00757688
1.6912
0.00823523
0.00683123
0.0895882
0.0083391
0.117581
0.00794683
0.00963406
0.00856462
0.00740124
0.00634443
0.00815855
0.00677757
0.00522866
0.00777501
0.0100191
0.00706618
0.39932
0.00678637
0.00667107
0.00827778
0.0312286
0.0627164
0.00742575
0.0871487
0.00815953
0.00645378
0.0069472
0.0851945
0.00655365
0.00696622
0.0146005
0.00670652
0.00720485
0.00708403
0.0947241
0.00746125
0.00539325
0.0244362
0.00704118
0.00778911
0.00589496
0.00708966
0.252167
0.0071367
0.520648
0.0738705
0.00846584
0.0111938
0.710258
0.0252817
0.00823573
0.00784711
0.00590779
0.0307178
0.0820874
0.00723073
0.0230075
0.197594
0.0320423
0.0690229
0.00753685
0.0859327
0.18398
0.110735
0.00593057
0.00700679
0.00684573
0.0133797
0.00860267
0.0125685
0.0069559
0.00849842
0.253617
0.00986599
0.00528386
0.00800396
0.00799011
0.00726022
0.019508
0.00529258
0.0195589
0.137344
0.00762169
0.00773582
0.109374
0.641537
0.00473902
0.0119239
0.00830917
0.00905216
0.00673252
0.00750991
0.00709153
0.161734
0.00754115
0.0241033
0.00768219
0.00518435
0.322151
0.00977531
0.00472322
0.0381667
0.0235539
0.00771106
0.0535717
0.00467308
0.00802838
0.337183
0.278893
0.00787771
0.00719221
0.00835604
0.0523408
0.018825
0.007647
0.00850891
0.0902873
0.00775379
0.382469
0.0550686
0.0190503
0.00726193
0.0932564
0.00734702
0.00719765
0.00903327
0.00854539
0.0281678
0.00639526
0.0102208
0.00797342
0.00485441
0.0430079
0.273991
0.00618363
0.151234
0.00914561
0.00627843
0.00666917
0.00742445
0.0280842
0.0130591
0.297632
0.00789977
0.0238528
0.00505083
0.00662531
0.00895853
0.0185411
0.192446
0.413977
0.00492199
0.00860007
0.00596289
3.31431
0.032468
0.0100329
0.00696001
0.044186
0.131241
0.0418045
0.00740286
0.0349853
0.00775129
0.00833497
0.00793785
0.032533
0.0197964
0.148835
0.00583634
0.0279345
0.0264775
0.00825565
0.00738801
0.157191
0.00503674
0.00599754
0.00726294
0.141712
0.114949
0.0902243
0.0916646
0.00713236
0.00657105
0.0192254
0.00700921
0.10765
0.00708166
0.00822579
0.00731223
0.0347623
0.0335672
0.00710357
0.00778612
0.00670087
0.0951984
0.0699876
0.00845149
0.0227505
0.247537
0.00941551
0.0228368
0.00740048
0.0270094
0.00758376
0.00706443
0.00764204
0.0062027
0.00659605
0.0071518
0.00535292
0.00853039
0.00721022
0.00563339
0.00586264
0.00806006
0.00806673
0.520744
0.0308338
0.0165557
0.00714833
0.330221
0.00835637
0.265218
0.0163952
0.0253456
0.017608
0.00797009
0.312017
0.0393372
0.00532192
0.00778982
0.00634714
0.00666981
0.00826824
0.00768431
0.00817866
0.0069097
0.159632
0.00798849
0.00744535
0.084683
0.00775005
0.199851
0.00679119
0.0254791
0.00564919
0.0197859
0.00856288
0.00786304
0.00840949
0.169082
0.0346037
0.0079524
0.00791791
0.0048584
0.00834145
0.0330334
0.00830431
0.289911
0.00682724
0.0474104
0.00879862
0.00762428
0.373259
0.278113
0.00681955
0.0066062
0.00703508
0.00829923
0.0182758
0.0391191
0.00721178
0.00751603
0.345273
0.510488
0.00792159
0.00727821
0.0082749
0.134596
0.297386
0.0192991
0.0080766
0.00751962
0.24956
0.00714794
0.00851937
0.00571434
0.0219195
0.35744
0.00772604
0.020541
0.00781706
0.0416399
0.00735275
0.108913
0.00609519
0.00642339
0.0887343
0.0267261
0.00841599
0.00854678
1.01135
0.00763116
0.00615916
0.0114053
0.0467127
0.129577
0.0303479
0.00737202
0.00686817
0.00775522
0.00790566
0.554084
0.0145985
0.012042
0.00711245
0.00795194
0.0445711
0.0070541
0.00717617
0.0071337
0.0070291
0.00804704
0.0147834
0.0476253
0.018122
0.00622288
0.0101345
0.00724191
0.0533592
0.00701562
0.00779985
0.561005
0.119084
0.00755416
0.00756146
0.0639143
0.00672881
0.00737032
0.0194517
0.00830984
0.00686293
0.00971062
0.00934006
0.00828612
0.00486945
0.00570851
0.0400289
0.0555684
0.0281393
0.0305077
0.00627575
0.0211088
0.0350029
0.00861676
0.008363
0.00684103
0.0252834
0.00607611
0.00699153
0.00729348
0.00507517
0.0972073
0.473552
0.00608535
0.00703853
0.00769918
0.0119901
0.00812146
0.00722414
0.00694597
0.0128275
0.00697764
0.00718261
0.0069351
0.00825034
0.0163429
0.055296
0.151041
0.00701356
0.00704012
0.00754951
0.0706507
0.00716588
0.131476
0.00712302
0.0754106
0.0682858
0.0077202
0.0227563
0.0084953
0.00697263
0.016841
0.00816197
0.497973
0.00555806
0.00665844
0.00841667
0.0126972
0.00506074
0.033608
0.14613
0.00750767
0.00641417
0.00840307
0.00784511
0.00695985
0.020213
0.00812434
0.00764099
0.0076066
0.00992487
0.0340332
0.00816271
0.00767958
0.00750673
0.0162142
0.00563052
0.00649275
0.012924
0.106893
0.00986703
0.00636612
0.00632401
0.00815826
0.0358452
0.0064918
0.139055
0.00784175
0.00660313
0.00791629
0.00713755
0.0816217
0.0141903
0.0282573
0.00510777
0.00716291
0.00685182
0.00669565
0.0249298
0.00823726
0.2991
0.0808192
0.281088
0.00667525
0.0102589
0.0784014
0.132202
0.00749104
0.00849463
0.0337521
0.0125372
0.00802934
0.00530743
0.309246
0.00811353
0.176709
0.00924744
0.00747679
0.0777425
0.0075524
0.00705223
0.00682504
0.00776122
0.00715256
0.00476081
0.00818408
0.00701724
0.00705343
0.00935532
0.0313861
0.105015
0.0097975
0.0072228
0.16865
0.324229
0.00782589
0.0047985
0.00710766
0.0544597
0.00979337
0.044977
0.00786457
0.0446101
0.00884738
0.00883342
0.00719962
0.00693067
0.0076646
0.0619841
0.0574597
0.00860545
0.00789709
0.0073861
0.261367
0.105991
0.00733728
0.00818868
0.00675837
0.00799359
0.00813554
0.00821705
0.00837659
0.00788701
0.00718307
0.00565623
0.0505673
0.0892905
0.00493739
0.00830119
0.00769489
0.00793668
0.00671503
0.185964
0.00827315
0.0063541
0.00758168
0.287279
0.096234
0.0335797
0.00778715
0.0454711
0.00770854
0.00783339
0.281267
0.00714993
0.00815075
0.00726676
0.0193664
0.00602274
0.00593043
0.00813804
0.0106165
0.140616
0.0252782
0.00814629
0.00454141
0.0643908
0.0330117
0.03924
0.00842807
0.00717892
0.0154026
0.0132728
0.0473732
0.00829223
0.0069366
0.00728526
0.00733062
0.00824011
0.130575
0.00627639
0.178981
0.203962
0.0854704
0.0080913
0.473112
0.00853052
0.00711588
0.00728729
0.00790347
0.00766213
0.00769043
0.0141372
0.198211
0.026609
0.00765013
0.0385666
0.00767793
0.00860037
0.0072906
0.00754511
0.00741499
0.00793237
0.00814474
0.00715301
1.39983
0.00754504
0.00713258
0.0136483
0.159132
0.0071116
0.00796478
0.0191986
1.09498
0.00704743
0.00776244
0.010702
0.03094
0.00846194
0.00808765
0.00700687
0.00860618
0.048187
0.00826904
0.0824861
0.0096779
0.0567448
0.0082232
0.00820742
0.00613362
0.028854
0.00776212
0.00748138
0.00716558
0.00831198
0.00605295
0.232288
0.00659147
0.0243365
0.294338
0.0542848
0.00605101
0.0428567
0.00851022
0.00813807
0.00514052
0.00863313
0.00599719
0.00762525
0.287162
0.00716959
0.0102172
0.00730243
0.00462324
0.0055454
0.0206053
0.00722296
0.00694287
0.00804574
0.271754
0.0595613
0.168136
0.00713804
0.00960467
0.0070973
0.00776854
0.259223
0.00753498
0.00830088
0.00609929
0.266916
0.0321454
0.0398427
0.00575388
0.00526129
0.209804
0.479103
0.00801871
0.00726908
0.2001
0.00759657
0.0159499
0.00791679
0.0560227
0.00835574
0.0180088
0.00830303
0.00741072
0.0084505
0.0076554
0.0103214
0.00964133
0.00710544
0.00780234
0.00716569
0.0100469
0.00925936
0.0400255
0.00705284
0.00685274
0.362957
0.0211693
0.0456401
0.00832411
0.0221539
0.0074887
0.00827568
0.0265962
0.00646245
0.0979683
0.36506
0.00610445
0.0129608
0.00653353
0.00739767
0.0167363
0.0127272
0.00704949
0.025858
0.00813133
1.0012
0.0191769
0.490984
0.00812973
0.0208526
0.0128582
0.315839
0.00772664
0.00557147
0.00855525
0.00450008
0.118024
0.00815328
0.00890331
0.166414
0.0255832
0.18474
0.00774817
0.00780252
0.00734912
0.0446631
0.00702177
0.200214
0.0119367
0.0246961
0.312994
0.00827517
0.0152836
0.0323699
0.0293771
0.0543364
0.0448238
0.0075625
0.0114619
0.0048932
0.00810311
0.00787087
0.00856643
0.0823933
0.00664256
0.0083144
0.00554161
0.0712695
0.00482041
0.0080218
0.10282
0.0139591
0.00689527
0.0105377
0.00813489
0.00705529
0.0073355
0.185149
0.00716611
0.122043
0.00617428
0.0244657
0.00796638
0.00695138
0.00796311
0.00752516
0.0220682
0.155136
0.0970159
0.656851
0.28689
0.500591
0.00682449
0.00724178
0.0102632
0.00838707
0.00584577
0.201305
0.00687551
0.119842
0.00611671
0.228776
0.00692619
0.00476928
0.00811986
0.274152
0.00862578
0.478062
0.00651551
0.00781457
0.045707
0.0507042
0.00688518
0.0242017
0.0666498
0.047614
0.0982967
0.0199355
0.229467
0.00702738
0.00826
0.352058
0.0170188
0.00832551
0.00628785
0.0072014
0.00503559
0.0052636
0.0108182
0.00772874
0.0160004
0.654336
0.00751414
0.00713884
0.00729904
0.00818371
0.0100524
0.00543136
0.00694424
0.00556089
0.380044
0.00719508
0.617854
0.0710575
0.00775639
0.190006
0.0514761
0.016423
0.0069235
0.0549093
0.00768498
0.00804427
0.321563
0.00750464
0.00824125
0.00566318
0.00809738
0.0071386
0.247199
0.00769691
0.626714
0.0135809
0.0305887
0.00722904
0.0124233
0.0815313
0.00610283
0.299541
0.00776812
0.0119916
0.0697311
0.00716207
0.0196362
0.0304071
0.0140681
0.00747249
0.0340001
0.0352525
0.00644499
0.00732492
0.0262539
0.0069501
0.0188618
0.0247303
0.360099
0.00712778
0.00860406
0.00797633
0.00627283
0.0084217
0.00474499
0.0367564
1.44345
0.00825028
0.0240075
0.0280448
0.00819623
0.0342164
0.00709979
0.00703723
1.95414
0.0366904
0.365885
0.169198
0.00815454
0.00792962
0.0219314
0.224842
0.109466
0.240674
0.00494072
0.00816619
0.00714846
0.00615634
0.101714
0.0472524
0.00853925
0.00737686
0.0278322
0.0963366
0.0386217
0.00682148
0.088248
0.225294
0.00638431
0.00560327
0.00725435
0.00720323
0.218458
0.00538476
0.00806519
0.0151202
0.00772965
0.0065298
0.380606
0.0113611
0.0102589
0.0326582
0.0204521
0.00751589
0.175899
0.0197094
0.00836008
0.00456863
0.0263204
0.00660484
0.182747
0.00807006
0.00768071
0.00695753
0.119447
0.0063702
0.00745709
0.0384478
0.00833636
0.00814374
0.00859551
0.00508509
0.00771178
0.0260926
0.0189277
0.00814905
0.466416
0.0363939
0.0073515
0.0313124
0.00816858
0.0051496
0.0322796
0.0080155
0.00815957
0.00788097
0.00743605
0.00793789
0.00716832
0.00811787
0.0507438
0.0956247
0.00609198
0.0535125
0.00690117
0.0202579
0.018582
0.00855503
0.0067707
0.0159038
0.00487684
0.00674472
0.00587549
0.00667666
0.00680424
0.00794831
0.0378457
0.0635232
0.0240705
0.0848287
0.0085936
0.0146779
0.180194
0.016043
0.0125944
0.00758973
0.0336932
0.194691
0.184941
0.0046993
0.0116275
0.0319324
0.00657545
0.00796145
0.9748
0.00495978
0.00671174
0.0263806
0.0251713
0.00584387
0.0124126
0.0150032
0.00448462
0.57325
0.934319
0.00790046
0.00712297
0.144165
0.168588
0.0104526
0.00811232
0.00633209
0.00839127
0.00730563
0.0822437
0.00761556
0.00845613
0.137989
0.00998028
0.00726849
0.00770543
0.00758936
0.00678949
0.00857959
0.00714578
0.0114619
0.00703876
0.00879628
0.00803089
0.0287941
0.00817933
0.102217
0.00769804
0.0209379
0.00837604
0.00770929
0.0604169
0.273656
0.00706157
0.00781729
0.00766502
0.0132925
0.00826483
0.00863481
0.00779376
0.0073897
0.00621406
0.00727035
0.0307739
0.00512574
0.0599754
0.00847909
0.0121056
0.0078868
0.00670752
0.00738554
0.00836889
0.0080262
0.22205
0.00717288
0.01715
0.00789839
0.00800475
0.466845
0.00844714
0.00855182
0.136743
0.254701
0.0182261
0.00754262
0.0199045
0.00788807
0.203524
0.00850728
0.0245571
0.00735959
0.00620182
0.0266565
0.00764784
0.0321271
0.00713931
0.0153439
0.0245223
0.00732757
0.00716731
0.00726859
0.131292
0.0196313
0.00493069
0.0506426
0.00642414
0.00597268
0.00840116
0.0104277
0.0296904
0.00751207
0.00811804
0.0952906
0.00702617
0.00691731
0.00684607
0.00541243
0.00789825
0.0268161
0.029909
0.00684733
0.01788
0.00798043
0.007567
0.00702712
0.985238
0.00945164
0.00710744
0.0780966
0.0321511
0.00820172
0.00706703
0.0289676
0.010574
0.00663764
0.00714565
0.0105437
0.0362005
0.0075503
0.00693937
0.0746953
0.00714726
0.00830089
0.00729589
0.00687918
0.00808725
0.0218715
0.00763131
0.0635118
0.00635996
0.0134033
0.00812748
0.00498427
0.0294773
0.00690442
0.0125419
0.0076446
0.0071801
0.0392429
0.0136534
0.00550814
0.00845501
0.00713634
0.32435
0.00798244
0.00707796
2.38493
0.00675933
0.00709384
0.00715905
0.00707376
0.00644832
0.00633922
0.014632
0.00513471
0.0160702
0.00709424
0.00761163
0.0150446
0.00455092
0.00748368
0.00647312
0.00563477
0.00728218
0.289112
0.0085573
0.0237808
0.00747806
0.00687746
0.00586763
0.00700465
0.0126111
0.0079571
0.00721326
0.00670088
0.00756601
0.00836458
0.0486163
0.0712808
0.013342
0.0107768
0.0890411
0.00685309
0.00757639
0.00745261
0.220683
0.00729841
0.00668281
0.328961
0.00717492
0.253713
0.156689
0.00701073
0.00810084
0.00675686
0.00533541
0.00494172
0.00696667
0.00805968
0.0142571
0.0372534
0.00455722
0.03474
0.00782238
0.0616599
0.0297237
0.988772
0.010414
0.0112948
0.00463514
0.00828595
0.00684972
0.02377
0.00790368
0.0109935
0.00505603
0.0148898
0.00522195
0.0519234
0.0221288
0.0226028
0.209735
0.00780887
0.325851
0.0101954
0.00658922
0.00597298
0.00963312
0.00840214
0.599092
0.00781856
0.11906
0.287231
0.00506046
0.337664
0.052338
0.148281
0.00736329
0.00723204