/*--------------------------------*- C++ -*----------------------------------*\
| =========                 |                                                 |
| \\      /  F ield         | OpenFOAM: The Open Source CFD Toolbox           |
|  \\    /   O peration     | Version:  3.0.1                                 |
|   \\  /    A nd           | Web:      www.OpenFOAM.org                      |
|    \\/     M anipulation  |                                                 |
\*---------------------------------------------------------------------------*/
FoamFile
{
    version     2.0;
    format      ascii;
    class       volScalarField;
    location    "0.036454";
    object      p;
}
// * * * * * * * * * * * * * * * * * * * * * * * * * * * * * * * * * * * * * //

dimensions      [0 2 -2 0 0 0 0];

internalField   nonuniform List<scalar> 
21246
(
2.98099
1.59246
1.27349
1.25576
1.38246
1.57474
1.69335
1.73165
1.69993
1.63475
1.65351
10.8033
8.55524
6.69118
5.39145
4.51265
3.92572
3.50793
3.17334
2.87181
2.60321
2.44056
11.0916
10.5143
9.3629
8.15289
7.01133
6.02952
5.21806
4.55225
3.98743
3.49718
3.13056
10.1052
10.1303
9.74106
9.08562
8.24526
7.35697
6.47304
5.65025
4.9131
4.27972
3.82259
9.30796
9.50292
9.39321
9.12282
8.63045
7.97063
7.20522
6.4135
5.65373
4.9783
4.46873
8.68228
8.9584
8.95194
8.86341
8.6056
8.17878
7.60596
6.93377
6.21691
5.52152
4.94742
8.09991
8.36428
8.41627
8.44181
8.35365
8.10844
7.69829
7.14831
6.50488
5.83679
5.2443
7.58043
7.77904
7.8497
7.90848
7.89634
7.76727
7.49281
7.07262
6.53332
5.94031
5.41
7.09747
7.25988
7.31818
7.3754
7.38682
7.31412
7.12566
6.80705
6.3659
5.85027
5.37035
6.62104
6.77169
6.82043
6.86946
6.88341
6.83289
6.69053
6.43871
6.0744
5.62924
5.19787
6.20376
6.32705
6.35726
6.39089
6.39578
6.34881
6.22754
6.01546
5.70502
5.31927
4.95649
5.87055
5.93816
5.93373
5.93981
5.924
5.86697
5.74989
5.55855
5.2844
4.94316
4.62153
5.51682
5.54783
5.51874
5.4983
5.45766
5.38271
5.25872
5.07495
4.82458
4.51951
4.23846
5.11649
5.13296
5.0898
5.04676
4.98118
4.88462
4.74701
4.5621
4.32585
4.04617
3.79911
4.77334
4.73829
4.6578
4.58057
4.48356
4.36029
4.204
4.01321
3.78858
3.53677
3.322
4.38944
4.305
4.19169
4.07931
3.94718
3.79304
3.61504
3.41747
3.20651
2.98789
2.81877
3.91641
3.80146
3.66593
3.51948
3.34964
3.16174
2.96194
2.76169
2.57313
2.39877
2.27991
3.43986
3.26226
3.08245
2.88696
2.66933
2.44337
2.22437
2.03296
1.88487
1.77801
1.73223
2.9032
2.64517
2.40785
2.14532
1.86649
1.60038
1.37608
1.21947
1.14174
1.1278
1.17743
2.25084
1.89168
1.58344
1.2403
0.893392
0.596739
0.396224
0.316031
0.349644
0.458473
0.609311
1.43589
0.942648
0.538884
0.0992894
-0.311222
-0.602894
-0.7202
-0.65977
-0.463734
-0.19771
0.0807754
0.420948
-0.329432
-0.836839
-1.376
-1.80604
-2.00516
-1.93895
-1.65697
-1.24949
-0.8043
-0.391339
-1.46938
-2.03294
-2.71746
-3.28428
-3.58445
-3.52853
-3.15698
-2.58919
-1.94916
-1.32641
-0.786052
-0.637954
-4.10515
-4.85517
-5.23553
-5.21464
-4.79781
-4.1077
-3.29783
-2.47943
-1.72691
-1.1081
-18.5659
-8.17597
-4.25748
-2.57002
-1.24049
-0.354614
0.111399
0.413706
0.586734
0.662784
0.776779
-18.6398
-13.1044
-10.112
-7.61172
-5.14687
-3.27837
-2.03534
-1.2166
-0.721659
-0.415447
-0.138362
-12.3866
-12.5836
-12.0112
-10.4762
-8.4237
-6.37521
-4.6155
-3.26348
-2.31559
-1.67665
-1.18274
-11.5271
-11.6383
-11.6058
-11.1432
-10.1358
-8.67799
-7.01006
-5.42581
-4.12814
-3.14793
-2.36187
-11.8101
-11.7054
-11.5538
-11.384
-10.9917
-10.1926
-8.96038
-7.47696
-6.01749
-4.76567
-3.70723
-12.3378
-12.2367
-12.0355
-11.8468
-11.7046
-11.3664
-10.6057
-9.40015
-7.94395
-6.50272
-5.20021
-13.0544
-13.0246
-12.8902
-12.7199
-12.6513
-12.5727
-12.1904
-11.2994
-9.9368
-8.3504
-6.80041
-13.8878
-13.9512
-13.9071
-13.8912
-13.8699
-13.9554
-13.8651
-13.2715
-12.0404
-10.3444
-8.45992
-14.7743
-14.944
-14.9928
-15.1419
-15.3394
-15.5661
-15.715
-15.3748
-14.2662
-12.4787
-10.3512
-15.6053
-15.9096
-16.0685
-16.4126
-16.8678
-17.3364
-17.7321
-17.5924
-16.5575
-14.6102
-12.1192
-16.1878
-16.7658
-17.0168
-17.5531
-18.2486
-19.0541
-19.7006
-19.7729
-18.7837
-16.6334
-13.7562
-16.7028
-17.3739
-17.6937
-18.4168
-19.3281
-20.4052
-21.3442
-21.6811
-20.6977
-18.3058
-15.0458
-16.9472
-17.6059
-18.1071
-18.9139
-19.9642
-21.2054
-22.4286
-22.9645
-21.9381
-19.2976
-15.4716
-16.8223
-17.4746
-18.0877
-18.9558
-20.0701
-21.3673
-22.6786
-23.1913
-22.1709
-19.3792
-15.1851
-16.3481
-16.9157
-17.5536
-18.4227
-19.5273
-20.784
-21.9443
-22.3315
-21.2299
-18.3673
-14.1163
-15.4174
-15.8436
-16.4322
-17.2454
-18.2827
-19.419
-20.3364
-20.4893
-19.1605
-16.2238
-12.2466
-13.9511
-14.2377
-14.7558
-15.5106
-16.4721
-17.4509
-18.073
-17.8544
-16.2785
-13.312
-9.53273
-11.9806
-12.2069
-12.7255
-13.5042
-14.4533
-15.2991
-15.6036
-14.93
-13.0556
-10.1528
-6.78011
-9.78238
-10.1454
-10.8471
-11.7738
-12.7612
-13.4776
-13.4482
-12.2949
-10.0405
-7.12005
-4.20805
-8.16022
-8.89018
-9.90526
-11.0156
-12.0611
-12.6825
-12.3251
-10.6811
-8.01426
-5.05582
-2.22888
-8.013
-9.0612
-10.3097
-11.5552
-12.6223
-13.1028
-12.2571
-9.92578
-6.90261
-3.87651
-1.27018
-8.62236
-10.2169
-11.8429
-13.2439
-14.2178
-13.7275
-11.2734
-8.43129
-5.6702
-3.21306
-1.41808
-11.4728
-14.7941
-14.8799
-14.215
-12.873
-10.9101
-8.47018
-6.19393
-4.22515
-2.59206
-1.41793
-19.1462
-12.8813
-10.611
-9.41014
-8.14993
-6.76143
-5.3719
-4.09931
-2.96769
-1.99555
-1.30977
16.8544
15.6052
13.6604
11.5865
9.44655
7.58521
6.06826
4.85234
3.86371
3.08343
2.59005
-7.46064
2.15492
4.68461
6.42839
6.45707
5.78687
4.88866
4.02056
3.23592
2.58191
2.13745
-20.2178
-9.9713
-6.55941
-1.57253
0.93216
2.37408
2.58155
2.51933
2.21494
1.87036
1.62396
-22.6636
-16.283
-14.1501
-8.39067
-5.02728
-2.1054
-0.46
0.40465
0.760104
0.863007
0.884969
-20.9253
-17.58
-16.8088
-12.1072
-9.29888
-5.89342
-3.55395
-1.91355
-0.920346
-0.331512
0.0445324
-18.5188
-16.5494
-16.4352
-13.0874
-11.2974
-8.16096
-5.88171
-3.87756
-2.49116
-1.52275
-0.845218
-16.0882
-14.8453
-14.9237
-12.5211
-11.558
-8.97755
-7.14037
-5.17363
-3.66931
-2.49929
-1.61314
-13.5989
-12.9178
-13.0575
-11.2995
-10.8296
-8.79842
-7.4692
-5.74255
-4.34742
-3.15062
-2.1951
-11.3621
-11.0765
-11.0882
-9.87051
-9.6106
-8.06977
-7.1467
-5.71972
-4.54728
-3.44286
-2.50921
-9.5986
-9.35297
-9.24227
-8.43139
-8.21538
-7.0907
-6.43444
-5.30763
-4.37528
-3.42134
-2.57418
-7.84581
-7.65332
-7.55205
-6.99776
-6.81778
-6.00696
-5.53515
-4.67153
-3.95468
-3.176
-2.4749
-6.06
-5.95763
-5.93277
-5.57363
-5.46467
-4.89578
-4.56973
-3.928
-3.39149
-2.77639
-2.21315
-4.65125
-4.53064
-4.51199
-4.27411
-4.2163
-3.82968
-3.61629
-3.15638
-2.76687
-2.29738
-1.85692
-3.58688
-3.40448
-3.35967
-3.17833
-3.13604
-2.87245
-2.73452
-2.41449
-2.13977
-1.7964
-1.47804
-2.60914
-2.4138
-2.38116
-2.24916
-2.2208
-2.04346
-1.95388
-1.73536
-1.54527
-1.30136
-1.07183
-1.85994
-1.64303
-1.60865
-1.50479
-1.47772
-1.35309
-1.28664
-1.13419
-1.00151
-0.834623
-0.684031
-1.35737
-1.11796
-1.06566
-0.965079
-0.916621
-0.806856
-0.734846
-0.614055
-0.51445
-0.403894
-0.309603
-0.992453
-0.752962
-0.685698
-0.579678
-0.500481
-0.37872
-0.279574
-0.163439
-0.0792763
-0.0117688
0.0265631
-0.757038
-0.524541
-0.432824
-0.312228
-0.189663
-0.034307
0.105835
0.23418
0.311877
0.344014
0.329141
-0.60338
-0.377726
-0.259917
-0.111774
0.0594965
0.26089
0.446234
0.591273
0.66321
0.66766
0.62194
-0.470203
-0.248292
-0.109173
0.0682767
0.287935
0.537804
0.757095
0.906833
0.965087
0.949614
0.902929
-0.307742
-0.109772
0.0578656
0.269241
0.536908
0.815935
1.03388
1.15295
1.17603
1.13371
1.06471
-0.24197
0.077728
0.272634
0.542614
0.853566
1.1146
1.2695
1.32545
1.31861
1.33805
1.66664
0.536035
0.575008
0.826467
1.12549
1.31084
1.38649
1.3584
1.25192
1.11381
0.976971
1.15018
27.1902
22.6666
17.8907
13.7934
10.6729
8.46561
6.77903
5.42041
4.30252
3.41305
2.8093
13.9545
16.7327
16.2709
14.8079
12.2387
9.7623
7.61631
5.89997
4.56463
3.55771
2.90699
1.24254
7.70686
9.75124
11.0372
10.5641
9.12591
7.50517
5.96005
4.64454
3.62597
2.95394
-6.61645
-0.498905
2.05725
5.20261
6.67631
6.90013
6.26385
5.29286
4.2687
3.39692
2.80881
-10.3464
-5.822
-3.85581
-0.275713
2.02839
3.53599
3.97944
3.82808
3.33658
2.78749
2.38851
-11.84
-8.56643
-7.343
-4.14282
-1.88544
0.170873
1.35833
1.93345
2.02053
1.87606
1.7181
-12.3121
-9.78085
-9.08647
-6.39275
-4.61373
-2.45339
-0.986667
0.0448973
0.593314
0.826158
0.923518
-12.2163
-10.1932
-9.89073
-7.49542
-6.3145
-4.22797
-2.78604
-1.55304
-0.71415
-0.187062
0.130696
-12.0531
-10.2491
-10.256
-8.01042
-7.18079
-5.38588
-4.03763
-2.75825
-1.78114
-1.05567
-0.544282
-11.931
-10.3572
-10.1644
-8.45057
-7.5658
-6.04946
-4.83114
-3.58879
-2.57461
-1.74921
-1.08905
-11.7294
-10.5122
-9.98704
-8.63402
-7.74384
-6.39242
-5.28459
-4.10789
-3.11061
-2.25934
-1.54034
-11.3245
-10.3133
-9.76189
-8.57709
-7.73574
-6.50605
-5.4865
-4.37895
-3.42183
-2.57678
-1.84411
-10.9273
-9.95944
-9.43766
-8.3475
-7.55851
-6.42491
-5.48223
-4.44348
-3.53945
-2.72483
-1.98859
-10.5717
-9.55601
-9.04016
-7.99896
-7.24474
-6.18584
-5.30548
-4.33501
-3.49134
-2.73077
-2.05121
-9.97473
-9.01258
-8.53919
-7.54707
-6.81586
-5.82022
-4.98585
-4.08169
-3.30007
-2.59721
-1.99038
-9.33657
-8.39917
-7.95009
-6.99825
-6.27852
-5.33746
-4.5384
-3.69871
-2.98318
-2.34285
-1.80544
-8.70145
-7.74646
-7.28841
-6.36094
-5.635
-4.73956
-3.97148
-3.20101
-2.55071
-1.98602
-1.52043
-7.9686
-7.00326
-6.52932
-5.62256
-4.87839
-4.02354
-3.28979
-2.5964
-2.02516
-1.55153
-1.16668
-7.13452
-6.15399
-5.65096
-4.76153
-3.99535
-3.18419
-2.50434
-1.90123
-1.43059
-1.06568
-0.778554
-6.20328
-5.18696
-4.6312
-3.75556
-2.97722
-2.23132
-1.62625
-1.14356
-0.797312
-0.553916
-0.36953
-5.13663
-4.05342
-3.427
-2.58096
-1.82779
-1.18426
-0.702937
-0.368391
-0.162722
-0.0450366
0.0335588
-3.85302
-2.66954
-1.99516
-1.24584
-0.597873
-0.11571
0.200919
0.372155
0.436908
0.439265
0.425792
-2.30328
-1.04348
-0.442529
0.081083
0.52933
0.826215
0.971384
0.9958
0.943381
0.857933
0.817515
-0.334989
0.682527
1.00486
1.23768
1.4537
1.56734
1.57421
1.51709
1.4172
1.24859
0.98033
-17.1029
-8.66209
-5.31217
-3.50023
-2.40038
-1.7409
-1.30579
-1.01511
-0.826356
-0.693298
-0.555128
-23.8741
-15.1848
-11.6557
-8.56814
-5.94316
-4.15799
-3.0158
-2.28055
-1.78493
-1.44287
-1.17121
-18.4361
-16.2392
-14.6444
-12.0238
-9.17043
-6.79001
-5.012
-3.75053
-2.86962
-2.25324
-1.77814
-13.9074
-14.0532
-13.864
-12.5847
-10.6491
-8.55501
-6.63968
-5.09143
-3.92947
-3.07646
-2.4161
-11.5828
-12.0133
-12.0586
-11.6063
-10.6009
-9.15156
-7.5244
-6.00967
-4.75343
-3.77254
-2.98218
-10.4444
-10.6212
-10.6601
-10.472
-9.94455
-8.99743
-7.75517
-6.44704
-5.25109
-4.2509
-3.41453
-9.72803
-9.71149
-9.71576
-9.59859
-9.23844
-8.56533
-7.61021
-6.5199
-5.44733
-4.49455
-3.66242
-9.12319
-9.00927
-9.00424
-8.88579
-8.59554
-8.06117
-7.28684
-6.36577
-5.41796
-4.54008
-3.76
-8.52847
-8.36667
-8.36551
-8.22671
-7.97264
-7.5239
-6.867
-6.06763
-5.22403
-4.42449
-3.69395
-7.96626
-7.78572
-7.74023
-7.58887
-7.36308
-6.96792
-6.39213
-5.68728
-4.93353
-4.20566
-3.5292
-7.43888
-7.23954
-7.14907
-6.99521
-6.77322
-6.40482
-5.88608
-5.25497
-4.57787
-3.91971
-3.31057
-6.94355
-6.7194
-6.60259
-6.42202
-6.19275
-5.84133
-5.3675
-4.79818
-4.18864
-3.59295
-3.03139
-6.47399
-6.22493
-6.09283
-5.88639
-5.64447
-5.30922
-4.86409
-4.34653
-3.79694
-3.26117
-2.76174
-6.04224
-5.77349
-5.62772
-5.408
-5.15128
-4.82135
-4.40775
-3.92865
-3.43056
-2.94646
-2.48722
-5.65557
-5.37165
-5.21698
-4.98599
-4.72145
-4.39678
-4.00458
-3.56456
-3.10961
-2.67071
-2.24959
-5.3121
-5.02121
-4.86498
-4.62869
-4.36483
-4.04612
-3.67328
-3.26495
-2.84702
-2.44801
-2.06914
-5.016
-4.72744
-4.5767
-4.34248
-4.0832
-3.7729
-3.4192
-3.03791
-2.65106
-2.28049
-1.91866
-4.76881
-4.48947
-4.34984
-4.12223
-3.87043
-3.57315
-3.23923
-2.88263
-2.52256
-2.17575
-1.8371
-4.56531
-4.30305
-4.17835
-3.9605
-3.72128
-3.44046
-3.12669
-2.79474
-2.46141
-2.13829
-1.81976
-4.40231
-4.16482
-4.0563
-3.85294
-3.62854
-3.36473
-3.07297
-2.76961
-2.46723
-2.16946
-1.86163
-4.28055
-4.07393
-3.98036
-3.79374
-3.58068
-3.33421
-3.07076
-2.80562
-2.54354
-2.27863
-1.98834
-4.18671
-4.02884
-3.94672
-3.76039
-3.55474
-3.3319
-3.11009
-2.8981
-2.68996
-2.47277
-2.21634
-4.15759
-4.10027
-3.93315
-3.73866
-3.5563
-3.3866
-3.23651
-3.09724
-2.95609
-2.80909
-2.63525
-4.73066
-3.66179
-3.63017
-3.51194
-3.38063
-3.27142
-3.16458
-3.05304
-2.94812
-2.84094
-2.68615
7.59395
3.49372
1.41277
0.502528
0.176701
0.0875259
0.0690523
0.0530229
0.0235863
-0.00346731
-0.00270596
12.3667
10.1545
7.55475
5.32999
3.66173
2.53596
1.80466
1.31674
0.968766
0.719198
0.57761
10.7259
10.5932
9.47789
7.90464
6.21358
4.69666
3.48546
2.58042
1.91149
1.41577
1.10322
8.78057
9.2333
9.0158
8.3049
7.1975
5.92189
4.67934
3.6002
2.72709
2.04441
1.58906
7.15926
7.8204
7.89859
7.67886
7.11005
6.23565
5.21023
4.20019
3.29381
2.5302
1.96801
5.8113
6.48959
6.70139
6.76608
6.5327
6.00337
5.26318
4.4131
3.56587
2.80559
2.23063
4.66919
5.29578
5.51684
5.7279
5.73814
5.49565
5.00239
4.34112
3.61611
2.9224
2.38475
3.72568
4.27623
4.44193
4.70419
4.82306
4.76639
4.50213
4.05778
3.491
2.88979
2.3887
2.90142
3.40963
3.49064
3.7853
3.92734
3.96613
3.85216
3.57947
3.17312
2.69517
2.25535
2.16306
2.59635
2.70128
2.9432
3.10302
3.18983
3.16517
3.01454
2.74386
2.39412
2.05068
1.48834
1.82977
1.97435
2.19037
2.35173
2.46265
2.49226
2.42524
2.25636
2.00883
1.77602
0.898238
1.18036
1.31262
1.50794
1.66469
1.78694
1.85034
1.84125
1.74924
1.58047
1.41768
0.344283
0.595053
0.712033
0.888612
1.03726
1.16325
1.24746
1.27896
1.24709
1.15149
1.05258
-0.190449
0.0510601
0.160521
0.324046
0.464228
0.58974
0.686174
0.745431
0.757905
0.716628
0.664056
-0.627164
-0.423937
-0.334691
-0.187775
-0.0588043
0.0627957
0.1655
0.24329
0.288426
0.290757
0.269874
-1.02865
-0.856522
-0.784048
-0.653643
-0.536673
-0.421198
-0.316212
-0.226408
-0.15756
-0.118756
-0.101006
-1.41333
-1.26195
-1.19849
-1.08168
-0.97483
-0.865524
-0.760025
-0.662154
-0.576475
-0.509826
-0.461705
-1.75536
-1.62957
-1.57691
-1.47443
-1.37673
-1.27306
-1.16757
-1.06384
-0.96619
-0.881058
-0.814372
-2.0602
-1.96274
-1.92173
-1.8338
-1.74408
-1.64497
-1.53943
-1.43131
-1.32447
-1.22255
-1.13279
-2.34096
-2.27015
-2.23841
-2.16235
-2.07765
-1.981
-1.87524
-1.76444
-1.6518
-1.53817
-1.42566
-2.59775
-2.55214
-2.52702
-2.45814
-2.37465
-2.27901
-2.17431
-2.06423
-1.95117
-1.83456
-1.71309
-2.82322
-2.80225
-2.77637
-2.70811
-2.62524
-2.53376
-2.43495
-2.33103
-2.22402
-2.11142
-1.98389
-3.06685
-3.0206
-2.98063
-2.91549
-2.84172
-2.76182
-2.67375
-2.57903
-2.48175
-2.37895
-2.25529
-2.95715
-2.98873
-2.97272
-2.9522
-2.9255
-2.88525
-2.82894
-2.75909
-2.68374
-2.5964
-2.45482
-6.00245
-4.28431
-0.891817
1.82636
2.93775
3.01009
1.49754
-1.42654
-4.33542
-4.22519
-2.87885
-0.53094
1.60757
2.56942
2.57506
1.3508
-0.951015
-2.96103
-3.84896
-2.65163
-0.436194
1.36875
2.21648
2.19998
1.15884
-0.786617
-2.80995
-3.12125
-2.13015
-0.396511
1.11974
1.85944
1.83146
0.91236
-0.644933
-2.14623
-5.2509
-2.92673
-2.00916
-1.64711
-1.75691
-1.97606
-2.86771
-4.83895
-5.78691
-3.75734
-2.43876
-2.0591
-1.72185
-1.76901
-1.92634
-2.36166
-3.56571
-4.07629
-3.4475
-2.2422
-1.99209
-1.70683
-1.74256
-1.80442
-2.25499
-3.30192
-3.69623
-3.00127
-2.00003
-1.79365
-1.64763
-1.6408
-1.5951
-2.08309
-2.85185
-3.00453
0.905705
1.2078
1.21488
-0.0211994
-0.0872718
1.51086
-0.136561
1.46535
1.52343
0.89696
-0.0919078
1.4617
0.0150809
0.00120896
0.901795
1.23004
-0.0170511
-0.0200877
1.23345
0.892839
1.0227
-0.0888611
1.3761
-0.031669
1.17315
0.00151672
0.0177501
-0.135558
-1.08797
-0.0501122
-0.0173433
0.282593
-0.00062391
1.33486
0.202036
1.2264
-0.0315336
1.18183
-0.000663329
1.57212
-0.104883
1.33928
-0.00562461
1.37969
-0.160166
-0.474807
-0.00482694
-0.384759
0.448676
1.71139
-0.0483586
1.5619
-0.000257125
-0.0058614
1.70945
1.02258
-0.0668013
1.55553
-1.05896
-0.00660988
-0.124969
-0.00028553
-0.0850332
-0.0454186
-0.184405
0.89451
-0.030916
1.94746
1.22727
0.896574
-0.0403794
1.06292
-0.0180605
1.09493
-0.0151349
1.08943
-0.092181
1.35152
-0.0690308
-0.467697
-0.010718
-0.043204
0.95213
0.966235
0.0635634
-0.0175613
-1.39479
-0.000325663
-0.0288025
-0.0192242
1.26745
1.54797
-0.150501
1.29617
-0.421887
-0.39882
-0.012718
-0.204542
-0.0200959
1.07426
0.0261149
-0.407904
0.823285
0.155837
-0.0232116
1.34256
-0.00159223
0.955836
-0.00702085
0.617574
1.40775
1.33492
1.21424
-0.0256125
-0.0133757
0.933946
1.58867
1.36535
1.48147
0.758349
-0.0268066
1.08456
0.194477
-0.021797
-0.415689
-0.232836
-0.001997
-0.00194004
-0.000993013
-0.00595593
1.48568
-0.00698359
-0.391354
1.07767
1.28885
0.0356752
-0.047014
-0.0413934
-0.0529008
0.539649
-0.004771
0.945094
-0.1357
0.575373
1.5919
-0.00541359
0.0137335
1.93648
0.962374
1.52605
1.65076
1.44296
-0.00738375
1.0888
-0.0240468
-0.00325603
-0.0154543
-0.0176589
-0.0236408
0.992427
-0.104499
-0.0141745
1.07314
1.02302
-0.0305089
-0.0213279
-0.0295799
1.12736
-0.287434
-0.203434
-0.000152637
-0.00513946
-0.319837
0.80584
0.307147
0.340309
-0.000793961
-0.00727647
-0.189414
0.377642
1.89326
-0.0791557
1.26492
-0.116725
1.42809
-0.0326025
1.72489
1.35103
1.09857
-0.0731774
-0.00873304
0.00299613
0.861164
-0.110116
1.23667
1.07407
1.51961
-0.0183199
-0.00614203
0.945335
0.00641434
1.71852
-0.0178159
-0.0251367
1.27865
5.80169e-05
1.31951
-0.000257421
1.65412
0.890543
-0.0166606
1.28776
0.660519
0.272262
1.36767
-0.00547395
1.27606
-0.00680385
1.76544
0.00153649
-0.0004122
-0.0243152
-0.0135394
-0.0132584
-0.0179966
1.54185
-0.116432
-0.0167624
-0.00683626
-0.059059
-0.0231067
0.847882
1.67963
1.06569
-0.00659517
-1.07228
-0.0210332
1.26093
1.45256
1.45526
-0.00685026
-0.0293155
0.147213
-0.103788
1.67289
-0.0122557
1.32714
-0.0332103
-0.701457
-0.00934739
-0.0317033
-0.017631
-0.192022
0.981771
0.0989459
1.51946
1.11274
1.18189
0.00185376
1.74504
-0.000211786
0.0267058
0.877427
1.37105
1.40335
-0.00421216
0.920434
2.41643
-0.053104
-0.0284616
-0.13296
1.627
1.71227
-0.0046903
1.24495
1.35572
-0.0274003
1.3134
0.555364
-0.0207204
1.06202
1.43601
-0.0113064
-0.0211487
0.142954
1.18044
-0.856701
1.4544
0.464865
-0.00317405
1.43048
-0.104024
0.837529
-0.00112201
1.22902
1.64236
-0.270249
1.39587
0.235866
-0.0321288
1.49134
-0.0280033
0.341197
-0.0512049
1.14486
0.570628
1.36388
-0.0016023
-0.0640691
1.52769
-0.188599
1.34962
0.48008
-0.000273056
-0.103717
0.597331
0.013336
-0.0362683
0.72617
1.18913
1.65686
-0.00707759
1.30827
-0.0586666
-0.0496472
1.14965
1.342
0.0185434
0.838201
-0.00800255
2.45662
-0.091445
-0.0594446
1.3732
0.00914204
-0.941084
-0.0159445
1.37022
1.309
-0.197294
-0.00673778
-0.0185023
1.73364
-0.0298463
-0.13104
-0.00223422
-0.010094
1.34147
-0.0360897
-0.00271893
-0.266307
-0.180231
-0.00874925
1.19877
-0.0152802
0.94474
-0.000438868
0.502889
1.36994
-0.0084222
-0.0157139
0.00159835
1.27364
0.950116
1.2299
-0.0263048
-0.00629901
-0.00233685
-0.281283
0.337689
1.30003
-0.153372
-0.911704
-5.0851e-05
0.00413261
1.42919
0.142438
0.203738
1.17302
1.51327
-0.0161498
1.08965
-0.00435181
1.53223
0.00233717
-0.0233668
-0.0258183
-0.0183298
-0.0283635
-0.0297428
1.43715
-0.100577
-0.00695242
1.00891
-0.0244123
-0.179455
1.37432
1.50286
1.43189
-0.00826427
0.00133052
0.930164
1.37496
-0.00321484
0.000221457
-0.0896523
-0.0544465
-0.00765319
1.72435
-0.00640689
1.40553
1.22366
-0.0182619
-0.016941
-0.0110016
0.404545
-0.00934846
1.05836
0.000147644
-0.047749
-0.0894561
-6.98878e-05
-0.226617
-0.00196156
0.321075
0.667793
1.09912
-0.00426391
-0.408574
-0.326503
1.32126
-0.00386425
0.00750746
0.687986
-0.295709
-0.000815641
-0.0513967
-0.0543323
-0.0224695
1.30328
0.10634
-1.34632
-0.0162201
-0.0266022
1.59563
-0.00153912
-0.00426674
-0.0234808
1.03158
-0.0151943
1.43954
0.966628
1.28749
-0.0426133
0.00854734
-0.346116
-0.000204999
0.00229069
0.000665401
1.04461
1.04203
-0.00258655
0.0010791
0.0673853
1.63419
-0.00540288
0.00469311
0.937572
1.28251
2.37453
0.331995
-0.0218751
1.49091
-0.0984106
1.55668
1.43425
1.60661
0.900977
-0.0102615
1.69668
0.986712
1.07391
-0.0497815
-0.0640699
1.36865
-0.00379817
-0.0716908
0.600985
-0.00141078
0.944426
0.00387978
1.08832
1.65298
1.54209
-0.00109492
-0.0241782
0.864707
0.00776131
0.581169
2.39309
0.0248394
0.0175441
1.41972
0.9841
-0.740473
-0.000824074
-0.019927
2.46252
-0.435504
1.30137
-0.0357216
-0.0223709
-0.0267582
-0.0223814
0.0117278
-0.0245435
-0.00679619
0.0075718
1.32158
-0.0803444
0.703294
1.43057
1.26662
1.43486
1.25898
-0.0170732
1.47864
0.955317
-0.056836
1.48704
-0.501966
-0.0446707
-0.000322035
-0.0406893
-0.023726
1.1588
1.24683
1.42716
-0.118204
-0.00989304
1.32686
1.04576
-0.0200363
1.38647
-0.0151692
1.38827
-0.00436337
0.545402
-0.0261845
-0.00100619
-2.91096e-05
-0.389071
-0.0348791
1.17213
0.875869
0.94553
1.42068
-0.000768692
-0.0121012
0.818545
-0.0174503
-0.606402
-0.210816
1.20451
1.53297
1.3408
-0.00472214
-0.0204227
-0.0044391
1.3875
1.56477
-0.0201481
1.29516
-0.000490159
-0.00349834
-0.00631402
-0.13
1.42798
0.00092857
1.23875
-0.00600518
1.36356
-0.0144446
-0.00131317
0.339361
-0.139
-0.0187619
1.44516
1.34648
-0.413879
1.00834
-0.0826145
-0.028072
-0.00741938
-0.00589696
0.00248278
0.00993729
0.929439
1.52202
1.43551
-0.481528
-0.0027455
0.00388149
0.880215
1.21042
-0.0457999
1.73416
1.2697
1.39178
1.01211
0.000305667
-0.00350371
-0.00710469
-0.0404143
0.266221
-0.26755
0.969062
-0.0358147
1.06445
1.48519
-0.724015
-0.0180417
1.27945
1.05199
-0.0376673
0.808082
1.0191
0.13852
1.33631
1.0282
0.00244282
-0.00104538
0.0388573
-0.000398379
0.000596084
-0.0503782
-0.00442216
-0.0245691
-0.0479892
0.0237831
-0.0284603
-0.0142778
-0.0302345
1.30424
1.34522
-0.0490996
0.28382
1.48166
0.63751
0.00801461
-0.0047019
-0.619541
0.0466482
-0.027323
1.36078
-0.214992
1.17022
1.4863
0.713074
0.0088183
0.990009
2.59433
1.61844
1.41915
-0.0272304
-0.00857981
-0.0603423
1.0544
1.85807
0.512895
-0.00109976
1.2061
-0.107758
1.15896
-0.0181694
-0.001689
1.4026
-0.000133503
1.05074
-0.000318322
-0.0321594
3.68341e-05
-0.605843
-0.0985709
0.0733153
0.955027
-0.00312217
0.00185646
-0.040931
-0.00295989
1.32878
0.456404
0.963186
-0.0300627
1.50759
-0.00270256
1.37866
1.5495
1.17203
0.0165244
-0.00589108
1.1766
0.000290074
1.33931
-0.0153772
-0.024741
0.791602
-0.0297271
-0.127891
-0.00108688
0.114704
-0.0840576
0.0107183
-0.0379635
-0.000124621
-0.193637
1.31625
0.00181477
1.45777
2.40344
-0.166219
-0.416668
0.00555208
0.00130864
1.30039
0.995335
0.742145
-0.00732329
1.05203
-0.000875122
-0.00250519
-0.00449154
0.774992
0.0913602
-0.00527849
-0.0061352
1.04312
0.0065293
-0.00986111
-0.0338831
1.41473
0.00184383
-0.597223
1.2487
-0.447603
-0.000190327
1.11039
-0.0174372
1.55569
1.8113
0.688849
0.00041059
1.05303
0.000872542
1.3296
-0.000378181
1.00335
-0.00100166
-0.000779283
-0.0189853
-0.00403617
1.33326
-0.053245
-0.628918
0.988745
0.000575975
0.169445
-0.00288361
-0.173469
-0.0190347
1.0538
-0.0130451
-0.00103301
-0.092332
1.46118
0.0622428
1.36135
-0.0106106
-0.0488733
1.21961
1.48683
0.0462264
-0.0754345
-0.00952108
0.0082991
1.45964
0.00193842
0.64578
1.32574
1.10312
1.35472
1.46041
1.7573
-0.000139237
-0.0826199
-0.144199
-0.00703857
-0.330506
1.15603
1.47769
0.020955
-0.025745
1.26948
-0.149671
0.00861743
-0.421689
-0.02236
-0.0308742
0.285897
-0.0125943
1.14623
1.4786
-0.451282
0.809497
1.46072
0.581284
-0.000315846
0.0963814
0.113107
1.24013
0.0295563
-0.132622
-0.0166642
1.46377
-0.00327772
-0.00188971
-0.00605261
-0.0138372
1.00164
1.45728
-0.0201574
-0.00282991
-0.00275823
0.964063
1.59758
1.14604
1.36808
1.45549
-0.00912742
-0.0565292
-0.484562
-0.327702
-0.00298719
1.42224
-0.0673003
1.05169
1.15035
0.147689
1.48042
1.34109
1.54281
-0.033586
-0.00182968
-0.00346668
1.33181
-0.0132804
1.21145
1.31964
1.51403
1.06475
0.654439
1.38938
1.28804
1.46346
-1.0122
1.37365
0.92493
-0.362218
-0.121499
1.87801
1.28638
-0.0416189
-0.966592
1.99934
0.0510197
-0.00196661
-0.0147274
1.41672
1.18055
1.10905
0.545304
-0.000548313
1.45283
-0.0560421
-0.00116044
-0.00534069
-0.000864728
1.39288
0.000597049
0.863614
1.40215
1.05469
2.53328
1.35458
-0.19208
-0.45177
0.0849786
-0.0374129
-0.00237335
-0.00333041
0.24567
-0.0581228
1.34738
1.39629
-0.000320672
-0.000245965
0.00128402
1.55685
-0.12837
1.23123
0.00396762
1.05077
-3.4369e-05
-0.0111807
-0.0179127
-0.0307257
0.872895
1.18542
-0.0156808
-0.0504771
-0.000736554
-0.254447
-0.000583619
0.76729
1.10063
-0.00291651
1.33159
1.28832
-0.0800119
-0.21805
-0.0383488
-0.0112225
-0.0044563
0.00243646
-0.00515658
-0.598989
0.977609
0.774342
-0.00229809
0.99886
-0.322596
1.36227
-0.0179349
-0.000814789
-0.00808409
1.02889
-0.035628
1.39828
1.55258
-0.0103932
-0.0252682
1.63844
1.31645
1.45156
0.0312728
-0.373102
-0.0569068
0.337315
0.870917
-0.0966875
-0.00655547
-0.0195428
0.978749
-0.0068512
-0.000675942
1.41056
-0.00465739
0.475793
-0.00686084
-0.0304332
0.240526
0.00964453
0.571361
1.26371
-0.00295321
-0.0164778
1.81764
-0.00657334
1.26398
-1.05516
0.000356466
-0.217312
1.19752
0.000680964
-0.031013
-0.0406685
-0.000202415
-0.0123362
0.950602
-0.000676027
-0.0532156
1.36088
0.621025
-0.00954325
-0.00905721
-0.0262483
-0.0489468
1.51376
1.04077
-0.0239348
1.65638
-0.150166
-0.00163579
0.000153016
-0.02205
1.45276
-0.00163288
-0.0131337
0.000652773
-0.0169283
-0.00193301
1.1359
0.0206375
0.000231649
1.02951
0.726266
1.29397
-0.0148438
0.803068
1.41362
0.0231746
-0.00146984
0.0008728
1.40811
-0.22303
0.0270339
0.881603
-0.0695729
1.3194
0.894661
0.498618
-0.304314
2.50499
-0.00374192
0.254874
-0.0200837
1.38619
1.07547
0.958973
0.958435
-0.0189518
-0.0158158
-0.00389204
-0.164095
-0.178532
-0.59986
0.873727
0.541508
-0.0282416
1.00495
0.00136491
-0.00190003
0.316036
-0.0754125
0.0343472
-0.0177491
1.6005
-0.0160572
0.981499
-0.016663
1.40226
-0.652093
-0.249643
1.0671
-0.056518
-0.0273549
1.22164
-0.0473649
-0.00211086
-0.0418596
-0.0231979
0.29724
-0.14014
-0.0046922
-0.0281739
-0.423694
-0.0329465
1.34849
-0.0807369
1.91269
-0.0643172
0.00413895
-0.0312061
0.260281
-0.00442181
-0.158815
0.990257
1.87256
1.18309
1.40836
-0.00136137
-0.0606715
0.981152
0.00439728
-0.0599735
2.70463
-0.123845
-0.063956
0.0430194
-0.0666556
-0.043363
-0.00432022
-0.00664276
-0.00432739
1.01337
1.07507
-0.0226515
1.05635
1.27813
-0.0580596
0.950302
1.63544
-0.0173099
1.04918
-0.813859
-0.0157787
-0.0152172
0.982795
0.0275542
-0.00560522
0.000640167
-0.616012
0.970002
-0.00194033
-0.0103527
-0.00018662
-3.48312e-05
1.21588
-0.00677434
0.817401
-0.0330016
-0.00633793
0.542002
1.01039
-0.00655138
0.0983429
-0.0809471
-0.0190853
-0.0289217
1.03408
1.28625
1.09162
-0.105991
-0.000125933
0.00105807
0.00205577
-0.805981
0.977262
0.276693
0.854604
1.36742
-0.0145486
0.914887
1.95272
-1.16303
-0.0313005
-0.411777
-0.0649853
1.40742
1.28798
0.000535802
-0.0547292
-0.0122069
-0.292787
-0.0420148
1.35966
1.74162
0.00071291
-0.00535883
-0.00826705
-0.000396917
1.26927
0.0098412
-0.00474139
-0.0132287
1.30671
-0.0481691
-0.0831424
0.475479
-0.162038
1.48246
0.841305
-0.0550139
0.000501794
-0.0504552
0.976658
0.472498
-0.068027
-0.0424217
-0.0273873
-0.00110036
-0.0394907
-0.425654
1.59779
-0.224054
-0.0356608
1.07577
-0.000847152
-0.00293665
0.655501
-0.00909034
1.0287
1.25436
0.994398
-0.112751
-0.000460143
1.32219
-0.00698858
1.03523
1.36682
0.945136
-0.0254337
1.32453
-0.0186393
0.0275826
1.07173
-0.0685952
-0.0483409
-0.025376
-0.0104727
-0.321142
0.0112148
0.000594415
1.47454
1.37829
1.35476
-0.000464805
0.945157
1.59068
0.0370761
-0.0303503
-0.00736087
0.000189579
0.00021571
0.381487
-0.0369226
0.0303991
1.30053
-0.0428059
1.25564
0.000505096
0.738326
0.00194176
1.044
0.837921
1.45188
-0.0128714
-0.00188216
0.645215
-0.0282599
1.29014
-0.00101539
-0.00320546
0.00302956
-0.00273945
1.01476
0.892903
-0.00494449
-0.0706849
-0.015816
-0.00222575
-0.0120033
-0.000132785
1.04405
-0.315604
-0.00756757
0.778429
-0.00998222
-0.00886753
0.042106
-0.0309815
-0.0347133
-0.000250058
-0.113966
-0.871496
1.311
1.93178
-0.00454622
-0.0153351
0.135647
1.35687
-0.281778
1.24199
1.07301
-0.0902034
0.949837
1.4467
-0.0910904
-0.0235988
1.68934
0.92522
1.52239
1.21363
1.40102
1.27472
-0.236604
0.149188
1.27431
1.37713
-0.0116794
1.431
-0.00491959
1.29585
1.18579
1.44727
0.0239321
-0.0488436
-0.0196153
0.915276
1.3945
-0.000580812
-0.00559056
1.02812
-0.352936
-0.038624
1.4522
0.0535623
0.00352391
-0.0108786
-0.0748579
-0.0681551
1.4462
-0.0265105
1.41912
1.05315
1.12935
-0.044863
1.08806
-0.0189209
1.2482
-0.0424176
1.29438
1.07855
-0.0984267
1.37918
1.16468
-0.0959123
-0.0116419
-0.0201905
1.12359
1.00555
1.41001
-0.0066001
-0.00758798
-0.0226908
0.128108
0.0175936
-0.00247253
1.46477
1.27806
2.42225
0.868279
-0.00752835
1.15439
0.00708032
1.12394
-0.46253
-0.00176732
0.0032073
-0.00461117
0.530978
0.162355
1.2491
0.0842746
-0.00972749
1.00085
1.07239
-0.00559497
1.04161
1.54858
0.882083
0.0118418
1.20503
-0.00995472
-0.00876495
0.00368317
-0.0243474
1.29226
-0.247383
0.482496
-0.489255
-0.000309676
0.385307
-0.00949893
0.93364
1.38189
0.880815
1.24566
0.132766
0.995388
1.25788
-0.00781338
-0.13025
1.52364
0.904515
-0.0647576
0.141173
0.974406
0.0724328
0.930008
0.97805
-0.0320316
1.07803
-0.00402688
-0.000114156
1.02933
1.28234
0.0058631
-0.0168198
0.872481
-0.00406056
1.2179
1.09292
0.00323879
1.04776
0.00137516
1.05519
1.33078
-0.568392
0.614069
2.15856
-1.03317
1.1487
1.89755
2.42163
2.14415
0.233646
0.144401
-0.0035087
-0.0713022
-0.0402001
1.88012
1.52548
0.00477258
-0.000490124
1.09616
0.744654
0.0606378
1.22127
-0.00225228
1.44424
-0.0357391
1.50655
0.878865
0.000584474
0.00319594
-0.0288905
1.22015
0.957864
0.771692
0.904929
1.44646
-0.00835351
-0.00957818
-0.0284757
0.0207562
-0.00522864
0.930058
1.51688
1.58127
-0.082159
0.808476
-0.000342964
-0.332647
1.18272
-0.0081163
-0.0613745
1.72624
0.954153
0.231439
-0.108202
-0.0411419
1.53062
-0.0373259
-0.00764614
-0.00845635
-0.00405159
0.0025381
1.4274
-0.0288964
-0.416927
-0.346619
-0.0664594
0.00669295
-0.00423739
1.10328
0.852119
-0.00401469
1.22663
0.00413305
-0.0226805
-0.000917322
0.0114911
-0.0283625
-0.230752
-0.0123958
-0.0225715
1.42695
-0.0237271
-0.00134782
-0.0274962
-0.168908
-0.0289386
1.05071
-0.146476
1.41765
-0.00142623
-0.459105
-0.0701514
-0.727162