/*--------------------------------*- C++ -*----------------------------------*\
| =========                 |                                                 |
| \\      /  F ield         | OpenFOAM: The Open Source CFD Toolbox           |
|  \\    /   O peration     | Version:  3.0.1                                 |
|   \\  /    A nd           | Web:      www.OpenFOAM.org                      |
|    \\/     M anipulation  |                                                 |
\*---------------------------------------------------------------------------*/
FoamFile
{
    version     2.0;
    format      ascii;
    class       volScalarField;
    location    "0.909879";
    object      epsilon;
}
// * * * * * * * * * * * * * * * * * * * * * * * * * * * * * * * * * * * * * //

dimensions      [0 2 -3 0 0 0 0];

internalField   nonuniform List<scalar> 
21246
(
1223.35
547.14
191.065
82.7721
35.3211
14.6391
6.43411
3.33713
2.10332
1.56953
1.31262
1294.86
648.78
298.955
136.634
59.9323
23.278
8.37858
3.81677
2.24601
1.64618
1.39109
956.864
555.208
325.771
173.391
85.4202
37.2069
13.932
5.07745
2.47355
1.71422
1.45957
538.48
435.207
307.891
189.129
104.779
51.3838
21.6628
8.08814
3.22499
1.80956
1.48965
247.972
322.847
269.657
189.923
117.81
64.3633
30.557
12.6273
4.88263
2.22319
1.5357
102.914
230.765
227.537
180.729
124.336
75.0868
39.71
18.3721
7.60467
3.17301
1.74063
68.0241
164.909
189.251
165.325
124.316
82.0836
47.7863
24.5559
11.2073
4.78143
2.25187
60.032
112.924
154.475
146.766
118.822
84.5821
53.4574
30.1121
15.1444
6.93703
3.1419
45.0768
65.5853
116.525
125.431
109.243
82.8024
56.0517
34.1446
18.7317
9.3148
4.3472
31.1326
37.4411
77.5701
100.885
96.2661
77.3449
55.508
36.143
21.3816
11.4906
5.67175
22.7664
23.2046
47.1985
74.9405
80.4759
68.8592
52.1124
35.9528
22.7003
13.0707
6.84028
17.7384
16.0201
27.9015
51.1295
63.5971
58.4419
46.5362
33.81
22.5879
13.7996
7.61953
14.119
11.955
18.3025
32.4729
47.3983
47.3814
39.7056
30.2678
21.2446
13.6349
7.87242
11.1282
9.09387
12.6641
21.0289
32.6319
36.7131
32.4369
25.9093
19.0009
12.6952
7.57062
8.7339
7.03888
8.99552
14.0668
21.566
26.8071
25.3438
21.2123
16.1861
11.1719
6.82919
6.98094
5.55083
6.55605
9.60576
14.1606
18.4549
18.8512
16.582
13.1524
9.35009
5.83558
5.67066
4.54617
4.92243
6.67998
9.30456
12.1854
13.3089
12.3951
10.2763
7.56552
4.82917
4.83635
3.88787
3.8393
4.78272
6.19173
7.93107
9.11247
9.10066
8.03156
6.24634
4.16032
4.40142
3.48854
3.13292
3.59652
4.33611
5.43971
6.63352
7.28226
7.04854
5.97098
4.23337
4.68931
3.53256
2.79865
3.04756
3.5832
4.64338
6.2355
7.55289
8.02867
7.48953
5.80116
7.36247
4.13713
2.96723
3.20756
3.99157
5.93982
8.35998
10.1733
10.9261
10.7845
9.51688
11.4687
5.16806
3.58138
4.33423
6.34276
9.23864
11.3229
11.731
11.0973
10.2873
9.43613
14.1112
6.32442
6.73328
9.56975
12.638
13.9508
13.2441
11.6149
9.8553
8.51506
7.71313
49.1595
30.2804
25.5297
22.3002
18.8793
15.4448
12.2868
9.7165
7.90658
6.84239
6.32578
1387.2
345.174
153.696
66.5584
28.3669
12.409
5.89196
3.20013
2.04139
1.50674
1.22862
1117.4
295.31
134.96
65.2084
30.5178
14.1225
6.77257
3.56061
2.15505
1.51643
1.19844
872.206
276.676
130.162
68.6965
35.1147
17.1822
8.33322
4.22355
2.39064
1.57543
1.19375
618.669
220.533
111.835
66.7831
38.94
21.0169
10.6517
5.30396
2.80227
1.69541
1.20373
431.733
166.662
91.9016
59.5587
39.6566
25.2114
14.3729
7.41554
3.71197
2.01297
1.2924
296.636
122.295
73.9252
51.5829
37.5805
26.894
17.7623
10.4503
5.55531
2.84315
1.56221
195.183
87.0044
57.8498
43.5022
34.5378
27.2904
19.9591
12.8315
7.23224
3.74197
1.94668
121.799
59.6758
43.6483
35.4941
30.7107
26.6464
21.4235
15.0152
9.05499
4.85885
2.49479
73.2855
39.4519
31.7212
27.9867
26.4055
25.084
22.0862
16.8478
10.9084
6.17038
3.30568
44.1965
25.6277
22.5039
21.6015
22.0873
22.8116
21.9383
18.2033
12.6671
7.57407
4.22004
28.8186
17.3421
16.2825
16.8491
18.3753
20.221
20.9716
18.995
14.2271
8.98102
5.17703
21.6042
13.1086
12.7027
13.8036
15.6261
17.8568
19.4857
18.9115
15.4026
10.4222
6.126
18.756
11.4285
11.0072
12.1163
13.8038
15.9459
17.8821
18.2239
15.8521
11.5226
7.20985
18.0002
11.126
10.418
11.2863
12.6338
14.4356
16.311
17.1647
15.7194
12.1316
8.03639
18.261
11.4512
10.3764
10.9005
11.821
13.1648
14.7679
15.8442
15.1288
12.286
8.56206
19.0796
12.0472
10.584
10.7081
11.1581
11.9884
13.2046
14.3127
14.173
12.0487
8.80939
20.3146
12.7887
10.9328
10.6222
10.5814
10.8753
11.6413
12.6441
12.9401
11.5065
8.79708
22.1082
13.6839
11.4392
10.6832
10.1525
9.90889
10.1907
10.9744
11.5458
10.7336
8.62917
24.8559
14.8607
12.2087
11.0032
9.98752
9.20918
8.98692
9.45057
10.0938
9.78053
8.25684
29.0296
16.505
13.3754
11.7046
10.1989
8.87843
8.13662
8.20581
8.72505
8.71682
7.76295
34.9724
18.8259
15.076
12.8989
10.862
8.97525
7.70146
7.33214
7.58542
7.67884
7.14056
45.0335
22.3329
17.7464
14.7101
11.9474
9.4559
7.67103
6.85858
6.77261
6.79474
6.49272
57.1192
30.3933
21.8636
16.9464
13.1449
10.1225
7.95785
6.76515
6.339
6.20285
6.00889
141.716
38.8753
26.063
18.2955
13.9738
10.8514
8.55896
7.09581
6.34536
6.01344
5.8351
1820.1
605.845
258.089
106.81
39.788
13.574
4.48449
1.4736
0.489041
0.169867
0.0668937
1362.64
379.863
186.498
85.1368
34.7122
12.8953
4.49166
1.50095
0.493844
0.167228
0.0634802
836.393
296.924
155.598
79.308
35.3448
13.9298
5.02235
1.69895
0.554054
0.183846
0.0687278
581.165
229.692
132.406
74.5014
36.118
15.1322
5.69934
1.99186
0.66231
0.219524
0.0803677
420.89
170.653
101.534
62.5429
33.7627
15.5557
6.23434
2.24926
0.752692
0.24214
0.0833402
340.135
134.712
81.4352
51.2656
28.7364
13.8883
5.80119
2.16174
0.745776
0.249358
0.0900997
288.32
111.211
67.6256
42.9017
24.3133
11.9622
5.14691
1.9943
0.717229
0.248694
0.0914552
251.86
94.5766
57.386
36.3891
20.7257
10.3101
4.52283
1.80214
0.670438
0.241291
0.094872
225.558
82.2678
49.5991
31.3433
17.8606
8.93708
3.97431
1.62038
0.622636
0.233061
0.0951479
205.739
73.0323
43.6862
27.5118
15.6683
7.86643
3.53217
1.46632
0.578829
0.223645
0.0927842
189.92
65.8277
39.1003
24.5722
13.9949
7.04656
3.1877
1.34184
0.540486
0.213421
0.0913815
177.873
59.9931
35.4254
22.2443
12.6864
6.41117
2.92081
1.24413
0.509647
0.205285
0.0898732
169.399
55.3773
32.518
20.4325
11.6891
5.93653
2.72459
1.17321
0.487932
0.200195
0.0889746
163.46
51.9083
30.3052
19.093
10.9819
5.61427
2.59679
1.12918
0.475516
0.197684
0.0893436
160.335
49.2301
28.5789
18.0917
10.4926
5.41398
2.52775
1.10998
0.472478
0.198362
0.0901922
160.153
47.294
27.3072
17.4108
10.2165
5.33819
2.52096
1.11808
0.480251
0.202811
0.0924372
162.747
46.2117
26.5272
17.0798
10.1847
5.41059
2.59033
1.16014
0.501635
0.211964
0.0963091
169.404
46.5212
26.3392
17.1261
10.4458
5.68333
2.75871
1.24676
0.54172
0.228094
0.102991
181.309
48.459
26.8554
17.5581
11.0002
6.19552
3.10795
1.4308
0.626241
0.263273
0.116919
200.939
52.6869
28.366
18.5174
11.9224
7.00284
3.6769
1.75561
0.786778
0.335996
0.146904
233.532
60.2917
31.339
20.2346
13.3212
8.17778
4.54044
2.29457
1.08078
0.48245
0.21341
291.93
72.3562
36.3926
22.9849
15.3217
9.80222
5.79613
3.16132
1.61347
0.781201
0.367058
400.498
92.264
44.2953
27.3516
18.3356
12.1671
7.67982
4.57355
2.58525
1.39849
0.73146
636.563
97.4784
51.1177
31.7219
22.5226
16.0022
10.9955
7.23985
4.57938
2.79728
1.66194
1872.78
1069.32
478.117
209.291
76.9019
23.4485
6.97159
2.07299
0.650628
0.215853
0.0813355
1984.99
1154.63
665.643
348.848
163.346
63.8245
17.8786
3.75512
1.03823
0.322663
0.113979
1092.49
953.233
686.624
422.269
230.281
107.504
38.9182
9.45611
1.8266
0.518348
0.176342
546.351
1034.3
731.023
474.714
280.649
145.814
62.3384
19.5627
4.18905
0.872322
0.287182
601.653
868.766
750.085
513.597
319.406
177.885
84.8327
31.9351
8.67795
1.82262
0.4703
623.237
705.905
788.844
572.062
360.725
207.49
105.883
45.1385
14.8704
3.72053
0.883563
558.755
513.168
724.662
650.697
417.971
240.55
126.538
58.3866
22.1343
6.59205
1.70474
516.121
416.936
602.889
701.145
492.176
282.322
148.565
71.4173
29.8032
10.2433
2.99508
484.777
362.192
503.291
692.561
573.157
335.536
173.97
84.5243
37.4486
14.3628
4.75088
460.076
323.23
433.824
631.018
634.773
396.77
203.454
97.9586
44.7999
18.6274
6.87297
439.562
290.268
382.997
561.854
654.873
453.974
234.741
111.366
51.618
22.7735
9.22823
422.206
263.277
340.633
495.556
632.111
494.454
262.276
122.975
57.3291
26.5051
11.6291
411.336
240.893
302.923
433.492
578.337
508.215
279.567
130.511
61.2979
29.5846
13.9473
407.235
222.757
268.625
374.736
510.162
493.332
282.18
132.151
63.0844
31.8878
16.1909
413.397
211.567
239.588
318.53
432.478
455.91
267.83
126.916
62.6405
33.4706
18.3388
428.181
205.517
215.601
267.899
341.288
391.262
241.685
115.67
60.3049
34.657
20.5141
449.954
202.375
192.319
219.968
260.744
285.989
215.405
102.886
57.6074
36.1362
23.0436
483.814
204.415
171.616
176.384
192.601
202.07
177.157
97.6808
56.5868
38.8594
26.2563
541.65
216.542
158.22
143.335
144.512
149.457
144.37
101.453
61.3714
44.7647
31.8821
651.132
248.695
160.571
127.644
118.701
122.521
126.79
112.065
77.1263
55.6168
39.4367
893.011
333.743
210.837
158.582
135.316
129.83
129.655
122.387
94.6939
68.3731
47.1607
1524.82
594.857
445.35
359.547
293.338
250.881
196.612
152.408
108.676
74.5074
48.2138
1102.17
570.841
545.624
393.772
285.51
203.869
139.803
94.0554
61.6502
39.4924
24.6652
1083.34
572.494
332.111
205.681
132.196
86.1879
56.0309
35.9244
22.5636
13.8492
8.29702
192.977
107.457
18.091
4.17698
1.33861
0.710841
0.528669
0.461796
0.432839
0.417935
0.40719
308.406
229.449
24.8661
6.26892
1.6683
0.796268
0.539608
0.448098
0.407152
0.384132
0.366975
392.647
251.497
41.2953
8.39543
1.89639
0.883039
0.55283
0.438479
0.386466
0.355904
0.330841
428.037
237.467
48.7789
9.73319
2.01838
0.951792
0.561288
0.430479
0.369681
0.333143
0.30155
428.296
227.718
52.383
10.3809
2.13024
0.997148
0.564359
0.423405
0.356313
0.316132
0.282299
408.813
225.481
56.9436
11.8524
2.31039
1.02609
0.566644
0.417746
0.34592
0.303663
0.269523
374.338
228.068
63.3198
14.4199
2.85761
1.07479
0.572644
0.414121
0.338234
0.294494
0.259651
329.71
233.403
70.6541
17.8385
3.76865
1.20452
0.596807
0.413684
0.333156
0.288096
0.253496
282.584
240.032
79.3716
22.2311
5.17171
1.47834
0.651368
0.422427
0.332238
0.284493
0.249613
237.336
247.232
91.011
28.2916
7.3857
2.03222
0.772888
0.446902
0.336372
0.283596
0.248027
194.428
255.356
105.166
36.0601
10.574
3.00741
1.02135
0.504028
0.349261
0.285907
0.248262
156.325
265.651
121.01
45.1522
14.6664
4.48094
1.46493
0.621876
0.379117
0.293447
0.250743
126.531
276.653
139.551
56.1704
19.9089
6.60593
2.20677
0.849871
0.443864
0.311608
0.256793
106.009
286.132
161.757
70.1317
26.8235
9.64043
3.39744
1.26847
0.578283
0.35284
0.270295
96.2795
298.212
187.565
87.1079
35.4991
13.688
5.14976
1.96603
0.833643
0.440444
0.300171
99.4121
311.737
217.815
108.426
46.7032
19.1124
7.66394
3.07085
1.28895
0.616469
0.365379
113.438
319.412
251.086
135.957
61.9602
26.7064
11.3346
4.79997
2.07202
0.954179
0.503971
135.876
318.296
282.451
170.059
82.7467
37.498
16.7474
7.48753
3.38322
1.57514
0.786697
161.03
304.097
302.023
208.284
110.799
53.2492
25.028
11.7897
5.60429
2.70584
1.34849
184.547
279.29
300.188
241.81
145.801
76.1832
38.1409
19.0096
9.52837
4.81849
2.47092
203.831
243.059
271.74
255.441
181.986
107.905
59.2198
31.702
16.874
8.98891
4.80674
256.735
212.982
235.173
248.355
210.999
147.737
92.2481
54.3973
31.2233
17.7255
9.99087
285.926
177.45
180.478
191.772
185.268
158.283
119.441
82.0389
53.0577
33.2286
20.268
573.838
629.33
486.963
398.452
308.153
226.526
159.22
108.839
73.2345
48.8249
31.9026
144.039
68.2625
15.0122
3.03064
1.1062
0.664834
0.529598
0.480253
0.46272
0.459654
0.464152
188.895
55.4568
9.21054
3.06476
1.23834
0.721263
0.558112
0.50141
0.484456
0.486376
0.499496
229.094
69.5889
8.50909
3.42257
1.39086
0.809135
0.602907
0.529037
0.506793
0.510197
0.529917
243.141
67.6863
8.17093
3.58144
1.38185
0.807668
0.591395
0.512174
0.489347
0.494706
0.519731
242.714
57.5067
7.89328
3.56684
1.37759
0.818798
0.584631
0.493978
0.4611
0.457688
0.473792
238.495
48.0614
7.58252
3.40271
1.33875
0.815613
0.573697
0.47771
0.438047
0.427744
0.435702
233.898
41.0462
7.26057
3.19311
1.28664
0.801602
0.558467
0.462169
0.418672
0.403525
0.404223
228.177
35.8997
6.92949
2.98805
1.23753
0.781974
0.54283
0.448117
0.403011
0.385296
0.38145
224.442
32.161
6.64956
2.82525
1.20572
0.762
0.52927
0.436102
0.390524
0.372295
0.368588
223.493
29.6036
6.44443
2.70498
1.19097
0.746863
0.519175
0.426401
0.380475
0.36262
0.36173
226.07
28.0533
6.35273
2.64194
1.19245
0.739749
0.513324
0.419137
0.372055
0.353772
0.35355
231.033
27.1477
6.33367
2.6259
1.20929
0.741033
0.511832
0.414257
0.364768
0.344679
0.343652
238.709
27.3559
6.4112
2.6577
1.24572
0.752117
0.51553
0.412033
0.358636
0.335149
0.331118
247.404
30.0124
6.97272
2.80943
1.33215
0.783885
0.530147
0.414873
0.355178
0.326488
0.317765
257.752
33.9128
8.00036
3.10296
1.48129
0.845556
0.560526
0.425754
0.356162
0.320149
0.304939
270.604
39.3534
9.67967
3.6272
1.7251
0.955467
0.615621
0.450103
0.364557
0.318157
0.294603
286.91
46.8498
12.321
4.54758
2.13584
1.15044
0.714952
0.499286
0.386993
0.32472
0.289992
308.625
56.6064
16.2304
6.10154
2.84638
1.50317
0.900097
0.598012
0.438642
0.349365
0.297454
338.652
69.4009
21.8994
8.66683
4.10447
2.16477
1.26409
0.804556
0.557006
0.416629
0.333515
382.106
87.0591
30.2533
12.8836
6.36734
3.44743
2.01821
1.26172
0.840169
0.594871
0.446652
449.413
112.939
43.0764
19.9056
10.4816
5.98227
3.63175
2.31755
1.54736
1.0793
0.78651
564.111
153.901
64.0395
32.1095
18.1383
11.0513
7.10837
4.77015
3.3199
2.39121
1.78312
789.02
238.694
107.614
57.7461
34.5619
22.2308
15.0651
10.6421
7.79583
5.90663
4.6204
1440.7
431.02
222.224
137.402
93.2127
66.193
49.1222
38.0831
30.5522
25.088
20.6822
3.34196
3.13685
3.56548
6.09063
23.4659
41.2364
55.0523
65.3284
74.1193
5.74802
2.27882
2.44448
9.43187
17.5629
21.4479
23.0754
23.4111
24.6354
5.71007
2.46517
2.73137
9.52278
14.644
14.8947
13.5859
12.4511
12.6502
5.24466
2.56494
3.04325
8.72728
11.1097
9.80409
8.26782
7.39176
7.232
16.6207
38.3856
54.3313
65.1466
73.2953
77.3185
77.3874
75.5436
79.8349
13.2921
19.722
21.664
21.6963
22.4298
23.1922
24.1219
25.1383
25.3226
11.2412
13.9277
12.8624
11.5235
11.5482
12.1838
13.0809
13.8839
13.439
8.81262
9.46626
7.97376
6.97489
6.78499
6.92744
7.32814
8.08079
7.70014
0.00901781
0.00829357
0.00834681
0.00544451
0.470735
0.0075526
0.128375
0.00809449
0.00752819
0.00695013
0.47198
0.00813162
0.010332
0.00518203
0.0146142
0.00728551
0.00619096
0.00535463
0.00724943
0.0071029
0.00663724
0.0617291
0.00852195
0.120729
0.00792291
0.00512203
0.00993807
0.120137
1.23897
0.384677
0.00739054
0.00643881
0.00699088
0.0080672
0.0068107
0.00826346
0.110393
0.00790647
0.00787149
0.00758011
0.186702
0.00809888
0.0379074
0.00849746
0.733589
0.237442
0.0184549
0.338762
0.00692868
0.00736348
0.389501
0.00759831
0.0400598
0.0385792
0.00734537
0.00666454
0.0588439
0.00761813
1.27232
0.0152541
0.0935529
0.029359
0.51032
0.0347913
0.202011
0.00714193
0.373841
0.00720106
0.00829576
0.00693681
0.00515008
0.00722284
0.0143643
0.00805511
0.0114228
0.00714863
0.0754249
0.00828156
0.055647
1.10307
0.282171
0.0261816
0.00793258
0.00838122
0.00698326
0.0144185
2.12007
0.0250245
0.0194489
0.111232
0.00809359
0.00765234
0.198307
0.0074338
1.03644
0.607275
0.00630476
0.00596475
0.024686
0.00740677
0.0078526
0.309455
0.00680772
0.00616665
0.0150279
0.0081246
0.00461069
0.00845328
0.0155921
0.00668621
0.00796842
0.00815096
0.00724555
0.00649245
0.0211481
0.00769124
0.0075397
0.0073236
0.00792936
0.00673745
0.00696345
0.0078126
0.0099628
0.00507565
0.21924
0.00714632
0.346944
0.00472853
0.0066021
0.00958308
0.00778016
0.0153574
0.317308
0.00715942
0.0083407
0.00812454
0.0626656
0.0157256
0.408787
0.00733156
0.0394986
0.00660118
0.220195
0.00867939
0.00751377
0.0253052
0.015634
0.00720293
0.00714931
0.00706488
0.00717022
0.00766403
0.0278803
0.00779544
0.00607233
0.019882
0.0190241
0.043376
0.00543811
0.00747662
0.00549505
0.0337406
0.00720966
0.0077197
0.381218
0.0268599
0.0200495
0.00702207
0.00688221
0.196716
0.00583066
0.00541579
0.00837364
0.00645818
0.00642616
0.00641935
0.0058142
0.0292981
0.749054
0.00696084
0.00719482
0.0679285
0.00849711
0.11638
0.00794437
0.0125274
0.00708133
0.00727346
0.00824893
0.07975
0.0145507
0.00531019
0.00718819
0.181526
0.00832353
0.00760941
0.00744207
0.0257037
0.0103301
0.00856746
0.0270804
0.00734412
0.013772
0.00799334
0.00838605
0.0252805
0.00739899
0.00656562
0.00741301
0.00740821
0.130513
0.0075918
0.00827345
0.00673846
0.00791257
0.0121118
0.00797941
0.0247009
0.00715293
0.0111589
0.0103309
0.00653342
0.00646991
0.0212953
0.00485731
0.00763426
0.0772079
0.0248848
0.0127618
0.152267
0.0429775
0.00713551
0.00714249
0.00776619
0.0281092
1.68322
0.335974
0.00845027
0.00814864
0.00810553
0.0247633
0.0330796
0.00613601
0.158866
0.00819204
0.0400387
0.00800536
0.0082847
0.449465
0.359522
0.00823369
0.132871
0.0100303
0.00726968
0.00602654
0.00747053
0.00672892
0.00785887
0.0196672
0.0070562
0.00838809
0.00985712
0.00738229
0.00819951
0.00796194
0.0166778
0.00659502
0.00792222
0.0176523
0.00694313
0.21011
0.00731574
0.00731975
0.0174178
0.00756749
0.00736611
0.00540804
0.00776291
0.00691474
0.0186808
0.00732227
0.00829062
0.284821
0.312823
0.00603704
0.00759426
1.43893
0.00825166
0.00683437
0.0385848
0.00835165
0.115737
0.00719433
0.00941609
0.00856516
0.00743924
0.00677919
0.00816546
0.00681791
0.00540299
0.00775693
0.0090291
0.00709643
0.393499
0.00676556
0.00668074
0.00828485
0.0806203
0.0653711
0.00744211
0.0856952
0.00817024
0.0064619
0.00677093
0.0816587
0.00655677
0.00709292
0.0146619
0.00671295
0.0077761
0.0070785
0.212037
0.00746408
0.00538221
0.023963
0.00681804
0.00778226
0.00595028
0.00709085
0.127334
0.00718907
0.524347
0.0720665
0.00846494
0.0115499
0.700336
0.0159036
0.00824252
0.00785127
0.00589091
0.0279002
0.126832
0.00730897
0.0266205
0.190876
0.081846
0.0214688
0.00753596
0.0931101
0.380493
0.113196
0.00581728
0.00700541
0.00682126
0.013202
0.00860274
0.0109256
0.00695976
0.00850161
0.178819
0.00986535
0.00536373
0.00800577
0.00798802
0.00729074
0.0189293
0.00510197
0.0157264
0.145721
0.00824503
0.00774073
0.110017
0.560723
0.00477595
0.0119997
0.00832159
0.00904965
0.00676652
0.00752792
0.00708923
0.242461
0.00756098
0.0248256
0.00765702
0.00527113
0.330063
0.00841882
0.00481917
0.0315776
0.0225167
0.00769812
0.0545098
0.00467653
0.00796534
0.347839
0.207941
0.00787062
0.00721102
0.00836754
0.0346726
0.0193895
0.00764731
0.00850612
0.0395641
0.0075807
0.204567
0.0534612
0.0332546
0.00733528
0.210354
0.00690397
0.00720134
0.0112606
0.0106982
0.030573
0.00640288
0.0147477
0.00848914
0.00486257
0.0434486
0.295028
0.00618411
0.157223
0.0139209
0.00628892
0.00665297
0.00795827
0.0281551
0.0102819
0.207335
0.00789697
0.024647
0.0050948
0.00663438
0.00697516
0.0137992
0.197542
0.414567
0.00512901
0.00860028
0.00596955
2.10659
0.00509261
0.00868874
0.00682155
0.0232015
0.0146903
0.0418442
0.00742102
0.0349262
0.00773761
0.00833626
0.0079397
0.0317755
0.0182372
0.160997
0.00579633
0.0289542
0.0266236
0.00825581
0.00740528
0.364303
0.00506884
0.00600003
0.00687825
0.145052
0.115873
0.0902244
0.0916648
0.00720707
0.0065791
0.0168585
0.00698022
0.0937847
0.00684537
0.00823986
0.00734813
0.0347653
0.032892
0.00710766
0.0077818
0.00668607
0.0952973
0.0698731
0.00845591
0.0242782
0.23792
0.00941007
0.0155012
0.00741119
0.0286294
0.00760178
0.00684757
0.00761952
0.00830312
0.00641083
0.00715442
0.00536092
0.00853398
0.0078961
0.00566251
0.00591356
0.00807261
0.00806404
0.501254
0.0188876
0.0129237
0.00718435
0.278769
0.00835791
0.275013
0.0162604
0.0242432
0.0222159
0.00799428
0.336059
0.0314044
0.00533191
0.0077847
0.006349
0.00667778
0.00828464
0.00769507
0.00819033
0.00676965
0.235386
0.0079936
0.00745658
0.0854149
0.00772968
0.178246
0.00661984
0.0630542
0.00559863
0.0190974
0.00856497
0.0078645
0.00841632
0.176792
0.0339599
0.0079511
0.00791006
0.00505337
0.00834973
0.00566032
0.00831481
0.186037
0.00681714
0.0465025
0.00839919
0.00762952
0.259261
0.287281
0.00679513
0.00658009
0.00711304
0.00831202
0.0137474
0.0406956
0.00721231
0.00898047
0.484094
0.839677
0.00791765
0.00736315
0.00828355
0.0148504
0.348932
0.0191368
0.00808798
0.00751931
0.312645
0.00727064
0.00854932
0.00715485
0.0418537
0.351211
0.00771054
0.0206533
0.00782119
0.0324573
0.00738989
0.0108595
0.00607339
0.0064385
0.0859402
0.0372464
0.008425
0.00854807
0.979442
0.00763877
0.00615804
0.00931168
0.0327878
0.0124087
0.0277606
0.00754842
0.00692925
0.00773071
0.00790762
0.506148
0.0156446
0.0121173
0.00711142
0.00794842
0.0430806
0.00702788
0.0076701
0.00684677
0.00713486
0.00830264
0.0152023
0.0323285
0.0181313
0.00621664
0.0107288
0.00724633
0.0590657
0.00711415
0.0077857
0.4679
0.183543
0.0075528
0.00757691
0.0612832
0.00676747
0.00738634
0.0194638
0.00831638
0.00674161
0.0101038
0.00903969
0.00828324
0.00489162
0.00571368
0.0388541
0.141602
0.0353043
0.0330606
0.00626173
0.0203749
0.0268375
0.00849275
0.00836476
0.00679408
0.0248657
0.00607373
0.00695717
0.00715559
0.00511856
0.0392611
0.428767
0.00608572
0.00927201
0.00769039
0.0129262
0.00811869
0.00724488
0.0069336
0.0132916
0.00703699
0.00720375
0.00684476
0.00826342
0.0119342
0.0558943
0.147999
0.00711225
0.00698387
0.00754981
0.0446144
0.00765132
0.129645
0.00721231
0.0166339
0.185874
0.00770701
0.0163138
0.00849837
0.00681254
0.0177249
0.00840082
0.408842
0.00556465
0.00667829
0.0084177
0.0124818
0.00509586
0.0331477
0.353109
0.00750868
0.00642102
0.00840421
0.00784342
0.0069066
0.0214104
0.0081369
0.00761412
0.0076238
0.0100186
0.0276183
0.00816101
0.00765542
0.00751186
0.023446
0.00546843
0.00648405
0.0113764
0.140633
0.00930359
0.00633434
0.00625752
0.00839867
0.0396993
0.00639499
0.139253
0.00783871
0.00681619
0.00790904
0.00715745
0.0799396
0.00848626
0.029928
0.00516734
0.00727859
0.00673534
0.00671114
0.0271318
0.0082372
0.301834
0.0368552
0.178633
0.00663553
0.0102551
0.0289568
0.01231
0.00767711
0.00877031
0.0334196
0.012384
0.00803102
0.00538987
0.471412
0.00811548
0.169975
0.00926469
0.00835389
0.0156721
0.00754554
0.00685989
0.00681719
0.00778447
0.00734722
0.00479809
0.00819324
0.00684857
0.00714678
0.00908872
0.0187434
0.156593
0.0148959
0.00723355
0.17165
0.2314
0.00782034
0.0048358
0.00710837
0.0269241
0.0100179
0.0448007
0.00706241
0.0208468
0.00844521
0.00887307
0.00721589
0.00695612
0.00765655
0.0127212
0.0564884
0.00860659
0.00789197
0.00741749
0.250169
0.210899
0.00750756
0.00820629
0.00698853
0.00742955
0.00813869
0.00821606
0.00837984
0.00787631
0.00783942
0.00564608
0.0513943
0.0903238
0.00480541
0.00719939
0.00770622
0.00793255
0.00671584
0.225272
0.00827568
0.00631353
0.00757156
0.264887
0.131578
0.0428824
0.00779457
0.0161458
0.0077183
0.00781659
0.207496
0.00715018
0.00816755
0.00719936
0.0420964
0.00602631
0.00593728
0.00813933
0.0105964
0.16685
0.0191894
0.00816217
0.0047428
0.0311077
0.0276712
0.0192608
0.0084306
0.00719332
0.00521393
0.0137279
0.0246878
0.00829343
0.00684977
0.00816333
0.00737438
0.00825746
0.00721739
0.00624963
0.168137
0.219465
0.0383524
0.00810587
0.464456
0.00853325
0.00720134
0.00994399
0.00789545
0.00766125
0.00766265
0.0141883
0.0207397
0.0200349
0.0076512
0.011026
0.00768957
0.00859812
0.00737104
0.00756391
0.00717961
0.00792726
0.00814996
0.00732836
1.74105
0.00754386
0.00712819
0.00788289
0.15739
0.00713663
0.00796665
0.0184726
1.56812
0.0069683
0.00778183
0.0108651
0.0130181
0.00846846
0.00808525
0.00680889
0.00860331
0.0514274
0.00828495
0.0838023
0.00948776
0.143614
0.0079716
0.0082158
0.0062112
0.0288536
0.00774888
0.00772503
0.00722523
0.00831808
0.00592725
0.191041
0.00665074
0.0271597
0.243412
0.0275173
0.00604921
0.0418653
0.00851225
0.00814548
0.00513685
0.00821576
0.00609655
0.00760057
0.282313
0.0072523
0.0106205
0.00731166
0.00464034
0.00533889
0.0197118
0.00794997
0.00693977
0.00804215
0.275971
0.0621651
0.365624
0.00660158
0.00989549
0.00692318
0.00776801
0.295052
0.00753917
0.00830463
0.00609806
0.199854
0.0323548
0.0383221
0.00720344
0.00533861
0.0123154
0.641833
0.0080152
0.00700203
0.37446
0.00760602
0.0194738
0.0079216
0.0894604
0.00814995
0.0302419
0.00830438
0.00729078
0.00845246
0.00762966
0.0147134
0.00659232
0.00711013
0.00780696
0.0073163
0.0098582
0.00858915
0.0401736
0.00749326
0.00687421
0.203411
0.023377
0.0452035
0.00832568
0.0421921
0.00726108
0.00829094
0.0265813
0.00646742
0.0355662
0.356221
0.00610184
0.0134242
0.00653738
0.00741913
0.0177832
0.0171681
0.00700521
0.0500521
0.00813379
1.57731
0.0418474
0.618384
0.00812849
0.0209827
0.0118319
0.310975
0.00774186
0.00536308
0.00855556
0.00465596
0.117459
0.00815811
0.00890719
0.00775822
0.0284309
0.220403
0.00818099
0.00778211
0.00736418
0.0451245
0.00684513
0.193043
0.0109045
0.0620365
0.347183
0.00829181
0.0160509
0.0315191
0.0296102
0.0878843
0.0232808
0.0075815
0.0114241
0.00491436
0.00809947
0.00783036
0.00856486
0.00881089
0.00660433
0.00832775
0.00556957
0.0392117
0.00485908
0.00802302
0.102489
0.0148847
0.00689289
0.0108409
0.00813776
0.00708614
0.00734449
0.201451
0.00705126
0.0162101
0.00616704
0.0238931
0.00796362
0.00694817
0.00795991
0.0075348
0.0177981
0.042651
0.0410701
0.64567
0.205004
0.658479
0.00688081
0.00726401
0.0093153
0.00838921
0.00588189
0.0193169
0.00691415
0.102826
0.00611636
0.154961
0.00683225
0.00497293
0.00811838
0.298925
0.00862548
0.475948
0.0066855
0.00824784
0.0463949
0.0598005
0.00676523
0.0264191
0.0314603
0.064808
0.12938
0.0199444
0.226489
0.00949458
0.00719313
0.240596
0.0190742
0.00833148
0.0062473
0.00816424
0.00504294
0.00529361
0.00985007
0.00773503
0.0165889
0.635305
0.00752767
0.00721167
0.00689509
0.0081932
0.00961676
0.00542181
0.00702097
0.00558907
0.378066
0.00721258
0.636238
0.0722538
0.00775246
0.146402
0.05162
0.0176472
0.00664014
0.142807
0.00768847
0.00803743
0.347004
0.0075223
0.00824548
0.00581629
0.0080972
0.00770504
0.166346
0.00783184
0.550805
0.0134307
0.019048
0.00723096
0.0123983
0.0286564
0.00617221
0.223777
0.00776459
0.0109883
0.0275802
0.00701862
0.014706
0.0304127
0.0228336
0.00747229
0.0328147
0.079096
0.00645001
0.0073371
0.0277585
0.00694968
0.0189432
0.0241776
0.355415
0.00711933
0.00860324
0.00796799
0.00623603
0.00805321
0.00478399
0.0382103
1.32487
0.00806317
0.02402
0.0280457
0.00820804
0.0343147
0.00709293
0.00696643
1.07245
0.0467025
0.297434
0.164834
0.00816297
0.00792974
0.0220837
0.223739
0.201105
0.243597
0.00493966
0.00817732
0.00718039
0.00624365
0.238053
0.0478074
0.00860208
0.00739836
0.0279977
0.0233277
0.0353691
0.00677697
0.0928525
0.215276
0.00638898
0.00559176
0.00727702
0.00718727
0.217299
0.00540193
0.00853259
0.0151231
0.00777643
0.00637632
0.363705
0.00899301
0.0104666
0.033234
0.00832506
0.00751581
0.191777
0.0194738
0.00836212
0.0045581
0.0185415
0.00661566
0.34947
0.00806538
0.00769059
0.0070451
0.15012
0.00610809
0.00746042
0.0318689
0.00833839
0.00814883
0.00859551
0.00535798
0.00770592
0.0366734
0.0185365
0.00814573
0.461003
0.0362423
0.00832937
0.0313588
0.00736353
0.00518034
0.0324979
0.0080236
0.00816592
0.00788455
0.00728582
0.00793587
0.00719092
0.00808796
0.0505216
0.0350314
0.00606447
0.0417915
0.00692136
0.0201764
0.0185011
0.00855538
0.00670103
0.0158915
0.00489051
0.00674885
0.00591406
0.00666366
0.00685267
0.00795296
0.0377809
0.174574
0.0240721
0.100107
0.00859361
0.0120404
0.371673
0.0166488
0.0125589
0.00760035
0.0336974
0.0136972
0.149978
0.0047942
0.0204964
0.0324039
0.0064546
0.00795344
0.894307
0.0048252
0.00674316
0.0294453
0.0282398
0.00584452
0.0121377
0.0144368
0.0046391
0.591357
0.443523
0.00789908
0.00718001
0.0146321
0.04322
0.0104511
0.00811609
0.00698486
0.00839065
0.00751122
0.0788108
0.00761795
0.00846245
0.134556
0.0083917
0.00734313
0.00770374
0.00757209
0.00672581
0.00858074
0.00727599
0.0095644
0.00704384
0.0087926
0.00804028
0.0311946
0.00819081
0.0175668
0.00770405
0.0209447
0.00838795
0.00767878
0.0588253
0.240514
0.00705229
0.0078059
0.00758846
0.0220424
0.00826544
0.0087727
0.00832549
0.0074225
0.00622728
0.00730478
0.0309402
0.00512641
0.0610154
0.00848429
0.00867931
0.00788802
0.00669437
0.0088432
0.00840886
0.00801881
0.15987
0.00759938
0.0163259
0.00790118
0.00799674
0.485263
0.00845233
0.00855389
0.144429
0.201509
0.0138999
0.00756237
0.0199044
0.00789045
0.0100292
0.0118365
0.0107699
0.00742132
0.00627589
0.0242083
0.00763332
0.0321275
0.00703106
0.0153482
0.0268849
0.0081697
0.0148678
0.00765751
0.141665
0.0146052
0.00498649
0.0303657
0.00642879
0.00597374
0.00840153
0.0104314
0.0301274
0.00752696
0.00811353
0.0384689
0.00681958
0.00681593
0.0069102
0.0054571
0.00789526
0.0283104
0.0302084
0.00688426
0.0177702
0.00798115
0.00734539
0.0070246
1.17618
0.0097675
0.00746298
0.170022
0.0321516
0.00820927
0.00706185
0.0289711
0.010578
0.00661579
0.00727844
0.0157812
0.0399804
0.00754462
0.00693675
0.0762128
0.00715382
0.00830209
0.00737176
0.00693743
0.00795277
0.0247917
0.00764417
0.0316792
0.0063234
0.0134087
0.00813175
0.00502929
0.0281494
0.00690864
0.0213987
0.00765767
0.0073439
0.0394874
0.0136547
0.00560098
0.00845806
0.00743674
0.228441
0.00749837
0.00697795
1.72152
0.00673628
0.00710333
0.00698946
0.0069897
0.00647545
0.00632254
0.0156318
0.00515288
0.0161845
0.0070967
0.00758964
0.0156414
0.00454342
0.00748391
0.00646239
0.00564204
0.00730932
0.266127
0.00855682
0.026576
0.00748935
0.00689278
0.00587946
0.00727966
0.0124236
0.00795524
0.00721508
0.00673477
0.00756693
0.00837759
0.0341655
0.0219372
0.0110617
0.0107305
0.0376857
0.00673529
0.00756671
0.00746738
0.210059
0.00726506
0.00657287
0.339569
0.00685707
0.213574
0.154886
0.00684954
0.00810035
0.00717276
0.00537505
0.00493349
0.00681657
0.00794533
0.0230797
0.0367329
0.00477287
0.0349778
0.00780805
0.0717805
0.014764
0.937885
0.0107863
0.0117323
0.00500117
0.0082864
0.00690504
0.0249971
0.00790243
0.0110515
0.00533137
0.0120912
0.00522861
0.0606932
0.0161531
0.0265175
0.262024
0.0078041
0.346953
0.00965263
0.00649905
0.00603616
0.00869656
0.00840513
0.590861
0.00781451
0.291261
0.314656
0.00507179
0.0722389
0.0245504
0.302538
0.00740064
0.00790356
0.0074178
0.00726686
0.00766034
0.00621813
0.00701348
0.0225203
0.00780339
0.205979
0.0162762
0.0076413
0.00818097