/*--------------------------------*- C++ -*----------------------------------*\
| =========                 |                                                 |
| \\      /  F ield         | OpenFOAM: The Open Source CFD Toolbox           |
|  \\    /   O peration     | Version:  3.0.1                                 |
|   \\  /    A nd           | Web:      www.OpenFOAM.org                      |
|    \\/     M anipulation  |                                                 |
\*---------------------------------------------------------------------------*/
FoamFile
{
    version     2.0;
    format      ascii;
    class       surfaceVectorField;
    location    "0.909879";
    object      Uf;
}
// * * * * * * * * * * * * * * * * * * * * * * * * * * * * * * * * * * * * * //

dimensions      [0 1 -1 0 0 0 0];

internalField   nonuniform List<vector> 
32369
(
(4.31127 -1.0044 3.63586e-19)
(4.63253 -1.08945 1.0294e-18)
(5.89061 -0.351894 -3.75641e-20)
(4.22132 -0.571298 6.14432e-20)
(3.26461 -0.875599 -5.07135e-19)
(4.66187 0.0449067 -3.29169e-19)
(4.01814 -0.503743 2.15261e-19)
(3.59139 -0.871378 6.1157e-20)
(4.24319 0.0548416 7.57045e-19)
(3.71857 -0.460442 -3.34409e-20)
(3.57616 -0.836588 -1.12964e-19)
(3.83845 -0.0294748 -1.18023e-19)
(3.40385 -0.424948 -3.18022e-20)
(3.40373 -0.749134 -3.51724e-20)
(3.48868 -0.110129 2.71421e-20)
(3.11768 -0.402875 -4.52914e-20)
(3.18477 -0.651795 1.4546e-19)
(3.18852 -0.173883 1.44793e-20)
(2.87446 -0.393973 -3.12029e-20)
(2.9612 -0.572866 -1.31908e-20)
(2.93381 -0.222132 -2.75401e-20)
(2.66639 -0.396622 -1.13037e-20)
(2.75973 -0.526461 1.35814e-20)
(2.71709 -0.261883 0)
(2.4851 -0.407717 -1.41069e-20)
(2.5774 -0.504501 1.02255e-20)
(2.52756 -0.298354 1.54086e-20)
(2.32169 -0.425175 0)
(2.41382 -0.500433 -1.86544e-20)
(2.35913 -0.332627 5.45241e-20)
(2.27538 -0.505155 1.44623e-22)
(2.21063 -0.355849 0)
(2.1575 -0.441209 -1.79127e-20)
(2.63682 -0.63408 -4.25359e-19)
(3.08154 0.157526 1.46814e-18)
(3.00452 -0.891202 -5.00807e-19)
(2.17739 -0.345718 -6.18956e-19)
(3.20569 -0.983691 -5.30182e-20)
(2.71737 -0.85132 0)
(3.27767 -0.9726 -1.21103e-19)
(2.95134 -1.03107 -5.63124e-20)
(3.22182 -0.891772 4.72219e-20)
(3.01675 -1.06104 -8.24899e-20)
(3.07099 -0.782297 1.77354e-19)
(2.98796 -0.995246 1.83254e-19)
(2.88197 -0.686027 -7.19463e-21)
(2.88136 -0.880358 8.43983e-20)
(2.69804 -0.623221 2.61183e-20)
(2.74053 -0.772369 -1.00051e-20)
(2.53038 -0.588649 -1.6621e-21)
(2.59081 -0.698015 1.28351e-20)
(2.37696 -0.57554 -1.35128e-20)
(2.44815 -0.657298 1.05447e-20)
(2.32499 -0.63906 1.02642e-20)
(2.23175 -0.572615 1.15857e-22)
(2.09289 0.427304 1.87587e-19)
(2.47258 1.40561 2.86745e-19)
(2.16632 -0.32204 -1.71201e-19)
(1.92926 0.479602 1.85058e-18)
(2.41183 -0.76476 0)
(2.17914 -0.236365 -1.70473e-18)
(2.6457 -0.998042 9.12479e-20)
(2.38256 -0.699737 9.79866e-19)
(2.78896 -1.07546 2.48306e-20)
(2.54246 -0.973943 -4.56993e-20)
(2.82414 -1.03463 -1.26296e-19)
(2.65064 -1.07594 -5.46771e-19)
(2.7674 -0.932538 -2.38776e-20)
(2.67755 -1.04478 -1.71067e-20)
(2.65905 -0.828971 -2.47192e-20)
(2.63511 -0.951191 -2.18962e-20)
(2.53335 -0.756478 4.73889e-20)
(2.55059 -0.857795 0)
(2.40633 -0.719338 7.44123e-20)
(2.44988 -0.793996 5.01956e-20)
(2.36227 -0.768125 9.94586e-21)
(2.27507 -0.723289 7.85097e-21)
(2.20982 1.45945 1.77533e-18)
(2.54081 2.36986 -1.13217e-18)
(2.03616 0.496604 9.04856e-19)
(2.12351 1.32102 3.67471e-18)
(2.07863 -0.178256 -9.85028e-19)
(2.07898 0.450161 -4.05101e-18)
(2.22337 -0.650094 7.45783e-19)
(2.12196 -0.174759 1.88563e-18)
(2.38458 -0.940174 -6.27713e-19)
(2.22447 -0.637394 -1.4175e-19)
(2.50734 -1.05723 -4.89724e-19)
(2.34727 -0.922279 -6.80561e-20)
(2.56135 -1.04349 0)
(2.4386 -1.03141 -4.95686e-20)
(2.54813 -0.96658 0)
(2.47699 -1.01728 -3.82251e-20)
(2.49029 -0.886017 -4.3215e-20)
(2.46545 -0.951378 -9.5236e-20)
(2.41089 -0.833704 -5.43741e-20)
(2.41927 -0.887775 -1.0783e-20)
(2.37519 -0.855672 -2.98207e-20)
(2.32348 -0.824665 -2.32221e-20)
(2.55767 2.26583 2.86776e-19)
(2.98145 3.00949 -1.1154e-18)
(2.20552 1.26813 -2.65522e-19)
(2.47416 2.00477 1.68497e-18)
(2.08222 0.46866 -1.77225e-18)
(2.21746 1.11253 -2.39071e-18)
(2.08281 -0.157605 1.02653e-18)
(2.10667 0.374211 9.20874e-19)
(2.15541 -0.614198 3.25521e-19)
(2.1003 -0.219457 4.66047e-19)
(2.26125 -0.891195 3.12441e-19)
(2.16219 -0.639897 -4.02032e-20)
(2.35365 -1.00299 -9.91359e-20)
(2.2468 -0.882744 -5.78724e-20)
(2.40447 -1.00111 -1.16698e-19)
(2.31891 -0.971898 2.42299e-19)
(2.41174 -0.951215 -7.20481e-20)
(2.35956 -0.9651 -3.02931e-19)
(2.38814 -0.903902 1.77522e-20)
(2.36607 -0.924946 9.6252e-20)
(2.36546 -0.900195 -2.93593e-20)
(2.34618 -0.890162 2.14289e-19)
(2.98888 2.88315 -8.77999e-21)
(3.44553 3.39406 -1.85634e-18)
(2.52453 1.91104 0)
(2.83051 2.56987 0)
(2.24828 1.06388 0)
(2.46381 1.67744 1.03516e-18)
(2.11205 0.348375 4.13702e-19)
(2.22378 0.888691 -1.53462e-18)
(2.08315 -0.220638 1.2226e-19)
(2.10575 0.219765 1.03987e-18)
(2.12364 -0.6205 -4.50119e-19)
(2.08397 -0.304392 -7.31494e-19)
(2.19884 -0.850836 2.38969e-19)
(2.12463 -0.653417 2.44402e-19)
(2.27147 -0.939877 1.15561e-19)
(2.1915 -0.841412 2.76579e-19)
(2.32143 -0.943673 -1.78467e-19)
(2.25671 -0.905443 -2.06663e-19)
(2.34598 -0.920399 6.59817e-20)
(2.30311 -0.904046 1.56536e-21)
(2.34032 -0.895622 0)
(2.35062 -0.916 -1.16024e-19)
(3.33385 3.27173 -2.02989e-18)
(3.69967 3.5835 -1.86472e-18)
(2.84503 2.42813 9.25832e-19)
(3.13172 3.01052 -1.43748e-19)
(2.47154 1.58771 -2.09718e-19)
(2.7392 2.16529 9.40686e-19)
(2.22793 0.826505 -1.18532e-18)
(2.40179 1.36974 -1.38193e-18)
(2.10058 0.186859 3.35923e-19)
(2.18528 0.653156 5.71159e-19)
(2.06901 -0.303938 -1.22833e-19)
(2.07918 0.0604835 4.53693e-19)
(2.10156 -0.630208 2.78163e-19)
(2.06029 -0.375488 2.00849e-19)
(2.16636 -0.804949 0)
(2.09924 -0.649372 -4.49176e-19)
(2.23643 -0.870151 -4.9058e-20)
(2.16744 -0.783553 3.2986e-20)
(2.29651 -0.881749 -6.14649e-20)
(2.2395 -0.828258 7.49624e-20)
(2.30865 -0.84274 0)
(2.34243 -0.892569 4.94182e-20)
(3.53066 3.44885 -1.27119e-19)
(3.83233 3.6131 -1.38514e-18)
(3.11742 2.82411 -2.57722e-19)
(3.39013 3.29592 -2.30421e-20)
(2.70752 2.04856 2.39863e-20)
(3.01585 2.57386 -9.14256e-19)
(2.38621 1.27645 1.79527e-19)
(2.6108 1.81668 6.2591e-19)
(2.17346 0.59138 7.01271e-19)
(2.31024 1.07686 -6.35277e-19)
(2.06623 0.0365036 7.9672e-19)
(2.12305 0.436145 9.47957e-19)
(2.0468 -0.365124 -4.85295e-19)
(2.03901 -0.0637084 -4.93808e-20)
(2.08868 -0.61467 -4.51936e-19)
(2.03828 -0.407686 -5.95239e-19)
(2.16262 -0.740047 1.5237e-19)
(2.09448 -0.607313 3.28485e-20)
(2.24687 -0.790813 1.44125e-19)
(2.17971 -0.700198 1.29328e-19)
(2.27593 -0.741124 1.25862e-19)
(2.32795 -0.824853 3.50238e-19)
(3.69996 3.53253 -1.41492e-18)
(3.94454 3.55235 -1.40244e-18)
(3.36132 3.10355 -5.70758e-19)
(3.58642 3.42738 1.39011e-19)
(2.95307 2.43869 -4.07353e-19)
(3.26784 2.8851 -8.06344e-19)
(2.57242 1.69437 -5.77671e-20)
(2.83129 2.20857 6.02013e-19)
(2.28152 0.990223 -5.64498e-19)
(2.46286 1.479 -4.37e-19)
(2.10112 0.392382 1.79517e-19)
(2.20054 0.815795 3.08688e-19)
(2.02533 -0.0664357 -1.28281e-19)
(2.05135 0.273386 -3.88507e-19)
(2.03427 -0.377836 -1.59529e-19)
(2.00507 -0.125144 4.04011e-19)
(2.10113 -0.558901 0)
(2.03989 -0.381444 -1.91367e-19)
(2.19949 -0.649843 1.11531e-19)
(2.12787 -0.522329 -1.95833e-19)
(2.245 -0.595641 2.70726e-19)
(2.30475 -0.709441 -2.10346e-19)
(3.81649 3.52765 0)
(4.02168 3.46874 0)
(3.55283 3.24853 0)
(3.71354 3.47065 1.22762e-19)
(3.18233 2.73884 1.30726e-19)
(3.46672 3.0839 5.54279e-19)
(2.76899 2.0676 3.50087e-19)
(3.04199 2.52892 -4.22197e-19)
(2.41309 1.37685 3.64535e-19)
(2.62976 1.84938 -3.77559e-19)
(2.16477 0.759624 -1.85313e-19)
(2.30352 1.19279 3.04124e-19)
(2.03229 0.262119 8.51182e-20)
(2.09331 0.629417 -3.89025e-19)
(2.00377 -0.0984198 4.19439e-19)
(2.0004 0.192604 7.90278e-19)
(2.05596 -0.329551 -3.86495e-19)
(2.00885 -0.110462 -6.74579e-19)
(2.16082 -0.461867 -9.44876e-20)
(2.09216 -0.296801 2.09356e-19)
(2.22483 -0.407843 1.15535e-20)
(2.29298 -0.540139 -1.08067e-19)
(3.88945 3.48468 1.10811e-19)
(4.05836 3.37405 1.40438e-18)
(3.6857 3.31079 6.34969e-19)
(3.787 3.45391 -9.76906e-19)
(3.3648 2.94402 5.58517e-20)
(3.60567 3.18275 3.26931e-20)
(2.95414 2.37925 -1.15709e-18)
(3.22284 2.76942 2.3894e-19)
(2.55759 1.73705 -5.16985e-19)
(2.79741 2.17375 -7.66285e-19)
(2.25296 1.12805 1.67936e-19)
(2.42585 1.55258 4.37185e-19)
(2.06819 0.612541 2.16328e-19)
(2.16475 0.992159 -5.37114e-19)
(2.00178 0.217277 -1.82214e-19)
(2.0291 0.535454 7.48637e-19)
(2.03513 -0.056506 -1.68166e-19)
(2.01011 0.197463 -4.8433e-19)
(2.14056 -0.229751 3.11592e-19)
(2.08372 -0.0294408 4.05987e-19)
(2.22673 -0.179541 -1.37775e-19)
(2.28501 -0.346191 9.12545e-20)
(3.91971 3.41285 1.87129e-19)
(4.06774 3.27209 -1.0191e-19)
(3.75877 3.30746 -1.68763e-18)
(3.81764 3.39804 -2.77947e-19)
(3.49182 3.06269 2.10876e-19)
(3.681 3.19794 -3.58649e-19)
(3.1139 2.61868 7.3462e-19)
(3.36245 2.92524 5.40321e-19)
(2.70464 2.05293 5.21657e-20)
(2.95295 2.43652 -1.79634e-19)
(2.36214 1.47968 -1.65684e-19)
(2.56095 1.87543 7.85634e-19)
(2.13586 0.96911 -1.12663e-19)
(2.26559 1.34322 -7.24705e-19)
(2.03591 0.556178 5.61773e-19)
(2.09669 0.886708 2.57217e-19)
(2.04958 0.249791 0)
(2.05357 0.527624 -1.34655e-19)
(2.15035 0.0384686 -3.52573e-21)
(2.11501 0.266597 1.52237e-19)
(2.25717 0.075568 1.62771e-19)
(2.29704 -0.111537 -2.62238e-19)
(3.92354 3.32353 -5.27155e-19)
(4.05697 3.15749 -9.33732e-19)
(3.78456 3.25518 1.06582e-18)
(3.82189 3.319 1.00895e-18)
(3.56769 3.10055 -4.66062e-20)
(3.71112 3.15595 -6.85787e-19)
(3.24327 2.78583 -2.87844e-19)
(3.45543 2.99124 -1.41583e-19)
(2.84956 2.31145 4.48396e-19)
(3.09702 2.63282 0)
(2.49123 1.79636 3.66848e-19)
(2.70589 2.1467 2.94614e-20)
(2.23859 1.31339 -4.297e-19)
(2.3954 1.6631 4.73546e-19)
(2.11408 0.900455 -3.84982e-19)
(2.20754 1.22652 -4.74641e-19)
(2.11074 0.572736 -1.38785e-20)
(2.14763 0.860461 4.218e-21)
(2.20407 0.326609 3.18943e-19)
(2.19817 0.57312 -1.03483e-19)
(2.33641 0.343151 1.68595e-19)
(2.36304 0.145819 2.10958e-20)
(3.91259 3.22282 3.78573e-19)
(4.02786 3.03393 6.41743e-19)
(3.79133 3.17972 -3.44182e-19)
(3.80906 3.22651 6.25224e-20)
(3.60866 3.07657 -8.25859e-19)
(3.71842 3.08398 -7.7e-19)
(3.34318 2.87142 1.3258e-19)
(3.50854 2.98386 -6.78469e-21)
(2.99437 2.51076 -4.24027e-19)
(3.21968 2.74787 0)
(2.63826 2.0639 8.26059e-20)
(2.85888 2.35801 -4.74251e-19)
(2.37853 1.62579 5.11645e-19)
(2.55348 1.93439 9.6532e-19)
(2.24194 1.22921 -1.48664e-19)
(2.36261 1.53333 -4.56546e-19)
(2.22731 0.891536 -7.01845e-20)
(2.29658 1.17351 2.65988e-19)
(2.31199 0.616635 -2.63487e-19)
(2.33906 0.867998 -3.41953e-19)
(2.46962 0.601766 2.98146e-20)
(2.4566 0.391513 0)
(3.88354 3.11145 -1.44305e-20)
(3.98977 2.90959 1.47149e-19)
(3.77778 3.08642 -4.79858e-20)
(3.78224 3.12263 -1.59444e-19)
(3.62442 3.01653 -2.10574e-20)
(3.711 2.99165 -3.72283e-21)
(3.41122 2.88079 -1.32461e-19)
(3.53759 2.93283 -1.20179e-19)
(3.11941 2.62986 0)
(3.30882 2.77794 0)
(2.80131 2.27007 2.62266e-19)
(3.00917 2.49801 -1.11671e-19)
(2.55073 1.8877 9.71551e-20)
(2.72981 2.14142 3.67877e-19)
(2.41858 1.51938 -1.35141e-19)
(2.55747 1.78785 -4.80572e-19)
(2.40131 1.18205 4.33094e-20)
(2.49804 1.44451 2.88569e-19)
(2.47787 0.884576 -7.28509e-20)
(2.53761 1.12833 -3.16967e-19)
(2.65506 0.827673 9.67937e-20)
(2.61023 0.627733 1.54112e-19)
(3.847 2.99564 3.28457e-20)
(3.94725 2.78451 -4.94456e-19)
(3.75401 2.97968 -1.28066e-19)
(3.75 3.01298 5.46737e-20)
(3.62635 2.93171 -8.75815e-20)
(3.69537 2.88474 -4.11087e-20)
(3.45623 2.84102 0)
(3.55183 2.85406 5.59943e-20)
(3.22689 2.67198 -1.00179e-19)
(3.3736 2.75026 0)
(2.96496 2.40398 -5.74004e-20)
(3.14461 2.56145 2.3044e-21)
(2.74802 2.08428 -1.50044e-19)
(2.91663 2.28044 -3.42493e-21)
(2.6378 1.75355 -1.19678e-19)
(2.78197 1.97854 -2.07814e-19)
(2.62842 1.42398 4.13587e-22)
(2.74422 1.65825 2.86582e-19)
(2.70001 1.10854 -1.44548e-19)
(2.78844 1.33782 -2.16822e-19)
(2.89771 1.00678 5.69713e-20)
(2.82716 0.816007 8.55425e-20)
(3.8133 2.88052 -5.28563e-19)
(3.90586 2.66357 -5.62972e-19)
(3.72986 2.86719 1.48606e-19)
(3.71755 2.90315 -7.78985e-19)
(3.62251 2.83127 9.25473e-20)
(3.67619 2.77057 2.80991e-20)
(3.48839 2.76977 6.18161e-20)
(3.55697 2.75967 4.7122e-19)
(3.31606 2.65591 1.01386e-19)
(3.42248 2.68977 0)
(3.11975 2.46726 5.82389e-20)
(3.26019 2.56444 3.27304e-19)
(2.96053 2.21332 -4.08701e-20)
(3.10386 2.35674 -2.36627e-19)
(2.8889 1.92271 1.55073e-19)
(3.02487 2.10458 9.25689e-20)
(2.89888 1.60557 1.28106e-19)
(3.02321 1.80879 1.41437e-19)
(2.96911 1.27786 -2.21714e-20)
(3.07975 1.4864 2.98943e-20)
(3.17256 1.12787 -5.05245e-20)
(3.07695 0.964251 -7.12313e-21)
(3.77878 2.76771 -7.8956e-19)
(3.86691 2.55264 0)
(3.70259 2.75356 -1.24029e-18)
(3.686 2.79368 -4.40667e-19)
(3.61202 2.72408 4.49485e-19)
(3.65369 2.65766 -3.02729e-19)
(3.50806 2.68193 4.57591e-19)
(3.55348 2.66242 3.5309e-19)
(3.38657 2.60674 1.91504e-19)
(3.4566 2.61817 0)
(3.26115 2.47794 8.56364e-20)
(3.35684 2.53786 2.14079e-19)
(3.17517 2.28247 -1.38289e-19)
(3.28319 2.38831 -1.61947e-19)
(3.15853 2.02911 7.42128e-20)
(3.27537 2.17645 4.643e-20)
(3.19995 1.7238 6.60941e-20)
(3.32372 1.89872 -3.95283e-21)
(3.27376 1.38342 -8.8391e-21)
(3.40193 1.57027 4.19523e-20)
(3.48642 1.18276 -4.56559e-20)
(3.35773 1.03218 7.96298e-20)
(3.74776 2.66039 3.85968e-19)
(3.83102 2.4582 -7.30714e-19)
(3.67432 2.64322 3.46743e-19)
(3.65315 2.68503 8.90836e-19)
(3.59556 2.62126 -3.74556e-19)
(3.62109 2.55833 -5.98922e-19)
(3.51615 2.59624 -6.61818e-20)
(3.53714 2.5782 4.19533e-21)
(3.44131 2.55215 0)
(3.47552 2.5578 9.46894e-20)
(3.38812 2.46713 0)
(3.43916 2.51007 0)
(3.38376 2.31406 3.38239e-22)
(3.45563 2.39398 9.248e-20)
(3.43465 2.08481 -2.65049e-20)
(3.53085 2.19933 1.20021e-19)
(3.51876 1.78147 -3.36499e-20)
(3.64011 1.9209 -5.86083e-20)
(3.60449 1.42358 -8.44578e-21)
(3.74705 1.5763 7.73181e-20)
(3.82291 1.15358 -9.57857e-21)
(3.68413 1.04475 -6.96358e-21)
(3.71959 2.56312 -3.83382e-19)
(3.79012 2.38235 -7.25123e-19)
(3.63311 2.54488 3.63274e-19)
(3.59874 2.5777 4.55303e-19)
(3.56225 2.53818 -2.84667e-19)
(3.56429 2.47852 -4.01436e-19)
(3.50631 2.53274 1.54358e-19)
(3.50152 2.50783 2.09501e-19)
(3.47819 2.51461 1.04551e-19)
(3.47792 2.49987 -3.25602e-21)
(3.50082 2.45308 8.24108e-20)
(3.51229 2.44702 1.55679e-19)
(3.58609 2.31257 2.09352e-19)
(3.6202 2.30255 3.16775e-20)
(3.71305 2.07842 9.69549e-20)
(3.77476 2.06108 2.16022e-19)
(3.84493 1.75698 2.34979e-20)
(3.93876 1.73714 -2.33549e-20)
(3.94446 1.37275 8.65385e-20)
(4.07401 1.36797 4.10973e-20)
(4.14374 0.934911 0)
(4.00623 0.96302 1.91367e-19)
(3.65386 2.47384 1.2436e-22)
(3.6851 2.30299 -7.54081e-19)
(3.56123 2.4591 -8.57208e-20)
(3.51335 2.46083 -1.57133e-19)
(3.50445 2.46514 2.39562e-20)
(3.48055 2.38348 -9.43202e-20)
(3.48185 2.46423 7.07306e-20)
(3.45404 2.39724 -3.60921e-21)
(3.51845 2.42873 2.55025e-20)
(3.48756 2.3398 -3.56902e-19)
(3.63679 2.31289 8.54042e-20)
(3.60395 2.18603 -1.05804e-19)
(3.81684 2.08576 -9.3259e-20)
(3.79243 1.92673 1.57141e-19)
(4.01035 1.7624 8.53364e-20)
(4.00005 1.61721 -2.45456e-19)
(4.17369 1.38913 1.23697e-20)
(4.18011 1.28632 1.65218e-19)
(4.27287 1.00119 -8.88697e-20)
(4.3146 0.946081 -1.44781e-19)
(4.37591 0.551547 1.34666e-19)
(4.30148 0.614159 0)
(3.52886 2.35921 -9.4564e-19)
(3.49881 2.21385 6.75022e-19)
(3.4541 2.34396 -1.70891e-19)
(3.39249 2.27867 -5.66092e-19)
(3.43773 2.3285 -1.46107e-19)
(3.40372 2.19465 -5.82081e-19)
(3.48034 2.26003 -4.07948e-19)
(3.44854 2.11013 4.69341e-19)
(3.59888 2.09598 -5.93978e-19)
(3.56583 1.91588 -1.91682e-19)
(3.78221 1.82476 -1.65958e-19)
(3.74724 1.64545 -9.1541e-20)
(3.98415 1.50188 -5.88854e-22)
(3.93958 1.35992 -1.08265e-19)
(4.16704 1.185 -2.75215e-19)
(4.11397 1.0929 6.92234e-20)
(4.32161 0.880413 4.24548e-20)
(4.27858 0.830279 9.02856e-20)
(4.43177 0.565711 4.67469e-20)
(4.43206 0.549533 -6.48803e-20)
(4.51739 0.20564 2.11338e-19)
(4.46284 0.243599 -1.04427e-19)
(3.3212 2.17192 1.25142e-18)
(3.28909 2.07544 1.1877e-18)
(3.37552 2.11704 -9.30239e-19)
(3.38665 1.98824 6.05667e-19)
(3.44475 1.98542 -6.10344e-20)
(3.47086 1.80952 -1.30713e-18)
(3.55774 1.76986 8.0881e-19)
(3.56659 1.61005 7.30252e-19)
(3.70955 1.50096 3.77147e-19)
(3.68773 1.37544 -4.87798e-20)
(3.87617 1.23643 2.28227e-21)
(3.81986 1.14778 3.10814e-19)
(4.04203 1.00364 -1.21669e-20)
(3.96271 0.945773 -3.05713e-19)
(4.20956 0.776729 4.23678e-19)
(4.12079 0.738803 1.79108e-19)
(4.37884 0.530611 0)
(4.29108 0.511923 -2.85784e-19)
(4.52802 0.256381 2.52106e-21)
(4.46718 0.256127 2.00001e-19)
(4.59533 -0.0631667 2.38613e-19)
(4.5971 -0.0360569 -1.07155e-19)
(3.47876 1.8358 2.75836e-19)
(3.6757 1.43128 2.17771e-18)
(3.55426 1.64392 3.07562e-19)
(3.57999 1.51781 6.57641e-19)
(3.62759 1.44476 -7.06993e-19)
(3.60295 1.36851 -6.37679e-19)
(3.7073 1.2421 -2.01733e-20)
(3.65197 1.20257 -2.10237e-19)
(3.79702 1.0574 -1.41895e-19)
(3.72444 1.03324 -3.90256e-19)
(3.90495 0.885557 7.01546e-20)
(3.82134 0.860714 -8.74973e-20)
(4.03541 0.705326 -1.92666e-19)
(3.93973 0.683227 9.79827e-20)
(4.18864 0.503997 -4.9407e-19)
(4.07763 0.488387 -4.54944e-21)
(4.35959 0.271124 -1.41392e-19)
(4.2323 0.265325 -2.78157e-19)
(4.53244 0.00427242 4.28408e-19)
(4.40184 0.00923088 1.96681e-19)
(4.53937 -0.303064 2.84522e-19)
(4.65278 -0.266586 2.31443e-19)
(5.14366 1.69432 -6.44838e-19)
(3.74448 2.3985 1.39871e-18)
(4.47348 1.0568 7.49588e-20)
(3.97668 1.87832 -5.0059e-21)
(4.02876 0.597294 8.16438e-19)
(3.87767 1.32596 3.76011e-19)
(3.65573 0.295187 -7.13602e-20)
(3.66878 0.863124 1.63505e-19)
(3.33238 0.10317 0)
(3.41333 0.52283 0)
(3.05405 -0.0201053 0)
(3.15013 0.283181 0)
(2.81533 -0.104786 0)
(2.90281 0.116756 0)
(2.60884 -0.169351 2.45973e-20)
(2.68153 -0.00234097 -2.89951e-20)
(2.42684 -0.222977 8.00856e-20)
(2.48547 -0.0927679 -9.23737e-20)
(2.26165 -0.269835 6.03824e-20)
(2.31114 -0.163451 -3.49406e-20)
(2.15881 -0.213139 1.97919e-19)
(2.09958 -0.300873 0)
(3.00725 2.83868 1.88698e-18)
(1.9769 2.94766 -3.41519e-19)
(3.3706 2.22654 -1.13983e-19)
(2.56194 2.48724 2.08889e-18)
(3.44769 1.61927 -2.09014e-19)
(2.94807 2.06434 -4.4416e-19)
(3.36887 1.10649 -4.06384e-20)
(3.11754 1.5707 -6.46562e-19)
(3.19906 0.709873 0)
(3.10439 1.12462 1.74693e-19)
(2.98833 0.424419 0)
(2.98352 0.760797 -4.74717e-20)
(2.77173 0.224364 -2.44821e-20)
(2.80689 0.485519 3.51175e-20)
(2.56805 0.0818047 -1.71987e-19)
(2.61529 0.28242 2.90052e-20)
(2.38259 -0.0244285 -2.70061e-19)
(2.42952 0.131175 -9.44868e-20)
(2.21337 -0.108146 7.70829e-20)
(2.25666 0.0178583 -7.30969e-20)
(2.09954 -0.0579652 3.03681e-20)
(2.03749 -0.169607 -1.72248e-21)
(1.7371 2.57232 -5.25441e-19)
(1.16143 2.68169 -6.13263e-19)
(2.24694 2.43152 1.86796e-18)
(1.69548 2.36807 1.18709e-18)
(2.63988 2.08967 -9.55312e-19)
(2.08133 2.24009 9.09151e-21)
(2.83929 1.64865 -4.97315e-19)
(2.41732 1.93104 -9.3352e-19)
(2.86986 1.21844 1.45505e-19)
(2.61583 1.54804 8.09471e-19)
(2.78899 0.853431 -2.15991e-20)
(2.66424 1.16514 -6.96731e-20)
(2.64663 0.565862 1.47041e-19)
(2.59898 0.83369 3.37312e-20)
(2.48094 0.349526 2.03799e-19)
(2.47614 0.566709 8.46484e-20)
(2.31344 0.188475 1.28143e-19)
(2.32985 0.359219 1.01684e-19)
(2.15327 0.0673938 -1.30767e-19)
(2.17918 0.20142 -4.55812e-20)
(2.03462 0.0937574 -1.06743e-20)
(1.98321 -0.0181831 -1.30935e-19)
(1.2632 2.2439 9.7071e-19)
(0.942636 2.3391 1.12675e-18)
(1.55489 2.25941 -7.81909e-19)
(1.31376 2.08525 1.01619e-18)
(1.89231 2.13866 -1.10482e-19)
(1.54242 2.1308 -8.29645e-19)
(2.20898 1.88911 2.47927e-19)
(1.83895 2.00496 -4.93312e-19)
(2.41567 1.54771 6.62075e-19)
(2.09395 1.76465 4.55556e-19)
(2.48042 1.18495 -2.68821e-20)
(2.25303 1.45176 -2.2004e-19)
(2.43537 0.862492 -3.26528e-20)
(2.30449 1.12468 0)
(2.33217 0.599064 -1.78683e-20)
(2.26775 0.827199 -1.88695e-19)
(2.20353 0.392689 -8.31877e-20)
(2.17945 0.575941 1.38678e-19)
(2.06734 0.233935 3.63176e-20)
(2.06678 0.375827 -1.00243e-19)
(1.94247 0.236271 1.45705e-19)
(1.89947 0.113385 -1.1653e-19)
(1.11251 1.96753 1.28453e-18)
(0.941062 2.06233 1.05245e-18)
(1.27431 2.02446 8.54826e-19)
(1.18961 1.84694 1.99179e-18)
(1.49279 2.02209 -1.21459e-18)
(1.3016 1.95884 -1.61338e-18)
(1.73061 1.92376 -2.49385e-19)
(1.50365 1.93352 -1.05064e-19)
(1.93916 1.71909 -3.03949e-19)
(1.70562 1.81621 2.8718e-19)
(2.08227 1.43755 -1.72798e-19)
(1.86723 1.61076 -5.48703e-19)
(2.14127 1.1284 -1.34261e-19)
(1.96576 1.34379 -2.11993e-19)
(2.12291 0.835303 -5.35939e-20)
(1.99429 1.05893 2.19897e-20)
(2.05441 0.584532 1.47941e-19)
(1.96958 0.787354 1.1668e-19)
(1.95796 0.383955 -7.72863e-21)
(1.91008 0.550766 2.68931e-20)
(1.82967 0.372582 -6.82976e-20)
(1.82285 0.234983 -3.74421e-20)
(1.11435 1.78083 1.89671e-18)
(1.05259 1.88578 3.20619e-19)
(1.18122 1.83343 -6.63924e-19)
(1.19591 1.69264 3.44149e-20)
(1.31107 1.87112 -6.73238e-19)
(1.21987 1.81458 -1.6514e-19)
(1.47062 1.84977 3.89194e-19)
(1.33623 1.82865 0)
(1.62687 1.74553 9.60173e-20)
(1.46502 1.77944 4.71899e-19)
(1.75023 1.56087 -6.15773e-19)
(1.58344 1.653 -1.225e-19)
(1.8237 1.31747 -4.73472e-20)
(1.67046 1.45594 -4.1017e-19)
(1.84613 1.04982 1.96849e-19)
(1.7163 1.21267 -8.59796e-20)
(1.8282 0.787857 6.41965e-21)
(1.72515 0.95162 3.46358e-19)
(1.78355 0.551666 -3.10061e-20)
(1.70541 0.699958 -1.18332e-19)
(1.6637 0.493967 -3.48918e-20)
(1.70033 0.349451 -2.30259e-20)
(1.20952 1.68384 -1.32793e-18)
(1.23425 1.7992 -6.41349e-19)
(1.1961 1.71574 5.20548e-19)
(1.27751 1.61972 -5.14971e-19)
(1.24795 1.75984 4.93978e-19)
(1.23397 1.72636 7.1254e-19)
(1.32981 1.76647 3.15376e-20)
(1.27645 1.74705 2.81983e-19)
(1.42045 1.71051 2.72094e-19)
(1.33065 1.72543 -1.70739e-19)
(1.50149 1.58283 8.44889e-20)
(1.38616 1.6403 2.61781e-19)
(1.55959 1.39043 -4.48601e-19)
(1.43083 1.48748 -4.18335e-19)
(1.5906 1.15521 7.21116e-20)
(1.46012 1.27972 4.56015e-20)
(1.59771 0.904015 2.16627e-19)
(1.47592 1.03877 3.3932e-19)
(1.58799 0.661134 -1.31405e-19)
(1.48058 0.789718 -1.21621e-19)
(1.47225 0.572289 6.21552e-20)
(1.55267 0.441068 -3.47973e-19)
(1.35615 1.65769 -3.61801e-19)
(1.43628 1.76931 -2.63708e-19)
(1.27848 1.66263 -5.58357e-20)
(1.39916 1.60453 -2.04588e-19)
(1.26413 1.69747 5.45738e-19)
(1.30742 1.6841 1.20598e-19)
(1.27505 1.70724 1.37845e-19)
(1.28731 1.69737 4.44364e-19)
(1.29633 1.6689 -2.25168e-19)
(1.27358 1.68148 -1.91412e-19)
(1.31827 1.57009 -1.96817e-19)
(1.26291 1.61364 0)
(1.33566 1.41021 6.10179e-20)
(1.25111 1.48511 -2.89905e-19)
(1.34874 1.20216 3.3684e-19)
(1.24215 1.3016 2.56747e-19)
(1.35901 0.966842 -3.35774e-21)
(1.24261 1.07879 0)
(1.36848 0.726163 5.73085e-20)
(1.25295 0.837499 -1.01873e-19)
(1.26542 0.61888 1.36683e-19)
(1.36639 0.496512 4.33676e-20)
(1.52686 1.66834 -3.50174e-19)
(1.64589 1.76422 -2.74228e-19)
(1.40309 1.64978 1.31054e-19)
(1.5445 1.61981 2.34412e-19)
(1.33561 1.66935 -5.22137e-20)
(1.42114 1.66825 -1.69971e-19)
(1.28539 1.67093 1.87668e-19)
(1.34951 1.66952 2.57525e-19)
(1.24128 1.63413 1.29804e-20)
(1.27752 1.64853 -1.75384e-19)
(1.19927 1.54619 -5.32921e-20)
(1.20448 1.58401 -1.24286e-19)
(1.1624 1.40291 -9.07588e-20)
(1.13078 1.46518 8.90928e-20)
(1.13922 1.21222 -3.06182e-20)
(1.06946 1.29474 -9.42753e-20)
(1.1355 0.990731 -7.02067e-20)
(1.03688 1.08364 0)
(1.15107 0.759714 -2.1556e-20)
(1.03893 0.848722 6.0761e-21)
(1.05917 0.631624 -6.755e-20)
(1.17599 0.53344 -1.14729e-19)
(1.70499 1.69219 2.61813e-20)
(1.85395 1.76773 7.33573e-21)
(1.55262 1.65541 -3.20972e-20)
(1.70347 1.64853 3.18548e-21)
(1.44591 1.65886 4.75411e-20)
(1.56473 1.66596 -2.26719e-20)
(1.34715 1.64792 -6.64028e-20)
(1.45227 1.65422 1.26104e-19)
(1.2475 1.60482 -3.22928e-19)
(1.33314 1.62238 -2.32943e-19)
(1.14417 1.51637 -6.29048e-21)
(1.20625 1.55212 -7.33255e-20)
(1.04549 1.37757 1.12184e-19)
(1.07284 1.43279 6.47477e-20)
(0.971281 1.19452 -6.6097e-20)
(0.951 1.26588 -3.02333e-20)
(0.937734 0.979664 7.56851e-20)
(0.868808 1.05769 0)
(0.944984 0.752647 -6.53781e-20)
(0.847105 0.824012 8.51458e-20)
(0.862558 0.602576 -6.12345e-20)
(0.976671 0.522314 -2.50938e-19)
(1.88968 1.71708 -1.19601e-20)
(2.05923 1.77742 2.07762e-20)
(1.72107 1.67009 4.30562e-20)
(1.87506 1.68794 -4.55675e-20)
(1.58649 1.65832 4.06452e-20)
(1.73109 1.6747 -6.01395e-20)
(1.45004 1.63244 -8.75239e-21)
(1.58784 1.64903 7.8877e-20)
(1.30531 1.57761 -2.37707e-21)
(1.43266 1.60263 -1.10219e-20)
(1.15072 1.48182 -1.60597e-20)
(1.2627 1.52007 1.20907e-19)
(0.994238 1.33967 -6.69893e-20)
(1.0789 1.3916 -1.23638e-19)
(0.859194 1.15335 3.26972e-20)
(0.897618 1.21697 5.58206e-20)
(0.777143 0.935492 0)
(0.754063 1.00297 -3.68539e-20)
(0.761013 0.705409 3.61817e-20)
(0.689536 0.764905 1.27395e-20)
(0.69362 0.530263 4.07565e-20)
(0.786151 0.470821 9.20837e-21)
(2.06715 1.74907 -6.69292e-21)
(2.24889 1.78278 9.24912e-21)
(1.89762 1.69405 -1.13609e-19)
(2.04453 1.7289 1.67894e-19)
(1.74811 1.66629 -3.19703e-20)
(1.90656 1.69035 -2.10093e-19)
(1.58604 1.62462 8.49469e-20)
(1.7467 1.65205 -2.06654e-20)
(1.40732 1.55457 1.01679e-19)
(1.5674 1.58935 1.42384e-19)
(1.21108 1.44438 4.87146e-20)
(1.3657 1.49022 1.68429e-19)
(1.00498 1.28845 -2.07772e-20)
(1.1428 1.34525 -3.72181e-20)
(0.813354 1.09005 -2.06831e-20)
(0.912529 1.15264 5.59606e-20)
(0.67461 0.862436 -2.5817e-20)
(0.709566 0.922064 -1.59163e-19)
(0.619186 0.622527 1.41729e-20)
(0.587542 0.669955 1.043e-19)
(0.56478 0.42465 -7.84924e-20)
(0.6422 0.394393 3.51703e-22)
(2.23582 1.7785 1.66937e-19)
(2.42696 1.78443 -1.78834e-19)
(2.07464 1.72144 5.26611e-20)
(2.21051 1.7687 2.11511e-19)
(1.92047 1.68096 -2.1801e-19)
(2.08568 1.71054 -1.3861e-19)
(1.74583 1.62359 1.73593e-20)
(1.91971 1.65989 -7.29414e-20)
(1.5462 1.5361 2.10908e-19)
(1.72845 1.58085 1.39678e-19)
(1.32079 1.40749 1.15413e-19)
(1.50831 1.4631 9.63002e-20)
(1.07644 1.23093 3.139e-20)
(1.25934 1.29692 -1.0607e-19)
(0.836039 1.00947 -7.62678e-20)
(0.993183 1.07936 -2.18844e-19)
(0.6417 0.759494 -2.98838e-20)
(0.742122 0.820874 1.166e-19)
(0.53552 0.502747 3.19589e-20)
(0.563209 0.544246 9.18554e-20)
(0.4899 0.274369 -1.38049e-19)
(0.524833 0.242173 -6.00728e-20)
(2.39831 1.80457 -1.73319e-19)
(2.59876 1.79079 -2.14234e-19)
(2.25019 1.74968 0)
(2.37248 1.80927 0)
(2.09879 1.69872 0)
(2.26402 1.73389 2.86022e-19)
(1.92164 1.627 2.21476e-20)
(2.10073 1.67132 -2.21744e-19)
(1.71347 1.52174 2.72729e-20)
(1.90855 1.57608 -5.62146e-20)
(1.47316 1.37203 -9.7554e-20)
(1.68318 1.43803 0)
(1.20557 1.17044 -3.53164e-19)
(1.42328 1.24776 1.36413e-19)
(0.930471 0.91919 -6.69886e-20)
(1.13748 1.00108 -4.62556e-19)
(0.689295 0.636346 2.65979e-19)
(0.853812 0.707937 2.77311e-19)
(0.531852 0.348673 -1.28292e-20)
(0.625328 0.397454 0)
(0.511667 0.0885852 -1.44692e-20)
(0.494873 0.0857808 4.02956e-19)
(2.55194 1.83195 -6.2323e-20)
(2.75669 1.79457 3.27649e-19)
(2.4201 1.77903 2.5709e-19)
(2.52638 1.84636 -3.81864e-19)
(2.27691 1.718 1.44531e-19)
(2.43665 1.75633 6.2679e-19)
(2.10601 1.63218 -3.18506e-19)
(2.28301 1.68181 -1.43133e-19)
(1.90125 1.50873 -9.09782e-20)
(2.09971 1.57059 -8.23117e-20)
(1.66048 1.33662 2.25295e-19)
(1.88233 1.412 0)
(1.38658 1.10768 9.8549e-20)
(1.62782 1.19669 4.45043e-19)
(1.0952 0.823193 -1.98885e-19)
(1.3413 0.919668 -5.89172e-19)
(0.823379 0.502386 2.34812e-20)
(1.04515 0.590123 2.11958e-20)
(0.620173 0.178417 0)
(0.783711 0.243717 0)
(0.638614 -0.108201 2.11499e-19)
(0.541063 -0.103719 -4.10742e-20)
(2.69659 1.8562 7.65706e-20)
(2.90489 1.79838 9.51543e-19)
(2.5828 1.80541 4.79705e-20)
(2.67388 1.87697 -1.47399e-18)
(2.45142 1.73438 4.45866e-19)
(2.60249 1.77424 1.19002e-18)
(2.29369 1.63462 8.63455e-20)
(2.46367 1.68685 -3.37243e-19)
(2.10296 1.49312 0)
(2.29744 1.55969 0)
(1.87616 1.29865 1.6471e-19)
(2.10003 1.38124 0)
(1.61392 1.04262 -1.31862e-19)
(1.86704 1.14237 -4.15352e-19)
(1.32708 0.725681 -4.29421e-19)
(1.60013 0.83756 -2.69959e-19)
(1.04627 0.367968 0)
(1.31554 0.47462 4.81713e-19)
(0.816711 0.00858166 1.88491e-19)
(1.04734 0.0928502 5.10394e-19)
(0.88044 -0.286378 -3.00358e-19)
(0.683201 -0.301326 3.74562e-19)
(2.83435 1.87598 2.6824e-20)
(3.0454 1.80449 9.88692e-19)
(2.73869 1.82547 -2.55107e-19)
(2.81591 1.89906 -1.08542e-18)
(2.62151 1.74346 5.93672e-19)
(2.76152 1.7841 8.42776e-19)
(2.4823 1.62924 -4.59743e-19)
(2.64152 1.68222 -8.40718e-19)
(2.31466 1.4701 0)
(2.49897 1.53913 3.25571e-19)
(2.11501 1.25491 -5.3568e-19)
(2.33155 1.3427 0)
(1.88211 0.975012 -5.60877e-19)
(2.1344 1.08409 -8.56017e-19)
(1.62198 0.62996 5.69626e-19)
(1.90613 0.757431 1.12275e-19)
(1.35775 0.237901 9.91221e-19)
(1.65601 0.367795 5.1373e-19)
(1.13249 -0.1656 5.13012e-20)
(1.40455 -0.0506805 4.48628e-19)
(1.23031 -0.473089 -4.87371e-19)
(0.992594 -0.544727 -3.18544e-19)
(2.96549 1.89129 4.6193e-19)
(3.17605 1.80977 1.29002e-18)
(2.88735 1.83621 0)
(2.95092 1.90813 -6.91762e-19)
(2.78656 1.741 -3.80341e-19)
(2.91234 1.7813 0)
(2.6701 1.61166 -1.8966e-19)
(2.81423 1.66434 -4.21436e-19)
(2.53263 1.43613 3.59063e-19)
(2.70027 1.50642 7.2549e-19)
(2.37092 1.20383 -2.20552e-19)
(2.57042 1.29525 -3.03688e-19)
(2.18264 0.906348 -2.95894e-19)
(2.42055 1.02277 -2.78942e-19)
(1.96927 0.542123 -6.10224e-21)
(2.24725 0.68337 -6.60383e-20)
(1.74385 0.126625 -7.33162e-20)
(2.05374 0.280138 1.09164e-20)
(1.53265 -0.303973 -1.24718e-19)
(1.84921 -0.15568 6.5576e-20)
(1.7022 -0.599375 2.85191e-19)
(1.37721 -0.692055 -5.37728e-19)
(3.08769 1.89733 8.32343e-19)
(3.29264 1.80929 1.40283e-18)
(3.02629 1.83241 -7.55703e-19)
(3.0754 1.89934 -7.00362e-19)
(2.94384 1.7232 0)
(3.05124 1.76282 -6.97271e-19)
(2.85304 1.57982 3.58053e-19)
(2.9767 1.63222 -3.05325e-20)
(2.75053 1.3907 1.75383e-19)
(2.89432 1.46142 8.29255e-19)
(2.63464 1.14633 -3.64239e-19)
(2.80712 1.23918 -6.63544e-19)
(2.50302 0.839442 -8.03971e-20)
(2.71275 0.959543 2.7122e-19)
(2.35379 0.467756 -5.58366e-20)
(2.60666 0.618021 2.72063e-21)
(2.19289 0.0421319 1.41436e-19)
(2.48744 0.214438 0)
(2.04311 -0.410796 4.23921e-19)
(2.35515 -0.232151 1.04368e-19)
(2.2557 -0.703563 1.73751e-19)
(1.94034 -0.8626 -2.66382e-19)
(3.19631 1.88818 5.71234e-19)
(3.38974 1.79814 2.61634e-18)
(3.15042 1.81124 -6.45966e-19)
(3.18482 1.87079 -1.07629e-18)
(3.0873 1.68966 -7.96888e-19)
(3.17225 1.72776 -5.96172e-19)
(3.02346 1.53449 3.43638e-19)
(3.12171 1.58549 5.52706e-19)
(2.95867 1.33471 1.53935e-19)