/*--------------------------------*- C++ -*----------------------------------*\
| =========                 |                                                 |
| \\      /  F ield         | OpenFOAM: The Open Source CFD Toolbox           |
|  \\    /   O peration     | Version:  3.0.1                                 |
|   \\  /    A nd           | Web:      www.OpenFOAM.org                      |
|    \\/     M anipulation  |                                                 |
\*---------------------------------------------------------------------------*/
FoamFile
{
    version     2.0;
    format      ascii;
    class       volScalarField;
    location    "0.412134";
    object      p;
}
// * * * * * * * * * * * * * * * * * * * * * * * * * * * * * * * * * * * * * //

dimensions      [0 2 -2 0 0 0 0];

internalField   nonuniform List<scalar> 
21246
(
-0.119645
0.105312
0.207547
0.250426
0.257482
0.24228
0.212868
0.1757
0.135266
0.0986102
0.083242
-0.877608
-0.525448
-0.315053
-0.156859
-0.0499706
0.0122728
0.0401888
0.0445521
0.0338191
0.0173525
0.0112202
-1.36605
-1.0351
-0.819424
-0.608118
-0.425072
-0.285089
-0.189375
-0.130652
-0.0998839
-0.0864643
-0.073549
-1.64794
-1.37467
-1.1948
-0.985511
-0.776987
-0.592007
-0.443195
-0.332905
-0.257194
-0.207388
-0.169286
-1.8167
-1.58824
-1.44643
-1.25945
-1.05817
-0.861355
-0.684614
-0.537684
-0.423761
-0.33898
-0.27159
-1.9363
-1.7267
-1.61547
-1.44875
-1.26477
-1.0742
-0.889781
-0.723345
-0.582871
-0.469658
-0.375626
-2.02265
-1.81724
-1.73461
-1.57894
-1.41115
-1.23239
-1.05095
-0.87756
-0.721745
-0.588047
-0.471971
-2.06031
-1.88418
-1.81636
-1.66485
-1.51087
-1.34397
-1.1694
-0.996162
-0.833347
-0.686825
-0.553836
-2.08626
-1.93384
-1.84895
-1.71511
-1.57349
-1.41651
-1.2495
-1.07976
-0.91517
-0.761926
-0.617722
-2.10449
-1.95555
-1.86712
-1.74359
-1.60782
-1.45787
-1.29734
-1.13197
-0.968201
-0.812145
-0.661806
-2.10294
-1.95605
-1.86967
-1.75079
-1.61895
-1.47398
-1.31861
-1.15713
-0.995143
-0.838557
-0.683652
-2.07791
-1.93531
-1.8526
-1.73745
-1.60903
-1.46792
-1.31647
-1.1585
-0.999024
-0.843028
-0.687555
-2.0446
-1.90194
-1.82016
-1.70683
-1.58057
-1.44215
-1.29371
-1.13883
-0.982156
-0.828194
-0.672794
-2.00513
-1.85871
-1.77562
-1.66228
-1.53671
-1.39975
-1.25348
-1.10134
-0.947755
-0.79691
-0.64318
-1.94455
-1.7985
-1.7163
-1.6032
-1.47798
-1.34199
-1.19759
-1.04841
-0.89871
-0.752488
-0.602275
-1.87337
-1.72605
-1.64349
-1.53005
-1.4048
-1.26965
-1.12747
-0.982182
-0.837851
-0.698204
-0.554465
-1.79513
-1.64334
-1.55828
-1.4436
-1.31791
-1.18396
-1.04524
-0.905879
-0.769075
-0.637706
-0.501785
-1.69837
-1.5442
-1.45748
-1.34183
-1.21606
-1.08465
-0.952094
-0.822404
-0.697001
-0.576792
-0.448053
-1.58585
-1.42892
-1.3396
-1.22275
-1.09778
-0.971901
-0.850481
-0.736052
-0.626744
-0.520526
-0.401447
-1.45765
-1.29613
-1.20171
-1.08325
-0.961858
-0.848173
-0.746691
-0.655228
-0.566317
-0.474771
-0.36845
-1.30866
-1.13831
-1.03552
-0.917741
-0.809037
-0.721604
-0.653558
-0.593075
-0.525948
-0.44556
-0.345828
-1.1234
-0.937085
-0.82607
-0.722901
-0.650959
-0.613552
-0.593742
-0.567076
-0.515864
-0.436942
-0.332471
-0.893856
-0.680045
-0.579689
-0.535973
-0.538291
-0.570563
-0.600612
-0.595887
-0.54435
-0.452962
-0.338493
-0.604673
-0.265096
-0.317846
-0.403322
-0.502235
-0.60501
-0.67008
-0.664934
-0.597508
-0.480371
-0.348264
0.540264
0.585501
0.587112
0.537307
0.470453
0.405664
0.338252
0.270071
0.203061
0.148396
0.124045
0.524597
0.59745
0.646377
0.654102
0.606943
0.537773
0.459181
0.367228
0.266766
0.182139
0.141254
0.255002
0.335466
0.422617
0.483738
0.497915
0.459981
0.412434
0.363013
0.291257
0.187421
0.123028
-0.113045
-0.068525
0.0180459
0.0948518
0.14712
0.147568
0.113115
0.0953881
0.0989644
0.074832
0.0450296
-0.528016
-0.544342
-0.489202
-0.44467
-0.411682
-0.40039
-0.424608
-0.431374
-0.378253
-0.289516
-0.21188
-0.931761
-1.03542
-1.03634
-1.06466
-1.10548
-1.15183
-1.20328
-1.22472
-1.14555
-0.957509
-0.710922
-1.28221
-1.48884
-1.56352
-1.69444
-1.84841
-2.01633
-2.16727
-2.25983
-2.1942
-1.93703
-1.54114
-1.58667
-1.88403
-2.03275
-2.2784
-2.56281
-2.88363
-3.20747
-3.44116
-3.46126
-3.18368
-2.64369
-1.82404
-2.20496
-2.41887
-2.77806
-3.19376
-3.67686
-4.19883
-4.63912
-4.83333
-4.59632
-3.98806
-1.95143
-2.44119
-2.69201
-3.15343
-3.68933
-4.32469
-5.0374
-5.72378
-6.13894
-5.9914
-5.30927
-1.96166
-2.56746
-2.8088
-3.36959
-4.0098
-4.77413
-5.64899
-6.55772
-7.18909
-7.2089
-6.5166
-1.89634
-2.48396
-2.83473
-3.41941
-4.1268
-4.98792
-5.96598
-7.00587
-7.84047
-8.08148
-7.3941
-1.70486
-2.26348
-2.68165
-3.28292
-4.03349
-4.94008
-5.97712
-7.07158
-8.01926
-8.33983
-7.67839
-1.35644
-1.88455
-2.33396
-2.9378
-3.69707
-4.6154
-5.6632
-6.75438
-7.68307
-8.03028
-7.5071
-0.892963
-1.36703
-1.81395
-2.39794
-3.13613
-4.02945
-5.03736
-6.05768
-6.89594
-7.25585
-6.85374
-0.31502
-0.729996
-1.15982
-1.71398
-2.41612
-3.26177
-4.19605
-5.10012
-5.79595
-6.09347
-5.85063
0.350908
-0.0243113
-0.444198
-0.974684
-1.63829
-2.42259
-3.2602
-4.02334
-4.55192
-4.73804
-4.56798
0.998535
0.625167
0.193753
-0.324097
-0.945511
-1.65319
-2.37721
-2.99111
-3.34954
-3.39327
-3.25303
1.43262
1.02966
0.578831
0.0901674
-0.460002
-1.07054
-1.67942
-2.15886
-2.36479
-2.25985
-1.99533
1.54124
1.13099
0.695755
0.257713
-0.221464
-0.752453
-1.27566
-1.65509
-1.73029
-1.45934
-0.95062
1.42315
1.02595
0.618219
0.198975
-0.260053
-0.753958
-1.22449
-1.53742
-1.51639
-1.12024
-0.474558
1.07788
0.677079
0.288234
-0.0981448
-0.507883
-0.942692
-1.34993
-1.54308
-1.34076
-0.888872
-0.440219
0.604401
0.194679
-0.133788
-0.43654
-0.762314
-1.08681
-1.2754
-1.23817
-1.00126
-0.685521
-0.401486
-0.135362
-0.439716
-0.566673
-0.701195
-0.838855
-0.930034
-0.959567
-0.898748
-0.73961
-0.549767
-0.371847
26.1951
19.2069
14.6336
11.5309
9.32875
7.69628
6.41753
5.38654
4.55437
3.90655
3.47041
21.5538
20.8147
18.5636
15.7682
13.0083
10.604
8.65647
7.12411
5.91799
4.98269
4.32397
16.0939
17.7303
17.4585
16.3031
14.4384
12.3501
10.3205
8.54544
7.07108
5.89685
5.05939
10.2724
13.0743
13.7309
14.1145
13.5618
12.4233
10.8602
9.26157
7.79263
6.541
5.57961
6.28576
9.05667
9.67302
11.007
11.2892
10.9879
10.2489
9.17086
7.97809
6.84274
5.9185
3.83977
6.26999
6.66726
8.1048
8.84647
9.18479
9.02392
8.47109
7.66989
6.78009
5.98248
2.59199
4.26267
4.79429
5.98978
6.78892
7.39459
7.61706
7.47907
7.04804
6.44231
5.82301
2.17594
3.18482
3.63873
4.59246
5.29445
5.94024
6.3318
6.44852
6.29495
5.93982
5.52744
1.92366
2.6751
2.98981
3.73204
4.29932
4.88499
5.30823
5.54401
5.56263
5.39228
5.14278
1.62466
2.32719
2.59154
3.20622
3.66252
4.16553
4.55799
4.82794
4.93408
4.88104
4.74849
1.62569
2.21034
2.40283
2.91475
3.27544
3.69655
4.03518
4.29493
4.43257
4.43993
4.38315
2.00155
2.36442
2.43421
2.82324
3.08042
3.41635
3.69007
3.91671
4.05358
4.08751
4.06741
2.24637
2.51359
2.53629
2.83905
3.01056
3.27
3.47772
3.6608
3.77783
3.81515
3.81411
2.3013
2.5837
2.62309
2.88361
3.00117
3.20418
3.35451
3.49318
3.58057
3.60354
3.60008
2.59901
2.77335
2.75677
2.95893
3.02847
3.18507
3.28732
3.38474
3.43899
3.43869
3.41608
2.81053
2.92498
2.8838
3.04328
3.07664
3.19428
3.25685
3.31657
3.33616
3.30744
3.26033
2.84434
2.98187
2.96683
3.11154
3.12929
3.21842
3.25058
3.27576
3.25978
3.19843
3.11228
2.99301
3.09637
3.06746
3.18441
3.19028
3.256
3.26349
3.25508
3.20124
3.10368
2.9811
3.14436
3.21205
3.16899
3.26205
3.26345
3.31138
3.29581
3.25034
3.153
3.01451
2.85567
3.23298
3.28065
3.24557
3.33823
3.3547
3.38947
3.35042
3.25756
3.10605
2.91749
2.71152
3.28859
3.32871
3.32227
3.44325
3.49092
3.50719
3.42558
3.26582
3.04723
2.8041
2.55677
3.36407
3.41129
3.47458
3.65855
3.71335
3.6728
3.50765
3.2546
2.96018
2.66596
2.3884
3.30465
3.63949
3.81343
4.01646
3.99857
3.83214
3.54077
3.18443
2.82519
2.49532
2.19039
4.83714
4.58706
4.79789
4.71023
4.38656
3.95312
3.46713
3.00244
2.60645
2.27307
1.96127
0.435054
6.6831
7.70894
7.39349
6.4599
5.49554
4.64497
3.9312
3.33863
2.86973
2.57104
-28.5263
-12.5133
-5.86892
-1.12105
1.17745
2.0532
2.21337
2.09741
1.89748
1.7119
1.61286
-37.9015
-26.2025
-19.8651
-12.19
-6.7495
-3.30296
-1.41497
-0.439977
0.0409132
0.290308
0.478513
-37.321
-31.6821
-27.8742
-20.4927
-14.338
-9.28948
-5.79909
-3.56226
-2.18933
-1.34676
-0.748818
-33.8392
-31.5179
-29.7262
-24.3481
-19.2503
-14.075
-9.86579
-6.73036
-4.55175
-3.08893
-2.08454
-30.3713
-29.2831
-28.4027
-24.8531
-21.2111
-16.7991
-12.7513
-9.32571
-6.67412
-4.72683
-3.3477
-27.5299
-26.8668
-26.2421
-23.773
-21.2212
-17.736
-14.2692
-11.0179
-8.25981
-6.04811
-4.35293
-25.0803
-24.6258
-24.0699
-22.1911
-20.3055
-17.5552
-14.7068
-11.8286
-9.21365
-6.96799
-5.12718
-22.9778
-22.6002
-22.0609
-20.5245
-19.0308
-16.7862
-14.4421
-11.9548
-9.59095
-7.44894
-5.59601
-21.1659
-20.7711
-20.2302
-18.8889
-17.633
-15.7247
-13.7586
-11.6079
-9.51338
-7.55113
-5.77027
-19.5767
-19.1354
-18.5686
-17.3128
-16.2024
-14.5137
-12.8239
-10.9434
-9.09565
-7.33344
-5.71028
-17.9744
-17.5424
-16.9263
-15.7629
-14.7599
-13.2205
-11.7353
-10.0697
-8.43536
-6.85794
-5.40732
-16.432
-15.9515
-15.3132
-14.2709
-13.3063
-11.8791
-10.5481
-9.05746
-7.60882
-6.2055
-4.9052
-14.9942
-14.4354
-13.7837
-12.7959
-11.8145
-10.5031
-9.29063
-7.9479
-6.66389
-5.43329
-4.27308
-13.4825
-12.8837
-12.2435
-11.288
-10.3218
-9.09936
-7.97734
-6.76488
-5.63116
-4.57301
-3.58603
-11.992
-11.3372
-10.6979
-9.76274
-8.81536
-7.65985
-6.6132
-5.5218
-4.53406
-3.65224
-2.87149
-10.538
-9.81157
-9.15723
-8.22627
-7.27247
-6.19332
-5.20131
-4.22781
-3.39106
-2.68991
-2.09357
-9.06322
-8.26797
-7.59775
-6.66977
-5.70554
-4.67095
-3.73665
-2.89293
-2.22204
-1.70795
-1.2896
-7.56016
-6.69568
-6.00427
-5.07378
-4.08966
-3.08568
-2.22608
-1.53862
-1.06027
-0.748405
-0.516001
-6.03067
-5.09481
-4.36898
-3.41965
-2.40172
-1.43401
-0.692559
-0.207431
0.0458835
0.144556
0.182672
-4.45808
-3.46276
-2.66851
-1.66954
-0.618479
0.265292
0.797608
1.02184
1.02799
0.922808
0.804152
-2.93596
-1.73876
-0.828353
0.244057
1.25233
1.92882
2.1156
2.06642
1.8589
1.61074
1.39109
-0.765593
0.115676
1.28784
2.36389
3.02851
3.17794
2.9607
2.59674
2.19384
1.83467
1.62182
-1.29155
2.91884
3.78887
4.00174
4.03192
3.76959
3.30048
2.8241
2.42319
2.1054
1.87701
-1.90665
1.41268
2.23363
2.24999
1.92603
1.52027
1.13643
0.793801
0.491271
0.237011
0.076477
-19.4069
-9.68811
-5.88456
-3.15698
-1.52781
-0.749824
-0.433669
-0.344868
-0.363317
-0.423464
-0.459017
-22.0069
-15.7516
-12.7937
-8.98519
-5.91879
-3.84216
-2.56165
-1.82535
-1.41823
-1.18853
-1.03444
-18.845
-16.6049
-15.3249
-12.2302
-9.28122
-6.74628
-4.80739
-3.47517
-2.60943
-2.05048
-1.67125
-15.3325
-14.8295
-14.5387
-12.7232
-10.691
-8.49719
-6.50248
-4.90764
-3.73131
-2.89686
-2.28926
-12.7301
-12.6976
-12.6866
-11.7404
-10.5489
-8.97499
-7.3288
-5.82439
-4.57273
-3.60007
-2.84545
-10.7104
-10.8362
-10.8626
-10.3554
-9.67179
-8.62119
-7.40635
-6.17274
-5.03432
-4.06538
-3.2569
-9.03734
-9.22774
-9.2523
-8.98062
-8.58332
-7.89129
-7.03083
-6.08286
-5.1382
-4.27294
-3.50311
-7.75658
-7.86011
-7.87324
-7.737
-7.50528
-7.04987
-6.44759
-5.73722
-4.98325
-4.25096
-3.56367
-6.79288
-6.7984
-6.7844
-6.69876
-6.5463
-6.23566
-5.80845
-5.27739
-4.68406
-4.07951
-3.47889
-6.02308
-5.95448
-5.92099
-5.85209
-5.73531
-5.50873
-5.19323
-4.78915
-4.32143
-3.82978
-3.33182
-5.42967
-5.27621
-5.22605
-5.15907
-5.05791
-4.87968
-4.63306
-4.31472
-3.93936
-3.5355
-3.1183
-5.01956
-4.79156
-4.71703
-4.62843
-4.51736
-4.35482
-4.14186
-3.87459
-3.56173
-3.22296
-2.86804
-4.73975
-4.46636
-4.36273
-4.24041
-4.10214
-3.93005
-3.72244
-3.47759
-3.20169
-2.90886
-2.60677
-4.5111
-4.21086
-4.0767
-3.91956
-3.7538
-3.56719
-3.35481
-3.11692
-2.86076
-2.59929
-2.33635
-4.29667
-3.98458
-3.82529
-3.63929
-3.44918
-3.24771
-3.02535
-2.78415
-2.53496
-2.29332
-2.06471
-4.08751
-3.77558
-3.60172
-3.39922
-3.18983
-2.9726
-2.73225
-2.47614
-2.22156
-1.9889
-1.78365
-3.89017
-3.58692
-3.40658
-3.19763
-2.97493
-2.73558
-2.46926
-2.1871
-1.91735
-1.68753
-1.50399
-3.71533
-3.4281
-3.24856
-3.04083
-2.80605
-2.53732
-2.23116
-1.91154
-1.62134
-1.39182
-1.22688
-3.56697
-3.30103
-3.12862
-2.92448
-2.67206
-2.36115
-2.00343
-1.64514
-1.33923
-1.11161
-0.952277
-3.43558
-3.19961
-3.03938
-2.82826
-2.5409
-2.17493
-1.77033
-1.3935
-1.09274
-0.874204
-0.702206
-3.26897
-3.11146
-2.95439
-2.70761
-2.36064
-1.94335
-1.52663
-1.17804
-0.920794
-0.727462
-0.557963
-3.24199
-3.10414
-2.87143
-2.5232
-2.11004
-1.68965
-1.32694
-1.06162
-0.876346
-0.70209
-0.404086
-3.0272
-2.55647
-2.14592
-1.78817
-1.47771
-1.22658
-1.06953
-1.0041
-0.978031
-0.960494
-0.903431
16.934
11.8191
8.28911
5.95389
4.34493
3.21822
2.4113
1.76056
1.23561
0.822114
0.53722
13.5877
13.31
11.3721
9.05646
6.90481
5.16441
3.82047
2.78071
1.97813
1.37749
0.979418
8.70392
10.2013
10.151
9.3659
7.91235
6.24112
4.72834
3.49829
2.52862
1.79347
1.30405
4.27014
6.65061
7.39184
7.66946
7.22022
6.25921
5.02916
3.89085
2.87708
2.06663
1.53271
1.0953
3.3945
4.32508
5.26838
5.62064
5.42275
4.70123
3.83258
2.94376
2.17509
1.64149
-1.02296
0.915446
1.69371
2.84724
3.57604
3.91502
3.74206
3.29837
2.67824
2.05596
1.58148
-2.4028
-0.797765
-0.253175
0.890489
1.69525
2.28295
2.50693
2.43198
2.11214
1.69634
1.35969
-3.25515
-1.92878
-1.62884
-0.53404
0.175149
0.857942
1.28437
1.44964
1.39264
1.19602
1.00476
-3.90936
-2.70141
-2.64674
-1.55925
-0.983007
-0.302833
0.205836
0.526825
0.649652
0.624176
0.561016
-4.46407
-3.42533
-3.24576
-2.42584
-1.86494
-1.21793
-0.69104
-0.288024
-0.0407705
0.0753933
0.134232
-4.87987
-4.09746
-3.76667
-3.07013
-2.54246
-1.93279
-1.41059
-0.968949
-0.645451
-0.435806
-0.278247
-5.14966
-4.49579
-4.17713
-3.54897
-3.05451
-2.4801
-1.97062
-1.51275
-1.14456
-0.874289
-0.661555
-5.37518
-4.76348
-4.4693
-3.89092
-3.42598
-2.88174
-2.38775
-1.92634
-1.53428
-1.22425
-0.982891
-5.58382
-4.96277
-4.67185
-4.12221
-3.67763
-3.15688
-2.67757
-2.21952
-1.81785
-1.48477
-1.21841
-5.61331
-5.04027
-4.77712
-4.25568
-3.82712
-3.32526
-2.85782
-2.40612
-2.00371
-1.66069
-1.38878
-5.59069
-5.04994
-4.80331
-4.30607
-3.88742
-3.40159
-2.9429
-2.49906
-2.10166
-1.75901
-1.48709
-5.54989
-5.01725
-4.7681
-4.28644
-3.86847
-3.3942
-2.94166
-2.50752
-2.12064
-1.78826
-1.52404
-5.43616
-4.91718
-4.66397
-4.19626
-3.77262
-3.30596
-2.85903
-2.43846
-2.0695
-1.75916
-1.51173
-5.25241
-4.74805
-4.4866
-4.03055
-3.59681
-3.13567
-2.69779
-2.29832
-1.95713
-1.67831
-1.45845
-5.0133
-4.51514
-4.23368
-3.78269
-3.33555
-2.88137
-2.46202
-2.09602
-1.79503
-1.55784
-1.37406
-4.70615
-4.20352
-3.88903
-3.43774
-2.98147
-2.54511
-2.16251
-1.84674
-1.59821
-1.41013
-1.27219
-4.29487
-3.7774
-3.41657
-2.97013
-2.5283
-2.13693
-1.81777
-1.56912
-1.38011
-1.24161
-1.14648
-3.82579
-3.22354
-2.8227
-2.42359
-2.04528
-1.7327
-1.49454
-1.31255
-1.17246
-1.07233
-1.02097
-2.73009
-2.21994
-1.91338
-1.6679
-1.4509
-1.28394
-1.16045
-1.05494
-0.955936
-0.869209
-0.83569
-1.04589
-1.40599
-2.07333
-2.2803
-1.79679
-0.829297
-0.010886
0.438298
0.544151
-1.05987
-1.22749
-1.65321
-1.76542
-1.36553
-0.696125
-0.0690258
0.309837
0.379086
-1.03052
-1.16452
-1.54942
-1.64708
-1.31095
-0.661389
-0.132871
0.193057
0.24362
-0.985794
-1.08597
-1.40271
-1.43437
-1.13994
-0.635439
-0.19124
0.100741
0.114214
-1.08226
-1.16405
-1.32911
-1.65583
-2.14333
-2.33197
-1.95284
-1.03959
-0.046628
-1.08628
-1.15878
-1.27986
-1.47581
-1.77886
-1.87646
-1.52518
-0.884536
-0.093516
-1.06738
-1.13667
-1.23542
-1.41911
-1.68112
-1.76653
-1.5098
-0.842533
-0.156095
-1.03296
-1.09053
-1.17795
-1.33383
-1.51958
-1.55138
-1.26465
-0.810619
-0.228803
1.62982
1.60405
1.59587
-0.744926
-0.73225
1.33952
-1.0416
1.11913
1.32655
2.26154
-0.756209
1.12542
-0.590556
-0.193177
1.62588
0.569358
-0.154515
-0.762633
0.56796
1.71657
0.327221
-0.941643
0.795993
-0.2273
1.66684
-0.195517
-0.578976
-1.03091
-0.624253
-0.503586
-0.156094
0.809873
-0.0487274
0.715967
0.801263
1.59367
-0.233046
1.66355
-0.0447748
1.091
-0.688151
0.723253
-0.0593855
0.803305
-0.799113
-1.51637
-0.591557
-1.30675
1.32532
1.07051
-0.49333
1.10008
-0.00102782
-0.0777734
1.04891
0.333738
-0.922242
1.06905
-0.455463
-0.123352
-0.118893
0.000331554
-0.778746
-0.734388
-0.928463
1.70667
-0.23636
1.13522
1.58947
2.22675
-0.266508
2.46978
-0.882549
2.63235
-0.354928
2.28906
-0.851207
0.746754
-0.848383
-1.02038
-0.346595
-0.735252
1.65754
1.65719
-0.130436
-0.888382
-0.430177
0.013948
-0.764805
-0.245993
1.568
1.06107
-0.770313
1.87403
-1.01512
-1.13766
-0.352728
-0.481976
-0.726328
2.55293
0.167423
-1.22262
1.85839
0.216506
-0.69084
1.46071
-0.0244663
1.65353
-0.0922974
-0.00130142
0.819548
0.718722
1.99183
-0.73446
-0.679395
1.65693
1.04771
0.659415
1.17462
1.63211
-0.72578
2.7339
-0.167238
-0.174816
-1.44826
-0.530321
-0.0960196
-0.0244446
-0.0136273
-0.0689704
0.929257
-0.135254
-1.27827
2.3391
1.51994
-0.231039
-0.85498
-0.726171
-0.517535
1.52004
-0.0112352
0.216176
-0.855564
1.23886
1.02498
-0.742954
-0.475913
1.12092
2.50085
0.660809
0.784047
1.40022
-0.747808
2.63052
-0.745137
-0.140002
-0.898979
-0.786425
-0.165205
1.73244
-0.459175
-0.686396
2.40287
1.71258
-0.207267
-0.219166
-0.801018
-0.00978411
-0.48288
-0.942415
-0.0560658
-0.057593
-0.464088
0.217684
0.856912
0.79399
-0.0074235
-0.714687
-0.825762
0.851396
1.08746
-0.93113
1.54141
-0.662112
1.34906
-0.664255
0.776051
0.634618
1.66685
-0.849539
-0.107031
-0.347091
1.63182
-0.6905
1.57914
1.74917
1.39997
-0.719092
-0.0715899
1.65013
-0.649245
1.16408
-0.181039
-0.197295
1.52829
0.0185276
1.82877
-0.0129134
1.15339
1.63652
-0.265008
0.638665
0.144603
0.941921
0.751172
-0.10272
1.57677
-0.722554
0.855461
-0.638449
-0.00188725
-0.75619
-0.363988
-0.717087
-0.147057
1.00421
-0.627339
-0.194182
-0.0882784
-0.792335
-0.776644
1.62211
0.791519
2.86078
-0.719052
-0.716351
-0.232816
1.54777
0.963528
0.970369
-0.688494
-0.474128
0.15934
-0.692673
1.38477
-0.711655
0.704119
-0.247865
-0.972052
-0.310149
-0.239571
-0.268857
0.579378
1.79038
-0.204097
1.38363
0.386795
1.66911
-0.676659
0.757493
-0.00694146
-0.427557
1.62265
0.775602
0.810015
-0.686352
0.179544
1.08307
-0.385994
-0.354203
-0.726725
0.868173
1.20193
-0.585956
1.70761
0.659254
-0.207809
1.56814
1.51812
-0.692039
2.55012
1.23239
-0.343175
-0.244295
-0.170762
1.73247
-0.377499
1.02713
1.34284
0.00803995
0.928027
-0.983972
-0.139097
-0.190913
1.57863
1.14654
-0.48769
0.813957
0.88907
-0.23333
1.26069
-0.698867
1.17822
-0.519889
0.409317
-0.0199597
0.768437
-0.0466779
-0.911741
0.830612
-1.074
1.44931
-0.0119701
-0.0329322
-0.973024
1.45811
-0.581856
-0.745416
1.52495
2.07725
0.733864
-0.206874
0.642345
-0.356625
-0.78175
0.130062
0.709448
-0.533537
1.60996
-0.249863
0.950658
-0.783245
-0.784525
1.37748
-0.601283
-0.920947
-0.916639
0.776227
1.55689
-0.466955
-0.599791
-0.24744
1.1764
-0.23269
-0.710651
-0.0638945
-0.374937
0.679212
-0.254755
-0.142544
-1.12732
-0.481943
-0.330412
0.428077
-0.110144
1.65019
-0.00370447
1.13172
0.785513
-0.270979
-0.341289
-0.240487
1.57403
1.65418
1.86378
-0.784951
-0.0553943
-0.105341
-1.14779
-0.163321
1.58661
-0.67915
-0.951881
-0.0835586
-0.16757
0.916146
-0.199363
0.766271
1.75935
0.668355
-0.280641
1.76445
-0.693501
0.97951
-0.343914
-0.150017
-0.707976
-0.146366
-0.479467
-0.812538
1.39993
-0.975826
-0.0559723
3.13743
-0.141324
-0.888469
0.75515
0.716442
1.22301
-0.42687
-0.688004
1.65774
1.37219
0.0351412
-0.000472911
-0.661971
-0.865496
-0.125171
1.14079
-0.189545
0.171859
0.554908
-0.178403
-0.17047
-0.843147
-0.0501227
-0.115533
2.84763
-0.0283772
-0.92546
-0.662126
-0.0357773
-1.0828
-0.0401178
0.758293
0.037817
2.59408
-0.0336845
-0.458949
-1.09703
0.690695
-0.731228
-0.388443
1.46765
-0.378803
0.00393909
-0.391928
-0.524721
-0.179229
0.680891
-0.0642658
-0.467813
-0.56658
-0.704508
0.384357
0.00504998
-0.0646747
-0.743726
1.78043
-0.708562
1.38497
1.65751
1.56942
-0.871971
-0.500475
-1.17016
-0.0597275
-0.705876
-0.00928323
1.67364
1.79216
-0.118173
-0.099601
-0.225766
0.267011
-0.0187531
-0.0132928
1.64547
0.654263
0.969453
0.750983
-0.682136
0.595867
-0.150615
0.3117
0.931509
0.857615
1.62457
-0.692021
0.770043
1.68799
0.343546
-0.751308
-0.910616
0.78081
-0.771821
-0.805997
1.28286
0.00345592
1.7056
-0.626003
1.75457
0.34934
0.991256
-0.0122872
-0.16695
1.65045
-0.37884
0.0930697
1.08476
-0.501857
-0.532295
1.3294
1.66897
-0.970284
0.03045
-0.757319
0.906149
-1.23031
0.677617
-0.222649
-0.155861
-0.817013
-0.215856
0.17385
-0.178251
-0.410418
-0.371101
0.684287
-0.430041
1.49689
1.24545
1.63953
0.919684
0.233041
-0.303134
1.11559
1.70863
-0.402453
1.27211
-1.2567
-0.237959
-0.0338309
-0.266856
-0.78831
1.6322
1.62285
1.23558
-0.733132
-0.687
0.700844
1.69456
-0.168642
1.35956
-0.587947
1.36027
-0.17879
1.48159
-0.840577
-0.0788121
-0.0354037
-1.58518
-0.211268
0.408118
0.158174
2.42135
0.892428
0.000652452
-0.750029
1.5797
-0.170683
-0.52477
-1.3084
1.64839
1.44278
1.45145
-0.0781613
-0.21754
-0.0383031
1.38706
0.931675
-0.253692
1.86651
-0.26017
-0.038905
-0.106081
-0.771279
0.80177
-0.0262473
1.63659
-0.398134
1.64946
-0.356491
-0.0100815
0.939946
-0.984481
-0.230721
1.12615
0.742744
-0.978752
1.71748
-0.433051
-0.646601
-0.41239
-0.0951117
-0.584442
-0.587482
2.16927
1.13789
1.3401
-1.1134
-0.673787
-0.178613
1.68811
1.6372
-0.861568
0.735641
1.86498
0.205058
2.47155
-0.406797
-0.444703
-0.371309
-0.370036
-0.102825
0.595507
1.7789
-0.255131
2.30922
1.25998
-0.991878
-0.254954
0.628883
1.75026
-0.837646
1.82211
1.7816
0.0253948
1.45512
0.124589
-0.625353
-0.172496
-0.286922
-0.0296552
-0.0374907
-0.870469
-0.144796
-0.255657
-0.324615
-0.447893
-0.79918
-0.925343
-0.202816
0.681554
0.428898
-0.781766
-0.0965776
0.578449
-0.0823058
-0.405289
-0.0370624
-0.982311
-0.404224
-0.210953
0.71962
0.472045
1.64457
0.713243
1.8244
-0.627478
2.26449
0.852024
0.503197
0.882984
-0.596062
-0.0644089
-0.802551
2.33604
0.741605
1.13719
0.0547859
2.06492
-0.88157
2.13356
-0.397054
-0.0576761
0.767567
0.00251171
1.66846
-0.0591658
-0.615193
-0.394621
-1.04214
-0.450834
-0.0625883
1.65329
-0.0236949
-0.104875
-0.87658
-0.148654
0.66541
-0.0264535
1.656
-0.353454
0.551977
-0.724161
1.40114
1.17318
1.73236
-0.571045
-0.300415
1.63882
-0.0110847
1.6075
-0.178007
-0.172317
0.167032
-0.638804
-0.726666
-0.127447
-0.170572
-0.485498
-0.597324
-0.265583
-0.0370469
-1.06531
0.6842
-0.428327
0.913311
0.900127
-1.0723
-0.463959
-0.638259
-0.174038
1.84808
0.135318
1.60034
-0.69786
1.67342
-0.00271841
0.0202538
-0.171019
0.0822252
-0.235079
-0.041493
-0.0982835
2.92295
-0.616847
-0.625528
-0.722922
0.839084
-0.257139
-0.535702
1.58385
-1.27398
-0.0384528
2.29015
-0.414558
0.937932
0.443743
1.75941
-0.0512779
2.62774
-0.0937714
1.47706
-0.0689516
2.49717
-0.198115
0.0285638
-0.251074
-0.0616973
0.619656
-0.404115
-1.47459
1.68421
-0.0864888
-0.18067
0.00337019
0.523523
-0.782226
-0.0608882
-0.69982
-0.0946404
0.542748
0.686104
-0.17751
0.714188
-0.369094
-0.695076
1.5867
1.16271
0.218475
-0.815908
-0.243022
-0.587855
1.10348
-0.438601
-0.155743
0.705913
1.66674
1.41937
0.906682
1.34302
-0.0192543
-0.959183
-0.670633
-0.0665307
-0.41717
1.71571
0.992901
-0.286257
-0.214104
1.54721
-0.334775
-0.32222
-1.21007
-0.266925
-0.367069
0.576916
-0.694667
1.71825
0.929469
-1.3793
1.57446
1.1202
-0.0917092
-0.0347222
-0.109914
-0.0636028
1.58941
-0.429627
-0.788658
-0.897547
1.08895
-0.0380473
0.0127026
-0.332609
-0.788818
1.66616
0.671747
-0.726777
-0.449484
-0.0104857
1.65701
0.521942
2.14014
1.65305
1.06649
-0.188556
-0.346764
-1.23851
-1.15051
0.0288461
1.31389
-0.691532
1.66793
2.14083
-0.164363
0.983091
1.55918
1.1051
-0.73618
-0.0522444
-0.163383
1.57064
-0.670553
1.69315
1.46798
1.4683
1.7568
-0.108369
0.781152
1.5358
1.60155
-0.82038
0.709913
1.76072
-0.438432
-0.884169
0.928406
1.56435
-0.721736
-0.85882
0.730605
-0.225022
-0.372908
-0.777345
0.890279
1.64515
0.137351
1.18672
0.00632023
1.0156
-0.394073
-0.211063
-0.151367
-0.111379
0.811102
-0.24521
1.59962
0.777061
2.88188
0.879602
0.754564
-0.488264
-1.32534
-0.182967
-0.26599
-0.116113
-0.0327279
-0.109545
-0.881793
0.743669
0.822436
-0.0210312
-0.00719475
-0.280473
1.15863
-0.766031
1.95103
-0.634344
1.84176
-0.0229388
-0.0830442
-0.685682
-0.23385
1.77041
1.6443
-0.258603
-0.849416
-0.0381093
-0.377476
-0.418977
-0.0131465
0.46506
-0.174459
1.61871
1.52395
-0.428112
-1.12134
-0.661642
-0.711106
-0.0404874
-0.230617
-0.107909
-0.659974
1.66784
-0.0385157
-0.111112
1.71488
0.562251
1.47301
-0.259298
-0.153516
-0.129503
1.67154
-0.242022
1.3218
1.08797
-0.125291
-0.710427
0.743952
1.5543
1.61789
-0.380384
-0.435867
-0.907712
-0.139111
1.87633
-0.656737
-0.710094
-0.841909
1.66123
-0.118464
-0.0648314
1.30705
-0.0410668
1.20528
-0.178789
-0.169908
-0.112332
-0.626631
1.39758
1.75153
-0.755255
-0.194484
0.742252
-0.127113
1.5679
-0.761891
-0.026114
-1.35469
1.6256
-0.0355807
-0.627889
-0.497861
-0.040863
-0.0888255
1.65162
-0.0174322
-0.767618
0.757125
0.117556
-0.226948
-0.871738
-0.192885
-0.32182
1.15684
1.80509
-0.772822
0.386951
-0.823179
-0.114978
-0.0217769
-0.223865
1.07363
-0.725263
-0.701444
-0.049062
-0.248797
0.00779177
1.75821
-0.419591
-0.0304103
1.67967
1.84924
1.50463
-0.392895
0.107533
1.29806
-0.494699
0.0501348
-0.0938466
0.827324
-1.10192
-0.550698
0.289108
-0.432983
0.698031
2.3214
1.45045
-1.121
0.762559
-0.0500333
-0.100447
-0.716798
0.78111
0.437747
1.66108
1.69657
-0.772033
-0.318446
0.0298101
-0.80419
-1.18068
-0.659055
2.0259
-0.113823
-0.695288
1.6667
-0.0999215
-0.0437705
1.07783
-0.274696
-0.493769
-0.276847
0.473442
-0.131757
1.66665
-0.263668
0.856928
-0.976188
-0.492497
2.88726
-0.932384
-0.244633
0.229124
-0.325044
0.014288
-0.442467
-0.249613
0.602889
-0.866127
-0.0588842
-0.715975
-1.53007
-0.244263
1.4305
-0.471529
1.2612
-0.383238
-0.247108
-0.676424
0.515588
-0.470872
-0.797531
1.72611
1.11553
0.0917615
0.849607
-0.156904
-0.36575
2.23388
-0.227878
-0.504169
0.851026
-0.787277
-0.97893
-0.278504
-0.438891
-0.656832
-0.600869
-0.0583789
-0.1275
1.71116
1.68518
-0.22254
1.75792
1.53815
-0.366745
1.65307
1.44158
-0.26984
2.99001
-0.977887
-0.116168
-0.895886
1.80642
-0.426022
-0.0497739
-0.244471
-1.42557
1.67818
-0.12725
-0.502317
-0.129089
0.00797683
0.579644
-0.0933802
1.57195
-0.594799
-0.137661
1.27356
1.79442
-0.752058
-0.219383
-0.496617
-0.704647
-0.15456
1.95534
1.51425
1.6884
-0.313382
-0.00758071
-0.0963483
-0.693829
-0.414701
2.87129
0.536929
1.59155
1.41423
-0.696945
1.76325
0.735549
-1.17467
-0.422104
-1.20534
-0.821274
0.84145
0.656075
-0.04622
-0.720243
-0.265671
-0.967986
-0.278091
1.42733
0.869268
-0.264871
-0.184945
-0.0662794
-0.280449
1.75543
-0.252234
-0.0444801
-0.910262
0.404533
-0.325831
-0.884743
1.14683
-0.47018
0.728179
2.20462
-0.75251
-0.121753
-0.33149
0.370989
1.42025
-0.266385
-0.491491
-0.654643
-0.371809
-0.670571
-0.417249
1.06067
-1.10174
-0.652855
1.66718
-0.0173724
-0.0937429
1.57272
-0.3024
1.68153
1.65205
2.34187
-0.722004
-0.00828409
0.653675
-0.433371
1.67093
0.766773
1.65256
-0.199985
0.680995
-0.217006
-0.549078
1.67938
-0.722989
-0.895478
-0.202437
-0.701966
-0.404805
-0.470092
-0.0112969
1.12988
0.787099
1.48577
-0.119181
1.65272
0.754384
-0.373802
-0.811375
-0.227161
-0.0987726
0.00981176
1.21057
-0.660307
-0.553298
0.677062
-0.237134
0.622263
-0.0337541
1.53048
-0.113375
0.324947
2.0127
1.26339
-0.665962
-0.0688168
1.34281
-0.224646
0.662081
-0.0122101
-0.150586
-0.667179
-0.337457
1.727
1.61957
-0.0730951
-0.515314
-0.133891
-0.0379027
-0.677632
-0.0576092
1.68972
-0.899992
-0.0676765
1.73542
-0.884027
-0.86555
-0.422124
-0.709102
-0.644967
-0.0122518
-0.879562
-0.71082
0.681564
1.07004
-0.0519987
-0.302224
-0.201253
0.749358
-0.456468
1.56968
2.71385
-0.987029
1.67519
1.0968
-0.986016
-0.718775
1.20385
1.64794
1.29984
0.2821
0.852597
1.90501
-0.557387
0.060956
0.644299
1.41797
-0.832978
0.897421
-0.0717429
1.60089
0.548681
1.11339
-0.435255
-0.876098
-0.229962
1.78157
0.773171
-0.187654
-0.0913286
1.67347
-0.441089
-0.26628
1.51525
-0.35359
-0.19748
-0.72187
-0.419529
-0.499347
1.081
-0.646562
1.37424
0.357525
1.98872
0.624758
1.68493
-0.238812
1.94666
-0.732541
1.56147
1.68676
-0.781641
0.804877
1.62841
-0.648761
-0.273963
-0.811621
1.76399
0.394494
1.39079
-0.143949
-0.0924574
-0.564145
0.839396
-0.553067
-0.547199
0.830492
0.64806
0.760271
0.287562
-0.731343
2.06824
-0.196249
2.42637
-1.20925
-0.0128061
-0.270834
-0.157827
1.23881
-0.161522
1.56184
-0.231477
-0.767621
1.73448
1.68197
-0.0872801
0.098952
0.448133
2.07191
-0.508664
1.65438
-0.733078
-0.738931
-0.1698
-0.171431
0.662479
-0.521363
1.41314
-0.98949
-0.421098
-0.13239
-0.24433
1.64442
0.795916
1.71548
0.611148
0.00396232
0.235344
1.93507
-0.10059
-0.62479
0.877788
0.306513
-0.971321
0.0194054
1.66037
-0.0920763
2.13735
2.90809
-0.243097
1.74027
-0.067341
-0.12852
0.410365
1.54634
-0.339178
-0.720247
1.82755
-0.0650051
1.69133
2.49937
-0.265799
0.425783
-0.282456
1.66836
1.80915
-1.47218
-0.145442
0.741575
-0.219812
0.377305
0.901902
0.668816
0.770853
0.680576
-0.169996
-0.586526
-0.417486
-0.758705
0.882863
1.28052
-0.669848
-0.0135394
0.458124
0.138394
-0.346354
1.86039
-0.110278
1.09785
-0.257628
1.38441
1.86632
-0.0431997
-0.498541
-0.200002
1.63026
1.78145
1.7773
1.63741
1.02682
-0.456108
-0.3354
-0.626001
-0.568527
-0.100581
0.101992
0.883989
0.915124
-0.872551
2.10966
-0.0986587
-0.971024
0.117385
-0.291465
-0.484871
0.424432
1.65452
-0.148039
-0.506013
-0.272118
0.349947
-0.247179
-0.100536
-0.640264
-0.0452827
-0.211858
0.821091
-0.235881
-0.359367
-0.92681
-0.421476
-0.644755
-0.0452548
1.66359
2.06115
-0.670915
1.63152
-0.190579
-0.188494
-0.00824762
-0.411688
-0.241965
-0.588125
-0.325314
-0.25094
1.37965
-0.165275
-0.126738
-0.238441
-0.38352
-0.699278
1.66943
-0.821517
1.39516
-0.0675974
-0.97767
-0.409452
-0.787829
-0.690206
-0.254858
1.51375
2.14678
0.812203
1.86258
1.73974
0.613106
0.816968
-0.632779
1.70658
-0.277622
-0.727895
0.628275
1.66156
-0.413002
-0.525852
1.50797
0.0723441
0.786614
2.73299
-0.161537
-0.589171
1.65348
0.590665
0.539852
0.697937
2.19647
1.55641
-0.188874
-0.718552
1.34239
-0.045078
1.53889
0.64895
1.27867
1.57197
-0.459938
1.66808
1.03023
0.37879
1.65154
-0.0591062
0.939669
-0.0371533
-0.692367
-1.18447
-0.0720944
-0.156064
0.0152013
-0.0841976
-0.107178
-0.209213