/*--------------------------------*- C++ -*----------------------------------*\
| =========                 |                                                 |
| \\      /  F ield         | OpenFOAM: The Open Source CFD Toolbox           |
|  \\    /   O peration     | Version:  3.0.1                                 |
|   \\  /    A nd           | Web:      www.OpenFOAM.org                      |
|    \\/     M anipulation  |                                                 |
\*---------------------------------------------------------------------------*/
FoamFile
{
    version     2.0;
    format      ascii;
    class       volVectorField;
    location    "0.412134";
    object      U;
}
// * * * * * * * * * * * * * * * * * * * * * * * * * * * * * * * * * * * * * //

dimensions      [0 1 -1 0 0 0 0];

internalField   nonuniform List<vector> 
21246
(
(4.13933 -1.35627 -2.84903e-20)
(4.0921 -1.08495 -8.85411e-20)
(4.13511 -0.955548 -3.36599e-20)
(4.13824 -0.796274 9.06213e-20)
(4.10923 -0.640382 0)
(4.05243 -0.502931 0)
(3.97596 -0.389257 -2.5017e-20)
(3.8864 -0.299092 -2.83261e-20)
(3.78877 -0.231837 2.3649e-20)
(3.68898 -0.188294 0)
(3.59871 -0.170626 2.83116e-20)
(3.75963 -1.26592 0)
(3.75478 -0.97282 0)
(3.82973 -0.949794 1.5049e-19)
(3.88314 -0.856291 -5.78919e-21)
(3.90988 -0.741788 -2.9405e-20)
(3.90583 -0.622376 -5.67947e-21)
(3.8737 -0.512368 0)
(3.81933 -0.419057 -8.80858e-21)
(3.74892 -0.345569 3.11764e-21)
(3.6698 -0.293643 4.02033e-21)
(3.59331 -0.26564 0)
(3.57437 -1.13698 -2.89686e-19)
(3.58318 -0.865134 0)
(3.64121 -0.902379 6.40365e-20)
(3.70277 -0.856442 -1.18621e-19)
(3.75266 -0.784922 -1.3277e-20)
(3.78042 -0.696268 0)
(3.78087 -0.603047 6.05696e-20)
(3.75509 -0.515696 -6.34019e-21)
(3.70798 -0.441104 0)
(3.64666 -0.383746 2.41041e-20)
(3.58159 -0.348979 -1.73866e-20)
(3.49641 -1.03305 5.11725e-19)
(3.50997 -0.796473 -6.15956e-20)
(3.54383 -0.853938 -1.77505e-19)
(3.59511 -0.83174 5.98233e-20)
(3.6446 -0.791386 9.94953e-20)
(3.68205 -0.732721 -6.51669e-20)
(3.69897 -0.662124 -1.14813e-19)
(3.69205 -0.588154 0)
(3.66313 -0.518756 0)
(3.61754 -0.46041 0)
(3.56364 -0.420255 -3.39805e-20)
(3.46631 -0.969445 -8.51682e-19)
(3.48333 -0.766568 1.36568e-19)
(3.49859 -0.826645 -1.03537e-19)
(3.53777 -0.811571 0)
(3.57785 -0.788471 -1.0674e-19)
(3.61178 -0.750726 -5.78964e-20)
(3.6319 -0.699766 1.55387e-20)
(3.63353 -0.640569 -4.12375e-20)
(3.6161 -0.579665 2.31175e-20)
(3.58266 -0.523791 5.54864e-20)
(3.53982 -0.481706 0)
(3.4581 -0.931421 1.86739e-19)
(3.4771 -0.758509 -5.96466e-19)
(3.47723 -0.820716 2.16809e-19)
(3.50787 -0.804683 0)
(3.53774 -0.790153 7.47473e-20)
(3.56346 -0.764459 0)
(3.57959 -0.726925 2.21263e-19)
(3.5823 -0.679812 0)
(3.57032 -0.627507 -4.56828e-20)
(3.54504 -0.575608 9.76088e-20)
(3.511 -0.532867 -8.53952e-21)
(3.4702 -0.906742 1.06775e-19)
(3.47632 -0.766392 7.44944e-20)
(3.46537 -0.830906 0)
(3.49076 -0.809791 -1.43026e-19)
(3.51157 -0.800178 2.07597e-19)
(3.52865 -0.780779 0)
(3.5383 -0.751125 -1.75697e-19)
(3.53809 -0.712265 -1.18699e-19)
(3.52711 -0.666873 7.32506e-20)
(3.50566 -0.619144 1.50678e-20)
(3.47522 -0.577625 0)
(3.48078 -0.919664 -1.2109e-19)
(3.4698 -0.799617 -3.18193e-20)
(3.46041 -0.84913 3.83671e-19)
(3.47907 -0.824796 0)
(3.49136 -0.818477 -5.4311e-20)
(3.50067 -0.801859 -7.45025e-20)
(3.50367 -0.776219 9.11049e-20)
(3.49915 -0.742354 1.15829e-19)
(3.48699 -0.701869 -1.12089e-19)
(3.46753 -0.657867 -8.44533e-20)
(3.44233 -0.618883 -8.31994e-21)
(3.47623 -0.957978 7.80383e-20)
(3.46463 -0.832692 5.93954e-19)
(3.45591 -0.871199 -3.54347e-19)
(3.4658 -0.852558 3.17772e-19)
(3.472 -0.844524 5.25833e-20)
(3.47501 -0.827942 7.23676e-20)
(3.47211 -0.803815 -9.06845e-20)
(3.46316 -0.77248 7.51161e-20)
(3.4489 -0.734916 3.95729e-20)
(3.4298 -0.693106 2.34664e-20)
(3.40654 -0.65483 -2.92376e-20)
(3.46846 -0.999507 8.12539e-19)
(3.46107 -0.865493 -2.15433e-21)
(3.44487 -0.900594 0)
(3.44949 -0.885383 -2.31498e-21)
(3.4512 -0.875285 1.51111e-19)
(3.44893 -0.858155 -1.57726e-19)
(3.44092 -0.834152 -3.11361e-21)
(3.42786 -0.803597 -4.09663e-21)
(3.41106 -0.767262 0)
(3.39108 -0.726239 0)
(3.36675 -0.687966 -3.15297e-20)
(3.4628 -1.04504 7.90111e-19)
(3.455 -0.903361 6.70477e-20)
(3.43005 -0.935869 -9.98444e-20)
(3.4302 -0.921306 -7.28982e-20)
(3.42742 -0.909573 3.51162e-19)
(3.42041 -0.891504 -3.11474e-19)
(3.40799 -0.866737 0)
(3.39129 -0.835698 1.26349e-19)
(3.37201 -0.799231 -9.50182e-20)
(3.35119 -0.757994 -2.10349e-19)
(3.32773 -0.719941 1.39966e-20)
(3.45128 -1.0952 6.0477e-19)
(3.44095 -0.947964 -4.78274e-19)
(3.40953 -0.976418 4.75447e-19)
(3.4058 -0.960306 -2.23393e-19)
(3.39897 -0.946514 1.02723e-19)
(3.38786 -0.926846 0)
(3.37173 -0.900602 -3.84774e-19)
(3.35193 -0.868226 1.42823e-19)
(3.33048 -0.830518 -1.71022e-19)
(3.30875 -0.788056 6.65354e-22)
(3.28473 -0.748783 6.98333e-20)
(3.42957 -1.14418 -1.71887e-19)
(3.4187 -0.992473 3.66941e-19)
(3.38242 -1.01822 5.31544e-19)
(3.37547 -1.00046 -5.70818e-19)
(3.36517 -0.984698 1.95662e-19)
(3.35056 -0.963114 2.6706e-19)
(3.33122 -0.934862 -1.05191e-20)
(3.30876 -0.900409 1.26838e-19)
(3.28545 -0.860487 1.77832e-19)
(3.26268 -0.815375 3.26654e-19)
(3.23675 -0.772826 -1.2857e-19)
(3.40538 -1.19273 -1.1579e-18)
(3.39327 -1.03503 5.09379e-19)
(3.3506 -1.05954 -8.9146e-19)
(3.34001 -1.04054 4.21362e-19)
(3.32622 -1.02308 -1.9405e-19)
(3.3083 -0.999482 0)
(3.28601 -0.96883 0)
(3.26114 -0.931631 -1.25722e-19)
(3.23616 -0.888644 -3.12216e-19)
(3.21264 -0.839968 8.59418e-21)
(3.18645 -0.794615 0)
(3.37686 -1.24337 1.60949e-19)
(3.36155 -1.07943 0)
(3.31286 -1.10132 5.10432e-19)
(3.29872 -1.0802 -4.01845e-19)
(3.2815 -1.06075 0)
(3.26038 -1.03491 0)
(3.2353 -1.00148 0)
(3.20825 -0.960913 2.26843e-19)
(3.18193 -0.914121 5.84907e-21)
(3.1581 -0.860971 -7.75231e-20)
(3.13098 -0.810928 -1.07592e-19)
(3.34011 -1.29074 -1.62869e-19)
(3.32326 -1.1221 0)
(3.2694 -1.14165 8.15951e-21)
(3.25178 -1.11861 0)
(3.23106 -1.0972 0)
(3.20664 -1.06891 2.32275e-19)
(3.1787 -1.03223 -1.77674e-19)
(3.14961 -0.987556 -4.37808e-19)
(3.12239 -0.936148 -2.7612e-19)
(3.09914 -0.877898 2.78731e-19)
(3.07283 -0.822474 1.99603e-19)
(3.29995 -1.33511 -1.52293e-19)
(3.28213 -1.16241 8.67016e-19)
(3.2222 -1.17984 -1.13749e-18)
(3.20003 -1.15574 4.90847e-19)
(3.17522 -1.13254 3.17247e-19)
(3.14696 -1.10162 -2.44139e-19)
(3.11582 -1.06097 0)
(3.08477 -1.01102 -1.71645e-19)
(3.05725 -0.953836 1.42216e-19)
(3.03584 -0.889926 1.52085e-19)
(3.01115 -0.8306 -8.41608e-20)
(3.25697 -1.38028 -4.57046e-19)
(3.23738 -1.20294 -1.03707e-19)
(3.17084 -1.21745 6.06738e-19)
(3.14322 -1.19211 -8.98063e-19)
(3.11334 -1.16682 3.30738e-19)
(3.08028 -1.13252 2.02741e-19)
(3.04546 -1.08663 1.35159e-19)
(3.01286 -1.02991 1.95476e-19)
(2.98634 -0.965866 2.17703e-19)
(2.96876 -0.895699 -3.13935e-19)
(2.94686 -0.832072 7.84828e-20)
(3.20967 -1.42429 0)
(3.18893 -1.24308 -7.05761e-19)
(3.11556 -1.25472 4.58137e-20)
(3.0812 -1.22854 4.45976e-19)
(3.04459 -1.20074 0)
(3.00519 -1.16162 -5.79436e-19)
(2.96618 -1.10814 1.42965e-19)
(2.93306 -1.04227 0)
(2.90974 -0.969822 -1.0197e-19)
(2.89846 -0.893553 -1.80854e-19)
(2.88382 -0.824106 1.38183e-20)
(3.15885 -1.4667 -6.05196e-19)
(3.13861 -1.28319 7.89636e-19)
(3.05739 -1.29296 -1.17541e-19)
(3.01341 -1.26677 -7.96525e-19)
(2.96686 -1.23525 3.47683e-19)
(2.91892 -1.18812 -8.24969e-20)
(2.8759 -1.12306 2.22956e-19)
(2.84482 -1.04507 -3.11061e-19)
(2.82839 -0.963332 1.67045e-19)
(2.82614 -0.882654 1.89587e-19)
(2.82105 -0.809938 -7.17106e-20)
(3.10714 -1.51279 -3.52613e-20)
(3.08939 -1.32785 -4.50462e-20)
(2.99641 -1.3373 7.32605e-20)
(2.93662 -1.31055 0)
(2.87505 -1.27077 -2.9434e-19)
(2.81708 -1.20895 4.48941e-19)
(2.77275 -1.12647 -1.14246e-19)
(2.74898 -1.03368 0)
(2.7448 -0.943489 -4.89239e-20)
(2.75494 -0.86177 -6.00862e-20)
(2.76188 -0.790532 2.45061e-20)
(3.05456 -1.55722 4.13979e-20)
(3.04005 -1.38054 -6.59657e-19)
(2.9259 -1.39269 9.93688e-19)
(2.84039 -1.35987 -3.43238e-19)
(2.75997 -1.30159 0)
(2.69553 -1.21506 -4.4517e-20)
(2.65803 -1.10952 3.29254e-21)
(2.65018 -1.00194 4.68359e-21)
(2.66444 -0.90739 -3.10071e-21)
(2.68977 -0.829986 3.75846e-21)
(2.70936 -0.765747 3.29009e-20)
(3.00347 -1.67843 4.86326e-19)
(2.98096 -1.51426 -1.60221e-19)
(2.82799 -1.49585 -4.54473e-19)
(2.7068 -1.42832 -2.60412e-19)
(2.61469 -1.32591 1.99335e-19)
(2.55838 -1.19951 -1.91235e-19)
(2.54205 -1.06699 1.40247e-19)
(2.55988 -0.948418 3.88698e-20)
(2.59653 -0.856584 3.30666e-21)
(2.63621 -0.790094 -1.8293e-20)
(2.66817 -0.737659 -3.75272e-21)
(2.78357 -1.90217 0)
(2.86847 -1.51138 0)
(2.65896 -1.47623 3.25276e-19)
(2.53617 -1.36499 -5.31255e-19)
(2.46864 -1.22611 1.99972e-19)
(2.44522 -1.08191 4.6221e-20)
(2.46265 -0.94849 -1.25805e-19)
(2.50739 -0.845755 -1.71096e-19)
(2.56078 -0.778945 -7.32269e-20)
(2.60643 -0.737921 0)
(2.64044 -0.70761 -2.02787e-20)
(4.80882 -1.27116 -2.19894e-21)
(4.65054 -1.07546 2.75996e-20)
(4.57341 -0.854829 -1.03066e-19)
(4.49023 -0.663682 2.88527e-20)
(4.38802 -0.493389 0)
(4.26574 -0.349547 -3.00141e-20)
(4.13045 -0.237522 2.24743e-20)
(3.98997 -0.152497 1.11273e-20)
(3.8509 -0.0941947 -6.23172e-21)
(3.71726 -0.0631572 -1.04761e-20)
(3.60105 -0.0565847 -3.86394e-21)
(5.41869 -1.41975 -6.63927e-19)
(5.19249 -1.30532 4.77618e-19)
(5.01218 -1.00554 2.9587e-20)
(4.84771 -0.679607 3.70567e-19)
(4.71209 -0.431945 -2.46259e-19)
(4.55617 -0.23907 -1.0827e-19)
(4.3533 -0.0752354 1.89316e-19)
(4.13813 0.0253875 -6.20028e-20)
(3.94071 0.0746294 1.86026e-21)
(3.75821 0.0980524 -8.0394e-21)
(3.60677 0.0909585 3.57901e-21)
(5.78743 -1.48001 -2.519e-21)
(5.6185 -1.40943 0)
(5.43576 -1.20375 2.91623e-19)
(5.21631 -0.864387 1.58846e-20)
(4.984 -0.474833 -1.81318e-19)
(4.79412 -0.164768 0)
(4.58259 0.0714355 0)
(4.33817 0.230968 0)
(4.04818 0.302169 8.35195e-21)
(3.79241 0.2964 -8.03834e-21)
(3.5952 0.268998 1.208e-20)
(6.0466 -1.57758 2.26401e-21)
(5.94269 -1.45226 -2.4466e-20)
(5.77423 -1.29359 2.66474e-20)
(5.5603 -1.01893 -5.46514e-20)
(5.29324 -0.621788 4.12986e-20)
(5.01606 -0.185277 -1.65176e-20)
(4.75984 0.173045 1.48554e-20)
(4.48045 0.429737 0)
(4.17483 0.568172 -9.77941e-21)
(3.84055 0.572723 9.49568e-21)
(3.56876 0.493947 -7.84563e-23)
(6.26404 -1.6982 3.43408e-19)
(6.22089 -1.51496 7.21716e-20)
(6.06765 -1.37553 -1.54007e-19)
(5.86014 -1.12399 1.17702e-19)
(5.59282 -0.770753 -1.29864e-19)
(5.25579 -0.2953 1.13779e-19)
(4.92106 0.180952 -1.40133e-20)
(4.5836 0.562295 0)
(4.23244 0.806757 -8.14249e-20)
(3.87042 0.885695 -1.35087e-19)
(3.52816 0.800666 8.5238e-21)
(6.44841 -1.80691 -7.9107e-20)
(6.45671 -1.57953 3.90494e-20)
(6.31585 -1.46638 -9.59953e-20)
(6.11595 -1.22812 7.25642e-20)
(5.84488 -0.899373 -1.14247e-19)
(5.50111 -0.454551 1.67707e-19)
(5.08372 0.0953208 1.99457e-19)
(4.66182 0.596367 -1.38457e-19)
(4.23866 0.962701 2.29054e-19)
(3.82199 1.14399 8.43922e-20)
(3.42951 1.11786 1.17873e-19)
(6.59775 -1.89713 -6.86431e-19)
(6.64576 -1.64381 5.78569e-19)
(6.51324 -1.56446 -2.09119e-19)
(6.32318 -1.34437 3.55119e-19)
(6.05404 -1.04227 1.00183e-19)
(5.69615 -0.628713 2.73484e-19)
(5.23838 -0.0717721 -1.48914e-18)
(4.7259 0.524142 1.48976e-18)
(4.20918 1.00999 -1.56544e-18)
(3.71631 1.30855 2.72062e-19)
(3.27511 1.38111 2.63122e-19)
(6.71484 -1.97691 8.22267e-20)
(6.78715 -1.71462 7.98764e-19)
(6.65936 -1.67004 -2.2878e-19)
(6.47992 -1.47147 -3.33701e-19)
(6.21743 -1.20497 -9.90321e-19)
(5.85722 -0.830821 5.93688e-19)
(5.37812 -0.316433 1.33549e-18)
(4.78547 0.34097 3.24236e-20)
(4.16155 0.931006 -8.23756e-19)
(3.56926 1.34484 -1.74074e-18)
(3.06166 1.53599 5.51668e-19)
(6.8045 -2.04488 -6.26537e-19)
(6.8865 -1.7862 0)
(6.75793 -1.77965 2.62835e-19)
(6.58806 -1.60446 -9.48584e-19)
(6.33379 -1.38127 7.37261e-19)
(5.97886 -1.05784 1.38895e-19)
(5.48836 -0.599034 -7.56784e-19)
(4.84134 0.0457923 3.26408e-18)
(4.11272 0.721016 -1.02646e-18)
(3.41137 1.23515 -3.50319e-19)
(2.81068 1.51659 0)
(6.86013 -2.09738 -5.50654e-19)
(6.94692 -1.85698 7.10571e-19)
(6.81076 -1.89063 3.19992e-19)
(6.64852 -1.74054 -9.49741e-19)
(6.40137 -1.56671 0)
(6.05517 -1.30565 -1.61696e-18)
(5.56999 -0.919406 6.71635e-19)
(4.8935 -0.359219 -2.52227e-18)
(4.07276 0.371116 -1.97061e-19)
(3.25551 0.958679 1.30425e-18)
(2.56594 1.32709 0)
(6.87073 -2.14793 5.52205e-19)
(6.96699 -1.93445 -4.53233e-20)
(6.81521 -1.99345 -5.13091e-19)
(6.65952 -1.87713 7.45795e-19)
(6.41823 -1.75742 0)
(6.0815 -1.56612 0)
(5.6125 -1.2678 8.60669e-19)
(4.94058 -0.81569 2.17738e-18)
(4.0562 -0.0900658 -2.92611e-20)
(3.12861 0.536306 -8.44325e-19)
(2.34979 0.969312 1.69721e-18)
(6.84019 -2.2138 3.62793e-19)
(6.93538 -2.01191 4.92503e-19)
(6.77919 -2.08161 -1.08064e-18)
(6.62044 -2.02357 -3.4612e-19)
(6.38393 -1.95499 4.34937e-19)
(6.05572 -1.83609 0)
(5.60549 -1.63774 1.7478e-18)
(4.96883 -1.3184 6.5946e-20)
(4.0583 -0.724776 0)
(3.05757 -0.0288633 -1.0037e-18)
(2.21489 0.44232 -1.22726e-18)
(6.77766 -2.2576 -6.87051e-20)
(6.84349 -2.08856 7.91402e-20)
(6.69704 -2.17353 -1.16205e-19)
(6.53046 -2.17012 1.13477e-19)
(6.29516 -2.15555 0)
(5.97393 -2.10722 0)
(5.54296 -2.00476 -4.27462e-19)
(4.96166 -1.82177 -7.58236e-19)
(4.09016 -1.44436 1.34818e-18)
(3.03834 -0.71631 2.00051e-18)
(2.16316 -0.215287 -7.2208e-19)
(6.66451 -2.28272 -2.42952e-19)
(6.69862 -2.16307 2.24848e-19)
(6.55864 -2.26954 1.15303e-19)
(6.38873 -2.32069 -6.42676e-20)
(6.15699 -2.36458 -4.67429e-19)
(5.8446 -2.38493 3.65528e-19)
(5.43059 -2.36425 2.62696e-19)
(4.88595 -2.28045 -6.54084e-19)
(4.16718 -2.08119 -9.35721e-19)
(3.21337 -1.53643 -5.25928e-19)
(2.18077 -0.94933 3.23683e-19)
(6.49311 -2.29912 0)
(6.49632 -2.23634 -1.6185e-19)
(6.36044 -2.36931 5.36687e-19)
(6.19347 -2.4758 -3.49505e-19)
(5.97358 -2.58239 4.02657e-19)
(5.68427 -2.67415 -3.14316e-19)
(5.30905 -2.73244 1.84166e-19)
(4.82526 -2.73038 0)
(4.19487 -2.62001 2.30365e-19)
(3.37737 -2.30299 0)
(2.43817 -1.77864 -3.9528e-19)
(6.25819 -2.30523 4.99129e-20)
(6.22828 -2.3018 0)
(6.09505 -2.4678 1.00696e-20)
(5.93726 -2.63176 1.98549e-19)
(5.73991 -2.80355 -1.75192e-19)
(5.48928 -2.96666 0)
(5.17299 -3.10015 3.18403e-19)
(4.77463 -3.17338 -2.43841e-19)
(4.26593 -3.1423 6.39718e-20)
(3.61233 -2.95177 0)
(2.81249 -2.53453 7.15254e-20)
(5.94148 -2.30502 0)
(5.88215 -2.35876 0)
(5.75452 -2.56458 -1.93439e-20)
(5.616 -2.78749 -3.60233e-21)
(5.45582 -3.02345 -1.52397e-20)
(5.26132 -3.25223 -1.86186e-19)
(5.0218 -3.45043 -1.26478e-19)
(4.72479 -3.58629 9.63972e-20)
(4.34899 -3.62012 -1.17329e-20)
(3.86408 -3.51717 -4.86337e-19)
(3.24892 -3.26154 0)
(5.52816 -2.31195 0)
(5.44948 -2.41372 -5.69395e-20)
(5.33624 -2.6608 4.3599e-20)
(5.23159 -2.9367 5.09134e-20)
(5.12594 -3.22502 0)
(5.00499 -3.50137 1.92165e-19)
(4.85771 -3.74073 3.04377e-19)
(4.67522 -3.91246 -9.04881e-21)
(4.44212 -3.9816 0)
(4.13245 -3.92526 4.98082e-19)
(3.71787 -3.76537 6.17637e-19)
(5.02635 -2.33609 4.19668e-19)
(4.94036 -2.46321 -1.17406e-19)
(4.85221 -2.73374 8.90864e-20)
(4.78719 -3.03462 -2.10217e-20)
(4.73761 -3.33756 5.00521e-21)
(4.69436 -3.61887 0)
(4.64305 -3.85453 -3.03542e-19)
(4.57286 -4.01484 1.2673e-19)
(4.46604 -4.06851 -9.46048e-20)
(4.29237 -4.00505 -2.66966e-19)
(4.02126 -3.87516 -1.18627e-19)
(4.33247 -2.27902 -1.61178e-19)
(4.2534 -2.3468 2.21524e-20)
(4.18032 -2.56317 8.07123e-20)
(4.15475 -2.81105 7.9269e-20)
(4.17063 -3.06463 9.48203e-23)
(4.20345 -3.30048 0)
(4.23866 -3.49136 0)
(4.26301 -3.59415 0)
(4.25277 -3.56208 5.6853e-19)
(4.15441 -3.39056 -7.01173e-19)
(3.92072 -3.18255 2.49995e-19)
(3.73128 -2.22341 0)
(3.69937 -2.21265 -1.91423e-19)
(3.65035 -2.37626 7.08169e-21)
(3.62788 -2.55625 -5.081e-20)
(3.63488 -2.728 5.8563e-20)
(3.66928 -2.86897 0)
(3.72755 -2.93977 0)
(3.80055 -2.8649 0)
(3.81063 -2.5014 -3.06037e-19)
(3.7384 -2.2647 3.51014e-19)
(3.43395 -1.96451 -1.38385e-19)
(3.30531 -2.20737 3.23023e-19)
(3.25322 -2.11454 -5.33509e-20)
(3.18735 -2.22858 3.89027e-20)
(3.15072 -2.32994 0)
(3.13888 -2.39313 -5.6458e-20)
(3.15574 -2.37985 5.47776e-20)
(3.20309 -2.22244 -1.06743e-19)
(3.19674 -1.79427 3.80762e-19)
(3.20898 -1.46973 -2.23159e-19)
(3.16877 -1.2951 1.58385e-19)
(2.9977 -1.14207 0)
(2.88654 -2.29313 0)
(2.84827 -2.07951 1.96987e-20)
(2.7893 -2.1062 0)
(2.75321 -2.07264 -1.61114e-19)
(2.72562 -1.95556 1.88045e-19)
(2.69659 -1.7031 0)
(2.67433 -1.34147 2.60294e-19)
(2.7149 -1.06066 -5.88904e-19)
(2.76672 -0.902504 -1.77246e-19)
(2.77435 -0.823347 2.87421e-19)
(2.73054 -0.773651 -4.67191e-20)
(2.57547 -2.27572 1.72463e-19)
(2.64201 -1.79842 -9.69199e-20)
(2.58306 -1.71645 8.21215e-21)
(2.52719 -1.55403 -3.34855e-20)
(2.47389 -1.33241 -1.22503e-19)
(2.45387 -1.11584 1.48212e-19)
(2.47323 -0.940024 9.5176e-20)
(2.52103 -0.821749 1.26124e-19)
(2.57377 -0.75401 -7.18144e-20)
(2.61194 -0.718606 1.02051e-19)
(2.63048 -0.695851 3.89562e-20)
(-0.0303981 -5.0692 -1.04534e-18)
(0.23851 -3.72426 -4.3469e-18)
(1.14728 -2.7625 3.3215e-18)
(1.68083 -2.12586 -2.88415e-18)
(1.99515 -1.66788 3.69929e-18)
(2.18347 -1.30612 -1.65632e-18)
(2.29759 -1.01315 0)
(2.36848 -0.775028 0)
(2.41326 -0.582252 7.12505e-19)
(2.44397 -0.428994 -6.09857e-19)
(2.45905 -0.311871 0)
(-1.67089 -0.165724 1.27293e-18)
(-0.941915 -0.980162 -5.1704e-18)
(-0.277807 -1.37423 2.39489e-18)
(0.446573 -1.4684 2.01708e-19)
(1.03798 -1.35885 1.04623e-19)
(1.48086 -1.15923 -8.02415e-20)
(1.79497 -0.936868 7.81035e-19)
(2.01313 -0.728985 8.19412e-19)
(2.1654 -0.550175 -6.12328e-19)
(2.26807 -0.403878 6.13029e-19)
(2.33234 -0.29124 -8.27005e-19)
(-1.23077 0.930799 -7.19018e-18)
(-0.536487 0.210409 -1.61114e-18)
(-0.367304 -0.115405 0)
(0.0858949 -0.439314 -1.52608e-18)
(0.569722 -0.626847 -1.94918e-18)
(1.03627 -0.685982 1.47576e-18)
(1.42517 -0.641286 -7.82587e-19)
(1.72741 -0.54288 1.51762e-20)
(1.95168 -0.427934 -6.91039e-19)
(2.11359 -0.319031 0)
(2.22254 -0.228499 0)
(-0.546881 1.49728 -4.2992e-18)
(0.180228 0.884578 0)
(0.0215607 0.733964 3.50794e-19)
(0.277003 0.35344 5.07773e-18)
(0.554544 0.0714731 -3.86713e-18)
(0.894064 -0.13033 0)
(1.23091 -0.235593 4.21661e-19)
(1.53496 -0.261444 0)
(1.78487 -0.236286 9.85323e-19)
(1.97868 -0.188081 -2.38178e-19)
(2.11719 -0.136553 0)
(0.126201 1.6603 -2.44489e-18)
(0.814987 1.21351 2.23609e-21)
(0.529335 1.21349 -4.98369e-18)
(0.684313 0.863454 -3.00456e-19)
(0.77328 0.607826 2.96824e-18)
(0.983115 0.3542 4.00801e-21)
(1.22461 0.166314 1.10108e-18)
(1.47205 0.0508881 -1.13589e-18)
(1.70207 -0.00420212 0)
(1.89916 -0.0182921 -4.11036e-19)
(2.05091 -0.00857802 3.06997e-19)
(0.674506 1.59248 3.67452e-18)
(1.3115 1.33559 -6.4984e-18)
(0.982134 1.42568 2.61876e-18)
(1.10791 1.13732 0)
(1.0945 0.939463 0)
(1.19698 0.69925 -3.86408e-21)
(1.34038 0.494467 3.11035e-19)
(1.5157 0.335258 4.51071e-19)
(1.69989 0.226916 0)
(1.87367 0.162222 -3.36447e-21)
(2.01584 0.130951 -5.3167e-19)
(1.03431 1.44854 -6.93232e-20)
(1.67102 1.34476 2.11701e-19)
(1.36684 1.46693 1.47074e-19)
(1.46197 1.25388 0)
(1.40842 1.1152 0)
(1.44758 0.914742 -7.89655e-19)
(1.51863 0.72621 -1.40827e-18)
(1.62819 0.559174 1.2272e-18)
(1.76064 0.426871 -1.12694e-18)
(1.89954 0.331349 8.39353e-19)
(2.02301 0.271287 -1.5871e-18)
(1.25408 1.3177 0)
(1.89757 1.30833 1.59682e-18)
(1.66058 1.43849 2.6632e-19)
(1.73951 1.27995 -1.24471e-18)
(1.67542 1.18796 -1.04186e-18)
(1.68356 1.02883 4.13418e-19)
(1.71004 0.870531 0)
(1.7711 0.716383 0)
(1.85825 0.581636 0)
(1.96037 0.472652 2.16181e-18)
(2.05387 0.394899 -2.01368e-18)
(1.41565 1.21453 1.20085e-18)
(2.05863 1.25403 -1.36429e-18)
(1.87689 1.38862 1.32962e-18)
(1.95085 1.26234 -2.56486e-19)
(1.889 1.20243 -2.76321e-19)
(1.88457 1.07687 -4.04307e-19)
(1.88685 0.949399 0)
(1.91681 0.815951 -5.4607e-19)
(1.97026 0.690872 0)
(2.0415 0.581181 1.26979e-18)
(2.1106 0.496551 8.99895e-19)
(1.53594 1.0992 0)
(2.19342 1.17487 1.33065e-19)
(2.04407 1.32517 -2.56784e-19)
(2.11495 1.22125 2.50044e-19)
(2.05708 1.186 -8.75122e-19)
(2.04859 1.08609 -4.42754e-19)
(2.03874 0.985301 1.17219e-18)
(2.05057 0.873123 5.36489e-19)
(2.0816 0.762714 -3.57034e-20)
(2.13061 0.660028 5.82257e-19)
(2.18269 0.577745 -8.17755e-19)
(1.59083 0.958369 -9.75642e-19)
(2.28361 1.08286 7.33792e-19)
(2.16551 1.25422 0)
(2.23963 1.16776 -8.68423e-19)
(2.1874 1.15367 1.03011e-18)
(2.17973 1.07361 -1.32208e-18)
(2.16478 0.994995 5.09026e-19)
(2.16692 0.901902 -8.36869e-19)
(2.18391 0.80714 -7.26694e-19)
(2.2177 0.714582 0)
(2.25476 0.638563 0)
(1.5993 0.83724 -1.30033e-19)
(2.32508 1.0155 0)
(2.24467 1.1933 -9.19604e-19)
(2.32872 1.11558 7.23142e-19)
(2.28522 1.11687 -6.75803e-19)
(2.28238 1.05078 0)
(2.267 0.98992 1.02981e-18)
(2.26514 0.912748 8.26076e-19)
(2.27408 0.832565 6.476e-19)
(2.29797 0.75078 -9.43426e-19)
(2.32508 0.682588 0)
(1.60325 0.74687 -7.03608e-19)
(2.35506 0.964309 1.1833e-18)
(2.30289 1.14353 2.24728e-19)
(2.39512 1.06974 -7.9981e-19)
(2.35894 1.08236 1.62755e-18)
(2.36231 1.02508 -5.2453e-19)
(2.34888 0.978115 2.18099e-20)
(2.34663 0.913521 -1.47127e-18)
(2.35171 0.84609 1.17416e-18)
(2.37028 0.774318 -4.36816e-19)
(2.39179 0.714847 0)
(1.59437 0.654119 1.72142e-19)
(2.37312 0.900921 -1.39329e-19)
(2.34938 1.09378 -2.23688e-19)
(2.4479 1.02737 -8.03252e-19)
(2.41642 1.05147 6.30568e-19)
(2.42581 0.999871 -1.36274e-18)
(2.41476 0.964457 1.29083e-18)
(2.41399 0.909601 7.12467e-19)
(2.41774 0.85323 0)
(2.43421 0.790194 -8.26132e-19)
(2.45274 0.739035 6.18538e-19)
(1.55839 0.572132 1.24222e-18)
(2.36581 0.852184 -2.38143e-18)
(2.37987 1.05164 1.9435e-18)
(2.48598 0.992241 -7.76047e-19)
(2.46192 1.02335 -3.26488e-19)
(2.47652 0.976822 5.39443e-19)
(2.46834 0.950786 5.341e-21)
(2.46986 0.903971 -3.32943e-19)
(2.4738 0.857437 0)
(2.49001 0.802082 0)
(2.50797 0.758598 3.92064e-21)
(1.53107 0.508178 9.66167e-20)
(2.35163 0.813448 0)
(2.40297 1.01394 1.03008e-18)
(2.51394 0.963299 -1.64532e-18)
(2.49862 0.997471 9.82068e-19)
(2.51693 0.956501 8.02893e-19)
(2.51215 0.937516 2.1898e-19)
(2.5162 0.898042 -3.17897e-19)
(2.52171 0.860053 4.99952e-19)
(2.53887 0.811991 -7.9676e-21)
(2.55901 0.773975 5.66874e-19)
(1.50523 0.443711 0)
(2.32898 0.763032 -1.33797e-18)
(2.42022 0.969106 9.85026e-19)
(2.53385 0.935427 0)
(2.52854 0.971634 -6.84168e-19)
(2.54885 0.938367 5.30789e-19)
(2.54775 0.925139 -2.10058e-19)
(2.55432 0.893196 -6.45755e-19)
(2.56257 0.862871 3.69045e-19)
(2.58147 0.822233 -1.05021e-20)
(2.60507 0.788557 -2.66267e-19)
(1.46106 0.383318 -7.29167e-21)
(2.2858 0.712803 1.43425e-18)
(2.42293 0.922925 8.18607e-20)
(2.5432 0.908295 -8.83163e-19)
(2.55045 0.945485 7.08271e-19)
(2.57238 0.921677 -1.10085e-18)
(2.57544 0.914004 4.2517e-19)
(2.58495 0.890379 0)
(2.59708 0.867253 -3.5329e-19)
(2.61886 0.833762 3.56084e-19)
(2.64629 0.803392 0)
(1.41356 0.329927 -2.07536e-21)
(2.2272 0.663277 -4.39028e-21)
(2.41096 0.874248 -5.36703e-19)
(2.5407 0.879742 9.42772e-19)
(2.56235 0.917977 -6.51168e-19)
(2.58646 0.905728 5.72112e-19)
(2.59445 0.904849 -4.35574e-19)
(2.60822 0.890662 3.30141e-19)
(2.62592 0.87453 1.15763e-19)
(2.65226 0.847585 -1.7503e-19)
(2.68464 0.818966 0)
(1.36774 0.279723 1.13578e-18)
(2.15484 0.607304 -8.5473e-19)
(2.3824 0.815516 -8.09152e-20)
(2.52293 0.843037 0)
(2.55973 0.886143 1.04845e-19)
(2.58787 0.889482 3.1165e-19)
(2.60312 0.898398 0)
(2.62392 0.895378 0)
(2.6498 0.886292 1.20664e-19)
(2.68265 0.865201 0)
(2.72067 0.83773 2.76763e-20)
(1.31652 0.230141 -1.62351e-19)
(2.06086 0.538666 0)
(2.32535 0.739343 -7.42683e-19)
(2.47703 0.791153 1.14046e-18)
(2.53175 0.84713 -1.98671e-19)
(2.56961 0.872818 -3.28691e-19)
(2.59814 0.896183 -6.16251e-19)
(2.63144 0.905687 4.72801e-20)
(2.66906 0.903287 3.13899e-20)
(2.71044 0.88659 0)
(2.75403 0.859922 1.05024e-19)
(1.27175 0.167787 2.11843e-18)
(1.93491 0.451541 -1.12932e-18)
(2.22032 0.63814 4.30298e-19)
(2.38347 0.719448 -3.02891e-19)
(2.46284 0.80165 -4.97696e-19)
(2.5226 0.856781 9.25054e-20)
(2.57509 0.898663 4.92324e-19)
(2.6289 0.92065 -2.3884e-20)
(2.68258 0.923893 0)
(2.73456 0.909961 0)
(2.78432 0.883108 -4.01688e-19)
(1.08067 0.150324 1.50313e-18)
(1.72319 0.321398 -1.82914e-18)
(2.00081 0.532645 1.68977e-18)
(2.18847 0.65308 -1.28918e-18)
(2.31495 0.765906 -3.14074e-19)
(2.42201 0.846871 -1.05954e-19)
(2.51822 0.90273 7.728e-20)
(2.60578 0.932473 3.67466e-19)
(2.68265 0.939367 -2.66396e-19)
(2.74917 0.928318 -6.03355e-19)
(2.80694 0.901894 1.01847e-18)
(1.7392 -0.562608 -2.09841e-19)
(1.74314 0.104991 7.5617e-20)
(1.90229 0.311264 8.16665e-19)
(2.03656 0.520085 5.83483e-19)
(2.15921 0.69754 0)
(2.28549 0.820837 -4.98297e-19)
(2.4126 0.895517 3.54951e-19)
(2.53081 0.931303 3.82859e-19)
(2.63349 0.939888 -2.72851e-19)
(2.72028 0.932198 9.13897e-19)
(2.79772 0.921181 -7.27559e-20)
(3.91448 -6.08567 1.50096e-18)
(3.61376 -3.93706 -2.00624e-18)
(3.29189 -3.42563 1.54117e-18)
(2.99636 -2.59915 7.85175e-19)
(2.82386 -1.95777 5.59303e-19)
(2.74004 -1.46269 0)
(2.69611 -1.09277 -5.23498e-19)
(2.66692 -0.81135 0)
(2.64281 -0.594227 -7.18303e-19)
(2.61962 -0.426888 0)
(2.59251 -0.303046 0)
(4.97261 -4.56562 1.48904e-17)
(4.78626 -1.53595 -3.64685e-18)
(4.8834 -2.50049 0)
(4.34541 -2.17898 6.89986e-19)
(3.84217 -1.84707 8.93325e-20)
(3.45001 -1.45185 1.18964e-19)
(3.18395 -1.09577 2.91567e-19)
(3.006 -0.801211 1.35338e-19)
(2.88203 -0.57033 3.36851e-19)
(2.78943 -0.395442 -2.47708e-19)
(2.71401 -0.270875 -3.10151e-19)
(4.51048 -2.66298 1.67935e-17)
(4.75803 0.38096 2.49737e-18)
(5.52658 -1.10946 -4.20914e-18)
(5.13082 -1.07679 2.54608e-18)
(4.6454 -1.17371 4.35599e-19)
(4.12435 -1.06165 -6.80037e-20)
(3.69493 -0.872602 -2.48611e-19)
(3.37208 -0.66032 0)
(3.13861 -0.468948 0)
(2.96868 -0.313718 0)
(2.83911 -0.199989 -5.01829e-20)
(3.53079 -1.36229 1.91193e-18)
(4.26386 1.3869 -2.38228e-18)
(5.44633 0.0824292 0)
(5.2693 0.131586 -4.27409e-18)
(5.00779 -0.26384 1.29095e-18)
(4.54498 -0.397655 0)
(4.08592 -0.42317 -9.23945e-20)
(3.68861 -0.358621 2.82923e-19)
(3.37629 -0.258787 0)
(3.14213 -0.155206 0)
(2.96763 -0.0693798 -1.33386e-19)
(2.59686 -0.669156 -1.42134e-17)
(3.70096 1.74794 9.86616e-18)
(4.96168 0.910793 8.05601e-19)
(4.98781 1.0548 9.52052e-19)
(4.96199 0.574473 4.31355e-19)
(4.64516 0.322895 2.40124e-18)
(4.26542 0.134397 -1.82482e-18)
(3.88007 0.0533564 0)
(3.54361 0.0407692 -2.37001e-19)
(3.27251 0.0677289 -3.95905e-20)
(3.0627 0.109688 6.97032e-20)
(1.86649 -0.313708 -1.22018e-17)
(3.20084 1.86091 1.62779e-17)
(4.39561 1.40719 -1.2554e-17)
(4.54474 1.63824 0)
(4.67334 1.20176 -3.91316e-18)
(4.49798 0.938719 3.60045e-18)
(4.23806 0.670037 0)
(3.92021 0.490943 -8.86245e-19)
(3.60989 0.381685 8.97153e-19)
(3.33775 0.327617 1.19336e-19)
(3.11683 0.309542 4.33906e-20)
(1.31162 -0.123079 -1.92597e-17)
(2.78319 1.89281 1.38866e-17)
(3.88332 1.70142 -1.00208e-17)
(4.09306 1.98489 6.74025e-18)
(4.29808 1.62401 -4.73212e-18)
(4.22081 1.39814 2.73838e-18)
(4.06847 1.11175 0)
(3.83233 0.887231 0)
(3.57524 0.715706 0)
(3.32968 0.598245 6.33057e-19)
(3.11788 0.52098 -5.12314e-19)
(0.896537 -0.0102799 0)
(2.44026 1.8894 -1.3335e-17)
(3.44834 1.8813 9.08567e-18)
(3.68779 2.19075 2.37444e-18)
(3.92218 1.89806 0)
(3.90073 1.71943 2.25157e-18)
(3.82616 1.44559 3.59089e-18)
(3.66095 1.2112 -2.75555e-18)
(3.46264 1.00823 0)
(3.25716 0.850359 0)
(3.0656 0.730943 0)
(0.589981 0.0618548 0)
(2.14486 1.86863 1.37327e-18)
(3.07852 1.99128 0)
(3.332 2.31459 -2.86218e-18)
(3.57399 2.07471 5.89276e-18)
(3.5803 1.93867 -4.48466e-18)
(3.55753 1.68618 -1.8408e-18)
(3.44546 1.45963 2.19174e-18)
(3.29968 1.24553 -1.6718e-18)
(3.13673 1.06549 -1.53401e-18)
(2.97653 0.909321 1.14672e-18)
(0.347882 0.110375 -6.44033e-18)
(1.87966 1.84465 -1.03336e-17)
(2.75751 2.05699 8.82186e-18)
(3.01464 2.38958 1.33748e-18)
(3.25694 2.18686 -1.94191e-18)
(3.2744 2.08616 0)
(3.28656 1.85378 1.80935e-18)
(3.21181 1.64167 2.11451e-18)
(3.10934 1.42658 -2.92531e-18)
(2.98527 1.23799 2.53945e-18)
(2.85596 1.06147 -1.16083e-18)
(0.129325 0.131441 5.67568e-18)
(1.61913 1.8109 -1.76707e-17)
(2.45843 2.09085 -1.35363e-18)
(2.71952 2.43317 2.59497e-18)
(2.9651 2.25438 3.2234e-18)
(2.98464 2.18293 -7.0058e-18)
(3.0231 1.96557 6.53224e-18)
(2.9742 1.7694 -2.35148e-18)
(2.90704 1.55692 -1.24919e-18)
(2.81654 1.36579 2.45307e-18)
(2.71521 1.18698 -1.13015e-18)
(-0.066176 0.124406 1.55415e-17)
(1.36888 1.76389 -1.30993e-17)
(2.16988 2.09914 5.77528e-18)
(2.44775 2.44274 1.99074e-19)
(2.69021 2.28836 1.43844e-18)
(2.71158 2.23655 0)
(2.76847 2.0323 1.35154e-18)
(2.73947 1.84988 -3.92136e-18)
(2.70071 1.64278 1.38082e-18)
(2.63946 1.45164 1.46552e-18)
(2.56537 1.26888 0)
(-0.239219 0.110685 8.19987e-18)
(1.12289 1.7068 -5.29552e-18)
(1.89761 2.08227 0)
(2.19413 2.42317 3.69838e-18)
(2.42435 2.29585 -2.72017e-18)
(2.45355 2.2549 2.00741e-18)
(2.52354 2.0626 2.59692e-18)
(2.51204 1.8908 1.62108e-18)
(2.49684 1.69033 -2.04077e-18)
(2.46152 1.50155 1.00225e-19)
(2.41732 1.30787 -7.65534e-19)
(-0.408897 0.0850723 -3.1865e-18)
(0.869537 1.63342 -3.07783e-18)
(1.62776 2.04107 3.34137e-18)
(1.94154 2.37739 -3.64033e-18)
(2.16291 2.28038 -1.27069e-18)
(2.20858 2.24154 -1.5468e-18)
(2.2874 2.06173 -4.40792e-18)
(2.29348 1.8973 3.55357e-20)
(2.29922 1.70372 0)
(2.28748 1.51973 -1.08241e-18)
(2.26983 1.32253 1.57352e-18)
(-0.576215 0.0350767 0)
(0.616164 1.53737 -3.96722e-18)
(1.35939 1.97243 6.26423e-18)
(1.68915 2.3047 -1.56837e-18)
(1.90785 2.24075 -1.98947e-18)
(1.97297 2.2001 4.49784e-18)
(2.05933 2.03222 7.75487e-19)
(2.0844 1.8724 -1.40823e-18)
(2.11048 1.68563 0)
(2.12225 1.5073 0)
(2.12904 1.31715 0)
(-0.736145 -0.02437 -8.4302e-19)
(0.360431 1.42351 0)
(1.0876 1.87736 -9.80203e-19)
(1.43392 2.20492 3.07276e-18)
(1.65474 2.17366 -2.76001e-18)
(1.74244 2.1315 1.34353e-18)
(1.83786 1.97444 0)
(1.88446 1.81732 -9.68191e-19)
(1.93244 1.63758 1.62412e-19)
(1.96989 1.46504 3.77545e-19)
(2.00826 1.28064 -5.44099e-19)
(-0.896221 -0.0958277 8.77506e-19)
(0.0932257 1.28908 0)
(0.803683 1.75411 -3.45787e-18)
(1.16739 2.07674 3.90096e-18)
(1.39774 2.07583 -7.99963e-19)
(1.51226 2.03246 -4.44472e-19)
(1.62018 1.88656 -2.81686e-19)
(1.69283 1.73172 3.43572e-19)
(1.76617 1.56004 5.81016e-19)
(1.83073 1.39532 3.50383e-19)
(1.89751 1.22011 -3.22471e-19)
(-1.06124 -0.189695 2.65281e-18)
(-0.189019 1.12705 3.86477e-18)
(0.501889 1.59554 -2.56645e-18)
(0.882516 1.91326 0)
(1.12856 1.94173 0)
(1.2743 1.89776 -2.59955e-19)
(1.40364 1.7633 1.03251e-18)
(1.50877 1.61334 -3.5083e-19)