/*--------------------------------*- C++ -*----------------------------------*\
| =========                 |                                                 |
| \\      /  F ield         | OpenFOAM: The Open Source CFD Toolbox           |
|  \\    /   O peration     | Version:  3.0.1                                 |
|   \\  /    A nd           | Web:      www.OpenFOAM.org                      |
|    \\/     M anipulation  |                                                 |
\*---------------------------------------------------------------------------*/
FoamFile
{
    version     2.0;
    format      ascii;
    class       volScalarField;
    location    "0.429561";
    object      nut;
}
// * * * * * * * * * * * * * * * * * * * * * * * * * * * * * * * * * * * * * //

dimensions      [0 2 -1 0 0 0 0];

internalField   nonuniform List<scalar> 
21246
(
4.65974e-05
0.000280212
0.000462196
0.000631172
0.000701057
0.00070223
0.00068458
0.0006723
0.000661173
0.000648506
0.00064998
3.48747e-05
0.000153258
0.000281865
0.000422692
0.000537848
0.000602354
0.000637415
0.000657118
0.000654274
0.000638092
0.000638916
2.93377e-05
0.000102923
0.000206154
0.0003179
0.000423318
0.000498873
0.000540277
0.000579283
0.000628246
0.000622193
0.000613835
2.49897e-05
8.54377e-05
0.000167049
0.000258978
0.000351975
0.000426443
0.000469098
0.000495186
0.000538625
0.000583135
0.000581517
2.01537e-05
8.10118e-05
0.000146591
0.000223273
0.000304151
0.00037441
0.000418477
0.000437402
0.000456021
0.000500903
0.000534284
1.70179e-05
8.53088e-05
0.000139147
0.000201646
0.000271032
0.000335632
0.000380315
0.000398484
0.000402409
0.000421089
0.000461699
1.7193e-05
0.000100526
0.000145124
0.000193231
0.00025014
0.000307311
0.000350973
0.000370774
0.000369784
0.000368156
0.000387741
1.71662e-05
0.000119804
0.000160254
0.000196201
0.000240275
0.000288333
0.000328807
0.00034989
0.000348722
0.000336893
0.000334314
1.62877e-05
0.000123573
0.000171953
0.000204248
0.000238352
0.000276921
0.000312429
0.0003333
0.000333184
0.000317344
0.000300583
1.5466e-05
0.000117243
0.000174585
0.000209937
0.000239636
0.000270324
0.000300165
0.000319296
0.000319774
0.000302701
0.000278389
1.46896e-05
0.000111381
0.000168026
0.000207466
0.000239366
0.000265484
0.000290136
0.000306516
0.000306605
0.000289182
0.000261154
1.38975e-05
0.000105399
0.000158535
0.00019733
0.000233751
0.000259512
0.000280289
0.00029364
0.000292541
0.000274943
0.000245626
1.30152e-05
9.87004e-05
0.000148392
0.00018566
0.000221031
0.000250385
0.000268939
0.00027974
0.000277345
0.000259885
0.000231065
1.20403e-05
9.09708e-05
0.000138321
0.000173782
0.000206595
0.000237323
0.000255863
0.00026528
0.000262397
0.000246049
0.00021912
1.10989e-05
8.3173e-05
0.000129165
0.000163806
0.000194292
0.000223687
0.000243369
0.000253272
0.000251735
0.000238178
0.000214721
1.02129e-05
7.51993e-05
0.000120541
0.000156126
0.000185999
0.000214293
0.000236134
0.000249654
0.000252715
0.000244333
0.000225051
9.36782e-06
6.68633e-05
0.000111503
0.000149312
0.000181584
0.000212041
0.000239689
0.000262208
0.000274794
0.000273955
0.000257009
8.56394e-06
5.91657e-05
0.000102365
0.00014224
0.000179707
0.000217679
0.000257598
0.00029504
0.000320799
0.00032721
0.000308208
7.77173e-06
5.30248e-05
9.47296e-05
0.000137134
0.000181501
0.000229836
0.000279838
0.000324097
0.000354247
0.000363547
0.000342969
7.05995e-06
5.19291e-05
9.58683e-05
0.000140818
0.000182065
0.000216364
0.000241747
0.000256113
0.000268978
0.000286977
0.000290681
7.3682e-06
5.45053e-05
9.47134e-05
0.000120645
0.000132475
0.000134427
0.000142699
0.000159982
0.00018231
0.000200891
0.000206244
7.12895e-06
4.65172e-05
6.49139e-05
6.94914e-05
7.7936e-05
9.86711e-05
0.000127786
0.00016154
0.000195796
0.000224834
0.000236305
5.62256e-06
2.1364e-05
3.03057e-05
5.12493e-05
8.10188e-05
0.000117997
0.000159855
0.000202641
0.000242657
0.000275519
0.000292146
6.22151e-06
1.95432e-05
4.49267e-05
8.30929e-05
0.000131689
0.000185321
0.000237063
0.000280913
0.00031321
0.000331894
0.00033646
4.42026e-05
0.000351309
0.00057904
0.000700824
0.000735544
0.000720171
0.000695004
0.000678726
0.00066571
0.000651685
0.000649971
2.82868e-05
0.000271294
0.000533306
0.000708547
0.000772874
0.000763193
0.000728777
0.000699199
0.000674279
0.000648655
0.000635177
2.41862e-05
0.000227584
0.000490271
0.000706783
0.000811113
0.000818706
0.000780082
0.000735875
0.000694024
0.000650017
0.00061789
2.24871e-05
0.000193394
0.000451775
0.000693072
0.000835661
0.000872827
0.000843592
0.000791974
0.000733705
0.000665664
0.000603573
2.06209e-05
0.000158937
0.000390896
0.000632091
0.000807616
0.000892897
0.000901554
0.000867117
0.00080806
0.000719536
0.000615507
1.80892e-05
0.000127272
0.000326969
0.000542529
0.000721735
0.000840643
0.000895766
0.000903394
0.000877941
0.000806462
0.000679288
1.56215e-05
0.000108469
0.000271266
0.00045595
0.000624615
0.000757851
0.000844297
0.00088937
0.000906134
0.000879919
0.000774552
1.42862e-05
0.000101884
0.000236568
0.000388248
0.000540188
0.000674578
0.000776119
0.000844151
0.000894126
0.00091936
0.000869184
1.4177e-05
9.97613e-05
0.000217219
0.000348336
0.000481916
0.00060684
0.00071062
0.000784554
0.000848612
0.000914978
0.000936594
1.46986e-05
0.000100217
0.00020778
0.000327689
0.000450286
0.000564986
0.000660446
0.000728535
0.000786084
0.000867073
0.000949019
1.53571e-05
0.000101988
0.000204
0.000317936
0.000434251
0.000542517
0.000630337
0.000688893
0.000726853
0.000789938
0.000904068
1.60549e-05
0.000105798
0.000205296
0.000314607
0.000426242
0.000530391
0.000613129
0.000664485
0.000685839
0.000713142
0.000810067
1.66516e-05
0.000110188
0.000208518
0.000314082
0.000421264
0.000521302
0.000600343
0.000647652
0.000659326
0.000657259
0.000708673
1.70829e-05
0.000114045
0.000212275
0.000314642
0.000416419
0.000510637
0.000585278
0.00063051
0.000639403
0.000619798
0.00062697
1.72991e-05
0.000117378
0.000216202
0.000315771
0.000411389
0.000497387
0.000565013
0.000607954
0.000618807
0.000593164
0.000568186
1.72793e-05
0.000119691
0.000219952
0.000317316
0.000406759
0.000482705
0.000539962
0.000578375
0.000592903
0.000569929
0.000528305
1.70254e-05
0.000121214
0.000224071
0.00032001
0.000403528
0.000468508
0.00051284
0.00054353
0.000560131
0.000544733
0.000498704
1.65269e-05
0.000122727
0.000229133
0.000323322
0.000400669
0.000455209
0.000486591
0.000507307
0.000522299
0.000514822
0.000476238
1.57835e-05
0.000123822
0.0002317
0.000322935
0.000395087
0.00044221
0.00046352
0.000473917
0.00048339
0.000480481
0.0004527
1.46663e-05
0.000120551
0.000226884
0.00031635
0.000386508
0.000430373
0.000445344
0.000446541
0.000448434
0.000445375
0.000427193
1.28632e-05
0.000111559
0.000214499
0.000303883
0.000375634
0.000420022
0.000432321
0.000426384
0.000420502
0.000414277
0.00040004
1.05998e-05
9.73849e-05
0.000191911
0.000284208
0.000360693
0.000408708
0.000422206
0.000412735
0.000400579
0.000390352
0.000376888
7.67883e-06
6.7845e-05
0.000161365
0.000256285
0.000337116
0.000389526
0.000408751
0.000402101
0.000387662
0.000374723
0.000361527
5.56728e-06
6.68431e-05
0.000141705
0.000227267
0.000295096
0.000345129
0.000373805
0.000380555
0.000373922
0.000364019
0.000353043
5.6632e-05
0.000338426
0.000453396
0.000497181
0.000511905
0.000519376
0.000525784
0.000527263
0.000517058
0.000485545
0.000429081
3.80184e-05
0.000277022
0.000433242
0.00049863
0.000518046
0.000522366
0.000522337
0.00051807
0.00050484
0.000474374
0.000421796
3.07583e-05
0.000244574
0.000412596
0.000501518
0.000531691
0.000537705
0.00053639
0.000529835
0.000514528
0.00048334
0.00042993
2.91532e-05
0.000217845
0.000394134
0.000502765
0.00054547
0.00055549
0.000555819
0.000550354
0.000534808
0.000501619
0.000447014
2.89824e-05
0.000191344
0.000357424
0.000479952
0.000540352
0.000558305
0.000556888
0.000546052
0.00052621
0.000493515
0.000439489
2.95098e-05
0.000180201
0.000334734
0.000451442
0.000516713
0.000544011
0.000550265
0.000546131
0.000532767
0.000505952
0.000457551
3.02736e-05
0.000171286
0.000317
0.000426771
0.000491326
0.000523217
0.000537502
0.000541991
0.000535094
0.000511095
0.000462272
3.12304e-05
0.000164201
0.000302193
0.000405026
0.000467264
0.000501536
0.00052171
0.000533677
0.000534208
0.000517421
0.000476175
3.21123e-05
0.000158045
0.000289475
0.000386256
0.00044584
0.000481347
0.00050605
0.000524643
0.000532396
0.000521164
0.000480354
3.2758e-05
0.000151683
0.000277664
0.000369844
0.000427395
0.00046386
0.000492185
0.000516197
0.000529471
0.000520736
0.00047678
3.32919e-05
0.000145357
0.000266691
0.000355412
0.000411621
0.000449066
0.000480417
0.000508761
0.000526156
0.000519945
0.000480736
3.37373e-05
0.000139752
0.000257017
0.000342893
0.000398171
0.000436644
0.000470686
0.000502763
0.000523786
0.000520108
0.000482152
3.39484e-05
0.000134253
0.000248096
0.000331858
0.000386737
0.000426431
0.000463058
0.000498661
0.000523229
0.000521808
0.000482842
3.39372e-05
0.000128192
0.000239124
0.000321715
0.000376921
0.000418176
0.000457427
0.000496494
0.000524507
0.000525257
0.000488522
3.36657e-05
0.000122176
0.000230442
0.000312352
0.000368354
0.000411455
0.00045343
0.000496026
0.000527589
0.000530363
0.000492293
3.31008e-05
0.000115808
0.000221598
0.000303347
0.000360678
0.00040597
0.000450819
0.00049711
0.000532555
0.000537585
0.000498976
3.22913e-05
0.000107899
0.000211367
0.000293823
0.000353208
0.00040113
0.000449009
0.000499209
0.000539145
0.000547057
0.000508619
3.10605e-05
9.81708e-05
0.000197572
0.000280721
0.000342446
0.000392898
0.000443394
0.0004977
0.000543983
0.000557425
0.000521361
2.93784e-05
8.65904e-05
0.000179791
0.00026289
0.000326367
0.000377563
0.000426646
0.000479034
0.000526517
0.000545949
0.000520971
2.72082e-05
7.33512e-05
0.000157443
0.000239071
0.00030381
0.000354624
0.000399155
0.00044355
0.000484575
0.000505383
0.000494538
2.44839e-05
5.90595e-05
0.000130756
0.000208306
0.000273465
0.000323584
0.000362588
0.00039583
0.000424059
0.000438684
0.000435315
2.11475e-05
4.51997e-05
0.00010224
0.00017153
0.000234823
0.000283947
0.000318553
0.000342038
0.000356933
0.000361023
0.000354459
1.70313e-05
3.22979e-05
7.37858e-05
0.000131765
0.000189091
0.000235103
0.000266465
0.000284407
0.000291274
0.000287863
0.000276055
1.2049e-05
3.08684e-05
6.67102e-05
0.00010465
0.000142413
0.000174738
0.000198313
0.00021231
0.00021724
0.000213762
0.000203363
5.15168e-05
0.000215599
0.000287582
0.000369843
0.00048993
0.000536384
0.000573191
0.000576303
0.000558801
0.000519898
0.000456405
3.63527e-05
0.000117897
0.000182678
0.000240965
0.000298635
0.000345612
0.000470382
0.00061005
0.000613101
0.000566795
0.000494384
3.04212e-05
8.22439e-05
0.000138559
0.00018718
0.000231315
0.000266757
0.000321829
0.000504782
0.000657128
0.000624572
0.000544742
2.4974e-05
8.30389e-05
0.000119644
0.000157562
0.0001943
0.000224821
0.00025891
0.000359423
0.000616422
0.000688271
0.000610681
2.95672e-05
0.000101125
0.000121748
0.000145455
0.00017269
0.000197932
0.000223253
0.000283686
0.000461315
0.00070758
0.00068374
3.53623e-05
0.000166778
0.000157775
0.000154466
0.000164871
0.000181117
0.000199735
0.000239649
0.000355681
0.000584558
0.000732007
3.93256e-05
0.000213822
0.000220026
0.00018808
0.000172675
0.000173953
0.000184241
0.000211544
0.000291081
0.000467488
0.00067836
4.22293e-05
0.000242677
0.000306688
0.000251144
0.000199685
0.000177663
0.000175848
0.000193181
0.000251031
0.000385794
0.000588451
4.47747e-05
0.000267065
0.000379534
0.00033545
0.000248207
0.000193814
0.000174506
0.000181618
0.000225243
0.000331606
0.000507016
4.67817e-05
0.000285388
0.000426247
0.000420078
0.000314383
0.000222796
0.00018034
0.000175548
0.000208395
0.000295342
0.00044313
4.81547e-05
0.000301326
0.000463444
0.000499161
0.000391887
0.000263745
0.000193218
0.000174266
0.000197665
0.000270563
0.000395013
4.89859e-05
0.000310441
0.000490032
0.00055528
0.000468777
0.000313055
0.000212072
0.000177235
0.000191788
0.000253996
0.000359215
4.92501e-05
0.000315527
0.000505526
0.000588531
0.000533089
0.000364865
0.00023494
0.000183709
0.000189861
0.000243376
0.000332762
4.90249e-05
0.000314444
0.000509046
0.000604043
0.000579082
0.000413288
0.000259489
0.000192894
0.000191327
0.000237214
0.000313681
4.8428e-05
0.000306146
0.000500231
0.000601788
0.000603486
0.000451908
0.000282635
0.000204036
0.000196038
0.000234952
0.000300011
4.73302e-05
0.000295224
0.000482506
0.000579154
0.000600069
0.000476608
0.000301551
0.000216238
0.000204147
0.000236669
0.000290413
4.55845e-05
0.000280393
0.000457855
0.000544025
0.000563708
0.000488405
0.000316208
0.000230251
0.000216487
0.000243173
0.000285033
4.31188e-05
0.000261518
0.000427603
0.000502008
0.000516076
0.000469694
0.000335409
0.000248927
0.00023524
0.000255934
0.000284389
4.00261e-05
0.000239498
0.000394077
0.000458491
0.000467219
0.000438526
0.000360993
0.00028109
0.000266361
0.000278731
0.000292887
3.64921e-05
0.000216371
0.0003602
0.000419882
0.00042948
0.000419943
0.000388581
0.000338226
0.000316295
0.000315032
0.000309476
3.28609e-05
0.00020062
0.00033782
0.000391669
0.000404106
0.00040528
0.000396666
0.000377321
0.000350545
0.000327913
0.000288394
3.00071e-05
0.00021355
0.000312381
0.000338686
0.000322519
0.000277531
0.000234812
0.000202078
0.000172137
0.000147533
0.000123486
1.7663e-05
0.000121586
0.000140495
0.000119072
9.52252e-05
8.09522e-05
7.13205e-05
6.4774e-05
5.99366e-05
5.60339e-05
5.23678e-05
8.97876e-06
1.08221e-05
1.37154e-05
1.79028e-05
2.40286e-05
3.20705e-05
4.14052e-05
5.09165e-05
5.93302e-05
6.55937e-05
6.90906e-05
2.75028e-05
6.23773e-05
5.55523e-05
5.32705e-05
4.41527e-05
3.50168e-05
2.94232e-05
2.61484e-05
2.39121e-05
2.21575e-05
2.06926e-05
2.38333e-05
6.46412e-05
4.4078e-05
5.72203e-05
4.74035e-05
3.6483e-05
2.93661e-05
2.53479e-05
2.27656e-05
2.08844e-05
1.94719e-05
2.43713e-05
5.90803e-05
4.12164e-05
5.42738e-05
4.97872e-05
3.84899e-05
2.98831e-05
2.50834e-05
2.21176e-05
2.0062e-05
1.85905e-05
2.65464e-05
5.42821e-05
4.15738e-05
5.10611e-05
5.10205e-05
4.05273e-05
3.06473e-05
2.515e-05
2.18137e-05
1.95899e-05
1.81068e-05
2.88641e-05
5.22943e-05
4.21463e-05
4.82978e-05
5.19308e-05
4.24564e-05
3.15633e-05
2.54594e-05
2.17641e-05
1.93547e-05
1.77971e-05
3.06071e-05
5.21779e-05
4.27443e-05
4.51215e-05
4.993e-05
4.43348e-05
3.27074e-05
2.60013e-05
2.19377e-05
1.93175e-05
1.76362e-05
3.17904e-05
5.34983e-05
4.36933e-05
4.24312e-05
4.54789e-05
4.48908e-05
3.42197e-05
2.67921e-05
2.23287e-05
1.9465e-05
1.76125e-05
3.24683e-05
5.62669e-05
4.53505e-05
4.09412e-05
4.12347e-05
4.30496e-05
3.57128e-05
2.79899e-05
2.296e-05
1.98003e-05
1.77384e-05
3.25077e-05
6.01995e-05
4.79252e-05
4.05958e-05
3.79912e-05
3.95024e-05
3.61666e-05
2.9369e-05
2.39358e-05
2.03906e-05
1.80589e-05
3.19042e-05
6.47647e-05
5.16699e-05
4.13733e-05
3.58366e-05
3.5383e-05
3.47343e-05
3.04437e-05
2.51687e-05
2.12335e-05
1.85936e-05
3.08599e-05
7.02569e-05
5.68853e-05
4.35484e-05
3.5144e-05
3.21775e-05
3.18616e-05
3.03873e-05
2.64153e-05
2.23317e-05
1.93652e-05
2.95405e-05
7.7351e-05
6.39007e-05
4.73121e-05
3.60052e-05
3.05682e-05
2.90558e-05
2.89531e-05
2.71425e-05
2.35813e-05
2.03896e-05
2.82006e-05
8.59265e-05
7.317e-05
5.29747e-05
3.83935e-05
3.04354e-05
2.71368e-05
2.67698e-05
2.67852e-05
2.46694e-05
2.16307e-05
2.72063e-05
9.5697e-05
8.52384e-05
6.11624e-05
4.2609e-05
3.17804e-05
2.64149e-05
2.47767e-05
2.53001e-05
2.50359e-05
2.29047e-05
2.68334e-05
0.000108104
0.000100972
7.2582e-05
4.90802e-05
3.4795e-05
2.71052e-05
2.37619e-05
2.35106e-05
2.43172e-05
2.37668e-05
2.715e-05
0.000123072
0.000121144
8.84538e-05
5.86639e-05
3.98854e-05
2.93515e-05
2.40176e-05
2.22977e-05
2.28711e-05
2.36776e-05
2.77283e-05
0.000138647
0.000145541
0.000110356
7.29122e-05
4.80067e-05
3.36293e-05
2.58133e-05
2.22294e-05
2.15866e-05
2.25996e-05
2.78183e-05
0.000153249
0.000172426
0.000139192
9.37171e-05
6.06613e-05
4.08901e-05
2.97122e-05
2.37974e-05
2.13631e-05
2.13675e-05
2.69223e-05
0.000164382
0.000198037
0.000173949
0.000123132
8.02421e-05
5.29293e-05
3.68918e-05
2.77693e-05
2.29796e-05
2.11648e-05
2.50143e-05
0.000169295
0.000217425
0.000209678
0.000161522
0.000109805
7.28891e-05
4.97742e-05
3.5828e-05
2.76467e-05
2.32465e-05
2.20388e-05
0.000163077
0.000225629
0.000238266
0.000205065
0.000151863
0.000105619
7.30425e-05
5.16926e-05
3.80917e-05
2.96843e-05
1.92274e-05
0.000150536
0.000222578
0.000253568
0.000243186
0.000202952
0.000155045
0.00011365
8.24273e-05
6.03778e-05
4.52704e-05
1.44969e-05
0.000115802
0.000165004
0.000204408
0.000220972
0.000216568
0.000193857
0.00016141
0.000128312
9.9805e-05
7.69855e-05
1.11545e-05
4.83486e-05
6.5565e-05
8.77995e-05
0.000109302
0.000128268
0.000140501
0.000141578
0.000133196
0.00011936
0.000102888
2.23844e-05
5.61544e-05
5.24846e-05
5.02845e-05
4.29051e-05
3.54105e-05
3.07384e-05
2.78876e-05
2.5883e-05
2.42735e-05
2.28844e-05
1.63733e-05
5.00783e-05
5.61929e-05
5.50555e-05
4.74216e-05
3.93817e-05
3.41115e-05
3.09618e-05
2.88597e-05
2.72467e-05
2.58804e-05
1.70458e-05
4.81223e-05
5.57848e-05
6.46804e-05
5.68395e-05
4.68988e-05
3.99059e-05
3.576e-05
3.31801e-05
3.13859e-05
3.00044e-05
1.95524e-05
4.56611e-05
5.50677e-05
7.09367e-05
6.67471e-05
5.95651e-05
5.2991e-05
4.8536e-05
4.55144e-05
4.31409e-05
4.09787e-05
2.26162e-05
4.25555e-05
5.59383e-05
7.54156e-05
7.36062e-05
6.75873e-05
6.07419e-05
5.61617e-05
5.33567e-05
5.15674e-05
5.02202e-05
2.56277e-05
4.00923e-05
5.71398e-05
7.78173e-05
7.79144e-05
7.31891e-05
6.65532e-05
6.23512e-05
6.01073e-05
5.91342e-05
5.8782e-05
2.84747e-05
3.83856e-05
5.8159e-05
7.90771e-05
8.08242e-05
7.7354e-05
7.11011e-05
6.75417e-05
6.60986e-05
6.62881e-05
6.754e-05
3.11638e-05
3.72342e-05
5.89293e-05
7.98854e-05
8.31565e-05
8.06867e-05
7.49332e-05
7.20987e-05
7.16244e-05
7.3389e-05
7.72531e-05
3.35406e-05
3.64547e-05
5.95165e-05
8.06553e-05
8.54399e-05
8.35701e-05
7.83773e-05
7.61524e-05
7.64871e-05
7.94549e-05
8.48999e-05
3.55867e-05
3.59137e-05
6.00627e-05
8.14715e-05
8.77893e-05
8.63305e-05
8.16356e-05
7.98288e-05
8.07391e-05
8.45864e-05
9.13611e-05
3.72875e-05
3.54999e-05
6.04989e-05
8.24631e-05
9.02166e-05
8.91799e-05
8.48488e-05
8.32415e-05
8.44453e-05
8.8677e-05
9.54906e-05
3.87196e-05
3.51375e-05
6.08106e-05
8.35649e-05
9.27451e-05
9.22115e-05
8.81286e-05
8.65198e-05
8.77664e-05
9.20764e-05
9.88253e-05
3.97754e-05
3.45949e-05
6.09368e-05
8.46977e-05
9.54333e-05
9.55228e-05
9.1615e-05
8.98105e-05
9.08822e-05
9.50672e-05
0.000101799
4.03461e-05
3.30333e-05
5.85801e-05
8.38944e-05
9.69045e-05
9.85258e-05
9.52756e-05
9.32856e-05
9.40533e-05
9.79574e-05
0.000104526
4.03739e-05
3.13143e-05
5.42341e-05
8.05619e-05
9.61404e-05
0.000100301
9.86868e-05
9.69576e-05
9.75114e-05
0.000101066
0.000107394
3.98184e-05
2.95576e-05
4.83982e-05
7.43093e-05
9.2428e-05
9.98678e-05
0.000101025
0.000100456
0.000101207
0.000104504
0.000110565
3.86642e-05
2.78521e-05
4.1822e-05
6.51955e-05
8.49743e-05
9.59076e-05
0.000100763
0.000102623
0.000104524
0.000108077
0.000114043
3.68223e-05
2.62865e-05
3.55432e-05
5.44689e-05
7.3829e-05
8.73617e-05
9.59356e-05
0.000101198
0.000105544
0.000110502
0.00011708
3.42369e-05
2.47672e-05
3.01036e-05
4.37596e-05
6.02607e-05
7.42768e-05
8.5169e-05
9.34614e-05
0.000100744
0.000108211
0.000116667
3.08676e-05
2.30967e-05
2.55775e-05
3.42998e-05
4.63938e-05
5.84237e-05
6.91907e-05
7.85264e-05
8.72693e-05
9.63695e-05
0.000106536
2.66641e-05
2.10068e-05
2.17597e-05
2.66172e-05
3.41884e-05
4.26974e-05
5.11682e-05
5.91918e-05
6.69817e-05
7.50714e-05
8.40192e-05
2.16359e-05
1.81685e-05
1.82281e-05
2.05326e-05
2.45146e-05
2.94296e-05
3.47557e-05
4.0181e-05
4.56369e-05
5.12363e-05
5.71643e-05
1.58167e-05
1.40063e-05
1.4052e-05
1.50011e-05
1.66976e-05
1.89238e-05
2.15066e-05
2.43301e-05
2.73324e-05
3.04941e-05
3.37966e-05
9.55378e-06
9.73277e-06
1.0939e-05
1.23151e-05
1.38254e-05
1.53726e-05
1.73958e-05
2.08843e-05
2.59138e-05
3.23567e-05
3.95814e-05
6.12991e-06
6.36784e-06
6.76393e-06
9.09314e-06
1.34266e-05
1.55276e-05
1.68569e-05
1.78275e-05
1.85268e-05
2.20135e-05
2.63483e-05
2.34008e-05
3.01778e-05
4.14652e-05
6.40665e-05
9.26116e-05
0.000119547
0.000139882
3.58204e-05
3.82265e-05
3.45255e-05
5.28009e-05
8.33267e-05
0.000131912
0.000187456
0.000232379
0.000267486
5.12403e-05
5.11245e-05
4.61496e-05
7.47553e-05
0.000123973
0.000196357
0.000274906
0.000334707
0.000373301
9.17557e-06
1.36727e-05
1.58923e-05
1.7126e-05
1.79145e-05
1.84184e-05
1.86006e-05
1.86207e-05
1.89629e-05
2.67259e-05
3.49924e-05
5.3276e-05
8.05403e-05
0.000110247
0.000131824
0.000149571
0.000163061
0.00015881
4.60288e-05
6.85927e-05
0.000110633
0.000167696
0.000220743
0.000259089
0.00028696
0.00030681
0.000298397
6.60879e-05
0.000101521
0.000166
0.000251106
0.000320558
0.000365702
0.000390403
0.000410321
0.000402989
0.0001956
0.000229708
0.000229755
0.000119598
0.000388998
0.000229268
8.75545e-05
0.000229536
0.000229351
0.000233972
0.00038156
0.000229595
0.0001259
0.000210814
0.000123804
0.000228731
0.000178755
0.000114859
0.000228729
0.000228563
0.000229576
3.17168e-05
0.000229991
0.000198943
0.00022932
0.000210724
0.000133706
8.90764e-05
0.000470164
0.000510224
0.000162509
0.000235929
0.000186867
0.000229438
0.000241127
0.000229675
0.000190094
0.000229317
0.000170758
0.000229226
2.12381e-05
0.000229479
6.58868e-05
0.000229974
0.000442492
5.65107e-05
5.42071e-05
9.81348e-05
0.000239816
0.000229713
0.000491086
0.000229195
0.000439631
6.4331e-05
0.000229613
0.00022936
3.12675e-05
0.000229185
0.00047159
0.000121558
2.55089e-05
0.000407045
0.000464958
0.000305972
2.90553e-05
0.000228557
0.000681076
0.00023079
0.000229711
0.000233443
0.000186149
0.00023457
0.000108439
0.000246964
0.000155768
0.000232443
2.06069e-05
0.000229719
0.000160735
0.000444798
0.00060022
0.000263119
0.00022926
0.000229794
0.000246993
0.000105962
0.000395925
0.000328318
4.97272e-05
0.000238873
0.000229506
0.000229155
2.40104e-05
0.000235262
0.000457706
0.000106836
0.000128392
0.000237612
4.74408e-05
0.000237454
0.000252705
0.000110329
0.000230255
0.000236405
5.83645e-05
0.000229571
0.000178956
0.000229872
0.000116766
0.000236072
0.000229348
0.000229537
0.000231557
0.000156697
6.17442e-05
0.000229028
0.000229318
0.000228948
0.000229292
0.000229235
0.000162184
0.000243845
0.00026631
0.000197423
5.26091e-05
0.000219515
0.00046032
0.000171508
0.00017782
0.000145054
0.000229172
0.00011563
0.000102169
0.000232991
0.000229785
0.000230508
2.28488e-05
0.00020068
0.000493141
0.000244503
7.32427e-05
0.00023122
0.000258654
0.000167904
0.000229353
3.93319e-05
0.000111781
0.000230539
0.000236085
0.000228944
0.000229105
0.000229137
4.14888e-05
0.000243449
0.000151162
7.35781e-05
7.95222e-05
3.11413e-05
0.000165123
0.00022891
0.000215792
5.3155e-05
0.000234032
0.000229147
0.000753881
0.000107785
6.53214e-05
0.00023952
0.000234442
2.86599e-05
0.000203939
0.000152728
0.000222145
0.000229519
0.000235165
0.000220268
0.000145591
4.07945e-05
0.000443845
0.000199615
0.000230041
2.82694e-05
0.000229923
0.000121568
0.000229317
0.000291721
0.000229153
0.000228887
0.00022964
0.000202078
0.000118341
0.00021238
0.000228548
2.09008e-05
0.000229741
0.000229116
0.000229705
4.7736e-05
0.000138234
0.000230001
3.57622e-05
0.000229925
0.000119149
0.000157681
0.00022982
0.00033827
0.000234387
0.000178623
0.000229657
0.000228732
0.000279174
0.000228976
0.000175109
0.000239008
0.000229273
0.000242328
0.000229387
4.29548e-05
0.000229287
9.17881e-05
0.000141816
0.00014231
0.000121156
6.31365e-05
0.000198091
0.000229187
9.69189e-05
0.000108817
0.000126203
0.000434132
3.43645e-05
0.000228507
0.000229119
0.000243781
4.04558e-05
0.000285849
0.000746601
0.000229876
0.000229604
0.000229547
4.29765e-05
0.000494289
0.000236518
1.90704e-05
0.000244228
5.42494e-05
0.000229367
0.000158849
0.000193888
0.000768432
0.000158582
0.000282396
0.000238981
0.000228678
0.000233794
0.000229592
0.000229282
0.000229283
4.79268e-05
0.000229223
0.000117938
0.000187334
0.000228214
0.000229621
0.000229343
5.4737e-05
0.000231642
0.000238684
0.000159416
0.000178627
0.000170624
0.0002293
0.000229936
5.48338e-05
0.00022914
0.000228973
0.000194847
0.000229201
0.000238215
5.67328e-05
0.000236422
0.00022984
0.000611113
0.000688195
0.00023339
0.000229152
0.000413994
0.000229765
0.000238005
7.85191e-05
0.000229868
0.000104678
0.000243475
0.000134902
0.000230004
0.000229653
0.000235205
0.000229593
0.000240712
0.000196187
0.000229127
0.00013424
0.000242732
0.000507186
0.0002292
0.000236329
0.000229728
0.00015217
2.81251e-05
0.00022924
5.5826e-05
0.00022963
0.000234116
0.00018946
2.44307e-05
0.000231488
0.000180324
7.85489e-05
0.000228763
0.000241257
0.000229053
0.000387505
0.000228947
0.000189223
0.000159015
0.000234797
0.00022915
0.00021215
0.000228214
0.000527182
0.000232387
0.000465658
1.81837e-05
0.00022993
0.000104072
0.000208123
8.53449e-05
0.00022968
0.00022926
0.000238637
5.02104e-05
0.0002692
0.000229887
0.000103259
0.000161929
0.000155625
6.39011e-05
0.000229017
0.000161147
0.00056064
5.54785e-05
0.000237159
0.000178723
0.000229156
0.000105135
0.000230037
0.000136313
0.000206675
0.00022997
0.000632924
0.000135492
0.000210984
0.000229418
0.000229319
0.000229799
5.74754e-05
0.00016189
9.26546e-05
6.4185e-05
0.000259389
0.000229201
0.000111146
0.000207725
0.000197512
0.000110533
0.000229833
0.000152132
0.000241002
0.000229103
0.000228916
0.000534457
0.000229081
3.81804e-05
0.000229165
0.00021297
0.000836237
0.000145917
0.000197147
0.000467544
5.04512e-05
0.000229154
4.77468e-05
0.000186948
0.000248782
0.000816644
2.86944e-05
0.000229232
0.000229001
0.000229918
4.49687e-05
4.80592e-05
0.000228987
0.000229963
8.1611e-05
0.000169159
2.26654e-05
0.000114229
0.000115072
0.000229872
0.000380734
0.000235986
0.000228694
0.000129585
0.000132936
5.17256e-05
0.000233931
0.000117775
0.000253515
0.000176037
5.27041e-05
0.000275669
0.000141167
8.30845e-05
0.000124909
0.000227255
0.000235212
0.000245485
7.38991e-05
0.000198751
3.64417e-05
0.000229243
3.84813e-05
0.000209521
0.000228649
0.000239572
0.000116171
0.000218664
0.00044132
0.000197123
0.000230039
0.000236449
0.000391144
9.79454e-05
0.000144764
0.000232046
8.87295e-05
0.000184
2.54864e-05
0.000228887
4.27536e-05
0.000229145
0.00022974
0.000229349
5.42932e-05
9.54699e-05
6.51046e-05
0.000204426
3.37752e-05
8.08873e-05
0.000229636
0.000228868
0.000486125
0.000175367
0.000233858
0.000234639
4.08775e-05
4.45375e-05
2.96836e-05
2.93526e-05
0.000232494
0.000211774
8.0137e-05
0.000229044
2.50338e-05
0.000233594
0.000229723
0.000229301
8.0565e-05
3.68123e-05
0.000229094
0.000229148
0.000229611
0.000428677
2.63933e-05
0.000229922
4.08815e-05
0.000424488
0.000156585
0.000105706
0.000228797
3.67667e-05
0.000229126
0.000233155
0.0002292
0.00016123
0.000145826
0.000228568
0.000190038
0.000168682
0.000237894
0.000224948
0.000212304
0.000229507
0.000229416
0.000247712
9.92714e-05
0.00012124
0.000232522
0.000101703
0.000229772
0.00036769
0.000104168
4.77408e-05
0.000105902
0.000252434
0.000725155
4.6018e-05
0.000189747
0.000229132
0.000182596
0.000228867
0.000229828
0.000229208
0.000229659
0.000233092
0.000507517
0.000229385
0.000228857
0.000127508
0.000229121
4.28084e-05
0.000240721
0.000132822
0.000173007
5.16885e-05
0.00023001
0.000229297
0.000229951
2.05034e-05
3.68127e-05
0.000229308
0.000229274
0.000197443
0.000229858
8.63586e-05
0.000229821
0.000623262
0.000236931
3.24391e-05
0.000160572
0.00012448
6.1691e-05
0.000403841
0.000229217
0.000231767
0.000235666
0.000229817
0.000116068
2.47049e-05
0.00022382
0.000145452
0.000163943
8.47031e-05
0.000229327
0.000230258
0.000229766
0.000176184
0.000834066
8.34058e-05
0.000229538
0.0002293
0.000692989
0.00023174
0.000145458
0.000169874
0.000123148
0.000259164
0.000229158
8.77194e-05
0.000229283
4.93769e-05
0.000229746
0.000163675
0.000141236
0.000234831
2.49534e-05
0.00011844
0.000229969
0.000230003
0.000465158
0.000229082
0.000181399
0.000266618
4.62703e-05
0.000163789
4.95497e-05
0.000164241
0.000231661
0.000229131
0.000229268
0.000116221
5.62305e-05
0.000110608
0.000228553
0.000229352
9.89869e-05
0.000229231
0.000239185
0.000234563
0.000234336
0.000146744
6.74535e-05
4.67609e-05
0.000159822
0.00023345
0.000227423
0.000228659
0.000123581
0.000232362
0.00022915
0.000182801
0.000378061
0.000228949
0.00022906
2.31015e-05
0.000230281
0.000228829
0.000147643
0.000229793
0.000233958
0.000107108
0.000145124
0.000157943
0.000207883
0.000150127
7.59765e-05
0.000245411
6.45348e-05
0.000101132
0.000178135
5.91784e-05
8.16053e-05
0.000126842
0.000229775
0.000229993
0.000154294
0.000230051
0.000229099
0.000243333
0.000209485
7.03552e-05
0.000195212
0.000192027
0.000258156
0.000229104
0.000190211
0.000229503
0.000229021
0.000236452
8.30502e-05
0.00023226
0.000233106
0.000230371
0.000229756
0.000316937
6.18458e-05
0.000413923
0.000232633
0.000229521
0.000189786
0.000118569
0.000239312
0.000179607
0.000232171
0.000180123
0.000267935
0.000229136
0.000104343
0.000229937
0.000188519
0.000378755
0.000146357
0.000158579
0.000214026
0.00024631
0.000229828
9.87329e-05
0.000175583
5.07915e-05
0.00050312
0.000228999
0.000233795
0.000229814
0.000160057
0.000229365
4.36206e-05
0.000229599
0.000229194
0.000229161
0.000133598
5.54595e-05
0.000229546
0.000123067
0.000229261
0.000108612
0.000165313
0.000231116
0.000299567
1.78114e-05
0.000146194
0.000236307
0.000212252
0.000147745
0.000106848
0.000194729
8.41926e-05
0.000229192
0.000177237
0.000229279
0.000231959
5.21837e-05
0.000215554
3.55474e-05
0.000211001
0.000231485
0.00023421
0.000229255
4.27694e-05
0.000229619
0.000507797
8.21014e-05
0.000620665
0.000234077
0.000138354
0.000106886
0.000154587
0.00024291
0.000133945
3.88366e-05
7.81268e-05
0.000229426
0.000210533
0.000158544
0.000229527
4.50702e-05
0.000114777
0.000249931
0.000170152
0.000229265
0.0002323
0.000234966
0.000124399
0.000237101
0.000193279
0.000229666
0.000188306
0.000234847
0.000143749
9.92975e-05
0.000319795
0.000120091
0.000228868
0.000197268
6.50386e-05
0.000229178
0.000207224
0.000187571
8.00714e-05
0.000239778
3.05044e-05
0.000240503
6.0483e-05
0.000159969
0.000252048
0.00022897
0.000246891
0.000229091
7.78392e-05
2.15487e-05
0.00023005
0.000229246
0.000252517
0.000420029
0.000416948
0.00016435
0.000229712
0.000172335
0.000247818
0.000229529
0.000229603
0.000229854
0.000229244
0.000239914
0.000150238