/*--------------------------------*- C++ -*----------------------------------*\
| =========                 |                                                 |
| \\      /  F ield         | OpenFOAM: The Open Source CFD Toolbox           |
|  \\    /   O peration     | Version:  3.0.1                                 |
|   \\  /    A nd           | Web:      www.OpenFOAM.org                      |
|    \\/     M anipulation  |                                                 |
\*---------------------------------------------------------------------------*/
FoamFile
{
    version     2.0;
    format      ascii;
    class       volVectorField;
    location    "0.429561";
    object      U;
}
// * * * * * * * * * * * * * * * * * * * * * * * * * * * * * * * * * * * * * //

dimensions      [0 1 -1 0 0 0 0];

internalField   nonuniform List<vector> 
21246
(
(5.27591 -1.21467 4.1184e-19)
(4.00835 -0.811948 -3.71478e-19)
(4.11742 -0.676276 3.51391e-19)
(3.95656 -0.606049 -2.76428e-19)
(3.70434 -0.544219 7.10143e-20)
(3.43732 -0.489848 -5.3782e-20)
(3.19361 -0.452351 -1.49754e-20)
(2.98512 -0.436465 3.95716e-20)
(2.80543 -0.440445 -2.97999e-20)
(2.64717 -0.459142 -1.73039e-20)
(2.51362 -0.479921 1.27795e-20)
(3.69883 -0.632297 -5.6316e-18)
(2.60096 -0.573027 2.34012e-18)
(3.12655 -0.866461 -2.15984e-18)
(3.33774 -0.95696 6.08729e-19)
(3.35356 -0.93938 3.90749e-19)
(3.27683 -0.862622 -2.48848e-19)
(3.13507 -0.757191 -5.37382e-21)
(2.97567 -0.672337 2.80745e-20)
(2.82572 -0.625698 -1.06568e-19)
(2.68911 -0.610702 -3.48117e-20)
(2.57415 -0.61415 7.34481e-21)
(2.86223 0.835709 5.52097e-19)
(2.22633 0.242014 0)
(2.50722 -0.416351 2.63628e-18)
(2.71884 -0.773314 -1.7864e-18)
(2.85976 -0.960106 7.96328e-19)
(2.94084 -1.01475 -6.59037e-19)
(2.94308 -0.963828 1.61183e-19)
(2.88319 -0.867699 -2.11941e-19)
(2.79023 -0.781871 8.50864e-20)
(2.69391 -0.738493 3.8397e-21)
(2.6135 -0.729937 1.08512e-20)
(2.8556 2.09236 5.7645e-18)
(2.42137 1.10378 0)
(2.3687 0.293452 -2.91663e-18)
(2.4096 -0.27045 1.92814e-18)
(2.49987 -0.672046 1.22875e-18)
(2.60943 -0.910574 -9.2524e-19)
(2.68826 -0.989376 0)
(2.71684 -0.957029 -4.80567e-21)
(2.70136 -0.88277 2.10784e-19)
(2.6605 -0.825591 -1.08755e-19)
(2.62471 -0.808045 4.77384e-20)
(3.36498 2.83369 -9.29941e-18)
(2.81572 1.82322 3.41225e-18)
(2.51459 0.982482 1.50659e-19)
(2.38022 0.294409 -1.65651e-18)
(2.35464 -0.253285 1.3245e-18)
(2.39791 -0.641112 0)
(2.47043 -0.856856 1.35555e-19)
(2.53722 -0.924289 4.66341e-21)
(2.5795 -0.900983 5.518e-21)
(2.59448 -0.85618 -1.25096e-19)
(2.60555 -0.837413 7.5796e-20)
(3.95036 3.16113 0)
(3.22767 2.384 3.00026e-18)
(2.79116 1.54636 -2.38018e-18)
(2.50459 0.80672 -1.06665e-19)
(2.35063 0.184166 0)
(2.30124 -0.301362 0)
(2.32451 -0.626587 -1.32198e-19)
(2.38538 -0.792461 0)
(2.45464 -0.837106 0)
(2.5126 -0.824077 3.91366e-19)
(2.56385 -0.813716 -5.36385e-19)
(4.1086 3.21637 -1.5952e-18)
(3.53167 2.76007 2.83611e-18)
(3.07609 1.99339 0)
(2.6864 1.26344 -3.69941e-19)
(2.42432 0.605535 -7.91974e-19)
(2.28224 0.0595684 7.99789e-19)
(2.24038 -0.343221 9.86041e-19)
(2.27114 -0.591079 -7.41681e-19)
(2.3437 -0.704138 0)
(2.4287 -0.73297 -2.6435e-19)
(2.51342 -0.740028 1.62894e-19)
(4.21756 3.20048 1.09032e-18)
(3.78824 2.98702 0)
(3.35086 2.34618 0)
(2.89083 1.668 3.61612e-19)
(2.54057 1.00405 1.2451e-18)
(2.31408 0.425171 -7.56952e-19)
(2.20468 -0.0293443 -4.96225e-19)
(2.19398 -0.340388 -2.96402e-19)
(2.25462 -0.514523 8.7067e-19)
(2.3538 -0.589104 -1.07196e-18)
(2.46605 -0.621076 3.72853e-19)
(4.28729 3.11454 3.56467e-18)
(3.94589 3.05477 -2.46818e-18)
(3.57946 2.59216 0)
(3.09479 2.00937 -3.28733e-19)
(2.68052 1.37102 4.54066e-19)
(2.38199 0.786248 6.20693e-19)
(2.20963 0.303499 -5.23369e-19)
(2.15464 -0.052329 -9.29806e-19)
(2.1948 -0.277823 4.53118e-19)
(2.29718 -0.397703 -2.21806e-19)
(2.43044 -0.461188 6.76749e-19)
(4.31718 3.00106 -1.50304e-18)
(4.0244 3.04366 0)
(3.74685 2.73811 0)
(3.28176 2.27368 3.23592e-19)
(2.83338 1.69506 -9.02504e-19)
(2.4803 1.1331 -5.89747e-19)
(2.25435 0.644655 9.25376e-20)
(2.15745 0.261498 6.55526e-19)
(2.17356 -0.00480038 0)
(2.27123 -0.167918 -4.79937e-19)
(2.41595 -0.268203 -3.13842e-19)
(4.31433 2.8831 0)
(4.05341 2.98712 -2.08595e-18)
(3.84594 2.7816 1.63684e-18)
(3.44116 2.45912 0)
(2.98998 1.96457 0)
(2.60566 1.44978 6.04901e-19)
(2.34053 0.977253 -4.1742e-19)
(2.20869 0.584335 5.5505e-19)
(2.20111 0.288896 0)
(2.28904 0.0867725 4.76011e-19)
(2.43856 -0.0550658 5.26739e-19)
(4.28333 2.76266 -3.2447e-19)
(4.04598 2.90948 0)
(3.87817 2.74829 0)
(3.56406 2.56055 0)
(3.14218 2.17 7.94326e-19)
(2.7518 1.71596 -1.204e-18)
(2.46663 1.27931 4.14631e-19)
(2.31189 0.893871 -1.06281e-18)
(2.28489 0.582094 0)
(2.35966 0.348189 0)
(2.50304 0.16724 -2.64257e-19)
(4.23823 2.63773 3.19907e-19)
(4.01966 2.81873 0)
(3.88628 2.68093 1.38967e-18)
(3.63208 2.56891 -5.56081e-20)
(3.2915 2.3065 3.21982e-19)
(2.91062 1.91868 -5.64607e-19)
(2.62793 1.53225 -7.00276e-19)
(2.46581 1.16866 8.02833e-19)
(2.42674 0.852073 -2.95052e-19)
(2.48773 0.593385 -1.78909e-19)
(2.61537 0.377537 0)
(4.19275 2.5095 1.17279e-18)
(3.99026 2.72035 -9.21704e-19)
(3.88594 2.59265 1.31625e-18)
(3.68146 2.52824 -1.02439e-18)
(3.4123 2.35492 -3.70123e-19)
(3.0796 2.05609 -7.30389e-19)
(2.81852 1.7238 7.01176e-19)
(2.66466 1.39159 -1.81583e-19)
(2.62182 1.07966 3.37132e-19)
(2.66955 0.803556 -1.27203e-19)
(2.77802 0.555071 4.59696e-20)
(4.14411 2.38571 -1.28234e-18)
(3.95619 2.61943 4.30957e-20)
(3.87796 2.48924 6.62432e-19)
(3.71479 2.45662 0)
(3.50805 2.33806 4.9179e-19)
(3.2448 2.12133 -2.59049e-19)
(3.02615 1.84637 -4.80113e-19)
(2.89613 1.55043 2.28995e-19)
(2.85853 1.2499 3.94772e-19)
(2.89484 0.96369 1.37215e-19)
(2.97889 0.68981 -1.0148e-19)
(4.10334 2.26908 7.4775e-20)
(3.92624 2.51977 -5.23607e-20)
(3.87054 2.37943 1.24082e-18)
(3.7406 2.36732 -9.64521e-19)
(3.58812 2.281 8.72107e-20)
(3.39708 2.12328 -1.16019e-19)
(3.23813 1.90368 1.32095e-19)
(3.1454 1.64395 -2.19893e-19)
(3.12236 1.35797 -3.45515e-19)
(3.15147 1.06578 1.63322e-19)
(3.21123 0.768874 0)
(4.07744 2.16158 7.23587e-20)
(3.90707 2.42448 5.34048e-20)
(3.86939 2.27102 6.20942e-19)
(3.76581 2.27167 -4.81682e-19)
(3.65877 2.20403 8.43767e-20)
(3.53697 2.08621 1.1654e-19)
(3.44452 1.91129 2.89095e-19)
(3.39995 1.68263 -3.98133e-19)
(3.40093 1.40949 1.35554e-19)
(3.42771 1.11277 0)
(3.46232 0.794926 5.64435e-22)
(4.05971 2.06748 -7.31405e-20)
(3.89494 2.33275 0)
(3.87121 2.17102 6.37652e-19)
(3.78929 2.18092 -1.48564e-19)
(3.72184 2.12785 -4.43537e-19)
(3.66492 2.03956 9.32486e-22)
(3.64171 1.89539 6.21614e-22)
(3.65522 1.68597 0)
(3.68949 1.41512 -6.22314e-20)
(3.7181 1.10535 0)
(3.72295 0.765182 -3.2976e-20)
(4.05017 1.98693 7.80393e-20)
(3.88962 2.24382 1.1437e-19)
(3.87251 2.0865 8.45457e-19)
(3.80848 2.10984 3.53709e-19)
(3.77854 2.07901 -2.85047e-19)
(3.78443 2.01571 0)
(3.83463 1.88646 1.7487e-19)
(3.91164 1.67336 -2.21777e-19)
(3.98362 1.38247 1.3722e-19)
(4.01761 1.04363 1.86031e-19)
(3.9933 0.673067 4.12955e-21)
(4.05565 1.92033 0)
(3.87334 2.16184 -3.7139e-19)
(3.84951 2.03734 5.44945e-19)
(3.80435 2.08363 -5.47134e-19)
(3.81337 2.08101 -4.05778e-19)
(3.88982 2.02506 -1.32959e-19)
(4.03527 1.86449 -8.27555e-20)
(4.1942 1.5909 4.79679e-19)
(4.30346 1.24229 -4.31601e-19)
(4.32353 0.879797 1.51626e-20)
(4.25397 0.493035 0)
(4.00072 1.89092 -1.50917e-18)
(3.80475 2.08677 -6.83145e-21)
(3.77651 2.02268 0)
(3.77463 2.06516 -3.00728e-19)
(3.86137 2.02625 9.03276e-19)
(4.07758 1.81042 4.08485e-19)
(4.30456 1.45606 -5.65917e-20)
(4.46741 1.09055 -2.59306e-19)
(4.54846 0.738657 -4.10784e-20)
(4.54625 0.398876 1.80842e-19)
(4.43878 0.0754064 -1.10202e-19)
(3.78466 1.84746 -3.53438e-18)
(3.64036 2.0007 1.29784e-18)
(3.68445 1.9133 1.67754e-20)
(3.81123 1.83908 3.68173e-19)
(4.0199 1.52491 -5.11452e-19)
(4.24022 1.14531 -7.30541e-19)
(4.41056 0.831747 -2.32207e-19)
(4.53343 0.536452 8.19696e-19)
(4.60878 0.24728 3.58197e-19)
(4.6178 -0.0351375 -1.99612e-19)
(4.50129 -0.336063 0)
(3.33717 1.919 0)
(3.62603 1.61157 -1.74769e-20)
(3.79409 1.46843 -6.01076e-19)
(3.98051 1.16715 -5.39724e-20)
(4.1505 0.863727 3.87844e-20)
(4.2977 0.604689 8.13457e-19)
(4.42777 0.368785 2.78066e-19)
(4.54478 0.137111 -1.03875e-18)
(4.64036 -0.0994648 -2.29186e-19)
(4.69048 -0.341079 -7.55873e-19)
(4.62071 -0.600654 3.34938e-19)
(3.87211 1.19732 0)
(3.94171 1.19366 1.63204e-18)
(4.04531 0.887819 -1.10083e-18)
(4.12288 0.641528 0)
(4.20278 0.445228 0)
(4.29716 0.267118 0)
(4.40503 0.0887406 -6.36755e-19)
(4.52074 -0.103526 8.12571e-19)
(4.63193 -0.315164 -5.70949e-20)
(4.7191 -0.545219 -2.88057e-19)
(4.72394 -0.799209 8.61556e-20)
(5.61809 0.881239 -1.96107e-18)
(5.01195 0.948658 -6.03531e-19)
(4.51858 0.537365 1.30032e-19)
(4.10821 0.238566 -2.26988e-19)
(3.7518 0.0541709 1.91329e-19)
(3.44125 -0.0568883 -4.84361e-21)
(3.17587 -0.129027 1.50328e-20)
(2.95168 -0.185753 -8.06501e-20)
(2.75945 -0.239462 6.06091e-20)
(2.59156 -0.291542 5.40357e-20)
(2.44584 -0.333591 -3.97579e-20)
(3.68546 2.65582 7.97108e-19)
(3.94405 2.11955 -5.34037e-19)
(3.99212 1.62523 -1.8098e-19)
(3.88778 1.13869 -3.34141e-19)
(3.68305 0.746024 2.85503e-19)
(3.42876 0.457648 -3.83479e-19)
(3.17 0.254386 1.249e-19)
(2.93333 0.106817 0)
(2.72518 -0.00938785 -1.25821e-19)
(2.54291 -0.104999 9.16921e-20)
(2.3862 -0.175043 0)
(2.3097 2.85094 0)
(2.94019 2.45185 -4.31313e-19)
(3.274 2.15485 6.01064e-19)
(3.41907 1.75268 -3.67762e-20)
(3.40419 1.33722 0)
(3.27058 0.966836 0)
(3.07429 0.666282 0)
(2.86269 0.432278 0)
(2.66148 0.248222 1.95046e-19)
(2.4792 0.10191 -1.41436e-19)
(2.31983 -0.00240802 0)
(1.99521 2.68837 -1.81551e-18)
(2.34528 2.42827 1.88946e-18)
(2.60928 2.34938 -8.25593e-19)
(2.87126 2.10365 -3.34814e-19)
(3.00627 1.76091 7.7923e-19)
(2.99218 1.39403 0)
(2.87834 1.05191 4.11555e-19)
(2.71684 0.758253 -2.11651e-21)
(2.54446 0.513564 -1.21933e-19)
(2.3795 0.313473 8.85439e-20)
(2.23065 0.169354 -8.3465e-20)
(2.0209 2.51182 0)
(2.19556 2.3229 0)
(2.29725 2.36582 -4.93011e-20)
(2.44946 2.27037 0)
(2.57555 2.06008 1.96678e-19)
(2.63372 1.75675 -1.77819e-19)
(2.60056 1.41787 -5.91937e-19)
(2.50518 1.08565 5.70166e-20)
(2.38085 0.784936 -4.1922e-20)
(2.24848 0.529253 -1.29584e-19)
(2.11774 0.341488 -2.71165e-20)
(2.20457 2.39074 -5.4424e-20)
(2.23489 2.2401 -7.48794e-20)
(2.21872 2.30674 -1.41132e-19)
(2.26351 2.28416 4.50758e-19)
(2.30815 2.17712 0)
(2.31853 1.98047 -1.39351e-19)
(2.28205 1.71232 -7.03428e-20)
(2.2097 1.40464 2.54656e-19)
(2.11984 1.08811 1.34246e-19)
(2.02651 0.789015 7.77032e-20)
(1.94014 0.544375 2.77706e-20)
(2.41496 2.31042 0)
(2.35168 2.19411 0)
(2.25924 2.23833 7.7801e-19)
(2.20896 2.23596 -1.3123e-18)
(2.16537 2.17644 5.26952e-19)
(2.10723 2.04307 2.15643e-20)
(2.02771 1.83411 -6.44678e-20)
(1.93925 1.56477 0)
(1.85669 1.26185 -6.70269e-20)
(1.78378 0.95725 0)
(1.7212 0.698728 -1.02353e-20)
(2.60235 2.24333 -4.07631e-19)
(2.48567 2.17178 2.99272e-19)
(2.36021 2.1824 -2.54499e-20)
(2.24454 2.1759 4.18769e-20)
(2.12291 2.13248 -1.33832e-20)
(1.98521 2.03352 -2.08267e-20)
(1.83452 1.86927 2.59975e-20)
(1.6939 1.6394 -6.02069e-20)
(1.58946 1.35884 8.05099e-20)
(1.52149 1.05907 0)
(1.47271 0.796452 1.84395e-20)
(2.77015 2.18364 1.73974e-20)
(2.61959 2.15872 0)
(2.48788 2.14225 4.67407e-20)
(2.33171 2.12458 -2.77246e-19)
(2.15769 2.07887 2.11394e-19)
(1.95797 1.99207 -1.06975e-19)
(1.73 1.85062 7.62833e-20)
(1.51139 1.65125 1.14505e-19)
(1.35323 1.39442 -7.88293e-20)
(1.27169 1.10328 6.66788e-20)
(1.2352 0.845456 3.29684e-20)
(2.92274 2.14289 -1.17599e-19)
(2.75015 2.15037 8.83199e-20)
(2.62725 2.11262 -2.16241e-20)
(2.44715 2.08648 -5.85525e-20)
(2.23957 2.03 1.65121e-20)
(1.99572 1.93782 -4.5683e-20)
(1.71407 1.80155 0)
(1.4186 1.61677 -4.22621e-20)
(1.17361 1.3754 -4.51206e-20)
(1.04855 1.09185 3.64553e-20)
(1.00874 0.832013 1.61091e-20)
(3.06453 2.11456 -1.50252e-19)
(2.88486 2.14464 2.54086e-19)
(2.77042 2.08796 -5.66142e-20)
(2.57772 2.05723 -1.01277e-19)
(2.35408 1.98743 -1.04452e-20)
(2.08223 1.88338 1.42883e-19)
(1.76057 1.73602 -3.84163e-20)
(1.40772 1.54352 -2.64773e-19)
(1.08256 1.31001 -1.01611e-19)
(0.876213 1.03006 -1.11168e-19)
(0.808338 0.756119 1.0926e-19)
(3.20667 2.079 -5.87331e-20)
(3.01809 2.14494 3.38823e-19)
(2.90792 2.06903 -3.1011e-19)
(2.71789 2.02984 -1.50899e-19)
(2.49033 1.94632 -8.25093e-20)
(2.20502 1.82772 1.62156e-19)
(1.85959 1.66302 -8.15412e-20)
(1.46675 1.44905 -6.72473e-20)
(1.07589 1.19671 5.08441e-19)
(0.787461 0.917781 -5.41855e-19)
(0.668616 0.627353 3.78948e-19)
(3.34245 2.04115 -5.54322e-19)
(3.1427 2.14582 4.77873e-19)
(3.04445 2.0505 1.24957e-19)
(2.86349 1.99952 1.49558e-19)
(2.63858 1.9034 -1.27914e-19)
(2.35303 1.76729 5.50888e-19)
(2.00103 1.58127 -2.38898e-19)
(1.58853 1.34024 -7.73656e-19)
(1.15419 1.0562 -2.709e-19)
(0.793341 0.754185 3.10263e-19)
(0.593825 0.46345 -2.08033e-19)
(3.47194 2.00579 -7.17086e-19)
(3.26266 2.14099 6.45118e-19)
(3.17787 2.03076 -1.24757e-19)
(3.00709 1.9652 -5.10519e-19)
(2.79255 1.85539 -2.72653e-19)
(2.51923 1.699 1.0677e-18)
(2.17752 1.4881 4.74544e-20)
(1.7663 1.21727 -4.32185e-20)
(1.31366 0.897425 3.18903e-19)
(0.899957 0.562724 -5.99747e-19)
(0.633355 0.237736 3.31575e-19)
(3.59556 1.97686 9.25684e-19)
(3.37904 2.13138 -1.04299e-18)
(3.30602 2.00751 0)
(3.14742 1.92525 0)
(2.94881 1.79841 2.33112e-19)
(2.69732 1.61938 -4.36488e-19)
(2.38092 1.38097 2.98257e-19)
(1.9931 1.07948 0)
(1.54912 0.725017 0)
(1.10863 0.357535 5.99286e-19)
(0.800946 -0.0194952 -4.15245e-19)
(3.7096 1.94989 1.24966e-18)
(3.48921 2.11298 5.53522e-20)
(3.426 1.97641 -8.25435e-19)
(3.28215 1.87441 7.5109e-19)
(3.10405 1.72607 -9.00905e-19)
(2.88214 1.5219 6.46247e-20)
(2.60472 1.25673 1.27255e-18)
(2.26151 0.928602 4.01006e-20)
(1.85497 0.545834 -5.23154e-19)
(1.41851 0.151802 1.59025e-18)
(1.09453 -0.266175 -1.0601e-18)
(3.81381 1.92374 7.02636e-19)
(3.59198 2.08214 2.85104e-19)
(3.53697 1.93178 0)
(3.41036 1.80522 -8.66314e-19)
(3.25694 1.63141 6.32352e-19)
(3.07098 1.40237 -8.53764e-19)
(2.84302 1.11517 -9.88642e-19)
(2.56182 0.768577 -4.33941e-20)
(2.22074 0.366712 1.18047e-18)
(1.82785 -0.0544421 -1.22151e-18)
(1.49763 -0.500582 6.23368e-19)
(3.90477 1.89643 1.82994e-18)
(3.68462 2.0317 1.08926e-19)
(3.63641 1.86453 -2.28712e-18)
(3.5292 1.71162 9.08182e-19)
(3.40438 1.51398 3.76259e-19)
(3.25952 1.26511 -1.02375e-18)
(3.08787 0.962851 1.00691e-18)
(2.87918 0.606787 0)
(2.62192 0.198976 -6.4167e-19)
(2.30249 -0.235221 -4.42803e-19)
(2.02339 -0.713316 0)
(3.97328 1.85945 -2.24812e-18)
(3.75933 1.95159 1.43547e-18)
(3.71673 1.7714 -1.65791e-19)
(3.63095 1.59764 -1.34383e-19)
(3.53824 1.38106 2.18001e-19)
(3.43904 1.11672 -1.75833e-19)
(3.32883 0.804523 -1.14779e-18)
(3.19858 0.446278 1.07273e-18)
(3.03763 0.0435671 0)
(2.82673 -0.392532 2.3887e-19)
(2.62265 -0.870769 -6.14833e-19)
(4.00845 1.8021 1.74673e-19)
(3.80568 1.84628 1.42174e-19)
(3.7687 1.66046 2.25584e-19)
(3.70559 1.4691 1.43981e-19)
(3.64863 1.23396 -2.31564e-19)
(3.60101 0.956367 1.85225e-19)
(3.55796 0.640467 1.19475e-18)
(3.50851 0.28835 -1.22017e-18)
(3.442 -0.100395 5.87982e-19)
(3.34363 -0.52184 -1.20115e-18)
(3.24592 -0.984635 3.3827e-19)
(4.00315 1.7303 -4.20046e-20)
(3.81695 1.71951 -1.0108e-19)
(3.78517 1.52823 -5.15801e-20)
(3.74818 1.31442 -8.12995e-20)
(3.73308 1.05988 0)
(3.74333 0.775784 0)
(3.77002 0.468924 0)
(3.79832 0.137305 1.16482e-19)
(3.81567 -0.223656 8.57378e-20)
(3.81241 -0.614422 2.26005e-19)
(3.80584 -1.03241 -1.62185e-19)
(3.94609 1.57661 2.19223e-19)
(3.78525 1.56892 8.0724e-20)
(3.7783 1.35156 1.98035e-18)
(3.77422 1.11339 -1.35543e-18)
(3.80853 0.848397 0)
(3.87691 0.574708 -8.57302e-19)
(3.96397 0.295117 9.49705e-19)
(4.05415 -0.000524484 -4.57476e-19)
(4.13885 -0.322127 1.59158e-19)
(4.21623 -0.672664 -1.13693e-19)
(4.273 -1.05276 0)
(3.85542 1.64013 -5.4348e-18)
(3.78113 1.38376 2.9251e-18)
(3.7773 1.12966 2.97654e-19)
(3.81957 0.871997 0)
(3.90534 0.618316 6.47878e-19)
(4.01767 0.376645 -9.31128e-19)
(4.14015 0.139881 6.77208e-19)
(4.26363 -0.109337 -5.73308e-20)
(4.38529 -0.386977 4.04669e-20)
(4.50293 -0.697166 1.94534e-19)
(4.59806 -1.04046 -1.363e-19)
(3.89087 0.954552 4.43446e-19)
(3.82359 0.937858 2.88153e-18)
(3.8987 0.721478 -1.49903e-18)
(3.99011 0.524499 0)
(4.09817 0.334628 -7.69562e-19)
(4.2145 0.154963 5.35154e-19)
(4.33415 -0.0269761 0)
(4.45675 -0.230691 0)
(4.57275 -0.454085 2.93913e-19)
(4.67686 -0.700895 -5.58402e-19)
(4.74683 -0.972972 2.45479e-19)
(7.41797 -5.22914 1.1421e-19)
(6.23186 -4.43632 -2.42033e-19)
(5.89858 -3.48972 1.88387e-19)
(5.6047 -2.7648 -1.77952e-20)
(5.2892 -2.2033 -1.32915e-20)
(4.97998 -1.78224 -1.2998e-19)
(4.68626 -1.46022 7.70436e-20)
(4.41662 -1.21057 7.56551e-20)
(4.17343 -1.01207 -1.17199e-19)
(3.95609 -0.852451 -4.92709e-20)
(3.76213 -0.733526 4.66922e-20)
(3.2883 -5.50769 -3.1694e-19)
(3.69838 -5.05464 3.83104e-19)
(4.15974 -4.35009 0)
(4.4251 -3.63483 0)
(4.50108 -2.9891 0)
(4.44843 -2.43717 7.48476e-19)
(4.31842 -1.98595 -5.50867e-19)
(4.15133 -1.62611 0)
(3.97348 -1.34141 7.46878e-19)
(3.79951 -1.11719 -2.74229e-19)
(3.63491 -0.94856 -2.60065e-19)
(1.148 -4.32803 -5.15007e-18)
(2.09742 -4.52408 2.50844e-18)
(2.69451 -4.32446 0)
(3.2065 -3.90172 0)
(3.55574 -3.39118 -1.87463e-18)
(3.74474 -2.87133 1.43107e-18)
(3.80671 -2.39041 1.55998e-18)
(3.78062 -1.97422 -2.18353e-18)
(3.70358 -1.6286 -1.96178e-19)
(3.60329 -1.34859 4.83751e-19)
(3.49105 -1.13284 2.57636e-19)
(0.424117 -3.34856 0)
(1.0232 -3.56496 1.79045e-18)
(1.61333 -3.77567 0)
(2.20575 -3.71268 0)
(2.68022 -3.42457 0)
(3.02025 -3.03664 -8.48371e-19)
(3.23386 -2.62002 0)
(3.34133 -2.2196 7.38105e-19)
(3.36886 -1.86103 -9.53828e-19)
(3.33907 -1.55618 6.11883e-19)
(3.28219 -1.30761 0)
(0.288367 -2.83617 4.13872e-18)
(0.679604 -2.98781 -5.06875e-20)
(0.957414 -3.15545 1.15839e-18)
(1.382 -3.22043 -2.56409e-18)
(1.85182 -3.16461 1.7508e-19)
(2.26859 -2.96161 2.68818e-18)
(2.58765 -2.65874 1.22782e-18)
(2.80658 -2.315 -7.29189e-19)
(2.94291 -1.97317 9.40336e-19)
(3.02018 -1.6581 7.85853e-19)
(3.03697 -1.39326 0)
(0.307811 -2.43512 8.42593e-19)
(0.605811 -2.53309 -2.25843e-20)
(0.772166 -2.68041 -1.09812e-18)
(1.07466 -2.76145 -8.28507e-19)
(1.41481 -2.76188 -2.38354e-18)
(1.77118 -2.66116 9.42903e-19)
(2.10034 -2.47222 -1.19531e-18)
(2.37183 -2.22367 -1.59038e-18)
(2.57494 -1.94805 2.22805e-18)
(2.71334 -1.67512 -2.13186e-18)
(2.78888 -1.43329 -9.70024e-19)
(0.320877 -2.10533 7.6016e-19)
(0.56704 -2.14354 6.43123e-19)
(0.682137 -2.25907 0)
(0.908013 -2.33374 0)
(1.17181 -2.35986 -1.09969e-18)
(1.46436 -2.31836 8.44683e-19)
(1.75802 -2.20747 0)
(2.02622 -2.03915 0)
(2.25171 -1.8333 -1.14077e-18)
(2.42612 -1.61307 0)
(2.54041 -1.4026 9.55258e-19)
(0.329373 -1.8369 0)
(0.547546 -1.82994 -5.3116e-19)
(0.640161 -1.91189 0)
(0.819188 -1.97149 0)
(1.02946 -2.00069 1.05694e-18)
(1.26925 -1.9866 0)
(1.52236 -1.92398 0)
(1.76985 -1.81519 0)
(1.99572 -1.66948 3.89649e-21)
(2.18629 -1.50276 0)
(2.32181 -1.3381 0)
(0.343059 -1.60483 0)
(0.542962 -1.56892 5.07139e-19)
(0.62139 -1.62547 0)
(0.772114 -1.67041 0)
(0.94669 -1.69502 9.27547e-19)
(1.14736 -1.69122 -1.40588e-18)
(1.36483 -1.65463 0)
(1.58671 -1.58404 0)
(1.80085 -1.48215 1.08639e-18)
(1.99372 -1.35748 0)
(2.14264 -1.22728 -3.31563e-20)
(0.370781 -1.40737 -1.40824e-19)
(0.55576 -1.34535 -4.46674e-19)
(0.618874 -1.38225 3.47108e-19)
(0.748691 -1.41505 5.46881e-19)
(0.897743 -1.43346 -8.38422e-19)
(1.06994 -1.43237 1.31869e-18)
(1.25933 -1.40894 -4.95272e-19)
(1.45767 -1.36123 6.97317e-19)
(1.65631 -1.28874 4.1383e-21)
(1.84367 -1.19449 3.6928e-19)
(1.99621 -1.08776 1.46214e-18)
(0.403398 -1.25276 6.50186e-20)
(0.5716 -1.15742 -5.58178e-20)
(0.623461 -1.17419 1.59259e-19)
(0.738272 -1.19465 0)
(0.868852 -1.20559 5.92313e-19)
(1.0204 -1.20336 0)
(1.18858 -1.18613 2.19079e-19)
(1.36756 -1.15216 -6.83733e-19)
(1.5513 -1.09994 -4.89668e-19)
(1.72999 -1.03053 6.53942e-19)
(1.87537 -0.952855 -7.15498e-19)
(0.423932 -1.11826 2.93855e-20)
(0.573046 -0.991078 -1.93885e-19)
(0.624733 -0.990439 -3.58991e-20)
(0.732298 -0.999458 -1.1539e-19)
(0.851378 -1.00261 -3.58634e-21)
(0.989009 -0.997263 -2.05599e-19)
(1.14204 -0.982399 -9.45074e-21)
(1.30627 -0.95674 -8.20663e-20)
(1.47748 -0.918628 1.09118e-19)
(1.64818 -0.867699 -4.85875e-19)
(1.79216 -0.808971 1.07408e-19)
(0.439673 -0.980961 -2.88174e-20)
(0.57226 -0.831343 1.76096e-19)
(0.626087 -0.819081 -1.71027e-19)
(0.729051 -0.819607 1.57843e-19)
(0.840823 -0.816213 8.58789e-20)
(0.969558 -0.807436 1.89274e-19)
(1.11253 -0.793099 0)
(1.26654 -0.772538 -3.86624e-20)
(1.42861 -0.744135 1.30634e-19)
(1.59361 -0.705858 -3.78436e-20)
(1.73777 -0.65665 -1.06262e-19)
(0.459279 -0.857888 2.0618e-19)
(0.579504 -0.68246 0)
(0.631544 -0.657546 2.49561e-19)
(0.729347 -0.649846 -1.03228e-19)
(0.835754 -0.64042 -1.53598e-19)
(0.958945 -0.628268 -3.18474e-21)
(1.0958 -0.613769 0)
(1.2433 -0.596839 -2.5255e-19)
(1.39879 -0.576046 3.66523e-19)
(1.55847 -0.548694 0)
(1.69655 -0.512617 -4.62462e-19)
(0.471296 -0.746385 1.96462e-19)
(0.577175 -0.540662 3.1093e-19)
(0.633866 -0.502194 -2.58628e-19)
(0.731177 -0.486229 1.06843e-20)
(0.835811 -0.470988 -2.89917e-19)
(0.95678 -0.455651 0)
(1.09083 -0.441026 0)
(1.23498 -0.427513 4.88077e-19)
(1.38632 -0.413883 -5.43449e-19)
(1.54237 -0.396779 -4.77111e-19)
(1.6796 -0.370524 3.67016e-19)
(0.484599 -0.625875 7.54115e-19)
(0.574222 -0.394649 -2.9848e-19)
(0.637983 -0.34634 -6.73726e-19)
(0.736502 -0.323786 3.6347e-19)
(0.841734 -0.303569 -5.10399e-19)
(0.96332 -0.285747 3.83743e-19)
(1.09751 -0.271794 0)
(1.24095 -0.262613 4.17407e-19)
(1.3899 -0.25686 -3.11666e-19)
(1.54315 -0.250311 5.00216e-19)
(1.67811 -0.233831 4.48534e-19)
(0.505063 -0.508041 -1.09099e-18)
(0.580299 -0.249921 -2.58113e-19)
(0.649264 -0.190145 8.79057e-19)
(0.748136 -0.160088 0)
(0.855257 -0.134877 9.83716e-19)
(0.980004 -0.11537 -7.50624e-19)
(1.11705 -0.103724 2.77553e-19)
(1.2618 -0.100977 -3.00945e-20)
(1.40904 -0.10495 2.45553e-19)
(1.55878 -0.110452 1.20453e-18)
(1.68877 -0.104981 -3.28933e-19)
(0.523735 -0.395153 7.15919e-19)
(0.583693 -0.107143 7.80424e-19)
(0.663282 -0.0323427 -3.77653e-19)
(0.765989 0.0070168 0)
(0.878819 0.0372144 -4.75678e-19)
(1.00991 0.0568816 0)
(1.15207 0.0635062 4.47859e-19)
(1.29907 0.0566502 0)
(1.44415 0.0403544 4.29372e-19)
(1.58961 0.0207605 -4.68196e-19)
(1.71353 0.0147016 -2.09191e-20)
(0.546736 -0.274697 -6.65264e-19)
(0.588159 0.0424809 -5.056e-19)
(0.684069 0.133224 4.76691e-20)
(0.795334 0.182016 6.11109e-20)
(0.91903 0.215336 3.60185e-19)
(1.06035 0.231276 -1.08462e-18)
(1.20922 0.227791 -2.64138e-20)
(1.35741 0.206699 -5.97884e-19)
(1.49751 0.175482 3.72904e-19)
(1.63429 0.141693 -1.31619e-18)
(1.75263 0.124069 -2.70368e-20)
(0.58209 -0.141325 0)
(0.602197 0.204023 0)
(0.720743 0.311093 9.43923e-19)
(0.846024 0.367894 2.86689e-20)
(0.985456 0.399694 -3.75621e-19)
(1.13918 0.404722 5.38143e-19)
(1.29314 0.383712 0)
(1.43771 0.343278 0)
(1.5673 0.295436 -7.4385e-19)
(1.68895 0.24924 -5.45433e-19)
(1.79839 0.221182 2.88295e-20)
(0.634142 0.00591428 3.12118e-19)
(0.634762 0.382139 -4.41357e-19)
(0.784881 0.503522 -3.22877e-19)
(0.932638 0.563032 -3.66769e-19)
(1.09171 0.583769 2.77236e-19)
(1.25565 0.566768 0)
(1.40723 0.519938 0)
(1.53856 0.457165 0)
(1.64942 0.393977 3.24402e-20)
(1.74969 0.339239 2.28061e-19)
(1.84387 0.303688 3.75282e-19)
(0.754894 0.194198 -2.36457e-19)
(0.693753 0.583218 0)
(0.904165 0.707231 -5.11914e-19)
(1.07987 0.755536 3.57286e-19)
(1.25472 0.747865 0)
(1.41635 0.695611 0)
(1.54964 0.618569 3.87424e-19)
(1.65405 0.536787 -6.06527e-19)
(1.7372 0.464915 2.35e-19)
(1.81174 0.408667 -1.83264e-19)
(1.88841 0.370045 -2.94743e-20)
(0.705336 0.276543 0)
(0.853342 0.752035 0)
(1.06745 0.884171 1.55592e-19)
(1.28317 0.894989 1.51596e-20)
(1.46279 0.841614 -8.20552e-20)
(1.60083 0.75207 9.13171e-21)
(1.69799 0.65513 0)
(1.76564 0.569124 0)
(1.81723 0.502172 0)
(1.86546 0.455807 -7.20976e-20)
(1.92385 0.42451 1.16633e-19)
(2.42723 0.909853 1.42092e-19)
(1.391 1.17218 6.13169e-20)
(1.83348 1.00454 0)
(1.86522 0.926728 0)
(1.88516 0.821391 -1.59406e-20)
(1.88902 0.713313 -1.72899e-20)
(1.88724 0.622177 -4.26147e-21)
(1.88654 0.55267 -1.05733e-20)
(1.89263 0.505006 -2.28863e-20)
(1.9091 0.479219 8.86985e-20)
(1.94466 0.465767 0)
(8.11866 -2.80404 4.80836e-19)
(6.33126 -1.15807 0)
(6.63924 -1.54705 -3.11507e-19)
(6.52661 -1.61399 2.05409e-20)
(5.97675 -1.38945 5.30303e-19)
(5.46539 -1.17843 -2.25502e-19)
(5.02375 -0.978446 6.42459e-20)
(4.66114 -0.819138 1.4941e-20)
(4.35192 -0.69094 9.0138e-22)
(4.08456 -0.585807 -1.43328e-20)
(3.8548 -0.510825 2.41708e-20)
(5.26069 -1.90064 -7.80723e-19)
(4.31018 -0.192525 -1.68776e-18)
(5.51957 -0.216763 3.46781e-19)
(6.12911 -0.357393 -3.49032e-18)
(6.12176 -0.37571 2.71775e-18)
(5.83058 -0.394705 -1.77882e-19)
(5.33319 -0.388437 0)
(4.88821 -0.361456 -9.07616e-20)
(4.51722 -0.322808 2.97006e-19)
(4.19936 -0.2835 1.07595e-19)
(3.93944 -0.260788 1.0926e-20)
(2.33934 -2.686 0)
(2.97443 -0.929106 1.81292e-18)
(4.24225 -0.0686021 -2.43054e-18)
(5.13875 0.281338 -1.58122e-18)
(5.60385 0.433504 0)
(5.71051 0.417839 1.11692e-18)
(5.45185 0.315634 0)
(5.01177 0.191354 -1.02736e-18)
(4.60836 0.114462 0)
(4.26439 0.0668947 -5.24228e-19)
(3.97484 0.0229484 0)
(0.612537 -5.61112 4.64423e-18)
(2.10105 -2.65464 1.64916e-18)
(3.15157 -0.869885 6.73324e-20)
(4.1034 0.169831 1.53353e-18)
(4.82825 0.75639 2.11934e-18)
(5.24073 0.984211 -1.05659e-18)
(5.25883 0.953124 -2.4238e-18)
(4.97733 0.776795 7.01379e-19)
(4.5907 0.586707 -7.03332e-19)
(4.24879 0.452826 8.48699e-19)
(3.95258 0.342443 0)
(0.63832 -6.57964 7.05734e-19)
(1.46449 -4.08228 -2.36233e-18)
(2.33596 -1.95088 2.23836e-18)
(3.25434 -0.384623 -3.06146e-18)
(4.06029 0.662738 1.01333e-19)
(4.63371 1.23693 2.45162e-18)
(4.86232 1.40644 -3.59216e-18)
(4.75926 1.28841 -1.26941e-20)
(4.47059 1.05544 2.42106e-18)
(4.14428 0.83798 0)
(3.85119 0.670783 -1.21376e-18)
(0.669064 -6.80714 -1.89736e-18)
(1.08804 -5.30791 8.67286e-20)
(1.76109 -3.03823 -2.035e-18)
(2.58631 -1.1124 4.42856e-18)
(3.38054 0.321104 -2.03679e-18)
(4.01461 1.24033 -2.83984e-18)
(4.37236 1.66392 1.65992e-18)
(4.41628 1.67983 -1.9199e-18)
(4.23603 1.46763 1.65323e-18)
(3.97064 1.20734 2.79723e-19)
(3.70446 0.965348 2.43939e-18)
(0.735442 -6.99606 -3.14682e-18)
(0.990955 -5.92216 -1.24299e-18)
(1.36252 -4.01098 4.8492e-19)
(2.05945 -1.90998 -3.53584e-19)
(2.79691 -0.163341 0)
(3.43072 1.07239 5.48051e-18)
(3.85164 1.75942 -8.00966e-19)
(3.99896 1.94768 1.28772e-18)
(3.91615 1.80357 -1.29181e-18)
(3.71546 1.53634 2.20258e-19)
(3.51679 1.23839 -1.63382e-18)
(0.760177 -7.15508 2.88806e-18)
(0.967599 -6.28588 1.14839e-18)
(1.10881 -4.88178 0)
(1.64804 -2.72661 0)
(2.2972 -0.730263 1.98633e-18)
(2.89322 0.790023 -1.37885e-18)
(3.32917 1.73087 -1.83823e-18)
(3.53891 2.10439 0)
(3.53581 2.05584 -1.54255e-18)
(3.40044 1.80847 -3.36028e-18)
(3.26047 1.48438 1.3532e-19)
(0.769282 -7.31301 6.6161e-19)
(0.967087 -6.5532 -1.06261e-18)
(0.992043 -5.4374 1.26401e-18)
(1.33222 -3.48182 3.30069e-19)
(1.86633 -1.33827 -1.94271e-18)
(2.39806 0.427733 0)
(2.81428 1.60409 -1.42372e-18)
(3.05236 2.16136 1.61973e-18)
(3.10916 2.22208 1.5974e-18)
(3.03264 2.01418 2.3952e-18)
(2.97236 1.68056 -5.49103e-19)
(0.76901 -7.46847 2.19223e-18)
(0.951702 -6.77458 -9.83311e-19)
(0.91864 -5.79444 -1.20025e-18)
(1.10229 -4.10641 0)
(1.49828 -1.94353 0)
(1.94002 0.0127752 0)
(2.30952 1.39796 9.56795e-19)
(2.54888 2.12717 -1.25618e-18)
(2.64867 2.30028 -7.86163e-19)
(2.6281 2.14412 -1.3836e-18)
(2.63027 1.82883 4.45675e-20)
(0.761015 -7.59689 -3.7179e-19)
(0.924628 -6.96882 0)
(0.858023 -6.07832 3.82663e-19)
(0.931013 -4.63543 6.26157e-19)
(1.18387 -2.5259 -4.7348e-19)
(1.51279 -0.44157 1.73605e-19)
(1.81422 1.12075 1.22105e-19)
(2.03395 2.00428 -1.62606e-19)
(2.16256 2.28636 -4.66436e-20)
(2.19762 2.18768 1.46448e-19)
(2.2518 1.90465 4.78899e-19)
(0.722848 -7.71173 7.1312e-20)
(0.87044 -7.1441 2.23506e-19)
(0.797953 -6.3126 1.46843e-18)
(0.799395 -5.03021 1.90549e-20)
(0.909595 -3.05877 -9.32266e-19)
(1.1137 -0.915156 -1.18786e-18)
(1.33062 0.784504 3.82332e-19)
(1.51467 1.79656 4.83632e-19)
(1.65995 2.17714 -1.85895e-19)
(1.74838 2.13849 1.40047e-19)
(1.85441 1.89064 0)
(0.687717 -7.81336 2.17339e-18)
(0.814526 -7.28425 1.53212e-18)
(0.727117 -6.50636 -1.38769e-18)
(0.669214 -5.33373 0)
(0.6652 -3.52461 -9.16373e-19)
(0.739805 -1.39168 2.35768e-18)
(0.860274 0.396861 -9.94696e-19)
(0.998521 1.50423 2.69065e-19)
(1.15253 1.96883 -8.26314e-20)
(1.28876 1.99355 -2.72842e-19)
(1.47222 1.79383 0)
(0.66136 -7.88315 2.09677e-18)
(0.7477 -7.39014 8.20564e-19)
(0.637925 -6.67103 0)
(0.526097 -5.59144 0)
(0.434745 -3.9401 0)
(0.389216 -1.86961 0)
(0.404821 -0.0408593 0)
(0.494323 1.12395 1.14101e-18)
(0.656386 1.65669 -1.66802e-19)
(0.839886 1.74789 -1.37396e-18)
(1.07902 1.61165 0)
(0.634143 -7.9196 -9.91347e-19)
(0.659419 -7.4599 -8.26021e-19)
(0.528663 -6.79693 1.26749e-18)
(0.364612 -5.81212 2.14381e-18)
(0.196928 -4.31481 -1.72333e-18)
(0.0625846 -2.34616 0)
(-0.027264 -0.532583 0)
(0.00998213 0.656844 -1.12262e-18)
(0.187776 1.23845 7.0767e-19)
(0.420453 1.39528 1.33631e-18)
(0.704208 1.33351 -8.09961e-19)
(0.610219 -7.92174 5.60683e-20)
(0.557217 -7.48164 1.56803e-18)
(0.402895 -6.85541 -5.03249e-18)
(0.192545 -5.97442 2.0092e-18)
(-0.058752 -4.71258 1.6335e-18)
(-0.266735 -2.8185 -1.24075e-18)
(-0.422203 -1.07508 0)
(-0.426719 0.1052 1.14132e-18)
(-0.238907 0.709424 -1.3631e-18)
(0.0472022 0.932415 -1.27132e-18)
(0.392909 0.955654 1.72574e-19)
(0.585581 -7.87592 -9.24916e-19)
(0.442939 -7.45817 -3.00233e-18)
(0.261241 -6.86929 4.73992e-18)
(0.00277078 -6.06819 -1.8972e-18)
(-0.313189 -4.97251 0)
(-0.582846 -3.40122 0)
(-0.783724 -1.66753 -1.43571e-18)
(-0.802352 -0.547854 0)
(-0.597833 0.0659394 0)
(-0.267206 0.355359 1.28871e-18)
(0.16084 0.469594 0)
(0.550435 -7.76568 0)
(0.307995 -7.37684 -1.33993e-18)
(0.0894389 -6.83441 0)
(-0.215138 -6.12477 1.76733e-18)
(-0.566068 -5.18927 -1.07714e-19)
(-0.885327 -3.94399 0)
(-1.09811 -2.39702 1.48178e-18)
(-1.1041 -1.30151 0)
(-0.87145 -0.69253 1.47383e-18)
(-0.517679 -0.336292 -5.41798e-19)
(-0.00740592 -0.079485 0)
(0.492185 -7.57239 8.31368e-19)
(0.140771 -7.21816 1.43483e-18)
(-0.127595 -6.73825 -9.6297e-19)