/*--------------------------------*- C++ -*----------------------------------*\
| =========                 |                                                 |
| \\      /  F ield         | OpenFOAM: The Open Source CFD Toolbox           |
|  \\    /   O peration     | Version:  3.0.1                                 |
|   \\  /    A nd           | Web:      www.OpenFOAM.org                      |
|    \\/     M anipulation  |                                                 |
\*---------------------------------------------------------------------------*/
FoamFile
{
    version     2.0;
    format      ascii;
    class       volScalarField;
    location    "0.388473";
    object      epsilon;
}
// * * * * * * * * * * * * * * * * * * * * * * * * * * * * * * * * * * * * * //

dimensions      [0 2 -3 0 0 0 0];

internalField   nonuniform List<scalar> 
21246
(
2290.8
770.858
308.954
115.944
39.1479
12.4935
3.91221
1.2217
0.388547
0.131891
0.0525994
1625.71
453.394
211.554
89.8475
34.2576
12.0708
4.01289
1.28237
0.404021
0.132669
0.0509764
994.681
355.741
177.42
84.9723
35.5247
13.2968
4.58799
1.49639
0.474173
0.153787
0.0574574
686.551
262.156
146.246
80.6808
37.9677
15.1708
5.43729
1.81795
0.581554
0.18708
0.0679045
513.635
200.363
113.274
66.7756
34.4501
15.1725
5.82867
2.01801
0.644774
0.200954
0.0696099
419.729
159.021
91.5615
54.8711
28.8544
13.1844
5.26683
1.89385
0.632595
0.205788
0.0741268
356.953
131.458
75.8951
45.68
24.3126
11.2923
4.63172
1.7267
0.601067
0.203511
0.0750963
311.573
111.385
64.0663
38.4632
20.5513
9.63061
4.02033
1.54071
0.555508
0.195624
0.0772062
278.502
96.4024
55.0487
32.8985
17.5773
8.27428
3.49728
1.37107
0.511176
0.187606
0.0771016
253.818
85.175
48.2277
28.7067
15.3237
7.23174
3.08358
1.23083
0.47213
0.17951
0.0753046
234.238
76.4498
42.9557
25.5103
13.6169
6.44089
2.7652
1.11932
0.438908
0.171181
0.0743874
219.159
69.384
38.7299
22.985
12.2881
5.8321
2.52042
1.03264
0.412553
0.164753
0.0736696
208.546
63.7901
35.3896
21.0253
11.2791
5.37902
2.34062
0.969484
0.393891
0.160798
0.0734278
201.338
59.6108
32.856
19.5823
10.5656
5.07113
2.22265
0.929617
0.382905
0.158782
0.0739099
197.566
56.3831
30.8752
18.5023
10.0715
4.87866
2.15706
0.910858
0.379577
0.159202
0.074723
197.517
54.0555
29.4111
17.7678
9.79196
4.8028
2.14647
0.915089
0.385002
0.162597
0.0765273
201.095
53.131
28.6023
17.4272
9.75872
4.86607
2.20329
0.948166
0.401813
0.16987
0.0796298
209.507
53.8842
28.4492
17.4838
10.0322
5.1409
2.37731
1.03434
0.439932
0.184938
0.0859041
224.236
56.6148
29.1434
17.9767
10.6212
5.65954
2.71486
1.21084
0.521179
0.219611
0.0997155
248.312
62.1265
31.0523
19.081
11.6125
6.48763
3.27697
1.52645
0.676559
0.290455
0.129171
288.223
71.891
34.7727
21.0937
13.1518
7.72339
4.15748
2.06722
0.970018
0.436756
0.196154
359.026
87.1381
41.0593
24.419
15.4541
9.51211
5.49784
2.97607
1.52508
0.748198
0.357572
491.195
112.538
51.3068
29.8945
19.1012
12.2658
7.62161
4.53588
2.58985
1.42502
0.760301
760.094
117.914
56.8665
35.5469
24.456
16.973
11.5334
7.60327
4.86139
3.02077
1.8315
2421.4
1454.73
582.604
225.055
72.217
21.6489
5.94416
1.7041
0.511958
0.166345
0.0642415
2722.64
1619.15
854.807
406.959
172.05
59.234
11.8716
2.91777
0.835025
0.253029
0.0886047
1766.64
1355.38
890.814
498.051
246.587
101.835
29.0197
5.34994
1.38643
0.401685
0.131154
667.356
1167.16
861.013
534.652
292.191
135.898
47.9672
11.3572
2.27862
0.637129
0.210946
550.128
1189.8
879.625
565.823
325.182
162.572
65.6079
19.2427
4.25584
0.995119
0.335543
636.481
1128.13
899.544
595.458
352.336
184.521
81.4459
27.9372
7.30575
1.71426
0.521976
699.761
1028.04
964.76
645.446
381.055
203.708
95.3567
36.6786
11.1563
2.89421
0.833794
647.368
816.815
964.864
705.664
414.575
221.373
107.125
44.7448
15.4205
4.50848
1.33855
592.884
652.565
891.722
767.737
455.667
239.417
117.18
51.8228
19.7545
6.48472
2.06165
552.038
549.184
787.755
808.577
502.238
259.006
126.088
57.8654
23.919
8.72662
2.99583
520.549
479.363
694.116
813.208
547.437
280.188
134.458
63.0581
27.8152
11.1469
4.16756
493.71
427.229
616.963
784.109
583.054
300.657
141.916
67.3571
31.3363
13.6594
5.55468
472.472
384.911
549.084
728.593
603.271
318.053
148.18
70.8682
34.5084
16.2424
7.17501
456.151
347.266
486.568
662.113
604.305
330.3
152.963
73.7601
37.4458
18.9219
9.08299
449.517
316.819
427.68
589.484
585.209
334.036
155.245
75.9881
40.2465
21.7501
11.3458
450.248
293.711
373.559
504.005
548.069
326.966
154.096
77.5349
43.1368
24.928
14.0523
457.279
273.91
323.69
413.258
477.304
310.955
149.483
78.6945
46.4015
28.7349
17.4338
473.632
256.974
275.094
328.29
369.02
288.678
142.988
80.3629
50.8154
33.7243
21.8754
506.968
245.837
230.236
250.921
269.509
247.103
143.533
85.278
58.0744
41.1498
28.1893
576.519
247.486
195.187
189.837
197.504
199.417
152.849
98.1946
70.8125
52.3523
37.4123
743.976
284.972
193.046
168.87
167.08
169.603
152.357
111.547
80.3623
60.8236
44.3132
1320.67
469.341
343.414
287.346
244.676
222.109
182.827
134.397
97.9428
69.5149
46.8883
984.844
567.682
603.671
426.71
314.322
227.998
158.745
107.089
70.2912
45.1205
28.337
1216
655.89
379.966
234.957
150.706
98.102
63.7217
40.9064
25.8293
16.0144
9.72969
287.503
159.769
24.8536
5.75044
1.61664
0.736826
0.503153
0.42405
0.392843
0.380118
0.375552
437.048
302.606
49.2282
9.04107
2.17553
0.866345
0.530266
0.423643
0.38251
0.364598
0.355945
524.6
317.586
74.0003
14.5231
2.6674
1.00696
0.562096
0.425535
0.373304
0.349276
0.334212
535.866
297.642
84.2839
18.5776
3.02756
1.13052
0.590488
0.427733
0.365349
0.335894
0.315688
501.692
284.652
88.7046
21.0854
3.5319
1.22959
0.614163
0.430182
0.358924
0.325419
0.303101
448.131
278.958
93.5971
24.2666
4.51713
1.34238
0.637519
0.433858
0.354508
0.317802
0.294617
384.23
277.331
100.045
28.6304
6.0784
1.60424
0.681472
0.439779
0.352333
0.312627
0.28843
317.164
278.068
107.245
33.7179
8.1644
2.06648
0.770812
0.456463
0.353499
0.30958
0.284798
255.776
279.609
115.811
39.6719
10.8654
2.82221
0.938407
0.490575
0.360165
0.309328
0.283094
203.563
280.552
127.17
47.2889
14.5186
4.04454
1.25495
0.561854
0.375872
0.312051
0.282924
159.718
282.097
140.725
56.4786
19.1741
5.84189
1.80283
0.7029
0.409523
0.319637
0.284468
125.614
286.219
155.767
66.7163
24.5852
8.19342
2.63938
0.953763
0.476572
0.336479
0.288648
103.286
290.706
173.099
78.6085
30.9773
11.1924
3.84889
1.37265
0.604181
0.37205
0.2982
91.7415
292.533
192.993
93.1216
38.8703
15.0583
5.55716
2.04176
0.836544
0.444983
0.319469
90.7432
295.2
215.028
110.141
48.2566
19.8028
7.81466
3.02866
1.22651
0.584488
0.365182
100.119
295.62
238.295
130.587
59.868
25.763
10.7824
4.43826
1.84912
0.837059
0.458865
117.599
289.618
259.709
155.322
74.9891
33.6734
14.8155
6.45994
2.82204
1.2772
0.643251
136.249
274.174
273.132
182.893
94.4801
44.3537
20.4067
9.37751
4.32143
2.02001
0.991359
153.966
252.258
272.977
209.277
118.772
59.0547
28.4715
13.7488
6.68128
3.27271
1.63386
170.329
226.812
256.147
226.04
145.885
79.036
40.5397
20.6625
10.5843
5.45369
2.8309
184.86
195.302
222.688
223.673
170.088
104.902
59.0209
32.2469
17.5008
9.49939
5.1635
239.844
174.505
189.489
210.585
187.596
136.166
87.1188
52.303
30.4907
17.5724
10.0515
272.387
152.684
153.156
160.257
156.976
137.226
106.432
74.7169
49.1281
31.213
19.2604
547.494
597.212
444.663
365.801
288.419
215.231
153.057
104.654
70.277
46.8609
30.6529
218.455
88.4
19.5232
3.94603
1.27367
0.671028
0.492977
0.42873
0.403941
0.396411
0.398219
249.186
68.2501
13.2742
4.12011
1.4277
0.726265
0.514324
0.438941
0.411282
0.404606
0.409702
289.007
86.3208
12.7777
4.80624
1.74891
0.864088
0.564149
0.455967
0.415418
0.403618
0.406827
294.341
84.5697
12.1151
4.9679
1.80906
0.918868
0.588918
0.462901
0.413591
0.397224
0.398544
283.852
71.836
11.4858
4.90632
1.79849
0.932762
0.590657
0.458769
0.405512
0.386806
0.38598
270.722
59.7716
10.8144
4.61764
1.71206
0.914223
0.578336
0.448688
0.39516
0.376273
0.375158
258.704
50.65
10.164
4.27222
1.60673
0.882114
0.558368
0.434895
0.382846
0.364897
0.364951
246.8
43.8844
9.54366
3.94542
1.51423
0.8472
0.53716
0.420103
0.369468
0.352238
0.353588
238.001
38.9021
9.03147
3.68853
1.45061
0.81516
0.518632
0.406027
0.355805
0.337914
0.338404
232.86
35.4273
8.64049
3.49756
1.41429
0.791351
0.504424
0.393685
0.34278
0.323458
0.322771
231.699
33.1881
8.41617
3.39046
1.4034
0.7789
0.495425
0.383754
0.330956
0.309342
0.305989
233.292
31.7354
8.29993
3.35081
1.41557
0.778022
0.491869
0.376674
0.320809
0.296236
0.289786
238.386
31.1836
8.31317
3.37935
1.45523
0.790612
0.494857
0.373138
0.312904
0.284751
0.274628
244.755
33.1937
8.79695
3.54931
1.55649
0.829364
0.510614
0.375754
0.308739
0.275946
0.262386
252.952
36.4981
9.74571
3.88179
1.73975
0.907954
0.547278
0.388847
0.310799
0.271402
0.253571
263.754
41.3051
11.3364
4.4591
2.03834
1.04829
0.616487
0.419371
0.322716
0.273144
0.249265
277.998
48.0967
13.8501
5.43469
2.52412
1.29196
0.742197
0.481672
0.352625
0.285747
0.251912
297.573
57.0519
17.5769
7.031
3.32475
1.7152
0.971931
0.605675
0.419029
0.320443
0.268267
325.187
68.8968
22.9716
9.60189
4.67485
2.46874
1.40468
0.857209
0.565834
0.406144
0.317369
365.725
85.2573
30.9075
13.7511
7.00892
3.85536
2.25352
1.38725
0.900853
0.620096
0.454649
429.06
109.328
42.9894
20.5528
11.1262
6.47844
3.97693
2.54512
1.69237
1.16975
0.84253
537.894
147.417
62.568
32.1622
18.5914
11.549
7.5408
5.11366
3.58177
2.58646
1.92685
753.277
226.176
102.687
55.9679
34.114
22.3472
15.3932
11.0282
8.17182
6.24369
4.90497
1383.13
393.131
201.587
125.375
86.2106
62.4454
46.7019
36.3965
29.2914
24.0929
19.8779
1071.8
511.637
225.712
112.654
58.1621
28.0085
12.5949
5.72505
2.94337
1.85412
1.49099
1040.59
538.459
291.322
157.368
84.1335
41.5975
17.5735
6.61559
2.99982
1.76996
1.41693
679.215
432.867
289.374
178.335
104.295
56.0988
26.1176
10.0223
3.60478
1.73536
1.30016
314.385
313.037
252.288
177.533
114.388
67.162
34.7051
14.9038
5.39004
2.04153
1.19809
113.116
218.461
207.257
163.852
115.664
73.714
41.7635
20.1388
8.0519
2.87977
1.26949
64.3197
151.843
166.424
144.223
110.062
75.5068
46.3631
24.729
11.0779
4.20547
1.59249
53.4702
100.486
130.266
122.261
99.588
72.8149
47.9262
27.8236
13.7976
5.74636
2.14258
39.758
58.6295
95.8685
99.6214
86.2181
66.5388
46.4642
28.9529
15.6321
7.1214
2.78038
29.0132
34.432
63.685
77.3364
71.6773
58.029
42.627
28.1801
16.31
8.01829
3.32478
21.4271
22.7698
39.2733
56.5356
57.2352
48.5802
37.3288
25.9367
15.8737
8.29041
3.63372
15.8111
15.8031
24.9928
38.2095
43.8336
39.1615
31.3675
22.7322
14.535
7.94722
3.63727
11.8906
11.3375
16.669
25.0872
31.7808
30.4419
25.3606
19.0478
12.5896
7.11445
3.36631
9.17263
8.39023
11.4794
16.6121
21.9991
22.7784
19.7492
15.299
10.3684
6.00214
2.91418
7.17348
6.40503
8.13905
11.1783
14.8765
16.3521
14.7989
11.7962
8.16482
4.82509
2.39531
5.865
5.07445
6.00789
7.71688
10.0253
11.3416
10.6872
8.7738
6.21743
3.76724
1.92616
5.00168
4.19831
4.68245
5.55815
6.87533
7.75064
7.55369
6.42352
4.71473
2.97101
1.58688
4.42635
3.63676
3.87794
4.24786
4.91627
5.43158
5.45593
4.87312
3.78327
2.53123
1.42853
4.11412
3.30049
3.38429
3.46356
3.79556
4.17171
4.39638
4.22589
3.54873
2.55711
1.53539
3.94376
3.11442
3.04165
3.00112
3.30685
3.88677
4.56443
4.86493
4.40636
3.34366
2.07932
3.97023
3.20064
2.84972
2.94137
3.63809
5.23447
7.22698
8.61262
8.19058
6.22154
3.78948
7.33995
4.22158
3.3382
4.07027
6.51585
11.8307
14.7295
15.1971
14.2844
12.2325
8.54182
13.7862
5.85046
5.46497
10.6408
17.3313
19.7347
19.2634
17.5294
15.5151
13.6958
11.4468
18.6401
20.2724
26.4885
30.4745
29.0826
25.2694
20.7075
16.5041
13.3353
11.4677
10.3414
143.715
89.2295
63.5638
45.589
32.8642
23.6093
16.9576
12.4866
9.82549
8.60924
8.31245
1295.39
342.673
173.802
93.7931
49.76
25.1266
12.1559
5.9281
3.15223
1.97728
1.53388
1037.35
272.079
147.51
91.0255
54.7263
30.2783
15.3518
7.48114
3.80789
2.21399
1.57475
540.551
204.165
123.5
87.8748
60.9403
37.7585
20.4393
10.0685
4.91862
2.62921
1.68468
210.437
100.098
81.5552
74.1392
62.2123
44.8201
26.8999
13.8735
6.68906
3.3369
1.90626
65.9627
41.1669
41.1326
48.1246
52.9407
47.7449
33.9836
19.4635
9.68421
4.65696
2.43545
26.3861
18.2924
20.9793
28.3528
37.193
41.4135
36.4174
24.8765
13.8739
6.95718
3.47387
18.6155
12.5644
13.7625
18.2922
25.9275
33.0508
33.8153
26.4092
16.2275
8.6612
4.52391
17.3043
11.7916
11.8949
14.4185
19.5069
26.4033
30.4197
26.7945
18.0417
10.2122
5.49179
17.3461
12.0121
11.5543
13.1005
16.4216
21.7753
26.8606
26.4243
19.3588
11.5725
6.52275
17.8899
12.3881
11.6046
12.5964
14.7891
18.8003
23.6162
25.2561
20.3584
12.6889
7.36954
18.7929
12.9795
11.8746
12.3057
13.6649
16.6271
20.8164
23.4492
20.6456
13.8089
8.09163
20.1407
13.83
12.237
12.079
12.7779
14.8394
18.2861
21.3174
20.1445
14.4926
8.82996
21.7146
14.6872
12.6483
11.9913
12.0797
13.2939
15.9232
18.958
19.0643
14.6628
9.3496
23.5238
15.5961
13.1448
12.021
11.5322
11.9784
13.7548
16.4809
17.5493
14.4157
9.56674
25.6658
16.5998
13.749
12.1536
11.1263
10.9053
11.8891
14.0775
15.7295
13.8129
9.59976
28.3729
17.7668
14.4976
12.3968
10.848
10.0607
10.3933
11.9401
13.7085
12.8811
9.57889
31.9961
19.1934
15.4757
12.8481
10.7812
9.48725
9.30362
10.2357
11.6725
11.6476
9.41291
37.1749
21.0837
16.9466
13.7859
11.089
9.2179
8.55802
8.98698
9.94629
10.2651
9.19583
44.6396
23.9287
19.3538
15.457
11.9297
9.33754
8.13154
8.09927
8.64274
8.99795
8.60753
55.1058
28.332
22.7751
17.9726
13.4665
9.96447
8.0709
7.54169
7.69973
7.92115
7.78678
66.8545
33.8959
27.1337
21.2956
15.6096
11.0569
8.38026
7.31362
7.09259
7.09989
6.9891
88.0696
41.9267
33.0428
24.7605
17.695
12.2544
8.9236
7.38187
6.84312
6.67949
6.57475
128.807
63.7139
38.8719
26.9584
18.8573
13.1462
9.53121
7.67376
6.90947
6.66037
6.7176
391.207
73.7043
42.3675
26.7897
19.0221
13.793
10.2942
8.24246
7.26618
6.98752
7.19183
62.6528
73.172
79.5174
82.3268
82.2369
82.1038
78.8708
71.4442
61.3832
23.0656
24.3109
25.298
26.318
25.5716
24.4601
23.6046
22.3692
22.1278
12.0733
12.2576
13.2665
14.1232
13.7782
12.9523
12.0677
11.3249
12.0859
6.89043
6.81031
7.56294
8.06356
7.76476
7.28199
6.79901
6.42325
7.0545
50.2371
33.8339
12.2982
4.34351
3.40169
3.04575
6.06601
26.8455
47.2054
22.6771
19.8479
13.8415
5.04982
1.92241
2.91346
9.47975
17.0786
21.5424
13.7916
14.6609
12.4287
5.44341
2.04598
3.28946
8.37444
13.1627
13.8863
8.20124
9.86221
9.91914
5.38889
2.27447
3.31639
6.94697
9.62545
8.78488
0.00901849
0.008294
0.00834725
0.0344418
0.389068
0.0075574
0.14076
0.00808718
0.00753314
0.00693815
0.393734
0.0081242
0.00971053
0.00479057
0.0146144
0.00728363
0.00513604
0.0335399
0.00724711
0.00710149
0.00663635
0.0647117
0.00852227
0.091865
0.00792401
0.00479114
0.00942508
0.132426
1.44753
0.409214
0.00567544
0.00642838
0.00572451
0.00806559
0.00678791
0.00826402
0.083399
0.00790785
0.00635614
0.00758764
0.209684
0.00809718
0.0476973
0.0084975
0.769479
0.25133
0.0111405
0.347804
0.00691776
0.00733933
0.401455
0.00760516
0.0879951
0.0475055
0.00732811
0.00666398
0.0612985
0.00762526
1.45482
0.0514343
0.109012
0.0879329
0.467905
0.0909541
0.222553
0.00713968
0.434306
0.0071146
0.00829658
0.00692197
0.00519285
0.00721972
0.0247265
0.00813341
0.0768785
0.00715329
0.078466
0.00827972
0.073949
1.05187
0.0990362
0.0744983
0.00793278
0.00838059
0.00695125
0.0243832
2.29323
0.0792776
0.0237598
0.0573951
0.0080921
0.00765856
0.215799
0.00738063
1.00327
0.569323
0.0589209
0.00589647
0.0282483
0.00743198
0.00785637
0.337323
0.00680049
0.00615579
0.0205309
0.00811991
0.00505593
0.00845296
0.00773321
0.00669536
0.00796604
0.00814913
0.00723351
0.0248773
0.031085
0.00769194
0.00754639
0.00731915
0.00792508
0.00673456
0.0232455
0.00784263
0.00938582
0.004759
0.239049
0.00678796
0.048819
0.00525539
0.00501386
0.00589446
0.00778203
0.0512638
0.33715
0.00716391
0.00834209
0.00803764
0.0671228
0.043877
0.417337
0.00732573
0.0490088
0.00660174
0.27369
0.00868037
0.00751897
0.0214844
0.0155249
0.00713362
0.00715158
0.00705585
0.00715161
0.00766431
0.0236066
0.00785009
0.0292494
0.0130939
0.0233787
0.0448848
0.00572106
0.0074727
0.00546977
0.0354647
0.0072112
0.00772199
0.458701
0.0163262
0.0259479
0.00718371
0.00656208
0.214958
0.00494809
0.00602798
0.00788047
0.00645223
0.00641704
0.00641347
0.00587481
0.0263643
0.785336
0.00695693
0.00713904
0.0723401
0.00849706
0.0925355
0.00793934
0.0362527
0.00706301
0.00726785
0.0082483
0.12263
0.0076981
0.00505926
0.00718578
0.199753
0.00832451
0.00760728
0.00743646
0.0289198
0.00619658
0.00856744
0.0259311
0.00731337
0.00857272
0.00620111
0.00838736
0.078459
0.00733728
0.00500107
0.00740252
0.00740691
0.0578958
0.0075924
0.00827258
0.00672048
0.00791155
0.110962
0.00797751
0.0137874
0.007127
0.00901579
0.00888864
0.0275293
0.0539865
0.0293748
0.00470325
0.00764127
0.0616258
0.0134422
0.00684135
0.279851
0.0449557
0.00713337
0.00712351
0.00783377
0.0247001
1.85254
0.262649
0.00845072
0.00814273
0.00809985
0.0137436
0.0849584
0.00612503
0.166961
0.00785953
0.0433637
0.00800397
0.00671982
0.486543
0.133115
0.00666883
0.0610353
0.00991957
0.00726431
0.00600786
0.00746973
0.00673055
0.00786043
0.0181076
0.00703843
0.00841304
0.00968361
0.00738095
0.00819669
0.00795998
0.0109764
0.00659706
0.00733663
0.0175902
0.00693985
0.177387
0.00730193
0.00728958
0.0109208
0.00756231
0.00736293
0.0049206
0.0077606
0.00691183
0.0228823
0.00732877
0.00828735
0.102934
0.232478
0.00601814
0.00758963
1.45802
0.00824609
0.00682862
0.0459192
0.00834887
0.126898
0.00739793
0.00715136
0.00856414
0.00743223
0.00647306
0.00816194
0.00679627
0.00500078
0.00775702
0.0241215
0.00707622
0.415718
0.00676695
0.00668503
0.00828242
0.0162144
0.0690251
0.00744103
0.0943989
0.0081665
0.00645049
0.00558685
0.0871208
0.00655091
0.00669806
0.0205104
0.00671089
0.00774727
0.0070641
0.0484687
0.00746374
0.00537735
0.0448396
0.00687
0.00778265
0.00580666
0.00708891
0.158358
0.00704188
0.479935
0.0721479
0.0084677
0.0106341
0.693992
0.0239628
0.00823978
0.00784932
0.00584569
0.028449
0.0625288
0.00727376
0.018666
0.157531
0.0167771
0.0526287
0.00753703
0.0719793
0.0642639
0.122581
0.00578006
0.00700313
0.00682273
0.013463
0.00860274
0.00956637
0.0069565
0.00850164
0.16185
0.00985697
0.0049389
0.0080037
0.00798792
0.00728738
0.0244013
0.00562266
0.0112644
0.156418
0.00841136
0.0077386
0.0912008
0.583886
0.0045662
0.0121278
0.00831831
0.00904845
0.00674734
0.00752166
0.00707912
0.121309
0.00755647
0.022798
0.00766325
0.0050168
0.354135
0.0241911
0.00471669
0.0868629
0.027221
0.00769841
0.0580752
0.00488853
0.00808197
0.362963
0.231087
0.00787025
0.00719948
0.0083676
0.0202962
0.0178107
0.00764781
0.00850864
0.0468559
0.00644168
0.238134
0.0634811
0.0127021
0.00730772
0.0469977
0.00699269
0.00719859
0.0075313
0.00714735
0.0222587
0.00638816
0.00784862
0.00863589
0.0048077
0.046612
0.223878
0.00624561
0.169105
0.00682914
0.00628092
0.0066607
0.00804891
0.0282682
0.0112808
0.23073
0.00789619
0.0224329
0.00509967
0.00663103
0.00731491
0.012272
0.151707
0.385716
0.00478169
0.00860035
0.0059578
2.26398
0.0412442
0.0242641
0.00684601
0.0224133
0.067785
0.0434134
0.00741457
0.0378161
0.00773778
0.00833556
0.00793798
0.036175
0.0181459
0.172377
0.00492613
0.0278252
0.0256372
0.00825483
0.00739825
0.0519858
0.0050553
0.00598033
0.00694977
0.14067
0.110487
0.0902243
0.0916647
0.0070681
0.0065729
0.0289421
0.00697601
0.108221
0.00688946
0.00823471
0.00733725
0.0347637
0.0352274
0.0070895
0.00778396
0.00668695
0.191775
0.0751547
0.00845538
0.0188547
0.361647
0.00941112
0.0134256
0.00740752
0.0278734
0.00759882
0.00688565
0.00762659
0.00537747
0.00672003
0.00715173
0.00552644
0.00853278
0.00729377
0.00560721
0.00577115
0.00806568
0.00806396
0.543189
0.0195074
0.0297729
0.00703922
0.306358
0.00835752
0.246136
0.0163388
0.0283219
0.0141687
0.0079997
0.31679
0.016694
0.00549545
0.00778481
0.00634397
0.00667524
0.00828134
0.00769204
0.00818539
0.00680028
0.121656
0.00798808
0.0074534
0.0646059
0.00773051
0.194416
0.00656794
0.0136312
0.00565351
0.0239806
0.00856374
0.00786474
0.00841858
0.18999
0.036292
0.00795
0.00791208
0.00474608
0.00835058
0.0444478
0.00831432
0.105214
0.00681364
0.0486276
0.00660095
0.00768822
0.266307
0.264258
0.00679713
0.00658182
0.00710893
0.00830822
0.012347
0.0407274
0.00721092
0.00648321
0.464696
0.772049
0.00791859
0.00733866
0.00828346
0.0671043
0.28734
0.0195975
0.0080822
0.00752431
0.2218
0.00724198
0.0066264
0.0051742
0.0138431
0.300441
0.00771364
0.0200241
0.00782144
0.0166819
0.00738459
0.0852524
0.0061388
0.00643018
0.0915037
0.0208724
0.0084259
0.00854826
0.982655
0.00763932
0.0061585
0.0275419
0.0186735
0.0701589
0.0283576
0.00688896
0.00692179
0.00773311
0.00790345
0.488758
0.0107993
0.0122722
0.00710936
0.00794877
0.0527508
0.00701307
0.00760087
0.00690527
0.00713274
0.00651999
0.00993519
0.019185
0.018061
0.00620072
0.0106609
0.00724151
0.0438307
0.00711658
0.0077847
0.497348
0.0900853
0.00755319
0.00757449
0.0656058
0.00675808
0.00737961
0.0194438
0.00831732
0.00677012
0.00834326
0.0069212
0.00828116
0.00442397
0.00575893
0.045969
0.0278461
0.0346957
0.0244237
0.00636479
0.0261272
0.0229812
0.0086582
0.00836427
0.00680188
0.0444397
0.0060578
0.00695435
0.00725938
0.00512437
0.0477716
0.46684
0.0060937
0.00789817
0.00769221
0.0132653
0.00811871
0.00723456
0.00693077
0.0120322
0.00703819
0.00703987
0.00685658
0.00825888
0.0359975
0.0547953
0.276692
0.00710945
0.0069701
0.00754846
0.0420171
0.00762637
0.152802
0.00721484
0.0727495
0.0277248
0.00770966
0.0168718
0.00849708
0.00557802
0.0545108
0.00653
0.438658
0.0055407
0.00666042
0.00841729
0.013083
0.00509165
0.0367633
0.0560796
0.00750927
0.00640808
0.00840369
0.00784369
0.00690849
0.0170234
0.00813162
0.0076217
0.0076201
0.00950674
0.0147179
0.0081612
0.00771148
0.00750997
0.0122954
0.0057402
0.00647805
0.0309205
0.142711
0.00714162
0.00631574
0.00576935
0.00759085
0.0292679
0.00531869
0.151374
0.0078382
0.00588023
0.00790712
0.00702367
0.0880207
0.00955149
0.0294238
0.00477182
0.0072557
0.00676321
0.00670781
0.0139529
0.00823633
0.0577607
0.0405019
0.109061
0.00664633
0.0102535
0.0456527
0.0688115
0.00772671
0.00761726
0.0359554
0.0206915
0.00802787
0.00496958
0.446534
0.00811402
0.184462
0.00925777
0.00836479
0.0703174
0.00755136
0.00688663
0.00681387
0.00784583
0.00735054
0.00463713
0.0081908
0.0055944
0.00714649
0.00692912
0.0190971
0.0815512
0.00726001
0.00722791
0.129786
0.253192
0.00782227
0.00448314
0.00709934
0.0233791
0.00989487
0.0463456
0.00724105
0.0327159
0.00661296
0.00878671
0.00720616
0.00692344
0.0076588
0.0545951
0.0554782
0.00860553
0.00788871
0.00741318
0.378494
0.0605739
0.00684754
0.00819973
0.00601261
0.00764922
0.00813704
0.00821567
0.00838211
0.00787517
0.0075573
0.00569206
0.0545117
0.0743259
0.00522689
0.00750873
0.00770606
0.00792948
0.00670827
0.165036
0.00827651
0.00633417
0.00795741
0.290097
0.0788402
0.0409202
0.00778983
0.038834
0.00771856
0.00781723
0.22877
0.00714906
0.00816028
0.00729553
0.011353
0.00601513
0.00592473
0.00813845
0.0107146
0.1714
0.0238378
0.00815518
0.00475309
0.0333141
0.0144331
0.0290935
0.00842944
0.00718329
0.0339444
0.00941223
0.0208242
0.00829271
0.00686121
0.00822428
0.00736685
0.00825179
0.0708833
0.00627771
0.182499
0.235763
0.0432099
0.00809898
0.433735
0.00853228
0.00720119
0.00924509
0.00789329
0.00765912
0.0076681
0.0191321
0.0970357
0.0129053
0.0076491
0.045358
0.00768791
0.00859782
0.00734936
0.00756011
0.00730424
0.00792603
0.00814783
0.00727362
1.94752
0.00754577
0.00712646
0.00877702
0.184301
0.00710164
0.00796463
0.0580383
1.71554
0.00694963
0.00770665
0.00793675
0.0346282
0.0084683
0.00808497
0.00685695
0.0086042
0.0341915
0.00828069
0.0635727
0.00716725
0.0288562
0.00629255
0.00821224
0.00533028
0.0288521
0.00775081
0.00777445
0.00706102
0.00831618
0.00587558
0.209777
0.00657464
0.0198241
0.0794361
0.022455
0.00603182
0.0487891
0.00851232
0.00814167
0.00513879
0.00692151
0.00531069
0.00760769
0.236046
0.00724409
0.00889124
0.00730528
0.00441602
0.00580568
0.0249779
0.00640651
0.00694267
0.00804203
0.257552
0.0651516
0.0453384
0.00672179
0.00744816
0.00699353
0.00776884
0.0803818
0.00753693
0.00830548
0.00609614
0.221292
0.0963664
0.0399944
0.00519492
0.00490831
0.11013
0.587761
0.00801535
0.00710005
0.06001
0.00760558
0.0209593
0.0079178
0.0417912
0.0063798
0.0122625
0.00830314
0.00745173
0.0084554
0.00763602
0.00794515
0.0272921
0.00709444
0.007805
0.00726909
0.00969104
0.00898908
0.043506
0.00749222
0.00687437
0.237381
0.0134345
0.0473307
0.00832473
0.0140595
0.00587103
0.00828827
0.0267752
0.00646172
0.048263
0.400205
0.00608519
0.0121983
0.00653213
0.00741612
0.013098
0.0100685
0.00698984
0.0162394
0.0081325
1.67719
0.0111691
0.558867
0.0081282
0.02035
0.0323328
0.414294
0.00779814
0.00582138
0.00855551
0.00478979
0.221371
0.0081556
0.00890649
0.101996
0.0176717
0.164483
0.00678775
0.00778256
0.00735693
0.0479046
0.00687473
0.207709
0.00820964
0.0130886
0.317133
0.00828721
0.0124043
0.0349867
0.0285027
0.0398374
0.0220748
0.00757685
0.0116941
0.00443968
0.00809951
0.00785663
0.00856461
0.0633688
0.00661187
0.00832694
0.00552095
0.042611
0.00451073
0.00801997
0.111851
0.0141804
0.0068906
0.00892414
0.00813631
0.00708439
0.0073373
0.215511
0.00697814
0.0691769
0.00615086
0.0274438
0.00796185
0.00694617
0.0079601
0.00753327
0.0306013
0.143755
0.0485073
0.710938
0.225769
0.618332
0.0068711
0.00735178
0.0241561
0.00838803
0.00597634
0.0993983
0.00689358
0.117893
0.00603533
0.235872
0.0068463
0.00473847
0.00811796
0.260589
0.00862657
0.514602
0.00636783
0.00836708
0.0493504
0.0416297
0.00679197
0.0195286
0.0331001
0.0624495
0.0815713
0.0199326
0.275664
0.00584087
0.0219983
0.257457
0.0139966
0.00833264
0.00575832
0.00766925
0.00498414
0.00543223
0.0258163
0.0077299
0.0105054
0.709765
0.0075251
0.00715559
0.00698453
0.00818915
0.0072923
0.0054169
0.00702149
0.00577647
0.317962
0.00703818
0.606058
0.0787131
0.00767778
0.168389
0.0501086
0.0110011
0.00731515
0.0268326
0.00769013
0.00803821
0.332912
0.00751793
0.00824541
0.00535296
0.00809673
0.00748234
0.255316
0.00789842
0.56031
0.0136486
0.0236551
0.00722668
0.0125475
0.0467362
0.00529624
0.246607
0.00776625
0.00820511
0.0384106
0.00566881
0.0144264
0.0304118
0.00978512
0.00747162
0.090854
0.0204232
0.00644426
0.00733068
0.0239698
0.00693847
0.0147515
0.0277041
0.392123
0.00712148
0.00860261
0.00796963
0.00624486
0.00673434
0.00453028
0.0379018
1.32664
0.00817233
0.024004
0.0280439
0.00820477
0.0370519
0.00709212
0.00695006
1.35422
0.0440889
0.326785
0.296873
0.00815892
0.00792883
0.0213985
0.37219
0.0698274
0.259341
0.00484577
0.00817369
0.00715547
0.00535899
0.0477657
0.0469422
0.0066419
0.0073963
0.0274933
0.0531353
0.0215658
0.00678477
0.0705462
0.344493
0.00638403
0.00556245
0.00726756
0.00720271
0.368533
0.00475232
0.00703352
0.0151225
0.00775264
0.0063936
0.443089
0.0271912
0.00778657
0.101349
0.00846219
0.00752028
0.204532
0.062375
0.00836057
0.00493695
0.0130163
0.00660719
0.109777
0.00806564
0.007688
0.00704115
0.155198
0.00686932
0.00746014
0.0163137
0.00833694
0.00814606
0.00859551
0.00488273
0.00770689
0.0202563
0.0184472
0.0081457
0.387386
0.0396066
0.00647129
0.0326788
0.00765312
0.00516863
0.0311713
0.00801742
0.00816274
0.00788134
0.00585249
0.00793584
0.00717542
0.00797344
0.0533078
0.0464781
0.00510086
0.040055
0.00690872
0.0680879
0.0183288
0.00855541
0.00660899
0.0158993
0.00483473
0.00674725
0.00602094
0.00666399
0.00683919
0.00794749
0.0411992
0.0268509
0.0240688
0.0710622
0.00859361
0.0104914
0.0673599
0.0149485
0.00878219
0.00759963
0.033695
0.0994294
0.170962
0.00470681
0.00789847
0.0337909
0.00534626
0.00795496
0.938941
0.0052372
0.00673588
0.0176535
0.0162796
0.00585285
0.0213133
0.0437723
0.00479329
0.599723
0.574809
0.00789812
0.00712169
0.0721447
0.156346
0.010451
0.0081137
0.00673711
0.00839126
0.00752814
0.084635
0.00761839
0.00846377
0.146898
0.0255077
0.0073162
0.0077043
0.0075775
0.00673809
0.00858183
0.0072567
0.00866963
0.00703771
0.00879372
0.00803474
0.0232949
0.00818572
0.0568872
0.00770139
0.0209437
0.0083872
0.00785717
0.0688544
0.307896
0.00705301
0.00780666
0.00604193
0.00918784
0.00826439
0.00898637
0.00683637
0.00741837
0.006207
0.00758535
0.0321321
0.00507532
0.045016
0.00848601
0.0277209
0.00788397
0.00669425
0.00891944
0.0083212
0.00801979
0.237522
0.0075889
0.0448869
0.00789959
0.00799796
0.407478
0.00845182
0.00855259
0.112139
0.202666
0.0290467
0.00755734
0.0199012
0.0078866
0.10836
0.00673694
0.039312
0.00737323
0.00608916
0.0244539
0.00763832
0.0321274
0.00696587
0.0153468
0.0139401
0.00822367
0.0102197
0.00767969
0.151397
0.0117776
0.00486777
0.0195251
0.00642336
0.00595348
0.00840193
0.0104281
0.0297396
0.00752396
0.00811374
0.0391375
0.00687237
0.0068332
0.00689818
0.00535218
0.00789663
0.0252692
0.0300483
0.00711762
0.0177786
0.00798017
0.00681065
0.00701838
1.08363
0.00741916
0.00749152
0.044585
0.0321515
0.00820605
0.00706169
0.0289718
0.01057
0.0066168
0.0072604
0.00786963
0.0329486
0.00754981
0.00693508
0.0828896
0.00714959
0.00830127
0.00733313
0.00693213
0.0080547
0.0178066
0.00764361
0.0246291
0.00526754
0.0134101
0.00812976
0.00503787
0.0323311
0.00691175
0.00857653
0.00765492
0.00735506
0.0386666
0.0136581
0.00508521
0.00845649
0.00739075
0.249878
0.00772142
0.00694788
1.79316
0.00673923
0.00706821
0.00695245
0.0069567
0.00646231
0.0063041
0.0103093
0.00502052
0.0215303
0.00706718
0.00759543
0.0139404
0.00493247
0.00748364
0.00645624
0.00562612
0.00730687
0.0743958
0.00855932
0.0193768
0.00749018
0.00689447
0.00593376
0.00623981
0.0126197
0.00795499
0.00721096
0.00672346
0.00756688
0.00837581
0.0191387
0.0520165
0.0310345
0.0102415
0.0343139
0.00676477
0.00757225
0.00746818
0.338944
0.00727996
0.00539982
0.3639
0.00692739
0.148264
0.11485
0.00687394
0.00809989
0.00706253
0.00527978
0.00486418
0.00684483
0.00809205
0.00996635
0.0397888
0.00474008
0.0341859
0.007809
0.0509196
0.0102731
0.951462
0.00887224
0.0101242
0.00472538
0.00828558
0.00689019
0.0214939
0.00790267
0.0112595
0.00486213
0.0104514
0.00534487
0.0426385
0.0146956
0.0252356
0.184433
0.00780131
0.340513
0.00736762
0.00646784
0.00600788
0.0232421
0.0084034
0.534526
0.00781225
0.0427308
0.331273
0.00499531
0.111696
0.031574
0.0833565
0.00739461
0.00788729
0.00741471
0.00726198
0.00765884
0.00620807
0.00697695
0.0218275
0.00769517
0.212508
0.0126426
0.00764151