/*--------------------------------*- C++ -*----------------------------------*\
| =========                 |                                                 |
| \\      /  F ield         | OpenFOAM: The Open Source CFD Toolbox           |
|  \\    /   O peration     | Version:  3.0.1                                 |
|   \\  /    A nd           | Web:      www.OpenFOAM.org                      |
|    \\/     M anipulation  |                                                 |
\*---------------------------------------------------------------------------*/
FoamFile
{
    version     2.0;
    format      ascii;
    class       volScalarField;
    location    "0.388473";
    object      nut;
}
// * * * * * * * * * * * * * * * * * * * * * * * * * * * * * * * * * * * * * //

dimensions      [0 2 -1 0 0 0 0];

internalField   nonuniform List<scalar> 
21246
(
5.79996e-05
0.00034154
0.000451386
0.000492478
0.000506419
0.000513688
0.000519789
0.000520674
0.000509734
0.000476327
0.000417693
3.8705e-05
0.0002782
0.000430657
0.000493688
0.000512876
0.000517722
0.000518076
0.000513884
0.000500234
0.000468604
0.000413918
3.13444e-05
0.000245736
0.0004119
0.000498791
0.000527569
0.000533661
0.000533326
0.000528151
0.000513527
0.000481762
0.000426453
2.96682e-05
0.000216353
0.000393186
0.000502571
0.000544053
0.000552197
0.000551721
0.000546109
0.000530212
0.00049737
0.000442076
2.96269e-05
0.00019067
0.000355123
0.000476781
0.000536892
0.000554752
0.00055415
0.000544514
0.000525635
0.000491972
0.000435746
3.021e-05
0.000179294
0.000332251
0.000447242
0.00051074
0.000538333
0.000546482
0.000544247
0.000531457
0.000503161
0.000452199
3.10066e-05
0.000169846
0.000313702
0.000421639
0.000484755
0.00051702
0.000532993
0.000539116
0.000532709
0.000507623
0.000456682
3.199e-05
0.000162319
0.000298203
0.000399154
0.000460064
0.000494638
0.000516317
0.000529746
0.00053065
0.000512694
0.000469389
3.28921e-05
0.000155802
0.000284952
0.000379859
0.000438202
0.000473959
0.000500012
0.00051992
0.000527984
0.000515659
0.000473056
3.35495e-05
0.000149177
0.000272757
0.00036308
0.000419455
0.000456136
0.000485718
0.000511027
0.000524811
0.000515456
0.000470207
3.41012e-05
0.000142643
0.000261481
0.000348362
0.000403441
0.000441075
0.000473641
0.000503366
0.000521597
0.000515236
0.000474978
3.45511e-05
0.000136836
0.000251524
0.000335568
0.000389748
0.000428395
0.000463637
0.000497227
0.000519446
0.000516151
0.000477748
3.47629e-05
0.000131178
0.00024235
0.000324266
0.000378055
0.000417898
0.00045571
0.000492956
0.00051907
0.000518529
0.000479607
3.47581e-05
0.000125003
0.000233165
0.000313874
0.000367966
0.000409319
0.000449732
0.000490558
0.0005204
0.000522319
0.00048558
3.44821e-05
0.000118907
0.000224283
0.000304258
0.000359096
0.000402222
0.000445314
0.000489757
0.000523377
0.000527467
0.00048918
3.39063e-05
0.000112485
0.000215251
0.000294989
0.000351081
0.000396295
0.000442187
0.00049038
0.000528076
0.000534561
0.000495457
3.30851e-05
0.000104397
0.000204345
0.000284968
0.000343182
0.000390892
0.000439672
0.000491764
0.000534156
0.000543771
0.000504732
3.18263e-05
9.45417e-05
0.000190165
0.000271021
0.000331179
0.000380794
0.000431292
0.000486535
0.000534779
0.000550658
0.000516133
3.01039e-05
8.30639e-05
0.000172082
0.000252404
0.000313799
0.000363458
0.000411565
0.000463769
0.000512381
0.00053431
0.000512376
2.78807e-05
7.01276e-05
0.000149568
0.000227877
0.000289975
0.000338597
0.000381328
0.000424536
0.000465685
0.000488708
0.000481912
2.50791e-05
5.63205e-05
0.000123089
0.000196626
0.00025851
0.000305899
0.00034261
0.000374101
0.000401682
0.000417743
0.000418047
2.1653e-05
4.31012e-05
9.52723e-05
0.000159804
0.000219078
0.000265023
0.000297185
0.000318936
0.000333023
0.000337867
0.000333754
1.74306e-05
3.07995e-05
6.79287e-05
0.000120562
0.000173174
0.00021565
0.000244626
0.000261179
0.000267564
0.000264767
0.000254617
1.23024e-05
2.89894e-05
6.16748e-05
9.51335e-05
0.00012908
0.000158278
0.000179618
0.000192322
0.000196832
0.00019377
0.000184459
5.29459e-05
0.000226844
0.000294192
0.00038204
0.000494329
0.000536274
0.000571671
0.000568304
0.000552524
0.000513181
0.000449008
3.76297e-05
0.000125334
0.000188388
0.000246209
0.000305033
0.000357205
0.000527269
0.000620082
0.000607229
0.000559929
0.000481382
3.19809e-05
8.96885e-05
0.000146822
0.000194426
0.00023909
0.000277634
0.000353134
0.000589334
0.000661252
0.000614148
0.000527402
2.60038e-05
8.42539e-05
0.00012692
0.000166145
0.000203467
0.00023589
0.00028174
0.00042715
0.000675859
0.00067901
0.000598686
2.88844e-05
9.81422e-05
0.00012452
0.000151888
0.000181092
0.000208322
0.000241751
0.000334065
0.000558243
0.00072944
0.000673482
3.47356e-05
0.000135981
0.000142618
0.000152413
0.00016958
0.000189617
0.000215088
0.000279101
0.000445443
0.000681298
0.000748114
4.01566e-05
0.00020651
0.000194218
0.000173317
0.000169999
0.000178791
0.000196695
0.000243956
0.000368025
0.000583164
0.000755383
4.32689e-05
0.000238228
0.000258603
0.000214687
0.000183809
0.000176065
0.000184889
0.00022076
0.000317367
0.00049702
0.000702385
4.5675e-05
0.000263371
0.000333316
0.000276491
0.000212439
0.000181797
0.000178747
0.000205185
0.000283363
0.000432213
0.00062943
4.75891e-05
0.000284173
0.000391217
0.0003489
0.000255571
0.000196288
0.000177868
0.000195046
0.000259869
0.000385005
0.000559289
4.88925e-05
0.000300465
0.000430465
0.000418146
0.000309677
0.000219288
0.00018202
0.000189141
0.000243207
0.000350035
0.000499739
4.96794e-05
0.000311412
0.000459794
0.000477574
0.000369252
0.000249423
0.000190818
0.000187011
0.000231785
0.000324035
0.000450611
4.98766e-05
0.000318697
0.000480579
0.000525106
0.000428283
0.000284592
0.000203639
0.00018824
0.000224453
0.000304521
0.000410465
4.95242e-05
0.000319494
0.000490548
0.000554196
0.000480013
0.000322189
0.000219758
0.000192555
0.000220556
0.000289743
0.000378116
4.8747e-05
0.000311795
0.000487929
0.000565839
0.000518865
0.000358209
0.000237909
0.000199815
0.000220047
0.000278967
0.000352296
4.74235e-05
0.000301232
0.000474905
0.000558577
0.000540993
0.000388804
0.000256641
0.000209982
0.000223102
0.000272104
0.000331231
4.54768e-05
0.000286882
0.000454778
0.000534617
0.000539055
0.000412233
0.000275112
0.000223505
0.000230535
0.000269714
0.00031488
4.28451e-05
0.000268262
0.000427739
0.000499511
0.000506493
0.000428297
0.00029444
0.000242046
0.000244085
0.000272973
0.000303664
3.95649e-05
0.000245676
0.000395539
0.000458383
0.000465613
0.000424609
0.000323621
0.000270825
0.000267991
0.000285316
0.000300019
3.5818e-05
0.000220096
0.000361008
0.000418877
0.000428959
0.000413794
0.000364952
0.000317977
0.000307178
0.000309041
0.000306173
3.19856e-05
0.000197699
0.000333388
0.000388802
0.000404251
0.000403847
0.000386771
0.000357843
0.000335289
0.000320711
0.000290194
2.91704e-05
0.000210593
0.000311365
0.000343594
0.000338317
0.0002987
0.00025552
0.000217385
0.00018718
0.000158087
0.000131015
1.72547e-05
0.000122221
0.000138652
0.000118007
9.45314e-05
8.06999e-05
7.09138e-05
6.37936e-05
5.83416e-05
5.38304e-05
4.9745e-05
9.0888e-06
1.08183e-05
1.3374e-05
1.70655e-05
2.24184e-05
2.93712e-05
3.73693e-05
4.54841e-05
5.26766e-05
5.80773e-05
6.11344e-05
2.89551e-05
7.04683e-05
6.33561e-05
6.18279e-05
5.16301e-05
4.06062e-05
3.35389e-05
2.93412e-05
2.64208e-05
2.40531e-05
2.19748e-05
2.4912e-05
7.00004e-05
4.88554e-05
6.55089e-05
5.5603e-05
4.25113e-05
3.35812e-05
2.84687e-05
2.51138e-05
2.25278e-05
2.03509e-05
2.52739e-05
6.2633e-05
4.5985e-05
5.84282e-05
5.83056e-05
4.51353e-05
3.44004e-05
2.83008e-05
2.44659e-05
2.16518e-05
1.9393e-05
2.7296e-05
5.69883e-05
4.61478e-05
5.41664e-05
5.93089e-05
4.77971e-05
3.5566e-05
2.85669e-05
2.42668e-05
2.12238e-05
1.88762e-05
2.94189e-05
5.46884e-05
4.65518e-05
5.1022e-05
5.8185e-05
5.02647e-05
3.69355e-05
2.9145e-05
2.43974e-05
2.11295e-05
1.86969e-05
3.09329e-05
5.4482e-05
4.70379e-05
4.79291e-05
5.41717e-05
5.22302e-05
3.85789e-05
3.00113e-05
2.48111e-05
2.13057e-05
1.87542e-05
3.18694e-05
5.58344e-05
4.79486e-05
4.556e-05
4.88464e-05
5.14636e-05
4.06015e-05
3.11787e-05
2.549e-05
2.17185e-05
1.89968e-05
3.23004e-05
5.87525e-05
4.96459e-05
4.44143e-05
4.44915e-05
4.80411e-05
4.19906e-05
3.28157e-05
2.65011e-05
2.23586e-05
1.94439e-05
3.21114e-05
6.28517e-05
5.23481e-05
4.44122e-05
4.14386e-05
4.34939e-05
4.16803e-05
3.44821e-05
2.78659e-05
2.33013e-05
2.01287e-05
3.13285e-05
6.75841e-05
5.62968e-05
4.55533e-05
3.9582e-05
3.90352e-05
3.92122e-05
3.54366e-05
2.94576e-05
2.45234e-05
2.1042e-05
3.01742e-05
7.329e-05
6.18026e-05
4.8114e-05
3.91949e-05
3.58711e-05
3.56645e-05
3.48246e-05
3.08847e-05
2.6007e-05
2.22071e-05
2.88556e-05
8.07157e-05
6.92399e-05
5.23132e-05
4.03644e-05
3.44272e-05
3.26485e-05
3.28009e-05
3.14845e-05
2.7582e-05
2.3636e-05
2.76422e-05
8.96934e-05
7.90661e-05
5.8498e-05
4.30992e-05
3.45054e-05
3.07649e-05
3.02942e-05
3.07625e-05
2.88222e-05
2.52732e-05
2.68596e-05
9.98475e-05
9.17683e-05
6.73167e-05
4.77288e-05
3.6098e-05
3.01738e-05
2.82293e-05
2.8927e-05
2.90955e-05
2.68617e-05
2.67027e-05
0.00011253
0.000108138
7.94704e-05
5.46955e-05
3.94021e-05
3.10376e-05
2.72766e-05
2.69669e-05
2.81386e-05
2.78618e-05
2.71317e-05
0.000127416
0.000128688
9.61036e-05
6.48618e-05
4.4836e-05
3.34889e-05
2.76486e-05
2.57228e-05
2.64772e-05
2.76969e-05
2.77689e-05
0.000142415
0.00015283
0.000118567
7.97174e-05
5.33498e-05
3.80024e-05
2.95875e-05
2.56921e-05
2.50602e-05
2.64129e-05
2.76943e-05
0.00015599
0.000178568
0.000147365
0.000101001
6.63968e-05
4.55159e-05
3.36466e-05
2.73316e-05
2.47693e-05
2.49525e-05
2.66837e-05
0.000165777
0.000202299
0.000181067
0.000130413
8.62227e-05
5.77693e-05
4.09821e-05
3.13899e-05
2.63586e-05
2.45496e-05
2.47074e-05
0.000169451
0.00021957
0.000214615
0.000167869
0.000115613
7.77803e-05
5.39625e-05
3.95235e-05
3.10201e-05
2.64761e-05
2.17401e-05
0.000162313
0.000225932
0.000240537
0.000209433
0.000156807
0.000110244
7.71907e-05
5.54017e-05
4.14528e-05
3.28013e-05
1.90192e-05
0.000148826
0.000221
0.000253728
0.000245065
0.000206166
0.000158787
0.000117408
8.59751e-05
6.3648e-05
4.82688e-05
1.43844e-05
0.000114511
0.000162982
0.000202006
0.000219293
0.000216103
0.000194886
0.000163514
0.000130952
0.000102617
7.96693e-05
1.10687e-05
4.50832e-05
6.11994e-05
8.25402e-05
0.000103819
0.000123283
0.000137112
0.000139993
0.000133192
0.000120541
0.00010475
2.36683e-05
6.35101e-05
6.03093e-05
5.82622e-05
5.02492e-05
4.11444e-05
3.51638e-05
3.14201e-05
2.87042e-05
2.64174e-05
2.4309e-05
1.69547e-05
5.61714e-05
6.41722e-05
6.38572e-05
5.57968e-05
4.61816e-05
3.95364e-05
3.54478e-05
3.26368e-05
3.03679e-05
2.82957e-05
1.7543e-05
5.30846e-05
6.35504e-05
7.47704e-05
6.66247e-05
5.51944e-05
4.65756e-05
4.13627e-05
3.81101e-05
3.57795e-05
3.38343e-05
2.00115e-05
5.00566e-05
6.20733e-05
8.06358e-05
7.59285e-05
6.65016e-05
5.76148e-05
5.15567e-05
4.75404e-05
4.45134e-05
4.18512e-05
2.30346e-05
4.65009e-05
6.23578e-05
8.4186e-05
8.15092e-05
7.33396e-05
6.44714e-05
5.85726e-05
5.50057e-05
5.27274e-05
5.09721e-05
2.6e-05
4.36921e-05
6.30487e-05
8.55783e-05
8.47547e-05
7.83168e-05
7.01875e-05
6.51957e-05
6.28062e-05
6.21291e-05
6.24046e-05
2.87901e-05
4.17168e-05
6.36329e-05
8.59809e-05
8.69281e-05
8.22745e-05
7.50704e-05
7.12426e-05
7.02517e-05
7.14963e-05
7.44289e-05
3.14228e-05
4.036e-05
6.40466e-05
8.61292e-05
8.88295e-05
8.56687e-05
7.93785e-05
7.65656e-05
7.66073e-05
7.90301e-05
8.31313e-05
3.37428e-05
3.94212e-05
6.43598e-05
8.64383e-05
9.09061e-05
8.87781e-05
8.33763e-05
8.13258e-05
8.21059e-05
8.54582e-05
9.10148e-05
3.57288e-05
3.87518e-05
6.46991e-05
8.69502e-05
9.32128e-05
9.18824e-05
8.72465e-05
8.56996e-05
8.69532e-05
9.09204e-05
9.73653e-05
3.73682e-05
3.82269e-05
6.49861e-05
8.77692e-05
9.57141e-05
9.51618e-05
9.11231e-05
8.98369e-05
9.12995e-05
9.54617e-05
0.000101678
3.8739e-05
3.7764e-05
6.51882e-05
8.87906e-05
9.83905e-05
9.8684e-05
9.51143e-05
9.38868e-05
9.53455e-05
9.95168e-05
0.000105799
3.97529e-05
3.71728e-05
6.52403e-05
8.9911e-05
0.000101266
0.000102524
9.93519e-05
9.79999e-05
9.92643e-05
0.000103303
0.000109666
4.02852e-05
3.5463e-05
6.29151e-05
8.9208e-05
0.000102955
0.000106023
0.000103749
0.000102311
0.000103264
0.000107022
0.000113284
4.02795e-05
3.35258e-05
5.85319e-05
8.59012e-05
0.000102233
0.000108013
0.000107689
0.00010673
0.000107529
0.000110955
0.000117025
3.96967e-05
3.15127e-05
5.24911e-05
7.95988e-05
9.84174e-05
0.000107447
0.000110173
0.000110717
0.000111912
0.000115154
0.000120979
3.85258e-05
2.9518e-05
4.55381e-05
7.03239e-05
9.07852e-05
0.000103052
0.000109535
0.000112849
0.00011556
0.000119276
0.000125048
3.66707e-05
2.76524e-05
3.87281e-05
5.9208e-05
7.93789e-05
9.39344e-05
0.000103881
0.000110666
0.000116189
0.00012171
0.000128324
3.40808e-05
2.58352e-05
3.26831e-05
4.78534e-05
6.53609e-05
8.02363e-05
9.21232e-05
0.000101625
0.000110094
0.000118432
0.000127302
3.07141e-05
2.388e-05
2.75331e-05
3.75552e-05
5.07294e-05
6.36137e-05
7.5145e-05
8.52814e-05
9.48488e-05
0.000104686
0.000115373
2.65275e-05
2.15241e-05
2.31311e-05
2.89713e-05
3.74928e-05
4.68241e-05
5.59753e-05
6.45793e-05
7.28717e-05
8.13679e-05
9.0569e-05
2.15244e-05
1.84572e-05
1.90768e-05
2.20396e-05
2.67074e-05
3.22714e-05
3.81653e-05
4.40577e-05
4.98688e-05
5.56998e-05
6.1713e-05
1.57337e-05
1.41051e-05
1.44496e-05
1.57623e-05
1.78523e-05
2.0473e-05
2.34222e-05
2.6561e-05
2.98071e-05
3.31192e-05
3.64609e-05
9.50592e-06
9.70816e-06
1.09941e-05
1.24762e-05
1.41215e-05
1.58296e-05
1.7829e-05
2.1268e-05
2.62213e-05
3.25686e-05
3.97073e-05
4.53567e-05
0.000266332
0.00044804
0.000624563
0.000698124
0.000694722
0.000671669
0.000658132
0.000642022
0.000612346
0.000593876
3.36185e-05
0.000147137
0.000278495
0.000422729
0.000537754
0.000594765
0.000614138
0.00063554
0.000632429
0.000599298
0.000573687
2.78571e-05
9.87187e-05
0.000202192
0.000317068
0.000424509
0.0004974
0.000529071
0.000551527
0.000593609
0.000587141
0.000544801
2.31513e-05
8.2582e-05
0.000163261
0.000256304
0.000351138
0.000425792
0.00046431
0.000477241
0.000504286
0.000542594
0.000518811
1.81604e-05
8.00245e-05
0.000143472
0.000219345
0.000301331
0.000372493
0.000415255
0.000426638
0.000432397
0.000460276
0.000477181
1.62875e-05
8.74035e-05
0.000138332
0.000198417
0.000267299
0.000332297
0.000376597
0.000390571
0.000386483
0.000390549
0.000411012
1.66099e-05
0.000104064
0.000146008
0.000191207
0.000246444
0.000303076
0.000346083
0.000362959
0.000356722
0.000345705
0.00034859
1.62533e-05
0.000116395
0.00015778
0.000193293
0.000236179
0.000283292
0.000322507
0.000340676
0.000335196
0.000317371
0.000304419
1.56005e-05
0.000113453
0.00016312
0.000197764
0.000232359
0.000270399
0.000304278
0.00032176
0.000317285
0.00029709
0.000274766
1.48441e-05
0.000108256
0.000159887
0.000197921
0.000230105
0.000261152
0.000289369
0.00030469
0.000300523
0.000279863
0.000253069
1.40129e-05
0.000102184
0.000152526
0.00019011
0.000225376
0.000252592
0.00027584
0.000288326
0.000283788
0.000263466
0.000235134
1.31973e-05
9.56255e-05
0.000143609
0.000179828
0.00021506
0.000242685
0.000262269
0.000272076
0.000266988
0.000247577
0.000219888
1.23712e-05
8.86759e-05
0.000134647
0.000169209
0.000201866
0.000230855
0.000248434
0.00025647
0.000251422
0.000233817
0.000208412
1.1514e-05
8.13191e-05
0.000126281
0.000159922
0.000190315
0.000218669
0.00023604
0.000243917
0.000240291
0.000225788
0.000203844
1.07319e-05
7.40207e-05
0.00011888
0.000153253
0.000182899
0.000210206
0.000228853
0.000238982
0.00023899
0.000229129
0.000211346
9.99577e-06
6.66724e-05
0.000111808
0.000148507
0.00018018
0.000208298
0.000231037
0.000247121
0.000253891
0.000250006
0.000235281
9.28866e-06
5.91426e-05
0.000104259
0.00014363
0.000179486
0.000212828
0.00024431
0.000271253
0.000287897
0.000289665
0.000273655
8.59304e-06
5.27071e-05
9.66709e-05
0.000137399
0.000178709
0.000221592
0.000265965
0.00030612
0.000332248
0.000336749
0.00031521
7.83536e-06
4.8186e-05
9.02167e-05
0.000133078
0.000181086
0.00023311
0.000283482
0.000325651
0.000353012
0.00035917
0.000336259
7.03747e-06
4.76276e-05
9.26971e-05
0.000139124
0.000182737
0.000215828
0.000233073
0.00024114
0.000259523
0.000284185
0.000289583
7.40221e-06
5.41733e-05
9.40056e-05
0.000114888
0.000123497
0.000121187
0.000134809
0.000157096
0.000179679
0.000195216
0.000198555
7.30809e-06
4.54763e-05
5.89837e-05
5.87442e-05
7.38558e-05
9.86992e-05
0.000129634
0.00016284
0.00019356
0.00021489
0.00021466
5.84926e-06
1.77533e-05
2.98333e-05
5.28149e-05
8.38399e-05
0.000121589
0.000162507
0.000202337
0.000237295
0.000262601
0.000267644
6.99038e-06
2.10121e-05
4.74597e-05
8.69079e-05
0.000135978
0.000188203
0.000236347
0.000275244
0.000301807
0.000314961
0.000313657
4.32897e-05
0.000354155
0.00058991
0.000713483
0.00074315
0.000720745
0.000691264
0.000673729
0.000655925
0.000626235
0.000606198
2.75626e-05
0.000271899
0.000546976
0.000725666
0.000786706
0.000773029
0.000738143
0.000711057
0.000683877
0.000641858
0.000603646
2.20088e-05
0.000227355
0.000498624
0.000716223
0.000819952
0.00083021
0.000798966
0.000765568
0.00072895
0.000670642
0.000606202
1.85112e-05
0.000186262
0.00044571
0.00067838
0.000820586
0.000869092
0.00085887
0.000831764
0.000794386
0.000722501
0.000622859
1.48932e-05
0.000131059
0.000351959
0.000575148
0.000750191
0.000852882
0.000890178
0.000895222
0.000882575
0.000820786
0.000692854
1.23955e-05
0.000105084
0.000268035
0.000455701
0.00062712
0.000757797
0.000836006
0.000880824
0.00091675
0.000915597
0.000816159
1.20818e-05
9.62694e-05
0.000224685
0.00037633
0.000532
0.00066588
0.000761731
0.000827645
0.0008956
0.000952427
0.000915231
1.29356e-05
9.45608e-05
0.000206421
0.000337411
0.000474344
0.000601302
0.000698186
0.000764679
0.000839076
0.00093658
0.000974426
1.40181e-05
9.69511e-05
0.000201716
0.000321983
0.000447998
0.000564612
0.000655309
0.00071265
0.000768789
0.0008768
0.000981724
1.50757e-05
0.000101458
0.000203355
0.000317625
0.000436966
0.000548069
0.000633221
0.00068068
0.000708072
0.000788771
0.000926459
1.60304e-05
0.000105993
0.000206349
0.000317306
0.000431534
0.000539165
0.000621979
0.000665121
0.000671751
0.00070044
0.000830959
1.69504e-05
0.000111847
0.000212903
0.000319525
0.000428017
0.000531138
0.000612231
0.000655341
0.000653531
0.000641051
0.000713063
1.76941e-05
0.000117331
0.000219358
0.000322578
0.000424726
0.000520582
0.000597869
0.000642448
0.000641609
0.000607154
0.000619221
1.8245e-05
0.000122047
0.000225593
0.000326098
0.000421035
0.000506677
0.00057621
0.000621142
0.000626963
0.000587046
0.000555716
1.85664e-05
0.000125701
0.000231183
0.000329536
0.00041742
0.000491032
0.000548637
0.000590484
0.000604507
0.000570507
0.00051589
1.86476e-05
0.000128436
0.00023643
0.00033298
0.000414265
0.000475502
0.000518611
0.000552925
0.00057248
0.000550457
0.000491729
1.84932e-05
0.000130819
0.000242113
0.000337287
0.000411703
0.000460807
0.000489742
0.000513536
0.000532629
0.000523013
0.000472883
1.80861e-05
0.000133316
0.000248067
0.000340655
0.000407864
0.000447034
0.000464355
0.000477437
0.000491099
0.000488812
0.000456251
1.73528e-05
0.000135021
0.000250788
0.000339803
0.000402059
0.000435113
0.000443812
0.0004468
0.000453069
0.000452201
0.000432225
1.61363e-05
0.000132401
0.000245995
0.000334041
0.000395426
0.000426204
0.000429196
0.000422996
0.000420837
0.000417113
0.000402173
1.40967e-05
0.000123363
0.000233665
0.000323473
0.000387862
0.000419632
0.000419839
0.000406305
0.000396024
0.000387765
0.000374615
1.16273e-05
0.000107916
0.000210623
0.000305412
0.000375784
0.000411484
0.000412543
0.000395231
0.000378845
0.000366492
0.000353746
8.60971e-06
7.65685e-05
0.00017895
0.000277482
0.000353117
0.000394149
0.000401221
0.000386464
0.000368026
0.000353227
0.000340446
6.16609e-06
7.40498e-05
0.000154417
0.000242921
0.000306911
0.000349044
0.000368316
0.000367728
0.000356277
0.0003436
0.00033168
1.72433e-05
1.80575e-05
1.84965e-05
1.86956e-05
1.86535e-05
1.86606e-05
1.84666e-05
1.79545e-05
1.71765e-05
0.00010166
0.000124967
0.000145674
0.000163079
0.000162154
0.000148171
0.000128978
0.000107006
7.67883e-05
0.000200727
0.000241529
0.000279745
0.000307994
0.000309086
0.000288066
0.000254094
0.000213042
0.00015765
0.000291991
0.000346467
0.000387764
0.000417278
0.000419394
0.000396238
0.000357746
0.000309643
0.000232972
1.60081e-05
1.39268e-05
9.81648e-06
6.97979e-06
6.44339e-06
6.21178e-06
7.98694e-06
1.30413e-05
1.57602e-05
6.80427e-05
4.37228e-05
3.08563e-05
2.41093e-05
2.71813e-05
2.40413e-05
2.54055e-05
3.22342e-05
4.89351e-05
0.000138023
8.78879e-05
5.4651e-05
3.6505e-05
3.88833e-05
3.64459e-05
4.19926e-05
6.15559e-05
9.98649e-05
0.000204592
0.000129249
7.72109e-05
4.93202e-05
5.06784e-05
5.21194e-05
5.9924e-05
9.08903e-05
0.000148279
0.000195602
0.00022971
0.000229758
0.000103579
0.000377709
0.000229287
9.43054e-05
0.00022951
0.000229368
0.000233927
0.000370115
0.000229567
0.000130986
0.000212293
0.000123806
0.000228724
0.000192432
0.000102005
0.00022872
0.000228563
0.000229571
3.27667e-05
0.000229991
0.000212
0.000229325
0.000212156
0.000138278
9.55934e-05
0.000475119
0.000557447
0.000180161
0.00023591
0.000169083
0.000229432
0.000241063
0.000229676
0.000199671
0.000229323
0.000151745
0.000229259
2.1046e-05
0.000229473
0.000133059
0.000229972
0.000442638
5.71361e-05
7.40289e-05
0.000101556
0.000239808
0.000229602
0.000545524
0.000229226
0.000361411
0.000129612
0.000229527
0.000229358
3.19513e-05
0.000229218
0.000473102
0.000236539
2.35361e-05
0.000364752
0.000458939
0.000309649
2.90552e-05
0.000228552
0.000703859
0.000230443
0.000229713
0.000233383
0.000185534
0.000234509
6.11186e-05
0.000247126
0.000323778
0.000232436
2.20605e-05
0.000229712
0.000170845
0.000454847
0.000308099
0.000282145
0.000229263
0.000229792
0.000247243
6.01763e-05
0.000396919
0.000348912
5.10275e-05
0.000177503
0.000229498
0.000229186
2.37733e-05
0.00023493
0.000466426
0.00011115
0.000258118
0.000237645
4.8541e-05
0.00023752
0.000252649
0.000112591
0.000230221
0.00023639
6.43017e-05
0.000229551
0.000178476
0.000229871
0.000144373
0.000236087
0.000229342
0.00022953
0.000231472
0.000101948
6.83142e-05
0.000229031
0.000229342
0.000228928
0.000229279
0.000229225
0.000102114
0.000243833
0.000268072
0.000202496
5.28675e-05
0.000221441
0.000202181
0.000170554
0.000199765
0.000177385
0.000229184
0.000228649
0.000104778
0.000232978
0.000229789
0.000231571
2.42878e-05
0.000232381
0.000537342
0.000244529
0.000142023
0.00023122
0.000276612
0.000167887
0.000229371
3.70394e-05
0.000114951
0.000230248
0.000236083
0.000228915
0.000229033
0.000229139
3.67244e-05
0.000243529
0.000103848
8.3675e-05
5.31025e-05
3.07914e-05
0.000162902
0.000228892
0.000215336
5.14939e-05
0.000233992
0.000229154
0.000754759
0.000107747
6.70809e-05
0.000240322
0.000236219
2.85949e-05
0.000192917
0.000150999
0.000225346
0.000229489
0.000235151
0.000220248
0.00015028
3.68595e-05
0.000443886
0.000199595
0.000229821
2.98195e-05
0.000229925
0.000118591
0.0002293
0.000198333
0.000229092
0.000228863
0.000229639
0.000226063
0.000144597
0.000217596
0.000228541
2.06187e-05
0.000229744
0.000229102
0.000229667
4.83564e-05
0.000170425
0.000230001
3.56464e-05
0.000229781
0.000135553
0.00016953
0.000229825
0.000347738
0.000234023
0.000200392
0.000229601
0.000228727
0.000184396
0.00022898
0.000175004
0.00023896
0.000229271
0.000416594
0.000229379
5.01912e-05
0.000229188
0.000111144
0.000108239
9.76158e-05
0.000238673
6.44837e-05
0.000201687
0.00022922
9.47944e-05
0.000112012
0.000157946
0.000428106
3.40802e-05
0.000228501
0.000229049
0.000244013
3.67497e-05
0.000283591
0.000566253
0.00022988
0.000229582
0.000229526
5.08483e-05
0.000331531
0.000236502
1.87299e-05
0.00024221
5.27548e-05
0.000229362
0.000162605
0.00020053
0.000400415
0.000162999
0.000189548
0.000236114
0.000228659
0.000233694
0.000229577
0.000229292
0.000229288
4.83272e-05
0.000229168
0.000120858
0.000191899
0.000228209
0.00022961
0.000229338
7.24524e-05
0.000231648
0.000236471
0.000159364
0.000178229
0.000163986
0.000229237
0.000229792
7.44531e-05
0.000229115
0.000228958
0.000200284
0.00022919
0.000238239
6.12485e-05
0.000236396
0.000229822
0.000315768
0.000515982
0.000233289
0.000229128
0.000397655
0.000229742
0.000238014
0.000137834
0.000229855
0.000110103
0.000244418
0.000147719
0.000230001
0.000229611
0.000236853
0.00022958
0.000240652
0.000199219
0.000229131
0.000120866
0.000242691
0.000552932
0.00022921
0.000236315
0.000229718
0.000112108
2.93586e-05
0.000229231
6.00461e-05
0.000229612
0.000234042
0.000170671
2.65187e-05
0.000231482
0.000188051
8.89185e-05
0.00022876
0.000240923
0.000229005
0.000183735
0.000228946
0.000188949
0.000178862
0.000235058
0.000229154
0.000215606
0.000228209
0.000490292
0.000231909
0.000458597
1.91695e-05
0.00022994
0.000109071
0.000217515
5.54273e-05
0.000229669
0.000229252
0.000238459
5.18744e-05
0.000190297
0.00022973
0.000103669
0.000156414
0.000112152
0.000129
0.000229022
0.000174061
0.000245382
5.97868e-05
0.000236915
0.000178328
0.000229169
0.000105387
0.000230037
0.000102894
0.00020666
0.000229969
0.000492109
0.000135294
0.000215558
0.00022941
0.00022932
0.000229773
5.95344e-05
0.000159983
9.39787e-05
6.83157e-05
0.000259881
0.00022919
0.000105688
0.000217221
0.000197532
0.000110064
0.000229819
0.00015191
0.000240953
0.000229074
0.000228882
0.00033064
0.000229057
3.67716e-05
0.000229196
0.000217706
0.00072412
0.000105637
0.000200093
0.00033658
5.2658e-05
0.000229156
4.874e-05
0.000187157
0.000249325
0.000711226
2.87506e-05
0.000229233
0.000228955
0.000229912
6.25311e-05
4.85104e-05
0.000228989
0.000229973
0.000142314
0.000137037
2.29472e-05
0.000122403
0.000112998
0.000229744
0.00018064
0.000236462
0.000228683
0.000147166
0.000152483
3.81347e-05
0.000233843
0.000142669
0.000253907
0.000179417
5.3606e-05
0.000265753
0.000144765
8.88292e-05
0.000160236
0.000227235
0.000235226
0.000245722
7.44994e-05
0.00019584
3.66923e-05
0.000229242
3.70353e-05
0.000209258
0.000228641
0.000238661
9.15084e-05
0.000247489
0.000480931
0.000202347
0.000230039
0.000236423
0.000390699
0.000153882
0.000109656
0.000232194
9.11769e-05
0.000315421
2.675e-05
0.000228859
4.15159e-05
0.000229148
0.000229738
0.000229343
5.63602e-05
9.79489e-05
6.85614e-05
0.000194789
3.35934e-05
8.12775e-05
0.000229633
0.000228838
0.000210839
0.000176016
0.000233752
0.000235045
4.10014e-05
4.45774e-05
2.96836e-05
2.93526e-05
0.000231996
0.000211745
8.63924e-05
0.00022904
2.3212e-05
0.000233846
0.000229702
0.00022925
8.05646e-05
3.63176e-05
0.000229031
0.000229158
0.000229616
0.000392212
2.81529e-05
0.000229918
3.92805e-05
0.000450493
0.000156571
8.85564e-05
0.000228781
3.91273e-05
0.000229108
0.000233385
0.000229233
0.000192158
0.000144144
0.00022856
0.000187341
0.000168565
0.000235658
0.000225874
0.000215889
0.000229481
0.000229416
0.000252727
9.07372e-05
8.25131e-05
0.000232063
0.000103255
0.00022977
0.000415744
0.000104262
4.92283e-05
0.000109099
0.000252351
0.000626446
6.19705e-05
0.000187039
0.000229136
0.000182162
0.000228862
0.00022981
0.000229191
0.00022964
0.000233249
0.000325654
0.000229367
0.000228842
0.000131806
0.000229129
4.32709e-05
0.000240553
0.000113447
0.00017246
5.33533e-05
0.000230005
0.000229297
0.000229954
2.0168e-05
3.63949e-05
0.000229305
0.000229283
0.000202742
0.000229856
0.000132544
0.000229814
0.000371794
0.000236949
3.20568e-05
0.000154384
0.000127244
6.29983e-05
0.000449543
0.000229232
0.000231771
0.000235639
0.000229801
9.10013e-05
2.56093e-05
0.00022381
0.000163673
0.000157154
8.43802e-05
0.000229331
0.000230127
0.00022976
0.000311633
0.000625619
8.40529e-05
0.000229514
0.000229318
0.000504101
0.000231576
0.000164425
0.000195127
0.000111629
0.000250181
0.000229175
8.81552e-05
0.000229281
6.66841e-05
0.000229708
0.000346685
0.00014568
0.00023482
2.70783e-05
0.000109436
0.000229967
0.000230003
0.000472288
0.000229081
0.000181
0.000146828
6.37111e-05
0.000316361
5.13592e-05
0.000176386
0.000231619
0.000229146
0.000229254
0.000122196
7.3399e-05
0.000110103
0.000228549
0.000229354
0.000106584
0.000229191
0.000238671
0.000234875
0.000234306
0.000171232
9.13129e-05
6.49854e-05
0.000159767
0.000233365
0.000222407
0.000228642
0.000128925
0.000232342
0.00022915
0.000190559
0.000250886
0.000228952
0.000229046
2.44714e-05
0.000230239
0.0002288
0.000147621
0.000229793
0.000234097
0.000127119
0.000152059
0.00015767
0.000203497
0.000153765
8.06274e-05
0.000130229
6.42778e-05
0.000102147
0.000176061
6.1522e-05
4.91105e-05
0.000126246
0.000229773
0.000230038
0.000169691
0.000229957
0.000229104
0.000243767
0.00020929
0.000133958
0.00020031
0.000190846
0.000255114
0.000229115
0.000182995
0.000229503
0.000228978
0.000236472
8.76551e-05
0.000232252
0.000232613
0.000230454
0.000229737
0.00018248
6.20961e-05
0.000416508
0.000232589
0.000229499
0.000189768
0.000165928
0.000239022
0.000192092
0.00023215
0.000313132
0.000135315
0.000229151
8.91921e-05
0.000229932
0.000175106
0.000251393
0.000170488
0.00016438
0.000213574
0.000246379
0.000229826
9.95288e-05
0.000176027
5.20385e-05
0.000220021
0.000229001
0.000233716
0.000229813
0.000159718
0.000229394
4.4446e-05
0.000229576
0.000229228
0.000229139
0.000138167
7.32096e-05
0.000229546
0.000126375
0.00022925
0.000114634
0.000163124
0.000231084
0.000171541
1.7564e-05
0.000143752
0.000236216
0.000211691
0.000159375
0.000108947
0.000179039
9.05869e-05
0.000229192
0.000196384
0.000229275
0.00023155
5.60297e-05
0.000211251
3.78187e-05
0.000212233
0.000231346
0.000234344
0.000229244
5.04458e-05
0.000229617
0.000237814
0.000123997
0.00038135
0.000234116
0.00013817
0.000200551
0.000309932
0.000243074
0.000150666
3.77877e-05
0.000101453
0.000229415
0.000215573
0.000151666
0.00022952
4.58301e-05
0.000116617
0.000249691
0.00030296
0.000229288
0.000232488
0.000234981
0.000126535
0.000237062
0.000193703
0.000229652
0.000176068
0.00023483
0.000152563
8.99497e-05
0.00022873
0.000152079
0.000228845
0.000217724
6.54888e-05
0.000229187
0.000205903
0.000187318
8.97129e-05
0.000237629
3.01857e-05
0.00024138
7.25059e-05
0.000155224
0.000251275
0.00022893
0.000247217
0.000229103
0.000153138
2.24181e-05
0.000230047
0.000229237
0.000252505
0.000450744
0.000209059
0.000176855
0.000229685
0.000192634
0.000248768
0.000229523
0.000229603
0.000229859
0.000229244
0.000238521
0.00015437
4.82577e-05
9.69862e-05