/*--------------------------------*- C++ -*----------------------------------*\
| =========                 |                                                 |
| \\      /  F ield         | OpenFOAM: The Open Source CFD Toolbox           |
|  \\    /   O peration     | Version:  3.0.1                                 |
|   \\  /    A nd           | Web:      www.OpenFOAM.org                      |
|    \\/     M anipulation  |                                                 |
\*---------------------------------------------------------------------------*/
FoamFile
{
    version     2.0;
    format      ascii;
    class       volVectorField;
    location    "0.413769";
    object      U;
}
// * * * * * * * * * * * * * * * * * * * * * * * * * * * * * * * * * * * * * //

dimensions      [0 1 -1 0 0 0 0];

internalField   nonuniform List<vector> 
21246
(
(4.18433 -1.67572 9.05534e-20)
(3.89972 -1.21396 -2.6702e-19)
(4.01215 -1.11282 2.07217e-19)
(4.04135 -0.926452 0)
(4.03029 -0.738206 0)
(3.98344 -0.567626 -9.68784e-21)
(3.91148 -0.427478 1.18061e-21)
(3.82487 -0.319742 6.96149e-21)
(3.7298 -0.242196 5.74248e-21)
(3.63256 -0.193244 1.72653e-20)
(3.54555 -0.172599 -1.15898e-20)
(3.70087 -1.25055 2.96651e-20)
(3.48784 -0.865321 -4.59406e-19)
(3.59669 -0.964708 3.48819e-19)
(3.6833 -0.903377 1.10574e-19)
(3.74761 -0.794883 0)
(3.77701 -0.666779 0)
(3.77016 -0.541918 -8.14437e-20)
(3.73344 -0.434649 6.03009e-20)
(3.67558 -0.35109 -4.76064e-20)
(3.60576 -0.293248 9.89299e-21)
(3.5362 -0.263044 1.33762e-20)
(3.51206 -0.924713 4.57072e-19)
(3.35516 -0.63426 -6.91858e-19)
(3.40065 -0.780913 5.19817e-19)
(3.4689 -0.784976 -1.11957e-19)
(3.54394 -0.750711 -2.00016e-19)
(3.60611 -0.682135 -1.17854e-19)
(3.64085 -0.595102 1.37838e-19)
(3.64371 -0.506708 0)
(3.61869 -0.429323 9.94032e-20)
(3.57397 -0.37019 0)
(3.5215 -0.336056 0)
(3.45381 -0.750197 0)
(3.34643 -0.514118 -2.04953e-19)
(3.34862 -0.641456 0)
(3.38426 -0.662796 1.9163e-19)
(3.43852 -0.668911 1.93368e-19)
(3.49735 -0.646967 1.14282e-19)
(3.54405 -0.600621 -1.34106e-19)
(3.56731 -0.540807 0)
(3.56448 -0.479592 1.33558e-20)
(3.53959 -0.426789 -8.06027e-20)
(3.5015 -0.391989 0)
(3.44402 -0.666693 0)
(3.37754 -0.466541 -6.46158e-21)
(3.36124 -0.567701 -1.34789e-19)
(3.37649 -0.583071 -8.00833e-20)
(3.40746 -0.601333 0)
(3.44834 -0.603452 1.77178e-19)
(3.48736 -0.585854 -3.42541e-20)
(3.51317 -0.551937 -2.82937e-19)
(3.51972 -0.509418 0)
(3.50707 -0.467125 0)
(3.48119 -0.435847 0)
(3.45448 -0.626117 0)
(3.41558 -0.453275 -3.2306e-21)
(3.39098 -0.543012 2.91157e-19)
(3.39914 -0.546549 -5.36666e-20)
(3.41504 -0.564912 -3.72336e-19)
(3.43846 -0.574998 9.7556e-20)
(3.46318 -0.572169 -2.00405e-20)
(3.4814 -0.555433 2.19671e-19)
(3.48744 -0.528078 2.88017e-19)
(3.47943 -0.496061 6.11036e-20)
(3.46041 -0.469082 -1.54403e-19)
(3.48497 -0.603236 6.43748e-19)
(3.4515 -0.46159 -1.79811e-19)
(3.42119 -0.548196 8.10687e-21)
(3.42876 -0.539392 0)
(3.436 -0.556294 2.70667e-19)
(3.44684 -0.56704 2.3836e-19)
(3.45814 -0.569504 -1.64767e-19)
(3.46574 -0.561564 0)
(3.46601 -0.543823 -2.95068e-19)
(3.45691 -0.519629 1.06774e-20)
(3.43876 -0.497709 1.84304e-19)
(3.51812 -0.615023 -1.21998e-19)
(3.47674 -0.499998 -8.84874e-20)
(3.45246 -0.568982 0)
(3.45786 -0.551023 0)
(3.45838 -0.567955 7.22661e-20)
(3.46042 -0.576794 -4.04572e-20)
(3.46116 -0.57968 1.28123e-19)
(3.45879 -0.574935 -7.28906e-22)
(3.45187 -0.562034 0)
(3.43924 -0.542519 0)
(3.42117 -0.523693 9.19899e-20)
(3.53801 -0.658413 4.82209e-19)
(3.49977 -0.538143 6.81958e-20)
(3.48175 -0.593326 -2.60462e-19)
(3.48041 -0.581735 1.81113e-19)
(3.4766 -0.594842 -2.73982e-19)
(3.47264 -0.600072 -4.65105e-20)
(3.46542 -0.601188 6.63174e-20)
(3.45485 -0.596495 -4.19022e-20)
(3.44115 -0.585166 2.45298e-20)
(3.42415 -0.567676 -3.29212e-20)
(3.40377 -0.550135 -9.08536e-20)
(3.55432 -0.707918 -5.16177e-20)
(3.52444 -0.575902 -3.30037e-20)
(3.50094 -0.628653 -5.03911e-19)
(3.49581 -0.62184 3.64333e-19)
(3.4895 -0.629792 -2.73552e-19)
(3.48065 -0.632515 1.33606e-19)
(3.46727 -0.631525 -1.86379e-19)
(3.45015 -0.625363 1.11094e-20)
(3.43058 -0.613616 0)
(3.40904 -0.596182 1.83521e-20)
(3.38476 -0.578935 1.20515e-20)
(3.57179 -0.762165 0)
(3.54555 -0.620821 7.8779e-20)
(3.51377 -0.671904 4.66001e-19)
(3.50626 -0.6664 -3.17238e-20)
(3.49656 -0.671241 -2.65822e-19)
(3.48313 -0.671822 9.09956e-20)
(3.46467 -0.668344 -7.96641e-20)
(3.4422 -0.659999 -9.00423e-20)
(3.41763 -0.646676 1.24802e-19)
(3.39217 -0.627796 8.96619e-20)
(3.36542 -0.609284 -1.11759e-19)
(3.58285 -0.822253 -8.30741e-19)
(3.55763 -0.673962 7.43042e-20)
(3.5197 -0.721991 0)
(3.50961 -0.715443 -3.3059e-19)
(3.49649 -0.71762 4.9679e-19)
(3.47912 -0.715962 -6.1592e-19)
(3.45632 -0.709915 8.64862e-20)
(3.42937 -0.698986 9.48818e-20)
(3.40056 -0.683231 -1.11923e-19)
(3.3717 -0.661984 1.4558e-19)
(3.34163 -0.641788 1.38892e-19)
(3.58307 -0.88219 7.81457e-19)
(3.56038 -0.728477 -1.33987e-18)
(3.51796 -0.774694 2.00241e-20)
(3.50543 -0.76706 3.38348e-19)
(3.48924 -0.767106 0)
(3.46835 -0.763328 0)
(3.44173 -0.75475 -2.28679e-19)
(3.41086 -0.740997 1.73792e-19)
(3.37832 -0.72217 -1.02897e-19)
(3.34627 -0.697541 -2.76638e-19)
(3.31226 -0.674047 1.81545e-19)
(3.58002 -0.941744 -7.58788e-19)
(3.55883 -0.782595 4.52268e-19)
(3.51075 -0.827841 0)
(3.49501 -0.819936 0)
(3.47561 -0.818453 2.25116e-19)
(3.45122 -0.812867 0)
(3.4209 -0.801837 -2.23285e-19)
(3.38625 -0.785009 -1.51786e-19)
(3.35019 -0.762506 2.05615e-19)
(3.3152 -0.733387 -1.4559e-19)
(3.27847 -0.705909 -1.63578e-20)
(3.57256 -1.00454 0)
(3.55076 -0.839198 1.40568e-19)
(3.49703 -0.882806 0)
(3.478 -0.873855 0)
(3.45525 -0.870942 -2.24536e-19)
(3.42729 -0.8637 3.03554e-19)
(3.39322 -0.850262 4.32353e-19)
(3.35479 -0.830066 1.51031e-19)
(3.31521 -0.803251 2.00156e-19)
(3.27751 -0.768637 0)
(3.23739 -0.735878 0)
(3.55689 -1.06574 1.82451e-19)
(3.53595 -0.895245 5.26967e-19)
(3.47736 -0.9378 -2.15326e-19)
(3.45497 -0.928213 -2.80985e-19)
(3.42866 -0.9243 4.3823e-19)
(3.39674 -0.91566 -1.9092e-20)
(3.35846 -0.899757 -2.1022e-19)
(3.31591 -0.875667 -2.62052e-19)
(3.27281 -0.843692 3.22918e-21)
(3.23295 -0.802562 1.25347e-19)
(3.19093 -0.762644 1.30755e-19)
(3.53768 -1.12545 -1.86623e-19)
(3.51836 -0.950183 0)
(3.45411 -0.992259 -1.98522e-19)
(3.42732 -0.983253 -2.87995e-19)
(3.39662 -0.978995 -5.72179e-19)
(3.35975 -0.969286 -5.23422e-19)
(3.31623 -0.95062 3.80829e-19)
(3.26884 -0.921601 2.62821e-19)
(3.22216 -0.882978 -1.71444e-19)
(3.18095 -0.834159 0)
(3.13797 -0.787648 0)
(3.51607 -1.18722 1.74963e-19)
(3.49794 -1.00639 2.45764e-19)
(3.42742 -1.04797 -7.21859e-19)
(3.39536 -1.04005 1.07031e-18)
(3.359 -1.03604 1.57605e-19)
(3.31546 -1.02536 2.39841e-19)
(3.26503 -1.003 -6.92849e-19)
(3.21195 -0.967171 2.45423e-19)
(3.16209 -0.919754 -1.36972e-19)
(3.1211 -0.861684 1.01522e-19)
(3.07865 -0.807487 -1.04044e-19)
(3.49107 -1.24995 5.32572e-19)
(3.47541 -1.06382 -1.39578e-19)
(3.39848 -1.10589 5.218e-19)
(3.35981 -1.10058 -5.32138e-19)
(3.3154 -1.09777 3.3022e-19)
(3.2621 -1.08557 1.91526e-19)
(3.2023 -1.05714 -1.85849e-19)
(3.14298 -1.01109 1.58594e-19)
(3.09145 -0.95187 -1.41179e-19)
(3.05343 -0.883162 -1.53974e-19)
(3.01647 -0.818534 9.30186e-20)
(3.46422 -1.31405 0)
(3.45384 -1.12348 -1.07227e-18)
(3.36987 -1.16875 7.42291e-19)
(3.32131 -1.16907 -4.48389e-19)
(3.26373 -1.16818 3.40554e-19)
(3.19546 -1.15184 -4.87591e-19)
(3.12358 -1.11211 4.42936e-19)
(3.05895 -1.05042 -1.10427e-19)
(3.00939 -0.975964 0)
(2.97814 -0.896402 2.21783e-19)
(2.95009 -0.82297 -2.75352e-19)
(3.44015 -1.38524 4.16425e-20)
(3.4394 -1.19149 5.70478e-19)
(3.3449 -1.24514 -4.41114e-19)
(3.27781 -1.25474 6.11912e-20)
(3.1971 -1.253 4.21941e-20)
(3.10709 -1.22436 2.94915e-19)
(3.02253 -1.16364 0)
(2.95733 -1.07932 -2.34708e-19)
(2.91657 -0.987199 1.09573e-19)
(2.89769 -0.898454 6.37855e-21)
(2.88307 -0.820378 1.19255e-20)
(3.42472 -1.4696 0)
(3.43904 -1.27355 -6.30443e-20)
(3.32062 -1.35069 -3.05494e-20)
(3.21656 -1.36753 -1.86917e-20)
(3.09884 -1.35239 0)
(2.98424 -1.29508 1.65289e-20)
(2.89389 -1.20038 -2.02145e-19)
(2.83923 -1.08784 1.65073e-19)
(2.81734 -0.979278 1.19152e-19)
(2.81717 -0.886058 -1.65277e-21)
(2.81894 -0.809231 0)
(3.43997 -1.51854 -2.28789e-20)
(3.44739 -1.47217 0)
(3.28059 -1.53062 3.67081e-20)
(3.10674 -1.52862 2.18992e-20)
(2.94566 -1.46772 0)
(2.81928 -1.35361 -1.52975e-19)
(2.74249 -1.21034 9.66741e-20)
(2.71514 -1.0683 -9.3792e-21)
(2.72205 -0.949591 -9.03328e-20)
(2.74364 -0.859911 3.58152e-20)
(2.76469 -0.790597 0)
(3.10524 -2.06282 6.4703e-19)
(3.33228 -1.62532 -4.28223e-19)
(3.07636 -1.7406 0)
(2.87818 -1.64706 -1.99238e-19)
(2.7298 -1.47824 1.39611e-19)
(2.63515 -1.29684 1.98938e-19)
(2.60102 -1.1262 -1.06963e-19)
(2.61575 -0.982132 -1.10114e-20)
(2.65378 -0.878946 -1.42804e-20)
(2.69225 -0.812335 2.05339e-20)
(2.72258 -0.765055 4.34515e-20)
(5.12114 -1.63159 0)
(4.83317 -1.33257 0)
(4.66243 -1.04347 8.6979e-20)
(4.50914 -0.785263 -6.69978e-20)
(4.36453 -0.578505 0)
(4.21806 -0.413849 -2.27146e-21)
(4.06863 -0.280396 -4.82884e-21)
(3.92547 -0.178753 0)
(3.78774 -0.108316 5.28189e-21)
(3.6573 -0.0693769 0)
(3.54369 -0.0608189 -1.89822e-21)
(5.77323 -1.26856 0)
(5.51864 -1.21402 0)
(5.27099 -1.02512 3.01708e-19)
(5.01238 -0.754208 -2.20285e-19)
(4.77277 -0.477256 0)
(4.55352 -0.250973 -1.34779e-19)
(4.32545 -0.0886223 8.75993e-20)
(4.09851 0.00237795 4.0077e-20)
(3.88452 0.0526572 -1.03163e-20)
(3.69633 0.07814 -1.32587e-20)
(3.54446 0.0808163 0)
(6.06278 -1.15269 0)
(5.91436 -1.08931 0)
(5.70485 -0.979546 0)
(5.44824 -0.760084 -1.96819e-19)
(5.1547 -0.45344 1.42473e-19)
(4.86488 -0.140124 1.39068e-19)
(4.60103 0.0985227 -8.94808e-20)
(4.31059 0.25223 0)
(3.995 0.30616 2.45382e-20)
(3.73999 0.294135 0)
(3.53692 0.26154 0)
(6.26613 -1.16355 -3.35657e-20)
(6.18581 -1.0375 1.00242e-20)
(6.01029 -0.945266 2.2336e-20)
(5.77533 -0.752474 -3.26262e-20)
(5.48077 -0.469309 3.45819e-20)
(5.13617 -0.104402 0)
(4.79744 0.239303 0)
(4.47092 0.487339 -4.79363e-20)
(4.13334 0.608995 1.46921e-20)
(3.76268 0.584082 3.04189e-20)
(3.50459 0.495547 -2.16238e-20)
(6.43699 -1.21811 1.19678e-19)
(6.40763 -1.03514 -1.49646e-19)
(6.25468 -0.953628 0)
(6.03648 -0.765506 -6.67671e-20)
(5.74659 -0.496877 9.95993e-20)
(5.38803 -0.1314 -1.58269e-19)
(4.97601 0.288055 5.60759e-20)
(4.57581 0.644483 -8.64956e-20)
(4.18398 0.868426 -1.05051e-19)
(3.79742 0.919829 0)
(3.43953 0.798285 0)
(6.58339 -1.27892 -2.92455e-20)
(6.59383 -1.0529 2.71946e-19)
(6.45516 -0.991035 9.2032e-21)
(6.25017 -0.808653 -1.03402e-19)
(5.96517 -0.552532 -2.79669e-19)
(5.5956 -0.200293 1.34197e-19)
(5.13837 0.256251 -4.07782e-19)
(4.6549 0.70417 7.80072e-20)
(4.18226 1.03665 1.00709e-19)
(3.73517 1.18843 3.1094e-19)
(3.33229 1.12857 0)
(6.70089 -1.33463 -2.33498e-20)
(6.74144 -1.08364 -3.62494e-19)
(6.6127 -1.04838 4.42881e-19)
(6.41997 -0.877499 0)
(6.14285 -0.642203 4.43381e-19)
(5.76888 -0.311845 -5.79963e-20)
(5.28878 0.136756 8.29837e-19)
(4.72346 0.657327 6.34204e-22)
(4.15209 1.09208 -3.324e-19)
(3.61957 1.35343 -3.011e-19)
(3.16242 1.39575 -2.11429e-19)
(6.79224 -1.38969 4.17445e-19)
(6.85016 -1.13056 0)
(6.72812 -1.12335 -3.45257e-19)
(6.5473 -0.967081 -1.2514e-20)
(6.28101 -0.761388 -2.56502e-19)
(5.91177 -0.464073 3.87899e-20)
(5.41405 -0.0477079 3.93935e-19)
(4.78515 0.509014 -6.89828e-19)
(4.11216 1.02645 5.09223e-19)
(3.47518 1.38775 -8.53269e-19)
(2.94216 1.54545 0)
(6.86119 -1.4397 -1.05923e-19)
(6.92442 -1.18525 -4.75575e-19)
(6.8043 -1.21077 9.7232e-19)
(6.6337 -1.07114 -3.89312e-19)
(6.37835 -0.902511 -5.15647e-20)
(6.01949 -0.65022 -5.30215e-19)
(5.52073 -0.28333 5.80405e-19)
(4.85353 0.234775 1.01028e-18)
(4.08162 0.828773 6.92418e-19)
(3.33386 1.27698 3.25794e-19)
(2.70024 1.51371 1.31392e-18)
(6.9001 -1.48045 0)
(6.96683 -1.2453 0)
(6.842 -1.30672 -6.67067e-19)
(6.67986 -1.18522 1.31419e-19)
(6.4341 -1.05922 1.05594e-18)
(6.08853 -0.861094 0)
(5.6028 -0.558983 -5.65054e-19)
(4.92108 -0.113771 1.43494e-19)
(4.0702 0.505598 -1.73219e-18)
(3.20944 1.00933 1.26193e-18)
(2.4825 1.31809 -1.18559e-18)
(6.8996 -1.5274 -4.82313e-19)
(6.97679 -1.31814 6.76674e-20)
(6.83615 -1.39991 -6.02012e-20)
(6.68314 -1.30648 3.7119e-19)
(6.4458 -1.22839 -3.73243e-19)
(6.11356 -1.09194 -7.97448e-19)
(5.64976 -0.86998 6.16419e-19)
(4.9883 -0.526246 0)
(4.08991 0.0651363 0)
(3.12481 0.604953 8.19472e-19)
(2.30741 0.96211 0)
(6.8642 -1.59552 4.77725e-20)
(6.94123 -1.39221 -3.58718e-19)
(6.79547 -1.48182 9.01645e-20)
(6.64292 -1.44551 -3.99806e-19)
(6.41346 -1.4108 -1.94198e-19)
(6.09277 -1.33788 0)
(5.6513 -1.20429 0)
(5.03149 -0.978286 3.50979e-20)
(4.13027 -0.544452 -5.23407e-19)
(3.10004 0.0665463 -8.17909e-19)
(2.22375 0.452698 0)
(6.79887 -1.64437 1.8291e-19)
(6.84924 -1.47308 -1.63845e-19)
(6.71554 -1.57412 5.44906e-20)
(6.55751 -1.58954 1.94814e-19)
(6.33262 -1.60228 -2.28074e-19)
(6.02206 -1.59152 3.27716e-19)
(5.60241 -1.54067 -1.70858e-19)
(5.03699 -1.42614 1.33515e-18)
(4.23193 -1.19355 -5.28903e-19)
(3.13986 -0.583204 0)
(2.22532 -0.174518 3.03315e-19)
(6.68633 -1.68025 2.71137e-19)
(6.71042 -1.55677 -1.26274e-19)
(6.58474 -1.67591 4.48215e-20)
(6.42722 -1.74206 -1.88759e-19)
(6.21011 -1.8078 1.48233e-19)
(5.91369 -1.85911 0)
(5.51706 -1.88099 1.59489e-19)
(4.99338 -1.85411 0)
(4.30255 -1.74156 5.54829e-19)
(3.38525 -1.36498 4.40679e-21)
(2.31351 -0.875892 -6.14234e-19)
(6.52052 -1.7127 0)
(6.51965 -1.64428 1.02785e-21)
(6.39976 -1.7862 -1.09733e-21)
(6.24872 -1.90309 0)
(6.047 -2.02548 0)
(5.77698 -2.14098 -3.32188e-20)
(5.42162 -2.23384 1.3759e-19)
(4.95924 -2.28147 0)
(4.35424 -2.24671 0)
(3.56102 -2.05484 0)
(2.62848 -1.65289 -2.58704e-19)
(6.29668 -1.74054 0)
(6.26882 -1.73009 0)
(6.15365 -1.90081 2.53351e-20)
(6.01488 -2.06976 -3.50481e-20)
(5.8383 -2.25041 0)
(5.60858 -2.42894 7.02852e-20)
(5.31221 -2.58754 0)
(4.93309 -2.6999 0)
(4.44473 -2.72866 1.31214e-20)
(3.8126 -2.62699 -9.8951e-21)
(3.03274 -2.34067 -1.71535e-19)
(5.99876 -1.7685 -5.19881e-20)
(5.94682 -1.81422 0)
(5.83927 -2.01967 3.5459e-20)
(5.72178 -2.24125 -1.20608e-20)
(5.58343 -2.47861 -1.25339e-19)
(5.4095 -2.71455 -3.32794e-19)
(5.18761 -2.92901 3.21642e-19)
(4.90495 -3.09453 -3.17625e-19)
(4.54144 -3.17728 0)
(4.0702 -3.15006 0)
(3.47752 -3.00326 2.51199e-19)
(5.61512 -1.80941 1.04381e-19)
(5.54717 -1.90251 6.85539e-20)
(5.45473 -2.1433 0)
(5.37081 -2.41118 0)
(5.28558 -2.69457 1.33898e-19)
(5.18254 -2.97276 2.44804e-19)
(5.04842 -3.22425 -5.5567e-19)
(4.87324 -3.42184 4.71586e-19)
(4.64233 -3.53439 1.36597e-19)
(4.333 -3.54305 -3.7397e-19)
(3.91981 -3.46452 1.3978e-19)
(5.15319 -1.87155 0)
(5.07677 -1.99158 -7.36555e-20)
(5.00494 -2.25157 -1.02848e-19)
(4.95243 -2.54081 -4.1871e-22)
(4.91437 -2.83757 -3.31735e-20)
(4.87997 -3.12175 -9.16047e-20)
(4.83407 -3.37329 2.33537e-19)
(4.76529 -3.56575 1.22144e-19)
(4.65647 -3.67129 3.2911e-19)
(4.48054 -3.67937 -1.27495e-19)
(4.20382 -3.62857 -2.69404e-19)
(4.50359 -1.87248 0)
(4.42888 -1.94815 0)
(4.36536 -2.16335 1.07443e-19)
(4.34583 -2.40936 1.2892e-19)
(4.3618 -2.66394 -2.31982e-20)
(4.39148 -2.9092 1.75166e-21)
(4.42042 -3.12389 1.20021e-19)
(4.43382 -3.27087 -3.47443e-19)
(4.40823 -3.31383 0)
(4.30857 -3.2436 -1.52521e-19)
(4.09648 -3.10498 1.67446e-19)
(3.93768 -1.87298 1.54922e-20)
(3.89294 -1.88253 0)
(3.84378 -2.05331 -5.36977e-20)
(3.81979 -2.24568 -1.33395e-19)
(3.82388 -2.436 -3.20333e-20)
(3.85198 -2.60622 7.9386e-20)
(3.89726 -2.72884 -2.61436e-19)
(3.94293 -2.74102 -2.78153e-19)
(3.95973 -2.57124 2.20352e-19)
(3.8754 -2.27975 8.96277e-20)
(3.56173 -1.94554 3.62365e-19)
(3.51274 -1.90191 2.32786e-19)
(3.44387 -1.84379 -1.13055e-19)
(3.37598 -1.98139 -2.49817e-20)
(3.337 -2.11723 1.415e-19)
(3.32122 -2.22616 0)
(3.32572 -2.28474 -8.97118e-20)
(3.35114 -2.24608 -3.67839e-20)
(3.36452 -2.00838 4.36038e-19)
(3.30333 -1.5865 -2.33046e-19)
(3.2548 -1.33777 -2.2381e-19)
(3.09111 -1.17538 -2.28512e-20)
(3.10527 -2.02637 2.00258e-19)
(3.04449 -1.87559 1.14302e-19)
(2.98332 -1.95474 -1.68882e-21)
(2.9409 -2.0062 0)
(2.90614 -1.99173 0)
(2.87883 -1.88239 -2.27314e-19)
(2.84592 -1.62062 1.62563e-19)
(2.80681 -1.2502 0)
(2.83206 -1.01109 1.74349e-19)
(2.84386 -0.892298 -6.17958e-20)
(2.8018 -0.827428 1.21607e-19)
(2.72458 -2.21373 0)
(2.82099 -1.77597 -2.42043e-20)
(2.76156 -1.82001 -5.8439e-20)
(2.7143 -1.74012 2.23426e-19)
(2.66198 -1.5892 -1.17263e-19)
(2.60889 -1.36943 -5.01296e-20)
(2.58509 -1.13562 0)
(2.60651 -0.958296 0)
(2.64937 -0.849774 0)
(2.68576 -0.791318 7.79485e-20)
(2.70254 -0.754697 -1.90974e-20)
(0.980477 -5.92304 8.58912e-18)
(0.861772 -4.2583 -5.79601e-18)
(1.63464 -3.21004 0)
(2.07561 -2.50513 2.81925e-18)
(2.31965 -1.98306 -2.24855e-18)
(2.45554 -1.5703 -1.50353e-18)
(2.52941 -1.23904 2.57832e-18)
(2.56768 -0.971591 -5.77672e-19)
(2.58423 -0.755577 6.24301e-19)
(2.58531 -0.582628 0)
(2.57317 -0.448538 5.54245e-19)
(-1.68097 -0.796062 -2.64562e-18)
(-0.75991 -1.95437 0)
(-0.0213286 -2.19845 -2.11666e-18)
(0.756623 -2.10665 1.41404e-18)
(1.33684 -1.85543 -1.84837e-18)
(1.74123 -1.55235 9.10128e-19)
(2.00889 -1.25613 2.71525e-18)
(2.1837 -0.993856 -1.64813e-18)
(2.29995 -0.773269 -9.70138e-19)
(2.37799 -0.594128 7.19694e-19)
(2.42347 -0.455441 0)
(-1.43506 0.341058 0)
(-0.75415 -0.436208 -6.17672e-18)
(-0.490072 -0.781978 6.8646e-18)
(0.0551501 -1.06175 -2.81217e-20)
(0.618523 -1.1797 8.1513e-19)
(1.12373 -1.15348 3.08839e-19)
(1.52722 -1.02922 -1.93691e-18)
(1.82735 -0.862459 1.44117e-19)
(2.04147 -0.692071 0)
(2.19084 -0.539409 -8.39083e-19)
(2.28762 -0.415625 0)
(-0.831788 1.0019 -5.24148e-18)
(-0.152634 0.371046 -5.16479e-19)
(-0.220772 0.145299 0)
(0.0931541 -0.214027 -2.70373e-18)
(0.442397 -0.459238 1.59707e-19)
(0.847533 -0.606924 7.87153e-19)
(1.23071 -0.646707 8.82478e-19)
(1.55833 -0.607468 0)
(1.8182 -0.525092 4.09093e-20)
(2.01406 -0.42947 7.89422e-19)
(2.15054 -0.340535 2.58266e-19)
(-0.189388 1.27669 0)
(0.423473 0.821224 4.83033e-19)
(0.202023 0.736345 0)
(0.402353 0.400612 2.42535e-19)
(0.570705 0.142947 0)
(0.837953 -0.0798401 6.31713e-19)
(1.12981 -0.223528 -8.52223e-19)
(1.41779 -0.29063 -1.05609e-18)
(1.67498 -0.297326 9.684e-19)
(1.88808 -0.267065 6.61903e-19)
(2.04777 -0.220013 -3.16385e-19)
(0.360459 1.31148 0)
(0.902765 1.0449 4.82703e-18)
(0.619514 1.04699 -3.58049e-18)
(0.770064 0.767982 -2.31526e-19)
(0.824988 0.555375 2.65658e-18)
(0.981514 0.329965 -1.91936e-18)
(1.17881 0.146854 0)
(1.39921 0.0187641 -9.96153e-19)
(1.61827 -0.0533945 -7.55328e-19)
(1.81727 -0.0816861 1.51152e-18)
(1.97607 -0.0804526 -6.37908e-19)
(0.732528 1.25326 -3.84813e-18)
(1.26351 1.13428 2.96623e-18)
(0.999572 1.17199 -1.00213e-19)
(1.10198 0.966428 0)
(1.10347 0.80527 -2.12003e-18)
(1.18745 0.607798 3.18824e-18)
(1.30841 0.427919 -1.27633e-18)
(1.46307 0.279345 -1.79817e-18)
(1.63383 0.171687 1.97514e-18)
(1.80329 0.103619 1.10811e-19)
(1.94921 0.070451 0)
(0.972893 1.18559 -1.66613e-19)
(1.50345 1.15588 0)
(1.29765 1.21393 -2.34048e-18)
(1.3766 1.06106 1.82245e-18)
(1.35673 0.944328 0)
(1.40009 0.782532 0)
(1.4696 0.623879 -2.13358e-18)
(1.57202 0.478362 -7.1967e-19)
(1.69715 0.358308 3.1727e-20)
(1.83159 0.268012 -7.82062e-19)
(1.94964 0.209798 0)
(1.15643 1.13158 -2.24817e-18)
(1.68272 1.14918 -2.60047e-19)
(1.52334 1.22077 0)
(1.59404 1.09955 0)
(1.56876 1.01519 -6.36937e-19)
(1.59211 0.884811 -5.29869e-19)
(1.63083 0.751749 0)
(1.69705 0.620321 -6.40162e-19)
(1.78578 0.502345 1.59435e-18)
(1.88877 0.404005 7.69568e-19)
(1.98344 0.332503 0)
(1.30263 1.05799 2.50418e-19)
(1.83835 1.11207 2.51748e-19)
(1.70361 1.2042 0)
(1.76885 1.10517 -3.29134e-19)
(1.74199 1.04598 -5.77238e-19)
(1.75573 0.940746 1.44928e-18)
(1.77697 0.831467 0)
(1.82018 0.717309 0)
(1.88303 0.608728 0)
(1.9619 0.511841 1.96358e-18)
(2.03949 0.437726 -9.83736e-19)
(1.38929 0.951728 -2.28372e-18)
(1.95164 1.05575 1.59117e-18)
(1.84096 1.17203 0)
(1.90709 1.0909 2.30005e-20)
(1.88159 1.05328 -5.62481e-19)
(1.89181 0.968218 3.26507e-21)
(1.90369 0.879471 7.34946e-19)
(1.93301 0.782077 -2.9811e-20)
(1.97839 0.685529 0)
(2.03942 0.594619 -1.84237e-18)
(2.09961 0.522562 4.55743e-20)
(1.42955 0.858193 -2.05032e-18)
(2.01575 1.01674 1.59937e-18)
(1.93706 1.14265 0)
(2.01121 1.07135 -1.43704e-18)
(1.99119 1.0497 9.32411e-19)
(2.00287 0.979561 5.59909e-20)
(2.01099 0.907629 1.25419e-18)
(2.0328 0.824904 -2.01098e-18)
(2.06705 0.740426 7.49624e-19)
(2.11566 0.657196 1.08227e-18)
(2.16413 0.5896 5.42877e-20)
(1.46283 0.792135 -2.45787e-19)
(2.06715 0.990741 1.65671e-18)
(2.01241 1.11967 -1.63289e-18)
(2.09296 1.05337 5.56095e-19)
(2.07806 1.04337 4.54605e-19)
(2.09335 0.983333 0)
(2.10093 0.924655 1.12946e-18)
(2.11948 0.853943 -1.77352e-18)
(2.14725 0.780445 1.3807e-18)
(2.18827 0.705083 -2.11701e-18)
(2.22967 0.643941 4.8048e-20)
(1.48088 0.71993 4.91246e-19)
(2.11096 0.951298 2.03538e-19)
(2.07618 1.09523 3.24126e-19)
(2.1615 1.03562 -2.65048e-19)
(2.14944 1.03697 -8.68552e-19)
(2.16866 0.984042 2.74593e-18)
(2.17687 0.936168 -2.16978e-18)
(2.19458 0.875037 8.75682e-19)
(2.21884 0.81124 0)
(2.25568 0.74309 0)
(2.29209 0.688586 1.4322e-18)
(1.47185 0.654274 5.09113e-19)
(2.12899 0.923161 -2.03468e-19)
(2.12385 1.07604 1.30782e-18)
(2.21625 1.02188 3.03958e-20)
(2.20898 1.03143 -8.28755e-19)
(2.23238 0.983859 -6.77482e-19)
(2.24186 0.945054 5.33724e-19)
(2.2601 0.891676 -4.12322e-19)
(2.28261 0.836457 6.14667e-19)
(2.31746 0.77457 0)
(2.35157 0.726291 -6.49742e-19)
(1.46951 0.60513 1.30814e-18)
(2.14016 0.903657 -2.0622e-19)
(2.16496 1.05995 0)
(2.26157 1.01222 2.62236e-19)
(2.26038 1.02619 2.02356e-19)
(2.28701 0.983686 0)
(2.29846 0.951885 0)
(2.31783 0.905401 -1.61226e-20)
(2.34005 0.857965 5.67955e-19)
(2.37412 0.80208 8.49783e-19)
(2.40871 0.758305 1.05382e-20)
(1.46846 0.553908 -2.12348e-18)
(2.1456 0.871907 1.95443e-18)
(2.20259 1.0366 -1.30937e-18)
(2.3004 1.00249 -1.24382e-20)
(2.30614 1.01974 6.04886e-19)
(2.3345 0.983548 0)
(2.34818 0.957465 -2.39489e-19)
(2.36882 0.917595 -7.40242e-19)
(2.39194 0.877184 -5.66039e-19)
(2.42592 0.827743 0)
(2.46255 0.78743 0)
(1.44947 0.503698 -1.02977e-18)
(2.13219 0.838611 1.5439e-18)
(2.22831 1.01114 -1.33265e-18)
(2.33083 0.992652 1.0432e-18)
(2.3458 1.01182 -1.7933e-21)
(2.37535 0.982889 -7.01544e-19)
(2.39149 0.962075 2.41905e-19)
(2.41356 0.929208 3.65346e-19)
(2.43865 0.895419 -5.22661e-19)
(2.47348 0.852513 2.01623e-19)
(2.51252 0.814818 6.8374e-19)
(1.42736 0.458576 -7.29467e-20)
(2.10558 0.804803 -1.71128e-18)
(2.24308 0.982788 8.8067e-21)
(2.35288 0.980936 1.06274e-18)
(2.3787 1.00134 0)
(2.40883 0.980886 -5.45024e-19)
(2.42781 0.966081 6.90191e-21)
(2.452 0.941231 3.33909e-19)
(2.48039 0.914086 0)
(2.5176 0.877474 -1.65888e-19)
(2.56032 0.84104 1.33129e-19)
(1.40805 0.41511 -1.17616e-18)
(2.06888 0.763599 9.33221e-19)
(2.24688 0.944242 0)
(2.36492 0.961036 -1.10055e-18)
(2.40165 0.984462 8.42705e-19)
(2.43333 0.975602 -6.36176e-19)
(2.45565 0.97001 6.00362e-19)
(2.48362 0.954865 3.6505e-19)
(2.51728 0.934837 -6.22647e-19)
(2.55867 0.904524 1.58508e-19)
(2.60582 0.869235 1.17654e-19)
(1.3862 0.369892 1.27906e-18)
(2.01667 0.707863 -7.69532e-19)
(2.23118 0.886509 0)
(2.35796 0.923774 0)
(2.40576 0.957857 0)
(2.4421 0.966811 -3.3555e-19)
(2.4716 0.974145 -1.23754e-19)
(2.50719 0.971165 1.71456e-19)
(2.5491 0.958854 5.82934e-20)
(2.5968 0.934175 -4.38915e-20)
(2.64835 0.900277 0)
(1.37656 0.310274 0)
(1.94206 0.630433 -1.14018e-18)
(2.18159 0.799139 1.27761e-18)
(2.31512 0.861618 -1.29698e-18)
(2.37813 0.917999 -9.75889e-22)
(2.42634 0.953371 7.2662e-19)
(2.47096 0.979356 5.15666e-19)
(2.5208 0.990273 1.08701e-20)
(2.57489 0.985736 -7.97519e-21)
(2.63121 0.96568 0)
(2.68827 0.931936 2.07371e-19)
(1.21912 0.286576 -1.86479e-18)
(1.79628 0.504954 -4.09599e-19)
(2.02981 0.69324 1.52055e-18)
(2.18205 0.788302 0)
(2.27817 0.877761 2.84763e-19)
(2.3604 0.940966 -2.07931e-19)
(2.43849 0.984831 -1.11881e-18)
(2.51543 1.0074 0)
(2.5888 1.00967 0)
(2.65771 0.99493 3.00832e-19)
(2.72179 0.961559 1.04074e-20)
(2.04248 -0.415764 1.64398e-19)
(1.88483 0.316845 2.44072e-18)
(2.0346 0.443111 0)
(2.118 0.627904 0)
(2.18987 0.789323 0)
(2.27473 0.904863 -7.09266e-19)
(2.37183 0.977796 7.95867e-19)
(2.47159 1.01376 -7.4787e-19)
(2.56512 1.02264 2.63356e-19)
(2.65025 1.01468 -3.24552e-19)
(2.72971 0.997377 4.06218e-19)
(4.80652 -6.32895 -1.01062e-18)
(4.29047 -3.82352 1.48673e-18)
(3.91451 -3.54299 0)
(3.52807 -2.76276 0)
(3.25897 -2.1319 0)
(3.0908 -1.63103 2.53893e-19)
(2.97859 -1.24919 -1.17449e-18)
(2.89448 -0.954523 4.18556e-19)
(2.82615 -0.724779 -6.2877e-19)
(2.76781 -0.545345 0)
(2.71398 -0.411143 -5.50244e-19)
(5.47119 -4.4214 2.95273e-17)
(5.09777 -1.22105 -9.3834e-18)
(5.37199 -2.28237 -1.07179e-18)
(4.84436 -2.10584 0)
(4.29638 -1.83052 -6.28834e-21)
(3.83603 -1.49035 3.00568e-19)
(3.49982 -1.16213 -1.44673e-20)
(3.26074 -0.88099 -1.48523e-19)
(3.08638 -0.654656 1.84264e-19)
(2.95392 -0.479284 -8.07518e-20)
(2.84779 -0.353527 0)
(4.55984 -2.40694 1.14136e-19)
(4.74621 0.650281 0)
(5.7714 -0.731481 6.01401e-18)
(5.49078 -0.834676 -3.82308e-18)
(5.02522 -0.989205 0)
(4.48454 -0.964528 -1.63454e-18)
(4.00852 -0.835931 3.41334e-19)
(3.63339 -0.663682 0)
(3.35108 -0.496121 3.47138e-20)
(3.13998 -0.354339 0)
(2.97821 -0.248246 6.18184e-20)
(3.26958 -1.19431 -3.16132e-18)
(4.04028 1.50378 0)
(5.47443 0.472206 -1.30296e-17)
(5.44353 0.44122 1.6182e-17)
(5.25916 0.0213326 -1.0127e-17)
(4.82447 -0.196675 1.83939e-18)
(4.35474 -0.293953 1.60433e-18)
(3.92716 -0.287213 -5.97854e-19)
(3.57753 -0.228261 -1.19133e-20)
(3.30658 -0.152268 0)
(3.10057 -0.0844575 3.16214e-20)
(2.17276 -0.652719 8.32011e-19)
(3.33593 1.72616 -1.94378e-17)
(4.84661 1.22145 2.73298e-17)
(5.00454 1.35532 -8.82206e-18)
(5.08075 0.888412 6.07292e-19)
(4.8206 0.577119 0)
(4.46145 0.325851 -1.11024e-18)
(4.07105 0.183817 3.32753e-19)
(3.71454 0.121535 7.53906e-19)
(3.41708 0.111478 0)
(3.18076 0.127964 -8.97829e-20)
(1.36486 -0.438189 9.7406e-20)
(2.75781 1.72559 -6.90212e-20)
(4.18525 1.62902 1.16614e-17)
(4.45464 1.89375 -1.72667e-17)
(4.68532 1.49847 6.65145e-18)
(4.57581 1.20274 0)
(4.35474 0.889866 0)
(4.05151 0.657733 -1.97285e-18)
(3.73786 0.499042 2.22431e-18)
(3.45166 0.403794 -4.34626e-19)
(3.21332 0.355328 1.96797e-19)
(0.774312 -0.364661 1.98183e-17)
(2.29319 1.66763 -1.4451e-17)
(3.61145 1.84575 0)
(3.9359 2.18933 4.81586e-19)
(4.2334 1.88584 -6.50258e-19)
(4.22063 1.64716 3.07437e-18)
(4.11407 1.33479 -2.35886e-18)
(3.90405 1.06936 3.5078e-18)
(3.65594 0.854519 -1.35738e-18)
(3.40697 0.696641 4.84306e-19)
(3.18658 0.586469 1.09679e-19)
(0.333596 -0.358649 0)
(1.92467 1.60079 1.48204e-18)
(3.13389 1.96197 6.71721e-18)
(3.48729 2.34898 -8.46688e-18)
(3.8032 2.12281 0)
(3.84204 1.94348 0)
(3.81374 1.65775 0)
(3.67992 1.39392 1.06825e-18)
(3.49808 1.15578 -1.76116e-18)
(3.29709 0.96158 -2.38648e-18)
(3.10434 0.810008 1.615e-18)
(0.00777788 -0.375939 -1.78114e-18)
(1.6158 1.534 -1.41415e-18)
(2.73041 2.01919 4.04315e-18)
(3.1007 2.43225 2.93777e-18)
(3.41427 2.26502 0)
(3.47767 2.13505 0)
(3.49892 1.88102 1.8974e-18)
(3.42024 1.63418 -2.28801e-18)
(3.29484 1.39287 2.17425e-19)
(3.14172 1.18236 -1.62663e-18)
(2.98807 0.99691 1.21567e-18)
(-0.237708 -0.391506 9.84902e-18)
(1.33918 1.47059 0)
(2.37852 2.03963 -1.6071e-19)
(2.75942 2.47014 -1.36964e-18)
(3.06441 2.34583 1.81242e-18)
(3.13818 2.25461 -2.82827e-18)
(3.19096 2.02884 -5.2457e-18)
(3.15048 1.80326 4.79411e-18)
(3.0702 1.5678 -1.63108e-19)
(2.9594 1.355 -1.62499e-18)
(2.84343 1.15429 1.21711e-18)
(-0.446724 -0.410923 1.01768e-17)
(1.06825 1.39792 -1.06534e-17)
(2.05052 2.03154 -1.4577e-19)
(2.4443 2.47157 2.23459e-18)
(2.74249 2.38431 1.78861e-18)
(2.82264 2.32125 0)
(2.89615 2.11965 0)
(2.88309 1.91468 0)
(2.83873 1.6884 1.3494e-18)
(2.76426 1.47874 -3.23052e-18)
(2.68094 1.28076 1.17274e-18)
(-0.633805 -0.446538 9.24455e-18)
(0.81182 1.31359 -5.72867e-18)
(1.74235 1.9956 -1.38935e-19)
(2.15075 2.4434 -2.19658e-18)
(2.44342 2.3894 0)
(2.52926 2.34592 0)
(2.61621 2.16519 1.37719e-18)
(2.62424 1.97763 -2.15153e-18)
(2.60813 1.76196 1.01614e-18)
(2.56466 1.55703 -1.3644e-19)
(2.51205 1.36006 8.99506e-19)
(-0.796662 -0.482661 -9.36778e-18)
(0.563668 1.22365 6.99346e-18)
(1.45178 1.93314 -7.55981e-18)
(1.87593 2.38731 3.87821e-18)
(2.15955 2.36695 2.60071e-18)
(2.25383 2.33678 -3.82331e-18)
(2.35073 2.17406 1.3931e-18)
(2.37681 2.00044 1.49964e-20)
(2.38412 1.79577 3.34269e-18)
(2.36769 1.59783 -4.19994e-18)
(2.34808 1.39656 7.66142e-20)
(-0.949169 -0.526799 5.49528e-18)
(0.311571 1.11839 0)
(1.16576 1.84453 2.30602e-18)
(1.60496 2.30332 -1.65921e-18)
(1.88401 2.3182 4.82414e-18)
(1.9923 2.2974 1.62354e-18)
(2.09777 2.15121 -2.47619e-18)
(2.14125 1.98855 -2.15786e-19)
(2.16977 1.79452 -1.78867e-19)
(2.17796 1.60536 2.45141e-18)
(2.18647 1.40762 6.65493e-19)
(-1.09512 -0.589022 -7.81067e-18)
(0.0618433 0.995671 5.76752e-18)
(0.884839 1.7295 -5.11155e-18)
(1.33581 2.19269 1.51611e-18)
(1.61552 2.24337 9.87169e-19)
(1.74133 2.23006 2.25625e-18)
(1.85576 2.09895 1.86181e-18)
(1.91735 1.94506 -1.43343e-18)
(1.96683 1.76121 -1.67838e-18)
(1.9995 1.5812 -2.41724e-18)
(2.03246 1.39585 1.5067e-19)
(-1.23258 -0.659105 0)
(-0.188016 0.857582 0)
(0.603638 1.58771 3.14492e-18)
(1.06416 2.05376 -2.15195e-18)
(1.34922 2.13994 -1.00312e-18)
(1.49574 2.13507 -1.2564e-18)
(1.62192 2.01754 7.52243e-19)
(1.70394 1.87109 4.79335e-19)
(1.77614 1.69743 5.95605e-19)
(1.83537 1.52658 1.80487e-19)
(1.89954 1.3511 9.88498e-19)
(-1.36782 -0.739712 3.31543e-18)
(-0.445613 0.700079 0)
(0.313877 1.41638 -2.33765e-18)
(0.781693 1.8834 3.99287e-18)
(1.07792 2.00329 -1.33586e-18)
(1.24952 2.00854 1.78841e-18)
(1.39186 1.90468 2.56389e-20)
(1.499 1.76579 -1.85214e-18)
(1.59761 1.60346 -2.68322e-19)
(1.68476 1.44376 9.91713e-20)
(1.77795 1.27915 -2.80654e-19)
(-1.50517 -0.839828 5.87125e-18)
(-0.713618 0.517597 -4.30553e-18)
(0.010257 1.20976 -2.34117e-19)
(0.481447 1.67475 1.96451e-18)
(0.792571 1.82639 -3.00277e-18)
(0.99374 1.84312 1.65528e-20)
(1.16068 1.75409 1.74352e-19)
(1.30009 1.6258 -3.68336e-19)
(1.43046 1.47857 1.62371e-19)
(1.54739 1.33474 2.14675e-20)
(1.67283 1.18579 -1.47036e-19)
(-1.64695 -0.963667 -5.30682e-18)
(-0.995682 0.305626 7.36301e-18)
(-0.314036 0.961601 -4.70673e-19)
(0.15366 1.41759 -1.94178e-18)
(0.481026 1.5957 -9.45749e-19)