/*--------------------------------*- C++ -*----------------------------------*\
| =========                 |                                                 |
| \\      /  F ield         | OpenFOAM: The Open Source CFD Toolbox           |
|  \\    /   O peration     | Version:  3.0.1                                 |
|   \\  /    A nd           | Web:      www.OpenFOAM.org                      |
|    \\/     M anipulation  |                                                 |
\*---------------------------------------------------------------------------*/
FoamFile
{
    version     2.0;
    format      ascii;
    class       volScalarField;
    location    "0.442766";
    object      p;
}
// * * * * * * * * * * * * * * * * * * * * * * * * * * * * * * * * * * * * * //

dimensions      [0 2 -2 0 0 0 0];

internalField   nonuniform List<scalar> 
21246
(
-2.08242
0.883669
1.76325
1.89236
1.70872
1.42428
1.13286
0.858194
0.601447
0.377145
0.242228
-15.8572
-8.00154
-4.78158
-2.54048
-1.12874
-0.431493
-0.140086
-0.0576439
-0.0814621
-0.150094
-0.187678
-17.0419
-12.3918
-10.029
-7.11909
-4.63828
-2.92983
-1.86376
-1.25438
-0.930159
-0.763835
-0.649218
-13.7901
-12.4294
-11.5168
-9.37883
-7.11728
-5.15458
-3.62465
-2.56147
-1.8789
-1.45262
-1.16712
-10.6476
-10.527
-10.4091
-9.34627
-7.91579
-6.34216
-4.86075
-3.64822
-2.74902
-2.11955
-1.65745
-8.48199
-8.63437
-8.69361
-8.25229
-7.5141
-6.49809
-5.3608
-4.28351
-3.37141
-2.65984
-2.09662
-6.93166
-7.11262
-7.16924
-7.00101
-6.65017
-6.05881
-5.29189
-4.46577
-3.68105
-3.00265
-2.41956
-5.83739
-5.92322
-5.95248
-5.9025
-5.7461
-5.41629
-4.92941
-4.34319
-3.72563
-3.14508
-2.60154
-5.16595
-5.09937
-5.08664
-5.06271
-4.98091
-4.78923
-4.48029
-4.0744
-3.6078
-3.13604
-2.66402
-4.82661
-4.631
-4.57682
-4.51307
-4.42613
-4.28321
-4.06542
-3.77229
-3.41768
-3.03962
-2.63793
-4.65766
-4.388
-4.29363
-4.17126
-4.05043
-3.91089
-3.72856
-3.49502
-3.21175
-2.9029
-2.56887
-4.53564
-4.23541
-4.09195
-3.92795
-3.77902
-3.63188
-3.46236
-3.25839
-3.01586
-2.74972
-2.46395
-4.4191
-4.11342
-3.94561
-3.75762
-3.58713
-3.42899
-3.26088
-3.06767
-2.84238
-2.59433
-2.33122
-4.33882
-4.03826
-3.86018
-3.66208
-3.47579
-3.30412
-3.12836
-2.93041
-2.70143
-2.44888
-2.18691
-4.30281
-4.00815
-3.82817
-3.625
-3.42617
-3.24244
-3.05501
-2.84233
-2.59394
-2.31851
-2.0373
-4.30084
-4.01473
-3.83852
-3.63755
-3.43361
-3.23917
-3.03567
-2.79861
-2.51665
-2.20202
-1.88371
-4.32268
-4.04973
-3.88102
-3.68733
-3.4844
-3.28092
-3.05789
-2.78804
-2.46133
-2.0951
-1.71693
-4.35728
-4.101
-3.94279
-3.75748
-3.55583
-3.34166
-3.09332
-2.78524
-2.4118
-1.99833
-1.57933
-4.39418
-4.15787
-4.01186
-3.83474
-3.63198
-3.39928
-3.11596
-2.76464
-2.35263
-1.91019
-1.47619
-4.42115
-4.20655
-4.07539
-3.90908
-3.6999
-3.43546
-3.10496
-2.70702
-2.27303
-1.83761
-1.41608
-4.4148
-4.2414
-4.1333
-3.9784
-3.75337
-3.44616
-3.05533
-2.60865
-2.17588
-1.79341
-1.43756
-4.33421
-4.27531
-4.21282
-4.05673
-3.7969
-3.43355
-2.97341
-2.48352
-2.07749
-1.79931
-1.59918
-4.50926
-4.56685
-4.45508
-4.22922
-3.90308
-3.44991
-2.89149
-2.36471
-1.99886
-1.84058
-1.77846
-5.08815
-4.43536
-4.10891
-3.79835
-3.37413
-2.8487
-2.33238
-1.95461
-1.82565
-1.93128
-2.14669
14.1543
9.82955
6.85241
4.95114
3.67714
2.79504
2.14233
1.62328
1.19085
0.83832
0.594558
11.6389
11.2988
9.57366
7.61373
5.83816
4.40851
3.30335
2.45459
1.79455
1.28315
0.95099
7.53458
8.64822
8.61813
7.89307
6.65315
5.28477
4.05176
3.0471
2.24226
1.61685
1.20358
3.96767
5.76487
6.34626
6.50219
6.0743
5.26133
4.29608
3.34877
2.50537
1.82178
1.37135
1.40484
3.13568
3.88748
4.56059
4.78554
4.55132
3.98421
3.26336
2.52521
1.88177
1.43417
-0.346196
1.11176
1.76212
2.58055
3.12581
3.33108
3.19306
2.80139
2.27607
1.75392
1.36584
-1.53052
-0.325539
0.165486
0.969399
1.58808
2.00434
2.16035
2.05963
1.78165
1.42829
1.13913
-2.30464
-1.3203
-0.99191
-0.256258
0.325243
0.810774
1.11825
1.22556
1.15426
0.970255
0.794833
-2.92314
-2.04749
-1.87
-1.17087
-0.676879
-0.183881
0.189924
0.419982
0.497352
0.452986
0.381678
-3.46986
-2.67629
-2.52802
-1.9142
-1.46301
-0.993233
-0.598055
-0.301683
-0.124212
-0.0592125
-0.0397687
-3.8996
-3.3112
-3.03867
-2.52519
-2.10164
-1.65333
-1.25485
-0.923348
-0.680075
-0.532175
-0.439217
-4.21901
-3.72908
-3.46554
-3.01183
-2.61631
-2.19092
-1.79779
-1.44872
-1.1635
-0.955138
-0.806201
-4.50841
-4.05331
-3.81063
-3.3973
-3.02638
-2.6234
-2.24018
-1.88478
-1.57483
-1.32118
-1.1162
-4.78542
-4.32956
-4.09189
-3.70265
-3.34984
-2.96603
-2.59412
-2.23953
-1.91817
-1.64079
-1.39609
-4.92682
-4.51313
-4.29975
-3.93566
-3.59932
-3.23225
-2.8711
-2.5211
-2.19686
-1.90918
-1.64774
-5.02932
-4.64709
-4.44961
-4.10739
-3.78405
-3.43095
-3.07881
-2.73489
-2.41344
-2.1253
-1.86408
-5.11995
-4.75158
-4.55641
-4.22884
-3.91217
-3.56842
-3.22242
-2.88451
-2.56983
-2.28896
-2.04053
-5.15695
-4.80763
-4.61533
-4.30083
-3.98632
-3.64703
-3.30377
-2.97114
-2.66698
-2.40359
-2.18178
-5.14477
-4.81659
-4.62606
-4.32248
-4.00584
-3.66583
-3.32184
-2.99384
-2.70411
-2.46828
-2.28969
-5.0988
-4.78685
-4.59158
-4.29309
-3.96846
-3.622
-3.27419
-2.95082
-2.68007
-2.4828
-2.36265
-5.01296
-4.71254
-4.50588
-4.20588
-3.86856
-3.51193
-3.15893
-2.84121
-2.59423
-2.44567
-2.39785
-4.86499
-4.57507
-4.3466
-4.04023
-3.69285
-3.32871
-2.97238
-2.66253
-2.44325
-2.3519
-2.39012
-4.72753
-4.38526
-4.12719
-3.82864
-3.4861
-3.11913
-2.758
-2.45351
-2.25615
-2.21819
-2.35872
-4.06037
-3.79091
-3.5683
-3.32221
-3.0291
-2.69713
-2.37337
-2.1139
-1.93603
-1.91503
-2.17818
0.860903
0.547384
0.498297
0.526792
0.578608
0.641855
0.6868
0.698193
0.683105
0.655262
0.66428
3.23017
2.63223
2.09303
1.74134
1.5198
1.37522
1.26989
1.17784
1.08619
1.00035
0.95113
3.28139
3.16418
2.86119
2.542
2.2519
2.00431
1.79601
1.6158
1.45119
1.30413
1.21366
2.90848
2.98421
2.91993
2.77427
2.5863
2.37648
2.15831
1.94309
1.74031
1.56853
1.45575
2.60873
2.74769
2.77332
2.74907
2.67177
2.54167
2.37348
2.18698
1.9972
1.8184
1.68322
2.38526
2.55686
2.61467
2.6539
2.65155
2.59948
2.49568
2.35492
2.18454
2.0016
1.85115
2.18023
2.3743
2.42002
2.50469
2.55835
2.57073
2.50605
2.41177
2.27165
2.10581
1.95664
2.02634
2.16652
2.24091
2.32766
2.40136
2.44495
2.439
2.38233
2.27698
2.14137
2.02172
1.88909
2.01068
2.0809
2.16258
2.23991
2.29748
2.3193
2.29509
2.22207
2.11409
2.01628
1.75893
1.87602
1.94036
2.01593
2.09035
2.15089
2.18431
2.17978
2.13108
2.04693
1.96719
1.65332
1.76111
1.8173
1.88517
1.95323
2.01086
2.04719
2.05237
2.01917
1.95386
1.89796
1.5823
1.67074
1.71315
1.76945
1.82741
1.87771
1.91113
1.91919
1.89487
1.84231
1.79989
1.50917
1.58435
1.61625
1.6614
1.70788
1.74817
1.77481
1.78101
1.76092
1.71799
1.68921
1.42195
1.49199
1.51701
1.5523
1.58715
1.61605
1.63338
1.63433
1.61451
1.57632
1.55575
1.35909
1.40921
1.41889
1.43983
1.46025
1.47544
1.48118
1.47468
1.45379
1.42084
1.40847
1.28314
1.31445
1.30972
1.31522
1.31915
1.31843
1.31072
1.29582
1.27426
1.2483
1.24973
1.1745
1.19399
1.17798
1.16769
1.15333
1.13474
1.11259
1.09009
1.07081
1.05624
1.07271
1.06301
1.05987
1.02342
0.990384
0.952568
0.91318
0.876537
0.849963
0.839759
0.845773
0.886706
0.927042
0.89379
0.829583
0.766176
0.699001
0.637228
0.590229
0.568223
0.578772
0.616679
0.692152
0.744599
0.671373
0.572831
0.471921
0.370823
0.287778
0.240416
0.240263
0.28959
0.373485
0.486886
0.494257
0.364954
0.22057
0.0762848
-0.0581119
-0.151281
-0.177436
-0.129576
-0.0182866
0.128964
0.293722
0.161458
-0.0907248
-0.276485
-0.459697
-0.614136
-0.688522
-0.654862
-0.522274
-0.323774
-0.0988463
0.125293
-0.66696
-0.760267
-0.968933
-1.17344
-1.30469
-1.29991
-1.15194
-0.900869
-0.59988
-0.293825
-0.0133092
0.270354
-1.16077
-1.65548
-1.91324
-1.97914
-1.84478
-1.55873
-1.19325
-0.804485
-0.432191
-0.107768
-5.37656
-2.38522
-1.16027
-0.691945
-0.307875
-0.0130781
0.150466
0.235172
0.285791
0.300486
0.338531
-4.78029
-3.48433
-2.72525
-2.16574
-1.56738
-1.03633
-0.645281
-0.371469
-0.203323
-0.107669
-0.00720644
-3.42339
-3.50308
-3.3392
-3.02276
-2.6088
-2.12664
-1.63477
-1.1941
-0.853088
-0.619898
-0.432622
-3.84005
-3.7003
-3.58776
-3.47293
-3.31977
-3.05255
-2.64917
-2.1613
-1.6824
-1.288
-0.950489
-4.37987
-4.24783
-4.06875
-3.95763
-3.92741
-3.86769
-3.64873
-3.23066
-2.68498
-2.13478
-1.63093
-5.0677
-5.00131
-4.85829
-4.72382
-4.70304
-4.75982
-4.71384
-4.42418
-3.8776
-3.18945
-2.48723
-5.7888
-5.82847
-5.77061
-5.7406
-5.74533
-5.86101
-5.94713
-5.79302
-5.28627
-4.4913
-3.5544
-6.50599
-6.66089
-6.69567
-6.80257
-6.96167
-7.15669
-7.36989
-7.35204
-6.90506
-6.02971
-4.89997
-7.17683
-7.44735
-7.57791
-7.83717
-8.17812
-8.5724
-8.95012
-9.07341
-8.68549
-7.71101
-6.28525
-7.71984
-8.12339
-8.3437
-8.76048
-9.29298
-9.92688
-10.5104
-10.8306
-10.518
-9.4662
-7.77499
-8.0353
-8.63618
-8.91968
-9.48042
-10.1815
-11.0152
-11.8698
-12.4264
-12.2084
-11.0852
-9.17399
-8.25097
-8.88725
-9.25603
-9.93544
-10.7658
-11.76
-12.8378
-13.5759
-13.4982
-12.3203
-10.2417
-8.25534
-8.8743
-9.35204
-10.0711
-10.9784
-12.0513
-13.2218
-14.102
-14.1824
-12.9209
-10.5144
-7.97439
-8.57359
-9.11217
-9.85346
-10.7862
-11.8786
-13.0248
-13.9167
-13.9599
-12.744
-10.3166
-7.45007
-7.97634
-8.51534
-9.23613
-10.1431
-11.1922
-12.2446
-12.9929
-12.9147
-11.7138
-9.48916
-6.64953
-7.07562
-7.57477
-8.24417
-9.08891
-10.0428
-10.9323
-11.4629
-11.2552
-10.0248
-8.01511
-5.56482
-5.90178
-6.35886
-6.98506
-7.77233
-8.62
-9.31394
-9.57692
-9.17359
-7.94902
-6.1504
-4.27032
-4.57835
-5.04438
-5.67695
-6.43878
-7.19037
-7.68809
-7.67547
-7.00657
-5.69734
-4.1105
-3.00503
-3.40716
-3.97798
-4.6662
-5.41001
-6.0531
-6.3385
-6.02558
-5.06335
-3.65953
-2.19966
-2.27146
-2.85531
-3.55939
-4.28942
-5.00176
-5.5353
-5.59866
-4.97667
-3.74349
-2.27028
-0.810063
-2.36096
-3.05415
-3.81388
-4.56413
-5.24135
-5.64034
-5.39409
-4.40358
-2.97849
-1.47378
-0.107588
-2.95276
-3.76514
-4.59626
-5.31939
-5.85906
-5.79202
-4.85712
-3.58515
-2.2712
-1.04168
-0.0312573
-4.04852
-5.48907
-5.8605
-5.74713
-5.31442
-4.55458
-3.53629
-2.50451
-1.56732
-0.759242
-0.159418
-7.59064
-5.4576
-4.41595
-3.88226
-3.3726
-2.77911
-2.15891
-1.56278
-1.01335
-0.529201
-0.146573
21.6126
18.639
15.5724
12.8798
10.5292
8.62469
7.05079
5.74356
4.65869
3.80594
3.23893
5.73009
10.9925
11.5182
11.1723
9.74387
8.28483
6.87268
5.63014
4.58011
3.7404
3.16472
-8.15723
0.31624
2.76236
5.53869
6.38919
6.32605
5.72634
4.94017
4.142
3.44893
2.95224
-13.9737
-7.2059
-5.26882
-0.817166
1.41968
3.00589
3.5273
3.53357
3.23466
2.84755
2.51121
-15.0226
-10.5761
-9.84746
-5.30509
-3.17708
-0.519308
0.833557
1.64451
1.94443
1.97657
1.93281
-14.5568
-11.3337
-11.5334
-7.46796
-6.15769
-3.30897
-1.62109
-0.275754
0.514976
0.948882
1.19624
-13.479
-11.1563
-11.4391
-8.35284
-7.41338
-4.97201
-3.36915
-1.82993
-0.769323
-0.0398231
0.456147
-11.8594
-10.5284
-10.4885
-8.46676
-7.6226
-5.68507
-4.33834
-2.84322
-1.72455
-0.851271
-0.200201
-10.326
-9.53716
-9.34322
-7.97397
-7.30081
-5.75214
-4.67796
-3.3352
-2.29191
-1.38652
-0.672987
-9.14135
-8.47564
-8.23536
-7.17153
-6.67444
-5.41038
-4.58356
-3.41455
-2.51304
-1.64911
-0.937882
-7.81168
-7.28575
-7.07403
-6.23591
-5.86234
-4.82016
-4.209
-3.19898
-2.46845
-1.68654
-1.0508
-6.24398
-5.92699
-5.8242
-5.18914
-4.92856
-4.08399
-3.65263
-2.77911
-2.23316
-1.53765
-1.00633
-4.96901
-4.70892
-4.64053
-4.1319
-3.9675
-3.26805
-3.00142
-2.21129
-1.87757
-1.25322
-0.835455
-4.00174
-3.69791
-3.60352
-3.15016
-3.04501
-2.4482
-2.2519
-1.69458
-1.37331
-0.902446
-0.581337
-2.91216
-2.66453
-2.6117
-2.22741
-2.1454
-1.69678
-1.5093
-1.09633
-0.851352
-0.50201
-0.276273
-1.98272
-1.74725
-1.70356
-1.36694
-1.30386
-0.953758
-0.801001
-0.485003
-0.323256
-0.0831758
0.0502046
-1.28343
-0.995321
-0.919242
-0.617471
-0.507204
-0.22601
-0.113149
0.111763
0.197048
0.331587
0.375987
-0.518041
-0.238239
-0.162589
0.111109
0.229109
0.460495
0.545076
0.684863
0.695818
0.724772
0.681141
0.161947
0.450457
0.538475
0.798707
0.922033
1.11302
1.1717
1.22677
1.15932
1.08241
0.951119
0.760679
1.06128
1.17738
1.43421
1.57587
1.73701
1.76249
1.72525
1.57101
1.39246
1.18263
1.30717
1.62397
1.78528
2.0338
2.20685
2.3345
2.30075
2.15547
1.90776
1.64028
1.36698
1.848
2.17822
2.39769
2.65805
2.83602
2.88591
2.74225
2.47128
2.13567
1.80791
1.49971
2.24314
2.75665
3.05418
3.30936
3.41947
3.31616
3.01944
2.63206
2.24342
1.91665
1.72907
3.61787
3.82875
4.03318
4.04618
3.79846
3.40008
2.92467
2.46396
2.07286
1.76773
1.60424
21.3318
19.4032
16.2856
13.2816
10.6567
8.51065
6.82693
5.51523
4.49331
3.70274
3.14084
6.10515
11.544
12.2165
11.7654
10.2595
8.50411
6.86432
5.48836
4.3949
3.56993
3.01037
-7.66229
0.786193
3.78654
6.4896
7.26076
6.88981
5.93784
4.91201
3.96807
3.22049
2.70657
-14.8192
-7.69655
-4.77368
-0.373367
2.20285
3.62055
3.76396
3.5274
3.03737
2.54886
2.21495
-17.2415
-12.3597
-10.4442
-6.01005
-2.92233
-0.436688
0.931393
1.54532
1.6747
1.59594
1.51473
-17.5418
-14.1634
-13.1225
-9.42904
-6.70909
-3.93213
-1.94349
-0.646522
0.0754857
0.4524
0.677111
-17.0768
-14.537
-13.9875
-11.0197
-8.95741
-6.32599
-4.26209
-2.60901
-1.47645
-0.725954
-0.208684
-16.2402
-14.2641
-14.0105
-11.4892
-10.0835
-7.67551
-5.83517
-4.0935
-2.76311
-1.76614
-1.0429
-15.4538
-13.749
-13.7161
-11.3695
-10.5276
-8.28962
-6.74541
-5.04829
-3.68422
-2.56371
-1.70352
-14.8002
-13.2517
-13.2058
-11.125
-10.4234
-8.50397
-7.1438
-5.55007
-4.24364
-3.09225
-2.18526
-14.1494
-12.9093
-12.4728
-10.8765
-10.0331
-8.41057
-7.19247
-5.70283
-4.49289
-3.35444
-2.45674
-13.2913
-12.2865
-11.727
-10.3974
-9.5328
-8.0818
-6.98104
-5.58871
-4.49358
-3.40171
-2.52862
-12.4713
-11.5106
-10.95
-9.73604
-8.91036
-7.57494
-6.5735
-5.2905
-4.27663
-3.27386
-2.46682
-11.7202
-10.7052
-10.1333
-8.97303
-8.17486
-6.92942
-5.99968
-4.83824
-3.90704
-3.00662
-2.26791
-10.7528
-9.76994
-9.23041
-8.12285
-7.33972
-6.17558
-5.29431
-4.25595
-3.41169
-2.62317
-1.9767
-9.75333
-8.77439
-8.25172
-7.18605
-6.40787
-5.31835
-4.48449
-3.55489
-2.80925
-2.14799
-1.62212
-8.76111
-7.74674
-7.20766
-6.16733
-5.37827
-4.36357
-3.56427
-2.7498
-2.1206
-1.60193
-1.20868
-7.67627
-6.62991
-6.06552
-5.04715
-4.23495
-3.29244
-2.54196
-1.86115
-1.3709
-1.00798
-0.748189
-6.48407
-5.40003
-4.79524
-3.79528
-2.95751
-2.09186
-1.43135
-0.913759
-0.591335
-0.399447
-0.290022
-5.18359
-4.03883
-3.36637
-2.38065
-1.53261
-0.775578
-0.259636
0.0532392
0.177735
0.190489
0.14699
-3.7245
-2.48659
-1.72583
-0.774203
0.0263665
0.613963
0.911366
0.977306
0.887384
0.730783
0.559341
-2.03387
-0.660879
0.169027
1.00336
1.63365
1.95171
1.95835
1.75956
1.4719
1.18069
0.915676
-0.00741921
1.47129
2.26828
2.81871
3.11011
3.07405
2.77542
2.35447
1.92911
1.55431
1.21744
2.08081
3.53449
3.98506
4.00204
3.84239
3.48963
2.99939
2.50542
2.05375
1.66788
1.45122
-1.68146
-1.25912
-0.9921
-0.903808
-0.910002
-0.932872
-1.3534
-2.06061
-2.20955
-1.34673
-1.11138
-0.964558
-0.905677
-0.912414
-0.921486
-1.13929
-1.60019
-1.64758
-1.24878
-1.04969
-0.918959
-0.882453
-0.886475
-0.895348
-1.07942
-1.47306
-1.51082
-1.11339
-0.965596
-0.848801
-0.83993
-0.862661
-0.861923
-1.00902
-1.30793
-1.29531
-1.80395
-1.47919
-0.699115
0.181015
0.751616
0.767282
0.348405
-0.427835
-1.51457
-1.41339
-1.10839
-0.560556
0.135205
0.599573
0.614051
0.253854
-0.349348
-1.12763
-1.30641
-1.09009
-0.523431
0.07155
0.467735
0.47523
0.156815
-0.33152
-1.04718
-1.13358
-0.880179
-0.493956
-0.000106548
0.34224
0.367981
0.0810971
-0.324676
-0.905626
0.894371
1.02711
1.02599
-0.622956
-0.672839
1.07976
-0.816099
1.02939
1.08025
1.03323
-0.686648
1.02942
-0.472975
-0.253594
0.890988
0.866521
-0.0915374
-0.636702
0.867091
0.908547
0.763715
-0.627344
0.951341
-0.151996
1.02712
-0.249988
-0.46525
-0.801732
-0.161932
-0.625183
-0.0908193
0.382203
-0.111183
0.92478
0.377511
1.03234
-0.143371
1.0304
-0.113068
1.0534
-0.280268
0.928276
-0.292994
0.953654
-0.780125
-0.526344
-0.67611
-0.898633
0.572057
1.07759
-0.608317
1.05254
0.00526404
-0.31866
1.07418
0.757787
-0.61756
1.04626
-0.152733
-0.299027
-0.016735
0.0035113
-0.7277
-0.718478
-0.345227
0.907088
-0.284475
1.10127
1.03128
1.02501
-0.219942
1.18023
-0.593033
1.2625
-0.38199
1.15243
-0.58414
0.935689
-0.734022
-0.847713
-0.131656
-0.705255
0.922227
0.928748
-0.121464
-0.603452
-1.00888
0.019258
-0.645381
-0.0474266
1.04463
1.04412
-0.287405
1.1749
-0.789606
-1.1172
-0.455524
-0.383885
-0.610473
1.20533
0.0782703
-0.922215
0.898422
0.0630099
-0.58517
1.04994
-0.0159205
0.923292
-0.043487
0.525233
0.965086
0.925997
1.14437
-0.578323
-0.74381
0.912772
1.05032
0.937502
1.04483
0.818766
-0.571821
1.26181
0.16526
-0.114911
-0.505391
-0.44795
-0.0709932
-0.0171615
-0.00945372
-0.0348205
1.0094
-0.316127
-0.890421
1.15815
1.04078
-0.170305
-0.565085
-0.673922
-0.621027
0.581073
-0.215421
0.742205
-0.776985
0.622393
1.04793
-0.524145
-0.339937
1.10399
1.13157
1.00636
1.04466
1.07207
-0.510279
1.24455
-0.587568
-0.347378
-0.757428
-0.62344
-0.122416
0.959969
-0.373349
-0.574044
1.16945
0.969127
-0.28045
-0.0964789
-0.671724
1.09301
-0.386202
-0.353834
-0.0986742
-0.0399133
-0.353629
0.608085
0.403813
0.376869
-0.0119512
-0.511136
-0.800561
0.407763
1.09777
-0.615986
1.03633
-0.618123
1.05925
-0.635277
1.06171
0.927407
0.992477
-0.737733
-0.0502078
-0.378057
0.871384
-0.282161
1.03318
1.002
1.09356
-0.610374
-0.0357275
0.918183
-0.518654
1.08862
-0.0901602
-0.128754
1.03764
0.0246258
1.16872
-0.00574303
1.07736
0.887671
-0.069655
0.896674
0.488299
0.429807
0.943827
-0.108213
1.05086
-0.702997
1.07057
-0.536147
-0.0353794
-0.570705
-0.455068
-0.771085
-0.0974788
1.0324
-0.576003
-0.0835159
-0.0425104
-0.751844
-0.615235
0.862589
1.05062
1.26479
-0.504513
-1.28119
-0.0401644
1.03688
1.00322
1.00404
-0.679473
-0.517398
0.0302607
-0.312874
1.12116
-0.597442
0.920203
-0.185401
-1.08721
-0.0869295
-0.17501
-0.0698743
0.314211
0.969317
0.0337773
1.09026
0.81506
1.03177
-0.525009
1.06844
-0.0104978
-0.314625
0.875975
0.946543
0.96441
-0.655618
0.723459
1.05563
-0.271614
-0.207425
-0.671606
1.04127
1.09376
-0.669925
1.07276
0.931626
-0.145387
1.06395
0.643604
-0.584391
1.19622
1.04037
-0.119083
-0.0127845
0.0798649
1.04821
-0.838508
1.01297
0.583363
-0.165604
0.989865
-0.810472
0.833114
-0.314575
1.03006
1.07596
-0.393203
0.962761
0.411654
-0.172633
1.06214
-0.567193
0.499356
-0.632934
0.829425
0.483257
0.942728
-0.0165057
-0.603801
1.01118
-0.718168
1.05083
0.402398
-0.0812898
-0.667036
0.689897
-0.469594
-0.643013
0.775693
1.20385
1.0514
-0.0852447
0.906853
-0.3137
-0.699156
0.969898
0.928284
-0.445541
0.856441
-0.0955901
1.09817
-0.717716
-0.543569
1.04564
-0.47387
-1.17298
-0.726228
0.946582
1.05962
-0.35992
-0.415012
-0.038055
1.0941
-0.138984
-0.670844
-0.0272696
-0.582467
0.925819
-0.214575
-0.0809817
-0.729292
-0.384346
-0.173287
0.849318
-0.0822646
0.918082
-0.0313507
0.558237
0.947734
-0.0965804
-0.195936
-0.299955
1.04902
0.919791
1.11207
-0.658083
-0.0377727
-0.279254
-0.771979
0.297876
1.06312
-0.636482
-1.14511
-0.115752
-0.186395
0.988327
0.0184543
0.3617
1.05217
1.00041
-0.0218033
1.01521
-0.52167
1.0285
-0.371426
-0.0726669
-0.55229
-0.0963624
-0.508757
-0.66321
1.07147
-0.68584
-0.0355819
1.30941
-0.0637668
-0.341066
0.947895
0.995647
1.03841
-0.660557
-0.531557
0.911044
1.04516
-0.129498
-0.0144451
-0.335935
-0.734944
-0.0583806
1.08601
-0.080187
1.23438
0.863262
-0.0924413
-0.0893036
-0.544348
0.331074
-0.0529269
1.26852
-0.0412193
-0.695852
-0.636174
-0.0464239
-0.825133
-0.0226359
0.359836
0.564854
1.25134
-0.0253229
-0.280858
-0.381899
0.914952
-0.561352
-0.385521
0.746544
-0.183664
-0.0576919
-0.463303
-0.622397
-0.120006
0.908118
-0.104893
-1.08452
-0.613371
-0.554403
1.1313
-0.104257
-0.134302
-0.527024
0.990977
-0.583381
1.06898
0.929014
1.05344
-0.686395
-0.349673
-0.763546
-0.106097
-0.574738
-0.0133889
0.969757
0.999965
-0.0784461
-0.12683
0.000993948
1.26882
-0.0147849
-0.0195828
0.912814
0.896167
1.09871
0.356064
-0.527578
0.987865
-0.035026
1.18828
0.990083
1.03511
0.890521
-0.571185
1.05551
0.945578
0.793809
-0.742843
-0.604431
0.946738
-0.535322
-0.715644
0.653699
-0.0961858
0.931096
-0.491148
1.01207
1.19785
1.03161
-0.00450974
-0.124729
0.875348
-0.374049
0.424979
1.06623
-0.420199
-0.446394
1.05246
0.940706
-1.0641
-0.0206294
-0.518421
1.101
-0.862514
0.906844
-0.242946
-0.121053
-0.663544
-0.0996298
0.0855107
-0.0657376
-0.639145
-0.3656
0.915768
-0.338043
0.757357
1.04121
1.06259
0.990118
1.00804
-0.0434806
1.03461
0.93638
-0.437642
1.06109
-0.512207
-0.00735785
-0.0138531
-0.220394
-0.66068
1.01171
1.04937
1.03953
-0.32215
-0.566479
0.919003
0.975364
-0.108052
1.04702
-0.638469
1.04787
-0.0887034
0.642253
-0.647133
-0.169358
-0.0459048
-0.56027
-0.228552
0.836444
0.69166
1.10129
0.980816
-0.0516274
-0.596679
0.836851
-0.0920953
-0.697078
-1.02258
1.03701
1.10479
1.04885
-0.15896
-0.0192553
-0.0287153
1.05233
1.03074
-0.00452028
1.15342
-0.37377
-0.0186471
-0.0557409
-0.717181
0.9721
-0.0322038
1.0489
-0.625838
1.10914
-0.397158
-0.0151831
0.443656
-0.660999
-0.0942951
1.02634
0.93301
-0.765173
0.963772
-0.358536
-0.586664
-0.652191
-0.209092
-0.402637
-0.482001
1.03411
1.04879
1.05948
-1.10631
-0.633135
-0.195768
0.894517
1.03661
-0.72596
1.07053
1.18686
1.13042
1.1484
-0.467044
-0.575689
-0.626911
-0.250242
0.203595
0.33664
0.960755
-0.212264
1.14194
1.06071
-1.10264
-0.0142811
0.892147
0.993727
-0.544654
0.886303
0.985639
-0.063601
1.04791
0.855322
-0.5299
-0.294023
-0.106574
-0.0470186
-0.0492537
-0.712831
-0.0934304
-0.130915
-0.31667
-0.394299
-0.667055
-0.698988
-0.160243
0.908358
0.958743
-0.694217
0.190848
0.98844
0.586758
-0.394932
-0.252557
-1.05533
-0.351977
0.00244832
0.936106
0.285179
1.01952
0.9908
0.793968
-0.481831
1.08809
1.10411
1.0706
0.979206
-0.565914
-0.0485979
-0.747083
1.14297
1.09395
0.564274
-0.00749573
1.20089
-0.774439
1.15411
-0.382167
-0.035422
0.957723
-0.0144773
0.97108
-0.116099
-0.631868
-0.462318
-1.07541
-0.359574
-0.0816633
0.922958
-0.0177706
-0.133598
-0.681968
-0.0716036
0.918236
0.372514
0.9272
-0.212435
1.00553
-0.504178
1.05243
1.06119
1.0442
-0.460409
-0.535599
1.021
-0.0154261
1.08543
-0.0784918
-0.128581
0.624816
-0.599215
-0.336976
-0.246286
0.103537
-0.452739
-0.478739
-0.214727
-0.0854748
-0.810659
0.914049
-0.457734
0.995503
1.1078
-0.710245
-0.259993
-0.499241
-0.233802
1.14821
0.836541
0.803254
-0.746775
0.972768
0.0243147
-0.126665
-0.080113
0.650945
-0.0370842
-0.208109
-0.211611
1.26235
-0.502061
-0.509279
-0.623046
0.971286
-0.313895
-0.737165
1.03998
-0.568036
-0.0472809
1.2475
-0.405882
1.02986
1.19629
0.776606
-0.0630904
1.20889
-0.128192
1.04951
-0.129077
1.14961
-0.31694
-0.031831
-0.0177559
-0.0309314
0.917239
-0.470313
-0.628558
0.945265
-0.125958
0.0518475
-0.167885
0.291926
-0.612571
1.04337
-0.749922
-0.190013
0.291046
0.976307
-0.152992
0.936013
-0.55558
-0.469236
1.02776
1.04268
0.100875
-0.715904
-0.0728389
-0.483537
1.02677
-0.470108
0.63035
0.920577
0.994426
1.0458
0.99549
1.11435
-0.0275238
-0.685212
-0.618686
-0.0442913
-0.228766
1.03279
1.01447
-0.109545
-0.0499256
1.04143
-0.141535
-0.325591
-0.843931
-0.0664807
-0.202927
0.25513
-0.758752
1.02867
1.00727
-0.524111
0.831708
1.02941
0.533549
-0.0195901
-0.13149
-0.108752
1.03763
-0.380278
-0.357341
-0.609388
1.02657
-0.0235592
-0.0844188
-0.560581
-0.765711
0.948147
0.974484
-0.608341
-0.56537
-0.177699
0.927941
1.063
1.21838
1.11207
1.01977
-0.307115
-0.302496
-0.533249
-0.840741
-0.124559
1.05029
-0.737042
0.97125
1.15021
0.137135
1.01376
1.07333
1.04849
-0.633168
-0.0135084
-0.375973
1.0722
-0.732134
1.05232
1.04336
1.10669
0.999507
0.611113
0.953919
1.04607
1.13383
-1.39947
0.940565
0.932548
-0.232357
-0.784431
1.08774
1.05176
-0.684129
-1.38574
1.11331
-0.172992
-0.490178
-0.744547
0.980011
1.02558
0.940051
0.590822
-0.0205784
1.01118
-0.424612
-0.336775
-0.0864514
-0.214908
0.961773
-0.321444
0.866925
0.958412
1.2604
1.08929
0.937369
-0.391827
-0.509339
0.0916355
-0.214208
-0.0615141
-0.217684
0.16808
-0.716741
0.933462
0.961401
-0.0296239
-0.0347389
-0.350123
1.06126
-0.717137
1.14113
-0.511389
1.01544
-0.0341314
-0.0585267
-0.575092
-0.171998
0.90826
1.02727
-0.0478353
-0.557514
-0.00610151
-0.175604
-0.503114
0.698443
0.788442
-0.0903738
1.0863
1.04183
-0.355127
-0.394905
-0.688062
-0.495462
-0.0216346
-0.298561
-0.122255
-0.963491
0.936722
0.715892
-0.0714688
0.958721
0.347265
1.0618
-0.0788428
-0.257705
-0.058831
0.961226
-0.196353
1.04373
1.04755
-0.0581412
-0.587245
1.04575
1.06198
1.13562
-0.279884
-0.268984
-0.691959
0.308889
0.933537
-0.275939
-0.684198
-0.658964
0.935189
-0.0573654
-0.135134
1.04574
-0.0308809
0.572486
-0.435294
-0.195935
0.169547
-0.48697
0.658102
1.09438
-0.584285
-0.0861212
1.08537
-0.0620937
1.04338
-1.26522
-0.0134448
-0.970527
1.02766
-0.0429239
-0.606269
-0.630519
-0.0493854
-0.0629362
0.920621
-0.0101984
-0.760142
0.940715
0.453292
-0.300286
-0.619828
-0.0458336
-0.286717
1.05173
1.00167
-0.60343
1.16386
-0.329744
-0.255705
-0.00665268
-0.0427153
1.01981
-0.562643
-0.592419
-0.0564581
-0.0799242
-0.111149
1.03474
-0.38139
-0.047495
0.963706
0.658182
1.04065
-0.423157
0.666319
1.04531
-0.415568
-0.0461958
-0.135725
0.966079
-0.734467
-0.437075
0.653868
-0.412274
0.916628
1.04409
0.559605
-0.836958
1.14343
-0.0743223
0.196482
-0.605198
0.95365
0.776995
0.926348
0.934165
-0.518026
-0.266324
-0.134072
-0.77719
-0.424568
-0.9035
0.968796
0.497374
-0.572484
0.949416
-0.118954
-0.0161849
0.481564
-0.096822
-0.409176
-0.160567
1.07767
-0.0828162
0.938419
-0.0223784
0.970141
-1.03376
-0.402286
1.2798
-0.688061
-0.109623
0.975622
-0.311555
-0.0947396
-0.228978
-0.0616755
0.275238
-0.77926
-0.0296822
-0.585363
-0.562606
-0.170218
1.04639
-0.44063
1.09511
-0.343643
-0.275483
-0.622593
0.220302
-0.606696
-0.75357
0.958148
1.09771
1.05833
0.970154
-0.285475
-0.321984
1.07742
-0.253172
-0.592566
1.09925
-0.715812
-0.750392
-0.210498
-0.182753
-0.449484
-0.65703
-0.0413932
-0.0581596
0.964473
0.986961
-0.0857955
0.997104
1.04269
-0.337458
0.920587
1.1404
-0.140111
1.27795
-1.1655
-0.0874208
-0.780098
0.974434
-0.379045
-0.234769
-0.313106
-0.65052
0.936456
-0.277237
-0.692208
-0.21561
-0.00962524
0.855572
-0.0492738
0.833936
-0.634767
-0.0680807
0.618225
0.985858
-0.522165
-0.0106375
-0.477407
-0.590479
-0.170601
1.03701
1.03956
0.99502
-0.112049
-0.0405602
-0.135384
-0.553535
-0.83536
1.26687
0.244162
0.85999
1.05036
-0.568923
0.929049
1.11248
-0.160444
-0.235378
-0.898888
-0.746334
0.969965
0.897868
-0.0541396
-0.744352
-0.0486086
-0.902222
-0.230704
1.05051
1.06694
-0.338824
-0.0944977
-0.0491415
-0.389626
1.09771
-0.26115
-0.178102
-0.699103
0.93832
-0.354909
-0.7771
0.557712
-0.36666
0.988274
0.959566
-0.75577
-0.177547
-0.302843
0.709319
0.501027
-0.0414865
-0.62791
-0.579652
-0.481792
-0.692372
-0.284322
1.05505
-0.855796
-0.650477
0.981294
-0.011993
-0.279912
0.743665
-0.0612126
0.963783
1.06021
1.11052
-0.355259
-0.00601827
0.916265
-0.651199
0.964066
0.943468
0.920002
-0.130186
0.916479
-0.0879366
-0.403326
0.984275
-0.76433
-0.683958
-0.130987
-0.563953
-0.226672
-0.426615
-0.0151392
1.03434
0.951365
1.06114
-0.214603
0.917957
1.02338
-0.285701
-0.574897
-0.480214
-0.167207
-0.00828674
0.528645
-0.662898
-0.406911
0.906628
-0.0080048
0.879328
-0.046236
0.785485
-0.134144
0.772145
0.940853
1.04878
-0.561655
-0.0451029
0.692347
-0.1088
0.90336
-0.0527252
-0.0895661
-0.516894
-0.483484
0.969157
0.885172
-0.116917
-0.23846
-0.0866646
-0.0180192
-0.532605
-0.114793
0.973051
-0.731899
-0.0453259
0.848467
-0.636557
-0.662413
-0.364251
-0.608319
-0.639933
-0.00677396
-0.776647
-0.290363
0.912925
1.09639
-0.115053
-0.253114
0.0124314
0.938347
-0.338333
1.03364
1.24289
-0.682012
0.925201
1.02208
-0.82903
-0.546003
1.09068
0.907329
1.07608
0.930246
0.968926
1.15609
-0.483553
-0.0390874
0.891138
1.05444
-0.546562
0.98633
-0.188938
1.06486
0.83988
1.02475
-0.386263
-0.745312
-0.108848
0.934288
0.956175
-0.304259
-0.043579
0.962023
-0.285077
-0.21549
1.10385
-0.292632
-0.218742
-0.577453
-0.373942
-0.522156
1.01923
-0.579932
1.0605
0.771842
1.21656
0.320133
0.992383
-0.154129
1.18557
-0.678218
1.05431
0.988599
-0.692912
0.953546
1.01323
-0.610259
-0.0777923
-0.537031
1.03017
0.726074
1.0613
-0.18342
-0.0456311
-0.515374
0.38702
-0.454159
-0.37646
0.988269
0.894423
1.15773
0.633258
-0.76205
1.21342
0.024468
1.22686
-0.671963
-0.12909
-0.311223
-0.394998
0.606937
0.0905138
1.03466
-0.231505
-0.612397
0.963608
0.985448
-0.33397
0.905413
1.06962
0.983356
-0.443861
1.03892
-0.498397
-0.591472
-0.190346
-0.133874
0.900309
-0.442308
0.57532
-0.898113
-0.495884
0.351427
-0.0786242
0.911419
0.953431
0.901092
0.875063
-0.075989
0.772508
1.15419
-0.0463827
-0.584332
1.01331
0.667466
-0.759373
-0.0670678
0.933631
-0.0899188
1.02638
1.26957
-0.162312
1.00202
-0.289393
-0.21289
0.745354
1.04564
-0.356353
-0.498277
0.92158
-0.0336671
1.05445
1.20878
-0.274828
0.755927
-0.341426
0.973105
1.17253
-0.603779
0.601152
1.12832
-0.722529
0.833267
1.08952
1.18499
1.12517
0.316947
0.113761
-0.623276
-0.380173
-0.655374
1.09107
1.07285
-0.515618
-0.00928816
0.786631
0.596282
-0.304177
1.10679
-0.0672813
1.02169
-0.197509
1.08723
0.935627
-0.0551309
-0.492068
-0.15836
1.03915
0.955709
0.853155
0.893399
1.01072
-0.681055
-0.562565
-0.59639
-0.459616
-0.349864
0.798852
1.01203
1.03279
-0.76402
0.89201
-0.171151
-0.913443
1.03456
-0.0931354
-0.544498
1.16314
0.922172
0.212021
-0.444402
-0.223642
1.11657
-0.201577
-0.0520222
-0.533614
-0.0280793
-0.223697
0.973076
-0.12766
-0.292578
-0.731817
-0.403085
-0.499162
-0.0272793
0.993811
0.958669
-0.460726
1.04257
-0.207234
-0.123157
-0.0572079
-0.393489
-0.116634
-0.522381
-0.187023
-0.0287556
1.06278
-0.0698755
-0.245373
0.00201959
-0.229958
-0.575202
0.970792
-0.792629
1.06353
-0.026257
-0.97319
-0.369935
-0.398611
-0.757014
-0.0714844
1.10535
1.21315
1.00507
1.02473
1.03051
0.280018
1.11363
-0.494413
1.17957
-0.0779461
-0.553853
0.886203
0.932747
-0.30676
-0.346932
1.0482
0.394847
0.953337
1.27171
0.176459
-0.424237
0.997435
0.864211
0.832451
0.914986
1.22975
1.0465
-0.20287
-0.529527
1.05831
-0.0744612
1.03917
0.893285
0.513822
1.0591
-0.419464
0.888669
1.01106
1.02946
0.901704
-0.042775
1.08466
-0.0200707
-0.502429
-0.746373
-0.288946
-0.210587
-0.123084
-0.049632
-0.267992
-0.0816753
-0.0420112
0.951778
-0.426961