/*--------------------------------*- C++ -*----------------------------------*\
| =========                 |                                                 |
| \\      /  F ield         | OpenFOAM: The Open Source CFD Toolbox           |
|  \\    /   O peration     | Version:  3.0.1                                 |
|   \\  /    A nd           | Web:      www.OpenFOAM.org                      |
|    \\/     M anipulation  |                                                 |
\*---------------------------------------------------------------------------*/
FoamFile
{
    version     2.0;
    format      ascii;
    class       volScalarField;
    location    "0.942589";
    object      nut;
}
// * * * * * * * * * * * * * * * * * * * * * * * * * * * * * * * * * * * * * //

dimensions      [0 2 -1 0 0 0 0];

internalField   nonuniform List<scalar> 
21246
(
3.22546e-05
9.32107e-05
8.62123e-05
8.87217e-05
7.73568e-05
6.10287e-05
4.85692e-05
4.12226e-05
3.63258e-05
3.23684e-05
2.8695e-05
2.73263e-05
8.41458e-05
6.37973e-05
9.04035e-05
8.39772e-05
6.5055e-05
4.91863e-05
3.99802e-05
3.42075e-05
2.9797e-05
2.59362e-05
2.72233e-05
7.1834e-05
6.00756e-05
7.27293e-05
8.68192e-05
7.03427e-05
5.13252e-05
3.99901e-05
3.32234e-05
2.83416e-05
2.42644e-05
2.88246e-05
6.39902e-05
5.94549e-05
6.62123e-05
8.01061e-05
7.52778e-05
5.42676e-05
4.08582e-05
3.30814e-05
2.77807e-05
2.36414e-05
3.04682e-05
6.08799e-05
5.92876e-05
6.24943e-05
7.46023e-05
7.94591e-05
5.77116e-05
4.23892e-05
3.359e-05
2.78787e-05
2.3731e-05
3.14558e-05
6.04339e-05
5.93974e-05
5.96462e-05
6.8515e-05
7.8928e-05
6.16504e-05
4.45388e-05
3.4653e-05
2.84725e-05
2.4222e-05
3.18617e-05
6.17882e-05
6.01201e-05
5.7826e-05
6.28349e-05
7.3416e-05
6.4706e-05
4.74757e-05
3.62325e-05
2.94799e-05
2.501e-05
3.18107e-05
6.49178e-05
6.18471e-05
5.72929e-05
5.87481e-05
6.66339e-05
6.47971e-05
5.08683e-05
3.85756e-05
3.09235e-05
2.60983e-05
3.12467e-05
6.91843e-05
6.47527e-05
5.79128e-05
5.61225e-05
6.04946e-05
6.19801e-05
5.34668e-05
4.14739e-05
3.291e-05
2.75523e-05
3.0223e-05
7.40133e-05
6.89622e-05
5.96718e-05
5.4691e-05
5.54694e-05
5.72381e-05
5.39679e-05
4.45306e-05
3.54204e-05
2.93911e-05
2.89905e-05
7.97847e-05
7.47524e-05
6.28344e-05
5.46881e-05
5.21635e-05
5.2457e-05
5.20438e-05
4.6808e-05
3.83535e-05
3.16658e-05
2.77608e-05
8.71845e-05
8.2523e-05
6.76516e-05
5.62435e-05
5.0742e-05
4.89881e-05
4.89501e-05
4.73975e-05
4.12779e-05
3.4396e-05
2.67679e-05
9.60559e-05
9.2618e-05
7.44438e-05
5.93849e-05
5.09062e-05
4.69619e-05
4.59134e-05
4.61624e-05
4.33958e-05
3.74379e-05
2.6208e-05
0.000105781
0.000105273
8.37689e-05
6.44253e-05
5.26138e-05
4.6315e-05
4.3637e-05
4.38151e-05
4.38663e-05
4.02851e-05
2.61406e-05
0.00011756
0.000121059
9.62205e-05
7.17885e-05
5.60743e-05
4.71746e-05
4.26159e-05
4.15711e-05
4.2654e-05
4.20685e-05
2.64872e-05
0.000130913
0.000140086
0.000112657
8.22337e-05
6.16735e-05
4.96454e-05
4.29568e-05
4.01742e-05
4.06145e-05
4.20217e-05
2.69212e-05
0.000143716
0.000161428
0.000133939
9.70181e-05
7.02798e-05
5.41723e-05
4.48639e-05
4.00293e-05
3.88269e-05
4.0322e-05
2.66213e-05
0.000154907
0.000183332
0.000160107
0.000117495
8.3188e-05
6.16504e-05
4.88898e-05
4.15808e-05
3.82238e-05
3.82268e-05
2.55156e-05
0.000162536
0.000202956
0.00018955
0.000144842
0.000102358
7.37295e-05
5.61755e-05
4.55829e-05
3.95859e-05
3.72088e-05
2.35542e-05
0.000164658
0.000216683
0.000217885
0.000178608
0.000130186
9.32429e-05
6.90528e-05
5.37162e-05
4.41555e-05
3.87192e-05
2.0712e-05
0.000156638
0.0002207
0.000239168
0.000215306
0.000168615
0.000124676
9.20891e-05
6.97082e-05
5.47328e-05
4.49856e-05
1.81232e-05
0.00014313
0.000214346
0.000249168
0.000246006
0.000213723
0.000170943
0.000131586
0.000100436
7.74593e-05
6.10199e-05
1.37509e-05
0.000110115
0.00015726
0.000196566
0.00021591
0.000217051
0.000201101
0.000173992
0.000143916
0.000116556
9.34843e-05
1.07269e-05
4.13017e-05
5.64729e-05
7.72587e-05
9.89696e-05
0.000120011
0.000136924
0.000143589
0.000140481
0.000130807
0.000117063
2.66766e-05
8.39709e-05
8.32645e-05
8.27213e-05
7.4816e-05
6.13257e-05
5.08975e-05
4.44392e-05
4.00467e-05
3.65173e-05
3.32752e-05
1.83394e-05
7.2487e-05
8.67007e-05
9.01509e-05
8.25848e-05
6.88719e-05
5.74048e-05
5.01768e-05
4.54665e-05
4.18529e-05
3.85964e-05
1.87208e-05
6.65855e-05
8.65469e-05
0.000105261
9.78908e-05
8.26051e-05
6.81955e-05
5.8999e-05
5.3595e-05
5.00235e-05
4.70761e-05
2.11052e-05
6.25469e-05
8.45602e-05
0.000115604
0.000116764
0.000105576
9.003e-05
7.77836e-05
6.98483e-05
6.47293e-05
6.12624e-05
2.40649e-05
5.84425e-05
8.52437e-05
0.000121261
0.000125135
0.000115312
9.9024e-05
8.60085e-05
7.79348e-05
7.32417e-05
7.04178e-05
2.69407e-05
5.52992e-05
8.62648e-05
0.00012304
0.000129018
0.000121533
0.000105954
9.32048e-05
8.54081e-05
8.13331e-05
7.95723e-05
2.96239e-05
5.31078e-05
8.70156e-05
0.000123119
0.000131006
0.000126086
0.000111662
9.9709e-05
9.25046e-05
8.91743e-05
8.84625e-05
3.21401e-05
5.1627e-05
8.74839e-05
0.000122737
0.000132539
0.000129923
0.000116879
0.000105998
9.96003e-05
9.72105e-05
9.77166e-05
3.43252e-05
5.06086e-05
8.77642e-05
0.000122521
0.000134361
0.000133547
0.000122032
0.000112159
0.000106457
0.000104634
0.000105248
3.61684e-05
4.98347e-05
8.80184e-05
0.000122563
0.000136611
0.000137356
0.000127336
0.000118283
0.000113134
0.000111813
0.000112848
3.76458e-05
4.91331e-05
8.81094e-05
0.000122983
0.000139189
0.000141567
0.000132919
0.000124447
0.000119675
0.00011884
0.000120585
3.8848e-05
4.84329e-05
8.80143e-05
0.000123624
0.000141991
0.000146175
0.000138827
0.00013071
0.000126089
0.000125626
0.000128074
3.97008e-05
4.76091e-05
8.76481e-05
0.000124315
0.000144961
0.000151196
0.000145157
0.000137175
0.000132407
0.000132086
0.0001353
4.00929e-05
4.52855e-05
8.481e-05
0.000122935
0.00014632
0.000155465
0.000151558
0.000143934
0.000138779
0.000138232
0.000141818
3.9961e-05
4.25536e-05
7.94992e-05
0.000118252
0.000143965
0.000156438
0.000156178
0.000150367
0.00014535
0.000144412
0.000147925
3.92711e-05
3.95206e-05
7.19744e-05
0.000109978
0.000137507
0.00015313
0.000157459
0.000155215
0.000151641
0.000150634
0.000153738
3.8012e-05
3.63534e-05
6.28608e-05
9.80935e-05
0.000126547
0.000144737
0.000153601
0.00015615
0.000155951
0.000156203
0.000159185
3.61036e-05
3.32431e-05
5.3353e-05
8.36032e-05
0.00011129
0.000131027
0.000143355
0.000150438
0.00015485
0.000158448
0.000162877
3.34816e-05
3.01801e-05
4.43142e-05
6.80602e-05
9.27131e-05
0.000112407
0.000126538
0.000136501
0.000144545
0.000152148
0.000160031
3.01165e-05
2.70291e-05
3.61818e-05
5.30535e-05
7.26394e-05
9.02216e-05
0.000104235
0.000115037
0.000124222
0.000133375
0.000143471
2.59742e-05
2.3582e-05
2.90316e-05
3.97749e-05
5.33642e-05
6.69362e-05
7.88704e-05
8.87449e-05
9.71386e-05
0.000105068
0.000113527
2.1046e-05
1.95878e-05
2.26275e-05
2.86745e-05
3.67196e-05
4.54472e-05
5.38489e-05
6.13785e-05
6.79686e-05
7.38983e-05
7.9637e-05
1.5368e-05
1.45042e-05
1.60788e-05
1.89747e-05
2.2849e-05
2.72682e-05
3.18339e-05
3.62667e-05
4.04138e-05
4.42393e-05
4.77916e-05
9.28245e-06
9.70579e-06
1.14415e-05
1.35246e-05
1.58774e-05
1.83433e-05
2.09445e-05
2.49131e-05
3.04039e-05
3.73786e-05
4.53702e-05
3.86972e-05
0.000211044
0.000361404
0.000500588
0.000573235
0.000579264
0.00057941
0.00062041
0.000666241
0.00063967
0.000517174
2.8222e-05
0.000120481
0.000234129
0.000356586
0.000452172
0.000492093
0.000502341
0.000552844
0.000624661
0.00061437
0.000494669
2.25438e-05
8.49428e-05
0.000171848
0.000271236
0.000363199
0.000418334
0.00043503
0.000455844
0.000532953
0.000590093
0.00048537
1.78472e-05
7.54198e-05
0.000141025
0.000220806
0.000302316
0.000361427
0.000384895
0.000391538
0.00042997
0.000505085
0.000481234
1.46296e-05
7.85467e-05
0.000128584
0.000191954
0.000261522
0.000318215
0.00034571
0.00034915
0.000361058
0.000406567
0.000434598
1.41905e-05
8.53438e-05
0.000126821
0.000176933
0.000234649
0.000285628
0.000314042
0.000318063
0.000317572
0.000335586
0.00036507
1.4486e-05
8.68438e-05
0.000128492
0.000169844
0.000217192
0.000261142
0.00028808
0.000293239
0.00028812
0.000290174
0.000305517
1.42818e-05
8.65116e-05
0.000126572
0.000165781
0.000205432
0.00024241
0.000266553
0.000272439
0.000266303
0.000260667
0.000264084
1.39128e-05
8.35021e-05
0.000123104
0.000159636
0.000196162
0.000227296
0.000248423
0.000254696
0.000249164
0.000240714
0.000237578
1.34135e-05
7.87775e-05
0.000118357
0.000152188
0.00018695
0.000214451
0.000233215
0.000239961
0.000235974
0.000227677
0.000222493
1.28858e-05
7.35801e-05
0.000113178
0.000145445
0.000178168
0.000203966
0.000221492
0.000229255
0.000227736
0.000221658
0.000217148
1.24241e-05
6.89314e-05
0.000109069
0.000140887
0.000172235
0.000197297
0.00021498
0.000224744
0.000226724
0.000224185
0.000221703
1.19541e-05
6.46262e-05
0.000106377
0.000139481
0.000170835
0.000196362
0.000215937
0.000229054
0.000235378
0.000236502
0.000235362
1.14907e-05
5.99747e-05
0.00010448
0.000140434
0.000173504
0.000201844
0.000225312
0.00024305
0.000253665
0.000256893
0.000254282
1.10843e-05
5.55529e-05
0.000102148
0.000141338
0.000178356
0.000211517
0.000240355
0.000263047
0.000276639
0.000279529
0.000273221
1.06187e-05
5.16253e-05
9.89152e-05
0.000140599
0.000181868
0.000220385
0.000254765
0.000281782
0.000297003
0.00029835
0.000288005
1.0066e-05
4.80736e-05
9.48304e-05
0.000137661
0.000182029
0.000225148
0.000264538
0.000295476
0.000312276
0.00031261
0.000298871
9.36833e-06
4.52677e-05
9.0759e-05
0.000133807
0.000180564
0.000228065
0.00027243
0.000307414
0.000326166
0.000325821
0.0003087
8.53194e-06
4.31935e-05
8.71605e-05
0.000131087
0.000181449
0.000233345
0.000280246
0.000316942
0.000337377
0.000336607
0.000315291
7.54588e-06
4.17463e-05
8.69454e-05
0.000135969
0.000185174
0.000224955
0.000243687
0.000271379
0.000306363
0.000319849
0.000304615
7.05714e-06
5.22467e-05
9.6386e-05
0.000115566
0.000112704
0.000120419
0.000142697
0.000167638
0.000191972
0.000218904
0.000235772
7.61086e-06
4.31929e-05
5.29212e-05
5.27418e-05
7.63593e-05
0.000106424
0.000138669
0.000166363
0.000181545
0.000179697
0.000170071
6.19857e-06
1.70092e-05
3.25716e-05
5.84308e-05
9.34783e-05
0.000134132
0.000174561
0.000208159
0.000227599
0.00022213
0.000188448
8.75409e-06
2.42206e-05
5.39534e-05
9.75087e-05
0.000149744
0.000201982
0.000245658
0.000275221
0.000288237
0.000280914
0.000245637
3.68927e-05
0.000313399
0.000512933
0.000612194
0.000632558
0.000617336
0.000618515
0.000662816
0.000711611
0.000684645
0.000552149
2.1815e-05
0.00023047
0.000466451
0.00060883
0.000659943
0.000658325
0.000659978
0.000708023
0.000775607
0.000770922
0.000641654
1.45577e-05
0.000162915
0.000383285
0.000554348
0.000649886
0.000679396
0.000688727
0.000740059
0.00083202
0.000866545
0.0007586
1.08536e-05
0.000104381
0.000282088
0.00045814
0.000591186
0.000662263
0.000690567
0.000745458
0.000861252
0.000947375
0.000878619
1.16073e-05
7.45824e-05
0.000200554
0.000362035
0.000507533
0.00060851
0.000654976
0.000706745
0.000839334
0.000997273
0.00101393
1.31778e-05
7.67573e-05
0.000179178
0.000308612
0.000446725
0.000559329
0.000610683
0.00062383
0.000714372
0.000919039
0.00106237
1.48095e-05
8.33437e-05
0.000181958
0.000297589
0.000422818
0.000536234
0.000602757
0.000601222
0.000621328
0.000800148
0.00103746
1.64891e-05
9.10917e-05
0.000190426
0.000300441
0.000417771
0.000529952
0.000606608
0.000612995
0.000577529
0.000667927
0.000931104
1.80797e-05
9.97656e-05
0.000201709
0.00030849
0.00041875
0.000527284
0.000610556
0.000631224
0.000580982
0.0005699
0.000778903
1.95174e-05
0.000109258
0.000214294
0.000318675
0.000421591
0.000522877
0.000608096
0.000643096
0.000601181
0.000530844
0.000626018
2.07593e-05
0.000118191
0.000226382
0.000329311
0.000424843
0.000515338
0.00059641
0.000642702
0.000618355
0.000530194
0.000520854
2.18598e-05
0.000126749
0.000239919
0.000339702
0.000427862
0.000505316
0.000575821
0.000628342
0.000623748
0.000540732
0.000471396
2.27588e-05
0.000134362
0.000251095
0.000349133
0.000430139
0.000493892
0.00054873
0.000600273
0.000614824
0.000549793
0.000452354
2.34912e-05
0.000140798
0.000260769
0.000356773
0.000430735
0.000482463
0.000521609
0.00056182
0.00058843
0.000550501
0.000446439
2.39231e-05
0.000146421
0.000268722
0.000362181
0.000429019
0.000469643
0.000495208
0.000522694
0.000548096
0.000534437
0.000449798
2.40438e-05
0.000151409
0.000275774
0.000366433
0.000425945
0.000455672
0.00046856
0.000485296
0.000505353
0.000503696
0.000454528
2.38464e-05
0.000155931
0.000282601
0.000370748
0.000423072
0.00044211
0.000443844
0.000451396
0.000465422
0.000468952
0.000444849
2.3258e-05
0.00016025
0.000290297
0.000377207
0.000422979
0.000431754
0.000424199
0.000422421
0.000428771
0.000431305
0.000417511
2.22137e-05
0.000164427
0.000298792
0.000384136
0.000422976
0.000426687
0.00041238
0.000400704
0.00039783
0.000395678
0.000384961
2.0531e-05
0.000166055
0.000299627
0.000384936
0.000425362
0.000428228
0.000408683
0.000387885
0.000376032
0.000368316
0.000357446
1.78249e-05
0.000156988
0.000287902
0.00037961
0.000426987
0.000432041
0.000409129
0.000380994
0.000361728
0.000349973
0.000340985
1.45454e-05
0.000137222
0.000261335
0.000361886
0.00041882
0.000430093
0.000408469
0.000376679
0.000351656
0.000334989
0.000323019
1.08657e-05
9.84527e-05
0.000222182
0.000327711
0.000392906
0.000413667
0.000400811
0.000372546
0.000345555
0.00032421
0.000302317
7.51286e-06
9.06206e-05
0.000183146
0.000277985
0.000336053
0.000365618
0.000370455
0.000357467
0.000335909
0.000313003
0.000281958
6.0077e-05
0.000335171
0.000426352
0.00046513
0.000484814
0.000498239
0.000507775
0.000510028
0.000496607
0.000456182
0.000393196
3.95408e-05
0.000269779
0.000404828
0.000464465
0.000489419
0.000500822
0.00050416
0.00050054
0.000485662
0.000448985
0.000389898
3.21871e-05
0.000236548
0.000394742
0.000479505
0.000512244
0.000524052
0.000525957
0.000519842
0.000502126
0.000463911
0.00040236
3.05867e-05
0.000197691
0.000363047
0.000477536
0.000527415
0.000540757
0.000538816
0.000529556
0.000511353
0.000476828
0.000417095
3.1006e-05
0.000179924
0.000332553
0.00045082
0.000512179
0.000534648
0.000537633
0.000530985
0.000513127
0.000476537
0.000414427
3.17559e-05
0.000167947
0.00031073
0.000421878
0.000483668
0.000514151
0.000527605
0.000529799
0.000517587
0.000484494
0.000426015
3.26747e-05
0.000157782
0.00029157
0.000394825
0.000456036
0.000491391
0.000512875
0.000523497
0.000517813
0.000488101
0.000429987
3.37425e-05
0.000149654
0.000275322
0.000371154
0.000430323
0.000468176
0.000495534
0.000513573
0.000515105
0.000492088
0.000441524
3.47162e-05
0.00014268
0.000261438
0.00035098
0.000407768
0.000446918
0.000478661
0.000503141
0.00051186
0.000494945
0.000446292
3.54532e-05
0.000135814
0.000248826
0.000333568
0.000388436
0.000428493
0.000463682
0.000493509
0.000508144
0.0004949
0.000444626
3.60828e-05
0.000129197
0.000237287
0.000318355
0.000371837
0.000412723
0.000450781
0.000485023
0.000504271
0.000493861
0.000446702
3.65908e-05
0.000123315
0.000227074
0.000305092
0.000357514
0.000399214
0.000439799
0.000477868
0.000500986
0.000492766
0.00044571
3.68544e-05
0.000117658
0.000217704
0.00029338
0.000345169
0.000387781
0.000430722
0.000472325
0.000499031
0.000492927
0.00044725
3.69084e-05
0.00011168
0.0002085
0.000282694
0.000334424
0.000378156
0.000423417
0.000468467
0.00049872
0.000494795
0.000451519
3.66695e-05
0.000105839
0.000199665
0.000272848
0.000324891
0.000369906
0.000417501
0.00046609
0.000500207
0.00049871
0.000455472
3.61174e-05
9.97862e-05
0.00019076
0.000263403
0.000316163
0.00036265
0.000412607
0.000464941
0.000503563
0.000505011
0.000462173
3.5277e-05
9.14759e-05
0.000178938
0.00025169
0.000305652
0.000353723
0.000406207
0.000463279
0.00050774
0.000513319
0.00047129
3.39572e-05
8.20488e-05
0.000164063
0.000236239
0.00029049
0.000337719
0.000388309
0.000445099
0.000494544
0.000508763
0.000476506
3.21316e-05
7.15118e-05
0.000145755
0.000216224
0.00027015
0.000314815
0.000359472
0.000409375
0.00045711
0.000479452
0.000465047
2.97546e-05
6.01143e-05
0.000123936
0.000190695
0.000243755
0.000285302
0.000321984
0.000359845
0.000397466
0.00042098
0.000423688
2.67491e-05
4.83843e-05
9.95303e-05
0.000159473
0.00021054
0.000249332
0.000278782
0.000303829
0.00032643
0.000341534
0.00034851
2.3057e-05
3.72957e-05
7.51097e-05
0.000124553
0.000170986
0.000207029
0.000231756
0.000247775
0.000257664
0.000261197
0.000260279
1.85235e-05
2.69373e-05
5.22569e-05
8.92279e-05
0.000127411
0.000158997
0.000180732
0.000192857
0.000196936
0.000194116
0.000186453
1.3027e-05
2.48628e-05
4.60743e-05
6.82957e-05
9.13598e-05
0.00011158
0.000126622
0.000135628
0.000138643
0.00013608
0.000128999
5.5469e-05
0.000257038
0.000306331
0.000440377
0.0005077
0.000540648
0.000555297
0.000553709
0.000535082
0.00048604
0.000415771
4.02312e-05
0.000149495
0.000201397
0.000262149
0.000330332
0.000434546
0.00056967
0.000598145
0.000581938
0.00052789
0.00044517
3.58313e-05
0.000107979
0.000163334
0.000210243
0.000263288
0.000332162
0.000508639
0.000632848
0.000631537
0.000578898
0.000490423
3.30984e-05
9.51967e-05
0.000143694
0.000183887
0.000228758
0.000286047
0.000424896
0.000647102
0.000683976
0.000640824
0.000554589
2.9207e-05
0.000100743
0.000136481
0.000169102
0.000206896
0.000257315
0.000372717
0.000602709
0.000729557
0.000706182
0.000617601
2.99053e-05
0.000117901
0.000139975
0.00016258
0.000192242
0.000235937
0.000334779
0.000543544
0.000746325
0.00077088
0.000684751
3.48388e-05
0.000142569
0.000153199
0.000163619
0.000183453
0.00021958
0.000304934
0.000488925
0.000711088
0.000817444
0.000757573
3.95899e-05
0.000174322
0.000176017
0.00017203
0.000180112
0.000207849
0.00028185
0.000443518
0.000659167
0.000810138
0.000810043
4.34139e-05
0.000207236
0.000207224
0.000187644
0.000181706
0.000200023
0.000263849
0.000406082
0.00060536
0.000771814
0.000817445
4.61175e-05
0.000237065
0.000243705
0.000210058
0.000187981
0.000195593
0.000249708
0.000374832
0.000554636
0.000718961
0.000789467
4.7714e-05
0.000258274
0.000280823
0.000238236
0.000198852
0.000194244
0.000238361
0.000347751
0.000507542
0.000660381
0.000739501
4.86646e-05
0.000273001
0.00031513
0.000270176
0.000214072
0.000196073
0.000229864
0.000324668
0.000465196
0.000602224
0.000677411
4.89704e-05
0.000284209
0.00034408
0.000303542
0.000233298
0.000201093
0.000223985
0.000304781
0.000426918
0.000546907
0.000611464
4.86125e-05
0.00029067
0.000366012
0.000336007
0.000256094
0.000209433
0.000220631
0.000287484
0.000391902
0.000494916
0.000548347
4.77148e-05
0.000291857
0.000381533
0.000365302
0.000281369
0.000221138
0.000220184
0.000273151
0.000360393
0.000446871
0.000490375
4.62727e-05
0.000286267
0.000390281
0.000389266
0.000307623
0.000236086
0.000222973
0.000262059
0.000332479
0.000403009
0.000437323
4.40894e-05
0.000276457
0.000389224
0.000405601
0.000332688
0.000253863
0.000229483
0.000254899
0.000308656
0.00036356
0.000389357
4.11137e-05
0.00026195
0.000377811
0.000411539
0.000353488
0.000273469
0.000240382
0.000252988
0.000290212
0.000329364
0.000346538
3.74494e-05
0.000243176
0.000357657
0.000401172
0.000367287
0.000293944
0.000256935
0.000258478
0.000279332
0.000302224
0.000309333
3.31743e-05
0.000220247
0.000329812
0.000374281
0.00036997
0.000316739
0.000282011
0.000274678
0.0002791
0.000284585
0.000279793
2.82904e-05
0.000188412
0.000294196
0.000338768
0.000352752
0.000337673
0.000310774
0.000295401
0.000283515
0.000271741
0.000253767
2.45673e-05
0.000173771
0.000251768
0.00028659
0.000300451
0.000302103
0.000268246
0.000237842
0.000207817
0.000177456
0.000144226
1.55951e-05
0.000102518
0.000117558
0.000105407
9.34219e-05
7.93355e-05
6.90673e-05
6.12274e-05
5.46957e-05
4.91077e-05
4.40257e-05
9.36958e-06
1.06068e-05
1.21048e-05
1.45194e-05
1.80377e-05
2.24179e-05
2.73405e-05
3.22721e-05
3.66288e-05
3.98933e-05
4.16904e-05
1.76867e-05
1.68037e-05
1.55578e-05
1.34999e-05
9.59645e-06
5.56209e-06
6.23748e-06
6.58602e-06
7.67685e-06
0.000112097
7.98911e-05
5.14199e-05
3.29868e-05
2.39443e-05
2.04284e-05
2.72451e-05
2.40097e-05
2.45392e-05
0.000226645
0.00016731
0.000106921
6.42193e-05
4.09178e-05
3.15729e-05
3.86786e-05
3.41562e-05
3.90367e-05
0.000331978
0.000251435
0.000159106
9.34701e-05
5.79473e-05
4.43131e-05
5.1428e-05
4.35558e-05
5.27345e-05
1.82318e-05
1.8246e-05
1.80661e-05
1.81337e-05
1.75373e-05
1.67816e-05
1.57997e-05
1.44022e-05
1.21645e-05
0.000137394
0.000155491
0.000165914
0.000154253
0.000132809
0.00011087
8.0154e-05
5.20053e-05
3.22874e-05
0.000275453
0.000307462
0.000318007
0.000297824
0.000260164
0.000217613
0.00016249
0.000105366
6.13488e-05
0.000394021
0.00043079
0.000435277
0.000415692
0.000375897
0.000318909
0.000238023
0.000152038
8.69386e-05
0.000195653
0.000229708
0.00022976
7.36598e-05
0.00042871
0.000229352
8.89855e-05
0.000229458
0.000229415
0.000233851
0.000422873
0.000229509
0.000118764
0.000187582
0.000123834
0.000228721
0.000159675
7.37428e-05
0.000228714
0.000228581
0.000229695
2.96436e-05
0.000229985
0.000256975
0.000229343
0.000191287
0.000126482
8.93271e-05
0.000455003
0.000556873
0.000141655
0.000235974
0.000114338
0.000229424
0.000241065
0.000229668
0.000243615
0.000229341
9.64e-05
0.00022936
2.12294e-05
0.000229463
0.000105117
0.000229962
0.000441456
5.85677e-05
5.16035e-05
0.000108967
0.000239949
0.000229351
0.00055498
0.000229331
0.000285721
0.000104987
0.000229315
0.000229475
2.9162e-05
0.000229331
0.000445991
9.29779e-05
2.45385e-05
0.000236464
0.000487915
0.000161929
2.88466e-05
0.000228558
0.000658734
0.000229972
0.000229711
0.000233266
0.000189834
0.000234046
6.05659e-05
0.00024619
0.000133803
0.000232217
2.28229e-05
0.000229693
0.000137664
0.000470082
0.000686434
0.000138029
0.000229274
0.000229787
0.000247381
6.13052e-05
0.000382076
0.000176954
4.52546e-05
0.000280369
0.000229481
0.0002293
2.31441e-05
0.000233647
0.00047231
0.000130205
9.69938e-05
0.000237404
4.38606e-05
0.000237365
0.000253366
0.000112378
0.000230099
0.00023662
4.88822e-05
0.000229504
0.000181632
0.000229868
0.000110113
0.000236322
0.000229344
0.000229517
0.000231084
7.01642e-05
7.60112e-05
0.000229038
0.000229404
0.000228887
0.00022927
0.000229195
6.77468e-05
0.000242883
0.000261193
0.000188394
5.35226e-05
0.000214177
0.000914754
0.000176903
0.000140739
0.000117485
0.000229251
9.22306e-05
0.000108786
0.000232721
0.000229783
0.000231299
2.32749e-05
0.000104767
0.000549787
0.000244806
0.000108297
0.000231424
0.000242831
0.000167933
0.000229406
3.885e-05
0.00010892
0.000229805
0.000235984
0.000228947
0.000228944
0.000229179
4.04467e-05
0.000242318
7.4655e-05
5.90024e-05
6.79012e-05
3.03847e-05
0.000170338
0.000228833
0.000217255
4.83442e-05
0.000233562
0.000229159
0.000675686
0.000116621
5.67631e-05
0.000243236
0.000236169
2.7965e-05
0.000146172
0.000159777
0.000224519
0.000229614
0.00023522
0.000220407
0.000154744
3.9465e-05
0.000438828
0.000199792
0.00022952
2.70675e-05
0.000229938
0.000145462
0.000229278
0.00010676
0.000229098
0.000228823
0.000229639
0.000173163
0.000109194
0.000198147
0.000228531
2.02905e-05
0.000229746
0.00022904
0.000229542
4.39746e-05
0.00011457
0.000230001
3.36709e-05
0.000229449
0.000109985
0.000138693
0.00022983
0.000183888
0.000232739
0.000140844
0.000229446
0.000228713
0.000326755
0.000228998
0.000175378
0.00023897
0.000229285
0.000137843
0.00022937
5.0613e-05
0.000229073
8.26547e-05
7.41234e-05
6.61433e-05
9.7602e-05
7.51951e-05
0.000191778
0.000229334
0.000109683
0.000117024
0.000110335
0.000310144
3.3171e-05
0.000228499
0.00022898
0.000244185
3.93859e-05
0.000246833
0.000680922
0.000229891
0.000229536
0.000229487
5.10114e-05
0.00019474
0.000236736
1.75497e-05
0.000236
4.97389e-05
0.00022936
0.000140124
0.000196274
0.00086272
0.000139968
0.000327449
0.000247964
0.000228629
0.000234055
0.000229515
0.000229434
0.000229299
4.56065e-05
0.000229212
0.000123305
0.000187192
0.000228196
0.000229588
0.000229341
5.1951e-05
0.000231883
0.00023369
0.000159544
0.000179801
0.000195417
0.000229097
0.000229452
5.13697e-05
0.000229053
0.000228924
0.000183583
0.000229164
0.00023845
4.82982e-05
0.000235911
0.000229759
0.000686619
0.000643388
0.000233639
0.000229053
0.000346449
0.000229681
0.000238176
0.000104473
0.000229811
0.000100778
0.000247703
8.05883e-05
0.000229999
0.000229484
0.000236822
0.000229553
0.000240652
0.000186512
0.000229179
5.95862e-05
0.000242779
0.000554716
0.000229348
0.000236467
0.000229693
0.000282839
2.6509e-05
0.000229193
5.56803e-05
0.000229561
0.000234169
0.000118069
2.68475e-05
0.00023154
0.000172415
6.37499e-05
0.000228759
0.000238741
0.000229019
0.000566034
0.000228947
0.000192524
0.000114401
0.000236119
0.000229182
0.000207816
0.000228209
0.000520738
0.000231752
0.000487115
2.01614e-05
0.000229954
9.79022e-05
0.00023643
6.64358e-05
0.000229644
0.000229234
0.000238717
4.83744e-05
0.000311882
0.000229397
0.000109537
0.000192611
0.000284192
8.53387e-05
0.000229039
0.000206609
0.00095507
5.71135e-05
0.000236523
0.000179878
0.000229315
0.000106151
0.000230037
7.19147e-05
0.000206748
0.00022996
0.000618798
0.000136133
0.000185703
0.000229397
0.000229327
0.000229657
5.09887e-05
0.000168387
5.76381e-05
6.4145e-05
0.000258119
0.000229163
0.000114502
0.000227785
0.000192605
0.000112936
0.000229775
0.000152658
0.000240983
0.000228997
0.00022889
0.000556603
0.000228977
3.72349e-05
0.000229305
0.00019804
0.000689084
5.93281e-05
0.000191492
0.000193509
4.74206e-05
0.000229188
4.46691e-05
0.000185472
0.000250571
0.000695335
2.89284e-05
0.000229256
0.000228883
0.000229872
8.27501e-05
4.57684e-05
0.000228991
0.000229994
0.000106472
9.68564e-05
2.47833e-05
0.000105053
0.000144046
0.000229443
0.000567896
0.000238323
0.000228678
0.00011544
0.000117086
4.93929e-05
0.000233985
0.000109271
0.000253831
0.000182407
4.95393e-05
0.000318156
0.00015014
8.38926e-05
0.000110603
0.000227385
0.000235486
0.000245028
7.4331e-05
0.000178614
3.70601e-05
0.000229251
3.75766e-05
0.000208057
0.000228636
0.000231791
6.37999e-05
0.000304172
0.000520562
0.000187736
0.000230038
0.000236701
0.000372112
8.03889e-05
5.92988e-05
0.00023289
6.97402e-05
0.000104305
2.50928e-05
0.000228782
4.08032e-05
0.000229183
0.000229734
0.000229335
5.13995e-05
9.26697e-05
6.34089e-05
0.000148109
3.19049e-05
8.17135e-05
0.000229632
0.000228763
0.000936601
0.000182036
0.000234105
0.000236688
4.14212e-05
4.53085e-05
2.96835e-05
2.93526e-05
0.000231638
0.000211947
5.24479e-05
0.000229166
2.45372e-05
0.000234922
0.000229651
0.000229126
8.05636e-05
3.61931e-05
0.000229006
0.00022918
0.000229753
0.000261417
2.61373e-05
0.000229904
4.12849e-05
0.000356327
0.000156613
6.16247e-05
0.000228737
3.69375e-05
0.000229039
0.000234403
0.000229339
0.000123276
0.000150194
0.000228551
0.000193862
0.000169
0.000233126
0.000223153
0.00020788
0.00022943
0.000229424
0.000234312
6.67256e-05
5.67474e-05
0.000231991
9.84871e-05
0.000229765
0.000454695
0.000104895
4.55416e-05
0.000109633
0.000253187
0.000664381
7.18859e-05
0.000193628
0.000229157
0.000184451
0.000228859
0.000229746
0.00022914
0.000229597
0.000233951
0.000531071
0.000229342
0.000228797
0.000160989
0.000229186
4.1163e-05
0.000241432
0.00023987
0.000176681
4.70494e-05
0.000229995
0.000229295
0.000229936
1.92371e-05
3.61918e-05
0.000229308
0.000229314
0.000188227
0.000229826
7.54223e-05
0.000229773
0.000681848
0.000237134
3.15447e-05
9.11991e-05
0.000131272
6.57083e-05
0.000484162
0.000229384
0.000232001
0.000235511
0.000229755
6.39939e-05
2.45728e-05
0.000223801
0.000126776
0.000145048
9.25743e-05
0.000229347
0.000229749
0.000229723
0.000103473
0.000722639
8.41646e-05
0.000229465
0.000229353
0.000649702
0.000231036
9.62041e-05
0.000134823
0.000168533
0.000299086
0.000229242
8.86784e-05
0.000229269
7.19672e-05
0.000229559
0.000132024
0.000150283
0.000234894
2.7638e-05
0.000136525
0.000229939
0.000229999
0.000464474
0.000229059
0.000183711
9.96318e-05
7.76181e-05
9.9815e-05
4.78077e-05
0.000154169
0.000231446
0.000229226
0.000229239
0.000140682
5.29676e-05
0.000112984
0.000228555
0.000229365
9.04141e-05
0.000229287
0.000236484
0.000236138
0.00023409
0.000109779
5.45628e-05
7.77739e-05
0.000159974
0.000233658
0.000240693
0.00022862
0.000151805
0.000232071
0.000229182
0.000194974
0.00041606
0.000228966
0.000228987
2.31073e-05
0.000230115
0.00022873
0.000147681
0.000229768
0.000234745
9.6193e-05
8.44441e-05
0.000158675
0.000179429
0.000159491
7.07767e-05
0.000414881
7.37313e-05
0.000108781
0.000180258
5.29074e-05
7.09097e-05
0.000129187
0.000229767
0.000230313
0.000113487
0.00023031
0.000229258
0.000244904
0.000208123
0.000105278
0.000188522
0.000193135
0.000247668
0.000229157
0.000206358
0.000229505
0.000228903
0.000236667
7.80142e-05
0.000232135
0.00023267
0.000230908
0.000229691
0.000117763
6.22993e-05
0.000297012
0.000232283
0.000229725
0.000189848
0.000121831
0.000237132
0.000169217
0.000231894
0.00015588
0.000552784
0.000229209
6.6158e-05
0.00022992
0.000118712
0.000130588
0.000106514
0.000164829
0.000215456
0.000246551
0.000229822
0.000100162
0.000182222
4.80966e-05
0.000898451
0.000229011
0.000233861
0.000229808
0.000161144
0.000229647
4.33785e-05
0.000229521
0.000229343
0.000229066
0.000126363
6.44654e-05
0.000229544
0.000129674
0.000229233
0.00011567
0.000170469
0.000231246
0.000109196
1.62662e-05
8.02009e-05
0.000236613
0.000198418
0.000138441
0.000121758
0.00012747
8.60039e-05
0.000229204
0.000149373
0.000229292
0.000231575
5.1776e-05
0.000189652
3.59087e-05
0.000187519
0.000230846
0.000234978
0.000229213
5.57929e-05
0.000229617
0.000947571
9.53248e-05
0.000658089
0.000234464
0.000138826
0.00011062
9.84754e-05
0.000243218
0.000122829
3.78674e-05
6.07573e-05
0.000229403
0.000185777
0.000140841
0.000229502
4.30933e-05
0.000119329
0.000247026
0.000152964
0.000229347
0.00023341
0.000235142
0.000130901
0.00023659
0.000191946
0.000229608
0.000118693
0.000234679
8.43164e-05
6.61281e-05
0.000361636
0.000110428
0.000228811
0.000271835
6.59696e-05
0.000229213
0.000190294
0.000188126
7.31113e-05
0.000247767
2.98806e-05
0.000244548
7.64892e-05
9.11981e-05
0.000254597
0.00022887
0.000247306
0.000229145
7.92324e-05
2.26926e-05
0.00023004
0.000229241
0.00025281
0.000357051
0.000538292
0.000154091
0.000229618
0.000146601
0.000251871
0.000229513
0.000229605
0.000229853
0.000229273
0.000234952
0.000159445
4.46041e-05