/*--------------------------------*- C++ -*----------------------------------*\
| =========                 |                                                 |
| \\      /  F ield         | OpenFOAM: The Open Source CFD Toolbox           |
|  \\    /   O peration     | Version:  3.0.1                                 |
|   \\  /    A nd           | Web:      www.OpenFOAM.org                      |
|    \\/     M anipulation  |                                                 |
\*---------------------------------------------------------------------------*/
FoamFile
{
    version     2.0;
    format      ascii;
    class       volVectorField;
    location    "0.583156";
    object      U;
}
// * * * * * * * * * * * * * * * * * * * * * * * * * * * * * * * * * * * * * //

dimensions      [0 1 -1 0 0 0 0];

internalField   nonuniform List<vector> 
21246
(
(2.42422 5.65985 -1.1011e-18)
(2.15073 3.80138 0)
(2.01294 3.33468 -6.64131e-19)
(1.92117 2.64474 0)
(1.87894 2.09982 -5.34476e-19)
(1.88043 1.67902 4.85607e-19)
(1.90081 1.36074 0)
(1.93015 1.11761 2.85893e-19)
(1.9672 0.928909 -3.77606e-19)
(2.01331 0.781646 6.87298e-20)
(2.06427 0.674363 -4.3014e-20)
(3.44376 4.19871 -4.91072e-18)
(3.32175 1.62966 -5.84542e-19)
(3.37825 2.57854 1.61815e-18)
(3.0474 2.28536 0)
(2.72882 1.98635 -6.2119e-20)
(2.48444 1.66521 1.71831e-19)
(2.32785 1.37162 0)
(2.24023 1.1277 7.79613e-20)
(2.20185 0.933162 6.49128e-20)
(2.20134 0.780691 6.91541e-20)
(2.23121 0.671666 -3.03473e-21)
(2.79132 2.40839 3.00961e-22)
(3.18899 0.011771 -3.38202e-18)
(3.81083 1.40999 2.41877e-18)
(3.65439 1.35462 7.02931e-19)
(3.3595 1.41659 -1.08566e-18)
(3.02655 1.33629 -8.41534e-19)
(2.74939 1.18815 2.14638e-20)
(2.55426 1.02089 -5.00782e-20)
(2.43547 0.864621 -8.10383e-20)
(2.38071 0.733086 -1.67666e-19)
(2.38275 0.640014 0)
(1.64684 1.3648 6.28345e-19)
(2.55404 -0.608999 -6.5695e-18)
(3.55879 0.484367 -2.48299e-18)
(3.65115 0.398939 3.13182e-20)
(3.59255 0.692315 2.19376e-19)
(3.32674 0.805415 7.95428e-19)
(3.04427 0.828008 4.5747e-19)
(2.80399 0.785316 8.40336e-20)
(2.63199 0.709403 -3.2228e-19)
(2.5316 0.627683 3.09434e-19)
(2.50049 0.565153 1.61688e-19)
(0.625942 0.9494 0)
(1.82036 -0.667218 -9.70773e-18)
(2.98425 -0.0518787 6.17627e-18)
(3.29566 -0.251308 8.40486e-19)
(3.47559 0.0772767 6.86201e-19)
(3.34736 0.263397 0)
(3.14609 0.403519 0)
(2.93094 0.472908 0)
(2.75147 0.487793 2.55345e-19)
(2.62962 0.472277 -2.4151e-19)
(2.57346 0.456575 -1.59988e-19)
(-0.185225 0.855292 -1.03687e-17)
(1.15208 -0.515789 1.53165e-17)
(2.35432 -0.298921 -3.20477e-19)
(2.82305 -0.589946 -4.62873e-18)
(3.16383 -0.336167 0)
(3.17078 -0.168935 1.13368e-19)
(3.07622 0.0216804 1.1675e-18)
(2.925 0.156972 -7.69808e-19)
(2.77555 0.242354 -3.47039e-19)
(2.65914 0.288329 3.54539e-19)
(2.59369 0.319755 0)
(-0.856336 0.950001 -8.39079e-18)
(0.568393 -0.274572 6.37369e-18)
(1.76793 -0.367664 5.11372e-18)
(2.35212 -0.72307 -7.0923e-18)
(2.78971 -0.575825 2.34259e-18)
(2.89833 -0.45786 1.50085e-18)
(2.89894 -0.272009 -1.3711e-18)
(2.81811 -0.112646 -1.28587e-18)
(2.71382 0.0136551 1.30539e-18)
(2.62085 0.102422 -5.74035e-19)
(2.56143 0.1721 0)
(-1.39734 1.18541 1.6699e-19)
(0.0689607 0.0211885 5.28853e-18)
(1.24483 -0.31763 -4.76549e-18)
(1.921 -0.730295 -3.61799e-18)
(2.42037 -0.691161 2.54263e-18)
(2.60293 -0.628899 0)
(2.67236 -0.471224 0)
(2.65093 -0.316945 0)
(2.59301 -0.176422 -3.67268e-19)
(2.52915 -0.0620227 1.07383e-18)
(2.48269 0.0309432 -6.77235e-19)
(-1.81688 1.47161 -1.20034e-17)
(-0.375005 0.334909 4.85593e-18)
(0.781866 -0.184453 3.7605e-18)
(1.53335 -0.654973 -1.28281e-18)
(2.07739 -0.720181 0)
(2.3174 -0.71403 0)
(2.43553 -0.594331 8.81125e-19)
(2.45815 -0.458299 -7.75173e-19)
(2.43766 -0.319878 -8.90665e-19)
(2.40113 -0.196087 0)
(2.36866 -0.0891191 -2.68442e-19)
(-2.15835 1.77655 5.80527e-19)
(-0.785716 0.65587 -6.5403e-20)
(0.358365 0.00670434 0)
(1.17338 -0.523879 1.53104e-18)
(1.7577 -0.689144 -2.37384e-18)
(2.04937 -0.738933 -5.47033e-19)
(2.20536 -0.66135 2.44386e-18)
(2.2611 -0.549263 -6.1211e-19)
(2.2687 -0.421758 1.63391e-20)
(2.25419 -0.298672 -3.72816e-19)
(2.23498 -0.187474 1.26455e-18)
(-2.44569 2.11834 -5.69816e-19)
(-1.16352 0.994318 -4.26857e-19)
(-0.0356559 0.245592 0)
(0.830299 -0.351307 1.8063e-18)
(1.4552 -0.612907 3.99974e-20)
(1.79703 -0.720612 4.47824e-19)
(1.98675 -0.68744 6.824e-19)
(2.06943 -0.601885 9.52968e-19)
(2.09841 -0.48942 -7.09519e-19)
(2.10128 -0.371476 8.33059e-19)
(2.09232 -0.261137 -6.61902e-19)
(-2.67048 2.46752 -3.71621e-18)
(-1.50072 1.33211 5.53813e-18)
(-0.394222 0.514113 -2.09697e-18)
(0.507967 -0.14922 2.30992e-18)
(1.1702 -0.501924 5.96619e-19)
(1.55864 -0.669963 -1.29665e-19)
(1.77996 -0.68289 -1.98328e-18)
(1.88621 -0.625497 -9.3962e-19)
(1.93202 -0.530322 -5.72125e-19)
(1.94751 -0.421115 -7.57506e-19)
(1.94597 -0.312546 -6.09927e-20)
(-2.82946 2.77307 0)
(-1.79621 1.64801 0)
(-0.719683 0.794614 0)
(0.201305 0.0715238 -1.40184e-18)
(0.89574 -0.365132 1.02316e-18)
(1.32786 -0.594751 -7.88088e-19)
(1.58076 -0.655098 0)
(1.70997 -0.627114 0)
(1.77106 -0.550243 5.66401e-19)
(1.79715 -0.451952 7.5013e-19)
(1.80257 -0.349316 4.24301e-19)
(-2.94178 3.04263 0)
(-2.05832 1.9512 0)
(-1.02702 1.08858 3.99342e-19)
(-0.103962 0.313378 6.60895e-19)
(0.618333 -0.202747 4.42332e-19)
(1.09341 -0.496593 0)
(1.3808 -0.606976 -9.42986e-19)
(1.53569 -0.610418 7.56277e-20)
(1.61383 -0.552684 0)
(1.6518 -0.465469 5.81331e-19)
(1.66647 -0.368199 -7.54361e-19)
(-3.02758 3.28408 3.51118e-19)
(-2.2846 2.23401 2.48004e-19)
(-1.31257 1.38691 -4.0334e-19)
(-0.404658 0.572562 8.50661e-19)
(0.337686 -0.0154125 -8.83875e-19)
(0.851504 -0.374381 2.6329e-19)
(1.17454 -0.537417 -9.04943e-19)
(1.3583 -0.575246 6.43609e-19)
(1.45682 -0.538479 -3.85289e-19)
(1.50851 -0.463776 -2.88731e-19)
(1.5326 -0.373336 3.74254e-19)
(-3.07447 3.47326 -3.57214e-19)
(-2.46933 2.48575 -4.8623e-19)
(-1.57641 1.68241 -1.41386e-18)
(-0.702127 0.84809 6.8469e-20)
(0.0492193 0.199059 1.3788e-18)
(0.595901 -0.224142 2.91805e-19)
(0.954966 -0.442216 -7.35443e-19)
(1.17125 -0.518169 5.59006e-19)
(1.29533 -0.505544 3.29534e-19)
(1.36577 -0.445777 -2.47288e-19)
(1.40494 -0.364136 -2.64696e-19)
(-3.09151 3.64229 1.32203e-18)
(-2.62 2.72095 2.39729e-19)
(-1.82199 1.98061 1.63043e-19)
(-1.00176 1.14774 -7.03814e-19)
(-0.254865 0.44907 7.13617e-19)
(0.317898 -0.0368801 0)
(0.71293 -0.312761 -1.58374e-19)
(0.966399 -0.431792 2.07358e-19)
(1.12328 -0.448473 0)
(1.21963 -0.408328 -1.67386e-19)
(1.28073 -0.338977 2.64346e-19)
(-3.08129 3.75309 1.27907e-18)
(-2.73237 2.92897 -5.35002e-20)
(-2.04269 2.27391 -1.69284e-19)
(-1.29785 1.47015 -5.53992e-20)
(-0.573798 0.739211 -1.73535e-19)
(0.0139369 0.196112 0)
(0.442019 -0.137767 1.61675e-19)
(0.736518 -0.304716 -2.10524e-19)
(0.934247 -0.357968 -5.20686e-20)
(1.06531 -0.345167 9.5006e-20)
(1.15337 -0.2969 2.7201e-19)
(-3.05532 3.8478 0)
(-2.81065 3.11988 -1.6392e-18)
(-2.23364 2.55793 1.27807e-18)
(-1.58565 1.81178 7.12667e-20)
(-0.908963 1.07452 0)
(-0.322318 0.487747 -3.75774e-19)
(0.133842 0.0994053 2.74749e-19)
(0.473399 -0.119685 -8.21609e-21)
(0.720543 -0.219448 5.29642e-20)
(0.89667 -0.245404 2.92386e-20)
(1.02302 -0.228095 -1.35252e-20)
(-3.01676 3.93117 0)
(-2.8624 3.29082 0)
(-2.39576 2.8235 1.18799e-18)
(-1.86383 2.16308 -1.0031e-18)
(-1.264 1.45876 6.50563e-20)
(-0.697565 0.856063 -3.20613e-19)
(-0.218648 0.423392 1.98581e-20)
(0.168854 0.148127 9.92921e-20)
(0.472768 -0.0114709 0)
(0.70232 -0.0919375 5.49877e-21)
(0.876375 -0.118878 3.26566e-21)
(-2.95757 3.99925 0)
(-2.89782 3.43748 0)
(-2.5414 3.06056 0)
(-2.13953 2.51553 1.09015e-19)
(-1.64039 1.89986 -5.33254e-19)
(-1.11273 1.32741 3.42252e-19)
(-0.617445 0.869521 1.08136e-19)
(-0.182058 0.532851 1.25537e-21)
(0.18031 0.297232 0)
(0.465223 0.142367 0)
(0.690272 0.0517899 3.20444e-21)
(-2.91153 3.86482 1.3335e-18)
(-2.92266 3.47635 -2.17294e-19)
(-2.7155 3.23593 0)
(-2.42344 2.85431 0)
(-2.01969 2.401 1.85101e-19)
(-1.5399 1.92169 -2.09053e-19)
(-1.04112 1.46812 0)
(-0.573174 1.0714 0)
(-0.165807 0.749951 -8.36934e-22)
(0.168322 0.507129 6.01936e-22)
(0.462739 0.33991 0)
(-3.03663 4.16201 2.86494e-19)
(-2.94647 3.72901 -8.24671e-19)
(-2.77843 3.56388 -7.91082e-19)
(-2.53299 3.33158 5.99678e-19)
(-2.20815 3.03943 -2.11701e-19)
(-1.81336 2.66404 1.0306e-19)
(-1.3806 2.2274 -2.83115e-20)
(-0.953073 1.78125 1.48614e-20)
(-0.56397 1.37708 -1.61624e-20)
(-0.235175 1.04434 -1.6446e-20)
(0.10869 0.768298 0)
(-1.41878 2.17884 -8.80894e-19)
(-1.80167 2.32002 1.62727e-19)
(-1.60528 2.47119 4.00389e-19)
(-1.51243 2.5895 -2.62322e-21)
(-1.42092 2.67473 -2.15172e-21)
(-1.3089 2.68949 -1.14976e-20)
(-1.15889 2.60226 -2.88265e-20)
(-0.932021 2.37997 -2.11658e-20)
(-0.679471 2.09013 1.47302e-19)
(-0.437993 1.78443 4.75823e-21)
(-0.147848 1.42019 -6.69216e-20)
(-1.24333 4.34296 -8.70498e-19)
(-0.911594 3.27973 2.49341e-18)
(0.0835429 2.64136 -5.12882e-19)
(0.695706 2.17989 0)
(1.08209 1.80568 1.18723e-18)
(1.33772 1.49927 -9.2186e-19)
(1.51146 1.24933 0)
(1.63696 1.04711 0)
(1.73583 0.884751 0)
(1.81886 0.756277 0)
(1.88753 0.658975 1.69764e-19)
(-2.404 -0.585715 -7.32351e-19)
(-1.54337 0.916196 -1.25202e-18)
(-0.94577 1.37769 1.50852e-18)
(-0.200264 1.51384 -1.12226e-18)
(0.376526 1.43249 -1.28808e-19)
(0.80859 1.28816 6.6698e-19)
(1.11903 1.12103 -7.17778e-19)
(1.34254 0.960143 -3.78516e-19)
(1.50925 0.819795 2.77886e-19)
(1.63688 0.704055 0)
(1.73115 0.613667 0)
(-1.96591 -1.55395 5.18378e-18)
(-1.11915 -0.55071 0)
(-1.09925 -0.139319 -3.60131e-18)
(-0.657923 0.406578 2.04972e-19)
(-0.156113 0.76705 2.36002e-19)
(0.346953 0.898661 -6.29006e-19)
(0.758919 0.89228 8.44851e-19)
(1.06705 0.818842 -5.38545e-19)
(1.29215 0.723966 0)
(1.45793 0.634362 -4.77008e-19)
(1.57582 0.560445 2.69987e-19)
(-1.23373 -1.92459 0)
(-0.324249 -1.06654 0)
(-0.704581 -0.892932 -3.75626e-18)
(-0.516538 -0.39787 6.30652e-18)
(-0.282292 -0.0033281 -2.37997e-18)
(0.0598835 0.291434 1.11897e-18)
(0.42462 0.462583 -2.25308e-19)
(0.752749 0.531218 5.25829e-19)
(1.02695 0.534755 -2.96123e-19)
(1.23958 0.50475 2.32141e-19)
(1.38757 0.463919 1.43143e-20)
(-0.549948 -1.9666 0)
(0.338017 -1.29678 0)
(-0.167019 -1.29162 1.82218e-19)
(-0.0926348 -0.857127 2.10988e-18)
(-0.0392921 -0.505327 -3.24345e-18)
(0.145326 -0.17265 9.16233e-19)
(0.393132 0.070426 9.78013e-19)
(0.658122 0.225169 -1.05088e-18)
(0.904871 0.305731 4.77648e-19)
(1.11278 0.336522 1.7166e-19)
(1.2658 0.338502 0)
(-0.0187145 -1.85915 0)
(0.810764 -1.36056 -8.45946e-19)
(0.316225 -1.45664 6.45493e-19)
(0.35189 -1.09363 1.10784e-18)
(0.296797 -0.832658 -9.30439e-19)
(0.367475 -0.524918 -8.43074e-19)
(0.503796 -0.265598 6.35343e-19)
(0.685394 -0.0641481 6.1875e-19)
(0.876023 0.0720093 -5.69174e-19)
(1.05172 0.153814 0)
(1.18608 0.194082 -1.80258e-19)
(0.372375 -1.68638 -1.0526e-18)
(1.13457 -1.33286 7.68889e-19)
(0.697374 -1.48285 2.24088e-19)
(0.729432 -1.17006 -1.33856e-19)
(0.622381 -1.00265 7.85823e-20)
(0.632163 -0.736542 5.28741e-19)
(0.681653 -0.499211 -1.24048e-18)
(0.785057 -0.289801 2.11822e-19)
(0.913391 -0.126645 5.11742e-20)
(1.04484 -0.00965168 3.0689e-19)
(1.149 0.0646925 -5.00141e-19)
(0.663877 -1.50785 -1.50537e-19)
(1.34793 -1.28107 -6.23515e-19)
(0.986961 -1.44463 3.78051e-19)
(1.02832 -1.16547 4.57973e-20)
(0.890125 -1.06909 -7.41928e-20)
(0.882745 -0.840831 0)
(0.876129 -0.641069 0)
(0.920405 -0.445086 0)
(0.993953 -0.277855 0)
(1.08253 -0.146134 -1.56586e-19)
(1.15797 -0.0545667 2.87504e-19)
(0.899346 -1.34241 2.35191e-19)
(1.5086 -1.23314 3.98451e-20)
(1.19349 -1.37815 -4.6209e-19)
(1.27164 -1.12744 5.93654e-19)
(1.11011 -1.07158 -5.78247e-20)
(1.09417 -0.879021 -1.8018e-19)
(1.05713 -0.714059 1.10646e-19)
(1.06222 -0.539584 -9.14104e-20)
(1.09285 -0.3819 1.69539e-19)
(1.14317 -0.248736 -4.81886e-19)
(1.18854 -0.149461 1.99555e-19)
(1.07711 -1.20203 0)
(1.66831 -1.17103 1.11063e-18)
(1.36109 -1.29292 -1.63669e-19)
(1.45073 -1.08516 -7.45059e-19)
(1.29604 -1.03887 1.00516e-19)
(1.2707 -0.876214 -1.44127e-19)
(1.21549 -0.739553 1.10889e-19)
(1.19497 -0.58711 -5.30544e-20)
(1.19408 -0.444822 -5.87494e-20)
(1.21353 -0.318734 3.06939e-19)
(1.23303 -0.22242 3.21234e-20)
(1.19159 -1.0848 3.31982e-18)
(1.80058 -1.0918 -1.68573e-18)
(1.51581 -1.20157 -6.85839e-19)
(1.59359 -1.02485 1.65192e-19)
(1.44892 -0.987256 2.39364e-19)
(1.4174 -0.847201 -2.54811e-19)
(1.35052 -0.733082 -1.32631e-19)
(1.31262 -0.60047 0)
(1.28865 -0.475213 0)
(1.28437 -0.360798 -9.82853e-20)
(1.28572 -0.27174 1.22477e-19)
(1.27035 -0.975762 0)
(1.89794 -1.0013 0)
(1.64194 -1.11081 1.0999e-18)
(1.71161 -0.952321 -4.51682e-19)
(1.57404 -0.923453 4.72568e-20)
(1.53861 -0.800331 1.1027e-18)
(1.46372 -0.704597 -7.18962e-19)
(1.41356 -0.589162 1.50298e-20)
(1.37218 -0.48074 -9.15786e-20)
(1.34912 -0.379606 2.23715e-20)
(1.33656 -0.298075 -4.57346e-20)
(1.33457 -0.869109 3.84676e-18)
(1.98144 -0.904277 -1.81405e-18)
(1.74245 -1.0206 8.49697e-19)
(1.80939 -0.871578 -1.64556e-18)
(1.67549 -0.851554 3.42504e-19)
(1.63787 -0.74076 -6.16924e-19)
(1.55665 -0.660612 6.6015e-19)
(1.49751 -0.559921 3.8633e-19)
(1.44265 -0.467421 -5.5722e-20)
(1.40383 -0.380652 8.29416e-20)
(1.37474 -0.31382 -1.35865e-19)
(1.38515 -0.74829 4.23282e-21)
(2.04738 -0.792546 1.24159e-18)
(1.82671 -0.923658 -1.3292e-18)
(1.88861 -0.784943 1.62562e-20)
(1.75813 -0.772396 5.43095e-19)
(1.71783 -0.672327 -3.75004e-20)
(1.63152 -0.605429 -6.58602e-19)
(1.56517 -0.517829 2.73382e-19)
(1.49941 -0.440135 -5.2967e-20)
(1.4482 -0.366842 -3.89263e-19)
(1.40692 -0.311147 1.50104e-19)
(1.41203 -0.621608 -3.18024e-19)
(2.08662 -0.680487 6.52119e-19)
(1.89371 -0.821973 1.22169e-18)
(1.948 -0.695424 -2.23444e-18)
(1.82503 -0.685549 9.611e-19)
(1.7791 -0.597299 -1.10784e-18)
(1.68987 -0.540381 7.98973e-19)
(1.61665 -0.465772 2.07118e-20)
(1.54232 -0.401765 3.69483e-19)
(1.48068 -0.342374 1.65252e-19)
(1.42927 -0.299029 -7.55914e-20)
(1.43048 -0.495703 0)
(2.10676 -0.56748 -2.20914e-19)
(1.94625 -0.715616 0)
(1.99063 -0.603464 -2.21199e-19)
(1.87724 -0.592851 -3.07947e-19)
(1.82374 -0.517002 0)
(1.73266 -0.467994 4.57481e-19)
(1.65271 -0.406526 -6.19999e-19)
(1.57147 -0.355593 3.58514e-19)
(1.50124 -0.310233 -1.14649e-19)
(1.44223 -0.277845 0)
(1.4408 -0.365208 0)
(2.11087 -0.446176 1.6226e-18)
(1.98592 -0.600859 -1.36188e-18)
(2.01873 -0.507053 -6.20902e-19)
(1.91528 -0.494591 1.22742e-18)
(1.85289 -0.431635 -4.39121e-19)
(1.76006 -0.390017 -4.50037e-19)
(1.67365 -0.342134 3.42658e-19)
(1.58688 -0.304453 -1.72404e-19)
(1.50988 -0.273544 0)
(1.44288 -0.255885 -4.56493e-20)
(1.43557 -0.22932 1.32618e-18)
(2.09463 -0.315822 1.14387e-19)
(2.00892 -0.476612 1.24163e-18)
(2.03156 -0.404093 -9.63731e-19)
(1.93787 -0.390533 -4.82518e-19)
(1.86634 -0.341012 4.26446e-19)
(1.77137 -0.307889 5.56609e-20)
(1.67928 -0.274498 0)
(1.58848 -0.250997 1.37009e-19)
(1.50709 -0.234574 -2.95549e-20)
(1.435 -0.230638 -7.85821e-21)
(1.4153 -0.0890764 0)
(2.05648 -0.175219 0)
(2.01151 -0.340746 0)
(2.02657 -0.29192 0)
(1.94206 -0.279923 -4.14519e-20)
(1.86232 -0.245113 3.2573e-19)
(1.76511 -0.223176 -4.72335e-19)
(1.66911 -0.205796 1.44744e-19)
(1.57642 -0.197876 -5.81953e-20)
(1.49318 -0.196599 9.55127e-20)
(1.419 -0.20807 -3.68062e-20)
(1.37977 0.05738 -1.24627e-18)
(1.99432 -0.0190369 1.00178e-18)
(1.98856 -0.187833 -1.52977e-19)
(1.99858 -0.165905 0)
(1.92271 -0.160952 -3.59635e-20)
(1.83732 -0.144052 7.15112e-20)
(1.73933 -0.137643 -2.67467e-19)
(1.6427 -0.138384 1.21181e-19)
(1.55132 -0.147396 0)
(1.46911 -0.16164 7.66605e-21)
(1.3958 -0.186826 -7.35815e-21)
(1.32042 0.21201 1.3009e-18)
(1.89978 0.15901 -1.25234e-18)
(1.92816 -0.0113781 2.64996e-20)
(1.93577 -0.0207309 -1.77056e-19)
(1.86964 -0.031521 3.15445e-19)
(1.78451 -0.0381621 -2.29667e-19)
(1.69054 -0.0527792 5.8587e-20)
(1.59893 -0.0738483 -6.78658e-20)
(1.51321 -0.100425 -2.99312e-22)
(1.43534 -0.129997 0)
(1.36584 -0.169214 0)
(1.23985 0.383042 1.86401e-18)
(1.76457 0.367059 -8.12382e-19)
(1.81655 0.196955 -9.00383e-20)
(1.82501 0.150653 5.1729e-19)
(1.7732 0.113221 -2.88395e-20)
(1.69896 0.0763972 -8.07122e-20)
(1.61818 0.0357085 5.95695e-20)
(1.53939 -0.00704566 5.30171e-20)
(1.46481 -0.0509785 -1.74359e-20)
(1.39586 -0.0954774 1.07469e-20)
(1.33426 -0.147162 -5.90465e-21)
(1.01 0.521036 -5.07223e-19)
(1.50124 0.591725 0)
(1.5751 0.41736 1.41541e-19)
(1.59627 0.329232 -8.84977e-20)
(1.57472 0.261884 -1.78544e-19)
(1.53305 0.197391 4.86755e-21)
(1.48325 0.133799 -3.4892e-21)
(1.4285 0.0716631 2.44225e-20)
(1.37086 0.0104316 -4.14605e-20)
(1.31291 -0.0507518 4.98005e-21)
(1.26305 -0.102373 -8.84568e-20)
(1.10355 0.827546 1.95247e-18)
(1.36688 1.02593 -1.09818e-18)
(1.37943 0.847824 4.26463e-19)
(1.35867 0.716755 6.11512e-20)
(1.32281 0.60883 0)
(1.28412 0.514597 0)
(1.2461 0.446039 2.38701e-20)
(1.18167 0.428865 -1.14445e-19)
(1.09559 0.450695 3.2688e-20)
(0.997683 0.491177 0)
(0.891926 0.536842 1.47549e-19)
(5.09707 -1.72153 2.576e-18)
(4.04657 -1.21078 -4.82808e-19)
(4.25605 -1.14959 -4.78114e-19)
(4.25784 -1.05834 0)
(4.08802 -0.900933 7.42765e-20)
(3.8557 -0.702692 -7.59447e-21)
(3.63517 -0.534159 -2.29642e-21)
(3.4384 -0.418142 1.46559e-20)
(3.27413 -0.359552 1.08284e-20)
(3.13582 -0.349176 8.85657e-21)
(3.0314 -0.377113 1.65266e-20)
(3.89987 -0.441432 -3.92233e-18)
(3.01958 -0.423401 1.08481e-19)
(3.31303 -0.884843 -1.96995e-18)
(3.50264 -1.08234 1.59313e-18)
(3.55759 -1.10162 5.44432e-19)
(3.53337 -0.998181 -7.79451e-19)
(3.45773 -0.824254 2.3675e-19)
(3.34371 -0.640808 7.09008e-20)
(3.23073 -0.523458 -1.10523e-19)
(3.13085 -0.473451 6.05312e-20)
(3.05175 -0.477261 -1.155e-20)
(3.70606 1.03498 -1.72397e-19)
(3.04258 0.355238 0)
(2.96143 -0.303396 2.70362e-18)
(2.9963 -0.705912 -2.02574e-18)
(3.05752 -0.94056 9.561e-19)
(3.12134 -1.01704 -7.28299e-19)
(3.16153 -0.949269 2.04188e-21)
(3.16014 -0.794186 -3.20636e-19)
(3.12975 -0.648089 2.37057e-19)
(3.08335 -0.559583 -6.85085e-20)
(3.04597 -0.539474 -5.93837e-20)
(4.07044 1.80285 -2.41695e-18)
(3.37288 0.961796 0)
(2.98405 0.312291 0)
(2.80909 -0.196533 1.30358e-18)
(2.75847 -0.580103 -2.43937e-18)
(2.78743 -0.812082 2.56596e-18)
(2.85835 -0.879409 -1.00809e-18)
(2.93061 -0.811631 0)
(2.98178 -0.693431 0)
(3.00139 -0.597782 2.45081e-19)
(3.00893 -0.558946 2.7013e-19)
(4.42964 1.98554 -2.24381e-18)
(3.67667 1.35385 1.25955e-18)
(3.15115 0.787585 0)
(2.81685 0.270596 4.47897e-19)
(2.63792 -0.167573 0)
(2.58435 -0.491536 -3.76513e-19)
(2.62653 -0.668701 -8.71799e-19)
(2.72157 -0.699924 6.52799e-19)
(2.82598 -0.643699 0)
(2.90409 -0.572709 -1.74421e-19)
(2.95793 -0.536497 -3.07207e-19)
(4.45472 1.89386 0)
(3.87338 1.57507 2.94677e-18)
(3.33188 1.1162 -2.18725e-18)
(2.91329 0.652328 3.82077e-19)
(2.63813 0.220607 0)
(2.50188 -0.138413 1.79118e-18)
(2.4918 -0.384378 -1.06788e-18)
(2.57451 -0.498807 0)
(2.70001 -0.514011 0)
(2.8164 -0.488368 -2.19634e-19)
(2.90716 -0.472204 0)
(4.42784 1.7788 0)
(4.00163 1.65971 1.60888e-18)
(3.50181 1.32807 -2.87761e-18)
(3.04871 0.942911 1.07267e-18)
(2.71576 0.552104 -4.96844e-19)
(2.51624 0.197807 3.82002e-19)
(2.45376 -0.0797078 0)
(2.50733 -0.252205 0)
(2.62915 -0.331728 3.37334e-19)
(2.76079 -0.35811 3.74072e-19)
(2.8731 -0.374693 -5.66218e-19)
(4.37369 1.65321 1.81331e-18)
(4.03144 1.63734 -1.54703e-20)
(3.64207 1.43555 -1.40993e-20)
(3.1988 1.1466 -6.39737e-19)
(2.84121 0.810486 -9.18024e-19)
(2.60421 0.48638 0)
(2.50142 0.205996 -4.19127e-19)
(2.52233 0.00062119 -5.48265e-19)
(2.62516 -0.128293 -3.2975e-19)
(2.7529 -0.203573 6.50018e-19)
(2.8698 -0.256502 -3.40086e-20)
(4.30267 1.52985 -2.33396e-20)
(4.02029 1.58288 0)
(3.71841 1.45036 0)
(3.34781 1.26659 -2.66423e-19)
(2.99166 0.990404 4.28108e-19)
(2.74377 0.710088 0)
(2.61779 0.44595 4.12032e-19)
(2.6101 0.228288 5.3994e-19)
(2.68629 0.0669378 3.23412e-19)
(2.79581 -0.0470977 3.87957e-19)
(2.90338 -0.133744 -5.23239e-19)
(4.23564 1.41498 8.45478e-19)
(3.99818 1.5181 -8.92245e-19)
(3.76448 1.41498 6.5396e-19)
(3.46805 1.30524 -2.46643e-19)
(3.15352 1.09894 -7.04512e-19)
(2.91561 0.864055 1.03237e-18)
(2.78263 0.625931 -3.75507e-19)
(2.75334 0.410217 -2.27356e-19)
(2.8009 0.231391 -3.17565e-20)
(2.88392 0.0902552 -2.14255e-19)
(2.97069 -0.0228565 0)
(4.18368 1.30971 0)
(3.98098 1.45084 0)
(3.79919 1.3538 0)
(3.56866 1.29097 -2.1664e-19)
(3.31081 1.14071 0)
(3.10201 0.950066 2.22673e-19)
(2.97499 0.740945 -3.06682e-19)
(2.93146 0.535994 2.24598e-19)
(2.95225 0.351657 -5.31363e-19)
(3.00606 0.194644 1.95672e-19)
(3.06704 0.0635061 0)
(4.14701 1.21245 0)
(3.97238 1.38127 0)
(3.83091 1.27723 5.42625e-19)
(3.65515 1.24209 -2.09933e-19)
(3.45638 1.12863 0)
(3.28771 0.975129 -1.63412e-20)
(3.17531 0.793766 4.4244e-19)
(3.12451 0.60433 0)
(3.12273 0.423219 3.87982e-19)
(3.14808 0.26034 1.55502e-19)
(3.18151 0.118916 1.90316e-19)
(4.12656 1.12149 4.54023e-19)
(3.97655 1.31148 -6.95536e-19)
(3.86683 1.19365 2.6542e-19)
(3.73392 1.17143 4.64614e-19)
(3.59101 1.0798 -2.86858e-19)
(3.46286 0.952398 -3.86258e-19)
(3.36941 0.794809 -2.4898e-19)
(3.31693 0.622073 1.0908e-19)
(3.2979 0.44865 4.51348e-21)
(3.29804 0.285713 -2.9104e-19)
(3.30413 0.140361 -7.90866e-20)
(4.12552 1.03874 4.48303e-19)
(3.99897 1.24037 -3.61292e-19)
(3.91302 1.11024 0)
(3.81554 1.08946 -1.14954e-19)
(3.71636 1.00858 0)
(3.62364 0.897617 0)
(3.54995 0.758052 0)
(3.49972 0.599738 -8.50454e-20)
(3.46855 0.434787 0)
(3.44735 0.27486 0)
(3.42869 0.128686 0)
(4.14326 0.961814 -4.36225e-19)
(4.03662 1.16752 3.5147e-19)
(3.97006 1.02745 0)
(3.89937 1.00278 2.22024e-20)
(3.8327 0.926062 -3.0534e-20)
(3.76915 0.823848 1.21486e-19)
(3.71422 0.6957 -1.24814e-19)
(3.66907 0.547309 7.08691e-20)
(3.62985 0.388525 -5.32043e-20)
(3.59043 0.231756 0)
(3.54786 0.0855461 0)
(4.17708 0.888037 0)
(4.08683 1.09585 0)
(4.03626 0.947199 1.16367e-19)
(3.98579 0.917223 0)
(3.94314 0.841288 3.07389e-20)
(3.90317 0.742157 1.21133e-19)
(3.86557 0.61853 -5.98377e-20)
(3.82697 0.4734 0)
(3.78158 0.315802 8.40233e-20)
(3.72488 0.159722 -6.17488e-20)
(3.65831 0.0153402 6.2459e-20)
(4.227 0.815787 0)
(4.14961 1.0269 0)
(4.11081 0.872174 -1.18573e-19)
(4.07578 0.837153 0)
(4.05186 0.761191 0)
(4.03247 0.661038 0)
(4.01173 0.534368 0)
(3.97983 0.383379 -1.28434e-19)
(3.92702 0.219371 -8.44069e-20)
(3.85002 0.0611779 -1.52271e-20)
(3.7556 -0.0804017 -1.66708e-19)
(4.28909 0.744351 2.15242e-19)
(4.2192 0.961304 -1.67177e-19)
(4.18855 0.80348 0)
(4.16683 0.767564 0)
(4.16172 0.692761 0)
(4.16533 0.587355 -1.5953e-19)
(4.16363 0.447087 0)
(4.13671 0.277215 1.3023e-19)
(4.07028 0.0966665 0)
(3.96475 -0.0680592 -2.04112e-20)
(3.83404 -0.206547 1.2012e-19)
(4.35713 0.673779 -2.33582e-19)
(4.28909 0.900273 0)
(4.26486 0.745354 0)
(4.26008 0.717354 0)
(4.28326 0.645784 -1.1629e-19)
(4.31912 0.526253 3.28132e-19)
(4.33802 0.354083 -2.52556e-19)
(4.3092 0.14584 0)
(4.2158 -0.062512 0)
(4.06714 -0.233986 7.26003e-20)
(3.8928 -0.357596 2.9419e-20)
(4.42352 0.604858 3.76784e-19)
(4.35438 0.84513 -9.39843e-20)
(4.33112 0.719084 6.50203e-20)
(4.35273 0.719456 -4.96407e-20)
(4.41578 0.648505 -1.43844e-19)
(4.49227 0.48429 -4.30626e-19)
(4.53671 0.233483 2.04072e-19)
(4.49042 -0.0368478 0)
(4.3506 -0.274084 0)
(4.14591 -0.446608 -4.33484e-20)
(3.91941 -0.540895 7.5223e-20)
(4.51204 0.543803 1.41985e-19)
(4.34912 0.866766 0)
(4.33848 0.788498 0)
(4.4304 0.784951 0)
(4.62127 0.55877 5.58604e-19)
(4.7469 0.19731 1.58821e-19)
(4.74385 -0.142442 0)
(4.62818 -0.427418 0)
(4.42209 -0.626071 0)
(4.16438 -0.723766 0)
(3.89644 -0.75467 0)
(4.24971 0.737538 0)
(4.1961 0.91701 0)
(4.38401 0.72178 0)
(4.62875 0.3315 0)
(4.73434 -0.0748967 0)
(4.74665 -0.432466 0)
(4.67576 -0.731159 -2.00776e-19)
(4.52258 -0.950628 1.70581e-19)
(4.29189 -1.07188 -1.23923e-19)
(4.02455 -1.08148 0)
(3.77489 -0.997019 0)
(3.74687 1.08333 0)
(4.28739 0.141577 -3.30931e-19)
(4.46021 -0.0454933 2.375e-19)
(4.53149 -0.444104 5.06042e-19)
(4.54989 -0.779669 -6.57678e-19)
(4.52585 -1.04672 0)
(4.45392 -1.25024 2.16092e-19)
(4.32165 -1.38369 0)
(4.11021 -1.42962 0)
(3.82357 -1.36588 0)
(3.56811 -1.19966 0)
(4.20645 -0.523128 -1.17766e-19)
(4.29692 -0.357265 0)
(4.28984 -0.837398 0)
(4.29429 -1.08741 0)
(4.30418 -1.27394 3.33446e-19)
(4.30768 -1.41929 3.25859e-19)
(4.29038 -1.52724 -2.33401e-19)
(4.23078 -1.5957 0)
(4.09823 -1.60351 7.72615e-20)
(3.85832 -1.5078 0)
(3.54117 -1.29781 0)
(6.32794 -0.638985 3.33948e-19)
(5.73644 -0.347713 -2.32139e-19)
(5.23277 -0.409594 1.45831e-19)
(4.79726 -0.426543 0)
(4.39592 -0.379578 2.99635e-20)
(4.03686 -0.298752 -5.84613e-20)
(3.73374 -0.222565 0)
(3.48529 -0.175059 -7.93047e-20)
(3.28089 -0.165159 9.77479e-20)
(3.11017 -0.193237 -7.24592e-20)
(2.98002 -0.255301 -8.01431e-20)
(5.84059 1.25613 -8.90451e-19)
(5.70547 0.97727 0)
(5.46232 0.648287 2.83385e-19)
(5.10905 0.391506 0)
(4.69163 0.235562 2.80017e-19)
(4.26516 0.165526 -1.74462e-19)
(3.87904 0.138001 3.17581e-19)
(3.55831 0.114513 -4.41859e-19)
(3.29804 0.0745963 1.48411e-19)
(3.08246 0.010604 1.57632e-19)
(2.91434 -0.0731644 1.25828e-19)
(5.383 1.92126 -2.0964e-19)
(5.43977 1.68947 0)
(5.37568 1.4056 -3.03223e-19)
(5.16518 1.12309 -4.45118e-19)
(4.82389 0.881083 3.33839e-19)
(4.40411 0.704028 3.96345e-19)
(3.97697 0.575383 -2.9427e-19)
(3.60189 0.466658 -3.96276e-19)
(3.2953 0.361211 1.88629e-20)
(3.04364 0.251189 -1.39554e-19)
(2.84316 0.140942 0)
(5.18906 2.02144 -3.28821e-19)
(5.21081 1.99366 -2.39736e-19)
(5.18846 1.82719 -4.48623e-20)
(5.06031 1.63329 4.03809e-19)
(4.80145 1.42231 6.03437e-19)
(4.42553 1.22979 -2.59247e-19)
(3.99153 1.05273 0)
(3.58198 0.869833 -5.65723e-20)
(3.24262 0.68578 0)
(2.96501 0.511393 0)
(2.74311 0.35892 0)
(5.15056 1.97203 -2.54581e-19)
(5.11648 2.04815 2.20986e-19)
(5.06293 1.97155 0)
(4.93948 1.88337 -3.01119e-20)
(4.71868 1.7585 -3.66263e-20)
(4.3815 1.62816 0)
(3.95031 1.494 3.11866e-19)
(3.50725 1.30524 4.36582e-19)
(3.13603 1.0586 0)
(2.84526 0.806877 0)
(2.61288 0.605229 -1.96279e-19)
(5.15569 1.91843 0)
(5.09507 2.04038 -3.13599e-19)
(5.01656 1.98262 2.58092e-20)
(4.86874 1.95191 -3.82866e-20)
(4.64865 1.89252 -2.87253e-19)
(4.32265 1.81986 0)
(3.88382 1.75357 -3.71626e-19)
(3.38345 1.66786 1.45237e-19)
(2.94239 1.43895 -6.89294e-20)
(2.6298 1.12913 2.02172e-21)
(2.4085 0.866533 -7.15963e-21)
(5.18226 1.8672 7.00586e-19)
(5.10568 2.02015 -2.51602e-19)
(5.02063 1.95911 -7.44678e-20)
(4.85209 1.94875 -1.24615e-19)
(4.61142 1.91489 0)
(4.27455 1.86819 0)
(3.82774 1.82032 7.69573e-20)
(3.27953 1.77512 -1.11077e-19)
(2.74693 1.64475 0)
(2.38036 1.35576 2.01898e-19)
(2.16285 1.06819 -1.20948e-19)
(5.22234 1.81784 -5.2224e-19)
(5.13374 1.98873 3.52007e-19)
(5.04953 1.91891 1.59805e-19)
(4.87037 1.91807 -7.52328e-20)
(4.61871 1.89179 0)
(4.26514 1.85676 0)
(3.79013 1.81667 -5.92841e-20)
(3.21183 1.77628 1.07329e-19)
(2.6038 1.71332 2.29843e-20)
(2.12872 1.49799 1.30162e-20)
(1.89455 1.20955 6.53926e-21)
(5.26845 1.77435 0)
(5.17036 1.95037 0)
(5.09137 1.86561 3.51241e-21)
(4.90551 1.87048 -3.67024e-21)
(4.65213 1.84001 0)
(4.29447 1.80356 0)
(3.80414 1.76321 -9.59583e-21)
(3.18733 1.71727 3.14765e-21)
(2.51605 1.66234 -2.5671e-20)
(1.93668 1.52065 -1.85405e-20)
(1.61859 1.27862 -4.69937e-22)
(5.30975 1.73447 -4.20178e-19)
(5.21312 1.90574 1.52115e-19)
(5.13806 1.79995 5.58275e-20)
(4.94763 1.81015 -3.85107e-20)
(4.69898 1.76679 0)
(4.34744 1.7185 0)
(3.85851 1.66424 1.27175e-20)
(3.21953 1.60772 -9.58117e-21)
(2.49204 1.53941 -4.64794e-20)
(1.81933 1.42039 0)
(1.38751 1.25338 0)
(5.34781 1.67657 -5.67347e-21)
(5.2646 1.84947 2.4231e-20)
(5.17431 1.72756 -2.89072e-20)
(4.98895 1.73715 1.42809e-20)
(4.74998 1.67453 -7.19541e-20)
(4.412 1.60666 2.22715e-19)
(3.94122 1.52662 -1.93977e-19)
(3.30263 1.44643 1.2507e-19)
(2.54008 1.36033 5.21826e-20)
(1.78976 1.23234 -1.70661e-19)
(1.24778 1.0963 -8.00307e-20)
(5.39067 1.59194 6.1998e-20)
(5.30343 1.79408 0)
(5.20155 1.65924 -6.82098e-20)
(5.03109 1.63944 4.31577e-20)
(4.79995 1.56378 0)
(4.47897 1.47101 1.23814e-19)
(4.03811 1.35727 -3.97348e-19)
(3.42845 1.23566 1.82734e-19)
(2.65652 1.12419 -3.46914e-19)
(1.85516 0.980642 3.05262e-19)
(1.22901 0.843494 3.20983e-19)
(5.42346 1.51647 0)
(5.32434 1.7218 0)
(5.22927 1.58098 -1.21788e-19)
(5.06419 1.53061 9.53239e-20)
(4.84147 1.43634 0)
(4.5389 1.31462 1.89136e-19)
(4.13521 1.16523 5.34689e-21)
(3.59264 0.992267 0)
(2.85224 0.829687 0)
(2.01808 0.662835 -2.93567e-19)
(1.32213 0.532979 0)
(5.43923 1.44562 1.73174e-20)
(5.33287 1.63286 -6.51098e-20)
(5.24309 1.48966 -7.1946e-20)
(5.08545 1.40896 -1.57799e-19)
(4.87408 1.29038 1.65758e-19)
(4.58994 1.13761 3.34135e-19)
(4.21535 0.950483 0)
(3.73021 0.728225 0)
(3.09461 0.505501 -5.01422e-19)
(2.29979 0.310917 4.15194e-19)
(1.52939 0.143766 7.55578e-19)
(5.43812 1.37138 -1.74669e-20)
(5.32891 1.53005 6.54902e-20)
(5.24289 1.38272 7.22437e-20)
(5.09582 1.27337 -2.26379e-19)
(4.89985 1.12668 -4.20019e-20)
(4.63951 0.941023 -6.84852e-19)
(4.30069 0.716379 0)
(3.87251 0.451171 -6.44164e-19)
(3.32694 0.182353 4.51511e-19)
(2.64193 -0.0551558 -3.89966e-19)
(1.90367 -0.28844 -5.22324e-19)
(5.41653 1.29349 0)
(5.30547 1.4141 0)
(5.22255 1.25958 0)
(5.08868 1.12099 0)
(4.91274 0.943192 1.77968e-19)
(4.68223 0.722883 3.99288e-19)
(4.38804 0.457857 -3.02627e-19)
(4.02591 0.158568 0)
(3.57269 -0.132587 0)
(3.00602 -0.40804 0)
(2.38177 -0.703582 0)
(5.36831 1.20867 -1.83831e-19)
(5.25659 1.2828 4.7352e-20)
(5.17755 1.11701 -3.84769e-19)
(5.06039 0.946777 2.99441e-19)
(4.91118 0.733975 0)
(4.7199 0.474415 7.40743e-19)
(4.4844 0.165327 -2.92869e-19)
(4.19639 -0.141581 0)
(3.83996 -0.442413 -5.12838e-19)
(3.39616 -0.733864 4.17255e-19)
(2.90406 -1.03913 -5.78038e-19)
(5.28659 1.1105 -9.12528e-20)
(5.17523 1.13056 -4.36031e-20)
(5.101 0.947126 1.29138e-19)
(5.004 0.739708 0)
(4.88853 0.48319 0)
(4.74767 0.175226 0)
(4.58155 -0.134816 0)
(4.37832 -0.446158 1.0744e-18)
(4.12309 -0.758381 -2.56055e-21)
(3.80545 -1.06498 1.46885e-18)
(3.44949 -1.37723 -1.00701e-18)
(5.16395 0.992223 -1.0216e-19)
(5.05121 0.953219 6.59196e-20)
(4.97827 0.74524 -5.26591e-20)
(4.89437 0.495768 -5.83319e-20)
(4.81221 0.204835 1.23014e-19)
(4.73721 -0.0950331 0)
(4.65093 -0.40829 0)
(4.53991 -0.729496 -5.12272e-19)
(4.39108 -1.04878 -4.29994e-19)
(4.19517 -1.35699 0)
(3.95753 -1.65571 0)
(4.99326 0.853379 0)
(4.86537 0.754414 0)
(4.77191 0.517493 8.9382e-20)