/*--------------------------------*- C++ -*----------------------------------*\
| =========                 |                                                 |
| \\      /  F ield         | OpenFOAM: The Open Source CFD Toolbox           |
|  \\    /   O peration     | Version:  3.0.1                                 |
|   \\  /    A nd           | Web:      www.OpenFOAM.org                      |
|    \\/     M anipulation  |                                                 |
\*---------------------------------------------------------------------------*/
FoamFile
{
    version     2.0;
    format      ascii;
    class       volVectorField;
    location    "0.713848";
    object      U;
}
// * * * * * * * * * * * * * * * * * * * * * * * * * * * * * * * * * * * * * //

dimensions      [0 1 -1 0 0 0 0];

internalField   nonuniform List<vector> 
21246
(
(-0.327465 5.10183 3.28657e-18)
(0.104876 3.75193 0)
(0.550629 3.0209 3.49988e-18)
(0.968044 2.35895 -9.87535e-19)
(1.33399 1.91042 -3.27929e-18)
(1.64486 1.59572 1.14819e-18)
(1.89611 1.37773 -5.89111e-19)
(2.10207 1.21879 7.91761e-19)
(2.27551 1.10195 7.95625e-19)
(2.42421 1.01568 -5.45306e-20)
(2.54204 0.956155 -2.10278e-19)
(1.5109 5.36815 0)
(2.5445 3.03092 0)
(2.08183 3.63166 0)
(2.06266 2.93344 2.34186e-19)
(2.03328 2.47019 -5.11115e-20)
(2.10468 2.02734 -1.34707e-18)
(2.22 1.69489 1.01094e-18)
(2.35165 1.44669 -3.5747e-19)
(2.47794 1.26716 -2.17324e-19)
(2.59415 1.13731 -4.23454e-19)
(2.68718 1.04956 5.96384e-19)
(2.35311 4.06632 6.29954e-18)
(3.86411 1.65948 1.15278e-18)
(3.31187 3.28946 0)
(3.19137 2.67564 0)
(2.89898 2.55228 5.17585e-20)
(2.73722 2.18345 0)
(2.66465 1.86897 3.8512e-19)
(2.67231 1.5943 -2.10824e-19)
(2.72112 1.3809 6.18014e-20)
(2.78707 1.22209 0)
(2.85154 1.11489 0)
(2.36108 2.68782 -2.06112e-18)
(4.17471 0.651875 -1.10816e-18)
(3.92908 2.55791 0)
(3.93881 1.95603 0)
(3.60486 2.24822 0)
(3.34549 2.01624 0)
(3.14282 1.83033 -6.10981e-19)
(3.03141 1.60811 2.20625e-19)
(2.9914 1.41372 -6.06019e-20)
(2.99441 1.2543 -2.33187e-20)
(3.01417 1.14006 1.70223e-20)
(1.9951 1.69714 1.63411e-18)
(3.93371 0.0744933 -1.14677e-18)
(4.0315 1.80739 -1.70743e-18)
(4.22885 1.20601 -8.54463e-19)
(4.00004 1.76668 3.43819e-19)
(3.76536 1.63014 -3.13022e-19)
(3.53095 1.61141 1.94433e-18)
(3.35745 1.48294 -1.06305e-18)
(3.25027 1.3499 0)
(3.19968 1.22062 0)
(3.17788 1.12085 0)
(1.52226 1.02023 -1.56521e-18)
(3.48915 -0.278229 1.08686e-18)
(3.84831 1.20303 3.1234e-18)
(4.20493 0.610163 -2.96153e-18)
(4.10995 1.28218 -6.30458e-19)
(3.9572 1.17805 0)
(3.76358 1.30386 1.79269e-19)
(3.58946 1.26025 1.01485e-18)
(3.4566 1.20531 0)
(3.37333 1.1267 -8.9404e-20)
(3.3222 1.05931 -3.71899e-19)
(0.998411 0.553529 5.49669e-19)
(2.98558 -0.48505 8.05491e-19)
(3.54828 0.735806 -1.42386e-18)
(4.01641 0.183498 8.43363e-20)
(4.0355 0.875965 1.32786e-18)
(3.97106 0.765323 -1.17146e-18)
(3.84653 0.988485 -6.7762e-19)
(3.70677 0.998532 0)
(3.5863 1.01499 0)
(3.49686 0.987471 -7.7484e-20)
(3.43411 0.960423 2.43338e-19)
(0.453414 0.263757 -4.37942e-18)
(2.4764 -0.577217 1.33401e-18)
(3.20259 0.393762 5.29379e-19)
(3.75577 -0.100884 -3.1297e-19)
(3.86364 0.554098 0)
(3.87617 0.432806 7.74435e-19)
(3.81841 0.710004 4.86411e-19)
(3.72506 0.744063 5.99607e-19)
(3.63666 0.815169 0)
(3.5623 0.829519 3.76538e-19)
(3.50607 0.837816 -3.58729e-19)
(-0.0601776 0.120251 1.80606e-19)
(1.98009 -0.589066 -6.37116e-19)
(2.83688 0.149092 0)
(3.46557 -0.277585 3.9944e-19)
(3.64721 0.306298 -2.3222e-19)
(3.72191 0.18782 2.59546e-19)
(3.71976 0.479784 -5.3675e-19)
(3.67265 0.52227 -2.43092e-19)
(3.62193 0.630007 -5.04143e-20)
(3.57265 0.672321 1.14855e-19)
(3.53332 0.710449 -5.25932e-20)
(-0.554586 0.0544156 -1.76303e-19)
(1.46987 -0.562225 9.06531e-19)
(2.44774 -0.0244246 2.15353e-20)
(3.1538 -0.375817 -7.40731e-19)
(3.40929 0.116582 4.16417e-19)
(3.53741 0.0194527 6.6038e-20)
(3.58004 0.29585 0)
(3.57485 0.343712 -8.92969e-20)
(3.56037 0.468986 -9.26388e-20)
(3.53944 0.527913 -2.0545e-19)
(3.52341 0.588177 -1.07509e-21)
(-1.0699 0.0615907 -1.10876e-18)
(0.938489 -0.492778 8.39265e-19)
(2.03089 -0.130213 -4.16372e-20)
(2.82188 -0.415181 -6.06487e-20)
(3.158 -0.0208358 7.26817e-19)
(3.33796 -0.089693 -9.21192e-19)
(3.41977 0.154966 2.77417e-19)
(3.45066 0.208001 -6.06971e-20)
(3.4675 0.336414 1.40917e-19)
(3.4737 0.405727 0)
(3.48248 0.476124 0)
(-1.57414 0.141946 -1.3236e-19)
(0.413367 -0.380809 0)
(1.60418 -0.16815 2.17618e-19)
(2.48154 -0.406749 -7.11473e-19)
(2.9008 -0.107642 1.9655e-19)
(3.13327 -0.153157 4.82942e-19)
(3.2513 0.0530409 6.10955e-19)
(3.31309 0.109095 -2.07796e-19)
(3.35568 0.231048 -3.78637e-19)
(3.38526 0.305327 -1.514e-19)
(3.41522 0.379636 -7.55386e-20)
(-2.02375 0.260926 1.90456e-19)
(-0.0920413 -0.249155 -7.75329e-19)
(1.17586 -0.158747 3.80454e-19)
(2.13532 -0.366818 5.72965e-19)
(2.63957 -0.15588 -1.3227e-18)
(2.92731 -0.184142 -1.34721e-19)
(3.08093 -0.0177864 -7.06032e-19)
(3.16971 0.0390293 3.65182e-20)
(3.23312 0.14919 4.69843e-19)
(3.28213 0.224243 -2.17653e-21)
(3.33035 0.297578 5.39914e-19)
(-2.44053 0.404259 1.12811e-18)
(-0.600128 -0.104391 -1.2595e-18)
(0.728212 -0.115091 -1.10326e-19)
(1.76853 -0.308034 0)
(2.36447 -0.178049 1.99773e-19)
(2.71513 -0.195849 2.8843e-19)
(2.90812 -0.0670165 3.64031e-19)
(3.0228 -0.0109448 -2.82099e-20)
(3.10371 0.0859172 -5.12629e-19)
(3.16855 0.1601 -2.53982e-19)
(3.2311 0.230579 -2.7257e-20)
(-2.84055 0.57314 2.25553e-19)
(-1.09827 0.0537563 1.90097e-19)
(0.268723 -0.0382326 2.88025e-19)
(1.3815 -0.234389 0)
(2.07033 -0.177967 0)
(2.49052 -0.196045 0)
(2.72855 -0.101218 1.77204e-20)
(2.87075 -0.0479618 -2.2398e-19)
(2.96793 0.0363147 5.38338e-20)
(3.04548 0.10795 -1.21812e-19)
(3.11809 0.174477 0)
(-3.19765 0.744743 -2.30796e-19)
(-1.57647 0.212935 2.7309e-19)
(-0.202855 0.0598165 -4.30347e-19)
(0.966858 -0.151019 -9.33331e-21)
(1.7457 -0.161332 2.42537e-19)
(2.24123 -0.189774 6.6691e-19)
(2.53203 -0.125955 2.91203e-19)
(2.7067 -0.077401 4.26435e-19)
(2.82225 -0.00366222 -2.37231e-19)
(2.91215 0.065344 3.21913e-19)
(2.99388 0.130213 -1.5458e-19)
(-3.51161 0.913773 -3.44167e-20)
(-2.042 0.373417 -8.3573e-19)
(-0.700462 0.174889 0)
(0.506209 -0.058471 -8.47672e-19)
(1.37065 -0.130211 8.06147e-21)
(1.94724 -0.17849 -3.14133e-19)
(2.30108 -0.144029 3.88308e-19)
(2.51772 -0.101988 -5.93471e-20)
(2.65851 -0.0364582 -1.75957e-19)
(2.76385 0.0298305 0)
(2.85522 0.0931961 0)
(-3.7836 1.07792 1.43052e-18)
(-2.48554 0.533655 -5.17536e-19)
(-1.21825 0.30923 0)
(-0.00441616 0.0505314 0)
(0.930936 -0.0802504 2.14217e-20)
(1.58938 -0.157322 -1.6679e-19)
(2.01544 -0.152437 -3.9867e-19)
(2.28635 -0.119756 2.01019e-19)
(2.46417 -0.0613464 -1.61995e-19)
(2.59328 0.00201461 1.38284e-19)
(2.69925 0.0623861 -4.9709e-20)
(-3.99362 1.22551 0)
(-2.88998 0.692036 1.07975e-19)
(-1.74715 0.460443 1.50863e-19)
(-0.571787 0.181377 2.0404e-19)
(0.410232 -0.00353812 1.05427e-19)
(1.14392 -0.115859 1.57822e-19)
(1.64864 -0.142189 1.26303e-19)
(1.98827 -0.12314 -6.06684e-20)
(2.21994 -0.073548 7.37193e-20)
(2.38713 -0.0148551 -7.22612e-20)
(2.51873 0.0434539 -1.76115e-20)
(-4.13885 1.35376 0)
(-3.24272 0.849974 -5.4064e-19)
(-2.27078 0.628588 1.521e-20)
(-1.19375 0.340273 -2.1857e-19)
(-0.209415 0.111003 0)
(0.581703 -0.0380669 -1.59872e-19)
(1.16758 -0.0961024 2.40581e-20)
(1.59115 -0.0968666 6.2764e-20)
(1.89694 -0.0625404 -2.08319e-20)
(2.12097 -0.014968 2.58783e-20)
(2.2926 0.0377776 1.78284e-20)
(-4.25092 1.49748 0)
(-3.55223 1.00815 -1.00167e-19)
(-2.77276 0.80718 -3.744e-19)
(-1.86096 0.528028 4.69923e-19)
(-0.940879 0.280574 3.23646e-20)
(-0.127188 0.106297 8.50671e-21)
(0.534117 0.0172435 -2.55652e-20)
(1.05368 -0.0139386 5.47206e-20)
(1.45335 -0.00878842 9.51338e-20)
(1.75525 0.0136097 8.52703e-20)
(1.98513 0.0460367 -9.37188e-20)
(-4.25554 1.51257 5.01029e-20)
(-3.78832 1.1176 6.37905e-19)
(-3.23488 0.948355 0)
(-2.54547 0.730454 -1.0673e-19)
(-1.77024 0.524496 -9.30323e-21)
(-0.991473 0.35976 -2.90391e-20)
(-0.279469 0.246174 -1.87025e-19)
(0.332142 0.172695 2.66337e-20)
(0.833027 0.13133 2.51069e-20)
(1.22969 0.114949 9.61206e-20)
(1.55047 0.134923 -2.76093e-19)
(-4.59206 1.85938 0)
(-4.10693 1.27985 -5.93995e-20)
(-3.64046 1.19147 -3.01757e-19)
(-3.16607 1.06575 2.47423e-19)
(-2.58895 0.937035 -2.1102e-23)
(-1.92422 0.794028 0)
(-1.23716 0.644371 0)
(-0.592524 0.504057 5.55013e-20)
(-0.0278619 0.385711 -2.82978e-19)
(0.432262 0.292961 1.40662e-19)
(0.882812 0.269449 9.62286e-20)
(-3.67156 1.03919 3.19126e-20)
(-3.02757 0.997375 0)
(-2.86017 1.05876 -4.17211e-19)
(-2.76351 1.17239 2.9375e-19)
(-2.57803 1.27327 -4.5302e-19)
(-2.27523 1.29084 -1.93194e-20)
(-1.85985 1.22095 2.36437e-19)
(-1.39151 1.1022 0)
(-0.915851 0.958879 6.05445e-20)
(-0.49176 0.801956 0)
(0.0322981 0.63301 0)
(-2.64639 0.54443 -8.10297e-19)
(-1.72472 0.817865 -5.74858e-18)
(-0.467113 1.08121 -2.6344e-18)
(0.368237 1.12624 7.74403e-19)
(0.93731 1.11503 1.21774e-18)
(1.34456 1.06764 4.51141e-20)
(1.64857 1.01056 0)
(1.88624 0.956921 0)
(2.07773 0.91074 -4.89154e-20)
(2.23312 0.871503 -5.19592e-20)
(2.3526 0.838277 9.63255e-22)
(-0.894075 -2.83852 2.85916e-19)
(-0.296222 -1.68125 0)
(-0.210297 -0.933583 0)
(0.137122 -0.144278 7.37226e-20)
(0.603657 0.317164 0)
(1.05656 0.572339 -2.76806e-19)
(1.4226 0.687039 -9.40781e-19)
(1.70397 0.725501 6.94005e-19)
(1.92098 0.732666 -2.0699e-20)
(2.09025 0.727131 -3.84657e-19)
(2.21718 0.713617 3.86977e-20)
(0.361897 -3.29933 -2.77002e-18)
(1.04519 -1.90904 0)
(0.625326 -1.85606 -5.6771e-18)
(0.598835 -1.19249 4.25161e-18)
(0.689365 -0.638654 0)
(0.921713 -0.170481 2.2933e-19)
(1.20001 0.153632 -2.03385e-18)
(1.4702 0.355876 1.48775e-18)
(1.70366 0.472561 0)
(1.89027 0.537133 4.05652e-19)
(2.02906 0.568843 -2.92244e-19)
(1.28336 -3.00595 0)
(2.09045 -1.6375 0)
(1.50133 -2.04044 -2.91311e-18)
(1.3128 -1.50106 2.66461e-18)
(1.14766 -1.09357 0)
(1.14765 -0.646156 7.87578e-19)
(1.25463 -0.278004 -1.05302e-18)
(1.40837 -0.00722561 -1.10356e-18)
(1.57095 0.175939 1.53006e-19)
(1.71621 0.291567 4.7659e-19)
(1.82738 0.355561 0)
(1.85893 -2.4885 0)
(2.71908 -1.30061 0)
(2.17018 -1.89252 -3.43202e-19)
(1.96008 -1.4631 -1.57139e-19)
(1.68058 -1.24583 1.18668e-18)
(1.52827 -0.88497 -1.26752e-18)
(1.48087 -0.553598 7.23608e-19)
(1.51337 -0.266333 8.28547e-19)
(1.58893 -0.049141 0)
(1.67637 0.101539 0)
(1.74809 0.19252 0)
(2.17987 -1.97961 0)
(3.04204 -0.986602 1.41574e-18)
(2.59309 -1.61106 -6.46184e-19)
(2.41775 -1.24804 2.09936e-19)
(2.12313 -1.19071 0)
(1.90632 -0.924099 5.03463e-19)
(1.76171 -0.672348 4.84837e-19)
(1.69551 -0.417516 -1.44288e-18)
(1.68367 -0.204719 5.75903e-20)
(1.7009 -0.0420005 -3.21228e-19)
(1.71626 0.0659299 0)
(2.34178 -1.53128 -1.54951e-18)
(3.18951 -0.713898 8.85331e-19)
(2.83427 -1.31278 0)
(2.69303 -0.982307 2.39153e-19)
(2.4317 -1.03708 0)
(2.20889 -0.83259 0)
(2.01822 -0.670706 6.17339e-20)
(1.89166 -0.465835 -2.21423e-19)
(1.81371 -0.28065 8.06257e-20)
(1.77133 -0.124106 2.1246e-19)
(1.73966 -0.010067 2.45549e-19)
(2.42522 -1.15894 1.51109e-18)
(3.24608 -0.508318 -2.01161e-18)
(2.96831 -1.04238 4.99743e-19)
(2.8523 -0.729794 -4.12992e-19)
(2.61703 -0.85862 -4.51495e-19)
(2.4227 -0.681743 2.07654e-19)
(2.21935 -0.594062 5.22456e-20)
(2.06463 -0.438513 2.11145e-19)
(1.94626 -0.290622 0)
(1.86287 -0.153945 0)
(1.79808 -0.0475594 -2.41521e-19)
(2.47713 -0.84773 5.32073e-19)
(3.27614 -0.348622 -3.36336e-19)
(3.02814 -0.815149 5.2549e-19)
(2.95831 -0.503928 5.39173e-19)
(2.72427 -0.676019 -9.76466e-20)
(2.56014 -0.520788 -4.71362e-19)
(2.3619 -0.481349 -3.62746e-19)
(2.19915 -0.365874 3.56515e-20)
(2.06042 -0.255419 4.96591e-20)
(1.95283 -0.143718 0)
(1.868 -0.0500205 1.13874e-19)
(2.50032 -0.600124 4.40066e-19)
(3.30994 -0.185782 -1.01961e-19)
(3.05051 -0.611336 -5.09183e-19)
(3.02079 -0.322021 2.68045e-19)
(2.79156 -0.495788 -4.67552e-19)
(2.64553 -0.363659 6.46018e-19)
(2.45639 -0.356045 1.2064e-19)
(2.29471 -0.270642 -3.29959e-19)
(2.14768 -0.193459 1.42931e-19)
(2.02662 -0.108405 0)
(1.9292 -0.0363034 0)
(2.48126 -0.414666 -4.99391e-19)
(3.32159 -0.0203473 6.72751e-19)
(3.06375 -0.418314 -7.59044e-19)
(3.04799 -0.156761 3.22615e-19)
(2.82929 -0.328202 -2.33602e-19)
(2.69544 -0.212749 -2.88361e-19)
(2.51447 -0.229096 0)
(2.35671 -0.166315 1.5411e-19)
(2.20728 -0.117818 -1.41232e-19)
(2.07922 -0.0580138 -9.45226e-20)
(1.97394 -0.00678041 0)
(2.43464 -0.265104 0)
(3.30153 0.131304 -3.34324e-19)
(3.0602 -0.248907 2.50475e-19)
(3.05127 -0.00156712 0)
(2.8418 -0.174867 6.59979e-19)
(2.71781 -0.0693169 2.20198e-19)
(2.54381 -0.105701 -3.72232e-19)
(2.3906 -0.060036 2.34894e-19)
(2.24146 -0.036704 0)
(2.10962 -0.000325717 9.39129e-20)
(1.99962 0.0345248 -2.39457e-20)
(2.38317 -0.12943 4.44773e-19)
(3.26685 0.277379 -3.4865e-19)
(3.0401 -0.100882 -4.62349e-19)
(3.03802 0.145912 3.65101e-19)
(2.83353 -0.0361049 0)
(2.71828 0.0667482 -1.01675e-19)
(2.54939 0.0110447 5.94567e-20)
(2.40079 0.0441973 -1.09267e-19)
(2.25309 0.0448953 -1.42706e-19)
(2.11908 0.0590965 8.29637e-20)
(2.00369 0.0692262 7.2426e-20)
(2.31537 0.0102117 -2.34431e-20)
(3.20628 0.420698 -3.40097e-19)
(3.00899 0.0473333 -2.24544e-19)
(3.00596 0.277227 1.7713e-19)
(2.81003 0.0989494 2.69046e-19)
(2.69859 0.189947 -2.03006e-19)
(2.53492 0.123411 -3.85347e-20)
(2.38997 0.142457 1.17306e-19)
(2.24438 0.124538 -6.48055e-21)
(2.10991 0.118866 -3.47583e-20)
(1.98957 0.108812 -1.66112e-20)
(2.22439 0.139476 2.1591e-19)
(3.1233 0.545802 0)
(2.96432 0.187566 2.24549e-19)
(2.95768 0.394352 0)
(2.77318 0.229454 -5.6476e-20)
(2.66181 0.301072 1.38549e-19)
(2.5034 0.230686 -2.08269e-20)
(2.3611 0.233052 2.21167e-20)
(2.21811 0.200013 -4.68233e-21)
(2.08484 0.176384 3.45573e-20)
(1.96231 0.146521 0)
(2.12831 0.262214 -4.30102e-19)
(3.02296 0.658025 -2.85726e-19)
(2.90729 0.322102 -2.28012e-19)
(2.89513 0.499749 0)
(2.72376 0.354327 -1.89015e-19)
(2.60988 0.401763 -1.48867e-19)
(2.45675 0.331435 0)
(2.31673 0.315328 -1.92269e-19)
(2.17721 0.269176 0)
(2.04726 0.229256 0)
(1.92638 0.182594 0)
(2.02333 0.384027 1.76608e-20)
(2.90235 0.766488 1.74633e-19)
(2.83551 0.45588 0)
(2.81843 0.597578 -2.71119e-19)
(2.66129 0.473271 2.95034e-19)
(2.54366 0.493687 -3.01844e-19)
(2.396 0.423925 2.86821e-19)
(2.25874 0.388536 2.92678e-20)
(2.12461 0.329963 1.80701e-19)
(1.99964 0.274851 -9.17615e-20)
(1.88422 0.21007 8.40273e-20)
(1.901 0.500887 9.75271e-20)
(2.75618 0.869721 -3.10696e-19)
(2.74289 0.587336 8.19916e-22)
(2.72481 0.690142 4.06475e-19)
(2.58333 0.584962 -9.72264e-20)
(2.46291 0.577555 2.38254e-19)
(2.32164 0.505941 -2.92919e-19)
(2.18923 0.451252 -9.30252e-20)
(2.06232 0.380483 -1.82971e-19)
(1.94458 0.312476 2.82181e-20)
(1.83774 0.235129 -3.6803e-20)
(1.76156 0.611727 6.84875e-19)
(2.5811 0.968126 4.8722e-19)
(2.62243 0.71561 1.76337e-19)
(2.609 0.778518 3.10175e-19)
(2.48564 0.687277 3.92442e-21)
(2.3662 0.652256 -5.41182e-19)
(2.23393 0.574361 1.85499e-19)
(2.10986 0.501816 1.2748e-19)
(1.99307 0.419249 7.96701e-20)
(1.88618 0.339614 -9.43435e-20)
(1.79153 0.253039 1.79845e-21)
(1.60242 0.717417 -8.03923e-19)
(2.37004 1.06522 4.60265e-19)
(2.46333 0.841533 0)
(2.46168 0.863146 -4.79891e-19)
(2.36135 0.777482 5.28251e-19)
(2.25084 0.715174 6.41991e-19)
(2.13315 0.626466 -1.86655e-19)
(2.02285 0.537826 0)
(1.92101 0.444854 -1.17285e-19)
(1.82827 0.355981 8.58615e-20)
(1.74704 0.264885 -1.38428e-20)
(1.41234 0.813026 1.20829e-19)
(2.10873 1.16046 -5.58149e-19)
(2.24752 0.961489 0)
(2.26705 0.939885 0)
(2.19907 0.849983 -1.35411e-19)
(2.11132 0.761764 -3.84167e-19)
(2.018 0.659472 1.04525e-19)
(1.92963 0.557831 0)
(1.84813 0.456963 4.94182e-20)
(1.77298 0.361765 6.48596e-20)
(1.70745 0.267483 8.48696e-20)
(1.18333 0.901365 2.46823e-19)
(1.78134 1.25173 -1.88756e-19)
(1.95482 1.0697 1.04021e-19)
(2.00752 1.00408 2.22578e-19)
(1.98602 0.902696 1.5241e-19)
(1.93946 0.793991 1.81376e-20)
(1.88421 0.680269 6.99853e-20)
(1.82819 0.570439 -7.17033e-20)
(1.77392 0.465781 -5.24564e-20)
(1.72146 0.368417 1.45452e-19)
(1.67273 0.274624 -1.86203e-19)
(0.833363 0.863071 1.93152e-19)
(1.31761 1.26942 -6.07696e-20)
(1.52712 1.10309 -2.12459e-19)
(1.62991 1.00214 -1.18321e-19)
(1.67118 0.897345 -1.0849e-19)
(1.68452 0.786065 1.00054e-19)
(1.68276 0.674333 -4.69291e-20)
(1.67026 0.563369 -2.41573e-19)
(1.65103 0.455507 1.58609e-19)
(1.62648 0.356298 0)
(1.59325 0.275361 9.1488e-20)
(0.518789 1.05072 -8.48473e-20)
(0.760819 1.49767 -1.50446e-20)
(0.927333 1.32635 7.0655e-20)
(1.028 1.17777 4.27304e-20)
(1.09705 1.05479 4.71174e-19)
(1.12936 0.949382 -1.97698e-19)
(1.10941 0.869143 0)
(1.05182 0.811156 0)
(0.973604 0.764024 2.12574e-19)
(0.887586 0.720851 -1.90846e-19)
(0.822292 0.654363 -9.84524e-20)
(5.53995 -0.475703 -4.06917e-19)
(4.06071 -0.366559 9.78381e-19)
(3.9815 -0.223911 0)
(3.63693 -0.194748 5.51163e-20)
(3.26608 -0.186102 4.35997e-20)
(2.93858 -0.195916 -1.60046e-19)
(2.66762 -0.215096 -7.62372e-20)
(2.43845 -0.237637 1.63872e-19)
(2.24161 -0.262634 -3.51936e-20)
(2.07002 -0.288962 0)
(1.92563 -0.307326 1.55552e-19)
(3.9391 -0.734883 -9.90927e-19)
(2.49226 -0.877188 6.63957e-19)
(3.11902 -0.956583 -7.67761e-19)
(3.24069 -0.908356 -6.00375e-20)
(3.12553 -0.795169 -1.69438e-19)
(2.91928 -0.660358 6.87878e-21)
(2.70216 -0.563139 -2.90977e-20)
(2.48914 -0.50104 -1.03446e-19)
(2.29562 -0.466731 0)
(2.12271 -0.452909 -8.71402e-22)
(1.97647 -0.44829 -1.56204e-20)
(2.45056 0.342568 4.62145e-18)
(1.58597 -0.351508 -4.08125e-18)
(2.23548 -0.890537 -5.2724e-19)
(2.52914 -1.08842 5.84262e-19)
(2.66029 -1.11503 3.54423e-19)
(2.67603 -1.02166 0)
(2.59353 -0.881397 3.66688e-19)
(2.45229 -0.756866 6.87894e-20)
(2.29959 -0.671082 -1.8204e-19)
(2.14784 -0.619173 -2.3566e-20)
(2.01809 -0.59227 -8.9785e-20)
(1.88439 1.58628 7.46246e-18)
(1.47371 0.515107 -2.57523e-18)
(1.76607 -0.316334 8.74504e-19)
(1.97915 -0.794252 0)
(2.17794 -1.05898 -6.41718e-19)
(2.32138 -1.13033 6.67683e-19)
(2.37093 -1.06714 -3.94999e-19)
(2.33443 -0.951292 -7.27551e-20)
(2.24709 -0.841338 1.79269e-19)
(2.13949 -0.76654 1.58265e-19)
(2.04235 -0.721034 5.4123e-21)
(1.90884 2.55696 2.3803e-18)
(1.63042 1.34285 -2.23421e-19)
(1.64009 0.39985 -2.37025e-19)
(1.72042 -0.275268 0)
(1.865 -0.749389 8.20528e-19)
(2.02021 -1.00762 -4.95237e-19)
(2.13088 -1.07997 0)
(2.1742 -1.03716 -1.35092e-19)
(2.15879 -0.952154 8.30516e-20)
(2.10233 -0.875822 -8.52525e-20)
(2.0441 -0.824203 1.2267e-19)
(2.25869 3.26493 -1.43669e-19)
(1.89702 2.06632 -2.93979e-18)
(1.72233 1.0798 2.17301e-18)
(1.67733 0.283063 0)
(1.72944 -0.333841 -1.44548e-19)
(1.83466 -0.746212 -7.86117e-19)
(1.94492 -0.958152 5.95357e-19)
(2.02399 -1.01613 0)
(2.05899 -0.987582 9.07868e-20)
(2.05036 -0.934776 -1.03481e-19)
(2.03247 -0.893254 -5.75608e-20)
(2.74023 3.77594 0)
(2.20489 2.70723 2.21613e-20)
(1.91792 1.69372 -1.95764e-18)
(1.75979 0.82002 1.19668e-19)
(1.71481 0.10605 1.0761e-18)
(1.75081 -0.421998 -9.12711e-20)
(1.82803 -0.754209 4.81212e-19)
(1.90908 -0.914421 -3.6323e-19)
(1.97001 -0.956193 0)
(1.99771 -0.94161 0)
(2.01427 -0.920706 0)
(3.01105 4.04614 0)
(2.46254 3.22952 2.36848e-18)
(2.14606 2.23276 -1.56202e-18)
(1.89884 1.32912 7.30752e-20)
(1.76885 0.548089 0)
(1.73552 -0.0698775 8.91766e-20)
(1.76721 -0.502093 0)
(1.83056 -0.75582 -5.97529e-19)
(1.89879 -0.870381 4.49026e-19)
(1.95104 -0.901569 2.38083e-19)
(1.99374 -0.905768 -4.65402e-19)
(3.14656 4.07239 2.89597e-18)
(2.68024 3.58584 0)
(2.38037 2.70772 -2.11456e-19)
(2.07001 1.82013 1.41647e-19)
(1.86771 0.993235 -2.16038e-19)
(1.76664 0.302685 6.12818e-19)
(1.74621 -0.213912 -4.64618e-19)
(1.7804 -0.551812 5.70653e-19)
(1.84328 -0.737483 -3.79483e-20)
(1.91076 -0.818232 0)
(1.97591 -0.85107 0)
(3.28646 4.05353 3.10253e-18)
(2.91013 3.82152 0)
(2.63148 3.12092 -3.93197e-19)
(2.27737 2.29033 -2.93275e-19)
(2.00637 1.44292 1.44511e-18)
(1.83474 0.69761 -6.19892e-19)
(1.75576 0.109755 -8.09069e-19)
(1.75171 -0.303759 1.44154e-18)
(1.79935 -0.55768 -4.40941e-19)
(1.87411 -0.690494 -7.18852e-19)
(1.95965 -0.755508 3.35935e-19)
(3.39453 4.00415 0)
(3.07796 3.92578 1.77229e-18)
(2.85666 3.4202 -1.1804e-18)
(2.49892 2.70609 8.18484e-19)
(2.1738 1.88174 -8.40459e-19)
(1.93254 1.10834 2.89855e-19)
(1.79073 0.466679 0)
(1.7413 -0.011118 -2.8179e-19)
(1.76571 -0.328039 3.39511e-19)
(1.84038 -0.513523 -6.80712e-19)
(1.94578 -0.615343 4.47506e-20)
(3.47332 3.94841 7.61713e-20)
(3.19177 3.96142 2.32538e-18)
(3.03754 3.59723 3.77387e-19)
(2.70563 3.03533 2.77271e-19)
(2.34999 2.28385 -1.18355e-18)
(2.04953 1.51843 -2.66568e-19)
(1.8464 0.847834 7.62299e-19)
(1.74844 0.323025 -6.93756e-20)
(1.74423 -0.0469431 2.84574e-19)
(1.81205 -0.281951 -2.41573e-19)
(1.93221 -0.423559 2.70346e-19)
(3.53455 3.87937 2.59589e-18)
(3.27373 3.95465 -1.54626e-18)
(3.17213 3.68394 -3.74085e-19)
(2.87757 3.27327 1.07362e-18)
(2.51852 2.63097 -8.19906e-19)
(2.17689 1.91113 1.13562e-18)
(1.9202 1.24246 3.91399e-19)
(1.7754 0.693031 -5.19881e-19)
(1.74071 0.284008 -3.41516e-19)
(1.79759 0.00524638 -7.50678e-19)
(1.92606 -0.177178 2.69201e-19)
(3.57805 3.79804 0)
(3.33212 3.91435 -4.86497e-19)
(3.26032 3.70728 1.81215e-18)
(3.01243 3.42948 -5.58603e-20)
(2.67098 2.91413 -1.20887e-18)
(2.31084 2.27244 -1.12481e-18)
(2.0139 1.63724 -3.92449e-19)
(1.82864 1.08845 5.20583e-19)
(1.76506 0.657685 0)
(1.809 0.344147 7.14885e-19)
(1.94434 0.119258 -4.28236e-19)
(3.59891 3.70689 0)
(3.36328 3.8504 0)
(3.30569 3.67988 -3.66889e-19)
(3.10569 3.50545 -1.05603e-18)
(2.80498 3.13097 5.69861e-20)
(2.44562 2.58358 -2.01053e-19)
(2.12739 2.00923 8.7797e-20)
(1.91402 1.48797 5.40336e-19)
(1.82822 1.05599 -2.9473e-19)
(1.86 0.720356 2.91266e-19)
(1.99453 0.460177 -3.04172e-20)
(3.60503 3.6052 0)
(3.3749 3.76853 1.88011e-18)
(3.3271 3.62186 -2.5316e-18)
(3.15412 3.50464 1.36606e-18)
(2.91201 3.26403 3.92384e-19)
(2.57965 2.83635 2.77956e-19)
(2.25888 2.3371 -6.99869e-19)
(2.03528 1.86733 -1.49551e-19)
(1.93928 1.45445 6.24622e-19)
(1.9648 1.10958 1.1037e-19)
(2.1015 0.81277 -7.49317e-20)
(3.60117 3.49184 0)
(3.37414 3.67185 2.36501e-19)
(3.33298 3.54029 1.04439e-18)
(3.18276 3.46311 -1.62336e-18)
(2.9813 3.30339 7.39909e-19)
(2.71186 3.01911 -5.64527e-19)
(2.40397 2.60509 0)
(2.19211 2.20356 4.7017e-19)
(2.103 1.82655 -1.36018e-19)
(2.13137 1.48608 2.94107e-19)
(2.26969 1.16057 3.46604e-20)
(3.5829 3.37261 0)
(3.35772 3.55995 -2.45448e-19)
(3.32257 3.43892 0)
(3.19212 3.39039 2.69071e-19)
(3.02713 3.28528 0)
(2.81268 3.10138 0)
(2.56008 2.80681 -1.81318e-19)
(2.37855 2.47544 -6.56472e-19)
(2.31637 2.1464 4.50573e-19)
(2.36161 1.81894 -2.60025e-19)
(2.50092 1.47471 8.29634e-20)
(3.55801 3.25299 -2.73581e-18)
(3.33253 3.43839 -3.09191e-20)
(3.30039 3.32533 0)
(3.18506 3.29633 -3.37005e-20)
(3.05135 3.22977 7.04946e-19)
(2.88896 3.11473 -5.71343e-19)
(2.708 2.92595 2.33397e-19)
(2.5839 2.67039 -4.36544e-19)
(2.56945 2.39323 7.32054e-20)
(2.64719 2.08381 1.62814e-19)
(2.80191 1.71702 6.41846e-20)
(3.52901 3.13682 -4.28251e-18)
(3.29675 3.31413 4.26672e-18)
(3.26297 3.20767 -1.58247e-18)
(3.16142 3.19262 3.56112e-20)
(3.0563 3.1525 1.02141e-19)
(2.94285 3.08417 0)
(2.83674 2.96843 -4.87943e-20)
(2.79339 2.78087 0)
(2.84346 2.54798 0)
(2.96849 2.25671 -2.869e-20)
(3.14931 1.87169 5.07837e-20)
(3.46202 3.01952 0)
(3.24525 3.18222 1.41786e-19)
(3.20967 3.08771 0)
(3.12579 3.0783 0)
(3.04867 3.05039 -5.48517e-20)
(2.98155 3.00469 0)
(2.95223 2.91496 -1.93771e-19)
(2.99934 2.75902 3.09312e-19)
(3.12501 2.53612 8.67265e-20)
(3.31028 2.23857 3.78636e-20)
(3.52355 1.82561 -2.44193e-19)
(3.38763 2.88041 2.93808e-20)
(3.1776 3.04032 1.16309e-18)
(3.15382 2.94135 0)
(3.08878 2.92321 -6.83226e-19)
(3.03783 2.87555 5.07621e-19)
(3.01707 2.80115 3.53039e-19)
(3.05856 2.67305 -5.01861e-19)
(3.17802 2.47303 -8.46319e-20)
(3.36497 2.19868 6.11033e-20)
(3.59796 1.86706 0)
(3.83751 1.45893 -2.51494e-19)
(3.15962 2.77918 2.2528e-18)
(3.10913 2.84787 -1.18986e-18)
(3.08466 2.74075 2.30324e-18)
(3.04237 2.66971 -8.2978e-19)
(3.02437 2.55307 0)
(3.0472 2.39365 0)
(3.13324 2.17522 -6.36508e-19)
(3.28196 1.90485 4.51536e-19)
(3.47712 1.62295 -6.23826e-19)
(3.70908 1.35039 -3.62578e-19)
(3.93769 1.01601 1.12273e-18)
(3.05429 2.22038 3.12035e-18)
(3.02793 2.43261 -2.68466e-18)
(3.08378 2.24179 -7.33924e-19)
(3.07466 2.08367 5.18289e-19)
(3.06351 1.91828 0)
(3.08304 1.73153 -4.95713e-19)
(3.15053 1.53391 6.90977e-19)
(3.26792 1.34967 1.96207e-20)
(3.43281 1.16583 -3.87133e-19)
(3.64999 0.95409 4.90629e-19)
(3.88294 0.655633 -6.501e-19)
(4.85176 2.07194 7.80929e-19)
(4.19197 1.91413 -5.5562e-19)
(3.76939 1.24229 -2.39764e-19)
(3.40591 0.762331 -7.25013e-19)
(3.08523 0.452377 3.38217e-19)
(2.80642 0.249509 1.31147e-19)
(2.5653 0.111076 0)
(2.35513 0.0111787 8.05543e-20)
(2.1706 -0.0660889 1.49126e-19)
(2.00758 -0.128048 0)
(1.86511 -0.171836 -1.8261e-19)
(1.74659 3.22332 5.15762e-18)
(2.54063 2.66768 7.39269e-19)
(2.78012 2.13883 7.59098e-19)
(2.84207 1.56921 0)
(2.77616 1.09561 0)
(2.63636 0.732967 -6.64594e-19)
(2.4627 0.469144 -2.76878e-19)
(2.28251 0.279978 -2.07043e-19)
(2.11095 0.141339 0)
(1.95332 0.036472 0)
(1.81288 -0.0367544 1.80221e-19)
(0.426093 2.79096 -4.02635e-19)
(1.12279 2.43916 -3.67052e-18)
(1.68132 2.30079 2.05518e-18)
(2.08948 1.94388 -3.09558e-19)
(2.27707 1.51687 0)
(2.31418 1.11989 6.74165e-19)
(2.25579 0.792949 2.48837e-19)
(2.14476 0.539312 2.48229e-19)
(2.01264 0.34722 -5.41471e-20)
(1.87632 0.203189 -1.63481e-19)
(1.74355 0.102553 2.28665e-19)
(0.0459703 2.26934 3.64628e-19)
(0.599279 1.96531 -1.11215e-19)
(0.891004 2.04666 8.64599e-20)
(1.28846 1.91684 2.5056e-18)
(1.64954 1.66921 -1.64797e-18)
(1.87843 1.34675 6.81136e-19)
(1.96509 1.02179 -6.87973e-19)
(1.94746 0.74184 1.59048e-19)
(1.875 0.517249 -1.33808e-19)
(1.77724 0.342992 1.12812e-19)
(1.66826 0.218376 -1.31963e-19)
(-0.0399212 1.801 1.43655e-18)
(0.397448 1.52262 2.90473e-18)
(0.550044 1.68908 -2.17155e-18)
(0.849109 1.68552 0)
(1.14942 1.58855 -7.2136e-20)
(1.40558 1.39881 -5.16962e-20)
(1.58192 1.15383 5.4304e-19)
(1.671 0.897393 -4.0312e-19)
(1.68153 0.66416 -5.0092e-19)
(1.63956 0.469353 2.88401e-19)
(1.56587 0.323518 -3.71429e-20)
(-0.00313987 1.44122 1.8059e-18)
(0.331221 1.18367 -1.39153e-18)
(0.396507 1.36128 1.48563e-18)
(0.619238 1.40416 -1.13266e-18)
(0.858608 1.3912 6.78391e-20)
(1.09099 1.30115 -4.87556e-19)
(1.28073 1.14478 1.47861e-18)
(1.40743 0.949251 -7.12753e-19)
(1.46975 0.745262 3.76276e-19)
(1.47939 0.555699 -1.58909e-19)
(1.4498 0.406542 3.07496e-20)
(0.0983587 1.18514 -3.28264e-20)
(0.341887 0.945806 0)
(0.349896 1.10894 -8.36e-20)
(0.511069 1.16163 0)
(0.685804 1.18722 -6.7707e-19)
(0.872379 1.15542 3.6671e-19)
(1.04484 1.06333 0)
(1.1817 0.922882 -2.72779e-19)
(1.27252 0.756194 7.18163e-19)
(1.31993 0.583894 -7.6765e-19)
(1.3261 0.4386 2.87943e-19)
(0.224423 1.01538 1.63956e-19)
(0.388429 0.793687 0)
(0.362112 0.933709 1.6028e-19)
(0.478815 0.981337 5.85865e-19)
(0.598408 1.02043 -3.84841e-19)
(0.735611 1.01705 7.3283e-19)
(0.873794 0.963872 -5.60353e-19)
(0.996849 0.863907 -6.40722e-19)
(1.09406 0.73013 5.51849e-19)
(1.16455 0.578882 1.99052e-19)
(1.19946 0.441611 2.472e-19)
(0.356766 0.904901 -5.50262e-20)
(0.456019 0.70013 4.25308e-20)
(0.40435 0.820193 -5.80162e-20)
(0.489961 0.859208 -1.01824e-20)
(0.56411 0.901022 0)
(0.65598 0.908519 -4.62248e-19)
(0.754606 0.874463 7.33447e-19)
(0.850887 0.797458 -5.23258e-19)
(0.938503 0.683635 -7.2017e-20)
(1.01607 0.543683 0)
(1.06736 0.40696 1.67144e-19)
(0.503207 0.837819 0)
(0.536927 0.643033 5.36194e-20)
(0.465874 0.752671 -6.06176e-20)
(0.528492 0.783083 -1.6116e-19)
(0.562141 0.824233 -4.61364e-20)
(0.613568 0.833322 3.91657e-19)
(0.671956 0.80556 -3.55283e-20)
(0.73453 0.737719 6.52528e-20)
(0.8014 0.633012 -1.68832e-19)
(0.872483 0.498193 0)
(0.929435 0.363654 1.14369e-19)
(0.655256 0.824736 -3.48363e-19)
(0.632534 0.624001 1.73571e-19)
(0.557387 0.718718 -1.43987e-19)
(0.586798 0.742299 0)
(0.58322 0.782707 -3.28022e-20)
(0.598647 0.7877 -8.48461e-20)
(0.61715 0.7581 1.41971e-19)
(0.642544 0.689086 -5.75344e-20)
(0.68105 0.584474 0)
(0.737535 0.449289 0)
(0.793691 0.31843 -3.40568e-20)
(0.813564 0.850464 3.24451e-19)
(0.751008 0.644273 -3.65564e-20)
(0.666469 0.719052 2.80966e-20)
(0.657696 0.736863 1.16754e-19)
(0.628574 0.767792 3.23576e-20)
(0.609546 0.765711 2.3252e-20)
(0.589615 0.728732 2.66373e-23)
(0.576053 0.650581 -7.23378e-20)
(0.579849 0.537038 6.14908e-21)
(0.614917 0.394043 -5.77609e-20)
(0.663231 0.255156 6.17322e-20)
(0.981774 0.896974 5.03862e-19)
(0.886869 0.693674 6.68421e-19)
(0.789221 0.743722 -3.99123e-19)
(0.749865 0.757002 4.58006e-20)
(0.696515 0.774806 0)
(0.645967 0.761056 0)
(0.591974 0.710844 1.14825e-19)
(0.541818 0.6183 7.15561e-20)
(0.508495 0.489428 -1.09904e-19)
(0.514666 0.330823 1.43222e-19)
(0.54701 0.170485 -9.71168e-20)
(1.16773 0.961648 4.77924e-19)
(1.04302 0.76526 5.74783e-19)
(0.931989 0.789958 -6.34108e-19)
(0.865899 0.795118 -4.14908e-19)
(0.789927 0.797819 2.76124e-19)
(0.71202 0.76943 -3.77868e-19)
(0.628551 0.701718 4.50677e-19)
(0.546198 0.5888 -2.09195e-19)
(0.478486 0.436561 -2.85758e-20)
(0.45147 0.255359 1.63502e-19)
(0.466206 0.0672979 9.40546e-20)
(1.36451 1.04214 0)
(1.21106 0.857628 -6.92764e-19)
(1.09282 0.855989 6.12104e-19)
(1.00669 0.848342 -4.23081e-19)
(0.912152 0.833801 -1.76118e-19)
(0.812374 0.787935 2.57952e-19)
(0.705319 0.699849 3.80092e-19)
(0.596923 0.562793 -1.25619e-19)
(0.500678 0.381735 -2.42929e-19)
(0.44234 0.171397 -7.2034e-20)
(0.442439 -0.0532789 1.66842e-19)
(1.56406 1.12299 -1.12609e-18)
(1.38824 0.960295 5.87137e-19)
(1.27049 0.935785 -6.97397e-19)
(1.17235 0.913595 2.73469e-19)
(1.06544 0.881014 -2.22471e-19)
(0.950994 0.815972 3.16294e-19)
(0.828027 0.705693 0)
(0.701979 0.542198 2.05253e-19)
(0.58611 0.328872 -3.51491e-20)
(0.502959 0.0841268 -3.69489e-19)
(0.497895 -0.183545 1.44649e-19)
(1.76152 1.20024 1.29039e-18)
(1.57227 1.06691 -1.71502e-18)
(1.46274 1.02452 1.63465e-18)
(1.36098 0.988553 -4.82837e-19)
(1.24951 0.938857 -4.92889e-19)
(1.12933 0.854661 3.77837e-19)
(1.00023 0.721942 -8.02635e-20)
(0.867395 0.531475 0)
(0.743599 0.284958 -2.49725e-19)
(0.646604 0.00317497 5.05685e-19)
(0.627434 -0.298877 -3.80626e-19)
(1.95071 1.27417 2.495e-21)
(1.75713 1.17515 6.18741e-19)
(1.66358 1.11953 0)
(1.567 1.0718 0)
(1.46008 1.00722 0)
(1.34457 0.905625 -1.4937e-20)