/*--------------------------------*- C++ -*----------------------------------*\
| =========                 |                                                 |
| \\      /  F ield         | OpenFOAM: The Open Source CFD Toolbox           |
|  \\    /   O peration     | Version:  3.0.1                                 |
|   \\  /    A nd           | Web:      www.OpenFOAM.org                      |
|    \\/     M anipulation  |                                                 |
\*---------------------------------------------------------------------------*/
FoamFile
{
    version     2.0;
    format      ascii;
    class       volScalarField;
    location    "0.606405";
    object      epsilon;
}
// * * * * * * * * * * * * * * * * * * * * * * * * * * * * * * * * * * * * * //

dimensions      [0 2 -3 0 0 0 0];

internalField   nonuniform List<scalar> 
21246
(
312.937
103.198
30.6674
5.9677
1.21995
0.308678
0.114796
0.0621619
0.042512
0.0325901
0.0261772
420.262
126.367
25.6629
6.05181
1.46049
0.395129
0.136457
0.0651965
0.0401744
0.0287487
0.0222298
481.125
150.288
23.5512
6.61029
1.76328
0.518555
0.170867
0.0746209
0.0416678
0.0275536
0.0201172
495.272
141.88
21.8098
6.79533
1.82525
0.588587
0.197494
0.0843814
0.0445604
0.0278177
0.019465
487.789
122.723
20.11
6.50704
1.72924
0.613313
0.212737
0.0924378
0.0479922
0.0290493
0.0197608
477.256
105.97
18.5745
5.97318
1.60404
0.606802
0.218013
0.0978783
0.0510002
0.0304729
0.0204032
464.135
93.8112
17.2276
5.39791
1.4928
0.583157
0.216924
0.100951
0.0533184
0.0318247
0.0210398
445.995
84.701
16.0052
4.88738
1.39442
0.553264
0.212839
0.102425
0.0550681
0.0331414
0.0220275
430.145
77.826
14.9486
4.47799
1.31357
0.525398
0.208452
0.103289
0.0565839
0.0344531
0.02296
421.424
73.4841
14.2087
4.19144
1.25769
0.50501
0.205727
0.104445
0.0582023
0.035856
0.0238817
414.064
71.9649
13.7514
4.00405
1.22498
0.492776
0.205412
0.106425
0.060208
0.0375043
0.0250393
405.183
71.6701
13.4487
3.87946
1.20929
0.487531
0.20764
0.10954
0.0628442
0.0395651
0.0263939
397.305
73.1363
13.6596
3.87931
1.21865
0.491123
0.213301
0.114268
0.0664253
0.0422653
0.0281921
390.206
77.5883
15.1328
4.17865
1.3178
0.521102
0.228702
0.122695
0.0719556
0.0461198
0.030819
384.369
82.2812
17.2014
4.73589
1.5053
0.582304
0.256571
0.136282
0.0802548
0.0516284
0.0345889
380.765
87.8298
20.1229
5.68468
1.83949
0.69762
0.305084
0.158587
0.0928732
0.0596217
0.0400539
379.121
95.6575
24.5404
7.32977
2.45321
0.922809
0.396047
0.198377
0.113505
0.071902
0.0482263
381.529
104.985
30.2541
9.82931
3.50108
1.34804
0.574143
0.276282
0.151363
0.0927566
0.0612891
389.275
116.542
37.6992
13.5424
5.26285
2.15424
0.941437
0.445285
0.232668
0.134969
0.0856289
404.804
131.486
47.6567
19.0633
8.20624
3.6781
1.71697
0.836501
0.431471
0.238748
0.14268
432.964
151.552
61.3889
27.4643
13.1591
6.54471
3.35074
1.75576
0.944867
0.525888
0.305493
484.244
178.224
80.7114
40.4739
21.621
11.9516
6.76208
3.88366
2.25956
1.33347
0.80137
576.4
213.799
107.918
60.9367
36.3592
22.2807
13.8861
8.7412
5.54182
3.53635
2.2737
822.475
253.942
152.963
100.305
67.2374
45.2462
30.5994
20.7701
14.1404
9.6586
6.61931
433.403
141.63
29.249
5.96793
1.22072
0.324801
0.131445
0.0778268
0.0571705
0.0464767
0.0393591
714.086
357.578
32.2513
7.82964
1.64156
0.453764
0.177325
0.103046
0.0760223
0.0626465
0.0536337
828.932
451.418
38.9407
9.96581
2.0434
0.615286
0.241971
0.143371
0.110734
0.0971709
0.0893446
818.076
392.26
41.8841
10.6846
2.2082
0.744184
0.306391
0.189689
0.153516
0.141907
0.138065
753.838
310.469
40.208
10.0413
2.20867
0.823049
0.362566
0.23612
0.197949
0.188898
0.189296
680.716
247.764
36.5532
8.92303
2.13674
0.858787
0.407696
0.281966
0.246955
0.247264
0.264834
612.521
203.633
32.661
7.85268
2.04268
0.868909
0.444379
0.327095
0.300239
0.316796
0.364179
550.282
171.282
28.983
6.94883
1.94786
0.868901
0.476293
0.371221
0.35553
0.391915
0.473884
499.946
147.426
25.822
6.23659
1.86803
0.869496
0.506169
0.413896
0.408947
0.461665
0.5615
461.835
129.558
23.282
5.69296
1.81478
0.875255
0.535987
0.45475
0.4583
0.524541
0.647923
433.72
118.011
21.4307
5.31208
1.79823
0.887628
0.567529
0.4932
0.502133
0.577495
0.721527
410.173
110.225
20.3436
5.14778
1.82174
0.910175
0.603805
0.52905
0.540641
0.618379
0.773128
391.544
105.279
20.5212
5.30947
1.9338
0.960249
0.652617
0.566099
0.57751
0.651915
0.806852
376.905
103.757
22.1795
5.90704
2.17176
1.0558
0.717188
0.607587
0.612902
0.678553
0.82081
365.926
104.114
24.7316
6.94263
2.57556
1.21916
0.805641
0.658869
0.648316
0.699127
0.817531
358.726
106.564
28.3283
8.57146
3.24489
1.50023
0.940505
0.730881
0.688745
0.7165
0.80192
355.338
111.419
33.2623
11.038
4.35232
1.99698
1.17283
0.848607
0.747358
0.738385
0.783691
356.528
118.947
39.77
14.6301
6.15136
2.88499
1.61028
1.07179
0.857894
0.784359
0.777174
363.442
129.93
48.4613
19.8273
9.04703
4.47856
2.47499
1.54347
1.10976
0.909521
0.819161
377.667
145.704
60.4875
27.5152
13.7515
7.35237
4.21507
2.5936
1.73565
1.27355
1.01741
402.342
167.577
77.6125
39.3256
21.6518
12.6444
7.75083
4.95329
3.30488
2.31152
1.69751
442.432
197.412
103.06
58.6359
35.8239
22.9337
15.1643
10.2846
7.14394
5.08266
3.70206
503.517
224.923
132.227
85.22
57.9923
40.798
29.1876
21.4215
16.0657
12.2881
9.57296
1022.75
430.061
243.795
155.604
106.404
74.9582
53.6861
38.5855
27.7755
20.0091
14.4242
620.451
257.372
57.7226
15.1231
3.88446
1.18446
0.530647
0.351217
0.293589
0.276434
0.278413
802.923
417.139
114.065
25.1203
6.07048
1.69286
0.657441
0.394201
0.320321
0.303987
0.31366
803.805
413.844
147.069
40.9364
9.39208
2.32621
0.82616
0.449272
0.350055
0.331864
0.349683
680.24
365.195
155.549
50.3105
13.1738
2.99905
1.00574
0.509159
0.379929
0.357334
0.380975
530.974
321.675
154.51
56.112
16.5445
4.02663
1.19168
0.569067
0.408358
0.379031
0.403894
399.277
285.705
151.611
61.7036
20.439
5.49625
1.53748
0.63385
0.434702
0.396744
0.420794
290.505
255.602
148.473
67.5516
25.1493
7.59105
2.14296
0.771001
0.466531
0.411182
0.43479
204.697
229.952
145.452
73.2813
30.4664
10.3805
3.12755
1.03335
0.527082
0.427562
0.444312
141.85
207.548
143.457
79.1372
36.4061
13.9644
4.64344
1.51918
0.653957
0.458289
0.453477
98.1401
187.804
142.879
85.5703
43.1622
18.5141
6.88908
2.37808
0.920176
0.529049
0.470458
70.5774
172.225
143.781
92.467
50.5388
23.946
9.96096
3.76237
1.43255
0.689981
0.513456
60.865
163.255
146.985
100.114
58.3445
30.0385
13.8151
5.77284
2.3121
1.01965
0.619705
66.7599
156.441
152.314
109.576
67.2207
36.9708
18.511
8.51703
3.69607
1.62831
0.854254
73.967
141.832
155.593
121.317
78.3007
45.3669
24.3037
12.1508
5.73995
2.65646
1.31686
73.5078
117.345
149.166
132.29
91.7141
55.7733
31.4987
16.8373
8.58915
4.25396
2.1383
66.9775
89.9171
129.172
135.589
105.372
68.423
40.6061
22.916
12.468
6.60545
3.48024
57.2173
65.6617
101.077
125.414
113.773
81.7201
51.7169
30.7657
17.6906
9.95162
5.54158
47.3575
46.6147
73.2298
103.399
110.979
91.3164
63.3796
40.2549
24.4745
14.5428
8.54867
39.0042
32.6874
50.0111
76.3542
95.6856
92.2404
72.4648
50.3142
32.7046
20.5522
12.7122
33.1423
23.3873
32.8243
51.5791
73.463
83.4456
75.9498
59.0416
41.6432
27.8102
18.0749
33.0874
19.6141
23.4763
34.7841
53.181
69.6361
73.1718
64.2079
49.5119
35.1633
23.8979
48.3112
26.8478
26.9685
33.3345
43.4385
56.4739
65.2623
62.9227
52.6209
39.5286
27.7939
150.144
73.6453
70.7579
68.3065
63.861
58.227
52.2743
45.9582
39.6478
32.6069
24.3016
256.393
193.878
164.822
149.17
135.377
119.522
100.638
80.2254
61.2132
44.9369
30.853
551.695
147.628
42.8817
10.5318
2.8205
0.967579
0.478516
0.328378
0.273896
0.253006
0.2476
488.83
120.103
33.8242
10.7916
3.22623
1.11546
0.520806
0.336009
0.268118
0.239272
0.226419
480.802
137.355
34.9337
12.7639
4.36532
1.54364
0.651506
0.374626
0.27847
0.239269
0.221065
429.786
131.203
32.9303
12.98
4.89141
1.88867
0.816007
0.442191
0.306209
0.250947
0.22573
374.058
111.35
30.1516
12.4578
4.8374
1.92857
0.860151
0.481308
0.336377
0.273918
0.243952
327.836
92.4285
27.2994
11.5631
4.58932
1.90221
0.87984
0.506068
0.360622
0.298508
0.270377
291.238
77.7589
24.8103
10.6749
4.31048
1.84488
0.883158
0.522509
0.380744
0.320991
0.295301
261.31
66.6737
22.6967
9.91925
4.07358
1.795
0.88202
0.534368
0.396484
0.33929
0.316087
238.671
58.4329
21.0219
9.33386
3.92045
1.77249
0.888928
0.548084
0.412435
0.357764
0.339308
222.203
52.3861
19.7676
8.94876
3.86302
1.78307
0.910818
0.568008
0.430699
0.37627
0.359421
210.703
48.212
18.9297
8.75447
3.90015
1.83629
0.952456
0.597346
0.453469
0.396355
0.377999
202.533
45.1556
18.3601
8.7178
4.01909
1.9333
1.01669
0.638608
0.482957
0.420634
0.400699
197.851
43.0348
18.0521
8.8382
4.22666
2.08151
1.10889
0.695022
0.521129
0.450462
0.428882
195.379
42.7875
18.204
9.18521
4.57018
2.30998
1.24496
0.774191
0.57117
0.487022
0.459775
194.98
43.5036
18.7154
9.72864
5.06741
2.6513
1.4548
0.896599
0.645999
0.538075
0.498884
197.012
45.2517
19.663
10.5015
5.73796
3.13265
1.76495
1.08411
0.760862
0.614555
0.555463
201.87
48.3013
21.1905
11.5789
6.62635
3.79652
2.21685
1.37284
0.944039
0.738381
0.649247
210.688
52.7449
23.4442
13.0615
7.79639
4.6996
2.86912
1.81871
1.24416
0.950403
0.818227
225.124
59.0233
26.6951
15.1341
9.36775
5.93519
3.80992
2.50827
1.74244
1.32364
1.12882
248.262
68.1451
31.499
18.152
11.5776
7.67316
5.18405
3.57864
2.57113
1.98366
1.70124
286.458
82.1062
38.8779
22.7914
14.8952
10.2505
7.25703
5.26241
3.94931
3.14124
2.73381
354.534
105.038
50.9793
30.4512
20.3112
14.3909
10.5793
8.00805
6.27126
5.16495
4.58201
493.614
152.918
75.4331
45.5732
30.7834
22.2171
16.7481
13.0702
10.5785
8.99484
8.18297
916.423
261.025
135.152
86.53
61.6579
46.7064
36.8902
30.2622
25.9193
23.3997
21.7442
174.039
54.0677
29.1312
16.6465
8.95607
4.36848
1.9596
0.843103
0.358841
0.154341
0.0708761
174.165
53.1265
27.8352
15.5133
8.1384
3.91186
1.74409
0.742705
0.311017
0.131655
0.0592587
134.788
50.4973
27.6633
16.0039
8.61065
4.18429
1.86067
0.782719
0.322213
0.133062
0.0577953
106.848
44.1555
26.0989
16.2229
9.2788
4.70835
2.13957
0.901651
0.363369
0.144238
0.0602032
88.313
37.9047
23.5624
15.5265
9.45368
5.07869
2.39228
1.01257
0.400232
0.15422
0.0621239
76.4558
32.8154
21.1191
14.4234
9.09501
5.06855
2.46664
1.06808
0.426865
0.164585
0.0662343
67.0335
28.6573
18.9879
13.3147
8.60295
4.92078
2.45519
1.08622
0.442006
0.172759
0.0697641
61.0453
25.7092
17.245
12.2576
8.05921
4.69732
2.38993
1.07769
0.446677
0.17795
0.0744828
56.3702
23.5101
15.8196
11.3335
7.54065
4.45533
2.30231
1.05631
0.446265
0.181706
0.0777746
52.639
21.8271
14.6879
10.5764
7.09647
4.23586
2.21598
1.0318
0.443523
0.183989
0.079346
49.5158
20.4818
13.7773
9.96099
6.72829
4.04948
2.13989
1.00855
0.43962
0.184893
0.0811532
47.2635
19.3836
13.0219
9.44679
6.41744
3.89098
2.07479
0.988307
0.435817
0.185261
0.0818476
45.7821
18.5209
12.412
9.03341
6.17109
3.76889
2.0269
0.974766
0.434158
0.18627
0.0832915
44.6416
17.8957
11.9561
8.73321
6.00387
3.69538
2.00429
0.972189
0.43662
0.188799
0.0859042
44.2365
17.4576
11.617
8.52109
5.90219
3.66634
2.00751
0.982263
0.444428
0.193321
0.0880912
44.5226
17.2026
11.3962
8.40303
5.87574
3.69182
2.04414
1.0094
0.459669
0.200556
0.0912221
45.2397
17.1614
11.3172
8.40214
5.94787
3.79191
2.12802
1.06101
0.485517
0.211564
0.0955972
46.9612
17.4231
11.4031
8.52674
6.13127
3.98322
2.27397
1.1464
0.526545
0.228222
0.101486
50.053
18.074
11.6991
8.80717
6.45813
4.30734
2.51981
1.28657
0.591655
0.254502
0.110998
55.0641
19.2762
12.287
9.2719
6.93559
4.77108
2.88857
1.51902
0.711372
0.306232
0.130678
63.1577
21.3753
13.2976
9.99606
7.60725
5.40753
3.41722
1.88249
0.917594
0.406065
0.172997
77.4823
24.5612
14.9854
11.1113
8.53296
6.25101
4.14358
2.42778
1.26519
0.597572
0.265677
101.765
32.6534
18.3864
13.0653
9.93213
7.4156
5.14897
3.23879
1.8444
0.96223
0.469696
181.329
36.6226
22.5971
15.9296
12.1364
9.2291
6.71332
4.56175
2.87878
1.69447
0.942366
149.036
76.274
45.7935
27.6607
15.9315
7.62454
3.29979
1.37282
0.552898
0.22878
0.101665
105.128
76.208
59.036
42.0528
27.6789
16.2947
8.35177
3.40546
1.10505
0.400333
0.167044
92.2921
76.6999
70.3387
55.2917
40.1007
26.6243
15.796
7.96644
3.1877
0.86655
0.310971
107.389
63.3421
72.6873
69.2883
54.09
38.3683
24.8568
14.3136
6.97697
2.60522
0.719096
121.707
65.749
66.4216
79.5852
73.6537
55.1955
37.089
22.7285
12.4015
5.6813
2.03986
133.4
67.5263
60.7652
72.7258
86.5147
77.0533
55.2423
34.9777
20.0661
10.21
4.43039
142.462
67.6132
55.6704
62.2253
78.8713
90.5447
76.3873
52.0711
31.0679
16.642
7.92857
149.098
66.7755
51.4327
53.2643
64.9253
84.1731
89.8221
70.3721
45.0991
25.2729
12.7304
155.008
65.6972
48.3162
46.4732
52.9681
69.3585
88.1552
83.0818
59.1918
35.2923
18.6906
160.923
64.8664
46.4486
41.7236
43.9867
55.5299
76.2337
86.5099
69.639
44.7419
24.9449
167.633
64.7467
45.8703
38.7867
37.9858
45.3374
63.3424
81.9207
74.7334
51.6426
30.3265
175.609
66.4114
46.5419
37.4189
34.4844
38.7375
52.6916
73.8987
75.492
55.0904
33.9181
186.295
69.5475
48.3448
37.3967
32.8861
35.0022
45.1384
65.1374
74.0236
55.2637
34.9823
200.47
74.8101
51.3279
38.4538
32.5986
33.2946
40.1229
53.6374
69.3233
53.3523
33.7485
217.828
82.1484
55.7033
40.3414
32.6095
31.5754
35.6734
43.6345
52.9983
51.6042
31.3915
240.441
92.2181
61.9689
43.3294
33.0101
29.7629
31.1683
35.3666
40.7097
43.0067
31.0973
270.549
105.99
70.9975
48.0876
34.4274
28.7561
27.9053
29.4964
31.9636
33.1167
28.921
312.153
124.941
84.4759
56.1228
38.1133
29.7291
27.0266
26.9455
27.854
28.5627
27.895
372.133
151.88
106.791
71.9501
47.7577
35.7984
31.7736
31.4089
31.9535
31.74
30.4472
449.654
185.998
142.286
105.854
75.9902
58.3864
51.1627
49.3854
46.6817
42.0452
39.1627
436.795
197.025
160.1
127.214
98.0384
80.2252
70.2941
59.2389
45.7002
35.992
27.3041
453.24
194.767
162.687
136.318
106.834
83.3892
63.5267
46.4921
32.9816
23.014
15.3527
465.433
200.396
153.2
115.412
84.2212
59.8025
41.6277
28.5548
19.2242
12.6035
7.9297
387.789
179.321
103.092
65.4848
43.5211
29.4445
19.944
13.312
8.62228
5.35064
3.15605
51.8777
47.1168
46.6373
46.7843
45.5997
42.486
35.7793
24.2863
10.1629
17.744
15.4312
14.1904
13.9575
13.9819
14.7645
15.0624
13.1977
8.60796
9.48644
8.15346
7.25179
6.89766
6.98104
8.03658
9.60081
9.92242
7.51249
5.04937
4.15182
3.62395
3.57033
3.86427
4.70104
6.11778
7.14311
6.29281
55.1766
55.4037
50.7498
42.846
29.684
9.69868
4.19561
3.41631
3.59059
18.5329
19.1084
19.3481
19.7743
18.35
12.9455
3.6397
2.31039
4.16541
9.79472
9.85084
10.5022
12.7349
14.3901
12.7419
4.23075
2.48387
4.14945
5.3389
5.57027
6.2704
7.98064
10.42
11.2024
4.81339
2.66855
4.0021
0.00900728
0.00829801
0.00835052
0.00946165
0.456285
0.00754952
0.135811
0.008098
0.00751696
0.00691346
0.453883
0.00812996
0.0100442
0.00508583
0.0145995
0.00728553
0.00573992
0.0101493
0.00724941
0.00711345
0.00664215
0.061851
0.00851773
0.120192
0.00792115
0.00503176
0.00970293
0.125596
1.64745
0.392855
0.00671876
0.00641128
0.00718823
0.00807173
0.00677895
0.00826748
0.109217
0.00790355
0.00814086
0.00757662
0.144761
0.00810246
0.0951258
0.00849238
0.72754
0.398024
0.0163615
0.532499
0.00689323
0.00732139
0.397006
0.00759978
0.233847
0.0936487
0.00731197
0.00667098
0.060089
0.00762239
1.52108
0.0776439
0.0745722
0.216143
0.519604
0.036213
0.194739
0.00715181
0.402638
0.00725876
0.00829972
0.0069
0.00517237
0.00704634
0.0183464
0.0074015
0.049597
0.00703218
0.0862098
0.00827897
0.0579655
1.16571
0.201311
0.0273996
0.00793603
0.00838093
0.00697041
0.0185077
1.80034
0.165561
0.0204355
0.0940443
0.00809135
0.00766405
0.153682
0.00723669
1.14337
0.774852
0.0452936
0.00617947
0.0255967
0.00714849
0.00772824
0.394244
0.00677169
0.00615843
0.0151059
0.00811688
0.00470658
0.00845269
0.0116901
0.00658845
0.00798277
0.00815278
0.00716642
0.0073929
0.0352156
0.00768989
0.00752194
0.00731698
0.00795529
0.00672144
0.00776943
0.00731572
0.00739205
0.00495178
0.324957
0.00859055
0.156946
0.00487647
0.00560149
0.00766581
0.00780052
0.0779096
0.471405
0.00702596
0.0083407
0.00811087
0.0643043
0.0164356
0.41128
0.00730366
0.108059
0.00661133
0.214638
0.00868314
0.00748953
0.0242513
0.0158164
0.00725304
0.00703113
0.0071118
0.00720159
0.00767927
0.0269083
0.00728425
0.00758178
0.0200633
0.0257302
0.041221
0.00554908
0.00746716
0.00549011
0.0335433
0.007043
0.00771018
0.409724
0.023262
0.0211423
0.00782041
0.00685861
0.176457
0.0058664
0.00564427
0.00707692
0.00645824
0.00640244
0.00641051
0.00575737
0.0284095
0.751822
0.00695307
0.00725566
0.0655291
0.00849737
0.111087
0.00795995
0.0131407
0.00715766
0.00727157
0.00825586
0.0843096
0.0113012
0.00522322
0.00719179
0.130173
0.00832692
0.0075921
0.00740595
0.0263423
0.00827034
0.00856733
0.0263412
0.00730698
0.0117961
0.00738797
0.00838666
0.169231
0.00723426
0.00556661
0.00737068
0.00740605
0.104907
0.00759225
0.00827455
0.00669914
0.00792372
0.164213
0.00797667
0.0214891
0.00720069
0.0106934
0.0122808
0.00774913
0.041159
0.0345578
0.00478429
0.00763971
0.0752668
0.0204602
0.00976145
0.158625
0.0407083
0.00714054
0.00718767
0.00730918
0.027144
1.14166
0.337596
0.00845121
0.00815018
0.00811223
0.0214991
0.0300759
0.00612752
0.110198
0.0075411
0.0403568
0.00801077
0.00790694
0.499897
0.264753
0.00783711
0.108419
0.0103576
0.00728046
0.00601515
0.00744108
0.00674277
0.00785394
0.0189349
0.0071412
0.00828714
0.00970205
0.0073805
0.00820012
0.00797558
0.015149
0.006601
0.00770828
0.0176467
0.00694507
0.211829
0.00729928
0.0072876
0.015641
0.00756071
0.0073571
0.00523867
0.00776777
0.00691112
0.0186149
0.00709232
0.00827446
0.206075
0.309478
0.00602787
0.007582
1.11575
0.00824027
0.00681066
0.104347
0.00833956
0.115052
0.00740439
0.00914508
0.00856399
0.00739515
0.0069056
0.0081678
0.00677774
0.00528868
0.00778657
0.00966657
0.00705041
0.399884
0.00678244
0.00657157
0.00828112
0.0379771
0.0634709
0.00741861
0.0892155
0.00816081
0.00643026
0.00696147
0.0872096
0.00655982
0.00703695
0.0146353
0.00670636
0.00730201
0.00714108
0.122906
0.00745929
0.00538528
0.024417
0.00700413
0.00778931
0.00593224
0.00709496
0.235242
0.00738228
0.530677
0.0851628
0.00846234
0.0111819
0.821485
0.0222998
0.00824077
0.00785484
0.0059843
0.029246
0.106181
0.00728674
0.0250459
0.187785
0.0392378
0.0604598
0.007532
0.092791
0.196119
0.119403
0.00593099
0.00700832
0.00684458
0.0133657
0.00860266
0.013391
0.00695791
0.00849693
0.246276
0.00986372
0.00525157
0.00800265
0.00799164
0.00727124
0.0200098
0.00528331
0.0162979
0.148414
0.00688713
0.00774363
0.108507
0.670694
0.00472244
0.0119585
0.0083111
0.00905542
0.00673751
0.00751893
0.00713126
0.206845
0.00754513
0.0238948
0.00766505
0.00518474
0.332318
0.00934926
0.00475816
0.0293874
0.0235965
0.00771612
0.053626
0.00469609
0.00755397
0.362961
0.211353
0.00788187
0.00722265
0.00835324
0.0351473
0.0186507
0.00764488
0.00850465
0.111386
0.008144
0.342261
0.0546628
0.0228083
0.00730383
0.120367
0.00758183
0.00720284
0.0098827
0.00934213
0.028674
0.00638094
0.0115224
0.00757994
0.00481244
0.0420393
0.280251
0.00612208
0.164105
0.0100338
0.0062762
0.00658187
0.00734765
0.0282668
0.00763983
0.267367
0.00790375
0.0236688
0.00506811
0.00662741
0.00787029
0.0181456
0.190047
0.409565
0.00499848
0.00859981
0.00595921
1.4308
0.021083
0.00958155
0.00703892
0.0409739
0.10766
0.0396561
0.00741514
0.0354381
0.00776083
0.00833644
0.00793854
0.0315536
0.0190817
0.158252
0.00581228
0.0281108
0.0262858
0.00826095
0.00740242
0.167881
0.00502673
0.00598626
0.00759019
0.142981
0.114535
0.0902244
0.0916648
0.00736025
0.0065703
0.0178135
0.00703852
0.0719291
0.00722628
0.00823283
0.00732613
0.034767
0.0336009
0.00716868
0.00778001
0.00668986
0.0991307
0.0680031
0.0084506
0.0231096
0.24976
0.00941964
0.0203909
0.0074069
0.0273734
0.00758432
0.00721986
0.00762055
0.00657181
0.00653738
0.0071598
0.00537255
0.00853578
0.00763212
0.00563761
0.0059013
0.00807051
0.00806934
0.502789
0.0345798
0.015601
0.00739672
0.298504
0.00835666
0.280566
0.0163644
0.025165
0.0195823
0.00788435
0.352253
0.0287747
0.00534182
0.00779059
0.00634727
0.00666967
0.00826819
0.00769047
0.0081885
0.00690933
0.203767
0.00801208
0.00744972
0.0838773
0.00775734
0.174186
0.00703254
0.0301403
0.00562367
0.0202034
0.00856298
0.00786126
0.00840507
0.122252
0.0346935
0.0079575
0.00791266
0.00492906
0.00834044
0.0243803
0.00830417
0.239756
0.00680817
0.0455431
0.00846303
0.00753667
0.450499
0.29359
0.00681586
0.00657965
0.00701201
0.00830234
0.0182093
0.0395361
0.00721563
0.00806749
0.311213
0.766373
0.00791558
0.00730827
0.0082762
0.104206
0.348238
0.0193962
0.00808216
0.00749854
0.304
0.00719415
0.0082265
0.00601837
0.0264807
0.342052
0.0077181
0.020393
0.00781656
0.0296094
0.00736208
0.0551232
0.00601388
0.00641621
0.0914881
0.0313671
0.00841207
0.00854577
1.129
0.00762612
0.006158
0.00994117
0.0321019
0.0972646
0.0284676
0.00744382
0.00686104
0.00775618
0.00792699
0.712728
0.0144067
0.012082
0.00712015
0.00794706
0.0443829
0.00712222
0.00732707
0.00723904
0.00699142
0.00789436
0.0138574
0.0324743
0.0181234
0.00621498
0.0109692
0.00725786
0.0580671
0.00699567
0.007816
0.568095
0.155744
0.00755225
0.00756168
0.061043
0.00674035
0.00738482
0.0194573
0.00831101
0.00681615
0.00971401
0.00887228
0.00828614
0.00486956
0.00565392
0.0391724
0.0721017
0.0304836
0.031319
0.00627886
0.0215515
0.0311434
0.00856951
0.00836339
0.00683999
0.0253527
0.00606592
0.00701649
0.00679814
0.00509237
0.101157
0.440435
0.00608547
0.00944063
0.00769424
0.0129427
0.00812423
0.00724845
0.00694212
0.0128239
0.00694128
0.00751191
0.00695784
0.00825614
0.0126108
0.0555901
0.15481
0.00699133
0.0071173
0.00754973
0.127813
0.00726101
0.130016
0.00711027
0.038569
0.0826638
0.00771334
0.0280883
0.00849614
0.00690617
0.0178294
0.00798185
0.495657
0.00555928
0.00666745
0.00841716
0.0127548
0.00505469
0.032492
0.167049
0.00750352
0.00639609
0.0084038
0.00784522
0.00698004
0.0203841
0.00812712
0.00762097
0.00760966
0.00980962
0.0248204
0.00816702
0.00755806
0.00750677
0.0189854
0.00557579
0.00648402
0.0117561
0.107403
0.00931463
0.00638422
0.00628925
0.00825062
0.0386409
0.00649617
0.147939
0.00784436
0.0065657
0.00793133
0.00734943
0.0827256
0.00948826
0.0282905
0.00507227
0.00720361
0.00678834
0.00669524
0.0229557
0.00824304
0.223282
0.0921964
0.237839
0.00659896
0.0102603
0.0984557
0.0935966
0.00729554
0.00854251
0.0340078
0.0123638
0.00804362
0.00527682
0.326078
0.00811464
0.160072
0.00915244
0.00749013
0.0394655
0.00753029
0.00720132
0.00682692
0.00769628
0.00710968
0.00474625
0.00818593
0.00692962
0.00700439
0.00887444
0.0336656
0.134668
0.010875
0.00723467
0.165432
0.318891
0.00782069
0.00477741
0.0071078
0.0431192
0.01041
0.0432268
0.00782176
0.0356315
0.00848561
0.00906897
0.00722467
0.00695133
0.00765799
0.0562367
0.0672189
0.00860489
0.00792126
0.00733284
0.264973
0.138763
0.00740277
0.0081962
0.00672445
0.00706586
0.00814016
0.00822407
0.00837548
0.00789936
0.00751481
0.00558968
0.0504422
0.087965
0.00493515
0.00693802
0.00769209
0.00795714
0.00671749
0.217534
0.00827664
0.00622959
0.0076232
0.259194
0.118069
0.0387342
0.00779081
0.0360772
0.00770448
0.00783904
0.261865
0.00715276
0.008161
0.0067728
0.0224393
0.00601785
0.00592846
0.00814002
0.0106179
0.1324
0.0232123
0.00815773
0.00460939
0.0738908
0.0243445
0.0317076
0.00842938
0.00720574
0.0106118
0.0126956
0.0369472
0.00829413
0.00695824
0.00741994
0.0073427
0.0082447
0.0755724
0.00626032
0.158656
0.204802
0.0996796
0.00809983
0.464285
0.00853098
0.00710762
0.00752614
0.00792141
0.00766655
0.00767744
0.0142166
0.201836
0.0198123
0.00765487
0.0303206
0.00767955
0.00859767
0.00731554
0.00754788
0.0068468
0.00794097
0.00814648
0.00724028
0.954159
0.0075371
0.00714206
0.0102688
0.15611
0.00720959
0.00796479
0.0194389
1.01009
0.00714363
0.00778128
0.0102755
0.0248008
0.00845955
0.00808862
0.00694114
0.00860527
0.0892275
0.00827143
0.0815147
0.00918087
0.0742186
0.00794993
0.00821459
0.00602639
0.028859
0.00775815
0.00731265
0.00744404
0.00831404
0.00613653
0.203271
0.00675185
0.0262621
0.231948
0.0405726
0.00604055
0.041754
0.00850916
0.00814866
0.00508199
0.00892264
0.00591435
0.00760445
0.272018
0.00718765
0.0102661
0.00732277
0.0045968
0.00551395
0.0198015
0.00751553
0.00693302
0.00804396
0.275146
0.0608424
0.162661
0.00691305
0.00937531
0.00679487
0.00776769
0.232314
0.00753588
0.00830412
0.00609736
0.224856
0.0329191
0.0371449
0.0060664
0.00522787
0.16847
0.581225
0.00802033
0.00688042
0.196375
0.00759357
0.0181226
0.00792866
0.0720677
0.00801129
0.0214426
0.00830737
0.00735718
0.00844671
0.00763774
0.0116646
0.00774344
0.00716201
0.00781137
0.00724075
0.00978094
0.00687663
0.0388749
0.00680824
0.00684081
0.291984
0.020491
0.0435127
0.00832633
0.0268594
0.0073786
0.00827554
0.0267467
0.00646043
0.0824972
0.381332
0.00609366
0.0129415
0.00653608
0.00740863
0.0167895
0.0144453
0.00713018
0.0317995
0.00813222
1.14578
0.0221124
0.727406
0.00813258
0.0207148
0.0121769
0.320574
0.00765463
0.00553675
0.00855526
0.0045669
0.121813
0.00816017
0.00890817
0.0966235
0.0257275
0.213408
0.00798771
0.00781351
0.00736646
0.0430147
0.00714162
0.148392
0.0109843
0.0289654
0.354249
0.00827755
0.0153214
0.0325156
0.0292604
0.0699997
0.0403237
0.00756695
0.0114749
0.0048908
0.00810687
0.00779929
0.00856451
0.0410325
0.00658613
0.00831303
0.00555142
0.10426
0.00479812
0.00803551
0.108954
0.0138901
0.00689418
0.0104944
0.00813868
0.00703547
0.00731761
0.193055
0.00746998
0.118434
0.00616466
0.0246311
0.00797644
0.00695486
0.00796396
0.0075252
0.0206544
0.0858122
0.12726
0.615686
0.269099
0.570731
0.00682422
0.00676259
0.00989827
0.00838896
0.00584274
0.198198
0.0068623
0.0766071
0.00609834
0.152172
0.00694634
0.00483398
0.00812348
0.288864
0.00862328
0.46436
0.00718655
0.00748417
0.0450298
0.0561301
0.00688143
0.0251131
0.0735527
0.055028
0.118118
0.0199386
0.217659
0.00756957
0.00788419
0.386304
0.0181733
0.00832568
0.0062274
0.0076071
0.00503182
0.00528473
0.0104902
0.00773346
0.014971
0.607437
0.0075156
0.00725438
0.00728434
0.00819247
0.00946124
0.00542364
0.00692032
0.00558693
0.373434
0.00755525
0.609224
0.0704998
0.00775246
0.108665
0.0605733
0.0158027
0.00691418
0.0705476
0.00767796
0.0080449
0.355507
0.00750956
0.0082447
0.00571953
0.00809951
0.00740929
0.175587
0.00738775
0.704086
0.0135663
0.0260631
0.00724479
0.0124261
0.0996758
0.00599465
0.277414
0.00776344
0.0109943
0.0516373
0.00696138
0.022288
0.0304086
0.0162841
0.00747452
0.032387
0.0448106
0.00645066
0.00734136
0.0267828
0.00694764
0.018883
0.0244335
0.380815
0.00712741
0.0086025
0.00797228
0.00619231
0.00863299
0.00472772
0.0372829
1.0483
0.00779824
0.0240117
0.0280502
0.00819798
0.0347213
0.00710658
0.00712537
2.32383
0.0434679
0.335637
0.172236
0.00816512
0.00793264
0.021811
0.231546
0.146207
0.252778
0.00493424
0.00816771
0.00721655
0.00605041
0.128018
0.0475152
0.00825208
0.00738668
0.0278654
0.0938179
0.0356175
0.00681651
0.0882231
0.229762
0.00638127
0.00559801
0.00727392
0.0071547
0.225232
0.0053291
0.0083178
0.0151229
0.00774921
0.00650388
0.378401
0.00969664
0.00993804
0.0342024
0.0565495
0.00749347
0.189265
0.0200409
0.00836421
0.00461068
0.0198637
0.00662268
0.235501
0.00807273
0.0076853
0.00694078
0.107344
0.0063959
0.00745492
0.0285497
0.00834013
0.00815171
0.00859552
0.00518772
0.0077093
0.0307134
0.0173421
0.00815424
0.463747
0.0351776
0.0077364
0.031443
0.00677973
0.00516411
0.0320968
0.00803796
0.00816799
0.00789418
0.00722093
0.007939
0.00721197
0.0079388
0.0483039
0.0766172
0.0060004
0.0994404
0.00689199
0.0209214
0.0170554
0.00855482
0.00708374
0.0158829
0.0048392
0.00674483
0.00587687
0.00666719
0.00682089
0.00797057
0.0382706
0.0780505
0.024075
0.0956066
0.00859361
0.0150041
0.197486
0.0159753
0.011783
0.00758705
0.0337
0.157654
0.10807
0.00473418
0.0130129
0.0323765
0.00653936
0.00795841
1.02226
0.00495423
0.00671893
0.026462
0.0250367
0.00584354
0.0121793
0.01496
0.00455246
0.58097
0.736711
0.00790423
0.00725525
0.120645
0.0962956
0.0104572
0.00812005
0.00659906
0.00839292
0.0072056
0.0828067
0.00761269
0.00845203
0.13595
0.00949825
0.00730423
0.00770413
0.00757142
0.00678466
0.0085767
0.007188
0.0131241
0.00703843
0.00879393
0.0080378
0.029411
0.00818987
0.0901833
0.00770549
0.0209417
0.00837357
0.00771184
0.0596044
0.230931
0.00706334
0.00781765
0.00740805
0.0152865
0.00826997
0.00678488
0.00804015
0.00739287
0.00619619
0.00730768
0.0309396
0.00511592
0.0618214
0.00847462
0.00968251
0.0079078
0.00670152
0.00761238
0.0084935
0.00802545
0.150323
0.00728359
0.0170666
0.00790136
0.00800288
0.463414
0.00844594
0.00855201
0.133178
0.250121
0.0170638
0.00754786
0.0199088
0.00790606
0.144353
0.00937452
0.0152936
0.00738506
0.00624371
0.0253819
0.00763225
0.0321269
0.00736189
0.0153479
0.0228343
0.00744919
0.0101103
0.00725256
0.137217
0.0172319
0.00492864
0.0341716
0.00642741
0.00596455
0.00840279
0.0104285
0.029691
0.00751425
0.00812231
0.0741084
0.00692772
0.0069403
0.00685107
0.00543226
0.0078918
0.0276219
0.0298702
0.00687651
0.0178547
0.00798357
0.00869421
0.0070074
1.06667
0.00926162
0.00678587
0.105936
0.0321512
0.00820857
0.00706981
0.0289639
0.0105783
0.00662412
0.00718534
0.0119047
0.0364395
0.00753102
0.00693784
0.0739449
0.0071469
0.00830296
0.00731182
0.00686756
0.00766956
0.0236351
0.00762769
0.0446017
0.00623515
0.0134022
0.00812879
0.00499921
0.0286694
0.00688792
0.0142612
0.00764765
0.00712118
0.0392798
0.0136482
0.00546827
0.00845646
0.00725531
0.323253
0.00700055
0.00721735
1.45733
0.00674874
0.00720021
0.00742535
0.00720862
0.00644609
0.0063494
0.014222
0.00511524
0.0161836
0.0071935
0.00759435
0.0150227
0.00459559
0.00748426
0.00646199
0.00563531
0.00729541
0.231027
0.0085523
0.0256558
0.00746594
0.00686382
0.0058217
0.0069835
0.0125451
0.00795326
0.00722849
0.00671799
0.00756531
0.00836295
0.0335101
0.0633347
0.0115407
0.0107119
0.0633904
0.00676647
0.00755718
0.00743832
0.225881
0.00724495
0.0065523
0.344594
0.00717779
0.246853
0.155885
0.0071195
0.00810337
0.00684109
0.00537173
0.00493051
0.00704598
0.00800744
0.0165725
0.0376057
0.00462673
0.0347695
0.00782334
0.0683374
0.15657
1.08533
0.0103981
0.0113814
0.0047308
0.00829216
0.00686806
0.0239115
0.00790007
0.011036
0.00516013
0.0149965
0.00523591
0.0574437
0.0237208
0.0255984
0.25313
0.00782705
0.361932
0.00958469
0.0066988
0.005973
0.00931019
0.00840462
0.583942
0.00783501
0.132624
0.301595
0.00505173
0.526181