/*--------------------------------*- C++ -*----------------------------------*\
| =========                 |                                                 |
| \\      /  F ield         | OpenFOAM: The Open Source CFD Toolbox           |
|  \\    /   O peration     | Version:  3.0.1                                 |
|   \\  /    A nd           | Web:      www.OpenFOAM.org                      |
|    \\/     M anipulation  |                                                 |
\*---------------------------------------------------------------------------*/
FoamFile
{
    version     2.0;
    format      ascii;
    class       volScalarField;
    location    "0.705411";
    object      k;
}
// * * * * * * * * * * * * * * * * * * * * * * * * * * * * * * * * * * * * * //

dimensions      [0 2 -2 0 0 0 0];

internalField   nonuniform List<scalar> 
21246
(
0.335943
0.406859
0.152092
0.0734713
0.0349818
0.0201546
0.0147348
0.0125257
0.0114179
0.0107147
0.0101531
0.37834
0.53258
0.194691
0.0948736
0.0430788
0.0227932
0.0152967
0.0123999
0.0110208
0.0101727
0.00951329
0.410129
0.505502
0.227767
0.114404
0.0496907
0.0257823
0.0161283
0.0124518
0.0107682
0.00977127
0.00900532
0.422614
0.462789
0.24076
0.12415
0.0546218
0.0285239
0.017017
0.0126062
0.0106314
0.00951083
0.00868894
0.416586
0.441088
0.245999
0.12847
0.0591278
0.0308842
0.0179022
0.0128433
0.0105951
0.00937185
0.0085353
0.396564
0.433744
0.251795
0.13359
0.0644188
0.0335559
0.0188665
0.0131745
0.010656
0.00933342
0.00848333
0.366578
0.435642
0.260414
0.141085
0.0706227
0.0368163
0.0203979
0.0136366
0.0108118
0.00937896
0.00850005
0.330308
0.445306
0.271856
0.150377
0.0776183
0.0406556
0.0223781
0.0144406
0.0111208
0.0095008
0.00858442
0.292187
0.459165
0.287533
0.161995
0.0857152
0.0453332
0.0248972
0.0155745
0.0116013
0.00973477
0.0087367
0.255294
0.473759
0.309317
0.177478
0.0958314
0.0513114
0.0281862
0.0171595
0.0123134
0.0100842
0.00895758
0.221095
0.49113
0.33716
0.197131
0.108232
0.0587422
0.0323909
0.0193052
0.0133307
0.0105866
0.00925791
0.19223
0.514717
0.371272
0.220757
0.122704
0.067491
0.0375278
0.0220859
0.0147274
0.0112928
0.00966348
0.17211
0.541905
0.413179
0.250052
0.140231
0.0779752
0.043817
0.0256626
0.0166208
0.0122792
0.0102178
0.161581
0.567802
0.463606
0.287603
0.162587
0.0910684
0.0516801
0.0302915
0.0191938
0.0136661
0.010988
0.161195
0.598755
0.523163
0.334364
0.190525
0.107189
0.0613485
0.0361481
0.0226147
0.0155939
0.0120756
0.170356
0.630087
0.590603
0.3932
0.226701
0.12786
0.0735915
0.0436563
0.0271708
0.0182742
0.0136256
0.185544
0.652355
0.65972
0.466728
0.275351
0.155935
0.0899867
0.053662
0.0333681
0.0220572
0.0158814
0.197448
0.658805
0.718701
0.552545
0.339915
0.194795
0.112761
0.0675032
0.0420285
0.0274861
0.0192274
0.204783
0.648214
0.754268
0.641398
0.422731
0.249519
0.145983
0.0878497
0.054817
0.0356276
0.0243792
0.206519
0.619984
0.754317
0.712703
0.519358
0.325639
0.196359
0.119868
0.0752173
0.0487448
0.0328201
0.201618
0.563088
0.710352
0.741381
0.614514
0.426801
0.274456
0.173601
0.11075
0.0720068
0.0479982
0.215189
0.510334
0.647173
0.734237
0.688961
0.547079
0.390747
0.264924
0.176151
0.117056
0.0783633
0.200132
0.421803
0.503168
0.572373
0.592341
0.554526
0.469379
0.365028
0.268487
0.192063
0.134745
0.251763
0.518516
0.520201
0.550296
0.552383
0.524822
0.471642
0.397871
0.32106
0.251798
0.191764
0.267777
0.280662
0.130716
0.058298
0.0302251
0.0191715
0.0148411
0.0129601
0.0120059
0.0114319
0.0110177
0.233081
0.230721
0.112954
0.0626567
0.0337991
0.0212108
0.0160766
0.0138629
0.0127999
0.0122174
0.0118384
0.251837
0.248643
0.111147
0.0735869
0.0413564
0.0257689
0.018561
0.0154244
0.014011
0.0133466
0.0130176
0.268269
0.238613
0.106709
0.0780492
0.0463221
0.030361
0.0219972
0.0180126
0.0161256
0.0152192
0.0148077
0.280026
0.21236
0.104407
0.0800627
0.0483438
0.0322295
0.0231479
0.0188045
0.0168152
0.0159825
0.0157394
0.288345
0.188146
0.102018
0.0786527
0.0481507
0.0328269
0.0236455
0.0192811
0.0173207
0.0166135
0.0165998
0.294689
0.169514
0.0994358
0.0759822
0.0471296
0.0328402
0.0237688
0.0195188
0.0176147
0.0170042
0.0171593
0.299148
0.155419
0.0967097
0.0731405
0.0460877
0.0326507
0.0237709
0.0196647
0.0178079
0.0172473
0.0174872
0.303011
0.144809
0.0943471
0.0708679
0.0454867
0.0324699
0.023812
0.0198003
0.0179503
0.0173663
0.0175393
0.307112
0.137131
0.0925452
0.0692237
0.0453881
0.0324801
0.0239746
0.0199804
0.0180973
0.0174601
0.0175606
0.311975
0.13183
0.0915196
0.0684845
0.0457787
0.0327995
0.0243101
0.0202436
0.0182858
0.0175853
0.0176396
0.31746
0.128048
0.0909718
0.0684838
0.046621
0.0334506
0.0248422
0.0206141
0.0185361
0.0177561
0.017755
0.323883
0.125574
0.0909733
0.0692034
0.0479927
0.0344991
0.0256205
0.0211251
0.0188661
0.0179762
0.017924
0.329248
0.125836
0.091635
0.0706029
0.0500822
0.0361117
0.0268054
0.021872
0.0193319
0.0182713
0.0181548
0.333644
0.127302
0.0926006
0.0723195
0.0527563
0.0383339
0.028547
0.0230012
0.0200497
0.0187209
0.0184672
0.337249
0.130102
0.0939442
0.0743591
0.0559664
0.0412674
0.0309659
0.0246674
0.0211408
0.0194075
0.0189013
0.340207
0.134358
0.095823
0.076743
0.0596702
0.0450034
0.0342166
0.0270821
0.0228035
0.0204892
0.0195625
0.342598
0.139916
0.0983431
0.0794599
0.0637702
0.0495546
0.0384455
0.0304976
0.0253252
0.0222344
0.0206706
0.344543
0.146735
0.101726
0.0825573
0.0681695
0.0548534
0.0437584
0.0351816
0.0290883
0.0250607
0.0226427
0.346232
0.154894
0.106317
0.0861965
0.0727985
0.0607236
0.0501298
0.0413292
0.0345084
0.0295348
0.0261312
0.34795
0.164353
0.112499
0.0906787
0.0776523
0.0668642
0.057262
0.0488435
0.0418006
0.0361887
0.0319232
0.350434
0.174571
0.120416
0.0963686
0.0828051
0.0728375
0.0643912
0.0569153
0.0503701
0.0448011
0.0402256
0.354147
0.186655
0.130883
0.104019
0.0886976
0.0783619
0.0704117
0.06384
0.0582537
0.0534883
0.0494436
0.372742
0.201532
0.155732
0.132965
0.119194
0.108986
0.100872
0.0974307
0.0968184
0.0974984
0.0974772
0.647141
1.10601
1.00341
0.88478
0.700654
0.4993
0.334254
0.222521
0.152636
0.108821
0.0849785
0.539445
0.828202
0.87443
0.827898
0.711395
0.544887
0.372638
0.230768
0.149833
0.102465
0.0784114
0.384967
0.601736
0.725492
0.739531
0.679139
0.558088
0.405475
0.258724
0.158464
0.0996551
0.0715437
0.226942
0.466941
0.598529
0.645932
0.626084
0.54507
0.420775
0.283377
0.173984
0.104076
0.0677342
0.122012
0.39764
0.508476
0.56348
0.566772
0.516011
0.419634
0.298964
0.189488
0.111947
0.0676801
0.0963725
0.350644
0.447834
0.496354
0.508419
0.477912
0.405411
0.303785
0.200857
0.120346
0.0699612
0.0857111
0.297289
0.398901
0.440826
0.453999
0.435419
0.381421
0.298028
0.205445
0.126401
0.0727009
0.0754069
0.230228
0.342274
0.389548
0.403304
0.391327
0.35076
0.283172
0.202367
0.128183
0.0741107
0.063137
0.17968
0.273877
0.337035
0.354795
0.347096
0.316209
0.261581
0.19237
0.125103
0.0732329
0.0526709
0.143516
0.21587
0.278692
0.306919
0.303406
0.279941
0.235762
0.177154
0.11772
0.0699796
0.0442388
0.115873
0.170835
0.223458
0.258515
0.260855
0.243473
0.207816
0.158653
0.107312
0.064796
0.038215
0.095086
0.136835
0.178105
0.212267
0.220404
0.20826
0.179723
0.138971
0.0955653
0.0588097
0.0334673
0.0791877
0.11156
0.143105
0.172529
0.183633
0.176055
0.153674
0.120473
0.0844493
0.0532832
0.0294414
0.0668737
0.0931062
0.117148
0.141138
0.152378
0.148615
0.131747
0.105278
0.0756906
0.0491739
0.0264936
0.0576935
0.080138
0.0987808
0.117608
0.127989
0.127244
0.115363
0.0947322
0.0703371
0.0472604
0.0244685
0.0508842
0.0711612
0.0859371
0.100856
0.11054
0.112389
0.105079
0.0893929
0.0688454
0.0477976
0.0228396
0.0459169
0.0646379
0.0769827
0.0896337
0.0993685
0.104005
0.101088
0.0895212
0.0715024
0.0509407
0.0213136
0.0424778
0.0599692
0.0709409
0.083055
0.0945129
0.103043
0.104713
0.0965113
0.0795734
0.057866
0.0198786
0.0403156
0.0564618
0.0673677
0.0817219
0.0981085
0.11295
0.119664
0.113468
0.0954177
0.0701092
0.0184953
0.0398294
0.0552908
0.0690666
0.0894277
0.114213
0.135469
0.145821
0.141169
0.120535
0.0895005
0.0235299
0.0505829
0.0609458
0.0753212
0.102644
0.13616
0.158189
0.170085
0.169275
0.151405
0.115075
0.0348207
0.0556546
0.0646283
0.099062
0.139515
0.16842
0.188218
0.197907
0.197581
0.184078
0.150293
0.0372443
0.0814772
0.118511
0.16132
0.194045
0.213934
0.220459
0.216974
0.20895
0.198453
0.175663
0.135479
0.178263
0.221329
0.248497
0.259297
0.254298
0.237992
0.217889
0.200653
0.189705
0.177879
0.697105
1.07792
1.02966
0.873858
0.678099
0.489368
0.339545
0.235227
0.165675
0.119694
0.0928992
0.466028
0.784329
0.880756
0.848883
0.723772
0.556308
0.398663
0.278495
0.19491
0.13795
0.102354
0.253039
0.538986
0.702766
0.781444
0.752019
0.631373
0.475529
0.33785
0.235611
0.163246
0.115247
0.0921928
0.288161
0.475428
0.633072
0.709336
0.672567
0.550002
0.407709
0.288572
0.198543
0.134537
0.0546038
0.138143
0.267766
0.432652
0.580137
0.644408
0.597173
0.480947
0.356893
0.250985
0.16954
0.0544434
0.115111
0.182092
0.282893
0.417611
0.531087
0.564449
0.506837
0.408242
0.306631
0.214285
0.0580217
0.117475
0.168963
0.235002
0.328002
0.438091
0.505757
0.486767
0.412807
0.329895
0.248807
0.0621865
0.122595
0.169058
0.2232
0.293644
0.382787
0.460866
0.468165
0.405798
0.336047
0.271804
0.0666442
0.128784
0.172433
0.21986
0.277146
0.351061
0.425728
0.452442
0.399952
0.329629
0.280946
0.0711864
0.135886
0.177695
0.219385
0.266006
0.327599
0.396604
0.434664
0.398401
0.321189
0.276607
0.075737
0.143766
0.184059
0.219779
0.256856
0.306645
0.368115
0.413427
0.39412
0.317494
0.263649
0.0804188
0.152575
0.191821
0.221211
0.249757
0.287321
0.338749
0.387037
0.384591
0.315153
0.250561
0.0850795
0.161029
0.199422
0.224089
0.244656
0.270057
0.309039
0.355573
0.368246
0.312096
0.240767
0.0898741
0.169394
0.207423
0.227798
0.24114
0.255964
0.281697
0.3208
0.344865
0.30646
0.23328
0.0951313
0.17786
0.215827
0.232015
0.238613
0.244388
0.258643
0.286588
0.314146
0.295735
0.229087
0.10067
0.187301
0.225251
0.237156
0.23677
0.233963
0.239051
0.257064
0.279913
0.277133
0.229744
0.106581
0.198198
0.236802
0.244645
0.237034
0.22566
0.222547
0.232588
0.249039
0.252914
0.228974
0.113116
0.211746
0.252589
0.257636
0.242769
0.221721
0.210382
0.213161
0.22343
0.228587
0.217822
0.120491
0.229453
0.275282
0.27891
0.255344
0.224543
0.203995
0.198833
0.202876
0.206481
0.202072
0.127945
0.251193
0.302593
0.304682
0.276132
0.236153
0.205021
0.190586
0.187506
0.186999
0.182588
0.131021
0.2696
0.32533
0.331517
0.301038
0.253573
0.212508
0.188959
0.179071
0.174618
0.170041
0.135426
0.280964
0.341421
0.348952
0.3184
0.268301
0.22186
0.192065
0.177309
0.170547
0.167127
0.143658
0.290896
0.338528
0.344372
0.317098
0.272283
0.228106
0.19685
0.179572
0.17147
0.168686
0.204204
0.297317
0.32001
0.314252
0.292512
0.260819
0.227693
0.201095
0.183446
0.175228
0.171327
1.27311
1.7741
1.25599
0.780372
0.450563
0.252741
0.140522
0.0777363
0.0430051
0.0241468
0.0143917
0.862475
1.2084
1.00045
0.684651
0.424855
0.250756
0.143057
0.0795188
0.0435216
0.0240121
0.0140993
0.607817
0.995983
0.899171
0.676987
0.444297
0.270579
0.157356
0.0884902
0.0485416
0.0264805
0.0152141
0.491993
0.793751
0.78517
0.657859
0.469142
0.297565
0.175845
0.0995735
0.0547073
0.0296797
0.0167596
0.432008
0.660554
0.662774
0.582447
0.438568
0.292721
0.178814
0.102832
0.0565462
0.0304037
0.0168731
0.396234
0.570886
0.578192
0.512378
0.389786
0.266283
0.167725
0.099535
0.0563539
0.0310267
0.0176263
0.371031
0.504465
0.511096
0.452984
0.347962
0.241233
0.155134
0.0944431
0.0549327
0.0309779
0.0178288
0.352336
0.452824
0.456997
0.403515
0.311095
0.217592
0.142096
0.0883817
0.0527265
0.0305617
0.0183705
0.337837
0.411663
0.413235
0.363287
0.280321
0.197182
0.130302
0.0825637
0.0504791
0.0300882
0.0185274
0.325885
0.377774
0.377673
0.331128
0.255663
0.180603
0.120459
0.0774951
0.0483658
0.0294619
0.018293
0.315846
0.349279
0.348316
0.305175
0.235958
0.167349
0.112486
0.0732617
0.046466
0.0287612
0.0181937
0.307645
0.325276
0.323736
0.283758
0.219909
0.15666
0.106071
0.0698276
0.0448858
0.0281551
0.0179867
0.301167
0.304833
0.303177
0.266279
0.20712
0.148321
0.101147
0.0672355
0.0437304
0.0277486
0.0179516
0.296216
0.287274
0.286044
0.252407
0.197438
0.14227
0.09772
0.0655322
0.0430547
0.0275743
0.0180838
0.292559
0.272195
0.271522
0.24121
0.190144
0.138091
0.0956061
0.0646771
0.0428915
0.0276874
0.0182522
0.290409
0.259023
0.25925
0.232456
0.185152
0.135798
0.0948632
0.0647468
0.0433225
0.0281404
0.0186114
0.289757
0.247392
0.248642
0.225986
0.182729
0.135621
0.0956906
0.0658943
0.0444657
0.0290028
0.0191868
0.29027
0.237182
0.23882
0.220271
0.181644
0.137407
0.0983186
0.0683781
0.0465368
0.0305043
0.02021
0.292156
0.22813
0.229611
0.215132
0.181624
0.140724
0.102579
0.0722074
0.0496013
0.0328233
0.021768
0.295858
0.220023
0.220724
0.210222
0.182305
0.14536
0.108538
0.0776682
0.0539901
0.0362319
0.024126
0.30215
0.212786
0.211766
0.204967
0.182968
0.150775
0.116103
0.0851351
0.060315
0.0413065
0.0278347
0.312889
0.205875
0.202419
0.198514
0.182429
0.155904
0.124772
0.0948454
0.0693577
0.0490127
0.03382
0.327846
0.198806
0.19134
0.190404
0.180092
0.159888
0.133832
0.10667
0.0817143
0.0604602
0.0434698
0.341057
0.195706
0.19067
0.185176
0.176985
0.162216
0.142109
0.119464
0.096874
0.0760256
0.057978
1.26381
2.10232
1.42668
0.974134
0.61771
0.342924
0.181367
0.095486
0.0509488
0.0276902
0.0160457
1.15272
1.6818
1.41987
1.07891
0.76451
0.462159
0.248342
0.130778
0.0678922
0.0353843
0.0194073
0.897743
1.31216
1.29943
1.07385
0.816968
0.544449
0.317054
0.174349
0.0915243
0.0467795
0.0248371
0.585844
1.12768
1.18255
1.03095
0.820668
0.583236
0.369442
0.218428
0.119666
0.0621029
0.0333992
0.37914
1.19587
1.15202
1.00251
0.81137
0.598529
0.402242
0.257249
0.150188
0.0806473
0.0436259
0.444323
1.32555
1.19826
1.00522
0.805698
0.60404
0.422555
0.285783
0.180907
0.10168
0.0561534
0.508921
1.5085
1.31666
1.04669
0.811412
0.606842
0.435163
0.306781
0.206189
0.125338
0.0715728
0.551151
1.63485
1.50702
1.13732
0.834514
0.610787
0.442767
0.321985
0.226959
0.147102
0.0883276
0.556639
1.59126
1.68047
1.27065
0.87948
0.619439
0.447852
0.332945
0.243987
0.166606
0.105087
0.547348
1.50556
1.79332
1.429
0.947137
0.635398
0.452512
0.34104
0.258055
0.183982
0.121256
0.536485
1.42791
1.84233
1.58925
1.03569
0.660869
0.458809
0.347637
0.269992
0.199766
0.136915
0.526011
1.36374
1.84299
1.72623
1.1368
0.694924
0.467431
0.353562
0.280355
0.214379
0.151676
0.515176
1.3075
1.80588
1.82075
1.24162
0.736645
0.479313
0.359849
0.28982
0.228243
0.166148
0.502718
1.2415
1.7418
1.86777
1.34082
0.785052
0.495428
0.367679
0.299227
0.241745
0.181384
0.491991
1.1652
1.65841
1.86757
1.42207
0.83561
0.515789
0.377989
0.309527
0.255425
0.197689
0.481393
1.09341
1.54749
1.82179
1.47287
0.8825
0.539162
0.391957
0.322188
0.270555
0.215267
0.470306
1.02178
1.41714
1.70164
1.4852
0.918534
0.56527
0.411137
0.33911
0.288676
0.235237
0.458804
0.945909
1.27018
1.50585
1.4417
0.937949
0.593342
0.438475
0.36361
0.312398
0.259183
0.448736
0.868775
1.11227
1.27822
1.29826
0.952111
0.629171
0.481124
0.40254
0.346999
0.290124
0.443936
0.795474
0.953457
1.05374
1.09192
0.959674
0.690935
0.552433
0.466153
0.398825
0.33215
0.455784
0.742534
0.832003
0.883261
0.933305
0.920888
0.767189
0.623968
0.523157
0.441741
0.362144
0.556773
0.888979
0.925932
0.921925
0.887365
0.8385
0.684115
0.55041
0.442827
0.34814
0.261095
0.39017
0.807243
0.887135
0.695601
0.553237
0.439597
0.343555
0.268192
0.207975
0.160214
0.121874
0.360239
0.285878
0.236746
0.206968
0.187506
0.170993
0.153963
0.135322
0.115492
0.0955885
0.0766767
0.122135
0.111957
0.098736
0.0784497
0.0466248
0.014705
0.0141529
0.0154594
0.0192922
0.17241
0.147668
0.119774
0.0913488
0.0629349
0.0392148
0.0246215
0.0231344
0.0430188
0.171297
0.150714
0.130443
0.106589
0.0764456
0.0472035
0.0308662
0.0286522
0.0530227
0.154077
0.138417
0.121782
0.104607
0.0801134
0.0525934
0.0366181
0.0346304
0.0592257
0.128193
0.127937
0.124624
0.126338
0.119218
0.108011
0.0945545
0.0755967
0.0469744
0.192116
0.206246
0.212323
0.199637
0.181674
0.161007
0.132401
0.101006
0.0711055
0.193342
0.209539
0.21274
0.197322
0.178861
0.162066
0.143118
0.119363
0.0886353
0.170723
0.185357
0.185452
0.17241
0.160972
0.149539
0.132406
0.114726
0.0913945
0.00442732
0.004601
0.00461629
0.00250484
0.0465752
0.00438911
0.0111592
0.00454024
0.00438263
0.00424645
0.0463517
0.00455109
0.00370663
0.00329579
0.00448376
0.00430245
0.00329688
0.00249321
0.00429155
0.00424706
0.00411725
0.004486
0.00466667
0.0171327
0.00449377
0.00330753
0.00375597
0.0108817
0.0911291
0.0482729
0.003385
0.00410815
0.00297994
0.00453426
0.00426635
0.00459225
0.0159949
0.00448919
0.00288236
0.0043982
0.00750047
0.00454351
0.00590887
0.00465962
0.0610476
0.0133569
0.00326396
0.0209183
0.00429763
0.00432274
0.0481712
0.00440295
0.0210615
0.00600079
0.00431959
0.0041237
0.00433617
0.00440879
0.0901233
0.00754074
0.00564706
0.0205359
0.0521857
0.00849772
0.00892257
0.00425814
0.0505959
0.00425775
0.00460176
0.00423573
0.00329219
0.00433284
0.00318151
0.00472324
0.00712468
0.00429692
0.00432041
0.0045967
0.00940178
0.0726684
0.0495867
0.00674455
0.00449545
0.00462567
0.00437593
0.00321592
0.102251
0.0206668
0.00316573
0.0174243
0.00454222
0.00441803
0.00789426
0.0043714
0.0718319
0.0264897
0.00509796
0.00396175
0.00349184
0.00443124
0.00470988
0.0211459
0.00416968
0.00402731
0.00285065
0.00454996
0.0030451
0.00464643
0.0043554
0.00419768
0.00450539
0.00455858
0.00430842
0.00241309
0.00437767
0.00442447
0.00438653
0.00431423
0.00449297
0.00414165
0.00240234
0.00460183
0.00511436
0.00324839
0.0124898
0.00412255
0.0671785
0.00304218
0.00321934
0.003535
0.00445258
0.00742942
0.0207886
0.00430478
0.00461511
0.00455278
0.00410561
0.0044562
0.0493392
0.00446848
0.00578937
0.00412297
0.0247444
0.00402486
0.00437839
0.00332504
0.00442829
0.00426264
0.00433205
0.00423653
0.00426419
0.00441796
0.00356421
0.00460157
0.00253534
0.00330568
0.0038624
0.00378838
0.00320216
0.00435858
0.00363966
0.00425335
0.00432626
0.0044344
0.0526129
0.00565208
0.00363026
0.0044302
0.00413739
0.00861106
0.00309904
0.00309232
0.00441803
0.00405941
0.00409785
0.00396525
0.00317484
0.00360927
0.0615986
0.00393098
0.00426317
0.00454377
0.00465935
0.0134804
0.00449702
0.00419682
0.0042395
0.00429843
0.00458756
0.0126695
0.00417368
0.00341972
0.00427154
0.00712908
0.00460988
0.00439974
0.00435451
0.00355088
0.00361952
0.00467917
0.00315861
0.00431532
0.00401683
0.00347842
0.00462813
0.0212633
0.00434893
0.00321234
0.00434329
0.0043385
0.0207879
0.00439544
0.00401411
0.00422647
0.00448948
0.0111415
0.0045089
0.0037819
0.00425758
0.00321944
0.002781
0.00233487
0.00509132
0.00435157
0.0032081
0.00441344
0.00949599
0.00549363
0.00395087
0.0237409
0.00394653
0.0042557
0.0042562
0.00461894
0.00353053
0.0705386
0.0490364
0.00464618
0.00455668
0.00454422
0.0037985
0.0110526
0.00401828
0.00590247
0.00448725
0.00473366
0.0045163
0.00356964
0.0327119
0.0643263
0.00355662
0.0208781
0.00511999
0.00429548
0.00395938
0.00436447
0.00414383
0.00447532
0.00315007
0.00423335
0.00340948
0.00454057
0.00432599
0.0045725
0.00450369
0.00313083
0.00412596
0.00432809
0.00559278
0.00372307
0.0211259
0.00431029
0.00430831
0.00316739
0.00438668
0.00432754
0.00330851
0.00444514
0.00428254
0.00314561
0.00438411
0.00459922
0.0495894
0.0457834
0.00395901
0.00439458
0.0796898
0.00458689
0.00425402
0.00531756
0.0046169
0.0114056
0.00453984
0.00288577
0.00467818
0.00435262
0.00411725
0.0045624
0.00426529
0.00333715
0.00444457
0.00250443
0.00437195
0.0487564
0.00415412
0.00419509
0.00459741
0.0174859
0.00439692
0.00435307
0.00726055
0.00456359
0.00409988
0.00298712
0.00490122
0.00410652
0.00369565
0.00324755
0.00413052
0.00452696
0.00423931
0.0401289
0.00435751
0.00339018
0.00566129
0.00425502
0.0044519
0.00371214
0.00423977
0.0299842
0.00425147
0.0528129
0.00387847
0.00465163
0.00354736
0.0405232
0.00354128
0.00458506
0.00447123
0.00394615
0.00398707
0.0197469
0.00430294
0.00547006
0.0199629
0.0176064
0.005218
0.00437984
0.0137075
0.0700837
0.00832151
0.00392312
0.00374039
0.0041708
0.00393791
0.00468917
0.00278634
0.00399835
0.00466073
0.0375022
0.00386189
0.00333373
0.00451653
0.00451155
0.00431202
0.00334102
0.00308159
0.00294272
0.0100067
0.00490621
0.00443884
0.0117107
0.0377736
0.00321042
0.00388968
0.00460806
0.00391696
0.00425323
0.00437422
0.00424283
0.0382613
0.00438423
0.00321225
0.00441941
0.00340709
0.0509934
0.00241826
0.00319355
0.0108224
0.00352286
0.00442784
0.00513999
0.00309796
0.00476041
0.0512821
0.00912984
0.00447754
0.00427831
0.00462285
0.0055405
0.00313442
0.00441129
0.00466328
0.00535236
0.00285524
0.00857998
0.00802482
0.00732148
0.00431396
0.0401842
0.00431775
0.00427683
0.00373957
0.00367744
0.0041448
0.00407851
0.00419594
0.00495697
0.0031525
0.00481355
0.0314471
0.00322499
0.0118252
0.00415397
0.00398606
0.00417929
0.0046911
0.00480792
0.00505628
0.0102543
0.00448479
0.00321682
0.00343075
0.00410482
0.00448825
0.00280643
0.0246069
0.0480268
0.00325928
0.00468854
0.00396285
0.100468
0.00309455
0.00245393
0.00421471
0.00333689
0.00965442
0.00345648
0.00434091
0.00403543
0.00443912
0.00461268
0.00449742
0.0042861
0.00441759
0.0105414
0.00310928
0.00317581
0.00492524
0.00458929
0.00433593
0.0690288
0.00320995
0.00395084
0.00428764
0.00814182
0.00762112
0.00545505
0.00546768
0.00425706
0.00393616
0.00316429
0.0042152
0.00558632
0.00424936
0.00458349
0.00432118
0.00557838
0.00367897
0.00424648
0.00445238
0.00413349
0.0177342
0.00455549
0.00464743
0.00336289
0.0313795
0.00404693
0.0028655
0.00433868
0.00337483
0.00439721
0.00424287
0.00440924
0.00338253
0.00326556
0.0042616
0.00339707
0.00400169
0.00430985
0.00375039
0.00370175
0.00453393
0.00453392
0.037202
0.003025
0.00291202
0.00425344
0.0187804
0.00461908
0.0352042
0.00434639
0.00357287
0.00501715
0.00475077
0.0481426
0.00490027
0.00338585
0.00445226
0.00360507
0.00412047
0.00459741
0.00442511
0.00456926
0.00421099
0.0364427
0.00451138
0.0043527
0.0119828
0.00443711
0.00967608
0.00420133
0.0141418
0.00331199
0.00322093
0.004678
0.00447639
0.00463777
0.00670739
0.00373414
0.00450057
0.00449017
0.00324008
0.00461776
0.00308088
0.00460706
0.0401012
0.00423992
0.00400678
0.00289075
0.0033538
0.0144849
0.0372521
0.00416372
0.00412226
0.00431419
0.00460505
0.00280449
0.00329398
0.00423465
0.00351796
0.0287787
0.0244191
0.00449227
0.00432581
0.00459803
0.00947065
0.0523804
0.00421868
0.00453896
0.00437946
0.0462403
0.00430895
0.00302186
0.00327633
0.0090373
0.0337907
0.00443301
0.00452511
0.00446378
0.00491131
0.00433945
0.00678559
0.00319805
0.00409913
0.00507607
0.00715095
0.0046397
0.00467392
0.0707857
0.00440945
0.00354324
0.00372081
0.00518369
0.00894955
0.00395448
0.00360896
0.00421904
0.00443839
0.00448654
0.0265195
0.00306286
0.0039094
0.00424909
0.00450093
0.00670654
0.00422677
0.00445881
0.004267
0.00430802
0.0031871
0.0030246
0.00512252
0.0056756
0.00401722
0.00515519
0.00428871
0.00938353
0.00428422
0.00445242
0.0328165
0.0277912
0.00438376
0.00438974
0.0040478
0.00415668
0.00433018
0.00565109
0.00460798
0.00420881
0.00330305
0.00289091
0.00382055
0.00315042
0.00319434
0.00559726
0.0280166
0.00505021
0.00607892
0.00354047
0.00354332
0.004624
0.00348786
0.00462097
0.00417465
0.00572524
0.00394259
0.00420972
0.00446002
0.0034394
0.00572229
0.0313598
0.00361286
0.00457956
0.00442589
0.00523764
0.00455005
0.00428895
0.00427182
0.00339439
0.00426151
0.0042598
0.00419759
0.00459066
0.00498104
0.006202
0.022849
0.00428346
0.00421846
0.00399097
0.00588342
0.00447733
0.0157507
0.00431204
0.00864447
0.0387833
0.0044315
0.0029193
0.00465898
0.0030009
0.00583554
0.00315826
0.0286073
0.00364761
0.00427584
0.00463615
0.00371755
0.00321948
0.00420846
0.0680537
0.00437145
0.00408383
0.00463226
0.00374615
0.00420018
0.0032327
0.00455335
0.00440791
0.00440357
0.00377148
0.00423206
0.00456233
0.00334097
0.00437357
0.00532719
0.00321256
0.00408251
0.00425655
0.00508661
0.00284136
0.00407952
0.00373627
0.0036053
0.0069755
0.00302353
0.0113366
0.00446787
0.00336524
0.00448824
0.00424602
0.0067813
0.00487757
0.00340842
0.00329098
0.00431169
0.00420878
0.00413358
0.00417386
0.00458399
0.0578361
0.00468661
0.0383201
0.00416598
0.00397651
0.00774492
0.00874015
0.0045764
0.00347579
0.00380781
0.00292385
0.00452336
0.00334175
0.0276331
0.00454856
0.009497
0.00352389
0.00478687
0.00805059
0.00438737
0.00423292
0.00422161
0.00338132
0.00439658
0.00321077
0.00457093
0.00300765
0.00431801
0.00290079
0.00301247
0.0236297
0.00428363
0.00428653
0.0217803
0.0142212
0.00446362
0.00321471
0.00385371
0.00376021
0.00513245
0.00381877
0.00446228
0.00438595
0.00289888
0.00496555
0.00428031
0.0043667
0.0044162
0.00475932
0.00367556
0.00468986
0.00448245
0.00456984
0.0321707
0.0375202
0.00359898
0.00457328
0.00337531
0.00465732
0.00455516
0.00457814
0.00462692
0.00447905
0.00441309
0.00317502
0.00497341
0.0101608
0.00307991
0.00451545
0.00442963
0.00449465
0.0037677
0.0311089
0.004596
0.00412783
0.00352687
0.0175612
0.0193897
0.0047603
0.00392075
0.00390311
0.00443333
0.00446256
0.0119123
0.00421814
0.00456168
0.00447342
0.00974077
0.00400133
0.0039047
0.0045557
0.00409566
0.00621647
0.00372521
0.00456025
0.00309242
0.0039231
0.00425974
0.00412404
0.0046396
0.00427349
0.0024694
0.00295647
0.0035712
0.00460031
0.00419595
0.00472716
0.00433442
0.00458855
0.00699393
0.00344297
0.0090981
0.0143164
0.00495934
0.00454367
0.0513354
0.00466908
0.00430504
0.00505959
0.00448423
0.00441591
0.00442049
0.00302988
0.0167697
0.00333584
0.00441301
0.00334104
0.00442402
0.00468791
0.00432938
0.00438527
0.00448378
0.0044938
0.00455833
0.00431262
0.0668994
0.00438306
0.00425488
0.00476356
0.0181485
0.00425079
0.00450519
0.00513068
0.0577099
0.00421969
0.00449171
0.00292274
0.00346848
0.00465149
0.00454021
0.00425127
0.0040074
0.00857753
0.00459713
0.0118815
0.00289897
0.0281537
0.00295187
0.00457703
0.00325348
0.00564071
0.00444341
0.00459044
0.00426155
0.00460715
0.00395708
0.0105376
0.00417451
0.00547771
0.0506169
0.00388936
0.00394148
0.00579187
0.00466367
0.00455651
0.00315309
0.00280216
0.00329104
0.00440381
0.0283139
0.00430907
0.00332928
0.00430861
0.0031559
0.0031234
0.00326315
0.00351928
0.00420322
0.00452783
0.0504778
0.0041956
0.0685644
0.00431936
0.00301412
0.00433397
0.0042095
0.0573031
0.00438085
0.00460439
0.00352387
0.0098329
0.0085732
0.0034713
0.00328511
0.0033252
0.0115019
0.0354984
0.00451973
0.0043861
0.0686941
0.00439914
0.00544374
0.00449102
0.0147932
0.00296615
0.00674086
0.00460328
0.00342347
0.00464821
0.00441159
0.00418071
0.0027947
0.00424756
0.00445826
0.00430982
0.00455213
0.00472316
0.0046593
0.00453392
0.00418802
0.00859249
0.00363031
0.00398072
0.00460946
0.00906238
0.0029736
0.00459941
0.00466642
0.00408837
0.00630223
0.0487045
0.00397374
0.00340566
0.00410176
0.0043464
0.00314714
0.00442819
0.00422211
0.0104139
0.00455397
0.0645002
0.00976695
0.0219387
0.00455279
0.00456442
0.00433638
0.044659
0.00337099
0.00313051
0.00467577
0.00306886
0.0205584
0.00456052
0.00402788
0.00754406
0.00399162
0.0302635
0.00366501
0.00445217
0.0043235
0.00422929
0.00423108
0.0076508
0.00278381
0.0140346
0.0517523
0.00459898
0.0030899
0.00389589
0.005141
0.0147136
0.0033531
0.00439038
0.00406539
0.0031563
0.0045443
0.00469154
0.00467851
0.00587869
0.00414615
0.00461086
0.00371698
0.00474855
0.0032223
0.00452108
0.00803038
0.00408955
0.00407758
0.00398257
0.00455493
0.00431922
0.00447499
0.0133819
0.00424918
0.0110998
0.00400096
0.00343526
0.00450415
0.00417689
0.00450348
0.00437712
0.0034321
0.0171029
0.00610011
0.0561901
0.0106488
0.0366556
0.00420287
0.00449614
0.00254257
0.00462775
0.00325782
0.0160751
0.00429629
0.00555679
0.00388458
0.034335
0.00419725
0.00318993
0.0045496
0.0525486
0.00469641
0.0353864
0.0040713
0.0048481
0.00488
0.00990954
0.00420777
0.00537561
0.00396211
0.00452054
0.0190192
0.00558633
0.0248555
0.00352105
0.00248115
0.0142249
0.00457382
0.00461254
0.0037245
0.00441703
0.00344138
0.00331877
0.00341725
0.00390619
0.00311144
0.0551628
0.00437461
0.00426775
0.00431978
0.00457037
0.00284815
0.00340345
0.00425473
0.00332477
0.0427797
0.00426153
0.0573732
0.00726631
0.00447966
0.00621877
0.00380761
0.00319277
0.00317439
0.0286111
0.00442481
0.00452672
0.051628
0.00437242
0.00458692
0.00355283
0.00454332
0.00438038
0.0364236
0.00465107
0.0341274
0.00397227
0.00389704
0.00428445
0.00430354
0.00764012
0.00324397
0.0138154
0.00444692
0.00279732
0.0053255
0.0030467
0.00284562
0.0052797
0.00553858
0.00423981
0.0092377
0.0159086
0.00406458
0.00431548
0.00351824
0.00381045
0.00468226
0.00347902
0.0488849
0.00425854
0.00468914
0.00450697
0.0040828
0.00281282
0.00321974
0.00325799
0.0723099
0.00481059
0.00587806
0.00555618
0.00457485
0.00400599
0.00424481
0.0042167
0.0926798
0.00461758
0.0203453
0.0244767
0.00456155
0.00449417
0.00465957
0.0326616
0.0337784
0.0207589
0.00334788
0.00456586
0.00426581
0.00326364
0.0470929
0.00656134
0.00303376
0.00434137
0.00616419
0.00931714
0.00542906
0.0041714
0.013206
0.0283213
0.00405335
0.00382972
0.00429911
0.00438892
0.0316026
0.00320678
0.00370177
0.00460012
0.00465501
0.00414036
0.0485671
0.00367042
0.00293831
0.00861647
0.00469626
0.00437872
0.0132535
0.00588272
0.00461982
0.00304639
0.00314994
0.00412108
0.0621699
0.00453446
0.00442392
0.00426548
0.00549339
0.00309924
0.00435653
0.0049621
0.00461303
0.00455777
0.00468819
0.00329023
0.00442965
0.00710325
0.00419271
0.00455778
0.0488232
0.0043708
0.00351367
0.00363587
0.00453901
0.00352098
0.00535256
0.00451989
0.00456267
0.00448045
0.00301195
0.0044963
0.00427121
0.00442706
0.00356144
0.00624254
0.00313375
0.00482951
0.00429818
0.00598119
0.00416864
0.00467578
0.00420592
0.00458642
0.00316094
0.00414048
0.0032672
0.00412702
0.00420256
0.00449944
0.0045081
0.0360194
0.00546797
0.0149969
0.00468828
0.00278099
0.0687354
0.00321793
0.00289679
0.00439735
0.00548788
0.0115644
0.00626046
0.00318437
0.00533759
0.00383063
0.00303437
0.00450256
0.0676038
0.00308601
0.00414697
0.00416922
0.00408752
0.00361149
0.00282547
0.00478113
0.00306383
0.0558519
0.0425553
0.00448532
0.00425881
0.010236
0.0166517
0.00401557
0.00454833
0.00419468
0.00462917
0.00447444
0.00487437
0.00440269
0.00465055
0.013066
0.00242987
0.00431644
0.00442797
0.004395
0.00417226
0.0046838