/*--------------------------------*- C++ -*----------------------------------*\
| =========                 |                                                 |
| \\      /  F ield         | OpenFOAM: The Open Source CFD Toolbox           |
|  \\    /   O peration     | Version:  3.0.1                                 |
|   \\  /    A nd           | Web:      www.OpenFOAM.org                      |
|    \\/     M anipulation  |                                                 |
\*---------------------------------------------------------------------------*/
FoamFile
{
    version     2.0;
    format      ascii;
    class       volScalarField;
    location    "0.705411";
    object      p;
}
// * * * * * * * * * * * * * * * * * * * * * * * * * * * * * * * * * * * * * //

dimensions      [0 2 -2 0 0 0 0];

internalField   nonuniform List<scalar> 
21246
(
0.829254
4.82008
5.28375
4.96039
4.25985
3.52652
2.8572
2.27504
1.76681
1.35024
1.16789
-24.2472
-10.5887
-6.06887
-2.35442
-0.401352
0.45767
0.724751
0.720301
0.585019
0.41415
0.348112
-29.6288
-20.2023
-16.3897
-10.6607
-6.60738
-3.87995
-2.27019
-1.37948
-0.917448
-0.687784
-0.502839
-26.2729
-22.5341
-20.7753
-15.7603
-11.7327
-8.1744
-5.5653
-3.8012
-2.67618
-1.96417
-1.44499
-21.7306
-20.6656
-20.2375
-17.084
-14.2502
-10.9876
-8.20243
-5.99869
-4.39863
-3.28029
-2.46365
-18.1287
-17.8851
-17.8584
-16.1164
-14.4498
-11.9973
-9.64574
-7.49795
-5.74751
-4.40572
-3.38166
-15.2883
-15.3308
-15.3618
-14.3724
-13.4177
-11.7253
-9.97525
-8.17042
-6.54085
-5.17211
-4.04938
-12.8766
-13.0912
-13.1212
-12.5444
-11.976
-10.8215
-9.57299
-8.16574
-6.79344
-5.54729
-4.47526
-10.9711
-11.157
-11.1761
-10.8471
-10.4963
-9.70072
-8.81074
-7.73814
-6.63236
-5.56106
-4.58895
-9.52507
-9.59511
-9.58663
-9.38262
-9.1415
-8.5768
-7.92718
-7.10556
-6.22259
-5.32305
-4.46715
-8.31709
-8.30997
-8.28901
-8.14745
-7.96116
-7.54144
-7.04701
-6.40404
-5.69236
-4.94257
-4.22818
-7.31799
-7.22992
-7.19405
-7.09156
-6.94187
-6.61742
-6.22312
-5.7035
-5.11615
-4.47679
-3.84576
-6.58094
-6.39498
-6.33747
-6.23823
-6.09556
-5.82117
-5.48222
-5.04033
-4.53837
-3.98567
-3.43163
-6.04064
-5.78067
-5.70208
-5.58488
-5.42326
-5.15909
-4.83617
-4.43267
-3.98309
-3.49774
-3.02799
-5.59874
-5.28259
-5.18183
-5.04001
-4.85793
-4.5909
-4.26514
-3.8746
-3.45192
-3.00866
-2.57725
-5.22383
-4.87301
-4.74614
-4.57481
-4.3684
-4.08771
-3.74576
-3.35014
-2.93705
-2.52489
-2.14252
-4.89833
-4.52197
-4.3721
-4.17256
-3.938
-3.63216
-3.2602
-2.844
-2.42919
-2.04292
-1.70203
-4.58235
-4.19485
-4.01944
-3.79279
-3.52816
-3.19165
-2.78071
-2.33508
-1.91545
-1.55692
-1.26209
-4.26045
-3.87048
-3.67524
-3.42656
-3.1275
-2.74591
-2.28181
-1.80362
-1.38705
-1.06778
-0.84135
-3.93976
-3.55351
-3.34424
-3.07185
-2.72087
-2.26628
-1.73712
-1.23624
-0.846097
-0.582177
-0.416712
-3.60714
-3.24307
-3.0198
-2.70382
-2.26411
-1.70748
-1.12361
-0.635846
-0.307803
-0.118041
-0.000939702
-3.18789
-2.92701
-2.65986
-2.24487
-1.67319
-1.0263
-0.45056
-0.0560539
0.160271
0.262407
0.330173
-3.05835
-2.72586
-2.2713
-1.65294
-0.954552
-0.311215
0.150814
0.39133
0.509076
0.585367
0.832682
-2.37545
-1.46151
-0.858244
-0.278074
0.190874
0.483035
0.576331
0.553179
0.510635
0.483983
0.583421
24.3165
17.5967
12.9049
9.72938
7.40757
5.74057
4.49618
3.5256
2.74257
2.1287
1.74002
18.1783
18.3448
16.189
13.2316
10.3835
8.03536
6.20873
4.79247
3.68808
2.85922
2.33776
10.8927
13.5829
13.6695
13.006
11.3192
9.24183
7.28539
5.62975
4.3131
3.33168
2.70429
4.72606
8.43791
9.53
10.3431
10.0018
8.86847
7.439
5.9907
4.69781
3.67344
3.01772
0.598796
3.96022
5.15952
6.83631
7.53237
7.45891
6.75988
5.76485
4.69789
3.75461
3.09745
-1.94327
0.778927
1.67412
3.56695
4.65435
5.30252
5.29479
4.86298
4.18465
3.47675
2.94299
-3.46998
-1.26095
-0.73279
1.10258
2.12626
3.13621
3.58058
3.62431
3.34661
2.92624
2.56838
-4.32454
-2.50735
-2.33702
-0.550591
0.19721
1.29505
1.95935
2.31839
2.36519
2.21616
2.04295
-4.9648
-3.33035
-3.41672
-1.80252
-1.1277
-0.114836
0.603789
1.13079
1.40024
1.46911
1.47005
-5.49214
-4.13297
-3.95301
-2.79635
-2.11036
-1.17766
-0.462928
0.140617
0.545925
0.774493
0.91822
-5.86633
-4.84213
-4.44408
-3.4813
-2.83466
-1.97257
-1.27757
-0.642955
-0.16
0.17588
0.419383
-6.05559
-5.2058
-4.818
-3.95565
-3.34977
-2.54861
-1.87964
-1.23731
-0.713003
-0.309467
-0.00304893
-6.20813
-5.41004
-5.05281
-4.26057
-3.69154
-2.93882
-2.2974
-1.66057
-1.11905
-0.674757
-0.329488
-6.35236
-5.53501
-5.18321
-4.43124
-3.88767
-3.17181
-2.55462
-1.92992
-1.3869
-0.925809
-0.551204
-6.27352
-5.5159
-5.1995
-4.48481
-3.96002
-3.27386
-2.67461
-2.06443
-1.52801
-1.06529
-0.688253
-6.13667
-5.41688
-5.12178
-4.43874
-3.92321
-3.26245
-2.67417
-2.07973
-1.55489
-1.1013
-0.731768
-5.98634
-5.27031
-4.97102
-4.30874
-3.78835
-3.14656
-2.56336
-1.98592
-1.47818
-1.04469
-0.69742
-5.74752
-5.04339
-4.73648
-4.093
-3.55726
-2.92822
-2.34749
-1.79038
-1.30787
-0.905911
-0.581836
-5.42344
-4.73333
-4.41153
-3.78371
-3.22481
-2.60402
-2.02898
-1.50049
-1.05578
-0.699628
-0.419796
-5.03455
-4.34671
-3.99216
-3.37062
-2.7824
-2.16921
-1.61167
-1.12785
-0.737754
-0.44009
-0.215323
-4.56219
-3.8627
-3.45607
-2.83218
-2.21869
-1.62434
-1.10823
-0.694793
-0.375377
-0.141255
0.0210501
-3.95734
-3.23369
-2.75361
-2.13161
-1.52214
-0.97892
-0.538316
-0.233096
0.0178488
0.185041
0.284038
-3.30219
-2.43576
-1.89285
-1.32883
-0.789053
-0.347634
-0.0248498
0.207674
0.379223
0.47777
0.51967
-1.70668
-1.00343
-0.590111
-0.218732
0.114481
0.354389
0.53465
0.700973
0.858451
0.937961
0.835763
-9.39579
-4.78447
-2.79272
-1.70285
-0.957174
-0.48378
-0.192945
-0.0129903
0.0814318
0.132704
0.20175
-12.219
-8.0694
-6.11909
-4.487
-3.03258
-1.97685
-1.28063
-0.839467
-0.568147
-0.387571
-0.251791
-8.87624
-8.08195
-7.37793
-6.18103
-4.76676
-3.48919
-2.48383
-1.76661
-1.27456
-0.937472
-0.689925
-7.03361
-7.05587
-6.88447
-6.3441
-5.47414
-4.42476
-3.40788
-2.56286
-1.92405
-1.46214
-1.12
-6.25381
-6.2667
-6.1991
-5.94776
-5.44952
-4.73916
-3.90101
-3.08829
-2.40474
-1.8745
-1.47059
-5.89616
-5.80243
-5.73544
-5.57486
-5.25187
-4.73675
-4.06647
-3.3475
-2.68552
-2.13398
-1.69359
-5.57668
-5.44353
-5.38607
-5.24911
-4.99775
-4.59437
-4.04421
-3.4144
-2.79651
-2.25315
-1.79968
-5.24198
-5.09842
-5.03601
-4.90658
-4.69637
-4.36263
-3.89684
-3.34279
-2.77601
-2.25979
-1.82174
-4.91429
-4.76157
-4.67754
-4.54176
-4.35556
-4.06445
-3.65889
-3.16858
-2.65413
-2.1726
-1.74919
-4.60784
-4.43699
-4.33618
-4.17813
-4.00563
-3.73204
-3.36635
-2.92726
-2.46272
-2.02227
-1.62684
-4.33531
-4.14183
-4.02683
-3.85626
-3.65276
-3.39175
-3.05275
-2.65401
-2.23432
-1.83552
-1.47615
-4.09809
-3.88297
-3.75516
-3.56688
-3.34361
-3.07962
-2.7508
-2.38147
-1.99855
-1.63592
-1.30315
-3.89787
-3.66636
-3.53094
-3.32663
-3.09129
-2.81516
-2.4921
-2.13861
-1.78081
-1.44685
-1.14576
-3.73882
-3.49598
-3.35878
-3.14414
-2.90007
-2.61329
-2.28887
-1.94202
-1.59675
-1.27837
-0.995019
-3.61735
-3.36759
-3.23385
-3.01359
-2.7637
-2.47127
-2.14353
-1.79513
-1.45016
-1.13536
-0.857693
-3.52666
-3.27674
-3.14812
-2.92687
-2.67625
-2.38267
-2.04975
-1.6923
-1.33678
-1.01535
-0.739306
-3.46538
-3.22009
-3.09646
-2.88075
-2.63362
-2.33975
-1.99806
-1.62356
-1.24811
-0.909949
-0.623985
-3.43014
-3.19472
-3.07905
-2.87411
-2.63298
-2.33749
-1.98078
-1.57964
-1.17558
-0.817379
-0.528112
-3.41908
-3.20102
-3.09744
-2.90909
-2.6767
-2.37462
-1.99108
-1.54996
-1.10977
-0.732791
-0.443225
-3.43291
-3.24021
-3.15541
-2.98956
-2.77004
-2.4561
-2.047
-1.56703
-1.07502
-0.659181
-0.369869
-3.45835
-3.3222
-3.27313
-3.14294
-2.95521
-2.65707
-2.19195
-1.66556
-1.13988
-0.671117
-0.339847
-3.50854
-3.50146
-3.51505
-3.41875
-3.16354
-2.77339
-2.30695
-1.80353
-1.29604
-0.825578
-0.442634
-3.72048
-3.98882
-3.72146
-3.45509
-3.1326
-2.74596
-2.33187
-1.90224
-1.45968
-1.02359
-0.625312
-4.92913
-3.5093
-3.35991
-3.13733
-2.86035
-2.57598
-2.28443
-1.97306
-1.62852
-1.25661
-0.879863
3.48855
1.58635
0.662915
0.416093
0.462237
0.571686
0.649659
0.672241
0.645686
0.602121
0.606558
6.14642
5.09183
3.82224
2.85728
2.24907
1.8826
1.63258
1.42296
1.22296
1.04328
0.983946
5.3467
5.31684
4.86086
4.20493
3.55894
3.0073
2.54409
2.13919
1.77371
1.45992
1.28031
4.40739
4.60219
4.6041
4.39149
4.03018
3.59697
3.13426
2.66242
2.2
1.79112
1.55385
3.70065
3.83486
3.93178
3.94064
3.83095
3.60475
3.27614
2.86172
2.39241
1.94507
1.67453
3.09565
3.15506
3.22466
3.26955
3.26693
3.19882
3.04818
2.78581
2.40949
1.9915
1.72401
2.52229
2.5302
2.56066
2.58334
2.59427
2.5869
2.54323
2.42505
2.18589
1.84821
1.59114
1.97954
1.93038
1.92172
1.89751
1.8685
1.84189
1.81956
1.78318
1.66943
1.45373
1.24813
1.4666
1.35592
1.31254
1.23323
1.14578
1.05995
0.993166
0.962024
0.937717
0.851286
0.757235
0.984129
0.804393
0.738384
0.59621
0.445746
0.290464
0.14636
0.0551958
0.0527825
0.0773929
0.111958
0.529991
0.281221
0.204329
-0.00777761
-0.218672
-0.446311
-0.674522
-0.853698
-0.910828
-0.83097
-0.657427
0.104743
-0.186383
-0.309564
-0.565209
-0.831934
-1.13244
-1.44435
-1.71573
-1.85529
-1.79304
-1.52222
-0.289254
-0.611073
-0.782146
-1.06406
-1.3881
-1.75208
-2.13855
-2.49634
-2.71976
-2.70512
-2.34618
-0.647106
-0.989912
-1.19975
-1.5077
-1.87317
-2.28795
-2.73313
-3.15637
-3.45161
-3.48752
-3.17767
-0.963511
-1.31684
-1.55561
-1.88326
-2.27564
-2.72384
-3.20623
-3.66817
-4.00498
-4.08132
-3.82591
-1.23211
-1.58346
-1.84023
-2.17572
-2.57901
-3.04002
-3.5346
-4.00707
-4.3582
-4.45445
-4.25804
-1.44408
-1.77848
-2.04055
-2.36948
-2.76507
-3.21714
-3.69684
-4.15425
-4.49997
-4.60298
-4.44563
-1.59137
-1.89433
-2.14817
-2.4573
-2.8263
-3.24635
-3.69059
-4.11072
-4.42332
-4.51265
-4.31902
-1.67022
-1.93012
-2.16297
-2.43903
-2.76648
-3.13921
-3.53303
-3.89858
-4.15794
-4.2196
-4.03983
-1.68441
-1.89284
-2.09306
-2.32861
-2.61032
-2.93206
-3.26386
-3.55424
-3.73333
-3.71557
-3.41033
-1.63576
-1.78967
-1.9583
-2.16581
-2.41729
-2.69161
-2.94837
-3.14111
-3.21926
-3.13305
-2.84761
-1.52813
-1.66039
-1.81839
-2.03596
-2.28029
-2.50233
-2.66156
-2.73568
-2.70391
-2.53401
-2.20044
-1.52809
-1.58329
-1.80081
-2.06681
-2.29006
-2.41619
-2.44298
-2.38609
-2.25021
-2.0121
-1.67193
-1.01915
-1.62138
-2.02048
-2.27997
-2.37836
-2.35103
-2.24307
-2.07763
-1.8574
-1.56801
-1.21709
8.34144
4.08846
2.43103
1.92356
1.99077
2.20239
2.39493
2.4974
2.51868
2.49397
2.52352
19.4778
15.5593
12.0916
9.46212
7.59422
6.33877
5.49161
4.87759
4.39125
4.00474
3.75553
18.3169
17.6936
15.8055
13.7048
11.6547
9.82697
8.31501
7.10962
6.15034
5.39908
4.88988
16.2865
16.5322
16.0567
14.9606
13.4845
11.8424
10.2535
8.83937
7.64525
6.67776
5.97757
14.8299
15.3392
15.2212
14.7984
13.9894
12.8771
11.5705
10.2263
8.95675
7.83417
6.97155
13.6506
14.2603
14.2616
14.2432
13.8911
13.1889
12.2017
11.0448
9.83384
8.68263
7.73452
12.5918
13.0715
13.2093
13.3094
13.204
12.826
12.1627
11.2677
10.2311
9.1664
8.21963
11.7485
12.0911
12.2271
12.3555
12.3556
12.1639
11.7379
11.0837
10.2508
9.33826
8.50595
11.0294
11.2997
11.3988
11.5112
11.5403
11.4354
11.1514
10.6723
10.0149
9.24817
8.51964
10.3429
10.5933
10.6742
10.7688
10.7987
10.7293
10.5228
10.1577
9.63313
8.99057
8.35293
9.78946
9.99245
10.0428
10.1123
10.1286
10.0682
9.90066
9.60569
9.17498
8.6344
8.09761
9.40631
9.51512
9.51025
9.53746
9.52442
9.45401
9.30035
9.04568
8.67965
8.21786
7.74903
8.99887
9.05447
9.01846
9.0103
8.96564
8.87613
8.72118
8.48697
8.16373
7.76066
7.36444
8.5285
8.57336
8.52941
8.49774
8.42641
8.31644
8.15307
7.92776
7.63325
7.2719
6.92513
8.18551
8.15995
8.06889
7.99706
7.8929
7.75897
7.58308
7.36125
7.09039
6.76972
6.46677
7.79271
7.71061
7.58787
7.48163
7.34538
7.1865
6.99692
6.77743
6.52894
6.24656
5.98444
7.28972
7.18955
7.05791
6.92618
6.76168
6.58011
6.37961
6.16658
5.94484
5.70446
5.48158
6.83206
6.67249
6.50215
6.32827
6.1277
5.92288
5.71798
5.52223
5.33884
5.15238
4.9915
6.33868
6.10463
5.8865
5.66226
5.42241
5.1993
5.00452
4.84573
4.71817
4.59601
4.49333
5.73959
5.42301
5.15678
4.88356
4.6138
4.39403
4.24065
4.1503
4.10047
4.05202
3.99277
5.00905
4.58617
4.26483
3.95107
3.67943
3.50998
3.45001
3.46807
3.51649
3.54915
3.54294
4.10536
3.51778
3.16019
2.8414
2.63516
2.59829
2.69687
2.85539
3.00722
3.11308
3.15808
2.59942
2.18648
1.77602
1.56265
1.56837
1.77486
2.07822
2.37401
2.60596
2.75619
2.81028
3.21917
0.79913
0.677087
0.728602
1.0017
1.41444
1.81643
2.13886
2.37055
2.51368
2.54974
-34.6267
-15.6399
-8.56002
-4.96323
-2.62224
-1.20756
-0.24597
0.360257
0.75811
1.02309
1.28263
-46.4537
-30.5666
-22.6725
-15.9309
-10.167
-6.25998
-3.80806
-2.27682
-1.27572
-0.595041
-0.0478655
-38.3037
-34.769
-30.9827
-24.8783
-18.0975
-12.4404
-8.34105
-5.53466
-3.66797
-2.3909
-1.44776
-30.2072
-31.4226
-30.999
-27.9211
-22.9792
-17.5251
-12.6829
-8.94669
-6.23403
-4.32458
-2.90732
-27.298
-28.4625
-28.6129
-27.4333
-24.6146
-20.4288
-15.8678
-11.8464
-8.63303
-6.19251
-4.36389
-26.5481
-27.1415
-27.1362
-26.4994
-24.7598
-21.676
-17.7789
-13.9219
-10.5657
-7.81243
-5.61851
-25.4734
-26.0288
-26.1007
-25.7312
-24.5124
-22.1178
-18.8083
-15.2543
-11.9485
-9.09998
-6.70392
-24.3776
-24.9522
-25.1075
-24.9415
-24.0738
-22.1512
-19.2943
-16.0361
-12.8515
-9.9869
-7.47169
-23.3618
-23.9604
-24.1309
-24.0966
-23.4802
-21.9061
-19.402
-16.4035
-13.3638
-10.5521
-7.96667
-22.3679
-22.9735
-23.1543
-23.211
-22.768
-21.449
-19.2169
-16.4363
-13.539
-10.8187
-8.27733
-21.395
-22.013
-22.2054
-22.3254
-21.9895
-20.846
-18.809
-16.1931
-13.4129
-10.7767
-8.33244
-20.4806
-21.0232
-21.2535
-21.3934
-21.1169
-20.0968
-18.2008
-15.7059
-13.0153
-10.4413
-8.0915
-19.5486
-20.0022
-20.2546
-20.3871
-20.146
-19.2073
-17.4031
-14.9905
-12.3673
-9.84378
-7.54953
-18.5666
-18.9467
-19.19
-19.3083
-19.0831
-18.1896
-16.4215
-14.0595
-11.4853
-9.02316
-6.80439
-17.5606
-17.8486
-18.0511
-18.1347
-17.899
-17.05
-15.2324
-12.9102
-10.371
-7.97606
-5.87416
-16.5078
-16.6929
-16.8355
-16.8538
-16.5772
-15.6719
-13.9204
-11.543
-9.02041
-6.70773
-4.77112
-15.3807
-15.4577
-15.5349
-15.4918
-15.1138
-14.1391
-12.3344
-9.93404
-7.43314
-5.22743
-3.39539
-14.1589
-14.1241
-14.1226
-13.9952
-13.4936
-12.3886
-10.5004
-8.07223
-5.63726
-3.60749
-1.97205
-12.82
-12.6554
-12.5572
-12.3131
-11.6895
-10.4032
-8.43212
-5.99462
-3.68951
-1.90143
-0.474521
-11.3294
-11.0369
-10.8483
-10.4833
-9.68545
-8.24067
-6.17689
-3.81062
-1.73795
-0.28977
0.75098
-9.51356
-9.24859
-9.03215
-8.54329
-7.52843
-5.89335
-3.76019
-1.56964
0.183392
1.21062
1.81742
-6.99926
-7.23598
-7.40372
-6.79914
-5.56363
-3.87131
-1.84062
0.0725557
1.33236
1.9542
2.41762
-7.11356
-8.65487
-7.64086
-6.1706
-4.10266
-1.88109
-0.0541083
1.21435
1.89653
2.2604
2.54422
-12.6779
-5.67357
-3.23928
-1.80882
-0.414001
0.710651
1.45912
1.92685
2.20231
2.36205
2.39189
-0.133078
-1.04789
-1.44162
-1.24735
-0.75668
-0.525617
-0.44093
-0.409093
-0.474598
-0.0114815
-0.641053
-0.992137
-0.889863
-0.601536
-0.496551
-0.440087
-0.422564
-0.485208
0.00387219
-0.621317
-0.889842
-0.803739
-0.555405
-0.455837
-0.422475
-0.407781
-0.457501
0.008512
-0.435989
-0.692636
-0.663193
-0.482537
-0.401027
-0.388104
-0.378995
-0.411984
0.879281
1.2465
1.06038
0.539796
-0.418721
-1.35259
-1.7554
-1.50736
-0.832361
0.752383
1.04668
0.904716
0.46746
-0.264565
-0.897609
-1.24695
-1.09735
-0.649542
0.631751
0.872111
0.75174
0.383918
-0.238349
-0.863906
-1.13671
-1.00131
-0.603878
0.525108
0.750263
0.628037
0.323013
-0.214126
-0.690771
-0.931549
-0.840607
-0.529194
2.15098
2.72093
2.73229
-0.209989
-0.285264
3.06551
-0.319574
2.66419
3.07143
2.13241
-0.300338
2.66633
-0.251354
-0.142653
2.14182
1.82572
-0.0286923
-0.204874
1.82764
2.15519
1.39417
-0.409639
2.20632
-0.128271
2.71654
-0.139161
-0.24679
-0.323843
-1.12221
-0.283846
-0.0278491
0.669576
-0.0979171
2.07922
0.576982
2.7508
-0.11703
2.73286
-0.103479
2.76642
-0.984806
2.08999
-0.289284
2.21777
-0.364796
-0.249044
-0.221711
-0.25087
1.13657
2.90071
-0.289393
2.76632
-0.00930739
-0.281791
2.86211
1.40572
-0.422263
2.71381
-1.15531
-0.211838
-1.12818
-0.0185633
-0.307665
-0.28401
-0.696793
2.15538
-0.238254
3.39806
2.74821
2.14291
-0.0935726
2.89882
-0.214536
3.51142
-0.148326
2.9555
-0.437275
2.12837
-0.317759
-0.291264
0.0248087
-0.283098
2.25829
2.28556
-0.203733
-0.207811
-0.946645
-0.0151119
-0.335614
0.000907198
2.81378
2.69203
-0.814435
3.98173
-0.36989
-0.283733
-0.15973
-0.119797
-0.31188
3.01493
-0.18874
-0.276376
1.99601
0.144334
-0.299993
2.85115
-0.00328283
2.26148
0.00422763
0.786279
2.26111
2.08121
3.34313
-0.23545
-0.163151
2.22438
2.72295
2.02172
2.75092
1.82541
-0.243266
3.2613
0.230224
-0.0427104
-0.27903
-0.163096
0.0375226
-0.00391327
-0.0010166
-0.000283214
2.45422
-0.208233
-0.258767
2.91489
2.80108
-0.293472
-0.416874
-0.278036
-0.231178
1.26974
-0.248709
1.21859
-0.352327
1.36304
2.69227
-0.261247
-0.331192
3.31843
2.34775
2.10553
2.36407
3.01334
-0.254323
3.3484
-0.226769
-0.254979
-0.196358
-0.357246
-0.0474941
2.38007
-0.0941724
-0.321671
2.93925
2.43334
-0.215758
-0.0352654
-0.32759
1.16073
-0.162836
-0.685625
-0.0804195
-0.0120347
-0.172215
1.14462
0.734019
0.760577
-0.00718635
-0.273781
-0.406676
0.851672
3.16072
-0.427523
2.77284
-0.245621
2.88416
-0.257361
2.39268
1.98096
2.55584
-0.313211
0.0029477
-0.170133
2.06497
-0.950363
2.75653
2.56876
3.22329
-0.326566
0.000425325
2.23515
-0.294963
3.10997
-0.0223505
-0.0527498
2.79124
0.00124901
3.98565
0.00160935
2.98786
2.12518
0.00182177
1.9516
0.979147
0.75134
2.14274
-0.119386
2.84636
-0.170099
2.55456
-0.203372
-0.0481634
-0.232764
-0.156799
-0.169393
-0.0354149
2.61203
-0.216439
-0.0145774
0.00321376
-0.300322
-0.333456
2.03175
2.39402
3.0518
-0.258851
-0.38803
-0.11283
2.77003
2.46668
2.47902
-0.142676
-0.244937
0.102669
-0.85589
4.71493
-0.351953
2.05951
-0.0883939
-0.293686
0.0715563
-0.0819227
-0.0111139
0.201831
2.38292
0.264571
3.18392
1.51909
2.74212
-0.288099
2.36892
-0.00671634
-0.301792
2.09545
2.17824
2.24229
-0.200663
1.16669
3.9737
-0.00222448
0.0617888
-0.244314
2.48427
3.19071
-0.225748
2.9494
2.01761
-0.0614443
2.94093
1.3306
-0.311046
2.92685
2.74655
0.025746
-0.0640261
0.329153
2.80623
-0.801313
2.54225
1.16988
-0.258267
2.40572
-0.326198
0.921858
-0.187794
2.73624
2.95403
-0.155029
2.24106
0.678416
-0.0786829
2.88394
-0.268287
0.972076
-0.271526
1.56651
0.733187
2.16423
0.041636
-0.429421
2.35732
-0.343142
2.84746
0.673539
-0.075723
-0.467753
1.43596
-0.215983
-0.305006
1.74426
4.06626
2.28033
0.0920118
1.9675
-0.123259
-0.296718
1.25694
2.07393
-0.209646
2.00813
0.0134695
3.18441
-0.301798
-0.412612
2.80178
-0.236231
-0.309973
-0.206357
2.17804
2.90677
-0.102416
-0.351268
0.0155482
3.15822
-0.0753567
-0.25849
0.0405591
-0.186679
2.03441
-0.150885
0.0609089
-0.325041
-0.106448
0.0956327
1.62618
-0.0310121
2.23312
-0.0403521
1.18879
2.18873
0.0190824
0.0784924
-0.155856
2.83662
2.25359
3.13948
-0.329037
-0.0117225
-0.240304
-0.312663
0.402308
2.93291
-0.254702
-0.311193
-0.0770713
-0.100973
2.39014
0.31277
0.549394
2.81909
2.11115
0.0212118
2.61328
-0.281245
2.56525
-0.166867
-0.121712
-0.250993
-0.0340461
-0.238793
-0.335801
2.98942
-0.360878
-0.0105102
2.41009
-0.12352
-0.752162
2.15038
2.1784
2.72832
-0.229118
-0.291263
2.2164
2.79859
-0.230069
-0.015117
-1.36202
-0.331134
0.0262409
3.06708
0.0923024
1.39854
1.80398
-0.0251787
-0.0228239
-0.22776
0.591242
0.00188832
3.32854
-0.0289223
-0.35355
-0.247046
-0.0286332
-0.310754
0.00566869
0.706512
0.857868
3.46228
-0.00921985
-0.236987
-0.496394
2.04108
-0.320171
-0.171116
1.64955
-0.137352
-0.100413
-0.220577
-0.248227
-0.0466675
2.01277
-0.0251126
-0.824035
-0.18206
-0.256822
1.70747
-0.192414
-0.164837
-0.39773
2.49106
-0.344563
2.97176
2.28647
2.86667
-0.347341
-0.348872
-0.309993
-0.0847802
-0.346298
-0.00766111
2.45092
2.51953
0.0440247
-0.0753873
0.228709
1.56065
-0.00601842
-0.00968969
2.22042
1.96571
3.21178
0.726613
-0.271236
1.99848
-1.13329
1.59465
2.41524
2.4538
2.13998
-0.326564
2.36687
2.34452
1.44351
-0.283927
-0.419224
2.18214
-0.243037
-0.277732
1.42806
-0.148316
2.26532
-0.294407
2.60325
1.66962
2.59266
0.00146858
-0.0486076
2.07942
-0.168801
0.874871
3.89157
-0.20385
-0.207343
2.83975
2.32679
-0.290399
-0.068784
-0.230196
3.0456
-0.276478
2.0077
-0.186285
-0.0476529
-0.342162
-0.0371491
-0.226557
-0.135682
-0.221506
-0.164303
2.03066
-0.0680914
1.69009
2.75323
2.91805
2.40013
1.40292
-0.000331413
2.67415
2.2891
-0.198259
2.89932
-0.371227
0.0779775
0.01137
-0.0922198
-0.338657
2.64543
2.84032
2.73442
-0.873903
-0.318733
2.05679
2.46848
-0.0385196
2.80683
-0.179035
2.81187
0.0408764
1.31513
-0.400947
-0.138253
-0.0278119
-0.223939
-0.180082
1.58593
1.1174
2.29582
2.35637
-0.0961321
-0.405138
1.95998
-0.025644
-0.343101
-0.248252
2.76413
3.4078
2.82668
-0.169099
-0.0930778
-0.0103529
2.8495
2.5293
-0.0570792
3.62057
-0.178556
0.000178089
0.010615
-0.272757
2.24981
-0.0187297
2.84067
-0.22093
3.27117
-0.146797
-0.00899164
0.821669
-0.468885
-0.0334863
2.64065
2.12
-0.386694
2.40503
-0.0957751
-0.240536
-0.254106
-0.201287
-0.331909
-0.217571
2.28543
2.76443
2.88916
-0.296616
-0.18637
-0.104617
2.12016
2.7682
-0.331472
2.32158
4.31851
1.42933
2.62245
-0.190928
-0.204888
-0.27448
0.0203874
0.452511
0.236265
2.34867
-0.147012
2.83826
2.87003
-0.300154
0.0228733
1.9331
2.51796
-0.399075
1.95096
2.46303
0.106792
2.82121
1.18431
-0.209698
-0.196067
0.171038
-0.0339247
-0.0301631
-0.335956
0.0191024
-0.70432
-0.15855
-0.180066
-0.329582
-0.199
-0.063859
2.01472
1.68243
-0.298043
0.488763
1.9654
0.761703
-0.174133
-0.287437
-0.296293
-0.162637
0.0359117
2.1016
0.00137201
2.68511
2.16399
1.63902
-0.231402
2.51622
2.90936
1.89663
2.34365
-0.238452
-0.0176262
-0.30045
2.79317
2.39013
1.2088
-0.109419
3.98832
-0.343219
3.21142
-0.174611
0.0296193
2.19053
-0.0222628
2.45989
-0.0994499
-0.253742
-0.18916
-0.30705
-0.0823389
-0.142521
2.25944
-0.00679099
-0.0812551
-0.353714
0.0916404
2.0099
0.65003
2.27814
0.0595023
1.93472
-0.213987
2.8484
2.85673
2.78349
-0.244158
-0.252506
2.69234
-0.0101303
3.09391
-0.00497479
-0.0508139
1.07083
-0.244564
-0.715993
-0.174148
0.272081
-0.175518
-0.221828
-0.127347
-0.0767819
-0.316835
2.02607
-0.185121
2.4158
2.99409
-0.352326
-0.244103
-0.301122
-0.136764
3.55616
1.17053
1.78705
-0.184408
2.46676
0.0352544
-0.231646
0.0424717
0.975758
0.250325
-0.25297
-0.187743
2.80062
-0.208895
-0.266104
-0.300472
2.28845
-0.158438
-0.328668
2.79041
-0.343884
-0.0282739
4.09097
-0.169506
2.52932
1.84321
1.6064
-0.0376283
2.86985
-0.0816918
2.83523
-0.108648
2.57538
-0.190448
-0.0863021
0.0225163
0.00600384
1.95146
-0.215868
-0.251066
2.34675
-0.0844713
0.348088
-0.209174
0.103644
-0.358274
1.10227
-0.168775
-0.150813
0.142791
2.11354
-0.218586
2.09455
-0.182749
-0.429102
2.72542
2.74807
-0.105394
-0.27524
0.0796488
-0.214098
2.63491
-0.177884
0.749879
2.05938
2.56522
2.81726
2.40959
4.62377
-0.0182789
-0.36151
-0.242138
-0.0116515
-0.172836
2.72672
2.52818
0.161861
-0.0760318
2.78888
-0.000355474
-0.1516
-0.283742
-0.0651565
-0.640704
0.565296
-0.185566
2.70663
2.44807
-0.305583
1.9376
2.65637
0.700824
0.00605011
-0.0675794
-0.00958361
2.77805
-0.173595
-0.713549
-0.205059
2.6219
-0.0037153
-0.193945
-0.237598
-0.18069
2.35926
2.09084
-0.203443
-0.210969
-0.217597
2.28032
1.91403
4.17446
3.30637
2.58763
-0.1592
-0.118449
-0.36329
-0.298345
-0.222844
2.82484
-0.302692
2.46187
3.15894
0.197478
2.51907
3.00714
2.74918
-0.305292
-0.0455692
-0.261195
3.00133
-0.189361
2.83808
2.79996
3.41197
2.55338
0.764599
2.19941
2.82116
3.78669
-0.339877
2.09658
2.24248
-0.221628
-0.351713
2.77316
2.85615
-0.276421
-0.331265
2.42664
-0.259994
-0.210256
-0.185235
2.3495
2.70646
1.24103
1.28927
-0.0366758
2.52675
-0.197054
-0.19393
0.0367911
-0.142781
2.23459
-0.16516
2.05658
2.20316
2.95339
3.0069
2.14042
-0.12215
-0.341389
0.209351
-0.125459
0.0503651
-0.253338
0.449522
-0.337008
2.12183
2.25476
-0.0185816
-0.0413726
-0.168418
2.84449
-0.277727
3.35215
-0.212441
2.5722
-0.0234936
-0.0213943
-0.312908
-0.0794657
2.1212
2.71683
-0.0512043
-0.392717
0.0456596
-0.103238
-0.201228
0.90594
1.62062
0.0713159
3.07774
2.80481
-0.0944957
-0.461823
-0.272344
-0.384434
-0.00137301
-0.157276
-0.12293
-0.222382
2.3148
0.901013
0.0483589
2.38372
0.181794
2.91247
-0.011724
-0.180205
0.0245719
2.42061
-0.0810723
2.78458
2.73918
0.00132089
-0.231103
2.2873
2.92465
3.74372
-0.290841
-0.187745
-0.354407
0.425744
2.12343
-1.13805
-0.178965
-0.399066
2.31416
0.0171849
-0.113954
2.79118
-0.0113554
1.14971
-0.266784
-0.178989
0.440228
-0.242553
1.37921
3.07976
-0.209294
-0.0151915
2.37449
0.0260498
2.80454
-0.363486
0.00830985
-0.227431
2.72357
-0.0246902
-0.247189
-0.269553
-0.0285645
-0.0233719
2.24862
-0.00083757
-0.293336
2.14759
0.927311
-0.13949
-0.203198
-0.0724667
-0.133303
2.77352
2.5262
-0.31731
1.72606
-0.791055
-0.197467
0.00660849
-0.119313
2.59276
-0.202721
-0.314697
-0.0327147
-0.00801548
-0.192862
2.71939
-0.173665
-0.0365314
2.42651
1.47144
2.78992
-0.157416
1.01835
2.78402
-0.198873
-0.146893
-0.0904951
2.27123
-0.329524
-0.283071
1.27633
-0.172101
2.04594
2.08525
1.2124
-0.306444
2.61907
-0.144254
0.45325
-0.311324
2.19519
1.56868
2.2733
2.29241
-0.23332
-0.138335
-0.215609
-0.342341
-0.432965
-0.261028
2.1169
0.65348
-0.270654
2.36755
-0.0692934
-0.0626056
0.88293
-1.18836
-0.211831
-0.119867
1.84197
-0.0256781
2.32164
-0.0507956
2.2981
-0.285005
-0.147439
3.25669
-0.356448
-0.0716524
1.38318
-0.156401
-0.20105
-0.681192
-0.0589795
0.612712
-0.35467
0.000697654
-0.247008
-0.245472
-0.0926858
2.81831
-0.172637
4.5468
-0.135078
-0.137043
-0.254039
0.499814
-0.208112
-0.335946
2.37017
3.21755
1.24739
2.29596
-0.189404
-0.12503
2.47829
-0.129607
-0.205796
2.92303
-0.234146
-0.339275
-0.274008
-1.18621
-0.451124
-0.199053
-0.0133325
0.0749243
2.41258
2.52133
-0.155539
2.53367
2.79788
-0.143619
2.25086
4.53558
-0.12193
2.87885
-0.311438
-0.0334453
-0.202553
2.39075
-0.172668
-0.243522
-0.161822
-0.261588
2.30496
-0.199474
-0.190656
-0.148061
-0.0273542
1.83441
0.0131006
1.95674
-0.255949
0.0182957
1.2991
2.44901
-0.26982
0.269683
-0.192081
-0.332008
-0.172555
2.58511
2.78484
2.55916
0.0414261
-0.0460447
-0.0872474
-0.336909
-0.652014
2.09238
0.551185
2.03471
2.83909
-0.333225
2.21961
2.41366
-0.999569
-0.644472
-0.280384
-0.297155
2.28377
1.97375
-0.0313341
-0.280167
0.0818246
-0.319416
-0.101794
2.84091
2.56304
-0.170248
0.0768413
-0.01611
-0.180572
3.10915
-0.128178
-0.212563
-0.187258
1.63507
-0.179748
-0.330721
1.13389
-0.0909048
2.18394
1.85265
-0.285746
-0.114797
-0.138441
1.43356
1.16571
0.076635
-0.270774
-0.237137
-0.202994
-0.270861
-0.282728
2.75088
-0.304994
-0.25967
2.51234
-0.00150705
-0.233907
1.57114
0.0865736
2.42597
2.90402
2.53465
-0.829884
-0.00138324
1.98987
-0.211542
2.43257
2.16485
2.22907
-0.0533439
2.02881
-0.0211514
-0.319883
2.50938
-0.331459
-0.358712
-0.0540053
-0.332477
-0.153261
-0.186531
-0.0090084
2.68849
2.19653
2.91719
-0.147235
2.24104
2.28636
-0.247407
-0.447321
-0.252736
-0.118424
-0.0235293
1.01864
-0.262379
-0.312489
2.00597
0.0659307
1.9111
-0.0312077
1.77321
-0.0767081
1.40522
1.99653
2.82163
-0.307405
0.0165291
1.53682
-0.0890038
1.97448
-0.0824253
0.0625059
-0.27273
-0.216826
2.4242
2.12292
-0.133219
-1.19228
-0.028258
0.00572116
-0.302568
-0.0959121
2.4623
-0.429284
-0.0129304
1.87861
-0.209278
-0.189523
-0.170549
-0.298098
-0.25616
0.000230316
-0.288889
-0.697801
2.0163
3.16583
-0.146967
-0.139598
0.309152
2.13481
-0.145851
2.75465
3.04351
-0.469006
2.26274
2.60978
-0.325728
-0.24999
3.15244
2.19854
3.01433
1.43949
2.29238
3.61764
-0.188218
0.116889
1.94849
2.87143
-0.245378
2.36974
-0.198894
2.94628
1.77457
2.62946
-0.176261
-0.333039
-0.129721
2.22442
2.19031
-0.177808
0.0104314
2.41858
-0.191696
-0.10052
3.27831
-0.185274
-0.114851
-0.348198
-0.134875
-0.225566
2.59214
-0.236596
2.90455
1.45318
4.62776
0.267938
2.54906
-0.131266
4.06617
-0.281228
2.87583
2.53033
-0.280299
2.21907
2.65487
-0.251466
0.00213593
-0.223159
2.69434
1.47979
2.90679
-0.121777
0.00167624
-0.216639
0.573892
-0.215835
-0.323501
2.31473
1.95357
2.57902
1.27107
-0.205444
4.32048
0.0429445
3.50826
-0.330148
-0.163073
-0.151528
-0.282115
1.26976
0.354404
2.76212
-0.0683719
-0.382281
2.39989
2.51247
-0.253411
1.17304
1.78253
2.13634
-0.193722
2.77211
-0.247226
-0.361321
-0.102938
-0.0533498
1.98454
-0.163328
1.20353
-0.215592
-0.19505
0.479643
0.0706482
2.20898
2.21073
2.12801
1.88779
0.0856694
1.26952
3.51193
0.00543872
-0.217376
2.42009
1.31124
-0.336416
0.0892625
2.30287
-0.225882
2.29301
2.15094
-0.0913584
2.57008
-0.249827
-0.145321
1.51245
2.82008
-0.163624
-0.254507
2.12519
0.00624774
2.85627
3.09452
-0.134598
1.54289
-0.164007
2.46857
4.07197
-0.2579
0.719492
2.49975
-1.13938
1.52868
2.73145
2.35826
2.55529
0.519858
0.302825
-0.186264
-0.145522
-0.306548
2.67705
2.98804
-0.264281
-0.000441735
1.6088
1.00839
-0.145968
3.09758
0.0467619
2.6074
-0.115193
3.14862
2.1456
-0.0343603
-0.1958
-0.0640607
2.78303
2.32389
1.85079
2.15733
2.53276
-0.225806
-0.196857
-0.245317
-0.25241
-0.24009
1.10268
2.42331
2.52133
-0.319816
1.74384
-0.124759
-0.316345
1.26652
0.0387688
-0.223187
1.80058
2.26087
0.338842
-0.150285
-0.0973393
1.64302
-0.082313
0.0095015
-0.282505
-0.00488839
-0.116961
2.27699
-0.103966
-0.366835
-0.436007
-0.17067
-0.221891
-0.00416048
2.56246
2.03004
-0.205815
2.79912
-0.108709
-0.0492175
-0.0894991
-0.176502
-0.0768931
-0.211174
-0.582433
-0.0556097
2.93668
-0.137273
-0.179264
0.110852
-0.0302169
-0.26539
2.46239
-0.299344
2.93737
0.0662026
-0.307865
-0.139856
-0.472615
-0.174295
0.121281
3.32042
4.05524
2.33088
2.59902
2.70172
0.533311
2.64714
-0.33286
4.54629
-0.00328378
-0.210428
1.93039
2.30428
-0.272438
-0.394593
2.83706
0.829069
2.1975
3.46802
0.288429
-0.337753
2.58335
1.85149
1.75961
2.04285
4.2064
2.82491
-0.0419919
-0.247356
2.8713
-0.103596
2.78325
1.95672
1.0564
2.89991
-0.182929
2.11221
2.53594
1.64693
2.18276
-0.0143947
2.76772
0.00274859
-0.256862
-0.31168
-0.247997
-0.128071
-0.203598
-0.0086708
-0.220601
0.081529
0.0598749
2.10042
-0.279188
1.14129
2.79256
2.85565
-0.938442
0.0317187
-0.00832688
2.28822
-0.213754
3.98765
-0.249912
-0.0293084
2.03663
0.374202
2.81196
0.322377
2.52748
-0.316313
2.45956
2.24583
-0.108038
-0.221069
-0.23882
-0.219505
-0.0930295
-0.218197
-0.154285
-0.151717
2.40495
-0.312403
-0.21025
-0.0703557