/*--------------------------------*- C++ -*----------------------------------*\
| =========                 |                                                 |
| \\      /  F ield         | OpenFOAM: The Open Source CFD Toolbox           |
|  \\    /   O peration     | Version:  3.0.1                                 |
|   \\  /    A nd           | Web:      www.OpenFOAM.org                      |
|    \\/     M anipulation  |                                                 |
\*---------------------------------------------------------------------------*/
FoamFile
{
    version     2.0;
    format      ascii;
    class       surfaceScalarField;
    location    "0.705411";
    object      phi;
}
// * * * * * * * * * * * * * * * * * * * * * * * * * * * * * * * * * * * * * //

dimensions      [0 3 -1 0 0 0 0];

internalField   nonuniform List<scalar> 
32369
(
-5.53207e-06
1.94147e-05
-1.38827e-05
-1.05809e-05
1.77913e-05
-1.27425e-05
-1.78529e-05
2.11007e-05
-1.38288e-05
-2.52986e-05
2.27449e-05
-1.52991e-05
-3.28816e-05
2.49685e-05
-1.73856e-05
-4.07787e-05
2.80819e-05
-2.01848e-05
-4.93486e-05
3.23919e-05
-2.3822e-05
-5.89952e-05
3.81525e-05
-2.85059e-05
-7.01713e-05
4.57476e-05
-3.45715e-05
-8.34313e-05
5.57433e-05
-4.24833e-05
6.90099e-05
-5.28384e-05
-9.96028e-05
2.44565e-06
1.69691e-05
2.57003e-06
1.7667e-05
-1.27267e-06
2.49434e-05
-6.8661e-06
2.83383e-05
-1.401e-05
3.21125e-05
-2.2181e-05
3.62529e-05
-3.13372e-05
4.15481e-05
-4.17217e-05
4.8537e-05
-5.37698e-05
5.77958e-05
-6.80491e-05
7.00226e-05
8.62659e-05
-8.53051e-05
2.39072e-06
1.45784e-05
2.79171e-06
1.7266e-05
1.77372e-06
2.59614e-05
-8.06044e-07
3.09181e-05
-5.59507e-06
3.69015e-05
-1.20455e-05
4.27034e-05
-1.99424e-05
4.94449e-05
-2.92511e-05
5.78458e-05
-4.0191e-05
6.87356e-05
-5.31997e-05
8.30313e-05
0.00010202
-6.89534e-05
1.72975e-06
1.28486e-05
1.68261e-06
1.73131e-05
1.63003e-06
2.6014e-05
5.04783e-07
3.20433e-05
-2.27426e-06
3.96805e-05
-6.53416e-06
4.69633e-05
-1.23751e-05
5.52859e-05
-1.97242e-05
6.51948e-05
-2.8627e-05
7.76385e-05
-3.93298e-05
9.37341e-05
0.000114912
-5.22223e-05
1.36853e-06
1.14801e-05
1.31386e-06
1.73678e-05
1.47759e-06
2.58502e-05
8.35484e-07
3.26854e-05
-6.95962e-07
4.1212e-05
-3.28227e-06
4.95496e-05
-7.18674e-06
5.91903e-05
-1.24287e-05
7.04368e-05
-1.90673e-05
8.42771e-05
-2.71734e-05
0.00010184
0.000124687
-3.69484e-05
1.27774e-06
1.02023e-05
1.58605e-06
1.70595e-05
2.00382e-06
2.54325e-05
1.67356e-06
3.30157e-05
8.55728e-07
4.20298e-05
-7.01995e-07
5.11073e-05
-3.17056e-06
6.16589e-05
-6.65757e-06
7.39238e-05
-1.12584e-05
8.88779e-05
-1.70132e-05
0.000107595
0.000131639
-2.39654e-05
1.26517e-06
8.93718e-06
1.91751e-06
1.64071e-05
2.62402e-06
2.47259e-05
2.6527e-06
3.2987e-05
2.36231e-06
4.23202e-05
1.51138e-06
5.19582e-05
6.28557e-08
6.31074e-05
-2.0836e-06
7.60702e-05
-5.03228e-06
9.18266e-05
-8.81306e-06
0.000111376
0.000136288
-1.34617e-05
1.11598e-06
7.82119e-06
2.03158e-06
1.54915e-05
2.95525e-06
2.38023e-05
3.36037e-06
3.25819e-05
3.51673e-06
4.21638e-05
3.24524e-06
5.22297e-05
2.59377e-06
6.37589e-05
1.49003e-06
7.7174e-05
-1.08244e-07
9.34249e-05
-2.16101e-06
0.000113429
0.000138761
-4.63424e-06
1.06271e-06
6.75848e-06
2.19035e-06
1.43639e-05
3.31651e-06
2.26761e-05
4.0612e-06
3.18372e-05
4.60966e-06
4.16154e-05
4.82629e-06
5.20131e-05
4.81168e-06
6.37735e-05
4.53427e-06
7.74514e-05
4.02947e-06
9.39297e-05
3.27008e-06
0.000114188
0.000139653
2.37819e-06
1.17535e-06
5.58313e-06
2.54606e-06
1.29932e-05
3.92765e-06
2.12945e-05
5.03532e-06
3.07296e-05
5.94418e-06
4.07065e-05
6.58221e-06
5.13751e-05
7.06731e-06
6.32884e-05
7.4341e-06
7.70846e-05
7.72536e-06
9.36384e-05
7.99699e-06
0.000113916
0.000139334
8.31643e-06
1.19882e-06
4.38431e-06
2.73242e-06
1.14596e-05
4.35266e-06
1.96743e-05
5.81887e-06
2.92633e-05
7.09512e-06
3.94303e-05
8.14807e-06
5.03221e-05
9.10579e-06
6.23307e-05
1.00365e-05
7.61539e-05
1.10289e-05
9.2646e-05
1.21648e-05
0.00011278
0.000137754
1.37447e-05
1.07467e-06
3.30964e-06
2.62527e-06
9.909e-06
4.38504e-06
1.79145e-05
6.13748e-06
2.75109e-05
7.77881e-06
3.7789e-05
9.27296e-06
4.8828e-05
1.07217e-05
6.08819e-05
1.22304e-05
7.46452e-05
1.39099e-05
9.09665e-05
1.58857e-05
0.000110805
0.00013532
1.83194e-05
9.77795e-07
2.33185e-06
2.51216e-06
8.37464e-06
4.40187e-06
1.60248e-05
6.43607e-06
2.54767e-05
8.4408e-06
3.57842e-05
1.03762e-05
4.68926e-05
1.23099e-05
5.89482e-05
1.4356e-05
7.25991e-05
1.66916e-05
8.86309e-05
1.94603e-05
0.000108036
0.00013201
2.277e-05
9.33021e-07
1.39882e-06
2.45196e-06
6.8557e-06
4.47572e-06
1.4001e-05
6.78948e-06
2.31629e-05
9.17506e-06
3.33986e-05
1.15689e-05
4.44988e-05
1.4019e-05
5.64982e-05
1.66416e-05
6.99765e-05
1.96036e-05
8.56689e-05
2.31018e-05
0.000104538
0.000127771
2.73414e-05
7.6468e-07
6.34145e-07
2.13507e-06
5.48531e-06
4.1816e-06
1.19545e-05
6.69322e-06
2.06513e-05
9.44155e-06
3.06503e-05
1.2333e-05
4.16074e-05
1.53647e-05
5.34664e-05
1.86604e-05
6.66808e-05
2.23856e-05
8.19437e-05
2.66978e-05
0.000100226
0.000122624
3.18441e-05
5.79399e-07
5.47461e-08
1.79393e-06
4.27078e-06
3.82111e-06
9.92733e-06
6.5102e-06
1.79622e-05
9.61208e-06
2.75484e-05
1.30122e-05
3.82072e-05
1.66888e-05
4.97897e-05
2.07284e-05
6.26412e-05
2.52779e-05
7.73942e-05
3.0586e-05
9.49174e-05
0.000116331
3.68794e-05
4.6448e-07
-4.09734e-07
1.52178e-06
3.21348e-06
3.49982e-06
7.94929e-06
6.32942e-06
1.51326e-05
9.78592e-06
2.40919e-05
1.37186e-05
3.42745e-05
1.80875e-05
4.54209e-05
2.29641e-05
5.77646e-05
2.84969e-05
7.18614e-05
3.48627e-05
8.85516e-05
0.000108946
4.22482e-05
2.94441e-07
-7.04175e-07
1.18533e-06
2.32258e-06
3.0281e-06
6.10652e-06
5.89786e-06
1.22629e-05
9.63386e-06
2.03559e-05
1.40951e-05
2.98133e-05
1.92357e-05
4.02803e-05
2.50899e-05
5.19103e-05
3.17608e-05
6.51905e-05
3.93955e-05
8.09169e-05
0.000100091
4.82504e-05
1.72326e-07
-8.76501e-07
8.97645e-07
1.59726e-06
2.53316e-06
4.471e-06
5.31839e-06
9.47765e-06
9.23995e-06
1.64344e-05
1.42118e-05
2.48415e-05
2.01769e-05
3.43152e-05
2.71376e-05
4.49497e-05
3.5151e-05
5.71771e-05
4.43664e-05
7.17015e-05
8.9426e-05
5.5031e-05
7.36744e-08
-9.50175e-07
6.33268e-07
1.03767e-06
1.98783e-06
3.11644e-06
4.53833e-06
6.92714e-06
8.50833e-06
1.24644e-05
1.39327e-05
1.94171e-05
2.07469e-05
2.75009e-05
2.89043e-05
3.67923e-05
3.83931e-05
4.76883e-05
4.93465e-05
6.07481e-05
7.67183e-05
6.20542e-05
2.38988e-09
-9.52565e-07
2.90234e-07
7.49826e-07
1.25641e-06
2.15027e-06
3.42403e-06
4.75952e-06
7.30046e-06
8.58794e-06
1.30629e-05
1.36547e-05
2.06419e-05
1.9922e-05
2.99123e-05
2.75218e-05
4.08749e-05
3.67258e-05
5.3648e-05
4.7975e-05
6.17661e-05
6.86002e-05
-5.42879e-07
-4.09686e-07
-6.03124e-07
8.10071e-07
9.83937e-10
1.54616e-06
1.88753e-06
2.87298e-06
5.62379e-06
4.85167e-06
1.14872e-05
7.79124e-06
1.9455e-05
1.19542e-05
2.94401e-05
1.75367e-05
4.1528e-05
2.46378e-05
5.59693e-05
3.35337e-05
4.42516e-05
7.34838e-05
-7.92443e-07
3.82757e-07
-9.07697e-07
9.25325e-07
-2.24517e-07
8.62985e-07
1.57824e-06
1.07021e-06
4.8477e-06
1.58222e-06
9.95527e-06
2.68366e-06
1.71767e-05
4.73279e-06
2.66857e-05
8.02772e-06
3.87735e-05
1.255e-05
5.36531e-05
1.86541e-05
2.6759e-05
7.11458e-05
1.45621e-06
-1.07345e-06
3.56941e-06
-1.18788e-06
5.64164e-06
-1.20924e-06
7.74994e-06
-1.03808e-06
1.0116e-05
-7.83876e-07
1.32201e-05
-4.20378e-07
1.78281e-05
1.24817e-07
2.48495e-05
1.00624e-06
3.4794e-05
2.60547e-06
4.81151e-05
5.3331e-06
9.86952e-06
6.50045e-05
-1.44989e-05
6.16212e-07
-2.50805e-05
-2.16088e-06
-3.36033e-05
-5.30593e-06
-4.08761e-05
-8.02634e-06
-4.78288e-05
-1.04329e-05
-5.50408e-05
-1.29729e-05
-6.29725e-05
-1.58903e-05
-7.2026e-05
-1.94523e-05
-8.25836e-05
-2.40139e-05
-9.50432e-05
-3.00237e-05
-3.80609e-05
-0.000109821
-7.33035e-06
7.94656e-06
-1.41786e-05
4.68737e-06
-2.25986e-05
3.11412e-06
-3.11545e-05
5.29521e-07
-3.94949e-05
-2.09246e-06
-4.8032e-05
-4.43585e-06
-5.72968e-05
-6.62548e-06
-6.7798e-05
-8.95107e-06
-7.99968e-05
-1.18151e-05
-9.43699e-05
-1.56506e-05
-2.09477e-05
-0.000111483
-2.67534e-06
1.06219e-05
-6.74052e-06
8.75254e-06
-1.31656e-05
9.53917e-06
-2.09582e-05
8.32218e-06
-2.97915e-05
6.74083e-06
-3.94545e-05
5.22714e-06
-4.98559e-05
3.77588e-06
-6.13205e-05
2.51353e-06
-7.4341e-05
1.20541e-06
-8.94383e-05
-5.53317e-07
-3.27024e-06
-0.000107116
-1.67454e-06
1.22964e-05
-4.6909e-06
1.17689e-05
-9.18659e-06
1.40349e-05
-1.50301e-05
1.41657e-05
-2.25573e-05
1.42681e-05
-3.13085e-05
1.39783e-05
-4.13634e-05
1.38307e-05
-5.2759e-05
1.39092e-05
-6.57596e-05
1.4206e-05
-8.07965e-05
1.44835e-05
1.43702e-05
-9.84369e-05
-1.45419e-06
1.37506e-05
-4.11038e-06
1.44251e-05
-7.5787e-06
1.75032e-05
-1.21872e-05
1.87742e-05
-1.83146e-05
2.03954e-05
-2.59134e-05
2.15772e-05
-3.49637e-05
2.2881e-05
-4.54907e-05
2.44362e-05
-5.76366e-05
2.63519e-05
-7.17201e-05
2.85671e-05
3.07473e-05
-8.80972e-05
-1.27926e-06
1.50299e-05
-3.66816e-06
1.6814e-05
-6.52678e-06
2.03618e-05
-1.02657e-05
2.25131e-05
-1.52765e-05
2.54062e-05
-2.16018e-05
2.79025e-05
-2.93924e-05
3.06716e-05
-3.86726e-05
3.37164e-05
-4.95554e-05
3.72347e-05
-6.22051e-05
4.12167e-05
4.55028e-05
-7.69605e-05
-1.07962e-06
1.61095e-05
-3.17348e-06
1.89078e-05
-5.5969e-06
2.27852e-05
-8.68969e-06
2.56059e-05
-1.28153e-05
2.95318e-05
-1.80457e-05
3.31328e-05
-2.45749e-05
3.72008e-05
-3.24905e-05
4.1632e-05
-4.18801e-05
4.66243e-05
-5.2891e-05
5.22277e-05
5.83427e-05
-6.5731e-05
-9.99719e-07
1.71092e-05
-2.81207e-06
2.07202e-05
-4.85572e-06
2.48289e-05
-7.56519e-06
2.83154e-05
-1.08685e-05
3.28351e-05
-1.51224e-05
3.73867e-05
-2.04637e-05
4.25422e-05
-2.70086e-05
4.81769e-05
-3.48647e-05
5.44804e-05
-4.41506e-05
6.15136e-05
6.9214e-05
-5.50219e-05
-8.56562e-07
1.79658e-05
-2.4518e-06
2.23154e-05
-3.97657e-06
2.63536e-05
-6.24791e-06
3.05867e-05
-8.96366e-06
3.55509e-05
-1.24164e-05
4.08395e-05
-1.67078e-05
4.68336e-05
-2.19828e-05
5.34518e-05
-2.83563e-05
6.08539e-05
-3.593e-05
6.90873e-05
7.81176e-05
-4.48336e-05
-6.67056e-07
1.86328e-05
-1.91725e-06
2.35656e-05
-3.24559e-06
2.7682e-05
-4.9937e-06
3.23348e-05
-7.0901e-06
3.76473e-05
-9.78588e-06
4.35353e-05
-1.31189e-05
5.01667e-05
-1.72258e-05
5.75586e-05
-2.22008e-05
6.5829e-05
-2.81568e-05
7.50432e-05
8.51818e-05
-3.52209e-05
-4.32054e-07
1.90649e-05
-1.26388e-06
2.43975e-05
-2.19518e-06
2.86133e-05
-3.50612e-06
3.36458e-05
-5.04759e-06
3.91887e-05
-7.03197e-06
4.55197e-05
-9.48846e-06
5.26231e-05
-1.25155e-05
6.05857e-05
-1.61952e-05
6.95086e-05
-2.06106e-05
7.94587e-05
9.04341e-05
-2.58629e-05
-2.22627e-07
1.92875e-05
-7.82768e-07
2.49576e-05
-1.35087e-06
2.91814e-05
-2.18434e-06
3.44793e-05
-3.16002e-06
4.01644e-05
-4.43344e-06
4.67931e-05
-6.00509e-06
5.41948e-05
-7.96091e-06
6.25415e-05
-1.03421e-05
7.18898e-05
-1.32023e-05
8.23189e-05
9.38475e-05
-1.66158e-05
7.89289e-09
1.92796e-05
-2.13189e-07
2.51787e-05
-4.24406e-07
2.93926e-05
-7.81765e-07
3.48366e-05
-1.18465e-06
4.05673e-05
-1.7532e-06
4.73616e-05
-2.4624e-06
5.4904e-05
-3.35687e-06
6.3436e-05
-4.45599e-06
7.29889e-05
-5.78117e-06
8.3644e-05
9.53725e-05
-7.30615e-06
3.53302e-07
1.89263e-05
5.19029e-07
2.5013e-05
7.03566e-07
2.92081e-05
8.30677e-07
3.47095e-05
9.94708e-07
4.04033e-05
1.12702e-06
4.72293e-05
1.27899e-06
5.4752e-05
1.42378e-06
6.32912e-05
1.59873e-06
7.2814e-05
1.82065e-06
8.34221e-05
9.50857e-05
2.10746e-06
5.58874e-07
1.83675e-05
1.07849e-06
2.44933e-05
1.67507e-06
2.86115e-05
2.32027e-06
3.40643e-05
3.08574e-06
3.96378e-05
3.96953e-06
4.63455e-05
5.02013e-06
5.37014e-05
6.26413e-06
6.20472e-05
7.76024e-06
7.13179e-05
9.58828e-06
8.15941e-05
9.28207e-05
1.18533e-05
8.12389e-07
1.75551e-05
1.7112e-06
2.35945e-05
2.73517e-06
2.75875e-05
3.91957e-06
3.28799e-05
5.31261e-06
3.82448e-05
6.97576e-06
4.46824e-05
8.95736e-06
5.17198e-05
1.13287e-05
5.96758e-05
1.41912e-05
6.84554e-05
1.76481e-05
7.81372e-05
8.86147e-05
2.18541e-05
1.10914e-06
1.64459e-05
2.43398e-06
2.22697e-05
3.91826e-06
2.61032e-05
5.67755e-06
3.11206e-05
7.73186e-06
3.61904e-05
1.02092e-05
4.2205e-05
1.31613e-05
4.87677e-05
1.67113e-05
5.61258e-05
2.09643e-05
6.42024e-05
2.60937e-05
7.30078e-05
8.23721e-05
3.23363e-05
1.40076e-06
1.50452e-05
3.15451e-06
2.05159e-05
5.1412e-06
2.41165e-05
7.51607e-06
2.87457e-05
1.0285e-05
3.34215e-05
1.36286e-05
3.88614e-05
1.76162e-05
4.47801e-05
2.23931e-05
5.1349e-05
2.81107e-05
5.84848e-05
3.49504e-05
6.61681e-05
7.41721e-05
4.31504e-05
1.698e-06
1.33472e-05
3.89566e-06
1.83183e-05
6.41583e-06
2.15964e-05
9.44734e-06
2.57142e-05
1.29949e-05
2.9874e-05
1.72625e-05
3.45938e-05
2.23443e-05
3.96982e-05
2.84155e-05
4.52778e-05
3.56361e-05
5.12642e-05
4.42322e-05
5.7572e-05
6.39103e-05
5.4494e-05
2.01482e-06
1.13324e-05
4.66575e-06
1.56673e-05
7.75251e-06
1.85096e-05
1.14784e-05
2.19883e-05
1.58577e-05
2.54948e-05
2.10993e-05
2.93522e-05
2.73234e-05
3.34741e-05
3.4708e-05
3.78932e-05
4.34522e-05
4.252e-05
5.38302e-05
4.7194e-05
5.16096e-05
6.61309e-05
2.33754e-06
8.99482e-06
5.42729e-06
1.25776e-05
9.09094e-06
1.4846e-05
1.35385e-05
1.75408e-05
1.8781e-05
2.02523e-05
2.50149e-05
2.31182e-05
3.23794e-05
2.61096e-05
4.10524e-05
2.92201e-05
5.12923e-05
3.22801e-05
6.33679e-05
3.51185e-05
3.73691e-05
7.76085e-05
2.58639e-06
6.40843e-06
6.08616e-06
9.07781e-06
1.03113e-05
1.06208e-05
1.54435e-05
1.24085e-05
2.15131e-05
1.41827e-05
2.8664e-05
1.59673e-05
3.70452e-05
1.77285e-05
4.69067e-05
1.93586e-05
5.84709e-05
2.0716e-05
7.20595e-05
2.15298e-05
2.14137e-05
8.80149e-05
3.09531e-06
3.31312e-06
6.93978e-06
5.23334e-06
1.15553e-05
6.0053e-06
1.71528e-05
6.81099e-06
2.37811e-05
7.55441e-06
3.15629e-05
8.1856e-06
4.06744e-05
8.61698e-06
5.1352e-05
8.68095e-06
6.38775e-05
8.19047e-06
7.85115e-05
6.8959e-06
4.61226e-06
9.53129e-05
2.23967e-06
6.28513e-06
1.10812e-05
1.68541e-05
2.36246e-05
3.13898e-05
4.01316e-05
4.98188e-05
6.06148e-05
7.28438e-05
8.73255e-05
1.74798e-06
9.27933e-06
-1.10273e-05
2.47678e-06
9.74741e-06
-1.04762e-05
1.48664e-06
1.27597e-05
-1.17695e-05
-6.43983e-07
1.57501e-05
-1.36195e-05
-3.56387e-06
1.86842e-05
-1.57643e-05
-7.10955e-06
2.18385e-05
-1.82929e-05
-1.11492e-05
2.54643e-05
-2.14247e-05
-1.56337e-05
3.0009e-05
-2.55245e-05
-2.08022e-05
3.62033e-05
-3.10348e-05
-2.69102e-05
4.45654e-05
-3.84574e-05
5.58354e-05
-4.83946e-05
-3.4351e-05
3.6032e-06
5.67613e-06
5.77807e-06
7.57254e-06
6.8669e-06
1.16708e-05
6.91249e-06
1.57045e-05
5.7119e-06
1.98848e-05
3.25688e-06
2.42936e-05
-2.59074e-07
2.89803e-05
-4.53909e-06
3.4289e-05
-9.4823e-06
4.11465e-05
-1.53026e-05
5.03857e-05
6.2929e-05
-2.23962e-05
2.90007e-06
2.77605e-06
4.70623e-06
5.76638e-06
6.41983e-06
9.95724e-06
7.69009e-06
1.44343e-05
8.04525e-06
1.95296e-05
7.2595e-06
2.50793e-05
5.31166e-06
3.09281e-05
2.36681e-06
3.72339e-05
-1.27345e-06
4.47868e-05
-5.54894e-06
5.46612e-05
6.80647e-05
-1.06847e-05
1.84377e-06
9.32282e-07
3.56336e-06
4.04679e-06
5.44894e-06
8.07166e-06
7.07224e-06
1.2811e-05
8.20649e-06
1.83954e-05
8.66397e-06
2.46218e-05
8.20396e-06
3.13881e-05
6.82213e-06
3.86157e-05
4.76946e-06
4.68394e-05
2.29503e-06
5.71356e-05
7.08754e-05
-5.1565e-07
1.12074e-06
-1.88459e-07
2.65421e-06
2.51332e-06
4.3996e-06
6.32627e-06
6.1298e-06
1.10808e-05
7.71427e-06
1.68109e-05
8.90135e-06
2.34348e-05
9.52154e-06
3.07679e-05
9.47183e-06
3.86654e-05
8.88774e-06
4.74235e-05
8.05036e-06
5.7973e-05
7.16975e-05
7.22829e-06
5.00004e-07
-6.88463e-07
1.74927e-06
1.26405e-06
3.34929e-06
4.72625e-06
5.10146e-06
9.32862e-06
6.86986e-06
1.50425e-05
8.50894e-06
2.17957e-05
9.85989e-06
2.9417e-05
1.08067e-05
3.77186e-05
1.14024e-05
4.68279e-05
1.18868e-05
5.74885e-05
7.1013e-05
1.25713e-05
7.78283e-08
-7.66291e-07
8.75621e-07
4.6626e-07
2.2135e-06
3.38836e-06
3.86887e-06
7.67326e-06
5.68742e-06
1.3224e-05
7.56685e-06
1.99162e-05
9.38812e-06
2.75957e-05
1.1051e-05
3.60557e-05
1.25631e-05
4.53158e-05
1.40914e-05
5.59602e-05
6.92085e-05
1.58958e-05
-1.38425e-07
-6.27866e-07
1.49696e-07
1.78139e-07
1.12318e-06
2.41488e-06
2.53241e-06
6.26402e-06
4.24554e-06
1.15108e-05
6.19014e-06
1.79716e-05
8.28661e-06
2.54992e-05
1.04533e-05
3.38889e-05
1.26741e-05
4.30951e-05
1.50581e-05
5.35762e-05
6.64099e-05
1.78568e-05
-2.18707e-07
-4.09159e-07
-2.59283e-07
2.18715e-07
2.4788e-07
1.90772e-06
1.34439e-06
5.16752e-06
2.83784e-06
1.00174e-05
4.71838e-06
1.60911e-05
6.93122e-06
2.32864e-05
9.42e-06
3.14001e-05
1.21561e-05
4.03589e-05
1.51751e-05
5.05572e-05
6.29649e-05
1.86201e-05
-2.56477e-07
-1.52681e-07
-4.34558e-07
3.96795e-07
-3.16434e-07
1.7896e-06
4.30733e-07
4.42035e-06
1.70849e-06
8.73964e-06
3.45211e-06
1.43475e-05
5.67495e-06
2.10636e-05
8.34242e-06
2.87327e-05
1.14148e-05
3.72866e-05
1.48851e-05
4.70869e-05
5.90327e-05
1.88173e-05
-2.55718e-07
1.03037e-07
-4.93659e-07
6.34737e-07
-5.63992e-07
1.85993e-06
-1.55087e-07
4.01145e-06
8.65761e-07
7.71879e-06
2.43472e-06
1.27785e-05
4.60625e-06
1.8892e-05
7.36579e-06
2.59731e-05
1.06628e-05
3.39895e-05
1.44564e-05
4.32933e-05
5.46971e-05
1.87919e-05
-2.38319e-07
3.41356e-07
-5.02811e-07
8.99228e-07
-6.50368e-07
2.00749e-06
-4.77174e-07
3.83825e-06
2.99447e-07
6.94217e-06
1.70874e-06
1.13692e-05
3.80477e-06
1.6796e-05
6.60561e-06
2.31723e-05
1.00561e-05
3.05391e-05
1.40797e-05
3.92696e-05
5.01578e-05
1.8619e-05
-1.97385e-07
5.38741e-07
-4.369e-07
1.13874e-06
-5.77353e-07
2.14794e-06
-4.79853e-07
3.74075e-06
1.2081e-07
6.3415e-06
1.40843e-06
1.00816e-05
3.44687e-06
1.47576e-05
6.256e-06
2.03632e-05
9.79318e-06
2.70019e-05
1.39871e-05
3.50757e-05
4.53504e-05
1.87946e-05
-1.22621e-07
6.61362e-07
-2.95659e-07
1.31178e-06
-3.67157e-07
2.21944e-06
-2.46944e-07
3.62054e-06
3.07026e-07
5.78753e-06
1.53472e-06
8.85391e-06
3.52457e-06
1.27677e-05
6.324e-06
1.75637e-05
9.90933e-06
2.34166e-05
1.42059e-05
3.07792e-05
4.03948e-05
1.91614e-05
-5.21999e-08
7.13562e-07
-1.55728e-07
1.41531e-06
-1.33782e-07
2.19749e-06
5.71776e-08
3.42958e-06
6.4608e-07
5.19863e-06
1.85371e-06
7.64627e-06
3.81787e-06
1.08036e-05
6.61931e-06
1.47623e-05
1.02644e-05
1.97715e-05
1.46928e-05
2.63507e-05
3.52701e-05
1.98175e-05
1.6326e-08
6.97236e-07
-5.23439e-09
1.43687e-06
1.19753e-07
2.0725e-06
4.1386e-07
3.13547e-06
1.07138e-06
4.54111e-06
2.29632e-06
6.42133e-06
4.26583e-06
8.83405e-06
7.10485e-06
1.19233e-05
1.08516e-05
1.60247e-05
1.54669e-05
2.17354e-05
2.98403e-05
2.08968e-05
9.12323e-08
6.06004e-07
1.51156e-07
1.37695e-06
3.60816e-07
1.86284e-06
7.43011e-07
2.75328e-06
1.45803e-06
3.82609e-06
2.71217e-06
5.1672e-06
4.72645e-06
6.81977e-06
7.67211e-06
8.9776e-06
1.16083e-05
1.20885e-05
1.64583e-05
1.68853e-05
2.42475e-05
2.20511e-05
1.37522e-07
4.68482e-07
2.41651e-07
1.27282e-06
4.86639e-07
1.61786e-06
8.88076e-07
2.35184e-06
1.60099e-06
3.11317e-06
2.872e-06
3.89619e-06
4.989e-06
4.70277e-06
8.16014e-06
5.80646e-06
1.24316e-05
7.8171e-06
1.76859e-05
1.16311e-05
1.81937e-05
2.37396e-05
1.47725e-07
3.20757e-07
2.5161e-07
1.16893e-06
4.38267e-07
1.4312e-06
7.28289e-07
2.06182e-06
1.33014e-06
2.51133e-06
2.60501e-06
2.62132e-06
4.93963e-06
2.36814e-06
8.53489e-06
2.2112e-06
1.33401e-05
3.01188e-06
1.91323e-05
5.83886e-06
1.16375e-05
2.56885e-05
9.98701e-08
2.20886e-07
6.4644e-08
1.20416e-06
-3.9713e-08
1.53556e-06
-2.60337e-08
2.04814e-06
4.71626e-07
2.01367e-06
2.15268e-06
9.4027e-07
5.19579e-06
-6.74968e-07
9.4319e-06
-2.02491e-06
1.46791e-05
-2.23533e-06
2.09077e-05
-3.89715e-07
4.65489e-06
2.78903e-05
-2.81587e-07
5.02474e-07
-6.35753e-07
1.55832e-06
-9.77247e-07
1.87705e-06
-4.75874e-07
1.54677e-06
1.48993e-06
4.78651e-08
4.80922e-06
-2.37902e-06
8.74904e-06
-4.61479e-06
1.32037e-05
-6.47956e-06
1.83734e-05
-7.40502e-06
2.43062e-05
-6.32253e-06
-2.05733e-06
3.10184e-05
-9.49974e-07
1.45245e-06
-8.01409e-07
1.40976e-06
4.34429e-07
6.41212e-07
3.0944e-06
-1.11321e-06
6.48434e-06
-3.34207e-06
9.75834e-06
-5.65302e-06
1.32433e-05
-8.09972e-06
1.72112e-05
-1.04475e-05
2.20036e-05
-1.21974e-05
2.79178e-05
-1.22368e-05
-9.0069e-06
3.48674e-05
4.13739e-07
1.03871e-06
2.60584e-06
-7.82342e-07
5.3614e-06
-2.11435e-06
8.11815e-06
-3.86995e-06
1.0648e-05
-5.87188e-06
1.31129e-05
-8.11797e-06
1.56482e-05
-1.06351e-05
1.85494e-05
-1.33486e-05
2.23255e-05
-1.59735e-05
2.76642e-05
-1.75755e-05
-1.63234e-05
3.49807e-05
4.79395e-06
-3.75524e-06
7.20131e-06
-3.1897e-06
9.33106e-06
-4.24411e-06
1.11131e-05
-5.65197e-06
1.25781e-05
-7.33686e-06
1.38575e-05
-9.39735e-06
1.51103e-05
-1.18879e-05
1.65799e-05
-1.48182e-05
1.87222e-05
-1.81158e-05
2.23072e-05
-2.11605e-05
-2.26472e-05
2.8631e-05
-5.92489e-06
-5.10242e-06
-9.71015e-06
-6.69094e-06
-1.28216e-05
-8.65803e-06
-1.56727e-05
-1.07684e-05
-1.84892e-05
-1.29478e-05
-2.15139e-05
-1.52681e-05
-2.4947e-05
-1.79916e-05
-2.89776e-05
-2.14939e-05
-3.37983e-05
-2.62141e-05
-3.96028e-05
-3.26529e-05
-4.14579e-05
-4.65394e-05
-3.87648e-06
-1.22594e-06
-7.45635e-06
-3.11107e-06
-1.09273e-05
-5.18711e-06
-1.43067e-05
-7.38898e-06
-1.76912e-05
-9.56337e-06
-2.12837e-05
-1.16757e-05
-2.53595e-05
-1.39157e-05
-3.01936e-05
-1.66598e-05
-3.60407e-05
-2.0367e-05
-4.31539e-05
-2.55397e-05
-3.26691e-05
-5.19428e-05
-1.41399e-06
1.88054e-07
-3.50584e-06
-1.01923e-06
-6.30254e-06
-2.39041e-06
-9.60502e-06
-4.0865e-06
-1.33094e-05
-5.85903e-06
-1.7458e-05
-7.52703e-06
-2.22222e-05
-9.15158e-06
-2.78416e-05
-1.10404e-05
-3.45856e-05
-1.3623e-05
-4.27417e-05
-1.73836e-05
-2.2877e-05
-5.25338e-05
-1.44311e-08
2.02485e-07
-9.27733e-07
-1.05928e-07
-2.67479e-06
-6.43351e-07
-5.24727e-06
-1.51402e-06
-8.60046e-06
-2.50585e-06
-1.27363e-05
-3.39118e-06
-1.7746e-05
-4.14191e-06
-2.37785e-05
-5.00785e-06
-3.10318e-05
-6.36972e-06
-3.97838e-05
-8.63154e-06
-1.21987e-05
-5.04621e-05
2.53261e-07
-5.07764e-08
1.47593e-07
-2.59306e-10
-5.08304e-07
1.2546e-08
-1.96163e-06
-6.06886e-08
-4.34431e-06
-1.23174e-07
-7.78213e-06
4.66436e-08
-1.24369e-05
5.12905e-07
-1.84196e-05
9.74853e-07
-2.57827e-05
9.93351e-07
-3.46761e-05
2.61882e-07
-1.57625e-06
-4.52986e-05
2.15526e-07
-2.66302e-07
3.17471e-07
-1.02204e-07
2.68857e-07
6.11591e-08
-2.02677e-07
4.10846e-07
-1.32884e-06
1.00299e-06
-3.38155e-06
2.09936e-06
-6.7671e-06
3.89845e-06
-1.19115e-05
6.1193e-06
-1.89023e-05
7.9841e-06
-2.76579e-05
9.01748e-06
9.05256e-06
-3.82867e-05
1.94451e-07
-4.60753e-07
3.29564e-07
-2.37317e-07
4.40987e-07
-5.02646e-08
3.55818e-07
4.96015e-07
-1.03752e-07
1.46256e-06
-1.169e-06
3.1646e-06
-3.23683e-06
5.96628e-06
-6.98062e-06
9.86309e-06
-1.28619e-05
1.38653e-05
-2.07318e-05
1.68874e-05
1.88073e-05
-3.04866e-05
1.86852e-07
-6.47606e-07
3.78648e-07
-4.29112e-07
5.93597e-07
-2.65214e-07
7.26435e-07
3.63177e-07
6.58215e-07
1.53078e-06
2.42076e-07
3.58074e-06
-7.94653e-07
7.00301e-06
-3.05864e-06
1.21271e-05
-7.43379e-06
1.82405e-05
-1.40912e-05
2.35448e-05
2.72832e-05
-2.2567e-05
1.86726e-07
-8.34332e-07
4.1232e-07
-6.54705e-07
6.9261e-07
-5.45504e-07
9.63669e-07
9.21177e-08
1.17179e-06
1.32266e-06
1.20019e-06
3.55234e-06
8.72127e-07
7.33108e-06
-1.99916e-07
1.31991e-05
-2.9388e-06
2.09794e-05
-8.19605e-06
2.88021e-05
3.47875e-05
-1.57004e-05
1.62408e-07
-9.9674e-07
4.17487e-07
-9.09785e-07
7.29203e-07
-8.5722e-07
1.06032e-06
-2.39e-07
1.43388e-06
9.49099e-07
1.78055e-06
3.20567e-06
1.96936e-06
7.14227e-06
1.72963e-06
1.34389e-05
4.20926e-07
2.22881e-05
-3.0952e-06
3.23182e-05
4.07736e-05
-9.08122e-06
1.47451e-07
-1.14419e-06
4.65229e-07
-1.22756e-06
6.80278e-07
-1.07227e-06
1.03145e-06
-5.90176e-07
1.47332e-06
5.07234e-07
1.99221e-06
2.68677e-06
2.53716e-06
6.59732e-06
2.92058e-06
1.30554e-05
2.68435e-06
2.25243e-05
8.77377e-07
3.41252e-05
4.49958e-05
-3.34482e-06
1.21017e-07
-1.26521e-06
3.42163e-07
-1.44871e-06
5.76533e-07
-1.30664e-06
8.93522e-07
-9.07164e-07
1.28878e-06
1.11978e-07
1.82352e-06
2.15203e-06
2.52452e-06
5.89632e-06
3.31936e-06
1.22606e-05
3.89828e-06
2.19454e-05
3.52371e-06
3.44997e-05
4.69869e-05
1.53256e-06
7.93339e-08
-1.34454e-06
2.54404e-07
-1.62378e-06
4.38482e-07
-1.49072e-06
6.49832e-07
-1.11851e-06
9.39475e-07
-1.77665e-07
1.35376e-06
1.73775e-06
1.98476e-06
5.26532e-06
2.93036e-06
1.1315e-05
4.07715e-06
2.07986e-05
4.87522e-06
3.37017e-05
4.79027e-05
3.95942e-06
2.67571e-08
-1.3713e-06
1.31459e-07
-1.72848e-06
2.27352e-07
-1.58661e-06
3.30122e-07
-1.22128e-06
4.59972e-07
-3.07515e-07
6.5689e-07
1.54083e-06
1.02911e-06
4.89309e-06
1.81113e-06
1.0533e-05
3.15853e-06
1.94512e-05
4.75352e-06
3.21067e-05
4.6984e-05
5.67221e-06
-2.75879e-08
-1.34371e-06
-1.27806e-08
-1.74329e-06
-3.07041e-08
-1.56869e-06
-7.8346e-08
-1.17364e-06
-1.55814e-07
-2.30046e-07
-2.51796e-07
1.63682e-06
-2.55739e-07
4.89704e-06
1.30271e-07
1.0147e-05
1.32535e-06
1.82561e-05
3.42891e-06
3.00031e-05
4.51751e-05
5.23787e-06
-8.88846e-08
-1.25483e-06
-1.87545e-07
-1.64463e-06
-3.45879e-07
-1.41035e-06
-5.85395e-07
-9.34127e-07
-9.33165e-07
1.17724e-07
-1.37214e-06
2.07579e-06
-1.75447e-06
5.27936e-06
-1.80563e-06
1.01981e-05
-1.06493e-06
1.75154e-05
9.39518e-07
2.79987e-05
4.24247e-05
3.68988e-06
-1.61191e-07
-1.09363e-06
-3.94975e-07
-1.41084e-06
-7.2863e-07
-1.0767e-06
-1.21823e-06
-4.44529e-07
-1.89561e-06
7.95108e-07
-2.67308e-06
2.85325e-06
-3.39337e-06
5.99966e-06
-3.83713e-06
1.06419e-05
-3.62597e-06
1.73042e-05
-2.1867e-06
2.65594e-05
3.90287e-05
1.20927e-06
-2.45444e-07
-8.48191e-07
-6.3728e-07
-1.01901e-06
-1.18734e-06
-5.26635e-07
-1.96922e-06
3.37346e-07
-2.93629e-06
1.76218e-06
-3.99129e-06
3.90825e-06
-5.04429e-06
7.05266e-06
-5.92312e-06
1.15207e-05
-6.31803e-06
1.76991e-05
-5.78466e-06
2.6026e-05
3.70544e-05
-3.81033e-06
-3.3884e-07
-5.09351e-07
-8.91971e-07
-4.65877e-07
-1.64438e-06
2.25775e-07
-2.60358e-06
1.29654e-06
-3.7425e-06
2.9011e-06
-5.05512e-06
5.22088e-06
-6.46039e-06
8.45793e-06
-7.79072e-06
1.28511e-05
-8.77364e-06
1.86821e-05
-8.9766e-06
2.6229e-05
3.59113e-05
-7.83349e-06
-4.12624e-07
-9.6727e-08
-1.06065e-06
1.82151e-07
-1.86769e-06
1.03281e-06
-2.88499e-06
2.31384e-06
-4.17925e-06
4.19536e-06
-5.73093e-06
6.77256e-06
-7.43487e-06
1.01619e-05
-9.13112e-06
1.45473e-05
-1.06316e-05
2.01826e-05
-1.17151e-05
2.73126e-05
3.62103e-05
-1.20141e-05
-4.09432e-07
3.12705e-07
-1.02417e-06
7.96889e-07
-1.81893e-06
1.82757e-06
-2.90033e-06
3.39525e-06
-4.28772e-06
5.58275e-06
-5.90404e-06
8.38888e-06
-7.61813e-06
1.1876e-05
-9.28489e-06
1.62141e-05
-1.07389e-05
2.16366e-05
-1.17154e-05
2.82891e-05
3.60856e-05
-1.15908e-05
-3.81356e-07
6.94062e-07
-9.82153e-07
1.39769e-06
-1.81698e-06
2.6624e-06
-2.91878e-06
4.49705e-06
-4.19138e-06
6.85534e-06
-5.50019e-06
9.69769e-06
-6.71413e-06
1.30899e-05
-7.7127e-06
1.72126e-05
-8.34884e-06
2.22727e-05
-8.36871e-06
2.83089e-05
3.51927e-05
-7.47578e-06
-5.86501e-07
1.28056e-06
-1.30233e-06
2.11351e-06
-2.26105e-06
3.62112e-06
-3.22802e-06
5.46402e-06
-4.01802e-06
7.64534e-06
-4.52036e-06
1.02e-05
-4.66464e-06
1.32342e-05
-4.33942e-06
1.68874e-05
-3.36144e-06
2.12947e-05
-1.15325e-06
2.61007e-05
3.0434e-05
3.60552e-06
-2.47468e-06
-3.55087e-06
-4.17385e-06
-4.36181e-06
-4.05332e-06
-3.25065e-06
-1.90438e-06
1.6486e-07
3.34376e-06
8.28397e-06
1.60707e-05
-1.19241e-05
-9.86803e-06
2.17921e-05
-1.92049e-05
-1.16934e-05
1.89742e-05
-2.5339e-05
-1.40697e-05
2.02038e-05
-3.09413e-05
-1.62773e-05
2.18796e-05
-3.60998e-05
-1.81861e-05
2.33447e-05
-4.12748e-05
-1.98061e-05
2.49811e-05
-4.6831e-05
-2.1148e-05
2.67042e-05
-5.31239e-05
-2.21875e-05
2.84804e-05
-6.04406e-05
-2.28276e-05
3.01443e-05
-6.90853e-05
-2.28867e-05
3.15315e-05
-2.20208e-05
3.23668e-05
-7.94313e-05
-8.67761e-06
-1.19042e-06
-1.59248e-05
-4.44618e-06
-2.25701e-05
-7.42445e-06
-2.87036e-05
-1.01438e-05
-3.44773e-05
-1.24124e-05
-4.01998e-05
-1.40836e-05
-4.62656e-05
-1.50822e-05
-5.30806e-05
-1.53725e-05
-6.104e-05
-1.48683e-05
-7.05612e-05
-1.33655e-05
-1.05097e-05
-8.20723e-05
-4.08451e-06
2.89409e-06
-9.28865e-06
7.57959e-07
-1.52688e-05
-1.44431e-06
-2.15406e-05
-3.87198e-06
-2.79542e-05
-5.99879e-06
-3.45872e-05
-7.45058e-06
-4.16448e-05
-8.02467e-06
-4.94294e-05
-7.58788e-06
-5.8305e-05
-5.99262e-06
-6.8618e-05
-3.05249e-06
1.67131e-06
-8.0799e-05
-1.68944e-06
4.58353e-06
-4.86101e-06
3.92953e-06
-9.50578e-06
3.20046e-06
-1.52212e-05
1.84347e-06
-2.17123e-05
4.92285e-07
-2.86967e-05
-4.6614e-07
-3.61504e-05
-5.71035e-07
-4.42823e-05
5.44027e-07
-5.34545e-05
3.17961e-06
-6.41429e-05
7.63587e-06
1.43279e-05
-7.67994e-05
-1.29062e-06
5.87415e-06
-3.29034e-06
5.92925e-06
-6.36111e-06
6.27123e-06
-1.0645e-05
6.12739e-06
-1.61314e-05
5.97865e-06
-2.2695e-05
6.09745e-06
-3.0209e-05
6.94301e-06
-3.86522e-05
8.98714e-06
-4.81452e-05
1.26726e-05
-5.89589e-05
1.84496e-05
2.69007e-05
-7.15318e-05
-1.20538e-06
7.07953e-06
-3.09724e-06
7.82111e-06
-5.56509e-06
8.73908e-06
-8.97929e-06
9.54159e-06
-1.34874e-05
1.04868e-05
-1.91535e-05
1.17635e-05
-2.59535e-05
1.3743e-05
-3.38687e-05
1.69023e-05
-4.29555e-05
2.17595e-05
-5.33958e-05
2.88899e-05
3.90364e-05
-6.55314e-05
-1.08448e-06
8.16401e-06
-2.68593e-06
9.42256e-06
-4.86209e-06
1.09152e-05
-7.77916e-06
1.24586e-05
-1.16057e-05
1.43133e-05
-1.64821e-05
1.664e-05
-2.24959e-05
1.97567e-05
-2.96889e-05
2.40954e-05
-3.81279e-05
3.01984e-05
-4.79387e-05
3.87007e-05
5.03738e-05
-5.9276e-05
-1.03519e-06
9.19919e-06
-2.5087e-06
1.08961e-05
-4.4282e-06
1.28348e-05
-6.97028e-06
1.50007e-05
-1.02813e-05
1.76244e-05
-1.45158e-05
2.08744e-05
-1.97973e-05
2.50383e-05
-2.62304e-05
3.05284e-05
-3.39144e-05
3.78824e-05
-4.29924e-05
4.77787e-05
6.1083e-05
-5.37017e-05
-9.67626e-07
1.01668e-05
-2.31799e-06
1.22464e-05
-4.04902e-06
1.45658e-05
-6.29831e-06
1.725e-05
-9.20403e-06
2.05301e-05
-1.29109e-05
2.45813e-05
-1.75618e-05
2.96892e-05
-2.32858e-05
3.62524e-05
-3.02173e-05
4.48139e-05
-3.85258e-05
5.60872e-05
7.1001e-05
-4.84438e-05
-7.93474e-07
1.09603e-05
-1.96635e-06
1.34193e-05
-3.49803e-06
1.60975e-05
-5.49182e-06
1.92438e-05
-8.05672e-06
2.3095e-05
-1.13276e-05
2.78522e-05
-1.5445e-05
3.38065e-05
-2.055e-05
4.13574e-05
-2.68003e-05
5.10643e-05
-3.43626e-05
6.36495e-05
8.00562e-05
-4.34178e-05
-6.39784e-07
1.16001e-05
-1.65334e-06
1.44329e-05
-2.9872e-06
1.74313e-05
-4.72957e-06
2.09862e-05
-6.97946e-06
2.53449e-05
-9.85716e-06
3.07299e-05
-1.34925e-05
3.74418e-05
-1.80262e-05
4.58912e-05
-2.36107e-05
5.66488e-05
-3.042e-05
7.04588e-05
8.83046e-05
-3.86683e-05
-6.10423e-07
1.22105e-05
-1.51696e-06
1.53394e-05
-2.68161e-06
1.8596e-05
-4.19201e-06
2.24966e-05
-6.14146e-06
2.72943e-05
-8.63491e-06
3.32234e-05
-1.1792e-05
4.05989e-05
-1.57524e-05
4.98516e-05
-2.06623e-05