0.0001292046 -119.610830689 4.65960770135 -4.26768594026 0.019174662
0.0007609288 -117.70805268 3.43090817939 -3.146618679 0.017202059
0.001685274 -114.923888769 3.04613096874 -2.85034526099 0.015740167
0.002932034 -111.168598864 2.89571278013 -2.82800034604 0.014063512
0.004514687 -106.401586101 2.78942670878 -2.93723087806 0.0105842
0.006196203 -101.336794113 2.63270877115 -3.08244471239 0.005085004
0.007866899 -96.3045923881 2.3843732106 -3.19986837578 -0.0018462496
0.009532322 -91.2882731457 2.0265790166 -3.24759050567 -0.0093268439
0.01114979 -86.4163962398 1.59347894832 -3.2153720325 -0.016547236
0.01267475 -81.8231570497 1.1311670284 -3.09373074867 -0.022863586
0.01411903 -77.4729291764 0.683679013471 -2.8923778734 -0.0281347
0.01549345 -73.3331223568 0.28935167094 -2.64244896134 -0.032258677
0.01681006 -69.3674415191 -0.0328058330191 -2.36343040781 -0.035206199
0.018081 -65.5393205085 -0.278400936919 -2.08112929674 -0.036957546
0.0193135 -61.826982282 -0.449073809378 -1.80690424427 -0.037739736
0.02050924 -58.2253666139 -0.565565000889 -1.56845925919 -0.037476859
0.02166967 -54.7301060474 -0.642816553098 -1.37084453113 -0.036550073
0.02279976 -51.3262307481 -0.645046653791 -1.18714296013 -0.0353679
0.02390299 -48.0032588198 -0.556885001255 -0.986082094754 -0.034272697
0.02498309 -44.7499553566 -0.476766886309 -0.811190815261 -0.033462847
0.02604431 -41.5535191921 -0.396901841909 -0.652053688014 -0.032830801
0.02709183 -38.3983479637 -0.316718997056 -0.512338638249 -0.032440618
0.02812912 -35.2739898956 -0.243216097109 -0.393800984894 -0.032029011
0.02915873 -32.172764288 -0.175316026248 -0.295279368693 -0.031661858
0.03018325 -29.0868699595 -0.11038626708 -0.215057759621 -0.031377103
0.0312059 -26.0066081443 -0.0498918567833 -0.152254165512 -0.03123227
0.03223044 -22.920653575 0.0077790975927 -0.104271661589 -0.031128553
0.03326151 -19.8150303903 0.063156408351 -0.070982972512 -0.031060501
0.03430458 -16.673262736 0.116252851032 -0.0533768465639 -0.03107372
0.03536627 -13.4754109131 0.167482891392 -0.0560048649616 -0.031012576
0.03645396 -10.1992460729 0.213344550641 -0.0794810651048 -0.03092472
0.03757587 -6.82000925368 0.250575774337 -0.130552357857 -0.030682018
0.03874217 -3.30706801752 0.271947054932 -0.210749294856 -0.030239392
0.03996515 0.376595596464 0.265736532447 -0.321340881612 -0.02947715
0.04125635 4.26574051983 0.214991755942 -0.456470987455 -0.02828142
0.04263834 8.42834847572 0.100254966413 -0.58179013672 -0.026559301
0.04413838 12.9465276508 -0.10066294764 -0.654341712589 -0.024431097
0.04579455 17.9349764951 -0.401662525456 -0.576295112732 -0.021612563
0.04767492 23.5987245121 -0.825188852447 -0.256350237181 -0.015769819
0.04956809 29.3010266299 -1.28434719857 0.318636945882 -0.009664757
0.05133957 34.6367937062 -1.72148677885 1.05252472975 -0.0040160459
0.05301117 39.6717183142 -2.10791769325 1.83089850242 0.003122522
0.05459282 44.4357100026 -2.4313877032 2.59745796477 0.009900129
0.05609256 48.9529855659 -2.69646029261 3.30667345873 0.016146157
0.05752403 53.2646292179 -2.79615406913 3.84847357934 0.021590984
0.05889984 57.408622772 -2.34682989375 3.99002692003 0.025996953
0.06023094 61.4179480566 -1.81715148666 4.09862375384 0.029361325
0.06152586 65.3182977655 -1.2345837213 4.17906754798 0.031539008
0.06278761 69.1187381366 -0.625915633087 4.23609997354 0.032546325
0.06401642 72.8199619387 -0.0151740430423 4.2661211888 0.032452679
0.06521776 76.4384450259 0.577822487609 4.27016485004 0.03134834
0.06639595 79.9871994073 1.1334797509 4.24555033021 0.0294690436
0.06755483 83.4777913131 1.63719338881 4.19517495667 0.0270323427
0.06869918 86.9246182904 2.0756911262 4.11489636329 0.0241955811
0.06983514 90.3461742594 2.4343680745 3.99799845175 0.0212086357
0.07096705 93.7555314699 2.70956472953 3.85246352305 0.0181957986
0.07209901 97.1650392824 2.89501300493 3.67672271093 0.01533818653
0.07323437 100.584788028 2.98982888491 3.47295234679 0.01263764839
0.07437748 104.027880077 2.99844320908 3.24618485187 0.01014643408
0.07553428 107.512206941 2.9269346458 3.00016850405 0.00789936638
0.07671238 111.060690239 2.78457115526 2.73972200931 0.00585748644
0.0779215 114.702606991 2.57638373484 2.46412611013 0.00404647218
0.07917459 118.476963103 2.31123272231 2.17558084125 0.00243940045
0.08048783 122.432493369 1.99628871997 1.87393327956 0.000987385
0.08188399 126.637781919 1.64409695515 1.56265602703 -0.0002734537
0.08338972 131.173099597 1.26276155772 1.23842850302 -0.0012307146
0.08503856 136.139470194 0.870365727557 0.904705301783 -0.0019045419
0.08690431 141.759182199 0.492240526948 0.567872298816 -0.0022181219
0.08885935 147.647839178 0.192566440445 0.267559326385 -0.0019236247
0.09070246 153.199358617 0.000124154115814 0.0279520255774 -0.0010926942
0.09243607 158.421059771 -0.0925503366723 -0.145202146069 0.0002609083
0.09407365 163.353514808 -0.119126537793 -0.282959561903 0.0020847586
0.09562495 168.026091109 -0.100014087971 -0.405296592407 0.0044136777
0.09710101 172.472041586 -0.0457214834429 -0.519040503041 0.0069272316
0.09851477 176.730342025 0.0344439502157 -0.621091294281 0.0092320344
0.09987902 180.839516406 0.132401213539 -0.717531925589 0.0110763358
0.1012034 184.828600788 0.240731905779 -0.801452347823 0.0122448566
0.1024954 188.720155343 0.35212267991 -0.871504688145 0.0125899015
0.1037546 192.512915014 0.460048044395 -0.927382320957 0.0120961661
0.1049847 196.218024347 0.557725060747 -0.965993916835 0.0107699354
0.1061914 199.852651964 0.640516948765 -0.987397158394 0.0086977331
0.1073786 203.428544818 0.706610998539 -0.994265620787 0.0060175155
0.1085507 206.958955881 0.754071822313 -0.985753123642 0.0029527634
0.1097134 210.461053776 0.787261016124 -0.969492174294 -0.00032172501
0.1108726 213.952609534 0.813128090382 -0.952385406913 -0.003570119161
0.1120328 217.447177332 0.834542716146 -0.935649433861 -0.0065751165
0.1131987 220.958913752 0.863535329576 -0.93082478823 -0.0092515125
0.114374 224.498963341 0.900806066326 -0.936338314794 -0.011399799
0.1155648 228.085699535 0.952905149211 -0.95877598207 -0.0130700086
0.1167794 231.744122261 1.01093229853 -0.99008555997 -0.014273489
0.1180281 235.505255522 1.06161585336 -1.02038888028 -0.0151194365
0.1193254 239.412773884 1.08709932952 -1.03687516876 -0.0157957975
0.1206907 243.525110907 1.07427263 -1.03077247058 -0.016624791
0.1221499 247.920278404 1.00866036335 -0.989068023287 -0.017689829
0.1237328 252.688035141 0.898060397623 -0.916762276215 -0.018880306
0.125493 257.989826416 0.762505947933 -0.831489869921 -0.019797314
0.1274318 263.829567879 0.630908136963 -0.766407616725 -0.020264579
0.1293675 269.659972021 0.51897636992 -0.7450742363 -0.020331447
0.1311819 275.125015817 0.412021876524 -0.755436216937 -0.020234329
0.1328915 280.274397912 0.294279559912 -0.778368056711 -0.020134681
0.1345095 285.147877223 0.164128007429 -0.802726918176 -0.020191552
0.1360432 289.767441635 0.0238267472961 -0.825511164939 -0.020231624
0.1375053 294.171344045 -0.120255857542 -0.845676139891 -0.02042726
0.1389086 298.398138555 -0.268681760688 -0.86793291805 -0.020588019
0.1402655 302.485174449 -0.417116938143 -0.890748998826 -0.020866801
0.1415853 306.460463692 -0.56348140068 -0.913950160285 -0.021187555
0.1428737 310.341174905 -0.612435461338 -0.871112500994 -0.021570264
0.1441304 314.126404479 -0.61718741336 -0.781434070889 -0.02208131
0.1453603 317.830911404 -0.610894411593 -0.669043294189 -0.022685334
0.1465684 321.469755875 -0.594229854204 -0.53849017046 -0.023386431
0.1477587 325.054986051 -0.564720534709 -0.392731101114 -0.024187375
0.1489357 328.600156105 -0.523534257284 -0.236633270402 -0.025031462
0.1501058 332.12454309 -0.467600282195 -0.0754310689954 -0.025898471
0.1512746 335.645014424 -0.395213649607 0.0819582265367 -0.026775587
0.1524468 339.175726691 -0.305527014857 0.222741489549 -0.02771588
0.1536272 342.731137679 -0.201691605955 0.334188038993 -0.028623518
0.1548202 346.32450036 -0.0893150181094 0.404084800833 -0.029439587
0.1560326 349.9762966 0.0250632417266 0.419257390717 -0.030114448
0.1572739 353.715140771 0.130447821342 0.370843175987 -0.030593456
0.1585564 357.578080954 0.212197557327 0.253848238967 -0.030755933
0.1598971 1.61632181406 0.251369255348 0.0833555119924 -0.030470434
0.1613199 5.90185108681 0.228379410778 -0.107381188596 -0.029574531
0.1628512 10.5141866051 0.120893048602 -0.282270852563 -0.027855341
0.1645351 15.5861592944 -0.0942732396848 -0.368285670512 -0.025102168
0.1664262 21.2822264912 -0.43985424186 -0.261672970542 -0.021264799
0.16838 27.1671485415 -0.871545306125 0.086043897435 -0.012116486
0.1702577 32.822854414 -1.32039060273 0.727774102927 -0.010094841
0.1720217 38.1360914376 -1.75381084863 1.46597689367 -0.00354832934
0.1736899 43.1607751126 -2.12763253719 2.23110210872 0.003737016
0.1752713 47.9240137912 -2.43261341486 2.96118028175 0.010530249
0.1767736 52.4490001747 -2.67611833664 3.61372914677 0.016767841
0.1782107 56.777601607 -2.27726038584 3.78533664331 0.022059795
0.1795953 60.948070985 -1.78026768621 3.91724615812 0.026291912
0.1809381 64.9926371274 -1.21860827524 4.01033828651 0.029391918
0.1822478 68.9375047747 -0.623338004894 4.07698149672 0.031313848
0.1835262 72.7880955972 -0.0192736820584 4.11474113953 0.032056906
0.184775 76.5495300615 0.569564382617 4.12357419761 0.031698702
0.1860001 80.2395791984 1.12304354958 4.10136870758 0.0303826309
0.1872057 83.8708935723 1.62574067399 4.05514035731 0.0283177611
0.1883961 87.4564249515 2.06287648463 3.97987217236 0.0257365044
0.1895765 91.0118359394 2.4207170097 3.87079879409 0.0228411025
0.1907537 94.557608402 2.69143853813 3.72907609379 0.019797521
0.1919324 98.1078989234 2.86659643015 3.55223145798 0.0167960118
0.1931178 101.678370107 2.9495399611 3.34848568121 0.01394141291
0.1943149 105.284082148 2.94245717268 3.11997878982 0.01127165242
0.1955288 108.940396447 2.8490941429 2.86806427822 0.00882115994
0.196768 112.672915336 2.67884010244 2.59744244505 0.00658973664
0.1980437 116.515373652 2.44139232423 2.31121485007 0.0045647114
0.1993709 120.512951984 2.14678582212 2.01149703664 0.0027585862
0.2007715 124.731613989 1.80490110524 1.69907052036 0.0011587
0.2022703 129.246058235 1.42676083222 1.37420376921 -0.0002617841
0.203907 134.175862678 1.02884938762 1.03918751642 -0.0013834729
0.2057454 139.713195412 0.628979960891 0.693274477233 -0.0021622727
0.2076957 145.587575326 0.294011842153 0.377747157748 -0.0024490491
0.2096219 151.389365096 0.0578483486358 0.112873456388 -0.0020884924
0.2114218 156.810734324 -0.0730436817173 -0.0872344644169 -0.0011937227
0.2131221 161.932104455 -0.120733605415 -0.232589339541 8.874114e-05
0.2147339 166.786909123 -0.119833904329 -0.364595189252 0.0018606794
0.2162634 171.393822971 -0.079688473063 -0.482149933117 0.0036898465
0.2177237 175.792303711 -0.0103987893583 -0.586824222035 0.0053600749
0.2191272 180.019700629 0.0776493334143 -0.679138032976 0.006505739
0.2204859 184.112158193 0.176670496818 -0.75398502597 0.007046068
0.221809 188.097387165 0.278551073401 -0.815759613455 0.0068275444
0.2231015 191.990447739 0.374687567341 -0.857683466766 0.0057989534
0.224363 195.7901351 0.460920381252 -0.88360238289 0.00412255226
0.2255991 199.513316668 0.534446931455 -0.895722329496 0.00192740616
0.2268147 203.174751433 0.595498020731 -0.897830698239 -0.000591479632
0.228014 206.78708996 0.645189790756 -0.893128918393 -0.00327829022
0.2292017 210.364488834 0.693720547308 -0.893254334484 -0.0058766524
0.2303845 213.927128716 0.74358973728 -0.897970476755 -0.0081585827
0.2315679 217.491575821 0.796918023448 -0.908854364355 -0.0100793337
0.2327571 221.073492753 0.852516664965 -0.924289385913 -0.0116107052
0.2339574 224.68884332 0.906455385399 -0.941036990187 -0.0127907024
0.2351735 228.351784105 0.948786791878 -0.951449625003 -0.0137597108
0.2364132 232.085809013 0.967335169761 -0.945813990184 -0.0145516343
0.2376872 235.923146863 0.957421328929 -0.922052010743 -0.0152907488
0.2390095 239.905966203 0.915490817273 -0.877864754069 -0.01600721
0.2404009 244.096917447 0.846557029288 -0.817953540164 -0.016766251
0.2418858 248.56949435 0.764149507614 -0.753992467242 -0.017361766
0.2435014 253.435744767 0.676720468129 -0.694626343417 -0.017770278
0.2453079 258.876993453 0.596512204674 -0.657257713558 -0.017963018
0.247257 264.74775892 0.530083773757 -0.661077104504 -0.017944666
0.2492049 270.614909939 0.461549469081 -0.70127232449 -0.017912024
0.2510313 276.116098204 0.371758609748 -0.755188481557 -0.017924536
0.2527517 281.298010322 0.254255331423 -0.813671773381 -0.017919676
0.2543814 286.20673049 0.110178074512 -0.868198986614 -0.017949889
0.255927 290.862138168 -0.0517092564026 -0.917631706952 -0.018154077
0.2574003 295.299775417 -0.225716514459 -0.961235376974 -0.018385447
0.2588144 299.559099949 -0.402947582419 -0.999260356911 -0.018803856
0.2601822 303.67896707 -0.580383300185 -1.03433506123 -0.019270841
0.2615129 307.687087539 -0.743918795625 -1.06101135647 -0.019862299
0.2628131 311.603340815 -0.754521111075 -0.968612407574 -0.020525401
0.2640822 315.425919673 -0.750005039724 -0.844932902278 -0.021271495
0.2653252 319.16988431 -0.731372137522 -0.697160022183 -0.022107786
0.2665472 322.850596126 -0.696564592741 -0.530418964123 -0.023078855
0.2677522 326.480103277 -0.646648714351 -0.351647011887 -0.024100022
0.2689449 330.072562346 -0.58230540751 -0.168141237437 -0.025148585
0.2701316 333.64694918 -0.502830101538 0.0122516808463 -0.026183651
0.2713185 337.221938422 -0.408702767735 0.179830609381 -0.027171651
0.2725108 340.813192676 -0.300316342264 0.321560274058 -0.028142196
0.2737137 344.436374544 -0.179986272108 0.422804396221 -0.029122507
0.2749324 348.107146631 -0.0554828850912 0.471545334099 -0.029934887
0.2761738 351.846292005 0.0636944839454 0.460597189737 -0.030572882
0.2774487 355.686340691 0.165674896623 0.382625986269 -0.030947544
0.278771 359.669160031 0.234898268599 0.237148396675 -0.03098768
0.2801612 3.85649682836 0.2516005824 0.0505974431631 -0.030522887
0.2816435 8.32124242928 0.196884021659 -0.136829473384 -0.02933299
0.2832543 13.1730350583 0.0503019749685 -0.276253470087 -0.027263083
0.2850535 18.5922958592 -0.215292691203 -0.287103791265 -0.024123137
0.2870031 24.4645673451 -0.60673903907 -0.0655813597708 -0.019317347
0.2889572 30.3503930071 -1.03969442333 0.381565940855 -0.009533123
0.2907916 35.8756775853 -1.49762347717 1.11168251185 -0.008071669
0.2925195 41.0801799963 -1.90417165645 1.86340907333 -0.000767768
0.2941564 46.0105868466 -2.24869762161 2.61520309868 0.006434473
0.2957089 50.6867775944 -2.52341098824 3.3052496489 0.012986143
0.2971879 55.1415834662 -2.39520306268 3.67063147173 0.018909876
0.2986065 59.4144621746 -1.93626431794 3.82010061196 0.02382551
0.2999782 63.5460762478 -1.40286222849 3.93744472187 0.02760174
0.3013118 67.5629316302 -0.821624124616 4.01932292238 0.030251401
0.3026149 71.4879198193 -0.219505476782 4.06969611498 0.031657898
0.3038868 75.3189323874 0.37583911364 4.09202906016 0.031946672
0.305132 79.0695235109 0.944031095842 4.08575482742 0.0311706044
0.3063562 82.7568618126 1.46628862464 4.0496621961 0.0295093203
0.3075632 86.3923930413 1.92670392333 3.9842658916 0.0272132798
0.3087578 89.9905749848 2.31531402925 3.89224224824 0.0244532265
0.3099461 93.5697810818 2.61729616967 3.76436393072 0.0214519154
0.3111346 97.1495895866 2.82693858162 3.60329404104 0.0183992486
0.3123281 100.744458287 2.94186978327 3.41166080988 0.01543707518
0.3135322 104.371254602 2.95976667559 3.18839299561 0.012637635586
0.3147522 108.04594234 2.89299078018 2.94535708793 0.01001673368
0.3159946 111.788099754 2.74190693713 2.67853107124 0.00765351343
0.31727 115.629654459 2.52079372698 2.39599098788 0.0054956656
0.3185923 119.612473799 2.23676733155 2.09718735432 0.0035512592
0.3199815 123.796798557 1.90186245044 1.78506908255 0.0018120564
0.3214617 128.255218876 1.52940485483 1.46224533961 0.0002612113
0.3230684 133.094662144 1.13176774182 1.1277268995 -0.0010111945
0.3248622 138.497657934 0.726347701755 0.78156911858 -0.0019777949
0.3268131 144.373845071 0.369194844327 0.454975127505 -0.0024841642
0.3287712 150.271718889 0.103071052582 0.171041093275 -0.0023461959
0.3306095 155.80875042 -0.0517287721782 -0.045554914378 -0.0016252957
0.3323401 161.021385337 -0.112692250932 -0.196574575661 -0.0004814264
0.3339793 165.958719877 -0.123388905227 -0.33362143552 0.0010838853
0.3355339 170.641235907 -0.0910412817862 -0.453484478954 0.0027953398
0.3370149 175.102065857 -0.0275903680442 -0.560091776912 0.00441669
0.3384353 179.380366236 0.0570179228043 -0.654556638577 0.0056113273
0.3398085 183.516498368 0.153100863452 -0.730831321181 0.0061372342
0.3411436 187.537871809 0.253344552888 -0.792762474217 0.005986979
0.3424481 191.467076853 0.350505216362 -0.83837437885 0.0050952053
0.3437212 195.301703868 0.437571551562 -0.866411530493 0.00349185412
0.3449676 199.055909438 0.51404006746 -0.882492116496 0.00141652287
0.3461928 202.746259779 0.579136637069 -0.888742372272 -0.000962489521
0.3474009 206.385104251 0.636990285308 -0.892849670076 -0.00350226706
0.3485966 209.986599437 0.689476444065 -0.895673383071 -0.0060020754
0.349786 213.569118777 0.746390393437 -0.906393631836 -0.0081670352
0.3509755 217.151939321 0.805750954983 -0.922092196122 -0.010018854
0.3521704 220.751024877 0.866068586983 -0.940816240176 -0.0115001866
0.3533759 224.382038047 0.920865340103 -0.957116200856 -0.0126588952
0.3545974 228.061243843 0.961931053861 -0.965325965636 -0.0136304788
0.3558416 231.808822927 0.978854317938 -0.957490710558 -0.0144546147
0.3571191 235.656702914 0.966193855008 -0.930603009524 -0.0152295681
0.3584438 239.646751148 0.922311782344 -0.884154757471 -0.015988556
0.3598358 243.839509616 0.853099809267 -0.823583400342 -0.016779072
0.3613193 248.307869664 0.768953087289 -0.757534524025 -0.017404394
0.362931 253.162373128 0.678930472951 -0.694897675255 -0.01784981
0.3647319 258.586754396 0.595311038241 -0.652319207329 -0.018072256
0.3666832 264.464146348 0.525366326365 -0.64863529716 -0.018072149
0.3686417 270.363224982 0.455583138745 -0.68110358423 -0.01804151
0.3704835 275.91079865 0.367986752096 -0.729933694516 -0.018050887
0.3722152 281.12674681 0.254565221936 -0.783651857226 -0.018036499
0.3738542 286.063478942 0.116114228029 -0.835028808162 -0.018046482
0.3754081 290.743886545 -0.0400535601576 -0.882606653127 -0.018196199
0.3768883 295.202306863 -0.208713448188 -0.925888861794 -0.018373891
0.3783082 299.479101223 -0.38127854862 -0.964376466698 -0.018750717
0.3796811 303.614329743 -0.555958158573 -1.00117569637 -0.019147956
0.3810161 307.63540198 -0.719950490713 -1.03148818209 -0.019689745
0.3823207 311.564908228 -0.733845977366 -0.945193673071 -0.020317075
0.3835942 315.400740059 -0.733711380679 -0.827719398768 -0.021021074
0.3848413 319.157054056 -0.719528336105 -0.685182864983 -0.021826731
0.3860674 322.850115232 -0.688906509769 -0.522402663096 -0.022781382
0.3872764 326.491670539 -0.643175655735 -0.346147710077 -0.023791432
0.3884731 330.096177765 -0.582165819183 -0.163485190975 -0.02484096
0.3896636 333.682010348 -0.505552953869 0.0175198764156 -0.025886082
0.3908545 337.269047747 -0.413176199762 0.186739287969 -0.02691331
0.3920508 340.872350157 -0.305715959856 0.331081512498 -0.027905432
0.3932581 344.508784997 -0.184996966305 0.434583081973 -0.02892298
0.3944817 348.194316076 -0.0593441010008 0.484975628431 -0.029780676
0.3957283 351.949124054 0.0610598251846 0.476537939443 -0.030482306
0.397009 355.806642566 0.164880899739 0.395293857931 -0.030872665
0.3983378 359.809040161 0.234968985875 0.247932094449 -0.030937368
0.3997355 4.01896725147 0.251578572222 0.0585084330365 -0.030487045
0.4012265 8.50991759282 0.195466055298 -0.130769970809 -0.029296482
0.4028491 13.3972522835 0.0451376360221 -0.270819329548 -0.027174405
0.4046661 18.8701273809 -0.224686813673 -0.274899975447 -0.024024131
0.4066189 24.7520373921 -0.619597811265 -0.0440946549278 -0.019245448
0.4085746 30.6426823166 -1.05485878355 0.415067063427 -0.009744324
0.4104076 36.1637500401 -1.51298800622 1.14859580229 -0.007922544
0.4121341 41.3640355963 -1.91556081553 1.89933268602 -0.0005108
0.4137691 46.2887195722 -2.25752018752 2.64930015561 0.006675819
0.4153197 50.9591874457 -2.52900126632 3.3343055887 0.013202737
0.4167972 55.4094752588 -2.36259989795 3.67203710769 0.019099426
0.4182149 59.679643132 -1.89925961903 3.81992932133 0.023982197
0.4195861 63.8097511857 -1.36274848918 3.93521703305 0.027718729
0.4209197 67.8266065681 -0.779255650971 4.01249706251 0.030287008
0.4222229 71.751895961 -0.17800159732 4.06412302494 0.031663968
0.423495 75.583510937 0.415680657438 4.08433727605 0.031905783
0.4247408 79.3359092839 0.98089174433 4.07595139507 0.0310894897
0.4259659 83.0259584209 1.49845538637 4.036465072 0.0293964021
0.4271742 86.6654053004 1.9546030014 3.97081798707 0.027066059
0.4283704 90.2684065066 2.33724300755 3.87661710535 0.0242969175
0.429561 93.8545402935 2.63145048008 3.74489680746 0.0212972596
0.4307521 97.4421801001 2.8337516196 3.58138686934 0.0182237143
0.4319489 101.04698853 2.93969211628 3.38586358174 0.01526537158
0.4331568 104.685230594 2.95162943475 3.16231243689 0.012483800486
0.4343814 108.373773711 2.87740966424 2.9171210394 0.00986249339
0.4356295 112.133099748 2.72038539855 2.64935421148 0.00749449033
0.4369119 115.995738727 2.4925453496 2.36467329621 0.0053330913
0.438243 120.005064012 2.20206358303 2.06336648143 0.0034162748
0.4396437 124.22402722 1.86282001698 1.75007181027 0.0016675835
0.4411382 128.725519698 1.486085179 1.42499344763 0.000140945826
0.4427657 133.62761338 1.08586094281 1.08842345778 -0.0011118447
0.4445903 139.123379975 0.679805677528 0.739914791682 -0.00205367
0.4465447 145.010109249 0.333205878936 0.419076651752 -0.0025064118
0.4484982 150.894127687 0.0797517603932 0.142396412714 -0.0023114509
0.4503254 156.397725584 -0.0634016629277 -0.0663667516852 -0.0015517355
0.4520468 161.58264974 -0.117855117773 -0.21453275303 -0.0004090551
0.4536777 166.494984356 -0.122542528344 -0.349442007082 0.0012190195
0.4552246 171.154307685 -0.0859857062017 -0.467110228705 0.0029056356
0.4566995 175.596764196 -0.0197385503973 -0.572174414437 0.0044498626
0.4581153 179.861209195 0.0658517718992 -0.664982978076 0.0054787436
0.4594849 183.986497986 0.162945813427 -0.737561394065 0.0059492887
0.4608174 188.000040125 0.26302112571 -0.798554797898 0.0056660909
0.4621196 191.922317479 0.357827768186 -0.83949642638 0.0046178064
0.4633906 195.750619212 0.444015630707 -0.866475927467 0.00296617671
0.4646356 199.500607928 0.519522152003 -0.882143990191 0.00083976295
0.46586 203.188548637 0.584219608797 -0.888690987128 -0.00155744568
0.4670679 206.826790701 0.639047063477 -0.889475003692 -0.00411385989
0.4682639 210.429189499 0.695988226207 -0.897555159376 -0.0064967233
0.4694546 214.01562449 0.754842126647 -0.910270695004 -0.0085788092
0.4706462 217.604770316 0.814827084265 -0.926206637705 -0.0103236794
0.4718438 221.211988377 0.875381802195 -0.94530003184 -0.0117416218
0.4730529 224.853844888 0.927325416106 -0.959028141516 -0.0128310458
0.4742789 228.54660486 0.963053029246 -0.962918328556 -0.0137768938
0.475529 232.311954976 0.97375746653 -0.95026596463 -0.0145800552
0.4768143 236.183328868 0.954425403904 -0.918378944731 -0.015336156
0.4781491 240.203798697 0.904146772569 -0.867348984098 -0.016137014
0.4795548 244.437822101 0.832354145711 -0.805305441026 -0.016867491
0.4810559 248.959194038 0.747418037191 -0.73938098294 -0.017438487
0.4826936 253.892010519 0.658785122849 -0.679226572803 -0.017834577
0.4845331 259.432656497 0.578739832793 -0.642838926436 -0.018022069
0.4864861 265.315168916 0.512673826205 -0.647359566821 -0.017994441
0.4884392 271.197982539 0.442822697829 -0.685784666604 -0.017978408
0.4902657 276.699472008 0.351374400383 -0.735726678088 -0.017944728
0.4919845 281.876564863 0.234854884577 -0.790626697066 -0.017981051
0.4936114 286.776851322 0.0932987006853 -0.84196382063 -0.018007633
0.4951542 291.42382529 -0.0648500190456 -0.888366099691 -0.01818194
0.4966255 295.855438461 -0.234906954409 -0.931587219211 -0.018374603
0.4980383 300.110847342 -0.408292203445 -0.97023460509 -0.018763586
0.4994057 304.229509647 -0.583069718733 -1.00700122208 -0.019169757
0.5007366 308.238232524 -0.723724285592 -1.0207245472 -0.019733346
0.5020373 312.155991819 -0.736219057951 -0.92981302599 -0.020367046
0.5033074 315.981582717 -0.734547166673 -0.808530345735 -0.021091706
0.5045518 319.729764209 -0.71822008353 -0.662171909182 -0.021921832
0.5057759 323.416801307 -0.684291253547 -0.496027338336 -0.022899068
0.5069837 327.054742167 -0.636624683449 -0.317787031329 -0.023906272
0.50818 330.658044577 -0.572849847975 -0.1343992587 -0.024969517
0.5093712 334.245985587 -0.493804911956 0.0460206268561 -0.026020495
0.5105637 337.837842248 -0.399261326665 0.21318272585 -0.027043519
0.5117626 341.44897596 -0.288778060178 0.352404459205 -0.028061065
0.5129734 345.095952938 -0.166573879803 0.449155179936 -0.029057785
0.5142014 348.794736988 -0.040326674825 0.490091586013 -0.029896374
0.5154543 352.568520813 0.0790779355215 0.467965650035 -0.030523874
0.5167433 356.45103925 0.178825145603 0.378314486932 -0.030915259
0.5180834 0.487472886777 0.241802194286 0.221041066733 -0.030908826
0.5194967 4.7443877878 0.247531887345 0.0265845868521 -0.030321071
0.521008 9.29648252346 0.177822367631 -0.157783512294 -0.029010438
0.5226609 14.2750819998 0.00956689936861 -0.281902017029 -0.026703517
0.5245206 19.876571168 -0.286363980949 -0.255021587779 -0.023384881
0.5264736 25.7590835869 -0.692002535912 0.022926349558 -0.018208895
0.5284198 31.6211141398 -1.13125793048 0.530887705991 -0.009731243
0.5302346 37.0873627511 -1.58579424957 1.27640910873 -0.006735388
0.5319458 42.2415641087 -1.9804505677 2.03267633774 0.000759848
0.5335664 47.1228747211 -2.30687178281 2.77235895538 0.007810988
0.5351036 51.7529812702 -2.57090809725 3.4456438176 0.014296067
0.5365705 56.1713414686 -2.28491918447 3.69632611453 0.020000719
0.5379799 60.416509417 -1.8084397213 3.8411576786 0.024693966
0.5393443 64.5261356046 -1.26151123386 3.94833092841 0.0282643
0.5406728 68.5276295875 -0.672979550822 4.02137305297 0.030591895
0.5419711 72.4381599887 -0.0713635708011 4.0675071794 0.031770064
0.5432388 76.2565219925 0.518387757468 4.08207950549 0.031829166
0.5444812 79.9986794064 1.07606601395 4.06654380204 0.0308200052
0.5457037 83.6808972416 1.58422006442 4.02470387724 0.029010766
0.5469102 87.3149224507 2.02772050005 3.95372489774 0.0266104624
0.5481056 90.9155140255 2.39494323012 3.85233811312 0.0237711879
0.5492966 94.5028526282 2.67393583988 3.71621971305 0.0207381953
0.5504891 98.0947092895 2.85695073234 3.54428199356 0.0176777896
0.5516883 101.706746613 2.94653009794 3.3446185766 0.01475171848
0.5528998 105.355832018 2.94313889526 3.11774607713 0.01198716571
0.554129 109.058230515 2.85255977455 2.86756311008 0.00942356726
0.5553835 112.836833602 2.68114697792 2.59584113035 0.00710201765
0.5566748 116.72627973 2.44002061488 2.30705443547 0.0049792344
0.5580182 120.772653096 2.14060208308 2.00436059291 0.0030721469
0.5594356 125.041917357 1.79366609906 1.68890385896 0.0014085281
0.5609524 129.610578308 1.41126850236 1.36168863229 -0.0001113013
0.5626131 134.61267169 1.00735931484 1.02210922926 -0.0013500281
0.5644827 140.243980045 0.606287678692 0.674631398099 -0.0021925592
0.5664375 146.131914134 0.276553131485 0.36172410579 -0.0025193239
0.5683764 151.971956802 0.0447485769931 0.097642102456 -0.0022052157
0.570183 157.413506692 -0.0785224175537 -0.0969583335808 -0.0013625897
0.5718879 162.548732203 -0.123879389498 -0.244810160583 -0.0001379877
0.5735028 167.412874193 -0.118530704015 -0.373899138161 0.0015258129
0.5750352 172.028522954 -0.0751922581386 -0.487939959613 0.0032036062
0.5764983 176.435437404 -0.00472051643856 -0.591770784924 0.004652369
0.5779048 180.671870439 0.0837672113 -0.679269603487 0.0055759886
0.579267 184.77487014 0.181857440784 -0.750722741462 0.0058763831
0.5805938 188.771243656 0.280721224097 -0.806732989288 0.0053907538
0.5818904 192.676653591 0.374891776045 -0.84586943175 0.00425209287
0.5831565 196.490196332 0.458689076054 -0.869324437702 0.00250462365
0.5843976 200.228438095 0.531957922697 -0.882997446622 0.00030330504
0.5856189 203.907041484 0.593301367805 -0.887187756748 -0.00219543452
0.5868246 207.538657061 0.651025991087 -0.892326170519 -0.00467611928
0.5880195 211.137742617 0.707533458913 -0.89989000321 -0.0069682907
0.5892105 214.725081219 0.767255633601 -0.913990963291 -0.0089867195
0.5904034 218.318142696 0.827551066968 -0.930443545194 -0.0106390321
0.5916034 221.932589651 0.884405033933 -0.946415816413 -0.0120031333
0.592816 225.584988299 0.936276098794 -0.961278756411 -0.0130683104
0.5940468 229.292206059 0.966519621581 -0.960916394585 -0.0139326662
0.5953035 233.077435632 0.970745668061 -0.943871987335 -0.0147230226
0.596598 236.976520285 0.94260137829 -0.905635749133 -0.015459248
0.5979458 241.036146623 0.888639387031 -0.853121938025 -0.01626883
0.5993693 245.323784323 0.813697564334 -0.789863558763 -0.016987613
0.6008942 249.916842791 0.727266361859 -0.724173243735 -0.017545863
0.6025674 254.956586661 0.63890656382 -0.666447590622 -0.017859908
0.6044506 260.628858749 0.562921565491 -0.638674087366 -0.018010559
0.6064047 266.514684411 0.498480937254 -0.651212530631 -0.017993533
0.6083413 272.347799388 0.425608872646 -0.694179670321 -0.017966803
0.6101449 277.780313161 0.329339360926 -0.745798487432 -0.017934909
0.6118455 282.902586904 0.206856227103 -0.799628355359 -0.017925535
0.6134553 287.751367494 0.062065697497 -0.850673987643 -0.018032478
0.6149826 292.351654856 -0.0997615044067 -0.897488874903 -0.018153723
0.6164415 296.745918741 -0.269777563308 -0.93834246138 -0.018446559
0.6178447 300.972412047 -0.445313161471 -0.978150546561 -0.018782647
0.6192043 305.067580447 -0.618132929891 -1.01339781233 -0.019261195
0.6205291 309.057929885 -0.726609554081 -1.00348118912 -0.019844841
0.6218239 312.957918149 -0.737686243139 -0.907148559379 -0.020478605