0.0001292046 0.389169310847 0.333500586714 -0.71973514313 -0.033119433
0.0007609288 2.29194731999 0.246743100564 -0.919361588347 -0.028493369
0.001685274 5.07611123109 0.137861238797 -1.10576443301 -0.026446203
0.002932034 8.83140113557 -0.0558554024173 -1.25556273817 -0.024940837
0.004514687 13.5984138992 -0.405106543614 -1.24490357496 -0.020141146
0.006196203 18.6632058872 -0.840013463561 -0.984932582883 -0.015140067
0.007866899 23.6954076119 -1.3108605788 -0.484535682291 -0.008897376
0.009532322 28.7117268543 -1.77637401957 0.217155812454 -0.00190411
0.01114979 33.5836037602 -2.20444460641 1.03563136185 0.005153128
0.01267475 38.1768429503 -2.56987752572 1.87971002021 0.011635836
0.01411903 42.5270708236 -2.87299035999 2.69427132647 0.017543397
0.01549345 46.6668776432 -3.11677152339 3.44717727471 0.022553527
0.01681006 50.6325584809 -3.30472483147 4.11643617816 0.026569022
0.018081 54.4606794915 -3.12807539261 4.46142853557 0.029542351
0.0193135 58.173017718 -2.59082828653 4.55484044701 0.031429386
0.02050924 61.7746333861 -1.9996018421 4.62819120081 0.032219362
0.02166967 65.2698939526 -1.37611739619 4.67474448452 0.032004393
0.02279976 68.6737692519 -0.74346569849 4.70057802256 0.030892867
0.02390299 71.9967411802 -0.119546511083 4.70536211473 0.0290000626
0.02498309 75.2500446434 0.478231570976 4.68116781015 0.0265839448
0.02604431 78.4464808079 1.03354018825 4.62643225099 0.0238818642
0.02709183 81.6016520363 1.53705325698 4.54788616479 0.020949002
0.02812912 84.7260101044 1.97347461045 4.43418476633 0.0180101841
0.02915873 87.827235712 2.3374065812 4.29484627954 0.0151547467
0.03018325 90.9131300405 2.62375131374 4.13083003162 0.0125051921
0.0312059 93.9933918557 2.83118691116 3.94440766909 0.010064397
0.03223044 97.079346425 2.96249938558 3.74056543398 0.0078427373
0.03326151 100.18496961 3.01692371987 3.5172295963 0.0058654344
0.03430458 103.326737264 3.00544159551 3.28456024376 0.0041074328
0.03536627 106.524589087 2.9262901783 3.03686514965 0.00258645885
0.03645396 109.800753927 2.78673122398 2.77800598149 0.00127490387
0.03757587 113.179990746 2.59014564149 2.50710553207 0.00016071497
0.03874217 116.692931982 2.34597633616 2.2286119 -0.00083374651
0.03996515 120.376595596 2.05797207334 1.9405364888 -0.00167284252
0.04125635 124.26574052 1.73195578569 1.64192487891 -0.00236332025
0.04263834 128.428348476 1.38195845148 1.3382309289 -0.00293783609
0.04413838 132.946527651 1.01769732641 1.0280703172 -0.0033094744
0.04579455 137.934976495 0.651674776309 0.709943088039 -0.00347801319
0.04767492 143.598724512 0.314101206164 0.394929644702 -0.00333148268
0.04956809 149.30102663 0.0661231784883 0.125226267652 -0.00274638061
0.05133957 154.636793706 -0.0879159712658 -0.0945460279586 -0.0017252772659
0.05301117 159.671718314 -0.146746303172 -0.244539564107 -0.00033875579
0.05459282 164.435710003 -0.154227074726 -0.372788454634 0.00140049292
0.05609256 168.952985566 -0.12174563827 -0.488920233935 0.00351928308
0.05752403 173.264629218 -0.0578840934319 -0.591693237749 0.00570396254
0.05889984 177.408622772 0.0292677825882 -0.68332182875 0.007799948
0.06023094 181.417948057 0.131327496181 -0.765185657561 0.009545355
0.06152586 185.318297766 0.240814073867 -0.831106204178 0.0107962852
0.06278761 189.118738137 0.350228677389 -0.881619451758 0.0114434373
0.06401642 192.819961939 0.451859122752 -0.914623816326 0.0114401306
0.06521776 196.438445026 0.53890964068 -0.927103026236 0.0108060835
0.06639595 199.987199407 0.605502512897 -0.918550977588 0.0095694492
0.06755483 203.477791313 0.650330705399 -0.893329660661 0.0078499614
0.06869918 206.92461829 0.671021255081 -0.851374557069 0.0057535751
0.06983514 210.346174259 0.670408074849 -0.798302084721 0.00341109913
0.07096705 213.75553147 0.65229356748 -0.738357571144 0.00098134714
0.07209901 217.165039282 0.626510021876 -0.681686553875 -0.001444981189
0.07323437 220.584788028 0.600460951967 -0.633155476211 -0.00372772038
0.07437748 224.027880077 0.58411460324 -0.600199709203 -0.0057774608
0.07553428 227.512206941 0.5912112457 -0.59313348947 -0.0074762773
0.07671238 231.060690239 0.627792363173 -0.61581394148 -0.0088269166
0.0779215 234.702606991 0.692027117647 -0.665867826412 -0.0097891911
0.07917459 238.476963103 0.782917518258 -0.744381503447 -0.0104100095
0.08048783 242.432493369 0.88903370343 -0.845544391837 -0.0107883765
0.08188399 246.637781919 0.99195259628 -0.959953722064 -0.0109990641
0.08338972 251.173099597 1.05708270471 -1.06504000161 -0.0112585192
0.08503856 256.139470194 1.0551156488 -1.14142310233 -0.0119662959
0.08690431 261.759182199 0.962866899023 -1.17126428977 -0.013425498
0.08885935 267.647839178 0.807289242569 -1.16969742941 -0.015324408
0.09070246 273.199358617 0.635383075671 -1.16868637475 -0.017058596
0.09243607 278.421059771 0.455898774434 -1.17600712294 -0.01861937
0.09407365 283.353514808 0.268169094845 -1.16769777126 -0.020158041
0.09562495 288.026091109 0.0836059272024 -1.12968188595 -0.021445547
0.09710101 292.472041586 -0.0803084810564 -1.07045640176 -0.022571042
0.09851477 296.730342025 -0.219382637467 -1.00300432898 -0.023356011
0.09987902 300.839516406 -0.337392505837 -0.942481697403 -0.023869876
0.1012034 304.828600788 -0.441269451359 -0.894569206896 -0.024153443
0.1024954 308.720155343 -0.495395795408 -0.833935168083 -0.024324128
0.1037546 312.512915014 -0.470057834622 -0.731269997901 -0.024539574
0.1049847 316.218024347 -0.446340796092 -0.627263274283 -0.024792755
0.1061914 319.852651964 -0.422814388354 -0.52050564859 -0.025122689
0.1073786 323.428544818 -0.398768880491 -0.409365629624 -0.025503779
0.1085507 326.958955881 -0.370127948497 -0.292646413659 -0.02598905
0.1097134 330.461053776 -0.335188885564 -0.169964861743 -0.026500686
0.1108726 333.952609534 -0.288499662795 -0.0454475860801 -0.027094961
0.1120328 337.447177332 -0.227154438359 0.0728662255813 -0.027754197
0.1131987 340.958913752 -0.152786228572 0.17554034604 -0.028416827
0.114374 344.498963341 -0.066431231014 0.249630399769 -0.029067987
0.1155648 348.085699535 0.0271599155264 0.281208802431 -0.029636771
0.1167794 351.744122261 0.118751245887 0.261421701634 -0.030118924
0.1180281 355.505255522 0.196447573738 0.182091224282 -0.030349118
0.1193254 359.412773884 0.243406974078 0.0509083712312 -0.030199776
0.1206907 3.52511090673 0.24258214505 -0.110879324402 -0.029559804
0.1221499 7.92027840377 0.171982348661 -0.284920434 -0.02822072
0.1237328 12.6880351411 0.0114729209513 -0.404905919764 -0.026005769
0.125493 17.9898264159 -0.266563902258 -0.401307719058 -0.023148694
0.1274318 23.8295678793 -0.671423273991 -0.159772891219 -0.017439745
0.1293675 29.6599720213 -1.10944751562 0.337167070803 -0.010278861
0.1311819 35.1250158169 -1.567204383 1.05529869358 -0.006624859
0.1328915 40.2743979119 -1.97203333255 1.816663844 0.000705587
0.1345095 45.1478772226 -2.31013579956 2.57546481895 0.007717397
0.1360432 49.7674416347 -2.58370009453 3.27593761695 0.01418985
0.1375053 54.1713440453 -2.57535628641 3.72939792324 0.019941399
0.1389086 58.398138555 -2.12375803251 3.87481414939 0.024670677
0.1402655 62.4851744491 -1.59444351787 3.98763277413 0.028296793
0.1415853 66.4604636916 -1.01445772153 4.06984538996 0.030734546
0.1428737 70.3411749054 -0.409966525993 4.11971672269 0.031982562
0.1441304 74.1264044788 0.191774014378 4.14391693327 0.032089729
0.1453603 77.8309114036 0.770286621674 4.14016727323 0.0311743589
0.1465684 81.4697558753 1.30743020808 4.10967086439 0.0294175933
0.1477587 85.0549860506 1.78566849021 4.04758103066 0.027056463
0.1489357 88.6001561054 2.19493871123 3.95866687523 0.0242512737
0.1501058 92.1245430903 2.52070269468 3.83442337211 0.0212443861
0.1512746 95.6450144242 2.75726826886 3.67842469069 0.0182165094
0.1524468 99.1757266913 2.90072094103 3.49182420428 0.01529837247
0.1536272 102.731137679 2.95075760439 3.27659425582 0.012565344919
0.1548202 106.32450036 2.9124246106 3.03742436346 0.00999247613
0.1560326 109.9762966 2.79353662636 2.77892876305 0.00767997635
0.1572739 113.715140771 2.6030389621 2.50443951213 0.00557371641
0.1585564 117.578080954 2.34782582055 2.21395995842 0.0037185005
0.1598971 121.616321814 2.03778682398 1.90954072871 0.0020136097
0.1613199 125.901851087 1.6851107256 1.59375134397 0.0005327328
0.1628512 130.514186605 1.30110035855 1.26654335627 -0.0007422932
0.1645351 135.586159294 0.902101892492 0.928857416153 -0.001684826
0.1664262 141.282226491 0.516804177659 0.589555080293 -0.0023071792
0.16838 147.167148541 0.209535700901 0.287560212866 -0.0023452343
0.1702577 152.822854414 0.00743025284232 0.0434549220322 -0.0017494417
0.1720217 158.136091438 -0.0918115952674 -0.131983199759 -0.000651517
0.1736899 163.160775113 -0.12354570198 -0.272222468438 0.0009308413
0.1752713 167.924013791 -0.109333047785 -0.397891495614 0.0028694141
0.1767736 172.449000175 -0.0591622345303 -0.510481882305 0.0048565881
0.1782107 176.777601607 0.0160500041945 -0.611146916661 0.0065033163
0.1795953 180.948070985 0.10799250381 -0.700871238727 0.0076129897
0.1809381 184.992637127 0.207705070565 -0.772194379962 0.0079828689
0.1822478 188.937504775 0.308723657059 -0.831279141431 0.0075659769
0.1835262 192.788095597 0.403630526764 -0.872487937054 0.0063836091
0.184775 196.549530061 0.487579303468 -0.897613001145 0.0045174487
0.1860001 200.239579198 0.5557133492 -0.904502558702 0.00211311907
0.1872057 203.870893572 0.612205375341 -0.903607350347 -0.00058722289
0.1883961 207.456424952 0.659512533952 -0.89834701363 -0.00336994348
0.1895765 211.011835939 0.702549044177 -0.893683850112 -0.0060586915
0.1907537 214.557608402 0.748269374805 -0.895681874193 -0.0084411707
0.1919324 218.107898923 0.797958972371 -0.9047838458 -0.0104994572
0.1931178 221.678370107 0.853965668348 -0.921603832874 -0.0120500489
0.1943149 225.284082148 0.912281374998 -0.943366080035 -0.0132256185
0.1955288 228.940396447 0.956753766628 -0.955956162944 -0.0140981374
0.196768 232.672915336 0.978076028346 -0.953553285332 -0.0148313128
0.1980437 236.515373652 0.971665981857 -0.934343909134 -0.0156038282
0.1993709 240.512951984 0.929598358025 -0.891461123728 -0.016352184
0.2007715 244.731613989 0.859977308369 -0.832410228977 -0.017071698
0.2022703 249.246058235 0.776464856357 -0.769449664948 -0.017711767
0.203907 254.175862678 0.688530148808 -0.712528240052 -0.018096115
0.2057454 259.713195412 0.610691344914 -0.683228390708 -0.018341346
0.2076957 265.587575326 0.541649723031 -0.692356856445 -0.018335702
0.2096219 271.389365096 0.465535105285 -0.732544097003 -0.018290541
0.2114218 276.810734324 0.367073492069 -0.783196398841 -0.018248714
0.2131221 281.932104455 0.241870754727 -0.836713477207 -0.018200985
0.2147339 286.786909123 0.0935675007734 -0.887816395504 -0.018275734
0.2162634 291.393822971 -0.0719355956107 -0.934030233464 -0.018405845
0.2177237 295.792303711 -0.245922715924 -0.973933623917 -0.018710168
0.2191272 300.019700629 -0.424288373841 -1.01061883402 -0.019067994
0.2204859 304.112158193 -0.599729458555 -1.04277188986 -0.019560676
0.221809 308.097387165 -0.743105752102 -1.05305205303 -0.020133534
0.2231015 311.990447739 -0.750268313705 -0.95593381512 -0.020780873
0.224363 315.7901351 -0.743408601416 -0.829579227589 -0.021497329
0.2255991 319.513316668 -0.722067411399 -0.68008122028 -0.02232899
0.2268147 323.174751433 -0.685377226588 -0.513350551505 -0.023295292
0.228014 326.78708996 -0.638853756296 -0.336796679589 -0.024293632
0.2292017 330.364488834 -0.573789690976 -0.153882418661 -0.025311133
0.2303845 333.927128716 -0.495513578006 0.0254786216712 -0.026336478
0.2315679 337.491575821 -0.401531002796 0.191744655914 -0.027313963
0.2327571 341.073492753 -0.291808800974 0.330256694168 -0.028282078
0.2339574 344.68884332 -0.170547486624 0.426955128832 -0.029240501
0.2351735 348.351784105 -0.0448247494524 0.467669830926 -0.030028419
0.2364132 352.085809013 0.0740913641154 0.447294831624 -0.030626239
0.2376872 355.923146863 0.174170390524 0.360819697919 -0.030991836
0.2390095 359.905966203 0.239077540171 0.207556451524 -0.030969016
0.2404009 4.09691744747 0.248834776475 0.0161884118439 -0.030376016
0.2418858 8.56949435013 0.186678779028 -0.167646365669 -0.029109044
0.2435014 13.4357447669 0.0309189041479 -0.29945200252 -0.026904629
0.2453079 18.8769934535 -0.242130051681 -0.293417940873 -0.023757923
0.247257 24.7477589198 -0.64009294626 -0.0558430618186 -0.018412116
0.2492049 30.6149099392 -1.06788041395 0.418389135126 -0.009829486
0.2510313 36.1160982044 -1.53081910424 1.15116243508 -0.007571615
0.2527517 41.298010322 -1.9333855435 1.90502492798 -0.000206921
0.2543814 46.2067304905 -2.27081104121 2.65315989671 0.006922677
0.255927 50.8621381683 -2.54360213216 3.3410026649 0.013454978
0.2574003 55.299775417 -2.38667450388 3.68351641542 0.019308724
0.2588144 59.5590999494 -1.9255526161 3.83344343641 0.024180788
0.2601822 63.67896707 -1.3871829053 3.94348961449 0.027874122
0.2615129 67.687087539 -0.804640341031 4.02511119581 0.030403091
0.2628131 71.6033408145 -0.202496299059 4.07650493402 0.031750278
0.2640822 75.4259196731 0.392709681298 4.09706787728 0.031950318
0.2653252 79.1698843105 0.959312536891 4.08611271098 0.0310822096
0.2665472 82.8505961261 1.4800935191 4.05045824694 0.0293807908
0.2677522 86.4801032766 1.93964530893 3.9864681708 0.0270386744
0.2689449 90.0725623457 2.32575710921 3.89291067817 0.0242468516
0.2701316 93.6469491801 2.6241787271 3.76247681205 0.0212424714
0.2713185 97.2219384223 2.82902410655 3.59766953162 0.0181763855
0.2725108 100.813192676 2.94074458322 3.40462271581 0.01523144936
0.2737137 104.436374544 2.95933076728 3.18407381113 0.012445967439
0.2749324 108.107146631 2.8892356127 2.93913465959 0.00984248522
0.2761738 111.846292005 2.73738832025 2.67277168853 0.00751025759
0.2774487 115.686340691 2.51328338268 2.38830376868 0.0053521417
0.278771 119.669160031 2.23005505194 2.09091850554 0.0034362897
0.2801612 123.856496828 1.89434298257 1.77848440175 0.0017173997
0.2816435 128.321242429 1.52030520051 1.45437794969 0.00020040642
0.2832543 133.173035058 1.12208014035 1.11943258707 -0.0010770467
0.2850535 138.592295859 0.716115203859 0.772125547286 -0.0020009405
0.2870031 144.464567345 0.361826368071 0.447431744595 -0.002491029
0.2889572 150.350393007 0.0991804382565 0.166304490307 -0.0023472838
0.2907916 155.875677585 -0.0534596744919 -0.0485341496428 -0.001618799
0.2925195 161.080179996 -0.112832783999 -0.197624610859 -0.0004801672
0.2941564 166.010586847 -0.121957625122 -0.333731554879 0.0011622711
0.2957089 170.686777594 -0.0883034862293 -0.451323302376 0.0029273482
0.2971879 175.141583466 -0.0245466873785 -0.555690739406 0.0045681161
0.2986065 179.414462175 0.0590370583973 -0.647203119302 0.0057145541
0.2999782 183.546076248 0.154608165967 -0.723030093048 0.0062777686
0.3013118 187.56293163 0.253470252988 -0.784389226321 0.0061058547
0.3026149 191.487919819 0.348313780288 -0.828498042329 0.0051496213
0.3038868 195.318932387 0.435094322297 -0.858276484743 0.00357008625
0.305132 199.069523511 0.510540736796 -0.874806143989 0.00147637914
0.3063562 202.756861813 0.573193292654 -0.879666298785 -0.000966655454
0.3075632 206.392393041 0.629070248694 -0.882965715053 -0.00355614909
0.3087578 209.990574985 0.681723091113 -0.88646963931 -0.0060150742
0.3099461 213.569781082 0.737489461603 -0.896893646566 -0.0082109713
0.3111346 217.149589587 0.796475945117 -0.912754289968 -0.010064029
0.3123281 220.744458287 0.856205878986 -0.931223633868 -0.0115365667
0.3135322 224.371254602 0.912736363694 -0.949937503914 -0.0127412484
0.3147522 228.04594234 0.955962801081 -0.959980169383 -0.0136508316
0.3159946 231.788099754 0.973402517666 -0.952423326297 -0.0144246233
0.31727 235.629654459 0.962264705474 -0.926890498941 -0.015179317
0.3185923 239.612473799 0.921301001775 -0.883170599557 -0.015952806
0.3199815 243.796798557 0.853808061664 -0.824052270606 -0.016704438
0.3214617 248.255218876 0.770827048776 -0.759110468023 -0.017358108
0.3230684 253.094662144 0.681423486001 -0.697031529877 -0.01779968
0.3248622 258.497657934 0.596749556682 -0.653125216249 -0.018018761
0.3268131 264.373845071 0.527478814789 -0.649996658354 -0.018048221
0.3287712 270.271718889 0.459647322782 -0.685294845392 -0.018045802
0.3306095 275.80875042 0.371850395639 -0.735105323576 -0.018004768
0.3323401 281.021385337 0.258993398725 -0.79229129066 -0.018034472
0.3339793 285.958719877 0.119339364196 -0.846012542062 -0.018055596
0.3355339 290.641235907 -0.0397632175326 -0.895228981784 -0.018142762
0.3370149 295.102065857 -0.209508901148 -0.938447446658 -0.018407037
0.3384353 299.380366236 -0.383526412682 -0.975726627493 -0.01878196
0.3398085 303.516498368 -0.558456722663 -1.01078793251 -0.019193185
0.3411436 307.537871809 -0.723425807836 -1.03911052846 -0.019745168
0.3424481 311.467076853 -0.733972941951 -0.949246389058 -0.020349961
0.3437212 315.301703868 -0.731304553936 -0.830493501826 -0.021056199
0.3449676 319.055909438 -0.71430334833 -0.686820509599 -0.021851308
0.3461928 322.746259779 -0.682936082817 -0.524870660428 -0.022783748
0.3474009 326.385104251 -0.638079104176 -0.350212181418 -0.023769175
0.3485966 329.986599437 -0.580280264533 -0.168969444736 -0.024781787
0.349786 333.569118777 -0.506530739475 0.0115711827459 -0.025831997
0.3509755 337.151939321 -0.41682276219 0.181960630922 -0.026842511
0.3521704 340.751024877 -0.310564884568 0.327834641894 -0.027832457
0.3533759 344.382038047 -0.190098320666 0.4328228415 -0.028860749
0.3545974 348.061243843 -0.0638590549129 0.483675307239 -0.02971038
0.3558416 351.808822927 0.0579675364916 0.472721084004 -0.030413849
0.3571191 355.656702914 0.1625463125 0.393345189572 -0.030846892
0.3584438 359.646751148 0.233531471858 0.245788604351 -0.030910773
0.3598358 3.839509616 0.251012486412 0.0553103064711 -0.03044754
0.3613193 8.30786966388 0.197273071975 -0.132761355226 -0.029292018
0.362931 13.1623731281 0.051717135387 -0.272110115966 -0.027216801
0.3647319 18.5867543955 -0.21100899608 -0.282505520253 -0.024091153
0.3666832 24.4641463479 -0.600505374549 -0.0629644671096 -0.019431198
0.3686417 30.3632249821 -1.03538707596 0.386715302631 -0.010007153
0.3704835 35.9107986499 -1.4942207912 1.11396465809 -0.008142244
0.3722152 41.1267468096 -1.90032969962 1.86591118445 -0.000844652
0.3738542 46.063478942 -2.24280320155 2.61493466966 0.006365979
0.3754081 50.7438865446 -2.51956658343 3.30611216441 0.012942013
0.3768883 55.2023068633 -2.38105584632 3.66180073899 0.018870005
0.3783082 59.4791012226 -1.9244252047 3.81490332638 0.023822229
0.3796811 63.6143297428 -1.38976336194 3.92961795207 0.027594976
0.3810161 67.63540198 -0.808517185613 4.0104063137 0.030231683
0.3823207 71.5649082277 -0.207423698555 4.06307127428 0.031666019
0.3835942 75.4007400585 0.387467797816 4.08474886527 0.03194313
0.3848413 79.1570540563 0.954074081878 4.07452027304 0.0311412046
0.3860674 82.8501152324 1.47509140476 4.03935849254 0.0294905456
0.3872764 86.4916705393 1.93476221176 3.97538885062 0.0271780166
0.3884731 90.096177765 2.32165627192 3.883072898 0.0244039064
0.3896636 93.6820103481 2.62035576668 3.75313212869 0.0214014604
0.3908545 97.2690477468 2.82538320154 3.58882233298 0.0183287797
0.3920508 100.872350157 2.93648927159 3.39554650733 0.01536741929
0.3932581 104.508784997 2.95378189152 3.17430334928 0.012570626796
0.3944817 108.194316076 2.88307456564 2.92960141449 0.00994583334
0.3957283 111.949124054 2.73003512646 2.66308342278 0.00756311465
0.397009 115.806642566 2.50338485682 2.37725548951 0.0054055767
0.3983378 119.809040161 2.21744956505 2.07840747996 0.0034817132
0.3997355 124.018967251 1.8793368491 1.76479445952 0.0017304738
0.4012265 128.509917593 1.50292247455 1.43918615334 0.00020292104
0.4028491 133.397252284 1.10160799929 1.10153055749 -0.0010845153
0.4046661 138.870127381 0.695773427942 0.753834738082 -0.0020182596
0.4066189 144.752037392 0.345422163888 0.431036799737 -0.0025046237
0.4085746 150.642682317 0.088017033705 0.152708627825 -0.0023471542
0.4104076 156.16375004 -0.0595113201243 -0.058974937187 -0.0016090908
0.4121341 161.364035596 -0.115810689102 -0.207250007493 -0.0004667158
0.4137691 166.288719572 -0.121954354099 -0.341699140098 0.0011708793
0.4153197 170.959187446 -0.0866949478013 -0.459988874792 0.0028943542
0.4167972 175.409475259 -0.0213276696938 -0.562785846215 0.0044681119
0.4182149 179.679643132 0.0630733615541 -0.653752170412 0.0055270733
0.4195861 183.809751186 0.158560817144 -0.725716908536 0.0059981351
0.4209197 187.826606568 0.256436816671 -0.785644125535 0.0056784106
0.4222229 191.751895961 0.351236866278 -0.829285464285 0.0046880195
0.423495 195.583510937 0.437187932095 -0.857979119328 0.00304796239
0.4247408 199.335909284 0.511925582358 -0.873918847003 0.00091616922
0.4259659 203.025958421 0.574008576461 -0.878464319122 -0.00154836041
0.4271742 206.6654053 0.631307180916 -0.883120596126 -0.0040704527
0.4283704 210.268406507 0.686821946253 -0.889769378275 -0.0064604978
0.429561 213.854540294 0.744685012573 -0.901808554757 -0.0085607981
0.4307521 217.4421801 0.806055487214 -0.919630022423 -0.0103276224
0.4319489 221.04698853 0.865369820225 -0.93772886133 -0.0117834181
0.4331568 224.685230594 0.921309604455 -0.955431197084 -0.0128855599
0.4343814 228.373773711 0.958539316842 -0.959962233861 -0.0137566629
0.4356295 232.133099748 0.972567771043 -0.949983842902 -0.0145400335
0.4369119 235.995738727 0.953360236354 -0.91772693046 -0.015280437
0.438243 240.005064012 0.908458467449 -0.871290485679 -0.016082168
0.4396437 244.22402722 0.837506337273 -0.809634893827 -0.016812456
0.4411382 248.725519698 0.753127782214 -0.743913505757 -0.017433214
0.4427657 253.62761338 0.665553163213 -0.684349280791 -0.017840679
0.4445903 259.123379975 0.583703922088 -0.645037173573 -0.018036392
0.4465447 265.010109249 0.517383080824 -0.647898411514 -0.018040126
0.4484982 270.894127687 0.448743348649 -0.686223988524 -0.018012455
0.4503254 276.397725584 0.359032582129 -0.737085086626 -0.017985123
0.4520468 281.58264974 0.242909493562 -0.792559994347 -0.017961491
0.4536777 286.494984356 0.102174300395 -0.845981183616 -0.018030567
0.4552246 291.154307685 -0.0575775938819 -0.894720675323 -0.018135681
0.4566995 295.596764196 -0.227400709667 -0.937067593535 -0.018400569
0.4581153 299.861209195 -0.402551519048 -0.97592517327 -0.018733334
0.4594849 303.986497986 -0.576156539031 -1.01023445008 -0.019177958
0.4608174 308.000040125 -0.723042021831 -1.02658486312 -0.019746078
0.4621196 311.922317479 -0.733293706537 -0.934694479925 -0.020366329
0.4633906 315.750619212 -0.730154328577 -0.813441985187 -0.021065141
0.4646356 319.500607928 -0.712731343785 -0.667921499807 -0.021876041
0.46586 323.188548637 -0.679550751061 -0.503805787644 -0.022825357
0.4670679 326.826790701 -0.636634129028 -0.328657414873 -0.023814916
0.4682639 330.429189499 -0.57457817948 -0.145812448544 -0.024851542
0.4694546 334.01562449 -0.498825393492 0.0349197662892 -0.025901138
0.4706462 337.604770316 -0.406547493904 0.203666490319 -0.026932475
0.4718438 341.211988377 -0.298148314669 0.346257810983 -0.027931111
0.4730529 344.853844888 -0.175765243799 0.44560504874 -0.028963692
0.4742789 348.54660486 -0.0490806128151 0.489565247408 -0.029797454
0.475529 352.311954976 0.0719641597072 0.469647189084 -0.030466289
0.4768143 356.183328868 0.173706942538 0.382114312033 -0.030875891
0.4781491 0.203798697443 0.238972506128 0.224699803773 -0.030855689
0.4795548 4.43782210108 0.248295224069 0.0311714566353 -0.030321674
0.4810559 8.95919403763 0.183416522782 -0.154313718259 -0.029066031
0.4826936 13.8920105192 0.0226019377808 -0.282704275099 -0.026829467
0.4845331 19.432656497 -0.260269024432 -0.266254661541 -0.023585448
0.4864861 25.3151689159 -0.660757654927 -0.00756259888758 -0.018688184
0.4884392 31.1979825388 -1.0983447958 0.483058600551 -0.009987402
0.4902657 36.6994720079 -1.55509998453 1.22263756682 -0.007248751
0.4919845 41.8765648628 -1.95503255384 1.97846964977 0.000237709
0.4936114 46.7768513218 -2.28525151939 2.72046253217 0.007321316
0.4951542 51.42382529 -2.55448777684 3.40038501577 0.013869009
0.4966255 55.8554384605 -2.31686854355 3.68504598291 0.019641561
0.4980383 60.110847342 -1.84670051333 3.83240626974 0.024425695
0.4994057 64.229509647 -1.30243635092 3.93877335529 0.028056158
0.5007366 68.2382325238 -0.71719710875 4.01718981517 0.030496535
0.5020373 72.1559918189 -0.115479033207 4.06528180071 0.031752896
0.5033074 75.9815827166 0.475928415106 4.0787769447 0.031856323
0.5045518 79.7297642088 1.03697795463 4.0679384767 0.0309219821
0.5057759 83.4168013066 1.54937554875 4.02821998229 0.0291574755
0.5069837 87.0547421666 1.99794899223 3.95906903862 0.0267788038
0.50818 90.6580445766 2.37153149606 3.86069433213 0.0239563399
0.5093712 94.2459855871 2.65423770886 3.72305537724 0.0209221854
0.5105637 97.8378422484 2.84634598369 3.5566112445 0.0178667694
0.5117626 101.44897596 2.94248827996 3.35882654283 0.01494321216
0.5129734 105.095952938 2.9459838498 3.13422148276 0.01215097911
0.5142014 108.794736988 2.85996039796 2.88419909608 0.00957089001
0.5154543 112.568520813 2.69226937169 2.61233591208 0.00720564055
0.5167433 116.45103925 2.45735581338 2.326284106 0.0050978749
0.5180834 120.487472887 2.16220205895 2.02499324916 0.0032038412
0.5194967 124.744387788 1.81500412543 1.7076070935 0.0014747161
0.521008 129.296482523 1.43491486649 1.38138672377 -2.24075e-05
0.5226609 134.275082 1.03092870683 1.04159340642 -0.0012632612
0.5245206 139.876571168 0.627761821169 0.693605296885 -0.0021664512
0.5264736 145.759083587 0.29285689658 0.378460541817 -0.0025541736
0.5284198 151.62111414 0.0543958889056 0.110814309033 -0.0023002541
0.5302346 157.087362751 -0.0748676697048 -0.0886790885641 -0.0014482826
0.5319458 162.241564109 -0.122239705763 -0.235632357437 -0.0002438407
0.5335664 167.122874721 -0.118940531509 -0.363709957595 0.0014124326
0.5351036 171.75298127 -0.0774152663791 -0.479105818693 0.0031409345
0.5365705 176.171341469 -0.00838826263917 -0.579356345391 0.0045966691
0.5379799 180.416509417 0.0787788401068 -0.667457242498 0.0055781697
0.5393443 184.526135605 0.175239429674 -0.738329054482 0.0058922623
0.5406728 188.527629587 0.272780888085 -0.794367684094 0.0054339318
0.5419711 192.438159989 0.366163012934 -0.835186182971 0.00429965265
0.5432388 196.256521992 0.449605356549 -0.859829465688 0.00256543161
0.5444812 199.998679406 0.520883613174 -0.872637845302 0.00030002179
0.5457037 203.680897242 0.584053607524 -0.879727192918 -0.00213557199
0.5469102 207.314922451 0.64094195217 -0.884400601889 -0.00463450709
0.5481056 210.915514026 0.697388849555 -0.892378912355 -0.0069450743
0.5492966 214.502852628 0.757163424087 -0.906756383973 -0.0089717179
0.5504891 218.09470929 0.815664140281 -0.921952240478 -0.0107006553
0.5516883 221.706746613 0.877721498429 -0.942918464296 -0.012031071
0.5528998 225.355832018 0.929775539146 -0.95736518433 -0.0130648715
0.554129 229.058230515 0.961526075458 -0.95786705306 -0.0139040689
0.5553835 232.836833602 0.967731953537 -0.942052031268 -0.0146690798
0.5566748 236.72627973 0.944712938277 -0.908176867138 -0.01544339
0.5580182 240.772653096 0.891982072706 -0.856069166422 -0.016211979
0.5594356 245.041917357 0.818000373754 -0.793162426305 -0.01693766
0.5609524 249.610578308 0.732411097698 -0.727718835052 -0.017494728
0.5626131 254.61267169 0.644204918809 -0.669370334058 -0.017839692
0.5644827 260.243980045 0.567662131692 -0.639495072304 -0.018021137
0.5664375 266.131914134 0.503794122825 -0.650870091657 -0.01800834
0.5683764 271.971956802 0.432657629536 -0.693925130616 -0.017975269
0.570183 277.413506692 0.338444291829 -0.746639488858 -0.017954907
0.5718879 282.548732203 0.217236026189 -0.801954279095 -0.017942867
0.5735028 287.412874193 0.0724091905118 -0.854320127319 -0.018020329
0.5750352 292.028522954 -0.0896917998078 -0.90237297255 -0.01816349
0.5764983 296.435437404 -0.260838390107 -0.943773980629 -0.018441644
0.5779048 300.671870439 -0.436729108949 -0.982612241535 -0.018781556
0.579267 304.77487014 -0.609007528335 -1.01577369727 -0.019257559
0.5805938 308.771243656 -0.727162596028 -1.01175059429 -0.019811822
0.5818904 312.676653591 -0.734559530339 -0.913395965904 -0.020458832
0.5831565 316.490196332 -0.727886043826 -0.78625456437 -0.021185293
0.5843976 320.228438095 -0.707444406448 -0.636531666203 -0.022020619
0.5856189 323.907041484 -0.672690424019 -0.469982330873 -0.02297613
0.5868246 327.538657061 -0.624604943521 -0.292350586023 -0.023995663
0.5880195 331.137742617 -0.561618785126 -0.109491238152 -0.025036633
0.5892105 334.725081219 -0.482704931858 0.070183693285 -0.026075836
0.5904034 338.318142696 -0.387367672232 0.235436991312 -0.027098766
0.5916034 341.932589651 -0.276899438216 0.372502132018 -0.028127847
0.592816 345.584988299 -0.151732288456 0.460813678987 -0.02910755
0.5940468 349.292206059 -0.0248064645336 0.492856817406 -0.02994022
0.5953035 353.077435632 0.0937570424242 0.459717632171 -0.030565021
0.596598 356.976520285 0.190347833575 0.357484414806 -0.030922559
0.5979458 1.03614662285 0.246028659846 0.190750500413 -0.030814998
0.5993693 5.32378432298 0.242307464506 -0.00616246425576 -0.030167592
0.6008942 9.9168427908 0.15984822389 -0.184396412396 -0.028683524
0.6025674 14.9565866614 -0.0214041690999 -0.290097800456 -0.026244518
0.6044506 20.6288587492 -0.334143667128 -0.234776503264 -0.022831475
0.6064047 26.5146844112 -0.749233197382 0.075412524895 -0.017120212
0.6083413 32.3477993884 -1.19153479302 0.6262273294 -0.01003007
0.6101449 37.7803131615 -1.6382418925 1.37291674723 -0.005787659
0.6118455 42.9025869042 -2.02491294132 2.13158041405 0.00165633
0.6134553 47.7513674941 -2.3446826213 2.86610009633 0.008674034
0.6149826 52.3516548558 -2.59788070153 3.52404433823 0.015088196
0.6164415 56.7459187411 -2.22531309611 3.71600757205 0.020679746
0.6178447 60.972412047 -1.73684930028 3.85353497422 0.025221262
0.6192043 65.0675804467 -1.18341338584 3.95658958552 0.028635893
0.6205291 69.0579298849 -0.592815845504 4.02910381165 0.030850207
0.6218239 72.9579181491 0.00901077134133 4.06642327741 0.031858083
0.6230886 76.7672440355 0.595912122845 4.07901387972 0.031735929