0.0001292046 -239.610830689 5.09039359963 4.73147153292 0.009833463
0.0007609288 -237.70805268 3.44858795857 3.17581946645 0.0223815751
0.001685274 -234.923888769 2.82584011354 2.58863506356 0.0256305134
0.002932034 -231.168598864 2.40680754197 2.21500777039 0.0255004151
0.004514687 -226.401586101 2.00299227706 1.88589437941 0.0235200798
0.006196203 -221.336794113 1.60863222826 1.5847470943 0.0204629046
0.007866899 -216.304592388 1.24042367167 1.31027177811 0.0167457304
0.009532322 -211.288273146 0.898244505664 1.04705864653 0.012814407
0.01114979 -206.41639624 0.605302140578 0.804377593555 0.0091290235
0.01267475 -201.82315705 0.377728150465 0.59558267992 0.0058992968
0.01411903 -197.472929176 0.208782721436 0.417052836414 0.0031376655
0.01549345 -193.333122357 0.0931312046757 0.272614730486 0.0008303676
0.01681006 -189.367441519 0.0180816963303 0.153218011517 -0.0010768857
0.018081 -185.539320509 -0.0256680254162 0.054967450813 -0.002666241
0.0193135 -181.826982282 -0.0441097219096 -0.0304055515181 -0.0038638973
0.02050924 -178.225366614 -0.0431764253001 -0.108416212516 -0.0048852522
0.02166967 -174.730106047 -0.0247110638159 -0.182510044091 -0.0057082029
0.02279976 -171.326230748 0.0101403067585 -0.252453177284 -0.0062279558
0.02390299 -168.00325882 0.0632915069945 -0.331265159011 -0.0065537036
0.02498309 -164.749955357 0.131331509507 -0.409147279211 -0.0066688867
0.02604431 -161.553519192 0.214655483722 -0.491118550329 -0.006637389
0.02709183 -158.398347964 0.312134945769 -0.575870653919 -0.0064591858
0.02812912 -155.273989896 0.422550106998 -0.663693215154 -0.0061864574
0.02915873 -152.172764288 0.545348313127 -0.755738991424 -0.0058627847
0.03018325 -149.08686996 0.679708562257 -0.852375810954 -0.0055004503
0.0312059 -146.006608144 0.820571389119 -0.949090629004 -0.0051124032
0.03223044 -142.920653575 0.96956566776 -1.05055153459 -0.0047696086
0.03326151 -139.81503039 1.1235078932 -1.15532018719 -0.0045105085
0.03430458 -136.673262736 1.28246606863 -1.26542298309 -0.0043271538
0.03536627 -133.475410913 1.44471900583 -1.38152721672 -0.0042594209
0.03645396 -130.199246073 1.60374733709 -1.49976877605 -0.0042764327
0.03757587 -126.820009254 1.75509582146 -1.61973024761 -0.0044300468
0.03874217 -123.307068018 1.88916943788 -1.73711349511 -0.0047992999
0.03996515 -119.623404404 1.99312608127 -1.8455810337 -0.0054746888
0.04125635 -115.73425948 2.04842439346 -1.93409860883 -0.0066426678
0.04263834 -111.571651524 2.04205481929 -1.9962490546 -0.0084592694
0.04413838 -107.053472349 1.95590595697 -2.01906533351 -0.0110234885
0.04579455 -102.065023505 1.78692399851 -2.00292923309 -0.0142174207
0.04767492 -96.4012754879 1.54379506923 -1.96893961041 -0.017645695
0.04956809 -90.6989733701 1.26221547386 -1.93897955042 -0.020569742
0.05133957 -85.3632062938 0.959437690724 -1.90006186102 -0.022963218
0.05301117 -80.3282816858 0.648703409304 -1.84019424811 -0.025213887
0.05459282 -75.5642899974 0.34818745071 -1.74593218658 -0.027178224
0.05609256 -71.0470144341 0.0816091781602 -1.62803430291 -0.028746099
0.05752403 -66.7353707821 -0.141878708611 -1.49344460904 -0.029522424
0.05889984 -62.591377228 -0.315410449427 -1.35249319329 -0.029756455
0.06023094 -58.5820519434 -0.439590224882 -1.21408113818 -0.029670061
0.06152586 -54.6817022345 -0.515338828844 -1.08019689314 -0.029594308
0.06278761 -50.8812618634 -0.498995365465 -0.9254589035 -0.029469105
0.06401642 -47.1800380613 -0.414806170368 -0.755352367822 -0.029220503
0.06521776 -43.5615549741 -0.350815945001 -0.617008917613 -0.029033235
0.06639595 -40.0128005927 -0.306190175509 -0.501917690961 -0.028826223
0.06755483 -36.5222086869 -0.277104045289 -0.399404089471 -0.028621681
0.06869918 -33.0753817096 -0.253207401715 -0.298966212647 -0.02849878
0.06983514 -29.6538257406 -0.227020702363 -0.19639869121 -0.028485267
0.07096705 -26.2444685301 -0.191831281635 -0.0933811397077 -0.028615478
0.07209901 -22.8349607176 -0.144342516729 0.00430898337235 -0.028843895
0.07323437 -19.4152119721 -0.0848071583175 0.088485679782 -0.029153001
0.07437748 -15.9721199234 -0.0138688450523 0.148107769233 -0.029512549
0.07553428 -12.487793059 0.0639855179989 0.17280518634 -0.029916857
0.07671238 -8.93930976107 0.140406479888 0.154183117985 -0.030186657
0.0779215 -5.29739300941 0.205878884881 0.0846461465567 -0.030284655
0.07917459 -1.52303689725 0.245854397053 -0.0287560624952 -0.030078391
0.08048783 2.43249336852 0.24534015296 -0.172315680215 -0.029438376
0.08188399 6.63778191887 0.18475543862 -0.332135945689 -0.028181012
0.08338972 11.1730995966 0.0460242015603 -0.453456699181 -0.026219847
0.08503856 16.139470194 -0.195955492335 -0.483471338581 -0.023707196
0.08690431 21.759182199 -0.564148479785 -0.30500899571 -0.019614061
0.08885935 27.6478391777 -1.00850860216 0.120617439863 -0.010658845
0.09070246 33.1993586168 -1.46461051879 0.807742948694 -0.00810529
0.09243607 38.4210597712 -1.87994650546 1.55949912924 -0.00103401
0.09407365 43.3535148081 -2.23677946765 2.32779569107 0.006123408
0.09562495 48.0260911089 -2.52598098534 3.05178762692 0.012673144
0.09710101 52.4720415857 -2.75726115349 3.69725671742 0.018645576
0.09851477 56.7303420247 -2.34362577923 3.85501179656 0.023675082
0.09987902 60.8395164064 -1.8392738264 3.97921397454 0.027608032
0.1012034 64.8286007881 -1.27365473042 4.07022489896 0.030413922
0.1024954 68.7201553428 -0.674114727846 4.13307420052 0.032012071
0.1037546 72.512915014 -0.0674228796802 4.16821571477 0.032445261
0.1049847 76.2180243466 0.524375029859 4.17675517774 0.031806846
0.1061914 79.8526519636 1.08261467008 4.15855103746 0.0302405263
0.1073786 83.4285448175 1.5886945532 4.10982580435 0.028047476
0.1085507 86.9589558806 2.03069089362 4.03262188272 0.0253041361
0.1097134 90.4610537759 2.39391283297 3.92135861346 0.0223331541
0.1108726 93.9526095343 2.67125416357 3.77830531335 0.0192791729
0.1120328 97.4471773317 2.85578145879 3.6024679363 0.01632214561
0.1131987 100.958913752 2.94843956965 3.39889563192 0.01350125737
0.114374 104.498963341 2.95194376943 3.17101587833 0.01091221949
0.1155648 108.085699535 2.86809016481 2.91805655667 0.00853155562
0.1167794 111.744122261 2.71259411313 2.65154745335 0.00636000184
0.1180281 115.505255522 2.48954943256 2.36918473551 0.0044483992
0.1193254 119.412773884 2.20929398606 2.07401011441 0.0027017278
0.1206907 123.525110907 1.87818441409 1.76412439065 0.00116981
0.1221499 127.920278404 1.51161517863 1.4447394514 -0.0001729983
0.1237328 132.688035141 1.12034858594 1.11364496943 -0.0012143894
0.125493 137.989826416 0.72416321028 0.773906473742 -0.0019372669
0.1274318 143.829567879 0.368753368657 0.447988575788 -0.0022181717
0.1293675 149.659972021 0.107469051584 0.169782541642 -0.0018657931
0.1311819 155.125015817 -0.0491592911255 -0.0479056642507 -0.0009423198
0.1328915 160.274397912 -0.108700912792 -0.194508373927 0.0004315357
0.1345095 165.147877223 -0.119425171644 -0.330163186918 0.0023821133
0.1360432 169.767441635 -0.0874383636371 -0.45020740826 0.0045702651
0.1375053 174.171344045 -0.0240032705052 -0.559324106395 0.0067066039
0.1389086 178.398138555 0.0604430007203 -0.658790762185 0.0083623902
0.1402655 182.485174449 0.159364148673 -0.744733514249 0.0094471854
0.1415853 186.460463692 0.264316016752 -0.8183692753 0.0097394311
0.1428737 190.341174905 0.367219376773 -0.875010604069 0.0091416224
0.1441304 194.126404479 0.4624254088 -0.914134544177 0.0077812519
0.1453603 197.830911404 0.544948653288 -0.936766690776 0.0057143565
0.1465684 201.469755875 0.61173532036 -0.943086159979 0.00311840854
0.1477587 205.054986051 0.663648025853 -0.938245137866 0.00017741756
0.1489357 208.600156105 0.705383497752 -0.928287094102 -0.002835504772
0.1501058 212.12454309 0.743064312922 -0.919597476771 -0.00571997039
0.1512746 215.645014424 0.784098191289 -0.918746604626 -0.0083431846
0.1524468 219.175726691 0.831472093414 -0.926546060997 -0.0105188851
0.1536272 222.731137679 0.887420656311 -0.944655944246 -0.0122236149
0.1548202 226.32450036 0.949412450343 -0.97134750539 -0.0135514346
0.1560326 229.9762966 1.00575803302 -0.996276360878 -0.0145011889
0.1572739 233.715140771 1.03963001924 -1.00694442155 -0.0152867416
0.1585564 237.578080954 1.04220833351 -0.9980899565 -0.0161077983
0.1598971 241.616321814 0.999578255912 -0.957886783699 -0.016945738
0.1613199 245.901851087 0.926548537933 -0.900152299673 -0.017867538
0.1628512 250.514186605 0.830286134503 -0.8304162537 -0.018648625
0.1645351 255.586159294 0.729338654712 -0.767727395981 -0.019188247
0.1664262 261.282226491 0.632684624103 -0.728635652321 -0.019447103
0.16838 267.167148541 0.544661822715 -0.726241502992 -0.019474648
0.1702577 272.822854414 0.451226533756 -0.748917033662 -0.019406626
0.1720217 278.136091438 0.341336502567 -0.782115497037 -0.019298208
0.1736899 283.160775113 0.21274439885 -0.818963079363 -0.019249966
0.1752713 287.924013791 0.0671409271812 -0.857417017256 -0.019211234
0.1767736 292.449000175 -0.089703283893 -0.892578308203 -0.019305902
0.1782107 296.777601607 -0.254964012556 -0.928789191419 -0.019478714
0.1795953 300.948070985 -0.42307165384 -0.962101765138 -0.019762679
0.1809381 304.992637127 -0.59193031878 -0.996304919575 -0.02012794
0.1822478 308.937504775 -0.70191219583 -0.989346370661 -0.020586824
0.1835262 312.788095597 -0.710949386976 -0.895673328083 -0.021149828
0.184775 316.549530061 -0.706251860544 -0.774234876821 -0.021817914
0.1860001 320.239579198 -0.687158957599 -0.630804500695 -0.022649397
0.1872057 323.870893572 -0.654208298985 -0.470287093699 -0.023563504
0.1883961 327.456424952 -0.607825812417 -0.298446611029 -0.024531437
0.1895765 331.011835939 -0.545655420448 -0.121405276742 -0.025521134
0.1907537 334.557608402 -0.46736149513 0.0520009674374 -0.026515778
0.1919324 338.107898923 -0.373244561863 0.210771362481 -0.027457347
0.1931178 341.678370107 -0.263405962047 0.339750053037 -0.028465158
0.1943149 345.284082148 -0.143327399653 0.426187530586 -0.029397714
0.1955288 348.940396447 -0.02017605843 0.457559288696 -0.030190464
0.196768 352.672915336 0.0944605256715 0.42871828786 -0.03075382
0.1980437 356.515373652 0.18904087163 0.328468419392 -0.031012238
0.1993709 0.512951984492 0.245205260143 0.168508529315 -0.030886406
0.2007715 4.73161398857 0.24526920246 -0.0207573492371 -0.030241883
0.2022703 9.24605823512 0.167390372384 -0.206413162353 -0.02876494
0.203907 14.1758626776 -0.00679804981605 -0.323733106323 -0.02639683
0.2057454 19.7131954123 -0.309193316525 -0.290772297598 -0.023172428
0.2076957 25.5875753256 -0.723084116036 -0.0109277325471 -0.016552703
0.2096219 31.3893650959 -1.15461144047 0.523134048128 -0.010241833
0.2114218 36.8107343242 -1.61071020271 1.25913815389 -0.006262725
0.2131221 41.9321044552 -2.00375996209 2.01779208607 0.001154054
0.2147339 46.7869091234 -2.33219459207 2.76291240975 0.008206911
0.2162634 51.3938229712 -2.59255916626 3.43664691153 0.014648491
0.2177237 55.7923037113 -2.35627866902 3.72278117507 0.020320537
0.2191272 60.0197006288 -1.88062245363 3.86393974369 0.024948072
0.2204859 64.1121581934 -1.33513852105 3.97108696117 0.028464483
0.221809 68.097387165 -0.747258876232 4.0470897538 0.030781969
0.2231015 71.9904477392 -0.143232726329 4.09106125243 0.031887884
0.224363 75.7901351004 0.450280252131 4.10842722874 0.031883071
0.2255991 79.5133166678 1.01351802237 4.09696977864 0.0308745773
0.2268147 83.174751433 1.52905259062 4.05793603015 0.0290399096
0.228014 86.7870899604 1.98069129311 3.98798216674 0.0266085356
0.2292017 90.3644888339 2.35631915971 3.88677784122 0.0237778789
0.2303845 93.9271287157 2.64664952362 3.75383484614 0.020758072
0.2315679 97.491575821 2.84395643416 3.58750201117 0.0177235079
0.2327571 101.073492753 2.94546502486 3.38952657886 0.01481630454
0.2339574 104.68884332 2.95680547398 3.16714131546 0.01204538913
0.2351735 108.351784105 2.87729042363 2.91771947652 0.00949904772
0.2364132 112.085809013 2.71950392268 2.64978898204 0.00717273254
0.2376872 115.923146863 2.49358190115 2.36690402256 0.0050862737
0.2390095 119.905966203 2.20587207904 2.0677476548 0.0032173937
0.2404009 124.096917447 1.86834022863 1.75537582887 0.0015153034
0.2418858 128.56949435 1.49339197715 1.43117215638 5.372337e-05
0.2435014 133.435744767 1.09569523032 1.09664252181 -0.0011827465
0.2453079 138.876993453 0.692017831469 0.750363138939 -0.0020706027
0.247257 144.74775892 0.342707569187 0.427946778173 -0.0024972223
0.2492049 150.614909939 0.0866555349531 0.150451074311 -0.0022916452
0.2510313 156.116098204 -0.0599394528476 -0.0607486689668 -0.0014904994
0.2527517 161.298010322 -0.115753411496 -0.208457020253 -0.0003100855
0.2543814 166.20673049 -0.122290685305 -0.343277449456 0.0013407311
0.255927 170.862138168 -0.0864564666328 -0.462339051213 0.003182419
0.2574003 175.299775417 -0.02130071848 -0.565899935926 0.0047973782
0.2588144 179.559099949 0.0646293891382 -0.658534244861 0.0060333044
0.2601822 183.67896707 0.160775061721 -0.733388558879 0.0065458156
0.2615129 187.687087539 0.260987420125 -0.795149074527 0.006387761
0.2628131 191.603340815 0.35772332112 -0.840802863792 0.005465959
0.2640822 195.425919673 0.444963228337 -0.869897864147 0.00386068867
0.2653252 199.16988431 0.518316097227 -0.88300708767 0.00166047641
0.2665472 202.850596126 0.580750262961 -0.886991456924 -0.000802030033
0.2677522 206.480103277 0.635352242245 -0.888096647361 -0.00339757088
0.2689449 210.072562346 0.685646141194 -0.888925798511 -0.0058948251
0.2701316 213.64694918 0.737870801876 -0.89572539469 -0.0081374199
0.2713185 217.221938422 0.792173219942 -0.907621187022 -0.0100891038
0.2725108 220.813192676 0.849668446288 -0.924343880866 -0.0115891595
0.2737137 224.436374544 0.90600578641 -0.942916694563 -0.012752564
0.2749324 228.107146631 0.949328537633 -0.953606259553 -0.0137010188
0.2761738 231.846292005 0.96943943161 -0.948795583831 -0.0144785522
0.2774487 235.686340691 0.955844535286 -0.920935517066 -0.0151923413
0.278771 239.669160031 0.916165861273 -0.878443304013 -0.015945051
0.2801612 243.856496828 0.850036877791 -0.820643295237 -0.016693946
0.2816435 248.321242429 0.766740550609 -0.755399714043 -0.017315805
0.2832543 253.173035058 0.675536441425 -0.691562219289 -0.017687194
0.2850535 258.592295859 0.593389476759 -0.650419573211 -0.017955712
0.2870031 264.464567345 0.525103462996 -0.648668015443 -0.017980498
0.2889572 270.350393007 0.457593836547 -0.684829071835 -0.017967967
0.2907916 275.875677585 0.370535874293 -0.736571249168 -0.017948008
0.2925195 281.080179996 0.256834026729 -0.794553466294 -0.017933059
0.2941564 286.010586847 0.117070533784 -0.849841540432 -0.018006132
0.2957089 290.686777594 -0.042768991822 -0.900883673835 -0.018125922
0.2971879 295.141583466 -0.213787283189 -0.944928827572 -0.018392912
0.2986065 299.414462175 -0.390876159532 -0.985376591289 -0.018732036
0.2999782 303.546076248 -0.565557189564 -1.01934996797 -0.019214438
0.3013118 307.56293163 -0.73016534833 -1.04639560427 -0.019767073
0.3026149 311.487919819 -0.74238000567 -0.957729902792 -0.020388505
0.3038868 315.318932387 -0.738429387331 -0.836694680792 -0.021110805
0.305132 319.069523511 -0.71942977173 -0.690564033975 -0.02191947
0.3063562 322.756861813 -0.686782742755 -0.527357246454 -0.022867785
0.3075632 326.392393041 -0.63910273331 -0.351441925054 -0.023871262
0.3087578 329.990574985 -0.578144978811 -0.170358391444 -0.024922299
0.3099461 333.569781082 -0.502230427048 0.00923323522392 -0.025962676
0.3111346 337.149589587 -0.411099543526 0.177594997415 -0.026976378
0.3123281 340.744458287 -0.304412736577 0.321093886977 -0.027961016
0.3135322 344.371254602 -0.184721298587 0.424338178051 -0.028963685
0.3147522 348.04594234 -0.0600658616527 0.475635446065 -0.029835979
0.3159946 351.788099754 0.0597840769257 0.46710579434 -0.03051474
0.31727 355.629654459 0.163083284271 0.390635309753 -0.030930495
0.3185923 359.612473799 0.233574410291 0.24573856909 -0.030980084
0.3199815 3.79679855699 0.251924968475 0.0589003948001 -0.030544972
0.3214617 8.25521887574 0.199005386241 -0.129822913047 -0.029382006
0.3230684 13.0946621443 0.0545590466535 -0.271734260723 -0.027342818
0.3248622 18.4976579339 -0.207094586985 -0.285446956117 -0.024246914
0.3268131 24.3738450707 -0.595454850985 -0.0674704177814 -0.01971511
0.3287712 30.2717188892 -1.03119917439 0.373729724692 -0.009706561
0.3306095 35.80875042 -1.48636566624 1.10033083759 -0.008243458
0.3323401 41.0213853367 -1.89596839911 1.85281134229 -0.000971001
0.3339793 45.9587198769 -2.24022662493 2.60305795828 0.00625961
0.3355339 50.6412359069 -2.51625056468 3.29387218515 0.012842696
0.3370149 55.1020658569 -2.39476136539 3.66364409476 0.018799299
0.3384353 59.3803662358 -1.93944814368 3.81728343703 0.02377333
0.3398085 63.5164983677 -1.405083191 3.93183571758 0.027554621
0.3411436 67.5378718089 -0.824498400401 4.01475995272 0.030218978
0.3424481 71.4670768526 -0.222921147052 4.06832490542 0.031668499
0.3437212 75.3017038678 0.372658595715 4.08809523811 0.031953675
0.3449676 79.0559094382 0.940947838162 4.08218561314 0.0311910305
0.3461928 82.746259779 1.46424970816 4.04871898005 0.02954339
0.3474009 86.3851042508 1.92517771448 3.98381952233 0.0272763049
0.3485966 89.9865994373 2.31272195778 3.88910062086 0.0244963517
0.349786 93.5691187774 2.61537439189 3.76198019871 0.0214899041
0.3509755 97.1519393213 2.82476445861 3.6004503142 0.0184348589
0.3521704 100.751024877 2.93871707941 3.40760901551 0.01546982623
0.3533759 104.382038047 2.9589265416 3.18692709504 0.01266085122
0.3545974 108.061243843 2.88898717866 2.94069939985 0.010023499
0.3558416 111.808822927 2.73758722271 2.67380524447 0.00764614379
0.3571191 115.656702914 2.51606134708 2.39116110326 0.0054767121
0.3584438 119.646751148 2.23202042867 2.09261011026 0.0035387829
0.3598358 123.839509616 1.89491956168 1.77872454748 0.001790948
0.3613193 128.307869664 1.52221577351 1.45581455906 0.0002532183
0.362931 133.162373128 1.12266701055 1.11960557074 -0.0010385476
0.3647319 138.586754396 0.716477427558 0.772327989131 -0.0019966763
0.3666832 144.464146348 0.361185244164 0.446688926739 -0.0025003821
0.3686417 150.363224982 0.0977879603705 0.164595347514 -0.0023606071
0.3704835 155.91079865 -0.0550363100858 -0.0511055988372 -0.0016269771
0.3722152 161.12674681 -0.1144974994 -0.201248437782 -0.0005015494
0.3738542 166.063478942 -0.123639038799 -0.337699626912 0.0010770898
0.3754081 170.743886545 -0.0892234390351 -0.456590191649 0.0028630361
0.3768883 175.202306863 -0.0253779902808 -0.560747912106 0.0044230668
0.3783082 179.479101223 0.0595823950606 -0.653546707866 0.0056049616
0.3796811 183.614329743 0.155217496502 -0.727656614939 0.0061030834
0.3810161 187.63540198 0.254643778692 -0.78981881136 0.0058807083
0.3823207 191.564908228 0.351071544757 -0.835342968114 0.004942085
0.3835942 195.400740059 0.438200558733 -0.864384900637 0.00333595082
0.3848413 199.157054056 0.512023076091 -0.878264196114 0.00114565937
0.3860674 202.850115232 0.576317577515 -0.884381095312 -0.00125807552
0.3872764 206.491670539 0.633658443919 -0.888507815409 -0.00380774428
0.3884731 210.096177765 0.687837143628 -0.892866175643 -0.0062144276
0.3896636 213.682010348 0.744356690209 -0.903399415564 -0.0083705037
0.3908545 217.269047747 0.801344822022 -0.916964823965 -0.0102362788
0.3920508 220.872350157 0.862271571419 -0.936483724728 -0.0116872092
0.3932581 224.508784997 0.918866122108 -0.954759208149 -0.0128252219
0.3944817 228.194316076 0.958023396337 -0.96102295993 -0.0137381791
0.3957283 231.949124054 0.972566764571 -0.951001670207 -0.0145119657
0.397009 235.806642566 0.956728608466 -0.921469953198 -0.0152723025
0.3983378 239.809040161 0.91373833199 -0.876257389035 -0.016051877
0.3997355 244.018967251 0.844837471145 -0.816181735238 -0.016815735
0.4012265 248.509917593 0.759784215166 -0.749469232359 -0.017423925
0.4028491 253.397252284 0.670041431317 -0.687353246624 -0.01784116
0.4046661 258.870127381 0.586861723862 -0.645792188396 -0.018051924
0.4066189 264.752037392 0.518551966263 -0.644559108042 -0.018069183
0.4085746 270.642682317 0.449743431165 -0.679406420308 -0.018053139
0.4104076 276.16375004 0.361544402019 -0.728620426732 -0.018025637
0.4121341 281.364035596 0.247617106595 -0.78345510227 -0.017999531
0.4137691 286.288719572 0.10909753355 -0.835931418399 -0.018065779
0.4153197 290.959187446 -0.0487055379258 -0.885260413903 -0.01815855
0.4167972 295.409475259 -0.217281487021 -0.928529998383 -0.018404018
0.4182149 299.679643132 -0.392199242402 -0.969166476208 -0.018720134
0.4195861 303.809751186 -0.565361203202 -1.00384574044 -0.019159209
0.4209197 307.826606568 -0.721631654025 -1.028223124 -0.019679037
0.4222229 311.751895961 -0.733012171719 -0.938569046891 -0.020312193
0.423495 315.583510937 -0.730612583525 -0.818838964398 -0.021020476
0.4247408 319.335909284 -0.713097130841 -0.673947051975 -0.021835007
0.4259659 323.025958421 -0.681324621426 -0.511157912453 -0.022778419
0.4271742 326.6654053 -0.635635230104 -0.335855763937 -0.023785906
0.4283704 330.268406507 -0.575014764873 -0.154423464818 -0.024838797
0.429561 333.854540294 -0.498953709183 0.0254540803242 -0.025893785
0.4307521 337.4421801 -0.407144557775 0.193770027127 -0.026914927
0.4319489 341.04698853 -0.299477400884 0.336372137442 -0.027910087
0.4331568 344.685230594 -0.178555792302 0.437429371561 -0.028945146
0.4343814 348.373773711 -0.0531629437276 0.485706940109 -0.029827715
0.4356295 352.133099748 0.0670298264338 0.472074625135 -0.030500652
0.4369119 355.995738727 0.169614235575 0.389629367673 -0.03092556
0.438243 0.00506401154666 0.237330475586 0.237710276768 -0.030949629
0.4396437 4.22402721954 0.250495996135 0.0471511052974 -0.030457981
0.4411382 8.72551969784 0.1900599508 -0.14168622649 -0.02922496
0.4427657 13.6276133803 0.0344124281954 -0.277924993508 -0.027075016
0.4445903 19.1233799751 -0.240815429856 -0.271610993626 -0.023893506
0.4465447 25.0101092488 -0.639485090895 -0.0277937650866 -0.01900904
0.4484982 30.8941276873 -1.07421180275 0.442308705631 -0.009565747
0.4503254 36.3977255838 -1.53126699723 1.18105508781 -0.007643707
0.4520468 41.5826497405 -1.93232648402 1.93328465737 -0.000206991
0.4536777 46.494984356 -2.2695442292 2.67987223494 0.006939579
0.4552246 51.1543076846 -2.5386134736 3.36081782578 0.013477385
0.4566995 55.596764196 -2.34403518817 3.67804457533 0.019344161
0.4581153 59.8612091948 -1.87700131676 3.82422953118 0.024188328
0.4594849 63.9864979859 -1.33748944801 3.93675351565 0.02787564
0.4608174 68.0000401253 -0.753892898772 4.01744937916 0.030402066
0.4621196 71.9223174791 -0.151878440969 4.06439619669 0.031724221
0.4633906 75.7506192121 0.441118227013 4.08370438447 0.031898145
0.4646356 79.5006079277 1.0048253259 4.07432151729 0.0310271174
0.46586 83.1885486372 1.52105358091 4.03657834743 0.0293089111
0.4670679 86.8267907011 1.97351029883 3.96748862845 0.0269393211
0.4682639 90.4291894994 2.35066116576 3.86866933192 0.0241517063
0.4694546 94.0156244903 2.64205876779 3.73747954867 0.0211451014
0.4706462 97.6047703164 2.84003037848 3.57248001711 0.0180862
0.4718438 101.211988377 2.94220435584 3.37622532712 0.01514157647
0.4730529 104.853844888 2.95060705176 3.15204507073 0.012342466783
0.4742789 108.54660486 2.86938562496 2.90263026678 0.00973595123
0.475529 112.311954976 2.70819155817 2.63343814624 0.00736463245
0.4768143 116.183328868 2.47754779946 2.34832650865 0.0052209197
0.4781491 120.203798697 2.18348730258 2.04551791652 0.0033095104
0.4795548 124.437822101 1.84222083808 1.73169837905 0.001584848
0.4810559 128.959194038 1.4636250518 1.40560849312 8.500116e-05
0.4826936 133.892010519 1.06183780889 1.06783398891 -0.0011897045
0.4845331 139.432656497 0.656062755021 0.718458798902 -0.0021001676
0.4864861 145.315168916 0.314901263286 0.400541138313 -0.0025313688
0.4884392 151.197982539 0.0675955979936 0.127302910765 -0.0023154003
0.4902657 156.699472008 -0.0697438211402 -0.0778683182763 -0.0015286884
0.4919845 161.876564863 -0.120495778137 -0.225656597421 -0.0003165997
0.4936114 166.776851322 -0.121630451508 -0.357875717933 0.0013083811
0.4951542 171.42382529 -0.0819579806818 -0.474872113643 0.0030687864
0.4966255 175.855438461 -0.0143421776327 -0.576794548716 0.0045452178
0.4980383 180.110847342 0.0727595760574 -0.667255948978 0.0056076497
0.4994057 184.229509647 0.168939897608 -0.737605045687 0.0059521926
0.5007366 188.238232524 0.268354575296 -0.797582165019 0.0056060083
0.5020373 192.155991819 0.363314812178 -0.840006696081 0.0045316005
0.5033074 195.981582717 0.447061570778 -0.8645678515 0.00276571673
0.5045518 199.729764209 0.5205465325 -0.878360232258 0.00058331976
0.5057759 203.416801307 0.584333149819 -0.885137192665 -0.00185674505
0.5069837 207.054742167 0.640515612067 -0.887919033363 -0.00436489911
0.50818 210.658044577 0.696107727485 -0.894349548328 -0.0067023476
0.5093712 214.245985587 0.751907327065 -0.904912724077 -0.0088584229
0.5105637 217.837842248 0.812185125927 -0.921338852227 -0.0105497123
0.5117626 221.44897596 0.873398158992 -0.941462829314 -0.0119401975
0.5129734 225.095952938 0.925947266202 -0.956166768708 -0.0130059148
0.5142014 228.794736988 0.960784950568 -0.959267734873 -0.013879186
0.5154543 232.568520813 0.966914926876 -0.942704037519 -0.0146406047
0.5167433 236.45103925 0.946631135016 -0.910615221728 -0.01539923
0.5180834 240.487472887 0.897069770743 -0.86078878973 -0.016175829
0.5194967 244.744387788 0.823132974648 -0.797278610799 -0.01689392
0.521008 249.296482523 0.738337915531 -0.732042106121 -0.017475561
0.5226609 254.275082 0.649741181404 -0.672596148088 -0.017841145
0.5245206 259.876571168 0.570288165997 -0.638173843245 -0.018007227
0.5264736 265.759083587 0.504680666844 -0.644837242661 -0.017972793
0.5284198 271.62111414 0.434554505099 -0.685236850069 -0.017951754
0.5302346 277.087362751 0.342871569105 -0.736629904443 -0.017969658
0.5319458 282.241564109 0.224573762797 -0.791862763875 -0.017960973
0.5335664 287.122874721 0.0818246350709 -0.844692927915 -0.017992293
0.5351036 291.75298127 -0.0780063241276 -0.893046534736 -0.018152539
0.5365705 296.171341469 -0.248906522854 -0.936874768544 -0.018386262
0.5379799 300.416509417 -0.423544251524 -0.975752205614 -0.018750948
0.5393443 304.526135605 -0.595739688003 -1.00955418456 -0.019219818
0.5406728 308.527629587 -0.725745081679 -1.01553220274 -0.019750307
0.5419711 312.438159989 -0.73448292731 -0.919707998894 -0.020397257
0.5432388 316.256521992 -0.729280388983 -0.794846482752 -0.021127476
0.5444812 319.998679406 -0.710476081696 -0.646791168192 -0.021950988
0.5457037 323.680897242 -0.67509291499 -0.480681650502 -0.022931443
0.5469102 327.314922451 -0.626868765221 -0.303413245503 -0.023942064
0.5481056 330.915514026 -0.563301116222 -0.121355799521 -0.025004975
0.5492966 334.502852628 -0.484582489484 0.057702990864 -0.026052299
0.5504891 338.09470929 -0.389767519539 0.22287542305 -0.027061063
0.5516883 341.706746613 -0.279245115466 0.359417897835 -0.028094551
0.5528998 345.355832018 -0.156787924795 0.45243221932 -0.029114695
0.554129 349.058230515 -0.030984256455 0.489557109042 -0.029960658
0.5553835 352.836833602 0.0873180623149 0.462938000274 -0.030585476
0.5566748 356.72627973 0.185129776296 0.36561831113 -0.030934245
0.5580182 0.772653095676 0.244491264553 0.206217353779 -0.030909534
0.5594356 5.04191735712 0.245550393279 0.0107450721133 -0.030302961
0.5609524 9.610578308 0.169195450849 -0.171489736567 -0.028897354
0.5626131 14.6126716895 -0.00547650059482 -0.286668616164 -0.026532337
0.5644827 20.2439800451 -0.310430118824 -0.246415187837 -0.02319811
0.5664375 26.1319141345 -0.722296361041 0.0465642564291 -0.017506617
0.5683764 31.9719568017 -1.15659311924 0.577659801513 -0.010011181
0.570183 37.4135066922 -1.61066338395 1.32246362989 -0.006332982
0.5718879 42.5487322032 -2.00171538781 2.07929608661 0.001165929
0.5735028 47.4128741926 -2.32651365095 2.81790825763 0.008222668
0.5750352 52.0285229539 -2.58384137563 3.4823738181 0.014664187
0.5764983 56.4354374036 -2.25955693653 3.70780919297 0.020342435
0.5779048 60.6718704385 -1.77628848864 3.84803621851 0.02494802
0.579267 64.77487014 -1.226260994 3.95307047956 0.028462647
0.5805938 68.7712436564 -0.63626501403 4.02431218857 0.030727628
0.5818904 72.6766535911 -0.034532748113 4.06841753772 0.03182356
0.5831565 76.4901963323 0.554189101403 4.08273773034 0.031795991
0.5843976 80.2284380953 1.10976767843 4.06742222628 0.0307549025
0.5856189 83.9070414835 1.61342116341 4.02089562378 0.0288951001
0.5868246 87.5386570614 2.05221898109 3.94740757358 0.0264550732
0.5880195 91.1377426166 2.41513340068 3.84522468989 0.0235756629
0.5892105 94.7250812193 2.68805083872 3.70653283388 0.0205564664
0.5904034 98.3181426963 2.86714508577 3.53509301588 0.0175096191
0.5916034 101.932589651 2.94979830933 3.33209488413 0.01454705219
0.592816 105.584988299 2.93931439965 3.10210172368 0.01182085159
0.5940468 109.292206059 2.8429514733 2.84999296143 0.0092643034
0.5953035 113.077435632 2.66652327866 2.57684651203 0.00691153376
0.596598 116.976520285 2.42360399731 2.28920383074 0.0048328545
0.5979458 121.036146623 2.11849058636 1.9834242346 0.0029565484
0.5993693 125.323784323 1.76833207759 1.66674422285 0.0012751699
0.6008942 129.916842791 1.38341396972 1.33804841982 -0.0002193442
0.6025674 134.956586661 0.979577421143 0.998210334491 -0.0013915815
0.6044506 140.628858749 0.580693033247 0.65145581029 -0.0022338513
0.6064047 146.514684411 0.257774496263 0.342277230529 -0.0025270104
0.6083413 152.347799388 0.0322942158014 0.0812595685232 -0.0021846614
0.6101449 157.780313161 -0.0837661506475 -0.107961002565 -0.0013232099
0.6118455 162.902586904 -0.124592134379 -0.253038147551 -5.79074e-05
0.6134553 167.751367494 -0.115927071053 -0.381805989487 0.0016636299
0.6149826 172.351654856 -0.0701856369491 -0.493932375619 0.0033289552
0.6164415 176.745918741 0.00226181474819 -0.596010423893 0.0047858834
0.6178447 180.972412047 0.0912503347617 -0.682533571859 0.005646096
0.6192043 185.067580447 0.189192074914 -0.751353573839 0.0058936644
0.6205291 189.057929885 0.288307320647 -0.807776906222 0.0053957946
0.6218239 192.957918149 0.380097614308 -0.844402503411 0.00411641271