0.4781491 0.203798697443 -0.145549996168 0.969856146145 0.408999631544 -0.23911135308
0.4795548 4.43782210108 -0.151951077051 0.852148748647 0.279173292904 -0.249627128768
0.4810559 8.95919403763 -0.154667278101 0.698093181275 0.149246003476 -0.254089337805
0.4826936 13.8920105192 -0.152782169096 0.508228824933 0.0308755513143 -0.250992457168
0.4845331 19.432656497 -0.145631602166 0.284120572415 -0.055578655707 -0.239245416433
0.4864861 25.3151689159 -0.13065887147 0.0486348205726 -0.0741635648384 -0.214648027287
0.4884392 31.1979825388 -0.100895327947 -0.171407142851 -0.0219892581015 -0.165752105942
0.4902657 36.6994720079 -0.0890367926697 -0.371273879092 0.119254393719 -0.146270755958
0.4919845 41.8765648628 -0.0601747328613 -0.536639489038 0.28052080329 -0.0988558033287
0.4936114 46.7768513218 -0.0312467668471 -0.674514072948 0.443330318836 -0.0513325791611
0.4951542 51.42382529 -0.00414542140775 -0.787549789087 0.593920350564 -0.00681015010641
0.4966255 55.8554384605 0.0193658502291 -0.748139264021 0.634595981045 0.0318144608294
0.4980383 60.110847342 0.0375502164098 -0.636219574553 0.639917118272 0.0616879648958
0.4994057 64.229509647 0.0494413780925 -0.500456609926 0.639698859336 0.0812229139475
0.5007366 68.2382325238 0.0545412654727 -0.341856215465 0.641073790948 0.0896010726844
0.5020373 72.1559918189 0.0530360699708 -0.142385795621 0.669230926717 0.087128318699
0.5033074 75.9815827166 0.0450823281299 0.0549395974376 0.701364066316 0.074061812181
0.5045518 79.7297642088 0.0319315947022 0.244695161399 0.736853158968 0.0524576229217
0.5057759 83.4168013066 0.0146660972928 0.42257068368 0.771736283175 0.0240936479588
0.5069837 87.0547421666 -0.0049724858309 0.583626799081 0.802729730008 -0.00816886187908
0.50818 90.6580445766 -0.0257077041233 0.727343841274 0.825640094782 -0.04223293768
0.5093712 94.2459855871 -0.0465030653894 0.849078753344 0.835033026245 -0.0763958171101
0.5105637 97.8378422484 -0.0657274865473 0.950224426517 0.830453387208 -0.107977936493
0.5117626 101.44897596 -0.0834920461141 1.02831148069 0.807512586799 -0.137161777007
0.5129734 105.095952938 -0.0996675408247 1.08027907761 0.76595040641 -0.163735081911
0.5142014 108.794736988 -0.113968079933 1.10216287863 0.704088322805 -0.187228186316
0.5154543 112.568520813 -0.126476761849 1.08987237145 0.623206275392 -0.207777605325
0.5167433 116.45103925 -0.137331492212 1.0445516309 0.523027221925 -0.225609892049
0.5180834 120.487472887 -0.146208459142 0.962412251889 0.403861669435 -0.240193084284
0.5194967 124.744387788 -0.152404081299 0.841302911785 0.273152498412 -0.25037132981
0.521008 129.296482523 -0.154963453561 0.685444650044 0.143312275614 -0.254575898553
0.5226609 134.275082 -0.152629481716 0.492780404549 0.0253921986306 -0.250741620431
0.5245206 139.876571168 -0.145134724531 0.265797669451 -0.0581895434808 -0.238429139644
0.5264736 145.759083587 -0.129065761266 0.0307682295953 -0.0709767788006 -0.21203084593
0.5284198 151.62111414 -0.0999025442732 -0.187261672442 -0.0126923717332 -0.164121148514
0.5302346 157.087362751 -0.0871414530612 -0.384195437367 0.131516068724 -0.143157068357
0.5319458 162.241564109 -0.0581256666389 -0.547555834013 0.29305574823 -0.0954895717252
0.5335664 167.122874721 -0.0292174007497 -0.683378332142 0.455963868767 -0.0479987111691
0.5351036 171.75298127 -0.00238413161183 -0.794848305468 0.604516461857 -0.00391668121356
0.5365705 176.171341469 0.0206951306955 -0.741170253634 0.635596210086 0.0339982193958
0.5379799 180.416509417 0.038387964015 -0.62775659846 0.640801233378 0.0630642271334
0.5393443 184.526135605 0.0497684108288 -0.490382359239 0.641529938591 0.0817601674147
0.5406728 188.527629587 0.0542291371928 -0.328263482337 0.644744363305 0.0890883044446
0.5419711 192.438159989 0.0522197739275 -0.128187605008 0.674231194617 0.0857872973553
0.5432388 196.256521992 0.0442053198167 0.0695955466571 0.707697830044 0.0726210519614
0.5444812 199.998679406 0.0305507338276 0.258447097792 0.742599063716 0.0501891274161
0.5457037 203.680897242 0.0131403615494 0.43532966675 0.776762400531 0.0215871502078
0.5469102 207.314922451 -0.00655096606414 0.595275127405 0.806388061326 -0.0107620089372
0.5481056 210.915514026 -0.0272515165348 0.737326811502 0.827581166543 -0.0447691320073
0.5492966 214.502852628 -0.0475995721783 0.859042791394 0.835908548088 -0.0781971721691
0.5504891 218.09470929 -0.0669185462724 0.957098353668 0.829505882254 -0.109934624298
0.5516883 221.706746613 -0.0845444515452 1.03352958627 0.80499067351 -0.138890681804
0.5528998 225.355832018 -0.100599419542 1.08341880747 0.761753093913 -0.165265983916
0.554129 229.058230515 -0.114756050446 1.10294507101 0.699490718969 -0.188522674123
0.5553835 232.836833602 -0.1271221596 1.08927026057 0.617121603311 -0.208837872818
0.5566748 236.72627973 -0.137937194835 1.04077648089 0.514430285557 -0.226604947891
0.5580182 240.772653096 -0.146770066139 0.955415574443 0.394900519028 -0.241115699279
0.5594356 245.041917357 -0.152710013828 0.83300783268 0.264281779816 -0.250873919591
0.5609524 249.610578308 -0.154946716535 0.674307595017 0.13483383693 -0.254548402757
0.5626131 254.61267169 -0.152343380591 0.479908960074 0.0192624720227 -0.250271609928
0.5644827 260.243980045 -0.144645751603 0.251755012117 -0.0615973358723 -0.237625848806
0.5664375 266.131914134 -0.126728132945 0.016924458679 -0.0707235362793 -0.208190560903
0.5683764 271.971956802 -0.100596970262 -0.198013677175 -0.00542951214198 -0.165261960209
0.570183 277.413506692 -0.0854659848397 -0.39380218941 0.139611022581 -0.140404588219
0.5718879 282.548732203 -0.056359602499 -0.556372813737 0.301029634674 -0.0925882594803
0.5735028 287.412874193 -0.027561343107 -0.691730368645 0.463466178469 -0.045278118973
0.5750352 292.028522954 -0.00098524548105 -0.801377677428 0.609930287445 -0.00161857359184
0.5764983 296.435437404 0.0218347688463 -0.73618537699 0.633313244145 0.0358704311953
0.5779048 300.671870439 0.0391252064973 -0.620772707373 0.637362791104 0.0642753782988
0.579267 304.77487014 0.0502506325698 -0.482044047099 0.637485143099 0.0825523673185
0.5805938 308.771243656 0.0543325607663 -0.315657838473 0.643098718657 0.089258209984
0.5818904 312.676653591 0.0520343885714 -0.114927260177 0.67322219827 0.085482743975
0.5831565 316.490196332 0.0436995306955 0.0830880856067 0.70762645139 0.0717901352708
0.5843976 320.228438095 0.0301127481549 0.272385187953 0.742825980599 0.0494695990783
0.5856189 323.907041484 0.0124066158434 0.447239681398 0.776596366227 0.0203817435902
0.5868246 327.538657061 -0.00738595278634 0.606017501066 0.805460879603 -0.0121337355618
0.5880195 331.137742617 -0.0280858335693 0.7466612462 0.826776515606 -0.0461397584606
0.5892105 334.725081219 -0.0483334913786 0.866647679435 0.834613867019 -0.0794028638054
0.5904034 338.318142696 -0.0673991803415 0.964235708602 0.828013545772 -0.110724215955
0.5916034 341.932589651 -0.0852442419325 1.03711484112 0.804134460564 -0.1400403062
0.592816 345.584988299 -0.101141220525 1.08567294752 0.758494649054 -0.166156061343
0.5940468 349.292206059 -0.11531389521 1.10340076687 0.694441219898 -0.189439108475
0.5953035 353.077435632 -0.127868420958 1.08776267905 0.610114331448 -0.210063840305
0.596598 356.976520285 -0.138438825489 1.03689597935 0.507595480004 -0.227429032999
0.5979458 1.03614662285 -0.147029669638 0.948442750215 0.385146588043 -0.241542179152
0.5993693 5.32378432298 -0.152869754602 0.823421896918 0.253853702575 -0.251136343733
0.6008942 9.9168427908 -0.154764618742 0.661961677979 0.125212467548 -0.254249250227
0.6025674 14.9565866614 -0.151590195752 0.465620937569 0.012147213823 -0.249034268458
0.6044506 20.6288587492 -0.143526481633 0.235997356155 -0.0647215103032 -0.235787098107
0.6064047 26.5146844112 -0.125416927613 0.00204729916472 -0.0680824417513 -0.206036496395
0.6083413 32.3477993884 -0.100563213328 -0.213886794336 0.00387965819306 -0.165206503895
0.6101449 37.7803131615 -0.0834511550187 -0.406025854875 0.151357800943 -0.137094600604
0.6118455 42.9025869042 -0.0544010408996 -0.566369926704 0.314552160682 -0.0893707100029
0.6134553 47.7513674941 -0.0256386975427 -0.699283963515 0.47627408723 -0.0421195728069
0.6149826 52.3516548558 0.000877728279883 -0.80694689297 0.621756002247 0.0014419429898
0.6164415 56.7459187411 0.0233871566847 -0.726772257921 0.63605092909 0.0384207133411
0.6178447 60.972412047 0.0402655926697 -0.6095953723 0.639315118309 0.0661488189577
0.6192043 65.0675804467 0.0508733441066 -0.470074122687 0.639019883193 0.0835753656152
0.6205291 69.0579298849 0.0546477654311 -0.300617515725 0.646602249652 0.0897760321472
0.6218239 72.9579181491 0.0516314559267 -0.101626197519 0.67488985849 0.0848208011896
0.6230886 76.7672440355 0.0426840141608 0.0950321861962 0.708912622531 0.0701218320135
0.6243289 80.5030761672 0.0286056030987 0.282580544889 0.74425255781 0.0469936423406
0.6255497 84.1801735359 0.0107907691462 0.457401656549 0.778959707182 0.017727210438
0.6267551 87.810885502 -0.00934002832153 0.613785149457 0.808068803418 -0.015343915277
0.6279501 91.4102722612 -0.0302347745106 0.75335849491 0.828429731552 -0.0496700655007
0.6291416 94.9991168834 -0.0505297959184 0.872776955746 0.835754505567 -0.0830109803571
0.6303353 98.5945879917 -0.0694422140775 0.968785353584 0.827175928232 -0.114080537314
0.6315366 102.212950597 -0.0868888377509 1.04176420613 0.800860300573 -0.142742068768
0.6327508 105.870168508 -0.102526308471 1.0879431512 0.754886509988 -0.168431501136
0.6339837 109.58371155 -0.116558667089 1.10121893019 0.690362248434 -0.191484035277
0.6352434 113.377977241 -0.128866519384 1.08358418894 0.604667828266 -0.211703528875
0.6365421 117.289712458 -0.139340043982 1.03066820988 0.500151849352 -0.228909566004
0.6378958 121.367109827 -0.147553244148 0.938482098038 0.37825391513 -0.242402313902
0.6393276 125.679747451 -0.153303236651 0.811413970915 0.247052973785 -0.251848473461
0.6408642 130.308046777 -0.154825010246 0.647171491247 0.117396105044 -0.254348462144
0.6425545 135.399296517 -0.15132622474 0.448399127946 0.00615671821633 -0.24860061358
0.6444544 141.121869658 -0.142763850729 0.216255404468 -0.066446286902 -0.234534238526
0.6464096 147.011008563 -0.123203773761 -0.0173333366796 -0.0639814083236 -0.202400699582
0.6483352 152.81099111 -0.100136944273 -0.230870395765 0.0157601911471 -0.164506223764
0.6501274 158.209167637 -0.0812377979175 -0.419914548187 0.165201581289 -0.133458469891
0.6518199 163.307043863 -0.0521247541858 -0.577955832915 0.3293424003 -0.0856311977358
0.6534229 168.135342586 -0.0234853144523 -0.708466039863 0.489492354972 -0.0385819681487
0.6549443 172.717858917 0.0027925757601 -0.806924705614 0.627818887677 0.00458767836589
0.6563984 177.097665015 0.0248174024157 -0.718702825315 0.636999497756 0.040770338906
0.6577978 181.312712572 0.0411830980425 -0.599467469698 0.641699078976 0.0676561082529
0.6591541 185.397941243 0.0510044921283 -0.458817819502 0.640541164199 0.0837908172245
0.6604764 189.380760583 0.0543500011662 -0.285157295483 0.651112132814 0.0892868612908
0.6617684 193.272315138 0.0509675476551 -0.084745763249 0.681346488865 0.0837301243822
0.6630305 197.073809722 0.0414693701958 0.110952388771 0.714890316911 0.0681263997247
0.6642686 200.803015368 0.0271584754352 0.298056049309 0.750219645715 0.0446162829259
0.6654876 204.474691066 0.00912897552686 0.471677361577 0.783724430711 0.0149971951077
0.6666917 208.101487381 -0.010904010329 0.628059248812 0.81242639516 -0.0179132444687
0.6678857 211.697862101 -0.0314349747605 0.765757640437 0.830665929027 -0.0516417694738
0.669077 215.286104316 -0.0519282422324 0.881999030808 0.836077163304 -0.0853083654424
0.6702708 218.881876628 -0.0706583930029 0.976190492552 0.826226614749 -0.116078491255
0.6714724 222.501142845 -0.0879610396335 1.04687595114 0.797460325786 -0.144503495423
0.6726875 226.161071591 -0.103522074802 1.09069863459 0.750732275978 -0.170067358511
0.6739216 229.87822908 -0.117344683115 1.10252105837 0.683862798671 -0.19277531223
0.6751832 233.678217645 -0.129617212528 1.08211382884 0.596411971983 -0.212936776956
0.6764846 237.598085368 -0.140037261474 1.0254795237 0.491145247741 -0.230054963616
0.6778422 241.687229689 -0.148128898292 0.93217473249 0.367727376503 -0.243348005726
0.6792789 246.014626306 -0.153612237901 0.801445116124 0.237344669025 -0.252356104577
0.680822 250.662503886 -0.15481198434 0.635087530101 0.10755974674 -0.254327063023
0.6825221 255.783271609 -0.150850969763 0.433551986524 -0.00128903981983 -0.247819858763
0.6844306 261.531748287 -0.142139013078 0.200710803767 -0.0690534075327 -0.233507747422
0.6863889 267.430224513 -0.120532363515 -0.0321911185971 -0.062312429535 -0.198012073437
0.688304 273.198580649 -0.100141611329 -0.245853285329 0.0237626420645 -0.164513890861
0.690088 278.572058455 -0.0792216816327 -0.431118304806 0.175027997829 -0.130146368857
0.6917732 283.647946795 -0.0501806145439 -0.587614037868 0.338079392022 -0.0824373408305
0.6933699 288.457269673 -0.0216496286547 -0.717403377834 0.497635585481 -0.0355662805743
0.694886 293.023822196 0.0043957820908 -0.803180624909 0.62616764817 0.00722144576603
0.6963359 297.390977729 0.0260250342357 -0.712570425723 0.63455428149 0.0427542515554
0.697732 301.596085557 0.0420442132445 -0.591235918832 0.638450234655 0.0690707590707
0.6990859 305.674085334 0.0514770748855 -0.44915767135 0.636638186939 0.0845671820853
0.7004062 309.650880596 0.0544003378592 -0.270883825513 0.649985475738 0.0893695550394
0.7016961 313.536109869 0.0506678994086 -0.0697581827569 0.680676204453 0.0832378584972
0.7029563 317.331881579 0.0411038971762 0.127011533299 0.715569157946 0.0675259960797
0.7041929 321.056569166 0.026308270464 0.312554051354 0.750571620755 0.0432195555716
0.7054106 324.724329213 0.00814757877551 0.484760822422 0.783669166689 0.0133849442571
0.7066138 328.348414693 -0.0119798900458 0.640143568596 0.811955885196 -0.0196807131159
0.7078074 331.943584598 -0.0324680563099 0.775925315643 0.829574304712 -0.0533389287566
0.7089986 335.531525608 -0.0525649609329 0.89085061876 0.834808620958 -0.0863543748827
0.7101928 339.128502736 -0.0714858232403 0.982330968502 0.823779672759 -0.117437803992
0.7113954 342.750780993 -0.0887724886297 1.05148221993 0.794620221851 -0.145836553977
0.7126118 346.414625389 -0.104301417309 1.09275227873 0.745983815931 -0.171347672124
0.7138478 350.137505753 -0.118184746322 1.10309817693 0.677037241915 -0.194155378568
0.7151122 353.945928027 -0.130261826139 1.0800090587 0.588975631822 -0.213995756254
0.7164174 357.877241498 -0.140429453394 1.0197131408 0.479966735043 -0.230699261405
0.7177805 1.98295203515 -0.148538753186 0.923372075237 0.355822957738 -0.244021320469
0.7192244 6.33203533352 -0.153611189671 0.789410884571 0.224889870253 -0.252354382531
0.7207778 11.0109369165 -0.154555370262 0.620606731127 0.0977294719668 -0.253905494209
0.7224933 16.1780900423 -0.150060030987 0.416275003398 -0.00978947530612 -0.246520494656
0.724413 21.9603015583 -0.140747191004 0.182661959511 -0.0721395940583 -0.231221244721
0.7263713 27.8587777846 -0.117836813994 -0.0495381818411 -0.0605894231458 -0.19358379099
0.7282799 33.6075556662 -0.0997841999167 -0.262132674848 0.0348950577102 -0.163926730926
0.730059 38.9662744806 -0.0768412891295 -0.444791473014 0.187755148778 -0.126235830298
0.7317386 44.0252954017 -0.0478634322366 -0.598742129278 0.351657474838 -0.0786306447711
0.7333293 48.8165460442 -0.0194869127863 -0.725421818056 0.510833404692 -0.0320133439118
0.7348399 53.3665323525 0.00637958384007 -0.796215004538 0.629013949507 0.0104804600773
0.736285 57.7192300978 0.0276864516451 -0.702478144664 0.637226234529 0.0454836488433
0.7376776 61.9137957888 0.0431910403998 -0.579112980187 0.640652635371 0.0709547810569
0.7390287 65.983361856 0.0522665126197 -0.435670580628 0.638877720006 0.0858640802631
0.7403468 69.953530632 0.0543571365264 -0.255320200411 0.652236659991 0.0892985833499
0.7416346 73.8324346223 0.0500747074719 -0.055867681919 0.682348728926 0.0822633553687
0.7428935 77.6242906818 0.0398202757518 0.139472208665 0.716787143744 0.0654172467585
0.7441291 81.3459662296 0.0249269129696 0.324260367033 0.752397004387 0.0409502442129
0.7453462 85.0119190535 0.00604148781341 0.494227093254 0.785334826216 0.00992503169847
0.746549 88.6347997179 -0.0143159556851 0.648117246024 0.813745903267 -0.023518430949
0.7477427 92.2302708262 -0.0349074695544 0.782910031615 0.831015023392 -0.0573464273273
0.7489345 95.8200190601 -0.0549265772595 0.897151395245 0.834406341125 -0.0902340677041
0.7501297 99.4200082271 -0.0734657025906 0.988076306224 0.82266454045 -0.120690374537
0.7513337 103.046503338 -0.0906082783507 1.05326067889 0.791918764866 -0.148852412278
0.7525521 106.716371813 -0.106035515469 1.09226565977 0.741390649393 -0.174196470256
0.7537906 110.446782274 -0.119634155035 1.10058974706 0.671111693043 -0.196536485319
0.7550585 114.265746686 -0.131482855144 1.07479871142 0.582115361947 -0.216001677966
0.7563685 118.211517945 -0.1413273606 1.01137951304 0.472583307225 -0.232174354585
0.7577387 122.33861396 -0.149262461308 0.912274267456 0.347647038321 -0.245210237217
0.7591925 126.717516445 -0.153978924115 0.776482175367 0.216184404349 -0.252958501273
0.7607599 131.438586576 -0.154516062974 0.603686688745 0.0885478273172 -0.253840919704
0.7624959 136.667486504 -0.149667676135 0.395773665717 -0.0169056396656 -0.2458759292
0.764428 142.487047305 -0.139567435569 0.161050070581 -0.072729197751 -0.229283127745
0.766388 148.390643998 -0.11566756085 -0.0701804215554 -0.0537923827248 -0.190020114808
0.7682836 154.100265371 -0.0985771465223 -0.28060936903 0.0484643104057 -0.161943768521
0.7700517 159.425851755 -0.0742600873969 -0.459577556441 0.203180330171 -0.121995399827
0.7717227 164.45896914 -0.0452146742191 -0.611194333442 0.367380033895 -0.0742792319905
0.7733058 169.227328285 -0.0170298342357 -0.735889023206 0.525709712061 -0.0279768245554
0.7748101 173.758338747 0.00844440783007 -0.789804352465 0.630593901073 0.0138725787383
0.77625 178.095373888 0.029177880883 -0.693254723114 0.638932794486 0.047933787438
0.7776385 182.277590219 0.0440153902541 -0.568099665436 0.641855328292 0.0723090333017
0.778986 186.336312945 0.0523716884631 -0.423400171615 0.640039548335 0.0860368644534
0.7803014 190.298349216 0.0540586542274 -0.237823870648 0.658052817644 0.088808232898
0.7815859 194.167313477 0.0490500201249 -0.038640696086 0.688558013169 0.0805799861865
0.7828419 197.950434623 0.0384150933444 0.15597896052 0.723184532748 0.0631087955349
0.7840752 201.665182481 0.0230921290362 0.340190706434 0.758438050106 0.0379360382323
0.7852903 205.325111226 0.00456897932528 0.509823617116 0.790621504355 0.00750597634781
0.7864916 208.943473832 -0.0159769752603 0.660972977746 0.817360979921 -0.0262471746698
0.7876844 212.536234105 -0.0365999783424 0.793892609068 0.832738184137 -0.0601269019206
0.7888759 216.125078727 -0.0565246490629 0.906035459366 0.834644746296 -0.0928594000386
0.7900713 219.725670302 -0.0748898587589 0.994801502483 0.820810769902 -0.123029996092
0.7912757 223.353370229 -0.0917765731612 1.05960125365 0.787991780777 -0.150771701596
0.792495 227.025949539 -0.107089957418 1.09567629782 0.735442313231 -0.17592872067
0.7937349 230.760576855 -0.120542948505 1.1008717903 0.663813554362 -0.198029462591
0.795005 234.586167753 -0.132296515119 1.07140739506 0.5734114185 -0.217338368743
0.7963182 238.541577537 -0.142126198751 1.00607795663 0.463009918263 -0.233486695885
0.7976928 242.681926524 -0.149815566847 0.903328301647 0.336315360268 -0.246118885911
0.7991523 247.077997633 -0.154240811329 0.764689867892 0.204792813284 -0.253388732861
0.8007276 251.822862872 -0.154417549021 0.589326532249 0.0795881357962 -0.253679079751
0.8024753 257.087003658 -0.14922787905 0.379579958529 -0.0243088555204 -0.245153425052
0.8044137 262.925540306 -0.139027251645 0.144326168641 -0.0746175966157 -0.228395706843
0.8063766 268.837871912 -0.110940573428 -0.0857643717764 -0.0531864418869 -0.182254560784
0.8082567 274.500806679 -0.0977709401083 -0.293479339921 0.057638014602 -0.160619322547
0.810016 279.799887118 -0.0721936876302 -0.470961877943 0.213150344405 -0.11860069246
0.8116796 284.810715413 -0.0431295373594 -0.620985900673 0.376499650821 -0.0708537430933
0.8132564 289.560098712 -0.0152006240733 -0.744502729163 0.53310495963 -0.0249717752354
0.8147555 294.07544657 0.00992516418159 -0.785033688658 0.628060597168 0.0163051837821
0.8161912 298.399831148 0.0304722029155 -0.686354428178 0.635556987348 0.050060115852
0.8175766 302.572710157 0.0448924734694 -0.558948654866 0.638073786569 0.0737499165714
0.8189216 306.623902786 0.0527498305706 -0.412866866697 0.636179229772 0.0866580810343
0.820235 310.579914978 0.0540190750521 -0.223243288 0.65684337852 0.088743211734
0.8215173 314.442252753 0.0488893313453 -0.0226531933332 0.688729241223 0.0803160046507
0.8227714 318.219651024 0.0377456899958 0.171341604073 0.723453576158 0.0620090913463
0.8240032 321.929880823 0.0221395676202 0.354752746132 0.758829566905 0.036371158431
0.8252171 325.586195122 0.00347424459808 0.523126706139 0.790517384996 0.00570753245379
0.8264175 329.201846893 -0.0168518657226 0.673898474519 0.817035725103 -0.0276844556574
0.8276099 332.79340235 -0.0374355201999 0.804247340023 0.832493905673 -0.0614995405284
0.8288014 336.382246972 -0.0574202762182 0.913985724546 0.833102993617 -0.0943307475248
0.8299972 339.984043363 -0.0757769817243 1.00095275079 0.818411012092 -0.124487372789
0.8312027 343.615056533 -0.0926507813744 1.06370074016 0.784787315426 -0.152207861777
0.8324234 347.291852697 -0.107887987938 1.09802824197 0.730990928647 -0.177239735185
0.8336652 351.032202888 -0.121319451395 1.09916654965 0.658373055899 -0.199305111245
0.8349382 354.866528699 -0.132905166181 1.06792820858 0.564585268094 -0.218338268316
0.8362555 358.834287844 -0.14265865656 1.00007571073 0.4523844405 -0.23436142423
0.8376359 2.99210665742 -0.150076013328 0.89491731485 0.324883432089 -0.246546750645
0.839103 7.41106926358 -0.154246831487 0.752213452878 0.193863916664 -0.253398622852
0.8406897 12.1902717496 -0.154021096543 0.574257936909 0.0699185785201 -0.253027782665
0.842454 17.5044123849 -0.148308236901 0.36190854169 -0.0306795963889 -0.243642625434
0.8443983 23.3607200634 -0.137457499708 0.126426233645 -0.0754863031 -0.22581689874
0.846361 29.2724492619 -0.108548287547 -0.102073766623 -0.0488641704289 -0.178324483636
0.8482347 34.9161069779 -0.0964122229071 -0.308339849203 0.0690107920155 -0.158387204945
0.8499883 40.1980187945 -0.069981670304 -0.483530719366 0.226539379954 -0.114966762746
0.8516458 45.1904736508 -0.0407949487713 -0.631401136066 0.391162646794 -0.0670184517784
0.8532165 49.9214835108 -0.013066172095 -0.752143610198 0.546148031133 -0.0214652708448
0.8547104 54.4211687656 0.011830632903 -0.776952239156 0.631641013994 0.0194355116159
0.8561417 58.7323003709 0.0319392986256 -0.67531839865 0.63803914971 0.0524702790233
0.8575237 62.8949384472 0.0459280156601 -0.546274031843 0.640567890278 0.0754511182267
0.8588662 66.9386009779 0.0532103576843 -0.400109058315 0.636734529473 0.0874146407332
0.8601775 70.8882878878 0.0539135063723 -0.207915758474 0.658982186783 0.0885697821873
0.8614578 74.7446015846 0.0481398906789 -0.00869807932915 0.690244515771 0.0790848141559
0.8627107 78.5183854093 0.0367405098542 0.184558379758 0.725214472787 0.0603577688449
0.8639416 82.2259043732 0.0204032676918 0.365312119272 0.760463216494 0.0335187432049
0.8651549 85.8804114485 0.00130171335277 0.532542594522 0.79260505246 0.00213847096735
0.866355 89.4951596072 -0.0191768643065 0.682148498642 0.818918881465 -0.0315039923936
0.8675477 93.0876186763 -0.0397349804248 0.81227687932 0.833465106217 -0.0652771225292
0.8687398 96.678270522 -0.059381524698 0.920719352506 0.833363134657 -0.097552711043
0.8699367 100.283380156 -0.0777894658559 1.0049441204 0.816774283925 -0.127793506876
0.8711436 103.91861018 -0.0944780103757 1.06576393083 0.782055126003 -0.15520965642
0.8723662 107.601129219 -0.109408092995 1.09744666826 0.726646521864 -0.179736982773
0.8736107 111.349611915 -0.122587834536 1.09806519649 0.65166457918 -0.201388826923
0.8748873 115.194781068 -0.133838700208 1.06160497606 0.558184782243 -0.219871889686
0.8762098 119.178202816 -0.143456785006 0.991458149722 0.445008872288 -0.235672599618
0.8775977 123.358611923 -0.150760185589 0.883648606533 0.316886701216 -0.247670717388
0.879075 127.808297328 -0.154649831903 0.738309449505 0.185503933586 -0.254060676974
0.8806768 132.632981605 -0.153988413161 0.557435964746 0.0616241918195 -0.252974089996
0.8824631 138.013387101 -0.147927004415 0.341588125377 -0.0360520656373 -0.24301633194
0.8844132 143.887164607 -0.136289281799 0.105286745607 -0.0742612491492 -0.223897735756
0.8863768 149.80160464 -0.105576365514 -0.121510208944 -0.0419456668787 -0.173442172972
0.8882345 155.39706973 -0.0947928659725 -0.325777438195 0.0836513205678 -0.15572690513
0.8899779 160.648258748 -0.0675252844648 -0.497368897296 0.241771425757 -0.110931381385
0.8916273 165.616316087 -0.0382067755102 -0.643040442134 0.406037409187 -0.0627665683929
0.8931908 170.325639265 -0.0108147451895 -0.76121074169 0.559537440344 -0.0177665985816
0.8946789 174.807854693 0.0138014120783 -0.769943659109 0.633310918344 0.0226731322799
0.8961053 179.104227307 0.0331889249479 -0.665609040003 0.639236980007 0.054523180766
0.8974835 183.255419634 0.0465472349854 -0.534867521165 0.641699159047 0.0764683794745
0.8988228 187.28944364 0.0533552779675 -0.386818948724 0.639305678744 0.087652717586
0.9001312 191.230395636 0.0532749497709 -0.19072294314 0.664634874407 0.0875207534206
0.9014085 195.077673216 0.047081370329 0.00840296273236 0.696688791499 0.0773458636937
0.9026587 198.843324535 0.0352843813078 0.201326819238 0.731751331698 0.0579656226672
0.9038874 202.544217013 0.0189710691212 0.382432489138 0.76691585041 0.0311659094907
0.9050989 206.193302417 -0.000325656776343 0.547020625205 0.797516958077 -0.000534993022886
0.9062976 209.803833721 -0.0208931515202 0.694883454593 0.822426893794 -0.0343235304818
0.9074897 213.394485567 -0.0413532788005 0.823075442566 0.834869440477 -0.0679356833294
0.9086816 216.984535005 -0.0608463150354 0.929776631716 0.833379160683 -0.0999590869191
0.9098787 220.590247046 -0.0789125581341 1.0132748761 0.81495666726 -0.12963853691
0.9110861 224.226983091 -0.0956496337893 1.07073266376 0.777188825861 -0.157134414009
0.9123098 227.912815373 -0.110390773678 1.0997827266 0.720988150909 -0.181351342882
0.9135558 231.665816127 -0.123546683948 1.09719899131 0.644700573829 -0.202964036724
0.9148349 235.518515377 -0.134751069721 1.05936605021 0.549238555224 -0.221370741726
0.9161607 239.511876855 -0.144187094711 0.985447524945 0.433807600994 -0.236872361529
0.9175533 243.706442546 -0.151193000916 0.87395789413 0.306223742313 -0.248381751818
0.9190366 248.174200186 -0.154829761933 0.726398671264 0.17630371621 -0.254356268275
0.9206471 253.025089203 -0.15382171895 0.543171910451 0.0524794435531 -0.252700242663
0.9224463 258.444350004 -0.147489015244 0.325133603885 -0.0417203956233 -0.242296797855
0.9243997 264.328067238 -0.13507924898 0.0882160079131 -0.0743090718759 -0.221909878714
0.9263622 270.239194029 -0.102010765181 -0.136379420119 -0.0386283888032 -0.167584560174
0.928207 275.795803814 -0.093436135277 -0.339543376524 0.0939644428468 -0.153498050985
0.929942 281.021691703 -0.065383331945 -0.508979244645 0.252132132272 -0.107412555011
0.9315842 285.968062361 -0.0361778002499 -0.652927525614 0.41502239334 -0.059433342473
0.9331415 290.658710896 -0.00898020524781 -0.769998800672 0.567042366932 -0.0147527934337
0.9346246 295.125866129 0.0152920399833 -0.764595960311 0.630674396089 0.0251219544351
0.936047 299.410190586 0.0344569122865 -0.6578947247 0.637033955642 0.0566062462157
0.9374221 303.552045592 0.0473119583507 -0.525362496989 0.63851691938 0.077724676578
0.9387591 307.579141907 0.053663052728 -0.374795881543 0.635948422695 0.0881583338098
0.9400654 311.513768622 0.0533707175344 -0.174722787769 0.664358504345 0.0876780818994
0.9413404 315.354118511 0.0466018032153 0.0242909874863 0.69665521836 0.0765580248447
0.9425888 319.11434816 0.0344899876718 0.216714914345 0.731939482578 0.0566605828721
0.943816 322.810722579 0.0180248465806 0.397152253119 0.767083505911 0.0296114432732
0.9450263 326.456193537 -0.00106237950854 0.561059343344 0.797780586892 -0.00174529033637
0.9462242 330.064315209 -0.021871444898 0.706295016385 0.8215091058 -0.0359306830714
0.9474159 333.653762239 -0.0423594199084 0.83277614302 0.833426533824 -0.0695885845182
0.9486081 337.244715289 -0.0618814913786 0.937231609331 0.831285899058 -0.101659687555
0.9498057 340.85193335 -0.0798365107205 1.01860135466 0.812156283431 -0.131156417768
0.9510144 344.492585045 -0.0963638430187 1.07467695051 0.774047355256 -0.158307725859
0.9522395 348.182634182 -0.11117872823 1.10119798911 0.715576048053 -0.18264580447
0.9534878 351.942562627 -0.124250404531 1.09573574567 0.637214532048 -0.204120117694
0.9547702 355.805201606 -0.135462056476 1.05583503981 0.539926240963 -0.222538759655
0.9561005 359.812117259 -0.144658978092 0.978852474485 0.423092650012 -0.237647577448
0.9574996 4.02626120447 -0.151478701208 0.863631002502 0.293470707243 -0.248851103828
0.9589914 8.51962117712 -0.154634264057 0.713455991726 0.163412583061 -0.254035101921
0.9606149 13.4096667031 -0.153251675135 0.527086028419 0.042694625963 -0.251763767558
0.9624334 18.8870598591 -0.146506727863 0.306387790488 -0.0480768623341 -0.240683083868
0.9643872 24.7719819094 -0.132982083132 0.0705444986257 -0.0745307725571 -0.218464628445
0.9663466 30.6737713788 -0.10176969496 -0.152378100531 -0.0309221187257 -0.167188527002
0.9681856 36.212911337 -0.0915208436485 -0.354606053185 0.105977617919 -0.150351585956
0.9699144 41.4201245832 -0.0630506325698 -0.521373390016 0.265649530681 -0.103580367319
0.9715503 46.3475193943 -0.0339287480217 -0.662458120552 0.429250920021 -0.0557385713593
0.9731013 51.0191920834 -0.00679206563932 -0.777168406089 0.580935962531 -0.0111580903331