/*--------------------------------*- C++ -*----------------------------------*\
| =========                 |                                                 |
| \\      /  F ield         | OpenFOAM: The Open Source CFD Toolbox           |
|  \\    /   O peration     | Version:  3.0.1                                 |
|   \\  /    A nd           | Web:      www.OpenFOAM.org                      |
|    \\/     M anipulation  |                                                 |
\*---------------------------------------------------------------------------*/
FoamFile
{
    version     2.0;
    format      ascii;
    class       volScalarField;
    location    "0.301312";
    object      nut;
}
// * * * * * * * * * * * * * * * * * * * * * * * * * * * * * * * * * * * * * //

dimensions      [0 2 -1 0 0 0 0];

internalField   nonuniform List<scalar> 
21246
(
2.95455e-05
0.00014743
0.000242935
0.000332272
0.000376038
0.00037075
0.000364877
0.00041423
0.000514533
0.000617694
0.000651635
2.14305e-05
8.92782e-05
0.0001675
0.00025017
0.000310344
0.000328319
0.000328164
0.000374736
0.000473215
0.000557751
0.000577014
1.691e-05
6.79031e-05
0.000130122
0.00019964
0.000259669
0.000290154
0.000297596
0.000324701
0.00041104
0.000504977
0.000511693
1.40305e-05
6.37293e-05
0.000112401
0.000169912
0.00022453
0.000259554
0.000274104
0.000292677
0.000349849
0.000439743
0.000463534
1.31032e-05
6.45417e-05
0.000105723
0.000153504
0.000201232
0.000236336
0.000255608
0.000272286
0.000309925
0.000378201
0.00041432
1.33822e-05
6.41752e-05
0.000102209
0.000144476
0.000186001
0.000219336
0.00024125
0.000258485
0.000286188
0.000335395
0.000370936
1.33911e-05
6.37887e-05
0.000100287
0.00013832
0.000176266
0.000207565
0.00023092
0.000249635
0.000273412
0.00031087
0.00034077
1.34196e-05
6.28591e-05
9.94707e-05
0.000134605
0.000170704
0.000200736
0.000225262
0.000246163
0.000269515
0.000300489
0.000323688
1.33692e-05
6.13711e-05
9.95412e-05
0.00013408
0.00016936
0.000199375
0.000225601
0.00024928
0.000273515
0.000299912
0.000316534
1.32194e-05
5.96778e-05
0.000100707
0.0001369
0.000172881
0.000204188
0.0002329
0.000259146
0.00028324
0.000304445
0.000314895
1.30749e-05
5.82076e-05
0.000103076
0.000142438
0.000180388
0.000214468
0.000245769
0.000272956
0.000294465
0.00030965
0.000315107
1.29875e-05
5.71685e-05
0.000105634
0.000148509
0.000189646
0.00022683
0.000259662
0.000285634
0.000303116
0.000313418
0.000316554
1.28759e-05
5.60639e-05
0.000107228
0.000153204
0.000197344
0.000236846
0.000269962
0.00029396
0.000308321
0.000316176
0.000319287
1.27001e-05
5.46431e-05
0.000107421
0.000155573
0.000201833
0.000242753
0.000275856
0.000298756
0.00031184
0.000319131
0.000323098
1.24204e-05
5.36881e-05
0.000107221
0.000156586
0.000204157
0.000246078
0.000279616
0.000302667
0.000315818
0.000323342
0.000328335
1.20191e-05
5.28674e-05
0.000106616
0.000156651
0.000205204
0.000248258
0.000282952
0.000307131
0.000321015
0.000328674
0.000333819
1.15012e-05
5.15878e-05
0.000104984
0.000155378
0.000204954
0.000249613
0.000286271
0.000312333
0.000327201
0.000334454
0.000338684
1.08e-05
4.99223e-05
0.000102347
0.000152696
0.000203393
0.000250232
0.000289607
0.000318067
0.000333831
0.000339801
0.000341561
9.90845e-06
4.76874e-05
9.84402e-05
0.000148443
0.000200508
0.000249924
0.000292302
0.000323137
0.000339213
0.000342488
0.000339215
8.82134e-06
4.47901e-05
9.34566e-05
0.000143183
0.000195754
0.000244978
0.000288039
0.000320959
0.000337869
0.000338509
0.000329393
7.48405e-06
4.23085e-05
9.26449e-05
0.000135952
0.000167835
0.000191229
0.000230376
0.000278998
0.000308746
0.000315891
0.000306663
7.57407e-06
4.61842e-05
6.19311e-05
5.97206e-05
8.04404e-05
0.000106925
0.000134242
0.00016515
0.000209235
0.000244602
0.000255678
5.90255e-06
1.71805e-05
3.312e-05
5.92551e-05
9.33123e-05
0.000128238
0.000153573
0.00016025
0.000152559
0.000156028
0.000173264
9.4226e-06
2.548e-05
5.62668e-05
0.000101875
0.000154421
0.000202228
0.000233136
0.000239513
0.000215597
0.000171094
0.000142698
2.78668e-05
0.000217117
0.00034271
0.000408094
0.000416844
0.000391009
0.000379258
0.000434349
0.000555654
0.000684832
0.000729178
1.60581e-05
0.000147679
0.000295218
0.000393666
0.000433686
0.000422367
0.000401661
0.000446836
0.000586386
0.000758251
0.000850519
1.2119e-05
8.61347e-05
0.000220771
0.000344359
0.000425542
0.000446424
0.000422662
0.000443041
0.000589737
0.000811862
0.000979259
1.26301e-05
6.03407e-05
0.000164457
0.000290484
0.00039803
0.000455477
0.000441623
0.000418556
0.000544471
0.000803614
0.00105407
1.44034e-05
6.31184e-05
0.000151274
0.000261542
0.000374404
0.00045946
0.000476314
0.000406652
0.000401594
0.000631541
0.000994603
1.63181e-05
7.16191e-05
0.000159768
0.000261848
0.00036964
0.000465105
0.000512789
0.000471146
0.000382077
0.000449351
0.000795094
1.82441e-05
8.22845e-05
0.000174563
0.000273188
0.000374941
0.00047276
0.000541371
0.000535795
0.000439489
0.000375477
0.000586
2.01841e-05
9.37067e-05
0.000191573
0.000288435
0.000383467
0.000477427
0.00055698
0.000583317
0.000507426
0.000391974
0.000427128
2.19894e-05
0.00010585
0.000209802
0.000305353
0.00039292
0.00047762
0.000557768
0.000607085
0.000562976
0.000439537
0.000368131
2.36067e-05
0.000118566
0.000228053
0.000322189
0.000402162
0.000474238
0.000546231
0.000607717
0.000598052
0.000488627
0.000370406
2.49986e-05
0.000130311
0.000244888
0.000337761
0.00041042
0.000468918
0.000527368
0.000591686
0.000612603
0.000527257
0.000393069
2.62468e-05
0.000140766
0.000261129
0.00035097
0.000416477
0.000462571
0.000506269
0.000565312
0.000609894
0.000552123
0.000417756
2.72945e-05
0.000150211
0.000274072
0.000361433
0.000419801
0.000455579
0.000486499
0.000530963
0.000582263
0.000563505
0.000436237
2.80742e-05
0.000159064
0.000285551
0.000369711
0.000420582
0.000446545
0.000466651
0.000498142
0.000536376
0.000542337
0.000452421
2.85078e-05
0.00016692
0.000295554
0.000376253
0.000419512
0.000435801
0.000445324
0.000464792
0.000490368
0.000501952
0.000458764
2.85989e-05
0.000174313
0.000305058
0.000382295
0.000417862
0.000424488
0.000423347
0.000431668
0.000447596
0.000460793
0.000446055
2.83276e-05
0.000181484
0.000315038
0.000389544
0.000417789
0.00041496
0.000402727
0.000399114
0.000406621
0.00041653
0.000411815
2.76107e-05
0.000188667
0.000326948
0.000400959
0.000423487
0.00041213
0.000388557
0.000374243
0.000372985
0.000375799
0.000372705
2.63523e-05
0.000196409
0.000342294
0.000419155
0.000437711
0.000419653
0.000390303
0.000368207
0.000357519
0.000352509
0.000346231
2.42073e-05
0.000198814
0.000346009
0.000426463
0.000449613
0.000432414
0.000399298
0.000371601
0.000356747
0.000351191
0.00034933
2.05228e-05
0.000185544
0.000330538
0.000420553
0.000454779
0.000442746
0.000407135
0.000373007
0.000352508
0.000344771
0.000346159
1.64535e-05
0.000157748
0.000294463
0.000394526
0.000441711
0.000439948
0.000407672
0.000369309
0.000340057
0.000319952
0.000296175
1.20016e-05
0.000110618
0.00024313
0.000347513
0.000405567
0.000417573
0.000396857
0.000361406
0.000323416
0.000285424
0.000231303
8.07726e-06
9.68597e-05
0.000191767
0.000285763
0.000339607
0.000362599
0.000357236
0.000331562
0.000294852
0.000244449
0.000184891
5.89976e-05
0.000311118
0.000378689
0.000410785
0.000439705
0.000466601
0.00048566
0.000490696
0.000471845
0.000422513
0.0003601
3.7671e-05
0.000252225
0.000359982
0.000408215
0.000438117
0.000461876
0.000477559
0.000481158
0.000464692
0.000419507
0.000357662
3.15511e-05
0.000211092
0.000357316
0.00043741
0.000468507
0.000484
0.00049318
0.000491247
0.000471351
0.000427423
0.000364858
3.08654e-05
0.000178426
0.000318986
0.000421097
0.000470248
0.000492209
0.000501538
0.000499904
0.000482877
0.000441361
0.000377403
3.17362e-05
0.000162502
0.000293459
0.000395062
0.000450953
0.000483479
0.000501282
0.000505153
0.000489961
0.000447416
0.000380426
3.27664e-05
0.000149876
0.000272765
0.000369544
0.000426606
0.000465547
0.000492076
0.00050397
0.000493814
0.00045411
0.000389417
3.39065e-05
0.00013961
0.000254905
0.000345104
0.000401581
0.000444024
0.000477295
0.000497086
0.000493287
0.000457104
0.000393211
3.51574e-05
0.000131483
0.00023987
0.000323778
0.000378581
0.000422565
0.000460443
0.000486679
0.000489147
0.00045845
0.000401176
3.62862e-05
0.000124613
0.000227081
0.00030571
0.00035856
0.000403044
0.000444014
0.000475456
0.000484014
0.00045895
0.000404987
3.718e-05
0.000118108
0.000215623
0.000290226
0.000341419
0.00038604
0.000429223
0.000464891
0.000478732
0.000457963
0.000404757
3.79653e-05
0.000111977
0.000205212
0.000276736
0.000326652
0.000371344
0.000416259
0.000455421
0.000473576
0.000456206
0.00040677
3.86094e-05
0.000106562
0.000195953
0.000264929
0.000313829
0.000358615
0.000405022
0.000447282
0.000469298
0.000455026
0.000407747
3.89825e-05
0.000101402
0.000187444
0.000254479
0.000302709
0.000347713
0.000395537
0.000440745
0.000466459
0.000454923
0.000408495
3.91466e-05
9.60502e-05
0.000179137
0.000244978
0.000293005
0.000338439
0.000387701
0.000435862
0.000465239
0.00045602
0.000410733
3.89892e-05
9.08737e-05
0.000171127
0.000236177
0.000284327
0.000330383
0.000381129
0.000432352
0.000465643
0.000458742
0.000413687
3.84676e-05
8.5051e-05
0.000162453
0.000227318
0.000276158
0.000323045
0.000375249
0.000429651
0.000467463
0.000463388
0.000418773
3.76092e-05
7.72585e-05
0.000150088
0.000214387
0.000263051
0.000309001
0.000360336
0.000416616
0.000460617
0.000463936
0.000424281
3.62165e-05
6.88147e-05
0.000135032
0.000197716
0.00024523
0.000287807
0.000333712
0.000386044
0.000433013
0.00044779
0.000423261
3.42576e-05
5.98463e-05
0.00011732
0.000176722
0.000222499
0.00026045
0.00029767
0.000339682
0.000382168
0.000406546
0.000404308
3.16923e-05
5.05516e-05
9.74743e-05
0.000151142
0.000194473
0.00022787
0.000255877
0.000284162
0.000313926
0.000337623
0.000352352
2.84469e-05
4.12471e-05
7.67343e-05
0.000121797
0.000161242
0.000190807
0.000211739
0.000228009
0.000242635
0.00025513
0.000268311
2.44485e-05
3.24271e-05
5.714e-05
9.1392e-05
0.000124512
0.000150267
0.000167028
0.000176389
0.000180784
0.000181867
0.000182967
1.95745e-05
2.39893e-05
3.96556e-05
6.28342e-05
8.73699e-05
0.000108038
0.000122118
0.000129262
0.000130464
0.000127134
0.000121469
1.37898e-05
2.23248e-05
3.3398e-05
4.64806e-05
6.00942e-05
7.21189e-05
8.10618e-05
8.6205e-05
8.74244e-05
8.50494e-05
7.99585e-05
5.54652e-05
0.000287301
0.000330452
0.000432887
0.000480072
0.000509413
0.00052421
0.000527938
0.000502005
0.00044327
0.000373266
4.11849e-05
0.00017813
0.000205335
0.000265623
0.000359031
0.000494973
0.000548393
0.000563066
0.000540854
0.000480215
0.000402139
3.82016e-05
0.000130029
0.000172946
0.000217743
0.000289339
0.000433053
0.000563333
0.000599897
0.000585626
0.000526745
0.000439239
3.77689e-05
0.000112244
0.000157075
0.000195773
0.000258691
0.000393033
0.000574505
0.000639034
0.000636061
0.000581602
0.000488296
3.72558e-05
0.000110948
0.000149756
0.000183258
0.000241066
0.000372191
0.000580985
0.000674927
0.000687611
0.000639648
0.000541622
3.64218e-05
0.00011822
0.000148388
0.000175979
0.000228645
0.000356019
0.000572728
0.000702591
0.000734755
0.000693548
0.000585649
3.60519e-05
0.000128913
0.000151255
0.000172267
0.000219019
0.000340373
0.000553353
0.000718715
0.000774558
0.000742896
0.000627041
3.66088e-05
0.000142215
0.000157659
0.000171515
0.000211888
0.000325906
0.000529155
0.000711527
0.000801528
0.000785296
0.000660236
3.77739e-05
0.000156946
0.000166861
0.000173076
0.000206581
0.000312063
0.000501979
0.00068819
0.000797406
0.000805687
0.000683415
3.91295e-05
0.000171943
0.000178199
0.000176538
0.00020262
0.000298381
0.000472593
0.000653866
0.000769971
0.000790595
0.000679157
4.0174e-05
0.000184925
0.000190905
0.000181597
0.000199475
0.000283896
0.000440429
0.000610817
0.000725939
0.000749259
0.000649282
4.10017e-05
0.000196599
0.000204613
0.000188181
0.000197467
0.000269684
0.000407547
0.000563081
0.000671871
0.000692676
0.000600491
4.1553e-05
0.000207551
0.000218643
0.000196136
0.000196614
0.000255846
0.000374345
0.000512448
0.00061165
0.000628602
0.000542241
4.14681e-05
0.000214812
0.00023173
0.00020544
0.00019699
0.00024241
0.000341031
0.000460147
0.00054798
0.000561784
0.000483792
4.08241e-05
0.000219357
0.00024337
0.000215885
0.000199021
0.00023048
0.000309357
0.000408687
0.000484082
0.000495808
0.000428762
3.95978e-05
0.000221212
0.000252812
0.000227002
0.000202852
0.000220596
0.000280232
0.000359575
0.000421918
0.000432586
0.000377961
3.77012e-05
0.000219131
0.000259021
0.000238036
0.000208551
0.000213395
0.000254677
0.000314365
0.000363154
0.00037291
0.00033134
3.51352e-05
0.000213361
0.000261067
0.000247739
0.000215908
0.000209647
0.000234152
0.000275034
0.00030978
0.000317431
0.000287484
3.19996e-05
0.000203603
0.000258126
0.000254374
0.000224199
0.000209972
0.000220085
0.000243583
0.000264028
0.000267376
0.00024598
2.88658e-05
0.000193172
0.000250429
0.000256627
0.000232783
0.000215287
0.000214292
0.000222328
0.000228623
0.000225292
0.000207443
2.48845e-05
0.000166629
0.000231453
0.000250578
0.000238461
0.000224129
0.000216314
0.000211585
0.000204817
0.000193358
0.000174546
2.18293e-05
0.000142884
0.000198491
0.000221227
0.000220258
0.000210122
0.000200218
0.000189404
0.000171397
0.000148927
0.000122857
1.48624e-05
0.000100875
0.000119507
0.000109477
9.71254e-05
8.48043e-05
7.32143e-05
6.19858e-05
5.30489e-05
4.56498e-05
3.92581e-05
9.73829e-06
1.094e-05
1.16793e-05
1.30838e-05
1.51455e-05
1.76706e-05
2.0426e-05
2.31062e-05
2.5395e-05
2.69988e-05
2.77035e-05
3.60588e-05
0.00012717
0.000125007
0.000135032
0.000127093
0.000106046
8.24739e-05
6.68107e-05
5.6636e-05
4.87514e-05
4.1729e-05
3.00548e-05
0.000104
9.00301e-05
0.000121564
0.000134448
0.000114056
8.52026e-05
6.54778e-05
5.34632e-05
4.4764e-05
3.75168e-05
2.93644e-05
8.44699e-05
8.19535e-05
9.66043e-05
0.000124205
0.000122374
9.08957e-05
6.6613e-05
5.23262e-05
4.26204e-05
3.49166e-05
3.04725e-05
7.33065e-05
7.88042e-05
8.75641e-05
0.000110461
0.000128446
9.79674e-05
6.94886e-05
5.2784e-05
4.20936e-05
3.42219e-05
3.15992e-05
6.85806e-05
7.68019e-05
8.24806e-05
0.000101532
0.000127973
0.000105407
7.36343e-05
5.44714e-05
4.27564e-05
3.47493e-05
3.20498e-05
6.71753e-05
7.54221e-05
7.87499e-05
9.34603e-05
0.000119761
0.000111484
7.88383e-05
5.71436e-05
4.42764e-05
3.59281e-05
3.19549e-05
6.79161e-05
7.49207e-05
7.62569e-05
8.64524e-05
0.000107977
0.00011149
8.50902e-05
6.06755e-05
4.64687e-05
3.75745e-05
3.14717e-05
7.05622e-05
7.56891e-05
7.51501e-05
8.13042e-05
9.70996e-05
0.000106065
8.97952e-05
6.54771e-05
4.94715e-05
3.96684e-05
3.0586e-05
7.42972e-05
7.77925e-05
7.52413e-05
7.77144e-05
8.81397e-05
9.77605e-05
9.10896e-05
7.05594e-05
5.32184e-05
4.23283e-05
2.93576e-05
7.85707e-05
8.12199e-05
7.64423e-05
7.53323e-05
8.08615e-05
8.84222e-05
8.81357e-05
7.46578e-05
5.75817e-05
4.55157e-05
2.80204e-05
8.37688e-05
8.62459e-05
7.90248e-05
7.44076e-05
7.56591e-05
8.01062e-05
8.21901e-05
7.6162e-05
6.20838e-05
4.92425e-05
2.67786e-05
9.05916e-05
9.33086e-05
8.32902e-05
7.51304e-05
7.26598e-05
7.39582e-05
7.56644e-05
7.45159e-05
6.5717e-05
5.342e-05
2.58376e-05
9.88677e-05
0.000102667
8.954e-05
7.75234e-05
7.14799e-05
6.97763e-05
6.98618e-05
7.04915e-05
6.72237e-05
5.76027e-05
2.53339e-05
0.000107956
0.000114444
9.82742e-05
8.18789e-05
7.20238e-05
6.73289e-05
6.53202e-05
6.55017e-05
6.58441e-05
6.08173e-05
2.53217e-05
0.000119089
0.000129246
0.000110127
8.86749e-05
7.45401e-05
6.67315e-05
6.24772e-05
6.10718e-05
6.22572e-05
6.17859e-05
2.58038e-05
0.000131973
0.000147218
0.000125941
9.86885e-05
7.94248e-05
6.80509e-05
6.13547e-05
5.79307e-05
5.79739e-05
5.98441e-05
2.61382e-05
0.000144294
0.000167383
0.000146525
0.000113221
8.75998e-05
7.17466e-05
6.21309e-05
5.64307e-05
5.43756e-05
5.5862e-05
2.57246e-05
0.000154966
0.000188126
0.000171938
0.000133724
0.000100523
7.88492e-05
6.54416e-05
5.7043e-05
5.24808e-05
5.1807e-05
2.44959e-05
0.000161789
0.000206438
0.000200253
0.000161313
0.000120375
9.12806e-05
7.26532e-05
6.06651e-05
5.3148e-05
4.95264e-05
2.2467e-05
0.000162944
0.000218708
0.000226804
0.000195137
0.000149744
0.000112408
8.66583e-05
6.94316e-05
5.79267e-05
5.0731e-05
1.96933e-05
0.0001533
0.000221566
0.000246231
0.000231285
0.000190456
0.00014744
0.000113158
8.82391e-05
7.06235e-05
5.84355e-05
1.71908e-05
0.000139946
0.00021464
0.000254325
0.000260225
0.000236578
0.000198208
0.000159005
0.000125611
9.95394e-05
7.98817e-05
1.31615e-05
0.000108626
0.000157143
0.000198054
0.000222031
0.000230485
0.000222874
0.000201946
0.000174624
0.000147363
0.000122754
1.03322e-05
3.81217e-05
5.3743e-05
7.48945e-05
9.82203e-05
0.000122574
0.000145127
0.000158529
0.000162061
0.000157895
0.000147968
3.02498e-05
0.000116743
0.00012265
0.000125788
0.000121975
0.000105008
8.55624e-05
7.19019e-05
6.27059e-05
5.55182e-05
4.90392e-05
2.02635e-05
9.68416e-05
0.000123784
0.000135166
0.000132024
0.000116185
9.62282e-05
8.13442e-05
7.1556e-05
6.43178e-05
5.8084e-05
2.02547e-05
8.52482e-05
0.000121164
0.000154209
0.000153208
0.000136006
0.000112455
9.3998e-05
8.23906e-05
7.44864e-05
6.81655e-05
2.24566e-05
7.86079e-05
0.000116953
0.000165962
0.000176356
0.000164998
0.000140724
0.00011714
0.000101093
9.08554e-05
8.3619e-05
2.52796e-05
7.31419e-05
0.000115849
0.000169437
0.000183669
0.000176164
0.000153668
0.000130732
0.000114614
0.000104234
9.68951e-05
2.80099e-05
6.90637e-05
0.000115225
0.000168621
0.000185762
0.000182689
0.000162576
0.000140436
0.000124431
0.000114163
0.000107106
3.05289e-05
6.61228e-05
0.000114498
0.000166193
0.000185467
0.000186316
0.000168811
0.000148323
0.000133215
0.00012382
0.00011792
3.28781e-05
6.40163e-05
0.00011365
0.00016353
0.000184662
0.000188794
0.000173813
0.000155231
0.000141419
0.000133424
0.000129313
3.48901e-05
6.24408e-05
0.000112701
0.000161192
0.000184243
0.000190886
0.00017838
0.000161568
0.000149
0.000142358
0.000139846
3.65506e-05
6.11004e-05
0.000111784
0.000159269
0.000184433
0.000193109
0.00018292
0.000167575
0.000156004
0.000150491
0.000149365
3.78432e-05
5.97875e-05
0.000110677
0.000157839
0.000185041
0.000195742
0.000187673
0.000173418
0.000162442
0.000157604
0.000157095
3.88657e-05
5.84574e-05
0.000109378
0.000156701
0.000185907
0.000198762
0.000192717
0.000179232
0.00016842
0.000163874
0.000163929
3.95393e-05
5.6957e-05
0.000107771
0.000155628
0.000186913
0.000202164
0.000198179
0.000185213
0.000174092
0.000169389
0.000169992
3.97923e-05
5.38882e-05
0.000103848
0.000152608
0.000186375
0.000204778
0.000203736
0.000191579
0.000179733
0.000174271
0.000174709
3.95469e-05
5.02633e-05
9.72361e-05
0.000145947
0.000181281
0.000202638
0.000206025
0.000196966
0.00018551
0.000179134
0.000178711
3.877e-05
4.62221e-05
8.81461e-05
0.000135438
0.000171558
0.000195138
0.000203468
0.000199649
0.000190709
0.000184097
0.000182468
3.74515e-05
4.19203e-05
7.70581e-05
0.000120974
0.000156998
0.000181949
0.000194612
0.000196961
0.000193103
0.000188353
0.000186213
3.55083e-05
3.76625e-05
6.51968e-05
0.000103455
0.000137907
0.000163278
0.000178875
0.000186438
0.000188803
0.000188775
0.000188626
3.28896e-05
3.35041e-05
5.36133e-05
8.43609e-05
0.000115128
0.000139638
0.00015659
0.000167266
0.000174284
0.000179726
0.000184504
2.95587e-05
2.93391e-05
4.29529e-05
6.54217e-05
9.03243e-05
0.00011216
0.000128818
0.000140606
0.000149465
0.000157563
0.000166228
2.54679e-05
2.50066e-05
3.34988e-05
4.82306e-05
6.59684e-05
8.31344e-05
9.76109e-05
0.00010884
0.000117604
0.000125366
0.000133635
2.06262e-05
2.03093e-05
2.51959e-05
3.36937e-05
4.44629e-05
5.57877e-05
6.63112e-05
7.53122e-05
8.27581e-05
8.91356e-05
9.52477e-05
1.50643e-05
1.47129e-05
1.71774e-05
2.12768e-05
2.65483e-05
3.2401e-05
3.82779e-05
4.37952e-05
4.87635e-05
5.31882e-05
5.72648e-05
9.10634e-06
9.61613e-06
1.16449e-05
1.41658e-05
1.70818e-05
2.02212e-05
2.3365e-05
2.79947e-05
3.43791e-05
4.28208e-05
5.34507e-05
6.54429e-06
7.01318e-06
9.66073e-06
1.28362e-05
1.43336e-05
1.52864e-05
1.6093e-05
1.66474e-05
1.68784e-05
2.84845e-05
2.28962e-05
2.49371e-05
3.57288e-05
5.74135e-05
8.727e-05
0.000109611
0.000133803
0.000156055
4.11282e-05
3.28333e-05
4.25425e-05
6.91916e-05
0.000112346
0.000165312
0.000206825
0.000255275
0.000295727
5.44156e-05
4.331e-05
5.78132e-05
9.67147e-05
0.000159919
0.000238701
0.000298332
0.00036163
0.00041028
6.0494e-06
7.12536e-06
1.15486e-05
1.40047e-05
1.53017e-05
1.60535e-05
1.66494e-05
1.69998e-05
1.71483e-05
2.30675e-05
2.05335e-05
2.37197e-05
3.49281e-05
5.54503e-05
8.63467e-05
0.000111777
0.000135441
0.000153298
3.34091e-05
3.10843e-05
4.21333e-05
6.86799e-05
0.000113719
0.000173378
0.000222731
0.000269112
0.000298996
4.71878e-05
4.22295e-05
5.92363e-05
9.83621e-05
0.000167397
0.000255752
0.000323635
0.000382654
0.000417579
0.000195728
0.000229699
0.000229752
0.000311935
0.000385004
0.000229369
0.000100306
0.00022944
0.000229395
0.000233479
0.000385471
0.000229483
0.000169043
0.000220121
0.00012387
0.000228691
0.000219869
0.000305375
0.000228679
0.000228594
0.000229586
3.01752e-05
0.00022997
0.000105602
0.000229355
0.000220742
0.000172959
0.000100181
0.000387883
0.000410872
0.000220264
0.000235452
0.000182277
0.000229424
0.000240471
0.000229657
0.00010441
0.000229347
0.000159862
0.000229396
1.91506e-05
0.00022946
0.000105655
0.000229944
0.00045122
5.88259e-05
7.03533e-05
0.000115747
0.000239513
0.000229138
0.000381712
0.000229386
0.00014493
0.000107274
0.000229106
0.000229384
2.94606e-05
0.000229399
0.000376616
0.00014254
2.31425e-05
0.00013143
0.000456305
0.000431575
2.68096e-05
0.000228566
0.000260379
0.000230027
0.000229699
0.000232916
0.000185719
0.000232994
0.000114748
0.000242388
0.00033663
0.000231534
2.28263e-05
0.000229678
0.000170198
0.000482237
0.000150428
0.000387996
0.000229286
0.000229785
0.000246999
0.000116025
0.000372038
0.000106589
6.02388e-05
0.000113152
0.000229483
0.000229392
2.08708e-05
0.000232126
0.000478792
0.000151131
0.000285434
0.000237077
5.0019e-05
0.000235925
0.000251702
0.000117953
0.00022983
0.000235707
7.6181e-05
0.000229486
0.00019499
0.000229866
0.000183677
0.000235876
0.000229368
0.000229511
0.00023049
0.000230401
0.000130036
0.000229033
0.000229374
0.000228817
0.000229297
0.000229061
0.000178956
0.000240482
0.000252335
0.000216919
5.3093e-05
0.000215153
0.000204012
0.000186619
0.000217568
0.000207508
0.000229333
0.000146643
0.00011439
0.000231939
0.000229759
0.000231881
2.25243e-05
0.000285663
0.000419331
0.000244316
0.000100082
0.000231278
0.000265014
0.000167569
0.000229343
4.81244e-05
0.000116151
0.000229807
0.00023527
0.000229004
0.000228915
0.000229242
4.35201e-05
0.000238715
0.000302824
7.21552e-05
0.000121153
2.86298e-05
0.000169513
0.000228775
0.000214469
4.146e-05
0.000232513
0.00022913
0.000289893
0.000169917
9.93918e-05
0.000245478
0.00023893
2.58996e-05
0.000209066
0.000164358
0.000236437
0.000229423
0.000234747
0.000219725
0.000161966
4.05704e-05
0.000445696
0.000199031
0.000229526
2.68627e-05
0.000229944
0.000127568
0.000229283
0.000417804
0.000229198
0.000228762
0.000229643
0.00019002
0.000191223
0.000220352
0.000228521
1.81612e-05
0.000229734
0.000228959
0.00022937
4.71946e-05
0.000204767
0.00023
4.33501e-05
0.000229208
0.000204231
0.000217644
0.000229814
0.000105009
0.000231491
0.000217717
0.000229252
0.000228693
0.000111732
0.000228994
0.000174787
0.00023844
0.000229312
0.000189249
0.000229374
6.80749e-05
0.000229073
0.000129195
0.000137393
0.000179478
0.000294305
0.000129516
0.000214376
0.000229407
9.99695e-05
0.000173871
0.000194817
0.000443965
3.08363e-05
0.000228495
0.000228985
0.000241981
4.28819e-05
0.000254453
0.000167756
0.000229891
0.000229514
0.000229474
6.89949e-05
0.000482993
0.000235779
1.59497e-05
0.000233508
3.76331e-05
0.000229365
0.000209663
0.000212011
0.000217346
0.000210819
0.000111922
0.00024477
0.000228623
0.000233421
0.000229388
0.000229394
0.000229291
7.18423e-05
0.000229354
0.000129397
0.000195077
0.000228175
0.000229575
0.000229364
7.30983e-05
0.000231732
0.000234004
0.000159249
0.000177384
0.000173997
0.000228951
0.000229213
7.04641e-05
0.000229008
0.000228855
0.000216869
0.000229149
0.000238163
6.3852e-05
0.000234448
0.000229698
0.000148203
0.000151939
0.000233033
0.000228984
0.000297221
0.000229636
0.000237815
9.08995e-05
0.000229766
0.000111524
0.000249712
0.000119613
0.000230004
0.000229303
0.000238836
0.00022954
0.000240058
0.000214917
0.000229264
0.000106246
0.000242237
0.000419484
0.000229324
0.000235956
0.000229674
0.000122961
2.61991e-05
0.000229085
6.1406e-05
0.000229534
0.000233764
0.000188558
2.7372e-05
0.000231376
0.000208964
0.000109597
0.000228676
0.000235342
0.000229098
0.000140789
0.000228913
0.00018656
0.000271444
0.000236581
0.000229208
0.000222924
0.000228198
0.000298941
0.000232396
0.000459495
2.02713e-05
0.000229938
0.000148087
0.000264816
0.000122861
0.000229627
0.000229221
0.000238115
5.0824e-05
0.000112063
0.00022919
0.000157273
0.000169734
0.000122441
0.000142527
0.000229018
0.000105052
0.000225302
6.22635e-05
0.000236239
0.000177507
0.000229325
0.000109937
0.000230036
0.000132829
0.000206357
0.000229943
0.000297973
0.000134845
0.000219153
0.000229401
0.000229338
0.000229462
7.96231e-05
0.000173345
7.51884e-05
6.98617e-05
0.000253495
0.000229144
0.000100937
0.000250753
0.000214712
0.000117508
0.000229734
0.000151414
0.000240377
0.000228934
0.000228926
0.000122029
0.000228895
4.87582e-05
0.00022938
0.000221032
0.000238164
0.000115387
0.00021265
0.000473405
5.35694e-05
0.000229243
4.8132e-05
0.000201357
0.000249549
0.000227124
2.69189e-05
0.00022929
0.000228824
0.000229814
0.000108688
7.22072e-05
0.000228981
0.000229988
8.94134e-05
0.000181867
2.42831e-05
0.000109713
0.000144012
0.000229205
0.000142454
0.000239588
0.000228644
0.000211674
0.000213303
5.1729e-05
0.000233583
0.000192562
0.000249867
0.000195036
5.1085e-05
0.000265742
0.000157042
9.38375e-05
0.000183472
0.000226701
0.000235105
0.000240897
7.6017e-05
0.000188381
3.54961e-05
0.000229267
4.91517e-05
0.000212616
0.000228518
0.000231312
9.78352e-05
0.000169469
0.000382751
0.000217156
0.000230037
0.000235366
0.000363331
0.000301587
0.000111945
0.000233193
7.33427e-05
0.000133541
2.60945e-05
0.000228721
3.02259e-05
0.000229243
0.000229732
0.000229334
5.01275e-05
9.7186e-05
6.83176e-05
0.000209226
3.90611e-05
8.38165e-05
0.000229636
0.000228712
0.000208634
0.000193394
0.000233444
0.000237833
4.09472e-05
4.5223e-05
2.96835e-05
2.93526e-05
0.000232148
0.000211083
7.4705e-05
0.000229284
2.31116e-05
0.00023553
0.000229615
0.000228977
8.05632e-05
2.7841e-05
0.000229063
0.000229183
0.000229656
0.000491643
2.57498e-05
0.000229885
5.29678e-05
0.000370249
0.000156294
8.37474e-05
0.000228698
4.48972e-05
0.000228956
0.000234967
0.000229392
0.000210866
0.00015071
0.000228543
0.000192213
0.000168351
0.000233549
0.000227401
0.000222804
0.000229414
0.000229437
0.000254753
8.43526e-05
0.000106685
0.00023269
0.000102409
0.000229759
0.000161455
0.00010804
4.65787e-05
0.000178788
0.00025138
0.000189989
9.48546e-05
0.00019276
0.000229177
0.000180988
0.000228762
0.000229687
0.000229096
0.000229571
0.000234174
0.000119665
0.00022935
0.000228752
0.00011181
0.000229278
4.05253e-05
0.000242092
0.000125673
0.000173039
6.45033e-05
0.000229994
0.000229279
0.000229885
1.72078e-05
2.78805e-05
0.000229319
0.000229337
0.000217404
0.000229778
0.000263367
0.000229723
0.000265126
0.000236873
3.05071e-05
0.00014199
0.00013737
6.68659e-05
0.000166226
0.00022938
0.000231839
0.000234878
0.000229716
9.93604e-05
2.58152e-05
0.000223771
0.000217808
0.000121744
0.00010859
0.000229357
0.000229425
0.00022968
0.000137289
0.000182078
8.6911e-05
0.000229447
0.000229293
0.000150522
0.000230454
0.000138872
0.000216459
0.000133158
0.000275123
0.000229289
9.17317e-05
0.000229237
9.2408e-05
0.000229356
0.000331189
0.000156974
0.000234452
2.84545e-05
0.000152841
0.000229887
0.000229991
0.000472405
0.000229008
0.000179434
0.000433172
0.000101284
0.000155239
5.07139e-05
0.000198063
0.00023103
0.00022933
0.000229253
0.000157842
7.64761e-05
0.000117422
0.00022856
0.000229378
0.000101087
0.00022947
0.000233958
0.000236871
0.000233323
0.000153078
7.54817e-05
0.000100445
0.000159641
0.000233212
0.000236832
0.000228618
0.000106802
0.000231344
0.000229254
0.000211618
0.000111868
0.000228956
0.000228914
2.22778e-05
0.000229863
0.000228682
0.000147444
0.000229727
0.000234854
0.000145968
0.000126955
0.000157094
0.000224106
0.000167255
7.15493e-05
0.000125178
7.44794e-05
0.000117445
0.000172457
7.98569e-05
0.00011856
0.000130794
0.000229761
0.000230347
0.000256279
0.000229747
0.00022939
0.000244456
0.000212152
0.000100085
0.000202773
0.00018604
0.000243614
0.000229179
0.000202337
0.000229518
0.000228827
0.000236464
0.000124926
0.00023166
0.000233549
0.000231153
0.000229656
0.000471042
6.29649e-05
0.000424731
0.000231605
0.000230047
0.000189451
8.00082e-05
0.000234205
0.000175424
0.000231235
0.000363948
0.000147456
0.000229248
9.95883e-05
0.000229914
0.000183613
0.00048828
0.000149674
0.000176431
0.000212702
0.000245879
0.00022982
0.000104332
0.000193425
4.69226e-05
0.000204199
0.000228981
0.000233459
0.000229806
0.00015898
0.000229823
6.29687e-05
0.000229494
0.000229418
0.000228992
0.000172076
8.10691e-05
0.000229549
0.000135676
0.000229201
0.000175636
0.000169178
0.000231022
0.000454553
1.54094e-05
0.000123691
0.000236321
0.000217134
0.000188105
0.000120194
0.000196242
9.64464e-05
0.000229219
0.000191534
0.000229338
0.000232277
5.65963e-05
0.000188784
4.23004e-05
0.000220445
0.000230268
0.000235057
0.000229076
7.83084e-05
0.000229622
0.00022323
8.02783e-05
0.000269167
0.000234226
0.000137775
0.000113178
0.00016132
0.000241509
0.000173744
2.86758e-05
9.70878e-05
0.000229411
0.000218605
0.000119602
0.000229501
4.31485e-05
0.000125302
0.000241748
0.000359979
0.000229319
0.000233977
0.000234946
0.000137182
0.000235211
0.000211015
0.000229579
0.000182194
0.000233962
0.000125956
8.30466e-05
0.000110584
0.000181674
0.000228758
0.000159668
6.68681e-05
0.000229224
0.000222043
0.00018673
7.3886e-05
0.000244562
2.83469e-05
0.000247004
0.000129686
0.000140967
0.000252818
0.000228813
0.000247042
0.000229158
0.000168508
2.23407e-05
0.000230043
0.000229283
0.000251787
0.000359759
0.000128215
0.00019773
0.000229574
0.000188931
0.000252954
0.000229508
0.00022961
0.000229819
0.000229332
0.000233362