/*--------------------------------*- C++ -*----------------------------------*\
| =========                 |                                                 |
| \\      /  F ield         | OpenFOAM: The Open Source CFD Toolbox           |
|  \\    /   O peration     | Version:  3.0.1                                 |
|   \\  /    A nd           | Web:      www.OpenFOAM.org                      |
|    \\/     M anipulation  |                                                 |
\*---------------------------------------------------------------------------*/
FoamFile
{
    version     2.0;
    format      ascii;
    class       volScalarField;
    location    "0.301312";
    object      p;
}
// * * * * * * * * * * * * * * * * * * * * * * * * * * * * * * * * * * * * * //

dimensions      [0 2 -2 0 0 0 0];

internalField   nonuniform List<scalar> 
21246
(
-9.19174
-5.10846
-3.35993
-2.40712
-1.67777
-1.18817
-0.917915
-0.774035
-0.702356
-0.671038
-0.631011
-9.27158
-6.90406
-5.55369
-4.29115
-3.11471
-2.25507
-1.71135
-1.37526
-1.17033
-1.05432
-0.96573
-7.38764
-7.04818
-6.50097
-5.55111
-4.42911
-3.40515
-2.61527
-2.07075
-1.71162
-1.46434
-1.29195
-6.4289
-6.48005
-6.30172
-5.797
-5.03069
-4.15093
-3.32549
-2.66565
-2.18791
-1.84794
-1.59614
-5.82192
-5.8708
-5.80278
-5.54959
-5.0797
-4.43087
-3.72046
-3.07661
-2.55952
-2.16326
-1.85568
-5.337
-5.34279
-5.29993
-5.15165
-4.85537
-4.39974
-3.84493
-3.28686
-2.79307
-2.38422
-2.04909
-4.93868
-4.9049
-4.86189
-4.74557
-4.53697
-4.20858
-3.78673
-3.33057
-2.89423
-2.50627
-2.16901
-4.62991
-4.55569
-4.50324
-4.38737
-4.21576
-3.96108
-3.63336
-3.26541
-2.89364
-2.54381
-2.22652
-4.39612
-4.28838
-4.21819
-4.09493
-3.93515
-3.71755
-3.44815
-3.14424
-2.82751
-2.51633
-2.22173
-4.21815
-4.08364
-4.00005
-3.86719
-3.70649
-3.50421
-3.2671
-3.0038
-2.72689
-2.44861
-2.17881
-4.07427
-3.9192
-3.82867
-3.68523
-3.51968
-3.32368
-3.10279
-2.86246
-2.61089
-2.3564
-2.10862
-3.94996
-3.77875
-3.68455
-3.53234
-3.36259
-3.16847
-2.95428
-2.72525
-2.48783
-2.24778
-2.01211
-3.84401
-3.65812
-3.55957
-3.40084
-3.22635
-3.03056
-2.81712
-2.59161
-2.3606
-2.12944
-1.90504
-3.75254
-3.55336
-3.44943
-3.285
-3.10442
-2.90404
-2.6869
-2.45901
-2.22894
-2.00141
-1.78325
-3.6656
-3.45572
-3.34822
-3.1781
-2.99038
-2.78297
-2.55849
-2.32417
-2.08945
-1.86304
-1.64988
-3.58336
-3.36385
-3.25221
-3.07615
-2.87985
-2.66248
-2.42664
-2.1815
-1.93963
-1.71306
-1.5061
-3.50501
-3.27702
-3.16014
-2.97794
-2.77092
-2.53943
-2.28701
-2.02653
-1.77568
-1.54974
-1.35013
-3.42672
-3.19271
-3.07183
-2.88311
-2.66222
-2.41041
-2.13423
-1.85384
-1.59464
-1.37519
-1.19346
-3.34859
-3.11242
-2.98917
-2.79313
-2.55254
-2.26996
-1.96043
-1.65706
-1.39472
-1.192
-1.03639
-3.27309
-3.04258
-2.91973
-2.71177
-2.43696
-2.10497
-1.7518
-1.42957
-1.17861
-1.00796
-0.889973
-3.20878
-2.98717
-2.87436
-2.63907
-2.31688
-1.92422
-1.5139
-1.17238
-0.955566
-0.840905
-0.772731
-3.11654
-3.02573
-2.92541
-2.64666
-2.21506
-1.73001
-1.28572
-0.947888
-0.76431
-0.711831
-0.698744
-3.27459
-3.44505
-2.87934
-2.40032
-1.92384
-1.47057
-1.1041
-0.852725
-0.714598
-0.682885
-0.697364
-4.51446
-2.32048
-2.10043
-1.72686
-1.39179
-1.14843
-0.985597
-0.885479
-0.835374
-0.811269
-0.788704
-1.91828
-1.97431
-1.63883
-1.21178
-0.818359
-0.514443
-0.341223
-0.283139
-0.292553
-0.321643
-0.318371
0.785951
0.325832
0.0587903
0.0144092
0.115199
0.238341
0.287283
0.237782
0.126149
0.00940387
-0.0382187
1.28735
1.09264
0.928517
0.805114
0.778005
0.807905
0.801367
0.692769
0.499993
0.289095
0.168477
1.24211
1.12532
1.06468
0.995444
0.965423
0.982428
0.99681
0.920009
0.713821
0.458406
0.308357
1.05646
0.928901
0.881158
0.81899
0.777913
0.770665
0.790352
0.792929
0.69744
0.495495
0.310334
0.825067
0.657607
0.589317
0.491157
0.403792
0.340888
0.32015
0.351059
0.384863
0.310212
0.1943
0.584363
0.36358
0.260836
0.107762
-0.044713
-0.186789
-0.294
-0.320807
-0.237836
-0.161325
-0.154916
0.336238
0.0656415
-0.0744726
-0.291612
-0.518829
-0.754023
-0.9708
-1.10794
-1.09755
-0.935417
-0.760273
0.101613
-0.222311
-0.395472
-0.680006
-0.984034
-1.3186
-1.65826
-1.93465
-2.05038
-1.92299
-1.61274
-0.0893023
-0.49688
-0.676855
-1.03135
-1.40911
-1.84071
-2.30474
-2.73473
-3.0013
-2.9619
-2.61821
-0.244853
-0.732151
-0.883177
-1.32358
-1.76838
-2.28625
-2.86183
-3.43888
-3.85988
-3.93906
-3.63229
-0.367692
-0.846638
-1.09133
-1.53365
-2.03811
-2.62638
-3.28789
-3.97824
-4.52833
-4.74523
-4.50557
-0.432454
-0.899542
-1.20219
-1.65321
-2.19613
-2.83461
-3.55511
-4.30937
-4.96619
-5.29059
-5.07382
-0.420037
-0.871398
-1.20567
-1.66177
-2.21982
-2.88144
-3.63158
-4.42
-5.13338
-5.52724
-5.42092
-0.342929
-0.76319
-1.10578
-1.55316
-2.10527
-2.76458
-3.51268
-4.2945
-5.00729
-5.45715
-5.44781
-0.195661
-0.5727
-0.907262
-1.33333
-1.86371
-2.50205
-3.22515
-3.97314
-4.64874
-5.10524
-5.19439
0.0243902
-0.303295
-0.619179
-1.0159
-1.51319
-2.11371
-2.78976
-3.48736
-4.11387
-4.53355
-4.62863
0.302716
0.0230596
-0.27044
-0.634618
-1.08811
-1.6311
-2.24781
-2.88384
-3.43961
-3.8097
-3.92942
0.60395
0.363046
0.0922998
-0.23081
-0.626671
-1.10828
-1.65492
-2.216
-2.69625
-2.99963
-3.06118
0.877502
0.673354
0.432372
0.150473
-0.196253
-0.627087
-1.1197
-1.60912
-2.00213
-2.20061
-2.15472
1.1218
0.947859
0.715365
0.424354
0.0588489
-0.364058
-0.800545
-1.20392
-1.49805
-1.59951
-1.47965
1.289
1.08533
0.786805
0.407712
-0.00624331
-0.408055
-0.766677
-1.05449
-1.24959
-1.31542
-1.30437
1.2098
0.920968
0.452001
-0.015631
-0.404793
-0.688181
-0.891366
-1.04376
-1.14826
-1.16637
-1.07591
1.04929
0.139802
-0.404204
-0.749232
-0.914529
-0.981217
-1.01685
-1.04866
-1.0665
-1.04284
-0.962681
16.364
9.75193
6.38633
4.95409
4.1274
3.67961
3.3558
3.06434
2.78544
2.53775
2.39223
23.7723
20.1462
15.9723
12.6796
10.0875
8.12959
6.68389
5.59278
4.74351
4.09896
3.66481
20.3399
20.2054
18.652
16.2897
13.7427
11.3906
9.40458
7.80256
6.54201
5.57258
4.91121
17.4068
18.1463
17.78
16.8168
15.306
13.4513
11.5246
9.75443
8.22931
6.96734
6.03194
15.1308
16.2011
16.2996
16.1614
15.4296
14.1977
12.658
11.0259
9.45883
8.06969
6.98854
13.082
14.2177
14.3784
14.6335
14.4567
13.8232
12.7892
11.5
10.1136
8.77755
7.66168
11.5573
12.3929
12.6917
13.0408
13.1218
12.8748
12.2674
11.3568
10.251
9.08532
8.03026
10.5349
11.1006
11.352
11.6794
11.8426
11.7884
11.4565
10.8483
10.0162
9.06733
8.17539
9.7069
10.1473
10.3231
10.5872
10.7477
10.7679
10.5863
10.1808
9.56509
8.80819
8.06352
8.90409
9.31739
9.46704
9.69112
9.83032
9.87111
9.76334
9.48113
9.01932
8.41525
7.79231
8.33562
8.6728
8.77432
8.95354
9.06061
9.09621
9.01937
8.80728
8.44718
7.95876
7.45273
8.04409
8.23451
8.25191
8.3629
8.41929
8.42924
8.35573
8.17943
7.88571
7.48281
7.06354
7.70463
7.82174
7.79978
7.85942
7.86789
7.84527
7.75973
7.59709
7.34404
7.00212
6.65185
7.27109
7.38399
7.35937
7.39015
7.36383
7.31256
7.21033
7.04952
6.81994
6.51714
6.21586
7.0224
7.04423
6.96685
6.9516
6.88745
6.80772
6.68725
6.52324
6.30903
6.03547
5.76156
6.71899
6.67943
6.57036
6.51736
6.41845
6.31165
6.17364
6.00581
5.80467
5.55744
5.31438
6.28937
6.24287
6.13486
6.05979
5.93489
5.80596
5.65491
5.48688
5.30055
5.08013
4.86192
5.9365
5.83626
5.69498
5.58222
5.4286
5.28022
5.12312
4.96276
4.79652
4.60682
4.42186
5.56467
5.39904
5.21828
5.06455
4.88467
4.72493
4.57504
4.43572
4.29823
4.14288
3.98724
5.10065
4.86938
4.65684
4.47348
4.28423
4.13535
4.01635
3.91589
3.81537
3.69371
3.55084
4.53214
4.2257
3.98656
3.7941
3.62854
3.52903
3.47186
3.4254
3.36398
3.27301
3.14839
3.8479
3.43765
3.20308
3.04818
2.96404
2.96457
2.99168
2.99702
2.96343
2.89168
2.78563
2.73754
2.51627
2.30649
2.28609
2.37679
2.52145
2.61949
2.64837
2.61961
2.54793
2.42229
3.52767
1.8309
1.98385
2.15852
2.32575
2.45764
2.48142
2.42931
2.3553
2.26354
2.11373
-30.2283
-12.2656
-5.98995
-2.73907
-1.03308
-0.0739577
0.43023
0.717684
0.880387
0.968872
1.06411
-53.6704
-32.8039
-23.2817
-15.371
-9.30532
-5.56573
-3.42624
-2.14074
-1.3227
-0.763458
-0.315154
-50.7496
-42.2829
-36.1284
-27.42
-19.0098
-12.7115
-8.43725
-5.68889
-3.90812
-2.70254
-1.81111
-42.8298
-41.7434
-39.4709
-33.4566
-26.0445
-19.1391
-13.559
-9.51007
-6.71292
-4.78915
-3.37845
-36.5575
-37.5951
-37.1474
-34.0095
-28.9484
-23.0528
-17.4731
-12.853
-9.349
-6.80728
-4.95599
-32.4394
-33.7051
-33.614
-32.0228
-28.8389
-24.3951
-19.6091
-15.1581
-11.4272
-8.50499
-6.32532
-29.581
-30.6247
-30.5034
-29.5643
-27.4206
-24.1073
-20.2398
-16.3277
-12.7553
-9.7261
-7.28254
-27.3067
-28.1365
-27.9616
-27.2979
-25.6743
-23.0788
-19.9347
-16.5925
-13.3632
-10.4635
-7.96034
-25.3503
-26.0193
-25.8107
-25.2775
-23.9252
-21.7739
-19.1393
-16.2615
-13.3895
-10.7145
-8.26635
-23.5708
-24.1181
-23.8824
-23.4182
-22.2242
-20.3652
-18.0908
-15.5732
-13.0134
-10.587
-8.27992
-21.91
-22.3485
-22.1065
-21.6838
-20.5849
-18.9222
-16.9039
-14.6638
-12.3641
-10.1669
-8.06758
-20.3387
-20.6539
-20.4248
-20.0163
-18.9785
-17.4602
-15.6306
-13.6055
-11.5197
-9.51448
-7.60568
-18.8334
-19.0266
-18.8393
-18.4019
-17.3995
-15.9905
-14.3
-12.4395
-10.5295
-8.69094
-6.9294
-17.3854
-17.4775
-17.2916
-16.833
-15.8563
-14.5309
-12.9364
-11.1971
-9.4302
-7.74944
-6.15169
-15.9872
-15.9818
-15.766
-15.2812
-14.3696
-13.0806
-11.5467
-9.89389
-8.24147
-6.70145
-5.28407
-14.6303
-14.543
-14.2915
-13.7871
-12.895
-11.6337
-10.1295
-8.53166
-6.97151
-5.56245
-4.33911
-13.3172
-13.1549
-12.868
-12.3452
-11.4501
-10.1883
-8.67684
-7.10391
-5.62127
-4.3403
-3.2658
-12.0522
-11.8149
-11.4922
-10.9444
-10.0241
-8.71977
-7.17048
-5.59557
-4.19332
-3.05609
-2.11352
-10.8315
-10.5236
-10.1585
-9.5678
-8.58543
-7.18784
-5.56337
-3.99791
-2.7116
-1.76739
-1.03118
-9.64686
-9.25997
-8.83534
-8.16454
-7.0561
-5.5141
-3.81891
-2.31351
-1.21314
-0.515109
0.033123
-8.4771
-7.994
-7.47491
-6.65891
-5.36522
-3.682
-1.98629
-0.666755
0.159467
0.587428
0.981492
-6.7579
-6.33947
-5.84044
-4.76932
-3.1964
-1.40412
0.105777
0.990635
1.33756
1.44313
1.64671
-5.43405
-5.91119
-4.8193
-3.24525
-1.40023
0.176622
1.17622
1.64734
1.81829
1.86409
1.9391
-9.54384
-2.89172
-0.902859
0.396879
1.47589
2.06671
2.23333
2.19815
2.13221
2.05152
1.90627
-3.14983
1.36364
2.39897
2.48124
2.12628
1.66354
1.21263
0.803335
0.439794
0.139389
-0.0122895
-24.9613
-12.4024
-7.88272
-4.34299
-2.24734
-1.23299
-0.805126
-0.671262
-0.676556
-0.736689
-0.753531
-28.1682
-20.196
-16.6546
-11.6684
-7.79555
-5.16042
-3.52798
-2.58306
-2.05281
-1.74693
-1.52762
-24.2411
-21.4336
-19.8926
-15.7926
-12.0892
-8.86539
-6.40312
-4.70867
-3.60144
-2.88149
-2.37748
-19.8999
-19.2804
-18.9311
-16.5026
-13.9501
-11.1289
-8.59069
-6.56129
-5.06166
-3.99784
-3.22512
-16.6721
-16.6398
-16.6247
-15.3463
-13.8414
-11.7871
-9.68293
-7.75939
-6.16022
-4.92074
-3.96932
-14.1757
-14.3497
-14.3682
-13.6671
-12.7883
-11.3891
-9.82299
-8.23201
-6.76792
-5.52655
-4.50417
-12.1115
-12.3715
-12.3878
-11.9958
-11.4638
-10.5127
-9.38326
-8.14263
-6.91432
-5.79525
-4.82458
-10.5205
-10.686
-10.6922
-10.4801
-10.1475
-9.49202
-8.67597
-7.72332
-6.72621
-5.76328
-4.88406
-9.31132
-9.35719
-9.33616
-9.20059
-8.96633
-8.49484
-7.89013
-7.15283
-6.34834
-5.53545
-4.7533
-8.30968
-8.27777
-8.24051
-8.13656
-7.95036
-7.59027
-7.12212
-6.53779
-5.88299
-5.20298
-4.54297
-7.49084
-7.37083
-7.31999
-7.23216
-7.07607
-6.78786
-6.40851
-5.9301
-5.38576
-4.80725
-4.23243
-6.87361
-6.66448
-6.59488
-6.4978
-6.34641
-6.09468
-5.76579
-5.35486
-4.88757
-4.38742
-3.88684
-6.40533
-6.13342
-6.0444
-5.9241
-5.75782
-5.51204
-5.20048
-4.82408
-4.4055
-3.96449
-3.52749
-6.01445
-5.69555
-5.58474
-5.43757
-5.25368
-5.00333
-4.69358
-4.33145
-3.94108
-3.54285
-3.15196
-5.67914
-5.32871
-5.19338
-5.0157
-4.80921
-4.54385
-4.22632
-3.86391
-3.48728
-3.12163
-2.78167
-5.37489
-5.00807
-4.84969
-4.64553
-4.41385
-4.13182
-3.78741
-3.40945
-3.03568
-2.6961
-2.39991
-5.07255
-4.69985
-4.51995
-4.29288
-4.03534
-3.72421
-3.35034
-2.95034
-2.57585
-2.26269
-2.01096
-4.76949
-4.39907
-4.20324
-3.95825
-3.67074
-3.31898
-2.90038
-2.47303
-2.10222
-1.82359
-1.63035
-4.4729
-4.11074
-3.9056
-3.64214
-3.31044
-2.89438
-2.4196
-1.96936
-1.61834
-1.38553
-1.24421
-4.17125
-3.83463
-3.62114
-3.32293
-2.91928
-2.41709
-1.89173
-1.44877
-1.14935
-0.974155
-0.869697
-3.79893
-3.56023
-3.3158
-2.94057
-2.43182
-1.85368
-1.32999
-0.960165
-0.746947
-0.636587
-0.555694
-3.68589
-3.40218
-3.00345
-2.46334
-1.85155
-1.27616
-0.846391
-0.605108
-0.473506
-0.367731
-0.144663
-3.15417
-2.32369
-1.78764
-1.28275
-0.85896
-0.57616
-0.469279
-0.474428
-0.496599
-0.499123
-0.405241
20.5628
14.2096
9.96208
7.10423
5.19376
3.8286
2.82181
2.03368
1.39664
0.900536
0.580089
16.3384
16.0979
13.7543
10.9429
8.32783
6.2202
4.58481
3.3183
2.34017
1.61482
1.15358
10.3805
12.2839
12.2068
11.3568
9.57494
7.54728
5.71945
4.21351
3.03083
2.14514
1.57203
5.09306
8.02605
8.85236
9.21871
8.72254
7.52836
6.1159
4.73124
3.5034
2.5264
1.89564
1.38576
4.16595
5.21582
6.4021
6.81146
6.54836
5.73684
4.69206
3.6206
2.69384
2.05549
-1.05724
1.25037
2.10585
3.54877
4.39017
4.75748
4.58398
4.05299
3.31264
2.56386
1.99313
-2.62835
-0.733761
-0.169623
1.26844
2.16593
2.87385
3.13141
3.01669
2.633
2.13923
1.72987
-3.5826
-2.01788
-1.75984
-0.347291
0.373455
1.20666
1.69918
1.88948
1.80508
1.55519
1.31336
-4.31124
-2.89256
-2.89519
-1.57596
-0.934612
-0.130681
0.445299
0.813531
0.948179
0.906222
0.803968
-4.91673
-3.73474
-3.52252
-2.56991
-1.93783
-1.17792
-0.582939
-0.123313
0.154186
0.274505
0.315502
-5.37274
-4.47746
-4.09859
-3.29002
-2.69846
-1.98719
-1.39702
-0.893442
-0.5301
-0.30264
-0.150182
-5.6588
-4.90956
-4.55006
-3.82027
-3.26582
-2.59877
-2.02306
-1.50077
-1.08664
-0.788486
-0.570033
-5.89596
-5.19435
-4.86448
-4.19305
-3.67181
-3.0413
-2.48324
-1.95656
-1.51474
-1.16891
-0.907519
-6.11605
-5.40124
-5.07615
-4.43813
-3.9402
-3.33774
-2.79639
-2.27318
-1.81981
-1.44768
-1.1523
-6.12902
-5.4691
-5.1765
-4.57013
-4.09037
-3.51007
-2.98196
-2.46581
-2.01107
-1.62867
-1.3234
-6.08342
-5.4587
-5.18543
-4.60581
-4.13633
-3.57442
-3.05504
-2.54772
-2.09816
-1.7171
-1.41225
-6.01816
-5.39913
-5.1228
-4.55976
-4.08871
-3.5394
-3.02449
-2.52748
-2.08904
-1.71986
-1.42927
-5.8682
-5.26129
-4.97943
-4.43071
-3.94923
-3.4069
-2.89441
-2.41096
-1.99138
-1.6452
-1.3722
-5.63658
-5.04274
-4.74954
-4.21191
-3.71309
-3.17378
-2.66622
-2.20389
-1.81444
-1.50436
-1.26722
-5.3404
-4.74939
-4.42977
-3.89451
-3.37228
-2.83559
-2.34283
-1.91553
-1.57119
-1.31019
-1.11871
-4.96505
-4.36409
-4.00065
-3.45932
-2.91586
-2.39218
-1.93542
-1.56326
-1.27965
-1.0771
-0.936164
-4.46813
-3.84469
-3.41708
-2.87214
-2.33224
-1.85225
-1.46494
-1.16938
-0.960025
-0.812533
-0.728734
-3.91837
-3.16881
-2.68177
-2.18168
-1.70243
-1.30951
-1.01946
-0.806753
-0.655155
-0.566594
-0.558527
-2.53017
-1.90929
-1.5317
-1.20405
-0.911778
-0.70172
-0.548868
-0.402799
-0.259101
-0.14916
-0.240702
-1.27436
-1.29004
-1.6318
-2.27112
-2.61118
-2.25548
-1.30149
-0.302635
0.283174
-1.28479
-1.3121
-1.48373
-1.86876
-2.07483
-1.74439
-1.1069
-0.350857
0.131154
-1.26831
-1.27831
-1.42966
-1.77894
-1.95987
-1.73859
-1.06588
-0.429131
-0.0200141
-1.2342
-1.23016
-1.36016
-1.62724
-1.73643
-1.47161
-1.0197
-0.496069
-0.154668
-1.33056
-1.4575
-1.7832
-2.37012
-2.5065
-1.95872
-0.869869
0.118743
0.499848
-1.32216
-1.40673
-1.57849
-1.94336
-2.00515
-1.54924
-0.785936
-0.00546202
0.298396
-1.30582
-1.36254
-1.53158
-1.84466
-1.90251
-1.51554
-0.778481
-0.137241
0.118056
-1.25486
-1.30362
-1.45236
-1.68182
-1.68831
-1.32766
-0.782525
-0.276385
-0.0387226
1.78287
2.12847
2.13003
-0.428067
-0.827132
2.08466
-1.18387
1.6682
2.07337
2.03794
-0.853799
1.67543
-0.756919
-0.13278
1.77457
0.76291
-0.150387
-0.388295
0.76342
1.838
0.347915
-1.34094
1.14837
-0.389748
2.18262
-0.135755
-0.754851
-1.18751
-1.85474
-0.964585
-0.149118
0.358336
-0.0639349
1.01521
0.298741
2.13917
-0.365441
2.19071
-0.0673531
1.67934
-1.97727
1.0263
-0.115597
1.16048
-0.912734
-1.47419
-0.139927
-1.17301
0.852727
1.70156
-0.945573
1.68929
0.0176249
-0.108345
1.66352
0.360459
-1.3491
1.63477
-1.84595
-0.0686271
-0.908111
0.0178494
-0.847916
-0.923857
-2.0533
1.83237
-0.571167
1.9334
2.13387
2.03954
-0.354756
3.00934
-0.372244
4.12885
-0.120629
2.92843
-1.34537
1.06605
-0.960529
-1.13328
-0.0677153
-0.912922
1.87318
1.89079
-0.716951
-0.344494
-1.85687
0.00810661
-1.24731
-0.166796
2.15782
1.61694
-1.95758
3.43512
-1.1954
-1.13234
-0.0909279
-0.774038
-1.22316
3.22901
-0.476239
-1.17674
1.7767
-0.277414
-1.08155
2.0853
-0.0207365
1.87201
-0.0555093
-0.255008
1.19561
1.01809
3.02048
-0.625408
-0.123857
1.85087
1.61441
0.932379
1.76152
1.54447
-0.664568
3.78114
-1.01465
-0.186686
-1.52756
-0.802822
-0.0075579
-0.0196894
-0.00787684
-0.049666
1.3825
-0.0660037
-1.17911
2.92309
2.10641
-0.851902
-1.31175
-0.891652
-0.922904
0.978483
-0.0885464
0.171021
-0.998673
1.03549
1.57743
-0.571505
-1.02478
1.88779
2.36462
0.96477
1.18703
2.12335
-0.564895
3.83281
-0.557106
-0.12404
-0.221705
-1.27053
-0.19712
2.00819
-0.678669
-1.10317
3.00832
2.03018
-0.57227
-0.19447
-1.15778
0.117536
-0.830903
-1.98617
-0.0552927
-0.0566322
-0.847
0.139596
0.421273
0.410751
-0.00857747
-0.677867
-0.964384
0.500476
1.79879
-1.35364
2.10678
-0.798281
1.99907
-0.848137
1.18675
0.89229
2.0746
-0.932271
-0.072547
-0.207318
1.72649
-1.91032
2.13
2.15297
2.23371
-1.22148
-0.0515189
1.85149
-1.00515
1.89279
-0.151845
-0.224404
2.10804
0.0157962
3.35656
-0.00793387
1.83617
1.77027
-0.132738
0.8851
0.0145475
0.465919
1.07532
-0.0183667
2.18741
-0.113344
1.32841
-0.322647
-0.0284379
-0.585368
-0.111961
-0.130284
-0.156104
1.52586
-0.777111
-0.144246
-0.0549066
-0.877845
-1.24436
1.69732
1.20564
3.54943
-0.634498
-1.06187
-0.228558
2.11018
1.42535
1.4382
-0.0871176
-0.725315
-0.334592
-1.80658
2.80303
-1.12567
0.995233
-0.312828
-1.09548
-0.0378203
-0.294607
-0.144379
0.0170346
2.05053
-0.56526
2.19447
0.458915
2.20288
-0.751679
1.15691
-0.00856518
-0.969369
1.74282
1.11626
1.17626
-0.177153
0.119729
1.89674
-0.622548
-0.627968
-0.808301
1.32407
1.97082
-0.150906
2.38415
0.931586
-0.245198
2.244
1.05944
-1.10273
3.1113
1.81695
-0.0697869
-0.204132
-0.517739
2.30627
-1.09569
1.52225
0.88841
-0.10595
1.3646
-1.1542
-0.112094
-0.124611
2.11549
1.81424
-0.818896
1.17975
0.397345
-0.299911
1.91054
-0.816551
0.684593
-0.955647
0.501628
-0.306591
1.10322
-0.011362
-1.3492
1.23884
-1.27067
2.072
-0.332059
-0.0528378
-1.41277
1.15959
-0.518203
-1.05972
1.4393
3.9709
1.10067
-0.0307409
0.894935
-0.495034
-0.902248
0.191438
1.00539
-0.522816
1.67335
-0.00663165
1.55292
-0.841961
-1.30226
1.97922
-0.654283
-1.08691
-0.255681
1.11662
2.20985
-0.767883
-1.1247
-0.155278
1.92353
-0.292884
-0.80617
-0.0151715
-0.067705
0.958396
-0.443719
-0.0113905
-1.26706
-0.751896
-0.609816
0.550757
-0.127492
1.85
-0.020851
0.861168
1.13035
-0.0207139
-0.604467
-0.155802
2.17831
1.8682
2.6901
-1.1964
-0.0574605
-0.125841
-1.23942
-0.785426
2.25641
-0.809194
-1.10396
-0.0704424
-0.130233
1.3458
-0.480864
0.266082
2.34098
0.975066
-0.125095
2.1951
-0.73362
1.47949
-0.204586
-0.294897
-0.722418
-0.158664
-0.660546
-1.2161
2.10755
-1.26793
-0.0597229
2.66309
-0.312679
-2.06008
1.0815
1.0507
1.79839
-0.0819949
-0.723353
1.84604
1.97264
-0.0750106
-0.0127117
-2.202
-1.06069
-0.054104
1.84809
-0.0273929
0.33196
0.739969
-0.155786
-0.148752
-0.399629
-0.39549
-0.0791469
4.16029
-0.0294163
-1.23155
-0.812527
-0.031946
-1.19315
-0.0165442
0.357195
-0.1805
3.97567
-0.0368375
-0.934308
-1.94455
0.975303
-0.74837
-0.2698
1.34145
-0.895986
-0.0537772
-0.765569
-0.91885
-0.197413
0.951755
-0.53168
-1.57705
-0.206474
-0.748996
0.576694
-0.095461
-0.0377328
-1.23648
2.12136
-1.0687
2.08299
1.89158
2.19433
-1.21144
-1.06067
-1.24737
-0.0618978
-1.07958
-0.010105
2.01101
2.14975
-0.0138066
-0.0780765
-0.585468
0.461542
-0.0174415
-0.0143807
1.8393
0.90547
1.59663
0.367806
-0.818798
0.863743
-0.974901
0.487383
1.3728
1.30217
1.77239
-1.13186
1.17196
1.95213
0.387602
-0.904114
-1.33928
1.12289
-0.453699
-0.806748
1.10011
-0.0790418
1.9099
-1.08445
2.17973
0.545044
1.50345
-0.00899763
-0.200082
1.74828
-0.274665
-0.0714704
1.89356
-0.589906
-0.501594
1.95654
1.92595
-1.09117
-0.034211
-0.544909
1.46746
-1.19462
0.946482
-0.552636
-0.189315
-1.23641
-0.200881
-0.478517
-0.311276
-0.0821004
-0.270403
0.963286
-0.651571
1.38588
1.83224
2.2973
1.3537
0.322669
-0.132307
1.66764
1.92871
-0.6968
1.93154
-1.56254
-0.822533
-0.00885939
-0.354462
-1.22924
2.10306
2.2275
1.81288
-1.90377
-1.1407
0.991521
2.0395
-0.174258
1.96594
-0.180169
1.96942
-0.00663343
1.0438
-1.31632
-0.0904226
-0.0315546
-1.35781
-0.53754
0.514616
0.0749405
2.27656
1.30827
-0.0514159
-1.24141
1.62456
-0.154008
-0.900892
-1.12178
2.19794
2.38387
2.06026
-0.0355371
-0.207517
-0.0413126
2.01602
1.4129
-0.18612
3.10143
-0.137314
-0.0319554
-0.0437773
-0.824244
1.17027
-0.0232031
2.24096
-0.0767891
2.54999
-0.0925934
-0.0111638
0.514646
-1.42321
-0.165177
1.66372
1.0589
-1.19815
2.01438
-0.630849
-0.709559
-0.101127
-0.0514863
-1.10084
-0.466388
2.16712
1.72974
1.99348
-1.14295
-0.178664
-0.13855
1.79709
2.19113
-1.07989
1.11577
3.74682
0.346235
2.68206
-0.180276
-0.128215
-0.114734
-0.610906
-0.465909
0.0404599
2.01748
-0.440565
2.817
1.90282
-1.11048
-0.147334
0.867405
2.11633
-1.29143
1.72069
2.10186
-0.362535
2.06009
0.123061
-0.332832
-0.125436
-0.570746
-0.0269481
-0.0319324
-1.1423
-0.0306711
-1.10694
-0.535875
-0.472
-1.18239
-0.228138
-0.255162
0.953459
0.578386
-0.914934
-0.398576
0.832842
-0.303422
-0.28458
-0.118569
-1.10318
-0.596246
-1.0653
1.028
-0.113191
2.14143
1.04156
1.41488
-0.610018
2.45222
1.35345
0.740427
1.29323
-0.678735
-0.0750381
-0.868578
2.78543
1.14223
0.878409
-0.0386585
3.82632
-1.04982
3.05058
-0.223921
-0.00852551
1.11251
-0.00883883
2.01269
-0.0648255
-0.852387
-0.171362
-1.13721
-0.676845
-0.633863
1.87042
-0.026013
-0.0827963
-1.23132
-0.0114
0.935221
-0.343582
1.88487
-0.618601
0.796108
-0.44554
2.02774
1.80641
2.28963
-0.778986
-0.114406
2.14103
-0.0116534
2.38631
-0.122474
-0.207292
0.0494302
-0.749162
-1.70249
-0.109144
-0.637387
-0.667613
-0.521353
-0.406819
-0.0556209
-1.19501
0.960767
-0.208428
1.35378
1.45377
-1.28609
-0.966242
-1.10262
-0.127093
3.01818
0.111894
1.50147
-0.0989073
2.02155
0.00267307
-0.100495
0.00518377
-0.068117
-0.515551
-0.0750655
-0.0520088
3.17847
-0.399149
-1.03719
-1.04141
1.22581
-0.16172
-0.892083
2.15702
-1.47312
-0.0323495
4.57007
-0.19336
1.41958
0.679536
1.37388
-0.0419412
3.08809
-0.0767381
2.0888
-0.0702169
2.64023
-0.125814
-0.0461151
-0.152761
-0.0320708
0.866108
-0.764311
-1.32789
1.95118
-0.0723531
-0.466763
-0.0840364
-0.050551
-1.26359
0.0631773
-0.120044
-0.0967921
-0.0335445
0.996421
-0.755582
1.01938
-0.0766873
-1.26972
2.11562
1.74952
-0.402024
-0.802977
-0.0546367
-0.446434
1.63879
-0.204882
-0.300079
0.996318
2.08084
2.02654
1.34423
2.66526
-0.0201066
-1.26211
-0.805159
-0.0628535
-0.898645
2.23383
1.48087
-0.57657
-0.274486
2.12184
-0.767797
-0.244299
-1.20257
-0.211525
-1.20731
0.181278
-0.129201
2.22193
1.38051
-1.51762
1.60541
1.66521
-0.372682
-0.00793194
-0.587939
-0.51259
2.15381
-0.487879
-1.76675
-0.318148
1.61806
-0.0316071
-0.0953045
-0.100418
-0.161601
1.94493
0.972991
-0.387212
-0.14269
-0.0949674
1.88697
0.760526
4.30923
2.57897
1.58097
-0.0605827
-0.479166
-1.51588
-1.19925
-0.0834853
1.93404
-0.898459
2.01367
3.00287
-1.01555
1.46683
2.27855
1.68852
-1.09327
0.00447643
-0.127646
2.28674
-0.159807
2.29137
2.05854
2.41854
2.14845
-0.297596
1.13082
2.1332
2.82401
-1.14105
1.01579
1.92949
-0.959308
-1.05259
1.47914
2.18273
-0.897225
-1.12386
1.13721
-0.820275
-0.148217
-0.190475
1.30297
2.15523
0.177415
0.95999
0.0107119
1.50383
-0.679934
-0.13069
-0.03279
-0.0980548
1.17383
-0.146247
1.70101
1.12774
3.40149
1.42026
1.07922
-0.768123
-1.566
-0.753605
-0.406897
0.00312373
-0.115413
-0.428682
-1.14853
1.0606
1.19572
-0.0194449
-0.0255025
-0.15953
1.78473
-0.828114
2.97917
-0.401588
2.22795
-0.0215176
-0.0897724
-1.0863
-0.300159
1.84251
2.162
-0.117399
-1.30349
-0.00853554
-0.883858
-0.165079
-0.146767
0.577587
-0.00823433
2.38509
2.11233
-0.623593
-1.87149
-0.944513
-1.21227
-0.0328414
-0.149767
-0.0113748
-0.837812
1.91776
-0.15164
-0.00814522
1.99783
0.00601338
2.13324
-0.142637
-0.121221
-0.0578818
1.9901
-0.313522
1.9195
1.66635
-0.0868318
-0.605023
1.11438
2.21938
2.81954
-0.935254
-0.892352
-1.22895
-0.694744
1.89305
-2.17501
-0.129131
-1.31244
1.91282
-0.0488297
-0.074691
1.90917
-0.0446735
0.85199
-0.0917204
-0.510005
-0.444785
-0.640809
1.09719
2.52458
-0.307531
-0.143749
1.13971
-0.0480535
2.15117
-1.05537
-0.00437538
-1.13413
2.1499
-0.0299991
-0.792451
-0.971158
-0.0320656
-0.0971625
1.8619
-0.0128419
-0.917674
1.08453
-0.0272404
-0.0483391
-0.255566
-0.290753
-0.462385
1.75185
2.16545
-1.21041
0.590116
-1.95858
-0.112062
-0.00522452
-0.2476
1.59055
-0.319278
-1.21916
-0.0397235
-0.138944
-0.0934152
2.26656
-0.406394
-0.0280875
2.0002
1.18328
2.0848
-0.163051
-0.0247963
1.897
-0.57938
-0.0601957
-0.0794325
1.20793
-1.25887
-0.973385
0.265004
-0.617074
0.983171
1.99865
0.919036
-1.19858
1.18646
-0.0369325
-0.453494
-1.2025
1.12815
0.527668
1.88547
1.92354
-0.530536
-0.170695
-0.0537005
-0.906154
-1.84377
-0.872415
1.94539
-0.428895
-0.844804
1.95115
-0.0762706
0.00599753
0.598386
-1.20352
-0.714405
-0.162754
0.693402
-0.133334
1.92127
-0.129294
1.24774
-1.09161
-0.801981
3.99144
-1.24105
-0.253852
0.305016
-0.524421
-0.0962286
-1.33047
-0.227286
0.223429
-1.02695
-0.0410114
-0.70367
-1.38334
-0.333753
2.03694
-0.65327
2.43756
-0.536387
-0.171165
-0.804397
0.108561
-0.124426
-0.916194
1.99601
1.85671
0.190378
1.23984
-0.119414
-0.508161
2.39469
-0.164483
-0.878109
1.34027
-0.772061
-1.19977
-0.862468
-1.5773
-1.26014
-0.140296
-0.0609308
-0.0210406
2.01485
2.06662
-0.293701
2.13397
2.11974
-0.526805
1.86481
2.864
-0.165513
3.35282
-1.11622
-0.13591
-0.214855
2.06661
-0.474547
-0.0700276
-0.143303
-1.31886
1.91819
-0.112895
-0.0781871
-0.1055
-0.0155416
0.778843
-0.0460269
1.61854
-0.873463
-0.0449165
0.995677
2.10031
-0.594578
-0.51411
-0.685528
-1.12087
-0.475534
2.32144
2.0901
2.09505
-0.739517
-0.0311894
-0.0783055
-1.16501
-1.00894
2.08001
0.14942
1.68157
2.03468
-1.03811
1.9135
1.13878
-1.85345
-1.26718
-1.18272
-0.827905
1.22562
0.911678
-0.0377343
-0.930752
-0.0750235
-1.12087
-0.368149
2.04749
1.34793
-0.153853
-0.0215411
-0.0752728
-0.143429
2.55139
-0.198458
-0.0244151
-0.197784
0.537306
-0.624433
-0.866845
0.821441
-0.73982
1.0655
1.69525
-0.919754
-0.0920609
-0.488379
0.410771
0.847612
-0.76017
-0.976806
-0.67627
-0.15195
-0.939987
-1.05125
1.63862
-1.18629
-0.879379
2.04692
-0.0119381
-0.111858
1.30817
-0.0406966
2.00131
2.29988
2.51064
-1.76201
-0.00801607
0.914462
-0.0801224
1.99739
1.10206
1.84756
-0.221681
0.959473
-0.155659
-1.04261
2.0536
-0.914903
-1.23843
-0.222196
-0.991052
-0.871949
-0.360806
-0.0116044
1.68943
1.13489
2.14901
-0.100841
1.85823
1.13045
-0.883301
-1.30059
-0.0834951
-0.0905451
0.0014692
0.732652
-0.905062
-1.04133
0.945004
-0.852701
0.852179
-0.0316213
1.46317
-0.0851335
0.354395
1.82377
1.88535
-1.12861
-0.0124634
1.20652
-0.3145
0.914182
-0.0417951
-0.00435289
-0.674794
-0.135238
2.03454
1.75812
0.00207312
-1.69935
-0.139434
-0.0173553
-0.929543
-0.0676991
2.03182
-1.16546
-0.0678256
1.62834
-0.254153
-0.195455
-0.601574
-1.04847
-0.872192
-0.00874177
-0.831486
-1.32762
0.952654
1.7756
-0.0155257
-0.169861
-0.479097
1.07119
-0.828442
2.11982
3.39547
-1.40648
1.88842
1.62113
-1.14742
-0.691702
1.95977
1.82677
2.01531
0.357381
1.24112
3.15861
-0.818574
-0.352394
0.888658
2.05784
-0.434228
1.31805
-0.0381044
2.2799
0.722013
1.6463
-0.463254
-1.0642
-0.199747
1.92732
1.11754
-0.125915
-0.0464259
1.98969
-0.888621
-0.361122
2.3973
-0.781246
-0.147723
-0.974374
-0.588257
-0.745672
1.59775
-0.653023
2.03529
0.404269
4.58673
0.0625476
2.08535
-0.198906
3.67874
-0.895372
2.19372
2.07429
-0.840715
1.16251
2.10619
-0.808325
-0.0377788
-0.477115
2.2537
0.452968
2.05203
-0.0377303
-0.062197
-0.470515
0.311499
-0.54963
-1.08095
1.22544
0.893494
1.17729
0.267241
-0.122469
4.32059
-1.17787
3.79567
-1.33571
-0.0861776
-0.170967
-0.123651
0.960194
-0.492035
2.11796
-0.548155
-0.926786
2.02417
2.05766
-0.0844524
0.11529
0.645641
1.9814
-0.399634
2.20883
-0.580752
-0.948103
-0.127975
-0.209874
0.922589
-0.807228
0.919167
-1.03179
-0.169446
-0.628709
-0.0568303
1.83029
1.15014
1.818
0.830046
-0.386616
0.215979
3.10093
-0.0631786
-0.768977
1.31403
0.296762
-1.1845
-0.386023
1.90414
-0.707792
2.16152
2.19021
-0.331023
2.14595
-0.0962412
-0.1076
0.480068
2.14231
-0.226241
-0.661244
1.87351
-0.0315042
2.3035
3.27553
-0.203554
0.50797
-0.162752
2.01826
3.38919
-1.36141
-0.33879
1.16141
-1.39428
0.459722
1.4331
1.02201
1.20895
0.20406
-0.60946
-0.144531
-0.585862
-1.04689
1.39282
1.98216
-0.632426
-0.00778769
0.565545
-0.00912371
-0.671353
2.65247
0.000145416
1.62088
-0.38545
2.17723
1.90732
-0.0368395
-0.251839
-0.251329
2.19481
2.00113
1.61631
1.79364
1.51763
-0.087191
-0.0691443
-0.735171
-0.836148
-0.0697396
0.0476376
1.32215
1.39171
-0.867149
1.55128
-0.0893575
-1.1192
0.205248
-0.0302508
-0.804708
0.647503
1.87289
-0.72981
-0.69803
-0.358515
0.524525
-0.321598
-0.0537979
-1.09093
-0.0371613
-0.167576
1.20262
-0.318222
-1.14038
-1.19188
-0.608292
-0.490136
-0.0367491
2.07614
1.87241
-0.576219
2.20707
-0.14572
-0.203974
-0.0458207
-0.31611
-0.272732
-0.827357
-1.12172
-0.214592
2.05983
-0.315428
-0.109296
-0.789262
-0.748645
-0.806933
2.01571
-0.835317
2.07486
-0.00245742
-1.11538
-0.574134
-1.14772
-0.102118
-0.0224689
2.42163
4.12196
1.21066
2.26368
2.23676
0.175729
1.29253
-1.07323
3.52775
-0.0432558
-0.351593
0.867283
1.90665
-0.933206
-1.04726
2.11867
-0.105947
1.13425
4.23438
-0.780527
-1.08578
2.08149
0.794868
0.708408
0.98165
4.53427
2.1545
-0.523791
-0.652279
1.9853
-0.595502
2.11102
0.896745
0.7615
2.21928
-0.355614
1.7803
1.5226
0.534367
1.8197
-0.0617411
1.49278
-0.0200223
-0.726808
-1.26349
-0.101783
-0.0317945
-0.041607
-0.0674166
-0.117522
-0.0364844
-0.00754779
1.00979
-0.118356
0.15932
1.8403
2.22694
-0.756454
-0.0434478
-0.0477821
1.90398
-0.453209
3.67023
-0.103494
-0.15155
0.968471
-0.587591
1.84783
-0.051017
2.10204
-1.16671
2.79824
1.86406
-0.379518
-0.0609583
-0.121493
-0.448847
-0.221962
-0.369274