/*--------------------------------*- C++ -*----------------------------------*\
| =========                 |                                                 |
| \\      /  F ield         | OpenFOAM: The Open Source CFD Toolbox           |
|  \\    /   O peration     | Version:  3.0.1                                 |
|   \\  /    A nd           | Web:      www.OpenFOAM.org                      |
|    \\/     M anipulation  |                                                 |
\*---------------------------------------------------------------------------*/
FoamFile
{
    version     2.0;
    format      ascii;
    class       volScalarField;
    location    "0.268945";
    object      epsilon;
}
// * * * * * * * * * * * * * * * * * * * * * * * * * * * * * * * * * * * * * //

dimensions      [0 2 -3 0 0 0 0];

internalField   nonuniform List<scalar> 
21246
(
2298.03
773.168
310.163
116.566
39.4036
12.5867
3.94502
1.23311
0.392473
0.133239
0.0530749
1632.85
455.408
212.663
90.3864
34.4881
12.1611
4.04658
1.29452
0.408301
0.134161
0.0515107
999.317
357.531
178.396
85.474
35.7536
13.3914
4.62478
1.50984
0.478859
0.155431
0.0580517
689.699
263.399
147.047
81.1477
38.1879
15.2654
5.47675
1.83331
0.587157
0.189061
0.0686211
515.697
201.252
113.869
67.1622
34.6654
15.277
5.87432
2.03598
0.651302
0.203093
0.07032
421.298
159.704
92.0309
55.1881
29.0421
13.2802
5.30912
1.91047
0.638617
0.207874
0.0748589
358.23
132.017
76.2807
45.9434
24.4709
11.374
4.66843
1.74152
0.606595
0.205465
0.0757845
312.656
111.855
64.3895
38.6846
20.6852
9.70017
4.05187
1.55363
0.560415
0.197392
0.0778592
279.449
96.807
55.3251
33.0874
17.6915
8.3337
3.52437
1.38229
0.515515
0.1892
0.0776933
254.661
85.5303
48.4686
28.8709
15.4228
7.28329
3.10715
1.24067
0.475978
0.180939
0.0758234
234.998
76.7661
43.1693
25.6558
13.7046
6.48649
2.78606
1.12806
0.442345
0.172457
0.0748518
219.857
69.6688
38.9218
23.1157
12.367
5.87316
2.53924
1.04054
0.415664
0.165906
0.0740828
209.198
64.0498
35.5645
21.1447
11.3514
5.41676
2.35794
0.976761
0.396759
0.161856
0.0737957
201.951
59.8505
33.0177
19.6933
10.6333
5.10663
2.23899
0.936481
0.385602
0.159767
0.0742425
198.152
56.6067
31.0264
18.6069
10.1359
4.91275
2.17283
0.917486
0.382167
0.160135
0.0750223
198.087
54.266
29.5542
17.8678
9.85446
4.83631
2.16209
0.921665
0.387554
0.163499
0.0768002
201.659
53.3276
28.7391
17.523
9.82063
4.89993
2.21928
0.954909
0.404407
0.170766
0.0798813
210.081
54.072
28.5815
17.5789
10.095
5.1761
2.39417
1.04144
0.442616
0.185825
0.0861282
224.839
56.8004
29.2737
18.0726
10.6862
5.69738
2.73356
1.21886
0.524208
0.22059
0.0999461
248.974
62.3173
31.1836
19.1793
11.6814
6.52955
3.29868
1.53611
0.680307
0.291685
0.129465
288.992
72.0982
34.9092
21.1966
13.2261
7.77085
4.18347
2.07949
0.975054
0.438522
0.196627
360.003
87.3712
41.2065
24.5282
15.5347
9.56584
5.52912
2.99197
1.53219
0.750968
0.35846
492.573
112.842
51.4694
30.0116
19.1885
12.3261
7.65874
4.55629
2.5999
1.42942
0.761961
762.301
118.17
57.0754
35.6571
24.5413
17.0367
11.5765
7.6295
4.87578
3.02781
1.83447
2427.4
1456.47
584.632
226.531
72.6246
21.7945
5.99088
1.71843
0.516526
0.167801
0.0647317
2726.12
1619.82
856.811
408.749
173.019
59.7243
12.0234
2.94045
0.841296
0.254897
0.0891593
1764.13
1355.83
892.904
500.257
248.086
102.712
29.388
5.42426
1.39569
0.404123
0.131759
660.346
1172.82
864.312
537.428
294.215
137.169
48.5981
11.5578
2.29542
0.64031
0.211628
556.465
1192.24
882.916
568.942
327.639
164.215
66.5093
19.5905
4.32897
1.00089
0.336464
643.447
1128.87
904.527
599.417
355.307
186.538
82.6165
28.4573
7.45338
1.73975
0.52393
703.782
1021.34
969.711
651.043
384.95
206.205
96.81
37.3813
11.3996
2.94976
0.84255
648.731
808.639
966.881
712.731
419.763
224.499
108.885
45.628
15.7698
4.60701
1.35918
594.382
645.769
889.053
776.124
462.569
243.36
119.279
52.8774
20.2092
6.63575
2.10035
553.759
544.751
783.733
815.923
510.801
263.927
128.56
59.0778
24.4693
8.93414
3.05883
522.324
475.958
689.864
818.547
557.297
286.165
137.327
64.4126
28.4457
11.4092
4.25986
495.454
424.409
612.821
786.525
593.478
307.603
145.157
68.8263
32.026
13.9694
5.67855
474.192
382.456
545.05
728.516
613.312
325.679
151.703
72.4104
35.2329
16.5892
7.32996
457.92
345.179
482.839
660.616
612.968
338.143
156.612
75.3181
38.179
19.2927
9.26632
451.437
315.151
424.266
586.837
591.96
341.547
158.796
77.4898
40.9605
22.1311
11.553
452.612
292.517
370.773
500.598
552.418
333.604
157.286
78.8899
43.8041
25.3072
14.2776
460.205
273.171
321.415
410.075
477.326
316.796
152.095
79.8263
46.9952
29.1024
17.6711
477.232
256.715
273.299
325.461
366.169
292.599
144.97
81.2411
51.3284
34.0769
22.1213
511.556
246.208
228.995
248.627
267.001
247.675
145.67
86.01
58.537
41.5084
28.451
582.91
248.863
194.833
188.491
195.726
198.68
154.374
99.1044
71.301
52.7454
37.7018
754.309
288.309
194.307
169.05
166.541
169.049
152.735
112.526
80.8217
61.1898
44.5658
1341.86
477.777
349.621
291.9
247.908
224.571
185.005
136.034
98.9752
70.1454
47.247
998.47
573.602
609.648
430.958
317.126
229.776
159.874
107.776
70.6912
45.3432
28.455
1222.06
658.891
381.763
236.055
151.385
98.5228
63.9786
41.0578
25.9144
16.059
9.75082
290.461
161.616
25.1182
5.81959
1.6338
0.743319
0.506679
0.426326
0.39437
0.381076
0.376023
441.567
305.606
49.9819
9.1579
2.20146
0.874926
0.53425
0.425863
0.383736
0.36509
0.355828
529.908
320.616
75.119
14.775
2.70262
1.01773
0.566701
0.42785
0.374381
0.349438
0.333582
541.017
300.673
85.6473
18.9565
3.0791
1.14303
0.595678
0.43019
0.36638
0.335861
0.314711
506.054
287.863
90.3026
21.5826
3.62521
1.24372
0.619832
0.432776
0.359982
0.325314
0.30196
451.374
282.417
95.4861
24.9331
4.67146
1.3652
0.643714
0.436591
0.355637
0.317709
0.293429
386.172
281.084
102.296
29.5272
6.32706
1.64738
0.690733
0.442716
0.353568
0.312605
0.287261
317.783
282.174
109.936
34.9044
8.54674
2.14858
0.786972
0.460519
0.355061
0.309685
0.283725
255.234
284.05
119.049
41.2233
11.4304
2.96996
0.969904
0.49753
0.362303
0.309683
0.282207
202.115
285.237
131.085
49.3129
15.3338
4.29712
1.31752
0.575953
0.379453
0.312835
0.282287
157.669
287.05
145.466
59.0983
20.3173
6.24717
1.92036
0.732454
0.416716
0.321327
0.284204
123.412
291.641
161.51
70.0638
26.1351
8.80074
2.8412
1.01186
0.491764
0.340248
0.289049
101.562
296.691
180.096
82.8827
33.0398
12.0604
4.17077
1.47819
0.635205
0.380482
0.299997
91.2749
299.216
201.499
98.5908
41.5992
16.266
6.04431
2.22051
0.896035
0.463145
0.32437
92.5748
302.53
225.325
117.162
51.8558
21.4476
8.5187
3.31134
1.33191
0.620869
0.376661
106.273
304.496
250.771
139.681
64.655
27.9962
11.7761
4.86485
2.02396
0.904729
0.48329
126.814
296.431
272.961
166.826
81.4303
36.7475
16.2193
7.09097
3.10004
1.39573
0.691407
145.991
278.1
285.239
196.708
103.129
48.6521
22.4161
10.3106
4.75442
2.219
1.08059
163.1
252.858
281.379
223.857
129.847
65.0369
31.3892
15.1504
7.35896
3.60203
1.79305
178.53
225.129
259.49
238.251
158.505
86.9933
44.7645
22.8087
11.671
6.00699
3.11359
191.747
191.125
221.424
230.949
182.099
114.6
64.9865
35.5784
19.3016
10.465
5.68045
251.533
173.195
186.799
213.057
197.513
146.753
95.0757
57.3993
33.5194
19.3165
11.0374
293.489
155.835
154.435
159.995
159.662
141.958
112.073
79.6903
52.7871
33.6805
20.8139
549.567
585.413
443.134
370.939
298.05
225.794
162.341
111.342
74.7679
49.8146
32.5242
220.575
89.1943
19.7003
3.98608
1.2859
0.676549
0.496484
0.431308
0.405953
0.398014
0.3995
251.413
68.8498
13.4059
4.16033
1.44049
0.732465
0.518367
0.442061
0.413889
0.406889
0.411786
291.65
87.123
12.9127
4.85621
1.7663
0.87238
0.569152
0.459777
0.41861
0.406449
0.409455
297.06
85.392
12.2496
5.0202
1.82863
0.929638
0.595519
0.467689
0.417502
0.400595
0.401575
286.48
72.5589
11.6214
4.96303
1.82129
0.945444
0.598272
0.464308
0.410007
0.390638
0.389325
273.214
60.3888
10.9488
4.67555
1.73585
0.927796
0.58667
0.454929
0.400372
0.380853
0.379223
261.053
51.1812
10.2949
4.32889
1.63036
0.896056
0.567166
0.441711
0.388776
0.37038
0.370142
249.006
44.3474
9.66978
3.99998
1.53768
0.861243
0.546211
0.427332
0.375944
0.358442
0.359714
240.09
39.3132
9.15286
3.74113
1.47393
0.829139
0.527836
0.413519
0.362628
0.344606
0.345302
234.86
35.8007
8.75789
3.54855
1.43752
0.805248
0.513715
0.401311
0.349757
0.330358
0.330031
233.645
33.5346
8.53106
3.44068
1.42666
0.792763
0.504759
0.391406
0.337915
0.316173
0.313129
235.211
32.0622
8.41305
3.40083
1.439
0.791907
0.501213
0.384272
0.327622
0.302797
0.296508
240.331
31.4819
8.42532
3.42979
1.47901
0.804606
0.504199
0.380635
0.319493
0.290924
0.280698
246.734
33.49
8.90796
3.60071
1.58078
0.843529
0.519932
0.383116
0.315063
0.281694
0.267809
254.981
36.8017
9.85712
3.93479
1.76515
0.922538
0.556701
0.396113
0.316887
0.276773
0.258448
265.859
41.6257
11.4501
4.5142
2.06541
1.0636
0.626185
0.426615
0.328633
0.278232
0.253768
280.218
48.4482
13.9691
5.49235
2.55332
1.30834
0.752379
0.489007
0.358462
0.290671
0.256229
299.975
57.4506
17.7063
7.09193
3.35627
1.73288
0.982766
0.613214
0.424872
0.325312
0.272556
327.881
69.3676
23.1199
9.66799
4.70873
2.48758
1.41606
0.864888
0.571644
0.410958
0.321665
368.898
85.844
31.0908
13.8273
7.04565
3.87465
2.26456
1.39431
0.906022
0.624378
0.458557
433.067
110.111
43.2351
20.649
11.1679
6.49698
3.98529
2.54906
1.69458
1.17145
0.844229
543.519
148.527
62.9109
32.289
18.6393
11.564
7.54169
5.10884
3.57518
2.57985
1.92082
762.593
228.019
103.21
56.1319
34.1571
22.3444
15.3698
10.9958
8.13694
6.21032
4.87529
1405.07
393.123
200.396
124.238
85.3808
61.9925
46.3222
36.1272
29.1492
24.0855
19.9851
1056.64
508.293
228.785
117.132
61.3555
29.9669
13.5472
6.09926
3.06172
1.86108
1.45149
1017.9
529.137
290.762
160.217
87.336
44.0759
19.0439
7.09896
3.13488
1.77344
1.36839
656.16
423.294
286.754
179.552
106.874
58.6459
27.9427
10.8414
3.85415
1.75182
1.24894
296.623
303.869
248.645
177.53
116.197
69.4623
36.6605
16.0249
5.82471
2.12114
1.16036
105.966
212.602
203.997
163.086
116.668
75.5557
43.6225
21.4266
8.6733
3.05751
1.2652
64.9857
146.857
163.53
143.065
110.382
76.7796
47.932
26.0125
11.8188
4.48421
1.63514
53.6015
95.7722
127.524
120.998
99.447
73.5469
49.103
28.9525
14.5547
6.09105
2.23049
39.0401
54.2966
92.5012
98.1246
85.7582
66.8301
47.2391
29.8379
16.3086
7.47558
2.89493
28.5595
32.6226
60.2342
75.59
70.9913
57.9943
43.0525
28.7973
16.8437
8.32801
3.43881
21.1186
21.7782
36.9116
54.5345
56.4118
48.3307
37.4849
26.3082
16.2413
8.52002
3.72289
15.572
15.1945
23.6594
36.4163
42.8999
38.7907
31.3341
22.903
14.7438
8.08384
3.68797
11.6945
10.9392
15.8652
23.8617
30.7964
30.0207
25.2058
19.0678
12.6652
7.1653
3.37764
9.0184
8.12044
10.9735
15.8253
21.167
22.332
19.5253
15.2151
10.3462
5.98788
2.89523
7.06386
6.22813
7.82129
10.6794
14.2708
15.9336
14.5459
11.6529
8.08343
4.77207
2.35932
5.78855
4.96185
5.81344
7.40901
9.61925
11.0001
10.4448
8.61279
6.1136
3.70047
1.88569
4.95259
4.1306
4.56855
5.37612
6.62139
7.50419
7.35427
6.27855
4.61698
2.90884
1.55062
4.40158
3.60036
3.81481
4.14538
4.76879
5.27283
5.31453
4.76447
3.70886
2.48424
1.40097
4.10405
3.28512
3.35082
3.40831
3.71493
4.07971
4.31128
4.16108
3.50629
2.53118
1.51906
3.94632
3.11424
3.02471
2.97403
3.26655
3.84379
4.53847
4.86157
4.41576
3.35273
2.08047
3.99999
3.22665
2.85119
2.94311
3.62661
5.24626
7.34018
8.80665
8.38144
6.35955
3.84536
7.5746
4.28853
3.37484
4.11625
6.5554
12.1725
15.1564
15.6034
14.6445
12.5222
8.74085
14.1176
5.95551
5.56947
11.0495
18.0076
20.4618
19.9444
18.1171
15.9978
14.084
11.7488
19.1801
21.7771
27.9571
31.928
30.3616
26.3098
21.5039
17.0841
13.7505
11.7767
10.5928
151.903
94.0868
66.7776
47.738
34.3201
24.5751
17.5735
12.8639
10.06
8.77411
8.459
1282.38
342.629
176.364
97.2231
52.5906
26.9015
13.0597
6.31935
3.29284
2.00184
1.50874
1014.88
268.208
148.574
93.9203
57.698
32.4061
16.5312
8.02395
4.0228
2.27519
1.56686
505.679
195.172
121.791
89.4823
63.7621
40.2795
22.0249
10.854
5.25386
2.7494
1.70561
182.496
91.3768
78.6464
74.0274
64.0951
47.3329
28.8538
14.9657
7.19447
3.54373
1.96992
53.805
35.1542
37.8301
47.0239
53.5625
49.5847
35.9955
20.8514
10.4098
4.99105
2.57459
23.6961
16.3232
19.1246
26.8206
36.4915
41.9642
37.8645
26.2715
14.7238
7.38606
3.68943
18.5854
12.4041
13.2386
17.4517
25.0915
32.8689
34.5885
27.5575
17.0584
9.11122
4.7717
17.8408
12.0684
11.8797
14.0964
18.9374
25.9713
30.7161
27.6839
18.8136
10.6513
5.74089
18.051
12.3556
11.6632
12.9679
16.0362
21.3147
26.7998
27.0394
20.0589
11.9745
6.76081
18.7014
12.7439
11.7503
12.5165
14.4668
18.3239
23.3238
25.5363
20.9546
13.0484
7.57943
19.7015
13.3585
12.0514
12.2503
13.3721
16.1304
20.35
23.4247
21.0399
14.1238
8.25899
21.1442
14.2198
12.436
12.0594
12.5345
14.3579
17.7111
21.0322
20.3181
14.7183
8.94788
22.7994
15.08
12.8734
12.0216
11.9053
12.8785
15.3277
18.4877
19.0235
14.7917
9.41265
24.6965
16.0027
13.3985
12.0956
11.4292
11.6649
13.2261
15.9223
17.3224
14.4455
9.57779
26.9542
17.0333
14.0349
12.2666
11.0837
10.6933
11.4783
13.5275
15.3508
13.7406
9.57831
29.8396
18.2488
14.8235
12.5492
10.8547
9.93076
10.1065
11.4755
13.2342
12.6959
9.5576
33.7573
19.7535
15.8581
13.0585
10.8427
9.41876
9.11047
9.89406
11.2149
11.3629
9.38605
39.2401
21.7724
17.4391
14.0941
11.2168
9.2003
8.42745
8.7428
9.59585
9.96439
9.1213
47.0839
24.8125
20.0264
15.9014
12.1534
9.3883
8.06255
7.93463
8.39827
8.75451
8.47988
58.0438
29.5
23.6499
18.595
13.8299
10.1109
8.07219
7.44792
7.53965
7.74039
7.64965
70.1516
35.3277
28.2515
22.1368
16.1393
11.3142
8.45772
7.28751
7.00576
6.98554
6.88178
92.4857
43.8099
34.4659
25.7954
18.3588
12.6057
9.06975
7.41748
6.82411
6.64044
6.54964
136.114
66.6253
40.5174
28.0727
19.5714
13.5497
9.7281
7.75864
6.9441
6.68204
6.76505
411.521
76.8272
44.1038
27.8358
19.7081
14.2162
10.5332
8.36826
7.34212
7.05301
7.27988
64.4342
75.1214
81.5546
84.5736
84.3993
84.3301
81.1072
73.5429
63.2102
23.7926
25.0336
26.0264
27.0876
26.3491
25.2135
24.3547
23.1071
22.8695
12.5054
12.6631
13.677
14.5539
14.2194
13.3817
12.4907
11.7409
12.5378
7.16154
7.05287
7.81057
8.31572
8.01937
7.5301
7.0481
6.67715
7.34863
51.7702
34.9798
12.9018
4.50778
3.50682
3.19367
6.22386
27.6325
48.6325
23.418
20.5259
14.4007
5.29961
1.98634
2.99474
9.75731
17.6635
22.2802
14.2886
15.1853
12.9367
5.73456
2.11063
3.38148
8.66512
13.6769
14.4167
8.53023
10.2416
10.3302
5.67327
2.3406
3.41955
7.23105
10.0513
9.16248
0.00901889
0.00829399
0.00834724
0.0759577
0.341361
0.0075564
0.139825
0.00808694
0.00753201
0.00692241
0.357468
0.00812397
0.00769959
0.00558016
0.0146151
0.00728219
0.00532875
0.0685438
0.00724556
0.00709992
0.006629
0.0681298
0.00852217
0.0206535
0.00792389
0.00557614
0.00752082
0.129707
1.39684
0.174137
0.00548498
0.00638184
0.00595479
0.00806542
0.00673715
0.00826401
0.0194297
0.00790771
0.00626176
0.00758656
0.210048
0.00809704
0.0199286
0.00849738
0.806487
0.261066
0.0171994
0.366075
0.00687666
0.00733747
0.148874
0.00760418
0.0181494
0.0206149
0.00732644
0.00665723
0.0643638
0.00762429
1.40763
0.0222737
0.10474
0.0172318
0.424501
0.296956
0.230523
0.00713836
0.0806892
0.00711053
0.00829656
0.00690766
0.00622768
0.0072084
0.033611
0.00811047
0.0680412
0.00714523
0.0721146
0.00827958
0.135866
1.08389
0.0421542
0.290287
0.0079327
0.00838059
0.0068271
0.0334748
2.33316
0.0150921
0.0538666
0.0193431
0.00809205
0.00765769
0.220321
0.00737175
1.03516
0.608312
0.0430416
0.00587331
0.0536088
0.00741703
0.00773689
0.357302
0.00679249
0.0060725
0.0532783
0.00811984
0.00535586
0.00845296
0.00687559
0.00667812
0.00796572
0.00814899
0.00722824
0.0954128
0.0344857
0.00769172
0.00754511
0.00731758
0.0079249
0.00672819
0.0831395
0.00782101
0.00936426
0.00530105
0.249124
0.00665653
0.023402
0.00553522
0.00524789
0.00577869
0.00778148
0.0228376
0.354749
0.00715504
0.00834204
0.00775249
0.05837
0.225861
0.188488
0.00727981
0.0175259
0.00659118
0.261208
0.00868389
0.00751762
0.0234954
0.0131897
0.00713008
0.00713498
0.00705327
0.00714949
0.00766382
0.029649
0.00782983
0.106206
0.0117876
0.0349647
0.0386778
0.00650406
0.0074723
0.00549708
0.0526262
0.00720081
0.0077217
0.0932357
0.00858662
0.0518316
0.00715444
0.00650714
0.223752
0.00562728
0.0063119
0.00773305
0.00644243
0.00637411
0.00637931
0.00696892
0.0289529
0.823343
0.00693714
0.00713594
0.0699708
0.00849705
0.0807106
0.00793921
0.242248
0.0070603
0.00726615
0.0082483
0.155169
0.00674558
0.00567465
0.00718476
0.200581
0.00832449
0.00760693
0.007435
0.0509407
0.00593433
0.00856744
0.019312
0.00731139
0.00652749
0.00564285
0.00838732
0.0149107
0.00732947
0.00523138
0.00740093
0.00740644
0.0224268
0.00759167
0.00827262
0.00667582
0.00791122
0.0230958
0.00797743
0.0275046
0.00712462
0.00958409
0.00670874
0.0683632
0.0463758
0.0348063
0.00526567
0.00764028
0.0540128
0.00857938
0.00634473
0.360574
0.0392762
0.00713213
0.00712124
0.00781034
0.027439
1.94858
0.0567128
0.0084507
0.00814247
0.00809959
0.0270874
0.196978
0.00603751
0.168271
0.00784766
0.0476191
0.00800378
0.00605304
0.517092
0.0498982
0.00600016
0.0222302
0.00967663
0.00726344
0.00598289
0.00746837
0.00672469
0.00786026
0.0145909
0.0070354
0.00950859
0.0088186
0.00738047
0.0081965
0.00795967
0.0162561
0.00658569
0.00732823
0.0175619
0.00694189
0.165548
0.00730021
0.00728765
0.0165247
0.00756182
0.00736146
0.00544041
0.00776039
0.00687761
0.0558831
0.00731483
0.00828713
0.0431362
0.050952
0.0059937
0.00758925
1.43788
0.00824581
0.00679282
0.0149561
0.00834861
0.121924
0.0073627
0.00756779
0.00856415
0.0074306
0.00642459
0.00816171
0.00674647
0.00559074
0.00775668
0.0439654
0.00702877
0.182894
0.00676147
0.00666805
0.00828223
0.0121471
0.0673276
0.00743958
0.0962953
0.00816642
0.00643402
0.00588007
0.0835775
0.00653264
0.00611561
0.0406179
0.00670494
0.00773253
0.00706152
0.0263069
0.00746257
0.00615813
0.175126
0.00685349
0.0077822
0.00551493
0.00708746
0.0476098
0.00703538
0.444162
0.0679616
0.00846761
0.00863223
0.750615
0.0336854
0.0082396
0.00784918
0.00583019
0.0242218
0.0213228
0.00727174
0.00859115
0.143635
0.0124978
0.0297768
0.007536
0.0193555
0.0284915
0.129601
0.00575908
0.00700489
0.00681773
0.0139712
0.00860274
0.00681772
0.00694517
0.00850153
0.052013
0.00985406
0.00565717
0.00800363
0.00798787
0.00728518
0.0514566
0.00598986
0.00958939
0.166598
0.00837416
0.00773837
0.0846908
0.627127
0.00556186
0.013078
0.00831806
0.00904723
0.00669394
0.00752117
0.00707673
0.0402826
0.00755608
0.0201517
0.00766232
0.00565541
0.0840882
0.0429094
0.00526975
0.19173
0.0496661
0.00769798
0.0568899
0.0053292
0.00804487
0.0747047
0.238045
0.00786987
0.00719756
0.00836739
0.0304325
0.0145232
0.00764756
0.00850856
0.0145128
0.00604744
0.237602
0.0930024
0.00990409
0.00730577
0.0256239
0.00697244
0.0071969
0.00610487
0.00601225
0.0462684
0.00637104
0.00678953
0.00860576
0.00588257
0.0438029
0.189098
0.00735656
0.175524
0.00634246
0.00623753
0.00664405
0.00802735
0.0278062
0.0109042
0.239026
0.0078959
0.0202774
0.00566052
0.00662325
0.0071988
0.00761555
0.0491808
0.168474
0.00532147
0.00860034
0.00584439
2.30639
0.0520135
0.0435859
0.00683554
0.00946385
0.0192665
0.0368871
0.00741407
0.0327131
0.00773744
0.00833556
0.00793789
0.0428225
0.015435
0.186198
0.00562744
0.0207618
0.026835
0.00825482
0.0073977
0.0246193
0.00603612
0.00595519
0.00693313
0.137557
0.113819
0.0902243
0.0916647
0.00706196
0.00654062
0.0555625
0.00697269
0.104018
0.00687567
0.00823442
0.00733555
0.0347637
0.0292222
0.00708703
0.00778374
0.00667997
0.345808
0.0699947
0.00845526
0.0242061
0.35474
0.00941784
0.00823275
0.00740702
0.0225268
0.00759846
0.00687268
0.00762555
0.00545944
0.00751899
0.00715051
0.0061004
0.008533
0.00728483
0.00530498
0.00552144
0.00806554
0.00806392
0.585117
0.0082668
0.0369017
0.00703222
0.327216
0.00835747
0.0428401
0.0173265
0.0476399
0.00785468
0.00787345
0.058481
0.0259575
0.0060899
0.00778436
0.00639107
0.00666844
0.00828113
0.00769174
0.00818513
0.00678741
0.0383016
0.00798787
0.00745295
0.0314986
0.0077301
0.207775
0.00654827
0.0104922
0.00669141
0.0522053
0.00856376
0.00786458
0.00841838
0.19185
0.0295433
0.00794976
0.00791193
0.00527621
0.00835044
0.0426101
0.00831419
0.0340473
0.00678179
0.0451572
0.00662697
0.00881434
0.277286
0.0451444
0.00679183
0.00657026
0.00709226
0.00830795
0.00757854
0.03391
0.00720991
0.00573745
0.455626
0.826093
0.00791847
0.00733656
0.00828337
0.0196596
0.067397
0.0193224
0.00808209
0.00752292
0.0517502
0.00723682
0.00731942
0.00536133
0.0107305
0.288078
0.00771285
0.0212553
0.00782125
0.0238321
0.00738299
0.0630658
0.00725691
0.00638981
0.0898517
0.0103707
0.00842568
0.0085482
1.0258
0.007639
0.00627657
0.195923
0.0272198
0.0214316
0.0240871
0.00650879
0.00691216
0.00773257
0.00790331
0.518112
0.0151051
0.0132147
0.00710792
0.00794867
0.0834356
0.00700983
0.00758884
0.00688866
0.00712026
0.00738854
0.0131435
0.0264207
0.0180135
0.00617984
0.0103466
0.00724056
0.0146741
0.00710846
0.00778441
0.52691
0.0281055
0.00755236
0.00757415
0.0569491
0.00674931
0.00737906
0.0193506
0.00831723
0.00675539
0.00865226
0.00718275
0.00828014
0.00539741
0.00684614
0.0619604
0.0181862
0.0321316
0.011289
0.00662562
0.0520956
0.0396614
0.00967537
0.00836422
0.00679517
0.157264
0.00603794
0.00695075
0.00723317
0.00566558
0.0179227
0.496354
0.00606629
0.00791468
0.00769148
0.0126922
0.00811868
0.00723272
0.0069041
0.00993659
0.00702898
0.00703227
0.00684998
0.00825859
0.199846
0.055307
0.34916
0.00710072
0.00696603
0.00754272
0.0118337
0.00761341
0.147781
0.00720805
0.101231
0.0170783
0.00770889
0.00771895
0.0084971
0.00594514
0.251658
0.00742006
0.463728
0.00555985
0.0065661
0.00841729
0.0129061
0.00605609
0.0403923
0.0263388
0.00750819
0.00639118
0.00840369
0.00785026
0.0069039
0.0189039
0.00813151
0.0076208
0.00761976
0.00755821
0.0182502
0.00816118
0.0088335
0.0075091
0.00840229
0.00655427
0.00646589
0.219073
0.144857
0.00706198
0.00629407
0.00583837
0.00689449
0.011365
0.00578893
0.153605
0.00783785
0.00645327
0.00790678
0.00701676
0.0901317
0.00923654
0.0242013
0.00557024
0.00725106
0.00674808
0.00670102
0.0288333
0.00823633
0.0237664
0.0123245
0.0352201
0.00663101
0.0102511
0.018983
0.0219899
0.00770281
0.00746331
0.0298288
0.0418452
0.0080276
0.00567355
0.439223
0.00811399
0.198836
0.0103837
0.00834291
0.0951244
0.00755004
0.00687582
0.00678991
0.00895384
0.00733537
0.0056338
0.00819073
0.00596513
0.00713302
0.00726942
0.00831431
0.024256
0.00662333
0.00722607
0.0484548
0.266005
0.00782208
0.00545414
0.00709101
0.0111371
0.00965367
0.0405635
0.00720966
0.0343182
0.00666491
0.0086352
0.00720424
0.00679601
0.00765797
0.028389
0.0516738
0.00860555
0.0078885
0.00733251
0.350344
0.030254
0.00652455
0.00819946
0.0065655
0.00761202
0.0081369
0.00821567
0.00838201
0.00787478
0.00754771
0.00676877
0.0528262
0.0683991
0.0056421
0.00738752
0.0077058
0.0079292
0.00670361
0.0281964
0.00827647
0.00630194
0.00857022
0.311291
0.0196203
0.0379976
0.00777366
0.0319516
0.00771831
0.00781676
0.240321
0.00714779
0.00816004
0.00727063
0.00914918
0.00589163
0.00581581
0.00813842
0.0110496
0.177255
0.0361927
0.00815493
0.00513268
0.0101601
0.0189078
0.0342299
0.00842945
0.00718126
0.062634
0.0120408
0.0107254
0.00829271
0.00685498
0.00820469
0.00736514
0.00825151
0.0276661
0.00719967
0.195736
0.254546
0.0132014
0.00809882
0.285194
0.00853229
0.00719462
0.00923585
0.00789297
0.00765871
0.00766734
0.0400893
0.0183061
0.0120787
0.00764864
0.0305677
0.00768765
0.00859782
0.00734727
0.00755974
0.00727647
0.00792571
0.00814779
0.00726917
2.00966
0.00754467
0.00712495
0.00851727
0.181215
0.00709901
0.00796455
0.257444
1.79307
0.00694434
0.00744325
0.00917971
0.0316121
0.00846811
0.00808494
0.00684
0.00860665
0.0113884
0.00828041
0.0291832
0.00765821
0.0187662
0.00652385
0.00821201
0.00600445
0.0288519
0.00775014
0.00775141
0.00705392
0.00831603
0.00585275
0.22265
0.00656136
0.00910809
0.0291966
0.0119526
0.00601034
0.0588421
0.00851224
0.00814142
0.00622834
0.0062748
0.00597783
0.00760674
0.221723
0.00723962
0.00885076
0.00730435
0.00547749
0.00627821
0.0557761
0.00586533
0.00693921
0.00804198
0.0854778
0.0628561
0.0219611
0.00667217
0.00858676
0.00697078
0.00776969
0.0308934
0.00753618
0.00830543
0.00624158
0.230788
0.293586
0.0343449
0.00537923
0.00564105
0.0225719
0.575731
0.0080153
0.00707523
0.0265677
0.00760526
0.0199399
0.0079177
0.0174207
0.006734
0.0095509
0.00830315
0.00857637
0.00845527
0.00763514
0.0068068
0.139647
0.00709211
0.00780482
0.00726513
0.00885177
0.00876823
0.0416675
0.007476
0.00686867
0.23742
0.0252418
0.0432538
0.00832473
0.010844
0.00610593
0.00828809
0.0264426
0.00643521
0.0260247
0.0724896
0.00606314
0.00994797
0.00651293
0.00741497
0.0169202
0.0071341
0.00698614
0.0120073
0.00813246
1.78561
0.00896769
0.600107
0.00812818
0.0216555
0.227018
0.213976
0.00890193
0.00631245
0.00855551
0.00512447
0.356468
0.00815541
0.00890714
0.0330169
0.03917
0.0276243
0.0064724
0.00778217
0.00735629
0.0450112
0.00686322
0.213522
0.00774347
0.0101482
0.0689034
0.00828694
0.0145507
0.0445515
0.0300161
0.0175547
0.00958179
0.00757649
0.012245
0.00540891
0.00809948
0.00780458
0.0085646
0.0660723
0.00659819
0.00832675
0.00529202
0.0109954
0.00546755
0.00801968
0.116301
0.0116115
0.00688657
0.00766159
0.00813617
0.00706259
0.00729067
0.231127
0.00696971
0.0177691
0.00612873
0.0542477
0.00796156
0.00694351
0.00796002
0.00753289
0.0425836
0.0928524
0.0159941
0.74476
0.235137
0.608026
0.00686052
0.00732743
0.0435365
0.00838803
0.00694553
0.0186797
0.00684777
0.113424
0.00554458
0.113967
0.00683916
0.00523253
0.00811793
0.0841773
0.00862649
0.55415
0.00631512
0.00833755
0.0465
0.0132304
0.00677874
0.00976128
0.0103256
0.0590443
0.0193415
0.0198744
0.266969
0.00574627
0.100982
0.268594
0.00774038
0.00833255
0.00587821
0.00765958
0.00572082
0.00615987
0.216199
0.00771121
0.0146457
0.743613
0.00752472
0.00715264
0.00696318
0.0081889
0.00742624
0.00615183
0.00701242
0.00651281
0.153515
0.00703036
0.619737
0.0734526
0.00740482
0.164022
0.0463748
0.0169319
0.00751027
0.0175272
0.00768984
0.00803815
0.0701146
0.00751756
0.00824538
0.00598699
0.00809672
0.00747275
0.109509
0.00787255
0.59757
0.0142221
0.0350492
0.00722566
0.0129737
0.0195825
0.0059723
0.260195
0.00776604
0.00784301
0.0334116
0.00612486
0.00757578
0.0304124
0.00816387
0.00747119
0.261349
0.0145478
0.00642545
0.00732999
0.0278083
0.0069283
0.011365
0.0519756
0.0699721
0.00711894
0.00860261
0.00796952
0.00621518
0.00624982
0.0055039
0.031077
1.30623
0.00812749
0.0239254
0.0280435
0.00820466
0.0329814
0.00709039
0.0069453
1.29389
0.040952
0.347309
0.347988
0.00815867
0.00792861
0.0227381
0.374807
0.0315547
0.265973
0.00585223
0.0081736
0.00715328
0.00603241
0.0251927
0.0473874
0.00739084
0.00739503
0.0291906
0.0187914
0.0450696
0.00677754
0.026823
0.297459
0.00635717
0.00554959
0.00726578
0.007173
0.382037
0.00556526
0.00657969
0.0151231
0.00769645
0.00636562
0.200816
0.188307
0.00896997
0.295255
0.00822117
0.00751896
0.217091
0.262682
0.00836058
0.00524883
0.0105626
0.00659164
0.0448751
0.00806559
0.00768772
0.00703094
0.157039
0.00690847
0.00745898
0.0269284
0.00833694
0.00814585
0.00859551
0.00536909
0.00770628
0.01044
0.0152881
0.00814567
0.259904
0.0403106
0.00573001
0.0285328
0.00752853
0.00551846
0.0324535
0.0080172
0.00816252
0.00788123
0.00626039
0.00793578
0.00717344
0.00744677
0.0463342
0.0268435
0.00577015
0.00964582
0.00686582
0.270388
0.0151722
0.00855539
0.00659409
0.0159009
0.00590897
0.006742
0.00697708
0.00665665
0.00682488
0.00794734
0.0451015
0.0169429
0.0240616
0.0173014
0.00859361
0.00714697
0.0296542
0.0125032
0.0101972
0.0075993
0.0336949
0.0206058
0.166941
0.00524859
0.00712663
0.0316406
0.005818
0.00795484
0.996697
0.00566674
0.00672766
0.0414119
0.0384552
0.00581075
0.0427312
0.245363
0.00511418
0.612173
0.522485
0.00789785
0.00711832
0.0187297
0.0876537
0.0104502
0.00811351
0.00667997
0.00839124
0.00751032
0.080757
0.00761811
0.00846357
0.143991
0.0425223
0.00731438
0.00770411
0.00757653
0.00672796
0.00858172
0.0072508
0.00825916
0.00699798
0.00879386
0.00803464
0.0463886
0.00818545
0.0196141
0.00770113
0.0209458
0.00838697
0.00817485
0.0875312
0.110171
0.00705087
0.00780613
0.00655402
0.00788248
0.00826439
0.00877439
0.0062472
0.00741696
0.00599835
0.00837471
0.0287639
0.00552784
0.0279233
0.00848581
0.180139
0.00788384
0.00668783
0.00889657
0.00821568
0.00801972
0.117609
0.00757686
0.216379
0.00789947
0.00799787
0.378312
0.00845167
0.00855261
0.0946447
0.068317
0.0358255
0.00755697
0.0198976
0.00788646
0.0247679
0.00622878
0.144203
0.00730745
0.00564675
0.0209494
0.00763733
0.0321274
0.00695788
0.015347
0.0293503
0.00820495
0.0102304
0.0076633
0.164817
0.00826142
0.00560271
0.0160857
0.00640379
0.00593073
0.00840191
0.0104034
0.026648
0.00752358
0.00811371
0.0204515
0.00685446
0.00682528
0.00688628
0.00553407
0.00789649
0.0336574
0.0263133
0.0079415
0.0188825
0.00797999
0.00668695
0.00697811
1.07598
0.00853448
0.00747216
0.0248269
0.0321515
0.00820583
0.00705976
0.0289724
0.0105341
0.00660689
0.00725489
0.00693607
0.0300011
0.00754859
0.00693163
0.076361
0.00712041
0.00830127
0.00720066
0.00692311
0.00801281
0.00849731
0.00764329
0.0146662
0.00588982
0.013413
0.00812972
0.00567494
0.0623299
0.00690698
0.00755797
0.00765463
0.00734177
0.0411279
0.0136619
0.0057657
0.00845651
0.00738215
0.261902
0.00768496
0.00694171
1.78373
0.00673299
0.00706525
0.00694335
0.00695098
0.00640991
0.006283
0.0146433
0.00552848
0.0434884
0.00706425
0.00759454
0.0117959
0.00523275
0.00748346
0.00644321
0.0054721
0.007305
0.0282382
0.00855919
0.00896317
0.00748892
0.00688929
0.00700618
0.00675301
0.0137448
0.00795488
0.00720986
0.00671304
0.0075666
0.00837555
0.0312649
0.0293013
0.214991
0.00815768
0.020335
0.00674928
0.0075711
0.00746664
0.274542
0.00724632
0.0059227
0.386903
0.00690868
0.049346
0.0610253
0.00686332
0.00809987
0.00705173
0.00534221
0.00587098
0.00683362
0.00926107
0.00824612
0.031059
0.00513373
0.0362711
0.00780843
0.0146544
0.00991546
0.995403
0.00763246
0.00933703
0.00511603
0.00828558
0.00687521
0.0221824
0.00790254
0.01213
0.00533473
0.00718011
0.00583943
0.0133333
0.0134427
0.0230895
0.0380057
0.00780114
0.0677477
0.00732932
0.00644837
0.00598508
0.0486694
0.00840341
0.531498
0.00781207
0.0214203
0.351729
0.00557655
0.0977442
0.0352804
0.0372139
0.00739311
0.00787072
0.00741319
0.00726083
0.00765855