/*--------------------------------*- C++ -*----------------------------------*\
| =========                 |                                                 |
| \\      /  F ield         | OpenFOAM: The Open Source CFD Toolbox           |
|  \\    /   O peration     | Version:  3.0.1                                 |
|   \\  /    A nd           | Web:      www.OpenFOAM.org                      |
|    \\/     M anipulation  |                                                 |
\*---------------------------------------------------------------------------*/
FoamFile
{
    version     2.0;
    format      ascii;
    class       volScalarField;
    location    "0.268945";
    object      k;
}
// * * * * * * * * * * * * * * * * * * * * * * * * * * * * * * * * * * * * * //

dimensions      [0 2 -2 0 0 0 0];

internalField   nonuniform List<scalar> 
21246
(
1.21757
1.71428
1.2485
0.799492
0.471351
0.268288
0.151074
0.0845224
0.0471747
0.026571
0.0157064
0.838593
1.18764
1.00988
0.704918
0.443807
0.264774
0.152778
0.0860535
0.0476784
0.0264522
0.0154069
0.590401
0.989067
0.90451
0.688963
0.458277
0.282087
0.165716
0.0942166
0.0523152
0.0288687
0.0166018
0.477181
0.796708
0.802381
0.673791
0.480906
0.306343
0.183421
0.105577
0.0588699
0.0323521
0.0183763
0.412297
0.653689
0.67105
0.59711
0.455193
0.307161
0.190357
0.111076
0.0617189
0.0333428
0.0184673
0.376288
0.564685
0.583529
0.524247
0.406391
0.282118
0.179702
0.107563
0.0614485
0.0341138
0.019411
0.351518
0.499715
0.516221
0.464439
0.363422
0.255855
0.166406
0.102204
0.0599539
0.0340622
0.0196247
0.33356
0.449685
0.462426
0.414659
0.325506
0.2311
0.152575
0.0956827
0.0575096
0.0335493
0.0201641
0.31976
0.409877
0.419021
0.374108
0.293787
0.209671
0.140023
0.0894038
0.0550134
0.0329368
0.0202183
0.308281
0.376997
0.383721
0.341656
0.268368
0.192284
0.129572
0.0839651
0.0526969
0.0321991
0.01991
0.298561
0.349263
0.35458
0.315477
0.248098
0.178433
0.121152
0.0794547
0.0506398
0.0314251
0.0198802
0.290678
0.325893
0.330221
0.293906
0.231644
0.167324
0.114427
0.0758374
0.0489828
0.0308466
0.0198333
0.284409
0.305957
0.309855
0.276326
0.218573
0.158706
0.109314
0.073155
0.0478343
0.0305349
0.019831
0.279417
0.288721
0.292852
0.262371
0.208706
0.152504
0.105816
0.0714518
0.0472135
0.0304452
0.0200128
0.275673
0.273864
0.278433
0.2511
0.201298
0.148278
0.103724
0.0706621
0.0471337
0.0306277
0.0201901
0.273313
0.26081
0.26623
0.242294
0.19626
0.146033
0.103103
0.0708652
0.0476746
0.0311528
0.0205568
0.272403
0.249098
0.255816
0.235852
0.193714
0.145989
0.104161
0.072233
0.048978
0.0321089
0.0211587
0.272689
0.238717
0.246128
0.230396
0.192957
0.148114
0.107166
0.0750428
0.0512751
0.0337086
0.0222171
0.274363
0.229349
0.236982
0.22547
0.193275
0.15184
0.111882
0.0792766
0.054629
0.0361805
0.0238452
0.277846
0.220743
0.228067
0.220735
0.19429
0.156929
0.118333
0.085173
0.0593433
0.0397945
0.0263197
0.283907
0.212786
0.218952
0.215608
0.19525
0.162768
0.126356
0.0930581
0.0660036
0.0451222
0.0302129
0.294438
0.204918
0.209333
0.209162
0.194871
0.168159
0.135347
0.10311
0.0753696
0.0531246
0.0364609
0.309014
0.196845
0.1976
0.201054
0.192661
0.172282
0.144603
0.11521
0.0880539
0.0649208
0.046459
0.322962
0.19553
0.198265
0.194724
0.188183
0.173607
0.152423
0.12801
0.103494
0.0808906
0.0614073
1.19548
1.91529
1.38279
0.980432
0.631869
0.360583
0.195203
0.104225
0.0563311
0.0309439
0.0179807
1.06785
1.50081
1.33927
1.05754
0.765667
0.486505
0.264866
0.142374
0.0753635
0.0398303
0.0218443
0.791568
1.16053
1.20596
1.03916
0.811404
0.562322
0.338693
0.187875
0.101279
0.0525146
0.0277842
0.436347
1.04836
1.10316
0.995318
0.814889
0.598856
0.388948
0.232973
0.131171
0.0694966
0.0375072
0.423395
1.14188
1.10538
0.979422
0.811271
0.615706
0.421454
0.268018
0.162826
0.0899726
0.0501524
0.499221
1.31481
1.20098
1.00834
0.817916
0.626138
0.443075
0.295161
0.19035
0.114084
0.0659251
0.560795
1.53572
1.45391
1.12317
0.853435
0.639533
0.458724
0.316254
0.213712
0.136975
0.0837366
0.558638
1.46551
1.67596
1.31075
0.92843
0.662814
0.471824
0.332405
0.233307
0.157724
0.102256
0.549441
1.37725
1.82728
1.55563
1.05033
0.702333
0.485883
0.345074
0.249547
0.176349
0.120071
0.541382
1.31345
1.85426
1.79208
1.21309
0.761512
0.503727
0.355785
0.263018
0.193065
0.136408
0.532969
1.26231
1.82363
1.96425
1.39668
0.839844
0.527406
0.366097
0.274465
0.208059
0.152075
0.52325
1.21333
1.77576
2.05711
1.57485
0.930263
0.556047
0.376642
0.284485
0.221607
0.16673
0.512924
1.16493
1.71152
2.07403
1.72407
1.02369
0.588083
0.387999
0.293873
0.234278
0.180876
0.502284
1.10779
1.62671
2.02661
1.82333
1.11043
0.621417
0.400652
0.303548
0.246676
0.19534
0.494824
1.04548
1.52001
1.92815
1.86087
1.17658
0.651463
0.41437
0.314403
0.259541
0.210748
0.48878
0.98989
1.40135
1.76771
1.83304
1.21063
0.673414
0.428898
0.327779
0.27448
0.227447
0.482734
0.933422
1.27633
1.56398
1.69716
1.21381
0.685288
0.445291
0.345546
0.293504
0.247062
0.47724
0.874879
1.14101
1.34589
1.43854
1.18699
0.691641
0.467584
0.372062
0.320067
0.271896
0.474925
0.819835
1.00413
1.1265
1.1769
1.08396
0.726913
0.509122
0.416921
0.361845
0.307068
0.482522
0.78027
0.884808
0.93757
0.966715
0.957151
0.793752
0.592747
0.493413
0.425381
0.357826
0.518928
0.796792
0.849518
0.855574
0.865583
0.871665
0.811394
0.670155
0.5494
0.46726
0.37902
0.661167
1.05938
1.1015
1.05644
0.964671
0.861514
0.723175
0.572078
0.45256
0.350202
0.261762
0.438592
0.884651
0.971534
0.75308
0.577838
0.454171
0.355082
0.27654
0.214211
0.164817
0.125523
0.351599
0.281753
0.238567
0.211967
0.194613
0.179752
0.16342
0.144442
0.123487
0.102053
0.0815648
0.30618
0.356238
0.133146
0.0632801
0.0306225
0.0183091
0.0137298
0.0117724
0.0107381
0.0100668
0.00955545
0.350167
0.487983
0.164907
0.0817294
0.0369046
0.0203324
0.0141115
0.0115916
0.0103275
0.00953556
0.00894479
0.386365
0.472665
0.196217
0.0979075
0.0418835
0.0226044
0.0147154
0.0115872
0.0100696
0.00914564
0.00845354
0.405684
0.436609
0.209909
0.10672
0.0450571
0.024659
0.0153462
0.0116769
0.0099226
0.00887747
0.00810013
0.407277
0.418567
0.216506
0.110474
0.0483175
0.0263831
0.0159588
0.0118337
0.00986434
0.00871825
0.00789566
0.394334
0.413919
0.223847
0.115094
0.0528236
0.0281557
0.0166279
0.0120654
0.00989027
0.0086528
0.00779463
0.370099
0.4182
0.234024
0.122183
0.0583234
0.0306204
0.0176735
0.012389
0.00999898
0.00866762
0.00776194
0.33783
0.430048
0.247018
0.13128
0.0646973
0.0336817
0.0191561
0.0129684
0.0102231
0.00875596
0.00780498
0.301679
0.446544
0.264193
0.142846
0.072274
0.037597
0.021118
0.0138114
0.0105948
0.00894308
0.00792214
0.264949
0.464316
0.287841
0.158504
0.0819657
0.042829
0.0237763
0.0150287
0.0111483
0.00922642
0.00810448
0.229443
0.485451
0.318178
0.178713
0.0941296
0.0495809
0.0273035
0.0167282
0.0119454
0.00963268
0.00835855
0.19835
0.514129
0.355523
0.203409
0.108669
0.057814
0.031772
0.0189995
0.0130547
0.0102016
0.00870045
0.176129
0.547551
0.402091
0.234636
0.126695
0.0680063
0.0374489
0.0220212
0.0145921
0.0109997
0.00916427
0.164898
0.581611
0.459487
0.27546
0.150202
0.0811385
0.0448218
0.0260763
0.0167374
0.0121353
0.00980774
0.166261
0.622932
0.529288
0.327591
0.180333
0.0978203
0.0542354
0.0314089
0.0196842
0.0137464
0.0107209
0.180712
0.667807
0.611622
0.395211
0.220415
0.119878
0.0666195
0.0385295
0.0237596
0.0160543
0.0120428
0.200297
0.698404
0.69765
0.48208
0.275838
0.150763
0.0838401
0.0484402
0.0295483
0.0194305
0.0140139
0.214386
0.708596
0.772194
0.585949
0.351518
0.19488
0.108679
0.0627763
0.0380307
0.0244963
0.0170446
0.222012
0.695703
0.815971
0.693931
0.45029
0.258499
0.146043
0.0847249
0.0511794
0.0324844
0.0219178
0.223113
0.662563
0.814803
0.778089
0.565275
0.347852
0.203834
0.12037
0.0730802
0.0460231
0.0303217
0.216499
0.594285
0.761362
0.808117
0.675243
0.465536
0.293757
0.181177
0.112399
0.0710802
0.046207
0.232371
0.541102
0.689971
0.793642
0.757069
0.602057
0.42637
0.284776
0.185766
0.12085
0.0791339
0.219241
0.452583
0.53886
0.608874
0.636472
0.598396
0.507419
0.393289
0.286857
0.2028
0.140251
0.260148
0.525255
0.536406
0.571356
0.577466
0.551422
0.497865
0.420112
0.337899
0.263458
0.198863
0.241209
0.251189
0.115024
0.0508234
0.0267961
0.0175794
0.0139149
0.0122531
0.0113562
0.0107827
0.0103599
0.217935
0.207618
0.0978712
0.0543606
0.0298894
0.0193822
0.0150794
0.0131787
0.012229
0.01169
0.011347
0.238776
0.22708
0.0956385
0.0635877
0.036181
0.0231335
0.0171562
0.0145241
0.013295
0.0126861
0.0123749
0.257383
0.218354
0.092091
0.0671778
0.0393375
0.026243
0.0195415
0.0163718
0.0148432
0.0140576
0.0136358
0.271183
0.194043
0.0899364
0.0682864
0.0407039
0.0278128
0.020736
0.0174034
0.0158388
0.0151251
0.0148326
0.281361
0.171631
0.0878058
0.0668524
0.0405389
0.0284863
0.02144
0.0181918
0.0167447
0.0162352
0.0162252
0.289407
0.154422
0.0855584
0.0644952
0.0397997
0.0287041
0.0218134
0.0187526
0.017469
0.0171981
0.0175364
0.295285
0.141409
0.0832044
0.0620613
0.0390802
0.0287224
0.02202
0.0191308
0.0179501
0.0178028
0.0182898
0.300459
0.131599
0.0811584
0.0601333
0.03871
0.028692
0.0221886
0.0193997
0.0182567
0.0181598
0.0187631
0.305779
0.124524
0.079604
0.0587403
0.0387107
0.0287658
0.0223924
0.0196185
0.0184515
0.0183404
0.0189755
0.311898
0.119706
0.0787438
0.0581113
0.0390751
0.0290442
0.0226815
0.0198338
0.0185798
0.0183793
0.0188815
0.318621
0.116342
0.0783196
0.0581052
0.0397831
0.029556
0.0230865
0.0200847
0.0186884
0.0183548
0.0187301
0.326255
0.114394
0.0784079
0.0587137
0.04091
0.0303597
0.0236589
0.0204156
0.0188221
0.0183192
0.0185381
0.332776
0.115248
0.0791934
0.0599289
0.0426437
0.0316071
0.0245447
0.0209204
0.0190554
0.018337
0.0183888
0.338266
0.117466
0.0803785
0.0614887
0.0449062
0.0333613
0.0258706
0.0217206
0.0194937
0.0184983
0.0183491
0.342897
0.121111
0.0820671
0.0634232
0.0476712
0.0357306
0.027751
0.0229549
0.0202472
0.018889
0.0184806
0.346806
0.126436
0.0844525
0.0657919
0.05093
0.0388229
0.0303373
0.024814
0.0214881
0.0196482
0.0188792
0.350083
0.133229
0.0876902
0.0686377
0.0546377
0.0426841
0.0337845
0.0275304
0.0234674
0.0210045
0.0197318
0.352855
0.141462
0.0920348
0.0720757
0.0587708
0.0473073
0.0382256
0.0313616
0.0265236
0.0233115
0.0213714
0.35533
0.151247
0.0979151
0.0763642
0.0633746
0.052622
0.0437112
0.0365277
0.0310425
0.0270635
0.0243394
0.357834
0.162574
0.105765
0.0819318
0.068609
0.058505
0.0501059
0.0430435
0.0372805
0.0327541
0.029337
0.361164
0.174801
0.11578
0.0892948
0.0747856
0.0648149
0.0569601
0.050395
0.0448703
0.0402988
0.0366161
0.365871
0.189289
0.12897
0.0994637
0.0826936
0.0717222
0.0636985
0.0574309
0.0523825
0.0482795
0.0449196
0.386239
0.20586
0.156268
0.13101
0.115624
0.104503
0.0955049
0.0918872
0.0916404
0.093047
0.0939048
0.728085
1.2205
1.06551
0.899859
0.689898
0.480687
0.317545
0.211077
0.147793
0.112086
0.096558
0.614433
0.92679
0.948857
0.868643
0.7234
0.539756
0.35949
0.22337
0.148417
0.108428
0.0921716
0.44814
0.678898
0.801977
0.796347
0.711437
0.570172
0.40505
0.256679
0.158808
0.106905
0.086032
0.273634
0.526718
0.670763
0.711125
0.674166
0.574202
0.435198
0.290746
0.179578
0.11265
0.0813119
0.144545
0.435922
0.570112
0.630112
0.625245
0.559861
0.449108
0.318363
0.203145
0.124087
0.0813456
0.10857
0.381746
0.503645
0.562266
0.572868
0.53292
0.448336
0.335927
0.224548
0.13841
0.0854919
0.099507
0.337643
0.459221
0.509314
0.522841
0.498304
0.435046
0.34179
0.239636
0.151941
0.0918391
0.0836919
0.2667
0.406324
0.46222
0.476194
0.459641
0.412033
0.336213
0.245981
0.161401
0.0978213
0.0701681
0.203003
0.332399
0.410384
0.430316
0.418717
0.38221
0.321002
0.243195
0.164844
0.101342
0.0588748
0.162062
0.257078
0.347904
0.381803
0.375859
0.347864
0.298513
0.232324
0.161778
0.101208
0.049114
0.131444
0.200751
0.278036
0.329053
0.331111
0.310459
0.270818
0.214968
0.152814
0.0970892
0.0412945
0.107824
0.159356
0.218717
0.271672
0.28527
0.271327
0.239861
0.193109
0.139397
0.0898636
0.0351067
0.0894083
0.128274
0.172684
0.218
0.239594
0.232206
0.207862
0.169283
0.123841
0.0810736
0.029982
0.0749581
0.104883
0.137944
0.17381
0.196798
0.19524
0.177353
0.146324
0.108766
0.0725484
0.0262128
0.0638173
0.0877497
0.112564
0.140027
0.160397
0.162978
0.151068
0.127132
0.0967574
0.0663069
0.0234125
0.0552573
0.0754426
0.0944447
0.115454
0.132073
0.137636
0.131467
0.11424
0.089978
0.0637467
0.0212918
0.048607
0.0665727
0.0815634
0.0978601
0.112062
0.120548
0.120297
0.109382
0.0898246
0.0655802
0.0197863
0.0438906
0.0601009
0.0723384
0.0862014
0.100644
0.113399
0.119578
0.114407
0.0978949
0.0733796
0.018537
0.0409384
0.0552317
0.0665759
0.0814306
0.100238
0.120072
0.133182
0.132197
0.116253
0.0886362
0.0177081
0.0416357
0.0545525
0.0678424
0.0861942
0.112345
0.137556
0.153013
0.155024
0.141544
0.111434
0.0250922
0.0511509
0.0597059
0.0726976
0.0949651
0.127633
0.150422
0.16497
0.171024
0.164953
0.139054
0.0339949
0.0550563
0.060385
0.0845539
0.121466
0.149868
0.16956
0.181031
0.185399
0.183335
0.16749
0.0354784
0.0652257
0.0962487
0.137116
0.16849
0.188744
0.197048
0.195757
0.190083
0.18514
0.177483
0.10965
0.148903
0.188459
0.215398
0.228168
0.226852
0.214705
0.198062
0.183404
0.175131
0.171839
0.784178
1.16306
1.07795
0.879969
0.659957
0.464364
0.316714
0.217641
0.155026
0.117618
0.0995723
0.555633
0.901076
0.953026
0.872385
0.71146
0.528206
0.368663
0.252423
0.175462
0.127403
0.101511
0.34799
0.701559
0.822527
0.84456
0.762677
0.610031
0.442841
0.305024
0.207706
0.143965
0.106731
0.189397
0.434303
0.622565
0.744611
0.762594
0.67517
0.524765
0.373109
0.254172
0.170628
0.117251
0.0911593
0.224591
0.382415
0.544635
0.664644
0.682693
0.594895
0.455362
0.321704
0.216698
0.143318
0.0558458
0.137366
0.236495
0.365491
0.50097
0.591199
0.589731
0.504233
0.386948
0.276871
0.186904
0.0497929
0.114769
0.180685
0.268953
0.383965
0.491729
0.538653
0.49967
0.409285
0.311367
0.224024
0.0508343
0.112743
0.164819
0.229782
0.316352
0.417149
0.487893
0.482274
0.414671
0.331417
0.251588
0.0533339
0.115854
0.161999
0.215737
0.283425
0.367275
0.443301
0.462209
0.410074
0.337992
0.271703
0.0563467
0.120583
0.163582
0.210662
0.265789
0.335569
0.407234
0.440807
0.404004
0.333721
0.277313
0.0596701
0.126306
0.167064
0.208379
0.253691
0.311792
0.376711
0.417947
0.396174
0.327874
0.272489
0.0635875
0.133951
0.172619
0.207583
0.24443
0.291365
0.347884
0.39273
0.384888
0.321662
0.262195
0.0674719
0.141291
0.178382
0.208393
0.237263
0.272718
0.318927
0.363681
0.368966
0.314976
0.251042
0.0713149
0.148435
0.184626
0.210315
0.231551
0.255844
0.290139
0.330879
0.347433
0.30661
0.240673
0.0751691
0.155378
0.19132
0.213003
0.227167
0.241145
0.263363
0.296556
0.320326
0.294779
0.232651
0.0792836
0.162594
0.198887
0.216636
0.224048
0.228754
0.240175
0.263842
0.288638
0.277932
0.227507
0.0840245
0.170847
0.208204
0.222388
0.223186
0.219321
0.221662
0.236026
0.255811
0.255758
0.221429
0.0896123
0.181143
0.220998
0.232178
0.225927
0.213551
0.207714
0.214044
0.227178
0.231183
0.214398
0.0961415
0.194687
0.238068
0.246274
0.233534
0.212949
0.198807
0.197455
0.20428
0.208395
0.200926
0.102912
0.210179
0.256182
0.264145
0.247231
0.218927
0.195859
0.186379
0.186754
0.188293
0.183961
0.10568
0.222031
0.27297
0.283804
0.264753
0.230041
0.198532
0.180941
0.174879
0.172665
0.168485
0.110214
0.231171
0.286323
0.297842
0.278131
0.240651
0.204011
0.180279
0.169066
0.163922
0.159987
0.115183
0.240247
0.286217
0.296205
0.278438
0.244303
0.208523
0.182521
0.168328
0.161699
0.159797
0.169359
0.253398
0.277037
0.27569
0.260332
0.235443
0.207925
0.185002
0.170463
0.164076
0.163889
0.111619
0.123298
0.130002
0.133131
0.13282
0.132808
0.129593
0.1217
0.110363
0.164599
0.18699
0.205674
0.221948
0.21849
0.20443
0.187634
0.16665
0.140636
0.16762
0.184727
0.206376
0.223293
0.221232
0.207334
0.188353
0.167445
0.149105
0.152883
0.164925
0.183388
0.196209
0.193249
0.182142
0.167659
0.15209
0.138701
0.0964334
0.0739754
0.0378085
0.0188128
0.0159258
0.0149661
0.0236047
0.0635808
0.0927352
0.133906
0.10078
0.0709577
0.0379336
0.0245149
0.0285784
0.0529982
0.0802441
0.110927
0.148991
0.123012
0.0897039
0.0487426
0.0302032
0.0373794
0.0643291
0.0976526
0.127462
0.140179
0.122662
0.095476
0.0564698
0.0362388
0.0448646
0.070283
0.101795
0.123843
0.00442719
0.00460098
0.00461621
0.0136717
0.0356086
0.00438747
0.0115798
0.00454118
0.00438114
0.00423981
0.036333
0.00455214
0.00380347
0.00377142
0.00448371
0.0043018
0.00361946
0.0126614
0.00429091
0.00424609
0.00411123
0.00483615
0.00466669
0.00497593
0.00449337
0.00376834
0.0038225
0.0111666
0.0848935
0.0227394
0.00364911
0.00408416
0.00378894
0.00453438
0.00424155
0.00459231
0.00483978
0.00448875
0.00374745
0.00439594
0.00699276
0.00454366
0.00408286
0.0046597
0.0630715
0.0130499
0.00361659
0.0206535
0.00427542
0.0043263
0.019879
0.00440074
0.00514359
0.00418036
0.00432236
0.00411813
0.00462739
0.00440648
0.0851487
0.0047054
0.00528914
0.00487186
0.0442125
0.0401888
0.00869144
0.0042575
0.0129691
0.00426636
0.00460172
0.00423053
0.00365099
0.00433249
0.00635026
0.0047164
0.0134332
0.00429474
0.00397841
0.00459698
0.0206103
0.0743898
0.00944347
0.0395643
0.00449526
0.00462577
0.00432855
0.00635176
0.102899
0.00427052
0.00702172
0.0049559
0.00454252
0.00441582
0.00764937
0.00438555
0.0737633
0.0279721
0.00918909
0.00393925
0.00619847
0.00442247
0.0046593
0.0216492
0.00416737
0.00398174
0.00722811
0.00455084
0.00348966
0.00464649
0.00383102
0.00418333
0.00450537
0.00455878
0.004311
0.0159014
0.00668371
0.00442421
0.00438469
0.00431413
0.0044932
0.00413883
0.014176
0.00460057
0.00528098
0.00361456
0.0122872
0.0040729
0.00647759
0.00347426
0.00366309
0.00373844
0.0044514
0.00480776
0.0206984
0.00430261
0.00461507
0.0045169
0.00379693
0.0329198
0.0238452
0.00444171
0.00375389
0.00411377
0.0263865
0.00401941
0.00437695
0.00362951
0.00446911
0.00427048
0.00432416
0.00423525
0.0042652
0.00441718
0.00413824
0.00460046
0.0175121
0.00316659
0.00665975
0.00323055
0.00356295
0.00435929
0.0036123
0.00591363
0.00432555
0.004434
0.0147127
0.00384491
0.00826115
0.00436722
0.00414194
0.00850673
0.00379363
0.0034794
0.00442395
0.00405192
0.00407556
0.00394258
0.00357669
0.00393527
0.0639836
0.00391168
0.00426834
0.00458496
0.00465914
0.00974677
0.00449747
0.0341383
0.00423897
0.00429833
0.00458758
0.0222255
0.00379231
0.00381124
0.00427125
0.00676849
0.00460977
0.00440041
0.00435562
0.00584875
0.00375094
0.00467918
0.00322804
0.00432027
0.00371965
0.0037196
0.00462795
0.00428727
0.00436463
0.00366197
0.00434499
0.00433847
0.00551888
0.00439479
0.00400635
0.00420449
0.00448923
0.00542166
0.00450906
0.00455042
0.00425917
0.00362165
0.00378401
0.0120716
0.0097723
0.00672748
0.00358237
0.00441111
0.00728059
0.00382976
0.00378913
0.0442728
0.00338397
0.00425518
0.00425688
0.00459891
0.00386822
0.0805888
0.0107527
0.00464596
0.00455746
0.00454489
0.0045091
0.0284514
0.00397056
0.00591801
0.00459417
0.0052895
0.00451633
0.00387625
0.0347951
0.0109945
0.00386064
0.00546068
0.00506183
0.00429569
0.0039384
0.00436454
0.00413846
0.00447493
0.00337839
0.00423215
0.00373362
0.00451105
0.00432593
0.00457285
0.00450361
0.0036039
0.00411575
0.00438691
0.00557513
0.0036923
0.0166882
0.00431189
0.00431335
0.00357248
0.00438745
0.00432735
0.0036736
0.00444544
0.00426256
0.00705658
0.0043816
0.00460018
0.00958396
0.00988494
0.00393861
0.00439554
0.0797157
0.00458789
0.00423395
0.00344064
0.00461753
0.0115032
0.0044673
0.00350824
0.00467828
0.00435379
0.00412015
0.00456283
0.00424101
0.00372085
0.0044438
0.00795885
0.00434767
0.0235141
0.00414907
0.00418223
0.00459778
0.00454785
0.00448839
0.00435283
0.00775498
0.00456447
0.0040884
0.00380235
0.0046162
0.00409678
0.00375705
0.00698643
0.00412754
0.00454787
0.00423856
0.00675655
0.00435689
0.00360347
0.0272314
0.00422875
0.00445132
0.00370506
0.00423908
0.0104508
0.00425691
0.0454536
0.00369138
0.00465121
0.00372757
0.0436387
0.00658252
0.00458544
0.00447142
0.00392927
0.00411232
0.00528132
0.00430804
0.00402395
0.0150032
0.00458169
0.00586677
0.00437902
0.00490544
0.00736877
0.00909946
0.00389516
0.00371066
0.00416598
0.00415493
0.00468917
0.00378498
0.00398812
0.00466081
0.0112615
0.003837
0.00379951
0.00451676
0.00451143
0.00431241
0.00761092
0.00347816
0.00318546
0.0111728
0.00491364
0.00443914
0.00974127
0.0398459
0.00367076
0.00415772
0.00460871
0.0038987
0.00422662
0.00437525
0.00424201
0.00862614
0.00438525
0.00332217
0.00441725
0.0038091
0.0144793
0.00792212
0.00357166
0.0279844
0.0066749
0.00442718
0.00528121
0.00352102
0.0047165
0.0129378
0.0087702
0.00447711
0.00427881
0.00462331
0.00544767
0.00337037
0.00441108
0.00466277
0.0033965
0.00386711
0.00775417
0.0136525
0.00409015
0.00431825
0.00665681
0.00427755
0.00427612
0.00370339
0.00369422
0.00628777
0.00406652
0.00378218
0.00492382
0.00359543
0.00482691
0.0217985
0.00360929
0.0128854
0.00384771
0.00396015
0.00416511
0.00467897
0.00484927
0.00489108
0.00996225
0.00448459
0.00334702
0.00374495
0.00410094
0.00436989
0.00354761
0.00781409
0.0213026
0.00362469
0.00468853
0.0039007
0.101464
0.0105678
0.00795227
0.00419812
0.00321303
0.00434092
0.00348066
0.00434195
0.00376456
0.00443844
0.00461278
0.00449751
0.00569026
0.00447804
0.0119757
0.00379078
0.00318577
0.0050065
0.00458934
0.00433695
0.00669121
0.00362004
0.00392974
0.0042531
0.00788699
0.00754586
0.00545505
0.00546768
0.00426579
0.00391162
0.00787915
0.00421205
0.0052346
0.00422497
0.00458432
0.00432245
0.00557845
0.00324358
0.00424646
0.00445182
0.00412745
0.0438222
0.00440867
0.00464759
0.00385278
0.041435
0.00404271
0.00336483
0.00433915
0.00358289
0.00439802
0.00421998
0.00440698
0.00372199
0.00360908
0.00426121
0.0037025
0.00399271
0.00436632
0.00366063
0.0037102
0.0045349
0.00453381
0.0415966
0.0034836
0.00654394
0.00425731
0.0199001
0.00461915
0.0076875
0.00457752
0.00603356
0.00382099
0.00469857
0.010515
0.00467533
0.00370168
0.00445176
0.00357345
0.0041171
0.00459839
0.00442574
0.00456996
0.00419252
0.00821021
0.00451188
0.00435317
0.00587584
0.00443615
0.0101989
0.00418102
0.00435778
0.00365396
0.00719115
0.00467821
0.00447624
0.0046378
0.00655628
0.00323649
0.00450049
0.00448957
0.00360777
0.00461807
0.00895597
0.00460761
0.00818211
0.00422152
0.00357941
0.00365064
0.00369671
0.0141206
0.00801914
0.00415859
0.00411199
0.00430712
0.00460573
0.00357429
0.00324906
0.00423401
0.00367973
0.0278854
0.0284732
0.00449189
0.00433094
0.00459853
0.00439966
0.0125626
0.00433684
0.00453988
0.00437799
0.0101195
0.00431453
0.00359441
0.00368052
0.00422708
0.0272848
0.0044316
0.00466844
0.00446374
0.00440207
0.00434072
0.0126729
0.00359046
0.00407804
0.00485229
0.00394942
0.00463993
0.00467393
0.0742364
0.00440948
0.00352517
0.028803
0.00493592
0.00475918
0.00408865
0.00376519
0.00421648
0.00443701
0.00448683
0.027018
0.00353442
0.00417918
0.00424837
0.00450068
0.0128811
0.00422464
0.00448459
0.00423791
0.0043039
0.0036711
0.0033571
0.00483511
0.00565236
0.00400047
0.00509225
0.00428876
0.00454353
0.0042828
0.00445192
0.0341752
0.00640066
0.00438312
0.00439039
0.00376771
0.00415417
0.00433112
0.00562829
0.00460824
0.00419
0.00368193
0.00355729
0.00379727
0.00373027
0.0035927
0.00908073
0.00537971
0.00497612
0.00435725
0.00361921
0.00802502
0.00691842
0.00380332
0.00462105
0.00416672
0.0248861
0.00392491
0.00420597
0.00442298
0.00374333
0.00380451
0.034066
0.00353796
0.00473879
0.00442489
0.00515187
0.00455005
0.00428948
0.00425584
0.00363992
0.00425783
0.00426229
0.00418727
0.00459139
0.0291388
0.006209
0.0432382
0.00428267
0.00421414
0.00398212
0.00330394
0.00449505
0.0163219
0.00431109
0.0180678
0.00536744
0.00443023
0.00369972
0.00465923
0.00378104
0.0347265
0.00365518
0.0297719
0.00361801
0.00423011
0.00463623
0.00390418
0.00362596
0.00500831
0.00698759
0.00437073
0.00407187
0.00463234
0.00371659
0.0041943
0.00356159
0.00455435
0.00440556
0.00440448
0.00383444
0.00371108
0.00456236
0.00368393
0.00437337
0.00382711
0.00357311
0.0040731
0.031472
0.00531633
0.00356261
0.00406173
0.00382316
0.00375022
0.00432441
0.00380388
0.0120122
0.00446759
0.00379956
0.00448801
0.00424794
0.00725697
0.00467411
0.00358653
0.00377022
0.0043167
0.00418989
0.00413059
0.00476017
0.00458403
0.00646982
0.00323569
0.00838369
0.00415134
0.00395823
0.00403397
0.00486027
0.00455827
0.00374986
0.00342383
0.007162
0.00452355
0.00380092
0.0269254
0.0045489
0.010262
0.00383063
0.00480845
0.0172714
0.0043856
0.00421309
0.00420744
0.00371959
0.00439377
0.0036578
0.00457167
0.00377461
0.00431245
0.00354952
0.00344613
0.00570913
0.00384991
0.00428627
0.00768358
0.014186
0.00446306
0.00371542
0.0038336
0.00316282
0.00507149
0.00329829
0.00439344
0.0066413
0.00364309
0.00491464
0.00428057
0.00431851
0.00441511
0.00590533
0.00366044
0.00469003
0.00448245
0.0045282
0.0407412
0.00729557
0.00377009
0.00457441
0.00379667
0.00458242
0.00455533
0.00457814
0.00462682
0.00447861
0.00447128
0.00357924
0.00503712
0.00839497
0.00349018
0.00441822
0.00442994
0.00449466
0.00373965
0.0059868
0.0045961
0.00409929
0.00383931
0.0191135
0.00488606
0.00473266
0.00389415
0.00650149
0.00443355
0.00446168
0.0119556
0.00421725
0.00456281
0.0044416
0.00418322
0.00393543
0.00383857
0.00455596
0.00417721
0.0064977
0.00651255
0.0045613
0.00355027
0.00322113
0.00378122
0.00670992
0.0046398
0.00427363
0.0118831
0.00335154
0.00315293
0.0046004
0.00418629
0.00474633
0.00433618
0.0045896
0.00618358
0.00368485
0.0097335
0.016364
0.00329085
0.00454475
0.0328072
0.0046693
0.00430463
0.00524285
0.00448402
0.00441594
0.00441845
0.00662659
0.0048216
0.00318565
0.00441306
0.00648027
0.00442453
0.00468779
0.00433405
0.00438618
0.00443954
0.00449357
0.00455886
0.0043247
0.0735143
0.00438209
0.00425396
0.00457093
0.0190218
0.00425283
0.00450534
0.036228
0.0665492
0.00421328
0.00444914
0.00341551
0.00654743
0.00465169
0.00454025
0.00422598
0.00400124
0.00348377
0.00459801
0.00566631
0.00350415
0.0054505
0.00367462
0.00457751
0.00378146
0.00564069
0.0044423
0.00457517
0.00426856
0.00460746
0.00393215
0.0108488
0.00417401
0.00419181
0.00739835
0.00319252
0.00392254
0.00831834
0.00466371
0.00455695
0.00358013
0.00382942
0.00379208
0.00440152
0.0219054
0.00431084
0.00366896
0.00430899
0.0036501
0.00350086
0.00709097
0.00381699
0.00420071
0.00452777
0.0162469
0.00425372
0.00622167
0.00424949
0.00351888
0.0043021
0.00420807
0.00773683
0.00438077
0.00460452
0.00351355
0.0097219
0.0390876
0.00354514
0.00367976
0.00379818
0.00533513
0.0338651
0.00451955
0.0043464
0.00702159
0.00439936
0.00533015
0.00449138
0.00475378
0.00363894
0.00403708
0.0046034
0.00376305
0.00464795
0.0044094
0.00377439
0.0219065
0.00424751
0.0044585
0.00432011
0.00452203
0.00462396
0.0048111
0.00454537
0.00418552
0.00780094
0.00431095
0.00350038
0.00460958
0.00422912
0.00375681
0.00460033
0.00473498
0.00407418
0.00502952
0.0118793
0.00395556
0.00364451
0.00409144
0.00434689
0.00360712
0.00374798
0.0042188
0.00435038
0.00455433
0.0754594
0.004175
0.0238502
0.00455289
0.00471362
0.0323481
0.0286059
0.00371015
0.0035058
0.00467579
0.00353684
0.0445699
0.0045608
0.00401994
0.00737564
0.00566309
0.00586989
0.00397705
0.00445126
0.00432438
0.00379514
0.00421146
0.00755935
0.00342361
0.00432826
0.0125505
0.00459995
0.0035059
0.00479047
0.00523735
0.00478843
0.00319889
0.00439141
0.00424572
0.00373194
0.00454416
0.00465691
0.00467839
0.0130745
0.00413323
0.00461154
0.00364363
0.00325179
0.00371709
0.00452124
0.00865089
0.00420365
0.00407231
0.00400247
0.00455509
0.00430712
0.00444836
0.015233
0.00423904
0.00412996
0.0039828
0.00638053
0.00450407
0.00417454
0.00450329
0.00437741
0.00697188
0.0171558
0.00357207
0.0595925
0.0104611
0.0354349
0.00419982
0.00446922
0.00780981
0.00462792
0.00363368
0.00483995
0.00427365
0.00518917
0.00376243
0.0198752
0.00418609
0.00357154
0.00454957
0.0159181
0.00469625
0.0401009
0.00405705
0.00481783
0.00485747
0.00423618
0.00419011
0.00426711
0.00321003
0.00449226
0.00483154
0.00557335
0.02639
0.00374271
0.0167041
0.0139544
0.00404152
0.00461272
0.00383424
0.00451939
0.00364881
0.00368963
0.0313018
0.00387808
0.00342132
0.0590821
0.00437516
0.00427376
0.00428026
0.00457092
0.00350793
0.00359635
0.00425182
0.00368985
0.019375
0.00426342
0.0538432
0.00733102
0.00443687
0.00568973
0.00383138
0.00361733
0.00351645
0.00530469
0.00442456
0.00452639
0.0125731
0.00437334
0.00458722
0.00385187
0.00454334
0.00443526
0.0193925
0.00462856
0.0354542
0.00419091
0.00667487
0.0042843
0.00441095
0.00412276
0.00378152
0.0139819
0.00444646
0.00341356
0.00633119
0.00374054
0.00369089
0.00527966
0.00394204
0.0042393
0.0353946
0.00472448
0.00405467
0.00431614
0.003928
0.00378788
0.00426275
0.00627392
0.0115947
0.00425647
0.00468915
0.00450644
0.00405644
0.00382063
0.00368933
0.00324348
0.0717438
0.00476449
0.00586283
0.00555614
0.00457573
0.00383527
0.00424357
0.00421102
0.0808733
0.00460692
0.0213113
0.0427602
0.00456205
0.00449413
0.00480433
0.0443405
0.00733396
0.0222414
0.00372972
0.00456673
0.00426772
0.00378189
0.0066765
0.00654266
0.00359416
0.00434166
0.00634866
0.00413271
0.00724877
0.0041632
0.00550949
0.03579
0.00403868
0.00380758
0.00429968
0.00436869
0.0450977
0.00377824
0.00399093
0.00459872
0.00462643
0.00410895
0.0266964
0.0279316
0.00344299
0.0393429
0.00456163
0.00437733
0.0149653
0.03634
0.00461997
0.00350096
0.00314456
0.00411346
0.0100651
0.00453426
0.00442447
0.00426286
0.00563055
0.00346053
0.00435593
0.00479022
0.00461318
0.00455807
0.00468819
0.00365196
0.00442893
0.00395279
0.00429577
0.00455767
0.0300084
0.00476326
0.00374899
0.00344251
0.00445128
0.00371734
0.00539361
0.00452054
0.00456304
0.00448073
0.00371993
0.00449618
0.00427216
0.00437271
0.00344345
0.00515791
0.0037847
0.00351403
0.00427551
0.0371266
0.00428177
0.00467579
0.00419743
0.00458642
0.00359955
0.00413775
0.00364107
0.00412082
0.00419731
0.00449993
0.00499647
0.00532422
0.00546656
0.00457859
0.00468828
0.0036786
0.00757308
0.00349072
0.00331085
0.00439764
0.00548796
0.00486273
0.00574684
0.00356726
0.00393507
0.00382008
0.00379358
0.00450204
0.0730653
0.00349267
0.00414425
0.00598249
0.00570101
0.00353334
0.00700587
0.0344573
0.00353449
0.0552991
0.0345824
0.00448519
0.00426393
0.00427196
0.016468
0.00399871
0.00454856
0.00420091
0.00462896
0.00446812
0.00460359
0.00440255
0.00465062
0.0132963
0.00786812
0.00432098
0.00442771
0.00439317
0.00416068