/*--------------------------------*- C++ -*----------------------------------*\
| =========                 |                                                 |
| \\      /  F ield         | OpenFOAM: The Open Source CFD Toolbox           |
|  \\    /   O peration     | Version:  3.0.1                                 |
|   \\  /    A nd           | Web:      www.OpenFOAM.org                      |
|    \\/     M anipulation  |                                                 |
\*---------------------------------------------------------------------------*/
FoamFile
{
    version     2.0;
    format      ascii;
    class       volScalarField;
    location    "0.540673";
    object      nut;
}
// * * * * * * * * * * * * * * * * * * * * * * * * * * * * * * * * * * * * * //

dimensions      [0 2 -1 0 0 0 0];

internalField   nonuniform List<scalar> 
21246
(
3.05453e-05
0.000154869
0.000254922
0.000347024
0.000390988
0.000386421
0.000384549
0.000441414
0.000545967
0.00063983
0.000644955
2.22067e-05
9.30185e-05
0.000174562
0.000260114
0.000321914
0.000340147
0.000341631
0.000394463
0.000498636
0.000579235
0.000577212
1.75817e-05
6.98231e-05
0.000134641
0.000206586
0.000268505
0.000299488
0.000306844
0.00033563
0.000427627
0.00052489
0.000518777
1.44919e-05
6.48752e-05
0.000115387
0.000174855
0.000231272
0.000266937
0.000280756
0.000298575
0.000357656
0.000452675
0.000473879
1.31664e-05
6.64203e-05
0.000107882
0.000157072
0.000206323
0.000242027
0.000260337
0.00027525
0.000312059
0.000383032
0.000422397
1.34899e-05
6.56405e-05
0.000104404
0.000147121
0.000189712
0.00022344
0.000244296
0.000259362
0.000284738
0.00033401
0.000373715
1.35063e-05
6.51318e-05
0.000101787
0.000140513
0.0001787
0.000210073
0.000232252
0.00024855
0.00026916
0.000305032
0.000338264
1.35079e-05
6.40349e-05
0.000100294
0.000135641
0.000171858
0.000201412
0.00022451
0.000242704
0.000262488
0.000291378
0.000317363
1.34171e-05
6.22594e-05
9.95368e-05
0.000133632
0.000168631
0.000197702
0.000222119
0.000242893
0.000263821
0.000288802
0.000308237
1.32206e-05
6.02135e-05
9.98047e-05
0.000134757
0.000169919
0.000199764
0.00022638
0.000250043
0.000272021
0.000293148
0.000306306
1.30296e-05
5.84063e-05
0.000101417
0.000139105
0.000175551
0.000207807
0.000237207
0.000262894
0.000283928
0.000299854
0.000307064
1.28962e-05
5.71437e-05
0.000103831
0.000144751
0.000184104
0.000219602
0.000251291
0.000277005
0.000294885
0.000305505
0.000308891
1.27586e-05
5.57759e-05
0.000105417
0.000149632
0.000192247
0.000230625
0.000263372
0.000287651
0.000302189
0.000309368
0.000311479
1.25648e-05
5.40623e-05
0.000105552
0.000152269
0.000197436
0.000237749
0.000270833
0.000293932
0.000306679
0.000312592
0.000314877
1.22714e-05
5.28344e-05
0.000105184
0.000153318
0.000200071
0.000241633
0.000275208
0.000298286
0.000310836
0.000316734
0.000319755
1.18593e-05
5.18208e-05
0.000104406
0.000153275
0.000201108
0.000243878
0.000278604
0.000302767
0.000316042
0.000322088
0.000325132
1.13333e-05
5.04616e-05
0.000102701
0.000151936
0.000200812
0.000245219
0.000281944
0.00030806
0.000322444
0.000328203
0.000330229
1.06278e-05
4.88187e-05
0.000100125
0.000149337
0.000199377
0.000246042
0.000285577
0.000314204
0.000329642
0.000334289
0.000333798
9.7369e-06
4.67132e-05
9.64411e-05
0.000145421
0.000196981
0.000246331
0.000288921
0.000320005
0.000335891
0.000338027
0.000332561
8.65603e-06
4.39994e-05
9.19109e-05
0.000141069
0.000193207
0.000241662
0.000284145
0.000317284
0.000334611
0.000334751
0.000323871
7.34548e-06
4.24459e-05
9.28851e-05
0.000134098
0.000158783
0.000177945
0.000213897
0.000262981
0.000299453
0.000309477
0.000300745
7.59623e-06
4.52178e-05
5.88749e-05
5.74737e-05
7.91824e-05
0.000105935
0.000132063
0.000157572
0.000192921
0.000229236
0.000244319
5.95676e-06
1.73918e-05
3.35389e-05
5.99424e-05
9.47618e-05
0.000131346
0.000159465
0.000168964
0.00015917
0.000152904
0.000163561
9.37641e-06
2.54516e-05
5.63068e-05
0.000102019
0.000155045
0.000204066
0.000237299
0.000247328
0.000228056
0.000183585
0.000146613
2.88259e-05
0.000228415
0.00035931
0.000424589
0.000431922
0.000407945
0.000403546
0.000468337
0.000593509
0.000708823
0.00071625
1.65134e-05
0.000157248
0.000312074
0.000411315
0.000449334
0.000438871
0.00042672
0.000485588
0.000632301
0.000789977
0.000839656
1.20355e-05
9.27995e-05
0.000235113
0.000360657
0.000440387
0.000460426
0.000444689
0.000484032
0.000644403
0.000856131
0.000978348
1.22788e-05
6.18544e-05
0.000172329
0.000301352
0.000409095
0.000464925
0.000455286
0.000456402
0.000606499
0.000864017
0.00107313
1.40048e-05
6.32486e-05
0.00015291
0.000266166
0.000381104
0.00046551
0.000477665
0.000416688
0.000455617
0.000720313
0.00105716
1.58837e-05
7.1188e-05
0.000159614
0.000263503
0.000373527
0.00046917
0.000513251
0.000469428
0.000397021
0.000521526
0.000885707
1.77793e-05
8.13196e-05
0.000173173
0.000273169
0.00037747
0.000476631
0.000542376
0.000529713
0.000435885
0.000409238
0.000678763
1.9692e-05
9.22422e-05
0.000189178
0.000287186
0.000385126
0.000481921
0.000560542
0.000578723
0.000498902
0.000397617
0.000492907
2.14743e-05
0.000103904
0.000206572
0.000303132
0.000393775
0.000482595
0.000564356
0.000607901
0.000555627
0.000434743
0.000395918
2.30718e-05
0.000116169
0.000224168
0.00031924
0.000402263
0.000479133
0.000554759
0.000613598
0.000594042
0.000480933
0.000378086
2.44455e-05
0.000127598
0.000240528
0.000334323
0.000409948
0.000473268
0.00053638
0.000600301
0.000612162
0.000520083
0.00039187
2.56717e-05
0.000137934
0.000256645
0.000347357
0.000415776
0.000466225
0.000514492
0.000575126
0.000612631
0.000546184
0.000413271
2.67138e-05
0.000147018
0.000269353
0.000357828
0.000419019
0.000458356
0.000492686
0.000540042
0.000590815
0.000559551
0.000431157
2.74919e-05
0.00015559
0.000280624
0.000366046
0.000419766
0.000449
0.00047202
0.000506116
0.000545778
0.000545713
0.000445549
2.79276e-05
0.000163166
0.000290402
0.000372481
0.00041861
0.000437939
0.000449986
0.000471523
0.000498338
0.000507418
0.000454681
2.80237e-05
0.000170254
0.000299614
0.000378326
0.000416794
0.000426274
0.000427338
0.000437301
0.000454261
0.000466295
0.000445764
2.77607e-05
0.00017707
0.000309157
0.000385175
0.000416361
0.00041627
0.000406084
0.000403952
0.000413304
0.000423014
0.000415628
2.70577e-05
0.000183817
0.000320361
0.000395734
0.000421127
0.000412409
0.000390851
0.000378643
0.000379077
0.000382622
0.000378968
2.58235e-05
0.00019098
0.000334723
0.00041267
0.000433615
0.000418015
0.000390544
0.000369941
0.000360489
0.000356115
0.000349518
2.37637e-05
0.000194078
0.000339306
0.000419722
0.00044431
0.000429306
0.000398131
0.000371688
0.000357427
0.000351668
0.000348724
2.02322e-05
0.000182023
0.000324965
0.00041454
0.000449596
0.000439202
0.000405379
0.000372696
0.000353156
0.000345804
0.000346871
1.62495e-05
0.00015556
0.000290573
0.000390207
0.000437754
0.000436888
0.000405924
0.000369202
0.000341755
0.000324025
0.000305962
1.18923e-05
0.000109527
0.000241134
0.000345334
0.000403462
0.000415704
0.000395727
0.000361892
0.000326639
0.000291786
0.000242646
8.02828e-06
9.65167e-05
0.000191315
0.000285361
0.000339289
0.000362483
0.000358853
0.000334801
0.000300538
0.000253842
0.00019446
5.9053e-05
0.000312856
0.000382171
0.000414665
0.000442665
0.000468756
0.000487578
0.000492691
0.000474249
0.000425487
0.000362876
3.7794e-05
0.000253376
0.000363039
0.000411827
0.000441063
0.000463979
0.000479144
0.000482551
0.00046641
0.000421991
0.000360282
3.161e-05
0.000213657
0.000360746
0.000440286
0.000470839
0.000486508
0.000495887
0.000494095
0.000474038
0.00043028
0.000367663
3.08391e-05
0.000179684
0.000321706
0.000424783
0.000474279
0.000496176
0.000504972
0.000502609
0.000485456
0.000444423
0.000380507
3.16702e-05
0.000163721
0.000296014
0.000398851
0.000455647
0.00048789
0.000504674
0.000507614
0.000492243
0.000450194
0.000383338
3.26724e-05
0.000151146
0.000275325
0.00037322
0.000431027
0.000469707
0.000495406
0.000506541
0.000496204
0.000456993
0.000392543
3.37913e-05
0.000140906
0.000257428
0.000348606
0.00040569
0.000447914
0.000480522
0.000499703
0.000495798
0.00046011
0.00039642
3.50257e-05
0.000132795
0.000242345
0.000327105
0.000382392
0.000426189
0.00046354
0.000489304
0.000491767
0.000461648
0.000404651
3.61404e-05
0.000125941
0.000229511
0.000308878
0.000362118
0.000406446
0.000447012
0.000478116
0.000486785
0.000462363
0.000408607
3.70196e-05
0.000119423
0.000217997
0.000293262
0.000344785
0.000389287
0.000432169
0.000467616
0.000481652
0.000461516
0.000408377
3.77907e-05
0.000113264
0.00020753
0.000279669
0.00032988
0.000374488
0.000419185
0.000458217
0.000476624
0.000459882
0.000410528
3.84236e-05
0.000107821
0.000198226
0.000267785
0.000316959
0.000361689
0.00040795
0.000450154
0.000472466
0.000458827
0.00041159
3.87874e-05
0.000102627
0.000189677
0.000257274
0.000305766
0.000350742
0.00039848
0.000443698
0.000469759
0.000458872
0.000412418
3.89418e-05
9.72287e-05
0.000181323
0.000247716
0.000296006
0.000341437
0.000390666
0.000438898
0.00046867
0.000460124
0.000414805
3.87776e-05
9.19996e-05
0.000173268
0.000238866
0.000287287
0.000333362
0.000384125
0.000435475
0.000469207
0.00046301
0.000417856
3.82554e-05
8.61716e-05
0.000164651
0.000230121
0.000279136
0.00032604
0.000378303
0.000432888
0.000471183
0.000467842
0.000423091
3.74e-05
7.83232e-05
0.000152325
0.000217285
0.000266309
0.00031246
0.000364097
0.000420785
0.000465324
0.000469157
0.000429015
3.6015e-05
6.97811e-05
0.000137264
0.000200704
0.000248728
0.000291711
0.00033817
0.000391174
0.000438761
0.000453765
0.000428435
3.40684e-05
6.0674e-05
0.000119465
0.000179762
0.000226176
0.000264688
0.000302636
0.000345546
0.000388832
0.000413328
0.000410088
3.15204e-05
5.12082e-05
9.94153e-05
0.000154134
0.000198231
0.000232282
0.00026105
0.000290273
0.000320969
0.000344986
0.000358959
2.82972e-05
4.17184e-05
7.83452e-05
0.00012456
0.000164912
0.000195195
0.000216816
0.000233854
0.000249277
0.000262249
0.000275275
2.43263e-05
3.27326e-05
5.83532e-05
9.37165e-05
0.000127835
0.000154368
0.000171742
0.000181633
0.00018651
0.000187908
0.000189065
1.94829e-05
2.41621e-05
4.0468e-05
6.45791e-05
9.00666e-05
0.00011152
0.000126162
0.000133683
0.000135119
0.000131873
0.000126141
1.37185e-05
2.24562e-05
3.41601e-05
4.78574e-05
6.20974e-05
7.46697e-05
8.40323e-05
8.94545e-05
9.08157e-05
8.84496e-05
8.32496e-05
5.5422e-05
0.000284007
0.000326747
0.000433646
0.000481942
0.000512328
0.000526677
0.000530385
0.000505085
0.000447028
0.000376752
4.10814e-05
0.000175325
0.000204818
0.000265323
0.000354995
0.000494321
0.000551462
0.000566129
0.000544587
0.000484748
0.000406298
3.80113e-05
0.000127909
0.000172044
0.000217139
0.000286213
0.000422292
0.000563509
0.000602834
0.000589968
0.00053203
0.00044428
3.7444e-05
0.000110718
0.000155981
0.00019486
0.000255328
0.00038022
0.00057181
0.000641567
0.000640989
0.000587859
0.000494599
3.67679e-05
0.000110052
0.00014876
0.000182219
0.000237278
0.000357985
0.00057319
0.000676925
0.000693153
0.000647202
0.00054968
3.58203e-05
0.000117951
0.000147772
0.000175036
0.000224559
0.000341098
0.000559244
0.00070344
0.000740941
0.000702803
0.000596159
3.54577e-05
0.000129388
0.000151304
0.000171655
0.000214876
0.000325429
0.000536337
0.000714862
0.000781162
0.000754209
0.000640822
3.61437e-05
0.000143588
0.000158603
0.000171434
0.000207904
0.000311438
0.000510657
0.000703624
0.000805234
0.000798627
0.000677927
3.74988e-05
0.00015928
0.000168871
0.000173701
0.000202974
0.000298514
0.000483413
0.000677482
0.000798233
0.000816952
0.000704419
3.9038e-05
0.00017518
0.000181384
0.000178023
0.000199599
0.000286129
0.000454927
0.000641719
0.000768585
0.000800499
0.000700854
4.02628e-05
0.00018888
0.000195289
0.000184084
0.000197271
0.000273307
0.0004244
0.000598458
0.000723213
0.000758345
0.000670404
4.12869e-05
0.00020115
0.00021017
0.000191769
0.000196233
0.000260922
0.000393604
0.000551464
0.000668712
0.000701207
0.000620334
4.19477e-05
0.000212563
0.000225277
0.000200885
0.000196484
0.000249
0.000362752
0.00050222
0.000608723
0.000636633
0.000560391
4.1919e-05
0.000220015
0.00023921
0.000211386
0.000198103
0.000237538
0.000331923
0.000451723
0.000545691
0.000569262
0.000500069
4.13004e-05
0.000224586
0.000251447
0.000222996
0.000201455
0.000227546
0.000302721
0.000402299
0.000482674
0.000502688
0.000443039
4.00714e-05
0.000226386
0.000261222
0.00023516
0.000206659
0.000219569
0.000276005
0.000355338
0.000421553
0.000438887
0.000390226
3.81602e-05
0.000224211
0.000267493
0.000247033
0.000213739
0.000214244
0.000252786
0.000312317
0.000363959
0.000378754
0.000341752
3.55848e-05
0.000218269
0.000269373
0.000257266
0.000222387
0.000212314
0.000234496
0.000275136
0.000311854
0.00032303
0.00029633
3.24859e-05
0.000208392
0.000266104
0.000264032
0.00023174
0.000214371
0.000222595
0.000245818
0.000267471
0.000273008
0.000253663
2.94612e-05
0.000196353
0.000257841
0.000265898
0.000241012
0.000221317
0.000218955
0.00022669
0.000233525
0.000231265
0.000214371
2.52126e-05
0.000168328
0.000236389
0.000258712
0.000246716
0.000231419
0.000222905
0.000217871
0.00021105
0.000199745
0.000180962
2.19617e-05
0.00014441
0.000201794
0.000225758
0.000226245
0.000216135
0.000206207
0.000195037
0.000175907
0.00015257
0.000125743
1.4936e-05
0.000101395
0.000119176
0.000109339
9.7219e-05
8.48297e-05
7.31403e-05
6.19476e-05
5.31959e-05
4.59653e-05
3.9679e-05
9.70522e-06
1.08555e-05
1.16499e-05
1.31268e-05
1.52868e-05
1.79325e-05
2.08248e-05
2.36465e-05
2.60694e-05
2.77862e-05
2.85734e-05
3.55994e-05
0.00012329
0.000120476
0.000129656
0.00012113
0.000100341
7.79778e-05
6.33831e-05
5.38954e-05
4.65193e-05
3.99425e-05
2.97198e-05
0.000101904
8.70768e-05
0.000119341
0.000128743
0.00010785
8.03373e-05
6.19834e-05
5.08107e-05
4.26932e-05
3.5923e-05
2.9096e-05
8.32082e-05
7.95323e-05
9.45425e-05
0.000121022
0.000115996
8.55221e-05
6.29084e-05
4.96591e-05
4.06258e-05
3.34438e-05
3.02621e-05
7.23985e-05
7.67077e-05
8.56574e-05
0.000108162
0.00012223
9.20497e-05
6.54681e-05
5.00089e-05
4.00805e-05
3.27496e-05
3.14545e-05
6.78214e-05
7.49358e-05
8.06808e-05
9.96931e-05
0.000123392
9.90322e-05
6.92232e-05
5.15131e-05
4.06527e-05
3.32034e-05
3.19794e-05
6.64826e-05
7.3722e-05
7.69999e-05
9.18406e-05
0.000116818
0.000105314
7.39789e-05
5.39413e-05
4.20317e-05
3.42733e-05
3.19639e-05
6.72233e-05
7.3322e-05
7.45174e-05
8.49009e-05
0.000106053
0.000106579
7.98179e-05
5.71715e-05
4.40429e-05
3.57851e-05
3.15602e-05
6.9841e-05
7.41286e-05
7.33975e-05
7.97597e-05
9.56663e-05
0.000102622
8.47311e-05
6.15958e-05
4.67708e-05
3.77204e-05
3.07481e-05
7.35323e-05
7.62074e-05
7.34427e-05
7.61332e-05
8.6887e-05
9.5478e-05
8.68492e-05
6.64373e-05
5.02195e-05
4.01789e-05
2.95821e-05
7.77431e-05
7.95467e-05
7.45495e-05
7.36606e-05
7.9599e-05
8.68347e-05
8.50598e-05
7.06739e-05
5.42838e-05
4.31277e-05
2.82892e-05
8.28208e-05
8.4407e-05
7.69766e-05
7.2599e-05
7.42891e-05
7.88081e-05
8.01196e-05
7.28127e-05
5.86124e-05
4.65863e-05
2.70566e-05
8.94467e-05
9.11927e-05
8.10022e-05
7.31372e-05
7.11393e-05
7.27096e-05
7.41871e-05
7.20567e-05
6.23761e-05
5.05075e-05
2.60687e-05
9.73822e-05
0.000100129
8.68934e-05
7.52707e-05
6.97617e-05
6.84441e-05
6.86236e-05
6.8802e-05
6.4409e-05
5.4556e-05
2.54584e-05
0.000105969
0.000111311
9.51048e-05
7.92538e-05
7.00399e-05
6.58247e-05
6.40871e-05
6.42478e-05
6.37833e-05
5.7926e-05
2.52772e-05
0.000116422
0.00012529
0.000106205
8.55197e-05
7.22042e-05
6.49905e-05
6.11174e-05
5.99337e-05
6.08155e-05
5.94085e-05
2.54975e-05
0.000128424
0.000142185
0.00012096
9.47649e-05
7.65954e-05
6.59893e-05
5.97814e-05
5.67039e-05
5.68194e-05
5.81278e-05
2.58096e-05
0.000140064
0.000161263
0.000140164
0.000108174
8.40383e-05
6.92239e-05
6.02502e-05
5.49894e-05
5.321e-05
5.45961e-05
2.54618e-05
0.000150517
0.000181179
0.00016402
0.000127113
9.58602e-05
7.56279e-05
6.31078e-05
5.5277e-05
5.11087e-05
5.06302e-05
2.43469e-05
0.000157719
0.000199316
0.000191149
0.00015283
0.000114112
8.69565e-05
6.95903e-05
5.83933e-05
5.14063e-05
4.81467e-05
2.24098e-05
0.00015953
0.0002121
0.000217469
0.000184996
0.000141388
0.000106346
8.23344e-05
6.62676e-05
5.55371e-05
4.88791e-05
1.96724e-05
0.000151818
0.000215953
0.000237524
0.000220314
0.000179808
0.000138784
0.000106603
8.33436e-05
6.69276e-05
5.55929e-05
1.71478e-05
0.000138585
0.000209919
0.000247127
0.000249689
0.000224597
0.000186742
0.000149166
0.00011763
9.31852e-05
7.48291e-05
1.30196e-05
0.00010683
0.000153947
0.000194643
0.000216731
0.000223296
0.000213773
0.000191845
0.000164596
0.000138022
0.000114386
1.03491e-05
4.02128e-05
5.60998e-05
7.78102e-05
0.0001011
0.000124653
0.000145132
0.000156093
0.000157386
0.000151523
0.000140579
2.98246e-05
0.000112989
0.00011802
0.000120792
0.000116444
9.96018e-05
8.11076e-05
6.83419e-05
5.97515e-05
5.30159e-05
4.69387e-05
2.0037e-05
9.40632e-05
0.000119603
0.000130159
0.000126434
0.000110565
9.1418e-05
7.74458e-05
6.83015e-05
6.15195e-05
5.56691e-05
2.00736e-05
8.31687e-05
0.000117391
0.000149049
0.000147191
0.000129901
0.000107129
8.96709e-05
7.88352e-05
7.14439e-05
6.55259e-05
2.22947e-05
7.68264e-05
0.000113432
0.000160675
0.0001701
0.000158714
0.000135188
0.000112751
9.74754e-05
8.77522e-05
8.0896e-05
2.51301e-05
7.14925e-05
0.000112519
0.000164445
0.000177659
0.000169884
0.000147851
0.000125872
0.000110596
0.000100806
9.39184e-05
2.78725e-05
6.75018e-05
0.000112072
0.000163918
0.000180002
0.000176494
0.000156693
0.000135436
0.000120254
0.00011057
0.000103948
3.04044e-05
6.46305e-05
0.000111502
0.000161765
0.000180003
0.000180304
0.000162952
0.000143245
0.00012892
0.000120079
0.000114578
3.27663e-05
6.25803e-05
0.000110791
0.000159346
0.000179467
0.000182962
0.000168023
0.000150134
0.000137049
0.000129575
0.000125851
3.47915e-05
6.10532e-05
0.000109963
0.000157221
0.000179284
0.000185228
0.000172666
0.000156468
0.000144575
0.000138416
0.000136254
3.64666e-05
5.97609e-05
0.000109157
0.000155489
0.000179684
0.000187613
0.000177287
0.000162481
0.000151541
0.000146477
0.00014567
3.7774e-05
5.85007e-05
0.000108158
0.000154233
0.000180488
0.000190405
0.000182125
0.000168344
0.000157964
0.000153546
0.0001533
3.88116e-05
5.72253e-05
0.000106965
0.000153258
0.000181543
0.000193588
0.000187267
0.000174201
0.000163963
0.000159817
0.000160087
3.95005e-05
5.5785e-05
0.000105464
0.000152341
0.000182737
0.00019716
0.000192844
0.000180249
0.000169698
0.000165398
0.000166193
3.97639e-05
5.27785e-05
0.000101597
0.000149404
0.000182306
0.000199874
0.000198474
0.000186683
0.000175449
0.000170424
0.000171076
3.95271e-05
4.92396e-05
9.50609e-05
0.000142847
0.000177377
0.000197951
0.000200968
0.000192208
0.000181371
0.000175482
0.000175346
3.8757e-05
4.53092e-05
8.6088e-05
0.000132461
0.000167857
0.00019075
0.000198728
0.000195109
0.000186739
0.000180658
0.000179408
3.74432e-05
4.11405e-05
7.51834e-05
0.000118161
0.000153522
0.000177897
0.000190253
0.000192709
0.000189312
0.000185099
0.000183418
3.55027e-05
3.70255e-05
6.35767e-05
0.000100887
0.000134685
0.000159565
0.000174907
0.000182506
0.000185184
0.000185616
0.000185945
3.28849e-05
3.30096e-05
5.23009e-05
8.21464e-05
0.000112237
0.000136282
0.000152995
0.000163647
0.000170817
0.000176534
0.000181662
2.95531e-05
2.89799e-05
4.19688e-05
6.36642e-05
8.78941e-05
0.000109244
0.000125625
0.000137312
0.000146176
0.000154313
0.000163014
2.54599e-05
2.47685e-05
3.28281e-05
4.69777e-05
6.41282e-05
8.08092e-05
9.49527e-05
0.000105989
0.000114636
0.000122268
0.000130292
2.06148e-05
2.01702e-05
2.47918e-05
3.29137e-05
4.32594e-05
5.41823e-05
6.43749e-05
7.3128e-05
8.03822e-05
8.65587e-05
9.2364e-05
1.50493e-05
1.46513e-05
1.69857e-05
2.08903e-05
2.59251e-05
3.15277e-05
3.71703e-05
4.24818e-05
4.72672e-05
5.15087e-05
5.53486e-05
9.0895e-06
9.61431e-06
1.16125e-05
1.40864e-05
1.69264e-05
1.99513e-05
2.31345e-05
2.77888e-05
3.41453e-05
4.24245e-05
5.26342e-05
6.46205e-06
6.9061e-06
9.31247e-06
1.26555e-05
1.41877e-05
1.51502e-05
1.59456e-05
1.6495e-05
1.67669e-05
2.85465e-05
2.30003e-05
2.46689e-05
3.45012e-05
5.54619e-05
8.45196e-05
0.000107497
0.000131494
0.0001538
4.13187e-05
3.28244e-05
4.15459e-05
6.64639e-05
0.000108359
0.000161138
0.000202513
0.000250455
0.000290924
5.49235e-05
4.33661e-05
5.63361e-05
9.2801e-05
0.000153705
0.000231818
0.000291589
0.000354621
0.000403344
5.93801e-06
7.34889e-06
1.16667e-05
1.3997e-05
1.52347e-05
1.59578e-05
1.65307e-05
1.68658e-05
1.70202e-05
2.21196e-05
2.04336e-05
2.39773e-05
3.54417e-05
5.62377e-05
8.68897e-05
0.000111604
0.000134865
0.000152339
3.26374e-05
3.13427e-05
4.28881e-05
6.99148e-05
0.000115153
0.000173624
0.000221944
0.00026731
0.000295976
4.64085e-05
4.27286e-05
6.0411e-05
0.000100227
0.000169389
0.00025574
0.000321822
0.000379337
0.000412244
0.000195726
0.0002297
0.000229753
0.000221645
0.000417177
0.000229385
9.15797e-05
0.000229441
0.000229416
0.000233636
0.000413749
0.000229485
0.000127742
0.000188776
0.00012387
0.000228712
0.000182012
0.000230474
0.000228702
0.000228601
0.00022972
2.96362e-05
0.000229972
0.000202637
0.000229355
0.000192287
0.000134968
9.15928e-05
0.00039946
0.00054838
0.000166488
0.000235808
0.000119247
0.000229425
0.00024086
0.000229657
0.000192161
0.000229347
9.91031e-05
0.000229413
1.88409e-05
0.000229461
0.000174629
0.000229947
0.0004462
5.55208e-05
5.36032e-05
0.000107317
0.000239837
0.000229181
0.000542289
0.0002294
0.000190018
0.000181462
0.000229148
0.000229505
2.95323e-05
0.000229412
0.000387336
0.000284608
2.29951e-05
0.000150285
0.00048157
0.000174544
2.58245e-05
0.000228572
0.000609483
0.000230078
0.0002297
0.000233057
0.000187319
0.000233175
8.06191e-05
0.000242967
0.000694753
0.000231658
2.32628e-05
0.00022968
0.000137608
0.000472781
0.000402
0.00015061
0.000229285
0.000229786
0.000246856
8.54633e-05
0.000365505
0.000112564
4.48392e-05
0.000177339
0.000229482
0.000229402
2.04006e-05
0.000232316
0.000469644
0.000140988
0.00060952
0.00023699
4.33553e-05
0.000236205
0.000251641
0.000107692
0.000229901
0.000236488
5.1003e-05
0.000229486
0.000180229
0.000229866
0.000117505
0.000236198
0.00022937
0.000229512
0.000230582
0.000113415
0.000215459
0.000229034
0.0002294
0.000228844
0.000229296
0.000229107
9.13236e-05
0.00024088
0.000252781
0.000199302
4.9966e-05
0.000209169
0.000763928
0.000173343
0.000167107
0.000141948
0.000229336
0.000308673
0.00010569
0.00023208
0.000229762
0.000228115
2.26281e-05
0.000116542
0.000540529
0.000244701
0.000159075
0.000231475
0.00024252
0.000167806
0.000229372
3.83401e-05
0.000105015
0.000229856
0.000235475
0.000229044
0.000228952
0.000229245
3.9217e-05
0.000239196
0.000160552
7.23371e-05
0.000130307
3.13359e-05
0.000165408
0.00022878
0.000216812
4.81589e-05
0.000232685
0.000229133
0.000653234
0.000107524
5.58824e-05
0.000245737
0.000238004
2.49958e-05
0.000153111
0.000154395
0.000232713
0.000229615
0.000235075
0.000220263
0.000150838
3.82266e-05
0.000441564
0.000199645
0.000229571
2.63076e-05
0.000229945
0.000146699
0.000229283
0.000134214
0.000229238
0.00022879
0.000229642
0.000173195
0.000120568
0.000198368
0.000228526
1.79235e-05
0.000229735
0.000228966
0.000229404
4.37491e-05
0.000136929
0.00023
3.53735e-05
0.000229254
0.000124792
0.00016158
0.000229817
0.000107229
0.000231645
0.000166956
0.000229292
0.000228696
0.000191207
0.000229004
0.00017536
0.000238781
0.000229314
0.000507559
0.000229373
5.2279e-05
0.000229112
8.56636e-05
7.66004e-05
0.000104537
0.000619907
0.000204388
0.0001993
0.00022942
0.000111643
0.000108475
0.000126063
0.000309517
3.33988e-05
0.000228501
0.000229022
0.000242442
3.8333e-05
0.000238248
0.00051143
0.000229892
0.000229517
0.000229476
5.30452e-05
0.000328501
0.000236603
1.59363e-05
0.000233701
4.81357e-05
0.000229367
0.000157318
0.000192816
0.000634575
0.000157636
0.000192935
0.000244044
0.000228627
0.000233986
0.000229418
0.000229497
0.000229293
4.92289e-05
0.000229398
0.000120922
0.000184782
0.000228178
0.000229577
0.000229366
5.26667e-05
0.000231944
0.000234101
0.000159504
0.000179439
0.000199923
0.000228988
0.000229258
5.27673e-05
0.000229016
0.00022888
0.000197275
0.000229151
0.000238434
5.00744e-05
0.000234695
0.000229704
0.000401338
0.000467099
0.000233582
0.000228991
0.000307364
0.00022964
0.000238098
0.000137465
0.000229771
0.0001028
0.000249996
8.03264e-05
0.000230003
0.000229342
0.000238
0.000229542
0.000240439
0.000197003
0.000229263
6.56608e-05
0.000242614
0.000546869
0.000229419
0.000236281
0.000229676
0.000157303
2.58756e-05
0.000229115
5.65975e-05
0.000229535
0.000234103
0.000124406
2.73573e-05
0.000231511
0.000178085
6.57926e-05
0.000228715
0.000235725
0.000229138
0.000302302
0.000228931
0.000191009
0.000118393
0.000236825
0.000229213
0.000210769
0.000228207
0.000933351
0.00023247
0.000480396
2.06872e-05
0.000229941
0.000105731
0.000246894
0.000133339
0.00022963
0.000229222
0.000238707
4.60821e-05
0.000190558
0.000229234
0.000103867
0.000196501
0.000157206
0.000296224
0.000229034
0.000173752
0.000831687
5.8442e-05
0.000236113
0.000179529
0.000229409
0.000105358
0.000230036
7.37697e-05
0.000206651
0.000229945
0.000913545
0.000135939
0.000186554
0.0002294
0.000229337
0.000229499
5.01072e-05
0.00016331
6.17026e-05
6.53286e-05
0.00025393
0.000229147
0.000113469
0.000230953
0.000194076
0.000112505
0.000229739
0.000152481
0.000240781
0.000228942
0.000228963
0.000337552
0.000228902
3.80796e-05
0.000229391
0.000198276
0.000639566
6.76775e-05
0.000198073
0.000349131
4.58931e-05
0.000229246
4.66566e-05
0.000187224
0.000250018
0.000615631
2.59453e-05
0.000229293
0.000228857
0.00022982
0.000168336
4.92664e-05
0.000228983
0.000229991
0.000132623
0.000107959
2.36547e-05
0.000103099
0.00011038
0.000229251
0.000305304
0.00023984
0.00022867
0.000135268
0.000138546
4.79355e-05
0.000233944
0.000120632
0.000250654
0.000180903
5.13224e-05
0.00030347
0.000146949
8.64416e-05
0.000119381
0.000227237
0.000235418
0.000241512
7.39043e-05
0.000182233
3.39177e-05
0.000229269
3.82525e-05
0.000207609
0.000228577
0.000229227
6.26702e-05
0.000281738
0.000507193
0.00019913
0.000230037
0.000236548
0.000356353
0.000400083
6.66669e-05
0.000233371
7.58774e-05
0.00026141
2.49055e-05
0.000228727
3.87851e-05
0.000229244
0.000229732
0.000229333
5.04539e-05
8.77948e-05
6.37047e-05
0.000154397
3.32391e-05
8.17051e-05
0.000229636
0.000228717
0.000790062
0.000181012
0.000234018
0.000238053
4.09545e-05
4.52254e-05
2.96835e-05
2.93526e-05
0.000232221
0.000211776
5.56297e-05
0.000229336
2.29457e-05
0.000235739
0.000229619
0.000229014
8.05632e-05
3.45565e-05
0.000229101
0.000229183
0.000229783
0.000265164
2.53457e-05
0.000229888
4.07606e-05
0.000359473
0.000156497
6.25302e-05
0.000228702
3.8498e-05
0.000228963
0.000235172
0.000229407
0.00014877
0.000146149
0.000228549
0.000193005
0.000168984
0.000233638
0.000224804
0.000210587
0.000229415
0.000229436
0.000229957
6.30292e-05
6.45453e-05
0.000232772
9.29686e-05
0.00022976
0.000392419
0.000104453
4.41108e-05
0.000107887
0.000251276
0.00054521
0.000116458
0.000192782
0.000229181
0.000183873
0.000228808
0.000229692
0.000229101
0.000229574
0.000234387
0.000325309
0.000229351
0.000228757
0.000152555
0.000229278
3.83483e-05
0.000242684
0.000141946
0.000174292
4.61966e-05
0.000229994
0.00022928
0.000229892
1.7066e-05
3.45487e-05
0.000229321
0.000229336
0.000199235
0.000229783
0.000364412
0.000229728
0.00101911
0.000237122
3.31268e-05
9.13661e-05
0.000128659
6.29071e-05
0.000418341
0.000229471
0.000232056
0.000235071
0.000229721
6.2635e-05
2.53891e-05
0.000223786
0.000150079
0.000130371
0.000102697
0.000229356
0.000229474
0.000229684
0.000290367
0.000557275
8.35206e-05
0.000229447
0.000229321
0.000464376
0.000230544
9.62476e-05
0.000162542
0.000116275
0.000305163
0.000229298
8.85502e-05
0.00022924
0.000114951
0.00022939
0.000699143
0.000146475
0.000234759
2.84315e-05
0.000111142
0.000229894
0.000229993
0.000459338
0.000229013
0.000182939
0.000177092
0.00014537
0.000326606
4.58825e-05
0.000159563
0.000231133
0.000229332
0.000229252
0.000146695
5.36291e-05
0.000112568
0.000228566
0.000229376
8.79119e-05
0.000229515
0.000234245
0.000237103
0.000233495
0.000110512
5.62282e-05
0.000146133
0.000159929
0.000233664
0.00023558
0.000228623
0.000129174
0.000231469
0.000229253
0.000194157
0.000247002
0.000228968
0.00022892
2.23509e-05
0.000229937
0.000228688
0.000147652
0.000229731
0.000235091
9.97e-05
8.40738e-05
0.000158452
0.000187382
0.000156374
6.90106e-05
0.000212082
7.16474e-05
0.000105011
0.000179354
5.16129e-05
0.000100645
0.000127291
0.000229762
0.000230468
0.0001166
0.000230264
0.000229446
0.000244799
0.000207691
0.00016106
0.000183593
0.000192361
0.000243959
0.000229189
0.000199543
0.000229516
0.000228859
0.000236684
8.4408e-05
0.000231773
0.000233643
0.000231264
0.00022966
0.000240544
6.19726e-05
0.000296259
0.000231729
0.000230101
0.000189748
9.85095e-05
0.000234534
0.000169497
0.00023135
0.000617619
0.000319153
0.000229257
6.13634e-05
0.000229914
0.000122693
0.000174199
0.000107048
0.000161485
0.000215021
0.000246354
0.000229821
9.89964e-05
0.000181234
4.77525e-05
0.000675816
0.000228998
0.000233811
0.000229806
0.000160814
0.000229895
4.3681e-05
0.000229496
0.000229429
0.000228999
0.000134609
8.97463e-05
0.000229548
0.00012672
0.000229215
0.000108943
0.000165553
0.000231258
0.000173397
1.5571e-05
7.97547e-05
0.000236816
0.000200911
0.000145067
0.000109716
0.000133998
8.87354e-05
0.000229222
0.000150606
0.000229339
0.000232353
5.24058e-05
0.000184105
3.73068e-05
0.000188824
0.000230353
0.000235301
0.000229125
6.10079e-05
0.000229622
0.00111425
0.0001146
0.00100584
0.000234509
0.000138678
0.000176571
0.000369483
0.000241914
0.000127552
3.59554e-05
6.35352e-05
0.000229413
0.000186513
0.000129214
0.0002295
4.09003e-05
0.000117696
0.000242404
0.000627297
0.000229344
0.00023415
0.000235141
0.000128705
0.000235462
0.000192758
0.00022958
0.000122186
0.000234141
8.38687e-05
6.36401e-05
0.000223411
0.000117899
0.000228787
0.00025357
6.21642e-05
0.000229224
0.00019349
0.000187929
9.34052e-05
0.000243834
3.11419e-05
0.000247245
0.000223492
9.11892e-05
0.000252743
0.000228845
0.000246871
0.000229169
0.000356833
2.20181e-05
0.000230043
0.000229283
0.000252175
0.000359965
0.000288609
0.000159156
0.000229578
0.000148061
0.000253254
0.000229509
0.00022961
0.000229823
0.000229333
0.000233532
0.000156067