/*--------------------------------*- C++ -*----------------------------------*\
| =========                 |                                                 |
| \\      /  F ield         | OpenFOAM: The Open Source CFD Toolbox           |
|  \\    /   O peration     | Version:  3.0.1                                 |
|   \\  /    A nd           | Web:      www.OpenFOAM.org                      |
|    \\/     M anipulation  |                                                 |
\*---------------------------------------------------------------------------*/
FoamFile
{
    version     2.0;
    format      ascii;
    class       volVectorField;
    location    "0.540673";
    object      U;
}
// * * * * * * * * * * * * * * * * * * * * * * * * * * * * * * * * * * * * * //

dimensions      [0 1 -1 0 0 0 0];

internalField   nonuniform List<vector> 
21246
(
(4.96582 -1.91619 4.88441e-18)
(3.99403 -1.35973 -1.62397e-18)
(4.21643 -1.34364 0)
(4.25678 -1.24484 0)
(4.13178 -1.04767 9.06816e-20)
(3.94312 -0.790369 -3.71656e-20)
(3.75821 -0.57017 -1.49503e-20)
(3.589 -0.416949 -6.72876e-21)
(3.44002 -0.324989 1.25537e-21)
(3.30925 -0.282138 -4.8431e-22)
(3.20617 -0.280069 -2.09166e-22)
(4.00815 -0.568454 -6.80032e-18)
(3.15821 -0.513017 1.13848e-19)
(3.35171 -0.979186 0)
(3.50227 -1.16459 0)
(3.56017 -1.16308 -3.45307e-21)
(3.56405 -1.03029 1.596e-21)
(3.52921 -0.826828 0)
(3.45762 -0.620058 -5.75761e-20)
(3.37265 -0.480578 -5.88734e-22)
(3.28715 -0.404043 -3.23174e-20)
(3.21225 -0.379105 0)
(3.93869 0.682141 0)
(3.1939 0.149537 3.42071e-18)
(3.02868 -0.419253 -2.78898e-18)
(3.0194 -0.760692 0)
(3.06519 -0.952519 8.4423e-19)
(3.13783 -0.994722 -7.95959e-19)
(3.21024 -0.902379 3.45768e-19)
(3.2515 -0.735327 -2.07578e-19)
(3.25438 -0.582423 -5.03549e-20)
(3.2274 -0.481425 1.37138e-19)
(3.19596 -0.441082 0)
(4.15867 1.19186 2.39296e-18)
(3.42742 0.598887 -1.52406e-18)
(3.03005 0.108097 0)
(2.84033 -0.279992 0)
(2.7822 -0.580406 4.49714e-19)
(2.82034 -0.755033 1.33223e-19)
(2.91843 -0.78638 -8.89854e-19)
(3.0273 -0.708001 0)
(3.1074 -0.596773 -1.1185e-19)
(3.1439 -0.506738 3.75999e-21)
(3.15742 -0.461541 1.35992e-19)
(4.25263 1.23486 2.02188e-18)
(3.60165 0.85506 -1.50739e-18)
(3.14046 0.483695 5.32419e-19)
(2.84389 0.129691 1.53137e-18)
(2.68665 -0.190825 -8.13356e-20)
(2.65667 -0.430504 2.90572e-19)
(2.72951 -0.555384 -1.24303e-18)
(2.85455 -0.570952 1.01812e-18)
(2.976 -0.527645 -3.31171e-19)
(3.05937 -0.474247 1.46991e-19)
(3.11175 -0.443789 2.04868e-19)
(4.19151 1.13622 0)
(3.71643 0.977095 -1.59837e-18)
(3.27849 0.717582 4.6559e-19)
(2.93759 0.43022 0)
(2.72003 0.13966 -5.16128e-19)
(2.62987 -0.112367 6.38784e-19)
(2.65911 -0.288446 -4.71994e-19)
(2.76629 -0.375861 0)
(2.89412 -0.399758 0)
(2.99907 -0.394178 7.25652e-19)
(3.0749 -0.390725 -2.23243e-19)
(4.13512 1.03556 -1.45942e-18)
(3.76461 0.994842 2.2517e-18)
(3.40543 0.832907 -1.68356e-18)
(3.07365 0.628353 -5.88796e-19)
(2.83126 0.384976 6.20085e-20)
(2.70374 0.152416 3.86877e-19)
(2.69197 -0.0402042 4.43681e-19)
(2.766 -0.17142 -3.20621e-20)
(2.87605 -0.24782 -3.70761e-20)
(2.97915 -0.287855 1.64043e-20)
(3.06118 -0.316482 -2.24509e-19)
(4.06995 0.936894 -3.29061e-19)
(3.77677 0.965391 4.86219e-19)
(3.49731 0.859993 0)
(3.21799 0.735836 5.38822e-19)
(2.98044 0.542259 3.6381e-19)
(2.83966 0.343187 -5.88236e-19)
(2.79867 0.156616 0)
(2.83763 0.0061096 9.74633e-19)
(2.91807 -0.103754 -9.79799e-19)
(3.00373 -0.179259 -1.25136e-22)
(3.07698 -0.235251 0)
(4.01271 0.844179 -2.9412e-19)
(3.77673 0.920581 -4.31421e-19)
(3.56565 0.839297 -6.43035e-19)
(3.34518 0.767288 1.98372e-20)
(3.14036 0.622402 -3.23143e-19)
(3.00471 0.458844 5.06437e-19)
(2.94762 0.2899 -3.68624e-19)
(2.95672 0.137427 0)
(3.00512 0.0114967 3.20268e-19)
(3.06556 -0.0862007 -1.76356e-19)
(3.1213 -0.162544 0)
(3.97644 0.759932 2.59857e-19)
(3.78354 0.872403 -1.84498e-19)
(3.62372 0.792806 5.91238e-19)
(3.45621 0.750741 -2.25854e-19)
(3.29345 0.64229 3.35865e-19)
(3.17567 0.510506 2.39217e-19)
(3.11282 0.362504 -1.50021e-19)
(3.09959 0.217913 2.29477e-19)
(3.11913 0.088332 -2.91007e-19)
(3.15272 -0.0204291 0)
(3.18612 -0.108945 2.07988e-19)
(3.96583 0.681156 5.95234e-19)
(3.80574 0.821136 -1.8481e-19)
(3.68133 0.732286 -4.00757e-19)
(3.55615 0.705021 4.05355e-19)
(3.43515 0.620371 1.33381e-19)
(3.33835 0.512018 -1.17158e-19)
(3.27636 0.383889 -2.93157e-19)
(3.24814 0.251472 1.92051e-19)
(3.24434 0.125695 1.23512e-19)
(3.25332 0.0139552 -2.49963e-19)
(3.26416 -0.0789556 2.14551e-19)
(3.97313 0.604791 -3.35893e-19)
(3.84019 0.762114 -3.36707e-20)
(3.74152 0.662684 2.5976e-19)
(3.64991 0.641129 0)
(3.56182 0.569381 0)
(3.48513 0.477009 -2.86484e-19)
(3.42782 0.365503 2.81617e-19)
(3.39066 0.245805 -1.89627e-19)
(3.36916 0.127487 5.54688e-20)
(3.35685 0.018362 -8.49332e-20)
(3.34686 -0.0751076 0)
(3.99238 0.531186 0)
(3.88436 0.697845 1.91889e-19)
(3.80574 0.588868 -1.18496e-19)
(3.73824 0.566625 8.55346e-20)
(3.67443 0.501119 6.06909e-20)
(3.61473 0.418381 -1.86717e-19)
(3.5634 0.318894 6.61191e-20)
(3.52133 0.209918 0)
(3.48658 0.0995116 5.79034e-20)
(3.45624 -0.00471391 -7.06541e-20)
(3.42693 -0.0957161 5.18176e-20)
(4.02739 0.458922 -5.25531e-20)
(3.94015 0.631821 -7.1873e-20)
(3.87483 0.514114 -5.97669e-20)
(3.82387 0.487427 0)
(3.77673 0.423962 -3.86078e-21)
(3.72982 0.345727 -3.58173e-20)
(3.68389 0.253445 0)
(3.63883 0.151867 0)
(3.59369 0.047935 -4.86384e-20)
(3.54769 -0.0506612 4.23643e-21)
(3.50091 -0.137417 -2.623e-21)
(4.07543 0.384516 -2.9636e-20)
(4.00331 0.563031 1.04822e-19)
(3.94657 0.437221 5.6182e-20)
(3.90677 0.406039 5.93022e-20)
(3.8708 0.342061 1.27117e-19)
(3.83304 0.264573 -1.76388e-20)
(3.79133 0.175037 -4.02463e-20)
(3.74378 0.0771301 1.40495e-19)
(3.68941 -0.0227883 3.97249e-20)
(3.62881 -0.116388 2.75552e-21)
(3.5646 -0.19968 -6.08619e-21)
(4.13031 0.308827 1.00923e-19)
(4.07057 0.493264 -7.3097e-20)
(4.02022 0.359987 -5.20914e-20)
(3.98814 0.324242 -3.88904e-20)
(3.95991 0.258159 -1.65538e-19)
(3.92874 0.178412 4.68006e-20)
(3.88989 0.0873001 5.48525e-20)
(3.83914 -0.0113946 -1.28354e-20)
(3.7746 -0.110475 0)
(3.69851 -0.200051 0)
(3.61644 -0.276198 -1.06333e-19)
(4.19261 0.231429 1.46536e-19)
(4.14323 0.423456 -1.39509e-19)
(4.09675 0.283934 1.08636e-19)
(4.07028 0.243145 0)
(4.04811 0.173825 0)
(4.02235 0.0886852 -1.40195e-19)
(3.98502 -0.00907976 0)
(3.92872 -0.113877 -1.2335e-19)
(3.85062 -0.21546 1.62901e-20)
(3.75561 -0.301003 -2.74892e-20)
(3.65296 -0.367674 1.06165e-19)
(4.26079 0.151254 9.05323e-20)
(4.21878 0.353373 -4.31891e-19)
(4.17457 0.208843 1.13043e-19)
(4.15374 0.164332 4.53437e-19)
(4.13887 0.090453 -1.96134e-19)
(4.11953 -0.00486448 2.92804e-19)
(4.08233 -0.116721 0)
(4.01561 -0.234411 -1.1344e-19)
(3.91699 -0.341533 1.08939e-19)
(3.79673 -0.421825 7.63949e-20)
(3.66894 -0.477135 -3.24792e-20)
(4.3318 0.0686373 0)
(4.29438 0.284715 1.48935e-19)
(4.25308 0.137931 -4.31711e-19)
(4.24227 0.0918094 -6.0717e-19)
(4.24098 0.00970011 0)
(4.23125 -0.105779 -2.51965e-19)
(4.19004 -0.243808 0)
(4.10222 -0.382274 0)
(3.9709 -0.495251 -1.93451e-19)
(3.81734 -0.564335 0)
(3.66419 -0.595709 4.01266e-20)
(4.40055 -0.0144174 2.21539e-19)
(4.36983 0.218409 0)
(4.33609 0.0804696 4.14327e-21)
(4.34824 0.0358935 3.17216e-19)
(4.37011 -0.0645011 -1.88041e-19)
(4.36848 -0.221141 1.6797e-19)
(4.31144 -0.405799 1.26946e-19)
(4.18476 -0.573099 -1.21748e-19)
(4.00393 -0.685477 8.48215e-20)
(3.80823 -0.730018 5.61558e-21)
(3.62903 -0.725633 -1.02043e-19)
(4.49834 -0.116563 2.25498e-19)
(4.43023 0.20554 -3.5401e-19)
(4.41043 0.0888647 2.46174e-19)
(4.47237 0.0313438 0)
(4.53832 -0.155654 3.76796e-19)
(4.53683 -0.419566 -7.31233e-21)
(4.42944 -0.661354 -8.8147e-20)
(4.2359 -0.831845 1.2706e-19)
(3.99388 -0.919343 0)
(3.75476 -0.918165 5.06888e-20)
(3.55848 -0.859649 3.01696e-20)
(4.41926 0.0591346 1.02024e-20)
(4.38658 0.30166 -3.8827e-19)
(4.53556 0.049707 2.95697e-19)
(4.67751 -0.273168 1.7929e-19)
(4.67597 -0.617563 0)
(4.57617 -0.907588 -2.3999e-19)
(4.39254 -1.11662 1.97769e-19)
(4.14421 -1.21982 0)
(3.87847 -1.20609 -1.15864e-20)
(3.63027 -1.11703 8.31932e-21)
(3.44094 -0.989078 -4.99538e-21)
(4.04034 0.545252 1.20349e-20)
(4.42692 -0.465301 -1.04216e-18)
(4.5163 -0.620223 7.48188e-19)
(4.47446 -0.974019 -1.9846e-19)
(4.38934 -1.26129 3.39319e-19)
(4.26508 -1.46423 -9.03789e-20)
(4.09077 -1.57867 -3.27809e-19)
(3.86139 -1.58794 5.9501e-20)
(3.60389 -1.4848 0)
(3.40166 -1.29599 0)
(3.27866 -1.0891 -9.95182e-21)
(4.05141 -1.14483 -6.74511e-19)
(4.15793 -0.911439 0)
(4.07104 -1.3607 0)
(4.02358 -1.57356 -1.80349e-20)
(3.98119 -1.71553 0)
(3.92329 -1.80449 1.43811e-20)
(3.83179 -1.83229 0)
(3.68477 -1.77942 -2.85124e-20)
(3.46629 -1.61685 5.72091e-20)
(3.22705 -1.36042 0)
(3.10972 -1.11404 1.4546e-20)
(6.3524 -1.31346 -4.49438e-19)
(5.77916 -0.944604 -2.38995e-19)
(5.31591 -0.86432 3.80446e-19)
(4.91242 -0.754431 1.24053e-20)
(4.53561 -0.599201 -1.64087e-20)
(4.19591 -0.428363 1.26996e-20)
(3.90854 -0.284179 -5.27975e-20)
(3.67168 -0.188222 1.337e-19)
(3.47317 -0.138879 -8.58775e-20)
(3.30433 -0.128918 -1.85829e-20)
(3.17061 -0.154262 -4.88961e-20)
(6.38034 0.382962 -5.89059e-20)
(6.15011 0.235431 -1.37713e-19)
(5.81869 0.0242506 -2.08984e-19)
(5.40931 -0.0863317 -1.42235e-20)
(4.96016 -0.0976831 1.79735e-19)
(4.51389 -0.0370666 0)
(4.11296 0.0368891 5.65702e-20)
(3.78386 0.0797927 -1.11761e-19)
(3.51928 0.086439 9.81047e-20)
(3.30102 0.0648416 2.40745e-19)
(3.13014 0.0205131 -2.13033e-19)
(6.17475 1.03447 0)
(6.14628 0.930966 0)
(5.97472 0.704463 -3.38438e-19)
(5.67257 0.541036 0)
(5.26111 0.444869 -4.29996e-19)
(4.78232 0.426161 0)
(4.29845 0.438719 -2.65473e-19)
(3.87927 0.419953 1.69429e-19)
(3.54818 0.364874 -4.43275e-19)
(3.28113 0.293951 -9.68657e-20)
(3.07088 0.21836 4.61595e-19)
(6.03684 1.19562 -1.18587e-19)
(6.03951 1.25515 2.51208e-19)
(5.9459 1.10261 2.40032e-19)
(5.73716 0.988086 3.47615e-19)
(5.40564 0.896712 -1.86326e-20)
(4.95954 0.864408 3.60584e-19)
(4.44061 0.874258 5.25479e-19)
(3.93891 0.830172 1.56497e-20)
(3.54082 0.697531 4.76411e-19)
(3.22864 0.553656 1.56478e-19)
(2.98195 0.436088 1.38453e-20)
(5.99119 1.21992 1.81732e-19)
(5.97424 1.35332 -1.48081e-19)
(5.88977 1.26481 0)
(5.71706 1.22016 -1.47624e-19)
(5.44176 1.1746 1.11409e-19)
(5.04619 1.16274 -3.45909e-19)
(4.54192 1.20672 -1.34242e-20)
(3.99347 1.25352 -8.90074e-19)
(3.49576 1.15139 4.70461e-19)
(3.13102 0.911541 -4.35595e-19)
(2.87021 0.71395 1.91408e-19)
(5.9852 1.20997 -1.6466e-19)
(5.95809 1.385 -9.56012e-20)
(5.87119 1.31405 0)
(5.69778 1.30973 5.444e-20)
(5.43262 1.30071 1.69699e-19)
(5.05289 1.31191 -1.51871e-19)
(4.55524 1.36219 3.06707e-19)
(3.9841 1.45419 -6.50217e-20)
(3.39757 1.46616 -5.34924e-20)
(2.94753 1.24886 -2.6599e-19)
(2.67753 0.985845 0)
(5.99592 1.18562 1.06609e-19)
(5.96295 1.38647 1.64023e-19)
(5.87793 1.3155 3.54994e-20)
(5.70325 1.3299 0)
(5.44184 1.33691 -5.44367e-20)
(5.06508 1.36249 1.27117e-19)
(4.55384 1.41931 -8.47712e-20)
(3.93038 1.51287 -1.90441e-19)
(3.29542 1.58794 1.98352e-19)
(2.74263 1.48794 -3.86295e-20)
(2.41798 1.21018 6.381e-20)
(6.01717 1.15108 9.97198e-20)
(5.97872 1.36386 -7.90526e-20)
(5.89712 1.28646 -1.15271e-19)
(5.72205 1.31085 -2.64721e-20)
(5.46562 1.31973 -6.74714e-20)
(5.09426 1.34698 -3.7677e-20)
(4.57725 1.40298 -3.96068e-20)
(3.91447 1.49853 0)
(3.19568 1.58799 -3.5919e-21)
(2.56304 1.58454 6.65499e-21)
(2.1283 1.38458 -6.57464e-20)
(6.04298 1.11478 -1.17572e-19)
(5.99829 1.3273 -1.5369e-20)
(5.92115 1.23506 4.4021e-20)
(5.74589 1.26507 4.6326e-20)
(5.49646 1.26554 6.46864e-21)
(5.13524 1.28321 -4.98326e-21)
(4.62344 1.32556 0)
(3.93774 1.41075 -6.37346e-20)
(3.15129 1.50486 1.04914e-19)
(2.41442 1.53689 -2.03234e-20)
(1.88152 1.43024 1.49096e-20)
(6.06113 1.07796 -2.68334e-20)
(6.01939 1.27982 0)
(5.94295 1.16605 3.35683e-24)
(5.76812 1.1996 -2.39025e-20)
(5.52737 1.18307 5.59406e-20)
(5.18063 1.18136 -5.22489e-20)
(4.68649 1.19803 1.81181e-21)
(4.00116 1.2509 8.0182e-20)
(3.16422 1.34373 -1.02911e-19)
(2.33838 1.38298 0)
(1.69358 1.33029 -6.49278e-20)
(6.06956 1.02003 3.63348e-20)
(6.04188 1.21545 -2.83139e-20)
(5.94833 1.08939 -3.26153e-24)
(5.78225 1.11676 -1.04127e-20)
(5.55189 1.07693 5.76133e-20)
(5.22205 1.04788 -1.18695e-19)
(4.75538 1.0286 2.35729e-19)
(4.09834 1.03109 -3.65418e-20)
(3.23763 1.10606 5.38327e-20)
(2.34156 1.14052 6.85505e-20)
(1.5997 1.09168 -1.22117e-20)
(6.0751 0.934224 0)
(6.04579 1.14816 4.61143e-21)
(5.94165 1.01507 1.73787e-20)
(5.78845 1.00465 1.02263e-20)
(5.56687 0.948729 -1.46254e-19)
(5.25376 0.887426 -1.3913e-21)
(4.81856 0.824384 8.94892e-20)
(4.21377 0.763001 -2.08041e-19)
(3.36503 0.782432 5.60232e-20)
(2.42338 0.817612 0)
(1.62593 0.761551 0)
(6.06608 0.858938 2.17161e-20)
(6.02334 1.06043 6.69927e-20)
(5.9279 0.926092 -7.30904e-20)
(5.7772 0.879056 0)
(5.56393 0.799725 2.37977e-19)
(5.2661 0.703647 -2.47254e-20)
(4.86171 0.594768 -1.36393e-19)
(4.32536 0.477303 3.28213e-19)
(3.60169 0.387969 -2.47426e-19)
(2.59623 0.409437 6.43704e-19)
(1.74962 0.358939 2.74492e-19)
(6.03301 0.785975 8.17713e-21)
(5.98143 0.95809 -1.19984e-20)
(5.89307 0.820152 -4.19995e-20)
(5.74951 0.739159 0)
(5.54866 0.630068 -7.14645e-20)
(5.27015 0.497664 0)
(4.89505 0.345261 3.67794e-19)
(4.40355 0.178364 3.36474e-20)
(3.76176 0.0111121 -2.75335e-19)
(2.90822 -0.0526155 -4.37568e-19)
(1.99683 -0.125019 -6.51031e-19)
(5.97483 0.707504 0)
(5.91768 0.84132 8.33874e-20)
(5.8347 0.696859 -9.93827e-21)
(5.70191 0.583669 0)
(5.5178 0.441316 1.32305e-19)
(5.26499 0.270315 -3.60877e-19)
(4.9282 0.0741356 6.39448e-19)
(4.49188 -0.139132 -5.90683e-19)
(3.93381 -0.357781 -5.80381e-19)
(3.21253 -0.511291 4.29814e-19)
(2.39445 -0.642209 6.49635e-19)
(5.88849 0.624328 4.33748e-20)
(5.82521 0.712208 3.25004e-20)
(5.74678 0.557304 -1.04004e-20)
(5.6276 0.41159 7.97363e-20)
(5.46567 0.23385 -1.33894e-19)
(5.2467 0.0240766 3.32108e-19)
(4.95852 -0.212428 3.58365e-19)
(4.5897 -0.464717 -2.56206e-19)
(4.12783 -0.719673 -5.42859e-19)
(3.53924 -0.918107 4.01958e-19)
(2.8615 -1.08946 0)
(5.76606 0.532809 6.93426e-20)
(5.69671 0.569457 -3.4547e-20)
(5.62345 0.399354 -2.26336e-20)
(5.52176 0.219156 -8.17233e-20)
(5.38951 0.00285303 2.46591e-19)
(5.214 -0.247941 -1.90552e-19)
(4.98357 -0.52718 1.24146e-20)
(4.69513 -0.828878 -6.8299e-19)
(4.336 -1.09768 0)
(3.8855 -1.32593 0)
(3.36101 -1.53405 0)
(5.60036 0.426199 -6.42054e-20)
(5.5252 0.409307 2.98964e-20)
(5.45837 0.218896 9.2018e-20)
(5.37875 0.00153671 0)
(5.28462 -0.257417 0)
(5.16277 -0.554342 0)
(5.00291 -0.876785 0)
(4.80532 -1.17493 1.0668e-19)
(4.55234 -1.44424 0)
(4.23136 -1.68852 0)
(3.85616 -1.91288 0)
(5.38695 0.298127 1.60214e-19)
(5.30303 0.228568 -7.47309e-20)
(5.23882 0.0130712 -3.24949e-20)
(5.1728 -0.243724 5.62813e-20)
(5.10292 -0.542391 0)
(5.03849 -0.855206 0)
(4.96714 -1.15974 1.08847e-19)
(4.86562 -1.45871 3.65902e-19)
(4.72235 -1.74135 3.05418e-19)
(4.52875 -1.99909 -1.11018e-18)
(4.28747 -2.23628 3.52706e-19)
(5.11957 0.153943 3.18608e-19)
(5.00167 0.0383832 -2.3127e-19)
(4.90639 -0.195954 0)
(4.84347 -0.464389 -6.01284e-20)
(4.8226 -0.755308 0)
(4.82113 -1.06068 0)
(4.82186 -1.3683 -3.83173e-19)
(4.80642 -1.66677 -7.91977e-20)
(4.75866 -1.9424 1.73842e-19)
(4.66399 -2.18396 7.38815e-19)
(4.51384 -2.39514 -2.38092e-19)
(4.71486 -0.0222201 -8.25871e-20)
(4.59426 -0.159479 -9.05195e-20)
(4.52063 -0.383786 0)
(4.47653 -0.658017 0)
(4.47776 -0.959687 0)
(4.51855 -1.26273 -1.06867e-20)
(4.57471 -1.54817 6.95255e-20)
(4.6179 -1.80681 2.11857e-19)
(4.62395 -2.03096 -1.13442e-19)
(4.56844 -2.20802 -2.00774e-19)
(4.43655 -2.33493 2.73001e-20)
(4.33772 -0.213444 6.00549e-20)
(4.21122 -0.351271 -5.64206e-19)
(4.12573 -0.613227 0)
(4.0942 -0.910154 0)
(4.12619 -1.20896 0)
(4.20198 -1.47686 -5.40163e-21)
(4.28799 -1.70324 3.96308e-21)
(4.35181 -1.88547 -6.08598e-20)
(4.36478 -2.01423 -4.47925e-20)
(4.29447 -2.06253 -7.56774e-20)
(4.14355 -2.00685 2.48512e-19)
(3.97765 -0.395581 0)
(3.83341 -0.677143 0)
(3.77505 -0.950369 -5.17448e-21)
(3.79789 -1.24689 -1.56435e-19)
(3.86891 -1.49812 1.11353e-19)
(3.95785 -1.69151 3.63472e-21)
(4.03309 -1.83 0)
(4.07047 -1.91749 6.31078e-21)
(4.04342 -1.92876 5.39677e-20)
(3.90716 -1.79428 -5.60958e-20)
(3.65941 -1.48882 3.94307e-20)
(3.64314 -1.38294 0)
(3.60174 -1.17297 0)
(3.65734 -1.45905 -2.73345e-21)
(3.72591 -1.64556 2.99927e-20)
(3.79176 -1.77756 1.18167e-21)
(3.83764 -1.85711 -2.0566e-20)
(3.84655 -1.89136 0)
(3.80163 -1.86643 -7.16925e-21)
(3.68419 -1.74594 -1.99748e-20)
(3.47423 -1.49151 0)
(3.23021 -1.17581 0)
(4.69555 -7.08931 6.9973e-19)
(3.85273 -5.65829 -3.42884e-18)
(4.0529 -4.35231 3.06805e-18)
(4.09888 -3.4 7.17155e-19)
(4.02036 -2.70722 -5.01096e-19)
(3.89067 -2.17478 -1.42754e-18)
(3.74013 -1.76199 8.38655e-19)
(3.58729 -1.43511 2.29851e-19)
(3.44269 -1.1734 -1.74219e-19)
(3.31078 -0.964028 -6.763e-19)
(3.18914 -0.802235 -9.33546e-20)
(0.218962 -4.9434 3.44246e-18)
(1.11362 -4.80584 0)
(1.92715 -4.30397 -5.5305e-19)
(2.54732 -3.69612 6.75844e-19)
(2.92231 -3.10217 -4.27707e-19)
(3.11853 -2.55849 0)
(3.19355 -2.08878 1.12905e-18)
(3.19384 -1.69858 -7.26471e-19)
(3.15463 -1.38174 0)
(3.09533 -1.12873 -6.08363e-19)
(3.02162 -0.933254 1.28208e-18)
(-1.06916 -2.48129 0)
(-0.228685 -3.11314 0)
(0.50651 -3.44416 -1.85378e-18)
(1.27501 -3.38502 2.49666e-18)
(1.88842 -3.07742 -6.79774e-20)
(2.31621 -2.67427 1.15812e-18)
(2.58822 -2.25929 -1.16708e-18)
(2.73841 -1.87368 2.33291e-18)
(2.80241 -1.53741 1.03752e-18)
(2.82413 -1.2559 1.16914e-18)
(2.81854 -1.03138 -1.83258e-18)
(-1.04922 -1.61537 -1.68982e-18)
(-0.500175 -2.01441 1.26057e-18)
(-0.215154 -2.31117 -1.81709e-18)
(0.310993 -2.51165 3.00337e-20)
(0.895319 -2.55866 9.45074e-20)
(1.43558 -2.42922 -3.02216e-18)
(1.86216 -2.17591 7.03489e-19)
(2.17242 -1.87298 -1.13923e-18)
(2.3864 -1.57082 -1.18856e-18)
(2.5181 -1.29846 8.87311e-19)
(2.58853 -1.07259 -1.01454e-18)
(-0.759578 -1.04046 -1.25946e-18)
(-0.303845 -1.3312 1.0187e-18)
(-0.212451 -1.56998 1.71091e-18)
(0.136106 -1.79727 0)
(0.539666 -1.92794 2.21352e-18)
(0.984319 -1.94165 -2.21339e-18)
(1.40419 -1.84507 3.85913e-18)
(1.75872 -1.66946 -2.22786e-18)
(2.03397 -1.45449 7.91832e-19)
(2.23371 -1.2347 -8.67779e-19)
(2.36192 -1.03511 2.37749e-18)
(-0.441256 -0.632925 -1.09592e-18)
(-0.074302 -0.807355 -7.69828e-20)
(-0.0875239 -0.985641 -1.39582e-18)
(0.164687 -1.19093 -3.06533e-21)
(0.44106 -1.34734 -8.67813e-19)
(0.778189 -1.43642 1.14602e-18)
(1.13239 -1.44391 -1.62916e-18)
(1.46659 -1.37621 2.27178e-18)
(1.75605 -1.25446 0)
(1.98916 -1.10506 0)
(2.15571 -0.953955 -1.2208e-18)
(-0.187819 -0.366816 0)
(0.143206 -0.44144 8.00069e-19)
(0.107164 -0.572364 -2.37778e-18)
(0.281018 -0.737237 1.83937e-18)
(0.473819 -0.881991 -1.4076e-18)
(0.723888 -0.994786 1.08382e-18)
(1.00537 -1.05646 -4.05857e-19)
(1.29322 -1.06019 -1.11383e-18)
(1.56433 -1.01168 0)
(1.8009 -0.925551 -2.37472e-19)
(1.98396 -0.819393 -4.86299e-19)
(0.00437329 -0.18271 -9.55058e-20)
(0.318394 -0.192283 2.58687e-18)
(0.291005 -0.278889 -1.9997e-18)
(0.423018 -0.407705 0)
(0.564413 -0.529441 5.12788e-19)
(0.75296 -0.639618 0)
(0.973493 -0.721284 0)
(1.21165 -0.763857 0)
(1.45056 -0.764853 3.46188e-19)
(1.67198 -0.730413 -3.75402e-19)
(1.84792 -0.672672 1.06453e-18)
(0.166595 -0.0301219 1.00505e-19)
(0.467879 -0.00233355 -2.27043e-18)
(0.449191 -0.0581273 0)
(0.560319 -0.161263 -1.42557e-18)
(0.671718 -0.261384 1.2547e-18)
(0.819894 -0.360065 8.56982e-19)
(0.995395 -0.444115 -6.5676e-19)
(1.19111 -0.503826 0)
(1.39635 -0.533676 0)
(1.59657 -0.533869 0)
(1.76429 -0.509666 -1.64352e-19)
(0.317939 0.0812524 -2.33652e-18)
(0.614188 0.141671 4.05102e-18)
(0.593509 0.112706 -1.57665e-18)
(0.688957 0.0293875 -3.05739e-19)
(0.779677 -0.0522209 0)
(0.900747 -0.137818 0)
(1.0444 -0.216851 0)
(1.20748 -0.281545 0)
(1.38354 -0.325709 -6.12893e-19)
(1.56242 -0.346385 4.59473e-19)
(1.72041 -0.341553 -1.55466e-19)
(0.441364 0.139388 -4.2358e-19)
(0.73694 0.245789 0)
(0.718094 0.244314 0)
(0.804693 0.179402 -2.01082e-18)
(0.881719 0.114873 1.36382e-18)
(0.984597 0.042264 1.40314e-18)
(1.10589 -0.0289561 -1.5981e-18)
(1.24447 -0.0927103 -7.74261e-19)
(1.39686 -0.143414 0)
(1.55601 -0.177364 0)
(1.69468 -0.189896 5.65616e-19)
(0.530619 0.185248 2.41762e-18)
(0.821092 0.338461 -1.67556e-18)
(0.816465 0.354656 0)
(0.902885 0.303491 0)
(0.973628 0.253055 2.08895e-18)
(1.06592 0.191941 -6.64734e-19)
(1.17251 0.128946 5.09875e-19)
(1.29386 0.0685579 -6.87463e-19)
(1.42802 0.0154747 2.15349e-18)
(1.57071 -0.026258 -1.54685e-18)
(1.69757 -0.049148 -1.05902e-18)
(0.610684 0.243135 -4.884e-19)
(0.894548 0.429618 -3.86803e-19)
(0.902229 0.455075 3.10101e-18)
(0.988803 0.413099 -2.43623e-18)
(1.05625 0.373173 0)
(1.14267 0.321126 -3.91664e-20)
(1.24001 0.265456 0)
(1.34971 0.209178 -1.34061e-18)
(1.47072 0.156248 1.01698e-18)
(1.60142 0.110563 0)
(1.72083 0.0833953 2.04459e-18)
(0.682244 0.284149 4.26574e-18)
(0.969447 0.505367 2.25075e-18)
(0.983165 0.544679 -6.02654e-19)
(1.06803 0.51234 4.74786e-19)
(1.1327 0.481596 -2.17515e-18)
(1.21564 0.436814 1.61266e-18)
(1.30715 0.387181 1.66867e-18)
(1.40909 0.334597 -1.27564e-18)
(1.52052 0.282571 1.44881e-20)
(1.64186 0.234473 -6.84496e-19)
(1.75133 0.203634 9.27523e-19)
(0.732727 0.317006 1.37977e-18)
(1.02441 0.579225 -1.79433e-18)
(1.05181 0.630365 0)
(1.13987 0.605526 -1.73595e-18)
(1.20466 0.582202 6.60254e-19)
(1.28654 0.543044 -4.31385e-20)
(1.37467 0.498116 -1.58806e-18)
(1.47154 0.448291 1.18629e-18)
(1.57581 0.396968 6.29022e-20)
(1.68993 0.346723 0)
(1.79394 0.312934 -8.57132e-19)
(0.785434 0.360447 4.51692e-19)
(1.07603 0.65666 0)
(1.11686 0.715435 0)
(1.20849 0.69577 0)
(1.27449 0.678118 0)
(1.357 0.642875 0)
(1.44346 0.601156 -7.60771e-19)
(1.53709 0.552826 -1.07451e-18)
(1.6357 0.501666 1.64323e-18)
(1.74391 0.449053 -1.1326e-18)
(1.84312 0.412669 1.69865e-18)
(0.843062 0.400137 0)
(1.13188 0.723764 0)
(1.18587 0.79394 -4.89565e-19)
(1.2779 0.782487 1.55169e-18)
(1.34586 0.769797 -1.20909e-18)
(1.42939 0.737569 1.79497e-18)
(1.51511 0.697533 -2.02921e-18)
(1.60622 0.649382 -9.63928e-19)
(1.69978 0.597812 0)
(1.80204 0.54286 -1.02036e-18)
(1.89608 0.503817 7.30653e-19)
(0.890571 0.433698 0)
(1.17832 0.786146 -3.07386e-19)
(1.25193 0.869306 5.02561e-19)
(1.34776 0.866874 0)
(1.42067 0.8576 0)
(1.50624 0.826835 -1.66527e-18)
(1.59176 0.786493 1.2888e-18)
(1.68015 0.737103 1.02783e-18)
(1.76874 0.68446 0)
(1.86442 0.627807 1.97709e-18)
(1.95401 0.585934 -7.55448e-19)
(0.939388 0.470369 -3.99285e-19)
(1.22159 0.849162 3.22438e-19)
(1.31913 0.94425 0)
(1.42176 0.949895 1.38575e-18)
(1.50189 0.941393 -2.59919e-18)
(1.58968 0.909566 4.25265e-19)
(1.67421 0.866652 -6.07842e-19)
(1.75837 0.815015 1.72986e-18)
(1.84102 0.761254 5.69044e-19)
(1.92926 0.704284 -1.33031e-18)
(2.01592 0.65938 1.27285e-18)
(0.998286 0.510732 -1.42273e-18)
(1.27004 0.911139 0)
(1.39491 1.01629 2.09277e-19)
(1.50642 1.02822 0)
(1.59387 1.01729 5.1726e-19)
(1.68172 0.981569 3.81695e-19)
(1.7622 0.934636 0)
(1.83919 0.881283 -7.69006e-19)
(1.91417 0.827929 -2.43085e-20)
(1.99377 0.773448 0)
(2.07665 0.727097 -5.6992e-19)
(1.06938 0.551798 -2.91572e-18)
(1.32846 0.967716 2.44038e-18)
(1.48386 1.07851 -2.27759e-19)
(1.6061 1.09279 0)
(1.69829 1.07591 1.02817e-19)
(1.78097 1.03469 0)
(1.85219 0.985125 -9.67675e-19)
(1.91862 0.933531 8.69167e-21)
(1.9846 0.884163 5.25377e-19)
(2.05552 0.835319 0)
(2.13241 0.790671 0)
(1.18831 0.589606 -1.12631e-19)
(1.40317 1.01317 -2.18e-18)
(1.59561 1.11531 1.63668e-18)
(1.72503 1.12583 0)
(1.81279 1.10133 7.32113e-19)
(1.88095 1.0579 -6.45902e-19)
(1.93705 1.01267 0)
(1.99098 0.970059 3.75016e-19)
(2.04813 0.930139 -7.29411e-19)
(2.11202 0.890242 3.10764e-19)
(2.18474 0.847923 0)
(1.14503 0.607662 -3.02079e-18)
(1.49581 0.99135 2.17609e-18)
(1.67684 1.10437 8.30649e-20)
(1.80973 1.10383 0)
(1.8911 1.07607 -2.65962e-20)
(1.94628 1.04294 3.96743e-20)
(1.99266 1.01537 0)
(2.04168 0.990848 -4.30675e-20)
(2.09602 0.966238 0)
(2.15718 0.940141 4.35973e-20)
(2.22806 0.903969 0)
(2.69487 0.330751 0)
(1.94209 0.997771 0)
(2.1669 0.868484 -1.09934e-19)
(2.13091 0.908466 1.93574e-19)
(2.07898 0.943014 1.11723e-18)
(2.0505 0.967744 -6.54948e-19)
(2.05401 0.985735 0)
(2.08444 0.99273 0)
(2.13052 0.989589 0)
(2.1871 0.981766 -1.53914e-19)
(2.25421 0.963855 -1.12182e-19)
(7.69326 -5.44545 -3.96801e-18)
(6.25997 -2.55826 3.36877e-18)
(6.22494 -3.08939 -1.08145e-18)
(5.67969 -2.68796 1.96539e-19)
(5.0857 -2.20943 -1.01947e-19)
(4.61002 -1.78447 2.95976e-19)
(4.24521 -1.44628 1.17031e-19)
(3.95348 -1.17297 -2.64312e-19)
(3.71299 -0.954276 2.88338e-19)
(3.51106 -0.779712 -8.32587e-20)
(3.34012 -0.645053 0)
(6.30054 -3.01663 -1.81886e-17)
(5.28465 -0.056312 -1.54784e-17)
(6.34231 -0.943327 1.18858e-17)
(6.40478 -1.2123 0)
(5.92088 -1.19568 0)
(5.28494 -1.11358 -2.19304e-19)
(4.75832 -0.984655 1.68199e-19)
(4.32583 -0.827853 -1.22286e-19)
(3.97997 -0.680651 1.08037e-19)
(3.70258 -0.557372 -1.38155e-20)
(3.47992 -0.467262 4.94414e-22)
(3.61236 -1.67102 6.83893e-20)
(3.82784 0.845282 -2.24064e-17)
(5.4974 0.534443 1.5727e-17)
(6.08248 0.318 7.7067e-18)
(6.06696 0.109624 -5.18814e-18)
(5.6374 -0.141672 9.93166e-20)
(5.10023 -0.288152 -1.16836e-18)
(4.61275 -0.326045 4.88261e-19)
(4.19551 -0.306254 0)
(3.85558 -0.267061 0)
(3.58321 -0.234763 -7.64793e-20)
(1.3775 -1.57771 3.91343e-19)
(2.59047 0.591668 1.12064e-17)
(4.31253 1.14209 -3.00323e-17)
(5.20952 1.33021 1.01319e-17)
(5.6223 1.20613 -5.35788e-18)
(5.52717 0.854588 3.85005e-18)
(5.14103 0.508583 -7.9423e-19)
(4.71405 0.285773 1.63758e-18)
(4.29954 0.155637 -1.08533e-18)
(3.93873 0.088527 5.37684e-19)
(3.64156 0.0504202 7.4474e-20)
(-0.0125992 -2.10111 1.33518e-17)
(1.67506 -0.0650724 -9.31939e-18)
(3.20686 1.1336 1.31572e-17)
(4.24067 1.76326 -1.09865e-18)
(4.91 1.89024 -6.62257e-18)
(5.07967 1.62651 0)
(4.90062 1.22512 -2.71841e-18)
(4.6034 0.895214 5.90662e-18)
(4.25788 0.645214 -1.45886e-18)
(3.92249 0.4746 -1.60349e-18)
(3.62389 0.366779 7.91817e-19)
(-0.734489 -2.73227 0)
(1.03901 -0.685992 1.90785e-18)
(2.33401 0.873076 2.78956e-18)
(3.39572 1.83017 -2.00996e-18)
(4.16873 2.21719 -2.78051e-18)
(4.49205 2.11259 0)
(4.48699 1.76488 1.72609e-18)
(4.32718 1.40811 -6.46449e-18)
(4.08072 1.09548 2.96097e-18)
(3.80592 0.846418 -2.29284e-18)
(3.54192 0.665032 1.89439e-18)
(-1.11817 -3.2559 -7.15993e-18)
(0.546216 -1.20161 -1.80704e-18)
(1.6618 0.545575 -2.65563e-18)
(2.71094 1.72899 1.91646e-18)
(3.50264 2.32549 7.5469e-18)
(3.89737 2.37574 -7.12262e-18)
(4.00625 2.12106 2.17325e-18)
(3.95872 1.79058 2.41325e-18)
(3.80725 1.46448 -3.20526e-18)
(3.60439 1.17666 1.03706e-18)
(3.39443 0.933698 -8.78625e-19)
(-1.35829 -3.65736 -1.04568e-17)
(0.149492 -1.61658 1.19181e-17)
(1.13261 0.223424 -4.44359e-18)
(2.15473 1.5657 -3.13383e-18)
(2.92942 2.32006 -4.43642e-18)
(3.34987 2.49633 6.6543e-18)
(3.5243 2.33153 2.05534e-18)
(3.5554 2.05204 0)
(3.48345 1.74081 -1.43803e-18)
(3.34803 1.4438 1.08033e-18)
(3.19104 1.17049 0)
(-1.51038 -3.94245 1.74671e-18)
(-0.179787 -1.95302 0)
(0.697958 -0.0803205 -1.89774e-18)
(1.68517 1.37484 1.15106e-17)
(2.43032 2.24952 -6.34395e-18)
(2.85639 2.52613 2.75333e-18)
(3.0677 2.43952 -4.10399e-18)
(3.14997 2.21199 2.46705e-18)
(3.13883 1.93027 0)
(3.06179 1.64676 1.85695e-18)
(2.96996 1.35099 1.05922e-18)
(-1.60456 -4.13727 -9.6806e-18)
(-0.458899 -2.22755 7.08818e-18)
(0.328044 -0.366149 3.50486e-18)
(1.27473 1.16642 2.27341e-18)
(1.98631 2.13408 -7.41118e-18)
(2.41019 2.49251 2.79742e-18)
(2.64282 2.47339 0)
(2.75904 2.29429 -2.41394e-18)
(2.79354 2.04494 0)
(2.7637 1.78203 -5.22012e-18)
(2.72569 1.49119 1.77114e-19)
(-1.68258 -4.27431 1.50155e-18)
(-0.708523 -2.47493 -2.25906e-18)
(0.00382963 -0.651497 -1.67352e-18)
(0.902363 0.934205 -2.48032e-18)
(1.57963 1.97767 5.11297e-18)
(2.00002 2.40782 -3.68735e-18)
(2.24708 2.44944 1.77273e-19)
(2.38766 2.31514 -2.1042e-18)
(2.45749 2.09808 -1.27485e-18)
(2.46749 1.85647 2.71389e-18)
(2.46795 1.58568 -9.70737e-19)
(-1.79104 -4.3784 1.25418e-18)
(-0.938618 -2.69786 0)
(-0.280074 -0.927568 1.49827e-18)
(0.561079 0.686435 -5.36214e-18)
(1.20375 1.78832 -1.40637e-18)
(1.62029 2.28121 1.1672e-18)
(1.87773 2.37807 4.44009e-18)
(2.03697 2.28521 9.93672e-19)
(2.13467 2.09953 0)
(2.17867 1.87906 0)
(2.21294 1.62737 9.60933e-19)
(-1.8842 -4.45744 -1.23387e-18)
(-1.13259 -2.8843 -2.73203e-18)
(-0.527231 -1.19026 1.44321e-18)
(0.241138 0.425065 4.99155e-18)
(0.851015 1.56781 -1.47691e-18)
(1.26447 2.11675 0)
(1.53024 2.26518 -1.43766e-18)
(1.70529 2.21125 -1.70011e-18)
(1.82651 2.05593 9.388e-20)
(1.89984 1.85819 0)
(1.97408 1.62376 3.91944e-19)
(-1.94554 -4.53726 -4.60224e-18)
(-1.30725 -3.06036 -4.70479e-19)
(-0.756884 -1.46302 -2.14858e-18)
(-0.0647116 0.13526 1.84906e-18)
(0.513777 1.31217 3.10562e-19)
(0.924901 1.9136 -4.32783e-19)
(1.19834 2.11247 5.74709e-19)
(1.38916 2.0965 -2.72754e-20)
(1.53306 1.97072 5.45424e-19)
(1.63493 1.79679 0)
(1.7388 1.58736 -6.20222e-20)
(-1.99489 -4.616 -3.74477e-18)
(-1.47312 -3.22399 5.61426e-18)
(-0.975839 -1.73203 -2.66116e-18)
(-0.35044 -0.174095 -1.62664e-18)
(0.194108 1.02403 9.21525e-19)
(0.595032 1.67285 1.2175e-18)
(0.876673 1.91968 5.64163e-20)
(1.08473 1.941 0)
(1.25261 1.84457 -4.05733e-19)
(1.38495 1.69502 6.07219e-19)
(1.51329 1.51581 -1.79932e-19)
(-2.02538 -4.68531 0)
(-1.62343 -3.37475 -2.72894e-18)
(-1.18283 -1.99576 2.19666e-18)
(-0.624574 -0.500358 1.67475e-18)
(-0.118807 0.698152 -9.1932e-20)
(0.269199 1.38877 -6.17225e-19)
(0.558377 1.68153 3.87194e-19)
(0.786553 1.74004 -3.44369e-19)
(0.982163 1.67421 -3.37991e-19)
(1.1498 1.55117 2.89415e-19)
(1.31463 1.40079 1.09554e-19)
(-2.05648 -4.7481 5.21055e-18)
(-1.76565 -3.52555 -4.24148e-20)
(-1.38224 -2.26189 -5.90977e-20)
(-0.894325 -0.849527 -1.63966e-18)
(-0.433666 0.330957 -1.40561e-18)
(-0.0622439 1.05238 -8.39307e-20)
(0.234507 1.38754 8.57745e-19)
(0.48783 1.48339 -5.23004e-19)
(0.717487 1.45187 0)
(0.923893 1.36098 -9.70598e-20)
(1.13412 1.23942 0)
(-2.09565 -4.80968 1.63609e-18)
(-1.90806 -3.67647 5.6022e-19)
(-1.58018 -2.53173 -9.27933e-19)
(-1.16722 -1.22239 -1.2424e-18)
(-0.760622 -0.0828836 9.58942e-19)
(-0.409676 0.650563 2.6385e-19)
(-0.103731 1.01944 8.32367e-19)
(0.181438 1.15434 2.46438e-19)
(0.45408 1.165 3.16911e-19)