/*--------------------------------*- C++ -*----------------------------------*\
| =========                 |                                                 |
| \\      /  F ield         | OpenFOAM: The Open Source CFD Toolbox           |
|  \\    /   O peration     | Version:  3.0.1                                 |
|   \\  /    A nd           | Web:      www.OpenFOAM.org                      |
|    \\/     M anipulation  |                                                 |
\*---------------------------------------------------------------------------*/
FoamFile
{
    version     2.0;
    format      ascii;
    class       volScalarField;
    location    "0.926362";
    object      p;
}
// * * * * * * * * * * * * * * * * * * * * * * * * * * * * * * * * * * * * * //

dimensions      [0 2 -2 0 0 0 0];

internalField   nonuniform List<scalar> 
21246
(
-0.768815
2.0336
2.70136
2.64973
2.31021
1.91016
1.53361
1.197
0.903084
0.653475
0.494604
-16.7332
-8.09769
-4.60443
-2.20421
-0.782289
-0.116644
0.137882
0.189832
0.147752
0.0715444
0.0251635
-19.1818
-13.5537
-10.8341
-7.47298
-4.73684
-2.89389
-1.7687
-1.13225
-0.790826
-0.607181
-0.484085
-16.2843
-14.2583
-13.0961
-10.3911
-7.75221
-5.50068
-3.78325
-2.61014
-1.85583
-1.37631
-1.05451
-13.0187
-12.58
-12.3373
-10.7831
-8.98036
-7.05374
-5.29505
-3.88994
-2.85887
-2.1327
-1.60487
-10.6111
-10.5979
-10.6132
-9.83213
-8.79945
-7.44642
-6.01308
-4.69936
-3.60717
-2.76015
-2.10222
-8.75425
-8.88145
-8.92708
-8.53144
-7.96304
-7.08952
-6.05309
-4.99259
-4.01038
-3.17337
-2.47196
-7.24834
-7.41285
-7.45143
-7.25959
-6.95133
-6.40294
-5.69148
-4.89498
-4.09218
-3.35378
-2.68937
-6.12984
-6.20202
-6.22022
-6.136
-5.97254
-5.63295
-5.15535
-4.57674
-3.94886
-3.3329
-2.74629
-5.33123
-5.30176
-5.28621
-5.2332
-5.13146
-4.9115
-4.58661
-4.16851
-3.68604
-3.18636
-2.67985
-4.75335
-4.62865
-4.59526
-4.53897
-4.45401
-4.29397
-4.05898
-3.74867
-3.37631
-2.97674
-2.56063
-4.36246
-4.15321
-4.08588
-4.00976
-3.92001
-3.78467
-3.59753
-3.354
-3.05842
-2.7342
-2.38745
-4.1236
-3.85891
-3.75129
-3.63605
-3.51886
-3.3799
-3.20919
-3.00032
-2.75245
-2.48
-2.18211
-3.9542
-3.66575
-3.52401
-3.37104
-3.22123
-3.06476
-2.89103
-2.6935
-2.46993
-2.23069
-1.97814
-3.79255
-3.49275
-3.32802
-3.14784
-2.97484
-2.80423
-2.62394
-2.42674
-2.21186
-1.9898
-1.76464
-3.6378
-3.34049
-3.16439
-2.9699
-2.77962
-2.59625
-2.40476
-2.19726
-1.97631
-1.75622
-1.54621
-3.51064
-3.22444
-3.04677
-2.85038
-2.65052
-2.45169
-2.2393
-2.00668
-1.76273
-1.52868
-1.31799
-3.41662
-3.1459
-2.97221
-2.78131
-2.57812
-2.36186
-2.11911
-1.84732
-1.56632
-1.30851
-1.09522
-3.35107
-3.10036
-2.93617
-2.75597
-2.55183
-2.31386
-2.02957
-1.70679
-1.38094
-1.0952
-0.872088
-3.30855
-3.08191
-2.93325
-2.76476
-2.55357
-2.28296
-1.94696
-1.57076
-1.20403
-0.896722
-0.653897
-3.2731
-3.08063
-2.95343
-2.7876
-2.55283
-2.23751
-1.85028
-1.43635
-1.05237
-0.73508
-0.470569
-3.19587
-3.07971
-2.97331
-2.78586
-2.50791
-2.14698
-1.72932
-1.31346
-0.947875
-0.654306
-0.416915
-3.20556
-3.15207
-2.9982
-2.73394
-2.40672
-2.03888
-1.65993
-1.30769
-1.00345
-0.740666
-0.432013
-3.22736
-2.84816
-2.51267
-2.2263
-1.96028
-1.69284
-1.43329
-1.20795
-1.04456
-0.947924
-0.916102
15.9934
11.3727
8.11366
5.96016
4.47293
3.42878
2.65449
2.04049
1.56708
1.16779
0.893668
12.7597
12.5405
10.8066
8.69804
6.73607
5.14534
3.91216
2.95204
2.21271
1.65361
1.28047
8.1766
9.59056
9.58434
8.88289
7.5772
6.07664
4.70101
3.57329
2.6833
2.00617
1.55347
4.01452
6.23535
6.97026
7.25824
6.86833
6.00215
4.93544
3.89377
2.96954
2.22707
1.73556
1.0556
3.19256
4.08751
4.97623
5.33397
5.16551
4.57671
3.78973
2.98837
2.28766
1.80284
-0.900605
0.8961
1.64136
2.70673
3.40244
3.72945
3.64643
3.25148
2.70294
2.14541
1.73745
-2.16721
-0.684578
-0.154455
0.886335
1.65489
2.21019
2.45503
2.41312
2.14835
1.79084
1.50998
-2.94587
-1.72967
-1.41273
-0.443322
0.248204
0.880633
1.29416
1.48086
1.45442
1.2964
1.15439
-3.54312
-2.45227
-2.33907
-1.38078
-0.839418
-0.199054
0.284678
0.601437
0.739227
0.743126
0.729747
-4.05659
-3.09116
-2.95301
-2.16977
-1.64367
-1.04619
-0.550061
-0.16337
0.08381
0.206692
0.296619
-4.44312
-3.71686
-3.42115
-2.77115
-2.27424
-1.71058
-1.2194
-0.799205
-0.483368
-0.275209
-0.117811
-4.69138
-4.09052
-3.79598
-3.21841
-2.75546
-2.22371
-1.74416
-1.31031
-0.954028
-0.68805
-0.486846
-4.90547
-4.34654
-4.07296
-3.54369
-3.10914
-2.60601
-2.14136
-1.70549
-1.32819
-1.02284
-0.789901
-5.10769
-4.54421
-4.27362
-3.77313
-3.35783
-2.87764
-2.42722
-1.99527
-1.60993
-1.28285
-1.0206
-5.15348
-4.63591
-4.39024
-3.91854
-3.51888
-3.05771
-2.61911
-2.19338
-1.80718
-1.47023
-1.1945
-5.15443
-4.66988
-4.43961
-3.99298
-3.60416
-3.15947
-2.7303
-2.31206
-1.92972
-1.59227
-1.31376
-5.14255
-4.66963
-4.43814
-4.00852
-3.62294
-3.19055
-2.76876
-2.35944
-1.98543
-1.65476
-1.37319
-5.0685
-4.61242
-4.37914
-3.96491
-3.57763
-3.15371
-2.73855
-2.3409
-1.98121
-1.66875
-1.40612
-4.93532
-4.49731
-4.25942
-3.85827
-3.46576
-3.04796
-2.64147
-2.26052
-1.92174
-1.63201
-1.38929
-4.75753
-4.32977
-4.07749
-3.68326
-3.28268
-2.87146
-2.48006
-2.12397
-1.81377
-1.55258
-1.33744
-4.52245
-4.09568
-3.81895
-3.42697
-3.02179
-2.62555
-2.26245
-1.94247
-1.66762
-1.43634
-1.24403
-4.1967
-3.76306
-3.45197
-3.06676
-2.67662
-2.31728
-2.0023
-1.7299
-1.49346
-1.28891
-1.1129
-3.82299
-3.32552
-2.98488
-2.64258
-2.30949
-2.0154
-1.762
-1.53793
-1.3325
-1.14243
-0.974352
-2.91691
-2.4938
-2.23011
-2.01643
-1.81643
-1.63527
-1.468
-1.30786
-1.14509
-0.973424
-0.815895
1.0403
0.978302
0.920146
0.877926
0.840474
0.801971
0.759124
0.710653
0.656588
0.608247
0.5962
0.922439
0.938383
0.901602
0.873788
0.850456
0.822064
0.785489
0.741186
0.694045
0.656477
0.643614
0.552395
0.677953
0.735773
0.766676
0.781472
0.78272
0.771164
0.750138
0.723041
0.694369
0.679701
0.214554
0.401055
0.504514
0.587881
0.654748
0.702737
0.729706
0.736657
0.726554
0.706857
0.692978
-0.0444905
0.156373
0.274402
0.391549
0.498226
0.585404
0.647653
0.683935
0.696454
0.692974
0.69204
-0.242972
-0.042248
0.0659722
0.195485
0.324202
0.439516
0.53253
0.598561
0.637091
0.654331
0.668669
-0.394012
-0.189749
-0.106252
0.0262463
0.162143
0.291648
0.405353
0.495668
0.558881
0.598612
0.63095
-0.477761
-0.316836
-0.233933
-0.103562
0.0285114
0.1611
0.285145
0.391442
0.474041
0.533963
0.587709
-0.54073
-0.400034
-0.313277
-0.198331
-0.0730749
0.0571503
0.183814
0.297846
0.393254
0.467649
0.53864
-0.592491
-0.456266
-0.371699
-0.264225
-0.145462
-0.0203613
0.104286
0.220999
0.32317
0.408114
0.48952
-0.621015
-0.489988
-0.410001
-0.308099
-0.195092
-0.0753669
0.0457143
0.161798
0.266423
0.357013
0.446546
-0.621012
-0.499539
-0.426781
-0.331478
-0.224809
-0.110958
0.00548451
0.118987
0.223528
0.31676
0.412756
-0.61365
-0.497247
-0.429125
-0.339164
-0.238481
-0.130673
-0.0196526
0.0898496
0.192551
0.286442
0.386633
-0.605149
-0.488794
-0.422933
-0.336821
-0.241292
-0.139278
-0.0340566
0.0704065
0.169608
0.26149
0.360566
-0.574797
-0.465811
-0.406049
-0.325398
-0.235788
-0.140104
-0.0413717
0.0570864
0.151732
0.241024
0.340223
-0.541005
-0.438298
-0.383628
-0.308457
-0.225315
-0.136787
-0.0455463
0.0458493
0.135078
0.220973
0.319612
-0.512935
-0.412168
-0.36062
-0.290581
-0.21442
-0.134083
-0.0515587
0.0316898
0.115029
0.197836
0.295121
-0.474127
-0.380596
-0.335759
-0.273639
-0.206717
-0.136662
-0.064731
0.00927907
0.0869392
0.168457
0.268823
-0.433168
-0.349416
-0.313095
-0.261637
-0.20732
-0.151096
-0.0923796
-0.0283164
0.0451768
0.128207
0.23457
-0.398086
-0.325744
-0.29858
-0.260284
-0.222645
-0.184943
-0.142435
-0.0878644
-0.0150507
0.0741442
0.185657
-0.373011
-0.313474
-0.297368
-0.276801
-0.263092
-0.250132
-0.22532
-0.175868
-0.0958318
0.00872363
0.134793
-0.353036
-0.31698
-0.314696
-0.324434
-0.348055
-0.365714
-0.353815
-0.297407
-0.19628
-0.0641683
0.0868993
-0.45791
-0.355412
-0.391178
-0.453258
-0.519778
-0.55853
-0.539696
-0.452552
-0.311852
-0.141079
0.03781
0.24713
-0.184999
-0.408402
-0.591349
-0.71658
-0.765931
-0.730135
-0.605141
-0.41665
-0.205171
0.00079404
0.433211
0.695709
0.769492
0.75905
0.752721
0.738828
0.702767
0.65533
0.601186
0.549178
0.529194
0.4544
0.606406
0.635534
0.584832
0.550462
0.545282
0.549925
0.5411
0.501455
0.45524
0.44146
0.288437
0.387257
0.436526
0.40489
0.321722
0.261457
0.25475
0.281424
0.303424
0.296546
0.292206
-0.273835
-0.137277
-0.0115374
0.0283718
-0.0312997
-0.129248
-0.184578
-0.160459
-0.0806696
0.00283956
0.0751094
-0.878112
-0.800984
-0.680387
-0.593789
-0.598369
-0.702643
-0.803865
-0.806885
-0.694838
-0.512861
-0.31256
-1.49207
-1.50505
-1.44145
-1.40742
-1.41619
-1.50995
-1.65053
-1.7004
-1.57847
-1.30088
-0.942176
-2.05702
-2.18484
-2.20373
-2.27538
-2.38979
-2.54208
-2.73664
-2.84786
-2.7443
-2.39579
-1.86916
-2.56451
-2.80259
-2.90897
-3.10739
-3.36367
-3.67132
-3.97896
-4.20215
-4.15301
-3.76245
-3.10637
-2.98891
-3.33008
-3.51781
-3.84899
-4.25659
-4.74144
-5.25478
-5.65801
-5.71215
-5.29076
-4.43413
-3.27633
-3.74011
-3.98851
-4.44337
-4.99796
-5.6646
-6.40783
-7.02782
-7.2684
-6.86814
-5.85551
-3.39419
-4.00062
-4.27454
-4.83984
-5.52172
-6.34182
-7.27059
-8.14958
-8.62462
-8.28575
-7.1597
-3.41672
-4.02479
-4.39756
-5.02205
-5.79134
-6.72288
-7.78708
-8.87253
-9.51681
-9.30937
-8.13854
-3.27393
-3.85742
-4.30778
-4.96115
-5.78472
-6.77978
-7.90595
-9.05336
-9.79229
-9.76677
-8.41286
-2.91959
-3.4762
-3.96581
-4.62934
-5.46865
-6.47912
-7.60445
-8.69881
-9.48672
-9.48041
-8.20237
-2.40122
-2.89738
-3.38371
-4.02654
-4.84245
-5.82009
-6.88911
-7.90223
-8.60534
-8.5106
-7.44943
-1.7142
-2.14087
-2.60434
-3.21313
-3.98821
-4.90775
-5.88113
-6.74298
-7.2543
-7.11927
-6.234
-0.882756
-1.26098
-1.71059
-2.29567
-3.03364
-3.88812
-4.74557
-5.4222
-5.70817
-5.47222
-4.73608
-0.025371
-0.40352
-0.871793
-1.45506
-2.16151
-2.94052
-3.66221
-4.13796
-4.18875
-3.78742
-3.12755
0.604983
0.165472
-0.355959
-0.941294
-1.59679
-2.2766
-2.85376
-3.13523
-2.96205
-2.37627
-1.65018
0.773749
0.271053
-0.275833
-0.828708
-1.41099
-1.99699
-2.46114
-2.58131
-2.21356
-1.49261
-0.650616
0.561025
0.0570971
-0.461664
-0.990323
-1.54768
-2.09267
-2.48286
-2.42398
-1.81033
-0.987416
-0.140808
0.0693401
-0.417298
-0.917015
-1.4047
-1.90712
-2.34333
-2.44789
-2.05691
-1.39347
-0.682889
-0.0525292
-0.40083
-1.09674
-1.51316
-1.83763
-2.04925
-2.06474
-1.8439
-1.42858
-0.932328
-0.456008
-0.068923
-2.10342
-1.95912
-1.74913
-1.55879
-1.45013
-1.3548
-1.16451
-0.890898
-0.583841
-0.286944
-0.0307294
26.1548
21.2933
17.0201
13.6382
11.0207
9.02474
7.47196
6.2345
5.23596
4.45418
3.91258
18.0796
18.5196
17.4095
15.3744
13.03
10.8026
8.88142
7.30982
6.049
5.07246
4.39079
8.47327
12.1928
13.2148
13.4162
12.4254
10.9942
9.38617
7.86692
6.54928
5.48237
4.71959
1.88534
6.00098
7.50505
9.28114
9.74444
9.52152
8.7188
7.66378
6.5734
5.59178
4.81946
-1.53861
1.81128
2.78066
5.23492
6.43418
7.1385
7.17868
6.76855
6.10426
5.37466
4.75059
-3.21686
-0.498737
-0.076852
2.20123
3.54478
4.70324
5.31782
5.47159
5.26661
4.86286
4.44387
-3.76152
-1.85936
-1.36558
0.309634
1.50453
2.74656
3.61179
4.12129
4.28082
4.18864
3.99304
-3.50179
-2.40743
-1.9194
-0.657633
0.295718
1.41504
2.30113
2.96354
3.34338
3.4795
3.48774
-3.18055
-2.39637
-2.03766
-1.0593
-0.318091
0.626595
1.42496
2.10536
2.58134
2.85712
3.00625
-2.99915
-2.2691
-1.95764
-1.14763
-0.560497
0.229377
0.912124
1.54459
2.03398
2.37284
2.60697
-2.54256
-1.93594
-1.69925
-1.0227
-0.560568
0.0993629
0.667812
1.22765
1.68499
2.02983
2.29156
-1.73498
-1.35026
-1.24402
-0.716504
-0.380176
0.160148
0.618628
1.09817
1.50212
1.82602
2.08044
-1.11593
-0.818156
-0.75562
-0.32866
-0.0922301
0.34831
0.707434
1.10822
1.44903
1.73435
1.96869
-0.730226
-0.40688
-0.323273
0.0546014
0.234204
0.603898
0.883772
1.21481
1.49141
1.72836
1.92036
-0.118046
0.104438
0.130875
0.443349
0.576633
0.892269
1.1117
1.38405
1.59957
1.78374
1.92676
0.388931
0.556564
0.555343
0.822237
0.92416
1.1988
1.37278
1.59484
1.7526
1.88105
1.97134
0.70926
0.896681
0.915825
1.17109
1.26874
1.52035
1.65974
1.83702
1.93615
2.00318
2.02942
1.17547
1.30821
1.29262
1.52956
1.63348
1.86811
1.98135
2.10034
2.13823
2.13699
2.09833
1.7608
1.80534
1.71115
1.9525
2.06559
2.25578
2.33376
2.3822
2.34485
2.26754
2.16296
2.53462
2.48689
2.29295
2.56458
2.60999
2.70673
2.70874
2.65965
2.53333
2.37629
2.2038
3.74778
3.7002
3.38188
3.60336
3.34704
3.23241
3.07819
2.89664
2.67671
2.44826
2.21798
5.98035
5.93007
5.48181
5.19848
4.48546
3.93004
3.44668
3.07345
2.76341
2.48191
2.20968
8.27176
8.88137
8.20231
7.57775
6.35536
5.03475
3.96762
3.27565
2.8371
2.49944
2.20257
13.1374
12.8986
12.4031
11.2925
9.1008
6.87213
5.03898
3.79718
3.03987
2.53351
2.14665
12.0023
12.9958
12.1684
10.7878
9.12726
7.60983
6.32717
5.28248
4.43989
3.78409
3.33751
-11.9971
-1.29422
2.77305
5.26564
5.85932
5.57435
4.9052
4.19357
3.55257
3.03439
2.69077
-24.6053
-14.0123
-9.03826
-3.44546
-0.0948666
1.69409
2.36633
2.4241
2.25787
2.04825
1.90677
-28.0447
-21.0937
-17.6076
-11.3598
-6.75856
-3.29265
-1.15641
0.000236425
0.523397
0.773485
0.954373
-27.1688
-23.1844
-21.3621
-16.1826
-11.9091
-7.87119
-4.82866
-2.73556
-1.45197
-0.674827
-0.136447
-25.2078
-22.7124
-21.8415
-18.0458
-14.7652
-11.0123
-7.80383
-5.23722
-3.37663
-2.12734
-1.22114
-23.2646
-21.4644
-20.9609
-18.1317
-15.777
-12.6256
-9.71475
-7.10629
-4.99684
-3.40406
-2.22433
-21.385
-20.025
-19.6777
-17.4128
-15.7178
-13.1194
-10.6493
-8.23401
-6.12655
-4.38454
-3.00671
-19.7461
-18.5992
-18.3466
-16.3797
-15.1368
-12.9267
-10.8733
-8.71667
-6.74621
-5.01191
-3.54111
-18.3743
-17.2357
-17.0926
-15.2279
-14.3215
-12.337
-10.6353
-8.71544
-6.93015
-5.29913
-3.89069
-17.1237
-16.1594
-15.7902
-14.0721
-13.3728
-11.5127
-10.0981
-8.36695
-6.76905
-5.26172
-3.96053
-15.7512
-14.9476
-14.392
-13.0257
-12.2617
-10.549
-9.35035
-7.76985
-6.34844
-4.96281
-3.76204
-14.4398
-13.6424
-13.0631
-11.8752
-11.0486
-9.50244
-8.44007
-6.99726
-5.7391
-4.49135
-3.43031
-13.2124
-12.3492
-11.7504
-10.6179
-9.7786
-8.40755
-7.40809
-6.10051
-4.98999
-3.89332
-2.94382
-11.8232
-10.9604
-10.3825
-9.30032
-8.4605
-7.23917
-6.27818
-5.10576
-4.13181
-3.19732
-2.37706
-10.403
-9.52556
-8.96585
-7.93282
-7.10229
-5.97044
-5.05623
-4.02477
-3.18996
-2.434
-1.79715
-8.95166
-8.04444
-7.4949
-6.5054
-5.67644
-4.61121
-3.75207
-2.86981
-2.18991
-1.62653
-1.18029
-7.31526
-6.4086
-5.91409
-4.98667
-4.16307
-3.15548
-2.37068
-1.65838
-1.16112
-0.801367
-0.534788
-5.35881
-4.48498
-4.16019
-3.31785
-2.52829
-1.58982
-0.919532
-0.423478
-0.147917
-0.00536568
0.0675386
-2.97997
-2.18082
-2.10832
-1.38741
-0.697178
0.132169
0.569704
0.76902
0.788811
0.720906
0.62088
-0.397836
0.561963
0.495694
1.06067
1.51835
2.10362
2.0279
1.82642
1.59158
1.35044
1.12584
2.71324
4.01179
3.83307
4.22353
4.23802
4.26741
3.29596
2.60381
2.16472
1.8295
1.54886
6.46586
7.86485
8.16265
8.54609
7.8292
6.83125
4.76961
3.40495
2.64936
2.18838
1.85877
8.27424
11.6899
11.6555
11
9.27921
7.02479
4.94712
3.63942
2.90776
2.41185
2.07732
-1.85043
-1.45982
-1.00892
-0.781974
-0.686866
-0.653557
-0.713819
-1.26197
-1.89234
-1.4038
-1.17862
-0.904012
-0.765327
-0.68801
-0.655154
-0.694154
-0.963162
-1.36448
-1.28348
-1.09834
-0.847219
-0.72925
-0.668307
-0.631243
-0.648521
-0.892524
-1.221
-1.10217
-0.980455
-0.763288
-0.672871
-0.633729
-0.606251
-0.590868
-0.809894
-1.03586
-1.63997
-0.921191
0.0500263
0.801777
0.942905
0.706723
0.119256
-0.868959
-1.70364
-1.21704
-0.686358
0.0572786
0.675811
0.801955
0.600412
0.131118
-0.609052
-1.18622
-1.14673
-0.617888
0.0369923
0.560104
0.677965
0.498273
0.100515
-0.527239
-1.11368
-0.948685
-0.536125
0.000648854
0.451236
0.570468
0.417661
0.0675965
-0.438016
-0.868416
1.56393
1.5449
1.5383
-0.182838
-0.262033
1.38496
-0.62424
1.24669
1.37714
1.98911
-0.284174
1.25053
-0.180213
-0.0795448
1.56106
0.898914
-0.0531016
-0.179985
0.897505
1.62018
0.747207
-0.446875
1.04414
-0.130751
1.58251
-0.0781969
-0.170615
-0.606382
0.113057
-0.249331
-0.0537129
1.00639
-0.0455867
0.993005
1.0201
1.53807
-0.123595
1.58036
-0.0468593
1.23249
-0.129525
0.998251
-0.121181
1.04878
-0.367435
-0.667174
-0.164531
-0.964685
1.42584
1.22175
-0.251879
1.23802
-0.00489786
-0.118071
1.20794
0.747663
-0.429377
1.21841
0.246962
-0.0917991
0.287493
-0.00542704
-0.302441
-0.272358
-0.236333
1.61373
-0.195611
1.26578
1.53531
1.9638
-0.103663
2.03518
-0.202835
2.05412
-0.115225
1.93418
-0.368713
1.01297
-0.388524
-0.590016
-0.0835931
-0.272899
1.58028
1.58005
0.246374
-0.197001
-0.0951155
-0.00420845
-0.362475
-0.0569093
1.52231
1.21377
-0.147753
1.6918
-0.546198
-0.943408
-0.113906
-0.0957624
-0.333692
2.065
0.507803
-0.882704
1.72108
0.520552
-0.30372
1.45603
-0.00692967
1.57828
-0.0242898
0.552083
1.05896
0.99531
1.75781
-0.213176
-0.136239
1.57942
1.20554
0.961953
1.28284
1.5745
-0.223162
2.12547
0.379055
-0.0637504
-0.606496
-0.143414
-0.00830589
-0.00720265
-0.00402843
-0.0190798
1.13132
-0.092236
-0.918703
1.96477
1.49218
0.169906
-0.370515
-0.268425
-0.207589
1.58612
-0.0882222
0.693193
-0.42491
1.29712
1.19141
-0.228964
-0.0471356
1.25752
2.1176
0.968543
1.04378
1.41993
-0.226618
2.0663
-0.201292
-0.120243
-0.184301
-0.352568
-0.0616007
1.62608
-0.104689
-0.316564
1.99441
1.61309
-0.163552
-0.0742807
-0.37721
0.641293
-0.0912614
-0.248674
-0.042047
-0.0192224
-0.0681148
0.646056
1.03992
0.97516
-0.00316721
-0.245808
-0.39185
1.01447
1.23431
-0.435132
1.50593
-0.263408
1.38962
-0.230933
1.0376
0.945158
1.58392
-0.384946
-0.0281216
-0.105991
1.56458
-0.116973
1.52906
1.63329
1.42192
-0.337704
-0.0200337
1.57716
-0.251481
1.28025
-0.05826
-0.0743288
1.49679
0.00119232
1.66776
-0.00135611
1.27223
1.56769
-0.070391
0.94325
0.566305
1.12479
1.01706
-0.0526934
1.52772
-0.136797
1.08694
-0.153209
-0.0203374
-0.212234
-0.115361
-0.144896
-0.0548723
1.17714
-0.230452
-0.058931
-0.0230802
-0.302096
-0.345537
1.55893
1.04756
2.2058
-0.229623
-0.525286
-0.128093
1.51033
1.15095
1.15461
-0.109713
-0.197746
0.473231
-0.12148
1.43658
-0.341601
0.98533
-0.103124
-0.705359
-0.0378571
-0.0981921
-0.0799057
0.878228
1.66225
0.221349
1.41194
0.789148
1.58327
-0.241448
1.02641
-0.00309295
-0.00956329
1.55731
1.03119
1.05441
-0.158802
0.669747
1.24474
-0.028171
0.0301844
-0.305132
1.09515
1.30442
-0.166541
1.60551
0.960493
-0.0797786
1.52113
1.55349
-0.311763
2.07211
1.31678
-0.0802852
-0.0946663
0.257907
1.62061
-0.134745
1.19002
1.4299
-0.103956
1.12778
-0.570341
0.629283
-0.0951787
1.52934
1.26846
-0.0985372
1.05696
1.08905
-0.0934219
1.33677
-0.256029
1.32295
-0.241713
0.802967
0.528129
1.02646
0.0179015
-0.41714
1.07133
-0.586806
1.44953
0.489203
-0.0313288
-0.477695
1.47581
-0.150541
-0.32472
1.49842
1.78968
1.01498
0.00161246
0.946986
-0.130369
-0.30971
0.692088
0.990063
-0.133684
1.55193
-0.0329309
1.1451
-0.299719
-0.313599
1.40596
-0.174428
-0.679387
-0.196942
1.03173
1.51496
-0.077934
-0.152796
-0.0467013
1.28934
-0.0948345
-0.305897
0.00980364
-0.114565
0.971839
-0.145855
-0.0110082
-0.634102
-0.0979283
0.0581576
0.812952
-0.0407696
1.57742
-0.0170394
1.22345
1.03753
-0.0419835
0.0381049
-0.0897591
1.52602
1.57769
1.69345
-0.370118
-0.0193421
-0.119617
-0.682587
0.471613
1.53238
-0.282077
-0.699306
-0.0412485
-0.0587819
1.12074
0.208816
0.988131
1.63618
0.972564
-0.0543604
1.64325
-0.245776
1.16281
-0.103166
-0.0969965
-0.235167
-0.0525381
-0.19245
-0.386288
1.42085
-0.501014
-0.0204617
2.51129
-0.0998452
-0.228225
1.02048
1.00099
1.31141
-0.141366
-0.244898
1.58011
1.40266
-0.0766526
-0.00439372
-0.161534
-0.425006
-0.0186658
1.26544
0.005536
0.699512
0.889859
-0.0585878
-0.055301
-0.207567
0.437579
-0.0315946
2.14093
-0.0149361
-0.470453
-0.232742
-0.0149684
-0.665604
-0.00683802
0.950813
0.578437
2.04283
-0.0122854
-0.0387277
-0.33666
0.975957
-0.282159
-0.10691
1.46285
0.0383057
-0.0462218
-0.193358
-0.225836
-0.0671632
0.970521
0.284891
-0.189061
-0.148352
-0.241948
0.806272
-0.0973581
-0.0593654
-0.283386
1.65431
-0.32803
1.41159
1.58028
1.52284
-0.429112
-0.0649991
-0.69489
-0.0423102
-0.308747
-0.00331455
1.5894
1.66189
-0.0149616
-0.0410454
0.19598
0.722015
-0.00702714
-0.00247247
1.57353
0.953141
1.15806
0.940832
-0.257835
0.92528
0.262371
0.769851
1.12915
1.08842
1.56035
-0.314911
1.03441
1.5986
0.761476
-0.273433
-0.418958
1.03463
-0.208175
-0.302748
1.33126
-0.061313
1.61103
-0.206642
1.63736
0.779944
1.16967
-0.00229673
-0.0621598
1.57536
-0.103867
0.517983
1.24436
-0.112873
-0.133157
1.37691
1.58759
-0.66917
-0.0203265
-0.214181
1.11072
-0.837779
0.968344
-0.15824
-0.0589683
-0.389757
-0.0731663
0.514662
-0.124718
-0.12905
-0.0998381
0.972962
-0.0830554
1.48031
1.32507
1.56412
1.12277
0.741735
-0.0762996
1.24607
1.61224
-0.181775
1.34254
-0.51599
0.2039
-0.00354834
-0.102346
-0.376521
1.5625
1.55486
1.31944
-0.152457
-0.308919
0.982793
1.60186
-0.0604328
1.39509
-0.147372
1.39557
-0.0184455
1.52237
-0.389153
-0.0598021
-0.0145489
-0.786302
-0.150149
0.800072
0.652074
2.07198
1.10514
-0.0512434
-0.317921
1.53052
-0.0561833
-0.219735
-1.13174
1.57137
1.44763
1.45153
-0.0629931
-0.11196
-0.0137997
1.41185
1.13361
-0.0933979
1.68836
-0.0915367
-0.00976946
-0.029161
-0.334641
1.05002
-0.0098064
1.56269
-0.127627
1.56976
-0.111548
-0.00382968
1.10566
-0.477791
-0.0829746
1.25144
1.0102
-0.507027
1.61657
-0.108094
-0.208265
-0.157035
-0.0846531
-0.138723
-0.155774
1.91192
1.26064
1.38396
-0.894038
-0.143618
-0.0612204
1.60154
1.56412
-0.422062
1.01445
1.6878
0.716314
2.06113
-0.121624
-0.126222
-0.165089
-0.0089438
0.350268
0.899656
1.65609
-0.143826
1.95229
1.3364
-0.732833
-0.0415582
0.937023
1.63598
-0.35101
1.70299
1.65572
0.349643
1.45382
0.680524
-0.157172
-0.106998
0.110366
-0.0176934
-0.0158412
-0.43361
-0.0378784
0.173368
-0.151109
-0.0905983
-0.377781
-0.191788
-0.0758234
0.970793
0.833403
-0.314799
0.338808
0.916176
0.584504
-0.109244
-0.120302
-0.699415
-0.0317032
0.253025
0.996259
0.785707
1.56908
0.999294
1.74113
-0.17701
1.94859
1.06908
0.872822
1.09942
-0.201112
-0.0239695
-0.306898
1.9715
1.01389
1.22635
-0.0364994
1.78658
-0.454186
1.8386
-0.137656
0.00113947
1.0274
-0.00730036
1.58603
-0.0489459
-0.22061
-0.118292
-0.774907
-0.0935982
0.301986
1.57823
-0.00918849
-0.0447786
-0.430416
0.0103429
0.962258
0.46499
1.57955
0.0260307
0.901671
-0.178624
1.42078
1.2833
1.62083
-0.166545
-0.136369
1.56558
-0.00524965
1.54408
-0.049908
-0.0649594
0.635776
-0.212834
-0.145193
-0.0826847
0.281625
-0.178836
-0.159754
-0.131453
-0.0328115
-0.641278
0.973088
-0.120183
1.11874
1.10769
-0.578705
-0.043789
-0.216337
-0.0750374
1.67961
0.689123
1.55351
-0.146123
1.58884
0.0142709
-0.0959136
-0.0134776
0.622996
0.167245
-0.0989985
-0.0793256
2.28294
-0.153676
-0.254015
-0.308718
1.07199
-0.09231
-0.24375
1.53185
-0.579416
-0.0153856
1.88675
-0.134743
1.13771
0.825227
1.6962
-0.0206525
2.12108
-0.0435959
1.46696
-0.0558401
2.08167
-0.101691
-0.0297371
-0.0404163
-0.0144479
0.934616
-0.193449
-0.797722
1.59583
-0.0438582
0.233184
-0.0633042
0.826553
-0.343547
0.643458
-0.14239
-0.0707398
0.838113
0.980291
0.205317
0.9931
-0.112936
-0.225888
1.5343
1.27454
0.547404
-0.308869
-0.0177769
-0.154116
1.23768
-0.112461
0.613225
0.986949
1.58363
1.43085
1.11478
1.41201
-0.00928165
-0.489089
-0.276033
-0.0216219
0.000652094
1.61193
1.16942
0.110963
-0.0950628
1.51041
0.0828713
-0.0896516
-0.800087
-0.108553
0.0844522
0.798398
-0.154408
1.61358
1.13126
-0.592809
1.52794
1.24785
0.564711
-0.00479746
0.247953
0.282303
1.5353
-0.0752413
-0.1814
-0.194837
1.22927
-0.0106351
-0.0932084
-0.128271
-0.162426
1.58567
0.971488
-0.177503
-0.135267
-0.0804165
1.58024
0.887587
1.817
1.57152
1.21469
-0.0909384
-0.125933
-0.529231
-0.737861
-0.0827611
1.36726
-0.293778
1.58553
1.84493
0.361807
1.16339
1.51583
1.24049
-0.324819
-0.0195325
-0.128306
1.52233
-0.157108
1.59737
1.46128
1.463
1.63808
0.590517
1.03501
1.50284
1.54238
-0.660148
0.990939
1.64523
-0.0172537
-0.459608
1.13158
1.5198
-0.265343
-0.697654
0.999973
0.17061
-0.128376
-0.166266
1.10416
1.57017
0.699501
1.25884
-0.0113931
1.18311
-0.181107
-0.101596
-0.0258228
-0.0569888
1.05542
-0.0931282
1.54487
1.03303
2.23155
1.08788
1.0176
-0.103776
-0.546559
0.282451
-0.129722
-0.00458733
-0.109427
0.324909
-0.44442
1.0108
1.06051
-0.00931228
-0.0185831
-0.0970629
1.27475
-0.34214
1.73607
-0.159754
1.68977
-0.0120507
-0.03223
-0.310096
-0.0944078
1.65482
1.56926
-0.0814751
-0.360063
0.00973409
0.0439533
-0.128466
0.628056
0.823034
-0.00720188
1.55192
1.49482
-0.106639
-0.347537
-0.245678
-0.250543
-0.0121896
-0.0884006
-0.0527582
-0.431274
1.58638
0.628805
-0.00850407
1.6153
0.87589
1.46482
-0.0774274
-0.0980709
-0.020092
1.58767
-0.0923002
1.37163
1.22967
-0.0337403
-0.202626
1.02121
1.51321
1.55226
0.0333609
-0.0223583
-0.45615
0.45224
1.72819
-0.137164
-0.145239
-0.394625
1.58197
-0.0270829
-0.053556
1.36306
-0.0150426
1.29729
-0.129314
-0.138583
0.325905
-0.185468
1.42888
1.62988
-0.172017
-0.0573678
1.01522
-0.0237076
1.52256
-0.562705
-0.000229604
-1.12443
1.55767
-0.0131909
-0.214791
-0.226056
-0.0153874
-0.0346311
1.57748
-0.00406033
-0.283963
1.01974
0.539513
-0.0886547
-0.184577
-0.0861241
-0.1366
1.27342
1.66878
-0.338647
0.802911
-0.189129
-0.0943123
-0.00243307
-0.126269
1.21887
-0.162699
-0.323406
-0.0184806
-0.0731015
-0.0906552
1.63744
-0.0916276
-0.0190498
1.59278
1.8181
1.48361
-0.122465
0.634608
1.35756
-0.107027
-0.0537163
-0.047277
1.06367
-0.6187
-0.140484
0.694299
-0.173902
0.98154
2.0363
1.53598
-0.707859
1.00619
-0.0499399
0.347092
-0.328618
1.03552
0.806391
1.58253
1.60396
-0.216877
-0.12173
-0.0628928
-0.373171
-0.375721
-0.401806
1.83126
0.552603
-0.260087
1.58551
-0.0388704
-0.02435
1.23887
0.16672
-0.102315
-0.105197
0.857048
-0.0452543
1.58576
-0.083456
1.0831
-0.660117
-0.105434
2.17843
-0.471408
-0.101266
0.737146
-0.151358
-0.0931733
0.0342529
-0.0961385
0.819687
-0.438888
-0.0154609
-0.226114
-0.748515
-0.106203
1.43804
-0.175591
1.36438
-0.140766
-0.0803691
-0.229184
0.75037
-0.131209
-0.364848
1.62296
1.25189
0.682866
1.07812
-0.0939634
-0.13244
1.9347
-0.0760893
-0.1897
1.06754
-0.31935
-0.535811
0.1233
0.0332731
-0.193617
-0.144953
-0.0200209
0.012926
1.61261
1.59592
-0.146034
1.64001
1.50462
-0.146092
1.57794
1.46917
-0.109068
2.29791
-0.744536
-0.0434063
-0.188452
1.67267
-0.0765545
-0.0916244
-0.093008
-0.785851
1.59337
-0.0920037
-0.131381
-0.0756816
-0.0113647
0.901658
-0.0195228
1.52483
-0.220956
-0.0346667
1.33367
1.66465
-0.240154
0.188842
-0.193025
-0.326292
-0.132075
1.75891
1.48953
1.59705
0.106377
-0.0183515
-0.045968
-0.272756
-0.162998
2.42685
0.7702
1.53954
1.42824
-0.316377
1.64813
1.00744
-0.306281
0.0411088
-0.841821
-0.309266
1.07387
0.953781
-0.0174931
-0.268323
-0.014389
-0.594836
-0.111834
1.43647
1.09598
-0.09862
-0.00564182
-0.022127
-0.0953965
1.63137
-0.0741496
-0.0750203
-0.180035
0.817176
-0.158244
-0.378219
1.24709
-0.086393
1.00756
1.99093
-0.27568
-0.0614981
-0.140156
0.751404
1.54549
0.16526
-0.229085
-0.205262
-0.122297
-0.247458
-0.0337334
1.21424
-0.701937
-0.233922
1.5839
-0.00375323
-0.103171
1.55149
-0.0263166
1.5939
1.57147
1.99565
-0.151166
-0.00232759
0.955623
-0.124468
1.58724
1.02537
1.58045
-0.0751458
0.970863
-0.0706962
-0.119379
1.59282
-0.317571
-0.443438
-0.0766721
-0.309663
0.0101377
-0.118618
-0.00437674
1.25399
1.03895
1.47203
-0.0685481
1.5776
1.02386
0.0326119
-0.342248
-0.126621
-0.0559485
-0.00401362
1.34199
-0.237863
-0.123546
0.968116
0.207075
0.930972
-0.016441
1.50225
-0.04323
0.745983
1.83418
1.3356
-0.301487
-0.0136247
1.37171
-0.106789
0.960553
-0.0493866
-0.00985898
-0.222935
-0.126007
1.62227
1.55695
-0.0516997
-0.0245605
-0.046844
-0.00731605
-0.281929
-0.0454605
1.59867
-0.432628
-0.022843
1.64419
-0.191924
-0.172903
-0.0468706
-0.303742
-0.227341
-0.00185599
-0.381701
-0.15607
0.972166
1.22239
-0.0526307
-0.123682
0.205454
1.01492
-0.0589268
1.52372
2.14559
-0.495824
1.59124
1.23319
-0.579742
-0.23357
1.30494
1.57487
1.36121
0.755816
1.08028
1.70794
-0.170029
0.381391
0.946338
1.43051
-0.22305
1.10934
-0.0722358
1.54051
0.881769
1.24346
-0.0859034
-0.438741
-0.112672
1.66019
1.03114
-0.0897575
-0.0201524
1.58938
-0.0293822
-0.110485
1.49165
0.0359863
-0.0670148
-0.323614
-0.141411
-0.216723
1.2233
-0.202899
1.40451
0.762294
1.74817
0.905611
1.59502
-0.110182
1.72651
-0.274011
1.51767
1.5964
-0.294019
1.04968
1.55991
-0.241904
-0.0517591
-0.208394
1.64113
0.768199
1.41495
-0.0613418
-0.0247009
-0.178255
1.07001
-0.142312
-0.105345
1.06863
0.949729
1.01077
0.684611
-0.168814
1.78424
0.279879
1.96785
-0.642836
-0.0626987
-0.0894693
-0.1399
1.30892
0.265772
1.51859
0.126213
-0.353382
1.62643
1.59452
-0.0973338
0.686076
0.847136
1.86044
-0.126593
1.57493
-0.221458
-0.332177
-0.0598155
-0.0645275
0.9579
-0.136058
1.49161
-0.613731
-0.123632
0.477571
-0.0238875
1.57378
1.04421
1.6192
0.924642
0.331826
0.707752
1.72633
-0.0255779
-0.24172
1.09974
0.706827
-0.534437
0.345228
1.58214
0.282508
1.89014
2.43813
-0.105626
1.62829
-0.094808
-0.0745341
0.782606
1.509
-0.100708
-0.23735
1.69361
-0.0159666
1.5955
2.03643
-0.079576
0.793408
-0.0963396
1.58587
1.65917
-0.758288
0.613536
1.00111
0.0729819
0.78545
1.11434
0.939865
1.02303
0.904638
0.283879
-0.133041
-0.149776
-0.330156
1.10385
1.34904
-0.21386
-0.00204151
0.819008
0.616116
0.0298679
1.69241
-0.0074843
1.23391
-0.122444
1.41213
1.72007
-0.0185881
-0.135643
-0.0758688
1.55978
1.65813
1.67855
1.56694
1.1898
-0.142888
-0.109941
-0.21084
-0.167729
-0.0906987
0.674202
1.10343
1.12327
-0.373611
1.93896
-0.0611323
-0.597614
0.693918
-0.0414294
-0.215799
0.818457
1.57829
0.376741
-0.159093
-0.107917
0.790085
-0.0932381
-0.0247498
-0.274899
-0.0133313
-0.0699734
1.06103
-0.123889
0.0137909
-0.448629
-0.171925
-0.169923
-0.0130845
1.58183
1.86313
-0.174917
1.56064
-0.063555
-0.0709794
-0.0471892
-0.108119
-0.102501
-0.198083
0.112753
-0.0918208
1.40697
-0.118744
-0.0865631
0.206562
0.0202122
-0.252631
1.58612
-0.392183
1.41683
0.0214551
-0.640865
-0.144426
-0.341287
-0.144616
0.00795816
1.49006
1.82159
1.05846
1.70238
1.62711
0.837923
1.05522
-0.211943
1.61294
-0.0528049
-0.169601
0.934789
1.58217
0.00136893
-0.089954
1.48554
0.496702
1.03927
2.09245
0.353195
-0.152008
1.57527
0.910764
0.874523
0.981337
1.84215
1.51513
0.163918
-0.231451
1.38576
0.313826
1.50471