/*--------------------------------*- C++ -*----------------------------------*\
| =========                 |                                                 |
| \\      /  F ield         | OpenFOAM: The Open Source CFD Toolbox           |
|  \\    /   O peration     | Version:  3.0.1                                 |
|   \\  /    A nd           | Web:      www.OpenFOAM.org                      |
|    \\/     M anipulation  |                                                 |
\*---------------------------------------------------------------------------*/
FoamFile
{
    version     2.0;
    format      ascii;
    class       surfaceScalarField;
    location    "0.926362";
    object      phi;
}
// * * * * * * * * * * * * * * * * * * * * * * * * * * * * * * * * * * * * * //

dimensions      [0 3 -1 0 0 0 0];

internalField   nonuniform List<scalar> 
32369
(
-3.74501e-06
1.57932e-05
-1.20482e-05
-7.40615e-06
1.47477e-05
-1.10866e-05
-1.26779e-05
1.72923e-05
-1.20205e-05
-1.84252e-05
1.91624e-05
-1.34152e-05
-2.42932e-05
2.12273e-05
-1.53593e-05
-3.03987e-05
2.40407e-05
-1.79352e-05
-3.69684e-05
2.78241e-05
-2.12544e-05
-4.42738e-05
3.28207e-05
-2.55153e-05
-5.25948e-05
3.93513e-05
-3.10303e-05
-6.22594e-05
4.78496e-05
-3.81851e-05
5.89196e-05
-4.75338e-05
-7.36452e-05
2.44668e-06
1.33465e-05
2.94268e-06
1.42517e-05
4.97681e-07
1.97373e-05
-3.63911e-06
2.32992e-05
-8.99545e-06
2.65837e-05
-1.52101e-05
3.02554e-05
-2.21823e-05
3.47963e-05
-3.00204e-05
4.06589e-05
-3.89801e-05
4.8311e-05
-4.93647e-05
5.82342e-05
7.11008e-05
-6.15459e-05
2.21338e-06
1.11331e-05
2.87968e-06
1.35854e-05
2.47995e-06
2.0137e-05
8.00121e-07
2.4979e-05
-2.54739e-06
2.99312e-05
-7.29314e-06
3.50011e-05
-1.31887e-05
4.06919e-05
-2.01394e-05
4.76095e-05
-2.82068e-05
5.63784e-05
-3.75967e-05
6.7624e-05
8.20941e-05
-4.85899e-05
1.58431e-06
9.54879e-06
1.86938e-06
1.33003e-05
2.10811e-06
1.98983e-05
1.59938e-06
2.54878e-05
-1.39919e-07
3.16705e-05
-3.14468e-06
3.80059e-05
-7.3897e-06
4.49369e-05
-1.2798e-05
5.30179e-05
-1.9319e-05
6.28994e-05
-2.70182e-05
7.53232e-05
9.1055e-05
-3.59791e-05
1.26184e-06
8.28695e-06
1.53954e-06
1.30226e-05
1.91812e-06
1.95197e-05
1.8067e-06
2.55992e-05
9.77357e-07
3.24998e-05
-7.36688e-07
3.97199e-05
-3.48156e-06
4.76817e-05
-7.2891e-06
5.68254e-05
-1.21506e-05
6.77609e-05
-1.80603e-05
8.12328e-05
9.81227e-05
-2.5128e-05
1.14262e-06
7.14433e-06
1.69893e-06
1.24663e-05
2.29185e-06
1.89268e-05
2.45607e-06
2.5435e-05
2.15386e-06
3.2802e-05
1.23949e-06
4.06343e-05
-4.27846e-07
4.93491e-05
-2.93645e-06
5.9334e-05
-6.34522e-06
7.11697e-05
-1.06732e-05
8.55608e-05
0.000103419
-1.59691e-05
1.08895e-06
6.05538e-06
1.9032e-06
1.16521e-05
2.74606e-06
1.80839e-05
3.21344e-06
2.49676e-05
3.33388e-06
3.26816e-05
2.99124e-06
4.09769e-05
2.09834e-06
5.0242e-05
5.69572e-07
6.08628e-05
-1.6648e-06
7.34041e-05
-4.66016e-06
8.85561e-05
0.000107189
-8.43058e-06
9.68197e-07
5.08718e-06
1.98437e-06
1.06359e-05
3.01779e-06
1.70505e-05
3.78364e-06
2.42017e-05
4.27703e-06
3.21882e-05
4.41205e-06
4.08419e-05
4.14175e-06
5.05123e-05
3.40721e-06
6.15973e-05
2.14058e-06
7.46707e-05
3.19217e-07
9.03775e-05
0.000109633
-2.1247e-06
9.63529e-07
4.12365e-06
2.11936e-06
9.48008e-06
3.32836e-06
1.58415e-05
4.3663e-06
2.31638e-05
5.2046e-06
3.13499e-05
5.75704e-06
4.02895e-05
6.00394e-06
5.02654e-05
5.91595e-06
6.16853e-05
5.4693e-06
7.51174e-05
4.57081e-06
9.1276e-05
0.000110998
3.20584e-06
1.01687e-06
3.10678e-06
2.35336e-06
8.14359e-06
3.78187e-06
1.4413e-05
5.12402e-06
2.18216e-05
6.30641e-06
3.01675e-05
7.25026e-06
3.93456e-05
7.94353e-06
4.95721e-05
8.39421e-06
6.12346e-05
8.57924e-06
7.49323e-05
8.46398e-06
9.13912e-05
0.000111485
7.97674e-06
1.01629e-06
2.09049e-06
2.42168e-06
6.73819e-06
4.04055e-06
1.27941e-05
5.67829e-06
2.01839e-05
7.21585e-06
2.86299e-05
8.56779e-06
3.79937e-05
9.72456e-06
4.84154e-05
1.0696e-05
6.02632e-05
1.14901e-05
7.41383e-05
1.20822e-05
9.07992e-05
0.000111034
1.25335e-05
8.90647e-07
1.19984e-06
2.22961e-06
5.39923e-06
3.93109e-06
1.10926e-05
5.79887e-06
1.83161e-05
7.68545e-06
2.67434e-05
9.48071e-06
3.61984e-05
1.11471e-05
4.67489e-05
1.26973e-05
5.87129e-05
1.4151e-05
7.26846e-05
1.55323e-05
8.94179e-05
0.000109713
1.6853e-05
6.71394e-07
5.28449e-07
1.88678e-06
4.18385e-06
3.65695e-06
9.32247e-06
5.76003e-06
1.6213e-05
8.00753e-06
2.44959e-05
1.02667e-05
3.39393e-05
1.24745e-05
4.45411e-05
1.46214e-05
5.6566e-05
1.67705e-05
7.05356e-05
1.89635e-05
8.72249e-05
0.000107504
2.11722e-05
4.41354e-07
8.70953e-08
1.50673e-06
3.11847e-06
3.30345e-06
7.52575e-06
5.62254e-06
1.38939e-05
8.23602e-06
2.18824e-05
1.09832e-05
3.11921e-05
1.37777e-05
4.17466e-05
1.65938e-05
5.37499e-05
1.94704e-05
6.7659e-05
2.2483e-05
8.42123e-05
0.000104336
2.56516e-05
2.17464e-07
-1.30369e-07
1.04426e-06
2.29167e-06
2.71099e-06
5.85903e-06
5.10735e-06
1.14976e-05
8.01605e-06
1.89737e-05
1.1239e-05
2.79691e-05
1.46506e-05
3.8335e-05
1.82195e-05
5.0181e-05
2.19753e-05
6.39032e-05
2.59699e-05
8.02176e-05
9.99722e-05
3.03336e-05
1.06008e-07
-2.36377e-07
7.27569e-07
1.67011e-06
2.1703e-06
4.4163e-06
4.51883e-06
9.14905e-06
7.61506e-06
1.58774e-05
1.12544e-05
2.43298e-05
1.52886e-05
3.43008e-05
1.96542e-05
4.58154e-05
2.4363e-05
5.91945e-05
2.95431e-05
7.50374e-05
9.42159e-05
3.52994e-05
9.74544e-08
-3.33831e-07
5.84884e-07
1.18268e-06
1.78145e-06
3.21974e-06
3.94798e-06
6.98252e-06
7.09199e-06
1.27334e-05
1.10472e-05
2.03746e-05
1.56559e-05
2.96921e-05
2.08432e-05
4.06281e-05
2.66246e-05
5.34131e-05
3.30704e-05
6.85916e-05
8.70311e-05
4.02552e-05
9.34814e-08
-4.27312e-07
4.76657e-07
7.99504e-07
1.42947e-06
2.26692e-06
3.29512e-06
5.11687e-06
6.26935e-06
9.75921e-06
1.03407e-05
1.63032e-05
1.54104e-05
2.46224e-05
2.14015e-05
3.46371e-05
2.83078e-05
4.65067e-05
3.61861e-05
6.07133e-05
7.79844e-05
4.52329e-05
7.68875e-08
-5.042e-07
3.7535e-07
5.01042e-07
1.10568e-06
1.53659e-06
2.60793e-06
3.61461e-06
5.2291e-06
7.13805e-06
9.17727e-06
1.23551e-05
1.45004e-05
1.92993e-05
2.11752e-05
2.79623e-05
2.91973e-05
3.84846e-05
3.86314e-05
5.12792e-05
6.69675e-05
4.96483e-05
4.47101e-08
-5.4891e-07
2.29551e-07
3.16201e-07
6.9585e-07
1.07029e-06
1.76917e-06
2.54129e-06
3.89908e-06
5.00814e-06
7.48988e-06
8.76426e-06
1.27827e-05
1.40064e-05
1.98755e-05
2.08695e-05
2.87928e-05
2.95673e-05
3.96024e-05
4.04696e-05
5.40728e-05
5.24971e-05
-1.23921e-08
-5.36518e-07
-8.49697e-08
3.88778e-07
-7.77342e-09
9.93093e-07
5.81585e-07
1.95193e-06
2.1747e-06
3.41502e-06
5.24113e-06
5.69783e-06
1.01771e-05
9.07041e-06
1.72313e-05
1.38153e-05
2.65456e-05
2.0253e-05
3.82121e-05
2.8803e-05
3.99746e-05
5.23104e-05
-5.66002e-07
2.94844e-08
-9.65193e-07
7.87969e-07
-1.15499e-06
1.18289e-06
-8.49619e-07
1.64656e-06
3.13946e-07
2.25146e-06
2.77343e-06
3.23834e-06
6.9634e-06
4.88044e-06
1.33102e-05
7.46851e-06
2.21752e-05
1.13881e-05
3.38328e-05
1.71454e-05
2.49538e-05
4.88537e-05
-9.54614e-07
9.84099e-07
-1.21169e-06
1.04504e-06
-1.0172e-06
9.88397e-07
-3.75934e-07
1.0053e-06
7.78985e-07
1.09654e-06
2.66671e-06
1.35062e-06
5.67247e-06
1.87468e-06
1.03506e-05
2.79033e-06
1.73424e-05
4.39632e-06
2.70439e-05
7.44385e-06
1.29027e-05
3.9095e-05
1.82842e-06
-8.44316e-07
4.03318e-06
-1.15972e-06
6.28481e-06
-1.26323e-06
8.60175e-06
-1.31165e-06
1.10521e-05
-1.35381e-06
1.36936e-05
-1.29092e-06
1.6608e-05
-1.03964e-06
1.99534e-05
-5.55117e-07
2.42103e-05
1.39441e-07
3.05168e-05
1.13731e-06
3.10275e-06
4.03168e-05
-1.17894e-05
-2.58723e-07
-2.0178e-05
-2.69799e-06
-2.68448e-05
-5.35369e-06
-3.25543e-05
-7.70571e-06
-3.79804e-05
-9.93313e-06
-4.35577e-05
-1.23579e-05
-4.96355e-05
-1.51766e-05
-5.65032e-05
-1.86476e-05
-6.44237e-05
-2.31098e-05
-7.35957e-05
-2.90131e-05
-3.68806e-05
-8.42489e-05
-6.18248e-06
5.92375e-06
-1.19485e-05
3.06805e-06
-1.87591e-05
1.45693e-06
-2.55538e-05
-9.1104e-07
-3.21557e-05
-3.33127e-06
-3.89025e-05
-5.61109e-06
-4.61963e-05
-7.88276e-06
-5.43962e-05
-1.04478e-05
-6.37928e-05
-1.37132e-05
-7.46937e-05
-1.81121e-05
-2.4164e-05
-8.74103e-05
-2.31695e-06
8.2407e-06
-5.93723e-06
6.68833e-06
-1.1262e-05
6.78167e-06
-1.76993e-05
5.52629e-06
-2.49831e-05
3.95256e-06
-3.27719e-05
2.17772e-06
-4.10755e-05
4.20845e-07
-5.0164e-05
-1.35931e-06
-6.04507e-05
-3.42653e-06
-7.23147e-05
-6.24815e-06
-1.03892e-05
-8.60895e-05
-1.47123e-06
9.71193e-06
-4.0145e-06
9.23159e-06
-7.81872e-06
1.05859e-05
-1.28523e-05
1.05599e-05
-1.9135e-05
1.02352e-05
-2.65587e-05
9.60146e-06
-3.49926e-05
8.85475e-06
-4.44605e-05
8.10861e-06
-5.51323e-05
7.2452e-06
-6.73337e-05
5.95331e-06
3.75721e-06
-8.14802e-05
-1.26765e-06
1.09796e-05
-3.49264e-06
1.14566e-05
-6.50351e-06
1.35968e-05
-1.05131e-05
1.45694e-05
-1.57147e-05
1.54369e-05
-2.21536e-05
1.60403e-05
-2.9835e-05
1.65362e-05
-3.87346e-05
1.70082e-05
-4.89753e-05
1.74859e-05
-6.07908e-05
1.77688e-05
1.74514e-05
-7.4485e-05
-1.11512e-06
1.20947e-05
-3.1113e-06
1.34528e-05
-5.61278e-06
1.60982e-05
-8.88252e-06
1.78392e-05
-1.3208e-05
1.97623e-05
-1.86557e-05
2.1488e-05
-2.53392e-05
2.32198e-05
-3.33128e-05
2.49818e-05
-4.26764e-05
2.68495e-05
-5.36022e-05
2.86946e-05
3.0223e-05
-6.63738e-05
-9.45342e-07
1.304e-05
-2.70158e-06
1.5209e-05
-4.82154e-06
1.82182e-05
-7.55007e-06
2.05677e-05
-1.11315e-05
2.33437e-05
-1.57046e-05
2.60611e-05
-2.13693e-05
2.88845e-05
-2.82674e-05
3.18798e-05
-3.65022e-05
3.50843e-05
-4.62431e-05
3.84355e-05
4.17178e-05
-5.77378e-05
-8.69741e-07
1.39098e-05
-2.39342e-06
1.67327e-05
-4.20514e-06
2.00299e-05
-6.4677e-06
2.28303e-05
-9.43467e-06
2.63107e-05
-1.31831e-05
2.98095e-05
-1.78954e-05
3.35968e-05
-2.36807e-05
3.76651e-05
-3.06773e-05
4.20809e-05
-3.90621e-05
4.68203e-05
5.17128e-05
-4.90571e-05
-7.51199e-07
1.4661e-05
-2.07508e-06
1.80566e-05
-3.49907e-06
2.14539e-05
-5.46749e-06
2.47987e-05
-7.83589e-06
2.86791e-05
-1.08619e-05
3.28356e-05
-1.46708e-05
3.74056e-05
-1.93811e-05
4.23754e-05
-2.51156e-05
4.78155e-05
-3.20086e-05
5.37133e-05
5.99704e-05
-4.02662e-05
-5.79052e-07
1.524e-05
-1.68081e-06
1.91583e-05
-2.82042e-06
2.25935e-05
-4.33881e-06
2.63171e-05
-6.22766e-06
3.0568e-05
-8.61259e-06
3.52205e-05
-1.15888e-05
4.03818e-05
-1.5277e-05
4.60636e-05
-1.9775e-05
5.23135e-05
-2.52231e-05
5.91614e-05
6.6538e-05
-3.17907e-05
-3.91748e-07
1.56318e-05
-1.10705e-06
1.98736e-05
-1.95838e-06
2.34449e-05
-3.09933e-06
2.7458e-05
-4.49332e-06
3.1962e-05
-6.26824e-06
3.69954e-05
-8.48953e-06
4.26031e-05
-1.1236e-05
4.88101e-05
-1.45888e-05
5.56663e-05
-1.8634e-05
6.32066e-05
7.13935e-05
-2.34895e-05
-2.19451e-07
1.58512e-05
-7.10326e-07
2.03645e-05
-1.24431e-06
2.39788e-05
-1.99051e-06
2.82042e-05
-2.90172e-06
3.28732e-05
-4.07087e-06
3.81646e-05
-5.5394e-06
4.40717e-05
-7.37033e-06
5.0641e-05
-9.60538e-06
5.79014e-05
-1.22823e-05
6.58835e-05
7.4569e-05
-1.54579e-05
-3.00912e-08
1.58813e-05
-2.3953e-07
2.05739e-05
-4.7186e-07
2.42112e-05
-8.19023e-07
2.85514e-05
-1.2503e-06
3.33044e-05
-1.82895e-06
3.87432e-05
-2.57753e-06
4.48202e-05
-3.52476e-06
5.15882e-05
-4.69933e-06
5.90759e-05
-6.11362e-06
6.72978e-05
7.62132e-05
-7.75775e-06
2.52482e-07
1.56288e-05
3.61891e-07
2.04645e-05
4.62682e-07
2.41104e-05
5.15531e-07
2.84986e-05
5.57605e-07
3.32624e-05
5.56169e-07
3.87447e-05
5.14062e-07
4.48623e-05
4.10245e-07
5.16921e-05
2.50556e-07
5.92356e-05
4.01884e-08
6.75082e-05
7.64882e-05
-2.34852e-07
4.22536e-07
1.52063e-05
8.19019e-07
2.0068e-05
1.26484e-06
2.36646e-05
1.74035e-06
2.8023e-05
2.28199e-06
3.27207e-05
2.88986e-06
3.81368e-05
3.57572e-06
4.41765e-05
4.34685e-06
5.09209e-05
5.2149e-06
5.83676e-05
6.20569e-06
6.65174e-05
7.53836e-05
7.31031e-06
6.30677e-07
1.45756e-05
1.33397e-06
1.93648e-05
2.13646e-06
2.28621e-05
3.04956e-06
2.71099e-05
4.10921e-06
3.16611e-05
5.3436e-06
3.69024e-05
6.77808e-06
4.2742e-05
8.43895e-06
4.926e-05
1.03662e-05
5.64404e-05
1.2585e-05
6.42985e-05
7.28047e-05
1.51639e-05
8.74986e-07
1.37006e-05
1.92303e-06
1.83167e-05
3.10737e-06
2.16777e-05
4.48661e-06
2.57307e-05
6.08978e-06
3.00579e-05
7.97874e-06
3.50134e-05
1.01924e-05
4.05283e-05
1.27871e-05
4.66653e-05
1.58044e-05
5.34231e-05
1.93041e-05
6.07988e-05
6.87958e-05
2.3313e-05
1.11747e-06
1.25832e-05
2.51295e-06
1.69212e-05
4.11177e-06
2.00789e-05
5.99154e-06
2.38509e-05
8.18094e-06
2.78685e-05
1.07711e-05
3.24233e-05
1.38209e-05
3.74785e-05
1.74021e-05
4.30842e-05
2.16031e-05
4.9222e-05
2.65242e-05
5.58777e-05
6.2994e-05
3.2326e-05
1.36715e-06
1.1216e-05
3.12504e-06
1.51633e-05
5.16359e-06
1.80404e-05
7.58029e-06
2.14342e-05
1.04088e-05
2.504e-05
1.37546e-05
2.90776e-05
1.7697e-05
3.35361e-05
2.23397e-05
3.84415e-05
2.77914e-05
4.37703e-05
3.42158e-05
4.94533e-05
5.53646e-05
4.18452e-05
1.63659e-06
9.57943e-06
3.77025e-06
1.30297e-05
6.27791e-06
1.55327e-05
9.26713e-06
1.8445e-05
1.278e-05
2.15271e-05
1.69309e-05
2.49267e-05
2.18169e-05
2.865e-05
2.7559e-05
3.26993e-05
3.43171e-05
3.70122e-05
4.23158e-05
4.14546e-05
4.57644e-05
5.1916e-05
1.91605e-06
7.66339e-06
4.42394e-06
1.05218e-05
7.41371e-06
1.25429e-05
1.10041e-05
1.48546e-05
1.52307e-05
1.73005e-05
2.02107e-05
1.99468e-05
2.60517e-05
2.28089e-05
3.28954e-05
2.58557e-05
4.09381e-05
2.89696e-05
5.04562e-05
3.19365e-05
3.43476e-05
6.1873e-05
2.15324e-06
5.51015e-06
5.01652e-06
7.6585e-06
8.48098e-06
9.07847e-06
1.26527e-05
1.06829e-05
1.7573e-05
1.23801e-05
2.3335e-05
1.41849e-05
3.00641e-05
1.60798e-05
3.79226e-05
1.79972e-05
4.71171e-05
1.97751e-05
5.79486e-05
2.1105e-05
2.1472e-05
7.08242e-05
2.57286e-06
2.93729e-06
5.75757e-06
4.47379e-06
9.58294e-06
5.2531e-06
1.41811e-05
6.08474e-06
1.9599e-05
6.9623e-06
2.59373e-05
7.84648e-06
3.33309e-05
8.68621e-06
4.19444e-05
9.38367e-06
5.196e-05
9.75949e-06
6.36262e-05
9.43884e-06
7.96101e-06
7.71372e-05
2.09298e-06
5.40705e-06
9.39691e-06
1.417e-05
1.97785e-05
2.6334e-05
3.39806e-05
4.28092e-05
5.27081e-05
6.32842e-05
7.4348e-05
-1.75054e-06
-7.93195e-07
2.54374e-06
-2.99124e-06
-1.2596e-06
2.5003e-06
-4.20436e-06
-1.68409e-06
2.89721e-06
-5.58251e-06
-2.17855e-06
3.5567e-06
-7.18215e-06
-2.65888e-06
4.25852e-06
-9.03871e-06
-3.03657e-06
4.89313e-06
-1.12076e-05
-3.20184e-06
5.3707e-06
-1.37714e-05
-3.01111e-06
5.5749e-06
-1.68362e-05
-2.25076e-06
5.31564e-06
-2.05283e-05
-5.9133e-07
4.28342e-06
2.44381e-06
2.03562e-06
-2.50078e-05
-1.57301e-06
7.79814e-07
-2.98507e-06
1.52461e-07
-4.38245e-06
-2.86716e-07
-5.83564e-06
-7.25362e-07
-7.42362e-06
-1.07089e-06
-9.22574e-06
-1.23446e-06
-1.13292e-05
-1.09837e-06
-1.3841e-05
-4.99289e-07
-1.68853e-05
7.93512e-07
-2.06158e-05
3.13914e-06
7.02042e-06
-2.51924e-05
-8.01282e-07
1.5811e-06
-1.81925e-06
1.17043e-06
-3.11134e-06
1.00538e-06
-4.60505e-06
7.68348e-07
-6.27937e-06
6.03428e-07
-8.16318e-06
6.49361e-07
-1.03312e-05
1.06964e-06
-1.28901e-05
2.05959e-06
-1.59802e-05
3.88367e-06
-1.97465e-05
6.90537e-06
1.1658e-05
-2.4384e-05
-4.2042e-07
2.00152e-06
-1.10707e-06
1.85707e-06
-2.11161e-06
2.00992e-06
-3.40777e-06
2.06451e-06
-4.98532e-06
2.18098e-06
-6.84921e-06
2.51325e-06
-9.03696e-06
3.25738e-06
-1.16209e-05
4.64356e-06
-1.47e-05
6.96273e-06
-1.83984e-05
1.06038e-05
1.60993e-05
-2.28397e-05
-3.32578e-07
2.33409e-06
-8.8003e-07
2.40453e-06
-1.67322e-06
2.80311e-06
-2.7392e-06
3.13049e-06
-4.11948e-06
3.56127e-06
-5.83944e-06
4.2332e-06
-7.92577e-06
5.34372e-06
-1.04241e-05
7.14186e-06
-1.34035e-05
9.94215e-06
-1.69563e-05
1.41566e-05
2.03585e-05
-2.12155e-05
-2.84855e-07
2.61895e-06
-7.49891e-07
2.86956e-06
-1.4218e-06
3.47502e-06
-2.3213e-06
4.02998e-06
-3.5157e-06
4.75567e-06
-5.05376e-06
5.77126e-06
-6.97636e-06
7.26632e-06
-9.32543e-06
9.49092e-06
-1.21562e-05
1.27729e-05
-1.55447e-05
1.75451e-05
2.44238e-05
-1.961e-05
-2.14064e-07
2.83301e-06
-6.90874e-07
3.34637e-06
-1.27239e-06
4.05654e-06
-2.05098e-06
4.80857e-06
-3.10043e-06
5.80512e-06
-4.47361e-06
7.14443e-06
-6.22248e-06
9.0152e-06
-8.39768e-06
1.16661e-05
-1.10565e-05
1.54317e-05
-1.42697e-05
2.07584e-05
2.82587e-05
-1.81046e-05
-2.81863e-07
3.11488e-06
-6.78025e-07
3.74253e-06
-1.18459e-06
4.56311e-06
-1.89853e-06
5.52252e-06
-2.84507e-06
6.75166e-06
-4.08496e-06
8.38433e-06
-5.67766e-06
1.06079e-05
-7.6818e-06
1.36703e-05
-1.01568e-05
1.79067e-05
-1.31773e-05
2.37789e-05
3.18949e-05
-1.68136e-05
-2.64938e-07
3.37981e-06
-6.44425e-07
4.12202e-06
-1.1403e-06
5.05898e-06
-1.79311e-06
6.17533e-06
-2.65736e-06
7.61591e-06
-3.79153e-06
9.51849e-06
-5.25689e-06
1.20733e-05
-7.11867e-06
1.5532e-05
-9.44005e-06
2.02281e-05
-1.22826e-05
2.66214e-05
3.54096e-05
-1.57973e-05
-2.168e-07
3.59661e-06
-5.5976e-07
4.46498e-06
-1.01545e-06
5.51468e-06
-1.62406e-06
6.78393e-06
-2.42639e-06
8.41824e-06
-3.47941e-06
1.05715e-05
-4.84154e-06
1.34354e-05
-6.58012e-06
1.72706e-05
-8.76949e-06
2.24175e-05
-1.15075e-05
2.93595e-05
3.87816e-05
-1.48796e-05
-1.75339e-07
3.77195e-06
-4.8615e-07
4.77579e-06
-9.05242e-07
5.93377e-06
-1.46689e-06
7.34558e-06
-2.21384e-06
9.1652e-06
-3.19456e-06
1.15522e-05
-4.46941e-06
1.47102e-05
-6.1034e-06
1.89046e-05
-8.17644e-06
2.44905e-05
-1.0776e-05
3.1959e-05
4.19928e-05
-1.39872e-05
-1.8018e-07
3.95213e-06
-4.77519e-07
5.07313e-06
-8.67088e-07
6.32334e-06
-1.38894e-06
7.86743e-06
-2.0813e-06
9.85755e-06
-2.99209e-06
1.2463e-05
-4.17965e-06
1.58978e-05
-5.70803e-06
2.0433e-05
-7.65634e-06
2.64388e-05
-1.01202e-05
3.44229e-05
4.50948e-05
-1.32222e-05
-1.64222e-07
4.11635e-06
-4.36344e-07
5.34525e-06
-7.936e-07
6.68059e-06
-1.27259e-06
8.34642e-06
-1.90998e-06
1.04949e-05
-2.7512e-06
1.33042e-05
-3.85155e-06
1.69981e-05
-5.27693e-06
2.18584e-05
-7.10588e-06
2.82678e-05
-9.44141e-06
3.67585e-05
4.80732e-05
-1.24198e-05
-1.02938e-07
4.21929e-06
-3.26403e-07
5.56872e-06
-6.34564e-07
6.98875e-06
-1.05991e-06
8.77177e-06
-1.6338e-06
1.10688e-05
-2.39954e-06
1.407e-05
-3.40938e-06
1.8008e-05
-4.72624e-06
2.31752e-05
-6.42659e-06
2.99681e-05
-8.60277e-06
3.89346e-05
5.08253e-05
-1.13549e-05
-9.4153e-08
4.31345e-06
-2.83738e-07
5.7583e-06
-5.43639e-07
7.24865e-06
-9.06643e-07
9.13477e-06
-1.40279e-06
1.1565e-05
-2.07405e-06
1.47412e-05
-2.96819e-06
1.89021e-05
-4.14471e-06
2.43517e-05
-5.67069e-06
3.14941e-05
-7.63457e-06
4.08985e-05
5.33422e-05
-1.01514e-05
-6.78253e-08
4.38127e-06
-2.10339e-07
5.90082e-06
-4.07244e-07
7.44556e-06
-6.9068e-07
9.41821e-06
-1.09173e-06
1.1966e-05
-1.64526e-06
1.52948e-05
-2.39813e-06
1.9655e-05
-3.40102e-06
2.53546e-05
-4.70646e-06
3.27996e-05
-6.38645e-06
4.25785e-05
5.54856e-05
-8.52983e-06
7.25706e-09
4.37401e-06
-5.34236e-08
5.9615e-06
-1.59678e-07
7.55181e-06
-3.40415e-07
9.59894e-06
-6.16898e-07
1.22425e-05
-1.02591e-06
1.57038e-05
-1.60322e-06
2.02323e-05
-2.38822e-06
2.61396e-05
-3.41931e-06
3.38306e-05
-4.73784e-06
4.3897e-05
5.71361e-05
-6.38833e-06
6.08942e-08
4.31312e-06
8.89156e-08
5.93348e-06
9.15809e-08
7.54915e-06
4.60511e-08
9.64447e-06
-7.11318e-08
1.23597e-05
-2.89211e-07
1.59219e-05
-6.3634e-07
2.05794e-05
-1.13295e-06
2.66363e-05
-1.7881e-06
3.44858e-05
-2.60651e-06
4.47155e-05
5.81445e-05
-3.61497e-06
1.31832e-07
4.18129e-06
2.73442e-07
5.79187e-06
4.14612e-07
7.40798e-06
5.37536e-07
9.52155e-06
6.23614e-07
1.22736e-05
6.51228e-07
1.58942e-05
6.05039e-07
2.06256e-05
4.88901e-07
2.67524e-05
3.3363e-07
3.46411e-05
1.75572e-07
4.48735e-05
5.82899e-05
3.01576e-08
2.24419e-07
3.95687e-06
5.10216e-07
5.50607e-06
8.28346e-07
7.08985e-06
1.16766e-06
9.18223e-06
1.50986e-06
1.19314e-05
1.84373e-06
1.55604e-05
2.17649e-06
2.02929e-05
2.55413e-06
2.63747e-05
3.0558e-06
3.41394e-05
3.78344e-06
4.41459e-05
5.72316e-05
4.84178e-06
3.41257e-07
3.61561e-06
8.00444e-07
5.04688e-06
1.3399e-06
6.55039e-06
1.94267e-06
8.57946e-06
2.59255e-06
1.12815e-05
3.29596e-06
1.4857e-05
4.10532e-06
1.94835e-05
5.12047e-06
2.53596e-05
6.47202e-06
3.27878e-05
8.32466e-06
4.22932e-05
5.46954e-05
1.08609e-05
4.21121e-07
3.19449e-06
1.10687e-06
4.36113e-06
1.924e-06
5.73326e-06
2.82287e-06
7.68059e-06
3.81346e-06
1.0291e-05
4.94822e-06
1.37222e-05
6.34815e-06
1.80836e-05
8.15582e-06
2.35519e-05
1.05517e-05
3.0392e-05
1.37572e-05
3.90877e-05
5.04268e-05
1.80258e-05
8.00847e-07
2.39364e-06
1.7767e-06
3.38528e-06
2.70044e-06
4.80952e-06
3.77267e-06
6.60837e-06
5.06707e-06
8.99655e-06
6.64767e-06
1.21416e-05
8.74073e-06
1.59905e-05
1.14778e-05
2.08149e-05
1.50762e-05
2.67936e-05
1.98091e-05
3.43548e-05
4.42123e-05
2.60236e-05
8.25131e-08
2.31113e-06
9.19774e-07
2.54802e-06
2.21226e-06
3.51703e-06
3.70296e-06
5.11768e-06
5.53753e-06
7.16197e-06
7.8764e-06
9.80274e-06
1.08194e-05
1.30475e-05
1.46252e-05
1.70091e-05
1.95163e-05
2.19024e-05
2.5805e-05
2.80661e-05
3.60839e-05
3.39334e-05
1.48075e-06
1.06299e-06
2.10526e-06
1.87579e-06
1.92582e-06
3.07665e-06
1.09548e-06
4.38704e-06
-4.00039e-07
5.75404e-06
-2.59628e-06
7.08937e-06
-5.42646e-06
8.20089e-06
-8.82672e-06
8.97515e-06
-1.27941e-05
9.28299e-06
-1.73953e-05
8.88467e-06
7.27127e-06
-2.2631e-05
1.96464e-06
-9.01651e-07
3.78358e-06
5.68523e-08
4.86568e-06
1.99455e-06
5.29425e-06
3.95847e-06
4.93442e-06
6.11387e-06
3.60159e-06
8.42219e-06
1.10868e-06
1.06938e-05
-2.55371e-06
1.26375e-05
-7.1288e-06
1.38581e-05
-1.24368e-05
1.41927e-05
1.35002e-05
-1.86658e-05
1.05722e-06
-1.95887e-06
2.9271e-06
-1.81302e-06
5.23836e-06
-3.16721e-07
6.97426e-06
2.22257e-06
7.87263e-06
5.21551e-06
7.76629e-06
8.52853e-06
6.40446e-06
1.20556e-05
3.53608e-06
1.55059e-05
-9.21845e-07
1.8316e-05
-6.58874e-06
1.98596e-05
1.98533e-05
-1.29418e-05
9.84032e-07
-2.94291e-06
2.21875e-06
-3.04774e-06
4.417e-06
-2.51497e-06
7.14667e-06
-5.07098e-07
9.43519e-06
2.92699e-06
1.07796e-05
7.18407e-06
1.08303e-05
1.2005e-05
9.25622e-06
1.708e-05
5.76392e-06
2.18083e-05
3.07946e-07
2.53156e-05
2.66942e-05
-6.53296e-06
1.16609e-06
-4.109e-06
2.43889e-06
-4.32054e-06
4.1479e-06
-4.22398e-06
6.77671e-06
-3.1359e-06
9.95471e-06
-2.5101e-07
1.26598e-05
4.47895e-06
1.42493e-05
1.04155e-05
1.42173e-05
1.71121e-05
1.2106e-05
2.39195e-05
7.62304e-06
2.97986e-05
3.3449e-05
8.68279e-07
1.19203e-06
-5.30102e-06
2.58836e-06
-5.71688e-06
4.368e-06
-6.00362e-06
6.66371e-06
-5.43161e-06
9.90233e-06
-3.48963e-06
1.35408e-05
8.40487e-07
1.65138e-05
7.4425e-06
1.80763e-05
1.55495e-05
1.75787e-05
2.44171e-05
1.44872e-05
3.28901e-05
3.93995e-05
8.53662e-06
1.08909e-06
-6.39011e-06
2.48405e-06
-7.11184e-06
4.29182e-06
-7.8114e-06
6.58746e-06
-7.72725e-06
9.59031e-06
-6.49248e-06
1.35555e-05
-3.12473e-06
1.75668e-05
3.43127e-06
2.05864e-05
1.25299e-05
2.17554e-05
2.32481e-05
2.03612e-05
3.42844e-05
4.39133e-05
1.58474e-05
9.67667e-07
-7.35778e-06
2.26682e-06
-8.41099e-06
3.95712e-06
-9.5017e-06
6.14043e-06
-9.91056e-06
8.99972e-06
-9.35177e-06
1.28253e-05
-6.95029e-06
1.7466e-05
-1.20942e-06
2.15953e-05
8.40052e-06
2.42884e-05
2.0555e-05
2.47613e-05
3.38115e-05
4.60294e-05
2.26452e-05
8.14155e-07
-8.17193e-06
1.94414e-06
-9.54098e-06
3.39832e-06
-1.09559e-05
5.32105e-06
-1.18333e-05
7.90353e-06
-1.19342e-05
1.13694e-05
-1.04161e-05
1.60218e-05
-5.86188e-06
2.09255e-05
3.49682e-06
2.48271e-05
1.66534e-05
2.68172e-05
3.18214e-05
4.66186e-05
2.62281e-05
6.25492e-07
-8.79743e-06
1.52033e-06
-1.04358e-05
2.65915e-06
-1.20947e-05
4.19434e-06
-1.33685e-05
6.32726e-06
-1.40672e-05
9.32497e-06
-1.34138e-05
1.35352e-05
-1.00721e-05
1.87361e-05
-1.70415e-06
2.3354e-05
1.20355e-05
2.66649e-05
2.85105e-05
4.52056e-05
2.80779e-05
3.44018e-07
-9.14144e-06
9.91293e-07
-1.10831e-05
1.70461e-06
-1.2808e-05
2.74041e-06
-1.44043e-05
4.25175e-06
-1.55785e-05
6.50111e-06
-1.56632e-05
9.85232e-06
-1.34233e-05
1.46752e-05
-6.52703e-06
1.97563e-05
6.95433e-06
2.40676e-05
2.41993e-05
4.21721e-05
2.71011e-05
1.48042e-07
-9.28949e-06
3.88339e-07
-1.13234e-05
6.87091e-07
-1.31068e-05
1.16572e-06
-1.48829e-05
1.92504e-06
-1.63378e-05
3.21035e-06
-1.69485e-05
5.47112e-06
-1.56841e-05
9.38205e-06
-1.0438e-05
1.45121e-05
1.82429e-06
1.9301e-05
1.94103e-05
3.68017e-05
2.46714e-05
-1.13319e-07
-9.17617e-06
-2.5378e-07
-1.11829e-05
-4.1659e-07
-1.2944e-05
-5.66443e-07
-1.47331e-05
-6.26227e-07
-1.6278e-05
-4.44474e-07
-1.71303e-05
3.59043e-07
-1.64876e-05
2.80286e-06
-1.28818e-05
7.63945e-06
-3.0123e-06
1.24886e-05
1.45612e-05
3.19905e-05
1.72997e-05
-4.50614e-07
-8.72555e-06
-1.02151e-06
-1.0612e-05
-1.70842e-06
-1.2257e-05
-2.51092e-06
-1.39306e-05
-3.39356e-06
-1.53954e-05
-4.252e-06
-1.62718e-05
-4.81618e-06
-1.59234e-05
-4.47601e-06
-1.3222e-05
-1.2798e-06
-6.20851e-06
4.72118e-06
8.56026e-06
2.62765e-05
1.04353e-05
-7.54343e-07
-7.97121e-06
-1.75502e-06
-9.61136e-06
-2.9985e-06
-1.10136e-05
-4.4952e-06
-1.24339e-05
-6.2168e-06
-1.36738e-05
-8.05502e-06
-1.44336e-05
-9.73473e-06
-1.42437e-05
-1.06555e-05
-1.23012e-05
-9.61179e-06
-7.25217e-06
-4.39662e-06
3.34509e-06
1.90661e-05
2.81372e-06
-1.07092e-06
-6.90029e-06
-2.51848e-06
-8.1638e-06
-4.32702e-06
-9.20503e-06
-6.52071e-06
-1.02402e-05
-9.06613e-06
-1.11284e-05
-1.18291e-05
-1.16706e-05
-1.44917e-05
-1.15811e-05
-1.64205e-05
-1.03725e-05
-1.65354e-05
-7.13726e-06
-1.29444e-05
-2.4592e-07
1.13918e-05
-5.27004e-06
-1.41734e-06
-5.48294e-06
-3.3097e-06
-6.27144e-06
-5.67639e-06
-6.83833e-06
-8.53794e-06
-7.37864e-06
-1.18466e-05
-7.81976e-06
-1.54489e-05
-8.06828e-06
-1.90165e-05
-8.01347e-06
-2.19417e-05
-7.4473e-06
-2.31881e-05
-5.89088e-06
-2.10131e-05
-2.42089e-06
4.39736e-06
-1.40187e-05
-1.78621e-06
-3.69673e-06
-4.10739e-06
-3.95026e-06
-6.97633e-06
-3.96939e-06
-1.03997e-05
-3.95524e-06
-1.43049e-05
-3.91456e-06
-1.85299e-05
-3.84329e-06
-2.27525e-05
-3.79094e-06
-2.64034e-05
-3.79639e-06
-2.85368e-05
-3.75743e-06
-2.77283e-05
-3.22943e-06
-1.41732e-06
-2.19136e-05
-2.15591e-06
-1.54082e-06
-4.78472e-06
-1.32145e-06
-7.92506e-06
-8.2905e-07
-1.15499e-05
-3.30418e-07
-1.55332e-05
6.87966e-08
-1.96552e-05
2.78638e-07
-2.35886e-05
1.42524e-07
-2.67631e-05
-6.21913e-07
-2.83944e-05
-2.12613e-06
-2.7964e-05
-3.65984e-06
-5.02223e-06
-2.43591e-05
-2.06591e-06
5.25082e-07
-4.18613e-06
7.9878e-07
-6.51981e-06
1.50463e-06
-9.10522e-06
2.25499e-06
-1.18914e-05
2.85495e-06
-1.46618e-05
3.0491e-06
-1.69888e-05
2.46948e-06
-1.77757e-05
1.64991e-07
-1.6291e-05
-3.61087e-06
-1.29546e-05
-6.99621e-06
-1.03901e-05
-7.58672e-06
-1.27277e-06
1.79785e-06
-2.43033e-06
1.95634e-06
-3.63143e-06
2.70573e-06
-4.79545e-06
3.41901e-06
-5.71911e-06
3.77861e-06
-5.89538e-06
3.22538e-06
-4.26007e-06
8.34173e-07
-2.93642e-07
-3.80144e-06
4.62456e-06
-8.52908e-06
1.04068e-05
-1.27784e-05
-1.7487e-05
1.75037e-05
-5.49171e-07
2.34703e-06
-6.94918e-07
2.10209e-06
-5.77324e-07
2.58813e-06
2.86549e-07
2.55514e-06
2.43464e-06
1.63052e-06
6.51303e-06
-8.53017e-07
1.2071e-05
-4.72377e-06
1.72876e-05
-9.01804e-06
2.24587e-05
-1.37002e-05
2.85239e-05
-1.88436e-05
-2.49074e-05
3.59443e-05
4.99557e-07
1.84747e-06
1.78349e-06
8.1815e-07
4.2262e-06
1.45425e-07
7.95161e-06
-1.17027e-06
1.28478e-05
-3.26572e-06
1.80887e-05
-6.09388e-06
2.28637e-05
-9.49873e-06
2.73766e-05
-1.3531e-05
3.19779e-05
-1.83014e-05
3.71972e-05
-2.40629e-05
-3.14028e-05
4.36925e-05
4.1586e-06
7.52477e-06
1.11872e-05
1.51346e-05
1.90309e-05
2.27397e-05
2.62886e-05
2.97666e-05
3.33676e-05
3.73708e-05
4.20519e-05
-1.29645e-05
5.86644e-06
7.09804e-06
-2.37768e-05
4.75909e-06
6.05318e-06
-3.33036e-05
4.15702e-06
5.36986e-06
-4.16142e-05
3.74902e-06
4.56153e-06
-4.94228e-05
3.94271e-06
3.86585e-06
-5.73928e-05
4.82145e-06
3.14855e-06
-6.60924e-05
6.42619e-06
2.27348e-06
-7.59717e-05
8.81224e-06
1.06698e-06
-8.7424e-05
1.21218e-05
-6.69431e-07
-0.000100873
1.66231e-05
-3.17432e-06
2.27466e-05
-6.79794e-06
-0.000116821
-5.33913e-06
1.12056e-05
-1.12334e-05
1.06533e-05
-1.87041e-05
1.16278e-05
-2.68045e-05
1.18493e-05
-3.53981e-05
1.25364e-05
-4.44674e-05
1.38907e-05
-5.43129e-05
1.62717e-05
-6.53639e-05
1.98633e-05
-7.81109e-05
2.48687e-05
-9.30889e-05
3.16011e-05
4.05277e-05
-0.00011087
-2.2289e-06
1.34345e-05
-5.53584e-06
1.39603e-05
-1.08508e-05
1.69427e-05
-1.74715e-05
1.847e-05
-2.53596e-05
2.04245e-05
-3.4261e-05
2.27921e-05
-4.42379e-05
2.62486e-05
-5.54859e-05
3.11112e-05
-6.83955e-05
3.77784e-05
-8.34585e-05
4.66641e-05
5.8366e-05
-0.000101297
-1.34518e-06
1.47796e-05
-3.89059e-06
1.65057e-05
-7.73874e-06
2.07909e-05
-1.26709e-05
2.34021e-05
-1.91209e-05
2.68745e-05
-2.69373e-05
3.06086e-05
-3.60835e-05
3.53948e-05
-4.66235e-05
4.16512e-05
-5.87878e-05
4.99427e-05
-7.29458e-05
6.08221e-05
7.49828e-05
-8.95627e-05
-1.12655e-06
1.59062e-05
-3.36157e-06
1.87407e-05
-6.2382e-06
2.36675e-05
-1.00748e-05
2.72387e-05
-1.52109e-05
3.20106e-05
-2.16744e-05
3.70721e-05
-2.954e-05
4.32605e-05
-3.88699e-05
5.09811e-05
-4.98141e-05
6.08869e-05
-6.26541e-05
7.36621e-05
9.01754e-05
-7.78467e-05
-8.29287e-07
1.67355e-05
-2.87226e-06
2.07837e-05
-5.09868e-06
2.58939e-05
-8.22847e-06
3.03685e-05
-1.23171e-05
3.60992e-05
-1.75651e-05
4.23202e-05
-2.41253e-05
4.98207e-05
-3.2116e-05
5.89718e-05
-4.16677e-05
7.04386e-05
-5.29953e-05
8.49897e-05
0.000103601
-6.64211e-05
-6.61277e-07
1.73968e-05
-2.29722e-06
2.24196e-05
-4.19328e-06
2.779e-05
-6.76685e-06
3.29421e-05
-1.00561e-05
3.93885e-05
-1.43147e-05
4.65787e-05
-1.97272e-05
5.52331e-05
-2.64308e-05
6.56754e-05
-3.4589e-05
7.85968e-05
-4.44048e-05
9.48055e-05
0.000115317
-5.61208e-05
-7.07856e-07
1.81046e-05
-2.06451e-06
2.37763e-05
-3.59663e-06
2.93221e-05
-5.73055e-06
3.5076e-05
-8.4007e-06
4.20586e-05
-1.18597e-05
5.00377e-05
-1.62609e-05
5.96343e-05
-2.17759e-05
7.11904e-05
-2.85768e-05
8.53978e-05
-3.68398e-05
0.000103068
0.000125284
-4.68068e-05
-6.03701e-07
1.87083e-05
-1.75844e-06
2.4931e-05
-3.03655e-06
3.06002e-05
-4.77144e-06
3.68109e-05
-6.92676e-06
4.42139e-05
-9.71052e-06
5.28215e-05
-1.32581e-05
6.31819e-05
-1.77286e-05
7.5661e-05
-2.32946e-05
9.09637e-05
-3.01444e-05
0.000109918
0.000133625
-3.84848e-05
-2.85297e-07
1.89936e-05
-1.10778e-06
2.57535e-05
-2.09566e-06
3.15881e-05
-3.47144e-06
3.81866e-05
-5.17784e-06
4.59203e-05
-7.39223e-06
5.50359e-05
-1.02221e-05
6.60117e-05
-1.38104e-05
7.92493e-05
-1.83268e-05
9.54801e-05
-2.39441e-05
0.000115536
0.000140574
-3.08932e-05
-2.87239e-08
1.90223e-05
-5.75062e-07
2.62998e-05
-1.25904e-06
3.22721e-05
-2.26479e-06
3.91924e-05
-3.52887e-06
4.71844e-05
-5.20479e-06
5.67118e-05
-7.36183e-06
6.81688e-05
-1.01269e-05
8.20144e-05
-1.36381e-05
9.89913e-05
-1.80597e-05
0.000119957
0.000146098
-2.3584e-05
-1.08499e-08
1.90332e-05
-3.79505e-07
2.66685e-05
-8.04314e-07
3.26969e-05
-1.46314e-06
3.98512e-05
-2.28435e-06
4.80056e-05
-3.40206e-06
5.78295e-05
-4.85586e-06
6.96226e-05