/*--------------------------------*- C++ -*----------------------------------*\
| =========                 |                                                 |
| \\      /  F ield         | OpenFOAM: The Open Source CFD Toolbox           |
|  \\    /   O peration     | Version:  3.0.1                                 |
|   \\  /    A nd           | Web:      www.OpenFOAM.org                      |
|    \\/     M anipulation  |                                                 |
\*---------------------------------------------------------------------------*/
FoamFile
{
    version     2.0;
    format      ascii;
    class       volScalarField;
    location    "0.348597";
    object      epsilon;
}
// * * * * * * * * * * * * * * * * * * * * * * * * * * * * * * * * * * * * * //

dimensions      [0 2 -3 0 0 0 0];

internalField   nonuniform List<scalar> 
21246
(
282.185
157.557
24.361
5.63085
1.58766
0.729861
0.503617
0.428633
0.400791
0.391309
0.390021
429.604
298.511
48.5391
8.88412
2.1426
0.860753
0.532653
0.429664
0.390898
0.374576
0.366523
516.375
313.284
72.9991
14.3136
2.62901
1.00059
0.564381
0.431165
0.380609
0.357224
0.341758
528.306
293.709
83.0845
18.3015
2.9827
1.12188
0.591269
0.431941
0.371024
0.341921
0.321202
495.337
281.044
87.419
20.7732
3.47721
1.2181
0.612843
0.432609
0.362936
0.329867
0.307222
443.051
275.622
92.2601
23.8973
4.44499
1.32729
0.634032
0.434489
0.356992
0.320953
0.297709
380.444
274.247
98.6628
28.2051
5.97931
1.58307
0.675551
0.438749
0.35346
0.314704
0.290771
314.471
275.212
105.831
33.2209
8.03621
2.03649
0.762048
0.453755
0.353392
0.310759
0.286535
253.943
276.974
114.386
39.122
10.7042
2.78165
0.926277
0.486186
0.358907
0.309704
0.284339
202.391
278.142
125.742
46.6943
14.3261
3.99079
1.23871
0.55564
0.373505
0.311692
0.283769
158.979
279.923
139.33
55.8625
18.9578
5.77718
1.78225
0.694913
0.406096
0.318605
0.284984
125.175
284.191
154.459
66.1115
24.3624
8.1236
2.6168
0.944804
0.472368
0.334875
0.288923
103.02
288.894
171.917
78.0594
30.7763
11.1307
3.82973
1.36464
0.599768
0.370075
0.298312
91.6209
290.998
192.025
92.7016
38.7353
15.0251
5.55063
2.0391
0.833928
0.443352
0.319652
90.8828
294.047
214.377
109.952
48.2442
19.8295
7.83725
3.03914
1.22948
0.584914
0.366038
100.717
295.025
238.128
130.762
60.0704
25.8996
10.8586
4.47517
1.86456
0.842728
0.461924
118.656
289.278
259.994
156.009
75.532
33.9951
14.9865
6.54487
2.86149
1.29481
0.651968
137.583
273.973
273.698
184.183
95.5281
44.9709
20.7329
9.54445
4.40444
2.06054
1.0116
155.389
251.991
273.476
211.012
120.454
60.1169
29.0544
14.0563
6.84133
3.35562
1.67764
171.671
226.394
256.264
227.73
148.119
80.676
41.5121
21.2022
10.8796
5.61485
2.91963
186.054
194.821
222.428
224.801
172.475
107.127
60.5342
33.1644
18.0332
9.8044
5.33791
241.326
174.282
189.101
211.046
189.596
138.69
89.2163
53.75
31.408
18.1334
10.3883
274.901
153.1
153.45
160.542
157.931
138.813
108.248
76.317
50.3355
32.054
19.8122
546.55
594.045
443.84
366.351
289.96
217.156
154.944
106.208
71.4621
47.7267
31.2616
214.227
87.1024
19.1809
3.86687
1.24955
0.662226
0.49025
0.429765
0.408346
0.404488
0.410694
246.764
67.8743
13.1984
4.08886
1.41303
0.719727
0.511662
0.438489
0.412731
0.408117
0.415581
286.857
85.7588
12.6635
4.75806
1.73396
0.862848
0.567701
0.460837
0.421066
0.410481
0.415716
292.648
84.0281
11.995
4.90528
1.78831
0.915281
0.590662
0.464836
0.4145
0.397249
0.398266
282.577
71.4323
11.4182
4.88841
1.79978
0.938857
0.594425
0.459414
0.40407
0.384268
0.382967
269.823
59.4863
10.7983
4.63319
1.72747
0.925285
0.582688
0.448726
0.392892
0.372943
0.37149
257.984
50.4609
10.1889
4.30845
1.62921
0.894413
0.561719
0.433638
0.379289
0.360301
0.359987
246.296
43.766
9.59686
3.99353
1.53935
0.858848
0.539031
0.417432
0.364653
0.346321
0.347
237.631
38.8468
9.10535
3.74354
1.47687
0.825632
0.519073
0.402156
0.350106
0.331445
0.33177
232.56
35.4174
8.73107
3.55723
1.44152
0.800719
0.503704
0.388891
0.336411
0.31637
0.315054
231.456
33.2127
8.52051
3.45423
1.43178
0.787608
0.493884
0.378338
0.324193
0.302017
0.298493
233.131
31.7894
8.41633
3.41908
1.44553
0.786552
0.489865
0.370903
0.313914
0.288953
0.282329
238.203
31.2379
8.44106
3.45304
1.48771
0.799623
0.492736
0.367247
0.30609
0.277699
0.267385
244.534
33.2983
8.9367
3.63032
1.59328
0.839973
0.508971
0.370033
0.302202
0.269351
0.255787
252.697
36.5878
9.8948
3.97154
1.78248
0.921721
0.547047
0.383765
0.304753
0.265435
0.247826
263.457
41.4279
11.4928
4.55963
2.08947
1.06734
0.619055
0.415639
0.317461
0.267934
0.24448
277.681
48.1995
14.0148
5.54774
2.58635
1.31898
0.74961
0.480504
0.348759
0.281553
0.248189
297.154
57.1408
17.7414
7.15666
3.40095
1.75376
0.987151
0.609172
0.417777
0.317862
0.265745
324.725
68.9759
23.1426
9.74155
4.76872
2.52323
1.43212
0.868918
0.569688
0.406706
0.31687
365.204
85.312
31.0694
13.9041
7.12282
3.93056
2.29892
1.41269
0.914382
0.62714
0.458628
428.326
109.287
43.1355
20.7164
11.2628
6.58024
4.04783
2.59255
1.72337
1.19
0.856162
536.929
147.299
62.674
32.3273
18.751
11.684
7.64772
5.19516
3.64302
2.63232
1.96008
751.812
225.781
102.674
56.0912
34.2826
22.5175
15.5495
11.165
8.28901
6.34333
4.99083
1379.82
391.992
201.137
125.302
86.357
62.7277
47.0299
36.7568
29.6584
24.4557
20.2092
1066.07
511.26
227.266
114.593
59.4976
28.8465
13.0267
5.91184
3.00847
1.85327
1.45299
1032.09
535.374
291.311
158.571
85.4171
42.5868
18.1804
6.83231
3.05985
1.75842
1.37649
670.576
429.324
288.279
178.683
105.18
57.0004
26.7784
10.3277
3.69336
1.72175
1.25485
308.363
309.73
250.637
177.174
114.767
67.805
35.2951
15.2469
5.51418
2.04138
1.15382
110.819
216.306
205.606
163.016
115.54
74.0113
42.1817
20.4455
8.18848
2.89374
1.23147
64.2528
150.484
164.956
143.155
109.546
75.4499
46.5479
24.9316
11.1879
4.22068
1.55976
53.3619
99.5924
128.998
121.14
98.835
72.471
47.8748
27.8847
13.8437
5.74162
2.1075
39.6866
58.2367
94.8352
98.5495
85.3649
66.0119
46.2239
28.8724
15.5951
7.07816
2.73243
29.0162
34.3515
62.9796
76.4245
70.8353
57.4225
42.2675
27.9875
16.1926
7.92932
3.2568
21.4065
22.7827
38.9675
55.819
56.4859
47.9776
36.9184
25.6736
15.6943
8.16064
3.54537
15.774
15.8112
24.8965
37.7537
43.2144
38.6177
30.9584
22.4386
14.319
7.79055
3.53409
11.8599
11.3379
16.63
24.849
31.3179
29.9839
24.986
18.7547
12.3615
6.94855
3.25789
9.15818
8.3977
11.4592
16.4834
21.6964
22.4128
19.4257
15.0276
10.1492
5.84141
2.8134
7.17738
6.40859
8.12723
11.1041
14.6912
16.0814
14.5343
11.5614
7.97196
4.68426
2.31004
5.87986
5.07679
6.00201
7.67307
9.91461
11.1554
10.4852
8.58454
6.06034
3.65308
1.85838
5.02231
4.20108
4.68061
5.53254
6.80963
7.63163
7.41103
6.2816
4.59456
2.88315
1.53425
4.45358
3.64056
3.87857
4.23363
4.87781
5.36035
5.36126
4.77169
3.69377
2.46418
1.38751
4.14236
3.30491
3.38631
3.45622
3.77359
4.12753
4.33028
4.14862
3.47628
2.50035
1.49923
3.97032
3.1186
3.04558
2.99721
3.28863
3.84394
4.49173
4.77909
4.32597
3.27975
2.0375
3.98269
3.19118
2.84758
2.92441
3.59091
5.14176
7.08958
8.50964
8.10713
6.13543
3.7261
7.24083
4.19147
3.3068
4.01787
6.41351
11.8929
14.9997
15.5505
14.6108
12.4481
8.59802
13.7659
5.83658
5.46299
10.7681
17.7895
20.4164
20.0054
18.2418
16.1414
14.1905
11.7706
18.7157
20.9548
27.424
31.6259
30.2466
26.339
21.6304
17.2598
13.9269
11.9038
10.6151
149.656
92.9362
66.1938
47.5021
34.2917
24.6772
17.7443
13.0483
10.2085
8.8373
8.39866
1290.17
342.626
174.734
95.1293
50.9034
25.8723
12.5622
6.12766
3.24125
2.00286
1.52071
1025.66
269.552
147.45
91.8955
55.75
31.0562
15.8144
7.72409
3.93177
2.27257
1.59269
524.075
199.657
122.295
88.123
61.7389
38.5248
20.9408
10.3366
5.0547
2.69841
1.71446
197.308
95.9061
80.2016
73.9309
62.6933
45.5038
27.4219
14.162
6.82688
3.40409
1.93976
59.9614
38.3457
39.7434
47.815
53.2913
48.3861
34.5713
19.8278
9.85226
4.71806
2.45527
25.1086
17.4577
20.2996
27.9429
37.204
41.8763
37.1154
25.4857
14.2218
7.05641
3.42782
18.8094
12.6926
13.7645
18.2245
25.9311
33.2947
34.2986
26.9126
16.5288
8.71616
4.43314
17.8661
12.1988
12.1892
14.6284
19.657
26.589
30.7405
27.1527
18.2489
10.2394
5.49458
18.0521
12.4911
11.9381
13.4277
16.6785
21.9785
27.0749
26.658
19.4831
11.5382
6.47684
18.7105
12.8972
12.0224
12.9617
15.0862
19.0149
23.7669
25.376
20.4123
12.6104
7.34287
19.7293
13.521
12.32
12.6822
13.9694
16.835
20.9187
23.4756
20.6173
13.6669
8.04605
21.1955
14.3975
12.7031
12.4621
13.0855
15.0405
18.354
21.2699
20.0372
14.2774
8.75165
22.8771
15.2679
13.1324
12.3871
12.3954
13.5003
15.9819
18.8687
18.888
14.395
9.22224
24.7917
16.1919
13.648
12.4295
11.8597
12.2048
13.8364
16.3933
17.3296
14.1298
9.3939
27.0548
17.2201
14.2731
12.5732
11.4638
11.1545
12.0117
14.0235
15.4986
13.5423
9.40052
29.9241
18.4263
15.0474
12.8308
11.1949
10.3287
10.5586
11.9432
13.5131
12.6516
9.40448
33.7745
19.9147
16.056
13.2981
11.1243
9.74546
9.47931
10.2903
11.5597
11.4907
9.39926
39.146
21.9005
17.5906
14.2695
11.4333
9.45986
8.72145
9.06333
9.91024
10.1777
9.11791
46.841
24.8911
20.0941
16.0026
12.3088
9.59004
8.29626
8.1937
8.66353
8.96763
8.59433
57.604
29.4787
23.6401
18.6296
13.9302
10.2682
8.2658
7.6661
7.76486
7.92804
7.75487
69.6272
35.2266
28.1785
22.118
16.2032
11.4502
8.63353
7.48182
7.20304
7.1599
7.01679
91.7083
43.6121
34.3565
25.7722
18.4309
12.7524
9.24833
7.597
6.98884
6.77515
6.63571
134.32
66.2905
40.4816
28.1209
19.6955
13.7304
9.92317
7.93262
7.07691
6.76187
6.72723
407.987
76.81
44.1934
27.98
19.8953
14.4335
10.749
8.54743
7.45693
7.07988
7.1592
2301.56
774.577
310.365
116.445
39.3257
12.5586
3.93671
1.23149
0.392693
0.13371
0.0534058
1631.58
455.128
212.308
90.1618
34.3793
12.1176
4.03048
1.28932
0.406937
0.134017
0.0516519
997.918
356.876
177.984
85.2339
35.6292
13.3327
4.59906
1.49938
0.474747
0.153807
0.0573916
688.733
262.93
146.636
80.9099
38.0848
15.2181
5.4548
1.82389
0.58352
0.187721
0.0681462
515.141
200.942
113.56
66.9227
34.518
15.2
5.83865
2.02124
0.645812
0.201299
0.0697048
420.945
159.449
91.7877
54.9898
28.9049
13.2038
5.27325
1.89559
0.632989
0.205829
0.0740457
357.969
131.816
76.0762
45.7774
24.3545
11.3087
4.637
1.72811
0.60129
0.203443
0.0749759
312.49
111.682
64.2198
38.5428
20.5876
9.64534
4.02601
1.54297
0.556487
0.196102
0.0775296
279.341
96.6546
55.1776
32.9669
17.6084
8.28777
3.50335
1.37423
0.512924
0.188657
0.0777549
254.551
85.3987
48.3397
28.7661
15.3515
7.24431
3.08987
1.23439
0.474206
0.180674
0.0758056
234.913
76.6463
43.0531
25.5621
13.6421
6.45288
2.77144
1.12297
0.441076
0.172312
0.0744117
219.812
69.5625
38.8179
23.0327
12.311
5.84312
2.52641
1.03613
0.414425
0.165332
0.0727023
209.16
63.9527
35.4712
21.0685
11.3
5.38935
2.34629
0.972677
0.395158
0.16049
0.0721175
201.926
59.7623
32.9305
19.6218
10.5853
5.08097
2.22791
0.932313
0.383595
0.157933
0.0725292
198.143
56.526
30.9448
18.5404
10.0907
4.88802
2.16201
0.91317
0.379846
0.158094
0.073315
198.067
54.192
29.4779
17.8038
9.81065
4.81196
2.15113
0.917137
0.385055
0.161356
0.075161
201.696
53.3015
28.6699
17.4643
9.77711
4.87513
2.20787
0.950055
0.401695
0.168527
0.0782898
210.152
54.0298
28.5179
17.5213
10.0513
5.15047
2.38211
1.03631
0.439849
0.183617
0.084588
224.913
56.771
29.2156
18.015
10.6412
5.66989
2.72001
1.21297
0.521285
0.218442
0.0984488
249.066
62.3084
31.1278
19.1219
11.6349
6.49947
3.28302
1.5292
0.677082
0.289581
0.12804
289.065
72.0791
34.8578
21.1411
13.178
7.7373
4.1652
2.07096
0.971254
0.436401
0.195298
360.043
87.3819
41.1641
24.4751
15.4853
9.53038
5.50834
2.98166
1.52767
0.748795
0.357282
492.611
112.865
51.4524
29.9657
19.1431
12.2915
7.63701
4.54518
2.59497
1.42737
0.761074
762.069
118.226
57.0144
35.6314
24.5117
17.0099
11.5584
7.61963
4.87199
3.02708
1.83528
2433.34
1462.41
585.1
225.761
72.5242
21.7446
5.96956
1.70974
0.512038
0.165141
0.062934
2737.54
1628.37
858.878
408.563
172.645
59.3796
11.873
2.91373
0.828394
0.248806
0.0867955
1778.07
1363.03
895.026
499.969
247.39
102.059
29.0203
5.32758
1.37584
0.397026
0.13045
674.663
1171.21
864.39
536.484
292.998
136.141
47.9605
11.3117
2.26668
0.632297
0.209595
549.792
1194.47
882.827
567.612
325.973
162.809
65.5908
19.1808
4.23555
0.994857
0.323826
636.08
1132.76
901.873
596.942
353.029
184.709
81.4012
27.8522
7.27408
1.70874
0.497187
700.761
1035.14
967.153
646.372
381.485
203.804
95.2699
36.5639
11.1033
2.88457
0.823826
649.228
823.457
968.332
706.217
414.631
221.31
106.984
44.601
15.3463
4.49518
1.31646
594.44
657.845
896.547
767.981
455.262
239.14
116.97
51.6521
19.6591
6.46311
2.02153
553.291
552.972
792.571
809.338
501.427
258.49
125.799
57.6726
23.8029
8.68748
2.95708
521.617
482.371
698.491
814.706
546.387
279.428
134.094
62.8566
27.6928
11.096
4.13504
494.621
429.73
620.809
786.449
581.988
299.713
141.499
67.158
31.2211
13.6097
5.52739
473.306
387.065
552.535
731.514
602.413
316.989
147.725
70.6818
34.4078
16.1982
7.14603
456.873
349.105
489.6
665.197
603.901
329.235
152.509
73.5937
37.3627
18.8809
9.05797
450.125
318.363
430.335
592.592
585.324
333.095
154.838
75.8528
40.1841
21.7104
11.318
450.687
294.997
375.739
507.047
548.777
326.249
153.788
77.4474
43.1008
24.8915
14.0252
457.673
274.977
325.492
415.803
479.135
310.352
149.307
78.6693
46.3983
28.7018
17.4034
473.901
257.831
276.538
330.32
371.307
288.496
142.944
80.3984
50.8509
33.712
21.8586
507.012
246.462
231.328
252.454
271.234
247.764
143.368
85.3474
58.1356
41.1528
28.1685
576.308
247.819
195.855
190.797
198.635
200.237
152.815
98.2255
70.8723
52.3813
37.239
743.513
284.917
193.245
169.305
167.713
170.226
152.621
111.601
80.5235
61.1668
44.5884
1319.68
468.725
342.827
286.987
244.534
222.087
182.529
134.132
97.6612
69.3571
46.8738
983.316
567.476
603.778
426.675
314.294
227.963
158.671
107.013
70.2084
45.058
28.2245
1218.46
657.424
380.838
235.489
151.037
98.3082
63.8518
40.9872
25.8799
16.0465
9.74907
78.6889
70.6533
60.2379
45.5002
25.2008
5.67405
2.84539
3.19525
4.18458
23.6821
22.3539
22.2017
20.9408
16.1415
8.73567
2.85757
1.83163
4.94882
11.9617
11.3693
12.2702
13.6489
12.4968
7.71177
3.12809
1.95298
5.31901
6.75916
6.56635
7.15214
8.71956
9.19633
6.50852
3.15704
2.17206
5.31422
83.0705
82.2758
80.2101
78.7892
72.4361
62.3919
50.2397
34.0979
12.8355
24.4715
25.5867
25.7736
24.695
23.9979
23.1711
22.4188
19.7077
13.8978
12.8024
13.7006
13.7064
12.5802
12.1028
12.2875
13.6692
14.4267
12.4083
7.1826
7.85635
7.7669
6.95416
6.93397
7.25992
8.25089
9.72048
9.88494
0.00901846
0.008294
0.00834725
0.0448165
0.412159
0.0075571
0.142525
0.00808702
0.00753276
0.00693642
0.41281
0.00812404
0.00905467
0.00470633
0.0146144
0.00728313
0.00519137
0.0448969
0.00724657
0.00710145
0.00663378
0.0655658
0.00852226
0.0597147
0.00792405
0.00468284
0.00887916
0.134743
1.44807
0.390832
0.00547922
0.00642429
0.00616475
0.00806553
0.00678356
0.00826401
0.0542524
0.00790789
0.0069148
0.00758732
0.223858
0.00809713
0.0384959
0.00849747
0.771204
0.271098
0.0130018
0.372605
0.00691341
0.00733832
0.382019
0.00760488
0.0705965
0.0395929
0.00732719
0.00666163
0.0623509
0.007625
1.45584
0.0585228
0.109026
0.0651549
0.501363
0.0931728
0.239143
0.00713964
0.277101
0.0071126
0.00829657
0.00692037
0.00535284
0.00721816
0.0362612
0.00812914
0.162019
0.00715228
0.075164
0.00827966
0.0680192
1.04944
0.0416298
0.0745043
0.00793279
0.00838059
0.00693845
0.0397998
2.33767
0.0500957
0.0244124
0.0294748
0.00809206
0.00765834
0.231282
0.0073779
0.998736
0.577072
0.127889
0.00587641
0.029246
0.00743005
0.00783376
0.361076
0.0067999
0.00614784
0.028642
0.00811981
0.00536611
0.00845296
0.00664365
0.0066896
0.00796594
0.00814908
0.0072324
0.0372245
0.0585461
0.00769196
0.00754595
0.00731853
0.00792498
0.00673419
0.0359482
0.00783906
0.00937005
0.0049605
0.257555
0.00673411
0.0287951
0.00557468
0.00514515
0.0056819
0.00778189
0.0599924
0.362348
0.00716278
0.00834207
0.00795934
0.0643924
0.0414013
0.414979
0.00732007
0.0372513
0.00659815
0.30565
0.00868076
0.00751847
0.0179677
0.0150398
0.00713184
0.0071497
0.00705485
0.00715063
0.00766419
0.0190993
0.00784718
0.0403767
0.0209699
0.0508365
0.0451426
0.00607171
0.0074727
0.00546014
0.0345999
0.00720983
0.00772203
0.312638
0.0111154
0.0244221
0.00717915
0.00653766
0.230586
0.00529066
0.00639768
0.00785
0.00644873
0.00641317
0.00640968
0.00631492
0.0210879
0.786164
0.00695477
0.00713754
0.071521
0.00849707
0.0920637
0.00793926
0.0403626
0.00706189
0.00726718
0.0082483
0.118632
0.00661191
0.00480984
0.00718576
0.212962
0.00832451
0.00760728
0.00743582
0.0306457
0.00584546
0.00856744
0.0239818
0.00731225
0.00698947
0.0057359
0.00838736
0.0478603
0.00733464
0.00512505
0.00740171
0.00740692
0.0282489
0.00759218
0.0082725
0.00671643
0.00791146
0.0923603
0.00797749
0.0161016
0.00712589
0.00833591
0.00903572
0.0408844
0.130224
0.0599399
0.00498257
0.007641
0.0606483
0.00940022
0.00618866
0.196611
0.0458452
0.00713335
0.00712249
0.00783071
0.0199358
1.87543
0.128419
0.00845073
0.00814259
0.00809971
0.0163321
0.161698
0.00611654
0.173636
0.00784697
0.0376861
0.00800391
0.00620242
0.504337
0.0572409
0.0061537
0.0296215
0.00954941
0.00726426
0.00599711
0.00746918
0.00672853
0.00786048
0.0161516
0.00703724
0.00891264
0.0095375
0.00738096
0.00819661
0.00795988
0.0113448
0.00659324
0.00733349
0.0175713
0.00693605
0.174021
0.00730107
0.00728848
0.0122377
0.0075622
0.00736236
0.00499868
0.00776059
0.00690811
0.0315443
0.00732694
0.00828722
0.0430256
0.110366
0.00600798
0.00758958
1.46305
0.00824594
0.00682493
0.0364166
0.00834877
0.131859
0.00739331
0.00774446
0.00856414
0.00743146
0.00644986
0.00816184
0.00679184
0.00504133
0.00775694
0.0306275
0.00707092
0.401872
0.00676508
0.0066791
0.00828234
0.0110664
0.068671
0.00744042
0.0950558
0.0081664
0.00644423
0.00600919
0.0842314
0.00654931
0.00636899
0.0282513
0.00671054
0.00774343
0.00706305
0.0232012
0.00746334
0.005423
0.0567095
0.00686609
0.00778253
0.00565124
0.00708888
0.0905493
0.00703901
0.512089
0.0691054
0.00846771
0.00980237
0.712756
0.050977
0.0082397
0.00784931
0.00582888
0.0274313
0.0307916
0.00727262
0.0136739
0.155636
0.0112718
0.0410872
0.00753669
0.0547769
0.0356922
0.122253
0.00575681
0.00699959
0.00682105
0.0139683
0.00860274
0.00952366
0.00695544
0.00850161
0.0877299
0.00985243
0.00475789
0.00800368
0.00798793
0.00728686
0.0234564
0.0060083
0.0155448
0.157345
0.00835044
0.00773858
0.0888483
0.604815
0.00477625
0.012135
0.00831821
0.00904692
0.00674304
0.00752157
0.00707816
0.0518384
0.00755644
0.0196162
0.00766301
0.00477249
0.206262
0.0333228
0.00502467
0.171079
0.0275808
0.00769832
0.0605562
0.00526799
0.00808077
0.203122
0.248631
0.00787015
0.00719863
0.00836752
0.0458973
0.0158867
0.00764783
0.00850866
0.03602
0.00663362
0.251857
0.062853
0.00907118
0.00730663
0.0227538
0.00698864
0.007198
0.00646998
0.00626997
0.0181698
0.0063815
0.00667977
0.00864182
0.00518969
0.0496037
0.236396
0.00662654
0.169778
0.00617954
0.00627617
0.00665517
0.00804541
0.0288556
0.0113253
0.247346
0.00789611
0.0192403
0.00492223
0.0066305
0.00729429
0.0131901
0.156885
0.403728
0.00495885
0.00860035
0.00594618
2.29931
0.0818205
0.0333089
0.00684315
0.0246868
0.0619578
0.0418778
0.00741454
0.0315456
0.00773772
0.00833556
0.00793798
0.0384391
0.0174923
0.175121
0.00525252
0.0258353
0.0266656
0.00825482
0.0073982
0.0300818
0.00524989
0.00596933
0.00694634
0.142533
0.114558
0.0902243
0.0916647
0.00706528
0.00656919
0.0329585
0.00697484
0.107868
0.00688613
0.00823457
0.00733642
0.0347637
0.0322609
0.00708844
0.007784
0.00668455
0.157297
0.0732418
0.00845534
0.0162014
0.320046
0.00941177
0.0159113
0.00740751
0.026978
0.00759882
0.00688246
0.0076263
0.00535033
0.00709037
0.0071517
0.00539336
0.00853272
0.00728979
0.00552754
0.00561217
0.00806555
0.00806396
0.559799
0.0180078
0.0304522
0.00703618
0.326597
0.0083575
0.171795
0.016826
0.0294664
0.010117
0.00797063
0.169991
0.0349459
0.00535734
0.00778469
0.0063384
0.00667482
0.00828121
0.00769201
0.00818526
0.00679682
0.052529
0.00798796
0.0074534
0.0669491
0.00773041
0.206133
0.00655927
0.00988232
0.00580241
0.0239857
0.00856373
0.00786478
0.00841854
0.201196
0.0333898
0.00794993
0.00791213
0.00496426
0.00835053
0.061687
0.00831425
0.0680345
0.0068103
0.0492399
0.00725875
0.00809346
0.288214
0.179555
0.00679535
0.0065779
0.00710707
0.0083081
0.0129815
0.0394721
0.0072109
0.00592205
0.468144
0.804183
0.00791863
0.00733761
0.0082834
0.064129
0.136009
0.0200771
0.00808208
0.00752381
0.104489
0.00724053
0.00679249
0.0052696
0.00963107
0.297588
0.00771344
0.0208259
0.00782148
0.0346424
0.00738402
0.156758
0.0065714
0.00642651
0.0887571
0.013269
0.00842584
0.00854825
0.982103
0.00763934
0.00615563
0.0470289
0.0405029
0.0726767
0.0273643
0.00645539
0.00692088
0.00773298
0.00790338
0.504817
0.0108379
0.0122469
0.00710932
0.00794879
0.0516681
0.00701185
0.00759676
0.00690147
0.00713132
0.00641175
0.0114292
0.0406397
0.0180421
0.00619237
0.0101166
0.00724147
0.0342448
0.00711559
0.00778462
0.516373
0.0402436
0.00755293
0.0075745
0.0630487
0.00675739
0.00737957
0.019429
0.00831727
0.00676612
0.00770348
0.00754704
0.00827868
0.00480661
0.00612554
0.0469668
0.0156873
0.0319246
0.0226387
0.00637252
0.0247023
0.0410754
0.00896117
0.00836426
0.00679974
0.0551738
0.00605037
0.00695311
0.00725474
0.00495135
0.038701
0.48169
0.00609447
0.00792568
0.00769201
0.0122529
0.0081187
0.00723375
0.00692779
0.0109405
0.00703724
0.00703654
0.00685461
0.00825875
0.0802905
0.0561704
0.196239
0.00710832
0.00696869
0.00754797
0.0304896
0.00762311
0.166451
0.00721376
0.184332
0.0167948
0.00770945
0.014181
0.00849707
0.00599551
0.0688317
0.00647586
0.458066
0.00553126
0.00665582
0.00841728
0.0134461
0.00525174
0.039239
0.0299578
0.00750891
0.00640162
0.00840369
0.00784007
0.006907
0.0148696
0.0081315
0.00762148
0.00762007
0.00895996
0.0273109
0.00816119
0.00817943
0.00750972
0.00881724
0.00608208
0.00647374
0.0530825
0.144281
0.00805402
0.00630619
0.00576737
0.00704368
0.0235336
0.00571137
0.152266
0.0078381
0.00556747
0.00790701
0.00702085
0.0883693
0.00954124
0.0285426
0.00470091
0.00725439
0.0067591
0.00670738
0.0186241
0.00823633
0.0445731
0.0354289
0.0688141
0.00664145
0.0102512
0.0379506
0.0756237
0.00772332
0.00703666
0.0306125
0.0278492
0.00802777
0.00477398
0.451797
0.00811398
0.1938
0.00969983
0.00837586
0.179995
0.00755091
0.00688387
0.00681139
0.00820222
0.00734847
0.0048363
0.00819071
0.00600906
0.00714495
0.00753774
0.0184103
0.0385775
0.00641125
0.00722721
0.1369
0.27392
0.00782231
0.00469219
0.00709578
0.0303641
0.00954725
0.0465227
0.00723785
0.0564244
0.00727286
0.00866461
0.00720534
0.00691094
0.00765856
0.050646
0.0533108
0.00860552
0.00788861
0.00740851
0.346927
0.0270824
0.00641799
0.00819956
0.0056859
0.00764545
0.00813698
0.00821567
0.0083821
0.00787505
0.0075488
0.00609882
0.0570301
0.0725573
0.0056163
0.00749363
0.00770609
0.00792937
0.00670415
0.0810879
0.00827648
0.00631634
0.00778073
0.306442
0.0403387
0.0380439
0.00778809
0.0516886
0.00771859
0.0078171
0.245913
0.00714903
0.00816011
0.00729021
0.00864363
0.00600341
0.00591239
0.00813841
0.0107378
0.177663
0.0334329
0.00815502
0.00507572
0.0303229
0.0266325
0.0590154
0.00842943
0.00718244
0.0473414
0.0102287
0.0279033
0.0082927
0.00685933
0.00822108
0.00736621
0.00825163
0.102308
0.00634761
0.191619
0.241994
0.0362475
0.00809884
0.471065
0.00853227
0.00720013
0.00918229
0.00789317
0.00765904
0.00766791
0.0257767
0.0731619
0.0208683
0.00764901
0.0450953
0.00768792
0.00859783
0.00734836
0.0075601
0.00730023
0.00792593
0.00814777
0.00727169
1.96296
0.0075454
0.00712641
0.00875362
0.200543
0.00710041
0.00796462
0.0489874
1.72091
0.00694788
0.00764708
0.00834968
0.0536371
0.00846825
0.00808496
0.00685286
0.00860452
0.0264223
0.00828056
0.0654414
0.00774359
0.0160196
0.00676092
0.00821214
0.00521155
0.0288522
0.00775063
0.00777148
0.00705759
0.00831612
0.0058543
0.224565
0.00656791
0.0157899
0.0546949
0.0314512
0.00602361
0.0507075
0.0085123
0.00814156
0.00554241
0.00723597
0.00513215
0.00760743
0.23474
0.00724312
0.0081234
0.00730518
0.00481081
0.00621608
0.0324086
0.00593148
0.00694254
0.00804203
0.123818
0.0648978
0.0294784
0.00670323
0.00748066
0.00698881
0.00776911
0.0488087
0.00753673
0.00830545
0.00609473
0.236794
0.0889222
0.0385212
0.00528926
0.00474379
0.0896544
0.596379
0.00801537
0.00709592
0.0360132
0.0076056
0.0189228
0.00791776
0.0223854
0.00681656
0.00885515
0.00830314
0.00770876
0.00845539
0.00763579
0.00671999
0.0413054
0.00709344
0.00780499
0.00726737
0.00952847
0.00899207
0.0463532
0.0074808
0.00687403
0.2519
0.01513
0.048035
0.00832473
0.00972353
0.00632696
0.00828815
0.0273868
0.00645927
0.0407908
0.252517
0.00607653
0.0110804
0.00653044
0.00741581
0.0121369
0.00774451
0.00698851
0.0107109
0.00813245
1.69903
0.00857311
0.552133
0.00812819
0.0211341
0.0545433
0.348358
0.00817742
0.00623272
0.00855551
0.00507488
0.174852
0.00815553
0.00890662
0.119142
0.016814
0.0832813
0.00652853
0.00778246
0.00735688
0.0491077
0.00687175
0.221766
0.00970172
0.00967829
0.155563
0.00828707
0.0114416
0.0349648
0.0295015
0.0213573
0.0251177
0.00757681
0.0116639
0.00480629
0.00809952
0.00784987
0.00856461
0.157163
0.00660736
0.00832685
0.00544462
0.0322934
0.00468986
0.00801986
0.1115
0.0139397
0.00688916
0.00893128
0.00813626
0.00708193
0.00733152
0.218848
0.00697555
0.055193
0.00614199
0.0290718
0.00796176
0.00694523
0.00796011
0.00753328
0.028784
0.186765
0.0339074
0.728554
0.242505
0.626997
0.00687019
0.00734568
0.030171
0.00838802
0.00612881
0.0757065
0.00688894
0.118244
0.00595502
0.201389
0.00684421
0.00504684
0.00811796
0.12524
0.00862657
0.529223
0.0063441
0.00837519
0.0522201
0.02746
0.00678835
0.0177401
0.0311438
0.0581409
0.0419324
0.019925
0.308851
0.00564788
0.0327305
0.278566
0.0112668
0.00833261
0.00575748
0.00765382
0.00502187
0.00529843
0.0325525
0.00772778
0.0123025
0.731342
0.00752511
0.00715409
0.00698021
0.00818904
0.00814995
0.00545718
0.0070206
0.00565151
0.349095
0.00703467
0.613924
0.083061
0.00762317
0.175255
0.0481713
0.0122077
0.00768989
0.0153607
0.00769017
0.00803823
0.170812
0.00751792
0.00824537
0.00536599
0.00809673
0.00747529
0.188775
0.00789436
0.578669
0.0141563
0.0529062
0.00722663
0.0125606
0.0394627
0.00519632
0.266121
0.00776629
0.00971829
0.0513596
0.00600585
0.0130918
0.0304119
0.00766577
0.00747162
0.111509
0.0125551
0.00644259
0.00733063
0.0194613
0.0069341
0.0148742
0.0307489
0.240587
0.00712126
0.0086026
0.00796966
0.00622917
0.00710605
0.00471506
0.0366517
1.33215
0.00817922
0.0239932
0.028044
0.00820466
0.0306125
0.00709206
0.00694846
1.34966
0.0411152
0.347861
0.21954
0.00815881
0.00792876
0.0221865
0.266567
0.0307002
0.268893
0.00495222
0.00817359
0.00715441
0.00522309
0.0237123
0.048171
0.0067912
0.00739596
0.0274399
0.0513003
0.0321355
0.00678246
0.0700022
0.32381
0.00638148
0.00554721
0.00726677
0.00719924
0.25976
0.00488914
0.00677767
0.0151228
0.00774503
0.00638056
0.395931
0.047523
0.0080122
0.0878187
0.00829964
0.00751978
0.206127
0.0620135
0.00836056
0.00523639
0.0198744
0.00660583
0.0459941
0.00806565
0.00768798
0.00704002
0.159412
0.00714712
0.00745973
0.0340874
0.00833693
0.00814598
0.00859551
0.00499037
0.00770672
0.0129256
0.0179548
0.0081457
0.432119
0.042303
0.00591141
0.0276066
0.00764141
0.00503809
0.0323731
0.00801729
0.00816265
0.00788132
0.00621436
0.00793585
0.00717451
0.00792293
0.0514635
0.0416196
0.00531328
0.0268368
0.00690422
0.0606486
0.0178759
0.0085554
0.00660225
0.0158998
0.00519452
0.00674696
0.00614417
0.00666145
0.00683781
0.00794739
0.0372864
0.0161244
0.0240684
0.0429522
0.00859361
0.0108884
0.0362536
0.0133237
0.00986847
0.00759965
0.033695
0.0844475
0.178669
0.00502841
0.00678308
0.0274603
0.00573686
0.007955
0.945773
0.00563104
0.00673531
0.0171334
0.0168445
0.00585001
0.0282949
0.0489726
0.00506455
0.619914
0.559551
0.00789804
0.0071201
0.0615011
0.180844
0.0104495
0.00811363
0.00671416
0.00839127
0.00752554
0.0819033
0.00761841
0.00846372
0.151356
0.0358451
0.00731516
0.00770432
0.00757722
0.00673497
0.00858182
0.00725527
0.00853353
0.00703288
0.00879377
0.00803465
0.0185663
0.00818559
0.0555801
0.00770136
0.0209444
0.00838711
0.00788268
0.0697568
0.203787
0.00705293
0.00780652
0.00626308
0.00738812
0.00826438
0.00898808
0.0063874
0.00741779
0.00619467
0.00749712
0.0269294
0.00508919
0.0468195
0.00848598
0.0564156
0.00788391
0.00669203
0.00893674
0.00827436
0.00801982
0.212666
0.00758597
0.0431909
0.00789959
0.00799799
0.424118
0.00845178
0.00855258
0.113663
0.10328
0.0305775
0.0075573
0.0199
0.00788654
0.0975518
0.00612843
0.114569
0.00736615
0.00590017
0.0236038
0.00763804
0.0321274
0.00696339
0.0153469
0.0181074
0.00822099
0.0100059
0.00767695
0.153421
0.014657
0.00470202
0.0350641
0.00642155
0.00594468
0.00840193
0.0104278
0.0249348
0.00752397
0.00811375
0.0433941
0.00686819
0.00683091
0.00689702
0.00519013
0.00789668
0.0199025
0.0254494
0.00707543
0.018259
0.00798012
0.00676587
0.00701379
1.07213
0.00737553
0.00748057
0.0216045
0.0321515
0.00820596
0.00706163
0.028972
0.010565
0.00661344
0.00725906
0.00670823
0.0321075
0.0075494
0.00693383
0.0878515
0.00714726
0.00830127
0.00731262
0.00693131
0.00804711
0.0136151
0.00764363
0.0371497
0.00545092
0.0134111
0.00812971
0.00484429
0.0272947
0.0069115
0.00710765
0.0076549
0.00735325
0.0387203
0.0136594
0.00487636
0.00845648
0.00738814
0.27003
0.00771959
0.0069459
1.80679
0.00673712
0.00706691
0.00694989
0.00695477
0.00645802
0.00629504
0.0109207
0.00503535
0.0291239
0.00706592
0.00759519
0.0124288
0.00521941
0.00748356
0.00645159
0.00560917
0.00730644
0.0509601
0.00855933
0.015239
0.00748971
0.00689417
0.00627327
0.00588279
0.0130164
0.007955
0.00721091
0.00672259
0.0075669
0.00837571
0.0445009
0.0403644
0.0634515
0.0098057
0.0445267
0.00676056
0.00757188
0.00746755
0.329411
0.00727584
0.00572842
0.378924
0.00692331
0.0792064
0.125266
0.00687113
0.00809989
0.00705495
0.00526066
0.00498608
0.00684182
0.00833908
0.00774808
0.0338198
0.00507125
0.0343613
0.00780885
0.0332041
0.00999398
0.949388
0.0088635
0.00915775
0.00504027
0.00828557
0.00688862
0.0181044
0.0079027
0.0111963
0.00498701
0.0110536
0.00524872
0.028356
0.0142975
0.023656
0.0864179
0.00780127
0.178543
0.00833292
0.00645884
0.00599228
0.0305187
0.00840339
0.525177
0.00781221
0.0248669
0.338118
0.00501797
0.105115
0.0584555
0.0366076
0.00739398
0.00788287
0.00741405
0.00726186
0.00765885
0.00620229
0.00697522
0.0212897