/*--------------------------------*- C++ -*----------------------------------*\
| =========                 |                                                 |
| \\      /  F ield         | OpenFOAM: The Open Source CFD Toolbox           |
|  \\    /   O peration     | Version:  3.0.1                                 |
|   \\  /    A nd           | Web:      www.OpenFOAM.org                      |
|    \\/     M anipulation  |                                                 |
\*---------------------------------------------------------------------------*/
FoamFile
{
    version     2.0;
    format      ascii;
    class       volScalarField;
    location    "0";
    object      yPlus;
}
// * * * * * * * * * * * * * * * * * * * * * * * * * * * * * * * * * * * * * //

dimensions      [0 0 0 0 0 0 0];

internalField   uniform 0;

boundaryField
{
    FrontAndBack
    {
        type            empty;
    }
    patch1
    {
        type            calculated;
        value           nonuniform 0();
    }
    patch2
    {
        type            calculated;
        value           nonuniform List<scalar> 
98
(
0.98032
0.975049
0.97196
0.97894
0.999156
1.01894
1.03247
1.04564
1.05264
1.05734
1.06707
1.07529
1.08445
1.09704
1.10587
1.11786
1.13173
1.14504
1.15766
1.16857
1.17978
1.18802
1.19796
1.20783
1.21556
1.22164
1.2252
1.22818
1.23037
1.23099
1.22798
1.22391
1.21825
1.20864
1.19535
1.17847
1.16022
1.13833
1.11492
1.0855
1.0474
1.00756
0.958959
0.903364
0.84108
0.769045
0.696973
0.804808
1.01445
0.982898
0.983613
0.979338
0.967634
0.948414
0.927827
0.907051
0.889089
0.88325
0.884523
0.889014
0.90662
0.932597
0.953402
0.977957
1.01071
1.03943
1.06668
1.09483
1.12046
1.14307
1.16392
1.18399
1.20163
1.21375
1.22157
1.22628
1.22773
1.22442
1.2131
1.19828
1.17844
1.15358
1.12505
1.09005
1.04708
0.997796
0.945102
0.886311
0.822728
0.750355
0.673366
0.592143
0.502296
0.405678
0.306107
0.217931
0.688108
0.952668
)
;
    }
    patch3
    {
        type            calculated;
        value           nonuniform 0();
    }
    Shaft
    {
        type            calculated;
        value           nonuniform 0();
    }
    Inlet
    {
        type            calculated;
        value           nonuniform 0();
    }
    Lat-Wall
    {
        type            calculated;
        value           nonuniform List<scalar> 
26
(
1279.12
1070.36
1295.67
1173.89
946.349
804.582
1323.53
946.349
1074.34
1112.89
1193.57
1313.29
1227.87
630.526
1180.11
894.785
915.088
1057.88
901.672
677.484
934.453
856.414
863.435
589.249
627.977
868.847
)
;
    }
    Outlet
    {
        type            calculated;
        value           uniform 0;
    }
    AMI-St
    {
        type            cyclicAMI;
        value           uniform 0;
    }
    AMI-Rt
    {
        type            cyclicAMI;
        value           uniform 0;
    }
    procBoundary1to0
    {
        type            processor;
        value           uniform 0;
    }
    procBoundary1to3
    {
        type            processor;
        value           uniform 0;
    }
}


// ************************************************************************* //
