/*--------------------------------*- C++ -*----------------------------------*\
| =========                 |                                                 |
| \\      /  F ield         | OpenFOAM: The Open Source CFD Toolbox           |
|  \\    /   O peration     | Version:  3.0.1                                 |
|   \\  /    A nd           | Web:      www.OpenFOAM.org                      |
|    \\/     M anipulation  |                                                 |
\*---------------------------------------------------------------------------*/
FoamFile
{
    version     2.0;
    format      ascii;
    class       volScalarField;
    location    "0.676485";
    object      k;
}
// * * * * * * * * * * * * * * * * * * * * * * * * * * * * * * * * * * * * * //

dimensions      [0 2 -2 0 0 0 0];

internalField   nonuniform List<scalar> 
21246
(
0.790893
1.22806
0.806355
0.551107
0.346641
0.212263
0.133906
0.0907106
0.0672077
0.0535799
0.0447493
0.745472
1.08856
0.8317
0.611455
0.405934
0.251835
0.156891
0.102671
0.0733386
0.0571019
0.0470531
0.648173
0.867615
0.790696
0.624837
0.447478
0.290993
0.179813
0.116514
0.0812959
0.0620524
0.0507748
0.522798
0.712574
0.726984
0.613848
0.466531
0.320339
0.205145
0.130479
0.0900847
0.0679858
0.0555048
0.393922
0.613326
0.664675
0.596148
0.477191
0.343728
0.228364
0.147964
0.100453
0.0747188
0.0610826
0.279132
0.539469
0.610209
0.577341
0.484889
0.365489
0.252354
0.167149
0.113537
0.0833847
0.0674054
0.186196
0.47862
0.565345
0.558298
0.489423
0.385498
0.277321
0.18892
0.129105
0.0938381
0.075017
0.130506
0.446234
0.539129
0.543097
0.491271
0.402456
0.301709
0.212571
0.147415
0.106546
0.0838816
0.127437
0.443493
0.538723
0.539671
0.494883
0.417257
0.324569
0.236985
0.168098
0.121763
0.094496
0.125702
0.429885
0.552484
0.554243
0.507536
0.43364
0.346608
0.261494
0.190527
0.139415
0.107202
0.107439
0.360382
0.539363
0.576555
0.531868
0.455372
0.369368
0.285818
0.213865
0.159054
0.122059
0.0870912
0.277581
0.480129
0.578108
0.558382
0.482026
0.393721
0.309856
0.237292
0.17994
0.138867
0.0707845
0.214907
0.392005
0.535997
0.567314
0.5063
0.418034
0.333132
0.260105
0.201285
0.157123
0.0587112
0.166291
0.298835
0.453875
0.541108
0.515284
0.43663
0.353404
0.281076
0.22209
0.175919
0.0509934
0.134593
0.224997
0.359275
0.48038
0.49897
0.441778
0.366355
0.297753
0.240607
0.193971
0.0462782
0.115961
0.176918
0.274285
0.398504
0.456059
0.427951
0.367614
0.307273
0.25474
0.209108
0.0423957
0.102778
0.145677
0.211827
0.310073
0.391789
0.393946
0.354106
0.306706
0.26182
0.218752
0.0388514
0.0923911
0.122699
0.169583
0.237119
0.313803
0.34374
0.325584
0.294265
0.259424
0.220887
0.0359717
0.0843358
0.105301
0.13936
0.185167
0.241313
0.283356
0.285881
0.271108
0.248383
0.216066
0.034365
0.0789897
0.0933076
0.118132
0.14894
0.187011
0.224255
0.241701
0.240896
0.231131
0.207946
0.0336342
0.0744099
0.0847088
0.103333
0.124588
0.149963
0.177618
0.197917
0.204491
0.203931
0.190677
0.0322991
0.0703313
0.0769598
0.0928013
0.109264
0.127445
0.145337
0.159412
0.165804
0.167502
0.161305
0.0332874
0.0669907
0.074876
0.0920358
0.105908
0.118322
0.128311
0.135488
0.139522
0.142534
0.142538
0.0668976
0.0718443
0.0637917
0.0734661
0.0891628
0.104623
0.117885
0.128966
0.13819
0.145629
0.149883
0.754917
0.972644
0.738697
0.476137
0.294967
0.185136
0.121107
0.0848066
0.0642502
0.051769
0.0432064
0.525698
0.756129
0.626269
0.450659
0.296431
0.191561
0.126278
0.088
0.0661206
0.0529477
0.0440299
0.460283
0.657561
0.567374
0.452681
0.318325
0.209468
0.137213
0.0942593
0.0699007
0.0555637
0.0460445
0.420332
0.581309
0.511003
0.433787
0.324102
0.222908
0.148997
0.102112
0.0748356
0.0590776
0.0489796
0.392183
0.513561
0.466815
0.405983
0.311959
0.222677
0.154064
0.108432
0.0806305
0.0639291
0.0532846
0.369963
0.459332
0.432245
0.382668
0.30043
0.219306
0.154737
0.110767
0.0834129
0.0667925
0.0563567
0.351272
0.417483
0.405132
0.363649
0.291039
0.217523
0.156924
0.114101
0.0863928
0.0690387
0.0583277
0.335425
0.385232
0.38408
0.34957
0.285301
0.218637
0.161704
0.119702
0.0909538
0.0718553
0.0596393
0.321679
0.360107
0.368077
0.340444
0.283948
0.223785
0.170314
0.128897
0.0986762
0.0771347
0.0626253
0.309238
0.339912
0.356105
0.335204
0.286939
0.233232
0.183379
0.142765
0.110968
0.0862119
0.0677333
0.297416
0.322773
0.346518
0.332787
0.293514
0.246473
0.20094
0.161854
0.128921
0.100715
0.0770278
0.285573
0.307015
0.337654
0.331778
0.3018
0.262185
0.222055
0.185754
0.152838
0.121824
0.0925801
0.273357
0.291166
0.327992
0.330269
0.309848
0.278478
0.244925
0.212973
0.181787
0.14949
0.115997
0.260374
0.274672
0.315617
0.325542
0.314669
0.292265
0.266362
0.240238
0.212767
0.181676
0.146085
0.246034
0.257057
0.300056
0.316513
0.314441
0.300951
0.283034
0.263499
0.241016
0.213037
0.177858
0.230067
0.237881
0.280891
0.302409
0.307921
0.302681
0.292481
0.279701
0.262927
0.239395
0.206888
0.212333
0.217026
0.25813
0.283002
0.294553
0.296442
0.293215
0.28684
0.275949
0.257615
0.229674
0.192988
0.194809
0.232456
0.258908
0.274825
0.28248
0.28519
0.284488
0.279139
0.266165
0.243531
0.172703
0.171918
0.205081
0.231576
0.250319
0.262377
0.269878
0.273863
0.273276
0.265353
0.248208
0.152646
0.149281
0.177534
0.202966
0.2233
0.238536
0.249663
0.257188
0.260291
0.256724
0.244692
0.134263
0.12783
0.151214
0.174913
0.195856
0.21311
0.226621
0.236416
0.241992
0.241988
0.234372
0.119043
0.108178
0.126809
0.148251
0.16883
0.186842
0.201421
0.212238
0.219088
0.221661
0.218247
0.108168
0.089913
0.10335
0.121802
0.141185
0.159171
0.17408
0.185267
0.192816
0.19711
0.19736
0.107407
0.075946
0.0875998
0.105503
0.125082
0.142306
0.155067
0.163618
0.169196
0.172842
0.174087
0.697413
1.00388
0.822396
0.603079
0.404266
0.252991
0.153827
0.0928796
0.055638
0.0331053
0.0200572
0.530872
0.780374
0.72297
0.558946
0.384733
0.2461
0.151191
0.0909656
0.0540066
0.0318357
0.0190596
0.392508
0.661063
0.651054
0.539461
0.389791
0.256254
0.158963
0.0953439
0.0559618
0.0325587
0.019417
0.317906
0.57606
0.596029
0.518213
0.390916
0.264968
0.167447
0.101642
0.060127
0.0350579
0.0207483
0.267865
0.474394
0.517617
0.482542
0.386718
0.273899
0.177098
0.108275
0.0638829
0.0367205
0.0210943
0.241764
0.411151
0.451927
0.431407
0.359229
0.264559
0.176417
0.109977
0.0657027
0.0383068
0.0226
0.226326
0.369466
0.406706
0.389555
0.327103
0.244892
0.167212
0.107041
0.0654581
0.0387599
0.0229144
0.216343
0.338957
0.371741
0.355554
0.300073
0.227082
0.157508
0.10274
0.0640854
0.0387411
0.023731
0.208899
0.314869
0.343407
0.327409
0.276724
0.21079
0.147942
0.0980726
0.0623653
0.0384627
0.0239082
0.202432
0.294589
0.31997
0.304433
0.257549
0.197124
0.139617
0.0937692
0.0605645
0.0378836
0.0235904
0.196746
0.277206
0.300401
0.285665
0.242044
0.186064
0.132776
0.0900998
0.0588838
0.0372505
0.0236725
0.192419
0.262626
0.284086
0.270176
0.229399
0.177138
0.127286
0.0871495
0.0575371
0.0367874
0.0236193
0.189019
0.250149
0.270439
0.257555
0.219385
0.17028
0.123211
0.0850651
0.0566875
0.0365828
0.0235678
0.185959
0.23913
0.258958
0.247557
0.211951
0.165551
0.120653
0.0839421
0.0563785
0.0366364
0.0238405
0.183763
0.229648
0.249331
0.239636
0.206593
0.162633
0.119477
0.083753
0.0566256
0.0369613
0.0240154
0.182332
0.221272
0.241295
0.23366
0.203308
0.161625
0.119818
0.0846251
0.0575317
0.0376355
0.0244111
0.181403
0.213534
0.234553
0.229605
0.202309
0.16284
0.121986
0.0868003
0.0592592
0.0387533
0.0250422
0.181293
0.206394
0.228874
0.227252
0.203525
0.166418
0.126227
0.0905278
0.0620232
0.0404781
0.0259399
0.182336
0.199748
0.2236
0.225758
0.206553
0.172527
0.133031
0.096307
0.0661866
0.0431052
0.0274412
0.184738
0.193208
0.218503
0.22468
0.210551
0.180217
0.141767
0.103954
0.0719866
0.0470793
0.0298725
0.188904
0.186746
0.213192
0.223626
0.214982
0.188938
0.152153
0.11362
0.0798023
0.0529342
0.0338526
0.196574
0.179241
0.2077
0.221747
0.218551
0.197359
0.163374
0.125298
0.0902941
0.0615963
0.0403676
0.206504
0.172068
0.199614
0.218854
0.220749
0.204552
0.174631
0.138829
0.104081
0.0741851
0.0508102
0.229637
0.181336
0.208576
0.212532
0.214084
0.20344
0.18099
0.151433
0.120172
0.0910713
0.0665434
0.65623
0.932364
0.82087
0.664027
0.497686
0.321279
0.194392
0.115962
0.0678686
0.0394599
0.0234361
0.529299
0.692314
0.73147
0.663163
0.546252
0.397777
0.2596
0.153551
0.0897057
0.0514651
0.029755
0.292908
0.572503
0.644524
0.62753
0.555097
0.440526
0.312435
0.197912
0.117466
0.0687643
0.0398314
0.272542
0.589681
0.645948
0.617401
0.557209
0.4643
0.350853
0.23789
0.147945
0.0898226
0.0543936
0.30291
0.644577
0.793449
0.709907
0.601423
0.494686
0.383506
0.27303
0.178386
0.111791
0.0715573
0.313644
0.6265
0.956704
0.963094
0.762939
0.577594
0.431241
0.309375
0.20874
0.13463
0.0880314
0.322
0.602268
0.943589
1.21414
1.06212
0.764072
0.526765
0.361017
0.24246
0.1586
0.105329
0.330373
0.582328
0.90793
1.26584
1.36813
1.06096
0.701875
0.448123
0.287464
0.185465
0.123027
0.338487
0.562199
0.862053
1.22208
1.5341
1.39919
0.962908
0.587854
0.353715
0.218621
0.142301
0.346818
0.543462
0.812549
1.14646
1.50455
1.61945
1.24688
0.772252
0.444687
0.26075
0.163736
0.355669
0.529532
0.764981
1.05558
1.39988
1.67391
1.4743
0.965648
0.550442
0.310195
0.187414
0.365544
0.521446
0.723274
0.959944
1.26194
1.58127
1.57778
1.11498
0.646399
0.358231
0.210877
0.376925
0.522208
0.690666
0.870876
1.11421
1.42365
1.55833
1.18365
0.705063
0.392656
0.23
0.389935
0.529653
0.666466
0.795393
0.972782
1.2295
1.42983
1.16049
0.71025
0.404217
0.241923
0.405526
0.544881
0.651158
0.734334
0.847698
1.01784
1.2081
1.07164
0.661756
0.391323
0.246058
0.422032
0.565932
0.640697
0.679094
0.733894
0.824878
0.922159
0.917527
0.597995
0.362878
0.245028
0.440735
0.59588
0.638731
0.63221
0.633644
0.664667
0.706081
0.708154
0.54298
0.341767
0.246483
0.463655
0.64053
0.654811
0.606921
0.566072
0.559584
0.571978
0.569969
0.494973
0.353713
0.25534
0.494686
0.709592
0.704949
0.621567
0.548926
0.522609
0.526453
0.529753
0.498019
0.412911
0.300673
0.540897
0.823644
0.824962
0.713103
0.609559
0.568377
0.573064
0.584314
0.569869
0.508494
0.361895
0.609437
1.00156
1.04439
0.930527
0.795298
0.719663
0.65655
0.615775
0.568718
0.469953
0.334637
0.630606
1.09956
1.16663
1.08035
0.857917
0.584122
0.477793
0.390933
0.318822
0.252512
0.192167
0.447297
0.721789
0.706783
0.557799
0.421484
0.326651
0.265893
0.221045
0.18404
0.150893
0.12
0.27563
0.219939
0.201416
0.194267
0.192758
0.190282
0.181898
0.165665
0.143004
0.117052
0.0912653
0.223572
0.218137
0.0986755
0.0463674
0.025023
0.0170784
0.0140139
0.0126166
0.0118288
0.0112553
0.0107247
0.269099
0.341162
0.0952225
0.0549599
0.027854
0.0181606
0.0140755
0.0122283
0.0112168
0.010537
0.00999208
0.312666
0.382959
0.0985397
0.0641647
0.0295049
0.0193082
0.0143212
0.0120728
0.0108323
0.0100182
0.00935908
0.34983
0.359482
0.103353
0.0679406
0.0298369
0.0202171
0.0145046
0.0119929
0.0105768
0.00964784
0.00889844
0.376985
0.332109
0.105443
0.0666868
0.029866
0.0207172
0.0145375
0.0119271
0.0103906
0.00939169
0.00860596
0.394071
0.31761
0.106442
0.0641108
0.0300054
0.02086
0.0144708
0.0118523
0.0102371
0.00920434
0.00841584
0.401645
0.31369
0.108839
0.0620399
0.0303341
0.0207893
0.0143824
0.0117677
0.0101009
0.00905138
0.00825166
0.400422
0.315642
0.112563
0.0613551
0.030832
0.0206285
0.0143245
0.0116756
0.00997751
0.00892301
0.00813686
0.391925
0.321253
0.117989
0.0623397
0.0318049
0.0205308
0.0143346
0.0115868
0.0098713
0.00881157
0.00802961
0.377565
0.329721
0.127882
0.0653849
0.0335416
0.020871
0.0145329
0.0115552
0.00979369
0.00871514
0.00793129
0.357717
0.341875
0.141585
0.0706088
0.036157
0.0216997
0.0149282
0.011613
0.0097788
0.00864971
0.00785482
0.33329
0.358361
0.157787
0.0776653
0.0396263
0.0230641
0.0155389
0.0117892
0.00981845
0.00861334
0.00779289
0.30622
0.378156
0.177928
0.0873503
0.044422
0.0251843
0.0164822
0.0121471
0.00993875
0.00862003
0.00775198
0.277881
0.400088
0.204202
0.101255
0.0514325
0.0284789
0.0179787
0.0127927
0.0101923
0.00869502
0.00774526
0.249441
0.427199
0.236286
0.119745
0.0610877
0.0332603
0.0202562
0.0138521
0.0106535
0.00887723
0.00779474
0.223554
0.45983
0.276758
0.144961
0.074772
0.0403201
0.0237791
0.0155789
0.0114647
0.00924323
0.00794149
0.203096
0.496517
0.32921
0.180811
0.0951599
0.0512349
0.029451
0.0184782
0.0129059
0.00994489
0.00826849
0.191642
0.541388
0.397123
0.231657
0.125726
0.068355
0.0387603
0.023456
0.0155137
0.0112894
0.00894892
0.192454
0.593609
0.484356
0.304876
0.173067
0.096328
0.0547387
0.0324243
0.020462
0.0139774
0.010389
0.20399
0.643254
0.58759
0.40902
0.248314
0.144203
0.0837663
0.0496391
0.0304972
0.0197328
0.0136401
0.216574
0.669717
0.685778
0.543147
0.365193
0.228091
0.139226
0.0849202
0.0524199
0.0330993
0.021646
0.226665
0.661549
0.745618
0.679948
0.525553
0.368206
0.245331
0.159632
0.102893
0.0663027
0.0429858
0.20709
0.601219
0.69376
0.709359
0.643422
0.528001
0.40245
0.292094
0.205452
0.141947
0.0966419
0.279496
0.603729
0.673084
0.685301
0.630105
0.551261
0.462826
0.374921
0.294515
0.225814
0.168978
0.184134
0.194971
0.0961462
0.0436361
0.0238341
0.01694
0.0144424
0.0133812
0.0128488
0.0125193
0.0122508
0.210133
0.206387
0.0768656
0.043868
0.0263961
0.0188976
0.0157479
0.014459
0.0139054
0.013662
0.0135471
0.238151
0.220535
0.0686582
0.0466369
0.0284354
0.0210936
0.017938
0.0166582
0.0161498
0.015961
0.0158967
0.261813
0.199961
0.0649375
0.0480381
0.0288936
0.0219481
0.018984
0.01808
0.0181097
0.0185979
0.0193287
0.279251
0.170529
0.0624935
0.0470995
0.0286356
0.0223464
0.0194868
0.0187509
0.0190262
0.0198839
0.0211367
0.292125
0.146594
0.0601117
0.0449483
0.0281047
0.0224731
0.0196754
0.0190135
0.0193949
0.0204852
0.0221757
0.302309
0.129271
0.0577071
0.0425901
0.027517
0.0224366
0.0196534
0.0190111
0.0193616
0.0204546
0.0221943
0.30973
0.116473
0.0552925
0.0404271
0.0269356
0.0222489
0.0195095
0.0188438
0.019087
0.0200621
0.0217091
0.316172
0.106839
0.0530752
0.0385968
0.0264656
0.0219606
0.0193048
0.018572
0.0186687
0.0194404
0.0207824
0.322834
0.0997347
0.0511996
0.0371438
0.026155
0.0216641
0.0190734
0.0182474
0.0181875
0.0187388
0.0197307
0.330772
0.0948983
0.049811
0.0361211
0.0259889
0.02143
0.0188557
0.0179185
0.0177096
0.0180721
0.0188115
0.339316
0.0915444
0.0487493
0.0354404
0.0259584
0.0212799
0.0186834
0.0176238
0.0172804
0.0174975
0.0180909
0.347442
0.0905416
0.0481259
0.0351032
0.0261254
0.0212478
0.0185986
0.017393
0.0169272
0.0170302
0.0175654
0.354446
0.0925304
0.0483922
0.0351166
0.0265936
0.0214251
0.0186801
0.0172836
0.0166997
0.0167035
0.0172178
0.360401
0.0961382
0.0493294
0.0354465
0.0273083
0.021851
0.0189528
0.0173322
0.016614
0.0165152
0.0169973
0.365469
0.101608
0.0511548
0.0361928
0.0282766
0.0225864
0.0194679
0.0175921
0.016699
0.0164714
0.0168719
0.369759
0.109335
0.0542523
0.0375458
0.02955
0.0236945
0.0202973
0.018137
0.01701
0.0166029
0.0168493
0.373305
0.119137
0.0589526
0.0397577
0.0312292
0.0252297
0.021524
0.0190597
0.0176379
0.0169801
0.0169712
0.376136
0.131033
0.0657461
0.0432639
0.0335634
0.0272898
0.0232496
0.0204736
0.0187141
0.0177344
0.0173836
0.37829
0.145281
0.0753617
0.0488076
0.0370809
0.0301287
0.0256402
0.0225244
0.0204112
0.0190682
0.0183207
0.37976
0.161877
0.0886996
0.0575437
0.0427852
0.0343819
0.0290773
0.0254608
0.0229456
0.0212251
0.02009
0.380498
0.18057
0.106666
0.0711174
0.0524066
0.0414372
0.0345037
0.0298599
0.0266512
0.0244169
0.0228667
0.379853
0.204427
0.132396
0.0928311
0.0693692
0.0545058
0.0446201
0.0378126
0.0330282
0.0296358
0.0272002
0.337443
0.251415
0.197389
0.161204
0.140451
0.128494
0.12196
0.117836
0.114332
0.110492
0.10544
0.0473947
0.0196566
0.0158591
0.0168206
0.023319
0.0532862
0.0793398
0.0968022
0.10858
0.0652377
0.0405298
0.0268658
0.027097
0.0532568
0.0828364
0.110519
0.137996
0.162267
0.0827892
0.0532862
0.0349567
0.0362903
0.0711545
0.106941
0.134022
0.152337
0.164853
0.0907714
0.0626521
0.0416488
0.0449639
0.0833538
0.115207
0.134144
0.145012
0.152559
0.0762311
0.0938117
0.104261
0.111282
0.113727
0.114594
0.114104
0.120636
0.1184
0.0920661
0.116793
0.139146
0.156038
0.167236
0.180246
0.193302
0.190263
0.179694
0.110472
0.129883
0.144634
0.157286
0.166592
0.17817
0.191001
0.187114
0.176949
0.112207
0.124425
0.134541
0.142493
0.144599
0.150012
0.162224
0.160531
0.158487
0.00442748
0.00460123
0.00461675
0.00248757
0.0464778
0.00438361
0.0110608
0.00454869
0.00437613
0.00425333
0.0456544
0.00455896
0.0037404
0.00330062
0.00448398
0.00430356
0.00330452
0.00248017
0.00429308
0.00424907
0.00411241
0.00472966
0.00466581
0.0177288
0.00449245
0.00331108
0.00378885
0.0106698
0.062683
0.0485215
0.00339529
0.00410675
0.00304138
0.0045363
0.00427696
0.00459197
0.0165227
0.00448757
0.00295834
0.00438981
0.00592484
0.00454557
0.00566162
0.00465891
0.0601732
0.0118043
0.00312388
0.0185083
0.00429965
0.00434159
0.048381
0.00439571
0.0288687
0.00568964
0.00433282
0.00411926
0.00464369
0.00440139
0.0646624
0.00955601
0.00513402
0.0271289
0.053162
0.00858373
0.00753959
0.00426107
0.051802
0.00434962
0.00460155
0.00424541
0.00329173
0.00431553
0.00324656
0.00458896
0.00668676
0.00427859
0.00405048
0.00459828
0.00934428
0.073582
0.051337
0.00680587
0.00449545
0.00462627
0.00438251
0.00329548
0.0854247
0.026704
0.00312753
0.0188303
0.0045429
0.00441216
0.00674355
0.00439646
0.0724072
0.0311087
0.00591736
0.00398026
0.0034596
0.00438193
0.00466985
0.0178118
0.00417203
0.00402416
0.00290473
0.00455331
0.00305385
0.00464666
0.00434016
0.00416197
0.00450898
0.00456063
0.00430981
0.00245424
0.00458027
0.00442343
0.0043774
0.00431734
0.00450033
0.00414153
0.00244506
0.0045198
0.00513487
0.00325092
0.0108003
0.0041547
0.0579676
0.00305045
0.00321801
0.00352598
0.00445201
0.00930667
0.0176742
0.00428494
0.00461395
0.00457473
0.00378237
0.00445786
0.0493803
0.00447029
0.00575571
0.00411312
0.0245761
0.00402555
0.00437006
0.00332076
0.00443241
0.0043351
0.00431641
0.00424943
0.00428709
0.00441854
0.00356144
0.00450284
0.0025559
0.00309817
0.00395898
0.00376129
0.00320353
0.0043614
0.00364088
0.00427222
0.00430603
0.00443098
0.0538077
0.00577378
0.00357818
0.00424115
0.00424882
0.00746416
0.00313418
0.00309948
0.00447313
0.00405721
0.00409628
0.00396361
0.00316304
0.003596
0.0611237
0.00392963
0.00432824
0.00451215
0.00465995
0.0128089
0.0045045
0.0043091
0.00426676
0.00430325
0.0045891
0.0126192
0.00418828
0.00341791
0.00427403
0.00590807
0.00460971
0.00439978
0.00435515
0.00353841
0.00361359
0.00467917
0.00326239
0.00434135
0.00405834
0.00348398
0.00462748
0.0268655
0.00438426
0.00321063
0.00434869
0.00433936
0.0225333
0.00439445
0.00401382
0.00423226
0.00449124
0.0148822
0.00451068
0.00361814
0.00428991
0.0032039
0.00292836
0.002376
0.00565947
0.00451531
0.00321153
0.00440631
0.00946377
0.00564951
0.00393368
0.0241668
0.00395752
0.00425797
0.0042811
0.00451022
0.00352202
0.0713451
0.0524946
0.00464648
0.00456318
0.00455104
0.00362575
0.0107186
0.00401513
0.00563051
0.00465756
0.00470529
0.00451811
0.00358305
0.0285185
0.0606345
0.00356943
0.0227043
0.00520561
0.00430207
0.00395389
0.00436148
0.0041386
0.00447339
0.00319147
0.00426047
0.00339497
0.00453627
0.00432692
0.00457549
0.00450675
0.00302207
0.00411308
0.00486413
0.00559281
0.0037231
0.0212951
0.00432265
0.00433432
0.00304856
0.004391
0.00432912
0.00331128
0.00444771
0.00428037
0.00320464
0.00435372
0.00460003
0.051624
0.049086
0.00395474
0.00439763
0.0842179
0.0045912
0.00425226
0.00548373
0.0046181
0.0112819
0.00426505
0.00288831
0.00467901
0.00435381
0.00423245
0.0045663
0.00427327
0.00334016
0.0044468
0.00251209
0.00438332
0.0489501
0.00415005
0.00416433
0.00459944
0.0160611
0.00450997
0.00435112
0.00713709
0.00456552
0.00409456
0.00304723
0.00448407
0.00410938
0.00370806
0.00329366
0.00413044
0.00449698
0.00426041
0.0394661
0.00435672
0.00338957
0.00570185
0.00418772
0.00445184
0.00371741
0.0042417
0.0293769
0.00444956
0.0537351
0.00387227
0.0046493
0.00357874
0.0419576
0.00366324
0.00458768
0.00447391
0.00396889
0.00399514
0.0214256
0.00433604
0.0055676
0.0193724
0.0163084
0.00597607
0.00437784
0.0141158
0.0622611
0.00843796
0.00391253
0.00374041
0.00416788
0.00394213
0.00468916
0.00294832
0.00399937
0.00466009
0.0373736
0.0038616
0.00333674
0.00451823
0.00451187
0.00431223
0.00328633
0.00308805
0.00288852
0.0105439
0.0046504
0.00444101
0.0126518
0.0347022
0.00321019
0.00389012
0.00461009
0.00391716
0.0042589
0.00437953
0.00425681
0.0410604
0.0043869
0.00320857
0.00441316
0.00340618
0.0524031
0.00243918
0.00319775
0.0102614
0.00344049
0.00442878
0.00535688
0.00310591
0.00460768
0.0534265
0.00750477
0.00447861
0.00429106
0.00462073
0.00503029
0.00317048
0.00441032
0.0046614
0.00569993
0.00294621
0.0064834
0.0079451
0.00734787
0.00433881
0.039223
0.00424043
0.00427887
0.00376198
0.00370007
0.00414419
0.00407731
0.00422241
0.00473015
0.00314448
0.00496803
0.0315809
0.00321523
0.0124073
0.00406579
0.00398463
0.0041481
0.00455286
0.00481749
0.00449491
0.00871447
0.00448598
0.00321137
0.00342899
0.00410576
0.00424752
0.00295206
0.0240517
0.0476238
0.00326163
0.00468841
0.00395977
0.0855392
0.00336372
0.00247116
0.00420292
0.0033755
0.0140249
0.00344097
0.00434688
0.00395059
0.00444106
0.00461342
0.00449947
0.00430452
0.00443835
0.0111898
0.00314219
0.00327274
0.00490581
0.00459099
0.00434283
0.0600786
0.00320667
0.00394563
0.00424874
0.0081459
0.00759495
0.00545505
0.00546768
0.00442928
0.0039349
0.00316996
0.00422345
0.00507168
0.00422133
0.00458803
0.00432973
0.00557887
0.00362276
0.00427218
0.00444987
0.00412728
0.0180202
0.00429634
0.00464726
0.00334832
0.0315375
0.00404814
0.00294983
0.00434185
0.00333637
0.00439807
0.00422911
0.00440159
0.00335916
0.00326663
0.00426454
0.00339671
0.00400151
0.00477116
0.00375195
0.00370668
0.00454125
0.00453444
0.0352971
0.00323921
0.00292774
0.0044605
0.0165462
0.00461932
0.0359849
0.00434787
0.00350198
0.00508464
0.00470767
0.0507263
0.00440026
0.00338569
0.00445244
0.00360557
0.0041206
0.00459823
0.00442715
0.00457427
0.00417215
0.039161
0.00451942
0.00435504
0.0118109
0.00443832
0.00912199
0.0042978
0.012814
0.00331129
0.00315939
0.00467884
0.00447612
0.00463423
0.00596102
0.00369206
0.0045021
0.00448813
0.00324303
0.0046155
0.00346155
0.00460573
0.0431754
0.00423666
0.00401246
0.00293678
0.00334287
0.0130634
0.0380214
0.00415964
0.00410897
0.00430599
0.00460775
0.00296105
0.00335185
0.00423655
0.00353087
0.0329044
0.0354155
0.00449124
0.00434208
0.0045966
0.0134443
0.0557513
0.0042285
0.00454429
0.00437172
0.0496522
0.00432562
0.0030183
0.00327607
0.00895026
0.0328418
0.00443005
0.00450901
0.00446322
0.00436778
0.00434087
0.00678089
0.00318637
0.0040973
0.00470028
0.0074244
0.00463708
0.00467344
0.0712366
0.00440737
0.00354332
0.00373354
0.004655
0.0119091
0.00396005
0.00362126
0.00421802
0.00443768
0.00449334
0.0272081
0.00296458
0.00391036
0.00425164
0.00450043
0.00661961
0.00425186
0.00447668
0.00420987
0.00429428
0.00316493
0.00292348
0.00459905
0.00567538
0.00401558
0.00526353
0.00429474
0.00967761
0.00426772
0.004456
0.028682
0.0301854
0.00438284
0.00439035
0.00378442
0.0041621
0.00433693
0.00565159
0.00460608
0.00416374
0.00329417
0.00290683
0.00382061
0.00315912
0.00318535
0.00556991
0.0269414
0.00490668
0.00602583
0.00353919
0.00346808
0.00462333
0.00348776
0.00462129
0.00416579
0.00578283
0.00393841
0.00421651
0.00428949
0.00343735
0.00556776
0.028215
0.00361144
0.00545613
0.00442402
0.00524919
0.00454989
0.00429946
0.00427119
0.00342606
0.00424898
0.00451836
0.00419298
0.0045945
0.00487525
0.0062069
0.0232675
0.00427119
0.00424749
0.00399187
0.00897934
0.00445425
0.0158496
0.00429779
0.00710651
0.0342283
0.00442897
0.00318736
0.00465991
0.00305357
0.00598399
0.00313875
0.0246112
0.00364841
0.00427625
0.00463649
0.00372777
0.00321692
0.00425622
0.0600162
0.00436974
0.00408049
0.00463272
0.00374614
0.00420333
0.00323702
0.00455724
0.00440049
0.00440541
0.00380608
0.00378772
0.00456221
0.00332736
0.00437491
0.00546975
0.00321367
0.00407819
0.00428978
0.00543553
0.00287509
0.00408862
0.00372525
0.00362333
0.00715061
0.00307494
0.011505
0.00446868
0.00334953
0.00449198
0.00442503
0.00662691
0.00436004
0.00337146
0.00329611
0.00432354
0.00416301
0.00413391
0.00392327
0.00458558
0.0540073
0.00484789
0.0412481
0.00413528
0.00397671
0.00945212
0.0113591
0.00449104
0.00348542
0.00371442
0.00295078
0.00452777
0.0033442
0.0323457
0.00454911
0.00923192
0.00351224
0.00467116
0.00681096
0.00437942
0.00423822
0.00422233
0.00337232
0.00436782
0.00320973
0.00457166
0.0030582
0.00430301
0.00291192
0.00319619
0.025595
0.00422065
0.00429155
0.0212051
0.0121651
0.00446155
0.003219
0.00385321
0.0036045
0.00519829
0.00380281
0.00424372
0.00459658
0.00294113
0.00500342
0.00429058
0.00437413
0.00441365
0.00585832
0.00371236
0.00469054
0.00448884
0.00454525
0.0323745
0.0383981
0.0036101
0.0045789
0.00335579
0.00433429
0.00455696
0.00457941
0.00462443
0.00448188
0.00462434
0.00316469
0.00518608
0.0108051
0.0030867
0.00423043
0.00442813
0.00450011
0.00376771
0.0328776
0.00459513
0.00407022
0.00352889
0.0162785
0.0208159
0.00467588
0.00391993
0.0042879
0.00443143
0.00446348
0.0104139
0.0042196
0.00456861
0.00430951
0.00901635
0.00399763
0.00390239
0.00455589
0.00409556
0.00649289
0.00375707
0.00456718
0.0031018
0.00411575
0.0038096
0.00430866
0.0046406
0.00428432
0.00246708
0.00287862
0.00343349
0.00460113
0.00419058
0.00460594
0.00433731
0.00459278
0.00887364
0.0034421
0.00882195
0.0149772
0.00515461
0.0045503
0.0508983
0.00466967
0.00429368
0.00518688
0.00448866
0.00441795
0.00441579
0.00307434
0.0226003
0.00311314
0.00441499
0.00374954
0.00442428
0.00468821
0.00434288
0.00438718
0.00428759
0.00449605
0.00455926
0.00435092
0.0659522
0.00437991
0.00425761
0.00435186
0.0182147
0.00429702
0.00450733
0.00517682
0.0621836
0.00426183
0.00450986
0.00288769
0.00370228
0.00465046
0.00454002
0.00418462
0.00400829
0.0184189
0.00459973
0.0116483
0.00289771
0.0273069
0.00298926
0.00458059
0.00325889
0.0056413
0.00444186
0.00450214
0.00448157
0.00460859
0.00396343
0.00954955
0.00426119
0.00559311
0.0507799
0.00365479
0.00393728
0.00580049
0.0046632
0.00456081
0.00314341
0.00290605
0.00329355
0.00439657
0.0270598
0.00430887
0.00334138
0.00431644
0.00315158
0.00312831
0.0033204
0.00353038
0.0041984
0.00452749
0.047268
0.00438932
0.0588132
0.00418792
0.00298315
0.00421786
0.00421075
0.0542844
0.00438262
0.00460334
0.00352371
0.0085249
0.00867285
0.00343076
0.00328591
0.00332897
0.0156334
0.0435115
0.00451993
0.00423466
0.0607292
0.00439804
0.00549625
0.00449628
0.0159653
0.00298739
0.00679097
0.00460501
0.00342272
0.00464507
0.00440539
0.00421642
0.00281445
0.0042692
0.00446077
0.00434369
0.00455705
0.00437873
0.00477675
0.0044655
0.00418292
0.00644914
0.00347782
0.00396255
0.00461052
0.00900568
0.00303032
0.00459951
0.00467552
0.00408826
0.00618398
0.0499549
0.00396977
0.00343888
0.00410342
0.00434846
0.00310077
0.00449828
0.00425189
0.0104114
0.00455433
0.0688311
0.00896012
0.0295795
0.00455277
0.00454916
0.00440432
0.0448317
0.00336132
0.00313519
0.00467578
0.00307888
0.0208718
0.00456328
0.00402779
0.00947983
0.00393169
0.0318136
0.00365875
0.00445415
0.00433121
0.00423135
0.00422342
0.00681977
0.00280183
0.0125907
0.0547057
0.00460176
0.0030624
0.0038428
0.00512662
0.0158416
0.00336438
0.00439328
0.00406609
0.00316574
0.00454481
0.00465841
0.00467891
0.00580731
0.00412214
0.00460932
0.00371839
0.00554613
0.00322655
0.00452533
0.00797847
0.00405491
0.00407612
0.00398947
0.00455646
0.00431216
0.00447933
0.0142919
0.00443338
0.0167245
0.00399784
0.00341898
0.00450697
0.00417812
0.00450353
0.00437741
0.00342008
0.0126341
0.00683231
0.0546505
0.009251
0.0448449
0.00420536
0.00433734
0.00254723
0.00462894
0.00325468
0.0216924
0.00430511
0.00491686
0.00388759
0.0287702
0.00419042
0.00319605
0.00455048
0.0511231
0.0046952
0.0347414
0.00416171
0.00465903
0.0050622
0.0101634
0.00417231
0.00535505
0.00410066
0.00444432
0.0202062
0.00558643
0.0243459
0.00350767
0.00252457
0.0123203
0.004638
0.00461053
0.00371449
0.00473379
0.00344086
0.00331942
0.00347509
0.0039059
0.00299188
0.0534672
0.00437574
0.00432946
0.0042121
0.00457454
0.00286202
0.00340292
0.00424246
0.00332557
0.0422234
0.00453925
0.0561229
0.00751569
0.00449432
0.00498682
0.00383809
0.003072
0.0031815
0.0270708
0.00442187
0.00452622
0.0542051
0.00437534
0.00458635
0.00355182
0.00454399
0.00452459
0.0303436
0.00454384
0.0322775
0.00397573
0.00400093
0.00429017
0.00430375
0.00901205
0.00325052
0.0119434
0.00444497
0.0028077
0.00560299
0.00307951
0.00306879
0.00528017
0.00551685
0.00424158
0.00918914
0.0157601
0.00406688
0.00432258
0.00351189
0.00381024
0.0046536
0.00351859
0.0503714
0.00425614
0.00468963
0.00450539
0.00404372
0.00291168
0.00322092
0.003291
0.0805659
0.00466229
0.00587831
0.00555678
0.0045762
0.00392475
0.0042464
0.00425463
0.0589356
0.00455108
0.0176275
0.0248332
0.00456606
0.00449523
0.0046454
0.0332153
0.0357338
0.0220361
0.00334673
0.0045677
0.00429624
0.00326759
0.0443903
0.00656643
0.00302767
0.00434221
0.00616208
0.0128852
0.00532464
0.00416091
0.0129379
0.0284683
0.00405218
0.00382586
0.004308
0.00436352
0.0321698
0.00322198
0.00369417
0.00460016
0.00468209
0.00411558
0.0487071
0.00365806
0.00290692
0.00877667
0.00624267
0.00437135
0.0143324
0.00597816
0.00462185
0.00305567
0.00301104
0.00412799
0.0611669
0.00453466
0.00442557
0.00425735
0.00553324
0.00310819
0.00435562
0.00445843
0.00461483
0.00456091
0.00468819
0.00329279
0.00442866
0.00737871
0.00416291
0.0045585
0.0490359
0.00445288
0.00352004
0.00356677
0.00425604
0.00351797
0.00533296
0.00452829
0.00456617
0.00448523
0.00304498
0.00449653
0.00428922
0.00440513
0.00351048
0.00613405
0.0031609
0.00702293
0.00430347
0.00610919
0.00413267
0.00467569
0.0043469
0.00458673
0.00315369
0.0041403
0.00326461
0.00412093
0.00421145
0.00450751
0.00447462
0.0321782
0.00546844
0.0155291
0.00468828
0.00293931
0.0615156
0.00324813
0.00283838
0.00439647
0.00548854
0.0159903
0.0050275
0.00318923
0.00511203
0.00377192
0.00308261
0.00450118
0.0683076
0.00309259
0.0041505
0.00410528
0.00399646
0.00361
0.00285236
0.00487393
0.00307398
0.0558342
0.0216277
0.00448657
0.00432805
0.0149442
0.0127355
0.00401599
0.00455114
0.00426676
0.0046295
0.00442607
0.00441654
0.00440149
0.00464796
0.0128309
0.00245527