/*--------------------------------*- C++ -*----------------------------------*\
| =========                 |                                                 |
| \\      /  F ield         | OpenFOAM: The Open Source CFD Toolbox           |
|  \\    /   O peration     | Version:  3.0.1                                 |
|   \\  /    A nd           | Web:      www.OpenFOAM.org                      |
|    \\/     M anipulation  |                                                 |
\*---------------------------------------------------------------------------*/
FoamFile
{
    version     2.0;
    format      ascii;
    class       surfaceScalarField;
    location    "0.109713";
    object      phi;
}
// * * * * * * * * * * * * * * * * * * * * * * * * * * * * * * * * * * * * * //

dimensions      [0 3 -1 0 0 0 0];

internalField   nonuniform List<scalar> 
32369
(
-7.02334e-06
1.87498e-05
-1.17264e-05
-1.28451e-05
1.71861e-05
-1.13642e-05
-2.0598e-05
2.00615e-05
-1.23087e-05
-2.83058e-05
2.13684e-05
-1.36606e-05
-3.6147e-05
2.34936e-05
-1.56523e-05
-4.43291e-05
2.6518e-05
-1.8336e-05
-5.32617e-05
3.07716e-05
-2.18389e-05
-6.33767e-05
3.64894e-05
-2.63745e-05
-7.51404e-05
4.40354e-05
-3.22717e-05
-8.91385e-05
5.39829e-05
-3.99848e-05
6.71746e-05
-5.00937e-05
-0.000106219
1.42055e-06
1.73292e-05
9.69135e-07
1.76375e-05
-3.55282e-06
2.45835e-05
-9.57688e-06
2.73925e-05
-1.71355e-05
3.10523e-05
-2.56688e-05
3.50513e-05
-3.52404e-05
4.03432e-05
-4.61214e-05
4.73703e-05
-5.88175e-05
5.67316e-05
-7.38967e-05
6.90621e-05
8.53616e-05
-9.20837e-05
1.92119e-06
1.5408e-05
1.91924e-06
1.76394e-05
2.77301e-07
2.62254e-05
-2.81936e-06
3.04891e-05
-8.14732e-06
3.63802e-05
-1.50667e-05
4.19707e-05
-2.34675e-05
4.8744e-05
-3.33611e-05
5.72639e-05
-4.49956e-05
6.83661e-05
-5.88728e-05
8.29394e-05
0.000102159
-7.56705e-05
1.40909e-06
1.3999e-05
1.05091e-06
1.79976e-05
5.81549e-07
2.66947e-05
-1.00074e-06
3.20714e-05
-4.29264e-06
3.96721e-05
-9.03279e-06
4.67109e-05
-1.54143e-05
5.51255e-05
-2.33698e-05
6.52194e-05
-3.3005e-05
7.80013e-05
-4.45871e-05
9.45214e-05
0.000116103
-5.85304e-05
1.13699e-06
1.2862e-05
7.72812e-07
1.83618e-05
6.33974e-07
2.68336e-05
-3.80818e-07
3.30862e-05
-2.30762e-06
4.15989e-05
-5.31437e-06
4.97176e-05
-9.72279e-06
5.95339e-05
-1.55418e-05
7.10383e-05
-2.28797e-05
8.53393e-05
-3.18592e-05
0.000103501
0.000127
-4.2757e-05
1.12786e-06
1.17341e-05
1.14307e-06
1.83466e-05
1.31122e-06
2.66654e-05
6.49021e-07
3.37484e-05
-4.58966e-07
4.27069e-05
-2.35512e-06
5.16138e-05
-5.24308e-06
6.24218e-05
-9.22486e-06
7.50201e-05
-1.44511e-05
9.05656e-05
-2.10088e-05
0.000110059
0.000135013
-2.90215e-05
1.15716e-06
1.05769e-05
1.58052e-06
1.79232e-05
2.083e-06
2.61629e-05
1.81387e-06
3.40175e-05
1.2965e-06
4.32243e-05
1.71428e-07
5.27389e-05
-1.5839e-06
6.41772e-05
-4.12871e-06
7.75649e-05
-7.59549e-06
9.40324e-05
-1.20667e-05
0.00011453
0.000140606
-1.76597e-05
1.0948e-06
9.48213e-06
1.8128e-06
1.72052e-05
2.56422e-06
2.54115e-05
2.71803e-06
3.38637e-05
2.69735e-06
4.3245e-05
2.20178e-06
5.32344e-05
1.32775e-06
6.50512e-05
-6.42965e-08
7.8957e-05
-2.05115e-06
9.60192e-05
-4.66136e-06
0.00011714
0.000143893
-7.94838e-06
1.06767e-06
8.41446e-06
2.07188e-06
1.6201e-05
3.07955e-06
2.44039e-05
3.63257e-06
3.33107e-05
4.04639e-06
4.28312e-05
4.09517e-06
5.31856e-05
3.93116e-06
6.52152e-05
3.45415e-06
7.9434e-05
2.68233e-06
9.6791e-05
1.52788e-06
0.000118294
0.000145393
2.80715e-08
1.23342e-06
7.18105e-06
2.56331e-06
1.48711e-05
3.88043e-06
2.30867e-05
4.85956e-06
3.23316e-05
5.66967e-06
4.2021e-05
6.19473e-06
5.26606e-05
6.59233e-06
6.48176e-05
6.84343e-06
7.91829e-05
6.97757e-06
9.66569e-05
7.00554e-06
0.000118266
0.000145467
6.93153e-06
1.31981e-06
5.86124e-06
2.90486e-06
1.32861e-05
4.5173e-06
2.14743e-05
5.92353e-06
3.09254e-05
7.14114e-06
4.08034e-05
8.13351e-06
5.16682e-05
9.05606e-06
6.38951e-05
9.94584e-06
7.82931e-05
1.08802e-05
9.57225e-05
1.1907e-05
0.00011724
0.000144105
1.32688e-05
1.24051e-06
4.62073e-06
2.91787e-06
1.16087e-05
4.75053e-06
1.96416e-05
6.52428e-06
2.91516e-05
8.1605e-06
3.91672e-05
9.64919e-06
5.01795e-05
1.11118e-05
6.24325e-05
1.26461e-05
7.67588e-05
1.4356e-05
9.40127e-05
1.63504e-05
0.000115245
0.000141702
1.87539e-05
1.19535e-06
3.42537e-06
2.94155e-06
9.86253e-06
4.9719e-06
1.76113e-05
7.10175e-06
2.70218e-05
9.16275e-06
3.71062e-05
1.11531e-05
4.81892e-05
1.31539e-05
6.04317e-05
1.52889e-05
7.46238e-05
1.77356e-05
9.1566e-05
2.06382e-05
0.000112343
0.000138238
2.41019e-05
1.18069e-06
2.24468e-06
2.96328e-06
8.07994e-06
5.19508e-06
1.53795e-05
7.68669e-06
2.45301e-05
1.02035e-05
3.45894e-05
1.27266e-05
4.56662e-05
1.53118e-05
5.78465e-05
1.80941e-05
7.18415e-05
2.12464e-05
8.84136e-05
2.4977e-05
0.000108612
0.000133729
2.94863e-05
9.69822e-07
1.27486e-06
2.61388e-06
6.43588e-06
4.93018e-06
1.30632e-05
7.69986e-06
2.17605e-05
1.06796e-05
3.16096e-05
1.37984e-05
4.25474e-05
1.70567e-05
5.45882e-05
2.05991e-05
6.8299e-05
2.46036e-05
8.44092e-05
2.92473e-05
0.000103968
0.000128171
3.4805e-05
6.79194e-07
5.95664e-07
2.13354e-06
4.98154e-06
4.47367e-06
1.0723e-05
7.50973e-06
1.87244e-05
1.09519e-05
2.81674e-05
1.46916e-05
3.88078e-05
1.87066e-05
5.05731e-05
2.30999e-05
6.39058e-05
2.80347e-05
7.94744e-05
3.37921e-05
9.82108e-05
0.000121326
4.06365e-05
4.41924e-07
1.53741e-07
1.68955e-06
3.73391e-06
3.98128e-06
8.43131e-06
7.2172e-06
1.54885e-05
1.11073e-05
2.42773e-05
1.54934e-05
3.44217e-05
2.03208e-05
4.57457e-05
2.56739e-05
5.85527e-05
3.17213e-05
7.3427e-05
3.86737e-05
9.12584e-05
0.000113249
4.67511e-05
2.5367e-07
-9.99291e-08
1.25068e-06
2.7369e-06
3.32891e-06
6.35308e-06
6.58491e-06
1.22325e-05
1.08015e-05
2.00606e-05
1.5799e-05
2.94242e-05
2.1504e-05
4.00407e-05
2.79597e-05
5.2097e-05
3.52935e-05
6.60932e-05
4.36914e-05
8.28606e-05
0.000103462
5.34783e-05
1.50697e-07
-2.50627e-07
9.37632e-07
1.94996e-06
2.69913e-06
4.59158e-06
5.75488e-06
9.17672e-06
1.00999e-05
1.57156e-05
1.56117e-05
2.39124e-05
2.21991e-05
3.34533e-05
2.98649e-05
4.44313e-05
3.86978e-05
5.72602e-05
4.88887e-05
7.26696e-05
9.16028e-05
6.07481e-05
1.08701e-07
-3.59328e-07
7.14106e-07
1.34456e-06
2.09138e-06
3.21431e-06
4.72535e-06
6.54275e-06
8.91772e-06
1.15233e-05
1.47371e-05
1.80931e-05
2.21082e-05
2.60822e-05
3.09955e-05
3.5544e-05
4.14235e-05
4.68322e-05
5.3553e-05
6.05402e-05
7.73833e-05
6.77725e-05
7.71485e-08
-4.36476e-07
4.14169e-07
1.00754e-06
1.33936e-06
2.28912e-06
3.40226e-06
4.47985e-06
7.17568e-06
7.74986e-06
1.29732e-05
1.22956e-05
2.08273e-05
1.8228e-05
3.0668e-05
2.57033e-05
4.25228e-05
3.49774e-05
5.65376e-05
4.65254e-05
6.07791e-05
7.31419e-05
-3.52471e-07
-8.40052e-08
-3.34118e-07
9.89184e-07
1.98273e-07
1.75673e-06
1.79835e-06
2.87978e-06
5.0699e-06
4.47831e-06
1.04399e-05
6.92554e-06
1.81072e-05
1.05607e-05
2.81396e-05
1.56709e-05
4.06714e-05
2.24456e-05
5.60634e-05
3.11333e-05
4.17129e-05
7.51297e-05
-4.50599e-07
3.66594e-07
-5.14359e-07
1.05294e-06
8.04434e-08
1.16193e-06
1.60073e-06
1.35949e-06
4.3146e-06
1.76444e-06
8.60916e-06
2.63098e-06
1.4901e-05
4.26885e-06
2.35792e-05
6.99269e-06
3.50497e-05
1.09751e-05
4.95768e-05
1.66063e-05
2.43595e-05
6.69302e-05
7.82322e-07
-4.15728e-07
2.92127e-06
-1.086e-06
5.18182e-06
-1.09863e-06
7.42432e-06
-8.83009e-07
9.84341e-06
-6.54645e-07
1.27693e-05
-2.94922e-07
1.67952e-05
2.42923e-07
2.27219e-05
1.06599e-06
3.12366e-05
2.46037e-06
4.303e-05
4.81295e-06
8.77359e-06
5.86159e-05
-1.41012e-05
2.37473e-06
-2.5103e-05
-3.62384e-07
-3.42024e-05
-3.20933e-06
-4.19465e-05
-5.91646e-06
-4.92775e-05
-8.32133e-06
-5.69364e-05
-1.06771e-05
-6.53962e-05
-1.33791e-05
-7.50505e-05
-1.67202e-05
-8.62935e-05
-2.10287e-05
-9.9549e-05
-2.67294e-05
-3.43739e-05
-0.000115269
-6.49505e-06
8.86978e-06
-1.33253e-05
6.46791e-06
-2.18327e-05
5.29801e-06
-3.07043e-05
2.95514e-06
-3.96856e-05
6.59954e-07
-4.88148e-05
-1.54782e-06
-5.86403e-05
-3.55364e-06
-6.97384e-05
-5.62216e-06
-8.26108e-05
-8.15624e-06
-9.77564e-05
-1.15838e-05
-1.63509e-05
-0.000115779
-2.65985e-06
1.15296e-05
-6.34959e-06
1.01577e-05
-1.25391e-05
1.14876e-05
-2.02581e-05
1.06741e-05
-2.92476e-05
9.64949e-06
-3.91923e-05
8.39683e-06
-5.00754e-05
7.32945e-06
-6.21336e-05
6.43613e-06
-7.58272e-05
5.53736e-06
-9.16619e-05
4.25091e-06
2.08305e-06
-0.000110096
-1.68228e-06
1.32119e-05
-4.64656e-06
1.31219e-05
-9.12026e-06
1.59613e-05
-1.49561e-05
1.65099e-05
-2.24709e-05
1.71643e-05
-3.13817e-05
1.73076e-05
-4.16478e-05
1.75956e-05
-5.33224e-05
1.81107e-05
-6.66815e-05
1.88965e-05
-8.21262e-05
1.96956e-05
2.01847e-05
-0.000100228
-1.46578e-06
1.46777e-05
-4.14914e-06
1.58053e-05
-7.59436e-06
1.94065e-05
-1.21674e-05
2.10829e-05
-1.82636e-05
2.32605e-05
-2.58979e-05
2.4942e-05
-3.50621e-05
2.67597e-05
-4.57751e-05
2.88236e-05
-5.81727e-05
3.12941e-05
-7.25548e-05
3.40777e-05
3.69023e-05
-8.92724e-05
-1.28369e-06
1.59614e-05
-3.71195e-06
1.82336e-05
-6.56405e-06
2.22586e-05
-1.02825e-05
2.48013e-05
-1.52782e-05
2.82562e-05
-2.15606e-05
3.12244e-05
-2.93744e-05
3.45735e-05
-3.87407e-05
3.819e-05
-4.97699e-05
4.23233e-05
-6.26505e-05
4.69583e-05
5.1953e-05
-7.77012e-05
-1.07412e-06
1.70355e-05
-3.19358e-06
2.0353e-05
-5.60488e-06
2.46699e-05
-8.67389e-06
2.78703e-05
-1.27407e-05
3.23231e-05
-1.7934e-05
3.64177e-05
-2.44337e-05
4.10732e-05
-3.23558e-05
4.61121e-05
-4.18075e-05
5.1775e-05
-5.29593e-05
5.81101e-05
6.50454e-05
-6.60518e-05
-9.92318e-07
1.80278e-05
-2.8169e-06
2.21776e-05
-4.83715e-06
2.66901e-05
-7.52113e-06
3.05543e-05
-1.0763e-05
3.55649e-05
-1.49394e-05
4.05941e-05
-2.01979e-05
4.63317e-05
-2.66718e-05
5.25859e-05
-3.44807e-05
5.9584e-05
-4.3761e-05
6.73904e-05
7.59739e-05
-5.46896e-05
-8.43549e-07
1.88714e-05
-2.43417e-06
2.37682e-05
-3.9239e-06
2.81799e-05
-6.15754e-06
3.2788e-05
-8.78914e-06
3.81965e-05
-1.21446e-05
4.39496e-05
-1.63116e-05
5.04987e-05
-2.14476e-05
5.77219e-05
-2.76708e-05
6.58072e-05
-3.50891e-05
7.48088e-05
8.47387e-05
-4.38538e-05
-6.44828e-07
1.95162e-05
-1.88047e-06
2.50039e-05
-3.15293e-06
2.94523e-05
-4.8449e-06
3.44799e-05
-6.8423e-06
4.01939e-05
-9.41991e-06
4.65272e-05
-1.25941e-05
5.36729e-05
-1.65082e-05
6.1636e-05
-2.12484e-05
7.05474e-05
-2.69149e-05
8.04752e-05
9.14274e-05
-3.36036e-05
-3.93425e-07
1.99096e-05
-1.19282e-06
2.58033e-05
-2.05989e-06
3.03194e-05
-3.30007e-06
3.57201e-05
-4.72417e-06
4.1618e-05
-6.57096e-06
4.8374e-05
-8.84322e-06
5.59451e-05
-1.16415e-05
6.44343e-05
-1.50322e-05
7.39381e-05
-1.90728e-05
8.45158e-05
9.61834e-05
-2.38288e-05
-1.81888e-07
2.00915e-05
-6.97848e-07
2.63192e-05
-1.18654e-06
3.08081e-05
-1.93638e-06
3.647e-05
-2.78123e-06
4.24629e-05
-3.90136e-06
4.94941e-05
-5.26962e-06
5.73134e-05
-6.97538e-06
6.614e-05
-9.04284e-06
7.60056e-05
-1.15027e-05
8.69757e-05
9.90569e-05
-1.43762e-05
5.2302e-08
2.00392e-05
-1.09808e-07
2.64813e-05
-2.32642e-07
3.09309e-05
-4.93268e-07
3.67306e-05
-7.544e-07
4.2724e-05
-1.15929e-06
4.9899e-05
-1.65458e-06
5.78087e-05
-2.29202e-06
6.67775e-05
-3.07755e-06
7.67911e-05
-4.02414e-06
8.79222e-05
0.000100122
-5.08961e-06
4.07867e-07
1.96313e-05
6.46e-07
2.62432e-05
9.27345e-07
3.06496e-05
1.16516e-06
3.64928e-05
1.47691e-06
4.24123e-05
1.78153e-06
4.95944e-05
2.15068e-06
5.74396e-05
2.54971e-06
6.63785e-05
3.02355e-06
7.63173e-05
3.58384e-06
8.73619e-05
9.94498e-05
4.2564e-06
6.15482e-07
1.90158e-05
1.21835e-06
2.56403e-05
1.91999e-06
2.99479e-05
2.68972e-06
3.5723e-05
3.60888e-06
4.14931e-05
4.6753e-06
4.85279e-05
5.9447e-06
5.61702e-05
7.4402e-06
6.48829e-05
9.21834e-06
7.45391e-05
1.13426e-05
8.52377e-05
9.69014e-05
1.3891e-05
8.73066e-07
1.81428e-05
1.86606e-06
2.46473e-05
3.00364e-06
2.88104e-05
4.3262e-06
3.44005e-05
5.88005e-06
3.99393e-05
7.7367e-06
4.66713e-05
9.93997e-06
5.39669e-05
1.25618e-05
6.22611e-05
1.5695e-05
7.14059e-05
1.94249e-05
8.15078e-05
9.24336e-05
2.38928e-05
1.17552e-06
1.69673e-05
2.60679e-06
2.32161e-05
4.21448e-06
2.72027e-05
6.12699e-06
3.2488e-05
8.35204e-06
3.77142e-05
1.1036e-05
4.39873e-05
1.42168e-05
5.07861e-05
1.80222e-05
5.84557e-05
2.25443e-05
6.68839e-05
2.79414e-05
7.61106e-05
8.59518e-05
3.44232e-05
1.47224e-06
1.5495e-05
3.34415e-06
2.13442e-05
5.46657e-06
2.50802e-05
8.01224e-06
2.99423e-05
1.09673e-05
3.47592e-05
1.45346e-05
4.042e-05
1.87653e-05
4.65554e-05
2.38095e-05
5.34115e-05
2.98081e-05
6.08852e-05
3.69365e-05
6.89822e-05
7.74575e-05
4.54308e-05
1.77506e-06
1.372e-05
4.10305e-06
1.90162e-05
6.7744e-06
2.24089e-05
9.99813e-06
2.67186e-05
1.37545e-05
3.10028e-05
1.82684e-05
3.59061e-05
2.36144e-05
4.12094e-05
2.99714e-05
4.70544e-05
3.74865e-05
5.33702e-05
4.64123e-05
6.00564e-05
6.68474e-05
5.70225e-05
2.09943e-06
1.16205e-05
4.89432e-06
1.62213e-05
8.15294e-06
1.91503e-05
1.20979e-05
2.27736e-05
1.67162e-05
2.63845e-05
2.22317e-05
3.03907e-05
2.87467e-05
3.46943e-05
3.64419e-05
3.93592e-05
4.55289e-05
4.42832e-05
5.62549e-05
4.93304e-05
5.41694e-05
6.89329e-05
2.43294e-06
9.18757e-06
5.68482e-06
1.29694e-05
9.54791e-06
1.52872e-05
1.42463e-05
1.80752e-05
1.97621e-05
2.08687e-05
2.62989e-05
2.38539e-05
3.39769e-05
2.70163e-05
4.30047e-05
3.03315e-05
5.36072e-05
3.36806e-05
6.60735e-05
3.6864e-05
3.95057e-05
8.07372e-05
2.70895e-06
6.47862e-06
6.40068e-06
9.27768e-06
1.08559e-05
1.0832e-05
1.62667e-05
1.26643e-05
2.26377e-05
1.44977e-05
3.01167e-05
1.63748e-05
3.88629e-05
1.82702e-05
4.90924e-05
2.0102e-05
6.10622e-05
2.17108e-05
7.50846e-05
2.28416e-05
2.30921e-05
9.14982e-05
3.27608e-06
3.20255e-06
7.33479e-06
5.21896e-06
1.21883e-05
5.97847e-06
1.80636e-05
6.78904e-06
2.49932e-05
7.56811e-06
3.31066e-05
8.26152e-06
4.25904e-05
8.78634e-06
5.36867e-05
9.00564e-06
6.66592e-05
8.73842e-06
8.17783e-05
7.72246e-06
5.77912e-06
9.90913e-05
2.78682e-06
6.91978e-06
1.17996e-05
1.77056e-05
2.46191e-05
3.25857e-05
4.1615e-05
5.16866e-05
6.28854e-05
7.54208e-05
8.99735e-05
3.38803e-06
7.46424e-06
-1.08523e-05
5.01755e-06
8.75544e-06
-1.0385e-05
4.82201e-06
1.18507e-05
-1.16552e-05
3.49078e-06
1.49708e-05
-1.36395e-05
1.23209e-06
1.81423e-05
-1.58836e-05
-1.94926e-06
2.1445e-05
-1.82637e-05
-5.90854e-06
2.49024e-05
-2.09431e-05
-1.03953e-05
2.8879e-05
-2.43922e-05
-1.52739e-05
3.40591e-05
-2.91806e-05
-2.0828e-05
4.1522e-05
-3.59678e-05
5.19297e-05
-4.53957e-05
-2.73621e-05
4.40855e-06
3.05569e-06
7.02068e-06
6.14331e-06
8.79533e-06
1.00761e-05
9.5787e-06
1.41874e-05
9.16636e-06
1.85546e-05
7.40072e-06
2.32107e-05
4.28336e-06
2.80198e-05
6.79026e-08
3.30944e-05
-4.83264e-06
3.89597e-05
-1.02612e-05
4.69505e-05
5.8188e-05
-1.65194e-05
2.72046e-06
3.35231e-07
5.35072e-06
3.51304e-06
7.78405e-06
7.64273e-06
9.65882e-06
1.23126e-05
1.07079e-05
1.75056e-05
1.06279e-05
2.32906e-05
9.23317e-06
2.94145e-05
6.53392e-06
3.57937e-05
2.81e-06
4.26836e-05
-1.45484e-06
5.12154e-05
6.29541e-05
-6.22098e-06
1.44737e-06
-1.11214e-06
3.71964e-06
1.24078e-06
6.19177e-06
5.1706e-06
8.49753e-06
1.00069e-05
1.03125e-05
1.56906e-05
1.14192e-05
2.21839e-05
1.154e-05
2.92938e-05
1.05013e-05
3.68324e-05
8.37863e-06
4.48062e-05
5.63259e-06
5.39614e-05
6.5935e-05
2.65166e-06
3.73677e-07
-1.48582e-06
2.00537e-06
-3.90913e-07
4.34251e-06
2.83346e-06
6.80042e-06
7.54896e-06
9.07215e-06
1.34189e-05
1.09436e-05
2.03124e-05
1.21684e-05
2.8069e-05
1.2529e-05
3.64718e-05
1.19628e-05
4.53724e-05
1.07396e-05
5.51846e-05
6.73128e-05
9.36183e-06
1.01244e-07
-1.58706e-06
8.89851e-07
-1.17952e-06
2.68579e-06
1.03752e-06
5.00145e-06
5.2333e-06
7.42199e-06
1.09983e-05
9.71281e-06
1.80216e-05
1.1663e-05
2.61188e-05
1.30629e-05
3.50719e-05
1.37782e-05
4.46571e-05
1.39426e-05
5.50202e-05
6.72682e-05
1.39873e-05
1.00331e-09
-1.58807e-06
2.27844e-07
-1.40636e-06
1.29969e-06
-3.43273e-08
3.22332e-06
3.30967e-06
5.515e-06
8.70667e-06
7.9326e-06
1.5604e-05
1.02835e-05
2.3768e-05
1.23834e-05
3.29719e-05
1.40865e-05
4.2954e-05
1.54192e-05
5.36875e-05
6.60286e-05
1.66588e-05
-1.39721e-07
-1.44834e-06
-2.16223e-07
-1.32986e-06
2.21981e-07
-4.72531e-07
1.56652e-06
1.96513e-06
3.52602e-06
6.74717e-06
5.82431e-06
1.33057e-05
8.30831e-06
2.1284e-05
1.08262e-05
3.0454e-05
1.32467e-05
4.05336e-05
1.55428e-05
5.13913e-05
6.36778e-05
1.78936e-05
-2.22889e-07
-1.22546e-06
-4.04387e-07
-1.14836e-06
-4.42005e-07
-4.34913e-07
2.06762e-07
1.31637e-06
1.74315e-06
5.21078e-06
3.76585e-06
1.1283e-05
6.17588e-06
1.88739e-05
8.87753e-06
2.77523e-05
1.17698e-05
3.76413e-05
1.47826e-05
4.83786e-05
6.05001e-05
1.79603e-05
-2.84825e-07
-9.4063e-07
-5.66657e-07
-8.66529e-07
-7.86669e-07
-2.14902e-07
-6.59184e-07
1.18888e-06
3.35628e-07
4.21597e-06
2.06655e-06
9.55207e-06
4.27989e-06
1.66606e-05
7.00211e-06
2.50301e-05
1.01613e-05
3.44821e-05
1.36709e-05
4.4869e-05
5.67127e-05
1.74583e-05
-2.98896e-07
-6.41734e-07
-6.36051e-07
-5.29375e-07
-9.45029e-07
9.40762e-08
-1.05753e-06
1.30139e-06
-5.93976e-07
3.75241e-06
7.69594e-07
8.1885e-06
2.75228e-06
1.46779e-05
5.41517e-06
2.23672e-05
8.72511e-06
3.11721e-05
1.25831e-05
4.1011e-05
5.24078e-05
1.6888e-05
-2.73604e-07
-3.6813e-07
-6.27559e-07
-1.75421e-07
-9.6664e-07
4.33157e-07
-1.18641e-06
1.52115e-06
-1.02289e-06
3.58889e-06
-6.52938e-08
7.23091e-06
1.69275e-06
1.29199e-05
4.26675e-06
1.97932e-05
7.66772e-06
2.77712e-05
1.17624e-05
3.69163e-05
4.78273e-05
1.63428e-05
-2.29761e-07
-1.38369e-07
-5.48433e-07
1.43252e-07
-8.55471e-07
7.40195e-07
-1.0834e-06
1.74909e-06
-1.0268e-06
3.53229e-06
-3.5852e-07
6.56263e-06
1.21249e-06
1.13489e-05
3.72638e-06
1.72793e-05
7.17698e-06
2.43206e-05
1.14443e-05
3.26489e-05
4.29142e-05
1.63575e-05
-1.62725e-07
2.43559e-08
-4.16322e-07
3.96849e-07
-6.4655e-07
9.70423e-07
-8.13127e-07
1.91566e-06
-7.47945e-07
3.46711e-06
-1.81617e-07
5.9963e-06
1.28781e-06
9.87944e-06
3.75398e-06
1.48132e-05
7.22892e-06
2.08456e-05
1.1604e-05
2.82738e-05
3.77984e-05
1.67199e-05
-9.44758e-08
1.18832e-07
-2.88523e-07
5.90896e-07
-4.25968e-07
1.10787e-06
-5.05415e-07
1.99511e-06
-3.75921e-07
3.33762e-06
2.06165e-07
5.41422e-06
1.64089e-06
8.44471e-06
4.08785e-06
1.23662e-05
7.60695e-06
1.73265e-05
1.21282e-05
2.37525e-05
3.24332e-05
1.74934e-05
-3.99044e-08
1.58736e-07
-1.71495e-07
7.22487e-07
-2.21051e-07
1.15742e-06
-2.09246e-07
1.9833e-06
6.27841e-09
3.12209e-06
6.61097e-07
4.7594e-06
2.1063e-06
6.9995e-06
4.58133e-06
9.89116e-06
8.20826e-06
1.36996e-05
1.29535e-05
1.90073e-05
2.66545e-05
1.87322e-05
8.59409e-09
1.50142e-07
-6.815e-08
7.99231e-07
-6.2986e-08
1.15226e-06
6.52455e-09
1.91379e-06
2.74419e-07
2.8542e-06
9.70094e-07
4.06372e-06
2.44829e-06
5.52131e-06
5.02408e-06
7.31537e-06
8.86513e-06
9.85856e-06
1.39318e-05
1.39407e-05
2.05796e-05
2.00066e-05
2.73261e-08
1.22816e-07
-3.33699e-08
8.59927e-07
-3.6336e-08
1.15523e-06
3.79575e-09
1.87366e-06
2.17254e-07
2.64074e-06
8.5551e-07
3.42547e-06
2.38713e-06
3.98969e-06
5.19559e-06
4.5069e-06
9.45147e-06
5.60269e-06
1.5079e-05
8.31308e-06
1.3818e-05
2.18406e-05
3.61731e-09
1.19199e-07
-9.11092e-08
9.54654e-07
-2.29347e-07
1.29346e-06
-3.74999e-07
2.01931e-06
-3.98196e-07
2.66393e-06
7.7481e-08
2.94979e-06
1.77898e-06
2.28819e-06
5.07768e-06
1.20821e-06
1.00311e-05
6.49304e-07
1.64354e-05
1.90874e-06
6.31154e-06
2.39419e-05
-9.30264e-08
2.12225e-07
-4.15348e-07
1.27698e-06
-8.81493e-07
1.75961e-06
-1.27976e-06
2.41758e-06
-1.5079e-06
2.89207e-06
-2.94447e-07
1.73634e-06
2.79e-06
-7.9625e-07
7.31958e-06
-3.32138e-06
1.27997e-05
-4.83086e-06
1.91967e-05
-4.48816e-06
-1.21767e-06
2.67259e-05
-5.91969e-07
8.04194e-07
-1.11005e-06
1.79506e-06
-1.65563e-06
2.30519e-06
-1.47577e-06
2.23772e-06
4.72435e-07
9.43872e-07
4.45673e-06
-2.24796e-06
9.02248e-06
-5.362e-06
1.38561e-05
-8.15498e-06
1.92744e-05
-1.02492e-05
2.54792e-05
-1.0693e-05
-8.24349e-06
3.2505e-05
-9.94611e-07
1.79881e-06
-1.00006e-06
1.8005e-06
1.82424e-07
1.12271e-06
3.12742e-06
-7.07278e-07
7.49334e-06
-3.42204e-06
1.1632e-05
-6.3866e-06
1.57475e-05
-9.47752e-06
2.01988e-05
-1.26063e-05
2.53237e-05
-1.53741e-05
3.15238e-05
-1.68931e-05
-1.55787e-05
3.8859e-05
5.13665e-07
1.28514e-06
3.02807e-06
-7.13904e-07
6.39672e-06
-2.24595e-06
1.00342e-05
-4.34472e-06
1.33697e-05
-6.75754e-06
1.64702e-05
-9.48715e-06
1.95465e-05
-1.25538e-05
2.28856e-05
-1.59454e-05
2.69349e-05
-1.94233e-05
3.24038e-05
-2.2362e-05
-2.32007e-05
4.00258e-05
5.89333e-06
-4.60819e-06
8.99219e-06
-3.81276e-06
1.17734e-05
-5.0272e-06
1.41624e-05
-6.73364e-06
1.61702e-05
-8.76533e-06
1.79202e-05
-1.12372e-05
1.95838e-05
-1.42174e-05
2.14169e-05
-1.77785e-05
2.38017e-05
-2.18082e-05
2.74744e-05
-2.60348e-05
-2.94009e-05
3.36746e-05
-4.5015e-06
-6.35077e-06
-7.25748e-06
-7.62898e-06
-9.44624e-06
-9.46641e-06
-1.15905e-05
-1.14953e-05
-1.38987e-05
-1.35754e-05
-1.65177e-05
-1.56447e-05
-1.95797e-05
-1.78811e-05
-2.3233e-05
-2.07389e-05
-2.75803e-05
-2.48332e-05
-3.27768e-05
-3.07714e-05
-3.92406e-05
-3.89319e-05
-3.43086e-06
-2.91991e-06
-6.37217e-06
-4.68767e-06
-9.07796e-06
-6.76063e-06
-1.16531e-05
-8.92015e-06
-1.4253e-05
-1.09755e-05
-1.71107e-05
-1.2787e-05
-2.05229e-05
-1.4469e-05
-2.47623e-05
-1.64994e-05
-3.00143e-05
-1.95812e-05
-3.64512e-05
-2.43345e-05
-3.12411e-05
-4.44507e-05
-1.22371e-06
-1.6962e-06
-2.99272e-06
-2.91866e-06
-5.21978e-06
-4.53356e-06
-7.77572e-06
-6.36422e-06
-1.06175e-05
-8.13371e-06
-1.38643e-05
-9.54024e-06
-1.77973e-05
-1.05359e-05
-2.27393e-05
-1.15574e-05
-2.89055e-05
-1.3415e-05
-3.64512e-05
-1.67888e-05
-2.2142e-05
-4.55503e-05
-2.09617e-07
-1.48658e-06
-9.81129e-07
-2.14715e-06
-2.33563e-06
-3.17906e-06
-4.27568e-06
-4.42417e-06
-6.76369e-06
-5.6457e-06
-9.85962e-06
-6.44431e-06
-1.38208e-05
-6.57476e-06
-1.90361e-05
-6.34212e-06
-2.57467e-05
-6.70441e-06
-3.40089e-05
-8.52654e-06
-1.20405e-05
-4.41105e-05
5.98071e-08
-1.54639e-06
-1.80815e-07
-1.90653e-06
-8.1179e-07
-2.54808e-06
-1.98136e-06
-3.25461e-06
-3.74086e-06
-3.8862e-06
-6.1654e-06
-4.01977e-06
-9.51897e-06
-3.2212e-06
-1.43473e-05
-1.51375e-06
-2.11068e-05
5.5093e-08
-2.96737e-05
4.0346e-08
-1.83038e-06
-3.98838e-05
8.14151e-08
-1.6278e-06
2.24478e-08
-1.84756e-06
-2.22978e-07
-2.30266e-06
-8.26903e-07
-2.65068e-06
-1.89528e-06
-2.81783e-06
-3.51295e-06
-2.4021e-06
-5.88553e-06
-8.4862e-07
-9.59784e-06
2.19856e-06
-1.55241e-05
5.98137e-06
-2.39289e-05
8.44514e-06
8.54384e-06
-3.43031e-05
6.82303e-08
-1.69603e-06
7.01758e-08
-1.84951e-06
-1.88868e-08
-2.21359e-06
-3.25355e-07
-2.34421e-06
-9.56267e-07
-2.18691e-06
-2.01555e-06
-1.34282e-06
-3.67394e-06
8.09773e-07
-6.37767e-06
4.90229e-06
-1.10131e-05
1.06168e-05
-1.83278e-05
1.57599e-05
1.81904e-05
-2.79744e-05
6.60581e-08
-1.76209e-06
1.04907e-07
-1.88836e-06
8.75129e-08
-2.1962e-06
-7.21458e-08
-2.18455e-06
-4.4731e-07
-1.81175e-06
-1.1317e-06
-6.58431e-07
-2.2299e-06
1.90797e-06
-4.00168e-06
6.67407e-06
-7.25003e-06
1.38651e-05
-1.30732e-05
2.15831e-05
2.65167e-05
-2.13995e-05
6.75173e-08
-1.82961e-06
1.18381e-07
-1.93922e-06
1.35183e-07
-2.213e-06
4.65129e-08
-2.09588e-06
-1.87416e-07
-1.57782e-06
-6.30453e-07
-2.15394e-07
-1.33088e-06
2.6084e-06
-2.41297e-06
7.75616e-06
-4.43921e-06
1.58914e-05
-8.73167e-06
2.58755e-05
3.38577e-05
-1.60727e-05
2.60072e-08
-1.85562e-06
1.10843e-07
-2.02406e-06
1.34496e-07
-2.23665e-06
6.31337e-08
-2.02452e-06
-1.0474e-07
-1.40995e-06
-4.10745e-07
9.061e-08
-8.72758e-07
3.07041e-06
-1.50956e-06
8.39296e-06
-2.59719e-06
1.6979e-05
-5.26998e-06
2.85483e-05
3.94816e-05
-1.08939e-05
1.20291e-08
-1.86765e-06
1.08025e-07
-2.12005e-06
2.77726e-08
-2.1564e-06
-1.59165e-08
-1.98083e-06
-1.64932e-07
-1.26093e-06
-4.17357e-07
3.43035e-07
-7.65845e-07
3.4189e-06
-1.16294e-06
8.79005e-06
-1.62904e-06
1.74451e-05
-2.85509e-06
2.97744e-05
4.30897e-05
-6.46316e-06
-1.47514e-08
-1.85289e-06
-8.00047e-09
-2.1268e-06
-4.96256e-08
-2.11478e-06
-1.65581e-07
-1.86488e-06
-3.51992e-07
-1.07452e-06
-6.33268e-07
6.24311e-07
-9.93028e-07
3.77866e-06
-1.32694e-06
9.12397e-06
-1.47023e-06
1.75884e-05
-1.60973e-06
2.99139e-05
4.46301e-05
-3.15012e-06
-5.74853e-08
-1.79541e-06
-9.48269e-08
-2.08946e-06
-1.97216e-07
-2.01239e-06
-3.78451e-07
-1.68364e-06
-6.49955e-07
-8.03019e-07
-1.02895e-06
1.00331e-06
-1.48845e-06
4.23816e-06
-1.89188e-06
9.5274e-06
-1.99267e-06
1.76892e-05
-1.70833e-06
2.96295e-05
4.51749e-05
-2.25314e-06
-1.12592e-07
-1.68282e-06
-2.18046e-07
-1.98401e-06
-4.00496e-07
-1.82994e-06
-6.77515e-07
-1.40662e-06
-1.07534e-06
-4.05195e-07
-1.6222e-06
1.55017e-06
-2.26774e-06
4.8837e-06
-2.84059e-06
1.01002e-05
-3.05333e-06
1.79019e-05
-2.61598e-06
2.91922e-05
4.43369e-05
-1.77801e-06
-1.65132e-07
-1.51768e-06
-3.54442e-07
-1.7947e-06
-6.45821e-07
-1.53856e-06
-1.06689e-06
-9.85552e-07
-1.66949e-06
1.974e-07
-2.46371e-06
2.34439e-06
-3.35111e-06
5.77111e-06
-4.1495e-06
1.08986e-05
-4.57486e-06
1.83273e-05
-4.25024e-06
2.88676e-05
4.33136e-05
-3.22694e-06
-2.27276e-07
-1.29041e-06
-5.3298e-07
-1.48899e-06
-9.7573e-07
-1.09581e-06
-1.61613e-06
-3.45154e-07
-2.49676e-06
1.07803e-06
-3.55003e-06
3.39766e-06
-4.66814e-06
6.88922e-06
-5.70778e-06
1.19383e-05
-6.42255e-06
1.90421e-05
-6.39111e-06
2.88361e-05
4.20736e-05
-5.15111e-06
-3.11882e-07
-9.78526e-07
-7.70173e-07
-1.0307e-06
-1.42176e-06
-4.44218e-07
-2.329e-06
5.62079e-07
-3.44484e-06
2.19387e-06
-4.69475e-06
4.64757e-06
-6.02629e-06
8.22076e-06
-7.33502e-06
1.3247e-05
-8.39785e-06
2.01049e-05
-8.79195e-06
2.92302e-05
4.10618e-05
-7.78009e-06
-4.20305e-07
-5.58222e-07
-1.05606e-06
-3.9495e-07
-1.90799e-06
4.07711e-07
-2.96584e-06
1.61993e-06
-4.20425e-06
3.43228e-06
-5.63809e-06
6.08142e-06
-7.23668e-06
9.81935e-06
-8.89441e-06
1.49047e-05
-1.04196e-05
2.16301e-05
-1.15247e-05
3.03353e-05
4.14182e-05
-1.18811e-05
-5.26278e-07
-3.19434e-08
-1.26158e-06
3.40351e-07
-2.14669e-06
1.29283e-06
-3.22308e-06
2.69631e-06
-4.56693e-06
4.77614e-06
-6.1943e-06
7.70879e-06
-8.04441e-06
1.16695e-05
-9.99662e-06
1.6857e-05
-1.18709e-05
2.35043e-05
-1.34161e-05
3.18805e-05
4.2164e-05
-1.41618e-05
-5.32835e-07
5.00891e-07
-1.20699e-06
1.0145e-06
-2.03223e-06
2.11807e-06
-3.12713e-06
3.79122e-06
-4.55795e-06
6.20695e-06
-6.30423e-06
9.45506e-06
-8.26871e-06
1.36339e-05
-1.03246e-05
1.89128e-05
-1.23445e-05
2.55243e-05
-1.41979e-05
3.37339e-05
4.37991e-05
-1.58331e-05
-4.11108e-07
9.11999e-07
-9.75869e-07
1.57926e-06
-1.76353e-06
2.90573e-06
-2.86141e-06
4.8891e-06
-4.2777e-06
7.62324e-06
-5.92396e-06
1.11013e-05
-7.66224e-06
1.53722e-05
-9.35578e-06
2.06064e-05
-1.08866e-05
2.70551e-05
-1.20927e-05
3.49399e-05
4.42027e-05
-1.24963e-05
-3.41398e-07
1.2534e-06
-8.77188e-07
2.11505e-06
-1.65656e-06
3.68511e-06
-2.69798e-06
5.93051e-06
-3.88491e-06
8.81017e-06
-5.05704e-06
1.22735e-05
-6.06145e-06
1.63766e-05
-6.78042e-06
2.13253e-05
-7.07243e-06
2.73471e-05
-6.76471e-06
3.46322e-05
4.30509e-05
-5.6129e-06
-5.55974e-07
1.80937e-06
-1.204e-06
2.76308e-06
-2.09675e-06
4.57785e-06
-2.94618e-06
6.77994e-06
-3.54377e-06
9.40776e-06
-3.75498e-06
1.24847e-05
-3.49168e-06
1.61133e-05
-2.67238e-06
2.0506e-05
-1.07057e-06
2.57453e-05
1.78443e-06
3.17772e-05
3.79009e-05
6.9345e-06
-2.79882e-06
-3.8485e-06
-4.29784e-06
-4.25155e-06
-3.60911e-06
-2.36161e-06
-4.65679e-07
2.26184e-06
6.19902e-06
1.19414e-05
2.04414e-05
-1.05956e-05
-1.02485e-05
2.08441e-05
-1.70029e-05
-1.19995e-05
1.84068e-05
-2.23928e-05
-1.4377e-05
1.9767e-05
-2.75979e-05
-1.67152e-05
2.19202e-05
-3.24392e-05
-1.88264e-05
2.36678e-05
-3.73422e-05
-2.07135e-05
2.56166e-05
-4.26053e-05
-2.23802e-05
2.76433e-05
-4.85552e-05
-2.37873e-05
2.97372e-05
-5.54742e-05
-2.48397e-05
3.17588e-05
-6.36552e-05
-2.53561e-05
3.3537e-05
-2.49879e-05
3.48035e-05
-7.34707e-05
-8.15259e-06
-2.09591e-06
-1.48969e-05
-5.25523e-06
-2.10723e-05
-8.20152e-06
-2.67768e-05
-1.10108e-05
-3.21556e-05
-1.34476e-05
-3.74981e-05
-1.5371e-05
-4.31658e-05
-1.67125e-05
-4.95342e-05
-1.7419e-05
-5.69826e-05
-1.73913e-05
-6.59179e-05
-1.64208e-05
-1.41562e-05
-7.67496e-05
-3.97955e-06
1.88364e-06
-8.97933e-06
-2.55455e-07
-1.45463e-05
-2.63451e-06
-2.04092e-05
-5.14794e-06
-2.6461e-05
-7.39575e-06
-3.272e-05
-9.11201e-06
-3.9348e-05
-1.00845e-05
-4.66381e-05
-1.01288e-05
-5.49644e-05
-9.06509e-06
-6.47058e-05
-6.67935e-06
-2.63527e-06
-7.62267e-05
-1.85329e-06
3.73693e-06
-5.06784e-06
2.9591e-06
-9.58691e-06
1.88456e-06
-1.49985e-05
2.63687e-07
-2.10259e-05
-1.36841e-06
-2.75508e-05
-2.58706e-06
-3.46227e-05
-3.01257e-06
-4.2397e-05
-2.35457e-06
-5.11208e-05
-3.41247e-07
-6.11847e-05
3.38451e-06
9.3135e-06
-7.31335e-05
-1.19016e-06
4.92709e-06
-3.09035e-06
4.85929e-06
-6.11899e-06
4.91321e-06
-1.03622e-05
4.50688e-06
-1.56922e-05
3.96155e-06
-2.19553e-05
3.67604e-06
-2.90588e-05
4.09098e-06
-3.70475e-05
5.63414e-06
-4.61157e-05
8.7269e-06
-5.6509e-05
1.37778e-05
2.13979e-05
-6.85933e-05
-1.14746e-06
6.07455e-06
-2.90212e-06
6.61395e-06
-5.25974e-06
7.27083e-06
-8.52885e-06
7.77599e-06
-1.28999e-05
8.33263e-06
-1.83964e-05
9.17251e-06
-2.49735e-05
1.06681e-05
-3.26163e-05
1.32769e-05
-4.13823e-05
1.74929e-05
-5.14665e-05
2.3862e-05
3.3124e-05
-6.31927e-05
-1.04045e-06
7.115e-06
-2.56955e-06
8.14304e-06
-4.64709e-06
9.34837e-06
-7.44765e-06
1.05765e-05
-1.11567e-05
1.20417e-05
-1.59023e-05
1.39181e-05
-2.17548e-05
1.65206e-05
-2.87483e-05
2.02703e-05
-3.6945e-05
2.56897e-05
-4.64732e-05
3.33902e-05
4.41286e-05
-5.74778e-05
-9.98698e-07
8.1137e-06
-2.41132e-06
9.55567e-06
-4.26656e-06
1.12036e-05
-6.72977e-06
1.30398e-05
-9.9534e-06
1.52653e-05
-1.40904e-05
1.80551e-05
-1.92587e-05
2.16889e-05
-2.55547e-05
2.65663e-05
-3.30727e-05
3.32076e-05
-4.1956e-05
4.22735e-05
5.46142e-05
-5.24415e-05
-9.42415e-07
9.05611e-06
-2.2498e-06
1.08631e-05
-3.93596e-06
1.28898e-05
-6.13432e-06
1.52381e-05
-8.98464e-06
1.81156e-05
-1.26303e-05
2.17008e-05
-1.72109e-05
2.62696e-05
-2.28517e-05
3.22071e-05
-2.9683e-05
4.00389e-05
-3.78709e-05
5.04614e-05
6.43877e-05
-4.76444e-05
-7.89926e-07
9.84604e-06
-1.94254e-06
1.20157e-05
-3.45114e-06
1.43984e-05
-5.41836e-06
1.72053e-05
-7.95614e-06
2.06534e-05
-1.11987e-05
2.49434e-05
-1.52845e-05
3.03553e-05
-2.03523e-05
3.72749e-05
-2.65566e-05
4.62432e-05
-3.40587e-05
5.79635e-05
7.33519e-05
-4.30228e-05
-6.52668e-07
1.04987e-05
-1.66402e-06
1.3027e-05
-2.99617e-06
1.57305e-05
-4.73662e-06
1.89458e-05
-6.9872e-06
2.2904e-05
-9.86858e-06
2.78247e-05
-1.35103e-05
3.3997e-05
-1.80517e-05
4.18163e-05
-2.36427e-05
5.18342e-05
-3.04526e-05
6.47734e-05
8.15926e-05
-3.86933e-05
-6.28599e-07
1.11273e-05
-1.54443e-06
1.39428e-05
-2.72461e-06
1.69107e-05
-4.25558e-06
2.04768e-05
-6.23341e-06