/*--------------------------------*- C++ -*----------------------------------*\
| =========                 |                                                 |
| \\      /  F ield         | OpenFOAM: The Open Source CFD Toolbox           |
|  \\    /   O peration     | Version:  3.0.1                                 |
|   \\  /    A nd           | Web:      www.OpenFOAM.org                      |
|    \\/     M anipulation  |                                                 |
\*---------------------------------------------------------------------------*/
FoamFile
{
    version     2.0;
    format      ascii;
    class       volScalarField;
    location    "0.303887";
    object      nut;
}
// * * * * * * * * * * * * * * * * * * * * * * * * * * * * * * * * * * * * * //

dimensions      [0 2 -1 0 0 0 0];

internalField   nonuniform List<scalar> 
21246
(
3.53762e-05
0.00018579
0.000316877
0.000437861
0.000497318
0.000491664
0.000476937
0.000523462
0.00061828
0.000674952
0.000614463
2.56558e-05
0.000107473
0.00020889
0.000317723
0.000400323
0.000426299
0.000418051
0.000453402
0.000562084
0.000625982
0.000569597
2.01237e-05
7.85833e-05
0.00015613
0.000245214
0.000326261
0.000369206
0.000371214
0.000378145
0.000459529
0.000574464
0.000536094
1.57821e-05
7.26351e-05
0.000130744
0.000202407
0.000274795
0.000323199
0.00033477
0.000331934
0.000368868
0.000469314
0.000503297
1.35627e-05
7.66451e-05
0.000121449
0.000178548
0.000240322
0.000287381
0.000304714
0.000301611
0.000313738
0.000372336
0.000433982
1.38625e-05
7.84556e-05
0.000119768
0.000165973
0.000217361
0.000259785
0.000279416
0.000278837
0.00028043
0.000308989
0.000358313
1.39204e-05
7.84063e-05
0.000117986
0.000158989
0.000201715
0.000238453
0.000258174
0.000260385
0.000258643
0.000270969
0.000301685
1.38178e-05
7.72738e-05
0.000115067
0.000152576
0.000190354
0.000221787
0.000240599
0.000245199
0.000243491
0.000248398
0.000266146
1.35627e-05
7.42572e-05
0.000111853
0.000145899
0.000180957
0.000208689
0.000226567
0.000233266
0.000233279
0.000235974
0.000247186
1.31648e-05
7.02629e-05
0.000108296
0.000140471
0.000173111
0.000199009
0.000216619
0.000225566
0.000228456
0.000232083
0.000241169
1.27612e-05
6.62419e-05
0.000105437
0.000137252
0.000168705
0.000193881
0.000212328
0.000224154
0.000230881
0.000237006
0.000245428
1.242e-05
6.29008e-05
0.000104192
0.000137488
0.000169141
0.000195044
0.000215743
0.000231288
0.000242142
0.000250436
0.000257433
1.20848e-05
5.9823e-05
0.0001042
0.000140527
0.000174053
0.000202847
0.000227304
0.000246962
0.000260856
0.000269055
0.000272483
1.17888e-05
5.62682e-05
0.000103515
0.000143468
0.000181008
0.000214402
0.000243416
0.000266475
0.000281203
0.0002869
0.00028554
1.14468e-05
5.3131e-05
0.000101919
0.00014488
0.000186654
0.000224745
0.000257783
0.000282971
0.000297187
0.000300218
0.000295456
1.10076e-05
5.04922e-05
9.96114e-05
0.000144229
0.000188987
0.000230649
0.000266773
0.000293698
0.000307958
0.000309699
0.000302894
1.04673e-05
4.80545e-05
9.66207e-05
0.000141814
0.000188405
0.000232843
0.00027195
0.000301317
0.000316817
0.000318212
0.000309436
9.76678e-06
4.59724e-05
9.34469e-05
0.000138666
0.000186914
0.000234512
0.000277357
0.000309973
0.00032711
0.00032785
0.000316069
8.90994e-06
4.41445e-05
9.01734e-05
0.00013586
0.000186848
0.00023803
0.0002839
0.000319085
0.000337482
0.000336494
0.000319629
7.8883e-06
4.22795e-05
8.84272e-05
0.000137738
0.000188547
0.000232261
0.000263277
0.000298687
0.000326021
0.000329947
0.000312549
6.98967e-06
4.98035e-05
9.75953e-05
0.000122559
0.000120884
0.000130638
0.000154888
0.000184898
0.000221992
0.000260156
0.000268422
7.70934e-06
4.30951e-05
5.33927e-05
5.32121e-05
7.75615e-05
0.000107621
0.00013793
0.000161057
0.000171741
0.000176095
0.000184356
6.23143e-06
1.73796e-05
3.34872e-05
5.98299e-05
9.57506e-05
0.000136773
0.000175916
0.000204659
0.000213209
0.000193924
0.000161419
9.1815e-06
2.49526e-05
5.52139e-05
9.98492e-05
0.000153101
0.000205585
0.000248176
0.000274404
0.000281184
0.000261141
0.000211798
3.3599e-05
0.000282765
0.000455943
0.000540881
0.000551666
0.000523213
0.000511298
0.000565569
0.000670827
0.000734302
0.000664895
1.93965e-05
0.000202773
0.000407476
0.000532258
0.000576326
0.000564189
0.000549471
0.000599834
0.000722534
0.000818425
0.000771795
1.29571e-05
0.000131433
0.000319995
0.000473643
0.000565289
0.000588743
0.000578533
0.000618351
0.000756675
0.000902716
0.000909827
1.14253e-05
8.13238e-05
0.000228974
0.000386972
0.00051425
0.000580652
0.000586912
0.000610116
0.000750053
0.000949016
0.00103104
1.27875e-05
6.90148e-05
0.000175856
0.000316116
0.000454707
0.00055058
0.0005749
0.000562685
0.000663962
0.000913161
0.00111618
1.44783e-05
7.45753e-05
0.000170551
0.000287924
0.000416207
0.000527799
0.00058021
0.000548377
0.00054526
0.000745786
0.00104303
1.62053e-05
8.28006e-05
0.000178352
0.000286282
0.000403525
0.000515908
0.000589906
0.000581327
0.000514206
0.000597042
0.000903218
1.79644e-05
9.19744e-05
0.000190084
0.000293442
0.000401689
0.000510212
0.0005958
0.000613388
0.000540549
0.000504363
0.000728573
1.96144e-05
0.000101922
0.00020396
0.000304619
0.000404398
0.000504793
0.000593634
0.000632879
0.000579011
0.000483508
0.000566956
2.10992e-05
0.000112555
0.000218588
0.000317248
0.000408949
0.000497821
0.000582122
0.000636625
0.000608721
0.000502162
0.000467469
2.23774e-05
0.000122428
0.0002324
0.000329796
0.000414063
0.000489571
0.000562748
0.000624799
0.000623054
0.00052847
0.000433136
2.35161e-05
0.000131568
0.000246843
0.000341253
0.000418521
0.000480771
0.000539042
0.000600377
0.000621559
0.000548498
0.000430266
2.44735e-05
0.000139466
0.000258503
0.000351146
0.000421489
0.000471576
0.000513826
0.00056392
0.000602862
0.000558243
0.000437195
2.52116e-05
0.00014685
0.000268632
0.000358771
0.000422073
0.000461519
0.000490944
0.000526809
0.000562947
0.00055001
0.000445052
2.56286e-05
0.000153239
0.000277257
0.000364553
0.00042067
0.0004499
0.000467592
0.000490294
0.000517245
0.000518619
0.000454368
2.57286e-05
0.000159097
0.000285228
0.000369567
0.000418349
0.000437441
0.000443636
0.000454738
0.000473949
0.00048134
0.000450785
2.54969e-05
0.000164642
0.000293358
0.000375277
0.000417017
0.000426163
0.000420505
0.000422307
0.0004343
0.000442045
0.000428596
2.48616e-05
0.000170068
0.000302757
0.000383872
0.000419681
0.000419043
0.000403329
0.000395982
0.000399659
0.000404134
0.000398831
2.37383e-05
0.000175567
0.000313966
0.000395579
0.000425192
0.000418746
0.000397253
0.000380427
0.0003741
0.000371595
0.000364793
2.19103e-05
0.000178133
0.000317025
0.00039986
0.0004323
0.000426099
0.000400469
0.000376247
0.000362608
0.000355666
0.000349302
1.89106e-05
0.00016824
0.000304947
0.000395866
0.000437225
0.000434682
0.000406653
0.00037669
0.000357866
0.000348914
0.0003453
1.53624e-05
0.000145996
0.000275877
0.000376692
0.000429241
0.000434682
0.000409243
0.000376836
0.000353657
0.000341107
0.000333846
1.14147e-05
0.000104155
0.000233043
0.000339054
0.000401154
0.000417896
0.000402528
0.000374066
0.000348324
0.00032752
0.000304537
7.83098e-06
9.44619e-05
0.000189373
0.000284993
0.000341671
0.000369015
0.000371953
0.000356985
0.00033501
0.000308282
0.000266771
6.0081e-05
0.000329363
0.000412646
0.000448939
0.000471644
0.000490337
0.00050372
0.000507244
0.000492014
0.000448492
0.000384815
3.92914e-05
0.000264906
0.000391056
0.000446992
0.000473746
0.000489537
0.00049701
0.000495743
0.000480575
0.000441228
0.000380847
3.21076e-05
0.000230094
0.0003839
0.000465928
0.000498804
0.00051372
0.000518562
0.000513356
0.000494101
0.000452088
0.00038942
3.07654e-05
0.000190829
0.000347431
0.000459524
0.000511255
0.000529015
0.000530217
0.000521956
0.000503424
0.000467169
0.0004055
3.13276e-05
0.000174297
0.00031971
0.000433811
0.000495374
0.000521791
0.000528619
0.000524119
0.000506828
0.000468772
0.000404329
3.21512e-05
0.00016207
0.000298461
0.00040615
0.000467922
0.000501569
0.000518553
0.000522963
0.000511117
0.000476124
0.000415097
3.31299e-05
0.000151893
0.000279756
0.000379684
0.000440457
0.000478485
0.000503428
0.000516467
0.000511258
0.000479674
0.00041917
3.42509e-05
0.000143779
0.00026387
0.000356452
0.00041499
0.000455184
0.000485819
0.000506173
0.000507902
0.000482573
0.000429504
3.52667e-05
0.000136859
0.000250291
0.000336649
0.000392694
0.000433899
0.00046865
0.000495172
0.000503752
0.000484417
0.000433931
3.60471e-05
0.000130123
0.000238002
0.000319595
0.000373602
0.000415434
0.000453335
0.000484949
0.00049932
0.000484014
0.000432931
3.672e-05
0.000123675
0.000226791
0.00030473
0.000357221
0.000399601
0.000440068
0.000475877
0.000494842
0.000482769
0.000435682
3.72724e-05
0.000117955
0.000216868
0.000291795
0.000343106
0.000386017
0.000428709
0.000468179
0.000491194
0.000482117
0.000436707
3.75692e-05
0.000112463
0.000207777
0.000280402
0.000330955
0.000374493
0.000419259
0.000462175
0.000489088
0.000482733
0.000437545
3.76537e-05
0.000106686
0.000198881
0.000270059
0.000320412
0.000364777
0.000411585
0.000457904
0.000488667
0.000484706
0.000440838
3.74397e-05
0.00010106
0.000190348
0.000260552
0.000311076
0.000356429
0.000405284
0.000455085
0.000489935
0.000488424
0.000444328
3.69007e-05
9.52481e-05
0.000181743
0.000251438
0.000302524
0.000349031
0.000399913
0.000453344
0.000492859
0.000494303
0.000450291
3.60599e-05
8.70718e-05
0.000169819
0.00023947
0.000291318
0.000338527
0.000390823
0.000448199
0.000494498
0.00050143
0.000458694
3.472e-05
7.78612e-05
0.000154894
0.000223758
0.000275446
0.000320944
0.000370126
0.000425963
0.000476027
0.000492214
0.000461603
3.28499e-05
6.77386e-05
0.000136687
0.000203485
0.000254455
0.000296687
0.000338929
0.00038664
0.000433729
0.000458143
0.000447446
3.04103e-05
5.69537e-05
0.000115357
0.000177898
0.000227588
0.000266218
0.00029994
0.000334843
0.00037063
0.000395373
0.000402382
2.73294e-05
4.59739e-05
9.19663e-05
0.000147107
0.000194282
0.000229831
0.000256281
0.000278391
0.000298687
0.000313723
0.000323485
2.35363e-05
3.56095e-05
6.89637e-05
0.000113382
0.000155381
0.000187893
0.000209796
0.000223443
0.0002315
0.000234507
0.000234733
1.88924e-05
2.58874e-05
4.78239e-05
8.00119e-05
0.000113521
0.000141367
0.000160429
0.000170755
0.000173762
0.000170769
0.000163882
1.32793e-05
2.39221e-05
4.14362e-05
6.05079e-05
8.02649e-05
9.76011e-05
0.000110488
0.000118104
0.000120428
0.000117866
0.000111434
5.57296e-05
0.000266608
0.000310666
0.000439112
0.000500126
0.000537542
0.000547148
0.000548061
0.000526642
0.000473725
0.000402179
4.07141e-05
0.000158209
0.000203315
0.00026343
0.000336301
0.000484367
0.000576064
0.00058854
0.00056888
0.000513331
0.000433818
3.67805e-05
0.000114467
0.000166906
0.000212982
0.000270342
0.000363923
0.000562424
0.000626115
0.000616736
0.000563464
0.00047582
3.48587e-05
0.000100044
0.000148265
0.00018801
0.000236957
0.000312827
0.000491739
0.000652062
0.000668491
0.000623333
0.000532096
3.23085e-05
0.000104194
0.000141112
0.000174018
0.000216012
0.000282942
0.000441677
0.000664342
0.000720705
0.000688457
0.000595944
3.03414e-05
0.000116597
0.000142518
0.000167155
0.000201535
0.000260867
0.000403236
0.000633583
0.000763617
0.000752375
0.000656367
3.24895e-05
0.000135215
0.000151351
0.000166152
0.000191799
0.000243341
0.000370741
0.000589786
0.000771098
0.000811952
0.000721733
3.67131e-05
0.000159211
0.000167078
0.000170613
0.00018644
0.00023001
0.000344042
0.000546257
0.000745966
0.000839039
0.000782984
4.05036e-05
0.000185596
0.000188857
0.000180099
0.000184875
0.000220132
0.000321858
0.000505661
0.000704558
0.000826351
0.00080751
4.34392e-05
0.000210935
0.00021509
0.000194236
0.00018671
0.000213114
0.000303075
0.000468277
0.00065612
0.000787476
0.000796703
4.53701e-05
0.000231457
0.000243246
0.000212501
0.000191716
0.000208373
0.000286434
0.000433011
0.00060478
0.00073323
0.000757678
4.66222e-05
0.000247972
0.000271349
0.000233983
0.000199828
0.000206058
0.000272204
0.000400702
0.000554239
0.000672753
0.000699879
4.71854e-05
0.000261825
0.000297141
0.000257516
0.000210931
0.000206093
0.000260028
0.000370815
0.000505359
0.000610704
0.0006334
4.69391e-05
0.000269385
0.000318093
0.00028195
0.000224997
0.000208488
0.000249622
0.00034283
0.000458227
0.000549196
0.000567262
4.60426e-05
0.000272674
0.000334048
0.000305764
0.000241645
0.000213495
0.000241492
0.00031738
0.000413855
0.000490167
0.00050427
4.46231e-05
0.000272059
0.000344693
0.000327291
0.000260292
0.00022129
0.000235965
0.000294792
0.000372678
0.000434723
0.000445309
4.27721e-05
0.000265292
0.000349454
0.000344732
0.000279853
0.000231974
0.000233735
0.000275846
0.000335451
0.000383625
0.000391334
4.00774e-05
0.000252769
0.000346832
0.00035594
0.000298523
0.000245377
0.000235736
0.000261981
0.000303565
0.000337752
0.000342065
3.66097e-05
0.000235779
0.000333416
0.000358449
0.000313709
0.000261219
0.000243397
0.000255225
0.000279162
0.000298741
0.000298472
3.24033e-05
0.000214615
0.000310294
0.000346376
0.000324073
0.000280115
0.000259251
0.00025862
0.00026528
0.000269457
0.000261242
2.73085e-05
0.000183066
0.00027604
0.000315878
0.000321876
0.000298558
0.000280351
0.000269414
0.000259728
0.000248597
0.000230325
2.34741e-05
0.000161849
0.000232253
0.000263808
0.000274757
0.000270902
0.000255461
0.000230327
0.000202779
0.00017403
0.000142392
1.53809e-05
0.000101201
0.000116635
0.000106224
9.55937e-05
8.24986e-05
7.04061e-05
6.1433e-05
5.41614e-05
4.80279e-05
4.25292e-05
9.49986e-06
1.06458e-05
1.18608e-05
1.39113e-05
1.69006e-05
2.05868e-05
2.46686e-05
2.87276e-05
3.22887e-05
3.49222e-05
3.6317e-05
3.37796e-05
0.000105214
9.89107e-05
0.000103482
9.24105e-05
7.3765e-05
5.76686e-05
4.7917e-05
4.15249e-05
3.64844e-05
3.19397e-05
2.84556e-05
9.14563e-05
7.2772e-05
0.000102861
0.00010009
7.92213e-05
5.88568e-05
4.65925e-05
3.90729e-05
3.35126e-05
2.88178e-05
2.81442e-05
7.65874e-05
6.78982e-05
8.07794e-05
9.8852e-05
8.59065e-05
6.20811e-05
4.69043e-05
3.80372e-05
3.18627e-05
2.6873e-05
2.95762e-05
6.75916e-05
6.65604e-05
7.31732e-05
8.92995e-05
9.17583e-05
6.63977e-05
4.83681e-05
3.80764e-05
3.13122e-05
2.62132e-05
3.10346e-05
6.39627e-05
6.58738e-05
6.90294e-05
8.25738e-05
9.51068e-05
7.13426e-05
5.07277e-05
3.89573e-05
3.15782e-05
2.64054e-05
3.18103e-05
6.32521e-05
6.5583e-05
6.60484e-05
7.59763e-05
9.17677e-05
7.65578e-05
5.3918e-05
4.05547e-05
3.24631e-05
2.70806e-05
3.20043e-05
6.44879e-05
6.6006e-05
6.4233e-05
7.01449e-05
8.38676e-05
7.90539e-05
5.81801e-05
4.28221e-05
3.38682e-05
2.81212e-05
3.17511e-05
6.75608e-05
6.75538e-05
6.37606e-05
6.60375e-05
7.57689e-05
7.73891e-05
6.23845e-05
4.61012e-05
3.58787e-05
2.95316e-05
3.10228e-05
7.17761e-05
7.03722e-05
6.4482e-05
6.34338e-05
6.89872e-05
7.2732e-05
6.48528e-05
4.9949e-05
3.85475e-05
3.14107e-05
2.98843e-05
7.65483e-05
7.45408e-05
6.6364e-05
6.20459e-05
6.36244e-05
6.66239e-05
6.43048e-05
5.36165e-05
4.18394e-05
3.37719e-05
2.85818e-05
8.22856e-05
8.03443e-05
6.96748e-05
6.21038e-05
6.01198e-05
6.10284e-05
6.11118e-05
5.58092e-05
4.5508e-05
3.66611e-05
2.73408e-05
8.97044e-05
8.82154e-05
7.46917e-05
6.37542e-05
5.85794e-05
5.71042e-05
5.70999e-05
5.57129e-05
4.88596e-05
4.00537e-05
2.64055e-05
9.86725e-05
9.84871e-05
8.1751e-05
6.70442e-05
5.8686e-05
5.47929e-05
5.35008e-05
5.36292e-05
5.08691e-05
4.366e-05
2.59466e-05
0.000108563
0.000111366
9.14148e-05
7.23051e-05
6.0399e-05
5.3957e-05
5.08822e-05
5.0622e-05
5.07472e-05
4.67584e-05
2.60099e-05
0.000120571
0.000127451
0.000104329
8.00054e-05
6.39555e-05
5.47143e-05
4.96527e-05
4.7978e-05
4.883e-05
4.83048e-05
2.65868e-05
0.000134321
0.000146861
0.00012138
9.09521e-05
6.97776e-05
5.71792e-05
4.98759e-05
4.63613e-05
4.62601e-05
4.76436e-05
2.69914e-05
0.00014728
0.000168434
0.00014337
0.000106474
7.88035e-05
6.18369e-05
5.17611e-05
4.61158e-05
4.41783e-05
4.53147e-05
2.66139e-05
0.00015831
0.000190327
0.000170226
0.000127963
9.24329e-05
6.96714e-05
5.59163e-05
4.7689e-05
4.34731e-05
4.28267e-05
2.5402e-05
0.000165385
0.000209482
0.000199894
0.000156448
0.00011272
8.24756e-05
6.36025e-05
5.19077e-05
4.49267e-05
4.17085e-05
2.33617e-05
0.000166822
0.000222271
0.000227552
0.000191008
0.000142034
0.000103283
7.73917e-05
6.0645e-05
4.98944e-05
4.34367e-05
2.05046e-05
0.000156768
0.000224994
0.000247464
0.000227618
0.000182033
0.000136796
0.000102261
7.80551e-05
6.15335e-05
5.04811e-05
1.79555e-05
0.000143282
0.000217631
0.000255421
0.000256989
0.000227647
0.000185279
0.000144623
0.000111576
8.67173e-05
6.8583e-05
1.3724e-05
0.00011087
0.000159069
0.000198631
0.000220553
0.000224817
0.000212052
0.000186759
0.000156926
0.000128855
0.000104653
1.0619e-05
3.87565e-05
5.37872e-05
7.41448e-05
9.62301e-05
0.000118621
0.000138334
0.000148217
0.000147956
0.000140319
0.000127806
2.80628e-05
9.51143e-05
9.58302e-05
9.6091e-05
8.8996e-05
7.36953e-05
6.03213e-05
5.17871e-05
4.60418e-05
4.14899e-05
3.73572e-05
1.90804e-05
8.0955e-05
9.85269e-05
0.000104062
9.74412e-05
8.24149e-05
6.81007e-05
5.87111e-05
5.26834e-05
4.81899e-05
4.4302e-05
1.93378e-05
7.33631e-05
9.80333e-05
0.000120538
0.000114347
9.76923e-05
8.00295e-05
6.81132e-05
6.11259e-05
5.64211e-05
5.27027e-05
2.16726e-05
6.85245e-05
9.56549e-05
0.000132003
0.000135427
0.000123355
0.000104318
8.83085e-05
7.77563e-05
7.12626e-05
6.69481e-05
2.46013e-05
6.40008e-05
9.60135e-05
0.00013746
0.000144068
0.000134214
0.000115263
9.88888e-05
8.83276e-05
8.19918e-05
7.80266e-05
2.74422e-05
6.05808e-05
9.66813e-05
0.000138738
0.000147898
0.000141242
0.00012351
0.000107315
9.65893e-05
9.01781e-05
8.63096e-05
3.00793e-05
5.81795e-05
9.71083e-05
0.000138313
0.000149657
0.00014615
0.000129973
0.000114664
0.000104369
9.83994e-05
9.51823e-05
3.25462e-05
5.65321e-05
9.72867e-05
0.000137472
0.000150912
0.000150155
0.000135722
0.000121659
0.000112192
0.000107173
0.000105257
3.46785e-05
5.53679e-05
9.72961e-05
0.000136828
0.00015244
0.000153831
0.000141283
0.000128453
0.000119875
0.000115848
0.000115006
3.64609e-05
5.44396e-05
9.72853e-05
0.00013646
0.000154398
0.000157626
0.00014691
0.000135127
0.000127332
0.000124228
0.000124432
3.78751e-05
5.35604e-05
9.70829e-05
0.000136477
0.000156659
0.00016178
0.000152759
0.000141748
0.000134473
0.000131996
0.00013258
3.90156e-05
5.2668e-05
9.66735e-05
0.000136702
0.000159104
0.00016628
0.000158884
0.000148388
0.000141321
0.00013924
0.000140339
3.98015e-05
5.16237e-05
9.59563e-05
0.000136942
0.000161653
0.000171132
0.000165395
0.000155182
0.000147955
0.000145992
0.00014789
4.0139e-05
4.90354e-05
9.28038e-05
0.000135085
0.000162516
0.000175104
0.000171906
0.000162255
0.000154566
0.000152283
0.000154529
3.996e-05
4.59555e-05
8.70458e-05
0.000129752
0.000159252
0.000175123
0.000176021
0.000168738
0.00016131
0.000158514
0.000160573
3.92301e-05
4.25237e-05
7.89497e-05
0.0001207
0.000151633
0.00017035
0.00017612
0.000173155
0.000167601
0.000164706
0.000166192
3.79386e-05
3.88828e-05
6.90601e-05
0.000107857
0.000139338
0.000160181
0.000170504
0.000172976
0.000171487
0.00017008
0.000171356
3.60019e-05
3.5288e-05
5.85826e-05
9.21874e-05
0.000122624
0.000144588
0.000158198
0.000165522
0.000169289
0.000171732
0.00017464
3.3369e-05
3.17569e-05
4.84753e-05
7.52027e-05
0.000102399
0.000124027
0.000139266
0.000149536
0.000157279
0.000164214
0.000171052
3.0004e-05
2.81597e-05
3.92592e-05
5.8545e-05
8.03926e-05
9.973e-05
0.000114794
0.000125968
0.000135016
0.000143767
0.00015329
2.586e-05
2.43114e-05
3.11001e-05
4.35874e-05
5.89742e-05
7.40696e-05
8.70427e-05
9.7424e-05
0.000105883
0.000113614
0.000121788
2.0948e-05
1.99916e-05
2.38561e-05
3.09911e-05
4.02365e-05
5.00914e-05
5.9385e-05
6.74887e-05
7.43434e-05
8.02966e-05
8.59056e-05
1.53005e-05
1.46583e-05
1.6639e-05
2.00826e-05
2.45888e-05
2.96462e-05
3.4778e-05
3.96551e-05
4.40992e-05
4.80857e-05
5.16956e-05
9.24769e-06
9.70651e-06
1.1578e-05
1.38505e-05
1.64469e-05
1.92047e-05
2.19405e-05
2.60656e-05
3.18025e-05
3.92314e-05
4.81124e-05
6.41458e-06
6.75405e-06
8.37831e-06
1.2602e-05
1.46153e-05
1.59016e-05
1.68848e-05
1.76632e-05
1.83147e-05
2.90069e-05
2.39506e-05
2.52775e-05
3.39799e-05
5.50153e-05
8.43791e-05
0.00011317
0.000137734
0.000160867
4.11678e-05
3.34105e-05
4.13134e-05
6.56801e-05
0.000111246
0.000169645
0.000219489
0.000268415
0.000310657
5.46189e-05
4.33651e-05
5.59678e-05
9.38623e-05
0.000161753
0.000249385
0.000319958
0.000383909
0.000432939
5.77142e-06
8.91501e-06
1.32084e-05
1.53462e-05
1.65697e-05
1.73737e-05
1.79499e-05
1.82497e-05
1.84536e-05
2.05192e-05
2.3103e-05
3.05293e-05
4.7384e-05
7.42351e-05
0.000106466
0.000131113
0.000152597
0.000168326
3.17357e-05
3.79512e-05
5.8115e-05
9.7617e-05
0.00015506
0.000214632
0.000262345
0.000302845
0.000325098
4.42006e-05
5.23126e-05
8.39811e-05
0.000144701
0.000232419
0.000317436
0.000376323
0.000424715
0.000446473
0.000195667
0.000229705
0.000229759
0.000312433
0.000391437
0.00022935
9.88232e-05
0.000229447
0.0002294
0.000233635
0.000389644
0.000229495
0.000167948
0.000219248
0.00012384
0.000228696
0.00021944
0.000307392
0.000228686
0.000228574
0.000229567
3.11063e-05
0.00022998
0.00010715
0.000229348
0.000219907
0.000171895
9.94577e-05
0.000430953
0.000421392
0.000219905
0.00023553
0.0001796
0.000229421
0.000240557
0.000229664
0.000105322
0.000229344
0.000156971
0.000229366
2.03579e-05
0.000229459
0.000108241
0.000229956
0.000448247
5.92543e-05
7.03597e-05
0.000114558
0.00023956
0.000229245
0.000392898
0.000229343
0.0001507
0.000109853
0.000229215
0.000229362
3.03081e-05
0.000229347
0.000419982
0.000148398
2.35297e-05
0.00013618
0.000463178
0.000421132
2.82473e-05
0.000228551
0.000270273
0.000229877
0.000229707
0.000233061
0.000185305
0.000233647
0.000115038
0.00024505
0.000341989
0.000231964
2.21656e-05
0.000229686
0.000164871
0.00048099
0.000145911
0.000375603
0.000229277
0.000229786
0.000247038
0.000116505
0.000385056
0.000110038
5.87149e-05
0.000112865
0.000229479
0.000229323
2.23902e-05
0.00023303
0.000482442
0.000139378
0.000293604
0.000237297
4.93449e-05
0.000236907
0.000252129
0.000120093
0.000229966
0.000235762
7.57728e-05
0.000229494
0.000194365
0.000229867
0.000185334
0.000235972
0.000229346
0.000229513
0.000230843
0.000221462
0.000130791
0.000229036
0.000229387
0.000228846
0.000229273
0.000229117
0.000171548
0.000242019
0.000258161
0.000216297
5.39874e-05
0.000219027
0.00020472
0.000185994
0.000217396
0.000208282
0.000229269
0.000152693
0.000114563
0.000232435
0.000229776
0.00023218
2.27762e-05
0.000271797
0.000427855
0.000244378
0.000102816
0.000231235
0.000269868
0.000167621
0.000229377
4.81603e-05
0.000116959
0.000229703
0.000235678
0.000228923
0.000228893
0.000229191
4.32475e-05
0.00024114
0.000296712
7.28417e-05
0.000121748
2.83995e-05
0.000169005
0.00022881
0.00021453
4.08155e-05
0.000233174
0.000229152
0.000299651
0.000168826
9.66091e-05
0.000243533
0.00023855
2.74422e-05
0.000207241
0.000163841
0.00023311
0.000229418
0.000234813
0.000219777
0.000161891
4.03102e-05
0.000444767
0.000199076
0.00022944
2.77073e-05
0.000229941
0.000124378
0.000229276
0.000405525
0.000229075
0.000228782
0.00022964
0.000186686
0.000192808
0.00021962
0.00022852
1.94673e-05
0.000229742
0.000229011
0.000229466
4.66809e-05
0.000205738
0.000230001
4.30084e-05
0.000229324
0.000204108
0.000216574
0.000229826
0.000108134
0.000232193
0.000217475
0.000229359
0.000228703
0.0001119
0.000228991
0.00017478
0.000238525
0.000229288
0.000198658
0.00022937
6.73605e-05
0.000229021
0.000130113
0.000133506
0.000174504
0.000302171
0.000130353
0.000213832
0.000229352
9.74015e-05
0.000174363
0.000196155
0.000438038
3.09205e-05
0.000228489
0.000228936
0.00024356
4.26994e-05
0.000261534
0.000170559
0.000229893
0.000229524
0.000229478
6.83123e-05
0.00049287
0.000235838
1.69714e-05
0.000234522
3.71874e-05
0.000229358
0.000208157
0.000215394
0.000210875
0.000209289
0.000111991
0.00024399
0.000228617
0.000233443
0.000229459
0.000229349
0.000229298
7.10178e-05
0.000229198
0.000129312
0.000194625
0.000228185
0.000229581
0.000229343
7.35454e-05
0.000231682
0.000233419
0.000159251
0.000177444
0.000168546
0.000229021
0.000229326
7.0553e-05
0.00022903
0.000228886
0.000216136
0.000229154
0.000238151
6.31618e-05
0.000235395
0.000229735
0.000144009
0.000153954
0.000233048
0.000229025
0.000324518
0.000229661
0.000237847
9.34433e-05
0.000229793
0.000112882
0.000248
0.000118641
0.00023
0.000229404
0.000238715
0.000229545
0.000240151
0.000214203
0.000229197
0.00010476
0.000242311
0.000429342
0.000229275
0.000236097
0.000229684
0.000121946
2.71344e-05
0.000229144
6.10452e-05
0.000229548
0.000233805
0.000185896
2.65623e-05
0.000231376
0.000209159
0.000111117
0.0002287
0.000237512
0.000228995
0.000136974
0.000228925
0.000186557
0.000267501
0.000236045
0.000229185
0.000223049
0.000228195
0.000301624
0.000231793
0.00046651
1.96118e-05
0.000229952
0.000147293
0.00025452
0.000123278
0.000229636
0.000229228
0.000238062
5.15123e-05
0.00011199
0.000229279
0.000154219
0.000164252
0.000121496
0.000145787
0.000229024
0.000106336
0.000225789
6.07621e-05
0.000236434
0.000177567
0.000229258
0.000109845
0.000230037
0.000128918
0.000206384
0.000229954
0.000297829
0.00013487
0.000218265
0.000229397
0.00022933
0.000229571
7.74712e-05
0.000172819
7.49866e-05
6.87642e-05
0.000256902
0.000229152
0.000101057
0.000247212
0.000214346
0.0001173
0.000229758
0.000151458
0.000240462
0.000228968
0.000228862
0.000122043
0.000228946
4.8388e-05
0.000229323
0.000220258
0.000243635
0.000113687
0.000212129
0.000483436
5.24179e-05
0.000229197
4.86808e-05
0.000200876
0.000250176
0.000232335
2.82623e-05
0.000229261
0.000228833
0.000229852
0.000110054
7.14731e-05
0.000228988
0.000229995
9.19176e-05
0.000178272
2.41043e-05
0.00010799
0.000145916
0.000229322
0.000138653
0.000238424
0.000228648
0.000211315
0.000213131
4.99882e-05
0.000233606
0.000194094
0.000252978
0.000194924
5.13747e-05
0.000272542
0.000156983
9.17974e-05
0.000183985
0.000226758
0.000235158
0.000243875
7.60124e-05
0.000188523
3.65694e-05
0.000229252
4.88788e-05
0.000211889
0.00022855
0.000234314
9.52197e-05
0.00017245
0.000389508
0.000216509
0.000230038
0.000235445
0.000376473
0.000309633
0.000110324
0.00023284
7.3176e-05
0.000139781
2.60364e-05
0.000228755
2.9991e-05
0.000229195
0.000229733
0.000229334
5.02429e-05
9.8551e-05
6.81904e-05
0.00020748
3.88258e-05
8.38025e-05
0.000229633
0.000228738
0.000209224
0.000193176
0.000233475
0.000236799
4.09653e-05
4.52338e-05
2.96835e-05
2.93526e-05
0.000231629
0.000211144
7.24524e-05
0.000229154
2.33176e-05
0.000234912
0.000229635
0.000229053
8.05634e-05
2.79001e-05
0.000228975
0.000229182
0.000229636
0.000486321
2.62888e-05
0.000229897
5.30563e-05
0.000366058
0.000156342
8.22074e-05
0.00022872
4.38686e-05
0.000229009
0.000234392
0.00022935
0.000210805
0.000150284
0.00022854
0.00019143
0.000168336
0.000232932
0.000227486
0.000222942
0.000229421
0.000229427
0.000261088
8.24285e-05
0.000104874
0.000232046
0.000106041
0.000229762
0.000169314
0.00010794
4.60363e-05
0.000177364
0.000251859
0.000193961
9.62098e-05
0.00019195
0.000229159
0.000181064
0.00022879
0.000229723
0.00022912
0.000229584
0.000233845
0.000119926
0.000229339
0.000228779
0.00011218
0.000229207
4.20055e-05
0.000241209
0.000124709
0.000172637
6.27864e-05
0.000229994
0.00022929
0.00022992
1.85336e-05
2.80029e-05
0.000229308
0.000229322
0.000216811
0.00022981
0.000270575
0.000229755
0.000271932
0.000236856
3.02166e-05
0.000139902
0.000137304
6.7054e-05
0.000174313
0.000229318
0.000231794
0.000235219
0.000229739
9.66103e-05
2.54732e-05
0.000223773
0.000217427
0.00013137
9.77957e-05
0.000229351
0.000229597
0.000229707
0.000143823
0.000185267
8.68675e-05
0.000229455
0.000229325
0.000152483
0.000230777
0.000138191
0.000216609
0.000134481
0.000267055
0.00022925
9.17031e-05
0.000229259
9.38772e-05
0.000229471
0.00033682
0.000156914
0.000234512
2.73756e-05
0.000152393
0.000229922
0.000229997
0.000479442
0.000229043
0.000179533
0.000429628
0.000102718
0.000162607
5.11849e-05
0.000198538
0.000231258
0.000229251
0.000229239
0.000150276
7.70807e-05
0.0001172
0.000228546
0.000229369
9.84362e-05
0.000229285
0.000235489
0.000236129
0.000233793
0.000153039
7.55596e-05
0.000101926
0.000159644
0.000233197
0.000234695
0.000228609
0.000106377
0.000231801
0.000229197
0.00021165
0.000111964
0.000228956
0.000228961
2.26633e-05
0.00022998
0.000228706
0.000147453
0.000229754
0.000234586
0.000146824
0.000125639
0.000157131
0.000223329
0.000167185
7.06673e-05
0.000123192
7.17889e-05
0.000115135
0.000172345
7.7156e-05
0.000119546
0.000130447
0.000229765
0.000230239
0.000253698
0.000229757
0.000229248
0.000244607
0.00021146
0.000102726
0.000208441
0.000186169
0.000245782
0.000229159
0.000197812
0.000229507
0.00022885
0.00023644
0.000124452
0.000231941
0.000232768
0.000230898
0.000229676
0.000474605
6.29804e-05
0.000418272
0.000232014
0.000229753
0.000189479
8.2019e-05
0.000236053
0.000178058
0.000231645
0.000369692
0.000145683
0.000229215
9.64522e-05
0.000229917
0.000181204
0.000483737
0.000149555
0.000178394
0.000212762
0.000245952
0.000229822
0.000104209
0.000193183
4.72505e-05
0.000202974
0.000228992
0.000233488
0.000229807
0.00015903
0.000229641
6.33395e-05
0.000229507
0.000229361
0.000229037
0.00017105
8.23408e-05
0.000229544
0.000135599
0.000229213
0.000176558
0.000168662
0.000231008
0.000451359
1.58742e-05
0.000121925
0.000236175
0.000217251
0.000188555
0.000118319
0.000193876
9.43702e-05
0.000229205
0.000191355
0.000229299
0.000231646
5.64932e-05
0.000195803
4.1248e-05
0.000219577
0.000230594
0.000234807
0.000229131
7.77637e-05
0.000229618
0.000229275
8.2149e-05
0.000275489
0.000234194
0.000137803
0.000117041
0.000169072
0.000242697
0.000174501
2.85225e-05
9.72919e-05
0.0002294
0.000217731
0.000127096
0.000229499
4.44807e-05
0.000125228
0.000245292
0.000365369
0.000229331
0.000233434
0.000234934
0.000137107
0.000236086
0.000210705
0.000229595
0.000179845
0.000234394
0.00012474
8.12783e-05
0.000110483
0.000182821
0.000228771
0.000161778
6.7951e-05
0.000229217
0.000221462
0.000186786
7.48258e-05
0.000244305
2.80489e-05
0.000244889
0.000130562
0.000138963
0.000252954
0.000228822
0.000247043
0.000229143
0.000173803
2.24168e-05
0.00023004
0.000229248
0.000252011
0.000356639
0.000125118
0.000198217
0.000229599
0.000188884
0.000252002
0.000229509
0.000229606
0.000229843
0.000229284
0.000234003
0.000167295
4.80016e-05
9.46671e-05
0.000185247