/*--------------------------------*- C++ -*----------------------------------*\
| =========                 |                                                 |
| \\      /  F ield         | OpenFOAM: The Open Source CFD Toolbox           |
|  \\    /   O peration     | Version:  3.0.1                                 |
|   \\  /    A nd           | Web:      www.OpenFOAM.org                      |
|    \\/     M anipulation  |                                                 |
\*---------------------------------------------------------------------------*/
FoamFile
{
    version     2.0;
    format      ascii;
    class       volVectorField;
    location    "0.303887";
    object      U;
}
// * * * * * * * * * * * * * * * * * * * * * * * * * * * * * * * * * * * * * //

dimensions      [0 1 -1 0 0 0 0];

internalField   nonuniform List<vector> 
21246
(
(5.11861 -1.7031 -1.33214e-18)
(4.07698 -1.20187 0)
(4.29606 -1.15268 -1.0711e-19)
(4.31381 -1.06472 0)
(4.15638 -0.906397 0)
(3.92448 -0.693176 5.77774e-21)
(3.70223 -0.507703 4.16169e-20)
(3.50223 -0.377764 -2.70769e-20)
(3.33451 -0.308605 2.73198e-20)
(3.19398 -0.289437 0)
(3.08764 -0.309605 -1.98114e-20)
(3.95876 -0.375825 -8.24251e-18)
(3.09718 -0.391066 0)
(3.36735 -0.86087 2.14509e-20)
(3.55141 -1.0636 0)
(3.60895 -1.08831 7.20272e-19)
(3.58771 -0.984521 -1.7188e-19)
(3.51467 -0.802981 -3.55162e-19)
(3.40294 -0.607842 2.836e-20)
(3.28797 -0.476541 0)
(3.1867 -0.417539 -6.27646e-20)
(3.10557 -0.412875 7.41292e-20)
(3.81035 1.08731 -3.29444e-18)
(3.13846 0.379218 0)
(3.0246 -0.273351 2.87137e-18)
(3.04649 -0.676832 -4.22497e-18)
(3.10391 -0.915192 1.36493e-18)
(3.16613 -0.9939 1.80624e-20)
(3.20766 -0.924523 1.13781e-19)
(3.21052 -0.76324 0)
(3.18282 -0.606542 0)
(3.13753 -0.507772 8.69757e-21)
(3.098 -0.479014 0)
(4.18486 1.7977 0)
(3.46507 0.963996 0)
(3.05267 0.332241 0)
(2.8617 -0.167454 2.66544e-18)
(2.80189 -0.547122 -1.43984e-18)
(2.82701 -0.779392 0)
(2.89794 -0.846962 -1.107e-19)
(2.97447 -0.776975 5.36765e-19)
(3.03021 -0.652334 -7.21332e-19)
(3.05234 -0.548286 2.37361e-19)
(3.05959 -0.502149 1.41711e-19)
(4.46876 1.90937 0)
(3.73446 1.32811 0)
(3.20865 0.791605 0)
(2.86763 0.294194 1.34871e-18)
(2.68155 -0.133165 -7.33447e-19)
(2.62346 -0.452506 1.17029e-18)
(2.66467 -0.62816 -2.07068e-19)
(2.7632 -0.658526 -1.35422e-18)
(2.87229 -0.599601 8.06921e-20)
(2.95337 -0.524605 5.30467e-19)
(3.00742 -0.484026 1.43331e-19)
(4.44032 1.79197 -1.59491e-18)
(3.913 1.5266 1.20391e-18)
(3.37547 1.10076 0)
(2.95996 0.663374 0)
(2.68346 0.249881 -6.29397e-19)
(2.54496 -0.0986664 -1.16138e-18)
(2.53431 -0.339811 1.1896e-18)
(2.61958 -0.452933 3.47492e-19)
(2.74842 -0.467938 3.97964e-19)
(2.86641 -0.441682 -3.24422e-19)
(2.95636 -0.423711 -2.55215e-20)
(4.4082 1.67146 -4.70399e-19)
(4.00651 1.57736 1.42121e-18)
(3.53911 1.29429 0)
(3.09199 0.936909 0)
(2.76424 0.569173 0)
(2.56666 0.23083 7.49822e-19)
(2.50545 -0.0377837 -1.55766e-18)
(2.56098 -0.206948 -2.71528e-19)
(2.68387 -0.286642 4.05321e-19)
(2.81435 -0.313953 -5.41855e-19)
(2.92349 -0.330655 4.17486e-20)
(4.34419 1.54497 -3.76704e-19)
(4.02101 1.54384 3.04125e-18)
(3.65722 1.37297 -4.8547e-19)
(3.24217 1.12271 1.36371e-18)
(2.89276 0.809833 -1.52281e-18)
(2.6629 0.50533 6.92047e-19)
(2.56433 0.237667 4.7646e-19)
(2.58707 0.0384205 1.2786e-18)
(2.68844 -0.0892761 -4.59275e-19)
(2.81163 -0.16523 -5.06457e-19)
(2.92224 -0.218528 3.72595e-19)
(4.26915 1.42415 1.43008e-18)
(4.00264 1.48585 -2.44054e-18)
(3.72225 1.3714 -1.52514e-20)
(3.3811 1.21774 3.29202e-19)
(3.04606 0.97046 4.74976e-19)
(2.80918 0.709766 -6.78265e-19)
(2.69045 0.46086 -3.31624e-20)
(2.68469 0.252034 0)
(2.75726 0.0943242 -3.90134e-19)
(2.85929 -0.0185883 1.92506e-20)
(2.95774 -0.104385 6.85822e-19)
(4.20311 1.31308 6.47348e-19)
(3.9791 1.42093 0)
(3.76334 1.3278 -3.84641e-19)
(3.49365 1.23794 2.8937e-19)
(3.20641 1.05756 0)
(2.98404 0.842271 5.68663e-19)
(2.86067 0.620268 -1.2537e-18)
(2.8334 0.415492 8.31258e-19)
(2.87593 0.243124 -3.69267e-19)
(2.94964 0.105765 -1.53527e-22)
(3.02557 -0.00429689 -3.22474e-19)
(4.15596 1.21177 -3.04999e-19)
(3.9649 1.35491 0)
(3.79754 1.26261 0)
(3.59019 1.21189 -2.50598e-19)
(3.35919 1.08036 3.83913e-19)
(3.16914 0.907785 2.59627e-19)
(3.05269 0.714227 -3.60931e-19)
(3.01114 0.521598 2.72533e-19)
(3.02636 0.346243 0)
(3.07032 0.195766 -2.35988e-19)
(3.11985 0.0703456 0)
(4.12656 1.11795 -1.36837e-19)
(3.96229 1.28691 1.02101e-19)
(3.83189 1.18465 -6.20675e-19)
(3.67477 1.15586 2.40741e-19)
(3.50022 1.05484 0)
(3.34964 0.915794 -7.32634e-19)
(3.24737 0.748629 3.62943e-19)
(3.19828 0.572032 0)
(3.19114 0.401645 3.0495e-19)
(3.20714 0.247506 -4.28458e-19)
(3.22971 0.11403 4.13354e-19)
(4.11368 1.03041 1.34584e-19)
(3.97342 1.21842 -1.00581e-19)
(3.87175 1.10151 2.19294e-19)
(3.75432 1.08159 -2.28121e-19)
(3.63028 0.997673 0)
(3.51701 0.881004 -1.12708e-19)
(3.43211 0.735702 0)
(3.38088 0.575335 -2.10932e-19)
(3.35702 0.413408 2.99837e-19)
(3.34883 0.260715 -1.05424e-19)
(3.34532 0.124914 4.9947e-20)
(4.12009 0.950868 7.87875e-21)
(4.00276 1.14782 -3.73107e-19)
(3.923 1.01966 3.64742e-19)
(3.837 0.998363 0)
(3.75094 0.922247 0)
(3.66915 0.818977 3.15155e-19)
(3.60165 0.689474 -2.41133e-20)
(3.55193 0.542395 -9.73642e-20)
(3.51639 0.388865 1.31227e-19)
(3.48787 0.239979 -9.78679e-20)
(3.46087 0.104594 -6.13475e-20)
(4.14522 0.875195 4.77946e-19)
(4.04667 1.07612 -1.81006e-20)
(3.98405 0.938015 -2.83607e-19)
(3.92142 0.911978 2.49151e-19)
(3.8631 0.838278 -1.0925e-20)
(3.80648 0.741451 -2.63892e-21)
(3.75507 0.621208 3.55697e-21)
(3.7092 0.482577 3.49345e-20)
(3.66558 0.33461 0)
(3.61954 0.189211 3.95045e-20)
(3.56978 0.0543343 -8.01017e-20)
(4.18504 0.801625 3.70692e-19)
(4.10183 1.00549 1.79085e-19)
(4.05318 0.858657 -3.97551e-21)
(4.00796 0.827181 -5.08989e-20)
(3.96999 0.753171 -6.95095e-20)
(3.93341 0.657723 5.33199e-20)
(3.89656 0.540114 -1.03952e-19)
(3.85552 0.403281 -1.00018e-21)
(3.80504 0.255887 9.94862e-20)
(3.742 0.111628 0)
(3.66906 -0.0205114 -9.21934e-20)
(4.23941 0.728804 -1.25847e-19)
(4.16821 0.93715 0)
(4.12965 0.783974 -1.38409e-19)
(4.09771 0.747437 1.98249e-19)
(4.07577 0.672484 0)
(4.05681 0.574584 1.96059e-19)
(4.03396 0.45235 0)
(3.9973 0.308601 1.69743e-19)
(3.93804 0.154736 -1.4228e-19)
(3.85458 0.00895934 1.92699e-20)
(3.75458 -0.118989 -1.11937e-19)
(4.3046 0.656068 -2.4758e-19)
(4.2405 0.871541 7.94496e-21)
(4.20879 0.71484 3.39351e-20)
(4.18864 0.677106 -2.05825e-19)
(4.18351 0.602076 -1.87694e-20)
(4.18475 0.497293 -3.02065e-19)
(4.17758 0.360101 1.23513e-19)
(4.14273 0.197195 3.33789e-20)
(4.06787 0.0277593 0)
(3.95552 -0.122839 1.75425e-19)
(3.82061 -0.246026 1.21003e-19)
(4.37485 0.583557 1.39918e-19)
(4.31254 0.810046 2.96365e-19)
(4.28654 0.655466 -2.9078e-19)
(4.28253 0.624505 1.01096e-19)
(4.30406 0.55033 -7.72447e-20)
(4.33435 0.428982 3.87325e-19)
(4.34349 0.258865 -5.19525e-19)
(4.30236 0.0589426 2.22714e-19)
(4.1976 -0.135218 0)
(4.0422 -0.289364 -1.6585e-20)
(3.86602 -0.395313 -7.44481e-20)
(4.44249 0.512359 -1.45404e-19)
(4.38037 0.753817 0)
(4.35625 0.626376 3.11114e-19)
(4.37928 0.620739 0)
(4.43914 0.543366 -2.91873e-19)
(4.50549 0.375193 2.68027e-22)
(4.53227 0.129145 -1.3998e-19)
(4.46826 -0.128541 -4.38987e-19)
(4.3154 -0.349594 9.64445e-20)
(4.10381 -0.499487 -1.76017e-19)
(3.87848 -0.573319 1.07983e-19)
(4.5358 0.443351 1.43143e-19)
(4.38236 0.776802 1.49607e-20)
(4.37222 0.692122 0)
(4.46679 0.68137 0)
(4.64695 0.448328 -3.1998e-19)
(4.75319 0.0964873 1.06427e-18)
(4.72979 -0.23249 -6.45612e-20)
(4.59448 -0.502628 -1.6522e-19)
(4.37347 -0.680712 -1.44266e-19)
(4.10832 -0.763995 2.60308e-20)
(3.84326 -0.777024 -9.70422e-20)
(4.28723 0.651922 -1.869e-19)
(4.24043 0.835342 6.97427e-20)
(4.43355 0.63014 -8.38509e-19)
(4.6711 0.228636 8.62228e-19)
(4.75923 -0.167376 -4.06413e-19)
(4.75266 -0.51881 -4.0821e-19)
(4.66189 -0.807096 2.97602e-19)
(4.48825 -1.01045 0)
(4.24156 -1.11133 1.98264e-20)
(3.97084 -1.09766 9.41067e-20)
(3.71959 -1.00283 3.7864e-21)
(3.79032 1.01837 -6.28142e-19)
(4.32271 0.0408155 9.33623e-19)
(4.48889 -0.144427 -4.49935e-20)
(4.54526 -0.539757 5.78854e-19)
(4.54843 -0.871264 6.22491e-19)
(4.50896 -1.13148 -5.05534e-19)
(4.42031 -1.32393 0)
(4.26955 -1.44082 1.45844e-19)
(4.04041 -1.46404 0)
(3.74871 -1.37645 1.73006e-19)
(3.51193 -1.19115 -1.23379e-19)
(4.19479 -0.641462 3.52042e-19)
(4.2887 -0.456667 0)
(4.27061 -0.937314 1.45858e-19)
(4.26834 -1.18451 0)
(4.27134 -1.36617 -3.87987e-19)
(4.26651 -1.50395 4.00259e-19)
(4.23862 -1.60111 -5.33347e-19)
(4.16496 -1.65429 -2.87357e-19)
(4.01505 -1.64098 3.99401e-19)
(3.75769 -1.52004 -1.30752e-19)
(3.4434 -1.29149 8.39103e-20)
(6.41055 -0.748236 2.7582e-19)
(5.81175 -0.441699 -2.36357e-19)
(5.31669 -0.470921 -3.05254e-19)
(4.88661 -0.460216 3.23862e-19)
(4.48413 -0.389635 1.19358e-19)
(4.11881 -0.287042 -1.4376e-19)
(3.80819 -0.192466 2.37706e-20)
(3.55336 -0.131559 -2.10517e-20)
(3.34446 -0.111631 -2.74025e-20)
(3.17139 -0.129833 0)
(3.03828 -0.180696 0)
(6.04181 1.1152 4.68793e-19)
(5.87927 0.868666 -2.87502e-19)
(5.61288 0.562181 2.45414e-20)
(5.24242 0.335344 -1.60802e-19)
(4.81026 0.209985 -1.48598e-19)
(4.36821 0.169152 0)
(3.96613 0.165502 -1.22517e-19)
(3.63293 0.157472 2.19992e-20)
(3.36562 0.127252 9.43494e-20)
(3.14848 0.07296 -5.2524e-20)
(2.9823 -0.000115815 8.28346e-21)
(5.63366 1.7863 2.98177e-19)
(5.66989 1.58842 0)
(5.58082 1.312 2.0138e-19)
(5.34606 1.05245 0)
(4.98182 0.840831 1.5185e-19)
(4.53734 0.698685 0)
(4.08303 0.601607 1.3886e-19)
(3.68466 0.511567 -2.73886e-19)
(3.36438 0.413764 -9.31144e-20)
(3.10644 0.308589 -1.58567e-19)
(2.90653 0.20338 7.50774e-20)
(5.43397 1.90542 -5.2367e-19)
(5.45732 1.90239 4.70605e-20)
(5.42353 1.73232 -1.00036e-19)
(5.27756 1.55155 2.29616e-19)
(4.99774 1.36462 -3.85686e-19)
(4.59575 1.20904 1.87276e-19)
(4.12672 1.07626 0)
(3.6799 0.92277 5.84293e-19)
(3.31659 0.745456 0)
(3.02675 0.572759 1.55567e-19)
(2.79924 0.426144 0)
(5.37768 1.87829 -7.92949e-22)
(5.35486 1.97106 1.3349e-19)
(5.30359 1.88344 0)
(5.17446 1.79884 -1.42815e-19)
(4.94053 1.68507 -3.19222e-19)
(4.58505 1.57996 8.51703e-20)
(4.12406 1.4937 -2.10635e-19)
(3.63429 1.3655 -3.09339e-19)
(3.22016 1.14323 0)
(2.91126 0.887167 0)
(2.67354 0.683089 -1.06191e-19)
(5.36888 1.8372 -1.73411e-19)
(5.32216 1.97418 -3.45707e-19)
(5.25167 1.90651 0)
(5.10507 1.87526 1.34266e-19)
(4.87965 1.8187 1.95611e-19)
(4.54531 1.75714 0)
(4.08451 1.71282 6.27341e-20)
(3.54594 1.67956 0)
(3.04629 1.51423 -6.04361e-20)
(2.6974 1.21314 -5.37232e-20)
(2.46942 0.944673 1.53715e-19)
(5.38288 1.79294 4.63141e-20)
(5.32171 1.95901 8.37216e-20)
(5.24666 1.89042 -1.10796e-19)
(5.08491 1.88085 7.21592e-20)
(4.84695 1.84895 -1.85477e-20)
(4.50484 1.81022 0)
(4.04096 1.77642 1.35951e-19)
(3.47129 1.76157 1.76894e-20)
(2.87954 1.69369 1.1791e-19)
(2.45154 1.4403 -3.20738e-20)
(2.22025 1.14194 -1.63738e-20)
(5.41165 1.7469 -4.29706e-20)
(5.33935 1.92888 5.71311e-20)
(5.26538 1.85315 2.07955e-20)
(5.09557 1.85436 -9.95944e-21)
(4.85233 1.82956 -2.95176e-20)
(4.50239 1.80095 0)
(4.01938 1.77369 -7.72029e-22)
(3.41317 1.75411 6.33886e-22)
(2.76482 1.72875 -4.1829e-23)
(2.21332 1.56848 3.14235e-20)
(1.92348 1.28059 1.61167e-20)
(5.44764 1.70461 3.04977e-20)
(5.36616 1.89008 1.78594e-19)
(5.29681 1.80034 -4.68193e-20)
(5.12136 1.80827 -1.07659e-20)
(4.87906 1.77912 2.39435e-20)
(4.5306 1.74791 -3.64943e-20)
(4.04188 1.71685 1.50251e-20)
(3.40464 1.69167 -2.76337e-20)
(2.69099 1.66087 1.35508e-20)
(2.05007 1.56942 -4.04837e-20)
(1.64864 1.33057 -2.06261e-20)
(5.4794 1.66462 3.82975e-20)
(5.39965 1.844 3.13864e-20)
(5.33292 1.73391 0)
(5.15345 1.74766 8.05075e-20)
(4.91667 1.7055 -5.46097e-20)
(4.57719 1.66172 1.28335e-19)
(4.09731 1.61393 -5.87396e-20)
(3.44762 1.57366 1.46888e-19)
(2.68443 1.52809 -5.58564e-20)
(1.95199 1.4478 2.9903e-20)
(1.43466 1.27793 5.35538e-20)
(5.50791 1.60552 0)
(5.44141 1.78523 0)
(5.35828 1.66063 1.30861e-19)
(5.18452 1.67313 -1.23057e-19)
(4.95687 1.61164 0)
(4.63156 1.54744 1.08622e-19)
(4.17397 1.47232 -1.26528e-19)
(3.53661 1.40047 -4.40686e-20)
(2.74527 1.33596 0)
(1.94166 1.24638 0)
(1.31476 1.09174 1.22235e-20)
(5.54079 1.5198 -9.97021e-20)
(5.4701 1.72652 8.68499e-20)
(5.37522 1.59083 -1.44611e-19)
(5.21582 1.57245 1.53768e-19)
(4.9952 1.49841 -3.44886e-19)
(4.68576 1.4082 2.67503e-19)
(4.25816 1.29818 -3.18646e-19)
(3.66087 1.17706 2.3377e-19)
(2.86985 1.07999 3.34332e-20)
(2.02178 0.979484 0)
(1.32395 0.813938 3.12197e-19)
(5.56307 1.44379 1.07208e-19)
(5.4801 1.6493 -2.40678e-19)
(5.39193 1.50992 3.11932e-19)
(5.2368 1.45957 4.90924e-20)
(5.02365 1.36661 -3.52676e-19)
(4.7299 1.24666 2.07272e-19)
(4.33431 1.09974 -3.05492e-19)
(3.80801 0.928962 -4.0823e-20)
(3.08444 0.766433 1.92661e-20)
(2.19559 0.642642 -3.20474e-20)
(1.44017 0.481638 -2.45888e-19)
(5.56739 1.3713 1.60924e-19)
(5.47707 1.55609 -1.11868e-19)
(5.39419 1.41454 1.04074e-19)
(5.24623 1.33337 0)
(5.04432 1.21534 1.92209e-19)
(4.7688 1.06385 -2.46984e-19)
(4.40166 0.879365 7.15861e-19)
(3.92366 0.661708 0)
(3.30127 0.43434 -5.45901e-19)
(2.49604 0.265154 9.00846e-19)
(1.67525 0.0674084 -3.30194e-19)
(5.55359 1.29472 1.80297e-19)
(5.45996 1.44872 0)
(5.3807 1.30274 -2.13393e-19)
(5.24306 1.19231 -4.84912e-19)
(5.05644 1.04509 5.91716e-19)
(4.80477 0.859337 4.54133e-19)
(4.47338 0.636029 -3.43832e-19)
(4.05018 0.373478 -6.95403e-19)
(3.51191 0.100919 0)
(2.8254 -0.132383 -9.13831e-19)
(2.07316 -0.382932 6.52971e-19)
(5.51813 1.214 2.95275e-19)
(5.42181 1.32794 1.43254e-19)
(5.34541 1.17413 -6.90813e-19)
(5.22064 1.03369 3.88137e-19)
(5.05423 0.854245 -4.24989e-19)
(4.83335 0.632541 5.23675e-20)
(4.54719 0.369651 -7.38888e-19)
(4.19177 0.0661777 2.34665e-20)
(3.74444 -0.227839 0)
(3.18215 -0.500288 0)
(2.55127 -0.780797 0)
(5.45447 1.12562 1.8532e-19)
(5.35617 1.19155 -6.86796e-20)
(5.28312 1.02525 2.11065e-19)
(5.17446 0.851829 -4.72726e-19)
(5.03457 0.635294 7.76225e-19)
(4.85255 0.371909 4.10037e-19)
(4.62361 0.0587553 8.00643e-19)
(4.34393 -0.261867 -5.47627e-19)
(3.99562 -0.567894 5.70854e-19)
(3.56136 -0.865834 -4.22158e-19)
(3.06784 -1.16519 -6.09698e-19)
(5.35573 1.02329 -3.49273e-20)
(5.25591 1.03484 3.84908e-19)
(5.18686 0.849952 -2.75433e-19)
(5.09752 0.638746 -1.7546e-19)
(4.99102 0.378155 -2.01961e-19)
(4.85779 0.0654693 3.34225e-19)
(4.6989 -0.256965 0)
(4.50286 -0.573446 1.26392e-18)
(4.25483 -0.88873 -4.35746e-21)
(3.94431 -1.19631 0)
(3.59463 -1.49672 6.19342e-19)
(5.21539 0.900538 2.67516e-21)
(5.11157 0.853675 -1.32208e-19)
(5.04233 0.643403 -3.75676e-19)
(4.96383 0.389781 4.7345e-19)
(4.88601 0.0919355 5.11806e-19)
(4.81664 -0.216461 -6.22579e-19)
(4.73666 -0.535726 6.36082e-19)
(4.63164 -0.862092 -9.47269e-19)
(4.48963 -1.1868 -2.46877e-20)
(4.3042 -1.50089 -9.45117e-19)
(4.08711 -1.80198 5.40634e-19)
(5.02653 0.757805 1.25989e-19)
(4.90335 0.652729 2.0725e-20)
(4.80964 0.413717 -2.94734e-19)
(4.74281 0.143756 5.26275e-19)
(4.71139 -0.152671 -3.81662e-19)
(4.70193 -0.469085 2.93667e-19)
(4.69908 -0.794835 6.50488e-21)
(4.68404 -1.12015 4.88839e-19)
(4.64103 -1.43612 3.27036e-19)
(4.56194 -1.73588 7.59969e-20)
(4.44405 -2.01583 7.63089e-19)
(4.73156 0.578085 2.70227e-20)
(4.59115 0.421803 -2.34241e-20)
(4.51536 0.186041 0)
(4.47181 -0.100627 -4.57446e-20)
(4.4759 -0.417522 2.05376e-19)
(4.52259 -0.738668 -4.4922e-19)
(4.58713 -1.04864 -1.51286e-19)
(4.64115 -1.34358 3.92003e-19)
(4.66415 -1.62223 -3.23235e-19)
(4.64251 -1.87959 4.07398e-19)
(4.57299 -2.11241 -3.86657e-20)
(4.39819 0.353225 1.07278e-19)
(4.27407 0.191374 -2.78922e-20)
(4.20122 -0.094097 0)
(4.18415 -0.413791 -1.9327e-19)
(4.23526 -0.736275 -2.96771e-20)
(4.33226 -1.02975 1.98717e-19)
(4.439 -1.28856 1.10702e-19)
(4.52308 -1.51937 3.91834e-19)
(4.56201 -1.72476 6.05227e-21)
(4.541 -1.89387 -2.15989e-19)
(4.48423 -2.0156 -2.32603e-19)
(4.08631 0.202313 0)
(3.97024 -0.18189 -6.00391e-20)
(3.92808 -0.486912 4.59604e-20)
(3.9787 -0.811321 0)
(4.08107 -1.09037 0)
(4.20191 -1.31487 0)
(4.30821 -1.49443 0)
(4.37752 -1.64448 -4.52829e-20)
(4.39424 -1.76467 -9.07442e-20)
(4.32456 -1.8173 8.46732e-20)
(4.17348 -1.7318 0)
(3.87096 -0.91425 0)
(3.80499 -0.765052 -8.5711e-21)
(3.89759 -1.06939 -1.68193e-19)
(3.99777 -1.28112 0)
(4.09664 -1.44301 0)
(4.17828 -1.56046 0)
(4.22921 -1.64844 0)
(4.23479 -1.7155 -8.97439e-20)
(4.17629 -1.7372 3.01511e-20)
(4.01654 -1.66222 -1.79894e-20)
(3.74235 -1.44221 -7.18624e-20)
(5.72625 -6.90455 -5.05681e-18)
(4.7064 -5.56637 5.20703e-18)
(4.72342 -4.29953 -1.63335e-18)
(4.65234 -3.36295 0)
(4.49212 -2.67349 0)
(4.29208 -2.15324 0)
(4.08483 -1.75113 -5.97244e-19)
(3.88441 -1.43454 1.64402e-20)
(3.69915 -1.18162 3.42018e-19)
(3.53273 -0.978592 0)
(3.3816 -0.822262 0)
(1.18098 -5.53625 -7.0233e-18)
(1.86236 -5.13072 5.55942e-18)
(2.60177 -4.53601 -4.46279e-18)
(3.13191 -3.86462 6.14514e-18)
(3.43016 -3.22222 -3.78587e-18)
(3.55775 -2.64853 1.30448e-18)
(3.56893 -2.16094 0)
(3.51201 -1.76053 5.9623e-19)
(3.42281 -1.43792 0)
(3.32231 -1.18133 -4.93054e-19)
(3.21701 -0.984223 0)
(-0.662151 -3.0304 0)
(0.366019 -3.79396 -6.17843e-18)
(1.12196 -3.95584 3.61564e-18)
(1.8349 -3.72277 -1.14878e-18)
(2.37168 -3.32309 0)
(2.73913 -2.86466 -9.95915e-19)
(2.9586 -2.40922 0)
(3.06519 -1.99535 -6.06635e-19)
(3.09428 -1.64065 0)
(3.07315 -1.3483 4.92396e-19)
(3.02679 -1.11632 -8.29763e-19)
(-0.823178 -2.20147 1.45895e-18)
(-0.246559 -2.59336 1.23351e-18)
(0.140515 -2.8918 0)
(0.747478 -3.07237 1.17561e-18)
(1.35418 -3.02775 -1.68234e-18)
(1.86317 -2.79304 3.0658e-18)
(2.2394 -2.45836 -3.05013e-18)
(2.49204 -2.09779 -1.67729e-18)
(2.65035 -1.75542 2.47046e-18)
(2.74497 -1.45246 0)
(2.78468 -1.20323 1.79709e-18)
(-0.635219 -1.6328 -1.34834e-18)
(-0.185844 -1.91073 2.52041e-19)
(-0.0334469 -2.15396 2.0146e-18)
(0.350585 -2.34582 -1.6796e-18)
(0.792736 -2.42106 1.63385e-18)
(1.25586 -2.36678 0)
(1.67509 -2.20121 3.04286e-18)
(2.01381 -1.96279 0)
(2.26416 -1.69455 -1.19819e-18)
(2.43649 -1.43162 8.79392e-20)
(2.53795 -1.19957 -4.02137e-19)
(-0.399455 -1.19856 0)
(-0.0539636 -1.36873 8.09666e-19)
(-0.00822112 -1.56201 -1.37582e-18)
(0.274079 -1.74326 2.02027e-18)
(0.589329 -1.86265 0)
(0.954024 -1.89744 1.61839e-18)
(1.32321 -1.84267 -3.46139e-18)
(1.65927 -1.713 -1.04746e-18)
(1.94009 -1.53506 0)
(2.15819 -1.3382 -7.10734e-21)
(2.30723 -1.15001 -1.77753e-18)
(-0.20741 -0.888848 -2.26553e-18)
(0.0942925 -0.965836 1.32723e-18)
(0.108092 -1.1135 5.37792e-19)
(0.305955 -1.26234 -9.27849e-19)
(0.534689 -1.38152 0)
(0.814846 -1.45363 -1.16855e-18)
(1.11948 -1.46535 5.0863e-19)
(1.42082 -1.4157 1.28596e-18)
(1.69578 -1.31539 3.10722e-20)
(1.92837 -1.18277 5.47471e-20)
(2.102 -1.03828 1.46576e-18)
(-0.0578111 -0.661609 7.80025e-19)
(0.222417 -0.676297 -6.53682e-19)
(0.234053 -0.778625 -5.13139e-19)
(0.38529 -0.896045 -4.04128e-19)
(0.558586 -0.999532 6.0004e-19)
(0.776228 -1.07912 0)
(1.0226 -1.12193 3.95489e-20)
(1.28024 -1.12098 4.69991e-19)
(1.53126 -1.07742 -1.32437e-18)
(1.75763 -1.00085 0)
(1.93272 -0.907339 0)
(0.0712715 -0.471964 -3.5604e-19)
(0.336676 -0.449571 0)
(0.349677 -0.51949 0)
(0.476317 -0.612853 -3.56721e-19)
(0.615581 -0.698908 0)
(0.790442 -0.77363 2.08804e-19)
(0.991642 -0.827046 6.2597e-19)
(1.20921 -0.851546 -6.8749e-19)
(1.43119 -0.843877 7.9487e-19)
(1.64242 -0.806883 0)
(1.81568 -0.749601 3.50191e-20)
(0.196315 -0.323453 2.44267e-18)
(0.452992 -0.268538 0)
(0.459759 -0.311972 0)
(0.568624 -0.386592 -7.38677e-20)
(0.684409 -0.457044 -9.60039e-19)
(0.829816 -0.523172 1.99401e-19)
(0.998037 -0.57747 4.29866e-19)
(1.18341 -0.613423 0)
(1.37842 -0.626315 -1.50872e-19)
(1.57195 -0.614596 0)
(1.73907 -0.579283 -1.35253e-19)
(0.304107 -0.227921 2.08469e-18)
(0.554262 -0.12904 1.56986e-18)
(0.558416 -0.145655 -1.56609e-18)
(0.655987 -0.202592 1.18544e-18)
(0.755683 -0.258068 -1.07893e-18)
(0.880776 -0.314309 0)
(1.02537 -0.365061 8.93687e-19)
(1.18615 -0.405009 -7.68268e-19)
(1.35844 -0.429453 0)
(1.53385 -0.435551 0)
(1.68362 -0.422167 -5.21505e-19)
(0.383328 -0.148479 -1.94483e-18)
(0.622865 -0.0054485 -1.89775e-19)
(0.636986 -0.00317399 1.66269e-19)
(0.732065 -0.0462099 -5.25271e-19)
(0.823198 -0.0889677 1.00223e-18)
(0.935797 -0.135912 0)
(1.06438 -0.181602 -6.80847e-19)
(1.20724 -0.221879 1.37528e-18)
(1.3616 -0.252636 0)
(1.52181 -0.270574 0)
(1.66198 -0.271417 2.69509e-20)
(0.454575 -0.0589417 1.9459e-18)
(0.683525 0.114952 2.29982e-18)
(0.707098 0.127675 -2.40317e-18)
(0.800699 0.0940584 4.55139e-19)
(0.886815 0.0607687 0)
(0.991787 0.0213309 0)
(1.10986 -0.0194444 8.48685e-19)
(1.24032 -0.0585984 -6.94619e-19)
(1.38151 -0.0926672 8.99371e-19)
(1.53053 -0.117917 -6.42855e-19)
(1.66498 -0.125601 1.39278e-18)
(0.521523 0.0122497 1.81728e-18)
(0.748312 0.219351 -3.69775e-19)
(0.775354 0.246199 0)
(0.865762 0.222311 -4.26073e-19)
(0.94789 0.197448 -6.59712e-19)
(1.0481 0.164262 0)
(1.15944 0.1277 0)
(1.28154 0.0898624 -4.49262e-20)
(1.41297 0.0537979 -8.92227e-19)
(1.55277 0.0231816 6.37739e-19)
(1.67725 0.00865814 -9.01693e-19)
(0.570298 0.0726517 0)
(0.79484 0.319254 0)
(0.833348 0.358958 -2.62321e-18)
(0.925822 0.343236 -3.56489e-19)
(1.00734 0.32539 3.81654e-18)
(1.10567 0.297199 -1.91453e-18)
(1.21316 0.263854 0)
(1.32985 0.22674 -5.64685e-19)
(1.45404 0.188727 7.74803e-19)
(1.58666 0.153211 -1.66971e-18)
(1.70618 0.133179 -7.81378e-19)
(0.62078 0.142364 -1.67801e-18)
(0.839517 0.422972 -6.27309e-19)
(0.889452 0.470836 5.17772e-19)
(0.984731 0.460861 -7.36188e-19)
(1.06719 0.448382 5.83406e-19)
(1.16576 0.423655 1.80327e-18)
(1.2716 0.392124 1.33233e-18)
(1.38499 0.354534 -1.01509e-18)
(1.50347 0.313992 0)
(1.63006 0.27342 1.08651e-18)
(1.74496 0.248403 0)
(0.677184 0.208532 -1.59655e-18)
(0.890635 0.518107 6.37764e-19)
(0.950687 0.577777 2.32935e-18)
(1.04642 0.575562 -2.90353e-18)
(1.13042 0.568002 1.11947e-18)
(1.23027 0.545623 -1.66303e-18)
(1.33573 0.514291 0)
(1.44686 0.474648 0)
(1.56016 0.430716 0)
(1.6808 0.384505 -9.31118e-19)
(1.78953 0.354347 6.91043e-19)
(0.725882 0.268154 -1.55044e-18)
(0.934528 0.608801 2.3262e-18)
(1.01132 0.682228 -4.04429e-18)
(1.11108 0.688666 1.37393e-18)
(1.20006 0.68472 0)
(1.30294 0.662815 1.51458e-18)
(1.409 0.629284 0)
(1.51784 0.5856 -8.07666e-19)
(1.6257 0.537303 1.75372e-18)
(1.73889 0.48584 -4.36707e-19)
(1.84163 0.450295 0)
(0.777112 0.331603 -1.5193e-18)
(0.977098 0.70146 0)
(1.07555 0.787924 -3.95671e-19)
(1.18288 0.802096 -1.23356e-18)
(1.27985 0.799026 9.50737e-19)
(1.38675 0.774335 -7.3011e-19)
(1.49296 0.735377 0)
(1.59772 0.685647 1.4025e-18)
(1.69852 0.632396 -1.10562e-18)
(1.80255 0.576993 7.51766e-19)
(1.90085 0.536208 4.93712e-19)
(0.839864 0.400863 -1.48655e-18)
(1.02741 0.796387 0)
(1.15195 0.894344 4.19904e-19)
(1.26983 0.914062 1.11909e-18)
(1.37596 0.907732 -8.55601e-19)
(1.4854 0.875803 0)
(1.58845 0.828249 -4.03658e-19)
(1.68516 0.771699 -3.98637e-19)
(1.77584 0.714552 4.37786e-19)
(1.86809 0.658241 0)
(1.96045 0.613895 -5.1504e-19)
(0.917734 0.474044 1.44732e-18)
(1.09238 0.891358 -1.11596e-19)
(1.24806 0.996521 0)
(1.37981 1.01671 1.10031e-19)
(1.49354 1.00118 7.05923e-19)
(1.60008 0.957541 5.00341e-19)
(1.69319 0.900419 -3.51048e-19)
(1.7762 0.839433 -4.82054e-20)
(1.85341 0.782056 -2.56261e-19)
(1.93231 0.728751 -2.82708e-19)
(2.01549 0.68434 0)
(1.0527 0.553205 0)
(1.18043 0.983267 1.2796e-19)
(1.37981 1.08064 -3.06246e-20)
(1.52331 1.09213 -1.22059e-19)
(1.63501 1.0609 0)
(1.7268 1.00471 0)
(1.8003 0.942872 -6.70374e-19)
(1.86418 0.884757 2.18709e-19)
(1.92594 0.833801 -2.01782e-19)
(1.99208 0.788427 3.55756e-19)
(2.06722 0.745868 2.84113e-19)
(1.02206 0.591362 -4.04586e-20)
(1.31306 1.01134 0)
(1.50284 1.11708 1.37885e-20)
(1.65659 1.10583 0)
(1.75973 1.05844 -2.65611e-20)
(1.83028 1.0005 -3.85882e-19)
(1.8835 0.948298 5.50013e-19)
(1.93177 0.905237 -2.20697e-19)
(1.98233 0.869557 -1.72618e-19)
(2.0397 0.838979 1.15923e-19)
(2.109 0.804016 -9.41786e-20)
(2.70053 0.538361 5.34086e-20)
(1.82373 1.12338 0)
(2.1072 0.949186 -2.76015e-20)
(2.07302 0.949719 6.14836e-19)
(2.02513 0.937336 -3.98946e-19)
(1.99157 0.92153 0)
(1.98251 0.909473 4.00916e-20)
(1.99683 0.898276 1.08554e-19)
(2.029 0.887034 1.59563e-19)
(2.07491 0.877558 -6.34308e-20)
(2.13532 0.861377 0)
(8.13969 -4.78247 3.96606e-19)
(6.50469 -2.12902 0)
(6.60384 -2.67499 1.9306e-19)
(6.10721 -2.44045 0)
(5.49118 -2.0319 0)
(4.96765 -1.6584 -8.21775e-20)
(4.55827 -1.35849 -7.29862e-20)
(4.22649 -1.1145 9.42204e-22)
(3.95103 -0.917163 -2.33887e-20)
(3.71873 -0.757469 -2.06687e-20)
(3.52148 -0.63549 1.53026e-20)
(6.16571 -2.59653 1.18665e-17)
(5.07613 0.0744492 -2.22669e-17)
(6.27911 -0.59129 1.53887e-19)
(6.51514 -0.889755 0)
(6.18161 -0.922409 2.31394e-18)
(5.5602 -0.894632 -1.49944e-18)
(5.02105 -0.8212 7.86182e-20)
(4.56775 -0.711952 5.49772e-20)
(4.19585 -0.598756 2.31628e-20)
(3.89356 -0.499853 0)
(3.65109 -0.428927 -1.30732e-20)
(3.13644 -1.77626 1.71978e-17)
(3.47578 0.530223 -1.24048e-17)
(5.15904 0.600788 -3.73751e-19)
(5.91115 0.500181 0)
(6.08962 0.347333 3.65388e-18)
(5.80461 0.121129 -2.2602e-18)
(5.28265 -0.0788565 0)
(4.80301 -0.163342 9.75711e-19)
(4.37821 -0.185442 -2.3326e-19)
(4.02296 -0.178318 -3.80269e-19)
(3.73562 -0.171964 0)
(0.827991 -2.21063 0)
(2.23212 -0.137672 1.02194e-17)
(3.86332 0.835378 -7.35012e-18)
(4.87767 1.25035 0)
(5.46912 1.30078 -1.46971e-18)
(5.55824 1.07144 -3.49822e-18)
(5.24934 0.728923 -9.16102e-19)
(4.83855 0.468548 3.86262e-18)
(4.43764 0.301504 -1.17909e-18)
(4.07399 0.200637 0)
(3.76862 0.133483 0)
(-0.426498 -3.24652 -1.52337e-17)
(1.39978 -1.0723 -2.10365e-18)
(2.75295 0.504554 1.23884e-17)
(3.85228 1.41615 -9.19659e-18)
(4.66466 1.80581 1.39483e-18)
(5.01817 1.7479 0)
(4.94317 1.42346 0)
(4.66923 1.06903 0)
(4.34851 0.798586 0)
(4.02154 0.599031 0)
(3.72058 0.462602 0)
(-0.920253 -4.2267 2.734e-18)
(0.792148 -1.91192 3.81103e-18)
(1.91917 -0.0220502 0)
(3.01047 1.25738 0)
(3.89175 1.96879 5.13748e-18)
(4.38475 2.13627 -3.90286e-18)
(4.48069 1.91516 3.99296e-18)
(4.35479 1.56569 -5.73174e-18)
(4.12983 1.24174 1.56934e-18)
(3.86966 0.973895 0)
(3.6102 0.765373 0)
(-1.1471 -4.89923 -2.1771e-18)
(0.323087 -2.57561 -1.73192e-18)
(1.29137 -0.547505 0)
(2.33883 0.980756 3.45011e-18)
(3.21597 1.94493 0)
(3.76719 2.31855 0)
(3.9691 2.22441 0)
(3.95658 1.92719 2.61238e-18)
(3.82725 1.60239 -1.52434e-18)
(3.63612 1.30033 1.90813e-18)
(3.4375 1.03298 1.06437e-18)
(-1.27593 -5.22 -5.87108e-18)
(-0.0455794 -3.0766 5.90141e-18)
(0.788767 -1.02251 6.49233e-18)
(1.78345 0.674294 -3.43809e-18)
(2.6312 1.83154 0)
(3.1995 2.37445 0)
(3.46232 2.39967 2.08451e-18)
(3.52766 2.16814 0)
(3.4765 1.86765 -1.48211e-18)
(3.35469 1.56601 -7.51304e-19)
(3.21013 1.2657 -2.03192e-18)
(-1.34314 -5.42854 3.43056e-18)
(-0.340499 -3.48503 1.31312e-18)
(0.372262 -1.46303 -1.23889e-19)
(1.30719 0.351561 -1.73896e-19)
(2.11519 1.66261 -2.07228e-18)
(2.68068 2.34569 -2.9041e-18)
(2.97816 2.4773 -3.98884e-18)
(3.09651 2.31287 2.38706e-18)
(3.10523 2.04642 -3.37318e-19)
(3.04058 1.7592 -1.11079e-18)
(2.96747 1.44412 0)
(-1.37434 -5.5628 3.10153e-18)
(-0.57082 -3.81126 -2.50902e-18)
(0.0238099 -1.86847 -1.88947e-18)
(0.891688 0.0187003 -2.79675e-18)
(1.65309 1.45222 1.13934e-19)
(2.20448 2.25284 1.49198e-18)
(2.52092 2.47904 1.55628e-19)
(2.67616 2.37947 -2.14797e-18)
(2.73175 2.1508 1.73659e-18)
(2.71496 1.88542 0)
(2.69794 1.57972 0)
(-1.41581 -5.64951 2.8085e-18)
(-0.760845 -4.0826 -3.39689e-18)
(-0.268029 -2.24642 0)
(0.522411 -0.327 -2.46791e-18)
(1.23072 1.20281 5.51183e-18)
(1.76157 2.10433 -1.86397e-20)
(2.08834 2.41693 0)
(2.27081 2.37987 2.32178e-18)
(2.36432 2.19032 0)
(2.38961 1.94859 0)
(2.41211 1.66584 9.81727e-19)
(-1.48348 -5.71248 -6.15083e-19)
(-0.934885 -4.3093 -1.00425e-18)
(-0.510948 -2.58423 0)
(0.190703 -0.671889 -2.29116e-18)
(0.842205 0.925738 1.73043e-18)
(1.34833 1.91045 0)
(1.67902 2.30041 7.51554e-19)
(1.88209 2.32266 -2.29897e-18)
(2.00672 2.17254 0)
(2.0696 1.95522 0)
(2.12728 1.69471 0)
(-1.5405 -5.76569 2.96912e-18)
(-1.07754 -4.48012 1.00936e-18)
(-0.713771 -2.87804 -2.89841e-18)
(-0.112338 -1.01248 1.09003e-18)
(0.481087 0.624097 -1.52778e-18)
(0.959362 1.6752 9.93728e-20)
(1.28939 2.13419 3.03135e-18)
(1.50901 2.21277 -6.39968e-19)
(1.66063 2.10242 -7.09923e-19)
(1.75706 1.91241 -7.18145e-19)
(1.8592 1.67394 3.16435e-19)
(-1.582 -5.81816 -5.29428e-20)
(-1.2057 -4.62604 -1.75197e-18)
(-0.896222 -3.15458 0)
(-0.390546 -1.36 9.33972e-19)
(0.141389 0.292256 5.8297e-19)
(0.587657 1.39607 -1.01764e-18)
(0.914139 1.91793 -8.3903e-20)
(1.14877 2.05119 4.81938e-19)
(1.32681 1.98139 -6.03277e-19)
(1.45714 1.82163 3.61446e-19)
(1.59203 1.6137 1.72567e-19)
(-1.61759 -5.86373 -1.98938e-18)
(-1.33305 -4.75461 1.83086e-18)
(-1.06685 -3.40768 -3.05137e-19)
(-0.644817 -1.70631 6.16288e-20)
(-0.178719 -0.0661602 8.94403e-20)
(0.229319 1.0753 -6.26418e-20)
(0.549622 1.65096 8.45842e-20)
(0.79876 1.83598 3.8437e-19)
(1.00436 1.80766 1.488e-20)
(1.17152 1.68085 -1.36443e-19)
(1.33444 1.50934 -3.20103e-20)
(-1.64443 -5.89874 -1.93847e-18)
(-1.45253 -4.86735 -2.0014e-19)
(-1.228 -3.63835 -8.74615e-19)
(-0.883597 -2.04952 8.96981e-19)
(-0.483797 -0.452138 0)
(-0.119092 0.708174 0)
(0.188932 1.32796 5.5041e-19)
(0.454675 1.56003 0)
(0.691482 1.57488 -2.54548e-20)
(0.900815 1.4858 1.91131e-20)
(1.10652 1.35214 0)
(-1.66399 -5.91395 -4.427e-19)
(-1.5643 -4.97626 2.99727e-20)
(-1.38244 -3.85519 -1.66532e-18)
(-1.11324 -2.39309 4.22701e-19)
(-0.784896 -0.867853 1.42994e-19)
(-0.465499 0.284389 -1.55355e-19)
(-0.17137 0.935514 -5.27638e-19)
(0.111146 1.21076 1.45078e-19)
(0.385752 1.27192 -1.09023e-19)
(0.640085 1.22881 -2.68728e-19)
(0.901527 1.13595 3.02013e-19)
(-1.68745 -5.9105 -4.21955e-19)
(-1.67652 -5.06879 2.10182e-18)
(-1.5408 -4.06795 2.37108e-20)
(-1.34307 -2.74 -7.42004e-19)
(-1.09181 -1.31728 1.10541e-18)
(-0.821458 -0.204391 -4.95127e-20)
(-0.537088 0.453846 0)
(-0.231642 0.767929 0)
(0.0862724 0.882273 2.53971e-19)
(0.385542 0.89983 -3.07759e-19)
(0.710711 0.868711 -5.12145e-19)
(-1.7137 -5.88242 -8.26565e-19)
(-1.791 -5.12946 0)
(-1.71638 -4.28469 0)
(-1.59299 -3.09298 7.89553e-19)
(-1.41648 -1.81015 -4.00575e-19)
(-1.19409 -0.780462 1.79751e-19)
(-0.911301 -0.143044 -6.67478e-19)
(-0.572343 0.20303 0)
(-0.203768 0.384039 -1.67642e-19)
(0.144123 0.481359 6.2156e-19)