/*--------------------------------*- C++ -*----------------------------------*\
| =========                 |                                                 |
| \\      /  F ield         | OpenFOAM: The Open Source CFD Toolbox           |
|  \\    /   O peration     | Version:  3.0.1                                 |
|   \\  /    A nd           | Web:      www.OpenFOAM.org                      |
|    \\/     M anipulation  |                                                 |
\*---------------------------------------------------------------------------*/
FoamFile
{
    version     2.0;
    format      ascii;
    class       volScalarField;
    location    "0.660476";
    object      nut;
}
// * * * * * * * * * * * * * * * * * * * * * * * * * * * * * * * * * * * * * //

dimensions      [0 2 -1 0 0 0 0];

internalField   nonuniform List<scalar> 
21246
(
3.11887e-05
0.000159155
0.000262927
0.000358167
0.000403462
0.000398455
0.000395596
0.000452918
0.000558091
0.000647474
0.000640955
2.26739e-05
9.50371e-05
0.000179078
0.000267336
0.000331267
0.00034985
0.000349944
0.000401929
0.000508549
0.000587604
0.00057666
1.79326e-05
7.09944e-05
0.000137483
0.000211484
0.000275453
0.000307263
0.00031334
0.000339835
0.000432382
0.000533158
0.000521944
1.46818e-05
6.5826e-05
0.000117349
0.00017832
0.000236479
0.000273051
0.000285821
0.000301072
0.000358569
0.000456243
0.000478816
1.31948e-05
6.77699e-05
0.000109481
0.000159666
0.000210263
0.000246731
0.000264111
0.00027659
0.000310922
0.000382118
0.000425297
1.35382e-05
6.69435e-05
0.000106152
0.000149197
0.000192674
0.000226878
0.000246844
0.000259706
0.000282318
0.000330203
0.000372989
1.35626e-05
6.64468e-05
0.000103241
0.000142357
0.000180819
0.00021232
0.000233574
0.000247813
0.00026556
0.000299261
0.000334331
1.35487e-05
6.52734e-05
0.00010144
0.0001369
0.000173107
0.000202407
0.000224437
0.000240563
0.000257451
0.00028404
0.000311302
1.34338e-05
6.33101e-05
0.00010023
0.000134031
0.000168726
0.000197185
0.000220286
0.00023891
0.000257154
0.000280394
0.000301264
1.32082e-05
6.10079e-05
9.99217e-05
0.000134081
0.000168617
0.000197452
0.000222507
0.000244149
0.000264203
0.000284731
0.000299652
1.29876e-05
5.89307e-05
0.000100959
0.000137554
0.000172966
0.000203874
0.000231732
0.000256042
0.000276409
0.000292788
0.000301519
1.28235e-05
5.7459e-05
0.000103159
0.000142829
0.000180883
0.000215037
0.000245659
0.000270984
0.000289198
0.000300428
0.000304422
1.2668e-05
5.58941e-05
0.000104679
0.000147757
0.000189237
0.000226675
0.000259029
0.000283579
0.000298596
0.000305795
0.000307524
1.24639e-05
5.39529e-05
0.000104741
0.000150567
0.000194967
0.00023482
0.000267943
0.000291418
0.000304316
0.000309655
0.000310939
1.21633e-05
5.2506e-05
0.000104223
0.00015164
0.0001979
0.000239287
0.000273035
0.000296384
0.000308834
0.000313892
0.000315638
1.1746e-05
5.13266e-05
0.00010328
0.000151491
0.000198942
0.000241638
0.000276556
0.000300937
0.000314056
0.000319224
0.000320881
1.12163e-05
4.98798e-05
0.000101472
0.00015005
0.000198568
0.000242935
0.000279878
0.000306244
0.000320533
0.000325471
0.000326019
1.05094e-05
4.82255e-05
9.889e-05
0.000147449
0.000197162
0.000243848
0.000283672
0.000312627
0.00032806
0.000331969
0.000329929
9.62079e-06
4.61903e-05
9.53216e-05
0.000143727
0.000195076
0.000244536
0.000287454
0.000318923
0.000334884
0.000336353
0.000329308
8.54583e-06
4.35934e-05
9.11033e-05
0.000140058
0.000192026
0.000240008
0.000282139
0.000315519
0.000333389
0.000333377
0.000321188
7.25939e-06
4.27837e-05
9.33625e-05
0.000133029
0.0001529
0.000169507
0.000203086
0.000250899
0.000292554
0.000305353
0.00029722
7.61905e-06
4.45974e-05
5.7233e-05
5.63555e-05
7.86567e-05
0.000105785
0.000131732
0.000154695
0.000183823
0.000218813
0.000236087
6.00321e-06
1.74685e-05
3.36998e-05
6.02338e-05
9.54869e-05
0.000133112
0.000163218
0.000175298
0.00016563
0.000153345
0.00015824
9.36402e-06
2.54333e-05
5.62847e-05
0.000102003
0.000155303
0.000205116
0.00024003
0.000252707
0.00023716
0.000193947
0.000151351
2.94523e-05
0.000235842
0.000371599
0.000438559
0.0004458
0.000421436
0.000417223
0.000482797
0.000607617
0.000716169
0.00070912
1.6851e-05
0.000163419
0.000324173
0.000425762
0.000463984
0.000453501
0.00044238
0.0005028
0.000649351
0.000799423
0.000831984
1.20715e-05
9.73954e-05
0.000245385
0.000373673
0.00045441
0.00047497
0.000461295
0.000503903
0.000665201
0.000869779
0.000973041
1.21333e-05
6.3477e-05
0.000178509
0.000310435
0.000420116
0.000477226
0.000470323
0.00047807
0.000631421
0.000884064
0.00107427
1.38256e-05
6.3765e-05
0.000155002
0.000270783
0.000388243
0.000474301
0.000486261
0.00043138
0.00048514
0.000756388
0.00107664
1.56802e-05
7.14248e-05
0.000160561
0.000265827
0.000377732
0.000474856
0.000519332
0.000475742
0.000412289
0.000556447
0.000919463
1.75544e-05
8.13024e-05
0.000173425
0.000274299
0.00038009
0.0004806
0.000546664
0.0005335
0.000441493
0.000431863
0.000718695
1.94476e-05
9.19843e-05
0.000188883
0.000287531
0.00038681
0.000485032
0.000564048
0.00058092
0.000500907
0.000406463
0.000527411
2.12131e-05
0.000103409
0.000205819
0.000302903
0.00039484
0.000485305
0.000567877
0.000609911
0.00055628
0.000437491
0.000414536
2.27962e-05
0.000115451
0.000223034
0.000318585
0.000402887
0.000481571
0.000558503
0.000616515
0.000594507
0.000481148
0.000385905
2.41574e-05
0.000126693
0.000239082
0.000333365
0.000410277
0.00047545
0.000540133
0.000603814
0.000612891
0.000519427
0.000394507
2.53718e-05
0.000136916
0.000255001
0.000346221
0.000415946
0.000468148
0.000517945
0.00057886
0.000613677
0.000545291
0.000413611
2.64048e-05
0.000145777
0.00026758
0.000356651
0.000419161
0.000460037
0.000495551
0.000543548
0.00059314
0.000558639
0.000430681
2.71784e-05
0.000154183
0.000278707
0.000364808
0.0004199
0.000450584
0.000474601
0.000509261
0.000548836
0.000546547
0.000444378
2.76122e-05
0.000161594
0.000288335
0.000371165
0.000418715
0.000439445
0.000452397
0.000474432
0.000501389
0.000509387
0.000454066
2.77091e-05
0.000168508
0.000297376
0.000376896
0.000416825
0.000427656
0.000429557
0.000439924
0.000457232
0.000468705
0.000446331
2.74501e-05
0.000175138
0.000306705
0.000383568
0.000416245
0.000417453
0.000408036
0.000406339
0.0004164
0.000425954
0.000417626
2.67555e-05
0.000181681
0.00031762
0.00039381
0.000420678
0.000413148
0.000392318
0.000380924
0.000381976
0.000385788
0.000381998
2.55359e-05
0.000188585
0.000331526
0.000410073
0.000432216
0.000417772
0.000391089
0.000371031
0.000362046
0.000357951
0.000351316
2.35133e-05
0.000191788
0.000336179
0.000416875
0.000442423
0.00042853
0.000398116
0.000372014
0.000357832
0.000351854
0.000348341
2.00662e-05
0.000180185
0.000322316
0.00041203
0.000447821
0.000438378
0.000405342
0.00037314
0.000353832
0.000346395
0.000346906
1.61404e-05
0.000154398
0.000288783
0.000388578
0.000436676
0.000436502
0.000406242
0.000370263
0.000343669
0.00032714
0.000312026
1.18382e-05
0.000108938
0.000240343
0.000344833
0.000403382
0.000416036
0.000396599
0.000363631
0.000330145
0.000297304
0.0002517
8.01034e-06
9.64086e-05
0.000191367
0.00028573
0.000339994
0.000363646
0.000361148
0.000338294
0.000305899
0.000261884
0.000203161
5.91797e-05
0.000314959
0.000385851
0.000418582
0.000445745
0.000471058
0.000489503
0.000494518
0.000476368
0.000428293
0.000365519
3.79636e-05
0.000254832
0.000366374
0.000415652
0.000444309
0.000466424
0.00048096
0.000484073
0.000468103
0.000424415
0.000362795
3.16943e-05
0.000216089
0.000363979
0.000443124
0.000473438
0.000489363
0.000498792
0.000496912
0.000476711
0.000433069
0.000370356
3.08423e-05
0.000180972
0.000324463
0.000428536
0.000478403
0.000500241
0.000508413
0.000505133
0.000487859
0.000447339
0.000383527
3.16366e-05
0.000164967
0.000298625
0.000402733
0.000460372
0.00049223
0.000507917
0.000509884
0.000494292
0.000452748
0.000386038
3.26125e-05
0.000152423
0.00027791
0.000376952
0.000435444
0.000473755
0.000498514
0.000508819
0.000498278
0.000459584
0.000395426
3.37117e-05
0.000142196
0.000259947
0.000352123
0.000409769
0.000451673
0.000483495
0.000501973
0.000497919
0.000462739
0.000399328
3.49309e-05
0.000134093
0.000244794
0.000330412
0.000386141
0.000429655
0.00046635
0.00049153
0.000493929
0.000464396
0.000407771
3.60331e-05
0.000127241
0.000231895
0.000311999
0.000365581
0.000409659
0.000449685
0.000480331
0.000489037
0.000465252
0.000411791
3.68995e-05
0.000120713
0.000220312
0.00029622
0.000348019
0.000392303
0.000434745
0.00046984
0.000483984
0.000464469
0.000411478
3.76575e-05
0.000114527
0.000209779
0.000282498
0.00033294
0.000377359
0.000421695
0.000460452
0.00047901
0.000462881
0.000413697
3.82802e-05
0.000109054
0.000200424
0.000270519
0.000319895
0.000364464
0.000410428
0.000452418
0.000474916
0.000461895
0.000414788
3.86354e-05
0.000103827
0.00019183
0.000259933
0.000308613
0.000353453
0.000400951
0.000446015
0.0004723
0.000462044
0.000415656
3.87808e-05
9.83835e-05
0.000183428
0.000250312
0.000298786
0.000344105
0.000393145
0.000441273
0.000471306
0.000463407
0.000418161
3.861e-05
9.31047e-05
0.000175329
0.000241412
0.000290019
0.000336005
0.000386623
0.000437915
0.000471942
0.000466419
0.000421274
3.80867e-05
8.72724e-05
0.00016678
0.000232718
0.000281862
0.000328688
0.000380848
0.000435423
0.00047404
0.000471401
0.000426609
3.72331e-05
7.93716e-05
0.000154481
0.000220014
0.000269288
0.000315528
0.000367292
0.000424178
0.000469088
0.00047342
0.000432901
3.58537e-05
7.07368e-05
0.000139414
0.000203532
0.00025195
0.000295204
0.000342025
0.000395471
0.00044349
0.000458704
0.00043269
3.3917e-05
6.14973e-05
0.000121539
0.00018265
0.000229593
0.00026853
0.000307016
0.000350584
0.000394447
0.00041899
0.000414835
3.13827e-05
5.18668e-05
0.000101301
0.000156992
0.000201758
0.000236341
0.000265706
0.000295654
0.000327051
0.000351233
0.000364419
2.81777e-05
4.21971e-05
7.99217e-05
0.000127221
0.000168394
0.000199294
0.000221478
0.000239124
0.000255163
0.000268439
0.000281165
2.42293e-05
3.30491e-05
5.95513e-05
9.5978e-05
0.000131029
0.000158262
0.000176157
0.000186477
0.000191722
0.00019332
0.000194409
1.9411e-05
2.43466e-05
4.12789e-05
6.6298e-05
9.26981e-05
0.000114885
0.000130033
0.000137871
0.000139478
0.000136254
0.000130393
1.36614e-05
2.26007e-05
3.4936e-05
4.9236e-05
6.40861e-05
7.71843e-05
8.69372e-05
9.26041e-05
9.40728e-05
9.16848e-05
8.63484e-05
5.5452e-05
0.00028159
0.000323548
0.000434018
0.000483774
0.000515224
0.00052905
0.000532544
0.000507776
0.000450402
0.000379872
4.10314e-05
0.000173013
0.00020452
0.000264957
0.000351526
0.00049386
0.000554407
0.000568834
0.000547798
0.000488552
0.000409806
3.78659e-05
0.00012607
0.000171334
0.00021657
0.00028351
0.000412784
0.000563613
0.000605263
0.000593543
0.000536381
0.000448471
3.71553e-05
0.000109387
0.000155043
0.000194018
0.0002524
0.000368884
0.000568873
0.000643506
0.000644909
0.000592941
0.000499794
3.63098e-05
0.00010924
0.000147838
0.00018123
0.000233944
0.000345352
0.000561907
0.000677721
0.000697427
0.00065332
0.000556357
3.52421e-05
0.00011767
0.00014714
0.000174098
0.000220928
0.000327618
0.000543271
0.000702714
0.000745661
0.000710405
0.000605096
3.48957e-05
0.000129831
0.000151278
0.000171005
0.000211163
0.000311715
0.000517679
0.000708052
0.0007859
0.000763697
0.000652985
3.57397e-05
0.000144982
0.00015948
0.000171302
0.000204313
0.000297953
0.00049083
0.000692405
0.000806097
0.000809887
0.000694038
3.73268e-05
0.000161723
0.000170884
0.000174303
0.000199719
0.000285696
0.000463646
0.000663619
0.000795833
0.000825594
0.00072354
3.91347e-05
0.000178624
0.000184677
0.000179548
0.000196897
0.000274372
0.00043616
0.000626683
0.000763987
0.000807435
0.000720553
4.05851e-05
0.000193129
0.000199901
0.000186703
0.000195363
0.000263015
0.00040737
0.00058349
0.000717397
0.00076437
0.000689535
4.175e-05
0.000206022
0.000216065
0.000195595
0.000195292
0.000252315
0.000378759
0.000537534
0.000662624
0.000706787
0.000638268
4.24778e-05
0.000217888
0.000232327
0.000205982
0.000196663
0.000242229
0.000350365
0.00049
0.00060311
0.00064195
0.000576798
4.24771e-05
0.000225517
0.000247143
0.000217783
0.00019956
0.000232712
0.000322145
0.000441639
0.000541044
0.00057434
0.000514808
4.18591e-05
0.000230094
0.000259982
0.000230642
0.00020428
0.000224668
0.000295542
0.00039456
0.000479278
0.000507516
0.000455993
4.06098e-05
0.000231803
0.00027007
0.000243902
0.000210906
0.000218626
0.000271351
0.00035002
0.000419568
0.000443489
0.000401367
3.86756e-05
0.000229529
0.000276375
0.000256622
0.0002194
0.000215208
0.000250566
0.000309419
0.000363488
0.000383241
0.000351225
3.60876e-05
0.000223412
0.000278074
0.000267355
0.000229348
0.000215125
0.0002346
0.000274601
0.000312964
0.000327596
0.000304419
3.30259e-05
0.000213432
0.000274441
0.000274183
0.00023974
0.000218931
0.000224946
0.0002476
0.000270241
0.000277919
0.00026079
3.00303e-05
0.000199215
0.00026532
0.000275566
0.000249636
0.000227522
0.000223562
0.000230799
0.000238038
0.000236822
0.000220966
2.55105e-05
0.000170028
0.000241497
0.000266702
0.000255298
0.000238893
0.000229551
0.000224102
0.000217156
0.000205994
0.000187269
2.21086e-05
0.00014606
0.000205278
0.000230356
0.000232253
0.000222305
0.000212309
0.000200339
0.000180238
0.0001561
0.00012855
1.50209e-05
0.000101967
0.000118925
0.000109225
9.73508e-05
8.48624e-05
7.30404e-05
6.20254e-05
5.33907e-05
4.62803e-05
4.00852e-05
9.68161e-06
1.07858e-05
1.16324e-05
1.31776e-05
1.5432e-05
1.81933e-05
2.12161e-05
2.41726e-05
2.67213e-05
2.85422e-05
2.94022e-05
3.53983e-05
0.000121214
0.000117914
0.000126485
0.000117521
9.68401e-05
7.51932e-05
6.12146e-05
5.21273e-05
4.50612e-05
3.87701e-05
2.95814e-05
0.000100741
8.54004e-05
0.000117374
0.000125254
0.000104151
7.74224e-05
5.9843e-05
4.91479e-05
4.13729e-05
3.48962e-05
2.89936e-05
8.24871e-05
7.81911e-05
9.2924e-05
0.000118428
0.000112212
8.23901e-05
6.07083e-05
4.8033e-05
3.93832e-05
3.25109e-05
3.01907e-05
7.18839e-05
7.55558e-05
8.42184e-05
0.000106007
0.000118507
8.86837e-05
6.3149e-05
4.8363e-05
3.88558e-05
3.18358e-05
3.14146e-05
6.74162e-05
7.39233e-05
7.9362e-05
9.77866e-05
0.000120093
9.54726e-05
6.67523e-05
4.98079e-05
3.9405e-05
3.22658e-05
3.19695e-05
6.61508e-05
7.28269e-05
7.57793e-05
9.01113e-05
0.000114022
0.00010173
7.13416e-05
5.21529e-05
4.07375e-05
3.32948e-05
3.19799e-05
6.69472e-05
7.25282e-05
7.33852e-05
8.33172e-05
0.000103667
0.000103289
7.7029e-05
5.52861e-05
4.269e-05
3.47576e-05
3.15965e-05
6.96122e-05
7.34204e-05
7.23462e-05
7.83038e-05
9.35893e-05
9.9745e-05
8.19376e-05
5.95941e-05
4.53449e-05
3.6639e-05
3.07983e-05
7.33523e-05
7.55751e-05
7.24681e-05
7.47953e-05
8.50559e-05
9.30051e-05
8.42124e-05
6.43505e-05
4.87147e-05
3.90376e-05
2.96404e-05
7.76104e-05
7.89876e-05
7.36519e-05
7.24367e-05
7.79808e-05
8.47249e-05
8.2702e-05
6.8579e-05
5.27031e-05
4.19256e-05
2.83516e-05
8.27354e-05
8.39185e-05
7.61536e-05
7.14815e-05
7.2854e-05
7.70025e-05
7.80786e-05
7.08182e-05
5.69783e-05
4.53243e-05
2.71205e-05
8.94123e-05
9.07705e-05
8.02477e-05
7.21132e-05
6.98559e-05
7.11472e-05
7.24351e-05
7.02515e-05
6.07406e-05
4.91907e-05
2.6134e-05
9.74001e-05
9.9773e-05
8.62022e-05
7.4328e-05
6.86049e-05
6.70781e-05
6.71181e-05
6.72271e-05
6.28506e-05
5.32033e-05
2.55257e-05
0.000106036
0.000111025
9.44743e-05
7.83814e-05
6.89884e-05
6.46185e-05
6.27859e-05
6.28998e-05
6.2382e-05
5.65834e-05
2.53441e-05
0.000116525
0.000125069
0.000105628
8.47021e-05
7.12342e-05
6.39078e-05
5.99765e-05
5.8778e-05
5.96116e-05
5.8151e-05
2.55571e-05
0.000128532
0.000142011
0.000120422
9.39821e-05
7.56815e-05
6.49976e-05
5.87619e-05
5.56986e-05
5.58042e-05
5.70307e-05
2.58648e-05
0.000140151
0.000161104
0.000139638
0.000107396
8.31484e-05
6.82889e-05
5.93152e-05
5.40929e-05
5.23445e-05
5.36881e-05
2.5521e-05
0.000150561
0.000180999
0.000163463
0.000126286
9.49416e-05
7.47019e-05
6.2214e-05
5.44454e-05
5.03418e-05
4.98794e-05
2.44129e-05
0.000157753
0.00019911
0.000190534
0.000151883
0.000113079
8.5961e-05
6.8672e-05
5.757e-05
5.06792e-05
4.74869e-05
2.24819e-05
0.000159597
0.000211895
0.000216819
0.000183881
0.000140115
0.00010514
8.12676e-05
6.53503e-05
5.47606e-05
4.8219e-05
1.97424e-05
0.000151946
0.00021575
0.000236861
0.000219038
0.000178167
0.000137142
0.000105142
8.21095e-05
6.59105e-05
5.47614e-05
1.72144e-05
0.000138719
0.000209701
0.000246479
0.000248367
0.00022265
0.000184513
0.000146986
0.000115679
9.15155e-05
7.34315e-05
1.30638e-05
0.000106838
0.000153751
0.000194239
0.000215939
0.000221915
0.000211752
0.000189368
0.000161941
0.000135397
0.000111917
1.03797e-05
4.03358e-05
5.61127e-05
7.77171e-05
0.000100823
0.000124073
0.000144093
0.000154527
0.000155307
0.000149026
0.0001378
2.96278e-05
0.000110907
0.000115346
0.000117754
0.000112973
9.61785e-05
7.82578e-05
6.6019e-05
5.77881e-05
5.1334e-05
4.55226e-05
1.99312e-05
9.2562e-05
0.000117098
0.000126986
0.000122814
0.00010691
8.82711e-05
7.48497e-05
6.60879e-05
5.95891e-05
5.39947e-05
1.99941e-05
8.20843e-05
0.000115201
0.000145736
0.000143204
0.000125824
0.000103554
8.67383e-05
7.63663e-05
6.92924e-05
6.36446e-05
2.2229e-05
7.59181e-05
0.000111448
0.000157421
0.000166078
0.000154483
0.000131337
0.000109578
9.48059e-05
8.54266e-05
7.88457e-05
2.50756e-05
7.06741e-05
0.000110693
0.00016144
0.000173849
0.000165718
0.000143901
0.00012249
0.000107708
9.82579e-05
9.16462e-05
2.78294e-05
6.67473e-05
0.000110382
0.000161144
0.000176414
0.000172461
0.000152778
0.00013203
0.000117307
0.000107927
0.000101534
3.03733e-05
6.39293e-05
0.000109931
0.000159203
0.000176656
0.000176466
0.000159141
0.000139879
0.000125976
0.000117399
0.000112066
3.27467e-05
6.19251e-05
0.000109324
0.000156971
0.000176349
0.000179326
0.000164355
0.000146859
0.000134162
0.000126925
0.000123334
3.47833e-05
6.04387e-05
0.000108592
0.000155018
0.000176375
0.000181778
0.000169146
0.000153298
0.000141775
0.000135839
0.00013378
3.64695e-05
5.91862e-05
0.000107873
0.000153438
0.000176955
0.000184338
0.000173906
0.000159417
0.00014884
0.000143998
0.00014328
3.77875e-05
5.79664e-05
0.000106961
0.000152321
0.00017792
0.000187289
0.000178871
0.000165382
0.000155367
0.000151183
0.000151029
3.8835e-05
5.67304e-05
0.00010585
0.000151472
0.000179124
0.000190619
0.00018413
0.000171332
0.000161471
0.000157583
0.000157964
3.95328e-05
5.533e-05
0.000104429
0.000150674
0.000180459
0.000194329
0.000189813
0.000177466
0.000167309
0.000163305
0.000164257
3.98022e-05
5.23628e-05
0.000100626
0.000147834
0.000180143
0.000197157
0.000195529
0.000183966
0.000173156
0.000168477
0.000169347
3.95697e-05
4.8869e-05
9.41609e-05
0.000141387
0.000175368
0.000195419
0.000198186
0.000189594
0.000179169
0.000173665
0.000173818
3.88021e-05
4.49896e-05
8.52718e-05
0.000131125
0.000166027
0.000188452
0.000196182
0.000192652
0.000184633
0.000178947
0.000178044
3.74891e-05
4.08768e-05
7.44702e-05
0.000116966
0.000151888
0.000175862
0.000187993
0.000190472
0.000187329
0.000183471
0.000182156
3.55478e-05
3.68183e-05
6.29841e-05
9.98552e-05
0.000133263
0.000157804
0.000172948
0.00018053
0.000183364
0.000184061
0.00018471
3.29275e-05
3.2856e-05
5.1838e-05
8.13043e-05
0.000111047
0.000134802
0.000151336
0.000161943
0.000169188
0.000175059
0.000180397
2.95918e-05
2.88752e-05
4.16339e-05
6.30287e-05
8.69609e-05
0.000108059
0.00012427
0.000135883
0.000144753
0.000152941
0.00016171
2.54933e-05
2.47058e-05
3.26088e-05
4.6546e-05
6.34674e-05
7.99396e-05
9.39242e-05
0.000104862
0.000113462
0.000121071
0.000129056
2.06417e-05
2.01406e-05
2.4668e-05
3.26606e-05
4.28575e-05
5.36322e-05
6.36963e-05
7.23507e-05
7.95345e-05
8.5654e-05
9.13881e-05
1.50686e-05
1.46452e-05
1.69351e-05
2.07773e-05
2.57369e-05
3.1259e-05
3.6824e-05
4.2067e-05
4.6795e-05
5.09853e-05
5.47683e-05
9.10073e-06
9.62378e-06
1.16081e-05
1.40574e-05
1.68626e-05
1.98427e-05
2.29828e-05
2.75782e-05
3.38502e-05
4.19925e-05
5.19846e-05
6.44142e-06
6.8617e-06
9.15197e-06
1.26239e-05
1.42098e-05
1.52069e-05
1.6021e-05
1.65902e-05
1.69174e-05
2.8641e-05
2.31087e-05
2.46871e-05
3.42469e-05
5.51843e-05
8.41809e-05
0.000108041
0.000132216
0.000154778
4.1387e-05
3.27941e-05
4.13154e-05
6.59708e-05
0.000108244
0.000162172
0.000204378
0.000252745
0.000293665
5.50443e-05
4.32712e-05
5.5979e-05
9.23062e-05
0.000153925
0.000233771
0.000294669
0.000358338
0.000407455
5.90503e-06
7.50568e-06
1.18235e-05
1.41189e-05
1.53517e-05
1.60857e-05
1.6666e-05
1.70019e-05
1.71662e-05
2.1725e-05
2.05762e-05
2.45308e-05
3.65814e-05
5.81645e-05
8.92055e-05
0.000113898
0.000137092
0.00015443
3.22987e-05
3.17787e-05
4.41845e-05
7.25643e-05
0.0001194
0.000178386
0.000226865
0.000271996
0.0003001
4.58597e-05
4.33298e-05
6.23765e-05
0.000104393
0.000176084
0.00026303
0.000328657
0.000385449
0.000417235
0.000195726
0.0002297
0.000229754
8.53614e-05
0.000419178
0.000229382
9.12661e-05
0.000229441
0.000229415
0.000233681
0.000415448
0.000229485
0.00012416
0.000192742
0.000123871
0.000228711
0.000162221
8.60241e-05
0.000228701
0.000228605
0.000229715
2.97815e-05
0.000229973
0.000253666
0.000229356
0.000195409
0.000131682
9.13297e-05
0.000404408
0.000552103
0.000144125
0.000235885
0.000129808
0.000229425
0.000240941
0.000229658
0.000240901
0.000229348
0.00011097
0.000229408
1.90133e-05
0.000229461
9.68315e-05
0.000229948
0.000445709
5.55048e-05
5.01816e-05
0.000107028
0.00023991
0.000229189
0.000547662
0.000229394
0.000796447
9.51602e-05
0.000229156
0.000229499
2.97036e-05
0.000229404
0.000392074
0.000228323
2.29333e-05
0.000759407
0.00048174
0.000169981
2.59944e-05
0.000228575
0.000664615
0.000230055
0.000229701
0.000233098
0.000189464
0.000233265
6.39776e-05
0.000243309
0.000235595
0.000231721
2.33333e-05
0.000229681
0.000139001
0.000472547
0.000720396
0.000143987
0.000229285
0.000229786
0.000246792
6.48963e-05
0.00036662
0.000683819
4.50163e-05
0.000288004
0.000229482
0.000229392
2.0593e-05
0.000232411
0.000469745
0.000139827
0.000207747
0.000237
4.35387e-05
0.000236347
0.000251642
0.000107616
0.000229933
0.000236592
5.01209e-05
0.000229487
0.00018145
0.000229866
0.000109896
0.000236211
0.000229366
0.000229512
0.000230626
7.60032e-05
8.22858e-05
0.000229036
0.000229399
0.000228844
0.000229292
0.00022913
7.2445e-05
0.000241077
0.000253387
0.000189815
5.00132e-05
0.000209123
0.000821331
0.000175773
0.00014888
0.000121337
0.000229327
0.000216865
0.000105479
0.00023215
0.000229763
0.000227517
2.27495e-05
0.00010786
0.000543043
0.000244783
0.00010354
0.000231467
0.000241822
0.000167885
0.000229373
3.84242e-05
0.000103567
0.000229838
0.000235551
0.000229031
0.000228944
0.000229238
4.01473e-05
0.000239487
8.32653e-05
5.58893e-05
7.17581e-05
3.15678e-05
0.00016966
0.000228786
0.000217063
4.88978e-05
0.000232774
0.000229138
0.00068562
0.000116768
5.67389e-05
0.000245529
0.000237905
2.51685e-05
0.00015992
0.000158068
0.000232156
0.000229612
0.000235147
0.000220367
0.000153177
3.91371e-05
0.000441276
0.000199764
0.000229556
2.646e-05
0.000229944
0.000148095
0.000229282
0.000115824
0.00022922
0.000228789
0.000229642
0.000175167
0.000109562
0.000200097
0.00022853
1.80957e-05
0.000229736
0.000228973
0.000229413
4.39321e-05
0.000117517
0.00023
3.49218e-05
0.000229262
0.000110715
0.000140835
0.000229818
0.000702295
0.000231715
0.000149246
0.000229301
0.0002287
0.000339318
0.000229003
0.000175361
0.000238857
0.000229311
0.000440586
0.000229374
4.82013e-05
0.000229101
8.30676e-05
8.58517e-05
7.14569e-05
0.000199094
8.09797e-05
0.000192936
0.000229412
0.000112604
0.000116752
0.000111598
0.000324071
3.3656e-05
0.000228505
0.000229012
0.000242681
3.90504e-05
0.000237678
0.000712504
0.000229892
0.000229517
0.000229475
4.84527e-05
0.000216835
0.000236708
1.6045e-05
0.000233754
4.97928e-05
0.000229366
0.000141751
0.000192669
0.000871341
0.000141703
0.000340471
0.000243749
0.000228629
0.000234015
0.000229424
0.000229489
0.000229295
4.78895e-05
0.000229376
0.000122261
0.000183313
0.000228183
0.000229577
0.000229362
5.08457e-05
0.000231937
0.000234016
0.000159531
0.000179624
0.000201538
0.000228992
0.000229266
5.02423e-05
0.000229018
0.000228881
0.000185121
0.000229152
0.000238492
4.94899e-05
0.000234823
0.000229707
0.000723322
0.000673177
0.000233608
0.000228996
0.000309938
0.000229642
0.000238162
0.000100642
0.000229773
0.000102669
0.000249845
8.90197e-05
0.000230003
0.00022935
0.000237935
0.000229542
0.000240522
0.000187841
0.000229254
6.12073e-05
0.000242696
0.000549726
0.00022941
0.0002363
0.000229677
0.000255574
2.60309e-05
0.000229119
5.6519e-05
0.000229536
0.000234111
0.000133478
2.74319e-05
0.000231547
0.000175524
6.53033e-05
0.000228734
0.000235962
0.000229121
0.000567292
0.000228931
0.000192154
0.000116934
0.000236769
0.000229209
0.000209649
0.000228213
0.00069279
0.000232399
0.000480512
2.07033e-05
0.000229942
0.000102597
0.000245655
7.13541e-05
0.00022963
0.000229224
0.000238735
4.54623e-05
0.000322433
0.000229239
0.000109378
0.000198155
0.000259277
0.000114455
0.000229033
0.000201564
0.000898546
5.8273e-05
0.000236106
0.0001797
0.000229398
0.000105963
0.000230036
8.28013e-05
0.00020673
0.000229946
0.000759554
0.000136054
0.000190393
0.0002294
0.000229337
0.000229513
5.07217e-05
0.000166971
5.98644e-05
6.51297e-05
0.000254285
0.000229148
0.000114425
0.000230274
0.000194593
0.000112314
0.000229741
0.000152551
0.000240864
0.000228946
0.000228952
0.000587821
0.000228909
3.77894e-05
0.000229383
0.000200164
0.000703542
6.1588e-05
0.00019263
0.000212174
4.62614e-05
0.000229239
4.67119e-05
0.000186325
0.000250186
0.000713751
2.61129e-05
0.000229289
0.000228854
0.000229824
7.12735e-05
4.79434e-05
0.000228985
0.000229991
0.000107003
0.000110652
2.37046e-05
0.000103816
0.000140574
0.00022926
0.00056515
0.000239715
0.000228668
0.000116725
0.000118538
4.97001e-05
0.000233952
0.000109603
0.000251069
0.000181691
5.1445e-05
0.000305341
0.000148425
8.60904e-05
0.000110716
0.000227337
0.000235425
0.000241897
7.42583e-05
0.000182036
3.40363e-05
0.000229267
3.79779e-05
0.000207942
0.000228602
0.000229574
7.07489e-05
0.000292601
0.000511
0.000189179
0.000230037
0.000236667
0.000357581
0.000123784
6.14361e-05
0.000233332
6.53039e-05
0.000370823
2.4754e-05
0.000228732
4.01799e-05
0.000229237
0.000229733
0.000229334
5.07496e-05
8.66223e-05
6.35682e-05
0.000161534
3.29505e-05
8.15261e-05
0.000229636
0.000228722
0.000850852
0.000180866
0.00023405
0.000237943
4.13537e-05
4.51313e-05
2.96835e-05
2.93526e-05
0.000232158
0.000211901
5.31731e-05
0.000229317
2.28666e-05
0.000235672
0.00022962
0.000229019
8.05633e-05
3.53796e-05
0.000229086
0.000229185
0.000229777
0.000275508
2.54834e-05
0.000229889
4.05911e-05
0.000366288
0.000156569
6.55889e-05
0.000228707
3.78459e-05
0.00022897
0.00023511
0.000229401
0.000130025
0.000149571
0.000228554
0.000192951
0.00016899
0.000233554
0.000224388
0.000209534
0.000229415
0.000229435
0.000229657
6.86063e-05
5.86834e-05
0.000232698
9.30294e-05
0.00022976
0.000448018
0.000104793
4.43488e-05
0.000109905
0.00025127
0.000684055
6.17493e-05
0.000192708
0.000229179
0.000184227
0.000228829
0.000229695
0.000229104
0.000229575
0.000234351
0.000558463
0.000229348
0.000228762
0.000158385
0.000229268
3.84641e-05
0.000242604
0.00021261
0.000176268
4.65289e-05
0.000229994
0.000229283
0.000229895
1.72246e-05
3.53705e-05
0.000229319
0.000229336
0.000189699
0.000229786
0.000115173
0.00022973
0.000888391
0.000237176
3.33431e-05
0.000103959
0.000129835
6.28599e-05
0.000479254
0.00022946
0.000232049
0.00023514
0.000229723
7.10194e-05
2.53113e-05
0.000223797
0.000128747
0.00013142
0.000101592
0.000229357
0.000229489
0.000229686
0.000350985
0.000754573
8.39567e-05
0.000229448
0.000229323
0.000682097
0.000230581
0.00010369
0.000141632
0.000162628
0.000306698
0.000229293
8.84628e-05
0.000229244
6.12426e-05
0.000229402
0.000245658
0.00014869
0.000234829
2.8483e-05
0.000136828
0.000229897
0.000229993
0.000459385
0.000229019
0.000183437
0.000110515
6.60819e-05
0.000313738
4.52427e-05
0.000156533
0.000231176
0.000229321
0.00022925
0.000145887
5.1978e-05
0.000112363
0.00022857
0.000229377
8.90906e-05
0.00022949
0.000234404
0.000237023
0.00023357
0.000114438
5.46977e-05
6.60001e-05
0.000159957
0.000233676
0.000235028
0.000228625
0.000148206
0.000231534
0.000229245
0.000193791
0.000435006
0.000228967
0.000228927
2.24752e-05
0.000229968
0.000228692
0.000147672
0.000229733
0.000235062
9.70029e-05
9.45848e-05
0.000158562
0.000187082
0.000157715
6.957e-05
0.00040005
7.07856e-05
0.000107537
0.000179764
5.22873e-05
7.17566e-05
0.000128875
0.000229762
0.000230453
0.000116239
0.000230283
0.000229426
0.000244834
0.000207995
9.60705e-05
0.000183588
0.000192824
0.000244147
0.000229185
0.000198388
0.000229515
0.000228858
0.00023673
8.15788e-05
0.000231822
0.000233555
0.000231234
0.000229662
0.000132176
6.22578e-05
0.000310563
0.000231789
0.000230065
0.000189829
0.000205261
0.000234733
0.00016946
0.000231406
0.000210205
0.00049523
0.000229252
7.11655e-05
0.000229915
0.000133549
0.000144864
0.000111746
0.000161309
0.000215267
0.000246399
0.000229821
9.97211e-05
0.000181018
4.79527e-05
0.000837182
0.000228998
0.000233819
0.000229806
0.000160992
0.000229872
4.28377e-05
0.000229496
0.000229421
0.000229005
0.000131289
5.64951e-05
0.000229548
0.000128358
0.000229216
0.000115228
0.000169829
0.000231254
0.000119929
1.56098e-05
9.15338e-05
0.000236816
0.00019821
0.000141467
0.000119354
0.000142297
8.83809e-05
0.00022922
0.000152804
0.000229333
0.000232281
5.23574e-05
0.000184725
3.67491e-05
0.000192776
0.00023039
0.000235274
0.000229149
5.19057e-05
0.000229621
0.000909936
8.71496e-05
0.00086908
0.000234506
0.000138748
0.000207803
0.000293427
0.000242103
0.000124398
3.70504e-05
6.1619e-05
0.00022941
0.000190288
0.000130011
0.0002295
4.09844e-05
0.000118349
0.000242818
0.000214614
0.000229344
0.000234092
0.000235185
0.000129455
0.000235584
0.000193039
0.000229581
0.000133507
0.000234214
9.41904e-05
6.76477e-05
0.000374144
0.000110146
0.000228786
0.000262771
6.21653e-05
0.000229225
0.000195125
0.000187999
6.42775e-05
0.000243593
3.13708e-05
0.000247014
8.31025e-05
0.000103821
0.000252691
0.000228843
0.000246799
0.000229167
0.000136201
2.19708e-05
0.000230042
0.000229277
0.00025225
0.000366497
0.000554468
0.000156251
0.00022958
0.000149508
0.000253184
0.000229509
0.000229609
0.000229825
0.000229326
0.000233564
0.000157801
4.68647e-05
0.000106637
0.000177689
0.000231692
0.000229113