/*--------------------------------*- C++ -*----------------------------------*\
| =========                 |                                                 |
| \\      /  F ield         | OpenFOAM: The Open Source CFD Toolbox           |
|  \\    /   O peration     | Version:  3.0.1                                 |
|   \\  /    A nd           | Web:      www.OpenFOAM.org                      |
|    \\/     M anipulation  |                                                 |
\*---------------------------------------------------------------------------*/
FoamFile
{
    version     2.0;
    format      ascii;
    class       volScalarField;
    location    "0.988547";
    object      k;
}
// * * * * * * * * * * * * * * * * * * * * * * * * * * * * * * * * * * * * * //

dimensions      [0 2 -2 0 0 0 0];

internalField   nonuniform List<scalar> 
21246
(
1.09581
1.55999
1.17708
0.784611
0.47831
0.278307
0.159549
0.0908099
0.051393
0.0291981
0.017195
0.772925
1.10993
0.972042
0.69911
0.450363
0.273175
0.160055
0.091579
0.0515789
0.029005
0.0169227
0.543002
0.920753
0.86449
0.676347
0.461014
0.288562
0.17183
0.0987803
0.0553985
0.0309168
0.0179019
0.441614
0.763423
0.776551
0.65634
0.47362
0.307088
0.187098
0.109311
0.0617689
0.0343043
0.0195908
0.375424
0.61875
0.649165
0.586833
0.454635
0.311786
0.196081
0.116007
0.0654951
0.0358055
0.0198874
0.340947
0.534037
0.563024
0.515796
0.410163
0.290314
0.187388
0.113336
0.065487
0.0368252
0.0210921
0.317989
0.473824
0.499824
0.459079
0.368026
0.264195
0.174289
0.108274
0.0642411
0.0368986
0.0213389
0.30181
0.428162
0.44982
0.411985
0.33127
0.239931
0.160741
0.101957
0.061943
0.0364981
0.0220015
0.289527
0.391934
0.409412
0.373383
0.30028
0.218666
0.14822
0.0957131
0.0594959
0.0359335
0.0220912
0.27921
0.361874
0.376359
0.342266
0.27526
0.201251
0.137669
0.0902105
0.0571443
0.0351633
0.0217402
0.270403
0.336416
0.348964
0.317046
0.255217
0.187307
0.129115
0.0856041
0.0550195
0.0343397
0.0217039
0.263364
0.314986
0.326078
0.296247
0.238925
0.176103
0.122271
0.0819031
0.0533035
0.0337218
0.0216332
0.257776
0.296695
0.306945
0.279295
0.22599
0.167428
0.117093
0.0791838
0.0521357
0.0333984
0.0216039
0.253164
0.280792
0.290942
0.265836
0.21625
0.161228
0.113603
0.0775072
0.0515417
0.0333279
0.0218061
0.249714
0.267076
0.27741
0.255011
0.208992
0.157073
0.111598
0.0768094
0.0515333
0.0335526
0.0219728
0.247467
0.254999
0.265996
0.246606
0.204136
0.154983
0.111157
0.0771808
0.0521954
0.0341492
0.0223617
0.24643
0.244043
0.256351
0.240523
0.201823
0.155204
0.112521
0.078817
0.0536807
0.0352099
0.0230162
0.246596
0.234215
0.247562
0.235835
0.201665
0.157884
0.116036
0.0819272
0.0561619
0.0368927
0.0240902
0.24811
0.22522
0.239246
0.231694
0.202622
0.162234
0.121365
0.0867371
0.0599106
0.0395542
0.0258122
0.251347
0.216741
0.231083
0.227778
0.204347
0.16801
0.128474
0.0932221
0.0650631
0.0434297
0.0284282
0.257014
0.208625
0.222617
0.223511
0.20609
0.174561
0.137132
0.10165
0.0721522
0.0490709
0.0325271
0.266991
0.200291
0.213603
0.21791
0.206487
0.180586
0.146639
0.11214
0.0819021
0.0574193
0.0390595
0.280595
0.191677
0.202087
0.210742
0.205117
0.18529
0.156306
0.124594
0.0949397
0.0695891
0.0494142
0.296635
0.193561
0.204836
0.203558
0.199301
0.185475
0.163533
0.137317
0.110627
0.0859682
0.0648207
1.06254
1.6361
1.26287
0.934358
0.62403
0.367823
0.205539
0.112396
0.0615221
0.0341493
0.0198568
0.923584
1.25608
1.18936
0.98095
0.734231
0.484053
0.276296
0.1518
0.082335
0.0443112
0.0245107
0.643725
0.949915
1.04414
0.946857
0.768396
0.553366
0.346601
0.197523
0.110381
0.0588407
0.0315868
0.387677
1.00821
0.991726
0.909623
0.770229
0.588255
0.396676
0.241693
0.141943
0.0782709
0.0428766
0.449617
1.10361
1.03868
0.912098
0.771489
0.606585
0.430638
0.277973
0.172468
0.101557
0.0579659
0.510975
1.32822
1.2925
1.02401
0.808417
0.626594
0.455774
0.307316
0.19923
0.125053
0.076961
0.506553
1.23509
1.53556
1.24334
0.906148
0.664783
0.479757
0.331492
0.222586
0.146432
0.0952252
0.503452
1.15769
1.67316
1.56005
1.09301
0.739414
0.510817
0.352925
0.242602
0.165704
0.113356
0.501718
1.112
1.65513
1.82596
1.34977
0.860274
0.556433
0.374776
0.259907
0.182925
0.130332
0.499266
1.07839
1.61493
2.0039
1.64646
1.02864
0.621208
0.399753
0.275458
0.198235
0.145719
0.494642
1.04481
1.56965
2.03673
1.90126
1.22606
0.704127
0.429195
0.290193
0.211907
0.160155
0.488187
1.00449
1.51102
1.99362
2.06263
1.41741
0.794288
0.460795
0.304163
0.224214
0.17341
0.482249
0.964492
1.43992
1.90979
2.11925
1.56858
0.876233
0.490191
0.316996
0.235623
0.185931
0.477694
0.92155
1.35308
1.78852
2.06979
1.65373
0.934448
0.512525
0.328224
0.246672
0.198586
0.477101
0.880618
1.25621
1.63064
1.93329
1.65898
0.954595
0.523193
0.337574
0.258098
0.212281
0.478585
0.845692
1.15969
1.44893
1.69159
1.59331
0.933788
0.520081
0.345699
0.271693
0.227728
0.479787
0.810302
1.05713
1.26186
1.41356
1.40168
0.904609
0.510081
0.355938
0.289996
0.246779
0.48209
0.77773
0.953294
1.07606
1.15406
1.13793
0.868813
0.51169
0.375692
0.317985
0.272934
0.489377
0.757031
0.862965
0.913958
0.940092
0.931481
0.817863
0.562547
0.422883
0.36686
0.312954
0.509876
0.764302
0.809777
0.803117
0.79958
0.810703
0.788527
0.669332
0.518116
0.443043
0.371164
0.56426
0.854382
0.873026
0.824205
0.784614
0.778006
0.770161
0.721711
0.589445
0.48495
0.380818
0.712644
1.16492
1.20665
1.12367
0.98297
0.84303
0.682549
0.559451
0.438868
0.338895
0.252145
0.464906
0.867552
0.937751
0.73337
0.560849
0.438767
0.343085
0.269946
0.211667
0.164783
0.12672
0.332668
0.267288
0.23183
0.210906
0.198069
0.186509
0.172109
0.153596
0.131843
0.108863
0.0866427
0.251905
0.275091
0.104974
0.0491541
0.0247906
0.0158636
0.0125294
0.0111076
0.0103951
0.00998303
0.00971772
0.295632
0.409572
0.119669
0.0630699
0.0288914
0.0171927
0.0126913
0.0108402
0.00993224
0.00941456
0.00909088
0.33598
0.411416
0.145615
0.0748406
0.0318656
0.0186491
0.0129919
0.0107053
0.00958882
0.00894172
0.0084901
0.364315
0.384834
0.158135
0.0807523
0.033591
0.0199113
0.0132788
0.0106381
0.00933299
0.00857336
0.00803337
0.377926
0.370795
0.164772
0.082654
0.0351621
0.0209065
0.0135273
0.0106142
0.00915002
0.00829982
0.00770582
0.377995
0.368549
0.172366
0.0856614
0.0376014
0.0217447
0.0138077
0.0106458
0.00903643
0.00810859
0.00747464
0.366381
0.374599
0.182656
0.090827
0.0412781
0.0229879
0.0142019
0.0107478
0.00899405
0.00798923
0.00730345
0.345283
0.387467
0.195386
0.0978924
0.0457535
0.0247011
0.0149771
0.0109819
0.00902646
0.00793925
0.0072037
0.317792
0.405119
0.211611
0.107194
0.0512963
0.0270902
0.0161089
0.0114109
0.00918342
0.00797476
0.0071703
0.286737
0.424847
0.23378
0.120155
0.0586858
0.0305537
0.0177512
0.0120977
0.00947564
0.00809434
0.0072106
0.253766
0.447872
0.26211
0.137223
0.0682809
0.035321
0.0200504
0.013128
0.00994323
0.00831416
0.00732341
0.22161
0.477483
0.296447
0.158259
0.0800351
0.0414344
0.0231095
0.0145825
0.0106351
0.0086592
0.00751847
0.194548
0.511356
0.339031
0.185052
0.0949013
0.0493289
0.0271894
0.0166151
0.011638
0.00917437
0.00781598
0.175653
0.546355
0.392009
0.220418
0.114605
0.0598568
0.0327378
0.0194759
0.0130933
0.00993651
0.00825416
0.168109
0.590183
0.457337
0.265796
0.140088
0.0735642
0.0401069
0.0234113
0.0151702
0.0110505
0.00889336
0.174041
0.64075
0.537376
0.325466
0.174253
0.092006
0.0501185
0.02889
0.0181585
0.012694
0.00983529
0.189015
0.685041
0.629449
0.405043
0.222265
0.118242
0.0644135
0.0368092
0.0225799
0.0151805
0.0112671
0.207521
0.715254
0.722781
0.506439
0.289673
0.156406
0.0855197
0.0486578
0.0293282
0.0190597
0.0135299
0.220546
0.721207
0.796189
0.623811
0.382519
0.213227
0.118133
0.0673838
0.0402111
0.0254461
0.0173094
0.226404
0.700664
0.827038
0.73443
0.50058
0.297093
0.170335
0.0987968
0.059034
0.0367566
0.0241304
0.222595
0.641369
0.798037
0.800506
0.627795
0.414559
0.25477
0.154098
0.0939902
0.058546
0.0376306
0.234458
0.580492
0.737435
0.81293
0.735059
0.560403
0.385236
0.251871
0.161482
0.103459
0.0668371
0.214961
0.467843
0.562341
0.643449
0.656222
0.599298
0.491068
0.369775
0.263772
0.183016
0.124646
0.267039
0.601306
0.608105
0.633379
0.619004
0.571606
0.49737
0.408969
0.322654
0.247668
0.184554
0.195749
0.202858
0.0915717
0.040343
0.0220547
0.0153537
0.0127376
0.0115886
0.0110294
0.0107491
0.0106264
0.189863
0.171041
0.0753107
0.042358
0.024358
0.0167182
0.013635
0.0123304
0.0117593
0.0115464
0.0115525
0.212718
0.189743
0.072631
0.0489152
0.0285355
0.0192427
0.0150971
0.0133055
0.0125324
0.0122616
0.0122882
0.233966
0.183288
0.0707706
0.0519303
0.0302664
0.0210401
0.0164793
0.0144116
0.013509
0.013166
0.0131564
0.250719
0.163316
0.0697671
0.0528919
0.031343
0.0223032
0.017423
0.0151931
0.0141999
0.0138389
0.0138493
0.263912
0.144906
0.0687506
0.0521088
0.0315456
0.0230791
0.018136
0.0159174
0.0149504
0.014661
0.0147577
0.274889
0.130906
0.06758
0.0506607
0.0313808
0.0235616
0.018672
0.0165849
0.0157393
0.0156339
0.0159745
0.283464
0.120416
0.0662393
0.049133
0.0311998
0.0238734
0.0191
0.0171575
0.0164266
0.0164656
0.016954
0.291115
0.112596
0.0650602
0.0479578
0.0312502
0.0241126
0.019482
0.0176418
0.0169956
0.017168
0.0178997
0.29873
0.107063
0.064227
0.0471609
0.0315409
0.0243913
0.0198594
0.0180554
0.0174436
0.0176988
0.0186158
0.307056
0.103486
0.0639151
0.0469208
0.0320666
0.0247852
0.0202629
0.0184191
0.0177745
0.0180164
0.0189027
0.315819
0.101159
0.0639222
0.0471352
0.0328182
0.0253176
0.0207133
0.0187567
0.0180129
0.0181682
0.0190066
0.325028
0.100357
0.0643237
0.0478001
0.0338645
0.0260311
0.0212496
0.019101
0.0181942
0.0181949
0.0188947
0.332954
0.102283
0.0653971
0.0489244
0.0353735
0.0270561
0.0219984
0.019535
0.0183954
0.0181765
0.0186642
0.339696
0.105576
0.0668981
0.0503482
0.0372845
0.0284551
0.0230474
0.0201505
0.0187013
0.018201
0.0184196
0.345433
0.110345
0.0689712
0.0521276
0.0395861
0.0303276
0.0244918
0.0210608
0.0192047
0.0183549
0.0182544
0.350308
0.116903
0.0718649
0.0543645
0.042293
0.0327748
0.0264627
0.0224238
0.0200496
0.0187671
0.0182852
0.354421
0.12505
0.0757937
0.0571691
0.0454129
0.035856
0.0291023
0.0244367
0.0214471
0.0196361
0.0186941
0.357895
0.134783
0.0810799
0.0607503
0.0490102
0.0396079
0.0325479
0.027325
0.023684
0.0212595
0.0197688
0.360926
0.14624
0.0882413
0.0655008
0.0532743
0.0440678
0.0369041
0.0313058
0.0270968
0.0240534
0.0219539
0.363806
0.159429
0.0978101
0.0720363
0.0585973
0.0493347
0.0422058
0.0364901
0.0319555
0.0284515
0.0258319
0.367247
0.173697
0.110094
0.0811216
0.0656487
0.0556808
0.0484017
0.0426966
0.038122
0.0344775
0.0316432
0.371594
0.190619
0.126405
0.094187
0.0757818
0.0639811
0.0557228
0.0496073
0.0449425
0.0413543
0.0385847
0.390801
0.213023
0.160892
0.133263
0.1155
0.10201
0.0933211
0.0899529
0.089691
0.0906742
0.090795
0.794964
1.32618
1.01111
0.778951
0.549504
0.364466
0.242076
0.172054
0.13442
0.115358
0.106649
0.703211
1.04808
0.962032
0.803988
0.615124
0.426054
0.269319
0.182213
0.137163
0.116363
0.108612
0.549743
0.788342
0.854771
0.779066
0.641235
0.47514
0.315059
0.203575
0.141609
0.116011
0.108325
0.375721
0.6271
0.742441
0.730266
0.641467
0.506118
0.35655
0.233773
0.154476
0.116527
0.105398
0.224361
0.516899
0.645352
0.674875
0.627255
0.523273
0.391017
0.266705
0.174336
0.122431
0.102447
0.131958
0.440152
0.571236
0.620803
0.603221
0.52847
0.416948
0.298612
0.19918
0.134208
0.102616
0.112839
0.393582
0.524113
0.575125
0.573841
0.522493
0.432275
0.325307
0.225203
0.150623
0.107097
0.104732
0.353175
0.493311
0.540839
0.544437
0.507945
0.43628
0.343382
0.248102
0.168779
0.115253
0.0866516
0.27824
0.442007
0.506864
0.515486
0.487299
0.429953
0.35136
0.264582
0.185301
0.125152
0.0703494
0.211193
0.363769
0.459953
0.482174
0.461029
0.414759
0.349348
0.272854
0.19731
0.134261
0.0595966
0.165438
0.281259
0.395137
0.438975
0.428146
0.391747
0.338108
0.272261
0.202811
0.140021
0.0511686
0.13652
0.215136
0.317077
0.385825
0.388492
0.361849
0.318809
0.263112
0.200845
0.140866
0.0439122
0.114582
0.170937
0.246856
0.322503
0.342933
0.326253
0.292987
0.246596
0.19179
0.13622
0.037164
0.0961925
0.137565
0.193435
0.257277
0.292602
0.286323
0.262238
0.224356
0.176973
0.126844
0.0313992
0.0809835
0.112001
0.153267
0.202163
0.239965
0.244228
0.228665
0.198771
0.158815
0.115042
0.0269067
0.0689412
0.0926043
0.123122
0.159034
0.191784
0.203145
0.195592
0.173647
0.14132
0.1041
0.0232126
0.0594073
0.077745
0.100486
0.12642
0.152504
0.167332
0.167651
0.154162
0.129556
0.0978201
0.0205721
0.0520215
0.0665157
0.0837541
0.102796
0.124069
0.14176
0.150541
0.146354
0.129125
0.100982
0.018803
0.0467264
0.0583578
0.0723033
0.0879916
0.108466
0.13128
0.148923
0.153517
0.142377
0.115138
0.0184971
0.0460941
0.0552412
0.0683213
0.0837063
0.105976
0.133109
0.153643
0.161898
0.156902
0.133937
0.024319
0.0504341
0.057033
0.0687877
0.0839065
0.109531
0.13251
0.14799
0.157049
0.160127
0.149881
0.0305124
0.0529452
0.0557034
0.0689063
0.0904171
0.116595
0.136913
0.150726
0.159089
0.163821
0.16199
0.0299689
0.0467213
0.060476
0.0893797
0.121183
0.14508
0.159864
0.165961
0.165959
0.164173
0.162103
0.0638315
0.090344
0.126246
0.155371
0.175483
0.184922
0.184218
0.176911
0.16785
0.160553
0.156038
0.829184
1.15043
0.988566
0.732734
0.506331
0.341249
0.234368
0.1703
0.133651
0.113632
0.103194
0.597673
0.935487
0.887603
0.728376
0.538427
0.37535
0.258123
0.183133
0.138636
0.11374
0.100615
0.48568
0.815549
0.829843
0.743897
0.591045
0.4296
0.297312
0.205546
0.148625
0.116103
0.0991025
0.389024
0.661298
0.727986
0.724645
0.633843
0.493078
0.351579
0.24033
0.166093
0.121917
0.0984341
0.306466
0.523214
0.614062
0.655368
0.634463
0.550491
0.424698
0.298763
0.200997
0.137276
0.101663
0.230843
0.399112
0.502517
0.56703
0.588607
0.558331
0.476455
0.36595
0.258425
0.17324
0.116306
0.164939
0.290095
0.395313
0.472721
0.523823
0.534802
0.492435
0.405277
0.301969
0.208242
0.137202
0.11406
0.207334
0.301102
0.38173
0.450449
0.492619
0.486969
0.428533
0.338422
0.244184
0.163821
0.0811052
0.154539
0.231956
0.305864
0.379392
0.441288
0.465335
0.435814
0.364356
0.27732
0.195205
0.0640126
0.126321
0.189237
0.254195
0.323303
0.390301
0.434256
0.430288
0.378067
0.301962
0.22281
0.0570224
0.114193
0.166839
0.223835
0.285499
0.349616
0.401015
0.415485
0.38174
0.316497
0.245696
0.0551954
0.111649
0.15767
0.208231
0.262343
0.320419
0.372047
0.395984
0.376149
0.322658
0.258986
0.0556988
0.113846
0.155317
0.200601
0.248078
0.299332
0.347723
0.375832
0.365072
0.319552
0.264068
0.0570673
0.117814
0.155997
0.196587
0.237774
0.281904
0.325432
0.35496
0.35117
0.311868
0.26039
0.0586941
0.122448
0.158162
0.194209
0.228866
0.26525
0.302672
0.331939
0.334527
0.301587
0.252476
0.0603605
0.126971
0.161074
0.192659
0.220515
0.248424
0.27845
0.30589
0.3145
0.288996
0.243432
0.0620656
0.131275
0.164797
0.192265
0.213413
0.232465
0.253942
0.277625
0.290916
0.273966
0.23336
0.0640653
0.135985
0.170187
0.194122
0.208954
0.219247
0.231543
0.249472
0.264748
0.256236
0.223827
0.0667796
0.141766
0.177549
0.198616
0.207874
0.210073
0.213277
0.22394
0.237609
0.235979
0.212049
0.0699683
0.147707
0.185627
0.205106
0.210291
0.20569
0.200508
0.203245
0.21223
0.213877
0.197734
0.0722789
0.15169
0.192698
0.212556
0.215633
0.206053
0.193765
0.18873
0.191492
0.192501
0.182656
0.0748534
0.154231
0.19808
0.218866
0.221221
0.20899
0.191871
0.180247
0.176702
0.174877
0.1679
0.0715934
0.151345
0.198168
0.219285
0.221825
0.210084
0.191889
0.176466
0.167971
0.163094
0.157497
0.103221
0.173642
0.203281
0.213776
0.213805
0.204386
0.189264
0.1746
0.164293
0.157717
0.153316
0.103743
0.115752
0.124768
0.130252
0.126007
0.127649
0.126251
0.121266
0.111864
0.150527
0.175135
0.194473
0.210108
0.214103
0.202134
0.187469
0.16976
0.147481
0.159975
0.175778
0.194473
0.210987
0.216341
0.205289
0.189287
0.170067
0.152882
0.148808
0.160074
0.17424
0.185926
0.189427
0.179454
0.167182
0.153469
0.14197
0.0867547
0.0618046
0.0251979
0.0169154
0.0150833
0.0137408
0.0377115
0.0749821
0.0979639
0.119968
0.0881667
0.0583799
0.0281879
0.0247714
0.0341114
0.0625715
0.0908892
0.119835
0.13994
0.110756
0.075083
0.0360627
0.0310706
0.0458563
0.0776519
0.108894
0.133983
0.135712
0.114802
0.0834696
0.0429065
0.0369773
0.0532977
0.0836484
0.111175
0.128814
0.00442722
0.00460086
0.00461606
0.00211419
0.0472236
0.00438661
0.0113726
0.00454325
0.00438038
0.0042508
0.0467503
0.00455426
0.00371493
0.00329401
0.00448377
0.00430306
0.00331091
0.00209814
0.00429236
0.00424711
0.00411541
0.0047546
0.00466668
0.0185113
0.0044931
0.00330533
0.00376757
0.0110475
0.0835709
0.0488463
0.00340485
0.00410971
0.00299712
0.00453488
0.00427285
0.0045922
0.0172217
0.00448842
0.00292584
0.0043943
0.00674894
0.00454418
0.00677318
0.00465979
0.0606397
0.0120495
0.00330985
0.0186812
0.00429791
0.00433454
0.0490796
0.0043992
0.00767829
0.00683341
0.0043286
0.00412185
0.00457493
0.00440484
0.0846292
0.00354927
0.00523647
0.00575359
0.0526627
0.00793369
0.00817433
0.00425867
0.0521842
0.00429297
0.00460152
0.00424175
0.0032973
0.00434018
0.00311389
0.00470862
0.00451072
0.00429808
0.00427919
0.00459756
0.009334
0.0730219
0.0450045
0.00635941
0.0044952
0.00462593
0.00437952
0.003134
0.0967324
0.0049719
0.00318486
0.0182507
0.00454301
0.00441435
0.00738521
0.00440827
0.072119
0.0266277
0.00273316
0.00396182
0.0035108
0.00442326
0.00470081
0.0192442
0.00417351
0.00402687
0.0028399
0.00455222
0.00304762
0.00464658
0.00434847
0.00419061
0.00450609
0.00455934
0.00431806
0.00223235
0.004172
0.0044241
0.00438351
0.00431628
0.00449435
0.00414272
0.0022714
0.00460573
0.00540854
0.0032577
0.0112821
0.00411273
0.0596987
0.00304513
0.00322085
0.00353891
0.004451
0.00355187
0.0185767
0.00430649
0.00461476
0.00456116
0.00417732
0.00430349
0.0500004
0.00446436
0.00705664
0.00411937
0.0241986
0.00402522
0.00437628
0.00328778
0.00444972
0.00429237
0.00433177
0.00423893
0.00427149
0.00441729
0.00355402
0.00459789
0.00224099
0.0037783
0.00379045
0.00373525
0.00320818
0.00436068
0.0036419
0.00429382
0.00433139
0.00443354
0.0533558
0.00583581
0.00362476
0.004333
0.00419329
0.0080178
0.00308819
0.00309718
0.00449328
0.00405912
0.00409891
0.00396511
0.00316454
0.00359899
0.061373
0.00393085
0.0042856
0.00480894
0.00465909
0.0133183
0.00449883
0.00382456
0.0042452
0.00430084
0.0045877
0.0125406
0.00418446
0.00341594
0.00427237
0.0066021
0.00460951
0.00440134
0.0043584
0.00358327
0.00362587
0.00467918
0.00321618
0.0043306
0.00407653
0.0035024
0.0046276
0.00503053
0.00438923
0.00321359
0.00434919
0.00433906
0.021255
0.00439495
0.00401457
0.00423134
0.0044896
0.00419324
0.00450962
0.00375784
0.00426761
0.00315657
0.00291227
0.00217583
0.00278363
0.00417755
0.00321646
0.00440951
0.00951418
0.00562619
0.00394704
0.0229016
0.00389023
0.0042563
0.00426328
0.00459152
0.0035141
0.0743667
0.0496524
0.00464578
0.00455918
0.00454653
0.00378306
0.00842465
0.00401791
0.00591394
0.0047139
0.00476368
0.00451677
0.00360265
0.0309553
0.0580573
0.00358828
0.0214785
0.00513206
0.00429757
0.00395884
0.00436579
0.00414096
0.00447458
0.00313288
0.0042383
0.00339269
0.00454441
0.00432656
0.00457371
0.00450423
0.00309972
0.00412138
0.00455074
0.00559383
0.0037247
0.0211192
0.00431691
0.00432357
0.00319672
0.00438925
0.00432908
0.00332005
0.00444623
0.0042792
0.00314689
0.00438778
0.00460134
0.0452106
0.0465716
0.00395872
0.00439718
0.0833782
0.00458961
0.0042524
0.00687161
0.00461851
0.0114976
0.0044246
0.00296519
0.00467853
0.00435702
0.00416877
0.00456389
0.00427149
0.00334905
0.00444383
0.00244654
0.00437585
0.0492953
0.00415139
0.00419092
0.00459855
0.0156671
0.00468408
0.00435405
0.00749054
0.00456565
0.0041012
0.00299196
0.00488181
0.00410698
0.00368618
0.0032183
0.00413089
0.00456933
0.00424368
0.0355563
0.00435759
0.00339294
0.00547939
0.00422164
0.00445136
0.00370821
0.00424028
0.0297896
0.00429856
0.0533412
0.00388405
0.0046505
0.00354118
0.0395495
0.00341495
0.00458628
0.00447203
0.00395124
0.00404342
0.0205249
0.00431953
0.00568434
0.0197359
0.0158
0.0043324
0.00437922
0.0146811
0.0640275
0.00862383
0.00391434
0.003742
0.00416795
0.00394524
0.00468917
0.00294682
0.00399877
0.00466089
0.0368151
0.00386306
0.0033328
0.00451737
0.00451145
0.00431481
0.00333514
0.00308667
0.00328925
0.0104815
0.00490099
0.0044399
0.0121867
0.0355072
0.00320028
0.00387834
0.0046098
0.00391823
0.00425819
0.00437736
0.00424593
0.0378559
0.00438687
0.00316638
0.00441581
0.00340374
0.0498977
0.00235516
0.00320174
0.00824773
0.00341698
0.00442727
0.00527923
0.00310329
0.00470153
0.0514033
0.00823582
0.00447731
0.00428309
0.00462357
0.00577787
0.00311262
0.00441106
0.00466209
0.00701322
0.00283397
0.00726591
0.00782571
0.00718176
0.00432758
0.0355104
0.0042601
0.00427776
0.00378242
0.00371553
0.00410236
0.00408064
0.00421211
0.0049003
0.00314152
0.00476593
0.0322906
0.00321329
0.0123296
0.00413317
0.00398636
0.00417231
0.00466607
0.00481914
0.00487307
0.00925703
0.0044849
0.00316952
0.00342993
0.00410564
0.00434429
0.00316939
0.0257384
0.0488799
0.00326888
0.00468852
0.00396312
0.0956144
0.0021413
0.00239279
0.00419536
0.00443082
0.00353939
0.00358785
0.00434409
0.0039876
0.00443847
0.00461296
0.00449801
0.00412264
0.00444497
0.0110807
0.0031008
0.00323308
0.00492071
0.00458957
0.00433925
0.0619844
0.00320244
0.00395073
0.00423841
0.00816745
0.00764603
0.00545505
0.00546768
0.00430667
0.00393626
0.00307883
0.00421459
0.00518433
0.00421778
0.0045859
0.00432664
0.00557858
0.00358751
0.0042526
0.0044513
0.00413085
0.0166031
0.00473896
0.00464784
0.00331621
0.0309431
0.00404737
0.00334484
0.00434046
0.00346444
0.00439919
0.00421394
0.0044054
0.00338162
0.00327094
0.00426249
0.0033984
0.0040022
0.00453852
0.00374903
0.0036973
0.00453685
0.00453382
0.0368958
0.00383246
0.00285136
0.00429832
0.0176888
0.00461929
0.0372769
0.00435351
0.0034476
0.00515697
0.00474029
0.0493421
0.00515587
0.0033871
0.00445188
0.00360711
0.004121
0.00459957
0.00442686
0.00457144
0.00418994
0.036485
0.0045134
0.00435434
0.0122262
0.00443599
0.00938345
0.00420299
0.0128244
0.00331614
0.0032083
0.00467855
0.00447626
0.00463742
0.00645913
0.00364113
0.00450087
0.00448902
0.00324931
0.00461805
0.00215729
0.00460796
0.0395426
0.00423736
0.00395903
0.00296413
0.00333698
0.0130397
0.039269
0.00416059
0.00411784
0.00431661
0.00460696
0.00316072
0.00340799
0.00423521
0.00354643
0.030816
0.0299786
0.00449167
0.00433989
0.00459875
0.00355463
0.0520869
0.00422714
0.00454155
0.00437737
0.046717
0.0043266
0.00306534
0.00328009
0.00869312
0.0334894
0.00443101
0.00451363
0.0044638
0.00527255
0.00434349
0.00439163
0.00318699
0.00409987
0.00505391
0.00741448
0.00463994
0.00467392
0.0709824
0.00440957
0.00354517
0.00319405
0.00546684
0.00322623
0.00401464
0.00359152
0.00422366
0.00443645
0.00448796
0.0249824
0.00301411
0.00389801
0.00424953
0.00450061
0.00651021
0.00422995
0.00451662
0.00422828
0.00431111
0.003191
0.0031039
0.00543787
0.00567685
0.00401702
0.0051692
0.0042905
0.0100333
0.0042869
0.00445223
0.0305209
0.0284976
0.00438339
0.00439137
0.00416256
0.00416127
0.00433334
0.00565157
0.00460815
0.00418934
0.00324859
0.00297212
0.00382182
0.0031255
0.00318347
0.00538662
0.0249277
0.00496692
0.00628328
0.0035418
0.00350106
0.00463186
0.00349197
0.00462121
0.00416764
0.00556053
0.00394224
0.00420819
0.00440739
0.00343841
0.00693625
0.0304345
0.00361332
0.00502127
0.00442465
0.00520997
0.00455006
0.00429342
0.00426883
0.00337838
0.00426236
0.00430755
0.00418636
0.00459281
0.003954
0.00621862
0.0221324
0.00428865
0.00421918
0.00399126
0.00768793
0.00451373
0.0153799
0.00431455
0.00568218
0.0334066
0.00442976
0.00348118
0.00465958
0.00301864
0.00501143
0.00316748
0.0265813
0.00364973
0.00427752
0.00463634
0.00372341
0.00321242
0.00407313
0.0588892
0.0043711
0.00408533
0.00463248
0.00374766
0.00419551
0.00317085
0.00455594
0.00440378
0.00440586
0.00378688
0.00463221
0.00456233
0.00332353
0.0043744
0.00543312
0.00321849
0.00408159
0.00368771
0.0053948
0.00293902
0.00407871
0.00373581
0.00358887
0.00737125
0.00302062
0.0116546
0.00446784
0.00335405
0.00448859
0.0042856
0.00699608
0.00462457
0.00350011
0.00328894
0.00432681
0.0041897
0.0041348
0.00415069
0.00458422
0.0596549
0.0064853
0.0383634
0.00415669
0.00397756
0.00539792
0.00320422
0.00455548
0.00344244
0.00372928
0.00286285
0.0045245
0.0033408
0.0298142
0.00454936
0.00941551
0.00350572
0.00482741
0.00550465
0.00438465
0.00420888
0.00421937
0.00336505
0.00440143
0.00320149
0.00457249
0.00302868
0.00431946
0.00297792
0.00381379
0.0245942
0.00426359
0.00428884
0.0226066
0.012844
0.00446257
0.00320313
0.00385508
0.00492769
0.00513723
0.0037724
0.00435545
0.00414643
0.00297419
0.00497519
0.00428434
0.00437023
0.00441482
0.00317034
0.00371902
0.00469032
0.00448334
0.0045662
0.0317779
0.0345516
0.00358013
0.00457639
0.00336078
0.00453766
0.00455584
0.0045782
0.00462633
0.00447898
0.00456284
0.00316486
0.00506578
0.0104822
0.00308506
0.00440387
0.00443025
0.00449554
0.00376933
0.0330546
0.00459595
0.00411109
0.00352552
0.0170732
0.0207167
0.00471816
0.00392092
0.00356947
0.00443373
0.00446159
0.0109339
0.00421851
0.00456494
0.00442806
0.0091111
0.00400137
0.00390503
0.00455627
0.00409639
0.00646433
0.00368213
0.00456335
0.00309521
0.00561893
0.00461488
0.00391574
0.00464011
0.00427753
0.00207295
0.00301016
0.00459714
0.00460058
0.00418538
0.00474643
0.00433973
0.00459137
0.00259
0.00344516
0.0089878
0.0149357
0.00673083
0.00454673
0.051493
0.00466958
0.00430875
0.00539857
0.00448466
0.00441677
0.00441715
0.00302721
0.00521607
0.00378842
0.00441391
0.00289071
0.00442526
0.00468783
0.00434219
0.00438758
0.00441834
0.00449399
0.00455954
0.00434463
0.0681153
0.00438211
0.00425503
0.00452327
0.017762
0.00426377
0.00450592
0.00489703
0.0625931
0.00421975
0.00449806
0.00297574
0.00314337
0.0046519
0.00454035
0.00422044
0.00400779
0.00838893
0.00459941
0.0121239
0.00297602
0.0250764
0.00301457
0.00457859
0.00326268
0.00564085
0.00444198
0.004573
0.00431573
0.00460807
0.00395177
0.00994537
0.00420332
0.00573163
0.0494165
0.00497815
0.00394123
0.00558329
0.00466376
0.00455809
0.00314276
0.00282146
0.00329553
0.00439989
0.0279354
0.00431625
0.00328301
0.0043112
0.0031391
0.0031294
0.00325095
0.00354797
0.00420142
0.00452783
0.0467313
0.00447707
0.0641444
0.00423665
0.00302997
0.00429379
0.00420985
0.0568186
0.00438182
0.00460439
0.00352579
0.00904027
0.00773204
0.00357095
0.00328948
0.00332421
0.00414742
0.0380124
0.00451949
0.00433091
0.0651214
0.00439973
0.00540161
0.00449243
0.0152751
0.00302799
0.00666323
0.0046037
0.00342703
0.00464728
0.00440792
0.00420623
0.00244393
0.00425295
0.00445916
0.00433738
0.00455703
0.00462745
0.00457319
0.00456056
0.00418834
0.00730398
0.00361226
0.00392119
0.00460982
0.00872535
0.0030097
0.00460133
0.00467713
0.00408836
0.00634057
0.0502857
0.0039734
0.00339292
0.00410191
0.00434851
0.003068
0.00451035
0.00422423
0.0100069
0.00455477
0.0699245
0.00912257
0.0236121
0.00455301
0.00455126
0.00376806
0.0431356
0.00335516
0.00313662
0.00467581
0.00307021
0.0193888
0.00456157
0.00402841
0.00318596
0.00391963
0.0322146
0.00368463
0.00445118
0.00432676
0.00416458
0.00420727
0.00731272
0.00294214
0.01272
0.0517699
0.00460144
0.00301235
0.00386853
0.00513603
0.0151194
0.00444027
0.00439305
0.00406568
0.00313298
0.00454413
0.00467292
0.00467841
0.00363733
0.00413861
0.00461204
0.00371579
0.00674401
0.00321207
0.00452216
0.00827229
0.00413882
0.00407723
0.00400385
0.00455555
0.00431783
0.00447179
0.0140844
0.00425918
0.00370047
0.00400028
0.00346923
0.00450463
0.00417706
0.00450322
0.00437809
0.0033657
0.0120747
0.00739757
0.0554536
0.00969841
0.0393201
0.00420802
0.00445851
0.00248334
0.00462823
0.00324937
0.00521782
0.00430156
0.00512725
0.00388508
0.0298189
0.00418483
0.00319851
0.00454966
0.0489883
0.004696
0.0356972
0.00409922
0.00480408
0.00488074
0.0104681
0.00418896
0.00554912
0.00566279
0.00448471
0.0203386
0.00558637
0.0242002
0.0035238
0.00235121
0.0127601
0.00471192
0.00461256
0.00372471
0.00467939
0.00344421
0.00331687
0.00317772
0.00390654
0.00318803
0.0543048
0.00437617
0.0042913
0.00426404
0.00457215
0.00294662
0.00340613
0.00425659
0.00332203
0.0434158
0.00431124
0.0571699
0.00740668
0.00448415
0.00556721
0.00385385
0.00321064
0.00317943
0.0253459
0.00442429
0.00452616
0.0516148
0.00437487
0.00458734
0.00355635
0.00454345
0.00451254
0.0318962
0.00462204
0.0319734
0.00397942
0.00380687
0.00428591
0.00430408
0.00533921
0.00325396
0.0126328
0.00444607
0.00295452
0.00509106
0.00307948
0.00326827
0.00527988
0.00548834
0.0042404
0.00803215
0.0147626
0.00406518
0.00431829
0.00350251
0.00381187
0.00472019
0.00351766
0.0504547
0.00425697
0.00468929
0.004506
0.00407038
0.00283032
0.00320971
0.00335414
0.0762018
0.00475427
0.00587822
0.00555634
0.00457679
0.00397049
0.00424447
0.00421676
0.0765001
0.00458819
0.0189673
0.023852
0.00456326
0.00449445
0.00464761
0.0313944
0.0322922
0.0210841
0.00335372
0.00456788
0.00427585
0.00327156
0.0404349
0.00657909
0.00307285
0.00434309
0.00616293
0.00455528
0.00539579
0.00416447
0.013713
0.0279986
0.00405306
0.00382778
0.00430338
0.00437778
0.030416
0.00320404
0.00372089
0.00460015
0.00465893
0.00411708
0.0482084
0.00312713
0.00297757
0.00781863
0.00469083
0.00437684
0.0140405
0.00533577
0.00462035
0.00304836
0.00364787
0.00412315
0.0548581
0.00453417
0.00442546
0.00426952
0.00566515
0.00310255
0.00435661
0.00517719
0.00461354
0.0045589
0.00468819
0.00330131
0.0044289
0.00735309
0.00423266
0.00455765
0.0493603
0.00426005
0.00354009
0.00358222
0.00444251
0.00351894
0.0053538
0.00452226
0.004564
0.00448163
0.00305339
0.00449618
0.00427756
0.00442676
0.00372435
0.00622926
0.00314327
0.00688634
0.00429942
0.00545057
0.00421099
0.00467579
0.00422922
0.00458652
0.0031502
0.00414062
0.00325883
0.00412461
0.00420817
0.00450142
0.00452619
0.0311783
0.00546802
0.0160735
0.00468828
0.00302152
0.0628515
0.00319174
0.00299519
0.0043981
0.00548814
0.00402468
0.00563209
0.00319246
0.00521551
0.00381009
0.00303864
0.00450162
0.0677842
0.00309142
0.0041504
0.00407789
0.00399548
0.0036118
0.00276643
0.00428957
0.00306479
0.0558965
0.0347178
0.00448554
0.00428202
0.00360256
0.0125019
0.00401672
0.00454928
0.00424915
0.00462875
0.00447321
0.00487829
0.00440258
0.00465047
0.0131023
0.00236137
0.00433017
0.00442761
0.0043921
0.00416234
0.00468348
0.00433298
0.00429262