/*--------------------------------*- C++ -*----------------------------------*\
| =========                 |                                                 |
| \\      /  F ield         | OpenFOAM: The Open Source CFD Toolbox           |
|  \\    /   O peration     | Version:  3.0.1                                 |
|   \\  /    A nd           | Web:      www.OpenFOAM.org                      |
|    \\/     M anipulation  |                                                 |
\*---------------------------------------------------------------------------*/
FoamFile
{
    version     2.0;
    format      ascii;
    class       surfaceScalarField;
    location    "0.988547";
    object      phi;
}
// * * * * * * * * * * * * * * * * * * * * * * * * * * * * * * * * * * * * * //

dimensions      [0 3 -1 0 0 0 0];

internalField   nonuniform List<scalar> 
32369
(
-9.47984e-06
-9.83353e-06
1.93134e-05
-1.51921e-05
-1.14486e-05
1.71609e-05
-1.9986e-05
-1.36851e-05
1.84789e-05
-2.47049e-05
-1.59353e-05
2.06542e-05
-2.91878e-05
-1.80023e-05
2.24852e-05
-3.36951e-05
-1.98566e-05
2.43639e-05
-3.85446e-05
-2.15032e-05
2.63528e-05
-4.40073e-05
-2.28927e-05
2.83554e-05
-5.03542e-05
-2.39267e-05
3.02736e-05
-5.78483e-05
-2.44115e-05
3.19056e-05
-2.39975e-05
3.29818e-05
-6.68326e-05
-7.48739e-06
-2.34614e-06
-1.36782e-05
-5.25785e-06
-1.93021e-05
-8.06111e-06
-2.45089e-05
-1.07285e-05
-2.94291e-05
-1.30821e-05
-3.4318e-05
-1.49677e-05
-3.95027e-05
-1.63185e-05
-4.53272e-05
-1.70683e-05
-5.21402e-05
-1.71137e-05
-6.03064e-05
-1.62453e-05
-1.41081e-05
-7.01958e-05
-3.7329e-06
1.38676e-06
-8.32185e-06
-6.68895e-07
-1.34449e-05
-2.9381e-06
-1.88168e-05
-5.35652e-06
-2.43851e-05
-7.51386e-06
-3.0134e-05
-9.21871e-06
-3.62165e-05
-1.02361e-05
-4.29053e-05
-1.03795e-05
-5.05399e-05
-9.47912e-06
-5.94785e-05
-7.30669e-06
-3.50275e-06
-7.00838e-05
-1.80679e-06
3.19355e-06
-4.81229e-06
2.33661e-06
-8.96792e-06
1.21753e-06
-1.39488e-05
-3.7561e-07
-1.9469e-05
-1.99373e-06
-2.54721e-05
-3.21562e-06
-3.20044e-05
-3.70377e-06
-3.91985e-05
-3.18529e-06
-4.72736e-05
-1.40407e-06
-5.65651e-05
1.9848e-06
7.48911e-06
-6.75569e-05
-1.09131e-06
4.28486e-06
-2.90793e-06
4.15323e-06
-5.78816e-06
4.09775e-06
-9.77373e-06
3.60996e-06
-1.47348e-05
2.96731e-06
-2.05327e-05
2.58227e-06
-2.7092e-05
2.85557e-06
-3.44637e-05
4.18638e-06
-4.28388e-05
6.97102e-06
-5.24666e-05
1.16126e-05
1.87103e-05
-6.36878e-05
-1.05759e-06
5.34245e-06
-2.66282e-06
5.75845e-06
-4.86197e-06
6.2969e-06
-7.91459e-06
6.66259e-06
-1.20037e-05
7.0564e-06
-1.71356e-05
7.7142e-06
-2.32709e-05
8.99087e-06
-3.03959e-05
1.13114e-05
-3.85724e-05
1.51475e-05
-4.79761e-05
2.10163e-05
2.96605e-05
-5.89263e-05
-9.6509e-07
6.30754e-06
-2.40005e-06
7.19341e-06
-4.32946e-06
8.22632e-06
-6.94354e-06
9.27666e-06
-1.04143e-05
1.05271e-05
-1.48611e-05
1.2161e-05
-2.03435e-05
1.44733e-05
-2.68971e-05
1.78649e-05
-3.45842e-05
2.28346e-05
-4.3518e-05
2.99502e-05
3.99701e-05
-5.38276e-05
-9.35271e-07
7.24281e-06
-2.25194e-06
8.51008e-06
-3.99146e-06
9.96584e-06
-6.29898e-06
1.15842e-05
-9.32819e-06
1.35563e-05
-1.32188e-05
1.60516e-05
-1.80836e-05
1.93381e-05
-2.40108e-05
2.37922e-05
-3.10954e-05
2.99192e-05
-3.94555e-05
3.83103e-05
4.98418e-05
-4.93272e-05
-8.83671e-07
8.12648e-06
-2.11018e-06
9.73659e-06
-3.69654e-06
1.15522e-05
-5.76938e-06
1.3657e-05
-8.45866e-06
1.62456e-05
-1.19039e-05
1.94969e-05
-1.62351e-05
2.36693e-05
-2.15735e-05
2.91305e-05
-2.80325e-05
3.63782e-05
-3.57898e-05
4.60676e-05
5.91095e-05
-4.50576e-05
-7.47741e-07
8.87422e-06
-1.83921e-06
1.08281e-05
-3.26641e-06
1.29794e-05
-5.13053e-06
1.55212e-05
-7.53994e-06
1.8655e-05
-1.06209e-05
2.25779e-05
-1.45074e-05
2.75557e-05
-1.93282e-05
3.39514e-05
-2.52334e-05
4.22833e-05
-3.23825e-05
5.32168e-05
6.76477e-05
-4.09207e-05
-6.26454e-07
9.50068e-06
-1.58787e-06
1.17895e-05
-2.8575e-06
1.4249e-05
-4.51953e-06
1.71832e-05
-6.6729e-06
2.08084e-05
-9.43065e-06
2.53356e-05
-1.29152e-05
3.10403e-05
-1.72625e-05
3.82986e-05
-2.26216e-05
4.76425e-05
-2.91727e-05
5.97679e-05
7.5537e-05
-3.70621e-05
-6.05485e-07
1.01062e-05
-1.48437e-06
1.26684e-05
-2.61967e-06
1.53843e-05
-4.09606e-06
1.86596e-05
-6.00005e-06
2.27124e-05
-8.44034e-06
2.77759e-05
-1.15343e-05
3.41342e-05
-1.54098e-05
4.21741e-05
-2.02183e-05
5.2451e-05
-2.61264e-05
6.5676e-05
8.2739e-05
-3.33284e-05
-5.37227e-07
1.06434e-05
-1.30286e-06
1.3434e-05
-2.2945e-06
1.6376e-05
-3.58149e-06
1.99466e-05
-5.24571e-06
2.43766e-05
-7.38272e-06
2.9913e-05
-1.01056e-05
3.68571e-05
-1.35403e-05
4.56088e-05
-1.78098e-05
5.67206e-05
-2.30926e-05
7.09587e-05
8.92723e-05
-2.96258e-05
-3.58041e-07
1.10014e-05
-9.49618e-07
1.40256e-05
-1.7612e-06
1.71875e-05
-2.84282e-06
2.10282e-05
-4.26179e-06
2.57956e-05
-6.09918e-06
3.17503e-05
-8.44971e-06
3.92076e-05
-1.14292e-05
4.85883e-05
-1.51589e-05
6.04503e-05
-1.97765e-05
7.55763e-05
9.49708e-05
-2.54751e-05
-3.00065e-07
1.13015e-05
-7.64984e-07
1.44905e-05
-1.39843e-06
1.7821e-05
-2.25836e-06
2.18881e-05
-3.39677e-06
2.6934e-05
-4.88866e-06
3.32422e-05
-6.82501e-06
4.1144e-05
-9.29083e-06
5.10541e-05
-1.23886e-05
6.35481e-05
-1.62651e-05
7.94529e-05
9.97432e-05
-2.10375e-05
-1.99437e-07
1.15009e-05
-5.02724e-07
1.47938e-05
-9.35031e-07
1.82533e-05
-1.53553e-06
2.24886e-05
-2.3662e-06
2.77647e-05
-3.48305e-06
3.43591e-05
-4.95398e-06
4.26149e-05
-6.85212e-06
5.29523e-05
-9.25593e-06
6.59519e-05
-1.22206e-05
8.24175e-05
0.000103406
-1.58834e-05
9.26563e-09
1.14917e-05
-5.02157e-08
1.48533e-05
-2.20481e-07
1.84236e-05
-5.2677e-07
2.27949e-05
-9.99778e-07
2.82377e-05
-1.69605e-06
3.50554e-05
-2.65358e-06
4.35724e-05
-3.90851e-06
5.42072e-05
-5.48374e-06
6.75271e-05
-7.42806e-06
8.43618e-05
0.000105801
-9.82318e-06
1.67194e-07
1.13245e-05
3.5386e-07
1.46666e-05
4.7676e-07
1.83007e-05
5.22931e-07
2.27487e-05
4.64787e-07
2.82958e-05
2.72779e-07
3.52474e-05
-6.05869e-08
4.39058e-05
-5.297e-07
5.46763e-05
-1.11631e-06
6.81137e-05
-1.82719e-06
8.50727e-05
0.000106622
-2.64777e-06
3.60947e-07
1.09635e-05
8.36581e-07
1.4191e-05
1.2998e-06
1.78374e-05
1.74573e-06
2.23028e-05
2.16627e-06
2.78753e-05
2.56854e-06
3.48451e-05
2.99069e-06
4.34836e-05
3.49416e-06
5.41729e-05
4.15454e-06
6.74533e-05
5.04095e-06
8.41863e-05
0.000105529
6.13406e-06
5.97396e-07
1.03661e-05
1.41397e-06
1.33744e-05
2.25997e-06
1.69914e-05
3.16237e-06
2.14004e-05
4.13892e-06
2.68987e-05
5.25061e-06
3.37334e-05
6.59761e-06
4.21367e-05
8.31463e-06
5.24558e-05
1.05225e-05
6.52455e-05
1.33556e-05
8.13532e-05
0.000101941
1.6943e-05
8.61347e-07
9.50478e-06
2.03169e-06
1.2204e-05
3.29284e-06
1.57303e-05
4.69932e-06
1.99939e-05
6.32072e-06
2.52773e-05
8.29466e-06
3.17595e-05
1.07998e-05
3.96315e-05
1.40147e-05
4.92409e-05
1.81158e-05
6.11444e-05
2.3306e-05
7.6163e-05
9.54078e-05
2.98394e-05
1.0124e-06
8.49238e-06
2.51535e-06
1.07011e-05
4.1972e-06
1.40484e-05
6.13974e-06
1.80514e-05
8.51954e-06
2.28975e-05
1.15631e-05
2.87159e-05
1.54886e-05
3.57061e-05
2.04968e-05
4.42327e-05
2.68202e-05
5.4821e-05
3.47387e-05
6.82445e-05
8.55638e-05
4.45827e-05
1.00256e-06
7.48983e-06
2.86903e-06
8.83461e-06
4.72019e-06
1.21973e-05
7.19907e-06
1.55725e-05
1.04951e-05
1.96015e-05
1.48272e-05
2.43837e-05
2.038e-05
3.01533e-05
2.7384e-05
3.72286e-05
3.61248e-05
4.60802e-05
4.69987e-05
5.73707e-05
7.20534e-05
6.05091e-05
-2.77725e-06
1.02671e-05
-1.05399e-06
7.11136e-06
2.17619e-06
8.96711e-06
6.19121e-06
1.15575e-05
1.11663e-05
1.46265e-05
1.73021e-05
1.82479e-05
2.47506e-05
2.27048e-05
3.38311e-05
2.81481e-05
4.49882e-05
3.49231e-05
5.87721e-05
4.35869e-05
5.49523e-05
7.58732e-05
5.25602e-06
1.40574e-05
7.62127e-06
1.47957e-05
5.84734e-06
2.02528e-05
1.34428e-06
2.51572e-05
-4.83246e-06
2.86619e-05
-1.19816e-05
3.15131e-05
-1.95521e-05
3.39233e-05
-2.75924e-05
3.63956e-05
-3.6436e-05
3.91172e-05
-4.62748e-05
4.17445e-05
4.40101e-05
-5.73032e-05
7.69303e-06
6.36432e-06
1.19003e-05
1.05884e-05
1.38126e-05
1.83405e-05
1.34159e-05
2.55539e-05
1.0028e-05
3.20498e-05
3.82286e-06
3.77182e-05
-4.30757e-06
4.20537e-05
-1.34066e-05
4.54947e-05
-2.331e-05
4.90206e-05
-3.43092e-05
5.27437e-05
5.63462e-05
-4.66453e-05
6.27586e-06
8.84559e-08
9.70619e-06
7.15812e-06
1.30122e-05
1.50345e-05
1.4919e-05
2.36472e-05
1.43538e-05
3.26149e-05
1.0897e-05
4.1175e-05
4.65341e-06
4.82974e-05
-3.53308e-06
5.36812e-05
-1.28135e-05
5.8301e-05
-2.32092e-05
6.31394e-05
6.81101e-05
-3.4973e-05
3.81901e-06
-3.73055e-06
8.07227e-06
2.90485e-06
1.18645e-05
1.12422e-05
1.46294e-05
2.08824e-05
1.57126e-05
3.15317e-05
1.44925e-05
4.23951e-05
1.05795e-05
5.22103e-05
4.21765e-06
6.0043e-05
-3.73542e-06
6.62541e-05
-1.27348e-05
7.21388e-05
7.82578e-05
-2.28826e-05
1.59173e-06
-5.32228e-06
5.7242e-06
-1.22762e-06
1.01233e-05
6.84309e-06
1.37525e-05
1.72532e-05
1.60497e-05
2.92345e-05
1.6484e-05
4.19609e-05
1.45646e-05
5.41297e-05
1.02047e-05
6.4403e-05
3.93443e-06
7.25243e-05
-3.53874e-06
7.96119e-05
8.66391e-05
-1.19201e-05
7.81962e-07
-6.10424e-06
3.62452e-06
-4.07018e-06
8.20494e-06
2.26267e-06
1.25542e-05
1.29039e-05
1.58788e-05
2.59099e-05
1.76339e-05
4.02058e-05
1.73391e-05
5.44244e-05
1.47705e-05
6.69717e-05
1.02281e-05
7.70667e-05
4.40049e-06
8.54396e-05
9.32733e-05
-2.2337e-06
8.40527e-07
-6.94477e-06
2.48564e-06
-5.71529e-06
6.43374e-06
-1.68544e-06
1.11304e-05
8.20722e-06
1.52445e-05
2.17958e-05
1.80728e-05
3.73775e-05
1.91242e-05
5.3373e-05
1.81107e-05
6.79851e-05
1.51787e-05
7.99987e-05
1.08823e-05
8.97359e-05
9.81949e-05
5.96073e-06
8.92351e-07
-7.83712e-06
2.22991e-06
-7.05285e-06
5.04696e-06
-4.50249e-06
9.54643e-06
3.70774e-06
1.41305e-05
1.72117e-05
1.77687e-05
3.37393e-05
1.99157e-05
5.1226e-05
2.02645e-05
6.76364e-05
1.88427e-05
8.14205e-05
1.60605e-05
9.25182e-05
0.000101964
1.22914e-05
9.03361e-07
-8.74048e-06
2.17006e-06
-8.31955e-06
4.16109e-06
-6.49353e-06
8.09937e-06
-2.30535e-07
1.27698e-05
1.25413e-05
1.69537e-05
2.95554e-05
1.9961e-05
4.82188e-05
2.14692e-05
6.61281e-05
2.14683e-05
8.14215e-05
2.03339e-05
9.36525e-05
0.000103636
1.86615e-05
8.5446e-07
-9.59494e-06
2.01798e-06
-9.48306e-06
3.65931e-06
-8.13486e-06
6.78305e-06
-3.35428e-06
1.12257e-05
8.09868e-06
1.57011e-05
2.508e-05
1.93514e-05
4.45685e-05
2.18335e-05
6.36459e-05
2.31276e-05
8.01274e-05
2.34901e-05
9.329e-05
0.000103751
2.33757e-05
6.61235e-07
-1.02562e-05
1.75796e-06
-1.05798e-05
3.24177e-06
-9.61866e-06
5.64784e-06
-5.76035e-06
9.61622e-06
4.1303e-06
1.41343e-05
2.05619e-05
1.82163e-05
4.04865e-05
2.15045e-05
6.03577e-05
2.39759e-05
7.7656e-05
2.58562e-05
9.14098e-05
0.000102172
2.74352e-05
5.71971e-07
-1.08281e-05
1.46878e-06
-1.14766e-05
2.6424e-06
-1.07923e-05
4.54375e-06
-7.6617e-06
7.87127e-06
8.02777e-07
1.21192e-05
1.6314e-05
1.64052e-05
3.62004e-05
2.03573e-05
5.64056e-05
2.39672e-05
7.40461e-05
2.74011e-05
8.79759e-05
9.8522e-05
3.10508e-05
3.69754e-07
-1.11979e-05
9.44221e-07
-1.20511e-05
1.82935e-06
-1.16774e-05
3.26448e-06
-9.09683e-06
5.97183e-06
-1.90458e-06
9.79092e-06
1.24949e-05
1.4102e-05
3.18893e-05
1.8608e-05
5.18996e-05
2.32959e-05
6.93582e-05
2.8218e-05
8.30538e-05
9.31232e-05
3.36169e-05
9.00736e-08
-1.1288e-05
3.33257e-07
-1.22943e-05
8.12174e-07
-1.21563e-05
1.78538e-06
-1.007e-05
3.82399e-06
-3.94318e-06
7.22506e-06
9.09386e-06
1.14652e-05
2.76492e-05
1.64261e-05
4.69387e-05
2.21662e-05
6.3618e-05
2.86468e-05
7.65732e-05
8.58589e-05
3.59111e-05
-1.40265e-07
-1.11477e-05
-2.71876e-07
-1.21626e-05
-2.86482e-07
-1.21417e-05
4.61522e-08
-1.04027e-05
1.36148e-06
-5.25851e-06
4.31663e-06
6.13871e-06
8.49233e-06
2.34735e-05
1.38814e-05
4.15497e-05
2.06105e-05
5.68889e-05
2.86917e-05
6.8492e-05
7.66246e-05
3.79259e-05
-4.05332e-07
-1.07424e-05
-9.40182e-07
-1.16278e-05
-1.47132e-06
-1.16106e-05
-1.83129e-06
-1.00427e-05
-1.4101e-06
-5.67971e-06
1.0174e-06
3.71121e-06
5.18206e-06
1.93088e-05
1.10229e-05
3.57089e-05
1.88838e-05
4.9028e-05
2.8509e-05
5.88669e-05
6.48463e-05
4.02873e-05
-7.29545e-07
-1.00128e-05
-1.71407e-06
-1.06433e-05
-2.77307e-06
-1.05516e-05
-3.74918e-06
-9.06659e-06
-4.15386e-06
-5.27502e-06
-2.61035e-06
2.1677e-06
1.79805e-06
1.49004e-05
8.14842e-06
2.93585e-05
1.69206e-05
4.02558e-05
2.7953e-05
4.78344e-05
5.20137e-05
4.07857e-05
-1.09785e-06
-8.91498e-06
-2.55967e-06
-9.18145e-06
-4.19428e-06
-8.91696e-06
-5.80526e-06
-7.45561e-06
-6.83567e-06
-4.24461e-06
-6.14219e-06
1.47421e-06
-1.93648e-06
1.06947e-05
5.13906e-06
2.2283e-05
1.48325e-05
3.05624e-05
2.69926e-05
3.56743e-05
3.75641e-05
4.14422e-05
-1.49718e-06
-7.4178e-06
-3.48489e-06
-7.19374e-06
-5.77396e-06
-6.62789e-06
-8.08432e-06
-5.14525e-06
-9.74e-06
-2.58893e-06
-9.57813e-06
1.31234e-06
-5.91927e-06
7.03587e-06
1.74967e-06
1.4614e-05
1.22214e-05
2.00906e-05
2.52174e-05
2.26783e-05
2.26358e-05
4.01456e-05
-1.97876e-06
-5.43904e-06
-4.57861e-06
-4.59388e-06
-7.62596e-06
-3.58054e-06
-1.06751e-05
-2.09614e-06
-1.28954e-05
-3.68635e-07
-1.31391e-05
1.55603e-06
-1.00097e-05
3.90653e-06
-2.35487e-06
6.95917e-06
8.76583e-06
8.96995e-06
2.20371e-05
9.40709e-06
7.40978e-06
3.72631e-05
-3.056e-06
-2.38304e-06
-6.70732e-06
-9.4257e-07
-1.05237e-05
2.35803e-07
-1.38623e-05
1.24255e-06
-1.5972e-05
1.74106e-06
-1.60205e-05
1.60445e-06
-1.28083e-05
6.94325e-07
-5.04669e-06
-8.02399e-07
6.70399e-06
-2.78073e-06
2.07945e-05
-4.68338e-06
-8.91984e-06
3.71241e-05
-4.47168e-06
2.08864e-06
-6.84928e-06
1.43503e-06
-8.50344e-06
1.88997e-06
-8.47563e-06
1.21474e-06
-5.98494e-06
-7.49625e-07
-2.45677e-07
-4.13482e-06
8.42326e-06
-7.97461e-06
1.88691e-05
-1.12482e-05
3.10188e-05
-1.49305e-05
4.59004e-05
-1.95649e-05
-2.61782e-05
6.31587e-05
3.94033e-07
1.69461e-06
2.54947e-06
-7.20408e-07
6.84405e-06
-2.40462e-06
1.324e-05
-5.18123e-06
2.09549e-05
-8.46447e-06
2.89296e-05
-1.21096e-05
3.71462e-05
-1.61912e-05
4.65995e-05
-2.07015e-05
5.77693e-05
-2.61002e-05
7.1183e-05
-3.29787e-05
-4.19675e-05
8.69723e-05
1.19617e-05
1.83526e-05
2.49151e-05
3.12914e-05
3.74534e-05
4.35916e-05
5.01052e-05
5.75519e-05
6.63747e-05
7.69829e-05
8.99677e-05
-7.22716e-06
1.95946e-05
-1.23674e-05
-1.32492e-05
1.79033e-05
-1.18812e-05
-2.13184e-05
2.0909e-05
-1.28399e-05
-2.93503e-05
2.22165e-05
-1.41846e-05
-3.7515e-05
2.43822e-05
-1.62175e-05
-4.6032e-05
2.74575e-05
-1.89404e-05
-5.53277e-05
3.17732e-05
-2.24776e-05
-6.58507e-05
3.75667e-05
-2.70437e-05
-7.80614e-05
4.51723e-05
-3.29616e-05
-9.25086e-05
5.51407e-05
-4.06936e-05
6.82713e-05
-5.08153e-05
-0.000109965
1.4865e-06
1.81081e-05
1.04329e-06
1.83465e-05
-3.71662e-06
2.56689e-05
-1.00037e-05
2.85035e-05
-1.79117e-05
3.22903e-05
-2.68268e-05
3.63725e-05
-3.68183e-05
4.17647e-05
-4.81291e-05
4.88776e-05
-6.13144e-05
5.83576e-05
-7.68681e-05
7.06944e-05
8.68586e-05
-9.54554e-05
1.98948e-06
1.61186e-05
1.97082e-06
1.83651e-05
2.16587e-07
2.74231e-05
-3.0292e-06
3.17493e-05
-8.64146e-06
3.79026e-05
-1.59022e-05
4.36333e-05
-2.47149e-05
5.05774e-05
-3.51047e-05
5.92673e-05
-4.71874e-05
7.04404e-05
-6.16112e-05
8.51182e-05
0.000104266
-7.90187e-05
1.459e-06
1.46596e-05
1.05373e-06
1.87704e-05
5.17491e-07
2.79594e-05
-1.17484e-06
3.34416e-05
-4.68248e-06
4.14102e-05
-9.69037e-06
4.86412e-05
-1.64275e-05
5.73146e-05
-2.47885e-05
6.76283e-05
-3.49645e-05
8.06164e-05
-4.70929e-05
9.72466e-05
0.000118863
-6.16897e-05
1.18222e-06
1.34774e-05
7.47874e-07
1.92048e-05
5.51109e-07
2.81561e-05
-5.71122e-07
3.45638e-05
-2.65539e-06
4.34945e-05
-5.8688e-06
5.18546e-05
-1.05677e-05
6.20135e-05
-1.67556e-05
7.38161e-05
-2.45429e-05
8.84037e-05
-3.41181e-05
0.000106822
0.000130478
-4.57329e-05
1.17332e-06
1.23041e-05
1.1246e-06
1.92535e-05
1.25214e-06
2.80286e-05
4.7244e-07
3.53435e-05
-7.64197e-07
4.47311e-05
-2.82936e-06
5.39198e-05
-5.95833e-06
6.51425e-05
-1.0251e-05
7.81088e-05
-1.58908e-05
9.40435e-05
-2.29909e-05
0.000113922
0.000139187
-3.17004e-05
1.19477e-06
1.11093e-05
1.57535e-06
1.88729e-05
2.04104e-06
2.75629e-05
1.66865e-06
3.57159e-05
1.03882e-06
4.5361e-05
-2.35231e-07
5.51938e-05
-2.19013e-06
6.70974e-05
-4.99608e-06
8.09148e-05
-8.81168e-06
9.78591e-05
-1.37655e-05
0.000118876
0.000145454
-2.00323e-05
1.13012e-06
9.97919e-06
1.80995e-06
1.81931e-05
2.53429e-06
2.68386e-05
2.57798e-06
3.56723e-05
2.47047e-06
4.54685e-05
1.84019e-06
5.58241e-05
8.09703e-07
6.81279e-05
-7.96222e-07
8.25207e-05
-3.06685e-06
0.00010013
-6.10433e-06
0.000121913
0.000149344
-9.99459e-06
1.08737e-06
8.89182e-06
2.06293e-06
1.72175e-05
3.03903e-06
2.58625e-05
3.49963e-06
3.52116e-05
3.82818e-06
4.51399e-05
3.762e-06
5.58903e-05
3.47593e-06
6.8414e-05
2.83121e-06
8.31654e-05
1.8209e-06
0.00010114
3.67555e-07
0.000123366
0.000151277
-1.56524e-06
1.2488e-06
7.64302e-06
2.56407e-06
1.59023e-05
3.84579e-06
2.45808e-05
4.73951e-06
3.43179e-05
5.47476e-06
4.44047e-05
5.89359e-06
5.54714e-05
6.20237e-06
6.81052e-05
6.32308e-06
8.30447e-05
6.29747e-06
0.000101166
6.10024e-06
0.000123564
0.00015171
5.66757e-06
1.33672e-06
6.3063e-06
2.90408e-06
1.43349e-05
4.48066e-06
2.30042e-05
5.81021e-06
3.29884e-05
6.94706e-06
4.32678e-05
7.85457e-06
5.45639e-05
8.70045e-06
6.72593e-05
9.50787e-06
8.22373e-05
1.03473e-05
0.000100326
1.12738e-05
0.000122637
0.000150593
1.23902e-05
1.23682e-06
5.06948e-06
2.90112e-06
1.26706e-05
4.69842e-06
2.12069e-05
6.3991e-06
3.12877e-05
7.95269e-06
4.17142e-05
9.35798e-06
5.31586e-05
1.07589e-05
6.58584e-05
1.22473e-05
8.07489e-05
1.39332e-05
9.86403e-05
1.59105e-05
0.00012066
0.000148225
1.82789e-05
1.18583e-06
3.88365e-06
2.9271e-06
1.09293e-05
4.92515e-06
1.92088e-05
6.98563e-06
2.92272e-05
8.95782e-06
3.9742e-05
1.08637e-05
5.12528e-05
1.28156e-05
6.39064e-05
1.49484e-05
7.8616e-05
1.74131e-05
9.61756e-05
2.03637e-05
0.000117709
0.000144668
2.3921e-05
1.18968e-06
2.69396e-06
2.99256e-06
9.12644e-06
5.20553e-06
1.69959e-05
7.63239e-06
2.68003e-05
1.00567e-05
3.73177e-05
1.24825e-05
4.8827e-05
1.49962e-05
6.13927e-05
1.77659e-05
7.58463e-05
2.09738e-05
9.29677e-05
2.48286e-05
0.000113855
0.000139891
2.96047e-05
1.02425e-06
1.66971e-06
2.72679e-06
7.4239e-06
5.0352e-06
1.46875e-05
7.75354e-06
2.4082e-05
1.06221e-05
3.44491e-05
1.36151e-05
4.58341e-05
1.67804e-05
5.82274e-05
2.02882e-05
7.23386e-05
2.43461e-05
8.89098e-05
2.91918e-05
0.000109009
0.000134024
3.50597e-05
8.21927e-07
8.47787e-07
2.38591e-06
5.85992e-06
4.74913e-06
1.23242e-05
7.72857e-06
2.11026e-05
1.10422e-05
3.11355e-05
1.46318e-05
4.22444e-05
1.85087e-05
5.43506e-05
2.28324e-05
6.80148e-05
2.78202e-05
8.3922e-05
3.37333e-05
0.000103096
0.000126845
4.09116e-05
6.66365e-07
1.81422e-07
2.08055e-06
4.44573e-06
4.45318e-06
9.95161e-06
7.65992e-06
1.78958e-05
1.14225e-05
2.73729e-05
1.56324e-05
3.80345e-05
2.02862e-05
4.96968e-05
2.55193e-05
6.27817e-05
3.15305e-05
7.79108e-05
3.85826e-05
9.60437e-05
0.000118409
4.70184e-05
4.7537e-07
-2.93948e-07
1.66981e-06
3.25129e-06
3.92583e-06
7.69559e-06
7.24919e-06
1.45725e-05
1.13913e-05
2.32307e-05
1.62351e-05
3.31908e-05
2.17495e-05
4.41825e-05
2.80392e-05
5.6492e-05
3.5274e-05
7.0676e-05
4.37092e-05
8.76085e-05
0.000108473
5.36454e-05
2.90999e-07
-5.84946e-07
1.28026e-06
2.26203e-06
3.32774e-06
5.64812e-06
6.6202e-06
1.128e-05
1.10392e-05
1.88117e-05
1.64857e-05
2.77443e-05
2.29284e-05
3.77398e-05
3.04182e-05
4.90022e-05
3.90705e-05
6.20237e-05
4.91085e-05
7.75705e-05
9.66452e-05
6.09366e-05
1.6492e-07
-7.49866e-07
9.455e-07
1.48145e-06
2.67452e-06
3.9191e-06
5.74023e-06
8.21428e-06
1.02715e-05
1.42804e-05
1.62651e-05
2.17507e-05
2.36509e-05
3.0354e-05
3.24206e-05
4.02325e-05
4.2634e-05
5.18103e-05
5.44933e-05
6.57112e-05
8.27254e-05
6.84131e-05
9.36748e-08
-8.43541e-07
5.68259e-07
1.00686e-06
1.84698e-06
2.64038e-06
4.48324e-06
5.57803e-06
8.93046e-06
9.83322e-06
1.53146e-05
1.53665e-05
2.35442e-05
2.21244e-05
3.35377e-05
3.02389e-05
4.52963e-05
4.00517e-05
5.90368e-05
5.19707e-05
6.65615e-05
7.52006e-05
-4.26066e-07
-4.17475e-07
-3.41095e-07
9.21893e-07
5.05796e-07
1.79349e-06
2.75346e-06
3.33036e-06
7.00188e-06
5.5848e-06
1.34857e-05
8.88272e-06
2.21438e-05
1.34663e-05
3.28992e-05
1.94835e-05
4.59202e-05
2.70307e-05
6.13907e-05
3.65002e-05
4.78024e-05
8.01498e-05
-6.7857e-07
2.61095e-07
-7.39951e-07
9.83274e-07
6.26662e-08
9.90868e-07
2.10408e-06
1.28895e-06
5.76127e-06
1.92761e-06
1.14129e-05
3.23109e-06
1.9312e-05
5.56722e-06
2.96468e-05
9.14865e-06
4.26928e-05
1.39848e-05
5.8721e-05
2.0472e-05
2.90361e-05
7.74872e-05
1.06843e-06
-8.07336e-07
3.19128e-06
-1.13957e-06
5.32968e-06
-1.14754e-06
7.53699e-06
-9.1836e-07
1.01061e-05
-6.41459e-07
1.35961e-05
-2.58987e-07
1.8831e-05
3.32325e-07
2.66394e-05
1.34025e-06
3.75045e-05
3.11973e-06
5.1893e-05
6.08349e-06
1.09581e-05
6.9971e-05
-1.46846e-05
2.31717e-06
-2.60464e-05
-5.1945e-07
-3.54247e-05
-3.46155e-06
-4.33577e-05
-6.25154e-06
-5.08874e-05
-8.68788e-06
-5.87911e-05
-1.10367e-05
-6.75447e-05
-1.37239e-05
-7.75659e-05
-1.70226e-05
-8.92763e-05
-2.12512e-05
-0.000103144
-2.68262e-05
-3.43292e-05
-0.00011963
-6.71362e-06
9.03079e-06
-1.37285e-05
6.49544e-06
-2.24671e-05
5.27709e-06
-3.15466e-05
2.82794e-06
-4.07251e-05
4.90553e-07
-5.00264e-05
-1.73532e-06
-6.00518e-05
-3.69855e-06
-7.13958e-05
-5.67866e-06
-8.45801e-05
-8.06687e-06
-0.00010012
-1.12861e-05
-1.5764e-05
-0.000118685
-2.69783e-06
1.17286e-05
-6.44188e-06
1.02395e-05
-1.27481e-05
1.15833e-05
-2.06222e-05
1.07021e-05
-2.97617e-05
9.63003e-06
-3.98745e-05
8.37744e-06
-5.09141e-05
7.34106e-06
-6.31332e-05
6.54043e-06
-7.69902e-05
5.79015e-06
-9.30313e-05
4.75505e-06
2.98884e-06
-0.000111784
-1.70215e-06
1.34308e-05
-4.70839e-06
1.32457e-05
-9.25181e-06
1.61267e-05
-1.51748e-05
1.6625e-05
-2.28331e-05
1.72884e-05
-3.18621e-05
1.74064e-05
-4.22512e-05
1.77302e-05
-5.40478e-05
1.8337e-05
-6.7511e-05
1.92533e-05
-8.30582e-05
2.03023e-05
2.1109e-05
-0.000101178
-1.47832e-06
1.49091e-05
-4.19216e-06
1.59596e-05
-7.67422e-06
1.96088e-05
-1.22978e-05
2.12486e-05
-1.84636e-05
2.34541e-05
-2.61912e-05
2.5134e-05
-3.54441e-05
2.69832e-05
-4.62199e-05
2.91127e-05
-5.86569e-05
3.16904e-05
-7.29873e-05
3.46327e-05
3.77046e-05
-8.95828e-05
-1.28882e-06
1.61979e-05
-3.74585e-06
1.84166e-05
-6.62395e-06
2.24869e-05
-1.03773e-05
2.50019e-05
-1.54198e-05
2.84967e-05
-2.1762e-05
3.14763e-05
-2.9633e-05
3.48541e-05
-3.90382e-05
3.85179e-05
-5.00611e-05
4.27134e-05
-6.28876e-05
4.74591e-05
5.25843e-05
-7.77673e-05
-1.07411e-06
1.7272e-05
-3.22591e-06
2.05684e-05
-5.65869e-06
2.49197e-05
-8.75566e-06
2.80989e-05
-1.28629e-05
3.26039e-05
-1.80863e-05
3.66997e-05
-2.46201e-05
4.13879e-05
-3.25622e-05
4.646e-05
-4.20114e-05
5.21625e-05
-5.31166e-05
5.85644e-05
6.56133e-05
-6.61457e-05
-9.98803e-07
1.82708e-05
-2.84431e-06
2.24139e-05
-4.8735e-06
2.69489e-05
-7.58842e-06
3.08138e-05
-1.08503e-05
3.58658e-05
-1.50534e-05
4.09029e-05
-2.03377e-05
4.66722e-05
-2.68262e-05
5.29485e-05
-3.46406e-05
5.99769e-05
-4.38836e-05
6.78075e-05
7.64402e-05
-5.47105e-05
-8.43745e-07
1.91146e-05
-2.45957e-06
2.40298e-05
-3.95645e-06
2.84457e-05
-6.20654e-06
3.30639e-05
-8.85086e-06
3.85101e-05
-1.22273e-05
4.42793e-05
-1.64087e-05
5.08536e-05
-2.15528e-05
5.80926e-05
-2.77687e-05
6.61928e-05
-3.51699e-05
7.52086e-05
8.51537e-05
-4.38834e-05
-6.46338e-07
1.97609e-05
-1.89935e-06
2.52828e-05
-3.17746e-06
2.97238e-05
-4.88354e-06
3.477e-05
-6.88755e-06
4.05141e-05
-9.46714e-06
4.68589e-05
-1.26476e-05
5.40341e-05
-1.65512e-05
6.19962e-05
-2.12737e-05
7.09153e-05
-2.68948e-05
8.08297e-05
9.17192e-05
-3.34603e-05
-3.91105e-07
2.0152e-05
-1.20177e-06
2.60934e-05
-2.06877e-06
3.05908e-05
-3.31826e-06
3.60195e-05
-4.74047e-06
4.19363e-05
-6.5882e-06
4.87066e-05
-8.84259e-06
5.62884e-05
-1.16201e-05
6.47738e-05
-1.49661e-05
7.42613e-05
-1.89395e-05
8.48031e-05
9.64123e-05
-2.36326e-05
-1.81791e-07
2.03338e-05
-7.01533e-07
2.66132e-05
-1.18442e-06
3.10737e-05
-1.93874e-06
3.67738e-05
-2.76928e-06
4.27668e-05
-3.87976e-06
4.98171e-05
-5.22524e-06
5.76339e-05
-6.88555e-06
6.64341e-05
-8.88515e-06
7.62609e-05
-1.12464e-05
8.71643e-05
9.91035e-05
-1.39376e-05
6.57495e-08
2.0268e-05
-1.08221e-07
2.67871e-05
-2.17972e-07
3.11835e-05
-4.77066e-07
3.70329e-05
-7.21765e-07
4.30115e-05
-1.10669e-06
5.0202e-05
-1.5571e-06
5.80843e-05
-2.14121e-06
6.70182e-05
-2.82905e-06
7.69487e-05
-3.63887e-06
8.79741e-05
9.99783e-05
-4.51362e-06
4.16456e-07
1.98516e-05
6.62553e-07
2.6541e-05
9.56485e-07
3.08896e-05
1.20015e-06
3.67892e-05
1.5398e-06
4.26719e-05
1.87145e-06
4.98704e-05
2.28824e-06
5.76675e-05
2.76163e-06
6.65448e-05
3.34208e-06
7.63683e-05
4.06303e-06
8.72532e-05
9.9091e-05
4.9503e-06
6.34818e-07
1.92168e-05
1.24333e-06
2.59325e-05
1.96051e-06
3.01724e-05
2.74635e-06
3.60034e-05
3.69218e-06
4.17261e-05
4.795e-06
4.87676e-05
6.11782e-06
5.63447e-05
7.69648e-06
6.49661e-05
9.59798e-06
7.44668e-05
1.1892e-05
8.49591e-05
9.631e-05
1.4673e-05
8.87745e-07
1.8329e-05
1.90195e-06
2.49183e-05
3.05236e-06
2.9022e-05
4.39677e-06
3.4659e-05
5.97863e-06
4.01442e-05
7.87819e-06
4.6868e-05
1.01427e-05
5.40802e-05
1.28542e-05
6.22546e-05
1.61078e-05
7.12132e-05
2.00167e-05
8.10502e-05
9.16032e-05
2.47235e-05
1.19864e-06
1.71304e-05
2.64742e-06
2.34695e-05
4.27375e-06
2.73956e-05
6.21496e-06
3.27178e-05
8.46909e-06
3.78901e-05
1.11948e-05
4.41423e-05
1.4439e-05
5.0836e-05
1.83307e-05
5.8363e-05
2.29778e-05
6.6566e-05
2.85373e-05
7.54908e-05
8.49271e-05
3.52133e-05
1.49564e-06
1.56347e-05
3.39696e-06
2.15682e-05
5.53573e-06
2.52569e-05
8.11191e-06
3.01416e-05
1.10915e-05
3.49104e-05
1.47067e-05
4.05271e-05
1.89921e-05
4.65506e-05
2.41204e-05
5.32346e-05
3.02288e-05
6.04576e-05
3.75132e-05
6.82064e-05
7.6211e-05
4.62294e-05
1.79765e-06
1.38371e-05
4.15422e-06
1.92117e-05
6.84856e-06
2.25625e-05
1.00974e-05
2.68928e-05
1.38791e-05
3.11287e-05
1.84322e-05
3.5974e-05
2.383e-05
4.11528e-05
3.02601e-05
4.68045e-05
3.78797e-05
5.28381e-05
4.69373e-05
5.91488e-05
6.5479e-05
5.76693e-05
2.1214e-06
1.17157e-05
4.95271e-06
1.63803e-05
8.22513e-06
1.92901e-05
1.21952e-05
2.29227e-05
1.68324e-05
2.64915e-05
2.23778e-05
3.04286e-05
2.8936e-05
3.45946e-05
3.66923e-05
3.90482e-05
4.58627e-05
4.36676e-05
5.66949e-05
4.83167e-05
5.26233e-05
6.95505e-05
2.4548e-06
9.26089e-06
5.73088e-06
1.31043e-05
9.60625e-06
1.54147e-05
1.43195e-05
1.82095e-05
1.98468e-05
2.09642e-05
2.64061e-05
2.38693e-05
3.41131e-05
2.68877e-05
4.31882e-05
2.99731e-05
5.38549e-05
3.30009e-05
6.64124e-05
3.57592e-05
3.78546e-05
8.11811e-05
2.70887e-06
6.55202e-06
6.41575e-06
9.39739e-06
1.08704e-05
1.09601e-05
1.62869e-05
1.2793e-05
2.26615e-05
1.45895e-05
3.01555e-05
1.63753e-05
3.89217e-05
1.81214e-05
4.91738e-05
1.9721e-05
6.11793e-05
2.09954e-05
7.5248e-05
2.16905e-05
2.13752e-05
9.17273e-05
3.26301e-06
3.28902e-06
7.31523e-06
5.34516e-06
1.21653e-05
6.11008e-06
1.80423e-05
6.91596e-06
2.49821e-05
7.64976e-06
3.31006e-05
8.25684e-06
4.25917e-05
8.6303e-06
5.36935e-05
8.61925e-06
6.66802e-05
8.00862e-06
8.18017e-05
6.56903e-06
4.04254e-06
9.91344e-05
2.48168e-06
6.68727e-06
1.16498e-05
1.76474e-05
2.46557e-05
3.26536e-05
4.16162e-05
5.15757e-05
6.2704e-05
7.53566e-05
9.03572e-05
2.91782e-07
1.18073e-05
-1.20991e-05
1.04413e-09
1.1707e-05
-1.14163e-05
-2.01588e-06
1.48589e-05
-1.28419e-05
-5.18741e-06
1.79632e-05
-1.47917e-05
-9.0613e-06
2.10779e-05
-1.7204e-05
-1.34626e-05
2.45424e-05
-2.01412e-05
-1.83455e-05
2.86496e-05
-2.37667e-05
-2.39002e-05
3.38952e-05
-2.83405e-05
-3.03736e-05
4.06311e-05
-3.41577e-05
-3.81056e-05
4.93292e-05
-4.15972e-05
6.06252e-05
-5.11031e-05
-4.76278e-05
4.01289e-06
7.79443e-06
5.87814e-06
9.8418e-06
6.24463e-06
1.44924e-05
5.37477e-06
1.88331e-05
3.14396e-06
2.33087e-05
-4.02654e-07
2.8089e-05
-5.0276e-06
3.32746e-05
-1.05614e-05
3.9429e-05
-1.70969e-05
4.71665e-05
-2.49817e-05
5.7214e-05
7.02937e-05
-3.46502e-05
3.11273e-06
4.6817e-06
4.82654e-06
8.12799e-06
6.48198e-06
1.28369e-05
7.38983e-06
1.79252e-05
7.11148e-06
2.35871e-05
5.4802e-06
2.97203e-05
2.4954e-06
3.62594e-05
-1.64941e-06
4.35738e-05
-6.84761e-06
5.23647e-05
-1.32318e-05
6.35982e-05
7.83471e-05
-2.12852e-05
2.1588e-06
2.5229e-06
3.99171e-06
6.29507e-06
5.83036e-06
1.09983e-05
7.35177e-06
1.64038e-05
8.27365e-06
2.26652e-05
8.24814e-06
2.97458e-05
7.06179e-06
3.74457e-05
4.7345e-06
4.59011e-05
1.38793e-06
5.57113e-05
-2.90308e-06
6.78892e-05
8.37182e-05
-8.27423e-06
1.52073e-06
1.00217e-06
3.33211e-06
4.48369e-06
5.31124e-06
9.01915e-06
7.18162e-06
1.45335e-05
8.6805e-06
2.11663e-05
9.69111e-06
2.87352e-05
9.91488e-06
3.7222e-05
9.2338e-06
4.65822e-05
7.71854e-06
5.72266e-05
5.51989e-06
7.00879e-05
8.65394e-05
2.69871e-06
1.15393e-06
-1.51759e-07
2.93201e-06
2.70562e-06
4.91846e-06
7.0327e-06
6.9472e-06
1.25047e-05
8.91956e-06
1.9194e-05
1.05833e-05
2.70715e-05
1.1779e-05
3.60262e-05
1.23689e-05
4.59923e-05
1.23686e-05
5.72268e-05
1.19493e-05
7.05072e-05
8.71688e-05
1.13199e-05
6.91875e-07
-8.43634e-07
2.24698e-06
1.15051e-06
4.23392e-06
5.04575e-06
6.4326e-06
1.0306e-05
8.67338e-06
1.69532e-05
1.08185e-05
2.49264e-05
1.2725e-05
3.41198e-05
1.42756e-05
4.44417e-05
1.54761e-05
5.60263e-05
1.65006e-05
6.94828e-05
8.60449e-05
1.76245e-05
3.14221e-07
-1.15786e-06
1.42853e-06
3.62e-08
3.23378e-06
3.24051e-06
5.4563e-06
8.08352e-06
7.856e-06
1.45535e-05
1.03114e-05
2.2471e-05
1.27242e-05
3.17069e-05
1.50087e-05
4.21572e-05
1.71688e-05
5.38662e-05
1.9375e-05
6.72765e-05
8.34423e-05
2.19776e-05
1.12773e-07
-1.27063e-06
7.23688e-07
-5.74715e-07
2.21174e-06
1.75246e-06
4.26763e-06
6.02762e-06
6.65913e-06
1.2162e-05
9.26508e-06
1.9865e-05
1.20017e-05
2.89704e-05
1.48104e-05
3.93485e-05
1.77013e-05
5.09753e-05
2.0819e-05
6.41588e-05
7.97797e-05
2.44816e-05
2.51935e-08
-1.29582e-06
3.40226e-07
-8.89747e-07
1.34773e-06
7.4495e-07
3.06274e-06
4.31262e-06
5.29212e-06
9.93262e-06
7.90154e-06
1.72556e-05
1.08014e-05
2.60705e-05
1.39518e-05
3.61981e-05
1.73647e-05
4.75624e-05
2.11689e-05
6.03547e-05
7.5316e-05
2.56325e-05
-6.36879e-08
-1.23213e-06
-7.46597e-09
-9.45969e-07
5.17379e-07
2.20105e-07
1.81652e-06
3.01348e-06
3.77206e-06
7.97707e-06
6.23566e-06
1.4792e-05
9.15428e-06
2.31519e-05
1.25048e-05
3.28475e-05
1.63076e-05
4.37597e-05
2.06601e-05
5.60022e-05
7.01537e-05
2.58223e-05
-1.35117e-07
-1.09702e-06
-2.64362e-07
-8.16725e-07
-1.41741e-07
9.74841e-08
6.61354e-07
2.21038e-06
2.22133e-06
6.4171e-06
4.40949e-06
1.26038e-05
7.22194e-06
2.03395e-05
1.06588e-05
2.94107e-05
1.47483e-05
3.96701e-05
1.95604e-05
5.11901e-05
6.45074e-05
2.52067e-05
-2.04268e-07
-8.92748e-07
-4.45715e-07
-5.75278e-07