/*--------------------------------*- C++ -*----------------------------------*\
| =========                 |                                                 |
| \\      /  F ield         | OpenFOAM: The Open Source CFD Toolbox           |
|  \\    /   O peration     | Version:  3.0.1                                 |
|   \\  /    A nd           | Web:      www.OpenFOAM.org                      |
|    \\/     M anipulation  |                                                 |
\*---------------------------------------------------------------------------*/
FoamFile
{
    version     2.0;
    format      ascii;
    class       volScalarField;
    location    "0.152447";
    object      p;
}
// * * * * * * * * * * * * * * * * * * * * * * * * * * * * * * * * * * * * * //

dimensions      [0 2 -2 0 0 0 0];

internalField   nonuniform List<scalar> 
21246
(
2.96397
0.773464
0.227567
0.222546
0.512875
0.88265
1.16516
1.34702
1.43012
1.45581
1.53101
13.2622
10.2225
7.70583
5.9397
4.78366
4.04317
3.56525
3.22058
2.9304
2.67853
2.52857
13.4599
12.7389
11.237
9.62399
8.12634
6.84889
5.82624
5.02231
4.37051
3.83105
3.45935
12.2104
12.2456
11.7636
10.8785
9.78645
8.62251
7.49237
6.47111
5.58619
4.85249
4.33457
11.2673
11.4995
11.3583
11.0023
10.3682
9.5123
8.53217
7.53751
6.6044
5.78972
5.17536
10.5657
10.8843
10.8687
10.7539
10.4163
9.85828
9.11981
8.26865
7.37831
6.52764
5.82835
9.90378
10.1945
10.2536
10.2696
10.1407
9.81556
9.28845
8.59665
7.80192
6.98715
6.26746
9.31989
9.53802
9.61353
9.67016
9.6359
9.45698
9.10212
8.57568
7.91393
7.19495
6.55048
8.78959
8.9671
9.02778
9.08432
9.08141
8.97509
8.73012
8.33293
7.79584
7.17567
6.59642
8.274
8.43919
8.48993
8.53905
8.54252
8.46757
8.28387
7.97323
7.53434
7.00356
6.48665
7.83436
7.96933
8.00012
8.03386
8.03039
7.96469
7.81204
7.55505
7.1864
6.73146
6.29605
7.49852
7.57119
7.56413
7.56902
7.54557
7.47344
7.33188
7.10568
6.7858
6.38844
6.0047
7.14393
7.17775
7.14577
7.12405
7.07668
6.98955
6.84642
6.63556
6.34912
5.9981
5.66405
6.74217
6.76349
6.71989
6.67718
6.60689
6.50151
6.34972
6.14428
5.87971
5.56198
5.26593
6.4132
6.38095
6.3003
6.22476
6.12567
5.99759
5.83232
5.62727
5.38071
5.09621
4.83737
6.04605
5.96554
5.85447
5.74665
5.61644
5.4627
5.28131
5.07621
4.84849
4.59955
4.38432
5.59003
5.48472
5.35695
5.22037
5.05892
4.87939
4.68487
4.48184
4.27937
4.07371
3.90411
5.1456
4.98288
4.81551
4.63515
4.43373
4.22639
4.0226
3.83482
3.67294
3.52709
3.42271
4.65222
4.41663
4.19857
3.96278
3.71387
3.47967
3.28073
3.13106
3.03326
2.96444
2.93388
4.05605
3.7314
3.45518
3.15685
2.86147
2.61657
2.45321
2.37871
2.37617
2.40282
2.4386
3.3151
2.87421
2.52375
2.15955
1.8356
1.62412
1.55484
1.60883
1.7368
1.87852
1.99823
2.39226
1.74071
1.32155
0.910934
0.618875
0.531396
0.642736
0.882168
1.16535
1.42472
1.62512
0.725584
0.255533
-0.264321
-0.624134
-0.728167
-0.547715
-0.170752
0.281626
0.713728
1.06765
1.31642
1.44562
-1.42614
-1.85594
-1.95802
-1.72437
-1.23117
-0.637912
-0.0518633
0.456683
0.846876
1.10264
-27.9171
-13.212
-7.6127
-4.94774
-2.95902
-1.69412
-0.904475
-0.333524
0.0231433
0.254613
0.488464
-31.1724
-21.7615
-16.8279
-12.5537
-8.53017
-5.61327
-3.68776
-2.42966
-1.61296
-1.06669
-0.608115
-22.7274
-22.0992
-20.6727
-17.6463
-13.7506
-10.0852
-7.14725
-5.02643
-3.56454
-2.55725
-1.7971
-19.8479
-20.5019
-20.3515
-19.0989
-16.716
-13.6115
-10.4317
-7.73488
-5.69901
-4.21074
-3.07131
-19.8798
-19.9638
-19.9261
-19.4152
-18.1127
-15.8878
-13.045
-10.192
-7.77665
-5.88745
-4.40409
-19.688
-19.8426
-19.759
-19.5603
-18.881
-17.3713
-15.0307
-12.2873
-9.67724
-7.47896
-5.7159
-19.6567
-19.8648
-19.8674
-19.8253
-19.4941
-18.4943
-16.6195
-14.0828
-11.3894
-8.93956
-6.90357
-19.7765
-20.0477
-20.1614
-20.1495
-20.0452
-19.4389
-17.967
-15.6561
-12.9374
-10.2889
-7.91169
-19.934
-20.2501
-20.4108
-20.5638
-20.638
-20.3056
-19.157
-17.0493
-14.322
-11.5265
-8.94286
-20.0817
-20.4736
-20.6987
-21.0282
-21.2252
-21.1021
-20.2119
-18.2642
-15.5068
-12.5384
-9.73586
-20.0661
-20.6428
-20.902
-21.3509
-21.717
-21.7964
-21.1079
-19.2667
-16.4443
-13.2896
-10.2872
-20.055
-20.6696
-20.9484
-21.5058
-22.0593
-22.3084
-21.7536
-19.9628
-17.0441
-13.6966
-10.5463
-19.8923
-20.4671
-20.8729
-21.4595
-22.1508
-22.4986
-22.0185
-20.2279
-17.1874
-13.6606
-10.3268
-19.5126
-20.064
-20.5355
-21.1453
-21.841
-22.2288
-21.7719
-19.9426
-16.7601
-13.1362
-9.70084
-18.9524
-19.4198
-19.8935
-20.4726
-21.0907
-21.3697
-20.8726
-19.0309
-15.6754
-12.068
-8.67108
-18.1248
-18.4588
-18.8752
-19.3619
-19.8278
-19.9714
-19.281
-17.2947
-14.0725
-10.4869
-7.24518
-16.9526
-17.125
-17.4364
-17.79
-18.084
-18.0292
-17.0887
-14.9506
-11.8235
-8.44098
-5.27323
-15.4226
-15.4203
-15.6058
-15.823
-15.9263
-15.6112
-14.474
-12.2405
-9.27948
-6.18109
-3.47924
-13.5391
-13.3927
-13.4979
-13.6355
-13.584
-13.0262
-11.6636
-9.39586
-6.62256
-3.94367
-1.67476
-11.3271
-11.2137
-11.3946
-11.5492
-11.3654
-10.555
-8.92848
-6.58934
-4.07027
-1.87229
-0.114448
-8.98877
-9.14973
-9.54469
-9.75769
-9.4596
-8.41851
-6.56737
-4.2456
-2.02136
-0.290658
0.958713
-7.38681
-8.34272
-9.20603
-9.37653
-8.9374
-7.65798
-5.33215
-2.69402
-0.747074
0.514407
1.2917
-8.90098
-11.4078
-10.8411
-9.66457
-7.74095
-5.51459
-3.39317
-1.49268
-0.213326
0.568553
1.11653
-15.4753
-8.9168
-6.5251
-5.09524
-3.63791
-2.3109
-1.21974
-0.324697
0.322916
0.762921
1.02436
7.28553
9.19035
8.65019
7.5004
6.14089
4.92438
3.87843
3.00294
2.26593
1.6797
1.38229
-19.9425
-6.94496
-2.92337
0.450873
1.72792
2.08676
1.91462
1.57893
1.19228
0.829086
0.618656
-29.1649
-18.5537
-14.6488
-8.46034
-4.78858
-2.3175
-1.05274
-0.467824
-0.260786
-0.211209
-0.156804
-28.0104
-22.8333
-20.8174
-14.7526
-10.7775
-7.07806
-4.6036
-2.99203
-2.05973
-1.5023
-1.10939
-24.167
-22.1205
-21.5369
-17.232
-14.3161
-10.553
-7.70822
-5.47253
-3.92839
-2.89396
-2.13395
-20.6364
-19.7388
-19.6566
-17.0066
-15.2805
-12.1696
-9.65941
-7.32941
-5.51706
-4.15792
-3.11796
-17.6088
-17.2199
-17.2278
-15.5738
-14.606
-12.3112
-10.4018
-8.31946
-6.55916
-5.10163
-3.91496
-14.8823
-14.8154
-14.8565
-13.7885
-13.228
-11.5965
-10.24
-8.53752
-7.01204
-5.63768
-4.46478
-12.6182
-12.6523
-12.6915
-11.9981
-11.6562
-10.4951
-9.5432
-8.21663
-6.97808
-5.77264
-4.68803
-10.8118
-10.8206
-10.8249
-10.3542
-10.1207
-9.28674
-8.60652
-7.58997
-6.61244
-5.60149
-4.64545
-9.20067
-9.18837
-9.19519
-8.86926
-8.70193
-8.09982
-7.60292
-6.82637
-6.06022
-5.23419
-4.4494
-7.76757
-7.72941
-7.72058
-7.52231
-7.41498
-6.98468
-6.61773
-6.02365
-5.42015
-4.74149
-4.08168
-6.67365
-6.56339
-6.53186
-6.39262
-6.3072
-5.98888
-5.70514
-5.24191
-4.75833
-4.19917
-3.64973
-5.8778
-5.68917
-5.63626
-5.5109
-5.41123
-5.14774
-4.90091
-4.51945
-4.11678
-3.65231
-3.20906
-5.23046
-4.98202
-4.91866
-4.79599
-4.6791
-4.44147
-4.20298
-3.86514
-3.50991
-3.10828
-2.71971
-4.74034
-4.44658
-4.36697
-4.223
-4.08341
-3.84727
-3.59487
-3.27086
-2.93822
-2.58265
-2.25375
-4.37418
-4.05155
-3.94286
-3.78547
-3.60508
-3.34426
-3.05691
-2.7222
-2.39496
-2.07446
-1.78633
-4.06241
-3.71994
-3.58405
-3.40016
-3.18222
-2.88818
-2.55523
-2.19557
-1.86679
-1.57999
-1.34253
-3.77236
-3.41944
-3.25802
-3.04641
-2.78639
-2.44533
-2.05721
-1.66805
-1.34335
-1.09933
-0.934443
-3.48619
-3.12872
-2.94821
-2.70785
-2.39257
-1.98224
-1.53259
-1.12424
-0.822575
-0.632214
-0.525378
-3.19288
-2.84246
-2.64567
-2.35723
-1.95356
-1.45433
-0.957041
-0.566681
-0.319588
-0.19278
-0.127299
-2.84665
-2.56177
-2.30511
-1.91502
-1.38615
-0.814619
-0.339168
-0.0379183
0.115698
0.16331
0.174843
-2.67338
-2.2752
-1.8742
-1.2996
-0.66339
-0.121745
0.22262
0.392789
0.477456
0.488323
0.734226
-1.72978
-1.24656
-0.609797
-0.0346206
0.331288
0.50139
0.526431
0.485899
0.421305
0.355459
0.493018
26.7162
20.3614
15.3163
11.5585
8.8703
6.87456
5.31931
4.09089
3.10386
2.3376
1.86275
17.3927
18.2471
16.874
14.266
11.281
8.67668
6.62564
5.04961
3.815
2.86363
2.27011
7.89509
11.9957
12.7334
12.6046
11.2132
9.33185
7.43386
5.73215
4.33651
3.26446
2.56399
0.722285
5.47356
7.15061
8.83469
9.12223
8.33832
7.1026
5.73179
4.45955
3.4292
2.74261
-3.60508
0.383707
1.90393
4.36654
5.64809
6.11625
5.77233
5.01432
4.09463
3.24435
2.63801
-5.96924
-2.86126
-1.8428
0.669366
2.1952
3.39261
3.80256
3.70101
3.25778
2.71217
2.27877
-7.21591
-4.72765
-4.17839
-1.85603
-0.594769
0.934366
1.7491
2.14453
2.14594
1.93854
1.73488
-7.78144
-5.74075
-5.60132
-3.39341
-2.53684
-1.02386
-0.0466954
0.645345
0.978687
1.06829
1.07526
-8.17246
-6.34695
-6.46625
-4.5108
-3.75367
-2.41627
-1.44717
-0.62672
-0.0901139
0.224321
0.425274
-8.49007
-6.96218
-6.78447
-5.36682
-4.59037
-3.39228
-2.47612
-1.61908
-0.978266
-0.520873
-0.184231
-8.66937
-7.50539
-7.06226
-5.89513
-5.15917
-4.06676
-3.20397
-2.34806
-1.66139
-1.12337
-0.691284
-8.64598
-7.68145
-7.23565
-6.19579
-5.50661
-4.50019
-3.6879
-2.84923
-2.14886
-1.56916
-1.1051
-8.59803
-7.68948
-7.27269
-6.31577
-5.67066
-4.72962
-3.96455
-3.15111
-2.45758
-1.86099
-1.38141
-8.56179
-7.61959
-7.2107
-6.2989
-5.68313
-4.79196
-4.06526
-3.28083
-2.60571
-2.01173
-1.51848
-8.28385
-7.40157
-7.03403
-6.16489
-5.56855
-4.71969
-4.0195
-3.26573
-2.61408
-2.03759
-1.55972
-7.95421
-7.10578
-6.76306
-5.92955
-5.34113
-4.52979
-3.84623
-3.12513
-2.50164
-1.95542
-1.50849
-7.61879
-6.76575
-6.41771
-5.60776
-5.01027
-4.22987
-3.55631
-2.87078
-2.28235
-1.7787
-1.37246
-7.18937
-6.34165
-5.98267
-5.19501
-4.57578
-3.82087
-3.15615
-2.51184
-1.96958
-1.52228
-1.16804
-6.66967
-5.82761
-5.44668
-4.67889
-4.03003
-3.2983
-2.65037
-2.05889
-1.57828
-1.19852
-0.905809
-6.07262
-5.22418
-4.80011
-4.04412
-3.36271
-2.6581
-2.04672
-1.52833
-1.12511
-0.829032
-0.621773
-5.37733
-4.50421
-4.01396
-3.26549
-2.56535
-1.90739
-1.36815
-0.943926
-0.637251
-0.433736
-0.305031
-4.52281
-3.60572
-3.03253
-2.31104
-1.64072
-1.07335
-0.647973
-0.338436
-0.135868
-0.0228835
0.0293081
-3.5713
-2.4974
-1.88144
-1.27203
-0.719457
-0.295218
-0.00159863
0.192832
0.297244
0.323318
0.31411
-1.65891
-0.796302
-0.380451
-0.0277976
0.277583
0.495403
0.658453
0.794065
0.871492
0.839644
0.651497
-9.22601
-4.57718
-2.63855
-1.64209
-1.04913
-0.697352
-0.496999
-0.396509
-0.366018
-0.364976
-0.31808
-14.1947
-8.97061
-6.70783
-4.92684
-3.41009
-2.34814
-1.68301
-1.28785
-1.05419
-0.913392
-0.797403
-10.7448
-9.45093
-8.47875
-7.03977
-5.44257
-4.06877
-3.033
-2.31011
-1.82754
-1.51112
-1.26674
-8.00428
-8.01979
-7.86238
-7.25098
-6.2588
-5.13849
-4.08539
-3.22058
-2.57449
-2.11433
-1.76638
-6.82894
-6.85959
-6.82284
-6.59417
-6.14227
-5.45763
-4.63635
-3.83385
-3.15213
-2.62256
-2.2066
-6.52531
-6.32641
-6.2483
-6.10959
-5.84355
-5.40761
-4.81893
-4.1554
-3.51769
-2.97509
-2.52883
-6.45733
-6.15962
-6.04676
-5.88076
-5.65267
-5.32213
-4.86056
-4.30005
-3.71602
-3.18068
-2.72127
-6.42056
-6.10215
-5.97395
-5.78189
-5.55917
-5.26811
-4.86697
-4.36286
-3.81015
-3.27821
-2.81274
-6.36923
-6.06006
-5.93367
-5.72358
-5.50666
-5.23209
-4.85582
-4.37543
-3.83256
-3.29157
-2.802
-6.29365
-6.0029
-5.86872
-5.65671
-5.44889
-5.18207
-4.81516
-4.34101
-3.79488
-3.23932
-2.7242
-6.19098
-5.91359
-5.77064
-5.56299
-5.34732
-5.0821
-4.72012
-4.24793
-3.69625
-3.12771
-2.59598
-6.06495
-5.78923
-5.63994
-5.42856
-5.19083
-4.91944
-4.55911
-4.08939
-3.53635
-2.96082
-2.41218
-5.92331
-5.64601
-5.4904
-5.27091
-5.01393
-4.71684
-4.35392
-3.88381
-3.33209
-2.75805
-2.21453
-5.78181
-5.5044
-5.34271
-5.11205
-4.84143
-4.52012
-4.14179
-3.66851
-3.11613
-2.54518
-1.99677
-5.65457
-5.3771
-5.21287
-4.97306
-4.69131
-4.35908
-3.96004
-3.48056
-2.92618
-2.35749
-1.81445
-5.54583
-5.27096
-5.10967
-4.87027
-4.58734
-4.25181
-3.84528
-3.35765
-2.79559
-2.22402
-1.68325
-5.46133
-5.19486
-5.04398
-4.81481
-4.54334
-4.21698
-3.81615
-3.32303
-2.74929
-2.15957
-1.59652
-5.40365
-5.15416
-5.0206
-4.81123
-4.56402
-4.26125
-3.87822
-3.38784
-2.80224
-2.18814
-1.60317
-5.37254
-5.14963
-5.03873
-4.86077
-4.65101
-4.38531
-4.03128
-3.55018
-2.94985
-2.29924
-1.66823
-5.36398
-5.18352
-5.10143
-4.96855
-4.81023
-4.59489
-4.27717
-3.81333
-3.20154
-2.51539
-1.81507
-5.3774
-5.26424
-5.22033
-5.14571
-5.05389
-4.9081
-4.65278
-4.21785
-3.58565
-2.85585
-2.07427
-5.42766
-5.39359
-5.40405
-5.38945
-5.3674
-5.26739
-4.97357
-4.5116
-3.93492
-3.24901
-2.44742
-5.51634
-5.65192
-5.66683
-5.6604
-5.57878
-5.39716
-5.12001
-4.72989
-4.23117
-3.61468
-2.86395
-6.27416
-5.81929
-5.7258
-5.68079
-5.59745
-5.44171
-5.21345
-4.89952
-4.48709
-3.95346
-3.25911
6.5333
3.52455
1.77379
0.981766
0.659449
0.526242
0.440715
0.345025
0.229366
0.122276
0.0740044
8.4305
7.20005
5.42168
3.90533
2.80896
2.07064
1.56175
1.17641
0.856932
0.606961
0.483697
6.41225
6.59231
6.04782
5.12837
4.15066
3.27274
2.54061
1.93877
1.43613
1.03679
0.81678
4.58833
5.12484
5.19475
4.93115
4.40021
3.74874
3.0813
2.44521
1.85986
1.36458
1.08362
3.28939
3.83126
4.06431
4.11371
3.97013
3.64872
3.18067
2.62848
2.05073
1.52649
1.19727
2.35326
2.7736
3.01678
3.19716
3.25892
3.16149
2.90788
2.52332
2.04893
1.56875
1.23707
1.59927
1.89252
2.08573
2.27453
2.41494
2.46378
2.39308
2.18811
1.85383
1.44791
1.15337
0.946046
1.13072
1.26546
1.41145
1.5443
1.63832
1.66642
1.59835
1.40861
1.11685
0.877096
0.345594
0.442953
0.525505
0.616291
0.706425
0.786731
0.842858
0.853153
0.780192
0.613238
0.446346
-0.223264
-0.19494
-0.156861
-0.123302
-0.0885757
-0.0519979
-0.0112098
0.0283065
0.033093
-0.020891
-0.0830618
-0.764928
-0.799744
-0.793256
-0.818561
-0.842277
-0.863862
-0.869897
-0.844706
-0.792787
-0.75751
-0.724993
-1.26983
-1.36194
-1.39672
-1.47167
-1.55085
-1.63483
-1.70573
-1.73105
-1.67423
-1.56011
-1.43025
-1.74988
-1.89455
-1.96462
-2.08286
-2.21689
-2.36113
-2.49717
-2.5873
-2.57188
-2.40754
-2.15802
-2.20737
-2.39676
-2.4976
-2.6559
-2.83982
-3.03982
-3.23622
-3.38669
-3.42135
-3.26821
-2.95283
-2.6335
-2.86304
-2.99269
-3.18611
-3.41288
-3.66079
-3.90937
-4.11392
-4.19852
-4.06828
-3.73596
-3.03407
-3.29435
-3.44955
-3.6705
-3.92998
-4.21372
-4.50045
-4.74504
-4.86964
-4.76242
-4.45039
-3.40861
-3.68851
-3.86407
-4.10244
-4.38101
-4.68418
-4.99005
-5.25416
-5.39997
-5.30111
-4.92198
-3.75123
-4.03867
-4.22686
-4.4706
-4.75242
-5.05665
-5.36096
-5.62235
-5.77023
-5.69019
-5.34738
-4.05692
-4.33788
-4.52848
-4.76497
-5.03465
-5.32234
-5.60472
-5.84036
-5.96432
-5.86717
-5.47391
-4.32135
-4.58198
-4.76419
-4.98242
-5.22723
-5.48271
-5.72322
-5.90907
-5.98249
-5.84659
-5.3576
-4.5426
-4.77041
-4.93686
-5.12872
-5.33964
-5.54934
-5.72874
-5.84247
-5.84598
-5.6737
-5.2058
-4.70879
-4.91359
-5.05568
-5.21688
-5.39158
-5.5424
-5.6418
-5.66395
-5.57818
-5.33916
-4.85503
-4.94039
-5.0464
-5.15879
-5.29484
-5.40979
-5.47991
-5.47928
-5.39472
-5.20728
-4.88526
-4.37926
-4.76758
-5.01633
-5.16963
-5.28492
-5.3361
-5.31271
-5.212
-5.02655
-4.74436
-4.33616
-3.74607
-2.63311
-2.22549
-1.20733
-0.141644
0.474059
0.72782
0.44091
-0.439665
-1.46166
-2.0766
-1.71647
-1.01844
-0.193808
0.322279
0.534195
0.30736
-0.386865
-1.10972
-1.94895
-1.68663
-0.977946
-0.270672
0.17524
0.363578
0.1793
-0.38827
-1.06496
-1.70946
-1.4507
-0.937813
-0.341179
0.0443167
0.211336
0.0506087
-0.39243
-0.935042
-2.38555
-1.59088
-1.19041
-1.10365
-1.06637
-1.14487
-1.41703
-1.89543
-2.06808
-1.92362
-1.39833
-1.18471
-1.11424
-1.0738
-1.11597
-1.23642
-1.50456
-1.56095
-1.80788
-1.35085
-1.16562
-1.10276
-1.05319
-1.06541
-1.17636
-1.40891
-1.44677
-1.63739
-1.28237
-1.1316
-1.05068
-1.00547
-0.983373
-1.08981
-1.26248
-1.25208
1.15782
1.69357
1.70636
0.118906
-0.237124
2.15516
-0.769486
1.92173
2.17098
1.08402
-0.248969
1.9193
-0.259618
0.00333934
1.1504
1.36231
0.0098616
0.118629
1.36514
1.14077
1.0043
-0.48459
1.64394
0.0521138
1.65601
0.00227471
-0.26193
-0.74025
-1.40068
0.0340268
0.0105744
-0.0342382
0.00487099
1.55498
-0.181581
1.72503
0.0506035
1.67184
0.00564939
2.06477
-0.66082
1.56303
0.0314036
1.65186
-0.396763
-0.53455
0.0292266
-0.816988
0.275157
2.25686
0.0395398
2.0559
0.00402762
0.0333859
2.23335
1.01252
-0.459332
2.02453
-1.43041
0.0369412
-1.39677
0.00373266
-0.226939
-0.0660512
-0.52314
1.14308
0.104247
2.76978
1.72492
1.09105
-0.0152098
1.56929
0.0412279
1.82018
0.074374
1.63154
-0.593502
1.58987
-0.291952
-0.878967
0.0294803
-0.0647519
1.24649
1.27148
-0.460478
0.0507078
-2.01646
0.0038943
-0.37188
0.0383449
1.79332
2.00715
-0.571609
2.32229
-0.782047
-0.984161
0.0715956
-0.366324
-0.327965
1.62185
-0.62725
-0.863308
0.989132
-0.276427
-0.265151
1.88592
0.000156284
1.25113
0.00805785
0.426135
1.69253
1.55588
1.94763
0.0875474
0.0949119
1.21526
2.05748
1.54349
1.97516
0.872621
0.0135677
1.71491
-0.124145
0.00886864
-0.525229
-0.402238
0.00605176
0.000592879
0.000970077
0.00522953
1.84132
0.0399131
-0.824304
1.59904
1.80961
-0.497699
-0.487805
-0.0960409
0.0252498
0.40042
0.0276433
0.847664
-0.496085
0.538984
2.04411
-0.194451
-0.476581
2.70727
1.22902
1.68051
1.90845
2.06206
-0.197214
1.75758
0.115687
0.0262303
0.0815986
-0.537245
0.00023233
1.33244
-0.203058
-0.283371
1.60086
1.386
0.110909
0.0265935
-0.358174
0.794438
-0.488126
-0.534239
0.00282988
0.000512469
-0.50806
0.764755
0.0183794
0.0968331
-0.00146187
-0.242705
-0.447021
0.171837
2.56704
-0.495221
1.77338
-0.226269
1.98507
0.0751599
1.97188
1.51218
1.51434
-0.250489
0.00953176
-0.0116051
1.07909
-0.65773
1.73795
1.49122
2.24295
-0.314219
0.00579278
1.22922
-0.335915
2.37931
0.0175257
0.00975669
1.79561
0.00257248
2.35801
-0.000227836
2.2531
1.13209
0.0338548
1.46157
0.611519
-0.0370351
1.60726
0.0280188
1.81589
0.0407697
2.09725
-0.056648
0.00257617
0.0684123
0.077007
0.0935888
0.00700406
1.96335
-0.226047
0.020824
0.00763423
-0.159356
-0.492231
1.05221
1.94426
1.60933
-0.228256
-1.82863
0.0700509
1.76789
1.82101
1.8291
0.04511
0.139652
-0.289138
-0.648489
3.28822
-0.307235
1.5404
0.0116401
-1.12903
0.0344654
0.0117355
0.0355097
-0.795572
1.31906
-0.0417562
2.22332
1.12099
1.67621
-0.248193
1.96918
-0.00127284
-0.46462
1.10799
1.62713
1.67988
0.00952047
0.800694
3.75061
-0.146546
-0.154542
-0.265089
1.96172
2.41887
0.0287514
1.82642
1.53571
0.00702257
1.89639
0.450545
-0.281234
1.5744
1.92954
0.0316232
0.0629578
0.011516
1.6986
-1.59134
1.85666
0.307438
0.0216932
1.7761
-0.73569
0.527753
0.0153358
1.72137
2.22457
-0.453972
1.67392
-0.106208
0.0047898
2.04684
-0.203876
0.112524
0.0347279
1.16481
0.376487
1.61555
0.00450235
-0.464293
1.82406
-0.624676
1.89057
0.32456
0.00544362
-0.627188
0.555358
-0.148877
-0.259546
0.818394
2.19419
1.86156
0.0185928
1.4812
-0.0514435
-0.203019
0.909664
1.55658
-0.142247
1.03438
0.0363887
3.07246
-0.228359
-0.576573
1.89324
-0.207888
-1.29928
0.0897422
1.62642
1.87625
-0.362356
-0.479165
0.0388712
2.42001
0.028679
-0.250272
0.00558904
0.0704051
1.53595
0.0387942
0.0117366
-0.707734
-0.331789
-0.133272
1.22396
-0.00151894
1.22759
0.00169544
0.404249
1.63133
0.037864
-0.126126
0.00104031
1.80929
1.24292
1.88547
-0.368201
0.00131162
0.0210219
-0.729859
0.0294697
1.87913
-0.290741
-1.18265
0.00171097
-0.00740874
1.7678
0.0279745
-0.185019
1.69602
1.67663
0.0442439
1.52492
-0.254583
1.93213
-0.0197511
0.0985154
-0.104616
0.00419782
0.147304
-0.430622
2.04407
-0.547583
0.00307027
1.27555
0.0945632
-0.53823
1.61502
1.71047
1.91769
0.0534132
-0.240511
1.20781
1.89351
0.0230065
0.000218543
-0.633499
-0.408739
0.0128248
2.36058
0.0167123
1.08154
1.34717
0.0164683
0.015024
-0.0960348
0.246506
0.0105909
1.7008
-0.000620453
-0.510211
-0.176435
-0.00267842
-0.794579
0.00322184
0.0547626
0.495211
1.81173
-0.00103806
-0.605403
-0.446668
1.52764
-0.263016
-0.0331727
0.746756
-0.476994
0.00688504
0.020534
0.0143624
0.00840697
1.50191
-0.312381
-2.05349
0.0938486
-0.146231
1.42175
0.0116345
0.0245287
-0.476753
1.41447
-0.33875
2.03855
1.27224
1.83651
-0.475756
-0.487872
-0.725391
0.00376023
-0.376526
-0.00209451
1.4168
1.43583
0.00799432
-0.00378745
-0.0747762
1.29453
-0.00290891
-0.000519685
1.21645
1.46551
3.02306
0.08375
-0.279401
1.59445
-1.28707
1.3074
1.78392
1.93075
1.14901
-0.345253
1.93838
1.3144
1.05502
-0.0818443
-0.496248
1.62728
-0.14253
-0.210416
0.588723
0.0113739
1.23933
-0.427997
1.52014
1.40421
1.95376
0.000349594
-0.00099651
1.0869
-0.0390086
0.516143
3.64058
-0.181383
-0.132621
1.95659
1.30542
-1.16706
0.00643474
-0.0682725
2.95627
-0.813831
1.49823
0.0694983
-0.00248654
-0.460038
0.0254914
-0.682465
0.0849611
0.0466552
-0.0449959
1.52215
-0.16893
0.775883
1.9277
1.83719
1.77697
1.06482
0.0437918
1.93747
1.25914
-0.00541306
2.05095
-0.533803
-0.224437
0.0021925
-0.0162141
-0.380919
1.61238
1.78376
1.9159
-0.632332
-0.341258
1.53909
1.42414
0.00989813
1.90848
0.100503
1.91262
0.0193361
0.43776
-0.533004
0.0114553
-0.00279458
-0.590467
0.0734529
1.1871
0.751839
1.19448
1.7462
0.00569199
-0.51076
0.997143
0.0140538
-1.02057
-0.875048
1.70721
2.35144
1.87222
0.0264302
0.0741516
-0.00113539
1.92941
1.93945
0.0613415
2.16585
0.0173977
0.001642
0.0099169
-0.265461
1.70029
-0.00258736
1.7759
0.0492074
2.09576
0.0729252
-0.00146626
0.0776048
-0.644519
0.0279118
1.89186
1.58249
-0.75812
1.35935
-0.149722
0.123043
0.0488725
0.0312668
-0.457733
-0.122483
1.19321
2.01909
1.99505
-0.993561
0.00738482
-0.00948828
1.11575
1.71584
-0.407004
1.93224
2.43299
1.11655
1.40186
0.00199026
0.0277097
0.0462585
-0.134006
0.12475
-0.844917
1.29296
0.0405833
1.55598
2.03411
-1.13251
0.0454015
1.44681
1.44813
-0.451429
0.957139
1.39029
-0.204591
1.86537
0.825596
-0.0620645
0.0133652
-0.0863431
-0.000943158
-0.00215862
-0.461598
0.0111473
-0.772091
0.00472498
-0.132888
-0.397188
0.0639207
-0.00768883
1.50354
1.31845
-0.218134
0.16238
1.56865
0.380315
-0.0405756
0.0278356
-1.09217
-0.213475
-0.245762
1.58273
-0.978655
1.64028
1.69291
0.713457
-0.192354
1.34759
2.93208
1.58016
1.73913
0.13828
0.00179675
-0.174976
1.525
2.0496
0.422948
0.00941435
2.18818
-0.569572
1.82138
0.101236
0.0050273
1.6542
0.00106612
1.42686
0.00501125
0.134692
0.00527599
-1.03951
-0.200177
-0.43074
1.24945
-0.000243045
-0.00204428
-0.478652
0.011924
1.51555
0.302599
1.26532
-0.1449
1.56045
-0.139411
1.92029
2.08946
1.68019
-0.271438
0.0381997
1.64973
-0.00140435
1.99131
0.0189735
-0.000164616
0.701081
0.123422
-0.597389
0.0130926
-0.0473211
-0.123278
-0.150761
0.023008
0.00508123
-0.759732
1.5165
-0.0103429
1.80237
2.86648
-0.617445
-0.6114
-0.435704
0.00537943
2.14487
0.808119
0.844056
0.0481675
1.43093
0.00289486
0.0171952
0.0212849
0.609261
-0.02191
0.0289233
0.0338334
1.48548
-0.0950524
-0.280814
-0.265494
1.71026
0.000154032
-1.04807
1.76431
-0.582886
-0.00288993
2.06583
0.0974255
1.93254
1.60871
0.683844
-0.00291137
1.53766
-0.000451292
1.86469
0.00529062
1.37129
0.0119263
0.00732488
0.0444084
0.00531483
1.48564
0.0098872
-0.611833
1.31755
0.000729432
0.050897
0.0211104
-0.852575
-0.513775
0.724635
0.0815642
0.011602
-0.732508
1.6484
-0.45666
1.57939
0.0696539
-0.554499
1.70736
1.97951
-0.57052
-0.223693
0.0246305
-0.112243
1.90253
0.000788146
0.351019
1.53925
1.52279
1.88203
1.80145
3.35114
-0.00156497
-0.53296
-0.276036
0.0025079
-0.520201
1.64134
1.87007
-0.0982669
0.0601282
1.78455
-0.321207
-0.0342624
-0.79856
0.0498253
-0.680507
-0.0027834
0.0874326
1.62302
1.83279
-0.536729
0.978949
1.91325
0.322967
0.00244844
-0.33666
-0.294227
1.75053
-0.144189
-0.602694
0.0426717
1.89995
0.00121295
0.0104265
0.0394034
0.0909295
1.33628
1.63322
0.125377
0.023229
0.0197994
1.26703
1.58543
2.16701
2.117
1.87789
0.0512106
-0.051642
-0.54991
-0.813697
0.0190671
1.95236
-0.138967
1.42872
1.78974
-0.146034
1.86809
1.9548
2.03072
-0.256385
0.0112975
0.0279034
1.94255
0.0886491
1.74487
1.83942
2.33163
1.47497
0.380832
1.64996
1.81772
2.45783
-1.38736
1.58769
1.20554
-0.561375
-0.606209
2.31257
1.83073
-0.0568151
-1.35777
2.15597
-0.472477
0.0176187
0.0948138
1.73979
1.65936
0.887227
0.484022
0.00226347
1.8482
-0.00856409
0.0163164
0.0126652
0.0117013
1.66865
0.0053435
1.08023
1.66047
1.56111
2.97911
1.59781
-0.343334
-0.527401
-0.100976
0.0231999
0.0105279
0.0217186
0.124378
-0.482732
1.58397
1.68129
-0.00202994
0.00186931
0.00241976
2.09025
-0.260487
1.9725
-0.0965198
1.46342
-0.000597562
0.00316744
-0.30103
0.00497505
1.10149
1.66858
0.0649803
-0.428659
0.00429124
-0.440722
0.0127103
0.5307
1.18266
0.0135209
1.97446
1.81063
-0.147387
-0.460254
0.0543847
-0.46373
0.00287209
0.00393516
0.0257275
-1.13555
1.29449
0.521998
0.00811126
1.34128
-0.953924
1.93234
0.0325875
0.0125205
0.0131607
1.38906
-0.0133168
1.91025
2.03461
0.0119024
0.123494
1.85482
1.89207
2.42111
-0.462333
-0.554259
-0.503619
0.0640267
1.09039
-0.614719
0.0305092
-0.546524
1.29579
0.0111632
0.00661024
1.92551
-0.00134512
0.335032
0.0447146
0.102666
0.113457
-0.204475
0.511786
1.90056
-0.0510404
0.0213689
2.01524
0.0121401
1.78582
-1.75907
0.00176193
-0.854125
1.68406
-0.00324284
0.117554
0.0919011
-0.00224505
0.00330228
1.24043
-0.000199064
-0.0957004
1.60538
0.563874
0.0510575
-0.016078
0.0631403
-0.0105842
2.01526
1.43658
-0.449771
1.45587
-0.582995
0.0162094
0.00107988
0.0780908
1.87786
-0.0577396
-0.3191
-0.00312692
0.0300296
0.0128077
1.61606
-0.0993912
0.000666084
1.39158
0.621898
1.80957
0.0836317
0.651491
1.92477
-0.182511
0.0115593
0.00130896
1.69763
-0.691461
-0.401031
0.879963
-0.0617204
1.52866
1.054
0.343097
-0.808158
2.60867
0.0190122
0.122654
-0.307944
1.64553
1.14043
1.25903
1.26503
-0.0834656
0.0782348
0.02366
-0.398811
-0.485413
-1.05002
1.07561
0.272699
-0.215796
1.34321
-0.00162325
0.0131449
0.0523237
-1.10607
-0.254969
0.0915963
1.53146
0.00634095
1.30111
0.062262
1.70548
-1.14708
-0.415595
1.6838
-0.506952
0.0394362
1.03973
0.00122317
0.0117409
-0.664533
0.0497677
0.0395631
-0.556874
0.00418383
0.0205589
-0.589092
0.0227657
1.87644
-0.110984
3.5404
-0.0630315
-0.0125991
0.0750416
-0.0438382
0.0315225
-0.40352
1.32621
2.58435
0.897758
1.70917
0.0158839
-0.0556404
1.32446
-0.0102234
-0.00887383
3.02539
-0.22973
-0.594287
-0.470139
-0.878606
-0.568866
0.0282871
0.000154666
0.0117722
1.36805
1.47567
0.0814525
1.45851
1.79722
-0.0400716
1.24147
3.10238
0.0860492
1.52148
-1.15792
-0.00194132
0.0826627
1.32201
-0.136703
0.0318104
-0.000558693
-0.631219
1.28249
0.0182589
0.0700007
0.00756395
0.00197547
1.35955
0.00991118
0.995747
0.143001
0.0121083
0.466723
1.37512
-0.217729
-0.0184702
-0.107565
-0.303423
0.102867
1.44432
1.79967
1.50784
-0.274515
0.00232267
0.000146642
-0.477645
-1.46852
1.0883
0.00815911
1.06234
1.90438
-0.342946
1.18575
2.11992
-1.32839
-0.664469
-0.855176
-0.215828
1.70248
1.47313
-0.00357869
-0.0515725
0.0318782
-0.92336
-0.00696625
1.89793
2.08573
0.00479734
0.0145705
0.000725344
0.0168965
1.91919
-0.0201384
0.0306703
0.0607054
1.26966
0.0271151
-0.264505
0.341691
-0.313479
1.70114
0.89745
-0.0856871
0.00141968
-0.0183565
1.01738
0.301922
-0.23746
0.0886804
0.122134
0.0171272
0.0482366
-0.594331
2.07908
-0.848731
0.0843523
1.47404
0.00019088
0.0229708
0.661237
0.033664
1.39046
1.81866
1.3549
-0.667886
0.000189984
1.50164
0.050614
1.40033
1.61787
1.22479
0.0114979
1.52306
0.0253705
-0.445029
1.46751
-0.158858
-0.490529
0.0138248
-0.337134
-0.502647
-0.0723323
-0.00178638
1.94076
1.64074
1.92752
0.00989825
1.23251
1.82517
-0.422425
-0.50286
0.0476529
0.00739194
0.00204366
0.166832
0.0671096
-0.436813
1.49679
-0.229493
1.42197
-0.000448526
0.843254
-0.00265819
1.01868
0.985698
1.98073
-0.276532
0.00538739
0.672921
0.0454636
1.47382
0.00331887
0.0126408
-0.223147
0.0224356
1.3732
1.13461
0.0279412
-0.854388
0.00549098
0.00261077
-0.316271
0.00520827
1.42026
-0.695119
0.00248581
0.904522
-0.00976678
0.0150511
-0.212269
-0.272697
0.0657262
-0.000652747
-0.254757
-1.08439
1.50804
2.60544
0.0277474
0.0735962
0.0250192
1.59648
-0.472353
1.74228
1.62232
-0.617411
1.24495
1.87951
-0.772352
-0.094359
2.37528
1.19537
2.14105
1.08681
1.70194
2.13807
-0.4055
-0.216202
1.4519
1.92937
-0.11205
1.75979
0.0274377
1.88086
1.31121
1.88884
-0.127159
-0.433424
0.0901809
1.18656
1.64853
0.0147779
0.00812837
1.38699
-0.551136
0.000868038
2.19702
-0.353637
-0.00991784
-0.351789
-0.0998865
-0.0788833
1.87145
0.132468
1.98615
1.05619
2.32827
-0.608874
1.50032
0.0909499
2.28823
-0.118089
1.84797
1.48288
-0.248001
1.65218
1.62237
-0.196343
0.0470849
-0.0338245
1.59268
1.05717
1.97804
0.0349567
0.00801527
0.132651
-0.269252
-0.162371
-0.467919
1.75856
1.45652
2.52074
0.873353
0.0437663
2.24289
-0.248764
1.87172
-0.648642
0.013476
-0.00833451
0.0321063
0.449014
0.0356842
1.75274
-0.241732
-0.346985
1.34882
1.4693
0.0355107
0.812365
1.4669
1.08814
-0.0962121
1.71093
-0.203239
-0.339798
-0.00650463
-0.00714403
1.48113
-0.419365
0.332768
-0.862057
0.0101521
0.112241
0.0246902
1.20722
1.6501
1.11728
1.4038
-0.214361
0.899489
2.06951
0.00913719
-0.239166
1.85298
0.910999
-0.595516
-0.225121
1.28646
-0.490721
1.20066
1.12352
0.0281073
1.49617
0.0291867
0.00804383
1.08763
1.81104
-0.0186211
-0.238837
1.09688
0.00568155
1.75965
1.67585
-0.0335794
1.11374
-0.00275906
1.43488
2.41138
-0.602088
0.324298
2.30323
-1.86798
1.13899
2.30051
2.32152
2.33692
-0.138366
-0.0204074
0.0190629
-0.0886591
-0.263584
2.2534
2.13135
-0.203725
-0.00012468
1.17388
0.642585
-0.281661
1.85827
0.00949912
1.87632
0.0229493
2.1922
1.10916
-0.00159511
-0.0183099
-0.00904306
1.73207
1.27111
0.879639
1.15995
1.84579
0.0549722
0.0629832
0.138593
-0.300064
0.0375356
0.735782
1.84978
1.94867
-0.241729
0.819229
0.00667664
-0.954959
0.917931
0.0330412
-0.0250382
1.54377
1.24969
-0.000418441
-0.193843
-0.00866385
1.34627
-0.0155448
0.0105677
-0.252936
0.00201426
-0.0153739
1.71404
0.0412767
-0.572169
-0.705466
-0.0522221
-0.141179
0.00204315
1.52187
1.00997
-0.198946
1.74511
-0.0100812
0.0102915
0.00470457
-0.0425092
0.0406713
-0.396606
-0.661857
0.0572428
2.00957
0.0871842
0.0132291
-0.207357
-0.33539
-0.161243
1.42814
-0.295488
2.00056
0.00672224
-0.989191
-0.0883286
-0.877018
0.0817767
0.0250971
2.22842
2.1447
1.80689
1.47957
1.60998
-0.0659526
2.37745
-0.432852
2.68569
0.0499883
-0.0732045
1.44107
1.28657
-0.438906
-0.799641
1.84657
0.474591
1.64336
1.77605
-0.0427885
-0.456602
1.5451
1.37438
1.29799
1.52469
2.13114
1.8094
-0.240394
-0.11371
1.97821
-0.400586
1.78415
1.45834
0.186979
1.86217
-0.0788533
1.1129
1.84665
1.31567
1.17916
0.000542811
2.28182
0.00329353
-0.234386
-0.702613
0.028197
0.0375141
0.0261173
0.00617188
0.0191512
0.0196531
0.00730783
1.60333
0.0338758
0.755793
1.97477
1.80258
-1.38317
0.0122409
0.00163046
1.26859
-0.0646741