/*--------------------------------*- C++ -*----------------------------------*\
| =========                 |                                                 |
| \\      /  F ield         | OpenFOAM: The Open Source CFD Toolbox           |
|  \\    /   O peration     | Version:  3.0.1                                 |
|   \\  /    A nd           | Web:      www.OpenFOAM.org                      |
|    \\/     M anipulation  |                                                 |
\*---------------------------------------------------------------------------*/
FoamFile
{
    version     2.0;
    format      ascii;
    class       surfaceVectorField;
    location    "0.736285";
    object      Uf;
}
// * * * * * * * * * * * * * * * * * * * * * * * * * * * * * * * * * * * * * //

dimensions      [0 1 -1 0 0 0 0];

internalField   nonuniform List<vector> 
32369
(
(2.25538 -6.39806 -4.54265e-19)
(0.285518 -4.50152 7.04912e-19)
(5.99421 -7.19257 9.93028e-19)
(2.65327 -4.69283 -5.56458e-19)
(1.10519 -4.50441 9.00956e-20)
(4.66487 -4.64812 -1.26297e-18)
(2.99241 -3.63904 0)
(1.8953 -3.9029 9.48692e-19)
(4.22556 -3.84476 -2.55076e-19)
(3.15014 -2.86456 -3.83632e-19)
(2.39957 -3.22624 -2.50107e-19)
(3.92649 -3.01439 -1.9388e-19)
(3.19179 -2.28248 -6.91304e-20)
(2.68161 -2.64428 -1.52412e-18)
(3.70014 -2.39043 -3.66932e-19)
(3.16888 -1.83205 -2.44752e-20)
(2.82616 -2.14786 5.18832e-19)
(3.52862 -1.90709 4.15659e-19)
(3.11471 -1.47462 -2.13719e-19)
(2.88381 -1.73279 -3.35218e-19)
(3.38567 -1.52651 -4.93317e-19)
(3.04887 -1.18801 1.91635e-19)
(2.89034 -1.39255 6.24139e-19)
(3.25871 -1.22408 3.69076e-19)
(2.98169 -0.957434 -6.89294e-19)
(2.86979 -1.11744 -6.02064e-19)
(3.14615 -0.98178 -3.47643e-19)
(2.91628 -0.77239 -2.35536e-19)
(2.8354 -0.899088 -9.89065e-19)
(3.04566 -0.787937 -9.54155e-20)
(2.7926 -0.730718 5.98427e-19)
(2.95306 -0.639622 -2.55646e-20)
(2.82982 -0.605157 -1.7324e-19)
(-0.778369 -3.49928 1.27326e-18)
(-1.44131 -2.09208 2.87907e-18)
(0.330159 -3.70002 1.48984e-18)
(-0.572069 -2.58983 -2.20799e-19)
(1.24874 -3.38369 7.55675e-19)
(0.223191 -2.82354 1.13553e-18)
(1.88737 -2.91838 -1.47524e-18)
(1.01525 -2.78408 1.24189e-18)
(2.29748 -2.45347 -1.56425e-18)
(1.61386 -2.53918 -1.20857e-18)
(2.53876 -2.02313 4.37852e-19)
(2.028 -2.19484 0)
(2.6658 -1.64621 5.47075e-19)
(2.29635 -1.83184 -2.8569e-19)
(2.72064 -1.32939 0)
(2.46027 -1.49755 1.04639e-18)
(2.73259 -1.06949 -8.60309e-19)
(2.55459 -1.21003 -3.53334e-19)
(2.72405 -0.85898 -4.77937e-19)
(2.60193 -0.970777 -1.06885e-18)
(2.61605 -0.78217 6.21262e-19)
(2.69613 -0.675075 2.96859e-19)
(-1.08084 -1.58885 1.67096e-18)
(-1.32087 -0.918579 -1.33323e-18)
(-0.659722 -2.00543 -5.29107e-19)
(-0.697856 -1.34232 -7.59412e-19)
(-0.0224938 -2.30979 1.66913e-18)
(-0.402156 -1.65612 1.31255e-18)
(0.662644 -2.39439 1.76669e-18)
(0.177823 -1.91723 -1.76676e-19)
(1.27509 -2.24941 1.49198e-19)
(0.767355 -1.97675 -6.35911e-19)
(1.74538 -1.97921 -6.58293e-19)
(1.28941 -1.88 1.89643e-19)
(2.07095 -1.66948 3.81685e-20)
(1.70021 -1.67954 -7.29023e-19)
(2.28263 -1.37175 8.72384e-19)
(1.99866 -1.43347 1.00774e-18)
(2.41609 -1.11 -4.05101e-19)
(2.20481 -1.18618 -1.11803e-18)
(2.49647 -0.893206 -2.54645e-19)
(2.34324 -0.964144 4.15807e-19)
(2.42436 -0.780829 -5.38839e-19)
(2.53574 -0.702903 2.91669e-18)
(-0.729252 -0.73003 -3.66498e-18)
(-0.913624 -0.224064 -1.02435e-18)
(-0.559806 -1.03487 8.82585e-19)
(-0.373931 -0.564615 0)
(-0.246325 -1.32917 -2.59633e-19)
(-0.337621 -0.798553 1.35666e-18)
(0.192642 -1.54647 -2.32311e-18)
(0.0182056 -1.08418 -1.47527e-18)
(0.695022 -1.62883 -6.51405e-19)
(0.42511 -1.27131 -2.01473e-19)
(1.1783 -1.58221 2.06946e-19)
(0.870131 -1.34684 1.84531e-19)
(1.58571 -1.43894 0)
(1.28436 -1.31251 -3.4796e-19)
(1.89604 -1.24584 -6.79595e-19)
(1.63227 -1.19815 5.27417e-19)
(2.11649 -1.04374 -4.7057e-19)
(1.90316 -1.04211 3.47794e-19)
(2.26762 -0.858738 2.45195e-19)
(2.10322 -0.877599 4.2829e-19)
(2.23843 -0.72848 -3.12517e-19)
(2.36527 -0.691883 -2.07274e-18)
(-0.343553 -0.145572 2.46272e-18)
(-0.461017 0.18878 4.69312e-18)
(-0.246067 -0.346743 3.37474e-19)
(0.0115333 -0.05815 1.25389e-19)
(-0.0778675 -0.600648 4.1652e-19)
(-0.0783636 -0.206274 -1.31731e-18)
(0.179463 -0.84341 4.31909e-19)
(0.159514 -0.46172 0)
(0.522782 -1.01572 5.36065e-19)
(0.40883 -0.66742 -3.31963e-19)
(0.906809 -1.09678 -3.0692e-19)
(0.731327 -0.817847 6.21501e-19)
(1.28085 -1.08625 7.55028e-20)
(1.07302 -0.889532 5.61796e-19)
(1.60662 -1.00559 1.60003e-18)
(1.39715 -0.884542 -1.41861e-19)
(1.86752 -0.885218 1.27704e-18)
(1.67878 -0.821608 7.16775e-19)
(2.06568 -0.752699 0)
(1.90733 -0.726072 -1.39512e-19)
(2.07388 -0.621101 1.50197e-19)
(2.21219 -0.610291 0)
(0.0180755 0.217195 3.03466e-18)
(-0.0648886 0.382204 2.3382e-18)
(0.103602 0.103962 -1.48493e-18)
(0.352106 0.285559 1.44026e-19)
(0.189248 -0.0963699 -1.827e-18)
(0.222674 0.173764 -1.66411e-18)
(0.340813 -0.308033 -7.21018e-19)
(0.389031 -0.035061 0)
(0.562618 -0.496333 -3.07713e-19)
(0.538397 -0.216915 -8.03412e-19)
(0.838395 -0.635307 1.44589e-18)
(0.759277 -0.382287 6.46091e-19)
(1.13878 -0.708531 3.67844e-19)
(1.01629 -0.501295 8.50649e-19)
(1.43064 -0.716932 -1.07327e-18)
(1.28537 -0.563442 -5.85363e-19)
(1.68933 -0.675263 -5.89815e-19)
(1.54211 -0.571553 -7.76539e-19)
(1.90389 -0.604666 -2.20745e-20)
(1.76854 -0.538736 -1.09716e-19)
(1.94576 -0.48016 1.55812e-19)
(2.07612 -0.513733 1.58759e-19)
(0.338225 0.40777 -9.97037e-20)
(0.220435 0.489752 1.29303e-18)
(0.409415 0.381653 7.68063e-21)
(0.622517 0.465268 -1.07881e-18)
(0.456842 0.230008 -1.74195e-20)
(0.504159 0.414876 -1.08158e-19)
(0.553985 0.0620476 0)
(0.621349 0.253928 -8.73259e-20)
(0.698936 -0.107683 2.80928e-20)
(0.714719 0.103254 1.04552e-18)
(0.890315 -0.25708 3.48417e-20)
(0.866774 -0.0522061 -1.08533e-19)
(1.11687 -0.367711 2.99525e-20)
(1.05439 -0.181504 -7.00638e-19)
(1.35665 -0.429929 -2.86664e-19)
(1.26569 -0.275276 4.92306e-19)
(1.58805 -0.44583 -3.59378e-19)
(1.48304 -0.327278 -7.35235e-19)
(1.79514 -0.425892 3.92772e-20)
(1.68845 -0.341487 6.21857e-19)
(1.85696 -0.327043 -3.37947e-19)
(1.96919 -0.373824 1.53159e-18)
(0.569435 0.521772 7.64028e-19)
(0.437057 0.575531 1.26514e-18)
(0.660151 0.548441 -1.29583e-18)
(0.828278 0.593765 -2.96183e-18)
(0.695922 0.440004 -1.79995e-19)
(0.737167 0.571691 1.54391e-18)
(0.762569 0.310925 8.39255e-19)
(0.830271 0.446881 -5.15924e-21)
(0.861478 0.169008 1.02567e-18)
(0.893093 0.326782 1.18e-18)
(0.998077 0.0301818 -8.00838e-19)
(1.0018 0.192886 -3.17297e-20)
(1.16644 -0.0886627 -3.6544e-19)
(1.13971 0.0685188 -6.99248e-19)
(1.35558 -0.175937 1.549e-19)
(1.30281 -0.034991 4.5948e-19)
(1.54999 -0.227719 1.14327e-19)
(1.48043 -0.109738 2.70943e-19)
(1.73513 -0.248512 3.66422e-19)
(1.65804 -0.154017 -1.34306e-20)
(1.80837 -0.169271 -3.48772e-19)
(1.90271 -0.240838 -2.50009e-19)
(0.754538 0.60732 -1.83233e-18)
(0.623317 0.643151 2.27688e-18)
(0.859399 0.664335 -3.60066e-19)
(1.00766 0.688958 -3.65193e-18)
(0.895582 0.583451 1.88816e-18)
(0.932036 0.685999 3.05558e-18)
(0.94851 0.481917 2.13987e-19)
(1.01172 0.582872 -1.01844e-18)
(1.02175 0.364669 2.44126e-19)
(1.05728 0.486443 1.04637e-18)
(1.12197 0.243245 1.17312e-19)
(1.13905 0.372521 -9.42879e-19)
(1.24918 0.130043 0)
(1.24293 0.26052 -1.09519e-18)
(1.39772 0.0354628 5.70446e-19)
(1.36981 0.158905 4.36904e-19)
(1.55789 -0.0343969 1.40555e-19)
(1.51385 0.0756043 6.40187e-19)
(1.71856 -0.079796 -6.6525e-19)
(1.66523 0.0148291 -1.0171e-18)
(1.80018 -0.0189089 5.83768e-19)
(1.87218 -0.102272 1.44904e-18)
(0.924281 0.651756 1.42755e-18)
(0.770802 0.645429 2.29397e-18)
(1.03494 0.740082 -6.97419e-19)
(1.1606 0.735032 -1.79003e-18)
(1.0673 0.682654 6.55217e-19)
(1.09527 0.760352 1.41414e-18)
(1.11068 0.602926 -4.00555e-19)
(1.16735 0.677456 -1.10599e-18)
(1.16802 0.506617 7.42628e-20)
(1.20239 0.601956 1.33989e-18)
(1.24531 0.402591 -2.13995e-18)
(1.26745 0.506045 -1.99738e-18)
(1.34432 0.299993 -8.04231e-19)
(1.34883 0.408117 -6.00462e-19)
(1.46275 0.207292 4.84399e-19)
(1.45 0.313824 8.81337e-20)
(1.59507 0.131073 -3.72792e-19)
(1.56791 0.230287 -5.18941e-19)
(1.73405 0.0744438 5.25705e-20)
(1.69673 0.162416 2.05398e-20)
(1.81435 0.117934 1.7177e-18)
(1.87462 0.0443829 -6.99662e-19)
(1.05012 0.65956 -1.34986e-19)
(0.869469 0.614493 -2.19566e-18)
(1.17841 0.78303 0)
(1.26982 0.758522 2.91737e-18)
(1.21139 0.748997 0)
(1.22272 0.808519 1.67674e-20)
(1.24978 0.689131 3.83139e-19)
(1.29547 0.743527 -9.22803e-19)
(1.29759 0.611449 -3.68786e-19)
(1.32653 0.686942 5.85913e-20)
(1.3605 0.523612 -5.97141e-19)
(1.38267 0.6072 -1.5409e-18)
(1.44068 0.432987 2.3473e-19)
(1.44997 0.523001 2.30897e-18)
(1.53747 0.346454 -8.3809e-19)
(1.53361 0.437895 -3.79383e-19)
(1.64765 0.27005 -1.67461e-19)
(1.63206 0.358005 -9.86698e-19)
(1.76564 0.207203 1.46354e-18)
(1.74232 0.287694 1.14438e-18)
(1.84319 0.237638 6.19744e-19)
(1.88493 0.159367 -1.62024e-18)
(1.125 0.672755 1.15655e-19)
(0.955737 0.618432 -3.8437e-18)
(1.28236 0.819179 3.07419e-18)
(1.3555 0.797362 4.6519e-18)
(1.3246 0.800281 -7.26701e-19)
(1.32617 0.854196 1.68584e-20)
(1.36488 0.754745 -1.34727e-18)
(1.40156 0.798198 3.8276e-19)
(1.40945 0.691861 -9.42779e-19)
(1.432 0.754842 -1.75139e-18)
(1.46453 0.617858 9.7379e-19)
(1.48427 0.687463 -5.37744e-20)
(1.53284 0.538636 1.97998e-18)
(1.54337 0.615072 2.6557e-18)
(1.61481 0.459627 -4.4787e-19)
(1.61569 0.538983 -7.04333e-19)
(1.70888 0.385942 1.39318e-19)
(1.70047 0.464421 9.46814e-19)
(1.81173 0.320962 3.38287e-19)
(1.7971 0.394895 3.33239e-19)
(1.88667 0.343189 -5.43235e-19)
(1.9201 0.268307 1.02048e-18)
(1.19446 0.694544 -5.56816e-19)
(1.03389 0.624974 -1.53983e-18)
(1.37012 0.856546 1.89502e-18)
(1.43587 0.832316 2.34855e-18)
(1.41854 0.846617 1.18023e-18)
(1.41801 0.896049 0)
(1.46164 0.81043 1.77123e-19)
(1.494 0.846837 8.89917e-19)
(1.50583 0.758138 -1.05744e-18)
(1.52388 0.81353 -1.71177e-18)
(1.55724 0.694906 1.34994e-18)
(1.57455 0.75515 1.56289e-18)
(1.61862 0.625358 3.13338e-19)
(1.62893 0.692233 -1.10767e-18)
(1.69099 0.55364 5.09742e-19)
(1.6942 0.623934 -1.27364e-18)
(1.77396 0.484089 1.2154e-18)
(1.76961 0.554963 9.70869e-19)
(1.86647 0.420238 -4.14926e-19)
(1.85685 0.487819 -3.88259e-19)
(1.93779 0.437529 -9.6438e-19)
(1.97101 0.372024 -5.21503e-19)
(1.2622 0.696932 6.09645e-19)
(1.06703 0.595204 3.94704e-19)
(1.45129 0.884005 7.08512e-19)
(1.49224 0.84874 2.24005e-18)
(1.5024 0.886401 -3.84327e-19)
(1.49302 0.929132 -1.01405e-18)
(1.54698 0.859484 -7.58591e-19)
(1.57383 0.889022 7.59639e-19)
(1.59115 0.815944 5.61912e-19)
(1.60506 0.865581 -3.08965e-19)
(1.64081 0.761267 -6.24936e-19)
(1.65611 0.814508 -4.22877e-19)
(1.6982 0.699584 -2.69055e-18)
(1.708 0.7594 -8.38044e-19)
(1.76444 0.63422 -1.06719e-18)
(1.769 0.697527 -5.76964e-19)
(1.83965 0.569028 -5.08582e-19)
(1.83781 0.633672 -4.06262e-20)
(1.92344 0.507228 -8.33638e-19)
(1.91816 0.568759 0)
(1.99223 0.520164 -5.18007e-19)
(2.01567 0.454041 1.69587e-18)
(1.29722 0.707333 1.67689e-18)
(1.11125 0.593608 1.61859e-18)
(1.5133 0.912515 7.57959e-19)
(1.54306 0.878991 1.46073e-18)
(1.57425 0.924467 -4.94693e-20)
(1.56052 0.965667 2.02094e-19)
(1.62291 0.904702 1.29716e-18)
(1.64536 0.930349 2.21982e-19)
(1.66847 0.868164 -1.27184e-18)
(1.67886 0.913881 9.10225e-19)
(1.71783 0.820315 -5.87896e-19)
(1.73137 0.868303 -1.44551e-18)
(1.77303 0.764983 1.26688e-18)
(1.78217 0.819497 -2.68391e-19)
(1.83529 0.70492 4.01686e-19)
(1.84067 0.762812 5.53317e-19)
(1.90507 0.643585 4.66608e-19)
(1.90472 0.703603 4.21945e-19)
(1.98286 0.583877 3.77459e-19)
(1.98021 0.640615 -1.00609e-20)
(2.04975 0.593063 2.97487e-20)
(2.07019 0.532079 7.88233e-19)
(1.33456 0.726018 1.41004e-18)
(1.16503 0.598537 1.40614e-18)
(1.56991 0.943992 9.25529e-19)
(1.59439 0.907222 1.10286e-20)
(1.63963 0.963015 5.29043e-19)
(1.62773 0.999613 9.69597e-19)
(1.69246 0.948333 -2.67071e-19)
(1.71312 0.970619 -1.16386e-18)
(1.74016 0.916862 1.0105e-18)
(1.74908 0.959048 5.97906e-20)
(1.79016 0.874279 -1.25229e-18)
(1.80279 0.917927 8.89525e-19)
(1.84422 0.823982 -1.07562e-18)
(1.85321 0.873894 -1.40348e-18)
(1.90377 0.768361 5.89172e-19)
(1.9101 0.821328 4.69552e-20)
(1.96968 0.710378 -8.99105e-21)
(1.97076 0.766314 7.18494e-19)
(2.04319 0.652567 -3.95404e-19)
(2.04249 0.705637 -8.12805e-19)
(2.11031 0.65958 3.61354e-19)
(2.1287 0.600705 -2.50647e-20)
(1.37998 0.731642 1.40715e-19)
(1.18923 0.585934 1.57539e-18)
(1.62631 0.966093 -4.5411e-20)
(1.62771 0.921129 -9.1285e-19)
(1.70329 0.996975 -4.36646e-19)
(1.68716 1.02569 6.84215e-19)
(1.75937 0.988825 -9.63427e-19)
(1.77586 1.00755 -1.08271e-18)
(1.80914 0.961902 -1.46629e-19)
(1.81695 1.00022 -5.60978e-19)
(1.86006 0.92354 9.80803e-19)
(1.87207 0.963378 1.90955e-18)
(1.91352 0.877106 -4.35346e-19)
(1.92261 0.922876 -6.28806e-19)
(1.97111 0.825208 9.9324e-20)
(1.97805 0.873712 -7.12594e-19)
(2.03404 0.770443 8.54564e-20)
(2.03607 0.822376 3.71892e-19)
(2.10371 0.715305 -2.16033e-19)
(2.10388 0.764665 -5.52953e-19)
(2.16972 0.719027 4.02668e-19)
(2.18271 0.663902 5.1882e-19)
(1.40617 0.738315 7.79244e-19)
(1.21996 0.580501 1.55751e-18)
(1.67165 0.984825 -3.43751e-19)
(1.65685 0.936175 -1.21127e-18)
(1.76198 1.02786 2.63237e-19)
(1.74303 1.05045 9.19266e-19)
(1.82383 1.02615 -7.33692e-19)
(1.83625 1.04265 -1.48895e-18)
(1.87666 1.00303 1.22576e-18)
(1.88406 1.03753 1.2113e-18)
(1.92866 0.967965 5.65279e-19)
(1.94037 1.00416 3.20177e-19)
(1.98144 0.924626 -8.97913e-19)
(1.99081 0.9662 -7.73498e-19)
(2.03711 0.876124 -5.6277e-19)
(2.04431 0.920284 3.05913e-21)
(2.09739 0.824625 -1.64771e-19)
(2.09998 0.872549 -4.02409e-20)
(2.16393 0.772106 -4.10406e-20)
(2.16423 0.818558 -8.70464e-20)
(2.22927 0.772994 -3.6867e-19)
(2.24016 0.721226 -3.07333e-19)
(1.42807 0.746821 -1.39258e-19)
(1.25488 0.576714 -2.50181e-20)
(1.71128 1.00213 -1.70823e-19)
(1.68424 0.948465 1.05991e-18)
(1.81784 1.05664 -5.33974e-19)
(1.79913 1.07109 -9.58338e-19)
(1.88738 1.06016 1.92713e-19)
(1.89804 1.07326 -5.0294e-19)
(1.94381 1.03944 4.10798e-19)
(1.95242 1.06876 1.53903e-18)
(1.9964 1.00674 -9.05206e-19)
(2.00831 1.03824 -6.07364e-19)
(2.04779 0.966297 4.37063e-20)
(2.05724 1.00279 -8.42034e-19)
(2.10118 0.921511 5.32568e-19)
(2.10792 0.961028 6.98801e-19)
(2.15907 0.873777 3.906e-20)
(2.1614 0.917763 -1.65403e-20)
(2.2234 0.824248 -3.8481e-19)
(2.22293 0.868837 -1.59424e-20)
(2.28931 0.823822 3.62935e-20)
(2.29675 0.772133 -9.68571e-20)
(1.4535 0.753175 1.05276e-18)
(1.29313 0.571055 3.98237e-21)
(1.75108 1.01259 4.45834e-19)
(1.70956 0.951499 -4.61498e-20)
(1.87497 1.07807 -9.72419e-19)
(1.85552 1.08005 -3.39978e-21)
(1.95244 1.08624 6.42507e-19)
(1.96144 1.09175 8.80088e-20)
(2.01119 1.06752 7.67505e-19)
(2.02079 1.08795 6.39663e-19)
(2.06248 1.03753 -5.20554e-19)
(2.07357 1.06153 9.1636e-20)
(2.11115 1.0013 -3.6227e-19)
(2.11911 1.03086 -7.00148e-19)
(2.16192 0.961776 2.28096e-19)
(2.16656 0.995864 2.21661e-19)
(2.21786 0.919184 -7.44787e-20)
(2.21854 0.959054 -1.50977e-19)
(2.2806 0.874129 4.02807e-19)
(2.27826 0.916746 3.33911e-19)
(2.34411 0.873492 1.37841e-19)
(2.34793 0.825683 -1.28779e-18)
(1.48102 0.753205 -1.06161e-18)
(1.33766 0.557992 -1.83156e-18)
(1.7905 1.00857 -5.15557e-19)
(1.73687 0.937965 -1.19596e-18)
(1.93227 1.08278 1.02697e-18)
(1.91055 1.06542 1.41065e-20)
(2.01673 1.09569 2.91347e-20)
(2.02144 1.08605 6.93534e-19)
(2.0752 1.08107 3.62401e-20)
(2.08174 1.0864 3.234e-20)
(2.12286 1.05701 0)
(2.12896 1.06914 0)
(2.16799 1.02869 -2.22364e-19)
(2.1706 1.04881 -1.38938e-19)
(2.21674 0.997453 -1.14154e-19)
(2.21637 1.02499 2.42653e-19)
(2.27186 0.962054 2.05131e-19)
(2.2689 0.99736 -9.35396e-20)
(2.33395 0.922356 9.01189e-20)
(2.32889 0.962938 2.37263e-20)
(2.39481 0.922447 -4.19849e-20)
(2.40193 0.878222 -1.72152e-19)
(1.52131 0.740882 -2.0127e-18)
(1.42133 0.524263 -1.89838e-18)
(1.83128 0.976035 -7.91433e-19)
(1.76576 0.879315 0)
(1.98635 1.05582 -4.28705e-19)
(1.95263 1.01176 1.35616e-19)
(2.07352 1.07607 7.6047e-19)
(2.06115 1.04381 -5.64e-20)
(2.12796 1.07234 0)
(2.11736 1.05704 -2.74059e-19)
(2.17069 1.06198 -1.22676e-19)
(2.16015 1.05852 3.99055e-19)
(2.21351 1.04803 2.83722e-19)
(2.20218 1.05645 -4.34423e-19)
(2.26269 1.02895 2.98546e-19)
(2.25188 1.04853 2.11631e-19)
(2.31929 1.0028 -2.88605e-19)
(2.3092 1.03268 -1.50747e-19)
(2.38279 0.969436 -1.02217e-19)
(2.37277 1.00779 1.15423e-19)
(2.44282 0.970321 -7.01941e-20)
(2.44228 0.92676 -1.66663e-18)
(1.50399 0.659669 -1.50683e-19)
(1.57472 0.39672 -3.88454e-18)
(1.81762 0.908329 8.68159e-19)
(1.75722 0.841491 0)
(1.97929 0.988242 5.65188e-19)
(1.95868 0.882778 9.40622e-19)
(2.071 1.02376 -1.03302e-18)
(2.05016 0.941726 -6.90611e-19)
(2.13085 1.0407 3.49072e-20)
(2.10695 0.989568 5.49575e-20)
(2.18027 1.05358 1.84868e-19)
(2.15193 1.02663 2.68744e-19)
(2.23285 1.05979 -5.66205e-19)
(2.20477 1.05296 -2.12338e-19)
(2.29164 1.05549 -1.95814e-19)
(2.26681 1.06469 -1.50853e-19)
(2.35527 1.04052 2.21325e-19)
(2.33324 1.0623 -8.73734e-20)
(2.42375 1.01682 1.52764e-19)
(2.40263 1.04931 -6.85101e-21)
(2.47646 1.02261 -1.70584e-19)
(2.49128 0.986335 5.43798e-20)
(2.10727 0.56409 -3.46857e-18)
(2.44701 -0.867493 -5.17677e-18)
(2.14364 0.646345 0)
(1.13228 0.097986 5.95579e-20)
(2.17297 0.782052 0)
(1.3196 0.267219 -1.04635e-19)
(2.17423 0.870495 2.72725e-19)
(1.53586 0.389871 -8.64741e-20)
(2.17085 0.952362 2.45919e-19)
(1.67791 0.530309 -2.77511e-19)
(2.19099 1.01863 -5.88344e-20)
(1.82376 0.658957 2.0447e-19)
(2.2375 1.05733 1.86672e-19)
(1.97373 0.769607 6.89342e-20)
(2.29956 1.07234 -4.8381e-20)
(2.10874 0.857759 2.71577e-19)
(2.36846 1.0717 -3.12461e-19)
(2.22555 0.921001 2.08616e-20)
(2.44229 1.06181 -3.15927e-19)
(2.32978 0.964236 -2.83925e-19)
(2.43411 0.999679 -2.09075e-19)
(2.51038 1.05298 -3.24067e-19)
(6.05056 -3.86029 -1.0747e-19)
(7.08072 -5.02096 9.13718e-18)
(5.41225 -3.87473 -1.04125e-18)
(6.04487 -1.94589 -8.16132e-18)
(5.02318 -3.35992 -4.36394e-19)
(6.03917 -2.54635 -4.5628e-19)
(4.51762 -2.69966 3.38858e-20)
(5.53465 -2.31275 -8.47749e-19)
(4.10115 -2.13575 1.89337e-19)
(4.85115 -1.93553 2.41121e-19)
(3.79501 -1.68291 2.03293e-19)
(4.33046 -1.60251 -2.86879e-19)
(3.56304 -1.33006 8.41206e-20)
(3.94495 -1.29758 3.42101e-19)
(3.3786 -1.05452 -8.10907e-20)
(3.65656 -1.0385 -3.18222e-19)
(3.22606 -0.840244 2.62406e-19)
(3.43125 -0.824536 3.71014e-19)
(3.09806 -0.673675 1.27496e-19)
(3.2513 -0.653207 -7.29601e-21)
(3.10584 -0.523774 2.61039e-19)
(2.97304 -0.534143 2.19296e-19)
(5.17223 -1.14822 -2.87642e-18)
(4.86666 -2.60827 5.6483e-18)
(5.97334 -1.51133 -5.63562e-18)
(5.04795 0.225714 -4.08105e-18)
(6.02704 -1.70753 1.79956e-19)
(6.22923 -0.771662 2.5903e-19)
(5.61323 -1.73378 -1.5804e-19)
(6.19806 -0.979028 -3.48103e-18)
(5.00853 -1.58595 -1.25843e-19)
(5.64681 -1.01642 2.56341e-18)
(4.47465 -1.33991 -1.23781e-19)
(5.02554 -1.00102 -3.16363e-19)
(4.04919 -1.08331 6.83021e-20)
(4.47936 -0.887505 1.87186e-19)
(3.72292 -0.856961 5.69503e-20)
(4.04524 -0.740007 2.12552e-19)
(3.46958 -0.67096 1.40155e-19)
(3.70946 -0.593214 -3.71137e-20)
(3.26843 -0.524889 9.13952e-20)
(3.44786 -0.465445 8.28386e-20)
(3.23916 -0.364501 2.70515e-20)
(3.07513 -0.411588 0)
(3.81449 0.00729204 8.66264e-19)
(2.99666 -1.39544 -1.7121e-17)
(5.22154 0.340716 1.07677e-18)
(3.73018 1.16331 2.42505e-17)
(5.84709 0.104952 -2.53749e-18)
(5.42645 0.611958 -8.30265e-18)
(5.89716 -0.277448 -8.86135e-19)
(5.86888 0.445066 -2.80085e-18)
(5.50954 -0.546772 2.72388e-18)
(5.75988 0.153842 4.99632e-18)
(4.97427 -0.648853 1.19517e-19)
(5.32784 -0.121795 -1.63668e-18)
(4.46532 -0.618193 3.51996e-19)
(4.81484 -0.252985 9.0432e-20)
(4.03789 -0.526448 2.46922e-19)
(4.33508 -0.284511 2.43837e-19)
(3.69832 -0.421126 -9.49908e-20)
(3.93299 -0.257435 -4.88126e-20)
(3.43258 -0.323646 5.08585e-20)
(3.61266 -0.207461 4.76121e-20)
(3.36174 -0.159829 2.49744e-20)
(3.19988 -0.23844 7.20045e-20)
(2.62316 0.178291 3.81932e-18)
(1.59809 -1.01885 -1.6101e-17)
(4.1775 1.13078 1.90277e-17)
(2.71897 1.21884 1.28577e-17)
(5.13385 1.25162 -9.02421e-18)
(4.44009 1.32925 -8.18933e-19)
(5.5452 0.965626 2.25983e-18)
(5.12333 1.44741 0)
(5.47016 0.563587 1.44184e-18)
(5.37303 1.14899 2.35733e-18)
(5.11608 0.219962 -1.8236e-18)
(5.20143 0.763995 -1.14958e-18)
(4.67204 0.0203016 -1.64314e-19)
(4.8528 0.465058 -1.38355e-19)
(4.23625 -0.0646214 3.80379e-20)
(4.44054 0.267641 -4.62938e-20)
(3.85977 -0.080671 6.2695e-20)
(4.04584 0.159281 -4.37963e-19)
(3.55484 -0.0655494 -2.02161e-20)
(3.70654 0.110817 4.83859e-19)
(3.43313 0.0908352 -1.84011e-19)
(3.26763 -0.0469557 -1.32418e-20)
(1.67993 -0.0533865 -8.2518e-18)
(0.584468 -1.06101 -4.91639e-18)
(3.22417 1.26376 -5.00612e-18)
(2.01888 0.963545 -9.88869e-18)
(4.31123 1.77336 8.04216e-18)
(3.61012 1.59188 6.06128e-19)
(4.91213 1.75004 -1.54227e-19)
(4.36206 1.99284 7.56115e-18)
(5.07003 1.42171 1.24889e-19)
(4.78937 1.81186 -3.97762e-18)
(4.9261 1.01603 3.95918e-19)
(4.80941 1.46334 8.0193e-19)
(4.62719 0.684909 -4.75163e-20)
(4.63967 1.1081 2.45273e-18)
(4.26531 0.456069 -5.13889e-19)
(4.34978 0.813413 -3.20585e-18)
(3.91196 0.317144 -3.03365e-19)
(4.02105 0.598697 8.78439e-19)
(3.60388 0.239656 3.82713e-19)
(3.70783 0.457302 -8.38331e-20)
(3.43574 0.372311 -5.35368e-20)
(3.3069 0.18111 4.32186e-19)
(0.95522 -0.329837 -6.01664e-18)
(-0.106281 -1.25883 -1.22709e-18)
(2.45096 1.17766 -5.97397e-18)
(1.47712 0.669331 -3.50082e-18)
(3.56712 1.94476 -1.06293e-19)
(2.92385 1.63732 -8.57994e-19)
(4.24322 2.15261 4.80977e-18)
(3.70193 2.23991 1.13289e-18)
(4.52837 1.96252 -3.79922e-18)
(4.19706 2.19539 -1.5668e-18)
(4.54084 1.60783 2.69758e-18)
(4.32368 1.9366 -3.65094e-18)
(4.38747 1.24949 -5.62937e-20)
(4.2872 1.59943 4.31297e-18)
(4.13349 0.946158 -2.36737e-18)
(4.11587 1.27584 -3.6783e-18)
(3.8444 0.719082 1.13324e-18)
(3.87524 1.00245 2.2583e-18)
(3.56803 0.559335 -5.15872e-19)
(3.61501 0.792652 -1.54026e-19)
(3.36822 0.652758 -3.13581e-19)
(3.27059 0.423042 -2.78264e-19)
(0.415039 -0.58508 1.92158e-18)
(-0.587302 -1.49501 1.2564e-17)
(1.84057 1.02885 1.33528e-18)
(1.02802 0.399914 -5.81644e-18)
(2.93919 1.96321 2.87263e-19)
(2.34353 1.58512 4.77852e-18)
(3.63572 2.33422 -5.23689e-18)
(3.13904 2.32422 -3.40472e-18)
(3.9799 2.26677 -1.20012e-18)
(3.65384 2.3961 2.14556e-18)
(4.08725 1.99507 -2.65779e-18)
(3.836 2.22792 -4.05341e-18)
(4.043 1.66727 1.62305e-18)
(3.88518 1.93884 1.89788e-18)
(3.89028 1.34839 1.42289e-19)
(3.80492 1.62812 -5.40528e-19)
(3.67829 1.07667 1.35637e-18)
(3.64688 1.33659 1.83417e-19)
(3.45241 0.862429 6.44923e-20)
(3.44898 1.08773 1.43128e-18)
(3.23951 0.895006 4.69194e-19)
(3.20692 0.671709 5.83565e-19)
(0.0100935 -0.812861 7.4437e-18)
(-0.910595 -1.70877 7.54394e-18)
(1.36193 0.86446 -3.49587e-18)
(0.658945 0.17134 -6.99554e-18)
(2.42218 1.91514 1.66898e-18)
(1.85898 1.49139 5.16958e-20)
(3.11219 2.40033 3.40213e-18)
(2.66027 2.32192 6.15739e-18)
(3.47729 2.42505 -1.16563e-19)
(3.16887 2.48421 -2.21146e-19)
(3.63634 2.23025 0)
(3.37854 2.39265 -2.71226e-18)
(3.66332 1.95055 0)
(3.4804 2.15674 3.8804e-18)
(3.58914 1.64849 -6.14538e-19)
(3.46458 1.87652 -1.64573e-19)
(3.44825 1.3662 8.51237e-20)
(3.37401 1.59153 -1.44225e-18)
(3.27388 1.1257 1.90254e-18)
(3.23733 1.33054 2.00416e-19)
(3.07826 1.11294 9.86213e-19)
(3.05626 0.906002 -3.01827e-19)
(-0.304683 -1.00147 -5.19714e-18)
(-1.14062 -1.8853 -8.09453e-20)
(0.972119 0.702484 -3.90679e-18)
(0.342674 -0.0201338 -7.16968e-18)
(1.98783 1.8326 3.98728e-18)
(1.44656 1.37783 8.06346e-18)
(2.66094 2.39957 3.19334e-18)
(2.24631 2.26958 -2.11496e-18)
(3.02831 2.49385 -2.53115e-18)
(2.73808 2.50172 3.50133e-18)
(3.21376 2.36263 5.12652e-19)
(2.96027 2.47112 -4.09585e-18)
(3.2855 2.13028 4.1038e-18)
(3.09303 2.28351 3.05276e-18)
(3.26784 1.85651 -8.51763e-19)
(3.12146 2.0387 -2.50779e-18)
(3.18585 1.5825 -1.54123e-18)
(3.08306 1.77202 2.05992e-20)
(3.06604 1.3315 -9.23694e-19)
(2.99661 1.51249 -8.64409e-19)
(2.88002 1.28887 5.90249e-19)
(2.88935 1.08014 5.3632e-20)
(-0.563045 -1.14902 -1.44351e-18)
(-1.31125 -2.01774 2.98132e-18)
(0.64064 0.550543 3.80195e-18)
(0.0544766 -0.190013 -5.62511e-18)
(1.61088 1.73016 3.05682e-18)
(1.08434 1.24915 7.7128e-18)
(2.2646 2.35563 -2.36975e-18)
(1.87764 2.18369 -8.43296e-18)
(2.62727 2.50345 2.69768e-18)
(2.35086 2.47247 4.46931e-18)
(2.82532 2.42267 -2.27359e-18)
(2.57971 2.48934 -4.68375e-18)
(2.92466 2.2323 -2.9855e-18)
(2.73031 2.34335 1.69768e-18)
(2.94712 1.99025 -1.88878e-18)
(2.78942 2.13286 -1.72928e-19)
(2.91107 1.73352 7.94142e-19)
(2.79064 1.88885 9.81312e-20)
(2.83611 1.48666 4.15688e-19)
(2.74637 1.63913 -2.43728e-18)
(2.66784 1.4117 1.05762e-18)
(2.70839 1.22607 2.47881e-19)
(-0.787104 -1.28552 -3.84224e-19)
(-1.48085 -2.14287 -3.09153e-19)
(0.339017 0.389167 -2.85222e-18)
(-0.222832 -0.358057 -3.20731e-18)
(1.26537 1.60446 -2.15822e-18)
(0.755192 1.09961 1.66289e-20)
(1.90233 2.27662 -2.85247e-18)
(1.5359 2.06752 -2.25294e-18)
(2.26168 2.46994 -2.03183e-18)
(1.99492 2.40638 1.56554e-18)
(2.46773 2.43073 -1.39115e-18)
(2.23045 2.46276 -2.33891e-18)
(2.58538 2.27609 4.67825e-18)
(2.3925 2.35261 1.86515e-18)
(2.63689 2.06339 1.753e-18)
(2.47418 2.17269 1.09236e-18)
(2.63662 1.82636 -2.81393e-18)
(2.50614 1.9519 5.80853e-19)
(2.59885 1.58985 -2.17435e-18)
(2.49722 1.71697 -8.54927e-19)
(2.45713 1.49696 5.2778e-19)
(2.51269 1.34435 -5.21706e-20)
(-0.990472 -1.42004 -2.75238e-18)
(-1.63211 -2.24954 -3.65652e-18)
(0.0614651 0.226183 -6.57317e-19)
(-0.473021 -0.512538 2.10605e-18)
(0.945939 1.46197 1.60996e-19)
(0.457472 0.937179 -1.36825e-19)
(1.56701 2.16934 1.82973e-18)
(1.21421 1.9268 1.07811e-18)
(1.92463 2.40236 1.63206e-18)
(1.66328 2.30935 1.41569e-18)
(2.13717 2.3986 4.83148e-19)
(1.90659 2.40004 3.18008e-21)
(2.26841 2.27461 -1.63405e-18)
(2.07729 2.32124 5.9357e-19)
(2.34225 2.08821 -2.31704e-20)
(2.17693 2.16801 -9.93567e-19)
(2.37121 1.87103 2.66003e-18)
(2.23395 1.96908 1.26579e-19)
(2.36686 1.64793 1.62405e-18)
(2.25529 1.75031 7.64801e-19)
(2.25113 1.53892 4.0969e-19)
(2.32765 1.42061 -6.72367e-19)
(-1.18026 -1.53883 5.43608e-19)
(-1.75571 -2.34206 -1.70297e-18)
(-0.198398 0.0665303 2.85938e-18)
(-0.703833 -0.664295 1.6427e-19)
(0.64529 1.3014 6.57489e-19)
(0.175365 0.754985 -2.21202e-18)
(1.25073 2.03492 6.25728e-19)
(0.904406 1.76018 1.01662e-19)
(1.6089 2.30429 -1.07338e-19)
(1.34826 2.18284 1.92726e-18)
(1.82842 2.33237 5.00251e-20)
(1.60185 2.30567 -1.75805e-18)
(1.97152 2.2353 1.4037e-18)
(1.78102 2.25532 7.50996e-19)
(2.06423 2.07224 -9.56387e-19)
(1.89679 2.12544 -6.78181e-19)
(2.11855 1.874 -1.81411e-18)
(1.97589 1.94642 -4.63965e-20)
(2.14373 1.66539 -4.0076e-19)
(2.02425 1.7443 -7.01916e-19)
(2.0554 1.54065 -2.59072e-19)
(2.14088 1.44814 1.02474e-18)
(-1.35704 -1.6583 -2.33716e-18)
(-1.86555 -2.44981 -2.47202e-18)
(-0.446319 -0.109904 -4.6849e-18)
(-0.92711 -0.829004 -1.59211e-18)
(0.352783 1.11229 -2.98361e-18)
(-0.100005 0.548803 -1.77123e-18)
(0.944967 1.86877 1.24367e-18)
(0.600529 1.56029 -1.32433e-18)
(1.30646 2.17573 6.6232e-19)
(1.04415 2.0255 2.32788e-18)
(1.53527 2.23462 -1.32107e-18)
(1.30973 2.18039 -1.11268e-18)
(1.69094 2.16228 -1.17806e-18)
(1.49919 2.15729 -2.14728e-19)
(1.80163 2.02018 1.49489e-19)
(1.63148 2.04864 -1.25827e-18)
(1.87965 1.83974 1.13268e-18)
(1.73197 1.88791 1.64343e-18)
(1.93246 1.64546 -5.91283e-19)
(1.80557 1.70255 -2.70287e-19)
(1.86849 1.51064 -4.93824e-19)
(1.96784 1.45465 -3.87629e-19)
(-1.52622 -1.77983 -1.74321e-18)
(-1.95821 -2.54599 -3.5523e-18)
(-0.684364 -0.297848 1.37098e-18)
(-1.14087 -0.99526 1.46316e-18)
(0.068468 0.899266 -1.31078e-19)
(-0.368006 0.325506 1.14965e-18)
(0.644801 1.67405 -5.54401e-19)
(0.303095 1.33256 -1.27026e-18)
(1.01265 2.017 9.12645e-19)
(0.745863 1.83451 1.97274e-18)
(1.25333 2.1059 -1.02004e-19)
(1.02422 2.02234 -5.21857e-19)
(1.42336 2.05724 -1.84498e-19)
(1.22718 2.02674 6.20055e-19)
(1.55283 1.93457 -9.6401e-20)
(1.37799 1.93832 -4.63485e-19)
(1.65448 1.77147 4.70542e-19)
(1.50133 1.79539 8.05896e-19)
(1.73408 1.59345 -1.75889e-19)
(1.60135 1.62775 -5.09938e-20)
(1.69732 1.45459 1.8778e-19)
(1.79533 1.4238 2.55559e-19)
(-1.6868 -1.90069 -7.14804e-19)
(-2.04371 -2.63763 -1.74023e-18)
(-0.915169 -0.498259 1.30819e-18)
(-1.35128 -1.16795 9.40702e-19)
(-0.210967 0.660969 2.57234e-19)
(-0.633897 0.0803393 -3.36731e-21)
(0.348574 1.44586 9.54419e-19)
(0.00429938 1.07113 -5.52645e-21)
(0.723254 1.82315 7.86688e-19)
(0.445475 1.60532 8.73908e-19)
(0.976834 1.94374 7.53268e-20)
(0.738663 1.82906 -8.30017e-19)
(1.1641 1.91887 4.56801e-19)
(0.958624 1.8605 6.00874e-19)
(1.31528 1.81528 2.88281e-19)
(1.13198 1.79219 1.82317e-19)
(1.44282 1.67002 3.88368e-19)
(1.28187 1.668 3.89043e-20)
(1.55173 1.50935 2.76115e-19)
(1.41084 1.51934 3.30681e-19)
(1.54147 1.36009 -9.56029e-20)
(1.65726 1.37295 3.00316e-20)
(-1.84376 -2.02621 -2.58275e-19)
(-2.12669 -2.73563 -1.71143e-18)
(-1.14424 -0.715967 -2.70627e-19)
(-1.56202 -1.35521 -2.76463e-19)
(-0.492882 0.392732 -2.65197e-19)
(-0.902617 -0.192159 -2.49642e-20)
(0.045463 1.17993 -1.75485e-19)
(-0.30301 0.770908 -5.32975e-19)
(0.424993 1.59022 -5.73047e-19)
(0.133996 1.33239 5.26889e-20)
(0.696512 1.74258 -4.52779e-19)
(0.44291 1.5891 -3.94715e-19)
(0.906826 1.74214 3.73164e-19)
(0.684917 1.64911 1.01975e-19)
(1.0852 1.65912 -4.17151e-20)
(0.887708 1.6035 1.14791e-19)
(1.24276 1.53419 -5.2013e-20)
(1.07035 1.50196 2.63452e-20)
(1.38172 1.39324 -5.60604e-21)
(1.23171 1.37744 9.34857e-20)
(1.40044 1.24114 -1.32514e-19)
(1.50766 1.26093 -3.85517e-19)
(-2.00094 -2.16243 -1.86188e-18)
(-2.20923 -2.84075 -1.48146e-18)
(-1.37503 -0.954296 -5.77504e-20)
(-1.77511 -1.55814 9.52517e-19)
(-0.782021 0.0905455 -2.40511e-19)
(-1.17866 -0.493256 -6.6124e-20)
(-0.271082 0.869123 -3.44144e-19)
(-0.626463 0.426108 -1.2029e-18)
(0.1118 1.30662 2.90097e-19)
(-0.2002 1.0027 4.97738e-19)
(0.403531 1.49012 1.09972e-19)
(0.124539 1.28802 5.33431e-19)
(0.643912 1.51666 -1.59612e-19)
(0.396026 1.37713 -3.50889e-19)
(0.857502 1.45888 1.87898e-19)
(0.638063 1.35957 1.06008e-20)
(1.05092 1.36063 1.87116e-19)
(0.861945 1.28938 1.95e-19)
(1.2227 1.24678 -2.7082e-20)
(1.06089 1.19858 -5.73496e-20)
(1.27173 1.0964 1.26055e-20)
(1.37709 1.15734 -1.23784e-22)
(-2.16107 -2.31416 1.05874e-18)
(-2.29398 -2.95699 1.43345e-18)
(-1.61192 -1.21613 1.10135e-18)
(-1.99502 -1.77587 1.04779e-18)