/*--------------------------------*- C++ -*----------------------------------*\
| =========                 |                                                 |
| \\      /  F ield         | OpenFOAM: The Open Source CFD Toolbox           |
|  \\    /   O peration     | Version:  3.0.1                                 |
|   \\  /    A nd           | Web:      www.OpenFOAM.org                      |
|    \\/     M anipulation  |                                                 |
\*---------------------------------------------------------------------------*/
FoamFile
{
    version     2.0;
    format      ascii;
    class       volScalarField;
    location    "0.35217";
    object      nut;
}
// * * * * * * * * * * * * * * * * * * * * * * * * * * * * * * * * * * * * * //

dimensions      [0 2 -1 0 0 0 0];

internalField   nonuniform List<scalar> 
21246
(
2.54178e-05
5.21813e-05
4.66314e-05
4.44858e-05
3.73264e-05
3.08742e-05
2.73039e-05
2.5441e-05
2.43737e-05
2.36998e-05
2.32579e-05
2.22059e-05
5.76914e-05
3.981e-05
4.80398e-05
3.94258e-05
3.17682e-05
2.71305e-05
2.47235e-05
2.33754e-05
2.2576e-05
2.21566e-05
2.29513e-05
5.4496e-05
3.54309e-05
5.0422e-05
4.08562e-05
3.28898e-05
2.72233e-05
2.42885e-05
2.26627e-05
2.17441e-05
2.13358e-05
2.5305e-05
5.06651e-05
3.55321e-05
4.99172e-05
4.1532e-05
3.39199e-05
2.73762e-05
2.4009e-05
2.21351e-05
2.11269e-05
2.08024e-05
2.78692e-05
4.88505e-05
3.59598e-05
4.77691e-05
4.21907e-05
3.47844e-05
2.7551e-05
2.38407e-05
2.17338e-05
2.06135e-05
2.02639e-05
2.99523e-05
4.85627e-05
3.63041e-05
4.40426e-05
4.28419e-05
3.55941e-05
2.78356e-05
2.37929e-05
2.14474e-05
2.01849e-05
1.97499e-05
3.15384e-05
4.95719e-05
3.69019e-05
3.9955e-05
4.0986e-05
3.63802e-05
2.83286e-05
2.38904e-05
2.12852e-05
1.9847e-05
1.92877e-05
3.26686e-05
5.18787e-05
3.81035e-05
3.70366e-05
3.76279e-05
3.62885e-05
2.91406e-05
2.41746e-05
2.12664e-05
1.96155e-05
1.88707e-05
3.3161e-05
5.52651e-05
4.01045e-05
3.53727e-05
3.4067e-05
3.46064e-05
2.98045e-05
2.47441e-05
2.1472e-05
1.95338e-05
1.85394e-05
3.29577e-05
5.93298e-05
4.31614e-05
3.48943e-05
3.10074e-05
3.13337e-05
2.95349e-05
2.54038e-05
2.19046e-05
1.96498e-05
1.83656e-05
3.22343e-05
6.42836e-05
4.75575e-05
3.58838e-05
2.92899e-05
2.78648e-05
2.77541e-05
2.56637e-05
2.24985e-05
1.99778e-05
1.83858e-05
3.10797e-05
7.06498e-05
5.35259e-05
3.84627e-05
2.917e-05
2.55357e-05
2.51661e-05
2.4936e-05
2.29808e-05
2.04942e-05
1.8626e-05
2.96395e-05
7.82802e-05
6.14539e-05
4.28046e-05
3.05515e-05
2.45758e-05
2.2815e-05
2.3137e-05
2.28499e-05
2.10464e-05
1.90852e-05
2.82486e-05
8.68866e-05
7.18587e-05
4.94135e-05
3.36367e-05
2.50517e-05
2.14007e-05
2.09403e-05
2.1676e-05
2.1236e-05
1.96677e-05
2.72596e-05
9.78529e-05
8.54994e-05
5.88644e-05
3.8761e-05
2.71307e-05
2.1337e-05
1.93695e-05
1.98266e-05
2.05812e-05
2.00628e-05
2.70423e-05
0.000111658
0.000103451
7.22899e-05
4.66433e-05
3.11185e-05
2.27687e-05
1.89476e-05
1.81923e-05
1.90851e-05
1.97688e-05
2.74013e-05
0.000127138
0.00012636
9.14606e-05
5.87154e-05
3.7842e-05
2.60916e-05
1.99893e-05
1.7525e-05
1.74728e-05
1.85502e-05
2.76286e-05
0.000143159
0.000153716
0.000118075
7.69954e-05
4.87306e-05
3.2169e-05
2.30094e-05
1.8389e-05
1.6728e-05
1.70351e-05
2.70823e-05
0.000156973
0.000182264
0.000152582
0.000104198
6.6298e-05
4.27549e-05
2.91132e-05
2.15175e-05
1.76862e-05
1.63824e-05
2.53953e-05
0.00016514
0.000206318
0.000191402
0.000142103
9.41787e-05
6.11091e-05
4.06956e-05
2.85355e-05
2.15274e-05
1.78564e-05
2.24792e-05
0.000161921
0.000219439
0.000225856
0.000188304
0.000135999
9.25983e-05
6.26088e-05
4.31758e-05
3.09403e-05
2.34836e-05
1.94567e-05
0.000152072
0.000221912
0.000247145
0.000232065
0.00018974
0.000142349
0.000102492
7.28578e-05
5.21303e-05
3.80725e-05
1.46288e-05
0.000118275
0.000169388
0.000206978
0.000220971
0.000213136
0.000187355
0.00015338
0.000119971
9.1699e-05
6.92979e-05
1.12362e-05
5.62158e-05
7.62757e-05
0.000100162
0.000121477
0.000138559
0.000146601
0.000143631
0.000132139
0.000116207
9.84272e-05
2.07001e-05
4.75771e-05
4.39204e-05
4.23468e-05
3.62327e-05
3.09777e-05
2.81183e-05
2.66234e-05
2.58026e-05
2.53493e-05
2.51388e-05
1.54901e-05
4.15197e-05
4.66357e-05
4.55055e-05
3.91044e-05
3.33631e-05
3.00933e-05
2.8417e-05
2.75639e-05
2.71658e-05
2.70671e-05
1.62398e-05
4.03884e-05
4.49028e-05
5.13222e-05
4.49799e-05
3.82303e-05
3.38507e-05
3.15636e-05
3.04378e-05
2.9984e-05
2.99894e-05
1.87634e-05
3.8442e-05
4.42584e-05
5.52516e-05
5.01454e-05
4.45843e-05
4.04501e-05
3.81104e-05
3.68725e-05
3.62242e-05
3.59633e-05
2.18414e-05
3.58059e-05
4.4861e-05
5.80402e-05
5.43454e-05
4.9564e-05
4.52068e-05
4.26524e-05
4.12805e-05
4.06315e-05
4.04619e-05
2.48893e-05
3.37064e-05
4.58208e-05
5.97456e-05
5.75235e-05
5.36912e-05
4.94869e-05
4.72445e-05
4.63364e-05
4.63868e-05
4.71241e-05
2.78009e-05
3.22769e-05
4.67273e-05
6.09141e-05
6.01369e-05
5.7303e-05
5.34913e-05
5.19305e-05
5.18871e-05
5.3124e-05
5.53541e-05
3.05712e-05
3.13377e-05
4.75005e-05
6.19294e-05
6.25569e-05
6.05766e-05
5.73272e-05
5.6602e-05
5.76658e-05
6.05004e-05
6.49956e-05
3.30441e-05
3.07324e-05
4.81767e-05
6.30285e-05
6.50663e-05
6.36421e-05
6.10179e-05
6.10633e-05
6.31051e-05
6.71306e-05
7.26096e-05
3.52029e-05
3.03533e-05
4.88572e-05
6.42257e-05
6.76728e-05
6.66355e-05
6.4568e-05
6.52095e-05
6.80015e-05
7.29475e-05
7.95498e-05
3.70301e-05
3.01131e-05
4.94792e-05
6.55858e-05
7.03428e-05
6.96404e-05
6.79811e-05
6.89988e-05
7.22835e-05
7.78985e-05
8.56473e-05
3.8588e-05
2.99342e-05
5.00074e-05
6.70348e-05
7.30709e-05
7.26888e-05
7.12807e-05
7.24475e-05
7.59513e-05
8.19069e-05
9.03444e-05
3.97549e-05
2.95488e-05
5.0375e-05
6.84909e-05
7.58989e-05
7.58243e-05
7.45302e-05
7.56095e-05
7.90665e-05
8.50154e-05
9.36502e-05
4.04261e-05
2.83297e-05
4.82168e-05
6.81664e-05
7.77072e-05
7.86501e-05
7.7725e-05
7.86105e-05
8.18397e-05
8.75205e-05
9.59337e-05
4.05398e-05
2.70647e-05
4.43247e-05
6.55879e-05
7.7776e-05
8.06403e-05
8.06679e-05
8.15047e-05
8.44451e-05
8.96987e-05
9.76193e-05
4.00546e-05
2.58385e-05
3.92575e-05
6.03058e-05
7.5276e-05
8.09816e-05
8.28304e-05
8.41184e-05
8.69043e-05
9.16948e-05
9.89747e-05
3.89536e-05
2.47296e-05
3.38227e-05
5.24667e-05
6.92886e-05
7.83783e-05
8.30526e-05
8.57513e-05
8.89207e-05
9.34976e-05
0.000100205
3.71506e-05
2.37629e-05
2.89173e-05
4.34009e-05
5.9784e-05
7.15416e-05
7.94779e-05
8.47004e-05
8.92925e-05
9.44218e-05
0.000101027
3.45757e-05
2.28204e-05
2.48942e-05
3.47084e-05
4.8167e-05
6.03282e-05
7.04018e-05
7.8314e-05
8.52027e-05
9.19997e-05
9.95614e-05
3.11954e-05
2.16977e-05
2.17155e-05
2.74199e-05
3.6687e-05
4.66717e-05
5.63103e-05
6.50995e-05
7.33994e-05
8.17551e-05
9.07445e-05
2.69717e-05
2.01113e-05
1.91137e-05
2.18072e-05
2.71175e-05
3.36554e-05
4.06848e-05
4.77832e-05
5.49608e-05
6.2482e-05
7.07122e-05
2.18937e-05
1.76986e-05
1.66206e-05
1.75221e-05
1.99631e-05
2.3357e-05
2.73286e-05
3.16341e-05
3.6194e-05
4.1067e-05
4.64054e-05
1.59994e-05
1.38735e-05
1.33227e-05
1.35097e-05
1.43432e-05
1.56605e-05
1.73398e-05
1.93014e-05
2.1504e-05
2.39476e-05
2.66526e-05
9.65297e-06
9.81497e-06
1.0884e-05
1.20429e-05
1.32339e-05
1.437e-05
1.63489e-05
1.97593e-05
2.46293e-05
3.07673e-05
3.75022e-05
4.71071e-05
0.00029213
0.00044934
0.000583616
0.000648077
0.000673011
0.000688521
0.000698722
0.000700718
0.000694755
0.000685876
3.58918e-05
0.000158889
0.00027084
0.000390892
0.000493965
0.000574103
0.000653265
0.000691711
0.000701257
0.000697083
0.000690663
3.09356e-05
0.000106915
0.000202094
0.000297979
0.00038797
0.000461232
0.000530399
0.000621799
0.000683821
0.000689283
0.0006877
2.73266e-05
8.8197e-05
0.000165323
0.00024658
0.000325552
0.000390843
0.000441928
0.000506481
0.000601041
0.000663095
0.000674184
2.31708e-05
8.21541e-05
0.000145689
0.000215342
0.000285284
0.00034484
0.000387037
0.000425377
0.000489251
0.000581484
0.000639352
1.88528e-05
8.30022e-05
0.000136788
0.000196143
0.000257986
0.000312742
0.000351282
0.000376665
0.000408008
0.00047454
0.000565491
1.79669e-05
9.39339e-05
0.00014007
0.000188194
0.000240998
0.000290652
0.000327381
0.000348173
0.000361771
0.00039302
0.000466658
1.86016e-05
0.000116945
0.000157158
0.000192883
0.000234664
0.000277407
0.00031185
0.000331559
0.00033802
0.000346487
0.000383695
1.79981e-05
0.000135056
0.000178546
0.000207219
0.000238137
0.000272185
0.000302723
0.000321896
0.000326432
0.000323544
0.000332227
1.67565e-05
0.000133797
0.000192655
0.000223363
0.000247727
0.000273187
0.000298508
0.000316434
0.000320888
0.000313222
0.00030486
1.5761e-05
0.000128028
0.000196802
0.000232825
0.000257545
0.000277439
0.00029761
0.000313493
0.000317974
0.000308525
0.000290737
1.50308e-05
0.000120949
0.000188009
0.000231005
0.000262214
0.000281376
0.000297868
0.000311437
0.000315371
0.000304983
0.000282025
1.42621e-05
0.000114896
0.000176036
0.000219597
0.000257905
0.000281473
0.000296633
0.000308282
0.000311087
0.000299626
0.000273653
1.33367e-05
0.000108202
0.000164073
0.000205259
0.000243496
0.000275073
0.000291402
0.000302049
0.000303556
0.00029089
0.000263024
1.22889e-05
0.000100937
0.000152567
0.000191074
0.000226599
0.000260392
0.000281042
0.000291861
0.000292587
0.000279253
0.000251139
1.12166e-05
9.27307e-05
0.000141771
0.000178544
0.000210612
0.000241935
0.000266943
0.000279593
0.000281325
0.000269302
0.000243006
1.01516e-05
8.37736e-05
0.000130966
0.000167708
0.000197581
0.000226282
0.000254217
0.000272037
0.00027887
0.000272053
0.000249633
9.13693e-06
7.4758e-05
0.000119982
0.000158225
0.00018891
0.000218589
0.00025245
0.000281649
0.000300949
0.000304963
0.000287781
8.18953e-06
6.65442e-05
0.000110313
0.00015138
0.000186376
0.000222545
0.000267506
0.000311008
0.000344071
0.000358947
0.000344617
7.49556e-06
6.21366e-05
0.00010686
0.000150298
0.000186531
0.000221392
0.000259263
0.00028931
0.000309487
0.000322084
0.000316944
7.44545e-06
5.85486e-05
0.000101827
0.000136353
0.000155879
0.000167645
0.00017884
0.000187229
0.00019751
0.000210904
0.000218604
6.92219e-06
4.97667e-05
7.91371e-05
9.46572e-05
0.000100557
0.000111047
0.000129545
0.000155775
0.000187695
0.000219843
0.000242086
5.37254e-06
2.84086e-05
3.86783e-05
5.27527e-05
7.66427e-05
0.000109411
0.000148606
0.000191607
0.00023425
0.000271615
0.000295768
4.98277e-06
1.51161e-05
3.71742e-05
7.2096e-05
0.000117669
0.000170648
0.000225336
0.00027515
0.000314304
0.000338238
0.000344667
4.40331e-05
0.000329587
0.000521437
0.00062273
0.000664927
0.000678089
0.000684793
0.000691112
0.000691305
0.000683982
0.000672405
2.80469e-05
0.000255234
0.000473099
0.000616636
0.000678339
0.000690027
0.000685297
0.000682085
0.000678339
0.000670082
0.000660421
2.54308e-05
0.000212235
0.000433499
0.000614083
0.000702266
0.00071581
0.000696823
0.000677493
0.000663878
0.000650821
0.000640272
2.57076e-05
0.000191733
0.000412174
0.000619948
0.00073607
0.000758291
0.000727369
0.000687045
0.000655726
0.000631268
0.000614747
2.6566e-05
0.000179484
0.000394571
0.000614404
0.000762269
0.00081007
0.000781033
0.000723417
0.00066765
0.000619786
0.000583798
2.68826e-05
0.000168101
0.000375899
0.000593596
0.000756545
0.000832761
0.000829702
0.000777788
0.000704992
0.000626633
0.000557106
2.62931e-05
0.000153685
0.000350585
0.000559959
0.000728859
0.000826344
0.000852141
0.000824957
0.000764717
0.000680234
0.000579676
2.49255e-05
0.00013552
0.000318364
0.000514744
0.000682673
0.000795126
0.000848181
0.000851738
0.000819251
0.000753059
0.000646901
2.28986e-05
0.000119502
0.000282559
0.000461563
0.000623486
0.000744469
0.000819294
0.000851641
0.000851295
0.000817809
0.000729889
2.06765e-05
0.000109718
0.000254204
0.00041187
0.000560076
0.000682597
0.00077244
0.000826264
0.000853365
0.000856796
0.000808585
1.88343e-05
0.000105482
0.000234574
0.000373452
0.000506917
0.000624137
0.000717972
0.000783013
0.000826769
0.000860039
0.000862882
1.77431e-05
0.000104771
0.000222302
0.000347014
0.000468353
0.000578557
0.000670271
0.000736857
0.000781833
0.000824507
0.000869088
1.72731e-05
0.000105095
0.000214265
0.000329789
0.000443047
0.00054706
0.000634047
0.000697114
0.000736397
0.000770294
0.000824672
1.71231e-05
0.00010536
0.000208721
0.000318591
0.000426803
0.000526211
0.000608228
0.000665966
0.000697478
0.000716815
0.000757365
1.70099e-05
0.000106081
0.000205504
0.000311298
0.000415632
0.000511243
0.00058869
0.000641132
0.000665753
0.000671223
0.000688949
1.67645e-05
0.000106474
0.000203344
0.000305696
0.000406174
0.0004977
0.000570492
0.000618154
0.000638171
0.000633854
0.000630469
1.6312e-05
0.000105872
0.000201326
0.00030063
0.000396908
0.000483336
0.000550405
0.000593108
0.000610648
0.000601831
0.000583626
1.56009e-05
0.000104359
0.000199344
0.000295882
0.000387624
0.000467908
0.000527693
0.000564236
0.00057998
0.000571342
0.000544939
1.4622e-05
0.000101709
0.000196399
0.000290026
0.000377177
0.000451271
0.000503219
0.000532326
0.000545476
0.000539414
0.000512696
1.33235e-05
9.65859e-05
0.000189591
0.000279927
0.000363231
0.00043287
0.000478596
0.000500039
0.000508638
0.000504342
0.000479868
1.15916e-05
8.70059e-05
0.000175976
0.000262727
0.000344101
0.000412511
0.000455548
0.00047097
0.000473513
0.00046812
0.000447763
9.47535e-06
7.40201e-05
0.000153312
0.000236985
0.000319281
0.000389744
0.000433936
0.000446867
0.000443727
0.000434991
0.000417046
6.70602e-06
4.85569e-05
0.000120624
0.000203688
0.000288561
0.000361459
0.000408934
0.000424718
0.00042008
0.00040825
0.000390843
4.4583e-06
4.96938e-05
0.000111285
0.000186309
0.000257459
0.000320063
0.000366406
0.000390322
0.000394343
0.000386545
0.000371803
5.36079e-05
0.000329135
0.000453009
0.000502654
0.00051693
0.000523308
0.000529544
0.000531972
0.0005226
0.000492926
0.000438962
3.64559e-05
0.000272621
0.000435669
0.000506314
0.000525972
0.000528136
0.000526848
0.000523283
0.000512425
0.00048509
0.000435176
2.95708e-05
0.00024024
0.000412856
0.000506383
0.000538136
0.000542238
0.000538227
0.000530439
0.000516357
0.000488533
0.00043937
2.80506e-05
0.000217349
0.000392625
0.000502207
0.000547302
0.000557172
0.000554805
0.000547131
0.000531969
0.000502448
0.000451882
2.77123e-05
0.000191566
0.000360342
0.000484351
0.000545513
0.000562545
0.000558614
0.000545873
0.000525819
0.000495628
0.000446665
2.81466e-05
0.000180428
0.000337269
0.000456973
0.000524776
0.000551307
0.000554783
0.00054861
0.000535224
0.000510715
0.000466548
2.88569e-05
0.000172375
0.000320717
0.000433415
0.00050012
0.00053135
0.000543166
0.000545744
0.000538802
0.000516714
0.000471174
2.97737e-05
0.000166089
0.000307172
0.000413073
0.000477477
0.00051131
0.000529232
0.000539339
0.000539816
0.000524769
0.000485961
3.06311e-05
0.000160606
0.000295512
0.000395488
0.000457248
0.000492466
0.000515116
0.000531923
0.00053944
0.00052932
0.000489977
3.12583e-05
0.00015477
0.000284512
0.000379981
0.00043972
0.000476003
0.0005024
0.000524532
0.000537042
0.000528399
0.000484821
3.17749e-05
0.000148888
0.000274195
0.000366267
0.000424674
0.000462018
0.000491493
0.00051774
0.000533741
0.000526745
0.000487097
3.22037e-05
0.000143671
0.000265108
0.000354373
0.000411849
0.000450275
0.000482425
0.000512054
0.000530808
0.000525131
0.000485838
3.24139e-05
0.000138525
0.000256702
0.000343885
0.000400969
0.000440662
0.000475333
0.000508047
0.000529462
0.000525589
0.000488568
3.2405e-05
0.000132722
0.000248148
0.000334201
0.000391652
0.000432974
0.000470206
0.000505952
0.000530129
0.000528503
0.000494944
3.2145e-05
0.000126939
0.000239851
0.000325275
0.000383585
0.000426848
0.00046677
0.000505668
0.000532822
0.000533124
0.000497601
3.16045e-05
0.000120759
0.000231375
0.000316703
0.000376437
0.000422036
0.000464857
0.000507136
0.000537614
0.000539883
0.000503424
3.08136e-05
0.000113466
0.000221748
0.000307657
0.000369584
0.000418061
0.000464076
0.000510055
0.000544394
0.000548996
0.000512353
2.96306e-05
0.000104039
0.00020897
0.000295896
0.000360747
0.000412799
0.000462821
0.000512906
0.000551983
0.00056018
0.00052405
2.80282e-05
9.25229e-05
0.000192125
0.000279555
0.000346812
0.000400729
0.000451033
0.000501843
0.000544158
0.000557816
0.000528971
2.5964e-05
7.89005e-05
0.000170374
0.000257236
0.000326516
0.00038112
0.000428366
0.000473441
0.000511742
0.000527222
0.000509963
2.33688e-05
6.38893e-05
0.000143725
0.000227774
0.000298425
0.000353237
0.000395922
0.000431193
0.000458635
0.000469162
0.000459263
2.02007e-05
4.90289e-05
0.000114549
0.000191729
0.00026175
0.000316327
0.000354995
0.000380812
0.000395703
0.000396861
0.000385124
1.62753e-05
3.51657e-05
8.46149e-05
0.000151841
0.000217206
0.000269295
0.000304687
0.000324582
0.000331304
0.000325494
0.000309635
1.15949e-05
3.44931e-05
7.6061e-05
0.00012212
0.000166576
0.000204514
0.000232122
0.000248204
0.000253277
0.000248177
0.00023493
4.84801e-05
0.000195188
0.000273755
0.000351965
0.000443743
0.000519777
0.00056113
0.000580629
0.000563029
0.000525971
0.000466617
3.37559e-05
0.000104805
0.000170506
0.00022864
0.00028205
0.000323354
0.000393049
0.000572617
0.000620025
0.000575387
0.000502348
2.69902e-05
7.32364e-05
0.000126243
0.000174104
0.000216603
0.000248134
0.000279154
0.000379878
0.000620997
0.000635925
0.00055763
2.46401e-05
8.03737e-05
0.000109352
0.000143458
0.000178158
0.000206014
0.000226778
0.000271703
0.000435901
0.000668143
0.000632307
2.95927e-05
0.000124844
0.000128737
0.000139634
0.000159723
0.000180505
0.00019636
0.000220075
0.000305989
0.000527152
0.000688652
3.41505e-05
0.000188611
0.000189889
0.000167857
0.000162256
0.000168728
0.000177675
0.00019118
0.000239004
0.000380172
0.000617206
3.70281e-05
0.000217974
0.000296753
0.000241238
0.000193462
0.000173304
0.000169048
0.000173985
0.000202181
0.00029137
0.000486983
3.99846e-05
0.000240342
0.000372346
0.000343233
0.000257951
0.000198533
0.000171799
0.000165238
0.000180747
0.000240268
0.000385273
4.256e-05
0.000258105
0.000425843
0.000462891
0.000357353
0.000248932
0.000188154
0.000164344
0.000168448
0.00020968
0.000317519
4.46046e-05
0.000272418
0.00046671
0.000552267
0.000472883
0.000324474
0.000219774
0.00017158
0.000162802
0.000190978
0.000273521
4.60231e-05
0.000283641
0.00049363
0.000605352
0.000575131
0.000414842
0.000265157
0.000186644
0.000162651
0.000179994
0.00024521
4.69786e-05
0.000287961
0.000508084
0.000636122
0.000654128
0.0005053
0.000318441
0.000207452
0.000166951
0.00017478
0.000227396
4.74677e-05
0.000289873
0.000512352
0.000646532
0.000692097
0.000577353
0.000370054
0.000230162
0.000174208
0.000174045
0.000217227
4.75583e-05
0.000287106
0.000504754
0.00063704
0.000695647
0.000619785
0.000410288
0.000250299
0.000182808
0.00017687
0.0002131
4.73095e-05
0.000279132
0.000487137
0.000609848
0.000671224
0.000630543
0.000431579
0.000263845
0.000191594
0.000182876
0.000214152
4.65636e-05
0.00026933
0.000464333
0.000570347
0.000619226
0.000606563
0.000434876
0.000269312
0.000200324
0.000192551
0.000219795
4.51828e-05
0.000256736
0.00043701
0.000525231
0.000555495
0.000537357
0.00043102
0.000272176
0.000211408
0.000207366
0.000230471
4.31182e-05
0.000241547
0.000406676
0.000479087
0.00049282
0.000472024
0.000407322
0.000287487
0.000230589
0.000230706
0.000248
4.04504e-05
0.000225579
0.000376741
0.000439098
0.0004444
0.000427936
0.000392367
0.000321972
0.000270341
0.000269975
0.000276302
3.73344e-05
0.000212183
0.000351828
0.000410841
0.000419023
0.000415076
0.000405202
0.000377362
0.000340938
0.000327763
0.000314868
3.40155e-05
0.000212742
0.000345887
0.000394264
0.000402713
0.000404608
0.000403447
0.0003836
0.000351861
0.000318406
0.000271019
3.0491e-05
0.000213929
0.000305446
0.000324495
0.000296659
0.00024316
0.000190179
0.000170026
0.000149104
0.000129982
0.00011096
1.78863e-05
0.000111524
0.000133369
0.000113728
9.14679e-05
7.84088e-05
7.0179e-05
6.58745e-05
6.31746e-05
6.09917e-05
5.84307e-05
8.74404e-06
1.0645e-05
1.40728e-05
1.92157e-05
2.6938e-05
3.73249e-05
4.96073e-05
6.21874e-05
7.31738e-05
8.10858e-05
8.51674e-05
1.85272e-05
1.81218e-05
1.73568e-05
1.63163e-05
1.45586e-05
1.11588e-05
6.52114e-06
6.27303e-06
6.60899e-06
0.000136965
0.000117942
9.28294e-05
6.31705e-05
4.15475e-05
2.97625e-05
2.34608e-05
2.49179e-05
2.4105e-05
0.000262825
0.000232053
0.000189068
0.000131149
8.39908e-05
5.5299e-05
4.00556e-05
3.75022e-05
3.57172e-05
0.000357797
0.000329023
0.000276139
0.000195981
0.000125796
8.2103e-05
5.88529e-05
5.15762e-05
4.7112e-05
1.86541e-05
1.83627e-05
1.83527e-05
1.79737e-05
1.72207e-05
1.62874e-05
1.48024e-05
1.21782e-05
7.83421e-06
0.000153342
0.000160083
0.000145187
0.000127104
0.000107955
7.98653e-05
5.47104e-05
3.6504e-05
2.76377e-05
0.00028793
0.000294533
0.000271651
0.000241782
0.000209721
0.000163022
0.00011284
7.09086e-05
4.63575e-05
0.00038343
0.000389738
0.000366239
0.000338829
0.000302101
0.000241874
0.00016799
0.000104979
6.57425e-05
0.000195611
0.000229705
0.000229752
0.000159285
0.00038904
0.000229225
9.33307e-05
0.000229591
0.000229303
0.000234004
0.000375962
0.000229649
0.000143284
0.000209476
0.000123807
0.000228731
0.000205108
0.00016122
0.000228731
0.000228571
0.000229481
3.33164e-05
0.000229987
0.000162166
0.000229312
0.000210118
0.000149115
9.49807e-05
0.000454893
0.000544957
0.000200445
0.000235882
0.000152491
0.000229449
0.000241181
0.000229669
0.000152891
0.000229306
0.000132271
0.00022916
2.25086e-05
0.000229491
0.000145619
0.000229972
0.00044994
5.90714e-05
7.94494e-05
9.79579e-05
0.000239769
0.000229877
0.000534678
0.000229136
0.000313433
0.000146224
0.000229723
0.000229272
3.28374e-05
0.000229125
0.000462799
0.000266488
2.67178e-05
0.000303259
0.000481954
0.000323129
3.1607e-05
0.000228572
0.000535934
0.000231498
0.000229704
0.000233504
0.000184056
0.000234481
6.95218e-05
0.000246015
0.000465732
0.000232332
1.99572e-05
0.000229731
0.000153689
0.000423508
0.000163977
0.000284004
0.000229258
0.000229799
0.000247834
7.51666e-05
0.000407484
0.000262385
4.86641e-05
0.000119457
0.000229517
0.000229104
2.61909e-05
0.000235536
0.000438831
0.00011003
0.000403566
0.000237212
4.64244e-05
0.000237124
0.00025358
0.000115182
0.000230285
0.000236235
7.25873e-05
0.000229603
0.000184123
0.000229874
0.000181777
0.000235724
0.000229365
0.000229549
0.000231589
0.00011411
0.000129999
0.00022902
0.000229252
0.000228964
0.000229329
0.000229238
0.00010197
0.000243287
0.000264562
0.000206951
5.62638e-05
0.000219022
0.000144576
0.00017593
0.00021394
0.000204295
0.000229157
0.000268224
0.000104087
0.000232873
0.000229774
0.000235034
2.27711e-05
0.000197016
0.000537053
0.000244371
0.000145244
0.000231062
0.00029631
0.000167886
0.000229294
3.96763e-05
0.000121425
0.00023109
0.000235968
0.000228991
0.000229234
0.000229138
3.62509e-05
0.000242706
0.000131791
7.97636e-05
9.27643e-05
2.94644e-05
0.000161844
0.000228937
0.000215076
4.559e-05
0.000233915
0.000229126
0.000599844
0.000121516
6.36468e-05
0.000237857
0.000233868
3.13996e-05
0.000183814
0.000154948
0.000221594
0.000229423
0.000235116
0.000220137
0.000158137
3.45664e-05
0.000452842
0.000199458
0.000230492
2.91099e-05
0.000229926
0.000115649
0.00022936
0.000181497
0.000229283
0.000228911
0.000229644
0.000212908
0.000181732
0.000216726
0.000228564
2.24393e-05
0.000229734
0.000229127
0.000229727
4.60977e-05
0.000200526
0.000230001
3.63626e-05
0.000230141
0.000167893
0.000190454
0.00022981
0.000257335
0.000234738
0.00021433
0.000229714
0.000228739
0.000120538
0.000228964
0.000174849
0.00023903
0.000229278
0.000347407
0.000229402
6.13014e-05
0.000229479
0.000133357
9.78513e-05
0.000107032
0.00040525
0.000125054
0.000204587
0.000229128
9.36676e-05
0.000136109
0.000192324
0.000362741
3.32079e-05
0.00022852
0.000229253
0.000243033
3.58853e-05
0.000305306
0.000339637
0.000229874
0.000229646
0.000229588
6.17338e-05
0.000447666
0.000236338
2.08552e-05
0.000245957
4.45645e-05
0.000229375
0.000179523
0.000196921
0.00021021
0.000180388
0.000122212
0.000240958
0.00022872
0.000233487
0.000229581
0.00022919
0.000229271
5.36365e-05
0.000229349
0.000126308
0.000196126
0.000228221
0.00022964
0.000229357
8.64498e-05
0.000231457
0.000243623
0.000159312
0.00017796
0.000163001
0.000229385
0.000230149
8.18782e-05
0.000229179
0.000228979
0.000206686
0.000229219
0.000238116
6.54448e-05
0.000236229
0.000229858
0.000167069
0.000301047
0.000233105
0.000229185
0.000448913
0.000229802
0.000237931
0.000137589
0.000229884
0.000113601
0.000241359
0.0001263
0.000230012
0.000229681
0.000234522
0.000229618
0.000240752
0.000205497
0.000229131
9.12483e-05
0.000242745
0.000545034
0.000229118
0.00023602
0.000229743
0.00012417
2.92743e-05
0.000229227
5.87333e-05
0.000229654
0.000233952
0.000156502
2.36295e-05
0.000231482
0.00020005
0.000121217
0.000228761
0.000241144
0.000229148
0.00012089
0.000228936
0.000188227
0.000228794
0.000234143
0.000229143
0.000220525
0.000228226
0.000311676
0.000233744
0.00047927
1.78786e-05
0.00022991
0.000122253
0.000209482
9.458e-05
0.000229698
0.000229277
0.00023836
5.50648e-05
0.000123297
0.000230147
0.000109906
0.000153454
0.000123171
0.000169463
0.000228997
0.000149133
0.000162743
5.85334e-05
0.000236854
0.000178046
0.000229083
0.000107026
0.000230037
9.39104e-05
0.000206634
0.000229968
0.000300512
0.000135152
0.000212221
0.000229434
0.000229319
0.000229803
5.62941e-05
0.00016355
7.92121e-05
6.9621e-05
0.000257144
0.000229218
0.000108652
0.000206629
0.00020234
0.000111673
0.000229853
0.00015173
0.000241017
0.00022915
0.000228974
0.000179281
0.000229112
3.81709e-05
0.000229112
0.000216436
0.00048983
8.73654e-05
0.000202599
0.00046383
5.12233e-05
0.000229155
5.01206e-05
0.000190854
0.000247788
0.000474717
3.09154e-05
0.000229232
0.000229071
0.000229913
0.000107508
5.40421e-05
0.000228981
0.000229946
0.000137543
0.000131576
2.31836e-05
0.000117908
0.000142025
0.000230066
0.000120312
0.000235015
0.000228698
0.000177948
0.000183225
3.54229e-05
0.000233783
0.000179646
0.000252016
0.00018804
5.44344e-05
0.00027492
0.000152201
8.95082e-05
0.000193199
0.00022713
0.000234889
0.000244497
7.55798e-05
0.000204397
3.93325e-05
0.000229246
3.86565e-05
0.000207849
0.000228652
0.000240159
8.26882e-05
0.000252705
0.000494107
0.000207175
0.000230038
0.000236174
0.00040044
0.000290063
8.72104e-05
0.000231717
9.34501e-05
0.000284885
2.66567e-05
0.000228936
3.53763e-05
0.000229149
0.000229745
0.000229364
5.72783e-05
0.0001046
7.16353e-05
0.000185597
3.37387e-05
8.28677e-05
0.000229644
0.000228922
0.000147715
0.000182621
0.000233547
0.000233866
4.11803e-05
4.50744e-05
2.96836e-05
2.93526e-05
0.000233711
0.000211596
6.54823e-05
0.000229045
2.62533e-05
0.000233064
0.000229757
0.000229362
8.05659e-05
3.331e-05
0.000229223
0.00022913
0.000229508
0.000397248
2.65214e-05
0.000229924
4.55625e-05
0.00040857
0.00015657
8.16043e-05
0.000228823
3.77775e-05
0.000229144
0.000232696
0.000229139
0.000211882
0.000143714
0.000228585
0.000185589
0.000168388
0.00024291
0.000227225
0.000220838
0.00022956
0.000229417
0.000256737
8.49808e-05
6.14533e-05
0.000233867
0.000109443
0.000229774
0.000335206
0.000105177
4.90143e-05
0.000127008
0.000253454
0.000405888
8.55379e-05
0.000185379
0.000229128
0.000181873
0.000228867
0.000229847
0.000229229
0.000229693
0.000232659
0.000178502
0.000229429
0.000228879
0.00013381
0.000229119
4.77759e-05
0.000241055
0.00013217
0.000171168
5.06332e-05
0.000230018
0.000229296
0.000229931
2.23102e-05
3.36349e-05
0.000229314
0.000229257
0.000207255
0.000229848
0.000233366
0.00022982
0.000263128
0.000236847
3.11643e-05
0.00012998
0.00013329
6.31528e-05
0.00035344
0.000229134
0.000231581
0.000235606
0.000229841
8.25954e-05
2.48755e-05
0.000223841
0.000190604
0.000173674
9.75375e-05
0.000229321
0.000230415
0.000229762
0.000289006
0.000364179
8.56691e-05
0.000229581
0.000229243
0.000291854
0.000231907
0.000151145
0.000212214
0.000136324
0.000245164
0.000229129
9.01991e-05
0.00022928
8.64093e-05
0.000229765
0.000459311
0.000153255
0.00023478
2.42372e-05
0.000113548
0.000229957
0.00023
0.00045729
0.000229073
0.000180676
0.000191385
9.82723e-05
0.00030827
5.43679e-05
0.000192023
0.000231674
0.000229115
0.000229304
0.000115241
8.92041e-05
0.000111558
0.000228565
0.00022935
0.000101574
0.00022933
0.000239466
0.000233868
0.000234265
0.00017056
8.91989e-05
0.00010055
0.000159715
0.000233236
0.00022752
0.000228696
0.000115612
0.000232267
0.000229162
0.000182765
0.000145073
0.000228937
0.000229075
2.32195e-05
0.000230328
0.000228881
0.00014758
0.000229783
0.000233509
0.000149114
0.000128396
0.000157473
0.000206601
0.00016171
7.97865e-05
0.000112207
6.96872e-05
0.000101305
0.000173801
5.71744e-05
7.02018e-05
0.000125986
0.000229778
0.000229841
0.000217162
0.000229796
0.000229086
0.000242101
0.000207944
0.000142948
0.000201812
0.000189036
0.000257616
0.000229084
0.000192718
0.000229501
0.000229081
0.000236376
0.000100665
0.000232191
0.000234664
0.0002302
0.000229785
0.00027542
6.27186e-05
0.0003493
0.000232577
0.000229616
0.000189754
0.000137088
0.000239233
0.00020508
0.000232084
0.000500561
0.00011541
0.00022911
8.16342e-05
0.000229946
0.000158461
0.000259012
0.000167642
0.000160591
0.000213305
0.000246463
0.000229831
0.000101877
0.000182221
5.282e-05
0.000144943
0.000228982
0.000233636
0.000229818
0.000159487
0.000229302
5.37543e-05
0.000229637
0.000229132
0.000229186
0.000148644
7.99616e-05
0.000229543
0.000132362
0.000229272
0.000142716
0.00016184
0.000230987
0.000208058
1.95447e-05
0.000117518
0.000236128
0.000212549
0.000176897
0.000104818
0.000166809
8.97196e-05
0.000229193
0.000199926
0.000229292
0.000233206
5.45665e-05
0.000222904
3.6525e-05
0.000209429
0.000231608
0.000233762
0.00022926
6.04257e-05
0.000229625
0.000201756
0.000125245
0.000264002
0.000233754
0.000138034
0.000202618
0.000313746
0.000242295
0.000171012
3.31151e-05
0.000119286
0.000229449
0.000212428
0.000168403
0.000229536
5.0138e-05
0.000121547
0.000249441
0.000493898
0.000229205
0.000231979
0.000234909
0.000132355
0.000236921
0.00019913
0.000229679
0.000158613
0.000234761
0.000129414
8.52531e-05
0.000138509
0.000187804
0.000228891
0.000224088
6.94447e-05
0.000229162
0.000208004
0.000187099
0.000100696
0.000242804
2.90002e-05
0.000238659
0.00013401
0.000130511
0.000254139
0.000229024
0.000247749
0.000229066
0.000218518
2.20483e-05
0.000230058
0.000229275
0.000252611
0.000418601
0.000126522
0.000192588
0.000229757
0.000198128
0.0002455
0.00022954
0.000229605
0.000229836
0.000229251
0.000241943
0.000162478
4.94092e-05
9.90735e-05