/*--------------------------------*- C++ -*----------------------------------*\
| =========                 |                                                 |
| \\      /  F ield         | OpenFOAM: The Open Source CFD Toolbox           |
|  \\    /   O peration     | Version:  3.0.1                                 |
|   \\  /    A nd           | Web:      www.OpenFOAM.org                      |
|    \\/     M anipulation  |                                                 |
\*---------------------------------------------------------------------------*/
FoamFile
{
    version     2.0;
    format      ascii;
    class       volScalarField;
    location    "0.620529";
    object      k;
}
// * * * * * * * * * * * * * * * * * * * * * * * * * * * * * * * * * * * * * //

dimensions      [0 2 -2 0 0 0 0];

internalField   nonuniform List<scalar> 
21246
(
1.25379
1.67245
1.08892
0.614623
0.335415
0.18261
0.0991351
0.0536256
0.0291031
0.0164445
0.0103925
0.795856
1.12283
0.856907
0.543036
0.319773
0.182659
0.10167
0.0553241
0.0298418
0.0165192
0.0101603
0.597741
0.886936
0.775053
0.572812
0.363837
0.213455
0.120074
0.0652266
0.0345828
0.0185584
0.0109664
0.512717
0.724236
0.656327
0.529044
0.365261
0.227733
0.132355
0.0726736
0.0382036
0.0201374
0.0116771
0.468167
0.62088
0.569401
0.471807
0.335291
0.216538
0.12956
0.0730661
0.0394253
0.0210225
0.0120705
0.437313
0.538212
0.499945
0.418888
0.30086
0.198201
0.121887
0.0709123
0.0394014
0.0215065
0.0125633
0.414701
0.47534
0.443577
0.370967
0.268229
0.178925
0.112322
0.0671572
0.0384464
0.0215497
0.012763
0.397204
0.4261
0.397439
0.330718
0.239787
0.161153
0.102684
0.0627643
0.0368805
0.0212263
0.0130491
0.383516
0.38692
0.359902
0.298027
0.216256
0.145989
0.0940222
0.0585022
0.0352102
0.0208343
0.0131605
0.372821
0.355073
0.329512
0.27208
0.197523
0.133727
0.0867858
0.0547642
0.0336432
0.0203977
0.0130927
0.364225
0.328649
0.304505
0.251272
0.182631
0.123946
0.0809099
0.0516266
0.0322434
0.0199201
0.0130787
0.357047
0.306432
0.283438
0.234093
0.170533
0.116079
0.0761763
0.0490732
0.0310868
0.0195338
0.0130693
0.351611
0.287612
0.265825
0.22017
0.160975
0.109982
0.0725408
0.0471295
0.0302353
0.0192823
0.0130764
0.34833
0.271804
0.251357
0.209358
0.15391
0.10564
0.0700218
0.0458372
0.0297237
0.0191645
0.0131327
0.346217
0.258388
0.239114
0.200765
0.14875
0.102748
0.0684843
0.0451585
0.0295672
0.0192211
0.0132505
0.345465
0.246951
0.228841
0.19427
0.14547
0.10134
0.0679847
0.0451502
0.0298233
0.019503
0.0134894
0.345631
0.237516
0.219635
0.189048
0.144001
0.101714
0.068872
0.0460673
0.0306692
0.0201479
0.0139244
0.346701
0.229598
0.211286
0.18455
0.14373
0.103531
0.0710764
0.0479508
0.0321591
0.021269
0.0146805
0.348912
0.223064
0.203695
0.180627
0.144479
0.10679
0.0747807
0.0510523
0.0345073
0.0230226
0.015848
0.352715
0.217911
0.196731
0.177025
0.145947
0.111408
0.0802033
0.0557877
0.0381442
0.0257249
0.0176648
0.358867
0.214222
0.190224
0.173362
0.147608
0.117066
0.0874637
0.0626851
0.0437726
0.0300078
0.0206501
0.369051
0.211446
0.183962
0.169128
0.148657
0.123051
0.0963326
0.0721329
0.0522442
0.0368874
0.0257456
0.38338
0.208733
0.177225
0.1638
0.148336
0.128397
0.106031
0.083952
0.0641203
0.0474891
0.0343688
0.399081
0.203926
0.175755
0.162966
0.150258
0.134547
0.11644
0.0974545
0.0790288
0.0622018
0.0476703
1.30076
2.46385
1.26125
0.835283
0.482941
0.250973
0.127721
0.0657919
0.034243
0.0186091
0.0113462
1.26274
2.12443
1.42987
0.985347
0.631109
0.345977
0.179422
0.0910073
0.0455781
0.0234399
0.0133462
1.10664
1.67793
1.38142
1.01582
0.705534
0.424895
0.236148
0.12356
0.061641
0.0305987
0.0166296
0.889341
1.42675
1.2846
0.984981
0.717305
0.472932
0.285243
0.158032
0.0810264
0.0403
0.0218967
0.681434
1.33415
1.2076
0.941018
0.7021
0.493405
0.322017
0.189793
0.101733
0.0516932
0.0280725
0.526403
1.32186
1.16345
0.905664
0.680557
0.498006
0.347339
0.216478
0.121978
0.0641467
0.0356442
0.433045
1.33361
1.14674
0.882506
0.660269
0.495292
0.363113
0.238841
0.140704
0.0765366
0.0424605
0.386254
1.35962
1.14903
0.868368
0.642215
0.489081
0.371475
0.256841
0.158351
0.0886094
0.0496543
0.367908
1.38632
1.16409
0.861746
0.627095
0.481629
0.375441
0.270155
0.173888
0.100933
0.0575475
0.363056
1.40299
1.18673
0.861869
0.615465
0.474243
0.376892
0.280197
0.18728
0.112386
0.0643813
0.361113
1.39431
1.21338
0.86963
0.608675
0.4681
0.377157
0.28811
0.199119
0.123122
0.0709592
0.361392
1.37523
1.24126
0.882723
0.606079
0.46332
0.376756
0.294489
0.209809
0.133449
0.0773383
0.362974
1.355
1.26559
0.900264
0.608398
0.460672
0.376394
0.299989
0.21987
0.144011
0.0844731
0.360138
1.31416
1.27999
0.923685
0.617602
0.461311
0.376849
0.30523
0.229789
0.155317
0.0930887
0.355494
1.26394
1.2829
0.95006
0.632637
0.465588
0.378689
0.310617
0.239857
0.167621
0.103914
0.349245
1.20796
1.27291
0.976982
0.654141
0.47474
0.382959
0.31687
0.250515
0.181374
0.117208
0.340108
1.1415
1.24757
1.00102
0.681712
0.490099
0.391164
0.325073
0.262336
0.196859
0.133497
0.329591
1.06875
1.20522
1.0162
0.712909
0.512555
0.405288
0.336957
0.276282
0.214358
0.152845
0.320726
0.990414
1.14357
1.01388
0.742715
0.542574
0.428374
0.355583
0.29436
0.234674
0.17525
0.327108
0.918772
1.06407
0.987128
0.766791
0.582999
0.466882
0.387549
0.321497
0.260457
0.201707
0.322488
0.76519
0.91764
0.914095
0.770726
0.629599
0.522018
0.435716
0.359936
0.29251
0.230269
0.374466
0.690354
0.734457
0.74813
0.674059
0.576864
0.49436
0.419574
0.34475
0.275647
0.211926
0.328137
0.679104
0.723805
0.591783
0.483399
0.391452
0.312798
0.244519
0.189613
0.145694
0.110431
0.398831
0.310934
0.243319
0.202045
0.174319
0.152327
0.132609
0.113849
0.0958794
0.0789451
0.0633553
0.44504
0.588599
0.23945
0.120613
0.0566303
0.0293045
0.0188694
0.0149162
0.0131917
0.0122892
0.0117246
0.480794
0.693633
0.307522
0.151542
0.0727112
0.0352001
0.0204499
0.0151379
0.0130013
0.0119428
0.0112819
0.49617
0.627581
0.341601
0.180121
0.086515
0.0420077
0.022795
0.0157319
0.0130246
0.0117663
0.0110373
0.485403
0.558785
0.348859
0.192205
0.096959
0.0482261
0.0254497
0.0165808
0.0132251
0.0117395
0.0109458
0.455118
0.519223
0.346421
0.196788
0.104321
0.0538229
0.0281442
0.0176103
0.0135769
0.0118405
0.0109768
0.413819
0.497148
0.343896
0.201457
0.111052
0.059489
0.0310922
0.0187944
0.0140595
0.0120508
0.0110942
0.367284
0.485825
0.343858
0.207792
0.118216
0.0650197
0.0347036
0.0203736
0.0146599
0.0123522
0.0112867
0.319861
0.482765
0.346706
0.215248
0.125668
0.0707028
0.0385867
0.0223757
0.0155294
0.0127608
0.0115458
0.275724
0.48333
0.35374
0.224387
0.133771
0.0768597
0.0428551
0.0247724
0.0166582
0.0133103
0.0118847
0.236697
0.484788
0.365937
0.236567
0.143436
0.0840277
0.0477989
0.0276806
0.0181147
0.0140214
0.0123095
0.203084
0.488982
0.383153
0.251903
0.154781
0.0922483
0.0535084
0.0311742
0.0199632
0.0149406
0.012829
0.176319
0.499064
0.405707
0.270169
0.167465
0.101257
0.0598744
0.0352582
0.0222513
0.0161229
0.0134751
0.158251
0.512288
0.434371
0.292755
0.182377
0.111437
0.0670745
0.0400619
0.0250889
0.0176489
0.0142983
0.148363
0.524105
0.468924
0.321615
0.201064
0.123605
0.0754954
0.0458069
0.0286475
0.0196477
0.0153743
0.146694
0.54048
0.509803
0.357351
0.224081
0.138056
0.0852618
0.0525816
0.0330542
0.0222598
0.016827
0.153098
0.558584
0.555808
0.402017
0.253612
0.156157
0.0970865
0.0607569
0.0385658
0.0257041
0.0188208
0.16436
0.57035
0.602071
0.457302
0.293127
0.180447
0.112429
0.0711227
0.0456575
0.0303308
0.0216306
0.173224
0.571288
0.640542
0.521306
0.345393
0.213907
0.133359
0.0849355
0.0550986
0.0366792
0.0256831
0.178194
0.558815
0.660922
0.586483
0.412198
0.261096
0.163735
0.104801
0.0685338
0.0458244
0.0317326
0.178338
0.53153
0.653117
0.636056
0.489428
0.327071
0.210114
0.13595
0.0895483
0.0601285
0.0413846
0.173562
0.482502
0.611181
0.65076
0.564009
0.415051
0.282861
0.188729
0.126176
0.0852803
0.0585529
0.183474
0.4364
0.555858
0.637648
0.61902
0.516811
0.389557
0.277924
0.193563
0.134082
0.0930666
0.171376
0.368973
0.441631
0.504822
0.528853
0.510113
0.450386
0.367281
0.283377
0.21234
0.155645
0.227013
0.458248
0.467833
0.504114
0.518957
0.507815
0.470858
0.409768
0.341702
0.277702
0.219691
0.367422
0.400415
0.204229
0.0948829
0.0474876
0.0270418
0.0186985
0.0152416
0.0136408
0.0127826
0.012246
0.294103
0.323296
0.178402
0.100441
0.0529799
0.0303565
0.0204818
0.0163351
0.0144705
0.0135303
0.0130023
0.303405
0.332252
0.177497
0.118483
0.0669831
0.0382501
0.0241062
0.0181091
0.0155719
0.0144098
0.0138512
0.311072
0.313368
0.169146
0.125255
0.0758962
0.0457984
0.0290065
0.0208489
0.0171679
0.0155008
0.0147515
0.314909
0.277826
0.161762
0.124605
0.0767675
0.0475665
0.0306292
0.0222714
0.0183761
0.0165595
0.0157368
0.316115
0.245408
0.154158
0.119538
0.0747872
0.047898
0.0315077
0.023215
0.0192917
0.0174909
0.0167452
0.316071
0.220016
0.146884
0.113423
0.0718804
0.0474058
0.0317974
0.0238542
0.0200397
0.0182897
0.0175914
0.314927
0.200413
0.140057
0.107561
0.069118
0.046673
0.0318252
0.0242685
0.0205863
0.0189082
0.0182605
0.313826
0.185214
0.134228
0.102725
0.0670849
0.0459994
0.0318398
0.0246046
0.0210509
0.0194791
0.0189851
0.313413
0.173707
0.129418
0.0989278
0.0658876
0.0456108
0.0319703
0.0249318
0.0214541
0.0199612
0.0195775
0.314022
0.165102
0.125823
0.0964741
0.0654653
0.0456583
0.0323041
0.0253049
0.0218173
0.0203392
0.0199825
0.315492
0.158375
0.122987
0.0950628
0.0657007
0.0461569
0.0328778
0.0257675
0.0221754
0.0206536
0.020331
0.318185
0.153151
0.120929
0.0946194
0.0666379
0.0471798
0.0337623
0.026377
0.0225692
0.0209284
0.020609
0.32056
0.150329
0.119631
0.0950616
0.0684547
0.0489149
0.0351391
0.0272557
0.0230733
0.0212
0.020783
0.322329
0.148772
0.118593
0.0957861
0.0708973
0.0513405
0.0371896
0.0286205
0.0238842
0.0216291
0.0209866
0.323648
0.148443
0.11785
0.0967606
0.0738733
0.0545282
0.0400271
0.0306462
0.0251667
0.0223512
0.0213301
0.324632
0.149477
0.117493
0.0979586
0.0772983
0.0585405
0.043798
0.0335641
0.0271677
0.0235867
0.0219945
0.325339
0.151685
0.117582
0.0993043
0.0810063
0.0633379
0.0486253
0.0376376
0.0302234
0.0256794
0.0232936
0.325863
0.15503
0.118254
0.100758
0.0848073
0.0687803
0.0545632
0.043127
0.0347524
0.0291213
0.0257249
0.326362
0.159589
0.119778
0.102358
0.0884991
0.0745716
0.0614874
0.0501701
0.0411634
0.0345223
0.0300163
0.327098
0.16535
0.12243
0.10423
0.0918601
0.0801931
0.0688949
0.0584965
0.0495534
0.0423541
0.0369504
0.328741
0.171848
0.126314
0.106527
0.0946407
0.084829
0.0756219
0.0669121
0.0589777
0.0521121
0.0465131
0.331771
0.179944
0.131945
0.109603
0.0967532
0.0875586
0.0798494
0.0729535
0.0667419
0.0612397
0.0565226
0.349155
0.190938
0.151037
0.132376
0.121679
0.113891
0.107242
0.104716
0.104916
0.106754
0.108791
0.338725
0.632989
0.62716
0.60804
0.533918
0.385382
0.247731
0.164205
0.11603
0.0845441
0.0622922
0.276814
0.454467
0.512997
0.52862
0.495541
0.392234
0.262526
0.160396
0.102746
0.0703646
0.049622
0.186044
0.339208
0.412031
0.444104
0.4367
0.370945
0.265256
0.16403
0.0974952
0.0604037
0.0398179
0.11376
0.279097
0.336307
0.369792
0.375142
0.334548
0.253186
0.162361
0.0942938
0.0547266
0.0332801
0.0812004
0.236841
0.280561
0.309316
0.318892
0.293364
0.231489
0.154116
0.0900016
0.0504417
0.0289429
0.0748593
0.189114
0.234515
0.260048
0.270018
0.252972
0.205364
0.141018
0.0838353
0.0465636
0.025862
0.0665505
0.151881
0.193346
0.217963
0.227968
0.215599
0.178124
0.12521
0.0761196
0.0426844
0.0235402
0.0593065
0.123332
0.15881
0.181119
0.191772
0.182044
0.151905
0.108763
0.0678162
0.038908
0.0217069
0.0530247
0.101454
0.131249
0.150594
0.160884
0.153029
0.128554
0.0936779
0.060131
0.035612
0.0203567
0.0476674
0.0851291
0.110527
0.126775
0.135793
0.129414
0.109582
0.0814917
0.0540412
0.0331718
0.0195539
0.0433567
0.0735231
0.0959299
0.109408
0.116731
0.11167
0.0956287
0.0728148
0.04995
0.0317605
0.0192756
0.0402404
0.0657859
0.0862181
0.0974183
0.103446
0.0995095
0.0864379
0.067483
0.0477945
0.0313636
0.0195558
0.0380434
0.0606403
0.0798433
0.0896895
0.0949742
0.0920408
0.0812377
0.0649787
0.0473329
0.0318884
0.0203221
0.0362428
0.0571309
0.0757795
0.0850146
0.0900717
0.0880937
0.0790507
0.0646679
0.0482578
0.0332175
0.0215083
0.034644
0.0549354
0.0734156
0.0824368
0.0876145
0.086559
0.0789525
0.0659513
0.0502885
0.0352745
0.0231686
0.0331728
0.0535308
0.0720683
0.0811394
0.0866991
0.0866322
0.0803648
0.0685347
0.0533558
0.0380765
0.0252911
0.0317093
0.0524081
0.0711526
0.0804922
0.0867108
0.0878794
0.0831155
0.07249
0.0576704
0.0418577
0.0280594
0.0301672
0.0514446
0.0704108
0.0801676
0.0874674
0.0904111
0.0876076
0.0783891
0.0638189
0.0471174
0.0318637
0.0284842
0.0504773
0.0696327
0.0801916
0.0895257
0.0953353
0.0952855
0.0876897
0.072987
0.0546379
0.037069
0.0265905
0.0491424
0.0688142
0.0814704
0.0949487
0.105525
0.108996
0.102735
0.0869997
0.0657166
0.0445578
0.0242086
0.0494312
0.0714277
0.0882681
0.108682
0.125589
0.1324
0.125821
0.107053
0.0814194
0.0552609
0.0361215
0.0610743
0.0773029
0.109748
0.142577
0.163911
0.169754
0.158236
0.13239
0.100761
0.0691719
0.0358774
0.107508
0.14961
0.192371
0.226159
0.243786
0.241819
0.219117
0.176124
0.125674
0.0854572
0.185445
0.233982
0.281604
0.31412
0.326682
0.319381
0.296507
0.266243
0.226534
0.169817
0.111253
0.355533
0.648992
0.671286
0.63112
0.527348
0.388653
0.266608
0.18737
0.139093
0.104959
0.0782333
0.20665
0.38473
0.512199
0.574355
0.551799
0.453081
0.328198
0.233817
0.176374
0.135625
0.102513
0.112136
0.205219
0.33906
0.463145
0.531577
0.506558
0.399882
0.29007
0.22241
0.17553
0.137323
0.096267
0.137016
0.223155
0.336379
0.448276
0.504868
0.455223
0.344138
0.271406
0.221419
0.177443
0.0996009
0.135019
0.189086
0.263094
0.359251
0.452876
0.47473
0.380903
0.292784
0.256589
0.218781
0.104429
0.142805
0.187968
0.241946
0.313625
0.400277
0.461384
0.426998
0.309009
0.25411
0.237405
0.109794
0.152642
0.19399
0.236891
0.291021
0.364754
0.439679
0.450249
0.35276
0.252742
0.237212
0.115413
0.163213
0.202696
0.23768
0.277902
0.336928
0.412411
0.455586
0.392019
0.275161
0.22577
0.121174
0.174428
0.213055
0.241325
0.269639
0.313376
0.380788
0.44273
0.416987
0.305053
0.224401
0.126993
0.186244
0.224481
0.246376
0.264507
0.293714
0.34796
0.416243
0.425032
0.331525
0.232127
0.13298
0.19853
0.236425
0.252061
0.261757
0.278531
0.318151
0.383662
0.418531
0.349006
0.242726
0.139462
0.211253
0.248995
0.25858
0.260879
0.267929
0.294611
0.351371
0.404728
0.356901
0.252574
0.146839
0.224489
0.261211
0.265893
0.261282
0.261063
0.277779
0.318242
0.376143
0.360969
0.259184
0.154412
0.238685
0.274392
0.273862
0.262013
0.254721
0.263797
0.292203
0.332677
0.345476
0.264849
0.161969
0.254316
0.289411
0.283449
0.263631
0.248295
0.24913
0.266727
0.293289
0.310097
0.272443
0.170119
0.272556
0.30767
0.296128
0.267333
0.242726
0.234814
0.242973
0.260115
0.276135
0.266193
0.179192
0.294674
0.331175
0.314421
0.275641
0.240258
0.222951
0.222234
0.232837
0.245203
0.245246
0.189428
0.322386
0.363369
0.34337
0.294143
0.24525
0.215453
0.206174
0.210185
0.217932
0.221391
0.201141
0.358118
0.410059
0.392273
0.334541
0.268743
0.222063
0.200226
0.193756
0.193196
0.19179
0.210863
0.397044
0.463894
0.453071
0.388815
0.309938
0.249393
0.215785
0.201108
0.195487
0.191555
0.205615
0.414978
0.492044
0.492366
0.433933
0.35043
0.279614
0.237409
0.219081
0.215657
0.220694
0.203349
0.412548
0.495604
0.503812
0.452929
0.37286
0.29948
0.25139
0.22709
0.217747
0.212715
0.206181
0.399215
0.470343
0.477836
0.436639
0.370962
0.306343
0.25868
0.228418
0.207286
0.172553
0.27092
0.394341
0.42451
0.418018
0.389107
0.345857
0.296748
0.257136
0.226154
0.190347
0.138977
0.0975708
0.102738
0.104481
0.106878
0.10656
0.103537
0.097001
0.0884853
0.0747898
0.143195
0.159005
0.175762
0.173177
0.160394
0.144295
0.124512
0.101964
0.079814
0.134121
0.152652
0.173
0.175251
0.161422
0.141596
0.12203
0.106121
0.0894017
0.115133
0.129358
0.148134
0.153007
0.141101
0.125048
0.109182
0.0949462
0.0831562
0.0883681
0.077194
0.0607902
0.0324393
0.0176822
0.0154176
0.0132173
0.0210963
0.0525503
0.123928
0.0998108
0.0755298
0.0554492
0.0356698
0.024355
0.0259236
0.0423017
0.0587115
0.120565
0.1069
0.08925
0.0676976
0.0431992
0.0305666
0.032832
0.0478571
0.0682315
0.10612
0.0954934
0.0852305
0.070582
0.0496334
0.0379933
0.0392729
0.0510855
0.068215
0.00442764
0.00460063
0.00461605
0.00294614
0.0457141
0.0043912
0.0117303
0.00453882
0.00438326
0.00423811
0.0456242
0.00454933
0.00372743
0.00330602
0.00448388
0.00430197
0.00330444
0.00308134
0.00429094
0.00424809
0.00411927
0.00444691
0.00466605
0.0187361
0.00449464
0.00331401
0.00377678
0.0113327
0.0876982
0.0490031
0.00338428
0.00410328
0.00308889
0.00453415
0.00425929
0.00459169
0.0174019
0.00448987
0.00303651
0.00440142
0.00712978
0.00454328
0.0127755
0.00465884
0.0620163
0.0137117
0.00306622
0.0217532
0.00429614
0.00431269
0.0491575
0.00440681
0.0454375
0.0122037
0.0043103
0.00412583
0.00432209
0.00441323
0.0857867
0.0185469
0.0056813
0.0435704
0.0519471
0.00826901
0.00855077
0.00425875
0.0550051
0.00425481
0.00460131
0.00422708
0.00329477
0.00429556
0.00355086
0.00459167
0.0116226
0.00427453
0.00473353
0.00459592
0.00949707
0.0735694
0.0393275
0.00662956
0.00449604
0.00462552
0.00437257
0.00359518
0.108863
0.037439
0.00323905
0.0175024
0.00454206
0.00442321
0.00731769
0.00430595
0.0724863
0.0279567
0.0109756
0.00397481
0.00356423
0.00438905
0.00469025
0.0213474
0.00416128
0.00402551
0.00287987
0.00454865
0.00307271
0.0046463
0.0039223
0.00419518
0.00450617
0.00455816
0.00428512
0.00246255
0.00567577
0.00442449
0.00438713
0.00431193
0.00449379
0.00413841
0.0024769
0.00451509
0.00465899
0.00326278
0.0126051
0.00416713
0.0340933
0.00306867
0.0032063
0.00340785
0.0044565
0.0182105
0.0213676
0.00427891
0.00461418
0.00454714
0.00427176
0.00443676
0.0498775
0.00446918
0.0150846
0.00412659
0.0241795
0.00402396
0.00437741
0.00320401
0.0044867
0.00425773
0.00431291
0.00423986
0.00426267
0.00442094
0.00345215
0.00446929
0.00257126
0.0034355
0.00443848
0.00380574
0.00321332
0.00435592
0.00363846
0.00430362
0.0042891
0.00443366
0.0560556
0.00559047
0.00369041
0.00455321
0.00409495
0.0081659
0.00313835
0.00311845
0.00429727
0.00406034
0.00409381
0.00396326
0.0031447
0.0035154
0.0625677
0.00392925
0.00426036
0.00451208
0.00465985
0.0138466
0.00449697
0.00412232
0.00424389
0.00429645
0.00458766
0.0128626
0.00385448
0.00342454
0.00427127
0.00663324
0.00460949
0.0043963
0.00434763
0.0036318
0.00346955
0.00467914
0.00315639
0.0043032
0.0039298
0.0034866
0.00462767
0.0382355
0.00429188
0.00320009
0.00433527
0.0043378
0.0198833
0.00439584
0.00401455
0.00422027
0.00449062
0.0307892
0.00450903
0.00337726
0.00425674
0.00317836
0.0031939
0.0024386
0.0102018
0.00553439
0.00322422
0.00441805
0.00976815
0.00521842
0.00365548
0.0239258
0.00389044
0.00425576
0.00425617
0.00456036
0.00342654
0.0606747
0.0526428
0.00464637
0.00455524
0.0045432
0.00338499
0.00825604
0.00401656
0.00536712
0.00431356
0.00478841
0.00451643
0.00358224
0.0333111
0.0502809
0.00356936
0.0203094
0.00512764
0.00429502
0.00396012
0.00435998
0.00414755
0.00447545
0.00314684
0.00423982
0.00336841
0.00458281
0.0043253
0.00457171
0.00450454
0.00298718
0.00413027
0.00431002
0.00559287
0.00372301
0.022087
0.00430405
0.00429613
0.003009
0.00438456
0.0043253
0.0033211
0.00444436
0.00428504
0.00318554
0.00433407
0.00459613
0.0399897
0.0490146
0.00396001
0.00439138
0.0750382
0.00458441
0.00425387
0.014744
0.00461468
0.0114964
0.00466443
0.00302517
0.00467836
0.00434537
0.00408688
0.00456155
0.00425805
0.00334776
0.00444824
0.00255541
0.004368
0.0493708
0.00415804
0.00418953
0.00459634
0.00953691
0.00433592
0.00434952
0.00758447
0.00456186
0.00409817
0.00307829
0.00531359
0.00410634
0.00368874
0.00324209
0.00412914
0.00438694
0.00424307
0.0262543
0.00435683
0.00338906
0.00560003
0.00429199
0.00445333
0.00370702
0.00423977
0.045103
0.00427493
0.0523941
0.00422961
0.00465131
0.00355447
0.0428098
0.00413434
0.00458411
0.00447065
0.00395108
0.00407063
0.0196337
0.00429207
0.00558547
0.0208248
0.0097924
0.0098446
0.00437978
0.0144963
0.0409268
0.00884862
0.00393473
0.00374034
0.00417564
0.00395897
0.00468915
0.0032826
0.00399725
0.00466002
0.0474953
0.00386202
0.00334925
0.00451658
0.00451201
0.00430478
0.00339764
0.00310516
0.00321644
0.0104904
0.00471652
0.00443795
0.0117996
0.0396864
0.00319163
0.00387135
0.00460598
0.00391695
0.0042465
0.00437127
0.004245
0.0368894
0.00438049
0.00315127
0.00442397
0.00341232
0.0506644
0.00251274
0.00321085
0.00801586
0.00348598
0.00443038
0.00520699
0.00312377
0.00476122
0.0538746
0.00882096
0.00447909
0.00427604
0.00462018
0.005034
0.00312524
0.00441109
0.00466349
0.0161889
0.00296366
0.00920854
0.00793995
0.00589313
0.0043025
0.0258501
0.00439304
0.00427632
0.00369631
0.00363057
0.00392996
0.00407783
0.00388777
0.00482521
0.00312451
0.00481479
0.0303439
0.00319413
0.0124734
0.00368589
0.0039833
0.00417906
0.00455169
0.00482982
0.0051711
0.0101971
0.00448551
0.00314503
0.00342738
0.00410295
0.00465506
0.00358066
0.0254582
0.048595
0.00327343
0.00468848
0.00396119
0.107996
0.00576948
0.00254097
0.00423957
0.00564158
0.0237165
0.00353734
0.00433794
0.00401751
0.00444183
0.00461255
0.00449745
0.00416199
0.00446806
0.0108483
0.0031486
0.0031664
0.00487743
0.00458942
0.00433329
0.0360994
0.00318772
0.00395085
0.00435492
0.00811238
0.00757222
0.00545505
0.00546768
0.00427276
0.00393381
0.00319118
0.00422232
0.00558512
0.00429042
0.00458145
0.00431507
0.00557827
0.00362791
0.00424885
0.00445294
0.00413591
0.0173766
0.00461344
0.00464655
0.00321203
0.0320572
0.0040463
0.00367128
0.00433689
0.00346312
0.00439358
0.00428158
0.00441311
0.00328398
0.00327608
0.00426144
0.00339367
0.00400228
0.00430089
0.00374652
0.00369645
0.00453268
0.00453449
0.0365578
0.00537449
0.00314283
0.00428049
0.0184723
0.00461882
0.0378927
0.00435984
0.00350728
0.00498772
0.0047337
0.0524854
0.004274
0.00338217
0.00445335
0.00360451
0.00411879
0.00459436
0.00442303
0.00456769
0.00423414
0.0357752
0.00451126
0.00435069
0.012345
0.0044412
0.00946163
0.00425529
0.00780804
0.0033134
0.00326912
0.00467781
0.00447605
0.00463572
0.006113
0.00367639
0.004501
0.00449151
0.00325527
0.0046156
0.00594531
0.00460467
0.0473107
0.00424223
0.00409184
0.00305439
0.00331571
0.0149197
0.0401667
0.0041684
0.00412627
0.00429719
0.004603
0.00360239
0.00337321
0.00423456
0.00350368
0.0241631
0.0237602
0.00449302
0.00431032
0.00459591
0.0230257
0.0547514
0.00424772
0.00453766
0.00437865
0.0488414
0.00428416
0.00312157
0.00325059
0.00672961
0.0348623
0.00443591
0.00447822
0.00446275
0.0043195
0.00433123
0.0125563
0.003167
0.00409556
0.00553724
0.0069719
0.00463746
0.0046736
0.0714362
0.00440757
0.00354267
0.00343785
0.00464725
0.0214415
0.00404609
0.00359692
0.00420595
0.00444321
0.00448683
0.0282096
0.00294598
0.00389214
0.00424962
0.00450168
0.00662378
0.00423541
0.00434776
0.00431541
0.00428463
0.00322672
0.00296309
0.00468041
0.00567574
0.00401991
0.00515906
0.00428852
0.00981887
0.00425946
0.00445541
0.0341499
0.0276606
0.00438392
0.0043866
0.00415631
0.00414893
0.00432775
0.00564962
0.00460615
0.00422793
0.00327114
0.00304373
0.00382077
0.00313427
0.00316478
0.00545947
0.0166174
0.00494528
0.00620005
0.00353815
0.0035724
0.00488643
0.00349314
0.00462068
0.00418314
0.00569126
0.00394363
0.00421785
0.0044698
0.00343591
0.0133771
0.0313018
0.00360862
0.00435507
0.00442753
0.00524139
0.00455048
0.00428602
0.00427519
0.00338824
0.00424763
0.00429562
0.00421549
0.00458872
0.00418462
0.00620548
0.0231762
0.00425978
0.00423403
0.0039902
0.0249241
0.00435583
0.0155386
0.00428945
0.00952097
0.0191075
0.00443398
0.00490786
0.00465858
0.00309869
0.00537332
0.00320668
0.029387
0.00364646
0.00427255
0.00463602
0.00374956
0.00319847
0.00410292
0.0359988
0.00437103
0.00408287
0.00463212
0.00374612
0.00421175
0.00309359
0.00455162
0.00441257
0.00440021
0.00379352
0.00384094
0.00456246
0.00330032
0.00437274
0.00499497
0.00322303
0.00408409
0.00391953
0.00471234
0.00301822
0.00409039
0.0037328
0.00359224
0.00717023
0.00309261
0.0119924
0.00446861
0.00338137
0.00448999
0.00427428
0.00705538
0.00515477
0.00350676
0.00330082
0.00428704
0.00422702
0.0041303
0.00357659
0.00458414
0.0430965
0.012192
0.0472643
0.00417088
0.00397677
0.0219201
0.0207547
0.00453318
0.0034525
0.00376501
0.00289065
0.00452346
0.00335737
0.0228558
0.00454825
0.00934538
0.00348279
0.00458694
0.00972144
0.00438794
0.00426986
0.00422384
0.00334529
0.00434982
0.003191
0.00456921
0.00310806
0.0042977
0.00304581
0.00517725
0.0239079
0.00380666
0.00428496
0.02253
0.0142614
0.0044645
0.00320301
0.0038534
0.00558554
0.00514356
0.00387608
0.00459428
0.00578553
0.00306232
0.00497488
0.00427825
0.00436586
0.00441759
0.0106983
0.00382425
0.00468987
0.00448394
0.00455643
0.0329768
0.0282389
0.00358619
0.00457075
0.00338654
0.00474695
0.00455479
0.00457833
0.00462565
0.00448142
0.00431174
0.00314567
0.00504266
0.0103032
0.00310347
0.00460103
0.00442698
0.00449589
0.00376762
0.0338945
0.00459509
0.00413228
0.0035255
0.0171075
0.0206104
0.00466033
0.00391854
0.00615916
0.00443096
0.00446599
0.0118383
0.00421812
0.00455951
0.00446792
0.00608454
0.00400078
0.00390276
0.00455541
0.00409582
0.0057495
0.00403039
0.00455821
0.00312176
0.00971618
0.0037983
0.00526404
0.0046393
0.00427189
0.00321923
0.00293136
0.00500959
0.0046002
0.00421312
0.00447278
0.00432504
0.00458588
0.0168753
0.00344182
0.00897563
0.0142054
0.013468
0.00454192
0.0518675
0.00466868
0.00428365
0.00460301
0.00448614
0.0044163
0.00442571
0.00304837
0.0407745
0.00341222
0.00441296
0.00584383
0.00442151
0.0046886
0.00431433
0.00438163
0.00451194
0.00449501
0.00455744
0.00428022
0.0583035
0.00438294
0.00425609
0.00506357
0.0178251
0.00425204
0.00450527
0.0051128
0.0493261
0.00424218
0.00449344
0.00298795
0.00470401
0.00465007
0.00454062
0.00428333
0.00400649
0.024173
0.00459446
0.0122294
0.00303234
0.017
0.00310119
0.0045759
0.00330145
0.00564081
0.00444599
0.00452907
0.00428835
0.00460619
0.00397291
0.0102801
0.00417815
0.00559657
0.0453796
0.00530759
0.0039425
0.00565205
0.00466321
0.00455562
0.00312421
0.00297516
0.00332893
0.00440814
0.0291999
0.00428958
0.00329169
0.00430762
0.00312879
0.00314392
0.00330442
0.00353213
0.00420323
0.00452854
0.0463582
0.00413399
0.0348793
0.00441232
0.00306253
0.00435717
0.00420988
0.0457575
0.00438027
0.00460321
0.00352318
0.0096408
0.00805134
0.00357774
0.00325798
0.00334089
0.0322608
0.0332222
0.00452044
0.00442469
0.0406226
0.00439702
0.00543248
0.00449074
0.0142038
0.0031018
0.00559147
0.00460325
0.00342679
0.00464715
0.00441626
0.00390672
0.00272829
0.00424925
0.00445748
0.00428208
0.00458912
0.00474937
0.0046199
0.00442147
0.00418263
0.00900269
0.0032909
0.00403373
0.00460932
0.00679024
0.00310131
0.00459644
0.00468988
0.00408738
0.010627
0.0529474
0.00397506
0.00340627
0.0041013
0.00434161
0.00301692
0.00428211
0.00423511
0.00776479
0.00455351
0.0563487
0.00602206
0.0226302
0.00455292
0.00451648
0.00402642
0.0442047
0.0033349
0.00315068
0.00467571
0.00310042
0.020209
0.00455993
0.0040283
0.0197132
0.00366136
0.0329918
0.003676
0.00445628
0.00432138
0.00417063
0.0042633
0.00703575
0.00299397
0.0075672
0.0544721
0.00459622
0.00298546
0.00392721
0.00509758
0.0139323
0.00551225
0.00438686
0.00406775
0.00314232
0.00454501
0.00469538
0.00467905
0.0100878
0.0041514
0.00460791
0.00371223
0.0161086
0.00321229
0.00452127
0.00852395
0.00413994
0.00407854
0.00397437
0.00455457
0.0043131
0.0044738
0.0135279
0.00429361
0.0260271
0.00400363
0.00351933
0.00450497
0.00417785
0.00450413
0.00437515
0.0036191
0.0173385
0.0206762
0.0562322
0.0105855
0.0330373
0.00419128
0.00447163
0.00258355
0.00462754
0.00323533
0.0398324
0.00429003
0.00553533
0.0038863
0.0267825
0.00421538
0.00320721
0.00454996
0.0484703
0.00469626
0.0345083
0.00407589
0.00473343
0.00491899
0.0103667
0.00422732
0.00546455
0.00942637
0.00442433
0.0203171
0.00558546
0.0243369
0.00339326
0.00254581
0.0145008
0.00462956
0.00461083
0.00371914
0.00430719
0.00343967
0.00331036
0.00341122
0.00390387
0.00299865
0.0552857
0.00437196
0.00426257
0.00438755
0.00456909
0.00301053
0.00340214
0.00423659
0.00331548
0.0434699
0.0043012
0.0573916
0.0073004
0.0044885
0.0061433
0.00387361
0.00302335
0.00320147
0.0163685
0.00442367
0.00452797
0.0540011
0.00436916
0.00458578
0.00355262
0.00454344
0.00429001
0.0301895
0.00461826
0.0364527
0.00399007
0.00449562
0.00428472
0.00430464
0.0211597
0.00329321
0.0137186
0.00444739
0.00299829
0.00755799
0.00315083
0.00414399
0.00527962
0.00468446
0.00423958
0.00817437
0.0106427
0.00406381
0.00431387
0.00340803
0.00381039
0.00464823
0.00355926
0.0533055
0.00425979
0.00468955
0.00450846
0.00408828
0.0029715
0.00320365
0.00334015
0.0677419
0.00483469
0.00587692
0.00555623
0.00457276
0.00399108
0.0042464
0.00423659
0.0975972
0.00452627
0.0202104
0.0248879
0.00456049
0.00449429
0.00461342
0.032557
0.0285493
0.021421
0.00335097
0.004564
0.00426327
0.00330915
0.0277831
0.00656189
0.00312589
0.00433635
0.00614734
0.0225683
0.00521512
0.00417915
0.0135398
0.0290445
0.00405222
0.00383198
0.00429559
0.00439028
0.0316325
0.00323111
0.00371389
0.00460043
0.00464746
0.00417393
0.0491305
0.00337881
0.00300077
0.00822304
0.00522513
0.00437805
0.0136405
0.00563562
0.00461974
0.00307545
0.00344534
0.00411962
0.0462115
0.00453535
0.00442198
0.00424543
0.00501136
0.0031278
0.00435573
0.00425447
0.00461291
0.00455717
0.00468819
0.00330502
0.00443077
0.0068751
0.00428018
0.0045584
0.0492292
0.00429357
0.0035236
0.00359763
0.00459546
0.00351671
0.0053062
0.00451931
0.00456188
0.00448025
0.00312729
0.00449675
0.00426884
0.00445722
0.00359805
0.00990815
0.00319494
0.0191225
0.00429492
0.00579009
0.00425812
0.0046757
0.00424468
0.00458641
0.00313346
0.00413958
0.00324545
0.00412903
0.00419362
0.00449946
0.00456347
0.0180914
0.005468
0.016199
0.00468828
0.00337342
0.0413704
0.00319543
0.00295279
0.00439501
0.00548776
0.0301734
0.00611027
0.00320301
0.00418302
0.00380453
0.0031094
0.00450401
0.0685073
0.00310916
0.00414058
0.00378543
0.00366202
0.00360708
0.00280375
0.00458701
0.00309534
0.055277
0.0469481
0.00448577
0.0042577
0.0256137
0.0190483
0.00401568
0.00454793
0.00412877
0.00462924
0.00442503
0.0052228
0.00440203
0.00464884
0.0132693
0.00254774
0.00430455
0.00442822
0.00439793