/*--------------------------------*- C++ -*----------------------------------*\
| =========                 |                                                 |
| \\      /  F ield         | OpenFOAM: The Open Source CFD Toolbox           |
|  \\    /   O peration     | Version:  3.0.1                                 |
|   \\  /    A nd           | Web:      www.OpenFOAM.org                      |
|    \\/     M anipulation  |                                                 |
\*---------------------------------------------------------------------------*/
FoamFile
{
    version     2.0;
    format      ascii;
    class       surfaceVectorField;
    location    "0.620529";
    object      Uf;
}
// * * * * * * * * * * * * * * * * * * * * * * * * * * * * * * * * * * * * * //

dimensions      [0 1 -1 0 0 0 0];

internalField   nonuniform List<vector> 
32369
(
(4.09257 -6.74109 2.773e-18)
(1.94291 -5.73907 -2.40077e-18)
(7.82667 -6.75979 2.79271e-18)
(4.06141 -5.01488 -2.06542e-19)
(2.50751 -5.26828 7.14002e-19)
(5.9934 -4.32849 -9.42302e-19)
(4.14744 -3.90086 -2.2007e-19)
(3.08245 -4.42351 1.27967e-18)
(5.39195 -3.73813 1.52522e-19)
(4.11706 -3.07753 4.13312e-20)
(3.41401 -3.63779 -2.93186e-18)
(4.93009 -3.01061 2.4889e-19)
(4.00608 -2.45949 0)
(3.54875 -2.97347 1.40379e-18)
(4.55486 -2.42548 -7.28908e-20)
(3.85628 -1.98749 4.68433e-19)
(3.56444 -2.41436 0)
(4.25047 -1.95684 0)
(3.69749 -1.61719 2.94278e-19)
(3.51165 -1.95692 1.08792e-18)
(3.9988 -1.59149 5.2724e-19)
(3.54299 -1.32195 -3.90375e-19)
(3.4246 -1.58772 -9.34932e-19)
(3.78114 -1.29898 -3.40262e-19)
(3.39967 -1.08551 0)
(3.32463 -1.29159 4.44936e-19)
(3.59055 -1.06409 -5.56898e-20)
(3.26962 -0.896391 -2.18316e-19)
(3.22326 -1.05686 3.0947e-19)
(3.42405 -0.876102 4.1472e-20)
(3.12024 -0.876944 -6.5157e-19)
(3.2772 -0.732271 -1.30054e-19)
(3.12203 -0.725777 7.51308e-19)
(0.444192 -4.99458 -3.46949e-18)
(-0.654833 -3.4938 -1.8167e-18)
(1.50119 -4.6193 2.16226e-18)
(0.311007 -3.84431 2.40502e-19)
(2.2662 -4.04802 -5.78405e-19)
(1.21053 -3.87306 1.5694e-18)
(2.76708 -3.44214 -1.91311e-18)
(1.94911 -3.57679 -1.84615e-18)
(3.05917 -2.86478 1.44252e-18)
(2.44956 -3.12784 2.04818e-18)
(3.19555 -2.3513 4.99356e-19)
(2.75893 -2.64866 -2.22122e-18)
(3.22928 -1.91697 1.13909e-19)
(2.92593 -2.19815 8.35463e-19)
(3.20458 -1.56043 -3.06499e-19)
(2.99451 -1.8029 7.37188e-19)
(3.15156 -1.27223 7.50483e-19)
(3.00231 -1.47191 -1.75681e-19)
(3.08559 -1.04154 -1.93024e-20)
(2.9801 -1.20262 2.99923e-20)
(2.93836 -0.9929 -1.19613e-20)
(2.99377 -0.84304 -3.26777e-19)
(-0.576752 -2.81075 7.90509e-19)
(-1.06834 -2.05092 -2.74839e-19)
(0.0781017 -3.32139 3.98083e-20)
(-0.409654 -2.52973 5.53621e-19)
(0.856504 -3.46391 7.25142e-19)
(0.109693 -2.84642 -2.65347e-19)
(1.56958 -3.2801 1.45734e-18)
(0.786177 -2.94336 6.7954e-19)
(2.11213 -2.91796 -1.0608e-18)
(1.41449 -2.84144 1.66393e-18)
(2.47593 -2.50218 -2.27518e-18)
(1.91297 -2.58774 -1.01901e-18)
(2.69268 -2.09586 1.30578e-18)
(2.26476 -2.25383 1.34972e-18)
(2.80066 -1.72976 9.76507e-19)
(2.49252 -1.90552 -1.64605e-19)
(2.83912 -1.41748 -9.24249e-19)
(2.62642 -1.58039 -1.55141e-18)
(2.8429 -1.16139 6.45963e-20)
(2.6963 -1.29704 5.50271e-19)
(2.72109 -1.06535 -2.50643e-19)
(2.8175 -0.935085 1.45469e-18)
(-0.672337 -1.84809 -5.11769e-19)
(-0.882483 -1.38829 -8.84608e-19)
(-0.411868 -2.19399 5.97539e-19)
(-0.394358 -1.71262 -6.05764e-20)
(0.0290175 -2.44717 5.18369e-21)
(-0.20389 -1.97581 3.05515e-19)
(0.577468 -2.57776 7.94678e-19)
(0.234687 -2.18499 -3.16658e-19)
(1.14495 -2.54163 1.93918e-18)
(0.733723 -2.27273 6.59702e-19)
(1.64229 -2.3482 2.27674e-18)
(1.23095 -2.21586 6.64212e-19)
(2.02496 -2.06401 -5.11195e-20)
(1.65804 -2.04235 3.7428e-19)
(2.29334 -1.75516 -2.56753e-18)
(1.99024 -1.80088 -1.5098e-18)
(2.46667 -1.46287 -3.53382e-19)
(2.23217 -1.53748 -1.10672e-18)
(2.57056 -1.20741 3.01841e-19)
(2.39488 -1.28691 3.46615e-19)
(2.49194 -1.07156 -7.6166e-19)
(2.62117 -0.983047 -6.86382e-19)
(-0.45671 -1.23118 -5.11396e-19)
(-0.604123 -0.868942 -8.85718e-19)
(-0.298824 -1.48141 -3.32853e-19)
(-0.194711 -1.0997 7.34418e-19)
(-0.0409281 -1.71821 8.96723e-20)
(-0.156025 -1.29911 -1.70957e-19)
(0.309481 -1.8985 -5.43455e-19)
(0.144818 -1.50975 2.08197e-19)
(0.733285 -1.97344 -6.34344e-19)
(0.48983 -1.65383 -2.44739e-20)
(1.17299 -1.93313 -1.24117e-18)
(0.886231 -1.70728 2.91956e-19)
(1.57175 -1.7955 -9.18115e-19)
(1.27788 -1.66473 -8.20613e-19)
(1.89571 -1.5967 -6.20848e-20)
(1.62516 -1.54402 0)
(2.13795 -1.37501 -5.06132e-19)
(1.90878 -1.37531 6.65651e-19)
(2.30865 -1.15957 -5.38097e-19)
(2.12486 -1.18901 2.11714e-19)
(2.27081 -1.01118 -5.00786e-19)
(2.42003 -0.946069 1.07905e-18)
(-0.229031 -0.766243 9.80082e-20)
(-0.317404 -0.543381 -1.06713e-18)
(-0.109671 -0.927502 1.05941e-18)
(0.0222696 -0.64807 7.31099e-19)
(0.0485868 -1.12518 1.08278e-20)
(0.00631548 -0.815514 -2.18689e-18)
(0.282331 -1.30243 7.42844e-19)
(0.219203 -0.992898 9.21585e-19)
(0.585897 -1.42574 8.83198e-19)
(0.455838 -1.13808 -9.41205e-19)
(0.932186 -1.47453 8.19334e-19)
(0.752138 -1.23573 -1.70752e-19)
(1.28244 -1.44408 0)
(1.07299 -1.26924 0)
(1.60129 -1.34763 6.53742e-19)
(1.38653 -1.23716 2.73345e-19)
(1.86778 -1.20927 1.44565e-18)
(1.66837 -1.15181 7.31881e-19)
(2.07701 -1.05467 3.57629e-19)
(1.90358 -1.03305 4.51696e-19)
(2.07716 -0.901406 -4.95464e-19)
(2.23375 -0.888246 -1.66903e-18)
(0.00266488 -0.45419 -4.90411e-19)
(-0.0965274 -0.325712 -1.7733e-18)
(0.0875102 -0.533789 -2.26704e-18)
(0.221529 -0.360102 9.04883e-19)
(0.196378 -0.690875 -1.54759e-18)
(0.19241 -0.465529 -1.49421e-18)
(0.361638 -0.841323 -4.99266e-19)
(0.346479 -0.608127 4.43527e-19)
(0.580738 -0.96926 -1.96577e-18)
(0.515936 -0.736905 -7.40923e-19)
(0.844153 -1.0558 -9.30158e-19)
(0.737428 -0.843613 -7.21687e-19)
(1.13066 -1.08806 2.42297e-19)
(0.990619 -0.911641 -1.78871e-19)
(1.41398 -1.06482 3.02114e-19)
(1.25548 -0.932436 2.5405e-19)
(1.67188 -0.995972 -2.2209e-19)
(1.51178 -0.907134 0)
(1.89067 -0.897518 -2.87383e-19)
(1.74144 -0.846176 6.18083e-21)
(1.92121 -0.765603 1.47844e-19)
(2.06261 -0.772735 -9.07882e-21)
(0.182401 -0.238738 -6.38917e-19)
(0.0759324 -0.14846 -3.03845e-18)
(0.270151 -0.26137 1.81363e-18)
(0.380421 -0.13869 1.43098e-18)
(0.354828 -0.377865 2.95718e-19)
(0.360171 -0.209289 2.41747e-19)
(0.478714 -0.498702 2.98388e-19)
(0.482985 -0.321849 7.58857e-19)
(0.643035 -0.613416 4.72851e-19)
(0.611786 -0.429262 -2.23571e-19)
(0.845221 -0.707916 -3.01803e-20)
(0.782394 -0.529544 5.27929e-20)
(1.07463 -0.769161 -1.80576e-19)
(0.982561 -0.608476 -3.37307e-20)
(1.31448 -0.790143 2.6796e-21)
(1.20128 -0.656381 2.24351e-19)
(1.54684 -0.772385 2.18162e-19)
(1.42467 -0.669291 -6.80653e-19)
(1.75781 -0.72525 4.21713e-19)
(1.63624 -0.650144 4.33363e-19)
(1.80815 -0.607283 2.98575e-19)
(1.94033 -0.648368 1.07074e-19)
(0.331354 -0.0657189 -1.60117e-18)
(0.230414 -0.00135206 -2.70714e-18)
(0.422849 -0.0535483 -2.41668e-20)
(0.52588 0.0407723 0)
(0.498486 -0.142158 6.52367e-19)
(0.508526 -0.00603462 -9.74849e-20)
(0.599977 -0.239559 3.36286e-19)
(0.612962 -0.0991469 7.19385e-19)
(0.730412 -0.337836 -6.70821e-19)
(0.716282 -0.188931 -6.79224e-19)
(0.890674 -0.42756 6.81751e-20)
(0.853101 -0.27857 -1.07738e-18)
(1.07608 -0.498304 3.56645e-19)
(1.01487 -0.357169 8.918e-19)
(1.2768 -0.5421 -3.79772e-19)
(1.19613 -0.41652 4.0841e-21)
(1.4803 -0.556139 -5.66886e-19)
(1.38828 -0.451079 -3.54364e-19)
(1.67487 -0.544216 3.17454e-19)
(1.57901 -0.459376 2.467e-19)
(1.74254 -0.442306 6.10706e-19)
(1.85404 -0.506186 9.17593e-20)
(0.479293 0.0613281 -1.376e-18)
(0.366649 0.0831237 -2.55894e-19)
(0.567291 0.106377 -6.35346e-20)
(0.658926 0.165955 -2.2425e-19)
(0.631605 0.0407605 -1.15235e-19)
(0.641008 0.148498 7.54962e-19)
(0.716287 -0.0374358 -1.54681e-19)
(0.73291 0.074648 8.2729e-19)
(0.823887 -0.120245 -1.04399e-18)
(0.818753 0.00200178 -9.09857e-19)
(0.955471 -0.200948 -4.53905e-19)
(0.932708 -0.0756387 2.13911e-19)
(1.10897 -0.271609 6.25354e-19)
(1.06729 -0.148744 -4.77347e-19)
(1.27855 -0.324978 6.24071e-20)
(1.22005 -0.210931 -2.0454e-20)
(1.45608 -0.356406 4.11158e-19)
(1.38595 -0.256287 3.25141e-19)
(1.63261 -0.364916 4.9517e-19)
(1.5564 -0.281643 4.61669e-19)
(1.70585 -0.284037 3.35748e-19)
(1.80148 -0.341757 -7.74723e-19)
(0.595857 0.143581 8.97988e-19)
(0.468781 0.125393 1.12681e-18)
(0.691317 0.225802 4.96562e-19)
(0.759119 0.259807 -8.7224e-19)
(0.749934 0.183236 1.72207e-18)
(0.749872 0.268592 1.49851e-18)
(0.823685 0.123156 2.42072e-19)
(0.837593 0.212703 6.03838e-19)
(0.915782 0.0551837 2.32724e-19)
(0.913494 0.156427 -3.86904e-19)
(1.02752 -0.0151519 2.68398e-19)
(1.01298 0.0910567 1.23435e-18)
(1.15795 -0.0814482 -1.1635e-18)
(1.12893 0.0255738 -1.22842e-18)
(1.3037 -0.137561 2.21445e-19)
(1.26088 -0.0347426 5.54706e-19)
(1.45903 -0.178636 3.6063e-19)
(1.40599 -0.0848203 -5.58073e-19)
(1.61673 -0.203106 3.17789e-19)
(1.55848 -0.120877 2.49843e-20)
(1.69277 -0.136585 -1.49037e-19)
(1.77025 -0.207322 -9.37473e-20)
(0.669251 0.218415 -4.23448e-19)
(0.555507 0.189589 -8.7328e-19)
(0.784366 0.328106 -3.3884e-20)
(0.838149 0.358746 -3.44258e-20)
(0.846849 0.302156 4.9218e-19)
(0.840994 0.378066 1.30109e-18)
(0.91763 0.256233 6.07522e-20)
(0.928212 0.332424 -1.26104e-18)
(1.00156 0.200875 4.44133e-19)
(0.999083 0.287958 1.3119e-20)
(1.1008 0.140408 -1.44567e-20)
(1.09019 0.232611 3.02072e-19)
(1.21547 0.0798743 3.04941e-19)
(1.19408 0.174644 -7.10933e-21)
(1.34366 0.0243662 -1.18096e-19)
(1.31155 0.117851 3.56046e-19)
(1.48168 -0.0215567 -9.31983e-19)
(1.44103 0.0665054 -1.08107e-18)
(1.62464 -0.0554652 -4.19386e-19)
(1.57942 0.0243682 3.50205e-19)
(1.70393 0.000775275 -2.64175e-19)
(1.76919 -0.071925 -6.87797e-19)
(0.73886 0.296667 -5.67762e-19)
(0.637 0.25257 -6.41491e-20)
(0.865584 0.424939 1.1804e-18)
(0.914527 0.450102 2.12791e-18)
(0.93058 0.409426 -1.42111e-19)
(0.924861 0.478496 6.3063e-19)
(1.00053 0.373286 -1.44845e-18)
(1.01037 0.440814 -1.46546e-18)
(1.0803 0.327398 -1.63843e-19)
(1.07769 0.405328 -4.01038e-19)
(1.17215 0.275099 3.42986e-19)
(1.16379 0.357615 3.10996e-19)
(1.27659 0.220223 0)
(1.25996 0.305948 -4.09455e-19)
(1.3926 0.166799 -4.63977e-19)
(1.36764 0.252754 0)
(1.51799 0.119109 7.11472e-20)
(1.48573 0.201705 -5.21677e-19)
(1.65046 0.0808261 5.94154e-19)
(1.61359 0.156503 8.08788e-20)
(1.72947 0.129241 -2.65544e-19)
(1.79158 0.065251 -2.10218e-19)
(0.811422 0.355143 2.4116e-18)
(0.687311 0.274701 2.56915e-19)
(0.944061 0.508992 1.57265e-18)
(0.974069 0.519492 1.6924e-18)
(1.00853 0.506146 -3.86306e-19)
(0.997273 0.565875 -6.67587e-22)
(1.07708 0.479365 -5.25446e-19)
(1.08463 0.538739 -1.79841e-18)
(1.15407 0.441397 0)
(1.15093 0.512165 6.83184e-19)
(1.24137 0.39574 -3.67197e-19)
(1.23474 0.470972 0)
(1.33921 0.345638 -4.54287e-19)
(1.32621 0.424517 1.15605e-18)
(1.44683 0.294397 0)
(1.42736 0.374305 -5.96313e-19)
(1.56265 0.246091 -5.79909e-19)
(1.53696 0.323713 0)
(1.68484 0.204473 -7.23246e-19)
(1.65633 0.275739 -6.68286e-21)
(1.76436 0.244761 4.34426e-19)
(1.81248 0.17681 0)
(0.85405 0.413741 -5.98389e-19)
(0.742626 0.320642 -9.16517e-19)
(1.00701 0.589388 2.03062e-19)
(1.02852 0.599791 -1.52193e-19)
(1.07797 0.59721 -1.19304e-18)
(1.06387 0.654135 -1.07083e-18)
(1.14842 0.578137 -8.36296e-19)
(1.15415 0.632786 -9.15398e-19)
(1.22489 0.546637 7.55638e-19)
(1.22107 0.612696 1.02259e-18)
(1.3099 0.506246 1.40802e-18)
(1.30463 0.576275 -4.71826e-19)
(1.40362 0.459808 1.20599e-18)
(1.39358 0.533693 4.68823e-19)
(1.50538 0.410131 -6.62672e-19)
(1.49052 0.485439 4.9581e-19)
(1.61404 0.361133 5.77277e-19)
(1.59365 0.435026 -4.08327e-19)
(1.72895 0.316811 1.10794e-18)
(1.70638 0.384534 1.2195e-18)
(1.80921 0.350283 1.49397e-20)
(1.85176 0.285835 -6.84943e-19)
(0.89856 0.478824 -5.5371e-19)
(0.806348 0.372215 8.40017e-19)
(1.06665 0.6713 -1.33348e-18)
(1.08621 0.678188 -3.01086e-19)
(1.1436 0.686878 -8.492e-19)
(1.13235 0.739991 -1.07054e-18)
(1.21693 0.673288 7.74377e-19)
(1.22349 0.724325 -7.77786e-19)
(1.29447 0.646394 -5.01324e-20)
(1.2915 0.709116 9.69538e-19)
(1.37899 0.609636 -1.51875e-18)
(1.3757 0.675959 9.02846e-19)
(1.47038 0.565461 -2.51277e-19)
(1.46341 0.635674 -1.13446e-18)
(1.56796 0.516384 8.53848e-19)
(1.55744 0.58808 5.88151e-19)
(1.67088 0.466266 5.33537e-20)
(1.65517 0.537286 -4.7157e-20)
(1.77932 0.419446 2.84635e-19)
(1.76189 0.484157 3.00659e-19)
(1.85998 0.447174 -8.00526e-19)
(1.89737 0.385524 -3.06635e-19)
(0.954899 0.533266 1.19096e-18)
(0.849163 0.402672 1.05921e-18)
(1.13019 0.744791 2.26739e-20)
(1.1325 0.741244 3.44392e-19)
(1.21108 0.771921 -1.06928e-18)
(1.19778 0.817732 0)
(1.28663 0.764696 -7.30257e-19)
(1.29225 0.811694 -1.36867e-18)
(1.36574 0.741647 1.9351e-18)
(1.36416 0.801072 9.25932e-19)
(1.45068 0.707189 1.5082e-18)
(1.45013 0.770241 1.38179e-18)
(1.54059 0.663829 -4.79525e-19)
(1.53747 0.730573 9.0582e-19)
(1.6346 0.614362 -2.46128e-19)
(1.6289 0.682258 -1.4483e-18)
(1.73225 0.562707 1.53999e-19)
(1.72155 0.630462 1.37989e-18)
(1.8343 0.513346 -6.38104e-19)
(1.82184 0.57497 -2.92763e-19)
(1.91444 0.534478 -7.3372e-19)
(1.94434 0.475016 1.15076e-18)
(0.995633 0.585979 2.85062e-19)
(0.89852 0.440833 -2.21809e-19)
(1.18707 0.814247 3.65103e-19)
(1.17764 0.806587 3.29503e-19)
(1.27794 0.853864 -1.60617e-19)
(1.26402 0.895192 9.34952e-19)
(1.35879 0.852778 6.63599e-20)
(1.36387 0.897653 -1.84458e-19)
(1.44126 0.832266 3.25885e-19)
(1.44216 0.889258 2.77464e-19)
(1.52748 0.798284 8.26317e-19)
(1.53057 0.858623 -1.17642e-18)
(1.61608 0.754011 1.95679e-19)
(1.61745 0.817365 3.59802e-19)
(1.70628 0.703182 -1.3655e-19)
(1.70533 0.767017 -3.019e-19)
(1.79838 0.649921 1.10372e-18)
(1.79228 0.713796 7.26096e-19)
(1.89404 0.598459 -3.16793e-19)
(1.88534 0.656988 6.35043e-19)
(1.97415 0.613441 -9.8832e-19)
(1.99976 0.555812 -3.00666e-19)
(1.03544 0.641203 -2.37633e-19)
(0.955025 0.482722 -1.05762e-18)
(1.24321 0.88357 8.35461e-19)
(1.22565 0.872478 1.44968e-19)
(1.34746 0.935103 1.04612e-18)
(1.3368 0.971831 8.18281e-19)
(1.43637 0.938334 -3.22103e-20)
(1.44433 0.981264 1.73858e-19)
(1.52365 0.917718 -1.06379e-18)
(1.52998 0.971933 -1.67327e-20)
(1.61102 0.881642 -1.81129e-18)
(1.61965 0.938554 -1.17443e-18)
(1.69709 0.834766 -6.64214e-20)
(1.70384 0.893627 -2.74919e-19)
(1.78204 0.7821 4.43038e-19)
(1.78565 0.840876 4.25688e-19)
(1.86763 0.7278 2.5382e-19)
(1.86543 0.78698 2.89392e-19)
(1.95674 0.675563 1.76162e-19)
(1.95028 0.73109 4.27142e-19)
(2.03653 0.685599 -3.16676e-19)
(2.05585 0.627922 -4.75448e-19)
(1.08321 0.698441 -7.91952e-19)
(1.02041 0.525838 -8.23117e-19)
(1.30679 0.950579 6.41351e-20)
(1.28037 0.934749 1.15554e-18)
(1.42685 1.01284 4.14701e-20)
(1.42125 1.04225 -8.7546e-19)
(1.52513 1.0178 1.95297e-19)
(1.53913 1.05589 -4.38374e-19)
(1.61643 0.993854 0)
(1.63101 1.04212 4.6313e-19)
(1.70233 0.953322 2.51899e-19)
(1.71786 1.00353 3.3003e-19)
(1.78266 0.903363 1.29826e-19)
(1.79467 0.954705 9.30688e-20)
(1.85979 0.849954 2.87331e-19)
(1.86682 0.901515 -2.07039e-19)
(1.93738 0.796566 4.44914e-19)
(1.93771 0.849584 3.24188e-19)
(2.01901 0.746104 1.68347e-20)
(2.01346 0.797611 -2.41107e-19)
(2.09391 0.751926 3.71644e-19)
(2.10619 0.698947 8.774e-19)
(1.14115 0.755468 8.97803e-19)
(1.10306 0.566486 0)
(1.38269 1.0099 4.60958e-19)
(1.35268 0.98945 9.75243e-19)
(1.52138 1.07887 -1.39042e-18)
(1.52501 1.09498 -7.53144e-19)
(1.62889 1.08154 -2.61272e-19)
(1.65242 1.10751 -1.17629e-18)
(1.72035 1.05141 8.03688e-19)
(1.74433 1.08642 1.29365e-18)
(1.79909 1.00632 2.08922e-19)
(1.82017 1.04328 -3.00231e-19)
(1.86888 0.95588 -2.10072e-19)
(1.88336 0.994747 -2.53859e-19)
(1.93558 0.905368 -2.30643e-19)
(1.94316 0.946666 1.68847e-19)
(2.00422 0.856341 -2.97046e-19)
(2.00475 0.901448 -2.74548e-19)
(2.07821 0.809805 4.70944e-20)
(2.07241 0.85686 1.65041e-19)
(2.14701 0.813359 -1.23919e-19)
(2.16028 0.766155 5.35509e-20)
(1.22816 0.810918 -6.96201e-21)
(1.25313 0.596326 2.37698e-18)
(1.48237 1.04843 -8.63315e-21)
(1.45698 1.00294 -1.35975e-19)
(1.63877 1.11641 -5.06227e-19)
(1.65167 1.10979 -3.54056e-20)
(1.74961 1.11186 9.21582e-20)
(1.77881 1.11412 -1.06954e-18)
(1.83125 1.07632 3.96093e-19)
(1.85587 1.08708 8.15874e-19)
(1.89406 1.03246 -7.61859e-19)
(1.91055 1.04771 -6.01931e-19)
(1.94901 0.988829 7.5948e-20)
(1.95742 1.01006 -1.17216e-19)
(2.0044 0.947407 1.74842e-19)
(2.00644 0.97561 2.52436e-19)
(2.06479 0.907322 1.37082e-19)
(2.06126 0.942998 -6.05254e-20)
(2.13268 0.867852 1.35696e-20)
(2.12381 0.91008 1.72984e-19)
(2.19726 0.87155 -1.90266e-19)
(2.19973 0.823422 -1.01986e-19)
(1.27851 0.788757 2.33577e-18)
(1.52724 0.54969 8.26977e-19)
(1.55902 1.04718 -2.02407e-19)
(1.56847 1.02893 -1.95746e-19)
(1.73295 1.09402 -3.76124e-19)
(1.81043 1.00686 -3.32627e-20)
(1.83942 1.08392 -5.64607e-19)
(1.89203 1.01894 -5.88867e-19)
(1.90725 1.05506 8.79045e-21)
(1.93631 1.01542 0)
(1.95688 1.02585 -3.71108e-20)
(1.96819 1.00628 1.82475e-19)
(2.00339 1.00036 1.3893e-20)
(2.00325 0.998087 -8.39172e-21)
(2.05433 0.975517 5.1384e-20)
(2.04826 0.987492 -9.28956e-20)
(2.11159 0.949672 -5.15302e-20)
(2.10082 0.973198 -1.05287e-19)
(2.17723 0.922885 0)
(2.16088 0.956792 1.5912e-19)
(2.23188 0.930963 0)
(2.24908 0.893661 0)
(2.07347 0.88453 -1.36092e-18)
(3.03577 -0.546998 -1.0858e-19)
(2.12796 0.854184 8.88876e-20)
(1.38376 0.254537 6.56127e-20)
(2.12647 0.915288 -8.36235e-20)
(1.44559 0.365778 -2.19526e-19)
(2.09571 0.935917 -1.06229e-19)
(1.60047 0.454647 3.48476e-19)
(2.05921 0.954326 1.48961e-19)
(1.69674 0.545825 0)
(2.04322 0.975811 2.32874e-19)
(1.78714 0.638906 1.60241e-19)
(2.05774 0.986622 -7.95685e-20)
(1.8867 0.725742 6.0384e-20)
(2.09406 0.986404 -2.35292e-19)
(1.9782 0.799067 -3.13602e-20)
(2.14372 0.980655 6.94393e-20)
(2.05821 0.855026 1.65588e-19)
(2.20551 0.972725 1.76855e-19)
(2.13478 0.897896 -1.58872e-19)
(2.22063 0.936188 0)
(2.26765 0.965876 0)
(6.81492 -2.95708 -3.69365e-19)
(7.56227 -4.11729 2.90367e-17)
(6.38024 -3.32662 -1.98141e-18)
(6.24617 -1.20217 -1.42236e-17)
(6.03916 -3.04349 -1.16348e-19)
(6.62533 -1.90353 4.35987e-18)
(5.45629 -2.53969 5.59164e-20)
(6.3143 -1.88349 -3.42947e-18)
(4.90531 -2.04657 -7.80977e-20)
(5.66283 -1.65404 -8.89969e-20)
(4.47286 -1.65059 -6.70174e-20)
(5.02099 -1.4141 4.71521e-19)
(4.13632 -1.33345 -7.83313e-20)
(4.54203 -1.19372 -4.2404e-19)
(3.86449 -1.08299 -4.25338e-20)
(4.16672 -0.988423 -1.59663e-22)
(3.63951 -0.885616 -7.00319e-21)
(3.86678 -0.81236 -5.32452e-20)
(3.4504 -0.730557 1.48336e-19)
(3.62294 -0.666892 4.04202e-20)
(3.42017 -0.554633 5.38325e-20)
(3.26778 -0.605398 -1.75713e-20)
(4.98527 -0.699052 6.80486e-18)
(4.39802 -2.24903 2.23841e-17)
(6.06429 -0.839077 -8.66541e-18)
(4.58922 0.418684 9.59747e-19)
(6.39851 -1.0698 1.9708e-18)
(6.10571 -0.150906 -4.55537e-18)
(6.22713 -1.21784 -3.41691e-18)
(6.44859 -0.396903 -2.94225e-18)
(5.6961 -1.2177 4.75436e-19)
(6.17616 -0.502746 -2.65505e-19)
(5.09233 -1.10025 5.35369e-19)
(5.58776 -0.597278 6.00814e-19)
(4.59271 -0.93632 -3.75268e-19)
(5.00149 -0.615622 -3.17644e-19)
(4.19034 -0.772989 -6.75659e-21)
(4.51247 -0.563116 -9.57393e-20)
(3.86874 -0.63195 0)
(4.11528 -0.484111 2.07222e-19)
(3.60812 -0.519876 -3.48076e-20)
(3.79528 -0.402897 -1.9316e-19)
(3.5391 -0.336558 -4.88808e-22)
(3.35824 -0.432007 -5.86645e-20)
(3.18474 -0.178309 9.68432e-18)
(2.13512 -1.67346 8.60667e-18)
(4.69949 0.566785 6.11847e-18)
(2.99664 0.667304 1.0668e-17)
(5.63136 0.561638 -8.61936e-18)
(4.80527 0.837555 -7.68285e-18)
(6.03464 0.288398 -1.77242e-19)
(5.65211 0.846153 1.00467e-19)
(5.90976 -0.0151538 -2.53383e-19)
(5.91502 0.691053 -9.7114e-20)
(5.44007 -0.232802 1.80552e-19)
(5.66962 0.392248 3.26728e-20)
(4.91668 -0.328377 -2.61236e-20)
(5.18861 0.13764 4.57995e-20)
(4.45106 -0.330763 8.23436e-20)
(4.71033 0.000304539 -4.9064e-20)
(4.06142 -0.294707 1.93366e-19)
(4.27967 -0.0595835 2.02224e-19)
(3.74639 -0.24558 -1.79547e-19)
(3.92036 -0.0744453 -1.7244e-19)
(3.63178 -0.0749073 2.08436e-19)
(3.46678 -0.20085 -2.09786e-20)
(1.85803 -0.639361 9.27072e-18)
(0.593025 -1.90977 -5.14881e-18)
(3.36932 0.772959 3.88959e-19)
(1.96556 0.169555 4.99458e-18)
(4.55342 1.31952 0)
(3.59395 1.07985 -5.76045e-18)
(5.30678 1.34295 2.75973e-19)
(4.62395 1.52139 1.04273e-17)
(5.56187 1.08105 1.9744e-19)
(5.23423 1.55251 -3.00253e-18)
(5.37138 0.707376 -1.84672e-19)
(5.31951 1.26434 -1.65212e-19)
(4.97784 0.400235 7.47826e-20)
(5.05348 0.892858 -1.10266e-18)
(4.55513 0.218284 9.40753e-20)
(4.69173 0.613835 4.52954e-19)
(4.16058 0.120202 3.61775e-20)
(4.30683 0.4207 -1.25594e-18)
(3.82582 0.0724961 1.95189e-19)
(3.95379 0.299998 -1.16849e-19)
(3.65835 0.223474 5.6637e-19)
(3.50471 0.0341768 -2.03189e-19)
(0.893871 -1.36298 -1.12032e-17)
(-0.363285 -2.48663 -1.19167e-17)
(2.32463 0.414072 -9.45601e-21)
(1.2939 -0.469288 4.63934e-18)
(3.55876 1.43359 3.50885e-18)
(2.672 0.930086 -6.6154e-18)
(4.45541 1.85331 8.12115e-18)
(3.726 1.74574 8.1456e-18)
(4.93597 1.8116 -3.66072e-18)
(4.47614 2.03161 -4.6816e-18)
(4.98931 1.47212 -9.75269e-19)
(4.75982 1.87321 -7.57737e-19)
(4.77927 1.0859 -8.95116e-19)
(4.69198 1.51018 -7.68635e-19)
(4.46924 0.783374 -5.16153e-19)
(4.47708 1.17043 4.22393e-18)
(4.13045 0.567722 -1.69248e-18)
(4.18623 0.890239 -2.86021e-18)
(3.81495 0.42371 -6.25058e-20)
(3.8832 0.681574 6.82872e-19)
(3.60423 0.538605 3.94085e-19)
(3.4994 0.30056 2.84524e-19)
(0.209243 -1.98979 1.44376e-18)
(-0.89126 -3.06697 -3.39507e-18)
(1.54584 -0.0414052 -6.86448e-19)
(0.766317 -1.03703 3.34402e-18)
(2.74691 1.26668 -2.70291e-18)
(1.94894 0.635616 -5.7159e-18)
(3.6788 1.99972 -3.53403e-18)
(2.99776 1.72448 2.65494e-18)
(4.26001 2.19413 -2.2101e-18)
(3.78655 2.24044 6.44301e-20)
(4.46699 1.98147 -4.3734e-19)
(4.16444 2.23684 -2.14306e-20)
(4.41289 1.62141 3.8487e-18)
(4.23077 1.94766 2.33211e-18)
(4.22724 1.27653 2.98996e-18)
(4.14011 1.61077 3.05859e-18)
(3.97511 0.990076 -1.05138e-18)
(3.95031 1.29536 -1.58828e-18)
(3.71179 0.769617 9.31155e-19)
(3.71659 1.03024 5.96776e-19)
(3.47541 0.835624 0)
(3.41495 0.565224 0)
(-0.252847 -2.49597 -2.90561e-18)
(-1.21651 -3.54498 -5.8848e-18)
(0.962291 -0.480951 -7.43214e-19)
(0.328703 -1.50826 4.10013e-19)
(2.09521 1.01223 -1.28997e-18)
(1.36458 0.305354 -2.791e-18)
(3.01618 1.96987 6.35669e-18)
(2.39574 1.58965 1.55592e-18)
(3.6322 2.35461 2.19867e-18)
(3.18263 2.2907 4.83519e-18)
(3.92183 2.27766 2.70079e-18)
(3.60167 2.42655 -2.38401e-18)
(3.97572 1.98861 1.43271e-18)
(3.74975 2.22652 3.15027e-18)
(3.8934 1.65661 -8.7059e-19)
(3.74881 1.92753 -3.50734e-18)
(3.72758 1.34484 -2.74154e-19)
(3.64498 1.6136 8.44254e-19)
(3.52664 1.08099 -3.33119e-19)
(3.48253 1.32318 5.25426e-19)
(3.29126 1.07924 -8.43635e-20)
(3.29374 0.830292 -3.74793e-19)
(-0.59068 -2.89213 -3.86338e-18)
(-1.41639 -3.89496 -1.63868e-19)
(0.508078 -0.865361 -1.10211e-18)
(-0.032696 -1.89097 -5.62389e-18)
(1.56575 0.745517 -3.86295e-19)
(0.885611 -0.0171017 4.16772e-18)
(2.45682 1.86462 -2.40376e-19)
(1.88719 1.40626 -4.63634e-18)
(3.07583 2.39324 1.10846e-18)
(2.65232 2.25035 3.44521e-18)
(3.40532 2.43051 -2.36508e-18)
(3.08608 2.50129 -4.49977e-18)
(3.52654 2.21827 -1.06515e-18)
(3.28325 2.38521 1.24612e-18)
(3.52097 1.92464 -2.19357e-18)
(3.34384 2.13613 -2.51892e-18)
(3.42877 1.61825 1.62045e-18)
(3.30726 1.84369 -1.49166e-20)
(3.28465 1.33816 8.60093e-19)
(3.20974 1.55449 7.30923e-19)
(3.07939 1.2928 -1.18787e-18)
(3.08515 1.06542 -5.8863e-20)
(-0.846672 -3.18964 -1.06266e-18)
(-1.54478 -4.14266 1.30692e-19)
(0.138558 -1.19823 -1.14322e-18)
(-0.336465 -2.20324 -2.64318e-18)
(1.12044 0.481712 8.83402e-19)
(0.482179 -0.323197 1.96114e-18)
(1.97405 1.71883 -1.68903e-18)
(1.44581 1.19735 -1.4751e-18)
(2.58198 2.35861 -1.31229e-18)
(2.18049 2.15199 7.54602e-19)
(2.92937 2.48915 -1.37634e-18)
(2.61634 2.49701 -1.49425e-18)
(3.09156 2.34606 1.49384e-19)
(2.84305 2.45546 1.05016e-18)
(3.13991 2.09597 -6.51144e-19)
(2.94566 2.25672 1.28051e-18)
(3.10805 1.81174 -9.48167e-19)
(2.9604 1.99416 -7.80758e-19)
(3.02318 1.532 -1.03736e-18)
(2.91487 1.71726 8.63237e-19)
(2.83262 1.45187 -1.61564e-18)
(2.87447 1.22774 -6.74603e-19)
(-1.05116 -3.40954 -9.16594e-19)
(-1.63053 -4.30902 -8.36789e-19)
(-0.171648 -1.48776 0)
(-0.598574 -2.46792 -2.15532e-18)
(0.735058 0.222181 0)
(0.135908 -0.61658 1.61232e-18)
(1.54737 1.54441 7.52697e-19)
(1.05414 0.969977 0)
(2.13802 2.27229 7.33928e-19)
(1.75429 2.01108 8.42177e-19)
(2.49244 2.48066 7.01357e-19)
(2.18655 2.43472 -7.98317e-19)
(2.68045 2.39846 2.10388e-18)
(2.43148 2.45894 9.29719e-19)
(2.76664 2.19084 1.3376e-18)
(2.56329 2.30752 2.21859e-18)
(2.78048 1.9335 8.08471e-19)
(2.61739 2.07768 -1.40615e-18)
(2.7421 1.66651 5.92638e-19)
(2.61566 1.82059 1.33586e-18)
(2.57763 1.55854 -5.63482e-19)
(2.65251 1.37725 2.67858e-18)
(-1.21578 -3.59025 -1.94805e-18)
(-1.72434 -4.43084 6.21616e-19)
(-0.439283 -1.7622 -8.20157e-19)
(-0.836986 -2.70817 -2.1711e-18)
(0.390193 -0.0457725 1.78324e-18)
(-0.167748 -0.905398 3.07483e-18)
(1.15799 1.339 0)
(0.696353 0.721792 -2.15778e-18)
(1.72973 2.14105 -6.05894e-19)
(1.36115 1.83168 8.0799e-19)
(2.0874 2.4184 -7.48645e-19)
(1.78903 2.32455 -7.27954e-19)
(2.29382 2.39145 9.03556e-19)
(2.04675 2.40884 -7.0962e-19)
(2.40823 2.22435 -1.40155e-19)
(2.20039 2.30162 1.55746e-18)
(2.45832 1.99556 -1.19697e-18)
(2.28546 2.10445 -1.99529e-18)
(2.46019 1.74614 4.04727e-19)
(2.3204 1.87038 1.7041e-18)
(2.32195 1.62672 -1.26069e-19)
(2.41201 1.47915 7.47304e-19)
(-1.361 -3.75099 6.85946e-19)
(-1.82528 -4.52566 1.37135e-20)
(-0.676393 -2.01744 1.30979e-18)
(-1.04592 -2.91458 4.32687e-19)
(0.0783523 -0.313486 -2.95184e-19)
(-0.430128 -1.17661 1.27134e-19)
(0.800507 1.11048 -1.61286e-18)
(0.365769 0.460711 -1.16118e-18)
(1.35199 1.97303 8.52851e-19)
(0.995265 1.62034 -5.67977e-19)
(1.71034 2.3118 -6.87594e-19)
(1.41849 2.17373 4.8003e-19)
(1.93076 2.33543 -2.86459e-19)
(1.68569 2.31335 -1.03903e-18)
(2.0676 2.20648 8.06074e-20)
(1.85699 2.24754 5.45168e-19)
(2.14767 2.00634 4.58687e-19)
(1.96789 2.08187 2.15866e-19)
(2.1856 1.77783 1.36784e-18)
(2.03476 1.87126 8.60485e-19)
(2.07338 1.64399 -1.06732e-18)
(2.18775 1.53676 -3.83277e-19)
(-1.49586 -3.87602 -2.84299e-19)
(-1.89898 -4.59893 -7.4379e-19)
(-0.896367 -2.23853 -7.23507e-19)
(-1.22566 -3.09149 3.99738e-21)
(-0.20766 -0.577469 -5.80858e-19)
(-0.666374 -1.44886 -1.11332e-19)
(0.467617 0.860374 -1.26657e-19)
(0.0538755 0.180973 -1.02377e-18)
(0.998215 1.77072 -1.0006e-18)
(0.64897 1.37556 -7.07543e-19)
(1.35583 2.16537 2.94609e-19)
(1.06846 1.98479 5.31824e-19)
(1.5881 2.23634 -3.62294e-19)
(1.34338 2.17681 7.27804e-19)
(1.74448 2.14346 7.17302e-19)
(1.53076 2.15044 -8.19509e-19)
(1.85103 1.97131 5.47375e-19)
(1.66519 2.01506 8.15141e-19)
(1.92038 1.76465 -1.35047e-18)
(1.76132 1.82882 -1.2034e-19)
(1.83897 1.6183 -1.1926e-18)
(1.95896 1.53967 7.76172e-19)
(-1.61146 -3.99483 -5.33668e-19)
(-1.95297 -4.67816 3.43355e-22)
(-1.0867 -2.4606 6.24699e-19)
(-1.3934 -3.26226 -1.96277e-18)
(-0.469095 -0.861287 -4.61387e-19)
(-0.887951 -1.72373 1.24812e-18)
(0.157543 0.577149 -1.62914e-18)
(-0.241027 -0.126103 -1.7776e-18)
(0.660832 1.53155 7.48131e-19)
(0.320262 1.10058 1.26263e-18)
(1.01672 1.97932 9.43989e-19)
(0.731364 1.75693 -2.44753e-20)
(1.2607 2.09628 4.23936e-19)
(1.01378 1.99926 8.76317e-19)
(1.43626 2.03845 -8.97721e-19)
(1.21776 2.01169 -8.22168e-19)
(1.56857 1.89386 2.66438e-19)
(1.37598 1.90598 1.31687e-20)
(1.66884 1.70936 1.38073e-19)
(1.50073 1.74459 2.83553e-19)
(1.61304 1.5558 1.30247e-19)
(1.74527 1.51922 -1.0759e-19)
(-1.72402 -4.1054 -1.23236e-18)
(-1.99137 -4.75048 1.29922e-19)
(-1.26637 -2.67297 -1.63622e-18)
(-1.54864 -3.41584 -1.60897e-18)
(-0.720012 -1.14949 2.54399e-19)
(-1.09742 -1.98799 1.19286e-18)
(-0.148016 0.273548 8.35485e-19)
(-0.518698 -0.445653 -4.41112e-19)
(0.334984 1.25849 6.24485e-19)
(0.00362163 0.785122 1.27442e-18)
(0.688192 1.75379 -1.88315e-19)
(0.401256 1.48785 -4.57702e-20)
(0.943893 1.91502 -1.99693e-19)
(0.690809 1.77804 -4.15273e-19)
(1.13991 1.89176 0)
(0.913355 1.82875 0)
(1.29913 1.77506 0)
(1.09793 1.75337 0)
(1.43086 1.61534 2.70818e-19)
(1.25407 1.61873 0)
(1.40334 1.45879 3.05631e-19)
(1.53729 1.45118 -1.05714e-19)
(-1.83188 -4.20202 -7.63342e-20)
(-2.0209 -4.81142 -8.70367e-19)
(-1.43305 -2.87417 9.5683e-19)
(-1.69192 -3.56353 6.7672e-19)
(-0.954699 -1.44217 6.61619e-19)
(-1.29715 -2.25085 8.01331e-19)
(-0.438057 -0.057261 -1.51641e-19)
(-0.78828 -0.78544 -7.89398e-19)
(0.0138984 0.944948 7.19019e-19)
(-0.310003 0.434312 5.54982e-19)
(0.362808 1.48342 -2.47669e-19)
(0.0706569 1.17113 -1.7664e-19)
(0.631318 1.68745 -2.6034e-19)
(0.366686 1.50539 -4.29713e-19)
(0.851197 1.69927 0)
(0.611509 1.59416 0)
(1.04124 1.61231 0)
(0.82748 1.55147 3.319e-20)
(1.20839 1.47981 0)
(1.01909 1.44697 -1.62263e-19)
(1.21309 1.31065 0)
(1.36522 1.36356 0)
(-1.93452 -4.29594 -2.27591e-19)
(-2.05545 -4.86812 -1.68375e-18)
(-1.59126 -3.07547 5.09967e-19)
(-1.83122 -3.71103 1.39231e-18)
(-1.18138 -1.7455 -4.84558e-19)
(-1.49241 -2.51566 -1.16901e-19)
(-0.726545 -0.418191 -2.23759e-19)
(-1.05702 -1.14694 -4.13378e-19)
(-0.310389 0.585101 -2.86113e-19)
(-0.63059 0.0395249 -1.07136e-19)
(0.0317733 1.15837 -3.45714e-19)
(-0.270739 0.795188 1.6565e-19)
(0.315153 1.40298 -2.15753e-19)
(0.0325415 1.16722 3.2178e-19)
(0.564903 1.45172 2.96117e-20)
(0.305643 1.2935 0)
(0.79158 1.39938 -1.02947e-19)
(0.560706 1.28962 1.84328e-19)
(0.995616 1.29884 -1.80933e-19)
(0.792191 1.22475 1.05676e-20)
(1.03588 1.12848 0)
(1.17904 1.19157 -4.38642e-19)
(-2.03705 -4.39042 -2.5146e-19)
(-2.09824 -4.92212 -8.08552e-19)
(-1.74825 -3.27777 9.18653e-19)
(-1.97467 -3.85628 6.28236e-19)
(-1.4079 -2.06026 -1.5541e-20)
(-1.69213 -2.78179 6.66894e-19)
(-1.02197 -0.812187 -3.1386e-19)
(-1.3353 -1.53006 -3.50119e-19)
(-0.649193 0.170231 3.33786e-19)
(-0.969679 -0.40758 2.54275e-20)
(-0.316589 0.763397 8.20408e-19)
(-0.634523 0.342617 3.19584e-19)
(-0.0114295 1.04376 5.75737e-19)
(-0.31914 0.737601 -4.95433e-20)
(0.276157 1.13381 1.34597e-19)
(-0.00907041 0.904544 -1.10197e-19)
(0.54651 1.12591 3.01041e-19)
(0.294075 0.950656 -5.21353e-20)
(0.791896 1.06944 1.75238e-19)
(0.570233 0.93996 1.57929e-19)
(0.867659 0.898969 0)
(1.0104 1.0219 0)
(-2.14461 -4.48441 0)
(-2.14634 -4.96093 -4.06264e-19)
(-1.91245 -3.48206 3.77769e-19)
(-2.13488 -3.99721 5.95454e-19)