/*--------------------------------*- C++ -*----------------------------------*\
| =========                 |                                                 |
| \\      /  F ield         | OpenFOAM: The Open Source CFD Toolbox           |
|  \\    /   O peration     | Version:  3.0.1                                 |
|   \\  /    A nd           | Web:      www.OpenFOAM.org                      |
|    \\/     M anipulation  |                                                 |
\*---------------------------------------------------------------------------*/
FoamFile
{
    version     2.0;
    format      ascii;
    class       surfaceScalarField;
    location    "0.422223";
    object      phi;
}
// * * * * * * * * * * * * * * * * * * * * * * * * * * * * * * * * * * * * * //

dimensions      [0 3 -1 0 0 0 0];

internalField   nonuniform List<scalar> 
32369
(
2.92012e-06
6.87374e-06
-9.79387e-06
4.3339e-06
7.90971e-06
-9.32349e-06
4.00031e-06
1.0697e-05
-1.03634e-05
2.5712e-06
1.32888e-05
-1.18597e-05
2.9773e-07
1.56864e-05
-1.3413e-05
-2.66632e-06
1.79456e-05
-1.49816e-05
-6.06998e-06
2.04065e-05
-1.70028e-05
-9.74363e-06
2.35399e-05
-1.98662e-05
-1.38277e-05
2.80618e-05
-2.39777e-05
-1.85538e-05
3.45441e-05
-2.9818e-05
4.36751e-05
-3.80755e-05
-2.41535e-05
3.40032e-06
3.47343e-06
5.43848e-06
5.87154e-06
6.70237e-06
9.43311e-06
7.10873e-06
1.28825e-05
6.40794e-06
1.63872e-05
4.49728e-06
1.98563e-05
1.62843e-06
2.32753e-05
-1.82695e-06
2.69953e-05
-5.72041e-06
3.19553e-05
-1.01443e-05
3.8968e-05
4.89142e-05
-1.53833e-05
2.01087e-06
1.46256e-06
3.58413e-06
4.29829e-06
5.20725e-06
7.81e-06
6.45603e-06
1.16337e-05
6.97351e-06
1.58697e-05
6.50542e-06
2.03244e-05
5.02271e-06
2.47581e-05
2.75049e-06
2.92675e-05
-9.78924e-08
3.48037e-05
-3.35615e-06
4.22263e-05
5.26584e-05
-7.10039e-06
9.70219e-07
4.92337e-07
2.09872e-06
3.16978e-06
3.48686e-06
6.42185e-06
4.83737e-06
1.02832e-05
5.90254e-06
1.48046e-05
6.42618e-06
1.98007e-05
6.21073e-06
2.49735e-05
5.20887e-06
3.02693e-05
3.70672e-06
3.63058e-05
1.83832e-06
4.40947e-05
5.47746e-05
-2.77898e-07
1.74336e-07
3.18001e-07
9.2288e-07
2.42124e-06
1.98643e-06
5.3583e-06
3.20259e-06
9.06704e-06
4.42898e-06
1.35782e-05
5.47521e-06
1.87545e-05
6.13212e-06
2.43166e-05
6.27778e-06
3.01237e-05
5.98152e-06
3.66021e-05
5.40872e-06
4.46675e-05
5.54623e-05
4.72103e-06
-2.48383e-07
5.66384e-07
1.06128e-07
2.06673e-06
8.695e-07
4.59493e-06
1.88742e-06
8.04913e-06
3.08659e-06
1.2379e-05
4.35743e-06
1.74836e-05
5.53753e-06
2.31365e-05
6.47642e-06
2.91848e-05
7.13232e-06
3.59462e-05
7.59426e-06
4.42055e-05
5.50382e-05
8.01836e-06
-3.27324e-07
8.93707e-07
-3.32197e-07
2.0716e-06
9.45414e-08
4.16819e-06
8.97556e-07
7.24611e-06
1.97329e-06
1.13033e-05
3.29226e-06
1.61647e-05
4.74314e-06
2.16856e-05
6.178e-06
2.77499e-05
7.50128e-06
3.46229e-05
8.73135e-06
4.29755e-05
5.38023e-05
9.96722e-06
-3.34803e-07
1.22851e-06
-5.11633e-07
2.24843e-06
-3.7461e-07
4.03117e-06
1.95889e-07
6.67561e-06
1.11434e-06
1.03848e-05
2.38499e-06
1.4894e-05
3.94468e-06
2.01259e-05
5.66375e-06
2.60309e-05
7.42672e-06
3.28599e-05
9.22189e-06
4.11803e-05
5.19029e-05
1.11214e-05
-2.92375e-07
1.52088e-06
-4.9827e-07
2.45433e-06
-5.08748e-07
4.04165e-06
-1.52532e-07
6.3194e-06
6.21232e-07
9.61105e-06
1.81129e-06
1.3704e-05
3.38145e-06
1.85558e-05
5.22642e-06
2.41859e-05
7.24314e-06
3.08432e-05
9.35924e-06
3.90642e-05
4.96656e-05
1.15965e-05
-2.07128e-07
1.72801e-06
-3.71105e-07
2.6183e-06
-3.98535e-07
4.06908e-06
-1.39718e-07
6.06058e-06
5.3272e-07
8.93862e-06
1.64518e-06
1.25915e-05
3.17299e-06
1.7028e-05
5.04051e-06
2.23184e-05
7.15046e-06
2.87332e-05
9.44495e-06
3.67697e-05
4.71967e-05
1.19138e-05
-1.15015e-07
1.84303e-06
-2.10904e-07
2.71419e-06
-1.92761e-07
4.05093e-06
5.20223e-08
5.8158e-06
6.76172e-07
8.31447e-06
1.72674e-06
1.15409e-05
3.2017e-06
1.5553e-05
5.04573e-06
2.04744e-05
7.18427e-06
2.65947e-05
9.55706e-06
3.43969e-05
4.45652e-05
1.21886e-05
-4.66399e-08
1.88967e-06
-7.96073e-08
2.74716e-06
9.83149e-09
3.96149e-06
2.91309e-07
5.53432e-06
9.10392e-07
7.69538e-06
1.92687e-06
1.05245e-05
3.35755e-06
1.41223e-05
5.17367e-06
1.86582e-05
7.32029e-06
2.44481e-05
9.74387e-06
3.19733e-05
4.1915e-05
1.2394e-05
2.97297e-08
1.85994e-06
7.5689e-08
2.7012e-06
2.57014e-07
3.78017e-06
6.12551e-07
5.17878e-06
1.26016e-06
7.04778e-06
2.26937e-06
9.51524e-06
3.67265e-06
1.2719e-05
5.4635e-06
1.68674e-05
7.61812e-06
2.22935e-05
1.00936e-05
2.94979e-05
3.91614e-05
1.28472e-05
1.24149e-07
1.73579e-06
2.62143e-07
2.56321e-06
5.38928e-07
3.50338e-06
9.79758e-07
4.73795e-06
1.67773e-06
6.3498e-06
2.70604e-06
8.48694e-06
4.11294e-06
1.13121e-05
5.91174e-06
1.50686e-05
8.0904e-06
2.01148e-05
1.06034e-05
2.69849e-05
3.63717e-05
1.33931e-05
1.83081e-07
1.55271e-06
3.84757e-07
2.36153e-06
7.40027e-07
3.14811e-06
1.25497e-06
4.223e-06
2.01041e-06
5.59436e-06
3.08159e-06
7.41576e-06
4.52652e-06
9.8672e-06
6.37894e-06
1.32162e-05
8.62942e-06
1.78643e-05
1.12403e-05
2.43741e-05
3.34599e-05
1.41521e-05
2.35584e-07
1.31712e-06
4.90908e-07
2.10621e-06
9.08027e-07
2.731e-06
1.48777e-06
3.64326e-06
2.30165e-06
4.78048e-06
3.43363e-06
6.28378e-06
4.95877e-06
8.34206e-06
6.92079e-06
1.12542e-05
9.31237e-06
1.54727e-05
1.20881e-05
2.15983e-05
3.03548e-05
1.51933e-05
2.87666e-07
1.02946e-06
5.88674e-07
1.8052e-06
1.0484e-06
2.27127e-06
1.67389e-06
3.01778e-06
2.5433e-06
3.91107e-06
3.75706e-06
5.07001e-06
5.41132e-06
6.68781e-06
7.55518e-06
9.11029e-06
1.01646e-05
1.28633e-05
1.3146e-05
1.86169e-05
2.71236e-05
1.63772e-05
3.09802e-07
7.19656e-07
6.22729e-07
1.49227e-06
1.09198e-06
1.80202e-06
1.73097e-06
2.37879e-06
2.64293e-06
2.99911e-06
3.96972e-06
3.74322e-06
5.83143e-06
4.82611e-06
8.26036e-06
6.68136e-06
1.11832e-05
9.94046e-06
1.44614e-05
1.53387e-05
2.35655e-05
1.80195e-05
3.06653e-07
4.13004e-07
5.96638e-07
1.20229e-06
1.02142e-06
1.37723e-06
1.62027e-06
1.77994e-06
2.57028e-06
2.0491e-06
4.08163e-06
2.23187e-06
6.27528e-06
2.63246e-06
9.1228e-06
3.83384e-06
1.24674e-05
6.59587e-06
1.61336e-05
1.16724e-05
1.96721e-05
2.0027e-05
2.73776e-07
1.39228e-07
4.63239e-07
1.01282e-06
6.92586e-07
1.14789e-06
1.15329e-06
1.31924e-06
2.18912e-06
1.01326e-06
4.07112e-06
3.49865e-07
6.81842e-06
-1.14843e-07
1.02464e-05
4.05865e-07
1.40806e-05
2.76165e-06
1.81346e-05
7.61844e-06
1.54342e-05
2.23725e-05
1.88745e-08
1.20353e-07
-1.91237e-07
1.22293e-06
-3.021e-07
1.25875e-06
4.46048e-07
5.71093e-07
2.26261e-06
-8.03301e-07
5.00999e-06
-2.39751e-06
8.36298e-06
-3.46784e-06
1.21053e-05
-3.33644e-06
1.61782e-05
-1.31125e-06
2.05208e-05
3.27581e-06
1.08124e-05
2.51427e-05
-1.17775e-06
1.2981e-06
-9.66297e-07
1.01148e-06
3.12635e-07
-2.01801e-08
2.7638e-06
-1.88007e-06
5.67155e-06
-3.71105e-06
8.70142e-06
-5.42738e-06
1.19227e-05
-6.68916e-06
1.54473e-05
-6.86104e-06
1.9259e-05
-5.12292e-06
2.33727e-05
-8.37826e-07
6.12361e-06
2.80614e-05
4.03844e-07
8.94257e-07
2.86275e-06
-1.44743e-06
5.54112e-06
-2.69855e-06
8.02252e-06
-4.36146e-06
1.04445e-05
-6.13303e-06
1.28454e-05
-7.82831e-06
1.53951e-05
-9.23887e-06
1.841e-05
-9.87594e-06
2.211e-05
-8.82287e-06
2.63139e-05
-5.04174e-06
1.40466e-06
3.10329e-05
5.77956e-06
-4.8853e-06
8.12563e-06
-3.7935e-06
1.02136e-05
-4.78657e-06
1.19059e-05
-6.05376e-06
1.32387e-05
-7.46575e-06
1.44291e-05
-9.01876e-06
1.57757e-05
-1.05854e-05
1.77305e-05
-1.18308e-05
2.09285e-05
-1.20208e-05
2.57333e-05
-9.84655e-06
-4.61805e-06
3.1756e-05
-3.69625e-06
-6.09762e-06
-5.89345e-06
-7.12629e-06
-7.67693e-06
-8.57993e-06
-9.49302e-06
-1.00436e-05
-1.14844e-05
-1.14215e-05
-1.3715e-05
-1.2751e-05
-1.63714e-05
-1.43465e-05
-1.95725e-05
-1.66651e-05
-2.34196e-05
-2.01306e-05
-2.80376e-05
-2.52001e-05
-3.25587e-05
-3.35544e-05
-2.59871e-06
-3.49891e-06
-4.87572e-06
-4.84928e-06
-6.92004e-06
-6.53561e-06
-8.86968e-06
-8.094e-06
-1.08906e-05
-9.4006e-06
-1.32415e-05
-1.04001e-05
-1.62177e-05
-1.13703e-05
-1.99953e-05
-1.28876e-05
-2.46777e-05
-1.54481e-05
-3.0445e-05
-1.94328e-05
-2.54197e-05
-3.75839e-05
-6.63613e-07
-2.83529e-06
-1.82576e-06
-3.68713e-06
-3.32051e-06
-5.04087e-06
-5.07079e-06
-6.34371e-06
-7.08395e-06
-7.38745e-06
-9.57324e-06
-7.91076e-06
-1.29059e-05
-8.03765e-06
-1.73237e-05
-8.46983e-06
-2.28488e-05
-9.92299e-06
-2.96102e-05
-1.26714e-05
-1.71617e-05
-3.78683e-05
9.07908e-08
-2.92608e-06
-1.63054e-07
-3.43328e-06
-7.87205e-07
-4.41672e-06
-1.82184e-06
-5.30908e-06
-3.25761e-06
-5.95168e-06
-5.25607e-06
-5.9123e-06
-8.2895e-06
-5.00422e-06
-1.2901e-05
-3.85835e-06
-1.90357e-05
-3.7883e-06
-2.64921e-05
-5.21488e-06
-7.92306e-06
-3.57308e-05
2.58168e-07
-3.18425e-06
4.19249e-07
-3.59436e-06
4.12011e-07
-4.40948e-06
1.07939e-07
-5.00501e-06
-5.37259e-07
-5.30648e-06
-1.59351e-06
-4.85605e-06
-3.41726e-06
-3.18047e-06
-6.99242e-06
-2.83184e-07
-1.30163e-05
2.23555e-06
-2.09241e-05
2.69293e-06
1.3906e-06
-3.02378e-05
2.92629e-07
-3.47688e-06
5.88416e-07
-3.89015e-06
8.51825e-07
-4.67289e-06
9.77665e-07
-5.13085e-06
9.02261e-07
-5.23108e-06
5.53597e-07
-4.50739e-06
-2.68198e-07
-2.35867e-06
-2.29083e-06
1.73945e-06
-6.85012e-06
6.79484e-06
-1.43949e-05
1.02377e-05
1.09403e-05
-2.39445e-05
2.76846e-07
-3.75373e-06
6.22227e-07
-4.23553e-06
9.94389e-07
-5.04505e-06
1.33843e-06
-5.47488e-06
1.61654e-06
-5.50919e-06
1.74583e-06
-4.63669e-06
1.53454e-06
-2.14738e-06
5.94137e-07
2.67986e-06
-2.16495e-06
9.55393e-06
-8.20492e-06
1.62776e-05
1.98905e-05
-1.71551e-05
2.61809e-07
-4.01553e-06
6.21895e-07
-4.59562e-06
1.02434e-06
-5.44749e-06
1.45177e-06
-5.90231e-06
1.91057e-06
-5.96799e-06
2.3703e-06
-5.09642e-06
2.70849e-06
-2.48558e-06
2.57137e-06
2.81698e-06
1.2218e-06
1.09035e-05
-2.80716e-06
2.03066e-05
2.75932e-05
-1.05099e-05
2.35831e-07
-4.25137e-06
5.64244e-07
-4.92403e-06
9.3828e-07
-5.82153e-06
1.36539e-06
-6.32942e-06
1.87428e-06
-6.47688e-06
2.49019e-06
-5.71233e-06
3.19829e-06
-3.19367e-06
3.74123e-06
2.27404e-06
3.48041e-06
1.11643e-05
1.34086e-06
2.24462e-05
3.30441e-05
-4.11e-06
1.60444e-07
-4.41181e-06
4.44166e-07
-5.20775e-06
7.60815e-07
-6.13818e-06
1.114e-06
-6.68261e-06
1.56062e-06
-6.9235e-06
2.16067e-06
-6.31238e-06
3.00207e-06
-4.03507e-06
4.01348e-06
1.26262e-06
4.62773e-06
1.05501e-05
3.97627e-06
2.30976e-05
3.63578e-05
6.62614e-07
9.03552e-08
-4.50217e-06
3.60566e-07
-5.47796e-06
4.46485e-07
-6.2241e-06
6.84031e-07
-6.92015e-06
9.83195e-07
-7.22267e-06
1.41735e-06
-6.74653e-06
2.14052e-06
-4.75824e-06
3.33566e-06
6.74778e-08
4.62648e-06
9.25924e-06
5.17188e-06
2.25522e-05
3.74603e-05
4.06938e-06
1.61563e-08
-4.51832e-06
6.97226e-08
-5.53153e-06
1.24358e-07
-6.27873e-06
1.71415e-07
-6.96721e-06
2.37306e-07
-7.28856e-06
3.64247e-07
-6.87347e-06
7.0245e-07
-5.09644e-06
1.67795e-06
-9.08024e-07
3.39152e-06
7.54568e-06
4.84489e-06
2.10989e-05
3.65001e-05
5.80506e-06
-8.23669e-08
-4.43595e-06
-1.59765e-07
-5.45413e-06
-2.76785e-07
-6.16171e-06
-4.47595e-07
-6.7964e-06
-6.52683e-07
-7.08347e-06
-8.62998e-07
-6.66316e-06
-9.76918e-07
-4.98252e-06
-6.87172e-07
-1.19777e-06
7.36126e-07
6.12238e-06
3.05434e-06
1.87806e-05
3.51599e-05
4.39454e-06
-2.18848e-07
-4.21711e-06
-4.62258e-07
-5.21072e-06
-7.8401e-07
-5.83996e-06
-1.19956e-06
-6.38085e-06
-1.70842e-06
-6.57461e-06
-2.28917e-06
-6.08241e-06
-2.85693e-06
-4.41476e-06
-3.18529e-06
-8.69412e-07
-2.69006e-06
5.62715e-06
-5.56971e-07
1.66476e-05
3.2207e-05
2.39588e-06
-3.32467e-07
-3.88464e-06
-7.505e-07
-4.79269e-06
-1.29605e-06
-5.2944e-06
-1.99304e-06
-5.68386e-06
-2.85418e-06
-5.71347e-06
-3.8663e-06
-5.07029e-06
-4.94911e-06
-3.33195e-06
-5.90649e-06
8.79679e-08
-6.23075e-06
5.95141e-06
-4.88382e-06
1.53006e-05
2.90181e-05
-1.69487e-06
-4.50906e-07
-3.43373e-06
-1.05568e-06
-4.18791e-06
-1.83867e-06
-4.51142e-06
-2.83964e-06
-4.6829e-06
-4.08276e-06
-4.47035e-06
-5.56212e-06
-3.59093e-06
-7.20887e-06
-1.68519e-06
-8.80445e-06
1.68354e-06
-9.77889e-06
6.92585e-06
-9.24594e-06
1.47677e-05
2.57815e-05
-6.00937e-06
-5.76785e-07
-2.85695e-06
-1.37748e-06
-3.38721e-06
-2.41164e-06
-3.47726e-06
-3.74365e-06
-3.35089e-06
-5.41195e-06
-2.80205e-06
-7.42772e-06
-1.57516e-06
-9.71797e-06
6.05062e-07
-1.1932e-05
3.89754e-06
-1.35666e-05
8.56044e-06
-1.40263e-05
1.52274e-05
2.44206e-05
-1.26654e-05
-7.02323e-07
-2.15463e-06
-1.69628e-06
-2.39326e-06
-2.99557e-06
-2.17797e-06
-4.69407e-06
-1.65239e-06
-6.85574e-06
-6.40377e-07
-9.40352e-06
9.7263e-07
-1.21076e-05
3.30912e-06
-1.47125e-05
6.50244e-06
-1.70134e-05
1.08614e-05
-1.84427e-05
1.66567e-05
2.39714e-05
-1.79935e-05
-8.2782e-07
-1.32681e-06
-1.98928e-06
-1.23179e-06
-3.52439e-06
-6.42857e-07
-5.4927e-06
3.15913e-07
-7.86578e-06
1.7327e-06
-1.05586e-05
3.66547e-06
-1.34805e-05
6.23096e-06
-1.65651e-05
9.58706e-06
-1.95576e-05
1.38539e-05
-2.2002e-05
1.9101e-05
2.54025e-05
-2.3433e-05
-8.74405e-07
-4.52401e-07
-2.07712e-06
-2.90751e-08
-3.5746e-06
8.54622e-07
-5.43983e-06
2.18114e-06
-7.70713e-06
4.00001e-06
-1.03876e-05
6.34589e-06
-1.3401e-05
9.24438e-06
-1.66039e-05
1.279e-05
-1.97768e-05
1.70268e-05
-2.26081e-05
2.19323e-05
2.75133e-05
-2.47189e-05
-7.89474e-07
3.37073e-07
-1.81584e-06
9.97295e-07
-3.10612e-06
2.1449e-06
-4.76221e-06
3.83723e-06
-6.81763e-06
6.05542e-06
-9.18872e-06
8.71698e-06
-1.17056e-05
1.17613e-05
-1.42347e-05
1.5319e-05
-1.65177e-05
1.93099e-05
-1.81771e-05
2.35917e-05
2.7908e-05
-1.85718e-05
-6.71826e-07
1.0089e-06
-1.51361e-06
1.83907e-06
-2.64633e-06
3.27762e-06
-4.05599e-06
5.24689e-06
-5.6119e-06
7.61133e-06
-7.1528e-06
1.02579e-05
-8.5435e-06
1.3152e-05
-9.53098e-06
1.63065e-05
-9.78841e-06
1.95673e-05
-8.2998e-06
2.21031e-05
2.21663e-05
-2.55812e-06
-8.56382e-07
1.86528e-06
-1.75716e-06
2.73985e-06
-2.83937e-06
4.35984e-06
-3.80337e-06
6.21088e-06
-4.45987e-06
8.26783e-06
-4.68467e-06
1.04827e-05
-4.38153e-06
1.28489e-05
-3.31272e-06
1.52377e-05
-8.96254e-07
1.71508e-05
3.96909e-06
1.72378e-05
1.38705e-05
1.22649e-05
-3.02002e-06
-4.07367e-06
-4.5004e-06
-4.34328e-06
-3.5412e-06
-2.07727e-06
1.86158e-07
3.59304e-06
8.72305e-06
1.61142e-05
2.53667e-05
-1.40545e-05
-8.24416e-06
2.22986e-05
-2.26845e-05
-1.03542e-05
1.89842e-05
-2.99999e-05
-1.26087e-05
1.99241e-05
-3.62858e-05
-1.4531e-05
2.08169e-05
-4.20826e-05
-1.60608e-05
2.18576e-05
-4.78838e-05
-1.72402e-05
2.30415e-05
-5.41761e-05
-1.80712e-05
2.43635e-05
-6.13295e-05
-1.85243e-05
2.56777e-05
-6.96647e-05
-1.85104e-05
2.68456e-05
-7.95178e-05
-1.78406e-05
2.76937e-05
-1.61591e-05
2.79704e-05
-9.13291e-05
-8.98025e-06
7.36093e-07
-1.71581e-05
-2.17635e-06
-2.46361e-05
-5.13059e-06
-3.14848e-05
-7.6823e-06
-3.80174e-05
-9.52833e-06
-4.45576e-05
-1.07e-05
-5.15185e-05
-1.11103e-05
-5.93561e-05
-1.06867e-05
-6.85235e-05
-9.34296e-06
-7.94575e-05
-6.9065e-06
-3.07408e-06
-9.25426e-05
-4.02279e-06
4.75889e-06
-9.26301e-06
3.06387e-06
-1.58854e-05
1.4918e-06
-2.30655e-05
-5.02213e-07
-3.03337e-05
-2.26007e-06
-3.77754e-05
-3.2583e-06
-4.56584e-05
-3.22742e-06
-5.43286e-05
-2.01651e-06
-6.42031e-05
5.31604e-07
-7.57857e-05
4.67613e-06
1.08281e-05
-8.96879e-05
-1.67667e-06
6.43555e-06
-4.62103e-06
6.00823e-06
-9.16487e-06
6.03564e-06
-1.50753e-05
5.40825e-06
-2.20527e-05
4.71726e-06
-2.98038e-05
4.49288e-06
-3.82436e-05
5.21229e-06
-4.75323e-05
7.27228e-06
-5.79963e-05
1.09955e-05
-7.00324e-05
1.67123e-05
2.48811e-05
-8.40854e-05
-1.53424e-06
7.9698e-06
-3.8776e-06
8.35159e-06
-7.19783e-06
9.35588e-06
-1.16592e-05
9.86961e-06
-1.74313e-05
1.04893e-05
-2.44053e-05
1.14669e-05
-3.24565e-05
1.32635e-05
-4.1558e-05
1.63738e-05
-5.18462e-05
2.12837e-05
-6.36127e-05
2.84788e-05
3.85783e-05
-7.731e-05
-1.26699e-06
9.23678e-06
-3.3617e-06
1.04463e-05
-6.04548e-06
1.20397e-05
-9.68713e-06
1.35113e-05
-1.44643e-05
1.52665e-05
-2.04491e-05
1.74517e-05
-2.76473e-05
2.04617e-05
-3.60577e-05
2.47843e-05
-4.57543e-05
3.09803e-05
-5.69371e-05
3.96617e-05
5.16138e-05
-6.99726e-05
-1.1436e-06
1.03804e-05
-2.88165e-06
1.21844e-05
-5.19204e-06
1.435e-05
-8.28169e-06
1.66009e-05
-1.23091e-05
1.92939e-05
-1.74242e-05
2.25667e-05
-2.3724e-05
2.67615e-05
-3.12748e-05
3.23351e-05
-4.01653e-05
3.98707e-05
-5.05416e-05
5.00381e-05
6.36636e-05
-6.25914e-05
-1.08504e-06
1.14654e-05
-2.66029e-06
1.37596e-05
-4.67479e-06
1.63645e-05
-7.33273e-06
1.92589e-05
-1.07753e-05
2.27365e-05
-1.51652e-05
2.69566e-05
-2.06355e-05
3.22318e-05
-2.7304e-05
3.90036e-05
-3.52832e-05
4.78499e-05
-4.47294e-05
5.94843e-05
7.4813e-05
-5.58788e-05
-9.97681e-07
1.24631e-05
-2.41691e-06
1.51788e-05
-4.2107e-06
1.81583e-05
-6.52943e-06
2.15776e-05
-9.50838e-06
2.57154e-05
-1.32973e-05
3.07456e-05
-1.80453e-05
3.69797e-05
-2.38946e-05
4.4853e-05
-3.09814e-05
5.49367e-05
-3.9482e-05
6.79849e-05
8.49687e-05
-4.96377e-05
-7.86823e-07
1.32499e-05
-1.98636e-06
1.63784e-05
-3.54136e-06
1.97133e-05
-5.55897e-06
2.35952e-05
-8.14275e-06
2.82992e-05
-1.14353e-05
3.40381e-05
-1.55734e-05
4.11178e-05
-2.0709e-05
4.99886e-05
-2.6995e-05
6.12227e-05
-3.46096e-05
7.55995e-05
9.41121e-05
-4.3753e-05
-6.08534e-07
1.38585e-05
-1.61128e-06
1.73811e-05
-2.92837e-06
2.10304e-05
-4.64882e-06
2.53157e-05
-6.87098e-06
3.05214e-05
-9.70539e-06
3.68725e-05
-1.32884e-05
4.47008e-05
-1.7756e-05
5.44562e-05
-2.32692e-05
6.6736e-05
-2.99954e-05
8.23256e-05
0.000102246
-3.81294e-05
-5.67246e-07
1.44257e-05
-1.44812e-06
1.8262e-05
-2.56316e-06
2.21455e-05
-4.0136e-06
2.67661e-05
-5.87814e-06
3.23859e-05
-8.26333e-06
3.92577e-05
-1.1293e-05
4.77304e-05
-1.50933e-05
5.82565e-05
-1.98143e-05
7.14571e-05
-2.56264e-05
8.81377e-05
0.00010935
-3.273e-05
-4.55897e-07
1.48816e-05
-1.16563e-06
1.89717e-05
-2.07184e-06
2.30517e-05
-3.25145e-06
2.79457e-05
-4.7715e-06
3.3906e-05
-6.72451e-06
4.12107e-05
-9.21705e-06
5.0223e-05
-1.23704e-05
6.14098e-05
-1.63185e-05
7.54051e-05
-2.12298e-05
9.30491e-05
0.000115434
-2.73141e-05
-2.0449e-07
1.50861e-05
-6.62867e-07
1.94301e-05
-1.30812e-06
2.36969e-05
-2.19319e-06
2.88308e-05
-3.35857e-06
3.50713e-05
-4.88209e-06
4.27343e-05
-6.84979e-06
5.21907e-05
-9.36384e-06
6.39239e-05
-1.25418e-05
7.85831e-05
-1.65234e-05
9.70306e-05
0.000120375
-2.14643e-05
-1.21252e-07
1.52073e-05
-3.96173e-07
1.9705e-05
-7.93002e-07
2.40938e-05
-1.35722e-06
2.9395e-05
-2.12318e-06
3.58373e-05
-3.1592e-06
4.37703e-05
-4.52978e-06
5.35612e-05
-6.31944e-06
6.57135e-05
-8.6143e-06
8.0878e-05
-1.15321e-05
9.99484e-05
0.000124057
-1.52145e-05
1.66206e-08
1.51907e-05
-2.97439e-08
1.97514e-05
-1.41584e-07
2.42056e-05
-3.48847e-07
2.96023e-05
-6.82339e-07
3.61708e-05
-1.18235e-06
4.42703e-05
-1.90071e-06
5.42796e-05
-2.89225e-06
6.67051e-05
-4.20669e-06
8.21924e-05
-5.92848e-06
0.00010167
0.000126282
-8.1535e-06
2.89378e-07
1.49013e-05
5.75254e-07
1.94655e-05
8.19884e-07
2.3961e-05
1.0176e-06
2.94045e-05
1.17624e-06
3.60121e-05
1.26294e-06
4.41836e-05
1.26826e-06
5.42743e-05
1.17006e-06
6.68033e-05
9.43139e-07
8.24193e-05
5.55262e-07
0.000102058
0.000126842
-4.20328e-09
4.92332e-07
1.4409e-05
1.09529e-06
1.88626e-05
1.72514e-06
2.33311e-05
2.40146e-06
2.87282e-05
3.12937e-06
3.52842e-05
3.91427e-06
4.33987e-05
4.77614e-06
5.34124e-05
5.73968e-06
6.58397e-05
6.82804e-06
8.1331e-05
8.06864e-06
0.000100817
0.00012546
9.45017e-06
7.37106e-07
1.36719e-05
1.71082e-06
1.78888e-05
2.78263e-06
2.22593e-05
3.99186e-06
2.7519e-05
5.37103e-06
3.39051e-05
6.97055e-06
4.17992e-05
8.85211e-06
5.15309e-05
1.10869e-05
6.36049e-05
1.37517e-05
7.86661e-05
1.69227e-05
9.76465e-05
0.000121722
2.06608e-05
1.03024e-06
1.26417e-05
2.42344e-06
1.64956e-05
4.00143e-06
2.06813e-05
5.82819e-06
2.56922e-05
7.9689e-06
3.17644e-05
1.05317e-05
3.92364e-05
1.36246e-05
4.84379e-05
1.73755e-05
5.98541e-05
2.19176e-05
7.4124e-05
2.7415e-05
9.21491e-05
0.000115072
3.40652e-05
1.3535e-06
1.12882e-05
3.18948e-06
1.46597e-05
5.3236e-06
1.85472e-05
7.84238e-06
2.31734e-05
1.08688e-05
2.8738e-05
1.45647e-05
3.55405e-05
1.90964e-05
4.39063e-05
2.46436e-05
5.43068e-05
3.13948e-05
6.73729e-05
3.96071e-05
8.39367e-05
0.000105079
4.96e-05
1.56875e-06
9.71942e-06
3.84315e-06
1.23853e-05
6.55362e-06
1.58367e-05
9.84367e-06
1.98834e-05
1.38989e-05
2.46828e-05
1.89195e-05
3.05199e-05
2.51131e-05
3.77127e-05
3.26894e-05
4.67305e-05
4.19214e-05
5.81408e-05
5.31731e-05
7.26851e-05
9.13997e-05
6.68524e-05
1.65169e-06
8.06773e-06
4.43514e-06
9.6018e-06
7.61181e-06
1.266e-05
1.17099e-05
1.57853e-05
1.68834e-05
1.95093e-05
2.33328e-05
2.40705e-05
3.12581e-05
2.97873e-05
4.09462e-05
3.70424e-05
5.27723e-05
4.63147e-05
6.72383e-05
5.82191e-05
7.36744e-05
8.49636e-05
-1.80462e-06
9.87235e-06
1.41141e-06
6.38577e-06
6.22564e-06
7.84581e-06
1.19286e-05
1.00823e-05
1.87634e-05
1.26746e-05
2.69294e-05
1.59044e-05
3.66584e-05
2.00583e-05
4.83739e-05
2.53269e-05
6.26311e-05
3.20575e-05
8.00995e-05
4.07507e-05
5.21552e-05
0.000101619
1.79016e-06
2.05084e-05
1.80157e-06
1.89728e-05
-3.00133e-06
2.4727e-05
-1.05422e-05
2.83578e-05
-1.90084e-05
3.03238e-05
-2.76049e-05
3.1638e-05
-3.66665e-05
3.34251e-05
-4.64663e-05
3.54775e-05
-5.73141e-05
3.76934e-05
-6.95062e-05
3.98857e-05
4.18288e-05
-8.33645e-05
7.36565e-06
1.31428e-05
1.0097e-05
1.62415e-05
9.44923e-06
2.53747e-05
5.62363e-06
3.21834e-05
-1.28879e-06
3.72362e-05
-1.02283e-05
4.05775e-05
-2.0213e-05
4.34098e-05
-3.12291e-05
4.64937e-05
-4.34103e-05
4.98746e-05
-5.70449e-05
5.35203e-05
5.73017e-05
-7.25178e-05
4.72563e-06
8.41717e-06
6.96249e-06
1.40046e-05
8.42287e-06
2.39143e-05
7.78894e-06
3.28173e-05
4.10773e-06
4.09174e-05
-2.49213e-06
4.71773e-05
-1.09373e-05
5.1855e-05
-2.0905e-05
5.64614e-05
-3.2249e-05
6.12186e-05
-4.50722e-05
6.63434e-05
7.17614e-05
-5.95319e-05
3.38072e-06
5.03645e-06
4.69075e-06
1.26946e-05
6.16321e-06
2.24419e-05
6.5507e-06
3.24298e-05
4.89482e-06
4.25733e-05
8.28657e-07
5.12435e-05
-5.33506e-06
5.80187e-05
-1.32756e-05
6.4402e-05
-2.27996e-05
7.07425e-05
-3.38157e-05
7.73596e-05
8.43897e-05
-4.64441e-05
2.24786e-06
2.78859e-06
3.51515e-06
1.14273e-05
4.81957e-06
2.11374e-05
5.32832e-06
3.19211e-05
4.5867e-06
4.33149e-05
2.22641e-06
5.36038e-05
-1.90917e-06
6.21543e-05
-7.69272e-06
7.01855e-05
-1.50627e-05
7.81125e-05
-2.38815e-05
8.61784e-05
9.46548e-05
-3.41466e-05
1.57663e-06
1.21197e-06
3.00648e-06
9.99742e-06
4.32869e-06
1.98152e-05
4.92814e-06
3.13216e-05
4.65248e-06
4.35906e-05
3.28439e-06
5.49719e-05
6.1507e-07
6.48236e-05
-3.38656e-06
7.41871e-05
-8.73703e-06
8.3463e-05
-1.53986e-05
9.284e-05
0.000102449
-2.31927e-05
1.25352e-06
-4.15535e-08
2.71926e-06
8.53168e-06
4.11481e-06
1.84197e-05
4.91719e-06
3.05192e-05
5.034e-06
4.34738e-05
4.36564e-06
5.56402e-05
2.76807e-06
6.64212e-05
1.67434e-07
7.67878e-05
-3.48765e-06
8.71181e-05
-8.2573e-06
9.76096e-05
0.000108368
-1.4176e-05
9.22324e-07
-9.63877e-07
2.3092e-06
7.1448e-06
3.73586e-06
1.6993e-05
4.75763e-06
2.94975e-05
5.27497e-06
4.29565e-05
5.2263e-06
5.56889e-05
4.52799e-06
6.71195e-05
3.14296e-06
7.81728e-05
9.76056e-07
8.9285e-05
-1.97174e-06
0.000100557
0.000112011
-5.61498e-06
6.39476e-07
-1.60335e-06
1.90526e-06
5.87902e-06
3.3619e-06
1.55364e-05
4.61204e-06
2.82473e-05
5.52777e-06
4.20407e-05
6.06009e-06
5.51566e-05
6.16459e-06
6.7015e-05
5.83241e-06
7.8505e-05
5.00736e-06
9.011e-05
3.59625e-06
0.000101969
0.000113973
1.63394e-06
4.33306e-07
-2.03666e-06
1.57056e-06
4.74177e-06
3.04577e-06
1.40612e-05
4.51643e-06
2.67767e-05
5.82173e-06
4.07354e-05
6.92292e-06
5.40554e-05
7.7712e-06
6.61667e-05
8.40242e-06
7.78738e-05
8.79485e-06
8.97176e-05
8.90416e-06
0.000101859
0.000114189
8.68828e-06
3.5054e-07
-2.3872e-06
1.42265e-06
3.66966e-06
2.91877e-06
1.25651e-05
4.62184e-06
2.50736e-05
6.3315e-06
3.90258e-05
7.9755e-06
5.24114e-05
9.52846e-06
6.46137e-05
1.10351e-05
7.63671e-05
1.25434e-05
8.82093e-05
1.4058e-05
0.000100345
0.000112605
1.56418e-05
2.92703e-07
-2.6799e-06
1.22624e-06
2.73612e-06
2.67709e-06
1.11142e-05
4.56642e-06
2.31843e-05
6.66427e-06
3.69279e-05
8.86428e-06
5.02114e-05
1.11311e-05
6.23469e-05
1.35363e-05
7.39619e-05
1.61534e-05
8.55922e-05
1.90388e-05
9.74592e-05
0.000109314
2.233e-05
2.12126e-07
-2.89203e-06
9.9551e-07
1.95274e-06
2.47051e-06
9.6392e-06
4.56052e-06
2.10943e-05
7.04396e-06
3.44445e-05
9.80265e-06
4.74527e-05
1.27905e-05
5.93591e-05
1.6079e-05
7.06735e-05
1.97893e-05
8.18818e-05
2.39874e-05
9.32611e-05
0.000104559
2.87422e-05
1.92099e-07
-3.08413e-06
9.23569e-07
1.22127e-06
2.41385e-06
8.14892e-06
4.69224e-06
1.88159e-05
7.53686e-06
3.15999e-05
1.08536e-05
4.41359e-05
1.45585e-05
5.56542e-05
1.87395e-05
6.64925e-05
2.35355e-05
7.70858e-05
2.90891e-05
8.77075e-05
9.81755e-05
3.54727e-05
1.55159e-07
-3.23929e-06
7.90538e-07
5.8589e-07
2.23232e-06
6.70714e-06
4.62434e-06
1.64238e-05
7.85858e-06
2.83656e-05
1.17072e-05
4.02873e-05
1.61571e-05
5.12043e-05
2.12923e-05
6.13573e-05
2.7265e-05
7.11131e-05
3.42437e-05
8.07288e-05
9.01139e-05
4.23053e-05
1.12519e-07
-3.35181e-06
6.68371e-07
3.00383e-08
2.05332e-06
5.32219e-06
4.5301e-06
1.39471e-05
8.04898e-06
2.48468e-05
1.2466e-05
3.58703e-05
1.76842e-05
4.59861e-05
2.38153e-05
5.52262e-05
3.10281e-05
6.39003e-05
3.95171e-05
7.22397e-05
8.00447e-05
4.95863e-05
4.29276e-08
-3.39473e-06
5.35947e-07
-4.62981e-07
1.8529e-06
4.00524e-06
4.36468e-06
1.14353e-05
8.13713e-06
2.10743e-05
1.30432e-05
3.09643e-05
1.90443e-05
3.9985e-05
2.6228e-05
4.80425e-05
3.47436e-05
5.53847e-05
4.47646e-05
6.22188e-05
6.81275e-05
5.66818e-05
-5.16372e-08
-3.3431e-06
3.33705e-07
-8.48324e-07
1.53216e-06
2.80679e-06
3.98112e-06
8.98631e-06
7.88208e-06
1.71734e-05
1.32309e-05
2.56155e-05
2.00162e-05
3.31996e-05
2.82938e-05
3.9765e-05
3.81557e-05
4.55228e-05
4.96856e-05
5.06888e-05
5.47512e-05
6.30619e-05
-1.94939e-07
-3.14816e-06
-1.28248e-08
-1.03044e-06
9.92054e-07
1.80191e-06
3.22825e-06
6.75012e-06
7.11762e-06
1.3284e-05
1.28209e-05
1.99122e-05
2.03663e-05
2.56542e-05
2.97342e-05
3.03972e-05
4.09392e-05
3.43178e-05
5.39943e-05
3.76338e-05
3.94346e-05
6.93108e-05
-4.53182e-07
-2.69498e-06
-5.81669e-07
-9.0195e-07
-1.70782e-08
1.23732e-06
1.8785e-06
4.85454e-06
5.60789e-06
9.55459e-06
1.15797e-05
1.39404e-05
1.97943e-05
1.74396e-05
3.00946e-05
2.00969e-05
4.23267e-05
2.20857e-05
5.66664e-05
2.3294e-05
2.28296e-05
7.32715e-05
-5.59023e-07
-2.13595e-06
-1.32348e-06
-1.37494e-07
-1.53222e-06
1.44606e-06
-2.31088e-07
3.55341e-06
3.35149e-06
5.97202e-06
9.43663e-06
7.85526e-06
1.79451e-05
8.93114e-06
2.86246e-05
9.41733e-06
4.14038e-05
9.3065e-06
5.64114e-05
8.28637e-06
5.30823e-06
7.39328e-05
-2.80958e-06
6.73629e-07
-3.88061e-06
9.33532e-07
-4.33635e-06
1.9018e-06
-3.11614e-06
2.3332e-06
5.82358e-07
2.27352e-06
6.87503e-06
1.56258e-06
1.54759e-05
3.30254e-07
2.63721e-05
-1.47885e-06
3.97561e-05
-4.07751e-06
5.59713e-05
-7.92887e-06
-1.36946e-05
7.49742e-05
-7.8349e-07
1.45712e-06
2.1961e-07
-6.95682e-08
3.28009e-06
-1.15867e-06
8.60201e-06
-2.98872e-06
1.59858e-05
-5.11027e-06
2.51961e-05
-7.64776e-06
3.6173e-05
-1.06466e-05
4.90144e-05
-1.43203e-05
6.40497e-05
-1.91128e-05
8.15932e-05
-2.54724e-05
-3.39202e-05
0.000101819
1.13295e-05
1.76457e-05
2.43328e-05
3.14264e-05
3.89907e-05
4.72474e-05
5.66591e-05
6.76658e-05
8.06104e-05
9.58888e-05
0.000114124
-4.51322e-06
1.87694e-05
-1.42562e-05
-8.82019e-06
1.73102e-05
-1.30032e-05
-1.5332e-05
2.06548e-05
-1.41429e-05
-2.22692e-05
2.25695e-05
-1.56324e-05
-2.93322e-05
2.48077e-05
-1.77447e-05
-3.66697e-05
2.78989e-05
-2.05615e-05
-4.45828e-05
3.2108e-05
-2.41948e-05
-5.34282e-05
3.77096e-05
-2.88642e-05
-6.35926e-05
4.50625e-05
-3.48981e-05
-7.55294e-05
5.46861e-05
-4.27494e-05
6.73717e-05
-5.3018e-05
-8.98831e-05
2.8803e-06
1.58891e-05
3.33109e-06
1.68594e-05
1.71026e-07
2.38148e-05
-4.83172e-06
2.75723e-05
-1.13429e-05
3.13188e-05
-1.88581e-05
3.54142e-05
-2.72679e-05
4.05178e-05
-3.67485e-05
4.71902e-05
-4.76391e-05
5.59531e-05
-6.03954e-05
6.74424e-05
8.25669e-05
-7.55906e-05
2.53272e-06
1.33564e-05
3.1598e-06
1.62324e-05
2.57728e-06
2.43974e-05
4.82342e-07
2.96672e-05
-3.68998e-06
3.54912e-05
-9.47999e-06
4.12042e-05
-1.662e-05
4.76578e-05
-2.50113e-05
5.55815e-05
-3.47851e-05
6.57269e-05
-4.62601e-05
7.89174e-05
9.62406e-05
-5.99338e-05
1.79465e-06
1.15618e-05
1.96139e-06
1.60656e-05
2.16613e-06
2.41926e-05
1.40428e-06
3.04291e-05
-8.67351e-07
3.77628e-05
-4.57549e-06
4.49123e-05
-9.74213e-06
5.28244e-05
-1.62607e-05
6.21e-05
-2.41203e-05
7.35866e-05
-3.34343e-05
8.82314e-05
0.00010725
-4.44436e-05
1.38543e-06
1.01763e-05
1.53528e-06
1.59158e-05
1.8693e-06
2.38586e-05
1.52741e-06
3.0771e-05
3.62366e-07
3.89278e-05
-1.79966e-06
4.70744e-05
-5.15557e-06
5.61803e-05
-9.72679e-06
6.66712e-05
-1.55003e-05
7.936e-05
-2.25047e-05
9.52358e-05
0.000115563
-3.08179e-05
1.24963e-06
8.92671e-06
1.69666e-06
1.54687e-05
2.23898e-06
2.33163e-05
2.1735e-06
3.08364e-05
1.62107e-06
3.94803e-05
3.89547e-07
4.83059e-05
-1.66634e-06
5.82362e-05
-4.65657e-06
6.96615e-05
-8.61456e-06
8.3318e-05
-1.355e-05
0.000100171
0.000121438
-1.94251e-05
1.18446e-06
7.74226e-06
1.92287e-06
1.47303e-05
2.6964e-06
2.25427e-05
2.94889e-06
3.0584e-05
2.85362e-06
3.95755e-05
2.26391e-06
4.88956e-05
1.10053e-06
5.93996e-05
-7.0194e-07
7.14639e-05
-3.20378e-06
8.58199e-05
-6.43946e-06
0.000103407
0.000125396
-1.03977e-05
1.00847e-06
6.73378e-06
1.95299e-06
1.37858e-05
2.91098e-06
2.15848e-05
3.46519e-06
3.00298e-05
3.76687e-06
3.92739e-05
3.688e-06
4.89745e-05
3.23467e-06
5.98529e-05
2.35476e-06
7.23438e-05
1.0177e-06
8.71569e-05
-7.64765e-07
0.000105189
0.000127547
-2.91486e-06
9.62396e-07
5.77139e-06
2.0532e-06
1.2695e-05
3.16184e-06
2.04761e-05
3.9939e-06
2.91977e-05
4.63103e-06
3.86367e-05
4.97988e-06
4.86256e-05
5.08409e-06
5.97487e-05
4.92993e-06
7.2498e-05
4.5132e-06
8.75737e-05
3.84747e-06
0.000105855
0.000128376
3.0183e-06
1.04339e-06
4.728e-06
2.32333e-06
1.1415e-05
3.64482e-06
1.91546e-05
4.77548e-06
2.8067e-05
5.73109e-06
3.76811e-05
6.44974e-06
4.7907e-05
6.99654e-06
5.92019e-05
7.39818e-06
7.20964e-05
7.6717e-06
8.73001e-05
7.85269e-06
0.000105674
0.000128281
7.94735e-06
1.04935e-06
3.67865e-06
2.44271e-06
1.00217e-05
3.95435e-06
1.7643e-05
5.38257e-06
2.66388e-05
6.66516e-06
3.63985e-05
7.75052e-06
4.68216e-05
8.71494e-06
5.82375e-05
9.61429e-06
7.1197e-05
1.05042e-05
8.64103e-05
1.14408e-05
0.000104737
0.000127184
1.25376e-05
9.33026e-07
2.74562e-06
2.31058e-06
8.64413e-06
3.92301e-06
1.60306e-05
5.58258e-06
2.49792e-05
7.17235e-06
3.48088e-05
8.64401e-06
4.53499e-05
1.00586e-05
5.68229e-05
1.14788e-05
6.97768e-05
1.29864e-05
8.49027e-05
1.46583e-05
0.000103066
0.000125293