/*--------------------------------*- C++ -*----------------------------------*\
| =========                 |                                                 |
| \\      /  F ield         | OpenFOAM: The Open Source CFD Toolbox           |
|  \\    /   O peration     | Version:  3.0.1                                 |
|   \\  /    A nd           | Web:      www.OpenFOAM.org                      |
|    \\/     M anipulation  |                                                 |
\*---------------------------------------------------------------------------*/
FoamFile
{
    version     2.0;
    format      ascii;
    class       surfaceVectorField;
    location    "0.422223";
    object      Uf;
}
// * * * * * * * * * * * * * * * * * * * * * * * * * * * * * * * * * * * * * //

dimensions      [0 1 -1 0 0 0 0];

internalField   nonuniform List<vector> 
32369
(
(4.05463 -1.47135 -1.53077e-19)
(4.43882 -0.961844 -4.18389e-18)
(5.86388 -1.92753 -3.51247e-19)
(4.33265 -1.32395 -3.2134e-19)
(3.53155 -0.878397 -2.22846e-18)
(5.02023 -1.24298 6.81684e-20)
(4.3469 -1.23867 4.16554e-19)
(3.76534 -1.15981 2.93071e-18)
(4.82731 -1.0129 8.3183e-20)
(4.24208 -1.09677 -9.54028e-20)
(3.87535 -1.2141 -9.38211e-19)
(4.60862 -0.879218 -8.60382e-20)
(4.07122 -0.891125 -1.78335e-20)
(3.84472 -1.11578 -2.2272e-20)
(4.33328 -0.723315 -3.84472e-20)
(3.86444 -0.666639 4.08111e-21)
(3.74399 -0.921767 -3.38366e-20)
(4.04742 -0.538269 2.35752e-20)
(3.65865 -0.486628 1.78901e-21)
(3.62023 -0.706891 1.00415e-19)
(3.79458 -0.383623 4.47187e-21)
(3.48142 -0.369659 6.13032e-21)
(3.48556 -0.5233 -6.84281e-20)
(3.57931 -0.279099 1.86638e-20)
(3.33131 -0.309572 5.95965e-21)
(3.35781 -0.409337 -2.86199e-20)
(3.39821 -0.224582 6.89556e-21)
(3.20279 -0.295576 2.7344e-23)
(3.24375 -0.357102 2.16159e-20)
(3.24486 -0.213277 -2.51779e-20)
(3.15263 -0.353499 1.68366e-20)
(3.12585 -0.23841 -1.39236e-20)
(3.09383 -0.324848 -2.15448e-20)
(3.31713 -0.216146 -5.75597e-18)
(3.94985 0.412956 -5.12626e-18)
(3.32919 -0.749327 -7.53244e-19)
(3.1579 -0.0335572 -1.56892e-18)
(3.4386 -1.02445 1.97785e-18)
(3.18235 -0.637494 2.25174e-18)
(3.5437 -1.13071 -8.68423e-19)
(3.2622 -0.949063 1.18227e-19)
(3.59096 -1.09606 -9.21961e-21)
(3.31674 -1.0737 -6.40772e-19)
(3.56796 -0.944756 3.80957e-20)
(3.34871 -1.04339 -2.1961e-19)
(3.49325 -0.741906 1.03796e-19)
(3.35366 -0.897135 8.07108e-20)
(3.3952 -0.565118 -1.03502e-19)
(3.32405 -0.703938 -1.04153e-20)
(3.29428 -0.456522 -4.22123e-20)
(3.27161 -0.551348 1.0048e-19)
(3.20317 -0.410043 4.18375e-20)
(3.20807 -0.462067 -2.0445e-20)
(3.15189 -0.434649 -1.04293e-20)
(3.1213 -0.421385 1.46017e-21)
(3.53673 0.652722 -1.59971e-18)
(4.0452 1.18986 -1.66595e-18)
(3.10817 -0.014602 1.40953e-19)
(3.33467 0.576137 -2.0173e-18)
(3.00026 -0.491871 7.43763e-19)
(3.04513 -0.0256066 1.44184e-18)
(3.03169 -0.807819 1.87584e-19)
(2.94022 -0.458991 8.14678e-19)
(3.10361 -0.970586 -8.36674e-19)
(2.92844 -0.756171 -4.14491e-20)
(3.17524 -0.975717 -2.09306e-19)
(2.97386 -0.899362 -6.55156e-19)
(3.22145 -0.858239 -6.30001e-20)
(3.04442 -0.885014 3.36681e-19)
(3.23211 -0.695757 7.01271e-20)
(3.10635 -0.757683 -1.28228e-20)
(3.20791 -0.560261 1.08695e-19)
(3.13729 -0.622677 9.03258e-20)
(3.16763 -0.485052 -7.49442e-20)
(3.13685 -0.520688 -1.1864e-19)
(3.12586 -0.477772 -1.6052e-19)
(3.11962 -0.479462 4.1401e-20)
(3.89373 1.11689 -1.98895e-18)
(4.27039 1.48793 -1.45229e-18)
(3.26549 0.533662 -8.74205e-19)
(3.57808 0.94477 -2.20794e-18)
(2.94045 0.0347636 1.55751e-18)
(3.12 0.446146 1.39245e-18)
(2.80374 -0.366537 5.03557e-19)
(2.85624 0.007612 0)
(2.78547 -0.652906 7.50361e-20)
(2.73285 -0.356856 2.59699e-19)
(2.84608 -0.79653 -2.99207e-19)
(2.72062 -0.606577 -1.23841e-18)
(2.94251 -0.797055 3.21818e-19)
(2.78906 -0.711336 8.48418e-19)
(3.02849 -0.701532 -4.45254e-20)
(2.89295 -0.685251 -6.57868e-20)
(3.08368 -0.590712 -3.29757e-20)
(2.98793 -0.600665 -3.55193e-20)
(3.10389 -0.513052 -1.94056e-19)
(3.04752 -0.519788 4.99584e-20)
(3.08165 -0.478381 -2.57233e-19)
(3.10004 -0.491185 2.13478e-19)
(4.07639 1.3093 -1.54214e-18)
(4.34771 1.49919 -9.8598e-19)
(3.45031 0.876345 -2.19932e-19)
(3.75453 1.15933 -1.66131e-19)
(3.02486 0.446549 0)
(3.25473 0.771818 0)
(2.76313 0.0497648 -2.64501e-19)
(2.90199 0.383753 7.81567e-19)
(2.64303 -0.280795 -9.75676e-19)
(2.68716 0.0223411 -8.05689e-19)
(2.64471 -0.506351 -2.07188e-19)
(2.60286 -0.269731 -8.6015e-19)
(2.73309 -0.605063 6.05875e-19)
(2.63378 -0.451541 8.1238e-19)
(2.85401 -0.597284 0)
(2.7396 -0.513741 -2.84876e-19)
(2.95958 -0.540976 9.73214e-20)
(2.86527 -0.49903 -1.54987e-19)
(3.03002 -0.487944 2.00761e-20)
(2.9654 -0.460486 1.41492e-19)
(3.03569 -0.438098 -1.14546e-19)
(3.06818 -0.467666 -2.25769e-19)
(4.10441 1.34047 2.91797e-19)
(4.30622 1.39672 -5.75866e-19)
(3.60165 1.07699 1.92257e-20)
(3.85824 1.25117 1.60131e-18)
(3.15095 0.738128 6.94943e-19)
(3.40045 0.978691 -4.799e-19)
(2.82496 0.390352 3.08214e-19)
(3.01191 0.663263 7.73333e-19)
(2.63118 0.0676213 -6.80205e-19)
(2.74257 0.339804 -8.65576e-19)
(2.57087 -0.191011 1.40329e-19)
(2.60101 0.0488989 7.30837e-20)
(2.62414 -0.354385 4.68138e-20)
(2.58712 -0.169997 2.67713e-19)
(2.74235 -0.422003 -4.65087e-19)
(2.67063 -0.295018 -2.81488e-19)
(2.86875 -0.428105 -1.83865e-19)
(2.79669 -0.345426 4.39989e-20)
(2.96963 -0.415073 2.18202e-20)
(2.91308 -0.356941 -2.19583e-19)
(3.00392 -0.36472 0)
(3.03742 -0.413409 1.28072e-19)
(4.10066 1.30117 5.0637e-19)
(4.24416 1.27704 -1.89716e-18)
(3.7015 1.16064 1.32443e-18)
(3.89296 1.24788 1.84118e-18)
(3.29167 0.92759 -5.27984e-19)
(3.52178 1.07665 -1.08974e-18)
(2.94309 0.642248 -2.37535e-19)
(3.1509 0.85023 -4.4536e-19)
(2.70866 0.355453 -1.31046e-19)
(2.85984 0.57787 6.43955e-19)
(2.60189 0.0982049 2.01838e-19)
(2.68529 0.313756 1.55229e-19)
(2.61522 -0.0971571 0)
(2.63415 0.0875961 -2.33058e-19)
(2.70982 -0.217966 1.67103e-19)
(2.68594 -0.0739498 0)
(2.83134 -0.279513 -2.38675e-21)
(2.79267 -0.17392 1.87357e-19)
(2.94031 -0.310077 -2.64678e-19)
(2.90412 -0.231798 2.31701e-19)
(2.9974 -0.273784 -4.44908e-19)
(3.02335 -0.331984 -1.06652e-19)
(4.06406 1.23645 -8.84232e-19)
(4.17239 1.16383 -2.87896e-19)
(3.75113 1.16477 -2.44773e-19)
(3.88877 1.20358 1.54772e-19)
(3.41267 1.02132 -1.0635e-18)
(3.60328 1.09289 -4.15412e-19)
(3.08977 0.807847 3.14474e-19)
(3.28941 0.950166 -2.96135e-19)
(2.84154 0.566653 9.55546e-19)
(3.00826 0.733671 7.09894e-19)
(2.70932 0.331352 -2.65148e-19)
(2.82464 0.507635 2.73936e-19)
(2.68929 0.128858 -2.57917e-19)
(2.75005 0.293523 -4.23846e-19)
(2.75246 -0.0227053 0)
(2.77079 0.117363 1.44032e-19)
(2.85267 -0.125375 4.03823e-19)
(2.84871 -0.0139661 5.94726e-21)
(2.95249 -0.194831 1.39337e-19)
(2.94136 -0.107077 7.90254e-19)
(3.02511 -0.177297 -4.35945e-19)
(3.03457 -0.249065 1.46134e-20)
(4.01894 1.16318 7.23349e-19)
(4.10917 1.06098 2.93434e-19)
(3.77496 1.12516 4.12971e-20)
(3.87628 1.14963 1.03437e-19)
(3.50793 1.04002 3.41952e-19)
(3.658 1.06172 5.20557e-19)
(3.23429 0.89278 -1.93737e-20)
(3.40935 0.977656 -3.53832e-19)
(3.0029 0.700817 6.19167e-20)
(3.16535 0.815455 -2.56658e-20)
(2.86416 0.495871 1.61972e-19)
(2.99265 0.629242 3.83109e-20)
(2.82139 0.301916 -7.31906e-20)
(2.90803 0.436557 -1.45798e-20)
(2.85347 0.138029 1.64939e-19)
(2.90323 0.260979 2.35109e-20)
(2.9247 0.010293 3.00428e-19)
(2.95032 0.114341 -1.7932e-19)
(3.00351 -0.0866388 3.78537e-19)
(3.01648 -0.00162962 5.41769e-19)
(3.08026 -0.0938247 -2.20949e-19)
(3.06926 -0.163631 3.28045e-19)
(3.98451 1.09264 -3.02935e-19)
(4.06849 0.968844 -1.73629e-19)
(3.79187 1.07 5.41259e-19)
(3.87335 1.09371 2.24011e-19)
(3.5854 1.01613 -1.00494e-19)
(3.70532 1.00723 3.29013e-19)
(3.36747 0.914833 -3.974e-19)
(3.51466 0.958553 -5.00109e-19)
(3.17097 0.766414 -4.53822e-20)
(3.31882 0.837809 2.56755e-19)
(3.04136 0.593089 -1.32655e-19)
(3.16968 0.686835 -2.55306e-19)
(2.98592 0.415506 8.82459e-20)
(3.08488 0.517848 8.13894e-20)
(2.99144 0.251921 -2.85011e-19)
(3.06129 0.351636 -1.06613e-19)
(3.03261 0.112452 -5.81395e-21)
(3.08023 0.201501 -1.59261e-19)
(3.0852 -0.00179691 5.15004e-20)
(3.11847 0.0737218 2.04816e-19)
(3.15805 -0.0316951 -1.38381e-20)
(3.13667 -0.0931913 -1.706e-19)
(3.97018 1.02413 3.71849e-19)
(4.05114 0.883405 3.39357e-19)
(3.81503 1.0064 0)
(3.88549 1.03518 -4.60215e-20)
(3.65554 0.966533 0)
(3.75396 0.93955 0)
(3.48934 0.892654 7.28801e-20)
(3.6102 0.909682 5.16706e-20)
(3.33383 0.776569 9.72036e-20)
(3.46242 0.815663 3.72918e-21)
(3.22171 0.631266 -7.38344e-20)
(3.34148 0.691847 6.63496e-20)
(3.16148 0.472575 -9.4227e-20)
(3.26289 0.545139 -2.47052e-19)
(3.1466 0.316748 1.92938e-20)
(3.22704 0.392334 1.10221e-19)
(3.16074 0.175194 1.25985e-20)
(3.2228 0.246212 -1.39612e-19)
(3.18693 0.0526737 1.76489e-19)
(3.23522 0.115158 9.2217e-20)
(3.25159 0.00395672 1.85713e-19)
(3.21429 -0.0511032 -7.83375e-20)
(3.97271 0.953706 -4.15874e-20)
(4.04701 0.801702 0)
(3.84637 0.936492 -5.08017e-20)
(3.90894 0.971693 1.9789e-20)
(3.72313 0.900639 4.655e-20)
(3.80615 0.864322 0)
(3.60098 0.840345 -1.44445e-20)
(3.69966 0.841804 -2.23224e-20)
(3.48423 0.745401 -3.39119e-20)
(3.59299 0.762833 -1.00479e-20)
(3.39208 0.622025 -7.17606e-20)
(3.49946 0.657722 -1.5245e-20)
(3.33272 0.481394 -8.15557e-20)
(3.43049 0.529601 7.90148e-20)
(3.30368 0.336748 -1.89516e-20)
(3.38794 0.390626 4.90217e-20)
(3.29546 0.199196 -8.74328e-20)
(3.36591 0.252071 -1.65248e-19)
(3.2971 0.0760022 9.68486e-20)
(3.35533 0.122923 8.78356e-20)
(3.3475 0.0100871 -1.27298e-19)
(3.29984 -0.0287557 -1.549e-19)
(3.98891 0.883853 6.06896e-20)
(4.05828 0.725111 0)
(3.88687 0.863222 7.41257e-20)
(3.94571 0.90508 4.66947e-20)
(3.79276 0.825642 -6.78399e-20)
(3.86512 0.786939 -1.58483e-20)
(3.70487 0.769782 -2.03537e-20)
(3.78706 0.763735 -6.37523e-20)
(3.61967 0.686936 1.00261e-20)
(3.71156 0.691884 8.70486e-20)
(3.54659 0.579059 1.28715e-19)
(3.64128 0.598049 -8.73655e-20)
(3.49131 0.453309 2.15551e-19)
(3.58272 0.483376 2.1994e-19)
(3.45326 0.319776 -7.18649e-20)
(3.53745 0.355934 -8.9935e-21)
(3.42736 0.188537 -1.75769e-20)
(3.50232 0.225203 -3.29314e-20)
(3.40735 0.0675767 -1.08503e-19)
(3.47249 0.10039 0)
(3.4439 -0.0105185 -8.54132e-20)
(3.39094 -0.0381751 -1.91788e-19)
(4.02264 0.816093 -1.95687e-20)
(4.0914 0.651026 -1.40935e-19)
(3.9398 0.789019 -3.81869e-20)
(3.99832 0.836578 1.00683e-19)
(3.86738 0.747003 -6.18819e-21)
(3.93204 0.708897 -3.39529e-20)
(3.80386 0.690465 2.8972e-20)
(3.87448 0.681276 2.10266e-20)
(3.74235 0.613055 6.85362e-21)
(3.821 0.61171 -3.38801e-20)
(3.68526 0.514486 -3.00235e-20)
(3.76881 0.523218 -2.47217e-20)
(3.63511 0.399035 1.94935e-20)
(3.71979 0.416472 -2.32504e-21)
(3.59144 0.27429 3.40663e-20)
(3.67383 0.296679 3.20523e-20)
(3.55145 0.149022 -1.86998e-20)
(3.6289 0.171752 -1.69071e-20)
(3.51239 0.0323997 3.24799e-20)
(3.58181 0.0516044 -3.39662e-20)
(3.53318 -0.0565872 -5.67081e-21)
(3.47431 -0.0696564 -3.61602e-19)
(4.0704 0.745839 -4.46342e-20)
(4.13503 0.577029 -1.13186e-19)
(4.00177 0.713762 1.43196e-19)
(4.05923 0.766954 1.21036e-19)
(3.94491 0.666656 -2.05381e-20)
(4.00444 0.630591 4.22623e-20)
(3.89855 0.607303 -3.56425e-20)
(3.9615 0.597923 8.63841e-21)
(3.85423 0.53101 -6.71129e-20)
(3.92359 0.527822 -5.21541e-20)
(3.8099 0.436531 3.96071e-22)
(3.88526 0.440208 7.59174e-20)
(3.76478 0.32634 6.58333e-21)
(3.8445 0.335952 7.38381e-20)
(3.71715 0.206534 -1.26967e-20)
(3.79847 0.218807 -1.14897e-20)
(3.66507 0.0860654 -3.03468e-20)
(3.74425 0.0963642 1.19009e-20)
(3.60823 -0.0266609 -7.56419e-20)
(3.68151 -0.0203084 -8.71863e-21)
(3.612 -0.124526 -5.99517e-22)
(3.54849 -0.12329 -3.34589e-20)
(4.12772 0.675685 3.00193e-20)
(4.18852 0.503228 2.82804e-20)
(4.06999 0.638803 6.58326e-20)
(4.12748 0.69787 -1.24728e-21)
(4.02512 0.586993 6.64943e-20)
(4.08135 0.554148 -8.88505e-22)
(3.99096 0.524 -8.58968e-22)
(4.04906 0.516317 -2.12528e-20)
(3.95934 0.446035 7.77287e-20)
(4.02286 0.444241 1.54118e-20)
(3.92518 0.351122 1.49867e-19)
(3.99583 0.353866 1.46965e-21)
(3.8843 0.240697 6.51088e-20)
(3.96222 0.246321 1.36231e-21)
(3.8326 0.120629 1.06457e-20)
(3.91551 0.125523 7.06942e-20)
(3.76818 0.000665547 3.70151e-20)
(3.85111 0.00098236 1.19896e-20)
(3.69316 -0.107992 6.56011e-20)
(3.77004 -0.113599 5.18784e-20)
(3.67935 -0.211758 6.17395e-20)
(3.61567 -0.198772 -1.57293e-19)
(4.19512 0.606678 0)
(4.25364 0.427929 3.48549e-21)
(4.14468 0.565242 -5.54683e-20)
(4.20322 0.629296 -2.70261e-21)
(4.10896 0.509878 -8.70971e-20)
(4.16177 0.480575 -2.43561e-19)
(4.08403 0.44334 -8.75355e-21)
(4.13839 0.438801 2.4877e-20)
(4.06292 0.361714 -6.09128e-20)
(4.12299 0.364207 1.63828e-20)
(4.03767 0.261721 -1.50716e-19)
(4.1073 0.267014 -8.83488e-20)
(3.9998 0.144468 -2.45872e-21)
(4.08039 0.148643 -5.9473e-20)
(3.94181 0.0178741 7.86541e-20)
(4.03032 0.0159769 1.30487e-19)
(3.8616 -0.104544 2.37844e-20)
(3.95057 -0.116204 0)
(3.76481 -0.208684 4.26478e-20)
(3.84543 -0.229573 1.37254e-20)
(3.72685 -0.319316 1.04179e-19)
(3.66798 -0.286645 2.09115e-19)
(4.26896 0.536637 -1.56449e-22)
(4.32328 0.352152 -1.24021e-19)
(4.22261 0.493644 -1.6608e-19)
(4.28087 0.562417 8.18452e-20)
(4.19449 0.436995 -1.49409e-19)
(4.24318 0.411942 -3.06282e-19)
(4.17916 0.368383 5.08419e-20)
(4.23034 0.370105 -8.74095e-20)
(4.17014 0.281073 0)
(4.23007 0.292156 -2.42186e-19)
(4.15489 0.16928 0)
(4.22967 0.180534 8.96594e-20)
(4.11809 0.0356911 5.1192e-20)
(4.20889 0.0390055 0)
(4.04816 -0.105598 6.36981e-20)
(4.14872 -0.116682 -6.95713e-20)
(3.94464 -0.234011 -7.41107e-21)
(4.04324 -0.261588 6.42044e-20)
(3.81946 -0.33237 6.09686e-20)
(3.9048 -0.371977 -1.65514e-19)
(3.75491 -0.44644 5.88461e-20)
(3.69337 -0.396215 7.15667e-20)
(4.34497 0.467208 -6.38664e-20)
(4.39319 0.276731 -1.44893e-19)
(4.30009 0.426304 1.26324e-20)
(4.35517 0.499925 8.33141e-20)
(4.28189 0.373138 -2.46929e-19)
(4.32363 0.35806 1.06091e-20)
(4.28273 0.305 -3.63264e-19)
(4.33064 0.323607 2.47509e-19)
(4.29336 0.206833 -1.76886e-19)
(4.35867 0.235516 -1.04999e-19)
(4.29067 0.0700336 9.93116e-20)
(4.38043 0.0896246 2.3897e-19)
(4.24906 -0.0947482 -1.1764e-19)
(4.36 -0.0967344 -1.11363e-19)
(4.15479 -0.259835 -8.93021e-20)
(4.27399 -0.288317 -1.29154e-19)
(4.01498 -0.394454 -1.39365e-20)
(4.1249 -0.446354 8.25784e-20)
(3.85351 -0.480837 -1.62744e-19)
(3.94105 -0.545136 -1.00222e-19)
(3.75596 -0.590632 -8.01107e-20)
(3.7048 -0.522445 -7.89934e-21)
(4.41871 0.399565 1.5803e-21)
(4.46277 0.209283 3.60725e-20)
(4.37599 0.370011 1.21155e-19)
(4.42232 0.463959 0)
(4.37482 0.335998 4.9139e-19)
(4.39514 0.350274 1.3377e-19)
(4.40447 0.27275 5.39556e-19)
(4.44827 0.318026 1.07534e-19)
(4.44174 0.148301 2.7786e-19)
(4.5208 0.172783 -1.94413e-20)
(4.44834 -0.0421664 3.28818e-20)
(4.55861 -0.063955 1.48691e-19)
(4.3894 -0.263038 -1.20867e-19)
(4.51845 -0.322704 -1.11215e-19)
(4.254 -0.461153 -2.433e-20)
(4.38517 -0.543638 -1.99452e-19)
(4.06327 -0.594955 -1.49611e-21)
(4.1776 -0.688614 1.79972e-20)
(3.85762 -0.654187 5.10442e-21)
(3.93858 -0.752799 -5.81743e-21)
(3.71896 -0.749761 -4.28945e-20)
(3.68388 -0.659193 -3.27951e-20)
(4.49263 0.360045 1.19228e-19)
(4.49077 0.205364 1.05647e-19)
(4.41486 0.384206 0)
(4.40555 0.491907 -3.75167e-19)
(4.45454 0.381263 -2.00308e-19)
(4.42951 0.394518 9.9647e-22)
(4.55396 0.25366 -4.09248e-19)
(4.56032 0.197496 -2.11065e-19)
(4.64465 0.00249953 -1.64695e-19)
(4.65781 -0.117635 -2.89528e-19)
(4.64033 -0.300763 0)
(4.67072 -0.454908 1.48703e-19)
(4.51953 -0.569906 -9.2019e-20)
(4.57201 -0.734228 -1.08216e-19)
(4.31181 -0.756128 -1.15316e-19)
(4.37809 -0.923465 -1.74868e-19)
(4.0611 -0.847921 -3.95798e-20)
(4.12692 -1.00955 -2.25311e-20)
(3.81524 -0.854 -4.98085e-20)
(3.8649 -0.996096 1.47683e-19)
(3.63137 -0.920074 2.56813e-20)
(3.62272 -0.808089 5.40889e-20)
(4.35798 0.468712 -3.29034e-19)
(4.19691 0.486502 1.13868e-19)
(4.40958 0.423079 -4.7102e-19)
(4.27116 0.304074 -5.38912e-19)
(4.60686 0.198632 3.18215e-19)
(4.47369 0.0249176 -5.51813e-20)
(4.73282 -0.172399 2.69765e-19)
(4.60125 -0.399694 1.54125e-19)
(4.72373 -0.542998 -2.57895e-20)
(4.60739 -0.754471 9.84948e-20)
(4.62408 -0.847013 5.1644e-20)
(4.5403 -1.03767 1.45709e-19)
(4.44382 -1.06117 -1.83181e-19)
(4.40301 -1.2413 -1.06632e-19)
(4.19946 -1.1692 -1.9027e-19)
(4.19393 -1.34733 -7.08257e-20)
(3.93241 -1.16552 -7.74592e-20)
(3.93026 -1.34371 2.07789e-20)
(3.69011 -1.07307 1.02269e-19)
(3.67242 -1.23634 4.28479e-20)
(3.47569 -1.07341 2.57433e-20)
(3.51605 -0.957652 -3.68063e-20)
(4.11823 0.207101 2.63874e-19)
(3.90239 0.215447 -5.45581e-19)
(4.46939 -0.187431 3.60301e-19)
(4.31706 -0.498335 5.86962e-19)
(4.51961 -0.575468 7.78557e-21)
(4.34256 -0.798264 1.98736e-19)
(4.50863 -0.909053 -1.91624e-20)
(4.33835 -1.11115 -3.57824e-19)
(4.44696 -1.18928 2.8529e-19)
(4.31186 -1.35511 3.68667e-19)
(4.33636 -1.39659 0)
(4.2539 -1.52439 0)
(4.1715 -1.51521 0)
(4.15477 -1.62683 0)
(3.9452 -1.53229 3.7392e-20)
(3.99812 -1.65386 0)
(3.68382 -1.44152 2.25445e-20)
(3.77049 -1.58159 5.86471e-20)
(3.46286 -1.26664 -3.14289e-20)
(3.50243 -1.39968 -4.59052e-20)
(3.30636 -1.16476 0)
(3.33564 -1.08437 0)
(4.20656 -0.640894 3.10481e-20)
(4.10504 -2.02368 -9.55279e-20)
(4.20013 -0.970487 4.65459e-19)
(4.03037 -1.36106 1.2321e-19)
(4.17837 -1.25627 -7.68221e-20)
(4.00712 -1.46805 0)
(4.15019 -1.47402 -3.50407e-20)
(4.0274 -1.57981 -3.23644e-19)
(4.12056 -1.6238 7.95209e-20)
(4.05159 -1.66523 6.59063e-20)
(4.07494 -1.71718 0)
(4.06405 -1.73359 0)
(3.99127 -1.75373 0)
(4.04746 -1.77755 0)
(3.8426 -1.71589 1.45733e-20)
(3.97875 -1.77975 -6.13892e-20)
(3.61358 -1.57601 4.50825e-20)
(3.8364 -1.70691 5.72092e-20)
(3.35827 -1.34682 3.37854e-20)
(3.60172 -1.51792 4.1316e-20)
(3.34699 -1.24539 0)
(3.19503 -1.14617 0)
(6.20612 -0.833369 1.86658e-19)
(6.32763 -0.0571366 -4.13699e-20)
(5.56632 -0.732934 -1.75668e-19)
(5.98109 -0.087439 1.05388e-19)
(5.12773 -0.673459 -2.63388e-19)
(5.58633 -0.203397 -6.19513e-20)
(4.72878 -0.579413 -5.4454e-20)
(5.16609 -0.251919 1.23406e-20)
(4.35636 -0.450504 1.01069e-20)
(4.73503 -0.230126 -1.70614e-19)
(4.03044 -0.315445 2.54398e-20)
(4.323 -0.157191 -6.6024e-20)
(3.75507 -0.211069 1.36216e-20)
(3.96237 -0.0785836 -2.61406e-20)
(3.52659 -0.150667 -1.77631e-20)
(3.66748 -0.029149 9.24038e-20)
(3.3361 -0.132471 -4.64867e-20)
(3.42919 -0.0166188 -1.22729e-20)
(3.17456 -0.153798 -3.84175e-20)
(3.23291 -0.0369913 -1.02229e-19)
(3.08097 -0.0854461 2.42272e-20)
(3.0384 -0.219257 -8.72856e-21)
(6.1869 0.762817 8.06251e-20)
(6.04866 1.15061 3.05026e-19)
(5.90782 0.426095 9.65901e-20)
(5.98815 0.918525 -1.0755e-19)
(5.55741 0.192112 1.21754e-19)
(5.78792 0.634268 -3.64382e-21)
(5.13907 0.0682941 6.18139e-20)
(5.45796 0.437057 1.34096e-19)
(4.69436 0.0405364 -2.85836e-19)
(5.03665 0.325821 -1.04926e-19)
(4.26909 0.0689445 -1.14783e-19)
(4.57512 0.291784 -7.74343e-20)
(3.89895 0.101367 3.83981e-20)
(4.13212 0.290269 -5.94228e-20)
(3.59576 0.108054 4.04148e-20)
(3.75618 0.275302 7.2577e-20)
(3.35002 0.0855984 -8.09918e-20)
(3.45632 0.235036 -9.56331e-21)
(3.14597 0.0338189 -2.66411e-20)
(3.21307 0.175668 -5.62038e-20)
(3.02294 0.105292 -2.88034e-20)
(2.97064 -0.0532578 6.47625e-21)
(5.94573 1.38574 1.01675e-19)
(5.83036 1.50526 7.76205e-20)
(5.88239 1.1542 -2.02e-19)
(5.83961 1.4433 -1.14935e-19)
(5.68601 0.915074 0)
(5.7491 1.22246 0)
(5.3569 0.717683 1.80391e-19)
(5.5319 1.03088 -8.75e-20)
(4.92971 0.593874 2.25955e-19)
(5.18558 0.877966 1.0795e-19)
(4.46123 0.534174 7.49741e-20)
(4.73887 0.787323 -3.63295e-19)
(4.01828 0.491713 9.43123e-20)
(4.25411 0.73155 9.01854e-20)
(3.64534 0.429489 0)
(3.80905 0.653518 -1.73919e-19)
(3.34624 0.348351 3.24123e-20)
(3.451 0.542347 0)
(3.10271 0.254019 -1.47492e-20)
(3.16559 0.42323 -7.09206e-20)
(2.94407 0.311571 -5.26478e-21)
(2.8956 0.149584 -4.93307e-20)
(5.77564 1.59149 -6.34748e-20)
(5.7347 1.55365 8.99503e-20)
(5.75185 1.49494 6.82367e-20)
(5.7292 1.62845 -8.65122e-20)
(5.63576 1.3578 -7.65538e-20)
(5.65843 1.50414 2.68857e-20)
(5.39715 1.20727 -2.00642e-19)
(5.49415 1.39587 3.68144e-20)
(5.03215 1.08401 -4.49803e-19)
(5.21275 1.28407 -1.17773e-19)
(4.57005 1.00422 -3.94592e-19)
(4.80632 1.20729 -1.16177e-19)
(4.08329 0.932228 -1.45321e-19)
(4.31454 1.16619 5.25609e-20)
(3.65122 0.812128 -1.91937e-19)
(3.8171 1.09055 2.31156e-19)
(3.30439 0.655043 -9.42555e-20)
(3.40232 0.922362 0)
(3.02432 0.499524 4.14732e-22)
(3.08231 0.720382 -1.0601e-19)
(2.8318 0.560931 1.37325e-19)
(2.76916 0.349088 8.13074e-20)
(5.70432 1.63413 6.63929e-20)
(5.70577 1.53843 2.42071e-19)
(5.66594 1.60299 -1.18621e-19)
(5.67987 1.67341 -2.89009e-19)
(5.55993 1.54865 1.02574e-19)
(5.60365 1.5945 6.71298e-20)
(5.36115 1.47362 9.05776e-20)
(5.4453 1.55376 8.5225e-20)
(5.04709 1.40176 1.526e-19)
(5.191 1.49771 -2.66703e-21)
(4.61663 1.3591 1.95757e-19)
(4.81791 1.45668 2.0109e-19)
(4.11253 1.33501 3.72626e-19)
(4.3342 1.45153 2.75082e-20)
(3.61977 1.24797 4.53823e-19)
(3.78857 1.44772 1.03419e-19)
(3.21875 1.04816 0)
(3.29313 1.31578 1.30291e-19)
(2.91552 0.80849 0)
(2.9315 1.05405 -6.05681e-20)
(2.68318 0.821096 5.44707e-20)
(2.65276 0.604549 0)
(5.68457 1.63424 -6.81976e-20)
(5.70887 1.50757 9.42206e-20)
(5.63623 1.6262 -1.62016e-19)
(5.66918 1.67829 -1.16244e-19)
(5.51808 1.60737 4.77741e-20)
(5.58784 1.60828 6.65787e-20)
(5.31802 1.57717 1.4028e-21)
(5.42187 1.6002 -2.78733e-20)
(5.02023 1.54685 2.35977e-20)
(5.17072 1.57748 -5.39713e-20)
(4.60875 1.53335 5.19232e-20)
(4.80754 1.56216 5.21118e-20)
(4.09039 1.54376 -1.30444e-19)
(4.32057 1.57051 2.16444e-20)
(3.52878 1.53131 -1.22055e-19)
(3.73268 1.6103 -3.499e-19)
(3.05115 1.39273 -5.7889e-20)
(3.15217 1.57413 1.17222e-19)
(2.71861 1.11959 -1.92119e-20)
(2.7102 1.3434 -6.01516e-20)
(2.45119 1.06417 1.4975e-20)
(2.47221 0.830571 -1.34313e-20)
(5.68868 1.61512 6.72804e-20)
(5.72374 1.47145 -4.03092e-21)
(5.63784 1.61739 7.21597e-20)
(5.67751 1.66215 9.09395e-20)
(5.5139 1.61189 -5.17427e-21)
(5.59701 1.58856 -9.51495e-21)
(5.30849 1.60054 -8.09127e-20)
(5.42587 1.596 1.85578e-20)
(5.00703 1.59166 -3.68687e-20)
(5.17375 1.58575 -1.77394e-20)
(4.58661 1.59379 2.47459e-20)
(4.8096 1.58259 -1.1267e-20)
(4.04727 1.61023 -7.28652e-20)
(4.30931 1.59598 1.0222e-20)
(3.43899 1.62691 -1.33113e-19)
(3.68404 1.6364 -2.5701e-20)
(2.87399 1.56823 -1.37092e-20)
(3.02801 1.65948 1.48413e-19)
(2.4755 1.34436 -6.57468e-20)
(2.48362 1.52589 2.15031e-20)
(2.1717 1.24943 -6.44766e-20)
(2.23506 1.0257 -7.98519e-20)
(5.70796 1.57957 1.64394e-20)
(5.74972 1.43144 -2.34651e-20)
(5.65546 1.58755 6.66664e-20)
(5.69761 1.63003 5.14873e-20)
(5.52938 1.58624 6.50916e-23)
(5.61904 1.54623 -3.62673e-20)
(5.32265 1.57995 6.96077e-20)
(5.44496 1.56222 4.46569e-20)
(5.02132 1.57739 5.75348e-21)
(5.19534 1.55117 2.16817e-20)
(4.59546 1.58536 -1.33145e-20)
(4.83432 1.54799 -2.03214e-20)
(4.03104 1.60759 4.9614e-21)
(4.32863 1.55884 1.61378e-20)
(3.37007 1.63123 1.36944e-20)
(3.67192 1.59395 -2.756e-20)
(2.7225 1.61339 2.19977e-20)
(2.94792 1.6255 2.6254e-20)
(2.22776 1.46577 4.57249e-20)
(2.29953 1.57385 1.38468e-19)
(1.88481 1.3567 4.63577e-20)
(1.93633 1.1638 6.65072e-21)
(5.73481 1.53601 3.93288e-21)
(5.78159 1.39125 -3.32884e-20)
(5.68068 1.54343 4.81762e-21)
(5.72038 1.58805 -8.89495e-22)
(5.5543 1.53976 -4.50972e-23)
(5.6459 1.48615 2.47998e-23)
(5.34888 1.53041 3.32075e-21)
(5.47076 1.50781 -5.04965e-23)
(5.05242 1.52332 4.29995e-23)
(5.22695 1.48621 3.90269e-23)
(4.62998 1.52487 -8.84446e-21)
(4.87515 1.47209 0)
(4.05395 1.54138 8.3593e-21)
(4.37642 1.46784 -9.92768e-21)
(3.34864 1.56348 2.57547e-20)
(3.70294 1.48882 -1.82308e-20)
(2.6215 1.5578 1.33888e-20)
(2.92267 1.51393 3.21793e-20)
(2.02574 1.46786 -3.65298e-21)
(2.18133 1.49011 1.44343e-20)
(1.65323 1.34683 -8.80824e-21)
(1.68623 1.23267 -2.20021e-19)
(5.76246 1.48174 -4.06126e-20)
(5.80247 1.34237 -3.36396e-20)
(5.7088 1.48718 -4.58436e-21)
(5.74405 1.53347 -4.19938e-21)
(5.58077 1.47797 2.74793e-23)
(5.67636 1.41414 -6.35175e-23)
(5.37925 1.45881 0)
(5.49533 1.43669 4.04088e-20)
(5.09172 1.43849 0)
(5.26024 1.39698 -4.16476e-20)
(4.68199 1.42231 0)
(4.92262 1.36288 0)
(4.1105 1.41889 -3.5699e-20)
(4.44391 1.33203 -6.37782e-20)
(3.37977 1.4273 -1.41165e-20)
(3.77658 1.32054 -1.09901e-19)
(2.58566 1.41766 -4.40034e-21)
(2.95708 1.33397 2.10469e-20)
(1.88969 1.35257 -2.76678e-20)
(2.13835 1.30931 -4.2823e-20)
(1.49655 1.2035 5.7856e-20)
(1.43583 1.17591 2.53323e-20)
(5.78349 1.43127 0)
(5.81801 1.2693 -1.85923e-20)
(5.72897 1.43815 -2.17674e-23)
(5.78082 1.47134 9.10959e-21)
(5.59871 1.39975 3.63687e-20)
(5.67287 1.33944 -2.4286e-23)
(5.4066 1.36779 -1.38615e-20)
(5.51664 1.34376 1.25202e-19)
(5.1308 1.32744 -4.61373e-20)
(5.28972 1.28619 -9.86327e-20)
(4.7411 1.28369 -5.71176e-20)
(4.96839 1.22545 -8.14964e-20)
(4.19293 1.24584 -1.48571e-19)
(4.51894 1.15943 -1.21317e-21)
(3.4619 1.22579 -9.01425e-20)
(3.88839 1.09687 2.65393e-19)
(2.62269 1.202 -1.06981e-20)
(3.05904 1.08319 -2.00119e-19)
(1.84197 1.14063 4.64192e-20)
(2.17899 1.05118 -8.51853e-20)
(1.4541 0.944082 2.09085e-19)
(1.27999 1.01919 3.0458e-19)
(5.79705 1.36762 -1.8651e-19)
(5.83173 1.18777 -1.31779e-20)
(5.74562 1.35012 1.00604e-20)
(5.77837 1.39685 1.36538e-20)
(5.60966 1.31018 7.70122e-20)
(5.6824 1.26111 3.36397e-20)
(5.42777 1.25883 3.57182e-20)
(5.5273 1.23009 1.24713e-19)
(5.1646 1.19276 -1.3601e-19)
(5.30896 1.15496 -1.41033e-19)
(4.798 1.11361 -3.77542e-20)
(5.00321 1.06344 -8.18407e-20)
(4.28828 1.02846 3.81617e-19)
(4.58472 0.95722 2.43529e-19)
(3.58603 0.961178 2.39328e-19)
(4.01794 0.839949 -8.02714e-20)
(2.73003 0.915622 -2.7522e-19)
(3.23564 0.761882 1.91203e-19)
(1.89715 0.84476 4.94292e-20)
(2.31081 0.718249 -8.5433e-20)
(1.5449 0.611974 1.205e-19)
(1.2573 0.770227 -1.10337e-18)
(5.79497 1.29484 7.41544e-21)
(5.83151 1.11396 -1.49568e-21)
(5.74366 1.26425 3.66681e-20)
(5.76512 1.30602 2.14706e-20)
(5.61279 1.20671 7.20527e-20)
(5.67616 1.168 1.53404e-22)
(5.43521 1.13235 -3.26221e-20)
(5.52582 1.10338 2.3617e-21)
(5.18395 1.03793 -9.29613e-20)
(5.31791 1.0042 -3.67667e-21)
(4.83978 0.923301 1.61673e-19)
(5.03013 0.879928 0)
(4.37871 0.792762 -1.64519e-19)
(4.64208 0.732521 1.81077e-19)
(3.75902 0.659677 -1.33905e-19)
(4.13108 0.56513 -1.20991e-19)
(2.93357 0.557114 4.43293e-19)
(3.44977 0.406495 -5.66593e-19)
(2.04707 0.479555 0)
(2.55865 0.324512 -2.38372e-19)
(1.71031 0.19928 -1.47877e-19)
(1.30844 0.350346 0)
(5.77422 1.21487 1.13401e-20)
(5.80485 1.03759 5.1528e-20)
(5.72407 1.16585 -1.28478e-20)
(5.73318 1.19982 -4.12431e-20)
(5.6005 1.08699 -7.16361e-20)
(5.65014 1.05814 -8.62525e-20)
(5.431 0.987194 3.24295e-20)
(5.50947 0.962293 -6.61979e-20)
(5.19479 0.862131 9.24316e-20)
(5.31582 0.834048 4.4825e-19)
(4.87395 0.71047 0)
(5.05062 0.67502 -5.38452e-19)
(4.44951 0.535311 2.98856e-19)
(4.69741 0.487349 1.56864e-19)
(3.89593 0.34594 -4.6685e-19)
(4.23982 0.275979 3.35228e-19)
(3.17796 0.167223 -1.23146e-18)
(3.65102 0.0551964 -6.13226e-19)
(2.32741 0.0419174 -3.97102e-19)
(2.87276 -0.0996731 -4.09626e-19)
(2.04361 -0.262624 -4.78418e-19)
(1.51221 -0.0626213 -6.73658e-19)
(5.73485 1.1223 2.33745e-19)
(5.75683 0.957329 5.89467e-20)
(5.68497 1.05362 -1.10972e-19)
(5.68036 1.08015 -5.75952e-20)
(5.56999 0.952079 -9.38647e-20)
(5.60143 0.931453 -9.04928e-20)
(5.41259 0.824398 2.92239e-19)
(5.47289 0.804851 -2.85455e-19)
(5.19622 0.666193 -6.70991e-20)
(5.29786 0.644192 5.31035e-19)
(4.90579 0.475989 -4.73731e-19)
(5.06113 0.448262 -4.97989e-19)
(4.52624 0.257271 1.73899e-19)
(4.74984 0.220506 -6.20211e-21)
(4.04031 0.0187794 2.69043e-19)
(4.35246 -0.0347718 3.04788e-19)
(3.42494 -0.216847 9.07921e-20)
(3.85065 -0.294837 6.44726e-19)
(2.67748 -0.399893 -5.37479e-19)
(3.20638 -0.507355 7.56023e-19)
(2.47345 -0.720157 -2.82459e-20)
(1.8702 -0.53354 -9.80926e-19)
(5.67127 1.01944 5.57322e-21)
(5.68167 0.872073 -2.68806e-20)
(5.62017 0.927838 -3.25392e-20)
(5.60005 0.947411 2.58863e-20)
(5.51485 0.801123 -2.71163e-19)
(5.52503 0.787471 -3.60755e-20)
(5.37349 0.643179 -1.40052e-19)
(5.4115 0.628586 -3.35357e-19)
(5.18306 0.450082 2.31918e-19)
(5.26097 0.432196 5.67031e-19)
(4.93162 0.221061 -1.14825e-19)
(5.06076 0.197037 -1.07993e-19)
(4.6086 -0.0392437 9.12528e-20)
(4.80129 -0.0725747 2.65119e-20)
(4.20304 -0.31691 5.90461e-19)
(4.4775 -0.369471 -3.28228e-19)
(3.69599 -0.582796 1.09588e-18)
(4.06965 -0.648597 5.46156e-19)
(3.07665 -0.801913 1.27038e-18)
(3.5592 -0.895128 1.52737e-19)
(2.97919 -1.12892 3.31653e-19)
(2.31296 -0.958101 2.25435e-19)
(5.57633 0.903946 -2.22251e-19)
(5.57123 0.776687 -3.14025e-20)
(5.52352 0.786094 2.83961e-20)
(5.4846 0.798506 2.19905e-20)
(5.42989 0.630699 -7.96927e-20)
(5.41401 0.621858 0)
(5.30979 0.438778 2.35327e-19)
(5.31886 0.427183 -8.84401e-20)
(5.1531 0.20689 3.23276e-19)
(5.20029 0.190306 3.30882e-19)
(4.94961 -0.0653568 -2.64341e-21)
(5.04699 -0.0884985 -2.90336e-19)
(4.69325 -0.36883 -3.31849e-19)
(4.85036 -0.398028 2.82556e-19)
(4.37708 -0.673085 -4.07009e-19)
(4.60796 -0.708789 -2.52744e-19)
(3.98505 -0.954215 -3.0604e-19)
(4.30364 -0.995119 2.63742e-19)
(3.50261 -1.19977 -6.91314e-19)
(3.92101 -1.26415 -6.23473e-19)
(3.47495 -1.52744 0)
(2.887 -1.43188 0)
(5.44304 0.770642 -1.05133e-20)
(5.41829 0.664383 -2.30965e-20)
(5.38803 0.623372 -3.95483e-21)
(5.32471 0.628231 1.47565e-20)
(5.30837 0.43474 0)
(5.2566 0.428444 -1.06566e-21)
(5.21542 0.20273 -4.70224e-20)
(5.17842 0.195006 -8.91255e-20)
(5.10133 -0.0758252 -1.95911e-19)
(5.09153 -0.0824822 1.77351e-20)
(4.95671 -0.387768 -9.26144e-20)
(4.99403 -0.389086 -6.97028e-20)
(4.77884 -0.703965 3.74108e-19)
(4.87651 -0.70596 -1.26962e-19)
(4.55845 -1.00601 3.04723e-19)
(4.72455 -1.01332 2.74794e-19)
(4.28026 -1.29555 0)
(4.52476 -1.31141 1.58871e-19)
(3.93265 -1.55295 0)
(4.26838 -1.59267 0)
(3.97087 -1.85613 0)
(3.44524 -1.79406 0)
(5.26395 0.615699 1.13408e-20)
(5.21064 0.524247 -1.14754e-19)
(5.20286 0.435842 3.28936e-21)
(5.10289 0.435422 3.78529e-21)
(5.13182 0.2085 -8.04212e-20)
(5.02272 0.213033 8.83358e-21)
(5.05741 -0.0641387 -6.22104e-20)
(4.95531 -0.0463735 -1.28013e-19)
(4.98414 -0.366089 1.05211e-19)
(4.90689 -0.339258 -5.51655e-20)
(4.91137 -0.676481 -1.23936e-19)
(4.87108 -0.648989 1.35973e-19)
(4.82136 -0.98782 -3.18603e-19)
(4.83079 -0.964181 -2.42375e-19)
(4.70103 -1.29953 1.41806e-19)
(4.76907 -1.27739 2.70816e-19)
(4.53839 -1.59865 1.76976e-19)