/*--------------------------------*- C++ -*----------------------------------*\
| =========                 |                                                 |
| \\      /  F ield         | OpenFOAM: The Open Source CFD Toolbox           |
|  \\    /   O peration     | Version:  3.0.1                                 |
|   \\  /    A nd           | Web:      www.OpenFOAM.org                      |
|    \\/     M anipulation  |                                                 |
\*---------------------------------------------------------------------------*/
FoamFile
{
    version     2.0;
    format      ascii;
    class       volScalarField;
    location    "0.102495";
    object      epsilon;
}
// * * * * * * * * * * * * * * * * * * * * * * * * * * * * * * * * * * * * * //

dimensions      [0 2 -3 0 0 0 0];

internalField   nonuniform List<scalar> 
21246
(
565.338
273.36
48.8152
11.6635
2.87449
0.982454
0.541598
0.417804
0.379473
0.372521
0.381129
784.072
454.782
108.286
19.2551
4.41211
1.31416
0.621275
0.443485
0.392922
0.384132
0.393685
843.625
457.441
147.743
35.4872
6.69301
1.72603
0.725723
0.475776
0.407847
0.395943
0.407057
766.018
419.438
162.867
46.4503
10.0091
2.16176
0.838923
0.51127
0.423593
0.407821
0.420394
635.981
388.79
168.857
54.5656
13.5784
2.90956
0.957585
0.548219
0.439889
0.419767
0.433938
502.798
365.165
174.218
63.554
18.2226
4.25192
1.19645
0.588698
0.456509
0.431502
0.447421
379.636
345.28
180.201
73.9776
24.3366
6.4453
1.71009
0.683897
0.477039
0.442504
0.461325
273.669
327.461
186.712
85.2121
31.7625
9.65548
2.66382
0.897286
0.520131
0.454807
0.472607
191.154
310.128
194.69
97.6121
40.6002
14.0832
4.2756
1.34342
0.620915
0.477377
0.482554
131.765
292.305
204.909
111.929
51.2631
20.036
6.83128
2.20295
0.854017
0.531452
0.496208
95.4247
280.253
217.994
128.094
63.6057
27.5202
10.5089
3.67184
1.33465
0.66249
0.526509
94.0533
283.146
236.305
146.568
77.4006
36.3011
15.3023
5.88616
2.19518
0.943997
0.602545
120.091
283.402
258.869
169.804
93.9337
46.7618
21.3422
8.98813
3.58227
1.4789
0.776519
137.073
260.93
277.906
199.749
115.759
60.137
29.0905
13.2036
5.67117
2.40033
1.12961
139.856
216.105
275.835
231.271
144.128
77.7851
39.1765
18.7994
8.63148
3.85001
1.76793
134.735
170.253
245.172
250.384
176.873
101.159
52.7771
26.3679
12.7604
6.01339
2.82722
127.391
134.315
200.445
244.104
205.039
129.482
71.0328
36.8114
18.5662
9.18332
4.4947
121.516
108.689
157.9
213.824
215.569
156.888
93.3393
50.7804
26.6712
13.7688
7.03151
118.39
90.9755
122.182
171.229
201.207
173.585
116.405
68.2327
37.7409
20.3703
10.8533
121.787
80.0101
94.3268
129.887
169.81
174.389
136.14
88.5534
52.5305
29.8801
16.644
146.01
81.5598
82.5839
103.289
137.608
165.565
151.136
111.376
72.0932
43.6294
25.5053
221.571
112.526
102.523
111.411
128.47
150.974
156.832
130.523
93.7903
61.5369
38.169
554.058
251.613
229.621
210.681
188.863
163.374
136.532
111.207
86.8838
64.2922
43.6755
620.638
486.302
415.627
379.645
347.472
308.78
260.225
206.022
153.041
106.018
69.203
464.956
146.504
36.4806
7.80435
2.10311
0.835406
0.505793
0.402636
0.367868
0.3603
0.36696
449.628
115.412
27.3321
8.16608
2.40825
0.935399
0.531667
0.405124
0.361871
0.350456
0.355183
480.591
139.672
28.7642
10.1593
3.28858
1.24696
0.622365
0.427355
0.360901
0.340037
0.340349
456.759
136.202
27.8045
10.7168
3.75999
1.49989
0.722761
0.455302
0.358855
0.325567
0.32041
416.751
116.648
26.3779
10.7456
3.87146
1.58133
0.756885
0.466595
0.358318
0.317558
0.30767
379.611
97.8284
24.6701
10.2463
3.76729
1.59348
0.771803
0.473363
0.357775
0.311681
0.297499
348.337
83.3293
23.0263
9.62358
3.59747
1.57147
0.771274
0.476492
0.358437
0.308128
0.288802
321.173
72.4039
21.5093
9.02543
3.43912
1.54214
0.768062
0.480643
0.362287
0.309388
0.285802
300.384
64.2323
20.2864
8.56007
3.33747
1.52045
0.769346
0.487608
0.369371
0.315125
0.289229
285.51
58.3984
19.3357
8.22483
3.30013
1.51799
0.779218
0.498884
0.380074
0.325103
0.298178
276.13
54.4162
18.7377
8.06648
3.3277
1.54286
0.800792
0.515864
0.394779
0.33905
0.311589
270.43
51.5915
18.3575
8.04724
3.41379
1.59635
0.835484
0.539472
0.41385
0.35692
0.32938
268.912
49.7641
18.2143
8.16866
3.56747
1.68447
0.886363
0.571197
0.437855
0.378774
0.352521
269.91
50.4733
18.6011
8.52043
3.83989
1.83132
0.964258
0.615188
0.468258
0.404965
0.380221
273.273
52.462
19.4699
9.10399
4.27095
2.07435
1.09561
0.685569
0.51207
0.438769
0.412951
279.697
55.9944
20.9604
9.9839
4.89525
2.44699
1.30437
0.797835
0.577574
0.4841
0.452016
289.967
61.4096
23.3177
11.2874
5.78248
3.00408
1.63201
0.980671
0.682033
0.550263
0.50166
305.813
68.9184
26.7791
13.1891
7.04054
3.8282
2.14531
1.28463
0.859732
0.658439
0.573691
330.036
79.2016
31.7847
15.9926
8.86741
5.06245
2.95875
1.80049
1.17865
0.855785
0.699124
367.432
93.7898
39.1511
20.2466
11.6377
6.9739
4.28085
2.69728
1.77364
1.24563
0.954453
427.853
115.695
50.4085
26.9579
16.0697
10.0896
6.52084
4.30755
2.92009
2.05389
1.52191
534.751
151.163
68.6609
38.1238
23.5948
15.4868
10.5224
7.31918
5.19681
3.77479
2.82161
752.487
225.248
105.699
60.3915
38.5351
26.2354
18.6018
13.5596
10.0986
7.67871
5.97497
1409.07
379.893
191.925
119.925
83.4471
61.7947
47.6458
37.7848
30.491
25.966
22.6064
243.208
189.589
134.681
109.653
95.0306
75.9466
48.1506
19.1797
6.04988
1.94457
0.662988
191.653
145.614
116.299
98.6416
87.0435
72.1785
48.9685
22.0258
6.21555
1.55183
0.476483
72.6877
111.387
90.9497
79.6777
72.336
62.2074
44.5637
22.0425
6.69231
1.4334
0.362299
38.4563
76.9614
66.1428
60.2064
56.4076
49.9613
37.0255
19.3826
6.35399
1.39114
0.302431
39.9041
44.9133
45.8447
44.1229
42.4029
38.2082
28.7111
15.4329
5.34045
1.24809
0.266274
32.0353
28.8486
31.0738
31.6318
31.1977
28.193
21.0956
11.3908
4.0819
1.025
0.230131
25.4357
19.777
21.2669
22.2271
22.43
20.1582
14.8041
7.9231
2.9136
0.788234
0.193351
20.8669
14.2585
14.8325
15.5038
15.73
13.9983
9.9997
5.28498
2.00001
0.588155
0.161141
17.4746
10.798
10.7048
10.9338
10.9254
9.51804
6.61956
3.48145
1.37506
0.445872
0.138205
14.8956
8.62196
8.14762
7.98771
7.71432
6.50681
4.44803
2.36897
0.996143
0.359931
0.125862
12.936
7.27262
6.62094
6.18347
5.70813
4.66976
3.17671
1.74755
0.793352
0.317884
0.122428
11.6245
6.46921
5.73361
5.13886
4.55911
3.64926
2.50358
1.44
0.704414
0.306607
0.126456
10.7465
6.00106
5.23892
4.5733
3.95774
3.14258
2.19588
1.32119
0.686402
0.316489
0.136431
10.0882
5.73893
4.98241
4.29184
3.67709
2.93129
2.09551
1.31118
0.712583
0.341647
0.151001
9.59381
5.5819
4.85338
4.16113
3.56495
2.8733
2.10388
1.36211
0.767819
0.379696
0.171179
9.24112
5.49682
4.79834
4.11314
3.54273
2.89869
2.1771
1.45719
0.850647
0.43301
0.198237
8.96305
5.47017
4.79795
4.12022
3.57971
2.98567
2.30963
1.60418
0.973014
0.511025
0.237188
8.77344
5.48632
4.83562
4.16773
3.67235
3.14731
2.52948
1.83694
1.16429
0.63339
0.298835
8.66219
5.54516
4.90595
4.26716
3.86742
3.46561
2.93643
2.24838
1.49302
0.840599
0.401214
8.63607
5.6029
5.00866
4.49151
4.34385
4.22333
3.84044
3.09056
2.12824
1.22834
0.590931
8.58526
5.86256
5.30141
5.26423
6.06653
7.3297
7.0755
5.41987
3.58573
2.04662
0.97877
18.2316
8.21553
8.84763
16.2048
23.0694
23.9503
20.8447
15.062
8.53944
4.25494
1.90459
22.4641
64.9907
68.1092
66.9183
60.7785
52.0407
42.257
31.9842
21.0446
10.7905
4.60532
433.014
260.143
172.187
120.277
87.2435
64.0457
47.7166
36.4401
27.7401
18.6893
9.77594
288.441
152.151
113.498
100.637
89.5357
71.3413
45.209
20.9249
7.7523
2.72058
0.981146
229.128
76.7126
67.8186
71.2639
73.3113
68.5635
52.6335
29.2384
11.8466
4.29648
1.64875
154.539
47.0276
40.616
45.5771
52.767
57.922
54.8801
38.6557
18.3333
6.94028
2.69152
129.17
39.726
30.1215
30.7191
35.5436
42.3751
47.2395
42.7388
26.3921
11.2011
4.4349
115.671
37.9209
27.0695
24.6287
25.9505
30.2305
36.2434
38.9343
31.5793
17.5805
7.32035
106.923
36.5266
25.8233
22.11
21.3257
23.0445
27.5508
32.7723
31.7179
21.4176
10.2114
101.342
35.6296
25.3645
20.9863
19.0041
18.9864
21.6263
26.7753
29.4575
23.0651
13.2145
97.7217
35.4114
25.4382
20.5444
17.7845
16.6584
17.8068
21.8444
25.9516
22.9763
14.8829
96.2022
35.6857
25.8971
20.4878
17.141
15.311
15.4812
18.3152
22.6806
22.0207
15.7104
96.554
36.4228
26.6714
20.6874
16.825
14.5357
14.158
16.0492
20.144
21.0207
15.6661
98.941
38.0817
27.6955
21.0963
16.719
14.1085
13.4692
14.7415
17.9916
20.3655
15.1534
102.665
40.1472
29.0939
21.7783
16.7705
13.8171
12.9599
13.8714
16.1948
18.7935
15.5132
108.116
42.8271
30.8793
22.743
16.9868
13.5843
12.4148
12.9082
14.5117
16.3691
15.4286
115.46
46.3072
33.2462
24.0828
17.4185
13.433
11.8742
11.9576
13.0283
14.4689
14.9756
125.062
50.9657
36.4821
26.028
18.2023
13.4449
11.4066
11.0701
11.6324
12.5546
13.2738
138.481
57.272
41.0055
28.9382
19.5963
13.7829
11.1211
10.3442
10.4518
10.9532
11.4779
157.45
65.9669
47.5956
33.5965
22.2592
14.8855
11.2517
9.8803
9.6238
9.96065
10.4417
184.779
78.1909
57.927
41.9007
27.9341
18.0303
12.5732
10.1551
9.34932
9.2636
9.44133
219.058
93.8904
72.6014
55.4748
38.1172
24.4537
16.4279
12.6032
10.9802
10.3643
10.1127
236.832
105.331
83.2662
65.9115
47.6167
31.7051
21.3803
16.1929
14.0666
13.5075
13.6626
263.19
114.687
92.0403
74.8546
55.6145
37.7654
25.4149
18.8619
16.0178
15.1797
15.4082
314.454
128.219
100.859
80.306
59.929
41.3914
28.0769
20.5516
16.9201
15.3871
13.583
424.623
166.543
108.882
81.0736
59.7015
42.2209
29.3032
21.643
17.8133
15.518
11.9782
1072.48
192.803
115.353
76.5598
56.6996
41.126
30.5438
23.9743
19.8997
16.1363
11.1186
2591.64
869.839
306.547
92.5773
26.4626
7.53086
2.16338
0.63423
0.195832
0.0696083
0.03213
1663.41
486.014
199.545
72.4205
24.0244
7.60338
2.32497
0.694731
0.211709
0.0722035
0.0316729
1105.85
363.286
166.861
75.2055
28.5147
9.65874
3.0674
0.928106
0.276547
0.0888323
0.0360676
818.055
284.029
132.756
66.2162
28.74
10.9066
3.70354
1.14726
0.335389
0.102481
0.0397833
657.793
227.228
108.06
56.0308
25.3874
10.1127
3.56516
1.14467
0.34827
0.10901
0.0416894
552.63
184.001
89.3227
47.1597
21.5998
8.79203
3.20762
1.07616
0.342848
0.11145
0.0437887
478.167
153.436
75.0364
39.5696
18.2353
7.51027
2.80467
0.975744
0.325217
0.110497
0.0444745
421.684
130.472
63.8744
33.4897
15.4519
6.39824
2.42696
0.868597
0.300823
0.106536
0.0455658
379.782
113.175
55.2199
28.7793
13.2613
5.50108
2.10775
0.771183
0.276458
0.102307
0.0458535
349.212
100.279
48.6556
25.2396
11.61
4.81555
1.85609
0.690275
0.254698
0.0979917
0.0451845
325.395
90.3628
43.5759
22.5505
10.3661
4.2982
1.66261
0.62573
0.2362
0.0936373
0.0446167
306.702
82.3487
39.4746
20.4259
9.4014
3.90206
1.51427
0.575425
0.221333
0.0900058
0.043909
293.83
76.0425
36.2392
18.7909
8.67939
3.6119
1.40622
0.538641
0.210445
0.087375
0.0435263
286.287
71.502
33.8396
17.6269
8.19107
3.42301
1.33698
0.515242
0.203722
0.0858574
0.0435537
283.172
68.0991
31.9903
16.7893
7.87757
3.31611
1.3013
0.504278
0.20129
0.085756
0.0440495
285.055
66.0522
30.7044
16.2772
7.74356
3.29659
1.30239
0.507353
0.20396
0.0873877
0.0451993
291.274
66.8467
30.4205
16.2486
7.91386
3.44674
1.38126
0.540607
0.217352
0.0926337
0.0475024
303.816
69.6295
31.018
16.6564
8.37787
3.79334
1.57028
0.625046
0.251782
0.106246
0.0529214
324.749
75.1009
32.8075
17.6509
9.21295
4.3965
1.91808
0.792229
0.323683
0.135643
0.0643404
358.235
84.4269
36.3558
19.5251
10.5776
5.36797
2.51431
1.10626
0.471081
0.200078
0.0906474
412.81
99.6561
42.5973
22.7972
12.7666
6.90872
3.51968
1.69223
0.77924
0.349805
0.158481
507.742
123.186
52.8098
28.2854
16.3137
9.39849
5.23569
2.79686
1.43627
0.713659
0.347207
684.525
162.122
69.8503
37.7038
22.43
13.7179
8.33663
4.95969
2.87291
1.61905
0.8893
1048.92
166.413
79.9736
49.2522
32.4731
21.7923
14.5787
9.62818
6.25146
3.98214
2.4885
2930.22
2011.36
511.196
162.929
50.128
12.876
3.28255
0.874581
0.250998
0.0839678
0.0367497
3666.27
2400.85
970.936
366.619
120.542
25.5396
6.08019
1.53758
0.404475
0.121025
0.0469852
2973.42
2045.03
1066.43
472.943
182.977
48.1854
10.3312
2.62915
0.673719
0.185005
0.0651207
1882.86
1710.59
1017.42
497.043
211.94
67.1216
15.2115
4.02012
1.06279
0.28574
0.0979763
1075.29
1512.68
946.38
489.034
220.382
77.9468
20.3682
5.51812
1.54942
0.42652
0.142057
636.055
1385.7
890.194
476.491
221.437
84.036
25.0302
7.02581
2.09024
0.603226
0.201371
435.742
1286.62
850.289
466.038
220.515
87.9228
28.9004
8.83697
2.66913
0.809979
0.27837
356.706
1209.74
819.663
456.069
218.038
90.2899
32.1166
10.6422
3.42963
1.05711
0.361665
337.46
1135.62
794.683
447.077
214.924
91.8122
34.9216
12.463
4.28588
1.39738
0.481019
334.28
1052.11
772.048
439.731
211.989
93.0395
37.5364
14.3533
5.26252
1.82337
0.643143
330.824
955.411
750.456
435.579
210.637
94.6986
40.2814
16.4244
6.41738
2.36495
0.862848
328.271
862.981
728.703
432.643
210.298
96.6917
43.16
18.7021
7.78935
3.06082
1.15596
327.55
784.507
703.73
430.267
211.407
99.3772
46.3719
21.2892
9.44828
3.9688
1.56824
323.055
706.044
672.249
429.483
215.12
103.34
50.2184
24.3518
11.5042
5.17291
2.17063
318.919
634.115
635.44
428.257
220.371
108.473
54.7936
28.0063
14.0781
6.78329
3.06027
316.414
571.328
594.507
425.226
227.205
115.052
60.3848
32.4901
17.3722
8.98632
4.37891
315.241
513.535
549.893
418.851
235.004
123.325
67.3734
38.1528
21.688
12.0505
6.36792
320.386
460.76
502.277
406.668
242.093
133.077
76.1455
45.4785
27.4749
16.3809
9.38509
342.631
411.598
451.12
384.949
245.661
143.825
87.3181
55.3023
35.4871
22.6351
14.0057
385.493
369.215
390.607
352.205
243.598
156.039
102.678
69.513
47.3003
32.0229
21.1931
417.98
295.095
298.472
294.053
231.996
168.305
122.534
88.8457
63.5619
45.1584
31.4244
628.806
289.951
229.727
217.353
187.606
145.826
114.404
89.0787
67.6757
50.5351
36.4733
700.972
448.084
437.715
317.781
239.978
179.943
132.94
95.2525
66.1845
44.8593
29.5559
1498.41
819.297
467.636
285.937
182.586
118.728
77.3773
50.1546
32.2111
20.4486
12.7855
90.9475
77.5376
58.6108
32.4047
7.1401
3.90838
4.31406
5.58995
16.4938
28.5896
28.5113
26.973
20.8744
11.5939
3.73598
2.38025
6.38718
17.9025
14.1342
15.4568
17.4521
16.1614
10.0583
4.04147
2.46847
7.04867
15.9531
7.92971
8.79457
10.8812
11.7693
8.43436
4.02256
2.67865
6.92037
12.6246
102.058
105.51
105.195
104.181
97.9944
90.1454
77.3474
62.3499
42.8986
29.7996
30.8948
32.2504
32.3983
30.6173
29.7904
28.5459
27.4567
24.4245
14.7461
15.9893
17.0945
16.8427
15.5807
14.9636
14.8982
16.4873
17.6378
8.07195
8.81607
9.57932
9.36578
8.64626
8.39206
8.42148
9.65022
11.6388
0.00902227
0.00829371
0.00834773
0.00759907
0.0227686
0.00756748
0.282502
0.0080809
0.00753899
0.00815156
0.0236854
0.0081169
0.00828099
0.00708068
0.0146217
0.00727601
0.00700078
0.00753322
0.00723879
0.0070896
0.0076789
0.231511
0.00852035
0.00767254
0.00792324
0.00709496
0.00829683
0.267002
0.906742
0.0127755
0.00708119
0.00856716
0.00717144
0.00806413
0.00862517
0.00826295
0.0076712
0.00790633
0.00725125
0.00760051
0.47099
0.0080955
0.00717724
0.00849493
0.233726
0.582756
0.00731293
0.403766
0.00888409
0.00729667
0.0114224
0.00761956
0.00796021
0.00719001
0.00729165
0.00737476
0.239843
0.00764087
0.996131
0.00693674
0.093578
0.00789589
0.0374318
0.035294
0.945818
0.00712704
0.00774352
0.00704976
0.00829632
0.0079837
0.00690688
0.00721536
0.00808835
0.00805191
0.00689197
0.00710421
0.0960532
0.00827654
0.170793
0.531303
0.0073795
0.0353938
0.00793266
0.00837985
0.00842248
0.00800234
3.27445
0.00768723
0.125766
0.00752124
0.00808988
0.00767567
0.654603
0.00715054
0.498364
1.03892
0.00687682
0.00803278
0.0896211
0.00743153
0.00891574
0.363277
0.00710759
0.00789317
0.0351085
0.00811394
0.00698014
0.0084524
0.00752512
0.0116091
0.00796604
0.00814693
0.00713169
0.00902157
0.00730867
0.00768827
0.00755102
0.00730657
0.00792622
0.00707183
0.00992275
0.00789885
0.0108485
0.00687981
0.672196
0.00895649
0.00716566
0.0069975
0.0070263
0.00718286
0.00779225
0.00693088
0.370885
0.00713074
0.00834102
0.00888003
0.0772442
0.0320927
0.0149252
0.00961874
0.00717618
0.0109591
0.236511
0.0100795
0.00751828
0.00908276
0.011717
0.00706867
0.00802077
0.00707061
0.00713235
0.00767432
0.00911727
0.00770671
0.00813053
0.00756196
0.0075431
0.165517
0.00697051
0.00745782
0.00737217
0.0238178
0.00716731
0.00771508
0.00774772
0.00764109
0.131904
0.00968925
0.00809978
0.926441
0.0070497
0.00705586
0.00822094
0.00772551
0.00861133
0.00798187
0.00721811
0.00986453
0.252439
0.00835685
0.00708986
0.165075
0.00849995
0.0107467
0.00793757
0.0122654
0.00705627
0.00725526
0.00824829
0.180837
0.00747965
0.00709947
0.00717369
0.430569
0.00832483
0.00759124
0.00741325
0.0581717
0.00723146
0.00856734
0.014722
0.00725903
0.0074516
0.00712518
0.00838796
0.0076791
0.00712048
0.00703191
0.00737361
0.00739754
0.00752069
0.00759083
0.00982118
0.00868253
0.00791275
0.00739821
0.00797512
0.00764521
0.00710408
0.00754572
0.00740049
0.00882988
0.00688101
0.00732692
0.00689103
0.00765654
0.0102958
0.00769089
0.00738443
0.0693381
0.169307
0.0071228
0.00710689
0.00807242
0.00951253
3.30476
0.00736434
0.00845284
0.00813653
0.0080949
0.00761371
0.00809197
0.00785893
0.287942
0.00715124
0.0259964
0.008003
0.0071553
0.462656
0.00730784
0.00715357
0.00752368
0.0100797
0.00725146
0.00749569
0.00745686
0.00735275
0.00785723
0.00956635
0.0070373
0.00821107
0.0093626
0.00737177
0.00819313
0.00796041
0.00745473
0.0114527
0.00720626
0.0187586
0.00821454
0.0190387
0.00727572
0.0072342
0.00731095
0.00755358
0.00735133
0.00687881
0.00775573
0.00897
0.0311387
0.00734448
0.00827748
0.00739053
0.00738355
0.00751187
0.00757576
1.74486
0.00823686
0.00884595
0.00725618
0.00834105
0.210731
0.0102742
0.00717988
0.00856477
0.00740717
0.0081453
0.00815789
0.00866147
0.00687393
0.00776783
0.0160825
0.00894977
0.0138093
0.00721121
0.0113871
0.00827812
0.00777227
0.174387
0.00742854
0.39208
0.00815993
0.0101599
0.00716182
0.160082
0.00834179
0.00743435
0.0601139
0.00710213
0.00736618
0.00705983
0.00730394
0.00745763
0.00705064
0.0721906
0.00919707
0.00778473
0.00722977
0.00708239
0.00743474
0.00709589
0.0385394
0.0774944
0.00846924
0.00832347
1.05114
0.0075689
0.00823579
0.00784489
0.00789565
0.0203985
0.00752324
0.00722019
0.00767877
0.015038
0.00774315
0.00715895
0.00753381
0.00773404
0.00720102
0.441651
0.00800961
0.00829329
0.00715638
0.0117034
0.00860267
0.00742115
0.00858961
0.00849928
0.00739279
0.0106123
0.00715094
0.00800113
0.00798777
0.00725235
0.141561
0.00696417
0.00760808
0.39501
0.0107891
0.00773351
0.0180143
0.713432
0.00687076
0.0105485
0.00831085
0.0101809
0.00859357
0.00750848
0.00708526
0.00750753
0.00753949
0.0101832
0.00767772
0.00712444
0.00735305
0.0122977
0.00690352
0.00792943
0.190128
0.00770648
0.251418
0.00693327
0.00949935
0.00740973
0.945464
0.00787262
0.00718505
0.00836027
0.00761106
0.00943252
0.00764304
0.00851166
0.00726701
0.00725103
0.632385
0.150306
0.00777516
0.00725811
0.00729804
0.00883533
0.0071901
0.0073386
0.00730453
0.00851855
0.00949063
0.00748955
0.00891576
0.00699334
0.206188
0.0136116
0.00731889
0.335919
0.00754628
0.00798773
0.011905
0.00789034
0.0245914
0.00977598
1.00627
0.00789646
0.00990036
0.00693626
0.00736049
0.00832426
0.00764536
0.00850343
0.0140728
0.00687586
0.00860016
0.00764794
3.52837
0.00702089
0.0130159
0.00767128
0.00771983
0.00717899
0.0419881
0.00739807
0.0204613
0.00774645
0.00833483
0.00793532
0.191843
0.0130936
0.408651
0.007039
0.0163032
0.0216766
0.00825477
0.00738226
0.00716782
0.00692035
0.00746549
0.00845165
0.127441
0.0964558
0.0902243
0.0916647
0.00708259
0.00799557
0.0146719
0.00705322
0.0902539
0.00810458
0.00822677
0.00731294
0.0347608
0.0282042
0.00707842
0.00778186
0.00773163
0.0410703
0.136289
0.00845234
0.00860868
0.0962172
0.0107295
0.0077362
0.00739407
0.0213946
0.00758218
0.00792282
0.00763966
0.0071623
0.00730572
0.00713789
0.00698933
0.0101225
0.00716459
0.00722913
0.00720704
0.00805979
0.00806436
0.446972
0.00767583
0.00952804
0.00711865
0.373793
0.0083565
0.00772573
0.0146213
0.209232
0.00761743
0.0089898
0.00742499
0.00763275
0.00698453
0.00778591
0.00769838
0.00719681
0.00827152
0.00768246
0.008179
0.0089579
0.00751598
0.00798607
0.00743998
0.00831763
0.007743
0.761455
0.00821911
0.00790813
0.00709614
0.154989
0.00856288
0.00786045
0.00841413
0.388925
0.030294
0.00794966
0.00791276
0.00688966
0.00834529
0.00702105
0.00830777
0.00774204
0.00884639
0.240239
0.00723994
0.00786501
0.495309
0.00769973
0.00723649
0.0116144
0.00806055
0.00830062
0.00762917
0.0442785
0.00721283
0.00719429
0.339741
1.48392
0.0079178
0.00727499
0.00827779
0.00714964
0.00730329
0.0166702
0.00807629
0.00752298
0.0073844
0.00713148
0.00710972
0.00702755
0.00776789
0.026657
0.00772043
0.0169476
0.0078149
0.00761178
0.00735451
0.0068886
0.00728929
0.00865863
0.196258
0.00766435
0.00841987
0.00854721
0.466707
0.00762842
0.00751032
0.00864978
0.00762197
0.00707271
0.0203186
0.00739312
0.00728574
0.00774769
0.00790297
0.738481
0.00748798
0.0106775
0.00709683
0.00794802
0.135797
0.00702082
0.00725553
0.00852215
0.00739879
0.00711824
0.00719049
0.00761801
0.0193574
0.00805801
0.0103213
0.00722823
0.0077633
0.00709907
0.00779303
0.535393
0.00753029
0.00755057
0.00755929
0.0786477
0.00720613
0.00736413
0.0201653
0.00831315
0.0104876
0.00746626
0.00720023
0.00935968
0.00694525
0.00717217
0.164329
0.00743461
0.022652
0.00765455
0.00773153
0.151475
0.00769762
0.00855599
0.00836314
0.00796791
0.0773405
0.00761698
0.00706396
0.0105406
0.00692905
0.00719735
0.425013
0.00751906
0.00935652
0.00769481
0.011099
0.00811845
0.00721869
0.0088938
0.00846342
0.00722228
0.00719651
0.00719971
0.0082513
0.00808194
0.0494346
0.0759656
0.0071239
0.00700602
0.00908898
0.00731752
0.00727609
0.189999
0.00712605
0.00697871
0.00742695
0.00771496
0.00754042
0.00849534
0.00714386
0.0105859
0.0071174
0.441852
0.00739265
0.00827993
0.00841666
0.0111206
0.00691877
0.202982
0.00718125
0.00750473
0.00973176
0.00840303
0.00893768
0.00710365
0.00856377
0.00812463
0.00763901
0.00760532
0.00834719
0.00754103
0.0081608
0.00785545
0.0075083
0.00770096
0.0069857
0.0097873
0.00924456
0.219255
0.00729169
0.00812859
0.0074166
0.00757499
0.00773903
0.00712416
0.310994
0.00783848
0.00710306
0.00791013
0.00708755
0.416011
0.0096419
0.0237306
0.00706935
0.00714827
0.0108735
0.00714006
0.00756352
0.00823613
0.00727901
0.00742602
0.00772254
0.012228
0.0112382
0.00702814
0.00704335
0.00814253
0.00745508
0.0215376
0.0428095
0.00802626
0.00715741
0.28933
0.00811135
0.682796
0.00873915
0.00803588
0.00695337
0.0075542
0.00759213
0.00862692
0.00795384
0.00743864
0.00687254
0.00818482
0.00713848
0.00751685
0.00718446
0.00769891
0.00752606
0.00753947
0.00721603
0.00854544
0.485745
0.00782139
0.00688771
0.00843577
0.00760265
0.0100701
0.177324
0.00986659
0.00729629
0.00723286
0.00952647
0.00719316
0.00841104
0.00766068
0.00700562
0.0500542
0.00860537
0.00789195
0.00875072
0.102135
0.00737536
0.00737094
0.00819024
0.00709137
0.010695
0.00813494
0.00821573
0.00838049
0.00787989
0.00715306
0.00716822
0.239766
0.01436
0.00693407
0.00824415
0.0076939
0.00793137
0.00808511
0.00748254
0.00827483
0.00772593
0.00807246
0.385431
0.0075217
0.0272593
0.00894651
0.00721003
0.00770719
0.00782562
0.687659
0.00716004
0.0081517
0.0105075
0.00797509
0.0077243
0.00749561
0.00813639
0.0110934
0.456794
0.00796651
0.00814708
0.00694076
0.0076075
0.00753495
0.00733417
0.00842805
0.00717175
0.00746945
0.00714974
0.00763839
0.00829197
0.00716554
0.00762558
0.00733154
0.00824207
0.00692121
0.00760956
0.750517
0.391551
0.00736211
0.00809174
0.0258909
0.00853057
0.00711248
0.0106777
0.00789708
0.00765974
0.00768536
0.0628722
0.00787843
0.00754411
0.007648
0.00715975
0.00767678
0.00860066
0.00728857
0.00754289
0.0104166
0.00792748
0.0081439
0.00713025
3.91616
0.00754296
0.00711382
0.00935093
0.208389
0.00707861
0.00796213
0.0297735
3.54078
0.00703968
0.00872496
0.00710355
0.00731464
0.00846374
0.00808402
0.00964732
0.0100739
0.00726962
0.00827129
0.00821181
0.00716529
0.00741976
0.00717355
0.0082074
0.00711977
0.0288496
0.00775631
0.00801526
0.00715186
0.00831242
0.00808302
0.763709
0.00859062
0.00765456
0.00754034
0.00755796
0.00755901
0.173949
0.00851077
0.00813731
0.00706209
0.00728943
0.00714116
0.007624
0.0191433
0.00715843
0.00765275
0.00729198
0.00693081
0.0069544
0.0267475
0.00712647
0.00695005
0.00804166
0.00712579
0.165193
0.00715433
0.00804268
0.00710273
0.0106615
0.00779989
0.00739943
0.00753563
0.00830314
0.00745409
1.00585
0.0169783
0.0354418
0.00702553
0.00714047
0.00745435
0.363885
0.00801579
0.0103641
0.00718594
0.00759372
0.0137433
0.00791477
0.00754316
0.00715264
0.00777646
0.00830259
0.00804011
0.0084545
0.00765219
0.00748926
0.00824384
0.0070844
0.00780015
0.00714511
0.00937551
0.00859868
0.202007
0.0100779
0.00695193
0.643949
0.0076428
0.232792
0.00832387
0.00775894
0.00717215
0.00827894
0.0231616
0.00871646
0.00721798
0.0076898
0.00766751
0.00851543
0.00843719
0.00739882
0.00804032
0.0075799
0.00701062
0.00772332
0.00812982
2.94052
0.00800846
1.01073
0.00812728
0.0172606
0.00959938
0.0120877
0.00792877
0.00695768
0.00855527
0.00695137
0.0473013
0.00815259
0.0105211
0.00694709
0.00817749
0.00749378
0.00721289
0.00779435
0.00734158
0.221528
0.00770757
0.654973
0.00741707
0.00794404
0.00732391
0.00827757
0.00800621
0.0569756
0.0243151
0.00754324
0.00771324
0.00756168
0.0114506
0.00693921
0.00810019
0.0105789
0.00856705
0.00689288
0.0122921
0.00831848
0.00718376
0.007467
0.00689466
0.00801849
0.426138
0.0110157
0.00763151
0.00753111
0.00813434
0.00874902
0.00958849
0.382551
0.007271
0.0073028
0.00784701
0.0762815
0.00796222
0.00701435
0.00796016
0.00752093
0.00928094
0.00692997
0.00716089
0.222489
0.915138
0.41002
0.00728273
0.0104598
0.0173241
0.00838699
0.00711447
0.00785235
0.00876608
0.105546
0.00750889
0.00702188
0.00727818
0.0069367
0.00811802
0.00715015
0.00862649
0.429836
0.0083023
0.00864918
0.215212
0.00766461
0.00935918
0.00757007
0.00760279
0.0418428
0.0075278
0.0212329
0.256749
0.00718504
0.0104956
0.503326
0.00758335
0.00832895
0.00738172
0.00714773
0.00697326
0.00706943
0.0117876
0.00885156
0.00723134
0.250626
0.00751069
0.00709998
0.00916356
0.00818377
0.00725492
0.00707891
0.00721833
0.00712747
0.0137868
0.00723036
0.0703264
0.215203
0.00872119
0.210909
0.0421586
0.00734071
0.00740427
0.00745736
0.00768194
0.00803969
0.00734694
0.00750203
0.00824227
0.00713143
0.00809632
0.00709028
0.0070145
0.00835435
0.834695
0.0119426
0.00750637
0.00721507
0.0125958
0.00701312
0.00710792
0.492876
0.00776403
0.00739777
0.00730986
0.00710086
0.00755163
0.0304119
0.00772078
0.00747807
0.0111473
0.00760344
0.00838925
0.00731646
0.00931091
0.00824076
0.0080575
0.0301202
0.00764095
0.00710804
0.00860414
0.0079711
0.00767995
0.00728016
0.00687485
0.0385121
1.49439
0.0103626
0.0252618
0.0280397
0.00819763
0.0190758
0.00708035
0.00701953
0.694488
0.029672
0.366125
0.0835419
0.00815418
0.00792785
0.0181934
0.0395606
0.00747003
0.329733
0.00686658
0.0081669
0.00712986
0.00713009
0.00725577
0.0432484
0.00710896
0.00737815
0.0238453
0.00710551
0.00773345
0.00829216
0.00794219
0.122202
0.00855145
0.00769863
0.0072504
0.00959877
0.043083
0.00698271
0.00724457
0.0157672
0.00997951
0.00792902
0.0122111
0.00847876
0.00709644
0.0187565
0.0119333
0.00752036
0.363507
0.0147825
0.00836006
0.00697272
0.00760892
0.00805535
0.00731864
0.00806654
0.0076793
0.00728622
0.253913
0.00730403
0.007454
0.00762575
0.00833612
0.00814292
0.00859551
0.00688797
0.00770787
0.00767873
0.0133056
0.00814642
0.0210395
0.204919
0.00715396
0.0165883
0.00825535
0.00694324
0.0265107
0.00801386
0.00815897
0.00787855
0.00712213
0.00793551
0.00715672
0.00869607
0.0639465
0.00724406
0.00703421
0.0074021
0.00882876
0.0159492
0.0132184
0.00855513
0.00832428
0.0159134
0.00698112
0.00703613
0.00712353
0.0078879
0.00771464
0.00794598
0.0285552
0.00745229
0.0261835
0.00761748
0.0085936
0.00752267
0.00721654
0.00882841
0.00715489
0.00758724
0.0336898
0.00744707
0.22183
0.00691442
0.00779206
0.014966
0.00711543
0.00795624
0.416954
0.00692921
0.00717144
0.00812765
0.00800155
0.0073731
0.0375086
0.0118348
0.00695448
0.0766194
0.538091
0.00789772
0.0070737
0.00723197
0.00693142
0.0115227
0.00811118
0.00799849
0.00839318
0.00759571
0.154041
0.00761173
0.00845939
0.218093
0.0114941
0.00726513
0.00770175
0.00759012
0.00958621
0.00858068
0.00713625
0.0103118
0.00801415
0.00879656
0.00802998
0.00862748
0.00817939
0.0070699
0.00769565
0.0209532
0.00837955
0.00876942
0.158744
0.00713139
0.0070426
0.00781122
0.00710405
0.00771739
0.00826403
0.00850055
0.00716896
0.00739437
0.00777226
0.00773309
0.0156409
0.0070686
0.00861447
0.00848227
0.00825603
0.00788345
0.00726636
0.00799153
0.00933986
0.00802131
0.00703859
0.00727174
0.0352512
0.00789616
0.00799969
0.025444
0.00844822
0.00855189
0.010292
0.00719611
0.00883215
0.0075416
0.0204013
0.0078854
0.00720324
0.00733074
0.00741669
0.00887864
0.00732559
0.0173182
0.00764485
0.0321272
0.00719669
0.0167553
0.00758253
0.00769762
0.0105898
0.00751902
0.532171
0.00770993
0.00711163
0.00752069
0.00835188
0.00744977
0.00840303
0.0111724
0.0132314
0.00750885
0.00811478
0.00730042
0.00980189
0.00741921
0.00746402
0.00701204
0.00789467
0.00940519
0.0139718
0.00751439
0.0160097
0.00797904
0.0088214
0.00909016
0.598839
0.00710766
0.0102003
0.007397
0.0321512
0.00820161
0.00705084
0.0289722
0.0109492
0.0106288
0.00713125
0.00752809
0.00998134
0.00755138
0.00756085
0.200076
0.00810225
0.00830061
0.00861185
0.00721311
0.0100586
0.00766866
0.00762959
0.00747125
0.00704874
0.013676
0.0081262
0.00701718
0.0108716
0.00694262
0.00774247
0.00764353
0.00731516
0.0339734
0.0138501
0.0071555
0.00845503
0.00714679
0.514546
0.0107705
0.0070911
2.1715
0.00772604
0.00705456
0.00737045
0.00706844
0.00849002
0.0082115
0.00729576
0.00707856
0.0684037
0.00705621
0.00761086
0.00864773
0.00697773
0.00752746
0.00989858
0.00713554
0.00727638
0.00745307
0.00855954
0.00766696
0.00748336
0.00694309
0.00720343
0.0070822
0.0116472
0.0079531
0.00719766
0.0074006
0.00756142
0.00836751
0.00760948
0.00715808
0.00889389
0.00878289
0.00736278
0.0110356
0.00757641
0.00745706
0.127689
0.00985204
0.00708417
0.373473
0.00901071
0.00742807
0.00920255
0.00756397
0.00809953
0.00946387
0.00756874
0.0068523
0.00781528
0.00848244
0.0077163
0.0254908
0.00694004
0.0295736
0.0078153
0.00766869
0.0129231
0.439496
0.0075127
0.00796529
0.00694089
0.00828563
0.00783041
0.00919877
0.00790037
0.00989485
0.00689506