# Force coefficients
# liftDir    : (0.000000e+00 1.000000e+00 0.000000e+00)
# dragDir    : (1.000000e+00 0.000000e+00 0.000000e+00)
# pitchAxis  : (0.000000e+00 0.000000e+00 1.000000e+00)
# magUInf    : 2.800000e+00
# lRef       : 3.200000e-02
# Aref       : 3.200000e-02
# CofR       : (0.000000e+00 0.000000e+00 0.000000e+00)
# Time       	Cm           	Cd           	Cl           	Cl(f)        	Cl(r)        	Cm	Cd	Cl	Cl(f)	Cl(r)
1.418253e-07	-3.558610e-02	1.421563e-02	4.203764e-02	-1.456729e-02	5.660492e-02
8.819300e-06	-2.536245e-02	9.491628e-03	6.256694e-03	-2.223411e-02	2.849080e-02
