/*--------------------------------*- C++ -*----------------------------------*\
| =========                 |                                                 |
| \\      /  F ield         | OpenFOAM: The Open Source CFD Toolbox           |
|  \\    /   O peration     | Version:  3.0.1                                 |
|   \\  /    A nd           | Web:      www.OpenFOAM.org                      |
|    \\/     M anipulation  |                                                 |
\*---------------------------------------------------------------------------*/
FoamFile
{
    version     2.0;
    format      ascii;
    class       volScalarField;
    location    "0.826417";
    object      epsilon;
}
// * * * * * * * * * * * * * * * * * * * * * * * * * * * * * * * * * * * * * //

dimensions      [0 2 -3 0 0 0 0];

internalField   nonuniform List<scalar> 
21246
(
290.006
161.884
24.9377
5.76785
1.61308
0.731936
0.501295
0.425481
0.397637
0.388446
0.387629
439.553
304.236
50.5913
9.12913
2.19015
0.866756
0.531444
0.427355
0.388808
0.373116
0.365908
525.751
318.267
75.5915
14.9052
2.70326
1.01166
0.564617
0.42965
0.37938
0.356887
0.342654
535.131
297.974
85.7853
19.0962
3.10368
1.13835
0.593175
0.431172
0.370455
0.342377
0.323122
499.219
284.743
90.0619
21.6679
3.66229
1.24018
0.616518
0.432558
0.362837
0.330825
0.309729
444.42
278.742
94.7757
24.8756
4.69145
1.36245
0.639481
0.435098
0.357256
0.322224
0.300539
379.98
276.794
101.01
29.2475
6.29008
1.63821
0.684927
0.43999
0.354011
0.316159
0.293799
312.908
277.198
107.971
34.2934
8.40628
2.11774
0.777129
0.456183
0.354291
0.312284
0.289601
251.953
278.373
116.297
40.1903
11.1231
2.89301
0.949942
0.490542
0.360176
0.311243
0.2873
200.453
278.947
127.375
47.7218
14.7798
4.13406
1.27435
0.563156
0.375404
0.313248
0.286561
157.408
280.124
140.616
56.7976
19.4209
5.94741
1.8318
0.706996
0.409073
0.32025
0.287553
124.118
283.71
155.323
66.8934
24.7982
8.30693
2.67853
0.96218
0.476909
0.336751
0.291258
102.421
287.63
172.23
78.6052
31.1392
11.3068
3.89791
1.38666
0.606099
0.372324
0.300435
91.2309
288.799
191.59
92.8967
38.9655
15.1652
5.61457
2.06285
0.841524
0.44593
0.321548
90.2851
290.751
212.94
109.629
48.2594
19.8934
7.87945
3.05817
1.23627
0.5872
0.367516
99.3416
290.518
235.365
129.679
59.7443
25.8274
10.852
4.47813
1.86606
0.842964
0.46228
116.142
284.29
255.882
153.866
74.6701
33.6898
14.8859
6.51174
2.84904
1.28916
0.649432
134.362
269.207
268.595
180.713
93.8501
44.2749
20.4611
9.43902
4.3614
2.04126
1.00236
151.78
248.03
268.236
206.277
117.662
58.7977
28.4812
13.8118
6.73473
3.30661
1.65361
167.949
223.426
251.856
222.449
144.149
78.4727
40.4358
20.697
10.6427
5.50093
2.86253
182.523
192.919
219.393
220.11
167.763
103.879
58.6825
32.1869
17.5307
9.54676
5.20389
236.595
172.525
187.092
207.345
184.823
134.505
86.3221
51.9804
30.3902
17.5629
10.0724
268.539
150.974
151.412
158.355
155.019
135.648
105.354
74.0768
48.7929
31.055
19.1966
542.599
590.886
438.526
360.254
283.917
211.935
150.889
103.336
69.509
46.4204
30.4147
220.887
88.7906
19.5893
3.94773
1.26413
0.662758
0.487311
0.425849
0.404074
0.400012
0.406004
251.315
68.9282
13.5358
4.1775
1.42963
0.720446
0.508517
0.434122
0.407827
0.402803
0.409771
290.941
86.9233
13.0055
4.85964
1.75875
0.866896
0.565357
0.456372
0.415759
0.40457
0.409085
295.79
85.1464
12.3014
5.00461
1.81938
0.921337
0.589052
0.460791
0.409503
0.39179
0.392359
284.821
72.366
11.6981
4.98861
1.83018
0.943931
0.592058
0.454791
0.39886
0.379016
0.377787
271.351
60.2391
11.0509
4.72647
1.75474
0.928944
0.579392
0.443394
0.387182
0.367424
0.366456
258.951
51.0719
10.4165
4.39334
1.65296
0.896712
0.557615
0.427627
0.372892
0.354016
0.354158
246.833
44.2702
9.80263
4.07046
1.56002
0.860118
0.534355
0.410916
0.357639
0.339129
0.33976
237.834
39.2714
9.29412
3.81438
1.49544
0.826268
0.514057
0.395354
0.342719
0.323657
0.323574
232.492
35.7861
8.90693
3.62383
1.45904
0.801103
0.498579
0.382025
0.328937
0.308395
0.306437
231.144
33.5416
8.68822
3.51883
1.44919
0.788124
0.488875
0.371612
0.316897
0.29425
0.290023
232.597
32.0885
8.57906
3.48354
1.46365
0.78757
0.485182
0.364493
0.307013
0.28172
0.274545
237.473
31.4967
8.60171
3.51919
1.50741
0.801554
0.488585
0.361297
0.299734
0.271209
0.260688
243.615
33.5169
9.09495
3.70012
1.61572
0.843425
0.505591
0.364666
0.296464
0.263668
0.250234
251.58
36.7618
10.0502
4.04671
1.80947
0.927781
0.545004
0.379225
0.299722
0.260559
0.243323
262.128
41.5468
11.6426
4.64118
2.12283
1.07739
0.619163
0.412304
0.313262
0.26383
0.240838
276.113
48.2469
14.153
5.6354
2.62778
1.33477
0.753081
0.479026
0.345657
0.278225
0.245204
295.302
57.0958
17.8586
7.2479
3.45138
1.77721
0.995693
0.610672
0.416355
0.315499
0.26332
322.518
68.8089
23.2245
9.83059
4.82743
2.55597
1.44788
0.875174
0.571119
0.405929
0.315222
362.524
84.9766
31.0937
13.9801
7.18596
3.97283
2.32394
1.42609
0.920675
0.62935
0.458614
424.955
108.703
43.0631
20.7594
11.3208
6.62879
4.08257
2.6153
1.73715
1.19757
0.859635
532.415
146.321
62.4302
32.2969
18.7821
11.728
7.68804
5.22701
3.66612
2.64785
1.96963
745.063
223.964
102.039
55.87
34.2224
22.522
15.5778
11.199
8.3206
6.36892
5.00936
1366.5
388.372
199.585
124.532
85.9371
62.4718
46.8675
36.6179
29.5052
24.2771
20.0114
1056
506.94
224.756
113.057
58.6151
28.3655
12.8001
5.8223
2.98129
1.85631
1.47216
1023.89
531.196
288.3
156.532
84.114
41.7998
17.763
6.68718
3.01404
1.75361
1.39122
667.028
426.064
285.246
176.3
103.487
55.8815
26.1112
10.0303
3.59503
1.70395
1.26285
308.739
307.831
247.956
174.633
112.75
66.3614
34.3554
14.7451
5.311
1.98791
1.151
111.766
215.003
203.181
160.442
113.299
72.2853
40.9764
19.7182
7.83774
2.77323
1.20631
62.8348
150.187
162.898
140.664
107.205
73.5283
45.1217
23.9912
10.6698
4.00371
1.49545
51.9482
100.019
127.308
118.758
96.4847
70.4578
46.3064
26.7778
13.1691
5.41425
1.98824
39.1981
59.618
94.0555
96.4767
83.1177
64.0183
44.6108
27.6708
14.8032
6.64891
2.55182
28.7736
34.9137
63.0581
74.9
68.8268
55.557
40.7062
26.7707
15.339
7.42618
3.02171
21.1634
23.1045
39.3499
54.9331
54.8266
46.3274
35.4876
24.512
14.837
7.62252
3.27425
15.5752
15.9717
25.1852
37.4129
41.9645
37.2348
29.7107
21.3849
13.5086
7.25847
3.25203
11.7411
11.434
16.8008
24.7368
30.5164
28.8817
23.9459
17.8415
11.6367
6.45866
2.98962
9.10366
8.46936
11.5592
16.439
21.242
21.5872
18.5967
14.2713
9.53518
5.41983
2.57789
7.18101
6.4517
8.18999
11.0819
14.4414
15.5128
13.9089
10.9675
7.48176
4.34471
2.11805
5.90665
5.10528
6.0478
7.66311
9.77932
10.7918
10.0468
8.14867
5.69433
3.39678
1.71109
5.06375
4.22373
4.7203
5.5337
6.73737
7.42264
7.13236
5.98773
4.33951
2.69936
1.42516
4.51351
3.66201
3.91723
4.24622
4.84771
5.26002
5.20632
4.59041
3.52352
2.33241
1.30449
4.20059
3.32558
3.42636
3.4803
3.77859
4.0974
4.25723
4.03855
3.35289
2.39062
1.42285
4.01686
3.13694
3.08915
3.03077
3.31794
3.85134
4.45122
4.67817
4.18581
3.14014
1.93533
3.99328
3.18279
2.88014
2.94844
3.64304
5.17314
7.04645
8.34671
7.83474
5.82228
3.50605
7.0526
4.1622
3.31492
4.05844
6.58916
12.0394
15.0156
15.469
14.4443
12.1486
8.17286
13.6719
5.82617
5.57333
11.2283
18.1452
20.5657
20.0635
18.2646
16.1576
14.164
11.6032
18.6463
21.789
28.1513
32.0435
30.4564
26.4245
21.6635
17.2977
14.0038
12.0174
10.6831
151.621
93.9277
66.7012
47.72
34.3681
24.7002
17.7688
13.1059
10.3043
8.97174
8.53791
1276.42
338.84
172.675
93.9158
50.208
25.5049
12.3895
6.05785
3.22198
2.00973
1.54222
1011.66
265.663
145.372
90.6485
55.012
30.6537
15.6217
7.64568
3.90902
2.27778
1.61352
513.801
196.05
120.266
86.8345
60.9222
38.0477
20.7017
10.2373
5.02299
2.69867
1.73233
190.178
93.1486
78.5088
72.75
61.873
44.9726
27.1311
14.0357
6.78371
3.39764
1.95291
56.768
36.8033
38.5823
46.8903
52.5787
47.868
34.2466
19.6721
9.79676
4.7043
2.46035
24.0829
16.9073
19.7194
27.3024
36.6194
41.4172
36.7973
25.3075
14.1545
7.04188
3.43071
18.4873
12.5863
13.5977
17.9269
25.5368
32.9362
34.0254
26.7416
16.463
8.70837
4.43974
17.7637
12.2361
12.2003
14.5844
19.5111
26.354
30.5441
27.0079
18.1875
10.2402
5.50935
18.0528
12.5761
12.0094
13.4956
16.7032
21.9252
26.9618
26.5602
19.4378
11.5497
6.50395
18.7875
13.0049
12.1133
13.0672
15.1887
19.0853
23.7706
25.3231
20.406
12.644
7.38376
19.8796
13.6456
12.4178
12.7908
14.0905
16.9635
21.0168
23.5036
20.6267
13.7412
8.1061
21.408
14.5349
12.8004
12.5578
13.1937
15.1769
18.5027
21.3756
20.0915
14.363
8.83963
23.1511
15.4155
13.2275
12.4677
12.4793
13.6132
16.136
19.0263
18.9962
14.4998
9.32126
25.1244
16.348
13.743
12.4991
11.9215
12.2867
13.968
16.5707
17.4884
14.2571
9.50408
27.4476
17.3845
14.3718
12.638
11.514
11.2163
12.1179
14.1962
15.6966
13.6949
9.51932
30.3945
18.6065
15.1534
12.8961
11.2421
10.3842
10.6511
12.0991
13.7246
12.8296
9.53182
34.3465
20.1181
16.1703
13.3652
11.1734
9.80354
9.56972
10.4314
11.7542
11.681
9.53987
39.8031
22.1325
17.7091
14.3457
11.4924
9.52345
8.81153
9.19229
10.0781
10.3557
9.26883
47.5534
25.1283
20.2474
16.1129
12.3845
9.65995
8.38503
8.31025
8.80608
9.12281
8.74303
58.4683
29.7979
23.8787
18.7846
14.0277
10.3479
8.35461
7.77118
7.88397
8.05451
7.87955
70.734
35.7116
28.4904
22.3113
16.3226
11.542
8.72568
7.58105
7.30722
7.26571
7.12029
93.0662
44.2014
34.7094
25.9756
18.5546
12.8478
9.34342
7.69745
7.09213
6.88024
6.74336
136.6
67.1266
40.8024
28.2809
19.7913
13.8116
10.0134
8.03506
7.18672
6.8784
6.8566
412.889
77.3435
44.3766
28.0582
19.9471
14.4903
10.8269
8.65438
7.57115
7.20843
7.30275
2323.65
782.362
311.68
115.911
38.8651
12.3458
3.85223
1.19988
0.381324
0.129744
0.0519997
1640.34
457.556
212.24
89.6151
33.9977
11.9345
3.95342
1.25911
0.395738
0.130075
0.0502817
1002.98
357.908
177.888
84.8763
35.3183
13.1666
4.52415
1.46962
0.464007
0.149948
0.0560206
692.569
263.849
146.332
80.5958
37.9056
15.1047
5.38885
1.79309
0.571173
0.183114
0.0664458
519.767
202.032
113.535
66.6499
34.2438
15.0194
5.74202
1.97863
0.629284
0.195897
0.0679524
425.29
160.37
91.846
54.7849
28.6306
13.0129
5.17533
1.85417
0.617438
0.200351
0.0721443
361.895
132.63
76.1336
45.592
24.1191
11.1427
4.54984
1.68995
0.58644
0.198098
0.0730919
315.989
112.363
64.2607
38.3764
20.3837
9.50085
3.94907
1.50859
0.542738
0.190984
0.0755904
282.486
97.2246
55.2031
32.818
17.4313
8.16229
3.4358
1.34344
0.500267
0.18379
0.0758703
257.444
85.8861
48.3546
28.632
15.1956
7.13396
3.02997
1.20665
0.462554
0.176117
0.0740752
237.616
77.0714
43.0599
25.4396
13.5022
6.35395
2.71739
1.09763
0.430277
0.168048
0.0727816
222.354
69.9365
38.8168
22.9185
12.1831
5.75271
2.47672
1.01261
0.404295
0.161297
0.0711585
211.591
64.2867
35.4635
20.9605
11.1808
5.30504
2.29967
0.950432
0.385489
0.156606
0.0706039
204.311
60.07
32.9184
19.5187
10.4722
5.00061
2.18316
0.910798
0.374172
0.154116
0.0710043
200.519
56.8162
30.9297
18.4411
9.98188
4.80999
2.11814
0.891904
0.370468
0.154269
0.0717838
200.489
54.473
29.461
17.7076
9.7044
4.73469
2.10712
0.895609
0.37551
0.157451
0.0736013
204.21
53.6149
28.6595
17.3815
9.67267
4.79698
2.16255
0.927668
0.391735
0.164462
0.0766773
212.798
54.3963
28.5212
17.44
9.94939
5.07203
2.33589
1.01335
0.429654
0.179539
0.0829787
227.758
57.2186
29.2435
17.9394
10.5421
5.59055
2.67178
1.18855
0.510345
0.214087
0.0967544
252.211
62.87
31.1956
19.059
11.5402
6.41936
3.23226
1.50271
0.664975
0.284692
0.126162
292.68
72.8059
34.9902
21.1034
13.0929
7.65905
4.11307
2.04269
0.95795
0.430884
0.193183
364.425
88.3566
41.4001
24.4876
15.4248
9.46335
5.46032
2.95446
1.51457
0.743358
0.355304
498.432
114.224
51.8828
30.0772
19.1388
12.2572
7.60746
4.52818
2.5878
1.42565
0.761552
770.068
119.708
57.3148
35.8657
24.614
17.0496
11.5767
7.63367
4.88593
3.04045
1.84674
2463.11
1488.1
588.379
223.287
71.8397
21.3889
5.84171
1.66593
0.497341
0.160306
0.061256
2785.43
1662.74
868.996
408.996
171.522
57.936
11.4755
2.84396
0.805882
0.241636
0.0844679
1830.3
1392.48
906.052
501.009
245.735
99.9126
27.8304
5.1071
1.34002
0.385704
0.12685
733.077
1177.16
870.974
536.628
290.473
133.254
46.0377
10.6413
2.19701
0.614592
0.203791
535.426
1210.7
889.324
567.342
322.712
159.195
62.9986
18.0412
3.96868
0.962161
0.314532
620.885
1154.94
904.054
594.662
348.632
180.288
78.1718
26.2111
6.76382
1.60472
0.480176
693.822
1079.4
966.579
638.336
374.35
198.16
91.3636
34.4287
10.2997
2.67908
0.77829
654.592
871.119
978.394
693.798
403.689
213.963
102.33
42.0067
14.2364
4.15347
1.22917
598.624
696.886
921.48
751.733
439.345
229.541
111.481
48.6497
18.2639
5.96406
1.87514
555.766
580.56
821.489
796.061
480.458
246.146
119.383
54.319
22.1691
8.02795
2.7354
523.227
503.817
726.626
808.214
521.698
264.159
126.699
59.2116
25.8804
10.2901
3.82682
495.807
447.596
646.452
788.473
555.868
281.829
133.21
63.3081
29.3021
12.687
5.1309
474.141
402.521
576.444
742.777
577.543
297.364
138.816
66.7493
32.4594
15.1982
6.66842
457.21
362.363
511.247
680.522
583.385
309.232
143.422
69.7382
35.463
17.848
8.512
449.783
329.404
449.835
610.957
570.798
314.285
146.21
72.2696
38.4129
20.6903
10.7225
449.109
303.95
392.058
527.609
540.86
310.254
146.35
74.3795
41.5277
23.9216
13.4029
454.516
281.984
338.857
434.465
484.064
296.977
143.664
76.324
45.1138
27.8188
16.7793
468.918
262.948
287.337
345.643
386.691
279.77
139.162
78.8438
49.8622
32.9285
21.2489
499.503
249.329
239.477
264.705
284.773
248.961
138.974
84.2812
57.3668
40.4213
27.5664
564.246
247.451
200.475
198.773
208.25
205.864
149.675
97.1006
70.1798
51.6616
36.6556
721.328
278.729
192.424
171.699
172.517
174.951
153.513
110.12
80.1099
60.6881
44.2296
1271.18
449.181
328.534
276.995
238.004
217.601
178.205
130.843
95.6799
68.2689
46.3456
957.303
559.897
596.356
421.112
311.162
226.371
157.818
106.641
70.1032
45.0788
28.2906
1222.63
660.718
382.5
236.457
151.666
98.7288
64.1397
41.193
26.0323
16.1607
9.8337
76.7578
68.5923
58.258
43.5946
23.5172
5.05481
2.79281
3.16184
4.16426
23.0369
21.7026
21.585
20.247
15.3506
8.18349
2.67874
1.80111
5.1103
11.5712
11.0162
11.9613
13.2552
11.9398
7.22664
2.93226
1.9234
5.41039
6.52881
6.33896
6.94902
8.47383
8.8075
6.11545
2.97397
2.15037
5.33018
81.3143
80.6471
78.3781
77.6107
71.3598
61.3734
49.4977
33.8079
13.1764
23.8331
24.8949
25.1676
24.2005
23.4932
22.5531
21.808
19.228
13.7045
12.4182
13.3104
13.3843
12.3152
11.7941
11.8646
13.1468
13.9278
12.1068
6.95672
7.62682
7.56959
6.79423
6.72765
6.97417
7.87002
9.28603
9.55537
0.00901818
0.00829401
0.00834729
0.00551281
0.466424
0.0075584
0.126201
0.00808675
0.00753417
0.00694094
0.468908
0.00812373
0.0103701
0.00519133
0.0146138
0.00728442
0.00603331
0.005463
0.00724793
0.00710189
0.00664251
0.0602042
0.0085223
0.118976
0.00792422
0.00512513
0.00998597
0.118789
1.51332
0.385393
0.00715871
0.0064354
0.00720396
0.00806556
0.00679608
0.008264
0.108693
0.00790809
0.00813072
0.00758889
0.222309
0.00809714
0.0423855
0.0084975
0.752679
0.261925
0.0185633
0.356165
0.00692549
0.00733872
0.390357
0.00760634
0.0904972
0.0430532
0.00732784
0.00666958
0.0572704
0.00762645
1.5148
0.0155928
0.111158
0.0687103
0.506854
0.034748
0.23268
0.00713996
0.377942
0.00711179
0.0082966
0.00692413
0.00515739
0.00722146
0.014787
0.00814306
0.0148041
0.00715527
0.0748491
0.00827963
0.0564251
1.03711
0.250577
0.0261399
0.00793288
0.00838055
0.00696416
0.0147596
2.31968
0.0411284
0.0197409
0.103567
0.00809196
0.00765964
0.22641
0.00737772
0.993768
0.537818
0.00855483
0.00594806
0.0248685
0.00743808
0.00786799
0.342992
0.00680134
0.00616654
0.0147563
0.0081195
0.00460887
0.00845294
0.014372
0.00671008
0.00796608
0.00814907
0.00723369
0.00651424
0.0219921
0.00769211
0.00754761
0.0073198
0.00792495
0.00673558
0.00697497
0.00784802
0.00933584
0.00502731
0.248364
0.00705245
0.285262
0.00474013
0.00632471
0.00902374
0.00778257
0.015744
0.346206
0.00716601
0.00834211
0.00803531
0.0640094
0.0158034
0.409084
0.00733629
0.0455222
0.00661108
0.221216
0.0086799
0.00752009
0.0253013
0.0156706
0.00713124
0.00715572
0.00705734
0.00715204
0.00766472
0.0277874
0.00785679
0.00610049
0.021124
0.0196128
0.0425932
0.00546315
0.00747249
0.00549299
0.0333222
0.00721312
0.00772226
0.386996
0.0256038
0.0205036
0.00722387
0.0066661
0.223638
0.0059385
0.00545185
0.00816362
0.00646062
0.00642352
0.00641843
0.00578345
0.0292814
0.768434
0.00695995
0.00713774
0.0673569
0.00849713
0.118858
0.00793912
0.012296
0.00706418
0.00726855
0.00824829
0.0806462
0.0134962
0.00530008
0.00718597
0.210602
0.00832456
0.00760712
0.00743667
0.0256673
0.00972017
0.00856743
0.0264186
0.00731225
0.0130793
0.00779752
0.00838745
0.0411029
0.00733332
0.00629105
0.0074026
0.00740703
0.119643
0.00759289
0.00827213
0.00672751
0.00791169
0.034882
0.00797745
0.0246642
0.00712722
0.0112264
0.0111806
0.00658949
0.00832136
0.0222745
0.00482403
0.00764246
0.0779425
0.0232449
0.0118408
0.150332
0.0422515
0.00713365
0.00712409
0.00784586
0.0280751
1.74973
0.329524
0.0084508
0.00814241
0.00809956
0.0247375
0.03202
0.00613587
0.170491
0.00781619
0.0399208
0.00800399
0.00817397
0.475865
0.327813
0.00812005
0.122268
0.00960627
0.00726421
0.00603149
0.0074703
0.00673553
0.00786068
0.0195296
0.00703993
0.00833436
0.00978556
0.00738106
0.00819657
0.00796005
0.0167935
0.00660728
0.007312
0.017652
0.00694351
0.214101
0.00730207
0.00728844
0.017529
0.0075621
0.00736357
0.00535133
0.00776056
0.00691894
0.018313
0.00733205
0.00828697
0.253912
0.305251
0.00604116
0.00758935
1.50401
0.00824569
0.00683551
0.0454318
0.00834866
0.114494
0.00744443
0.00961527
0.00856409
0.00743252
0.0065653
0.00816178
0.00680429
0.00537094
0.00775736
0.00911152
0.00708486
0.393981
0.00677152
0.00669897
0.0082823
0.0651829
0.0643544
0.00744173
0.0847887
0.00816611
0.00646362
0.00696763
0.0818777
0.00655402
0.00712156
0.0144341
0.00671196
0.00774442
0.00706535
0.179602
0.0074644
0.00538327
0.0238645
0.00688936
0.00778298
0.00596752
0.00708927
0.175377
0.00704003
0.519804
0.0690899
0.00846791
0.0115538
0.655474
0.0163252
0.00823965
0.00784929
0.00587577
0.0283927
0.117627
0.00727253
0.0260252
0.195604
0.0664339
0.0225907
0.0075377
0.091819
0.32693
0.110586
0.00584102
0.00700533
0.00682688
0.0132383
0.00860274
0.011934
0.00695831
0.00850165
0.211772
0.00986653
0.00536754
0.0080036
0.00798798
0.00728777
0.0193905
0.00512875
0.0166388
0.141981
0.00839079
0.00773856
0.109978
0.566349
0.00477477
0.0119517
0.00831808
0.00904932
0.0067561
0.00752134
0.00708035
0.226931
0.00755614
0.0248123
0.00766434
0.00526158
0.331246
0.00850213
0.00478871
0.0308891
0.0233057
0.00769876
0.0527269
0.00466171
0.00810582
0.34934
0.242856
0.00787049
0.00720005
0.00836747
0.0355099
0.0192712
0.00764797
0.00850888
0.0470405
0.00789738
0.252909
0.0543364
0.0296405
0.00730689
0.177718
0.00701889
0.00719951
0.0107829
0.0102275
0.0301348
0.00640193
0.0136769
0.00866524
0.00484702
0.0418652
0.291091
0.00614617
0.151917
0.0127988
0.00628702
0.00667506
0.0080607
0.0281653
0.0120932
0.240307
0.00789632
0.0246467
0.00508828
0.0066323
0.00749148
0.0154382
0.198734
0.415662
0.00507932
0.00860036
0.00596887
2.28174
0.00546236
0.00878623
0.00685807
0.0279369
0.0184683
0.0422009
0.00741421
0.0354318
0.00773811
0.00833552
0.00793797
0.0318257
0.0182205
0.158093
0.00589607
0.0281974
0.0265827
0.0082548
0.00739787
0.302821
0.00504986
0.00600439
0.00697198
0.144548
0.115939
0.0902243
0.0916647
0.00706506
0.00657754
0.0171537
0.00697854
0.109844
0.0069064
0.00823439
0.00733751
0.0347636
0.0334154
0.00709041
0.00778427
0.00669287
0.0948987
0.0702868
0.00845535
0.0242725
0.237158
0.00940996
0.0174098
0.0074074
0.0279752
0.00759861
0.00690145
0.00762779
0.00782702
0.00644083
0.00715196
0.00535707
0.00853211
0.00726889
0.00567363
0.00593147
0.00806523
0.00806401
0.514167
0.0229775
0.0134028
0.00703816
0.306852
0.0083575
0.273856
0.0162899
0.0250212
0.0213382
0.00800815
0.334539
0.032146
0.00532715
0.00778511
0.00634808
0.00667643
0.00828095
0.0076919
0.00818511
0.00681471
0.221072
0.00798784
0.00745329
0.0860063
0.00773094
0.195149
0.00658324
0.051216
0.00560664
0.0196104
0.00856365
0.00786488
0.00841864
0.197839
0.0344324
0.00795007
0.00791238
0.00500428
0.00835049
0.0061813
0.00831412
0.2343
0.00682004
0.045913
0.0086461
0.0075716
0.278034
0.286417
0.00680162
0.00659216
0.00711255
0.00830797
0.0153953
0.039854
0.00721117
0.00866522
0.492679
0.732133
0.00791879
0.00733752
0.00828327
0.0183564
0.343687
0.0191808
0.00808177
0.00752544
0.303604
0.007241
0.0086691
0.00683593
0.0365236
0.357383
0.00771438
0.0205958
0.00782156
0.0335009
0.0073847
0.0152541
0.00603951
0.00643637
0.0858659
0.035022
0.00842588
0.00854828
0.964868
0.00763942
0.00615743
0.00922785
0.0336636
0.0162031
0.0283215
0.00757651
0.00692302
0.00773374
0.00790331
0.475861
0.0157771
0.0120692
0.00710968
0.00794891
0.0440064
0.00701502
0.00759479
0.00692554
0.00713539
0.00835581
0.0153717
0.0332894
0.0181315
0.00621915
0.0101802
0.00724148
0.0580213
0.00711817
0.00778492
0.489628
0.17089
0.0075537
0.00757434
0.062459
0.00675892
0.00737926
0.0194602
0.00831723
0.00678562
0.0101562
0.00926155
0.00828392
0.00492977
0.00567909
0.0392744
0.116508
0.0324376
0.0326763
0.00626484
0.0210074
0.0275948
0.00851366
0.00836425
0.00680835
0.0246881
0.00607764
0.00695725
0.00728919
0.00511286
0.04502
0.451689
0.00608601
0.00784931
0.0076928
0.0123792
0.0081187
0.00723509
0.00693685
0.0132679
0.0070403
0.00703924
0.00686381
0.00825861
0.0117085
0.055822
0.145885
0.00711073
0.00697316
0.00754953
0.0539369
0.0076243
0.12956
0.00721651
0.0186988
0.149282
0.00771035
0.0194577
0.00849698
0.00698106
0.0171453
0.0084629
0.435054
0.00556303
0.00667284
0.00841726
0.0125258
0.00507622
0.0328505
0.286685
0.00750993
0.00642173
0.00840366
0.00784369
0.00691271
0.0214346
0.00813116
0.0076229
0.00761985
0.0100638
0.0286239
0.00816118
0.007598
0.00751029
0.0218008
0.0054933
0.00648835
0.0112476
0.140878
0.0095963
0.00633307
0.00629979
0.00842238
0.0389447
0.00654205
0.135708
0.00783837
0.00682063
0.00790722
0.00702346
0.0793111
0.0101368
0.0293703
0.00517711
0.00725497
0.00677892
0.00670889
0.027065
0.00823631
0.340118
0.044885
0.227886
0.00666035
0.0102556
0.0284567
0.0158327
0.00773685
0.00880639
0.0340799
0.0122596
0.00802781
0.00539265
0.474432
0.00811387
0.181684
0.0092034
0.00837963
0.0179891
0.00755254
0.00689983
0.00681898
0.00772697
0.00735386
0.00479219
0.00819048
0.00701876
0.00714974
0.00930167
0.0227159
0.146376
0.0136982
0.00722871
0.173173
0.262071
0.00782256
0.00484849
0.00710879
0.0316092
0.00960824
0.0440607
0.00728542
0.0215927
0.00869369
0.00870989
0.00720682
0.00693685
0.00765946
0.0137533
0.0537909
0.00860544
0.00788868
0.00743021
0.249408
0.18465
0.00753743
0.00819925
0.00699429
0.00770037
0.00813699
0.00821567
0.00838219
0.00787537
0.00753408
0.0056156
0.0495618
0.0904863
0.00482008
0.00770105
0.00770607
0.00792947
0.00671543
0.219055
0.00827647
0.00635732
0.00756065
0.285375
0.125013
0.0385198
0.00779212
0.0172805
0.00771861
0.00781763
0.235621
0.0071494
0.00815979
0.0073222
0.0353495
0.00602627
0.005936
0.00813832
0.0105989
0.171861
0.0198142
0.00815473
0.00468389
0.0392422
0.0285245
0.02009
0.00842936
0.00718402
0.00534217
0.013877
0.0286635
0.00829267
0.00686793
0.00822744
0.00736681
0.00825136
0.0107637
0.006253
0.180658
0.22003
0.0462346
0.00809849
0.467273
0.00853219
0.00720252
0.00912947
0.00789337
0.00765922
0.00766908
0.0139565
0.0608887
0.0211929
0.00764919
0.0118564
0.00768783
0.00859785
0.0073484
0.00755985
0.00733815
0.00792615
0.00814759
0.00727019
1.89227
0.00754652
0.00712682
0.00923496
0.157272
0.00710165
0.00796458
0.0184356
1.6256
0.00695386
0.00771571
0.0110063
0.0134287
0.00846827
0.00808496
0.00687616
0.008604
0.0575185
0.00828036
0.0843097
0.009683
0.118419
0.00817578
0.00821206
0.00625025
0.0288523
0.00775139
0.00778458
0.00705833
0.00831609
0.005931
0.213849
0.00657988
0.0266193
0.281809
0.0316291
0.00605306
0.0419284
0.00851233
0.00814151
0.00511258
0.00859993
0.00612117
0.00760888
0.288319
0.0072445
0.0106621
0.00730513
0.00464615
0.00536996
0.0193941
0.00782391
0.00694369
0.00804206
0.276394
0.0610057
0.313719
0.00677369
0.00998687
0.00701888
0.00776832
0.312694
0.00753716
0.00830543
0.00609769
0.228995
0.0320137
0.0391511
0.00688096
0.00534359
0.036607
0.629168
0.00801544
0.00712987
0.334843
0.00760561
0.019065
0.00791766
0.082135
0.00833194
0.0272003
0.00830309
0.0073102
0.00845556
0.00763713
0.0136935
0.00659653
0.00709533
0.00780497
0.00726626
0.00976953
0.00942315
0.0389601
0.00749309
0.00687538
0.25193
0.0233924
0.0445818
0.00832468
0.0368385
0.00746174
0.0082879
0.026606
0.00646598
0.0381982
0.359117
0.00610571
0.0133951
0.00653541
0.00741629
0.0178907
0.016199
0.00699236
0.0435924
0.00813233
1.55431
0.0350962
0.510015
0.00812815
0.0209172
0.0116384
0.313061
0.00768667
0.00539468
0.0085555
0.0046075
0.116911
0.00815551
0.00890533
0.0162708
0.0281486
0.214826
0.00807243
0.00778295
0.0073566
0.0447195
0.00688845
0.216124
0.0113075
0.0501081
0.345004
0.00828683
0.0161656
0.0318426
0.0295595
0.0804404
0.0279337
0.00757652
0.0114284
0.00495273
0.00809958
0.00787134
0.00856464
0.0111824
0.00662442
0.0083267
0.00557911
0.0481811
0.00487119
0.00801992
0.100653
0.0145882
0.0068939
0.0108708
0.00813627
0.00708966
0.00734778
0.198235
0.00698438
0.0206077
0.00617089
0.0239278
0.00796191
0.00694804
0.00796019
0.00753326
0.0185529
0.0484699
0.0480776
0.657357
0.234497
0.65818
0.00687248
0.00737573
0.00940406
0.00838796
0.00584884
0.0595652
0.00690114
0.12033
0.00613106
0.16008
0.00685423
0.00491703
0.00811797
0.295527
0.00862667
0.482011
0.00647638
0.00839608
0.0445724
0.058281
0.00680618
0.0260245
0.0395832
0.0584605
0.123827
0.0199414
0.228587
0.00894274
0.00718353
0.268259
0.0187163
0.0083326
0.00629083
0.00762185
0.00504086
0.00527899
0.00977982
0.00773257
0.0167483
0.648733
0.00752498
0.00715394
0.0070113
0.00818895
0.00987316
0.00542266
0.00702332
0.00557087
0.380616
0.00703764
0.635425
0.0701112
0.00769474
0.177339
0.0487787
0.0177491
0.00668798
0.116764
0.00769034
0.00803836
0.345926
0.00751764
0.00824529
0.00577654
0.00809673
0.0074613
0.174687
0.00791071
0.545182
0.0134611
0.0195691
0.00722672
0.0124016
0.028482
0.00621375
0.253403
0.00776651
0.0113849
0.0292929
0.00716984
0.0170025
0.0304113
0.020702
0.00747175
0.0326589
0.0666616
0.0064472
0.00733042
0.0277133
0.00695108
0.0191392
0.0238347
0.357821
0.00712237
0.00860259
0.00796987
0.00626768
0.00839094
0.00478689
0.0373231
1.37866
0.00820614
0.0240159
0.0280442
0.00820439
0.0347642
0.0070926
0.00695386
1.4359
0.0415841
0.328517
0.16281
0.00815873
0.00792889
0.0220204
0.221961
0.180332
0.233904
0.00493869
0.00817331
0.00715555
0.00627957
0.197136
0.0477347
0.00871477
0.00739659
0.0279714
0.0236824
0.0359033
0.00679169
0.0927383
0.214951
0.00638823
0.00559643
0.00726805
0.00721115
0.215207
0.00544954
0.00841416
0.0151219
0.00776445
0.00641687
0.367253
0.00890567
0.0105878
0.0327869
0.00867775
0.00752136
0.185344
0.0191424
0.0083605
0.00454536
0.0199597
0.00660958
0.306158
0.00806573
0.00768788
0.00704292
0.156032
0.00614997
0.00746078
0.0325049
0.00833687
0.00814596
0.00859551
0.00529726
0.00770734
0.0344004
0.0187034
0.00814574
0.46225
0.0354995
0.00814377
0.0317591
0.00785769
0.00518393
0.03247
0.00801712
0.00816261
0.00788125
0.00743847
0.00793591
0.00717584
0.00806208
0.0510689
0.0375129
0.00615394
0.0501755
0.00691647
0.0197953
0.018616
0.00855541
0.00661784
0.0158991
0.00487361
0.00674825
0.00588042
0.00667021
0.00684126
0.00794725
0.0377471
0.140132
0.0240705
0.0977156
0.00859361
0.0132446
0.321054
0.0165864
0.0127716
0.00759962
0.033695
0.031826
0.180296
0.00476384
0.0181564
0.0326678
0.00660557
0.00795521
0.902578
0.00484054
0.00673681
0.0291213
0.0279615
0.00584532
0.0120241
0.014183
0.00459085
0.585448
0.62824
0.00789823
0.00712042
0.0198078
0.052642
0.0104503
0.00811363
0.00682972
0.00839135
0.00753362
0.0793901
0.00761853
0.0084638
0.133278
0.00848032
0.00731523
0.00770446
0.00757855
0.00674823
0.00858192
0.0072568
0.00945737
0.00704282
0.00879375
0.00803438
0.0307387
0.00818545
0.0187147
0.00770131
0.0209423
0.00838705
0.0076832
0.0594312
0.243167
0.00705369
0.00780708
0.00772201
0.0198716
0.00826435
0.00941107
0.00822783
0.00741859
0.00622386
0.00727126
0.0313169
0.00512847
0.0609367
0.00848609
0.00866105
0.00788384
0.00669952
0.0089499
0.00830717
0.00801996
0.16219
0.00758952
0.0164096
0.00789958
0.00799816
0.483138
0.00845179
0.0085525
0.145247
0.22171
0.0144737
0.00755699
0.0199036
0.00788647
0.025888
0.0110766
0.0107212
0.00738468
0.00629688
0.0244922
0.0076393
0.0321274
0.00697184
0.0153464
0.0267999
0.00822871
0.00989099
0.00768495
0.140548
0.0159358
0.00497947
0.0329581
0.00642643
0.0059768
0.00840198
0.0104304
0.0303917
0.00752379
0.00811381
0.0430317
0.00689272
0.00684212
0.00689965
0.00546781
0.00789687
0.0281211
0.030476
0.00685076
0.0177961
0.0079802
0.00706458
0.00702659
1.09745
0.0098493
0.00749862
0.146582
0.0321515
0.0082059
0.00706227
0.0289715
0.0105759
0.00662558
0.00725991
0.0145446
0.0394793
0.0075509
0.00693787
0.0738296
0.00715258
0.00830123
0.00734352
0.00693338
0.00806978
0.0242896
0.00764359
0.0357316
0.00642039
0.0134079
0.00812954
0.00502029
0.0283205
0.00691296
0.0191433
0.00765476
0.00735924
0.0394505
0.0136554
0.00560708
0.00845639
0.00738837
0.258866
0.00777327
0.00695287
1.83931
0.00674466
0.00706865
0.00696166
0.00696082
0.00647026
0.00632106
0.0157532
0.00515631
0.0159415
0.00706786
0.00759649
0.0155959
0.00453009
0.00748377
0.00646737
0.0056396
0.00730722
0.301254
0.00855952
0.0260575
0.00749087
0.00689555
0.00584376
0.00728608
0.0124588
0.00795508
0.00721103
0.00672459
0.00756703
0.00837562
0.034834
0.0231858
0.0110015
0.0107391
0.0419091
0.0067809
0.00757334
0.00746904
0.209996
0.00728936
0.00670579
0.327017
0.00695032
0.236692
0.156371
0.00688646
0.00809989
0.00705669
0.0053586
0.00493428
0.00685785
0.00796401
0.020928
0.0374789
0.00471158
0.0349373
0.00780946
0.0701386
0.0103688
0.935448
0.0107888
0.011752
0.0049087
0.00828556
0.00689232
0.0250138
0.00790281
0.0110106
0.00526882
0.0132944
0.00522842
0.0592555
0.0169567
0.024104
0.253814
0.00780132
0.346837
0.00992998
0.0064821
0.0060261
0.00875484
0.0084033
0.59779
0.00781228
0.233977
0.299816
0.00507175
0.12545
0.0258188
0.258231
0.00739475
0.00788518
0.00741532
0.00726202
0.00765873
0.0062157
0.00697964
0.0221249
0.0076823
0.22433
0.0163679
0.0076419
0.00818021
0.00978239
0.0972153
0.00813015