/*--------------------------------*- C++ -*----------------------------------*\
| =========                 |                                                 |
| \\      /  F ield         | OpenFOAM: The Open Source CFD Toolbox           |
|  \\    /   O peration     | Version:  3.0.1                                 |
|   \\  /    A nd           | Web:      www.OpenFOAM.org                      |
|    \\/     M anipulation  |                                                 |
\*---------------------------------------------------------------------------*/
FoamFile
{
    version     2.0;
    format      ascii;
    class       surfaceScalarField;
    location    "0.278771";
    object      phi;
}
// * * * * * * * * * * * * * * * * * * * * * * * * * * * * * * * * * * * * * //

dimensions      [0 3 -1 0 0 0 0];

internalField   nonuniform List<scalar> 
32369
(
-5.54202e-06
-7.42009e-06
1.29621e-05
-8.88109e-06
-8.51479e-06
1.18539e-05
-1.16738e-05
-1.01582e-05
1.29509e-05
-1.46651e-05
-1.19588e-05
1.49501e-05
-1.78298e-05
-1.37442e-05
1.69089e-05
-2.1102e-05
-1.54128e-05
1.8685e-05
-2.46804e-05
-1.6936e-05
2.05144e-05
-2.87583e-05
-1.82448e-05
2.23227e-05
-3.35081e-05
-1.92042e-05
2.3954e-05
-3.91331e-05
-1.95874e-05
2.52124e-05
-1.89981e-05
2.5766e-05
-4.5901e-05
-5.01447e-06
-2.40562e-06
-9.14398e-06
-4.38528e-06
-1.28506e-05
-6.45155e-06
-1.63079e-05
-8.50153e-06
-1.96601e-05
-1.0392e-05
-2.30714e-05
-1.20015e-05
-2.67571e-05
-1.32504e-05
-3.09566e-05
-1.40452e-05
-3.59206e-05
-1.42403e-05
-4.19323e-05
-1.35757e-05
-1.16504e-05
-4.928e-05
-2.7402e-06
3.34576e-07
-5.83352e-06
-1.29196e-06
-9.28941e-06
-2.99566e-06
-1.29838e-05
-4.80709e-06
-1.68357e-05
-6.54008e-06
-2.08567e-05
-7.98059e-06
-2.51751e-05
-8.9319e-06
-2.99897e-05
-9.23068e-06
-3.55378e-05
-8.6921e-06
-4.2083e-05
-7.03054e-06
-3.78993e-06
-4.99434e-05
-1.49141e-06
1.82598e-06
-3.68958e-06
9.06216e-07
-6.57773e-06
-1.07513e-07
-9.96732e-06
-1.41749e-06
-1.3785e-05
-2.72242e-06
-1.80142e-05
-3.75138e-06
-2.26984e-05
-4.24775e-06
-2.79468e-05
-3.98224e-06
-3.39232e-05
-2.71569e-06
-4.08198e-05
-1.33937e-07
4.31046e-06
-4.89202e-05
-8.033e-07
2.62928e-06
-2.27252e-06
2.37544e-06
-4.50904e-06
2.12901e-06
-7.46029e-06
1.53376e-06
-1.10649e-05
8.82174e-07
-1.52374e-05
4.21106e-07
-1.99356e-05
4.50476e-07
-2.52344e-05
1.31657e-06
-3.13129e-05
3.36281e-06
-3.84303e-05
6.98347e-06
1.27234e-05
-4.68433e-05
-7.12529e-07
3.34181e-06
-1.82592e-06
3.48882e-06
-3.44372e-06
3.74681e-06
-5.73204e-06
3.82208e-06
-8.7664e-06
3.91654e-06
-1.25565e-05
4.21117e-06
-1.71041e-05
4.99807e-06
-2.2411e-05
6.62348e-06
-2.85385e-05
9.49037e-06
-3.56237e-05
1.40687e-05
2.10341e-05
-4.39344e-05
-6.8845e-07
4.03026e-06
-1.75233e-06
4.55271e-06
-3.16158e-06
5.15606e-06
-5.10232e-06
5.76281e-06
-7.69165e-06
6.50587e-06
-1.10245e-05
7.54403e-06
-1.5152e-05
9.12555e-06
-2.01125e-05
1.1584e-05
-2.59639e-05
1.53418e-05
-3.27988e-05
2.09035e-05
2.89524e-05
-4.0717e-05
-6.9845e-07
4.72871e-06
-1.66794e-06
5.52219e-06
-2.96908e-06
6.4572e-06
-4.7061e-06
7.49983e-06
-6.9995e-06
8.79927e-06
-9.9625e-06
1.0507e-05
-1.36884e-05
1.28515e-05
-1.82525e-05
1.61481e-05
-2.37357e-05
2.0825e-05
-3.0237e-05
2.74048e-05
3.66629e-05
-3.79475e-05
-6.68227e-07
5.39694e-06
-1.59603e-06
6.44999e-06
-2.80518e-06
7.66636e-06
-4.39572e-06
9.09037e-06
-6.47154e-06
1.08751e-05
-9.14588e-06
1.31814e-05
-1.25258e-05
1.62314e-05
-1.67129e-05
2.03352e-05
-2.18038e-05
2.59159e-05
-2.79425e-05
3.35435e-05
4.40236e-05
-3.53032e-05
-5.84683e-07
5.98162e-06
-1.43284e-06
7.29815e-06
-2.54745e-06
8.78097e-06
-4.0098e-06
1.05527e-05
-5.91004e-06
1.27753e-05
-8.35271e-06
1.5624e-05
-1.1449e-05
1.93277e-05
-1.53083e-05
2.41945e-05
-2.00572e-05
3.06648e-05
-2.58307e-05
3.9317e-05
5.09439e-05
-3.2751e-05
-5.07518e-07
6.48914e-06
-1.2771e-06
8.06773e-06
-2.2967e-06
9.80057e-06
-3.63534e-06
1.18914e-05
-5.37703e-06
1.4517e-05
-7.61767e-06
1.78647e-05
-1.04616e-05
2.21717e-05
-1.40247e-05
2.77576e-05
-1.84351e-05
3.50751e-05
-2.38469e-05
4.47289e-05
5.74889e-05
-3.03919e-05
-5.00239e-07
6.98938e-06
-1.22231e-06
8.78981e-06
-2.16147e-06
1.07397e-05
-3.38749e-06
1.31174e-05
-4.97597e-06
1.61055e-05
-7.01991e-06
1.99086e-05
-9.62083e-06
2.47726e-05
-1.28903e-05
3.10271e-05
-1.69606e-05
3.91453e-05
-2.19788e-05
4.97471e-05
6.36305e-05
-2.81204e-05
-4.61141e-07
7.45052e-06
-1.11442e-06
9.44308e-06
-1.96535e-06
1.15907e-05
-3.07434e-06
1.42264e-05
-4.51456e-06
1.75457e-05
-6.37046e-06
2.17645e-05
-8.74175e-06
2.71439e-05
-1.17404e-05
3.40258e-05
-1.54802e-05
4.28851e-05
-2.01217e-05
5.43885e-05
6.93788e-05
-2.58699e-05
-3.39781e-07
7.7903e-06
-8.80691e-07
9.98399e-06
-1.61652e-06
1.23265e-05
-2.59529e-06
1.52052e-05
-3.8812e-06
1.88316e-05
-5.54962e-06
2.34329e-05
-7.68832e-06
2.92826e-05
-1.04028e-05
3.67403e-05
-1.38055e-05
4.62879e-05
-1.8025e-05
5.86081e-05
7.45937e-05
-2.324e-05
-3.07182e-07
8.09748e-06
-7.65514e-07
1.04423e-05
-1.38526e-06
1.29462e-05
-2.22146e-06
1.60414e-05
-3.32766e-06
1.99378e-05
-4.77572e-06
2.4881e-05
-6.65158e-06
3.11585e-05
-9.03781e-06
3.91265e-05
-1.20314e-05
4.92814e-05
-1.57658e-05
6.23425e-05
7.91703e-05
-2.03424e-05
-2.41802e-07
8.33928e-06
-5.93021e-07
1.07935e-05
-1.07858e-06
1.34318e-05
-1.74236e-06
1.67051e-05
-2.6463e-06
2.08418e-05
-3.85045e-06
2.60851e-05
-5.42407e-06
3.27321e-05
-7.43917e-06
4.11416e-05
-9.97165e-06
5.18139e-05
-1.30793e-05
6.54501e-05
8.29811e-05
-1.68901e-05
-9.43115e-08
8.43359e-06
-2.75485e-07
1.09747e-05
-5.79631e-07
1.37359e-05
-1.04177e-06
1.71673e-05
-1.70442e-06
2.15044e-05
-2.62865e-06
2.70094e-05
-3.86233e-06
3.39657e-05
-5.44619e-06
4.27255e-05
-7.40733e-06
5.37751e-05
-9.79193e-06
6.78347e-05
8.58838e-05
-1.26947e-05
2.06453e-08
8.41295e-06
1.3244e-08
1.09821e-05
-8.25524e-08
1.38317e-05
-2.98832e-07
1.73836e-05
-6.77287e-07
2.18829e-05
-1.26057e-06
2.75927e-05
-2.06977e-06
3.47749e-05
-3.10892e-06
4.37646e-05
-4.36655e-06
5.50327e-05
-5.84558e-06
6.93137e-05
8.7578e-05
-7.53978e-06
1.59335e-07
8.25361e-06
3.67835e-07
1.07736e-05
5.22795e-07
1.36768e-05
5.95936e-07
1.73104e-05
5.57478e-07
2.19213e-05
3.88749e-07
2.77614e-05
1.06294e-07
3.50574e-05
-2.43515e-07
4.41144e-05
-5.87058e-07
5.53762e-05
-8.61751e-07
6.95884e-05
8.78016e-05
-1.08535e-06
3.35334e-07
7.91828e-06
8.06331e-07
1.03026e-05
1.24782e-06
1.32353e-05
1.6485e-06
1.69097e-05
2.00546e-06
2.15644e-05
2.33695e-06
2.74299e-05
2.71684e-06
3.46775e-05
3.2656e-06
4.35657e-05
4.09967e-06
5.45422e-05
5.34107e-06
6.8347e-05
8.60498e-05
7.09291e-06
5.46112e-07
7.37217e-06
1.29184e-06
9.55689e-06
2.03477e-06
1.24923e-05
2.80347e-06
1.6141e-05
3.61202e-06
2.07558e-05
4.56238e-06
2.64795e-05
5.80433e-06
3.34356e-05
7.5048e-06
4.18652e-05
9.82861e-06
5.22184e-05
1.29564e-05
6.52192e-05
8.1908e-05
1.70982e-05
7.40149e-07
6.63202e-06
1.6716e-06
8.62544e-06
2.70787e-06
1.14561e-05
3.84476e-06
1.50041e-05
5.19627e-06
1.94043e-05
6.94727e-06
2.47285e-05
9.29922e-06
3.10836e-05
1.2438e-05
3.87264e-05
1.65667e-05
4.80897e-05
2.19284e-05
5.98575e-05
7.50118e-05
2.88246e-05
4.9454e-07
6.13748e-06
1.81749e-06
7.30249e-06
2.96801e-06
1.03056e-05
4.46003e-06
1.35121e-05
6.49822e-06
1.73662e-05
9.2857e-06
2.1941e-05
1.29948e-05
2.73746e-05
1.78144e-05
3.39068e-05
2.39665e-05
4.19375e-05
3.17874e-05
5.20366e-05
6.50761e-05
4.17231e-05
-2.36583e-06
8.50331e-06
-1.43947e-06
6.37612e-06
5.32144e-07
8.33395e-06
3.16269e-06
1.08816e-05
6.58663e-06
1.39422e-05
1.09335e-05
1.75941e-05
1.63423e-05
2.19658e-05
2.30025e-05
2.72467e-05
3.12404e-05
3.36996e-05
4.1537e-05
4.17399e-05
5.21308e-05
5.44823e-05
5.14669e-06
7.81542e-06
7.58752e-06
9.41304e-06
7.22311e-06
1.33153e-05
5.0431e-06
1.71301e-05
1.43764e-06
2.05144e-05
-3.36119e-06
2.34839e-05
-8.96699e-06
2.61202e-05
-1.50827e-05
2.84384e-05
-2.17929e-05
3.06641e-05
-2.9289e-05
3.27086e-05
3.41175e-05
-3.76405e-05
5.86174e-06
1.95368e-06
9.76498e-06
5.5098e-06
1.21713e-05
1.0909e-05
1.3052e-05
1.62494e-05
1.1973e-05
2.15934e-05
8.70161e-06
2.67553e-05
3.44275e-06
3.13791e-05
-3.29295e-06
3.51741e-05
-1.09274e-05
3.82986e-05
-1.93145e-05
4.10956e-05
4.36053e-05
-2.88023e-05
3.74909e-06
-1.79541e-06
7.74456e-06
1.51433e-06
1.14222e-05
7.23131e-06
1.41426e-05
1.3529e-05
1.52666e-05
2.04694e-05
1.43336e-05
2.76882e-05
1.10983e-05
3.46144e-05
5.6334e-06
4.0639e-05
-1.53958e-06
4.54716e-05
-9.78176e-06
4.93378e-05
5.27333e-05
-1.89097e-05
1.75295e-06
-3.54837e-06
5.3252e-06
-2.05792e-06
9.84137e-06
2.71513e-06
1.36925e-05
9.67788e-06
1.64511e-05
1.77108e-05
1.75457e-05
2.65936e-05
1.64796e-05
3.56805e-05
1.29656e-05
4.41531e-05
7.18436e-06
5.12528e-05
-2.45225e-07
5.67674e-05
6.11027e-05
-8.61465e-06
1.02903e-06
-4.5774e-06
3.1539e-06
-4.18279e-06
7.43186e-06
-1.56283e-06
1.23152e-05
4.79453e-06
1.64907e-05
1.35353e-05
1.93437e-05
2.37407e-05
2.02765e-05
3.47476e-05
1.88172e-05
4.56124e-05
1.48206e-05
5.52494e-05
8.67083e-06
6.29172e-05
6.86848e-05
1.08866e-06
1.17183e-06
-5.74923e-06
2.6273e-06
-5.63825e-06
5.57914e-06
-4.51467e-06
1.05247e-05
-1.5102e-07
1.57515e-05
8.30851e-06
2.00995e-05
1.93927e-05
2.28178e-05
3.20294e-05
2.33012e-05
4.5129e-05
2.11916e-05
5.7359e-05
1.66342e-05
6.74746e-05
7.49998e-05
1.03192e-05
1.29488e-06
-7.04411e-06
2.85002e-06
-7.19339e-06
4.96463e-06
-6.62929e-06
8.92266e-06
-4.10904e-06
1.44372e-05
2.79396e-06
1.99022e-05
1.39277e-05
2.41524e-05
2.77791e-05
2.64024e-05
4.2879e-05
2.61246e-05
5.76368e-05
2.32112e-05
7.0388e-05
7.98976e-05
1.83133e-05
1.30882e-06
-8.35294e-06
2.98492e-06
-8.86949e-06
5.10404e-06
-8.74841e-06
8.07486e-06
-7.07986e-06
1.30148e-05
-2.14601e-06
1.88992e-05
8.04327e-06
2.42943e-05
2.2384e-05
2.80507e-05
3.91226e-05
2.94746e-05
5.62129e-05
2.82625e-05
7.16001e-05
8.36954e-05
2.44647e-05
1.22311e-06
-9.57605e-06
2.86799e-06
-1.05144e-05
4.96097e-06
-1.08414e-05
7.66538e-06
-9.78426e-06
1.17522e-05
-6.23284e-06
1.74504e-05
2.34512e-06
2.34029e-05
1.64315e-05
2.82965e-05
3.42291e-05
3.12323e-05
5.3277e-05
3.1855e-05
7.09774e-05
8.50996e-05
3.04508e-05
1.11301e-06
-1.06891e-05
2.59716e-06
-1.19985e-05
4.51823e-06
-1.27625e-05
7.0324e-06
-1.22984e-05
1.04757e-05
-9.67617e-06
1.56002e-05
-2.77936e-06
2.15573e-05
1.04743e-05
2.71146e-05
2.86718e-05
3.12432e-05
4.91484e-05
3.34104e-05
6.88103e-05
8.48588e-05
3.36511e-05
7.71999e-07
-1.14611e-05
2.03452e-06
-1.3261e-05
3.65783e-06
-1.43858e-05
5.83103e-06
-1.44716e-05
8.81022e-06
-1.26554e-05
1.31696e-05
-7.13877e-06
1.87747e-05
4.86931e-06
2.45556e-05
2.28909e-05
2.94575e-05
4.42464e-05
3.30546e-05
6.52132e-05
8.26605e-05
3.5253e-05
6.06311e-07
-1.20674e-05
1.52227e-06
-1.4177e-05
2.63017e-06
-1.54937e-05
4.25717e-06
-1.60986e-05
6.62672e-06
-1.50249e-05
1.0138e-05
-1.065e-05
1.51043e-05
-9.7004e-08
2.05567e-05
1.74384e-05
2.5894e-05
3.89092e-05
3.07344e-05
6.03728e-05
7.79547e-05
3.54402e-05
3.09757e-07
-1.23771e-05
7.29943e-07
-1.45972e-05
1.34466e-06
-1.61084e-05
2.24886e-06
-1.70028e-05
3.68464e-06
-1.64607e-05
6.13126e-06
-1.30966e-05
1.02273e-05
-4.19302e-06
1.52011e-05
1.24646e-05
2.07324e-05
3.33778e-05
2.64353e-05
5.46699e-05
7.19415e-05
3.24485e-05
-7.56103e-08
-1.23015e-05
-1.47574e-07
-1.45252e-05
-1.65283e-07
-1.60907e-05
-7.40497e-08
-1.70941e-05
3.13258e-07
-1.6848e-05
1.43202e-06
-1.42154e-05
4.375e-06
-7.13601e-06
9.0883e-06
7.75127e-06
1.45182e-05
2.79479e-05
2.09981e-05
4.819e-05
6.43123e-05
2.86273e-05
-4.18487e-07
-1.1883e-05
-1.01461e-06
-1.39291e-05
-1.70434e-06
-1.5401e-05
-2.46968e-06
-1.63287e-05
-3.17555e-06
-1.61421e-05
-3.44621e-06
-1.39447e-05
-2.22529e-06
-8.35692e-06
1.81835e-06
3.70763e-06
7.70955e-06
2.20567e-05
1.50344e-05
4.08651e-05
5.51509e-05
2.41958e-05
-8.13204e-07
-1.10698e-05
-1.97077e-06
-1.27715e-05
-3.37085e-06
-1.40009e-05
-4.99551e-06
-1.47041e-05
-6.70362e-06
-1.4434e-05
-8.11061e-06
-1.25377e-05
-8.48131e-06
-7.98622e-06
-5.77839e-06
1.0047e-06
4.76874e-07
1.58015e-05
8.79152e-06
3.25505e-05
4.36559e-05
2.02865e-05
-1.2538e-06
-9.81602e-06
-3.00337e-06
-1.1022e-05
-5.14075e-06
-1.18635e-05
-7.64251e-06
-1.22023e-05
-1.03222e-05
-1.17543e-05
-1.27229e-05
-1.0137e-05
-1.39774e-05
-6.73171e-06
-1.24911e-05
-4.8164e-07
-6.70309e-06
1.00134e-05
2.49016e-06
2.33572e-05
3.1812e-05
1.43341e-05
-1.71493e-06
-8.10109e-06
-4.05913e-06
-8.67777e-06
-6.95997e-06
-8.96265e-06
-1.03471e-05
-8.81517e-06
-1.39543e-05
-8.14708e-06
-1.72094e-05
-6.88199e-06
-1.91414e-05
-4.79965e-06
-1.83355e-05
-1.28758e-06
-1.32488e-05
4.9268e-06
-3.56081e-06
1.36692e-05
1.88224e-05
9.42877e-06
-2.23802e-06
-5.86307e-06
-5.23047e-06
-5.68532e-06
-8.92468e-06
-5.26845e-06
-1.31578e-05
-4.58201e-06
-1.7557e-05
-3.7479e-06
-2.1448e-05
-2.991e-06
-2.3825e-05
-2.42266e-06
-2.33775e-05
-1.73511e-06
-1.86838e-05
2.33168e-07
-9.09412e-06
4.0795e-06
5.29296e-06
4.43531e-06
-2.95301e-06
-2.91006e-06
-6.71929e-06
-1.91904e-06
-1.11297e-05
-8.5799e-07
-1.58235e-05
1.11702e-07
-2.02589e-05
6.87579e-07
-2.37467e-05
4.96724e-07
-2.53018e-05
-8.67505e-07
-2.41312e-05
-2.90571e-06
-1.9347e-05
-4.55107e-06
-9.94259e-06
-5.3249e-06
-8.09615e-06
3.44652e-06
-3.33243e-06
4.22372e-07
-6.58788e-06
1.33641e-06
-9.73135e-06
2.28549e-06
-1.25373e-05
2.91765e-06
-1.44195e-05
2.56978e-06
-1.40459e-05
1.23086e-07
-1.088e-05
-4.03339e-06
-5.33862e-06
-8.44707e-06
2.69171e-06
-1.25814e-05
1.33244e-05
-1.59576e-05
-1.96553e-05
2.48835e-05
-2.84077e-06
3.26314e-06
-3.76678e-06
2.26243e-06
-3.81522e-06
2.33392e-06
-2.14937e-06
1.2518e-06
2.18106e-06
-1.76065e-06
8.9914e-06
-6.68725e-06
1.59615e-05
-1.10035e-05
2.33581e-05
-1.58436e-05
3.16978e-05
-2.09212e-05
4.21272e-05
-2.63869e-05
-3.30899e-05
5.55618e-05
1.29896e-06
1.96418e-06
4.04152e-06
-4.80141e-07
8.80929e-06
-2.43384e-06
1.5327e-05
-5.2659e-06
2.24268e-05
-8.86046e-06
2.86967e-05
-1.29572e-05
3.50872e-05
-1.73939e-05
4.16587e-05
-2.24151e-05
4.89564e-05
-2.82189e-05
5.77196e-05
-3.51502e-05
-4.39348e-05
6.85644e-05
1.04675e-05
1.63635e-05
2.22636e-05
2.78792e-05
3.2961e-05
3.75979e-05
4.21698e-05
4.70013e-05
5.2482e-05
5.90718e-05
6.72679e-05
-1.11846e-05
1.76157e-05
-6.43109e-06
-1.95745e-05
1.57078e-05
-7.31793e-06
-2.83224e-05
1.71548e-05
-8.40687e-06
-3.67821e-05
1.79018e-05
-9.44214e-06
-4.5436e-05
1.95188e-05
-1.08649e-05
-5.44919e-05
2.20145e-05
-1.29585e-05
-6.43086e-05
2.55263e-05
-1.57097e-05
-7.53299e-05
3.02725e-05
-1.92512e-05
-8.80192e-05
3.65097e-05
-2.38205e-05
-0.000102874
4.46247e-05
-2.97695e-05
5.519e-05
-3.75442e-05
-0.00012052
-1.225e-06
1.88407e-05
-3.56344e-06
1.80462e-05
-9.99759e-06
2.3589e-05
-1.75117e-05
2.5416e-05
-2.63617e-05
2.83688e-05
-3.5978e-05
3.16307e-05
-4.67219e-05
3.62702e-05
-5.88088e-05
4.23594e-05
-7.27069e-05
5.04078e-05
-8.89253e-05
6.08431e-05
7.43028e-05
-0.000108038
5.84083e-07
1.82566e-05
-6.22377e-07
1.92527e-05
-4.15364e-06
2.71202e-05
-8.9553e-06
3.02176e-05
-1.59754e-05
3.5389e-05
-2.45465e-05
4.02018e-05
-3.44936e-05
4.62173e-05
-4.59856e-05
5.38514e-05
-5.93182e-05
6.37404e-05
-7.49529e-05
7.64779e-05
9.29117e-05
-9.35619e-05
4.69374e-07
1.77872e-05
-9.22346e-07
2.06444e-05
-2.84412e-06
2.9042e-05
-5.90923e-06
3.32827e-05
-1.09359e-05
4.04156e-05
-1.74252e-05
4.66912e-05
-2.56889e-05
5.44809e-05
-3.55917e-05
6.37542e-05
-4.73082e-05
7.54569e-05
-6.11268e-05
9.02965e-05
0.00010921
-7.74253e-05
3.61778e-07
1.74255e-05
-1.11107e-06
2.21173e-05
-2.45357e-06
3.03845e-05
-4.6874e-06
3.55166e-05
-8.18711e-06
4.39153e-05
-1.28574e-05
5.13615e-05
-1.9224e-05
6.08476e-05
-2.71593e-05
7.16895e-05
-3.68605e-05
8.51582e-05
-4.84943e-05
0.00010193
0.000123139
-6.24227e-05
4.85049e-07
1.69404e-05
-6.16624e-07
2.32189e-05
-1.57982e-06
3.13477e-05
-3.37103e-06
3.73078e-05
-5.88705e-06
4.64313e-05
-9.269e-06
5.47434e-05
-1.4038e-05
6.56165e-05
-2.01435e-05
7.7795e-05
-2.78701e-05
9.28847e-05
-3.73129e-05
0.000111373
0.000134549
-4.87229e-05
6.06403e-07
1.6334e-05
-6.75716e-08
2.38929e-05
-6.25517e-07
3.19056e-05
-2.02463e-06
3.87069e-05
-3.81287e-06
4.82196e-05
-6.29094e-06
5.72215e-05
-9.79759e-06
6.91232e-05
-1.43836e-05
8.2381e-05
-2.03148e-05
9.88159e-05
-2.77532e-05
0.000118812
0.000143719
-3.6924e-05
5.60489e-07
1.57735e-05
1.62202e-07
2.42912e-05
1.47443e-09
3.20664e-05
-1.04872e-06
3.97571e-05
-2.1694e-06
4.93403e-05
-3.94585e-06
5.89979e-05
-6.38113e-06
7.15584e-05
-9.66215e-06
8.5662e-05
-1.40079e-05
0.000103162
-1.95649e-05
0.000124369
0.000150706
-2.65518e-05
5.19556e-07
1.5254e-05
5.33113e-07
2.42776e-05
6.24659e-07
3.19748e-05
-3.61126e-08
4.04179e-05
-5.85604e-07
4.98897e-05
-1.77691e-06
6.01893e-05
-3.29589e-06
7.30774e-05
-5.48968e-06
8.78558e-05
-8.46504e-06
0.000106137
-1.24026e-05
0.000128306
0.00015574
-1.74361e-05
8.04078e-07
1.44499e-05
1.25118e-06
2.38305e-05
1.63463e-06
3.15914e-05
1.43442e-06
4.06181e-05
1.32627e-06
4.99979e-05
6.82656e-07
6.08329e-05
-8.44565e-08
7.38445e-05
-1.38907e-06
8.91604e-05
-3.21287e-06
0.000107961
-5.76037e-06
0.000130854
0.000159227
-9.24759e-06
9.9715e-07
1.34527e-05
1.82185e-06
2.30058e-05
2.53402e-06
3.08792e-05
2.81799e-06
4.03341e-05
3.13146e-06
4.96844e-05
3.05586e-06
6.09085e-05
2.96535e-06
7.3935e-05
2.49949e-06
8.96263e-05
1.73727e-06
0.000108723
4.85712e-07
0.000132105
0.000161067
-1.35475e-06
1.00169e-06
1.24511e-05
2.05151e-06
2.1956e-05
3.04731e-06
2.98834e-05
3.77718e-06
3.96042e-05
4.53131e-06
4.89303e-05
5.05421e-06
6.03856e-05
5.64606e-06
7.33432e-05
6.04788e-06
8.92245e-05
6.36578e-06
0.000108405
6.43185e-06
0.000132039
0.00016129
6.20975e-06
1.07198e-06
1.13791e-05
2.40244e-06
2.06255e-05
3.70808e-06
2.85778e-05
4.91678e-06
3.83955e-05
6.10931e-06
4.77378e-05
7.23338e-06
5.92615e-05
8.47984e-06
7.20967e-05
9.72445e-06
8.79799e-05
1.1066e-05
0.000107064
1.24094e-05
0.000130696
0.000160007
1.36922e-05
1.28756e-06
1.00915e-05
2.94808e-06
1.8965e-05
4.64035e-06
2.68855e-05
6.36094e-06
3.66749e-05
8.0396e-06
4.60591e-05
9.7726e-06
5.75285e-05
1.16608e-05
7.02086e-05
1.37291e-05
8.59115e-05
1.60532e-05
0.00010474
1.86253e-05
0.000128124
0.000157145
2.14867e-05
1.28302e-06
8.80851e-06
3.12602e-06
1.7122e-05
5.14556e-06
2.4866e-05
7.36085e-06
3.44596e-05
9.58852e-06
4.38314e-05
1.20004e-05
5.51166e-05
1.46322e-05
6.75767e-05
1.76217e-05
8.29221e-05
2.10482e-05
0.000101313
2.49943e-05
0.000124178
0.000152632
2.95074e-05
1.29753e-06
7.51098e-06
3.30852e-06
1.5111e-05
5.66063e-06
2.25139e-05
8.38208e-06
3.17382e-05
1.12065e-05
4.1007e-05
1.43456e-05
5.19775e-05
1.77936e-05
6.41287e-05
2.17706e-05
7.89451e-05
2.63781e-05
9.67054e-05
3.17797e-05
0.000118776
0.000146302
3.81096e-05
1.38703e-06
6.12395e-06
3.57822e-06
1.29198e-05
6.28088e-06
1.98112e-05
9.51707e-06
2.8502e-05
1.30041e-05
3.752e-05
1.69253e-05
4.80563e-05
2.12805e-05
5.97736e-05
2.63303e-05
7.38952e-05
3.22007e-05
9.08351e-05
3.91233e-05
0.000111853
0.00013812
4.73054e-05
1.34291e-06
4.78104e-06
3.58933e-06
1.06734e-05
6.55642e-06
1.68441e-05
1.02732e-05
2.47851e-05
1.44549e-05
3.33383e-05
1.9254e-05
4.32572e-05
2.46645e-05
5.43631e-05
3.09556e-05
6.76041e-05
3.82987e-05
8.34921e-05
4.69955e-05
0.000103157
0.000127809
5.73069e-05
1.24261e-06
3.53843e-06
3.46327e-06
8.45275e-06
6.60518e-06
1.37022e-05
1.07393e-05
2.0651e-05
1.56179e-05
2.84598e-05
2.13561e-05
3.7519e-05
2.79615e-05
4.77576e-05
3.56778e-05
5.98878e-05
4.47068e-05
7.44631e-05
5.53907e-05
9.24726e-05
0.000115044
6.81556e-05
1.0891e-06
2.44933e-06
3.19941e-06
6.34244e-06
6.39402e-06
1.05076e-05
1.08285e-05
1.62165e-05
1.63461e-05
2.29422e-05
2.30425e-05
3.08226e-05
3.09299e-05
3.98702e-05
4.02095e-05
5.06082e-05
5.11104e-05
6.35622e-05
6.40145e-05
7.95686e-05
9.96157e-05
7.94428e-05
9.27036e-07
1.52229e-06
2.80075e-06
4.46873e-06
5.85335e-06
7.45501e-06
1.03642e-05
1.17057e-05
1.63446e-05
1.69618e-05
2.38861e-05
2.32811e-05
3.30096e-05
3.07467e-05
4.38775e-05
3.97403e-05
5.67277e-05
5.0712e-05
7.19714e-05
6.43248e-05
8.13926e-05
9.01945e-05
6.4545e-07
8.76841e-07
2.22782e-06
2.88636e-06
4.91958e-06
4.76325e-06
9.19518e-06
7.43007e-06
1.52938e-05
1.08631e-05
2.3329e-05
1.5246e-05
3.33442e-05
2.07315e-05
4.54864e-05
2.75981e-05
6.00585e-05
3.61399e-05
7.75162e-05
4.68671e-05
6.00472e-05
9.88616e-05
5.87564e-07
2.89277e-07
1.68141e-06
1.79252e-06
3.87183e-06
2.57282e-06
7.63151e-06
3.67039e-06
1.3228e-05
5.26668e-06
2.08796e-05
7.59442e-06
3.07731e-05
1.08379e-05
4.32204e-05
1.51508e-05
5.851e-05
2.08503e-05
7.69999e-05
2.83772e-05
3.80114e-05
9.90357e-05
-6.61946e-07
9.51224e-07
1.23695e-06
-1.06379e-07
4.13512e-06
-3.25349e-07
7.67557e-06
1.29942e-07
1.23208e-05
6.21416e-07
1.85576e-05
1.35762e-06
2.68403e-05
2.55521e-06
3.76662e-05
4.32489e-06
5.15754e-05
6.94108e-06
6.91671e-05
1.07855e-05
1.65908e-05
9.05877e-05
-1.35911e-05
7.16e-06
-2.52902e-05
4.38118e-06
-3.58084e-05
2.11134e-06
-4.50372e-05
-2.13343e-07
-5.36441e-05
-2.258e-06
-6.23387e-05
-4.26394e-06
-7.18794e-05
-6.16904e-06
-8.27628e-05
-8.36778e-06
-9.53895e-05
-1.11937e-05
-0.000110154
-1.50052e-05
-2.02381e-05
-0.00012746
-4.87335e-06
1.20334e-05
-1.07137e-05
1.02215e-05
-1.9469e-05
1.08666e-05
-2.90731e-05
9.39079e-06
-3.91181e-05
7.78705e-06
-4.97872e-05
6.40515e-06
-6.12345e-05
5.27818e-06
-7.39338e-05
4.33156e-06
-8.84078e-05
3.2803e-06
-0.000105187
1.7741e-06
-5.81404e-07
-0.000124844
-2.04911e-06
1.40825e-05
-5.38283e-06
1.35552e-05
-1.12901e-05
1.67739e-05
-1.88287e-05
1.69295e-05
-2.8146e-05
1.71044e-05
-3.86666e-05
1.69258e-05
-5.04222e-05
1.70337e-05
-6.36017e-05
1.75111e-05
-7.86084e-05
1.8287e-05
-9.5956e-05
1.91216e-05
1.96463e-05
-0.000116184
-1.37412e-06
1.54566e-05
-4.22338e-06
1.64045e-05
-8.42634e-06
2.09768e-05
-1.40675e-05
2.25706e-05
-2.16168e-05
2.46536e-05
-3.08361e-05
2.61451e-05
-4.16314e-05
2.7829e-05
-5.39853e-05
2.98649e-05
-6.81247e-05
3.24264e-05
-8.44262e-05
3.54231e-05
3.86237e-05
-0.000103404
-1.28817e-06
1.67448e-05
-4.01879e-06
1.91351e-05
-7.27044e-06
2.42285e-05
-1.16356e-05
2.69358e-05
-1.75656e-05
3.05836e-05
-2.51077e-05
3.36873e-05
-3.42933e-05
3.70146e-05
-4.51044e-05
4.0676e-05
-5.76371e-05
4.49592e-05
-7.20918e-05
4.98778e-05
5.53326e-05
-8.88007e-05
-1.14992e-06
1.78947e-05
-3.64351e-06
2.16287e-05
-6.36076e-06
2.69457e-05
-9.90885e-06
3.04838e-05
-1.46459e-05
3.53207e-05
-2.06185e-05
3.96599e-05
-2.81224e-05
4.45184e-05
-3.71497e-05
4.97033e-05
-4.77394e-05
5.55489e-05
-5.99936e-05
6.2132e-05
6.93617e-05
-7.40228e-05
-9.55201e-07
1.88499e-05
-3.10004e-06
2.37735e-05
-5.37993e-06
2.92256e-05
-8.2957e-06
3.33996e-05
-1.21255e-05
3.91505e-05
-1.68685e-05
4.44028e-05
-2.28758e-05
5.05258e-05
-3.01838e-05
5.70113e-05
-3.88444e-05
6.42095e-05
-4.88894e-05
7.2177e-05
8.08516e-05
-6.03793e-05
-9.02456e-07
1.97523e-05
-2.69719e-06
2.55683e-05
-4.58553e-06
3.11139e-05
-7.00812e-06
3.58222e-05
-9.9429e-06
4.20853e-05
-1.37467e-05
4.82066e-05
-1.84563e-05
5.52354e-05
-2.41937e-05
6.27487e-05
-3.10586e-05
7.10744e-05
-3.90469e-05
8.01654e-05
8.99685e-05
-4.81637e-05
-7.60437e-07
2.05128e-05
-2.29975e-06
2.71076e-05
-3.65113e-06
3.24653e-05
-5.7312e-06
3.79023e-05
-7.99095e-06
4.43451e-05
-1.08818e-05
5.10974e-05
-1.44432e-05
5.87969e-05
-1.88139e-05
6.71194e-05
-2.40726e-05
7.6333e-05
-3.02901e-05
8.63828e-05
9.71806e-05
-3.75022e-05
-5.512e-07
2.1064e-05
-1.73127e-06
2.82876e-05
-2.79068e-06
3.35247e-05
-4.28258e-06
3.93942e-05
-5.94252e-06
4.6005e-05
-8.06418e-06
5.32191e-05
-1.06286e-05
6.13612e-05
-1.37809e-05
7.02718e-05
-1.76097e-05
8.01618e-05
-2.22124e-05
9.09855e-05
0.000102712
-2.77439e-05
-2.62547e-07
2.13265e-05
-9.58971e-07
2.89841e-05
-1.63287e-06
3.41986e-05
-2.64451e-06
4.04058e-05
-3.69246e-06
4.70529e-05
-5.09325e-06
5.46198e-05
-6.75222e-06
6.30202e-05
-8.81897e-06
7.23385e-05
-1.13424e-05
8.26853e-05
-1.44227e-05
9.40657e-05
0.000106523
-1.82337e-05
-6.60215e-08
2.13925e-05
-4.42559e-07
2.93606e-05
-6.99995e-07
3.44561e-05
-1.20949e-06
4.09153e-05
-1.65262e-06
4.74961e-05
-2.31125e-06
5.52785e-05
-3.06734e-06
6.37763e-05
-4.04272e-06
7.33139e-05
-5.26348e-06
8.39061e-05
-6.8074e-06
9.56097e-05
0.000108447
-8.73111e-06
1.80068e-07
2.12125e-05
1.81549e-07
2.93591e-05
3.12137e-07
3.43255e-05
3.24789e-07
4.09027e-05
4.75504e-07
4.73454e-05
5.5017e-07
5.52038e-05
6.92805e-07
6.36337e-05
7.83509e-07
7.32232e-05
8.6402e-07
8.38256e-05
8.69485e-07
9.56042e-05
0.000108517
7.99515e-07
5.42664e-07
2.06698e-05
9.99095e-07
2.89027e-05
1.5518e-06
3.37728e-05
2.09819e-06
4.03563e-05
2.84203e-06
4.66015e-05
3.65169e-06
5.43941e-05
4.6666e-06
6.26188e-05
5.82409e-06
7.20657e-05
7.18582e-06
8.24638e-05
8.76824e-06
9.40218e-05
0.000106681
1.06036e-05
7.62229e-07
1.99076e-05
1.60613e-06
2.80588e-05
2.60444e-06
3.27745e-05
3.72834e-06
3.92324e-05
5.09399e-06
4.52359e-05
6.70635e-06
5.27818e-05
8.64352e-06
6.06816e-05
1.0936e-05
6.97733e-05
1.36534e-05
7.97464e-05
1.68631e-05
9.0812e-05
0.00010281
2.07346e-05
1.01958e-06
1.8888e-05
2.29652e-06
2.67819e-05
3.75398e-06
3.1317e-05
5.47479e-06
3.75116e-05
7.50065e-06
4.321e-05
9.94771e-06
5.03347e-05
1.28536e-05
5.77757e-05
1.63135e-05
6.63133e-05
2.04375e-05
7.56224e-05
2.53478e-05
8.59017e-05
9.69116e-05
3.12462e-05
1.33964e-06
1.75484e-05
3.07877e-06
2.50427e-05
5.04356e-06
2.93522e-05
7.40574e-06
3.51494e-05
1.01385e-05
4.04773e-05
1.34573e-05
4.70159e-05
1.73836e-05
5.38494e-05
2.20741e-05
6.16229e-05
2.76386e-05
7.00579e-05
3.42604e-05
7.92799e-05
8.89839e-05
4.21881e-05
1.64507e-06
1.59033e-05
3.86219e-06
2.28256e-05
6.37603e-06
2.68384e-05
9.42509e-06
3.21003e-05
1.2932e-05
3.69704e-05
1.71945e-05
4.27533e-05
2.22104e-05
4.88336e-05
2.81904e-05
5.56429e-05
3.52617e-05
6.29866e-05
4.36488e-05
7.08928e-05
7.89903e-05
5.36424e-05
1.95659e-06
1.39467e-05
4.65193e-06
2.01303e-05
7.76536e-06
2.37249e-05
1.15476e-05
2.83181e-05
1.59215e-05
3.25965e-05
2.11779e-05
3.74969e-05
2.73657e-05
4.26458e-05
3.46984e-05
4.83102e-05
4.33237e-05
5.43613e-05
5.35005e-05
6.0716e-05
6.70408e-05
6.545e-05
2.29416e-06
1.16526e-05
5.49007e-06
1.69343e-05
9.23567e-06
1.99793e-05
1.38099e-05
2.37438e-05
1.91165e-05
2.72899e-05
2.5431e-05
3.11824e-05
3.28318e-05
3.52449e-05
4.15325e-05
3.96094e-05
5.1737e-05
4.41569e-05
6.37099e-05
4.87431e-05
5.29333e-05
7.78174e-05
2.65323e-06
8.99933e-06
6.336e-06
1.32516e-05
1.0749e-05
1.55664e-05
1.61312e-05
1.83616e-05
2.23941e-05
2.1027e-05
2.97691e-05
2.38074e-05
3.83697e-05
2.66443e-05
4.84241e-05
2.9555e-05
6.01557e-05
3.24252e-05
7.3864e-05
3.50348e-05
3.69345e-05
8.98629e-05
3.00927e-06
5.99006e-06
7.19709e-06
9.06375e-06
1.22214e-05
1.05421e-05
1.83099e-05
1.22731e-05
2.54221e-05
1.39148e-05
3.37512e-05
1.54783e-05
4.34393e-05
1.69562e-05
5.47055e-05
1.82888e-05
6.78088e-05
1.93219e-05
8.30467e-05
1.97969e-05
1.91971e-05
0.000100784
3.82809e-06
2.16196e-06
8.34318e-06
4.54866e-06
1.36581e-05
5.22714e-06
2.00775e-05
5.85368e-06
2.76699e-05
6.32247e-06
3.65758e-05
6.57238e-06
4.69695e-05
6.56255e-06
5.90904e-05
6.16793e-06
7.31848e-05
5.22752e-06
8.94592e-05
3.52252e-06
7.22681e-07
0.000107934
3.11319e-06
7.55547e-06
1.24573e-05
1.84409e-05
2.53848e-05
3.33148e-05
4.24325e-05
5.29253e-05
6.5094e-05
7.9402e-05
9.67154e-05
-1.81131e-06
1.42407e-05
-1.24294e-05
-3.83146e-06
1.36343e-05
-1.16141e-05
-7.56378e-06
1.65627e-05
-1.28304e-05
-1.22638e-05
1.91659e-05
-1.44659e-05
-1.73647e-05
2.16666e-05
-1.65658e-05
-2.2814e-05
2.46772e-05
-1.92279e-05
-2.87798e-05
2.85231e-05
-2.25573e-05
-3.54897e-05
3.34349e-05
-2.6725e-05
-4.32113e-05
3.97218e-05
-3.20003e-05
-5.22677e-05
4.78145e-05
-3.87581e-05
5.8314e-05
-4.74653e-05
-6.31164e-05
3.47681e-06
1.07639e-05
4.58198e-06
1.25291e-05
3.51557e-06
1.76291e-05
8.55756e-07
2.18258e-05
-3.24747e-06
2.57698e-05
-8.48601e-06
2.99157e-05
-1.46158e-05
3.4653e-05
-2.17146e-05
4.05337e-05
-2.9976e-05
4.79832e-05
-3.97039e-05
5.75425e-05
6.98981e-05
-5.1288e-05
2.65032e-06
8.11359e-06
3.96534e-06
1.12141e-05
4.71126e-06
1.68832e-05
4.30696e-06
2.22301e-05
2.3145e-06
2.77623e-05
-1.23493e-06
3.34652e-05
-6.10404e-06
3.95221e-05
-1.21348e-05
4.65644e-05
-1.94008e-05
5.52492e-05
-2.81033e-05
6.62449e-05
8.04141e-05
-3.86193e-05
2.20544e-06
5.90815e-06
3.18302e-06
1.02365e-05
4.32462e-06
1.57416e-05
4.90531e-06
2.16494e-05
4.43997e-06
2.82276e-05
2.66585e-06
3.52393e-05
-4.72364e-07
4.26603e-05
-4.87189e-06
5.0964e-05
-1.05086e-05
6.0886e-05
-1.74587e-05
7.31949e-05
8.88264e-05
-2.58709e-05
1.67572e-06
4.23243e-06
3.03181e-06
8.8804e-06
4.29675e-06
1.44767e-05
5.2747e-06
2.06714e-05
5.65526e-06
2.78471e-05
5.1491e-06
3.57455e-05
3.54699e-06
4.42624e-05
7.90046e-07
5.37209e-05
-3.10009e-06
6.47761e-05
-8.17103e-06
7.82659e-05
9.52209e-05
-1.45655e-05
1.43982e-06
2.79261e-06
2.99079e-06
7.32942e-06
4.64136e-06
1.28261e-05
5.96855e-06
1.93442e-05
6.92803e-06
2.68876e-05
7.28135e-06
3.53921e-05
6.82092e-06
4.47228e-05
5.42972e-06
5.51121e-05
3.08794e-06
6.71179e-05
-2.41311e-07
8.15951e-05
9.96278e-05
-4.64826e-06
1.34267e-06
1.44994e-06
3.06834e-06
5.60376e-06
4.87732e-06
1.10171e-05
6.59928e-06
1.76223e-05
8.0417e-06
2.54452e-05
9.07811e-06
3.43557e-05
9.5076e-06
4.42933e-05
9.22704e-06
5.53927e-05
8.20157e-06
6.81434e-05
6.42485e-06
8.33718e-05
0.000102205
3.84764e-06
1.13137e-06
3.18572e-07
2.8457e-06
3.88943e-06
4.78434e-06
9.07849e-06
6.78206e-06
1.56245e-05
8.68954e-06
2.35377e-05
1.03209e-05
3.27244e-05
1.15333e-05
4.30809e-05
1.22186e-05
5.47073e-05
1.23534e-05
6.80086e-05
1.19635e-05
8.37618e-05
0.000103137
1.10318e-05
7.19958e-07
-4.01386e-07
2.24686e-06
2.36252e-06
4.28994e-06
7.03541e-06
6.58302e-06
1.33315e-05
8.91098e-06
2.12097e-05
1.11095e-05
3.05258e-05
1.30296e-05
4.11609e-05
1.458e-05
5.31569e-05
1.57505e-05
6.68381e-05
1.66022e-05
8.291e-05
0.00010252
1.72194e-05
2.91879e-07
-6.93265e-07
1.51843e-06
1.13597e-06
3.60759e-06
4.94625e-06
6.13448e-06
1.08046e-05
8.84442e-06
1.84998e-05
1.15589e-05
2.78114e-05
1.41262e-05
3.85935e-05
1.64573e-05
5.08259e-05
1.85449e-05
6.47505e-05
2.04934e-05
8.09615e-05
0.00010056
2.24525e-05
1.57826e-07
-8.51091e-07
1.03798e-06
2.55815e-07
2.84322e-06
3.14101e-06
5.37866e-06
8.26913e-06
8.33237e-06
1.55461e-05
1.14618e-05
2.46819e-05
1.45974e-05
3.54579e-05
1.76423e-05
4.77809e-05
2.05986e-05
6.17942e-05
2.35802e-05
7.79799e-05
9.73144e-05
2.68263e-05
1.33825e-07
-9.84916e-07
6.71078e-07
-2.81438e-07
2.04837e-06
1.76372e-06
4.36033e-06
5.95717e-06
7.3456e-06
1.25608e-05
1.07328e-05
2.12947e-05
1.43218e-05
3.18689e-05
1.79992e-05
4.41035e-05
2.17683e-05
5.80251e-05
2.57656e-05
7.39827e-05
9.28197e-05