/*--------------------------------*- C++ -*----------------------------------*\
| =========                 |                                                 |
| \\      /  F ield         | OpenFOAM: The Open Source CFD Toolbox           |
|  \\    /   O peration     | Version:  3.0.1                                 |
|   \\  /    A nd           | Web:      www.OpenFOAM.org                      |
|    \\/     M anipulation  |                                                 |
\*---------------------------------------------------------------------------*/
FoamFile
{
    version     2.0;
    format      ascii;
    class       volScalarField;
    location    "0.519497";
    object      p;
}
// * * * * * * * * * * * * * * * * * * * * * * * * * * * * * * * * * * * * * //

dimensions      [0 2 -2 0 0 0 0];

internalField   nonuniform List<scalar> 
21246
(
0.821744
0.286552
0.255169
0.353424
0.49668
0.660646
0.786639
0.854347
0.876538
0.874713
0.912206
5.20048
4.08205
3.14225
2.53101
2.15331
1.9223
1.76963
1.64702
1.53022
1.42432
1.36998
5.51146
5.21546
4.63701
4.03903
3.50251
3.05627
2.6965
2.40189
2.14797
1.92806
1.78385
5.0424
5.07436
4.88606
4.57603
4.19951
3.79258
3.38746
3.00756
2.66265
2.36747
2.16645
4.65571
4.78056
4.75361
4.64064
4.43023
4.13739
3.79287
3.4356
3.0888
2.77469
2.5391
4.36882
4.5418
4.56757
4.54786
4.45817
4.29339
4.04438
3.75229
3.4282
3.10265
2.83199
4.11101
4.30132
4.33645
4.38997
4.38663
4.30933
4.14771
3.91233
3.62233
3.31107
3.03434
3.88912
4.03032
4.0937
4.15954
4.19614
4.17807
4.0865
3.91676
3.6789
3.40621
3.16553
3.68326
3.80394
3.86261
3.92686
3.97491
3.98476
3.93651
3.81849
3.63079
3.3977
3.1841
3.48202
3.59707
3.65003
3.70913
3.75722
3.77669
3.75038
3.66546
3.51668
3.31969
3.13137
3.31034
3.41253
3.45555
3.50598
3.5481
3.56749
3.5499
3.48353
3.36109
3.19413
3.04168
3.18174
3.25686
3.28171
3.31742
3.3476
3.3598
3.342
3.28395
3.17817
3.03258
2.9002
3.04524
3.10189
3.11301
3.13421
3.15009
3.15086
3.12685
3.07003
2.97411
2.84538
2.73386
2.88597
2.93497
2.93727
2.94557
2.94668
2.93375
2.89972
2.83917
2.74758
2.62927
2.533
2.75644
2.77791
2.75963
2.74875
2.73122
2.70138
2.65413
2.58689
2.49796
2.39103
2.30874
2.60515
2.60113
2.56358
2.53217
2.49334
2.44372
2.381
2.30608
2.22076
2.12824
2.06843
2.40644
2.3863
2.33402
2.28186
2.21953
2.14785
2.06886
1.98803
1.91104
1.83975
1.80636
2.20289
2.15041
2.07114
1.98897
1.89642
1.79928
1.70508
1.62429
1.56565
1.52866
1.53575
1.96472
1.86848
1.75312
1.63089
1.50041
1.37642
1.27423
1.20725
1.18328
1.19608
1.26475
1.66156
1.50927
1.34883
1.17636
1.00229
0.855592
0.761488
0.732847
0.76626
0.837151
0.922493
1.26588
1.03748
0.812825
0.580224
0.365422
0.216413
0.165454
0.213927
0.337742
0.497243
0.665937
0.782809
0.361668
0.0692495
-0.216924
-0.443366
-0.541241
-0.488664
-0.314435
-0.0707838
0.190785
0.43742
-0.442043
-0.642993
-0.97064
-1.26196
-1.41515
-1.36563
-1.13593
-0.797639
-0.422718
-0.0625027
0.25012
0.526629
-1.46952
-2.05446
-2.32068
-2.29802
-2.03299
-1.61558
-1.13861
-0.664081
-0.232193
0.125947
-10.3414
-4.83165
-2.61903
-1.70269
-0.956107
-0.405708
-0.0861439
0.112986
0.248733
0.323129
0.415504
-9.79666
-7.14078
-5.61195
-4.37231
-3.10279
-2.0637
-1.3332
-0.829324
-0.504093
-0.297955
-0.112846
-6.64122
-6.78321
-6.54453
-5.84784
-4.87512
-3.82544
-2.85168
-2.04808
-1.45094
-1.03614
-0.714479
-6.6633
-6.59127
-6.5109
-6.30995
-5.88817
-5.20119
-4.31927
-3.39519
-2.57796
-1.93884
-1.4155
-7.16766
-7.04063
-6.87066
-6.75651
-6.60542
-6.26577
-5.64013
-4.77719
-3.83941
-2.99071
-2.25834
-7.80204
-7.72387
-7.56893
-7.42749
-7.38294
-7.27387
-6.91227
-6.2043
-5.23484
-4.20587
-3.25611
-8.50792
-8.5215
-8.43836
-8.36547
-8.34084
-8.38287
-8.24984
-7.72718
-6.78335
-5.5939
-4.39947
-9.25337
-9.37504
-9.38258
-9.44544
-9.54021
-9.69723
-9.73716
-9.38688
-8.49494
-7.1702
-5.65413
-9.98546
-10.2204
-10.3235
-10.5473
-10.8493
-11.1412
-11.357
-11.169
-10.3333
-8.90091
-7.1519
-10.6141
-10.9803
-11.1769
-11.5608
-12.0541
-12.5963
-13.0311
-12.9967
-12.2094
-10.6248
-8.56927
-11.0067
-11.6001
-11.8695
-12.412
-13.0977
-13.8926
-14.5299
-14.6873
-13.9436
-12.2107
-9.86722
-11.3195
-11.9674
-12.3127
-12.9887
-13.82
-14.7841
-15.6773
-16.0616
-15.3307
-13.4479
-10.8566
-11.4102
-12.0409
-12.5148
-13.2431
-14.1608
-15.2329
-16.3092
-16.7945
-16.077
-14.0513
-11.1096
-11.2005
-11.8146
-12.3648
-13.1244
-14.0749
-15.1616
-16.2185
-16.6529
-16.0016
-13.896
-10.8028
-10.7236
-11.2595
-11.8168
-12.5575
-13.4766
-14.4958
-15.3929
-15.7422
-15.0147
-12.894
-9.89232
-9.92363
-10.3392
-10.8471
-11.5219
-12.3553
-13.2445
-13.9562
-14.1321
-13.2084
-11.1208
-8.35885
-8.76778
-9.06016
-9.49939
-10.1038
-10.8464
-11.5852
-12.0577
-11.9437
-10.8926
-8.86431
-6.29482
-7.2861
-7.5012
-7.91124
-8.49829
-9.19418
-9.80214
-10.0273
-9.59824
-8.37003
-6.44776
-4.19744
-5.63088
-5.89518
-6.39269
-7.05248
-7.74252
-8.21839
-8.16968
-7.3928
-5.9496
-4.09155
-2.20704
-4.27787
-4.75976
-5.45358
-6.20501
-6.87327
-7.20266
-6.85932
-5.73095
-4.07981
-2.29194
-0.60497
-3.89746
-4.63257
-5.49595
-6.29563
-6.90494
-7.0395
-6.3324
-4.82096
-3.03679
-1.30149
0.21766
-4.3237
-5.34458
-6.36157
-7.16754
-7.63939
-7.16697
-5.57555
-3.84446
-2.23649
-0.84838
0.172425
-5.8695
-7.76622
-7.96298
-7.57409
-6.72286
-5.4864
-3.96881
-2.61423
-1.48507
-0.56595
0.0967721
-10.425
-6.9456
-5.74151
-4.82631
-3.95724
-3.09503
-2.25596
-1.51811
-0.871874
-0.327662
0.0819736
18.8612
16.8459
14.5016
12.2145
9.99998
8.05891
6.45399
5.16999
4.14548
3.34976
2.83363
-3.23326
4.89723
6.92789
7.98834
7.57882
6.66019
5.58582
4.57126
3.68766
2.96958
2.48229
-16.9055
-6.97894
-3.77595
0.577823
2.62386
3.56779
3.59824
3.29415
2.82786
2.37509
2.06105
-20.8151
-13.9335
-11.8586
-6.29763
-3.16659
-0.579487
0.651037
1.32173
1.49131
1.45531
1.37876
-20.1656
-16.1166
-15.42
-10.4708
-7.75959
-4.39469
-2.45225
-0.950903
-0.140006
0.308935
0.582424
-18.4668
-15.8122
-15.8798
-11.9862
-10.3562
-6.89285
-4.96171
-2.99169
-1.75067
-0.894393
-0.31008
-16.5245
-14.6217
-15.0077
-11.8498
-11.2696
-7.98851
-6.58079
-4.41579
-3.05358
-1.93957
-1.12275
-14.2934
-13.2286
-13.4865
-11.002
-11.0383
-8.14849
-7.27784
-5.14523
-3.91561
-2.69954
-1.78039
-12.2387
-11.7168
-11.708
-9.98421
-10.0715
-7.78363
-7.27376
-5.29752
-4.33802
-3.09587
-2.18894
-10.5966
-10.1506
-10.0224
-8.88615
-8.82548
-7.12173
-6.70824
-5.1211
-4.40849
-3.15348
-2.34469
-8.91066
-8.56005
-8.43905
-7.64637
-7.49053
-6.31073
-5.88808
-4.71279
-4.03885
-3.06142
-2.34401
-7.11087
-6.90872
-6.86567
-6.31197
-6.18575
-5.33529
-4.99704
-4.08924
-3.54369
-2.7646
-2.16742
-5.6557
-5.47556
-5.45061
-5.05032
-4.91971
-4.31302
-4.06985
-3.37378
-2.961
-2.34225
-1.86098
-4.54321
-4.30374
-4.24568
-3.90281
-3.79607
-3.34164
-3.16362
-2.64032
-2.33539
-1.86273
-1.5031
-3.39456
-3.17375
-3.14256
-2.85499
-2.78897
-2.442
-2.31227
-1.92655
-1.70769
-1.36267
-1.10302
-2.44071
-2.20564
-2.16698
-1.94978
-1.89346
-1.62504
-1.52921
-1.25262
-1.10296
-0.868774
-0.70108
-1.71727
-1.44482
-1.37921
-1.18746
-1.11682
-0.902509
-0.823191
-0.62978
-0.535829
-0.397335
-0.31021
-1.06388
-0.781349
-0.709098
-0.532842
-0.447205
-0.26905
-0.19235
-0.0599016
-0.0129457
0.0406584
0.0485617
-0.518117
-0.233683
-0.152908
0.0150055
0.120094
0.284254
0.370543
0.459512
0.462983
0.439057
0.367838
-0.0921675
0.188807
0.293558
0.453914
0.598632
0.773786
0.876031
0.930414
0.889133
0.796149
0.661654
0.242285
0.516757
0.651521
0.834944
1.02931
1.22534
1.33406
1.34803
1.25596
1.1039
0.926071
0.543456
0.80402
0.99098
1.21524
1.45538
1.65569
1.73498
1.68559
1.53424
1.33321
1.12482
0.727694
1.13126
1.37052
1.64081
1.90117
2.05776
2.05157
1.92454
1.73291
1.52962
1.48357
1.66184
1.79435
2.05506
2.28908
2.38576
2.32165
2.11383
1.82985
1.5438
1.32409
1.29522
25.6692
22.021
17.7139
13.9042
10.8492
8.54008
6.80875
5.4838
4.41497
3.56904
2.97913
11.9515
15.3383
15.2244
13.9817
11.7821
9.57603
7.59599
5.94084
4.64655
3.67912
3.03837
-1.16495
5.76663
8.17891
9.86545
9.7968
8.57595
7.17804
5.78072
4.56527
3.61362
2.9659
-8.93536
-2.55712
0.177056
3.66812
5.48121
6.04161
5.65305
4.88991
4.02175
3.25577
2.71751
-12.3668
-7.72716
-5.72743
-1.89472
0.665249
2.47222
3.16876
3.25084
2.94659
2.53646
2.22047
-13.5408
-10.2161
-9.01983
-5.65679
-3.2417
-0.95519
0.45227
1.24994
1.53013
1.54491
1.49942
-13.7344
-11.1806
-10.5214
-7.72283
-5.85164
-3.53394
-1.89196
-0.671452
0.0548365
0.44896
0.67702
-13.4036
-11.3731
-11.094
-8.62725
-7.39135
-5.1912
-3.6225
-2.23822
-1.24927
-0.577967
-0.141572
-13.0368
-11.2341
-11.259
-8.92314
-8.12908
-6.18237
-4.7637
-3.36369
-2.26783
-1.42444
-0.831755
-12.7376
-11.1506
-11.0191
-9.16727
-8.32465
-6.69525
-5.4289
-4.08399
-2.97812
-2.05394
-1.32877
-12.3855
-11.1446
-10.639
-9.20642
-8.32654
-6.88279
-5.74252
-4.47609
-3.40954
-2.47469
-1.69789
-11.8223
-10.7991
-10.2423
-8.99788
-8.15764
-6.84236
-5.8001
-4.61234
-3.60689
-2.69684
-1.93119
-11.279
-10.2999
-9.76461
-8.61706
-7.82784
-6.61214
-5.65382
-4.54166
-3.60901
-2.74667
-2.00304
-10.7874
-9.75675
-9.22302
-8.12391
-7.36877
-6.23149
-5.34095
-4.30302
-3.4498
-2.65464
-1.96874
-10.0627
-9.0761
-8.58451
-7.53393
-6.80075
-5.7322
-4.892
-3.92574
-3.15826
-2.43256
-1.82534
-9.30006
-8.32924
-7.86293
-6.85174
-6.12883
-5.12284
-4.32483
-3.44505
-2.73503
-2.09915
-1.58203
-8.54275
-7.54665
-7.07118
-6.08402
-5.35245
-4.40161
-3.63769
-2.85006
-2.21699
-1.68094
-1.25727
-7.68917
-6.67477
-6.18142
-5.21636
-4.46313
-3.5656
-2.84348
-2.15375
-1.61969
-1.19922
-0.881101
-6.73276
-5.69568
-5.16915
-4.22519
-3.44792
-2.61452
-1.94752
-1.37659
-0.967568
-0.679045
-0.472752
-5.67411
-4.5944
-4.00866
-3.0843
-2.29406
-1.54426
-0.973446
-0.552608
-0.295403
-0.154023
-0.086663
-4.47044
-3.31743
-2.65358
-1.76881
-1.01009
-0.386479
0.0324998
0.27024
0.356676
0.351366
0.304263
-3.03645
-1.77631
-1.06166
-0.292825
0.342311
0.779456
0.996288
1.03219
0.949132
0.813667
0.671084
-1.31238
0.0147169
0.64618
1.16272
1.57343
1.78946
1.79358
1.64604
1.42261
1.19134
1.00682
0.735471
1.8113
2.17725
2.38075
2.52758
2.51979
2.3404
2.08107
1.78531
1.46801
1.15171
-3.82309
-0.291152
0.904061
1.26218
1.25958
1.10769
0.913466
0.710511
0.505284
0.317366
0.217202
-16.4168
-8.62061
-5.43914
-3.15
-1.60056
-0.773333
-0.376195
-0.21665
-0.185664
-0.217734
-0.225621
-16.4255
-12.3265
-10.1475
-7.41293
-4.96881
-3.2224
-2.08822
-1.41329
-1.03776
-0.835842
-0.691611
-12.6814
-11.7851
-11.0504
-9.22268
-7.1408
-5.26623
-3.76047
-2.68026
-1.96956
-1.51941
-1.21204
-9.65349
-9.70273
-9.66428
-8.86731
-7.64896
-6.23534
-4.85378
-3.68628
-2.80005
-2.16931
-1.69778
-7.66564
-7.89666
-7.96455
-7.68108
-7.10338
-6.2452
-5.2326
-4.23626
-3.37037
-2.68344
-2.13017
-6.38762
-6.5322
-6.58021
-6.49602
-6.24505
-5.77061
-5.1119
-4.36972
-3.641
-3.00369
-2.44048
-5.62066
-5.59508
-5.59538
-5.56829
-5.45058
-5.1852
-4.76963
-4.24784
-3.68006
-3.13783
-2.61455
-5.26448
-5.06565
-5.02022
-4.9581
-4.85617
-4.67593
-4.39456
-4.02126
-3.58554
-3.14094
-2.69076
-5.11044
-4.82943
-4.74184
-4.60708
-4.47017
-4.30546
-4.0801
-3.78718
-3.43753
-3.0662
-2.68061
-4.9978
-4.68884
-4.55392
-4.37826
-4.21687
-4.04901
-3.84282
-3.58665
-3.28291
-2.95451
-2.61523
-4.89855
-4.58474
-4.42228
-4.2213
-4.04408
-3.86988
-3.66979
-3.4278
-3.14168
-2.8285
-2.50977
-4.84917
-4.53601
-4.35919
-4.15066
-3.9553
-3.76846
-3.56321
-3.31744
-3.02514
-2.7012
-2.37464
-4.84647
-4.53755
-4.35786
-4.14629
-3.93961
-3.74147
-3.52346
-3.25909
-2.93929
-2.57917
-2.2073
-4.8664
-4.56269
-4.38732
-4.17609
-3.96292
-3.75795
-3.52584
-3.23698
-2.87808
-2.46774
-2.04129
-4.89364
-4.59818
-4.42995
-4.22269
-4.00881
-3.79471
-3.54953
-3.23375
-2.83106
-2.36426
-1.87968
-4.91753
-4.63462
-4.47296
-4.26975
-4.0554
-3.83299
-3.57167
-3.22983
-2.78647
-2.26584
-1.70864
-4.92848
-4.65774
-4.50147
-4.30179
-4.0825
-3.84704
-3.56777
-3.20423
-2.73546
-2.1831
-1.59417
-4.91663
-4.65874
-4.50736
-4.31095
-4.08423
-3.82819
-3.52869
-3.15101
-2.68047
-2.1351
-1.56199
-4.8757
-4.636
-4.49092
-4.29775
-4.06075
-3.78044
-3.45893
-3.07882
-2.6404
-2.15068
-1.62393
-4.80358
-4.59965
-4.46495
-4.27208
-4.01789
-3.71034
-3.36608
-3.00484
-2.64294
-2.26749
-1.8516
-4.71165
-4.58232
-4.45679
-4.24506
-3.95437
-3.60791
-3.25159
-2.94729
-2.71722
-2.52174
-2.303
-4.79749
-4.70746
-4.48517
-4.18701
-3.82414
-3.43368
-3.10665
-2.92273
-2.87676
-2.90278
-2.94266
-4.99792
-4.1985
-3.91585
-3.62217
-3.29903
-3.03622
-2.91946
-2.97916
-3.16741
-3.41097
-3.64562
13.4732
9.08267
6.16797
4.38945
3.25117
2.48372
1.92292
1.47599
1.09677
0.785318
0.575884
11.8814
11.2781
9.34697
7.33114
5.57623
4.18719
3.13428
2.34138
1.72381
1.24752
0.946725
8.03506
8.93647
8.76786
7.89385
6.5649
5.18959
3.98747
3.01163
2.22811
1.60175
1.23584
4.73575
6.27134
6.7342
6.72337
6.188
5.31577
4.31986
3.36348
2.52636
1.84424
1.40346
2.32639
3.83068
4.48391
4.9957
5.07688
4.72794
4.08999
3.34041
2.5957
1.94863
1.49402
0.624801
1.90915
2.48813
3.17023
3.58641
3.66723
3.43043
2.97826
2.41028
1.86426
1.4376
-0.574591
0.499285
0.94739
1.62355
2.13772
2.44294
2.49541
2.31704
1.97487
1.57541
1.23483
-1.39224
-0.508093
-0.203476
0.416767
0.913466
1.30106
1.51429
1.53639
1.39569
1.15472
0.919788
-2.06483
-1.27486
-1.10273
-0.512102
-0.0806956
0.322225
0.610636
0.759727
0.766577
0.666996
0.53256
-2.66809
-1.94343
-1.8086
-1.27906
-0.886554
-0.496319
-0.17785
0.0428431
0.151037
0.163819
0.136594
-3.14379
-2.61651
-2.36587
-1.92327
-1.55486
-1.17979
-0.853189
-0.594124
-0.420313
-0.329647
-0.274583
-3.50422
-3.06744
-2.83265
-2.44596
-2.10449
-1.74957
-1.42636
-1.14836
-0.932312
-0.784948
-0.670608
-3.82544
-3.42839
-3.21722
-2.86895
-2.55231
-2.21942
-1.90662
-1.62299
-1.38217
-1.19177
-1.02655
-4.16535
-3.75399
-3.54205
-3.2141
-2.91566
-2.60279
-2.30388
-2.02473
-1.7746
-1.56104
-1.36047
-4.32723
-3.969
-3.78501
-3.48382
-3.20417
-2.91098
-2.62792
-2.36005
-2.11367
-1.89424
-1.68471
-4.46437
-4.13787
-3.96879
-3.69061
-3.42738
-3.15261
-2.88592
-2.63375
-2.40146
-2.19151
-1.99283
-4.58508
-4.27519
-4.10894
-3.84679
-3.59455
-3.33477
-3.08386
-2.85098
-2.64256
-2.45792
-2.29144
-4.65022
-4.36261
-4.20096
-3.95387
-3.7095
-3.46147
-3.22584
-3.01644
-2.84282
-2.70257
-2.5878
-4.66819
-4.40462
-4.24727
-4.01343
-3.77391
-3.53432
-3.31401
-3.13356
-3.00688
-2.9287
-2.87649
-4.65409
-4.41122
-4.25382
-4.02808
-3.78847
-3.55339
-3.34923
-3.20486
-3.13869
-3.14114
-3.15406
-4.60657
-4.38145
-4.2194
-3.99484
-3.74994
-3.51704
-3.33235
-3.23328
-3.24234
-3.34775
-3.48021
-4.51418
-4.30655
-4.13026
-3.8992
-3.64892
-3.42217
-3.26408
-3.21843
-3.30939
-3.51619
-3.74498
-4.43854
-4.18762
-3.98176
-3.74717
-3.50082
-3.28846
-3.16096
-3.16499
-3.32729
-3.6216
-3.95455
-3.94539
-3.75875
-3.58552
-3.40553
-3.22198
-3.07154
-3.00048
-3.0521
-3.26105
-3.59146
-3.89781
-1.69163
-2.16848
-1.97194
-1.12193
-0.100052
0.512367
0.772083
0.67853
-0.0504407
-1.36338
-1.67713
-1.4788
-0.871768
-0.0955524
0.3961
0.620678
0.538168
-0.0528859
-1.28227
-1.54312
-1.40323
-0.803654
-0.132988
0.284396
0.482516
0.416459
-0.0820749
-1.16845
-1.34844
-1.19128
-0.727954
-0.174183
0.191861
0.361546
0.31373
-0.123214
-1.09803
-0.87185
-0.846607
-0.87172
-0.990346
-1.2765
-1.62863
-1.58589
-1.029
-1.00384
-0.871746
-0.854304
-0.872607
-0.925006
-1.06573
-1.27303
-1.19108
-0.748013
-0.958853
-0.8607
-0.837441
-0.837262
-0.869444
-0.99745
-1.17686
-1.10883
-0.692814
-0.912107
-0.849253
-0.807642
-0.806353
-0.795207
-0.89301
-1.0305
-0.948715
-0.606433
0.816127
1.07066
1.07364
-0.478431
-0.555195
1.25788
-0.739572
1.22605
1.26375
0.867092
-0.571103
1.22409
-0.442628
-0.182763
0.811726
1.07505
-0.156109
-0.459557
1.07692
0.814767
0.940917
-0.605945
1.1691
-0.491386
1.05169
-0.17975
-0.436684
-0.729852
-0.42052
-0.63106
-0.156376
0.154741
-0.134591
1.14226
0.0914224
1.08422
-0.468336
1.05875
-0.14509
1.28445
-0.301777
1.14581
-0.384094
1.17141
-0.751123
-0.458952
-0.206747
-0.720263
0.261832
1.35091
-0.63495
1.27939
-0.0234004
-0.373622
1.35016
0.935636
-0.60563
1.27603
-0.468962
-0.294099
-0.154282
-0.0395684
-0.592587
-0.565111
-0.325379
0.815114
-0.696417
1.41588
1.08398
0.863625
-0.313048
1.1068
-0.409942
1.22746
-0.423376
1.10248
-0.576515
1.15338
-0.66588
-0.758887
-0.0803867
-0.563268
0.859597
0.871544
-0.21906
-0.392997
-1.4427
-0.0416894
-0.646064
-0.234092
1.11482
1.27287
-0.292869
1.25073
-0.716869
-0.909229
-0.35161
-0.383834
-0.61554
1.13807
-0.1015
-0.764133
0.751345
-0.0712535
-0.584534
1.15986
-0.0186462
0.862087
-0.0474174
0.611072
1.18899
1.1429
1.1714
-0.50226
-0.227877
0.843517
1.29272
1.17186
1.23753
0.673756
-0.509737
1.20394
0.171576
-0.190549
-0.446113
-0.44695
0.0529929
-0.0177916
-0.00674211
-0.0457682
1.23936
-0.29147
-0.727082
1.09852
1.12427
-0.254406
-0.55521
-0.557067
-0.559971
0.252947
-0.359289
0.899463
-0.736056
0.467562
1.29462
-0.449967
-0.384894
1.42079
0.980113
1.28868
1.34739
1.22259
-0.453847
1.19913
-0.500767
-0.31929
-0.30249
-0.651265
-0.188057
0.906001
-0.372259
-0.595136
1.10649
0.929365
-0.679291
-0.236504
-0.648817
1.22526
-0.399157
-0.338206
-0.105149
-0.0538283
-0.37232
0.747689
0.179789
0.20142
-0.0112499
-0.489879
-0.777147
0.240369
1.41279
-0.596412
1.10836
-0.560803
1.2113
-0.547539
1.38894
1.16073
0.987126
-0.665066
-0.0673254
-0.220623
0.775747
-0.307299
1.0905
0.97973
1.26648
-0.6215
-0.0471714
0.85247
-0.525813
1.34756
-0.168235
-0.232931
1.11662
-0.00718075
1.25376
-0.00454031
1.32154
0.802989
-0.178565
1.11187
0.60591
0.141495
1.16545
-0.202076
1.12337
-0.172078
1.39621
-0.294641
-0.0727703
-0.494015
-0.375114
-0.222446
-0.159394
1.2681
-0.52571
-0.164108
-0.048048
-0.585853
-0.635976
0.762319
1.36105
1.18254
-0.466842
-1.37056
-0.489858
1.10654
1.21858
1.2194
-0.139616
-0.622664
-0.0946315
-0.33959
1.31252
-0.6195
1.13721
-0.319178
-1.00139
-0.0331996
-0.303818
-0.206993
-0.11658
0.905219
0.0707077
1.26528
1.01029
1.06007
-0.487885
1.40529
-0.011002
-0.364601
0.788111
1.16585
1.18789
-0.223711
0.874606
1.42503
-0.267632
-0.191627
-0.595969
1.32321
1.34473
-0.216615
1.12244
1.16335
-0.247639
1.15187
0.364282
-0.59522
1.12005
1.21144
-0.0891894
-0.420171
0.123635
1.07058
-1.14596
1.21967
0.288842
-0.374078
1.20414
-0.745653
0.889861
-0.231988
1.08427
1.31822
-0.403218
1.18329
0.114396
-0.296365
1.2452
-0.540254
0.153377
-0.609901
1.03118
0.563248
1.16099
0.0229458
-0.592112
1.26888
-0.655969
1.16427
0.478563
-0.1109
-0.645178
0.482797
-0.363251
-0.604715
0.635843
1.24493
1.36422
0.0514359
1.12703
-0.380681
-0.588626
1.14862
1.14861
-0.35567
0.753896
-0.0978067
1.57574
-0.58625
-0.544511
1.17631
-0.415272
-1.12227
-0.341045
1.16549
1.14669
-0.35836
-0.441568
-0.21874
1.35453
-0.341256
-0.607382
0.0201034
-0.248869
1.15021
-0.500105
0.0657213
-0.654328
-0.379227
-0.154503
1.06349
-0.120616
0.851959
-0.0587253
0.389359
1.16515
-0.0998432
-0.180216
-0.198455
1.12091
0.856911
1.14688
-0.645463
-0.0556976
-0.31078
-0.682808
0.328704
1.14431
-0.596017
-1.07559
-0.102247
-0.137346
1.20383
0.0602922
0.0910086
1.0698
1.2775
-0.212965
0.997921
-0.490629
1.26491
-0.215772
-0.566846
-0.516773
-0.158157
-0.613344
-0.655021
1.21973
-0.648691
-0.0595595
1.12395
-0.574702
-0.329361
1.17059
1.26272
1.20945
-0.207044
-0.486251
0.840042
1.17714
-0.340459
-0.024419
-0.257913
-0.687071
-0.0316604
1.35041
0.0576432
1.47517
1.07209
-0.171447
-0.160923
-0.403557
0.400913
-0.0759336
1.21277
-0.0408785
-0.667464
-0.541163
-0.0398533
-0.737048
-0.00723823
0.180804
0.661464
1.21629
-0.0344384
-0.296428
-0.348773
1.13241
-0.524407
-0.242967
0.598726
-0.175971
-0.154004
-0.579919
-0.579605
-0.201565
1.12135
-0.189601
-1.47885
-0.417041
-0.523932
1.46638
-0.283003
-0.273053
-0.546978
0.948394
-0.606214
1.21998
0.871946
1.13121
-0.667921
-0.39159
-0.671997
-0.114019
-0.584723
-0.012787
0.94215
0.960322
0.0505793
-0.0997877
0.0341114
1.61907
-0.0151831
-0.0183288
0.845123
1.10729
1.55048
0.188273
-0.538392
1.26803
-0.160845
1.50599
1.20531
1.31259
0.81118
-0.592547
1.37488
0.893578
0.981411
-0.563411
-0.585904
1.16445
-0.401939
-0.575211
0.50301
-0.228365
0.860424
-0.520619
0.99514
1.55755
1.26919
-0.00713359
-0.189248
0.778934
-0.241839
0.530342
1.44317
-0.36486
-0.348233
1.20475
0.889307
-1.0018
-0.121698
-0.468942
1.60174
-0.725099
1.12004
-0.610293
-0.175636
-0.660192
-0.239625
-0.103345
-0.571455
-0.195846
-0.235721
1.13393
-0.340483
0.611715
1.2087
1.12635
1.20689
1.22622
-0.231834
1.23523
0.869662
-0.536536
1.24167
-0.464425
0.0150872
0.00196524
-0.309679
-0.654417
1.03318
1.10683
1.20724
-0.343118
-0.586816
1.13658
0.946319
-0.179485
1.18446
-0.37246
1.18578
0.0111352
0.370082
-0.673419
-0.194068
-0.0394476
-0.481006
-0.612372
1.04532
0.83431
0.948423
1.19755
-0.142145
-0.634563
0.730657
-0.165224
-0.81207
-0.767455
1.07508
1.27634
1.15875
-0.274059
-0.469621
-0.0388976
1.18652
1.28386
-0.401801
1.22108
-0.213502
-0.0281878
-0.0244668
-0.627388
1.20401
-0.0271115
1.10234
-0.189986
1.20831
-0.40547
-0.0143026
0.212185
-0.638816
-0.212053
1.21563
1.1499
-0.708375
0.917578
-0.370677
-0.546382
-0.230261
-0.289164
-0.430542
-0.350087
0.902064
1.25865
1.21512
-0.922225
-0.214902
-0.142922
0.799065
1.0784
-0.681473
1.40776
1.26486
1.38469
1.04026
-0.222658
-0.200765
-0.256752
-0.244378
0.25987
-0.138151
0.892417
-0.492067
1.07639
1.24204
-1.00283
-0.232247
1.10617
0.962184
-0.536424
0.734811
0.937743
-0.140359
1.1558
1.01249
-0.301896
-0.2408
-0.0789472
-0.0433878
-0.0407992
-0.677894
0.0140579
-0.229817
-0.478739
-0.312733
-0.650259
-0.312163
-0.230472
1.12186
1.20974
-0.593302
0.252632
1.26772
0.652104
-0.250135
-0.396916
-0.969336
-0.331219
0.00666556
1.16077
-0.085405
1.04473
1.25346
0.569859
-0.407385
0.983316
1.66221
1.40403
1.19678
-0.570536
-0.0722001
-0.58772
1.06925
1.47115
0.399971
-0.189539
1.24325
-0.727928
1.14877
-0.533814
0.0328992
1.18747
-0.0316743
0.946372
-0.134449
-0.557458
-0.218589
-0.949699
-0.357637
-0.186596
0.861419
-0.0251127
-0.10717
-0.667853
0.0877636
1.14105
0.448599
0.868798
-0.198137
1.29611
-0.372916
1.18187
1.27374
1.06308
-0.439475
-0.265338
1.04918
-0.0150307
1.17952
-0.132557
-0.197677
0.756318
-0.547239
-0.358298
-0.224796
0.141301
-0.468996
-0.369722
-0.433028
-0.111508
-0.729813
1.13056
-0.228905
1.22034
1.59811
-0.65121
-0.258266
-0.530904
-0.177809
1.21702
0.986131
0.656284
-0.156627
0.94825
0.028429
-0.343453
0.0105277
0.764928
-0.00220915
-0.353634
-0.283502
1.14981
-0.325022
-0.533105
-0.591295
1.1941
-0.201306
-0.848479
1.10147
-0.510667
-0.038719
1.25698
-0.503632
1.27945
1.61534
0.551706
-0.0507523
1.12065
-0.108115
1.15236
-0.144226
1.033
-0.229807
-0.148324
-0.233331
-0.0227149
1.14734
-0.569724
-0.531386
0.894521
-0.110879
0.0984393
-0.309396
-0.0946034
-0.641874
1.15677
-0.218735
-0.204924
-0.068958
1.23514
-0.242211
1.16158
-0.276496
-0.486122
1.07754
1.23903
-0.0837247
-0.579903
-0.00795774
-0.342006
1.2237
-0.221495
0.675387
1.13671
0.990945
1.16488
1.22201
1.32527
-0.0266555
-0.652436
-0.575175
-0.0603651
-0.231495
1.04646
1.23298
-0.0840137
-0.440016
1.11432
-0.130491
-0.217587
-0.718436
-0.34817
-0.27986
0.105697
-0.25692
1.03827
1.23514
-0.464671
0.722119
1.22429
0.592133
0.00495559
-0.212825
-0.190147
1.09533
-0.312093
-0.372643
-0.376875
1.22663
-0.0286773
-0.287491
-0.237571
-0.262444
0.903905
1.23416
-0.47418
-0.212679
-0.315183
0.869797
1.38647
1.25142
1.21286
1.22088
-0.276005
-0.370059
-0.482907
-0.733219
-0.331848
1.20551
-0.6169
0.947019
1.13927
0.140572
1.23454
1.17209
1.26923
-0.605458
-0.100793
-0.316862
1.16679
-0.289895
1.08983
1.14382
1.26984
0.972796
0.672287
1.17796
1.12741
1.27112
-1.35535
1.17016
0.847593
-0.22567
-0.739675
1.4321
1.12953
-0.55534
-1.28615
1.54061
-0.255573
-0.226368
-0.293727
1.19568
1.05453
1.10945
0.432663
-0.0339504
1.21898
-0.533724
-0.236225
0.0204873
-0.19403
1.18171
-0.203757
0.77605
1.18673
1.16734
1.61536
1.15493
-0.390322
-0.456691
0.121341
-0.427224
0.051888
-0.354342
0.224356
-0.681084
1.15049
1.18143
-0.0256774
-0.060009
-0.207092
1.27807
-0.633722
1.1766
-0.330119
0.97559
-0.0313564
-0.0899609
-0.593085
-0.300502
0.798857
1.05831
-0.361326
-0.553856
0.0369054
-0.164217
-0.222046
0.785665
0.97638
0.0727089
1.17596
1.12464
-0.36897
-0.362851
-0.565612
-0.516856
-0.0309065
-0.198894
-0.193626
-1.03679
0.88316
0.798435
0.0606666
0.908973
-0.127262
1.17657
-0.195252
-0.228478
-0.038018
0.927761
-0.27762
1.19032
1.27367
-0.084517
-0.519525
1.35109
1.15219
1.2679
-0.336442
-0.28239
-0.668157
0.339642
0.808093
-0.277154
-0.188655
-0.685574
0.882794
-0.0284536
-0.155979
1.19823
-0.042102
0.354069
-0.320953
-0.648813
0.224875
-0.421433
0.451288
1.14864
-0.308804
-0.164145
1.4489
-0.0200116
1.11217
-1.32458
0.00743514
-0.733412
1.06523
-0.0346929
-0.552346
-0.605332
-0.0380223
-0.0971605
0.857268
-0.0105964
-0.573433
1.15961
0.565181
-0.27051
-0.314442
-0.451456
-0.407915
1.25614
0.960661
-0.618277
1.5225
-0.33325
-0.256028
0.00033559
-0.520239
1.21915
-0.305744
-0.607869
-0.044408
-0.180261
-0.286902
1.03695
-0.287553
-0.0471536
0.929667
0.411845
1.12749
-0.437348
0.788547
1.19995
-0.357177
-0.241774
-0.119778
1.18896
-0.663198
-0.46591
0.807062
-0.467676
1.13218
0.865539
0.217182
-0.737563
1.7285
-0.244036
0.252678
-0.610025
1.17655
0.961343
0.865948
0.870364
-0.473312
-0.474982
-0.317208
-0.740807
-0.392134
-0.982026
0.822672
0.548903
-0.544621
0.906626
-0.091185
-0.134357
0.166089
-0.198125
-0.393254
-0.492682
1.4078
-0.133989
0.886417
-0.371526
1.18635
-0.968557
-0.409148
1.21374
-0.660322
-0.343474
1.18586
-0.468564
-0.299195
-0.2903
-0.353453
0.13219
-0.738239
-0.0365443
-0.517852
-0.485126
-0.363814
1.16182
-0.464953
1.3377
-0.404535
-0.182483
-0.539235
0.0745466
-0.197404
-0.719531
0.903641
1.40171
1.22874
1.18959
-0.239235
-0.385089
0.969718
-0.17446
-0.545692
1.68395
-0.61104
-0.698653
-0.284214
-0.228025
-0.475073
-0.194665
-0.0578833
0.0534815
0.921
0.970384
-0.581584
0.966762
1.11987
-0.422322
0.857398
1.32518
-0.494246
1.17231
-1.06288
-0.128166
-0.297965
0.908958
-0.307486
-0.335943
-0.198271
-0.552143
0.878788
-0.256986
-0.206443
-0.190994
-0.0445151
1.05926
-0.0311513
0.728687
-0.564416
-0.0156578
0.430503
0.933092
-0.468652
0.026227
-0.492991
-0.6078
-0.644512
0.980381
1.12245
0.984968
-0.0964868
-0.0699803
-0.114515
-0.588039
-1.09601
1.03938
0.108549
0.76643
1.17429
-0.594716
0.83933
1.52263
-0.269462
-0.302916
-0.756197
-0.583391
1.19
1.1106
-0.0428415
-0.568163
-0.0576547
-0.837668
-0.333715
1.17019
1.38292
-0.209154
0.0620888
-0.0703223
-0.214786
1.15419
-0.183238
-0.280657
-0.283692
1.17985
-0.534895
-0.652189
0.362048
-0.360084
1.24739
0.754634
-0.570693
-0.146547
-0.419375
0.877694
0.103038
-0.0195166
-0.608652
-0.544803
-0.222449
-0.559109
-0.272695
1.29801
-0.757623
-0.550045
0.967097
-0.00917156
-0.309369
0.547412
-0.0308453
0.929247
1.11845
1.00091
-0.384206
-0.00708013
1.13904
-0.188797
0.933182
1.16291
0.852616
-0.230843
1.13597
-0.190162
-0.439965
0.966732
-0.64374
-0.667458
-0.236692
-0.581697
-0.232502
-0.285596
-0.0143325
1.23196
1.17096
1.17214
-0.193579
0.852902
1.31195
-0.338462
-0.591415
-0.302804
-0.159975
-0.0341282
0.206567
-0.549904
-0.44247
1.11959
0.0129665
1.08781
-0.0430305
0.650857
-0.100724
0.953955
0.773666
1.22051
-0.58547
0.0205154
0.551474
-0.414852
1.1146
-0.112142
0.0777541
-0.458608
-0.232526
0.924675
0.803427
-0.197591
-0.270895
-0.139477
-0.00977625
-0.55491
-0.132639
0.943887
-0.704958
-0.0656549
0.695948
-0.317981
-0.266794
-0.338239
-0.587073
-0.549565
-0.00614368
-0.654988
-0.344473
1.12805
1.42393
-0.215916
-0.463263
0.0537406
1.15718
-0.35027
1.09381
1.16716
-0.657004
0.859859
1.21616
-0.762642
-0.511627
1.33573
0.834841
1.26277
1.14549
1.18547
1.21544
-0.481892
-0.127271
1.10144
1.18133
-0.427433
1.20509
-0.282019
1.14337
1.03934
1.21658
-0.307223
-0.697461
-0.534374
0.842378
1.18255
-0.219892
-0.0341245
0.927778
-0.301127
-0.345445
1.24373
-0.335445
-0.155421
-0.594112
-0.411218
-0.547436
1.21553
-0.552222
1.20649
0.95561
1.26832
-0.0523966
0.981232
-0.528002
1.24795
-0.561322
1.13561
0.973403
-0.567941
1.17089
1.03749
-0.540824
-0.174685
-0.450484
1.02684
0.898791
1.2021
-0.211232
-0.0567138
-0.576256
0.0230671
-0.368219
-0.406804
1.22707
1.1049
1.71989
0.784578
-0.185939
1.25764
0.0166538
1.20847
-0.598366
-0.245605
-0.19542
-0.339839
0.423141
0.137064
1.09843
-0.26172
-0.614235
0.912923
0.967884
-0.331275
1.05368
1.38224
0.835735
-0.304515
1.07665
-0.456056
-0.597642
-0.138324
-0.191809
1.11331
-0.445601
0.258398
-0.805004
-0.218997
0.387447
-0.0187029
0.841723
1.1729
0.802296
1.08188
-0.151342
0.940031
1.20294
-0.0556987
-0.548529
1.26237
0.824504
-0.70633
-0.148586
0.87928
-0.198495
0.899131
1.04907
-0.37262
0.982009
-0.330147
-0.188326
0.922307
1.12365
-0.222603
-0.500123
0.803833
-0.0205743
1.095
1.15319
-0.188217
0.93574
-0.202991
0.950176
1.2631
-0.51715
0.642155
1.60683
-1.14378
1.03698
1.44509
1.79348
1.58965
0.0976521
0.155652
-0.19076
-0.42477
-0.609337
1.44573
1.2632
-0.441818
-0.00477801
0.974187
0.717941
-0.325202
1.13789
0.0555773
1.21483
-0.409852
1.25839
0.815811
-0.0465924
-0.255215
-0.226785
1.08541
0.882321
0.687188
0.814825
1.21504
-0.204602
-0.264967
-0.559206
-0.452235
-0.306255
0.931422
1.2582
1.29366
-0.648573
0.676719
-0.165739
-0.849344
1.21218
-0.061203
-0.565727
1.54841
0.860643
0.243742
-0.44182
-0.323721
1.42807
-0.281235
-0.0412238
-0.554853
-0.0346053
-0.162265
1.20236
-0.411984
-0.269657
-0.698909
-0.4675
-0.36828
-0.0340819
0.990604
0.792888
-0.405381
1.09108
-0.148724
-0.212586
-0.128115
-0.264115
-0.360856
-0.516578
-0.269823
-0.391542
1.21099
-0.581089
-0.232743
0.0269764
-0.225644
-0.537494
0.946232
-0.717361
1.20663
0.0683101
-0.906224
-0.415548
-0.310727
-0.203373
0.0629297
1.2486
1.2437
1.26413
0.98569
1.03415
0.103512
1.5494
-0.522588
1.28941
-0.192727
-0.324839
1.09847
0.8783
-0.355253
-0.397224
1.14067
0.494469
1.17383
1.22725
0.204095
-0.45487
1.00085
1.06892
1.03065
1.1294
1.2562
1.12208
-0.242517
-0.506418
1.21091
-0.177895
1.11381
1.10399
0.144335
1.14064
-0.279147
0.795418
1.21477
1.30535
0.825319
-0.059207
1.4167
-0.0131433
-0.515327
-0.657375
-0.328817
-0.208409
-0.299817
-0.0666308
-0.286169
0.0342411
0.063226
1.18861
-0.324359
0.702614
1.22655
1.11418
-0.127575
-0.0113139
-0.0460164
0.871757
-0.433331
1.24715
-0.339687
-0.162194
1.13673
0.233089
1.23588
0.0229153
0.967491
-0.761396
1.14181
0.854037
-0.361763