/*--------------------------------*- C++ -*----------------------------------*\
| =========                 |                                                 |
| \\      /  F ield         | OpenFOAM: The Open Source CFD Toolbox           |
|  \\    /   O peration     | Version:  3.0.1                                 |
|   \\  /    A nd           | Web:      www.OpenFOAM.org                      |
|    \\/     M anipulation  |                                                 |
\*---------------------------------------------------------------------------*/
FoamFile
{
    version     2.0;
    format      ascii;
    class       volScalarField;
    location    "0.982528";
    object      k;
}
// * * * * * * * * * * * * * * * * * * * * * * * * * * * * * * * * * * * * * //

dimensions      [0 2 -2 0 0 0 0];

internalField   nonuniform List<scalar> 
21246
(
1.29695
1.78461
1.22506
0.737251
0.417528
0.231374
0.127352
0.0698034
0.0382852
0.0214461
0.012945
0.868868
1.20404
0.964263
0.645613
0.394754
0.23066
0.130338
0.0716502
0.0387997
0.0213118
0.0126372
0.618433
0.98514
0.875971
0.651884
0.422791
0.255692
0.147606
0.0820599
0.0443633
0.0239233
0.0137861
0.503891
0.776549
0.746954
0.621024
0.440825
0.279837
0.164655
0.092188
0.049888
0.0266886
0.0150127
0.448433
0.655874
0.639737
0.55439
0.4117
0.271873
0.164428
0.0936337
0.0510894
0.0273479
0.0152589
0.412952
0.56706
0.560064
0.489831
0.367084
0.247725
0.154424
0.0908142
0.0509878
0.0279068
0.0159052
0.38771
0.500477
0.495365
0.432667
0.326936
0.223847
0.142564
0.0860865
0.0497067
0.0278908
0.0161163
0.368781
0.448475
0.442637
0.384774
0.291651
0.201445
0.130329
0.0804395
0.0476451
0.0274624
0.0165325
0.354045
0.407049
0.399834
0.345808
0.262271
0.182146
0.119246
0.074971
0.0454991
0.0269654
0.0166566
0.342099
0.373112
0.365084
0.31473
0.238763
0.166469
0.109974
0.0701948
0.0434959
0.0263832
0.0165036
0.332208
0.344725
0.336443
0.289708
0.220001
0.153929
0.10245
0.0662013
0.0417076
0.0257477
0.0164885
0.324082
0.32086
0.312456
0.269086
0.204746
0.143825
0.0963916
0.0629618
0.0402397
0.0252461
0.0164586
0.317765
0.300592
0.292438
0.252323
0.19263
0.135951
0.0917337
0.06051
0.0391789
0.0249417
0.0164593
0.313185
0.283315
0.275839
0.2391
0.183498
0.13024
0.0884776
0.0588895
0.038559
0.0248157
0.0165631
0.309918
0.268555
0.261806
0.22848
0.176659
0.126305
0.0864447
0.0580467
0.0383969
0.0249222
0.0167167
0.30824
0.255739
0.249991
0.220263
0.172042
0.124156
0.0856921
0.0580483
0.0387606
0.0253195
0.0170276
0.30793
0.244668
0.239679
0.214026
0.169771
0.124167
0.0865502
0.0590571
0.0397707
0.0260855
0.0175302
0.308716
0.23507
0.230198
0.208575
0.16879
0.125764
0.0889149
0.0613067
0.0416311
0.0274573
0.0184591
0.310821
0.226705
0.221378
0.203721
0.168902
0.128895
0.0928523
0.0648276
0.0444206
0.0295732
0.0198819
0.314697
0.21943
0.212963
0.199123
0.169734
0.133387
0.0984955
0.0699541
0.048502
0.0327169
0.0220503
0.32113
0.213224
0.204613
0.194238
0.170611
0.138767
0.105839
0.0771356
0.0545247
0.0374803
0.0254971
0.331934
0.207529
0.196016
0.188306
0.170453
0.144074
0.114484
0.0866803
0.0633072
0.0448491
0.0311449
0.347016
0.201762
0.186085
0.180792
0.168561
0.148388
0.123689
0.098452
0.0754512
0.0559558
0.0404057
0.360292
0.197761
0.184212
0.176768
0.167075
0.152007
0.132698
0.111483
0.0905067
0.0711991
0.0544712
1.30293
2.25228
1.42542
0.944067
0.585305
0.317518
0.164845
0.0860578
0.0455578
0.0247222
0.0145239
1.21218
1.84267
1.46362
1.0721
0.742166
0.429634
0.229033
0.118646
0.0608681
0.0314904
0.0173472
0.986194
1.43743
1.35646
1.07938
0.801185
0.518066
0.295597
0.159796
0.0821973
0.0413798
0.0219115
0.698599
1.23839
1.24242
1.03921
0.805286
0.559135
0.351256
0.201762
0.107627
0.0548351
0.0294254
0.433661
1.21721
1.17935
1.00115
0.790824
0.572922
0.385582
0.240636
0.134798
0.0709121
0.0387377
0.368714
1.32108
1.18885
0.986543
0.776562
0.574665
0.405188
0.271801
0.162568
0.0889919
0.0502443
0.419198
1.43588
1.24389
0.995793
0.768407
0.571934
0.416016
0.294064
0.189021
0.108706
0.0617547
0.463926
1.54759
1.33625
1.02879
0.767897
0.5677
0.421286
0.309866
0.210849
0.129018
0.0759748
0.492754
1.60377
1.45156
1.08675
0.777385
0.564409
0.423399
0.321183
0.22885
0.147748
0.0909313
0.505186
1.59517
1.56581
1.16682
0.798536
0.564035
0.424171
0.329516
0.243988
0.164932
0.104688
0.504685
1.53444
1.65461
1.26233
0.832784
0.568694
0.425297
0.336118
0.257084
0.180789
0.118194
0.499356
1.46978
1.71027
1.36055
0.877635
0.578585
0.427527
0.341735
0.268677
0.195633
0.131146
0.491985
1.4132
1.72767
1.45004
0.931386
0.594637
0.432001
0.347254
0.279368
0.210042
0.144323
0.48168
1.34742
1.7061
1.52209
0.992165
0.618069
0.440043
0.353678
0.289795
0.224416
0.158537
0.471866
1.27424
1.65851
1.56961
1.05431
0.647971
0.452321
0.361882
0.300597
0.239057
0.174344
0.463255
1.19171
1.59048
1.58674
1.1115
0.683302
0.469816
0.3732
0.312826
0.254769
0.191758
0.451783
1.1065
1.49164
1.568
1.15514
0.721685
0.493434
0.38942
0.32799
0.272494
0.211565
0.437858
1.01583
1.36114
1.50425
1.17363
0.758192
0.523957
0.413226
0.348569
0.293735
0.234472
0.423967
0.92404
1.20445
1.36417
1.16007
0.78864
0.563953
0.449835
0.379494
0.321993
0.262086
0.41232
0.831246
1.03197
1.14905
1.10118
0.821304
0.623018
0.509552
0.429417
0.363031
0.298191
0.4046
0.723708
0.847952
0.929069
0.963413
0.858627
0.694335
0.580033
0.485244
0.404989
0.329966
0.467275
0.756024
0.787852
0.807942
0.795338
0.753989
0.628301
0.521667
0.424195
0.336791
0.255341
0.35741
0.747404
0.811631
0.646488
0.528834
0.420891
0.333071
0.262261
0.204176
0.157456
0.11988
0.37195
0.292802
0.237333
0.20394
0.182036
0.163717
0.145857
0.127312
0.108296
0.0896036
0.0719993
0.376238
0.473491
0.179182
0.0880862
0.0414004
0.0228338
0.016032
0.0133625
0.0121036
0.011369
0.0108319
0.417268
0.59381
0.234229
0.113131
0.0519698
0.0263337
0.016827
0.0133048
0.0117498
0.0108757
0.0102328
0.44405
0.552774
0.269166
0.1371
0.0607433
0.0303949
0.0180379
0.0134873
0.0115682
0.0105418
0.0098175
0.448535
0.501222
0.281216
0.148078
0.0679357
0.0341765
0.0193955
0.0138197
0.0115186
0.0103432
0.00955752
0.433508
0.474017
0.284635
0.152945
0.0739984
0.0374818
0.020784
0.0142669
0.0115814
0.0102615
0.0094473
0.405069
0.462287
0.288329
0.15847
0.0801648
0.0414167
0.0222763
0.0148319
0.011752
0.0102801
0.00943059
0.368107
0.460231
0.29472
0.166176
0.0871235
0.0456766
0.0245265
0.0156266
0.0120285
0.0103851
0.00947959
0.326782
0.46603
0.303935
0.175477
0.0947156
0.0504283
0.0272388
0.0168147
0.012502
0.0105821
0.00959511
0.285672
0.47558
0.317367
0.186884
0.10327
0.0559297
0.0304956
0.0183919
0.0131896
0.0109052
0.00978478
0.247524
0.485583
0.336536
0.201891
0.1137
0.0626621
0.0345375
0.0204796
0.0141607
0.0113697
0.010056
0.213421
0.498135
0.361211
0.220673
0.1262
0.0707114
0.0394763
0.0231707
0.0154882
0.0120189
0.0104217
0.185586
0.516566
0.391678
0.243008
0.140475
0.0798712
0.0452577
0.0265048
0.0172345
0.0129056
0.0109105
0.166758
0.538228
0.429123
0.27041
0.157446
0.0905221
0.0520651
0.0306184
0.0195092
0.0141051
0.011569
0.156998
0.558093
0.473714
0.30517
0.178765
0.103499
0.0602885
0.0357372
0.022478
0.0157338
0.0124624
0.156398
0.582187
0.525748
0.347952
0.205059
0.119135
0.070089
0.0419841
0.0262812
0.0179221
0.0136939
0.16448
0.606683
0.583759
0.401151
0.238697
0.138838
0.0821847
0.0497378
0.0311771
0.0208724
0.0154038
0.177855
0.623047
0.642073
0.466788
0.283483
0.16526
0.0980534
0.0597894
0.0376377
0.0249149
0.0178323
0.188278
0.626021
0.690811
0.542523
0.342368
0.201479
0.119773
0.0733897
0.0464278
0.0305695
0.0213652
0.194673
0.614338
0.718824
0.620146
0.417357
0.252159
0.151166
0.0930732
0.0591352
0.0388613
0.0266974
0.196031
0.587024
0.715392
0.681497
0.504473
0.322533
0.198637
0.123819
0.079127
0.0519843
0.0352913
0.191613
0.533021
0.672405
0.70446
0.590214
0.416374
0.272492
0.175427
0.113778
0.0750368
0.0505728
0.204218
0.48349
0.612656
0.695787
0.65747
0.528274
0.382716
0.263302
0.17758
0.119586
0.0810247
0.190359
0.402098
0.479071
0.5446
0.564347
0.531777
0.454898
0.358181
0.266857
0.193339
0.137318
0.243871
0.493823
0.495718
0.526438
0.532149
0.509908
0.462515
0.393634
0.320548
0.253854
0.195384
0.303633
0.320667
0.152764
0.0691885
0.0353285
0.0215288
0.0160982
0.0137961
0.0126699
0.0120157
0.0115473
0.252232
0.258757
0.131251
0.0734001
0.0392054
0.0238127
0.0174442
0.0147589
0.0135263
0.0128935
0.0125175
0.269079
0.27591
0.131232
0.086759
0.0483771
0.0290778
0.0200181
0.0161907
0.0145581
0.0138456
0.013536
0.283344
0.26476
0.125975
0.0919037
0.0543907
0.0341354
0.0233668
0.0183187
0.0160322
0.015022
0.0146431
0.292901
0.235767
0.122404
0.0931971
0.0559824
0.0358338
0.0245617
0.0192566
0.0168886
0.0159154
0.0156479
0.299067
0.208811
0.118624
0.0907884
0.0552822
0.0363569
0.0252045
0.0198994
0.0175194
0.0166173
0.0165256
0.303353
0.187846
0.114739
0.0871672
0.0538051
0.0363654
0.0255077
0.0203409
0.01799
0.0171153
0.0170814
0.305889
0.171859
0.110857
0.0835068
0.0524092
0.0361987
0.0256738
0.0206815
0.0183474
0.0174514
0.0173753
0.308018
0.15968
0.107523
0.0805844
0.051555
0.0360533
0.0258682
0.0210085
0.0186859
0.0177761
0.0176863
0.310512
0.150721
0.104881
0.0784168
0.0512933
0.0361154
0.0261735
0.0213651
0.01903
0.0181067
0.0180034
0.313834
0.144335
0.103154
0.0772916
0.0515956
0.0365064
0.0266445
0.0217822
0.0193881
0.018428
0.0182705
0.317845
0.139591
0.101985
0.0769921
0.0523998
0.0372476
0.0273065
0.0222844
0.0197731
0.0187533
0.0185837
0.322981
0.136195
0.101429
0.0774831
0.0537719
0.0384072
0.0282165
0.0229105
0.0202041
0.0190825
0.018917
0.327266
0.1354
0.101553
0.0787126
0.0559009
0.0401603
0.0295416
0.0237642
0.0207407
0.0194327
0.0192115
0.330692
0.135837
0.101944
0.080235
0.0586235
0.0425367
0.0314449
0.0250139
0.0215237
0.0199059
0.019522
0.33343
0.137511
0.10266
0.0820389
0.0618703
0.0456277
0.034044
0.0268213
0.0226895
0.0206043
0.0199148
0.335609
0.140606
0.10383
0.0841268
0.065583
0.0495158
0.0374901
0.0294035
0.0244515
0.0217076
0.0205256
0.337307
0.144922
0.105545
0.0864616
0.0696366
0.054194
0.0419217
0.0330142
0.0271117
0.0235116
0.0216184
0.338634
0.150423
0.107986
0.0890554
0.0738977
0.0595698
0.0474267
0.0379177
0.0310626
0.02646
0.0236428
0.339775
0.157199
0.111484
0.092024
0.0782513
0.0654274
0.0539514
0.0442945
0.0367203
0.0311382
0.0272821
0.34102
0.165231
0.116371
0.0956038
0.0826145
0.0713921
0.0611352
0.0519993
0.0442709
0.0380652
0.0333356
0.343095
0.173974
0.12278
0.10008
0.0869465
0.0768991
0.0680875
0.0601107
0.0530228
0.0469448
0.0419554
0.346493
0.184474
0.13141
0.106059
0.0914943
0.0814423
0.073465
0.0666788
0.0607853
0.0556917
0.0513484
0.36467
0.197542
0.153809
0.132393
0.119575
0.110068
0.102177
0.0986887
0.0980329
0.0987802
0.0991614
0.537469
0.941539
0.893245
0.821426
0.68156
0.489923
0.327222
0.219444
0.152596
0.10838
0.0795233
0.441766
0.690291
0.756639
0.744924
0.667055
0.521802
0.358643
0.224062
0.145284
0.0990011
0.070656
0.301704
0.507209
0.618348
0.648478
0.616375
0.518536
0.379825
0.243182
0.149316
0.0933057
0.0629522
0.169473
0.406042
0.509132
0.556171
0.55246
0.491108
0.382154
0.256913
0.157012
0.0935872
0.0586667
0.0990469
0.353876
0.434229
0.479011
0.488228
0.451355
0.368978
0.261033
0.1633
0.0955935
0.0564772
0.0824791
0.303027
0.378148
0.415884
0.428575
0.406619
0.345226
0.255419
0.16523
0.0971309
0.0553526
0.0759961
0.238956
0.326734
0.36163
0.374306
0.360857
0.314928
0.241554
0.161551
0.0964716
0.0541578
0.0657659
0.187603
0.267706
0.311318
0.324677
0.31608
0.281182
0.221611
0.152484
0.0928462
0.0520495
0.056523
0.149215
0.21371
0.259921
0.278692
0.273363
0.246448
0.198069
0.139369
0.0865192
0.0488823
0.0487015
0.119895
0.170476
0.211577
0.235134
0.233416
0.212603
0.173288
0.124098
0.0785
0.0450479
0.0421686
0.0975736
0.137166
0.170906
0.195045
0.196936
0.181055
0.149228
0.108565
0.0700896
0.0410888
0.0371892
0.0811277
0.112534
0.139128
0.160909
0.164996
0.153197
0.127694
0.0945377
0.0625465
0.0377324
0.033296
0.068994
0.0949082
0.115703
0.133943
0.138806
0.130396
0.110299
0.0834988
0.0569014
0.0354798
0.030263
0.0599096
0.0826722
0.0991627
0.11378
0.118941
0.113371
0.0978624
0.0761578
0.0536257
0.0345116
0.0282431
0.0534915
0.0742624
0.0877396
0.0997891
0.105099
0.101923
0.090234
0.0724517
0.0527612
0.0350116
0.0265857
0.049
0.0685511
0.0802118
0.0907467
0.0963858
0.0953707
0.0869053
0.0721143
0.0542346
0.0369612
0.0250137
0.0457624
0.0646431
0.0753725
0.0853609
0.0919021
0.0932396
0.0877344
0.0752387
0.0582574
0.0405021
0.0234425
0.0435522
0.0619439
0.0723498
0.0829409
0.0916498
0.0962186
0.0938075
0.0829939
0.065845
0.046483
0.0218743
0.0421454
0.059843
0.0707876
0.0841067
0.0974351
0.107082
0.108055
0.0978836
0.0788757
0.0559428
0.0202129
0.0412454
0.0588445
0.0730324
0.0930665
0.114789
0.130901
0.134644
0.123166
0.099642
0.0707291
0.0224498
0.0513179
0.0645714
0.0803548
0.110859
0.140425
0.15873
0.164675
0.154786
0.127345
0.0912287
0.0363373
0.0577219
0.070323
0.111921
0.151091
0.179644
0.197341
0.202213
0.191986
0.16303
0.118024
0.0388409
0.0973763
0.138139
0.180588
0.213511
0.232511
0.237327
0.231627
0.219359
0.196135
0.153091
0.160279
0.204626
0.248912
0.276016
0.285038
0.276922
0.257381
0.234778
0.216263
0.200851
0.173357
0.575899
0.945972
0.933352
0.82535
0.661448
0.48486
0.339007
0.238069
0.170657
0.122957
0.0897793
0.356333
0.634219
0.764701
0.781592
0.698184
0.552958
0.403056
0.286993
0.206166
0.147462
0.104469
0.16273
0.373182
0.554002
0.676096
0.699872
0.61905
0.481007
0.350938
0.254351
0.18242
0.127952
0.0748493
0.183949
0.337562
0.500343
0.617244
0.633256
0.545478
0.419134
0.311653
0.226883
0.158599
0.0678509
0.123793
0.206987
0.333365
0.474535
0.571179
0.564054
0.472944
0.371122
0.282286
0.204962
0.0711391
0.122508
0.176306
0.250788
0.357242
0.472981
0.526402
0.478295
0.391859
0.318708
0.248823
0.0753096
0.127933
0.174017
0.229037
0.30421
0.400135
0.479407
0.46912
0.386606
0.323197
0.273477
0.0799039
0.134826
0.177307
0.223042
0.281345
0.360404
0.442219
0.465067
0.390577
0.315647
0.279846
0.0847101
0.142656
0.183158
0.222202
0.267776
0.332079
0.409876
0.452828
0.402823
0.30996
0.27456
0.0895584
0.151242
0.190562
0.223663
0.258355
0.308437
0.377644
0.432895
0.408723
0.315027
0.259605
0.0944322
0.160399
0.198815
0.226026
0.251519
0.287996
0.345061
0.405467
0.405662
0.322827
0.247871
0.0994896
0.170108
0.20811
0.229415
0.247034
0.271122
0.314115
0.373048
0.393267
0.32777
0.241797
0.104808
0.179679
0.217155
0.233989
0.244324
0.257773
0.286272
0.336652
0.373029
0.327778
0.239931
0.110831
0.189548
0.226577
0.239101
0.242786
0.248119
0.265514
0.300827
0.34103
0.321449
0.238224
0.116834
0.200102
0.236759
0.244876
0.241726
0.239229
0.247419
0.270434
0.3019
0.302936
0.240486
0.123146
0.212047
0.248797
0.252418
0.241867
0.230886
0.230002
0.24369
0.266054
0.274339
0.243364
0.130036
0.226332
0.264073
0.263517
0.245148
0.225161
0.216004
0.221919
0.236651
0.245698
0.233092
0.137719
0.24428
0.284912
0.281484
0.255201
0.224591
0.206293
0.205093
0.21351
0.221189
0.218861
0.146476
0.267673
0.314801
0.311402
0.276059
0.232369
0.203338
0.193178
0.194509
0.198528
0.198486
0.155067
0.296018
0.351942
0.3483
0.305898
0.251588
0.210191
0.18928
0.182303
0.180382
0.176967
0.15789
0.319388
0.380577
0.381907
0.338528
0.276424
0.224369
0.194264
0.181037
0.175889
0.172682
0.160861
0.330472
0.396522
0.400389
0.358391
0.29478
0.238191
0.2029
0.186255
0.180704
0.182151
0.170244
0.336195
0.387906
0.390187
0.353466
0.298025
0.245993
0.21065
0.192266
0.185236
0.184675
0.234756
0.33614
0.358714
0.349211
0.321621
0.283591
0.245465
0.215552
0.197391
0.188854
0.178386
0.107815
0.117486
0.125047
0.124125
0.124646
0.12287
0.116853
0.107117
0.0936221
0.158888
0.180184
0.201589
0.209695
0.196249
0.180848
0.160931
0.136587
0.109851
0.153554
0.174848
0.200147
0.211828
0.199472
0.181602
0.15935
0.139438
0.120407
0.136239
0.152409
0.174186
0.18569
0.174688
0.160495
0.142981
0.126285
0.111599
0.0951094
0.078182
0.0547373
0.021934
0.0163676
0.0149475
0.0121103
0.0379502
0.0724515
0.131753
0.102251
0.0736933
0.0502835
0.026183
0.024743
0.0337524
0.0564963
0.0826129
0.136795
0.117474
0.0905524
0.0612807
0.0327866
0.0309336
0.0415158
0.0677731
0.0964041
0.123906
0.109857
0.0912956
0.0665025
0.0398228
0.0376943
0.0468201
0.071155
0.0945552
0.0044274
0.00460092
0.0046163
0.00211539
0.0467229
0.0043901
0.0115501
0.0045395
0.00438324
0.00424419
0.0465516
0.00455024
0.00371585
0.00329462
0.00448378
0.00430232
0.00330984
0.00209895
0.00429137
0.00424727
0.00411844
0.00453365
0.00466651
0.0185455
0.00449409
0.00330596
0.00376659
0.0112031
0.0908413
0.0486957
0.00340324
0.00410691
0.00298964
0.00453414
0.00426391
0.00459208
0.017267
0.00448948
0.0029163
0.00439972
0.00717819
0.00454336
0.00675368
0.0046594
0.0614992
0.0129973
0.00331476
0.020501
0.00429784
0.0043187
0.048936
0.00440458
0.00765326
0.00681411
0.00431607
0.00412489
0.00437574
0.00441058
0.0894918
0.00356991
0.00553803
0.00578363
0.0522595
0.00793593
0.00855062
0.00425818
0.0521435
0.00425238
0.00460167
0.00423302
0.00329719
0.00432281
0.00311749
0.00469661
0.00450652
0.00429164
0.0045876
0.00459639
0.00934397
0.0731614
0.0451217
0.00636176
0.00449563
0.00462559
0.00437545
0.00313685
0.103016
0.00509664
0.00319387
0.0182052
0.00454201
0.00441992
0.00750854
0.00434902
0.0723253
0.0263034
0.00272789
0.00396493
0.00352032
0.00442501
0.00470288
0.0207227
0.00416706
0.00402775
0.00282972
0.00454926
0.0030479
0.00464637
0.00435696
0.00419871
0.00450546
0.00455837
0.00430106
0.00223479
0.00416706
0.00442452
0.0043873
0.00431346
0.00449298
0.00414067
0.00227188
0.00457938
0.00495275
0.00325782
0.0121227
0.00413442
0.059976
0.00304531
0.00322328
0.00354276
0.00445376
0.00357042
0.0203374
0.00429866
0.00461492
0.00454949
0.00429486
0.00430566
0.0498243
0.00447051
0.0070306
0.00412484
0.0240046
0.00402457
0.00437865
0.00327672
0.00446529
0.00425715
0.00432831
0.0042371
0.00426288
0.00441876
0.0035444
0.00457062
0.00224439
0.00376255
0.00378675
0.00379166
0.0032081
0.00435758
0.0036411
0.00428934
0.00431665
0.00443435
0.0533052
0.00584324
0.003638
0.00447058
0.00411995
0.00824457
0.0030837
0.00309715
0.00438386
0.00406028
0.00409688
0.003965
0.00316466
0.00359126
0.0620637
0.00393075
0.00425951
0.00464571
0.00465958
0.013859
0.0044968
0.00382202
0.00423988
0.00429769
0.00458757
0.0125484
0.00418721
0.00341715
0.00427132
0.00680331
0.00460985
0.00439861
0.00435227
0.00358831
0.00362948
0.00467916
0.00317659
0.0043101
0.00407277
0.00350476
0.00462813
0.00516512
0.00432732
0.00321592
0.00434057
0.00433823
0.0212439
0.00439566
0.00401479
0.0042245
0.00448972
0.00415396
0.00450883
0.00376166
0.00425607
0.00316083
0.00290129
0.00217829
0.00278105
0.00417113
0.00321622
0.00441527
0.00974451
0.00561327
0.00395317
0.0228663
0.003897
0.00425559
0.00425529
0.00461557
0.00350502
0.0676411
0.0496539
0.00464635
0.00455599
0.00454366
0.00378652
0.00844428
0.00401886
0.00569155
0.00439232
0.0047748
0.00451625
0.00359876
0.0328492
0.0581966
0.00358523
0.0214545
0.00511085
0.00429503
0.00396131
0.00436325
0.00414552
0.00447547
0.00314505
0.00423437
0.00339301
0.00456526
0.00432572
0.00457214
0.0045038
0.00311287
0.00412816
0.0043003
0.00559393
0.00372456
0.0217797
0.00430792
0.00430298
0.00320235
0.00438575
0.00432686
0.00332027
0.00444474
0.0042841
0.00313462
0.0043724
0.00459809
0.0453278
0.0465637
0.00396089
0.00439336
0.0775613
0.00458588
0.00425474
0.00683898
0.0046161
0.0114805
0.00458463
0.00296685
0.00467819
0.00435029
0.00410287
0.00456199
0.00426286
0.00334832
0.00444551
0.00244778
0.00437118
0.0491265
0.00415582
0.00419496
0.00459698
0.015731
0.00446685
0.00435219
0.00754169
0.00456279
0.00410001
0.00298492
0.00520817
0.00410648
0.00368381
0.00321004
0.00413009
0.00448458
0.00423971
0.0356811
0.00435741
0.00339294
0.00547912
0.00426866
0.00445235
0.00370704
0.00423965
0.0296109
0.00425322
0.0528214
0.00407764
0.00465177
0.00354541
0.0408197
0.00341248
0.00458465
0.00447098
0.00394672
0.00405008
0.0204839
0.00429791
0.00569331
0.0206117
0.0158645
0.00433089
0.00438
0.0145982
0.0642585
0.00870956
0.00392751
0.00374184
0.00417271
0.0039451
0.00468916
0.00293559
0.00399804
0.00466053
0.0366928
0.00386318
0.003334
0.00451641
0.00451167
0.00430978
0.00334868
0.00308663
0.00327333
0.0103783
0.00488299
0.00443842
0.0119088
0.0381437
0.00319956
0.00387837
0.00460729
0.00391795
0.004251
0.00437301
0.00424301
0.037923
0.00438287
0.00317882
0.00442116
0.00340488
0.049901
0.00235565
0.00320136
0.00826824
0.00343779
0.00442849
0.00519826
0.00310324
0.00477244
0.051381
0.00876029
0.00447794
0.00427716
0.00462203
0.00577312
0.00312478
0.00441127
0.00466358
0.00697758
0.00282845
0.00857605
0.00784093
0.00720925
0.00430919
0.0356366
0.0043436
0.00427666
0.00378071
0.0037125
0.00409893
0.00407891
0.00421258
0.0049426
0.00314132
0.00477018
0.0315273
0.0032134
0.0122852
0.00414301
0.00398561
0.00418085
0.00466823
0.00481907
0.00512762
0.00994488
0.00448495
0.00317781
0.00343029
0.0041042
0.00455551
0.00315252
0.0259389
0.0488925
0.0032691
0.00468853
0.00396406
0.101683
0.00214356
0.00239358
0.00422401
0.00439905
0.00357494
0.00356257
0.00433967
0.0040168
0.00443985
0.00461261
0.00449737
0.00412188
0.00444822
0.0108324
0.00309657
0.00319184
0.00492086
0.00458929
0.00433475
0.0622533
0.00320218
0.00395252
0.00431085
0.00816761
0.00764572
0.00545505
0.00546768
0.00425549
0.00393583
0.00308052
0.00421719
0.00546427
0.00426395
0.00458265
0.00431902
0.00557832
0.00361493
0.00424631
0.00445269
0.0041349
0.0165944
0.00471679
0.00464714
0.00330932
0.0310207
0.00404668
0.00332467
0.00433795
0.00346811
0.00439598
0.00425677
0.00441089
0.00338554
0.00327086
0.0042614
0.00339834
0.00400248
0.00428692
0.0037489
0.00369615
0.00453324
0.00453406
0.0370028
0.00380564
0.00285787
0.00425658
0.0183753
0.00461899
0.0372967
0.00435341
0.00346411
0.00516905
0.00474443
0.0492904
0.00515287
0.00338703
0.0044526
0.00360686
0.00411994
0.00459628
0.00442427
0.00456857
0.0042198
0.0365286
0.00451109
0.00435193
0.0124666
0.00443822
0.00946189
0.00421684
0.0128735
0.0033161
0.00322324
0.00467786
0.00447635
0.00463729
0.00640779
0.00366347
0.00450062
0.00449066
0.0032493
0.00461713
0.00215889
0.00460627
0.0393135
0.00424121
0.00404081
0.00295729
0.00333725
0.0140778
0.0393367
0.00416566
0.00412437
0.00431031
0.00460426
0.0031444
0.00338059
0.00423451
0.00354485
0.0271918
0.0235327
0.00449255
0.00431962
0.00459732
0.00358815
0.0521163
0.00422703
0.00453827
0.00437974
0.0467277
0.00429987
0.00306926
0.00328274
0.0087335
0.034636
0.00443407
0.00451386
0.00446353
0.00526744
0.00433675
0.00438032
0.00318713
0.00409832
0.00540003
0.00740602
0.00463908
0.00467384
0.0712033
0.00440896
0.00354525
0.00319924
0.00546168
0.00324912
0.00402441
0.00358793
0.0042153
0.00443982
0.00448643
0.0264009
0.00303025
0.00389805
0.00424912
0.00450116
0.00652566
0.00422859
0.00442061
0.00428396
0.00430266
0.00319581
0.0031085
0.00543131
0.00567699
0.00401929
0.00514168
0.00428836
0.00994871
0.00427803
0.00445312
0.0330346
0.0284804
0.0043839
0.00438869
0.00421284
0.00415408
0.00432908
0.00565107
0.00460744
0.00421639
0.00325105
0.00297131
0.00382179
0.00312361
0.00318352
0.00539415
0.0250279
0.00497734
0.00631189
0.0035419
0.00352089
0.00463225
0.00349191
0.00462086
0.00417816
0.00555732
0.00394425
0.00421213
0.00447174
0.00343881
0.00690975
0.0314027
0.00361345
0.00445276
0.00442654
0.00521805
0.00455009
0.00428768
0.00427356
0.00338213
0.00425836
0.00426558
0.00420408
0.00458988
0.00396239
0.00621858
0.0221001
0.00427689
0.00422247
0.00399075
0.00764766
0.00444034
0.0153477
0.00430635
0.00568555
0.0335837
0.00443243
0.00346096
0.00465878
0.00301193
0.00501238
0.00317198
0.0286017
0.00364903
0.0042758
0.00463609
0.00372331
0.00321215
0.00407077
0.0591885
0.00437148
0.00408422
0.00463219
0.00374759
0.00420399
0.00315781
0.00455251
0.00440975
0.00440234
0.00378402
0.0046258
0.0045623
0.00332385
0.00437331
0.00542012
0.00321842
0.00408367
0.00369264
0.00499476
0.00293274
0.00408401
0.00373858
0.00358462
0.00730724
0.00301447
0.0117802
0.00446806
0.00335848
0.00448857
0.00425036
0.00703524
0.00499231
0.0035076
0.00328947
0.00430296
0.00421615
0.00413257
0.00415526
0.004584
0.0594501
0.00644361
0.0381315
0.0041691
0.00397752
0.00542573
0.00322411
0.00457367
0.00343842
0.00376387
0.00285947
0.00452321
0.00334207
0.0258668
0.00454829
0.00938994
0.00350603
0.00472653
0.00550242
0.0043881
0.00424602
0.00422286
0.00336527
0.00438526
0.00320088
0.0045702
0.00302226
0.00431376
0.00297838
0.00378697
0.0245477
0.00427476
0.00428591
0.022922
0.0137651
0.004464
0.00320203
0.00385479
0.00489539
0.00512498
0.00384412
0.00450482
0.00414242
0.00296808
0.0049632
0.00427931
0.00436739
0.00441682
0.00317396
0.00376424
0.00468979
0.00448266
0.00456559
0.0318673
0.0346612
0.00357666
0.00457221
0.00336596
0.00469811
0.00455497
0.00457817
0.00462669
0.00447959
0.00436008
0.00316493
0.00501614
0.0103574
0.00308502
0.00455988
0.00442886
0.00449479
0.0037691
0.0330283
0.00459574
0.00413434
0.00352544
0.0172592
0.0206866
0.00469519
0.0039205
0.00356528
0.00443266
0.00446351
0.0115505
0.00421804
0.0045607
0.00448049
0.00914092
0.00400319
0.00390573
0.00455547
0.00409632
0.00604773
0.0036865
0.00455932
0.00309579
0.00557387
0.00461067
0.0039107
0.00463945
0.00427261
0.00207332
0.0030153
0.0045673
0.00460024
0.00420211
0.00465932
0.00433121
0.00458747
0.00258846
0.00344526
0.00898775
0.0144263
0.00669121
0.00454281
0.0518788
0.0046689
0.00429931
0.00488308
0.00448459
0.00441583
0.00442232
0.00301837
0.00518357
0.00377413
0.00441282
0.00288765
0.00442316
0.00468813
0.00432351
0.00438399
0.00450153
0.00449404
0.00455786
0.00429875
0.0647295
0.00438328
0.00425512
0.00487914
0.0176696
0.00424944
0.00450512
0.00489722
0.055097
0.00422583
0.00449247
0.00298058
0.00314102
0.00465106
0.00454022
0.00426344
0.00400711
0.00837102
0.00459612
0.0123683
0.00297847
0.0251792
0.00301057
0.00457653
0.00326483
0.0056407
0.00444429
0.00458244
0.00426348
0.00460678
0.00396164
0.0102113
0.00417223
0.0056939
0.049231
0.00494845
0.0039432
0.00558786
0.00466354
0.00455607
0.00314272
0.00281354
0.00329764
0.00440557
0.0290763
0.00430307
0.00327725
0.00430797
0.00313837
0.00312924
0.00324091
0.00354659
0.0042035
0.00452795
0.0467706
0.0042504
0.0643539
0.00435835
0.00303538
0.00434603
0.00420968
0.0567337
0.0043806
0.00460406
0.00352592
0.0095118
0.00772885
0.00358091
0.00329193
0.00332534
0.00411156
0.0339592
0.00451992
0.00440369
0.0652826
0.00439851
0.0054013
0.00449079
0.0152478
0.00302734
0.00668398
0.00460323
0.00342695
0.0046481
0.00441337
0.00420467
0.0024481
0.00424729
0.00445792
0.00429793
0.00457259
0.00475576
0.00457943
0.00450363
0.00418666
0.00850907
0.00361807
0.00399727
0.00460938
0.0087659
0.00300244
0.00459832
0.00467704
0.00408825
0.00633329
0.0502509
0.00397553
0.00339831
0.00410171
0.0043449
0.00307661
0.00450435
0.00422522
0.010054
0.00455366
0.0616125
0.00915077
0.0215686
0.00455271
0.00455151
0.00377206
0.0431803
0.00335538
0.00313645
0.00467575
0.00307081
0.0193716
0.00456023
0.00402855
0.00316262
0.00392206
0.0322162
0.00368884
0.00445326
0.00432246
0.00417179
0.00424285
0.00728845
0.00293302
0.0127692
0.0517779
0.00459792
0.00301625
0.00388686
0.00513611
0.0150984
0.00440846
0.00438907
0.00406569
0.00313101
0.00454448
0.00469629
0.0046787
0.00363538
0.004149
0.00460989
0.0037154
0.00669757
0.00321109
0.00452096
0.00839855
0.00414299
0.00407832
0.00399447
0.00455475
0.00431863
0.00447638
0.0136211
0.00426121
0.003749
0.00400319
0.00347429
0.00450426
0.0041773
0.00450367
0.00437646
0.00337514
0.0120899
0.00737355
0.0559592
0.0103153
0.0347943
0.00419935
0.00449801
0.002485
0.00462763
0.00324927
0.0051698
0.00429451
0.00543728
0.00388635
0.0298275
0.00420399
0.0031978
0.00454967
0.0490349
0.00469644
0.0350966
0.00406817
0.00483122
0.00487511
0.0105207
0.00421549
0.00555713
0.00561762
0.00446188
0.0203319
0.0055862
0.0241671
0.00352821
0.00235104
0.0138022
0.00470181
0.00461207
0.00372579
0.00434471
0.00344376
0.00331686
0.00317644
0.00390592
0.00319251
0.0549238
0.0043737
0.00426323
0.00434323
0.00456981
0.00294414
0.00340604
0.00425042
0.00332198
0.0438145
0.00426856
0.0575907
0.00729215
0.0044841
0.00605678
0.00385174
0.00321704
0.00317934
0.0254496
0.0044246
0.00452707
0.0516132
0.00437121
0.00458651
0.00355673
0.00454332
0.00433193
0.0319019
0.00465154
0.0344593
0.0039793
0.00380234
0.00428427
0.00430401
0.00536306
0.00325601
0.013373
0.00444717
0.00294666
0.00508664
0.00307679
0.00325162
0.00527965
0.00550589
0.00423963
0.00803302
0.0148328
0.00406433
0.00431464
0.00349228
0.00381166
0.00470395
0.00350865
0.0504042
0.00425909
0.00468924
0.00450745
0.00408851
0.00282218
0.00320893
0.00334295
0.0702047
0.00482876
0.00587788
0.00555616
0.00457398
0.0039958
0.00424521
0.00422209
0.0956362
0.00455938
0.0199454
0.0238381
0.00456106
0.00449416
0.00464782
0.0313091
0.0323974
0.0210227
0.00335381
0.00456504
0.00426387
0.00327379
0.0406107
0.00657907
0.00307685
0.0043399
0.00616284
0.00459815
0.00539988
0.00417471
0.0138246
0.0280597
0.00405321
0.0038312
0.00429772
0.00439181
0.0303327
0.00320278
0.00372667
0.00460033
0.00465386
0.0041547
0.04823
0.00313254
0.00298248
0.0078138
0.00483825
0.00437902
0.0136268
0.00533182
0.00461975
0.00304871
0.00362934
0.00412046
0.0550217
0.00453469
0.00442316
0.00426037
0.00533707
0.00310256
0.0043564
0.0051761
0.00461294
0.00455746
0.00468819
0.0033017
0.00443008
0.00733989
0.00426024
0.00455792
0.04955
0.00426059
0.00354257
0.00360874
0.00457481
0.00351961
0.00535384
0.00451944
0.00456229
0.00448026
0.00305042
0.00449642
0.0042698
0.00444794
0.003668
0.00622249
0.00314095
0.00683707
0.00429781
0.00544519
0.00423948
0.00467576
0.00421413
0.00458641
0.00314997
0.0041402
0.00325873
0.00412831
0.00419973
0.0044992
0.00453988
0.031335
0.00546794
0.0161529
0.00468828
0.00300756
0.0630697
0.00319692
0.00299949
0.00439664
0.00548781
0.00401891
0.00607419
0.00319198
0.00523237
0.00382555
0.00303261
0.00450304
0.0679584
0.00309134
0.00414487
0.00407905
0.00399721
0.00361196
0.0027634
0.00428799
0.00306538
0.0554939
0.0449468
0.0044854
0.00425542
0.00363978
0.0124982
0.00401647
0.00454809
0.0041733
0.00462931
0.00446408
0.00516224
0.00440254
0.00465012
0.0131934
0.00236199
0.00431147
0.00442808
0.00439626