/*--------------------------------*- C++ -*----------------------------------*\
| =========                 |                                                 |
| \\      /  F ield         | OpenFOAM: The Open Source CFD Toolbox           |
|  \\    /   O peration     | Version:  3.0.1                                 |
|   \\  /    A nd           | Web:      www.OpenFOAM.org                      |
|    \\/     M anipulation  |                                                 |
\*---------------------------------------------------------------------------*/
FoamFile
{
    version     2.0;
    format      ascii;
    class       volScalarField;
    location    "0.982528";
    object      p;
}
// * * * * * * * * * * * * * * * * * * * * * * * * * * * * * * * * * * * * * //

dimensions      [0 2 -2 0 0 0 0];

internalField   nonuniform List<scalar> 
21246
(
10.8857
5.84868
3.66282
2.871
2.719
2.78251
2.85481
2.86846
2.82247
2.75209
2.7456
21.357
17.3282
13.6213
10.7219
8.59029
7.11662
6.09937
5.35617
4.77334
4.31727
4.01782
19.5267
19.0287
17.0832
14.8578
12.6414
10.6498
8.98364
7.64487
6.58183
5.75387
5.19865
17.2461
17.6002
17.1315
16.0636
14.5218
12.758
11.0246
9.477
8.16876
7.10874
6.33405
15.6005
16.2642
16.1947
15.8004
14.9526
13.7531
12.3439
10.8861
9.50318
8.28499
7.34301
14.1473
14.9093
14.9389
14.9763
14.6421
13.922
12.881
11.6461
10.3506
9.1191
8.10162
12.9164
13.5045
13.6835
13.8429
13.7719
13.4039
12.7234
11.7881
10.697
9.57315
8.57111
11.9934
12.4031
12.5712
12.7492
12.7841
12.6127
12.1887
11.5186
10.6551
9.70322
8.83255
11.2207
11.5395
11.6596
11.8097
11.868
11.785
11.5115
11.0303
10.359
9.5685
8.81119
10.4833
10.7783
10.8764
11.0018
11.0558
11.0066
10.8134
10.4533
9.92527
9.271
8.6157
9.90384
10.1437
10.2067
10.3019
10.3378
10.295
10.1409
9.85411
9.42547
8.88045
8.336
9.52772
9.65759
9.65694
9.70277
9.70385
9.64775
9.50627
9.26087
8.89982
8.43725
7.97229
9.1205
9.19095
9.15708
9.16326
9.12856
9.05043
8.906
8.68108
8.36484
7.96419
7.56623
8.63381
8.69954
8.66097
8.64313
8.58044
8.48066
8.32687
8.11042
7.82324
7.46558
7.11417
8.31366
8.29518
8.20436
8.14343
8.04627
7.92158
7.75445
7.54061
7.27586
6.95693
6.6497
7.92875
7.85476
7.73277
7.6361
7.50564
7.35539
7.17407
6.96165
6.71779
6.43536
6.16848
7.43214
7.34268
7.21431
7.09281
6.93431
6.76179
6.57028
6.36361
6.14425
5.9011
5.67069
6.99108
6.84225
6.67627
6.51395
6.32153
6.12691
5.93077
5.73968
5.55483
5.36051
5.1856
6.51688
6.29611
6.08482
5.87504
5.64734
5.43694
5.25043
5.09257
4.95703
4.81966
4.69584
5.94292
5.64293
5.38762
5.13449
4.88315
4.6792
4.53213
4.43548
4.3671
4.29264
4.2037
5.24335
4.84439
4.54239
4.25859
4.01383
3.86162
3.80057
3.79821
3.81189
3.80397
3.75752
4.38251
3.83764
3.51257
3.23816
3.06595
3.03934
3.11743
3.23136
3.32657
3.37481
3.36797
2.97503
2.60782
2.25265
2.09599
2.12983
2.31888
2.56552
2.78456
2.9362
3.01144
3.00012
3.62174
1.40068
1.37481
1.47359
1.71918
2.05009
2.34487
2.559
2.69264
2.74887
2.70385
-34.7719
-15.2671
-8.0908
-4.42925
-2.19693
-0.816362
0.0681412
0.62037
0.980988
1.21936
1.45736
-50.2292
-32.308
-23.6133
-16.2702
-10.1768
-6.1401
-3.66937
-2.14256
-1.14482
-0.467417
0.0788319
-43.1303
-38.1223
-33.5058
-26.4234
-18.8583
-12.7768
-8.46568
-5.55805
-3.64935
-2.34357
-1.38431
-34.7643
-35.4921
-34.5083
-30.4416
-24.5126
-18.3714
-13.1384
-9.16253
-6.33502
-4.35754
-2.89663
-30.1417
-31.7183
-31.7802
-30.0573
-26.4671
-21.5745
-16.5513
-12.2386
-8.83166
-6.29102
-4.39571
-28.1513
-29.1447
-29.2221
-28.444
-26.3104
-22.7261
-18.4521
-14.3502
-10.8042
-7.9472
-5.74612
-26.8313
-27.5605
-27.5521
-27.0425
-25.5481
-22.8031
-19.2417
-15.5436
-12.1207
-9.17011
-6.80544
-25.3964
-26.0693
-26.1132
-25.786
-24.642
-22.4126
-19.3786
-16.0683
-12.8566
-9.95074
-7.45044
-23.9857
-24.6087
-24.7047
-24.5199
-23.6261
-21.7587
-19.1151
-16.1306
-13.144
-10.3696
-7.88944
-22.6448
-23.2568
-23.3527
-23.2467
-22.5237
-20.9189
-18.5717
-15.854
-13.0742
-10.4392
-8.03033
-21.39
-21.9856
-22.0691
-22.0129
-21.3953
-19.9675
-17.833
-15.3211
-12.7187
-10.2242
-7.90656
-20.2108
-20.7136
-20.8223
-20.7779
-20.2209
-18.9194
-16.941
-14.5854
-12.1278
-9.76399
-7.58915
-19.0567
-19.4525
-19.5846
-19.5213
-19.002
-17.7884
-15.92
-13.6778
-11.3336
-9.08017
-7.0172
-17.9033
-18.2075
-18.3285
-18.248
-17.7536
-16.5911
-14.7895
-12.6201
-10.3594
-8.20777
-6.24823
-16.7585
-16.9642
-17.0513
-16.9483
-16.4511
-15.3225
-13.5458
-11.4164
-9.21487
-7.1579
-5.3233
-15.6125
-15.7219
-15.7564
-15.6169
-15.0928
-13.9652
-12.1931
-10.0611
-7.90194
-5.94151
-4.27044
-14.4468
-14.466
-14.4427
-14.2419
-13.6737
-12.5055
-10.7009
-8.5474
-6.42064
-4.56767
-3.00557
-13.2494
-13.1793
-13.0919
-12.8135
-12.1664
-10.9203
-9.03833
-6.85658
-4.7815
-3.08865
-1.6888
-12.01
-11.8351
-11.67
-11.3083
-10.5275
-9.16235
-7.18113
-4.99262
-3.02883
-1.55748
-0.352439
-10.7038
-10.4032
-10.1435
-9.66835
-8.72954
-7.18227
-5.12962
-3.00085
-1.24481
-0.0432078
0.840742
-9.1751
-8.83605
-8.50006
-7.86999
-6.70861
-4.98507
-2.93511
-0.950793
0.493815
1.34461
1.89264
-6.81894
-6.80301
-6.72424
-5.92069
-4.50305
-2.80382
-0.997346
0.660441
1.6403
2.11947
2.47678
-6.37851
-7.53839
-6.47177
-4.94994
-2.96517
-0.935194
0.689502
1.7386
2.23963
2.49482
2.70203
-11.5508
-4.57135
-2.22841
-0.837818
0.464612
1.42079
2.01466
2.34234
2.50027
2.56584
2.49798
-0.533726
3.82364
4.50184
4.34508
3.77796
3.14691
2.55856
2.0401
1.58608
1.21174
1.03123
-24.6898
-11.1632
-6.59848
-2.88998
-0.842701
0.0954833
0.433438
0.48606
0.409975
0.283045
0.228722
-29.2056
-20.1966
-16.453
-10.9257
-6.87539
-4.14247
-2.49735
-1.57109
-1.07039
-0.796409
-0.592506
-25.5176
-22.1122
-20.4262
-15.6986
-11.7375
-8.26247
-5.67034
-3.90813
-2.77182
-2.04036
-1.51641
-20.9678
-20.0841
-19.6876
-16.7816
-14.0179
-10.8916
-8.16042
-5.99582
-4.41317
-3.29938
-2.48768
-17.4563
-17.31
-17.2896
-15.7139
-14.0867
-11.7676
-9.4786
-7.39136
-5.67855
-4.3609
-3.3543
-14.7197
-14.8226
-14.8498
-13.9673
-13.0265
-11.4333
-9.73082
-7.98917
-6.40538
-5.07165
-3.97789
-12.4206
-12.6656
-12.6875
-12.1793
-11.6125
-10.5248
-9.30384
-7.94654
-6.61518
-5.40688
-4.36817
-10.6231
-10.8086
-10.8213
-10.5363
-10.182
-9.42987
-8.55248
-7.51393
-6.43763
-5.39929
-4.45887
-9.25919
-9.32436
-9.3101
-9.13119
-8.88325
-8.34414
-7.69729
-6.89662
-6.03242
-5.15821
-4.32833
-8.12191
-8.10648
-8.08456
-7.95296
-7.75699
-7.34972
-6.85163
-6.21974
-5.51877
-4.78754
-4.0912
-7.18609
-7.0873
-7.0428
-6.94319
-6.78356
-6.463
-6.06139
-5.54601
-4.96412
-4.3393
-3.72335
-6.48466
-6.29056
-6.22592
-6.12369
-5.97158
-5.69617
-5.34873
-4.90729
-4.40793
-3.86703
-3.32532
-5.95863
-5.69431
-5.61115
-5.49189
-5.32055
-5.05338
-4.7232
-4.31921
-3.87159
-3.3962
-2.93649
-5.52046
-5.20243
-5.09739
-4.95156
-4.76325
-4.49475
-4.16502
-3.77551
-3.35636
-2.9235
-2.50372
-5.14255
-4.79067
-4.66057
-4.48543
-4.27531
-3.99482
-3.65282
-3.26134
-2.85474
-2.45416
-2.08333
-4.81026
-4.43367
-4.28145
-4.07914
-3.84201
-3.5387
-3.17104
-2.76301
-2.35847
-1.98592
-1.6596
-4.48747
-4.10085
-3.92391
-3.69526
-3.42994
-3.0975
-2.69454
-2.26142
-1.856
-1.51337
-1.23466
-4.16113
-3.77279
-3.57653
-3.32632
-3.02764
-2.65248
-2.19977
-1.73863
-1.33933
-1.03752
-0.826896
-3.83749
-3.45339
-3.24371
-2.97062
-2.62199
-2.17667
-1.66476
-1.18277
-0.810393
-0.564902
-0.415419
-3.50351
-3.1423
-2.91965
-2.60531
-2.17287
-1.63123
-1.06765
-0.599433
-0.289745
-0.112609
-0.00751813
-3.08927
-2.82979
-2.56592
-2.15876
-1.60236
-0.97596
-0.420134
-0.0402671
0.169625
0.259002
0.326241
-2.9579
-2.63257
-2.1896
-1.59049
-0.91572
-0.294572
0.152047
0.385456
0.499758
0.576427
0.792705
-2.31026
-1.4076
-0.827369
-0.269065
0.1846
0.468808
0.560671
0.538448
0.49592
0.468233
0.551128
23.3997
16.751
12.2113
9.1307
6.93865
5.37953
4.22042
3.31508
2.58242
2.00964
1.65326
17.8797
17.9613
15.7275
12.7871
10.0132
7.74635
5.98053
4.60922
3.53286
2.70812
2.20608
11.2295
13.5942
13.5598
12.8251
11.087
9.01828
7.09932
5.48941
4.20856
3.2358
2.60299
5.41618
8.85684
9.81879
10.4418
10.0087
8.82527
7.37554
5.93726
4.65684
3.63206
2.94518
1.38172
4.56432
5.69394
7.17684
7.74633
7.55413
6.81119
5.79816
4.7024
3.75118
3.09914
-1.17531
1.42812
2.30514
4.03834
5.02856
5.55218
5.45607
4.95087
4.25441
3.52832
2.98173
-2.74738
-0.629007
-0.0907242
1.61415
2.59198
3.47915
3.84286
3.80895
3.47736
3.01818
2.63707
-3.65711
-1.91403
-1.71782
-0.0499833
0.686839
1.68578
2.28105
2.56682
2.5544
2.35786
2.14032
-4.34122
-2.77302
-2.83226
-1.31684
-0.649386
0.287468
0.950887
1.41317
1.62711
1.6552
1.61777
-4.90823
-3.60347
-3.4102
-2.32421
-1.65373
-0.782266
-0.112057
0.435075
0.789125
0.97927
1.08644
-5.31523
-4.33504
-3.94128
-3.03045
-2.40113
-1.59213
-0.935052
-0.350555
0.0846855
0.379711
0.598441
-5.54559
-4.72953
-4.34984
-3.53176
-2.94228
-2.18818
-1.55254
-0.955328
-0.474346
-0.110992
0.172348
-5.73327
-4.96697
-4.61782
-3.86602
-3.31222
-2.60231
-1.99043
-1.3945
-0.891478
-0.486391
-0.157312
-5.90768
-5.12417
-4.78041
-4.06658
-3.53758
-2.8613
-2.27094
-1.68376
-1.17474
-0.751258
-0.399924
-5.86236
-5.1377
-4.82848
-4.15008
-3.63981
-2.9905
-2.41639
-1.84101
-1.33517
-0.906712
-0.556097
-5.75908
-5.07127
-4.78273
-4.13436
-3.63377
-3.00734
-2.44327
-1.88097
-1.38398
-0.96003
-0.616833
-5.63944
-4.95615
-4.66388
-4.03491
-3.53065
-2.92086
-2.3615
-1.81341
-1.33094
-0.922011
-0.594563
-5.4317
-4.76096
-4.46199
-3.85036
-3.33247
-2.73333
-2.17627
-1.64569
-1.186
-0.805102
-0.505288
-5.14183
-4.48384
-4.17089
-3.57337
-3.03443
-2.44168
-1.89002
-1.38494
-0.960106
-0.620515
-0.3547
-4.78407
-4.12931
-3.7865
-3.19433
-2.62833
-2.04148
-1.50649
-1.04178
-0.667882
-0.383747
-0.171909
-4.34528
-3.68019
-3.28855
-2.69293
-2.10321
-1.53331
-1.03843
-0.635869
-0.330837
-0.107831
0.0486442
-3.77965
-3.09119
-2.62918
-2.03352
-1.44782
-0.927313
-0.508967
-0.193633
0.0383332
0.197269
0.296001
-3.16361
-2.33751
-1.81352
-1.27085
-0.751238
-0.326382
-0.014037
0.21346
0.376032
0.473171
0.517481
-1.63874
-0.964746
-0.563326
-0.205956
0.113789
0.342795
0.513491
0.674689
0.823121
0.910922
0.820957
-9.57547
-4.94175
-2.92049
-1.81312
-1.01332
-0.493924
-0.187605
0.000177152
0.103267
0.165226
0.243343
-11.2346
-7.68644
-5.87737
-4.32991
-2.91938
-1.88487
-1.20572
-0.772692
-0.506462
-0.33147
-0.194331
-8.15667
-7.60147
-6.96715
-5.86606
-4.52965
-3.30361
-2.33107
-1.63747
-1.1639
-0.845348
-0.615044
-6.69823
-6.7644
-6.58949
-6.05245
-5.2069
-4.20084
-3.2053
-2.38279
-1.75935
-1.32703
-1.00545
-6.05776
-6.08111
-6.00843
-5.74832
-5.24128
-4.50687
-3.67697
-2.88462
-2.23346
-1.71394
-1.32433
-5.62451
-5.58667
-5.5345
-5.37374
-5.04109
-4.51117
-3.83462
-3.1235
-2.48343
-1.95427
-1.53215
-5.20771
-5.1392
-5.09611
-4.97461
-4.73102
-4.32877
-3.78239
-3.16762
-2.57738
-2.06509
-1.63616
-4.81151
-4.71568
-4.66865
-4.55155
-4.35575
-4.03602
-3.59033
-3.06756
-2.54236
-2.06838
-1.6622
-4.45706
-4.33354
-4.26252
-4.13268
-3.95799
-3.68676
-3.31345
-2.86953
-2.41132
-1.98411
-1.60321
-4.14809
-3.99822
-3.90736
-3.76366
-3.58274
-3.33314
-3.00587
-2.62248
-2.22412
-1.84603
-1.50019
-3.89293
-3.71733
-3.61039
-3.44978
-3.25386
-3.01015
-2.70866
-2.3677
-2.01671
-1.68175
-1.37344
-3.68573
-3.48714
-3.3697
-3.19126
-2.98312
-2.73541
-2.4463
-2.13221
-1.81421
-1.5109
-1.2281
-3.51935
-3.30344
-3.18134
-2.98959
-2.77079
-2.51615
-2.23176
-1.93093
-1.63165
-1.34892
-1.09018
-3.38947
-3.16177
-3.03856
-2.83743
-2.61061
-2.35079
-2.06531
-1.76715
-1.47363
-1.19863
-0.945688
-3.28835
-3.05271
-2.92994
-2.7233
-2.49221
-2.22855
-1.9382
-1.63467
-1.33651
-1.06119
-0.813172
-3.21007
-2.97026
-2.84847
-2.64084
-2.40726
-2.139
-1.83964
-1.52353
-1.21265
-0.93101
-0.686809
-3.15297
-2.91312
-2.79282
-2.58736
-2.35136
-2.07569
-1.76115
-1.4242
-1.09362
-0.799971
-0.552288
-3.11487
-2.87978
-2.76354
-2.56289
-2.32415
-2.03609
-1.69696
-1.32929
-0.973079
-0.668236
-0.427648
-3.09536
-2.87218
-2.76381
-2.57199
-2.32916
-2.019
-1.63954
-1.22938
-0.845304
-0.535047
-0.307515
-3.09679
-2.89427
-2.79983
-2.61982
-2.36758
-2.024
-1.60264
-1.1404
-0.714707
-0.399419
-0.196991
-3.1129
-2.95533
-2.8993
-2.74367
-2.50258
-2.12773
-1.63177
-1.11638
-0.64972
-0.304306
-0.113841
-3.14434
-3.14093
-3.14759
-2.98949
-2.63212
-2.16701
-1.65542
-1.15141
-0.698317
-0.338463
-0.116829
-3.39781
-3.70423
-3.28318
-2.91357
-2.49776
-2.0415
-1.59513
-1.17886
-0.800289
-0.478846
-0.237102
-4.76543
-2.89963
-2.73901
-2.4024
-2.06483
-1.75837
-1.47555
-1.20406
-0.935723
-0.677874
-0.441905
1.67215
0.436181
-0.00220955
0.0345469
0.243967
0.455579
0.589774
0.642117
0.636513
0.617581
0.640333
4.6527
3.74963
2.8067
2.1634
1.81267
1.62815
1.49153
1.34423
1.18239
1.04502
1.00641
4.47232
4.34805
3.95662
3.46182
3.01498
2.65156
2.33267
2.01721
1.7013
1.42855
1.30571
3.91098
3.95011
3.90484
3.72931
3.47539
3.18969
2.87146
2.50267
2.09777
1.72589
1.54851
3.3818
3.4023
3.42357
3.39373
3.30668
3.16887
2.96429
2.66063
2.26686
1.85871
1.60653
2.87454
2.85415
2.86143
2.84491
2.8063
2.7452
2.65375
2.49798
2.22619
1.86772
1.59759
2.39025
2.31904
2.29723
2.25088
2.19609
2.14255
2.10087
2.04953
1.9138
1.66378
1.44362
1.92609
1.80028
1.74472
1.65076
1.54784
1.44793
1.37454
1.34121
1.31021
1.19211
1.05884
1.48459
1.30046
1.213
1.06223
0.899157
0.729843
0.57702
0.484723
0.48454
0.496422
0.474514
1.07537
0.817482
0.714227
0.498479
0.271094
0.0240771
-0.220121
-0.409275
-0.470406
-0.386917
-0.246424
0.694521
0.361489
0.264691
-0.0271342
-0.316332
-0.641928
-0.980451
-1.27534
-1.43501
-1.37611
-1.1138
0.34128
-0.0190103
-0.175855
-0.497365
-0.844161
-1.24256
-1.66928
-2.06896
-2.33586
-2.34152
-2.07331
0.0241616
-0.353362
-0.563805
-0.905345
-1.30351
-1.76042
-2.25844
-2.74593
-3.11419
-3.19042
-2.9042
-0.245608
-0.631817
-0.882336
-1.24363
-1.67645
-2.17602
-2.72557
-3.27454
-3.70788
-3.84959
-3.61992
-0.462755
-0.846041
-1.12075
-1.49265
-1.94284
-2.46477
-3.04317
-3.62608
-4.0955
-4.28329
-4.103
-0.620484
-0.986675
-1.27157
-1.64119
-2.09028
-2.61247
-3.19077
-3.77402
-4.25076
-4.46763
-4.35422
-0.710437
-1.04547
-1.32671
-1.68002
-2.10897
-2.61059
-3.16502
-3.71604
-4.1625
-4.37354
-4.25739
-0.727334
-1.01918
-1.28334
-1.60718
-2.00004
-2.46184
-2.97038
-3.46813
-3.86359
-4.05225
-3.97765
-0.673898
-0.915807
-1.15282
-1.43733
-1.78322
-2.19112
-2.63994
-3.07336
-3.4048
-3.5414
-3.43483
-0.565139
-0.754888
-0.956159
-1.19842
-1.49745
-1.85584
-2.24211
-2.59762
-2.84573
-2.90195
-2.70512
-0.410129
-0.548678
-0.722792
-0.947918
-1.23307
-1.55678
-1.8727
-2.12992
-2.27422
-2.24672
-2.00273
-0.222589
-0.350479
-0.540122
-0.810046
-1.11596
-1.40039
-1.62038
-1.75507
-1.78758
-1.68222
-1.39054
-0.168425
-0.276342
-0.590863
-0.948403
-1.24378
-1.42425
-1.4993
-1.49564
-1.42268
-1.26288
-0.980312
0.240262
-0.547211
-1.05568
-1.37465
-1.50002
-1.49316
-1.41327
-1.29307
-1.14017
-0.950901
-0.723396
-1.05769
-0.00781388
0.794451
1.2291
1.32203
0.704858
-0.329437
-1.20873
-1.4962
-0.688905
0.0586932
0.681531
1.05509
1.13047
0.640007
-0.157867
-0.747085
-1.02843
-0.628605
0.0517012
0.561951
0.886637
0.958115
0.553134
-0.124533
-0.742163
-0.923089
-0.511296
0.0451119
0.464856
0.740171
0.790014
0.459369
-0.0947339
-0.480588
-0.729332
-1.71794
-1.61892
-0.946277
-0.493252
-0.375675
-0.387604
-0.467415
-0.680486
-1.21787
-1.16265
-1.1448
-0.705679
-0.484264
-0.386764
-0.389843
-0.451262
-0.55522
-0.850324
-1.06085
-1.03794
-0.655653
-0.44224
-0.370686
-0.373734
-0.417637
-0.514027
-0.768744
-0.838313
-0.846934
-0.566069
-0.377051
-0.341049
-0.333262
-0.363197
-0.452533
-0.64057
2.34248
2.86618
2.87518
-0.155141
-0.217605
3.10408
-0.285252
2.67966
3.10439
2.37907
-0.235779
2.6836
-0.191601
-0.0637454
2.33333
1.79724
-0.0459062
-0.152377
1.79866
2.35962
1.36434
-0.412885
2.18817
-0.114885
2.87958
-0.0635624
-0.186729
-0.29033
-1.06384
-0.197105
-0.0469061
0.849933
-0.0332294
2.05587
0.772248
2.89155
-0.108907
2.89414
-0.0337341
2.75328
-1.11921
2.06696
-0.0751873
2.20012
-0.282673
-0.289117
-0.128772
-0.227372
1.33025
2.84949
-0.20454
2.75683
-0.00439617
-0.0717564
2.81136
1.37636
-0.425486
2.70171
-1.08432
-0.0584713
-0.779953
-0.00437733
-0.238748
-0.210534
-0.846529
2.35839
-0.173005
3.26745
2.888
2.38897
-0.077784
3.23376
-0.181381
4.02917
-0.0975987
3.26523
-0.436364
2.10689
-0.261647
-0.259949
-0.0952175
-0.211547
2.44818
2.47361
-0.109979
-0.175475
-0.851372
-0.00392033
-0.287683
-0.0596337
2.94385
2.68055
-0.93434
4.25591
-0.341051
-0.232208
-0.0908207
-0.0611434
-0.261435
3.38187
-0.0166164
-0.244983
2.21775
0.273444
-0.236841
2.94864
-0.00602201
2.45026
-0.0235476
0.76014
2.24147
2.05815
3.60955
-0.181539
-0.101265
2.41651
2.70032
1.9872
2.77161
2.03009
-0.189276
3.71993
0.184389
-0.0527775
-0.324595
-0.100484
-0.0107296
-0.0060321
-0.00360167
-0.017953
2.4367
-0.0581803
-0.234501
3.22918
2.91837
-0.215588
-0.420476
-0.209643
-0.144518
1.45759
-0.0478016
1.18811
-0.287421
1.54677
2.66613
-0.214243
-0.286324
3.1962
2.6235
2.05158
2.30209
3.07969
-0.210246
3.81443
-0.171936
-0.0790276
-0.155474
-0.329183
-0.0479612
2.57704
-0.0440866
-0.255155
3.26916
2.62354
-0.141567
-0.0691798
-0.280531
1.13446
-0.0968732
-0.811971
-0.0327785
-0.0160023
-0.105261
1.12449
0.914372
0.926328
-0.0024774
-0.221962
-0.325376
1.01795
3.05727
-0.434364
2.89765
-0.182908
2.94502
-0.18873
2.31905
1.94578
2.72797
-0.25607
-0.0269468
-0.0930287
2.26198
-1.05309
2.89292
2.76026
3.26896
-0.270616
-0.0188998
2.4247
-0.238583
3.0638
-0.0531202
-0.062082
2.9117
0.000273296
4.23387
-0.00152182
2.96039
2.31949
-0.0739679
1.92447
0.967735
0.944751
2.11947
-0.0397059
2.97721
-0.106741
2.47818
-0.147198
-0.0151936
-0.182302
-0.0933573
-0.10931
-0.0455542
2.59394
-0.155241
-0.0562153
-0.0220939
-0.227877
-0.30459
2.22891
2.32818
3.47615
-0.208823
-0.253026
-0.129383
2.89661
2.46068
2.47355
-0.0776055
-0.166046
0.225216
-0.918985
4.56386
-0.284051
2.03562
-0.0831972
-0.225038
-0.0533978
-0.0794305
-0.0836551
0.45088
2.59025
0.281011
3.22698
1.4861
2.90477
-0.228668
2.2916
-0.00260407
-0.249554
2.28971
2.15795
2.22191
-0.135328
1.13634
3.59179
0.0405279
0.101581
-0.182247
2.43334
3.14858
-0.132544
3.11512
1.98431
-0.0649863
3.06534
1.52647
-0.246855
3.27927
2.78697
-0.0920388
-0.0971786
0.342129
2.98379
-0.552337
2.54581
1.36423
-0.0690735
2.39831
-0.284934
0.900334
-0.0665179
2.87338
2.9293
-0.090354
2.22244
0.873614
-0.0754137
2.91551
-0.210487
1.16667
-0.185545
1.53243
0.707226
2.14398
0.0167601
-0.43526
2.31937
-0.330445
2.94161
0.65299
-0.0217676
-0.474089
1.63389
-0.157308
-0.245459
1.94188
4.4916
2.21431
-0.00450553
1.93837
-0.0893721
-0.231686
1.22072
2.04872
-0.149081
2.20458
-0.0409878
2.94763
-0.235495
-0.407364
2.87871
-0.177583
-0.225872
-0.170865
2.15796
3.0291
-0.0456263
-0.323605
-0.0506903
3.10789
-0.081764
-0.193851
0.00792839
-0.0758596
2.00541
-0.126376
-0.0168829
-0.312974
-0.0501419
0.133212
1.58919
-0.0320938
2.42275
-0.0125119
1.36907
2.16998
-0.0529116
0.117197
-0.0734656
2.96713
2.44331
3.35237
-0.282654
-0.0159563
-0.085384
-0.293312
0.367567
3.06332
-0.188838
-0.234828
-0.0333412
-0.0530726
2.3812
0.335153
0.741595
3.00385
2.05936
-0.0633073
2.80567
-0.223092
2.54574
-0.0908215
-0.0865005
-0.19729
-0.0437767
-0.162011
-0.297931
3.05697
-0.346379
-0.0170658
2.71741
-0.0895139
-0.904112
2.12669
2.13196
2.76788
-0.0934153
-0.232677
2.40915
2.8743
-0.0405821
-0.0024196
-1.50995
-0.280889
-0.0187348
3.01762
-0.00040916
1.3592
1.77456
-0.0527761
-0.0497302
-0.198537
0.573963
-0.0304146
3.86519
-0.0122793
-0.329143
-0.176459
-0.012585
-0.27926
-0.00675519
0.871594
0.831799
3.94915
-0.00990252
-0.175857
-0.633268
2.01629
-0.262627
-0.102507
1.84421
-0.102429
-0.0363028
-0.149387
-0.163681
-0.0554203
1.98902
0.0704963
-0.676754
-0.12126
-0.201968
1.6455
-0.0789492
-0.0361322
-0.381969
2.69225
-0.278909
3.03609
2.47451
2.99444
-0.316415
-0.308857
-0.292889
-0.0323125
-0.292925
-0.00281469
2.6314
2.72165
-0.0201514
-0.0340374
0.248917
1.50599
-0.00620056
-0.00162064
2.41031
1.9412
2.98769
0.888273
-0.214014
1.94451
-0.841945
1.53994
2.40759
2.40539
2.33134
-0.263131
2.29719
2.53495
1.41103
-0.20751
-0.425206
2.16293
-0.203104
-0.213391
1.61294
-0.044097
2.4632
-0.252956
2.79373
1.6078
2.57279
-0.00244523
-0.0483029
2.2787
-0.101588
0.867152
3.54154
-0.141826
-0.146836
2.89911
2.51431
-0.220757
-0.0124972
-0.188875
2.82496
-0.251386
1.98377
-0.135999
-0.0446375
-0.306919
-0.0671093
-0.0414648
-0.117284
-0.0807847
-0.0975163
2.00498
-0.0212697
1.88669
2.79669
3.06496
2.39067
1.36103
-0.0842446
2.68626
2.48638
-0.136402
2.93366
-0.410874
0.06841
-0.00566334
-0.0760051
-0.293282
2.80267
2.98532
2.77691
-0.968919
-0.25747
2.03252
2.65263
-0.0504218
2.87818
-0.118658
2.88296
-0.0251118
1.51162
-0.380779
-0.0403314
-0.0122928
-0.244314
-0.129418
1.54984
1.08837
2.56311
2.34527
-0.0433344
-0.371461
2.15526
-0.0500876
-0.1974
-0.211068
2.91953
3.45559
2.92254
-0.0388895
-0.11273
-0.0111868
2.92532
2.49711
-0.0982427
3.85697
-0.0630246
-0.00923606
-0.0291698
-0.209198
2.22443
-0.00849785
2.98979
-0.0790257
3.41054
-0.0935045
-0.00301648
1.00509
-0.476151
-0.0807559
2.66177
2.0987
-0.351691
2.59772
-0.0492854
-0.175098
-0.108486
-0.0588356
-0.303316
-0.159569
2.53612
2.77001
2.94683
-0.243725
-0.121974
-0.0557625
2.32233
2.92052
-0.283186
2.24516
4.64081
1.38454
2.92571
-0.0988924
-0.0890443
-0.116028
0.0623057
0.448812
0.485574
2.55519
-0.124274
3.14042
2.90303
-0.233231
-0.0480584
1.90585
2.71135
-0.403162
2.16903
2.66551
0.208941
2.91847
1.15056
-0.152636
-0.0801206
0.203026
-0.0137204
-0.0130084
-0.294733
-0.039293
-0.608103
-0.117854
-0.115797
-0.284575
-0.168276
-0.0568384
1.99094
1.63447
-0.234225
0.492687
1.91144
0.734866
-0.106342
-0.0781587
-0.231097
-0.094961
-0.0322284
2.07509
0.278188
2.84376
2.11935
1.84749
-0.173933
2.78938
2.68639
1.82922
2.33139
-0.169563
-0.0182383
-0.230021
3.09479
2.2968
1.38855
-0.0231739
4.38062
-0.286269
3.50953
-0.118465
3.46444e-05
2.16439
-0.00417843
2.63854
-0.0370226
-0.180091
-0.0941204
-0.248722
-0.0330262
-0.0409308
2.44827
-0.00745688
-0.0372161
-0.326148
0.00318707
1.98089
0.631712
2.46637
0.0997285
1.87716
-0.171864
2.92821
2.86048
2.96168
-0.184792
-0.0886542
2.84897
-0.00452037
3.22473
-0.0474209
-0.0505733
1.04679
-0.177367
-0.766285
-0.0566612
0.267623
-0.122513
-0.16414
-0.109566
-0.0232841
-0.28581
2.00105
-0.10319
2.40084
2.78932
-0.342371
-0.193884
-0.261207
-0.059811
3.77967
1.13794
1.98986
-0.109659
2.64627
0.0093316
-0.0665733
-0.0215268
0.948153
0.277784
-0.0618274
-0.0538484
3.1727
-0.152874
-0.201999
-0.238611
2.27048
-0.0760531
-0.18193
2.92636
-0.370784
-0.0132184
4.66193
-0.114841
2.49969
1.76699
1.81365
-0.0175915
3.22284
-0.0352204
2.93786
-0.0430381
2.87599
-0.0743076
-0.0205378
-0.0452034
-0.0142107
1.91693
-0.145778
-0.261336
2.53639
-0.0342553
0.366811
-0.0271164
0.362607
-0.331412
1.0829
-0.107066
-0.0501656
0.386415
2.06989
-0.132074
2.06727
-0.0777583
-0.41792
2.86547
2.76561
0.0658449
-0.212794
-0.0254706
-0.156342
2.64936
-0.0941166
0.727114
2.03591
2.73678
2.90505
2.39335
4.42849
-0.00772778
-0.345004
-0.180195
-0.0179479
-0.124018
2.90247
2.52166
0.195245
-0.0903446
2.91413
0.0340199
-0.0871716
-0.259377
-0.10886
-0.587588
0.714307
-0.119176
2.88387
2.4319
-0.346358
2.13308
2.67321
0.673418
-0.00546289
0.0237254
0.0858693
2.91623
-0.108293
-0.776376
-0.174375
2.6333
-0.00928623
-0.0740668
-0.0805496
-0.130096
2.54398
2.0463
-0.1504
-0.100773
-0.0478541
2.46857
1.84842
4.68482
3.4466
2.59704
-0.0693453
-0.0866208
-0.395026
-0.270423
-0.0510003
2.88109
-0.220282
2.64032
3.4536
0.148757
2.51053
3.12558
2.745
-0.246406
-0.015274
-0.0859358
3.12388
-0.123406
3.00322
2.90235
3.471
2.74734
0.738323
2.17714
2.94158
3.89451
-0.268942
2.06711
2.45051
-0.180378
-0.29295
2.67671
2.98301
-0.206394
-0.249958
2.31453
-0.181702
-0.0961963
-0.134784
2.3388
2.8637
1.20598
1.47101
-0.0039277
2.52887
-0.137489
-0.0723771
-0.0278013
-0.033637
2.21599
-0.0726901
2.24898
2.17833
3.3562
2.77797
2.11958
-0.0642261
-0.386827
0.188781
-0.10858
-0.0091109
-0.0738917
0.455501
-0.297184
2.10054
2.23731
-0.00748996
-0.0140536
-0.0772846
2.8443
-0.214355
3.60494
-0.157814
2.78324
-0.0095096
-0.0262199
-0.247488
-0.0767301
2.33389
2.87346
-0.0857251
-0.395706
0.00420285
-0.0743739
-0.100787
0.878944
1.59514
-0.0142471
3.21202
2.92296
-0.0484874
-0.578677
-0.196245
-0.368192
-0.0111916
-0.0707364
-0.0390418
-0.0826687
2.50306
0.874419
-0.012287
2.57703
0.443493
3.00889
-0.0795108
-0.0746521
-0.0198243
2.6028
-0.0689287
2.84729
2.73028
-0.0321197
-0.172293
2.22447
3.04541
3.85993
-0.233629
-0.128776
-0.328384
0.389319
2.34667
-1.39519
-0.116121
-0.376828
2.50127
-0.0276559
-0.0389226
2.84874
-0.0122012
1.33887
-0.084027
-0.118387
0.444659
-0.184223
1.57531
3.25688
-0.165215
-0.0541168
2.28676
-0.0245412
2.93491
-0.238141
-0.00119578
-0.200401
2.87476
-0.0114174
-0.177993
-0.180269
-0.0129863
-0.0280289
2.43776
-0.00382247
-0.216128
2.12619
0.917967
-0.0724415
-0.173917
-0.0794151
-0.104112
2.78387
2.73106
-0.289701
1.6612
-0.901595
-0.0649056
-0.00414434
-0.12297
2.60385
-0.156583
-0.259939
-0.016292
-0.0747459
-0.069981
2.90654
-0.109265
-0.0149214
2.61009
1.65481
2.90325
-0.102693
0.990465
2.83963
-0.136453
-0.0357102
-0.0372721
2.25266
-0.315078
-0.233109
1.25565
-0.12319
2.0223
2.32968
1.40084
-0.276287
2.44025
-0.0316727
0.452598
-0.25727
2.17335
1.54292
2.46287
2.48763
-0.194297
-0.111622
-0.0249934
-0.263721
-0.537979
-0.12591
2.35096
0.626302
-0.211403
2.55199
-0.0331062
-0.0170332
1.07788
-0.995339
-0.149802
-0.0969322
1.77646
-0.038144
2.50919
-0.0894226
2.28471
-0.219562
-0.083973
3.75987
-0.335039
-0.0930478
1.34235
-0.118366
-0.0720942
-0.654748
-0.0950271
0.760359
-0.292296
-0.0146664
-0.190017
-0.267148
-0.0892912
2.90911
-0.120881
4.24995
-0.0963244
-0.0710357
-0.18818
0.645127
-0.0927221
-0.261658
2.56616
3.11884
1.21417
2.28052
-0.0654512
-0.0897254
2.74539
-0.0678276
-0.12297
2.68413
-0.170903
-0.309004
-0.203197
-1.17381
-0.434116
-0.1128
-0.0163474
0.00986367
2.6036
2.69992
-0.140877
2.72821
2.92012
-0.10535
2.44027
4.46249
-0.104144
3.2754
-0.23999
-0.0340115
-0.160155
2.6004
-0.107446
-0.0536665
-0.0739155
-0.268785
2.49569
-0.0604953
-0.0896808
-0.0561938
-0.00900213
1.80888
-0.018514
2.15128
-0.179518
-0.0362233
1.48838
2.65423
-0.22337
0.295011
-0.135769
-0.267134
-0.113996
2.81723
2.90118
2.73643
0.0714672
-0.012952
-0.0364394
-0.298204
-0.42005
2.32066
0.692997
2.2272
2.92361
-0.267507
2.42864
2.30806
-0.956507
-0.606284
-0.249981
-0.228581
2.26726
1.94879
-0.0153084
-0.200253
-0.02288
-0.264606
-0.0844437
2.92904
2.49179
-0.0782916
-0.0117995
-0.0169433
-0.0673851
3.28754
-0.0711242
-0.0409611
-0.156464
1.58914
-0.12481
-0.269946
1.31811
-0.0367415
2.14148
2.07401
-0.206941
-0.0480338
-0.105509
1.41146
1.3459
0.0887813
-0.181305
-0.173175
-0.0916
-0.195115
-0.272511
2.72783
-0.271697
-0.187691
2.68763
-0.00313006
-0.0665491
1.77407
-0.0423648
2.60998
3.05529
2.81637
-0.87213
-0.00176169
1.96014
-0.0770695
2.61382
2.14395
2.41891
-0.0626805
2.00229
-0.0683846
-0.280192
2.68723
-0.248251
-0.333909
-0.0639829
-0.266592
-0.101484
-0.122409
-0.00384102
2.70371
2.17674
3.0175
-0.0474657
2.43106
2.23106
-0.187629
-0.437208
-0.0811757
-0.0403051
0.00179916
1.21272
-0.189482
-0.273316
1.98208
0.0498486
1.88595
-0.0135998
1.97021
-0.0368828
1.37392
2.22578
2.86299
-0.243013
-0.0152309
1.72353
-0.0956684
1.95
-0.0433683
-0.0144916
-0.215339
-0.0899343
2.61779
2.31461
-0.0334613
-1.20611
-0.0390607
-0.00773874
-0.237696
-0.0337843
2.64583
-0.378505
-0.0187733
2.09106
-0.179354
-0.15615
-0.104053
-0.23582
-0.185028
-0.00186752
-0.22979
-0.606562
1.99157
3.05029
-0.0305757
-0.115943
0.332549
2.11289
-0.0836309
2.88831
3.43985
-0.475132
2.45565
2.626
-0.282445
-0.198938
3.11853
2.39035
3.04366
1.39784
2.27857
3.87226
-0.123892
0.222864
1.92376
2.95476
-0.212998
2.35769
-0.0415564
3.08071
1.74884
2.64815
-0.111803
-0.282798
-0.105168
2.4357
2.16613
-0.062932
-0.0200116
2.60108
-0.130622
-0.0863594
3.36523
-0.119343
-0.0602338
-0.282711
-0.0905977
-0.159559
2.60592
-0.171665
2.97166
1.42304
5.19297
0.500002
2.72607
-0.100632
4.40435
-0.212893
3.0011
2.70887
-0.219399
2.20167
2.81065
-0.187366
-0.0600945
-0.185718
2.88387
1.45718
2.9787
-0.0467565
-0.0233136
-0.151914
0.78044
-0.15566
-0.29087
2.28717
1.92882
2.41405
1.25226
-0.134502
4.8248
-0.0336156
3.94943
-0.330232
-0.0404604
-0.0763101
-0.0950096
1.45678
0.367703
2.89321
0.0124837
-0.318674
2.59653
2.6907
-0.0508489
1.14055
1.72115
2.37411
-0.131489
2.92878
-0.202728
-0.296768
-0.0531528
-0.0494607
1.95986
-0.0989669
1.3959
-0.170094
-0.0975435
0.446774
-0.0312599
2.39914
2.19169
2.33349
1.8625
0.186072
1.23726
3.76912
-0.0248387
-0.153535
2.3887
1.29003
-0.302921
0.191722
2.49029
-0.124083
2.54166
2.40076
-0.0894119
2.75923
-0.0506017
-0.055597
1.48863
2.94363
-0.0923769
-0.207778
2.34401
-0.0157634
3.0206
3.46201
-0.0759593
1.51878
-0.0786363
2.64662
4.31517
-0.273939
0.696486
2.36616
-0.894849
1.49271
2.6309
2.21306
2.42089
0.696575
0.298911
-0.103791
-0.100981
-0.247607
2.58012
3.01363
-0.207827
-0.00171314
1.58303
0.985256
-0.0753242
3.30872
-0.0108889
2.62423
-0.103055
3.1956
2.36784
-0.015665
-0.123212
-0.0573534
2.93265
2.53179
2.0653
2.35029
2.53773
-0.0957309
-0.0694938
-0.176454
-0.194466
-0.0433296
1.07203
2.39392
2.48384
-0.259982
1.95515
-0.0449547
-0.26147
1.23174
-0.0537139
-0.150616
1.72941
2.45008
0.30499
-0.096542
-0.0814763
1.58574
-0.0690082
-0.0235689
-0.218298
-0.0116198
-0.0658928
2.25431
-0.111851
-0.392406
-0.391692
-0.122572
-0.167877
-0.011551
2.73333
2.26302
-0.155888
2.94838
-0.0579891
-0.0594554
-0.0392329
-0.110699
-0.0925525
-0.145757
-0.517375
-0.0928722
3.00304
-0.110859
-0.0604477
0.105012
0.0171599
-0.206845
2.64136
-0.228857
3.00845
0.0172849
-0.248307
-0.096691
-0.401115
-0.107779
-0.00377983
3.4047
4.52385
2.29153
2.81342
2.8845
0.692918
2.51453
-0.291234
4.75377
-0.0606459
-0.164856
1.90411
2.49213
-0.218398
-0.31162
2.94879
0.823733
2.17713
4.01256
0.251926
-0.304118
2.75044
1.8259
1.73406
2.0197
4.77513
2.95101
0.0423551
-0.198794
2.93119
-0.00175728
2.90663
1.93212
1.24756
3.02697
-0.118238
2.312
2.54163
1.59409
2.37654
-0.0169984
2.67943
-0.00899622
-0.206289
-0.29917
-0.0554724
-0.0488649
-0.0287697
-0.0234798
-0.0746614
-0.013949
0.00730791
2.06718
-0.094347
1.12687
2.82731
2.99654
-0.590298
-0.0213707
-0.0136724