/*--------------------------------*- C++ -*----------------------------------*\
| =========                 |                                                 |
| \\      /  F ield         | OpenFOAM: The Open Source CFD Toolbox           |
|  \\    /   O peration     | Version:  3.0.1                                 |
|   \\  /    A nd           | Web:      www.OpenFOAM.org                      |
|    \\/     M anipulation  |                                                 |
\*---------------------------------------------------------------------------*/
FoamFile
{
    version     2.0;
    format      ascii;
    class       volScalarField;
    location    "0.990956";
    object      nut;
}
// * * * * * * * * * * * * * * * * * * * * * * * * * * * * * * * * * * * * * //

dimensions      [0 2 -1 0 0 0 0];

internalField   nonuniform List<scalar> 
21246
(
5.14387e-05
0.000319416
0.000445899
0.000498189
0.000512353
0.000518078
0.000524607
0.000528225
0.000520212
0.000492539
0.000440763
3.52475e-05
0.000266393
0.000430433
0.000503181
0.000523087
0.000524253
0.000522634
0.000519844
0.000510366
0.000484777
0.000436758
2.8749e-05
0.000234482
0.000406945
0.000502011
0.000534485
0.000537825
0.000533245
0.000526162
0.000513809
0.000488439
0.000442045
2.7225e-05
0.000213983
0.000386827
0.000496226
0.000541809
0.000550737
0.000547189
0.00053975
0.000526449
0.000500105
0.000452448
2.68458e-05
0.000190071
0.000358634
0.000481817
0.000542301
0.000557905
0.000552718
0.000540208
0.000521455
0.000492866
0.000446868
2.72421e-05
0.000178988
0.000335792
0.000455839
0.000523934
0.000549645
0.0005519
0.000545243
0.000532437
0.000509448
0.000467881
2.79313e-05
0.000171519
0.000320052
0.000433227
0.000500335
0.000531062
0.000541778
0.000543533
0.000536546
0.000515306
0.000471694
2.88376e-05
0.000165719
0.000307336
0.00041395
0.000478947
0.000512409
0.000529098
0.000537921
0.000537705
0.000522894
0.000485679
2.96818e-05
0.000160638
0.000296374
0.000397283
0.000459746
0.000494609
0.000515868
0.000531036
0.000537446
0.000527454
0.00049036
3.02936e-05
0.000155146
0.000285954
0.000382525
0.000443037
0.000478961
0.000503873
0.00052423
0.000535668
0.000527747
0.000487562
3.08012e-05
0.000149554
0.000276118
0.000369427
0.000428663
0.00046565
0.000493612
0.000518109
0.000533404
0.000528278
0.000493852
3.12278e-05
0.00014461
0.000267474
0.000358079
0.000416421
0.000454505
0.000485169
0.000513222
0.000531951
0.000529625
0.000496961
3.14382e-05
0.000139704
0.000259466
0.000348067
0.000406053
0.000445442
0.000478708
0.000510098
0.000532112
0.000531923
0.000497743
3.14309e-05
0.000134103
0.000251239
0.000338782
0.000397186
0.000438273
0.000474209
0.000508844
0.000533902
0.000535574
0.000503402
3.11816e-05
0.000128502
0.000243241
0.000330221
0.000389542
0.000432657
0.000471388
0.000509276
0.000537267
0.000540123
0.000504808
3.06547e-05
0.000122476
0.000235038
0.000321979
0.0003828
0.00042836
0.000470089
0.000511347
0.000542389
0.000546418
0.000509111
2.98884e-05
0.000115322
0.000225656
0.000313248
0.000376366
0.00042496
0.000469987
0.000514838
0.000549324
0.000554994
0.000516738
2.87393e-05
0.000106165
0.000213428
0.000302208
0.000368542
0.000421268
0.000469932
0.000518548
0.000557193
0.000565788
0.000527155
2.71829e-05
9.4853e-05
0.000197192
0.00028667
0.000355735
0.000410912
0.000461214
0.000511425
0.000553586
0.000567287
0.000534496
2.51822e-05
8.13523e-05
0.00017599
0.000265248
0.000336709
0.000393116
0.000441468
0.000487093
0.00052584
0.000541354
0.000519637
2.26643e-05
6.61463e-05
0.000149661
0.000236692
0.000309963
0.000367048
0.000411526
0.000448122
0.000476544
0.000487352
0.000474027
1.95963e-05
5.08577e-05
0.000120456
0.00020135
0.000274583
0.000331858
0.000372588
0.000399875
0.000415727
0.000417142
0.000403453
1.5791e-05
3.6672e-05
9.01852e-05
0.000161844
0.000231088
0.000286177
0.000323614
0.000344698
0.000351892
0.000345876
0.000328736
1.13024e-05
3.63859e-05
8.0799e-05
0.000130986
0.000178747
0.000219559
0.000249291
0.000266565
0.000271967
0.000266467
0.000252198
4.63809e-05
0.000182692
0.000263083
0.000340177
0.000421076
0.00050505
0.000549242
0.000578243
0.000564047
0.000530815
0.000475386
3.2065e-05
9.6869e-05
0.000161229
0.000219017
0.000270907
0.000309971
0.000365127
0.000552976
0.000624023
0.000584647
0.000514365
2.46677e-05
7.02208e-05
0.000120005
0.000166134
0.0002075
0.000237598
0.000263622
0.000340472
0.000599687
0.000646735
0.000568852
2.39327e-05
7.80076e-05
0.000105571
0.000137645
0.000170591
0.00019695
0.000215095
0.000247092
0.000372696
0.000649407
0.000645778
2.86753e-05
0.000136527
0.000136077
0.000140387
0.000155649
0.000173333
0.000186619
0.000202367
0.00026043
0.000440018
0.000681636
3.25084e-05
0.000183287
0.000211847
0.000181398
0.000166078
0.000165818
0.000170392
0.00017747
0.000206105
0.000305084
0.000534893
3.55001e-05
0.000212543
0.000323888
0.000276733
0.000214734
0.000180255
0.000166743
0.000163969
0.000177242
0.000233996
0.000393628
3.84243e-05
0.00022942
0.000385729
0.000400743
0.000305971
0.00022335
0.000178914
0.000160349
0.00016173
0.000195581
0.000303561
4.09859e-05
0.000244651
0.000435095
0.00051971
0.000434648
0.000302005
0.000211509
0.00016758
0.000155199
0.000173988
0.00024918
4.30148e-05
0.000255574
0.000466651
0.000586416
0.000558713
0.000407616
0.000265703
0.00018666
0.000156258
0.000162408
0.00021621
4.44687e-05
0.000264233
0.000487297
0.000628782
0.000663119
0.000524166
0.000337702
0.000216911
0.000164055
0.000157721
0.000196475
4.5523e-05
0.000266144
0.000494965
0.000646615
0.000713137
0.000621249
0.000414556
0.000253804
0.000176782
0.000158169
0.000185547
4.61843e-05
0.000267104
0.000493661
0.000643668
0.000725154
0.000681757
0.000479793
0.000289531
0.000191348
0.000162197
0.00018101
4.64907e-05
0.000265143
0.000482797
0.000623426
0.000707434
0.000700741
0.000520303
0.000315895
0.000204321
0.000168419
0.000181448
4.64626e-05
0.000259104
0.000464296
0.000588899
0.000663075
0.000676751
0.000529414
0.000326521
0.000213272
0.000176088
0.000186387
4.59168e-05
0.000251521
0.000442032
0.00054659
0.000597964
0.000607928
0.000516515
0.000321724
0.000217874
0.000185804
0.000195581
4.47577e-05
0.00024166
0.000416323
0.000501544
0.000530319
0.000525563
0.000468206
0.00031955
0.000222795
0.000200041
0.000210195
4.29598e-05
0.00023023
0.000389411
0.000459001
0.000469808
0.000455249
0.000414526
0.000323166
0.000238709
0.000224067
0.000233029
4.05724e-05
0.000219511
0.000365288
0.000425612
0.000428381
0.000414013
0.000390459
0.000342648
0.000282027
0.000268536
0.000269222
3.77252e-05
0.000213284
0.000349907
0.00040737
0.000414397
0.00041075
0.000406062
0.000389078
0.000358019
0.00033606
0.000317223
3.46069e-05
0.000223093
0.000354419
0.000398868
0.000401419
0.000395243
0.000382648
0.000361014
0.000340046
0.000306523
0.000258241
3.04322e-05
0.000214765
0.000305001
0.000322395
0.000288664
0.000225782
0.000175792
0.000157176
0.000140291
0.000123279
0.000106147
1.79054e-05
0.000105543
0.000128572
0.000110359
8.89911e-05
7.65319e-05
6.95129e-05
6.65682e-05
6.52778e-05
6.42533e-05
6.2555e-05
8.58143e-06
1.05086e-05
1.42139e-05
1.98902e-05
2.85324e-05
4.03152e-05
5.43866e-05
6.88506e-05
8.14534e-05
9.04322e-05
9.49579e-05
2.46741e-05
4.94837e-05
4.48158e-05
4.29129e-05
3.64364e-05
3.07043e-05
2.76265e-05
2.61096e-05
2.53451e-05
2.49769e-05
2.48685e-05
2.16391e-05
5.62358e-05
4.14831e-05
4.61348e-05
3.80341e-05
3.13337e-05
2.73533e-05
2.53852e-05
2.44147e-05
2.39941e-05
2.39734e-05
2.24711e-05
5.40014e-05
3.49846e-05
4.84869e-05
3.89635e-05
3.21373e-05
2.73017e-05
2.49097e-05
2.37297e-05
2.3248e-05
2.3304e-05
2.49171e-05
5.04176e-05
3.45589e-05
4.88922e-05
3.92296e-05
3.28229e-05
2.72658e-05
2.45437e-05
2.31758e-05
2.26548e-05
2.28609e-05
2.76064e-05
4.84541e-05
3.46963e-05
4.78044e-05
3.95604e-05
3.33091e-05
2.71993e-05
2.42385e-05
2.2689e-05
2.20922e-05
2.23002e-05
2.98524e-05
4.78503e-05
3.464e-05
4.5112e-05
4.01454e-05
3.36847e-05
2.71836e-05
2.39976e-05
2.22603e-05
2.15499e-05
2.16855e-05
3.16412e-05
4.84606e-05
3.4762e-05
4.10566e-05
3.97765e-05
3.40923e-05
2.73111e-05
2.38457e-05
2.19021e-05
2.10447e-05
2.10813e-05
3.30002e-05
5.03412e-05
3.54777e-05
3.74554e-05
3.75819e-05
3.42735e-05
2.76686e-05
2.38089e-05
2.16378e-05
2.05958e-05
2.04564e-05
3.37369e-05
5.32293e-05
3.69436e-05
3.48484e-05
3.4247e-05
3.33908e-05
2.8143e-05
2.39869e-05
2.15237e-05
2.02341e-05
1.98689e-05
3.37812e-05
5.67718e-05
3.93892e-05
3.33068e-05
3.06169e-05
3.082e-05
2.81485e-05
2.43129e-05
2.16023e-05
2.00276e-05
1.93735e-05
3.32795e-05
6.1162e-05
4.30858e-05
3.32679e-05
2.80197e-05
2.73234e-05
2.69264e-05
2.44937e-05
2.18452e-05
2e-05
1.9039e-05
3.22926e-05
6.68856e-05
4.82228e-05
3.48645e-05
2.70296e-05
2.44534e-05
2.45638e-05
2.39884e-05
2.2091e-05
2.01512e-05
1.88968e-05
3.0892e-05
7.37676e-05
5.51321e-05
3.81695e-05
2.75617e-05
2.28015e-05
2.19307e-05
2.24108e-05
2.19427e-05
2.03902e-05
1.89611e-05
2.93469e-05
8.15331e-05
6.42883e-05
4.35932e-05
2.97547e-05
2.25647e-05
1.9959e-05
2.00965e-05
2.08771e-05
2.04092e-05
1.91736e-05
2.79613e-05
9.13234e-05
7.63134e-05
5.16009e-05
3.38843e-05
2.39288e-05
1.92941e-05
1.81155e-05
1.89639e-05
1.97193e-05
1.92884e-05
2.7189e-05
0.000103663
9.22078e-05
6.31604e-05
4.05335e-05
2.71178e-05
2.01194e-05
1.71912e-05
1.70165e-05
1.81375e-05
1.88313e-05
2.71487e-05
0.000118005
0.000112916
7.99181e-05
5.0948e-05
3.28261e-05
2.27622e-05
1.77036e-05
1.59178e-05
1.6265e-05
1.74686e-05
2.72722e-05
0.000133807
0.000138725
0.000103734
6.69957e-05
4.23278e-05
2.79748e-05
2.01205e-05
1.63055e-05
1.51437e-05
1.57049e-05
2.68653e-05
0.000148527
0.000167447
0.000135928
9.14539e-05
5.79672e-05
3.73426e-05
2.54233e-05
1.88577e-05
1.56545e-05
1.47096e-05
2.54133e-05
0.000158682
0.000193697
0.000174434
0.000126867
8.34255e-05
5.39631e-05
3.58258e-05
2.50503e-05
1.88929e-05
1.57316e-05
2.26113e-05
0.000158129
0.000210231
0.000211469
0.000172331
0.000122902
8.31613e-05
5.59474e-05
3.83734e-05
2.73427e-05
2.06523e-05
1.94387e-05
0.000151363
0.000217004
0.00023699
0.000218367
0.000175938
0.000130717
9.34556e-05
6.60203e-05
4.69124e-05
3.39897e-05
1.46347e-05
0.000119392
0.000171602
0.00020558
0.000216817
0.000205991
0.000178331
0.000144236
0.000111754
8.46899e-05
6.34515e-05
1.11641e-05
6.41236e-05
8.67343e-05
0.000111057
0.000131078
0.000145476
0.00014904
0.00014243
0.000128587
0.000111441
9.32857e-05
2.01171e-05
4.58625e-05
4.24512e-05
4.1321e-05
3.55682e-05
3.08423e-05
2.84137e-05
2.72387e-05
2.66861e-05
2.64718e-05
2.64712e-05
1.53465e-05
3.96744e-05
4.47359e-05
4.39783e-05
3.80005e-05
3.28797e-05
3.01261e-05
2.88644e-05
2.83776e-05
2.83322e-05
2.85877e-05
1.61009e-05
3.82857e-05
4.16255e-05
4.76683e-05
4.19839e-05
3.6406e-05
3.28729e-05
3.11628e-05
3.04932e-05
3.0438e-05
3.08141e-05
1.86049e-05
3.60375e-05
4.04618e-05
4.99101e-05
4.42548e-05
3.89915e-05
3.54997e-05
3.38261e-05
3.32588e-05
3.3343e-05
3.39056e-05
2.16564e-05
3.32392e-05
4.04708e-05
5.10037e-05
4.60439e-05
4.13754e-05
3.79101e-05
3.63034e-05
3.58511e-05
3.61515e-05
3.70401e-05
2.46907e-05
3.10458e-05
4.08405e-05
5.14237e-05
4.7529e-05
4.36605e-05
4.04253e-05
3.91314e-05
3.90348e-05
3.98026e-05
4.1259e-05
2.75942e-05
2.95462e-05
4.12352e-05
5.16699e-05
4.89547e-05
4.59536e-05
4.31385e-05
4.24671e-05
4.31201e-05
4.4915e-05
4.77207e-05
3.03653e-05
2.85453e-05
4.1585e-05
5.2e-05
5.04899e-05
4.82737e-05
4.60395e-05
4.61301e-05
4.76938e-05
5.06059e-05
5.45668e-05
3.2855e-05
2.78871e-05
4.19257e-05
5.25776e-05
5.22947e-05
5.06505e-05
4.90819e-05
4.99728e-05
5.25655e-05
5.69194e-05
6.30925e-05
3.5038e-05
2.74754e-05
4.23393e-05
5.33805e-05
5.4333e-05
5.31332e-05
5.22069e-05
5.38402e-05
5.74369e-05
6.32421e-05
7.15399e-05
3.69044e-05
2.72364e-05
4.27831e-05
5.4442e-05
5.65474e-05
5.57359e-05
5.53484e-05
5.7585e-05
6.19996e-05
6.8875e-05
7.80777e-05
3.85078e-05
2.70892e-05
4.32118e-05
5.56794e-05
5.8908e-05
5.8444e-05
5.84648e-05
6.11172e-05
6.6092e-05
7.36941e-05
8.39349e-05
3.97137e-05
2.67454e-05
4.35593e-05
5.70138e-05
6.14329e-05
6.12519e-05
6.15478e-05
6.43903e-05
6.96371e-05
7.75701e-05
8.84184e-05
4.04229e-05
2.57348e-05
4.15152e-05
5.68765e-05
6.32576e-05
6.38921e-05
6.45893e-05
6.74651e-05
7.27616e-05
8.06842e-05
9.15427e-05
4.05744e-05
2.47229e-05
3.79733e-05
5.48265e-05
6.37896e-05
6.59935e-05
6.7445e-05
7.03572e-05
7.55494e-05
8.31895e-05
9.36197e-05
4.01233e-05
2.38076e-05
3.35289e-05
5.0397e-05
6.21973e-05
6.6859e-05
6.96962e-05
7.29124e-05
7.79722e-05
8.516e-05
9.48505e-05
3.90549e-05
2.30298e-05
2.89513e-05
4.37397e-05
5.75123e-05
6.52697e-05
7.03724e-05
7.45784e-05
7.97856e-05
8.65748e-05
9.54124e-05
3.72684e-05
2.2396e-05
2.49875e-05
3.61334e-05
4.96303e-05
5.9886e-05
6.77597e-05
7.39247e-05
8.00412e-05
8.69295e-05
9.51887e-05
3.47098e-05
2.17762e-05
2.18862e-05
2.90471e-05
3.99179e-05
5.04589e-05
6.00967e-05
6.84667e-05
7.63119e-05
8.42288e-05
9.2771e-05
3.13339e-05
2.09585e-05
1.95369e-05
2.33078e-05
3.04901e-05
3.88694e-05
4.77353e-05
5.65488e-05
6.53738e-05
7.43851e-05
8.38023e-05
2.70951e-05
1.96474e-05
1.76545e-05
1.90439e-05
2.28787e-05
2.80747e-05
3.41656e-05
4.08411e-05
4.80385e-05
5.58082e-05
6.421e-05
2.19948e-05
1.74686e-05
1.57643e-05
1.58578e-05
1.73784e-05
1.98514e-05
2.30199e-05
2.67219e-05
3.08896e-05
3.55193e-05
4.06294e-05
1.60651e-05
1.38224e-05
1.296e-05
1.27275e-05
1.30775e-05
1.38854e-05
1.50678e-05
1.65662e-05
1.8344e-05
2.0385e-05
2.2674e-05
9.67619e-06
9.89219e-06
1.096e-05
1.20505e-05
1.30753e-05
1.39617e-05
1.60674e-05
1.9522e-05
2.42931e-05
3.01054e-05
3.63014e-05
4.71603e-05
0.000289714
0.000429283
0.00055952
0.000641128
0.000699227
0.000734941
0.000738609
0.000714789
0.000676004
0.000628036
3.62523e-05
0.000160213
0.000260272
0.00037209
0.000481309
0.000601086
0.000706474
0.000746384
0.000730255
0.000692056
0.000642462
3.17177e-05
0.000109258
0.000197076
0.000284061
0.000370956
0.000458689
0.000572291
0.000707679
0.00073427
0.000704715
0.000655743
2.87115e-05
8.895e-05
0.000162652
0.00023656
0.000309132
0.00037643
0.000453971
0.000571575
0.000688784
0.00070766
0.000671041
2.51565e-05
8.24586e-05
0.000143883
0.0002074
0.000270202
0.000325893
0.000379344
0.000453252
0.000569399
0.000666367
0.00067725
2.09315e-05
8.13639e-05
0.000133793
0.000188849
0.000243945
0.000292346
0.000332806
0.000377088
0.000452395
0.000564343
0.000645404
1.84675e-05
8.80555e-05
0.000133366
0.000179472
0.00022721
0.000270208
0.000303977
0.000332752
0.000374544
0.000453472
0.000562941
1.91535e-05
0.00010747
0.000146621
0.000181715
0.000220392
0.000257506
0.000287067
0.00030847
0.000331141
0.000375034
0.00046178
1.92475e-05
0.000132657
0.00017068
0.000196269
0.000224229
0.000253566
0.000278774
0.000296356
0.000309485
0.000330539
0.000381569
1.79467e-05
0.000140168
0.000191933
0.000217397
0.000237039
0.000257556
0.000277312
0.000291982
0.000300526
0.000308875
0.000332314
1.66865e-05
0.000137564
0.000204798
0.000235862
0.000253726
0.000267266
0.000281208
0.000292905
0.000299036
0.000300733
0.000306557
1.56618e-05
0.000130812
0.000205006
0.000243681
0.000267263
0.000278699
0.000288192
0.000297074
0.000301608
0.00029972
0.000294829
1.49097e-05
0.000123332
0.000193016
0.000239338
0.000272231
0.00028733
0.0002952
0.000302151
0.000305464
0.000301299
0.000289414
1.41053e-05
0.000116932
0.000180136
0.000225616
0.000265413
0.000289389
0.000299019
0.000305543
0.000307994
0.000301943
0.000284915
1.31428e-05
0.000110506
0.000168214
0.000210117
0.000248941
0.000282246
0.000296998
0.000304803
0.000306907
0.000299118
0.000278318
1.20925e-05
0.000103516
0.000156776
0.00019567
0.000231001
0.000265127
0.00028803
0.000298655
0.000301439
0.000292815
0.000269836
1.09649e-05
9.51043e-05
0.000145451
0.000182669
0.000214069
0.000245098
0.00027353
0.000289407
0.000295247
0.000288454
0.000265891
9.84399e-06
8.58792e-05
0.000134169
0.000171527
0.00020075
0.000229344
0.000261177
0.000286226
0.0003006
0.000301361
0.000283451
8.77605e-06
7.69178e-05
0.000123894
0.000163394
0.000193734
0.000223795
0.000261803
0.00030044
0.000329318
0.000343467
0.000332368
7.97807e-06
7.02568e-05
0.000117513
0.000159559
0.000191558
0.000223126
0.000262342
0.000300687
0.00032806
0.000343405
0.000336816
7.62077e-06
6.31334e-05
0.000109172
0.00014734
0.00017124
0.000190199
0.000210151
0.000223844
0.000231626
0.000237842
0.00023898
6.82297e-06
5.26689e-05
8.84132e-05
0.000113287
0.000123779
0.000133194
0.000145732
0.000162305
0.000185931
0.000216031
0.000242558
5.3011e-06
3.33543e-05
4.99752e-05
6.4749e-05
8.04704e-05
0.000105023
0.000138423
0.000178997
0.000223285
0.000266121
0.000297752
4.47418e-06
1.16355e-05
2.83024e-05
5.72616e-05
9.80195e-05
0.00014775
0.000203158
0.000258736
0.000307141
0.000341009
0.000354654
4.35177e-05
0.000315096
0.000489087
0.000589254
0.000652951
0.000697339
0.000721928
0.00072127
0.000698265
0.000661883
0.000616389
2.75286e-05
0.00024073
0.000434651
0.000569411
0.000647072
0.000690264
0.000710242
0.000709469
0.000689779
0.000657196
0.000616356
2.52834e-05
0.000195697
0.000390547
0.000555469
0.000649777
0.000690725
0.000702383
0.000698219
0.000681341
0.000653826
0.000619376
2.61157e-05
0.000178739
0.000368983
0.00055229
0.000662977
0.000703545
0.000703123
0.000687938
0.000668521
0.000644432
0.000617111
2.78119e-05
0.000171991
0.000360124
0.00055142
0.000681135
0.000728736
0.000715609
0.000683277
0.000653529
0.000625937
0.000599777
2.93031e-05
0.000168021
0.000356028
0.000549457
0.000690922
0.000753411
0.000745493
0.000700195
0.000646517
0.00059843
0.000562532
3.02751e-05
0.000163213
0.000349934
0.000543017
0.000693467
0.000771693
0.000778431
0.000738569
0.000677073
0.000608818
0.000546449
3.06831e-05
0.000156445
0.00033909
0.00052909
0.000685129
0.000777718
0.000803514
0.000779907
0.000724631
0.00064689
0.000556566
3.02355e-05
0.000146109
0.0003211
0.00050509
0.000663295
0.000767664
0.000813253
0.000811987
0.000775418
0.000705744
0.00060239
2.89888e-05
0.000131444
0.000294688
0.000469846
0.000626837
0.000739738
0.00080326
0.000825579
0.000814369
0.000767322
0.000672402
2.70394e-05
0.0001172
0.000265266
0.000426409
0.000576835
0.000694008
0.000772628
0.00081615
0.0008305
0.000814891
0.000755392
2.4694e-05
0.000106215
0.000239128
0.000385495
0.000525348
0.000641122
0.000727308
0.000784962
0.000818165
0.000831534
0.000813649
2.22913e-05
9.92041e-05
0.000219505
0.000351735
0.000479421
0.000590188
0.000678739
0.000743308
0.000785178
0.000811677
0.000826826
2.02316e-05
9.56617e-05
0.000206023
0.000325923
0.000442376
0.000546886
0.000634212
0.000700462
0.000744284
0.000772465
0.000798196
1.86782e-05
9.4363e-05
0.000196944
0.00030724
0.000414852
0.000513594
0.000597794
0.00066227
0.000703936
0.000727569
0.000749113
1.75446e-05
9.31156e-05
0.000189453
0.000292937
0.000394474
0.000488738
0.000569331
0.000630322
0.000667964
0.000684557
0.000695659
1.66002e-05
9.08458e-05
0.000182101
0.000280701
0.00037802
0.000468813
0.000545859
0.000602815
0.000636235
0.000646338
0.000645716
1.56033e-05
8.75294e-05
0.000174677
0.000269347
0.000363137
0.000450652
0.000523973
0.000576632
0.000606358
0.00061222
0.000602709
1.44142e-05
8.3062e-05
0.000166821
0.000257859
0.000348063
0.000431972
0.000501141
0.000548992
0.000575172
0.000579446
0.000563892
1.2959e-05
7.69051e-05
0.000157151
0.00024422
0.000330498
0.000410708
0.000475929
0.000518794
0.000540858
0.0005447
0.000526871
1.11616e-05
6.79368e-05
0.000143179
0.000225215
0.000307378
0.00038479
0.000447877
0.000487157
0.0005048
0.000507249
0.000490954
9.03159e-06
5.65785e-05
0.000122565
0.000197602
0.000276154
0.000352775
0.000416752
0.000455753
0.000470134
0.000469723
0.00045484
6.41979e-06
3.6666e-05
9.05683e-05
0.00015936
0.000236208
0.000313686
0.000380355
0.000422911
0.00043819
0.000436011
0.000421715
4.03885e-06
3.03678e-05
7.68738e-05
0.000137146
0.000204111
0.000272201
0.000333744
0.000378977
0.00040165
0.000404753
0.000393897
1.61542e-05
1.71241e-05
1.78701e-05
1.82201e-05
1.82068e-05
1.81769e-05
1.81591e-05
1.80322e-05
1.75873e-05
7.55827e-05
0.00010391
0.000123885
0.000141743
0.000156349
0.000152085
0.000137861
0.000120975
0.000101163
0.00015281
0.000202769
0.000235942
0.000265897
0.000287417
0.000282419
0.0002607
0.000232993
0.000198194
0.000224412
0.000291857
0.000328379
0.000358466
0.000378358
0.000372573
0.000348565
0.000322218
0.000282493
1.44234e-05
1.08619e-05
7.40033e-06
6.60286e-06
6.39425e-06
7.24658e-06
1.2128e-05
1.51099e-05
1.67103e-05
4.94975e-05
3.42738e-05
2.56248e-05
2.61637e-05
2.54903e-05
2.51731e-05
3.15309e-05
4.53418e-05
6.89508e-05
0.000100909
6.34218e-05
4.15274e-05
3.81856e-05
3.88909e-05
4.32935e-05
5.97318e-05
9.1819e-05
0.000141394
0.000150203
9.17646e-05
5.80701e-05
4.98534e-05
5.34908e-05
6.2571e-05
8.81959e-05
0.000136652
0.000209391
0.000195632
0.000229704
0.000229753
7.36949e-05
0.000427712
0.000229216
8.72983e-05
0.000229629
0.00022929
0.000234107
0.000415475
0.000229685
0.000120902
0.000187897
0.000123817
0.00022875
0.000160244
7.38518e-05
0.000228754
0.000228585
0.000229562
3.30409e-05
0.000229984
0.000258096
0.000229308
0.000191557
0.000129545
8.80749e-05
0.000457167
0.000558967
0.000142186
0.000236059
0.000114496
0.000229459
0.000241452
0.000229666
0.000244312
0.000229301
9.67818e-05
0.000229139
2.11617e-05
0.000229501
0.000107252
0.000229969
0.000448197
5.34286e-05
5.1882e-05
8.69103e-05
0.000239982
0.00022999
0.000557182
0.00022912
0.000239529
0.000107124
0.000229804
0.000229344
3.2511e-05
0.000229107
0.000465737
9.06375e-05
2.5656e-05
0.000192847
0.000494152
0.000162151
2.93782e-05
0.000228589
0.000659528
0.000232
0.000229701
0.000233612
0.000189916
0.000234439
6.03003e-05
0.000245501
0.000137692
0.000232283
2.01982e-05
0.000229738
0.000138546
0.000425315
0.000672456
0.000138369
0.000229258
0.000229801
0.000247392
6.10611e-05
0.000398005
0.000142348
4.56354e-05
0.000278421
0.000229521
0.000229091
2.45044e-05
0.000235644
0.000440473
0.000105265
9.9129e-05
0.000236798
4.40039e-05
0.000236998
0.000252576
0.000103292
0.000230323
0.000236572
4.92825e-05
0.000229618
0.000181496
0.000229875
0.000109931
0.000235823
0.000229382
0.000229559
0.000231609
6.95287e-05
7.61078e-05
0.000229016
0.000229229
0.000228995
0.000229362
0.00022926
6.72409e-05
0.000242959
0.000262191
0.000188603
5.1512e-05
0.000211522
0.000904412
0.000176796
0.000140568
0.000117719
0.000229162
9.0158e-05
9.2583e-05
0.00023282
0.000229766
0.000231306
2.31905e-05
0.000105272
0.000550681
0.000244629
0.000110946
0.000231174
0.000241583
0.000168022
0.000229275
3.8454e-05
0.00011527
0.000231472
0.000235977
0.000229081
0.000229365
0.000229149
4.059e-05
0.000242295
7.43262e-05
6.08397e-05
6.81083e-05
2.93621e-05
0.000170258
0.00022895
0.000217298
4.92866e-05
0.000233857
0.000229112
0.000676363
0.000116012
5.7241e-05
0.000237357
0.000230364
2.92333e-05
0.000146372
0.000159697
0.000217127
0.000229564
0.000235279
0.000220396
0.000155046
3.95451e-05
0.000450586
0.000199756
0.000230842
2.94774e-05
0.00022993
0.000133853
0.000229394
0.000106274
0.000229442
0.000228952
0.00022965
0.000174337
0.000109406
0.000197021
0.000228578
2.11322e-05
0.000229732
0.000229127
0.000229745
4.43672e-05
0.000114844
0.000230001
3.54201e-05
0.000230283
0.000110132
0.000139099
0.000229807
0.000144805
0.000234883
0.000140617
0.00022976
0.000228744
0.000322912
0.000228966
0.000175304
0.000239255
0.000229288
0.00013889
0.000229412
5.05481e-05
0.000229659
7.99888e-05
7.35414e-05
6.55743e-05
9.95958e-05
7.53601e-05
0.000191999
0.000229112
0.0001046
0.000116876
0.000110404
0.000310425
3.22713e-05
0.000228534
0.000229395
0.000242716
3.93599e-05
0.000299004
0.000676512
0.000229876
0.000229676
0.00022962
5.10222e-05
0.000193059
0.000236692
1.99542e-05
0.000246123
5.04266e-05
0.000229384
0.000141637
0.0001816
0.000855198
0.000141421
0.000323951
0.000231121
0.000228751
0.000233943
0.000229584
0.000229245
0.000229264
4.54325e-05
0.000229513
0.000123481
0.000190672
0.000228227
0.000229654
0.000229372
5.08796e-05
0.000231569
0.000246888
0.000159542
0.00017984
0.000191392
0.000229462
0.000230288
5.14143e-05
0.000229202
0.000229001
0.000183982
0.000229231
0.00023827
4.88721e-05
0.000236145
0.00022986
0.000672698
0.000639205
0.000233548
0.000229199
0.000463886
0.000229822
0.000238094
0.000107536
0.00022989
0.000101688
0.000240657
8.16107e-05
0.000230016
0.000229707
0.000231084
0.000229636
0.000241009
0.00018718
0.000229146
5.98484e-05
0.000243039
0.000556437
0.00022917
0.000236139
0.000229753
0.000275778
2.96014e-05
0.000229234
5.61804e-05
0.000229663
0.000234188
0.000118082
2.40432e-05
0.00023157
0.000171143
6.39167e-05
0.000228782
0.000240939
0.000229275
0.000551943
0.000228944
0.000192489
0.000113608
0.000234062
0.000229147
0.000207071
0.00022824
0.000552118
0.000234887
0.000493008
1.79297e-05
0.0002299
9.77858e-05
0.000198221
6.6523e-05
0.00022971
0.000229289
0.000238791
5.26634e-05
0.000309293
0.000230325
0.000110362
0.00018114
0.000276948
8.50732e-05
0.000228998
0.000209861
0.000948587
5.67507e-05
0.00023691
0.000179896
0.000229133
0.000106145
0.000230037
7.12639e-05
0.000206798
0.000229966
0.000642263
0.000136142
0.000185664
0.000229444
0.00022932
0.000229814
5.12797e-05
0.000168306
5.91725e-05
6.68694e-05
0.000256739
0.000229229
0.000125568
0.000192144
0.000193139
0.000112988
0.000229863
0.00015268
0.000241266
0.000229175
0.000229065
0.000548455
0.000229124
3.65556e-05
0.000229097
0.000197136
0.000687126
5.94909e-05
0.000191734
0.000192264
4.61939e-05
0.000229165
4.69751e-05
0.00018548
0.000247393
0.000693586
2.87372e-05
0.00022924
0.000229151
0.000229902
8.40903e-05
4.54318e-05
0.000228977
0.000229939
0.000109617
9.56934e-05
2.22006e-05
0.000103486
0.000142007
0.000230202
0.00055391
0.000234859
0.000228725
0.000115645
0.000117439
4.96801e-05
0.000234054
0.000109575
0.000251188
0.000182825
4.91081e-05
0.00032009
0.000150437
8.54514e-05
0.000109969
0.000227385
0.000234998
0.000243998
7.43263e-05
0.000207334
3.66162e-05
0.000229253
3.68703e-05
0.00020743
0.000228688
0.000240753
6.40789e-05
0.000299212
0.00051769
0.000187941
0.000230037
0.000236675
0.000388725
8.07883e-05
5.95116e-05
0.000231777
7.1885e-05
9.87197e-05
2.7038e-05
0.000228963
4.0398e-05
0.000229163
0.000229748
0.000229375
4.97876e-05
9.83447e-05
6.83336e-05
0.000148404
3.34548e-05
8.17248e-05
0.000229651
0.000228952
0.000927493
0.000182421
0.000234019
0.000233812
4.14151e-05
4.53212e-05
2.96836e-05
2.93526e-05
0.000234663
0.000211928
5.21673e-05
0.000229124
2.51131e-05
0.000233072
0.000229779
0.000229421
8.05664e-05
3.52241e-05
0.000229371
0.00022912
0.000229576
0.000260737
2.70299e-05
0.000229923
4.07408e-05
0.000358259
0.000156687
6.25679e-05
0.000228838
3.74341e-05
0.000229147
0.00023275
0.00022912
0.00012303
0.000150132
0.000228602
0.000193855
0.000168905
0.0002458
0.000223186
0.000207077
0.000229594
0.000229419
0.000239765
6.77012e-05
5.65172e-05
0.000235035
9.91646e-05
0.000229775
0.000457066
0.000104893
4.40665e-05
0.000109196
0.000252083
0.000662832
7.3131e-05
0.000193632
0.000229133
0.000184463
0.000228892
0.000229851
0.000229238
0.000229716
0.000232656
0.000524267
0.000229465
0.00022889
0.000157398
0.000229131
4.44439e-05
0.000241736
0.000234543
0.000176702
4.70688e-05
0.000230022
0.000229296
0.000229914
2.11202e-05
3.52455e-05
0.000229323
0.00022925
0.000188461
0.000229836
7.57168e-05
0.000229812
0.000711452
0.000236986
3.0759e-05
9.21134e-05
0.000131507
5.61825e-05
0.00048542
0.000229184
0.000231695
0.000235645
0.000229854
6.41554e-05
2.56041e-05
0.000223865
0.000127133
0.000191912
9.71604e-05
0.000229319
0.000230503
0.000229754
9.8502e-05
0.000717469
8.4159e-05
0.000229606
0.000229226
0.000644637
0.000231998
9.66348e-05
0.0001349
0.000165156
0.000283928
0.000229125
8.86959e-05
0.000229278
7.34395e-05
0.00022978
0.000136503
0.000150569
0.000234934
2.46539e-05
0.000135796
0.000229945
0.000229999
0.000453871
0.000229064
0.000183695
9.88504e-05
7.90391e-05
9.6778e-05
5.2256e-05
0.000152611
0.000231708
0.00022912
0.000229335
0.000106585
5.14315e-05
0.000113036
0.000228581
0.00022935
8.8772e-05
0.000229487
0.000239471
0.000233795
0.000234264
0.000108525
5.51606e-05
7.92952e-05
0.000159971
0.000233588
0.000217046
0.000228725
0.000154533
0.000232221
0.000229182
0.000168053
0.000411727
0.00022894
0.000229077
2.37581e-05
0.000230383
0.000228911
0.000147689
0.000229772
0.000233515
9.34893e-05
8.54937e-05
0.000158705
0.000179668
0.000159845
6.87299e-05
0.000403524
6.06159e-05
0.000106914
0.00018033
5.27407e-05
7.10798e-05
0.00012917
0.000229779
0.000229889
0.000112814
0.000230211
0.000229163
0.000241732
0.000207467
0.000107934
0.000187287
0.000193101
0.000251415
0.000229083
0.000180716
0.000229499
0.000229149
0.000236504
7.73787e-05
0.000232179
0.000236056
0.000230263
0.000229803
0.000117171
6.22968e-05
0.000297704
0.000232551
0.000229804
0.000189923
0.000124447
0.000239081
0.000167452
0.000232048
0.000158332
0.000540013
0.000229107
6.61337e-05
0.000229949
0.000119143
0.000129512
0.000105553
0.000146307
0.000215494
0.000246564
0.000229832
0.00010016
0.000182607
4.67847e-05
0.000883987
0.000228984
0.000233891
0.00022982
0.000161164
0.000229374
4.24554e-05
0.000229655
0.000229114
0.000229193
0.000130066
6.60515e-05
0.000229541
0.000129908
0.000229287
0.000115664
0.000170388
0.000231152
0.000108231
1.91149e-05
8.12435e-05
0.000236525
0.000200754
0.000137024
0.000123898
0.000127627
8.50022e-05
0.000229199
0.000147048
0.000229311
0.00023429
5.24684e-05
0.000225449
3.64385e-05
0.00018788
0.000231673
0.000233775
0.000229286
5.5868e-05
0.000229631
0.000968144
9.882e-05
0.000689641
0.000233847
0.000138848
0.00010697
9.60607e-05
0.00024208
0.000120839
3.70382e-05
6.03872e-05
0.00022947
0.000185607
0.000185353
0.000229538
4.69274e-05
0.000119474
0.000248755
0.00015614
0.000229186
0.000232102
0.000235025
0.00013112
0.000236851
0.000192459
0.000229681
0.000119162
0.000234764
8.53018e-05
6.72205e-05
0.000358913
0.000109909
0.000228934
0.000265578
6.28898e-05
0.000229154
0.000190879
0.000188152
7.5844e-05
0.000231937
2.89561e-05
0.00023808
7.65589e-05
9.21194e-05
0.00024922
0.000229093
0.000247321
0.000229063
7.91738e-05
2.11847e-05
0.000230061
0.000229305
0.000252574
0.000359222
0.000525552
0.000152476
0.000229783
0.000143965
0.000244633
0.000229548
0.000229609
0.000229824
0.000229266
0.000242908
0.000159776
4.62137e-05
0.000112235