/*--------------------------------*- C++ -*----------------------------------*\
| =========                 |                                                 |
| \\      /  F ield         | OpenFOAM: The Open Source CFD Toolbox           |
|  \\    /   O peration     | Version:  3.0.1                                 |
|   \\  /    A nd           | Web:      www.OpenFOAM.org                      |
|    \\/     M anipulation  |                                                 |
\*---------------------------------------------------------------------------*/
FoamFile
{
    version     2.0;
    format      ascii;
    class       volScalarField;
    location    "0.682522";
    object      k;
}
// * * * * * * * * * * * * * * * * * * * * * * * * * * * * * * * * * * * * * //

dimensions      [0 2 -2 0 0 0 0];

internalField   nonuniform List<scalar> 
21246
(
0.585746
0.819153
0.453225
0.263533
0.142956
0.0788562
0.0478464
0.0338984
0.0276064
0.0244697
0.0227467
0.588841
0.84143
0.514519
0.312204
0.177803
0.0974513
0.0559196
0.0369188
0.0288302
0.0251523
0.0233307
0.559645
0.717127
0.526702
0.346569
0.208953
0.115782
0.0658358
0.0412314
0.0307194
0.0262707
0.0243906
0.501972
0.611895
0.513496
0.359918
0.2307
0.133016
0.0757923
0.0462897
0.033139
0.027744
0.0257452
0.43074
0.544572
0.493873
0.366345
0.247073
0.149804
0.0865313
0.051888
0.0360341
0.0295249
0.0272595
0.356799
0.499605
0.475688
0.373082
0.263755
0.167174
0.0993654
0.0593358
0.0395056
0.0316032
0.0288847
0.285939
0.467808
0.461647
0.38114
0.281855
0.186685
0.11449
0.0688932
0.0447126
0.0342881
0.0307394
0.221974
0.445303
0.453801
0.390675
0.300874
0.208157
0.132396
0.0809755
0.0517696
0.0381466
0.033088
0.169299
0.430555
0.453945
0.402697
0.320814
0.231292
0.153128
0.0961214
0.0612462
0.0435569
0.0362541
0.135164
0.427697
0.464748
0.419324
0.34258
0.256107
0.176589
0.114633
0.0737424
0.0510916
0.0406707
0.128918
0.444738
0.491759
0.445261
0.368403
0.282885
0.202296
0.13625
0.0895101
0.0612915
0.046865
0.138359
0.466783
0.5363
0.487733
0.403282
0.313547
0.23032
0.160528
0.108433
0.0744886
0.0553927
0.137136
0.456668
0.577423
0.546957
0.453452
0.352738
0.262677
0.187902
0.13052
0.0908969
0.0667226
0.122951
0.403286
0.576733
0.602671
0.518154
0.405022
0.302849
0.219922
0.156252
0.110762
0.0812398
0.103944
0.333637
0.525734
0.623261
0.582081
0.46893
0.353113
0.258351
0.18634
0.134334
0.0992474
0.0856276
0.267088
0.445102
0.590865
0.618749
0.532963
0.411949
0.304466
0.221929
0.162197
0.12113
0.0699666
0.208813
0.35635
0.512672
0.605277
0.575139
0.469753
0.356035
0.263185
0.194893
0.14735
0.0584624
0.164046
0.274546
0.412636
0.540694
0.574946
0.509427
0.404672
0.307059
0.2315
0.177866
0.0514159
0.132951
0.208575
0.315113
0.445248
0.528675
0.516139
0.438243
0.346587
0.268599
0.210926
0.0489688
0.115393
0.164234
0.23598
0.346421
0.453622
0.487874
0.446515
0.371745
0.298637
0.241583
0.0491933
0.107149
0.142071
0.192765
0.268807
0.368594
0.43501
0.424749
0.371229
0.309457
0.258756
0.0554542
0.112816
0.147793
0.187412
0.237039
0.302196
0.369616
0.374882
0.338342
0.290293
0.249943
0.108199
0.226182
0.277672
0.295603
0.295674
0.294787
0.300889
0.301046
0.284243
0.25275
0.219233
0.159514
0.171456
0.176781
0.184749
0.19259
0.202364
0.217135
0.238148
0.254627
0.244985
0.216351
0.520341
0.617161
0.392226
0.21503
0.11846
0.0690608
0.0445195
0.03285
0.0272269
0.0242426
0.0224703
0.387026
0.483653
0.337362
0.216044
0.126345
0.0749409
0.0478466
0.0345603
0.0281276
0.0247661
0.022813
0.369037
0.460305
0.323161
0.234767
0.149665
0.0904474
0.0557309
0.0382449
0.0299609
0.0258285
0.0235456
0.357474
0.42574
0.305217
0.238729
0.163027
0.104025
0.0652666
0.0436946
0.0329679
0.0276297
0.02481
0.347055
0.38178
0.290353
0.235292
0.16515
0.108515
0.0701371
0.0479163
0.0362365
0.0301057
0.0266789
0.337061
0.343573
0.276834
0.2283
0.163902
0.11088
0.0734434
0.0509022
0.0387156
0.0322409
0.028627
0.327632
0.313685
0.265102
0.221025
0.161592
0.112128
0.0761156
0.053721
0.0412939
0.0346556
0.031001
0.318889
0.290586
0.255008
0.214728
0.159612
0.113354
0.0787614
0.0566416
0.0440688
0.0373289
0.033676
0.31116
0.272725
0.246694
0.209918
0.15874
0.115165
0.081731
0.0598173
0.0470464
0.0401118
0.0363152
0.304577
0.258674
0.240117
0.206639
0.159218
0.117751
0.085229
0.0633771
0.0503115
0.0430846
0.0391028
0.29895
0.247584
0.234991
0.204825
0.16105
0.121282
0.0893892
0.0674107
0.0539064
0.0462242
0.0418386
0.294124
0.238331
0.230646
0.204141
0.163882
0.125674
0.0942455
0.071986
0.0579072
0.0495951
0.044516
0.290106
0.230295
0.226956
0.204447
0.167691
0.131036
0.0999649
0.0773003
0.0625462
0.0534855
0.0475051
0.286517
0.223232
0.223582
0.205531
0.172604
0.137617
0.106861
0.0837254
0.068283
0.0585547
0.0516348
0.28289
0.216831
0.219789
0.20622
0.177678
0.145095
0.115213
0.0918685
0.0758906
0.0657168
0.0582148
0.2793
0.210876
0.215482
0.206359
0.182717
0.153351
0.125069
0.102088
0.0859973
0.0758084
0.0683317
0.275788
0.205187
0.210531
0.205722
0.187442
0.162213
0.13649
0.114728
0.0992036
0.0896084
0.0830291
0.272354
0.19958
0.20479
0.203986
0.19138
0.171232
0.149225
0.129825
0.115811
0.107573
0.102789
0.26905
0.193901
0.198076
0.20074
0.19388
0.179629
0.162565
0.14686
0.135516
0.129466
0.12717
0.266006
0.188024
0.190146
0.195432
0.194026
0.186163
0.175108
0.164417
0.156934
0.153817
0.154063
0.263464
0.181778
0.18066
0.187313
0.190535
0.188966
0.184485
0.179741
0.177003
0.177215
0.179443
0.262153
0.174916
0.16913
0.175309
0.181498
0.185163
0.186872
0.188154
0.19032
0.193622
0.196933
0.263039
0.167052
0.154435
0.157755
0.164592
0.171446
0.177704
0.183897
0.190597
0.197447
0.20289
0.278166
0.158388
0.143883
0.144953
0.1513
0.160975
0.174017
0.190021
0.205681
0.214859
0.213566
0.364263
0.5195
0.459107
0.365324
0.267423
0.182603
0.119477
0.0768833
0.0489333
0.0307713
0.0195617
0.298547
0.44888
0.4298
0.35258
0.259408
0.176975
0.11539
0.073446
0.0460094
0.0284963
0.017832
0.227202
0.39844
0.401366
0.346875
0.264691
0.183977
0.12036
0.0760549
0.0470981
0.0289043
0.0179624
0.195494
0.354593
0.375474
0.340081
0.269501
0.192214
0.12759
0.081184
0.0503393
0.030698
0.0188432
0.172361
0.308511
0.338865
0.32275
0.268502
0.198796
0.134746
0.0861599
0.0528669
0.0314358
0.0187431
0.15954
0.277144
0.308259
0.29995
0.256985
0.196119
0.13575
0.0877578
0.0543492
0.0327763
0.0198254
0.150741
0.254096
0.284962
0.279605
0.242195
0.187951
0.132699
0.0874324
0.0549965
0.0335651
0.0204153
0.145901
0.237727
0.266424
0.261662
0.228272
0.179051
0.128174
0.0857614
0.0548037
0.0340178
0.0213265
0.142154
0.224927
0.25114
0.2464
0.215663
0.170303
0.123182
0.0835384
0.054232
0.0342321
0.0217388
0.138759
0.214002
0.238284
0.23368
0.204975
0.16265
0.118591
0.0813102
0.0534768
0.0341684
0.0217504
0.135692
0.204528
0.227418
0.223127
0.196147
0.156297
0.114702
0.0793257
0.052684
0.0339851
0.0220149
0.133523
0.196642
0.218328
0.214336
0.18884
0.151084
0.111531
0.0777034
0.0520309
0.033848
0.0221047
0.131893
0.189881
0.210692
0.207153
0.183056
0.147117
0.109242
0.076628
0.0516894
0.0338635
0.0221559
0.130266
0.183806
0.204237
0.201518
0.1789
0.14458
0.10802
0.0762491
0.0517446
0.0340737
0.0224861
0.129214
0.178639
0.198878
0.197167
0.176112
0.14332
0.10783
0.076591
0.0522354
0.0344874
0.0226797
0.128606
0.174068
0.194455
0.194064
0.174766
0.143491
0.108842
0.0778019
0.0532732
0.0351914
0.0230605
0.128092
0.169706
0.190766
0.192238
0.175091
0.145415
0.111375
0.0801308
0.0550223
0.0362831
0.0236519
0.127937
0.165636
0.187742
0.1916
0.177101
0.149272
0.115689
0.08383
0.0576895
0.0379086
0.0244293
0.128564
0.16161
0.184933
0.191725
0.180717
0.155422
0.122151
0.08927
0.0616046
0.0403412
0.0257396
0.130038
0.157393
0.182087
0.192053
0.18502
0.162843
0.130693
0.0967952
0.0671898
0.0439992
0.0278648
0.132586
0.152782
0.17879
0.192172
0.189522
0.171083
0.140717
0.106272
0.0747696
0.0494454
0.031387
0.137381
0.14714
0.175059
0.191347
0.193153
0.179039
0.15151
0.117647
0.0849016
0.0575344
0.0372166
0.142681
0.142651
0.169426
0.189191
0.195116
0.185544
0.162054
0.130558
0.0980337
0.0692809
0.0466506
0.163384
0.149171
0.177065
0.185586
0.189971
0.184257
0.167195
0.141718
0.112792
0.0848602
0.0610015
0.329575
0.444562
0.432628
0.381503
0.310044
0.225391
0.148998
0.0966759
0.0613323
0.0381065
0.0238691
0.240973
0.321194
0.3676
0.364537
0.326778
0.264359
0.192338
0.128892
0.0815834
0.0509568
0.03154
0.153182
0.32498
0.345505
0.346541
0.327273
0.284795
0.224942
0.161682
0.10802
0.0686575
0.0432967
0.166813
0.304963
0.392318
0.374246
0.342658
0.302353
0.250002
0.190433
0.134026
0.0892706
0.059091
0.184377
0.300871
0.472219
0.503527
0.430894
0.353896
0.284991
0.220124
0.160204
0.110398
0.0754512
0.202826
0.298961
0.467025
0.642171
0.622069
0.491524
0.365947
0.268154
0.192328
0.133607
0.0922907
0.221404
0.303855
0.451808
0.646546
0.794897
0.712441
0.527263
0.362577
0.24471
0.164162
0.1115
0.238881
0.311824
0.437928
0.615334
0.817875
0.905395
0.749843
0.520333
0.334536
0.21139
0.136442
0.255102
0.322884
0.429023
0.575748
0.764419
0.959189
0.947427
0.717804
0.465288
0.282465
0.172177
0.270062
0.336617
0.426092
0.538637
0.691396
0.896156
1.03261
0.890816
0.612583
0.372744
0.219068
0.284041
0.353338
0.42949
0.50852
0.619646
0.796982
0.997924
0.99047
0.738675
0.464443
0.271423
0.297834
0.372758
0.438053
0.487398
0.560145
0.698038
0.906307
1.00812
0.8151
0.535099
0.318032
0.312196
0.395865
0.451088
0.475892
0.516752
0.614
0.793576
0.95714
0.833728
0.568669
0.346207
0.328028
0.422868
0.467583
0.472275
0.488309
0.550677
0.67955
0.85667
0.812759
0.562913
0.351987
0.344759
0.45428
0.487878
0.472837
0.466148
0.49983
0.580313
0.69078
0.748032
0.52807
0.336103
0.363077
0.49262
0.514797
0.478072
0.445871
0.449614
0.489377
0.547621
0.584677
0.493944
0.314999
0.383922
0.540716
0.552522
0.492699
0.433849
0.410185
0.418742
0.442455
0.458874
0.430291
0.311321
0.40854
0.60215
0.607573
0.524637
0.439479
0.393286
0.381716
0.386648
0.391134
0.375307
0.311639
0.439846
0.682968
0.692418
0.589574
0.478033
0.412954
0.391328
0.390517
0.39071
0.378382
0.348485
0.484059
0.802443
0.833911
0.72446
0.590111
0.505523
0.475188
0.464514
0.448001
0.416802
0.388261
0.450349
0.845554
0.923218
0.837008
0.699663
0.594779
0.509642
0.438416
0.369437
0.317388
0.253981
0.414692
0.765032
0.862828
0.820557
0.659527
0.48959
0.37367
0.29493
0.235839
0.191013
0.149983
0.325782
0.546811
0.538371
0.447598
0.339204
0.267385
0.220502
0.187569
0.160399
0.13451
0.108305
0.200588
0.166051
0.159558
0.160435
0.164227
0.166678
0.163339
0.151863
0.132832
0.109053
0.0843412
0.233907
0.222916
0.110355
0.0518514
0.0266375
0.0160694
0.0118575
0.0100368
0.00911267
0.00854199
0.00810801
0.278383
0.307195
0.104296
0.0588112
0.0309564
0.0182067
0.0125887
0.0101634
0.00894845
0.00823295
0.00773442
0.321357
0.359804
0.102099
0.0677389
0.0344419
0.0205211
0.0136487
0.0105673
0.00901162
0.00810932
0.00749529
0.359512
0.339082
0.102626
0.0719829
0.0352551
0.0222527
0.0145025
0.0110206
0.00918262
0.00811957
0.00741504
0.389909
0.301052
0.101832
0.0708063
0.0346529
0.0232633
0.0149652
0.0114047
0.00938289
0.00821175
0.00744353
0.414014
0.270663
0.0998064
0.0670074
0.0338826
0.0235443
0.015115
0.0116556
0.0095365
0.00830879
0.00750785
0.432451
0.250522
0.0974029
0.0629704
0.0333145
0.02325
0.0151053
0.0117772
0.00962473
0.00838212
0.00755848
0.443627
0.237195
0.0947441
0.0594057
0.0327932
0.0227103
0.0150248
0.0118015
0.00965734
0.00843146
0.00762544
0.449728
0.228919
0.0923367
0.0566288
0.0323226
0.0221714
0.0149308
0.0117745
0.00965664
0.00845701
0.00765841
0.452101
0.227668
0.0910024
0.0548378
0.0320756
0.0217772
0.0148736
0.0117412
0.00964389
0.00846742
0.00766697
0.449719
0.230722
0.0919332
0.0541595
0.032104
0.0215532
0.0148801
0.0117284
0.00963594
0.00847516
0.0076725
0.442996
0.235392
0.0938334
0.0542624
0.0324911
0.0215624
0.0149813
0.0117517
0.00964858
0.00849181
0.0076741
0.433029
0.241616
0.0974566
0.0552398
0.0332896
0.021856
0.0152666
0.0118679
0.00972415
0.00853468
0.00769798
0.420354
0.250143
0.104079
0.0576175
0.0347443
0.0225895
0.0157757
0.0121094
0.00988457
0.0086149
0.00774828
0.405095
0.259912
0.112273
0.0611696
0.0368249
0.0237857
0.0165547
0.0125197
0.0101468
0.00875453
0.00783676
0.387996
0.270873
0.122709
0.0663376
0.0398214
0.0255936
0.0177057
0.013183
0.0105566
0.00898718
0.00798092
0.36947
0.283149
0.136793
0.0741661
0.0443931
0.0283865
0.0194575
0.0142441
0.0112045
0.0093701
0.00821461
0.349544
0.296569
0.154271
0.0852233
0.0511246
0.0325949
0.022128
0.015921
0.0122431
0.0100029
0.00860114
0.328617
0.310669
0.175896
0.100784
0.0612043
0.0390987
0.026344
0.0186444
0.0139731
0.0110851
0.00927077
0.307161
0.324294
0.202463
0.122733
0.076644
0.0495651
0.0333598
0.0233134
0.01703
0.0130524
0.010515
0.285566
0.335463
0.234295
0.153511
0.100701
0.0671109
0.045762
0.0319227
0.022895
0.0169702
0.013077
0.264751
0.343135
0.271375
0.196567
0.138908
0.0977473
0.0690798
0.0491436
0.0353153
0.0257375
0.0191257
0.242263
0.33479
0.306503
0.251861
0.197497
0.151171
0.114177
0.0855483
0.0638119
0.0475178
0.0353976
0.22972
0.322026
0.312942
0.284953
0.248836
0.211046
0.175321
0.143353
0.115764
0.0925429
0.073224
0.249766
0.241184
0.110759
0.0529898
0.0269655
0.0162338
0.0121268
0.0104707
0.00970321
0.00927865
0.00897915
0.300469
0.35725
0.0991316
0.0584201
0.0301275
0.0183018
0.0134237
0.0114239
0.0105248
0.0100475
0.00973609
0.343278
0.4138
0.0970267
0.0658047
0.0330431
0.0203665
0.0148149
0.0126205
0.0117397
0.0113773
0.0112012
0.375736
0.373227
0.0969361
0.0680122
0.0339086
0.0218213
0.0160916
0.013923
0.0132038
0.0131011
0.0132302
0.39661
0.313417
0.094546
0.0653429
0.0336694
0.0227858
0.0171668
0.0151422
0.01464
0.0148137
0.0152592
0.40849
0.266178
0.0903259
0.060835
0.0331134
0.0233582
0.0180683
0.0163278
0.0161453
0.0167972
0.0179713
0.414664
0.232691
0.085581
0.0564741
0.0325486
0.0237176
0.0188464
0.0174485
0.0175763
0.0186532
0.0203602
0.416176
0.208145
0.0808074
0.0527744
0.0320607
0.0240013
0.019546
0.0184958
0.0189216
0.0204862
0.0231194
0.415735
0.189966
0.0764954
0.0498488
0.0317415
0.0242725
0.0202172
0.0194408
0.0201197
0.022124
0.025647
0.415349
0.176344
0.072894
0.0476594
0.0316648
0.0245371
0.0208805
0.0202518
0.0210977
0.0233715
0.0274409
0.41633
0.167211
0.0701409
0.0462014
0.0318506
0.0248378
0.0215121
0.020913
0.0218041
0.0241074
0.0281642
0.416334
0.161544
0.0680092
0.0452421
0.0322511
0.025199
0.0221031
0.0214227
0.0222374
0.0243408
0.0280582
0.415341
0.158417
0.0671773
0.0448284
0.0329132
0.0257173
0.0227239
0.0218509
0.0224954
0.0242482
0.0273695
0.41348
0.15822
0.0680463
0.0450171
0.0338534
0.0264708
0.0234126
0.0222466
0.0226117
0.023907
0.0262722
0.410701
0.159667
0.0700418
0.0457421
0.0349947
0.0274674
0.024192
0.0226568
0.0226278
0.0233912
0.0249377
0.407117
0.162859
0.0733487
0.0471594
0.0363672
0.0287491
0.0251207
0.0231455
0.0226167
0.0227981
0.02354
0.402743
0.168027
0.0783246
0.0495582
0.038105
0.0303698
0.0262836
0.0238057
0.0226868
0.0222528
0.0222523
0.397432
0.17492
0.0851552
0.0532744
0.0404502
0.0324126
0.0277777
0.0247533
0.0229842
0.0219093
0.0212274
0.390966
0.183396
0.0941991
0.0588488
0.0438615
0.0351009
0.0297727
0.026144
0.0236965
0.0219648
0.0206536
0.382984
0.193374
0.106043
0.0671612
0.0491832
0.0389815
0.0326338
0.0282455
0.0250769
0.0226745
0.0207577
0.372737
0.204333
0.121362
0.0795141
0.0578816
0.0452567
0.037221
0.031652
0.0275539
0.02438
0.021817
0.358454
0.215181
0.140731
0.0977746
0.0724169
0.0563493
0.0455394
0.0378618
0.0321546
0.0277386
0.0242058
0.336381
0.224459
0.165163
0.125106
0.0973939
0.07748
0.062676
0.0513684
0.0425431
0.0366428
0.0332038
0.245208
0.228717
0.202882
0.183107
0.166175
0.151217
0.137594
0.125004
0.113333
0.101381
0.0892683
0.0719744
0.047142
0.021569
0.0166541
0.0169755
0.0223041
0.0507627
0.079406
0.0965513
0.083298
0.0618597
0.0415194
0.0286134
0.0270472
0.0505459
0.0796599
0.105558
0.131948
0.0988919
0.0781
0.0541072
0.0375121
0.0368775
0.0672356
0.102845
0.127734
0.142778
0.0991756
0.0849173
0.0627313
0.0446169
0.04611
0.0788023
0.110481
0.126793
0.13366
0.0863076
0.0938887
0.0982836
0.0992829
0.0985101
0.100529
0.112728
0.112585
0.106841
0.102808
0.119136
0.131678
0.140688
0.148081
0.164433
0.176207
0.168329
0.155151
0.112208
0.120371
0.128098
0.137378
0.142445
0.154211
0.168471
0.159762
0.151692
0.104344
0.10642
0.109526
0.115881
0.116214
0.121161
0.137586
0.134647
0.136474
0.00442794
0.00460249
0.00461777
0.00249326
0.0456644
0.00438348
0.0112791
0.00454847
0.00437454
0.00424557
0.0448205
0.00455754
0.00373872
0.00329936
0.0044842
0.00430345
0.00330119
0.00248103
0.00429292
0.0042512
0.00411405
0.00461597
0.00466513
0.0176948
0.00449194
0.0033102
0.00378761
0.0107753
0.0601093
0.048471
0.00339055
0.00410086
0.00302623
0.00453708
0.00426754
0.00459326
0.0164887
0.00448692
0.00293864
0.0043899
0.00532129
0.00454614
0.00563131
0.00465801
0.060818
0.0129654
0.00315058
0.0213077
0.00428974
0.00432898
0.0482941
0.00439662
0.026926
0.00568055
0.00432403
0.00412123
0.00459963
0.00440287
0.0595978
0.00898732
0.00518937
0.0255975
0.0532745
0.00857943
0.00697689
0.00426295
0.0513737
0.00434426
0.00460281
0.00423683
0.00329155
0.00428217
0.00322589
0.00448146
0.00661839
0.00425719
0.0042495
0.00459754
0.00935171
0.0730211
0.0514343
0.00680125
0.00449613
0.00462612
0.00438282
0.00327239
0.076948
0.0258759
0.00312659
0.0185514
0.00454199
0.00441499
0.00605737
0.00435468
0.0720853
0.0358112
0.00564933
0.00400367
0.00345929
0.00433609
0.00465169
0.017809
0.00416421
0.0040235
0.00289392
0.00455073
0.0030519
0.0046465
0.00436735
0.00414117
0.0045117
0.00456083
0.00429411
0.00244977
0.00452479
0.00442323
0.00437465
0.00431561
0.00450532
0.00413815
0.0024386
0.00443527
0.00471588
0.00324971
0.0110035
0.00421918
0.0602159
0.00304858
0.00321955
0.00353657
0.00445619
0.00879233
0.0192112
0.00426031
0.00461457
0.00457834
0.00370094
0.00445896
0.0491873
0.00446457
0.00563734
0.00411622
0.0242072
0.00402503
0.00436591
0.00331849
0.00446598
0.00433496
0.00429478
0.00425867
0.00429143
0.00442138
0.00356654
0.00441836
0.00255935
0.00311753
0.00392946
0.00372845
0.00320299
0.00435903
0.00364039
0.00425689
0.00427518
0.00442941
0.0534368
0.00572716
0.00358211
0.00442216
0.00424072
0.00690097
0.00312623
0.00309774
0.00435055
0.00405741
0.00409127
0.00396203
0.00316609
0.00359079
0.0617683
0.00392828
0.0043307
0.0042845
0.00465977
0.0131223
0.0045072
0.00429806
0.00428092
0.00430237
0.00459057
0.0126206
0.00420646
0.00341767
0.00427456
0.00527974
0.00461083
0.00439614
0.00434749
0.00353234
0.00362534
0.00467914
0.00323753
0.00432954
0.00404345
0.00348299
0.00462803
0.0260462
0.00434773
0.00321188
0.00433852
0.00433878
0.022299
0.00439465
0.00401398
0.00422138
0.00449338
0.0139004
0.00450955
0.00365336
0.00429644
0.00322072
0.00289348
0.00236996
0.00544093
0.00446886
0.00320995
0.004408
0.00979957
0.00561703
0.00395427
0.0240611
0.00389758
0.00425883
0.00428846
0.00443392
0.0035185
0.0674827
0.0518399
0.00464666
0.00456278
0.00455178
0.00366343
0.0108996
0.00401441
0.0051068
0.00453119
0.00469789
0.00451909
0.00358308
0.0279974
0.0615735
0.00357033
0.0224312
0.00520843
0.00430375
0.00395241
0.00435574
0.0041423
0.00447252
0.00319209
0.0042762
0.00339884
0.00456494
0.0043264
0.00457531
0.00450933
0.00303714
0.00411528
0.00464677
0.00559296
0.00372289
0.0224485
0.00431758
0.00432399
0.00306871
0.00438884
0.00432707
0.00331129
0.00444863
0.0042811
0.00319103
0.00431175
0.00459645
0.0516481
0.0484603
0.00395351
0.00439456
0.0780483
0.00458807
0.00424712
0.0053116
0.00461536
0.0111511
0.0042973
0.00288312
0.0046785
0.004344
0.00423922
0.0045664
0.0042619
0.00334041
0.00445277
0.00251032
0.00436895
0.0488466
0.00415436
0.00414074
0.00459841
0.0165812
0.00431506
0.00434643
0.0071422
0.00456292
0.00408697
0.00303338
0.00459136
0.00411004
0.00370561
0.00328546
0.00412908
0.0044118
0.00427218
0.0400881
0.00435582
0.00338986
0.00570138
0.00423582
0.00445324
0.00371681
0.00424242
0.0287582
0.00443924
0.0536278
0.00412174
0.00464936
0.00357219
0.0444976
0.00362938
0.00458701
0.00447459
0.00398412
0.00402576
0.0211367
0.00432607
0.00557418
0.020242
0.016802
0.00579306
0.00437724
0.0141116
0.0640191
0.00864306
0.003925
0.00374019
0.00417347
0.00394083
0.00468914
0.00290945
0.00399895
0.00465926
0.0367795
0.00386149
0.00333584
0.00451697
0.00451256
0.0043088
0.00329084
0.00308651
0.00288063
0.0107482
0.00439083
0.00444149
0.0129674
0.0361532
0.00321075
0.0038906
0.00460757
0.00391689
0.00425148
0.00437684
0.00426489
0.0406796
0.00438316
0.00320452
0.0044153
0.00340591
0.0522155
0.00243418
0.00319603
0.0104814
0.00346066
0.00443236
0.00532958
0.00310431
0.00454014
0.0530032
0.00694043
0.00448079
0.00429235
0.00461834
0.00513129
0.00316828
0.00440989
0.00466146
0.00546995
0.00292881
0.00647375
0.00796877
0.00741276
0.00432843
0.0399106
0.00443094
0.00427899
0.00375156
0.00369108
0.00415136
0.00407168
0.00423762
0.00458294
0.00314689
0.00495998
0.0307071
0.00321803
0.0127516
0.0040964
0.0039823
0.00413321
0.00445287
0.00481525
0.004369
0.00844406
0.00448726
0.00320359
0.00342901
0.00410419
0.00441895
0.00290883
0.0238467
0.0474095
0.00326063
0.00468834
0.00395891
0.0747181
0.00327332
0.00246695
0.00426446
0.00332694
0.012823
0.00341754
0.00434492
0.00396043
0.00444569
0.00461336
0.00449882
0.00431783
0.00447047
0.0112361
0.00313448
0.00324049
0.00491046
0.00459193
0.0043414
0.0622188
0.00320797
0.0039436
0.0044558
0.00814585
0.00760037
0.00545505
0.00546768
0.0044229
0.00393328
0.0031723
0.00423569
0.00510502
0.00432589
0.00458595
0.00432395
0.00557891
0.00365919
0.00428302
0.00444974
0.00412888
0.0179893
0.00408736
0.00464619
0.00336546
0.0315264
0.0040481
0.00291438
0.00434053
0.00332556
0.00439426
0.00433448
0.00440245
0.00336677
0.00326616
0.00426544
0.00339666
0.00400183
0.00459348
0.00375081
0.00370654
0.00453965
0.0045355
0.0340542
0.00316438
0.00292089
0.00445144
0.0156767
0.00461903
0.0359332
0.00434722
0.0035256
0.00505686
0.00469034
0.0501559
0.00449659
0.00338565
0.0044536
0.00360549
0.00411889
0.00459461
0.00442599
0.00457333
0.00420983
0.0387798
0.00452274
0.00435327
0.0119745
0.00444387
0.00881858
0.00437794
0.0132539
0.00331125
0.00316465
0.00467822
0.00447554
0.00463287
0.00533945
0.00373124
0.00450329
0.00448873
0.00324155
0.0046143
0.00334947
0.00460394
0.042022
0.00423494
0.00403251
0.00292002
0.00334607
0.0152081
0.0379185
0.00416481
0.00410955
0.00428684
0.0046053
0.00291593
0.00337622
0.0042371
0.00352404
0.0299265
0.0362594
0.00449068
0.00432838
0.0045956
0.012311
0.0551721
0.00422605
0.00454198
0.00436827
0.049033
0.00430808
0.0030172
0.00327929
0.00905561
0.0338742
0.00443179
0.00451318
0.00446249
0.00446809
0.00433551
0.00661485
0.00318944
0.0040926
0.00484539
0.00734622
0.00463507
0.00467307
0.0717412
0.00440499
0.00354355
0.00374898
0.00475667
0.0110475
0.00399379
0.00362096
0.00420376
0.00444294
0.00449701
0.0317807
0.00297898
0.00391072
0.00425331
0.00449988
0.00664543
0.0042701
0.00441203
0.00431676
0.00426603
0.0031644
0.00294226
0.00469792
0.00567538
0.00401532
0.00526096
0.00429664
0.00964844
0.00424569
0.00446208
0.0294993
0.0298156
0.00438283
0.00438704
0.00365647
0.00415589
0.00433582
0.00565162
0.0046057
0.00418325
0.00330789
0.00289737
0.00382062
0.00315828
0.00318795
0.00559401
0.0275297
0.0048491
0.0059795
0.00353948
0.0034786
0.00461405
0.00348763
0.00462096
0.00417839
0.00577798
0.00393723
0.004229
0.00421589
0.00343741
0.00549791
0.0268893
0.00361171
0.00518272
0.00442495
0.00527234
0.00455103
0.00429922
0.00427514
0.00341544
0.00423032
0.00452656
0.00422127
0.00459247
0.00493831
0.0062059
0.0231522
0.00424786
0.00427386
0.00399179
0.00785377
0.00438418
0.0158339
0.00427929
0.00734306
0.0356447
0.00443044
0.00310909
0.00465926
0.00303978
0.00598469
0.00313811
0.0247592
0.00364776
0.00427498
0.00463633
0.0037252
0.00321802
0.00425716
0.0621118
0.00436887
0.00407439
0.00463256
0.00374598
0.00421994
0.00324691
0.00455421
0.00440263
0.00440216
0.00380508
0.00386237
0.00456363
0.0033311
0.00437358
0.00545066
0.00321322
0.00407834
0.00430103
0.00510876
0.00285949
0.00409882
0.00372443
0.00361917
0.00712701
0.00306324
0.011831
0.00446975
0.00334953
0.00449639
0.00441602
0.00658985
0.00456383
0.00337148
0.00329477
0.00430727
0.00417685
0.0041305
0.00398283
0.00458672
0.0548575
0.00470564
0.0400207
0.00412828
0.00397678
0.00882418
0.0105981
0.00442564
0.00349072
0.00373563
0.00294883
0.00453009
0.00334337
0.0305321
0.00454859
0.00898367
0.00351563
0.00452877
0.00695753
0.00437705
0.00433237
0.00422595
0.00337511
0.00432401
0.00321048
0.00456989
0.00304448
0.00427507
0.0029043
0.00312889
0.0252421
0.00425199
0.00429129
0.0211565
0.0123075
0.00446177
0.00321838
0.00385226
0.00359059
0.00520839
0.0038026
0.00440891
0.00454154
0.00292512
0.00500364
0.00429152
0.00437636
0.00441417
0.00557324
0.00382908
0.00468998
0.00449464
0.00453133
0.0324213
0.0385792
0.00361079
0.00457587
0.00335652
0.00425181
0.00455712
0.00458115
0.00462438
0.00448648
0.0045163
0.0031675
0.00517839
0.0111123
0.00308517
0.00423701
0.00442549
0.00450494
0.00376741
0.0323522
0.00459587
0.0040582
0.0035285
0.0153045
0.0204209
0.00461552
0.0039188
0.00418549
0.00442887
0.00446801
0.0102118
0.00422013
0.00456616
0.00422287
0.00925526
0.0039973
0.00390192
0.00455589
0.0040955
0.00610581
0.00374258
0.00456527
0.00310008
0.00399682
0.00388822
0.00425905
0.00464017
0.00428596
0.00246113
0.00289085
0.00342201
0.00460118
0.00421823
0.00448473
0.00433088
0.00458934
0.00835928
0.00344238
0.00860448
0.0145463
0.00499067
0.00454788
0.0511521
0.00466909
0.00427649
0.00477763
0.00449383
0.00441858
0.00441911
0.00306418
0.0212732
0.00313633
0.0044154
0.00363888
0.00442223
0.00468785
0.00432943
0.00438353
0.00421735
0.00449871
0.00455815
0.00432901
0.0577348
0.00437888
0.00426042
0.00467266
0.0181037
0.00430664
0.0045064
0.0051701
0.0580596
0.00429549
0.00451788
0.00289214
0.00364095
0.00464885
0.00454054
0.00421845
0.00400792
0.0155148
0.00459645
0.0117613
0.00289399
0.0278512
0.00297529
0.00457995
0.00325692
0.0056416
0.00444382
0.00443171
0.00448223
0.00460757
0.00398632
0.00919063
0.00427145
0.00557917
0.0507144
0.00365855
0.00393593
0.0058164
0.00466266
0.00456111
0.0031461
0.00288424
0.00329213
0.00439798
0.0278288
0.00429634
0.00334944
0.00431812
0.00315334
0.00312699
0.00330897
0.00353189
0.00419756
0.00452756
0.0481666
0.00424227
0.0610505
0.00427783
0.00298408
0.00419056
0.00421176
0.0548014
0.00438155
0.00460383
0.00352391
0.00816718
0.00867878
0.00343316
0.00328935
0.00332792
0.0145903
0.046416
0.00452096
0.00420827
0.062432
0.00439556
0.00551126
0.00449727
0.015782
0.00297786
0.00684312
0.00460544
0.00342273
0.00464476
0.00440752
0.00422753
0.00282187
0.00427856
0.00446169
0.00432448
0.00458577
0.00425406
0.00476774
0.00432373
0.00417641
0.00621363
0.00350672
0.00395087
0.00461051
0.00910742
0.00301428
0.00459626
0.00467332
0.00408688
0.0061788
0.0495283
0.00396848
0.00343013
0.00410324
0.00434672
0.00312855
0.00447762
0.00427657
0.0105186
0.00455374
0.0660915
0.0092103
0.0330126
0.00455359
0.00455323
0.00440744
0.0448679
0.00336423
0.0031339
0.00467572
0.00307667
0.0208337
0.00456345
0.00402798
0.00893456
0.0039502
0.0313287
0.00365605
0.00446048
0.00433084
0.00416916
0.00430673
0.00617186
0.00278632
0.0130596
0.054174
0.00459823
0.00308754
0.00385387
0.00513031
0.0156849
0.00332198
0.00438977
0.0040658
0.00316466
0.00454635
0.00467246
0.0046786
0.00570793
0.00411887
0.0046067
0.00371772
0.00520731
0.00322584
0.00452762
0.00813599
0.00404332
0.00407683
0.00398915
0.0045565
0.00430384
0.0044747
0.0141704
0.00449603
0.015377
0.00399773
0.00341303
0.00450942
0.00417981
0.00450433
0.00437533
0.00341874
0.0133675
0.00643592
0.0542552
0.00904902
0.0466555
0.00419325
0.00423535
0.00254638
0.00462868
0.00325598
0.0204947
0.00428954
0.0048836
0.00388831
0.0299895
0.00421974
0.00319408
0.00455148
0.0516623
0.004695
0.0333385
0.00419944
0.00453314
0.00505837
0.0101186
0.00420533
0.00531385
0.00399528
0.00437391
0.0198473
0.00558637
0.0239144
0.00351832
0.00251807
0.0132973
0.00464225
0.00461005
0.00371238
0.00457198
0.00344114
0.00331947
0.00346998
0.00390495
0.00301495
0.0530664
0.00437302
0.00432902
0.00430891
0.00457397
0.00285152
0.00340316
0.0042232
0.00332562
0.0424337
0.00455181
0.055815
0.00743565
0.00450676
0.00474694
0.00389315
0.00309165
0.00317966
0.0277646
0.00442005
0.00452772
0.0537443
0.00437224
0.00458655
0.00355392
0.0045444
0.0044515
0.0316216
0.0044687
0.0351474
0.00397465
0.00397085
0.00429263
0.00430357
0.00850926
0.00324829
0.011702
0.0044449
0.00279407
0.00552083
0.00306853
0.003007
0.00528024
0.00556366
0.00424191
0.00923988
0.0159757
0.00406709
0.00432274
0.00351189
0.00380968
0.00462742
0.00350401
0.0499034
0.00425837
0.00468924
0.00450624
0.00403898
0.00289076
0.00322107
0.00331242
0.0767325
0.00461918
0.00587812
0.00555703
0.00457368
0.00392824
0.00424927
0.00428527
0.0699748
0.00449423
0.0168899
0.0247238
0.0045661
0.00449573
0.00464923
0.0330988
0.0356063
0.0226437
0.00334619
0.00456512
0.00430066
0.00326588
0.045547
0.00656547
0.00302705
0.00434045
0.00616276
0.0117891
0.00534468
0.00417199
0.0128128
0.0285079
0.00405083
0.00382831
0.00430645
0.00436292
0.0320282
0.00321779
0.00369278
0.00460053
0.00467465
0.00414915
0.0487893
0.00367875
0.00290995
0.00876809
0.00803203
0.00436733
0.0144232
0.00597572
0.004622
0.00305358
0.00301581
0.00412938
0.0618865
0.00453617
0.00442428
0.00423665
0.00508076
0.00310599
0.0043546
0.00455818
0.00461495
0.00456124
0.00468819
0.00329218
0.00442942
0.0073063
0.00419099
0.0045603
0.049514
0.00444376
0.00352023
0.00357708
0.00421405
0.00351868
0.00533752
0.00453066
0.00456627
0.00448692
0.00303333
0.00449712
0.00429209
0.00441832
0.0034075
0.00613978
0.00315288
0.00622741
0.00429579
0.00609936
0.00415807
0.00467559
0.00441238
0.0045868
0.00315595
0.00413952
0.00326577
0.00412254
0.00420441
0.00451056
0.00447225
0.0334327
0.0054687
0.0154049
0.00468828
0.00289795
0.0631091
0.00323622
0.00284787
0.00439377
0.00548863
0.0148959
0.00472755
0.00318741
0.0051863
0.00376766
0.00307081
0.0045022
0.0692138
0.00309108
0.00414509
0.00412529
0.00402157
0.00361024
0.00285019
0.00487104
0.00307168
0.0552279
0.0246685
0.0044875
0.00433318
0.0137297
0.0132435