/*--------------------------------*- C++ -*----------------------------------*\
| =========                 |                                                 |
| \\      /  F ield         | OpenFOAM: The Open Source CFD Toolbox           |
|  \\    /   O peration     | Version:  3.0.1                                 |
|   \\  /    A nd           | Web:      www.OpenFOAM.org                      |
|    \\/     M anipulation  |                                                 |
\*---------------------------------------------------------------------------*/
FoamFile
{
    version     2.0;
    format      ascii;
    class       surfaceVectorField;
    location    "0.66303";
    object      Uf;
}
// * * * * * * * * * * * * * * * * * * * * * * * * * * * * * * * * * * * * * //

dimensions      [0 1 -1 0 0 0 0];

internalField   nonuniform List<vector> 
32369
(
(4.08625 -1.40417 -7.62767e-19)
(4.40654 -0.929306 5.27434e-18)
(5.90673 -1.65805 -8.3377e-19)
(4.33466 -1.18594 0)
(3.4762 -0.830977 -2.7075e-18)
(5.01116 -1.00293 0)
(4.32599 -1.09535 0)
(3.74405 -1.0733 0)
(4.7751 -0.79862 1.28572e-20)
(4.19244 -0.971936 -2.51143e-20)
(3.8517 -1.12588 0)
(4.52282 -0.701643 -2.8546e-20)
(3.992 -0.800455 -3.287e-20)
(3.80219 -1.04161 -3.35884e-19)
(4.22501 -0.593632 1.77716e-20)
(3.76164 -0.620819 1.06035e-20)
(3.67922 -0.876982 2.20947e-19)
(3.92624 -0.465415 1.71914e-21)
(3.5404 -0.48041 6.57772e-21)
(3.53225 -0.695012 1.76398e-20)
(3.66424 -0.358747 1.02447e-19)
(3.35426 -0.393843 3.87284e-20)
(3.37619 -0.539699 -2.14486e-20)
(3.44205 -0.289154 -1.65838e-19)
(3.19969 -0.359703 2.43452e-20)
(3.23704 -0.451231 4.67082e-20)
(3.25825 -0.263004 4.64231e-20)
(3.07048 -0.369013 0)
(3.11794 -0.421802 0)
(3.10559 -0.276805 -5.04607e-20)
(3.02692 -0.439078 3.97331e-22)
(2.98973 -0.322503 -5.72297e-20)
(2.96266 -0.419762 0)
(3.16016 -0.182634 5.15928e-19)
(3.77832 0.512422 4.72299e-18)
(3.25548 -0.697503 -2.67372e-18)
(3.01775 0.0179511 -4.52433e-18)
(3.40446 -0.969944 0)
(3.12166 -0.57384 0)
(3.51824 -1.0788 -2.10147e-19)
(3.23495 -0.908094 -1.163e-19)
(3.55593 -1.05413 -1.62258e-19)
(3.29534 -1.04621 -2.25618e-19)
(3.51141 -0.923411 2.19459e-19)
(3.31718 -1.034 5.26537e-19)
(3.41116 -0.746232 -3.47424e-20)
(3.29976 -0.909705 -3.23182e-19)
(3.29144 -0.593859 -5.93739e-20)
(3.24092 -0.73612 6.94359e-20)
(3.17842 -0.508177 1.98722e-20)
(3.16798 -0.600267 -7.32181e-21)
(3.08235 -0.483541 3.48582e-22)
(3.09389 -0.52878 0)
(3.03534 -0.520429 1.74645e-20)
(3.00037 -0.518286 3.95413e-21)
(3.33999 0.800087 -2.54523e-18)
(3.87302 1.44951 -8.33142e-20)
(3.00427 0.0619749 -2.34882e-18)
(3.20754 0.739042 -2.06713e-18)
(2.94506 -0.45034 -9.88037e-20)
(2.974 0.062426 0)
(2.99956 -0.787123 -1.24145e-19)
(2.90114 -0.432119 1.49599e-20)
(3.08122 -0.968942 2.78525e-19)
(2.90654 -0.749611 -1.59457e-21)
(3.14271 -0.990102 1.12803e-19)
(2.95077 -0.921301 4.29917e-19)
(3.16609 -0.888114 -3.10191e-19)
(3.00422 -0.928044 -6.50183e-19)
(3.14828 -0.738325 8.20205e-20)
(3.03728 -0.817635 3.53794e-19)
(3.10611 -0.618258 -2.71733e-20)
(3.04574 -0.684291 -1.47674e-20)
(3.05725 -0.560348 1.49751e-20)
(3.03128 -0.591054 7.27292e-20)
(3.0155 -0.561855 7.59912e-20)
(3.00794 -0.577728 9.22921e-20)
(3.77724 1.40903 0)
(4.23001 1.87764 0)
(3.18486 0.69975 0)
(3.52811 1.20775 1.9068e-19)
(2.88787 0.114099 9.79361e-20)
(3.07437 0.592027 1.14941e-18)
(2.7736 -0.349077 1.21461e-19)
(2.8195 0.0647831 -7.51607e-19)
(2.76131 -0.672594 9.14328e-20)
(2.70337 -0.358032 0)
(2.81457 -0.841516 -1.93109e-19)
(2.68813 -0.64854 -9.59106e-20)
(2.89101 -0.857538 -1.86208e-19)
(2.74074 -0.780506 -9.691e-19)
(2.95427 -0.771022 3.08693e-19)
(2.82045 -0.767212 7.8523e-19)
(2.98879 -0.663038 9.02391e-20)
(2.89535 -0.68111 -1.47142e-19)
(2.99848 -0.591715 1.3221e-19)
(2.94301 -0.597341 1.06881e-19)
(2.9726 -0.560308 2.33919e-19)
(2.99209 -0.585831 -1.55137e-20)
(4.11374 1.72139 1.69171e-19)
(4.44714 1.9737 -7.06644e-19)
(3.44369 1.13094 1.227e-18)
(3.78144 1.50533 -1.38197e-18)
(2.9996 0.578733 4.4594e-19)
(3.24904 0.982508 2.1717e-18)
(2.73177 0.0909387 -9.42369e-19)
(2.8725 0.483094 -1.39937e-18)
(2.60706 -0.30236 -1.56037e-19)
(2.64424 0.0389904 5.53316e-19)
(2.59673 -0.569156 -7.47279e-19)
(2.54654 -0.311771 4.90335e-19)
(2.66507 -0.690647 -2.00527e-19)
(2.55833 -0.531727 -8.72458e-19)
(2.76571 -0.688518 4.66126e-19)
(2.64264 -0.610158 5.2062e-19)
(2.85771 -0.62658 -1.74542e-19)
(2.75442 -0.591431 -5.05815e-21)
(2.92224 -0.569416 1.71654e-19)
(2.85065 -0.542735 -5.87502e-20)
(2.92227 -0.51598 9.48763e-20)
(2.96023 -0.556146 1.47267e-20)
(4.20987 1.79981 -2.17584e-18)
(4.46991 1.90644 -1.47254e-19)
(3.64418 1.39884 -8.63037e-19)
(3.95493 1.67063 -2.02154e-18)
(3.15002 0.932997 6.50886e-19)
(3.4293 1.25923 8.13985e-19)
(2.78993 0.475431 -7.38382e-20)
(2.98937 0.821279 -7.38786e-19)
(2.57241 0.0693624 1.19712e-18)
(2.68176 0.398778 7.78239e-19)
(2.48982 -0.246777 3.79722e-19)
(2.51017 0.0325859 6.56631e-19)
(2.5209 -0.44279 -3.06062e-19)
(2.46937 -0.237043 -8.35171e-20)
(2.62363 -0.519285 1.43745e-19)
(2.53312 -0.385742 -5.49333e-19)
(2.74562 -0.517811 1.04727e-19)
(2.65418 -0.434739 1.87383e-20)
(2.84982 -0.494739 -1.77997e-19)
(2.77797 -0.434461 -8.42634e-20)
(2.87994 -0.43327 -2.04269e-19)
(2.92433 -0.492347 -7.53942e-20)
(4.25635 1.78627 2.13761e-19)
(4.43019 1.78126 7.53573e-19)
(3.79843 1.54781 -7.0548e-19)
(4.04219 1.70789 -6.11263e-19)
(3.30794 1.18578 -3.96718e-19)
(3.58991 1.42639 -7.78388e-19)
(2.90198 0.78763 1.18227e-20)
(3.13377 1.07514 4.24492e-19)
(2.62175 0.405169 2.54556e-19)
(2.78225 0.698872 -4.34588e-19)
(2.47846 0.0771106 1.69539e-19)
(2.55808 0.348621 3.13416e-19)
(2.46537 -0.161985 -3.27303e-19)
(2.46995 0.0610928 6.14545e-19)
(2.54953 -0.299509 -7.2366e-19)
(2.50291 -0.133374 -5.45432e-19)
(2.67714 -0.357535 -1.51359e-19)
(2.61351 -0.239525 1.92225e-19)
(2.80084 -0.377999 -9.73938e-20)
(2.74386 -0.290179 0)
(2.85915 -0.32485 -1.17152e-19)
(2.90027 -0.394408 -9.69021e-20)
(4.23856 1.71763 5.97492e-20)
(4.36496 1.64948 -1.41718e-19)
(3.88025 1.59277 -6.69199e-19)
(4.05091 1.66645 -2.80892e-20)
(3.45547 1.34696 -8.07699e-20)
(3.70235 1.49304 -2.36378e-19)
(3.0425 1.01929 9.09021e-20)
(3.2843 1.24345 3.3755e-19)
(2.72947 0.681845 -3.98469e-19)
(2.91879 0.924559 -6.39111e-19)
(2.54538 0.368613 7.0179e-19)
(2.6684 0.611053 3.1315e-19)
(2.49376 0.113285 4.41009e-19)
(2.54736 0.329728 3.54722e-19)
(2.55071 -0.0645922 2.77235e-19)
(2.54972 0.112095 0)
(2.66656 -0.172364 3.46034e-19)
(2.63839 -0.0357314 1.38853e-19)
(2.79199 -0.237458 6.42057e-22)
(2.75892 -0.130755 -1.72455e-19)
(2.87412 -0.199904 1.30326e-19)
(2.89998 -0.289382 -3.06682e-20)
(4.19338 1.63188 -2.36379e-19)
(4.29379 1.52625 -8.30759e-19)
(3.91198 1.56356 4.28367e-19)
(4.03203 1.60392 4.21873e-19)
(3.56659 1.41533 1.30828e-19)
(3.76232 1.48325 3.42718e-19)
(3.19377 1.17259 -2.91091e-19)
(3.41817 1.32713 -4.04108e-20)
(2.8741 0.887704 0)
(3.0727 1.07489 -1.71645e-19)
(2.672 0.605763 -1.51462e-20)
(2.82044 0.806837 -2.2484e-19)
(2.59359 0.35404 -1.87838e-20)
(2.68372 0.546935 -1.86389e-19)
(2.62237 0.154763 -1.34451e-19)
(2.66126 0.323838 -1.0013e-19)
(2.71567 0.0110218 -3.20752e-19)
(2.72307 0.150162 -1.50889e-19)
(2.82746 -0.0910986 -9.645e-20)
(2.8219 0.0210206 -2.07691e-19)
(2.92239 -0.0796738 3.0569e-19)
(2.9254 -0.1722 3.5422e-19)
(4.14456 1.54542 -1.8318e-19)
(4.23221 1.41366 -4.02558e-19)
(3.92054 1.50755 3.40095e-19)
(4.00987 1.53603 2.20908e-19)
(3.64638 1.41757 2.00951e-19)
(3.80043 1.43469 0)
(3.33305 1.25036 9.78428e-20)
(3.52879 1.34331 2.24227e-19)
(3.04032 1.02331 -3.91155e-19)
(3.23106 1.15625 -1.72058e-19)
(2.83943 0.778727 -3.70478e-19)
(2.99719 0.934136 -2.59753e-20)
(2.74691 0.542479 -2.5667e-19)
(2.85969 0.702356 -2.77801e-19)
(2.75066 0.336437 -1.11015e-19)
(2.81971 0.485501 3.72048e-19)
(2.81632 0.170246 -5.15154e-20)
(2.85438 0.299522 -2.44803e-19)
(2.90473 0.0398753 9.46854e-20)
(2.92581 0.147766 -4.26116e-20)
(3.00309 0.0234555 1.18805e-19)
(2.99345 -0.0624323 -2.97807e-20)
(4.1056 1.4615 5.9815e-20)
(4.18679 1.31107 2.98926e-19)
(3.92496 1.43841 -9.78582e-20)
(3.99513 1.46673 2.42304e-19)
(3.7095 1.38035 0)
(3.83159 1.36561 -2.5767e-19)
(3.45928 1.26596 0)
(3.62153 1.31389 0)
(3.21129 1.09168 1.78714e-19)
(3.3825 1.17637 1.28566e-19)
(3.02891 0.885033 9.27072e-20)
(3.18298 0.996555 1.91454e-19)
(2.93331 0.670095 2.69056e-19)
(3.05605 0.794044 -1.35743e-19)
(2.91712 0.467621 2.98423e-19)
(3.00566 0.590382 2.94612e-19)
(2.95467 0.29077 -2.65255e-19)
(3.01587 0.402592 -1.26736e-19)
(3.01541 0.142225 -6.28131e-20)
(3.05866 0.239018 1.45129e-19)
(3.11048 0.0999984 -9.74776e-21)
(3.07924 0.0180053 3.21558e-19)
(4.07863 1.37861 4.91472e-19)
(4.15486 1.21493 4.65629e-19)
(3.93178 1.36149 2.19043e-19)
(3.98975 1.39586 3.75823e-19)
(3.76366 1.31861 -2.84702e-19)
(3.86267 1.28469 -3.00442e-20)
(3.57185 1.23623 1.15642e-19)
(3.70267 1.25504 -1.78461e-19)
(3.37573 1.10137 1.33188e-19)
(3.52253 1.14911 -1.83206e-20)
(3.22322 0.928479 -9.50873e-21)
(3.36481 1.00306 -4.92077e-21)
(3.13296 0.736729 -1.50046e-19)
(3.2554 0.827361 2.76596e-20)
(3.10266 0.544512 -8.58609e-20)
(3.20104 0.640149 -1.59623e-19)
(3.11467 0.366295 2.42048e-19)
(3.19127 0.45744 1.6657e-19)
(3.1467 0.209561 2.08806e-19)
(3.20659 0.290035 4.93071e-20)
(3.22919 0.142589 1.10781e-19)
(3.18223 0.0772828 -1.50825e-19)
(4.06643 1.29882 3.61954e-19)
(4.13929 1.12598 7.30493e-20)
(3.9471 1.28132 2.53028e-19)
(3.99905 1.3245 3.79431e-19)
(3.81638 1.24253 5.90693e-20)
(3.90092 1.20005 2.37691e-19)
(3.67482 1.1764 -3.29943e-19)
(3.78091 1.17885 -2.63566e-19)
(3.52974 1.06728 -1.60923e-19)
(3.65259 1.09063 -1.19995e-19)
(3.4099 0.921192 2.62176e-20)
(3.53496 0.967648 1.09117e-20)
(3.33032 0.75073 3.89211e-20)
(3.44634 0.814027 1.63205e-21)
(3.29153 0.571431 5.46608e-20)
(3.39281 0.642919 1.74171e-20)
(3.28229 0.397238 -1.76147e-20)
(3.36819 0.468254 3.93298e-20)
(3.28767 0.237645 -6.31433e-20)
(3.3599 0.301907 -8.80491e-20)
(3.35669 0.15162 -3.31812e-21)
(3.30183 0.0986238 1.04599e-19)
(4.0737 1.22362 1.46796e-19)
(4.14636 1.04507 -2.1175e-19)
(3.97684 1.20101 4.3116e-19)
(4.02785 1.25209 3.22443e-19)
(3.87619 1.16033 -8.63187e-20)
(3.95044 1.11589 -5.73095e-21)
(3.77527 1.09932 -6.65344e-20)
(3.86254 1.09412 -8.45989e-20)
(3.67267 1.0048 4.1414e-20)
(3.77457 1.01422 1.33777e-19)
(3.58313 0.877286 -1.39874e-20)
(3.6913 0.905048 -6.11219e-20)
(3.5166 0.724156 -2.3185e-20)
(3.62324 0.767203 1.80996e-20)
(3.47389 0.557121 -5.34535e-21)
(3.57395 0.608937 -3.40575e-20)
(3.44808 0.388768 -1.84502e-20)
(3.53922 0.441787 -6.64625e-21)
(3.4299 0.230372 -4.07565e-20)
(3.51057 0.27825 -6.00185e-21)
(3.48242 0.126917 -3.84217e-20)
(3.41634 0.0901611 -1.01882e-19)
(4.09817 1.14917 -2.50702e-21)
(4.16894 0.969183 4.88135e-20)
(4.02009 1.12127 -3.18695e-20)
(4.06997 1.17907 1.03965e-19)
(3.94359 1.07573 -1.51295e-20)
(4.01037 1.03354 -1.9987e-20)
(3.87324 1.01412 9.35022e-20)
(3.94722 1.00725 -7.91264e-20)
(3.80381 0.926383 5.04007e-20)
(3.88932 0.930257 1.04344e-19)
(3.74062 0.810066 -3.78832e-20)
(3.83427 0.827806 -1.58083e-19)
(3.68795 0.668537 1.25544e-20)
(3.78564 0.698801 7.14344e-20)
(3.64494 0.510199 -3.85075e-20)
(3.74291 0.547758 -7.05921e-20)
(3.60639 0.346685 1.11614e-20)
(3.7012 0.384488 1.76125e-20)
(3.56684 0.19016 3.64265e-21)
(3.65459 0.22264 -9.69086e-21)
(3.60094 0.0717618 7.1411e-21)
(3.52671 0.051786 -1.40691e-19)
(4.13776 1.07736 1.49175e-19)
(4.20653 0.896496 1.34364e-19)
(4.07489 1.04357 1.83323e-19)
(4.12446 1.10821 8.32303e-20)
(4.01787 0.992873 -9.89045e-20)
(4.07938 0.955321 -6.25002e-21)
(3.9703 0.92851 -8.73411e-20)
(4.03507 0.92375 -4.3318e-20)
(3.92649 0.842719 -7.81109e-20)
(3.99998 0.847391 -2.76274e-20)
(3.88574 0.731194 -7.25381e-20)
(3.96862 0.746492 -4.44251e-20)
(3.84685 0.594307 3.55476e-21)
(3.93851 0.618823 -2.37459e-20)
(3.80541 0.438361 -2.39885e-20)
(3.9035 0.466863 1.47443e-21)
(3.75583 0.275379 1.02878e-21)
(3.85556 0.300982 -1.57868e-20)
(3.6957 0.119971 -8.39212e-21)
(3.79017 0.138052 -1.45727e-20)
(3.71177 -0.0112301 3.05592e-21)
(3.63477 -0.0175272 2.19325e-21)
(4.19269 1.00895 2.07098e-20)
(4.26036 0.825329 4.76147e-20)
(4.14073 0.969583 -4.21814e-20)
(4.19034 1.04025 -3.93656e-20)
(4.09901 0.915356 3.22264e-20)
(4.15467 0.883148 -5.49541e-20)
(4.06884 0.848563 1.53139e-20)
(4.12575 0.848519 3.58462e-20)
(4.04607 0.762267 8.6222e-21)
(4.11038 0.773084 -3.07321e-20)
(4.0258 0.64973 3.67895e-21)
(4.10202 0.669529 1.14528e-19)
(4.00057 0.508849 -2.72642e-20)
(4.09132 0.533848 -8.72435e-21)
(3.96035 0.346275 1.34148e-20)
(4.06362 0.369405 3.09639e-20)
(3.89782 0.177549 -2.82203e-20)
(4.00614 0.191583 -6.32723e-21)
(3.8139 0.0218583 -5.35726e-21)
(3.91632 0.0237342 3.13463e-21)
(3.80371 -0.122816 0)
(3.72789 -0.105634 5.97935e-20)
(4.25779 0.942094 -5.7025e-20)
(4.32234 0.756184 -5.04977e-20)
(4.21216 0.900712 -1.97742e-20)
(4.25985 0.976368 1.16196e-19)
(4.18266 0.84639 -6.04604e-20)
(4.23104 0.819877 -8.33019e-20)
(4.16865 0.780473 -2.7619e-21)
(4.21746 0.789311 0)
(4.16793 0.692891 6.00154e-20)
(4.22598 0.717009 -3.07813e-21)
(4.1706 0.572242 1.17742e-19)
(4.24671 0.604227 -1.30733e-19)
(4.15965 0.414875 4.88897e-20)
(4.25872 0.445088 -3.64786e-20)
(4.11695 0.232928 1.52822e-20)
(4.23428 0.251094 0)
(4.03419 0.0505706 2.01521e-20)
(4.15719 0.0500931 1.72306e-20)
(3.91812 -0.107013 8.9156e-21)
(4.03168 -0.125522 -1.97011e-20)
(3.87849 -0.26386 -6.85416e-21)
(3.79343 -0.22627 0)
(4.32677 0.877997 1.01264e-19)
(4.38549 0.690118 1.61007e-22)
(4.28324 0.839148 1.14898e-19)
(4.32502 0.919242 -5.41536e-20)
(4.26671 0.79227 -3.15659e-20)
(4.30228 0.778343 -2.84009e-20)
(4.27516 0.734636 0)
(4.31134 0.767011 4.06739e-20)
(4.30604 0.644033 -1.86929e-19)
(4.36019 0.694162 -3.08544e-20)
(4.33748 0.502043 -3.03821e-19)
(4.42242 0.549553 1.28883e-21)
(4.33837 0.307259 -8.95631e-20)
(4.45802 0.333722 3.50862e-20)
(4.28346 0.0882766 0)
(4.42414 0.0888811 -5.11926e-20)
(4.16663 -0.114557 -2.47909e-20)
(4.30869 -0.139367 0)
(4.00649 -0.271198 -3.7175e-20)
(4.13032 -0.318533 3.99912e-20)
(3.92754 -0.435513 2.97055e-20)
(3.84962 -0.374696 -5.19208e-21)
(4.39326 0.817952 -1.47441e-19)
(4.44727 0.64072 -9.39754e-20)
(4.34613 0.795758 -1.81491e-19)
(4.36719 0.890761 1.45458e-19)
(4.34299 0.781163 3.62158e-20)
(4.34371 0.795744 -1.73196e-20)
(4.38396 0.74546 1.30995e-20)
(4.39856 0.798898 -1.63529e-19)
(4.45737 0.634834 9.57835e-20)
(4.51324 0.658983 -3.05743e-20)
(4.52646 0.426457 2.26042e-19)
(4.61776 0.393692 3.03465e-19)
(4.53648 0.156939 1.45126e-20)
(4.65567 0.0853334 2.82168e-19)
(4.4501 -0.112019 -5.70129e-20)
(4.5876 -0.203961 -1.02244e-19)
(4.28132 -0.332834 2.52158e-20)
(4.42133 -0.432221 0)
(4.06728 -0.476071 3.85068e-20)
(4.18895 -0.573851 2.85296e-20)
(3.93395 -0.640676 3.9453e-20)
(3.86925 -0.545973 3.62931e-21)
(4.43644 0.798719 4.05509e-20)
(4.41173 0.652881 -1.56759e-19)
(4.3396 0.832842 2.46115e-19)
(4.29063 0.910219 2.1106e-19)
(4.3787 0.854838 -1.99437e-19)
(4.31755 0.840206 -1.11087e-19)
(4.52043 0.732793 -2.23867e-19)
(4.48259 0.646633 -4.69569e-19)
(4.69437 0.450849 1.40602e-19)
(4.66215 0.305696 2.75725e-19)
(4.76799 0.0938137 3.86387e-19)
(4.75641 -0.0734965 -3.23848e-21)
(4.71585 -0.236151 2.04613e-19)
(4.73165 -0.399377 1.81677e-19)
(4.56129 -0.497106 -5.67093e-20)
(4.60618 -0.659272 -5.08275e-20)
(4.33122 -0.665305 0)
(4.39335 -0.831591 0)
(4.06792 -0.738803 -6.84605e-22)
(4.1311 -0.899399 1.29994e-20)
(3.86608 -0.881255 -7.7598e-22)
(3.83901 -0.749977 -2.96013e-20)
(4.21658 0.870032 -1.03501e-20)
(4.0435 0.870315 0)
(4.2705 0.834027 -6.24983e-20)
(4.14315 0.694033 -3.74403e-20)
(4.49639 0.615927 -6.35886e-20)
(4.38293 0.431686 -3.31395e-19)
(4.69242 0.221208 3.57493e-19)
(4.58447 -0.00951167 2.38929e-19)
(4.76217 -0.180486 2.29812e-20)
(4.66345 -0.384706 2.6662e-19)
(4.74373 -0.521192 -3.70927e-19)
(4.66999 -0.699354 -3.57636e-19)
(4.64243 -0.794393 -9.74486e-20)
(4.60898 -0.952828 -8.66165e-20)
(4.4586 -0.982937 0)
(4.47447 -1.13438 0)
(4.20787 -1.07126 1.15136e-20)
(4.25773 -1.22886 0)
(3.93864 -1.0539 1.45349e-20)
(3.97462 -1.21841 5.27232e-20)
(3.70417 -1.10878 -2.45545e-21)
(3.7275 -0.975729 -2.28468e-20)
(3.98318 0.576766 2.57646e-19)
(3.84609 0.586611 1.58578e-19)
(4.38577 0.216674 3.29818e-19)
(4.3164 -0.0719657 -1.1196e-20)
(4.51162 -0.182896 1.20474e-19)
(4.39423 -0.391623 8.46147e-21)
(4.57304 -0.532893 1.323e-19)
(4.44769 -0.722443 3.40509e-19)
(4.58209 -0.83835 -1.331e-19)
(4.47575 -0.989682 1.29586e-19)
(4.54362 -1.08587 -1.07384e-19)
(4.47352 -1.19411 -4.1053e-19)
(4.45356 -1.26689 0)
(4.43603 -1.34888 1.00639e-19)
(4.29533 -1.37452 0)
(4.34877 -1.45545 -8.36968e-20)
(4.05284 -1.39146 -1.20359e-20)
(4.18529 -1.49713 9.99035e-20)
(3.7616 -1.30489 -1.74184e-20)
(3.92192 -1.43905 -4.22322e-20)
(3.60988 -1.27061 -2.43873e-21)
(3.53612 -1.16341 -2.39331e-20)
(4.29006 -0.22159 -1.47134e-19)
(4.3359 -1.51195 3.52844e-19)
(4.32612 -0.564537 -2.98203e-19)
(4.21276 -0.942333 -3.5918e-19)
(4.34229 -0.86615 1.79168e-19)
(4.20561 -1.0772 7.96039e-21)
(4.35124 -1.10296 3.3473e-19)
(4.24399 -1.20961 1.71958e-19)
(4.3609 -1.27991 -9.45226e-20)
(4.29045 -1.32095 -1.04675e-19)
(4.36071 -1.41381 -2.82221e-19)
(4.33249 -1.42305 -4.31864e-19)
(4.33288 -1.51203 3.81851e-20)
(4.3542 -1.51421 1.23235e-19)
(4.25117 -1.56884 -2.97929e-20)
(4.33695 -1.58893 -4.97827e-20)
(4.08053 -1.55625 1.05535e-19)
(4.25409 -1.62576 9.72372e-20)
(3.80383 -1.43908 -3.19e-20)
(4.06993 -1.58228 -2.82246e-20)
(3.77648 -1.41546 0)
(3.51738 -1.28746 2.70889e-20)
(6.14537 -0.3259 -1.88061e-19)
(6.00807 0.507187 1.16455e-19)
(5.4643 -0.361677 1.10228e-20)
(5.72409 0.378532 4.94674e-19)
(5.00084 -0.401602 -1.78766e-19)
(5.3632 0.165815 -3.41913e-19)
(4.58933 -0.38983 -6.29249e-20)
(4.96224 0.0209459 -2.40975e-20)
(4.21179 -0.331512 4.80761e-20)
(4.54381 -0.0447644 -1.51704e-19)
(3.88249 -0.256071 8.10951e-20)
(4.14276 -0.0499632 1.68818e-19)
(3.60512 -0.197461 -6.11001e-20)
(3.79191 -0.0341434 -5.82456e-20)
(3.37671 -0.17096 -1.09847e-19)
(3.50367 -0.0289841 -2.36903e-19)
(3.18804 -0.180679 -4.24019e-21)
(3.2701 -0.0490778 -8.17678e-20)
(3.03016 -0.226424 -1.06568e-19)
(3.07935 -0.0970334 -1.41375e-19)
(2.93429 -0.167889 1.28209e-19)
(2.8989 -0.310082 1.49274e-19)
(5.74258 1.32307 6.18951e-19)
(5.45829 1.75356 -2.83112e-19)
(5.55064 0.898836 1.24484e-19)
(5.48533 1.4225 2.32218e-19)
(5.26013 0.566729 -3.42294e-19)
(5.37356 1.07476 -4.95208e-19)
(4.88293 0.341412 -2.11354e-19)
(5.10945 0.785821 1.50703e-19)
(4.46699 0.216993 -1.77291e-19)
(4.7368 0.574585 -2.72905e-20)
(4.06414 0.16169 5.4219e-20)
(4.31537 0.441491 1.5017e-19)
(3.71156 0.13179 -2.28509e-19)
(3.90847 0.356257 -2.64344e-19)
(3.42072 0.0964988 -1.99035e-19)
(3.55964 0.28504 5.07517e-20)
(3.18398 0.0426372 -1.88347e-19)
(3.27574 0.208453 -7.22879e-20)
(2.98886 -0.0360909 -1.22267e-20)
(3.04445 0.119682 -6.97245e-20)
(2.86596 0.0251536 2.0343e-19)
(2.82275 -0.144827 1.38899e-19)
(5.3213 1.89617 -3.91693e-19)
(5.15354 2.06433 1.74865e-19)
(5.33925 1.63802 -3.40661e-19)
(5.20682 1.9229 1.6706e-19)
(5.22202 1.33706 -6.02617e-20)
(5.19037 1.68171 -2.29784e-19)
(4.96196 1.05174 3.29136e-19)
(5.04561 1.4241 1.31116e-19)
(4.59287 0.824113 2.1301e-19)
(4.76347 1.18061 -1.72277e-19)
(4.17671 0.659914 -1.62191e-20)
(4.37775 0.980942 0)
(3.77893 0.534326 1.68124e-19)
(3.95537 0.816133 -1.80841e-20)
(3.43852 0.421262 3.21991e-19)
(3.56716 0.663014 1.98244e-19)
(3.15985 0.307934 1.24418e-19)
(3.24502 0.514162 -5.03501e-20)
(2.93254 0.187216 1.70666e-20)
(2.98212 0.368164 0)
(2.77894 0.233511 4.24044e-21)
(2.74064 0.0589795 7.78821e-21)
(5.10379 2.05822 6.28111e-19)
(5.06359 2.05187 8.07421e-20)
(5.11549 1.96228 2.08024e-19)
(5.05881 2.07246 2.1848e-19)
(5.05647 1.79613 -5.30747e-20)
(5.02479 1.95597 3.4652e-20)
(4.88083 1.58354 -3.53294e-19)
(4.91102 1.80941 -6.26005e-20)
(4.57913 1.36686 -4.2868e-19)
(4.68592 1.63202 3.96565e-20)
(4.18618 1.17034 0)
(4.34293 1.45809 -1.91265e-19)
(3.77215 0.985038 0)
(3.92433 1.28777 2.28769e-19)
(3.40075 0.796879 -1.41177e-19)
(3.51001 1.09045 -1.21374e-19)
(3.09304 0.611779 -1.77921e-19)
(3.16172 0.869645 2.08207e-19)
(2.83971 0.434406 -9.85015e-20)
(2.8808 0.654869 -5.09379e-21)
(2.65419 0.480543 -1.77253e-19)
(2.60875 0.257609 5.82959e-20)
(5.03824 2.06425 -3.40123e-19)
(5.05231 1.98945 -7.15414e-20)
(5.00588 2.0398 6.55108e-20)
(5.01106 2.08226 -1.81029e-19)
(4.92639 1.97775 3.86852e-20)
(4.94715 2.02012 -1.02858e-19)
(4.76854 1.86996 2.6363e-19)
(4.81576 1.96138 4.10757e-20)
(4.50517 1.73494 2.32446e-19)
(4.60235 1.86741 1.7061e-19)
(4.13503 1.59135 -8.11677e-21)
(4.2773 1.76056 -1.25913e-20)
(3.70977 1.428 1.46128e-19)
(3.85216 1.65137 -3.77712e-20)
(3.31066 1.21166 2.78306e-19)
(3.39824 1.49925 -1.20434e-19)
(2.98447 0.960932 4.45015e-19)
(3.01359 1.24885 4.33486e-19)
(2.72179 0.71671 -6.09031e-20)
(2.72338 0.965069 1.16182e-19)
(2.50529 0.731474 -1.30517e-19)
(2.48513 0.506823 -4.74524e-20)
(5.02946 2.03692 4.68532e-20)
(5.07213 1.93061 2.81285e-19)
(4.97499 2.03132 -3.32743e-19)
(5.00901 2.06315 -1.82205e-19)
(4.86788 2.00965 -1.09484e-19)
(4.93062 2.00728 -1.48303e-19)
(4.69593 1.96297 -4.39611e-20)
(4.77784 1.98721 -1.39067e-20)
(4.43617 1.89487 -3.24028e-20)
(4.55305 1.94002 -1.44034e-20)
(4.06782 1.81754 -2.10282e-20)
(4.22678 1.87776 7.85986e-20)
(3.61165 1.73068 -1.93073e-19)
(3.79091 1.81612 -2.24733e-19)
(3.15081 1.57985 -1.37873e-20)
(3.27809 1.74 -6.99642e-20)
(2.78177 1.32317 1.46168e-19)
(2.81156 1.54793 -1.12028e-19)
(2.51718 1.02074 1.0621e-19)
(2.49003 1.24226 1.83872e-19)
(2.28021 0.96552 -6.42699e-20)
(2.30193 0.732508 -4.01501e-19)
(5.04777 2.00213 4.66181e-20)
(5.10585 1.87756 5.47941e-19)
(4.98534 2.00363 0)
(5.03037 2.03545 -2.09022e-19)
(4.86251 1.99386 -6.68024e-20)
(4.94928 1.97299 -1.57349e-20)
(4.66931 1.96801 1.92172e-20)
(4.78115 1.96757 -1.98228e-19)
(4.39341 1.92737 8.39469e-20)
(4.54075 1.93691 2.47082e-19)
(4.01575 1.87578 -9.1864e-20)
(4.20084 1.89418 -9.66169e-20)
(3.53183 1.8149 -1.19437e-19)
(3.7431 1.84727 2.82496e-20)
(3.00139 1.72502 -1.53545e-19)
(3.18361 1.79907 5.17904e-20)
(2.55907 1.53488 -9.5011e-20)
(2.62821 1.69156 -1.78187e-19)
(2.2733 1.23633 0)
(2.22819 1.42831 0)
(2.01304 1.1314 0)
(2.07979 0.92203 0)
(5.08321 1.96014 2.4709e-19)
(5.15042 1.82918 7.14302e-19)
(5.01673 1.96565 -2.46277e-19)
(5.06597 2.00007 -2.29478e-19)
(4.88751 1.95916 -1.28449e-19)
(4.9866 1.92582 -1.0286e-19)
(4.68365 1.93924 -1.55461e-20)
(4.80997 1.92825 -1.00966e-19)
(4.39296 1.90953 9.52844e-20)
(4.56297 1.89968 1.52785e-19)
(3.99294 1.86964 -1.8631e-20)
(4.21295 1.86223 -5.43037e-20)
(3.48099 1.81877 9.31477e-20)
(3.73539 1.81836 4.73089e-20)
(2.89837 1.75331 4.85915e-21)
(3.14207 1.77002 8.79032e-20)
(2.35965 1.62386 -4.97032e-20)
(2.50737 1.70386 -3.87603e-20)
(1.9993 1.36923 0)
(1.99606 1.51554 -3.8638e-21)
(1.72561 1.2273 0)
(1.79284 1.04373 -1.97116e-19)
(5.12768 1.91544 8.11311e-20)
(5.2012 1.78617 6.44822e-20)
(5.05897 1.92024 -1.24747e-20)
(5.10672 1.95932 8.6174e-20)
(4.92774 1.91179 -7.99689e-20)
(5.03325 1.86707 -3.44995e-20)
(4.72035 1.88954 3.56926e-20)
(4.85156 1.87561 -1.60401e-20)
(4.42593 1.85886 1.62229e-20)
(4.60574 1.83914 1.90224e-20)
(4.01571 1.81956 7.64454e-22)
(4.25615 1.79575 -4.80267e-21)
(3.4771 1.77045 1.46462e-20)
(3.77102 1.74553 -1.24132e-20)
(2.84579 1.70439 2.35423e-20)
(3.14944 1.68808 1.20213e-20)
(2.22501 1.60196 2.44958e-20)
(2.45502 1.61922 4.93062e-20)
(1.76794 1.40694 -4.2952e-21)
(1.83736 1.48596 -1.75218e-20)
(1.46962 1.23887 8.53698e-21)
(1.5468 1.10989 0)
(5.17548 1.86382 2.723e-20)
(5.24413 1.73737 -2.37053e-19)
(5.10729 1.86735 1.652e-19)
(5.15124 1.90962 1.08346e-19)
(4.9741 1.85421 -2.09006e-20)
(5.08687 1.80012 6.92581e-20)
(4.76815 1.82373 -3.66528e-20)
(4.89678 1.81135 -4.88126e-20)
(4.47796 1.78362 -3.76166e-21)
(4.65824 1.75963 3.0093e-21)
(4.07061 1.73336 -1.63741e-20)
(4.31811 1.70146 -2.19434e-20)
(3.52163 1.6738 -2.79839e-20)
(3.84132 1.6324 -5.08764e-20)
(2.85232 1.59767 4.30953e-20)
(3.20695 1.55804 -4.54449e-20)
(2.1595 1.4938 -1.80246e-20)
(2.4685 1.47133 3.84395e-20)
(1.59893 1.33181 3.33704e-20)
(1.76278 1.35045 -8.43098e-21)
(1.27194 1.14584 4.7622e-20)
(1.29608 1.0687 -3.91852e-20)
(5.21997 1.81622 -1.09924e-19)
(5.287 1.66625 -1.48128e-19)
(5.1505 1.82345 1.23304e-20)
(5.21361 1.85788 3.62336e-20)
(5.01643 1.78329 -4.56395e-20)
(5.11133 1.73008 9.58605e-21)
(4.8186 1.74281 -1.11541e-20)
(4.94398 1.72951 2.18176e-20)
(4.53841 1.68696 -1.49672e-20)
(4.71376 1.66244 -2.63759e-20)
(4.14558 1.61601 -5.34478e-20)
(4.38831 1.5832 -1.06794e-19)
(3.60521 1.53358 -8.51473e-20)
(3.93555 1.48555 6.85301e-20)
(2.91901 1.43791 -5.28323e-20)
(3.31382 1.38019 -2.3776e-20)
(2.1715 1.31923 -1.10545e-20)
(2.5511 1.26916 0)
(1.51642 1.16614 2.09407e-20)
(1.77992 1.13857 -1.24382e-20)
(1.18877 0.944358 1.06046e-19)
(1.1032 0.955652 -1.30622e-19)
(5.26073 1.75904 1.39265e-19)
(5.33113 1.58675 -3.60261e-20)
(5.19645 1.74523 3.04119e-20)
(5.24205 1.7957 4.76245e-20)
(5.05552 1.70291 2.82938e-20)
(5.14929 1.66038 -2.10399e-20)
(4.86789 1.64707 1.72575e-21)
(4.98646 1.63003 5.82312e-20)
(4.60058 1.56927 -1.06624e-19)
(4.76378 1.54781 3.49437e-20)
(4.22987 1.47036 -3.80018e-21)
(4.45618 1.44268 -1.99426e-20)
(3.7171 1.35329 1.62729e-19)
(4.03661 1.31124 -1.54458e-20)
(3.04014 1.2271 4.09577e-20)
(3.46039 1.16105 3.70112e-20)
(2.26367 1.08544 0)
(2.70666 1.01106 0)
(1.54218 0.923467 5.95351e-20)
(1.8913 0.861801 0)
(1.24138 0.672654 -1.57823e-19)
(1.03558 0.761038 3.04353e-19)
(5.29074 1.69476 2.39917e-20)
(5.36548 1.51599 7.7633e-21)
(5.2284 1.67051 -1.05799e-19)
(5.2641 1.7189 -2.41763e-20)
(5.09186 1.61386 7.68279e-22)
(5.17771 1.57935 -1.03692e-20)
(4.91017 1.53743 8.50522e-20)
(5.02001 1.51883 2.17434e-19)
(4.65643 1.43531 1.27806e-19)
(4.80779 1.41618 -1.06469e-19)
(4.31229 1.30491 -4.57022e-20)
(4.5184 1.28142 1.60593e-19)
(3.84681 1.14643 -1.47331e-19)
(4.13138 1.11335 -1.78501e-19)
(3.21656 0.969606 0)
(3.61658 0.913231 1.18999e-19)
(2.43942 0.793912 0)
(2.92961 0.710161 0)
(1.66973 0.620469 -2.00257e-19)
(2.11123 0.533813 0)
(1.37749 0.322554 -3.69857e-19)
(1.05867 0.406959 -1.72128e-19)
(5.30716 1.62405 -3.61625e-20)
(5.38034 1.44535 -1.99016e-20)
(5.24701 1.58425 7.18565e-20)
(5.27393 1.62633 5.17459e-20)
(5.11676 1.50943 1.79573e-19)
(5.19236 1.48418 -1.27274e-20)
(4.94223 1.4105 5.57052e-20)
(5.04402 1.39456 4.69684e-20)
(4.70274 1.28057 -1.17549e-19)
(4.84496 1.26618 -1.7613e-19)
(4.38148 1.11572 7.2341e-20)
(4.57684 1.09977 -6.77938e-20)
(3.95862 0.915333 4.81323e-20)
(4.22314 0.89439 -2.09675e-19)
(3.40663 0.687448 1.32135e-19)
(3.76733 0.647426 6.82259e-19)
(2.70008 0.458304 0)
(3.1745 0.391207 -2.27639e-19)
(1.9153 0.249291 -3.11721e-20)
(2.42178 0.171523 0)
(1.67599 -0.0803352 4.87247e-19)
(1.23376 0.0519081 -4.74492e-19)
(5.31116 1.54249 5.97681e-20)
(5.37808 1.37209 -2.30566e-20)
(5.25234 1.48533 -1.88411e-20)
(5.2687 1.52008 6.80806e-20)
(5.13002 1.39043 -1.52394e-19)
(5.19011 1.37256 1.09436e-19)
(4.9665 1.26634 -1.55939e-19)
(5.05353 1.25387 -1.96445e-19)
(4.74545 1.106 -1.36109e-19)
(4.87162 1.09562 8.06827e-20)
(4.45234 0.904923 -3.3313e-19)
(4.62979 0.894806 1.06294e-20)
(4.07299 0.662346 2.41946e-19)
(4.31565 0.649068 -7.01632e-19)
(3.59101 0.388695 4.8029e-19)
(3.92131 0.361856 8.27488e-19)
(2.98546 0.110596 -2.53151e-19)
(3.42034 0.0712379 2.72007e-20)
(2.26702 -0.138029 4.49106e-19)
(2.78401 -0.195014 -1.89288e-19)
(2.09425 -0.494072 5.06836e-19)
(1.55341 -0.360962 -5.44504e-19)
(5.29643 1.45107 -2.6241e-20)
(5.35368 1.29478 5.8743e-20)
(5.2378 1.37281 8.67849e-20)
(5.24213 1.39977 -7.42522e-20)
(5.12464 1.255 1.12094e-19)
(5.16634 1.24313 2.04197e-19)
(4.97583 1.10267 1.13933e-20)
(5.04408 1.09335 -1.28478e-19)
(4.7787 0.908937 2.3467e-19)
(4.88461 0.900965 1.76143e-19)
(4.52188 0.669433 -2.74618e-19)
(4.67665 0.661342 -3.42431e-19)
(4.19739 0.38617 -3.7724e-19)
(4.41407 0.370459 -3.71072e-19)
(3.79376 0.0800293 5.20345e-19)
(4.08837 0.0582627 5.62123e-19)
(3.29203 -0.226472 4.76355e-20)
(3.68212 -0.251162 -2.10447e-19)
(2.68474 -0.50685 -2.10925e-19)
(3.17313 -0.549489 -3.803e-19)
(2.61313 -0.860495 2.72378e-19)
(1.9724 -0.741779 0)
(5.25681 1.34696 2.55567e-19)
(5.3 1.20865 4.7452e-21)
(5.19776 1.2437 1.29936e-20)
(5.18726 1.26202 -7.41664e-20)
(5.09564 1.09885 1.11135e-20)
(5.11461 1.09097 2.37376e-19)
(4.96602 0.913382 9.97961e-21)
(5.00941 0.906039 6.12595e-20)
(4.7995 0.680353 -3.1179e-19)
(4.8788 0.673674 -2.6645e-19)
(4.589 0.395609 -4.37223e-19)
(4.71397 0.388361 -4.94873e-19)
(4.32955 0.0799682 4.19056e-19)
(4.51306 0.0722125 4.49165e-19)
(4.0126 -0.241483 -7.76146e-20)
(4.26659 -0.247073 -2.06729e-19)
(3.61926 -0.563692 -6.39271e-19)
(3.95788 -0.56922 -4.33555e-20)
(3.13982 -0.870264 -7.92934e-20)
(3.57137 -0.888939 -3.55444e-19)
(3.13477 -1.21991 5.00086e-19)
(2.55044 -1.17541 -1.40093e-19)
(5.1858 1.22483 -3.05478e-19)
(5.20985 1.1078 -1.46419e-20)
(5.12533 1.09254 1.76651e-19)
(5.09511 1.10169 -5.73536e-20)
(5.03607 0.915197 3.00778e-19)
(5.02389 0.909203 3.02265e-19)
(4.93079 0.689398 -1.87131e-19)
(4.93444 0.684528 1.62853e-19)
(4.80305 0.410664 -4.25961e-19)
(4.835 0.41158 -3.80576e-19)
(4.64895 0.099127 2.70013e-19)
(4.72607 0.105989 -2.21923e-19)
(4.46502 -0.220345 -6.79541e-20)
(4.5979 -0.210999 5.2841e-19)
(4.2386 -0.548154 -1.76744e-19)
(4.43698 -0.538038 -6.81946e-20)
(3.95484 -0.87841 2.74991e-19)
(4.22963 -0.869449 8.36693e-20)
(3.60389 -1.18835 1.76364e-20)
(3.96784 -1.1956 9.46036e-20)
(3.67637 -1.51431 -9.49514e-20)
(3.12607 -1.48937 2.53754e-20)
(5.07503 1.07966 2.20083e-19)
(5.07212 0.982016 3.88994e-20)
(5.00942 0.913679 8.43858e-20)
(4.95006 0.914908 -2.92539e-20)
(4.92894 0.696765 1.72662e-19)
(4.86989 0.696978 1.27195e-19)
(4.8434 0.431408 2.05415e-20)
(4.79399 0.443031 4.15556e-20)
(4.76017 0.135198 -2.74658e-19)
(4.73411 0.153454 -3.67013e-20)
(4.67495 -0.174376 -1.44663e-19)
(4.6862 -0.155116 -1.16395e-19)
(4.57345 -0.499957 6.30612e-19)
(4.63449 -0.479515 2.16503e-19)
(4.4434 -0.835895 1.7806e-19)
(4.56357 -0.811466 1.58971e-19)
(4.2725 -1.17025 -1.5099e-19)
(4.45929 -1.142 -1.21254e-19)
(4.05305 -1.48533 8.76347e-20)
(4.31513 -1.46366 -2.99896e-19)
(4.14176 -1.76934 -6.42119e-20)
(3.73514 -1.82047 -1.10745e-19)