/*--------------------------------*- C++ -*----------------------------------*\
| =========                 |                                                 |
| \\      /  F ield         | OpenFOAM: The Open Source CFD Toolbox           |
|  \\    /   O peration     | Version:  3.0.1                                 |
|   \\  /    A nd           | Web:      www.OpenFOAM.org                      |
|    \\/     M anipulation  |                                                 |
\*---------------------------------------------------------------------------*/
FoamFile
{
    version     2.0;
    format      ascii;
    class       volVectorField;
    location    "0.871144";
    object      U;
}
// * * * * * * * * * * * * * * * * * * * * * * * * * * * * * * * * * * * * * //

dimensions      [0 1 -1 0 0 0 0];

internalField   nonuniform List<vector> 
21246
(
(7.619 -4.06689 -1.70342e-20)
(6.50899 -3.56866 2.60778e-19)
(6.09989 -2.8506 0)
(5.76829 -2.28509 5.20155e-20)
(5.43065 -1.83135 -4.94274e-21)
(5.10936 -1.48425 4.78e-21)
(4.81299 -1.22284 5.90355e-20)
(4.53998 -1.01952 3.94507e-20)
(4.29421 -0.858007 1.56112e-20)
(4.07338 -0.728448 0)
(3.87593 -0.636875 -9.38605e-20)
(4.1439 -4.96891 -7.43846e-18)
(4.41974 -4.52773 5.22104e-18)
(4.71829 -3.86093 0)
(4.85294 -3.20315 1.36702e-18)
(4.83591 -2.61863 -1.76048e-19)
(4.71562 -2.13027 -7.25467e-19)
(4.53993 -1.74011 -4.51602e-19)
(4.34296 -1.43127 2.79567e-19)
(4.14476 -1.18728 -6.84189e-20)
(3.95537 -0.995422 0)
(3.77951 -0.855111 9.34961e-20)
(2.16573 -4.37836 -1.38037e-17)
(2.92296 -4.3392 6.37244e-18)
(3.41961 -4.07056 0)
(3.80985 -3.62513 -2.43318e-18)
(4.04654 -3.11898 1.86077e-18)
(4.142 -2.62217 -3.68881e-19)
(4.12943 -2.17697 -1.38334e-18)
(4.04745 -1.79984 1.03871e-18)
(3.92836 -1.49088 -5.39808e-19)
(3.7949 -1.2424 4.48208e-19)
(3.65871 -1.05309 0)
(1.24225 -3.56485 -4.14715e-18)
(1.86301 -3.72167 2.28272e-18)
(2.40859 -3.78052 0)
(2.88892 -3.60511 -2.86575e-18)
(3.25459 -3.27425 2.70089e-18)
(3.50064 -2.87305 3.13052e-19)
(3.63193 -2.46203 1.73978e-18)
(3.67349 -2.07792 -1.9521e-18)
(3.65189 -1.74079 1.17357e-18)
(3.58789 -1.45816 6.71489e-21)
(3.49381 -1.23535 -3.67719e-19)
(0.98787 -3.13619 0)
(1.3702 -3.22179 6.11391e-18)
(1.67898 -3.31991 -4.08089e-18)
(2.09813 -3.32174 0)
(2.5138 -3.18786 5.56127e-19)
(2.8518 -2.92534 0)
(3.08381 -2.59385 -1.95989e-18)
(3.22 -2.24451 2.1076e-18)
(3.2837 -1.91043 -5.14522e-19)
(3.29872 -1.60943 -2.9433e-18)
(3.27639 -1.35722 1.94565e-18)
(0.913204 -2.79071 3.14563e-18)
(1.19827 -2.84205 0)
(1.38494 -2.94028 0)
(1.67162 -2.96512 0)
(1.98762 -2.90577 -1.04637e-18)
(2.30026 -2.7512 0)
(2.57356 -2.5217 0)
(2.78479 -2.24689 0)
(2.92914 -1.95727 1.94309e-18)
(3.01386 -1.67934 6.13931e-19)
(3.0455 -1.43873 8.2495e-19)
(0.857908 -2.49883 6.78723e-19)
(1.08529 -2.50709 0)
(1.2192 -2.58754 -3.35412e-18)
(1.4408 -2.61861 2.58804e-18)
(1.69159 -2.59601 0)
(1.95577 -2.50456 0)
(2.2089 -2.34813 -2.05377e-18)
(2.42942 -2.14278 1.5437e-18)
(2.60499 -1.90975 -9.85111e-19)
(2.73124 -1.6717 0)
(2.80346 -1.45256 -5.33257e-20)
(0.80282 -2.25462 -3.31538e-20)
(0.998213 -2.2265 0)
(1.10689 -2.28232 0)
(1.28389 -2.30678 0)
(1.48661 -2.29559 0)
(1.70821 -2.23754 0)
(1.93358 -2.13099 -9.91481e-19)
(2.14614 -1.98222 -1.39781e-18)
(2.33292 -1.80292 1.04553e-18)
(2.48378 -1.6102 0)
(2.58389 -1.4288 9.05369e-19)
(0.758787 -2.03873 5.45325e-19)
(0.934378 -1.98701 1.76438e-18)
(1.0256 -2.02306 -1.36439e-18)
(1.17464 -2.03838 0)
(1.3445 -2.02865 0)
(1.53301 -1.98627 -6.18275e-19)
(1.73126 -1.90919 1.89132e-18)
(1.92786 -1.79934 -7.03053e-19)
(2.11226 -1.66188 9.38956e-19)
(2.27332 -1.50719 -6.99376e-19)
(2.39259 -1.35543 1.79532e-18)
(0.734281 -1.84981 1.01984e-18)
(0.892994 -1.77676 0)
(0.967141 -1.79777 6.46385e-19)
(1.09544 -1.80498 -9.79848e-19)
(1.2415 -1.79351 0)
(1.40518 -1.75813 3.10587e-20)
(1.58087 -1.69765 0)
(1.76077 -1.61258 0)
(1.93696 -1.5045 0)
(2.09923 -1.37843 1.26166e-18)
(2.22701 -1.24711 -2.2255e-18)
(0.722042 -1.69592 0)
(0.861148 -1.59596 3.79664e-19)
(0.921941 -1.60083 1.45805e-18)
(1.03484 -1.59895 -9.04611e-19)
(1.16331 -1.58348 -7.03853e-19)
(1.30859 -1.55035 5.74682e-19)
(1.46676 -1.49906 1.20549e-18)
(1.6322 -1.42984 -1.79464e-18)
(1.79921 -1.34288 4.4659e-19)
(1.95886 -1.24111 -6.26882e-19)
(2.08602 -1.13764 3.86429e-19)
(0.704058 -1.56022 2.14887e-19)
(0.822201 -1.43496 5.20758e-19)
(0.879366 -1.4243 7.99084e-19)
(0.983788 -1.41292 -6.35326e-19)
(1.10082 -1.39209 0)
(1.2334 -1.3584 5.1688e-19)
(1.37886 -1.3119 -9.23929e-21)
(1.53307 -1.25292 -2.6602e-19)
(1.69193 -1.18119 0)
(1.84819 -1.09786 2.72811e-20)
(1.97778 -1.01177 2.53092e-20)
(0.683147 -1.42237 -2.10702e-19)
(0.783775 -1.27939 -1.65224e-19)
(0.840191 -1.2576 -6.23715e-19)
(0.939061 -1.23876 1.91029e-19)
(1.04866 -1.2129 0)
(1.17304 -1.17748 0)
(1.31014 -1.13327 3.63011e-19)
(1.45677 -1.08094 9.08194e-19)
(1.60988 -1.01997 -3.87714e-19)
(1.76402 -0.949369 0)
(1.8963 -0.871763 0)
(0.668642 -1.29536 3.88854e-19)
(0.754294 -1.13121 -6.05273e-19)
(0.806911 -1.09787 1.21094e-19)
(0.900152 -1.07179 1.11142e-20)
(1.00437 -1.04092 0)
(1.12373 -1.00322 0)
(1.25606 -0.960031 -1.9642e-20)
(1.39833 -0.912493 1.12286e-19)
(1.54772 -0.860143 -1.79371e-19)
(1.69972 -0.801116 2.45331e-19)
(1.82906 -0.737487 -1.61057e-19)
(0.650487 -1.17801 0)
(0.71875 -0.989263 0)
(0.773074 -0.942695 0)
(0.864836 -0.908556 -1.77097e-19)
(0.967029 -0.872271 1.27225e-19)
(1.08459 -0.831884 -5.7412e-21)
(1.21538 -0.78924 1.72109e-19)
(1.3563 -0.745977 -2.12505e-19)
(1.50423 -0.701763 -7.89653e-20)
(1.65547 -0.653861 -5.37867e-20)
(1.78649 -0.600604 6.27395e-20)
(0.632942 -1.05164 0)
(0.682784 -0.842629 -2.71217e-19)
(0.741786 -0.78536 2.11684e-19)
(0.833979 -0.744212 4.76202e-19)
(0.936618 -0.702773 -1.27785e-19)
(1.05537 -0.659839 -1.93427e-19)
(1.18777 -0.618132 3.39841e-20)
(1.3302 -0.57977 1.89699e-19)
(1.47861 -0.544452 -2.3483e-21)
(1.62993 -0.508387 4.25114e-19)
(1.76114 -0.466631 -1.91555e-20)
(0.622942 -0.925124 1.67746e-19)
(0.655097 -0.693341 -2.50585e-19)
(0.717263 -0.624479 -1.97514e-19)
(0.809475 -0.575732 -2.37744e-19)
(0.914154 -0.528961 -4.29318e-19)
(1.03696 -0.483935 0)
(1.1742 -0.44427 4.69659e-19)
(1.32068 -0.41276 0)
(1.47064 -0.388567 0)
(1.62167 -0.36647 -3.99559e-19)
(1.75107 -0.33803 -5.13147e-19)
(0.61333 -0.801275 1.50863e-19)
(0.625833 -0.543734 6.13568e-19)
(0.695578 -0.459529 0)
(0.791098 -0.400857 0)
(0.901529 -0.347818 5.40674e-19)
(1.03253 -0.30123 -2.27797e-19)
(1.17797 -0.266168 -3.63074e-19)
(1.33053 -0.245221 2.97794e-19)
(1.48216 -0.235697 4.32957e-19)
(1.63176 -0.230399 0)
(1.75777 -0.216211 7.53864e-19)
(0.607793 -0.668134 -4.05205e-19)
(0.597876 -0.385255 2.46414e-19)
(0.680203 -0.283518 1.48056e-19)
(0.783315 -0.213537 -1.15642e-19)
(0.905412 -0.154785 6.95067e-19)
(1.04917 -0.109958 1.22054e-19)
(1.20546 -0.0847601 1.44417e-19)
(1.36393 -0.0798843 -2.91685e-20)
(1.51488 -0.0890874 -2.42732e-19)
(1.65942 -0.102552 -2.96302e-19)
(1.78088 -0.103218 0)
(0.612268 -0.518863 -2.76509e-19)
(0.576656 -0.21089 -3.57263e-19)
(0.678433 -0.089463 -1.42496e-19)
(0.795693 -0.00841343 0)
(0.935995 0.0523522 -3.78797e-19)
(1.09723 0.0882911 2.2453e-19)
(1.26499 0.0951668 -8.81452e-20)
(1.42576 0.0768652 0)
(1.57015 0.0452268 3.36619e-19)
(1.70195 0.0129285 -2.48228e-19)
(1.81476 -0.00230361 0)
(0.630435 -0.351613 3.07541e-19)
(0.571051 -0.0124391 0)
(0.701726 0.128564 -2.94268e-19)
(0.843825 0.216986 0)
(1.00953 0.270654 -4.44456e-19)
(1.18955 0.285149 0)
(1.36346 0.262378 -5.0147e-19)
(1.51714 0.21445 5.22711e-19)
(1.64544 0.15903 1.67186e-20)
(1.75613 0.110148 1.79015e-19)
(1.85288 0.0821586 0)
(0.712946 -0.121789 -1.77516e-19)
(0.584319 0.220868 3.66042e-19)
(0.779866 0.374391 -1.98942e-19)
(0.956803 0.456909 0)
(1.14949 0.48406 -6.21573e-22)
(1.33947 0.459196 1.34041e-19)
(1.50421 0.396868 0)
(1.63507 0.318212 -2.61389e-19)
(1.73523 0.243229 1.90798e-19)
(1.81732 0.184076 -3.94521e-19)
(1.89339 0.147712 2.6439e-19)
(0.634945 -0.0360633 3.09979e-19)
(0.715625 0.445006 -2.09524e-19)
(0.919679 0.612769 6.54074e-20)
(1.15051 0.663548 6.34363e-20)
(1.36236 0.640262 -9.89302e-20)
(1.53979 0.565531 -1.36589e-20)
(1.67259 0.467399 1.81139e-20)
(1.7645 0.369415 0)
(1.8273 0.287757 0)
(1.87647 0.230196 1.44047e-19)
(1.92731 0.197324 -3.29006e-20)
(2.1778 0.921051 -4.48175e-20)
(1.17486 0.997208 2.67087e-19)
(1.65327 0.909245 0)
(1.74341 0.824585 -2.4277e-19)
(1.81787 0.710836 -1.11121e-19)
(1.87109 0.584487 3.89745e-20)
(1.90259 0.46537 0)
(1.91606 0.36454 -1.44102e-19)
(1.92197 0.290362 3.42638e-20)
(1.92954 0.24585 -8.43414e-20)
(1.94948 0.226517 -5.12269e-19)
(7.60609 -1.94351 5.53041e-18)
(5.96235 -0.834386 -4.24586e-18)
(6.30955 -1.10643 -1.81118e-18)
(6.33284 -1.19316 1.97024e-18)
(5.95832 -1.06185 3.54769e-20)
(5.48343 -0.903129 -3.49274e-19)
(5.07719 -0.763382 3.55805e-20)
(4.72836 -0.638521 -4.41801e-21)
(4.43284 -0.543769 6.98624e-20)
(4.17265 -0.467121 0)
(3.94687 -0.420126 0)
(4.80888 -1.78958 2.13164e-18)
(4.05124 -0.515767 -4.44282e-18)
(5.09772 -0.291093 1.68929e-18)
(5.7297 -0.276815 -5.70574e-19)
(5.86205 -0.241283 1.36013e-18)
(5.69288 -0.223298 -2.15328e-19)
(5.33841 -0.219777 0)
(4.89869 -0.205209 -3.28135e-19)
(4.55514 -0.188677 1.74506e-19)
(4.24945 -0.16966 -4.02104e-20)
(3.98471 -0.161277 2.90491e-20)
(2.27594 -3.57828 -5.27214e-18)
(2.98992 -1.72364 6.82841e-19)
(3.98759 -0.620762 3.41319e-18)
(4.77599 -0.0624787 0)
(5.27307 0.245706 0)
(5.46599 0.372999 6.89543e-19)
(5.35799 0.369248 -9.46537e-19)
(5.01587 0.301624 0)
(4.61316 0.21963 0)
(4.2883 0.168734 0)
(4.01209 0.11949 0)
(1.69732 -6.45321 1.08395e-19)
(2.4618 -3.62887 -3.87372e-20)
(3.17959 -1.77365 -1.72199e-18)
(3.93237 -0.549216 1.19503e-18)
(4.57418 0.235874 1.41215e-18)
(4.99343 0.674713 -3.10547e-18)
(5.12004 0.833467 0)
(4.95292 0.79789 0)
(4.61703 0.663696 -5.43792e-19)
(4.25777 0.532421 -1.55392e-19)
(3.97702 0.428464 3.98478e-19)
(1.91168 -6.46398 4.4554e-18)
(2.05493 -5.20191 -3.41554e-18)
(2.60655 -3.06333 8.25722e-19)
(3.27716 -1.3721 5.84968e-19)
(3.93215 -0.137102 -4.15653e-19)
(4.44986 0.673817 1.80813e-18)
(4.73287 1.09667 -7.27247e-19)
(4.73109 1.19888 0)
(4.50314 1.08817 0)
(4.18149 0.910088 -1.47114e-18)
(3.88346 0.739112 2.94004e-19)
(1.98891 -6.69562 0)
(2.04593 -5.8827 3.10038e-18)
(2.24288 -4.24678 -1.58892e-18)
(2.78488 -2.31789 -1.13413e-18)
(3.38935 -0.724615 1.45965e-18)
(3.9229 0.442615 2.88565e-18)
(4.28447 1.16523 -3.92594e-19)
(4.40233 1.47146 -8.0078e-19)
(4.28334 1.45263 -5.41825e-19)
(4.02336 1.26834 1.6844e-18)
(3.72596 1.0593 7.18525e-19)
(2.06602 -6.88319 -6.20457e-19)
(2.13377 -6.25742 1.34403e-20)
(2.1312 -5.26191 -2.25009e-18)
(2.44547 -3.3481 2.25901e-18)
(2.94603 -1.46502 -2.43226e-18)
(3.4419 0.0386855 -1.08347e-18)
(3.82163 1.0692 -8.45048e-19)
(4.0076 1.61389 -6.06632e-19)
(3.97592 1.73606 7.62486e-19)
(3.78526 1.58943 -9.43792e-19)
(3.53884 1.34217 2.74306e-20)
(2.11791 -7.09284 -4.05731e-18)
(2.2132 -6.52625 8.94031e-19)
(2.14927 -5.72357 6.98997e-19)
(2.24739 -4.24025 0)
(2.5997 -2.26335 0)
(3.01555 -0.483455 0)
(3.36678 0.84249 6.98187e-19)
(3.57351 1.63696 1.16818e-18)
(3.59907 1.92885 8.26652e-19)
(3.46873 1.858 -5.43404e-19)
(3.30062 1.60138 -8.28966e-19)
(2.15544 -7.31837 -1.38286e-19)
(2.26703 -6.79037 -3.45919e-18)
(2.19431 -6.08567 -2.46189e-20)
(2.18446 -4.95085 2.17667e-18)
(2.35033 -3.06219 0)
(2.64341 -1.08664 -3.17695e-19)
(2.92679 0.510237 -4.54339e-19)
(3.11402 1.55119 0)
(3.16731 2.02431 -6.19848e-19)
(3.0896 2.0515 3.55618e-19)
(2.97553 1.82008 5.67367e-20)
(2.19399 -7.5377 4.4025e-18)
(2.3142 -7.04209 -6.77031e-18)
(2.2248 -6.38805 5.2111e-18)
(2.16835 -5.38147 -2.12305e-18)
(2.1793 -3.7353 -1.72157e-18)
(2.32297 -1.71172 1.75997e-18)
(2.50245 0.0999427 4.47972e-19)
(2.63494 1.3675 0)
(2.68714 2.01827 -2.09217e-19)
(2.6497 2.15216 1.2626e-19)
(2.59976 1.96393 0)
(2.22549 -7.72354 3.89741e-18)
(2.34629 -7.27748 -3.11907e-18)
(2.22315 -6.66697 8.05592e-20)
(2.14671 -5.73882 -1.60575e-18)
(2.05114 -4.32205 1.27698e-18)
(2.04492 -2.32563 -1.62612e-19)
(2.0899 -0.369368 1.86824e-18)
(2.13812 1.0915 -1.3977e-18)
(2.16586 1.90492 1.11432e-19)
(2.15921 2.14666 -7.126e-19)
(2.15814 2.01627 0)
(2.21815 -7.8931 4.25298e-18)
(2.33662 -7.49888 0)
(2.19956 -6.91374 -2.59461e-18)
(2.10246 -6.04775 1.54238e-18)
(1.93207 -4.77489 -4.42439e-19)
(1.78584 -2.89487 0)
(1.6836 -0.873902 0)
(1.62688 0.731903 -1.02546e-19)
(1.61372 1.67955 7.97827e-19)
(1.63365 2.02089 -2.02896e-18)
(1.68337 1.9526 1.84917e-19)
(2.20649 -8.03769 -3.92341e-18)
(2.31447 -7.67154 -3.18268e-18)
(2.15749 -7.11795 2.50111e-18)
(2.01243 -6.31731 0)
(1.78429 -5.14895 6.05945e-18)
(1.52453 -3.40696 -2.74406e-18)
(1.27726 -1.39577 0)
(1.10642 0.294129 2.73453e-18)
(1.04589 1.33587 -2.48166e-19)
(1.08801 1.76328 -1.60983e-19)
(1.22524 1.76723 0)
(2.19735 -8.12971 0)
(2.26313 -7.79296 -7.59802e-19)
(2.08263 -7.28242 -2.53359e-18)
(1.87954 -6.54984 2.01488e-18)
(1.58869 -5.49185 -3.93475e-20)
(1.24406 -3.8882 2.76674e-18)
(0.873081 -1.93795 -2.06481e-18)
(0.589523 -0.223904 2.76535e-18)
(0.487614 0.868784 -1.20575e-19)
(0.554896 1.36761 -2.11289e-18)
(0.769316 1.45336 6.78283e-19)
(2.17732 -8.17029 0)
(2.17214 -7.86428 7.6471e-19)
(1.96858 -7.38937 -1.18398e-18)
(1.70782 -6.72628 -1.94483e-18)
(1.35256 -5.79587 -1.68557e-18)
(0.905734 -4.37061 0)
(0.475409 -2.49242 1.92185e-18)
(0.106201 -0.820897 -2.80137e-18)
(-0.0292081 0.281029 3.26023e-18)
(0.0725514 0.835745 6.6656e-19)
(0.342439 1.00444 0)
(2.14676 -8.15467 -3.65823e-18)
(2.04864 -7.875 1.39301e-18)
(1.81491 -7.42791 4.68505e-18)
(1.49557 -6.81846 8.81251e-20)
(1.07891 -5.98811 -1.49128e-18)
(0.579871 -4.85677 -2.39855e-18)
(0.102435 -3.14829 -1.95973e-18)
(-0.313806 -1.48551 2.34323e-18)
(-0.453993 -0.408987 0)
(-0.317819 0.172696 -1.81186e-18)
(0.0308582 0.432115 7.05014e-19)
(2.09579 -8.06495 2.68808e-18)
(1.89366 -7.81629 -2.91699e-18)
(1.62249 -7.40559 1.0258e-18)
(1.25114 -6.86269 0)
(0.790745 -6.13873 1.51932e-18)
(0.263149 -5.17266 4.55465e-18)
(-0.2262 -3.84577 3.18177e-18)
(-0.637379 -2.28048 -6.77408e-18)
(-0.761522 -1.19872 1.48559e-18)
(-0.600158 -0.608048 -1.10675e-18)
(-0.163803 -0.232766 8.14452e-19)
(2.0085 -7.88456 -3.25471e-18)
(1.69831 -7.6719 5.00203e-18)
(1.38137 -7.31088 2.08557e-18)
(0.963365 -6.85751 -3.22644e-18)
(0.480462 -6.27252 -1.19808e-18)
(-0.0256288 -5.50643 -3.42892e-19)
(-0.487279 -4.4843 0)
(-0.839242 -3.19753 0)
(-0.930194 -2.07611 1.73179e-18)
(-0.741743 -1.45985 -6.3563e-19)
(-0.271855 -0.958911 0)
(1.86153 -7.5967 1.55766e-18)
(1.44557 -7.42339 -2.35684e-18)
(1.07152 -7.13534 0)
(0.614498 -6.80787 2.93163e-18)
(0.136221 -6.40259 1.05675e-20)
(-0.306732 -5.86694 -2.58325e-19)
(-0.662161 -5.13349 -1.24632e-18)
(-0.902404 -4.14608 0)
(-0.937179 -3.08232 -8.93251e-19)
(-0.72735 -2.37687 4.20746e-19)
(-0.252559 -1.74323 -3.05568e-19)
(1.60083 -7.17786 -7.95544e-19)
(1.09672 -7.05483 -9.76789e-19)
(0.657694 -6.88537 1.64208e-18)
(0.183589 -6.74224 2.6202e-18)
(-0.246419 -6.56903 -4.16401e-18)
(-0.573969 -6.28969 1.49469e-18)
(-0.760891 -5.8099 0)
(-0.836636 -5.08175 8.12382e-19)
(-0.79068 -4.17325 -6.03696e-19)
(-0.559761 -3.30485 8.97156e-20)
(-0.163538 -2.56096 -2.05832e-19)
(1.08258 -6.60315 -2.6381e-18)
(0.484 -6.53783 4.37547e-18)
(-0.0119228 -6.48907 -1.48472e-18)
(-0.407367 -6.52943 -2.39998e-18)
(-0.651322 -6.55901 1.28231e-18)
(-0.705238 -6.46184 -1.69734e-18)
(-0.565061 -6.14123 8.31936e-19)
(-0.321276 -5.55438 4.82949e-19)
(-0.115907 -4.74924 -2.05e-19)
(0.0862347 -3.78078 3.39624e-20)
(0.399782 -2.83713 2.77229e-20)
(0.0250227 -5.3414 -2.99858e-18)
(-0.285712 -5.23333 1.42928e-18)
(-0.298396 -5.33295 0)
(-0.253463 -5.46377 0)
(0.00557056 -5.34925 -5.27959e-19)
(0.460621 -4.81121 6.86402e-19)
(0.95377 -4.06285 0)
(1.18764 -3.52186 0)
(1.33975 -2.87547 -5.89244e-20)
(1.40263 -2.22707 6.41469e-20)
(1.45044 -1.54224 -6.21054e-20)
(-1.076 -4.27769 4.76724e-18)
(0.468607 -3.35148 0)
(0.35252 -3.20277 0)
(0.727734 -2.71161 3.13927e-18)
(1.19815 -2.18072 -3.89515e-18)
(1.5945 -1.77772 1.22413e-18)
(1.84058 -1.4372 -2.79203e-19)
(1.93649 -1.12591 1.99031e-19)
(1.94872 -0.820792 4.73947e-20)
(1.91691 -0.543718 -3.36275e-20)
(1.87793 -0.25321 6.36815e-20)
(0.867126 -0.314095 -1.00652e-17)
(0.244394 -0.461241 2.92342e-18)
(0.849513 -0.209794 -2.16147e-18)
(1.35325 -0.00859689 1.62166e-19)
(1.68295 0.0966729 1.62771e-19)
(1.88524 0.142793 -4.35448e-20)
(1.98654 0.154443 -4.77945e-20)
(2.00964 0.150801 3.39052e-20)
(1.99604 0.150716 6.84333e-20)
(1.97301 0.163554 -7.12897e-20)
(1.9521 0.207181 0)
(0.127315 5.47921 -2.0822e-18)
(0.517327 3.98866 -4.81718e-19)
(0.838558 3.25679 -1.31491e-19)
(1.15851 2.5492 -2.87147e-19)
(1.45662 2.05288 0)
(1.71915 1.69538 -3.18632e-19)
(1.94009 1.44178 -9.79579e-19)
(2.12732 1.2557 1.42442e-18)
(2.28995 1.11788 -6.80157e-19)
(2.43371 1.01659 -1.35057e-19)
(2.55101 0.948939 -3.04691e-19)
(1.94962 5.32764 -2.60893e-19)
(2.87049 2.82942 1.09427e-18)
(2.44289 3.60989 -6.14094e-19)
(2.34329 2.93749 9.892e-20)
(2.24464 2.49529 0)
(2.24977 2.0525 3.50981e-19)
(2.31481 1.70989 0)
(2.41099 1.44946 1.20109e-19)
(2.51542 1.25854 -2.95009e-19)
(2.61954 1.1199 0)
(2.71051 1.02728 0)
(2.54034 3.79 3.72856e-18)
(3.92174 1.27861 -4.94838e-18)
(3.59107 3.03324 -5.70884e-19)
(3.42778 2.49477 9.8332e-19)
(3.11904 2.43139 6.53201e-19)
(2.90615 2.10455 -1.50146e-19)
(2.78648 1.81208 1.11924e-19)
(2.75298 1.54768 0)
(2.77516 1.33752 0)
(2.82796 1.17886 0)
(2.89388 1.07392 0)
(2.28419 2.36905 -9.72436e-19)
(3.9923 0.271013 -5.62307e-19)
(4.0493 2.18287 3.45581e-18)
(4.04937 1.65858 -1.48023e-19)
(3.76398 2.00747 0)
(3.48235 1.83845 -6.49819e-19)
(3.255 1.69472 -2.78303e-19)
(3.11253 1.5042 3.4678e-20)
(3.04814 1.3285 -1.44057e-19)
(3.04196 1.18129 3.9716e-19)
(3.06693 1.07875 -1.32053e-19)
(1.72537 1.43277 2.5487e-18)
(3.57882 -0.245653 3.22155e-18)
(3.98914 1.41773 -1.89944e-18)
(4.20263 0.870473 -2.13466e-18)
(4.06379 1.45886 -6.09348e-19)
(3.83197 1.38682 2.60528e-19)
(3.59983 1.41253 -3.02531e-19)
(3.41413 1.32556 -3.04942e-19)
(3.29394 1.22276 5.22144e-19)
(3.23891 1.11726 -2.86931e-19)
(3.22656 1.03737 1.305e-19)
(1.11965 0.840384 -4.44347e-18)
(3.01733 -0.505523 -1.10625e-18)
(3.6757 0.832894 0)
(4.05905 0.293672 4.99987e-20)
(4.07743 0.954584 -3.26914e-19)
(3.94295 0.909411 1.44507e-18)
(3.77255 1.06619 -4.55728e-19)
(3.60194 1.06586 1.13691e-19)
(3.47151 1.0442 -8.26151e-19)
(3.39238 0.994626 -2.85742e-19)
(3.35577 0.954191 2.09943e-19)
(0.502042 0.471596 0)
(2.43349 -0.617742 0)
(3.27389 0.409477 -6.15919e-19)
(3.77724 -0.0831142 1.4192e-18)
(3.92147 0.549759 -3.47413e-19)
(3.88421 0.502139 0)
(3.79436 0.735126 1.0445e-18)
(3.66879 0.785907 -6.01279e-19)
(3.56139 0.831699 8.39736e-19)
(3.48614 0.834452 -1.22646e-19)
(3.44522 0.835408 -2.43868e-19)
(-0.102776 0.284753 0)
(1.86615 -0.620685 0)
(2.84637 0.122999 8.45217e-19)
(3.44778 -0.312198 -3.65202e-19)
(3.68627 0.246661 5.47509e-19)
(3.72993 0.193669 3.1696e-19)
(3.71296 0.455743 -7.88383e-19)
(3.63903 0.529347 3.20294e-19)
(3.56993 0.621584 3.95062e-19)
(3.51594 0.663988 0)
(3.48713 0.698623 6.27235e-19)
(-0.656694 0.226453 0)
(1.32475 -0.556623 6.69016e-20)
(2.41418 -0.0569271 1.39728e-18)
(3.10587 -0.435222 -9.247e-19)
(3.42164 0.0294743 -1.14609e-19)
(3.53068 -0.0203483 -1.01261e-18)
(3.57053 0.234918 6.63688e-19)
(3.54531 0.315756 2.39516e-20)
(3.51613 0.433564 -3.89224e-19)
(3.48939 0.50146 5.80953e-20)
(3.48046 0.562297 -3.36078e-19)
(-1.17824 0.249389 0)
(0.784284 -0.45266 1.73815e-18)
(1.96883 -0.160094 -1.37077e-18)
(2.75312 -0.483744 -1.02446e-18)
(3.14457 -0.122274 1.83593e-18)
(3.31355 -0.160268 -1.04158e-18)
(3.39808 0.0683867 6.17715e-19)
(3.41398 0.150577 -2.9874e-19)
(3.41973 0.276321 -3.33585e-19)
(3.42077 0.3571 3.02251e-19)
(3.4351 0.433975 6.7991e-20)
(-1.70077 0.350519 -1.86643e-18)
(0.233561 -0.304488 1.07845e-19)
(1.50534 -0.190498 -1.18898e-18)
(2.38695 -0.477477 7.96216e-19)
(2.85981 -0.218527 -7.57057e-19)
(3.0899 -0.244815 1.53171e-19)
(3.21351 -0.0518881 9.51665e-20)
(3.26396 0.0282913 0)
(3.29784 0.151053 3.0112e-19)
(3.32302 0.238116 -5.24509e-19)
(3.35851 0.319454 1.4242e-19)
(-2.1941 0.517807 -4.37407e-19)
(-0.297423 -0.121939 0)
(1.04243 -0.153725 0)
(2.01747 -0.427035 -7.36078e-19)
(2.57369 -0.264751 5.71054e-19)
(2.86616 -0.28773 1.029e-18)
(3.02673 -0.133606 -6.20473e-19)
(3.10656 -0.0589825 3.86906e-19)
(3.16217 0.0539201 -2.63089e-19)
(3.20604 0.14161 0)
(3.257 0.222341 0)
(-2.61804 0.711489 1.98431e-19)
(-0.800714 0.0693652 1.06714e-18)
(0.584915 -0.0752069 -8.16544e-19)
(1.64499 -0.34847 1.22199e-18)
(2.28535 -0.274703 -5.11901e-19)
(2.64271 -0.302462 -3.18728e-19)
(2.84102 -0.18687 0)
(2.94716 -0.120238 -3.82458e-19)
(3.01961 -0.0204018 2.60135e-19)
(3.07762 0.0643918 -2.95887e-19)
(3.1404 0.141633 2.21132e-19)
(-2.99698 0.918193 -2.79144e-19)
(-1.29601 0.268295 9.37293e-19)
(0.116714 0.0359725 -1.3759e-18)
(1.25316 -0.251817 2.05553e-20)
(1.98159 -0.260236 7.35442e-19)
(2.41048 -0.300774 8.85339e-19)
(2.65208 -0.221745 -8.4721e-19)
(2.78526 -0.164288 3.13323e-19)
(2.87239 -0.0775867 3.75385e-19)
(2.94117 0.00356937 -4.92936e-19)
(3.011 0.0769253 -3.16765e-19)
(-3.34827 1.13708 3.19759e-20)
(-1.7701 0.471562 -8.03259e-19)
(-0.354278 0.174903 -8.75686e-19)
(0.842591 -0.140314 4.94093e-19)
(1.65667 -0.224831 -3.69531e-19)
(2.16119 -0.287816 4.61268e-19)
(2.45274 -0.243829 6.90688e-19)
(2.61652 -0.197161 -5.27546e-19)
(2.71902 -0.122527 -6.83269e-19)
(2.79646 -0.0459632 7.40004e-20)
(2.86937 0.0232876 3.10806e-19)
(-3.6446 1.34173 2.78167e-19)
(-2.21094 0.666654 0)
(-0.827832 0.329931 2.91871e-19)
(0.40666 -0.0171439 4.32655e-19)
(1.29925 -0.171387 0)
(1.88162 -0.265162 -4.65188e-19)
(2.23069 -0.255925 -5.81922e-19)
(2.43181 -0.222009 4.43222e-19)
(2.55428 -0.158021 3.09469e-19)
(2.64222 -0.0856911 0)
(2.71974 -0.0172046 2.07145e-19)
(-3.8796 1.52822 -1.01007e-18)
(-2.62155 0.857508 0)
(-1.31367 0.501732 0)
(-0.0701891 0.123171 -3.51727e-19)
(0.890766 -0.0972059 2.51853e-19)
(1.55243 -0.229587 -7.083e-19)
(1.96797 -0.256551 2.73891e-19)
(2.21684 -0.238188 -3.03263e-19)
(2.36869 -0.184238 -2.03215e-19)
(2.47302 -0.116577 -8.01803e-20)
(2.55808 -0.0489184 1.39131e-19)
(-4.06006 1.69558 0)
(-2.99219 1.04399 3.19664e-19)
(-1.80236 0.690492 0)
(-0.587437 0.287473 3.65179e-19)
(0.422342 0.00594587 -7.23866e-19)
(1.15849 -0.171892 8.98347e-20)
(1.64627 -0.238095 6.61462e-19)
(1.95452 -0.239599 7.7802e-20)
(2.14929 -0.197233 1.33091e-19)
(2.28118 -0.135889 2.33722e-19)
(2.38135 -0.0724497 -1.39401e-19)
(-4.18157 1.8376 0)
(-3.3088 1.22221 -1.60611e-18)
(-2.27754 0.893118 5.94227e-20)
(-1.14152 0.480664 1.45518e-18)
(-0.115979 0.146857 -4.6971e-19)
(0.681284 -0.0793603 3.94655e-19)
(1.24319 -0.187124 -5.90668e-19)
(1.62293 -0.213897 3.11866e-19)
(1.87774 -0.187958 -1.35363e-19)
(2.05386 -0.137144 -1.67069e-19)
(2.18397 -0.0790893 7.1724e-20)
(-4.25504 1.95919 -1.1657e-19)
(-3.56898 1.3924 0)
(-2.72119 1.10367 -8.65691e-19)
(-1.72229 0.702951 -9.31744e-20)
(-0.733018 0.335635 4.34835e-19)
(0.0991847 0.06707 1.34829e-19)
(0.731792 -0.0814666 0)
(1.19463 -0.140237 -7.91891e-20)
(1.52836 -0.14045 0)
(1.76795 -0.110058 7.64071e-20)
(1.94452 -0.0637495 0)
(-4.29651 2.08438 -8.62312e-19)
(-3.7862 1.5555 1.16845e-18)
(-3.12624 1.31124 -9.30461e-19)
(-2.31733 0.947137 6.50633e-20)
(-1.43252 0.585425 2.96958e-19)
(-0.607579 0.298659 -2.19543e-19)
(0.08452 0.115353 0)
(0.637987 0.0148712 -5.70239e-21)
(1.0664 -0.0283024 0)
(1.38789 -0.0363405 5.31161e-20)
(1.62889 -0.0193446 -8.85472e-20)
(-4.2505 2.04633 0)
(-3.94705 1.64645 8.79422e-20)
(-3.49398 1.45222 0)
(-2.90807 1.18677 -7.36027e-20)
(-2.19166 0.907185 0)
(-1.42995 0.654059 0)
(-0.707274 0.451566 0)
(-0.0735892 0.299959 6.12205e-21)
(0.450717 0.19591 -9.44808e-20)
(0.865155 0.130703 3.9156e-20)
(1.2035 0.118555 0)
(-4.55189 2.36599 -1.24559e-18)
(-4.17211 1.84578 -1.31041e-18)
(-3.82565 1.74129 1.64166e-18)
(-3.4049 1.59008 -5.08949e-19)
(-2.87901 1.41944 1.17416e-20)
(-2.24935 1.21199 -1.13073e-20)
(-1.57603 0.981514 -1.06111e-19)
(-0.930754 0.75815 -1.57526e-20)
(-0.357626 0.565915 4.51267e-20)
(0.10989 0.413304 2.10856e-20)
(0.562864 0.329805 -4.15142e-20)
(-2.74195 1.26277 9.33454e-19)
(-2.7967 1.26269 -5.88501e-19)
(-2.66483 1.39983 1.85812e-20)
(-2.604 1.53141 -2.08472e-20)
(-2.48198 1.63568 4.85407e-21)
(-2.28284 1.66017 -2.30223e-19)
(-1.9468 1.57839 1.61215e-19)
(-1.52703 1.42404 6.38418e-20)
(-1.08125 1.23483 2.86736e-20)
(-0.67109 1.03584 -1.98112e-20)
(-0.178273 0.808693 4.2335e-20)
(-2.69255 1.57249 -7.51985e-18)
(-1.75215 1.45774 1.71046e-18)
(-0.451891 1.45902 7.49871e-19)
(0.362106 1.40291 3.06499e-18)
(0.922876 1.3131 -1.11056e-18)
(1.32528 1.2069 -1.65212e-19)
(1.62801 1.10536 0)
(1.86664 1.01713 1.92431e-19)
(2.06159 0.94324 2.88151e-19)
(2.22512 0.883891 -4.88175e-20)
(2.35778 0.840243 2.70945e-21)
(-1.29187 -2.46221 0)
(-0.723242 -1.29357 1.08578e-17)
(-0.557594 -0.434259 -7.87829e-18)
(-0.0724341 0.241117 -4.07269e-18)
(0.469368 0.602148 3.23753e-18)
(0.947304 0.764447 1.89614e-19)
(1.31738 0.804964 -6.29688e-20)
(1.6025 0.79877 -3.64908e-20)
(1.82577 0.774747 0)
(2.00501 0.746988 0)
(2.14314 0.720391 1.01556e-19)
(-0.173369 -3.09099 -3.12591e-18)
(0.480358 -1.77744 -7.11828e-20)
(0.104722 -1.59398 0)
(0.185155 -0.929114 0)
(0.37271 -0.383826 -3.2679e-19)
(0.686806 0.0469758 4.25494e-19)
(1.02482 0.327053 6.38064e-20)
(1.32698 0.472763 -1.0785e-18)
(1.57853 0.543391 8.11049e-19)
(1.77765 0.571996 0)
(1.92578 0.574377 -2.23597e-19)
(0.749521 -2.95806 0)
(1.52933 -1.67541 -2.12795e-19)
(0.928971 -1.92538 0)
(0.821662 -1.36281 -2.34636e-18)
(0.73976 -0.929403 2.46706e-18)
(0.825471 -0.488163 1.02752e-18)
(1.00428 -0.139177 -1.05932e-18)
(1.20904 0.103828 0)
(1.40853 0.260436 9.63508e-19)
(1.58048 0.353988 -4.59047e-19)
(1.71159 0.400965 6.87348e-19)
(1.38323 -2.55567 0)
(2.21026 -1.44956 -1.21704e-19)
(1.6145 -1.90889 2.36557e-19)
(1.46226 -1.4524 -4.89606e-19)
(1.24159 -1.18371 -4.57044e-19)
(1.1636 -0.799879 0)
(1.18696 -0.462472 0)
(1.27903 -0.183492 0)
(1.40117 0.0204844 -8.74506e-19)
(1.52225 0.158046 3.4134e-19)
(1.61576 0.238502 -2.3143e-19)
(1.7719 -2.11646 0)
(2.59506 -1.2007 -1.95881e-19)
(2.08655 -1.7197 0)
(1.95384 -1.33378 4.34911e-19)
(1.69458 -1.21853 2.08769e-19)
(1.53603 -0.916296 6.06582e-19)
(1.45155 -0.641126 -4.57098e-19)
(1.44316 -0.376349 0)
(1.4816 -0.160462 1.3956e-18)
(1.53965 0.00235479 -6.64608e-19)
(1.5863 0.110008 0)
(1.99574 -1.70821 0)
(2.79786 -0.965747 1.80943e-19)
(2.38324 -1.48014 0)
(2.27718 -1.13309 2.39796e-19)
(2.0336 -1.13281 -2.9164e-19)
(1.85833 -0.89258 0)
(1.71292 -0.6983 0)
(1.63727 -0.472227 -3.05007e-19)
(1.60817 -0.272846 -7.11997e-19)
(1.61082 -0.108395 2.3413e-19)
(1.61834 0.00825654 2.88882e-19)
(2.13109 -1.35866 -1.38333e-18)
(2.89848 -0.782009 0)
(2.56801 -1.24674 0)
(2.48648 -0.922746 0)
(2.25441 -1.00205 0)
(2.1012 -0.796202 0)
(1.93201 -0.670294 0)
(1.81891 -0.489852 2.22791e-19)
(1.74301 -0.321671 -7.101e-20)
(1.70106 -0.171428 1.35105e-19)
(1.67388 -0.0564941 -3.81395e-20)
(2.22578 -1.06243 1.61812e-18)
(2.96428 -0.63712 -1.72435e-19)
(2.66994 -1.04399 -1.16375e-19)
(2.63729 -0.72762 -6.65814e-19)
(2.4004 -0.851123 -8.79641e-22)
(2.26907 -0.674508 0)
(2.09722 -0.596485 -9.09771e-20)
(1.96778 -0.45593 1.25217e-19)
(1.86364 -0.322497 -1.70842e-19)
(1.78963 -0.196018 -1.46765e-20)
(1.73295 -0.0985039 -4.46238e-20)
(2.28312 -0.824298 -2.08551e-18)
(3.0313 -0.485835 2.41467e-18)
(2.73095 -0.855639 -1.33726e-18)
(2.73471 -0.568321 4.89481e-19)
(2.50458 -0.694304 -3.18162e-19)
(2.38484 -0.545396 3.3424e-19)
(2.21568 -0.501014 -5.10388e-19)
(2.08002 -0.392008 1.57176e-19)
(1.95966 -0.291172 -6.74416e-20)
(1.86395 -0.191042 5.89527e-20)
(1.78359 -0.114086 -1.75021e-20)
(2.2921 -0.642666 4.43242e-19)
(3.0733 -0.330136 -8.60217e-19)
(2.78091 -0.674312 2.6262e-18)
(2.79336 -0.418335 -1.18619e-18)
(2.57504 -0.543875 4.24043e-19)
(2.46338 -0.414979 0)
(2.29742 -0.396152 2.37488e-19)
(2.15952 -0.311629 3.99396e-19)
(2.02963 -0.239412 -1.80423e-19)
(1.92032 -0.163179 0)
(1.82686 -0.104102 -4.9032e-20)
(2.27084 -0.491954 -4.3365e-19)
(3.08085 -0.183556 -5.95564e-19)
(2.80989 -0.512317 -4.4195e-19)
(2.82615 -0.273595 5.6459e-19)
(2.61731 -0.402189 -8.18328e-19)
(2.51253 -0.286272 2.8646e-20)
(2.34952 -0.288296 0)
(2.2113 -0.222666 -1.59828e-19)
(2.07554 -0.175461 -1.03443e-19)
(1.95667 -0.121521 0)
(1.85316 -0.0798591 2.2704e-20)
(2.24171 -0.353657 1.05861e-19)
(3.07282 -0.0399966 2.96235e-19)
(2.81867 -0.36811 0)
(2.84035 -0.133276 0)
(2.63641 -0.270219 0)
(2.53814 -0.160392 1.47086e-20)
(2.37697 -0.181467 1.91309e-19)
(2.23957 -0.130012 0)
(2.10025 -0.104855 1.99473e-19)
(1.97482 -0.0709086 -1.33785e-19)
(1.86104 -0.0510344 5.95488e-20)
(2.19639 -0.209233 7.88956e-19)
(3.03965 0.104783 3.58561e-20)
(2.81493 -0.222777 -5.40173e-20)
(2.83428 -0.00400677 0)
(2.63866 -0.140026 0)
(2.54244 -0.0418922 -2.50409e-19)
(2.38392 -0.0752232 1.93639e-19)
(2.24716 -0.037856 -2.59056e-20)
(2.10615 -0.0310933 0)
(1.9772 -0.0144287 4.47164e-20)
(1.85764 -0.0107883 -5.91731e-20)
(2.12724 -0.0723678 -8.32411e-19)
(2.98207 0.234469 8.66955e-20)
(2.79614 -0.0830311 9.29308e-20)
(2.80997 0.114384 3.16576e-19)
(2.62631 -0.011636 -4.29828e-19)
(2.52814 0.0685753 2.9528e-19)
(2.37331 0.0296097 1.54835e-19)
(2.23663 0.0511581 -1.42884e-19)
(2.09558 0.0428185 0)
(1.96556 0.0429002 4.7592e-20)
(1.84514 0.0318329 0)
(2.0526 0.058858 -1.56952e-18)
(2.90665 0.353993 3.87268e-19)
(2.76414 0.0530591 -2.02655e-19)
(2.77008 0.223912 0)
(2.60036 0.113655 5.06256e-20)
(2.49761 0.172066 -1.18137e-19)
(2.34706 0.131246 -6.56993e-20)
(2.21036 0.13561 7.07735e-22)
(2.07086 0.114098 -3.31524e-20)
(1.94198 0.098009 -8.9127e-20)
(1.82348 0.0727381 0)
(1.96941 0.190145 0)
(2.81144 0.472341 -3.8998e-19)
(2.71755 0.190294 6.25762e-19)
(2.71546 0.328427 -3.29947e-21)
(2.56063 0.235606 -2.24218e-20)
(2.45196 0.269929 0)
(2.30602 0.227891 1.5007e-19)
(2.16992 0.214295 -7.50598e-20)
(2.03374 0.180222 1.92964e-19)
(1.90836 0.148763 8.09648e-20)
(1.794 0.10934 1.01605e-19)
(1.86957 0.318457 0)
(2.69176 0.588447 0)
(2.65083 0.327831 0)
(2.64403 0.430342 2.71684e-19)
(2.50497 0.353335 -1.84821e-19)
(2.39106 0.362868 0)
(2.25027 0.317473 0)