/*--------------------------------*- C++ -*----------------------------------*\
| =========                 |                                                 |
| \\      /  F ield         | OpenFOAM: The Open Source CFD Toolbox           |
|  \\    /   O peration     | Version:  3.0.1                                 |
|   \\  /    A nd           | Web:      www.OpenFOAM.org                      |
|    \\/     M anipulation  |                                                 |
\*---------------------------------------------------------------------------*/
FoamFile
{
    version     2.0;
    format      ascii;
    class       surfaceVectorField;
    location    "0.635243";
    object      Uf;
}
// * * * * * * * * * * * * * * * * * * * * * * * * * * * * * * * * * * * * * //

dimensions      [0 1 -1 0 0 0 0];

internalField   nonuniform List<vector> 
32369
(
(7.0179 -3.06789 2.91491e-19)
(5.94991 -3.71031 6.1692e-21)
(8.18867 -1.70615 8.52723e-20)
(6.29648 -2.46478 1.86529e-19)
(5.73167 -3.32758 -6.13918e-19)
(6.50953 -1.42204 -3.91222e-19)
(5.91886 -2.0291 3.73799e-20)
(5.59754 -2.77352 1.13267e-18)
(6.0952 -1.43708 1.61568e-18)
(5.59239 -1.64666 5.53351e-20)
(5.43249 -2.27439 -2.97759e-19)
(5.8854 -1.31678 3.79293e-19)
(5.2727 -1.33267 -3.13655e-20)
(5.22026 -1.84708 2.14164e-19)
(5.57366 -1.12129 -3.55434e-19)
(4.97653 -1.09814 -1.8036e-20)
(4.97778 -1.5015 -3.41683e-19)
(5.21131 -0.932874 -1.24109e-20)
(4.70614 -0.912963 -3.86157e-21)
(4.73397 -1.23142 1.41499e-19)
(4.90514 -0.779205 9.75793e-20)
(4.45892 -0.767839 -6.58498e-21)
(4.49976 -1.01984 -1.83966e-20)
(4.62391 -0.650183 -5.84118e-20)
(4.2349 -0.652897 1.10045e-20)
(4.28069 -0.853076 5.40121e-20)
(4.37413 -0.54917 5.50712e-20)
(4.03209 -0.562547 1.37949e-20)
(4.07883 -0.721986 -4.10624e-20)
(4.1498 -0.470008 -5.41897e-20)
(3.89496 -0.631237 9.06659e-20)
(3.95313 -0.420833 1.06467e-19)
(3.81607 -0.499635 -1.26438e-19)
(4.67092 -4.26186 -8.87957e-19)
(3.59211 -4.19393 -1.76134e-20)
(4.93873 -3.59608 1.43198e-20)
(4.14411 -3.89616 1.86524e-18)
(5.05472 -2.99403 8.30872e-19)
(4.49224 -3.45034 9.64608e-19)
(5.03559 -2.45903 -2.66174e-19)
(4.66702 -2.94972 -3.9106e-19)
(4.91753 -2.00426 -1.03764e-20)
(4.69872 -2.46847 1.81289e-19)
(4.74115 -1.63557 -2.36594e-19)
(4.62643 -2.04028 -2.84582e-19)
(4.54081 -1.34409 1.5899e-19)
(4.49162 -1.68043 7.6187e-20)
(4.33652 -1.11576 5.86544e-20)
(4.32633 -1.38867 8.00753e-20)
(4.13941 -0.937058 0)
(4.15144 -1.1555 0)
(3.9555 -0.796074 2.04568e-20)
(3.978 -0.971262 -2.46722e-20)
(3.81318 -0.83619 3.93655e-20)
(3.76642 -0.686761 -1.09833e-19)
(3.20283 -4.05972 2.74693e-18)
(2.35541 -3.78615 -3.29435e-18)
(3.70636 -3.82758 2.74568e-18)
(2.9768 -3.7396 7.14826e-18)
(4.06489 -3.44303 -1.53441e-20)
(3.44847 -3.57359 -9.19387e-20)
(4.28544 -2.98899 -1.90544e-20)
(3.80092 -3.24632 -1.40604e-18)
(4.37519 -2.5285 -1.39948e-20)
(4.02458 -2.8484 -1.07609e-19)
(4.3589 -2.10601 -3.61646e-20)
(4.12481 -2.43599 -1.89915e-21)
(4.27078 -1.74431 1.42608e-21)
(4.12669 -2.05004 7.13995e-19)
(4.14209 -1.44704 3.11298e-20)
(4.06026 -1.7134 -5.3075e-19)
(3.99591 -1.20919 -2.15628e-20)
(3.95555 -1.43083 0)
(3.84762 -1.02314 -1.27166e-20)
(3.83301 -1.20036 -1.24238e-21)
(3.70281 -1.02505 -1.35267e-20)
(3.68205 -0.875223 1.27672e-20)
(2.28509 -3.50822 2.0298e-19)
(1.81741 -3.339 1.08777e-18)
(2.77558 -3.5717 4.79491e-18)
(2.276 -3.37774 2.28513e-18)
(3.21164 -3.43675 -1.41687e-18)
(2.6614 -3.37561 -1.69658e-18)
(3.54166 -3.15624 -1.60336e-18)
(3.04765 -3.23369 3.47611e-19)
(3.76303 -2.7982 -1.03058e-19)
(3.35804 -2.9774 1.94629e-20)
(3.87926 -2.41602 6.65107e-19)
(3.57051 -2.64755 3.26256e-19)
(3.90914 -2.04874 3.17327e-19)
(3.68289 -2.29462 7.21324e-19)
(3.87633 -1.72146 -6.19782e-19)
(3.71489 -1.95815 -5.51821e-19)
(3.80241 -1.44491 2.139e-20)
(3.69247 -1.65617 0)
(3.70238 -1.21975 1.00526e-22)
(3.63662 -1.39647 2.39315e-20)
(3.556 -1.18749 2.33791e-19)
(3.57505 -1.03559 -2.18609e-19)
(1.86843 -3.16523 2.99965e-18)
(1.62103 -3.04698 4.26239e-18)
(2.15159 -3.22938 -3.93012e-18)
(1.92196 -3.05659 -3.97398e-18)
(2.50281 -3.21387 -2.51722e-19)
(2.15781 -3.10002 -1.57227e-18)
(2.86583 -3.10109 1.91584e-18)
(2.47238 -3.05796 2.46318e-18)
(3.16779 -2.87415 3.89975e-19)
(2.77589 -2.91512 1.03576e-19)
(3.37804 -2.57203 3.41446e-19)
(3.03656 -2.68384 -2.12414e-20)
(3.49529 -2.24276 0)
(3.22563 -2.40002 -8.41842e-19)
(3.53726 -1.92356 0)
(3.33954 -2.09929 6.29829e-19)
(3.5277 -1.63352 0)
(3.38935 -1.80644 0)
(3.48833 -1.37888 2.84916e-19)
(3.3915 -1.5381 -5.16085e-19)
(3.35873 -1.31114 1.78497e-19)
(3.41179 -1.15206 2.62891e-19)
(1.68624 -2.89343 -1.52708e-18)
(1.49421 -2.78644 -2.74216e-19)
(1.87461 -2.94582 -1.7575e-18)
(1.72414 -2.77657 -1.90941e-18)
(2.10394 -2.95736 7.68436e-19)
(1.88247 -2.82785 -3.21864e-19)
(2.36658 -2.90083 9.38031e-19)
(2.11396 -2.81454 8.44929e-19)
(2.62981 -2.76374 -2.682e-19)
(2.36346 -2.73487 -3.91835e-19)
(2.86549 -2.55315 -1.07815e-18)
(2.60325 -2.58031 5.75279e-19)
(3.04996 -2.29322 -3.22431e-19)
(2.80978 -2.36721 -1.28963e-18)
(3.17331 -2.01309 6.94973e-19)
(2.96793 -2.11841 9.04448e-19)
(3.23919 -1.73851 -4.54817e-19)
(3.07385 -1.85806 -1.62224e-20)
(3.26035 -1.48738 -7.43895e-19)
(3.13173 -1.60749 -2.24784e-19)
(3.14393 -1.38799 -5.31343e-19)
(3.23812 -1.25634 -1.29029e-19)
(1.55424 -2.64746 -4.92839e-19)
(1.39826 -2.56773 -1.02495e-18)
(1.69801 -2.67289 -5.2979e-19)
(1.57853 -2.52666 -1.90955e-19)
(1.87646 -2.68786 -3.62383e-19)
(1.70125 -2.56671 -1.83815e-21)
(2.08274 -2.66068 -3.49202e-19)
(1.88244 -2.55874 0)
(2.30262 -2.57377 3.45998e-19)
(2.08194 -2.50611 -7.08115e-19)
(2.51542 -2.42533 4.92502e-19)
(2.28829 -2.39959 1.47321e-18)
(2.70264 -2.22698 -2.55153e-19)
(2.48401 -2.24305 -9.12711e-19)
(2.85097 -1.99809 2.54392e-19)
(2.65363 -2.04901 2.56721e-20)
(2.95526 -1.7597 2.33784e-19)
(2.78783 -1.83377 -4.1775e-19)
(3.0176 -1.52976 -2.20448e-20)
(2.88308 -1.6163 2.99339e-19)
(2.93497 -1.42081 -5.23819e-20)
(3.03146 -1.31234 -3.43721e-19)
(1.44554 -2.43179 -8.12279e-19)
(1.30584 -2.3765 1.64416e-19)
(1.55635 -2.43397 2.93013e-19)
(1.46633 -2.31577 -5.1184e-19)
(1.70196 -2.44078 3.45468e-19)
(1.56488 -2.33742 1.42497e-18)
(1.87031 -2.41919 -3.18468e-19)
(1.71364 -2.3277 -6.52612e-19)
(2.05342 -2.35686 1.31826e-19)
(1.87923 -2.28624 6.4604e-19)
(2.24052 -2.24907 2.6302e-19)
(2.05548 -2.20563 3.33857e-19)
(2.41853 -2.09969 -7.07431e-19)
(2.23205 -2.08641 -7.962e-19)
(2.57503 -1.91933 -6.02512e-19)
(2.39737 -1.93472 2.98112e-19)
(2.70168 -1.72239 -3.66903e-19)
(2.54203 -1.75988 -3.70927e-19)
(2.79669 -1.52335 3.52905e-19)
(2.65793 -1.57544 3.06462e-19)
(2.73246 -1.40376 3.74804e-19)
(2.85111 -1.31975 -2.3124e-19)
(1.35107 -2.24306 6.24008e-19)
(1.22678 -2.20025 9.17829e-19)
(1.44389 -2.22652 4.25724e-19)
(1.37182 -2.12452 -1.17654e-18)
(1.56709 -2.22413 6.55825e-19)
(1.45444 -2.13483 2.64311e-18)
(1.70928 -2.20199 1.77194e-19)
(1.5816 -2.12148 -1.65574e-18)
(1.86556 -2.15029 8.74706e-19)
(1.72337 -2.08417 6.80079e-19)
(2.02975 -2.06542 -6.23612e-19)
(1.87665 -2.01755 -2.55207e-19)
(2.19349 -1.94858 1.21491e-19)
(2.0351 -1.92159 -7.65435e-19)
(2.34723 -1.80506 6.44972e-19)
(2.19078 -1.79952 5.53926e-20)
(2.48267 -1.64327 3.00464e-19)
(2.33615 -1.65617 -7.50637e-21)
(2.59544 -1.47375 3.20733e-19)
(2.4625 -1.49999 8.14252e-19)
(2.55341 -1.34795 0)
(2.6785 -1.29669 4.51205e-19)
(1.28017 -2.0733 -5.89566e-19)
(1.1717 -2.05169 1.53032e-18)
(1.35486 -2.04172 6.92744e-19)
(1.29724 -1.95627 -1.10475e-18)
(1.45992 -2.03194 7.9926e-19)
(1.36409 -1.95482 1.76296e-18)
(1.58246 -2.00774 -1.39222e-18)
(1.47447 -1.93634 -1.5622e-18)
(1.71855 -1.96073 -3.53583e-19)
(1.59827 -1.89945 -6.0059e-19)
(1.86428 -1.88857 -3.30102e-19)
(1.73399 -1.84001 -2.12032e-19)
(2.01412 -1.79198 -8.73512e-19)
(1.87749 -1.75821 -3.13805e-20)
(2.16098 -1.67372 -5.46019e-19)
(2.0231 -1.65601 -2.751e-19)
(2.29751 -1.53817 4.73373e-19)
(2.16507 -1.5358 -3.62866e-19)
(2.41748 -1.39139 5.84223e-19)
(2.2955 -1.40306 -2.54335e-19)
(2.3959 -1.27395 3.45487e-19)
(2.50753 -1.23012 0)
(1.22126 -1.92901 1.36287e-18)
(1.12647 -1.92959 1.45199e-18)
(1.28063 -1.8784 -2.87767e-19)
(1.22942 -1.81037 -5.89108e-19)
(1.37099 -1.85981 -2.49295e-19)
(1.28539 -1.79456 -9.57513e-20)
(1.47832 -1.83164 -8.71185e-19)
(1.38367 -1.76868 -5.11759e-20)
(1.59905 -1.7857 -4.98136e-19)
(1.49421 -1.72922 -5.4162e-19)
(1.73046 -1.72038 7.32267e-20)
(1.61683 -1.67246 -2.01047e-19)
(1.86868 -1.63649 5.94719e-19)
(1.74873 -1.59885 9.49456e-19)
(2.00828 -1.53584 -7.6073e-20)
(1.88575 -1.50994 7.06996e-19)
(2.14301 -1.42125 -1.09018e-18)
(2.02362 -1.40696 -3.85821e-19)
(2.26761 -1.29754 -5.43448e-19)
(2.15526 -1.29323 -7.49373e-19)
(2.25932 -1.18186 5.19607e-19)
(2.37333 -1.16102 -1.26652e-18)
(1.15586 -1.80144 -2.25551e-19)
(1.07299 -1.80281 7.4837e-19)
(1.20854 -1.73097 -4.55976e-19)
(1.15859 -1.67004 -1.43919e-19)
(1.29067 -1.70259 9.32552e-20)
(1.21086 -1.64374 -1.29152e-19)
(1.38822 -1.66886 3.31509e-19)
(1.30206 -1.61144 5.11197e-19)
(1.49838 -1.62148 -2.76624e-19)
(1.40392 -1.56857 1.13544e-19)
(1.61951 -1.55928 5.59721e-19)
(1.51767 -1.51211 -1.76181e-19)
(1.74899 -1.48328 1.08124e-18)
(1.64151 -1.44301 3.1558e-19)
(1.88269 -1.3949 4.77597e-19)
(1.77235 -1.36291 6.66881e-19)
(2.01546 -1.29586 -9.18467e-21)
(1.90702 -1.2725 -4.91827e-19)
(2.14252 -1.18905 1.44779e-19)
(2.03972 -1.1733 -2.04658e-19)
(2.14961 -1.0741 2.10067e-20)
(2.25671 -1.07057 -7.43214e-19)
(1.09176 -1.67319 9.23392e-19)
(1.02244 -1.67528 1.387e-18)
(1.13934 -1.58857 1.84269e-19)
(1.09295 -1.53177 -4.92672e-19)
(1.21599 -1.55271 2.25586e-19)
(1.1417 -1.49717 1.05847e-19)
(1.30719 -1.51385 3.3653e-19)
(1.22733 -1.45947 7.24641e-20)
(1.41054 -1.46405 2.45523e-19)
(1.32327 -1.41308 4.94437e-19)
(1.52507 -1.40281 -4.73888e-19)
(1.43149 -1.3557 -1.02217e-19)
(1.64899 -1.3315 -1.44597e-19)
(1.55058 -1.28892 -2.99129e-19)
(1.77905 -1.25146 -1.92265e-19)
(1.67795 -1.2147 3.50932e-21)
(1.91091 -1.16324 -7.18118e-19)
(1.81092 -1.13348 -3.24832e-19)
(2.04032 -1.06658 -3.76499e-19)
(1.94452 -1.04501 -2.00807e-19)
(2.05682 -0.95562 1.52782e-19)
(2.15842 -0.949705 -4.40671e-19)
(1.03899 -1.54965 1.99247e-19)
(0.979463 -1.57311 5.53245e-19)
(1.07727 -1.45036 -6.31974e-19)
(1.03159 -1.40529 -4.79665e-19)
(1.14746 -1.40686 -4.35959e-20)
(1.07677 -1.35668 2.61598e-19)
(1.23338 -1.36268 1.87365e-19)
(1.15819 -1.31116 -2.97098e-19)
(1.33224 -1.3098 2.08739e-19)
(1.25045 -1.25987 9.38744e-20)
(1.44308 -1.24821 9.46537e-20)
(1.3559 -1.20032 1.67696e-21)
(1.56436 -1.17977 -1.83728e-19)
(1.47322 -1.13447 0)
(1.69305 -1.10599 -9.43668e-20)
(1.59983 -1.06468 -2.06254e-19)
(1.82475 -1.02711 1.76211e-19)
(1.73297 -0.991571 1.18758e-19)
(1.95468 -0.94297 2.60488e-19)
(1.86818 -0.914083 -1.11462e-20)
(1.98265 -0.836022 2.04823e-19)
(2.07614 -0.847339 1.1574e-18)
(0.977443 -1.43382 1.28272e-20)
(0.93267 -1.45614 0)
(1.01385 -1.31587 3.40316e-19)
(0.966721 -1.2729 -4.15447e-19)
(1.08171 -1.26271 6.89694e-20)
(1.01283 -1.21369 7.05564e-19)
(1.16529 -1.21212 -4.32725e-19)
(1.09305 -1.16122 -6.35109e-20)
(1.26238 -1.15532 -1.05006e-19)
(1.18437 -1.10482 -2.02383e-19)
(1.37239 -1.09253 -9.42343e-20)
(1.28997 -1.04253 -1.21176e-19)
(1.49385 -1.02611 0)
(1.40855 -0.977082 0)
(1.6236 -0.957933 -2.81336e-20)
(1.53722 -0.911448 -1.61861e-19)
(1.757 -0.887886 -5.51093e-20)
(1.6725 -0.846402 1.49942e-19)
(1.88926 -0.81442 -1.13397e-19)
(1.81027 -0.779846 -1.93558e-23)
(1.92819 -0.712956 -1.31817e-19)
(2.01401 -0.729275 5.30603e-19)
(0.915817 -1.31007 -3.87057e-19)
(0.89024 -1.32902 -2.75388e-19)
(0.951427 -1.17663 -1.48722e-19)
(0.905404 -1.1333 -5.07862e-19)
(1.01875 -1.11498 6.56799e-19)
(0.952907 -1.06493 2.68307e-19)
(1.10225 -1.0581 1.81407e-19)
(1.03267 -1.00588 2.76992e-19)
(1.20026 -0.997045 -2.2673e-19)
(1.12504 -0.9442 -1.76403e-19)
(1.31245 -0.932784 -3.96499e-20)
(1.2337 -0.879002 1.34178e-19)
(1.43712 -0.8685 -1.44929e-19)
(1.3568 -0.814255 -1.96709e-19)
(1.57045 -0.806459 -1.65114e-20)
(1.49046 -0.753738 -9.45816e-20)
(1.70697 -0.746143 2.22218e-19)
(1.62968 -0.698263 2.5325e-19)
(1.84137 -0.684598 -3.54851e-21)
(1.77045 -0.64437 2.25997e-20)
(1.89026 -0.589262 -3.22701e-20)
(1.96882 -0.610602 6.06708e-19)
(0.864737 -1.18123 -3.72322e-19)
(0.850813 -1.21541 -2.73762e-19)
(0.895196 -1.03195 -1.54055e-19)
(0.846224 -0.996179 -2.71055e-20)
(0.960744 -0.961175 -1.12625e-19)
(0.896479 -0.912469 5.32637e-22)
(1.04502 -0.897311 -3.51425e-20)
(0.977247 -0.843686 -1.41595e-19)
(1.14632 -0.831555 1.53055e-19)
(1.07344 -0.775009 1.61084e-19)
(1.26395 -0.766024 1.15483e-20)
(1.18875 -0.706564 1.71124e-19)
(1.39509 -0.705028 -1.57304e-19)
(1.32009 -0.643731 -2.27107e-19)
(1.53439 -0.651124 1.39111e-19)
(1.46157 -0.590854 3.21554e-20)
(1.67497 -0.602893 7.86828e-20)
(1.6059 -0.548061 -1.14593e-19)
(1.81072 -0.555516 0)
(1.74914 -0.510083 1.65005e-20)
(1.86922 -0.469989 -1.21766e-20)
(1.93724 -0.496883 -3.539e-20)
(0.809986 -1.05245 4.67494e-20)
(0.81402 -1.08916 2.4929e-19)
(0.839483 -0.882971 1.27755e-19)
(0.786358 -0.849455 -1.39948e-19)
(0.906182 -0.799604 -1.18077e-20)
(0.843244 -0.749169 7.81354e-20)
(0.994417 -0.726558 2.48135e-20)
(0.928397 -0.668889 -1.2459e-20)
(1.1029 -0.655287 1.78038e-19)
(1.03283 -0.59227 1.0295e-20)
(1.23014 -0.589455 -2.52069e-20)
(1.15953 -0.521517 8.99876e-20)
(1.3712 -0.534443 -6.39408e-20)
(1.30303 -0.463787 5.39276e-20)
(1.51821 -0.492365 -2.04864e-19)
(1.45436 -0.423266 -6.28627e-20)
(1.66282 -0.459854 -1.90326e-19)
(1.6035 -0.397719 6.1526e-20)
(1.79941 -0.429145 1.00779e-20)
(1.74748 -0.378829 6.2579e-20)
(1.86618 -0.355152 -1.25061e-19)
(1.92596 -0.387557 -1.02761e-20)
(0.755513 -0.912841 5.68431e-20)
(0.782628 -0.947804 2.45007e-19)
(0.786135 -0.722374 -2.10032e-19)
(0.728745 -0.688132 -1.88874e-19)
(0.857312 -0.624066 8.65366e-20)
(0.797385 -0.56879 1.04119e-19)
(0.954172 -0.5406 -3.251e-20)
(0.89183 -0.475188 1.86491e-19)
(1.0751 -0.464427 -8.87386e-20)
(1.01075 -0.391343 -7.36134e-20)
(1.21675 -0.401339 1.72953e-19)
(1.15495 -0.321904 -1.30681e-19)
(1.37053 -0.357314 6.76301e-20)
(1.31408 -0.275614 1.37678e-19)
(1.52533 -0.332523 1.85842e-19)
(1.47499 -0.254495 -6.79004e-20)
(1.6718 -0.320089 3.12108e-19)
(1.62566 -0.251611 8.94592e-20)
(1.80579 -0.30853 -5.7106e-20)
(1.76514 -0.254643 2.50092e-20)
(1.88 -0.24696 -1.51275e-21)
(1.93051 -0.284196 -8.53965e-20)
(0.705761 -0.755275 0)
(0.761834 -0.786768 2.08878e-19)
(0.740423 -0.543444 9.26881e-20)
(0.678565 -0.506901 -1.57444e-19)
(0.820706 -0.427332 1.94786e-19)
(0.765408 -0.363902 7.38478e-20)
(0.932883 -0.333097 1.68612e-19)
(0.878197 -0.256072 5.86048e-21)
(1.07419 -0.2555 -1.09659e-19)
(1.02135 -0.168171 -9.89126e-21)
(1.23565 -0.2023 -1.94887e-19)
(1.18914 -0.10909 -2.3502e-20)
(1.40277 -0.177804 2.98569e-20)
(1.36404 -0.0854615 -5.39164e-20)
(1.56152 -0.177356 -1.71011e-19)
(1.52934 -0.0929697 -6.91871e-20)
(1.70365 -0.188951 -1.64406e-19)
(1.67398 -0.117789 -4.56511e-20)
(1.82781 -0.197556 7.15478e-20)
(1.80017 -0.144243 1.28213e-19)
(1.90417 -0.155088 3.08871e-20)
(1.93839 -0.191257 4.06947e-19)
(0.665922 -0.578188 4.20173e-21)
(0.760527 -0.588922 2.01348e-19)
(0.707146 -0.336742 -2.07988e-19)
(0.631653 -0.291405 -1.52568e-19)
(0.806728 -0.200803 -1.24398e-19)
(0.764599 -0.122625 -9.63879e-20)
(0.946571 -0.0995238 -1.76715e-19)
(0.911558 -0.00503799 -9.24953e-20)
(1.11687 -0.0303137 6.42685e-20)
(1.08847 0.0736006 -8.79338e-20)
(1.2998 0.000166831 1.14051e-19)
(1.28 0.105178 1.62058e-19)
(1.47495 -0.00609587 -1.64508e-19)
(1.46228 0.0916289 -1.07546e-19)
(1.62846 -0.0366022 5.38434e-20)
(1.6195 0.0476691 9.96793e-20)
(1.75674 -0.0742743 2.40319e-19)
(1.7464 -0.00638744 4.94807e-20)
(1.86376 -0.102801 1.02419e-19)
(1.84998 -0.0537816 -1.15725e-19)
(1.93628 -0.080759 -1.48405e-19)
(1.95919 -0.108369 -3.28838e-20)
(0.624948 -0.338313 0)
(0.795827 -0.358181 3.74676e-20)
(0.706274 -0.0869023 -6.69225e-20)
(0.674062 -0.0259604 1.54546e-20)
(0.843526 0.062999 -8.90295e-20)
(0.839455 0.161259 -1.42294e-19)
(1.02533 0.156102 -4.79993e-21)
(1.03579 0.267379 -3.87017e-20)
(1.22779 0.196687 -1.71362e-20)
(1.24408 0.308736 1.16025e-19)
(1.42334 0.186723 -2.04719e-20)
(1.44297 0.290185 -1.58863e-19)
(1.59129 0.139837 7.72477e-20)
(1.61106 0.228931 5.46813e-20)
(1.72459 0.0763943 5.50632e-20)
(1.74119 0.148869 8.51473e-20)
(1.82753 0.0153746 -2.58276e-19)
(1.83697 0.0714878 2.85448e-20)
(1.9098 -0.0290206 -3.42868e-19)
(1.90961 0.0107339 -4.29702e-20)
(1.97162 -0.0247178 -5.96764e-20)
(1.98111 -0.0523164 -6.78204e-20)
(0.660038 -0.176814 8.47014e-20)
(1.02033 0.0109106 9.63553e-19)
(0.755047 0.174705 -3.69147e-20)
(0.741921 0.323539 2.83041e-19)
(0.969353 0.32878 -1.05037e-19)
(1.11591 0.450435 4.1411e-19)
(1.20288 0.388698 6.74921e-20)
(1.32808 0.485104 -2.5839e-19)
(1.42324 0.377604 9.72141e-20)
(1.5197 0.458728 -3.04083e-20)
(1.60598 0.316841 8.56874e-21)
(1.67951 0.384526 -3.32364e-20)
(1.7432 0.231589 -7.20986e-21)
(1.79952 0.287497 8.41208e-20)
(1.84014 0.144134 4.30184e-20)
(1.88236 0.188996 3.67359e-20)
(1.90808 0.0700347 2.03616e-19)
(1.93618 0.104212 5.32637e-20)
(1.95978 0.0193968 1.86836e-19)
(1.97192 0.0425829 2.09063e-19)
(2.00359 0.00883885 1.11369e-19)
(2.01372 0.0020503 7.30153e-20)
(1.09771 0.725788 -2.59582e-19)
(2.82421 0.642496 -3.45292e-19)
(1.36563 0.715203 4.04896e-19)
(1.40647 0.209227 -4.51886e-19)
(1.53812 0.69512 -7.9528e-20)
(1.531 0.256463 2.43272e-18)
(1.69232 0.61447 -2.37028e-19)
(1.6837 0.311862 -1.09817e-18)
(1.8138 0.504358 5.10453e-20)
(1.81216 0.305539 -1.89203e-19)
(1.89682 0.382328 5.70915e-22)
(1.91068 0.255003 0)
(1.94909 0.264704 3.8854e-20)
(1.97982 0.187586 -1.0302e-19)
(1.98011 0.163565 4.5004e-20)
(2.01892 0.119002 -7.57965e-22)
(1.99728 0.0860948 4.31447e-20)
(2.03333 0.0589224 5.68571e-20)
(2.00882 0.0385298 1.26158e-19)
(2.03102 0.0177842 3.22201e-20)
(2.02691 0.00776751 8.88613e-20)
(2.02755 0.0225404 -2.51696e-19)
(5.64011 -0.541174 -1.48842e-18)
(5.48863 -1.60264 0)
(6.01879 -0.895961 -2.88406e-18)
(4.77707 -0.623739 -1.38703e-18)
(6.09028 -0.91229 1.99896e-18)
(5.4284 -0.475017 9.47906e-19)
(5.9367 -0.836805 2.62612e-19)
(5.77016 -0.453633 6.79712e-19)
(5.6244 -0.744412 -2.69273e-19)
(5.72904 -0.398764 -6.94157e-19)
(5.24367 -0.640789 2.54195e-19)
(5.46478 -0.341749 6.24929e-20)
(4.88951 -0.531561 -2.84552e-20)
(5.1408 -0.30806 -1.5282e-19)
(4.58966 -0.447226 -9.44792e-21)
(4.78142 -0.267421 9.18759e-20)
(4.32876 -0.382624 -1.10923e-20)
(4.48019 -0.232325 -7.16615e-20)
(4.09712 -0.338609 2.02324e-20)
(4.2154 -0.204129 1.14504e-20)
(3.98465 -0.195845 -5.89351e-21)
(3.87372 -0.326559 3.21348e-19)
(3.6742 -1.2549 0)
(3.33002 -3.24139 2.99628e-20)
(4.49735 -0.621265 -7.68061e-19)
(3.45264 -1.65346 -5.21898e-19)
(5.08246 -0.337753 -6.9302e-19)
(4.34633 -0.722854 -8.07587e-19)
(5.44288 -0.212795 2.49117e-20)
(4.97707 -0.276381 9.85382e-19)
(5.5418 -0.14827 -4.29605e-19)
(5.31021 -0.0128689 -8.3475e-19)
(5.38978 -0.114948 -3.92735e-20)
(5.37336 0.126591 -1.84954e-19)
(5.07651 -0.0994328 -2.16231e-19)
(5.22762 0.165126 5.71418e-19)
(4.7197 -0.0894462 2.11481e-19)
(4.90509 0.154803 3.09707e-19)
(4.4083 -0.079439 -5.74431e-20)
(4.56158 0.119761 -2.79764e-19)
(4.14052 -0.0788825 1.50416e-19)
(4.25382 0.0921133 2.33124e-19)
(3.99995 0.0594244 -4.47538e-20)
(3.87897 -0.105932 -1.65386e-19)
(3.02561 -3.33878 -2.7362e-19)
(2.80628 -4.98149 3.27997e-19)
(3.52085 -1.69992 -5.39837e-19)
(3.04538 -3.22861 -9.35609e-19)
(4.15687 -0.724228 5.52034e-19)
(3.60335 -1.72888 0)
(4.71836 -0.164744 5.04602e-19)
(4.20187 -0.732983 6.01634e-20)
(5.08516 0.161976 -1.89478e-19)
(4.7021 -0.0656722 -1.72915e-19)
(5.20372 0.320906 6.74865e-19)
(5.00344 0.341782 1.33914e-20)
(5.08469 0.356674 1.16517e-18)
(5.07181 0.531071 4.3045e-19)
(4.79337 0.321757 5.21962e-20)
(4.89923 0.564734 -2.97808e-19)
(4.45504 0.265947 -4.81153e-20)
(4.59014 0.503333 -1.08032e-19)
(4.15157 0.218813 2.33041e-19)
(4.25876 0.421533 -5.12346e-20)
(3.98558 0.339113 2.83631e-19)
(3.88082 0.165337 0)
(2.95967 -5.05777 2.90043e-19)
(2.94842 -5.84179 6.23556e-19)
(3.16931 -3.27553 -4.98217e-19)
(2.94773 -4.64753 -9.36799e-20)
(3.61031 -1.73259 -3.75026e-19)
(3.21538 -2.94823 0)
(4.1196 -0.65454 -4.67487e-19)
(3.68182 -1.53422 -4.36575e-19)
(4.56355 0.0713301 7.3199e-20)
(4.17079 -0.471469 1.71448e-19)
(4.8418 0.506957 -3.49072e-19)
(4.56158 0.270746 6.09307e-19)
(4.89978 0.702045 -1.11723e-18)
(4.77176 0.710722 -4.73582e-19)
(4.74162 0.719074 -5.62391e-19)
(4.74887 0.890582 -4.16328e-19)
(4.44783 0.638316 -1.05758e-19)
(4.53243 0.874806 3.5633e-19)
(4.13035 0.533657 -1.64883e-19)
(4.21673 0.766132 -3.61714e-19)
(3.92469 0.635011 2.47986e-19)
(3.83728 0.40928 -3.26054e-19)
(2.96401 -5.64148 3.68055e-19)
(3.05227 -6.05362 -2.26943e-18)
(2.99104 -4.504 4.54775e-19)
(2.9952 -5.44014 1.94175e-18)
(3.2724 -2.85552 -1.53118e-20)
(3.04713 -4.15889 -1.16902e-18)
(3.68954 -1.42068 1.36814e-19)
(3.3461 -2.52231 4.34941e-19)
(4.11377 -0.321898 6.28965e-19)
(3.76042 -1.11299 1.4529e-19)
(4.44624 0.43771 5.37631e-19)
(4.15008 -0.0330999 9.4549e-19)
(4.61032 0.87553 2.37696e-19)
(4.42071 0.698903 -6.89448e-20)
(4.57012 1.03473 4.37713e-19)
(4.50009 1.09282 3.18721e-19)
(4.35631 0.99704 2.5539e-19)
(4.37913 1.19412 1.56783e-19)
(4.05831 0.866882 -1.7692e-20)
(4.11391 1.10707 -1.33552e-19)
(3.81661 0.945826 -3.26029e-19)
(3.75251 0.678997 -1.99903e-19)
(3.10181 -5.93004 -1.18927e-18)
(3.16578 -6.28454 -2.0605e-18)
(3.0246 -5.26171 6.45605e-19)
(3.14809 -5.78901 1.35189e-18)
(3.12036 -3.99977 -9.55585e-19)
(3.07598 -5.00695 -1.17441e-18)
(3.3945 -2.34906 4.65005e-19)
(3.1706 -3.54822 4.38822e-19)
(3.75034 -0.921845 4.40646e-19)
(3.45884 -1.91331 6.69298e-19)
(4.07346 0.162631 4.51357e-19)
(3.79395 -0.52003 -4.81655e-19)
(4.27966 0.87897 -2.18952e-20)
(4.06504 0.516228 -6.87704e-20)
(4.31593 1.23927 5.72955e-20)
(4.19268 1.16233 2.8688e-19)
(4.17856 1.30595 -1.58284e-19)
(4.14231 1.43385 -2.98093e-19)
(3.9259 1.19117 -3.66879e-19)
(3.9354 1.41683 2.75561e-19)
(3.6586 1.24543 -6.5577e-20)
(3.63427 0.940615 -2.42985e-19)
(3.24417 -6.1953 8.98798e-20)
(3.26416 -6.546 -1.59893e-18)
(3.17486 -5.64701 -2.08135e-19)
(3.29617 -6.0887 -1.68347e-20)
(3.11738 -4.7281 0)
(3.19637 -5.46655 -1.10592e-18)
(3.23665 -3.279 5.75517e-19)
(3.15638 -4.39043 -1.78501e-21)
(3.47494 -1.65226 -8.85019e-20)
(3.27329 -2.7705 1.32264e-18)
(3.74039 -0.272115 -1.02391e-18)
(3.50374 -1.14435 -1.41883e-18)
(3.93731 0.732082 2.09233e-19)
(3.72525 0.186369 4.14383e-19)
(4.00533 1.32649 -2.98996e-21)
(3.85092 1.10246 -2.26221e-19)
(3.92195 1.54367 7.85854e-20)
(3.83539 1.57927 1.59072e-19)
(3.71486 1.48372 6.90674e-19)
(3.67644 1.67691 2.95862e-19)
(3.45473 1.51786 1.69089e-19)
(3.46046 1.25429 4.17499e-20)
(3.35787 -6.4733 -1.88128e-18)
(3.34952 -6.80869 -1.86486e-18)
(3.30532 -5.98332 -8.05777e-19)
(3.42138 -6.37896 1.75965e-19)
(3.23269 -5.25094 -1.23747e-18)
(3.32035 -5.81703 -1.11898e-18)
(3.20299 -4.05507 5.9086e-19)
(3.23225 -4.96007 -1.80247e-21)
(3.30026 -2.42705 3.09448e-19)
(3.19734 -3.55801 6.81519e-19)
(3.45907 -0.824769 -1.7779e-19)
(3.28438 -1.83306 -4.95893e-19)
(3.59828 0.456149 5.11486e-20)
(3.4093 -0.25735 3.69147e-19)
(3.65415 1.29884 -6.42597e-20)
(3.48741 0.923925 -6.06507e-19)
(3.59578 1.69683 3.60283e-19)
(3.46962 1.62143 1.29187e-19)
(3.42837 1.7291 -2.18749e-19)
(3.34027 1.86461 7.69638e-20)
(3.17246 1.77679 1.28482e-19)
(3.18543 1.54281 -1.08428e-18)
(3.4581 -6.74884 0)
(3.42963 -7.06199 0)
(3.41558 -6.29309 0)
(3.52958 -6.66461 -1.41463e-18)
(3.33898 -5.62279 0)
(3.41528 -6.14073 1.10037e-18)
(3.2355 -4.62091 0)
(3.3127 -5.36326 0)
(3.20131 -3.14727 0)
(3.18718 -4.19313 0)
(3.22427 -1.43698 -4.177e-20)
(3.12356 -2.51468 2.99257e-19)
(3.26562 0.0755159 -1.82678e-19)
(3.11566 -0.780165 4.02216e-19)
(3.26948 1.15962 -4.59507e-19)
(3.10575 0.638003 2.54635e-19)
(3.20751 1.75023 -9.80828e-20)
(3.05076 1.55254 -7.68897e-19)
(3.08001 1.90131 4.26145e-19)
(2.932 1.94706 -2.8421e-19)
(2.80334 1.93204 6.07912e-19)
(2.91521 1.75434 -7.19133e-19)
(3.54716 -7.00788 -1.28038e-18)
(3.50548 -7.30427 -2.21589e-19)
(3.50313 -6.58918 -4.92101e-19)
(3.61883 -6.92406 -1.42818e-18)
(3.41606 -5.96267 1.21926e-18)
(3.47503 -6.44303 8.25783e-19)
(3.28798 -5.06676 0)
(3.36131 -5.71474 -4.63919e-19)
(3.14049 -3.74723 2.68562e-19)
(3.1827 -4.68068 0)
(3.02536 -2.05125 7.34249e-19)
(2.99357 -3.13785 6.48499e-19)
(2.93655 -0.383075 8.60332e-19)
(2.83804 -1.34142 2.23814e-20)
(2.85253 0.913637 -3.46615e-20)
(2.70593 0.258221 1.87008e-20)
(2.75796 1.69036 -9.58845e-19)
(2.58213 1.3683 -4.36214e-19)
(2.64875 1.96795 -2.0894e-19)
(2.45569 1.91389 1.0298e-18)
(2.35958 1.99314 4.54168e-19)
(2.51551 1.92859 2.13708e-19)
(3.6048 -7.23416 -2.44713e-19)
(3.54271 -7.47105 -1.93797e-20)
(3.55962 -6.86017 -2.56245e-19)
(3.66954 -7.16236 0)
(3.45292 -6.27325 -7.31948e-19)
(3.49852 -6.72209 2.85477e-18)
(3.29505 -5.44213 -5.13512e-19)
(3.36247 -6.04008 -1.8283e-18)
(3.07356 -4.2433 3.00275e-19)
(3.14254 -5.09196 0)
(2.8396 -2.62812 -2.86067e-20)
(2.85283 -3.70452 -2.54822e-19)
(2.60424 -0.890701 -8.30741e-19)
(2.5598 -1.9123 5.61972e-19)
(2.40372 0.565344 -4.16949e-19)
(2.28564 -0.20138 1.00882e-18)
(2.2545 1.50639 1.43152e-18)
(2.07148 1.06211 9.84392e-19)
(2.15598 1.91149 1.70424e-18)
(1.92649 1.74295 1.08493e-18)
(1.85621 1.91922 -5.50414e-19)
(2.07684 1.94832 2.06445e-18)
(3.65027 -7.41985 2.37996e-19)
(3.55747 -7.63574 -1.08368e-18)
(3.59222 -7.08966 2.83195e-18)
(3.68043 -7.36406 6.97508e-19)
(3.44559 -6.54874 2.34241e-18)
(3.48329 -6.94025 3.02629e-19)
(3.24868 -5.78629 -1.50044e-18)
(3.31065 -6.32493 -4.69018e-19)
(2.9738 -4.70078 -5.57439e-19)
(3.04749 -5.45701 0)
(2.63022 -3.1896 2.16525e-19)
(2.67361 -4.21399 -6.05785e-19)
(2.25246 -1.43628 2.39585e-18)
(2.2631 -2.48632 -9.47436e-19)
(1.92632 0.121538 2.46238e-18)
(1.8464 -0.73319 2.17499e-18)
(1.71089 1.19039 5.81787e-19)
(1.53407 0.630352 -3.40196e-20)
(1.61962 1.70663 -1.22788e-18)
(1.36431 1.41791 5.15724e-19)
(1.34838 1.67496 -2.08442e-18)
(1.61975 1.84028 -4.04855e-19)
(3.65724 -7.56832 -8.03414e-19)
(3.56306 -7.75047 -1.73697e-18)
(3.56422 -7.27614 -1.81883e-18)
(3.65126 -7.49648 9.64265e-21)
(3.38852 -6.77913 -2.40833e-18)
(3.43528 -7.11723 -2.88023e-18)
(3.14714 -6.0894 9.87886e-19)
(3.20724 -6.56381 1.81097e-18)
(2.81704 -5.10376 1.604e-20)
(2.89251 -5.78926 0)
(2.38136 -3.70647 -1.74483e-18)
(2.4499 -4.68774 -3.33353e-20)
(1.88071 -2.00672 -1.63242e-18)
(1.94025 -3.06637 -1.01171e-18)
(1.43463 -0.412447 -4.40586e-19)
(1.39972 -1.3329 7.00914e-19)
(1.14798 0.73537 -1.93397e-19)
(0.994248 0.0788722 -2.03603e-18)
(1.06081 1.33856 -4.21243e-19)
(0.802035 0.936886 1.19503e-18)
(0.846502 1.29181 -1.2097e-18)
(1.09816 1.55618 2.72253e-18)
(3.63596 -7.65657 -1.10114e-18)
(3.54507 -7.7933 -4.2915e-19)
(3.50794 -7.40043 -7.68508e-19)
(3.57185 -7.57496 2.04375e-18)
(3.2894 -6.95928 8.41861e-19)
(3.3349 -7.23538 -2.68515e-18)
(2.99612 -6.34765 1.03389e-18)
(3.05266 -6.7479 2.79747e-18)
(2.6038 -5.48197 -1.37749e-20)
(2.67663 -6.07277 -1.47582e-18)
(2.08782 -4.22296 8.58162e-19)
(2.17621 -5.13346 1.25762e-18)
(1.50623 -2.60566 1.14244e-18)
(1.59355 -3.7006 1.00394e-18)
(0.956077 -1.03464 -9.01314e-19)
(0.96971 -1.99317 0)
(0.611107 0.147266 -1.03393e-18)
(0.494305 -0.583891 -1.07496e-19)
(0.536327 0.820489 6.64369e-19)
(0.29335 0.305582 -1.11598e-18)
(0.381781 0.746819 2.18181e-19)
(0.633288 1.1165 2.68078e-18)
(3.56746 -7.69205 2.4669e-18)
(3.50384 -7.78036 2.05129e-20)
(3.39895 -7.46414 5.22388e-19)
(3.44207 -7.59716 2.07658e-18)
(3.1349 -7.07522 -1.28707e-18)
(3.17963 -7.29309 -4.2697e-18)
(2.78588 -6.54194 7.67469e-19)
(2.84302 -6.86905 1.78231e-18)
(2.33608 -5.8092 -4.90083e-19)
(2.40853 -6.29061 -7.60053e-19)
(1.75626 -4.75077 1.42867e-18)
(1.86445 -5.50404 1.274e-18)
(1.09466 -3.27603 -3.22818e-20)
(1.23155 -4.34466 -1.07654e-18)
(0.508311 -1.7252 8.08576e-19)
(0.601972 -2.76711 -1.26568e-18)
(0.150248 -0.55358 -4.1262e-20)
(0.0908147 -1.34764 1.58631e-18)
(0.0904494 0.163723 -1.3086e-18)
(-0.111518 -0.441515 -2.6474e-18)
(0.0245271 0.068694 -8.59115e-19)
(0.252929 0.537251 0)
(3.45532 -7.6675 -4.46152e-19)
(3.4277 -7.6944 -1.52071e-18)
(3.23857 -7.46418 -2.14869e-18)
(3.26371 -7.54796 1.15719e-18)
(2.92449 -7.12714 -1.83057e-18)
(2.96668 -7.28461 -3.49367e-18)
(2.5196 -6.66706 5.12283e-19)
(2.5793 -6.93113 -7.53223e-20)
(2.01414 -6.0431 7.89989e-19)
(2.10039 -6.45328 2.77193e-18)
(1.40824 -5.19683 -8.72032e-19)
(1.53595 -5.80405 1.06908e-18)
(0.746744 -4.01344 -2.21174e-18)
(0.913866 -4.90835 -2.61694e-18)
(0.155054 -2.56826 -2.91136e-19)
(0.321223 -3.61117 -1.90389e-19)
(-0.212761 -1.35639 -7.10226e-19)
(-0.181518 -2.22552 -5.44745e-22)
(-0.228177 -0.612728 -2.40011e-18)
(-0.370058 -1.28459 -8.26873e-19)
(-0.15871 -0.721469 5.77897e-19)
(-0.0240344 -0.0841056 6.49348e-19)
(3.29134 -7.56449 -5.96841e-20)
(3.29612 -7.51647 -4.06574e-18)
(3.02143 -7.38921 3.23575e-19)
(3.02873 -7.41043 3.14875e-18)
(2.65825 -7.11464 -2.10012e-18)
(2.68933 -7.20103 -1.89357e-18)
(2.21018 -6.74594 1.7991e-18)
(2.25847 -6.93603 0)
(1.68164 -6.25025 3.23918e-18)
(1.7569 -6.58157 3.17226e-18)
(1.09151 -5.57613 -2.10047e-19)
(1.21225 -6.09309 -1.66385e-18)
(0.473772 -4.65211 -8.56303e-19)
(0.659481 -5.40833 3.89122e-19)
(-0.0753759 -3.45952 -1.33512e-20)
(0.143989 -4.41369 1.08012e-18)
(-0.399039 -2.278 -7.14189e-19)
(-0.295259 -3.19934 5.05178e-19)
(-0.399997 -1.48104 2.19334e-18)
(-0.470576 -2.1992 -1.32204e-18)
(-0.21542 -1.54205 1.00669e-18)
(-0.133878 -0.969995 8.68406e-19)
(3.05885 -7.36688 -1.53949e-18)
(3.088 -7.2383 -4.17818e-18)
(2.73493 -7.22561 1.48029e-18)
(2.72164 -7.17114 2.22283e-18)
(2.32696 -7.03026 0)
(2.32962 -7.03593 1.5886e-18)
(1.85211 -6.7796 1.04415e-18)
(1.86524 -6.8884 -1.23299e-18)
(1.33275 -6.44249 -1.08824e-18)
(1.37012 -6.69031 2.18537e-18)
(0.802592 -5.96738 -1.18532e-18)
(0.888926 -6.38956 -3.50567e-18)
(0.292786 -5.28252 2.24923e-18)
(0.45564 -5.91835 1.31792e-18)
(-0.151276 -4.33524 1.02405e-18)
(0.082905 -5.18105 0)
(-0.417802 -3.24988 -2.83711e-19)
(-0.2348 -4.18278 1.15255e-18)
(-0.400007 -2.38612 -1.2187e-18)
(-0.386837 -3.1791 -1.41818e-18)
(-0.10325 -2.37591 -9.42853e-20)
(-0.152988 -1.76311 3.62671e-19)
(2.73746 -7.05149 -9.03176e-19)
(2.76126 -6.85385 -1.60362e-18)