/*--------------------------------*- C++ -*----------------------------------*\
| =========                 |                                                 |
| \\      /  F ield         | OpenFOAM: The Open Source CFD Toolbox           |
|  \\    /   O peration     | Version:  3.0.1                                 |
|   \\  /    A nd           | Web:      www.OpenFOAM.org                      |
|    \\/     M anipulation  |                                                 |
\*---------------------------------------------------------------------------*/
FoamFile
{
    version     2.0;
    format      ascii;
    class       volScalarField;
    location    "0.664269";
    object      p;
}
// * * * * * * * * * * * * * * * * * * * * * * * * * * * * * * * * * * * * * //

dimensions      [0 2 -2 0 0 0 0];

internalField   nonuniform List<scalar> 
21246
(
-9.54369
-4.93218
-2.92321
-1.81905
-1.03247
-0.526519
-0.223697
-0.0370625
0.0643673
0.125552
0.202349
-11.4915
-7.8008
-5.96125
-4.39603
-2.97811
-1.94103
-1.25839
-0.823579
-0.556288
-0.379278
-0.242303
-8.31776
-7.71541
-7.07261
-5.95693
-4.60868
-3.37561
-2.3998
-1.70322
-1.22532
-0.898353
-0.669717
-6.78809
-6.84296
-6.67096
-6.13635
-5.28755
-4.2723
-3.28108
-2.45937
-1.83887
-1.37585
-1.06253
-6.13141
-6.14782
-6.07497
-5.81883
-5.31916
-4.59674
-3.76133
-2.96453
-2.30577
-1.8091
-1.40125
-5.72284
-5.6699
-5.61223
-5.45057
-5.12088
-4.59636
-3.92203
-3.20916
-2.56398
-2.03449
-1.6066
-5.3286
-5.24476
-5.19855
-5.07257
-4.82675
-4.42422
-3.87657
-3.25726
-2.65952
-2.14058
-1.70598
-4.9454
-4.83653
-4.79005
-4.66852
-4.46891
-4.14533
-3.69371
-3.16189
-2.62544
-2.14125
-1.72753
-4.59488
-4.46434
-4.39107
-4.25743
-4.08117
-3.8049
-3.42283
-2.96624
-2.49329
-2.05289
-1.66218
-4.28384
-4.12812
-4.03523
-3.88819
-3.70623
-3.45105
-3.11407
-2.71623
-2.30125
-1.90847
-1.55154
-4.01999
-3.8399
-3.73095
-3.56788
-3.36831
-3.11983
-2.80854
-2.45296
-2.08537
-1.73577
-1.41588
-3.80334
-3.60048
-3.48013
-3.29863
-3.0859
-2.83308
-2.53378
-2.20592
-1.87272
-1.5561
-1.26083
-3.62824
-3.40807
-3.28231
-3.08668
-2.8632
-2.60199
-2.30734
-1.99372
-1.68112
-1.38733
-1.11755
-3.49165
-3.25975
-3.13308
-2.92801
-2.69606
-2.42834
-2.13267
-1.82274
-1.51764
-1.23398
-0.977203
-3.38646
-3.14728
-3.02212
-2.81114
-2.57444
-2.30294
-2.00283
-1.68828
-1.37939
-1.09578
-0.84318
-3.30668
-3.06429
-2.94082
-2.72914
-2.49075
-2.21557
-1.9072
-1.58045
-1.25859
-0.967703
-0.716958
-3.25006
-3.00883
-2.88777
-2.67936
-2.44003
-2.15901
-1.8366
-1.48923
-1.14676
-0.841793
-0.584539
-3.21437
-2.97934
-2.86339
-2.66141
-2.42143
-2.13035
-1.78493
-1.4069
-1.03718
-0.718332
-0.465923
-3.199
-2.97747
-2.87057
-2.6796
-2.43855
-2.12858
-1.74481
-1.32362
-0.922974
-0.595289
-0.35275
-3.20588
-3.00646
-2.91497
-2.73897
-2.49414
-2.15651
-1.73561
-1.26358
-0.815519
-0.471404
-0.249241
-3.22667
-3.07708
-3.02424
-2.87733
-2.64961
-2.2896
-1.79769
-1.27552
-0.787337
-0.401903
-0.174459
-3.26769
-3.26546
-3.27705
-3.13538
-2.80157
-2.35384
-1.85044
-1.34192
-0.867729
-0.471681
-0.202091
-3.51559
-3.81455
-3.43211
-3.08903
-2.69627
-2.256
-1.81442
-1.38946
-0.986891
-0.627326
-0.339919
-4.84565
-3.08951
-2.94794
-2.63094
-2.30555
-2.00253
-1.71333
-1.42569
-1.12948
-0.832257
-0.56042
2.08403
0.683054
0.124048
0.09149
0.262584
0.449212
0.570089
0.616041
0.607079
0.586651
0.608669
4.9731
4.03476
3.01411
2.2939
1.88165
1.65341
1.48961
1.32781
1.1589
1.01793
0.978455
4.64664
4.54516
4.13942
3.60654
3.11141
2.70169
2.34721
2.00979
1.68295
1.40421
1.27548
3.99963
4.07149
4.0382
3.85574
3.57687
3.25523
2.9008
2.50557
2.0873
1.70937
1.52329
3.42943
3.47164
3.5093
3.4894
3.39937
3.24356
3.00825
2.67566
2.2624
1.84525
1.59413
2.89218
2.89184
2.91209
2.90948
2.8798
2.81839
2.71611
2.53734
2.23826
1.86298
1.61232
2.38299
2.33185
2.32196
2.29139
2.25187
2.21104
2.17391
2.10859
1.94889
1.67321
1.44362
1.89752
1.79101
1.74695
1.66982
1.58455
1.50325
1.44457
1.41445
1.36578
1.22283
1.07059
1.43614
1.27054
1.19428
1.06096
0.916066
0.767439
0.636552
0.562086
0.559375
0.544531
0.5057
1.00612
0.768009
0.674326
0.47671
0.267805
0.0441151
-0.174836
-0.340859
-0.38547
-0.313002
-0.215008
0.604101
0.292513
0.200363
-0.0711246
-0.341258
-0.642826
-0.954795
-1.22238
-1.35791
-1.28444
-1.07665
0.229639
-0.113946
-0.261267
-0.567128
-0.8945
-1.26988
-1.66945
-2.03888
-2.27687
-2.25162
-1.99251
-0.110592
-0.475212
-0.67476
-1.00237
-1.38288
-1.8181
-2.29022
-2.74855
-3.08816
-3.12032
-2.81792
-0.407316
-0.783895
-1.02379
-1.37313
-1.79043
-2.27038
-2.79584
-3.31551
-3.71526
-3.82347
-3.56364
-0.653889
-1.03145
-1.29731
-1.65978
-2.09737
-2.60256
-3.15853
-3.71158
-4.147
-4.30086
-4.08786
-0.843175
-1.20735
-1.4857
-1.84838
-2.28766
-2.79623
-3.35402
-3.91023
-4.35496
-4.5324
-4.37465
-0.966395
-1.30258
-1.5794
-1.92739
-2.34793
-2.83862
-3.37681
-3.90207
-4.31984
-4.49409
-4.32672
-1.01736
-1.3125
-1.57397
-1.89398
-2.28097
-2.73249
-3.22473
-3.70033
-4.07006
-4.22692
-4.10903
-0.99662
-1.24237
-1.47765
-1.75942
-2.09991
-2.49824
-2.93113
-3.34296
-3.64916
-3.75907
-3.6134
-0.916108
-1.10898
-1.30883
-1.54843
-1.84209
-2.18956
-2.55921
-2.8935
-3.11928
-3.16445
-2.96784
-0.78395
-0.924141
-1.09523
-1.31447
-1.58959
-1.89879
-2.19647
-2.43148
-2.55061
-2.50381
-2.24893
-0.610212
-0.735788
-0.915049
-1.17042
-1.45981
-1.72665
-1.92732
-2.03936
-2.04401
-1.91651
-1.62742
-0.560386
-0.649865
-0.93864
-1.27379
-1.551
-1.71581
-1.77438
-1.75008
-1.65061
-1.46032
-1.19453
-0.107343
-0.850207
-1.33612
-1.64207
-1.75939
-1.74473
-1.6535
-1.51558
-1.33653
-1.10752
-0.855009
10.1783
5.34047
3.29731
2.58292
2.48448
2.61087
2.71545
2.75553
2.72999
2.66802
2.66824
20.872
16.8576
13.2074
10.3738
8.30877
6.89544
5.92559
5.21844
4.66185
4.2183
3.92008
19.2261
18.6886
16.7534
14.5562
12.3805
10.4311
8.8043
7.49947
6.46329
5.65272
5.10635
17.0104
17.3341
16.8619
15.7822
14.2537
12.5164
10.817
9.30444
8.02728
6.99088
6.23567
15.4142
16.0353
15.9503
15.5447
14.7027
13.5232
12.1418
10.7138
9.3588
8.16444
7.24269
14.0345
14.7561
14.7746
14.7962
14.4555
13.7388
12.71
11.493
10.2176
9.00558
8.00546
12.8484
13.4073
13.575
13.7173
13.6356
13.2633
12.5854
11.6585
10.5794
9.46924
8.48134
11.9452
12.3368
12.4962
12.6601
12.6848
12.5065
12.0803
11.4124
10.5547
9.61015
8.74579
11.1845
11.4905
11.605
11.7445
11.7944
11.7045
11.4269
10.9445
10.2747
9.4877
8.73442
10.4594
10.7423
10.8356
10.9525
10.9996
10.9442
10.7464
10.3835
9.85455
9.2014
8.54816
9.88451
10.1146
10.1743
10.2624
10.2927
10.2447
10.0862
9.79613
9.36535
8.8201
8.27707
9.50418
9.62872
9.62716
9.66796
9.66519
9.605
9.45975
9.21106
8.84747
8.38362
7.91935
9.09509
9.16187
9.12766
9.13026
9.09306
9.01176
8.86421
8.63635
8.31779
7.91605
7.51828
8.60407
8.66981
8.63253
8.61192
8.547
8.44412
8.28727
8.06797
7.77858
7.41998
7.06887
8.30146
8.27434
8.17942
8.11338
8.01303
7.88486
7.71456
7.4979
7.23106
6.91158
6.60504
7.90129
7.82467
7.70201
7.60183
7.46891
7.31555
7.13115
6.91608
6.67045
6.3877
6.12183
7.39945
7.30673
7.1773
7.05252
6.89182
6.71662
6.52213
6.31272
6.09235
5.84956
5.62077
6.95259
6.8003
6.63265
6.46654
6.27124
6.0734
5.87457
5.68148
5.49683
5.30448
5.13368
6.47197
6.24652
6.03263
5.81818
5.58649
5.37207
5.18301
5.02456
4.8913
4.75835
4.64098
5.88864
5.5829
5.32404
5.06479
4.80778
4.59902
4.45006
4.35518
4.29237
4.22582
4.14628
5.17699
4.77101
4.4634
4.17078
3.9181
3.76082
3.70013
3.70386
3.72802
3.73256
3.69893
4.30392
3.74541
3.41052
3.12324
2.94116
2.91158
2.99566
3.12278
3.23505
3.30116
3.31155
2.8647
2.48415
2.11326
1.9406
1.96646
2.16032
2.42336
2.66482
2.84054
2.93897
2.94924
3.50319
1.22467
1.17302
1.25863
1.51117
1.86454
2.1904
2.43517
2.59767
2.68041
2.66663
-34.8974
-15.4622
-8.28586
-4.62591
-2.35317
-0.955292
-0.0425967
0.528791
0.902059
1.14614
1.37945
-49.416
-31.9848
-23.4772
-16.2719
-10.2435
-6.22551
-3.74854
-2.2151
-1.2152
-0.515554
0.0449733
-41.9854
-37.373
-32.9684
-26.1306
-18.7495
-12.7581
-8.48715
-5.59325
-3.69332
-2.37934
-1.39597
-33.6587
-34.5441
-33.7109
-29.8976
-24.2113
-18.2283
-13.0786
-9.15085
-6.34518
-4.37397
-2.90605
-29.4526
-30.9483
-31.0407
-29.4673
-26.0766
-21.3537
-16.4315
-12.1819
-8.8143
-6.29504
-4.42564
-27.8222
-28.7009
-28.7538
-28.0172
-25.9873
-22.5241
-18.3307
-14.2803
-10.7745
-7.93035
-5.74887
-26.5741
-27.2673
-27.2748
-26.7921
-25.3598
-22.6924
-19.1783
-15.5056
-12.1046
-9.16163
-6.70966
-25.2066
-25.8507
-25.9341
-25.6507
-24.5723
-22.4083
-19.4015
-16.0929
-12.8832
-9.9957
-7.46245
-23.8774
-24.4931
-24.625
-24.4807
-23.6558
-21.8522
-19.2276
-16.2286
-13.2221
-10.4375
-7.8715
-22.6297
-23.2475
-23.3647
-23.2992
-22.6444
-21.1014
-18.7683
-16.0255
-13.2123
-10.5682
-8.06223
-21.4377
-22.0453
-22.1578
-22.1446
-21.5968
-20.2307
-18.1066
-15.5609
-12.9116
-10.4019
-8.02812
-20.3193
-20.8355
-20.9757
-20.9769
-20.4914
-19.2518
-17.2805
-14.8829
-12.364
-9.96165
-7.71371
-19.2173
-19.6286
-19.7897
-19.7782
-19.3311
-18.178
-16.3126
-14.0203
-11.6022
-9.28871
-7.11977
-18.106
-18.4294
-18.5852
-18.5605
-18.1322
-17.0263
-15.2214
-12.9946
-10.6517
-8.43245
-6.38353
-17.0006
-17.2294
-17.3508
-17.2979
-16.8617
-15.7889
-14.0001
-11.8075
-9.51886
-7.3873
-5.48942
-15.8816
-16.0129
-16.0789
-15.9833
-15.5162
-14.4357
-12.6585
-10.4495
-8.2018
-6.16121
-4.43793
-14.7311
-14.7677
-14.7739
-14.606
-14.0904
-12.9628
-11.1453
-8.92195
-6.69983
-4.7659
-3.17353
-13.5342
-13.4756
-13.4118
-13.1676
-12.5528
-11.3437
-9.44695
-7.19595
-5.02198
-3.24335
-1.76034
-12.2741
-12.1035
-11.9568
-11.6272
-10.878
-9.53172
-7.5431
-5.29513
-3.2306
-1.66968
-0.461951
-10.9239
-10.6245
-10.3809
-9.93365
-9.03076
-7.49504
-5.44294
-3.22264
-1.38563
-0.132553
0.810533
-9.32416
-9.00184
-8.69172
-8.09119
-6.96107
-5.2689
-3.19905
-1.12257
0.39592
1.27684
1.8501
-6.90522
-6.94958
-6.93219
-6.17547
-4.80495
-3.1354
-1.26169
0.500165
1.54515
2.04952
2.44897
-6.59943
-7.85473
-6.79972
-5.29392
-3.29362
-1.21692
0.468635
1.59548
2.13063
2.38789
2.52605
-11.879
-4.88788
-2.51816
-1.11928
0.207457
1.20929
1.84963
2.21968
2.40455
2.4926
2.46883
-0.193713
4.06235
4.68329
4.48533
3.88515
3.2289
2.62129
2.08808
1.6216
1.2392
1.07324
-24.5473
-11.0058
-6.4618
-2.75814
-0.738398
0.177926
0.497411
0.534943
0.443174
0.304934
0.25808
-29.2778
-20.1753
-16.4197
-10.8522
-6.80773
-4.08151
-2.44834
-1.53337
-1.04533
-0.786991
-0.588158
-25.6774
-22.1942
-20.4909
-15.7017
-11.7301
-8.2416
-5.65006
-3.8911
-2.76084
-2.03902
-1.5242
-21.1329
-20.2083
-19.8032
-16.8438
-14.0665
-10.9142
-8.17456
-6.00459
-4.42063
-3.30843
-2.49986
-17.603
-17.435
-17.4121
-15.8015
-14.1666
-11.8218
-9.52169
-7.42401
-5.70503
-4.38357
-3.37539
-14.8429
-14.9325
-14.9603
-14.0563
-13.1133
-11.502
-9.79128
-8.03854
-6.44668
-5.10685
-4.00907
-12.5176
-12.7571
-12.7801
-12.2586
-11.6924
-10.5937
-9.36899
-8.00356
-6.66515
-5.4502
-4.40604
-10.6933
-10.8792
-10.8939
-10.6015
-10.2494
-9.49158
-8.61376
-7.57068
-6.48982
-5.44582
-4.4999
-9.31195
-9.37808
-9.36462
-9.18199
-8.93707
-8.39594
-7.75088
-6.94852
-6.08214
-5.2039
-4.36987
-8.16084
-8.14747
-8.12177
-7.99021
-7.79824
-7.3916
-6.89665
-6.26505
-5.56373
-4.83011
-4.13185
-7.21167
-7.11472
-7.0712
-6.97184
-6.81554
-6.49671
-6.0986
-5.58469
-5.00361
-4.3777
-3.76471
-6.50376
-6.31073
-6.24735
-6.14702
-5.99744
-5.72398
-5.37979
-4.94015
-4.44192
-3.89988
-3.3698
-5.97565
-5.71145
-5.6287
-5.50989
-5.34222
-5.07743
-4.75006
-4.34744
-3.90031
-3.42095
-2.95347
-5.53843
-5.22014
-5.11554
-4.97085
-4.78471
-4.51785
-4.18981
-3.80063
-3.381
-2.94536
-2.51998
-5.16307
-4.81088
-4.68106
-4.50686
-4.29805
-4.01857
-3.67707
-3.28481
-2.87689
-2.47486
-2.10345
-4.83399
-4.45707
-4.30493
-4.10336
-3.86717
-3.56406
-3.19563
-2.78548
-2.37831
-2.00343
-1.67541
-4.51388
-4.12679
-3.94992
-3.72188
-3.45706
-3.12423
-2.71939
-2.28247
-1.87266
-1.52643
-1.24501
-4.18962
-3.80077
-3.60455
-3.35491
-3.05644
-2.68007
-2.22407
-1.75702
-1.35175
-1.04606
-0.834328
-3.86781
-3.48315
-3.2735
-3.00075
-2.65163
-2.20377
-1.68614
-1.19666
-0.817019
-0.568574
-0.419897
-3.5349
-3.17327
-2.95038
-2.63552
-2.20116
-1.65478
-1.08349
-0.606108
-0.286683
-0.107767
0.000355872
-3.11918
-2.86007
-2.59552
-2.18637
-1.62592
-0.992289
-0.427071
-0.0365129
0.186721
0.266055
0.338667
-2.98983
-2.66377
-2.21803
-1.61394
-0.932074
-0.30193
0.154148
0.396815
0.521214
0.609504
0.850789
-2.33483
-1.42963
-0.843031
-0.278177
0.182094
0.47263
0.570503
0.556176
0.526397
0.522003
0.646679
23.5747
16.9217
12.3574
9.25635
7.03257
5.44753
4.26863
3.3487
2.60516
2.02334
1.66348
17.9374
18.0265
15.7991
12.8547
10.0684
7.78818
6.01225
4.63393
3.55787
2.74849
2.24233
11.1229
13.5691
13.5642
12.8383
11.1117
9.03795
7.11056
5.49004
4.20414
3.24707
2.63626
5.20941
8.71991
9.71302
10.3822
9.96522
8.78804
7.34629
5.90654
4.6279
3.61458
2.96455
1.15902
4.38699
5.53242
7.06374
7.66558
7.51148
6.76957
5.75333
4.67434
3.72785
3.07537
-1.3847
1.24776
2.12723
3.89802
4.91242
5.47039
5.39944
4.92178
4.22241
3.4981
2.93774
-2.93715
-0.798076
-0.263816
1.46907
2.4572
3.37683
3.7616
3.74957
3.43065
2.97757
2.58931
-3.82907
-2.06961
-1.87981
-0.187385
0.551485
1.57341
2.18658
2.49152
2.49397
2.30837
2.1041
-4.50141
-2.91793
-2.98522
-1.44718
-0.779399
0.173758
0.850871
1.32897
1.55657
1.59188
1.54448
-5.05797
-3.74051
-3.55279
-2.45089
-1.77733
-0.893356
-0.212669
0.347366
0.713988
0.913462
1.01664
-5.45843
-4.46783
-4.07379
-3.15218
-2.51903
-1.69938
-1.03351
-0.438049
0.00836262
0.313154
0.531491
-5.67992
-4.85581
-4.47446
-3.64748
-3.05414
-2.29078
-1.64739
-1.04048
-0.549555
-0.177484
0.105558
-5.85808
-5.08528
-4.73478
-3.97513
-3.41765
-2.69949
-2.08064
-1.47599
-0.964028
-0.549536
-0.228325
-6.02619
-5.2354
-4.88993
-4.16891
-3.63631
-2.95259
-2.35575
-1.76047
-1.24343
-0.808413
-0.458376
-5.97296
-5.24154
-4.93079
-4.24572
-3.73171
-3.07551
-2.49522
-1.91212
-1.39908
-0.959221
-0.605431
-5.86221
-5.16794
-4.87774
-4.22309
-3.71858
-3.08565
-2.51567
-1.94616
-1.44288
-1.00994
-0.661845
-5.73565
-5.04583
-4.75151
-4.11647
-3.60801
-2.99207
-2.42702
-1.87248
-1.38474
-0.969987
-0.641351
-5.52139
-4.84349
-4.54194
-3.92438
-3.40194
-2.79689
-2.23437
-1.69809
-1.234
-0.849194
-0.542579
-5.22249
-4.55804
-4.24254
-3.6393
-3.09542
-2.49688
-1.9399
-1.42986
-1.00169
-0.661024
-0.396075
-4.8574
-4.19568
-3.84957
-3.25149
-2.68006
-2.08746
-1.54728
-1.07825
-0.702524
-0.419774
-0.208088
-4.41023
-3.7378
-3.3421
-2.74042
-2.14477
-1.56905
-1.0691
-0.662568
-0.359162
-0.137325
0.0138059
-3.83506
-3.13864
-2.6717
-2.0698
-1.47803
-0.951911
-0.528916
-0.211365
0.020281
0.174318
0.259534
-3.20902
-2.37293
-1.8437
-1.29555
-0.770286
-0.340135
-0.0234871
0.206896
0.367782
0.451605
0.452332
-1.66451
-0.982853
-0.578143
-0.216344
0.108448
0.343101
0.52004
0.687974
0.845123
0.940002
0.846563
-0.432949
-0.409256
-0.540105
-0.959879
-1.62914
-1.72809
-1.19325
-0.182089
0.667031
-0.432483
-0.422713
-0.534689
-0.725428
-1.17318
-1.21053
-0.779274
-0.0740824
0.571983
-0.416366
-0.409179
-0.501108
-0.678844
-1.067
-1.11052
-0.740016
-0.0693021
0.466745
-0.377481
-0.379994
-0.453205
-0.597355
-0.886244
-0.883333
-0.584429
-0.0649237
0.375387
-0.484404
-0.705411
-1.20702
-1.51955
-1.19804
-0.267037
0.734976
1.26934
1.18996
-0.465452
-0.572294
-0.864808
-1.05276
-0.735252
-0.118813
0.658828
1.07699
1.00818
-0.428941
-0.52919
-0.786177
-0.944349
-0.760957
-0.0878832
0.567251
0.900817
0.839431
-0.370389
-0.46351
-0.663581
-0.76053
-0.473337
-0.0407851
0.477588
0.734231
0.701926
2.28163
2.82152
2.83121
-0.237643
-0.282236
3.08976
-0.325143
2.66741
3.09153
2.30113
-0.298618
2.67092
-0.266458
-0.151557
2.27242
1.78993
-0.0258958
-0.239515
1.79152
2.29525
1.35505
-0.420296
2.18089
-0.060304
2.83029
-0.148898
-0.261151
-0.329811
-1.12762
-0.249264
-0.0257
0.78561
-0.0747163
2.04901
0.705911
2.84828
-0.0526405
2.84544
-0.0760039
2.74884
-1.10364
2.06009
-0.233792
2.1928
-0.341526
-0.299284
-0.325279
-0.259883
1.26533
2.85484
-0.252552
2.7515
-0.0113343
-0.245921
2.81706
1.36701
-0.43188
2.69656
-1.15403
-0.205572
-0.896994
-0.00553818
-0.305956
-0.282706
-0.832421
2.29441
-0.155848
3.29681
2.84496
2.31148
-0.0709605
3.13802
-0.261835
3.88914
-0.142961
3.17765
-0.456409
2.09989
-0.320593
-0.301254
-0.044273
-0.28269
2.38849
2.41459
-0.158672
-0.260217
-0.895844
0.0053739
-0.353789
0.0178511
2.90387
2.67507
-0.921977
4.19361
-0.381048
-0.277711
-0.193729
-0.104785
-0.331048
3.27829
-0.080243
-0.282674
2.14735
0.21595
-0.303556
2.91732
-0.00565367
2.39087
-0.0130017
0.74924
2.23494
2.05123
3.53907
-0.248828
-0.269155
2.35598
2.69779
1.98251
2.75873
1.96361
-0.253716
3.5935
0.172441
-0.0343319
-0.332872
-0.146276
-0.0418399
-0.00683405
-0.00430558
-0.0094647
2.43088
-0.212002
-0.268146
3.13974
2.88152
-0.259852
-0.430184
-0.278765
-0.204442
1.39468
-0.173003
1.17851
-0.34102
1.48299
2.66422
-0.284228
-0.323048
3.22263
2.5385
2.05178
2.30589
3.05791
-0.275164
3.68708
-0.243465
-0.238421
-0.287031
-0.377544
-0.0361405
2.51624
-0.0803559
-0.324516
3.17551
2.56495
-0.134329
-0.0223435
-0.340371
1.12143
-0.143792
-0.802
-0.067793
-0.0136781
-0.152441
1.11149
0.850088
0.863704
-0.00598087
-0.284721
-0.383073
0.955297
3.07762
-0.440477
2.85865
-0.234871
2.92327
-0.256076
2.32563
1.94101
2.67506
-0.315452
-0.0123281
-0.204559
2.1991
-1.04454
2.85082
2.70231
3.25463
-0.342635
-0.00957374
2.36491
-0.312636
3.0704
-0.0229891
-0.0373624
2.87396
0.0110375
4.17866
-0.00102193
2.96133
2.25772
-0.00705252
1.91768
0.951398
0.878974
2.11298
-0.0828684
2.93732
-0.285349
2.48665
-0.261383
-0.0251525
-0.249497
-0.183408
-0.280638
-0.0290126
2.58947
-0.205139
-0.0197184
-0.0122342
-0.300841
-0.354927
2.16576
2.33307
3.35613
-0.273909
-0.347944
-0.019418
2.85714
2.4522
2.46504
-0.259992
-0.219978
0.168607
-0.919006
4.62295
-0.354607
2.02877
-0.0616907
-0.283349
0.00137977
-0.0569655
-0.0102039
0.376733
2.52663
0.253145
3.21283
1.47814
2.8558
-0.301845
2.29878
-0.00535559
-0.288891
2.22778
2.15101
2.2154
-0.29809
1.12668
3.68232
0.00770074
0.067057
-0.237552
2.43555
3.15515
-0.325153
3.06717
1.97935
-0.0442699
3.02804
1.46107
-0.314222
3.17873
2.76911
-0.0336238
0.0158166
0.315536
2.93145
-0.662041
2.53554
1.29903
-0.152281
2.38978
-0.329049
0.882483
-0.192747
2.83092
2.92926
-0.136684
2.2155
0.807519
-0.054581
2.90111
-0.271106
1.10166
-0.240706
1.52501
0.696202
2.13694
0.0108978
-0.440425
2.31768
-0.356424
2.9111
0.639419
-0.0528581
-0.488219
1.56763
-0.243694
-0.311435
1.87686
4.38878
2.21833
-0.00662719
1.93214
-0.0998543
-0.300405
1.21245
2.04224
-0.233034
2.14146
-0.0193207
2.99626
-0.301441
-0.430225
2.85213
-0.255529
-0.292619
-0.286465
2.15096
2.99198
-0.0885602
-0.352926
0.0294823
3.116
-0.038281
-0.248192
0.00264379
-0.282648
1.99956
-0.0896158
-0.0435756
-0.340485
-0.0926256
0.0992786
1.58288
-0.0258228
2.36293
-0.022205
1.30526
2.16275
-0.0141774
0.0837479
-0.173333
2.92725
2.38363
3.29389
-0.344763
-0.0116293
-0.20479
-0.32549
0.362541
3.02439
-0.241185
-0.297618
-0.0737244
-0.110714
2.37294
0.306112
0.675585
2.94972
2.05913
0.037899
2.74779
-0.292826
2.54124
-0.2006
-0.0233329
-0.257837
-0.0280724
-0.215402
-0.353055
3.03458
-0.371353
-0.00912243
2.62516
-0.0208657
-0.888349
2.12033
2.13101
2.75012
-0.338198
-0.30602
2.3484
2.848
-0.120591
-0.00800675
-1.42855
-0.334057
-0.0122274
3.02455
-0.00623702
1.35148
1.76737
-0.0240286
-0.0233196
-0.273374
0.558975
-0.0130864
3.72165
-0.0255904
-0.363393
-0.236345
-0.0274329
-0.317986
-0.00770246
0.809036
0.820754
3.81721
-0.00918283
-0.221593
-0.617312
2.00955
-0.333135
-0.204102
1.77938
-0.139341
-0.0483043
-0.174346
-0.219529
-0.036029
1.98181
0.0163082
-0.745003
-0.228456
-0.262131
1.64462
-0.100954
-0.108659
-0.406259
2.63109
-0.349096
3.01433
2.4155
2.95553
-0.359241
-0.343262
-0.32414
-0.0708195
-0.366173
-0.00635583
2.57554
2.66042
-0.0483358
-0.0767294
0.219685
1.50249
-0.00781587
-0.00774807
2.35035
1.93387
3.03423
0.826054
-0.27118
1.94411
-0.940351
1.53665
2.39921
2.40681
2.27046
-0.338298
2.30271
2.47569
1.40266
-0.282106
-0.43242
2.15576
-0.282448
-0.282624
1.54918
-0.076227
2.40136
-0.306202
2.73629
1.60647
2.56858
-0.000107156
-0.0373533
2.21531
-0.199373
0.849321
3.62394
-0.219392
-0.232499
2.87733
2.45571
-0.278954
-0.0131381
-0.249197
2.86847
-0.286324
1.97658
-0.106971
-0.0369414
-0.361001
-0.0225934
-0.107712
-0.0341744
-0.324679
-0.194262
1.99835
-0.0549612
1.82163
2.77814
3.02165
2.38261
1.35447
0.0146585
2.6749
2.42489
-0.157745
2.91874
-0.422605
0.0473916
-0.00311583
-0.0703425
-0.356246
2.75431
2.94176
2.75847
-0.961275
-0.332904
2.02574
2.59591
-0.0318483
2.85306
-0.240355
2.85795
-0.0584739
1.44597
-0.414717
-0.110628
-0.0268126
-0.264041
-0.0980512
1.54311
1.07823
2.48027
2.33732
-0.0491936
-0.417062
2.09218
-0.0246524
-0.270658
-0.241663
2.8726
3.44304
2.8914
-0.119526
0.000262028
-0.0103002
2.89948
2.49534
0.0216941
3.79861
-0.206064
-0.00349404
-0.0254783
-0.267822
2.21914
-0.0183209
2.94517
-0.320884
3.37301
-0.149838
-0.00765037
0.940523
-0.492527
-0.0313175
2.64791
2.09161
-0.394073
2.53826
-0.0800256
-0.240884
-0.35267
-0.152163
-0.333584
-0.250846
2.45885
2.76099
2.92595
-0.290799
-0.280759
-0.115541
2.25837
2.87443
-0.33616
2.25176
4.57293
1.37843
2.83593
-0.243547
-0.286034
-0.36029
0.0295334
0.428343
0.412271
2.49155
-0.0873926
3.05366
2.88813
-0.290867
0.046671
1.89897
2.65249
-0.411786
2.09938
2.60378
0.14885
2.88692
1.1418
-0.264416
-0.192479
0.17076
-0.030522
-0.0294985
-0.343675
-0.0532645
-0.653966
-0.114546
-0.200142
-0.343933
-0.284437
-0.048836
1.98376
1.6308
-0.302139
0.469796
1.91081
0.724871
-0.207826
-0.213224
-0.287435
-0.166497
-0.0328355
2.06912
0.198422
2.79535
2.11788
1.77885
-0.252846
2.70767
2.72847
1.83084
2.32363
-0.232035
-0.0141966
-0.302324
3.0076
2.30751
1.32487
-0.00709834
4.28554
-0.33779
3.42847
-0.149969
-0.0131741
2.15891
-0.0113341
2.58322
-0.0792311
-0.247777
-0.241215
-0.300927
-0.0691899
-0.0917634
2.38886
-0.00638305
-0.0825024
-0.366441
-0.021346
1.97491
0.617259
2.40724
0.0655494
1.87709
-0.25247
2.90135
2.85271
2.90898
-0.257675
-0.309647
2.80114
-0.00883642
3.18739
-0.0176747
-0.0383373
1.0349
-0.244029
-0.772114
-0.158987
0.24652
-0.154394
-0.250633
-0.0799122
-0.055505
-0.323909
1.99422
-0.236002
2.39411
2.82901
-0.36617
-0.236335
-0.312932
-0.141858
3.72377
1.12884
1.92369
-0.312673
2.59078
0.011836
-0.120384
-0.0487601
0.937596
0.247007
-0.17579
-0.147517
3.06311
-0.252597
-0.27357
-0.304434
2.26372
-0.179261
-0.256245
2.88467
-0.38614
-0.0282823
4.51739
-0.156677
2.4973
1.76965
1.74536
-0.0381432
3.12113
-0.0796604
2.90506
-0.0892969
2.78639
-0.196734
-0.0233288
0.0455762
-0.0099328
1.91186
-0.172193
-0.284474
2.47736
-0.0798159
0.338891
-0.129388
0.286029
-0.374998
1.06561
-0.281707
-0.126455
0.312081
2.0679
-0.179419
2.06143
-0.266076
-0.441613
2.82217
2.75352
0.00243272
-0.280973
0.00612396
-0.249678
2.63712
-0.23305
0.712885
2.02894
2.68409
2.87584
2.38693
4.49571
-0.0161558
-0.371413
-0.230576
-0.0140708
-0.165223
2.84992
2.51375
0.162292
-0.00200894
2.87518
-0.00140987
-0.176146
-0.294117
-0.0203689
-0.622584
0.653222
-0.294511
2.83077
2.4257
-0.35706
2.06979
2.66053
0.664072
-0.00747692
-0.0291884
0.0306631
2.87387
-0.189914
-0.779797
-0.262828
2.62169
-0.00762162
-0.0913008
-0.307877
-0.283576
2.48635
2.04438
-0.233448
-0.287235
-0.139346
2.40946
1.84977
4.55783
3.4093
2.58569
-0.170514
-0.0955541
-0.40917
-0.306723
-0.113223
2.85997
-0.287131
2.58507
3.37283
0.144505
2.50303
3.09047
2.73824
-0.312469
-0.03629
-0.255238
3.08768
-0.285481
2.95439
2.8693
3.45572
2.68862
0.728166
2.17081
2.90415
3.87246
-0.36048
2.06181
2.38574
-0.220328
-0.344402
2.69151
2.94424
-0.276432
-0.332215
2.32944
-0.226593
-0.264981
-0.276492
2.3307
2.81582
1.19744
1.40729
-0.0177212
2.51884
-0.155644
-0.204115
-0.0386089
-0.127569
2.209
-0.185127
2.18727
2.17264
3.24036
2.8227
2.11252
-0.107426
-0.396522
0.172938
-0.0796927
-0.0496364
-0.177259
0.431769
-0.344176
2.09345
2.23021
-0.0172409
-0.0249746
-0.19549
2.83736
-0.271498
3.53833
-0.257554
2.71999
-0.0213479
-0.0182816
-0.313867
-0.0542697
2.267
2.82583
0.0144082
-0.403541
-0.000137714
-0.109265
-0.261361
0.868475
1.58591
-0.0511185
3.17358
2.88593
-0.0783935
-0.565608
-0.266596
-0.392128
-0.00557692
-0.17312
-0.0887018
-0.156394
2.44418
0.863762
-0.0439197
2.51726
0.368376
2.97842
-0.0160405
-0.171611
-0.011368
2.54627
-0.0620621
2.82414
2.7246
-0.0138841
-0.242
2.22785
3.00887
3.835
-0.274148
-0.173211
-0.364778
0.384312
2.27664
-1.32586
-0.287561
-0.414666
2.4427
-0.020957
-0.0904292
2.82697
-0.0111179
1.2738
-0.29299
-0.088247
0.421352
-0.262166
1.50933
3.20729
-0.276981
-0.0197791
2.29618
-0.0203397
2.89477
-0.327353
-0.00291785
-0.229762
2.82859
-0.024872
-0.244704
-0.240823
-0.0296185
-0.0195134
2.37819
-0.00350117
-0.291575
2.11931
0.900803
-0.1479
-0.280333
0.00674812
-0.100947
2.77373
2.66916
-0.337864
1.66092
-0.891039
-0.172862
-0.000485322
-0.0221645
2.59212
-0.266272
-0.333375
-0.0342395
-0.0173486
-0.100447
2.85092
-0.19627
-0.0321408
2.55323
1.59219
2.86733
-0.164438
0.979943
2.81829
-0.215178
-0.0389246
-0.0857302
2.24595
-0.343172
-0.286044
1.24328
-0.14513
2.01529
2.25153
1.33781
-0.314016
2.46989
-0.0749272
0.431002
-0.32763
2.16688
1.53342
2.40336
2.42672
-0.25384
-0.100369
-0.115134
-0.322392
-0.525183
-0.196884
2.27745
0.617526
-0.272558
2.49449
-0.0731406
-0.0377347
1.01234
-1.06633
-0.219666
-0.0543141
1.77727
-0.0233793
2.45055
0.0255235
2.27695
-0.275468
-0.129868
3.62262
-0.365805
-0.0329533
1.33557
-0.114142
-0.0964531
-0.682219
-0.00885334
0.699113
-0.344735
-0.00810998
-0.255019
-0.285919
-0.0544391
2.87917
-0.15041
4.33715
-0.111055
-0.156025
-0.255153
0.584343
-0.296898
-0.318346
2.50555
3.13879
1.20451
2.27321
-0.18201
-0.101987
2.66507
-0.145787
-0.176746
2.72936
-0.232731
-0.346466
-0.246666
-1.20296
-0.460466
-0.300651
-0.0136319
-0.0023822
2.54465
2.64505
-0.0528409
2.66917
2.88201
-0.114828
2.38064
4.49895
-0.0452355
3.15935
-0.300156
-0.0274485
-0.297739
2.53618
-0.189815
-0.18794
-0.181242
-0.292068
2.43608
-0.1806
-0.309672
-0.138335
-0.00973008
1.80098
-0.015025
2.08839
-0.24697
-0.0317811
1.42342
2.59164
-0.288767
0.264628
-0.169214
-0.336534
-0.0775902
2.7482
2.86445
2.68219
0.0376812
-0.026726
-0.0844403
-0.352189
-0.522432
2.23894
0.632161
2.16532
2.89544
-0.336697
2.36342
2.32149
-0.999555
-0.637454
-0.287572
-0.301447
2.26012
1.94163
-0.032398
-0.274324
0.034943
-0.315949
-0.0768835
2.89999
2.49919
-0.193701
-0.0283463
-0.0143453
-0.212149
3.23793
-0.145915
-0.152632
-0.279048
1.58478
-0.128734
-0.336545
1.25365
-0.0781095
2.13966
2.00107
-0.281671
-0.111697
-0.105332
1.4003
1.28582
0.0607988
-0.240433
-0.238781
-0.256793
-0.265947
-0.305368
2.72562
-0.310952
-0.256246
2.63357
-0.00488963
-0.197249
1.70694
0.0257747
2.553
3.0107
2.73217
-0.877097
-0.00204604
1.95417
-0.31687
2.55763
2.13708
2.35897
-0.0393813
1.99587
-0.022793
-0.318926
2.63247
-0.315773
-0.369729
-0.0385399
-0.336267
-0.143376
-0.220531
-0.00791132
2.69171
2.1698
2.98609
-0.134239
2.37121
2.23286
-0.231611
-0.456796
-0.302034
-0.105636
-0.00508348
1.14765
-0.259092
-0.312644
1.97487
0.0308956
1.87844
-0.0289177
1.9055
-0.0817628
1.36512
2.15275
2.84561
-0.315369
-0.0256176
1.65993
-0.0306022
1.94268
-0.0505828
-0.0499299
-0.290859
-0.267071
2.55821
2.25353
-0.0933838
-1.22631
-0.0246794
-0.00550461
-0.303793
-0.076172
2.58923
-0.4245
-0.0136067
2.02269
-0.288355
-0.282224
-0.176604
-0.301417
-0.253027
-0.00204906
-0.293098
-0.662866
1.9846
3.07343
-0.0999204
-0.0953051
0.303144
2.10605
-0.129126
2.84689
3.32776
-0.487034
2.39517
2.61312
-0.327414
-0.259098
3.12272
2.32973
3.03109
1.39159
2.27086
3.809
-0.17064
0.164429
1.91638
2.92723
-0.284342
2.35003
-0.14786
3.0409
1.74057
2.63481
-0.195579
-0.334704
-0.0428464
2.36987
2.16018
-0.18319
-0.012902
2.54444
-0.175847
-0.0711083
3.34117
-0.1714
-0.127674
-0.351394
-0.113652
-0.195328
2.59351
-0.236707
2.94854
1.41412
5.08225
0.427918
2.67183
-0.0560308
4.32653
-0.282087
2.96293
2.65408
-0.282095
2.19432
2.76274
-0.240649
0.0124633
-0.251395
2.82741
1.44643
2.95439
-0.110765
-0.0123253
-0.210791
0.712947
-0.238866
-0.321984
2.28282
1.92146
2.44056
1.23938
-0.330731
4.70579
-0.019015
3.83123
-0.354079
-0.096189
-0.174551
-0.27795
1.3921
0.341138
2.85253
-0.0509207
-0.3867
2.53598
2.63586
-0.23451
1.13134
1.72068
2.29956
-0.227957
2.88159
-0.264875
-0.366291
-0.113214
-0.042264
1.95271
-0.145369
1.33155
-0.215164
-0.254469
0.440101
-0.000292387
2.33902
2.18467
2.26867
1.85485
0.126312
1.22827
3.70351
-0.0121605
-0.2027
2.38596
1.278
-0.342608
0.132971
2.43155
-0.173444
2.46516
2.31737
-0.0503206
2.70191
-0.212865
-0.136377
1.47833
2.90537
-0.193384
-0.262205
2.27536
-0.0126148
2.97218
3.35925
-0.153626
1.50875
-0.190919
2.59152
4.26294
-0.294566
0.683602
2.38603
-1.0161
1.48559
2.6462
2.23319
2.44146
0.632638
0.277883
-0.282189
-0.122302
-0.31314
2.5941
3.00172
-0.285304
-0.0039492
1.57378
0.972996
-0.137337
3.25026
-0.0517604
2.6112
-0.0708519
3.18009
2.29828
-0.0337777
-0.249889
-0.0495725
2.88739
2.46759
1.99613
2.28911
2.52707
-0.337942
-0.282229
-0.241744
-0.264373
-0.233054
1.06239
2.39072
2.48325
-0.325169
1.88508
-0.110407
-0.312284
1.22274
-0.0132232
-0.189385
1.73092
2.39058
0.296398
-0.134197
-0.0735863
1.58352
-0.0633145
-0.0169898
-0.29126
-0.00923655
-0.130999
2.24861
-0.0514395
-0.416855
-0.435819
-0.142307
-0.255992
-0.00866282
2.6808
2.18902
-0.22588
2.90335
-0.121208
-0.0377249
-0.0506349
-0.206863
-0.0345317
-0.193512
-0.555736
0.0101123
2.98046
-0.0318654
-0.161691
0.0832097
-0.0225124
-0.268407
2.58598
-0.289138
2.98467
0.00115715
-0.303451
-0.116951
-0.449947
-0.293589
0.0182709
3.38183
4.40767
2.29003
2.74945
2.82987
0.631096
2.53571
-0.340012
4.7209
0.0141363
-0.268011
1.89702
2.4333
-0.259656
-0.364873
2.91373
0.804963
2.17032
3.86575
0.24395
-0.338447
2.69905
1.81807
1.72569
2.01256
4.62748
2.91214
-0.0199466
-0.256596
2.90957
-0.0532993
2.86809
1.92476
1.18369
2.98857
-0.216774
2.24866
2.53081
1.59115
2.31531
-0.0144588
2.69239
-0.00747486
-0.260319
-0.328071
-0.209602
-0.121223
-0.110279
-0.0155983
-0.188893
-0.00785614
-0.0109519
2.06273
-0.290767
1.11212
2.8113
2.95419
-0.69638
-0.0171389
-0.0100695
2.41939
-0.241051
4.25115
-0.188126
-0.0273936
2.00422
0.342555
2.82841
0.41241
2.65755
-0.320034
2.69198
2.37635