/*--------------------------------*- C++ -*----------------------------------*\
| =========                 |                                                 |
| \\      /  F ield         | OpenFOAM: The Open Source CFD Toolbox           |
|  \\    /   O peration     | Version:  3.0.1                                 |
|   \\  /    A nd           | Web:      www.OpenFOAM.org                      |
|    \\/     M anipulation  |                                                 |
\*---------------------------------------------------------------------------*/
FoamFile
{
    version     2.0;
    format      ascii;
    class       volScalarField;
    location    "0.0476749";
    object      nut;
}
// * * * * * * * * * * * * * * * * * * * * * * * * * * * * * * * * * * * * * //

dimensions      [0 2 -1 0 0 0 0];

internalField   nonuniform List<scalar> 
21246
(
2.70716e-05
0.000183791
0.000301408
0.000379866
0.000433752
0.000478153
0.000522531
0.000560185
0.000578547
0.000566532
0.00052722
2.04698e-05
0.000165692
0.00029718
0.000386998
0.000441827
0.000479198
0.000511005
0.000536737
0.000546317
0.000530877
0.000490954
1.78657e-05
0.000148462
0.000278165
0.000376289
0.000437025
0.00047412
0.000501786
0.000523698
0.000531933
0.000515885
0.00047449
1.77093e-05
0.000137533
0.000264591
0.000367996
0.000435034
0.000473906
0.000498371
0.000514951
0.000519207
0.000503688
0.000465982
1.82915e-05
0.000131944
0.000254759
0.000358545
0.000428638
0.000467923
0.000487778
0.00049785
0.000499093
0.000485681
0.000450999
1.90254e-05
0.000129832
0.000249851
0.000351129
0.000421092
0.000461588
0.000482042
0.000492238
0.00049419
0.000483143
0.000453223
1.97502e-05
0.000128775
0.000246897
0.000345401
0.000414162
0.0004552
0.000476674
0.000487983
0.000491434
0.000481993
0.000452851
2.06556e-05
0.000128406
0.000244969
0.000340596
0.000407758
0.000448633
0.000470977
0.000483752
0.000489381
0.00048324
0.000458904
2.14614e-05
0.000128244
0.000243474
0.000336735
0.000402213
0.000442626
0.000465698
0.000480062
0.000487945
0.000484082
0.000459767
2.20649e-05
0.000127339
0.000241471
0.000333126
0.000397388
0.000437502
0.000461284
0.000477081
0.000486642
0.000483584
0.00045753
2.25684e-05
0.000126025
0.000239146
0.000329714
0.000393233
0.000433312
0.00045782
0.000474837
0.000485728
0.000484085
0.000461858
2.30107e-05
0.00012499
0.000237223
0.000326891
0.000389873
0.000430072
0.000455335
0.000473479
0.000485584
0.000485192
0.000463633
2.32824e-05
0.00012368
0.000235234
0.000324365
0.000387203
0.00042783
0.000454011
0.000473316
0.000486571
0.000486842
0.000463714
2.33581e-05
0.00012143
0.000232402
0.00032161
0.000384986
0.000426584
0.000453989
0.000474547
0.000488834
0.000489694
0.000467911
2.32486e-05
0.000118931
0.000229298
0.000318873
0.000383242
0.000426279
0.00045524
0.00047716
0.000492297
0.000492903
0.00046804
2.29151e-05
0.000115779
0.000225523
0.000315824
0.000381781
0.000426884
0.000457861
0.000481336
0.000497233
0.000497231
0.000470041
2.23596e-05
0.000111283
0.000220145
0.000311735
0.000380152
0.000428228
0.000461914
0.000487312
0.000504056
0.000503324
0.000474047
2.1496e-05
0.00010512
0.00021259
0.000306062
0.000377727
0.000429756
0.000467068
0.000495052
0.000513073
0.000511747
0.000478722
2.03216e-05
9.67977e-05
0.000201305
0.000296031
0.000371458
0.000428413
0.000470698
0.000503147
0.000523726
0.000523034
0.000488053
1.88015e-05
8.58902e-05
0.000185168
0.000280478
0.000359543
0.000421114
0.000467079
0.000501012
0.0005224
0.000523274
0.000490517
1.68757e-05
7.23072e-05
0.00016335
0.000257616
0.000339803
0.000405816
0.000454717
0.0004877
0.000505244
0.000502616
0.000471488
1.45284e-05
5.77201e-05
0.000136817
0.000226102
0.000309567
0.000379577
0.000431598
0.000463563
0.000475252
0.000464988
0.000430317
1.15933e-05
4.08604e-05
0.000102828
0.000182773
0.000263993
0.000336381
0.000392189
0.00042596
0.000435361
0.00042003
0.000381755
8.51385e-06
3.72183e-05
8.21438e-05
0.000137453
0.000199313
0.000261261
0.000315003
0.000352238
0.000367367
0.000358474
0.000327796
2.30416e-05
8.17188e-05
0.000153079
0.000230643
0.000307378
0.000387949
0.000483464
0.000560071
0.000620315
0.000623593
0.000586968
1.38236e-05
4.25463e-05
8.3288e-05
0.000131612
0.000184636
0.000239447
0.000296984
0.000375181
0.000541833
0.000645757
0.000649782
1.21094e-05
4.06879e-05
6.67533e-05
9.49611e-05
0.000128656
0.000166108
0.000204247
0.000247907
0.000319434
0.00046483
0.000653172
1.43545e-05
5.0014e-05
9.10744e-05
0.000105723
0.000119611
0.000138372
0.000160722
0.000185759
0.000218334
0.000277692
0.000419616
1.77003e-05
5.66544e-05
0.000121385
0.000170298
0.000167031
0.000159162
0.000157525
0.000162833
0.000174329
0.00019624
0.000252292
2.11929e-05
6.79619e-05
0.00014426
0.0002276
0.000274217
0.000248103
0.000211464
0.000183905
0.000169164
0.000166335
0.000180886
2.45729e-05
8.37253e-05
0.000171877
0.00027106
0.0003572
0.000388378
0.000334817
0.000266025
0.00021055
0.000175494
0.000160348
2.78466e-05
0.00010218
0.000204002
0.000310152
0.000409723
0.00048707
0.000490428
0.00040669
0.000307367
0.000227878
0.000177317
3.08373e-05
0.000122985
0.000239214
0.000347693
0.00044434
0.000532307
0.000595475
0.000559592
0.000445521
0.000322616
0.000229175
3.34968e-05
0.000145842
0.000275589
0.000383021
0.000469072
0.000546631
0.000622308
0.000667632
0.000585652
0.000441328
0.000308738
3.57919e-05
0.000169768
0.000310823
0.00041502
0.000487841
0.000546582
0.000612908
0.000687205
0.000685977
0.000554865
0.00039867
3.78618e-05
0.000191529
0.00034259
0.00044212
0.000502028
0.000542191
0.000591735
0.000666713
0.00073176
0.000643667
0.000481207
3.97e-05
0.000210939
0.000368519
0.00046286
0.000511484
0.000538044
0.000572513
0.00063212
0.000715121
0.000707111
0.000538689
4.11425e-05
0.000229722
0.00039151
0.000479254
0.000516554
0.000531779
0.000554539
0.000597017
0.000656227
0.000706705
0.000570025
4.20598e-05
0.000247125
0.000411172
0.000490744
0.000515451
0.000517942
0.000527276
0.000552385
0.000588668
0.000622684
0.00060849
4.24242e-05
0.000263177
0.000427332
0.000496602
0.00050694
0.000495135
0.000490105
0.000499526
0.000519531
0.000542264
0.000551907
4.21732e-05
0.000277149
0.000439222
0.000496027
0.000490265
0.000462922
0.000442874
0.000436705
0.000439861
0.000445439
0.000444443
4.11399e-05
0.000289325
0.000449413
0.000494198
0.000471452
0.000426751
0.000391062
0.000371531
0.000364139
0.000363327
0.000365043
3.85484e-05
0.000286034
0.000437758
0.000477298
0.000449408
0.000397019
0.000352214
0.000327541
0.000318606
0.000316739
0.000328576
3.30625e-05
0.000257445
0.000405664
0.000459241
0.000446312
0.000396864
0.000339521
0.000299465
0.000262975
0.00023943
0.000232461
2.68026e-05
0.00021511
0.000357713
0.000426884
0.000439419
0.000413355
0.000358646
0.000280092
0.000223999
0.000186967
0.000158829
2.0288e-05
0.000170038
0.000290004
0.00035662
0.000374698
0.000345779
0.000273892
0.000208213
0.000166631
0.000142035
0.000126074
1.38587e-05
8.9678e-05
0.00015106
0.000166061
0.000152691
0.000127873
0.000114005
0.000109881
0.000113277
0.000119718
0.000123796
6.74946e-06
1.17846e-05
1.74706e-05
2.69142e-05
4.16805e-05
6.36075e-05
9.31974e-05
0.000127212
0.000158769
0.000179929
0.000185439
3.49364e-05
0.000150234
0.000153402
0.000165492
0.000191791
0.000209109
0.000205981
0.000193998
0.000187996
0.000190529
0.000199849
2.76552e-05
0.000116606
0.000132496
0.000161402
0.000192566
0.000212714
0.000214779
0.000205321
0.000199419
0.00020184
0.000211174
2.7004e-05
0.000100439
0.000116346
0.000160343
0.000195913
0.000217639
0.000223316
0.000217875
0.000214056
0.00021878
0.000232371
2.87696e-05
8.72425e-05
0.000104703
0.00015508
0.000191971
0.000217087
0.000225888
0.000224704
0.000223864
0.00023042
0.000244334
3.11484e-05
7.65198e-05
9.66636e-05
0.000147182
0.000183256
0.000211809
0.00022344
0.000226377
0.000228937
0.000237332
0.000250751
3.34201e-05
6.84988e-05
9.03285e-05
0.000137978
0.000173441
0.000203524
0.000217117
0.0002235
0.00022924
0.0002396
0.000253221
3.5592e-05
6.26842e-05
8.49336e-05
0.000128896
0.000164042
0.000193546
0.000208284
0.000217217
0.000225686
0.000238225
0.000253085
3.76625e-05
5.83622e-05
8.01847e-05
0.000120705
0.00015514
0.000183021
0.000198202
0.000208699
0.000219284
0.000233961
0.000250537
3.94831e-05
5.50366e-05
7.59505e-05
0.000113552
0.000146892
0.000172774
0.00018777
0.000198927
0.000210946
0.00022749
0.00024625
4.1038e-05
5.2508e-05
7.21474e-05
0.000107335
0.000139382
0.000163227
0.000177492
0.000188536
0.000201262
0.000219161
0.000239986
4.24275e-05
5.05668e-05
6.86963e-05
0.000101833
0.000132534
0.000154404
0.000167548
0.000177885
0.000190635
0.000209285
0.000231924
4.35035e-05
4.90949e-05
6.55369e-05
9.68771e-05
0.000126239
0.000146219
0.000158003
0.0001672
0.00017937
0.000198093
0.000222102
4.41107e-05
4.76256e-05
6.22156e-05
9.22093e-05
0.00012045
0.000138677
0.00014893
0.000156627
0.000167662
0.000185737
0.000210388
4.42886e-05
4.56758e-05
5.69171e-05
8.45257e-05
0.000111652
0.000129298
0.00013873
0.000145449
0.000155163
0.000171962
0.000196341
4.39664e-05
4.41193e-05
5.16357e-05
7.56028e-05
0.000100553
0.000117727
0.000126864
0.000133231
0.00014172
0.000156736
0.000179633
4.31128e-05
4.26873e-05
4.65282e-05
6.57432e-05
8.73891e-05
0.000103758
0.000113149
0.000119804
0.000127469
0.000140436
0.000160773
4.18024e-05
4.10986e-05
4.16301e-05
5.52606e-05
7.24617e-05
8.71118e-05
9.6912e-05
0.000104403
0.000111994
0.000123166
0.000140343
3.98291e-05
3.95813e-05
3.76841e-05
4.59977e-05
5.80722e-05
6.95488e-05
7.85713e-05
8.64465e-05
9.44416e-05
0.000104533
0.000118719
3.71802e-05
3.79569e-05
3.46409e-05
3.85777e-05
4.57988e-05
5.33133e-05
5.99691e-05
6.65645e-05
7.40741e-05
8.33744e-05
9.53526e-05
3.38399e-05
3.59896e-05
3.23103e-05
3.31186e-05
3.64149e-05
4.02372e-05
4.3849e-05
4.77125e-05
5.27553e-05
5.97966e-05
6.9307e-05
2.97626e-05
3.33309e-05
3.03462e-05
2.93659e-05
2.99821e-05
3.10712e-05
3.21443e-05
3.33458e-05
3.52382e-05
3.85109e-05
4.37749e-05
2.49255e-05
2.95714e-05
2.82324e-05
2.68303e-05
2.60259e-05
2.54779e-05
2.4966e-05
2.44912e-05
2.42757e-05
2.46546e-05
2.59981e-05
1.92993e-05
2.40597e-05
2.49704e-05
2.44319e-05
2.3494e-05
2.24092e-05
2.12525e-05
2.00642e-05
1.89394e-05
1.80191e-05
1.74637e-05
1.3365e-05
2.13276e-05
2.28615e-05
2.28346e-05
2.20788e-05
2.09766e-05
1.9743e-05
1.84581e-05
1.71775e-05
1.59664e-05
1.48972e-05
3.5354e-05
0.000139935
0.000147605
0.000157355
0.000175897
0.000184881
0.000176624
0.000164141
0.000159046
0.000161195
0.000168765
2.80632e-05
0.000126407
0.00011064
0.000145684
0.00016358
0.000166423
0.000152388
0.00013625
0.000128823
0.000129099
0.000134836
2.86089e-05
0.000116641
9.16774e-05
0.000137923
0.000157022
0.000159003
0.000141112
0.000123008
0.000114395
0.000113697
0.000118534
3.18035e-05
0.000101951
8.36761e-05
0.000129585
0.000150089
0.000153381
0.000131682
0.00010987
9.71849e-05
9.13627e-05
8.9238e-05
3.55811e-05
8.89412e-05
7.84108e-05
0.000119937
0.000142714
0.000146672
0.000122946
9.95334e-05
8.5822e-05
7.95427e-05
7.75742e-05
3.89808e-05
7.96668e-05
7.38559e-05
0.000110772
0.000135436
0.000138751
0.000114496
9.10704e-05
7.72159e-05
7.03783e-05
6.71906e-05
4.18725e-05
7.32267e-05
6.97942e-05
0.000102996
0.000128522
0.000130503
0.000106625
8.41813e-05
7.09547e-05
6.4459e-05
6.16696e-05
4.43868e-05
6.84828e-05
6.61554e-05
9.65553e-05
0.000122121
0.000122671
9.96081e-05
7.86209e-05
6.64278e-05
6.06299e-05
5.84707e-05
4.63364e-05
6.49222e-05
6.29414e-05
9.12445e-05
0.000116404
0.000115748
9.36494e-05
7.42823e-05
6.3331e-05
5.86379e-05
5.8224e-05
4.77525e-05
6.21883e-05
6.01367e-05
8.68029e-05
0.000111505
0.000109901
8.88168e-05
7.10506e-05
6.14209e-05
5.8217e-05
6.04473e-05
4.86264e-05
6.01834e-05
5.7713e-05
8.30318e-05
0.000107524
0.00010513
8.51179e-05
6.87509e-05
6.03635e-05
5.86303e-05
6.3254e-05
4.90398e-05
5.8429e-05
5.5119e-05
7.86197e-05
0.000103321
0.000100764
8.23724e-05
6.72154e-05
5.9907e-05
5.93761e-05
6.61591e-05
4.89053e-05
5.65967e-05
5.18777e-05
7.21808e-05
9.63164e-05
9.55602e-05
8.02376e-05
6.64316e-05
6.0047e-05
6.04634e-05
6.90668e-05
4.82528e-05
5.45545e-05
4.81471e-05
6.397e-05
8.64097e-05
8.90736e-05
7.8266e-05
6.62383e-05
6.06489e-05
6.17244e-05
7.15004e-05
4.70288e-05
5.25409e-05
4.46908e-05
5.56235e-05
7.48374e-05
8.0921e-05
7.56221e-05
6.62749e-05
6.15664e-05
6.30284e-05
7.32631e-05
4.52108e-05
5.04782e-05
4.16777e-05
4.79024e-05
6.26899e-05
7.08149e-05
7.11378e-05
6.57875e-05
6.25179e-05
6.42651e-05
7.42147e-05
4.28063e-05
4.82624e-05
3.91881e-05
4.13488e-05
5.12204e-05
5.92341e-05
6.36949e-05
6.33122e-05
6.26914e-05
6.51216e-05
7.43378e-05
3.97229e-05
4.58583e-05
3.72351e-05
3.63172e-05
4.16558e-05
4.77323e-05
5.34397e-05
5.71028e-05
6.01885e-05
6.44823e-05
7.32376e-05
3.59251e-05
4.31325e-05
3.56939e-05
3.2797e-05
3.45458e-05
3.79196e-05
4.23069e-05
4.70278e-05
5.2623e-05
5.95291e-05
6.90729e-05
3.13911e-05
3.98223e-05
3.43011e-05
3.0543e-05
2.98391e-05
3.07285e-05
3.27867e-05
3.59013e-05
4.0655e-05
4.77108e-05
5.76333e-05
2.61158e-05
3.55391e-05
3.2624e-05
2.91456e-05
2.71692e-05
2.63077e-05
2.63174e-05
2.71835e-05
2.92464e-05
3.30943e-05
3.93986e-05
2.01375e-05
2.98943e-05
2.996e-05
2.78424e-05
2.58164e-05
2.41851e-05
2.29793e-05
2.22524e-05
2.21365e-05
2.28426e-05
2.46174e-05
1.35797e-05
2.21492e-05
2.4358e-05
2.42587e-05
2.33781e-05
2.22376e-05
2.09696e-05
1.96782e-05
1.85475e-05
1.76814e-05
1.71131e-05
9.06462e-06
1.05443e-05
1.1692e-05
1.27132e-05
1.34294e-05
1.38788e-05
1.41216e-05
1.42212e-05
1.41966e-05
1.40845e-05
1.39379e-05
4.36158e-05
0.000208653
0.000242521
0.000292628
0.00029537
0.000267241
0.000224514
0.000186777
0.000160931
0.000141972
0.000126836
3.4786e-05
0.000128119
0.000156571
0.000181001
0.000199574
0.000216365
0.000239592
0.000201769
0.000169892
0.000148023
0.000131036
3.13319e-05
9.08513e-05
0.00012794
0.000146651
0.000158091
0.000164084
0.000180567
0.000204637
0.000182382
0.000156717
0.000137175
2.86783e-05
7.56477e-05
0.000110947
0.000128772
0.000137872
0.000139703
0.000143137
0.00016642
0.000185979
0.000167477
0.000145426
2.43208e-05
7.34007e-05
0.000102406
0.000118324
0.000125799
0.000125804
0.000123197
0.00013292
0.000162193
0.000172895
0.000155641
2.18388e-05
8.10502e-05
0.000102897
0.00011411
0.00011878
0.000117123
0.00011155
0.000111924
0.000131151
0.000159548
0.000162171
2.40954e-05
0.000106342
0.000119919
0.000120392
0.000118243
0.000113089
0.000105073
9.98624e-05
0.000107906
0.000134007
0.000156635
2.57791e-05
0.000153803
0.000163425
0.000145463
0.000128473
0.000115091
0.000102929
9.35779e-05
9.35699e-05
0.000110052
0.000138619
2.52945e-05
0.000165745
0.000214154
0.000191723
0.000154786
0.000126189
0.000105823
9.1532e-05
8.5508e-05
9.28403e-05
0.000116286
2.43086e-05
0.000169862
0.000264994
0.000254301
0.000201758
0.000150817
0.000115936
9.37875e-05
8.19342e-05
8.18611e-05
9.67961e-05
2.34028e-05
0.000162957
0.000272894
0.000304551
0.000261638
0.000190513
0.000135402
0.000101216
8.22716e-05
7.58022e-05
8.26648e-05
2.27995e-05
0.000155075
0.000273205
0.000340742
0.000321741
0.000242139
0.000164525
0.000114267
8.63036e-05
7.36395e-05
7.37124e-05
2.23782e-05
0.000147454
0.000264954
0.000342396
0.000359874
0.000293845
0.000199829
0.000132048
9.35724e-05
7.45815e-05
6.89483e-05
2.20715e-05
0.000141891
0.00025333
0.000329945
0.000374611
0.000333797
0.00023478
0.000151995
0.000103075
7.79396e-05
6.74777e-05
2.17704e-05
0.000136427
0.000240045
0.000311
0.000368069
0.000354634
0.000261907
0.000170098
0.000113117
8.29521e-05
6.86577e-05
2.14395e-05
0.000132148
0.000226917
0.000290025
0.000346332
0.00035569
0.000276688
0.000183195
0.000122289
8.90661e-05
7.20893e-05
2.10841e-05
0.000127881
0.000214656
0.000268345
0.000313069
0.000338681
0.000279866
0.000190457
0.000130145
9.62362e-05
7.78009e-05
2.04873e-05
0.000120929
0.000202155
0.000249433
0.000282154
0.000305571
0.000276687
0.000194172
0.000137684
0.000105091
8.63539e-05
1.96792e-05
0.000111594
0.000187932
0.00023275
0.000258058
0.000274359
0.000268034
0.000200595
0.000147933
0.000117584
9.91028e-05
1.87e-05
9.9647e-05
0.000169865
0.000216955
0.000241798
0.000256837
0.000258925
0.000218798
0.000166818
0.000137585
0.000119077
1.76352e-05
8.62321e-05
0.000147047
0.000196834
0.000232505
0.000257422
0.000269505
0.000255074
0.000204145
0.000172005
0.000151446
1.67359e-05
7.57195e-05
0.000131079
0.000168022
0.000201804
0.000236543
0.00027252
0.00029542
0.000266908
0.000229767
0.00020269
2.09413e-05
0.000138712
0.000196559
0.000219631
0.000233187
0.000255706
0.000285118
0.000304316
0.0002975
0.000269763
0.000239675
1.24009e-05
2.07523e-05
2.45684e-05
2.90093e-05
3.48738e-05
4.21034e-05
5.04661e-05
5.87884e-05
6.56053e-05
7.37224e-05
8.20349e-05
3.91692e-05
0.000221885
0.000278253
0.000288053
0.0002764
0.000247441
0.000210772
0.000179475
0.000156415
0.000138602
0.000123858
2.47458e-05
0.000175713
0.00025723
0.000286423
0.00028148
0.000254244
0.000216862
0.000183957
0.000159425
0.000140492
0.000124881
2.3085e-05
0.000149065
0.000240078
0.000290626
0.000293873
0.000268024
0.00022876
0.000193002
0.000166112
0.000145249
0.000127809
2.39663e-05
0.000130072
0.000222486
0.000292681
0.000305524
0.000282069
0.000241713
0.00020399
0.000175586
0.000153253
0.000133819
2.569e-05
0.000117407
0.000202209
0.000276172
0.000301848
0.000288454
0.000253013
0.00021701
0.000188865
0.000166611
0.000147028
2.74061e-05
0.00010876
0.000187697
0.000254607
0.000278426
0.000270554
0.000243631
0.000216205
0.000195851
0.000179699
0.00016378
2.89674e-05
0.000102393
0.000177146
0.000237848
0.00026022
0.000254851
0.000231263
0.000207872
0.000192018
0.000180531
0.000169249
3.04484e-05
9.77611e-05
0.000169384
0.000224641
0.000244914
0.000240583
0.000218833
0.000197656
0.000184722
0.000177265
0.000171276
3.1683e-05
9.4496e-05
0.00016379
0.000214625
0.000233127
0.000229041
0.000207821
0.000187193
0.000175392
0.000170271
0.000168224
3.26632e-05
9.20788e-05
0.000160035
0.000207786
0.000225596
0.000221394
0.000199952
0.000178434
0.000166035
0.000161267
0.000160912
3.33773e-05
9.01322e-05
0.000157622
0.000204065
0.000222212
0.000218448
0.000196551
0.000173028
0.000158592
0.000152558
0.000151803
3.39197e-05
8.85553e-05
0.000156366
0.000203073
0.000222751
0.000220539
0.000198673
0.000172554
0.000154959
0.00014651
0.000144013
3.42145e-05
8.70286e-05
0.000155919
0.000204344
0.000226931
0.000227899
0.000207419
0.000178843
0.000157158
0.000145016
0.00013865
3.42858e-05
8.51326e-05
0.000155664
0.000207206
0.000234216
0.00024043
0.000223718
0.000193967
0.000167694
0.000150795
0.00013969
3.40379e-05
8.21583e-05
0.000155035
0.000210771
0.000243558
0.000257209
0.000247642
0.000219855
0.000189711
0.000167273
0.000150021
3.34078e-05
7.74857e-05
0.000151164
0.000211682
0.00025128
0.000274477
0.00027667
0.000257182
0.000226614
0.000199183
0.0001766
3.23741e-05
7.09562e-05
0.000143161
0.000208061
0.000254341
0.000286944
0.000302958
0.000298946
0.000277592
0.000250467
0.000225772
3.08523e-05
6.30972e-05
0.000130736
0.000198492
0.000250869
0.000291693
0.000320448
0.000334689
0.000332294
0.000317288
0.000297817
2.87844e-05
5.43286e-05
0.00011404
0.000181606
0.000238721
0.000286077
0.000324495
0.000353982
0.00037306
0.000381322
0.000381696
2.61219e-05
4.49585e-05
9.37959e-05
0.00015659
0.000215641
0.000267386
0.000311964
0.000350701
0.000384636
0.000414624
0.00044297
2.28036e-05
3.54288e-05
7.16625e-05
0.000124442
0.000180503
0.00023321
0.000280488
0.000322931
0.000362378
0.000401328
0.000443943
1.88106e-05
2.62842e-05
5.02904e-05
8.89966e-05
0.00013548
0.000183311
0.000228616
0.000270161
0.000308556
0.00034553
0.000384309
1.41182e-05
1.74608e-05
3.1199e-05
5.49403e-05
8.65255e-05
0.000122241
0.000158551
0.000193194
0.000225228
0.000254685
0.000282323
8.82445e-06
1.55404e-05
2.47526e-05
3.76765e-05
5.41403e-05
7.30289e-05
9.28745e-05
0.000112415
0.000130752
0.000147517
0.000162328
1.95783e-05
2.18898e-05
2.30615e-05
2.37186e-05
2.37248e-05
2.35344e-05
2.23125e-05
2.23357e-05
2.26195e-05
5.02107e-05
8.16507e-05
0.000124309
0.000154811
0.000172582
0.000183743
0.000174724
0.000156667
0.000140668
9.46429e-05
0.000160894
0.000239526
0.000285486
0.000312714
0.000322721
0.000308461
0.000279153
0.000254256
0.000133583
0.000230656
0.000346267
0.000404265
0.000428578
0.000428181
0.00041261
0.000376234
0.000351801
1.30514e-05
1.06116e-05
1.01794e-05
9.52002e-06
1.21085e-05
1.79789e-05
2.05579e-05
2.17963e-05
2.24174e-05
4.03947e-05
4.01098e-05
4.86759e-05
3.34882e-05
3.49209e-05
3.78156e-05
5.64163e-05
8.62311e-05
0.000119703
6.43777e-05
5.39445e-05
6.51914e-05
4.64323e-05
5.04375e-05
6.77433e-05
0.000108335
0.000165724
0.000219497
8.47982e-05
6.49506e-05
8.08144e-05
6.21239e-05
6.62766e-05
9.28661e-05
0.000149947
0.000234177
0.000311778
0.000199614
0.000229726
0.00022977
0.000236757
0.000249168
0.000242213
6.19821e-05
0.000229638
0.000245142
0.000244166
0.000249747
0.000229634
0.000240143
0.000240669
0.000127552
0.000248249
0.00024089
0.000237005
0.00024884
0.000259428
0.000243642
0.000101034
0.000229942
0.000242427
0.000229322
0.000240275
0.000240734
6.16032e-05
0.000268329
0.000243219
0.000241925
0.000245734
0.00024263
0.000229508
0.000248466
0.000229685
0.000243054
0.000229396
0.000243299
0.000234987
2.31254e-05
0.000229531
0.000242767
0.000229917
0.000134384
0.000130373
0.0002508
0.000138324
0.000249154
0.000253258
0.000243626
0.000233842
0.000246537
0.000242519
0.000250721
0.000243628
0.000129644
0.000231726
0.000276578
0.000243262
5.18549e-05
0.000246024
0.000250178
0.00023935
7.84836e-05
0.000259749
0.000243357
0.000253844
0.000229722
0.000244586
0.000238077
0.000253535
0.000241431
0.000257524
0.000256288
0.000254051
6.72614e-05
0.000229698
0.000247271
0.000100144
0.000243701
0.000239237
0.000229567
0.00022979
0.000249223
0.000240956
0.00019883
0.000243587
0.00025318
0.000254714
0.000229487
0.000230572
2.7768e-05
0.000249433
9.48532e-05
0.000121481
0.000251725
0.000246944
0.00025112
0.000255339
0.000251386
0.000146063
0.000248236
0.000239614
0.000246434
0.000229515
0.000242407
0.000229866
0.000243611
0.000249159
0.00022704
0.000229565
0.000255592
0.000236801
0.00024088
0.000232761
0.000236986
0.000236243
0.000229766
0.000251517
0.000236862
0.00025758
0.000253512
0.000239199
0.00014543
0.000251021
0.000247803
0.000240071
0.000247882
0.000242993
0.000230122
0.000243397
0.000142685
0.000253717
0.000229758
0.000253053
0.000151737
0.000239303
0.000243668
0.000246352
0.000243378
0.000245698
0.000146858
0.000217823
0.000239273
0.000242919
0.000255843
0.000254726
0.000242883
0.000236216
0.000249876
0.000233775
0.000245034
0.000256786
0.000236732
0.000244523
0.000238183
0.000255483
0.000242841
0.000244715
0.000237111
0.000246215
0.000253909
0.000231933
0.000243982
0.000254242
0.000258041
0.000256636
0.00025153
7.01672e-05
0.000242564
0.000235801
0.000252293
0.000242766
0.000246266
0.00023716
0.000239954
0.00024473
0.000121737
0.000234087
0.000255318
0.000112414
0.000229923
0.000247955
0.000229679
0.00023747
0.000249421
0.000239537
0.000229685
0.000250991
0.000243919
0.000237455
0.000252064
2.17204e-05
0.000229749
0.000236223
0.000253283
0.000248881
0.000242848
0.00023
0.000254403
0.000262561
0.000247224
0.000240331
0.000229804
0.000243805
0.000249556
0.000248263
0.000257686
0.000246798
0.000253982
0.000235551
0.000222692
0.000249359
0.000229493
0.000244002
0.00022947
0.000246678
0.000251876
0.000241172
0.000241063
0.000237091
0.000252601
0.000240234
0.000239723
0.000232609
0.000248033
0.000254718
0.000243136
0.000246647
0.000256584
0.000251098
0.000250316
0.000257496
0.000244319
0.00015523
0.000240743
0.000229876
0.000229657
0.000229656
0.000247006
0.000241255
0.000239859
2.20758e-05
0.000258339
0.000247005
0.000229494
0.000238236
0.000162097
0.000241222
0.000238015
0.000253902
0.000259144
0.000255825
0.000246469
0.000250687
0.000245215
0.000229511
0.000243804
0.00024879
0.000235992
0.000254531
0.000247686
0.000229638
0.000227401
0.000249524
0.000245821
0.000255131
0.000157222
0.000233897
0.000252095
0.000252862
0.000262873
0.000250527
0.000241262
0.000232924
0.000238568
0.000231665
0.000247969
0.00024627
0.000253761
0.00022968
0.000243878
0.000241616
0.000245767
0.00023749
0.000320572
0.000229676
0.000248924
0.000243971
0.000229751
8.33888e-05
0.000254621
0.000244061
0.000229998
0.000255781
0.000251724
0.000229614
0.000248961
0.000239085
0.000231204
0.000240071
0.000248942
0.000243341
0.000245823
0.000249439
0.000229699
0.000256026
0.000134117
0.000223408
5.23458e-05
0.000229547
0.00024749
0.000242232
3.95141e-05
0.000246417
0.000242111
0.000249105
0.000244472
0.000252078
0.000246255
0.000247879
0.000243137
0.000235844
0.000244298
0.000250042
0.000230643
0.00024155
0.000248424
0.000245346
0.000252731
0.000250589
6.63914e-05
0.000229881
0.000239815
0.000124528
0.000238053
0.000229671
0.000230157
0.000247046
0.000252224
0.000254089
0.00026224
0.000250108
0.000250533
0.000255955
0.000243
0.000238939
0.000244125
0.000246281
8.1419e-05
0.000243606
0.000232386
0.000247415
0.000199007
0.000230036
0.000240728
0.000238484
0.000229918
0.000244499
0.00020774
0.000238963
0.000229457
0.000229482
0.000263124
0.000256545
0.000236018
0.000243429
8.42976e-05
0.000251638
0.000232185
0.00025387
0.000141672
0.000241866
0.000202728
0.000229736
0.000207435
0.000247718
0.000242661
0.00023411
0.000247873
0.000236691
0.000245179
0.000233651
0.00023744
0.000242702
0.000238543
0.000239832
0.000241825
0.000262247
0.000232563
5.6524e-05
0.00024007
0.000249941
0.000242387
7.3968e-05
0.000229536
0.000221657
0.000229762
0.000244274
0.000243316
0.00023433
0.000229929
0.000243857
0.000240644
4.83349e-05
0.000203495
0.000246935
0.00026071
0.000248156
0.00025409
0.000249458
0.000245276
0.000244443
0.000250534
0.000247767
0.000244254
0.000260373
0.000239737
0.000139714
0.000246958
0.000241828
7.0991e-05
0.000242956
0.000238374
0.000248457
0.00025667
9.65491e-05
0.000262438
0.000184687
0.000229678
0.000244429
0.000237017
0.000245061
0.000265544
0.000241081
0.000246202
0.000243852
0.000239005
0.000230033
0.000239335
0.000221777
0.000247933
0.000238855
0.000249849
0.000243115
0.000241408
0.000249849
0.000249909
0.000248372
0.000231554
0.00022974
0.000229551
0.000243278
0.000256374
9.35243e-05
0.000242602
0.000254854
0.000109172
0.000229672
0.000249755
0.000247271
0.000241782
0.000246182
0.000255271
3.78346e-05
4.15161e-05
2.96836e-05
2.93526e-05
0.000252377
0.000236207
0.000242435
0.000241987
5.21658e-05
0.000251538
0.000229676
0.00025167
8.21183e-05
0.000250256
0.00024954
0.000230397
0.000244734
0.000242351
0.000104677
0.000229866
0.000242397
0.000251146
0.000206595
0.000240954
0.000248922
0.000253856
0.000234365
0.00025167
0.000234386
0.000244929
0.000242572
0.00025649
0.00023591
0.00021744
0.000254416
0.000238656
0.000242238
0.000229561
0.000229475
0.000162803
0.000240856
0.00024165
0.000252958
0.000137821
0.000229759
0.000247899
0.000158137
0.000263464
0.000252063
0.000252032
0.000241285
0.000245922
0.000236123
0.000230612
0.000236046
0.000244716
0.000229674
0.000233703
0.000229662
0.000249331
0.000248351
0.000229649
0.000245589
0.000245354
0.00023174
0.000171385
0.00026159
0.000253701
0.000236233
0.000256469
0.000229994
0.000229826
0.000229812
2.09499e-05
0.000250469
0.00022954
0.000229567
0.000239412
0.000229744
0.000247084
0.0002297
0.000246713
0.000248276
0.000250116
0.000245188
0.00023933
0.000117387
0.000247106
0.000247003
0.000245722
0.000243337
0.00022973
0.000240997
0.000252371
0.000244781
0.000243359
0.00026676
0.00011406
0.000229502
0.000257582
0.000229673
0.000241638
0.000239802
0.000139137
0.000229527
0.000242778
0.000242006
0.000251265
0.000243003
0.000245549
0.000248446
0.000252748
0.000196894
0.000136514
0.000230248
0.000245708
0.000256387
0.000255763
0.000240611
0.000246884
2.88994e-05
0.000258
0.000229819
0.000229976
9.10855e-05
0.000234891
0.000236811
0.00023852
0.000244501
0.000242195
0.000253523
0.000242747
0.000245879
0.000230911
0.000229778
0.000129089
0.000249293
0.000201217
0.000259759
0.000229468
0.000229493
0.000247961
0.000251428
0.000251183
0.00024668
0.00024327
0.000247511
0.000243977
0.000157547
0.000248459
0.000258425
0.000256033
0.000249168
0.000251423
0.000230741
0.000151371
0.000251256
0.000237198
0.000239315
0.000169422
0.000248629
0.00025217
0.000146195
0.000229715
0.000249354
0.000240865
0.000244957
0.000218845
0.0002441
0.000241656
0.000221751
0.000254522
0.000164635
0.000250387
0.000234652
0.000259387
0.000239964
0.000233701
0.000229763
0.000248117
0.000244907
0.000243383
0.000243279
0.000251294
0.000237491
0.000243189
0.000171551
0.000234622
0.000261509
0.000230265
0.000247009
0.000229525
0.000217051
0.00024682
0.000240609
0.000244196
0.000254406
0.000246618
0.000229698
0.000239657
6.23914e-05
0.000247079
0.000250929
0.000249335
0.000233209
0.000238834
0.000250979
0.000159607
0.000255261
0.000253992
0.000255784
0.000204824
0.000240437
0.000229917
0.0002429
0.000238506
0.000243346
0.000159539
0.000237112
0.00024701
0.000229822
0.00019877
0.000241511
0.000233543
0.00024591
0.000240823
0.000247294
0.000229809
0.000226762
0.000244643
0.00023992
0.000229532
0.000236418
0.000235057
0.000241516
0.000245964
0.000229573
0.000238988
0.000247012
0.000252907
0.000242519
0.000244166
0.000238818
2.34221e-05
0.000245221
0.000251514
0.000241418
0.000242187
0.000252984
0.000242219
6.42934e-05
0.00023
0.000242098
0.00022929
0.000252417
5.07635e-05
0.000270403
0.000253941
0.000240936
0.000252621
0.000249223
0.000249379
0.000247338
0.00022966
0.000245368
0.000245026
0.000246867
0.000247621
0.000194543
0.000242561
0.000242346
0.000254334
0.000241322
0.000249321
0.000247026
0.000228736
0.000238808
0.000264733
0.000229506
0.000160497
0.000229737
0.000256303
0.000255264
0.000240603
0.000252022
0.000247364
0.000238327
0.00025346
0.000241716
0.000229587
0.000243165
0.000246101
0.00024456
0.000241031
0.000252226
0.000243158
0.000245576
0.000245258
0.000132515
0.000229961
0.000242489
0.000230305
0.000244427
0.000258782
0.000254656
0.000257371
0.000241449
0.000245282
0.000256621
0.000216964
0.000249668
0.000230942
0.000244472
0.000121432
0.00023004
0.000229862
0.000249257
0.000252538
0.000248089
0.000242629
0.000229648
0.000241645
0.000253226
0.000229557
0.000229655
0.000229784
0.000229171
0.000258435
0.000240557
6.8623e-05