/*--------------------------------*- C++ -*----------------------------------*\
| =========                 |                                                 |
| \\      /  F ield         | OpenFOAM: The Open Source CFD Toolbox           |
|  \\    /   O peration     | Version:  3.0.1                                 |
|   \\  /    A nd           | Web:      www.OpenFOAM.org                      |
|    \\/     M anipulation  |                                                 |
\*---------------------------------------------------------------------------*/
FoamFile
{
    version     2.0;
    format      ascii;
    class       volScalarField;
    location    "0.0476749";
    object      p;
}
// * * * * * * * * * * * * * * * * * * * * * * * * * * * * * * * * * * * * * //

dimensions      [0 2 -2 0 0 0 0];

internalField   nonuniform List<scalar> 
21246
(
1.81714
1.61407
1.49042
1.41011
1.34351
1.28042
1.20867
1.12337
1.02704
0.935117
0.893556
2.44269
2.23532
1.99881
1.82267
1.68546
1.56582
1.45147
1.33578
1.21648
1.10635
1.04383
2.16167
2.20045
2.11189
1.99356
1.8739
1.75231
1.62523
1.49254
1.3576
1.23934
1.17261
1.79918
1.93271
1.96487
1.94928
1.8954
1.81287
1.70983
1.5941
1.47389
1.36135
1.27832
1.49264
1.67498
1.75517
1.80349
1.81883
1.7996
1.74638
1.66373
1.55927
1.44694
1.36021
1.23653
1.43433
1.52462
1.61665
1.68572
1.71871
1.71025
1.6619
1.58
1.47909
1.39424
1.01521
1.22705
1.29256
1.40344
1.50054
1.56989
1.60138
1.59061
1.53967
1.46097
1.38689
0.872198
1.02109
1.10445
1.21102
1.31356
1.39978
1.45695
1.47615
1.45466
1.40237
1.35528
0.749896
0.877518
0.955098
1.05077
1.14878
1.23805
1.30655
1.34392
1.34415
1.31348
1.28497
0.635898
0.758842
0.830135
0.916972
1.00786
1.09368
1.16431
1.21005
1.22361
1.20832
1.19297
0.549405
0.663087
0.726067
0.804126
0.886609
0.965825
1.03341
1.08085
1.10073
1.09492
1.0937
0.499452
0.594759
0.644494
0.710935
0.782567
0.852426
0.913291
0.9578
0.979066
0.978151
0.983964
0.450073
0.533692
0.57399
0.629957
0.690279
0.749267
0.800898
0.83909
0.858033
0.858749
0.870218
0.391292
0.471052
0.505647
0.55289
0.602404
0.649945
0.690723
0.720056
0.733326
0.730897
0.74182
0.358618
0.421472
0.44304
0.477963
0.514638
0.549097
0.577247
0.595742
0.60176
0.596255
0.607118
0.318516
0.366043
0.375969
0.398118
0.42056
0.440178
0.453876
0.459932
0.457787
0.449162
0.462782
0.254331
0.293614
0.295313
0.304979
0.311984
0.314952
0.312463
0.304986
0.294897
0.284768
0.300798
0.194396
0.216203
0.202501
0.194418
0.181741
0.164735
0.144009
0.122673
0.106628
0.100206
0.125164
0.120518
0.12093
0.0868539
0.055355
0.0176463
-0.0236048
-0.064218
-0.0974381
-0.11448
-0.110197
-0.0661555
0.0165647
-0.0092522
-0.0669731
-0.126219
-0.193848
-0.263706
-0.325914
-0.367697
-0.377353
-0.351906
-0.284883
-0.130078
-0.191199
-0.277211
-0.367584
-0.47009
-0.572463
-0.65529
-0.697513
-0.687023
-0.625142
-0.518822
-0.32543
-0.458086
-0.565455
-0.689243
-0.834491
-0.972258
-1.06972
-1.09758
-1.04541
-0.928511
-0.769419
-0.827205
-0.837038
-0.965936
-1.12965
-1.32149
-1.49206
-1.58427
-1.56838
-1.44967
-1.25972
-1.03627
0.0518066
-0.825207
-1.23321
-1.59005
-1.88946
-2.09166
-2.15663
-2.07491
-1.87499
-1.61036
-1.33336
-0.542777
0.453982
0.82348
0.896555
0.946142
0.976098
0.954258
0.893591
0.817108
0.73368
0.692902
-0.310682
0.0983748
0.297289
0.359634
0.422785
0.495203
0.544018
0.565354
0.542529
0.477194
0.451128
-0.0698545
-0.00905049
0.0552332
0.0607377
0.0188703
-0.00414882
0.0143145
0.0649347
0.110278
0.122685
0.139198
-0.607787
-0.449328
-0.321393
-0.282703
-0.357104
-0.492157
-0.58584
-0.589026
-0.522957
-0.434187
-0.315739
-1.25379
-1.14534
-0.99263
-0.885741
-0.911665
-1.08294
-1.28691
-1.40054
-1.37426
-1.24518
-1.04238
-1.92822
-1.91705
-1.83098
-1.77152
-1.7702
-1.91663
-2.18753
-2.41564
-2.46934
-2.33125
-2.0502
-2.54283
-2.65795
-2.67074
-2.73646
-2.8534
-3.04064
-3.3527
-3.68504
-3.83495
-3.70707
-3.35722
-3.07392
-3.31273
-3.42973
-3.64391
-3.93232
-4.30022
-4.73387
-5.19875
-5.46568
-5.36347
-4.89517
-3.4836
-3.83864
-4.05318
-4.41852
-4.88478
-5.46516
-6.14554
-6.80712
-7.27037
-7.23383
-6.68903
-3.71347
-4.203
-4.49002
-4.99196
-5.62323
-6.40576
-7.33268
-8.30571
-9.05256
-9.13017
-8.39707
-3.73559
-4.3699
-4.6862
-5.3092
-6.08129
-7.03509
-8.17675
-9.44476
-10.4899
-10.8384
-10.0364
-3.613
-4.24076
-4.6812
-5.359
-6.22257
-7.29483
-8.57208
-10.0005
-11.34
-11.9479
-11.1446
-3.28074
-3.88492
-4.39959
-5.11336
-6.03083
-7.16785
-8.51165
-9.99232
-11.4275
-12.0922
-11.3506
-2.70932
-3.28724
-3.83763
-4.56422
-5.49708
-6.65114
-7.99997
-9.44138
-10.731
-11.4293
-10.7954
-1.96873
-2.5002
-3.05602
-3.77387
-4.69392
-5.8255
-7.12007
-8.44334
-9.54832
-10.0749
-9.55502
-1.10583
-1.60557
-2.16903
-2.88186
-3.78646
-4.88195
-6.09465
-7.25453
-8.08936
-8.33253
-8.0572
-0.273916
-0.786905
-1.38662
-2.11504
-3.01231
-4.06749
-5.18976
-6.18609
-6.77811
-6.77692
-6.39783
0.229672
-0.352548
-1.02048
-1.76536
-2.63128
-3.62495
-4.65934
-5.5171
-5.89542
-5.59674
-4.85304
0.282626
-0.371069
-1.06879
-1.78952
-2.60391
-3.54689
-4.53688
-5.2982
-5.46335
-4.84397
-3.58192
-0.0824101
-0.73799
-1.4074
-2.11017
-2.91447
-3.8484
-4.83743
-5.49191
-5.36264
-4.39097
-2.77145
-0.801634
-1.46302
-2.0896
-2.74659
-3.4816
-4.3337
-5.27312
-5.7172
-5.10197
-3.89953
-2.47177
-1.7181
-2.29603
-2.82951
-3.35801
-3.95963
-4.65085
-5.17051
-5.121
-4.32807
-3.30838
-2.40468
-2.25035
-3.11754
-3.50247
-3.78192
-4.03557
-4.20047
-4.18855
-3.90712
-3.30513
-2.62353
-2.04074
-4.65989
-3.7416
-3.25521
-3.10819
-3.14284
-3.1943
-3.10662
-2.85083
-2.46015
-2.03503
-1.65643
26.4782
21.641
17.3528
13.9079
11.214
9.14479
7.52817
6.23553
5.18716
4.35817
3.78559
17.7586
18.5388
17.4936
15.481
13.1041
10.8325
8.86635
7.25197
5.95178
4.93686
4.21805
7.07287
11.329
12.5999
13.0472
12.1619
10.8089
9.2262
7.70913
6.38149
5.29818
4.51973
0.213765
4.7001
6.38086
8.48273
9.12377
9.06635
8.36187
7.36613
6.30669
5.33854
4.5699
-3.10948
0.428088
1.46224
4.19378
5.57068
6.46364
6.64005
6.33047
5.7335
5.04642
4.44575
-4.6184
-1.79752
-1.38821
1.1151
2.57479
3.90062
4.65266
4.92277
4.80622
4.46627
4.08902
-4.99486
-3.02379
-2.54104
-0.74955
0.528191
1.90452
2.88623
3.50675
3.75922
3.74054
3.59763
-4.57882
-3.44853
-2.9523
-1.62268
-0.619565
0.597597
1.57259
2.32981
2.79531
3.00453
3.06696
-4.1188
-3.31699
-2.94632
-1.91715
-1.14432
-0.128678
0.734133
1.49056
2.03887
2.38087
2.58088
-3.81504
-3.07327
-2.75065
-1.90028
-1.29098
-0.446779
0.282448
0.974493
1.52167
1.91695
2.19573
-3.24328
-2.62711
-2.37973
-1.67117
-1.19337
-0.490333
0.111475
0.717867
1.21959
1.61029
1.91012
-2.31658
-1.92709
-1.81242
-1.26086
-0.913971
-0.339236
0.142275
0.65784
1.09414
1.45272
1.735
-1.59068
-1.2884
-1.21701
-0.771653
-0.527827
-0.0592427
0.314403
0.742357
1.10475
1.41585
1.66867
-1.11531
-0.781975
-0.687267
-0.291461
-0.105189
0.287151
0.574738
0.925006
1.21309
1.46607
1.66861
-0.412442
-0.176323
-0.137811
0.191586
0.331109
0.663957
0.884965
1.16911
1.38724
1.57864
1.72087
0.175789
0.365455
0.380284
0.664476
0.77031
1.0566
1.22476
1.45161
1.60415
1.73272
1.81421
0.563737
0.789292
0.833148
1.10625
1.20141
1.45994
1.58645
1.75877
1.84872
1.90831
1.92116
1.0684
1.26846
1.29806
1.54955
1.63922
1.87411
1.97677
2.08502
2.10606
2.0901
2.03323
1.60551
1.76896
1.77559
2.01811
2.12075
2.3145
2.38553
2.42097
2.36238
2.2631
2.13388
2.16146
2.29455
2.26779
2.537
2.66596
2.80635
2.81419
2.75249
2.59871
2.40952
2.20635
2.83859
2.96852
2.89239
3.27433
3.31731
3.34285
3.2417
3.05202
2.78908
2.51195
2.24404
3.82969
3.9826
3.9582
4.318
4.13094
3.9271
3.63392
3.27984
2.90492
2.55624
2.2429
4.78041
5.42315
5.4869
5.69863
5.138
4.55477
3.96466
3.41387
2.93891
2.54745
2.22371
7.60207
7.70043
7.73386
7.32283
6.2258
5.14408
4.17929
3.41249
2.85363
2.45095
2.12645
13.5056
13.9802
12.8317
11.2405
9.42675
7.80113
6.43197
5.31993
4.4212
3.71972
3.24249
-10.5137
-0.0440732
3.80431
6.03185
6.40274
5.94173
5.11184
4.29953
3.57871
3.00953
2.63503
-23.921
-13.0877
-8.1268
-2.65095
0.539485
2.15924
2.65898
2.5879
2.3258
2.03582
1.83339
-28.0018
-20.6543
-17.0899
-10.7908
-6.22508
-2.84762
-0.83106
0.184158
0.625636
0.796352
0.923167
-27.4733
-23.1436
-21.2394
-15.9181
-11.5958
-7.56428
-4.57022
-2.55778
-1.37403
-0.656587
-0.166778
-25.6656
-22.9106
-21.9949
-18.0425
-14.6872
-10.8887
-7.67466
-5.13173
-3.34475
-2.13229
-1.28563
-23.79
-21.7897
-21.2735
-18.3039
-15.8863
-12.6669
-9.72322
-7.1
-5.00597
-3.44523
-2.26811
-21.9329
-20.4181
-20.0796
-17.6901
-15.9572
-13.2839
-10.7751
-8.32581
-6.2011
-4.46846
-3.09203
-20.3089
-19.0335
-18.8037
-16.7181
-15.4647
-13.1742
-11.0883
-8.88904
-6.8902
-5.13842
-3.66125
-18.958
-17.7068
-17.5838
-15.605
-14.7117
-12.6389
-10.9147
-8.94558
-7.1282
-5.46331
-4.01446
-17.718
-16.6616
-16.2949
-14.4908
-13.8008
-11.8549
-10.4217
-8.63586
-7.00438
-5.45963
-4.10149
-16.3411
-15.4738
-14.9094
-13.4831
-12.6952
-10.9204
-9.69941
-8.06397
-6.60827
-5.18833
-3.95753
-15.0341
-14.1802
-13.5864
-12.3426
-11.4916
-9.89682
-8.80093
-7.30568
-6.00997
-4.72241
-3.61519
-13.8174
-12.897
-12.2802
-11.0932
-10.2306
-8.8089
-7.77253
-6.41347
-5.25925
-4.11385
-3.09697
-12.4371
-11.5196
-10.9205
-9.78426
-8.91847
-7.63535
-6.64064
-5.41597
-4.39255
-3.4046
-2.52847
-11.0443
-10.1083
-9.51685
-8.42379
-7.55853
-6.36184
-5.41491
-4.32812
-3.43861
-2.62554
-1.94148
-9.66422
-8.68218
-8.07353
-7.00724
-6.12859
-4.99801
-4.10574
-3.16255
-2.42074
-1.79677
-1.29839
-8.19081
-7.17394
-6.54873
-5.50757
-4.59675
-3.55666
-2.71946
-1.93347
-1.36422
-0.94136
-0.633157
-6.57408
-5.5314
-4.90213
-3.89884
-2.97004
-2.0072
-1.25873
-0.666963
-0.307773
-0.0995415
0.0311436
-4.75508
-3.68124
-3.08324
-2.13251
-1.21248
-0.34493
0.245149
0.582123
0.690028
0.671933
0.599118
-2.65752
-1.53617
-1.00347
-0.114739
0.742437
1.42066
1.72031
1.72901
1.56642
1.34395
1.13246
-0.426731
0.892433
1.44505
2.25727
2.88908
3.20151
2.99749
2.62277
2.22746
1.85782
1.56756
2.24009
3.61023
4.41118
5.09109
5.19469
4.93319
4.05546
3.28783
2.71333
2.21156
1.84418
3.67142
6.69381
7.33113
6.93102
6.20981
5.141
4.05672
3.24307
2.66752
2.30239
2.05644
-16.3979
-7.35662
-3.46842
-1.60942
-0.675431
-0.193305
0.0582218
0.144782
0.139165
0.0898047
0.090115
-28.7881
-17.2013
-12.1976
-8.43024
-5.35757
-3.35393
-2.19434
-1.54119
-1.15584
-0.93733
-0.772272
-23.1376
-19.2343
-16.9036
-13.5204
-9.85913
-6.93539
-4.88612
-3.51715
-2.62993
-2.0464
-1.61799
-16.0859
-16.1481
-16.0548
-14.5093
-12.0612
-9.48602
-7.20923
-5.42709
-4.13379
-3.2234
-2.53708
-12.7131
-13.1993
-13.4923
-13.1365
-12.0646
-10.4403
-8.58218
-6.84387
-5.40948
-4.30867
-3.40887
-11.6927
-11.648
-11.747
-11.7093
-11.2969
-10.3989
-9.10649
-7.67223
-6.31891
-5.17479
-4.17995
-11.4311
-11.0726
-11.0237
-10.9436
-10.6881
-10.1311
-9.23148
-8.10084
-6.90766
-5.80376
-4.77398
-11.2811
-10.8012
-10.6793
-10.5334
-10.3182
-9.92552
-9.25977
-8.34638
-7.29745
-6.25803
-5.24299
-11.2227
-10.7303
-10.4968
-10.2835
-10.0883
-9.80004
-9.28876
-8.52562
-7.58152
-6.58931
-5.58736
-11.2374
-10.7147
-10.4688
-10.1883
-9.98817
-9.76277
-9.35602
-8.69406
-7.81423
-6.84007
-5.82848
-11.323
-10.7967
-10.5573
-10.2133
-9.99633
-9.80269
-9.46582
-8.869
-8.01745
-7.03335
-6.0119
-11.4529
-10.9097
-10.6666
-10.3205
-10.0766
-9.8893
-9.59373
-9.03318
-8.17791
-7.14836
-6.0699
-11.5759
-11.0256
-10.7877
-10.4674
-10.1987
-10.0021
-9.71603
-9.15835
-8.26735
-7.16577
-6.0156
-11.6333
-11.1003
-10.8658
-10.5483
-10.2694
-10.0723
-9.77674
-9.19541
-8.24464
-7.05539
-5.82507
-11.6444
-11.1068
-10.8713
-10.5469
-10.264
-10.0293
-9.70148
-9.07177
-8.04803
-6.77306
-5.4635
-11.5737
-11.0257
-10.7812
-10.4455
-10.1383
-9.83094
-9.43947
-8.74191
-7.64104
-6.29976
-4.95932
-11.3827
-10.8331
-10.5708
-10.2156
-9.8597
-9.46558
-8.96639
-8.18986
-7.02434
-5.64092
-4.29082
-11.0787
-10.5146
-10.2265
-9.84697
-9.43743
-8.9522
-8.30948
-7.43452
-6.22023
-4.84897
-3.55245
-10.6423
-10.0604
-9.74894
-9.3544
-8.89736
-8.32056
-7.54628
-6.54098
-5.30567
-3.98902
-2.81862
-10.0358
-9.47214
-9.17056
-8.79691
-8.31098
-7.63666
-6.73058
-5.59623
-4.3787
-3.14521
-2.12281
-9.2308
-8.82923
-8.61724
-8.30563
-7.79303
-6.99687
-5.92626
-4.71557
-3.52313
-2.41476
-1.58285
-8.43924
-8.40307
-8.37229
-8.09392
-7.48064
-6.48946
-5.22533
-3.94648
-2.8025
-1.89074
-1.28744
-8.59613
-8.97179
-8.68658
-8.08469
-7.13599
-5.89623
-4.54401
-3.31477
-2.36442
-1.76285
-1.3832
-10.8904
-8.0333
-7.2626
-6.57362
-5.6298
-4.62802
-3.68441
-2.83622
-2.05
-1.40318
-1.07205
14.1191
8.49717
5.30158
3.66121
2.7933
2.29113
1.93207
1.61472
1.31188
1.04515
0.86669
18.2087
15.8897
12.6351
9.64579
7.23
5.47413
4.21865
3.29368
2.57277
2.01496
1.66567
14.6063
14.9326
13.9347
12.1235
9.99227
7.94816
6.22102
4.84083
3.74879
2.90403
2.36865
11.1396
12.2476
12.3469
11.8091
10.599
8.99276
7.38358
5.91958
4.65441
3.63256
2.98119
8.41641
9.75023
10.2021
10.2931
9.85438
8.94881
7.71482
6.40881
5.16175
4.10371
3.38051
6.29528
7.55951
8.08119
8.52938
8.58689
8.20397
7.39357
6.40044
5.33519
4.3573
3.63955
4.64677
5.75788
6.19502
6.76947
7.07636
7.06682
6.68771
6.0311
5.20041
4.35969
3.72639
3.3832
4.33254
4.61985
5.22128
5.58852
5.76841
5.67494
5.31188
4.73954
4.08458
3.54337
2.31977
3.19804
3.29743
3.92842
4.26997
4.52422
4.58467
4.42817
4.07336
3.59544
3.13739
1.39605
2.11903
2.3152
2.78253
3.12161
3.40707
3.54949
3.52677
3.33607
3.01685
2.67123
0.573333
1.12749
1.38401
1.79937
2.12326
2.41582
2.60438
2.66924
2.5968
2.40045
2.15512
-0.126759
0.335606
0.559848
0.933934
1.2402
1.53124
1.74804
1.87411
1.89121
1.79415
1.63413
-0.792289
-0.374742
-0.175771
0.163489
0.451133
0.737229
0.972422
1.14438
1.23486
1.23682
1.19047
-1.4431
-1.03766
-0.850032
-0.534039
-0.26224
0.0178688
0.265666
0.472878
0.621777
0.698606
0.739768
-1.9634
-1.61268
-1.45654
-1.16782
-0.913789
-0.640946
-0.384438
-0.148956
0.0497159
0.194936
0.314035
-2.4504
-2.14353
-2.01428
-1.75215
-1.5158
-1.25097
-0.987223
-0.726905
-0.484616
-0.280451
-0.095045
-2.93284
-2.65581
-2.54217
-2.3027
-2.08032
-1.82132
-1.54828
-1.26343
-0.981902
-0.72608
-0.480162
-3.375
-3.13739
-3.04307
-2.82898
-2.61802
-2.36051
-2.07153
-1.75618
-1.4345
-1.13827
-0.870789
-3.78813
-3.59855
-3.52752
-3.3414
-3.13795
-2.87282
-2.55467
-2.19571
-1.82514
-1.48168
-1.19093
-4.19817
-4.06207
-4.01525
-3.85457
-3.64742
-3.35536
-2.98566
-2.56378
-2.13272
-1.73739
-1.41693
-4.61747
-4.54507
-4.52444
-4.37804
-4.14241
-3.79027
-3.33876
-2.83424
-2.33522
-1.89049
-1.53411
-5.057
-5.06337
-5.0568
-4.89001
-4.58152
-4.12724
-3.56733
-2.97199
-2.41006
-1.93008
-1.56115
-5.65482
-5.66317
-5.61816
-5.35985
-4.92107
-4.33235
-3.65928
-2.98602
-2.37681
-1.87435
-1.50134
-5.75927
-5.89266
-5.638
-5.22167
-4.67855
-4.02056
-3.32577
-2.66476
-2.07354
-1.59979
-1.27514
-2.84726
-4.09084
-3.50183
-1.46855
0.739281
1.92384
2.32001
2.04431
0.347438
-2.07829
-2.93654
-2.39589
-0.996487
0.714
1.65558
2.00392
1.77506
0.383825
-1.89881
-2.59001
-2.23671
-0.845463
0.600481
1.38908
1.69809
1.51747
0.34426
-1.71213
-2.19095
-1.7525
-0.726401
0.460038
1.15439
1.42369
1.29129
0.261933
-1.58385
-1.12372
-1.0513
-1.30378
-1.61733
-2.50883
-3.65242
-3.51781
-2.02999
-1.45152
-1.14916
-1.0979
-1.30087
-1.46399
-1.92362
-2.65977
-2.4352
-1.3036
-1.33571
-1.13442
-1.08094
-1.22953
-1.32004
-1.75412
-2.3731
-2.20559
-1.11646
-1.21936
-1.08923
-1.0206
-1.12101
-1.1408
-1.53679
-2.00029
-1.78048
-0.900178
1.32431
1.21733
1.20955
-0.0212244
-0.0985602
1.0037
-0.978941
0.921307
0.994541
1.76621
-0.101577
0.925008
0.0400858
0.0111181
1.32308
0.705893
-0.0119483
-0.0197296
0.704058
1.38018
0.63812
-0.404002
0.790363
-0.0260413
1.25559
0.0119958
0.0468654
-0.910972
-0.286593
-0.0524435
-0.0116513
1.02837
0.00270477
0.75941
1.08012
1.20616
-0.0259485
1.25115
0.00245368
0.886739
-0.0178892
0.763005
-0.00222985
0.793133
-0.246832
-0.943357
0.00324598
-1.5611
1.41048
0.8467
-0.0501638
0.893011
-0.000219825
-0.00226214
0.838523
0.634216
-0.340068
0.881868
-0.23365
-0.00438702
0.587428
-0.000169897
-0.102851
-0.0653014
-0.25892
1.37367
-0.028364
0.804956
1.20383
1.73752
-0.0248572
1.63917
-0.0198517
1.56017
-0.0121886
1.547
-0.257375
0.771702
-0.16759
-0.554731
-0.00822143
-0.0636781
1.32427
1.32001
0.39308
-0.0186687
-0.606332
0.000125601
-0.122692
-0.0147645
1.18085
0.880568
-0.105975
1.2239
-0.549837
-1.91986
-0.00952802
-0.0522409
-0.102065
1.64201
0.658153
-1.53085
1.51643
0.619673
-0.0671519
1.10829
-0.00149788
1.32205
-0.00505505
0.595027
0.796101
0.761419
1.34243
-0.0312234
-0.00971489
1.32864
0.865186
0.738912
0.945076
1.3923
-0.0352255
1.64426
0.453338
-0.0146151
-0.900856
-0.0988509
-0.00109952
-0.00127574
-0.000599866
-0.00425632
0.836511
-0.0044928
-1.4747
1.57929
1.15251
0.315023
-0.189747
-0.0636213
-0.0561217
1.57524
-0.00188842
0.644892
-0.320621
1.18276
0.855029
-0.00456821
0.12151
0.805835
1.83436
0.730806
0.753147
1.04816
-0.00939838
1.58999
-0.0269207
0.00145855
-0.0132627
-0.145488
-0.0147783
1.35058
-0.0292572
-0.049625
1.59918
1.32954
-0.028034
-0.0156917
-0.147687
0.876311
-0.0711467
-0.31346
0.0033569
-0.00368988
-0.0529749
0.559368
1.04854
0.959235
-0.000485792
-0.0124034
-0.283181
0.982374
0.806966
-0.32581
1.17032
-0.106583
1.03503
-0.0418484
0.738265
0.730369
1.28191
-0.162631
-0.00642852
0.0191078
1.33865
-0.0282649
1.19626
1.32872
1.02161
-0.0836016
-0.0044405
1.32546
-0.00564383
0.878231
-0.0128082
-0.0168939
1.15869
0.000321557
1.20038
-0.00025382
0.891293
1.33231
-0.0127247
0.730196
0.488428
1.15674
0.773209
-0.00373144
1.18161
0.000202337
0.757228
0.01849
0.000483384
-0.0298217
-0.0102144
-0.0098227
-0.0127889
0.855872
-0.100978
-0.0122558
-0.00485473
-0.0853678
-0.162759
1.33849
0.750719
1.73306
-0.00912956
-1.09015
-0.0173238
1.17504
0.855915
0.85754
0.000122014
-0.0311396
0.580277
-0.062956
0.901104
-0.0474422
0.754903
-0.024443
-1.33243
-0.00700727
-0.0235404
-0.0133719
1.06722
1.3855
0.232223
1.01619
0.659073
1.25267
0.00667148
0.72952
9.88589e-05
0.159139
1.32665
0.781791
0.794696
0.00577839
0.642498
0.655865
0.0282411
0.0732847
-0.128645
0.786926
0.892981
0.00453003
1.24521
0.737546
-0.018686
1.16189
1.50426
-0.0629545
1.66241
0.981771
-0.00861222
-0.0175884
0.252061
1.28049
-0.356663
0.883593
1.40219
-0.00113829
0.84234
-0.695741
0.869358
0.00606023
1.1994
0.892666
-0.0684554
0.797818
1.1361
-0.0210649
0.97999
-0.0472369
1.34308
-0.05432
0.665105
0.571479
0.77925
-0.00129574
-0.307652
0.788982
-1.00288
1.10236
0.495849
0.00273752
-0.34483
1.37127
0.0432266
-0.0949927
1.32595
1.30971
0.737885
-0.00528589
0.732252
-0.0317632
-0.0893958
0.766089
0.757444
0.0571628
1.33413
-0.0061262
0.626551
-0.10947
-0.18716
1.06419
0.029949
-1.3128
-0.0143442
0.782432
1.16022
-0.0393828
0.0118207
-0.0144263
0.879347
-0.0223377
-0.123679
-0.00161532
-0.00626443
0.746177
-0.0293575
-0.00237533
-1.36686
-0.0566182
0.093199
0.671442
-0.00941729
1.32612
0.000363031
1.13798
0.786432
-0.00634978
0.0755161
0.0132073
1.18119
1.32262
1.30571
-0.136678
-0.0043295
0.00242179
-1.30308
0.564288
1.17446
-0.137308
-1.36148
0.00569852
0.014535
0.837932
0.207879
1.04764
1.29394
0.734142
-0.0127717
1.33119
-0.00698078
0.848653
0.0183137
-0.0204572
-0.039595
-0.0128751
-0.0294753
-0.184503
1.05243
-0.612258
-0.00503689
2.14121
-0.0212167
-0.197251
0.775484
0.749861
0.978722
-0.00318924
0.00757319
1.33048
1.06132
-0.000764744
-0.000184129
-0.109316
-0.220842
-0.00568103
0.868196
-0.00473618
0.80037
0.700283
-0.0130095
-0.012359
-0.0115677
0.445316
-0.00710315
1.63262
0.00203814
-0.419697
-0.0923363
0.00199991
-1.17011
-0.00132943
0.945795
0.603409
1.55927
-0.00261175
-0.0467208
-0.387344
0.748597
-0.00446681
0.0303143
1.3029
0.0617498
0.0007261
-0.0474545
-0.0571158
-0.0151072
0.747625
0.408225
-0.648699
-0.0133861
-0.0419119
0.704664
0.000759524
-0.00280281
-0.104164
1.36089
-0.0466057
1.04534
1.32005
1.17333
-0.298203
0.102791
-1.40458
0.00376314
-0.0179175
0.000608203
1.30337
1.36396
-0.00148215
0.00702108
0.208621
0.71869
-0.00308515
0.00437714
1.32377
0.737662
0.650795
0.928434
-0.0418154
0.713879
0.547379
0.733952
0.841671
0.786402
1.32225
-0.0481349
0.741367
1.32897
0.650734
-0.0684325
-0.275238
0.78469
0.000808208
-0.109905
1.20148
0.00113571
1.3536
-0.0215607
1.32698
0.705208
0.851256
-0.000579969
-0.0150629
1.34806
0.0327944
0.452907
0.667268
0.0771454
0.0545611
1.0286
1.32073
-1.20428
0.000242419
-0.0280456
0.609285
-1.42521
0.746241
-0.0311604
-0.0134928
-0.183417
-0.0161809
0.680065
-0.0209936
-0.00149239
0.0311228
0.747346
-0.00444869
1.31684
0.988877
1.20853
0.838089
0.74479
-0.0132992
0.919084
1.3512
-0.0493499
0.983885
-0.751392
0.23619
-0.000399621
-0.0246996
-0.134432
1.24679
1.21018
0.985802
-0.0417244
-0.0516241
0.752872
1.31295
-0.0143134
1.05241
-0.0121131
1.05215
-0.00306421
1.47063
-0.203892
0.00422846
0.00176589
-1.22023
-0.0306883
0.665648
0.63017
1.80535
0.827292
0.000546784
-0.0889689
1.32054
-0.0124972
-0.221416
-2.15125
1.23797
1.02658
1.107
-0.00306569
-0.0168996
-0.00283995
1.06321
0.822963
-0.0165087
1.24952
0.0088623
-0.00214785
-0.00411013
-0.141928
0.788557
0.0019081
1.21774
-0.000324083
1.16874
-0.0113762
-0.000586797
1.10347
-0.415535
-0.0141068
0.930866
0.770255
-0.576133
1.33727
-0.024169
-0.0322591
-0.00223329
-0.00401815
0.0243407
0.0357807
1.64991
0.918876
1.02857
-1.80229
0.00750765
0.0155718
1.36725
1.23006
-0.209873
0.725704
1.20088
0.760519
1.71557
0.0132018
0.00520108
-0.00201405
0.0413513
0.350939
1.09731
1.38476
-0.028614
1.58135
0.981749
-1.41248
-0.014253
0.726992
1.33888
-0.185308
1.50507
1.3667
0.446587
1.11003
0.728524
0.0202577
0.00603733
0.12951
0.00143098
0.00224125
-0.270648
-0.00343292
0.367694
-0.0377606
0.0781193
-0.148317
-0.0125429
-0.0186343
0.74753
0.70098
-0.0923955
0.324751
0.711694
0.699392
0.0324826
-0.00168122
-1.32413
0.145295
0.311001
0.758911
0.988147
1.24748
0.75043
1.63368
0.0261251
1.63687
0.561792
0.693404
0.823613
-0.0297198
-0.00451793
-0.0902353
1.60544
0.702733
1.13609
-0.000372684
1.31181
-0.344389
1.42959
-0.0156437
-0.00119064
0.775692
0.00043629
1.29874
0.0034396
-0.0387988
0.0122416
-1.49715
-0.0183681
0.431438
1.32229
-0.00171423
0.00759711
-0.306432
-0.00229314
0.740422
0.470859
1.32068
0.0651154
0.706222
0.00374261
1.07194
0.927084
1.28404
0.0460278
0.000453245
1.24293
0.000569994
1.16472
-0.0110479
-0.0157167
0.585563
-0.0345296
-0.134772
0.00475651
0.296959
-0.056314
0.0357289
-0.0293158
0.00283715
-1.0922
0.748158
0.0168339
0.830601
0.623247
-0.97892
-0.0350407
-0.0292164
0.0108549
1.24689
0.724451
1.37648
-0.000942431
1.30043
-0.000486478
-0.000472585
-0.0032948
0.641698
0.168562
-0.00263486
-0.00416793
1.84303
0.0273769
-0.0418209
-0.0793643
0.804842
0.0140972
-0.235651
1.19411
-0.856569
0.00238079
1.39274
-0.0148819
0.827603
0.667684
1.58766
0.00315826
1.71118
0.00622279
1.12172
0.00383821
1.74323
0.00621409
0.000508325
-0.0148005
-0.00287543
0.725122
-0.0487211
-1.22363
1.32616
0.00513397
0.229784
0.000161267
1.01882
-0.159881
0.892732
-0.00927511
0.00440731
1.01007
0.741636
0.358579
0.756961
-0.00681205
-0.0841271
1.20601
0.93664
0.686609
-0.116535
-0.00726999
0.0327593
0.917375
0.0176502
0.799951
0.756637
1.28026
1.08766
0.827459
0.871635
0.000958021
-0.552807
-0.122036
-0.00458092
0.0217556
1.28363
0.864014
0.122291
-0.0210224
1.17208
0.104532
0.0305452
-1.38963
-0.0175508
0.243289
0.818229
-0.00924244
1.2881
0.8377
-0.871173
1.32146
0.924345
0.669917
-0.00027934
0.381916
0.409083
1.19926
0.0935493
-0.176305
-0.0173304
0.91102
-0.00234242
-2.64249e-05
-0.000175713
-0.010917
1.314
0.736976
-0.0193072
0.00636338
0.000394677
1.3209
0.701804
1.3277
1.16619
0.901405
-0.00621042
-0.0308157
-0.780121
-1.33873
-0.000649855
1.02104
-0.0757508
1.29801
1.44144
0.433118
0.859192
1.14781
0.899492
-0.0951508
-0.00121026
0.00148131
1.1549
-0.010484
1.25302
1.12087
1.04242
1.33563
0.733289
0.782129
1.15969
1.08875
-1.6712
0.754425
1.39225
0.00629988
-0.368272
0.75776
1.17204
-0.0617687
-1.71396
0.666927
0.323885
0.00761126
-0.0120114
0.827769
1.24486
0.761174
1.15683
-5.24513e-05
0.879236
-0.0475456
0.00650059
-0.00395104
0.00530516
0.797373
0.0112825
1.31892
0.779334
1.76973
0.579809
0.774178
-0.0515003
-0.803023
0.316187
-0.0283918
-0.00173331
9.63395e-05
0.308866
-0.311559
0.770579
0.798643
0.000783654
0.000465952
0.0129255
0.919591
-0.134246
1.32117
0.0230293
1.38314
0.001457
-0.0072736
-0.0543603
-0.0217918
1.42312
1.24268
-0.0127622
-0.259513
-0.000519608
0.0637992
0.0104178
0.734522
0.658688
-0.00230529
1.17477
1.15458
-0.025516
-0.37013
-0.0493498
-0.0694692
-0.00277336
0.012944
-0.00348185
-0.30786
1.32154
0.758172
-0.00148832
1.33915
1.09002
1.10848
-0.013163
0.00610368
-0.00597232
1.30649
-0.0217989
1.03183
0.88955
-0.00771558
-0.0280985
0.743361
1.15595
1.10265
0.193947
-0.0250242
-0.39222
0.532678
1.49722
-0.0447634
0.00153288
-0.184938
1.3175
-0.00464972
0.00355964
1.02171
-0.00306858
1.23869
-0.00316849
-0.0280048
0.313223
0.0275382
1.33518
1.25225
0.00691849
-0.0124307
0.711068
-0.00471554
1.18224
-1.10502
0.00014388
-1.9845
1.23006
0.00235084
-0.0363839
-0.0451804
0.00210404
-0.00800922
1.32343
-0.00115829
-0.0730663
0.775296
0.468088
-0.00679448
-0.00462403
-0.0212768
-0.033416
0.930716
1.36989
-0.184422
0.69783
-0.133931
0.0035569
1.46754e-05
-0.0186474
0.904856
0.00973971
-0.074798
0.00388169
-0.0127012
0.000593847
1.30974
0.0664563
0.00194023
1.31067
1.78206
1.14511
-0.0119173
0.638506
1.01745
0.0768379
-0.000262624
0.00586126
0.79924
-1.30044
0.0684687
0.579659
-0.0487076
0.753322
1.83064
1.53507
-1.28747
0.555016
-0.00211587
0.336435
-0.0926503
0.783265
0.649924
1.32415
1.34277
-0.0264037
-0.0132494
-0.00147416
-0.273924
-0.391676
-0.296086
1.60487
0.662053
-0.0495414
1.31269
0.00770242
-0.00130194
1.2593
0.428805
0.0985232
-0.0146607
0.695512
-0.0109157
1.31984
-0.0135098
0.814711
-1.17196
-0.0759581
1.67331
-0.458494
-0.0213515
0.735696
-0.0361729
-0.000111694
0.169518
-0.0183531
0.817679
-0.359548
-0.00341537
-0.0373017
-1.17362
-0.0243104
1.0946
-0.0541
0.808832
-0.0375785
0.0182333
-0.0402628
0.77969
0.00415247
-0.281257
1.34892
0.820642
0.815719
0.809706
0.00538883
-0.0318282
1.63167
0.0183966
-0.0625797
0.536587
-0.158618
-0.607523
0.277762
0.237985
-0.0416833
0.00491122
-0.00454882
-0.00275709
1.33201
1.29887
-0.0194098
1.34026
1.16497
-0.0383318
1.32312
0.947577
-0.0143274
1.83039
-1.50162
-0.0100791
-0.012681
1.39453
0.0894478
-0.00289046
0.0106372
-1.23585
1.32968
0.00372423
-0.00634613
0.00638713
0.000373295
0.705517
-0.00466071
1.31534
-0.0395011
-0.00451212
1.24053
1.37713
-0.00776555
0.184121
-0.0610897
-0.0593117
-0.0262561
1.44719
1.15184
1.2944
0.127835
0.00054683
0.00593734
-0.0522641
-0.34493
2.26615
0.774895
1.31715
1.08169
-0.0412958
1.3984
0.682416
-0.459904
0.199337
-1.43643
-0.0974333
0.807555
0.736845
0.00301311
-0.0709687
-0.00936744
-0.933561
-0.0261016
1.0894
0.766987
0.0120895
-0.00393641
-0.0043207
0.00951284
1.2502
0.028431
-0.00262339
-0.0108454
0.696349
-0.0415216
-0.134922
1.1785
-0.0400745
0.755453
1.86019
-0.0728848
0.00607908
-0.0350368
0.611862
1.5691
0.190469
-0.045915
-0.0310405
0.00871111
-0.0518578
-0.00149588
0.869132
-1.24184
-0.0459168
1.28875
-0.000717257
0.00170948
1.42525
-0.00709466
1.31184
1.21763
1.67578
-0.104755
1.95092e-05
0.737096
-0.00168071
1.30424
0.778067
1.3304
-0.017011
0.745557
-0.0136627
0.0818229
1.29754
-0.0750931
-0.358357
-0.0174668
-0.032573
0.0214381
0.0407373
0.00100645
0.924944
0.786596
1.11516
0.00546935
1.32425
0.750797
0.189542
-0.12891
-0.00354879
0.0056305
-0.000172703
1.34714
-0.0482332
0.0762198
0.746334
0.248138
0.723571
0.00249552
1.32301
0.00870052
0.641843
1.63653
0.988659
-0.0543959
-0.00120243
1.22383
-0.0221806
0.744747
0.00021163
-0.00273209
0.0136039
0.00560254
1.33987
1.32139
-0.0030421
0.180999
-0.0107288
-0.00117105
-0.0331367
0.00359769
1.3109
-0.497256
-0.00507938
1.45824
-0.00651928
-0.00397913
0.130919
-0.0739673
-0.0436099
-0.000676231
-0.155776
-0.290568
0.748517
0.789989
-0.00267388
-0.0126442
0.199652
0.772478
-0.0420814
1.19099
1.69729
-0.342201
1.33439
0.917257
-0.702977
-0.0361848
0.900358
1.32793
0.985774
0.706924
0.812848
1.26835
-0.115066
0.481899
0.733414
1.07903
-0.0133729
0.829678
-0.00312628
1.18095
0.69488
0.924519
0.0794535
-0.225798
-0.0168674
1.40957
0.779554
0.00731059
-0.0037833
1.30841
-0.0216005
-0.0270368
1.08749
0.199966
0.0172694
-0.0304626
-0.0409849
-0.0570293
0.909895
-0.0292908
1.04775
0.640769
1.24749
1.05568
1.29393
-0.0160293
1.25185
-0.0664518
1.16711
1.29821
-0.111144
0.793591
1.24271
-0.089201
-0.0086353
-0.0257196
1.31717
0.621878
1.05824
-0.00417789
-0.00542982
-0.022058
1.15922
0.0532125
0.0391767
0.795758
0.73642
0.580303
0.568464
-0.00108852
1.29176
0.348405
1.50071
-1.23671
0.00154715
0.0163328
-8.81445e-05
1.21505
0.254471
1.18478
0.274607
-0.0232652
1.34811
1.29868
-0.00195135
0.769951
0.704704
1.63084
0.0415474
1.24041
-0.0139522
-0.0244213
0.0152582
-0.0148986
0.73927
-0.0996609
1.47362
-0.485794
0.0112926
0.56418
-0.0074028
1.32593
0.789621
1.38459
0.721354
0.433665
0.656583
1.29514
-0.00570441
-0.103241
0.807615
0.586858
-0.569925
0.453755
1.3193
0.442531
1.62541
2.23141
-0.0237309
1.32357
-0.000165055
0.00678792
0.632013
1.1666
0.0247102
-0.0276212
1.46197
-0.00286548
1.24853
1.60916
0.0205511
0.638306
0.0131583
1.29728
1.18606
-1.1712
0.782489
0.632027
-0.354443
0.665744
0.743884
0.546914
0.64584
0.952431
0.300438
0.00620421
-0.0439754
-0.102938
0.742323
0.976877
0.0177218
-0.000474403
0.657127
0.577803
0.199086
1.30961
-0.00166152
0.918322
-0.0267541
1.02111
1.48439
0.00299681
0.0205993
-0.0177568
1.22336
1.3909
1.50212
1.32641
0.884867
-0.00334715
-0.00588513
-0.032736
0.0521014
-0.00124878
0.72326
0.811224
0.812566
-0.137982
1.83966
0.00528206
-0.934847
0.797328
-0.00598128
-0.0565976
0.679726
1.32202
0.433467
-0.0539361
-0.0248736
0.71565
-0.022538
-0.0054005
-0.0457771
-0.00272784
0.0181632
0.795237
-0.0222549
0.0656412
-0.507376
-0.0464508
0.0241001
-0.00283062
1.2789
1.66023
-0.00193993
1.22213
0.0170665
-0.0151607
0.000532666
0.0417361
-0.0222397
-0.133513
0.288049
-0.0186096
1.04529
-0.0205366
0.00435445
0.232485
0.036072
-0.0473239
1.29848
-0.177296
1.05559
-0.000839389
-1.16896
-0.0422273
-0.304856
-0.00800593
-0.00604184
1.08145
1.33827
0.780786
1.39059
1.30241
0.868546
0.670301
0.00858648
1.11151
-0.00931517
0.0103176
0.724779