/*--------------------------------*- C++ -*----------------------------------*\
| =========                 |                                                 |
| \\      /  F ield         | OpenFOAM: The Open Source CFD Toolbox           |
|  \\    /   O peration     | Version:  3.0.1                                 |
|   \\  /    A nd           | Web:      www.OpenFOAM.org                      |
|    \\/     M anipulation  |                                                 |
\*---------------------------------------------------------------------------*/
FoamFile
{
    version     2.0;
    format      ascii;
    class       surfaceScalarField;
    location    "0.0476749";
    object      phi;
}
// * * * * * * * * * * * * * * * * * * * * * * * * * * * * * * * * * * * * * //

dimensions      [0 3 -1 0 0 0 0];

internalField   nonuniform List<scalar> 
32369
(
-2.40844e-06
-2.5154e-06
4.92384e-06
-4.07264e-06
-3.04615e-06
4.71034e-06
-5.58017e-06
-3.79092e-06
5.29845e-06
-7.26184e-06
-4.6845e-06
6.36618e-06
-9.18893e-06
-5.62893e-06
7.55602e-06
-1.14009e-05
-6.54552e-06
8.75745e-06
-1.39873e-05
-7.3593e-06
9.94571e-06
-1.70722e-05
-7.95549e-06
1.10404e-05
-2.07892e-05
-8.15092e-06
1.18679e-05
-2.53021e-05
-7.64286e-06
1.21558e-05
-5.93967e-06
1.14905e-05
-3.0853e-05
-2.51974e-06
4.33649e-09
-4.56089e-06
-1.00499e-06
-6.4754e-06
-1.87641e-06
-8.41163e-06
-2.74826e-06
-1.04667e-05
-3.57384e-06
-1.27434e-05
-4.26886e-06
-1.53705e-05
-4.73217e-06
-1.85e-05
-4.82597e-06
-2.23097e-05
-4.34123e-06
-2.70161e-05
-2.93647e-06
-1.42558e-07
-3.28132e-05
-1.36025e-06
1.36458e-06
-2.9874e-06
6.22156e-07
-4.88769e-06
2.38808e-08
-6.95472e-06
-6.81235e-07
-9.20573e-06
-1.32284e-06
-1.17102e-05
-1.76435e-06
-1.45832e-05
-1.85922e-06
-1.7966e-05
-1.44322e-06
-2.20123e-05
-2.94855e-07
-2.68863e-05
1.93748e-06
5.81969e-06
-3.28485e-05
-6.53542e-07
2.01813e-06
-1.77452e-06
1.74313e-06
-3.35852e-06
1.60788e-06
-5.32697e-06
1.28722e-06
-7.62672e-06
9.76917e-07
-1.02408e-05
8.49679e-07
-1.32119e-05
1.11191e-06
-1.66546e-05
1.99946e-06
-2.07492e-05
3.79976e-06
-2.5694e-05
6.88229e-06
1.17661e-05
-3.16404e-05
-5.07752e-07
2.52588e-06
-1.3115e-06
2.54688e-06
-2.4856e-06
2.78198e-06
-4.08617e-06
2.88778e-06
-6.13722e-06
3.02797e-06
-8.6467e-06
3.35916e-06
-1.16367e-05
4.1019e-06
-1.51571e-05
5.51986e-06
-1.9297e-05
7.93969e-06
-2.41923e-05
1.17776e-05
1.76242e-05
-3.00505e-05
-4.71452e-07
2.99733e-06
-1.17285e-06
3.24827e-06
-2.17963e-06
3.78877e-06
-3.52745e-06
4.2356e-06
-5.30464e-06
4.80516e-06
-7.56698e-06
5.6215e-06
-1.03552e-05
6.89007e-06
-1.37162e-05
8.88089e-06
-1.77171e-05
1.19406e-05
-2.24592e-05
1.65198e-05
2.32752e-05
-2.81102e-05
-3.84985e-07
3.38232e-06
-1.10181e-06
3.9651e-06
-1.97407e-06
4.66103e-06
-3.15861e-06
5.42014e-06
-4.72915e-06
6.3757e-06
-6.75929e-06
7.65164e-06
-9.31346e-06
9.44424e-06
-1.24521e-05
1.20195e-05
-1.62436e-05
1.57321e-05
-2.0763e-05
2.10391e-05
2.8611e-05
-2.60988e-05
-4.51759e-07
3.83408e-06
-1.05224e-06
4.56558e-06
-1.86011e-06
5.4689e-06
-2.93691e-06
6.49694e-06
-4.3548e-06
7.79359e-06
-6.19213e-06
9.48897e-06
-8.52506e-06
1.17772e-05
-1.14263e-05
1.49207e-05
-1.49736e-05
1.92794e-05
-1.92467e-05
2.53122e-05
3.37327e-05
-2.43684e-05
-4.21371e-07
4.25545e-06
-1.01032e-06
5.15453e-06
-1.76833e-06
6.22691e-06
-2.76476e-06
7.49337e-06
-4.06557e-06
9.0944e-06
-5.74916e-06
1.11726e-05
-7.89541e-06
1.39234e-05
-1.05864e-05
1.76118e-05
-1.39034e-05
2.25963e-05
-1.79631e-05
2.9372e-05
3.86664e-05
-2.28969e-05
-3.59295e-07
4.61474e-06
-8.95585e-07
5.69082e-06
-1.59986e-06
6.93118e-06
-2.52605e-06
8.41956e-06
-3.73336e-06
1.03017e-05
-5.29501e-06
1.27342e-05
-7.29252e-06
1.59209e-05
-9.80932e-06
2.01286e-05
-1.29456e-05
2.57326e-05
-1.6811e-05
3.32374e-05
4.33594e-05
-2.1504e-05
-3.05646e-07
4.92039e-06
-7.93053e-07
6.17823e-06
-1.44199e-06
7.58012e-06
-2.29894e-06
9.27651e-06
-3.42109e-06
1.14239e-05
-4.87643e-06
1.41896e-05
-6.74131e-06
1.77858e-05
-9.10347e-06
2.24907e-05
-1.20624e-05
2.86915e-05
-1.57361e-05
3.69111e-05
4.78309e-05
-2.02076e-05
-3.07299e-07
5.22769e-06
-7.71063e-07
6.64199e-06
-1.37579e-06
8.18485e-06
-2.17112e-06
1.00718e-05
-3.20982e-06
1.24626e-05
-4.55921e-06
1.55389e-05
-6.29457e-06
1.95212e-05
-8.50088e-06
2.4697e-05
-1.1281e-05
3.14716e-05
-1.475e-05
4.03801e-05
5.21257e-05
-1.90448e-05
-2.85512e-07
5.5132e-06
-7.09254e-07
7.06573e-06
-1.26343e-06
8.73902e-06
-1.99257e-06
1.0801e-05
-2.94934e-06
1.34193e-05
-4.19619e-06
1.67858e-05
-5.8088e-06
2.11338e-05
-7.87428e-06
2.67625e-05
-1.04822e-05
3.40796e-05
-1.37589e-05
4.36568e-05
5.62335e-05
-1.78666e-05
-2.01431e-07
5.71463e-06
-5.53365e-07
7.41767e-06
-1.0365e-06
9.22216e-06
-1.68808e-06
1.14526e-05
-2.55575e-06
1.4287e-05
-3.69707e-06
1.79271e-05
-5.18101e-06
2.26177e-05
-7.09271e-06
2.86742e-05
-9.52475e-06
3.65116e-05
-1.2581e-05
4.6713e-05
6.00509e-05
-1.63984e-05
-1.85623e-07
5.90025e-06
-4.87308e-07
7.71935e-06
-8.98096e-07
9.63294e-06
-1.46217e-06
1.20166e-05
-2.22027e-06
1.50451e-05
-3.22915e-06
1.8936e-05
-4.55952e-06
2.39481e-05
-6.28296e-06
3.03976e-05
-8.48434e-06
3.8713e-05
-1.12766e-05
4.95053e-05
6.35169e-05
-1.47426e-05
-1.45943e-07
6.0462e-06
-3.78248e-07
7.95166e-06
-7.01658e-07
9.95635e-06
-1.15331e-06
1.24683e-05
-1.78122e-06
1.5673e-05
-2.63553e-06
1.97903e-05
-3.77843e-06
2.5091e-05
-5.27936e-06
3.18986e-05
-7.21277e-06
4.06464e-05
-9.63476e-06
5.19273e-05
6.65289e-05
-1.26467e-05
-4.38206e-08
6.09002e-06
-1.59847e-07
8.06769e-06
-3.58352e-07
1.01549e-05
-6.71406e-07
1.27813e-05
-1.13334e-06
1.6135e-05
-1.79827e-06
2.04552e-05
-2.71868e-06
2.60114e-05
-3.94881e-06
3.31287e-05
-5.53179e-06
4.22294e-05
-7.51617e-06
5.39117e-05
6.89888e-05
-9.97608e-06
3.31554e-08
6.05686e-06
3.89713e-08
8.06187e-06
-1.05016e-08
1.02043e-05
-1.45518e-07
1.29164e-05
-4.00127e-07
1.63896e-05
-8.19383e-07
2.08745e-05
-1.44549e-06
2.66375e-05
-2.3174e-06
3.40006e-05
-3.45445e-06
4.33664e-05
-4.86785e-06
5.53251e-05
7.06565e-05
-6.53554e-06
1.31472e-07
5.92539e-06
2.91808e-07
7.90153e-06
4.28652e-07
1.00675e-05
5.1662e-07
1.28284e-05
5.28234e-07
1.6378e-05
4.27304e-07
2.09754e-05
1.81264e-07
2.68835e-05
-2.24088e-07
3.4406e-05
-7.61375e-07
4.39037e-05
-1.38217e-06
5.59459e-05
7.1353e-05
-2.0787e-06
2.59959e-07
5.66543e-06
6.13781e-07
7.54771e-06
9.76245e-07
9.70502e-06
1.34135e-06
1.24633e-05
1.68708e-06
1.60322e-05
1.98839e-06
2.06741e-05
2.23229e-06
2.66396e-05
2.44968e-06
3.41886e-05
2.7056e-06
4.36478e-05
3.10589e-06
5.55456e-05
7.06932e-05
3.76567e-06
4.15669e-07
5.24976e-06
9.83187e-07
6.98019e-06
1.6168e-06
9.07141e-06
2.32548e-06
1.17546e-05
3.08862e-06
1.52691e-05
3.89635e-06
1.98664e-05
4.77298e-06
2.5763e-05
5.79308e-06
3.31685e-05
7.07557e-06
4.23653e-05
8.78762e-06
5.38335e-05
6.83624e-05
1.11184e-05
4.97576e-07
4.75218e-06
1.29885e-06
6.17892e-06
2.28664e-06
8.08362e-06
3.41666e-06
1.06246e-05
4.68005e-06
1.40057e-05
6.10979e-06
1.84367e-05
7.77852e-06
2.40942e-05
9.8077e-06
3.11393e-05
1.23769e-05
3.97961e-05
1.57062e-05
5.05042e-05
6.40022e-05
2.00665e-05
6.42423e-07
4.10976e-06
1.82551e-06
4.99583e-06
3.0562e-06
6.85293e-06
4.56039e-06
9.12039e-06
6.34387e-06
1.22222e-05
8.47439e-06
1.63061e-05
1.10747e-05
2.14939e-05
1.43183e-05
2.78957e-05
1.84033e-05
3.57111e-05
2.35849e-05
4.53226e-05
5.74154e-05
3.01716e-05
-2.27459e-07
4.33722e-06
1.14544e-06
3.62293e-06
2.8411e-06
5.15728e-06
4.84898e-06
7.1125e-06
7.29864e-06
9.77255e-06
1.03173e-05
1.32875e-05
1.40784e-05
1.77329e-05
1.87542e-05
2.32198e-05
2.45629e-05
2.99024e-05
3.17965e-05
3.8089e-05
4.83664e-05
4.08455e-05
2.66322e-06
2.26062e-06
3.90088e-06
3.47269e-06
3.89896e-06
5.30037e-06
3.04549e-06
7.21964e-06
1.39542e-06
9.20609e-06
-1.10468e-06
1.12576e-05
-4.41699e-06
1.3258e-05
-8.44875e-06
1.50722e-05
-1.32142e-05
1.66333e-05
-1.88427e-05
1.77843e-05
1.80282e-05
-2.53804e-05
3.06185e-06
-8.01227e-07
5.52625e-06
1.00829e-06
7.18776e-06
3.63885e-06
8.05021e-06
6.3572e-06
7.96027e-06
9.29603e-06
6.73619e-06
1.24816e-05
4.21401e-06
1.57802e-05
3.0775e-07
1.89785e-05
-4.85591e-06
2.1797e-05
-1.10479e-05
2.39763e-05
2.54097e-05
-1.84294e-05
1.32199e-06
-2.12321e-06
3.89573e-06
-1.56545e-06
6.95391e-06
5.8067e-07
9.33917e-06
3.97194e-06
1.08512e-05
7.784e-06
1.1288e-05
1.20449e-05
1.03576e-05
1.67105e-05
7.80386e-06
2.15322e-05
3.46668e-06
2.61341e-05
-2.57152e-06
3.00145e-05
3.28001e-05
-9.96199e-06
8.18076e-07
-2.94129e-06
2.35866e-06
-3.10603e-06
5.25076e-06
-2.31144e-06
8.89275e-06
3.29952e-07
1.20435e-05
4.63328e-06
1.42472e-05
9.84113e-06
1.51681e-05
1.57896e-05
1.44266e-05
2.22737e-05
1.16745e-05
2.88862e-05
6.71538e-06
3.49737e-05
3.98895e-05
-3.73965e-07
1.15272e-06
-4.09401e-06
2.41019e-06
-4.3635e-06
4.37553e-06
-4.27678e-06
7.73294e-06
-3.02746e-06
1.19655e-05
4.00767e-07
1.58304e-05
5.97623e-06
1.86674e-05
1.29526e-05
1.99446e-05
2.09965e-05
1.91935e-05
2.96373e-05
1.60058e-05
3.81614e-05
4.56303e-05
1.0265e-05
1.25916e-06
-5.35317e-06
2.70651e-06
-5.81085e-06
4.57687e-06
-6.14713e-06
7.20119e-06
-5.65179e-06
1.12712e-05
-3.66924e-06
1.6219e-05
1.02846e-06
2.07511e-05
8.42049e-06
2.40688e-05
1.76788e-05
2.54919e-05
2.82141e-05
2.44722e-05
3.91811e-05
4.95096e-05
2.05929e-05
1.16202e-06
-6.51519e-06
2.63108e-06
-7.27991e-06
4.5433e-06
-8.05935e-06
7.04534e-06
-8.15383e-06
1.05472e-05
-7.1711e-06
1.56182e-05
-4.04253e-06
2.13988e-05
2.63985e-06
2.65137e-05
1.2564e-05
3.00843e-05
2.46436e-05
3.13772e-05
3.78881e-05
5.0889e-05
2.99978e-05
1.01307e-06
-7.52826e-06
2.36924e-06
-8.63608e-06
4.14368e-06
-9.83379e-06
6.4871e-06
-1.04973e-05
9.68243e-06
-1.03664e-05
1.42607e-05
-8.62075e-06
2.05369e-05
-3.6364e-06
2.70607e-05
6.04017e-06
3.25386e-05
1.91657e-05
3.60689e-05
3.43579e-05
4.99731e-05
3.69848e-05
8.23782e-07
-8.35204e-06
1.95995e-06
-9.77225e-06
3.44383e-06
-1.13177e-05
5.44643e-06
-1.24999e-05
8.22973e-06
-1.31497e-05
1.21927e-05
-1.25837e-05
1.80726e-05
-9.51627e-06
2.55636e-05
-1.45089e-06
3.25171e-05
1.22122e-05
3.81144e-05
2.87607e-05
4.60194e-05
4.2068e-05
5.84997e-07
-8.93704e-06
1.42764e-06
-1.06149e-05
2.52263e-06
-1.24127e-05
4.03026e-06
-1.40075e-05
6.19099e-06
-1.53105e-05
9.37639e-06
-1.57691e-05
1.41712e-05
-1.43111e-05
2.14133e-05
-8.69292e-06
2.94894e-05
4.13602e-06
3.64655e-05
2.17845e-05
4.06697e-05
4.18152e-05
2.62125e-07
-9.19916e-06
7.94768e-07
-1.11475e-05
1.36479e-06
-1.29827e-05
2.24865e-06
-1.48914e-05
3.61164e-06
-1.66734e-05
5.76823e-06
-1.79257e-05
9.31772e-06
-1.78606e-05
1.53114e-05
-1.46866e-05
2.36252e-05
-4.1778e-06
3.15421e-05
1.38677e-05
3.31061e-05
3.91057e-05
1.61532e-09
-9.20078e-06
3.94667e-08
-1.11854e-05
1.18186e-07
-1.30614e-05
3.14335e-07
-1.50875e-05
7.43224e-07
-1.71023e-05
1.63396e-06
-1.88165e-05
3.44594e-06
-1.96726e-05
7.16617e-06
-1.84068e-05
1.42469e-05
-1.12585e-05
2.30093e-05
5.1053e-06
2.37429e-05
3.23725e-05
-3.23153e-07
-8.87763e-06
-7.46044e-07
-1.07625e-05
-1.25204e-06
-1.25554e-05
-1.81923e-06
-1.45203e-05
-2.38168e-06
-1.65399e-05
-2.81232e-06
-1.83858e-05
-2.83131e-06
-1.96536e-05
-1.72647e-06
-1.95117e-05
2.84502e-06
-1.583e-05
1.16554e-05
-3.70506e-06
1.56993e-05
1.96989e-05
-7.33377e-07
-8.14425e-06
-1.66716e-06
-9.82871e-06
-2.81882e-06
-1.14037e-05
-4.20105e-06
-1.31381e-05
-5.79332e-06
-1.49476e-05
-7.51925e-06
-1.66599e-05
-9.18379e-06
-1.7989e-05
-1.03376e-05
-1.83579e-05
-9.71414e-06
-1.64534e-05
-3.46676e-06
-9.95244e-06
5.38236e-06
6.85022e-06
-1.10165e-06
-7.0426e-06
-2.55348e-06
-8.37689e-06
-4.37613e-06
-9.58108e-06
-6.6049e-06
-1.09093e-05
-9.24726e-06
-1.23053e-05
-1.2246e-05
-1.36612e-05
-1.54047e-05
-1.48303e-05
-1.82335e-05
-1.55291e-05
-1.95377e-05
-1.51492e-05
-1.70983e-05
-1.23919e-05
-4.05257e-06
-7.66335e-06
-1.49512e-06
-5.54747e-06
-3.46745e-06
-6.40456e-06
-5.94857e-06
-7.09996e-06
-8.9864e-06
-7.87148e-06
-1.25996e-05
-8.69209e-06
-1.67324e-05
-9.52841e-06
-2.11851e-05
-1.03776e-05
-2.54783e-05
-1.12359e-05
-2.86815e-05
-1.1946e-05
-2.9169e-05
-1.19044e-05
-1.02129e-05
-2.30088e-05
-1.92702e-06
-3.62045e-06
-4.39669e-06
-3.93489e-06
-7.46066e-06
-4.036e-06
-1.11684e-05
-4.16376e-06
-1.55241e-05
-4.33637e-06
-2.04647e-05
-4.58778e-06
-2.58039e-05
-5.03843e-06
-3.11304e-05
-5.90935e-06
-3.56301e-05
-7.44631e-06
-3.78663e-05
-9.66812e-06
-1.18819e-05
-3.61973e-05
-2.30181e-06
-1.31864e-06
-5.14175e-06
-1.09495e-06
-8.56718e-06
-6.10567e-07
-1.25922e-05
-1.38776e-07
-1.71609e-05
2.3236e-07
-2.21738e-05
4.25074e-07
-2.74444e-05
2.32209e-07
-3.25284e-05
-8.25388e-07
-3.66593e-05
-3.31535e-06
-3.90393e-05
-7.28813e-06
-1.19637e-05
-3.89575e-05
-2.32256e-06
1.00392e-06
-4.78025e-06
1.36274e-06
-7.56366e-06
2.17284e-06
-1.07611e-05
3.05865e-06
-1.4399e-05
3.87027e-06
-1.8423e-05
4.44912e-06
-2.26182e-05
4.42736e-06
-2.61885e-05
2.74495e-06
-2.77058e-05
-1.79805e-06
-2.69513e-05
-8.04268e-06
-1.4623e-05
-2.42919e-05
-1.51267e-06
2.51659e-06
-2.98731e-06
2.83739e-06
-4.62088e-06
3.80641e-06
-6.42639e-06
4.86416e-06
-8.36814e-06
5.81203e-06
-1.03136e-05
6.39462e-06
-1.19748e-05
6.08856e-06
-1.14109e-05
2.18103e-06
-7.78477e-06
-5.4242e-06
-2.30311e-06
-1.35243e-05
-2.04331e-05
3.50695e-06
-6.63902e-07
3.18049e-06
-1.16447e-06
3.33796e-06
-1.64377e-06
4.28571e-06
-1.90705e-06
5.12744e-06
-1.70057e-06
5.60554e-06
-4.76211e-07
5.17027e-06
3.32299e-06
2.28935e-06
1.03853e-05
-4.8813e-06
1.76146e-05
-1.26535e-05
2.48185e-05
-2.07282e-05
-2.8562e-05
3.29474e-05
-4.63485e-08
3.22684e-06
3.77284e-07
2.91433e-06
1.29274e-06
3.37025e-06
3.22124e-06
3.19894e-06
6.80277e-06
2.02401e-06
1.28811e-05
-9.08054e-07
2.11665e-05
-5.99604e-06
2.89117e-05
-1.26265e-05
3.62033e-05
-1.9945e-05
4.37072e-05
-2.82321e-05
-3.79457e-05
5.30909e-05
1.20392e-06
2.02292e-06
3.23998e-06
8.7827e-07
6.82564e-06
-2.15414e-07
1.20434e-05
-2.01879e-06
1.87035e-05
-4.63607e-06
2.60656e-05
-8.27019e-06
3.30057e-05
-1.29361e-05
3.9163e-05
-1.87839e-05
4.49624e-05
-2.57444e-05
5.07661e-05
-3.40358e-05
-4.42021e-05
5.70225e-05
6.36014e-06
1.08613e-05
1.58032e-05
2.08969e-05
2.60334e-05
3.10507e-05
3.58474e-05
4.02834e-05
4.44414e-05
4.84945e-05
5.26588e-05
-1.31072e-05
6.80544e-06
6.30173e-06
-2.40978e-05
5.62981e-06
5.36082e-06
-3.37505e-05
4.99589e-06
4.65681e-06
-4.22298e-05
4.664e-06
3.81528e-06
-5.0241e-05
4.9605e-06
3.05075e-06
-5.84331e-05
5.96045e-06
2.23162e-06
-6.73787e-05
7.73327e-06
1.21231e-06
-7.75307e-05
1.03303e-05
-1.78251e-07
-8.92967e-05
1.39088e-05
-2.1429e-06
-0.000103118
1.87666e-05
-4.94549e-06
2.53525e-05
-8.93401e-06
-0.000119536
-5.1572e-06
1.19626e-05
-1.09155e-05
1.13881e-05
-1.85007e-05
1.2581e-05
-2.67491e-05
1.29124e-05
-3.55275e-05
1.37389e-05
-4.4797e-05
1.52299e-05
-5.48826e-05
1.78189e-05
-6.61936e-05
2.16414e-05
-7.92414e-05
2.69566e-05
-9.45637e-05
3.40889e-05
4.35258e-05
-0.000112737
-2.05748e-06
1.40201e-05
-5.27145e-06
1.46021e-05
-1.05755e-05
1.78851e-05
-1.72372e-05
1.95741e-05
-2.52246e-05
2.17264e-05
-3.42639e-05
2.42692e-05
-4.43965e-05
2.79514e-05
-5.58498e-05
3.30947e-05
-6.8998e-05
4.01048e-05
-8.43469e-05
4.94378e-05
6.1722e-05
-0.000102543
-1.25541e-06
1.52755e-05
-3.75785e-06
1.71046e-05
-7.55531e-06
2.16825e-05
-1.24552e-05
2.44739e-05
-1.89111e-05
2.81823e-05
-2.67749e-05
3.2133e-05
-3.60034e-05
3.71799e-05
-4.6652e-05
4.37433e-05
-5.89528e-05
5.24057e-05
-7.3273e-05
6.37579e-05
7.85144e-05
-9.00654e-05
-1.06655e-06
1.63421e-05
-3.29328e-06
1.93313e-05
-6.12874e-06
2.4518e-05
-9.88702e-06
2.82322e-05
-1.49838e-05
3.32791e-05
-2.14314e-05
3.85805e-05
-2.93053e-05
4.50539e-05
-3.86615e-05
5.30995e-05
-4.96469e-05
6.3391e-05
-6.25288e-05
7.66399e-05
9.37317e-05
-7.77461e-05
-7.70301e-07
1.71124e-05
-2.79043e-06
2.13514e-05
-4.951e-06
2.66786e-05
-8.04691e-06
3.13281e-05
-1.20826e-05
3.73148e-05
-1.72727e-05
4.37707e-05
-2.37903e-05
5.15714e-05
-3.17368e-05
6.1046e-05
-4.12503e-05
7.29045e-05
-5.25303e-05
8.79198e-05
0.000107099
-6.5898e-05
-6.15519e-07
1.77279e-05
-2.23661e-06
2.29725e-05
-4.07835e-06
2.85203e-05
-6.59316e-06
3.38429e-05
-9.80686e-06
4.05285e-05
-1.39926e-05
4.79565e-05
-1.93204e-05
5.68992e-05
-2.59322e-05
6.76578e-05
-3.3988e-05
8.09604e-05
-4.36787e-05
9.76105e-05
0.000118652
-5.52311e-05
-6.65025e-07
1.83929e-05
-1.98687e-06
2.42944e-05
-3.46683e-06
3.00003e-05
-5.55112e-06
3.59272e-05
-8.14221e-06
4.31196e-05
-1.15113e-05
5.13256e-05
-1.58073e-05
6.11952e-05
-2.11997e-05
7.30501e-05
-2.78525e-05
8.76132e-05
-3.59376e-05
0.000105696
0.000128404
-4.56895e-05
-5.63333e-07
1.89562e-05
-1.68283e-06
2.54139e-05
-2.90444e-06
3.12219e-05
-4.58132e-06
3.76041e-05
-6.65531e-06
4.51936e-05
-9.33917e-06
5.40095e-05
-1.27627e-05
6.46187e-05
-1.70886e-05
7.7376e-05
-2.24736e-05
9.29982e-05
-2.90997e-05
0.000112322
0.000136467
-3.71627e-05
-2.4305e-07
1.91993e-05
-1.02653e-06
2.61973e-05
-1.95745e-06
3.21528e-05
-3.26819e-06
3.89148e-05
-4.88251e-06
4.68079e-05
-6.99565e-06
5.61226e-05
-9.69013e-06
6.73132e-05
-1.31187e-05
8.08046e-05
-1.74286e-05
9.73081e-05
-2.27916e-05
0.000117685
0.000143101
-2.94256e-05
1.38309e-08
1.91855e-05
-4.84861e-07
2.6696e-05
-1.10815e-06
3.27761e-05
-2.04577e-06
3.98524e-05
-3.22238e-06
4.79845e-05
-4.78384e-06
5.76841e-05
-6.79971e-06
6.93291e-05
-9.3861e-06
8.3391e-05
-1.26844e-05
0.000100606
-1.68345e-05
0.000121835
0.000148287
-2.2021e-05
1.99147e-08
1.91656e-05
-2.98562e-07
2.70145e-05
-6.53025e-07
3.31305e-05
-1.24386e-06
4.04433e-05
-1.96212e-06
4.87028e-05
-2.96006e-06
5.8682e-05
-4.27101e-06
7.064e-05
-5.9949e-06
8.51149e-05
-8.24099e-06
0.000102852
-1.11337e-05
0.000124727
0.000151948
-1.47944e-05
1.42291e-07
1.90233e-05
8.27271e-08
2.70741e-05
4.12655e-09
3.32091e-05
-2.3518e-07
4.06826e-05
-5.09258e-07
4.89768e-05
-9.59467e-07
5.91322e-05
-1.57746e-06
7.1258e-05
-2.4629e-06
8.60003e-05
-3.68339e-06
0.000104073
-5.33944e-06
0.000126383
0.000154175
-7.56665e-06
4.59133e-07
1.85641e-05
7.60327e-07
2.67729e-05
1.02808e-06
3.29414e-05
1.18248e-06
4.05282e-05
1.36327e-06
4.8796e-05
1.46135e-06
5.90341e-05
1.52025e-06
7.11991e-05
1.46012e-06
8.60604e-05
1.24512e-06
0.000104288
7.97119e-07
0.000126831
0.000154933
3.93199e-08
5.21478e-07
1.80427e-05
1.07214e-06
2.62222e-05
1.66221e-06
3.23513e-05
2.25143e-06
3.9939e-05
2.94603e-06
4.81014e-05
3.68311e-06
5.82971e-05
4.51725e-06
7.0365e-05
5.39832e-06
8.51794e-05
6.32966e-06
0.000103357
7.26833e-06
0.000125893
0.000154018
8.18329e-06
6.55882e-07
1.73868e-05
1.50801e-06
2.53701e-05
2.46056e-06
3.13988e-05
3.52824e-06
3.88713e-05
4.77066e-06
4.6859e-05
6.21053e-06
5.68572e-05
7.88149e-06
6.8694e-05
9.77892e-06
8.32819e-05
1.19603e-05
0.000101175
1.43985e-05
0.000123455
0.000151312
1.71052e-05
9.63819e-07
1.6423e-05
2.22937e-06
2.41045e-05
3.62614e-06
3.0002e-05
5.22815e-06
3.72693e-05
7.08742e-06
4.49998e-05
9.26559e-06
5.4679e-05
1.18688e-05
6.60908e-05
1.48951e-05
8.02557e-05
1.8406e-05
9.76643e-05
2.24506e-05
0.00011941
0.00014664
2.71219e-05
1.15992e-06
1.5263e-05
2.79321e-06
2.24713e-05
4.65819e-06
2.8137e-05
6.88635e-06
3.50411e-05
9.48079e-06
4.24053e-05
1.25717e-05
5.15881e-05
1.62213e-05
6.24412e-05
2.0534e-05
7.59429e-05
2.55979e-05
9.26004e-05
3.15354e-05
0.000113473
0.000139703
3.8473e-05
1.39473e-06
1.38683e-05
3.43018e-06
2.04358e-05
5.80671e-06
2.57605e-05
8.70442e-06
3.21434e-05
1.21435e-05
3.89663e-05
1.62797e-05
4.74519e-05
2.11689e-05
5.7552e-05
2.69653e-05
7.01465e-05
3.38001e-05
8.57657e-05
4.18672e-05
0.000105405
0.000130158
5.14121e-05
1.6718e-06
1.21965e-05
4.13926e-06
1.79683e-05
7.09149e-06
2.28082e-05
1.0811e-05
2.84239e-05
1.52178e-05
3.45594e-05
2.05282e-05
4.21415e-05
2.68074e-05
5.12728e-05
3.42601e-05
6.26938e-05
4.30808e-05
7.6945e-05
5.35647e-05
9.49215e-05
0.00011765
6.6072e-05
1.99681e-06
1.01997e-05
4.91108e-06
1.50541e-05
8.55011e-06
1.91692e-05
1.3093e-05
2.38811e-05
1.85875e-05
2.90649e-05
2.51933e-05
3.55357e-05
3.30012e-05
4.34649e-05
4.22716e-05
5.34234e-05
5.32774e-05
6.59392e-05
6.64287e-05
8.17702e-05
0.00010186
8.22186e-05
2.27551e-06
7.92418e-06
5.62556e-06
1.1704e-05
9.9387e-06
1.48561e-05
1.53816e-05
1.84381e-05
2.20076e-05
2.24389e-05
2.99404e-05
2.76029e-05
3.93272e-05
3.40781e-05
5.0472e-05
4.22787e-05
6.37602e-05
5.26509e-05
7.97173e-05
6.58132e-05
8.25665e-05
9.90112e-05
2.50383e-06
5.42035e-06
6.28207e-06
7.92579e-06
1.12745e-05
9.86366e-06
1.74879e-05
1.22247e-05
2.50229e-05
1.49039e-05
3.40729e-05
1.85529e-05
4.48497e-05
2.33013e-05
5.77248e-05
2.94036e-05
7.31744e-05
3.72014e-05
9.18089e-05
4.71786e-05
6.00173e-05
0.000114358
6.19983e-07
4.80037e-06
5.74065e-06
2.80512e-06
1.205e-05
3.55428e-06
1.91484e-05
5.12634e-06
2.73288e-05
6.72349e-06
3.70049e-05
8.87677e-06
4.85351e-05
1.17711e-05
6.24556e-05
1.54831e-05
7.9362e-05
2.0295e-05
9.9967e-05
2.65736e-05
3.47912e-05
0.000125193
-1.01103e-05
1.6412e-05
-1.81153e-05
1.33658e-05
-2.70668e-05
1.36084e-05
-3.58793e-05
1.26278e-05
-4.48214e-05
1.19929e-05
-5.41332e-05
1.15434e-05
-6.42174e-05
1.12965e-05
-7.54483e-05
1.10527e-05
-8.82355e-05
1.06443e-05
-0.000102981
9.79982e-06
8.1777e-06
-0.000120093
-1.16233e-06
1.75743e-05
-3.37825e-06
1.55817e-05
-1.01048e-05
2.03349e-05
-1.84319e-05
2.09548e-05
-2.80615e-05
2.16226e-05
-3.86055e-05
2.20873e-05
-5.01384e-05
2.28294e-05
-6.30026e-05
2.39169e-05
-7.75794e-05
2.5221e-05
-9.43282e-05
2.65486e-05
2.76102e-05
-0.000113761
1.91151e-07
1.73832e-05
-1.30807e-06
1.7081e-05
-5.33647e-06
2.43633e-05
-1.10675e-05
2.66859e-05
-1.90559e-05
2.96109e-05
-2.87488e-05
3.17802e-05
-3.99362e-05
3.40169e-05
-5.26332e-05
3.6614e-05
-6.70856e-05
3.96734e-05
-8.36696e-05
4.31326e-05
4.67173e-05
-0.000102777
3.64454e-08
1.73467e-05
-2.00089e-06
1.91183e-05
-4.66722e-06
2.70296e-05
-8.65451e-06
3.06732e-05
-1.46564e-05
3.56128e-05
-2.25311e-05
3.96549e-05
-3.22513e-05
4.3737e-05
-4.3683e-05
4.80457e-05
-5.69722e-05
5.29627e-05
-7.2341e-05
5.85013e-05
6.46094e-05
-9.02331e-05
-2.34638e-07
1.75814e-05
-2.58852e-06
2.14722e-05
-4.79052e-06
2.92316e-05
-7.93445e-06
3.38171e-05
-1.24533e-05
4.01317e-05
-1.8521e-05
4.57227e-05
-2.63704e-05
5.15864e-05
-3.60277e-05
5.7703e-05
-4.7514e-05
6.44489e-05
-6.09704e-05
7.19577e-05
8.03242e-05
-7.66852e-05
-3.45757e-07
1.79271e-05
-2.51384e-06
2.36403e-05
-4.45736e-06
3.11752e-05
-7.1485e-06
3.65083e-05
-1.06922e-05
4.36753e-05
-1.53888e-05
5.04193e-05
-2.1569e-05
5.77666e-05
-2.93757e-05
6.55097e-05
-3.88664e-05
7.39396e-05
-5.02112e-05
8.33024e-05
9.36621e-05
-6.3549e-05
-3.2529e-07
1.82524e-05
-2.12297e-06
2.5438e-05
-3.75457e-06
3.28068e-05
-6.03234e-06
3.8786e-05
-8.87816e-06
4.65211e-05
-1.25474e-05
5.40885e-05
-1.73537e-05
6.25729e-05
-2.34659e-05
7.16219e-05
-3.10673e-05
8.1541e-05
-4.02754e-05
9.25105e-05
0.00010461
-5.12233e-05
-3.95019e-07
1.86474e-05
-1.84484e-06
2.68878e-05
-3.17058e-06
3.41325e-05
-5.00194e-06
4.06174e-05
-7.21607e-06
4.87353e-05
-1.00015e-05
5.6874e-05
-1.36315e-05
6.62028e-05
-1.82368e-05
7.62273e-05
-2.40357e-05
8.734e-05
-3.10574e-05
9.95322e-05
0.000112894
-3.93412e-05
-3.4366e-07
1.89911e-05
-1.44925e-06
2.79934e-05
-2.45849e-06
3.51418e-05
-3.83271e-06
4.19916e-05
-5.45288e-06
5.03554e-05
-7.44074e-06
5.88618e-05
-1.00244e-05
6.87865e-05
-1.32755e-05
7.94784e-05
-1.73617e-05
9.14262e-05
-2.23642e-05
0.000104535
0.000118677
-2.81472e-05
-1.76409e-07
1.91675e-05
-1.02859e-06
2.88455e-05
-1.59708e-06
3.57102e-05
-2.56001e-06
4.29545e-05
-3.56901e-06
5.13644e-05
-4.80497e-06
6.00978e-05
-6.41337e-06
7.03949e-05
-8.41036e-06
8.14753e-05
-1.09398e-05
9.39556e-05
-1.39771e-05
0.000107572
0.000122121
-1.74215e-05
8.22051e-08
1.90853e-05
-2.59281e-07
2.9187e-05
-4.22763e-07
3.58737e-05
-1.02163e-06
4.35534e-05
-1.35596e-06
5.16988e-05
-1.92051e-06
6.06623e-05
-2.59104e-06
7.10654e-05
-3.45014e-06
8.23345e-05
-4.54141e-06
9.50469e-05
-5.8131e-06
0.000108844
0.000123492
-7.18387e-06
2.00326e-07
1.8885e-05
2.35756e-07
2.91516e-05
4.11332e-07
3.56982e-05
4.20163e-07
4.35446e-05
6.95322e-07
5.14236e-05
8.2112e-07
6.05366e-05
1.11803e-06
7.07685e-05
1.39741e-06
8.20551e-05
1.74172e-06
9.47026e-05
2.1939e-06
0.000108391
0.000122742
2.9439e-06
4.02762e-07
1.84822e-05
8.13762e-07
2.87406e-05
1.40808e-06
3.51038e-05
1.97428e-06
4.29784e-05
2.84877e-06
5.05491e-05
3.71765e-06
5.96677e-05
4.96873e-06
6.95175e-05
6.36799e-06
8.06558e-05
8.12828e-06
9.29423e-05
1.02693e-05
0.00010625
0.000119853
1.31586e-05
7.25804e-07
1.77564e-05
1.60025e-06
2.78662e-05
2.62702e-06
3.40771e-05
3.75857e-06
4.18468e-05
5.23686e-06
4.90708e-05
6.90054e-06
5.8004e-05
9.07034e-06
6.73477e-05
1.1608e-05
7.81181e-05
1.47349e-05
8.98154e-05
1.85005e-05
0.000102485
0.000115248
2.31053e-05
9.13529e-07
1.68429e-05
2.16709e-06
2.66126e-05
3.64626e-06
3.25979e-05
5.38868e-06
4.01044e-05
7.49614e-06
4.69634e-05
1.00395e-05
5.54606e-05
1.31804e-05
6.42068e-05
1.69355e-05
7.4363e-05
2.14892e-05
8.52618e-05
2.69298e-05
9.70441e-05
0.000108784
3.33934e-05
1.13636e-06
1.57065e-05
2.80547e-06
2.49435e-05
4.75833e-06
3.0645e-05
7.13324e-06
3.77295e-05
9.9407e-06
4.41559e-05
1.33841e-05
5.20172e-05
1.75426e-05
6.00483e-05
2.25586e-05
6.9347e-05
2.85755e-05
7.92448e-05
3.57432e-05
8.98765e-05
0.000100289
4.4239e-05
1.41953e-06
1.4287e-05
3.52128e-06
2.28417e-05
5.99379e-06
2.81725e-05
9.04287e-06
3.46804e-05
1.26181e-05
4.05807e-05
1.69877e-05
4.76476e-05
2.22258e-05
5.48102e-05
2.85608e-05
6.3012e-05
3.60909e-05
7.17147e-05
4.50186e-05
8.09488e-05
8.98406e-05
5.54666e-05
1.69098e-06
1.2596e-05
4.21883e-06
2.03139e-05
7.23358e-06
2.51578e-05
1.09811e-05
3.09329e-05
1.53616e-05
3.62002e-05
2.07663e-05
4.22428e-05
2.71847e-05
4.83918e-05
3.48954e-05
5.53013e-05
4.39987e-05
6.26114e-05
5.4717e-05
7.02304e-05
7.73449e-05
6.72127e-05
1.9715e-06
1.06245e-05
4.89718e-06
1.73882e-05
8.47072e-06
2.15842e-05
1.29416e-05
2.64619e-05
1.82373e-05
3.09045e-05
2.47196e-05
3.57605e-05
3.24031e-05
4.07083e-05
4.15428e-05
4.61616e-05
5.22475e-05
5.19067e-05
6.47533e-05
5.77246e-05
6.29858e-05
7.91125e-05
2.27508e-06
8.34943e-06
5.57054e-06
1.40927e-05
9.67806e-06
1.74767e-05
1.48858e-05
2.12542e-05
2.11524e-05
2.46379e-05
2.87703e-05
2.81426e-05
3.77589e-05
3.17197e-05
4.8314e-05
3.56065e-05
6.06174e-05
3.96033e-05
7.49241e-05
4.3418e-05
4.63617e-05
9.15482e-05
2.54739e-06
5.80204e-06
6.09466e-06
1.05455e-05
1.07166e-05
1.28548e-05
1.66516e-05
1.53192e-05
2.38663e-05
1.74232e-05
3.25879e-05
1.94211e-05
4.27872e-05
2.15204e-05
5.46568e-05
2.37368e-05
6.8439e-05
2.58211e-05
8.4439e-05
2.74179e-05
2.78763e-05
0.000102925
2.66245e-06
3.13959e-06
6.37824e-06
6.82968e-06
1.14704e-05
7.76263e-06
1.80844e-05
8.70525e-06
2.60557e-05
9.45189e-06
3.55591e-05
9.91764e-06
4.65901e-05
1.04894e-05
5.93945e-05
1.09324e-05
7.42988e-05
1.09168e-05
9.15973e-05
1.01194e-05
7.90871e-06
0.000111565
2.207e-06
9.32595e-07
6.19966e-06
2.83702e-06
1.159e-05
2.37228e-06
1.83653e-05
1.92993e-06
2.64904e-05
1.32685e-06
3.57958e-05
6.12247e-07
4.68239e-05
-5.38729e-07
5.98591e-05
-2.10283e-06
7.52314e-05
-4.45543e-06
9.32098e-05
-7.85903e-06
-1.31178e-05
0.000114236
5.73297e-06
1.13751e-05
1.73017e-05
2.43579e-05
3.24083e-05
4.18973e-05
5.31297e-05
6.651e-05
8.23495e-05
0.000101064
0.000122737
7.8951e-07
1.70821e-05
-1.78716e-05
7.87433e-07
1.66486e-05
-1.66466e-05
-2.15463e-06
2.12617e-05
-1.83196e-05
-7.05497e-06
2.55335e-05
-2.06332e-05
-1.28006e-05
2.93401e-05
-2.35945e-05
-1.89531e-05
3.34826e-05
-2.733e-05
-2.54557e-05
3.85061e-05
-3.20035e-05
-3.2633e-05
4.50809e-05
-3.79037e-05
-4.07403e-05
5.35026e-05
-4.53954e-05
-5.00983e-05
6.43463e-05
-5.49882e-05
7.83608e-05
-6.73007e-05
-6.11585e-05
6.11329e-06
1.09688e-05
8.98342e-06
1.37785e-05
9.4181e-06
2.0827e-05
7.86985e-06
2.70818e-05
4.24754e-06
3.29624e-05
-1.18348e-06
3.89136e-05
-7.84403e-06
4.51667e-05
-1.5391e-05
5.26279e-05
-2.39446e-05
6.20562e-05
-3.38095e-05
7.42112e-05
8.99214e-05
-4.53701e-05
4.28336e-06
6.68541e-06
7.08132e-06
1.09806e-05
9.51079e-06
1.83975e-05
1.06632e-05
2.59293e-05
9.84153e-06
3.37841e-05
6.9097e-06
4.18454e-05
2.10489e-06
4.99715e-05
-4.06978e-06
5.88026e-05
-1.13782e-05
6.93646e-05
-1.98731e-05
8.27061e-05
9.99948e-05
-2.99466e-05
3.61128e-06
3.07412e-06
6.0428e-06
8.54904e-06
8.64755e-06
1.57928e-05
1.07352e-05
2.38417e-05
1.16152e-05
3.29041e-05
1.08461e-05
4.26145e-05
8.26929e-06
5.25483e-05
4.10101e-06
6.29709e-05
-1.34315e-06
7.48088e-05
-7.84842e-06
8.92114e-05
0.000107561
-1.54142e-05
2.64272e-06
4.31403e-07
5.44917e-06
5.74259e-06
8.35133e-06
1.28906e-05
1.08286e-05
2.13645e-05
1.25762e-05
3.11564e-05
1.32127e-05
4.19781e-05
1.24046e-05
5.33564e-05
1.01109e-05
6.52645e-05
6.56317e-06
7.83566e-05
2.01318e-06
9.37614e-05
0.000112969
-3.39481e-06
2.07165e-06
-1.64025e-06
4.99383e-06
2.82041e-06
8.12649e-06
9.75798e-06
1.10565e-05
1.84345e-05
1.34847e-05
2.87282e-05
1.50979e-05
4.0365e-05
1.55727e-05
5.28816e-05
1.47574e-05
6.60798e-05
1.27811e-05
8.03329e-05
9.90432e-06
9.66381e-05
0.000116454
6.4187e-06
8.82113e-07
-2.52236e-06
3.747e-06
-4.44744e-08
7.2059e-06
6.29908e-06
1.06954e-05
1.4945e-05
1.38358e-05
2.55878e-05
1.63199e-05
3.78809e-05
1.78438e-05
5.13577e-05
1.82417e-05
6.56818e-05
1.75633e-05
8.10113e-05
1.60457e-05
9.81557e-05
0.000118529
1.39712e-05
5.15062e-07
-3.03743e-06
2.44508e-06
-1.97449e-06
5.80137e-06
2.94278e-06
9.65166e-06
1.10947e-05
1.33951e-05
2.18444e-05
1.66504e-05
3.46256e-05
1.91133e-05
4.88948e-05
2.05819e-05
6.42133e-05
2.10565e-05
8.05368e-05
2.07549e-05
9.84573e-05
0.000119257
2.00261e-05
4.30334e-07
-3.46776e-06
1.50673e-06
-3.05089e-06
4.36157e-06
8.79511e-08
8.29009e-06
7.16615e-06
1.24671e-05
1.76673e-05
1.63629e-05
3.07298e-05
1.96254e-05
4.56322e-05
2.20255e-05
6.18132e-05
2.35215e-05
7.90407e-05
2.42875e-05
9.76913e-05
0.000118864
2.46812e-05
4.49563e-07
-3.91732e-06
1.25272e-06
-3.85405e-06
3.3277e-06
-1.98703e-06
6.9486e-06
3.54525e-06
1.13219e-05
1.3294e-05
1.57088e-05
2.6343e-05
1.96319e-05
4.17091e-05
2.28217e-05
5.86234e-05
2.51948e-05
7.66676e-05
2.6893e-05
9.59931e-05
0.000117554
2.82032e-05
4.58622e-07
-4.37595e-06
1.18369e-06
-4.57912e-06
2.57966e-06
-3.383e-06
5.61937e-06
5.05533e-07
9.87958e-06
9.03379e-06
1.45313e-05
2.16912e-05
1.89504e-05
3.729e-05
2.2806e-05
5.47678e-05
2.59955e-05
7.34781e-05
2.86301e-05
9.33586e-05
0.000115124
3.106e-05
4.59111e-07
-4.83506e-06
1.08468e-06
-5.20469e-06
2.18236e-06
-4.48067e-06
4.48532e-06
-1.79743e-06
8.23399e-06
5.28513e-06
1.28183e-05
1.71069e-05
1.75072e-05
3.26011e-05
2.18867e-05
5.03884e-05