# Force coefficients
# liftDir    : (0.000000e+00 1.000000e+00 0.000000e+00)
# dragDir    : (1.000000e+00 0.000000e+00 0.000000e+00)
# pitchAxis  : (0.000000e+00 0.000000e+00 1.000000e+00)
# magUInf    : 2.800000e+00
# lRef       : 3.200000e-02
# Aref       : 3.200000e-02
# CofR       : (0.000000e+00 0.000000e+00 0.000000e+00)
# Time       	Cm           	Cd           	Cl           	Cl(f)        	Cl(r)        	Cm	Cd	Cl	Cl(f)	Cl(r)
1.418253e-07	-6.106519e-03	2.682777e-02	1.591807e-02	1.852517e-03	1.406556e-02
7.542174e-06	-2.886041e-04	8.048422e-03	4.589945e-03	2.006368e-03	2.583576e-03
1.079125e-04	8.865525e-04	4.496434e-03	2.404847e-03	2.088976e-03	3.158710e-04
1.087004e-03	2.098659e-03	3.407175e-03	1.585474e-03	2.891395e-03	-1.305922e-03
