/*--------------------------------*- C++ -*----------------------------------*\
| =========                 |                                                 |
| \\      /  F ield         | OpenFOAM: The Open Source CFD Toolbox           |
|  \\    /   O peration     | Version:  3.0.1                                 |
|   \\  /    A nd           | Web:      www.OpenFOAM.org                      |
|    \\/     M anipulation  |                                                 |
\*---------------------------------------------------------------------------*/
FoamFile
{
    version     2.0;
    format      ascii;
    class       volScalarField;
    location    "0.406619";
    object      nut;
}
// * * * * * * * * * * * * * * * * * * * * * * * * * * * * * * * * * * * * * //

dimensions      [0 2 -1 0 0 0 0];

internalField   nonuniform List<scalar> 
21246
(
2.52772e-05
0.000167617
0.000270391
0.000335111
0.000374832
0.000404262
0.00043331
0.000460698
0.000477567
0.000473689
0.000447568
1.88999e-05
0.000149743
0.000265161
0.000340665
0.00038234
0.00040686
0.000426978
0.000445192
0.000454855
0.000447739
0.000420278
1.64063e-05
0.000134766
0.000249096
0.000333368
0.000382132
0.000408326
0.000426554
0.000442732
0.000451672
0.000443338
0.000413466
1.62597e-05
0.000125435
0.000238297
0.000328276
0.000384066
0.000413637
0.000430923
0.000443719
0.000449083
0.00044011
0.000412464
1.67664e-05
0.000120793
0.00023108
0.000322914
0.000382957
0.000414207
0.000428154
0.000435285
0.000437886
0.000430874
0.000406059
1.74216e-05
0.000119405
0.000227975
0.000318665
0.000379801
0.000412995
0.000427804
0.000434975
0.000437973
0.000433002
0.000412643
1.80576e-05
0.00011899
0.000226555
0.000315541
0.000376482
0.000410985
0.000427301
0.000435791
0.000440315
0.000436865
0.000417351
1.88881e-05
0.000119289
0.000226006
0.000313005
0.000373169
0.000408293
0.000426065
0.000436343
0.000443194
0.000443123
0.000428568
1.9625e-05
0.000119647
0.000225678
0.000311043
0.00037026
0.000405647
0.000424765
0.000437055
0.000446377
0.000448683
0.000434099
2.01757e-05
0.000119259
0.000224703
0.000309052
0.000367673
0.000403396
0.000423823
0.000438045
0.000449408
0.000452716
0.00043628
2.06346e-05
0.000118443
0.000223292
0.000307034
0.00036543
0.000401668
0.000423381
0.000439331
0.000452379
0.000457127
0.000444072
2.10417e-05
0.000117837
0.000222136
0.00030539
0.000363692
0.000400532
0.000423515
0.000441067
0.000455639
0.000461632
0.000448936
2.12931e-05
0.000116922
0.000220812
0.000303864
0.000362387
0.000400066
0.000424422
0.00044357
0.00045959
0.000466339
0.000452031
2.13593e-05
0.000115088
0.000218606
0.00030198
0.000361309
0.000400283
0.000426249
0.000447027
0.000464356
0.000471817
0.000458848
2.12576e-05
0.000112984
0.000216063
0.00029998
0.000360484
0.000401132
0.000428952
0.0004514
0.000469823
0.000477148
0.000460908
2.09494e-05
0.000110233
0.000212811
0.000297556
0.000359726
0.000402552
0.000432561
0.000456759
0.000476103
0.000482864
0.000463945
2.04302e-05
0.000106197
0.000207997
0.000294036
0.000358597
0.000404332
0.000437034
0.000463173
0.000483404
0.000489468
0.000468296
1.96284e-05
0.000100558
0.000201275
0.00028896
0.000356524
0.000405929
0.000441975
0.000470436
0.000491791
0.000497314
0.000472432
1.85423e-05
9.30292e-05
0.000191052
0.000279966
0.000350988
0.000404865
0.000445347
0.000477329
0.000500528
0.000506644
0.000480275
1.71389e-05
8.30878e-05
0.000176479
0.000266005
0.000340283
0.00039815
0.0004416
0.000474346
0.000497465
0.000504029
0.000479767
1.5362e-05
7.05519e-05
0.000156844
0.000245615
0.000322624
0.00038408
0.000429424
0.000460516
0.000479318
0.000482163
0.000460319
1.3205e-05
5.71855e-05
0.000133029
0.000217722
0.000296012
0.000360496
0.000407444
0.000436293
0.000448719
0.000444262
0.000420737
1.0498e-05
4.01045e-05
0.00010054
0.000179352
0.000256664
0.000322603
0.000371257
0.000399726
0.000408315
0.000398258
0.000371593
7.7619e-06
3.69076e-05
8.62794e-05
0.000141235
0.000199189
0.000254395
0.000299694
0.000329334
0.000340815
0.000334268
0.000312657
2.16114e-05
7.66329e-05
0.00014149
0.000210286
0.000275549
0.000342734
0.00041003
0.00046887
0.000516952
0.000521881
0.000495134
1.32044e-05
3.96844e-05
7.70339e-05
0.000121169
0.000168878
0.000215502
0.000261122
0.000330745
0.00047572
0.000562064
0.000550127
1.21969e-05
3.98309e-05
6.2146e-05
8.6945e-05
0.000117353
0.000150737
0.000183323
0.000219623
0.000288403
0.000480171
0.00059107
1.4464e-05
5.28629e-05
9.13678e-05
0.00010051
0.000110179
0.000125745
0.000145117
0.000166448
0.000197394
0.000271929
0.000474796
1.75299e-05
5.94517e-05
0.000128642
0.000168858
0.000158027
0.000145417
0.000141474
0.000145413
0.000156795
0.000185457
0.000273105
2.07035e-05
6.6657e-05
0.0001499
0.000235618
0.000263011
0.000226886
0.000186726
0.000159912
0.000147895
0.000151067
0.000183815
2.3787e-05
7.68306e-05
0.000168471
0.000277215
0.000360885
0.000357576
0.000292445
0.000223414
0.000174516
0.000149124
0.00014958
2.6772e-05
8.90263e-05
0.000188593
0.000305632
0.000414515
0.000481158
0.000437226
0.000338467
0.000243302
0.000178533
0.000147633
2.94708e-05
0.000103045
0.000210761
0.000328115
0.000440926
0.000535014
0.000562225
0.000475705
0.000347185
0.000238076
0.000170533
3.18244e-05
0.000118683
0.000234057
0.000346401
0.000450584
0.000548646
0.000622463
0.000591549
0.000462412
0.000318196
0.000212806
3.37891e-05
0.000135605
0.000257125
0.000361286
0.000449934
0.00053611
0.000623532
0.000657846
0.000559074
0.000400134
0.000264248
3.54822e-05
0.000150986
0.000277607
0.000372499
0.000443661
0.000511029
0.000594487
0.000668085
0.000619562
0.000465113
0.000312377
3.6856e-05
0.000165769
0.000294749
0.00038025
0.000434906
0.000482602
0.000551789
0.000638166
0.000643056
0.000502105
0.00034469
3.79302e-05
0.00017829
0.000307508
0.000384099
0.000424839
0.000455793
0.000504539
0.000576471
0.000627836
0.000509235
0.00035563
3.85525e-05
0.000189761
0.00031794
0.000385162
0.000412539
0.000428258
0.000457373
0.000501918
0.000539673
0.000499421
0.000347017
3.8712e-05
0.00020086
0.000327406
0.000384964
0.000399116
0.000399677
0.000409556
0.000430147
0.000449088
0.000439374
0.000342797
3.83793e-05
0.0002118
0.000337041
0.000385436
0.000387587
0.000375389
0.000370609
0.000374695
0.000379221
0.000370511
0.000326303
3.74487e-05
0.000222649
0.000348211
0.000389104
0.000381584
0.000360625
0.000347936
0.000345273
0.000346084
0.000342475
0.000326535
3.58188e-05
0.000233789
0.00036319
0.000400037
0.000385044
0.00035681
0.000339037
0.000334606
0.000338091
0.000344694
0.00035071
3.31618e-05
0.00023827
0.000366188
0.000401284
0.000381836
0.000345312
0.000317136
0.000299554
0.000287829
0.000284774
0.000293711
2.69365e-05
0.000211763
0.000331631
0.000374511
0.000361705
0.000318756
0.000267213
0.000215486
0.000186453
0.000174339
0.00016255
2.05567e-05
0.000170457
0.000273479
0.000318022
0.000307112
0.000238281
0.000177526
0.000143269
0.000124681
0.000115405
0.00010815
1.35182e-05
9.15047e-05
0.000136347
0.000137968
0.000114192
9.61875e-05
8.94492e-05
9.13338e-05
9.83146e-05
0.000106201
0.000110873
6.26507e-06
1.06576e-05
1.67416e-05
2.65231e-05
4.15664e-05
6.356e-05
9.18376e-05
0.000122376
0.000149068
0.00016632
0.000171663
2.93134e-05
0.000111991
0.000111819
0.000117575
0.000127667
0.000128225
0.000120932
0.000116485
0.000117868
0.000124373
0.000135827
2.43964e-05
9.38018e-05
9.91346e-05
0.000117115
0.000131118
0.00013426
0.000129088
0.000124944
0.000126582
0.000133988
0.000146611
2.44598e-05
8.43323e-05
8.68664e-05
0.000117559
0.000134463
0.000139487
0.000136407
0.000134225
0.000138272
0.000150367
0.000172397
2.65502e-05
7.44597e-05
7.8674e-05
0.000114706
0.000132292
0.000140661
0.000139818
0.000140213
0.000147003
0.000162737
0.000188674
2.91493e-05
6.5566e-05
7.31827e-05
0.000109142
0.000126976
0.000138645
0.000139648
0.000142722
0.000152176
0.000170703
0.000198474
3.16289e-05
5.88431e-05
6.88247e-05
0.000102569
0.000121032
0.000134132
0.000136707
0.000141995
0.000153513
0.000173963
0.000202703
3.40053e-05
5.40175e-05
6.50701e-05
9.60511e-05
0.000115273
0.000128234
0.000131983
0.000138769
0.000151696
0.000173583
0.000203855
3.62717e-05
5.05017e-05
6.17244e-05
9.01818e-05
0.000109736
0.000121828
0.000126303
0.000133842
0.000147506
0.000170156
0.000200857
3.82827e-05
4.78981e-05
5.873e-05
8.51247e-05
0.000104545
0.000115518
0.00012024
0.000127888
0.000141667
0.000164483
0.000195891
4.00292e-05
4.61248e-05
5.60741e-05
8.08275e-05
9.98165e-05
0.00010963
0.000114135
0.00012136
0.00013468
0.000157042
0.000188756
4.15443e-05
4.46756e-05
5.36752e-05
7.71081e-05
9.55424e-05
0.000104216
0.000108162
0.000114569
0.000126939
0.00014823
0.000179389
4.27216e-05
4.38043e-05
5.14853e-05
7.38096e-05
9.16658e-05
9.92456e-05
0.00010243
0.000107746
0.000118776
0.000138428
0.000168393
4.34001e-05
4.30568e-05
4.85067e-05
6.98211e-05
8.75955e-05
9.45744e-05
9.69953e-05
0.000101029
0.000110416
0.000127922
0.000155767
4.36132e-05
4.21054e-05
4.41845e-05
6.32408e-05
8.07032e-05
8.84496e-05
9.08313e-05
9.40235e-05
0.00010169
0.000116668
0.000141391
4.3289e-05
4.15889e-05
4.03885e-05
5.58088e-05
7.19805e-05
8.08316e-05
8.39127e-05
8.67581e-05
9.28573e-05
0.000105136
0.000125995
4.23985e-05
4.12654e-05
3.72407e-05
4.81503e-05
6.17697e-05
7.12608e-05
7.57348e-05
7.89458e-05
8.39468e-05
9.3652e-05
0.000110351
4.10206e-05
4.08706e-05
3.4745e-05
4.0838e-05
5.07518e-05
5.95081e-05
6.53493e-05
6.97041e-05
7.449e-05
8.2204e-05
9.50095e-05
3.89609e-05
4.05273e-05
3.323e-05
3.51883e-05
4.10447e-05
4.7448e-05
5.30805e-05
5.82051e-05
6.3462e-05
7.01754e-05
7.99778e-05
3.62203e-05
4.00184e-05
3.25313e-05
3.13752e-05
3.36404e-05
3.70267e-05
4.07721e-05
4.50044e-05
5.00313e-05
5.62264e-05
6.42075e-05
3.27994e-05
3.90338e-05
3.24069e-05
2.92726e-05
2.88241e-05
2.95338e-05
3.08689e-05
3.28983e-05
3.59834e-05
4.04597e-05
4.65564e-05
2.86721e-05
3.7125e-05
3.24628e-05
2.85892e-05
2.64112e-05
2.5201e-05
2.45938e-05
2.45291e-05
2.51997e-05
2.68826e-05
2.9851e-05
2.3841e-05
3.36746e-05
3.20379e-05
2.88177e-05
2.60043e-05
2.37122e-05
2.18768e-05
2.04399e-05
1.94517e-05
1.90176e-05
1.92672e-05
1.82858e-05
2.81413e-05
3.00442e-05
2.8889e-05
2.67866e-05
2.44532e-05
2.21992e-05
2.01244e-05
1.82929e-05
1.6761e-05
1.55782e-05
1.25286e-05
2.4358e-05
2.7693e-05
2.83579e-05
2.76632e-05
2.62514e-05
2.45504e-05
2.27536e-05
2.09684e-05
1.92695e-05
1.77016e-05
2.9347e-05
0.00010117
0.000104903
0.000108621
0.000116316
0.000113868
0.000105173
0.000100149
0.000100125
0.000103805
0.000110532
2.37847e-05
9.02519e-05
7.83599e-05
0.000101805
0.000107864
0.000100787
8.8995e-05
8.21328e-05
8.05398e-05
8.24974e-05
8.72089e-05
2.46636e-05
8.69432e-05
6.4291e-05
9.86867e-05
0.00010442
9.64962e-05
8.2993e-05
7.49837e-05
7.23551e-05
7.316e-05
7.64402e-05
2.78831e-05
7.69054e-05
5.90922e-05
9.46979e-05
0.000100584
9.34441e-05
7.83028e-05
6.86734e-05
6.41705e-05
6.26795e-05
6.29055e-05
3.1657e-05
6.69363e-05
5.61723e-05
8.89156e-05
9.6375e-05
9.01505e-05
7.44928e-05
6.42911e-05
5.93092e-05
5.75467e-05
5.76474e-05
3.51324e-05
5.96773e-05
5.3655e-05
8.29314e-05
9.2328e-05
8.64916e-05
7.11096e-05
6.1079e-05
5.6083e-05
5.41939e-05
5.40292e-05
3.81847e-05
5.46872e-05
5.13183e-05
7.77467e-05
8.85955e-05
8.28035e-05
6.81764e-05
5.88077e-05
5.42271e-05
5.27627e-05
5.31983e-05
4.09023e-05
5.11215e-05
4.91588e-05
7.34737e-05
8.5225e-05
7.94164e-05
6.5758e-05
5.73103e-05
5.34288e-05
5.28455e-05
5.47494e-05
4.31109e-05
4.85804e-05
4.72217e-05
7.00269e-05
8.23158e-05
7.65572e-05
6.38882e-05
5.64507e-05
5.34573e-05
5.42378e-05
5.89511e-05
4.48356e-05
4.67786e-05
4.55353e-05
6.72267e-05
7.99698e-05
7.42559e-05
6.25491e-05
5.60753e-05
5.39976e-05
5.62377e-05
6.36803e-05
4.60434e-05
4.55961e-05
4.40853e-05
6.49455e-05
7.82524e-05
7.2475e-05
6.17043e-05
5.60097e-05
5.47131e-05
5.81066e-05
6.73791e-05
4.67805e-05
4.47135e-05
4.24694e-05
6.23788e-05
7.67594e-05
7.10686e-05
6.12982e-05
5.6101e-05
5.53977e-05
5.94781e-05
6.99388e-05
4.69558e-05
4.38112e-05
4.0097e-05
5.79764e-05
7.35195e-05
6.94884e-05
6.1281e-05
5.64266e-05
5.61784e-05
6.05948e-05
7.15411e-05
4.65933e-05
4.27944e-05
3.71907e-05
5.17458e-05
6.8092e-05
6.73383e-05
6.13959e-05
5.69458e-05
5.69493e-05
6.1344e-05
7.19285e-05
4.56408e-05
4.18366e-05
3.45867e-05
4.50739e-05
6.08261e-05
6.39844e-05
6.11647e-05
5.75378e-05
5.76355e-05
6.1672e-05
7.11859e-05
4.40767e-05
4.08508e-05
3.24485e-05
3.87429e-05
5.22149e-05
5.86834e-05
5.97627e-05
5.78457e-05
5.81299e-05
6.15806e-05
6.94961e-05
4.19112e-05
3.97278e-05
3.08254e-05
3.33472e-05
4.32423e-05
5.1122e-05
5.59575e-05
5.69463e-05
5.80593e-05
6.10109e-05
6.71282e-05
3.90587e-05
3.83975e-05
2.96949e-05
2.92648e-05
3.5226e-05
4.21678e-05
4.88757e-05
5.3163e-05
5.62544e-05
5.94612e-05
6.41252e-05
3.54871e-05
3.67097e-05
2.89137e-05
2.64974e-05
2.90149e-05
3.35352e-05
3.93795e-05
4.51473e-05
5.0437e-05
5.50904e-05
5.9547e-05
3.11741e-05
3.44141e-05
2.82338e-05
2.48238e-05
2.48093e-05
2.66961e-05
3.005e-05
3.44085e-05
3.95495e-05
4.50105e-05
5.02098e-05
2.61058e-05
3.11632e-05
2.72681e-05
2.38861e-05
2.23947e-05
2.22488e-05
2.3147e-05
2.49175e-05
2.75361e-05
3.09163e-05
3.47341e-05
2.03129e-05
2.64779e-05
2.53439e-05
2.30126e-05
2.11788e-05
1.99542e-05
1.92728e-05
1.90766e-05
1.93334e-05
1.99938e-05
2.09287e-05
1.39012e-05
1.98605e-05
2.10853e-05
2.05479e-05
1.95325e-05
1.84336e-05
1.73838e-05
1.64765e-05
1.58105e-05
1.54299e-05
1.53483e-05
8.50136e-06
1.0959e-05
1.29097e-05
1.47021e-05
1.61222e-05
1.72583e-05
1.81826e-05
1.88993e-05
1.94164e-05
1.97654e-05
1.99682e-05
3.78513e-05
0.000171761
0.000200425
0.000235501
0.000251796
0.000245434
0.000213438
0.000180646
0.000157959
0.000141143
0.000126153
3.08163e-05
0.000124107
0.000137348
0.000195318
0.000247221
0.00025339
0.000220164
0.000179065
0.000150271
0.000129893
0.000112966
2.93663e-05
9.44998e-05
0.000115821
0.000151338
0.000211597
0.000253853
0.000230139
0.000182866
0.000147372
0.000123156
0.000104024
2.97175e-05
7.88374e-05
0.000105958
0.000132773
0.000180178
0.000242795
0.000239487
0.000190284
0.000148696
0.00012115
0.000101175
3.00764e-05
7.14388e-05
9.94905e-05
0.000121722
0.000159307
0.000216613
0.000244537
0.000200086
0.000153454
0.000122808
0.000102335
2.97816e-05
6.83248e-05
9.47778e-05
0.000113759
0.000142748
0.000187065
0.000229139
0.000209962
0.000161146
0.000127183
0.000105672
2.89594e-05
6.78337e-05
9.18519e-05
0.000108333
0.000130114
0.000161214
0.000199171
0.000208176
0.000171705
0.000134012
0.000110766
2.77414e-05
6.95076e-05
9.11124e-05
0.00010543
0.000121612
0.000142337
0.000169466
0.000190492
0.000178593
0.00014412
0.000118154
2.61216e-05
7.27118e-05
9.26327e-05
0.000104811
0.000116509
0.000129647
0.000146353
0.000165317
0.000173874
0.000154308
0.000127983
2.42498e-05
7.74097e-05
9.66465e-05
0.000106504
0.000114306
0.00012181
0.000130485
0.000142171
0.000156962
0.000158269
0.000139295
2.27448e-05
8.5323e-05
0.000104521
0.000111487
0.000115445
0.000118488
0.000121459
0.000126219
0.00013711
0.000150735
0.000148203
2.27241e-05
0.000100022
0.000119111
0.000121855
0.000121014
0.000119706
0.000118315
0.000117859
0.000122452
0.000136052
0.00014869
2.41317e-05
0.00012277
0.000143571
0.000140807
0.000133047
0.000126072
0.000120265
0.000115614
0.000114714
0.000122679
0.000139722
2.50307e-05
0.0001474
0.000176813
0.000171263
0.000154877
0.000139687
0.000127907
0.00011882
0.000113269
0.000115019
0.000127984
2.46302e-05
0.000166955
0.000211834
0.000211928
0.000189314
0.000163787
0.000143374
0.000128271
0.000117904
0.000114054
0.000120332
2.32316e-05
0.000178117
0.000240176
0.000254736
0.000234983
0.00020099
0.000169734
0.000146039
0.000129413
0.000119903
0.000119511
2.11784e-05
0.000180848
0.000257423
0.000289169
0.000283691
0.000250019
0.000209455
0.000175172
0.000150013
0.000133658
0.000126572
1.87171e-05
0.000176419
0.00026279
0.000308596
0.00032316
0.000302613
0.000260944
0.000217711
0.000182583
0.000157634
0.00014305
1.61475e-05
0.000165237
0.000256616
0.000311154
0.00034407
0.000346324
0.000316878
0.000272383
0.000229094
0.000194638
0.000171323
1.37046e-05
0.000145891
0.000240572
0.000300617
0.000346968
0.000373895
0.000368107
0.000334123
0.000288804
0.000246237
0.000213747
1.18316e-05
0.000122837
0.000217689
0.000283895
0.000340619
0.000388188
0.000408611
0.000394431
0.000355446
0.000308832
0.000268509
1.08292e-05
9.61697e-05
0.0001832
0.000253238
0.000318061
0.000378853
0.000423249
0.000431199
0.000407577
0.000365325
0.000322145
1.16846e-05
9.47537e-05
0.000151753
0.000200386
0.000245959
0.000291214
0.00032364
0.000343583
0.000353446
0.000349394
0.000329166
8.58857e-06
2.08543e-05
3.32328e-05
4.64412e-05
5.91247e-05
7.0118e-05
7.91948e-05
8.90588e-05
0.000107976
0.000145636
0.000192448
3.26478e-05
0.000166093
0.000202012
0.000225239
0.000243849
0.000240862
0.000215552
0.000189102
0.00017071
0.0001577
0.000146712
2.14346e-05
0.000125898
0.0001901
0.000231841
0.000252125
0.000251772
0.000229257
0.00020272
0.000184259
0.000172412
0.000163779
2.09516e-05
0.000105376
0.000172556
0.0002423
0.000272638
0.000274057
0.000250363
0.000219079
0.000197022
0.000184079
0.000175995
2.28494e-05
9.57747e-05
0.000160909
0.000243566
0.000286212
0.000293986
0.000271921
0.000238182
0.000211534
0.000195586
0.000186488
2.53984e-05
8.9364e-05
0.000156138
0.0002413
0.000287977
0.000301215
0.000282709
0.000249258
0.000221029
0.000203389
0.000193185
2.78516e-05
8.50841e-05
0.000153893
0.000237383
0.000286687
0.000305453
0.000290822
0.000257902
0.000228391
0.000209318
0.000198078
3.00844e-05
8.22996e-05
0.000152741
0.000233577
0.000284543
0.00030827
0.000298077
0.000266601
0.000236409
0.000216213
0.000203943
3.21549e-05
8.06387e-05
0.000152342
0.000230841
0.000283418
0.000311835
0.000306032
0.000276512
0.000245878
0.00022446
0.000210702
3.38917e-05
7.96751e-05
0.000152361
0.000229392
0.00028406
0.000317042
0.000315833
0.000288636
0.000257646
0.000234868
0.000219444
3.52821e-05
7.90313e-05
0.000152701
0.000229045
0.000286417
0.000323901
0.000327962
0.000303593
0.000272224
0.000247676
0.000229729
3.62962e-05
7.82727e-05
0.000152893
0.000229305
0.00028989
0.000332241
0.000342356
0.000321571
0.000290016
0.000263721
0.000243811
3.70336e-05
7.74569e-05
0.000152861
0.000229917
0.000293879
0.000341452
0.000358448
0.000342284
0.000311006
0.000282943
0.000260687
3.74154e-05
7.63016e-05
0.000152304
0.000230349
0.000297723
0.000350764
0.00037543
0.000365146
0.000334838
0.00030503
0.000280461
3.74108e-05
7.32699e-05
0.000149093
0.000228135
0.000298834
0.000357526
0.000391142
0.00038897
0.000360876
0.000329574
0.000302608
3.69576e-05
6.94551e-05
0.000143173
0.000222057
0.000294273
0.000356519
0.000398241
0.000407005
0.000385861
0.000355377
0.000326597
3.60306e-05
6.47922e-05
0.000134404
0.000211862
0.000284138
0.000347824
0.000395444
0.000415596
0.000405593
0.000379854
0.000351218
3.46258e-05
5.92398e-05
0.000122635
0.000197065
0.000268166
0.000331648
0.000382544
0.000412234
0.000415452
0.000399142
0.000374574
3.26719e-05
5.3101e-05
0.000108433
0.000177738
0.000246281
0.000308342
0.000360283
0.000396492
0.000412141
0.000408857
0.000393875
3.01287e-05
4.65027e-05
9.24249e-05
0.0001541
0.000218214
0.000277731
0.00032923
0.000369256
0.000394819
0.000405701
0.000405504
2.69691e-05
3.94548e-05
7.52461e-05
0.000126709
0.000183777
0.000239131
0.000288987
0.000330978
0.00036378
0.000387627
0.000404732
2.3156e-05
3.20284e-05
5.77056e-05
9.69176e-05
0.000143695
0.000192108
0.000238352
0.000280389
0.000317753
0.00035147
0.000383332
1.87032e-05
2.43805e-05
4.08302e-05
6.69654e-05
0.000100454
0.000138011
0.000176859
0.000215298
0.000253
0.000290982
0.000330376
1.36471e-05
1.62329e-05
2.47448e-05
3.86901e-05
5.77656e-05
8.10864e-05
0.000107559
0.000136289
0.000166972
0.00020014
0.000236224
8.28026e-06
9.41793e-06
1.3465e-05
1.95601e-05
2.77837e-05
3.8216e-05
5.09678e-05
6.63585e-05
8.49861e-05
0.000107535
0.000134625
9.59941e-06
1.36413e-05
1.52701e-05
1.606e-05
1.64932e-05
1.64202e-05
1.59104e-05
1.55523e-05
1.56417e-05
3.07695e-05
3.92453e-05
5.95121e-05
8.57542e-05
0.000102166
0.000112966
0.000118498
0.000108959
9.83997e-05
5.38135e-05
7.70507e-05
0.000115566
0.000156245
0.000174404
0.000186712
0.000189369
0.000174843
0.000163418
7.60597e-05
0.000111337
0.000161419
0.000206614
0.000216902
0.00022123
0.000218694
0.000202288
0.000193884
7.09493e-06
6.60275e-06
6.66286e-06
9.02489e-06
1.22195e-05
1.4058e-05
1.49958e-05
1.54388e-05
1.56669e-05
2.52604e-05
2.63594e-05
2.35914e-05
2.44097e-05
2.90229e-05
3.91334e-05
5.51548e-05
7.49595e-05
8.73833e-05
3.93219e-05
4.19683e-05
4.09338e-05
4.42848e-05
5.62313e-05
7.77662e-05
0.000106777
0.000135178
0.000150986
5.39895e-05
5.86084e-05
6.11442e-05
6.70581e-05
8.27513e-05
0.000110612
0.000145549
0.00017511
0.000187953
0.000195912
0.000229751
0.000229793
0.000102375
0.000353197
0.000229194
9.27023e-05
0.000229657
0.000229181
0.000233585
0.000346529
0.000229653
0.00013116
0.000212669
0.000123954
0.000228736
0.000185133
9.90415e-05
0.000228738
0.000228696
0.000229561
3.17155e-05
0.000229944
0.000218591
0.000229277
0.000212384
0.000139034
9.12113e-05
0.000227202
0.000533799
0.000170074
0.000235599
0.000180766
0.000229505
0.000240873
0.00022971
0.000206997
0.00022926
0.000164757
0.000229123
1.73058e-05
0.000229536
9.73263e-05
0.000229919
0.000471511
4.71486e-05
6.40819e-05
9.32429e-05
0.000239396
0.000229462
0.000517714
0.000229156
0.000413415
9.35918e-05
0.000229391
0.000229366
3.27202e-05
0.000229172
0.000232063
0.000185594
3.31645e-05
0.00040691
0.000449888
0.000305687
2.31429e-05
0.000228693
0.000721076
0.000232388
0.000229746
0.000233081
0.000185951
0.000232323
7.84978e-05
0.000238387
0.000216412
0.000230883
2.08739e-05
0.000229709
0.000169462
0.000405991
0.000427869
0.000272779
0.000229291
0.000229797
0.000247384
7.58214e-05
0.000353495
0.000369977
5.07794e-05
0.000211747
0.000229489
0.000229236
2.02868e-05
0.000233217
0.000400391
0.000150126
0.000178345
0.000235703
4.83921e-05
0.000234015
0.000250717
8.65952e-05
0.000229844
0.000236297
6.05263e-05
0.000229516
0.000178166
0.000229869
0.000129524
0.000234411
0.000229537
0.000229576
0.000230641
0.000113635
5.62832e-05
0.000228994
0.000229049
0.000228902
0.000229633
0.000229034
0.000118724
0.000237394
0.000245576
0.000199572
4.1988e-05
0.000197005
0.000284882
0.000170398
0.000190693
0.000162397
0.000229389
0.000178469
8.79471e-05
0.00023122
0.000229772
0.000229942
2.00562e-05
0.00022332
0.000508698
0.000244154
0.000109316
0.000231215
0.00026085
0.000167793
0.000229026
3.73582e-05
0.000112438
0.000231884
0.000234541
0.000229615
0.000229698
0.000229315
3.88518e-05
0.000236636
0.000110572
8.40821e-05
5.67771e-05
3.04626e-05
0.000164031
0.000228827
0.000215502
5.28146e-05
0.000231874
0.000229003
0.000781193
0.000106917
6.72698e-05
0.000247323
0.000234482
2.4117e-05
0.00020017
0.000151322
0.000232923
0.000229471
0.000234876
0.000220102
0.000147522
3.84945e-05
0.000468225
0.000199482
0.000231393
2.53122e-05
0.00022993
0.000129045
0.00022955
0.000250689
0.000230309
0.000228912
0.00022972
0.000217539
0.000130354
0.000215844
0.000228609
1.81574e-05
0.000229771
0.000228923
0.000229327
4.84917e-05
0.000154944
0.00023
3.60365e-05
0.0002298
0.00012464
0.000162022
0.000229818
0.000371929
0.000232808
0.000191409
0.000229256
0.000228709
0.000232339
0.000228966
0.000175027
0.000238598
0.000229408
0.000369893
0.000229371
4.43468e-05
0.000230171
0.000101397
0.000124112
0.000107468
0.000167144
5.52138e-05
0.000199783
0.000229192
0.000107408
0.000107992
0.00014195
0.000444676
3.28755e-05
0.000228581
0.000229892
0.000237615
3.81463e-05
0.000313216
0.000676785
0.000229886
0.000229682
0.000229679
4.47508e-05
0.000375142
0.000236407
1.9406e-05
0.000238773
5.43793e-05
0.000229442
0.000160122
0.00015839
0.000558779
0.000160305
0.000237515
0.000234436
0.000228859
0.000233545
0.000229257
0.000229368
0.000229204
4.84221e-05
0.000230483
0.000118989
0.00019231
0.000228192
0.000229656
0.000229515
6.26062e-05
0.000231552
0.000241506
0.000159391
0.000178317
0.000200834
0.000229249
0.000229863
6.43081e-05
0.000229108
0.000228886
0.000197135
0.000229279
0.000238143
5.86299e-05
0.000233444
0.000229685
0.000438088
0.000621691
0.000233181
0.000229043
0.000463117
0.000229694
0.000237694
0.000110368
0.000229763
0.000103114
0.000243069
0.000147312
0.00023
0.000229201
0.000233908
0.000229654
0.000240326
0.000197554
0.000229472
0.000136901
0.000242276
0.000527185
0.000229335
0.000234566
0.000229713
0.000119708
2.63629e-05
0.000228967
5.63578e-05
0.000229552
0.000233592
0.000182336
2.39735e-05
0.000231563
0.000182799
8.1247e-05
0.000228677
0.000235557
0.000229986
0.000255872
0.000228881
0.000189116
0.000168265
0.000236408
0.000229223
0.00021329
0.000228277
0.000585652
0.000236468
0.000444273
1.95575e-05
0.000229883
0.000107019
0.000235002
6.01217e-05
0.000229687
0.000229322
0.000239082
4.99596e-05
0.000233131
0.000229989
0.000105145
0.000183463
0.000121306
9.00257e-05
0.000228949
0.000173555
0.000351312
6.15946e-05
0.00023584
0.000178384
0.000229381
0.000105171
0.000230036
0.000117803
0.000206661
0.00022992
0.000612056
0.000135374
0.000214818
0.000229396
0.000229355
0.000229573
5.9269e-05
0.000160493
9.96457e-05
7.46964e-05
0.000241012
0.000229253
0.000123456
0.000200485
0.000197312
0.000110152
0.00022975
0.000151879
0.000240739
0.000229052
0.000229539
0.000432804
0.000228929
3.706e-05
0.0002292
0.000216241
0.000785794
0.000127173
0.000198642
0.000353135
5.18652e-05
0.000229363
5.02773e-05
0.000187108
0.000242856
0.00078225
2.17526e-05
0.000229361
0.000229259
0.000229763
5.22455e-05
4.83086e-05
0.000228942
0.000229931
0.000116288
0.000151865
1.60578e-05
0.000118856
0.000110645
0.000229779
0.000250766
0.000243614
0.000228726
0.000135748
0.000140304
4.42443e-05
0.000233578
0.0001289
0.000241539
0.000177173
5.35931e-05
0.000242957
0.000142549
9.5986e-05
0.00014228
0.000227063
0.000233941
0.0002374
7.41234e-05
0.000238779
2.81531e-05
0.000229326
3.71343e-05
0.000209561
0.000228559
0.00024059
0.000103477
0.000228195
0.000454296
0.000199292
0.000230033
0.000236328
0.00037946
0.000119181
0.000131359
0.000234579
8.79748e-05
0.000267258
2.70663e-05
0.000228876
4.26256e-05
0.000229416
0.000229749
0.00022935
5.50723e-05
9.28422e-05
7.48367e-05
0.000201416
3.36891e-05
8.08771e-05
0.000229701
0.000228899
0.000299338
0.000175162
0.000233579
0.000243046
4.09165e-05
4.44691e-05
2.96836e-05
2.93526e-05
0.000235924
0.000211595
8.86836e-05
0.000229799
3.31956e-05
0.000237962
0.000229699
0.000229152
8.05672e-05
3.73447e-05
0.000230058
0.000229095
0.000229567
0.000418233
2.25684e-05
0.00022987
3.9392e-05
0.000446354
0.000156471
9.85391e-05
0.000228774
3.82288e-05
0.000228939
0.000237567
0.000229148
0.000178767
0.000144984
0.000228654
0.000188554
0.000168599
0.000240244
0.00022564
0.000213419
0.000229554
0.000229473
0.000213128
9.14407e-05
0.000100948
0.000236831
8.06919e-05
0.000229761
0.000412484
0.000104178
4.87627e-05
0.000106618
0.00024997
0.00070385
5.4333e-05
0.000188256
0.000229196
0.000182344
0.000228767
0.000229679
0.000229175
0.000229691
0.000234415
0.000420726
0.000229658
0.000228797
0.000134244
0.000229437
4.16306e-05
0.00024673
0.000113476
0.000172813
5.29252e-05
0.000229998
0.000229252
0.000229812
1.92261e-05
3.74526e-05
0.00022939
0.000229271
0.000199752
0.000229747
0.000101637
0.000229703
0.000491072
0.000236785
3.33012e-05
0.000162681
0.000125446
5.50166e-05
0.000449951
0.000229398
0.00023159
0.000234388
0.000229748
0.0001026
2.69956e-05
0.000223889
0.000152358
0.000194056
0.000127665
0.000229287
0.000229819
0.000229681
0.000258411
0.000747307
8.3598e-05
0.000229526
0.000229007
0.000614091
0.00023101
0.000159873
0.000184409
0.000112562
0.000286959
0.000229213
8.77043e-05
0.000229219
5.93297e-05
0.000229452
0.000233018
0.000143108
0.000234554
2.55147e-05
0.000113124
0.000229821
0.000229977
0.000406225
0.000228918
0.000181168
0.000174202
5.48673e-05
0.000248122
5.06613e-05
0.000168775
0.000230831
0.00022941
0.000229539
0.000141628
6.38939e-05
0.00011022
0.000228671
0.000229323
0.000103847
0.000230578
0.000235417
0.000238827
0.000232499
0.000161967
8.14254e-05
5.5827e-05
0.00015979
0.000233368
0.000225209
0.000228841
0.000128841
0.000230789
0.000229513
0.000161208
0.000319893
0.000228929
0.000228894
2.02543e-05
0.000230007
0.000228872
0.000147643
0.000229723
0.000234385
0.000117135
0.000154504
0.000157745
0.000205734
0.000151457
7.83868e-05
0.00016615
6.64346e-05
9.99952e-05
0.000177093
6.1084e-05
5.67186e-05
0.000126578
0.000229766
0.000230437
0.000161673
0.000229843
0.000229851
0.000237184
0.000209559
0.000100852
0.000156867
0.000191446
0.000231787
0.000229126
0.000192004
0.000229551
0.000229167
0.000236555
8.45682e-05
0.000230997
0.000238912
0.000231655
0.000229725
0.000208401
6.19356e-05
0.000428795
0.000231075
0.000231365
0.000189807
0.000160051
0.000234627
0.000185688
0.000230834
0.000219408
0.000172846
0.00022918
9.23726e-05
0.000229924
0.000184868
0.000318406
0.000161785
0.000130181
0.000213723
0.000246348
0.000229826
9.89214e-05
0.000175306
5.08386e-05
0.000313019
0.000228921
0.000233382
0.000229815
0.000159805
0.000230242
4.29368e-05
0.000229536
0.000229215
0.00022902
0.000138813
6.72342e-05
0.000229601
0.000124288
0.000229223
0.000109022
0.000164259
0.000231038
0.000213994
2.01599e-05
0.000150879
0.000237007
0.00021019
0.00015156
0.000108384
0.000188993
9.3288e-05
0.000229259
0.000188639
0.000229554
0.000235873
5.14918e-05
0.000227503
3.79098e-05
0.000212723
0.000230734
0.000234358
0.000229062
4.4407e-05
0.00022969
0.000327072
0.000102043
0.000502585
0.000233258
0.000138203
0.000168994
0.000236121
0.000237773
0.000141387
3.87639e-05
8.76145e-05
0.0002296
0.000214579
0.000200028
0.000229516
4.67361e-05
0.000115311
0.000239327
0.000212173
0.000229031
0.000236478
0.000235095
0.000125048
0.000234051
0.000193198
0.000229595
0.000185429
0.000233012
0.000154063
9.12805e-05
0.000280876
0.000135387
0.000228927
0.000206153
5.23445e-05
0.000229152
0.000206744
0.000187241
8.48803e-05
0.000233472
3.07886e-05
0.000247779
5.74491e-05
0.000162898
0.000248006
0.000229171
0.00024746
0.000229079
0.000113112
2.04201e-05
0.00023004
0.000229619
0.000251366
0.000444583
0.000291353
0.000169199
0.000229666
0.000184183
0.000240298
0.000229564
0.000229691
0.00022979
0.000229519
0.000238275