/*--------------------------------*- C++ -*----------------------------------*\
| =========                 |                                                 |
| \\      /  F ield         | OpenFOAM: The Open Source CFD Toolbox           |
|  \\    /   O peration     | Version:  3.0.1                                 |
|   \\  /    A nd           | Web:      www.OpenFOAM.org                      |
|    \\/     M anipulation  |                                                 |
\*---------------------------------------------------------------------------*/
FoamFile
{
    version     2.0;
    format      ascii;
    class       volVectorField;
    location    "0.406619";
    object      U;
}
// * * * * * * * * * * * * * * * * * * * * * * * * * * * * * * * * * * * * * //

dimensions      [0 1 -1 0 0 0 0];

internalField   nonuniform List<vector> 
21246
(
(5.36617 -0.973698 -3.52e-19)
(5.07152 -0.982598 1.96167e-19)
(4.89839 -0.86086 3.07385e-19)
(4.75902 -0.722097 -2.39736e-19)
(4.61655 -0.597286 0)
(4.4687 -0.489891 -3.02035e-20)
(4.32248 -0.400154 -7.1099e-20)
(4.17917 -0.328074 0)
(4.03828 -0.27221 6.66225e-20)
(3.90205 -0.233045 -6.67036e-20)
(3.77814 -0.218093 -8.04245e-20)
(4.65079 -1.77812 8.96452e-20)
(4.65251 -1.53575 6.78725e-20)
(4.63801 -1.31963 2.21044e-19)
(4.58409 -1.10338 -1.92067e-19)
(4.49808 -0.915186 2.81151e-19)
(4.38912 -0.758289 8.77802e-20)
(4.26765 -0.630152 0)
(4.14109 -0.52682 0)
(4.01336 -0.444563 -1.33107e-19)
(3.88791 -0.38275 -1.73155e-19)
(3.77149 -0.349281 4.74091e-21)
(3.91186 -2.06066 0)
(4.18569 -1.79283 -1.19877e-19)
(4.30636 -1.61806 0)
(4.34911 -1.4115 -1.25075e-19)
(4.33502 -1.20728 -1.55125e-19)
(4.2782 -1.02171 -1.65593e-19)
(4.19297 -0.861271 2.11562e-19)
(4.09145 -0.726154 0)
(3.9808 -0.61639 1.32716e-19)
(3.86555 -0.534736 2.84674e-19)
(3.75501 -0.478492 2.07031e-19)
(3.56982 -2.06384 -3.88424e-19)
(3.76838 -1.87201 0)
(3.91987 -1.77705 0)
(4.04925 -1.62003 9.95088e-20)
(4.11594 -1.43542 8.33492e-20)
(4.12149 -1.24734 9.04534e-20)
(4.08001 -1.07449 -1.88402e-19)
(4.00758 -0.924493 -1.23758e-19)
(3.91747 -0.796018 7.9045e-20)
(3.81944 -0.686654 -1.59608e-19)
(3.72042 -0.605535 -1.39298e-19)
(3.377 -2.0068 2.45173e-19)
(3.54104 -1.85114 -1.99086e-19)
(3.647 -1.81862 2.17587e-19)
(3.76284 -1.72145 -2.61543e-19)
(3.85345 -1.58495 -1.45769e-19)
(3.90357 -1.4225 1.10861e-19)
(3.90943 -1.25188 9.62078e-22)
(3.87744 -1.08804 -4.09466e-21)
(3.81786 -0.940405 8.79638e-20)
(3.74149 -0.813956 -4.80508e-22)
(3.65848 -0.716332 4.30987e-20)
(3.25009 -1.93665 -1.33386e-19)
(3.3851 -1.80419 1.12474e-19)
(3.45708 -1.79837 0)
(3.55652 -1.73078 0)
(3.64336 -1.63202 2.4641e-19)
(3.70413 -1.50353 1.44284e-20)
(3.73162 -1.35611 -1.93595e-19)
(3.72673 -1.20315 6.06701e-20)
(3.69529 -1.05588 1.83985e-21)
(3.64499 -0.922788 -3.08949e-20)
(3.58411 -0.814933 -8.18492e-20)
(3.16379 -1.86913 3.78943e-21)
(3.25503 -1.75892 0)
(3.30261 -1.7694 -2.03353e-19)
(3.38595 -1.71346 3.62293e-19)
(3.46097 -1.63835 -1.6342e-19)
(3.52061 -1.53637 -1.73741e-19)
(3.55785 -1.41266 8.46246e-20)
(3.57062 -1.27703 0)
(3.56078 -1.13935 4.11743e-20)
(3.53194 -1.0084 7.16376e-20)
(3.4884 -0.897002 -3.18131e-20)
(3.07527 -1.84676 -7.62457e-23)
(3.14056 -1.73343 1.71217e-21)
(3.18119 -1.7344 -1.19114e-19)
(3.24681 -1.6887 2.43592e-19)
(3.30837 -1.62685 -1.03249e-19)
(3.36126 -1.54229 3.21503e-20)
(3.39998 -1.4374 7.60872e-21)
(3.42193 -1.31875 0)
(3.42706 -1.19405 3.44614e-20)
(3.41712 -1.0706 -7.05814e-20)
(3.39324 -0.964355 3.08136e-20)
(2.98658 -1.83224 -6.164e-20)
(3.04529 -1.71216 5.2964e-20)
(3.0752 -1.70659 0)
(3.12743 -1.66518 -1.1493e-20)
(3.17801 -1.60951 -8.48988e-20)
(3.22318 -1.5352 1.57407e-19)
(3.2594 -1.44326 -3.11993e-19)
(3.28481 -1.33797 3.07546e-19)
(3.29892 -1.22469 -2.61797e-20)
(3.30198 -1.10943 -4.78659e-20)
(3.2913 -1.00646 -3.50607e-20)
(2.90757 -1.81642 -2.14299e-20)
(2.96017 -1.69055 -3.1298e-20)
(2.97853 -1.68217 4.29412e-20)
(3.02077 -1.64261 -2.02431e-20)
(3.06247 -1.59025 -1.81166e-20)
(3.10062 -1.52188 0)
(3.13312 -1.43817 1.94814e-19)
(3.15895 -1.34221 -1.17833e-19)
(3.17761 -1.23763 1.04922e-20)
(3.18802 -1.129 -1.74098e-19)
(3.18468 -1.02846 1.97783e-19)
(2.83923 -1.80583 3.87811e-20)
(2.881 -1.67314 0)
(2.88845 -1.66107 0)
(2.92217 -1.62116 -2.09144e-20)
(2.95631 -1.57 -2.91648e-20)
(2.98839 -1.50473 3.84928e-20)
(3.01719 -1.42592 0)
(3.04234 -1.33616 0)
(3.06361 -1.23818 1.98406e-19)
(3.07979 -1.13597 1.44337e-20)
(3.08519 -1.04364 -3.73383e-19)
(2.76992 -1.79988 1.45861e-21)
(2.79978 -1.6613 0)
(2.79978 -1.64324 0)
(2.82718 -1.60067 0)
(2.8554 -1.54867 0)
(2.88264 -1.48422 -9.1269e-20)
(2.90841 -1.4078 7.01582e-20)
(2.93285 -1.32177 -9.55825e-20)
(2.95611 -1.22832 8.23895e-20)
(2.97703 -1.13061 8.49235e-21)
(2.98877 -1.04109 -1.13255e-19)
(2.69476 -1.7902 8.12129e-21)
(2.71594 -1.64762 1.44465e-19)
(2.71056 -1.62453 1.6231e-20)
(2.73318 -1.57907 -1.22573e-20)
(2.75688 -1.52532 1.67952e-21)
(2.78054 -1.46018 0)
(2.80424 -1.38422 2.96105e-20)
(2.82853 -1.29975 7.8987e-20)
(2.85376 -1.20862 1.28429e-20)
(2.8786 -1.11272 -1.23153e-19)
(2.89389 -1.02183 1.84045e-19)
(2.62182 -1.77971 0)
(2.63387 -1.63088 0)
(2.62156 -1.60349 -3.41747e-20)
(2.63937 -1.55508 1.21398e-20)
(2.65915 -1.49897 1.23957e-21)
(2.68018 -1.43201 -4.68586e-20)
(2.7028 -1.35505 6.72935e-21)
(2.72773 -1.27055 0)
(2.75536 -1.18043 -1.18457e-19)
(2.78426 -1.08625 8.87488e-20)
(2.80425 -0.999046 -1.79602e-19)
(2.54669 -1.77063 0)
(2.54758 -1.61482 1.55901e-20)
(2.52992 -1.58066 8.08704e-20)
(2.54401 -1.5277 -4.32638e-20)
(2.56085 -1.46801 -2.19079e-20)
(2.58029 -1.39808 2.94365e-20)
(2.60299 -1.3189 -2.13738e-20)
(2.62981 -1.23326 0)
(2.66097 -1.14335 -9.47721e-20)
(2.69486 -1.05028 1.5813e-19)
(2.7198 -0.963428 -1.39981e-19)
(2.46534 -1.75417 0)
(2.45653 -1.59353 -3.21724e-20)
(2.43506 -1.55262 0)
(2.44626 -1.49477 2.05763e-20)
(2.46103 -1.43074 -1.23323e-20)
(2.48001 -1.35683 1.23818e-21)
(2.50423 -1.27443 2.25027e-20)
(2.53455 -1.18687 1.39753e-20)
(2.57078 -1.09691 -1.18111e-19)
(2.61099 -1.00531 1.01494e-19)
(2.64196 -0.920276 -6.31513e-20)
(2.38361 -1.73181 0)
(2.3651 -1.56531 1.67602e-20)
(2.3383 -1.51792 2.48276e-20)
(2.34614 -1.45483 4.87708e-20)
(2.35922 -1.38559 -2.5351e-20)
(2.37886 -1.30659 3.7558e-21)
(2.40634 -1.22004 -3.21426e-21)
(2.44227 -1.13019 -1.47745e-20)
(2.48552 -1.04067 6.21457e-21)
(2.53343 -0.951965 1.36586e-20)
(2.57084 -0.871069 -8.35786e-20)
(2.30059 -1.70632 0)
(2.2703 -1.53351 0)
(2.23802 -1.47693 -2.55411e-20)
(2.24278 -1.40647 -2.08031e-20)
(2.25505 -1.33017 4.22196e-20)
(2.27705 -1.24462 -5.17632e-20)
(2.31017 -1.15322 0)
(2.35441 -1.06146 -5.94723e-21)
(2.407 -0.973798 2.00279e-21)
(2.46418 -0.890126 2.47289e-20)
(2.50856 -0.814875 1.46195e-20)
(2.21451 -1.67095 0)
(2.17052 -1.49424 0)
(2.13368 -1.42617 0)
(2.13585 -1.34664 2.15198e-20)
(2.14892 -1.26143 1.08755e-20)
(2.17575 -1.16806 6.77962e-20)
(2.21769 -1.07162 -2.48031e-20)
(2.27365 -0.978976 1.40173e-20)
(2.33781 -0.895965 0)
(2.40544 -0.820569 6.67761e-21)
(2.45776 -0.753322 5.71764e-22)
(2.12659 -1.62088 0)
(2.06664 -1.44299 0)
(2.02593 -1.36087 -1.77983e-19)
(2.02684 -1.27 2.74718e-19)
(2.04362 -1.17371 -1.17404e-19)
(2.07944 -1.07161 0)
(2.13463 -0.971352 4.58798e-20)
(2.20524 -0.881782 -4.33288e-20)
(2.28221 -0.807849 4.10029e-20)
(2.35908 -0.745324 -2.10454e-20)
(2.41822 -0.689373 -1.18667e-20)
(2.03807 -1.55604 0)
(1.96009 -1.37341 3.20351e-19)
(1.91665 -1.27515 2.03187e-20)
(1.91969 -1.17018 -1.96338e-19)
(1.94479 -1.06138 -1.70246e-19)
(1.99517 -0.951578 1.28158e-19)
(2.06838 -0.851586 -6.40705e-20)
(2.15593 -0.770975 6.98891e-20)
(2.24526 -0.712067 3.51583e-20)
(2.32831 -0.667562 -6.95567e-22)
(2.3918 -0.627276 1.01988e-20)
(1.95629 -1.42256 -5.87441e-19)
(1.84702 -1.27702 -3.63818e-20)
(1.814 -1.15678 4.09553e-19)
(1.8238 -1.03771 -6.40409e-19)
(1.86434 -0.918284 5.21301e-19)
(1.9359 -0.805718 -2.01117e-19)
(2.03048 -0.713741 -3.18321e-20)
(2.13404 -0.65068 1.1696e-19)
(2.23184 -0.613893 -1.30527e-20)
(2.31588 -0.591734 5.43466e-20)
(2.37934 -0.570512 -4.47541e-20)
(1.81666 -1.53115 1.31712e-20)
(1.76253 -1.22019 -8.02665e-19)
(1.71253 -1.05449 0)
(1.74954 -0.894436 2.85175e-19)
(1.82065 -0.756177 -3.34014e-19)
(1.91907 -0.645912 1.87369e-19)
(2.03408 -0.571605 0)
(2.14826 -0.534079 3.41228e-20)
(2.24649 -0.523497 1.44943e-19)
(2.32327 -0.524717 7.72633e-20)
(2.37869 -0.522428 -7.19261e-20)
(2.02096 -0.634531 -3.8234e-19)
(1.65147 -0.792339 2.3565e-19)
(1.7523 -0.651574 0)
(1.80947 -0.573711 4.60259e-19)
(1.89659 -0.494065 -3.4575e-19)
(2.006 -0.435879 -4.06679e-19)
(2.11929 -0.411525 0)
(2.2202 -0.417485 -4.27638e-20)
(2.29948 -0.441353 -2.79719e-19)
(2.35539 -0.469196 -1.64336e-19)
(2.39328 -0.487592 8.33384e-20)
(5.04724 -0.618151 -2.50997e-20)
(4.65922 -0.599673 -4.43409e-20)
(4.76866 -0.535836 0)
(4.8256 -0.446452 -1.77112e-20)
(4.75839 -0.346706 0)
(4.61006 -0.252147 -5.12968e-20)
(4.43396 -0.184075 8.39959e-20)
(4.25746 -0.134997 0)
(4.08765 -0.0960104 -6.78305e-20)
(3.92889 -0.0738512 -3.00331e-20)
(3.78686 -0.0756738 2.20643e-20)
(4.56142 -1.59216 1.15395e-19)
(4.39081 -1.10605 4.60283e-19)
(4.54728 -0.728987 0)
(4.69752 -0.466192 -6.5444e-20)
(4.74534 -0.264316 1.12661e-19)
(4.69343 -0.101535 0)
(4.56473 0.012555 2.64042e-20)
(4.37221 0.0782804 -3.77223e-20)
(4.1461 0.103445 0)
(3.95332 0.105739 0)
(3.78393 0.0860478 -9.80877e-21)
(5.00214 -3.06051 -5.95363e-19)
(4.72349 -2.27798 0)
(4.61517 -1.41017 -4.20193e-20)
(4.6607 -0.827911 3.66149e-19)
(4.71534 -0.40461 -5.51508e-20)
(4.71124 -0.0836947 -1.28488e-19)
(4.62912 0.146868 -3.44002e-20)
(4.46757 0.286944 -2.18785e-20)
(4.23866 0.339078 8.92446e-21)
(3.97108 0.324824 -7.76854e-21)
(3.77229 0.287067 3.77005e-20)
(5.26381 -3.0603 -1.66858e-18)
(5.07503 -2.8858 1.24815e-18)
(4.88999 -2.3005 4.40877e-20)
(4.75977 -1.4448 2.7732e-21)
(4.74054 -0.761322 4.25956e-19)
(4.724 -0.228379 -5.77814e-20)
(4.6538 0.172003 -2.35166e-19)
(4.51065 0.442082 5.83778e-20)
(4.29377 0.578207 -4.24223e-21)
(4.01419 0.59012 0)
(3.74552 0.517854 -5.17112e-20)
(5.49566 -3.27623 -1.86005e-21)
(5.39271 -3.0826 -2.57563e-21)
(5.23106 -2.75541 -8.98501e-20)
(5.03579 -2.1459 -8.15378e-19)
(4.86665 -1.28829 6.03671e-19)
(4.77301 -0.533961 -3.33241e-19)
(4.67048 0.0691078 4.6506e-19)
(4.51606 0.508743 4.83497e-19)
(4.29741 0.774611 6.50499e-20)
(4.01433 0.863729 -2.29585e-19)
(3.71798 0.806021 8.04497e-20)
(5.71436 -3.5033 0)
(5.69354 -3.27081 2.87787e-19)
(5.54335 -2.99524 1.542e-18)
(5.35576 -2.54792 -1.90612e-18)
(5.1168 -1.84712 1.11034e-18)
(4.89399 -0.963461 -1.39578e-19)
(4.70712 -0.165079 -1.13553e-18)
(4.50177 0.466369 7.60654e-19)
(4.25367 0.894667 -1.05764e-19)
(3.95583 1.1011 0)
(3.62432 1.09776 -4.17881e-19)
(5.90548 -3.70948 -3.05106e-18)
(5.95558 -3.45455 2.3956e-18)
(5.81481 -3.21773 5.03976e-19)
(5.63135 -2.81635 1.51709e-18)
(5.38951 -2.25412 -2.04302e-19)
(5.08017 -1.42274 -1.39832e-18)
(4.7811 -0.502438 0)
(4.48462 0.308215 1.03869e-18)
(4.17098 0.913371 1.27977e-19)
(3.83521 1.26556 -9.05426e-19)
(3.48975 1.35805 6.69709e-19)
(6.06812 -3.88971 4.34462e-19)
(6.16727 -3.62685 -3.01903e-19)
(6.02895 -3.43436 9.30171e-20)
(5.85239 -3.06634 8.5047e-20)
(5.60355 -2.56205 1.4033e-18)
(5.2802 -1.86744 -6.00759e-19)
(4.88012 -0.907412 8.2213e-19)
(4.46899 0.0389727 -1.59396e-18)
(4.0568 0.813017 -9.3018e-19)
(3.65119 1.32298 -1.98523e-18)
(3.27904 1.54665 1.70564e-18)
(6.20495 -4.04263 -2.24256e-18)
(6.33166 -3.78122 5.65049e-18)
(6.18547 -3.63626 -4.2092e-19)
(6.01461 -3.30643 7.0083e-19)
(5.76304 -2.85642 -7.32584e-19)
(5.41768 -2.23468 -2.74676e-18)
(4.9662 -1.36049 -1.30558e-18)
(4.44777 -0.328083 3.3108e-18)
(3.91821 0.583711 0)
(3.42477 1.24598 -1.67878e-18)
(2.98909 1.59264 2.26183e-19)
(6.30952 -4.1615 1.84845e-18)
(6.44894 -3.91374 -1.43104e-18)
(6.28531 -3.81827 -2.52798e-18)
(6.11599 -3.53134 -2.21523e-18)
(5.86053 -3.14625 2.50601e-18)
(5.50583 -2.60246 3.0199e-18)
(5.01814 -1.84005 0)
(4.41247 -0.78525 0)
(3.75821 0.220084 4.88089e-18)
(3.15655 1.00479 -2.31539e-18)
(2.65636 1.47343 1.55892e-18)
(6.36497 -4.24809 0)
(6.51365 -4.02864 0)
(6.32812 -3.97379 6.41428e-19)
(6.15557 -3.73544 3.32836e-18)
(5.89312 -3.42314 -1.79329e-18)
(5.53 -2.97011 -5.07245e-18)
(5.02392 -2.31809 2.7298e-18)
(4.35125 -1.35267 0)
(3.58753 -0.274873 -1.74781e-18)
(2.87102 0.597544 -2.78692e-18)
(2.29863 1.17706 2.44046e-19)
(6.36726 -4.3292 4.34379e-19)
(6.51165 -4.13278 3.14974e-18)
(6.31832 -4.0987 -5.77354e-18)
(6.13238 -3.92261 9.97337e-19)
(5.85926 -3.68613 0)
(5.48599 -3.33359 1.75455e-18)
(4.97496 -2.80793 0)
(4.25674 -2.01101 0)
(3.41677 -0.901153 7.38475e-20)
(2.59858 0.0218026 7.07921e-18)
(1.97489 0.683258 -1.90718e-18)
(6.33741 -4.37704 -2.12554e-18)
(6.44646 -4.20784 0)
(6.2505 -4.20166 -2.63836e-18)
(6.0451 -4.08995 8.55871e-19)
(5.75895 -3.92813 2.81957e-18)
(5.37411 -3.6778 -1.75675e-18)
(4.86377 -3.28917 1.75627e-18)
(4.14984 -2.69178 -2.55684e-18)
(3.2596 -1.62582 -6.47642e-18)
(2.36033 -0.710182 4.6389e-18)
(1.70704 0.0162728 -1.79584e-18)
(6.25632 -4.38143 3.23177e-18)
(6.31257 -4.25953 -4.13279e-18)
(6.11459 -4.2836 2.2318e-18)
(5.88694 -4.23533 0)
(5.58391 -4.147 -1.8493e-18)
(5.19044 -3.9929 0)
(4.68849 -3.74302 1.52544e-18)
(4.04007 -3.35188 0)
(3.1533 -2.52963 1.23019e-19)
(2.18434 -1.52983 -3.10357e-18)
(1.50447 -0.779452 -1.95589e-18)
(6.10904 -4.35403 1.59387e-19)
(6.11026 -4.28948 0)
(5.90664 -4.34938 0)
(5.66327 -4.36814 0)
(5.35113 -4.35935 2.70733e-18)
(4.95727 -4.2999 9.30235e-19)
(4.46741 -4.16086 -1.27676e-18)
(3.85728 -3.89521 -2.42434e-18)
(3.10192 -3.40869 2.99905e-18)
(2.22993 -2.50164 0)
(1.41912 -1.6294 1.59744e-18)
(5.89009 -4.29036 -3.67987e-20)
(5.83218 -4.28533 1.10279e-19)
(5.61869 -4.38875 0)
(5.36609 -4.48004 0)
(5.05791 -4.55819 0)
(4.68714 -4.59817 -7.2336e-19)
(4.24762 -4.56671 7.05875e-19)
(3.72572 -4.41438 -5.02457e-19)
(3.09924 -4.06725 8.88931e-19)
(2.36447 -3.3925 0)
(1.60387 -2.57911 2.02474e-18)
(5.57742 -4.18767 -1.02386e-18)
(5.46392 -4.24027 -9.49064e-19)
(5.24076 -4.39725 2.1228e-18)
(4.99056 -4.56838 -2.60407e-18)
(4.70651 -4.73942 1.11112e-18)
(4.38683 -4.88016 0)
(4.03133 -4.95366 5.55756e-19)
(3.63205 -4.91006 -6.58963e-19)
(3.16532 -4.6864 -1.12973e-18)
(2.59681 -4.21615 1.16371e-18)
(1.93739 -3.53961 -6.69376e-19)
(5.14451 -4.05384 0)
(4.98756 -4.15653 5.94292e-19)
(4.76218 -4.37675 -4.16394e-19)
(4.53376 -4.63299 0)
(4.30075 -4.89578 1.09641e-18)
(4.06166 -5.12683 -8.49736e-19)
(3.81698 -5.28638 0)
(3.55953 -5.32688 -6.34283e-19)
(3.26269 -5.19713 3.64321e-19)
(2.88313 -4.85761 -5.02448e-19)
(2.38444 -4.30656 -1.3385e-19)
(4.58181 -3.90678 -2.84775e-19)
(4.40245 -4.03806 -4.09739e-20)
(4.19268 -4.31789 9.71842e-20)
(4.01367 -4.64515 5.91809e-19)
(3.86265 -4.97118 -6.47206e-19)
(3.7338 -5.2453 -5.08506e-19)
(3.62622 -5.42371 1.39818e-18)
(3.53194 -5.46287 -1.32888e-19)
(3.41708 -5.33398 1.72822e-19)
(3.23165 -5.04278 -1.28703e-19)
(2.95221 -4.62919 1.69839e-19)
(3.90107 -3.74175 0)
(3.68532 -3.7944 4.52308e-20)
(3.50407 -4.02646 -1.05893e-19)
(3.39984 -4.31035 -1.13282e-19)
(3.36836 -4.5937 2.56258e-19)
(3.39216 -4.82166 -3.71096e-19)
(3.4508 -4.92943 6.89426e-19)
(3.51385 -4.83394 -5.33901e-19)
(3.52947 -4.55708 0)
(3.42238 -4.22031 -2.65722e-19)
(3.17637 -3.76912 -2.87652e-19)
(2.96271 -3.32397 0)
(2.95777 -3.33008 -7.49245e-19)
(2.88462 -3.51756 4.41267e-19)
(2.86136 -3.7179 0)
(2.90165 -3.88811 0)
(3.01378 -3.94485 0)
(3.19813 -3.77264 3.61282e-19)
(3.37597 -3.33198 0)
(3.42866 -2.95163 0)
(3.30697 -2.69117 5.55372e-19)
(3.00089 -2.26857 1.29825e-19)
(2.46289 -3.12123 -2.59072e-19)
(2.40085 -3.02074 1.81042e-19)
(2.35939 -3.07503 0)
(2.40198 -3.11191 -4.24868e-19)
(2.54758 -3.03672 3.21599e-19)
(2.70605 -2.60103 -4.28897e-21)
(2.87035 -2.08485 -6.09395e-19)
(3.00718 -1.76005 -1.24973e-19)
(3.03674 -1.52768 3.82245e-19)
(2.95262 -1.3485 1.1496e-19)
(2.75429 -1.14965 8.1461e-20)
(1.7541 -3.11882 1.97213e-18)
(2.01555 -2.44861 -1.81086e-18)
(2.04291 -2.33732 1.97703e-18)
(2.12796 -2.03941 -5.04287e-19)
(2.23939 -1.58997 -6.37272e-19)
(2.37849 -1.19576 -1.82525e-19)
(2.51085 -0.92925 -6.72923e-19)
(2.60095 -0.768791 -2.83511e-19)
(2.63426 -0.683518 -3.98033e-19)
(2.61001 -0.645414 -4.60853e-19)
(2.53925 -0.613854 0)
(1.78456 -1.53551 0)
(1.70346 -1.51335 -2.50929e-18)
(1.79257 -1.22652 1.66365e-18)
(1.905 -0.929787 0)
(2.01323 -0.686619 7.0442e-19)
(2.11886 -0.525133 7.71688e-19)
(2.21961 -0.440334 1.47795e-19)
(2.30597 -0.414105 1.49931e-19)
(2.3697 -0.425446 3.96427e-19)
(2.40584 -0.453909 1.3886e-19)
(2.41741 -0.477227 -7.68074e-20)
(-2.02765 -0.0686511 -4.88458e-19)
(-1.19378 -0.504867 1.87906e-18)
(-0.142205 -0.547228 -5.27095e-19)
(0.621343 -0.451748 4.7477e-19)
(1.14566 -0.314055 0)
(1.50593 -0.178437 3.66186e-19)
(1.76142 -0.0581125 -1.26882e-18)
(1.94842 0.0434099 -7.19269e-19)
(2.08953 0.124714 1.0033e-18)
(2.19545 0.186776 -9.23013e-19)
(2.26807 0.229636 -3.36166e-19)
(-1.42043 2.24191 -6.78208e-18)
(-0.527048 1.38788 0)
(-0.182116 1.03828 0)
(0.318426 0.63614 -2.04259e-18)
(0.786951 0.405314 1.66107e-18)
(1.20784 0.282341 5.6589e-19)
(1.53966 0.245293 -3.10965e-19)
(1.79383 0.249434 5.26379e-20)
(1.98421 0.268786 0)
(2.12452 0.28934 -3.4651e-19)
(2.22116 0.304218 -6.22977e-19)
(-0.319736 2.99997 -2.51429e-19)
(0.826355 2.00162 6.66243e-18)
(0.523725 2.0106 -5.02352e-18)
(0.710171 1.5252 0)
(0.921784 1.15375 4.50245e-19)
(1.21667 0.841806 -2.14886e-18)
(1.49182 0.645568 -1.28739e-19)
(1.73798 0.528706 1.48802e-18)
(1.94076 0.464881 -5.25441e-19)
(2.09978 0.430738 7.49101e-19)
(2.21443 0.411805 1.97899e-19)
(0.655939 2.90789 3.27171e-18)
(1.91743 2.04557 1.30317e-20)
(1.35761 2.40475 0)
(1.40231 1.94639 -2.39007e-18)
(1.36816 1.64726 1.9677e-18)
(1.48293 1.29133 1.67598e-18)
(1.62923 1.0192 -3.86924e-18)
(1.80217 0.816213 2.12474e-18)
(1.96859 0.677902 -1.22763e-18)
(2.11208 0.586177 4.01826e-19)
(2.22105 0.525285 4.67305e-19)
(1.32811 2.52108 -1.27559e-18)
(2.56872 1.89868 2.94209e-18)
(2.03815 2.40902 0)
(2.07271 2.00385 -1.69602e-19)
(1.87931 1.8657 0)
(1.87543 1.54398 0)
(1.89466 1.27988 2.54001e-19)
(1.9722 1.0476 -3.58718e-19)
(2.07484 0.867391 2.38843e-19)
(2.18184 0.734094 -3.07704e-19)
(2.2732 0.640474 -1.08086e-18)
(1.75275 2.06417 0)
(2.9417 1.68162 -2.94873e-18)
(2.489 2.22384 2.35012e-18)
(2.58492 1.87202 2.4221e-19)
(2.32703 1.87055 -1.93036e-19)
(2.26509 1.6163 0)
(2.19908 1.40655 3.23114e-19)
(2.19712 1.18994 0)
(2.23308 1.00425 0)
(2.29192 0.853821 0)
(2.35035 0.742096 -8.76663e-19)
(1.97416 1.63323 0)
(3.163 1.44207 3.61144e-19)
(2.77345 1.96279 -2.63388e-19)
(2.91354 1.68166 8.63369e-19)
(2.6657 1.75331 -3.68812e-19)
(2.58804 1.56521 0)
(2.47909 1.42148 -2.43502e-19)
(2.42686 1.24265 -1.63961e-19)
(2.4107 1.07681 0)
(2.42529 0.930436 0)
(2.45099 0.814322 7.49831e-20)
(2.05697 1.30799 0)
(3.26287 1.2329 0)
(2.95619 1.70123 0)
(3.11021 1.47969 0)
(2.89576 1.58803 2.52852e-19)
(2.82621 1.44919 -7.47934e-19)
(2.70452 1.36323 1.08631e-19)
(2.6284 1.22594 3.06486e-19)
(2.57916 1.09188 0)
(2.56065 0.963038 4.0673e-19)
(2.55732 0.85522 0)
(2.08628 1.06658 -5.00353e-19)
(3.29778 1.04819 0)
(3.06679 1.47468 2.32022e-18)
(3.22593 1.28794 -1.73963e-18)
(3.04293 1.41553 0)
(2.9888 1.30867 5.73912e-19)
(2.87008 1.26696 -4.51927e-19)
(2.78785 1.1653 -2.08572e-19)
(2.72208 1.06453 8.20829e-20)
(2.68299 0.958501 -4.01169e-19)
(2.65942 0.86594 0)
(2.06404 0.846919 -1.3709e-18)
(3.30469 0.859609 0)
(3.12606 1.27289 1.60935e-18)
(3.29108 1.10819 -7.41419e-19)
(3.13172 1.25218 -3.56199e-19)
(3.09355 1.16483 1.92737e-19)
(2.98354 1.15692 2.38015e-19)
(2.90476 1.08254 -2.04213e-19)
(2.83389 1.01183 -8.09864e-20)
(2.78549 0.928727 0)
(2.75131 0.854826 0)
(1.97044 0.633929 1.47492e-18)
(3.26201 0.679719 -2.15592e-18)
(3.13678 1.09442 -6.85663e-19)
(3.31608 0.943297 1.08923e-18)
(3.17628 1.10425 4.30066e-20)
(3.15468 1.02781 -3.60312e-19)
(3.05523 1.04716 6.57002e-19)
(2.98457 0.99241 -2.22357e-19)
(2.91521 0.947723 0)
(2.86504 0.885117 -6.09882e-20)
(2.82771 0.828826 0)
(1.83866 0.464741 2.62279e-19)
(3.18016 0.545935 -1.79743e-19)
(3.10852 0.9521 -9.24378e-19)
(3.30829 0.803211 1.16526e-18)
(3.18599 0.977372 -2.93634e-19)
(3.18202 0.903846 -9.81016e-20)
(3.09378 0.945774 2.91408e-20)
(3.03366 0.903765 0)
(2.9696 0.881314 -3.55281e-21)
(2.92201 0.835776 2.1281e-19)
(2.88507 0.796427 -1.14217e-19)
(1.72139 0.335982 -2.59306e-19)
(3.08795 0.439998 7.83734e-19)
(3.06485 0.833582 -8.13428e-19)
(3.28044 0.687444 4.01465e-20)
(3.17232 0.871649 0)
(3.18508 0.795263 1.04754e-19)
(3.10688 0.857265 -1.53393e-19)
(3.05825 0.82172 2.22167e-20)
(3.00154 0.81881 3.5369e-21)
(2.95966 0.786173 7.78188e-20)
(2.92659 0.76192 3.41541e-20)
(1.59542 0.215162 -6.5779e-19)
(2.97443 0.333963 9.46953e-19)
(3.01216 0.718581 -4.5645e-19)
(3.23534 0.592354 1.26052e-19)
(3.14616 0.776693 2.3794e-19)
(3.16881 0.705065 -7.13011e-20)
(3.10214 0.779477 0)
(3.06367 0.750024 -2.19882e-20)
(3.01579 0.763203 3.36692e-20)
(2.98119 0.741123 4.32754e-20)
(2.95508 0.729843 1.64711e-19)
(1.44474 0.117496 -4.17609e-19)
(2.8393 0.25328 3.73118e-20)
(2.94412 0.62134 3.50819e-20)
(3.17588 0.516183 1.46552e-19)
(3.10983 0.692864 -5.65795e-21)
(3.13804 0.631545 -2.33977e-20)
(3.08412 0.711887 0)
(3.05411 0.690265 1.31391e-20)
(3.01581 0.715697 -3.33229e-20)
(2.98964 0.703308 -7.06731e-20)
(2.97177 0.702873 -8.54201e-20)
(1.30752 0.0391427 0)
(2.6968 0.187694 0)
(2.86638 0.53452 -6.86272e-20)
(3.10427 0.45483 3.2435e-20)
(3.06499 0.618112 2.64839e-20)
(3.09535 0.572497 -5.53558e-21)
(3.05401 0.65425 -7.21046e-20)
(3.03336 0.642507 4.23425e-20)
(3.00459 0.677225 0)
(2.98799 0.674177 2.76668e-20)
(2.97954 0.681473 0)
(1.16971 -0.0361083 -8.50625e-20)
(2.53453 0.116573 0)
(2.77336 0.443977 -2.92314e-21)
(3.01748 0.400823 0)
(3.00825 0.548775 -2.31502e-21)
(3.04297 0.522825 5.5677e-21)
(3.01332 0.606221 0)
(3.00236 0.607913 0)
(2.98447 0.647965 0)
(2.97844 0.654749 0)
(2.98066 0.668023 0)
(1.00953 -0.0975874 4.588e-20)
(2.34425 0.0539698 -3.70045e-20)
(2.65512 0.357582 -1.41277e-20)
(2.91184 0.349747 0)
(2.93416 0.487214 -7.65102e-20)
(2.97734 0.484425 7.99601e-20)
(2.96259 0.566411 -3.94211e-21)
(2.96149 0.585113 2.19508e-19)
(2.95686 0.629354 -1.53404e-20)
(2.96294 0.645312 1.43767e-20)
(2.97676 0.662451 1.37909e-19)
(0.839009 -0.143694 -1.44312e-19)
(2.12644 0.00132355 1.17596e-19)
(2.50593 0.276408 -1.5278e-20)
(2.77925 0.299178 1.20452e-19)
(2.83796 0.429707 -1.41323e-20)
(2.89245 0.455535 -1.4299e-19)
(2.89817 0.53758 3.02308e-19)
(2.91124 0.574171 -1.84304e-19)
(2.923 0.622148 0)
(2.94304 0.645552 0)
(2.96929 0.664193 -1.4016e-19)
(0.657315 -0.174635 1.25098e-19)
(1.87324 -0.0424664 -3.04228e-19)
(2.3137 0.195723 3.23161e-20)
(2.60309 0.246343 0)
(2.70622 0.376954 0)
(2.78176 0.43427 5.75513e-20)
(2.81593 0.521136 3.07834e-20)
(2.85054 0.574665 0)
(2.88308 0.625808 -2.06137e-19)
(2.91933 0.654132 -1.27423e-19)
(2.95865 0.672959 0)
(0.448887 -0.185235 -2.18951e-19)
(1.56818 -0.0746576 9.52366e-19)
(2.0509 0.118866 -6.58541e-19)
(2.36007 0.192249 0)
(2.51764 0.337144 1.0043e-19)
(2.6316 0.423499 -7.51663e-19)
(2.70748 0.517294 -4.04233e-19)
(2.77466 0.583849 9.40854e-19)
(2.834 0.636678 1.70196e-19)
(2.88917 0.66714 5.39548e-19)
(2.942 0.685181 0)
(0.241559 -0.199476 1.15634e-19)
(1.20222 -0.101707 0)
(1.69243 0.0517156 4.07143e-19)
(2.02549 0.154653 -1.93237e-19)
(2.24705 0.322955 -4.96173e-19)
(2.41998 0.429796 1.11794e-18)
(2.55462 0.525119 -8.05585e-19)
(2.66785 0.595484 3.73421e-19)
(2.76154 0.646276 -4.95675e-19)
(2.83968 0.676427 -1.13047e-18)
(2.90885 0.697767 0)
(-0.116169 -0.158326 -1.94999e-18)
(0.727973 -0.186173 6.69617e-19)
(1.19288 0.0132867 0)
(1.56328 0.153782 0)
(1.86262 0.344171 8.53821e-19)
(2.1144 0.45253 5.64822e-19)
(2.32283 0.531161 1.29678e-18)
(2.49364 0.58828 3.09219e-19)
(2.62935 0.629755 -5.51992e-19)
(2.73599 0.65641 8.9914e-19)
(2.83023 0.683495 -3.62777e-19)
(0.0106589 -0.72436 -3.17368e-18)
(0.448426 -0.374608 -1.95926e-18)
(0.756306 -0.0800071 0)
(1.09066 0.147246 9.50452e-19)
(1.39853 0.37852 -2.16999e-18)
(1.68318 0.490741 7.7153e-19)
(1.93547 0.542309 -1.16672e-18)
(2.14825 0.568767 0)
(2.32303 0.585569 -2.53175e-19)
(2.46536 0.596688 -3.20739e-19)
(2.6089 0.625257 3.89348e-19)
(1.89074 -4.70445 6.2243e-18)
(1.50291 -3.25138 -6.20249e-18)
(1.47798 -2.30586 -6.01022e-18)
(1.57228 -1.52566 2.6659e-18)
(1.71614 -0.98847 -2.56265e-18)
(1.87052 -0.608921 2.00029e-18)
(2.00643 -0.342031 1.63974e-18)
(2.1195 -0.150501 -1.59145e-18)
(2.20976 -0.0100852 1.63349e-18)
(2.27942 0.0919733 -1.06108e-18)
(2.32796 0.161146 1.14785e-18)
(3.52973 -4.53902 2.94189e-19)
(3.31277 -2.26859 7.43341e-20)
(2.96879 -2.51052 9.38152e-19)
(2.61782 -1.90556 2.76304e-19)
(2.39085 -1.40152 1.16863e-18)
(2.29861 -0.940179 -1.49761e-18)
(2.28958 -0.581846 2.79104e-19)
(2.31559 -0.314248 -5.34015e-19)
(2.34901 -0.1184 -2.20293e-18)
(2.37789 0.0219629 5.21815e-19)
(2.39463 0.117502 0)
(4.1753 -3.44175 2.64922e-18)
(4.26562 -0.677944 0)
(4.08296 -1.95858 6.69966e-20)
(3.60968 -1.56298 5.76483e-20)
(3.19196 -1.35424 -4.33579e-20)
(2.87754 -1.01206 6.09291e-19)
(2.68443 -0.684451 8.23674e-19)
(2.58427 -0.403283 5.21534e-19)
(2.5308 -0.181408 1.39573e-19)
(2.50233 -0.0189112 8.72488e-19)
(2.48077 0.093944 3.99461e-19)
(4.13281 -2.22753 -5.28166e-18)
(4.55716 0.474544 0)
(4.64276 -1.12856 -2.10907e-18)
(4.23473 -0.826222 0)
(3.8309 -0.936871 0)
(3.4273 -0.784487 -3.93948e-19)
(3.10941 -0.590042 -2.35125e-19)
(2.89043 -0.369974 0)
(2.74839 -0.166929 0)
(2.65511 -0.0086951 -4.87952e-19)
(2.58942 0.106453 1.37303e-19)
(3.79426 -1.27492 -9.07914e-18)
(4.47475 1.11502 4.63747e-18)
(4.74196 -0.349617 -4.42975e-19)
(4.45982 -0.0589231 0)
(4.1789 -0.374329 1.56089e-18)
(3.80091 -0.371109 3.70541e-19)
(3.45429 -0.323892 9.95861e-19)
(3.16743 -0.205872 0)
(2.95881 -0.069583 0)
(2.80728 0.0570108 1.18087e-19)
(2.6971 0.15692 -1.33981e-19)
(3.40087 -0.602304 6.52158e-20)
(4.24552 1.47432 1.08971e-20)
(4.59476 0.244387 -1.03771e-18)
(4.4144 0.555686 -1.40502e-18)
(4.2668 0.159598 -5.70208e-19)
(3.96254 0.0904069 0)
(3.65488 0.023682 -7.37982e-19)
(3.36241 0.0401375 0)
(3.12276 0.0960572 -3.0302e-19)
(2.93237 0.169251 -1.57355e-19)
(2.78795 0.231787 6.28078e-20)
(3.02317 -0.129553 8.69924e-18)
(3.98834 1.69915 -1.05592e-17)
(4.36452 0.669683 -6.96624e-19)
(4.24117 1.00101 7.5463e-18)
(4.19468 0.590268 -3.99983e-18)
(3.96093 0.50694 6.96369e-19)
(3.71849 0.37012 0)
(3.45586 0.314399 -3.86736e-19)
(3.2173 0.299432 3.73633e-19)
(3.01291 0.314622 -4.912e-20)
(2.84823 0.330152 -1.18598e-19)
(2.69396 0.208276 7.03559e-18)
(3.7516 1.83451 6.26535e-19)
(4.127 0.975736 0)
(4.02821 1.31654 -6.01955e-19)
(4.0504 0.913638 -2.07678e-18)
(3.86161 0.84731 -2.51966e-19)
(3.68394 0.671497 3.38924e-19)
(3.45946 0.57626 1.34497e-18)
(3.24133 0.507003 0)
(3.03927 0.468684 1.71662e-20)
(2.8597 0.437715 1.00639e-19)
(2.41976 0.455734 1.2271e-17)
(3.54101 1.92421 -2.15805e-19)
(3.90595 1.20269 -3.40932e-18)
(3.81162 1.54637 -3.73585e-20)
(3.88334 1.15184 0)
(3.71148 1.11696 -5.48542e-19)
(3.59049 0.915646 9.54024e-19)
(3.39668 0.80472 -1.80916e-18)
(3.20675 0.695545 6.06841e-19)
(3.01354 0.611994 5.47354e-19)
(2.82285 0.528007 2.66459e-19)
(2.17249 0.650469 0)
(3.35905 1.99997 0)
(3.69401 1.37767 -5.86594e-18)
(3.60956 1.72361 4.63492e-18)
(3.70953 1.32738 -2.97541e-18)
(3.53822 1.33236 3.83234e-18)
(3.46579 1.10565 -1.19095e-18)
(3.29044 0.995644 8.11948e-19)
(3.12873 0.855801 -6.20863e-19)
(2.94563 0.740143 -8.62197e-19)
(2.74783 0.615757 -5.76374e-20)
(1.93098 0.775135 -1.02199e-17)
(3.17517 2.07722 3.80987e-18)
(3.47287 1.52241 0)
(3.42975 1.86488 -4.84467e-18)
(3.52415 1.46416 3.05956e-18)
(3.35877 1.50488 -8.62807e-19)
(3.32387 1.25024 2.72175e-18)
(3.15736 1.15242 -3.40261e-18)
(3.02215 0.986123 2.44606e-19)
(2.84937 0.849778 1.11756e-19)
(2.65393 0.706412 0)
(1.70559 0.843586 0)
(2.97499 2.13291 0)
(3.25907 1.63216 4.94222e-18)
(3.25633 1.97217 -2.96252e-18)
(3.32681 1.57819 0)
(3.18477 1.63943 0)
(3.16983 1.35872 -1.22645e-18)
(3.00959 1.27869 8.37891e-19)
(2.89869 1.08762 -9.8749e-19)
(2.73712 0.93763 1.8038e-18)
(2.55009 0.774194 0)
(1.49979 0.895869 0)
(2.76316 2.16537 -1.47027e-18)
(3.05527 1.72341 0)
(3.07417 2.04355 -1.64585e-18)
(3.12859 1.6738 1.39314e-18)
(3.01646 1.73047 0)
(3.00051 1.4463 -9.19529e-19)
(2.85624 1.36948 4.3941e-18)
(2.76209 1.16313 -3.19429e-20)
(2.61476 1.00224 -5.20488e-19)
(2.44297 0.807883 6.15511e-19)
(1.28811 0.936951 9.60217e-19)
(2.53121 2.17943 2.80061e-18)
(2.84675 1.80323 0)
(2.88661 2.08626 -1.58299e-18)
(2.93321 1.75229 1.26218e-19)
(2.84503 1.78698 0)
(2.8231 1.51518 -2.83028e-18)
(2.70142 1.42703 8.44765e-20)
(2.61877 1.21496 7.88635e-19)
(2.48828 1.04578 -5.66315e-19)
(2.3344 0.832538 -8.1781e-20)
(1.06863 0.952458 1.72282e-18)
(2.28929 2.16686 -4.02399e-18)
(2.63285 1.8614 -9.05418e-19)
(2.69491 2.10439 -1.26046e-18)
(2.73673 1.81192 1.03733e-18)
(2.66909 1.81522 0)
(2.64332 1.56296 9.50093e-19)
(2.54619 1.45501 -2.22129e-18)
(2.47428 1.24356 1.41127e-18)
(2.3639 1.06701 7.49421e-19)
(2.23294 0.850795 -5.24921e-19)
(0.852373 0.954851 -3.17534e-18)
(2.0365 2.13304 6.95527e-18)
(2.40951 1.89859 -2.64377e-18)
(2.49536 2.09986 1.27902e-18)
(2.53601 1.85054 0)
(2.48828 1.81842 -2.06931e-18)
(2.46323 1.58663 1.6081e-18)
(2.39129 1.45588 8.3098e-19)
(2.33324 1.24839 -2.26032e-18)
(2.24679 1.06546 2.11426e-19)
(2.14545 0.850876 -3.36513e-19)
(0.631813 0.943837 8.36989e-19)
(1.76224 2.07945 0)
(2.16768 1.91464 0)
(2.28128 2.07393 -9.26539e-19)
(2.32706 1.86531 0)
(2.30083 1.79739 7.81067e-19)
(2.28353 1.58273 -1.53057e-18)
(2.2383 1.43055 1.72843e-19)
(2.19959 1.22858 -1.17839e-19)
(2.14008 1.04297 -4.51486e-19)
(2.0676 0.83757 6.67114e-19)
(0.399979 0.906759 2.21355e-18)
(1.46079 1.99829 0)
(1.89901 1.90095 0)
(2.04464 2.02291 9.63709e-19)
(2.10419 1.85008 -1.0152e-18)
(2.1041 1.74978 -5.61926e-19)
(2.10449 1.54693 -2.21712e-19)
(2.08994 1.37841 5.51158e-19)
(2.07736 1.18382 3.42986e-19)
(2.04775 1.00135 -2.73258e-19)
(2.00543 0.809147 3.267e-19)
(0.154855 0.833409 7.06225e-19)
(1.12608 1.87923 0)
(1.59396 1.84535 -4.44461e-19)
(1.77504 1.93739 0)
(1.85954 1.79435 6.87241e-19)
(1.89448 1.6684 3.85356e-20)
(1.92593 1.47385 -3.69399e-19)
(1.94979 1.29782 2.8059e-19)