/*--------------------------------*- C++ -*----------------------------------*\
| =========                 |                                                 |
| \\      /  F ield         | OpenFOAM: The Open Source CFD Toolbox           |
|  \\    /   O peration     | Version:  3.0.1                                 |
|   \\  /    A nd           | Web:      www.OpenFOAM.org                      |
|    \\/     M anipulation  |                                                 |
\*---------------------------------------------------------------------------*/
FoamFile
{
    version     2.0;
    format      ascii;
    class       volScalarField;
    location    "0.514201";
    object      epsilon;
}
// * * * * * * * * * * * * * * * * * * * * * * * * * * * * * * * * * * * * * //

dimensions      [0 2 -3 0 0 0 0];

internalField   nonuniform List<scalar> 
21246
(
1411.31
464.885
206.133
91.0445
36.5319
13.1303
4.51341
1.53964
0.528776
0.187977
0.0739599
1109.47
309.319
155.978
74.7151
32.0106
12.3836
4.46507
1.54511
0.527477
0.184526
0.0713356
704.402
245.591
131.664
69.6951
32.4102
13.2515
4.92272
1.71455
0.576425
0.196462
0.0748688
485.509
195.276
113.859
65.0576
32.5478
14.1001
5.44938
1.95132
0.666249
0.226513
0.0843702
347.969
143.838
88.2192
56.0121
31.1399
14.7211
6.01503
2.21882
0.766363
0.256234
0.0897807
279.598
113.608
70.7835
46.0723
26.8269
13.4008
5.75292
2.19648
0.776781
0.266483
0.0980933
237.207
94.0052
59.016
38.7079
22.7731
11.6056
5.14872
2.04876
0.754981
0.26746
0.0994488
207.851
80.3241
50.3346
33.0273
19.5554
10.0986
4.57566
1.87254
0.712543
0.261066
0.1031
186.67
70.2311
43.7332
28.6131
16.97
8.82936
4.06061
1.70052
0.667429
0.253453
0.103391
170.622
62.638
38.7088
25.2505
14.9803
7.8307
3.64023
1.55261
0.625459
0.244723
0.101272
157.723
56.6979
34.8071
22.6663
13.4575
7.06211
3.3107
1.43225
0.588514
0.235286
0.10073
147.996
51.8938
31.6824
20.619
12.2646
6.46474
3.05447
1.33758
0.558874
0.228013
0.0999888
141.203
48.0941
29.2114
19.0262
11.3552
6.01851
2.86619
1.26902
0.53828
0.223731
0.0996027
136.324
45.2385
27.3336
17.8506
10.7122
5.71738
2.74533
1.22762
0.527038
0.22183
0.100336
133.818
43.0416
25.8772
16.9763
10.2706
5.53382
2.68294
1.21145
0.525295
0.222919
0.100917
133.727
41.4674
24.8145
16.3902
10.0287
5.47142
2.68356
1.22354
0.534666
0.227782
0.102848
135.772
40.6005
24.1775
16.1194
10.0168
5.55451
2.76183
1.27121
0.558461
0.237614
0.106494
141.218
40.7316
24.0313
16.1979
10.2567
5.8054
2.93586
1.36506
0.601813
0.254686
0.112906
151.111
42.2275
24.4806
16.6183
10.8074
6.31339
3.27816
1.54654
0.684214
0.28773
0.125618
167.481
45.5809
25.7726
17.508
11.6968
7.10324
3.83533
1.86536
0.841281
0.357805
0.154077
194.742
51.7979
28.3129
19.0658
13.0194
8.236
4.67258
2.38842
1.12567
0.498171
0.217053
243.799
61.9458
32.6547
21.51
14.8622
9.76436
5.86513
3.21369
1.63154
0.779778
0.360258
334.63
78.0784
39.1745
25.2897
17.5476
11.9175
7.60337
4.52524
2.53372
1.34894
0.692161
548.002
83.8362
46.7094
29.0311
21.1166
15.2524
10.5506
6.93016
4.34009
2.61029
1.52257
1424.39
790.4
376.398
175.165
73.7741
22.6613
7.08408
2.17638
0.707418
0.241719
0.0927284
1440.96
843.069
512.515
284.313
143.748
60.6148
20.3931
4.22119
1.14773
0.374808
0.134041
629.361
698.82
525.61
340.959
198.403
99.9231
41.3737
12.1004
2.3664
0.614388
0.209119
449.705
692.87
543.217
379.004
239.949
134.589
64.3669
23.9734
6.23626
1.21531
0.349229
486.88
515.521
568.847
421.807
278.422
166.171
87.2722
38.0383
12.6079
3.01147
0.677168
457.687
390.729
532.727
479.47
327.046
200.02
110.606
53.2465
20.9032
6.24731
1.52775
427.551
314.473
439.211
526.893
396.421
245.093
137.415
69.6568
30.4901
10.8146
3.08008
401.119
272.101
354.77
506.054
475.866
308.191
172.049
88.2987
41.0076
16.3481
5.42202
381.256
243.012
301.999
441.799
519.852
381.156
216.521
110.486
52.4705
22.5026
8.39757
365.527
218.295
262.293
379.706
509.992
446.451
267.777
136.25
64.7952
28.9446
11.7545
354.568
196.319
229.75
327.249
460.482
479.454
315.369
162.84
77.1922
35.2458
15.2349
348.195
179.869
202.576
280.778
402.24
474.798
346.759
184.426
87.5754
40.6647
18.4771
348.622
167.652
180.019
239.814
342.264
435.187
353.909
194.774
93.4361
44.3638
21.14
355.732
159.995
162.278
204.93
284.413
377.045
335.561
190.589
93.1376
45.7777
23.0674
371.958
158.885
149.752
176.285
230.248
306.285
301.003
172.315
86.6817
44.9771
24.3174
395.686
161.947
140.087
151.856
183.231
224.627
244.777
149.141
76.2107
42.7285
25.1096
428.535
169.402
132.397
129.201
142.064
161.341
170.561
127.92
66.8166
40.5424
25.8154
477.472
184.135
129.204
111.393
110.237
116.801
120.863
105.945
64.024
40.4177
27.4918
556.917
211.334
135.147
102.91
91.7139
92.4105
96.0332
92.702
69.0028
45.9132
31.2141
699.177
262.334
161.299
112.876
91.8833
88.8367
92.8666
93.8535
82.4762
58.2443
37.3707
993.254
375.555
250.482
183.145
147.358
136.387
134.968
127.925
113.126
77.5349
49.5666
1489.73
613.515
465.341
372.345
291.285
230.839
179.495
136.671
99.1745
67.328
43.4431
1115.62
550.952
466.909
335.197
239.31
167.494
114.922
77.4169
51.0014
32.812
20.5641
974.763
504.667
292.076
180.734
116.192
75.8051
49.2978
31.5602
19.7381
12.0191
7.11899
173.771
88.9975
17.308
4.0208
1.36312
0.756929
0.570077
0.494118
0.454019
0.425818
0.399009
279.692
200.831
18.1597
5.70983
1.62369
0.825243
0.5705
0.470108
0.418364
0.383864
0.354463
361.393
232.327
27.1585
7.50832
1.78007
0.900358
0.578364
0.455762
0.392001
0.347838
0.305998
402.246
219.565
30.8465
8.35609
1.83209
0.958683
0.582859
0.445449
0.372285
0.321136
0.272574
412.895
206.473
32.2674
8.31654
1.87225
0.991441
0.580671
0.436845
0.357671
0.303032
0.253377
405.88
201.078
35.3565
8.17393
1.93498
1.00266
0.575718
0.429409
0.346722
0.29085
0.242196
384.298
201.012
40.3049
8.96641
2.0463
1.00334
0.572543
0.423191
0.338428
0.282316
0.233728
351.339
204.219
46.073
10.4562
2.35635
1.01929
0.573546
0.418339
0.33233
0.276533
0.229416
313.694
209.346
53.0231
12.7931
2.92387
1.09181
0.589662
0.41716
0.328431
0.272841
0.226894
275.116
216.067
62.6925
16.5612
3.98825
1.2906
0.632344
0.423513
0.328487
0.271565
0.226566
235.563
224.518
74.5731
21.8659
5.74521
1.715
0.728756
0.4434
0.332837
0.272186
0.227499
197.079
235.188
87.8964
28.4244
8.24032
2.45716
0.922192
0.490001
0.344601
0.275492
0.229678
163.256
247.421
103.616
36.7012
11.7305
3.6759
1.29259
0.592626
0.372611
0.28391
0.233769
135.361
259.678
123.055
47.6535
16.6925
5.6272
1.9746
0.809394
0.437892
0.304131
0.241816
115.023
274.978
146.127
61.3573
23.2805
8.48022
3.10583
1.22224
0.578821
0.351164
0.259087
105.328
293.531
174.409
79.1141
32.1909
12.5986
4.90188
1.95988
0.864341
0.457041
0.298681
108.123
312.09
209.132
103.18
44.838
18.7161
7.74931
3.23878
1.4158
0.685302
0.390776
124.444
328.969
249.477
135.4
62.9326
27.8773
12.2449
5.40375
2.43511
1.15193
0.598308
151.237
336.082
289.476
177.119
89.2452
42.0539
19.5618
9.13002
4.31168
2.08281
1.05075
182.773
327.112
315.822
224.349
126.3
64.3996
31.9558
15.8231
7.88069
3.96586
2.03206
209.306
298.319
312.392
262.119
172.173
98.5409
53.3688
28.3848
15.0268
7.95926
4.23279
252.432
264.193
284.572
275.344
216.957
145.679
89.2422
52.1828
29.827
16.8557
9.44279
284.622
220.144
217.623
225.601
210.881
173.225
126.591
85.2975
54.5758
33.9191
20.498
520.239
492.03
464.787
389.14
299.495
220.467
156.749
109.058
74.5374
50.268
33.0953
133.117
63.9365
15.616
3.20607
1.18937
0.733714
0.591089
0.534803
0.508389
0.493059
0.480055
192.094
62.0484
9.25092
3.10595
1.34748
0.827756
0.65343
0.591402
0.570916
0.568627
0.575154
231.804
74.3263
8.08382
3.24611
1.40219
0.888197
0.700928
0.632466
0.613762
0.619334
0.638983
244.237
68.9037
7.57613
3.38311
1.38747
0.880224
0.688158
0.624934
0.617517
0.639206
0.680674
242.256
56.773
7.15252
3.27126
1.33016
0.858865
0.664374
0.599974
0.591374
0.61442
0.661516
236.848
46.4505
6.72049
3.03746
1.25715
0.830939
0.636445
0.569476
0.55465
0.570747
0.610624
231.589
39.0234
6.30625
2.78859
1.18647
0.801248
0.608015
0.538971
0.515689
0.519358
0.54053
225.483
33.6711
5.91011
2.56367
1.12626
0.770862
0.58185
0.511212
0.480614
0.473742
0.480855
221.697
29.8137
5.57782
2.38722
1.084
0.742431
0.559527
0.487268
0.450953
0.435389
0.428286
221.1
27.1667
5.32677
2.25556
1.05801
0.719913
0.5419
0.467774
0.427497
0.407119
0.395122
224.463
25.5555
5.18419
2.17592
1.04702
0.705596
0.529582
0.453013
0.409869
0.387272
0.375279
230.434
24.6205
5.11598
2.13819
1.04978
0.69955
0.522636
0.442867
0.397196
0.373404
0.36334
239.03
25.0271
5.14027
2.14137
1.06955
0.702479
0.521722
0.437259
0.388738
0.363471
0.355143
248.823
27.8716
5.67513
2.25179
1.1318
0.723008
0.531302
0.437796
0.385058
0.35703
0.348303
260.42
32.0565
6.68525
2.49305
1.24509
0.767546
0.554135
0.446228
0.386728
0.354023
0.342077
274.653
37.8454
8.37746
2.95759
1.43994
0.851351
0.596964
0.466478
0.395549
0.355304
0.336972
292.441
45.8005
11.0705
3.81676
1.78767
1.00733
0.675718
0.50722
0.416292
0.363708
0.335248
315.834
56.1684
15.0979
5.32476
2.42564
1.30525
0.827259
0.58885
0.460913
0.386675
0.342424
347.767
69.8016
20.9798
7.87949
3.61181
1.89695
1.14001
0.763445
0.561392
0.44453
0.372722
393.493
88.5583
29.7304
12.1609
5.82647
3.10433
1.82501
1.16809
0.808014
0.598245
0.468447
463.521
116.073
43.2682
19.4235
9.97064
5.58774
3.36399
2.15153
1.45378
1.03317
0.768388
581.682
159.739
65.7645
32.3525
17.9177
10.7316
6.81613
4.53711
3.14544
2.2633
1.68737
811.007
250.485
113.28
60.3164
35.628
22.5748
15.0742
10.5013
7.58917
5.66951
4.36359
1466.35
474.752
248.309
153.642
103.168
72.7222
53.865
41.5431
33.0357
26.7844
21.7441
1218.55
525.853
168.091
65.7861
24.9686
9.47807
4.14486
2.23305
1.46508
1.10211
0.899132
1343.28
663.212
279.324
115.202
44.1873
13.9275
5.3422
2.6127
1.63062
1.20496
0.982913
1064.56
582.969
315.82
152.42
66.5871
24.2865
8.10205
3.18023
1.82479
1.32017
1.08827
671.108
476.427
309.663
172.268
85.2236
35.8964
13.0436
4.60978
2.10326
1.43452
1.18588
359.288
373.544
283.624
180.714
100.427
47.9323
19.6447
7.23024
2.8803
1.62748
1.27425
169.841
283.28
250.538
180.822
112.272
60.0474
27.7537
11.2819
4.42584
2.09298
1.41435
82.7109
213.852
217.942
174.49
119.54
70.9312
36.6574
16.6726
6.97287
3.04936
1.71531
68.7234
162.02
189.125
163.983
121.95
79.1331
45.1402
22.8383
10.4855
4.66468
2.32391
62.2733
114.365
159.737
151.316
120.674
84.2412
52.2136
29.0038
14.6437
6.94828
3.36071
45.3054
65.1889
121.937
134.685
116.193
86.3089
57.2696
34.4226
18.9407
9.71255
4.84231
31.5883
37.128
81.0349
110.943
107.12
84.8703
59.7129
38.3478
22.7385
12.5806
6.63074
22.8321
22.5972
48.3657
82.3084
92.6293
79.3951
59.0871
40.1966
25.4356
15.0843
8.4598
17.7348
15.1513
27.8991
55.3279
74.3716
70.2177
55.4444
39.794
26.685
16.8431
10.0113
14.7089
11.4235
17.8349
34.6651
55.4392
58.5184
49.3048
37.3191
26.4076
17.6237
11.0153
12.2848
9.04262
12.5338
21.9115
37.8336
46.0351
41.5357
33.1946
24.7338
17.3451
11.3133
10.3564
7.33651
9.14186
14.787
24.5061
33.6368
33.1514
28.031
21.9829
16.1242
10.8712
8.69722
6.0493
6.76636
10.249
15.9674
22.7294
24.9289
22.4381
18.5432
14.1847
9.80844
7.4318
5.09997
5.16059
7.23826
10.514
14.7395
17.5173
17.0298
14.9007
11.9225
8.49087
6.69254
4.53054
4.09677
5.26161
7.05499
9.50657
11.7778
12.4869
11.721
9.99833
7.44793
6.89978
4.48245
3.52241
4.10411
5.06568
6.50826
8.21937
9.46107
9.65095
9.02676
7.32824
8.79348
4.81773
3.39926
3.64616
4.25012
5.31941
6.91612
8.31327
9.06553
9.24804
8.50135
11.2032
5.52831
3.61585
3.80601
4.48115
5.71932
7.27273
8.45687
8.88563
8.6944
8.01776
14.0096
6.04174
4.80718
5.29922
6.18312
7.47366
8.58967
8.84978
8.24491
7.36307
6.52966
35.7367
18.2701
12.8723
11.4142
11.0478
10.7448
9.93603
8.69229
7.42215
6.41581
5.68233
1299.08
319.805
132.475
50.6073
19.0759
7.70737
3.61205
2.04018
1.36498
1.028
0.827337
1020.91
270.004
112.546
47.8448
19.6108
8.25768
3.87225
2.13395
1.38553
1.02015
0.810491
830.697
254.653
107.146
50.128
22.1589
9.55351
4.40331
2.33893
1.4598
1.04447
0.818033
644.059
217.259
95.6661
49.3718
24.1459
11.1335
5.17328
2.65516
1.58009
1.08866
0.83751
506.495
177.884
83.6979
45.7116
24.4325
12.5993
6.35353
3.26047
1.83654
1.18661
0.87705
408.466
145.598
73.5197
42.3844
24.1632
13.4832
7.40975
4.06968
2.29684
1.3962
0.959601
334.205
120.724
65.1272
39.4571
23.9383
14.4516
8.62819
5.0356
2.87611
1.66667
1.05178
274.468
101.1
58.0471
36.9088
23.7769
15.46
9.99252
6.22936
3.67407
2.08619
1.2171
225.176
85.1598
51.8789
34.6196
23.6446
16.4862
11.4858
7.66317
4.73851
2.7211
1.51933
182.659
71.5569
46.2007
32.3424
23.386
17.4194
13.0313
9.30199
6.07303
3.59079
1.97645
146.077
60.0593
40.7659
29.872
22.8127
18.0795
14.4749
11.0484
7.64524
4.71312
2.66436
114.096
49.421
35.1363
26.9901
21.7468
18.263
15.5945
12.7331
9.36608
6.06192
3.53706
86.9536
39.6264
29.3967
23.688
20.0992
17.8015
16.0714
13.9793
11.0319
7.6395
4.63442
65.0022
31.0576
23.9417
20.2498
18.068
16.8052
15.9187
14.5967
12.25
9.07871
5.89029
48.7013
24.0713
19.1927
17.042
15.9609
15.5077
15.2868
14.6309
12.9241
10.1735
7.03516
37.9204
19.0282
15.5321
14.4142
14.0812
14.1621
14.3759
14.2085
13.0756
10.8219
7.92699
31.7089
15.9012
13.0869
12.5312
12.5949
12.9285
13.3377
13.4572
12.78
11.0244
8.50018
28.91
14.3531
11.721
11.3486
11.5079
11.8483
12.2432
12.4673
12.1204
10.8327
8.74839
28.5706
13.9721
11.1758
10.7104
10.742
10.9028
11.1201
11.2989
11.1633
10.3143
8.67116
30.2162
14.4708
11.2384
10.4874
10.2451
10.1028
10.0249
10.0336
9.98431
9.5126
8.30975
33.9645
15.7914
11.8428
10.6616
10.0551
9.53795
9.08975
8.82726
8.73254
8.50474
7.72887
41.0816
18.2145
13.1793
11.4063
10.3386
9.38188
8.50986
7.8931
7.61157
7.44394
6.97176
53.7712
23.2029
15.9982
13.1465
11.3216
9.77021
8.41798
7.39957
6.81853
6.53744
6.18532
104.789
34.8023
22.2221
16.5619
13.1126
10.6669
8.83225
7.46315
6.54798
6.01637
5.61029
48.2094
59.6139
68.9019
74.6666
77.487
74.3658
73.4396
71.7664
66.6822
22.3844
23.1002
23.7372
24.3839
25.2169
24.1277
22.6635
21.8811
21.0503
14.2821
12.8491
12.5847
13.0244
13.8047
13.3007
12.305
11.4414
10.9309
9.00526
7.72437
7.49222
7.5862
8.05218
7.65275
6.96806
6.4923
6.4385
32.8498
11.7874
4.61724
3.58702
3.42171
7.08151
26.8208
45.4646
58.1364
20.1085
14.145
4.74554
2.12639
3.32742
9.13206
16.698
20.7547
21.5496
15.3613
13.3976
5.36642
2.25862
3.62461
8.44448
13.0974
13.597
11.9889
10.8603
11.0919
5.67517
2.4235
3.60597
7.23014
9.78552
8.93946
7.2809
0.00901663
0.00829363
0.00834725
0.0374067
0.455572
0.00754911
0.13489
0.00810082
0.00752355
0.00695125
0.45771
0.00813742
0.00996868
0.00513024
0.0146131
0.00728622
0.00521
0.0393732
0.00725039
0.0071042
0.00663357
0.0646136
0.00852106
0.0740655
0.00792225
0.00508591
0.00959631
0.125446
1.04465
0.375327
0.00586599
0.00643187
0.00609228
0.0080687
0.00681257
0.00826291
0.0680753
0.00790555
0.00671558
0.00757501
0.166853
0.00810039
0.0320728
0.00849663
0.735262
0.243597
0.0211748
0.366526
0.00692668
0.0073746
0.367933
0.00759421
0.0238001
0.0337128
0.00735201
0.0066613
0.0613308
0.00761403
1.08391
0.0283643
0.0880138
0.0224768
0.509259
0.0447929
0.185435
0.0071438
0.296675
0.00726781
0.00829542
0.00693974
0.00522159
0.00719933
0.0238299
0.00792807
0.22358
0.00712945
0.0785138
0.00828257
0.0582865
1.16852
0.19073
0.0332132
0.00793272
0.00838165
0.006971
0.0248412
1.83911
0.0197828
0.0208457
0.0527668
0.00809387
0.00764944
0.181388
0.00742837
1.09558
0.73778
0.120683
0.00599051
0.0266178
0.00736484
0.00781242
0.302418
0.00680593
0.00615698
0.0166047
0.00812675
0.00450073
0.00845341
0.0102147
0.00665921
0.0079713
0.00815244
0.00723868
0.0160014
0.0475292
0.00769041
0.00753338
0.00732531
0.00793519
0.0067354
0.0132956
0.00772325
0.00979363
0.00473036
0.211528
0.0072901
0.477313
0.00467509
0.0053409
0.00700191
0.00778065
0.0299249
0.324846
0.00713835
0.0083395
0.00808964
0.0638119
0.0197812
0.395997
0.00733005
0.0284393
0.00659388
0.225479
0.00868008
0.00750766
0.0245985
0.015172
0.0072516
0.00713265
0.00707479
0.00718659
0.0076649
0.0274427
0.00769411
0.0238658
0.019852
0.0388515
0.0420047
0.00557365
0.00747764
0.00549202
0.0356451
0.00718491
0.00771689
0.324715
0.0163053
0.0208072
0.00690861
0.00698804
0.18168
0.00541542
0.00546127
0.00832921
0.00645543
0.00641957
0.00641391
0.00637102
0.0286038
0.752151
0.00695738
0.00724209
0.0707851
0.00849809
0.109372
0.00795025
0.0227852
0.00710206
0.00727647
0.00825018
0.0836939
0.00959335
0.00526845
0.00718952
0.164403
0.00832335
0.00760811
0.00744003
0.0276949
0.00742293
0.00856745
0.0258453
0.00735898
0.00923656
0.00633121
0.00838561
0.0198048
0.0074008
0.0053216
0.00741482
0.00740841
0.0595098
0.00759129
0.0082745
0.00673718
0.00791414
0.0324126
0.00798089
0.0291747
0.00717632
0.0110105
0.00721639
0.0157925
0.144233
0.0488841
0.0046146
0.0076304
0.0733702
0.014784
0.00870987
0.161192
0.0419631
0.00713673
0.00716055
0.00768065
0.0273985
1.58826
0.212609
0.00845091
0.00815338
0.00811061
0.0295335
0.123893
0.0061262
0.149785
0.00814473
0.0406987
0.00800676
0.00682311
0.449123
0.409772
0.00677256
0.0602137
0.0104108
0.00727401
0.00601735
0.00746674
0.00672573
0.00785753
0.0187595
0.00707742
0.00906228
0.00963231
0.00738257
0.00820165
0.00796441
0.0177792
0.00658572
0.00839578
0.0176331
0.00694244
0.201626
0.00732328
0.00733406
0.0194266
0.00756965
0.00736674
0.00494104
0.0077643
0.00691026
0.021089
0.00728856
0.00829016
0.18774
0.189531
0.00602888
0.00759516
1.36436
0.00825434
0.00682995
0.0242547
0.00835189
0.118006
0.00702833
0.00913733
0.00856589
0.00743795
0.00690157
0.00816827
0.00681761
0.00504089
0.00775923
0.011219
0.0071007
0.385118
0.00676336
0.00665618
0.00828615
0.0509733
0.0683007
0.00743992
0.0904035
0.00817099
0.00645487
0.00592076
0.0845623
0.0065562
0.00699916
0.0156827
0.00671141
0.00770759
0.00709456
0.144983
0.00746343
0.00541783
0.0265531
0.00677692
0.00778265
0.00590084
0.00709174
0.324573
0.0073598
0.523704
0.0761664
0.00846328
0.0111863
0.774444
0.0357368
0.00824433
0.00785313
0.00590843
0.0274832
0.0587851
0.00732982
0.0178089
0.181074
0.0507862
0.0433119
0.00753463
0.0654427
0.539585
0.120075
0.005805
0.00700536
0.00682023
0.0131779
0.00860273
0.00734896
0.00695838
0.00850086
0.391235
0.00986242
0.00530372
0.00800711
0.00798838
0.00728817
0.0198021
0.00513154
0.0142565
0.152717
0.00804163
0.00774177
0.105346
0.591524
0.00488549
0.0122017
0.00832257
0.00905034
0.00676412
0.00753063
0.00709973
0.129388
0.00756149
0.0237703
0.00765376
0.00523022
0.277829
0.0113404
0.0045942
0.130917
0.0230562
0.0076991
0.0550457
0.00452411
0.00786722
0.267457
0.189379
0.0078718
0.00721972
0.00836484
0.0528069
0.0185174
0.00764644
0.00850506
0.0232032
0.00604536
0.186084
0.0540789
0.0188023
0.00734997
0.14764
0.00685724
0.00720267
0.00799073
0.00764568
0.031738
0.00639854
0.00964978
0.00830444
0.00518984
0.0422107
0.281299
0.00669898
0.166104
0.00957449
0.00628273
0.00662965
0.00783662
0.0274786
0.00911459
0.193552
0.00789805
0.0236348
0.00507434
0.00663319
0.00674443
0.00907037
0.159663
0.387696
0.00476568
0.00860016
0.00595899
1.88238
0.0807539
0.0114429
0.006817
0.0136711
0.0248759
0.0419697
0.00742421
0.0342285
0.00773955
0.0083368
0.00794144
0.0310278
0.0178391
0.166821
0.00541757
0.0276744
0.0270471
0.0082572
0.00740923
0.502854
0.00526313
0.00599073
0.00685618
0.139562
0.115133
0.0902244
0.0916648
0.00734432
0.00657435
0.0200749
0.00698776
0.0882287
0.00683061
0.00824287
0.00735291
0.0347666
0.0322781
0.00712688
0.00778009
0.0066818
0.111043
0.0722238
0.0084555
0.0239422
0.250305
0.00941242
0.0107028
0.00741271
0.0283162
0.007601
0.00684243
0.00761514
0.00633085
0.00656939
0.00715607
0.00535896
0.00853554
0.00828418
0.00561854
0.00586693
0.00807812
0.00806453
0.501328
0.0100194
0.0174165
0.00736204
0.267031
0.00835802
0.193902
0.016253
0.0247166
0.0141705
0.00795831
0.23139
0.045071
0.0053318
0.0077852
0.00635171
0.0066762
0.00828412
0.00769551
0.00819386
0.00674568
0.122701
0.00799983
0.00745745
0.0730308
0.00773132
0.17206
0.00669718
0.0404587
0.00568035
0.0201647
0.00856552
0.00786428
0.00841278
0.163272
0.0332887
0.00795234
0.00790889
0.00470641
0.00834706
0.0711991
0.00831276
0.242774
0.00681207
0.0455608
0.00754399
0.00822588
0.281726
0.203563
0.00679319
0.00657042
0.0071014
0.00831357
0.00891015
0.0407889
0.00721301
0.00678818
0.471859
1.01841
0.00791721
0.00736872
0.00828141
0.0258018
0.232602
0.0188271
0.00809181
0.00751371
0.188676
0.00727289
0.00844073
0.00564634
0.0232069
0.337701
0.00770925
0.0211647
0.00782045
0.0446033
0.00738777
0.203606
0.00665977
0.00643205
0.0890994
0.0210739
0.0084221
0.00854758
1.02444
0.00763652
0.00616672
0.0341386
0.0478972
0.0276276
0.027232
0.00743216
0.00692396
0.00773122
0.00791296
0.591433
0.0162961
0.0123114
0.00711296
0.00794833
0.0431371
0.00704813
0.00763547
0.00681232
0.00711902
0.00829426
0.0167792
0.0462642
0.0181086
0.00621186
0.0112797
0.0072503
0.0412806
0.00709554
0.00778886
0.480333
0.0851762
0.00755228
0.00757616
0.062344
0.00676776
0.00739026
0.0194557
0.00831407
0.00671291
0.00995607
0.00855137
0.00828261
0.00487921
0.00616365
0.0382591
0.0869301
0.035708
0.0260028
0.00625944
0.0210251
0.0427312
0.00862521
0.00836492
0.00678958
0.0270112
0.00606672
0.00696402
0.00704204
0.00509737
0.0295573
0.423265
0.00607865
0.0106834
0.0076896
0.0134532
0.00811846
0.00725179
0.00693079
0.0128445
0.00702396
0.00742461
0.00684602
0.00826589
0.0635273
0.0544558
0.154681
0.00709587
0.00700904
0.00754878
0.016213
0.00759494
0.130797
0.00719577
0.229902
0.16721
0.00770595
0.00860337
0.00849893
0.00609812
0.0395422
0.00839751
0.412957
0.00556107
0.00666937
0.00841792
0.0123645
0.00527501
0.0322793
0.459093
0.00750744
0.00641535
0.00840453
0.00784391
0.00691181
0.0208823
0.00813933
0.00760991
0.00762372
0.00965798
0.0345958
0.00816069
0.00832167
0.00751242
0.0140109
0.0056112
0.00647974
0.0352361
0.137989
0.00845741
0.0063388
0.00603368
0.00823723
0.0286768
0.00574486
0.147148
0.00783955
0.00675245
0.00791219
0.00731923
0.0841831
0.00766024
0.0297004
0.00511625
0.00727785
0.00670619
0.00670933
0.0354381
0.0082385
0.336932
0.0203557
0.255897
0.00661401
0.010255
0.0258127
0.029234
0.0076092
0.00862144
0.0325294
0.0136643
0.00803438
0.00532958
0.461935
0.00811559
0.16644
0.00986709
0.00819953
0.225563
0.0075402
0.00687026
0.00681547
0.00831718
0.00731422
0.00492795
0.00819299
0.00614846
0.00713094
0.00868615
0.0102433
0.0734225
0.00999822
0.0072368
0.140949
0.223214
0.00781905
0.00486759
0.00710601
0.0188618
0.0103722
0.0435917
0.00693061
0.0467753
0.00762389
0.00900429
0.0072228
0.00694458
0.00765523
0.0460298
0.059842
0.00860705
0.00789712
0.00739152
0.261801
0.122401
0.00739604
0.00821
0.00692666
0.00722516
0.00813999
0.00821706
0.00837746
0.0078789
0.00794225
0.00612106
0.0513948
0.0862855
0.00478611
0.00688918
0.00770408
0.00793691
0.0067145
0.120856
0.00827454
0.00626973
0.00760917
0.255238
0.0640058
0.044092
0.00779336
0.0450567
0.00771596
0.00781801
0.197077
0.00715052
0.00817244
0.00708643
0.0261696
0.00601525
0.00592733
0.00813913
0.0105961
0.162257
0.029812
0.00816711
0.00439478
0.0151848
0.035613
0.0467583
0.00843127
0.00720072
0.0415652
0.01471
0.0177354
0.00829406
0.00684994
0.00801558
0.00737281
0.00826001
0.0610815
0.00631935
0.164312
0.221385
0.0218709
0.00811064
0.451891
0.00853352
0.00718663
0.00987283
0.00789911
0.00766241
0.00766057
0.0151801
0.0231137
0.0205488
0.00765222
0.0431402
0.00768866
0.00859871
0.00737477
0.00756392
0.00705251
0.00792919
0.00815019
0.00734021
1.6258
0.00754171
0.00713007
0.00728499
0.159129
0.00717106
0.00796846
0.0232747
1.51676
0.0070061
0.00774667
0.0111554
0.0420068
0.00846714
0.00808501
0.00676764
0.00860344
0.0141114
0.00828617
0.0711679
0.0092695
0.0856471
0.00730394
0.0082183
0.0060816
0.0288548
0.00774849
0.00765089
0.0074024
0.00831894
0.00593926
0.181987
0.00670734
0.0194118
0.284664
0.021213
0.00604173
0.0409465
0.00851172
0.0081486
0.00555763
0.00648927
0.00599384
0.00759652
0.269042
0.0072458
0.010417
0.00731679
0.00484092
0.00541228
0.0220568
0.00649792
0.00693589
0.00804194
0.324295
0.0648548
0.508071
0.00652089
0.0100287
0.00684848
0.00776783
0.439285
0.00754004
0.00830329
0.00610691
0.186692
0.0529157
0.038176
0.00567134
0.0052783
0.0300751
0.63767
0.00801549
0.00690632
0.539192
0.00760438
0.0216087
0.00792573
0.0422991
0.00767793
0.017379
0.00830578
0.00746057
0.00844973
0.00762645
0.00964487
0.0274085
0.00712614
0.00780845
0.00732748
0.00966029
0.00798192
0.0388963
0.00741579
0.00686841
0.182123
0.0267937
0.0440572
0.00832648
0.0232129
0.00644301
0.00828983
0.0260104
0.00646392
0.0392651
0.276876
0.00609465
0.012947
0.00653591
0.00741889
0.0177422
0.0109577
0.00703008
0.0268005
0.00813365
1.52387
0.026374
0.799113
0.00812824
0.0215031
0.0327692
0.345157
0.00828499
0.00544295
0.00855555
0.00435198
0.134
0.00816009
0.00890874
0.107263
0.0305118
0.120207
0.00712109
0.00778437
0.00736887
0.0446194
0.00684459
0.1787
0.00989237
0.0406313
0.240206
0.00829315
0.0158925
0.0329174
0.0298799
0.0417793
0.0141101
0.00758223
0.0114246
0.00489096
0.00809995
0.00780229
0.00856553
0.195556
0.00658739
0.00832533
0.00553157
0.0164949
0.00488246
0.00802628
0.108681
0.0144423
0.00689201
0.009769
0.00813884
0.00707725
0.00734396
0.206549
0.00720812
0.0222859
0.0061609
0.0258381
0.00796591
0.00694888
0.00796012
0.00753421
0.0233422
0.322417
0.0245116
0.651976
0.193682
0.652515
0.00687794
0.0071509
0.0114288
0.00839009
0.0061386
0.0237839
0.00691595
0.0952144
0.00604193
0.335224
0.00683184
0.00462007
0.00811911
0.299988
0.00862449
0.475815
0.0068382
0.00810257
0.0454417
0.0367854
0.00674292
0.0205754
0.0158484
0.0661367
0.0644896
0.0199366
0.229338
0.00697032
0.0129845
0.242157
0.0138599
0.00832919
0.00600771
0.00828447
0.00505087
0.00533805
0.0184089
0.00773366
0.0186471
0.641415
0.00752747
0.00725477
0.00683054
0.00819613
0.00907037
0.00545637
0.00700716
0.00565668
0.347142
0.00745182
0.634343
0.0728093
0.00770944
0.131259
0.0546526
0.0196472
0.00671267
0.0912659
0.00768586
0.00803729
0.249697
0.00752317
0.00824442
0.00558469
0.00809772
0.00773588
0.342959
0.00774971
0.598012
0.0133985
0.0398205
0.00723485
0.0123965
0.0265492
0.00603367
0.212852
0.00776325
0.0100879
0.0483188
0.00650363
0.00845984
0.0304131
0.0139313
0.0074727
0.0747329
0.041571
0.00644875
0.00734151
0.0271538
0.0069458
0.0170807
0.0261572
0.271377
0.0071176
0.00860379
0.00796717
0.00620547
0.00647913
0.00485664
0.0380636
1.27836
0.00795865
0.0240101
0.0280469
0.00820825
0.0336826
0.00709408
0.00700005
0.889638
0.0484669
0.28595
0.172675
0.00816622
0.00793058
0.022537
0.240036
0.101688
0.251126
0.00491139
0.00817801
0.00720196
0.00612503
0.203325
0.0465569
0.00853123
0.00739722
0.0279258
0.0250923
0.0504515
0.00677102
0.0758022
0.226582
0.00638457
0.00558377
0.00728264
0.00716666
0.230196
0.00524612
0.00742843
0.0151239
0.00779109
0.0063632
0.378214
0.0353565
0.0106732
0.0498846
0.00998795
0.00751053
0.199762
0.0337296
0.0083638
0.00440482
0.0169561
0.00661784
0.2997
0.00806567
0.00769081
0.00703358
0.144026
0.00614177
0.00745964
0.0467062
0.00833983
0.00815111
0.00859551
0.00488809
0.00770559
0.0208073
0.0178446
0.00814635
0.439524
0.0351347
0.00659824
0.0305505
0.00703081
0.00515447
0.0327413
0.00803002
0.00816844
0.00788823
0.00676373
0.00793615
0.00720335
0.00794686
0.0512304
0.040162
0.00573243
0.0122637
0.00692102
0.0322368
0.0178009
0.00855528
0.00680633
0.0158858
0.00520411
0.00674746
0.0061591
0.00665924
0.00685464
0.00795929
0.0386236
0.144334
0.0240713
0.0574701
0.00859361
0.00808081
0.526576
0.0159793
0.013149
0.0075988
0.0336991
0.0282798
0.134586
0.00456719
0.0132013
0.0317854
0.00582124
0.00795277
0.918941
0.00481131
0.00674257
0.0322653
0.0317965
0.00583512
0.0134849
0.028713
0.0043371
0.601994
0.330147
0.00790016
0.00723019
0.0239734
0.32374
0.0104525
0.00811815
0.00702413
0.00839121
0.00746389
0.081502
0.00761675
0.00845978
0.137658
0.0119935
0.00735514
0.00770323
0.00756848
0.00671336
0.0085794
0.00727373
0.00980004
0.0070396
0.00879205
0.0080446
0.0321083
0.00819454
0.0247493
0.00770503
0.0209458
0.008386
0.00768338
0.0589099
0.317963
0.00705208
0.00780642
0.00725504
0.0135712
0.00826681
0.00823404
0.00699515
0.00741962
0.00620424
0.0074587
0.0301799
0.00512776
0.0540272
0.00848152
0.0414043
0.00789312
0.00669134
0.00856722
0.00848262
0.00801849
0.329946
0.00755763
0.0199398
0.00790285
0.00799628
0.471197
0.00845172
0.00855457
0.135339
0.408669
0.0199854
0.00756338
0.0199054
0.00789508
0.0389802
0.00821366
0.108517
0.00743889
0.00621326
0.0237398
0.00763007
0.0321274
0.00716856
0.0153495
0.0347561
0.00801725
0.016705
0.00759291
0.145985
0.0110164
0.00497335
0.0314575
0.00642684
0.00596603
0.00840198
0.0104285
0.029145
0.00752696
0.00811391
0.0356909
0.00677266
0.00681204
0.00690804
0.00541956
0.00789438
0.0281343
0.0292093
0.00705259
0.017735
0.007982
0.00758985
0.00702074
1.18452
0.00987024
0.00737024
0.0869891
0.0321516
0.00821152
0.00706197
0.0289701
0.0105743
0.00660859
0.00727115
0.0102623
0.0383339
0.00753978
0.00693585
0.0762423
0.00715127
0.00830281
0.00735209
0.00693055
0.00785899
0.0172381
0.00764203
0.0277202
0.00598057
0.0134088
0.00813202
0.00501488
0.0314245
0.00690284
0.0134088
0.00765744
0.00731112
0.0393859
0.0136537
0.00552869
0.00845901
0.00743042
0.220463
0.0072886
0.00704045
1.59416
0.00673195
0.0071418
0.00710763
0.00704914
0.00646899
0.0063243
0.0168188
0.00511294
0.0172375
0.00712836
0.00758645
0.0150465
0.00438791
0.00748406
0.00645745
0.00562846
0.00730706
0.331717
0.00855474
0.0188968
0.00748537
0.00688667
0.00630403
0.00721714
0.0125787
0.0079555
0.00721871
0.00673727
0.00756647
0.0083765
0.0533786
0.0416769
0.0404662
0.0103449
0.0367485
0.00670357
0.00756219
0.00746327
0.219899
0.00724514
0.00607403
0.348595
0.00680585
0.422111
0.13509
0.00685482
0.00810093
0.00719209
0.00536881
0.00492043
0.00680681
0.00811311
0.0139729
0.0355623
0.0044113
0.0349198
0.00780867
0.0439362
0.0354474
0.971713
0.00970281
0.0114405
0.00449785
0.00828787
0.00690689
0.0241835
0.00790245
0.0112142
0.00485925
0.00821794
0.00521921
0.037552
0.0158325
0.0272982
0.146222
0.00780804
0.247897
0.00894441
0.00653548
0.00603191
0.0109976
0.00840645
0.580325
0.00781795
0.372374
0.322566
0.00506429
0.0506213
0.0513107
0.253463
0.00739896
0.00782161
0.00741677
0.00727126
0.00765873
0.0062108
0.00706762
0.0220432
0.00776389
0.407378
0.0160558
0.00764129