/*--------------------------------*- C++ -*----------------------------------*\
| =========                 |                                                 |
| \\      /  F ield         | OpenFOAM: The Open Source CFD Toolbox           |
|  \\    /   O peration     | Version:  3.0.1                                 |
|   \\  /    A nd           | Web:      www.OpenFOAM.org                      |
|    \\/     M anipulation  |                                                 |
\*---------------------------------------------------------------------------*/
FoamFile
{
    version     2.0;
    format      ascii;
    class       volVectorField;
    location    "0.556675";
    object      U;
}
// * * * * * * * * * * * * * * * * * * * * * * * * * * * * * * * * * * * * * //

dimensions      [0 1 -1 0 0 0 0];

internalField   nonuniform List<vector> 
21246
(
(5.49338 0.00421431 9.47945e-19)
(4.02599 -0.033664 -1.06113e-18)
(3.85078 0.0789842 6.0331e-20)
(3.45477 0.0643825 8.23913e-20)
(3.06166 0.0288581 -8.09448e-20)
(2.72834 -0.0188328 2.43009e-19)
(2.45589 -0.067269 -3.41135e-19)
(2.22877 -0.112133 1.01913e-19)
(2.03649 -0.153428 -1.49313e-20)
(1.87233 -0.191141 -3.81475e-20)
(1.73594 -0.217841 -5.80457e-20)
(4.03618 -0.573023 1.38639e-18)
(2.52574 -0.847615 -1.00914e-18)
(3.13545 -0.834548 4.41842e-19)
(3.19392 -0.747478 0)
(3.01331 -0.61746 9.15054e-20)
(2.77307 -0.49657 0)
(2.53108 -0.417217 2.7687e-19)
(2.3053 -0.372004 -6.00339e-20)
(2.1046 -0.351334 -6.90828e-21)
(1.931 -0.346923 6.7118e-20)
(1.78875 -0.345913 -4.83527e-20)
(2.43042 0.191668 -1.49858e-18)
(1.49937 -0.548845 -1.56519e-18)
(2.24131 -0.973827 8.0608e-19)
(2.51851 -1.08988 4.737e-19)
(2.60756 -1.04993 7.44653e-19)
(2.58109 -0.916554 0)
(2.45544 -0.75947 -2.06834e-19)
(2.29357 -0.641771 0)
(2.1231 -0.56037 1.57921e-19)
(1.96179 -0.511173 -1.82086e-19)
(1.82836 -0.481548 -3.62069e-20)
(1.64955 1.3042 -4.64923e-18)
(1.21429 0.220959 3.85308e-18)
(1.64933 -0.54343 0)
(1.90328 -0.937777 -6.35283e-19)
(2.10996 -1.11566 -1.14174e-18)
(2.23815 -1.11286 5.01096e-19)
(2.25444 -0.999493 4.93125e-21)
(2.18827 -0.861544 4.53297e-19)
(2.08 -0.747719 -9.21073e-20)
(1.95678 -0.665776 0)
(1.84842 -0.607359 0)
(1.46096 2.27259 4.53731e-19)
(1.24277 1.03097 -2.64823e-19)
(1.39732 0.110194 3.97144e-19)
(1.54756 -0.504196 -1.16881e-18)
(1.73815 -0.897599 1.29383e-18)
(1.91053 -1.07169 -2.52668e-19)
(2.01008 -1.0738 -3.20034e-19)
(2.03189 -0.988715 -2.13274e-19)
(1.99353 -0.882702 4.69688e-20)
(1.91713 -0.790633 -3.46726e-20)
(1.84293 -0.719643 6.39387e-20)
(1.63739 3.02718 -3.32302e-20)
(1.41321 1.75781 2.07079e-18)
(1.36937 0.7703 8.29673e-19)
(1.41492 0.0149028 -1.7982e-18)
(1.53591 -0.538486 1.45366e-18)
(1.68283 -0.872156 -9.93451e-19)
(1.80393 -1.00762 4.89285e-19)
(1.87426 -1.01011 -2.23036e-19)
(1.89106 -0.948794 0)
(1.86164 -0.873675 1.18978e-19)
(1.82529 -0.807296 -6.63855e-20)
(2.00478 3.62216 0)
(1.65027 2.42397 1.51954e-18)
(1.48072 1.39094 1.28791e-18)
(1.42676 0.535235 -3.62791e-18)
(1.46507 -0.133816 1.27293e-18)
(1.55842 -0.594702 -3.33139e-21)
(1.66373 -0.852194 7.20242e-19)
(1.7485 -0.950221 -8.01092e-19)
(1.79743 -0.950261 2.77452e-19)
(1.80457 -0.908218 -4.68159e-21)
(1.80342 -0.861362 7.13867e-20)
(2.38861 4.09619 0)
(1.8992 3.02321 8.07141e-20)
(1.65868 1.9604 0)
(1.51548 1.03725 8.89557e-20)
(1.47482 0.280788 4.52881e-21)
(1.50918 -0.282686 3.24891e-21)
(1.58224 -0.645736 1.39746e-19)
(1.66083 -0.835053 0)
(1.72374 -0.901541 0)
(1.75608 -0.900464 1.59588e-19)
(1.77902 -0.879282 0)
(2.58311 4.27345 4.83936e-18)
(2.09434 3.48283 -1.67437e-19)
(1.84554 2.4708 -1.6104e-18)
(1.63481 1.52663 -8.72463e-20)
(1.52856 0.704041 -9.70653e-19)
(1.5074 0.0535348 3.74103e-20)
(1.54237 -0.403172 4.00027e-19)
(1.60393 -0.678484 6.77913e-19)
(1.66924 -0.812512 -5.11006e-19)
(1.71904 -0.856717 -1.5711e-19)
(1.76088 -0.864244 2.00279e-19)
(2.71625 4.30535 1.81245e-18)
(2.28724 3.82271 -2.31082e-18)
(2.04917 2.94595 1.53069e-18)
(1.7849 2.0202 0)
(1.61835 1.14778 0)
(1.54074 0.420333 0)
(1.53228 -0.123088 0)
(1.569 -0.481699 6.42761e-19)
(1.62849 -0.684602 -4.84833e-19)
(1.68994 -0.777844 -1.18251e-20)
(1.7493 -0.816019 -7.98073e-19)
(2.84154 4.28872 -2.98365e-18)
(2.48254 4.05233 2.32606e-18)
(2.2686 3.36533 0)
(1.97292 2.50166 0)
(1.74659 1.60791 -8.68235e-19)
(1.60711 0.818928 3.35481e-20)
(1.54774 0.197137 4.74773e-19)
(1.55118 -0.241249 -6.13628e-19)
(1.59695 -0.513688 4.62782e-19)
(1.66438 -0.659494 1.11082e-20)
(1.74177 -0.731292 3.83341e-19)
(2.93668 4.25091 -1.40407e-18)
(2.63276 4.15766 2.26255e-18)
(2.46649 3.65611 -2.00305e-18)
(2.17264 2.92328 1.22086e-18)
(1.90134 2.05917 0)
(1.701 1.2373 0)
(1.58547 0.553497 8.59416e-19)
(1.54792 0.0443725 -1.8571e-18)
(1.57233 -0.294432 4.98124e-20)
(1.63923 -0.494197 6.15719e-20)
(1.73317 -0.603312 3.84667e-19)
(3.02197 4.20697 0)
(2.7459 4.19704 0)
(2.63376 3.83062 -1.1802e-18)
(2.36465 3.25872 5.57341e-20)
(2.06906 2.47678 4.24516e-20)
(1.81475 1.66107 6.40007e-19)
(1.64151 0.940639 0)
(1.5576 0.376267 1.21855e-18)
(1.5545 -0.0211962 3.80669e-19)
(1.61526 -0.273556 -7.95679e-19)
(1.72224 -0.422934 0)
(3.09917 4.15333 -5.36025e-18)
(2.84207 4.20575 2.74678e-18)
(2.77485 3.92929 0)
(2.53661 3.50649 1.16848e-18)
(2.2374 2.84232 -1.32744e-18)
(1.94348 2.07541 -1.2151e-18)
(1.715 1.35144 1.35962e-18)
(1.58233 0.753689 -6.05827e-19)
(1.54726 0.310514 0)
(1.59679 0.0106032 5.09438e-19)
(1.71578 -0.182372 0)
(3.15732 4.0909 5.37518e-18)
(2.91316 4.18528 -5.40971e-18)
(2.87616 3.96926 -3.45004e-19)
(2.67436 3.67278 1.24035e-18)
(2.39031 3.14175 4.39271e-19)
(2.07679 2.45975 -1.22479e-18)
(1.80503 1.76741 4.80446e-19)
(1.62666 1.16519 0)
(1.55882 0.695981 0)
(1.59324 0.359222 -8.83195e-19)
(1.71611 0.12679 7.5656e-20)
(3.20226 4.02035 -2.93392e-18)
(2.96571 4.13845 5.42707e-19)
(2.94253 3.96304 4.11992e-19)
(2.77721 3.76706 1.199e-18)
(2.52233 3.37127 -9.18331e-19)
(2.208 2.79556 1.23582e-18)
(1.90995 2.16815 -9.31221e-19)
(1.69608 1.59339 5.91722e-19)
(1.5997 1.12237 -6.88646e-19)
(1.61935 0.763002 9.73575e-19)
(1.74688 0.491549 2.15428e-19)
(3.23743 3.93728 3.69882e-19)
(3.00518 4.07366 2.44216e-18)
(2.98635 3.9237 -1.69587e-18)
(2.84414 3.78951 1.2111e-18)
(2.63393 3.52824 -9.29947e-19)
(2.336 3.074 0)
(2.02983 2.53313 8.49532e-19)
(1.79634 2.01485 -9.42244e-19)
(1.68114 1.56706 3.66442e-19)
(1.6894 1.20455 0)
(1.8175 0.905369 0)
(3.25703 3.84251 -3.84585e-19)
(3.02662 3.99127 -2.83445e-19)
(3.0096 3.85905 0)
(2.88384 3.76435 3.11692e-19)
(2.70823 3.5915 2.26407e-19)
(2.46073 3.2849 -1.25315e-18)
(2.16102 2.84038 9.40557e-19)
(1.9278 2.39972 -2.99825e-19)
(1.81033 1.9988 -5.20083e-19)
(1.81699 1.65086 8.1788e-19)
(1.94064 1.34187 -2.66761e-19)
(3.26601 3.73926 -3.11051e-18)
(3.03355 3.89288 2.55635e-18)
(3.01524 3.77228 -2.16673e-19)
(2.90366 3.70716 -3.23937e-19)
(2.75738 3.5909 -4.64637e-19)
(2.55841 3.39319 -1.63447e-19)
(2.30301 3.07748 -2.25703e-19)
(2.0873 2.71875 0)
(1.98737 2.38212 -1.87025e-19)
(2.00699 2.06366 -2.89918e-19)
(2.14254 1.74353 1.36453e-19)
(3.26141 3.62963 -7.52143e-20)
(3.02384 3.77833 -2.65985e-18)
(3.00333 3.67187 2.58937e-19)
(2.90672 3.62592 -1.30222e-18)
(2.78855 3.54638 1.29019e-18)
(2.6335 3.41708 1.70651e-19)
(2.4393 3.21595 2.34739e-19)
(2.2651 2.94465 0)
(2.20272 2.67898 -4.12323e-19)
(2.25134 2.4013 1.8174e-19)
(2.4105 2.08347 7.26261e-20)
(3.22658 3.51067 3.5141e-18)
(2.99743 3.65428 -2.78439e-18)
(2.97844 3.56033 -1.52206e-19)
(2.90201 3.52272 0)
(2.81141 3.46006 9.24022e-19)
(2.69487 3.36693 -1.43189e-18)
(2.55602 3.23349 5.13607e-19)
(2.44619 3.04272 0)
(2.43649 2.8366 5.29668e-20)
(2.53184 2.59606 -1.08091e-19)
(2.72898 2.27638 3.64935e-20)
(3.18083 3.36792 -4.04716e-18)
(2.96005 3.52762 3.08507e-18)
(2.9647 3.42931 -2.27729e-18)
(2.90837 3.38308 6.97891e-20)
(2.83838 3.30781 8.64275e-19)
(2.74394 3.21011 7.63898e-19)
(2.65207 3.09441 2.53418e-19)
(2.6068 2.94276 -3.86187e-19)
(2.65416 2.75613 0)
(2.80526 2.52005 4.19621e-19)
(3.04714 2.19781 2.92815e-20)
(3.02414 3.29253 -3.26209e-19)
(2.97764 3.36592 4.36603e-19)
(2.96132 3.24923 -2.20723e-18)
(2.90871 3.14793 1.40181e-18)
(2.8434 3.02576 3.15388e-19)
(2.76226 2.89539 -4.36524e-19)
(2.69988 2.75143 7.80777e-21)
(2.69964 2.57588 4.68604e-19)
(2.79292 2.35423 0)
(2.98478 2.07896 -4.03342e-19)
(3.23731 1.70291 0)
(2.62513 2.23663 4.60923e-18)
(2.60783 2.69017 2.33049e-18)
(2.80199 2.55026 -3.79572e-19)
(2.8499 2.45825 1.0682e-18)
(2.82754 2.35941 -7.40646e-19)
(2.77251 2.23096 0)
(2.72426 2.07205 0)
(2.726 1.87925 -2.42608e-19)
(2.80588 1.65574 -1.93299e-19)
(2.97421 1.41384 0)
(3.20433 1.13094 7.89001e-19)
(4.37396 2.54113 7.83145e-19)
(3.72769 2.27657 1.33008e-19)
(3.38239 1.53264 -2.02391e-19)
(3.07314 0.99833 2.28463e-19)
(2.79016 0.646877 -4.02024e-19)
(2.53807 0.410531 -1.62903e-19)
(2.31659 0.245225 4.78586e-19)
(2.12214 0.124421 -1.51301e-19)
(1.9519 0.031877 1.32568e-19)
(1.80313 -0.0402245 -9.90171e-20)
(1.67355 -0.0911843 1.87647e-19)
(0.987875 3.23757 5.88375e-18)
(1.93693 2.77451 0)
(2.27707 2.28801 4.07138e-19)
(2.411 1.72202 7.06809e-19)
(2.40395 1.2415 -5.06892e-19)
(2.3103 0.864367 4.7479e-20)
(2.17318 0.582305 1.21978e-19)
(2.02148 0.375197 2.56715e-20)
(1.87286 0.221679 -7.54093e-20)
(1.73548 0.106743 -2.09063e-20)
(1.6124 0.0268521 -7.847e-20)
(-0.145018 2.68074 7.49026e-18)
(0.583201 2.35552 -5.52946e-18)
(1.11555 2.29405 -2.30688e-19)
(1.58766 1.99643 -2.15362e-18)
(1.85471 1.59751 1.84072e-18)
(1.94563 1.20494 -2.14987e-19)
(1.93171 0.873268 0)
(1.85717 0.610572 0)
(1.75478 0.408398 0)
(1.64478 0.254799 -4.86951e-20)
(1.53755 0.145446 0)
(-0.453177 2.07891 -1.74485e-19)
(0.156079 1.77331 -4.25736e-18)
(0.412023 1.91461 6.29029e-18)
(0.813477 1.84075 -2.30927e-18)
(1.18487 1.64909 4.51014e-20)
(1.46422 1.36891 -2.96833e-20)
(1.60406 1.06599 0)
(1.63665 0.789805 2.17048e-20)
(1.60239 0.562174 -2.45256e-20)
(1.5328 0.384611 7.46651e-20)
(1.44746 0.255642 0)
(-0.474483 1.56242 5.2171e-20)
(0.018916 1.2684 0)
(0.131007 1.47471 3.82052e-20)
(0.434855 1.51045 -1.64415e-18)
(0.743219 1.463 1.07003e-18)
(1.01962 1.3217 -7.80053e-19)
(1.22377 1.11713 3.46809e-19)
(1.34359 0.89083 -2.10254e-20)
(1.39074 0.674949 2.38923e-20)
(1.38573 0.487891 -2.61042e-20)
(1.3412 0.345255 0)
(-0.39127 1.17054 -1.10411e-20)
(-0.00347107 0.888585 -1.42238e-18)
(0.0232339 1.09213 1.07464e-18)
(0.251823 1.16095 0)
(0.494262 1.18684 1.27842e-19)
(0.740479 1.13964 6.41033e-19)
(0.95221 1.02571 -2.36531e-19)
(1.10525 0.86817 -2.71538e-19)
(1.1952 0.694217 0)
(1.23212 0.528692 1.9311e-19)
(1.2217 0.395259 2.09577e-19)
(-0.265061 0.886829 3.1283e-19)
(0.0321782 0.616705 -3.31194e-19)
(0.00974184 0.795398 0)
(0.184799 0.864194 6.50913e-19)
(0.364345 0.919515 -5.00686e-19)
(0.564284 0.923785 0)
(0.755457 0.873254 0)
(0.913789 0.776378 2.61896e-19)
(1.02925 0.649255 0)
(1.09891 0.513751 -3.45356e-19)
(1.11981 0.398934 1.83608e-19)
(-0.131847 0.681775 -1.61414e-19)
(0.0883975 0.42668 -1.49313e-19)
(0.0410745 0.57494 1.14775e-19)
(0.183838 0.633214 0)
(0.313157 0.696403 4.10935e-19)
(0.469625 0.723982 -4.68165e-20)
(0.629229 0.710585 0)
(0.77575 0.655658 0)
(0.897488 0.566499 0)
(0.984046 0.45905 6.22119e-19)
(1.02816 0.36085 -3.61746e-19)
(-0.00311743 0.524954 2.51536e-19)
(0.152774 0.289975 -3.96083e-19)
(0.0905697 0.411193 2.16937e-19)
(0.217948 0.458573 0)
(0.306019 0.522553 -8.52545e-20)
(0.427449 0.558597 7.53083e-20)
(0.555657 0.564654 -2.03116e-19)
(0.682106 0.535502 0)
(0.796065 0.473652 0)
(0.889231 0.389208 -5.92959e-20)
(0.950306 0.308321 -2.21442e-20)
(0.131417 0.402394 0)
(0.214717 0.180343 4.63355e-19)
(0.156474 0.293457 -6.99761e-19)
(0.268143 0.323736 2.18778e-19)
(0.322074 0.392857 -6.60285e-21)
(0.41748 0.429218 -2.25501e-20)
(0.516081 0.445072 -2.17253e-20)
(0.617922 0.43027 -6.94437e-20)
(0.717041 0.384562 7.17491e-20)
(0.808311 0.313234 -9.72032e-20)
(0.876833 0.239552 5.18468e-20)
(0.244108 0.335658 1.09478e-18)
(0.292931 0.0957962 -4.06343e-19)
(0.245292 0.203793 0)
(0.319285 0.230789 0)
(0.358711 0.296735 -1.56689e-19)
(0.426613 0.334341 1.71499e-19)
(0.496741 0.353941 0)
(0.572408 0.345386 0)
(0.651383 0.306954 -3.58306e-21)
(0.732816 0.240132 -6.70039e-20)
(0.801481 0.164127 2.46198e-20)
(0.354102 0.303452 0)
(0.384829 0.0512417 0)
(0.332161 0.142947 0)
(0.382485 0.172792 0)
(0.406131 0.233544 1.58849e-19)
(0.448419 0.270945 1.61487e-19)
(0.491294 0.290476 -2.61873e-19)
(0.539333 0.282069 0)
(0.593965 0.243661 7.83337e-20)
(0.660035 0.174628 5.05868e-21)
(0.725287 0.0911893 -3.62428e-20)
(0.469555 0.290081 0)
(0.484631 0.0334841 0)
(0.422902 0.111262 -5.01292e-19)
(0.45445 0.143616 4.07362e-19)
(0.461749 0.200253 -1.57892e-19)
(0.480561 0.236391 0)
(0.497364 0.253131 4.4388e-19)
(0.517144 0.239963 1.88572e-20)
(0.544241 0.194709 0)
(0.589043 0.116802 -2.33367e-19)
(0.638256 0.021832 9.83985e-20)
(0.600588 0.300714 7.51174e-19)
(0.597632 0.0428654 -1.12652e-18)
(0.524019 0.106494 2.29658e-19)
(0.535278 0.140998 -4.28092e-19)
(0.526545 0.193423 4.41181e-19)
(0.523312 0.226949 0)
(0.515825 0.237925 0)
(0.508642 0.215645 -2.52231e-19)
(0.507856 0.157546 -2.25594e-19)
(0.52832 0.0641846 -2.88248e-20)
(0.565215 -0.0518323 1.94281e-19)
(0.740628 0.342055 0)
(0.715417 0.0830791 -7.44683e-19)
(0.632721 0.129919 1.33305e-18)
(0.625326 0.163426 -6.80968e-19)
(0.601606 0.210545 0)
(0.578419 0.23952 0)
(0.549171 0.242139 0)
(0.517925 0.206829 5.35992e-19)
(0.49199 0.129948 -3.61906e-20)
(0.487541 0.0143103 0)
(0.51314 -0.13259 -1.3614e-19)
(0.887241 0.4029 -5.67867e-20)
(0.840584 0.148466 7.48949e-20)
(0.751519 0.178461 0)
(0.727438 0.208718 0)
(0.6903 0.249267 6.88617e-20)
(0.65003 0.271577 3.81245e-19)
(0.602494 0.263494 -2.92851e-19)
(0.551509 0.212124 -3.03919e-19)
(0.505463 0.112226 -8.13698e-20)
(0.480084 -0.031198 1.17521e-19)
(0.49873 -0.211265 1.35545e-19)
(1.04398 0.481846 -8.7191e-19)
(0.978947 0.236606 8.12273e-19)
(0.885456 0.250092 -5.20364e-19)
(0.846824 0.275176 4.03528e-19)
(0.798404 0.307963 -7.04742e-20)
(0.744725 0.321781 4.28507e-19)
(0.683477 0.301137 -6.36295e-19)
(0.61865 0.231505 3.38698e-19)
(0.559848 0.1057 8.19363e-20)
(0.522325 -0.0710584 -3.69281e-19)
(0.531886 -0.288984 1.8604e-19)
(1.21032 0.579733 -8.04628e-21)
(1.13071 0.347961 7.6153e-19)
(1.03684 0.345064 -5.14484e-19)
(0.988083 0.362929 0)
(0.9322 0.386867 6.38411e-19)
(0.870125 0.390939 -4.26544e-19)
(0.801102 0.356774 -1.08202e-20)
(0.729845 0.268023 2.87997e-19)
(0.666835 0.115764 -3.1149e-19)
(0.626401 -0.0952318 1.49155e-19)
(0.64185 -0.349901 -1.09866e-19)
(1.38409 0.690515 1.44957e-19)
(1.29532 0.479375 -7.37718e-19)
(1.20702 0.462412 1.04105e-18)
(1.15465 0.472553 -7.29442e-19)
(1.09692 0.487777 0)
(1.03291 0.482232 -3.41486e-19)
(0.96353 0.435072 5.92104e-21)
(0.895175 0.328134 1.53007e-19)
(0.839939 0.15105 2.27611e-19)
(0.812996 -0.0917005 -4.55594e-19)
(0.839965 -0.38005 -2.69899e-19)
(1.56292 0.807835 2.3897e-21)
(1.47242 0.626452 -3.63861e-19)
(1.39628 0.600401 1.78085e-19)
(1.3478 0.604842 2.64072e-19)
(1.29479 0.613659 0)
(1.23594 0.600703 -9.51976e-21)
(1.17439 0.543063 5.81854e-21)
(1.11909 0.421336 0)
(1.08435 0.224634 0)
(1.08461 -0.0433756 2.78412e-19)
(1.13729 -0.360671 3.47898e-19)
(1.74278 0.92834 -1.90416e-19)
(1.65959 0.785355 2.79935e-19)
(1.60186 0.757608 1.25473e-18)
(1.56448 0.761155 -6.22397e-19)
(1.52216 0.768315 0)
(1.47475 0.752062 0)
(1.42874 0.688259 -5.26266e-19)
(1.39695 0.557852 -4.03346e-19)
(1.39552 0.351399 -6.18344e-19)
(1.43808 0.0728292 4.66671e-19)
(1.51814 -0.255307 6.78108e-19)
(1.92077 1.04702 -1.91012e-18)
(1.85294 0.953236 1.0334e-18)
(1.81852 0.933702 -1.51134e-18)
(1.79695 0.943333 3.64059e-19)
(1.76837 0.954265 2.68045e-19)
(1.73601 0.938983 -3.95815e-19)
(1.71146 0.873697 -1.68272e-20)
(1.71211 0.742326 -9.23628e-19)
(1.75624 0.539016 1.67791e-18)
(1.86016 0.269369 -4.79379e-19)
(1.98106 -0.0613017 -1.80102e-18)
(2.08125 1.18813 0)
(2.05085 1.1389 2.28201e-18)
(2.03694 1.13713 -1.71107e-20)
(2.02978 1.15783 -9.00679e-19)
(2.014 1.17556 -6.36992e-19)
(1.99699 1.16394 4.59473e-19)
(1.9959 1.1014 6.74567e-19)
(2.03217 0.977161 1.00338e-18)
(2.12345 0.790303 7.70883e-19)
(2.28152 0.545905 -5.43411e-19)
(2.44597 0.225849 7.73564e-19)
(2.34556 1.15632 -4.82996e-18)
(2.28299 1.30049 3.44771e-18)
(2.2704 1.34723 -4.5733e-19)
(2.26311 1.40379 -5.95732e-19)
(2.2548 1.44564 8.10424e-19)
(2.25597 1.44358 0)
(2.28414 1.38089 0)
(2.3575 1.25993 0)
(2.48791 1.0928 0)
(2.68248 0.889231 -1.18763e-18)
(2.89903 0.62191 -7.97757e-19)
(7.33375 -2.67906 0)
(6.41928 -2.47481 -2.08287e-19)
(6.00758 -2.02078 9.82077e-20)
(5.6904 -1.64403 -8.01641e-20)
(5.37404 -1.33291 0)
(5.0729 -1.08671 2.23786e-21)
(4.80059 -0.898878 -1.29013e-19)
(4.55081 -0.752743 3.1622e-19)
(4.32301 -0.636462 -1.71201e-19)
(4.11622 -0.543225 0)
(3.93163 -0.480932 7.23594e-20)
(4.83264 -3.98838 0)
(4.96785 -3.59629 -1.11879e-18)
(5.09387 -3.03542 8.74826e-19)
(5.10096 -2.49924 -1.73047e-19)
(5.00257 -2.03734 -2.05142e-19)
(4.83558 -1.65855 4.00168e-19)
(4.63811 -1.35782 -5.16892e-20)
(4.43335 -1.12265 -5.26489e-20)
(4.23358 -0.938467 1.75808e-20)
(4.04489 -0.794739 -4.6025e-20)
(3.87172 -0.692247 3.89074e-20)
(3.21938 -3.93054 0)
(3.74913 -3.73437 -2.37566e-19)
(4.09596 -3.43219 2.57587e-18)
(4.33347 -3.01263 -8.57853e-20)
(4.44316 -2.56752 -1.40244e-18)
(4.44212 -2.14701 5.73561e-19)
(4.36256 -1.77944 -6.58398e-19)
(4.23736 -1.47436 0)
(4.0908 -1.22777 9.56681e-20)
(3.93924 -1.03079 0)
(3.79258 -0.883024 0)
(2.2332 -3.4307 5.59376e-18)
(2.81329 -3.4597 -4.05168e-18)
(3.24891 -3.39199 0)
(3.58636 -3.15599 -1.98898e-18)
(3.82129 -2.82701 1.43306e-19)
(3.95046 -2.45918 1.03733e-18)
(3.98976 -2.09572 -7.86377e-19)
(3.96199 -1.76566 -3.50329e-19)
(3.89096 -1.48183 6.00507e-19)
(3.79381 -1.24617 -9.88548e-20)
(3.67698 -1.0655 1.04869e-19)
(1.91399 -3.14612 -7.04374e-18)
(2.25734 -3.14284 7.40025e-18)
(2.5519 -3.16062 -2.83703e-18)
(2.91458 -3.08204 0)
(3.22496 -2.89066 0)
(3.44859 -2.61024 -2.6944e-19)
(3.57782 -2.29047 1.70713e-19)
(3.62415 -1.97545 9.25263e-19)
(3.61455 -1.68445 -6.85601e-19)
(3.57156 -1.42607 9.74791e-20)
(3.50796 -1.20974 4.24332e-19)
(1.76926 -2.89916 -2.82493e-19)
(2.02095 -2.8888 0)
(2.19858 -2.9293 0)
(2.44343 -2.89326 -4.84558e-19)
(2.69662 -2.78085 0)
(2.93143 -2.5915 2.34763e-18)
(3.11959 -2.34515 -3.03934e-18)
(3.24753 -2.0716 1.09505e-18)
(3.31679 -1.79659 -6.70141e-19)
(3.33815 -1.54039 9.73177e-19)
(3.32113 -1.32321 3.46547e-19)
(1.66204 -2.68021 0)
(1.85542 -2.64746 3.72327e-19)
(1.98509 -2.685 2.36037e-18)
(2.17936 -2.66577 -3.61979e-18)
(2.3865 -2.59545 1.40183e-18)
(2.59191 -2.46427 2.04209e-18)
(2.77543 -2.27916 -1.54982e-18)
(2.92269 -2.05811 0)
(3.02749 -1.82142 -7.33506e-19)
(3.09013 -1.58883 2.39337e-20)
(3.11038 -1.38153 -6.27568e-19)
(1.55236 -2.49714 0)
(1.71375 -2.43845 -3.53076e-19)
(1.81962 -2.46031 -5.17963e-19)
(1.97476 -2.44381 2.08939e-18)
(2.14504 -2.39123 -1.28686e-18)
(2.32186 -2.29436 4.78198e-19)
(2.49234 -2.1545 0)
(2.64416 -1.98053 0)
(2.76885 -1.78515 2.11046e-18)
(2.861 -1.58483 -1.51928e-18)
(2.91225 -1.40375 0)
(1.45566 -2.3312 0)
(1.59878 -2.25576 0)
(1.68642 -2.26406 4.96911e-19)
(1.81665 -2.24472 0)
(1.9605 -2.19874 0)
(2.11338 -2.12019 4.48505e-19)
(2.26755 -2.00906 -1.37158e-18)
(2.41415 -1.86971 9.69586e-19)
(2.54549 -1.70898 0)
(2.65409 -1.5381 9.58478e-19)
(2.72756 -1.378 -6.40522e-19)
(1.38031 -2.18087 -1.44922e-18)
(1.50708 -2.09055 2.25671e-18)
(1.57788 -2.08912 -8.8163e-19)
(1.68965 -2.06635 3.38777e-19)
(1.8139 -2.0227 0)
(1.94803 -1.95392 8.59465e-19)
(2.08727 -1.8602 0)
(2.22542 -1.74412 -3.78464e-20)
(2.35631 -1.60911 -6.84911e-19)
(2.47211 -1.46181 -9.42226e-19)
(2.55708 -1.3174 -6.24452e-19)
(1.32151 -2.05408 -1.3329e-18)
(1.42854 -1.94505 1.28756e-18)
(1.48538 -1.93256 -3.98346e-19)
(1.58295 -1.90465 -1.61589e-18)
(1.69231 -1.86044 5.13208e-19)
(1.81215 -1.79645 0)
(1.93929 -1.71323 1.1589e-18)
(2.0693 -1.6128 -4.59049e-19)
(2.19754 -1.4971 0)
(2.31681 -1.37089 -8.64132e-19)
(2.40762 -1.25083 -6.79789e-21)
(1.26211 -1.94086 -1.24133e-18)
(1.34871 -1.81457 7.14899e-19)
(1.39918 -1.78985 1.90674e-18)
(1.48805 -1.75523 -2.37531e-18)
(1.58729 -1.70826 1.8551e-18)
(1.69703 -1.64578 -3.47073e-19)
(1.81532 -1.56864 0)
(1.93892 -1.47876 -4.14718e-19)
(2.06442 -1.37743 0)
(2.18571 -1.26762 3.97687e-20)
(2.28346 -1.16206 6.33721e-19)
(1.20058 -1.82492 -1.15753e-18)
(1.27066 -1.68675 0)
(1.31787 -1.65261 0)
(1.40089 -1.61225 1.10499e-18)
(1.49338 -1.56199 -1.3052e-18)
(1.59658 -1.4992 3.41758e-19)
(1.70923 -1.42529 0)
(1.82892 -1.34232 -3.59217e-19)
(1.95305 -1.25116 -2.61196e-19)
(2.07654 -1.15265 -3.78118e-19)
(2.17981 -1.05394 2.81076e-19)
(1.14664 -1.71496 0)
(1.20123 -1.56173 0)
(1.2428 -1.51824 6.60767e-19)
(1.32011 -1.47218 -5.16446e-19)
(1.40765 -1.41814 0)
(1.50696 -1.35388 -7.54233e-19)
(1.61688 -1.28139 4.66555e-19)
(1.73517 -1.20316 1.91528e-19)
(1.85939 -1.12008 -2.28389e-19)
(1.98497 -1.03208 3.65055e-19)
(2.09 -0.94639 -2.41837e-19)
(1.09182 -1.6115 0)
(1.12831 -1.441 0)
(1.1685 -1.38565 0)
(1.24335 -1.33236 5.35903e-19)
(1.32872 -1.27343 -3.72459e-19)
(1.42689 -1.20665 -3.43425e-19)
(1.53692 -1.13455 4.27965e-19)
(1.65647 -1.06012 1.62985e-19)
(1.78272 -0.984473 -1.0729e-19)
(1.91139 -0.906565 3.16595e-19)
(2.0212 -0.829853 4.73076e-21)
(1.03656 -1.49859 9.83634e-19)
(1.05471 -1.31454 -7.64164e-19)
(1.09612 -1.2487 0)
(1.17038 -1.18844 -5.81343e-20)
(1.25586 -1.12418 1.01056e-20)
(1.35568 -1.05434 4.39405e-19)
(1.46885 -0.982325 -7.64514e-19)
(1.5925 -0.911868 2.85828e-19)
(1.72279 -0.844281 9.51594e-20)
(1.85556 -0.77728 0)
(1.96894 -0.711 0)
(0.987726 -1.382 0)
(0.987223 -1.18222 0)
(1.0286 -1.10523 0)
(1.1021 -1.03731 0)
(1.18934 -0.966962 -1.0222e-20)
(1.29371 -0.89365 0)
(1.41343 -0.822216 1.66135e-19)
(1.5442 -0.757244 -5.30949e-21)
(1.68023 -0.69991 1.32961e-20)
(1.81705 -0.646353 -1.29917e-19)
(1.9322 -0.5929 -8.50151e-20)
(0.940572 -1.2658 8.89238e-19)
(0.918303 -1.04677 6.57952e-19)
(0.962594 -0.954634 -1.00118e-18)
(1.0381 -0.876147 5.52344e-19)
(1.13059 -0.797963 1.43814e-19)
(1.24368 -0.721013 -2.0647e-19)
(1.37399 -0.651911 -1.42042e-19)
(1.51477 -0.595729 2.10036e-19)
(1.65752 -0.552419 4.24566e-20)
(1.7977 -0.51568 1.69449e-19)
(1.91373 -0.476955 8.51792e-20)
(0.895542 -1.13815 -8.24667e-19)
(0.8484 -0.900629 6.34314e-19)
(0.89998 -0.790209 0)
(0.980968 -0.699208 -1.77405e-19)
(1.08363 -0.612397 4.07005e-20)
(1.21068 -0.533322 -8.58562e-20)
(1.35568 -0.470588 2.85471e-20)
(1.50825 -0.428716 -2.15069e-20)
(1.65685 -0.404699 0)
(1.79831 -0.388752 -3.57755e-19)
(1.91344 -0.366895 0)
(0.857014 -0.991626 0)
(0.781091 -0.737005 0)
(0.845816 -0.604621 -2.17276e-20)
(0.938412 -0.498819 1.38862e-19)
(1.05893 -0.404335 1.66851e-19)
(1.20692 -0.328369 3.17224e-20)
(1.37013 -0.280295 0)
(1.53329 -0.261262 0)
(1.68296 -0.262574 0)
(1.81789 -0.27027 3.98456e-19)
(1.92781 -0.266472 0)
(0.82555 -0.830244 0)
(0.724127 -0.545181 -8.37948e-20)
(0.8087 -0.387343 -1.73586e-19)
(0.923837 -0.26703 1.91027e-20)
(1.07283 -0.171386 -3.17524e-21)
(1.24775 -0.110381 -8.47762e-21)
(1.42798 -0.0899845 3.28851e-20)
(1.59469 -0.103524 -7.09872e-20)
(1.73641 -0.134814 1.77537e-19)
(1.85561 -0.166748 -1.68707e-19)
(1.95256 -0.181749 0)
(0.839652 -0.5794 0)
(0.664248 -0.309777 9.58356e-20)
(0.813668 -0.125118 1.36669e-20)
(0.967962 -0.000562755 0)
(1.15402 0.0779513 8.22028e-20)
(1.35342 0.10365 1.22335e-19)
(1.53912 0.0813339 -3.14127e-20)
(1.69428 0.028712 -2.61685e-21)
(1.81479 -0.0324645 2.41793e-20)
(1.90854 -0.0851958 -2.75517e-19)
(1.98561 -0.116519 0)
(0.730558 -0.513646 0)
(0.739291 -0.0544624 -8.55436e-20)
(0.891807 0.153482 -1.61418e-20)
(1.10666 0.263667 1.09043e-19)
(1.32838 0.298339 -1.72648e-19)
(1.53357 0.269723 -1.35978e-19)
(1.70053 0.199405 0)
(1.8239 0.112962 0)
(1.90992 0.0312244 -4.76535e-20)
(1.97015 -0.0329153 1.25261e-19)
(2.01884 -0.0705275 1.2229e-19)
(1.88318 0.696364 3.07309e-19)
(1.01014 0.585414 1.10922e-19)
(1.47314 0.622605 1.89117e-19)
(1.62239 0.571434 -3.29418e-19)
(1.75481 0.48653 3.4386e-19)
(1.86508 0.375366 1.40645e-19)
(1.94236 0.255241 -4.54762e-19)
(1.99257 0.144318 1.29579e-19)
(2.02264 0.0525975 4.25889e-20)
(2.03736 -0.014297 -8.64737e-21)
(2.05046 -0.050406 -4.26202e-20)
(6.79841 -1.14367 0)
(5.46198 -0.576609 8.16863e-19)
(5.78951 -0.706618 0)
(5.90338 -0.75736 1.12633e-18)
(5.69128 -0.685338 -5.20041e-19)
(5.32609 -0.584037 1.82785e-19)
(4.98584 -0.498852 0)
(4.68003 -0.416812 -5.60431e-20)
(4.41497 -0.350592 1.00862e-19)
(4.17756 -0.302131 -3.57648e-20)
(3.96957 -0.277801 6.74882e-20)
(4.46556 -1.71468 1.01546e-18)
(3.93591 -0.833553 -4.62167e-19)
(4.70864 -0.428286 0)
(5.2534 -0.260183 -4.07935e-19)
(5.44654 -0.149462 0)
(5.38393 -0.079534 2.29999e-19)
(5.16017 -0.0544829 0)
(4.81554 -0.0426227 0)
(4.49763 -0.0360163 2.23738e-19)
(4.22792 -0.0311348 3.47564e-20)
(4.00115 -0.0428373 3.50201e-20)
(2.83681 -4.30507 9.83904e-19)
(3.34797 -2.33069 -8.52777e-19)
(3.95034 -1.12807 0)
(4.50654 -0.435519 0)
(4.91823 -0.00329763 1.01242e-18)
(5.12267 0.250838 2.07404e-19)
(5.10845 0.357433 5.00381e-19)
(4.88481 0.366275 2.86443e-19)
(4.55942 0.320444 -4.12884e-19)
(4.24313 0.269369 -1.05198e-19)
(3.9993 0.212249 1.34483e-19)
(3.17458 -5.62162 1.10911e-18)
(3.17852 -4.15852 8.33971e-19)
(3.50324 -2.40833 0)
(3.95325 -1.16745 7.62915e-19)
(4.39933 -0.296168 -1.53528e-18)
(4.73028 0.280366 -5.89428e-19)
(4.8774 0.602707 -5.6149e-19)
(4.80335 0.720324 -6.47182e-19)
(4.55663 0.691843 0)
(4.23463 0.599449 0)
(3.94948 0.490657 3.66591e-19)
(3.33968 -5.71766 -4.71585e-19)
(3.22999 -5.13034 0)
(3.27981 -3.67999 2.2168e-18)
(3.59322 -2.1268 -1.60419e-18)
(3.98586 -0.884098 0)
(4.33932 0.0371573 1.79251e-19)
(4.56726 0.642319 7.16491e-19)
(4.60659 0.955251 2.11545e-20)
(4.45544 1.02392 8.12145e-19)
(4.17371 0.938498 1.76031e-19)
(3.86525 0.792834 -1.56718e-19)
(3.46935 -5.9433 2.26492e-20)
(3.40789 -5.48621 -2.80815e-18)
(3.32121 -4.7312 2.73118e-18)
(3.41231 -3.18592 1.60151e-18)
(3.69296 -1.66145 -1.1708e-18)
(4.00365 -0.41486 -3.59339e-19)
(4.24414 0.493712 1.19836e-18)
(4.34209 1.05176 -3.17423e-19)
(4.26628 1.28107 -1.34161e-18)
(4.03945 1.259 -1.15443e-19)
(3.76076 1.09136 -4.15767e-19)
(3.5935 -6.20468 -3.8001e-18)
(3.59267 -5.76801 1.77125e-19)
(3.47815 -5.17386 -2.36861e-19)
(3.41669 -4.14538 0)
(3.52158 -2.54127 3.19502e-19)
(3.7347 -1.02479 -4.22967e-19)
(3.93556 0.184266 -2.51061e-19)
(4.04072 1.01139 3.87591e-19)
(4.00557 1.44378 4.30823e-19)
(3.82424 1.53563 -4.34527e-19)
(3.60244 1.39015 5.33135e-20)
(3.69684 -6.47937 -3.76483e-18)
(3.74811 -6.06559 -2.07786e-19)
(3.63868 -5.53029 -2.35004e-18)
(3.5307 -4.71758 1.59359e-18)
(3.47046 -3.34755 -3.0943e-19)
(3.54457 -1.71965 -1.84118e-18)
(3.65673 -0.25304 1.08592e-18)
(3.72053 0.844455 9.1467e-19)
(3.68706 1.50161 -4.81491e-19)
(3.53537 1.74036 6.87852e-20)
(3.35169 1.65267 0)
(3.79282 -6.74621 3.50155e-18)
(3.8811 -6.35733 3.88329e-19)
(3.76508 -5.8589 -2.71637e-19)
(3.65014 -5.12453 3.8668e-18)
(3.51362 -4.0475 -2.68228e-18)
(3.42942 -2.43414 -6.202e-20)
(3.40763 -0.785764 -4.08864e-19)
(3.38578 0.561926 0)
(3.31488 1.44747 7.61045e-19)
(3.1654 1.85044 9.09329e-20)
(3.03851 1.85234 0)
(3.88442 -6.98754 0)
(3.99683 -6.62827 -3.30729e-19)
(3.85931 -6.17156 -4.06734e-18)
(3.73829 -5.47949 2.98184e-18)
(3.55264 -4.51072 3.57256e-18)
(3.34941 -3.05655 -1.05305e-18)
(3.18175 -1.35686 4.03549e-19)
(3.03739 0.181586 0)
(2.89453 1.27746 8.80465e-19)
(2.72611 1.84788 -4.8526e-19)
(2.63402 1.96215 0)
(3.95808 -7.17768 6.36339e-20)
(4.08571 -6.86791 -2.68207e-18)
(3.90985 -6.45914 0)
(3.77222 -5.81276 0)
(3.55388 -4.92103 -7.05109e-19)
(3.26165 -3.64759 -2.39779e-18)
(2.96125 -1.94286 0)
(2.67062 -0.283665 -1.40924e-18)
(2.42918 0.987165 -2.79864e-18)
(2.22799 1.70974 1.0509e-18)
(2.14355 1.93596 6.24241e-19)
(3.98372 -7.34649 0)
(4.11582 -7.08567 0)
(3.92033 -6.70363 0)
(3.75805 -6.1127 9.1101e-19)
(3.50346 -5.29678 0)
(3.13806 -4.14442 -1.32429e-18)
(2.72253 -2.52218 1.95802e-18)
(2.28504 -0.817336 1.40768e-18)
(1.92917 0.572071 1.91993e-18)
(1.68609 1.41807 1.13147e-18)
(1.62249 1.74203 -9.52637e-19)
(3.99443 -7.47927 0)
(4.11279 -7.2409 0)
(3.89588 -6.89226 0)
(3.68367 -6.37293 -9.04201e-19)
(3.38405 -5.64448 0)
(2.95741 -4.61423 5.15407e-18)
(2.45126 -3.09902 -2.03886e-18)
(1.87782 -1.40908 0)
(1.41068 0.0333523 0)
(1.11925 0.963926 2.58783e-18)
(1.11205 1.39248 -1.44268e-18)
(3.99013 -7.54639 -3.36891e-18)
(4.05792 -7.33728 3.95508e-18)
(3.82085 -7.03254 0)
(3.55507 -6.58067 -3.74578e-18)
(3.19599 -5.95112 1.46437e-18)
(2.71117 -5.06401 -5.16611e-18)
(2.11439 -3.72339 2.04916e-18)
(1.46794 -2.06465 -3.03591e-18)
(0.906677 -0.62219 2.04017e-18)
(0.584712 0.358833 -2.60029e-18)
(0.599189 0.875219 1.44502e-18)
(3.9543 -7.55258 2.44159e-18)
(3.94078 -7.3795 -1.3277e-18)
(3.68385 -7.11008 -3.32051e-18)
(3.36471 -6.72101 3.44395e-18)
(2.94802 -6.1856 1.5058e-18)
(2.41963 -5.4518 0)
(1.7735 -4.42207 -1.93428e-18)
(1.06707 -2.76323 2.07556e-19)
(0.469677 -1.36314 5.56305e-20)
(0.142037 -0.378886 -2.135e-18)
(0.163497 0.201043 1.57571e-18)
(3.88255 -7.49419 8.0009e-19)
(3.77242 -7.36029 0)
(3.48653 -7.12849 2.11732e-18)
(3.11679 -6.80457 -6.6648e-18)
(2.65098 -6.35933 1.38503e-18)
(2.08602 -5.75115 2.4811e-18)
(1.42914 -4.91547 -3.43123e-18)
(0.77947 -3.66787 0)
(0.155012 -2.20803 0)
(-0.159689 -1.20538 0)
(-0.111151 -0.58419 0)
(3.75972 -7.35315 -6.608e-18)
(3.54677 -7.26136 4.56476e-18)
(3.22318 -7.07791 -1.94701e-18)
(2.80927 -6.83452 1.56396e-18)
(2.3144 -6.50219 -1.23319e-18)
(1.75492 -6.04123 2.30054e-18)
(1.15283 -5.3894 -1.42883e-18)
(0.552142 -4.43702 6.76958e-18)
(0.0145028 -3.20307 -3.01333e-19)
(-0.296576 -2.10591 0)
(-0.181259 -1.44125 -7.04472e-19)
(3.56055 -7.11598 7.24978e-19)
(3.2477 -7.0671 -4.70654e-18)
(2.87922 -6.94915 5.77849e-18)
(2.43158 -6.80985 -1.18889e-18)
(1.9335 -6.61781 0)
(1.41974 -6.32689 5.53363e-18)
(0.919202 -5.87164 -1.52375e-18)
(0.447103 -5.16383 -3.01133e-18)
(0.0223098 -4.17083 -3.44329e-18)
(-0.261243 -3.11857 1.83899e-18)
(-0.084328 -2.31448 4.24556e-19)
(3.23998 -6.77162 7.19652e-18)
(2.84164 -6.76437 -2.71185e-18)
(2.42583 -6.74241 3.01121e-18)
(1.9664 -6.74538 -2.33899e-18)
(1.50885 -6.72911 -4.58975e-19)
(1.09856 -6.63242 0)
(0.760623 -6.37933 8.72855e-19)