/*--------------------------------*- C++ -*----------------------------------*\
| =========                 |                                                 |
| \\      /  F ield         | OpenFOAM: The Open Source CFD Toolbox           |
|  \\    /   O peration     | Version:  3.0.1                                 |
|   \\  /    A nd           | Web:      www.OpenFOAM.org                      |
|    \\/     M anipulation  |                                                 |
\*---------------------------------------------------------------------------*/
FoamFile
{
    version     2.0;
    format      ascii;
    class       volScalarField;
    location    "0.235174";
    object      k;
}
// * * * * * * * * * * * * * * * * * * * * * * * * * * * * * * * * * * * * * //

dimensions      [0 2 -2 0 0 0 0];

internalField   nonuniform List<scalar> 
21246
(
0.22226
0.228661
0.0961118
0.0456117
0.0247423
0.0171438
0.0142604
0.0129978
0.0123235
0.0118542
0.0114034
0.263249
0.365665
0.0947733
0.0561076
0.027523
0.0180723
0.014196
0.0124782
0.011544
0.010909
0.0103716
0.304213
0.385648
0.107651
0.065773
0.0290336
0.0190463
0.01424
0.0121325
0.0109707
0.010178
0.00949726
0.337353
0.361228
0.113705
0.0695184
0.0293906
0.0197544
0.0142254
0.0118657
0.0105366
0.00964072
0.00889193
0.35934
0.341228
0.115972
0.0684008
0.029642
0.020106
0.0141064
0.011634
0.0101963
0.00924545
0.00848594
0.3703
0.332249
0.120201
0.0665598
0.0301551
0.0201816
0.0139532
0.0114276
0.00991957
0.0089425
0.00819536
0.371022
0.331645
0.12678
0.0671182
0.0310313
0.0201419
0.0138435
0.011249
0.0096899
0.00869747
0.00794934
0.362566
0.338052
0.134926
0.0691288
0.0327274
0.0202619
0.0138182
0.0111035
0.00950221
0.00849679
0.00775776
0.346832
0.349403
0.145587
0.0729312
0.0350502
0.0207798
0.0140178
0.0110343
0.00936094
0.00833315
0.00759097
0.325564
0.364096
0.161265
0.0795362
0.0385277
0.0219201
0.0144811
0.0110936
0.00930312
0.00821992
0.00745751
0.299582
0.382977
0.181897
0.089293
0.043465
0.0238757
0.0152838
0.0113207
0.00932941
0.00815482
0.00735721
0.270422
0.407626
0.207089
0.102095
0.0499271
0.0267332
0.0165075
0.0117696
0.0094641
0.00815109
0.00729524
0.240938
0.437158
0.238746
0.11929
0.0586912
0.0308579
0.0183599
0.0125447
0.00975883
0.00823429
0.00728497
0.213602
0.469179
0.279595
0.143337
0.0711724
0.0369467
0.02121
0.0138298
0.010309
0.00845235
0.00735197
0.191351
0.509313
0.330824
0.17537
0.0882432
0.045575
0.0254401
0.015852
0.0112464
0.00887819
0.00753688
0.179228
0.559094
0.396616
0.219163
0.112316
0.0580883
0.0318033
0.0190391
0.0128124
0.00964434
0.0079131
0.180572
0.614907
0.481211
0.281182
0.147905
0.0771072
0.0417621
0.0242069
0.0154657
0.0110069
0.00862184
0.194487
0.674603
0.585903
0.368282
0.201127
0.10661
0.0577207
0.0327886
0.0200539
0.0134565
0.00994192
0.213869
0.72277
0.700686
0.486812
0.281919
0.154084
0.0844886
0.0477399
0.0283663
0.0180626
0.0125009
0.229664
0.741897
0.797052
0.630048
0.400586
0.231757
0.131365
0.0753052
0.0444005
0.0273189
0.0178169
0.232232
0.71255
0.835071
0.762179
0.555022
0.354433
0.214787
0.128523
0.0773361
0.0473473
0.0298368
0.235602
0.663667
0.815785
0.83804
0.713608
0.525686
0.35566
0.230523
0.146681
0.0928782
0.0589571
0.216175
0.544441
0.652737
0.721826
0.715563
0.632322
0.503943
0.373265
0.26376
0.181549
0.122269
0.251455
0.650202
0.736882
0.752603
0.708211
0.631823
0.53366
0.432269
0.338556
0.258646
0.192101
0.176509
0.188266
0.0892241
0.0400889
0.0228289
0.0168516
0.0146511
0.0137603
0.0133816
0.0132243
0.0131558
0.186301
0.171106
0.0703962
0.0408278
0.0250873
0.0183659
0.0156797
0.0146626
0.0143239
0.014295
0.0144155
0.208948
0.182261
0.0626226
0.0428714
0.0267351
0.0201161
0.017238
0.0160957
0.0157842
0.0159036
0.0162784
0.229779
0.16878
0.0592544
0.0443095
0.0269877
0.0204778
0.0175598
0.0165663
0.0165227
0.0170023
0.0178434
0.246135
0.14609
0.0572022
0.0437284
0.026751
0.0206501
0.0176215
0.0165703
0.016496
0.0170145
0.0179867
0.259115
0.126906
0.0553613
0.0420331
0.026233
0.0206593
0.0175682
0.0164784
0.0163565
0.0168911
0.017983
0.270146
0.112831
0.0535751
0.0401154
0.0256695
0.0205899
0.0174754
0.0163796
0.0161822
0.0166235
0.0175634
0.279034
0.102459
0.0517973
0.0383505
0.0252037
0.0204768
0.0174069
0.0163209
0.0160613
0.0164019
0.0171485
0.287258
0.0948224
0.0502633
0.0369925
0.0249769
0.0203786
0.0173976
0.016321
0.0160231
0.0162969
0.0169096
0.295797
0.0894318
0.0491245
0.036033
0.0249803
0.020373
0.017467
0.0163881
0.0160708
0.0163258
0.0169221
0.305547
0.086008
0.0485046
0.0355649
0.0252008
0.020507
0.0176271
0.0165234
0.0161918
0.016466
0.0171662
0.316062
0.0838967
0.0482396
0.0355013
0.0256293
0.0207882
0.0178823
0.0167235
0.0163641
0.0166569
0.0174892
0.326785
0.0837076
0.0483809
0.0358214
0.026319
0.021234
0.0182494
0.0169876
0.0165704
0.0168417
0.0177544
0.336335
0.0865162
0.049328
0.036551
0.0273949
0.0219374
0.0188144
0.0173621
0.0168437
0.0170384
0.0179449
0.344756
0.0908786
0.0508672
0.0376084
0.0288003
0.0229413
0.0196143
0.0178901
0.0172088
0.0172619
0.0180489
0.352165
0.0970744
0.0531933
0.0390685
0.0305292
0.024319
0.0207078
0.018637
0.0177053
0.0175369
0.018086
0.358657
0.10535
0.0566337
0.0410748
0.0326049
0.0261446
0.0221823
0.0197012
0.0184153
0.0179318
0.0181337
0.364273
0.11557
0.0614712
0.0438186
0.0350795
0.028469
0.024137
0.0212125
0.0194758
0.0185745
0.0183224
0.369095
0.127725
0.0681418
0.0476385
0.0381143
0.0313535
0.0266786
0.0233244
0.0210848
0.0196787
0.018895
0.373261
0.141953
0.0772626
0.0531209
0.0420802
0.0349436
0.0299333
0.0262029
0.0234823
0.0215478
0.020208
0.376957
0.158239
0.0895411
0.06117
0.0477004
0.0396223
0.0341141
0.0300226
0.0269035
0.0245159
0.0226884
0.380699
0.176024
0.105504
0.0729734
0.0561975
0.0462529
0.0396995
0.035003
0.0314596
0.0287095
0.0265479
0.384383
0.197151
0.127017
0.0907102
0.0698719
0.0568212
0.0481143
0.0420058
0.0375537
0.034214
0.0316419
0.401352
0.23069
0.176094
0.145389
0.123848
0.108374
0.100939
0.0981362
0.0977185
0.0979228
0.0968204
0.78768
1.27912
0.879429
0.632222
0.422467
0.276237
0.188999
0.140002
0.112368
0.0958002
0.0845583
0.724673
1.06732
0.882345
0.682248
0.488569
0.316974
0.211236
0.151745
0.1193
0.100882
0.0886297
0.601693
0.8285
0.818452
0.686113
0.524667
0.361689
0.239662
0.164117
0.126072
0.105816
0.0936168
0.451343
0.672643
0.736603
0.66611
0.541181
0.395428
0.269495
0.182114
0.13343
0.10987
0.0980567
0.305652
0.570291
0.661494
0.638526
0.548701
0.423109
0.299768
0.203961
0.144976
0.114816
0.101507
0.189213
0.489897
0.597814
0.608644
0.550228
0.446541
0.330718
0.230432
0.161268
0.122252
0.104816
0.126925
0.4388
0.554097
0.581116
0.546449
0.464501
0.360215
0.259977
0.182714
0.133794
0.109329
0.120506
0.414451
0.537495
0.564951
0.542289
0.477296
0.385875
0.289752
0.20789
0.149878
0.11658
0.112487
0.378286
0.52795
0.562639
0.54364
0.48772
0.407044
0.317278
0.234482
0.169694
0.127365
0.0913931
0.291961
0.482265
0.556435
0.548496
0.497316
0.423894
0.340829
0.260018
0.191469
0.141391
0.0735738
0.221651
0.400461
0.521603
0.544274
0.502542
0.435174
0.358588
0.281879
0.212711
0.157186
0.0606318
0.170197
0.306132
0.450832
0.51712
0.496183
0.437841
0.368506
0.297627
0.230677
0.172559
0.0526173
0.138121
0.230094
0.362783
0.4642
0.472821
0.42883
0.368923
0.305563
0.24307
0.184987
0.0468902
0.118118
0.18084
0.277793
0.391789
0.431496
0.406395
0.35869
0.304547
0.248166
0.191877
0.0415374
0.103013
0.148076
0.215822
0.309258
0.375528
0.370845
0.337383
0.29386
0.244631
0.191678
0.0367162
0.090553
0.123068
0.17244
0.239547
0.306699
0.324854
0.30597
0.273852
0.232524
0.183869
0.0321657
0.0796927
0.102744
0.139444
0.186509
0.239457
0.271124
0.267302
0.246774
0.214077
0.170781
0.0283359
0.0703332
0.0871133
0.114316
0.146697
0.184835
0.217432
0.227492
0.218856
0.196169
0.160027
0.0256421
0.0636496
0.0756951
0.0961741
0.118497
0.145642
0.174574
0.195439
0.199401
0.188992
0.160827
0.0252705
0.0611984
0.0693048
0.0851975
0.101242
0.121658
0.147296
0.17314
0.185574
0.185963
0.167349
0.0281093
0.0604197
0.0664864
0.0792456
0.091557
0.107996
0.131355
0.152659
0.164252
0.168257
0.16089
0.0301298
0.0594929
0.0631571
0.0743881
0.0858313
0.101571
0.120288
0.135086
0.143852
0.149413
0.150613
0.0295949
0.0504238
0.0577674
0.0701597
0.0838773
0.102137
0.121749
0.136677
0.145285
0.149343
0.148983
0.0431904
0.0477607
0.062525
0.0848692
0.109748
0.133064
0.149396
0.15774
0.159375
0.15688
0.151296
0.783105
1.0375
0.831438
0.568988
0.373152
0.24893
0.17528
0.132456
0.107233
0.0914103
0.0800002
0.554465
0.835075
0.72431
0.544414
0.376435
0.255957
0.179611
0.133827
0.106777
0.0902383
0.0788982
0.482203
0.732795
0.673399
0.55253
0.401261
0.275094
0.190055
0.138225
0.107767
0.0898272
0.0784931
0.432193
0.648449
0.621417
0.55067
0.426279
0.301467
0.206882
0.146211
0.110185
0.0894546
0.0772873
0.395509
0.577488
0.576961
0.533036
0.439838
0.331654
0.234561
0.162819
0.117359
0.090864
0.0762255
0.363923
0.518011
0.540346
0.515819
0.444519
0.352922
0.262383
0.186987
0.131889
0.0959479
0.0752945
0.333168
0.4662
0.506519
0.49776
0.446688
0.373025
0.291855
0.215491
0.152618
0.107058
0.0784441
0.301794
0.418687
0.472649
0.477748
0.445452
0.390156
0.321451
0.248385
0.180822
0.126425
0.0884844
0.268463
0.372196
0.436118
0.453814
0.439256
0.402538
0.348734
0.28292
0.214213
0.152459
0.103725
0.233403
0.324347
0.394974
0.423667
0.425649
0.407448
0.37051
0.315637
0.249767
0.183778
0.126437
0.198399
0.276549
0.348674
0.385949
0.402629
0.402196
0.383383
0.342694
0.28373
0.217457
0.155951
0.164448
0.231931
0.30062
0.3435
0.37113
0.385471
0.384132
0.36048
0.312309
0.249253
0.186221
0.133855
0.192709
0.255495
0.300908
0.335551
0.360564
0.372993
0.36479
0.330785
0.276265
0.215455
0.108843
0.161196
0.216981
0.262391
0.300625
0.332234
0.354192
0.35824
0.337028
0.292561
0.237986
0.0906265
0.138765
0.187605
0.231261
0.270298
0.304823
0.332081
0.344484
0.333555
0.298614
0.250566
0.0789652
0.124563
0.167306
0.208338
0.246195
0.280708
0.309647
0.326651
0.323221
0.296354
0.254409
0.0723215
0.116424
0.154368
0.192416
0.227775
0.260164
0.288021
0.306551
0.308163
0.287918
0.251874
0.0688647
0.112104
0.146528
0.181476
0.213511
0.242335
0.26711
0.284824
0.289513
0.27504
0.244471
0.0671773
0.109756
0.141766
0.173671
0.201976
0.226348
0.24667
0.26181
0.267953
0.258732
0.234093
0.0663815
0.108063
0.138538
0.167682
0.192297
0.211944
0.227047
0.238226
0.244077
0.239217
0.220079
0.065839
0.105815
0.135482
0.162409
0.183939
0.199417
0.209458
0.215971
0.219859
0.217491
0.204206
0.0654568
0.102649
0.131556
0.156888
0.176441
0.189163
0.19542
0.197572
0.198249
0.19617
0.186947
0.0631889
0.0935803
0.122681
0.14831
0.167767
0.17988
0.184659
0.184108
0.18148
0.177713
0.170122
0.0699552
0.094106
0.123483
0.145648
0.161597
0.17169
0.175864
0.174703
0.17046
0.165086
0.157813
0.888937
1.27781
1.01257
0.714434
0.459833
0.277649
0.164249
0.0966627
0.056477
0.032916
0.0196078
0.655528
0.955774
0.867365
0.651155
0.435024
0.270931
0.162629
0.0956638
0.0555845
0.032183
0.0190805
0.473313
0.798815
0.774121
0.627416
0.442001
0.283446
0.172049
0.100958
0.0579176
0.0330173
0.019417
0.382166
0.683428
0.701989
0.601961
0.445473
0.295656
0.183277
0.109107
0.0631335
0.0360015
0.0209609
0.320904
0.55469
0.597548
0.551761
0.436401
0.304226
0.193604
0.116429
0.0673812
0.0379587
0.0214583
0.289567
0.478314
0.518033
0.487421
0.398942
0.288731
0.189504
0.116426
0.0684925
0.0393003
0.0228922
0.270079
0.4266
0.462363
0.435999
0.359564
0.264418
0.17781
0.112332
0.0677828
0.0395789
0.0231254
0.25692
0.388157
0.418988
0.394196
0.326476
0.242672
0.165921
0.107004
0.0660253
0.0394579
0.0239407
0.247075
0.357785
0.383977
0.359898
0.298364
0.223248
0.154562
0.101466
0.0639738
0.0390868
0.0240756
0.238677
0.332422
0.355218
0.33212
0.275506
0.207133
0.14479
0.0964055
0.0618299
0.0383523
0.0236308
0.231406
0.310828
0.33132
0.309538
0.257118
0.19414
0.136768
0.0920678
0.0597935
0.037507
0.0235033
0.225734
0.2927
0.311408
0.290934
0.242142
0.183648
0.130293
0.0885163
0.0580629
0.0367604
0.0232117
0.221261
0.277222
0.294771
0.275769
0.230251
0.175525
0.12539
0.0858881
0.0568397
0.03631
0.0232279
0.217385
0.263656
0.280811
0.263725
0.221331
0.169777
0.122139
0.0842905
0.0562115
0.0361892
0.0234871
0.214532
0.251971
0.269063
0.254103
0.214762
0.166025
0.120382
0.0837022
0.0562047
0.0363909
0.0235906
0.212649
0.241672
0.259211
0.246713
0.2105
0.164336
0.120237
0.0842444
0.0569157
0.036974
0.0239224
0.211554
0.232256
0.250917
0.241505
0.208731
0.165007
0.121998
0.0861455
0.0584993
0.0380335
0.0245169
0.211555
0.223664
0.243698
0.23812
0.209344
0.168126
0.125865
0.0896263
0.0611634
0.0397481
0.0254694
0.212834
0.215726
0.236948
0.235353
0.211502
0.173596
0.132169
0.0950893
0.0652644
0.0424561
0.0270958
0.215675
0.208078
0.230381
0.232977
0.214595
0.180647
0.140409
0.102414
0.0709299
0.0465072
0.0296901
0.220655
0.200561
0.223554
0.230509
0.217975
0.188654
0.150302
0.111778
0.078644
0.0524575
0.0338652
0.229621
0.192424
0.216413
0.226985
0.220272
0.196257
0.16105
0.123214
0.0890888
0.0612514
0.0406115
0.241536
0.184166
0.206518
0.222305
0.221116
0.202645
0.171944
0.136624
0.102906
0.0740195
0.0513322
0.262189
0.191072
0.213244
0.214905
0.214171
0.201778
0.178749
0.149604
0.11927
0.0911791
0.0674072
0.84639
1.23731
1.03846
0.809342
0.582144
0.356949
0.209103
0.119934
0.0676424
0.0382546
0.0222691
0.704572
0.926246
0.941791
0.823466
0.653816
0.454794
0.283588
0.159167
0.0895272
0.0494369
0.0274801
0.400317
0.732429
0.824929
0.783669
0.670689
0.510457
0.345234
0.207416
0.118005
0.0659323
0.0363259
0.341619
0.778644
0.797308
0.756452
0.66955
0.539212
0.389656
0.250595
0.14969
0.0871797
0.0496856
0.387748
0.909477
0.961632
0.82724
0.697506
0.564659
0.423439
0.287642
0.180191
0.109677
0.0663029
0.397426
0.874791
1.19551
1.0475
0.808128
0.617432
0.45931
0.320912
0.209252
0.131652
0.0842733
0.402572
0.837349
1.277
1.35989
1.04594
0.737045
0.51721
0.357098
0.237387
0.153492
0.101496
0.406082
0.805691
1.24313
1.6163
1.41046
0.962351
0.622737
0.40707
0.267226
0.175052
0.118279
0.409169
0.780111
1.19999
1.64341
1.73005
1.27388
0.791729
0.482383
0.303181
0.197002
0.134581
0.410979
0.751357
1.14804
1.5956
1.91879
1.61197
1.01923
0.588641
0.348937
0.22046
0.150449
0.412473
0.721416
1.08889
1.51311
1.91394
1.85878
1.26229
0.71708
0.403937
0.245842
0.166148
0.414854
0.691883
1.0235
1.40366
1.81409
1.96276
1.46008
0.841274
0.459644
0.271165
0.181124
0.419582
0.670692
0.960065
1.282
1.65879
1.91598
1.56425
0.927612
0.502455
0.292458
0.194619
0.426774
0.655916
0.900533
1.15809
1.4711
1.75644
1.5539
0.951811
0.520235
0.305699
0.206328
0.437746
0.650038
0.849188
1.03969
1.26562
1.51589
1.45495
0.906723
0.507935
0.309534
0.216493
0.450263
0.650993
0.803469
0.929317
1.06786
1.21094
1.24892
0.827929
0.472196
0.30671
0.226496
0.464353
0.65844
0.761755
0.823243
0.884393
0.946138
0.950918
0.744057
0.439186
0.305537
0.238791
0.482143
0.677968
0.733704
0.736065
0.736323
0.747818
0.740375
0.652059
0.440767
0.320088
0.261573
0.508185
0.719877
0.735908
0.689058
0.648796
0.640026
0.640736
0.609828
0.490122
0.377098
0.304554
0.551343
0.804669
0.801134
0.717855
0.649254
0.633474
0.646584
0.645765
0.591701
0.481121
0.366072
0.631176
0.997712
1.01337
0.908363
0.804983
0.755662
0.724862
0.684847
0.631658
0.49772
0.361617
0.713469
1.22399
1.26944
1.16442
0.960073
0.72422
0.573452
0.469462
0.379102
0.294353
0.22112
0.478063
0.79588
0.808312
0.634462
0.48113
0.373481
0.298037
0.242171
0.197041
0.158533
0.124537
0.30639
0.244317
0.218362
0.205519
0.199595
0.193498
0.182528
0.164996
0.142123
0.116724
0.0917347
0.122843
0.121129
0.115106
0.105248
0.0897836
0.064351
0.0285854
0.0159713
0.016144
0.188368
0.175628
0.158483
0.135459
0.109331
0.0814075
0.0536502
0.0309023
0.0251209
0.18849
0.176045
0.16003
0.144965
0.126759
0.100633
0.0685944
0.0410631
0.0320259
0.162418
0.156308
0.145834
0.136924
0.125487
0.10682
0.0782856
0.0492753
0.0386445
0.124557
0.128225
0.123033
0.116309
0.105979
0.0922755
0.0716203
0.037129
0.0195415
0.20371
0.208716
0.191021
0.174329
0.153916
0.128931
0.10062
0.07326
0.0379259
0.201775
0.2063
0.188633
0.172866
0.161825
0.148054
0.125942
0.0958936
0.051094
0.172401
0.178959
0.16623
0.15656
0.151724
0.144058
0.130169
0.105783
0.0625842
0.00442719
0.00460082
0.00461618
0.00781122
0.0212751
0.00438401
0.0111594
0.00454634
0.00437715
0.00423769
0.0219275
0.00455714
0.00403795
0.00388432
0.00448379
0.00430236
0.00380209
0.00749832
0.00429172
0.0042463
0.00410754
0.00435284
0.00466622
0.00604728
0.00449265
0.0038748
0.00403999
0.0110398
0.0633272
0.0145839
0.00386081
0.00406496
0.00404376
0.0045355
0.0042267
0.00459189
0.00594577
0.00448782
0.00410257
0.0043908
0.00604503
0.00454482
0.00360175
0.00465937
0.0621229
0.0125301
0.00336742
0.0194558
0.00425945
0.00434006
0.012916
0.00439627
0.00521147
0.0035771
0.00433169
0.0041147
0.00424152
0.00440191
0.0663408
0.00407023
0.00516995
0.00515009
0.0304427
0.036893
0.00786453
0.00425838
0.0166537
0.00432758
0.00460128
0.00423094
0.0036974
0.00431896
0.00690678
0.0046254
0.00778638
0.00428141
0.00363556
0.00459802
0.0351381
0.0720362
0.00598947
0.0384357
0.00449517
0.00462615
0.00427203
0.00694196
0.0965982
0.00496034
0.00749663
0.00562575
0.00454328
0.00441211
0.006878
0.0044015
0.0710769
0.0326017
0.0058161
0.00396862
0.00754256
0.00438866
0.00458773
0.019188
0.00416559
0.00394912
0.00713024
0.00455349
0.00358723
0.00464666
0.00399
0.00416274
0.00450724
0.00455998
0.00431107
0.00841624
0.00588025
0.00442345
0.00437935
0.0043161
0.00449701
0.00413602
0.00811091
0.00454292
0.00522562
0.00374656
0.0116543
0.00411889
0.00458092
0.003573
0.00373039
0.0038599
0.00445074
0.00405148
0.0188223
0.00428815
0.00461411
0.0044676
0.00336571
0.0346095
0.0156269
0.00442073
0.00375489
0.00410702
0.0319828
0.00401581
0.00437224
0.0044527
0.00443714
0.00431778
0.00430869
0.00424217
0.00427869
0.00441735
0.00529191
0.00452884
0.00898349
0.00365624
0.00682428
0.00374672
0.00365233
0.00436087
0.00368775
0.0089076
0.0043101
0.00443183
0.0189437
0.00425804
0.00809986
0.00424792
0.00422111
0.00781457
0.00395059
0.00357475
0.00445528
0.0040494
0.00405787
0.00392802
0.00364247
0.00541839
0.063359
0.00389965
0.00430931
0.0038605
0.00465953
0.00774182
0.00450164
0.0238178
0.00425406
0.00430122
0.00458824
0.0374407
0.00399847
0.00392139
0.00427211
0.00600626
0.00460934
0.00440047
0.00435673
0.00764538
0.00388913
0.00467918
0.00345898
0.00433822
0.00403208
0.00386039
0.00462728
0.00494739
0.00438743
0.00372391
0.00434959
0.00433872
0.00557962
0.00439413
0.00400447
0.00418985
0.0044901
0.00524343
0.0045104
0.00364831
0.0042785
0.00376132
0.00418656
0.00739262
0.00596547
0.00603486
0.00372627
0.0044067
0.00653733
0.00422772
0.00393772
0.040317
0.00432647
0.00425579
0.0042712
0.00452766
0.00514054
0.0792521
0.0117946
0.00464602
0.00456143
0.0045489
0.00361947
0.0213344
0.00393679
0.00561658
0.00470527
0.0088028
0.00451731
0.00383354
0.0303046
0.00644185
0.00383471
0.00569478
0.00510374
0.00429896
0.00393207
0.0043631
0.00413458
0.00447375
0.00364513
0.00424718
0.00376078
0.00444022
0.00432619
0.00457466
0.00450518
0.00341276
0.00410729
0.00480314
0.00564665
0.00368943
0.0140554
0.00432
0.00433096
0.00336914
0.00439011
0.00432842
0.00375629
0.00444681
0.00424583
0.0077604
0.00435889
0.00460128
0.00612261
0.0108576
0.00393297
0.00439747
0.0851369
0.00459099
0.00421761
0.00392864
0.00461865
0.0125789
0.00430589
0.00394546
0.00467893
0.00435578
0.0042049
0.00456515
0.00422543
0.00375339
0.00444459
0.007277
0.00433442
0.0151743
0.00414586
0.00416481
0.00459914
0.00420137
0.00384767
0.00435203
0.00725513
0.00456627
0.00408517
0.00402484
0.00401265
0.00409068
0.00409471
0.00998216
0.00412488
0.00452552
0.00425018
0.00482401
0.00435641
0.00377775
0.0416145
0.00418567
0.00445118
0.00405875
0.00423937
0.00684521
0.00438396
0.0310274
0.0035765
0.00464955
0.00399395
0.0462638
0.00682239
0.0045871
0.00447286
0.00395809
0.00413588
0.00575919
0.00433022
0.00413448
0.0118791
0.00422026
0.00417213
0.00437777
0.00532303
0.00490302
0.00843043
0.00390992
0.00370618
0.00416343
0.00414101
0.00468917
0.00420017
0.00398166
0.0046605
0.00704562
0.00384102
0.00391948
0.00451811
0.00451155
0.00431193
0.00761619
0.00358255
0.00391018
0.0106331
0.00473121
0.0044403
0.00875424
0.037519
0.00376611
0.00420088
0.00461029
0.00389323
0.00420721
0.00437846
0.00424961
0.00714839
0.00438691
0.00392105
0.00441335
0.00391659
0.015504
0.0067097
0.0037179
0.0202751
0.00826677
0.00442739
0.00602801
0.003642
0.00461625
0.0155517
0.00779108
0.00447757
0.00428633
0.00462233
0.00380963
0.00364031
0.00441036
0.00466144
0.00398969
0.00402844
0.00647044
0.0258309
0.00419547
0.00433485
0.00476983
0.00421724
0.0042772
0.00398136
0.0039685
0.0058339
0.00406562
0.004012
0.00478132
0.00367912
0.00827907
0.0124113
0.00368022
0.0124738
0.00390306
0.00394327
0.00414689
0.0045856
0.00478852
0.00454267
0.00919974
0.0044852
0.00395469
0.00386122
0.00409807
0.0042242
0.00428338
0.00615066
0.0142428
0.00374957
0.00468846
0.00386094
0.0963385
0.00640768
0.0068995
0.00418344
0.00423581
0.00456543
0.00336323
0.00434534
0.00612721
0.00443909
0.00461323
0.00449886
0.0107407
0.00448341
0.0113497
0.00395017
0.00343321
0.00491113
0.00459021
0.00434084
0.00465185
0.00371543
0.00392344
0.00421119
0.00777492
0.00737434
0.00545505
0.00546768
0.00437613
0.00389684
0.00637474
0.00421592
0.00511919
0.0041976
0.00458736
0.00432828
0.00557875
0.00478634
0.00426089
0.00445018
0.004123
0.0348634
0.00367937
0.00464762
0.00434748
0.0465607
0.0040402
0.00425227
0.0043408
0.00352189
0.00439859
0.00419925
0.00440231
0.00377747
0.00368051
0.0042622
0.00380569
0.0039905
0.00475761
0.00398168
0.0040617
0.00453968
0.004534
0.0388776
0.00433243
0.00646455
0.00438615
0.017994
0.00461933
0.00900797
0.00455309
0.00848646
0.0041655
0.004629
0.0140275
0.00356566
0.00379728
0.00445177
0.00365152
0.00411424
0.00459952
0.00442696
0.00457311
0.00416632
0.00724736
0.00451629
0.0043544
0.00522993
0.0044364
0.00989113
0.00424453
0.00413102
0.00370928
0.00746502
0.00467888
0.00447603
0.00463566
0.00601653
0.00475629
0.0045013
0.00448825
0.00374757
0.00461679
0.0057552
0.00460708
0.00587066
0.00420601
0.00398801
0.00408163
0.00374786
0.0137784
0.00998491
0.00415533
0.00410342
0.00429622
0.00460771
0.00428656
0.00316625
0.00423433
0.00392468
0.0292849
0.0385378
0.00449134
0.0043426
0.00459782
0.0045336
0.0120883
0.00429692
0.00454361
0.00437352
0.0104588
0.00432534
0.0039194
0.00377072
0.0042107
0.0212181
0.00442971
0.00460927
0.00446328
0.00347251
0.0043415
0.00752086
0.00365433
0.00406121
0.00429277
0.0044474
0.00463853
0.00467367
0.0715109
0.00440814
0.00367814
0.0153055
0.0036013
0.00454092
0.00410264
0.00406215
0.00421265
0.00443617
0.00449046
0.0282946
0.00342168
0.00422214
0.00424898
0.0045005
0.020967
0.00423802
0.00449413
0.00419549
0.00429241
0.00389926
0.00344554
0.00354943
0.00570671
0.0039979
0.00515497
0.00429162
0.00454408
0.0042705
0.00445347
0.0303409
0.00649472
0.00438251
0.00439075
0.00333094
0.00415378
0.00433488
0.00563429
0.00460706
0.00416182
0.0038442
0.00399894
0.00379136
0.00380827
0.00367116
0.0163386
0.0044579
0.00498502
0.00422362
0.0038791
0.00815562
0.00717907
0.00383959
0.00462128
0.00415972
0.0413584
0.00391894
0.00420892
0.00432397
0.00386717
0.00370466
0.0301029
0.00373374
0.00537458
0.00442368
0.00516291
0.00454993
0.00429581
0.00424345
0.00389374
0.00424759
0.00441592
0.00418119
0.00459399
0.016547
0.00612354
0.0411523
0.00427312
0.00422904
0.00397657
0.00439791
0.00447717
0.0238033
0.00430071
0.0104275
0.00431263
0.0044286
0.00429451
0.00465991
0.0040373
0.0250341
0.00389804
0.0259848
0.00367657
0.00417682
0.00463646
0.00389537
0.00372125
0.00979004
0.00471284
0.00436969
0.00406961
0.00463265
0.00371989
0.00419443
0.00389174
0.00455738
0.00440081
0.00440568
0.00403137
0.00337278
0.00456217
0.00372484
0.00437406
0.00419747
0.00365835
0.00406953
0.0185749
0.00529636
0.00406087
0.00406775
0.00414432
0.00405731
0.00423166
0.00400096
0.0114744
0.00446799
0.00396954
0.00448981
0.00436619
0.00671924
0.00435684
0.00351516
0.00388368
0.00432419
0.00416168
0.00412787
0.00378018
0.0045848
0.0048664
0.00411944
0.00594632
0.00413298
0.00395363
0.00397545
0.00450712
0.00450074
0.00397933
0.00527739
0.00849545
0.00452593
0.00392074
0.0288909
0.00454952
0.0099749
0.00386131
0.00473366
0.00994261
0.00438094
0.00420388
0.00419687
0.00377562
0.0043721
0.00375325
0.00457256
0.00403835
0.00429974
0.00397871
0.00432501
0.00631802
0.00394465
0.00428922
0.00609689
0.0133024
0.00446169
0.00381584
0.00382724
0.00400677
0.00510088
0.0036798
0.00425899
0.00572643
0.00407258
0.00491783
0.00428664
0.00426131
0.0044135
0.00428785
0.00368412
0.00469061
0.00448561
0.0044711
0.0480377
0.00520202
0.00405773
0.0045783
0.00396692
0.0043965
0.00455639
0.00457861
0.00462511
0.00447988
0.00462293
0.00365324
0.00619256
0.00761077
0.00360308
0.00424606
0.00442901
0.00449739
0.00373222
0.00885998
0.00459539
0.00406444
0.00390536
0.0176962
0.00629422
0.00479519
0.00388023
0.00545284
0.00443238
0.00446185
0.0113745
0.00421716
0.00456742
0.00434603
0.00407785
0.0038898
0.00380435
0.00455626
0.00439148
0.00640871
0.0070814
0.0045658
0.00364953
0.00428007
0.00337246
0.00619061
0.00464047
0.00428
0.00720521
0.00349809
0.00401828
0.00460089
0.00418003
0.00465462
0.00433807
0.00459272
0.00477593
0.00382628
0.00951892
0.0157747
0.00406363
0.00454923
0.0227321
0.00466976
0.00429612
0.00527203
0.00448614
0.00441711
0.00441538
0.00800322
0.00522905
0.00361777
0.00441416
0.00542605
0.00442469
0.00468813
0.00434387
0.00438735
0.00432599
0.00449466
0.0045598
0.00435058
0.0722273
0.0043802
0.00425456
0.00431647
0.0242669
0.00428031
0.00450683
0.0361832
0.0685195
0.00423508
0.00439514
0.0037396
0.006109
0.00465125
0.00454024
0.00418427
0.00399733
0.00452404
0.00460008
0.00510259
0.0039266
0.00449925
0.00405517
0.00457973
0.00396057
0.00564098
0.00444123
0.00451567
0.00440528
0.00460846
0.00395643
0.0103912
0.004233
0.00405589
0.00534057
0.00388676
0.00391642
0.0164278
0.00466348
0.00455948
0.00365945
0.00410043
0.00395557
0.00439699
0.0161999
0.00430995
0.00386236
0.00431296
0.00372644
0.0036055
0.00770317
0.0038293
0.00419625
0.00452774
0.0101822
0.00371225
0.0045476
0.00417072
0.00379273
0.00423466
0.0042085
0.00528568
0.00438175
0.00460372
0.00368896
0.00907593
0.0333921
0.00347819
0.00377876
0.00391906
0.0052626
0.0395359
0.00451955
0.00425848
0.00482312
0.00439862
0.00539091
0.00449442
0.00513582
0.00401425
0.00418553
0.00460436
0.00380458
0.00464585
0.0044055
0.00401946
0.0107163
0.00425964
0.0044598
0.00434281
0.00445957
0.00441031
0.00911909
0.00450343
0.00418028
0.00645333
0.00354067
0.00403526
0.00461022
0.00422309
0.00406485
0.00460099
0.00467878
0.00406361
0.00358237
0.015924
0.00395042
0.00389635
0.00408434
0.00434749
0.00362891
0.00409961
0.00423423
0.00428651
0.00455484
0.0767604
0.00406528
0.0311247
0.00455292
0.00466066
0.0197973
0.0202939
0.00376404
0.00361028
0.0046758
0.00362491
0.0357222
0.00456243
0.00401808
0.00557828
0.00476279
0.00880948
0.00394658
0.00445187
0.00432861
0.00506934
0.00419628
0.00695414
0.00404235
0.00411281
0.013206
0.0046022
0.00358769
0.00683454
0.00516905
0.00507099
0.00420884
0.00439326
0.00439636
0.00381633
0.00454429
0.00460902
0.00467874
0.00752281
0.00411863
0.004611
0.00397906
0.00432812
0.00381881
0.00452353
0.00806653
0.00409547
0.00407047
0.0042701
0.004556
0.00429424
0.00442796
0.0149587
0.00433063
0.00467311
0.00397879
0.00773053
0.00450551
0.00417478
0.00450322
0.00437747
0.00666491
0.0100248
0.00396887
0.0589565
0.00984834
0.0406665
0.00419731
0.00437644
0.00762462
0.00462868
0.00372267
0.00523791
0.0042605
0.00500361
0.00393515
0.0126532
0.00417825
0.00372532
0.00454997
0.0104606
0.00469547
0.0384052
0.00413189
0.00469912
0.00745464
0.00496133
0.00416599
0.00412871
0.00425167
0.00457289
0.00636076
0.00556665
0.0295375
0.00384858
0.00902665
0.0132384
0.00398297
0.00461146
0.00415698
0.00476207
0.00385231
0.00376702
0.019644
0.00386403
0.0033865
0.0585381
0.00437576
0.0043133
0.00421137
0.00457349
0.00399894
0.00378748
0.0042415
0.00376697
0.0129803
0.00442922
0.0434521
0.00982683
0.00437921
0.00510083
0.00389232
0.00338087
0.00358653
0.00441323
0.00442269
0.00452599
0.013968
0.00437507
0.00458687
0.00400346
0.00454368
0.00453458
0.0121233
0.00455818
0.0340895
0.00417759
0.00675325
0.00428691
0.00460745
0.00391872
0.00396232
0.0131585
0.00444515
0.00401564
0.00459345
0.00402462
0.00428805
0.00527994
0.00408128
0.00423964
0.0289348
0.00437705
0.00404846
0.00431993
0.00512598
0.00378063
0.00447655
0.00819654
0.015989
0.00425375
0.00468959
0.00450545
0.00403246
0.0040984
0.00378591
0.0031833
0.0794973
0.00466217
0.00585546
0.0055564
0.0045771
0.00629007
0.00424342
0.00423026
0.0533897
0.00468584
0.0191497
0.042952
0.00456474
0.00449471
0.00475396
0.0319424
0.00562962
0.0233988
0.0037475
0.00456844
0.0042859
0.00395852
0.00467531
0.00645087
0.00390839
0.0043415
0.00631862
0.00431592
0.00694924
0.0041554
0.00492028
0.049009
0.00402767
0.00381725
0.00430516
0.0043406
0.0338944
0.00391922
0.00398145
0.00459848
0.00461266
0.0040947
0.0174397
0.014541
0.0037538
0.0338251
0.00525081
0.00437322
0.0146622
0.0301559
0.00462116
0.00359545
0.00382447
0.00411061
0.00605384
0.00453422
0.00442546
0.00425487
0.00547197
0.00353539
0.00435539
0.00362867
0.00461425
0.00455991
0.00468819
0.00376127
0.00442825
0.00443664
0.00422079
0.00455788
0.0196804
0.0092539
0.00386735
0.00519146
0.0042794
0.00393085
0.00528337
0.00452529
0.00456512
0.00448335
0.00403731
0.00449623
0.00428281
0.00427603
0.00317999
0.00361102
0.00398343
0.00442971
0.00426014
0.0313845
0.0041967
0.00467574
0.0042905
0.00458659
0.00368584
0.0041353
0.00372969
0.00411638
0.00419667
0.00450442
0.00821139
0.00432468
0.00546565
0.00588444
0.00468828
0.00425143
0.00497022
0.00374279
0.00364934
0.00439705
0.00548835
0.00504141
0.00514023
0.00371546
0.00396632
0.00609957
0.00400821
0.00450112
0.0712672
0.00360699
0.0041429
0.00492654
0.0045683
0.00375494
0.00777383
0.024638
0.00361965
0.0469854
0.0201072
0.00448586
0.00430711
0.00462676
0.00967265
0.00399424
0.00455016
0.00424987
0.00462894
0.00443414
0.00392604
0.0044017
0.00464915
0.0137949
0.00658427
0.0043363
0.00442715
0.00438946