/*--------------------------------*- C++ -*----------------------------------*\
| =========                 |                                                 |
| \\      /  F ield         | OpenFOAM: The Open Source CFD Toolbox           |
|  \\    /   O peration     | Version:  3.0.1                                 |
|   \\  /    A nd           | Web:      www.OpenFOAM.org                      |
|    \\/     M anipulation  |                                                 |
\*---------------------------------------------------------------------------*/
FoamFile
{
    version     2.0;
    format      ascii;
    class       volVectorField;
    location    "0.235174";
    object      U;
}
// * * * * * * * * * * * * * * * * * * * * * * * * * * * * * * * * * * * * * //

dimensions      [0 1 -1 0 0 0 0];

internalField   nonuniform List<vector> 
21246
(
(-0.188215 5.19654 0)
(0.226476 3.81209 0)
(0.641006 3.07391 -3.29985e-18)
(1.03309 2.39629 2.6914e-18)
(1.38141 1.93321 0)
(1.67957 1.60589 0)
(1.92346 1.37797 1.96885e-19)
(2.12488 1.2105 -2.36055e-19)
(2.29595 1.08722 0)
(2.44421 0.996183 1.45782e-19)
(2.5631 0.933916 8.58432e-20)
(1.65913 5.35715 0)
(2.65473 2.97333 0)
(2.19844 3.62052 -3.47755e-19)
(2.15665 2.92278 7.01254e-19)
(2.10798 2.46348 -4.83369e-19)
(2.16031 2.0196 0)
(2.26262 1.683 -2.11032e-19)
(2.38718 1.42958 5.85024e-19)
(2.50857 1.24595 -4.33323e-19)
(2.62295 1.11306 4.66788e-20)
(2.71656 1.02398 3.6267e-20)
(2.44191 3.99283 0)
(3.91209 1.54682 1.23006e-18)
(3.41367 3.21804 1.92662e-18)
(3.27869 2.61399 0)
(2.98008 2.50815 -4.78084e-20)
(2.8033 2.14827 0)
(2.71725 1.83844 2.33215e-19)
(2.71563 1.56484 -8.88902e-20)
(2.75902 1.3505 0)
(2.82214 1.19127 -5.7828e-20)
(2.8868 1.0844 -4.11926e-23)
(2.38263 2.60053 -7.44348e-20)
(4.16492 0.532417 -2.71401e-18)
(3.99431 2.45309 -3.3998e-18)
(3.99643 1.8596 0)
(3.6733 2.17254 0)
(3.40657 1.95372 0)
(3.19649 1.77886 -2.48663e-19)
(3.07734 1.56315 1.02822e-19)
(3.03201 1.37229 -3.38526e-19)
(3.0326 1.21524 -3.6192e-19)
(3.05242 1.10334 0)
(1.96581 1.62267 1.93793e-18)
(3.88154 -0.0368922 0)
(4.05686 1.69814 3.58552e-18)
(4.25245 1.09537 1.02915e-18)
(4.04572 1.67255 -7.82442e-19)
(3.81019 1.54819 -8.41558e-19)
(3.57599 1.54242 -1.67267e-18)
(3.39953 1.42313 5.35338e-19)
(3.2896 1.29694 3.31739e-19)
(3.23719 1.17287 3.56227e-19)
(3.21602 1.07723 0)
(1.45696 0.966315 0)
(3.40662 -0.367796 1.35316e-19)
(3.8393 1.09641 -2.99445e-18)
(4.19917 0.501509 -2.98954e-19)
(4.13152 1.1816 -6.70613e-19)
(3.9819 1.08707 1.32861e-18)
(3.79479 1.22362 9.31682e-19)
(3.62186 1.18969 0)
(3.49031 1.14264 5.84349e-19)
(3.40744 1.07053 -4.32735e-19)
(3.35776 1.00902 -3.65725e-19)
(0.906192 0.523101 0)
(2.88124 -0.551047 8.49893e-19)
(3.51293 0.63772 2.14839e-18)
(3.98631 0.0856979 0)
(4.03626 0.775799 0)
(3.97714 0.674 8.70525e-19)
(3.863 0.90331 5.69531e-19)
(3.72738 0.922099 3.05877e-19)
(3.61118 0.945702 1.27041e-19)
(3.52516 0.924971 -2.64637e-19)
(3.46549 0.904384 0)
(0.342035 0.25861 2.5113e-18)
(2.35595 -0.62006 -2.33011e-18)
(3.14571 0.307775 -5.87281e-19)
(3.70739 -0.18388 8.76754e-19)
(3.84764 0.457326 0)
(3.86689 0.346604 -8.46237e-19)
(3.82157 0.624671 -1.22544e-18)
(3.73416 0.666268 -6.21575e-20)
(3.65216 0.742753 -7.38619e-20)
(3.58311 0.763065 1.44383e-19)
(3.53186 0.777106 0)
(-0.185491 0.136716 -2.12425e-18)
(1.84593 -0.6109 1.25504e-18)
(2.762 0.0782767 -2.24938e-19)
(3.40329 -0.345658 0)
(3.61848 0.216752 0)
(3.70054 0.10996 0)
(3.71173 0.396682 6.4758e-19)
(3.67181 0.446085 -9.11341e-20)
(3.62856 0.556976 2.07155e-19)
(3.5856 0.604015 -5.94255e-20)
(3.55254 0.646684 1.28786e-19)
(-0.691084 0.093544 1.00684e-20)
(1.32448 -0.562016 7.50501e-21)
(2.35763 -0.0781408 -1.35228e-18)
(3.08049 -0.429489 2.39119e-18)
(3.37025 0.0366198 -1.78808e-18)
(3.50729 -0.0498898 6.69704e-19)
(3.56349 0.217423 1.33459e-20)
(3.56577 0.271381 0)
(3.55916 0.396906 -2.03557e-19)
(3.54504 0.459391 0)
(3.53594 0.522359 -1.54441e-19)
(-1.21333 0.124146 2.30315e-18)
(0.785589 -0.468271 -3.46605e-18)
(1.92781 -0.163253 1.33182e-18)
(2.73897 -0.45579 0)
(3.11012 -0.0899455 1.27973e-20)
(3.30155 -0.150898 -5.26338e-19)
(3.39696 0.0825103 5.76253e-19)
(3.43539 0.140123 1.26035e-19)
(3.45996 0.266557 0)
(3.47301 0.338137 4.40827e-19)
(3.48863 0.409592 -1.62359e-19)
(-1.72006 0.227989 -5.87033e-21)
(0.254925 -0.335606 -1.58553e-18)
(1.48843 -0.181876 2.50595e-19)
(2.39019 -0.433892 0)
(2.84532 -0.165196 0)
(3.09225 -0.206753 2.11379e-19)
(3.22407 -0.013006 4.62221e-19)
(3.29342 0.0456683 -6.1617e-19)
(3.34326 0.164073 3.01082e-19)
(3.3793 0.239241 -8.44304e-19)
(3.41561 0.313205 2.57444e-19)
(-2.16996 0.368456 1.77863e-18)
(-0.255389 -0.185096 -1.30175e-18)
(1.04949 -0.153568 -1.35257e-18)
(2.03626 -0.381045 1.00445e-18)
(2.57702 -0.20201 -5.12028e-19)
(2.88251 -0.230983 -5.67436e-19)
(3.05047 -0.077642 1.11013e-18)
(3.14695 -0.0203539 -3.84483e-19)
(3.21699 0.0852764 2.88375e-20)
(3.27181 0.159918 5.91355e-19)
(3.3257 0.231878 -2.5461e-19)
(-2.58399 0.531424 1.20557e-18)
(-0.766412 -0.0218942 -7.32336e-19)
(0.592493 -0.0904283 6.2267e-19)
(1.66143 -0.309437 -8.87709e-19)
(2.29431 -0.212922 4.4456e-19)
(2.66615 -0.236739 -6.39774e-19)
(2.87465 -0.121283 8.82886e-19)
(2.99758 -0.0669028 -3.56967e-19)
(3.08465 0.0249247 4.54735e-19)
(3.15458 0.0976084 -6.4158e-19)
(3.22192 0.165954 0)
(-2.97885 0.717466 2.92417e-19)
(-1.26542 0.152877 6.69608e-19)
(0.124921 0.00523406 -6.21339e-19)
(1.26581 -0.223046 -9.90839e-19)
(1.99153 -0.201863 7.64532e-19)
(2.43604 -0.231388 5.47183e-19)
(2.69133 -0.150554 -4.86102e-19)
(2.84288 -0.101055 -2.3275e-20)
(2.94614 -0.0220468 4.26204e-19)
(3.0282 0.0472762 -2.08714e-19)
(3.10473 0.111227 6.77372e-19)
(-3.32843 0.902631 -1.39944e-18)
(-1.74201 0.326347 1.82188e-18)
(-0.353681 0.121142 2.32086e-20)
(0.841818 -0.126694 -8.6893e-19)
(1.65663 -0.174106 -3.12577e-19)
(2.17903 -0.219297 -4.52922e-19)
(2.48925 -0.17058 -5.61515e-20)
(2.67503 -0.127817 -1.01551e-18)
(2.79728 -0.0595363 3.60529e-19)
(2.89159 0.00658961 9.43551e-19)
(2.97676 0.06873 -9.52303e-19)
(-3.62936 1.08085 1.04152e-18)
(-2.20177 0.498877 -1.51446e-18)
(-0.856181 0.253661 1.93947e-18)
(0.371268 -0.0195175 -3.98968e-19)
(1.26923 -0.130552 3.65439e-20)
(1.8744 -0.200688 4.73754e-19)
(2.24998 -0.183155 -1.22784e-18)
(2.48015 -0.149152 4.41862e-19)
(2.62914 -0.0895224 0)
(2.73951 -0.0265935 -3.37337e-19)
(2.83438 0.0340068 -2.2242e-19)
(-3.88064 1.24877 1.30875e-18)
(-2.63398 0.669689 7.09517e-19)
(-1.37611 0.405018 -2.84131e-19)
(-0.150043 0.105951 7.44497e-19)
(0.815505 -0.0655891 -1.56805e-20)
(1.50306 -0.169239 4.10363e-19)
(1.95285 -0.183925 0)
(2.24003 -0.16197 0)
(2.42838 -0.110486 2.15556e-19)
(2.56407 -0.0511583 1.78324e-19)
(2.67433 0.00628998 3.93031e-19)
(-4.06491 1.39534 7.82011e-19)
(-3.02102 0.836774 -1.71628e-19)
(-1.90188 0.573435 -5.14252e-19)
(-0.725615 0.256301 0)
(0.28013 0.0301858 -7.55292e-19)
(1.04176 -0.113269 3.65193e-19)
(1.57137 -0.162324 -4.09712e-19)
(1.92988 -0.157234 7.0289e-20)
(2.17496 -0.116455 -1.80933e-20)
(2.35119 -0.0630357 3.30844e-19)
(2.48894 -0.00819047 -2.0653e-19)
(-4.18834 1.52276 -1.07411e-18)
(-3.35183 1.00147 -1.21111e-18)
(-2.4133 0.75718 1.07113e-18)
(-1.34965 0.435942 0)
(-0.351999 0.167416 -2.23188e-19)
(0.462875 -0.0153107 -2.14669e-19)
(1.07302 -0.0993191 2.57338e-19)
(1.5173 -0.117827 2.45314e-19)
(1.83937 -0.095204 -1.48152e-19)
(2.07545 -0.055043 0)
(2.25612 -0.0068918 -1.21238e-19)
(-4.27795 1.6634 0)
(-3.63563 1.16263 -1.25233e-18)
(-2.89359 0.947721 1.33483e-18)
(-2.00835 0.643711 6.45426e-19)
(-1.08973 0.362762 -1.10845e-18)
(-0.261179 0.155469 1.88795e-19)
(0.421026 0.0387213 1.58489e-19)
(0.961682 -0.01408 -1.4808e-19)
(1.37953 -0.0245915 9.68953e-20)
(1.69624 -0.0129535 0)
(1.93825 0.0129366 3.39679e-20)
(-4.25789 1.65802 1.19123e-18)
(-3.84768 1.26805 1.29537e-18)
(-3.32864 1.09035 -1.28263e-19)
(-2.6729 0.859142 -7.24736e-19)
(-1.91304 0.632042 3.40943e-19)
(-1.13219 0.441031 -1.1265e-19)
(-0.406329 0.300925 9.09294e-20)
(0.223359 0.203123 -2.75536e-20)
(0.741425 0.141443 -1.94642e-20)
(1.15395 0.108649 -1.13651e-20)
(1.49148 0.117257 1.72397e-20)
(-4.59681 2.00608 -2.76407e-18)
(-4.13929 1.43957 9.49614e-19)
(-3.70757 1.34489 0)
(-3.25839 1.21506 0)
(-2.70009 1.07643 -4.08629e-20)
(-2.04581 0.915873 0)
(-1.35837 0.74235 8.67025e-21)
(-0.70643 0.577276 2.07066e-20)
(-0.130243 0.435468 2.40811e-20)
(0.342934 0.322739 -6.77546e-20)
(0.806671 0.278228 3.13874e-20)
(-3.4311 1.10534 0)
(-2.94272 1.08379 -1.15106e-18)
(-2.80217 1.15724 8.1594e-19)
(-2.72133 1.27692 -1.24855e-20)
(-2.55756 1.38042 0)
(-2.29497 1.40222 0)
(-1.90564 1.32978 0)
(-1.45367 1.20222 -2.45546e-20)
(-0.986092 1.04646 1.93775e-20)
(-0.561554 0.877304 1.49043e-21)
(-0.0433558 0.689568 1.9036e-20)
(-2.66705 0.787149 0)
(-1.73138 0.968659 0)
(-0.454641 1.16706 1.05209e-19)
(0.379272 1.18348 -4.46164e-19)
(0.947735 1.15057 0)
(1.35424 1.08719 -7.85511e-20)
(1.65781 1.01809 0)
(1.89526 0.955065 0)
(2.08686 0.901488 6.00386e-20)
(2.24287 0.856508 0)
(2.36369 0.819419 -3.26698e-20)
(-0.999794 -2.75632 -6.56218e-18)
(-0.397348 -1.60463 -1.02705e-17)
(-0.290581 -0.832363 7.79541e-18)
(0.0956165 -0.0670964 1.34632e-19)
(0.584996 0.371332 0)
(1.04726 0.604265 8.99577e-20)
(1.41705 0.701652 0)
(1.69951 0.726717 4.38292e-19)
(1.91827 0.725601 -6.25379e-19)
(2.08924 0.713915 1.75894e-19)
(2.21793 0.696123 0)
(0.230265 -3.26884 3.06744e-18)
(0.920028 -1.90146 -2.36168e-18)
(0.506926 -1.81701 5.24744e-18)
(0.509196 -1.1504 -3.92781e-18)
(0.625203 -0.597247 0)
(0.879631 -0.136822 1.50109e-18)
(1.17345 0.177013 -1.56857e-18)
(1.45391 0.368524 0)
(1.69251 0.474273 5.31704e-19)
(1.88229 0.530754 -3.84857e-19)
(2.02293 0.556507 3.27138e-19)
(1.15991 -3.01718 -6.03794e-19)
(1.97322 -1.67438 -1.1816e-18)
(1.37445 -2.04085 6.11546e-19)
(1.20705 -1.49214 3.95568e-19)
(1.06113 -1.07615 0)
(1.08234 -0.627641 0)
(1.20715 -0.262863 4.42257e-19)
(1.37359 0.001633 0)
(1.54515 0.178571 0)
(1.69644 0.288655 -8.73646e-19)
(1.81115 0.34835 4.15254e-19)
(1.75594 -2.52794 1.32123e-18)
(2.61896 -1.36527 -2.0299e-19)
(2.05146 -1.92576 2.96439e-20)
(1.85623 -1.48624 -1.17286e-18)
(1.58854 -1.25505 7.39589e-19)
(1.45352 -0.885385 2.9329e-19)
(1.42305 -0.550708 0)
(1.47018 -0.263923 0)
(1.5575 -0.0489113 0)
(1.65363 0.0991141 7.94337e-19)
(1.73099 0.187961 -7.5688e-20)
(2.09834 -2.03548 3.56824e-18)
(2.95976 -1.06662 -1.61627e-18)
(2.48967 -1.66608 0)
(2.32522 -1.29432 0)
(2.03647 -1.22233 0)
(1.83257 -0.943445 -6.49637e-19)
(1.70191 -0.684411 2.80924e-19)
(1.64985 -0.425187 0)
(1.65062 -0.210252 0)
(1.67832 -0.0465076 0)
(1.7017 0.0622465 2.30518e-19)
(2.27952 -1.59593 1.20596e-18)
(3.12277 -0.802093 2.94768e-19)
(2.74706 -1.38076 7.77038e-19)
(2.61442 -1.04348 2.75259e-19)
(2.35501 -1.08483 -2.75459e-19)
(2.14314 -0.867792 -1.96566e-19)
(1.96221 -0.697041 0)
(1.84813 -0.484587 0)
(1.78221 -0.294044 0)
(1.75086 -0.133552 -1.55759e-19)
(1.72846 -0.0164671 0)
(2.37924 -1.22822 -1.17007e-18)
(3.19183 -0.601129 6.76922e-19)
(2.89569 -1.1176 -1.09887e-18)
(2.7885 -0.800281 -1.65607e-18)
(2.55045 -0.917475 4.09253e-19)
(2.36689 -0.729692 1.88184e-19)
(2.17056 -0.631459 0)
(2.02615 -0.467522 0)
(1.91837 -0.312574 -4.69776e-20)
(1.84544 -0.170266 1.52475e-19)
(1.78997 -0.0596772 0)
(2.44469 -0.919971 1.13304e-18)
(3.23255 -0.444073 1.06278e-18)
(2.96725 -0.895523 0)
(2.90819 -0.581044 9.58015e-19)
(2.66926 -0.740893 0)
(2.51393 -0.577952 5.52085e-19)
(2.32125 -0.527462 0)
(2.167 -0.403673 0)
(2.0371 -0.285478 4.59617e-20)
(1.93857 -0.167503 0)
(1.86181 -0.0694118 5.31007e-20)
(2.4787 -0.674668 0)
(3.27628 -0.283039 -1.07406e-18)
(3.00072 -0.694583 5.69216e-19)
(2.98072 -0.404027 -7.11773e-19)
(2.74796 -0.565217 -4.45106e-19)
(2.6089 -0.427002 -7.29308e-19)
(2.42401 -0.40876 4.13715e-19)
(2.26923 -0.315535 -2.23834e-19)
(2.12924 -0.230505 0)
(2.01556 -0.13907 0)
(1.92456 -0.0626089 -2.05553e-19)
(2.46852 -0.489927 -7.53338e-19)
(3.29698 -0.119169 1.15288e-18)
(3.02481 -0.503698 -5.44714e-20)
(3.01698 -0.241714 -4.76779e-20)
(2.79562 -0.401029 0)
(2.6678 -0.280423 -3.42279e-19)
(2.49004 -0.286638 0)
(2.3378 -0.21665 2.20691e-19)
(2.19373 -0.160476 0)
(2.07132 -0.0944611 0)
(1.9709 -0.038907 6.43351e-20)
(2.42966 -0.339699 4.74388e-19)
(3.28523 0.0319511 3.02992e-19)
(3.0308 -0.335482 -5.71111e-19)
(3.02893 -0.0883398 7.25717e-19)
(2.81705 -0.249897 -5.69962e-19)
(2.69848 -0.139999 3.38076e-19)
(2.52683 -0.166594 2.32196e-19)
(2.378 -0.114319 -2.51759e-19)
(2.23269 -0.0835148 5.14346e-19)
(2.10486 -0.0410999 -2.14341e-19)
(1.99828 -0.00182021 2.36353e-20)
(2.38491 -0.202976 -7.16432e-19)
(3.25887 0.178273 7.62832e-19)
(3.01911 -0.188008 -3.80987e-19)
(3.02384 0.0581007 3.13568e-19)
(2.81692 -0.11225 5.039e-19)
(2.70665 -0.00589519 -3.92795e-19)
(2.53931 -0.0519024 -2.31278e-19)
(2.39416 -0.0127194 -2.09485e-19)
(2.24895 -0.00464986 2.10614e-20)
(2.11749 0.0154612 4.68508e-20)
(2.00398 0.0303626 -1.17669e-19)
(2.3237 -0.0615065 0)
(3.20649 0.322804 0)
(2.99617 -0.0400138 -1.34416e-19)
(2.99953 0.189613 9.32893e-20)
(2.80112 0.0220599 0)
(2.69418 0.116733 0)
(2.53141 0.0592836 0)
(2.38904 0.0842614 -6.3105e-20)
(2.24483 0.0735325 1.29131e-20)
(2.11166 0.0737947 3.87229e-21)
(1.99211 0.069083 3.77628e-20)
(2.23885 0.0704592 0)
(3.13102 0.449915 1.6756e-19)
(2.95931 0.100646 -2.05414e-20)
(2.95836 0.307676 -1.93221e-19)
(2.77158 0.152552 0)
(2.66405 0.228232 0)
(2.5061 0.166342 0)
(2.36555 0.174725 -1.42067e-19)
(2.22304 0.148736 1.77294e-19)
(2.09007 0.13112 0)
(1.96742 0.106985 -1.28072e-19)
(2.14867 0.196168 4.77008e-19)
(3.03781 0.564795 4.9561e-19)
(2.90988 0.236195 -2.58176e-19)
(2.90251 0.414674 0)
(2.72919 0.278116 0)
(2.61834 0.330136 3.17966e-19)
(2.46537 0.267787 0)
(2.32627 0.257878 1.42385e-19)
(2.18654 0.218714 -1.77361e-19)
(2.056 0.184942 -4.76467e-20)
(1.93456 0.144014 1.63201e-19)
(2.04964 0.321323 -1.41204e-20)
(2.92435 0.676663 -3.14136e-19)
(2.84576 0.371605 1.15458e-19)
(2.83231 0.514752 2.32121e-19)
(2.67352 0.398484 0)
(2.55802 0.424079 -3.22858e-19)
(2.4102 0.361872 0)
(2.27304 0.33283 0)
(2.13796 0.28123 -7.23217e-20)
(2.01193 0.232317 1.41501e-19)
(1.89552 0.173459 2.55656e-19)
(1.93333 0.44215 -9.35511e-19)
(2.78544 0.784181 3.29618e-19)
(2.76095 0.505502 0)
(2.74521 0.610305 -3.34178e-19)
(2.60224 0.512466 0)
(2.48293 0.510828 -1.33571e-19)
(2.34104 0.446478 4.43017e-19)
(2.20789 0.398262 6.26813e-19)
(2.07928 0.33417 -4.10866e-19)
(1.96019 0.272249 -1.50832e-19)
(1.85182 0.200992 -2.33813e-19)
(1.80008 0.557612 1.87683e-20)
(2.6179 0.887858 5.91499e-19)
(2.64866 0.637286 0)
(2.63615 0.702633 4.22693e-19)
(2.51111 0.61815 2.98237e-19)
(2.39161 0.589348 -8.49103e-19)
(2.25806 0.518446 1.22332e-19)
(2.13235 0.452408 -6.50056e-19)
(2.01329 0.376131 2.58692e-19)
(1.90442 0.302202 5.49295e-19)
(1.80781 0.221374 -1.5746e-19)
(1.64755 0.668764 4.74885e-19)
(2.41505 0.991512 -6.13196e-19)
(2.49839 0.768265 -2.3162e-19)
(2.496 0.792617 -4.53537e-19)
(2.3933 0.713145 0)
(2.28127 0.657171 6.94508e-19)
(2.1614 0.575153 -1.65875e-19)
(2.04849 0.492686 3.1799e-19)
(1.94375 0.405454 4.40067e-20)
(1.84836 0.321737 -2.46884e-19)
(1.76487 0.235615 0)
(1.4647 0.771284 4.47042e-19)
(2.16302 1.09535 1.4369e-19)
(2.29225 0.895747 -1.08648e-19)
(2.30897 0.876898 0)
(2.23734 0.792369 2.50876e-19)
(2.14643 0.70993 0)
(2.04971 0.613598 -2.38719e-19)
(1.95766 0.517598 0)
(1.87246 0.4217 -6.6801e-20)
(1.79403 0.330844 1.00073e-19)
(1.72588 0.240495 -6.27099e-20)
(1.24464 0.86961 -1.04094e-19)
(1.8462 1.1985 3.11164e-19)
(2.0099 1.01518 -5.2551e-19)
(2.05735 0.951542 6.06179e-19)
(2.0306 0.85384 -5.52026e-19)
(1.97929 0.749637 0)
(1.91924 0.640652 -9.91592e-20)
(1.85835 0.535391 7.238e-20)
(1.79939 0.434586 -9.25153e-20)
(1.7429 0.340388 -7.78935e-20)
(1.69126 0.249368 8.99192e-20)
(0.898034 0.844292 -7.40811e-19)
(1.39113 1.23409 2.34279e-19)
(1.59078 1.06446 -2.53395e-19)
(1.68662 0.963484 -3.1906e-19)
(1.72199 0.85999 1.44418e-19)
(1.72988 0.751437 -6.83021e-20)
(1.72234 0.643059 7.76954e-20)
(1.70375 0.535496 7.70222e-21)
(1.67848 0.430022 2.16574e-21)
(1.64888 0.332021 -2.27056e-20)
(1.61282 0.251915 1.19041e-20)
(0.707641 1.04371 3.35437e-19)
(0.883944 1.48308 1.13615e-19)
(1.02573 1.30635 1.64298e-20)
(1.11285 1.15562 1.18197e-19)
(1.1724 1.0306 3.51775e-20)
(1.20672 0.923727 -9.89981e-20)
(1.18615 0.8454 -2.16574e-20)
(1.12482 0.791493 1.64599e-19)
(1.03926 0.749843 -9.59173e-20)
(0.944115 0.712403 0)
(0.864177 0.65499 -1.37527e-20)
(5.53027 -0.529123 2.32227e-18)
(4.06354 -0.387579 5.43169e-19)
(4.03102 -0.242851 -6.92385e-19)
(3.71814 -0.2091 -8.03581e-21)
(3.36471 -0.193432 1.07206e-19)
(3.04467 -0.195923 4.02923e-20)
(2.77777 -0.210014 -4.24537e-20)
(2.55254 -0.229586 9.27547e-20)
(2.35799 -0.253565 1.48411e-20)
(2.1866 -0.280261 -3.34035e-20)
(2.0408 -0.300288 0)
(3.89873 -0.656995 0)
(2.50717 -0.77712 -9.2879e-19)
(3.13406 -0.889195 6.22473e-19)
(3.28377 -0.865766 -3.58704e-19)
(3.19815 -0.771634 6.27192e-19)
(3.0138 -0.646647 0)
(2.80499 -0.548678 -2.93273e-19)
(2.60042 -0.486692 1.02299e-19)
(2.41301 -0.45397 -2.10652e-19)
(2.24359 -0.442615 2.26976e-19)
(2.09895 -0.442458 -1.28447e-19)
(2.49361 0.496743 5.09402e-18)
(1.69225 -0.184442 7.05983e-19)
(2.28354 -0.749401 0)
(2.58006 -0.980233 0)
(2.7254 -1.03979 -6.53557e-19)
(2.76011 -0.975344 1.09956e-19)
(2.69432 -0.852284 3.82132e-19)
(2.56287 -0.731048 -6.51476e-20)
(2.41863 -0.650358 -1.59284e-19)
(2.27297 -0.603835 -3.18959e-19)
(2.14782 -0.584381 0)
(1.99112 1.78693 0)
(1.61848 0.705181 -2.59614e-18)
(1.86059 -0.130851 3.72463e-18)
(2.06169 -0.636477 -1.6583e-18)
(2.25796 -0.935527 -3.96644e-19)
(2.40886 -1.04465 0)
(2.47129 -1.01132 -3.00827e-19)
(2.44698 -0.910663 0)
(2.37054 -0.810807 1.56749e-19)
(2.26932 -0.742885 1.89776e-19)
(2.17937 -0.708584 0)
(2.0989 2.75823 2.93471e-18)
(1.81248 1.54153 0)
(1.7801 0.603539 -1.34451e-18)
(1.84054 -0.086475 -7.04618e-19)
(1.9702 -0.589404 2.19106e-18)
(2.12174 -0.886232 0)
(2.23773 -0.995414 8.64215e-19)
(2.29033 -0.977246 -5.30808e-19)
(2.28536 -0.90805 -1.05966e-19)
(2.23772 -0.842139 7.84016e-20)
(2.18819 -0.802417 9.25582e-20)
(2.51393 3.40905 -1.55494e-19)
(2.10161 2.26092 3.43523e-18)
(1.89531 1.28677 -2.73325e-18)
(1.82789 0.484171 0)
(1.86173 -0.152199 -1.78746e-19)
(1.95465 -0.597396 0)
(2.06193 -0.84701 6.08669e-19)
(2.14526 -0.935698 2.92125e-20)
(2.18858 -0.928421 -4.47754e-20)
(2.18914 -0.888488 -1.64922e-19)
(2.17996 -0.859289 -9.10747e-20)
(2.98227 3.84648 2.07066e-18)
(2.41118 2.87627 1.83716e-19)
(2.11145 1.88821 1.36049e-19)
(1.93082 1.02349 0)
(1.86542 0.301352 0)
(1.88543 -0.252191 0)
(1.95425 -0.619308 -1.90193e-20)
(2.03456 -0.812818 0)
(2.10088 -0.880139 1.31586e-19)
(2.13763 -0.881416 -1.80429e-19)
(2.16275 -0.872507 -2.01371e-19)
(3.1565 3.99996 3.15202e-19)
(2.6554 3.34856 2.67204e-18)
(2.35009 2.4101 -1.32635e-19)
(2.08513 1.53492 3.73451e-19)
(1.93479 0.754894 2.73253e-19)
(1.88228 0.118247 0)
(1.90038 -0.344739 0)
(1.95812 -0.631938 0)
(2.02818 -0.774799 -3.87268e-19)
(2.0885 -0.824752 5.06891e-19)
(2.14059 -0.840879 0)
(3.30187 4.00327 3.27564e-18)
(2.88908 3.65276 -3.03902e-18)
(2.5997 2.86492 0)
(2.2742 2.02276 -1.42523e-18)
(2.04955 1.20703 8.03461e-19)
(1.92513 0.506032 3.76346e-19)
(1.88558 -0.0355674 1.04149e-18)
(1.90852 -0.404715 -7.86704e-19)
(1.96869 -0.619514 -2.47178e-19)
(2.04176 -0.72134 -6.66011e-19)
(2.11707 -0.766641 2.00476e-20)
(3.43224 3.96413 -3.33657e-18)
(3.10064 3.82425 5.4231e-18)
(2.84685 3.23029 -1.91755e-18)
(2.49168 2.4709 -3.50685e-19)
(2.20054 1.65297 5.05275e-19)
(2.00307 0.90981 -3.71786e-19)
(1.9005 0.305911 1.52779e-18)
(1.87977 -0.133608 2.92337e-19)
(1.91972 -0.415046 -5.68768e-21)
(1.99624 -0.569865 6.75843e-19)
(2.09121 -0.648421 -8.25943e-19)
(3.5309 3.90758 0)
(3.24115 3.88621 0)
(3.05476 3.47017 -4.62367e-19)
(2.71085 2.84812 1.3394e-18)
(2.37284 2.07529 -2.01742e-18)
(2.10703 1.32099 7.19419e-19)
(1.93948 0.675668 -5.15107e-19)
(1.8694 0.180279 -1.06105e-18)
(1.88164 -0.159805 -4.81547e-19)
(1.95386 -0.366334 5.88662e-19)
(2.06695 -0.483278 -8.2883e-19)
(3.59936 3.84298 -6.34707e-18)
(3.33897 3.89902 2.45657e-18)
(3.21448 3.60046 2.69941e-18)
(2.90333 3.13189 -2.70078e-18)
(2.54639 2.44974 5.37435e-19)
(2.2258 1.72187 -6.56533e-19)
(1.99809 1.06255 1.04897e-18)
(1.87797 0.531177 6.99836e-19)
(1.85868 0.144885 0)
(1.92033 -0.108282 0)
(2.04493 -0.26561 3.89036e-19)
(3.64734 3.7651 -2.68323e-18)
(3.40265 3.8707 2.41336e-18)
(3.31856 3.64658 -4.49861e-19)
(3.05025 3.32441 6.4599e-19)
(2.70316 2.76186 -1.00346e-18)
(2.35218 2.09449 -7.11057e-19)
(2.07504 1.45325 0)
(1.90963 0.909901 0)
(1.8593 0.493307 0)
(1.90777 0.20087 0)
(2.03726 0.00303346 0)
(3.67732 3.67536 2.70806e-18)
(3.44429 3.81376 2.28271e-18)
(3.37951 3.63711 -2.23805e-18)
(3.16287 3.43601 1.96682e-18)
(2.84092 3.0067 -9.97723e-19)
(2.48235 2.42653 -6.94063e-19)
(2.17331 1.83148 -4.86775e-19)
(1.97203 1.30182 2.9811e-20)
(1.89525 0.873324 4.71237e-19)
(1.93069 0.551612 0)
(2.06433 0.312436 0)
(3.68489 3.57477 -3.80351e-19)
(3.46056 3.7376 0)
(3.40696 3.58853 1.72375e-18)
(3.22419 3.45971 -1.34134e-18)
(2.9618 3.18038 4.62007e-19)
(2.61186 2.70103 -1.53948e-20)
(2.29209 2.17377 4.9e-19)
(2.07064 1.68292 -6.61682e-19)
(1.97701 1.2626 -4.09182e-19)
(2.00299 0.924114 0)
(2.1347 0.650975 2.6462e-19)
(3.67852 3.46477 3.85537e-19)
(3.45853 3.64525 -2.25258e-18)
(3.41414 3.51437 2.20488e-18)
(3.25586 3.43037 -9.4765e-19)
(3.03966 3.24887 5.33395e-19)
(2.74583 2.91533 7.06934e-19)
(2.42728 2.46091 0)
(2.20713 2.02879 0)
(2.11179 1.63413 4.11991e-19)
(2.13663 1.29101 0)
(2.27033 0.982204 2.45736e-19)
(3.66452 3.34565 1.34929e-18)
(3.44655 3.54015 -2.26533e-18)
(3.40852 3.41875 1.76838e-18)
(3.27121 3.3677 9.37106e-19)
(3.0932 3.24838 -2.88512e-19)
(2.85735 3.03147 -3.65631e-19)
(2.57833 2.68663 8.93387e-19)
(2.37855 2.31917 -9.80715e-19)
(2.30078 1.96421 -5.54506e-19)
(2.33519 1.62752 2.6564e-19)
(2.47142 1.28977 0)
(3.63854 3.22482 -1.21272e-18)
(3.42131 3.42178 4.56781e-18)
(3.38965 3.30857 -3.41147e-18)
(3.26956 3.2794 2.61188e-18)
(3.12486 3.20318 -1.78469e-18)
(2.94208 3.0653 -4.63938e-19)
(2.73063 2.83529 4.96076e-19)
(2.57622 2.53939 3.1668e-19)
(2.53734 2.23206 -2.6186e-19)
(2.59564 1.90737 3.53981e-19)
(2.73442 1.54861 -2.18103e-19)
(3.60797 3.10602 -1.74562e-18)
(3.39077 3.29996 2.56606e-18)
(3.36008 3.19037 -3.74535e-18)
(3.25249 3.17718 1.37224e-18)
(3.13634 3.13208 1.22767e-19)
(3.00414 3.04967 1.75304e-19)
(2.86794 2.90786 1.55091e-20)
(2.78767 2.68625 6.12849e-19)
(2.80758 2.42445 -3.50841e-19)
(2.90492 2.11336 1.04773e-19)
(3.05971 1.72859 -5.58725e-20)
(3.57388 2.99367 0)
(3.34816 3.17521 -2.01794e-20)
(3.3135 3.0743 0)
(3.21829 3.07356 0)
(3.12922 3.05124 0)
(3.0453 3.0075 9.43587e-20)
(2.98661 2.92195 -6.52379e-19)
(2.99983 2.75513 3.81964e-20)
(3.09414 2.52454 2.45944e-19)
(3.24381 2.22142 -1.08895e-19)
(3.42305 1.81112 1.77431e-19)
(3.49412 2.88254 2.81924e-20)
(3.28709 3.04336 4.2227e-18)
(3.24826 2.95827 -2.11306e-18)
(3.17071 2.96188 0)
(3.11038 2.94817 0)
(3.07604 2.9166 -1.00507e-19)
(3.10442 2.83021 1.41436e-19)
(3.21571 2.66093 2.27699e-19)
(3.39024 2.40774 1.39243e-19)
(3.5996 2.07327 3.96784e-19)
(3.80365 1.6286 -3.34821e-19)
(3.40237 2.75094 0)
(3.20443 2.8985 -4.06059e-19)
(3.17621 2.81024 0)
(3.12118 2.80103 -8.74939e-19)
(3.09442 2.75477 6.5024e-19)
(3.1193 2.66558 0)
(3.22557 2.49461 -1.63666e-19)
(3.4062 2.23386 1.62623e-19)
(3.62855 1.9043 -7.47378e-20)
(3.86414 1.55554 -3.18623e-19)
(4.07524 1.15759 -9.44814e-22)
(3.13855 2.66086 2.78364e-18)
(3.11274 2.69297 -1.51977e-18)
(3.09918 2.59463 -7.39784e-19)
(3.08204 2.51693 0)
(3.10474 2.37287 -7.8324e-19)
(3.184 2.15969 -8.41612e-19)
(3.32551 1.87979 -6.125e-19)
(3.50908 1.59685 -1.36033e-18)
(3.7164 1.34388 1.91021e-19)
(3.9454 1.0967 0)
(4.16102 0.769364 5.789e-19)
(3.12983 2.18472 0)
(3.10159 2.28612 0)
(3.14443 2.08895 -6.67668e-21)
(3.15765 1.91052 -6.62013e-19)
(3.18632 1.71956 1.8573e-18)
(3.25153 1.51737 1.3152e-18)
(3.35493 1.33596 4.4272e-19)
(3.49466 1.16285 3.11911e-19)
(3.67342 0.975606 1.30363e-18)
(3.89727 0.753315 -6.00572e-19)
(4.12449 0.446321 -7.81451e-19)
(4.98466 1.95863 3.77757e-19)
(4.33442 1.83402 -9.20916e-19)
(3.90217 1.19348 9.13116e-19)
(3.53209 0.734313 -3.47573e-19)
(3.20683 0.43804 0)
(2.92506 0.244671 -2.01414e-19)
(2.68243 0.112906 3.06595e-19)
(2.47185 0.0171787 -1.73683e-20)
(2.28659 -0.0579678 2.78865e-20)
(2.12158 -0.119233 -3.26258e-20)
(1.97615 -0.163276 7.1683e-21)
(2.00347 3.22007 0)
(2.73521 2.65352 0)
(2.95316 2.12246 -6.07222e-19)
(2.99848 1.5574 4.71373e-19)
(2.91862 1.08845 0)
(2.76857 0.730682 0)
(2.58771 0.471734 -4.25364e-19)
(2.40305 0.28647 1.639e-19)
(2.2281 0.150384 4.43493e-20)
(2.06655 0.0470283 -8.28198e-20)
(1.92129 -0.0251877 0)
(0.642955 2.83148 -3.37988e-19)
(1.34356 2.49122 0)
(1.88979 2.32782 0)
(2.27324 1.95711 -5.00794e-19)
(2.43565 1.5262 -5.78182e-19)
(2.45821 1.12898 6.23126e-19)
(2.38904 0.802754 1.7186e-19)
(2.27056 0.550146 -1.80086e-19)
(2.13281 0.359059 -1.23405e-19)
(1.99107 0.216148 8.16764e-20)
(1.85224 0.11705 0)
(0.258611 2.35251 -3.94817e-18)
(0.791276 2.06586 3.12921e-18)
(1.0861 2.12271 2.56772e-18)
(1.47373 1.97718 -1.27283e-19)
(1.82687 1.71187 -1.48813e-18)
(2.03704 1.37686 -1.89583e-19)
(2.10602 1.04479 0)
(2.07553 0.76229 2.24258e-19)
(1.9956 0.535429 -1.12673e-19)
(1.89199 0.359746 0)
(1.77754 0.235314 -3.46605e-20)
(0.168403 1.92094 -2.44828e-18)
(0.581095 1.66416 4.05291e-18)
(0.738964 1.81045 -3.44827e-18)
(1.02484 1.79484 1.3641e-18)
(1.31316 1.68098 1.37924e-19)
(1.55773 1.47341 0)
(1.72478 1.21049 -2.59023e-20)
(1.80465 0.937593 0)
(1.80594 0.692363 -5.51365e-20)
(1.75683 0.4899 3.64482e-20)
(1.67634 0.342583 7.98369e-20)
(0.208579 1.59532 1.27475e-18)
(0.514701 1.36137 -9.47744e-19)
(0.583157 1.52318 -4.02014e-20)
(0.789597 1.55791 -1.08024e-19)
(1.0144 1.53037 7.20487e-19)
(1.23062 1.42316 -6.66181e-19)
(1.40527 1.24732 2.47073e-20)
(1.52021 1.03087 4.197e-19)
(1.5757 0.8055 -5.46174e-19)
(1.58272 0.596653 1.63825e-19)
(1.55212 0.43304 0)
(0.32122 1.37657 -1.44189e-20)
(0.531698 1.16046 -6.6662e-19)
(0.538164 1.31021 1.07489e-18)
(0.67762 1.35691 -3.74106e-19)
(0.833978 1.36867 -5.60828e-19)
(1.0002 1.31929 2.54981e-19)
(1.15321 1.20543 2.79558e-19)
(1.27462 1.04005 0)
(1.35685 0.846084 0)
(1.40165 0.647665 1.05895e-19)
(1.41064 0.481583 1.09652e-19)
(0.465923 1.24894 -3.78769e-20)
(0.591269 1.04703 -1.45948e-19)
(0.556711 1.17461 1.69294e-19)
(0.644291 1.21643 0)
(0.739986 1.24061 -1.74517e-19)
(0.85065 1.21802 5.6129e-20)
(0.963165 1.14031 3.41707e-19)
(1.06529 1.01181 -1.61784e-19)
(1.14985 0.847703 0)
(1.21499 0.665891 -1.03504e-19)
(1.25418 0.502848 -1.45023e-19)
(0.623401 1.18556 3.52099e-20)
(0.677468 0.993741 3.28444e-20)
(0.610639 1.10025 3.22657e-20)
(0.658032 1.1317 -2.67519e-20)
(0.702419 1.1556 -3.01202e-21)
(0.76048 1.14094 0)
(0.826129 1.07878 0)
(0.894965 0.969373 -9.42405e-20)
(0.964375 0.822645 0)
(1.03289 0.649713 7.92157e-20)
(1.0853 0.484243 8.90307e-21)
(0.796204 1.16498 -9.64722e-20)
(0.784414 0.98003 -3.16541e-20)
(0.688372 1.06868 2.95731e-19)
(0.703504 1.08819 -2.58893e-19)
(0.703176 1.10652 2.7362e-20)
(0.713263 1.08947 0)
(0.731059 1.02934 0)
(0.759169 0.925073 1.98562e-20)
(0.801515 0.784431 -1.49707e-20)
(0.85983 0.615347 0)
(0.913836 0.451487 -2.07105e-20)
(0.983616 1.18151 2.10985e-19)
(0.906186 1.00072 0)
(0.796044 1.06867 1.75202e-19)
(0.778605 1.07383 -4.50728e-19)
(0.737165 1.08375 5.72379e-20)
(0.70356 1.05823 0)
(0.674368 0.991041 1.0166e-19)
(0.65717 0.881543 0)
(0.663967 0.73795 0)
(0.704286 0.566893 0)
(0.755984 0.407558 4.03351e-20)
(1.17059 1.23264 -2.50531e-19)
(1.04842 1.04896 -4.9875e-19)
(0.934416 1.08852 1.53357e-19)
(0.875524 1.08429 1.90441e-19)
(0.801378 1.07922 4.34938e-19)
(0.730621 1.04015 0)
(0.659312 0.960611 3.22904e-19)
(0.596632 0.839262 -1.96773e-19)
(0.559684 0.682726 -1.69989e-19)
(0.573162 0.50111 2.44819e-19)
(0.616591 0.334531 -1.71896e-19)
(1.36241 1.29089 -2.88513e-19)
(1.21014 1.11787 -1.94902e-19)
(1.08728 1.12548 8.02218e-19)
(0.997257 1.10973 -7.51069e-19)
(0.897105 1.08705 -3.53312e-19)
(0.794451 1.03105 0)
(0.687066 0.933557 -1.63528e-19)
(0.583981 0.792521 -5.54744e-20)
(0.504501 0.617249 -4.34887e-20)
(0.481706 0.418003 -2.42887e-19)
(0.504768 0.230472 1.70795e-19)
(1.56267 1.34912 -1.54159e-19)
(1.38575 1.19607 1.32219e-19)
(1.25714 1.17595 -3.78165e-19)
(1.14606 1.14651 2.62661e-19)
(1.02531 1.10501 1.98382e-19)
(0.897449 1.02991 0)
(0.761218 0.911243 2.83962e-19)
(0.62481 0.745631 3.3274e-19)
(0.507238 0.542519 0)
(0.443923 0.31703 4.60436e-19)
(0.443041 0.0990887 0)
(1.76228 1.40866 -1.92308e-19)
(1.56418 1.28087 9.98658e-19)
(1.43887 1.23734 -1.5503e-18)
(1.31702 1.19275 6.79579e-19)
(1.18341 1.13218 0)
(1.03901 1.03655 4.08583e-19)
(0.883183 0.894652 -5.97429e-19)
(0.723017 0.701553 -4.7567e-19)
(0.576273 0.465443 3.58784e-19)
(0.476694 0.207077 -9.61251e-19)
(0.456478 -0.0529191 -2.97325e-20)
(1.95076 1.46243 1.85112e-18)
(1.73981 1.36573 -2.74888e-18)
(1.62726 1.30413 1.13616e-18)
(1.504 1.24571 -7.89502e-19)
(1.36671 1.16733 6.09686e-19)
(1.21628 1.05121 0)
(1.05229 0.885452 2.01047e-19)
(0.880825 0.663703 0)
(0.71793 0.392344 0)
(0.591778 0.0967456 0)
(0.562857 -0.211684 8.14953e-19)
(2.12708 1.50937 2.9227e-18)
(1.91207 1.4471 -1.37356e-18)
(1.81782 1.37247 -1.14282e-18)
(1.70118 1.30262 7.74611e-19)
(1.56965 1.20873 1.86519e-19)
(1.42452 1.07376 -1.4728e-19)
(1.26544 0.88552 -2.04677e-19)
(1.09751 0.636513 -1.79567e-19)
(0.934613 0.331268 2.72553e-19)
(0.797128 -0.0020421 -1.99562e-19)
(0.750665 -0.34577 2.80704e-19)
(2.29184 1.55247 -1.27293e-19)
(2.07892 1.52415 1.00824e-19)
(2.00601 1.44003 1.12422e-18)
(1.90302 1.36074 -8.94363e-19)
(1.78609 1.25402 -1.93572e-19)
(1.65733 1.10322 1.52097e-19)
(1.51679 0.896047 5.08777e-19)
(1.36869 0.624109 -1.9842e-19)
(1.22483 0.289687 -2.77202e-19)
(1.10041 -0.0815372 -3.32087e-19)
(1.04205 -0.458625 2.62577e-20)
(2.44563 1.59199 0)
(2.23942 1.5943 -1.8872e-18)
(2.18894 1.50357 3.00885e-18)
(2.10516 1.41677 -1.16228e-18)
(2.00996 1.30044 -9.42355e-19)
(1.90698 1.13816 8.06798e-19)
(1.79713 0.917816 -5.77319e-19)
(1.68403 0.630797 5.43996e-19)
(1.57594 0.277912 -3.31254e-19)