/*--------------------------------*- C++ -*----------------------------------*\
| =========                 |                                                 |
| \\      /  F ield         | OpenFOAM: The Open Source CFD Toolbox           |
|  \\    /   O peration     | Version:  3.0.1                                 |
|   \\  /    A nd           | Web:      www.OpenFOAM.org                      |
|    \\/     M anipulation  |                                                 |
\*---------------------------------------------------------------------------*/
FoamFile
{
    version     2.0;
    format      ascii;
    class       volScalarField;
    location    "0.642555";
    object      p;
}
// * * * * * * * * * * * * * * * * * * * * * * * * * * * * * * * * * * * * * //

dimensions      [0 2 -2 0 0 0 0];

internalField   nonuniform List<scalar> 
21246
(
1.24443
0.963379
0.907058
0.920525
0.954864
0.999452
1.02855
1.0288
1.00673
0.977134
0.9832
3.24811
2.74081
2.27212
1.96483
1.76895
1.63802
1.53964
1.4517
1.36392
1.28453
1.24369
3.2408
3.15694
2.90421
2.63516
2.38839
2.17505
1.99237
1.83088
1.68089
1.54898
1.47214
2.87836
2.96435
2.92403
2.80846
2.65411
2.47922
2.29394
2.1078
1.93219
1.78363
1.68572
2.58949
2.73337
2.7695
2.76222
2.71008
2.61047
2.47491
2.31973
2.15765
2.00138
1.88421
2.37285
2.54604
2.61078
2.66178
2.67638
2.64713
2.57285
2.45868
2.31401
2.15633
2.02771
2.1732
2.36902
2.41969
2.50815
2.57074
2.59422
2.57059
2.49739
2.38115
2.23985
2.11452
2.03087
2.17169
2.24816
2.33924
2.42
2.47454
2.48895
2.45534
2.37445
2.2632
2.16572
1.90504
2.02755
2.09992
2.18532
2.26848
2.33522
2.37144
2.36643
2.31573
2.23123
2.15498
1.78648
1.90481
1.97163
2.05075
2.13051
2.19921
2.24469
2.25631
2.22742
2.1651
2.10632
1.69226
1.80186
1.86093
1.93258
2.00601
2.0714
2.11862
2.13817
2.12276
2.07737
2.04025
1.63168
1.72318
1.76925
1.82994
1.89366
1.95175
1.99557
2.01694
2.00887
1.97468
1.94971
1.56992
1.64928
1.68553
1.73576
1.78859
1.83699
1.87393
1.8928
1.88774
1.86155
1.84887
1.49626
1.57091
1.60069
1.64168
1.68353
1.72103
1.74882
1.7621
1.75637
1.73346
1.72725
1.44614
1.50237
1.51786
1.54548
1.57378
1.59826
1.61478
1.62046
1.61279
1.59359
1.59396
1.38473
1.42357
1.42567
1.43893
1.45179
1.4612
1.46474
1.46185
1.45255
1.43859
1.45006
1.29369
1.32174
1.31337
1.31196
1.30772
1.30025
1.28981
1.27896
1.27065
1.26612
1.29061
1.20111
1.20808
1.18079
1.15827
1.13211
1.10496
1.08039
1.06459
1.06328
1.07654
1.12245
1.08611
1.0659
1.01287
0.962101
0.908453
0.859973
0.82489
0.811695
0.827743
0.869247
0.946988
0.929324
0.872782
0.787834
0.702329
0.616909
0.54776
0.511289
0.515294
0.564777
0.647608
0.760192
0.710503
0.602427
0.475482
0.350412
0.233839
0.154078
0.137459
0.177318
0.281774
0.422662
0.582803
0.413427
0.194092
0.0308551
-0.129809
-0.267928
-0.337865
-0.316218
-0.190389
-0.00317155
0.210493
0.426365
-0.337947
-0.410253
-0.589937
-0.772434
-0.895995
-0.900196
-0.77242
-0.542679
-0.262068
0.0271229
0.295453
0.595418
-0.70207
-1.17637
-1.43458
-1.51427
-1.40943
-1.15676
-0.82096
-0.457321
-0.105329
0.204475
-4.13548
-1.57992
-0.532696
-0.144231
0.174906
0.421286
0.554008
0.617586
0.652296
0.658155
0.690745
-3.62768
-2.52986
-1.88472
-1.42629
-0.933778
-0.48851
-0.15721
0.0749418
0.213719
0.284035
0.364125
-2.5365
-2.57638
-2.43313
-2.18262
-1.85544
-1.46371
-1.05199
-0.674318
-0.378583
-0.179356
-0.0176724
-2.97575
-2.83179
-2.71941
-2.62505
-2.51451
-2.31394
-1.98771
-1.57321
-1.154
-0.805008
-0.503883
-3.53578
-3.40515
-3.23089
-3.12259
-3.1105
-3.08986
-2.93311
-2.5878
-2.11129
-1.61871
-1.15619
-4.22691
-4.16461
-4.02598
-3.90034
-3.88151
-3.96021
-3.96147
-3.73958
-3.26635
-2.65013
-2.0089
-4.9444
-4.99075
-4.93871
-4.91755
-4.93242
-5.05588
-5.17512
-5.07751
-4.64229
-3.91833
-3.08129
-5.65088
-5.81357
-5.8556
-5.97323
-6.14645
-6.35585
-6.59274
-6.62031
-6.24189
-5.42701
-4.32758
-6.30329
-6.58162
-6.7192
-6.98783
-7.34027
-7.75378
-8.14788
-8.32366
-8.01601
-7.14315
-5.8628
-6.82454
-7.23517
-7.46041
-7.88303
-8.42065
-9.06225
-9.67975
-10.0644
-9.83474
-8.87703
-7.34738
-7.11994
-7.72241
-8.00886
-8.57287
-9.27662
-10.1189
-11.0067
-11.6153
-11.5023
-10.4831
-8.74772
-7.314
-7.94703
-8.31793
-9.00041
-9.82734
-10.8237
-11.918
-12.7221
-12.7814
-11.7094
-9.8051
-7.30004
-7.91564
-8.39326
-9.10932
-10.0124
-11.0858
-12.2572
-13.2145
-13.4384
-12.293
-10.1311
-7.00647
-7.60125
-8.13674
-8.87291
-9.80038
-10.8916
-12.0473
-13.0128
-13.1725
-12.0831
-9.87141
-6.47497
-6.99836
-7.53308
-8.2482
-9.15024
-10.2005
-11.272
-12.0842
-12.1096
-11.0636
-9.00637
-5.67879
-6.10545
-6.60171
-7.26713
-8.10947
-9.06844
-9.97953
-10.5643
-10.4824
-9.41298
-7.53668
-4.61459
-4.95774
-5.41557
-6.04077
-6.82869
-7.6865
-8.41232
-8.74406
-8.44888
-7.34554
-5.65315
-3.3654
-3.68618
-4.15713
-4.79022
-5.5538
-6.31992
-6.85934
-6.92109
-6.34739
-5.15531
-3.68951
-2.17976
-2.59675
-3.16971
-3.85189
-4.5927
-5.25251
-5.59018
-5.36371
-4.50174
-3.20356
-1.86949
-1.54431
-2.12954
-2.82014
-3.53128
-4.23492
-4.78909
-4.92119
-4.40226
-3.26979
-1.86667
-0.453365
-1.67811
-2.34983
-3.07894
-3.80413
-4.47752
-4.90933
-4.74765
-3.87108
-2.53774
-1.09045
0.241395
-2.26979
-3.03357
-3.8175
-4.50811
-5.05415
-5.0712
-4.26947
-3.10128
-1.86727
-0.706502
0.180394
-3.25729
-4.59526
-4.99428
-4.94956
-4.59908
-3.9404
-3.02983
-2.07536
-1.19413
-0.430089
0.144222
-6.58343
-4.73296
-3.77508
-3.27918
-2.82987
-2.3049
-1.74103
-1.18449
-0.664926
-0.204607
0.161621
22.1817
19.2097
16.0674
13.3099
10.9265
8.97262
7.37206
6.06689
5.00605
4.17302
3.60859
7.70616
12.4087
12.6525
12.083
10.456
8.89219
7.40226
6.10918
5.03253
4.17553
3.57754
-6.05505
2.0382
4.31815
6.79465
7.41285
7.1757
6.44202
5.56044
4.69889
3.9625
3.43911
-12.1526
-5.50662
-3.60397
0.602616
2.65683
4.01791
4.39695
4.27679
3.8858
3.43108
3.0472
-13.5167
-9.06195
-8.31961
-3.90388
-1.84612
0.546327
1.79746
2.475
2.67113
2.62038
2.51392
-13.2962
-10.0355
-10.2161
-6.22698
-4.8756
-2.23088
-0.619826
0.598153
1.28899
1.63635
1.81479
-12.383
-10.038
-10.2647
-7.31027
-6.25183
-3.94702
-2.38698
-0.957497
0.0202052
0.668966
1.09656
-10.8933
-9.54771
-9.43491
-7.52366
-6.61553
-4.7496
-3.41445
-2.00593
-0.94713
-0.143136
0.447601
-9.47969
-8.66111
-8.44158
-7.10116
-6.40592
-4.90684
-3.827
-2.55141
-1.54511
-0.696361
-0.0317962
-8.39764
-7.69808
-7.45026
-6.38751
-5.87206
-4.64761
-3.80413
-2.69123
-1.80572
-0.988505
-0.313618
-7.15695
-6.59973
-6.38364
-5.53423
-5.14727
-4.13366
-3.49656
-2.53796
-1.80183
-1.06205
-0.447502
-5.65448
-5.31583
-5.21151
-4.5642
-4.29206
-3.46451
-3.0027
-2.18196
-1.60234
-0.950949
-0.429255
-4.43691
-4.1625
-4.0945
-3.57562
-3.39737
-2.70959
-2.39411
-1.69619
-1.26138
-0.707165
-0.280237
-3.52667
-3.20987
-3.1157
-2.65731
-2.53823
-1.93655
-1.72707
-1.1474
-0.822705
-0.383769
-0.0599175
-2.47206
-2.21953
-2.17065
-1.7837
-1.71834
-1.18667
-1.01362
-0.59027
-0.342765
-0.0120548
0.216181
-1.56771
-1.33247
-1.29479
-0.947401
-0.874835
-0.498081
-0.339494
-0.01799
0.15098
0.382768
0.519744
-0.881109
-0.599716
-0.528779
-0.20938
-0.100748
0.196717
0.318075
0.550516
0.644579
0.776985
0.824974
-0.152969
0.130484
0.207298
0.495713
0.621332
0.867999
0.959129
1.10597
1.12419
1.15343
1.11313
0.534178
0.819423
0.905677
1.17755
1.31052
1.51472
1.57829
1.63816
1.57438
1.49776
1.36952
1.14007
1.43651
1.55024
1.82391
1.97442
2.14448
2.17074
2.13292
1.97661
1.79614
1.58837
1.69887
2.01443
2.17502
2.45082
2.63054
2.7603
2.71881
2.56333
2.30555
2.03203
1.76005
2.27054
2.59889
2.82723
3.12027
3.30364
3.34072
3.17389
2.87993
2.52513
2.18579
1.87852
2.66085
3.2123
3.55171
3.85842
3.94531
3.79727
3.45872
3.03661
2.61921
2.26769
2.04361
4.26807
4.52453
4.72529
4.68105
4.30833
3.87467
3.35847
2.85899
2.43906
2.11134
1.92008
20.5344
18.9327
16.0754
13.2722
10.7781
8.75092
7.14049
5.85714
4.8312
4.03473
3.47903
5.0316
10.961
11.7934
11.5232
10.1731
8.53728
7.00142
5.69463
4.63912
3.83517
3.29255
-8.75261
0.0307265
3.10476
6.00596
6.94975
6.75582
5.94474
5.01483
4.13854
3.42353
2.92577
-15.6887
-8.4079
-5.50482
-0.93436
1.77268
3.3242
3.70432
3.56209
3.15782
2.72197
2.40937
-17.8521
-12.9076
-11.0615
-6.51793
-3.35
-0.750109
0.775953
1.50806
1.7387
1.72662
1.69348
-17.9485
-14.5443
-13.5779
-9.82763
-7.07383
-4.21782
-2.11885
-0.717593
0.102993
0.549568
0.832023
-17.3473
-14.7954
-14.3021
-11.3047
-9.22855
-6.55737
-4.41385
-2.67754
-1.45985
-0.635245
-0.0458158
-16.4132
-14.4366
-14.2137
-11.6855
-10.2535
-7.84007
-5.94462
-4.13728
-2.73781
-1.67757
-0.894423
-15.546
-13.8562
-13.827
-11.4996
-10.6209
-8.35327
-6.82328
-5.05403
-3.63923
-2.46646
-1.59019
-14.8287
-13.2863
-13.2667
-11.1431
-10.5245
-8.47898
-7.16642
-5.50482
-4.16808
-2.9618
-2.00319
-14.1213
-12.8781
-12.4857
-10.8303
-10.0445
-8.35937
-7.16276
-5.60474
-4.3833
-3.19412
-2.23044
-13.2076
-12.2095
-11.6668
-10.3144
-9.46672
-7.98861
-6.90445
-5.45578
-4.33232
-3.21308
-2.29929
-12.339
-11.3859
-10.8318
-9.60735
-8.78845
-7.43029
-6.44332
-5.11209
-4.08006
-3.0532
-2.20445
-11.5396
-10.5341
-9.96508
-8.79791
-8.00221
-6.73575
-5.80297
-4.62805
-3.67481
-2.75558
-1.98402
-10.5313
-9.55601
-9.01546
-7.90286
-7.11855
-5.9377
-5.05736
-4.00263
-3.14275
-2.34429
-1.68328
-9.49235
-8.51935
-7.99274
-6.92339
-6.14123
-5.03596
-4.21294
-3.26135
-2.50614
-1.84172
-1.31476
-8.46116
-7.45184
-6.90704
-5.86468
-5.07154
-4.05162
-3.24209
-2.41829
-1.787
-1.27006
-0.880263
-7.33864
-6.29641
-5.72472
-4.70453
-3.88582
-2.93661
-2.18011
-1.49732
-1.01032
-0.654386
-0.409711
-6.11182
-5.02938
-4.4152
-3.41252
-2.56663
-1.6941
-1.03357
-0.520635
-0.207076
-0.0252323
0.07669
-4.77391
-3.62992
-2.94759
-1.95797
-1.10088
-0.340506
0.170292
0.470898
0.579134
0.575213
0.512204
-3.27731
-2.03987
-1.26881
-0.310507
0.498207
1.08396
1.36702
1.4108
1.29756
1.12179
0.937646
-1.55417
-0.179782
0.666112
1.51188
2.14427
2.44693
2.42426
2.1926
1.87727
1.56892
1.29798
0.50391
1.994
2.82745
3.39083
3.66252
3.58488
3.2416
2.78114
2.33214
1.95408
1.66195
2.55671
4.12081
4.60925
4.5877
4.35824
3.94222
3.40582
2.86644
2.37976
1.96201
1.69053
-1.39234
1.45928
2.27512
2.35816
2.13938
1.82999
1.52091
1.23354
0.967822
0.737894
0.598864
-15.3608
-7.52069
-4.29682
-2.07127
-0.690047
-0.0189051
0.253094
0.321719
0.288675
0.214178
0.171202
-16.7814
-12.0339
-9.63788
-6.70103
-4.22003
-2.52213
-1.47024
-0.87309
-0.557614
-0.396674
-0.287247
-13.6537
-12.1921
-11.2436
-9.04534
-6.75447
-4.77731
-3.24458
-2.18577
-1.50793
-1.08487
-0.801595
-10.4871
-10.3297
-10.1978
-9.07937
-7.61028
-6.00686
-4.5066
-3.28596
-2.38459
-1.75427
-1.29298
-8.3134
-8.43614
-8.49175
-8.01369
-7.24304
-6.19462
-5.03202
-3.93798
-3.01626
-2.29879
-1.73393
-6.72729
-6.90279
-6.95835
-6.76407
-6.3879
-5.76845
-4.9768
-4.13181
-3.33329
-2.64552
-2.05733
-5.5713
-5.67498
-5.70698
-5.64317
-5.47099
-5.12087
-4.61403
-4.01053
-3.37946
-2.78912
-2.23878
-4.82984
-4.79101
-4.78339
-4.75905
-4.67417
-4.47296
-4.15202
-3.73374
-3.25617
-2.77532
-2.29621
-4.42759
-4.25714
-4.21072
-4.15832
-4.07884
-3.93645
-3.71539
-3.41661
-3.05548
-2.67064
-2.26187
-4.22203
-3.96737
-3.88513
-3.77708
-3.66735
-3.53367
-3.35416
-3.12095
-2.83638
-2.52492
-2.18624
-4.09247
-3.79948
-3.66336
-3.51082
-3.37127
-3.23041
-3.06575
-2.86584
-2.62674
-2.36339
-2.07838
-3.97223
-3.66886
-3.50476
-3.32306
-3.15896
-3.00628
-2.84366
-2.65698
-2.43947
-2.20016
-1.94332
-3.87614
-3.57652
-3.40027
-3.2064
-3.02524
-2.85912
-2.68975
-2.50066
-2.28364
-2.04554
-1.79553
-3.82205
-3.52856
-3.34852
-3.14815
-2.95381
-2.77533
-2.59494
-2.39323
-2.16085
-1.90619
-1.64597
-3.80486
-3.52059
-3.34393
-3.14467
-2.94375
-2.75393
-2.55709
-2.33207
-2.06931
-1.78091
-1.49211
-3.81728
-3.54618
-3.3763
-3.18455
-2.98433
-2.78411
-2.56713
-2.30876
-2.00218
-1.66507
-1.32306
-3.84745
-3.59346
-3.43405
-3.25112
-3.05285
-2.8421
-2.59852
-2.29974
-1.94433
-1.55924
-1.1791
-3.88457
-3.65111
-3.50484
-3.33176
-3.13409
-2.90525
-2.62521
-2.27932
-1.8796
-1.46061
-1.06234
-3.91735
-3.7067
-3.57654
-3.41558
-3.21234
-2.95239
-2.62343
-2.22585
-1.79553
-1.37357
-0.979331
-3.92012
-3.74966
-3.64469
-3.49624
-3.27809
-2.97575
-2.58547
-2.13436
-1.6936
-1.30923
-0.964857
-3.84281
-3.786
-3.72976
-3.58249
-3.3316
-2.9755
-2.52127
-2.02244
-1.59136
-1.28948
-1.08139
-3.99719
-4.06367
-3.96958
-3.76082
-3.45703
-3.0342
-2.49623
-1.94887
-1.52434
-1.3049
-1.19739
-4.5616
-3.99156
-3.68263
-3.40188
-3.01842
-2.51145
-1.95887
-1.5055
-1.29311
-1.33213
-1.4931
14.6214
10.3181
7.32813
5.40245
4.10205
3.19772
2.52797
1.99516
1.55359
1.19557
0.95092
11.9361
11.637
9.95394
8.00575
6.22703
4.79027
3.67641
2.81675
2.15179
1.63442
1.29849
7.80156
8.96174
8.94209
8.2398
7.01498
5.64712
4.40377
3.40093
2.58987
1.96249
1.5483
4.15641
6.00839
6.62318
6.81475
6.40407
5.59812
4.6342
3.68921
2.84484
2.16125
1.71505
1.55059
3.3295
4.10348
4.80756
5.06924
4.85968
4.30728
3.5913
2.85793
2.21966
1.77961
-0.206564
1.28782
1.95261
2.80625
3.3778
3.60794
3.49107
3.11165
2.59821
2.08493
1.69374
-1.38293
-0.151306
0.34498
1.17615
1.81664
2.25866
2.43745
2.35269
2.08893
1.74512
1.46214
-2.14427
-1.13851
-0.808888
-0.0502044
0.548937
1.0556
1.3835
1.50902
1.45362
1.28257
1.11589
-2.74704
-1.85366
-1.67699
-0.957127
-0.45108
0.0609581
0.451876
0.698808
0.792633
0.767295
0.700366
-3.2795
-2.46968
-2.3243
-1.68992
-1.23
-0.744978
-0.334353
-0.0228349
0.169759
0.255501
0.28797
-3.6961
-3.09465
-2.81957
-2.29123
-1.85905
-1.39718
-0.985577
-0.641108
-0.386062
-0.224757
-0.12048
-4.00202
-3.50125
-3.23337
-2.76664
-2.36267
-1.92483
-1.52001
-1.15939
-0.864234
-0.646534
-0.490151
-4.27625
-3.81183
-3.56498
-3.13962
-2.76045
-2.34577
-1.95147
-1.58498
-1.26522
-1.00309
-0.792484
-4.54064
-4.07484
-3.83258
-3.43193
-3.07087
-2.67567
-2.29282
-1.92702
-1.59528
-1.30879
-1.06122
-4.66788
-4.24482
-4.02694
-3.65188
-3.30707
-2.92866
-2.55642
-2.19475
-1.8593
-1.56092
-1.29532
-4.75753
-4.36578
-4.16359
-3.81067
-3.47854
-3.11408
-2.75048
-2.39424
-2.06058
-1.7604
-1.49397
-4.83573
-4.45762
-4.25735
-3.9192
-3.59337
-3.23823
-2.88039
-2.52952
-2.20147
-1.907
-1.64856
-4.86053
-4.50103
-4.30315
-3.97813
-3.6541
-3.30351
-2.94821
-2.602
-2.28289
-2.00374
-1.76725
-4.83584
-4.49671
-4.30006
-3.98609
-3.65984
-3.30901
-2.95322
-2.61101
-2.30386
-2.04789
-1.84741
-4.77561
-4.45219
-4.25037
-3.94191
-3.60821
-3.25229
-2.89358
-2.55515
-2.26322
-2.0386
-1.88152
-4.67415
-4.36147
-4.14757
-3.83859
-3.49406
-3.13086
-2.76867
-2.43451
-2.16108
-1.97728
-1.88639
-4.50873
-4.20431
-3.96816
-3.65559
-3.30548
-2.93971
-2.57605
-2.24654
-1.99302
-1.85465
-1.84736
-4.34469
-3.98932
-3.72679
-3.4296
-3.09338
-2.73158
-2.36296
-2.03269
-1.79186
-1.69439
-1.79328
-3.65968
-3.37652
-3.15546
-2.91987
-2.63922
-2.31002
-1.9666
-1.67347
-1.44608
-1.33233
-1.48644
-0.955857
-1.64679
-1.79679
-1.22253
-0.183487
0.628395
1.02622
1.12276
0.595075
-0.746929
-1.20744
-1.27938
-0.814868
-0.0817214
0.548011
0.893148
0.960349
0.523708
-0.69099
-1.08315
-1.14551
-0.741049
-0.0577481
0.463042
0.767173
0.825659
0.449197
-0.626717
-0.925494
-0.948249
-0.597239
-0.0461806
0.392137
0.66042
0.717718
0.369259
-0.568581
-0.546358
-0.559537
-0.672753
-0.900884
-1.2809
-1.45536
-1.13861
-0.360438
-0.561787
-0.549389
-0.560682
-0.639571
-0.75462
-0.977211
-1.06613
-0.762584
-0.206567
-0.542048
-0.532408
-0.535655
-0.596866
-0.690457
-0.883734
-0.958092
-0.738071
-0.163556
-0.519172
-0.503988
-0.499813
-0.542991
-0.598857
-0.746102
-0.790152
-0.545615
-0.126244
1.25063
1.36758
1.36591
-0.243324
-0.242943
1.40068
-0.468083
1.34611
1.40038
1.40738
-0.258564
1.34646
-0.20088
-0.106783
1.24734
1.18026
-0.0478345
-0.248778
1.18054
1.26791
1.0826
-0.297264
1.26381
-0.0630943
1.3706
-0.105842
-0.191484
-0.454329
0.25874
-0.22296
-0.0491968
0.748029
-0.030444
1.23715
0.751698
1.37166
-0.0596814
1.37336
-0.0278053
1.36499
0.0387793
1.24065
-0.107755
1.26614
-0.394862
-0.179407
-0.308005
-0.573988
0.96287
1.38333
-0.221739
1.36481
-0.0266405
-0.125861
1.37926
1.07669
-0.292366
1.35788
0.278239
-0.132119
0.321313
-0.017766
-0.287452
-0.275809
-0.0237124
1.26608
-0.120443
1.40453
1.37046
1.39829
-0.072368
1.54304
-0.28433
1.62095
-0.138475
1.51058
-0.245074
1.24807
-0.363932
-0.46747
-0.166551
-0.276425
1.27679
1.28261
0.213526
-0.284238
-0.489567
-0.000788238
-0.329154
-0.0440045
1.38136
1.35582
0.0258442
1.51272
-0.413469
-0.79076
-0.185582
-0.0279648
-0.299792
1.56784
0.428707
-0.58974
1.267
0.404792
-0.283744
1.38066
-0.00977521
1.27762
-0.040034
0.864788
1.27652
1.23847
1.48974
-0.251244
-0.285845
1.26821
1.35997
1.24641
1.36238
1.18442
-0.255591
1.62537
0.525766
-0.0515776
-0.15787
-0.0878896
-0.0877446
-0.0106423
-0.00737205
-0.0270979
1.32013
-0.140848
-0.561761
1.51801
1.3754
0.16378
-0.242049
-0.272892
-0.186254
0.984471
-0.0536149
1.06457
-0.406454
0.983708
1.35673
-0.279286
-0.0153981
1.40637
1.50543
1.30587
1.34216
1.39702
-0.275592
1.60485
-0.24629
-0.137038
-0.316072
-0.323538
-0.0448598
1.31421
-0.0433329
-0.294671
1.53029
1.32132
-0.0952106
-0.0608553
-0.338316
1.40929
-0.0232127
-0.0290593
-0.0355077
-0.0207445
0.0100052
0.935144
0.769984
0.734138
-0.00328642
-0.276049
-0.414693
0.764498
1.39927
-0.287534
1.37262
-0.234645
1.38356
-0.247176
1.35499
1.23639
1.33979
-0.364206
-0.0418748
-0.165863
1.23004
0.0390458
1.37167
1.35227
1.4158
-0.306511
-0.028437
1.27302
-0.237136
1.39768
-0.0573295
-0.055285
1.37295
0.00333275
1.50511
-0.00469355
1.38796
1.24489
-0.0819037
1.20929
0.81958
0.807662
1.25549
-0.0933457
1.38735
-0.293791
1.36558
-0.2462
0.000933199
-0.254888
-0.176792
-0.298631
-0.0443032
1.34267
-0.197404
-0.0634276
-0.0372284
-0.298306
-0.311984
1.22174
1.34697
1.63145
-0.267256
-0.858726
-0.0331394
1.37351
1.31642
1.31728
-0.268597
-0.195468
0.369481
0.0201465
1.44402
-0.319089
1.23263
-0.0710148
-0.716558
-0.130196
-0.0678599
-0.0815771
0.697689
1.32546
0.38121
1.41206
1.13034
1.37479
-0.263191
1.35973
-0.00298475
0.0100621
1.23348
1.25868
1.27587
-0.29634
1.04688
1.36274
0.0532404
0.132304
-0.279572
1.34324
1.40438
-0.305657
1.41324
1.24105
-0.0581476
1.39838
1.03314
-0.290842
1.55999
1.36127
-0.153682
-0.0162274
0.426277
1.39249
-0.415748
1.32776
0.971606
-0.0279265
1.30317
-0.458249
1.17318
-0.125751
1.36892
1.38668
-0.0317525
1.27473
0.789494
-0.0648437
1.38165
-0.267766
0.893026
-0.217982
1.14343
0.824318
1.25504
-0.0145215
-0.279255
1.31679
-0.376534
1.38094
0.744295
-0.01498
-0.327363
1.06339
-0.203331
-0.304418
1.13918
1.54697
1.34629
-0.104105
1.2185
-0.0902439
-0.301428
1.28085
1.24011
-0.181112
1.21573
-0.112597
1.38137
-0.281883
-0.204454
1.37298
-0.208349
-0.787065
-0.316531
1.25879
1.39406
-0.00411268
-0.0916195
-0.0382851
1.40319
-0.0560782
-0.285758
-0.029522
-0.26217
1.23675
-0.0851807
-0.120554
-0.38531
-0.0313811
0.16721
1.1607
-0.0326306
1.27297
-0.000494584
0.920036
1.26022
-0.118329
0.140025
-0.128329
1.38557
1.27435
1.45563
-0.332408
-0.0180799
-0.108167
-0.429769
0.661886
1.39859
-0.26302
-0.766263
-0.0462351
-0.0816602
1.30137
0.360059
0.733035
1.3973
1.30101
-0.0453915
1.36492
-0.269478
1.3385
-0.162699
-0.00193292
-0.258441
-0.0436428
-0.192411
-0.340297
1.39674
-0.350517
-0.0164581
1.69571
0.00074978
-0.0305523
1.25937
1.29868
1.35925
-0.301312
-0.271239
1.26673
1.37228
0.000780165
0.00100995
0.0770559
-0.379759
-0.0575031
1.39403
-0.0991601
1.51866
1.17685
-0.0556682
-0.0541038
-0.291739
0.674414
-0.0447367
1.64407
-0.0149106
-0.36283
-0.213382
-0.0179359
-0.479129
-0.0205163
0.717055
0.901779
1.60929
-0.0119259
0.0833891
-0.0533817
1.22727
-0.309387
-0.165491
1.11033
0.175688
0.0047577
-0.148444
-0.201426
-0.0522259
1.22123
0.222365
-0.61409
-0.23398
-0.261553
1.40976
-0.00994163
-0.0701595
-0.214136
1.34417
-0.311592
1.39377
1.28286
1.38922
-0.356892
-0.0238464
-0.421348
-0.0357141
-0.291229
-0.00385604
1.31997
1.35286
-0.107642
-0.0521555
0.34892
1.53091
-0.00979953
-0.00348684
1.26788
1.20962
1.38475
0.711233
-0.264371
1.28697
0.302696
1.46455
1.30328
1.33769
1.24687
-0.289667
1.34998
1.29912
1.11034
-0.27609
-0.276271
1.25916
-0.282085
-0.291093
1.01505
0.00403598
1.28724
-0.194083
1.36165
1.46664
1.34151
-0.00374389
-0.045739
1.23437
-0.15979
0.75859
1.37055
-0.151082
-0.183212
1.37659
1.29394
-0.684376
0.0369236
-0.259286
1.37894
-0.527786
1.21996
-0.0854123
-0.0421326
-0.343722
-0.0578424
0.436904
-0.0235505
-0.280329
-0.155211
1.22794
-0.0160073
1.12131
1.36271
1.40071
1.30298
1.3112
-0.068109
1.35068
1.29205
-0.139387
1.38104
-0.164087
0.34876
-0.0184052
-0.0713196
-0.33885
1.35522
1.38819
1.36091
0.0012102
-0.281722
1.23132
1.32598
-0.0502289
1.37332
-0.250284
1.37411
-0.157557
1.0291
-0.342138
-0.0469852
-0.0176844
-0.228558
-0.0748265
1.14881
1.01718
1.47471
1.29363
-0.00354479
-0.297297
1.1963
-0.0534841
-0.304576
-0.71561
1.37853
1.42779
1.37944
-0.0785055
-0.0131421
-0.0135163
1.37928
1.33782
-0.0172473
1.4925
-0.148776
-0.0130125
-0.0627981
-0.31663
1.28205
-0.0124083
1.38838
-0.274505
1.44274
-0.146476
-0.00419273
0.81239
-0.318057
-0.0796324
1.34412
1.24554
-0.391236
1.31685
-0.0514555
-0.232916
-0.30486
-0.100249
-0.0819576
-0.216275
1.40287
1.36372
1.38325
-0.770563
-0.278155
-0.0858476
1.25381
1.37758
-0.374266
1.36119
1.524
1.41965
1.51612
-0.205668
-0.247262
-0.29948
0.076335
0.548818
0.723347
1.31735
-0.0855518
1.50242
1.38045
-0.73575
-0.024023
1.20497
1.34517
-0.223993
1.25514
1.33954
0.258508
1.37881
1.17459
-0.245784
-0.124903
0.235462
-0.0174622
-0.019131
-0.37044
-0.108411
0.207486
-0.104259
-0.139358
-0.337731
-0.316269
-0.0535724
1.22143
1.26082
-0.304348
0.533441
1.28739
0.933015
-0.169364
-0.0871121
-0.686705
-0.0715776
0.363129
1.24713
0.658609
1.36269
1.2946
1.17603
-0.217819
1.45376
1.37312
1.35577
1.29184
-0.219792
-0.0179084
-0.301826
1.50478
1.37826
0.925397
0.0635887
1.54385
-0.411292
1.50487
-0.138249
-0.0409036
1.26795
0.00234062
1.32088
-0.0365242
-0.23381
-0.201817
-0.718706
-0.0285892
0.254604
1.27732
-0.0082076
-0.0559908
-0.355455
-0.107639
1.22943
0.714263
1.28119
0.124637
1.30156
-0.25023
1.38014
1.37604
1.38893
-0.184203
-0.235966
1.36373
-0.00559256
1.41938
-0.0617663
-0.0468164
0.95351
-0.234774
-0.000867495
-0.0883964
0.454305
-0.139708
-0.213304
-0.0811108
-0.0183974
-0.464349
1.22653
-0.201864
1.30704
1.38577
-0.368409
0.10147
-0.201648
-0.0970878
1.48706
1.15825
1.16882
-0.317692
1.32259
-0.0082072
-0.00305847
-0.147025
0.983322
0.304432
-0.0758849
-0.0998142
1.63379
-0.228863
-0.234163
-0.294312
1.28294
-0.13519
-0.34371
1.37796
-0.221298
-0.0193524
1.58817
-0.148485
1.33755
1.45802
1.15801
-0.0262375
1.57493
-0.0512535
1.38123
-0.0447624
1.51873
-0.13229
0.0340413
-0.0232414
-0.029501
1.22677
-0.149691
-0.297431
1.2986
-0.0486356
0.394202
-0.0104442
0.669264
-0.311344
1.3765
-0.302615
-0.0619353
0.666789
1.28066
0.180022
1.24685
-0.246317
-0.134929
1.36727
1.35967
0.452424
-0.295394
-0.0990567
-0.217565
1.34333
-0.199729
0.983269
1.23318
1.34149
1.37498
1.30673
1.43455
-0.00974445
-0.351475
-0.246445
-0.0233458
0.131931
1.37805
1.3273
0.233294
-0.0214734
1.37762
0.214159
-0.137043
-0.506854
-0.0635591
0.133964
0.603904
-0.312373
1.3745
1.31835
-0.177169
1.19152
1.34636
0.881778
-0.018825
0.195135
0.216609
1.37615
-0.122425
-0.0225633
-0.288744
1.34257
-0.0147991
0.00366234
-0.242898
-0.309388
1.30041
1.27853
-0.241718
-0.249308
-0.025164
1.28192
1.35079
1.56277
1.44549
1.33555
-0.141514
-0.0868256
-0.18582
-0.498384
0.00514311
1.37391
-0.287536
1.32099
1.50183
0.497189
1.3262
1.40632
1.36164
-0.302017
-0.0684115
-0.157076
1.40582
-0.299217
1.3943
1.37531
1.43094
1.35044
0.95794
1.26523
1.38111
1.46253
-1.0346
1.2506
1.29122
0.128423
-0.419409
1.38171
1.38748
-0.27015
-0.996797
1.38961
0.159581
-0.217031
-0.30124
1.29296
1.36829
1.25436
0.951839
0.00918382
1.32574
-0.137825
-0.138338
-0.101169
-0.0624968
1.27382
-0.136455
1.22451
1.26892
1.62871
1.36416
1.24979
-0.0375222
-0.16136
0.445448
-0.0815552
-0.11822
-0.0587379
0.511987
-0.374583
1.24598
1.27353
-0.010646
-0.0040691
-0.149409
1.3754
-0.321434
1.48509
-0.236911
1.36883
-0.012347
-0.0257861
-0.291064
-0.0648947
1.27039
1.36968
-0.0238967
-0.236731
-0.0332385
0.183123
-0.222025
1.0372
1.10609
-0.145721
1.42087
1.37657
-0.0509538
-0.0543363
-0.253613
-0.18193
-0.0151682
-0.125904
-0.0928046
-0.567234
1.29023
1.05606
-0.102255
1.31224
0.730478
1.39195
-0.0840287
-0.10825
-0.0564313
1.31221
-0.0646994
1.36858
1.35982
-0.0472948
-0.240768
1.34213
1.39601
1.46499
0.0464903
0.093854
-0.36057
0.663548
1.29901
0.0897476
-0.293708
-0.354954
1.28848
-0.0638219
-0.0400507
1.36969
-0.0144849
0.943702
-0.200118
-0.0552234
0.514098
-0.222054
1.0307
1.43457
-0.279322
-0.0614927
1.37191
-0.069166
1.38029
-0.849602
-0.0118456
-0.655313
1.36907
-0.0171954
-0.233781
-0.211262
-0.0203324
-0.0270988
1.27519
-0.00736303
-0.285698
1.25288
0.785641
-0.136171
-0.303786
-0.00707142
-0.0964047
1.36753
1.35489
-0.297621
1.43631
-0.0112338
-0.0912192
-0.00963784
-0.027007
1.33589
-0.264706
-0.29166
-0.0243696
-0.0840902
-0.00464033
1.38187
-0.141764
-0.0176297
1.31482
1.05307
1.37468
-0.161765
0.996798
1.36886
-0.147403
0.05147
-0.0527769
1.2777
-0.390465
-0.135755
0.978308
-0.133926
1.22933
1.42016
0.96323
-0.492574
1.40171
-0.0481506
0.541674
-0.296319
1.26515
1.09529
1.28067
1.28934
-0.265223
-0.100524
-0.00305107
-0.394163
-0.0673443
-0.510558
1.33853
0.84801
-0.267844
1.3015
-0.0510404
-0.0604937
0.86688
0.239065
-0.126996
-0.0552701
1.36224
-0.0403832
1.29172
-0.0154653
1.28289
-0.656205
-0.0425373
1.64912
-0.355819
-0.0611322
1.28153
-0.105054
0.00382082
0.107191
-0.0462963
0.623182
-0.41048
-0.0235441
-0.2547
-0.228877
-0.0656639
1.37613
-0.136389
1.41097
-0.099833
-0.119024
-0.248294
0.567498
-0.261411
-0.374996
1.31237
1.40111
1.36779
1.28242
-0.109998
-0.0913516
1.44325
-0.110053
-0.165965
1.36612
-0.309292
-0.407114
0.12014
0.145366
-0.114767
-0.286701
-0.0197917
-0.0665289
1.31714
1.33589
-0.0438095
1.34848
1.37826
-0.105936
1.27517
1.46387
-0.0479941
1.64866
-0.794352
-0.0340611
-0.325669
1.33091
-0.124075
-0.0844148
-0.134927
-0.317333
1.29061
-0.0974096
-0.303048
-0.0825198
0.00638614
1.17035
-0.0464485
1.19316
-0.230439
-0.0819595
0.985464
1.34051
-0.285809
0.33282
-0.156649
-0.305595
-0.0439021
1.39359
1.37418
1.34314
0.242288
-0.00205715
-0.0532811
-0.25896
-0.418106
1.64926
0.589478
1.21783
1.37884
-0.303083
1.28839
1.39134
0.223414
0.100877
-0.563284
-0.303922
1.28207
1.21102
-0.0229274
-0.267088
-0.0715085
-0.535806
-0.0777791
1.37969
1.36363
-0.14609
-0.115898
-0.0192943
-0.157259
1.43764
-0.110403
-0.0742422
-0.311461
1.2423
-0.108012
-0.364688
0.924101
-0.0155724
1.29288
1.33896
-0.275466
-0.0709186
-0.0993167
1.03078
0.918524
0.313124
-0.211257
-0.232101
-0.209768
-0.254337
0.0796532
1.36474
-0.509824
-0.245417
1.32976
-0.0081477
-0.0944298
1.11697
-0.110576
1.31499
1.39917
1.47748
-0.0162888
-0.00304302
1.22744
-0.27831
1.3147
1.25556
1.27503
-0.0576831
1.22835
-0.071676
-0.0894372
1.33328
-0.312569
-0.356496
-0.0569351
-0.30116
0.134099
-0.180446
-0.00512067
1.35096
1.26346
1.39191
-0.0735323
1.27278
1.32296
0.0361946
-0.261147
-0.227981
-0.0568355
0.0159198
0.918528
-0.248323
-0.0949947
1.21979
0.34858
1.19325
-0.0177418
1.14826
-0.0577275
1.08986
1.31372
1.36985
-0.276955
-0.054205
1.05315
-0.048053
1.21679
-0.0170271
-0.128758
-0.257675
-0.211223
1.3221
1.24179
-0.080263
0.0935314
-0.0404398
-0.0183077
-0.27692
-0.0343421
1.32364
-0.359636
-0.022169
1.21661
-0.312576
-0.306901
-0.0857688
-0.289182
-0.24194
-0.00501692
-0.365024
0.0828222
1.22566
1.39626
-0.0707784
-0.0935155
0.35388
1.25051
0.0234916
1.37166
1.60779
-0.344146
1.28033
1.33901
-0.474897
-0.261462
1.40196
1.26307
1.3955
1.23751
1.28163
1.49648
-0.121342
0.287805
1.20474
1.38261
-0.298863
1.29881
-0.0829979
1.40078
1.15544
1.3421
-0.133925
-0.389587
-0.0330325
1.29409
1.26702
-0.119555
-0.0428016
1.31311
0.0783553
-0.0747934
1.43124
0.0195394
-0.0953104
-0.318987
-0.0981334
-0.185805
1.33579
-0.229054
1.38581
1.08955
1.55762
0.699979
1.34061
-0.0430444
1.52542
-0.276623
1.38956
1.33735
-0.263963
1.26609
1.3564
-0.211626
-0.0643714
-0.266552
1.37807
1.0467
1.38741
-0.10826
-0.03728
-0.200812
0.772964
-0.188499
-0.0518291
1.29712
1.20798
1.41742
0.957997
-0.337249
1.5576
0.38
1.58061
-0.328909
-0.00862818
-0.134557
-0.17371
0.972925
0.436103
1.37215
0.0712239
-0.358119
1.31745
1.33448
-0.121442
1.22512
1.35706
1.35367
-0.188986
1.38053
-0.265584
-0.332658
-0.0833123
-0.0480773
1.21342
-0.0814195
0.971046
-0.513056
-0.216405
0.705469
-0.101896
1.26671
1.26558
1.26113
1.18929
0.245368
1.09235
1.4962
-0.0416877
-0.217046
1.32067
0.991147
-0.414224
0.257211
1.28715
0.247552
1.39424
1.6549
-0.0630509
1.3519
-0.0952062
-0.0819507
1.06514
1.38116
-0.154415
-0.265791
1.28546
-0.0337148
1.39602
1.56919
-0.118728
1.07518
-0.147495
1.32267
1.50802
-0.269194
0.954574
1.39792
-0.283259
1.14638
1.38137
1.43169
1.39799
0.679397
0.463312
-0.268151
-0.108889
-0.309756
1.38245
1.39163
-0.254271
-0.00678994
1.10433
0.927133
-0.00497011
1.45083
-0.113547
1.33876
-0.0760072
1.40949
1.3002
-0.0223404
-0.220865
-0.0542749
1.37949
1.31301
1.22379
1.24985
1.32587
-0.305614
-0.251194
-0.230515
-0.177603
-0.125091
1.12512
1.31991
1.33855
-0.359015
1.27352
-0.0599673
-0.544432
1.34368
-0.1374
-0.180804
1.43219
1.27656
0.56565
-0.112717
-0.0753137
1.39918
-0.0653119
-0.0493765
-0.25016
-0.0176736
-0.0989954
1.28353
-0.0688567
0.0786216
-0.358746
-0.131686
-0.232167
-0.0175518
1.34081
1.33164
-0.219188
1.38261
-0.0905605
-0.0558596
-0.00922107
-0.164386
-0.0589291
-0.157745
0.149414
-0.027932
1.38785
-0.0143868
-0.0895153
0.357265
0.12547
-0.265214
1.3206
-0.39847
1.3894
-0.0434511
-0.604097
-0.103284
-0.0534449
-0.312348
-0.110672
1.43235
1.55765
1.31034
1.37817
1.37727
0.634543
1.39224
-0.193208
1.5112
-0.0570493
-0.264741
1.19938
1.28632
0.0159219
0.0254343
1.3816
0.729502
1.26527
1.63418
0.531031
-0.10799
1.34351
1.17881
1.14824
1.2279
1.57538
1.38242
0.103993
-0.260693
1.38246
0.260795
1.37508
1.20682
0.915782
1.39439
-0.176768
1.24743
1.32632
1.32341
1.25803
-0.0202338
1.38046
-0.018722
-0.260304
-0.405395
-0.0940265
-0.110953
-0.0192108
-0.0322333
-0.0981998
-0.102646
-0.0586028
1.26042
-0.192367
0.895716
1.36846
1.38891
0.381277
-0.0684942
-0.0173969
1.28631
-0.256075
1.53319
-0.0706619
-0.0522977
1.2298
0.536178
1.37353
0.539688
1.34179
-0.488415
1.70743
1.27371
-0.0793389