/*--------------------------------*- C++ -*----------------------------------*\
| =========                 |                                                 |
| \\      /  F ield         | OpenFOAM: The Open Source CFD Toolbox           |
|  \\    /   O peration     | Version:  3.0.1                                 |
|   \\  /    A nd           | Web:      www.OpenFOAM.org                      |
|    \\/     M anipulation  |                                                 |
\*---------------------------------------------------------------------------*/
FoamFile
{
    version     2.0;
    format      ascii;
    class       volScalarField;
    location    "0.134509";
    object      k;
}
// * * * * * * * * * * * * * * * * * * * * * * * * * * * * * * * * * * * * * //

dimensions      [0 2 -2 0 0 0 0];

internalField   nonuniform List<scalar> 
21246
(
0.94581
1.12594
0.61934
0.312142
0.161492
0.0844982
0.044353
0.0236352
0.0134244
0.00877697
0.00675989
0.536504
0.678796
0.499326
0.318001
0.179128
0.096781
0.0509575
0.0266245
0.0144957
0.00897716
0.00669107
0.50678
0.62026
0.46018
0.325281
0.196381
0.109593
0.0583579
0.0302483
0.0159911
0.00947545
0.00680478
0.489056
0.557069
0.408512
0.305411
0.191338
0.111927
0.0615711
0.0326206
0.0173229
0.0101006
0.00710158
0.47481
0.483343
0.361952
0.278513
0.177437
0.107679
0.0612877
0.033597
0.018281
0.0106959
0.00740943
0.462419
0.418715
0.322569
0.250354
0.161107
0.100357
0.0587929
0.0332823
0.0186446
0.0110731
0.00766765
0.451406
0.369012
0.289905
0.224013
0.145838
0.092263
0.0552078
0.0321454
0.0185456
0.0112492
0.00782565
0.441155
0.329822
0.261994
0.20118
0.132225
0.0844499
0.0513184
0.0305642
0.0181094
0.0112395
0.00796916
0.432648
0.298611
0.238361
0.182137
0.120572
0.0774575
0.0475925
0.0288619
0.0175207
0.0111536
0.00807468
0.427119
0.273807
0.218932
0.166841
0.111052
0.0716007
0.0443278
0.0272634
0.0169023
0.0110247
0.00811603
0.423521
0.253839
0.202739
0.154424
0.103304
0.0667942
0.0415797
0.025857
0.016317
0.0108691
0.00813707
0.420029
0.237297
0.188727
0.143948
0.0968312
0.0628185
0.0392917
0.0246622
0.0158007
0.0107201
0.00814185
0.4179
0.223678
0.176838
0.135349
0.0916132
0.0596767
0.0374853
0.0237107
0.0153855
0.0106006
0.00814495
0.4173
0.213855
0.16724
0.128688
0.0877335
0.0574309
0.0362079
0.0230426
0.0150999
0.010528
0.00816525
0.416366
0.206031
0.159026
0.123301
0.084971
0.0560404
0.0354938
0.0226779
0.0149603
0.0105185
0.00822255
0.415405
0.200188
0.152038
0.118776
0.0831106
0.0554252
0.0354012
0.022752
0.0150883
0.0106582
0.00835317
0.414537
0.197071
0.146628
0.115277
0.0822732
0.0557242
0.0360552
0.0233269
0.015529
0.0109859
0.00857332
0.413699
0.195814
0.142612
0.112654
0.0822834
0.0568995
0.037512
0.0245131
0.0163773
0.0115651
0.00893833
0.413078
0.196453
0.140185
0.111002
0.0831523
0.0590413
0.0399391
0.0265236
0.0178227
0.0125324
0.00953724
0.413027
0.199121
0.139653
0.11051
0.0849455
0.0622756
0.0435643
0.029669
0.0201794
0.014139
0.0105445
0.41408
0.203843
0.141315
0.111479
0.0877836
0.0667146
0.0486294
0.0343417
0.0239117
0.0168213
0.0123104
0.417406
0.209805
0.145274
0.114328
0.0919253
0.0724846
0.0553275
0.0409247
0.0295906
0.0212354
0.0154502
0.423006
0.215482
0.151159
0.119392
0.0977083
0.0796944
0.0636985
0.049611
0.0376949
0.0281216
0.0208411
0.451125
0.216544
0.164403
0.133503
0.110788
0.0921041
0.0758702
0.0615306
0.0489776
0.0382631
0.0294372
1.06139
1.61281
0.707309
0.415181
0.20981
0.103492
0.050863
0.0256242
0.0140449
0.00907867
0.00699587
1.07138
1.77538
0.848305
0.497668
0.274032
0.140081
0.0680167
0.0327724
0.0168167
0.0101888
0.00752995
1.03236
1.54652
0.869007
0.536594
0.313717
0.174407
0.0877385
0.0419697
0.0205587
0.0117542
0.00843617
0.951706
1.31464
0.818212
0.524931
0.325941
0.197876
0.104809
0.0509899
0.0244167
0.0134202
0.00948541
0.856258
1.16164
0.744584
0.490073
0.321995
0.20865
0.116212
0.058182
0.0276904
0.0148373
0.0103315
0.764735
1.0635
0.677961
0.451274
0.310504
0.209536
0.121741
0.0627789
0.0299981
0.0159323
0.0111969
0.684951
0.998481
0.622868
0.416459
0.296136
0.204659
0.122894
0.0649328
0.0312496
0.0165679
0.0117131
0.61811
0.951884
0.576625
0.386172
0.280957
0.197029
0.121352
0.0652811
0.0316337
0.0168937
0.0122147
0.563623
0.916189
0.538264
0.360191
0.266319
0.188682
0.118579
0.0646059
0.0314586
0.0169869
0.0126593
0.519708
0.886263
0.506836
0.338105
0.253001
0.180754
0.115608
0.0635721
0.0310603
0.0169743
0.0130416
0.483686
0.855433
0.483338
0.320703
0.241337
0.173791
0.1131
0.0628891
0.0309784
0.0171117
0.0134346
0.453086
0.825932
0.464735
0.306372
0.230869
0.167546
0.110954
0.0627038
0.0314964
0.0176304
0.0138991
0.426612
0.796047
0.450814
0.294976
0.221761
0.162239
0.109388
0.0632313
0.0327269
0.0185986
0.0145256
0.402871
0.763642
0.442146
0.287171
0.214437
0.158114
0.108623
0.0646811
0.0347953
0.0201231
0.0153715
0.380757
0.731284
0.436505
0.282289
0.208859
0.155108
0.108656
0.0670638
0.037761
0.0223114
0.016575
0.359728
0.697766
0.433606
0.280649
0.205449
0.153452
0.109662
0.0704761
0.0417521
0.0253571
0.0183122
0.339134
0.661841
0.433043
0.282745
0.204876
0.153557
0.111899
0.0750425
0.0469347
0.0295105
0.0208843
0.318254
0.623465
0.433714
0.288746
0.207889
0.156053
0.11576
0.0809462
0.0534912
0.0350644
0.0246433
0.29635
0.581939
0.434304
0.298734
0.215533
0.162061
0.122051
0.0886326
0.0617388
0.042387
0.0300878
0.272484
0.536254
0.432844
0.312497
0.229239
0.173516
0.132418
0.0992147
0.072381
0.052048
0.0378576
0.244794
0.48121
0.425794
0.32902
0.250744
0.193554
0.150042
0.115249
0.0871982
0.0652759
0.0488781
0.212857
0.443526
0.41683
0.346984
0.279583
0.223195
0.176797
0.138728
0.107836
0.0832528
0.0640334
0.17097
0.329789
0.318681
0.283445
0.24064
0.19952
0.162582
0.130395
0.103049
0.0803508
0.0618207
0.403475
0.293542
0.219981
0.172318
0.139477
0.114591
0.0944705
0.0775892
0.0631501
0.05075
0.0401709
0.514895
0.703222
0.32876
0.176065
0.0878326
0.0459388
0.0283152
0.0214606
0.0186751
0.017412
0.0167831
0.537828
0.778851
0.397411
0.213323
0.111837
0.0567041
0.0321024
0.0226829
0.0191693
0.0177255
0.017078
0.534555
0.684205
0.423758
0.243931
0.131838
0.0680792
0.0371789
0.0245725
0.0200181
0.0183296
0.0177898
0.503078
0.594641
0.422318
0.255604
0.145949
0.0776142
0.0425384
0.0268753
0.0211346
0.0191439
0.0187167
0.454054
0.539198
0.411942
0.259643
0.154758
0.0864402
0.0476411
0.0293952
0.022445
0.0200896
0.0196873
0.397541
0.504081
0.402061
0.264083
0.163086
0.0945239
0.0534666
0.0320856
0.023889
0.0211095
0.0206518
0.33932
0.481584
0.395301
0.270451
0.17241
0.102876
0.0595751
0.0356794
0.0255903
0.022192
0.0216875
0.283377
0.467958
0.392759
0.278497
0.182693
0.112018
0.0662402
0.039865
0.0278108
0.0234609
0.0227342
0.233261
0.458883
0.395723
0.289013
0.194413
0.122402
0.0739332
0.0448427
0.0306027
0.0250364
0.0238804
0.190489
0.451911
0.404834
0.303274
0.208545
0.134692
0.0832145
0.0510072
0.0341849
0.0270566
0.0252203
0.156192
0.450094
0.420741
0.321926
0.225432
0.148988
0.0942665
0.0586422
0.0388158
0.0297096
0.0268681
0.135848
0.46082
0.446747
0.346664
0.245533
0.165256
0.107021
0.0678656
0.044738
0.0332302
0.0290042
0.137352
0.488394
0.487847
0.381794
0.271435
0.184714
0.121999
0.0790052
0.0522881
0.0379323
0.0318682
0.153079
0.521158
0.545706
0.434231
0.308405
0.210239
0.140548
0.092728
0.0619397
0.0442391
0.0358008
0.164038
0.538576
0.609974
0.508165
0.362889
0.245976
0.164761
0.110024
0.0742795
0.0526516
0.041268
0.163511
0.521452
0.650649
0.594348
0.44027
0.298644
0.19904
0.133311
0.0906324
0.0640316
0.0489301
0.153398
0.474408
0.643601
0.663337
0.534436
0.373707
0.249699
0.166984
0.113673
0.0800329
0.0599215
0.138762
0.415459
0.593887
0.684442
0.620257
0.466555
0.321227
0.216674
0.147778
0.103676
0.0763365
0.122828
0.355025
0.518051
0.647196
0.663572
0.557099
0.411295
0.287636
0.199364
0.140347
0.102196
0.10748
0.297343
0.431604
0.565975
0.647088
0.617757
0.507418
0.381453
0.276003
0.198528
0.144941
0.0976511
0.249537
0.353905
0.47555
0.591067
0.636245
0.590617
0.490855
0.381717
0.28769
0.215229
0.106228
0.240069
0.327517
0.421745
0.527047
0.612013
0.624981
0.575152
0.489807
0.397274
0.311924
0.147056
0.307942
0.380078
0.430256
0.472548
0.505459
0.518161
0.507432
0.472031
0.420143
0.353558
0.178264
0.27969
0.332578
0.387174
0.43698
0.47711
0.499967
0.497451
0.461721
0.409965
0.349173
0.44095
0.501349
0.282005
0.14051
0.0727799
0.0410779
0.0270739
0.0211988
0.0186095
0.0173469
0.0166473
0.34074
0.398368
0.244528
0.145196
0.0794337
0.0453701
0.0292413
0.0222452
0.0191852
0.0177301
0.0169607
0.339776
0.395693
0.238942
0.165105
0.0979694
0.056468
0.0343042
0.0243424
0.0201976
0.0183771
0.0175283
0.339835
0.369279
0.2246
0.169589
0.10766
0.0652921
0.0401481
0.0273742
0.0217045
0.0192387
0.0181713
0.337755
0.327436
0.211649
0.165633
0.106919
0.066592
0.041937
0.0290025
0.0228948
0.0201654
0.0190022
0.334178
0.289671
0.19928
0.157418
0.103292
0.0664921
0.0428595
0.0299874
0.0237937
0.0209982
0.0199148
0.330146
0.259918
0.18818
0.148702
0.0987367
0.0652724
0.0430136
0.0306523
0.0245312
0.0217168
0.0206544
0.325815
0.236861
0.178361
0.1408
0.0944937
0.0638567
0.0428302
0.0310636
0.0251064
0.0223068
0.0212468
0.322058
0.218957
0.17025
0.134265
0.0912774
0.0627035
0.0427187
0.0314711
0.0256888
0.0229648
0.0220282
0.319346
0.205342
0.163686
0.129214
0.0893203
0.0620399
0.0428386
0.0319438
0.0262698
0.0235893
0.0227084
0.317818
0.195069
0.158798
0.125962
0.0885415
0.0620631
0.0433181
0.0325516
0.0268716
0.0241548
0.0232038
0.317284
0.18699
0.155002
0.124119
0.0887682
0.0628012
0.0442231
0.0333673
0.0275548
0.0247324
0.0237266
0.317972
0.180607
0.152256
0.123579
0.0900406
0.0643651
0.0456715
0.0344931
0.0284001
0.0253787
0.0242528
0.318785
0.176364
0.150447
0.124258
0.0925638
0.0670141
0.0478949
0.0360797
0.0295218
0.026188
0.0248256
0.319121
0.173351
0.148875
0.125254
0.0958951
0.0706482
0.0511604
0.0385195
0.0312344
0.0273966
0.0256795
0.319102
0.171429
0.147496
0.126475
0.0998871
0.0753217
0.0555911
0.0420225
0.0337771
0.0292136
0.0269928
0.31882
0.170609
0.146292
0.127802
0.104371
0.081046
0.0613367
0.0468702
0.0374791
0.0319375
0.0290044
0.318316
0.170663
0.145211
0.129036
0.109047
0.0876669
0.0684634
0.0533354
0.0427438
0.0360029
0.0321239
0.317682
0.171487
0.14425
0.129976
0.11354
0.0948601
0.0768835
0.0616163
0.0500156
0.0419932
0.0369848
0.317091
0.17308
0.143482
0.130425
0.117384
0.102047
0.0862074
0.0716608
0.0596235
0.0505503
0.0444424
0.316843
0.175372
0.142962
0.130179
0.119967
0.108277
0.0954846
0.0827985
0.071374
0.061998
0.0552432
0.317686
0.178023
0.142595
0.128938
0.120437
0.112043
0.102802
0.0930886
0.0836566
0.0753071
0.0689645
0.320489
0.181464
0.142229
0.12615
0.117604
0.111184
0.105008
0.0986143
0.0922381
0.0863811
0.0820573
0.338894
0.186449
0.15043
0.135835
0.129188
0.125981
0.124022
0.12192
0.123007
0.124931
0.127206
0.0841957
0.193379
0.217882
0.225896
0.20051
0.158124
0.114935
0.0796238
0.0535729
0.0353997
0.0238509
0.0874935
0.174461
0.186913
0.188931
0.165924
0.129706
0.0936086
0.0645873
0.0434194
0.0287473
0.0193192
0.0849308
0.149173
0.161593
0.160891
0.141966
0.11225
0.0818466
0.0568564
0.0383574
0.0253602
0.0167503
0.0813086
0.131713
0.145004
0.143497
0.127482
0.102305
0.0757142
0.0531374
0.0360451
0.0238624
0.0157055
0.0780722
0.121321
0.135566
0.134371
0.120304
0.0978382
0.0733454
0.0518811
0.0353041
0.0233785
0.0153756
0.0751354
0.115015
0.13055
0.130309
0.117745
0.0968674
0.0733331
0.0521121
0.0354747
0.023471
0.0154338
0.0723032
0.110803
0.127706
0.128685
0.117448
0.0976443
0.0745196
0.053123
0.0361432
0.0238838
0.0156545
0.0706472
0.108239
0.125733
0.127903
0.117856
0.0989214
0.0760545
0.0543981
0.0370218
0.0244741
0.0161324
0.069338
0.106361
0.124216
0.127324
0.118288
0.100121
0.0775107
0.0556634
0.0379554
0.0251485
0.0166527
0.0679971
0.10482
0.122927
0.126762
0.118617
0.101154
0.0788196
0.056859
0.0388908
0.0258493
0.0171444
0.0666601
0.10349
0.121734
0.126153
0.118801
0.101997
0.0799697
0.05797
0.0398004
0.0265443
0.0176809
0.0656647
0.102509
0.120634
0.125485
0.118803
0.10262
0.0809467
0.058989
0.0406738
0.0272142
0.0181386
0.0648912
0.101625
0.119584
0.124827
0.118768
0.103199
0.0819009
0.0600153
0.0415657
0.0278919
0.0186335
0.0641408
0.100503
0.118513
0.124265
0.118894
0.103975
0.0830585
0.0612134
0.0425771
0.0286373
0.0192244
0.0635023
0.0996571
0.117536
0.123784
0.119183
0.104999
0.0845105
0.0626881
0.043801
0.0295229
0.0198452
0.0630197
0.0988379
0.116557
0.123369
0.119673
0.106442
0.0865185
0.0646802
0.0454036
0.0306555
0.020618
0.0625702
0.0976667
0.115405
0.122953
0.12041
0.108406
0.0892805
0.0675001
0.0477036
0.0322158
0.0216148
0.062102
0.0963209
0.114115
0.122519
0.121392
0.110971
0.092958
0.0713281
0.050859
0.0343825
0.0229456
0.0615753
0.0946191
0.11254
0.121966
0.122602
0.114243
0.0977857
0.0764967
0.0552098
0.0374212
0.0247093
0.0609023
0.0922792
0.11047
0.121162
0.124022
0.118316
0.103977
0.0833418
0.061153
0.0417001
0.0272701
0.0598767
0.0888821
0.107649
0.119949
0.125553
0.123107
0.11151
0.0920276
0.0690888
0.0477312
0.0311512
0.0584738
0.0848887
0.103928
0.118002
0.12665
0.127859
0.119629
0.102145
0.0791743
0.0561329
0.037118
0.0552315
0.0747651
0.0942213
0.110644
0.123136
0.129076
0.125568
0.111837
0.0906636
0.0672032
0.046139
0.114625
0.0937549
0.0879203
0.102608
0.118622
0.127297
0.127211
0.117966
0.100897
0.0796666
0.0585667
0.0789096
0.137236
0.207397
0.238476
0.232609
0.199205
0.153446
0.109101
0.0736135
0.0483452
0.0325375
0.094793
0.105394
0.154614
0.19412
0.208292
0.204616
0.187868
0.149341
0.106598
0.0710281
0.0471692
0.117119
0.122896
0.164445
0.208196
0.227486
0.21176
0.191285
0.168759
0.136893
0.0980152
0.0679535
0.135504
0.14507
0.186051
0.23647
0.277144
0.278346
0.233091
0.190759
0.155669
0.120807
0.0891197
0.150814
0.167044
0.207181
0.257279
0.309267
0.345634
0.320904
0.252278
0.189901
0.141835
0.10643
0.163756
0.187875
0.226836
0.271158
0.320167
0.373658
0.400113
0.344479
0.256134
0.179269
0.126679
0.174957
0.207422
0.245462
0.28135
0.319088
0.370229
0.425881
0.423464
0.339901
0.237931
0.157844
0.185095
0.226339
0.264026
0.290622
0.314273
0.352466
0.413221
0.461657
0.414913
0.306343
0.202359
0.194658
0.245584
0.283423
0.300608
0.310528
0.332781
0.384171
0.45603
0.46099
0.367662
0.25184
0.203976
0.265693
0.303843
0.311653
0.309593
0.3175
0.355051
0.43087
0.480152
0.412771
0.294511
0.21356
0.286916
0.324959
0.323758
0.311704
0.308705
0.333859
0.401638
0.481021
0.442982
0.325436
0.224227
0.309278
0.346601
0.337106
0.316361
0.305761
0.321592
0.375291
0.467205
0.464516
0.346197
0.235752
0.333546
0.369007
0.351722
0.322472
0.305806
0.315354
0.354292
0.422367
0.478896
0.35393
0.247716
0.360482
0.394104
0.368233
0.32906
0.304231
0.305347
0.330881
0.374346
0.41677
0.369024
0.259852
0.390771
0.422955
0.387669
0.336656
0.301264
0.291839
0.304051
0.330264
0.359169
0.362922
0.272963
0.425621
0.457158
0.411674
0.346998
0.299377
0.279054
0.279909
0.293758
0.312009
0.320005
0.287452
0.465899
0.498866
0.443324
0.36351
0.301909
0.269894
0.25959
0.261269
0.267161
0.269938
0.304096
0.513097
0.553456
0.491937
0.39709
0.31873
0.272877
0.251872
0.244262
0.240874
0.234407
0.327353
0.571922
0.627686
0.57444
0.475933
0.38369
0.322677
0.292016
0.281423
0.279944
0.277669
0.304641
0.581185
0.658613
0.62998
0.545168
0.449371
0.374662
0.33238
0.318349
0.315581
0.326672
0.2711
0.522937
0.617272
0.620099
0.564947
0.484048
0.404618
0.341821
0.287578
0.231378
0.196213
0.236284
0.45476
0.548887
0.5681
0.537052
0.477446
0.406703
0.332127
0.244159
0.180788
0.134409
0.213149
0.390587
0.459636
0.47239
0.449752
0.400844
0.320594
0.231935
0.169381
0.127784
0.0977687
0.191291
0.304924
0.313171
0.293207
0.251764
0.198575
0.158541
0.133328
0.114004
0.0950953
0.0752947
0.085851
0.0808029
0.0833224
0.0846344
0.0855014
0.0846781
0.0814629
0.0717805
0.0518422
0.128316
0.132518
0.126238
0.116909
0.107703
0.0961814
0.0826394
0.0691295
0.0552857
0.11802
0.122374
0.119821
0.111332
0.0996175
0.0898951
0.0834306
0.0756538
0.0629283
0.0958653
0.0979585
0.0977947
0.0938617
0.0845599
0.0772578
0.0724609
0.0688269
0.0623269
0.0861559
0.0828555
0.0771822
0.0654609
0.0402847
0.0213609
0.0189908
0.0152517
0.0221982
0.123101
0.112375
0.0954364
0.0770878
0.0607985
0.0450986
0.0297257
0.0295592
0.0436394
0.110621
0.103549
0.0983258
0.089209
0.0740544
0.0532679
0.037301
0.0369209
0.0490941
0.0909643
0.0877763
0.0853914
0.0837461
0.0770819
0.0608689
0.047143
0.044565
0.0522986
0.00442744
0.00460083
0.00461588
0.00564335
0.0151842
0.00438838
0.0220628
0.00454055
0.00437816
0.00418022
0.0165701
0.00455029
0.00467034
0.00410958
0.00448371
0.00430023
0.00409015
0.00552955
0.00428913
0.00424383
0.00410841
0.0152725
0.00466511
0.00457566
0.00449283
0.00410285
0.00465176
0.0199427
0.0823735
0.00636194
0.00413547
0.00447919
0.00414245
0.00453527
0.00458218
0.00459207
0.00454702
0.00448756
0.0041487
0.00439781
0.00697201
0.00454419
0.00427097
0.00465785
0.0501322
0.0391741
0.00455342
0.0724201
0.00434797
0.00430705
0.00601343
0.00440479
0.00414317
0.0042721
0.00430488
0.00411545
0.0143612
0.00441195
0.0817771
0.00414596
0.00605403
0.00412984
0.0165247
0.0117553
0.0132433
0.00425539
0.0051365
0.00428055
0.00460138
0.00417551
0.00405996
0.00422286
0.00545513
0.00431879
0.00439091
0.00422184
0.00847777
0.00459575
0.0135091
0.0352028
0.00425992
0.0114291
0.00449602
0.00462554
0.00488984
0.00546488
0.118333
0.00410767
0.0120484
0.00436544
0.00454234
0.00442436
0.00786211
0.0042699
0.0373809
0.0835685
0.004305
0.00441477
0.0125408
0.00425575
0.00515146
0.0708637
0.0041304
0.00470641
0.00932719
0.00454886
0.00402175
0.00464627
0.00428926
0.00429568
0.0045097
0.00455872
0.00425887
0.00640216
0.0046873
0.00442275
0.00438008
0.00430958
0.00450003
0.00411667
0.00619406
0.0043098
0.00470272
0.00405312
0.0363873
0.00448992
0.00422137
0.00400616
0.00412054
0.00420264
0.00446097
0.00415241
0.069919
0.00421925
0.00461343
0.00497696
0.00737315
0.00969286
0.00677009
0.00444796
0.00427143
0.00412709
0.0378719
0.00404261
0.0043692
0.00476084
0.00492019
0.00427932
0.00422499
0.00424788
0.00426965
0.00442552
0.00466052
0.00429032
0.00628537
0.00425392
0.00513081
0.00674075
0.00398036
0.00435316
0.00422091
0.00810226
0.00422209
0.00442945
0.00533326
0.00433645
0.0103231
0.0047428
0.00462341
0.0122136
0.00413492
0.00395771
0.00488287
0.0040631
0.00441625
0.00431871
0.0039862
0.0044296
0.05187
0.00423001
0.00427882
0.0132532
0.00465921
0.00831863
0.00450052
0.00831501
0.00425888
0.00429501
0.00458844
0.0173584
0.00427731
0.00412272
0.00426798
0.00625298
0.00460922
0.00439229
0.0043389
0.0120838
0.00421977
0.00467913
0.00417808
0.00429952
0.00425928
0.00415925
0.00462672
0.00411423
0.00426948
0.0041191
0.00432635
0.00433528
0.00434068
0.00439477
0.00408833
0.00444568
0.0044932
0.00406865
0.00450828
0.00477272
0.0042681
0.00464477
0.00422245
0.00614083
0.00433399
0.00473722
0.00403142
0.004417
0.00712138
0.00433136
0.00425854
0.0147377
0.0077796
0.00425193
0.0042657
0.00430714
0.00454201
0.0830066
0.00450421
0.00464562
0.00455639
0.00454526
0.00475029
0.00678069
0.00469592
0.00509399
0.00434219
0.00855488
0.00451773
0.00419405
0.099371
0.00420132
0.00418984
0.0043476
0.0055101
0.00429419
0.00463254
0.00435162
0.00413975
0.0044726
0.00463636
0.00425631
0.00397135
0.0049625
0.00432263
0.00457217
0.00450784
0.0046721
0.00413573
0.00438425
0.00591488
0.00421312
0.0138948
0.00430121
0.00429353
0.00456876
0.00438435
0.00432237
0.00408495
0.00444634
0.00426533
0.00921113
0.0042342
0.00459463
0.00426299
0.0044706
0.0045919
0.00438983
0.037744
0.00458374
0.00427917
0.00427884
0.00461328
0.0205111
0.00479368
0.00417384
0.00467838
0.00433561
0.00459838
0.00456246
0.00453302
0.0040996
0.00445626
0.00534001
0.00446372
0.00657452
0.0041514
0.00431943
0.00459607
0.00430407
0.0125792
0.00434309
0.0153805
0.0045619
0.00437885
0.00413995
0.0134772
0.00409224
0.00448877
0.00832714
0.00411176
0.00428142
0.00425509
0.00427475
0.00435438
0.0041319
0.0125529
0.00431782
0.00445433
0.00435733
0.00423487
0.00410543
0.00432114
0.0176744
0.00599581
0.00464938
0.00475694
0.089596
0.00520157
0.00458418
0.00447108
0.00441885
0.00460667
0.00435734
0.00429164
0.00435703
0.0121062
0.00430415
0.00431904
0.00437731
0.00461195
0.00419876
0.0184643
0.0043666
0.00422717
0.00417135
0.00412104
0.00468914
0.00423797
0.00406859
0.00465911
0.00412276
0.00429111
0.00410937
0.00451607
0.00451224
0.00429472
0.0105724
0.00396768
0.00420753
0.0250574
0.00467806
0.0044395
0.00842859
0.0958505
0.00410024
0.00412623
0.00460487
0.00437354
0.00461717
0.00437003
0.0042523
0.00432542
0.00437744
0.00448732
0.00442389
0.00411448
0.00476791
0.00517446
0.00402526
0.00658312
0.0106881
0.00443569
0.0138935
0.00401263
0.00447281
0.00478073
0.0133197
0.0044815
0.0042782
0.0046179
0.00440791
0.0046694
0.00440908
0.00466175
0.00427532
0.00417503
0.0119093
0.01105
0.0043319
0.00429887
0.00427512
0.00449334
0.00427458
0.00422717
0.00421837
0.00489869
0.00444038
0.00427725
0.00437861
0.00403575
0.0121343
0.00976784
0.0039751
0.0286703
0.00428541
0.0044227
0.00426375
0.00429415
0.00466122
0.00585644
0.022768
0.00448694
0.00453098
0.0041299
0.00408483
0.00549743
0.00424675
0.00504
0.0065609
0.00405906
0.00468835
0.00457984
0.113918
0.00467066
0.00514083
0.00425445
0.00427275
0.00409524
0.00433407
0.0043361
0.00644717
0.00444806
0.00461262
0.00449654
0.0104672
0.00492078
0.0288531
0.00413659
0.00415498
0.00462297
0.00459006
0.00433192
0.00421727
0.00404487
0.00462461
0.00444049
0.00748799
0.00679649
0.00545505
0.00546768
0.00431651
0.00433227
0.00504702
0.00423038
0.00594824
0.00433487
0.00458117
0.00431064
0.00557836
0.00742728
0.00426106
0.00445052
0.00412411
0.0124465
0.0120749
0.00464571
0.00499594
0.018267
0.00405776
0.00423681
0.00433448
0.00411252
0.00438984
0.00431764
0.00441079
0.00416942
0.00396746
0.00425773
0.00411869
0.00413686
0.00437021
0.00430894
0.00435122
0.00453349
0.00453507
0.0989893
0.00428755
0.00493391
0.00432646
0.0608288
0.00461866
0.00486345
0.0044498
0.0109128
0.00432024
0.0051941
0.00468225
0.00442911
0.00410744
0.00445407
0.00416057
0.00410013
0.00459293
0.00442343
0.00456812
0.00424579
0.00433643
0.00451578
0.00434795
0.00492086
0.0044487
0.0250667
0.00508514
0.0043172
0.00406166
0.0111381
0.00467792
0.004474
0.00463296
0.00570379
0.00762686
0.00450247
0.00449036
0.00404983
0.00461393
0.00460688
0.00460336
0.00412438
0.00423382
0.00821798
0.00414587
0.00396081
0.0443675
0.00486859
0.00416285
0.004137
0.0042157
0.00460208
0.00425338
0.0039783
0.00422983
0.00418398
0.00901461
0.0667155
0.00449116
0.0043026
0.00459515
0.00409826
0.00450355
0.00425282
0.00453797
0.00437116
0.00444413
0.00426605
0.00419118
0.0041368
0.00432847
0.0198128
0.00443616
0.00438354
0.00446061
0.00440588
0.00432307
0.00435555
0.00397803
0.00436603
0.0143543
0.00435923
0.00463492
0.00467308
0.0430512
0.00440332
0.00413837
0.00709031
0.00440057
0.00410066
0.00458283
0.00448776
0.00416212
0.00444949
0.0044914
0.0874772
0.00468778
0.00414437
0.00424562
0.00450038
0.010239
0.0042528
0.00429063
0.00437074
0.00420788
0.00425531
0.00441975
0.0043864
0.00600343
0.00458544
0.00551523
0.00428731
0.00455688
0.00420834
0.00446357
0.0979108
0.00435024
0.00438259
0.00438288
0.00713925
0.00411927
0.00432649
0.00592316
0.00460512
0.00424142
0.00458798
0.00415864
0.00428401
0.00410196
0.00399001
0.00959815
0.00429033
0.00540368
0.00457311
0.00420199
0.0102242
0.00521587
0.00402967
0.00462052
0.00417884
0.0127523
0.00436915
0.00422528
0.00448074
0.00413734
0.00427774
0.0989561
0.00414579
0.00491339
0.00442704
0.00566345
0.00455151
0.0042865
0.0042163
0.00481989
0.00419437
0.0043483
0.00422238
0.00458826
0.00671234
0.00585276
0.0153394
0.00420879
0.00425655
0.00404748
0.00421043
0.00427298
0.0269292
0.00424644
0.00467019
0.00426851
0.00443393
0.00430698
0.00465856
0.00414139
0.00816428
0.00424792
0.0946089
0.00421468
0.00485174
0.00463599
0.00399175
0.00404595
0.0110663
0.00422265
0.00436842
0.00439185
0.00463212
0.00422046
0.00421854
0.00502767
0.00455164
0.00441199
0.00439811
0.00464325
0.00436633
0.00456351
0.00396274
0.00437068
0.00432663
0.00398586
0.00411105
0.00755875
0.00485284
0.00415065
0.00489324
0.00448561
0.00456623
0.00449398
0.00413662
0.0240597
0.00446962
0.00421796
0.00449559
0.00431807
0.015103
0.005998
0.00410623
0.00411181
0.00426911
0.0042419
0.00410817
0.00468966
0.00458487
0.00420974
0.00428528
0.0041196
0.00421055
0.0044158
0.00416713
0.00410567
0.00431314
0.00454741
0.00641935
0.00771293
0.00452655
0.00410946
0.00817425
0.00454883
0.0254403
0.00398601
0.00432271
0.00460475
0.00438155
0.00429847
0.00417444
0.00396402
0.00424252
0.00409068
0.00456926
0.00414215
0.00421497
0.00416383
0.00428116
0.00436361
0.00429167
0.0042839
0.00504906
0.0456035
0.00446271
0.00412332
0.00433331
0.00427514
0.0055509
0.00673654
0.00479226
0.00464458
0.00414645
0.00537656
0.00427952
0.00487799
0.00441628
0.00430628
0.00456728
0.00469005
0.00449123
0.005052
0.0192362
0.00427833
0.00448126
0.00457049
0.00424169
0.00479217
0.00455527
0.00457932
0.00462395
0.0044872
0.00434014
0.00399036
0.0136385
0.00761295
0.00398693
0.00540299
0.00442342
0.00450202
0.0042591
0.00450349
0.00459496
0.00495168
0.0041032
0.0555323
0.00440242
0.00513636
0.00437562
0.00459311
0.00442729
0.00447131
0.0346255
0.00421224
0.00455984
0.00448158
0.00433893
0.00460738
0.00449329
0.00455609
0.00457391
0.00633291
0.00537688
0.00455875
0.00404961
0.0042808
0.00438319
0.00479881
0.00463929
0.00427385
0.00542211
0.00441602
0.00426632
0.00460032
0.00422017
0.00430225
0.00431656
0.00458507
0.00414304
0.00414311
0.0229029
0.04327
0.00428382
0.00454233
0.00965892
0.00466864
0.00424489
0.00470714
0.00449275
0.00441925
0.00442801
0.00888062
0.00408933
0.00426081
0.00441523
0.00462856
0.00441993
0.00468844
0.00430576
0.00437815
0.00452021
0.00449823
0.00455788
0.00427452
0.0882413
0.00437963
0.00425262
0.00594183
0.0342904
0.00426942
0.0045045
0.0101281
0.0833493
0.00426875
0.00493752
0.00428892
0.00487674
0.00464848
0.00454136
0.00430456
0.0040379
0.00415497
0.00459319
0.00488413
0.00418094
0.00429082
0.00414588
0.00457618
0.0041334
0.0056408
0.00444706
0.00432087
0.00433659
0.00460581
0.00440327
0.0289217
0.00489381
0.00441702
0.00416916
0.00427589
0.00442956
0.00988698
0.00466258
0.00455672
0.00401402
0.00418229
0.00413292
0.00440675
0.0157745
0.00426667
0.00466462
0.00430699
0.00407235
0.00395499
0.00843941
0.00417529
0.00418853
0.0045288
0.00432784
0.0110124
0.00421725
0.0052917
0.00430709
0.00437528
0.00420714
0.00416902
0.00437946
0.00460281
0.00413072
0.020834
0.0097075
0.00423323
0.00413841
0.00411044
0.0040667
0.00836927
0.00452084
0.00444749
0.00419963
0.00439315
0.00579596
0.00449205
0.00435455
0.00415107
0.00433215
0.00460364
0.00406061
0.00464487
0.00441629
0.00427568
0.00654713
0.00425955
0.00445871
0.00427614
0.0049702
0.00543667
0.0117967
0.00453963
0.00415723
0.0113822
0.00477555
0.00797163
0.00460946
0.00432792
0.00414341
0.00459514
0.00456137
0.00415229
0.00426892
0.00505382
0.00450488
0.00480011
0.00409365
0.00433664
0.00494353
0.00429547
0.00425698
0.00432363
0.00455404
0.0802117
0.00434052
0.0687009
0.00455391
0.00441593
0.00770099
0.00708319
0.00396198
0.00395484
0.00467568
0.00405173
0.0129867
0.00456064
0.00413072
0.00414558
0.00507682
0.00452199
0.00426572
0.00446444
0.00432051
0.00886883
0.00428729
0.00769021
0.00416109
0.00431812
0.00458281
0.00459502
0.00491769
0.0120087
0.00478066
0.00434988
0.00427054
0.00438461
0.00454303
0.00410702
0.00454592
0.00459232
0.00467874
0.00442308
0.00418323
0.00460607
0.00428199
0.00426612
0.00412384
0.00452437
0.0169591
0.00470363
0.00407239
0.00450087
0.00455494
0.00422859
0.00446546
0.0378758
0.00434292
0.00408703
0.00458842
0.0124084
0.00450803
0.00417346
0.00450425
0.00437181
0.00484123
0.00439566
0.00424299
0.0466216
0.0262678
0.00877946
0.00414723
0.00448674
0.00544464
0.00462761
0.00399708
0.0040836
0.00443626
0.00573601
0.0044126
0.00448187
0.00422092
0.00403231
0.00455063
0.0043612
0.00469538
0.0986301
0.00451366
0.00436064
0.0126685
0.00442023
0.0042338
0.00449994
0.00428124
0.0049004
0.00441519
0.00600705
0.0458447
0.00420129
0.00639294
0.0440904
0.00432925
0.00460955
0.00447367
0.00436045
0.00418723
0.00403667
0.00785373
0.00437896
0.00446432
0.0500874
0.00436849
0.00427835
0.00446397
0.00456948
0.00416053
0.00413788
0.00418253
0.00402456
0.00660437
0.00435667
0.0311989
0.0135421
0.00492761
0.00572788
0.00443773
0.00459299
0.0039192
0.00428903
0.00441951
0.00452869
0.00463896
0.00436634
0.00458592
0.00427344
0.00454372
0.00431261
0.00442965
0.00436474
0.0942859
0.00415244
0.00507853
0.00428361
0.00473144
0.00417131
0.0041324
0.0444209
0.00444535
0.00416416
0.00441184
0.00414461
0.00429493
0.00527965
0.00432402
0.00423529
0.0084753
0.00430802
0.00408503
0.0043129
0.00459686
0.00430121
0.0048085
0.00943556
0.00499992
0.00425128
0.00468957
0.00450802
0.00491798
0.00417447
0.00411081
0.00391416
0.0266964
0.00459268
0.00631573
0.00555584
0.00457252
0.00615615
0.00424203
0.00426145
0.0883325
0.0050112
0.0660647
0.01599
0.00456135
0.00449492
0.00447911
0.0116384
0.00429242
0.0808218
0.00410054
0.0045639
0.00427203
0.00413512
0.00426474
0.00616929
0.00419999
0.00433017
0.00579349
0.00412136
0.00513236
0.00417356
0.00482152
0.0206494
0.00416179
0.00431657
0.00429468
0.00429195
0.0121554
0.00414096
0.0042878
0.0045994
0.00466031
0.00507819
0.00662711
0.00696888
0.00429376
0.00993085
0.00661175
0.00437034
0.038949
0.00915665
0.00461997
0.00403261
0.0042322
0.00409334
0.00422608
0.0045362
0.00442205
0.00419007
0.00490967
0.00394208
0.00435318
0.00445052
0.00461316
0.00455807
0.0046882
0.00407697
0.00443048
0.00435852
0.00476427
0.00455954
0.00940719
0.0114938
0.00417187
0.00528459
0.00537491
0.00418541
0.00490662
0.00452295
0.00456268
0.00448212
0.00414457
0.00449681
0.00427354
0.00487284
0.00515411
0.00427588
0.00414424
0.00424876
0.00438558
0.00930711
0.00474972
0.00467558
0.00502857
0.0045865
0.00403835
0.0041239
0.00399844
0.00411705
0.00414471
0.00450371
0.00911972
0.00427448
0.00547903
0.00446775
0.00468828
0.00423752
0.00419637
0.00483849
0.00429473
0.00439111
0.00548781
0.00407266
0.00562523
0.00402325
0.0043306
0.0050366
0.00413933
0.00450366
0.0542678
0.00398455
0.00411273