/*--------------------------------*- C++ -*----------------------------------*\
| =========                 |                                                 |
| \\      /  F ield         | OpenFOAM: The Open Source CFD Toolbox           |
|  \\    /   O peration     | Version:  3.0.1                                 |
|   \\  /    A nd           | Web:      www.OpenFOAM.org                      |
|    \\/     M anipulation  |                                                 |
\*---------------------------------------------------------------------------*/
FoamFile
{
    version     2.0;
    format      ascii;
    class       surfaceScalarField;
    location    "0.134509";
    object      phi;
}
// * * * * * * * * * * * * * * * * * * * * * * * * * * * * * * * * * * * * * //

dimensions      [0 3 -1 0 0 0 0];

internalField   nonuniform List<scalar> 
32369
(
-1.63541e-05
-4.73065e-07
1.68272e-05
-2.70643e-05
-2.59706e-06
1.33072e-05
-3.55364e-05
-4.44223e-06
1.29143e-05
-4.26428e-05
-5.56643e-06
1.26729e-05
-4.93714e-05
-6.03005e-06
1.27586e-05
-5.63719e-05
-5.93443e-06
1.29349e-05
-6.41237e-05
-5.32966e-06
1.30815e-05
-7.29929e-05
-4.18279e-06
1.3052e-05
-8.33236e-05
-2.36257e-06
1.26933e-05
-9.55045e-05
3.82269e-07
1.17986e-05
4.45232e-06
1.00544e-05
-0.000110011
-7.5191e-06
7.04604e-06
-1.49193e-05
4.80309e-06
-2.309e-05
3.72851e-06
-3.12053e-05
2.54883e-06
-3.91522e-05
1.91687e-06
-4.72134e-05
2.12682e-06
-5.58864e-05
3.34334e-06
-6.57091e-05
5.63989e-06
-7.72051e-05
9.13338e-06
-9.08807e-05
1.40579e-05
2.08123e-05
-0.000107241
-2.95096e-06
9.997e-06
-7.21272e-06
9.06486e-06
-1.32621e-05
9.77788e-06
-2.04852e-05
9.77197e-06
-2.86158e-05
1.00474e-05
-3.74203e-05
1.09313e-05
-4.69739e-05
1.2897e-05
-5.75757e-05
1.62417e-05
-6.96699e-05
2.12276e-05
-8.37726e-05
2.81607e-05
3.75354e-05
-0.000100496
-1.76003e-06
1.1757e-05
-4.84736e-06
1.21522e-05
-9.32349e-06
1.4254e-05
-1.48767e-05
1.53252e-05
-2.18645e-05
1.70352e-05
-3.00211e-05
1.90879e-05
-3.92566e-05
2.21325e-05
-4.96568e-05
2.66419e-05
-6.14884e-05
3.30592e-05
-7.51768e-05
4.1849e-05
5.35824e-05
-9.12238e-05
-1.42704e-06
1.31841e-05
-3.88443e-06
1.46096e-05
-7.24254e-06
1.76121e-05
-1.17819e-05
1.98646e-05
-1.75021e-05
2.27554e-05
-2.44624e-05
2.60482e-05
-3.27474e-05
3.04174e-05
-4.23539e-05
3.62484e-05
-5.34242e-05
4.41296e-05
-6.62381e-05
5.46629e-05
6.86413e-05
-8.1297e-05
-1.1365e-06
1.43206e-05
-3.35739e-06
1.68305e-05
-6.00335e-06
2.02581e-05
-9.59267e-06
2.34539e-05
-1.42536e-05
2.74164e-05
-2.0158e-05
3.19526e-05
-2.73177e-05
3.75771e-05
-3.58332e-05
4.47639e-05
-4.58349e-05
5.41313e-05
-5.75346e-05
6.63625e-05
8.24113e-05
-7.13045e-05
-1.0057e-06
1.53263e-05
-2.76853e-06
1.85933e-05
-4.99257e-06
2.24821e-05
-7.98828e-06
2.64496e-05
-1.18386e-05
3.12667e-05
-1.67464e-05
3.68604e-05
-2.28444e-05
4.36751e-05
-3.02506e-05
5.21701e-05
-3.91025e-05
6.29832e-05
-4.95761e-05
7.68361e-05
9.47264e-05
-6.18912e-05
-9.78822e-07
1.63051e-05
-2.53024e-06
2.01447e-05
-4.40809e-06
2.436e-05
-6.9011e-06
2.89426e-05
-1.01025e-05
3.4468e-05
-1.41888e-05
4.09468e-05
-1.93175e-05
4.88038e-05
-2.56348e-05
5.84874e-05
-3.32963e-05
7.06447e-05
-4.244e-05
8.59798e-05
0.000105618
-5.33313e-05
-8.66229e-07
1.71713e-05
-2.22184e-06
2.15003e-05
-3.84538e-06
2.59835e-05
-5.95061e-06
3.10478e-05
-8.61858e-06
3.7136e-05
-1.20219e-05
4.43501e-05
-1.63117e-05
5.30936e-05
-2.16438e-05
6.38195e-05
-2.81562e-05
7.71571e-05
-3.60776e-05
9.39013e-05
0.000115154
-4.56135e-05
-5.78228e-07
1.77495e-05
-1.64151e-06
2.25636e-05
-2.97633e-06
2.73183e-05
-4.72713e-06
3.27986e-05
-6.9492e-06
3.93581e-05
-9.78375e-06
4.71846e-05
-1.33722e-05
5.66821e-05
-1.78516e-05
6.82989e-05
-2.33931e-05
8.26985e-05
-3.01807e-05
0.000100689
0.000123395
-3.84221e-05
-3.43169e-07
1.80927e-05
-1.14994e-06
2.33704e-05
-2.19327e-06
2.83617e-05
-3.58883e-06
3.41942e-05
-5.38375e-06
4.1153e-05
-7.69234e-06
4.94932e-05
-1.06239e-05
5.96136e-05
-1.43149e-05
7.19899e-05
-1.89197e-05
8.73033e-05
-2.46334e-05
0.000106403
0.000130321
-3.1559e-05
-3.03327e-07
1.8396e-05
-9.56576e-07
2.40236e-05
-1.75665e-06
2.91617e-05
-2.82343e-06
3.5261e-05
-4.18512e-06
4.25147e-05
-5.95199e-06
5.12601e-05
-8.21928e-06
6.18809e-05
-1.11012e-05
7.48719e-05
-1.47425e-05
9.09446e-05
-1.92977e-05
0.000110958
0.000135948
-2.49254e-05
-1.68205e-07
1.85642e-05
-6.01564e-07
2.4457e-05
-1.14254e-06
2.97027e-05
-1.87752e-06
3.5996e-05
-2.82362e-06
4.34608e-05
-4.06944e-06
5.25059e-05
-5.69774e-06
6.35092e-05
-7.81344e-06
7.69876e-05
-1.04971e-05
9.36282e-05
-1.38936e-05
0.000114354
0.000140251
-1.81959e-05
1.50074e-07
1.84142e-05
4.06685e-08
2.45664e-05
-1.79037e-07
2.99224e-05
-5.5835e-07
3.63753e-05
-1.08086e-06
4.39833e-05
-1.81264e-06
5.32377e-05
-2.79864e-06
6.44952e-05
-4.12725e-06
7.83162e-05
-5.88219e-06
9.53832e-05
-8.16718e-06
0.000116639
0.000143243
-1.11596e-05
2.32797e-07
1.81814e-05
3.51865e-07
2.44473e-05
4.44232e-07
2.98301e-05
4.52777e-07
3.63667e-05
4.19518e-07
4.40166e-05
2.87975e-07
5.33692e-05
2.23105e-08
6.47608e-05
-4.2044e-07
7.87589e-05
-1.09841e-06
9.60611e-05
-2.12951e-06
0.00011767
0.000144643
-3.52938e-06
3.85102e-07
1.77963e-05
7.89795e-07
2.40426e-05
1.21971e-06
2.94001e-05
1.66884e-06
3.59176e-05
2.1589e-06
4.35265e-05
2.67035e-06
5.28578e-05
3.20281e-06
6.42284e-05
3.72236e-06
7.82394e-05
4.19127e-06
9.55922e-05
4.62143e-06
0.00011724
0.000144343
4.92097e-06
6.98804e-07
1.70975e-05
1.50467e-06
2.32368e-05
2.35789e-06
2.85469e-05
3.29518e-06
3.49803e-05
4.37634e-06
4.24453e-05
5.59834e-06
5.16358e-05
6.99332e-06
6.28334e-05
8.5713e-06
7.66614e-05
1.03528e-05
9.38107e-05
1.23318e-05
0.000115261
0.000142216
1.44587e-05
9.19132e-07
1.61783e-05
2.09292e-06
2.2063e-05
3.40651e-06
2.72333e-05
4.91682e-06
3.347e-05
6.67651e-06
4.06856e-05
8.73666e-06
4.95757e-05
1.11549e-05
6.04152e-05
1.39769e-05
7.38395e-05
1.72531e-05
9.05345e-05
2.10334e-05
0.000111481
0.000137803
2.54467e-05
1.17699e-06
1.50013e-05
2.77215e-06
2.04678e-05
4.60958e-06
2.53959e-05
6.76785e-06
3.13117e-05
9.31207e-06
3.81414e-05
1.23495e-05
4.65382e-05
1.59552e-05
5.68095e-05
2.02221e-05
6.95726e-05
2.52609e-05
8.54957e-05
3.12162e-05
0.000105526
0.000130826
3.81932e-05
1.48651e-06
1.35148e-05
3.55622e-06
1.83981e-05
5.98176e-06
2.29704e-05
8.89026e-06
2.84032e-05
1.23584e-05
3.46733e-05
1.65209e-05
4.23757e-05
2.14958e-05
5.18345e-05
2.7438e-05
6.36304e-05
3.45022e-05
7.84315e-05
4.29139e-05
9.71139e-05
0.000120801
5.29391e-05
1.83158e-06
1.16833e-05
4.38379e-06
1.58459e-05
7.46388e-06
1.98903e-05
1.12259e-05
2.46412e-05
1.57531e-05
3.01461e-05
2.12126e-05
3.69163e-05
2.77566e-05
4.52905e-05
3.5582e-05
5.5805e-05
4.49383e-05
6.90752e-05
5.61539e-05
8.58983e-05
0.000107301
6.96541e-05
2.09482e-06
9.58843e-06
5.13296e-06
1.28078e-05
8.93351e-06
1.60897e-05
1.36536e-05
1.99211e-05
1.93508e-05
2.44489e-05
2.62188e-05
3.00483e-05
3.44515e-05
3.70579e-05
4.43112e-05
4.59453e-05
5.61508e-05
5.72356e-05
7.04184e-05
7.16307e-05
9.00834e-05
8.76357e-05
2.28044e-06
7.30799e-06
5.93148e-06
9.15672e-06
1.0484e-05
1.15372e-05
1.60741e-05
1.4331e-05
2.28705e-05
1.76525e-05
3.10807e-05
2.18381e-05
4.0941e-05
2.71976e-05
5.28079e-05
3.40784e-05
6.7127e-05
4.29164e-05
8.44839e-05
5.42738e-05
6.89845e-05
0.000105583
9.12976e-08
7.21669e-06
4.84516e-06
4.40286e-06
1.07476e-05
5.63474e-06
1.75288e-05
7.54988e-06
2.55072e-05
9.67406e-06
3.49653e-05
1.23799e-05
4.62341e-05
1.59288e-05
5.97892e-05
2.05233e-05
7.624e-05
2.64656e-05
9.63085e-05
3.42052e-05
4.43557e-05
0.000120937
-4.00743e-06
2.08346e-05
-8.57357e-06
1.78734e-05
-1.66455e-05
2.09862e-05
-2.54089e-05
2.14363e-05
-3.4315e-05
2.16647e-05
-4.35014e-05
2.21214e-05
-5.32997e-05
2.28798e-05
-6.40819e-05
2.38342e-05
-7.6223e-05
2.48344e-05
-9.00819e-05
2.56576e-05
2.60356e-05
-0.000106063
3.4341e-06
1.74005e-05
3.88178e-06
1.74257e-05
-4.88985e-07
2.5357e-05
-7.44501e-06
2.83923e-05
-1.63272e-05
3.05469e-05
-2.6429e-05
3.22232e-05
-3.75395e-05
3.39903e-05
-4.98e-05
3.60947e-05
-6.35015e-05
3.85359e-05
-7.90396e-05
4.11956e-05
4.38344e-05
-9.68384e-05
2.61165e-06
1.47888e-05
2.7822e-06
1.72552e-05
1.09396e-06
2.70452e-05
-2.56138e-06
3.20477e-05
-8.91179e-06
3.68973e-05
-1.73759e-05
4.06873e-05
-2.75397e-05
4.41541e-05
-3.91911e-05
4.7746e-05
-5.24296e-05
5.17744e-05
-6.75211e-05
5.62872e-05
6.11988e-05
-8.48854e-05
1.50287e-06
1.3286e-05
7.72543e-07
1.79855e-05
-1.91765e-07
2.80095e-05
-2.32338e-06
3.41793e-05
-6.48954e-06
4.10635e-05
-1.26496e-05
4.68473e-05
-2.07937e-05
5.22983e-05
-3.07279e-05
5.76802e-05
-4.23699e-05
6.34165e-05
-5.58335e-05
6.97507e-05
7.67391e-05
-7.13738e-05
8.53943e-07
1.2432e-05
-2.98863e-07
1.91383e-05
-1.27533e-06
2.8986e-05
-3.00502e-06
3.5909e-05
-5.85613e-06
4.39146e-05
-1.01557e-05
5.11469e-05
-1.62109e-05
5.83535e-05
-2.40307e-05
6.55e-05
-3.35809e-05
7.29667e-05
-4.48857e-05
8.10555e-05
8.99191e-05
-5.80658e-05
4.97717e-07
1.19343e-05
-5.3851e-07
2.01745e-05
-1.45866e-06
2.99061e-05
-3.02452e-06
3.74748e-05
-5.16169e-06
4.60517e-05
-8.2596e-06
5.42448e-05
-1.26676e-05
6.27615e-05
-1.8556e-05
7.13884e-05
-2.60141e-05
8.04248e-05
-3.50557e-05
9.00971e-05
0.000100657
-4.57939e-05
3.35976e-07
1.15983e-05
-4.16658e-07
2.09271e-05
-1.14229e-06
3.06318e-05
-2.46548e-06
3.8798e-05
-4.1038e-06
4.76901e-05
-6.3742e-06
5.65152e-05
-9.55132e-06
6.59386e-05
-1.38504e-05
7.56875e-05
-1.94119e-05
8.59862e-05
-2.63174e-05
9.70026e-05
0.000108886
-3.45458e-05
1.68227e-07
1.14301e-05
-3.78495e-07
2.14739e-05
-9.03594e-07
3.11569e-05
-1.89727e-06
3.97917e-05
-3.04456e-06
4.88373e-05
-4.61421e-06
5.80848e-05
-6.77257e-06
6.8097e-05
-9.71249e-06
7.86274e-05
-1.35975e-05
8.98713e-05
-1.85555e-05
0.000101961
0.00011507
-2.47393e-05
8.3854e-08
1.13463e-05
-2.24918e-07
2.17826e-05
-5.17133e-07
3.14491e-05
-1.14885e-06
4.04234e-05
-1.81966e-06
4.95081e-05
-2.74152e-06
5.90067e-05
-4.00684e-06
6.93623e-05
-5.76937e-06
8.03899e-05
-8.15747e-06
9.22594e-05
-1.12566e-05
0.00010506
0.000119049
-1.5236e-05
6.06413e-08
1.12856e-05
-2.10889e-09
2.18454e-05
-9.60592e-09
3.14566e-05
-2.40762e-07
4.06546e-05
-4.28217e-07
4.96956e-05
-7.31846e-07
5.93103e-05
-1.16474e-06
6.97952e-05
-1.85829e-06
8.10835e-05
-2.88749e-06
9.32886e-05
-4.32858e-06
0.000106501
0.000120909
-6.18823e-06
2.16012e-07
1.10696e-05
4.61758e-07
2.15996e-05
7.82267e-07
3.11361e-05
9.93671e-07
4.04432e-05
1.29442e-06
4.93949e-05
1.59512e-06
5.90096e-05
1.92674e-06
6.94636e-05
2.21555e-06
8.07947e-05
2.41976e-06
9.30843e-05
2.50061e-06
0.00010642
0.000121035
2.3743e-06
2.51794e-07
1.08178e-05
7.27406e-07
2.1124e-05
1.39804e-06
3.04654e-05
2.04839e-06
3.97928e-05
2.87147e-06
4.85718e-05
3.81752e-06
5.80636e-05
4.95773e-06
6.83234e-05
6.24491e-06
7.95075e-05
7.69545e-06
9.16338e-05
9.29748e-06
0.000104818
0.000119298
1.10345e-05
3.26718e-07
1.04911e-05
1.05242e-06
2.03983e-05
2.05035e-06
2.94675e-05
3.2016e-06
3.86416e-05
4.58209e-06
4.71913e-05
6.19647e-06
5.64492e-05
8.14058e-06
6.63793e-05
1.04356e-05
7.72125e-05
1.3119e-05
8.89504e-05
1.62321e-05
0.000101705
0.000115609
1.99214e-05
5.22478e-07
9.96862e-06
1.54339e-06
1.93774e-05
2.93428e-06
2.80766e-05
4.59079e-06
3.69851e-05
6.53343e-06
4.52486e-05
8.8285e-06
5.41541e-05
1.15965e-05
6.36112e-05
1.48899e-05
7.39191e-05
1.88034e-05
8.50369e-05
2.3414e-05
9.70941e-05
0.000110097
2.89258e-05
6.20669e-07
9.34795e-06
1.87631e-06
1.81218e-05
3.64295e-06
2.631e-05
5.82087e-06
3.48072e-05
8.36742e-06
4.27021e-05
1.14049e-05
5.11166e-05
1.50541e-05
5.99621e-05
1.94265e-05
6.95467e-05
2.46317e-05
7.98317e-05
3.07989e-05
9.09269e-05
0.000102819
3.8077e-05
7.53589e-07
8.59436e-06
2.25163e-06
1.66237e-05
4.40118e-06
2.41604e-05
7.11225e-06
3.20961e-05
1.03089e-05
3.95054e-05
1.41251e-05
4.73004e-05
1.87049e-05
5.53823e-05
2.41965e-05
6.40551e-05
3.07537e-05
7.32745e-05
3.8532e-05
8.31486e-05
9.34898e-05
4.7861e-05
9.23184e-07
7.67117e-06
2.6797e-06
1.48672e-05
5.21658e-06
2.16235e-05
8.47466e-06
2.8838e-05
1.23462e-05
3.56339e-05
1.69952e-05
4.26514e-05
2.25643e-05
4.98133e-05
2.92446e-05
5.73747e-05
3.71867e-05
6.53324e-05
4.66155e-05
7.37198e-05
8.22478e-05
5.78575e-05
1.08518e-06
6.58599e-06
3.07005e-06
1.28823e-05
5.97873e-06
1.87149e-05
9.77661e-06
2.50401e-05
1.43559e-05
3.10546e-05
1.98914e-05
3.71159e-05
2.65283e-05
4.31764e-05
3.44554e-05
4.94476e-05
4.38568e-05
5.5931e-05
5.49478e-05
6.26288e-05
6.91494e-05
6.80462e-05
1.23964e-06
5.34635e-06
3.4193e-06
1.07027e-05
6.64967e-06
1.54845e-05
1.09518e-05
2.0738e-05
1.62553e-05
2.57511e-05
2.27232e-05
3.06481e-05
3.04871e-05
3.54124e-05
3.97268e-05
4.02079e-05
5.06114e-05
4.50464e-05
6.34023e-05
4.98378e-05
5.4104e-05
7.84478e-05
1.37985e-06
3.9665e-06
3.69032e-06
8.3922e-06
7.15114e-06
1.20237e-05
1.18804e-05
1.60087e-05
1.78804e-05
1.9751e-05
2.52888e-05
2.32397e-05
3.41878e-05
2.65134e-05
4.47113e-05
2.96845e-05
5.70499e-05
3.27078e-05
7.14878e-05
3.53999e-05
3.71789e-05
8.84129e-05
1.4765e-06
2.49001e-06
3.75628e-06
6.11242e-06
7.29715e-06
8.48282e-06
1.23464e-05
1.09595e-05
1.89609e-05
1.31365e-05
2.71942e-05
1.50064e-05
3.70866e-05
1.66209e-05
4.87082e-05
1.80629e-05
6.22937e-05
1.91223e-05
7.81358e-05
1.95579e-05
1.86564e-05
9.66583e-05
1.13952e-06
1.35048e-06
3.2869e-06
3.96504e-06
6.78656e-06
4.98316e-06
1.20475e-05
5.69857e-06
1.89904e-05
6.19366e-06
2.75838e-05
6.413e-06
3.78436e-05
6.36117e-06
4.99357e-05
5.9708e-06
6.41683e-05
4.88969e-06
8.08121e-05
2.91408e-06
-1.00043e-06
0.000100469
-1.03355e-08
1.36082e-06
2.4498e-06
1.5049e-06
6.53886e-06
8.94103e-07
1.21352e-05
1.02227e-07
1.95196e-05
-1.19074e-06
2.86309e-05
-2.6983e-06
3.95853e-05
-4.59319e-06
5.2751e-05
-7.1949e-06
6.83914e-05
-1.07507e-05
8.70092e-05
-1.57037e-05
-2.25295e-05
0.000108538
8.57751e-06
1.44853e-05
2.10141e-05
2.86662e-05
3.71495e-05
4.68312e-05
5.81667e-05
7.14952e-05
8.721e-05
0.000105712
0.000127538
-3.88153e-06
1.7081e-05
-1.31995e-05
-7.65526e-06
1.59075e-05
-1.21338e-05
-1.332e-05
1.88552e-05
-1.31905e-05
-1.95425e-05
2.08735e-05
-1.4651e-05
-2.58998e-05
2.30425e-05
-1.66852e-05
-3.24841e-05
2.60139e-05
-1.94296e-05
-3.95676e-05
2.99946e-05
-2.29112e-05
-4.74408e-05
3.52541e-05
-2.73808e-05
-5.64132e-05
4.21148e-05
-3.31424e-05
-6.68133e-05
5.10224e-05
-4.06223e-05
6.26137e-05
-5.03736e-05
-7.90534e-05
2.79688e-06
1.42841e-05
3.36919e-06
1.53352e-05
7.75556e-07
2.14488e-05
-3.62426e-06
2.52733e-05
-9.39429e-06
2.88125e-05
-1.60986e-05
3.27182e-05
-2.36132e-05
3.75092e-05
-3.20547e-05
4.36955e-05
-4.16864e-05
5.17466e-05
-5.28526e-05
6.21886e-05
7.57066e-05
-6.59454e-05
2.43803e-06
1.18461e-05
3.1759e-06
1.45973e-05
2.83451e-06
2.17902e-05
1.09938e-06
2.70085e-05
-2.4873e-06
3.23992e-05
-7.58378e-06
3.78147e-05
-1.39181e-05
4.38436e-05
-2.138e-05
5.11574e-05
-3.00309e-05
6.03975e-05
-4.00821e-05
7.22398e-05
8.74755e-05
-5.18511e-05
1.75026e-06
1.00958e-05
2.08372e-06
1.42639e-05
2.41335e-06
2.14606e-05
1.91131e-06
2.75105e-05
6.38998e-08
3.42466e-05
-3.14604e-06
4.10247e-05
-7.68958e-06
4.83871e-05
-1.34656e-05
5.69334e-05
-2.04299e-05
6.73618e-05
-2.86299e-05
8.04397e-05
9.69877e-05
-3.81421e-05
1.38623e-06
8.70958e-06
1.72348e-06
1.39266e-05
2.1813e-06
2.10028e-05
2.09181e-06
2.76e-05
1.23229e-06
3.51061e-05
-5.86075e-07
4.2843e-05
-3.50422e-06
5.13052e-05
-7.55518e-06
6.09844e-05
-1.2712e-05
7.25186e-05
-1.89771e-05
8.67049e-05
0.000104421
-2.64109e-05
1.26531e-06
7.44428e-06
1.88878e-06
1.33031e-05
2.57118e-06
2.03204e-05
2.7658e-06
2.74054e-05
2.46611e-06
3.54058e-05
1.50707e-06
4.38021e-05
-2.56362e-07
5.30687e-05
-2.90426e-06
6.36323e-05
-6.49778e-06
7.61121e-05
-1.10433e-05
9.12505e-05
0.00010994
-1.65616e-05
1.18488e-06
6.2594e-06
2.09665e-06
1.23914e-05
3.03455e-06
1.93825e-05
3.55965e-06
2.68803e-05
3.7048e-06
3.52606e-05
3.35219e-06
4.41547e-05
2.41252e-06
5.40083e-05
8.10617e-07
6.52342e-05
-1.51534e-06
7.84381e-05
-4.62135e-06
9.43565e-05
0.000113839
-8.52036e-06
1.05563e-06
5.20377e-06
2.17362e-06
1.12734e-05
3.30443e-06
1.82516e-05
4.13557e-06
2.60492e-05
4.6813e-06
3.47149e-05
4.83104e-06
4.40049e-05
4.55293e-06
5.42865e-05
3.79174e-06
6.59954e-05
2.49754e-06
7.97323e-05
6.28724e-07
9.62253e-05
0.000116317
-1.84991e-06
1.03338e-06
4.17039e-06
2.29243e-06
1.00143e-05
3.60831e-06
1.69358e-05
4.72634e-06
2.49311e-05
5.62375e-06
3.38175e-05
6.21293e-06
4.34158e-05
6.47737e-06
5.4022e-05
6.39671e-06
6.6076e-05
5.94727e-06
8.01817e-05
5.08186e-06
9.70907e-05
0.000117613
3.78592e-06
1.0931e-06
3.07729e-06
2.5329e-06
8.57452e-06
4.05997e-06
1.54087e-05
5.49391e-06
2.34972e-05
6.75372e-06
3.25577e-05
7.74438e-06
4.24251e-05
8.47593e-06
5.32905e-05
8.94953e-06
6.56024e-05
9.16718e-06
7.99641e-05
9.10152e-06
9.71564e-05
0.00011805
8.66492e-06
1.07252e-06
2.00477e-06
2.57076e-06
7.07629e-06
4.3003e-06
1.36792e-05
6.04368e-06
2.17538e-05
7.66701e-06
3.09344e-05
9.0865e-06
4.10056e-05
1.02873e-05
5.20896e-05
1.13006e-05
6.45892e-05
1.21445e-05
7.91201e-05
1.28306e-05
9.64703e-05
0.000117521
1.3359e-05
9.40177e-07
1.06459e-06
2.36865e-06
5.64781e-06
4.17292e-06
1.18749e-05
6.14424e-06
1.97825e-05
8.12293e-06
2.89557e-05
9.99065e-06
3.91379e-05
1.17127e-05
5.03675e-05
1.33161e-05
6.29857e-05
1.48395e-05
7.75968e-05
1.63159e-05
9.49938e-05
0.00011607
1.77671e-05
7.17131e-07
3.47459e-07
2.01266e-06
4.35228e-06
3.88398e-06
1.00036e-05
6.09223e-06
1.75742e-05
8.43593e-06
2.6612e-05
1.07795e-05
3.67944e-05
1.30582e-05
4.80888e-05
1.52811e-05
6.07629e-05
1.74995e-05
7.53784e-05
1.97718e-05
9.27215e-05
0.000113757
2.20846e-05
4.76981e-07
-1.29522e-07
1.6149e-06
3.21436e-06
3.52056e-06
8.0979e-06
5.95534e-06
1.51395e-05
8.68092e-06
2.38864e-05
1.15216e-05
3.39537e-05
1.43919e-05
4.52185e-05
1.72792e-05
5.78755e-05
2.02347e-05
7.24229e-05
2.33338e-05
8.96225e-05
0.000110431
2.66597e-05
2.20891e-07
-3.50413e-07
1.11221e-06
2.32305e-06
2.89713e-06
6.31298e-06
5.43218e-06
1.26044e-05
8.46885e-06
2.08497e-05
1.17994e-05
3.06231e-05
1.53063e-05
4.17116e-05
1.89551e-05
5.42268e-05
2.27923e-05
6.85857e-05
2.69073e-05
8.55076e-05
0.000105958
3.13808e-05
9.20714e-08
-4.42484e-07
7.57019e-07
1.6581e-06
2.31827e-06
4.75174e-06
4.82749e-06
1.00952e-05
8.08651e-06
1.75907e-05
1.18664e-05
2.68433e-05
1.60172e-05
3.75607e-05
2.04867e-05
4.97574e-05
2.53121e-05
6.37602e-05
3.05864e-05
8.02333e-05
0.000100111
3.6433e-05
7.25998e-08
-5.15084e-07
5.85104e-07
1.1456e-06
1.88705e-06
3.44979e-06
4.23485e-06
7.74737e-06
7.58584e-06
1.42397e-05
1.17336e-05
2.26955e-05
1.6509e-05
3.27853e-05
2.18422e-05
4.44242e-05
2.77496e-05
5.78528e-05
3.43161e-05
7.36667e-05
9.27441e-05
4.16832e-05
6.36965e-08
-5.78781e-07
4.5474e-07
7.54553e-07
1.48572e-06
2.41881e-06
3.53091e-06
5.70218e-06
6.75794e-06
1.10127e-05
1.10985e-05
1.8355e-05
1.64151e-05
2.74686e-05
2.26312e-05
3.82081e-05
2.97445e-05
5.07395e-05
3.78409e-05
6.55703e-05
8.35118e-05
4.70733e-05
4.74449e-08
-6.26226e-07
3.40617e-07
4.61381e-07
1.11992e-06
1.6395e-06
2.77799e-06
4.04411e-06
5.67485e-06
8.11582e-06
9.97518e-06
1.40547e-05
1.567e-05
2.17738e-05
2.26982e-05
3.11799e-05
3.10427e-05
4.2395e-05
4.077e-05
5.5843e-05
7.21697e-05
5.21121e-05
1.64627e-08
-6.42688e-07
1.85579e-07
2.92264e-07
6.79055e-07
1.14603e-06
1.8837e-06
2.83947e-06
4.29556e-06
5.70396e-06
8.31226e-06
1.0038e-05
1.41141e-05
1.5972e-05
2.17225e-05
2.35715e-05
3.11255e-05
3.2992e-05
4.24008e-05
4.45677e-05
5.8742e-05
5.58285e-05
-5.33355e-08
-5.89353e-07
-1.4665e-07
3.85579e-07
-4.689e-08
1.04627e-06
6.68611e-07
2.12397e-06
2.55446e-06
3.81811e-06
6.09743e-06
6.495e-06
1.1654e-05
1.04154e-05
1.93759e-05
1.58496e-05
2.93213e-05
2.30467e-05
4.16078e-05
3.22812e-05
4.39169e-05
5.6433e-05
-6.52475e-07
6.31226e-08
-1.05935e-06
7.92459e-07
-1.20232e-06
1.18923e-06
-7.47919e-07
1.66957e-06
7.39379e-07
2.33081e-06
3.72242e-06
3.51196e-06
8.59454e-06
5.54327e-06
1.56703e-05
8.77376e-06
2.51875e-05
1.35295e-05
3.74387e-05
2.00299e-05
2.81565e-05
5.31991e-05
-9.23112e-07
9.86235e-07
-1.16236e-06
1.0317e-06
-9.18285e-07
9.45158e-07
-1.56121e-07
9.07405e-07
1.23164e-06
9.43049e-07
3.5189e-06
1.2247e-06
7.1187e-06
1.94347e-06
1.25017e-05
3.39081e-06
2.00737e-05
5.95754e-06
3.01573e-05
9.94624e-06
1.5795e-05
4.25189e-05
1.95773e-06
-9.71498e-07
4.26281e-06
-1.27338e-06
6.547e-06
-1.33903e-06
8.7966e-06
-1.3422e-06
1.10295e-05
-1.28989e-06
1.33129e-05
-1.05868e-06
1.58578e-05
-6.01462e-07
1.92182e-05
3.05018e-08
2.42726e-05
9.0306e-07
3.19798e-05
2.23911e-06
4.59666e-06
4.31781e-05
-1.26583e-05
-5.41133e-07
-2.16326e-05
-3.15951e-06
-2.88075e-05
-6.01558e-06
-3.49387e-05
-8.51972e-06
-4.07262e-05
-1.08978e-05
-4.67342e-05
-1.34216e-05
-5.32751e-05
-1.63702e-05
-6.06753e-05
-1.99806e-05
-6.92113e-05
-2.46064e-05
-7.91506e-05
-3.06831e-05
-3.87889e-05
-9.07353e-05
-6.68359e-06
6.14246e-06
-1.29111e-05
3.06801e-06
-2.02612e-05
1.33454e-06
-2.7524e-05
-1.25695e-06
-3.45858e-05
-3.83597e-06
-4.18059e-05
-6.20153e-06
-4.96141e-05
-8.56198e-06
-5.84156e-05
-1.11791e-05
-6.85414e-05
-1.44806e-05
-8.03294e-05
-1.88951e-05
-2.49265e-05
-9.41917e-05
-2.50271e-06
8.64517e-06
-6.44255e-06
7.00786e-06
-1.22148e-05
7.10683e-06
-1.91348e-05
5.663e-06
-2.69693e-05
3.99856e-06
-3.52747e-05
2.10388e-06
-4.41508e-05
3.14136e-07
-5.38704e-05
-1.45952e-06
-6.49014e-05
-3.44961e-06
-7.76801e-05
-6.11638e-06
-1.00091e-05
-9.25975e-05
-1.60383e-06
1.0249e-05
-4.3663e-06
9.77033e-06
-8.47662e-06
1.12172e-05
-1.39473e-05
1.11337e-05
-2.07004e-05
1.07517e-05
-2.86877e-05
1.00912e-05
-3.77616e-05
9.38796e-06
-4.79054e-05
8.68434e-06
-5.93535e-05
7.9985e-06
-7.24552e-05
6.98529e-06
5.20991e-06
-8.76742e-05
-1.40491e-06
1.16539e-05
-3.83048e-06
1.21959e-05
-7.09769e-06
1.44844e-05
-1.14405e-05
1.54764e-05
-1.71211e-05
1.64323e-05
-2.40499e-05
1.702e-05
-3.22782e-05
1.76162e-05
-4.18285e-05
1.82347e-05
-5.27941e-05
1.8964e-05
-6.54302e-05
1.96214e-05
1.98833e-05
-8.01036e-05
-1.24794e-06
1.29018e-05
-3.43553e-06
1.43835e-05
-6.16494e-06
1.72138e-05
-9.72474e-06
1.90362e-05
-1.4416e-05
2.11236e-05
-2.0382e-05
2.2986e-05
-2.7575e-05
2.48093e-05
-3.6173e-05
2.68327e-05
-4.62169e-05
2.90079e-05
-5.79035e-05
3.1308e-05
3.34762e-05
-7.14963e-05
-1.06918e-06
1.3971e-05
-3.01217e-06
1.63265e-05
-5.35631e-06
1.95579e-05
-8.34176e-06
2.20217e-05
-1.22808e-05
2.50626e-05
-1.72678e-05
2.7973e-05
-2.34927e-05
3.10342e-05
-3.09913e-05
3.43313e-05
-3.98845e-05
3.79011e-05
-5.03714e-05
4.17949e-05
4.57961e-05
-6.26913e-05
-9.99368e-07
1.49704e-05
-2.68889e-06
1.8016e-05
-4.71621e-06
2.15852e-05
-7.27643e-06
2.45819e-05
-1.05437e-05
2.83299e-05
-1.46926e-05
3.21219e-05
-1.9903e-05
3.62446e-05
-2.62765e-05
4.07048e-05
-3.39504e-05
4.5575e-05
-4.30119e-05
5.08564e-05
5.64287e-05
-5.36446e-05
-8.68186e-07
1.58386e-05
-2.39638e-06
1.95442e-05
-3.93898e-06
2.31278e-05
-6.16347e-06
2.68064e-05
-8.87458e-06
3.1041e-05
-1.23035e-05
3.55508e-05
-1.65972e-05
4.05383e-05
-2.18961e-05
4.60037e-05
-2.83342e-05
5.20132e-05
-3.60706e-05
5.85928e-05
6.56849e-05
-4.53269e-05
-6.951e-07
1.65337e-05
-1.91729e-06
2.07664e-05
-3.28637e-06
2.44969e-05
-5.03858e-06
2.85586e-05
-7.20274e-06
3.32052e-05
-9.95042e-06
3.82985e-05
-1.33978e-05
4.39857e-05
-1.76656e-05
5.02716e-05
-2.2895e-05
5.72426e-05
-2.92316e-05
6.49294e-05
7.32274e-05
-3.67741e-05
-4.89238e-07
1.70229e-05
-1.33391e-06
2.1611e-05
-2.33423e-06
2.54972e-05
-3.68867e-06
2.99131e-05
-5.34486e-06
3.48614e-05
-7.45674e-06
4.04103e-05
-1.01012e-05
4.66301e-05
-1.33954e-05
5.35658e-05
-1.74432e-05
6.12904e-05
-2.23632e-05
6.98493e-05
7.91566e-05
-2.82924e-05
-2.98488e-07
1.73214e-05
-8.9345e-07
2.2206e-05
-1.55983e-06
2.61636e-05
-2.47855e-06
3.08318e-05
-3.60529e-06
3.59881e-05
-5.06061e-06
4.18657e-05
-6.89549e-06
4.8465e-05
-9.19051e-06
5.58608e-05
-1.20313e-05
6.41312e-05
-1.55063e-05
7.33244e-05
8.33298e-05
-1.96795e-05
-7.56397e-08
1.7397e-05
-3.74453e-07
2.25048e-05
-7.03097e-07
2.64923e-05
-1.18124e-06
3.13099e-05
-1.77781e-06
3.65847e-05
-2.57244e-06
4.26603e-05
-3.59087e-06
4.94834e-05
-4.89167e-06
5.71616e-05
-6.51047e-06
6.575e-05
-8.51759e-06
7.53315e-05
8.57906e-05
-1.09785e-05
2.35153e-07
1.71619e-05
2.99782e-07
2.24402e-05
3.44159e-07
2.64479e-05
3.13496e-07
3.13406e-05
2.59778e-07
3.66384e-05
1.24523e-07
4.27955e-05
-8.31995e-08
4.96912e-05
-3.86284e-07
5.74647e-05
-7.89243e-07
6.61529e-05
-1.28718e-06
7.58294e-05
8.64091e-05
-1.90563e-06
4.3706e-07
1.67248e-05
8.17698e-07
2.20596e-05
1.2532e-06
2.60124e-05
1.70597e-06
3.08878e-05
2.22153e-06
3.61228e-05
2.79477e-06
4.22223e-05
3.44245e-06
4.90435e-05
4.18721e-06
5.67199e-05
5.05901e-06
6.52811e-05
6.11785e-06
7.47706e-05
8.50932e-05
7.43373e-06
6.68479e-07
1.60563e-05
1.40521e-06
2.13228e-05
2.24218e-06
2.51754e-05
3.19618e-06
2.99338e-05
4.3095e-06
3.50095e-05
5.61679e-06
4.0915e-05
7.15516e-06
4.75051e-05
8.97335e-06
5.49017e-05
1.11433e-05
6.31112e-05
1.37652e-05
7.21488e-05
8.19168e-05
1.69415e-05
9.51725e-07
1.51046e-05
2.07191e-06
2.02026e-05
3.34735e-06
2.39e-05
4.83892e-06
2.84422e-05
6.58129e-06
3.32671e-05
8.65129e-06
3.8845e-05
1.11121e-05
4.50443e-05
1.40416e-05
5.19722e-05
1.75326e-05
5.96201e-05
2.17139e-05
6.79675e-05
7.68851e-05
2.67457e-05
1.22615e-06
1.38785e-05
2.74834e-06
1.86804e-05
4.49234e-06
2.2156e-05
6.55741e-06
2.63772e-05
8.97196e-06
3.08526e-05
1.18626e-05
3.59544e-05
1.52948e-05
4.16121e-05
1.93805e-05
4.78865e-05
2.42395e-05
5.47611e-05
3.00164e-05
6.21906e-05
7.00077e-05
3.68938e-05
1.50706e-06
1.23714e-05
3.43787e-06
1.67496e-05
5.68645e-06
1.99074e-05
8.36019e-06
2.37034e-05
1.15089e-05
2.77039e-05
1.52643e-05
3.2199e-05
1.97262e-05
3.71502e-05
2.50239e-05
4.25888e-05
3.12902e-05
4.84948e-05
3.8701e-05
5.47797e-05
6.1272e-05
4.74368e-05
1.80922e-06
1.05622e-05
4.17127e-06
1.43876e-05
6.94299e-06
1.71357e-05
1.02696e-05
2.03769e-05
1.41939e-05
2.37795e-05
1.88622e-05
2.75307e-05
2.43946e-05
3.16179e-05
3.09274e-05
3.6056e-05
3.86294e-05
4.07928e-05
4.76765e-05
4.57326e-05
5.06579e-05
5.82906e-05
2.12173e-06
8.44047e-06
4.89646e-06
1.16129e-05
8.21231e-06
1.38198e-05
1.22125e-05
1.63767e-05
1.6939e-05
1.90531e-05
2.25402e-05
2.19294e-05
2.91404e-05
2.50176e-05
3.69051e-05
2.82913e-05
4.60161e-05
3.16819e-05
5.66993e-05
3.50494e-05
3.81592e-05
6.91979e-05
2.37426e-06
6.06621e-06
5.54774e-06
8.43938e-06
9.3876e-06
9.97996e-06
1.40335e-05
1.17308e-05
1.95298e-05
1.35567e-05
2.6004e-05
1.54553e-05
3.36023e-05
1.74193e-05
4.24989e-05
1.93947e-05
5.29089e-05
2.12719e-05
6.5086e-05
2.28724e-05
2.39252e-05
7.932e-05
2.84456e-06
3.22165e-06
6.35843e-06
4.92551e-06
1.05885e-05
5.74984e-06
1.56897e-05
6.62967e-06
2.17263e-05
7.52011e-06
2.8822e-05
8.35957e-06
3.71454e-05
9.09592e-06
4.68819e-05
9.65818e-06
5.82666e-05
9.88717e-06
7.15551e-05
9.58388e-06
8.77228e-06
8.6708e-05
2.25015e-06
5.90228e-06
1.03131e-05
1.56006e-05
2.18308e-05
2.91317e-05
3.76261e-05
4.73148e-05
5.8105e-05
6.9928e-05
8.3297e-05
2.34547e-07
2.95128e-06
-3.18582e-06
4.03142e-07
2.99328e-06
-3.16187e-06
-2.84241e-08
3.59031e-06
-3.15874e-06
-8.76116e-07
3.8937e-06
-3.04601e-06
-2.10795e-06
4.09238e-06
-2.86054e-06
-3.68828e-06
4.32898e-06
-2.74865e-06
-5.61522e-06
4.79344e-06
-2.86649e-06
-7.94168e-06
5.69856e-06
-3.3721e-06
-1.07295e-05
7.31251e-06
-4.52465e-06
-1.40773e-05
1.00016e-05
-6.65381e-06
1.42752e-05
-1.01942e-05
-1.81583e-05
2.64096e-07
2.68718e-06
4.14334e-07
2.84304e-06
2.56916e-07
3.74772e-06
-2.648e-07
4.41541e-06
-1.212e-06
5.03958e-06
-2.57927e-06
5.69624e-06
-4.34875e-06
6.56292e-06
-6.54214e-06
7.89195e-06
-9.23084e-06
1.00012e-05
-1.25326e-05
1.33034e-05
1.83489e-05
-1.66063e-05
5.41768e-08
2.633e-06
1.84275e-08
2.87879e-06
-8.91375e-08
3.85529e-06
-3.94556e-07
4.72083e-06
-1.02083e-06
5.66585e-06
-2.04029e-06
6.71571e-06
-3.48704e-06
8.00967e-06
-5.38608e-06
9.79099e-06
-7.78865e-06
1.24038e-05
-1.0784e-05
1.62987e-05
2.21029e-05
-1.4538e-05
-6.85344e-08
2.70154e-06
-2.26968e-07
3.03722e-06
-3.87067e-07
4.01539e-06
-6.35841e-07
4.96961e-06
-1.07823e-06
6.10823e-06
-1.81813e-06
7.45561e-06
-2.93363e-06
9.12517e-06
-4.47893e-06
1.13363e-05
-6.50532e-06
1.44302e-05
-9.07627e-06
1.88696e-05
2.52915e-05
-1.22649e-05
-1.12935e-07
2.81447e-06
-3.05926e-07
3.23022e-06
-5.08886e-07
4.21835e-06
-7.55566e-07
5.21629e-06
-1.11829e-06
6.47095e-06
-1.68595e-06
8.02327e-06
-2.54889e-06
9.9881e-06
-3.78333e-06
1.25707e-05
-5.44846e-06
1.60953e-05
-7.60013e-06
2.10213e-05
2.79952e-05
-1.03039e-05
-8.58339e-08
2.90031e-06
-2.59674e-07
3.40406e-06
-4.68472e-07
4.42715e-06
-7.08391e-07
5.45621e-06
-1.03373e-06
6.79629e-06
-1.50785e-06
8.49739e-06
-2.20866e-06
1.06889e-05
-3.21819e-06
1.35803e-05
-4.60303e-06
1.74801e-05
-6.42203e-06
2.28403e-05
3.03105e-05
-8.73735e-06
-2.75204e-08
2.92783e-06
-2.06317e-07
3.58285e-06
-3.94471e-07
4.6153e-06
-6.10875e-07
5.67261e-06
-9.062e-07
7.09162e-06
-1.32102e-06
8.91221e-06
-1.9209e-06
1.12888e-05
-2.77652e-06
1.44359e-05
-3.95876e-06
1.86624e-05
-5.53227e-06
2.44138e-05
3.23349e-05
-7.55661e-06
-8.30105e-08
3.01084e-06
-2.4934e-07
3.74918e-06
-3.633e-07
4.72926e-06
-5.56231e-07
5.86554e-06
-8.22092e-07
7.35748e-06
-1.19239e-06
9.28251e-06
-1.71827e-06
1.18147e-05
-2.46321e-06
1.51808e-05
-3.4927e-06
1.96919e-05
-4.86887e-06
2.579e-05
3.41085e-05
-6.64254e-06
-7.32923e-08
3.08413e-06
-1.76508e-07
3.8524e-06
-3.08167e-07
4.86092e-06
-4.96474e-07
6.05385e-06
-7.39171e-07
7.60017e-06
-1.07441e-06
9.61775e-06
-1.54824e-06
1.22885e-05
-2.21458e-06
1.58472e-05
-3.13393e-06
2.06112e-05
-4.37371e-06
2.70298e-05
3.57448e-05
-6.01e-06
-3.00395e-08
3.11417e-06
-1.12199e-07
3.93456e-06
-2.21831e-07
4.97055e-06
-3.79224e-07
6.21124e-06
-5.95823e-07
7.81677e-06
-9.02266e-07
9.9242e-06
-1.33811e-06
1.27244e-05
-1.95148e-06
1.64605e-05
-2.80229e-06
2.1462e-05
-3.95815e-06
2.81856e-05
3.72766e-05
-5.4899e-06
4.54026e-09
3.10963e-06
-5.59618e-08
3.99506e-06
-1.42309e-07
5.0569e-06
-2.74e-07
6.34293e-06
-4.64831e-07
8.0076e-06
-7.42344e-07
1.02017e-05
-1.14176e-06
1.31238e-05
-1.70964e-06
1.70284e-05
-2.50435e-06
2.22567e-05
-3.58788e-06
2.92692e-05
3.87378e-05
-5.0491e-06
2.1644e-09
3.10746e-06
-5.33848e-08
4.05061e-06
-1.24385e-07
5.1279e-06
-2.34556e-07
6.4531e-06
-3.9988e-07
8.17293e-06
-6.44037e-07
1.04459e-05
-9.99812e-07
1.34795e-05
-1.51293e-06
1.75415e-05
-2.23757e-06
2.29814e-05
-3.24729e-06
3.02789e-05
4.01169e-05
-4.6264e-06
1.36428e-08
3.09382e-06
-2.69354e-08
4.09119e-06
-7.71913e-08
5.17815e-06
-1.63695e-07