/*--------------------------------*- C++ -*----------------------------------*\
| =========                 |                                                 |
| \\      /  F ield         | OpenFOAM: The Open Source CFD Toolbox           |
|  \\    /   O peration     | Version:  3.0.1                                 |
|   \\  /    A nd           | Web:      www.OpenFOAM.org                      |
|    \\/     M anipulation  |                                                 |
\*---------------------------------------------------------------------------*/
FoamFile
{
    version     2.0;
    format      ascii;
    class       volScalarField;
    location    "0.0301833";
    object      nut;
}
// * * * * * * * * * * * * * * * * * * * * * * * * * * * * * * * * * * * * * //

dimensions      [0 2 -1 0 0 0 0];

internalField   nonuniform List<scalar> 
21246
(
6.01149e-05
0.000366407
0.0005012
0.000558587
0.00058323
0.000599296
0.000611738
0.000615312
0.000601625
0.000562816
0.000499199
4.08244e-05
0.000301369
0.000477573
0.000556884
0.000586136
0.000597807
0.000602881
0.000600842
0.000585857
0.000549607
0.000489969
3.31798e-05
0.000264895
0.000450363
0.000552985
0.000592616
0.000604951
0.000606877
0.000600821
0.000583257
0.000547223
0.000489001
3.1468e-05
0.000234546
0.00042681
0.000548586
0.000599885
0.000614819
0.00061665
0.000609413
0.000589526
0.000551202
0.000493012
3.13202e-05
0.00020618
0.000385274
0.000518197
0.000585468
0.000607142
0.000606156
0.000593109
0.000569626
0.000533851
0.000478138
3.1887e-05
0.0001943
0.000360729
0.000486116
0.000555918
0.000584699
0.000589892
0.000583561
0.000567868
0.000539139
0.000490119
3.27069e-05
0.000184785
0.0003415
0.000458755
0.000526601
0.00055822
0.000569801
0.000570943
0.000561161
0.00053508
0.000485778
3.37331e-05
0.000177384
0.000325685
0.000435085
0.000499509
0.000532077
0.000547986
0.000555039
0.000551336
0.00053167
0.000490076
3.4679e-05
0.000171024
0.000312271
0.00041487
0.000475677
0.000508278
0.000527333
0.000539487
0.000541561
0.000526642
0.000485988
3.53644e-05
0.000164478
0.000299935
0.000397355
0.000455351
0.000487923
0.000509412
0.000525621
0.000531935
0.000518985
0.000475773
3.59364e-05
0.000157981
0.00028856
0.000382098
0.000438156
0.000470913
0.000494435
0.000513829
0.000523309
0.000512825
0.000475373
3.64063e-05
0.000152251
0.000278629
0.000368995
0.000423663
0.000456824
0.000482219
0.000504398
0.000516742
0.000508763
0.000473249
3.66262e-05
0.000146656
0.000269563
0.000357604
0.000411556
0.000445467
0.000472769
0.000497639
0.00051279
0.000506768
0.00047023
3.66096e-05
0.000140444
0.000260496
0.000347319
0.000401465
0.000436626
0.000466004
0.000493578
0.000511406
0.000507083
0.000472447
3.63087e-05
0.000134281
0.000251788
0.000338016
0.000392988
0.000429856
0.000461544
0.000491957
0.00051249
0.000509377
0.000472385
3.569e-05
0.000127721
0.000242976
0.000329269
0.000385795
0.000424917
0.000459236
0.000492726
0.000516203
0.000514343
0.000475751
3.48087e-05
0.000119655
0.000232957
0.000320216
0.000379269
0.00042138
0.000458751
0.000495685
0.000522642
0.000522441
0.000482575
3.34747e-05
0.000109424
0.000219134
0.000307832
0.00037022
0.000416015
0.000457092
0.000498717
0.00053053
0.0005334
0.000493145
3.16602e-05
9.70971e-05
0.000201044
0.000290664
0.000356087
0.000404182
0.000445442
0.00048646
0.000520397
0.000528105
0.000494799
2.93261e-05
8.27416e-05
0.000177848
0.000267283
0.000335635
0.000385301
0.000423983
0.000458636
0.000486958
0.000495049
0.000472405
2.63913e-05
6.69538e-05
0.000149635
0.000236492
0.000307335
0.000358613
0.000393957
0.000419195
0.000435751
0.000437134
0.000419884
2.28107e-05
5.15774e-05
0.000118967
0.000198861
0.000270253
0.000323122
0.000356363
0.000373666
0.000378329
0.000369824
0.000349562
1.83867e-05
3.66744e-05
8.73194e-05
0.000157338
0.000225245
0.000277539
0.000309801
0.00032351
0.000322037
0.000307793
0.000284212
1.30398e-05
3.62806e-05
7.95796e-05
0.000127958
0.000174839
0.00021405
0.000240775
0.000253587
0.000253501
0.000242431
0.00022333
5.43238e-05
0.000222038
0.000308413
0.000400201
0.000525465
0.000605341
0.000654673
0.00067128
0.00065005
0.000604887
0.000536629
3.79345e-05
0.000119345
0.000192262
0.000257018
0.000319479
0.000372622
0.000477047
0.000674709
0.000713834
0.000658974
0.00057481
3.09754e-05
8.2239e-05
0.00014197
0.000195052
0.000242289
0.000279403
0.000322738
0.000459053
0.000719826
0.000717964
0.000620923
2.66271e-05
8.87574e-05
0.000122141
0.000160539
0.000198655
0.000229368
0.000254489
0.000312227
0.000507348
0.00074625
0.000688709
3.18093e-05
0.000130667
0.000139283
0.000154386
0.000177439
0.000199859
0.000216819
0.000243468
0.000335748
0.000563377
0.000738082
3.67898e-05
0.000207245
0.000205397
0.000183875
0.000179512
0.000186374
0.000194646
0.000206787
0.000249685
0.000372391
0.000605373
3.96488e-05
0.000238508
0.000324299
0.000265101
0.000214772
0.000192301
0.000185286
0.000186319
0.000205186
0.000266566
0.000419085
4.26271e-05
0.000261917
0.00041546
0.00038543
0.000292454
0.000224798
0.000191003
0.000177502
0.000181275
0.000211379
0.000297009
4.51966e-05
0.000277577
0.000476091
0.000534018
0.000419819
0.000293637
0.000216827
0.000180346
0.000169685
0.000181554
0.000228631
4.7248e-05
0.000288441
0.000518295
0.0006356
0.00056701
0.000400651
0.000267773
0.000196824
0.000167857
0.000165845
0.000190766
4.87067e-05
0.000295695
0.000542869
0.000693152
0.000698344
0.000531667
0.000343839
0.000228212
0.000175166
0.000159467
0.000170051
4.97787e-05
0.000295402
0.000552338
0.000722142
0.000788268
0.000660755
0.000436301
0.000272261
0.000190561
0.000160177
0.000159869
5.04917e-05
0.000293496
0.000550046
0.000724101
0.000817106
0.000752945
0.000525719
0.000321498
0.000211196
0.000166179
0.000156826
5.08953e-05
0.000289393
0.000537283
0.000704219
0.000806428
0.000796469
0.000592718
0.000365083
0.000232564
0.000175519
0.000159054
5.09955e-05
0.000282066
0.000516106
0.000667074
0.000762508
0.000786389
0.00062364
0.000392643
0.000249892
0.000186331
0.000165524
5.07e-05
0.00027412
0.000491287
0.000618873
0.000690371
0.000721715
0.000618993
0.00039804
0.000260174
0.000198018
0.000175754
4.97552e-05
0.000264491
0.000463421
0.000568266
0.000612675
0.000624498
0.000576386
0.000395193
0.000265748
0.000211773
0.000190427
4.80972e-05
0.000253674
0.0004343
0.00051973
0.000541009
0.000536643
0.000502597
0.000398491
0.000277907
0.000232932
0.000212806
4.5757e-05
0.00024406
0.000408138
0.000480071
0.000488252
0.000478456
0.000458327
0.000406524
0.000319486
0.000273501
0.000249515
4.2859e-05
0.000239812
0.000391727
0.000456206
0.000464079
0.000460068
0.000455544
0.000436303
0.000392353
0.00034152
0.000304098
3.95974e-05
0.000254096
0.000395206
0.000437993
0.000433404
0.000419211
0.000397818
0.000371366
0.000350192
0.000310324
0.000258314
3.49987e-05
0.000244405
0.000343745
0.00036062
0.000319147
0.000239751
0.000182116
0.000160673
0.000142953
0.000124979
0.000107385
2.08069e-05
0.000121533
0.000148018
0.000125537
9.85944e-05
8.21974e-05
7.238e-05
6.73148e-05
6.44136e-05
6.21179e-05
5.93665e-05
9.94694e-06
1.16122e-05
1.49173e-05
1.99316e-05
2.76089e-05
3.80636e-05
5.04692e-05
6.30529e-05
7.36889e-05
8.07252e-05
8.34285e-05
3.48033e-05
0.000107743
0.000104802
0.000106126
9.36483e-05
7.7543e-05
6.729e-05
6.1093e-05
5.64835e-05
5.2255e-05
4.7852e-05
2.92803e-05
0.000101515
8.90551e-05
0.000109236
9.6752e-05
7.87145e-05
6.58458e-05
5.81631e-05
5.26606e-05
4.7867e-05
4.31887e-05
2.91034e-05
8.5387e-05
7.58093e-05
0.000106814
9.82324e-05
8.06657e-05
6.55864e-05
5.65487e-05
5.02232e-05
4.48381e-05
3.96129e-05
3.08785e-05
7.39618e-05
7.18437e-05
9.78339e-05
9.75851e-05
8.23364e-05
6.57535e-05
5.57013e-05
4.87223e-05
4.28967e-05
3.73685e-05
3.27893e-05
6.76829e-05
6.91589e-05
8.86897e-05
9.62042e-05
8.35865e-05
6.61e-05
5.53235e-05
4.78834e-05
4.17954e-05
3.62455e-05
3.40406e-05
6.44056e-05
6.65323e-05
7.88959e-05
8.96006e-05
8.44221e-05
6.67266e-05
5.53184e-05
4.75223e-05
4.12654e-05
3.5728e-05
3.46529e-05
6.32619e-05
6.45269e-05
7.04798e-05
7.80584e-05
8.12047e-05
6.77309e-05
5.5661e-05
4.75278e-05
4.11209e-05
3.54906e-05
3.46554e-05
6.40981e-05
6.37915e-05
6.47494e-05
6.71861e-05
7.23753e-05
6.7143e-05
5.6484e-05
4.79301e-05
4.1275e-05
3.55661e-05
3.38464e-05
6.64785e-05
6.45882e-05
6.15015e-05
5.90729e-05
6.12264e-05
6.22212e-05
5.65342e-05
4.86299e-05
4.17891e-05
3.59415e-05
3.21839e-05
6.97231e-05
6.71889e-05
6.05809e-05
5.40036e-05
5.15634e-05
5.30612e-05
5.34883e-05
4.88439e-05
4.243e-05
3.64788e-05
2.98662e-05
7.46137e-05
7.22452e-05
6.23717e-05
5.22028e-05
4.5635e-05
4.39972e-05
4.63319e-05
4.67993e-05
4.26819e-05
3.70798e-05
2.77057e-05
8.3965e-05
8.14621e-05
6.76081e-05
5.36686e-05
4.3519e-05
3.82484e-05
3.83253e-05
4.12411e-05
4.12058e-05
3.73196e-05
2.78703e-05
0.000102949
9.89086e-05
7.85427e-05
5.91297e-05
4.49094e-05
3.61103e-05
3.27218e-05
3.40871e-05
3.66819e-05
3.60815e-05
3.03357e-05
0.000133845
0.000130815
0.000100451
7.14867e-05
5.08685e-05
3.77087e-05
3.06127e-05
2.8656e-05
3.02945e-05
3.21252e-05
3.2327e-05
0.000171816
0.000180016
0.000140593
9.65173e-05
6.46582e-05
4.44957e-05
3.26775e-05
2.68547e-05
2.54296e-05
2.65437e-05
3.26007e-05
0.000204587
0.000237552
0.000202823
0.000142946
9.32282e-05
6.06736e-05
4.1072e-05
2.99986e-05
2.45504e-05
2.27709e-05
3.1579e-05
0.000226038
0.000290552
0.000279708
0.000217587
0.000147642
9.52679e-05
6.17581e-05
4.1635e-05
3.00978e-05
2.39521e-05
2.98005e-05
0.00023799
0.000334428
0.000356335
0.000315349
0.000237483
0.000162307
0.000106971
7.06803e-05
4.80424e-05
3.43219e-05
2.75382e-05
0.000241011
0.000367301
0.000422168
0.000418158
0.000359902
0.000275612
0.000196518
0.000135661
9.30595e-05
6.45675e-05
2.48699e-05
0.000234214
0.00038672
0.000474153
0.000510284
0.000495922
0.000434971
0.000349866
0.000264858
0.000193399
0.000138867
2.20652e-05
0.000217142
0.000389077
0.000508104
0.000581462
0.000616654
0.00060703
0.000552476
0.000467869
0.000374231
0.000288528
1.96832e-05
0.00019074
0.000359312
0.000484644
0.00058132
0.000656372
0.000698953
0.000701154
0.000659508
0.000583117
0.000489607
1.66777e-05
0.000163425
0.000275967
0.000361625
0.000439406
0.000508231
0.000566564
0.000609947
0.000630374
0.000619692
0.000573253
1.12852e-05
6.89592e-05
0.000119039
0.000165112
0.000210376
0.000256967
0.000304966
0.000353558
0.00039574
0.000426606
0.000435195
2.92679e-05
0.000102965
0.000101711
0.00010331
9.30027e-05
7.95518e-05
7.1223e-05
6.62084e-05
6.25106e-05
5.90924e-05
5.53684e-05
2.07215e-05
7.91915e-05
0.000101994
0.000111808
0.000101885
8.77913e-05
7.88491e-05
7.39987e-05
7.10404e-05
6.87631e-05
6.65075e-05
2.08494e-05
7.12258e-05
9.36713e-05
0.000120028
0.000114252
0.000100166
8.92975e-05
8.35636e-05
8.07151e-05
7.92097e-05
7.82134e-05
2.32914e-05
6.47746e-05
8.91283e-05
0.000122408
0.000119436
0.000107771
9.77457e-05
9.26754e-05
9.08879e-05
9.07437e-05
9.12816e-05
2.63721e-05
5.90483e-05
8.7062e-05
0.000122086
0.000121875
0.00011249
0.000102855
9.81197e-05
9.70369e-05
9.82551e-05
0.000100938
2.93678e-05
5.48125e-05
8.57376e-05
0.000120001
0.0001222
0.000115146
0.000106224
0.000102025
0.000101633
0.000104072
0.000108741
3.2151e-05
5.17746e-05
8.4434e-05
0.000117249
0.000121456
0.00011641
0.000108281
0.0001047
0.000104884
0.000108275
0.000114668
3.47549e-05
4.95538e-05
8.30575e-05
0.000114485
0.00012041
0.000116793
0.000109456
0.00010644
0.000107073
0.000111142
0.000118598
3.70141e-05
4.78564e-05
8.17099e-05
0.000112053
0.000119513
0.00011678
0.000110217
0.000107654
0.000108649
0.000113305
0.000122148
3.8906e-05
4.64864e-05
8.04784e-05
0.000110035
0.000118891
0.000116838
0.000110968
0.000108768
0.000110134
0.000115542
0.000126228
4.04497e-05
4.52943e-05
7.92709e-05
0.000108526
0.000118644
0.000117314
0.000112072
0.000110209
0.000112055
0.000118576
0.000131545
4.17197e-05
4.42118e-05
7.80883e-05
0.000107427
0.000118833
0.000118413
0.000113846
0.00011239
0.000114886
0.000122902
0.000139237
4.26495e-05
4.31462e-05
7.68875e-05
0.000106673
0.000119545
0.000120346
0.000116623
0.000115731
0.000119076
0.000128946
0.000149515
4.31198e-05
4.09135e-05
7.37552e-05
0.000104743
0.000119879
0.00012284
0.000120583
0.000120626
0.000125088
0.000137092
0.000162305
4.30528e-05
3.8366e-05
6.84557e-05
0.000100401
0.000118212
0.000124507
0.000124972
0.000126862
0.000133049
0.000147426
0.000176703
4.24064e-05
3.56838e-05
6.12351e-05
9.30851e-05
0.000113752
0.000124129
0.000128563
0.000133516
0.000142367
0.000159409
0.000191615
4.11667e-05
3.30106e-05
5.28125e-05
8.24743e-05
0.000105478
0.000120024
0.000129154
0.000138168
0.00015061
0.000170543
0.000204146
3.92259e-05
3.05377e-05
4.44453e-05
6.94835e-05
9.29676e-05
0.000110712
0.000124136
0.000137088
0.000152931
0.000174944
0.00020757
3.65221e-05
2.82157e-05
3.69811e-05
5.58655e-05
7.70237e-05
9.5746e-05
0.000111767
0.000127138
0.000144416
0.000165767
0.000193528
3.29994e-05
2.5856e-05
3.06654e-05
4.33046e-05
5.97424e-05
7.65325e-05
9.2517e-05
0.000108121
0.000124521
0.000142604
0.000162981
2.85973e-05
2.3177e-05
2.53753e-05
3.27994e-05
4.36811e-05
5.62419e-05
6.9507e-05
8.31756e-05
9.73571e-05
0.000111998
0.000126744
2.32993e-05
1.98213e-05
2.06485e-05
2.43948e-05
3.04305e-05
3.81193e-05
4.70679e-05
5.70797e-05
6.80446e-05
7.96989e-05
9.15157e-05
1.71202e-05
1.51817e-05
1.55038e-05
1.70762e-05
1.97569e-05
2.3438e-05
2.80965e-05
3.37763e-05
4.05551e-05
4.84282e-05
5.72139e-05
1.04233e-05
1.03112e-05
1.21898e-05
1.49843e-05
1.85581e-05
2.2877e-05
2.7905e-05
3.37602e-05
4.35817e-05
5.74637e-05
7.43553e-05
3.31008e-05
0.000197095
0.000262599
0.000341462
0.000391488
0.000437527
0.000474151
0.000474553
0.000440915
0.000403542
0.00037913
2.59014e-05
0.000116163
0.000161409
0.000213258
0.000263631
0.000333565
0.000446495
0.000482596
0.000445951
0.000402377
0.000376073
2.30647e-05
7.97003e-05
0.000126399
0.000166006
0.000203187
0.000244853
0.000324124
0.000445513
0.000454409
0.00040482
0.000372847
2.14945e-05
6.47791e-05
0.000107085
0.000141805
0.000173994
0.00020582
0.000258295
0.000356532
0.000436353
0.000412366
0.000372816
2.00482e-05
5.82878e-05
9.54373e-05
0.000127114
0.000156614
0.000185073
0.000226293
0.000299829
0.000389028
0.000411403
0.000377862
1.86052e-05
5.49593e-05
8.75779e-05
0.000116828
0.000145016
0.000172541
0.000209454
0.000269409
0.000348458
0.000396624
0.000382659
1.74352e-05
5.27369e-05
8.2012e-05
0.000109434
0.00013708
0.000165096
0.000201371
0.000255102
0.000323723
0.000377889
0.000382985
1.66235e-05
5.11462e-05
7.82191e-05
0.000104415
0.000132334
0.000161955
0.000199801
0.000251358
0.000312294
0.000363009
0.000378125
1.61466e-05
4.90996e-05
7.56145e-05
0.000101387
0.000130517
0.000162678
0.000203263
0.000254218
0.00030882
0.000352472
0.000370009
1.56869e-05
4.69848e-05
7.37437e-05
0.000100048
0.000131288
0.00016665
0.000210156
0.000260205
0.000308238
0.00034352
0.000359925
1.52643e-05
4.52516e-05
7.27727e-05
0.000100465
0.00013453
0.000173358
0.000219052
0.000266781
0.000307463
0.000334319
0.000347692
1.48872e-05
4.41163e-05
7.30235e-05
0.000102789
0.000140032
0.000181953
0.000228309
0.000272044
0.000305142
0.000324644
0.000334891
1.44666e-05
4.34675e-05
7.42434e-05
0.000106465
0.000146603
0.000190522
0.000235761
0.000274655
0.00030125
0.000315364
0.000322849
1.40062e-05
4.26135e-05
7.57014e-05
0.000110357
0.00015249
0.000197004
0.000240021
0.000274614
0.000296763
0.000307541
0.000312534
1.34612e-05
4.16882e-05
7.71172e-05
0.000113711
0.000156718
0.000200697
0.000241376
0.00027309
0.000292959
0.000302102
0.000305262
1.28028e-05
4.04895e-05
7.77203e-05
0.000115532
0.000158478
0.000201416
0.000240355
0.000270756
0.000290092
0.000298891
0.000300771
1.20339e-05
3.86825e-05
7.67802e-05
0.000115073
0.000157414
0.000199339
0.000237349
0.000267659
0.00028765
0.000297031
0.000298039
1.10944e-05
3.65745e-05
7.4489e-05
0.000112517
0.000153962
0.00019505
0.000232739
0.0002637
0.000285089
0.000295835
0.000296889
9.9915e-06
3.41541e-05
7.09416e-05
0.000108046
0.000148382
0.000188749
0.000226427
0.000258394
0.000281624
0.0002943
0.00029586
8.73097e-06
3.14294e-05
6.62575e-05
0.000101791
0.000140648
0.000180034
0.000217502
0.00025039
0.00027566
0.000290801
0.000293479
7.30827e-06
2.82706e-05
6.04707e-05
9.36473e-05
0.000129921
0.00016692
0.000202824
0.000235734
0.000262945
0.000281311
0.00028665
5.75525e-06
2.56578e-05
5.44743e-05
8.23669e-05
0.000112221
0.00014329
0.000175113
0.000206486
0.000235119
0.000257791
0.000267935
4.17144e-06
2.03427e-05
3.64593e-05
5.51775e-05
8.07345e-05
0.00011299
0.000147991
0.000180562
0.000206929
0.000225786
0.000234689
5.00668e-06
1.18807e-05
2.88552e-05
6.07286e-05
0.000104765
0.00015428
0.000200323
0.000235784
0.000259368
0.000274728
0.000282284
3.00911e-05
0.000209837
0.000307307
0.000361628
0.000402115
0.000441129
0.000471616
0.000473617
0.000443929
0.000407542
0.000380953
1.89266e-05
0.000165438
0.000289563
0.000371712
0.000424098
0.000464212
0.000491216
0.000490765
0.000458504
0.000416931
0.000384626
1.72842e-05
0.000141035
0.000275526
0.000385523
0.000453289
0.000495818
0.000519343
0.000515103
0.000478807
0.000430901
0.000391937
1.77436e-05
0.000126332
0.000266267
0.000401917
0.000486529
0.000531931
0.000550569
0.000541886
0.000502847
0.000449998
0.00040421
1.88878e-05
0.000117721
0.000253954
0.000403097
0.000513626
0.00057319
0.000590168
0.000575427
0.000532232
0.000476177
0.000427017
2.0013e-05
0.000111781
0.000244648
0.000393087
0.00051302
0.000592759
0.000624917
0.000610271
0.00056422
0.000509063
0.000457807
2.09605e-05
0.000106179
0.000235473
0.000380547
0.00050387
0.000592695
0.0006349
0.000630493
0.000594006
0.000544095
0.000494024
2.17687e-05
0.000100713
0.000225786
0.000365874
0.000489397
0.000584046
0.00063547
0.000642119
0.000616968
0.000576876
0.000534099
2.22982e-05
9.48777e-05
0.000214761
0.00034891
0.000470353
0.000567616
0.000626467
0.000645995
0.000637004
0.000612232
0.000581507
2.25241e-05
8.83741e-05
0.000201389
0.000328166
0.000445504
0.000542815
0.000607834
0.000641243
0.000651142
0.00064568
0.000631857
2.24186e-05
8.03489e-05
0.000183827
0.000300818
0.000411705
0.000507039
0.000578121
0.000626591
0.000657484
0.000674817
0.000683165
2.20356e-05
7.03869e-05
0.000160944
0.00026488
0.000365926
0.000457687
0.000535283
0.000599846
0.000652563
0.000693763
0.000725569
2.13271e-05
6.09776e-05
0.000133945
0.000219821
0.000306662
0.0003931
0.000476921
0.000557847
0.000632893
0.00069904
0.000759407
2.03645e-05
5.38415e-05
0.000109683
0.000175713
0.000244936
0.000319453
0.000402355
0.000494869
0.000592517
0.000683395
0.000768284
1.92731e-05
5.05797e-05
9.32591e-05
0.000142066
0.000193925
0.00025331
0.000326915
0.000419363
0.000527209
0.000637687
0.000745987
1.82539e-05
5.15416e-05
8.65822e-05
0.000123369
0.00016093
0.000204413
0.000262484
0.000344128
0.000450725
0.000570658
0.000691587
1.7426e-05
5.60612e-05
8.92576e-05
0.000119863
0.000147577
0.000177118
0.000217381
0.00028034
0.000374038
0.000492023
0.000617933
1.66652e-05
6.23524e-05
9.88492e-05
0.000128767
0.00015151
0.0001708
0.000194712
0.00023615
0.000308326
0.000412852
0.000533829
1.57182e-05
6.77228e-05
0.000111058
0.000144913
0.000167619
0.000181342
0.0001927
0.000214267
0.000261803
0.000344227
0.0004517
1.43565e-05
6.95075e-05
0.000120668
0.000161445
0.000188558
0.000202091
0.000206338
0.000212633
0.000237604
0.00029484
0.000382003
1.24514e-05
6.57799e-05
0.000122785
0.000171181
0.000205698
0.00022428
0.000228176
0.000226071
0.000234223
0.00026878
0.000333577
1.00441e-05
5.68538e-05
0.000114457
0.000168459
0.000211305
0.000238824
0.000249202
0.000247247
0.000247036
0.000265683
0.000311139
7.14693e-06
3.97029e-05
9.24412e-05
0.000149368
0.00020053
0.00023899
0.000260769
0.000267185
0.000268477
0.000280359
0.000311325
4.47611e-06
3.84786e-05
8.29401e-05
0.000135892
0.000186673
0.000229524
0.000260159
0.000277453
0.000286571
0.00029808
0.000316885
2.41544e-05
2.41093e-05
2.37264e-05
2.33252e-05
2.1801e-05
2.1936e-05
2.25129e-05
2.30568e-05
2.33049e-05
9.39648e-05
0.000112597
0.000124111
0.000130264
0.000118319
0.000105713
9.67889e-05
8.7699e-05
6.7243e-05
0.000143146
0.000155949
0.000169726
0.000170342
0.00015528
0.000140485
0.00013154
0.000125418
0.000106503
0.000157982
0.000165301
0.000179055
0.000175646
0.000165984
0.000147343
0.000138978
0.000138147
0.000120829
2.34399e-05
2.10833e-05
1.42914e-05
1.22746e-05
1.22282e-05
1.13283e-05
1.31923e-05
1.98798e-05
2.25501e-05
6.21211e-05
4.21374e-05
4.00157e-05
4.93208e-05
7.18131e-05
4.6847e-05
3.70316e-05
3.50215e-05
4.66228e-05
0.000101497
6.83788e-05
5.52092e-05
5.98196e-05
9.49955e-05
5.42302e-05
4.83367e-05
5.49046e-05
7.69323e-05
0.000116399
8.26905e-05
6.64787e-05
6.94088e-05
0.00010809
6.71349e-05
5.78212e-05
6.77228e-05
9.04678e-05
0.00022987
0.000229876
0.000229823
0.000246329
0.000246752
0.000260597
0.000182042
0.00022998
0.00025968
0.000238407
0.000247413
0.00022968
0.000241237
0.00024431
0.000151671
0.000248294
0.000242934
0.00024804
0.000248818
0.000255844
0.00024379
0.000256292
0.000229986
0.000251807
0.000241633
0.000244497
0.000239965
0.000201515
0.000257241
0.000244411
0.000243298
0.000240311
0.000241662
0.000233061
0.000243029
0.000229957
0.000253625
0.000244718
0.000240202
0.000250852
3.01499e-05
0.000232035
0.000241343
0.000229967
0.000260206
7.50043e-05
0.00024577
7.42106e-05
0.000244822
0.000251557
0.000245642
0.000251477
0.000250607
0.000242066
0.000251703
0.000243705
0.000256683
0.000249899
0.000249376
0.000238233
5.43926e-05
0.000251493
0.000248705
0.000238224
3.30317e-05
0.00025636
0.000240463
0.000253819
0.00022987
0.000238343
0.000239063
0.000247268
0.000237794
0.000273671
0.00024415
0.000246567
0.000246809
0.000229898
0.000244325
0.000138646
0.000242834
0.000238208
0.00024198
0.000229826
0.000249162
0.000237885
0.000138955
0.000252233
0.000246808
0.000252709
0.000233082
0.000251161
3.42279e-05
0.000254934
0.000163971
0.000153083
0.000241371
0.000239773
0.000246522
0.000258191
0.000251728
6.77409e-05
0.000245607
0.000240394
0.00024249
0.00023185
0.00024372
0.000229874
0.00024335
0.000253061
0.000185182
0.000230832
0.000255723
0.000235797
0.000242977
0.000256676
0.000248108
0.000249963
0.000242646
0.000247695
0.000235871
0.0002699
0.000286575
0.000239863
5.06125e-05
0.000250555
0.000244856
0.000243146
0.000244407
0.000245567
0.000251785
0.000238589
6.88633e-05
0.000245929
0.000229882
0.000251295
0.000249639
0.000238116
0.000245409
0.000248958
0.000238973
0.000246349
0.00026636
0.000228998
0.000249481
0.00024403
0.000258224
0.000253169
0.000237298
0.000245148
0.000244656
0.000259747
0.000248442
0.000270803
0.000238746
0.000241871
0.000242677
0.000249338
0.000239257
0.000255612
0.000238941
0.000242448
0.000247832
0.000261113
0.000242103
0.000253588
0.000247133
0.000248546
0.000252445
3.61241e-05
0.000248007
0.000238933
0.000256967
0.000243552
0.000240394
0.000236291
0.000238316
0.000248127
0.000261536
0.000238551
0.000250963
0.000253057
0.000229928
0.000251605
0.000242884
0.000240317
0.000248477
0.000249288
0.000229937
0.00024644
0.000242853
0.000238887
0.000242466
3.60151e-05
0.000229836
0.000252027
0.00025622
0.000245189
0.000244252
0.000230001
0.000247256
0.000248347
0.000244189
0.000242897
0.000229868
0.000253869
0.000254613
0.000243743
0.000251782
0.000246274
0.000252189
0.000250279
0.000232991
0.000243027
0.000242266
0.000247091
0.000241142
0.000253314
0.000248562
0.000243083
0.000239084
0.000235886
0.000241834
0.000243667
0.000239991
0.000253567
0.00025099
0.00024522
0.000243409
0.000243939
0.00024807
0.000242125
0.000246161
0.000264461
0.000246718
0.000168158
0.000244448
0.000229888
0.00023109
0.000232104
0.000252493
0.000249932
0.000239605
6.09785e-05
0.000256152
0.000242431
0.00023542
0.000240003
0.00019513
0.000246442
0.000241032
0.000251917
0.000259953
0.000249537
0.000243426
0.000256713
0.000243815
0.000250039
0.000239777
0.000249174
0.000238438
0.000255584
0.000244483
0.000230387
0.00019224
0.00025003
0.000247391
0.00025263
0.000155195
0.000239598
0.000246168
0.000245889
0.000248073
0.000245643
0.000264087
0.000250412
0.000240873
0.000265439
0.000245408
0.000242168
0.000249886
0.000230074
0.000242497
0.000245674
0.000243073
0.000259754
0.00011935
0.000230141
0.000244984
0.000237888
0.000229873
0.000231471
0.000249734
0.000246432
0.000230001
0.000252724
0.000252386
0.000222624
0.000243194
0.000239469
0.000267664
0.000238324
0.000245611
0.000244649
0.000243767
0.000253171
0.000229908
0.000246552
0.000253882
0.000244561
0.000230442
0.000230866
0.000250031
0.000244151
0.000242431
0.000249419
0.000241702
0.00024371
0.000247782
0.000257308
0.000246116
0.000259636
0.00025234
0.000237863
0.000237525
0.00025186
0.000252782
0.000244555
0.000241495
0.000247059
0.000256023
0.000249396
0.000245788
0.000229945
0.000242665
0.000199473
0.000241964
0.000230053
0.000258172
0.000239074
0.000254877
0.000252049
0.000247973
0.000256696
0.000247006
0.000247607
0.000246799
0.000254594
0.000250668
0.000246948
0.000154157
0.000238323
0.000239311
0.000244533
0.000224387
0.000230037
0.000239672
0.0002355
0.000229964
0.000246305
0.000229579
0.000243733
0.000238755
0.000238144
0.000252727
0.000245927
0.000238979
0.000239617
9.94121e-05
0.000278416
0.000268809
0.000246396
0.000202355
0.000241229
0.000218768
0.000229558
0.000225182
0.00024235
0.000257111
0.000244982
0.000247222
0.000248873
0.000240595
0.000257753
0.000239601
0.000237089
0.0002381
0.000240676
0.000250421
0.000246881
0.000259195
0.000264839
0.000247005
0.000247211
0.000238077
3.02084e-05
0.000246624
0.000245577
0.000229968
0.000239111
0.000239268
0.00025653
0.000229973
0.000237144
0.000246264
2.30844e-05
0.000248923
0.000248213
0.000249125
0.000260103
0.000247292
0.000247608
0.000243147
0.000243586
0.000244984
0.000250836
0.00024288
0.000279249
0.000236122
0.000259156
0.00024353
0.000238666
0.000132458
0.000245567
0.000236361
0.000251857
0.000272852
0.000114061
0.000253097
2.43842e-05
0.000241897
0.000240072
0.000237213
0.000245305
0.000250594
0.000240879
0.000248407
0.000248557
0.000240027
0.000230038
0.000235786
0.000134819
0.000250796
0.000238449
0.000246136
0.000240433
0.000241879
0.000249298
0.00024715
0.000243805
0.000258486
0.000229818
0.000246217
0.000252642
0.000258674
8.39539e-05
0.00024711
0.000249274
0.00013177
0.000229985
0.000245938
0.000245183
0.000239483
0.000243047
0.000246763
3.76383e-05
4.07416e-05
2.96837e-05
2.93527e-05
0.000255917
0.000237042
0.000244041
0.00024655
5.65873e-05
0.000246178
0.000230027
0.000245211
8.74153e-05
0.000244602
0.000247105
0.000254911
0.000244087
0.000238941
0.000251473
0.000229915
0.000249142
0.000247717
0.000224321
0.000240927
0.000261806
0.000255446
0.0002508
0.000245554
0.00025582
0.000244275
0.000238441
0.000246107
0.000241527
0.000233322
0.000252318
0.000243507
0.000243878
0.00023395
0.000233505
0.000183511
0.000241857
0.00024002
0.000257095
5.96947e-05
0.000229852
0.000241173
0.00019058
0.000247546
0.000252259
0.000252355
0.000242163
0.000240635
0.000243152
0.000248619
0.000238644
0.000246954
0.000230079
0.000270349
0.000227782
0.000250792
0.000248503
0.000233276
0.00026191
0.000244172
0.000268455
3.79454e-05
0.000255981
0.000243095
0.000239733
0.000245971
0.000230004
0.000252505
0.000229973
4.28065e-05
0.000245246
0.000238545
0.000245934
0.000239953
0.000229919
0.000246865
0.000229932
0.000241544
0.000245908
0.000252242
0.00024307
0.000239429
8.88705e-05
0.000241476
0.000244426
0.000247796
0.000238067
0.000227676
0.000240928
0.000253095
0.000240418
0.000242871
0.00024908
0.000135678
0.00024557
0.000256339
0.000230015
0.000241438
0.000241527
0.0001661
0.000232619
0.000254033
0.000245329
0.000256948
0.000248089
0.000247166
0.000249104
0.000246815
0.000214128
0.000168248
0.000257169
0.000241462
0.000246463
0.000243067
0.000238387
0.000240806
0.000235649
0.000253186
0.000229976
0.000229999
0.000188336
0.000259681
0.000236345
0.000241828
0.00023994
0.000240604
0.00025425
0.000239708
0.00024189
0.000256078
0.000246624
0.000137709
0.000250006
0.00021639
0.000251721
0.000242717
0.000250417
0.000249294
0.000252261
0.000248597
0.00023748
0.000243499
0.000244169
0.000240179
0.000156089
0.000249935
0.000259701
0.000252189
0.000253673
0.000241709
0.000265066
0.00019932
0.000251243
0.000250303
0.000254243
0.000249607
0.000245166
0.000247551
0.000143521
0.000229939
0.000251637
0.000242011
0.00024575
0.000233811
0.000258379
0.000238026
0.000254771
0.000259203
0.000244683
0.000257273
0.000234925
0.000246485
0.000240636
0.000243368
0.000229845
0.000246185
0.000238148
0.000241966
0.000246698
0.000258477
0.000236592
0.000240358
0.000188338
0.000237174
0.000269892
0.000256703
0.000253152
0.000229342
0.000246616
0.000245336
0.000241108
0.000238062
0.000259435
0.000246618
0.00022449
0.000247413
6.20901e-05
0.000244321
0.000240859
0.000250065
0.000233781
0.000238046
0.000257174
0.000265255
0.000256483
0.000254048
0.000252191
0.000218241
0.000241284
0.00022993
0.00024132
0.00024211
0.000244145
0.00015087
0.000239299
0.000248053
0.000229836
0.000223114
0.000240484
0.000253889
0.000247723
0.000253355
0.000250341
0.00022984
0.000237253
0.000247759
0.000248131
0.000231239
0.000262825
0.00026059
0.000239072
0.000244216
0.00022947
0.000238717
0.000254475
0.000244155
0.000240605
0.000246518
0.000242077
9.01625e-05
0.000244823
0.00025108
0.000241712
0.000241026
0.000252705
0.000245888
0.000158526
0.000244386
0.000241837
0.000236729
0.000256001
0.000263366
0.000251325
0.000255211
0.000244174
0.000255839
0.000251853
0.000248702
0.000248825
0.000230119
0.000243046
0.00023858
0.000242171
0.000251192
0.000217489
0.000238942
0.000240393
0.000251505
0.000240819
0.000243841
0.00024039
0.000181369
0.000243156
0.000250386
0.000232149
4.88335e-05
0.000238474
0.000263675
0.000252069
0.000255097
0.000244735
0.000247515
0.000239963
0.000249129
0.000240651
0.000230701
0.000241136
0.00023719
0.000245963
0.00024163
0.000251993
0.000244398
0.000247795
0.000247058
5.63324e-05
0.000251807
0.000243941
0.000233913
0.000242944
0.000259642
0.000250179
0.000248698
0.000242396
0.000243505
0.000256015
0.000249785
0.000248796
0.000257469
0.000245166
0.000251458
0.000230046
0.000246283
0.000249898
0.000247607
0.000254997
0.000239429
0.00022897
0.000243163
0.00025374
0.000230955
0.000230108
0.000229891
0.000239445
0.000252682
0.000237964