/*--------------------------------*- C++ -*----------------------------------*\
| =========                 |                                                 |
| \\      /  F ield         | OpenFOAM: The Open Source CFD Toolbox           |
|  \\    /   O peration     | Version:  3.0.1                                 |
|   \\  /    A nd           | Web:      www.OpenFOAM.org                      |
|    \\/     M anipulation  |                                                 |
\*---------------------------------------------------------------------------*/
FoamFile
{
    version     2.0;
    format      ascii;
    class       volScalarField;
    location    "0.740347";
    object      nut;
}
// * * * * * * * * * * * * * * * * * * * * * * * * * * * * * * * * * * * * * //

dimensions      [0 2 -1 0 0 0 0];

internalField   nonuniform List<scalar> 
21246
(
5.92411e-05
0.000316105
0.000387723
0.000420213
0.000446367
0.00047072
0.00048871
0.000493927
0.000476598
0.000429352
0.000366539
3.80889e-05
0.000255865
0.000368576
0.000417996
0.000445936
0.000466969
0.000480463
0.00048294
0.000467042
0.000423999
0.000362508
3.17625e-05
0.000217924
0.00036655
0.000445667
0.000476105
0.000492397
0.000501985
0.000500207
0.000480292
0.000436912
0.000374088
3.08485e-05
0.000182003
0.000326701
0.000431629
0.000481842
0.000503637
0.000511278
0.00050729
0.000489911
0.000449705
0.000385783
3.16185e-05
0.000165973
0.000300736
0.00040587
0.000464159
0.000495724
0.000510617
0.000511901
0.000496171
0.000455037
0.000388413
3.25805e-05
0.000153438
0.000279982
0.000379932
0.000438932
0.000476938
0.000501015
0.000510776
0.000500187
0.000461934
0.000397952
3.36645e-05
0.000143207
0.000261935
0.000354902
0.000412949
0.000454559
0.000485754
0.000503718
0.000499609
0.000464854
0.000401654
3.48747e-05
0.000135104
0.000246715
0.000333003
0.000389028
0.000432241
0.000468344
0.00049302
0.000495338
0.000466182
0.000409715
3.59709e-05
0.000128248
0.000233756
0.000314428
0.000368221
0.000411993
0.000451462
0.000481625
0.000490232
0.000466732
0.000413309
3.68255e-05
0.000121715
0.000222115
0.000298514
0.000350461
0.000394446
0.000436376
0.000471029
0.000485094
0.000465876
0.000412956
3.75774e-05
0.000115515
0.000211531
0.000284688
0.000335241
0.000379373
0.000423247
0.000461614
0.000480135
0.00046437
0.00041543
3.81901e-05
0.000110019
0.000202139
0.000272637
0.000322098
0.000366397
0.000411943
0.000453592
0.000476111
0.000463582
0.00041701
3.85363e-05
0.000104776
0.000193522
0.000262004
0.000310754
0.00035534
0.000402453
0.000447211
0.000473574
0.000463942
0.000418326
3.86784e-05
9.9303e-05
0.000185095
0.000252349
0.000300892
0.000345974
0.000394661
0.00044252
0.000472668
0.000465462
0.00042108
3.85021e-05
9.39979e-05
0.000176976
0.000243429
0.000292114
0.00033788
0.000388172
0.000439226
0.000473396
0.00046858
0.000424192
3.79753e-05
8.81581e-05
0.000168495
0.000234758
0.000283975
0.000330597
0.00038246
0.000436823
0.000475595
0.000473676
0.0004295
3.71233e-05
8.02391e-05
0.000156226
0.000222187
0.000271612
0.000317762
0.000369377
0.000426189
0.000471292
0.000476179
0.00043595
3.57462e-05
7.15275e-05
0.000141165
0.000205809
0.000254493
0.000297804
0.000344642
0.000398133
0.000446326
0.000461861
0.000435862
3.38169e-05
6.22018e-05
0.000123265
0.000185009
0.000232327
0.000271452
0.000310083
0.000353808
0.000397833
0.000422443
0.000418028
3.12952e-05
5.24529e-05
0.000102883
0.000159355
0.00020463
0.000239521
0.000269119
0.000299284
0.000330825
0.000354899
0.000367617
2.80961e-05
4.26251e-05
8.12612e-05
0.000129464
0.000171289
0.000202615
0.000225083
0.000242928
0.000259072
0.000272203
0.000284434
2.41642e-05
3.33508e-05
6.06109e-05
9.79261e-05
0.000133741
0.000161527
0.000179763
0.000190267
0.000195562
0.000197011
0.000197702
1.93617e-05
2.45315e-05
4.20141e-05
6.7807e-05
9.49865e-05
0.000117796
0.000133355
0.000141409
0.000143063
0.000139717
0.000133566
1.36258e-05
2.27591e-05
3.56293e-05
5.04517e-05
6.58435e-05
7.94153e-05
8.95304e-05
9.54281e-05
9.69968e-05
9.45802e-05
8.90979e-05
5.54588e-05
0.000279694
0.00032074
0.000433008
0.000483649
0.000515989
0.000529884
0.000534126
0.000510947
0.000454877
0.00038466
4.09895e-05
0.000171293
0.000204017
0.000264009
0.000348233
0.000493156
0.00055746
0.000573455
0.000553594
0.000492885
0.000410221
3.77456e-05
0.000124685
0.000170619
0.000215681
0.000281077
0.00040647
0.000565591
0.000610661
0.000599442
0.000539802
0.000450041
3.69235e-05
0.000108425
0.000154209
0.000193035
0.00024995
0.000361517
0.000568834
0.000648571
0.000650418
0.000597482
0.000507423
3.59574e-05
0.000108565
0.000147002
0.000180192
0.00023132
0.000337197
0.000554759
0.000681133
0.000701842
0.000657316
0.00056201
3.47903e-05
0.000117317
0.000146489
0.000173125
0.000218182
0.000318904
0.000532384
0.000704115
0.000749388
0.000717196
0.000621505
3.44666e-05
0.00013
0.000151051
0.000170258
0.000208435
0.000302814
0.000504934
0.000703714
0.000788622
0.000771103
0.000669748
3.54527e-05
0.000145879
0.000159925
0.000170963
0.000201743
0.000289164
0.000477298
0.000684094
0.000804718
0.000817144
0.000713538
3.72698e-05
0.000163478
0.000172212
0.000174553
0.00019746
0.00027733
0.000450144
0.000653043
0.000791268
0.000828205
0.000748177
3.93273e-05
0.000181188
0.000187034
0.000180556
0.000195107
0.000266699
0.000423364
0.000615187
0.000757749
0.000806824
0.000743568
4.0915e-05
0.000196331
0.00020333
0.000188622
0.000194225
0.000256349
0.000395803
0.000572138
0.000710494
0.00076207
0.000709221
4.21519e-05
0.000209709
0.000220538
0.000198527
0.000194948
0.000246849
0.000368792
0.000527062
0.000655797
0.000703559
0.000653284
4.29093e-05
0.000221915
0.000237728
0.000209986
0.000197242
0.000238096
0.000342205
0.000480974
0.000596994
0.000638649
0.000587411
4.29156e-05
0.000229667
0.000253248
0.000222878
0.000201194
0.000230035
0.000315943
0.0004344
0.000536121
0.000571821
0.000521117
4.22845e-05
0.000234236
0.000266558
0.000236781
0.000207044
0.000223475
0.000291304
0.000389285
0.000475796
0.000506252
0.000459934
4.10109e-05
0.000235869
0.000276887
0.000250949
0.000214847
0.000218928
0.00026903
0.000346763
0.000417653
0.00044359
0.000404496
3.90522e-05
0.000233524
0.000283218
0.000264357
0.000224501
0.000216997
0.000250103
0.000308163
0.000363168
0.000384595
0.000354323
3.6466e-05
0.000227295
0.00028479
0.000275482
0.000235498
0.000218362
0.00023593
0.000275286
0.000314265
0.000330116
0.000308053
3.34918e-05
0.000216863
0.000280875
0.000282333
0.000246707
0.000223541
0.000228026
0.000250179
0.000273161
0.000281635
0.000264824
3.03867e-05
0.000201174
0.00027072
0.000283309
0.000257059
0.000233416
0.000228421
0.000235295
0.000242619
0.000241685
0.000226001
2.57012e-05
0.000171514
0.000245442
0.000272836
0.000262648
0.000245742
0.000235999
0.000230286
0.00022315
0.000211721
0.00019272
2.22132e-05
0.000147425
0.000208148
0.00023414
0.000237398
0.000227957
0.000218071
0.000205284
0.000184395
0.000159407
0.000131195
1.5083e-05
0.000102446
0.00011888
0.000109304
9.76659e-05
8.5139e-05
7.32275e-05
6.2422e-05
5.39058e-05
4.68947e-05
4.08178e-05
9.66863e-06
1.07517e-05
1.16475e-05
1.326e-05
1.56088e-05
1.84886e-05
2.16503e-05
2.47557e-05
2.74495e-05
2.94004e-05
3.03597e-05
3.48593e-05
0.000116867
0.000112677
0.000120053
0.000110298
9.00286e-05
7.0162e-05
5.77317e-05
4.97921e-05
4.37686e-05
3.8572e-05
2.9177e-05
9.80422e-05
8.17296e-05
0.000112415
0.000117831
9.66974e-05
7.21364e-05
5.66074e-05
4.7274e-05
4.04995e-05
3.47383e-05
2.86562e-05
8.06777e-05
7.51327e-05
8.87961e-05
0.000112101
0.000104277
7.66074e-05
5.74753e-05
4.64234e-05
3.8892e-05
3.28889e-05
2.99011e-05
7.04772e-05
7.27985e-05
8.04803e-05
0.000100445
0.000110357
8.22775e-05
5.97212e-05
4.68238e-05
3.85014e-05
3.22467e-05
3.11655e-05
6.62048e-05
7.1378e-05
7.58748e-05
9.27202e-05
0.000112343
8.84153e-05
6.29751e-05
4.81946e-05
3.90525e-05
3.26213e-05
3.17673e-05
6.50566e-05
7.04524e-05
7.24755e-05
8.54379e-05
0.000107094
9.42218e-05
6.70853e-05
5.03584e-05
4.0312e-05
3.35704e-05
3.18251e-05
6.59329e-05
7.03017e-05
7.02382e-05
7.89713e-05
9.75486e-05
9.60256e-05
7.21817e-05
5.32193e-05
4.21412e-05
3.49357e-05
3.14875e-05
6.86518e-05
7.13017e-05
6.93214e-05
7.42193e-05
8.80968e-05
9.31124e-05
7.67099e-05
5.71142e-05
4.46066e-05
3.6724e-05
3.07217e-05
7.24371e-05
7.3543e-05
6.95473e-05
7.09309e-05
8.00545e-05
8.70657e-05
7.89609e-05
6.1429e-05
4.77219e-05
3.90063e-05
2.95879e-05
7.6741e-05
7.70377e-05
7.08323e-05
6.87775e-05
7.33906e-05
7.94139e-05
7.77469e-05
6.53127e-05
5.13965e-05
4.17465e-05
2.83145e-05
8.19025e-05
8.20416e-05
7.34271e-05
6.80038e-05
6.86122e-05
7.21958e-05
7.35262e-05
6.74213e-05
5.53372e-05
4.49595e-05
2.70982e-05
8.86272e-05
8.89558e-05
7.75987e-05
6.87877e-05
6.58923e-05
6.67272e-05
6.82266e-05
6.69149e-05
5.88193e-05
4.85975e-05
2.61174e-05
9.66485e-05
9.80196e-05
8.36231e-05
7.11328e-05
6.48757e-05
6.29791e-05
6.31856e-05
6.4027e-05
6.07623e-05
5.23772e-05
2.55112e-05
0.000105338
0.000109355
9.19726e-05
7.53058e-05
6.54663e-05
6.07973e-05
5.90909e-05
5.98322e-05
6.02426e-05
5.5543e-05
2.53371e-05
0.000115892
0.000123508
0.000103211
8.17332e-05
6.78895e-05
6.03263e-05
5.64912e-05
5.58201e-05
5.74728e-05
5.69563e-05
2.55554e-05
0.000127981
0.0001406
0.000118118
9.11182e-05
7.24938e-05
6.16278e-05
5.54709e-05
5.2843e-05
5.3668e-05
5.57377e-05
2.58749e-05
0.000139706
0.000159886
0.0001375
0.000104651
8.01072e-05
6.51112e-05
5.62101e-05
5.13462e-05
5.02118e-05
5.23144e-05
2.55502e-05
0.00015022
0.000180007
0.000161554
0.000123692
9.20401e-05
7.16962e-05
5.92816e-05
5.18135e-05
4.82263e-05
4.84265e-05
2.44508e-05
0.000157527
0.00019835
0.000188927
0.000149496
0.000110319
8.31019e-05
6.58908e-05
5.50493e-05
4.85944e-05
4.59675e-05
2.25256e-05
0.000159495
0.000211369
0.000215575
0.00018178
0.000137511
0.000102392
7.85918e-05
6.29104e-05
5.26984e-05
4.66407e-05
1.97875e-05
0.000152041
0.00021544
0.000235969
0.000217297
0.000175755
0.000134451
0.000102475
7.9655e-05
6.3796e-05
5.30764e-05
1.7256e-05
0.000138836
0.000209561
0.000245866
0.000247049
0.00022057
0.00018193
0.000144246
0.000113039
8.91292e-05
7.14032e-05
1.30953e-05
0.00010698
0.000153864
0.000194208
0.000215506
0.000220882
0.000210032
0.000187092
0.000159349
0.000132697
0.000109177
1.03912e-05
4.03607e-05
5.60528e-05
7.75948e-05
0.00010057
0.000123615
0.000143321
0.000153354
0.000153726
0.000147108
0.000135486
2.91355e-05
0.000106786
0.000110278
0.000112039
0.000106398
8.97721e-05
7.30825e-05
6.19276e-05
5.44343e-05
4.85597e-05
4.32937e-05
1.96476e-05
8.96286e-05
0.00011246
0.00012124
0.000116324
0.000100537
8.30284e-05
7.07231e-05
6.27152e-05
5.67552e-05
5.16089e-05
1.97586e-05
7.98177e-05
0.000110909
0.000139372
0.000135849
0.000118705
9.77451e-05
8.23727e-05
7.30627e-05
6.68116e-05
6.18963e-05
2.20067e-05
7.39418e-05
0.000107279
0.000150005
0.000155782
0.000142757
0.000120274
0.000100273
8.70318e-05
7.87032e-05
7.28789e-05
2.4851e-05
6.87692e-05
0.000106323
0.000153292
0.000162449
0.000152948
0.000132105
0.000112716
9.9642e-05
9.13394e-05
8.5553e-05
2.76089e-05
6.48558e-05
0.000105862
0.000152774
0.000164856
0.000159736
0.000141388
0.000123222
0.00011097
0.000103717
9.93821e-05
3.01571e-05
6.20404e-05
0.000105348
0.00015091
0.000165433
0.000164332
0.000148565
0.000132152
0.000120998
0.000114753
0.000111538
3.25397e-05
6.00381e-05
0.000104739
0.000148887
0.000165624
0.000167863
0.000154469
0.000139699
0.000129438
0.000123862
0.000121081
3.45913e-05
5.85616e-05
0.000104061
0.00014722
0.000166179
0.000170943
0.000159794
0.000146448
0.000137049
0.000132428
0.000131164
3.62936e-05
5.73386e-05
0.000103432
0.000145952
0.000167252
0.000174048
0.000164941
0.000152698
0.00014394
0.000140061
0.000139677
3.76305e-05
5.61715e-05
0.000102655
0.000145155
0.000168673
0.000177448
0.000170173
0.000158684
0.000150229
0.000146732
0.000146669
3.86957e-05
5.50027e-05
0.000101706
0.000144631
0.000170298
0.000181157
0.000175617
0.000164605
0.000156111
0.000152738
0.000153219
3.9418e-05
5.36903e-05
0.000100476
0.000144166
0.000172033
0.000185194
0.000181434
0.000170694
0.000161785
0.000158206
0.00015929
3.97054e-05
5.08474e-05
9.68732e-05
0.000141687
0.000172109
0.000188316
0.000187246
0.00017714
0.000167531
0.000163241
0.000164216
3.94887e-05
4.74835e-05
9.06908e-05
0.000135682
0.000167896
0.000187111
0.00019023
0.000182819
0.000173494
0.000168401
0.000168686
3.87352e-05
4.37709e-05
8.21252e-05
0.000125932
0.000159227
0.000180861
0.000188793
0.000186126
0.000179016
0.000173768
0.000173063
3.7439e-05
3.98478e-05
7.17376e-05
0.000112383
0.000145856
0.000169101
0.000181357
0.000184453
0.000181974
0.00017851
0.000177451
3.55093e-05
3.59818e-05
6.07164e-05
9.59463e-05
0.000128055
0.00015193
0.000167145
0.000175215
0.000178546
0.000179537
0.00018045
3.29002e-05
3.2203e-05
5.00666e-05
7.81482e-05
0.000106738
0.000129854
0.00014638
0.000157392
0.000165097
0.000171247
0.000176798
2.95725e-05
2.8401e-05
4.03341e-05
6.06656e-05
8.36183e-05
0.000104098
0.000120185
0.000132066
0.00014137
0.000149929
0.000158969
2.54856e-05
2.43882e-05
3.17448e-05
4.49428e-05
6.11195e-05
7.70422e-05
9.07953e-05
0.000101823
0.000110725
0.000118714
0.000127046
2.06418e-05
1.99541e-05
2.41529e-05
3.17059e-05
4.14284e-05
5.17973e-05
6.16132e-05
7.02137e-05
7.75182e-05
8.38832e-05
8.99163e-05
1.5069e-05
1.45585e-05
1.66929e-05
2.03247e-05
2.50479e-05
3.03472e-05
3.57442e-05
4.08987e-05
4.56271e-05
4.9898e-05
5.38154e-05
9.10004e-06
9.59514e-06
1.15195e-05
1.38887e-05
1.6602e-05
1.94888e-05
2.25317e-05
2.70263e-05
3.31853e-05
4.1143e-05
5.07644e-05
3.16868e-05
0.000162028
0.000268473
0.000366073
0.000412529
0.000407154
0.000403747
0.000462424
0.000570121
0.000658484
0.000647831
2.30246e-05
9.63462e-05
0.000182126
0.000272288
0.000337818
0.0003567
0.000355541
0.000406891
0.00051789
0.000597997
0.000583742
1.817e-05
7.18247e-05
0.000139401
0.000214803
0.000280238
0.000312678
0.000317621
0.000342128
0.000435876
0.00054172
0.000528464
1.47929e-05
6.66117e-05
0.000118732
0.00018068
0.000240052
0.000277292
0.000289109
0.000302173
0.000358542
0.000459182
0.000484198
1.32229e-05
6.88105e-05
0.0001107
0.000161505
0.000213014
0.000250004
0.000266546
0.000276926
0.000309274
0.00038074
0.000427503
1.35897e-05
6.80238e-05
0.000107544
0.000150787
0.000194842
0.000229336
0.000248489
0.000259436
0.000279808
0.000326509
0.000371839
1.36183e-05
6.7577e-05
0.000104522
0.000143883
0.00018252
0.000214052
0.000234471
0.000246958
0.00026242
0.000294322
0.000330818
1.35891e-05
6.63676e-05
0.000102579
0.000138132
0.000174332
0.000203413
0.000224551
0.000239001
0.000253633
0.00027832
0.000306526
1.34565e-05
6.4274e-05
0.000101107
0.00013478
0.000169288
0.000197336
0.000219441
0.000236415
0.000252566
0.000274271
0.000296116
1.32119e-05
6.17804e-05
0.000100419
0.000134174
0.00016833
0.000196553
0.000220502
0.000240611
0.000259052
0.000278799
0.000294905
1.29689e-05
5.95007e-05
0.000101057
0.000137014
0.000171861
0.000201933
0.000228703
0.000251894
0.000271501
0.000287929
0.000297718
1.27822e-05
5.78416e-05
0.00010304
0.000141994
0.000179276
0.000212568
0.000242401
0.000267302
0.000285592
0.000297198
0.000301686
1.26114e-05
5.61487e-05
0.000104488
0.0001469
0.000187682
0.000224502
0.000256552
0.00028125
0.000296617
0.000303856
0.000305225
1.23997e-05
5.40467e-05
0.00010449
0.00014982
0.000193769
0.000233352
0.000266536
0.000290328
0.000303391
0.000308266
0.000308552
1.2094e-05
5.24472e-05
0.000103875
0.000150927
0.000196947
0.000238299
0.000272249
0.000295859
0.00030825
0.000312533
0.000312875
1.16752e-05
5.11624e-05
0.000102833
0.000150734
0.000198045
0.000240796
0.000275938
0.000300519
0.000313469
0.000317693
0.000317657
1.11418e-05
4.96487e-05
0.000100966
0.000149254
0.000197659
0.000242117
0.00027929
0.000305839
0.000319918
0.000323797
0.000322377
1.04349e-05
4.80043e-05
9.84016e-05
0.000146687
0.000196322
0.00024314
0.000283227
0.000312373
0.000327557
0.000330291
0.00032606
9.55067e-06
4.60345e-05
9.49402e-05
0.000143145
0.000194512
0.000244171
0.000287362
0.000319004
0.000334665
0.000334874
0.000325568
8.48222e-06
4.35381e-05
9.09748e-05
0.000139997
0.000192073
0.000239936
0.000281893
0.000315243
0.000333001
0.000332015
0.000317803
7.21712e-06
4.32975e-05
9.40985e-05
0.000133154
0.000151074
0.000165972
0.000198058
0.00024461
0.00028871
0.000302408
0.000293603
7.64917e-06
4.46897e-05
5.75473e-05
5.57721e-05
7.78871e-05
0.000104829
0.000130608
0.000152794
0.000179283
0.00021296
0.000230425
6.03381e-06
1.74002e-05
3.34222e-05
5.9585e-05
9.43837e-05
0.000131675
0.000161986
0.000175244
0.00016682
0.000153029
0.000155082
9.33791e-06
2.52432e-05
5.56991e-05
0.00010069
0.000153042
0.000201907
0.000236263
0.000249403
0.000236063
0.000195585
0.000152516
2.99408e-05
0.000241314
0.000380838
0.000449313
0.000456592
0.000431816
0.000427772
0.000494927
0.000621226
0.00072653
0.000713974
1.71458e-05
0.000168189
0.000333661
0.00043731
0.000475777
0.000465087
0.000454544
0.000516733
0.000664221
0.000807899
0.000827324
1.21681e-05
0.00010131
0.000253977
0.000384753
0.000466352
0.000487019
0.000474316
0.000519339
0.000682005
0.000879008
0.000962436
1.20925e-05
6.53493e-05
0.000184365
0.000319114
0.000430568
0.000488416
0.000482746
0.000494318
0.000650017
0.00089641
0.00106473
1.37657e-05
6.46568e-05
0.000157921
0.000276342
0.000396306
0.000483348
0.000494952
0.000444421
0.000508562
0.000780766
0.00108095
1.56114e-05
7.21943e-05
0.000162677
0.000269716
0.00038352
0.000481902
0.000526467
0.000482254
0.000425893
0.000584578
0.000944443
1.74754e-05
8.19779e-05
0.000175168
0.000277435
0.000384841
0.000486516
0.000552611
0.000538508
0.000447052
0.000451909
0.000754037
1.93587e-05
9.2574e-05
0.000190376
0.000290243
0.000391026
0.000490481
0.000569589
0.000584953
0.000503743
0.000414472
0.000561355
2.11146e-05
0.000103947
0.000207133
0.00030533
0.000398719
0.000490587
0.000573582
0.00061391
0.000558223
0.000439653
0.000436129
2.26878e-05
0.000115903
0.000224215
0.000320809
0.000406482
0.000486667
0.000564468
0.000621259
0.000596428
0.000481301
0.000397445
2.40409e-05
0.000127049
0.00024012
0.000335436
0.000413622
0.000480241
0.000546044
0.000609138
0.000615068
0.000519461
0.000399516
2.52496e-05
0.000137198
0.000255938
0.000348144
0.000419064
0.000472545
0.000523444
0.000584347
0.000616335
0.000545911
0.000415357
2.62729e-05
0.000145981
0.000268419
0.000358461
0.00042207
0.000463988
0.000500281
0.000548622
0.000596935
0.000559947
0.000431579
2.70356e-05
0.000154289
0.000279416
0.000366469
0.000422585
0.000454131
0.000478698
0.000513686
0.000553329
0.000549698
0.000445164
2.74607e-05
0.000161583
0.000288865
0.000372633
0.00042115
0.000442608
0.000455968
0.000478278
0.00050568
0.000513378
0.000456038
2.7548e-05
0.000168341
0.000297681
0.000378118
0.000419003
0.000430495
0.000432712
0.000443113
0.000460776
0.000472091
0.000448397
2.7281e-05
0.000174791
0.000306712
0.000384455
0.000418151
0.000420069
0.000411053
0.000409509
0.000419736
0.000428992
0.000419627
2.65738e-05
0.000181095
0.00031712
0.000394011
0.000421887
0.000415
0.00039467
0.000383968
0.000385505
0.000389629
0.000386053
2.53509e-05
0.00018765
0.000330073
0.000408492
0.000431024
0.000417264
0.000391149
0.000371429
0.000362619
0.00035847
0.00035133
2.33368e-05
0.000190365
0.000333566
0.000413696
0.00043916
0.000425379
0.000394898
0.000368294
0.000353086
0.000345308
0.000338853
1.99024e-05
0.000178679
0.000319535
0.000408324
0.000443389
0.000433288
0.000399432
0.000365932
0.000344589
0.000333978
0.000329511
1.60304e-05
0.000153112
0.00028638
0.000385069
0.000432063
0.000430756
0.000399258
0.000361793
0.00033327
0.000314385
0.000298235
1.17736e-05
0.000108127
0.00023859
0.000341954
0.000399254
0.000410621
0.000389889
0.000355701
0.000321432
0.000288592
0.000245638
7.97695e-06
9.58213e-05
0.000190108
0.000283348
0.000336498
0.000359073
0.000355663
0.00033225
0.000300324
0.000258653
0.000203306
1.63999e-05
1.67839e-05
1.69595e-05
1.7117e-05
1.70733e-05
1.68469e-05
1.63361e-05
1.5644e-05
1.44672e-05
0.000109718
0.000131895
0.000153917
0.000154545
0.00013861
0.000117013
9.28608e-05
6.17537e-05
3.91473e-05
0.000206775
0.000250316
0.000292066
0.000302795
0.000276068
0.000234585
0.000186655
0.000127516
7.86625e-05
0.000298623
0.000355082
0.000406484
0.000424902
0.000391311
0.000339398
0.000272407
0.000187118
0.000113023
1.55845e-05
1.44542e-05
1.27042e-05
9.05314e-06
6.79823e-06
6.39173e-06
5.89934e-06
7.79433e-06
1.22088e-05
8.31537e-05
5.53897e-05
3.48426e-05
2.53684e-05
2.35099e-05
2.85488e-05
2.13419e-05
2.10278e-05
2.56177e-05
0.000162384
0.00010916
6.72661e-05
4.26752e-05
3.37022e-05
4.13555e-05
3.22423e-05
3.26745e-05
4.68758e-05
0.000235748
0.000155873
9.41278e-05
5.82023e-05
4.4671e-05
5.532e-05
4.62111e-05
4.55991e-05
6.66289e-05
0.000195716
0.000229701
0.000229755
8.33596e-05
0.000418323
0.000229384
9.24335e-05
0.000229442
0.000229419
0.000233696
0.000414313
0.000229487
0.0001202
0.000189024
0.000123865
0.000228714
0.000162993
8.4372e-05
0.000228705
0.000228602
0.000229722
2.95811e-05
0.000229974
0.000241948
0.000229354
0.000192506
0.000128035
9.17781e-05
0.000414141
0.000553512
0.000145108
0.000235903
0.000117874
0.000229425
0.000240967
0.000229659
0.000229588
0.000229347
9.8862e-05
0.00022941
1.91797e-05
0.000229461
0.000108685
0.000229949
0.000445031
5.55171e-05
5.23391e-05
0.00010604
0.000239931
0.000229199
0.000549791
0.000229394
0.000401989
0.000109237
0.000229167
0.000229506
2.92027e-05
0.000229405
0.000402382
0.000163008
2.19817e-05
0.000354046
0.000481757
0.000167112
2.62754e-05
0.000228573
0.000645155
0.000230044
0.000229701
0.000233111
0.000189321
0.000233315
6.1742e-05
0.000243491
0.00021961
0.000231756
2.44827e-05
0.000229682
0.000139595
0.000475407
0.000650201
0.000142202
0.000229284
0.000229786
0.000247345
6.26468e-05
0.00036642
0.000283605
4.60449e-05
0.000253332
0.000229481
0.000229391
2.09131e-05
0.000232479
0.000472868
0.000138936
0.000166667
0.000236869
4.44083e-05
0.000236425
0.000251814
0.000107919
0.000229942
0.000236629
4.9347e-05
0.000229487
0.000181637
0.000229866
0.000109406
0.000236222
0.000229365
0.000229512
0.000230654
7.22905e-05
8.1991e-05
0.000229035
0.000229405
0.00022885
0.000229291
0.000229132
6.90338e-05
0.00024118
0.000253473
0.00019053
5.02438e-05
0.000208932
0.000998534
0.0001767
0.000142444
0.000119065
0.000229325
0.000162067
0.00010488
0.00023219
0.000229765
0.000230026
2.38007e-05
0.000107652
0.000545528
0.00024481
0.000109483
0.000231475
0.000239651
0.000167881
0.00022938
3.82543e-05
0.000108783
0.00022983
0.000235586
0.000229028
0.000228945
0.000229236
4.04522e-05
0.000239657
7.96996e-05
6.02237e-05
7.0803e-05
3.04376e-05
0.000169506
0.000228787
0.000217085
4.9417e-05
0.000232825
0.000229139
0.000670475
0.000113523
5.77603e-05
0.000245395
0.000237915
2.5523e-05
0.00015039
0.000159304
0.000232336
0.000229622
0.000235163
0.000220384
0.000153162
3.94502e-05
0.000441153
0.00019978
0.00022955
2.69639e-05
0.000229945
0.000147858
0.000229281
0.000110059
0.000229214
0.000228794
0.000229642
0.000175529
0.000109004
0.000197772
0.000228528
1.83635e-05
0.000229737
0.000228976
0.000229422
4.47033e-05
0.000115956
0.00023
3.4043e-05
0.000229272
0.000111221
0.000143167
0.000229819
0.000292735
0.000231766
0.000142454
0.000229311
0.000228699
0.00029374
0.000229005
0.000175386
0.00023888
0.00022931
0.000307748
0.000229372
5.12738e-05
0.0002291
8.01101e-05
7.52238e-05
6.79735e-05
0.000165937
8.07238e-05
0.000193062
0.000229412
0.000112238
0.000113501
0.000110738
0.000314493
3.25832e-05
0.000228503
0.000229011
0.000242783
3.92265e-05
0.000239273
0.000643263
0.000229893
0.000229518
0.000229476
5.17753e-05
0.000218975
0.000236749
1.6376e-05
0.000233807
5.07523e-05
0.000229366
0.000144107
0.00019337
0.000881527
0.000144063
0.000293904
0.000243111
0.000228628
0.00023403
0.000229433
0.000229494
0.000229295
4.58167e-05
0.000229367
0.000122223
0.000189514
0.000228182
0.000229578
0.000229362
5.15196e-05
0.000231944
0.000233965
0.000159531
0.000179637
0.000201151
0.000229
0.000229275
5.18359e-05
0.00022902
0.000228887
0.000186779
0.000229152
0.000238503
4.88944e-05
0.000234895
0.00022971
0.000648192
0.000603433
0.000233622
0.000228998
0.000309395
0.000229644
0.000238178
0.000101451
0.000229776
0.000100698
0.000249756
8.18163e-05
0.000230003
0.000229361
0.000237917
0.000229543
0.000240548
0.000189193
0.000229251
6.06572e-05
0.000242724
0.000551423
0.000229414
0.000236312
0.000229678
0.000275066
2.62855e-05
0.000229127
5.75842e-05
0.000229537
0.000234119
0.000122032
2.88062e-05
0.000231548
0.000171258
6.42128e-05
0.000228733
0.000236124
0.000229117
0.000541925
0.000228935
0.000192143
0.000115301
0.000236746
0.000229209
0.000207212
0.00022821
0.000667302
0.000232357
0.000480212
2.16025e-05
0.000229944
9.84464e-05
0.000246168
6.95762e-05
0.000229631
0.000229223
0.000238664
4.82395e-05
0.00028089
0.000229247
0.000107975
0.000197789
0.000274938
0.000101124
0.000229036
0.000197365
0.00103396
6.06839e-05
0.000235909
0.000179718
0.000229401
0.000106013
0.000230037
7.25043e-05
0.000206731
0.000229948
0.000736344
0.000136053
0.000186644
0.000229399
0.000229336
0.000229522
5.17819e-05
0.000167883
5.79256e-05
6.8018e-05
0.000254468
0.000229148
0.000114391
0.000230725
0.000193644
0.000112777
0.000229743
0.000152565
0.000240888
0.000228948
0.000228951
0.000511548
0.000228912
3.68793e-05
0.000229383
0.000197876
0.000687054
6.03783e-05
0.000192573
0.000220709
4.68243e-05
0.000229237
4.53141e-05
0.000185756
0.000250298
0.000680938
2.6305e-05
0.000229288
0.000228858
0.000229827
8.76108e-05
4.58564e-05
0.000228985
0.000229993
0.000101818
0.000101569
2.34109e-05
0.000104036
0.000136968
0.00022927
0.000546589
0.000239653
0.000228672
0.000117867
0.000119575
4.98018e-05
0.000233959
0.000109055
0.00025119
0.000181777
4.94221e-05
0.000305759
0.000148837
8.88237e-05
0.000110255
0.000227355
0.000235436
0.000242104
7.42552e-05
0.000182105
3.43489e-05
0.000229267
3.71108e-05
0.000207685
0.000228601
0.000229234
6.22943e-05
0.000296388
0.000514726
0.000190051
0.000230037
0.000236726
0.000356212
0.000107206
6.03397e-05
0.000233321
6.58882e-05
0.000207047
2.60038e-05
0.000228734
4.0937e-05
0.000229235
0.000229732
0.000229333
4.97518e-05
9.13075e-05
6.64023e-05
0.000152107
3.21829e-05
8.17063e-05
0.000229635
0.000228723
0.00102087
0.000181731
0.000234066
0.000237885
4.13292e-05
4.53114e-05
2.96835e-05
2.93526e-05
0.000232121
0.000211923
5.25492e-05
0.000229312
2.19859e-05
0.000235644
0.000229622
0.000229027
8.05632e-05
3.57106e-05
0.000229083
0.000229184
0.000229785
0.000267427
2.63703e-05
0.00022989
4.06483e-05
0.00036211
0.000156564
6.00314e-05
0.000228707
3.91666e-05
0.000228973
0.000235086
0.000229402
0.000124544
0.000149502
0.000228552
0.000193793
0.000169013
0.000233504
0.000223201
0.000207115
0.000229415
0.000229434
0.000228808
6.18426e-05
5.73224e-05
0.000232655
9.42144e-05
0.00022976
0.000437403
0.000104794
4.45772e-05
0.000108411
0.00025142
0.000636335
7.5695e-05
0.000193561
0.000229179
0.000184244
0.000228828
0.000229698
0.000229105
0.000229576
0.000234341
0.000487154
0.000229348
0.000228762
0.000159399
0.000229265
3.94688e-05
0.000242537
0.000235032
0.000176156
4.76006e-05
0.000229994
0.000229283
0.000229898
1.75613e-05
3.5624e-05
0.000229319
0.000229334
0.000190264
0.000229789
0.000100504
0.000229733
0.000823262
0.000237186
3.19753e-05
9.29125e-05
0.000130102
6.24793e-05
0.000466195
0.000229464
0.000232056
0.000235169
0.000229725
6.23822e-05
2.57279e-05
0.000223793
0.000129926
0.000131812
0.000102086
0.000229356
0.000229503
0.000229688
0.00020885
0.000690735
8.40966e-05
0.000229448
0.00022933
0.000608748
0.000230606
9.70213e-05
0.000136893
0.000159276
0.000305621
0.000229293
8.86103e-05
0.000229245
7.57996e-05
0.000229412
0.000216577
0.000148788
0.000234843
2.99395e-05
0.000129442
0.0002299
0.000229994
0.000462161
0.00022902
0.000183458
0.00010598
8.21296e-05
0.000209422
4.80903e-05
0.000152079
0.000231194
0.000229318
0.000229249
0.000145075
5.21666e-05
0.000112834
0.000228568
0.000229375
8.92929e-05
0.00022948
0.000234519
0.000236988
0.000233609
0.000109067
5.53732e-05
8.21975e-05
0.000159959
0.000233686
0.000233622
0.000228623
0.000145345
0.00023157
0.000229242
0.000194539
0.000375651
0.000228969
0.000228929
2.34416e-05
0.000229976
0.000228693
0.000147682
0.000229736
0.000235057
9.34661e-05
8.58184e-05
0.00015857
0.000183074
0.000158161
6.89459e-05
0.000395548
7.10211e-05
0.000107951
0.000180288
5.3408e-05
7.2719e-05
0.000128817
0.000229763
0.000230454
0.000114201
0.000230297
0.000229421
0.000244863
0.000207711
0.000106279
0.000184277
0.000193103
0.000244106
0.000229186
0.000196036
0.000229514
0.000228863
0.000236735
7.79602e-05
0.000231845
0.000233504
0.000231225
0.000229664
0.000130538
6.22173e-05
0.000301233
0.000231821
0.000230048
0.000189829
0.000104901
0.000234871
0.000167584
0.000231439
0.000228421
0.000566696
0.000229253
6.19246e-05
0.000229915
0.000121946
0.0001368
0.000106006
0.000162323
0.000215285
0.000246571
0.000229821
0.000100057
0.000181952
4.67272e-05
0.000959513
0.000229002
0.000233827
0.000229806
0.000161002
0.000229865
4.21363e-05
0.000229497
0.000229421
0.000229007
0.000127964
6.73475e-05
0.000229547
0.000128327
0.000229218
0.000112433
0.000169627
0.000231264
0.000115335
1.5927e-05
8.15198e-05
0.000236816
0.000198729
0.000136868
0.000118292
0.000131472
9.04135e-05
0.00022922
0.000148094
0.000229332
0.000232239
5.33246e-05
0.000184424
3.82457e-05
0.000189044
0.000230415
0.00023527
0.00022915
5.71568e-05
0.000229621
0.00107402
8.92255e-05
0.000797445
0.000234514
0.000138754
0.000148112
0.000209935
0.000242196
0.000120143
3.76663e-05
6.09527e-05
0.00022941
0.000186544
0.000130133
0.000229499
4.22499e-05
0.000118584
0.000243186
0.000224657
0.000229349
0.000234068
0.000235189
0.000129913
0.000235651
0.000192634
0.000229583
0.000121811
0.000234251
8.56243e-05
6.16987e-05
0.00032691
0.000109863
0.00022879
0.000266074
6.21528e-05
0.000229224
0.000192341
0.000188019
7.14276e-05
0.000243164
3.02118e-05
0.000246864
8.27498e-05
9.28641e-05
0.000252597
0.000228847
0.000247412
0.000229168
0.000109807
2.29718e-05
0.000230042
0.000229275
0.000252305
0.000362817
0.000502116
0.000151845
0.000229582
0.000145058
0.000253194
0.000229509
0.000229609
0.000229828
0.000229324
0.0002336
0.00015801