/*--------------------------------*- C++ -*----------------------------------*\
| =========                 |                                                 |
| \\      /  F ield         | OpenFOAM: The Open Source CFD Toolbox           |
|  \\    /   O peration     | Version:  3.0.1                                 |
|   \\  /    A nd           | Web:      www.OpenFOAM.org                      |
|    \\/     M anipulation  |                                                 |
\*---------------------------------------------------------------------------*/
FoamFile
{
    version     2.0;
    format      ascii;
    class       volScalarField;
    location    "0.740347";
    object      p;
}
// * * * * * * * * * * * * * * * * * * * * * * * * * * * * * * * * * * * * * //

dimensions      [0 2 -2 0 0 0 0];

internalField   nonuniform List<scalar> 
21246
(
15.798
9.46904
6.35072
5.02794
4.35972
4.02971
3.79622
3.57456
3.34955
3.1482
3.04061
23.9755
20.2115
16.1258
12.8931
10.3639
8.49259
7.13336
6.11579
5.32311
4.72254
4.32786
20.8592
20.6441
18.9722
16.5944
14.1008
11.824
9.90161
8.34882
7.12429
6.18773
5.55642
18.0334
18.6752
18.2727
17.2996
15.7915
13.9333
12.031
10.2967
8.81179
7.5906
6.68351
15.9244
16.9016
16.963
16.7679
15.9928
14.7485
13.2205
11.6135
10.0771
8.71647
7.65816
13.9979
15.0483
15.1776
15.3792
15.1597
14.4951
13.4462
12.1561
10.7782
9.45537
8.35376
12.52
13.3029
13.573
13.8768
13.9198
13.6381
13.0042
12.0769
10.9632
9.79664
8.74487
11.506
12.0396
12.2721
12.5643
12.696
12.6101
12.2501
11.6191
10.7703
9.81114
8.91495
10.6821
11.1005
11.2605
11.4965
11.6316
11.6244
11.4165
10.987
10.3509
9.57834
8.82321
9.87407
10.2592
10.4036
10.6075
10.7273
10.7454
10.6144
10.3093
9.82617
9.20381
8.56714
9.30468
9.61967
9.71218
9.87153
9.96172
9.97752
9.88002
9.64678
9.26603
8.75858
8.23717
8.99382
9.16858
9.18022
9.2745
9.31686
9.30959
9.21787
9.0223
8.70876
8.28665
7.85029
8.63037
8.73683
8.71171
8.75789
8.75529
8.71799
8.61657
8.43651
8.16488
7.80402
7.4359
8.18226
8.28325
8.25457
8.27293
8.23716
8.17291
8.05665
7.8802
7.63357
7.31266
6.99032
7.91167
7.92404
7.84344
7.81676
7.74413
7.65246
7.51942
7.34161
7.11288
6.82527
6.5414
7.5871
7.5392
7.42689
7.36292
7.25593
7.13785
6.98851
6.80872
6.59578
6.33806
6.08652
7.13987
7.08322
6.97025
6.88368
6.75038
6.61039
6.44896
6.27085
6.0757
5.84857
5.62598
6.76567
6.65361
6.50637
6.38161
6.21872
6.05915
5.89247
5.72414
5.55249
5.36007
5.17536
6.36859
6.19013
6.00243
5.83562
5.64489
5.47357
5.31521
5.17094
5.0325
4.87902
4.72774
5.8793
5.6321
5.40976
5.2107
5.00814
4.84752
4.72246
4.62207
4.52682
4.41281
4.27849
5.28132
4.953
4.69993
4.4881
4.30681
4.19717
4.13947
4.1015
4.05373
3.97714
3.86563
4.55414
4.1149
3.86216
3.68406
3.58467
3.58136
3.61934
3.64588
3.63563
3.58466
3.49497
3.38019
3.12722
2.88956
2.84642
2.93157
3.08516
3.21433
3.27853
3.28157
3.23458
3.12695
4.13461
2.33222
2.46085
2.63278
2.81996
2.99006
3.06309
3.05917
3.02099
2.95239
2.81234
-31.0977
-12.596
-6.02679
-2.63252
-0.792869
0.287491
0.882077
1.23597
1.45001
1.57896
1.7262
-53.0397
-32.5696
-23.1086
-15.2183
-9.06369
-5.20576
-2.96861
-1.6119
-0.737943
-0.155856
0.312121
-49.1766
-41.3502
-35.4495
-26.9815
-18.6294
-12.3042
-7.96417
-5.15586
-3.32376
-2.08953
-1.18915
-41.0957
-40.3663
-38.3266
-32.6463
-25.428
-18.594
-13.0284
-8.95205
-6.12034
-4.16991
-2.74411
-34.8011
-36.0925
-35.7897
-32.9419
-28.1196
-22.356
-16.8505
-12.2497
-8.73403
-6.16859
-4.28015
-30.9912
-32.311
-32.282
-30.8965
-27.9176
-23.6084
-18.9045
-14.5056
-10.7815
-7.8603
-5.64891
-28.3766
-29.4149
-29.3387
-28.5326
-26.5349
-23.3212
-19.5078
-15.6439
-12.09
-9.07101
-6.69643
-26.2848
-27.1068
-26.9818
-26.4119
-24.8915
-22.3579
-19.2359
-15.9117
-12.6908
-9.77823
-7.30592
-24.4689
-25.1416
-24.9887
-24.5302
-23.2586
-21.1424
-18.5045
-15.6194
-12.7349
-10.0471
-7.65134
-22.7933
-23.3557
-23.1807
-22.7838
-21.6608
-19.8205
-17.5254
-14.9822
-12.3903
-9.92078
-7.66831
-21.1994
-21.6716
-21.4902
-21.1349
-20.1048
-18.4519
-16.4016
-14.1219
-11.7773
-9.51326
-7.401
-19.6832
-20.041
-19.874
-19.5326
-18.5619
-17.0492
-15.1817
-13.107
-10.969
-8.89646
-6.96459
-18.2257
-18.4626
-18.3369
-17.9676
-17.031
-15.6263
-13.8947
-11.9775
-10.0092
-8.10534
-6.33679
-16.8228
-16.9565
-16.8317
-16.4426
-15.5265
-14.2047
-12.5658
-10.7624
-8.92893
-7.17564
-5.55064
-15.4668
-15.5012
-15.3449
-14.9264
-14.0782
-12.7821
-11.2008
-9.47603
-7.74724
-6.12787
-4.65042
-14.1494
-14.0979
-13.9035
-13.4621
-12.6237
-11.3611
-9.79942
-8.1201
-6.47345
-4.98031
-3.67938
-12.8678
-12.7444
-12.5087
-12.0435
-11.1945
-9.92633
-8.3534
-6.68702
-5.10998
-3.74049
-2.56744
-11.6308
-11.4317
-11.1535
-10.6573
-9.77724
-8.45965
-6.83731
-5.15934
-3.66436
-2.44109
-1.42092
-10.4268
-10.1543
-9.82803
-9.28239
-8.33286
-6.91451
-5.20498
-3.51569
-2.16996
-1.12646
-0.273093
-9.24561
-8.89097
-8.50305
-7.86461
-6.78519
-5.21536
-3.43052
-1.81606
-0.616938
0.135391
0.813163
-8.05685
-7.60733
-7.11902
-6.33187
-5.04512
-3.3233
-1.5469
-0.119964
0.795118
1.25061
1.85448
-6.22139
-5.88329
-5.46094
-4.42222
-2.85129
-1.04685
0.537794
1.51646
1.96348
2.14783
2.41757
-5.03504
-5.64345
-4.5574
-2.96431
-1.07689
0.577604
1.69846
2.27486
2.50399
2.60948
2.77713
-9.41113
-2.65188
-0.548421
0.778511
1.89927
2.55452
2.79438
2.82784
2.80221
2.74783
2.59911
-1.96643
2.47631
3.42373
3.45207
3.05136
2.55405
2.07519
1.64408
1.26328
0.948833
0.783513
-24.1612
-11.4728
-6.97137
-3.41899
-1.34973
-0.3595
0.0453463
0.160346
0.140832
0.0709487
0.0412512
-27.6496
-19.4921
-15.928
-10.8537
-6.96665
-4.32784
-2.70355
-1.76913
-1.24808
-0.947402
-0.73236
-23.8172
-20.8841
-19.3183
-15.0986
-11.3587
-8.09901
-5.62341
-3.92495
-2.81819
-2.09842
-1.59048
-19.473
-18.7882
-18.4261
-15.8953
-13.306
-10.4308
-7.86288
-5.81541
-4.30646
-3.23754
-2.46031
-16.2125
-16.1481
-16.1265
-14.7769
-13.2463
-11.1383
-9.00033
-7.04896
-5.43285
-4.18274
-3.22497
-13.6888
-13.8363
-13.8523
-13.1029
-12.2068
-10.7625
-9.16825
-7.5479
-6.06249
-4.80584
-3.77335
-11.5869
-11.838
-11.8505
-11.4234
-10.8772
-9.88933
-8.73761
-7.47165
-6.22283
-5.08713
-4.10647
-9.95724
-10.124
-10.1286
-9.89158
-9.54657
-8.86105
-8.0269
-7.05317
-6.03888
-5.06109
-4.17236
-8.71217
-8.76316
-8.7409
-8.58835
-8.34392
-7.84889
-7.22961
-6.47511
-5.65683
-4.83165
-4.04265
-7.67286
-7.64871
-7.61099
-7.49594
-7.30173
-6.92395
-6.44467
-5.84699
-5.18154
-4.49179
-3.82733
-6.81137
-6.70389
-6.65328
-6.55956
-6.39843
-6.09786
-5.71081
-5.22281
-4.67075
-4.08437
-3.50143
-6.15735
-5.96052
-5.89179
-5.79286
-5.63913
-5.37959
-5.04631
-4.62951
-4.1575
-3.6522
-3.1389
-5.65855
-5.39645
-5.30928
-5.18967
-5.02268
-4.77258
-4.45948
-4.08076
-3.66074
-3.21971
-2.78723
-5.24058
-4.92865
-4.82109
-4.67651
-4.49384
-4.2424
-3.93307
-3.57137
-3.1823
-2.78538
-2.39863
-4.87906
-4.53647
-4.40512
-4.2319
-4.02972
-3.76658
-3.44856
-3.08838
-2.71513
-2.35143
-2.01319
-4.56118
-4.19669
-4.04426
-3.84524
-3.61589
-3.33205
-2.99258
-2.61992
-2.25191
-1.91626
-1.6228
-4.25357
-3.88058
-3.70508
-3.48106
-3.22489
-2.91396
-2.54335
-2.14965
-1.78318
-1.47618
-1.22824
-3.94355
-3.5706
-3.37757
-3.13379
-2.84705
-2.49644
-2.08113
-1.66275
-1.3031
-1.03252
-0.844367
-3.63733
-3.27072
-3.06633
-2.80284
-2.4714
-2.05708
-1.58887
-1.15021
-0.813517
-0.592097
-0.458116
-3.32553
-2.98177
-2.76813
-2.46966
-2.06437
-1.56436
-1.04876
-0.621023
-0.342116
-0.178728
-0.0842664
-2.94782
-2.6989
-2.45059
-2.07168
-1.55792
-0.984327
-0.47587
-0.126464
0.0673347
0.162287
0.226987
-2.82098
-2.51707
-2.11303
-1.56611
-0.951485
-0.387138
0.0213861
0.240746
0.353037
0.434477
0.629099
-2.2351
-1.42147
-0.883501
-0.376123
0.0343045
0.293841
0.382035
0.366348
0.330583
0.305385
0.367633
21.6307
15.258
10.9781
8.08902
6.12368
4.72602
3.69247
2.88389
2.22984
1.72009
1.39419
17.1566
16.9884
14.6833
11.8641
9.23038
7.1006
5.44709
4.16526
3.16652
2.40977
1.94482
11.1017
13.0903
13.0222
12.1913
10.4369
8.41199
6.57628
5.0567
3.85886
2.94711
2.3472
5.73591
8.76333
9.61939
10.0452
9.55727
8.36529
6.95192
5.56261
4.3324
3.34189
2.67807
1.96387
4.81991
5.88323
7.1298
7.5755
7.32984
6.54012
5.49749
4.42752
3.49696
2.85392
-0.497801
1.86597
2.72302
4.2229
5.09581
5.49705
5.33242
4.81975
4.09932
3.35323
2.80367
-2.06179
-0.12503
0.43204
1.92236
2.83328
3.58341
3.86101
3.76305
3.38113
2.90947
2.52244
-2.99922
-1.40139
-1.15709
0.308664
1.02606
1.89492
2.4088
2.61914
2.54873
2.31258
2.07327
-3.71074
-2.26474
-2.28168
-0.920497
-0.277802
0.553
1.14651
1.53493
1.68728
1.6656
1.59753
-4.30315
-3.09552
-2.89156
-1.90991
-1.2725
-0.490208
0.119346
0.597221
0.890989
1.02849
1.0961
-4.73879
-3.82924
-3.4491
-2.61958
-2.02229
-1.29135
-0.688443
-0.168417
0.209647
0.452227
0.626315
-5.00574
-4.24586
-3.88326
-3.13591
-2.57619
-1.8917
-1.30481
-0.767559
-0.340052
-0.0272717
0.211218
-5.22682
-4.51372
-4.18055
-3.49308
-2.96686
-2.32054
-1.75266
-1.21237
-0.758688
-0.400882
-0.113172
-5.43017
-4.70305
-4.37492
-3.7217
-3.21886
-2.60175
-2.05169
-1.51627
-1.05253
-0.672915
-0.359453
-5.42501
-4.75316
-4.45761
-3.83674
-3.352
-2.75811
-2.22202
-1.69508
-1.23114
-0.843472
-0.526446
-5.36152
-4.72482
-4.44869
-3.85517
-3.38041
-2.80597
-2.27895
-1.76206
-1.30418
-0.917763
-0.60448
-5.27894
-4.64742
-4.36802
-3.79166
-3.31474
-2.7539
-2.23154
-1.72604
-1.28012
-0.905068
-0.6049
-5.1107
-4.49148
-4.20626
-3.64483
-3.15675
-2.60391
-2.08424
-1.59355
-1.16776
-0.816631
-0.542085
-4.86244
-4.25524
-3.95758
-3.40775
-2.90162
-2.35298
-1.83896
-1.37096
-0.976771
-0.661926
-0.41749
-4.54736
-3.94279
-3.61792
-3.07126
-2.54135
-1.99689
-1.49914
-1.06822
-0.720634
-0.455785
-0.258793
-4.15277
-3.53754
-3.16768
-2.61595
-2.06531
-1.53622
-1.07693
-0.703907
-0.418433
-0.211913
-0.0636886
-3.63505
-2.99635
-2.56142
-2.00816
-1.46312
-0.981117
-0.594588
-0.301549
-0.0887366
0.0617122
0.156991
-3.0628
-2.29623
-1.80286
-1.29858
-0.818281
-0.427714
-0.141107
0.0677612
0.218673
0.313539
0.357868
-1.64753
-1.0145
-0.636825
-0.310633
-0.0220595
0.183452
0.33474
0.478588
0.614875
0.703316
0.607488
-8.8117
-4.53227
-2.68443
-1.67743
-0.912768
-0.402056
-0.118743
0.0407104
0.124466
0.169672
0.226348
-9.17776
-6.53203
-5.06142
-3.71722
-2.46709
-1.55369
-0.970773
-0.604876
-0.383417
-0.243532
-0.133776
-7.00523
-6.62888
-6.05242
-5.05252
-3.86245
-2.77372
-1.92845
-1.33625
-0.942577
-0.676059
-0.480279
-5.93293
-6.00226
-5.82098
-5.29761
-4.49522
-3.56588
-2.68715
-1.98023
-1.45758
-1.08774
-0.818116
-5.30115
-5.35919
-5.29298
-5.03336
-4.54225
-3.8558
-3.09639
-2.40433
-1.84622
-1.41943
-1.09221
-4.79718
-4.80666
-4.76605
-4.61643
-4.30512
-3.81904
-3.22061
-2.61687
-2.08423
-1.6458
-1.2898
-4.36063
-4.33451
-4.2926
-4.17893
-3.96126
-3.60982
-3.15108
-2.6533
-2.18063
-1.76467
-1.40677
-4.00818
-3.94031
-3.8904
-3.77681
-3.60084
-3.32951
-2.97286
-2.57036
-2.16737
-1.79313
-1.45833
-3.73479
-3.63021
-3.56118
-3.43935
-3.27551
-3.04575
-2.75468
-2.4244
-2.08326
-1.75244
-1.44291
-3.52518
-3.39127
-3.30657
-3.17302
-3.00722
-2.79466
-2.54097
-2.25825
-1.96345
-1.67062
-1.3893
-3.35934
-3.20244
-3.10904
-2.96276
-2.79065
-2.5845
-2.35016
-2.09532
-1.83087
-1.56626
-1.31067
-3.22135
-3.04638
-2.94886
-2.79137
-2.61371
-2.40947
-2.18366
-1.94308
-1.69599
-1.44902
-1.20922
-3.10693
-2.91655
-2.81478
-2.64936
-2.46677
-2.26108
-2.03699
-1.80142
-1.56216
-1.32552
-1.09918
-3.01116
-2.80752
-2.70084
-2.52969
-2.34139
-2.13163
-1.90443
-1.66715
-1.42849
-1.19554
-0.973224
-2.9245
-2.71029
-2.6007
-2.42438
-2.22963
-2.0135
-1.77926
-1.53517
-1.29172
-1.05987
-0.842884
-2.84624
-2.62311
-2.51033
-2.32901
-2.1266
-1.90118
-1.65559
-1.39997
-1.14845
-0.914886
-0.704164
-2.77561
-2.54539
-2.42852
-2.24249
-2.03043
-1.79141
-1.52865
-1.256
-0.993238
-0.758088
-0.552966
-2.70928
-2.47496
-2.35561
-2.16492
-1.94029
-1.68107
-1.39297
-1.09727
-0.822521
-0.591003
-0.402272
-2.64734
-2.41373
-2.29417
-2.09884
-1.85604
-1.56536
-1.24062
-0.916831
-0.63387
-0.415669
-0.252099
-2.5926
-2.36851
-2.2523
-2.04838
-1.77227
-1.42954
-1.05481
-0.70439
-0.428121
-0.23933
-0.112094
-2.5533
-2.34291
-2.24627
-2.02416
-1.71244
-1.31063
-0.868237
-0.477022
-0.213013
-0.0782133
-0.00196453
-2.49198
-2.4337
-2.36136
-2.10278
-1.66862
-1.17121
-0.697417
-0.311044
-0.0598051
0.042712
0.0649841
-2.69722
-2.92239
-2.35993
-1.88812
-1.40816
-0.938366
-0.54165
-0.246068
-0.0566118
0.0334355
0.0531298
-4.0159
-1.8235
-1.59809
-1.21815
-0.870565
-0.603573
-0.408888
-0.271039
-0.180064
-0.122992
-0.0754697
-0.577107
-0.86848
-0.679534
-0.320856
0.0440425
0.339468
0.510583
0.572245
0.567945
0.546878
0.563611
2.30208
1.73053
1.3142
1.14213
1.14804
1.2065
1.21595
1.14571
1.02313
0.903531
0.863852
2.71483
2.5195
2.29683
2.0888
1.97033
1.91315
1.8324
1.67075
1.44267
1.21388
1.09684
2.5761
2.48489
2.41895
2.32252
2.24592
2.2008
2.14096
1.98494
1.71863
1.42477
1.26733
2.31773
2.21935
2.18133
2.12272
2.07296
2.04391
2.02583
1.95779
1.77578
1.4971
1.28316
2.02273
1.88618
1.8323
1.75034
1.67437
1.61791
1.59169
1.5966
1.55252
1.38415
1.19861
1.72208
1.53384
1.44858
1.31874
1.18781
1.06714
0.981703
0.974067
1.02505
1.00697
0.928609
1.41872
1.17993
1.05895
0.869676
0.671097
0.467983
0.288255
0.188349
0.221672
0.331911
0.408795
1.12975
0.836628
0.683012
0.428804
0.157562
-0.13781
-0.430309
-0.652812
-0.718199
-0.587582
-0.337932
0.880887
0.506242
0.344046
0.0205959
-0.322213
-0.710538
-1.12137
-1.48013
-1.67785
-1.61714
-1.2627
0.665043
0.209743
0.0738566
-0.334128
-0.742981
-1.21564
-1.73394
-2.23131
-2.57587
-2.61578
-2.27436
0.480003
0.0247928
-0.197991
-0.614149
-1.08261
-1.62574
-2.23033
-2.84526
-3.32242
-3.48229
-3.21603
0.347346
-0.102198
-0.383902
-0.811212
-1.32169
-1.918
-2.58596
-3.27909
-3.86258
-4.12019
-3.87858
0.286188
-0.153201
-0.469491
-0.905534
-1.43657
-2.06242
-2.76765
-3.50297
-4.14933
-4.47633
-4.32712
0.288527
-0.125626
-0.454247
-0.886061
-1.41675
-2.04666
-2.75737
-3.49692
-4.15932
-4.54568
-4.4819
0.360868
-0.0149958
-0.339499
-0.753948
-1.26734
-1.88075
-2.57054
-3.28532
-3.92371
-4.32798
-4.36706
0.508063
0.179275
-0.128894
-0.515979
-0.998496
-1.57702
-2.22459
-2.89247
-3.48515
-3.85923
-3.90391
0.722142
0.442998
0.158069
-0.195397
-0.633729
-1.15704
-1.75257
-2.36123
-2.88247
-3.21283
-3.29013
0.977099
0.742132
0.482567
0.170387
-0.213079
-0.678073
-1.20492
-1.74167
-2.19015
-2.4592
-2.49697
1.23071
1.03656
0.809301
0.538912
0.203936
-0.211857
-0.682988
-1.14461
-1.50657
-1.68284
-1.61584
1.47598
1.31772
1.10391
0.831173
0.483986
0.0808869
-0.331168
-0.704271
-0.965845
-1.03914
-0.885102
1.67284
1.49547
1.2244
0.867461
0.47301
0.0929179
-0.238638
-0.493183
-0.653782
-0.669642
-0.5406
1.65171
1.40682
0.960782
0.505539
0.12832
-0.136686
-0.313594
-0.431383
-0.500229
-0.486811
-0.35211
1.63415
0.718828
0.162717
-0.187274
-0.347279
-0.396219
-0.405027
-0.405334
-0.394195
-0.351344
-0.261056
-0.593724
0.44101
1.05069
1.29992
1.03442
0.0980287
-1.0023
-1.61751
-1.57052
-0.378006
0.404063
0.90218
1.10648
0.890809
0.143378
-0.647515
-1.12361
-1.12658
-0.329687
0.334968
0.753098
0.928132
0.751242
0.130173
-0.597724
-1.02997
-1.02585
-0.277812
0.278322
0.630859
0.767279
0.606804
0.100718
-0.4816
-0.809477
-0.844337
-1.53806
-1.76234
-1.32002
-0.703944
-0.447262
-0.440358
-0.51746
-0.674774
-1.06924
-0.994966
-1.23422
-0.962589
-0.602693
-0.471663
-0.44975
-0.508639
-0.608605
-0.809611
-0.953343
-1.11872
-0.882308
-0.543015
-0.441447
-0.433553
-0.494044
-0.564468
-0.751621
-0.695708
-0.899066
-0.746876
-0.466167
-0.400502
-0.401914
-0.441823
-0.507976
-0.655497
2.48106
2.87145
2.87489
-0.18271
-0.256794
2.89261
-0.363676
2.47498
2.88379
2.67992
-0.278224
2.48149
-0.195651
-0.0787153
2.47251
1.57929
-0.0553528
-0.176622
1.57995
2.5271
1.16419
-0.514881
1.9639
-0.174046
2.91621
-0.0771677
-0.189638
-0.36906
-1.06578
-0.258438
-0.05588
1.03775
-0.0598298
1.83146
0.977995
2.88578
-0.165163
2.92591
-0.0636744
2.49909
-1.2399
1.84248
-0.1387
1.97592
-0.286097
-0.566525
-0.115633
-0.32316
1.5305
2.53581
-0.266421
2.50772
-0.00989951
-0.129503
2.49786
1.17616
-0.51855
2.45337
-1.04467
-0.0951451
-0.267648
-0.0184655
-0.278771
-0.250257
-1.19347
2.52254
-0.253358
2.80181
2.88088
2.68394
-0.108796
3.63018
-0.191709
4.67976
-0.141277
3.57863
-0.536484
1.88231
-0.301038
-0.356251
-0.0576553
-0.250138
2.57555
2.59516
-0.0146638
-0.183839
-0.653991
-0.0222701
-0.325769
-0.0767218
2.91256
2.43493
-1.15437
4.22094
-0.431118
-0.292041
-0.118452
-0.0849078
-0.29787
3.83371
0.203247
-0.330947
2.4451
0.403891
-0.268158
2.85804
-0.00636314
2.57517
-0.0161611
0.572365
2.01215
1.83404
3.73769
-0.210801
-0.0933033
2.55088
2.43688
1.75261
2.56772
2.22357
-0.218362
4.33678
-0.114674
-0.0674208
-0.617355
-0.121333
0.032456
-0.00616342
-0.00249857
-0.0152329
2.19975
-0.0921516
-0.330896
3.5649
2.8671
-0.139209
-0.513098
-0.246339
-0.202756
1.6548
-0.126833
0.991474
-0.315804
1.71795
2.40054
-0.222334
-0.281263
2.75154
2.98574
1.7918
2.01769
2.91747
-0.220295
4.4022
-0.202126
-0.125458
-0.151462
-0.368741
-0.0647828
2.70974
-0.0825218
-0.282725
3.63916
2.73784
-0.224165
-0.0862174
-0.323035
0.946891
-0.104756
-1.12839
-0.0497773
-0.0189152
-0.106475
0.947076
1.10076
1.09085
-0.00470548
-0.235449
-0.328491
1.18017
2.65332
-0.538422
2.86241
-0.222943
2.79071
-0.22775
2.02056
1.71242
2.79701
-0.294519
-0.0216228
-0.0968989
2.41855
-1.15996
2.87907
2.86475
3.04571
-0.303872
-0.0156057
2.5533
-0.257248
2.73139
-0.0603562
-0.0823871
2.8668
-0.0058089
4.15372
-0.000777212
2.66563
2.46587
-0.0725079
1.70181
0.810175
1.14536
1.89216
-0.0711739
2.94323
-0.088337
2.16451
-0.142084
-0.0342266
-0.209143
-0.123914
-0.0994205
-0.0570435
2.34509
-0.195992
-0.0600191
-0.0159882
-0.26704
-0.34682
2.38828
2.03755
4.09898
-0.220379
-0.157157
-0.195722
2.86474
2.23846
2.25124
-0.0584862
-0.221536
0.346672
-1.0349
3.76709
-0.310358
1.8115
-0.11463
-0.254115
-0.0148923
-0.108991
-0.0880401
0.697392
2.74512
0.198704
3.00568
1.27708
2.93779
-0.23776
1.9914
-0.00483974
-0.232716
2.43774
1.93236
1.99289
-0.121784
0.940592
2.81532
-0.00675564
0.049201
-0.224447
2.15269
2.81086
-0.121088
3.12753
1.75125
-0.0876125
3.0077
1.73367
-0.277287
3.71795
2.61426
-0.0590349
-0.15365
0.25102
3.03613
-0.26211
2.33237
1.5657
-0.159932
2.17766
-0.351128
0.714451
-0.0933532
2.86322
2.64191
-0.10194
1.99574
1.07688
-0.104634
2.7153
-0.23969
1.36485
-0.24464
1.32008
0.520953
1.9192
0.0308485
-0.529181
2.06237
-0.441476
2.84613
0.485354
-0.0462326
-0.595618
1.83536
-0.156022
-0.281233
2.12213
4.70025
1.93185
0.0475601
1.71261
-0.126806
-0.269014
1.01814
1.82243
-0.146116
2.36413
-0.0316903
2.42644
-0.277113
-0.493504
2.76017
-0.180819
-0.232409
-0.170377
1.93266
2.97279
-0.0713943
-0.353915
-0.0658167
2.76469
-0.118548
-0.230952
0.0261958
-0.0760557
1.77654
-0.183663
0.0415073
-0.432461
-0.0794607
0.0774769
1.37036
-0.0422601
2.55169
-0.0280265
1.54222
1.94587
-0.0396745
0.0626323
-0.08562
2.93383
2.57057
3.42034
-0.32388
-0.0193402
-0.135464
-0.401533
0.116867
3.01681
-0.218443
-0.252807
-0.0454682
-0.0591486
2.15932
0.252745
0.945221
3.06766
1.8014
-0.0755524
2.9079
-0.234529
2.29864
-0.0948539
-0.168794
-0.224735
-0.0556269
-0.216508
-0.343902
2.90019
-0.438152
-0.020475
3.22309
-0.173623
-1.21969
1.89858
1.8757
2.59551
-0.0839634
-0.240994
2.54542
2.75409
-0.131356
-0.0093052
-1.52756
-0.325703
-0.000986995
2.6863
0.0514959
1.15961
1.55655
-0.0613633
-0.0571798
-0.202105
0.417371
-0.0253018
4.63769
-0.0184867
-0.400992
-0.218145
-0.0178545
-0.364647
-0.000946551
1.03704
0.644736
4.54478
-0.0123592
-0.164451
-1.03921
1.7918
-0.272635
-0.103062
2.024
-0.113065
-0.076678
-0.213054
-0.221434
-0.0716543
1.76754
0.149019
-0.482345
-0.144626
-0.229815
1.4064
-0.148668
-0.0961328
-0.428671
2.82401
-0.303124
2.8764
2.59597
2.95267
-0.373863
-0.311645
-0.406274
-0.0515899
-0.314412
-0.00542077
2.72509
2.85284
0.0300796
-0.0438705
0.173121
1.28988
-0.00677579
-0.00582442
2.54053
1.72114
2.47029
1.04755
-0.240234
1.69029
-0.343042
1.31638
2.18601
2.12975
2.47036
-0.289464
2.0046
2.65684
1.20551
-0.248293
-0.528469
1.93854
-0.205494
-0.252982
1.78353
-0.103204
2.60716
-0.270765
2.89327
1.37483
2.32311
-0.00193601
-0.0653437
2.43919
-0.102055
0.719231
2.80656
-0.136685
-0.143834
2.7474
2.63182
-0.255775
-0.0535753
-0.208392
2.33512
-0.348726
1.7623
-0.209718
-0.0607065
-0.35334
-0.0856745
0.197604
-0.197022
-0.0733268
-0.098265
1.7801
-0.0624184
2.06811
2.62822
3.04863
2.1675
1.1496
-0.0958651
2.47595
2.62714
-0.192894
2.73567
-0.672744
-0.0196856
0.00206846
-0.106633
-0.334192
2.83667
2.97599
2.60871
-1.1287
-0.284597
1.80795
2.75199
-0.0635148
2.74985
-0.134159
2.75361
0.0223836
1.71833
-0.427962
-0.0770673
-0.017315
-0.468136
-0.205246
1.3338
0.895398
2.9049
2.1223
-0.0783263
-0.395583
2.315
-0.058735
-0.108104
-0.275881
2.93755
3.20485
2.83258
-0.0964163
-0.178085
-0.0140416
2.79927
2.23601
-0.151829
3.86184
-0.0799406
-0.00874263
-0.010019
-0.249969
1.98871
-0.0118804
2.98742
-0.0720221
3.32565
-0.133846
-0.00569483
1.19382
-0.603743
-0.0885091
2.46766
1.87479
-0.42864
2.71949
-0.0891557
-0.214627
-0.102916
-0.106063
-0.330706
-0.157759
2.81804
2.54242
2.78675
-0.301006
-0.109109
-0.0613188
2.48694
2.93257
-0.329244
1.94966
4.56369
1.17392
3.30292
-0.101414
-0.0869673
-0.116352
0.013563
0.326717
0.724626
2.71139
-0.179672
3.46185
2.70655
-0.266265
-0.0675196
1.68401
2.82486
-0.492696
2.39086
2.80266
0.288164
2.8315
0.949621
-0.14793
-0.108642
0.137526
-0.0203071
-0.0179582
-0.346905
0.000349696
-0.417893
-0.169442
-0.108858
-0.327518
-0.163208
-0.0787993
1.76929
1.40342
-0.271553
0.379251
1.65933
0.534868
-0.10617
-0.155921
-0.265083
-0.0775388
-0.22073
1.84568
0.560197
2.87603
1.86594
2.07981
-0.177549
3.09669
2.21621
1.5711
2.10756
-0.213919
-0.0243036
-0.268942
3.42595
1.98041
1.55983
-0.0944255
4.5579
-0.326267
3.73495
-0.174114
0.0233798
1.93077
-0.0138942
2.72809
-0.0614569
-0.223325
-0.0974614
-0.294558
-0.0723757
0.0633699
2.57346
-0.00927214
-0.0474342
-0.385336
0.0647337
1.75316
0.470168
2.58888
0.0476907
1.62369
-0.174282
2.80895
2.62175
3.01801
-0.188187
-0.1019
2.87696
-0.00710157
3.15512
-0.0461177
-0.0684488
0.864382
-0.217106
-0.904066
-0.091484
0.160115
-0.164092
-0.163522
-0.157564
-0.0469446
-0.370294
1.77727
-0.103742
2.16967
2.31839
-0.456937
-0.1831
-0.280979
-0.0758618
3.77821
0.93849
2.18111
-0.0869678
2.73674
0.0269509
-0.156059
0.0227776
0.757097
0.203905
-0.134933
-0.0974423
3.73452
-0.150111
-0.227069
-0.27225
2.04195
-0.0868319
-0.0956524
2.90779
-0.595665
-0.017452
5.19782
-0.164662
2.24192
1.51172
2.04099
-0.0226022
3.68482
-0.0477305
2.85815
-0.0673364
3.25818
-0.0991361
-0.0676774
-0.0652081
-0.0069719
1.68573
-0.207916
-0.4518
2.65646
-0.0488136
0.27842
-0.10487
0.625794
-0.371364
0.895069
-0.0939684
-0.0855629
0.642658
1.82021
-0.0499901
1.83731
-0.0845965
-0.478939
2.86142
2.55701
0.277757
-0.253388
0.0141614
-0.154394
2.44554
-0.0941141
0.534869
1.81235
2.8039
2.80269
2.1606
3.62532
-0.0120521
-0.431074
-0.216102
-0.0205988
-0.125654
2.96095
2.29478
0.132751
-0.148356
2.87781
-0.00387549
-0.0893133
-0.358498
-0.14325
-0.491225
0.858354
-0.110345
2.94735
2.19721
-0.618966
2.29501
2.47132
0.468987
0.00172647
0.0971917
0.162026
2.9029
-0.0989148
-0.951146
-0.179924
2.42592
-0.00941742
-0.152406
-0.0877117
-0.1219
2.65346
1.7969
-0.177364
-0.0990588
-0.121794
2.59101
1.59062
5.01653
3.35659
2.38914
-0.0943419
-0.123237
-0.634619
-0.363005
-0.139271
2.72592
-0.262723
2.72928
3.68423
-0.128104
2.28144
3.04858
2.5047
-0.282007
-0.0398637
-0.127214
3.05448
-0.122086
3.02938
2.82649
3.23574
2.85816
0.539823
1.94781
2.89313
3.65152
-0.272767
1.83443
2.61887
-0.177278
-0.331023
2.32293
2.94103
-0.244048
-0.255596
1.97909
-0.109504
-0.102501
-0.131581
2.11678
2.89139
1.0043
1.64188
-0.0220682
2.31435
-0.193551
-0.0971674
0.0129504
-0.067871
1.98972
-0.0864723
2.39599
1.9456
3.95375
2.28727
1.89526
-0.0898794
-0.66777
0.060708
-0.155064
0.0426417
-0.148148
0.347825
-0.351747
1.87654
2.01133
-0.0114717
-0.0285548
-0.0882326
2.60127
-0.255781
3.70479
-0.15514
2.92746
-0.0140829
-0.0324796
-0.276746
-0.106584
2.52404
2.8989
-0.133961
-0.480543
0.0311523
-0.100666
-0.102727
0.68478
1.39049
0.050775
3.15117
2.8727
-0.0887793
-0.964848
-0.239428
-0.411674
-0.0103333
-0.0849081
-0.0721643
-0.0329213
2.62285
0.680341
0.038665
2.70186
0.688953
2.90903
-0.081741
-0.103201
-0.00366897
2.70224
-0.0959264
2.70705
2.48412
-0.0276253
-0.20607
1.94477
2.98399
3.64021
-0.205557
-0.124722
-0.395373
0.163874
2.56529
-1.49774
-0.0995357
-0.422089
2.61867
-0.00820832
-0.067848
2.69936
-0.0152764
1.53024
-0.112923
-0.202221
0.335463
-0.187991
1.77372
3.26965
-0.158609
-0.0587578
1.97656
-0.00111538
2.90532
-0.16578
0.00466384
-0.281712
2.88994
-0.0152149
-0.218973
-0.238851
-0.0164578
-0.035021
2.56441
-0.00348347
-0.257014
1.90082
0.765436
-0.0996884
-0.166711
-0.142536
-0.145588
2.56272
2.8671
-0.335258
1.42044
-1.14115
-0.106848
-0.000363559
-0.194684
2.39807
-0.150808
-0.292627
-0.0197815
-0.0741311
-0.142184
2.98703
-0.104267
-0.0221149
2.71171
1.85845
2.84685
-0.143005
0.799308
2.6879
-0.130716
-0.113364
-0.0526357
2.02415
-0.427683
-0.235598
1.07262
-0.167139
1.79918
2.63704
1.59646
-0.364889
2.03862
-0.0947854
0.33561
-0.292218
1.94493
1.34053
2.58849
2.62351
-0.212363
-0.16811
-0.110988
-0.273423
-0.924872
-0.0771401
2.60498
0.417085
-0.241299
2.66016
-0.0394737
-0.0531863
1.27807
-0.563807
-0.143516
-0.161711
1.52383
-0.046598
2.62703
-0.142231
2.06191
-0.262206
-0.0995837
4.49946
-0.411133
-0.128024
1.13167
-0.168499
-0.152836
-0.600601
-0.134888
0.900605
-0.324364
-0.0118661
-0.220945
-0.4938
-0.128493
2.81161
-0.162613
3.39761
-0.135668
-0.0778511
-0.225201
0.785442
-0.087754
-0.27562
2.69782
2.71214
1.01751
2.05501
-0.0982031
-0.127341
3.04238
-0.0743424
-0.178256
2.20387
-0.209795
-0.384554
-0.146092
-0.912437
-0.477714
-0.100062
-0.0201283
0.049721
2.7213
2.78414
-0.220009
2.84241
2.87765
-0.147261
2.56725
3.79957
-0.174327
3.89331
-0.266061
-0.0449567
-0.154226
2.75981
-0.0986373
-0.11744
-0.0868671
-0.448279
2.62139
-0.101608
-0.0771453
-0.0826628
-0.0222625
1.59379
-0.00582913
2.30943
-0.225101
-0.00861955
1.67482
2.7987
-0.233439
0.218869
-0.179236
-0.29526
-0.199727
3.00669
2.85041
2.8147
0.0247513
-0.030548
-0.0503199
-0.320941
-0.18114
2.6973
0.826037
2.37589
2.81326
-0.290716
2.60138
1.97943
-1.05416
-0.540522
-0.338569
-0.267437
2.04106
1.72763
-0.0191598
-0.243359
0.00132912
-0.316684
-0.117327
2.82439
2.18287
-0.0906003
0.0443072
-0.0227988
-0.0823209
3.29771
-0.0745278
-0.101923
-0.148264
1.36186
-0.184504
-0.310869
1.50115
-0.0689828
1.8893
2.34515
-0.248971
-0.0653067
-0.14859
1.21972
1.52854
0.0247782
-0.240945
-0.212072
-0.0978482
-0.237582
-0.257423
2.46168
-0.35514
-0.228426
2.76615
-0.00266268
-0.120371
1.98199
-0.00477843
2.71253
3.04834
3.14705
-0.981295
-0.00204727
1.73263
-0.0687756
2.71047
1.91827
2.54888
-0.0823951
1.7765
-0.0739771
-0.288445
2.77114
-0.289785
-0.398243
-0.0842675
-0.287168
-0.103229
-0.119782
-0.00634036
2.49675
1.9509
2.92322
-0.0775303
2.56
1.95863
-0.161721
-0.492616
-0.101375
-0.0654357
-0.013772
1.41177
-0.230246
-0.282731
1.76078
-0.0459853
1.66765
-0.0192836
2.1472
-0.0435862
1.17127
2.48184
2.68408
-0.270263
0.00862497
1.89153
-0.145755
1.72987
-0.066736
0.0478557
-0.221148
-0.100286
2.73977
2.45544
-0.0748951
-1.02341
-0.0485589
-0.00258829
-0.259026
-0.0582701
2.74449
-0.424699
-0.022345
2.30195
-0.1722
-0.144381
-0.0891925
-0.268665
-0.225761
-0.00157537
-0.276029
-0.556832
1.76892
2.63286
-0.0779626
-0.174459
0.251264
1.88756
-0.0928748
2.87012
3.97341
-0.59435
2.58899
2.42674
-0.346344
-0.224879
2.79608
2.52613
2.82507
1.18306
2.05549
3.91001
-0.143349
0.310017
1.70426
2.83833
-0.218746
2.13268
-0.09793
3.03902
1.53656
2.45115
-0.104615
-0.328412
-0.180296
2.61354
1.93508
-0.08824
-0.00955626
2.70149
-0.126381
-0.121623
3.19578
-0.0919406
-0.0665409
-0.302373
-0.130303
-0.206986
2.40419
-0.21202
2.82482
1.21998
5.37988
0.740865
2.80478
-0.172889
4.44974
-0.249657
2.95376
2.79216
-0.2672
1.97776
2.84108
-0.230568
-0.0702817
-0.202093
2.97171
1.26258
2.83936
-0.0749591
-0.0184864
-0.198089
0.992348
-0.153533
-0.313046
2.0451
1.70914
2.02738
1.07196
-0.112892
5.06714
-0.29732
4.41287
-0.484042
-0.101268
-0.0842038
-0.1369
1.64007
0.274836
2.86984
0.0562878
-0.334886
2.72668
2.77508
-0.100045
0.942341
1.47548
2.63767
-0.128477
2.94812
-0.214468
-0.313872
-0.059332
-0.0671071
1.73851
-0.116109
1.59619
-0.25614
-0.0991476
0.22776
0.00622057
2.53093
1.96601
2.50546
1.64535
0.263311
1.03699
3.83963
-0.017687
-0.187091
2.1358
1.10483
-0.374616
0.273043
2.60936
-0.00887508
2.81536
2.80138
-0.130436
2.85913
-0.109728
-0.0812023
1.29105
2.9006
-0.0955824
-0.227373
2.54989
-0.00684025
3.04285
3.89075
-0.0801448
1.31938
-0.0880441
2.73429
4.19933
-0.480823
0.500227
2.00734
-0.532583
1.27947
2.27708
1.86637
2.05589
0.883543
0.187099
-0.0921326
-0.14166
-0.284188
2.23517
2.79257
-0.212426
-0.00103623
1.37857
0.805723
-0.0476779
3.38071
0.0398995
2.42608
-0.147735
2.98527
2.58137
-0.0208068
-0.120699
-0.0787335
2.9383
2.69322
2.28624
2.49118
2.32698
-0.0849897
-0.0752501
-0.218592
-0.198761
-0.0865193
0.875078
2.14332
2.21655
-0.300484
2.20812
-0.0710117
-0.314906
1.03242
-0.0228499
-0.207101
1.47882
2.57579
0.112924
-0.133867
-0.113279
1.35351
-0.0964558
-0.0115041
-0.245164
-0.0117553
-0.0696976
2.02027
-0.15702
-0.357569
-0.447604
-0.167107
-0.16814
-0.0115043
2.79947
2.52747
-0.165102
2.95148
-0.0631269
-0.0767465
-0.0693737
-0.109314
-0.131052
-0.165341
-0.4111
-0.141386
2.85086
-0.194474
-0.0966666
0.0134056
-0.0138209
-0.236835
2.73111
-0.25782
2.86378
0.0534546
-0.293636
-0.137
-0.355575
-0.091336
0.0532609
3.22373
4.82488
2.03429
2.96202
2.9589
0.855432
2.14076
-0.305902
4.41464
-0.0756878
-0.160725
1.6834
2.61176
-0.201483
-0.270617
2.88368
0.681343
1.95052
4.74998
0.0618998
-0.32357
2.8077
1.61009
1.52262
1.79744
5.21574
2.91171
0.0923925
-0.223409
2.77689
0.0991154
2.86778
1.71237
1.4416
2.97956
-0.115806
2.47164
2.33173
1.36205
2.5174
-0.0208982
2.33466
-0.00422045
-0.229133
-0.421714
-0.113697
-0.0735638
-0.106767
-0.0235045
-0.121869
0.0340387
0.0462935
1.82995
-0.129312
0.958715
2.64122
2.97822
-0.118642
0.00368302
-0.0157306
2.60656
-0.192561
4.4239
-0.131824
-0.0586043
1.78539
0.222264