/*--------------------------------*- C++ -*----------------------------------*\
| =========                 |                                                 |
| \\      /  F ield         | OpenFOAM: The Open Source CFD Toolbox           |
|  \\    /   O peration     | Version:  3.0.1                                 |
|   \\  /    A nd           | Web:      www.OpenFOAM.org                      |
|    \\/     M anipulation  |                                                 |
\*---------------------------------------------------------------------------*/
FoamFile
{
    version     2.0;
    format      ascii;
    class       surfaceScalarField;
    location    "0.842454";
    object      phi;
}
// * * * * * * * * * * * * * * * * * * * * * * * * * * * * * * * * * * * * * //

dimensions      [0 3 -1 0 0 0 0];

internalField   nonuniform List<scalar> 
32369
(
-1.36954e-05
1.30358e-05
6.59638e-07
-2.38355e-05
1.03746e-05
-2.34517e-07
-3.27957e-05
1.00865e-05
-1.12638e-06
-4.09367e-05
1.02225e-05
-2.08149e-06
-4.90033e-05
1.11907e-05
-3.1241e-06
-5.74284e-05
1.28108e-05
-4.38579e-06
-6.66762e-05
1.52672e-05
-6.01934e-06
-7.71496e-05
1.86537e-05
-8.18037e-06
-8.92494e-05
2.31713e-05
-1.10714e-05
-0.000103425
2.91408e-05
-1.49651e-05
3.7038e-05
-2.02346e-05
-0.000120228
-3.43641e-06
1.64722e-05
-7.92065e-06
1.48589e-05
-1.54333e-05
1.75991e-05
-2.36358e-05
1.84251e-05
-3.24308e-05
1.99857e-05
-4.18456e-05
2.22256e-05
-5.21774e-05
2.5599e-05
-6.38146e-05
3.0291e-05
-7.72353e-05
3.65919e-05
-9.29503e-05
4.48557e-05
5.56486e-05
-0.000111561
-7.68944e-07
1.72411e-05
-3.10259e-06
1.71925e-05
-7.96243e-06
2.2459e-05
-1.40463e-05
2.4509e-05
-2.18476e-05
2.7787e-05
-3.08058e-05
3.11838e-05
-4.09753e-05
3.57685e-05
-5.25196e-05
4.18352e-05
-6.58017e-05
4.98741e-05
-8.13134e-05
6.03674e-05
7.40077e-05
-9.96725e-05
-4.62974e-07
1.77041e-05
-2.54584e-06
1.92754e-05
-5.67321e-06
2.55863e-05
-9.85705e-06
2.86928e-05
-1.59518e-05
3.38818e-05
-2.34156e-05
3.86475e-05
-3.23949e-05
4.47478e-05
-4.28713e-05
5.23116e-05
-5.50462e-05
6.2049e-05
-6.92742e-05
7.45954e-05
9.07303e-05
-8.59968e-05
-4.65099e-07
1.81692e-05
-2.53087e-06
2.13412e-05
-4.84248e-06
2.78979e-05
-7.98319e-06
3.18335e-05
-1.25774e-05
3.8476e-05
-1.84074e-05
4.44776e-05
-2.58092e-05
5.21496e-05
-3.474e-05
6.12424e-05
-4.53599e-05
7.26689e-05
-5.78916e-05
8.7127e-05
0.000105644
-7.28058e-05
-2.47683e-07
1.84169e-05
-2.1153e-06
2.32088e-05
-3.83409e-06
2.96167e-05
-6.56064e-06
3.45601e-05
-9.98185e-06
4.18972e-05
-1.45491e-05
4.90448e-05
-2.04803e-05
5.80808e-05
-2.78367e-05
6.85989e-05
-3.67927e-05
8.16249e-05
-4.75259e-05
9.78603e-05
0.000118469
-6.03502e-05
-9.43756e-08
1.85113e-05
-1.58145e-06
2.46958e-05
-2.88235e-06
3.09176e-05
-5.10819e-06
3.67859e-05
-7.81277e-06
4.46018e-05
-1.14544e-05
5.26864e-05
-1.61612e-05
6.27876e-05
-2.21022e-05
7.45398e-05
-2.94868e-05
8.90095e-05
-3.84853e-05
0.000106859
0.000129299
-4.93158e-05
-1.95774e-07
1.8707e-05
-1.30893e-06
2.5809e-05
-2.41348e-06
3.20222e-05
-4.15934e-06
3.85317e-05
-6.22868e-06
4.66711e-05
-9.07862e-06
5.55363e-05
-1.2744e-05
6.6453e-05
-1.74285e-05
7.92243e-05
-2.33414e-05
9.49225e-05
-3.06025e-05
0.00011412
0.000138177
-3.94797e-05
-1.61521e-07
1.88686e-05
-1.02145e-06
2.66689e-05
-1.83935e-06
3.28401e-05
-3.2157e-06
3.99081e-05
-4.77513e-06
4.82306e-05
-6.94535e-06
5.77066e-05
-9.73043e-06
6.92381e-05
-1.33332e-05
8.2827e-05
-1.79091e-05
9.94984e-05
-2.36825e-05
0.000119893
0.00014532
-3.08263e-05
1.39476e-07
1.87291e-05
-3.41263e-07
2.71497e-05
-8.56903e-07
3.33557e-05
-1.85846e-06
4.09097e-05
-2.97844e-06
4.93505e-05
-4.57925e-06
5.93074e-05
-6.63676e-06
7.12956e-05
-9.32387e-06
8.55141e-05
-1.28136e-05
0.000102988
-1.72568e-05
0.000124337
0.000150938
-2.28748e-05
3.68222e-07
1.83609e-05
2.34461e-07
2.72834e-05
2.47942e-08
3.35654e-05
-5.88458e-07
4.15229e-05
-1.25782e-06
5.00199e-05
-2.32217e-06
6.03717e-05
-3.68352e-06
7.26569e-05
-5.52231e-06
8.73529e-05
-7.97634e-06
0.000105442
-1.11876e-05
0.000127548
0.000155002
-1.52513e-05
3.6885e-07
1.7992e-05
4.43801e-07
2.72085e-05
4.90881e-07
3.35183e-05
2.58226e-07
4.17556e-05
5.13768e-08
5.02268e-05
-4.37102e-07
6.08602e-05
-1.07426e-06
7.32941e-05
-2.03358e-06
8.83122e-05
-3.41254e-06
0.000106821
-5.30024e-06
0.000129435
0.000157546
-7.84429e-06
4.71831e-07
1.75202e-05
8.39115e-07
2.68412e-05
1.16695e-06
3.31905e-05
1.33549e-06
4.1587e-05
1.56666e-06
4.99956e-05
1.65229e-06
6.07746e-05
1.70624e-06
7.32401e-05
1.57816e-06
8.84403e-05
1.27946e-06
0.00010712
6.86414e-07
0.000130029
0.000158581
-3.48276e-07
7.74146e-07
1.6746e-05
1.53144e-06
2.60839e-05
2.21466e-06
3.25073e-05
2.82822e-06
4.09735e-05
3.5069e-06
4.93169e-05
4.16223e-06
6.01192e-05
4.97177e-06
7.24306e-05
5.62326e-06
8.77888e-05
6.38532e-06
0.000106358
7.02437e-06
0.000129389
0.000158104
7.50102e-06
8.17219e-07
1.59288e-05
1.83415e-06
2.5067e-05
2.85959e-06
3.14818e-05
3.94809e-06
3.9885e-05
5.16212e-06
4.81029e-05
6.46449e-06
5.88169e-05
8.01521e-06
7.08799e-05
9.71735e-06
8.60867e-05
1.16441e-05
0.000104431
1.36674e-05
0.000127366
0.000155861
1.59105e-05
9.23444e-07
1.50054e-05
2.24587e-06
2.37445e-05
3.64234e-06
3.00854e-05
5.25383e-06
3.82735e-05
7.03318e-06
4.63235e-05
9.09306e-06
5.6757e-05
1.14862e-05
6.84867e-05
1.42269e-05
8.33459e-05
1.73898e-05
0.000101268
2.10087e-05
0.000123747
0.00015173
2.51402e-05
1.17949e-06
1.38259e-05
2.89751e-06
2.20265e-05
4.75091e-06
2.82319e-05
6.92148e-06
3.61029e-05
9.35532e-06
4.38897e-05
1.22231e-05
5.38892e-05
1.55343e-05
6.51755e-05
1.94257e-05
7.94545e-05
2.39713e-05
9.67226e-05
2.9237e-05
0.000118482
0.000145694
3.52723e-05
1.3243e-06
1.25016e-05
3.36771e-06
1.99831e-05
5.7024e-06
2.58973e-05
8.52957e-06
3.32757e-05
1.16937e-05
4.07256e-05
1.54785e-05
5.01043e-05
1.98655e-05
6.07885e-05
2.50721e-05
7.42479e-05
3.11601e-05
9.06346e-05
3.82955e-05
0.000111346
0.000137284
4.67061e-05
1.48469e-06
1.10169e-05
3.8572e-06
1.76106e-05
6.69654e-06
2.30579e-05
1.02025e-05
2.97698e-05
1.42212e-05
3.67069e-05
1.9055e-05
4.52705e-05
2.4681e-05
5.51625e-05
3.13707e-05
6.75582e-05
3.92356e-05
8.27698e-05
4.85724e-05
0.000102009
0.00012625
5.96066e-05
1.661e-06
9.35589e-06
4.35905e-06
1.49125e-05
7.71499e-06
1.9702e-05
1.19444e-05
2.55404e-05
1.69172e-05
3.17341e-05
2.29142e-05
3.92735e-05
2.99357e-05
4.8141e-05
3.82831e-05
5.92108e-05
4.81233e-05
7.29296e-05
5.98395e-05
9.0293e-05
0.000112279
7.38097e-05
1.84585e-06
7.51004e-06
4.8021e-06
1.19563e-05
8.65182e-06
1.58523e-05
1.36109e-05
2.05813e-05
1.95955e-05
2.57494e-05
2.68237e-05
3.20454e-05
3.53489e-05
3.96158e-05
4.54611e-05
4.90987e-05
5.74398e-05
6.09509e-05
7.17599e-05
7.59729e-05
9.50518e-05
8.89875e-05
1.92498e-06
5.58506e-06
5.05799e-06
8.82328e-06
9.33688e-06
1.15734e-05
1.49719e-05
1.49463e-05
2.1891e-05
1.88303e-05
3.02671e-05
2.36693e-05
4.02148e-05
2.96681e-05
5.20559e-05
3.72575e-05
6.61769e-05
4.68299e-05
8.3153e-05
5.89968e-05
7.43858e-05
0.000103819
1.9964e-06
3.58866e-06
5.20519e-06
5.61449e-06
9.75713e-06
7.02143e-06
1.57723e-05
8.93116e-06
2.32034e-05
1.13992e-05
3.2262e-05
1.46107e-05
4.31837e-05
1.87464e-05
5.63512e-05
2.409e-05
7.22166e-05
3.09645e-05
9.13747e-05
3.98387e-05
5.12498e-05
0.000114511
1.06664e-06
2.52202e-06
5.00248e-06
1.67866e-06
1.00802e-05
1.94373e-06
1.60843e-05
2.92701e-06
2.3302e-05
4.18151e-06
3.21228e-05
5.78994e-06
4.29303e-05
7.9389e-06
5.62028e-05
1.08175e-05
7.25195e-05
1.46479e-05
9.25517e-05
1.98065e-05
2.66996e-05
0.000117102
-1.28485e-05
1.35082e-05
-2.24373e-05
9.35425e-06
-3.17583e-05
8.19458e-06
-4.04862e-05
6.64642e-06
-4.91395e-05
5.52924e-06
-5.81385e-05
4.61317e-06
-6.79175e-05
3.75966e-06
-7.891e-05
2.81216e-06
-9.15161e-05
1.53462e-06
-0.000106123
-3.58201e-07
-3.22125e-06
-0.000123136
-2.88181e-06
1.639e-05
-6.79665e-06
1.32691e-05
-1.46471e-05
1.60451e-05
-2.35363e-05
1.55356e-05
-3.33074e-05
1.53004e-05
-4.37385e-05
1.50442e-05
-5.51497e-05
1.51709e-05
-6.7871e-05
1.55334e-05
-8.23354e-05
1.5999e-05
-9.89968e-05
1.63032e-05
1.61314e-05
-0.000118349
-7.09008e-07
1.7099e-05
-3.04648e-06
1.56066e-05
-8.18552e-06
2.11841e-05
-1.49155e-05
2.22656e-05
-2.35845e-05
2.39694e-05
-3.36905e-05
2.51503e-05
-4.50989e-05
2.65793e-05
-5.79535e-05
2.83881e-05
-7.2585e-05
3.06304e-05
-8.94152e-05
3.31335e-05
3.56047e-05
-0.000108889
-4.78558e-07
1.75776e-05
-2.90941e-06
1.80374e-05
-6.37887e-06
2.46535e-05
-1.12366e-05
2.71234e-05
-1.80877e-05
3.08204e-05
-2.66934e-05
3.37559e-05
-3.69306e-05
3.68165e-05
-4.88163e-05
4.02738e-05
-6.24807e-05
4.42948e-05
-7.8242e-05
4.88947e-05
5.39251e-05
-9.65624e-05
-5.58412e-07
1.8136e-05
-3.17239e-06
2.06514e-05
-5.89535e-06
2.73765e-05
-9.67667e-06
3.09047e-05
-1.49659e-05
3.61096e-05
-2.18023e-05
4.05924e-05
-3.03741e-05
4.53883e-05
-4.06345e-05
5.05341e-05
-5.26666e-05
5.63269e-05
-6.666e-05
6.28882e-05
7.01392e-05
-8.28741e-05
-5.48684e-07
1.86847e-05
-2.97177e-06
2.30745e-05
-5.29394e-06
2.96987e-05
-8.4513e-06
3.4062e-05
-1.26232e-05
4.02815e-05
-1.80004e-05
4.59696e-05
-2.48981e-05
5.2286e-05
-3.33392e-05
5.89753e-05
-4.34316e-05
6.64193e-05
-5.52417e-05
7.46983e-05
8.38408e-05
-6.89434e-05
-4.63284e-07
1.91479e-05
-2.5065e-06
2.51177e-05
-4.4475e-06
3.16397e-05
-7.10074e-06
3.67153e-05
-1.04622e-05
4.3643e-05
-1.46836e-05
5.0191e-05
-2.01264e-05
5.77288e-05
-2.68367e-05
6.56855e-05
-3.49331e-05
7.45157e-05
-4.44408e-05
8.42061e-05
9.47562e-05
-5.53563e-05
-4.92818e-07
1.96408e-05
-2.17684e-06
2.68017e-05
-3.76727e-06
3.32301e-05
-5.91365e-06
3.88617e-05
-8.56965e-06
4.6299e-05
-1.18043e-05
5.34256e-05
-1.59947e-05
6.19193e-05
-2.10895e-05
7.07803e-05
-2.72763e-05
8.07025e-05
-3.45143e-05
9.14441e-05
0.000103015
-4.2773e-05
-4.29645e-07
2.00704e-05
-1.75988e-06
2.8132e-05
-2.96937e-06
3.44396e-05
-4.67627e-06
4.05686e-05
-6.6351e-06
4.82578e-05
-9.05354e-06
5.5844e-05
-1.20974e-05
6.49631e-05
-1.57741e-05
7.4457e-05
-2.02433e-05
8.51717e-05
-2.54244e-05
9.66251e-05
0.000109043
-3.1452e-05
-2.56687e-07
2.03271e-05
-1.29307e-06
2.91683e-05
-2.03499e-06
3.51815e-05
-3.38078e-06
4.19143e-05
-4.5845e-06
4.94616e-05
-6.33368e-06
5.75932e-05
-8.29612e-06
6.69256e-05
-1.07127e-05
7.68736e-05
-1.36208e-05
8.80798e-05
-1.6923e-05
9.99273e-05
0.000112604
-2.0485e-05
1.23684e-08
2.03147e-05
-5.08703e-07
2.96894e-05
-9.09634e-07
3.55825e-05
-1.69326e-06
4.2698e-05
-2.35099e-06
5.01193e-05
-3.32992e-06
5.85721e-05
-4.3501e-06
6.79458e-05
-5.69857e-06
7.82221e-05
-7.13647e-06
8.95177e-05
-8.791e-06
0.000101582
0.000114293
-1.04799e-05
1.33777e-07
2.01809e-05
-9.68211e-09
2.98329e-05
-2.88532e-08
3.56016e-05
-2.67841e-07
4.2937e-05
-3.21682e-07
5.01731e-05
-5.22259e-07
5.87727e-05
-5.96802e-07
6.80203e-05
-7.80762e-07
7.8406e-05
-8.82e-07
8.96189e-05
-9.32156e-07
0.000101632
0.000114221
-8.59397e-07
3.32691e-07
1.98482e-05
5.90178e-07
2.95754e-05
9.67224e-07
3.52246e-05
1.27277e-06
4.26314e-05
1.82951e-06
4.96164e-05
2.39823e-06
5.8204e-05
3.21554e-06
6.7203e-05
4.16272e-06
7.74589e-05
5.39419e-06
8.83874e-05
6.87964e-06
0.000100147
0.000112314
8.78615e-06
6.73473e-07
1.91748e-05
1.38721e-06
2.88616e-05
2.19414e-06
3.44176e-05
3.0738e-06
4.17518e-05
4.22211e-06
4.84681e-05
5.56679e-06
5.68593e-05
7.279e-06
6.54908e-05
9.32621e-06
7.54116e-05
1.18442e-05
8.58694e-05
1.48335e-05
9.71573e-05
0.000108748
1.83996e-05
8.58491e-07
1.83163e-05
1.97166e-06
2.77485e-05
3.234e-06
3.31553e-05
4.71924e-06
4.02665e-05
6.51094e-06
4.66764e-05
8.68935e-06
5.46809e-05
1.13554e-05
6.28247e-05
1.45689e-05
7.21982e-05
1.84111e-05
8.20273e-05
2.2946e-05
9.26224e-05
0.000103508
2.81864e-05
1.09778e-06
1.72185e-05
2.6321e-06
2.62142e-05
4.37795e-06
3.14095e-05
6.49194e-06
3.81525e-05
8.97732e-06
4.4191e-05
1.20238e-05
5.16344e-05
1.56863e-05
5.91622e-05
2.00911e-05
6.77934e-05
2.53039e-05
7.68144e-05
3.14156e-05
8.65107e-05
9.64454e-05
3.84779e-05
1.38728e-06
1.58312e-05
3.38523e-06
2.42162e-05
5.65684e-06
2.91378e-05
8.44319e-06
3.53662e-05
1.16805e-05
4.09537e-05
1.56614e-05
4.76535e-05
2.03587e-05
5.44649e-05
2.60062e-05
6.21459e-05
3.26236e-05
7.01969e-05
4.03759e-05
7.87584e-05
8.7455e-05
4.93663e-05
1.6712e-06
1.416e-05
4.1208e-06
2.17666e-05
6.96557e-06
2.62931e-05
1.04721e-05
3.18596e-05
1.4539e-05
3.68868e-05
1.95026e-05
4.26899e-05
2.53457e-05
4.86218e-05
3.22941e-05
5.51975e-05
4.04062e-05
6.20848e-05
4.98432e-05
6.93214e-05
7.65701e-05
6.07281e-05
1.96096e-06
1.21991e-05
4.86109e-06
1.88665e-05
8.31019e-06
2.2844e-05
1.25863e-05
2.75835e-05
1.75808e-05
3.18923e-05
2.36045e-05
3.66662e-05
3.06712e-05
4.15551e-05
3.89954e-05
4.68732e-05
4.86475e-05
5.24327e-05
5.98338e-05
5.81351e-05
6.36365e-05
7.27674e-05
2.27333e-06
9.92574e-06
5.61501e-06
1.55248e-05
9.69707e-06
1.87619e-05
1.47843e-05
2.24963e-05
2.07734e-05
2.59032e-05
2.79305e-05
2.95091e-05
3.62771e-05
3.32085e-05
4.5994e-05
3.71563e-05
5.72167e-05
4.121e-05
7.01718e-05
4.51801e-05
4.86978e-05
8.51105e-05
2.5902e-06
7.33555e-06
6.34862e-06
1.17664e-05
1.10605e-05
1.40501e-05
1.69748e-05
1.65819e-05
2.39819e-05
1.88961e-05
3.22549e-05
2.12361e-05
4.18433e-05
2.36201e-05
5.29146e-05
2.6085e-05
6.56623e-05
2.84623e-05
8.03608e-05
3.04816e-05
3.17052e-05
9.73534e-05
2.94261e-06
4.39294e-06
7.07712e-06
7.63186e-06
1.23581e-05
8.76904e-06
1.89837e-05
9.95639e-06
2.68464e-05
1.10334e-05
3.60297e-05
1.20528e-05
4.66367e-05
1.30131e-05
5.88652e-05
1.38566e-05
7.2954e-05
1.43735e-05
8.92224e-05
1.42131e-05
1.28967e-05
0.000108031
3.21868e-06
1.17425e-06
7.69228e-06
3.15826e-06
1.32683e-05
3.19306e-06
2.01097e-05
3.11494e-06
2.82088e-05
2.93432e-06
3.76886e-05
2.57298e-06
4.8713e-05
1.98871e-06
6.15164e-05
1.05319e-06
7.63091e-05
-4.19156e-07
9.33003e-05
-2.778e-06
-6.64872e-06
0.000112846
3.69627e-06
8.53319e-06
1.367e-05
1.97119e-05
2.68278e-05
3.51907e-05
4.51183e-05
5.6989e-05
7.12177e-05
8.82461e-05
0.000108297
-3.32087e-06
1.5014e-05
-1.16931e-05
-6.59702e-06
1.41189e-05
-1.08428e-05
-1.14454e-05
1.66515e-05
-1.18032e-05
-1.68999e-05
1.86407e-05
-1.31862e-05
-2.25219e-05
2.07056e-05
-1.50837e-05
-2.841e-05
2.34739e-05
-1.75858e-05
-3.47697e-05
2.71563e-05
-2.07966e-05
-4.18566e-05
3.19993e-05
-2.49124e-05
-4.99541e-05
3.83229e-05
-3.02255e-05
-5.93674e-05
4.65612e-05
-3.71479e-05
5.73269e-05
-4.6207e-05
-7.04873e-05
2.56811e-06
1.24459e-05
3.14194e-06
1.35451e-05
1.03392e-06
1.87595e-05
-2.74908e-06
2.24237e-05
-7.79629e-06
2.57529e-05
-1.37296e-05
2.94072e-05
-2.04461e-05
3.38728e-05
-2.80447e-05
3.95979e-05
-3.67587e-05
4.7037e-05
-4.69062e-05
5.67087e-05
6.92643e-05
-5.88435e-05
2.26722e-06
1.01787e-05
3.04168e-06
1.27706e-05
2.89012e-06
1.89111e-05
1.47461e-06
2.38392e-05
-1.5799e-06
2.88074e-05
-6.05085e-06
3.38782e-05
-1.16839e-05
3.95058e-05
-1.83939e-05
4.63079e-05
-2.62385e-05
5.48816e-05
-3.54192e-05
6.58894e-05
8.00986e-05
-4.62535e-05
1.62167e-06
8.557e-06
2.11054e-06
1.22818e-05
2.57744e-06
1.84442e-05
2.30887e-06
2.41078e-05
8.39001e-07
3.02772e-05
-1.93024e-06
3.66474e-05
-5.94677e-06
4.35224e-05
-1.11324e-05
5.14935e-05
-1.74613e-05
6.12105e-05
-2.4991e-05
7.34191e-05
8.89141e-05
-3.38065e-05
1.44317e-06
7.11384e-06
1.92626e-06
1.17987e-05
2.52434e-06
1.78461e-05
2.66783e-06
2.39643e-05
2.09911e-06
3.08459e-05
6.0324e-07
3.81433e-05
-1.94196e-06
4.60676e-05
-5.57353e-06
5.51251e-05
-1.02696e-05
6.59066e-05
-1.6052e-05
7.92015e-05
9.58649e-05
-2.30028e-05
1.28479e-06
5.82905e-06
2.14687e-06
1.09366e-05
3.001e-06
1.6992e-05
3.46729e-06
2.3498e-05
3.44887e-06
3.08644e-05
2.77391e-06
3.88183e-05
1.29783e-06
4.75436e-05
-1.05427e-06
5.74772e-05
-4.32791e-06
6.91802e-05
-8.54873e-06
8.34223e-05
0.000101074
-1.3758e-05
1.21395e-06
4.6151e-06
2.34556e-06
9.80499e-06
3.49524e-06
1.58423e-05
4.32918e-06
2.26641e-05
4.78356e-06
3.041e-05
4.72866e-06
3.88732e-05
4.05336e-06
4.82189e-05
2.69243e-06
5.88381e-05
5.89034e-07
7.12836e-05
-2.30026e-06
8.63116e-05
0.000104776
-6.00172e-06
1.12572e-06
3.48938e-06
2.44918e-06
8.48153e-06
3.8111e-06
1.44804e-05
4.96829e-06
2.15069e-05
5.85362e-06
2.95246e-05
6.33564e-06
3.83911e-05
6.33465e-06
4.82199e-05
5.79946e-06
5.93733e-05
4.68936e-06
7.23937e-05
2.96182e-06
8.80392e-05
0.00010718
5.57878e-07
1.09224e-06
2.39714e-06
2.54113e-06
7.03263e-06
4.08354e-06
1.2938e-05
5.5443e-06
2.00461e-05
6.82057e-06
2.82484e-05
7.79428e-06
3.74174e-05
8.38446e-06
4.76298e-05
8.55728e-06
5.92005e-05
8.29649e-06
7.26545e-05
7.56463e-06
8.8771e-05
0.000108412
6.33238e-06
1.08319e-06
1.31395e-06
2.60624e-06
5.50958e-06
4.34275e-06
1.12015e-05
6.12305e-06
1.82658e-05
7.80734e-06
2.65641e-05
9.25819e-06
3.59666e-05
1.04043e-05
4.64837e-05
1.12104e-05
5.83943e-05
1.16759e-05
7.2189e-05
1.17965e-05
8.86505e-05
0.000108693
1.15156e-05
8.98602e-07
4.15347e-07
2.34101e-06
4.06718e-06
4.2407e-06
9.30177e-06
6.3314e-06
1.61751e-05
8.42511e-06
2.44704e-05
1.03855e-05
3.40062e-05
1.21107e-05
4.47584e-05
1.35704e-05
5.69347e-05
1.4764e-05
7.09953e-05
1.57215e-05
8.76931e-05
0.00010797
1.64439e-05
5.24579e-07
-1.09232e-07
1.7766e-06
2.81515e-06
3.69504e-06
7.38334e-06
6.00573e-06
1.38644e-05
8.48417e-06
2.19919e-05
1.09561e-05
3.15342e-05
1.33024e-05
4.24122e-05
1.54737e-05
5.47633e-05
1.74725e-05
6.89965e-05
1.93505e-05
8.58151e-05
0.000106158
2.11631e-05
2.26384e-07
-3.35616e-07
1.20117e-06
1.84036e-06
3.03017e-06
5.55434e-06
5.48162e-06
1.1413e-05
8.29337e-06
1.91802e-05
1.12585e-05
2.85691e-05
1.42297e-05
3.9441e-05
1.71315e-05
5.18616e-05
1.99632e-05
6.61648e-05
2.27983e-05
8.29799e-05
0.00010325
2.57062e-05
1.38413e-07
-4.74029e-07
8.57596e-07
1.12118e-06
2.45409e-06
3.95785e-06
4.89893e-06
8.96814e-06
7.9515e-06
1.61276e-05
1.13549e-05
2.51657e-05
1.49258e-05
3.58701e-05
1.85621e-05
4.82253e-05
2.22509e-05
6.2476e-05
2.60676e-05
7.91632e-05
9.91624e-05
3.01549e-05
1.12174e-07
-5.86203e-07
6.12883e-07
6.20471e-07
1.87582e-06
2.69491e-06
4.10626e-06
6.7377e-06
7.20011e-06
1.30338e-05
1.0912e-05
2.14539e-05
1.50232e-05
3.17588e-05
1.94004e-05
4.38481e-05
2.40184e-05
5.7858e-05
2.89597e-05
7.42219e-05
9.37198e-05
3.44023e-05
1.04629e-07
-6.90832e-07
4.67192e-07
2.57909e-07
1.43321e-06
1.7289e-06
3.34365e-06
4.82725e-06
6.29437e-06
1.0083e-05
1.01476e-05
1.76006e-05
1.46805e-05
2.7226e-05
1.9741e-05
3.87876e-05
2.52893e-05
5.23098e-05
3.14058e-05
6.81053e-05
8.68012e-05
3.83243e-05
9.90092e-08
-7.89842e-07
3.75774e-07
-1.88566e-08
1.11638e-06
9.88297e-07
2.68221e-06
3.26142e-06
5.3428e-06
7.42245e-06
9.12333e-06
1.38201e-05
1.38996e-05
2.24497e-05
1.95228e-05
3.31644e-05
2.59323e-05
4.59002e-05
3.31813e-05
6.08563e-05
7.8526e-05
4.14565e-05
7.27613e-08
-8.62603e-07
2.55698e-07
-2.01794e-07
7.94379e-07
4.49617e-07
1.99516e-06
2.06064e-06
4.22337e-06
5.19424e-06
7.70711e-06
1.03363e-05
1.24794e-05
1.76774e-05
1.84733e-05
2.71706e-05
2.56277e-05
3.87458e-05
3.39822e-05
5.25018e-05
6.88149e-05
4.36933e-05
2.0392e-08
-8.82995e-07
1.0251e-07
-2.83912e-07
4.24546e-07
1.27581e-07
1.23505e-06
1.25013e-06
2.94713e-06
3.48216e-06
5.95645e-06
7.32703e-06
1.049e-05
1.31438e-05
1.66147e-05
2.10459e-05
2.43005e-05
3.10601e-05
3.3526e-05
4.32763e-05
5.7866e-05
4.44748e-05
-5.63143e-08
-8.26681e-07
-1.03745e-07
-2.36481e-07
-7.71236e-08
1.00959e-07
2.72934e-07
9.00074e-07
1.42233e-06
2.33277e-06
3.87841e-06
4.87095e-06
7.9945e-06
9.02774e-06
1.39937e-05
1.50466e-05
2.18865e-05
2.31673e-05
3.16175e-05
3.35453e-05
4.61943e-05
4.32893e-05
-1.4479e-07
-6.8189e-07
-4.76686e-07
9.54152e-08
-8.51561e-07
4.75834e-07
-9.58583e-07
1.0071e-06
-3.41778e-07
1.71596e-06
1.55784e-06
2.97134e-06
5.19977e-06
5.38581e-06
1.08652e-05
9.3812e-06
1.85949e-05
1.54376e-05
2.82544e-05
2.38857e-05
3.47317e-05
3.97171e-05
-8.84661e-07
2.02771e-07
-1.59549e-06
8.06247e-07
-2.15268e-06
1.03302e-06
-2.33115e-06
1.18557e-06
-1.89e-06
1.27482e-06
-3.84073e-07
1.46541e-06
2.77452e-06
2.22721e-06
7.94103e-06
4.2147e-06
1.51811e-05
8.19756e-06
2.43776e-05
1.46892e-05
2.33707e-05
3.57386e-05
-1.20609e-06
1.40886e-06
-1.58225e-06
1.18241e-06
-1.48624e-06
9.3701e-07
-1.03692e-06
7.36246e-07
-2.0773e-07
4.45625e-07
1.1709e-06
8.67787e-08
3.47925e-06
-8.11371e-08
7.41424e-06
2.79704e-07
1.35281e-05
2.08374e-06
2.15643e-05
6.65291e-06
1.37446e-05
3.11904e-05
2.85324e-06
-1.44438e-06
5.60952e-06
-1.57387e-06
8.28674e-06
-1.74021e-06
1.10697e-05
-2.04668e-06
1.38334e-05
-2.31815e-06
1.62819e-05
-2.36166e-06
1.82235e-05
-2.02281e-06
1.98228e-05
-1.3195e-06
2.22086e-05
-3.02062e-07
2.73537e-05
1.50774e-06
5.00227e-06
3.60961e-05
-1.11204e-05
-5.72722e-07
-1.90361e-05
-2.92705e-06
-2.53678e-05
-5.47152e-06
-3.08268e-05
-7.72714e-06
-3.60074e-05
-9.9031e-06
-4.1342e-05
-1.22512e-05
-4.71774e-05
-1.49612e-05
-5.37947e-05
-1.82951e-05
-6.14415e-05
-2.25786e-05
-7.0354e-05
-2.82355e-05
-3.58304e-05
-8.07307e-05
-5.86196e-06
5.28924e-06
-1.1359e-05
2.56995e-06
-1.78454e-05
1.01493e-06
-2.42632e-05
-1.30936e-06
-3.05232e-05
-3.64311e-06
-3.69317e-05
-5.84268e-06
-4.38701e-05
-8.02287e-06
-5.17028e-05
-1.04623e-05
-6.07247e-05
-1.35567e-05
-7.12251e-05
-1.77351e-05
-2.35013e-05
-8.35541e-05
-2.18811e-06
7.47735e-06
-5.69517e-06
6.07701e-06
-1.06951e-05
6.01487e-06
-1.68139e-05
4.80943e-06
-2.36945e-05
3.23745e-06
-3.10389e-05
1.50177e-06
-3.88713e-05
-1.90476e-07
-4.74892e-05
-1.8444e-06
-5.72847e-05
-3.76129e-06
-6.86429e-05
-6.37688e-06
-1.02383e-05
-8.19059e-05
-1.38471e-06
8.86206e-06
-3.77972e-06
8.47202e-06
-7.37649e-06
9.61164e-06
-1.20532e-05
9.48617e-06
-1.80209e-05
9.20512e-06
-2.50573e-05
8.53812e-06
-3.30524e-05
7.80462e-06
-4.20094e-05
7.11261e-06
-5.21362e-05
6.36558e-06
-6.37488e-05
5.23574e-06
3.26634e-06
-7.72535e-05
-1.1813e-06
1.00434e-05
-3.2402e-06
1.05309e-05
-6.03772e-06
1.24092e-05
-9.83442e-06
1.32829e-05
-1.46711e-05
1.40418e-05
-2.07108e-05
1.45778e-05
-2.79085e-05
1.50024e-05
-3.62667e-05
1.54708e-05
-4.58956e-05
1.59945e-05
-5.70504e-05
1.63906e-05
1.62999e-05
-7.0084e-05
-1.04461e-06
1.1088e-05
-2.88151e-06
1.23678e-05
-5.20204e-06
1.47297e-05
-8.27057e-06
1.63514e-05
-1.22602e-05
1.80315e-05
-1.7332e-05
1.96495e-05
-2.3556e-05
2.12264e-05
-3.09863e-05
2.29011e-05
-3.96895e-05
2.46977e-05
-4.98771e-05
2.65782e-05
2.82444e-05
-6.18216e-05
-8.90581e-07
1.19786e-05
-2.50413e-06
1.39814e-05
-4.4647e-06
1.66903e-05
-6.99756e-06
1.88843e-05
-1.03354e-05
2.13693e-05
-1.45526e-05
2.38667e-05
-1.98147e-05
2.64885e-05
-2.61754e-05
2.92617e-05
-3.37663e-05
3.22886e-05
-4.2742e-05
3.55538e-05
3.88812e-05
-5.33788e-05
-8.29621e-07
1.28082e-05
-2.22726e-06
1.5379e-05
-3.90451e-06
1.83675e-05
-6.01789e-06
2.09977e-05
-8.76459e-06
2.4116e-05
-1.22386e-05
2.73407e-05
-1.65745e-05
3.08244e-05
-2.1897e-05
3.45842e-05
-2.83016e-05
3.86932e-05
-3.58919e-05
4.31442e-05
4.78208e-05
-4.48316e-05
-7.24736e-07
1.35329e-05
-1.93736e-06
1.65916e-05
-3.29697e-06
1.97271e-05
-5.08855e-06
2.27892e-05
-7.31424e-06
2.63417e-05
-1.01413e-05
3.01678e-05
-1.36751e-05
3.43582e-05
-1.80268e-05
3.89359e-05
-2.32898e-05
4.39563e-05
-2.95841e-05
4.94385e-05
5.53172e-05
-3.70805e-05
-5.6892e-07
1.41018e-05
-1.60632e-06
1.7629e-05
-2.67955e-06
2.08004e-05
-4.12086e-06
2.42305e-05
-5.90762e-06
2.81284e-05
-8.14974e-06
3.24099e-05
-1.09575e-05
3.7166e-05
-1.44202e-05
4.23986e-05
-1.86285e-05
4.81645e-05
-2.36691e-05
5.44791e-05
6.12555e-05
-2.96075e-05
-4.11857e-07
1.45137e-05
-1.09025e-06
1.83074e-05
-1.92348e-06
2.16336e-05
-3.01709e-06
2.53242e-05
-4.37299e-06
2.94843e-05
-6.09108e-06
3.4128e-05
-8.23886e-06
3.93137e-05
-1.09029e-05
4.50627e-05
-1.41431e-05
5.14047e-05
-1.80143e-05
5.83503e-05
6.58073e-05
-2.2566e-05
-2.60085e-07
1.47738e-05
-7.41024e-07
1.87884e-05
-1.29137e-06
2.21839e-05
-2.03952e-06
2.60723e-05
-2.96649e-06
3.04113e-05
-4.15562e-06
3.53171e-05
-5.65797e-06
4.08161e-05
-7.53336e-06
4.69381e-05
-9.83942e-06
5.37108e-05
-1.26137e-05
6.11246e-05
6.90539e-05
-1.58603e-05
-8.17702e-08
1.48555e-05
-3.22338e-07
1.90289e-05
-6.00845e-07
2.24624e-05
-9.93392e-07
2.64649e-05
-1.49829e-06
3.09162e-05
-2.16453e-06
3.59834e-05
-3.02785e-06
4.16794e-05
-4.13946e-06
4.80497e-05
-5.53801e-06
5.51093e-05
-7.31097e-06
6.28976e-05
7.1302e-05
-9.55912e-06
1.71786e-07
1.46838e-05
2.26327e-07
1.89744e-05
2.49549e-07
2.24392e-05
2.16392e-07
2.6498e-05
1.44453e-07
3.09881e-05
-1.62807e-09
3.61294e-05
-2.3187e-07
4.19097e-05
-5.74178e-07
4.8392e-05
-1.05865e-06
5.55938e-05
-1.73055e-06
6.35695e-05
7.22438e-05
-2.67231e-06
3.37206e-07
1.43466e-05
6.44549e-07
1.86671e-05
9.8684e-07
2.20969e-05
1.34261e-06
2.61422e-05
1.72972e-06
3.0601e-05
2.14924e-06
3.57099e-05
2.60009e-06
4.14588e-05
3.0904e-06
4.79017e-05
3.61248e-06
5.50717e-05
4.14821e-06
6.30338e-05
7.17789e-05
4.61313e-06
5.29031e-07
1.38175e-05
1.12429e-06
1.80718e-05
1.79698e-06
2.14242e-05
2.55858e-06
2.53806e-05
3.43406e-06
2.97255e-05
4.44809e-06
3.46959e-05
5.62605e-06
4.02809e-05
7.00045e-06
4.65273e-05
8.60821e-06
5.3464e-05
1.04761e-05
6.11658e-05
6.97064e-05
1.25486e-05
7.67565e-07
1.305e-05
1.67575e-06
1.71636e-05
2.71201e-06
2.0388e-05
3.91337e-06
2.41793e-05
5.30909e-06
2.83298e-05
6.95195e-06
3.3053e-05
8.90222e-06
3.83306e-05
1.12283e-05
4.42012e-05
1.40098e-05
5.06825e-05
1.73335e-05
5.78421e-05
6.57917e-05
2.12482e-05
1.00246e-06
1.20475e-05
2.24229e-06
1.59238e-05
3.66907e-06
1.89612e-05
5.34365e-06
2.25047e-05
7.2999e-06
2.63736e-05
9.62987e-06
3.0723e-05
1.24098e-05
3.55506e-05
1.5758e-05
4.0853e-05
1.98152e-05
4.66253e-05
2.47406e-05
5.29167e-05
5.98525e-05
3.06798e-05
1.24622e-06
1.08013e-05
2.82725e-06
1.43427e-05
4.67626e-06
1.71122e-05
6.85553e-06
2.03254e-05
9.42501e-06
2.38041e-05
1.24836e-05
2.76644e-05
1.6151e-05
3.18833e-05
2.05867e-05
3.64173e-05
2.59862e-05
4.12258e-05
3.25954e-05
4.63075e-05
5.17525e-05
4.06953e-05
1.51087e-06
9.29041e-06
3.45652e-06
1.23971e-05
5.74329e-06
1.48254e-05
8.46303e-06
1.76057e-05
1.16751e-05
2.0592e-05
1.54984e-05
2.38412e-05
2.00813e-05
2.73003e-05
2.56162e-05
3.08824e-05
3.23664e-05
3.44756e-05
4.06258e-05
3.80482e-05
4.16524e-05
5.07259e-05
1.78579e-06
7.50462e-06
4.08288e-06
1.01e-05
6.82238e-06
1.20859e-05
1.00947e-05
1.43334e-05
1.39594e-05
1.67272e-05
1.85472e-05
1.92534e-05
2.40174e-05
2.18301e-05
3.06027e-05
2.42971e-05
3.8597e-05
2.64813e-05
4.83696e-05
2.82756e-05
2.9743e-05
6.02789e-05
1.9981e-06
5.50652e-06
4.62745e-06
7.47065e-06
7.7984e-06
8.91499e-06
1.15948e-05
1.0537e-05
1.60712e-05
1.22509e-05
2.13457e-05
1.39789e-05
2.75954e-05
1.55804e-05
3.50523e-05
1.68401e-05
4.40236e-05
1.751e-05
5.49113e-05
1.73879e-05
1.64791e-05
6.81752e-05
2.36515e-06
3.14137e-06
5.29364e-06
4.54216e-06
8.8026e-06
5.40602e-06
1.29771e-05
6.36245e-06
1.78687e-05
7.35925e-06
2.35892e-05
8.25845e-06
3.03147e-05
8.85499e-06
3.82267e-05
8.92808e-06
4.7553e-05
8.18368e-06
5.85616e-05
6.37932e-06
3.84557e-06
7.11952e-05
1.69699e-06
4.66528e-06
8.33109e-06
1.26469e-05
1.7688e-05
2.35848e-05
3.04169e-05
3.80255e-05
4.59071e-05
5.37942e-05
6.2642e-05
-3.10176e-06
-3.9438e-06
7.04557e-06
-5.08737e-06
-4.62041e-06
6.60602e-06
-6.80958e-06
-5.57573e-06
7.29794e-06
-8.72214e-06
-6.67218e-06
8.58474e-06
-1.08613e-05
-7.77903e-06
9.91816e-06
-1.32154e-05
-8.79475e-06
1.11489e-05
-1.5861e-05
-9.643e-06
1.22886e-05
-1.89351e-05
-1.02204e-05
1.32945e-05
-2.25524e-05
-1.03525e-05
1.39698e-05
-2.68666e-05
-9.76147e-06
1.40757e-05
-7.98878e-06
1.31957e-05
-3.20735e-05
-3.03196e-06
-9.11841e-07
-5.50123e-06
-2.15115e-06
-7.77044e-06
-3.30651e-06
-9.96647e-06
-4.47615e-06
-1.21972e-05
-5.54832e-06
-1.45684e-05
-6.4235e-06
-1.72157e-05
-6.99571e-06
-2.0299e-05
-7.13707e-06
-2.39981e-05
-6.65345e-06
-2.85169e-05
-5.24266e-06
-2.44926e-06
-3.40565e-05
-1.65695e-06
7.45107e-07
-3.58138e-06
-2.26717e-07
-5.73494e-06
-1.15296e-06
-8.05506e-06
-2.15603e-06
-1.0545e-05
-3.05838e-06
-1.32353e-05
-3.73319e-06
-1.62147e-05
-4.01631e-06
-1.96225e-05
-3.72928e-06
-2.36426e-05
-2.63336e-06
-2.84447e-05
-4.4054e-07
3.3351e-06
-3.42291e-05
-8.55014e-07
1.60012e-06
-2.20278e-06
1.12105e-06
-4.02735e-06
6.71608e-07
-6.22802e-06
4.46399e-08
-8.72229e-06
-5.64101e-07
-1.1521e-05
-9.34444e-07
-1.46742e-05
-8.63146e-07
-1.82592e-05
-1.44324e-07
-2.23922e-05
1.49966e-06
-2.72993e-05
4.46662e-06
9.24436e-06
-3.32086e-05
-5.29781e-07
2.1299e-06
-1.42161e-06
2.01288e-06
-2.78392e-06
2.03392e-06
-4.6258e-06
1.88652e-06
-6.9177e-06
1.72779e-06
-9.63192e-06
1.77978e-06
-1.27823e-05
2.28724e-06
-1.6449e-05
3.52238e-06
-2.07386e-05
5.7893e-06
-2.57624e-05
9.49036e-06
1.51927e-05
-3.17107e-05
-4.91474e-07
2.62138e-06
-1.23138e-06
2.75278e-06
-2.31984e-06
3.12238e-06
-3.80171e-06
3.36839e-06
-5.77172e-06
3.6978e-06
-8.25749e-06
4.26554e-06
-1.12707e-05
5.30043e-06
-1.48413e-05
7.09305e-06
-1.90385e-05
9.98641e-06
-2.39712e-05
1.44231e-05
2.10176e-05
-2.97962e-05
-4.11659e-07
3.03303e-06
-1.15834e-06
3.49947e-06
-2.08964e-06
4.05368e-06
-3.37069e-06
4.64945e-06
-5.08785e-06
5.41495e-06
-7.30634e-06
6.48404e-06
-1.00774e-05
8.07149e-06
-1.34413e-05
1.04569e-05
-1.74546e-05
1.39998e-05
-2.21864e-05
1.91549e-05
2.65763e-05
-2.77451e-05
-4.70224e-07
3.50326e-06
-1.1016e-06
4.13084e-06
-1.9633e-06
4.91539e-06
-3.12253e-06
5.80868e-06
-4.65714e-06
6.94956e-06
-6.65084e-06
8.47773e-06
-9.17448e-06
1.05951e-05
-1.22932e-05
1.35757e-05
-1.60746e-05
1.77811e-05
-2.06169e-05
2.36972e-05
3.20031e-05
-2.60437e-05
-4.41079e-07
3.94434e-06
-1.0609e-06
4.75066e-06
-1.86857e-06
5.72306e-06
-2.93793e-06
6.87804e-06
-4.34295e-06
8.35459e-06
-6.16403e-06
1.02988e-05
-8.48297e-06
1.29141e-05
-1.13782e-05
1.64709e-05
-1.49351e-05
2.1338e-05
-1.92623e-05
2.80244e-05
3.72444e-05
-2.45036e-05
-3.83112e-07
4.32745e-06
-9.51444e-07
5.31899e-06
-1.70452e-06
6.47613e-06
-2.69918e-06
7.87269e-06
-4.00006e-06
9.65547e-06
-5.68512e-06
1.19839e-05
-7.83704e-06
1.5066e-05
-1.05425e-05
1.91763e-05
-1.39015e-05
2.46971e-05
-1.80244e-05
3.21473e-05
4.22407e-05
-2.30207e-05
-3.30528e-07
4.65798e-06
-8.53221e-07
5.84168e-06
-1.55031e-06
7.17322e-06
-2.47184e-06
8.79422e-06
-3.67923e-06
1.08629e-05
-5.24561e-06
1.35502e-05
-7.25125e-06
1.70716e-05
-9.78508e-06
2.17102e-05
-1.29464e-05
2.78584e-05
-1.68486e-05
3.60495e-05
4.70221e-05
-2.163e-05
-3.31743e-07
4.98972e-06
-8.29097e-07
6.33904e-06
-1.48009e-06
7.82421e-06
-2.33606e-06
9.6502e-06
-3.4568e-06
1.19836e-05
-4.90938e-06
1.50028e-05
-6.77069e-06
1.89329e-05
-9.1309e-06
2.40704e-05
-1.20886e-05
3.08161e-05
-1.57587e-05
3.97197e-05
5.15119e-05
-2.02485e-05
-3.10605e-07
5.30032e-06
-7.68282e-07