/*--------------------------------*- C++ -*----------------------------------*\
| =========                 |                                                 |
| \\      /  F ield         | OpenFOAM: The Open Source CFD Toolbox           |
|  \\    /   O peration     | Version:  3.0.1                                 |
|   \\  /    A nd           | Web:      www.OpenFOAM.org                      |
|    \\/     M anipulation  |                                                 |
\*---------------------------------------------------------------------------*/
FoamFile
{
    version     2.0;
    format      ascii;
    class       volScalarField;
    location    "0.759193";
    object      nut;
}
// * * * * * * * * * * * * * * * * * * * * * * * * * * * * * * * * * * * * * //

dimensions      [0 2 -1 0 0 0 0];

internalField   nonuniform List<scalar> 
21246
(
3.77019e-05
0.000242832
0.000365563
0.000429791
0.000457077
0.000471379
0.000487676
0.00050333
0.00050747
0.000490326
0.00044992
2.6941e-05
0.000210717
0.000359357
0.000438831
0.000469606
0.000479161
0.000485608
0.000492622
0.000493218
0.000477276
0.000438865
2.25788e-05
0.000186992
0.000338084
0.000433135
0.000474736
0.000486793
0.000490215
0.000492815
0.000491049
0.000476507
0.000440805
2.16222e-05
0.000175708
0.000323238
0.000425904
0.000476988
0.000493764
0.000497718
0.000499586
0.000497179
0.000481989
0.000445721
2.15044e-05
0.000162751
0.000309879
0.000420074
0.00047991
0.000501128
0.000503773
0.000500752
0.000491655
0.000471567
0.000436432
2.18982e-05
0.000155231
0.000295188
0.000405713
0.000472542
0.000500882
0.000506814
0.000505393
0.000499883
0.000485228
0.000454004
2.25514e-05
0.000151825
0.000286727
0.000392699
0.000459245
0.000491671
0.000503266
0.000506612
0.000504221
0.000490905
0.000458877
2.34209e-05
0.000149336
0.00028042
0.000382103
0.000447381
0.000481709
0.000497202
0.000504838
0.000506678
0.000498176
0.000471792
2.42237e-05
0.000147205
0.000275004
0.00037298
0.000436438
0.000471585
0.000490055
0.000501746
0.000507838
0.000502629
0.000476161
2.48172e-05
0.000144366
0.000269408
0.000364657
0.000426731
0.000462516
0.000483422
0.000498484
0.000507691
0.000503526
0.000474371
2.53108e-05
0.000141197
0.000263825
0.000357107
0.000418364
0.000454901
0.00047792
0.000495711
0.000507352
0.000505181
0.000480998
2.57426e-05
0.000138459
0.000258994
0.000350668
0.000411405
0.000448796
0.000473772
0.000493972
0.00050782
0.000507448
0.000484014
2.59902e-05
0.00013556
0.000254401
0.000345
0.000405706
0.000444237
0.000471221
0.000493758
0.000509684
0.000510256
0.000484261
2.6031e-05
0.000131786
0.000249209
0.00033953
0.00040097
0.000441143
0.000470337
0.000495196
0.000512978
0.000514339
0.000489524
2.58707e-05
0.000127865
0.000243983
0.000334424
0.000397092
0.000439321
0.000470943
0.00049813
0.00051751
0.000518688
0.000489628
2.54693e-05
0.000123376
0.000238305
0.000329324
0.000393829
0.000438642
0.00047299
0.00050257
0.000523427
0.000524162
0.000492125
2.48376e-05
0.0001176
0.000231237
0.000323501
0.000390703
0.000438843
0.000476352
0.000508496
0.000530915
0.000531345
0.000497166
2.38669e-05
0.00011059
0.000222578
0.000316453
0.000387094
0.00043932
0.00048051
0.000515537
0.000539927
0.000540583
0.000503013
2.2566e-05
0.000101038
0.000209758
0.000305342
0.000380137
0.00043737
0.00048335
0.000522141
0.000549312
0.000551853
0.000513827
2.0897e-05
8.8814e-05
0.000192003
0.000288718
0.000367467
0.000428738
0.00047681
0.000515921
0.000543447
0.000547663
0.000513822
1.8793e-05
7.39349e-05
0.000168491
0.000265105
0.00034744
0.000412038
0.000460169
0.000495082
0.000516698
0.000517649
0.000489293
1.62447e-05
5.76622e-05
0.000141139
0.000234461
0.000318844
0.000385876
0.000433175
0.000462163
0.000474404
0.000467574
0.000439898
1.30607e-05
4.39145e-05
0.000112319
0.000198428
0.000280795
0.000347341
0.000393068
0.000417599
0.000422689
0.000409312
0.00037993
9.60788e-06
4.34226e-05
9.85906e-05
0.000162249
0.000222383
0.000275482
0.000315207
0.000338171
0.000343897
0.00033334
0.000309831
3.34248e-05
0.000120835
0.000196686
0.000269999
0.000334927
0.000400977
0.000473824
0.000525253
0.000550168
0.000532097
0.000489949
2.21808e-05
6.22579e-05
0.000113594
0.000165976
0.000215024
0.00025516
0.000291753
0.00036872
0.000536062
0.000586857
0.000537082
1.61392e-05
5.35533e-05
8.52543e-05
0.000121396
0.000158438
0.000190226
0.000213965
0.000242837
0.000327076
0.000564302
0.000597803
1.79767e-05
7.51474e-05
9.51092e-05
0.0001124
0.000134479
0.000156986
0.000174625
0.000188612
0.000218279
0.000322077
0.000576142
2.11629e-05
0.000102996
0.000161866
0.000153663
0.000147712
0.00015054
0.00015683
0.000162222
0.000171642
0.000209557
0.00034405
2.42257e-05
0.000115171
0.000230259
0.000261052
0.000220704
0.000185176
0.000165082
0.000154965
0.000151343
0.000162046
0.000220123
2.72232e-05
0.00012066
0.000265689
0.000374114
0.000356523
0.000282408
0.000215987
0.000173577
0.000150146
0.000142861
0.000164508
3.02319e-05
0.000125657
0.000282674
0.000432017
0.000509686
0.000440378
0.000325102
0.000230668
0.000172168
0.000142574
0.00014107
3.30191e-05
0.000132175
0.000294518
0.000460041
0.000581496
0.000592689
0.000475448
0.000330272
0.000222564
0.000160636
0.000136353
3.54891e-05
0.000140577
0.000304479
0.000470983
0.000609741
0.000691279
0.000625279
0.000458722
0.000300018
0.00019682
0.000145884
3.75622e-05
0.000151653
0.000314442
0.000470712
0.00060501
0.000710881
0.000721656
0.000580047
0.000389626
0.000245711
0.000165852
3.93449e-05
0.000162022
0.000322818
0.000463077
0.000580508
0.000687383
0.000752269
0.000664091
0.000468786
0.000295817
0.000190598
4.07592e-05
0.000173899
0.000331086
0.000452497
0.000546137
0.00063851
0.000723244
0.000696186
0.000517929
0.000333445
0.000212539
4.18232e-05
0.000184724
0.000336468
0.000440036
0.000508163
0.000576608
0.000660674
0.000684189
0.000529413
0.00034923
0.000225961
4.24615e-05
0.000192904
0.000338386
0.000426071
0.000471906
0.000513894
0.000570928
0.000613863
0.000507317
0.00034007
0.000228994
4.25982e-05
0.000200519
0.00033892
0.000411459
0.000437065
0.000454046
0.000480105
0.000497975
0.000460273
0.000322298
0.000224954
4.22239e-05
0.000208185
0.000339929
0.000398893
0.000407583
0.000404217
0.000407281
0.00040863
0.000388979
0.000307816
0.00022247
4.12582e-05
0.00021674
0.000344037
0.000392342
0.000389762
0.00037517
0.000367549
0.000361801
0.000345824
0.000301972
0.00023977
3.96467e-05
0.000227812
0.000354676
0.000395679
0.000387099
0.000369731
0.000362622
0.000361459
0.000355696
0.000332244
0.000291782
3.73375e-05
0.000245988
0.000377503
0.000409788
0.00039074
0.000365151
0.000351749
0.000345509
0.000343232
0.000333922
0.000301273
3.24988e-05
0.000233684
0.000349107
0.000373767
0.00034575
0.000303529
0.000256338
0.000232055
0.000219156
0.000208233
0.000181055
2.5638e-05
0.000197557
0.00029282
0.000314998
0.000264007
0.000178361
0.000141359
0.000122417
0.000111858
0.000104649
9.66343e-05
1.61514e-05
9.19581e-05
0.00011677
0.00010515
8.47634e-05
7.48252e-05
7.33554e-05
7.70457e-05
8.30367e-05
8.84358e-05
9.08381e-05
7.48315e-06
9.84767e-06
1.51125e-05
2.36702e-05
3.72583e-05
5.68209e-05
8.10683e-05
0.000106243
0.000127601
0.000141244
0.000145747
2.50277e-05
5.94607e-05
5.58303e-05
5.55432e-05
5.20806e-05
4.62994e-05
4.29924e-05
4.19382e-05
4.22867e-05
4.37267e-05
4.64243e-05
2.21523e-05
6.2034e-05
5.16129e-05
5.76194e-05
5.42146e-05
4.812e-05
4.41099e-05
4.27419e-05
4.31574e-05
4.49066e-05
4.79637e-05
2.30821e-05
6.41729e-05
4.75989e-05
5.96357e-05
5.52943e-05
4.96174e-05
4.51318e-05
4.3582e-05
4.42572e-05
4.7058e-05
5.30983e-05
2.58058e-05
6.01832e-05
4.5944e-05
5.99286e-05
5.49647e-05
5.04467e-05
4.56424e-05
4.40937e-05
4.50052e-05
4.86966e-05
5.67002e-05
2.89439e-05
5.56815e-05
4.49608e-05
5.82969e-05
5.41758e-05
5.06532e-05
4.55746e-05
4.41752e-05
4.5219e-05
4.94518e-05
5.83586e-05
3.18046e-05
5.22028e-05
4.401e-05
5.60624e-05
5.34096e-05
5.03707e-05
4.50778e-05
4.38581e-05
4.48871e-05
4.93208e-05
5.83819e-05
3.4383e-05
4.98826e-05
4.30753e-05
5.39889e-05
5.27596e-05
4.97073e-05
4.43824e-05
4.32307e-05
4.41184e-05
4.85445e-05
5.77193e-05
3.6716e-05
4.90674e-05
4.22318e-05
5.22823e-05
5.22051e-05
4.88187e-05
4.36286e-05
4.23778e-05
4.30418e-05
4.72413e-05
5.58161e-05
3.85766e-05
4.92337e-05
4.15722e-05
5.10443e-05
5.17599e-05
4.79297e-05
4.2885e-05
4.13813e-05
4.17816e-05
4.55869e-05
5.35183e-05
3.98439e-05
4.95442e-05
3.98997e-05
4.90308e-05
5.12904e-05
4.72111e-05
4.22202e-05
4.03079e-05
4.0437e-05
4.3688e-05
5.08213e-05
4.06485e-05
5.02792e-05
3.81944e-05
4.53542e-05
4.91011e-05
4.63541e-05
4.16351e-05
3.92468e-05
3.90688e-05
4.16444e-05
4.78026e-05
4.09797e-05
5.179e-05
3.74164e-05
4.14793e-05
4.55451e-05
4.48379e-05
4.0939e-05
3.8243e-05
3.77132e-05
3.95467e-05
4.45751e-05
4.07153e-05
5.37834e-05
3.74922e-05
3.78308e-05
4.08258e-05
4.20837e-05
3.98219e-05
3.72457e-05
3.64124e-05
3.75414e-05
4.14441e-05
3.99172e-05
5.60891e-05
3.8551e-05
3.48882e-05
3.55888e-05
3.76103e-05
3.75836e-05
3.59659e-05
3.51111e-05
3.56572e-05
3.84998e-05
3.85453e-05
5.90339e-05
4.07435e-05
3.35174e-05
3.15021e-05
3.24856e-05
3.38089e-05
3.3809e-05
3.35464e-05
3.38318e-05
3.57815e-05
3.66352e-05
6.24698e-05
4.41185e-05
3.37511e-05
2.90175e-05
2.79757e-05
2.89636e-05
3.0167e-05
3.10924e-05
3.17437e-05
3.31825e-05
3.43229e-05
6.6125e-05
4.88629e-05
3.57579e-05
2.83511e-05
2.49792e-05
2.43731e-05
2.53176e-05
2.70529e-05
2.86435e-05
3.02568e-05
3.15292e-05
7.01984e-05
5.51424e-05
3.98369e-05
2.9807e-05
2.40815e-05
2.14393e-05
2.08934e-05
2.19824e-05
2.39339e-05
2.61369e-05
2.83947e-05
7.45123e-05
6.31972e-05
4.64733e-05
3.38175e-05
2.56257e-05
2.08288e-05
1.83793e-05
1.77914e-05
1.86555e-05
2.05566e-05
2.5087e-05
7.87186e-05
7.3214e-05
5.64428e-05
4.13102e-05
3.03781e-05
2.31551e-05
1.86061e-05
1.60675e-05
1.50963e-05
1.5425e-05
2.17091e-05
8.19944e-05
8.49543e-05
7.07597e-05
5.40062e-05
4.01178e-05
2.99165e-05
2.2757e-05
1.79423e-05
1.49053e-05
1.32616e-05
1.82522e-05
8.34912e-05
9.71519e-05
8.99601e-05
7.44247e-05
5.83659e-05
4.47486e-05
3.40747e-05
2.60614e-05
2.0232e-05
1.6135e-05
1.41293e-05
7.70727e-05
0.000103344
0.00010864
0.000101073
8.76574e-05
7.28718e-05
5.90155e-05
4.70358e-05
3.71727e-05
2.92737e-05
1.0047e-05
7.17969e-05
9.1798e-05
0.000102352
0.000105513
0.000103102
9.66996e-05
8.78196e-05
7.77193e-05
6.73227e-05
5.72028e-05
2.1859e-05
6.01728e-05
5.63202e-05
5.56425e-05
5.16769e-05
4.54851e-05
4.21875e-05
4.10625e-05
4.10765e-05
4.18292e-05
4.32897e-05
1.80285e-05
5.27318e-05
5.09089e-05
5.77613e-05
5.32401e-05
4.67328e-05
4.27659e-05
4.10822e-05
4.06315e-05
4.08654e-05
4.15693e-05
1.91196e-05
5.10291e-05
4.5169e-05
5.95839e-05
5.50597e-05
4.83903e-05
4.40063e-05
4.20254e-05
4.13772e-05
4.13697e-05
4.17233e-05
2.20678e-05
4.64435e-05
4.2747e-05
6.03159e-05
5.59128e-05
4.96623e-05
4.53361e-05
4.35842e-05
4.32493e-05
4.36233e-05
4.43425e-05
2.55396e-05
4.14598e-05
4.19148e-05
5.96269e-05
5.59854e-05
5.05717e-05
4.66135e-05
4.53047e-05
4.55282e-05
4.66249e-05
4.81844e-05
2.88744e-05
3.77201e-05
4.14557e-05
5.826e-05
5.58112e-05
5.12467e-05
4.77602e-05
4.70214e-05
4.80148e-05
5.02614e-05
5.35104e-05
3.19561e-05
3.51561e-05
4.10273e-05
5.68784e-05
5.56124e-05
5.17746e-05
4.8737e-05
4.85847e-05
5.03333e-05
5.37336e-05
5.8727e-05
3.48101e-05
3.3357e-05
4.05868e-05
5.56971e-05
5.54116e-05
5.21517e-05
4.95378e-05
4.98923e-05
5.22666e-05
5.66855e-05
6.34852e-05
3.72776e-05
3.20624e-05
4.01341e-05
5.47505e-05
5.52808e-05
5.23551e-05
5.01585e-05
5.08592e-05
5.36606e-05
5.88255e-05
6.71815e-05
3.93622e-05
3.11208e-05
3.97034e-05
5.40187e-05
5.52535e-05
5.24281e-05
5.05759e-05
5.14339e-05
5.44121e-05
5.98533e-05
6.86122e-05
4.1076e-05
3.04991e-05
3.92818e-05
5.34549e-05
5.52925e-05
5.24416e-05
5.07828e-05
5.1616e-05
5.45292e-05
5.98269e-05
6.81497e-05
4.24602e-05
3.00676e-05
3.88412e-05
5.29866e-05
5.5371e-05
5.24066e-05
5.08118e-05
5.14602e-05
5.41218e-05
5.90187e-05
6.67142e-05
4.33149e-05
2.93987e-05
3.76301e-05
5.19557e-05
5.52761e-05
5.23174e-05
5.07404e-05
5.10827e-05
5.33836e-05
5.7756e-05
6.47309e-05
4.36492e-05
2.8378e-05
3.46608e-05
4.92891e-05
5.44476e-05
5.21037e-05
5.06177e-05
5.06092e-05
5.25007e-05
5.6332e-05
6.26804e-05
4.34063e-05
2.73899e-05
3.11162e-05
4.50675e-05
5.25366e-05
5.15706e-05
5.03957e-05
5.00907e-05
5.15569e-05
5.48675e-05
6.06911e-05
4.25498e-05
2.64732e-05
2.75036e-05
3.93972e-05
4.89329e-05
5.02514e-05
4.98919e-05
4.95159e-05
5.06036e-05
5.34392e-05
5.88113e-05
4.10732e-05
2.56465e-05
2.4258e-05
3.2922e-05
4.31116e-05
4.72585e-05
4.85623e-05
4.86697e-05
4.95911e-05
5.2048e-05
5.69977e-05
3.88777e-05
2.49109e-05
2.17071e-05
2.68046e-05
3.55135e-05
4.16551e-05
4.52552e-05
4.67789e-05
4.81197e-05
5.04804e-05
5.50611e-05
3.59139e-05
2.41538e-05
1.9885e-05
2.18898e-05
2.76687e-05
3.36007e-05
3.86739e-05
4.21644e-05
4.48325e-05
4.77739e-05
5.23041e-05
3.21407e-05
2.31709e-05
1.86389e-05
1.8419e-05
2.1163e-05
2.50428e-05
2.93679e-05
3.34974e-05
3.73714e-05
4.13831e-05
4.63822e-05
2.75157e-05
2.16553e-05
1.7682e-05
1.62148e-05
1.67054e-05
1.82499e-05
2.04598e-05
2.30866e-05
2.60893e-05
2.96302e-05
3.41038e-05
2.20386e-05
1.91834e-05
1.64981e-05
1.47669e-05
1.40479e-05
1.40015e-05
1.44177e-05
1.51781e-05
1.6263e-05
1.77515e-05
1.98247e-05
1.57821e-05
1.52451e-05
1.42468e-05
1.31336e-05
1.22528e-05
1.16228e-05
1.12025e-05
1.09554e-05
1.08671e-05
1.09516e-05
1.1532e-05
7.93472e-06
1.40907e-05
1.54345e-05
1.7239e-05
1.96891e-05
2.27647e-05
2.63902e-05
3.03437e-05
3.43629e-05
3.8172e-05
4.10706e-05
4.43905e-05
0.000240104
0.000319614
0.00039138
0.000434077
0.000445121
0.000410853
0.000345199
0.000284687
0.000238635
0.000201879
3.52046e-05
0.000151395
0.000209849
0.000294305
0.000401261
0.000455023
0.000438578
0.000367622
0.000293724
0.000237635
0.000194329
3.24102e-05
0.000109343
0.000169182
0.000233557
0.000314612
0.000417086
0.00045632
0.000397985
0.000312403
0.000243976
0.000192045
3.15408e-05
8.93767e-05
0.000147933
0.000202643
0.000266369
0.000348102
0.000440295
0.000427298
0.000339749
0.000259512
0.000199765
3.05345e-05
8.12542e-05
0.000134307
0.000182951
0.000235732
0.000297844
0.000380385
0.000432742
0.000372678
0.000284274
0.000216934
2.87359e-05
7.85521e-05
0.000125344
0.000168914
0.000213348
0.000260351
0.000320325
0.000387516
0.000393684
0.000317028
0.000241488
2.63421e-05
7.87106e-05
0.000120119
0.000159071
0.000196913
0.000233177
0.000274153
0.000327241
0.000372297
0.00034754
0.000275392
2.36172e-05
8.16735e-05
0.00011903
0.000153296
0.00018566
0.000214565
0.000242859
0.000278302
0.000324716
0.000349609
0.000310664
2.14718e-05
8.96131e-05
0.000123633
0.000152226
0.000179143
0.00020247
0.000222627
0.000244929
0.000278469
0.000320841
0.000329485
2.1855e-05
0.000106807
0.000137154
0.000158137
0.000178222
0.00019597
0.000210234
0.000223773
0.000244501
0.000281378
0.000319663
2.28918e-05
0.000131396
0.000162123
0.000174913
0.00018567
0.000196058
0.000204577
0.000211852
0.000223172
0.000248418
0.000290454
2.26077e-05
0.000153846
0.000194267
0.000204067
0.000204562
0.000204906
0.000206036
0.000207472
0.000211903
0.000226821
0.000260073
2.11608e-05
0.000165463
0.000222587
0.000239775
0.000235061
0.000224468
0.00021586
0.000210235
0.000208561
0.000215412
0.000237974
1.9223e-05
0.000166072
0.000239927
0.000270753
0.000271644
0.000254409
0.000235258
0.000220849
0.000212552
0.000212669
0.000226063
1.72881e-05
0.000159195
0.000245216
0.000288612
0.000303981
0.000289706
0.000263224
0.000239665
0.000224054
0.000217979
0.000224056
1.55991e-05
0.000147746
0.000239223
0.000291346
0.000322479
0.000321322
0.000295193
0.000265139
0.000242706
0.000231015
0.000231257
1.42285e-05
0.000134321
0.000224631
0.000281547
0.00032376
0.000340289
0.000323764
0.000293258
0.000266794
0.000251066
0.000247063
1.30753e-05
0.000121643
0.000206594
0.000263571
0.000310571
0.000342244
0.00034161
0.000318138
0.000292782
0.00027613
0.000270237
1.20255e-05
0.000110737
0.000190239
0.00024282
0.00028823
0.000328624
0.000344792
0.00033417
0.000315882
0.000302734
0.000297433
1.09221e-05
0.000100679
0.00017576
0.000225641
0.000265218
0.000305242
0.00033431
0.000338091
0.000330961
0.000325531
0.000324114
9.65752e-06
8.99976e-05
0.000159887
0.000209748
0.000247157
0.000282801
0.000315374
0.000329533
0.00033294
0.000336497
0.000340729
8.29232e-06
7.34031e-05
0.0001301
0.000179268
0.000222581
0.00026201
0.000293305
0.00030964
0.000317404
0.000324613
0.000330194
7.63538e-06
5.76664e-05
8.67142e-05
0.000120651
0.000154279
0.0002014
0.000244773
0.00027328
0.000286593
0.000294096
0.000299067
7.94349e-06
1.19775e-05
1.55271e-05
2.16384e-05
3.26717e-05
5.36382e-05
9.2837e-05
0.000148533
0.00020116
0.000240084
0.00027333
3.91846e-05
0.000241414
0.000332065
0.000379781
0.000415386
0.000427078
0.000396083
0.00033925
0.000287129
0.000247318
0.000215831
2.497e-05
0.000179047
0.000297481
0.000374191
0.000419444
0.000437267
0.000411777
0.000355685
0.000301703
0.000261036
0.000230437
2.35396e-05
0.000144078
0.000262772
0.000375549
0.00044095
0.000464998
0.000442188
0.000382672
0.000321743
0.000275863
0.000242227
2.50563e-05
0.000131182
0.00024585
0.000372052
0.000455703
0.000493491
0.000479653
0.000420552
0.000351429
0.000297137
0.000257635
2.73908e-05
0.000124921
0.000239147
0.000365984
0.000456764
0.000508839
0.000511081
0.000461965
0.000392889
0.000332552
0.000284786
2.96644e-05
0.000121568
0.000236242
0.000360903
0.000455209
0.000515521
0.000527734
0.000487419
0.000422433
0.000362602
0.000313566
3.17137e-05
0.000119593
0.000234777
0.000356435
0.000451955
0.000517516
0.000537532
0.000505691
0.000446322
0.000388859
0.000340498
3.36102e-05
0.000118614
0.000234258
0.000353113
0.000448746
0.000517434
0.000542711
0.00051771
0.000464101
0.000409706
0.000362656
3.51583e-05
0.000118062
0.000234097
0.000350836
0.000446391
0.000516797
0.000545051
0.000524775
0.000476063
0.000424427
0.000377829
3.63322e-05
0.000117499
0.000234011
0.000349267
0.000445108
0.000516346
0.000545962
0.000528462
0.000483398
0.000433716
0.000385699
3.71005e-05
0.00011628
0.000233236
0.000347765
0.000444544
0.000516523
0.000546843
0.000531006
0.000488887
0.000441844
0.000395692
3.75736e-05
0.000114641
0.000231787
0.000346244
0.0004444
0.000517562
0.000548921
0.00053482
0.000495722
0.000451758
0.000406418
3.76682e-05
0.000112209
0.000229241
0.000344028
0.000444
0.000519204
0.000552898
0.000541911
0.000507043
0.000467579
0.000424523
3.73913e-05
0.000107293
0.000223381
0.000338549
0.000440672
0.000519036
0.000557435
0.00055247
0.000524313
0.000491913
0.000454979
3.66816e-05
0.000100968
0.000213847
0.000328001
0.000430606
0.000511247
0.000555965
0.000561626
0.00054486
0.000522376
0.000494261
3.55129e-05
9.32222e-05
0.000200382
0.000312006
0.000413906
0.000496375
0.000548557
0.000567725
0.000565695
0.000555484
0.000537655
3.38793e-05
8.40667e-05
0.000182755
0.000289956
0.000390033
0.000473944
0.000533798
0.000567318
0.000581598
0.000585301
0.000579625
3.17108e-05
7.39978e-05
0.000161592
0.000261896
0.000358573
0.000442966
0.000509374
0.000555943
0.00058602
0.000604052
0.000611106
2.8973e-05
6.33101e-05
0.000137655
0.000228088
0.000319059
0.000402044
0.000472581
0.000529069
0.000572441
0.000603844
0.000623512
2.56519e-05
5.21595e-05
0.000111809
0.000189233
0.00027139
0.000350041
0.00042113
0.000483139
0.00053579
0.000578445
0.000609646
2.17357e-05
4.08154e-05
8.52427e-05
0.000146927
0.000216558
0.000286928
0.000354098
0.000416521
0.000473749
0.000524945
0.000567404
1.72792e-05
2.97153e-05
5.95996e-05
0.00010373
0.000157075
0.000214484
0.000272566
0.000330009
0.000386975
0.000443744
0.000498028
1.23731e-05
1.87402e-05
3.54984e-05
6.19246e-05
9.64059e-05
0.000136433
0.000180075
0.000227155
0.000279102
0.00033792
0.00040342
7.35083e-06
1.10349e-05
1.99944e-05
3.32537e-05
5.11312e-05
7.36591e-05
0.000100808
0.000132607
0.000171165
0.00022096
0.000288324
1.35469e-05
1.54556e-05
1.65666e-05
1.73036e-05
1.76637e-05
1.77565e-05
1.69985e-05
1.69545e-05
1.69806e-05
4.18663e-05
6.21843e-05
8.86959e-05
0.000112768
0.000128929
0.000140695
0.000134756
0.000121364
0.000108015
8.41939e-05
0.000126267
0.000173928
0.0002082
0.000231564
0.000244731
0.000233198
0.000214624
0.000195997
0.000125325
0.000183979
0.000245208
0.000281065
0.000298283
0.000303618
0.000288275
0.000269002
0.000253482
9.39448e-06
7.13484e-06
6.66905e-06
6.79469e-06
9.05085e-06
1.2722e-05
1.48212e-05
1.59546e-05
1.66266e-05
3.16207e-05
2.49325e-05
2.63384e-05
2.42032e-05
2.65937e-05
3.29515e-05
4.66346e-05
6.79534e-05
9.1869e-05
5.65149e-05
3.92933e-05
4.08858e-05
4.13631e-05
4.84336e-05
6.47113e-05
9.43715e-05
0.00013518
0.000172617
8.15366e-05
5.39729e-05
5.53731e-05
6.06283e-05
7.1976e-05
9.59251e-05
0.000137655
0.00019119
0.000235045
0.000195792
0.000229734
0.00022979
8.03215e-05
0.000413967
0.000229161
8.69569e-05
0.00022975
0.000229186
0.000234043
0.00039979
0.000229767
0.000123135
0.000187808
0.000123893
0.000228759
0.000163781
8.12562e-05
0.000228768
0.000228657
0.000229521
3.30199e-05
0.000229955
0.000246811
0.000229283
0.000191463
0.000131907
8.64617e-05
0.000338662
0.000556492
0.00014574
0.000235866
0.000115435
0.000229502
0.000241352
0.00022968
0.000233607
0.000229272
9.71639e-05
0.000229059
2.02388e-05
0.00022954
0.000114691
0.000229935
0.000462144
4.45007e-05
5.19498e-05
7.9957e-05
0.000239886
0.000229917
0.000552818
0.000229072
0.000400743
0.000114946
0.000229752
0.000229318
3.3403e-05
0.000229067
0.000363805
0.000165025
3.12364e-05
0.000344536
0.000494647
0.000165263
2.80055e-05
0.000228668
0.000649428
0.000233023
0.000229725
0.000233549
0.000189412
0.000233341
6.11577e-05
0.000241437
0.000216351
0.000231499
1.94943e-05
0.000229742
0.000139009
0.00039529
0.000623155
0.000140791
0.000229271
0.000229806
0.000247567
6.2003e-05
0.000423165
0.000268145
4.5473e-05
0.000252963
0.000229496
0.000229098
2.37493e-05
0.000234561
0.000402409
0.000129473
0.000161736
0.000235154
4.38765e-05
0.000235434
0.000251458
8.67721e-05
0.00023015
0.000236491
4.96636e-05
0.000229587
0.00018149
0.000229874
0.000109746
0.000234802
0.000229488
0.00022959
0.000231138
7.11749e-05
8.09619e-05
0.000228995
0.000229065
0.00022899
0.000229577
0.000229166
6.84518e-05
0.000239834
0.000250733
0.00019056
4.38045e-05
0.000196205
0.000940533
0.000176459
0.000143563
0.00012045
0.000229252
0.000162818
7.94833e-05
0.000231941
0.000229763
0.000230941
2.08584e-05
0.00010688
0.000546016
0.000244829
0.000117598
0.00023107
0.000240805
0.00016797
0.000229086
3.83783e-05
0.000115325
0.000232339
0.000235324
0.000229478
0.000229804
0.000229222
4.05877e-05
0.000239056
7.74854e-05
6.21117e-05
7.01508e-05
2.91268e-05
0.000169381
0.000228919
0.000217186
4.92248e-05
0.000232795
0.000229029
0.000673958
0.000112497
5.70523e-05
0.000237378
0.000229556
2.85024e-05
0.000147852
0.000159004
0.000222795
0.000229529
0.000235112
0.000220295
0.00015389
3.93722e-05
0.000464423
0.000199667
0.000231807
2.74483e-05
0.000229949
0.000135577
0.000229567
0.000108891
0.00023019
0.000228993
0.000229704
0.000174809
0.000109895
0.000196623
0.000228618
2.0509e-05
0.00022976
0.000229026
0.000229541
4.42574e-05
0.00011728
0.000230001
3.58219e-05
0.000230305
0.000111134
0.00014299
0.00022982
0.000271461
0.000234011
0.000143503
0.000229576
0.000228736
0.000291732
0.000228958
0.000175262
0.000239056
0.000229357
0.0003306
0.000229417
5.08672e-05
0.000230283
8.04955e-05
7.38091e-05
6.70053e-05
0.000160066
7.97789e-05
0.000193315
0.000229082
0.000109967
0.000113137
0.000111612
0.000313506
3.17906e-05
0.000228579
0.00022994
0.000239923
3.92273e-05
0.000313003
0.000644186
0.0002299
0.000229759
0.000229732
5.13948e-05
0.00020935
0.000236612
2.03296e-05
0.00024214
5.01161e-05
0.000229429
0.000145114
0.000156673
0.000847871
0.000145045
0.000292473
0.000230797
0.000228873
0.000233809
0.000229401
0.000229252
0.000229226
4.59947e-05
0.000230297
0.000122681
0.000192044
0.000228219
0.000229691
0.000229467
5.06394e-05
0.0002314
0.000247498
0.000159532
0.000179704
0.000208206
0.000229515
0.000230338
5.13328e-05
0.000229198
0.000228969
0.000186791
0.000229275
0.000238364
4.91656e-05
0.000234745
0.000229763
0.000622384
0.000604697
0.000233443
0.000229149
0.0005053
0.000229804
0.000238036
0.00011067
0.000229834
9.95497e-05
0.000236825
8.08048e-05
0.000230016
0.000229471
0.000229269
0.00022969
0.000240812
0.00018954
0.000229307
6.04218e-05
0.000243015
0.000553551
0.000229214
0.000235124
0.000229756
0.000255185
2.85034e-05
0.000229099
5.47736e-05
0.000229605
0.000233903
0.000119453
2.26309e-05
0.000231631
0.000171157
6.44501e-05
0.000228738
0.000237899
0.000229866
0.000508291
0.00022891
0.000192165
0.000114783
0.00023388
0.00022918
0.000207099
0.000228278
0.000701265
0.000238052
0.000490604
1.81634e-05
0.000229886
9.88042e-05
0.000208958
6.86418e-05
0.00022973
0.000229345
0.000238953
5.23601e-05
0.000280362
0.000230505
0.000109297
0.00019098
0.000255422
9.94551e-05
0.000228959
0.000203137
0.000986928
5.79222e-05
0.000236042
0.000179744
0.000229229
0.000105995
0.000230037
7.12791e-05
0.00020679
0.000229935
0.000760491
0.000136086
0.000185374
0.000229438
0.000229337
0.000229691
5.10684e-05
0.000167641
5.92395e-05
7.06021e-05
0.000247725
0.000229258
0.000137195
0.000181237
0.000193364
0.000112904
0.000229827
0.000152569
0.000241121
0.00022917
0.000229455
0.000504953
0.000229054
3.65214e-05
0.00022908
0.00019675
0.0006863
6.0243e-05
0.000192929
0.000211105
4.60668e-05
0.000229257
4.82067e-05
0.000185996
0.000244573
0.00068307
2.68205e-05
0.000229302
0.000229358
0.0002298
8.85395e-05
4.58665e-05
0.00022895
0.000229936
0.000111664
9.83756e-05
1.85376e-05
0.000103382
0.000134185
0.000230276
0.000511803
0.000237176
0.000228753
0.000117794
0.000119843
4.98533e-05
0.000233885
0.000110011
0.000245632
0.000182316
4.9611e-05
0.000306076
0.000149514
8.97058e-05
0.000109883
0.000227267
0.000234176
0.000240242
7.42464e-05
0.000230486
3.31232e-05
0.000229296
3.67632e-05
0.000207332
0.000228649
0.000244162
6.31512e-05
0.000287732
0.000510181
0.000190017
0.000230034
0.000236596
0.000397045
0.000103012
6.0192e-05
0.000233074
7.10799e-05
0.000221118
2.74787e-05
0.000228985
4.00467e-05
0.000229297
0.000229757
0.000229399
4.99009e-05
9.67084e-05
7.23761e-05
0.000149675
3.36416e-05
8.17222e-05
0.000229697
0.000229
0.0009658
0.000182104
0.000233869
0.000237329
4.13264e-05
4.53254e-05
2.96836e-05
2.93526e-05
0.00023725
0.000211817
5.25312e-05
0.000229536
3.04519e-05
0.000234886
0.000229792
0.000229402
8.0568e-05
3.52743e-05
0.000230018
0.000229085
0.000229524
0.000264906
2.41726e-05
0.000229893
4.09089e-05
0.000360545
0.00015663
6.19467e-05
0.00022884
3.70442e-05
0.000229052
0.000235001
0.000229061
0.000125482
0.000149405
0.000228657
0.000193811
0.00016886
0.000244982
0.000223495
0.000207049
0.000229666
0.000229448
0.000219613
6.51342e-05
5.70785e-05
0.000238633
8.82835e-05
0.000229771
0.000444372
0.000104794
4.40657e-05
0.000107573
0.000250692
0.000640376
7.6315e-05
0.000193581
0.000229164
0.00018432
0.000228844
0.000229756
0.000229217
0.000229765
0.000232775
0.000483008
0.000229657
0.000228869
0.000157278
0.000229271
4.52969e-05
0.000245471
0.000219091
0.000176196
4.68519e-05
0.000230015
0.000229286
0.000229828
2.09529e-05
3.5363e-05
0.000229367
0.000229236
0.00019039
0.000229759
9.61489e-05
0.000229728
0.000853496
0.000236956
3.12452e-05
9.15883e-05
0.000130681
4.89275e-05
0.000471592
0.000229252
0.000231487
0.000235117
0.00022983
6.31549e-05
2.63479e-05
0.00022391
0.000130133
0.000221152
0.000119294
0.000229301
0.000230284
0.000229684
0.000223019
0.000689745
8.40624e-05
0.000229624
0.000229058
0.000608548
0.000231616
9.58037e-05
0.000138282
0.000153785
0.00029521
0.000229135
8.86492e-05
0.000229255
7.67485e-05
0.000229627
0.000216415
0.000149484
0.000234774
2.3764e-05
0.000128375
0.000229851
0.000229983
0.0004182
0.000228974
0.000183505
0.000103101
8.3091e-05
0.000218335
5.27013e-05
0.00015265
0.000231335
0.000229235
0.000229518
0.000118977
5.11908e-05
0.00011296
0.000228649
0.000229335
8.87057e-05
0.000230317
0.00023735
0.000234929
0.000233433
0.000107608
5.50276e-05
8.33915e-05
0.000159957
0.000233567
0.000219124
0.000228844
0.000149244
0.000231427
0.000229362
0.000149474
0.000374487
0.000228927
0.000228993
2.15142e-05
0.000230287
0.000228964
0.000147694
0.000229719
0.000233129
9.4043e-05
8.46745e-05
0.000158623
0.000181654
0.000158898
6.88016e-05
0.000367983
6.16312e-05
0.00010448
0.000180285
5.24946e-05
7.24333e-05
0.000128805
0.000229776
0.000230075
0.000113865
0.000230101
0.000229568
0.00023784
0.00020739
0.000113654
0.000164011
0.000193042
0.000221917
0.000229086
0.000184989
0.000229503
0.000229285
0.00023666
7.77973e-05
0.000231577
0.000241364
0.000230938
0.000229808
0.000125785
6.22241e-05
0.000300323
0.000231761
0.000230942
0.000189937
0.000118919
0.000236578
0.000168574
0.000231378
0.000218866
0.000518837
0.000229117
6.3392e-05
0.000229944
0.000119772
0.00013383
0.000104602
0.000125521
0.000215373
0.000246558
0.000229832
9.99989e-05
0.000182308
4.68355e-05
0.000896053
0.000228941
0.000233677
0.000229822
0.000161047
0.000229854
4.26189e-05
0.000229626
0.000229094
0.000229121
0.000132374
6.84484e-05
0.000229553
0.000128927
0.00022928
0.000112377
0.000169505
0.000231078
0.00011266
2.03787e-05
8.05151e-05
0.000236973
0.00020051
0.000137004
0.000120662
0.000129033
8.67974e-05
0.000229233
0.000146353
0.000229455
0.000237118
5.05913e-05
0.000242036
3.65322e-05
0.000187823
0.000231282
0.000233289
0.0002292
5.67114e-05
0.000229678
0.00109533
9.87413e-05
0.000829034
0.000233217
0.000138785
0.000153189
0.000217968
0.000239767
0.000121251
3.67896e-05
6.09023e-05
0.000229579
0.000185265
0.000219762
0.00022951
4.87503e-05
0.000118943
0.000243147
0.000218718
0.000229046
0.000234593
0.000235183
0.00013044
0.000235425
0.000192543
0.00022962
0.000119627
0.000233961
8.44448e-05
6.50561e-05
0.000326922
0.000109688
0.000228991
0.000257287
5.41129e-05
0.000229133
0.000191455
0.000188007
7.70518e-05
0.000230338
2.91265e-05
0.000237287
8.17781e-05
9.15204e-05
0.000247629
0.000229252
0.000247553
0.000229048
0.000106473
2.01831e-05
0.000230053
0.000229522
0.00025188
0.000361634
0.000478665
0.000152573
0.000229787
0.000143365
0.000238464
0.000229576
0.000229662
0.000229788
0.000229401
0.000241504
0.000158738
4.75789e-05