/*--------------------------------*- C++ -*----------------------------------*\
| =========                 |                                                 |
| \\      /  F ield         | OpenFOAM: The Open Source CFD Toolbox           |
|  \\    /   O peration     | Version:  3.0.1                                 |
|   \\  /    A nd           | Web:      www.OpenFOAM.org                      |
|    \\/     M anipulation  |                                                 |
\*---------------------------------------------------------------------------*/
FoamFile
{
    version     2.0;
    format      ascii;
    class       volScalarField;
    location    "0.770052";
    object      nut;
}
// * * * * * * * * * * * * * * * * * * * * * * * * * * * * * * * * * * * * * //

dimensions      [0 2 -1 0 0 0 0];

internalField   nonuniform List<scalar> 
21246
(
1.71594e-05
0.000133134
0.00022257
0.000287163
0.000332967
0.000371017
0.000408425
0.000445043
0.000471417
0.000477699
0.000460602
1.36939e-05
0.0001058
0.000194202
0.000266815
0.000317453
0.000354795
0.000386999
0.000415571
0.000434855
0.000437924
0.000421841
1.2767e-05
8.88457e-05
0.000171028
0.00024598
0.000301238
0.000340614
0.000371587
0.000397008
0.000412678
0.000412346
0.000392292
1.30382e-05
8.29531e-05
0.0001616
0.000235364
0.000291661
0.000331215
0.000360377
0.000383511
0.000398155
0.000398344
0.0003799
1.36934e-05
8.21752e-05
0.000159937
0.000232185
0.000288015
0.000326692
0.000353497
0.000374024
0.000387896
0.000389541
0.000373352
1.43335e-05
8.30552e-05
0.000161351
0.000232622
0.000287774
0.000325571
0.000350426
0.000368678
0.000381904
0.000385419
0.000372453
1.49274e-05
8.47457e-05
0.000164032
0.000234706
0.000289269
0.000326461
0.00035007
0.000366795
0.000379654
0.000384715
0.000373651
1.5629e-05
8.72218e-05
0.00016745
0.000237702
0.000291731
0.000328474
0.000351386
0.000367322
0.000380293
0.00038737
0.000380795
1.62599e-05
8.94683e-05
0.000170949
0.000241056
0.000294672
0.000331084
0.000353706
0.000369474
0.000383005
0.000391821
0.000386843
1.67288e-05
9.11007e-05
0.000173708
0.000244036
0.000297584
0.000333968
0.000356697
0.000372768
0.000387098
0.000397138
0.000392228
1.71134e-05
9.22446e-05
0.000175756
0.000246528
0.00030031
0.000336972
0.000360144
0.000376854
0.000392111
0.000403335
0.000400249
1.74481e-05
9.33985e-05
0.000177616
0.000248837
0.000302941
0.000340051
0.000363898
0.000381481
0.000397755
0.000409985
0.000407211
1.76481e-05
9.412e-05
0.000178943
0.000250722
0.000305357
0.000343175
0.000367959
0.000386629
0.000404021
0.00041708
0.000413821
1.76856e-05
9.38892e-05
0.000179152
0.00025175
0.000307333
0.000346294
0.000372376
0.00039237
0.000410967
0.000424864
0.000422393
1.75801e-05
9.3257e-05
0.000178698
0.00025215
0.000308915
0.000349374
0.000377105
0.000398663
0.00041854
0.000433052
0.000429391
1.73044e-05
9.16717e-05
0.000177181
0.000251582
0.000309868
0.000352307
0.000382145
0.000405555
0.000426789
0.000441758
0.000437038
1.68686e-05
8.82433e-05
0.000173159
0.000248791
0.000309241
0.000354507
0.000387267
0.000413004
0.000435768
0.000451102
0.00044544
1.61819e-05
8.36688e-05
0.000167062
0.000243571
0.000306137
0.000354302
0.000390156
0.00041865
0.00044368
0.00046032
0.000453502
1.5231e-05
7.7579e-05
0.000158065
0.000234818
0.000299422
0.00035058
0.000389315
0.000419439
0.000444927
0.000462098
0.000456147
1.3993e-05
6.95037e-05
0.000145123
0.000221033
0.000287395
0.000341576
0.000382954
0.000413579
0.000437229
0.000452586
0.000448227
1.24215e-05
5.90124e-05
0.000127216
0.000200248
0.00026751
0.000324669
0.000368884
0.000399681
0.000419655
0.000429693
0.00042448
1.05122e-05
4.71924e-05
0.000103711
0.000169686
0.00023576
0.000295653
0.000343619
0.000375997
0.000393016
0.000396398
0.000386133
8.16655e-06
2.90788e-05
6.80036e-05
0.000122429
0.000184964
0.000247153
0.000300305
0.000337542
0.000356115
0.000356913
0.000342432
6.07627e-06
1.50339e-05
3.81034e-05
7.64233e-05
0.000124871
0.000177975
0.000228687
0.000269244
0.000293859
0.000300505
0.000291034
1.18855e-05
6.18879e-05
0.000132032
0.000209528
0.000280328
0.000340992
0.000400423
0.000466781
0.000518153
0.000541556
0.000531487
9.43266e-06
2.7748e-05
5.76925e-05
9.96948e-05
0.000153579
0.000212478
0.00027788
0.000375929
0.000485074
0.000582183
0.000604646
1.10018e-05
3.0734e-05
6.02192e-05
8.12538e-05
0.000103518
0.000137453
0.000180769
0.000234835
0.000334793
0.000514013
0.000647241
1.35047e-05
3.821e-05
8.12358e-05
0.000118644
0.00012579
0.000127932
0.00014232
0.00016891
0.000213437
0.000316704
0.000568273
1.6395e-05
4.78504e-05
0.000103081
0.000164592
0.000201293
0.000186204
0.000165647
0.000157567
0.000167356
0.000206034
0.000330995
1.92467e-05
5.9445e-05
0.000126105
0.000205222
0.000272249
0.000294146
0.000252147
0.000204435
0.000174053
0.000170361
0.000211706
2.19636e-05
7.27248e-05
0.000150717
0.000240496
0.00032599
0.000385704
0.000372408
0.000303189
0.000230812
0.000183634
0.00017501
2.45894e-05
8.71255e-05
0.000176145
0.000270928
0.000362093
0.000442228
0.000482598
0.000427229
0.000327262
0.000236307
0.000183581
2.69703e-05
0.000102747
0.000202248
0.000297742
0.000385197
0.000468292
0.000535408
0.000531189
0.00043634
0.000314912
0.000221251
2.90622e-05
0.000119448
0.000228056
0.000321143
0.000399288
0.000473347
0.000548117
0.000594571
0.000532276
0.000400638
0.000275688
3.0833e-05
0.000136352
0.000252113
0.000341061
0.00040766
0.000466442
0.00053498
0.000605365
0.000594611
0.000474582
0.000332407
3.23923e-05
0.000151384
0.000273442
0.000356956
0.000411933
0.000454553
0.000510004
0.00058685
0.000624406
0.000526375
0.000379604
3.3709e-05
0.000164787
0.000290337
0.000368443
0.000412883
0.000442096
0.000482758
0.000549444
0.00061719
0.000554394
0.000407431
3.47205e-05
0.000177317
0.000304705
0.000376707
0.000411008
0.000429055
0.000456726
0.000504595
0.000561325
0.000562028
0.000413399
3.53263e-05
0.000188986
0.000317402
0.000382808
0.000406641
0.000412998
0.000426687
0.000455924
0.00049236
0.000507242
0.000420704
3.55196e-05
0.000200395
0.00032959
0.000388252
0.000401653
0.000396384
0.000396217
0.000408005
0.000425405
0.000433624
0.000405337
3.52712e-05
0.000211735
0.000342203
0.000394705
0.000398587
0.000383333
0.000372215
0.000371686
0.000377222
0.000381233
0.000373475
3.4481e-05
0.000223142
0.000356462
0.000404622
0.000400948
0.000378356
0.000360564
0.000354223
0.000355085
0.000356214
0.000349857
3.3024e-05
0.000236561
0.000376054
0.000424264
0.000415599
0.000386293
0.000361983
0.000351182
0.000350386
0.000352933
0.000354974
2.93875e-05
0.000230867
0.000366438
0.000417961
0.000413039
0.000379815
0.000345401
0.000323948
0.000314591
0.000308732
0.000318074
2.37133e-05
0.000200107
0.000328559
0.000389979
0.000397825
0.000367895
0.000321195
0.000273107
0.000218986
0.00019423
0.000179784
1.77578e-05
0.0001559
0.000271089
0.000336133
0.000355649
0.000332534
0.000278351
0.000208626
0.000163138
0.000138736
0.000123448
1.22056e-05
0.000114063
0.000188772
0.000231091
0.000233264
0.000198181
0.000153137
0.000127485
0.000117534
0.000117038
0.000119286
6.2059e-06
2.61823e-05
4.58376e-05
5.72878e-05
6.1832e-05
7.22016e-05
8.97766e-05
0.000114012
0.000140116
0.000161315
0.00017244
4.38053e-05
0.0001799
0.000189004
0.000220139
0.000273282
0.000317394
0.000335699
0.000321492
0.000291632
0.000268513
0.000257348
2.84887e-05
0.000129448
0.000194605
0.000252795
0.000300106
0.000332213
0.000346142
0.000335916
0.000305672
0.000278458
0.000264629
2.69667e-05
0.000112211
0.000179345
0.000256037
0.000308872
0.000342159
0.00035753
0.000351255
0.000323483
0.000293546
0.000275862
2.82744e-05
9.83167e-05
0.000162096
0.000245475
0.000302565
0.000342758
0.00036302
0.000361373
0.000336963
0.000306309
0.000285457
3.03339e-05
8.71184e-05
0.000148142
0.000230169
0.000288325
0.000336113
0.000362287
0.000366677
0.000346768
0.000316977
0.000293541
3.23524e-05
7.82641e-05
0.000136815
0.000213967
0.000271918
0.000323915
0.000355178
0.000365723
0.000351056
0.000323661
0.000299694
3.43245e-05
7.14798e-05
0.000127079
0.000198264
0.000255598
0.000308859
0.000343642
0.000359467
0.000350246
0.000326574
0.000303468
3.62575e-05
6.62943e-05
0.000118636
0.000184197
0.000240233
0.000292881
0.000329608
0.000349421
0.000345356
0.000326367
0.000306456
3.79876e-05
6.21611e-05
0.000111214
0.000171966
0.000226203
0.000277292
0.000314755
0.000337292
0.000337837
0.000324028
0.000308007
3.94825e-05
5.86821e-05
0.000104496
0.000161286
0.000213523
0.000262746
0.000300117
0.000324292
0.000328638
0.000319776
0.000307523
4.0849e-05
5.57777e-05
9.83783e-05
0.000151804
0.000201997
0.00024929
0.000286021
0.000310972
0.000318261
0.000313867
0.000305721
4.19581e-05
5.3428e-05
9.28658e-05
0.000143316
0.000191459
0.000236806
0.000272511
0.000297558
0.000306998
0.000306508
0.000302331
4.27106e-05
5.14558e-05
8.77909e-05
0.000135649
0.00018182
0.000225298
0.000259658
0.000284205
0.000295017
0.000297806
0.000297435
4.30772e-05
4.86599e-05
8.13645e-05
0.000127255
0.00017228
0.000214565
0.00024739
0.000270913
0.000282314
0.000287691
0.00029111
4.29635e-05
4.62362e-05
7.42658e-05
0.000116947
0.000159316
0.000199729
0.000231249
0.000254563
0.00026717
0.000275179
0.000282499
4.23351e-05
4.38688e-05
6.64912e-05
0.000104518
0.000142882
0.00018001
0.000209378
0.00023266
0.000247365
0.000258516
0.000269782
4.12632e-05
4.12118e-05
5.78655e-05
8.94958e-05
0.0001226
0.000155067
0.000181482
0.000204356
0.00022174
0.000236568
0.000251718
3.95431e-05
3.86783e-05
4.99116e-05
7.40962e-05
0.000100686
0.000127065
0.000149227
0.000169962
0.000189006
0.000207465
0.00022647
3.71564e-05
3.61068e-05
4.29296e-05
5.97018e-05
7.91503e-05
9.85452e-05
0.000115183
0.00013138
0.000148823
0.000168752
0.000190928
3.40793e-05
3.33112e-05
3.698e-05
4.73982e-05
6.00796e-05
7.2652e-05
8.3324e-05
9.34463e-05
0.000105301
0.000121288
0.000142305
3.0255e-05
3.00787e-05
3.18983e-05
3.76291e-05
4.48572e-05
5.18677e-05
5.75019e-05
6.22175e-05
6.74909e-05
7.54041e-05
8.79468e-05
2.5633e-05
2.61949e-05
2.7348e-05
3.01816e-05
3.37061e-05
3.69547e-05
3.9262e-05
4.06516e-05
4.17278e-05
4.34915e-05
4.71269e-05
2.01565e-05
2.11556e-05
2.25377e-05
2.40933e-05
2.56519e-05
2.6883e-05
2.75099e-05
2.74766e-05
2.69689e-05
2.63602e-05
2.61212e-05
1.42435e-05
1.91765e-05
2.03598e-05
2.08879e-05
2.10908e-05
2.10419e-05
2.07156e-05
2.0089e-05
1.91945e-05
1.81351e-05
1.70665e-05
4.34774e-05
0.00018006
0.000190363
0.000227184
0.000263863
0.000296038
0.000308003
0.00029092
0.000262154
0.000243417
0.000237327
3.3381e-05
0.000153576
0.000137439
0.000211366
0.000253685
0.000282023
0.00028899
0.000269375
0.000236993
0.000216705
0.000211147
3.31363e-05
0.000129522
0.000118293
0.00019627
0.000246821
0.000281146
0.000282531
0.000258024
0.000222586
0.00020082
0.000194827
3.58264e-05
0.000113337
0.000113241
0.00018293
0.00023879
0.000281341
0.000278908
0.000245556
0.000200005
0.000168915
0.000154068
3.90136e-05
0.000104139
0.000108553
0.000169811
0.000229901
0.000276846
0.000272384
0.000231759
0.000179141
0.000145256
0.000130733
4.17306e-05
9.96579e-05
0.000104195
0.000158277
0.00022048
0.000267561
0.000261805
0.000216196
0.000159463
0.000123759
0.00010635
4.39078e-05
9.74899e-05
0.000100247
0.000148613
0.000210774
0.000255524
0.000248558
0.000199803
0.000142038
0.000107215
9.07764e-05
4.57902e-05
9.6116e-05
9.66269e-05
0.000140418
0.000201123
0.000242544
0.000234245
0.000183655
0.000127151
9.46608e-05
7.96139e-05
4.71398e-05
9.51529e-05
9.32981e-05
0.000133278
0.000191856
0.000229907
0.000220262
0.000168741
0.000114815
8.50023e-05
7.08824e-05
4.79348e-05
9.44663e-05
9.02255e-05
0.000126869
0.000183195
0.000218317
0.000207513
0.000155706
0.000105003
7.81892e-05
6.63344e-05
4.81628e-05
9.3975e-05
8.73532e-05
0.000120671
0.00017526
0.000208101
0.000196627
0.000144871
9.7503e-05
7.35606e-05
6.4178e-05
4.79975e-05
9.31649e-05
8.40243e-05
0.00011264
0.0001638
0.000194204
0.000183696
0.000135315
9.23692e-05
7.06657e-05
6.31804e-05
4.73548e-05
9.18924e-05
8.04529e-05
0.000103256
0.000148878
0.00017696
0.000169211
0.000127052
8.91031e-05
6.91127e-05
6.29301e-05
4.62653e-05
8.9917e-05
7.67304e-05
9.27405e-05
0.000130811
0.000156543
0.000153137
0.00011952
8.71632e-05
6.8638e-05
6.31186e-05
4.46793e-05
8.75218e-05
7.33059e-05
8.2696e-05
0.000111956
0.000134388
0.000135469
0.000111607
8.5731e-05
6.89631e-05
6.36205e-05
4.25813e-05
8.45383e-05
7.02382e-05
7.37209e-05
9.39225e-05
0.000111854
0.000116163
0.000101938
8.35633e-05
6.96235e-05
6.43232e-05
3.99807e-05
8.0748e-05
6.75102e-05
6.61929e-05
7.80562e-05
9.06111e-05
9.59007e-05
8.94334e-05
7.88017e-05
6.93715e-05
6.4943e-05
3.67932e-05
7.60431e-05
6.50079e-05
6.03221e-05
6.53385e-05
7.24396e-05
7.64919e-05
7.4438e-05
6.98349e-05
6.57398e-05
6.39793e-05
3.29912e-05
7.02267e-05
6.24598e-05
5.60034e-05
5.601e-05
5.83856e-05
5.99948e-05
5.90972e-05
5.7282e-05
5.65935e-05
5.80798e-05
2.85577e-05
6.30404e-05
5.94178e-05
5.28735e-05
4.97706e-05
4.86192e-05
4.76941e-05
4.60853e-05
4.4412e-05
4.39122e-05
4.56632e-05
2.34853e-05
5.41745e-05
5.52731e-05
5.03387e-05
4.60338e-05
4.27544e-05
3.99002e-05
3.71104e-05
3.45818e-05
3.28397e-05
3.24443e-05
1.77949e-05
4.46231e-05
4.97102e-05
4.75556e-05
4.38536e-05
3.99542e-05
3.61409e-05
3.25174e-05
2.92231e-05
2.64468e-05
2.43455e-05
1.16435e-05
3.24739e-05
3.78117e-05
3.84721e-05
3.71558e-05
3.36236e-05
2.9679e-05
2.59574e-05
2.26562e-05
1.98396e-05
1.74793e-05
9.55638e-06
1.04798e-05
1.09613e-05
1.14396e-05
1.16937e-05
1.1931e-05
1.20885e-05
1.21265e-05
1.2024e-05
1.17882e-05
1.1452e-05
3.75367e-05
0.000160452
0.000178793
0.000208008
0.000217655
0.000206099
0.000173254
0.000143738
0.000124303
0.000109835
9.67925e-05
3.07543e-05
0.000120609
0.000123416
0.000177897
0.000218546
0.000214242
0.000177791
0.000140569
0.00011655
9.9728e-05
8.5653e-05
2.95222e-05
9.37604e-05
0.000106117
0.000138019
0.0001944
0.000219022
0.00018612
0.000142019
0.000112796
9.33819e-05
7.79506e-05
3.01245e-05
7.89992e-05
9.83241e-05
0.000121712
0.000168864
0.000218322
0.000195038
0.000146415
0.000112298
9.07039e-05
7.49334e-05
3.07794e-05
7.20443e-05
9.31203e-05
0.000111869
0.000151354
0.000206896
0.000202317
0.00015246
0.00011412
9.06158e-05
7.4804e-05
3.08284e-05
6.89831e-05
8.91069e-05
0.000104291
0.000136047
0.000186328
0.000203176
0.000159377
0.000117523
9.21657e-05
7.60512e-05
3.04088e-05
6.82526e-05
8.6306e-05
9.85453e-05
0.000122858
0.00016302
0.000191286
0.0001655
0.000122133
9.48333e-05
7.81414e-05
2.96577e-05
6.94584e-05
8.50562e-05
9.47304e-05
0.000112655
0.000142473
0.000171723
0.000165138
0.000128186
9.88455e-05
8.09867e-05
2.85363e-05
7.17336e-05
8.53005e-05
9.24871e-05
0.000104909
0.000125666
0.000149942
0.000156467
0.00013281
0.000103923
8.47866e-05
2.70736e-05
7.45953e-05
8.69181e-05
9.15973e-05
9.90865e-05
0.000112158
0.00012921
0.00014053
0.000132703
0.000109322
8.93792e-05
2.54748e-05
7.83805e-05
9.02667e-05
9.24066e-05
9.54799e-05
0.000102333
0.000112405
0.000122129
0.000125398
0.000113116
9.46458e-05
2.3975e-05
8.40528e-05
9.60462e-05
9.5421e-05
9.43661e-05
9.61929e-05
0.000100548
0.000106112
0.000112664
0.00011233
9.97987e-05
2.30407e-05
9.25254e-05
0.000105117
0.000101289
9.59044e-05
9.32139e-05
9.28909e-05
9.40943e-05
9.87433e-05
0.000105228
0.000102635
2.31799e-05
0.000104688
0.000118919
0.000111403
0.000100888
9.34421e-05
8.88979e-05
8.61994e-05
8.71081e-05
9.385e-05
0.000100132
2.41449e-05
0.000122164
0.00013978
0.000128259
0.0001111
9.77983e-05
8.87644e-05
8.24504e-05
7.95507e-05
8.28317e-05
9.1837e-05
2.48732e-05
0.000141928
0.000167494
0.000154528
0.0001295
0.000108237
9.33594e-05
8.29606e-05
7.6397e-05
7.53487e-05
8.16187e-05
2.46304e-05
0.000158134
0.000197409
0.000190294
0.000159579
0.000128346
0.000105148
8.9058e-05
7.82578e-05
7.28465e-05
7.42612e-05
2.34384e-05
0.000168285
0.000223865
0.00023047
0.000202035
0.000162168
0.000128339
0.00010395
8.7214e-05
7.68283e-05
7.29408e-05
2.15352e-05
0.000171829
0.00024273
0.000266425
0.0002512
0.000210984
0.000167848
0.000133008
0.000107713
9.05386e-05
8.05127e-05
1.90688e-05
0.000168271
0.000251412
0.000291238
0.000296522
0.000269827
0.000226429
0.000183059
0.000147367
0.000120708
0.000102401
1.62173e-05
0.000156118
0.000249637
0.000303973
0.000330926
0.000329028
0.000300629
0.00025862
0.000215515
0.000178149
0.000148805
1.40917e-05
0.000135739
0.000233962
0.000299518
0.000345686
0.000368767
0.000366918
0.000343298
0.000306766
0.000266714
0.00022842
1.16335e-05
0.000109798
0.000172791
0.000225402
0.000269977
0.000305538
0.00033159
0.000344086
0.000340861
0.000325219
0.000299478
8.75141e-06
3.15741e-05
5.07787e-05
7.35103e-05
9.913e-05
0.000127879
0.000158745
0.000187307
0.000208888
0.000223284
0.000229389
3.21311e-05
0.00015314
0.000179329
0.00019721
0.000210633
0.000203514
0.000177608
0.000153217
0.000136815
0.000124921
0.000114466
2.12082e-05
0.00011904
0.000172933
0.000206104
0.000220327
0.000215973
0.000192674
0.000167676
0.000150787
0.000139548
0.000130648
2.08562e-05
0.000100768
0.000160448
0.000221658
0.000243449
0.00023975
0.000214783
0.000184911
0.000164623
0.000152294
0.00014368
2.28456e-05
9.1483e-05
0.000150192
0.000226182
0.000260222
0.000262648
0.000239366
0.00020689
0.000181926
0.000166714
0.000157216
2.54759e-05
8.46745e-05
0.000145435
0.000224482
0.000262224
0.000269417
0.000249222
0.000217952
0.000192752
0.000177034
0.000167256
2.8007e-05
7.96958e-05
0.00014231
0.000219462
0.000259398
0.00027153
0.000254494
0.000224378
0.000199365
0.000183634
0.000174092
3.03181e-05
7.60258e-05
0.000139634
0.000213415
0.000254389
0.000270417
0.000256529
0.000228508
0.000204546
0.000189444
0.000180621
3.24625e-05
7.33193e-05
0.000137238
0.000207638
0.000249105
0.000268149
0.000256945
0.000231138
0.000208428
0.000194058
0.000185861
3.42717e-05
7.12248e-05
0.000134877
0.000202426
0.00024463
0.000265954
0.000257055
0.000233088
0.000211398
0.000197666
0.000189971
3.57358e-05
6.93875e-05
0.00013267
0.000197965
0.00024134
0.000264322
0.000257628
0.000235135
0.000214076
0.00020062
0.000192956
3.68331e-05
6.75389e-05
0.000130279
0.00019415
0.000238882
0.000263661
0.000259236
0.000237949
0.00021717
0.000203752
0.000196051
3.76655e-05
6.56823e-05
0.000127733
0.000190785
0.000237015
0.000263984
0.000262182
0.000242112
0.000221378
0.000207779
0.000199758
3.81555e-05
6.3637e-05
0.000124873
0.000187552
0.000235496
0.000265204
0.000266699
0.000248206
0.000227437
0.000213515
0.000205207
3.82427e-05
5.99219e-05
0.000119522
0.00018198
0.000231938
0.000265249
0.000271813
0.000256462
0.000236126
0.000221886
0.000213574
3.78602e-05
5.5697e-05
0.000111609
0.000172691
0.00022335
0.000259551
0.000272813
0.0002644
0.000247358
0.00023369
0.000225473
3.69794e-05
5.10638e-05
0.000101367
0.00015971
0.000210016
0.00024801
0.000268052
0.000269321
0.000259473
0.000248751
0.000241367
3.55937e-05
4.61286e-05
8.91761e-05
0.000143062
0.000191998
0.000230741
0.000256285
0.000267711
0.000268502
0.000264746
0.000260609
3.36283e-05
4.11819e-05
7.6088e-05
0.000123564
0.000169737
0.000208194
0.000237239
0.000256828
0.000268887
0.000275866
0.000279387
3.10404e-05
3.62815e-05
6.3005e-05
0.000102335
0.000143839
0.0001807
0.000211186
0.000235732
0.00025623
0.000274062
0.00028884
2.78011e-05
3.13331e-05
5.05228e-05
8.06714e-05
0.000115332
0.000148678
0.000178485
0.000204877
0.000229528
0.000254066
0.000278569
2.38724e-05
2.62147e-05
3.90033e-05
5.99897e-05
8.60278e-05
0.000113377
0.000139915
0.000165215
0.000190226
0.000216411
0.000244783
1.92692e-05
2.07988e-05
2.85869e-05
4.14571e-05
5.83077e-05
7.74979e-05
9.77781e-05
0.000118664
0.000140493
0.00016418
0.00019091
1.40303e-05
1.46267e-05
1.86226e-05
2.51038e-05
3.38132e-05
4.43385e-05
5.63084e-05
6.95912e-05
8.43929e-05
0.000101293
0.000121265
8.4654e-06
9.05138e-06
1.1518e-05
1.49323e-05
1.9267e-05
2.45062e-05
3.05731e-05
3.82768e-05
4.84791e-05
6.13094e-05
7.68287e-05
7.44755e-06
1.09759e-05
1.35577e-05
1.45892e-05
1.5036e-05
1.52076e-05
1.50348e-05
1.42033e-05
1.44587e-05
2.57208e-05
2.87745e-05
4.00326e-05
5.91795e-05
7.98056e-05
8.99132e-05
9.72006e-05
9.96463e-05
9.23515e-05
4.01892e-05
5.18688e-05
7.70713e-05
0.00010934
0.000133819
0.000143764
0.000150471
0.000152757
0.000146597
5.54505e-05
7.28127e-05
0.000106659
0.000145378
0.00016753
0.000170987
0.000172077
0.000177113
0.000172255
6.56248e-06
6.23408e-06
7.35849e-06
1.09435e-05
1.31206e-05
1.41903e-05
1.46162e-05
1.47316e-05
1.46694e-05
2.66158e-05
2.40062e-05
2.1825e-05
2.35653e-05
3.0157e-05
4.1518e-05
5.78063e-05
7.28881e-05
8.34886e-05
4.12848e-05
3.88684e-05
3.69216e-05
4.31253e-05
5.79868e-05
7.98502e-05
0.000105962
0.000123611
0.000136956
5.73605e-05
5.81672e-05
5.51785e-05
6.28872e-05
8.12545e-05
0.0001078
0.000136084
0.000152155
0.000164645
0.000195929
0.000229727
0.000229765
7.85972e-05
0.00040629
0.000229286
9.12016e-05
0.000229536
0.00022926
0.000233302
0.000399245
0.000229546
0.000124769
0.000187087
0.000123965
0.000228726
0.000163889
7.93776e-05
0.000228723
0.000228691
0.000229707
3.00082e-05
0.000229945
0.000249344
0.000229309
0.000190806
0.000132748
8.94943e-05
0.000269756
0.00055469
0.00014582
0.000235694
0.000114071
0.00022948
0.000240859
0.000229693
0.000236286
0.000229287
9.61925e-05
0.000229261
1.53478e-05
0.000229508
0.00011715
0.000229919
0.000463924
5.04922e-05
5.14985e-05
9.98846e-05
0.000239522
0.00022921
0.000551145
0.000229296
0.000429194
0.0001172
0.00022916
0.000229501
3.08496e-05
0.000229325
0.00026198
0.000163743
2.87633e-05
0.000363767
0.000485498
0.000164169
2.15057e-05
0.000228672
0.000652515
0.000231641
0.000229723
0.000232805
0.000189384
0.000231879
6.09028e-05
0.000236687
0.000209149
0.00023067
2.2324e-05
0.000229685
0.000138322
0.000434329
0.000614891
0.000139904
0.000229301
0.00022979
0.000247197
6.17162e-05
0.000291496
0.00027555
4.50551e-05
0.000253333
0.000229507
0.00022939
1.75252e-05
0.000232306
0.000425104
0.000151099
0.000156822
0.000235101
4.35763e-05
0.000233362
0.000250618
9.18028e-05
0.000229697
0.000236533
4.97674e-05
0.000229502
0.000181535
0.000229866
0.000109888
0.00023515
0.000229512
0.000229547
0.000230351
7.07417e-05
8.02606e-05
0.000229006
0.000229157
0.000228847
0.000229536
0.000228998
6.827e-05
0.00023622
0.000242513
0.000190761
4.41871e-05
0.000192526
0.00089945
0.0001764
0.000144822
0.000121238
0.000229468
0.000160757
9.48741e-05
0.000230953
0.000229753
0.000227721
2.05902e-05
0.000106322
0.000544297
0.000244201
0.000121187
0.000231501
0.000237184
0.000167807
0.000229106
3.81846e-05
0.000105722
0.000231214
0.000234233
0.000229524
0.000229426
0.000229372
4.03328e-05
0.000235365
7.63972e-05
6.25286e-05
6.97634e-05
3.05592e-05
0.000169362
0.000228768
0.000217142
4.8953e-05
0.000231481
0.000229024
0.000675484
0.000113311
5.65161e-05
0.000251417
0.000235007
2.15857e-05
0.00014635
0.000158858
0.000236069
0.000229607
0.000234971
0.00022025
0.000154311
3.90849e-05
0.000458988
0.000199663
0.00023075
2.46488e-05
0.000229921
0.000152028
0.000229434
0.000108396
0.000230048
0.000228843
0.000229692
0.000173564
0.000109869
0.000196313
0.000228582
1.56728e-05
0.000229745
0.000228882
0.000229259
4.39839e-05
0.000117869
0.00023
3.51661e-05
0.000229444
0.000111271
0.00014351
0.000229796
0.000275441
0.000231958
0.00014475
0.000229136
0.000228692
0.000291673
0.000228987
0.000175374
0.000238652
0.000229414
0.000341955
0.000229364
5.05248e-05
0.00022981
8.08583e-05
7.34728e-05
6.66348e-05
0.000154224
7.91428e-05
0.000193346
0.000229345
0.000120937
0.000112863
0.000111994
0.000312977
3.23355e-05
0.000228562
0.000229607
0.000236486
3.89709e-05
0.00030225
0.000647373
0.00022987
0.000229587
0.000229579
5.10329e-05
0.000204394
0.000236647
1.73425e-05
0.000236722
4.97391e-05
0.000229426
0.000144036
0.000164225
0.000831778
0.000144188
0.000292575
0.000238668
0.000228778
0.000233851
0.000229243
0.000229524
0.000229218
4.73846e-05
0.000230269
0.000122958
0.000187484
0.000228176
0.000229611
0.000229497
5.04761e-05
0.000231912
0.000238705
0.000159536
0.000179648
0.00022636
0.000229047
0.000229498
5.08732e-05
0.000229049
0.000228847
0.000187094
0.000229236
0.000238242
4.91911e-05
0.00023282
0.000229665
0.000615016
0.000607791
0.000233473
0.000228982
0.000363345
0.000229637
0.000237779
0.000115106
0.000229738
9.90816e-05
0.00025074
8.02864e-05
0.000229999
0.000229133
0.000234166
0.000229597
0.000240362
0.000189477
0.000229512
6.02315e-05
0.00024231
0.000551629
0.000229472
0.000235174
0.000229682
0.000245952
2.51685e-05
0.000228947
5.5351e-05
0.000229548
0.000233852
0.000118
2.5598e-05
0.000231575
0.000172286
6.45587e-05
0.000228674
0.000234156
0.000229799
0.000494855
0.000228887
0.000192227
0.000114693
0.000237859
0.000229252
0.000207883
0.00022826
0.000710711
0.000235186
0.000480429
2.06322e-05
0.00022988
0.000101221
0.000240019
6.81421e-05
0.000229648
0.000229263
0.000239029
4.63857e-05
0.000280612
0.00022957
0.000109404
0.000213867
0.000246595
9.82811e-05
0.000228973
0.00020172
0.000952303
6.07536e-05
0.000235014
0.000179703
0.000229512
0.000105989
0.000230036
7.11207e-05
0.000206715
0.00022992
0.000764409
0.000136079
0.000184579
0.000229397
0.00022936
0.000229477
5.05759e-05
0.000167535
5.95951e-05
7.16264e-05
0.000241766
0.000229216
0.000130928
0.000209319
0.000193091
0.000112964
0.000229717
0.000152511
0.000240783
0.000228967
0.000229414
0.000505948
0.000228862
3.71602e-05
0.000229346
0.000196338
0.000686762
6.01324e-05
0.000192916
0.000205888
4.59588e-05
0.000229404
4.77106e-05
0.000186142
0.000243507
0.000685251
2.08927e-05
0.000229382
0.000229091
0.000229757
8.8243e-05
4.72314e-05
0.000228951
0.000229932
0.000116609
9.69571e-05
1.8683e-05
0.000102858
0.00013346
0.000229419
0.000497464
0.00024414
0.000228707
0.000118025
0.000119933
4.9916e-05
0.000233781
0.000109866
0.000239384
0.000182556
5.08442e-05
0.000293934
0.000149883
9.271e-05
0.000110344
0.000227212
0.000234622
0.000235747
7.42444e-05
0.000217994
2.86338e-05
0.000229329
3.72683e-05
0.000207362
0.000228541
0.000228721
6.39657e-05
0.000292519
0.00051192
0.000190268
0.000230033
0.000236618
0.000291249
9.99396e-05
6.00609e-05
0.000234538
7.39238e-05
0.00022791
2.59157e-05
0.000228776
3.99971e-05
0.000229437
0.00022974
0.000229321
4.9985e-05
8.68439e-05
7.03999e-05
0.000148243
3.29693e-05
8.17282e-05
0.000229677
0.000228793
0.000925788
0.000182236
0.00023388
0.000242292
4.13291e-05
4.53276e-05
2.96836e-05
2.93526e-05
0.000234775
0.000211781
5.25841e-05
0.00022982
2.96322e-05
0.000238087
0.000229634
0.000228994
8.05656e-05
3.54965e-05
0.000229792
0.000229127
0.000229719
0.000263548
2.27743e-05
0.000229866
4.07921e-05
0.000360677
0.000156487
6.30872e-05
0.00022872
3.81238e-05
0.00022889
0.000237333
0.000229294
0.000126694
0.000149385
0.000228622
0.000193828
0.000169002
0.000237856
0.000224059
0.000207675
0.000229464
0.000229475
0.000207851
6.75224e-05
5.69943e-05
0.000235514
7.99931e-05
0.000229757
0.000447047
0.000104798
4.40855e-05
0.00010848
0.000249916
0.000643579
7.59684e-05
0.000193598
0.000229215
0.000184317
0.000228758
0.00022966
0.000229136
0.000229616
0.000235169
0.00048429
0.000229542
0.00022875
0.000162962
0.0002295
3.78315e-05
0.000246247
0.000211387
0.000176202
4.64397e-05
0.000229994
0.000229234
0.000229811
1.65918e-05
3.55379e-05
0.000229384
0.000229317
0.000190537
0.00022974
9.31921e-05
0.000229696
0.000865542
0.000236959
3.32083e-05
9.08547e-05
0.000131008
5.87669e-05
0.000475627
0.000229541
0.000231966
0.000234076
0.000229707
6.39768e-05
2.66983e-05
0.000223855
0.000130271
0.000173574
0.000123191
0.000229309
0.000229545
0.000229676
0.000228815
0.00069272
8.40428e-05
0.000229473
0.000229079
0.000611371
0.000230604
9.50696e-05
0.000139459
0.000152345
0.000324137
0.000229297
8.86708e-05
0.000229193
7.65015e-05
0.000229339
0.000211337
0.000149882
0.000234651
2.71826e-05
0.000128701
0.000229819
0.000229978
0.000421137
0.000228914
0.000183527
0.000101728
8.28033e-05
0.000220943
4.69365e-05
0.000152931
0.000230627
0.000229508
0.000229436
0.000146772
5.11986e-05
0.000113017
0.000228654
0.000229347
8.81896e-05
0.00023041
0.000234097
0.000239607
0.000232133
0.000107038
5.45813e-05
8.32124e-05
0.000159963
0.000233601
0.000230404
0.000228771
0.000147284
0.000230555
0.00022952
0.000170026
0.00037535
0.000228945
0.000228851
2.04521e-05
0.000229845
0.00022877
0.000147688
0.000229713
0.000235453
9.43445e-05
8.4112e-05
0.000158586
0.000180653
0.000159292
6.86923e-05
0.000356513
6.9932e-05
0.000106148
0.000180283
5.20571e-05
7.21915e-05
0.000128812
0.00022976
0.000230627
0.000113828
0.000230159
0.000229906
0.000240387
0.00020744
0.0001169
0.000157292
0.000193052
0.000239272
0.000229175
0.000197608
0.000229572
0.000229018
0.000236546
7.96756e-05
0.00023085
0.000236916
0.000231828
0.000229669
0.000123259
6.22317e-05
0.000299817
0.000230843
0.000231228
0.000189846
0.000127859
0.000233446
0.000168208
0.000230607
0.000210595
0.00049434
0.000229251
6.49981e-05
0.000229915
0.000118524
0.000132561
0.000103954
0.000137964
0.000215329
0.000246493
0.000229822
9.99626e-05
0.000182431
4.70613e-05
0.000857394
0.000228938
0.000233611
0.000229809
0.000161017
0.000230354
4.24877e-05
0.000229508
0.000229368
0.000228969
0.00013253
6.83607e-05
0.000229608
0.000129282
0.0002292
0.000111899
0.000169495
0.000231246
0.000111445
1.89508e-05
7.99563e-05
0.000237174
0.00019641
0.000137841
0.000118711
0.000127608
9.13938e-05
0.000229267
0.000146144
0.000229543
0.000234873
5.0625e-05
0.000193839
3.77644e-05
0.000187106
0.000230372
0.00023549
0.000229021
5.62908e-05
0.000229667
0.00109462
0.000103654
0.000841703
0.000233981
0.000138752
0.000155067
0.000219278
0.000237009
0.000121215
3.69306e-05
6.09804e-05
0.000229546
0.000184484
0.000184104
0.000229535
4.2503e-05
0.000119151
0.000237089
0.000211081
0.000229125
0.00023604
0.000235084
0.000130727
0.000233424
0.000192381
0.000229594
0.000118396
0.000232665
8.38786e-05
6.73962e-05
0.000327643
0.000110065
0.000228863
0.00026431
5.49059e-05
0.000229186
0.000190844
0.000187925
7.96289e-05
0.000237476
3.09167e-05
0.000252522
8.10731e-05
9.08001e-05
0.000249584
0.000229037
0.000247302
0.00022913
0.000103914
2.08425e-05
0.000230042
0.00022955
0.000251602
0.00036162
0.000471703
0.000152709
0.000229592
0.00014334
0.000248242
0.00022954
0.000229669
0.000229779
0.000229534
0.000236363
0.000159142
4.78578e-05
0.000121638
0.000177994
0.000238581