/*--------------------------------*- C++ -*----------------------------------*\
| =========                 |                                                 |
| \\      /  F ield         | OpenFOAM: The Open Source CFD Toolbox           |
|  \\    /   O peration     | Version:  3.0.1                                 |
|   \\  /    A nd           | Web:      www.OpenFOAM.org                      |
|    \\/     M anipulation  |                                                 |
\*---------------------------------------------------------------------------*/
FoamFile
{
    version     2.0;
    format      ascii;
    class       volScalarField;
    location    "0.75013";
    object      k;
}
// * * * * * * * * * * * * * * * * * * * * * * * * * * * * * * * * * * * * * //

dimensions      [0 2 -2 0 0 0 0];

internalField   nonuniform List<scalar> 
21246
(
1.06224
1.51561
1.15362
0.776704
0.477848
0.279594
0.161014
0.0920843
0.0523246
0.0298045
0.017576
0.754605
1.08706
0.958443
0.694616
0.450292
0.274272
0.16127
0.092646
0.0524225
0.0296022
0.0173004
0.531358
0.902131
0.852501
0.671201
0.460179
0.28926
0.172745
0.0995859
0.0560358
0.0313783
0.0181991
0.431936
0.752218
0.766614
0.64927
0.470517
0.306418
0.187259
0.109691
0.0621795
0.0346634
0.019841
0.366037
0.60894
0.642131
0.582813
0.453317
0.311911
0.196586
0.116586
0.0660553
0.0362761
0.0201874
0.331931
0.525217
0.556519
0.512362
0.409681
0.291203
0.188527
0.11432
0.0662423
0.0373658
0.0214532
0.309481
0.466238
0.494319
0.456269
0.367747
0.265177
0.175537
0.109368
0.0650786
0.0374808
0.0217024
0.293799
0.421729
0.445311
0.409912
0.331438
0.241194
0.16217
0.10316
0.062844
0.0371175
0.0223914
0.281933
0.386473
0.405752
0.371934
0.300809
0.220128
0.149763
0.0969831
0.0604359
0.0365765
0.0224946
0.271944
0.357198
0.373381
0.341303
0.276054
0.20284
0.139276
0.0915147
0.0581017
0.0358138
0.0221449
0.263398
0.332382
0.346539
0.316462
0.256207
0.188981
0.130759
0.0869242
0.0559819
0.0349917
0.0221213
0.256591
0.311501
0.324121
0.295973
0.240065
0.177836
0.123936
0.083229
0.0542646
0.034373
0.0220508
0.251189
0.293674
0.305376
0.279269
0.227245
0.169203
0.118773
0.0805144
0.0530945
0.034044
0.0220078
0.246691
0.278152
0.289685
0.265999
0.21759
0.163039
0.115303
0.0788486
0.0525029
0.0339698
0.0222049
0.243332
0.264765
0.276424
0.255332
0.210404
0.158921
0.113326
0.078171
0.0525034
0.0341932
0.0223564
0.241132
0.252975
0.265247
0.247059
0.205611
0.156874
0.112928
0.0785771
0.0531841
0.0347939
0.0227365
0.240068
0.24228
0.255808
0.241093
0.203363
0.157159
0.114359
0.0802668
0.0547006
0.0358668
0.0233894
0.240208
0.232642
0.247274
0.236609
0.203363
0.15998
0.117888
0.0834265
0.0572246
0.0375706
0.0244576
0.241683
0.223801
0.239209
0.232685
0.204494
0.164491
0.123431
0.0883504
0.0610426
0.0402568
0.0261841
0.244854
0.215427
0.231295
0.229011
0.206422
0.170454
0.130745
0.0949904
0.0662896
0.0441765
0.0288187
0.250412
0.207352
0.223072
0.225019
0.208406
0.177217
0.139598
0.103581
0.0734874
0.049881
0.032953
0.260229
0.198988
0.214318
0.219719
0.209073
0.183459
0.14928
0.114218
0.0833471
0.0583093
0.0395418
0.273558
0.190345
0.202989
0.212902
0.208013
0.188388
0.159109
0.126801
0.0964951
0.070575
0.0499741
0.290319
0.193092
0.206355
0.205579
0.201911
0.188321
0.166216
0.139533
0.112266
0.0870683
0.0654935
1.02671
1.56632
1.22783
0.916021
0.619175
0.36761
0.206972
0.11404
0.0626806
0.0348885
0.0203084
0.886085
1.19707
1.14888
0.956641
0.722622
0.480784
0.278353
0.153426
0.0838138
0.0453465
0.0251396
0.60164
0.905197
1.00484
0.920266
0.753653
0.547903
0.347267
0.199462
0.112027
0.0602941
0.0325182
0.387757
0.983976
0.962217
0.885353
0.755139
0.582049
0.396737
0.243139
0.143451
0.0801588
0.0441932
0.448186
1.10105
1.03575
0.899277
0.759932
0.60118
0.430774
0.279552
0.173389
0.103597
0.0598565
0.49714
1.26128
1.29134
1.02818
0.806476
0.624867
0.457037
0.309433
0.200273
0.126544
0.0793514
0.489848
1.15712
1.54167
1.28747
0.9289
0.67347
0.48456
0.33483
0.224142
0.147724
0.0973514
0.488404
1.09257
1.6142
1.605
1.14698
0.767365
0.523395
0.358879
0.245048
0.167001
0.115138
0.487681
1.05323
1.58306
1.86184
1.44026
0.918041
0.582763
0.385602
0.263818
0.184336
0.131746
0.486007
1.02254
1.54129
1.9858
1.75639
1.1245
0.668201
0.418354
0.281638
0.199858
0.146798
0.482146
0.989869
1.49332
1.9791
1.99229
1.35425
0.775819
0.458082
0.299456
0.213861
0.160855
0.4768
0.950825
1.4326
1.91783
2.11704
1.56433
0.889772
0.500671
0.316822
0.226543
0.173727
0.472259
0.912938
1.36042
1.81912
2.12075
1.71346
0.987859
0.538754
0.332396
0.238172
0.185824
0.469304
0.873146
1.27423
1.68843
2.023
1.77287
1.04923
0.564499
0.344638
0.249062
0.197985
0.470384
0.836933
1.18212
1.52851
1.8507
1.74281
1.05795
0.57126
0.352619
0.259807
0.211168
0.4737
0.807539
1.09348
1.35681
1.59142
1.62426
1.01697
0.557755
0.356834
0.272235
0.226168
0.476958
0.778883
0.999815
1.18054
1.32347
1.34949
0.973655
0.535033
0.362045
0.289304
0.244919
0.481601
0.75457
0.907227
1.00816
1.07397
1.07031
0.889314
0.537005
0.377938
0.316648
0.271313
0.491675
0.744016
0.831376
0.864063
0.879103
0.874765
0.804908
0.58682
0.424696
0.366776
0.312429
0.515594
0.764217
0.79738
0.776371
0.762464
0.772001
0.767475
0.68016
0.53009
0.446559
0.372108
0.574052
0.873218
0.887512
0.827216
0.777645
0.766614
0.764472
0.724224
0.602713
0.489409
0.379469
0.71691
1.18069
1.22206
1.13419
0.985276
0.835088
0.662197
0.548578
0.432417
0.333916
0.248355
0.466988
0.8532
0.915822
0.717717
0.548446
0.429177
0.335799
0.265645
0.209551
0.163979
0.1266
0.327588
0.262971
0.229351
0.209932
0.198342
0.187748
0.173963
0.15566
0.133744
0.110388
0.0877333
0.240742
0.259266
0.0999302
0.0467808
0.0239451
0.01561
0.0124958
0.0111741
0.0105248
0.0101616
0.0099328
0.283845
0.393752
0.110486
0.0597371
0.027633
0.0168134
0.0126075
0.0108738
0.0100333
0.00956532
0.00928073
0.324541
0.398798
0.134692
0.0707918
0.0302028
0.0181167
0.0128398
0.0107007
0.00965869
0.00905958
0.00863861
0.35441
0.373628
0.146576
0.0760545
0.0316164
0.0192189
0.0130486
0.0105892
0.00936891
0.00865959
0.00815054
0.370449
0.359784
0.152868
0.0772513
0.0329147
0.0200493
0.0132107
0.0105177
0.00914939
0.00835369
0.00779381
0.373428
0.35745
0.160192
0.0796618
0.0348194
0.0207143
0.0133976
0.0104954
0.00899522
0.0081277
0.00753292
0.364851
0.363444
0.170212
0.0841388
0.0380229
0.0216443
0.0136857
0.0105364
0.00890722
0.00796964
0.00732813
0.346627
0.376228
0.182605
0.0905021
0.041989
0.0230538
0.0142958
0.0106788
0.00888922
0.00787711
0.00719089
0.321567
0.393818
0.198389
0.0990743
0.0469738
0.0250917
0.0152313
0.0110077
0.00898395
0.00786385
0.00711197
0.2923
0.41379
0.22002
0.111225
0.0537302
0.0281374
0.0166358
0.0115703
0.00920334
0.00793186
0.00710582
0.260389
0.437177
0.24772
0.127409
0.0626311
0.0324248
0.018651
0.0124481
0.00958439
0.00809439
0.00717036
0.228409
0.467003
0.281257
0.147496
0.0736648
0.0380227
0.0213861
0.0137206
0.0101736
0.00837511
0.00731534
0.2005
0.501043
0.322879
0.173235
0.0877688
0.0453704
0.0251035
0.0155374
0.0110535
0.00881634
0.00755987
0.179815
0.536291
0.374846
0.207402
0.106632
0.0553111
0.0302496
0.018144
0.0123594
0.00949043
0.00794005
0.169861
0.580475
0.439096
0.251408
0.131192
0.0684066
0.0371926
0.0217925
0.0142577
0.0104975
0.00851244
0.173695
0.632689
0.518637
0.309567
0.164297
0.0861858
0.0467508
0.026952
0.0170338
0.0120087
0.00937317
0.187675
0.68056
0.612044
0.387859
0.211093
0.111665
0.0605474
0.0345142
0.0212038
0.0143286
0.0107004
0.206344
0.716549
0.710229
0.489267
0.277378
0.149013
0.0811125
0.0459693
0.0276589
0.0179994
0.0128242
0.221017
0.728336
0.791823
0.60957
0.369956
0.205163
0.113194
0.0642795
0.0382103
0.0241302
0.0164192
0.228136
0.711894
0.831773
0.727239
0.490042
0.289143
0.165085
0.0953295
0.056694
0.0351484
0.0230067
0.224942
0.65447
0.809562
0.802865
0.622682
0.408456
0.249931
0.15056
0.0914225
0.0566708
0.0362518
0.235805
0.592738
0.752597
0.821855
0.737066
0.558467
0.382238
0.249035
0.159126
0.101538
0.0652924
0.21578
0.4764
0.573861
0.655518
0.666449
0.605718
0.493711
0.370173
0.263132
0.181968
0.123469
0.267997
0.616588
0.6267
0.650606
0.632171
0.580569
0.502135
0.411314
0.323613
0.247791
0.18424
0.187265
0.19471
0.0878059
0.0386979
0.0214119
0.0151409
0.0127197
0.0116748
0.0111902
0.0109734
0.0109063
0.183837
0.163633
0.071096
0.0402973
0.0235373
0.0164169
0.0135724
0.0123965
0.0119195
0.0117925
0.0118856
0.206839
0.181474
0.0677836
0.0458278
0.0270636
0.0186504
0.0148781
0.0132758
0.0126274
0.0124621
0.0125964
0.228482
0.175113
0.0661059
0.0487046
0.0284935
0.0200736
0.0159697
0.0141581
0.0134264
0.0132314
0.0133758
0.245777
0.155966
0.0652563
0.0495343
0.0293724
0.021154
0.0167629
0.0148007
0.0139774
0.0137542
0.0139084
0.259582
0.138401
0.0644031
0.0487926
0.029556
0.0218651
0.0173952
0.0154251
0.0145994
0.0144082
0.0145985
0.271202
0.125114
0.0634078
0.0474775
0.0294544
0.0223471
0.0179058
0.0160429
0.0153085
0.0152585
0.0156268
0.280408
0.115204
0.0622489
0.0461094
0.029353
0.0226885
0.0183445
0.0166086
0.0159738
0.0160477
0.0165309
0.288672
0.107858
0.0612379
0.0450794
0.0294753
0.0229712
0.0187548
0.0171152
0.0165661
0.0167759
0.0175005
0.296887
0.102708
0.0605561
0.0444086
0.0298229
0.0232934
0.0191676
0.0175678
0.017065
0.0173777
0.0183188
0.305822
0.0994507
0.0603701
0.0442606
0.0303887
0.0237222
0.0196062
0.0179766
0.0174582
0.0177837
0.0187302
0.315173
0.0974063
0.0604883
0.0445393
0.0311636
0.0242774
0.0200863
0.0183576
0.017758
0.0180215
0.0189588
0.324864
0.0969278
0.0609829
0.0452392
0.0322134
0.0249962
0.0206421
0.0187367
0.0179908
0.0181175
0.0189455
0.333234
0.0991708
0.0621548
0.0463741
0.0336997
0.0260025
0.0213927
0.0191912
0.0182291
0.0181473
0.0187724
0.340377
0.102789
0.063767
0.0478016
0.0355638
0.0273565
0.022416
0.0198044
0.018549
0.018192
0.0185423
0.346468
0.1079
0.0659722
0.0495819
0.0377954
0.0291536
0.0238006
0.0206813
0.0190365
0.0183341
0.018351
0.351651
0.114825
0.0690306
0.0518248
0.0404119
0.0314912
0.0256703
0.0219698
0.0198266
0.0186976
0.018319
0.356023
0.123366
0.0731693
0.0546553
0.0434302
0.0344284
0.0281613
0.0238558
0.021119
0.0194731
0.0186288
0.359708
0.133522
0.0787252
0.0583036
0.0469332
0.0380091
0.0314079
0.0265544
0.0231862
0.020945
0.0195612
0.362903
0.145435
0.0862356
0.0631943
0.0511431
0.0422928
0.0355238
0.0302784
0.0263506
0.0235097
0.0215393
0.365892
0.159115
0.0962549
0.0699884
0.0565084
0.0474311
0.0405816
0.0351575
0.0308817
0.0275849
0.0251171
0.369374
0.173911
0.10912
0.0795118
0.0637861
0.0537974
0.046627
0.0410899
0.0366965
0.0332208
0.0305324
0.373648
0.19145
0.126216
0.0933006
0.0744714
0.062442
0.0540917
0.0479659
0.0433351
0.0398032
0.0371041
0.392628
0.215362
0.162608
0.134387
0.116023
0.101947
0.0933091
0.0900037
0.0897587
0.090674
0.0906619
0.797659
1.33324
0.988106
0.74842
0.520295
0.34334
0.229935
0.166018
0.131539
0.113366
0.10378
0.71262
1.06327
0.952594
0.781524
0.588171
0.400703
0.255473
0.176246
0.13534
0.11571
0.106901
0.564685
0.803913
0.854612
0.764559
0.618665
0.450759
0.297642
0.194497
0.139989
0.116679
0.108364
0.393745
0.643518
0.748138
0.722993
0.62442
0.484499
0.337664
0.222055
0.151083
0.117409
0.107396
0.242038
0.532504
0.654411
0.673725
0.616378
0.505983
0.373028
0.253452
0.168726
0.122529
0.105553
0.140564
0.451994
0.580814
0.624314
0.59864
0.516821
0.402086
0.285708
0.192083
0.133053
0.105793
0.115118
0.404545
0.534159
0.582178
0.575111
0.517161
0.4223
0.314803
0.218147
0.148626
0.109814
0.109056
0.369405
0.507665
0.552078
0.55127
0.50906
0.432231
0.336989
0.242872
0.167048
0.117701
0.0917276
0.297913
0.464028
0.524355
0.528383
0.494921
0.432264
0.350175
0.262726
0.185223
0.128108
0.0737967
0.225198
0.388372
0.483332
0.501375
0.475023
0.423324
0.353769
0.27537
0.20013
0.138753
0.0617869
0.174386
0.303938
0.421414
0.463166
0.447616
0.405869
0.347874
0.279491
0.209328
0.14695
0.0532454
0.142469
0.229654
0.343475
0.412287
0.411802
0.380372
0.333165
0.27481
0.211266
0.150664
0.0460646
0.119971
0.18145
0.266605
0.349905
0.368103
0.34775
0.310865
0.262043
0.205699
0.148656
0.0393245
0.101306
0.145934
0.208241
0.280624
0.318072
0.30916
0.282287
0.242385
0.193318
0.14101
0.0333132
0.0858048
0.118727
0.164658
0.220198
0.262951
0.266601
0.249186
0.217698
0.175924
0.129486
0.0284537
0.0729402
0.0978787
0.131808
0.172448
0.210083
0.223085
0.214556
0.191367
0.1572
0.117226
0.0244298
0.0628289
0.0817613
0.1069
0.135963
0.165653
0.183044
0.183072
0.168659
0.142523
0.108538
0.0214718
0.0549288
0.0694129
0.0883053
0.109176
0.132495
0.152269
0.161157
0.156605
0.138723
0.109417
0.0194837
0.0491663
0.0604047
0.07539
0.0917192
0.112549
0.136372
0.154423
0.159678
0.149382
0.122306
0.0192346
0.0480838
0.0565745
0.0699371
0.0848668
0.106103
0.133447
0.154898
0.164564
0.161124
0.139403
0.0245455
0.0512743
0.057456
0.0691447
0.0831487
0.106751
0.130247
0.146185
0.155164
0.158819
0.15076
0.0300176
0.0532273
0.0559026
0.0678945
0.0862733
0.110284
0.13064
0.144833
0.153877
0.159536
0.159333
0.0293417
0.045417
0.055841
0.0801495
0.110103
0.135441
0.151815
0.159839
0.161493
0.160603
0.15886
0.0559136
0.0779767
0.111455
0.141661
0.163696
0.175816
0.17807
0.17328
0.165788
0.159004
0.153933
0.825167
1.13245
0.958596
0.697364
0.475228
0.319091
0.220757
0.162644
0.129354
0.110579
0.0996729
0.592786
0.92186
0.857761
0.689559
0.500915
0.34637
0.239188
0.172064
0.132494
0.109971
0.0971706
0.493561
0.809882
0.804765
0.705772
0.548134
0.392077
0.270697
0.189287
0.139668
0.111286
0.0957785
0.410666
0.67711
0.719805
0.694957
0.58997
0.447921
0.31569
0.216673
0.152572
0.115011
0.0948151
0.340697
0.558695
0.628289
0.645071
0.600719
0.504784
0.380784
0.265551
0.180067
0.126095
0.0964314
0.275168
0.451221
0.538473
0.579698
0.574192
0.522873
0.433013
0.326458
0.22873
0.154348
0.106577
0.212149
0.351657
0.447653
0.505702
0.530477
0.516613
0.459102
0.368752
0.270274
0.184786
0.122534
0.15683
0.263682
0.359194
0.426975
0.473987
0.491768
0.467016
0.399491
0.308896
0.219053
0.145359
0.113128
0.1966
0.281362
0.350778
0.41146
0.453268
0.45825
0.41653
0.340514
0.253828
0.174956
0.0836638
0.152022
0.223378
0.288668
0.35224
0.40756
0.436713
0.420073
0.36171
0.283159
0.20392
0.0672239
0.126622
0.185932
0.245088
0.305871
0.364734
0.407158
0.412288
0.372122
0.304108
0.230899
0.0598061
0.115281
0.165635
0.218684
0.274087
0.330692
0.3777
0.395752
0.37206
0.316518
0.249609
0.0574593
0.112471
0.156589
0.204334
0.253916
0.305605
0.351961
0.376465
0.363668
0.318144
0.260588
0.0574436
0.113835
0.153649
0.196778
0.240645
0.286387
0.329381
0.356412
0.351071
0.312865
0.261364
0.0583483
0.117118
0.153783
0.192558
0.230573
0.269695
0.307778
0.3351
0.335629
0.30367
0.255958
0.0595441
0.120822
0.155271
0.189722
0.221555
0.25331
0.285248
0.311366
0.31717
0.291694
0.247848
0.060815
0.12438
0.15758
0.187882
0.213381
0.237143
0.26173
0.285077
0.295372
0.277296
0.237976
0.0622777
0.128086
0.161174
0.187806
0.207183
0.222713
0.238981
0.257755
0.270795
0.26042
0.228057
0.064252
0.13243
0.166417
0.190044
0.203932
0.211591
0.219163
0.231639
0.244501
0.241078
0.215905
0.0666426
0.136854
0.172451
0.194162
0.203883
0.204816
0.20411
0.209206
0.218739
0.219471
0.201452
0.0684686
0.13957
0.177657
0.199146
0.206629
0.202695
0.194957
0.192517
0.196608
0.197686
0.186277
0.0705077
0.141022
0.18116
0.203418
0.210249
0.203681
0.1911
0.182111
0.180058
0.178792
0.17096
0.0669113
0.135053
0.179667
0.203202
0.210307
0.203753
0.189766
0.176862
0.169661
0.165291
0.159048
0.0899822
0.155562
0.187079
0.200713
0.204141
0.198382
0.18656
0.173977
0.164611
0.158211
0.152973
0.102115
0.114292
0.123842
0.129093
0.12477
0.126746
0.125715
0.121421
0.112451
0.147612
0.172687
0.192057
0.2071
0.213084
0.202348
0.187944
0.17101
0.14982
0.158701
0.174269
0.191884
0.207996
0.215274
0.205364
0.189867
0.171285
0.154394
0.148364
0.159403
0.172156
0.183517
0.188575
0.179147
0.167148
0.154074
0.143018
0.0844984
0.0579989
0.0235023
0.0167873
0.0150954
0.0142512
0.0420815
0.0777748
0.0994294
0.116961
0.0855333
0.0550272
0.0269429
0.0252806
0.0368851
0.065288
0.0939868
0.122657
0.138092
0.108219
0.0710458
0.0344173
0.0319458
0.0489544
0.0813965
0.112107
0.136038
0.135072
0.113206
0.0799565
0.0411472
0.0379187
0.0564747
0.0875558
0.113924
0.130482
0.00442722
0.00460083
0.00461604
0.00236026
0.046895
0.00438625
0.0113823
0.00454382
0.00437997
0.00425121
0.0464061
0.00455482
0.00371576
0.00329442
0.00448378
0.00430314
0.00329274
0.00236895
0.00429248
0.00424717
0.00411499
0.00478146
0.00466664
0.0172139
0.00449302
0.00330595
0.0037684
0.011054
0.0816833
0.0486721
0.00337731
0.00410963
0.00297406
0.004535
0.00427369
0.00459214
0.0160237
0.00448831
0.00289238
0.00439375
0.00667283
0.00454431
0.00690909
0.00465976
0.0606467
0.0119894
0.00335609
0.0185814
0.00429796
0.00433614
0.0486915
0.00439873
0.0140574
0.00699537
0.00432968
0.00412146
0.00460331
0.00440435
0.0830293
0.00618512
0.00520948
0.012827
0.0525984
0.00820409
0.00811452
0.00425879
0.0509737
0.00429981
0.00460146
0.00424241
0.00329504
0.00433924
0.00316263
0.0046998
0.00860237
0.00429699
0.0042532
0.00459769
0.00939804
0.0730815
0.0421472
0.0065483
0.00449519
0.00462598
0.0043799
0.00318257
0.0959196
0.0118129
0.00319525
0.0162822
0.00454311
0.00441395
0.00733866
0.00441043
0.0721433
0.0270374
0.00527042
0.00396214
0.00352269
0.00442023
0.00469851
0.0191021
0.00417371
0.00402658
0.00286183
0.00455254
0.00303855
0.0046466
0.00419394
0.00418836
0.00450629
0.00455948
0.00431825
0.00230845
0.00434282
0.00442402
0.00438296
0.00431652
0.00449474
0.00414269
0.0023294
0.00460025
0.00540623
0.00325017
0.0112161
0.0041128
0.0667645
0.00303659
0.00319758
0.0034827
0.00445092
0.00607628
0.018443
0.00430532
0.00461465
0.00456275
0.00415559
0.00440313
0.0497471
0.00446394
0.0070714
0.00411856
0.0243636
0.00402519
0.0043758
0.00328888
0.00445009
0.00429762
0.00433079
0.00423962
0.0042729
0.00441731
0.00355633
0.00459079
0.00238142
0.00385781
0.0038833
0.00372984
0.00320492
0.00436088
0.00364056
0.00431136
0.00433017
0.00443331
0.0528729
0.00550839
0.00363605
0.00431953
0.00420032
0.00797216
0.00308339
0.00309018
0.00449736
0.00405883
0.0040988
0.00396492
0.00317399
0.00359851
0.0614081
0.00393067
0.00429004
0.00481762
0.00465913
0.0131199
0.00449927
0.00397699
0.00424671
0.00430118
0.00458776
0.012642
0.00404553
0.00341541
0.00427249
0.00654795
0.00460945
0.00440138
0.00435859
0.00359609
0.00355958
0.00467918
0.00322001
0.00433265
0.00396093
0.0034741
0.00462751
0.0121633
0.00439211
0.00319073
0.00434977
0.0043391
0.018856
0.00439489
0.00401435
0.00423186
0.00448969
0.0108043
0.00450977
0.00381915
0.00426963
0.00315984
0.00279296
0.0022448
0.0053604
0.00433468
0.00320949
0.00440903
0.00940909
0.00530077
0.00384158
0.0233269
0.00388929
0.0042564
0.00426476
0.00458458
0.00351401
0.074442
0.0465505
0.00464578
0.00455962
0.00454697
0.00384943
0.00972918
0.00401762
0.00590666
0.00472634
0.00476627
0.00451688
0.00357945
0.0307501
0.0594968
0.00356528
0.019034
0.00513849
0.00429795
0.00395777
0.00436569
0.0041405
0.00447445
0.00313223
0.00423979
0.00340716
0.00454369
0.0043266
0.00457391
0.0045044
0.00311893
0.00412037
0.00459972
0.00559292
0.00372345
0.0209257
0.00431782
0.00432556
0.00323054
0.00438958
0.00432923
0.00331168
0.00444638
0.00427876
0.00317287
0.0043859
0.0046015
0.0421874
0.0434091
0.00395776
0.00439742
0.0838602
0.00458997
0.00425214
0.00664135
0.00461866
0.0115177
0.00440719
0.0029562
0.0046786
0.00435732
0.00417592
0.00456414
0.00427218
0.00334302
0.0044439
0.00248192
0.00437653
0.0491362
0.004151
0.00418903
0.00459871
0.0149303
0.0047026
0.00435401
0.00749518
0.00456588
0.00410069
0.00297247
0.0048483
0.00410703
0.00368637
0.00324464
0.00413083
0.00456742
0.00424484
0.0336822
0.00435756
0.00339112
0.00555862
0.00421663
0.00445134
0.00370775
0.00424035
0.0387074
0.0043122
0.0532822
0.00387632
0.00465031
0.00354172
0.0397491
0.00350555
0.00458647
0.00447217
0.00395205
0.0040448
0.0182611
0.00432201
0.00544025
0.0194856
0.0149812
0.00467514
0.0043791
0.0139346
0.0712038
0.00863653
0.00391269
0.0037408
0.00416763
0.00394066
0.00468917
0.00280449
0.00399874
0.00466087
0.0446987
0.00386202
0.00333267
0.00451753
0.00451146
0.00431482
0.00334461
0.00307965
0.00328345
0.010522
0.00488502
0.00444003
0.0121375
0.0353759
0.00320531
0.00388158
0.00461
0.00391754
0.00425865
0.00437775
0.0042467
0.0345353
0.00438709
0.00316393
0.00441539
0.00340335
0.0496172
0.00239438
0.0031945
0.00970611
0.00342384
0.00442728
0.00529883
0.00309458
0.00469185
0.0501439
0.00816036
0.00447736
0.00428391
0.00462349
0.00608252
0.0031118
0.00441098
0.00466194
0.00667448
0.00279707
0.0071297
0.00785325
0.00667043
0.00432944
0.0338155
0.00425251
0.0042779
0.00370955
0.0036488
0.00412009
0.00408034
0.00406799
0.00488609
0.00314947
0.00477529
0.0319664
0.00322169
0.0123758
0.0040224
0.00398619
0.00417029
0.00465674
0.00480489
0.00483488
0.00918804
0.00448496
0.00316746
0.0034291
0.00410564
0.00432388
0.00299565
0.0248874
0.0483442
0.0032613
0.00468852
0.00396286
0.0949631
0.00290392
0.0024309
0.00419317
0.00414264
0.00791636
0.00358855
0.0043445
0.00397982
0.00443853
0.00461301
0.00449816
0.00413208
0.00444689
0.0111294
0.00309632
0.00323653
0.00493193
0.00458965
0.00433971
0.0692749
0.0032065
0.00394967
0.0042326
0.00813253
0.00764589
0.00545505
0.00546768
0.0043187
0.00393609
0.00311478
0.00421492
0.0051577
0.00421394
0.00458625
0.00432731
0.00557861
0.00358375
0.00425407
0.00445112
0.00413034
0.0170952
0.00472881
0.00464785
0.00332145
0.0313041
0.00404738
0.0032015
0.00434067
0.00346349
0.00439929
0.00421074
0.0044049
0.00334355
0.00326849
0.00426262
0.0033975
0.00400193
0.00458759
0.00374836
0.00369683
0.00453738
0.00453384
0.0368733
0.00343822
0.00288791
0.00431191
0.017608
0.00461931
0.0356239
0.00435048
0.00345504
0.0049254
0.00473784
0.0470655
0.00541411
0.00338625
0.00445188
0.00360554
0.00412096
0.00459973
0.00442701
0.00457179
0.00418677
0.0332222
0.00451387
0.0043545
0.0119193
0.00443601
0.00937207
0.00420739
0.0123105
0.00331431
0.00321716
0.00467862
0.00447624
0.0046372
0.00643019
0.00363788
0.00450096
0.00448888
0.00324162
0.00461793
0.00279709
0.00460793
0.0476188
0.00423698
0.00395531
0.00293935
0.00334871
0.0129865
0.0375674
0.00416019
0.00411683
0.00431613
0.0046072
0.00297708
0.0034124
0.00423528
0.00350464
0.0310808
0.0307605
0.00449161
0.00434128
0.0045987
0.00793058
0.0493861
0.0042168
0.00454197
0.00437692
0.0434657
0.004328
0.00306062
0.00325206
0.00803815
0.0331576
0.00443081
0.00452588
0.00446375
0.00554094
0.00434364
0.00833976
0.00319649
0.00409973
0.00502226
0.00687013
0.00463981
0.0046739
0.0710353
0.00440944
0.00354345
0.00343917
0.0057579
0.00738222
0.00401572
0.00359227
0.00422372
0.00443635
0.00448834
0.0250954
0.00302688
0.00390102
0.00424963
0.00450059
0.00652855
0.00423124
0.00451827
0.00422299
0.00431047
0.00319086
0.00313422
0.00572246
0.0056758
0.00401642
0.00517766
0.00429084
0.00953378
0.00428594
0.00445238
0.0303122
0.0254707
0.00438334
0.00439144
0.00414683
0.00416164
0.00433378
0.00565163
0.00460803
0.0041861
0.00325134
0.00295774
0.00382089
0.00313458
0.00319133
0.00540188
0.0233806
0.00496089
0.00611081
0.00354104
0.00351003
0.00472255
0.00349063
0.00462124
0.00416673
0.0056304
0.00394141
0.00420842
0.00439717
0.00343755
0.00692208
0.0303021
0.00361288
0.00509648
0.00442452
0.00521184
0.00455005
0.00429411
0.00426848
0.00337905
0.0042617
0.00432326
0.00418539
0.00459311
0.00448809
0.00620051
0.0225059
0.00428803
0.00422054
0.00399122
0.00661414
0.00451224
0.0154604
0.00431366
0.00928014
0.0338924
0.00442959
0.00309702
0.00465966
0.00300075
0.00531396
0.00316695
0.0263898
0.00364835
0.00427751
0.00463637
0.00371508
0.00321602
0.00408208
0.0638832
0.00437101
0.00408491
0.00463252
0.00374644
0.00419537
0.00317514
0.0045563
0.00440326
0.00440602
0.00378793
0.00483967
0.00456231
0.00333749
0.0043745
0.00512949
0.00321551
0.00408114
0.00395637
0.00541703
0.00291693
0.00407861
0.00373298
0.00358985
0.0070748
0.00300761
0.0116777
0.00446789
0.00335382
0.00448877
0.00429827
0.00699938
0.00458506
0.00349906
0.00328946
0.0043278
0.00418647
0.00413479
0.00426332
0.0045843
0.0685821
0.00602548
0.0463641
0.00415462
0.00397685
0.00717653
0.00726281
0.00455017
0.0034445
0.00372111
0.00289154
0.00452475
0.00334053
0.0300971
0.00454944
0.00941742
0.00351849
0.00481974
0.00909002
0.00438416
0.00420692
0.00421914
0.00337527
0.00439972
0.00320622
0.00457262
0.00301077
0.00431871
0.00296602
0.00345578
0.0219956
0.00412994
0.00428918
0.0218874
0.0127663
0.00446242
0.00320801
0.0038543
0.00479641
0.00514218
0.00376729
0.00434029
0.00432712
0.00295032
0.00497859
0.00428501
0.00437063
0.00441465
0.00396407
0.0037198
0.00469039
0.00448366
0.00456484
0.0321116
0.0318987
0.00358094
0.00457684
0.00336087
0.00451728
0.00455596
0.00457824
0.00462614
0.00447911
0.0045807
0.00317333
0.00508285
0.0104277
0.00307753
0.00438332
0.00443017
0.00449582
0.00376822
0.0303904
0.00459588
0.0041066
0.00352489
0.017042
0.0185448
0.00471603
0.00392079
0.00378281
0.00443362
0.0044616
0.0108786
0.00421855
0.00456546
0.0044183
0.00868708
0.00400103
0.0039048
0.00455631
0.00409588
0.00648773
0.00374439
0.00456386
0.00308423
0.00504268
0.00482982
0.00407575
0.00464019
0.00427822
0.00237012
0.00302887
0.00449297
0.00460063
0.00418443
0.00473619
0.00434001
0.00459174
0.00633912
0.00344391
0.00898885
0.0149998
0.00631712
0.00454724
0.0511911
0.00466963
0.00430806
0.005411
0.00448487
0.00441691
0.00441681
0.00305014
0.0115802
0.0038805
0.00441405
0.00314184
0.0044253
0.00468787
0.00434338
0.00438774
0.00440651
0.00449411
0.00455966
0.00434771
0.0679549
0.00438192
0.00425512
0.00448932
0.0178614
0.00426663
0.00450609
0.00502228
0.0628394
0.00422172
0.00449919
0.00298039
0.00334294
0.00465187
0.00454035
0.00421565
0.00400777
0.00706265
0.00459967
0.011809
0.00296859
0.0233745
0.00299306
0.00457884
0.00326004
0.00564087
0.00444186
0.00456741
0.00433056
0.00460819
0.00395126
0.00991338
0.00420884
0.00553243
0.0579884
0.00493364
0.00394035
0.00559794
0.00466374
0.00455837
0.00315119
0.00277029
0.00329381
0.0043994
0.0275961
0.00431629
0.0032861
0.00431165
0.00314906
0.00312363
0.00327524
0.00352494
0.00420106
0.00452784
0.049238
0.00449955
0.0734397
0.00422502
0.00303166
0.00428659
0.00420992
0.0662699
0.00438195
0.0046043
0.00352402
0.0089848
0.00815466
0.00356915
0.00326089
0.00332414
0.0105631
0.038452
0.00451949
0.00432153
0.0740111
0.00439967
0.00540749
0.00449275
0.0136019
0.00301368
0.00621238
0.0046038
0.00342641
0.00464705
0.0044075
0.00406361
0.00261582
0.00425418
0.0044593
0.00434004
0.00455697
0.0046043
0.00458191
0.00455711
0.00418803
0.00717839
0.00366124
0.00391609
0.00460989
0.0080538
0.00298535
0.00460144
0.00466438
0.00408825
0.00661362
0.0489312
0.00397257
0.00339348
0.00410189
0.0043486
0.00307486
0.00433385
0.00422567
0.00917302
0.00455485
0.0703563
0.00873226
0.0243277
0.00455302
0.00456351
0.00401241
0.0439576
0.00336566
0.00313105
0.00467581
0.00305943
0.0199238
0.00456175
0.00402819
0.00834244
0.00394778
0.029683
0.00366881
0.00445123
0.00432725
0.0041655
0.00420479
0.00728294
0.00291935
0.0122869
0.0495666
0.00460172
0.00301782
0.00387451
0.00514361
0.0134778
0.00418055
0.00439329
0.00406485
0.0031411
0.00454414
0.00466991
0.00467845
0.00670495
0.00413693
0.00461202
0.00371508
0.00583563
0.00321638
0.0045224
0.00827757
0.00413769
0.00407704
0.0039896
0.00455565
0.00431726
0.00447145
0.0141591
0.00426722
0.00827961
0.00399951
0.00348208
0.00450478
0.00417711
0.00450321
0.00437812
0.00341042
0.0201926
0.00743198
0.0555462
0.00964201
0.0397772
0.00420826
0.00444922
0.00251755
0.00462831
0.00325329
0.0115375
0.00430227
0.0050944
0.00388462
0.0365192
0.00418362
0.00318919
0.0045497
0.0499711
0.00469592
0.035768
0.00410419
0.00479213
0.00489208
0.00976107
0.00418605
0.00541046
0.00513037
0.00448183
0.0183604
0.0055863
0.0243193
0.00346947
0.00241009
0.0126857
0.00458686
0.00461243
0.00372217
0.00470922
0.00344264
0.00331714
0.00329409
0.00390645
0.00322635
0.0544052
0.00437626
0.00429563
0.00425609
0.00457244
0.00293198
0.00340434
0.00425591
0.00332249
0.0427703
0.00432817
0.0569997
0.00743534
0.00448496
0.00550417
0.00385622
0.00324377
0.0031733
0.0240177
0.0044241
0.00452611
0.0498279
0.0043751
0.00458731
0.00355416
0.00454349
0.00452429
0.0387499
0.00461537
0.0319158
0.0039749
0.00390194
0.00428622
0.00430353
0.00708452
0.00325121
0.0125663
0.00444592
0.00293519
0.00530388
0.00306581
0.00298077
0.00527991
0.00519701
0.00424047
0.0087202
0.0134682
0.00406522
0.00431873
0.00350356
0.00381097
0.00468567
0.00353421
0.0489595
0.00425674
0.00468935
0.00450589
0.00406703
0.00278506
0.0032144
0.00335665
0.0768802
0.00474454
0.00587816
0.00555637
0.00457698
0.00396339
0.00424449
0.00421847
0.07403
0.0045871
0.0188623
0.0242286
0.00456356
0.00449452
0.0046585
0.0319679
0.0291532
0.0211902
0.00335142
0.0045681
0.00427776
0.00326926
0.0398102
0.00655885
0.00306922
0.0043431
0.0061627
0.00794267
0.00551086
0.00416348
0.0132745
0.0283105
0.00405288
0.00382668
0.00430399
0.00437579
0.0309374
0.00320331
0.0037043
0.00460013
0.00465974
0.00411402
0.0485871
0.00337887
0.00298045
0.0081832
0.00473606
0.00437643
0.0141212
0.005594
0.00462047
0.0030389
0.00368086
0.00412346
0.0533625
0.00453416
0.00442558
0.00426914
0.00567265
0.00309508
0.00435658
0.00544073
0.00461365
0.00455911
0.00468819
0.00329266
0.00442883
0.00681801
0.004231
0.00455767
0.0489252
0.00426829
0.00351087
0.00357595
0.00442286
0.00351793
0.00536206
0.00452277
0.00456424
0.0044819
0.00303846
0.00449618
0.00427869
0.00442494
0.00372415
0.00649346
0.00313598
0.00534268
0.0042996
0.00568475
0.00420901
0.00467579
0.00423712
0.00458654
0.00315761
0.00414055
0.0032625
0.0041241
0.00420871
0.00450189
0.0045292
0.0311316
0.005468
0.0147896
0.00468828
0.00286767
0.0695094
0.00319182
0.00300784
0.00439806
0.00548818
0.01033
0.00557029
0.00318504
0.00501345
0.00380488
0.00302534
0.00450151
0.0679393
0.00308406
0.00415063
0.00411304
0.00403926
0.00361129
0.0027932
0.00450523
0.00305401
0.0559859
0.0331779
0.00448562
0.00428668
0.00832724
0.0208248
0.00401608
0.00454946
0.00425404
0.00462874
0.00447023
0.00484449
0.0044025
0.00465033
0.0131175
0.00240287
0.00433192
0.00442755
0.00439171
0.00416071
0.00468339
0.00433371