/*--------------------------------*- C++ -*----------------------------------*\
| =========                 |                                                 |
| \\      /  F ield         | OpenFOAM: The Open Source CFD Toolbox           |
|  \\    /   O peration     | Version:  3.0.1                                 |
|   \\  /    A nd           | Web:      www.OpenFOAM.org                      |
|    \\/     M anipulation  |                                                 |
\*---------------------------------------------------------------------------*/
FoamFile
{
    version     2.0;
    format      ascii;
    class       volVectorField;
    location    "0.898823";
    object      U;
}
// * * * * * * * * * * * * * * * * * * * * * * * * * * * * * * * * * * * * * //

dimensions      [0 1 -1 0 0 0 0];

internalField   nonuniform List<vector> 
21246
(
(4.93 -1.9432 2.5354e-18)
(3.97488 -1.37748 -8.54552e-19)
(4.19575 -1.36609 6.26415e-19)
(4.2383 -1.26427 1.9455e-19)
(4.11968 -1.06005 -1.59836e-19)
(3.9402 -0.796119 2.76379e-20)
(3.76468 -0.573999 -2.66908e-20)
(3.60234 -0.41929 1.16145e-21)
(3.45775 -0.325168 0)
(3.32942 -0.279064 -1.19572e-21)
(3.22762 -0.273394 -1.0181e-20)
(4.00964 -0.609312 0)
(3.16379 -0.53386 -3.37688e-18)
(3.3458 -0.994744 4.31283e-18)
(3.4904 -1.17313 -1.37895e-18)
(3.54885 -1.16467 6.63628e-21)
(3.55773 -1.02627 0)
(3.53068 -0.821389 -1.74604e-19)
(3.46701 -0.61551 8.96704e-20)
(3.38797 -0.476922 -6.24228e-20)
(3.30506 -0.39856 4.54685e-20)
(3.23153 -0.371166 0)
(3.94296 0.59007 -2.78486e-18)
(3.19117 0.105237 6.94311e-19)
(3.02522 -0.444374 -1.48798e-19)
(3.01428 -0.770051 0)
(3.06069 -0.950094 8.20386e-19)
(3.13672 -0.983161 -9.14177e-19)
(3.21451 -0.887231 -1.1028e-19)
(3.26112 -0.721976 -2.56714e-19)
(3.26839 -0.572186 9.11061e-20)
(3.24459 -0.473607 -1.08242e-19)
(3.21441 -0.432522 8.84372e-20)
(4.12977 1.0686 0)
(3.40329 0.531988 -8.59287e-19)
(3.01999 0.0668692 -5.91513e-19)
(2.83731 -0.29724 0)
(2.78401 -0.579747 5.39504e-19)
(2.82791 -0.741406 1.43241e-18)
(2.93196 -0.766774 -5.23666e-20)
(3.04416 -0.689362 -4.846e-19)
(3.12533 -0.583091 3.52101e-19)
(3.16258 -0.497137 1.06232e-19)
(3.17601 -0.452893 0)
(4.19391 1.10667 4.66492e-19)
(3.5657 0.773337 7.41574e-19)
(3.12371 0.426576 5.73112e-19)
(2.84245 0.0999055 0)
(2.6961 -0.199568 -5.2567e-19)
(2.67502 -0.423312 3.36913e-19)
(2.7544 -0.538926 -4.1909e-19)
(2.88127 -0.553185 1.83149e-19)
(3.0008 -0.513807 -5.72593e-19)
(3.0818 -0.464438 0)
(3.13207 -0.436117 0)
(4.13283 1.01652 -1.26712e-18)
(3.66888 0.881301 6.26687e-19)
(3.25872 0.646692 0)
(2.93824 0.385923 0)
(2.7372 0.117289 4.70282e-19)
(2.65949 -0.116844 -3.28812e-19)
(2.69589 -0.281259 -3.59852e-19)
(2.80344 -0.364741 8.21276e-19)
(2.92681 -0.390099 0)
(3.02654 -0.387335 0)
(3.09797 -0.385828 0)
(4.07574 0.924122 -1.42451e-18)
(3.71508 0.896694 1.90878e-18)
(3.37973 0.74876 -8.27585e-19)
(3.0757 0.56942 0)
(2.85392 0.346534 -4.57576e-19)
(2.74179 0.132119 0)
(2.73786 -0.0473639 -7.49618e-19)
(2.81135 -0.171967 1.03543e-18)
(2.9153 -0.246774 -3.52614e-19)
(3.01126 -0.287348 3.5324e-19)
(3.08709 -0.316609 -4.90697e-20)
(4.01435 0.832991 -2.97261e-19)
(3.73008 0.868372 1.41681e-18)
(3.47058 0.769707 -7.24888e-19)
(3.21793 0.663302 -2.57825e-19)
(3.00504 0.488035 3.75399e-19)
(2.88122 0.305739 0)
(2.84849 0.132707 -3.52168e-19)
(2.88673 -0.00900911 2.6448e-19)
(2.96066 -0.114257 -2.89712e-19)
(3.03842 -0.187537 4.07288e-19)
(3.10449 -0.24208 -2.15848e-19)
(3.96386 0.746088 2.88148e-19)
(3.73615 0.825757 0)
(3.54119 0.747247 3.19962e-19)
(3.3438 0.686173 -2.3838e-19)
(3.16297 0.55461 -3.64967e-19)
(3.04465 0.405811 0)
(2.99575 0.249862 0)
(3.00447 0.107501 2.15817e-19)
(3.04703 -0.0114133 -4.52305e-19)
(3.09994 -0.104378 -4.92331e-21)
(3.14841 -0.177135 -2.13965e-19)
(3.9353 0.666444 -2.55781e-19)
(3.75031 0.780086 -3.79624e-19)
(3.60299 0.70108 5.96691e-19)
(3.45372 0.664574 0)
(3.31248 0.565346 -3.07527e-19)
(3.21005 0.445278 2.35157e-19)
(3.15476 0.309101 -2.99625e-19)
(3.14175 0.175031 2.26122e-19)
(3.15671 0.053956 2.41761e-20)
(3.18386 -0.0481715 1.87305e-19)
(3.21064 -0.131308 -1.03094e-19)
(3.93219 0.591144 0)
(3.77955 0.730504 8.68399e-20)
(3.66428 0.641685 -3.95168e-19)
(3.55387 0.616757 2.04927e-19)
(3.44927 0.538016 -2.81755e-19)
(3.36491 0.438633 4.15567e-19)
(3.30945 0.320784 -1.51936e-19)
(3.28199 0.19854 0)
(3.27496 0.0818969 0)
(3.27882 -0.0219872 -1.72791e-19)
(3.28409 -0.108081 9.71864e-20)
(3.94592 0.517276 1.66505e-19)
(3.82009 0.671821 -8.48265e-20)
(3.72825 0.573516 3.12697e-19)
(3.64724 0.55235 -2.30534e-19)
(3.57071 0.484643 1.39533e-19)
(3.50325 0.39907 0)
(3.45112 0.296237 -1.27479e-19)
(3.41492 0.185906 1.82632e-19)
(3.39125 0.0767391 -1.1982e-19)
(3.37509 -0.0239026 4.70727e-20)
(3.36075 -0.109738 0)
(3.97051 0.444745 -5.40197e-20)
(3.86878 0.607997 7.72103e-20)
(3.79461 0.5008 -1.20907e-19)
(3.73444 0.478406 -4.46315e-20)
(3.6782 0.415931 -6.85786e-20)
(3.62475 0.338475 1.27197e-19)
(3.57705 0.246257 -6.55344e-20)
(3.53573 0.145743 0)
(3.49942 0.044221 -5.75779e-20)
(3.46629 -0.0512321 3.70668e-20)
(3.43388 -0.134155 4.08239e-20)
(4.00929 0.372793 0)
(3.92728 0.542363 0)
(3.86437 0.426963 0)
(3.81816 0.400182 0)
(3.77555 0.339258 7.63953e-21)
(3.73234 0.265377 8.71126e-20)
(3.68845 0.179345 -6.85394e-21)
(3.64355 0.0854726 5.19663e-21)
(3.59711 -0.00987722 5.91936e-21)
(3.54916 -0.0995582 -4.41719e-21)
(3.50038 -0.177949 4.52996e-21)
(4.0595 0.29804 -4.82654e-20)
(3.99158 0.473621 -3.35328e-20)
(3.93554 0.350667 0)
(3.89853 0.319667 3.82997e-20)
(3.86482 0.258063 -8.407e-20)
(3.82866 0.184443 -1.56061e-19)
(3.78743 0.100531 -2.88073e-20)
(3.73921 0.00990321 0)
(3.68349 -0.0815413 0)
(3.62156 -0.166039 0)
(3.5563 -0.240637 -6.38763e-20)
(4.1149 0.221666 -9.70041e-20)
(4.05863 0.40361 1.41813e-19)
(4.00761 0.273602 -2.62654e-19)
(3.97684 0.238297 7.3841e-20)
(3.94916 0.174518 -1.60919e-19)
(3.9178 0.0984195 1.80661e-20)
(3.87788 0.0127021 -4.00917e-20)
(3.82547 -0.0787369 1.94952e-19)
(3.75931 -0.169067 -7.51913e-20)
(3.68241 -0.249082 1.07316e-20)
(3.6003 -0.315998 9.70268e-20)
(4.17638 0.143357 -8.9429e-20)
(4.13008 0.333238 2.85093e-19)
(4.08186 0.197153 2.12343e-19)
(4.05551 0.156875 1.46367e-19)
(4.03245 0.0896778 -3.03358e-19)
(4.00478 0.00808146 2.2337e-19)
(3.96472 -0.084116 0)
(3.90557 -0.181056 -3.41925e-19)
(3.82555 -0.272967 1.59155e-20)
(3.7304 -0.348071 4.79222e-20)
(3.62905 -0.404914 -4.17064e-20)
(4.24284 0.06194 2.87212e-19)
(4.20392 0.262148 -2.91022e-19)
(4.15715 0.120911 0)
(4.13539 0.0765493 -2.91335e-19)
(4.11806 0.00432056 3.17151e-19)
(4.0947 -0.0874625 -1.25316e-19)
(4.05266 -0.192948 9.48759e-20)
(3.98176 -0.301199 2.04358e-19)
(3.88119 -0.396786 3.67893e-20)
(3.76205 -0.465195 0)
(3.63749 -0.510001 0)
(4.31175 -0.0222734 -2.02465e-19)
(4.27798 0.19195 1.48972e-19)
(4.23353 0.0477252 -4.18606e-19)
(4.22039 0.000511144 1.55197e-19)
(4.21415 -0.0808627 3.78409e-19)
(4.19718 -0.192382 -1.40762e-19)
(4.14834 -0.321941 1.41515e-19)
(4.05517 -0.447826 -1.54128e-19)
(3.92284 -0.546264 -1.07713e-19)
(3.77281 -0.601602 0)
(3.62575 -0.622138 0)
(4.37882 -0.10724 -6.34488e-19)
(4.35255 0.123815 6.21784e-19)
(4.31576 -0.0149411 0)
(4.32347 -0.0641746 0)
(4.33692 -0.16562 -1.37405e-20)
(4.32369 -0.31615 0)
(4.25526 -0.486991 -1.47094e-19)
(4.12178 -0.635368 1.58903e-19)
(3.94186 -0.728581 5.10341e-20)
(3.75385 -0.757784 -4.58122e-20)
(3.58474 -0.743167 -2.29914e-20)
(4.47301 -0.211887 0)
(4.42005 0.0999605 3.17872e-19)
(4.39767 -0.0200612 -4.23359e-21)
(4.44848 -0.0849535 0)
(4.49415 -0.261666 -3.96138e-19)
(4.47413 -0.506665 2.0373e-19)
(4.35526 -0.728348 0)
(4.15757 -0.880189 0)
(3.91876 -0.949611 -2.95133e-20)
(3.69221 -0.931669 2.3663e-20)
(3.51063 -0.865622 2.39976e-20)
(4.42637 -0.0613463 2.72253e-19)
(4.39561 0.199385 -7.39931e-19)
(4.52805 -0.0602725 2.91587e-19)
(4.65008 -0.359687 0)
(4.63465 -0.690173 2.09131e-19)
(4.5198 -0.964401 -3.80852e-19)
(4.32261 -1.15486 1.18133e-19)
(4.06839 -1.23701 0)
(3.80557 -1.20732 -3.12921e-20)
(3.56711 -1.11115 2.81979e-21)
(3.3949 -0.980492 1.47524e-21)
(4.08056 0.445878 -3.4353e-19)
(4.43736 -0.550542 0)
(4.50916 -0.700444 0)
(4.44969 -1.04147 0)
(4.34923 -1.31631 2.99679e-19)
(4.21013 -1.50504 -2.17111e-19)
(4.0217 -1.6011 -2.70893e-20)
(3.78346 -1.58832 2.18686e-20)
(3.53534 -1.46534 -2.1291e-20)
(3.35086 -1.26974 -8.86662e-22)
(3.24221 -1.06715 0)
(4.01531 -1.2224 -1.59658e-20)
(4.12407 -0.981584 0)
(4.0246 -1.42272 -1.83891e-20)
(3.96915 -1.62603 -4.10792e-19)
(3.91818 -1.75831 9.75088e-20)
(3.85005 -1.83582 1.4254e-19)
(3.74671 -1.84705 -2.70515e-20)
(3.58818 -1.77057 3.11602e-20)
(3.36634 -1.58103 -1.58776e-20)
(3.156 -1.31577 2.36393e-20)
(3.0759 -1.08328 7.47154e-21)
(6.3186 -1.39843 4.15725e-19)
(5.75333 -1.021 -4.84578e-19)
(5.29868 -0.922497 6.5682e-19)
(4.90263 -0.795799 -1.78574e-19)
(4.5335 -0.626682 2.98313e-20)
(4.20178 -0.445712 -2.90167e-20)
(3.92161 -0.295311 4.1735e-21)
(3.69 -0.19517 9.55379e-20)
(3.49465 -0.141847 -1.87684e-20)
(3.32762 -0.127498 -1.47831e-20)
(3.19463 -0.148446 4.69827e-20)
(6.41029 0.253114 1.50675e-20)
(6.17185 0.123495 -8.26353e-19)
(5.83282 -0.0681347 2.58109e-19)
(5.42054 -0.156397 1.00004e-19)
(4.97236 -0.146673 -1.2023e-19)
(4.52938 -0.0683157 1.08786e-19)
(4.13265 0.0179197 -1.56959e-19)
(3.80739 0.0681221 -1.36222e-19)
(3.545 0.0802443 -1.84679e-19)
(3.32769 0.0639805 -1.08603e-19)
(3.15703 0.0246222 1.21422e-19)
(6.24082 0.892864 -1.1447e-19)
(6.2036 0.805841 -1.67614e-19)
(6.02074 0.591988 -2.00561e-19)
(5.71021 0.448225 2.00873e-19)
(5.29424 0.374596 8.83588e-20)
(4.81371 0.378992 1.36678e-19)
(4.32927 0.411522 0)
(3.91029 0.40487 4.37129e-19)
(3.57934 0.356732 -3.36871e-20)
(3.31185 0.29158 9.18587e-20)
(3.10085 0.22118 -1.59483e-19)
(6.11823 1.05869 0)
(6.11737 1.12636 1.60345e-19)
(6.01561 0.981364 -2.23603e-19)
(5.79757 0.880731 3.26705e-19)
(5.45942 0.808384 -1.58738e-20)
(5.01013 0.798975 0)
(4.4891 0.835934 0)
(3.98186 0.814752 0)
(3.57956 0.690151 0)
(3.26476 0.550431 2.56343e-19)
(3.0158 0.437566 -1.29677e-20)
(6.079 1.08915 0)
(6.06307 1.22833 1.18674e-19)
(5.97235 1.14243 0)
(5.79213 1.10696 -1.3671e-19)
(5.50898 1.07584 -3.16286e-19)
(5.11086 1.08257 1.53444e-19)
(4.60718 1.14824 0)
(4.05498 1.22469 0)
(3.54561 1.15143 -2.13237e-19)
(3.17026 0.917415 -3.66827e-19)
(2.90606 0.719935 -1.42375e-19)
(6.07656 1.08315 1.3164e-19)
(6.05294 1.26369 -1.08522e-19)
(5.96242 1.19432 -1.25515e-19)
(5.78475 1.19658 -9.90456e-20)
(5.51389 1.19854 7.53106e-20)
(5.128 1.22562 -8.07971e-20)
(4.62425 1.29536 1.59007e-19)
(4.04848 1.40753 5.45191e-20)
(3.46495 1.44895 -1.73254e-19)
(2.99435 1.25518 3.80759e-19)
(2.71579 0.993735 3.35232e-20)
(6.08899 1.06157 -2.41945e-19)
(6.06112 1.26757 -6.18444e-20)
(5.97352 1.19785 2.00599e-19)
(5.79658 1.21783 -6.64753e-20)
(5.53162 1.23363 6.95913e-20)
(5.1506 1.27265 7.68707e-20)
(4.63427 1.34818 3.41286e-20)
(4.00391 1.46452 -1.92524e-19)
(3.36158 1.56104 -2.02824e-20)
(2.8034 1.49308 3.30623e-20)
(2.45519 1.22439 2.58829e-20)
(6.11061 1.02875 -9.24607e-20)
(6.0783 1.24611 1.28015e-20)
(5.99463 1.1697 -6.75719e-20)
(5.81861 1.19913 4.82956e-20)
(5.56005 1.21554 -5.49947e-20)
(5.18585 1.25445 0)
(4.665 1.3273 -2.53612e-20)
(3.99609 1.44625 -5.06631e-21)
(3.26875 1.55892 -1.27076e-19)
(2.62451 1.57925 0)
(2.17252 1.40548 4.42216e-21)
(6.13589 0.99347 1.19406e-19)
(6.09785 1.20998 0)
(6.01869 1.11835 3.23867e-20)
(5.84347 1.15287 -7.68811e-21)
(5.59284 1.15982 2.24438e-20)
(5.2299 1.1876 -4.23051e-22)
(4.71545 1.24495 1.18708e-19)
(4.02476 1.35067 -5.49963e-20)
(3.22906 1.47196 8.04359e-20)
(2.47978 1.52657 4.75885e-20)
(1.92886 1.4453 -1.29446e-19)
(6.15261 0.957392 -4.63357e-21)
(6.11764 1.16242 1.39986e-21)
(6.03895 1.04893 -8.14994e-21)
(5.86496 1.08632 6.35218e-21)
(5.62353 1.07537 -6.3919e-20)
(5.27582 1.0823 3.26209e-20)
(4.78 1.11221 -7.07069e-20)
(4.09119 1.1831 1.70407e-20)
(3.24465 1.30382 0)
(2.40653 1.36719 -2.43427e-20)
(1.74428 1.33532 2.76508e-20)
(6.15815 0.900129 -2.74428e-20)
(6.13728 1.09739 3.24757e-20)
(6.04153 0.971848 -6.9862e-21)
(5.87675 1.00202 -5.59047e-21)
(5.64598 0.966845 0)
(5.31562 0.945011 0)
(4.84788 0.936904 0)
(4.18896 0.954881 5.10182e-20)
(3.31944 1.05638 0)
(2.41001 1.11611 0)
(1.65287 1.08785 8.21693e-20)
(6.15926 0.814845 4.46716e-21)
(6.13713 1.02901 4.79205e-21)
(6.03114 0.896991 4.62559e-20)
(5.87885 0.888115 -3.07394e-20)
(5.65722 0.835904 -1.52273e-19)
(5.34373 0.780521 1.18329e-19)
(4.9077 0.726609 -3.19402e-19)
(4.30207 0.677994 1.232e-19)
(3.4461 0.718153 -1.24681e-20)
(2.49 0.781556 9.33233e-20)
(1.67907 0.747585 0)
(6.14501 0.740162 -8.30672e-21)
(6.10905 0.940241 -7.46999e-21)
(6.01219 0.806971 1.12147e-19)
(5.86212 0.760688 -2.3478e-19)
(5.6489 0.684065 1.87466e-19)
(5.35064 0.592724 0)
(4.94528 0.491269 1.53623e-19)
(4.40726 0.384604 -1.48409e-19)
(3.68383 0.307183 -2.86693e-19)
(2.66137 0.359632 -2.40242e-19)
(1.80139 0.331352 0)
(6.10544 0.667848 7.40495e-21)
(6.06018 0.837102 -7.22059e-20)
(5.97072 0.699758 -5.9234e-20)
(5.82776 0.618835 9.06389e-20)
(5.62714 0.51146 -7.21608e-20)
(5.34839 0.382786 1.58609e-19)
(4.97231 0.236738 -3.28698e-19)
(4.4788 0.0794207 0)
(3.83385 -0.0755849 0)
(2.97436 -0.119067 -6.68675e-21)
(2.0478 -0.165662 3.35884e-19)
(6.03934 0.589928 -2.28667e-20)
(5.98792 0.719614 0)
(5.90416 0.575172 -7.40711e-20)
(5.77207 0.461367 2.21055e-19)
(5.58848 0.31984 5.63223e-20)
(5.3358 0.151654 -5.80676e-19)
(4.99848 -0.0391766 6.9127e-19)
(4.56068 -0.243836 -2.76982e-19)
(3.99906 -0.450189 0)
(3.27293 -0.588598 4.55652e-19)
(2.44394 -0.69503 -3.35402e-19)
(5.94368 0.50729 7.88106e-20)
(5.88537 0.590076 0)
(5.80649 0.434519 -2.96021e-20)
(5.6882 0.287544 0)
(5.52721 0.109858 0)
(5.30891 -0.0978728 2.9587e-19)
(5.02083 -0.329875 -3.32952e-19)
(4.65135 -0.574206 7.9125e-19)
(4.1868 -0.817569 0)
(3.59416 -1.00221 0)
(2.90877 -1.15212 0)
(5.81022 0.416241 -5.20205e-20)
(5.74505 0.447329 -3.35739e-20)
(5.67173 0.275894 1.31539e-20)
(5.57125 0.0939767 7.90388e-20)
(5.44052 -0.122704 1.67015e-19)
(5.26654 -0.371547 -1.76592e-19)
(5.0371 -0.645821 0)
(4.74719 -0.937449 -5.4197e-19)
(4.38759 -1.20249 0)
(3.93448 -1.41725 0)
(3.40495 -1.60776 5.17393e-19)
(5.63168 0.309873 1.84274e-19)
(5.56001 0.287742 0)
(5.49368 0.0955933 1.3386e-20)
(5.41592 -0.123402 0)
(5.32431 -0.382366 0)
(5.20546 -0.676358 1.18927e-19)
(5.04646 -0.995551 0)
(4.84915 -1.29226 0)
(4.59595 -1.55284 0)
(4.27375 -1.78449 -5.34353e-19)
(3.89405 -1.99389 3.15483e-20)
(5.40412 0.181834 -1.0393e-19)
(5.3231 0.108452 1.30532e-19)
(5.26018 -0.10861 7.68975e-20)
(5.19685 -0.366237 0)
(5.12925 -0.664366 0)
(5.0661 -0.976985 -1.65048e-19)
(4.99669 -1.27905 0)
(4.89667 -1.57258 -3.25658e-19)
(4.7539 -1.84671 1.77444e-19)
(4.55929 -2.09294 7.55567e-19)
(4.31362 -2.3169 4.04683e-19)
(5.12148 0.0387892 1.1614e-19)
(5.00302 -0.0776233 1.55544e-19)
(4.90867 -0.310493 -3.07677e-19)
(4.84756 -0.577643 -1.75384e-19)
(4.8292 -0.866798 7.24278e-20)
(4.82964 -1.16937 4.39124e-20)
(4.83141 -1.47301 4.21526e-20)
(4.81637 -1.76549 0)
(4.76814 -2.03228 -4.33129e-19)
(4.67083 -2.2613 1.44872e-19)
(4.51382 -2.45714 1.96373e-19)
(4.69522 -0.134461 -1.00721e-18)
(4.58046 -0.265859 3.5959e-19)
(4.50804 -0.487247 4.01328e-19)
(4.46446 -0.757932 -1.91011e-19)
(4.46538 -1.05534 1.8356e-19)
(4.50504 -1.3536 -8.8403e-20)
(4.55977 -1.63326 4.64924e-20)
(4.60124 -1.88377 -6.70764e-20)
(4.60464 -2.09537 0)
(4.54297 -2.25407 -8.05927e-20)
(4.39797 -2.35565 0)
(4.31317 -0.317677 1.13892e-19)
(4.18729 -0.447965 1.38935e-19)
(4.1007 -0.703842 1.38231e-19)
(4.06698 -0.994416 -2.25062e-19)
(4.09515 -1.28666 -2.96556e-20)
(4.16639 -1.54798 0)
(4.24799 -1.76663 0)
(4.30798 -1.9384 0)
(4.31698 -2.05001 -3.9372e-20)
(4.23976 -2.0717 1.79893e-20)
(4.06189 -1.96954 1.46576e-19)
(3.94574 -0.502609 -1.85456e-19)
(3.79917 -0.760513 0)
(3.73852 -1.02586 0)
(3.75584 -1.31449 -2.06152e-19)
(3.82011 -1.55827 1.82148e-19)
(3.90203 -1.74428 2.2626e-21)
(3.97047 -1.87346 0)
(4.00168 -1.94686 -9.51151e-20)
(3.96493 -1.92994 1.108e-19)
(3.81985 -1.75764 4.95987e-20)
(3.5645 -1.42334 -9.69817e-20)
(3.59341 -1.45525 -1.12321e-18)
(3.55772 -1.23376 7.41734e-19)
(3.6057 -1.51408 2.12399e-20)
(3.66756 -1.69373 4.60317e-21)
(3.72633 -1.8185 9.91996e-20)
(3.76472 -1.88966 -7.35053e-20)
(3.76435 -1.91035 1.4981e-20)
(3.71093 -1.8648 0)
(3.58453 -1.71385 3.29818e-20)
(3.3746 -1.43348 -3.01915e-20)
(3.1573 -1.12511 -7.52729e-21)
(4.491 -7.09224 -2.44877e-19)
(3.68393 -5.64955 7.6282e-19)
(3.92047 -4.34117 -2.01727e-18)
(3.98976 -3.38982 3.54243e-18)
(3.9266 -2.70104 -1.74093e-18)
(3.81156 -2.16869 -1.53485e-18)
(3.67279 -1.75524 1.21156e-18)
(3.52977 -1.42762 4.85723e-19)
(3.39365 -1.16534 -4.72129e-19)
(3.26887 -0.955365 4.32677e-19)
(3.15246 -0.792878 9.19495e-20)
(0.0496873 -4.80102 6.29228e-18)
(0.980636 -4.72602 -1.15696e-17)
(1.8049 -4.24166 3.51567e-18)
(2.44012 -3.64683 -7.07078e-19)
(2.82833 -3.0655 8.96085e-19)
(3.03626 -2.53006 -5.05744e-19)
(3.12319 -2.06558 1.08446e-18)
(3.13476 -1.67882 -1.2604e-18)
(3.10516 -1.36438 1.64676e-18)
(3.05277 -1.11305 -1.04065e-18)
(2.9841 -0.918588 -5.57495e-19)
(-1.135 -2.36903 3.27786e-18)
(-0.325005 -2.96659 6.91e-19)
(0.39761 -3.32802 -1.04514e-18)
(1.16493 -3.30095 -2.47491e-18)
(1.79573 -3.0201 2.91545e-19)
(2.23462 -2.62888 2.27981e-18)
(2.51594 -2.22166 -1.5309e-18)
(2.67267 -1.84141 7.62665e-19)
(2.7476 -1.50922 -3.24199e-18)
(2.77905 -1.23086 7.64459e-19)
(2.78164 -1.00862 0)
(-1.07331 -1.50098 0)
(-0.527626 -1.8973 6.44823e-19)
(-0.260122 -2.19553 -4.8362e-19)
(0.254475 -2.40151 -6.63956e-19)
(0.824906 -2.45457 1.41477e-18)
(1.36813 -2.34477 5.16878e-19)
(1.80161 -2.10921 -9.04338e-19)
(2.12182 -1.81974 0)
(2.34068 -1.52727 -1.46997e-18)
(2.47831 -1.26229 1.67148e-20)
(2.55423 -1.042 1.15306e-18)
(-0.767367 -0.923528 -8.30668e-20)
(-0.310255 -1.21449 3.12084e-18)
(-0.231435 -1.45179 0)
(0.111318 -1.68585 0)
(0.506165 -1.82527 0)
(0.94484 -1.8512 0)
(1.36243 -1.76816 1.76275e-18)
(1.71816 -1.60548 0)
(1.99644 -1.40176 1.39222e-18)
(2.2002 -1.19102 2.75117e-18)
(2.33261 -0.998582 5.38817e-20)
(-0.433643 -0.523352 0)
(-0.0621133 -0.697429 -9.62129e-19)
(-0.0872771 -0.872233 0)
(0.159617 -1.0824 0)
(0.427513 -1.24481 0)
(0.757627 -1.34331 2.94298e-19)
(1.10697 -1.36224 -2.66362e-18)
(1.439 -1.3064 -3.53023e-19)
(1.72847 -1.1956 5.68775e-19)
(1.96306 -1.05557 -7.55975e-19)
(2.13189 -0.911947 -3.1088e-19)
(-0.169712 -0.268301 1.13508e-19)
(0.167748 -0.341324 -2.52935e-18)
(0.121764 -0.468317 0)
(0.290866 -0.63627 0)
(0.475876 -0.785134 -7.48552e-19)
(0.719 -0.904846 2.70396e-18)
(0.99461 -0.975323 1.15239e-18)
(1.2784 -0.988796 -2.90959e-19)
(1.54733 -0.949956 -7.51182e-19)
(1.78336 -0.872739 -1.20016e-19)
(1.96714 -0.77416 -1.22904e-18)
(0.0287637 -0.0950949 3.22866e-18)
(0.35041 -0.102633 -5.40437e-18)
(0.315532 -0.18516 1.99498e-18)
(0.44361 -0.31577 0)
(0.578071 -0.44017 -6.65804e-19)
(0.760171 -0.555351 -5.07202e-19)
(0.974691 -0.643598 -1.4543e-18)
(1.20796 -0.693803 5.35598e-19)
(1.4434 -0.702823 7.34294e-19)
(1.66276 -0.676213 0)
(1.83791 -0.625342 6.58197e-19)
(0.195953 0.0491677 0)
(0.504789 0.0789703 0)
(0.479782 0.0270245 1.68529e-18)
(0.588037 -0.0776028 -1.39682e-18)
(0.693651 -0.17969 1.11793e-18)
(0.836188 -0.282183 -1.07144e-18)
(1.006 -0.371242 -1.28449e-18)
(1.19663 -0.43691 1.20792e-18)
(1.39775 -0.473245 0)
(1.595 -0.480155 6.8667e-19)
(1.76079 -0.462213 -3.37963e-19)
(0.351095 0.153673 4.84551e-20)
(0.655745 0.21574 -1.95395e-18)
(0.6296 0.190237 1.03182e-19)
(0.722533 0.105433 0)
(0.808058 0.0222814 -2.00349e-18)
(0.924038 -0.0663766 3.30148e-18)
(1.06236 -0.149384 -2.0524e-20)
(1.22036 -0.218892 -1.54082e-18)
(1.39202 -0.268563 0)
(1.56757 -0.295002 -2.27458e-19)
(1.72315 -0.295535 0)
(0.476469 0.204194 0)
(0.781777 0.312308 0)
(0.75836 0.31439 0)
(0.842839 0.248135 0)
(0.915147 0.182485 1.81433e-18)
(1.01342 0.107354 -1.58289e-21)
(1.1298 0.0329045 -1.60099e-18)
(1.26367 -0.034804 4.16279e-19)
(1.41155 -0.0900312 0)
(1.56668 -0.128694 0)
(1.70255 -0.145581 -1.13542e-18)
(0.566557 0.242924 -2.63708e-18)
(0.86792 0.398288 3.38173e-18)
(0.859564 0.41788 -5.32192e-18)
(0.944319 0.365394 4.72187e-18)
(1.01081 0.314132 -3.31282e-18)
(1.09894 0.250909 1.28881e-18)
(1.20095 0.185306 5.11129e-19)
(1.31775 0.121778 0)
(1.44751 0.0651746 0)
(1.58616 0.0194972 7.54823e-19)
(1.70986 -0.00727518 2.70222e-18)
(0.647252 0.294478 2.5103e-18)
(0.942842 0.483457 2.78092e-18)
(0.947397 0.512046 -5.58584e-18)
(1.03266 0.468695 -3.66607e-20)
(1.09622 0.428124 1.53737e-18)
(1.17885 0.374231 1.76508e-18)
(1.27188 0.316394 -9.15228e-19)
(1.37723 0.257526 0)
(1.49393 0.201673 1.35957e-20)
(1.62059 0.152667 -1.48964e-18)
(1.7366 0.122184 -1.06172e-18)
(0.718765 0.32954 0)
(1.01883 0.553359 -3.4784e-19)
(1.02991 0.595745 6.01337e-19)
(1.11375 0.561996 -2.31831e-18)
(1.1748 0.530754 1.4417e-18)
(1.25422 0.484293 -1.67903e-18)
(1.34162 0.432823 8.51629e-19)
(1.43939 0.378075 0)
(1.54661 0.323645 1.88204e-18)
(1.66398 0.272789 -6.89833e-19)
(1.7701 0.239261 9.37945e-19)
(0.768624 0.356969 1.82754e-18)
(1.07453 0.62192 -6.97956e-19)
(1.09973 0.675957 0)
(1.18702 0.649563 0)
(1.24833 0.625818 0)
(1.32689 0.585082 0)
(1.41103 0.538597 -7.61732e-19)
(1.50385 0.486981 0)
(1.60401 0.433749 8.5237e-19)
(1.71425 0.381267 -6.41068e-19)
(1.81483 0.34534 0)
(0.820968 0.395398 4.30442e-19)
(1.12656 0.694128 -3.40711e-18)
(1.16573 0.75562 2.15337e-18)
(1.25658 0.734355 2.45975e-18)
(1.31925 0.716332 -1.29158e-18)
(1.39853 0.679586 9.96975e-19)
(1.48106 0.636579 2.28193e-20)
(1.57071 0.586823 -1.11389e-18)
(1.66531 0.534258 0)
(1.76979 0.479902 1.12201e-18)
(1.86571 0.441845 -1.61927e-18)
(0.878017 0.430057 2.95979e-18)
(1.18241 0.755756 -5.22466e-18)
(1.23531 0.828539 2.54418e-18)
(1.32662 0.815568 -1.17115e-20)
(1.39133 0.802521 -2.26567e-20)
(1.47161 0.768935 1.83489e-18)
(1.55339 0.727898 -1.33362e-18)
(1.64056 0.678741 0)
(1.73024 0.626315 0)
(1.8289 0.570237 -1.12217e-18)
(1.91999 0.529961 8.02707e-19)
(0.924518 0.458748 2.92694e-18)
(1.22841 0.812658 -1.92374e-18)
(1.3015 0.898257 -9.76373e-19)
(1.39658 0.894407 7.75767e-19)
(1.46626 0.884753 0)
(1.54843 0.852865 -4.06435e-19)
(1.62994 0.811892 6.63459e-19)
(1.71441 0.762025 4.47147e-19)
(1.79931 0.709124 -1.34923e-18)
(1.89161 0.65199 2.92756e-18)
(1.97859 0.609302 -7.21558e-19)
(0.972087 0.490474 -2.87857e-18)
(1.27084 0.869992 5.02657e-18)
(1.36833 0.967301 -9.79138e-19)
(1.47006 0.97167 -3.37616e-19)
(1.54686 0.962808 0)
(1.63098 0.930251 -1.14879e-18)
(1.71141 0.887255 1.191e-18)
(1.79174 0.835838 -8.9538e-19)
(1.87102 0.782481 6.17311e-19)
(1.95629 0.725647 -5.56809e-20)
(2.04064 0.680297 -1.94021e-20)
(1.02941 0.525557 5.16834e-18)
(1.31787 0.925732 -2.51507e-18)
(1.44294 1.03285 -4.77557e-19)
(1.55325 1.04378 3.55356e-19)
(1.63713 1.03274 0)
(1.72099 0.996979 0)
(1.79736 0.950804 0)
(1.87083 0.898567 -1.5818e-18)
(1.94301 0.846324 5.48072e-19)
(2.02031 0.79251 -4.63071e-19)
(2.10133 0.746033 -1.2025e-18)
(1.09824 0.560824 -1.81071e-18)
(1.37378 0.975186 0)
(1.52929 1.08773 9.93854e-20)
(1.64983 1.10159 -1.31382e-18)
(1.73819 1.0853 1.04572e-18)
(1.81668 1.04522 5.94592e-19)
(1.8841 0.997616 -5.04683e-19)
(1.94775 0.948171 -3.41762e-19)
(2.01183 0.900552 -1.1729e-19)
(2.08133 0.852731 -1.50841e-20)
(2.157 0.808108 0)
(1.21289 0.591413 -1.14833e-19)
(1.44438 1.01227 -2.26407e-18)
(1.63578 1.11625 1.53073e-18)
(1.76291 1.12757 8.03161e-20)
(1.84701 1.10515 -1.16272e-19)
(1.91108 1.06458 7.23283e-19)
(1.96456 1.02283 -4.7191e-19)
(2.01707 0.983324 0)
(2.07356 0.945494 1.92992e-19)
(2.13706 0.906638 4.27587e-20)
(2.20921 0.864422 0)
(1.16619 0.606055 1.13766e-19)
(1.52757 0.982316 2.02817e-18)
(1.70753 1.09786 -5.89205e-21)
(1.83752 1.10065 -1.09496e-18)
(1.91647 1.07653 8.37119e-19)
(1.96955 1.04795 -6.10504e-19)
(2.01529 1.02551 0)
(2.06478 1.0043 -1.64926e-19)
(2.11993 0.981522 5.65319e-20)
(2.18175 0.95615 3.18291e-20)
(2.25271 0.919799 2.23288e-19)
(2.68422 0.292443 6.64166e-18)
(1.95621 0.972811 -6.23603e-19)
(2.1738 0.853511 -1.83004e-18)
(2.13982 0.900931 1.57142e-18)
(2.08959 0.942696 -2.419e-19)
(2.06381 0.974111 -7.09488e-19)
(2.06999 0.997831 4.99506e-19)
(2.10334 1.00774 -1.14396e-19)
(2.15202 1.00579 -3.11008e-20)
(2.2105 0.998052 -1.76028e-19)
(2.27866 0.979736 -2.37409e-19)
(7.58454 -5.55259 1.42342e-18)
(6.19412 -2.6358 1.85987e-18)
(6.1336 -3.15528 0)
(5.58643 -2.72324 0)
(5.00034 -2.23315 -1.2418e-19)
(4.53667 -1.80031 2.12876e-19)
(4.18198 -1.45554 -2.23182e-19)
(3.89894 -1.17776 0)
(3.66597 -0.955812 -1.89529e-19)
(3.47071 -0.777911 4.67975e-19)
(3.30518 -0.641449 -1.43271e-19)
(6.30645 -3.09645 1.14191e-17)
(5.31274 -0.0949877 -2.20678e-17)
(6.33611 -1.01496 7.88171e-18)
(6.36675 -1.27233 -5.55116e-18)
(5.85576 -1.24349 0)
(5.22527 -1.15073 -5.14919e-19)
(4.70267 -1.01026 9.64988e-19)
(4.27566 -0.844622 -2.13311e-19)
(3.93588 -0.691383 0)
(3.66404 -0.563256 0)
(3.44672 -0.470008 1.32031e-20)
(3.69524 -1.66712 -1.89386e-17)
(3.89469 0.883112 0)
(5.55077 0.503855 -3.71714e-19)
(6.10019 0.272521 6.67583e-18)
(6.04646 0.0586341 -5.48093e-18)
(5.59492 -0.19295 -1.92963e-19)
(5.05939 -0.326517 7.84812e-19)
(4.5713 -0.353652 -8.16013e-19)
(4.15711 -0.325692 -1.92924e-19)
(3.82111 -0.280087 5.68552e-20)
(3.55285 -0.24299 1.19722e-20)
(1.49566 -1.48457 3.45532e-17)
(2.66982 0.701829 -1.14393e-17)
(4.39834 1.17189 1.86616e-18)
(5.26497 1.32419 -1.22856e-18)
(5.63865 1.17247 1.51566e-18)
(5.50852 0.802193 0)
(5.11778 0.466201 0)
(4.68501 0.251593 1.6449e-19)
(4.26957 0.129711 7.2517e-19)
(3.91028 0.0698146 -7.95614e-19)
(3.61565 0.0374843 3.52622e-20)
(0.0922259 -1.92474 -1.6836e-17)
(1.74488 0.102848 2.84508e-17)
(3.30315 1.22183 -1.40198e-17)
(4.31437 1.80225 -7.61832e-18)
(4.94889 1.88317 5.22263e-18)
(5.08097 1.585 0)
(4.8922 1.18571 -1.09446e-18)
(4.58721 0.85995 -1.94036e-18)
(4.23759 0.616133 1.44429e-18)
(3.90129 0.452338 1.31758e-18)
(3.60378 0.350548 -1.00102e-18)
(-0.663389 -2.5024 4.11642e-18)
(1.10386 -0.480639 0)
(2.43053 1.00884 -4.36508e-18)
(3.47485 1.90864 0)
(4.2182 2.23632 0)
(4.50554 2.08697 0)
(4.48916 1.73095 1.04684e-18)
(4.32161 1.37602 0)
(4.06964 1.0663 0)
(3.79221 0.822663 0)
(3.52771 0.64713 1.59625e-18)
(-1.07354 -2.99647 -2.12532e-19)
(0.608211 -0.969673 5.24401e-18)
(1.75422 0.71843 -2.41882e-18)
(2.79098 1.8387 0)
(3.55682 2.36621 0)
(3.91783 2.36393 3.2136e-18)
(4.01602 2.09532 -2.45199e-18)
(3.9604 1.76158 -5.10392e-18)
(3.80386 1.43738 1.80941e-18)
(3.59773 1.15304 3.33365e-18)
(3.3856 0.915562 -1.99876e-18)
(-1.33158 -3.38365 6.18207e-18)
(0.208596 -1.36481 -4.35125e-18)
(1.22107 0.425617 0)
(2.23568 1.70034 0)
(2.98682 2.37795 0)
(3.37543 2.49543 0)
(3.5393 2.3122 2.05146e-18)
(3.56337 2.02796 2.61814e-18)
(3.48581 1.715 0)
(3.34743 1.42151 -3.64053e-18)
(3.18763 1.15296 0)
(-1.49738 -3.6652 -1.82937e-18)
(-0.12426 -1.68638 1.05747e-17)
(0.78348 0.145917 -5.84949e-18)
(1.76799 1.53064 0)
(2.49122 2.32206 0)
(2.88722 2.53456 -2.80956e-18)
(3.08751 2.4256 1.63405e-18)
(3.16313 2.19142 -5.22633e-18)
(3.147 1.90791 0)
(3.06676 1.62606 3.67948e-18)
(2.97047 1.33361 -1.05027e-18)
(-1.60334 -3.86164 6.55946e-18)
(-0.408211 -1.94998 0)
(0.410935 -0.119783 1.42738e-19)
(1.35973 1.34106 7.6106e-18)
(2.05116 2.22019 -3.89017e-18)
(2.44696 2.51004 2.74091e-18)
(2.66785 2.46474 -3.35575e-18)
(2.77734 2.27703 4.97021e-18)
(2.807 2.0255 0)
(2.77388 1.76318 -1.81039e-18)
(2.73117 1.47558 1.03366e-18)
(-1.69007 -4.00121 1.11391e-19)
(-0.665003 -2.18965 0)
(0.0832021 -0.388582 3.19605e-18)
(0.988715 1.12619 -2.46385e-18)
(1.64848 2.07737 0)
(2.04329 2.43524 2.28525e-18)
(2.27799 2.44668 2.90192e-18)
(2.41144 2.30172 -2.35884e-18)
(2.47633 2.08168 6.54062e-20)
(2.48274 1.84005 9.57385e-19)
(2.47852 1.57197 0)
(-1.80319 -4.11059 -3.87765e-18)
(-0.902305 -2.40772 -9.3864e-19)
(-0.204669 -0.651863 -1.51372e-18)
(0.647945 0.893906 0)
(1.27638 1.90152 0)
(1.67021 2.31945 1.04339e-18)
(1.91501 2.3822 -1.55829e-18)
(2.06662 2.27649 0)
(2.15912 2.08675 -1.31405e-18)
(2.19906 1.86579 0)
(2.22866 1.61598 8.73686e-19)
(-1.90388 -4.19703 -5.71494e-19)
(-1.1037 -2.59321 4.48749e-18)
(-0.457459 -0.905932 -4.58135e-20)
(0.327365 0.645924 -1.98815e-18)
(0.926949 1.69453 0)
(1.32087 2.16681 -1.98001e-18)
(1.57415 2.27747 0)
(1.74119 2.20832 0)
(1.8568 2.04762 1.04467e-18)
(1.92557 1.8488 -1.31287e-19)
(1.99463 1.61517 -8.67252e-19)
(-1.97142 -4.28184 1.08864e-18)
(-1.28619 -2.77068 0)
(-0.694439 -1.17264 0)
(0.0196374 0.368541 0)
(0.592502 1.45253 2.46109e-18)
(0.987332 1.97673 -9.42697e-19)
(1.24907 2.13449 5.72325e-19)
(1.43164 2.1007 0)
(1.56942 1.96803 4.69757e-19)
(1.66608 1.79214 -6.57954e-19)
(1.76451 1.58242 0)
(-2.02565 -4.3673 -5.23419e-19)
(-1.45863 -2.938 -2.99476e-18)
(-0.920467 -1.4393 2.25627e-18)
(-0.27009 0.0691929 0)
(0.273826 1.17768 1.37907e-19)
(0.663274 1.74985 -1.52514e-18)
(0.934369 1.95306 -4.17664e-19)
(1.13417 1.95401 7.69545e-19)
(1.2953 1.84897 -7.44409e-20)
(1.42163 1.6963 -4.18028e-19)
(1.54416 1.51577 0)
(-2.06012 -4.44329 0)
(-1.61607 -3.09478 -2.76806e-18)
(-1.13574 -1.70444 2.08598e-18)
(-0.549293 -0.250232 0)
(-0.0388611 0.865023 -1.40728e-19)
(0.342475 1.48079 6.79536e-19)
(0.623231 1.72816 -7.81637e-20)
(0.843348 1.76403 2.13386e-19)
(1.03153 1.68766 -4.15232e-19)
(1.19214 1.55993 1.19138e-19)
(1.35031 1.40694 -1.57049e-19)
(-2.0956 -4.512 3.05049e-18)
(-1.76655 -3.25313 0)
(-1.34397 -1.97529 1.8721e-18)
(-0.825096 -0.595258 -8.36116e-20)
(-0.354291 0.510267 -1.45608e-18)
(0.015404 1.16061 0)
(0.306462 1.44983 0)
(0.552365 1.52135 -2.24023e-19)
(0.773806 1.47704 4.98069e-20)
(0.972144 1.37942 -9.5997e-20)
(1.17408 1.25364 1.81482e-19)
(-2.13804 -4.58126 4.30872e-19)
(-1.91636 -3.41254 -1.83124e-18)
(-1.55062 -2.2528 1.80665e-18)
(-1.10472 -0.967426 0)
(-0.682706 0.107077 4.68324e-19)
(-0.328514 0.776037 0)
(-0.0246797 1.10081 -2.99741e-19)
(0.253948 1.2098 -3.26144e-19)
(0.517309 1.20529 2.52356e-19)
(0.756657 1.14881 -2.15696e-20)
(1.01112 1.06411 -1.80889e-21)
(-2.18652 -4.6529 -2.27193e-18)
(-2.06958 -3.57669 5.59693e-19)
(-1.76552 -2.53754 0)
(-1.4001 -1.36912 -5.37065e-19)
(-1.03672 -0.356591 0)
(-0.701249 0.304488 -1.06256e-19)
(-0.378896 0.652535 4.21777e-19)
(-0.0569177 0.802809 3.16981e-19)