/*--------------------------------*- C++ -*----------------------------------*\
| =========                 |                                                 |
| \\      /  F ield         | OpenFOAM: The Open Source CFD Toolbox           |
|  \\    /   O peration     | Version:  3.0.1                                 |
|   \\  /    A nd           | Web:      www.OpenFOAM.org                      |
|    \\/     M anipulation  |                                                 |
\*---------------------------------------------------------------------------*/
FoamFile
{
    version     2.0;
    format      ascii;
    class       volScalarField;
    location    "0.613455";
    object      p;
}
// * * * * * * * * * * * * * * * * * * * * * * * * * * * * * * * * * * * * * //

dimensions      [0 2 -2 0 0 0 0];

internalField   nonuniform List<scalar> 
21246
(
25.6585
17.9701
13.6333
10.8917
8.96986
7.53724
6.40386
5.48715
4.74534
4.17087
3.7907
23.9148
22.5951
19.3658
16.1226
13.1732
10.7545
8.87099
7.41637
6.28522
5.42885
4.83672
19.1492
20.1273
19.3204
17.6345
15.48
13.1931
11.0585
9.23271
7.74402
6.57575
5.75027
14.0005
16.239
16.6122
16.5461
15.5382
13.9808
12.1752
10.3988
8.80847
7.47734
6.46667
10.2335
12.5951
13.0477
13.8694
13.8616
13.2362
12.1096
10.7374
9.33068
8.04028
7.0065
7.68258
9.83853
10.1689
11.2302
11.6807
11.6831
11.2062
10.3613
9.31025
8.21762
7.26051
6.23162
7.69938
8.20794
9.15073
9.73573
10.053
9.98402
9.55902
8.86615
8.03743
7.2453
5.53768
6.45414
6.87315
7.64552
8.20251
8.62398
8.77391
8.63642
8.23817
7.6632
7.06901
5.03963
5.73165
6.0191
6.62139
7.08464
7.49554
7.72775
7.75016
7.55197
7.17559
6.74718
4.53044
5.17801
5.41774
5.91645
6.29314
6.6546
6.8947
6.98781
6.90782
6.66937
6.36745
4.31912
4.85711
5.02896
5.44148
5.73969
6.04251
6.25735
6.36944
6.34902
6.19442
5.98581
4.47253
4.8021
4.8588
5.16381
5.3725
5.60776
5.77984
5.88212
5.88521
5.7798
5.62795
4.52236
4.75815
4.76829
4.99709
5.12976
5.30121
5.42457
5.50194
5.50596
5.42413
5.30949
4.41391
4.65713
4.67696
4.86845
4.95101
5.07386
5.15299
5.20086
5.19315
5.11502
5.01626
4.54043
4.67664
4.63981
4.77606
4.8121
4.89413
4.93473
4.95345
4.92862
4.84461
4.7449
4.59162
4.665
4.60106
4.69651
4.69551
4.74268
4.75006
4.74144
4.69705
4.60211
4.49697
4.47729
4.56681
4.52341
4.60299
4.58304
4.60453
4.58654
4.55368
4.48825
4.37762
4.25012
4.47545
4.52381
4.46147
4.51132
4.47479
4.47519
4.4382
4.38374
4.29598
4.16738
4.01951
4.47064
4.47631
4.39408
4.41631
4.36981
4.35542
4.30458
4.22918
4.11626
3.96585
3.79849
4.39738
4.37301
4.2896
4.30468
4.26746
4.2507
4.1893
4.08916
3.94453
3.76421
3.563
4.27413
4.2278
4.16118
4.19677
4.1913
4.1766
4.09929
3.96236
3.77501
3.5586
3.32792
4.13445
4.07551
4.06379
4.15744
4.18735
4.15894
4.03894
3.842
3.59982
3.345
3.09166
3.81694
3.9963
4.07777
4.24464
4.26371
4.17515
3.9754
3.70064
3.40407
3.11663
2.82932
5.09777
4.53276
4.76943
4.75545
4.56565
4.2686
3.89211
3.5055
3.16396
2.86559
2.56009
-6.91893
2.53163
4.77343
5.3767
5.14471
4.66881
4.15874
3.69589
3.29263
2.96065
2.7598
-36.7683
-18.118
-10.3647
-4.56893
-1.15926
0.493033
1.20184
1.48043
1.56588
1.57163
1.61211
-43.4409
-31.555
-24.8436
-16.4476
-9.90659
-5.54976
-2.94638
-1.44563
-0.576237
-0.0469491
0.343698
-40.5548
-35.7623
-32.0793
-24.5643
-17.695
-11.8954
-7.69089
-4.87496
-3.05696
-1.878
-1.03332
-35.8017
-34.3734
-32.8299
-27.6476
-22.2466
-16.6146
-11.8477
-8.18838
-5.56755
-3.74844
-2.44987
-31.7335
-31.3421
-30.6212
-27.3479
-23.6277
-19.0022
-14.5873
-10.7552
-7.71515
-5.44012
-3.78011
-28.5492
-28.4343
-27.8941
-25.6722
-23.1069
-19.536
-15.8432
-12.3044
-9.23622
-6.74954
-4.87072
-25.8788
-25.8706
-25.3561
-23.6823
-21.7823
-18.9965
-16.0015
-12.9231
-10.0705
-7.58414
-5.56439
-23.6116
-23.6117
-23.0853
-21.7229
-20.1976
-17.9363
-15.4833
-12.8508
-10.3056
-7.9784
-5.98396
-21.6556
-21.6018
-21.0396
-19.8581
-18.5503
-16.6376
-14.5791
-12.3178
-10.0796
-7.96127
-6.10562
-19.9458
-19.7931
-19.1837
-18.0992
-16.914
-15.2355
-13.4582
-11.4905
-9.52593
-7.62315
-5.90721
-18.2334
-18.0255
-17.4265
-16.4024
-15.303
-13.7909
-12.2179
-10.4812
-8.75043
-7.05934
-5.51195
-16.5941
-16.3146
-15.7074
-14.7614
-13.7132
-12.3242
-10.9053
-9.3556
-7.82476
-6.33474
-4.96799
-15.0512
-14.688
-14.0652
-13.1554
-12.1342
-10.8441
-9.54433
-8.14927
-6.79106
-5.48825
-4.28319
-13.492
-13.0625
-12.4425
-11.56
-10.5604
-9.35111
-8.14602
-6.88219
-5.67614
-4.54856
-3.49986
-11.9648
-11.4631
-10.8409
-9.9742
-8.99395
-7.84353
-6.71455
-5.56606
-4.50222
-3.54881
-2.69328
-10.4802
-9.89948
-9.26661
-8.40269
-7.42443
-6.32546
-5.25208
-4.2093
-3.28755
-2.50781
-1.82793
-9.00341
-8.34574
-7.70124
-6.83703
-5.85185
-4.77933
-3.75357
-2.81951
-2.05085
-1.45148
-0.946346
-7.5276
-6.79563
-6.13631
-5.26538
-4.25852
-3.19277
-2.21804
-1.41183
-0.821573
-0.421227
-0.1105
-6.05428
-5.25079
-4.57108
-3.67332
-2.61967
-1.55186
-0.655044
-0.0185335
0.358616
0.548161
0.666027
-4.60246
-3.75107
-2.99477
-2.02183
-0.901205
0.136832
0.885417
1.27861
1.41062
1.39245
1.34604
-3.20601
-2.13449
-1.28765
-0.191159
0.960916
1.86797
2.36784
2.44953
2.36826
2.18396
2.00241
-1.18385
-0.592012
0.618081
1.77285
2.65241
3.14137
3.19771
2.94018
2.66835
2.42945
2.3414
-2.50024
2.37815
3.27925
3.86625
4.16252
4.07572
3.73344
3.32658
2.98807
2.70852
2.44766
-1.92796
1.70842
2.62191
2.68292
2.37402
1.97751
1.59449
1.24888
0.941767
0.681105
0.512986
-20.2835
-9.93409
-5.96234
-3.04012
-1.28653
-0.438511
-0.0811827
0.0305867
0.0265121
-0.0229215
-0.0546375
-22.948
-16.3374
-13.2539
-9.18353
-5.92658
-3.71341
-2.34121
-1.54657
-1.10096
-0.84334
-0.667155
-19.6152
-17.2631
-15.9252
-12.6082
-9.48492
-6.78838
-4.72264
-3.2997
-2.37046
-1.76634
-1.35322
-15.9477
-15.4176
-15.1073
-13.1496
-10.9927
-8.64988
-6.52355
-4.82227
-3.56453
-2.66973
-2.01765
-13.2313
-13.1938
-13.1732
-12.1412
-10.8666
-9.17238
-7.41058
-5.80091
-4.46124
-3.41885
-2.61108
-11.124
-11.2544
-11.2705
-10.7061
-9.9636
-8.81799
-7.50854
-6.18061
-4.95671
-3.91515
-3.04873
-9.36962
-9.57417
-9.58926
-9.27713
-8.8339
-8.06487
-7.12611
-6.09655
-5.07415
-4.13899
-3.31234
-8.01806
-8.13453
-8.14185
-7.97708
-7.708
-7.18892
-6.52032
-5.73883
-4.9156
-4.11858
-3.37615
-6.9856
-7.00392
-6.98551
-6.87931
-6.69607
-6.33281
-5.84891
-5.25556
-4.6007
-3.93737
-3.28475
-6.13865
-6.08815
-6.05095
-5.96834
-5.82719
-5.5579
-5.19449
-4.7363
-4.21423
-3.67032
-3.12675
-5.45863
-5.3262
-5.27617
-5.20364
-5.08623
-4.87559
-4.58996
-4.22552
-3.80242
-3.35156
-2.88947
-4.96413
-4.7533
-4.68409
-4.59822
-4.47956
-4.29482
-4.0514
-3.74561
-3.3912
-3.01043
-2.61018
-4.61111
-4.34695
-4.25559
-4.14243
-4.00358
-3.81655
-3.58476
-3.30753
-2.99592
-2.66819
-2.33541
-4.32972
-4.02975
-3.91227
-3.76759
-3.6044
-3.40616
-3.1721
-2.90547
-2.61832
-2.32692
-2.03786
-4.08336
-3.76562
-3.62079
-3.44454
-3.25565
-3.04136
-2.79696
-2.52889
-2.2528
-1.98624
-1.73587
-3.84938
-3.52395
-3.35905
-3.15989
-2.94777
-2.71445
-2.45162
-2.17092
-1.89493
-1.64509
-1.42637
-3.6156
-3.29272
-3.11425
-2.90066
-2.66962
-2.41376
-2.12532
-1.82305
-1.54037
-1.30418
-1.11663
-3.39105
-3.07978
-2.89584
-2.67588
-2.42597
-2.13802
-1.81143
-1.47923
-1.18813
-0.9668
-0.811978
-3.1866
-2.89346
-2.71062
-2.48718
-2.21161
-1.87617
-1.49961
-1.13744
-0.845078
-0.642241
-0.508378
-2.99728
-2.73081
-2.55395
-2.31673
-1.9972
-1.60086
-1.17969
-0.808812
-0.53469
-0.35768
-0.225271
-2.76916
-2.5832
-2.39882
-2.11649
-1.72875
-1.28021
-0.854825
-0.525651
-0.306457
-0.159663
-0.0318515
-2.70228
-2.514
-2.2389
-1.8449
-1.38883
-0.945828
-0.588882
-0.354953
-0.206305
-0.0728178
0.179543
-2.37316
-1.8374
-1.3967
-1.00947
-0.686994
-0.45117
-0.331739
-0.303883
-0.306229
-0.315901
-0.284678
18.0924
12.7088
9.03784
6.60333
4.93217
3.80523
2.95168
2.28216
1.7407
1.31335
1.02325
14.6625
14.3644
12.3247
9.90457
7.65793
5.84754
4.44889
3.36629
2.52881
1.89233
1.48351
9.61003
11.1545
11.0888
10.2723
8.75194
6.992
5.42022
4.13844
3.12617
2.34821
1.82113
5.05053
7.50874
8.25182
8.53081
8.05786
7.04086
5.76969
4.57616
3.51611
2.66307
2.08317
1.77911
4.15187
5.09482
6.06486
6.4174
6.22347
5.43431
4.52778
3.59616
2.78981
2.2294
-0.407198
1.59096
2.37905
3.57104
4.30371
4.6275
4.48537
3.9962
3.33546
2.68001
2.19884
-1.83215
-0.177296
0.369879
1.56119
2.37617
2.96944
3.1865
3.10054
2.76118
2.32131
1.96945
-2.71326
-1.34281
-1.05378
0.0987824
0.810238
1.51031
1.93911
2.09936
2.0228
1.80291
1.58525
-3.39148
-2.13634
-2.10534
-0.971736
-0.381758
0.31611
0.831006
1.1514
1.2676
1.23554
1.17415
-3.96852
-2.90296
-2.70632
-1.86841
-1.29437
-0.628601
-0.0925551
0.31438
0.559609
0.669048
0.726077
-4.3976
-3.59623
-3.2497
-2.53408
-1.99371
-1.36641
-0.83336
-0.384435
-0.0598152
0.145617
0.301597
-4.67829
-4.00609
-3.67704
-3.0301
-2.52255
-1.93128
-1.41014
-0.942864
-0.570549
-0.299654
-0.0840636
-4.91455
-4.28341
-3.98024
-3.38409
-2.90634
-2.34586
-1.83977
-1.36762
-0.969247
-0.656816
-0.398989
-5.13098
-4.48927
-4.18979
-3.62244
-3.16538
-2.62867
-2.13715
-1.66776
-1.25873
-0.925343
-0.647602
-5.16084
-4.56771
-4.29704
-3.75762
-3.31689
-2.79904
-2.31935
-1.85633
-1.44622
-1.10387
-0.825448
-5.13525
-4.574
-4.32044
-3.80477
-3.37373
-2.87162
-2.40024
-1.94498
-1.53947
-1.19634
-0.920502
-5.08929
-4.53441
-4.27801
-3.77709
-3.34572
-2.85449
-2.3883
-1.94225
-1.54685
-1.21247
-0.94661
-4.96503
-4.42267
-4.16158
-3.67356
-3.23475
-2.75004
-2.28817
-1.85512
-1.47758
-1.16392
-0.918585
-4.76757
-4.23743
-3.9663
-3.48848
-3.03708
-2.5566
-2.10265
-1.69064
-1.34172
-1.0607
-0.842676
-4.50857
-3.98237
-3.68881
-3.21431
-2.74652
-2.27187
-1.83624
-1.45887
-1.15192
-0.91443
-0.738579
-4.17646
-3.6424
-3.31185
-2.8348
-2.35508
-1.89826
-1.50117
-1.17691
-0.925015
-0.738437
-0.607552
-3.73251
-3.17927
-2.79682
-2.32298
-1.85685
-1.44771
-1.1189
-0.866347
-0.676483
-0.54084
-0.452595
-3.22658
-2.57658
-2.14939
-1.72502
-1.32598
-1.00243
-0.762348
-0.580988
-0.440743
-0.343352
-0.276075
-2.04221
-1.49417
-1.17068
-0.91226
-0.688051
-0.524721
-0.407287
-0.29931
-0.190182
-0.0971578
-0.0907979
-1.29511
-0.324005
0.102641
0.32303
0.437923
0.484351
0.488929
0.471755
0.441783
0.408792
0.393003
-2.10239
-1.26957
-0.820409
-0.430936
-0.133979
0.0583815
0.167695
0.222723
0.244276
0.247755
0.251794
-2.25063
-1.79439
-1.4775
-1.09062
-0.725438
-0.430568
-0.217674
-0.0757438
0.0130415
0.066768
0.106507
-2.25809
-1.99219
-1.79399
-1.49355
-1.1649
-0.852784
-0.58763
-0.381332
-0.231044
-0.125382
-0.0468635
-2.24503
-2.04638
-1.91509
-1.69394
-1.4321
-1.1534
-0.886221
-0.652161
-0.461624
-0.31392
-0.198353
-2.24846
-2.06294
-1.96594
-1.78851
-1.57901
-1.34316
-1.09849
-0.864537
-0.656618
-0.481919
-0.336786
-2.25721
-2.06807
-1.9968
-1.83636
-1.65875
-1.45623
-1.23738
-1.01598
-0.806199
-0.618157
-0.453188
-2.24173
-2.07078
-2.01552
-1.85715
-1.69975
-1.51965
-1.32155
-1.11481
-0.910504
-0.718565
-0.541673
-2.22822
-2.07751
-2.00175
-1.855
-1.71384
-1.54837
-1.36523
-1.17115
-0.9744
-0.783656
-0.602201
-2.21527
-2.06436
-1.97856
-1.84946
-1.71054
-1.55228
-1.37882
-1.19406
-1.00416
-0.816514
-0.634276
-2.19027
-2.03792
-1.95197
-1.82696
-1.6898
-1.53631
-1.36871
-1.19006
-1.00533
-0.820906
-0.638798
-2.14859
-1.99663
-1.9123
-1.78885
-1.65287
-1.50195
-1.33764
-1.16282
-0.981861
-0.800739
-0.619414
-2.10201
-1.94641
-1.86083
-1.7371
-1.60076
-1.45045
-1.28751
-1.11489
-0.936776
-0.758776
-0.580921
-2.05003
-1.88795
-1.79882
-1.67309
-1.53467
-1.38319
-1.2201
-1.04853
-0.872662
-0.697696
-0.522592
-1.97916
-1.8137
-1.72282
-1.59473
-1.45345
-1.29973
-1.13556
-0.964681
-0.791536
-0.621047
-0.449367
-1.89656
-1.72613
-1.63218
-1.50069
-1.35565
-1.19894
-1.03342
-0.863768
-0.694803
-0.53133
-0.36651
-1.80377
-1.62579
-1.52654
-1.39039
-1.24038
-1.08002
-0.913531
-0.746824
-0.584861
-0.431483
-0.277563
-1.69179
-1.50701
-1.40255
-1.26097
-1.10506
-0.940985
-0.775287
-0.615271
-0.465193
-0.32661
-0.186241
-1.56096
-1.3685
-1.25729
-1.10863
-0.945711
-0.77911
-0.618712
-0.47236
-0.341251
-0.222493
-0.0989055
-1.41005
-1.20769
-1.08621
-0.927471
-0.756826
-0.592173
-0.446814
-0.325574
-0.222343
-0.127705
-0.0249672
-1.23393
-1.01725
-0.878989
-0.706352
-0.531286
-0.381719
-0.269881
-0.189468
-0.122254
-0.0524698
0.0334032
-1.02106
-0.778467
-0.613232
-0.42648
-0.266181
-0.16264
-0.112366
-0.0876149
-0.0576705
-0.00564753
0.0748061
-0.738497
-0.475602
-0.255651
-0.0892375
-0.000265028
0.0110724
-0.0226855
-0.0524698
-0.0463746
0.00319244
0.0864176
-0.740263
0.197973
0.201592
0.203005
0.177471
0.0867366
-0.0241444
-0.0858067
-0.0823754
-0.0159784
0.0841748
0.391691
0.539417
0.689214
0.789506
0.805486
0.769484
0.709351
0.656576
0.596138
0.537403
0.503497
0.75375
0.797901
0.882597
0.973998
1.03076
1.02083
0.95371
0.833273
0.717099
0.627746
0.584289
0.675293
0.697375
0.772286
0.863157
0.947452
0.987626
0.976504
0.921407
0.815124
0.691254
0.613884
0.45826
0.440616
0.493818
0.561432
0.639618
0.707462
0.743852
0.758569
0.741967
0.671442
0.599193
0.180111
0.105278
0.123452
0.14115
0.171289
0.213621
0.256561
0.30155
0.366331
0.426409
0.439747
-0.0995596
-0.252044
-0.285743
-0.343892
-0.398279
-0.438507
-0.449533
-0.420271
-0.31704
-0.137684
0.0545368
-0.344536
-0.586173
-0.684931
-0.839273
-1.00322
-1.16649
-1.30064
-1.3574
-1.27356
-1.02874
-0.668862
-0.563247
-0.8813
-1.04404
-1.30173
-1.58581
-1.8946
-2.19821
-2.40636
-2.42314
-2.17166
-1.68519
-0.734019
-1.1235
-1.34174
-1.70016
-2.10131
-2.55817
-3.04298
-3.46
-3.65666
-3.4616
-2.89316
-0.816238
-1.30651
-1.54968
-2.00018
-2.50794
-3.10373
-3.76667
-4.41215
-4.81729
-4.74282
-4.13412
-0.810845
-1.4077
-1.62125
-2.16989
-2.77126
-3.48254
-4.29355
-5.13672
-5.75222
-5.86258
-5.26416
-0.742157
-1.31372
-1.64453
-2.20178
-2.86794
-3.66193
-4.57139
-5.5326
-6.33539
-6.66037
-6.11879
-0.568455
-1.11041
-1.50611
-2.07464
-2.77838
-3.62234
-4.58674
-5.60323
-6.52629
-6.92543
-6.4265
-0.261749
-0.773816
-1.19901
-1.76842
-2.47993
-3.33758
-4.31729
-5.3474
-6.26849
-6.68424
-6.35143
0.141222
-0.320094
-0.743957
-1.29474
-1.98728
-2.82467
-3.77485
-4.75306
-5.59709
-6.0398
-5.83378
0.641732
0.236652
-0.171368
-0.693323
-1.35197
-2.14771
-3.03823
-3.92497
-4.65378
-5.05195
-4.99482
1.2183
0.855327
0.460028
-0.035777
-0.655683
-1.39532
-2.20352
-2.97456
-3.56915
-3.8836
-3.87554
1.78538
1.43458
1.03638
0.55877
-0.0176086
-0.685964
-1.39447
-2.03983
-2.49671
-2.7015
-2.71304
2.19212
1.82912
1.4249
0.98365
0.478637
-0.0989853
-0.706312
-1.24214
-1.58088
-1.66181
-1.56665
2.35202
1.99644
1.61318
1.21922
0.776923
0.269818
-0.26115
-0.709397
-0.939742
-0.879277
-0.583958
2.32959
1.98624
1.61886
1.22886
0.792809
0.314108
-0.164468
-0.543008
-0.699586
-0.59471
-0.163034
2.0968
1.72844
1.34855
0.958663
0.548324
0.126972
-0.283086
-0.624855
-0.711726
-0.461439
-0.0340763
1.66123
1.24684
0.87357
0.535865
0.213622
-0.101102
-0.399081
-0.578422
-0.50039
-0.25301
0.0248478
0.919726
0.521481
0.331657
0.143114
-0.0376008
-0.198294
-0.290093
-0.285934
-0.231012
-0.0942681
0.0592349
0.247767
0.823565
1.04092
0.68275
-0.264014
-1.31418
-1.88395
-1.83188
-1.33352
0.228124
0.704995
0.874049
0.577163
-0.183706
-0.940533
-1.4085
-1.40862
-1.09022
0.179478
0.594174
0.734803
0.477206
-0.16265
-0.884081
-1.30483
-1.3025
-1.02418
0.126166
0.5052
0.615824
0.366341
-0.162676
-0.737385
-1.09704
-1.11771
-0.910059
-0.725568
-1.58046
-1.85528
-1.44184
-0.841865
-0.611805
-0.661712
-0.75779
-0.953674
-0.485151
-1.07319
-1.35001
-1.08833
-0.748658
-0.630043
-0.664766
-0.747965
-0.872752
-0.428262
-1.0584
-1.22913
-1.00409
-0.685962
-0.602974
-0.6453
-0.718121
-0.823849
-0.361358
-0.76943
-1.02277
-0.874562
-0.613483
-0.576729
-0.611763
-0.673769
-0.75872
2.279
2.30304
2.29535
-0.287373
-0.301181
2.02028
-0.614975
1.74402
2.00518
2.92888
-0.326898
1.75142
-0.248928
-0.0533059
2.27397
1.06481
-0.112802
-0.29361
1.06395
2.37366
0.762346
-0.613609
1.34661
-0.166572
2.37568
-0.0561116
-0.237201
-0.610105
-0.554564
-0.248171
-0.116157
1.27345
0.0223585
1.24766
1.25302
2.29395
-0.16911
2.37344
0.0290493
1.71475
-0.415718
1.25629
0.0420481
1.35566
-0.362649
-1.22775
-0.253553
-0.771484
1.8057
1.69458
-0.251246
1.72537
-0.0343168
0.0239484
1.66825
0.771401
-0.595808
1.68702
-0.391384
-0.0889688
0.321127
-0.0296379
-0.335219
-0.315157
-0.753278
2.36296
-0.161643
1.78025
2.28897
2.89748
-0.141045
3.36537
-0.352786
3.78364
-0.197233
3.15468
-0.531948
1.28557
-0.416946
-0.607528
-0.34627
-0.318866
2.3206
2.32277
0.246437
-0.350725
-0.255457
-0.0127045
-0.413702
-0.206568
2.27001
1.6766
-0.54555
2.75094
-0.618179
-0.59675
-0.207887
-0.13539
-0.382443
3.50453
0.576028
-0.714393
2.49707
0.628415
-0.357821
2.14969
-0.0183085
2.31613
-0.0844053
0.323054
1.37732
1.25058
2.8433
-0.306365
-0.287076
2.31693
1.66242
1.17976
1.81193
2.23985
-0.314781
3.83522
0.0231303
-0.117681
-1.19137
-0.177038
-0.114283
-0.0182635
-0.0117974
-0.0595621
1.51254
-0.0920199
-0.76002
3.20706
2.21378
0.133934
-0.537173
-0.321055
-0.210982
1.98592
0.0794089
0.622003
-0.431817
1.78583
1.63471
-0.352672
-0.130703
1.7613
3.24232
1.18879
1.3425
2.09011
-0.355507
3.72356
-0.295704
0.0115318
-0.355491
-0.431919
-0.0987986
2.4169
-0.139561
-0.37183
3.29407
2.4001
-0.137766
-0.174009
-0.425014
0.446065
-0.135309
-0.756
0.00264869
-0.0403942
-0.121623
0.624978
1.32656
1.26854
-0.000395553
-0.356687
-0.395512
1.33624
1.71964
-0.611181
2.23576
-0.286647
2.02194
-0.289334
1.33594
1.14976
2.35979
-0.410946
-0.095218
-0.128223
2.27289
-0.424714
2.27776
2.45648
2.09985
-0.385943
-0.0628883
2.30928
-0.315191
1.81174
-0.143902
-0.132186
2.22276
-0.00682818
2.68934
-0.0100717
1.79597
2.28408
-0.239623
1.15194
0.539261
1.40568
1.29123
-0.167396
2.28298
-0.281229
1.43293
-0.2611
0.028846
-0.313893
-0.205365
-0.300045
-0.100584
1.60767
-0.257573
-0.163259
-0.0791748
-0.336323
-0.4205
2.2586
1.35296
3.92549
-0.346335
-0.274088
-0.198531
2.2426
1.55337
1.56225
-0.253332
-0.220317
0.565508
-0.433019
2.10379
-0.397131
1.23298
-0.151392
-0.497031
-0.329019
-0.148194
-0.243447
1.00483
2.48225
0.133923
2.07843
0.838808
2.38114
-0.326049
1.31406
-0.000867089
-0.0771072
2.26667
1.32177
1.36449
-0.281892
0.577894
1.70488
-0.0701199
-0.020047
-0.319449
1.44397
1.85906
-0.251263
2.44646
1.1797
-0.131916
2.28175
2.01727
-0.366984
3.47549
1.87941
-0.340211
-0.20037
0.170449
2.46203
-0.0223215
1.63102
1.83116
0.103875
1.50949
-0.563118
0.220184
-0.0310948
2.27506
1.78644
-0.139729
1.36874
1.34616
-0.142353
1.91841
-0.336255
1.64358
-0.243539
0.868177
0.297651
1.31273
-0.0402592
-0.59029
1.39428
-0.690011
2.13603
0.316155
0.027712
-0.657534
2.00098
-0.232688
-0.372944
2.12189
3.0586
1.28116
-0.209125
1.15716
-0.160426
-0.353898
0.560188
1.23962
-0.201535
2.24261
-0.296181
1.55058
-0.337809
-0.461938
2.04984
-0.253889
-0.451958
-0.370277
1.32236
2.26545
-0.120806
-0.264409
-0.208356
1.82702
-0.160087
-0.315755
-0.0618711
-0.19232
1.20287
-0.172359
-0.176306
-0.731326
-0.136025
0.00539927
0.896361
-0.0676879
2.30903
0.0234553
1.65583
1.33356
-0.313406
-0.0101658
-0.0755167
2.27894
2.31667
2.65539
-0.419744
-0.0383397
0.0216567
-0.723811
0.00679754
2.30266
-0.293863
-0.480424
-0.0155264
-0.0564974
1.4948
0.147728
1.21763
2.49526
1.19741
-0.248752
2.4782
-0.339216
1.57629
-0.125328
-0.0988069
-0.325657
-0.0995157
-0.218606
-0.444171
2.08753
-0.608852
-0.0400555
3.94449
-0.0989411
-0.69507
1.29584
1.25495
1.86733
-0.192036
-0.333128
2.317
2.04357
0.128421
0.0114144
-0.352219
-0.454528
-0.119044
1.78295
-0.194697
0.658397
1.04734
-0.138968
-0.133115
-0.368877
0.278191
-0.102925
4.07299
-0.0039073
-0.549359
-0.259094
-0.00805108
-0.646956
-0.0361469
1.22661
0.376992
3.70663
-0.0222004
-0.129009
-0.953259
1.21704
-0.376647
-0.144823
2.05007
-0.0512179
0.0582897
-0.194282
-0.228721
-0.11933
1.20313
0.319086
-0.17789
-0.254299
-0.32984
0.879851
0.0803407
-0.0876218
-0.412569
2.48335
-0.391105
2.06907
2.32322
2.27638
-0.496008
-0.158578
-0.745566
0.00536232
-0.372111
-0.00150905
2.35721
2.49948
-0.146982
-0.0248959
0.112453
0.774267
-0.0139452
0.000279521
2.30309
1.16982
1.57421
1.22148
-0.343684
1.11193
0.272423
0.803859
1.51445
1.43044
2.2723
-0.370507
1.32759
2.36327
0.785307
-0.309699
-0.591733
1.32777
-0.350391
-0.338089
1.83698
0.0885917
2.37445
-0.279433
2.46563
0.850829
1.59142
-0.0102455
-0.0990604
2.29513
-0.139989
0.478119
1.70866
-0.170397
-0.201874
1.99673
2.3398
-0.509051
0.0825691
-0.334339
1.49981
-0.742639
1.19913
-0.150697
-0.0884889
-0.451208
-0.166908
0.584749
-0.143708
-0.163608
-0.13516
1.20864
-0.119704
2.086
1.8947
2.36357
1.49956
0.681168
-0.268749
1.73972
2.38053
-0.191035
1.93328
-0.996514
0.0696034
-0.0355584
-0.139303
-0.427652
2.32826
2.3366
1.88201
-0.486078
-0.363402
1.22937
2.38297
-0.115614
2.02954
-0.266043
2.03067
-0.246577
1.98519
-0.488908
0.0304373
-0.00825808
-1.19871
-0.142387
0.870934
0.548813
3.14322
1.46598
0.0422504
-0.404679
2.20602
-0.130625
-0.142859
-0.700981
2.35868
2.16042
2.13653
-0.0911095
-0.181844
-0.0252261
2.06418
1.5192
-0.212485
2.70963
-0.0641767
-0.031704
-0.109805
-0.347373
1.35564
-0.00687621
2.3529
-0.156334
2.4044
-0.20174
-0.000718069
1.41633
-0.671247
-0.199492
1.7506
1.28052
-0.58317
2.40262
-0.141149
-0.273595
-0.184927
-0.104795
-0.248003
-0.240779
2.87481
1.7697
2.01195
-0.590045
-0.266133
-0.0610969
2.33923
2.3463
-0.456132
1.28679
2.76515
0.678327
3.29504
-0.151712
-0.165048
-0.164296
-0.0517173
0.23209
1.01958
2.4652
-0.172359
3.15486
1.91681
-0.511682
-0.2128
1.13953
2.45143
-0.519362
2.45013
2.48137
0.415748
2.1403
0.529053
-0.259069
-0.0322067
0.0540905
-0.00123038
-0.00777331
-0.477991
-0.159149
0.114382
-0.17113
-0.140748
-0.427866
-0.369376
-0.111163
1.20411
0.904104
-0.358824
0.25304
1.09015
0.201877
-0.151728
0.060933
-0.511118
-0.0673476
0.0500074
1.25354
0.894982
2.3468
1.25009
2.37134
-0.266962
3.03386
1.43658
1.0114
1.45433
-0.255054
-0.0389099
-0.342836
3.17632
1.29889
1.66404
0.114251
3.02591
-0.463449
3.00555
-0.18952
-0.0611853
1.31351
0.0202333
2.35218
0.0134272
-0.267398
-0.143982
-0.554158
-0.130039
0.320537
2.31563
-0.0157022
-0.0268178
-0.504633
-0.174178
1.18598
0.306166
2.32062
-0.0220069
1.06029
-0.314202
2.08011
1.81471
2.45947
-0.229887
-0.0952622
2.34081
-0.0024304
2.34096
-0.152555
-0.102439
0.555074
-0.274266
-0.46706
0.00658822
0.148382
-0.203078
-0.245811
-0.168125
0.0235921
-0.637511
1.20794
-0.163046
1.49338
1.49277
-0.696346
-0.134031
-0.290492
-0.0445937
2.67881
0.532373
2.20234
-0.287429
2.35866
-0.0291188
0.117761
-0.245213
0.440799
0.109097
0.00618809
-0.110411
3.88859
-0.252532
-0.311043
-0.362488
1.40087
-0.0838485
-0.145962
2.28637
-0.96816
-0.0103389
3.40429
-0.197201
1.52625
0.96044
2.30662
-0.0136812
3.55244
-0.0188441
2.16677
0.00770666
3.31117
-0.0409962
0.0867316
-0.206327
-0.0575469
1.13123
-0.19578
-1.0596
2.35942
-0.0115823
0.168253
0.137764
0.948648
-0.42872
0.390932
-0.308718
0.017914
0.969825
1.21726
0.194993
1.24688
-0.195188
-0.371331
2.28339
1.79851
0.630607
-0.34384
-0.240452
-0.240757
1.72402
-0.160596
0.0848374
1.23464
2.36066
2.09942
1.48537
2.04685
-0.00320651
-0.59156
-0.29333
-0.0476312
-0.0873083
2.4338
1.59056
0.0542288
-0.169316
2.24344
-0.00276733
-0.114299
-0.736584
-0.226793
-0.0198824
1.03012
-0.317105
2.43469
1.51251
-1.10682
2.19763
1.74457
0.174531
-0.0304785
0.269293
0.319964
2.29166
-0.120373
-0.544633
-0.354621
1.70628
-0.0292978
0.0985056
-0.110036
-0.332937
2.33972
1.19987
-0.285015
-0.173825
0.11326
2.32197
1.0297
3.17796
2.41166
1.67876
-0.168463
-0.157087
-0.95722
-0.695817
0.127135
1.97795
-0.301256
2.35181
3.00584
0.0381957
1.57871
2.27638
1.73076
-0.373017
-0.0962702
-0.00901171
2.28971
-0.306844
2.41859
2.1536
2.19172
2.46366
0.172798
1.32958
2.23332
2.37596
-0.3774
1.24239
2.43308
-0.111939
-0.466064
1.52446
2.26959
-0.314934
-0.399389
1.29115
0.141387
-0.135421
-0.32786
1.46292
2.34902
0.558326
1.72479
0.0358787
1.61678
-0.191039
-0.0441936
-0.16263
0.0239291
1.36493
-0.073168
2.23675
1.32519
3.90574
1.46994
1.29538
-0.142642
-1.07137
0.114751
-0.167915
-0.163139
0.0873085
0.236988
-0.489122
1.28169
1.38014
-0.00314584
0.0192013
-0.0900401
1.7969
-0.353075
2.79196
-0.263691
2.5633
-0.00207591
-0.0556856
-0.368394
-0.14401
2.42733
2.34929
-0.219015
-0.526181
-0.058615
-0.0509713
-0.157933
0.317812
0.934711
-0.2148
2.35232
2.21864
-0.139774
-0.973159
-0.287923
-0.38064
-0.0342279
-0.0679526
-0.158777
-0.230148
2.33766
0.290854
-0.138024
2.39742
0.983989
2.16784
-0.232316
-0.0259628
-0.120273
2.35217
-0.128964
1.98476
1.7105
-0.109981
-0.286733
1.29256
2.26398
2.39424
-0.0269329
-0.103156
-0.532793
0.0816747
2.53732
-0.353241
-0.280976
-0.487478
2.33028
-0.11951
0.0201826
1.96793
-0.0269976
1.71545
-0.0563266
-0.116639
0.231408
-0.271002
1.93595
2.51202
-0.314763
-0.159008
1.29844
-0.129316
2.26888
-0.313175
-0.0209228
-0.758666
2.32836
-0.00969912
-0.271333
-0.230191
-0.0104888
-0.0588673
2.31256
-0.0137811
-0.318047
1.29863
0.508232
-0.192821
-0.357534
-0.148011
-0.167681
1.79158
2.51553
-0.414587
0.888899
-0.60749
0.0188518
-0.0208465
-0.178654
1.6874
-0.298619
-0.371794
-0.0151118
-0.224367
0.0927469
2.4828
-0.136688
-0.000474386
2.36194
2.29564
2.19487
-0.208756
0.475447
1.95715
-0.164397
0.128759
-0.0142127
1.38688
-0.706793
-0.202836
0.715156
-0.195962
1.22496
2.972
1.91508
-0.674014
1.33405
-0.0767904
0.238234
-0.376594
1.32892
0.899844
2.32596
2.36786
-0.343505
-0.199259
0.108595
-0.365072
-1.04587
-0.246467
2.68794
0.130845
-0.335881
2.34133
-0.0284413
-0.089526
1.54469
0.128148
-0.152546
-0.173985
0.976326
-0.0930874
2.33688
-0.220815
1.42175
-0.519195
-0.144105
4.08718
-0.560192
-0.18769
0.671448
-0.173956
0.104253
-0.111723
-0.204729
1.05885
-0.446106
-0.0509278
-0.311029
-1.16185
-0.159281
2.11212
-0.199488
1.9374
-0.16908
-0.0839851
-0.293413
0.961581
-0.180093
-0.366295
2.40833
1.75459
0.537457
1.41346
-0.0105608
-0.162069
2.98983
-0.0778086
-0.190623
1.43373
-0.32547
-0.579759
0.0832702
-0.0748376
-0.330002
-0.242276
-0.039481
-0.12735
2.39626
2.37724
-0.174893
2.46219
2.23388
-0.172787
2.31467
2.17696
-0.184324
4.00577
-0.495946
-0.0705915
-0.363056
2.50085
-0.121169
0.00294356
-0.0747882
-1.00811
2.34802
0.0179694
-0.243368
-0.0109687
0.0233814
1.07782
-0.0896266
2.19772
-0.260976
-0.143356
1.8073
2.4939
-0.365193
0.125949
-0.21388
-0.383716
-0.109375
2.6951
2.20549
2.38496
0.0184831
0.0252785
-0.0167412
-0.34378
-0.0481845
3.49154
0.98405
2.22592
2.09485
-0.381695
2.43263
1.29442
-1.08926
-0.0840659
-0.712088
-0.346609
1.40299
1.17294
-0.0138233
-0.294914
-0.245257
-0.532347
-0.148641
2.10993
1.44886
-0.0846171
-0.198048
-0.040688
-0.0760216
2.51993
-0.0874007
-0.0218219
-0.360444
0.873538
-0.166946
-0.411755
1.65945
-0.126308
1.26829
2.77319
-0.30483
-0.0209728
-0.168502
0.817856
1.86102
0.0556601
-0.230504
-0.273897
-0.131884
-0.289122
-0.0854485
1.67836
-0.653514
-0.283732
2.35623
-0.0131632
0.0456904
2.1346
-0.315143
2.36402
2.37714
3.12343
-0.460337
-0.00568553
1.17106
-0.171135
2.35261
1.311
2.31042
-0.134143
1.20502
-0.18657
-0.205398
2.36921
-0.32586
-0.524394
-0.136166
-0.379097
-0.0732647
-0.177632
-0.00264428
1.75745
1.3358
2.18333
0.00518708
2.31341
1.30525
-0.0186134
-0.484066
-0.0926862
0.00285989
0.0452095
1.68304
-0.285842
-0.209814
1.1983
0.0647461
1.13063
-0.0060969
2.13112
-0.0330462
0.762091
2.6465
1.91974
-0.352098
-0.0763223
1.9114
-0.16992
1.17794
0.0160691
-0.184098
-0.313266
-0.11405
2.41539
2.2653
-0.120236
-0.170828
-0.0925462
-0.035131
-0.357153
0.0145048
2.37698
-0.509948
-0.0473507
2.35191
-0.365141
-0.345816
-0.086577
-0.358915
-0.280274
-0.0094942
-0.401323
-0.441032
1.2038
1.69916
-0.0950652
-0.199307
0.146035
1.28892
-0.113715
2.26647
3.7174
-0.670379
2.34078
1.7151
-0.560929
-0.330626
1.8606
2.30391
1.97064
0.726909
1.41648
2.76124
-0.200536
0.456486
1.15757
2.10153
-0.376476
1.47201
-0.0600485
2.32084
1.03825
1.73531
-0.133225
-0.463782
-0.151171
2.45285
1.31954
-0.0304217
-0.0857696
2.35391
-0.107139
-0.150716
2.24118
0.00383807
-0.066787
-0.397248
-0.169616
-0.225798
1.69594
-0.269303
2.05272
0.802007
2.99363
1.05518
2.37995
-0.144466
2.86446
-0.325214
2.26817
2.38016
-0.337121
1.35758
2.32484
-0.274256
-0.277059
-0.340837
2.48691
0.847406
2.07191
-0.185554
-0.0814779
-0.237026
1.28285
-0.21423
-0.209134
1.3923
1.16164
1.32926
0.715567
-0.312863
3.08195
0.0350677
3.46746
-0.83272
0.0920172
-0.0914907
-0.0144199
1.7693
0.182938
2.25832
0.129764
-0.433086
2.4217
2.37243
0.0344339
0.505396
0.942621
2.73919
-0.195116
2.36643
-0.347462
-0.40775
-0.056199
-0.0977334
1.18091
-0.168492
1.89164
-0.5622
-0.156381
0.0903455
-0.240193
2.30037
1.34689
2.36949
1.11584
0.391886
0.649465
2.78845
-0.0916892
-0.255731
1.45184
0.73718
-0.568141
0.410842
2.3279
0.288877
2.84308
3.56899
-0.1614
2.44608
0.0696139
-0.0127069
0.866459
2.24557
-0.124287
-0.351227
2.48772
-0.062459
2.41865
3.45191
-0.0944676
0.885899
-0.093769
2.3529
2.66701
-1.08601
0.0945789
1.30737
0.0562252
0.831093
1.49272
1.22711
1.34041
1.13263
0.152338
-0.229134
-0.176568
-0.377126
1.46852
1.94681
-0.307761
-0.0103176
0.925914
0.516224
0.00731412
2.64644
-0.150528
1.71615
-0.165625
2.07775
2.53073
-0.0103884
-0.199195
-0.110671
2.33965
2.46512
2.38611
2.28897
1.6301
-0.204856
-0.165331
-0.267746
-0.227155
0.0340446
0.48347
1.45912
1.49986
-0.404849
2.64434
0.00228987
-0.534428
0.559098
-0.331435
-0.218755
0.933979
2.31754
0.1135
-0.187538
-0.145869
0.837748
-0.129726
-0.096572
-0.325678
-0.0350422
-0.076193
1.37981
-0.184575
-0.041719
-0.540632
-0.19359
-0.272622
-0.0354667
2.35666
2.70284
-0.29239
2.34266
-0.0652907
-0.127825
0.0329202
-0.151494
-0.18136
-0.22533
0.0291404
-0.205191
2.06156
-0.126403
0.00644929
0.0725713
-0.0440677
-0.330797
2.35379
-0.377961
2.07943
-0.0764703
-0.530063
-0.172078
-0.428255
-0.309235
-0.262986
2.2422
3.16484
1.37256
2.59026
2.45892
1.06522
1.39422
-0.287618
2.54423
-0.26738
-0.304702
1.13933
2.32973
-0.0615067
-0.205959
2.2027
0.453753
1.33503
3.93501
0.100118
-0.249362
2.34714
1.09046
1.02791
1.22459
3.27799
2.25758
0.177712
-0.333693
2.01329
0.339668
2.2336
1.16338
1.73832
2.28232
-0.172231
2.31702
1.63427
0.856435
2.30697
-0.0396623
1.53722
-0.0347489
-0.341934
-0.768366
0.0664474
-0.180365
0.0460705
-0.0673892
0.0237437
-0.211271
-0.0926964
1.23558
-0.0343001
0.642933
1.88311
2.32429
0.412626
-0.130985
-0.0363147
2.34148
-0.333366
2.91829
0.0811652
-0.122557