/*--------------------------------*- C++ -*----------------------------------*\
| =========                 |                                                 |
| \\      /  F ield         | OpenFOAM: The Open Source CFD Toolbox           |
|  \\    /   O peration     | Version:  3.0.1                                 |
|   \\  /    A nd           | Web:      www.OpenFOAM.org                      |
|    \\/     M anipulation  |                                                 |
\*---------------------------------------------------------------------------*/
FoamFile
{
    version     2.0;
    format      ascii;
    class       surfaceScalarField;
    location    "0.613455";
    object      phi;
}
// * * * * * * * * * * * * * * * * * * * * * * * * * * * * * * * * * * * * * //

dimensions      [0 3 -1 0 0 0 0];

internalField   nonuniform List<scalar> 
32369
(
-1.62586e-05
-7.28066e-07
1.69867e-05
-2.68329e-05
-2.91076e-06
1.34851e-05
-3.5207e-05
-4.76792e-06
1.3142e-05
-4.2235e-05
-5.90728e-06
1.29352e-05
-4.88885e-05
-6.39318e-06
1.30467e-05
-5.58079e-05
-6.33199e-06
1.32513e-05
-6.34656e-05
-5.77563e-06
1.34334e-05
-7.22232e-05
-4.6914e-06
1.34489e-05
-8.24188e-05
-2.95035e-06
1.3146e-05
-9.44307e-05
-3.08209e-07
1.23201e-05
3.63241e-06
1.06551e-05
-0.000108718
-7.49396e-06
6.7659e-06
-1.49548e-05
4.55007e-06
-2.31298e-05
3.4071e-06
-3.11996e-05
2.16251e-06
-3.90591e-05
1.46626e-06
-4.70049e-05
1.61382e-06
-5.55439e-05
2.76343e-06
-6.52164e-05
4.98107e-06
-7.6543e-05
8.37631e-06
-9.00294e-05
1.31781e-05
1.97748e-05
-0.000106172
-2.95007e-06
9.71597e-06
-7.16145e-06
8.76145e-06
-1.32069e-05
9.45258e-06
-2.0413e-05
9.36856e-06
-2.85063e-05
9.55963e-06
-3.72538e-05
1.03613e-05
-4.67276e-05
1.22373e-05
-5.72264e-05
1.54799e-05
-6.91938e-05
2.03437e-05
-8.31419e-05
2.71262e-05
3.63106e-05
-9.96777e-05
-1.78245e-06
1.14984e-05
-4.88634e-06
1.18653e-05
-9.30539e-06
1.38716e-05
-1.48582e-05
1.49214e-05
-2.1816e-05
1.65174e-05
-2.99305e-05
1.84758e-05
-3.91094e-05
2.14161e-05
-4.94357e-05
2.58061e-05
-6.11741e-05
3.20821e-05
-7.47473e-05
4.06995e-05
5.22184e-05
-9.06551e-05
-1.44576e-06
1.29442e-05
-3.90619e-06
1.43258e-05
-7.27329e-06
1.72387e-05
-1.17768e-05
1.94249e-05
-1.74721e-05
2.22127e-05
-2.44156e-05
2.54193e-05
-3.26747e-05
2.96752e-05
-4.22365e-05
3.5368e-05
-5.32469e-05
4.30924e-05
-6.59848e-05
5.34374e-05
6.71842e-05
-8.09506e-05
-1.14662e-06
1.40908e-05
-3.36607e-06
1.65452e-05
-6.01482e-06
1.98875e-05
-9.60254e-06
2.30126e-05
-1.42658e-05
2.6876e-05
-2.01578e-05
3.13113e-05
-2.72977e-05
3.68151e-05
-3.57931e-05
4.38634e-05
-4.57651e-05
5.30645e-05
-5.74231e-05
6.50954e-05
8.08985e-05
-7.11375e-05
-1.01894e-06
1.51097e-05
-2.77963e-06
1.83059e-05
-5.00824e-06
2.21161e-05
-8.0062e-06
2.60106e-05
-1.18619e-05
3.07318e-05
-1.67722e-05
3.62216e-05
-2.28695e-05
4.29124e-05
-3.02713e-05
5.12652e-05
-3.91166e-05
6.19098e-05
-4.95813e-05
7.55601e-05
9.3203e-05
-6.18857e-05
-9.8807e-07
1.60978e-05
-2.54247e-06
1.98603e-05
-4.42801e-06
2.40016e-05
-6.92754e-06
2.85101e-05
-1.01385e-05
3.39427e-05
-1.42355e-05
4.03186e-05
-1.9377e-05
4.80539e-05
-2.57074e-05
5.75955e-05
-3.33827e-05
6.95851e-05
-4.25424e-05
8.47198e-05
0.000104113
-5.3452e-05
-8.76433e-07
1.69742e-05
-2.23654e-06
2.12204e-05
-3.86985e-06
2.5635e-05
-5.9855e-06
3.06257e-05
-8.66791e-06
3.66251e-05
-1.20887e-05
4.37394e-05
-1.64001e-05
5.23653e-05
-2.17581e-05
6.29535e-05
-2.83013e-05
7.61283e-05
-3.62594e-05
9.2678e-05
0.000113695
-4.58422e-05
-5.91617e-07
1.75659e-05
-1.6629e-06
2.22917e-05
-3.00982e-06
2.69819e-05
-4.77421e-06
3.23901e-05
-7.01475e-06
3.88657e-05
-9.87225e-06
4.65969e-05
-1.34892e-05
5.59822e-05
-1.8004e-05
6.74683e-05
-2.35891e-05
8.17133e-05
-3.04304e-05
9.95193e-05
0.000122002
-3.87369e-05
-3.58741e-07
1.79246e-05
-1.17628e-06
2.31092e-05
-2.23431e-06
2.80399e-05
-3.64653e-06
3.38024e-05
-5.46366e-06
4.06828e-05
-7.79995e-06
4.89332e-05
-1.07663e-05
5.89486e-05
-1.4501e-05
7.1203e-05
-1.91601e-05
8.63724e-05
-2.49408e-05
0.0001053
0.000129011
-3.19497e-05
-3.18658e-07
1.82433e-05
-9.84158e-07
2.37747e-05
-1.801e-06
2.88568e-05
-2.88721e-06
3.48886e-05
-4.27484e-06
4.20704e-05
-6.07413e-06
5.07325e-05
-8.3824e-06
6.12569e-05
-1.13159e-05
7.41365e-05
-1.50217e-05
9.00782e-05
-1.96576e-05
0.000109936
0.00013474
-2.53868e-05
-1.83811e-07
1.84271e-05
-6.3201e-07
2.42229e-05
-1.19208e-06
2.94168e-05
-1.94898e-06
3.56455e-05
-2.92431e-06
4.30457e-05
-4.20663e-06
5.20148e-05
-5.88116e-06
6.29314e-05
-8.05493e-06
7.63103e-05
-1.0812e-05
9.28353e-05
-1.43014e-05
0.000113425
0.000139159
-1.87207e-05
1.3277e-07
1.82943e-05
5.09385e-09
2.43506e-05
-2.36103e-07
2.9658e-05
-6.39984e-07
3.60494e-05
-1.19484e-06
4.36006e-05
-1.9666e-06
5.27865e-05
-3.00334e-06
6.39681e-05
-4.39571e-06
7.77026e-05
-6.23109e-06
9.46707e-05
-8.61759e-06
0.000115812
0.000142278
-1.17368e-05
2.16123e-07
1.80782e-05
3.15175e-07
2.42516e-05
3.83977e-07
2.95892e-05
3.65145e-07
3.60682e-05
2.96441e-07
4.36693e-05
1.21044e-07
5.29619e-05
-2.00207e-07
6.42894e-05
-7.12359e-07
7.82148e-05
-1.47731e-06
9.54356e-05
-2.61783e-06
0.000116952
0.000143815
-4.15485e-06
3.68515e-07
1.77097e-05
7.51146e-07
2.38689e-05
1.15553e-06
2.91848e-05
1.57435e-06
3.56494e-05
2.0263e-06
4.32174e-05
2.49063e-06
5.24976e-05
2.96364e-06
6.38164e-05
3.40914e-06
7.77693e-05
3.78578e-06
9.5059e-05
4.09955e-06
0.000116639
0.000143663
4.25203e-06
6.81337e-07
1.70283e-05
1.46278e-06
2.30875e-05
2.28814e-06
2.83595e-05
3.19226e-06
3.47452e-05
4.23276e-06
4.21769e-05
5.40451e-06
5.13258e-05
6.7368e-06
6.24841e-05
8.23705e-06
7.6269e-05
9.92216e-06
9.33739e-05
1.17812e-05
0.00011478
0.000141686
1.37584e-05
9.02027e-07
1.61263e-05
2.04994e-06
2.19396e-05
3.33352e-06
2.70759e-05
4.80759e-06
3.32712e-05
6.5241e-06
4.04604e-05
8.53064e-06
4.93193e-05
1.08831e-05
6.01317e-05
1.36245e-05
7.35277e-05
1.68021e-05
9.01962e-05
2.04614e-05
0.00011112
0.000137422
2.47245e-05
1.16038e-06
1.49659e-05
2.72866e-06
2.03713e-05
4.53417e-06
2.52704e-05
6.65313e-06
3.11522e-05
9.15201e-06
3.79615e-05
1.21319e-05
4.63394e-05
1.56691e-05
5.65945e-05
1.9854e-05
6.93428e-05
2.47941e-05
8.52561e-05
3.063e-05
0.000105284
0.000130593
3.74591e-05
1.4704e-06
1.34955e-05
3.51278e-06
1.83289e-05
5.90473e-06
2.28784e-05
8.76991e-06
2.8287e-05
1.21864e-05
3.4545e-05
1.62918e-05
4.2234e-05
2.1198e-05
5.16883e-05
2.70586e-05
6.34821e-05
3.4027e-05
7.82877e-05
4.23254e-05
9.6986e-05
0.000120704
5.22147e-05
1.81644e-06
1.16791e-05
4.34218e-06
1.58032e-05
7.38865e-06
1.98319e-05
1.11066e-05
2.45691e-05
1.55807e-05
3.00708e-05
2.09774e-05
3.68373e-05
2.74516e-05
4.52141e-05
3.51983e-05
5.57354e-05
4.44651e-05
6.90209e-05
5.55784e-05
8.58727e-05
0.000107322
6.89606e-05
2.08208e-06
9.59699e-06
5.09403e-06
1.27912e-05
8.86049e-06
1.60655e-05
1.35315e-05
1.98981e-05
1.91741e-05
2.44283e-05
2.59811e-05
3.00303e-05
3.41473e-05
3.70478e-05
4.39344e-05
4.59484e-05
5.56944e-05
5.72609e-05
6.98743e-05
7.16928e-05
9.02054e-05
8.69908e-05
2.26191e-06
7.33508e-06
5.8892e-06
9.16394e-06
1.03991e-05
1.15556e-05
1.59497e-05
1.43475e-05
2.26975e-05
1.76805e-05
3.08521e-05
2.18757e-05
4.0653e-05
2.7247e-05
5.24566e-05
3.41448e-05
6.67094e-05
4.30081e-05
8.39988e-05
5.44034e-05
6.91731e-05
0.000105031
6.2969e-08
7.27211e-06
4.78916e-06
4.43775e-06
1.0662e-05
5.68277e-06
1.74035e-05
7.60598e-06
2.53443e-05
9.73961e-06
3.47612e-05
1.24589e-05
4.59845e-05
1.60236e-05
5.94907e-05
2.06387e-05
7.58929e-05
2.66058e-05
9.59154e-05
3.4381e-05
4.45864e-05
0.000120502
-3.81302e-06
2.07997e-05
-8.19912e-06
1.78712e-05
-1.61285e-05
2.10714e-05
-2.48061e-05
2.16128e-05
-3.36356e-05
2.18762e-05
-4.27461e-05
2.23618e-05
-5.24578e-05
2.31451e-05
-6.31351e-05
2.41262e-05
-7.51421e-05
2.5153e-05
-8.88345e-05
2.60124e-05
2.64333e-05
-0.000104613
3.55253e-06
1.72472e-05
4.07378e-06
1.73499e-05
-1.59005e-07
2.53042e-05
-6.9936e-06
2.84474e-05
-1.57636e-05
3.06462e-05
-2.57639e-05
3.23622e-05
-3.6767e-05
3.41482e-05
-4.89017e-05
3.62609e-05
-6.24567e-05
3.8708e-05
-7.7805e-05
4.13607e-05
4.39933e-05
-9.5365e-05
2.663e-06
1.45842e-05
2.88844e-06
1.71245e-05
1.30332e-06
2.68893e-05
-2.24954e-06
3.20003e-05
-8.48142e-06
3.68781e-05
-1.68274e-05
4.07082e-05
-2.68688e-05
4.41896e-05
-3.83852e-05
4.77773e-05
-5.14602e-05
5.17831e-05
-6.636e-05
5.62605e-05
6.11159e-05
-8.34826e-05
1.53906e-06
1.30451e-05
8.62629e-07
1.78009e-05
-4.24991e-08
2.77945e-05
-2.09088e-06
3.40487e-05
-6.15734e-06
4.09445e-05
-1.22062e-05
4.67571e-05
-2.02285e-05
5.22118e-05
-3.00278e-05
5.75766e-05
-4.15147e-05
6.32699e-05
-5.47873e-05
6.95331e-05
7.64228e-05
-7.00941e-05
8.80267e-07
1.21648e-05
-2.08822e-07
1.889e-05
-1.14522e-06
2.87309e-05
-2.81265e-06
3.57161e-05
-5.58853e-06
4.37204e-05
-9.79609e-06
5.09646e-05
-1.57438e-05
5.81595e-05
-2.34411e-05
6.52739e-05
-3.28498e-05
7.26786e-05
-4.39874e-05
8.06707e-05
8.93988e-05
-5.69634e-05
5.19856e-07
1.1645e-05
-4.59923e-07
1.98698e-05
-1.34476e-06
2.96157e-05
-2.86105e-06
3.72324e-05
-4.94112e-06
4.58005e-05
-7.9663e-06
5.39898e-05
-1.22862e-05
6.24794e-05
-1.80713e-05
7.1059e-05
-2.54082e-05
8.00155e-05
-3.43051e-05
8.95677e-05
9.99612e-05
-4.48675e-05
3.53947e-07
1.1291e-05
-3.54926e-07
2.05786e-05
-1.04896e-06
3.03097e-05
-2.33093e-06
3.85144e-05
-3.924e-06
4.73935e-05
-6.13698e-06
5.62028e-05
-9.2444e-06
6.55868e-05
-1.34611e-05
7.52756e-05
-1.89253e-05
8.54797e-05
-2.57144e-05
9.63568e-05
0.000108047
-3.38005e-05
1.78582e-07
1.11124e-05
-3.33491e-07
2.10907e-05
-8.31006e-07
3.08072e-05
-1.79062e-06
3.9474e-05
-2.90187e-06
4.85048e-05
-4.42653e-06
5.77274e-05
-6.53113e-06
6.76914e-05
-9.40815e-06
7.81527e-05
-1.32198e-05
8.92913e-05
-1.80912e-05
0.000101228
0.000114128
-2.41721e-05
9.10463e-08
1.10214e-05
-1.9466e-07
2.13764e-05
-4.65013e-07
3.10776e-05
-1.06954e-06
4.00785e-05
-1.71246e-06
4.91477e-05
-2.60009e-06
5.86151e-05
-3.82543e-06
6.89168e-05
-5.54238e-06
7.98696e-05
-7.87865e-06
9.16276e-05
-1.09177e-05
0.000104267
0.000118037
-1.48263e-05
6.04281e-08
1.0961e-05
1.33073e-08
2.14235e-05
2.27334e-08
3.10682e-05
-1.87527e-07
4.02888e-05
-3.54662e-07
4.93148e-05
-6.33629e-07
5.8894e-05
-1.03895e-06
6.93221e-05
-1.70238e-06
8.0533e-05
-2.69941e-06
9.26246e-05
-4.10639e-06
0.000105674
0.000119862
-5.93179e-06
2.16287e-07
1.07447e-05
4.68377e-07
2.11714e-05
7.9557e-07
3.0741e-05
1.0211e-06
4.00633e-05
1.33516e-06
4.90008e-05
1.65191e-06
5.85773e-05
1.99988e-06
6.89741e-05
2.30498e-06
8.02279e-05
2.52381e-06
9.24058e-05
2.61576e-06
0.000105582
0.000119985
2.49302e-06
2.4551e-07
1.04992e-05
7.18534e-07
2.06984e-05
1.39247e-06
3.0067e-05
2.05256e-06
3.94032e-05
2.88247e-06
4.81709e-05
3.83654e-06
5.76232e-05
4.98261e-06
6.7828e-05
6.27354e-06
7.8937e-05
7.7229e-06
9.09564e-05
9.31589e-06
0.000103989
0.000118269
1.10316e-05
3.15717e-07
1.01835e-05
1.03237e-06
1.99818e-05
2.02825e-06
2.90712e-05
3.18287e-06
3.82486e-05
4.56426e-06
4.67895e-05
6.17916e-06
5.60083e-05
8.11985e-06
6.58874e-05
1.04073e-05
7.66496e-05
1.30756e-05
8.82881e-05
1.61611e-05
0.000100904
0.000114628
1.98027e-05
5.06334e-07
9.67712e-06
1.51144e-06
1.89767e-05
2.89545e-06
2.76872e-05
4.55012e-06
3.65939e-05
6.48685e-06
4.48528e-05
8.77526e-06
5.37199e-05
1.15316e-05
6.3131e-05
1.48075e-05
7.33736e-05
1.86941e-05
8.44016e-05
2.3263e-05
9.63348e-05
0.000109181
2.87093e-05
6.0174e-07
9.07538e-06
1.83573e-06
1.77427e-05
3.5892e-06
2.59337e-05
5.7579e-06
3.44252e-05
8.29364e-06
4.2317e-05
1.13181e-05
5.06954e-05
1.49477e-05
5.95014e-05
1.92935e-05
6.90278e-05
2.44617e-05
7.92334e-05
3.05752e-05
9.02213e-05
0.000101982
3.77747e-05
7.31583e-07
8.3438e-06
2.20251e-06
1.62717e-05
4.33316e-06
2.3803e-05
7.02959e-06
3.17287e-05
1.02128e-05
3.91338e-05
1.40051e-05
4.69031e-05
1.85573e-05
5.49493e-05
2.40146e-05
6.35705e-05
3.05262e-05
7.27217e-05
3.82415e-05
8.2506e-05
9.27414e-05
4.7482e-05
8.97894e-07
7.44591e-06
2.62155e-06
1.45481e-05
5.13283e-06
2.12918e-05
8.3676e-06
2.8494e-05
1.22147e-05
3.52867e-05
1.68377e-05
4.22801e-05
2.23741e-05
4.94128e-05
2.90135e-05
5.69311e-05
3.69034e-05
6.48319e-05
4.62625e-05
7.31469e-05
8.15953e-05
5.74086e-05
1.057e-06
6.3889e-06
3.00385e-06
1.26012e-05
5.87984e-06
1.84158e-05
9.64687e-06
2.47269e-05
1.41965e-05
3.07371e-05
1.96967e-05
3.67799e-05
2.62939e-05
4.28156e-05
3.41744e-05
4.90507e-05
4.35184e-05
5.54879e-05
5.45362e-05
6.21291e-05
6.85906e-05
6.75409e-05
1.20889e-06
5.18001e-06
3.34585e-06
1.04643e-05
6.53552e-06
1.52261e-05
1.07973e-05
2.04651e-05
1.60616e-05
2.54728e-05
2.24866e-05
3.03549e-05
3.0205e-05
3.50972e-05
3.93935e-05
3.98622e-05
5.02169e-05
4.46644e-05
6.2933e-05
4.9413e-05
5.36373e-05
7.78864e-05
1.3423e-06
3.83771e-06
3.61006e-06
8.19652e-06
7.01916e-06
1.1817e-05
1.1697e-05
1.57873e-05
1.76471e-05
1.95226e-05
2.50029e-05
2.29991e-05
3.38536e-05
2.62466e-05
4.4322e-05
2.93938e-05
5.65958e-05
3.23906e-05
7.09588e-05
3.50499e-05
3.67978e-05
8.77983e-05
1.44038e-06
2.39733e-06
3.65929e-06
5.97761e-06
7.14337e-06
8.33294e-06
1.21322e-05
1.07985e-05
1.86878e-05
1.29671e-05
2.6865e-05
1.48218e-05
3.67028e-05
1.64088e-05
4.82627e-05
1.78338e-05
6.17782e-05
1.88752e-05
7.75454e-05
1.92827e-05
1.83552e-05
9.59881e-05
1.07143e-06
1.3259e-06
3.17059e-06
3.87845e-06
6.60659e-06
4.89694e-06
1.17937e-05
5.61136e-06
1.86665e-05
6.09428e-06
2.7193e-05
6.2954e-06
3.73823e-05
6.21947e-06
4.94326e-05
5.78356e-06
6.35892e-05
4.71852e-06
8.01731e-05
2.69877e-06
-1.26373e-06
9.9792e-05
-5.18172e-08
1.37772e-06
2.35731e-06
1.46932e-06
6.40121e-06
8.53032e-07
1.19554e-05
5.72216e-08
1.93336e-05
-1.28397e-06
2.844e-05
-2.81098e-06
3.93876e-05
-4.72816e-06
5.25342e-05
-7.36301e-06
6.81905e-05
-1.09378e-05
8.68144e-05
-1.59251e-05
-2.27847e-05
0.000108335
8.64983e-06
1.45569e-05
2.10927e-05
2.87559e-05
3.72115e-05
4.68594e-05
5.81549e-05
7.14305e-05
8.70986e-05
0.000105554
0.000127356
-3.8909e-06
1.70111e-05
-1.31202e-05
-7.64968e-06
1.58118e-05
-1.2053e-05
-1.32906e-05
1.87339e-05
-1.3093e-05
-1.9447e-05
2.06848e-05
-1.45283e-05
-2.57234e-05
2.28166e-05
-1.65402e-05
-3.22273e-05
2.57363e-05
-1.92324e-05
-3.92058e-05
2.96628e-05
-2.26843e-05
-4.6949e-05
3.48599e-05
-2.71167e-05
-5.57649e-05
4.16573e-05
-3.28414e-05
-6.59804e-05
5.05092e-05
-4.02936e-05
6.20648e-05
-5.00413e-05
-7.80039e-05
2.71563e-06
1.42955e-05
3.249e-06
1.52784e-05
6.1705e-07
2.13658e-05
-3.76704e-06
2.50689e-05
-9.48826e-06
2.85379e-05
-1.61206e-05
3.23687e-05
-2.35377e-05
3.70799e-05
-3.18527e-05
4.3175e-05
-4.13257e-05
5.11303e-05
-5.22971e-05
6.14806e-05
7.4934e-05
-6.51663e-05
2.34527e-06
1.19502e-05
3.01267e-06
1.4611e-05
2.59422e-06
2.17843e-05
8.24657e-07
2.68384e-05
-2.76164e-06
3.21242e-05
-7.81988e-06
3.74269e-05
-1.40865e-05
4.33465e-05
-2.14473e-05
5.05358e-05
-2.99625e-05
5.96455e-05
-3.98427e-05
7.13608e-05
8.64969e-05
-5.14056e-05
1.64199e-06
1.03082e-05
1.87058e-06
1.43824e-05
2.0968e-06
2.1558e-05
1.52317e-06
2.7412e-05
-3.72165e-07
3.40195e-05
-3.57937e-06
4.06341e-05
-8.0907e-06
4.78578e-05
-1.38008e-05
5.62458e-05
-2.06639e-05
6.65086e-05
-2.87274e-05
7.94243e-05
9.58514e-05
-3.80819e-05
1.25279e-06
9.05542e-06
1.4435e-06
1.41917e-05
1.76714e-06
2.12344e-05
1.56525e-06
2.76139e-05
6.26685e-07
3.49581e-05
-1.22228e-06
4.24831e-05
-4.14273e-06
5.07783e-05
-8.16287e-06
6.0266e-05
-1.3254e-05
7.15998e-05
-1.94197e-05
8.559e-05
0.000103151
-2.6719e-05
1.10936e-06
7.94606e-06
1.55312e-06
1.37479e-05
2.0618e-06
2.07257e-05
2.09449e-06
2.75812e-05
1.67623e-06
3.53763e-05
6.49575e-07
4.35097e-05
-1.1428e-06
5.25706e-05
-3.79648e-06
6.29197e-05
-7.35394e-06
7.51572e-05
-1.18321e-05
9.00681e-05
0.000108558
-1.72389e-05
1.03887e-06
6.90718e-06
1.72313e-06
1.30637e-05
2.44152e-06
2.00073e-05
2.75043e-06
2.72723e-05
2.7303e-06
3.53965e-05
2.26611e-06
4.39739e-05
1.26037e-06
5.35764e-05
-3.72019e-07
6.4552e-05
-2.69388e-06
7.74791e-05
-5.76826e-06
9.31425e-05
0.000112395
-9.60559e-06
8.79863e-07
6.02732e-06
1.75023e-06
1.21933e-05
2.63062e-06
1.91269e-05
3.19645e-06
2.67065e-05
3.527e-06
3.50659e-05
3.5179e-06
4.3983e-05
3.13597e-06
5.39583e-05
2.31107e-06
6.53769e-05
9.88139e-07
7.8802e-05
-8.73545e-07
9.50042e-05
0.000114825
-3.30366e-06
8.62881e-07
5.16444e-06
1.85305e-06
1.12031e-05
2.86956e-06
1.81104e-05
3.67913e-06
2.58969e-05
4.30853e-06
3.44365e-05
4.68519e-06
4.36064e-05
4.80275e-06
5.38408e-05
4.62323e-06
6.55565e-05
4.11075e-06
7.93145e-05
3.21522e-06
9.58997e-05
0.000116115
1.92559e-06
9.3502e-07
4.22942e-06
2.09903e-06
1.00391e-05
3.31764e-06
1.68918e-05
4.39999e-06
2.48146e-05
5.3303e-06
3.35062e-05
6.04242e-06
4.28942e-05
6.56906e-06
5.33141e-05
6.89769e-06
6.52278e-05
7.01253e-06
7.91996e-05
6.87761e-06
9.60346e-05
0.000116588
6.40455e-06
9.50059e-07
3.27936e-06
2.22721e-06
8.76196e-06
3.62692e-06
1.54921e-05
4.98141e-06
2.34601e-05
6.21317e-06
3.22744e-05
7.27857e-06
4.18288e-05
8.19934e-06
5.23934e-05
9.00416e-06
6.4423e-05
9.69282e-06
7.8511e-05
1.02657e-05
9.54618e-05
0.000116132
1.07209e-05
8.64941e-07
2.41442e-06
2.12874e-06
7.49816e-06
3.62938e-06
1.39915e-05
5.19838e-06
2.18911e-05
6.73184e-06
3.0741e-05
8.16569e-06
4.0395e-05
9.51781e-06
5.10412e-05
1.08296e-05
6.31112e-05
1.21264e-05
7.72142e-05
1.3425e-05
9.41632e-05
0.000114823
1.47343e-05
7.89182e-07
1.62524e-06
2.01979e-06
6.26755e-06
3.61145e-06
1.23998e-05
5.39495e-06
2.01076e-05
7.2327e-06
2.89032e-05
9.05163e-06
3.85761e-05
1.08549e-05
4.9238e-05
1.26818e-05
6.12843e-05
1.45806e-05
7.53154e-05
1.6592e-05
9.21518e-05
0.000112736
1.8679e-05
7.38197e-07
8.87041e-07
1.92966e-06
5.07608e-06
3.61396e-06
1.07155e-05
5.61742e-06
1.81041e-05
7.78306e-06
2.67376e-05
1.00153e-05
3.63438e-05
1.22987e-05
4.69547e-05
1.46707e-05
5.89123e-05
1.71916e-05
7.27945e-05
1.99243e-05
8.94191e-05
0.00010973
2.29299e-05
5.60998e-07
3.26044e-07
1.6047e-06
4.03238e-06
3.28874e-06
9.03147e-06
5.4542e-06
1.59387e-05
7.93211e-06
2.42597e-05
1.06083e-05
3.36676e-05
1.3446e-05
4.41169e-05
1.64685e-05
5.58898e-05
1.97453e-05
6.95177e-05
2.3359e-05
8.58054e-05
0.00010573
2.73595e-05
3.47807e-07
-2.17629e-08
1.23374e-06
3.14645e-06
2.88419e-06
7.38102e-06
5.18877e-06
1.36341e-05
7.97388e-06
2.14746e-05
1.11145e-05
3.0527e-05
1.45539e-05
4.06775e-05
1.83068e-05
5.21369e-05
2.24434e-05
6.53811e-05
2.70582e-05
8.11907e-05
0.000100542
3.22465e-05
2.09177e-07
-2.3094e-07
9.51277e-07
2.40435e-06
2.51939e-06
5.8129e-06
4.91132e-06
1.12422e-05
7.98346e-06
1.84024e-05
1.15932e-05
2.69173e-05
1.56769e-05
3.65937e-05
2.02408e-05
4.7573e-05
2.53431e-05
6.02788e-05
3.10792e-05
7.54545e-05
9.40425e-05
3.75784e-05
1.06579e-07
-3.37519e-07
7.00226e-07
1.8107e-06
2.08895e-06
4.42418e-06
4.43708e-06
8.89405e-06
7.69141e-06
1.51481e-05
1.17324e-05
2.28763e-05
1.64909e-05
3.18353e-05
2.19659e-05
4.2098e-05
2.82044e-05
5.40403e-05
3.53151e-05
6.83438e-05
8.59292e-05
4.34284e-05
6.09818e-08
-3.98501e-07
5.33686e-07
1.338e-06
1.69488e-06
3.26298e-06
3.85386e-06
6.73507e-06
7.135e-06
1.1867e-05
1.15142e-05
1.84971e-05
1.69407e-05
2.64088e-05
2.33973e-05
3.56413e-05
3.09093e-05
4.65283e-05
3.95797e-05
5.96734e-05
7.58752e-05
4.96337e-05
4.03079e-08
-4.38809e-07
3.98805e-07
9.795e-07
1.29492e-06
2.36687e-06
3.13425e-06
4.89574e-06
6.25333e-06
8.74787e-06
1.08089e-05
1.39415e-05
1.68044e-05
2.04134e-05
2.42047e-05
2.82409e-05
3.30245e-05
3.77086e-05
4.33736e-05
4.93243e-05
6.36982e-05
5.55507e-05
6.89995e-09
-4.45709e-07
1.58863e-07
8.27537e-07
7.30894e-07
1.79484e-06
2.17411e-06
3.45253e-06
4.98059e-06
5.94139e-06
9.48351e-06
9.43855e-06
1.57848e-05
1.41121e-05
2.38756e-05
2.01501e-05
3.37732e-05
2.7811e-05
4.56539e-05
3.74436e-05
4.95268e-05
5.98253e-05
-4.28889e-07
-1.68197e-08
-5.10109e-07
9.08757e-07
-1.82673e-07
1.4674e-06
9.92923e-07
2.27693e-06
3.49386e-06
3.44045e-06
7.67991e-06
5.25251e-06
1.37741e-05
8.01794e-06
2.18931e-05
1.2031e-05
3.2189e-05
1.75152e-05
4.49411e-05
2.46915e-05
3.35595e-05
6.09084e-05
-5.7466e-07
5.5784e-07
-6.16626e-07
9.50723e-07
-7.412e-08
9.24898e-07
1.19393e-06
1.00888e-06
3.37448e-06
1.25991e-06
6.77358e-06
1.8534e-06
1.1756e-05
3.03551e-06
1.86559e-05
5.13117e-06
2.78371e-05
8.33396e-06
3.95795e-05
1.29491e-05
1.93877e-05
5.37513e-05
1.3524e-06
-7.94559e-07
3.35404e-06
-1.05091e-06
5.37669e-06
-1.09775e-06
7.37848e-06
-9.92913e-07
9.46755e-06
-8.29164e-07
1.18515e-05
-5.30576e-07
1.49795e-05
-9.24073e-08
1.95685e-05
5.42129e-07
2.62791e-05
1.62338e-06
3.57605e-05
3.46766e-06
6.52421e-06
4.86239e-05
-1.2556e-05
-5.64199e-07
-2.14583e-05
-3.15065e-06
-2.85682e-05
-5.98304e-06
-3.46347e-05
-8.4618e-06
-4.03647e-05
-1.08102e-05
-4.62674e-05
-1.33298e-05
-5.27011e-05
-1.62506e-05
-5.99786e-05
-1.98392e-05
-6.83681e-05
-2.44519e-05
-7.81314e-05
-3.05303e-05
-3.86633e-05
-8.95094e-05
-6.6224e-06
6.0582e-06
-1.27881e-05
3.01503e-06
-2.00683e-05
1.29719e-06
-2.72553e-05
-1.27479e-06
-3.42293e-05
-3.83631e-06
-4.13617e-05
-6.19733e-06
-4.90635e-05
-8.54878e-06
-5.77341e-05
-1.11686e-05
-6.76998e-05
-1.44862e-05
-7.92913e-05
-1.89388e-05
-2.50423e-05
-9.29123e-05
-2.47624e-06
8.53443e-06
-6.37533e-06
6.91413e-06
-1.20792e-05
7.00109e-06
-1.89278e-05
5.5738e-06
-2.66664e-05
3.90231e-06
-3.48796e-05
2.01583e-06
-4.36538e-05
2.25438e-07
-5.32416e-05
-1.58083e-06
-6.41108e-05
-3.61708e-06
-7.66906e-05
-6.35894e-06
-1.03642e-05
-9.13688e-05
-1.58934e-06
1.01238e-05
-4.32161e-06
9.64639e-06
-8.38513e-06
1.10646e-05
-1.37813e-05
1.097e-05
-2.04648e-05
1.05858e-05
-2.83585e-05
9.90962e-06
-3.7324e-05
9.19085e-06
-4.73375e-05
8.43272e-06
-5.86319e-05
7.67732e-06
-7.15473e-05
6.55643e-06
4.62548e-06
-8.65369e-05
-1.38883e-06
1.15126e-05
-3.78575e-06
1.20433e-05
-7.01447e-06
1.42933e-05
-1.13074e-05
1.52629e-05
-1.69097e-05
1.61881e-05
-2.37826e-05
1.67825e-05
-3.18885e-05
1.72968e-05
-4.1312e-05
1.78562e-05
-5.21335e-05
1.84988e-05
-6.46011e-05
1.90241e-05
1.90966e-05
-7.90722e-05
-1.23037e-06
1.2743e-05
-3.3884e-06
1.42014e-05
-6.08177e-06
1.69867e-05
-9.59706e-06
1.87782e-05
-1.42325e-05
2.08235e-05
-2.01019e-05
2.26519e-05
-2.71957e-05
2.43906e-05
-3.56874e-05
2.63478e-05
-4.56007e-05
2.84121e-05
-5.71317e-05
3.0555e-05
3.25084e-05
-7.05434e-05
-1.05078e-06
1.37938e-05
-2.96403e-06
1.61146e-05
-5.27094e-06
1.92936e-05
-8.2128e-06
2.172e-05
-1.20902e-05
2.47009e-05
-1.69921e-05
2.75539e-05
-2.31343e-05
3.05327e-05
-3.05125e-05
3.37261e-05
-3.92876e-05
3.71872e-05
-4.96232e-05
4.08906e-05
4.46568e-05
-6.17717e-05
-9.78965e-07
1.47727e-05
-2.63751e-06
1.77731e-05
-4.63223e-06
2.12883e-05
-7.13426e-06
2.42221e-05
-1.03481e-05
2.79147e-05
-1.44234e-05
3.16293e-05
-1.95438e-05
3.56531e-05
-2.58126e-05
3.99948e-05
-3.33448e-05
4.47195e-05
-4.2262e-05
4.98078e-05
5.51373e-05
-5.27425e-05
-8.49347e-07
1.56221e-05
-2.34709e-06
1.92709e-05
-3.85493e-06
2.27962e-05
-6.03866e-06
2.64058e-05
-8.68594e-06
3.0562e-05
-1.20359e-05
3.49792e-05
-1.62342e-05
3.98514e-05
-2.1415e-05
4.51756e-05
-2.77057e-05
5.10102e-05
-3.52721e-05
5.73742e-05
6.42003e-05
-4.43351e-05
-6.71835e-07
1.62939e-05
-1.87111e-06
2.04702e-05
-3.20187e-06
2.41269e-05
-4.90801e-06
2.81119e-05
-7.01414e-06
3.26681e-05
-9.6842e-06
3.76493e-05
-1.30311e-05
4.31983e-05
-1.71692e-05
4.93137e-05
-2.22342e-05
5.60752e-05
-2.83691e-05
6.35091e-05
7.1512e-05
-3.56808e-05
-4.69809e-07
1.67637e-05
-1.28959e-06
2.12899e-05
-2.25789e-06
2.50952e-05
-3.56812e-06
2.94222e-05
-5.16479e-06
3.42648e-05
-7.19835e-06
3.96828e-05
-9.73885e-06
4.57388e-05
-1.28947e-05
5.24695e-05
-1.6761e-05
5.99416e-05
-2.14513e-05
6.81994e-05
7.71667e-05
-2.7106e-05
-2.79324e-07
1.7043e-05
-8.53078e-07
2.18637e-05
-1.4885e-06
2.57306e-05
-2.3664e-06
3.03001e-05
-3.43624e-06
3.53346e-05
-4.81474e-06
4.10613e-05
-6.54507e-06
4.74691e-05
-8.69793e-06
5.46224e-05
-1.13451e-05
6.25888e-05
-1.45618e-05
7.14161e-05
8.10161e-05
-1.84113e-05
-5.83658e-08
1.71014e-05
-3.38752e-07
2.21441e-05
-6.39896e-07
2.60318e-05
-1.08121e-06
3.07414e-05
-1.62514e-06
3.58786e-05
-2.34733e-06
4.17835e-05
-3.2649e-06
4.83867e-05
-4.42605e-06
5.57835e-05
-5.84794e-06
6.40107e-05
-7.57405e-06
7.31422e-05
8.30746e-05
-9.63253e-06
2.48572e-07
1.68528e-05
3.27638e-07
2.2065e-05
3.94303e-07
2.59651e-05
3.94792e-07
3.07409e-05
3.87032e-07
3.58863e-05
3.16847e-07
4.18537e-05
2.02013e-07
4.85015e-05
2.99433e-08
5.59556e-05
-1.86043e-07
6.42266e-05
-4.14423e-07
7.33706e-05
8.33075e-05
-6.47256e-07
4.48472e-07
1.64044e-05
8.39889e-07
2.16736e-05
1.29198e-06
2.5513e-05
1.76886e-06
3.0264e-05
2.32174e-06
3.53335e-05
2.94947e-06
4.1226e-05
3.67692e-06
4.77741e-05
4.53672e-06
5.50958e-05
5.57323e-06
6.31901e-05
6.86916e-06
7.20746e-05
8.16458e-05
8.53083e-06
6.77235e-07
1.57271e-05
1.42034e-06
2.09305e-05
2.26757e-06
2.46658e-05
3.23765e-06
2.92939e-05
4.37788e-06
3.41932e-05
5.72693e-06
3.98769e-05
7.32832e-06
4.61727e-05
9.23956e-06
5.31846e-05
1.15437e-05
6.0886e-05
1.43575e-05
6.92608e-05
7.81837e-05
1.78195e-05
9.56389e-07
1.47707e-05
2.07798e-06
1.98089e-05
3.35644e-06
2.33873e-05
4.855e-06
2.77954e-05
6.61246e-06
3.24358e-05
8.70969e-06
3.77797e-05
1.12139e-05
4.36685e-05
1.42095e-05
5.0189e-05
1.7797e-05
5.72985e-05
2.21162e-05
6.49417e-05
7.29557e-05
2.73441e-05
1.22616e-06
1.35446e-05
2.74419e-06
1.82909e-05
4.48339e-06
2.16481e-05
6.54577e-06
2.5733e-05
8.96255e-06
3.0019e-05
1.18639e-05
3.48783e-05
1.53174e-05
4.0215e-05
1.94379e-05
4.60685e-05
2.43485e-05
5.23879e-05
3.02e-05
5.90902e-05
6.59714e-05
3.71843e-05
1.50141e-06
1.20432e-05
3.42173e-06
1.63706e-05
5.65695e-06
1.94129e-05
8.31805e-06
2.30719e-05
1.14553e-05
2.68818e-05
1.52036e-05
3.113e-05
1.96617e-05
3.57569e-05
2.49582e-05
4.07721e-05
3.12246e-05
4.61215e-05
3.8636e-05
5.16788e-05
5.72466e-05
4.73608e-05
1.79634e-06
1.02468e-05
4.13978e-06
1.40271e-05
6.88905e-06
1.66636e-05
1.01927e-05
1.97682e-05
1.4092e-05
2.29825e-05
1.8734e-05
2.64879e-05
2.42342e-05
3.02567e-05
3.07244e-05
3.42819e-05
3.83691e-05
3.84768e-05
4.7342e-05
4.27059e-05
4.67255e-05
5.7863e-05
2.10011e-06
8.14671e-06
4.84647e-06
1.12807e-05
8.12991e-06
1.33802e-05
1.2097e-05
1.58012e-05
1.67849e-05
1.82945e-05
2.23386e-05
2.09342e-05
2.88735e-05
2.37218e-05
3.65472e-05
2.66082e-05
4.55363e-05
2.94878e-05
5.60578e-05
3.21844e-05
3.44401e-05
6.83432e-05
2.34402e-06
5.80269e-06
5.47951e-06
8.14527e-06
9.27748e-06
9.58222e-06
1.3879e-05
1.11997e-05
1.93215e-05
1.2852e-05
2.57222e-05
1.45335e-05
3.32129e-05
1.62311e-05
4.19617e-05
1.78594e-05
5.21785e-05
1.92709e-05
6.41039e-05
2.0259e-05
2.05137e-05
7.80302e-05
2.80521e-06
2.99748e-06
6.26904e-06
4.68144e-06
1.04389e-05
5.41237e-06
1.54736e-05
6.16498e-06
2.14306e-05
6.89503e-06
2.8413e-05
7.55109e-06
3.65704e-05
8.07371e-06
4.60957e-05
8.3341e-06
5.72092e-05
8.15742e-06
7.01288e-05
7.33943e-06
5.76188e-06
8.48807e-05
2.20292e-06
5.83345e-06
1.01481e-05
1.53201e-05
2.1386e-05
2.84065e-05
3.63878e-05
4.5264e-05
5.50448e-05
6.58519e-05
7.8138e-05
3.80612e-07
3.7544e-06
-4.13501e-06
4.806e-07
3.76945e-06
-3.86944e-06
-1.68421e-07
4.62651e-06
-3.97749e-06
-1.29574e-06
5.138e-06
-4.01068e-06
-2.76037e-06
5.561e-06
-4.09637e-06
-4.54595e-06
6.08545e-06
-4.29988e-06
-6.63784e-06
6.92234e-06
-4.83044e-06
-9.0724e-06
8.30712e-06
-5.87256e-06
-1.19377e-05
1.05254e-05
-7.6601e-06
-1.53504e-05
1.39646e-05
-1.05519e-05
1.91728e-05
-1.50475e-05
-1.94758e-05
6.14241e-07
3.14016e-06
8.94658e-07
3.48904e-06
7.55631e-07
4.76554e-06
1.87467e-07
5.70616e-06
-8.54863e-07
6.60333e-06
-2.33542e-06
7.56601e-06
-4.21001e-06
8.79693e-06
-6.4834e-06
1.05805e-05
-9.22141e-06
1.32634e-05
-1.25414e-05
1.72846e-05
2.32328e-05
-1.66014e-05
2.06579e-07
2.93358e-06
2.9359e-07
3.40202e-06
3.27123e-07
4.73201e-06
1.37325e-07
5.89596e-06
-4.26251e-07
7.16691e-06
-1.4198e-06
8.55955e-06
-2.85154e-06
1.02287e-05
-4.71994e-06
1.24489e-05
-7.05499e-06
1.55984e-05
-9.92885e-06
2.01585e-05
2.67849e-05
-1.3481e-05
-1.68693e-08
2.95045e-06
-1.03798e-07
3.48895e-06
-1.27145e-07
4.75535e-06
-2.18647e-07
5.98746e-06
-5.09957e-07
7.45822e-06
-1.11174e-06
9.16133e-06
-2.09419e-06
1.12111e-05
-3.49195e-06
1.38467e-05
-5.33233e-06
1.74388e-05
-7.65294e-06
2.24791e-05
2.96378e-05
-1.05058e-05
-9.885e-08
3.0493e-06
-2.43756e-07
3.63386e-06
-3.39695e-07
4.85129e-06
-4.39698e-07
6.08746e-06
-6.25327e-07
7.64384e-06
-9.95439e-07
9.53144e-06
-1.64382e-06
1.18595e-05
-2.63832e-06
1.48412e-05
-4.01919e-06
1.88197e-05
-5.81657e-06
2.42765e-05
3.18774e-05
-8.05619e-06
-7.44066e-08
3.12371e-06
-2.04356e-07
3.76381e-06
-3.25138e-07
4.97207e-06
-4.33803e-07
6.19613e-06
-5.84214e-07
7.79426e-06
-8.42146e-07
9.78938e-06
-1.28874e-06
1.23061e-05
-2.00332e-06
1.55557e-05
-3.0401e-06
1.98565e-05
-4.43713e-06
2.56735e-05
3.36679e-05
-6.22762e-06
-8.2289e-09
3.13193e-06
-1.38774e-07
3.89435e-06
-2.48205e-07
5.0815e-06
-3.43371e-07
6.2913e-06
-4.72181e-07
7.92307e-06
-6.70613e-07
9.98781e-06
-1.00411e-06
1.26396e-05
-1.54025e-06
1.60919e-05
-2.34121e-06
2.06574e-05
-3.4551e-06
2.67874e-05
3.51303e-05
-4.91755e-06
-5.28419e-08
3.18478e-06
-1.76326e-07
4.01784e-06
-2.09152e-07
5.11433e-06
-2.84455e-07
6.3666e-06
-3.91005e-07
8.02962e-06
-5.50797e-07
1.01476e-05
-8.11184e-07
1.29e-05
-1.23152e-06
1.65122e-05
-1.8699e-06
2.12958e-05
-2.77685e-06
2.76943e-05
3.63478e-05
-3.9943e-06
-3.73733e-08
3.22215e-06
-8.34851e-08
4.06395e-06
-1.2651e-07
5.15736e-06
-2.10923e-07
6.45101e-06
-3.01755e-07
8.12045e-06
-4.33791e-07
1.02796e-05
-6.49013e-07
1.31152e-05
-9.95486e-07
1.68587e-05
-1.52599e-06
2.18263e-05
-2.29583e-06
2.84642e-05
3.74144e-05
-3.36243e-06
1.03731e-08
3.21178e-06
-1.19478e-08
4.08627e-06
-4.01053e-08
5.18551e-06
-8.42597e-08
6.49517e-06
-1.48651e-07
8.18484e-06
-2.58708e-07
1.03897e-05
-4.44161e-07
1.33007e-05
-7.45748e-07
1.71603e-05
-1.21503e-06
2.22956e-05
-1.90652e-06
2.91557e-05
3.83858e-05
-2.87797e-06
4.7962e-08
3.16381e-06
5.04902e-08
4.08374e-06
4.91144e-08
5.18689e-06
2.90449e-08
6.51524e-06
-1.39356e-08
8.22782e-06
-9.97879e-08
1.04755e-05
-2.55889e-07
1.34568e-05
-5.20433e-07
1.74248e-05
-9.41347e-07
2.27165e-05
-1.57572e-06
2.979e-05
3.93033e-05
-2.49324e-06
4.75524e-08
3.11626e-06
5.56622e-08
4.07563e-06
7.0064e-08
5.17249e-06
7.11968e-08
6.5141e-06
5.10228e-08
8.24799e-06
-6.42873e-09
1.0533e-05
-1.25636e-07
1.3576e-05
-3.44079e-07
1.76433e-05
-7.07198e-07
2.30796e-05
-1.27485e-06
3.03577e-05
4.01545e-05
-2.12605e-06
6.0648e-08
3.05561e-06
8.35913e-08
4.05269e-06
1.18591e-07
5.13749e-06
1.42093e-07
6.4906e-06
1.49983e-07
8.2401e-06