/*--------------------------------*- C++ -*----------------------------------*\
| =========                 |                                                 |
| \\      /  F ield         | OpenFOAM: The Open Source CFD Toolbox           |
|  \\    /   O peration     | Version:  3.0.1                                 |
|   \\  /    A nd           | Web:      www.OpenFOAM.org                      |
|    \\/     M anipulation  |                                                 |
\*---------------------------------------------------------------------------*/
FoamFile
{
    version     2.0;
    format      ascii;
    class       volScalarField;
    location    "0";
    object      yPlus;
}
// * * * * * * * * * * * * * * * * * * * * * * * * * * * * * * * * * * * * * //

dimensions      [0 0 0 0 0 0 0];

internalField   uniform 0;

boundaryField
{
    FrontAndBack
    {
        type            empty;
    }
    patch1
    {
        type            calculated;
        value           nonuniform List<scalar> 
128
(
0.767264
0.76284
0.761703
0.763193
0.766685
0.775811
0.785536
0.798662
0.81012
0.816085
0.818418
0.822531
0.830722
0.833639
0.835936
0.841886
0.846677
0.853225
0.862494
0.869041
0.877013
0.887146
0.894976
0.900862
0.907651
0.915373
0.920656
0.926781
0.933674
0.937915
0.942845
0.948392
0.951199
0.954584
0.9552
0.956312
0.961324
0.963508
0.962859
0.959348
0.956356
0.957117
0.951814
0.943681
0.939353
0.932166
0.922168
0.912581
0.897151
0.88244
0.867218
0.845097
0.827488
0.807058
0.776373
0.745995
0.714629
0.680335
0.643157
0.601259
0.554014
0.549154
0.768011
0.810483
0.770076
0.771863
0.770111
0.763559
0.757165
0.745211
0.731102
0.719456
0.709209
0.700767
0.693265
0.687844
0.688959
0.694056
0.700703
0.715085
0.730025
0.744366
0.761203
0.777185
0.794836
0.810778
0.828122
0.846573
0.859307
0.872867
0.887147
0.901987
0.913878
0.926107
0.938608
0.944611
0.950664
0.956711
0.959396
0.958617
0.954369
0.953226
0.948542
0.936941
0.928424
0.919601
0.900526
0.881192
0.864906
0.841719
0.814941
0.784663
0.754194
0.723444
0.686162
0.645426
0.604294
0.559941
0.512319
0.46124
0.406896
0.352543
0.295278
0.234328
0.182105
0.38108
0.705327
0.782133
)
;
    }
    patch2
    {
        type            calculated;
        value           nonuniform List<scalar> 
128
(
0.768623
0.764813
0.760624
0.762029
0.765372
0.774343
0.789282
0.800602
0.807958
0.814681
0.818979
0.822875
0.828084
0.83561
0.839046
0.844706
0.851696
0.857012
0.86457
0.873012
0.878741
0.88249
0.890623
0.898621
0.904471
0.915664
0.923325
0.925815
0.933542
0.93892
0.943363
0.950136
0.952896
0.956331
0.960277
0.958203
0.958581
0.962097
0.960866
0.96009
0.960347
0.958116
0.954176
0.946055
0.93836
0.931196
0.92202
0.915748
0.902883
0.885599
0.868875
0.850243
0.829628
0.804557
0.777619
0.748536
0.716922
0.680969
0.642327
0.601552
0.553931
0.567631
0.779044
0.802598
0.768017
0.768826
0.768577
0.762606
0.757362
0.747841
0.734576
0.719924
0.70794
0.701472
0.694086
0.691405
0.688428
0.693158
0.703253
0.712529
0.730064
0.745824
0.759488
0.778226
0.797725
0.811354
0.824658
0.843721
0.860798
0.875697
0.891285
0.902933
0.916507
0.92901
0.937315
0.947218
0.954148
0.956691
0.957795
0.958799
0.961042
0.957016
0.948338
0.938034
0.927433
0.916622
0.902452
0.888115
0.868996
0.843651
0.815131
0.786476
0.754599
0.721098
0.686101
0.64789
0.605302
0.556664
0.506707
0.455275
0.403863
0.351153
0.293005
0.234774
0.180743
0.432746
0.715949
0.7635
)
;
    }
    patch3
    {
        type            calculated;
        value           nonuniform List<scalar> 
128
(
0.764912
0.764513
0.765085
0.763661
0.765238
0.778414
0.790455
0.799502
0.806122
0.813334
0.820878
0.822664
0.82979
0.83617
0.841774
0.846778
0.850055
0.857741
0.862222
0.870604
0.878026
0.886661
0.896221
0.902088
0.908867
0.916607
0.922399
0.924375
0.931694
0.938572
0.942677
0.948807
0.955862
0.957514
0.956725
0.957904
0.959663
0.960579
0.962121
0.961047
0.957363
0.954148
0.951412
0.948096
0.943057
0.934349
0.925068
0.913186
0.898427
0.88418
0.869544
0.852136
0.831848
0.808648
0.779067
0.749404
0.716311
0.680829
0.644978
0.602878
0.553925
0.550631
0.767617
0.801439
0.76754
0.767762
0.769835
0.763577
0.756071
0.746907
0.73107
0.717906
0.704839
0.693331
0.690893
0.691898
0.689121
0.692068
0.703507
0.714993
0.730153
0.743789
0.759996
0.77831
0.791028
0.808237
0.826759
0.843635
0.859674
0.87469
0.890379
0.905725
0.91687
0.92844
0.937506
0.944829
0.950288
0.953077
0.955783
0.958438
0.958201
0.953074
0.950498
0.944958
0.929802
0.914435
0.900649
0.884769
0.863131
0.841162
0.817241
0.785571
0.753857
0.722012
0.686384
0.645146
0.605673
0.559776
0.511005
0.46067
0.405597
0.353562
0.295719
0.235659
0.186415
0.37259
0.704242
0.762117
)
;
    }
    Shaft
    {
        type            calculated;
        value           nonuniform List<scalar> 
18
(
12.2052
12.1534
12.1161
12.0936
12.0861
12.0936
12.1161
12.1534
12.2052
12.2052
12.1534
12.1161
12.0936
12.0861
12.0936
12.1161
12.1534
12.2052
)
;
    }
    Inlet
    {
        type            calculated;
        value           uniform 0;
    }
    Lat-Wall
    {
        type            calculated;
        value           nonuniform List<scalar> 
98
(
1136.82
1069.91
772.875
970.588
906.591
1120.58
821.397
820.279
902.567
1020.23
993.977
891.386
852.613
956.5
794.564
689.693
689.603
852.613
983.557
928.058
882.352
948.361
977.967
776.765
736.069
696.848
973.047
1054.71
761.784
925.151
873.319
722.652
807.891
752.884
775.111
839.331
893.712
940.714
772.875
818.848
870.322
844.608
973.405
857.845
801.183
967.636
807.355
499.851
474.717
829.223
708.476
619.838
424.182
529.411
793.715
922.87
738.394
798.545
707.134
665.543
659.282
643.496
735.711
505.351
801.362
764.691
677.26
734.101
720.595
583.927
583.748
772.204
770.012
933.201
802.078
559.33
695.194
729.897
641.125
774.932
680.078
639.515
635.177
678.155
743.806
671.357
667.287
608.568
686.562
597.433
654.81
683.924
529.009
515.771
526.013
584.016
444.799
609.552
)
;
    }
    Outlet
    {
        type            calculated;
        value           uniform 0;
    }
    AMI-St
    {
        type            cyclicAMI;
        value           uniform 0;
    }
    AMI-Rt
    {
        type            cyclicAMI;
        value           uniform 0;
    }
}


// ************************************************************************* //
